/*--------------------------------*- C++ -*----------------------------------*\
| =========                 |                                                 |
| \\      /  F ield         | OpenFOAM: The Open Source CFD Toolbox           |
|  \\    /   O peration     | Version:  dev                                   |
|   \\  /    A nd           | Web:      http://www.openfoam.org               |
|    \\/     M anipulation  |                                                 |
\*---------------------------------------------------------------------------*/
FoamFile
{
    version     2.0;
    format      ascii;
    class       volScalarField;
    object      k;
    location    "9.118";
}
// * * * * * * * * * * * * * * * * * * * * * * * * * * * * * * * * * * * * * //

dimensions      [0 2 -2 0 0 0 0];

internalField   nonuniform List<scalar> 
12225
(
7.73349
8.28391
5.08651
4.53622
3.58049
4.1104
4.3045
4.66233
5.79256
5.69368
7.63958
7.06029
9.73729
8.8096
11.8162
10.5405
14.5622
16.8919
1.74051
5.95572
5.28335
6.19092
4.46958
5.54136
3.91223
5.091
3.87939
4.90643
4.16686
4.6908
4.5808
4.56587
5.40299
5.2358
12.3383
17.2203
0.186929
1.76556
2.21653
3.21885
2.93686
3.50296
3.0239
3.34827
3.0462
2.88095
2.96334
2.49497
2.92279
2.24801
3.1166
2.54701
6.73632
11.9387
0.0250603
0.363088
0.631537
0.990506
1.29534
1.38073
1.67027
1.53683
1.91421
1.49067
1.93634
1.34739
1.74221
1.22074
1.67269
1.30019
2.81639
5.33079
0.0110243
0.107124
0.234718
0.354288
0.564882
0.606724
0.794135
0.755141
0.931512
0.788391
0.980894
0.750101
0.94551
0.714059
0.926465
0.766802
1.26134
1.81816
0.0183219
0.0942235
0.146213
0.195447
0.283976
0.313687
0.409843
0.407248
0.494056
0.454148
0.536727
0.464982
0.543969
0.468923
0.549171
0.5059
0.68284
0.764977
0.055815
0.0976804
0.132143
0.156857
0.202483
0.221045
0.27226
0.280116
0.326622
0.320967
0.358051
0.343469
0.373082
0.357632
0.386127
0.383263
0.448215
0.475646
0.0980279
0.130116
0.143729
0.162354
0.192281
0.210218
0.239911
0.25406
0.278426
0.286026
0.303777
0.307172
0.318276
0.319272
0.329598
0.332423
0.356867
0.369642
0.172876
0.219693
0.19812
0.20967
0.214859
0.231164
0.246822
0.262419
0.27755
0.288355
0.299321
0.307118
0.312836
0.317292
0.323439
0.326472
0.338357
0.34635
0.333171
0.394072
0.347057
0.35028
0.312242
0.318791
0.301128
0.311098
0.308733
0.317889
0.319486
0.326282
0.327391
0.330307
0.333503
0.335623
0.342366
0.348211
0.600845
0.681058
0.594581
0.585186
0.524379
0.516985
0.46839
0.458154
0.424249
0.420385
0.403081
0.399745
0.389188
0.384084
0.379063
0.376285
0.374879
0.374608
1.1264
1.18658
1.00838
0.952814
0.829366
0.782434
0.707024
0.678874
0.638745
0.625026
0.597929
0.581105
0.554867
0.535054
0.514121
0.497511
0.482152
0.47063
1.87998
1.88702
1.59434
1.4491
1.24103
1.12604
0.997768
0.924126
0.859686
0.827935
0.788529
0.759023
0.718075
0.689358
0.653638
0.631435
0.602232
0.58287
3.02654
2.94562
2.40129
2.05009
1.75225
1.58179
1.43464
1.33026
1.23846
1.16872
1.09258
1.03046
0.960808
0.911971
0.854081
0.81863
0.770601
0.739875
4.85637
4.65286
3.77998
3.14799
2.67191
2.31147
2.01904
1.79905
1.62158
1.48458
1.36041
1.26259
1.16608
1.09504
1.01745
0.966551
0.90194
0.861439
6.79537
6.34903
4.89404
3.85991
3.16046
2.65881
2.28398
2.00818
1.79159
1.62509
1.48012
1.36715
1.25963
1.17909
1.09347
1.03548
0.964334
0.918657
7.78727
6.98908
5.24277
4.08525
3.31424
2.76923
2.36889
2.07546
1.84649
1.67047
1.51877
1.40104
1.29031
1.20706
1.11929
1.0593
0.986589
0.938818
7.6472
6.9196
5.21161
4.05806
3.29496
2.7572
2.36159
2.07091
1.8436
1.66804
1.51641
1.39875
1.28828
1.20523
1.1177
1.05719
0.985416
0.936939
6.5084
6.02598
4.71348
3.73053
3.06869
2.59644
2.24336
1.9816
1.77472
1.61227
1.46858
1.35689
1.25136
1.17178
1.0871
1.02886
0.959582
0.913035
4.31505
4.10509
3.48241
2.91067
2.48887
2.17364
1.92639
1.73908
1.58613
1.46079
1.34062
1.24633
1.15467
1.08533
1.00875
0.957885
0.894318
0.853463
2.68674
2.52346
2.11028
1.78274
1.56051
1.42197
1.32245
1.25396
1.19536
1.14148
1.07063
1.01023
0.942972
0.893935
0.833912
0.798573
0.749017
0.719989
1.58382
1.53968
1.37495
1.21834
1.09288
1.00235
0.931887
0.877469
0.825151
0.779523
0.727841
0.68648
0.65264
0.63216
0.608724
0.594944
0.574391
0.562438
0.833556
0.834746
0.78514
0.707091
0.638004
0.592372
0.572474
0.567707
0.565113
0.563739
0.559645
0.556492
0.552625
0.54806
0.540959
0.535289
0.525117
0.518001
0.386598
0.405019
0.39161
0.375456
0.385793
0.415307
0.446222
0.473044
0.493167
0.509264
0.51999
0.527832
0.532243
0.531826
0.529588
0.525609
0.518296
0.512366
0.16169
0.17898
0.210051
0.26881
0.331744
0.387388
0.43396
0.469674
0.49547
0.516073
0.533005
0.545473
0.55468
0.557686
0.556401
0.553223
0.547189
0.541502
0.0489418
0.101143
0.184584
0.282997
0.387224
0.478367
0.543976
0.587314
0.617974
0.64345
0.667261
0.684515
0.696584
0.700165
0.697755
0.692464
0.684813
0.678244
0.0176463
0.12401
0.36944
0.590538
0.789147
0.9394
1.02243
1.06336
1.08789
1.1108
1.13379
1.14634
1.14495
1.13506
1.11723
1.10031
1.07867
1.06586
0.0715162
0.645023
1.44507
1.85113
2.1392
2.31037
2.33138
2.31035
2.26551
2.22855
2.19135
2.14495
2.07579
2.00475
1.92688
1.86086
1.78783
1.73817
0.858912
3.73682
5.04531
5.14365
4.88796
4.42002
4.00455
3.68358
3.41817
3.1895
2.9806
2.7921
2.61937
2.46991
2.34436
2.2237
2.10281
1.98486
6.48186
9.48548
8.16926
6.0672
4.6612
3.89023
3.45539
3.1943
3.02679
2.90723
2.81684
2.75556
2.70873
2.67539
2.65162
2.62475
2.58784
2.48107
0.289825
0.20343
0.2136
0.24026
0.265293
0.28968
0.311799
0.335549
0.364795
0.399927
0.442935
0.494733
0.552248
0.611787
0.682612
0.757968
0.838969
0.943173
1.07231
1.21408
1.36143
1.50379
1.70707
1.93808
2.12676
2.37371
2.60966
2.83646
3.06782
3.25369
3.45945
3.43284
3.11333
2.57031
2.32279
2.16095
2.0974
2.12477
2.17426
2.19427
2.21862
2.23181
2.23661
2.26649
2.34403
2.42222
2.53392
2.75206
3.14023
3.22271
3.09455
2.88905
2.89329
3.08654
3.24533
3.41319
3.7357
4.59247
5.33628
5.80807
6.0964
6.28846
6.40353
6.44169
6.41565
6.33724
6.22064
6.08954
5.94249
5.80209
5.65525
5.51179
5.38
5.24554
5.11193
4.98197
4.87277
4.76706
4.66307
4.55808
4.44743
4.34413
4.23198
4.11595
3.99509
3.86961
3.72531
3.57298
3.45114
3.29043
3.13574
2.98553
2.84009
2.70076
2.56624
2.44352
2.32671
2.23113
2.14565
2.05673
1.99526
1.94608
1.91331
1.88744
1.86968
1.85687
1.86104
1.88035
1.92063
1.94658
1.94363
1.92089
1.87354
1.77959
1.66147
1.55963
1.47921
1.4116
1.38324
1.35274
1.29129
1.20941
1.17408
1.21505
1.3483
1.51624
1.61196
1.68388
1.82814
2.07591
2.43152
3.04429
3.5425
3.86405
4.19415
4.56462
4.86041
5.01339
5.41544
5.9798
5.81626
5.56724
5.89604
6.27476
5.96313
5.91622
5.96959
6.29185
6.65826
7.35589
8.18191
9.465
10.7038
12.5072
13.5254
13.7652
13.2312
12.6032
11.7883
11.2215
10.9713
11.0868
11.6159
11.6942
11.7368
12.0337
10.9895
9.10777
9.66894
11.0123
10.6998
9.17417
8.94217
8.7665
8.60123
8.33808
8.17595
8.41851
8.5761
9.82545
1.41578
0.57099
0.323209
0.309058
0.322035
0.321342
0.311346
0.307705
0.30652
0.307446
0.307903
0.30709
0.304245
0.295835
0.289368
0.289196
0.290839
0.295267
0.303609
0.323708
0.347571
0.362955
0.396226
0.445232
0.497327
0.572652
0.676069
0.784796
0.94416
1.17726
1.37556
1.76745
2.02302
2.02367
1.96346
1.68239
1.2541
1.05571
0.903256
0.756934
0.669498
0.599763
0.557545
0.547837
0.573115
0.680112
0.730432
0.744945
0.802849
1.00802
1.1884
1.3628
1.99969
3.07072
3.38399
3.43495
3.66085
3.82635
3.60632
3.23566
2.82671
2.46473
2.13062
1.88118
1.69539
1.55707
1.45761
1.37416
1.32262
1.27557
1.24244
1.21799
1.20436
1.19504
1.18783
1.18166
1.18081
1.17898
1.179
1.17333
1.17052
1.17152
1.16898
1.17084
1.17384
1.16376
1.1548
1.1548
1.15684
1.13717
1.12293
1.11259
1.10605
1.09715
1.08448
1.07596
1.06453
1.05992
1.06018
1.05128
1.05238
1.05705
1.06886
1.08179
1.10069
1.13056
1.1716
1.20405
1.217
1.21469
1.17527
1.12247
1.07654
1.03283
1.01373
1.00708
0.996026
0.969067
0.946893
0.944257
0.968054
1.00093
1.00134
0.994047
1.01889
1.05036
1.03898
1.04981
1.09311
1.20281
1.3331
1.39713
1.53365
1.67627
1.72314
1.82147
2.12329
2.46506
3.36014
4.0473
3.28435
2.37769
2.96213
3.54317
2.67171
2.23065
2.46163
2.54823
2.64584
2.71934
2.86044
3.16221
3.49057
4.25659
5.24721
6.54065
7.4612
7.87252
7.72845
7.01365
6.33986
5.89563
5.99255
6.84501
7.4597
8.01898
5.97348
4.2395
4.49013
5.84065
6.39031
5.65076
4.83615
4.89732
4.87039
4.72684
4.70812
4.815
4.89225
5.54476
3.47668
1.1701
0.551075
0.452627
0.383739
0.338705
0.308494
0.288447
0.275214
0.262745
0.242877
0.221169
0.199207
0.183908
0.173499
0.169097
0.169262
0.170999
0.174461
0.179638
0.183939
0.187457
0.195371
0.204245
0.2168
0.235816
0.253472
0.286295
0.321606
0.401571
0.480305
0.660495
0.837324
1.16067
1.42521
1.43325
1.3346
1.07445
0.762509
0.536387
0.435683
0.409424
0.412428
0.440304
0.547847
0.712333
0.915141
1.03337
1.25262
1.72161
2.11281
2.37207
2.67159
2.73718
2.4231
2.0968
1.64157
1.34547
1.06901
0.837568
0.660325
0.548
0.469529
0.427838
0.404514
0.391425
0.384406
0.380864
0.379286
0.378763
0.380268
0.385118
0.391206
0.397573
0.404875
0.411471
0.419658
0.427201
0.433613
0.439205
0.447777
0.456646
0.462904
0.474545
0.485089
0.488823
0.497115
0.513093
0.528643
0.53427
0.544731
0.554191
0.570267
0.582168
0.596262
0.608016
0.623558
0.639146
0.658662
0.674336
0.689666
0.712326
0.742641
0.783318
0.822509
0.862995
0.92484
0.979315
0.997058
0.995619
0.973435
0.942346
0.900268
0.874714
0.870002
0.862055
0.85637
0.853387
0.82557
0.797753
0.822876
0.931823
1.00106
0.97736
0.947781
0.895736
0.79215
0.736007
0.731102
0.780325
0.926026
0.971026
0.968085
0.952242
0.950013
1.01171
1.2081
1.71448
2.77738
2.94885
1.9443
1.41961
1.67025
1.98473
1.61931
1.43166
1.62453
1.73987
1.77016
1.84468
1.84606
1.91658
2.00232
2.24835
2.71769
3.52125
4.3954
5.3943
5.98422
6.11328
5.6642
4.83394
4.56661
4.88963
5.37958
5.5007
4.22184
3.11013
3.14576
3.70693
4.42494
4.16212
3.59172
3.53851
3.54127
3.43971
3.34359
3.25619
3.30191
3.63421
6.27066
1.92061
0.8096
0.522638
0.384677
0.313279
0.265331
0.22637
0.196852
0.1697
0.155892
0.147592
0.141492
0.13766
0.136241
0.13782
0.142843
0.148057
0.151313
0.153738
0.157299
0.163178
0.170046
0.17732
0.185918
0.192397
0.197389
0.207595
0.21691
0.236169
0.261441
0.324793
0.401809
0.585529
0.762504
1.02655
1.12103
1.07686
0.903475
0.616122
0.474962
0.456594
0.484957
0.674875
0.986545
1.19467
1.35549
1.43305
1.62534
1.84071
1.97416
1.94984
1.68099
1.29029
1.01863
0.787614
0.568436
0.456176
0.368094
0.316967
0.289432
0.277063
0.273133
0.273805
0.276583
0.279319
0.283465
0.286189
0.289135
0.290652
0.292768
0.295158
0.297066
0.300372
0.304025
0.307609
0.311561
0.315391
0.318629
0.320776
0.324995
0.32963
0.334792
0.339506
0.345448
0.347815
0.352067
0.359344
0.369853
0.374113
0.386189
0.39122
0.406472
0.416585
0.434467
0.447169
0.468233
0.48831
0.509372
0.53366
0.551204
0.577407
0.610914
0.662587
0.709863
0.74846
0.81572
0.891087
0.924096
0.925451
0.9177
0.907731
0.874184
0.848621
0.836865
0.804976
0.788473
0.7869
0.78621
0.73897
0.693866
0.72933
0.941646
1.03439
0.96106
0.871139
0.762464
0.666622
0.621078
0.62682
0.70606
0.846832
0.855211
0.794006
0.771441
0.819086
0.979299
1.5696
2.45364
2.35164
1.46087
1.18397
1.26913
1.44086
1.3235
1.26399
1.44985
1.5359
1.556
1.58779
1.54387
1.52737
1.52041
1.59798
1.80667
2.28476
2.72102
3.44583
4.23487
4.72968
4.87697
4.69679
4.27777
4.14066
4.28568
4.29571
3.41608
2.86752
2.84379
3.04602
3.63676
3.53771
3.13001
3.11323
3.09289
2.96066
2.79935
2.6858
2.89409
3.0623
9.6722
2.88143
1.05858
0.546205
0.335617
0.214499
0.158697
0.138955
0.129392
0.12407
0.12205
0.120502
0.119573
0.119683
0.12217
0.129226
0.136343
0.140998
0.143806
0.146441
0.151529
0.158936
0.166463
0.174289
0.181515
0.185756
0.189381
0.194179
0.197497
0.201686
0.208864
0.226261
0.256966
0.333923
0.441777
0.631647
0.818906
0.892105
0.857984
0.725456
0.630647
0.620628
0.717323
1.03277
1.17281
1.20486
1.29967
1.37791
1.45557
1.41145
1.25926
0.989843
0.739347
0.539385
0.435888
0.343988
0.290768
0.265657
0.253445
0.249594
0.251208
0.251931
0.255706
0.257231
0.260505
0.261464
0.264551
0.26667
0.269181
0.270251
0.271492
0.272675
0.272783
0.273868
0.275092
0.276329
0.279883
0.281345
0.284791
0.285206
0.286544
0.288061
0.29288
0.295631
0.299312
0.301115
0.303848
0.304714
0.307056
0.306787
0.315706
0.316811
0.326529
0.333077
0.346623
0.35998
0.374953
0.397994
0.414101
0.440458
0.45962
0.486496
0.512102
0.549537
0.599989
0.64425
0.699432
0.762537
0.818593
0.842981
0.85123
0.850887
0.833702
0.805446
0.794549
0.77885
0.758063
0.736533
0.742413
0.727589
0.667209
0.606176
0.66633
0.985901
1.01398
0.890925
0.771478
0.673046
0.606298
0.589888
0.615096
0.762046
0.811446
0.767153
0.750296
0.801051
0.965024
1.565
2.31752
2.01142
1.26075
1.12503
1.17505
1.28092
1.26898
1.19346
1.24219
1.24286
1.30977
1.3217
1.32385
1.32894
1.29408
1.32815
1.4506
1.76296
2.0374
2.36762
3.09563
3.68217
4.00482
4.15559
4.22941
3.90436
3.78903
3.62958
2.93998
2.80615
2.7
2.8279
3.31952
3.27064
2.93482
2.95498
2.93461
2.77819
2.60335
2.55475
2.85257
2.9161
13.5429
3.94069
1.29191
0.550953
0.260543
0.148946
0.114424
0.10783
0.108253
0.110682
0.11163
0.111265
0.11133
0.113149
0.118391
0.127864
0.135258
0.139876
0.143635
0.149012
0.156684
0.164381
0.171293
0.177993
0.183673
0.186958
0.190037
0.193002
0.194469
0.19532
0.196997
0.200568
0.21038
0.237228
0.291307
0.418341
0.555591
0.672587
0.749798
0.738497
0.71802
0.728884
0.880627
1.07784
1.12809
1.11065
1.11633
1.06747
0.961484
0.789602
0.620763
0.479107
0.368487
0.300316
0.268967
0.249666
0.242196
0.239529
0.238188
0.237497
0.237086
0.235045
0.233016
0.230036
0.226267
0.223769
0.222489
0.222792
0.224176
0.225024
0.225853
0.227672
0.227266
0.227408
0.229954
0.23284
0.239876
0.244038
0.250765
0.253209
0.256054
0.256761
0.259594
0.264242
0.269225
0.273565
0.277102
0.277886
0.276116
0.274145
0.273926
0.269361
0.268217
0.269176
0.270098
0.275661
0.279713
0.291092
0.302933
0.318855
0.343772
0.366236
0.401093
0.432125
0.489842
0.542206
0.572847
0.615623
0.687132
0.707718
0.708796
0.725346
0.742071
0.714405
0.687965
0.706281
0.71856
0.702169
0.688556
0.677353
0.652405
0.575312
0.555255
0.626998
0.955907
0.928964
0.798796
0.700589
0.614833
0.581824
0.57903
0.651411
0.777314
0.768746
0.765694
0.87185
1.05037
1.45982
2.03656
1.86425
1.26251
1.11513
1.12292
1.19905
1.22745
1.10954
1.08563
1.07147
1.09785
1.06194
1.0632
1.12567
1.12822
1.17251
1.29101
1.53117
1.74286
1.93135
2.20159
2.89018
3.25487
3.48819
3.94896
3.78996
3.62751
3.33654
2.7865
2.82244
2.63006
2.70837
3.14648
3.1515
2.88996
2.80095
2.75398
2.69054
2.59543
2.57354
2.87932
2.85241
17.665
4.99558
1.55406
0.560959
0.227185
0.119665
0.0969188
0.0969727
0.103793
0.107941
0.108379
0.108158
0.109226
0.113004
0.121781
0.132297
0.140147
0.147188
0.15697
0.173382
0.185681
0.19046
0.191844
0.193405
0.1942
0.194898
0.195696
0.196642
0.198727
0.19947
0.198625
0.19771
0.199437
0.207892
0.234125
0.311834
0.437918
0.55468
0.663514
0.709781
0.72098
0.754751
0.918331
1.02039
0.97959
0.870196
0.820112
0.691808
0.577898
0.450165
0.349585
0.291677
0.256015
0.239768
0.233825
0.231037
0.229372
0.225213
0.218496
0.21262
0.20672
0.202673
0.19735
0.193855
0.189093
0.185544
0.183028
0.179768
0.178659
0.17883
0.179904
0.184099
0.188581
0.191183
0.191714
0.193193
0.194264
0.195922
0.200552
0.202979
0.204675
0.204845
0.203152
0.203625
0.205712
0.216167
0.221332
0.232101
0.234689
0.239213
0.239217
0.238843
0.236136
0.237848
0.235286
0.23629
0.237666
0.239297
0.246884
0.249927
0.262109
0.269575
0.283349
0.312118
0.35854
0.398436
0.4422
0.502038
0.53447
0.557034
0.566241
0.565833
0.567991
0.572689
0.596335
0.590187
0.590086
0.598182
0.590994
0.547678
0.522968
0.515056
0.493974
0.461904
0.578345
0.846199
0.843486
0.748161
0.628464
0.568216
0.558663
0.577311
0.71968
0.777607
0.820349
1.04836
1.16578
1.34448
1.68211
1.67169
1.33409
1.12477
1.04215
1.07916
1.04738
0.974442
0.992973
0.969226
0.966626
0.908184
0.914302
0.967134
1.01812
1.10335
1.20804
1.41608
1.57888
1.73762
1.8726
2.23736
2.70157
2.86612
3.48952
3.54476
3.51557
3.12487
2.72992
2.75865
2.66884
2.70362
2.96553
3.13119
2.89765
2.65671
2.68123
2.8059
2.86261
2.77719
2.76831
2.79432
21.8082
6.05758
1.73569
0.560848
0.201057
0.103235
0.0891392
0.0929674
0.103318
0.107674
0.108479
0.108963
0.111666
0.11952
0.135888
0.148429
0.159111
0.181583
0.203131
0.211406
0.213517
0.216202
0.217224
0.216243
0.215943
0.214409
0.211875
0.20888
0.208052
0.210068
0.209549
0.204344
0.20164
0.205253
0.222224
0.283103
0.389752
0.466322
0.538315
0.649901
0.689667
0.756883
0.868218
0.883541
0.786852
0.661569
0.592353
0.457109
0.377328
0.298028
0.255442
0.236112
0.227655
0.224153
0.222358
0.216588
0.209105
0.204371
0.201669
0.198982
0.195294
0.191548
0.187121
0.184016
0.182039
0.179411
0.17707
0.172579
0.168746
0.167027
0.166722
0.168767
0.175676
0.182301
0.184571
0.185876
0.185394
0.183883
0.184374
0.186324
0.186851
0.187569
0.185494
0.18093
0.177965
0.175517
0.176749
0.179552
0.181327
0.185639
0.186073
0.188479
0.188805
0.192179
0.196675
0.197698
0.20665
0.207662
0.213297
0.214873
0.220895
0.224509
0.232711
0.241885
0.251694
0.279971
0.314215
0.336491
0.385362
0.438398
0.437945
0.430978
0.444216
0.458904
0.45229
0.436644
0.430683
0.434844
0.429985
0.403792
0.364831
0.37545
0.376126
0.367732
0.379108
0.5203
0.758203
0.750402
0.647039
0.552069
0.532235
0.536099
0.638238
0.788558
0.923534
1.16873
1.20233
1.25974
1.4374
1.41662
1.27695
1.1177
0.970252
0.927925
0.8901
0.90731
0.924252
0.849917
0.844821
0.808613
0.842901
0.90075
0.98475
1.09355
1.15605
1.34796
1.46267
1.64206
1.70919
1.86589
2.30086
2.44886
2.88843
3.10244
3.20554
2.95725
2.69367
2.73142
2.84769
2.80789
2.87988
3.28284
3.06935
2.64012
2.7739
3.64123
3.9817
3.27438
2.92252
2.8973
25.746
6.83602
1.76975
0.508807
0.154184
0.0914483
0.0854607
0.0914823
0.104432
0.110933
0.113303
0.115255
0.121411
0.136414
0.151935
0.162613
0.185369
0.207066
0.216217
0.218187
0.220696
0.226615
0.23151
0.240848
0.250984
0.253899
0.251378
0.244859
0.236325
0.232226
0.229049
0.219118
0.212588
0.212215
0.225281
0.278076
0.343271
0.382535
0.440486
0.577746
0.648812
0.718715
0.758274
0.75005
0.619106
0.51213
0.435788
0.328806
0.278359
0.240887
0.225279
0.219832
0.217908
0.215461
0.210014
0.203852
0.200532
0.198828
0.198008
0.196203
0.191379
0.186246
0.18283
0.18185
0.181406
0.180458
0.179456
0.175719
0.170188
0.166224
0.164455
0.164296
0.16786
0.177674
0.183355
0.185246
0.184705
0.181412
0.177365
0.177949
0.178348
0.178879
0.178413
0.173178
0.170691
0.163964
0.16282
0.162027
0.16313
0.164469
0.166783
0.167354
0.167498
0.168269
0.169661
0.169455
0.172759
0.175201
0.180113
0.182363
0.184898
0.193304
0.191589
0.192472
0.200934
0.207021
0.21841
0.247519
0.272288
0.285133
0.308814
0.341442
0.349503
0.352016
0.361539
0.363081
0.346994
0.334708
0.339709
0.335962
0.314944
0.302765
0.305256
0.309578
0.310825
0.332621
0.434037
0.609481
0.608153
0.52878
0.481683
0.470165
0.532024
0.782451
1.04045
1.20409
1.18197
1.1179
1.205
1.19419
1.17158
1.10731
0.952576
0.863403
0.842019
0.868527
0.847916
0.776048
0.793479
0.764771
0.803121
0.856934
0.965492
1.09136
1.13908
1.28031
1.3483
1.55309
1.62425
1.72644
1.98865
2.13044
2.4142
2.72192
2.78204
2.70664
2.66766
2.7293
2.89902
2.94807
2.92718
3.79314
3.20366
2.77365
3.33114
5.28408
5.78781
4.46186
3.59143
3.2006
29.2255
7.16091
1.66126
0.371888
0.121187
0.0868363
0.0843557
0.0909961
0.104362
0.112284
0.117753
0.124655
0.131625
0.144478
0.159233
0.170211
0.194283
0.210901
0.215909
0.21957
0.228515
0.239753
0.246514
0.262255
0.271771
0.274594
0.27613
0.277477
0.274817
0.270493
0.263701
0.24774
0.231012
0.229979
0.238499
0.272485
0.308198
0.329377
0.376418
0.50322
0.604687
0.65609
0.684836
0.653735
0.493232
0.406313
0.3394
0.265622
0.234848
0.21928
0.213533
0.212581
0.211508
0.207692
0.202651
0.200128
0.198946
0.19833
0.196848
0.192287
0.184548
0.181276
0.180937
0.181622
0.183611
0.187588
0.191599
0.19259
0.191039
0.179244
0.170882
0.165691
0.166074
0.172604
0.182243
0.185682
0.185728
0.181615
0.174575
0.169872
0.169672
0.169533
0.171277
0.168786
0.167126
0.161146
0.155504
0.153711
0.153738
0.153919
0.156842
0.158192
0.158028
0.159018
0.158187
0.158131
0.158177
0.160734
0.158836
0.160771
0.160939
0.157552
0.161257
0.161544
0.161819
0.170435
0.172323
0.176691
0.196615
0.206862
0.214202
0.234289
0.256714
0.273002
0.277518
0.279923
0.278232
0.27538
0.271639
0.273676
0.269931
0.27267
0.267531
0.284178
0.284138
0.28263
0.293538
0.362079
0.446917
0.442025
0.401385
0.398031
0.447735
0.741997
1.07486
1.20552
1.15769
1.00884
1.01743
1.06649
1.08962
1.06803
0.933566
0.836863
0.81914
0.805242
0.773894
0.738041
0.74571
0.726009
0.762683
0.842754
0.961481
1.09293
1.13514
1.22903
1.26968
1.42312
1.55896
1.63736
1.82115
1.92595
2.06705
2.42033
2.47577
2.48847
2.61745
2.69154
2.91054
3.0814
3.09088
3.81124
3.20047
2.99853
4.31214
5.40731
5.70428
4.85825
4.28675
3.65861
32.1341
7.31628
1.5398
0.317084
0.111504
0.0856829
0.084501
0.0916284
0.104944
0.113706
0.121466
0.129514
0.135305
0.147374
0.162919
0.173322
0.197164
0.21585
0.22238
0.228396
0.244684
0.254457
0.262698
0.276285
0.281136
0.283941
0.290786
0.296943
0.298858
0.296227
0.289604
0.275033
0.246904
0.239771
0.245638
0.26213
0.279893
0.29783
0.332393
0.417099
0.528457
0.61606
0.66208
0.617604
0.427212
0.335917
0.279578
0.232952
0.215283
0.208952
0.207738
0.207909
0.206553
0.202482
0.199966
0.19911
0.198728
0.198134
0.196346
0.190977
0.183677
0.181492
0.182309
0.184238
0.187782
0.192817
0.199384
0.207882
0.21941
0.221039
0.204024
0.181032
0.170075
0.165829
0.173564
0.180592
0.182794
0.180355
0.173095
0.163497
0.159491
0.157778
0.159308
0.162672
0.16084
0.160027
0.152133
0.149405
0.147692
0.145939
0.147803
0.151232
0.150269
0.151745
0.151512
0.149552
0.148061
0.145647
0.14499
0.140068
0.140199
0.140646
0.139572
0.142215
0.141513
0.14329
0.149926
0.149901
0.153555
0.167574
0.17164
0.179342
0.191642
0.196932
0.20977
0.219948
0.220986
0.22212
0.222195
0.218421
0.222842
0.229957
0.241044
0.241966
0.267082
0.259293
0.261017
0.280595
0.341351
0.358083
0.35581
0.358735
0.402353
0.667858
1.07902
1.18314
1.13648
0.97025
0.931679
0.967622
0.999867
0.970693
0.866124
0.802084
0.784948
0.764019
0.742473
0.715634
0.711355
0.713561
0.7646
0.863276
0.99046
1.11333
1.15763
1.21915
1.2436
1.32102
1.49649
1.58888
1.67879
1.81182
1.89379
2.18224
2.29219
2.32984
2.59391
2.59548
2.93701
3.07879
3.28859
3.44861
3.17158
3.33671
4.3953
3.68713
4.72027
4.27761
4.30576
3.71428
34.3677
7.45746
1.52271
0.303432
0.111813
0.0887137
0.0868799
0.0937363
0.106804
0.115614
0.123017
0.131364
0.136518
0.148953
0.167325
0.179458
0.199157
0.220342
0.230214
0.237032
0.252739
0.262922
0.272199
0.284676
0.288924
0.2924
0.301833
0.312532
0.320928
0.321164
0.315911
0.303893
0.276645
0.250644
0.248843
0.250198
0.255206
0.269003
0.292055
0.337715
0.42435
0.583051
0.660779
0.609436
0.39073
0.290722
0.244141
0.215323
0.205169
0.202584
0.203524
0.204073
0.202589
0.19994
0.199133
0.198978
0.19889
0.198709
0.197504
0.193925
0.189675
0.189316
0.190936
0.193549
0.194857
0.194655
0.196051
0.202793
0.218379
0.23592
0.240982
0.2226
0.184978
0.162829
0.15614
0.161364
0.166235
0.167476
0.163826
0.154546
0.147785
0.146348
0.14526
0.150785
0.14981
0.151101
0.148026
0.142472
0.14121
0.137095
0.134805
0.137661
0.136929
0.136486
0.138796
0.135767
0.133996
0.133011
0.130698
0.13081
0.130396
0.131684
0.132045
0.132737
0.134473
0.133648
0.136523
0.139961
0.14071
0.14778
0.156124
0.158131
0.165455
0.17278
0.17589
0.18931
0.19176
0.194463
0.19536
0.196411
0.20326
0.207742
0.214183
0.217811
0.240174
0.249551
0.250219
0.262232
0.303959
0.332281
0.339007
0.343542
0.380889
0.606721
1.06662
1.15563
1.11927
0.964046
0.878711
0.884842
0.891925
0.848397
0.797224
0.760193
0.746706
0.74491
0.727009
0.698869
0.698537
0.712423
0.818104
0.94394
1.06552
1.15204
1.18251
1.21864
1.22535
1.28492
1.42767
1.5367
1.58824
1.77277
1.80732
2.00545
2.17087
2.18655
2.55991
2.4748
2.9341
2.97666
3.98858
3.10739
3.13561
3.35716
4.06891
3.42126
4.24218
3.84518
3.9572
3.17158
35.5974
7.42606
1.46481
0.277238
0.111402
0.0971236
0.0955575
0.0979484
0.109726
0.117726
0.123473
0.132348
0.136678
0.146377
0.166215
0.180508
0.196398
0.221714
0.23991
0.2539
0.267691
0.279785
0.285742
0.29619
0.299894
0.30233
0.310701
0.323243
0.338481
0.342636
0.342705
0.33484
0.313785
0.278173
0.256724
0.250632
0.251356
0.25785
0.27205
0.301251
0.37809
0.565546
0.659308
0.597361
0.365774
0.262995
0.223179
0.204359
0.197812
0.197919
0.199879
0.200468
0.199673
0.198972
0.199073
0.199786
0.200387
0.200751
0.201001
0.201345
0.201658
0.201078
0.200425
0.198889
0.199427
0.199244
0.195275
0.18546
0.183255
0.213161
0.240672
0.240314
0.213346
0.169339
0.145281
0.138092
0.138569
0.142745
0.142246
0.139734
0.136406
0.136261
0.135156
0.135059
0.134656
0.133299
0.133228
0.12893
0.12436
0.122354
0.118896
0.120427
0.121615
0.122092
0.124904
0.125831
0.125851
0.128184
0.127832
0.128053
0.12921
0.130032
0.130662
0.130349
0.131226
0.133909
0.133395
0.135608
0.139127
0.14294
0.148809
0.153788
0.157035
0.160872
0.173533
0.173621
0.179748
0.182779
0.183638
0.188077
0.190496
0.199101
0.202733
0.21109
0.229056
0.246351
0.249079
0.260045
0.293508
0.321886
0.32977
0.340267
0.360467
0.492832
1.00348
1.13287
1.10726
0.970924
0.863621
0.822225
0.803978
0.77239
0.742685
0.719409
0.722681
0.719831
0.711078
0.694528
0.695572
0.747855
0.924667
1.03782
1.16827
1.22315
1.21776
1.23135
1.22072
1.26469
1.35127
1.50917
1.54596
1.76406
1.77803
1.90992
2.10455
2.11586
2.48459
2.32527
2.89097
2.81633
4.29267
3.04836
3.08618
3.29475
3.65575
3.23256
3.90404
3.80257
3.88351
2.55516
35.7439
7.14192
1.31981
0.244069
0.110729
0.100889
0.101848
0.103488
0.113744
0.12386
0.127205
0.136531
0.14164
0.145599
0.15972
0.176312
0.191874
0.216414
0.240123
0.258237
0.276262
0.29606
0.309045
0.318253
0.321054
0.321119
0.322533
0.332564
0.348833
0.356445
0.358534
0.357496
0.341041
0.308424
0.275229
0.263577
0.261262
0.263466
0.274527
0.302818
0.382238
0.567414
0.640362
0.558013
0.323713
0.232897
0.202817
0.191898
0.189115
0.191627
0.195943
0.197146
0.19757
0.198541
0.199791
0.201669
0.202651
0.20379
0.205125
0.206288
0.206191
0.204985
0.202388
0.198907
0.197743
0.199387
0.198299
0.187724
0.162222
0.155688
0.192933
0.226706
0.220047
0.180298
0.14493
0.129234
0.123034
0.123041
0.124157
0.128155
0.131385
0.131635
0.131356
0.127879
0.122804
0.115628
0.112816
0.111416
0.110402
0.112706
0.113631
0.116237
0.118877
0.119608
0.123361
0.124396
0.125265
0.127599
0.128367
0.128952
0.130767
0.131613
0.131978
0.133534
0.132694
0.134784
0.134942
0.136275
0.140269
0.143292
0.148134
0.155423
0.155139
0.158768
0.168061
0.170023
0.177654
0.180078
0.183898
0.18731
0.190178
0.195647
0.200949
0.211646
0.22781
0.245562
0.250601
0.262212
0.293598
0.319661
0.325943
0.341647
0.35559
0.414623
0.855188
1.11057
1.09425
0.993011
0.867362
0.805533
0.770995
0.739915
0.706707
0.698637
0.706743
0.70327
0.705598
0.693454
0.707878
0.832392
1.06417
1.13177
1.25824
1.29215
1.27315
1.24128
1.21403
1.23749
1.29068
1.49223
1.51597
1.76762
1.76711
1.89667
2.08102
2.1008
2.44346
2.24468
2.68602
2.59072
4.02361
2.96392
3.04168
3.28206
3.27202
3.05862
3.60697
4.48877
3.62954
2.3663
35.0859
6.77361
1.2004
0.235893
0.117124
0.112198
0.118232
0.118411
0.117948
0.125973
0.130948
0.137906
0.145979
0.149989
0.15849
0.17186
0.184389
0.205009
0.232341
0.257414
0.279278
0.302137
0.320812
0.334144
0.34319
0.34839
0.350898
0.354221
0.363499
0.375635
0.381633
0.38289
0.375058
0.353472
0.314633
0.297722
0.291017
0.291084
0.304238
0.348443
0.456478
0.568349
0.584448
0.437738
0.2689
0.211509
0.193421
0.187153
0.185496
0.18695
0.192093
0.195121
0.196613
0.198268
0.2017
0.205304
0.208038
0.209611
0.21007
0.209696
0.207525
0.205547
0.202667
0.197168
0.186862
0.184367
0.188952
0.187349
0.16445
0.13701
0.135071
0.168965
0.190535
0.179135
0.142448
0.123288
0.115122
0.114329
0.116681
0.119811
0.123319
0.122486
0.121269
0.117622
0.113372
0.107571
0.106118
0.106548
0.107788
0.111007
0.113592
0.11559
0.119804
0.120366
0.124337
0.126084
0.128533
0.132246
0.133557
0.135897
0.140304
0.141414
0.141471
0.144365
0.142477
0.142839
0.144544
0.143738
0.146592
0.148448
0.153215
0.15755
0.157829
0.163498
0.167131
0.171906
0.178671
0.181242
0.18492
0.190641
0.196909
0.200284
0.203537
0.216494
0.23558
0.24952
0.254909
0.272047
0.299079
0.321932
0.325506
0.341969
0.361184
0.386418
0.687223
1.03537
1.05428
1.0059
0.888699
0.806607
0.765578
0.722388
0.68212
0.683223
0.702073
0.701313
0.704442
0.704697
0.765491
0.977232
1.13813
1.19495
1.32763
1.3333
1.29176
1.23511
1.19815
1.22464
1.26598
1.48027
1.51018
1.81144
1.76902
1.90109
2.06296
2.10777
2.43162
2.23208
2.37869
2.5793
3.34325
2.77079
3.02889
3.34728
2.98058
3.09804
3.39763
5.66598
3.3599
2.31569
33.2774
6.04779
1.04433
0.234969
0.130799
0.122478
0.126956
0.130373
0.128376
0.129568
0.135233
0.141366
0.148968
0.154773
0.161428
0.17353
0.182774
0.198627
0.218896
0.243402
0.273606
0.298193
0.321191
0.339354
0.354411
0.366244
0.373521
0.37913
0.385543
0.395863
0.407051
0.414743
0.418072
0.414033
0.401281
0.389574
0.383583
0.385017
0.410458
0.450961
0.492882
0.521132
0.459186
0.331155
0.245471
0.208872
0.19497
0.188932
0.186669
0.186818
0.190486
0.194494
0.196499
0.198348
0.20253
0.206812
0.210979
0.211724
0.211448
0.210713
0.207229
0.201434
0.197699
0.194581
0.184672
0.16628
0.162276
0.164168
0.159167
0.130896
0.121727
0.130027
0.143929
0.145742
0.128617
0.111319
0.107478
0.1076
0.110539
0.110201
0.108849
0.105834
0.103734
0.102557
0.101947
0.102056
0.103448
0.105122
0.107399
0.111052
0.113642
0.117349
0.122599
0.124248
0.130565
0.134197
0.137852
0.145338
0.147723
0.152137
0.160341
0.162767
0.163723
0.169268
0.166768
0.166917
0.169326
0.162013
0.164469
0.16536
0.167404
0.170131
0.168945
0.173475
0.178067
0.179532
0.181997
0.191555
0.193679
0.196516
0.214358
0.21996
0.219218
0.234021
0.2628
0.269495
0.273441
0.295335
0.315392
0.330145
0.327226
0.341032
0.3653
0.37191
0.569668
0.951473
1.01718
1.00096
0.925364
0.826888
0.766701
0.714663
0.672131
0.678732
0.702273
0.702296
0.712702
0.73667
0.874409
1.09782
1.20002
1.25852
1.37612
1.33736
1.28455
1.22654
1.19407
1.2266
1.26764
1.50689
1.5319
1.91372
1.78399
1.93937
2.05643