/*--------------------------------*- C++ -*----------------------------------*\
| =========                 |                                                 |
| \\      /  F ield         | OpenFOAM: The Open Source CFD Toolbox           |
|  \\    /   O peration     | Version:  dev                                   |
|   \\  /    A nd           | Web:      http://www.openfoam.org               |
|    \\/     M anipulation  |                                                 |
\*---------------------------------------------------------------------------*/
FoamFile
{
    version     2.0;
    format      ascii;
    class       volScalarField;
    object      muSgs;
    location    "9.118";
}
// * * * * * * * * * * * * * * * * * * * * * * * * * * * * * * * * * * * * * //

dimensions      [1 -1 -1 0 0 0 0];

internalField   nonuniform List<scalar> 
12225
(
0.000225015
0.000227725
0.000174953
0.000161923
0.000140927
0.000147857
0.000148053
0.000150864
0.000164322
0.000159547
0.00018035
0.000169936
0.000194454
0.000181737
0.000204604
0.000190867
0.000217534
0.000230452
0.00011181
0.000202847
0.000187702
0.000199586
0.000166253
0.000181802
0.00014941
0.000167526
0.000142609
0.000157868
0.000141354
0.000148079
0.00014149
0.000140172
0.000146802
0.000143899
0.000212447
0.00024743
3.84539e-05
0.00011598
0.000127572
0.00015115
0.000141423
0.000151867
0.000137974
0.000142848
0.000133016
0.000127353
0.000125808
0.0001137
0.000119675
0.00010328
0.000118086
0.000104875
0.000165957
0.000216887
1.47865e-05
5.52119e-05
7.14947e-05
8.79048e-05
9.85966e-05
9.97916e-05
0.000107666
0.000101085
0.000110756
9.55359e-05
0.000106929
8.70485e-05
9.72111e-05
7.94018e-05
9.11095e-05
7.84148e-05
0.000112976
0.000152095
1.03045e-05
3.14268e-05
4.58089e-05
5.50735e-05
6.83963e-05
6.92433e-05
7.79188e-05
7.41433e-05
8.09776e-05
7.26981e-05
7.97083e-05
6.80165e-05
7.50056e-05
6.36469e-05
7.1113e-05
6.31895e-05
7.94131e-05
9.32395e-05
1.39603e-05
3.08939e-05
3.79698e-05
4.2884e-05
5.08937e-05
5.22166e-05
5.87225e-05
5.71323e-05
6.18378e-05
5.7886e-05
6.18126e-05
5.61919e-05
5.96345e-05
5.40893e-05
5.741e-05
5.38312e-05
6.13063e-05
6.34569e-05
2.557e-05
3.29949e-05
3.7875e-05
4.0307e-05
4.50874e-05
4.60111e-05
5.02063e-05
4.97388e-05
5.27131e-05
5.10723e-05
5.29189e-05
5.06758e-05
5.17557e-05
4.95601e-05
5.04551e-05
4.91779e-05
5.20983e-05
5.25187e-05
2.99152e-05
3.36148e-05
3.48683e-05
3.61832e-05
3.87702e-05
3.95873e-05
4.15837e-05
4.17972e-05
4.29453e-05
4.25503e-05
4.30087e-05
4.22891e-05
4.2177e-05
4.1326e-05
4.11196e-05
4.04178e-05
4.10103e-05
4.08533e-05
4.28777e-05
4.71279e-05
4.41529e-05
4.43495e-05
4.41961e-05
4.47673e-05
4.5469e-05
4.57997e-05
4.62137e-05
4.60538e-05
4.60056e-05
4.55807e-05
4.5064e-05
4.44148e-05
4.38973e-05
4.31778e-05
4.30274e-05
4.26159e-05
6.41626e-05
6.80905e-05
6.29876e-05
6.17904e-05
5.73882e-05
5.66462e-05
5.40843e-05
5.37261e-05
5.2487e-05
5.20805e-05
5.11695e-05
5.05843e-05
4.96211e-05
4.87857e-05
4.79751e-05
4.71198e-05
4.65726e-05
4.59791e-05
9.28217e-05
9.65023e-05
8.87494e-05
8.60517e-05
8.00216e-05
7.76668e-05
7.2534e-05
7.01537e-05
6.61571e-05
6.44175e-05
6.17863e-05
6.02033e-05
5.81598e-05
5.65599e-05
5.49819e-05
5.36298e-05
5.23757e-05
5.1248e-05
0.00013683
0.000137281
0.000124322
0.000118201
0.000108178
0.000102771
9.57388e-05
9.17909e-05
8.71958e-05
8.43868e-05
8.07987e-05
7.7946e-05
7.45535e-05
7.16567e-05
6.87247e-05
6.61711e-05
6.37345e-05
6.16322e-05
0.000190152
0.000186328
0.000167971
0.000156694
0.000142091
0.000132419
0.000122035
0.000114923
0.000108473
0.00010414
9.94436e-05
9.54808e-05
9.08828e-05
8.71508e-05
8.30322e-05
7.98646e-05
7.63162e-05
7.34831e-05
0.000259353
0.000250282
0.000221336
0.000200096
0.000181089
0.000168322
0.000156833
0.000147751
0.000139443
0.000132496
0.00012531
0.000119081
0.000112494
0.000107245
0.000101531
9.72624e-05
9.23138e-05
8.85229e-05
0.000352615
0.000337655
0.00029784
0.000265851
0.000239561
0.000217893
0.000199136
0.000183836
0.000170662
0.000159689
0.000149502
0.000140896
0.000132433
0.000125555
0.000118371
0.00011287
0.000106644
0.000101975
0.000447112
0.000422681
0.000362954
0.000315143
0.000278758
0.000249943
0.000226466
0.000207604
0.000191692
0.00017851
0.000166582
0.000156578
0.000146973
0.000139086
0.000130986
0.000124686
0.000117679
0.000112365
0.000511756
0.000474476
0.000401851
0.000346702
0.000305165
0.000272656
0.00024654
0.000225564
0.000207962
0.000193412
0.00018034
0.000169378
0.000158949
0.000150349
0.000141613
0.000134757
0.000127197
0.000121407
0.000504256
0.000469949
0.000398918
0.000344108
0.000303086
0.000271083
0.000245434
0.000224706
0.000207251
0.000192841
0.000179912
0.000169002
0.000158629
0.000150095
0.000141461
0.000134616
0.000127162
0.000121377
0.000434508
0.000410199
0.000355087
0.000309031
0.000274165
0.000246711
0.000224534
0.000206467
0.000191068
0.000178253
0.000166637
0.00015674
0.000147276
0.000139508
0.000131601
0.000125339
0.000118495
0.000113211
0.00033079
0.000317114
0.000286157
0.000256195
0.00023197
0.000212193
0.000195682
0.00018209
0.000170189
0.000159921
0.000150194
0.000141846
0.000133679
0.000126953
0.000119948
0.000114492
0.000108369
0.000103752
0.000244581
0.000233257
0.000209142
0.000188404
0.000172774
0.000161567
0.000152679
0.000145717
0.000139417
0.000133459
0.00012673
0.000120698
0.000114292
0.000109069
0.000103286
9.90589e-05
9.4042e-05
9.03956e-05
0.000176215
0.000171201
0.000158738
0.000146544
0.000136139
0.000127829
0.000120855
0.000114984
0.000109356
0.00010422
9.87437e-05
9.40584e-05
8.99846e-05
8.6834e-05
8.35854e-05
8.10446e-05
7.80826e-05
7.57826e-05
0.000120097
0.000118549
0.00011287
0.000105108
9.7983e-05
9.26164e-05
8.93377e-05
8.72707e-05
8.54061e-05
8.36981e-05
8.18267e-05
8.00541e-05
7.82974e-05
7.6497e-05
7.45832e-05
7.2788e-05
7.07245e-05
6.89187e-05
7.6917e-05
7.77184e-05
7.50591e-05
7.21562e-05
7.18248e-05
7.31507e-05
7.44255e-05
7.52008e-05
7.53406e-05
7.51241e-05
7.45099e-05
7.3678e-05
7.26157e-05
7.12524e-05
6.97907e-05
6.82265e-05
6.64985e-05
6.48703e-05
4.68212e-05
4.86701e-05
5.18171e-05
5.75642e-05
6.2796e-05
6.66262e-05
6.92322e-05
7.07009e-05
7.12856e-05
7.14122e-05
7.1241e-05
7.07493e-05
7.0048e-05
6.8949e-05
6.76175e-05
6.61878e-05
6.46121e-05
6.30913e-05
2.42724e-05
3.44891e-05
4.57992e-05
5.57014e-05
6.39962e-05
6.98484e-05
7.31422e-05
7.46236e-05
7.51547e-05
7.52842e-05
7.52751e-05
7.48506e-05
7.41446e-05
7.29926e-05
7.15548e-05
6.9997e-05
6.83539e-05
6.6792e-05
1.37394e-05
3.60077e-05
6.10998e-05
7.58947e-05
8.61941e-05
9.2369e-05
9.46495e-05
9.47847e-05
9.41538e-05
9.34314e-05
9.27211e-05
9.1586e-05
8.99288e-05
8.7968e-05
8.57446e-05
8.35928e-05
8.13065e-05
7.93842e-05
2.60877e-05
7.74718e-05
0.000114009
0.000126788
0.000133928
0.000136749
0.000134972
0.000132
0.000128437
0.000125177
0.000122016
0.000118657
0.000114752
0.000110824
0.000106783
0.000103092
9.92798e-05
9.61401e-05
8.52933e-05
0.000175974
0.000201053
0.000199489
0.00019112
0.000178613
0.000167094
0.000157506
0.000149142
0.000141606
0.000134542
0.000127947
0.000121742
0.000116087
0.000111056
0.000106141
0.000101326
9.65677e-05
0.000220785
0.000263696
0.000240386
0.000203455
0.000175133
0.000157092
0.000145336
0.000137148
0.000131014
0.000125982
0.000121657
0.000118029
0.000114777
0.000111865
0.000109211
0.000106538
0.000103733
9.95936e-05
4.36759e-05
3.84348e-05
3.97633e-05
4.19661e-05
4.3995e-05
4.59567e-05
4.77031e-05
4.95024e-05
5.16549e-05
5.4131e-05
5.70102e-05
6.03183e-05
6.38138e-05
6.72423e-05
7.1127e-05
7.51177e-05
7.92304e-05
8.42147e-05
9.01068e-05
9.63463e-05
0.000102386
0.000108037
0.000115777
0.000123708
0.000130278
0.0001382
0.000145318
0.000152545
0.000158831
0.000164905
0.000170807
0.000170981
0.000164736
0.000149781
0.000141754
0.000136786
0.000135477
0.000137026
0.000139693
0.000141287
0.000142669
0.000143973
0.000145235
0.000147878
0.000151838
0.000155212
0.000160402
0.000168239
0.000178613
0.000180178
0.000177447
0.000172904
0.000173012
0.000178274
0.000183226
0.000187749
0.00019441
0.000216039
0.000236186
0.000249436
0.000258197
0.000264563
0.000269154
0.000272049
0.000273526
0.000273822
0.000273216
0.000272213
0.000270747
0.000269335
0.000267677
0.000265997
0.00026449
0.000262816
0.000261058
0.000259283
0.000257942
0.000256604
0.000255217
0.000253717
0.000251977
0.000250349
0.000248406
0.000246239
0.000243772
0.000241056
0.000237662
0.000233867
0.000230848
0.000226428
0.000222034
0.000217575
0.000213087
0.000208653
0.000204259
0.000200138
0.000196134
0.000192815
0.000189801
0.000186642
0.000184435
0.00018259
0.000181208
0.000180021
0.000179258
0.000178881
0.000179333
0.000180471
0.000182744
0.000184518
0.000185215
0.000185121
0.00018373
0.000180135
0.000175444
0.000171291
0.000167688
0.000164784
0.000164115
0.000163323
0.000160212
0.000155587
0.000153011
0.00015469
0.000162224
0.000171599
0.000176554
0.000180695
0.000187994
0.000200389
0.0002179
0.000243531
0.000260384
0.000271347
0.000282649
0.000291973
0.000297486
0.000301308
0.000312225
0.000327452
0.000325838
0.000324036
0.000331423
0.000342021
0.000342827
0.000343837
0.000344682
0.00035589
0.000367311
0.000387829
0.000409829
0.000442196
0.000470784
0.000508796
0.000527984
0.000531299
0.000521305
0.000512588
0.000499942
0.000495018
0.00049385
0.00050309
0.000509911
0.000508291
0.000507978
0.000514497
0.000518056
0.000495397
0.000496651
0.000506571
0.000494504
0.000475066
0.000477044
0.000465885
0.000460288
0.000457136
0.000457791
0.000464057
0.000478786
0.000505923
9.54239e-05
6.37273e-05
4.92902e-05
4.83536e-05
4.91065e-05
4.87412e-05
4.78473e-05
4.74753e-05
4.73322e-05
4.73575e-05
4.72819e-05
4.70889e-05
4.68231e-05
4.61511e-05
4.56317e-05
4.56859e-05
4.59524e-05
4.64837e-05
4.74063e-05
4.92672e-05
5.13538e-05
5.2866e-05
5.56456e-05
5.93607e-05
6.30861e-05
6.80292e-05
7.42859e-05
8.01501e-05
8.82642e-05
9.88322e-05
0.00010716
0.000121683
0.000131058
0.000132771
0.000130847
0.000123764
0.000109705
0.000101357
9.42751e-05
8.71517e-05
8.24746e-05
7.83658e-05
7.56067e-05
7.63961e-05
7.89619e-05
8.75585e-05
8.99277e-05
8.98499e-05
9.36151e-05
0.000102303
0.00011199
0.000123131
0.00014474
0.000177285
0.000187486
0.000189983
0.000197892
0.000204126
0.000200198
0.000191034
0.000179965
0.000169146
0.000158386
0.000149783
0.000143151
0.00013808
0.000134485
0.000131443
0.000129802
0.000128314
0.000127477
0.000127074
0.000127215
0.000127569
0.000128028
0.000128515
0.000129306
0.000130001
0.000130803
0.000131243
0.000131858
0.000132711
0.000133377
0.000134329
0.000135293
0.000135415
0.000135694
0.000136616
0.000137592
0.000137138
0.000137154
0.000137312
0.000137761
0.000138007
0.000138037
0.000138312
0.000138427
0.000138916
0.000139766
0.00013997
0.000140704
0.000141402
0.000142036
0.000142148
0.000142517
0.000144103
0.000146755
0.000148312
0.00014818
0.000148035
0.000146213
0.000143121
0.000140304
0.000138216
0.000138817
0.000141129
0.000142989
0.000143288
0.000143082
0.000142935
0.000144241
0.000148978
0.00015313
0.000152481
0.000150406
0.000146807
0.000140423
0.000140278
0.000141537
0.000147887
0.000157474
0.000167372
0.000182097
0.000195833
0.000202788
0.00020551
0.000210602
0.000219707
0.000252173
0.000275415
0.000253071
0.00021723
0.000239463
0.000264112
0.000240039
0.000215417
0.000232881
0.000237485
0.000241892
0.000243278
0.000250222
0.000263421
0.000278866
0.000309497
0.000344918
0.000385483
0.000410873
0.000421983
0.000419959
0.000414994
0.000409139
0.000412648
0.000407692
0.00043204
0.000444858
0.000476279
0.000443908
0.000379317
0.000377063
0.000410765
0.000416508
0.000418683
0.000407884
0.000416099
0.000401869
0.000392769
0.000403507
0.000398667
0.000424738
0.000425008
0.000148041
8.89907e-05
6.23791e-05
5.65145e-05
5.17037e-05
4.83411e-05
4.6107e-05
4.45978e-05
4.36034e-05
4.26223e-05
4.0983e-05
3.90364e-05
3.70611e-05
3.56876e-05
3.47989e-05
3.45891e-05
3.4956e-05
3.55231e-05
3.63077e-05
3.73235e-05
3.82339e-05
3.89929e-05
4.01775e-05
4.14913e-05
4.30356e-05
4.50313e-05
4.70468e-05
5.01178e-05
5.32269e-05
5.92913e-05
6.47977e-05
7.61426e-05
8.51405e-05
0.000100011
0.000110648
0.000112043
0.000111025
0.000101929
8.65944e-05
7.42325e-05
6.78942e-05
6.51739e-05
6.51981e-05
6.88993e-05
7.59227e-05
8.74092e-05
9.57673e-05
9.86264e-05
0.000111579
0.000131117
0.000146727
0.000154829
0.000164752
0.00016796
0.000159142
0.000149164
0.000132702
0.000120938
0.000108222
9.63158e-05
8.58874e-05
7.8651e-05
7.31369e-05
7.01977e-05
6.86035e-05
6.78698e-05
6.76251e-05
6.77051e-05
6.79494e-05
6.82904e-05
6.88206e-05
6.96625e-05
7.06346e-05
7.16176e-05
7.27006e-05
7.37044e-05
7.4854e-05
7.59392e-05
7.69151e-05
7.77937e-05
7.89361e-05
8.01128e-05
8.10397e-05
8.25063e-05
8.38595e-05
8.45453e-05
8.56449e-05
8.75523e-05
8.94322e-05
9.03583e-05
9.1827e-05
9.3183e-05
9.52631e-05
9.69503e-05
9.88514e-05
0.0001006
0.000102805
0.000105002
0.000107678
0.000109761
0.000111986
0.000114843
0.000118646
0.000122783
0.000125158
0.000126154
0.000129406
0.000133472
0.000134406
0.000133348
0.000131543
0.000129145
0.00012547
0.000123303
0.000123123
0.000123119
0.000125361
0.000128466
0.000129436
0.000125715
0.000123021
0.000129647
0.000142565
0.000152713
0.000146863
0.000129387
0.000111897
0.000105876
0.000104298
0.000108127
0.000118882
0.000126786
0.000134291
0.000142037
0.000152333
0.000157117
0.000162627
0.000186766
0.000232202
0.000235699
0.000195181
0.000164776
0.0001813
0.000213425
0.000184916
0.000165013
0.000185609
0.000189942
0.000192408
0.000191642
0.000193345
0.000196014
0.000201581
0.000217909
0.00024504
0.000282098
0.000319204
0.000358835
0.000377841
0.000384013
0.000381717
0.000380702
0.000370644
0.000385263
0.000386303
0.000395962
0.000375877
0.000310155
0.000311645
0.000330334
0.000355651
0.000365611
0.000345242
0.000372205
0.000372588
0.000356835
0.000373708
0.000359036
0.000391049
0.000381868
0.000197572
0.000111742
7.32191e-05
5.86961e-05
5.00933e-05
4.5129e-05
4.154e-05
3.8409e-05
3.58478e-05
3.32582e-05
3.19213e-05
3.11171e-05
3.06585e-05
3.05278e-05
3.07375e-05
3.13747e-05
3.25012e-05
3.36182e-05
3.44261e-05
3.51104e-05
3.58318e-05
3.6728e-05
3.77217e-05
3.88181e-05
4.00977e-05
4.11593e-05
4.20114e-05
4.33768e-05
4.47614e-05
4.69042e-05
4.93641e-05
5.48928e-05
6.10176e-05
7.35305e-05
8.31113e-05
9.5341e-05
9.98046e-05
9.84238e-05
9.22595e-05
7.96723e-05
6.99431e-05
6.76093e-05
7.1945e-05
8.35021e-05
9.4145e-05
0.000103334
0.000114472
0.000116627
0.000126383
0.000134894
0.000140225
0.000140378
0.000131074
0.000115675
0.000103309
9.12496e-05
7.78204e-05
7.00566e-05
6.31289e-05
5.88931e-05
5.64495e-05
5.55911e-05
5.54074e-05
5.58439e-05
5.63779e-05
5.70243e-05
5.77553e-05
5.83984e-05
5.90366e-05
5.95576e-05
6.01159e-05
6.07131e-05
6.12541e-05
6.19404e-05
6.26535e-05
6.33695e-05
6.41019e-05
6.48302e-05
6.54844e-05
6.60023e-05
6.67377e-05
6.75277e-05
6.83227e-05
6.90765e-05
6.992e-05
7.04022e-05
7.10521e-05
7.20469e-05
7.32681e-05
7.39077e-05
7.53203e-05
7.60043e-05
7.77386e-05
7.89956e-05
8.09974e-05
8.2531e-05
8.49404e-05
8.7428e-05
9.0128e-05
9.30199e-05
9.57634e-05
9.9023e-05
0.000103435
0.000109413
0.000115047
0.000119078
0.000123658
0.000127755
0.000129407
0.000129379
0.000128569
0.000127409
0.00012586
0.000126174
0.000124634
0.000118147
0.000115639
0.000116461
0.000119017
0.00011569
0.000107623
0.000105764
0.000120961
0.000144262
0.000150905
0.000134024
0.000113059
0.000102111
9.74064e-05
9.79923e-05
0.000105161
0.000117089
0.000120785
0.000124602
0.000132511
0.000137571
0.000147082
0.000180877
0.000220938
0.000212004
0.000168837
0.000147385
0.000155531
0.000186587
0.00016662
0.000151647
0.000163655
0.000165448
0.000170409
0.000170011
0.000170809
0.00017196
0.000172031
0.0001756
0.00019165
0.000221374
0.000244677
0.000280553
0.000319668
0.00034326
0.000348282
0.000358225
0.000361752
0.000359003
0.0003626
0.000335085
0.000311173
0.00028227
0.000296721
0.000304767
0.000328149
0.00034622
0.000317477
0.000348588
0.000357604
0.000342571
0.000354243
0.00035063
0.000376216
0.000369327
0.000244733
0.00013545
8.23974e-05
5.9046e-05
4.60704e-05
3.67098e-05
3.15904e-05
2.96423e-05
2.86717e-05
2.82006e-05
2.81503e-05
2.81183e-05
2.82258e-05
2.85028e-05
2.90942e-05
3.03229e-05
3.16429e-05
3.25825e-05
3.31991e-05
3.37232e-05
3.44601e-05
3.54664e-05
3.65731e-05
3.77554e-05
3.88928e-05
3.97375e-05
4.04559e-05
4.13746e-05
4.21797e-05
4.30135e-05
4.40786e-05
4.61109e-05
4.96026e-05
5.6793e-05
6.53011e-05
7.72913e-05
8.74419e-05
9.049e-05
9.02699e-05
8.52872e-05
7.87602e-05
7.97023e-05
8.45939e-05
9.60876e-05
0.000103676
0.000107033
0.000111185
0.000115133
0.000119656
0.000118155
0.000112263
0.000100328
8.67337e-05
7.45992e-05
6.70646e-05
5.98748e-05
5.51423e-05
5.29149e-05
5.18608e-05
5.17207e-05
5.21184e-05
5.24615e-05
5.31243e-05
5.35745e-05
5.42133e-05
5.46107e-05
5.52499e-05
5.57776e-05
5.63638e-05
5.68027e-05
5.72441e-05
5.77062e-05
5.80239e-05
5.84709e-05
5.892e-05
5.9365e-05
6.00844e-05
6.05599e-05
6.12799e-05
6.16469e-05
6.20978e-05
6.2587e-05
6.33971e-05
6.39976e-05
6.46855e-05
6.51736e-05
6.56749e-05
6.60939e-05
6.65787e-05
6.67969e-05
6.79516e-05
6.83335e-05
6.94965e-05
7.04062e-05
7.1897e-05
7.35588e-05
7.51382e-05
7.75541e-05
7.93517e-05
8.1793e-05
8.42059e-05
8.6934e-05
9.01554e-05
9.44917e-05
0.000100916
0.000107263
0.000113632
0.000119288
0.000124208
0.000125271
0.000124336
0.000125422
0.000124921
0.00012066
0.000118573
0.000118817
0.000117522
0.000112974
0.000111864
0.000111641
0.000105635
9.701e-05
9.66566e-05
0.000123421
0.000148072
0.000141953
0.000122276
0.000109756
0.000101282
9.69676e-05
9.8028e-05
0.000111074
0.000118218
0.000122509
0.000127573
0.000132272
0.000145323
0.000182951
0.000213792
0.000199289
0.000157244
0.000141402
0.000143559
0.000160557
0.000157406
0.00014336
0.000145056
0.000141577
0.00014994
0.00014937
0.000153681
0.000157396
0.000160974
0.000164124
0.000170733
0.000190614
0.000209838
0.000227162
0.000264707
0.000300801
0.000317795
0.000324487
0.000354671
0.000349081
0.000353945
0.000316928
0.000310542
0.000289696
0.000289429
0.000293537
0.000314441
0.00034584
0.000306099
0.000331727
0.000342624
0.000344654
0.000331823
0.000369039
0.000358964
0.000352929
0.000289497
0.000157574
9.03e-05
5.87412e-05
4.02448e-05
3.04269e-05
2.6873e-05
2.62531e-05
2.64363e-05
2.68174e-05
2.68863e-05
2.67614e-05
2.68395e-05
2.7278e-05
2.83089e-05
3.00468e-05
3.15739e-05
3.25836e-05
3.33678e-05
3.42633e-05
3.53544e-05
3.63023e-05
3.70857e-05
3.78486e-05
3.86429e-05
3.93747e-05
4.00996e-05
4.09267e-05
4.16557e-05
4.22938e-05
4.2872e-05
4.31853e-05
4.41538e-05
4.72698e-05
5.315e-05
6.39137e-05
7.37912e-05
8.02671e-05
8.53353e-05
8.49712e-05
8.33315e-05
8.60719e-05
9.18526e-05
9.84189e-05
0.000102887
0.000102965
0.000102959
0.000101987
9.71867e-05
8.83211e-05
7.87389e-05
6.93429e-05
6.08118e-05
5.51921e-05
5.21614e-05
5.05908e-05
4.99205e-05
4.9948e-05
5.00735e-05
5.02324e-05
5.05323e-05
5.05255e-05
5.06763e-05
5.05598e-05
5.04837e-05
5.04324e-05
5.06032e-05
5.08959e-05
5.13249e-05
5.17029e-05
5.20362e-05
5.2531e-05
5.27021e-05
5.29726e-05
5.35345e-05
5.40433e-05
5.51377e-05
5.57993e-05
5.68063e-05
5.73054e-05
5.78547e-05
5.81905e-05
5.87431e-05
5.95333e-05
6.0294e-05
6.11136e-05
6.16842e-05
6.20928e-05
6.21516e-05
6.22415e-05
6.23886e-05
6.22392e-05
6.21533e-05
6.27305e-05
6.29477e-05
6.38399e-05
6.46344e-05
6.5904e-05
6.77542e-05
6.94313e-05
7.26164e-05
7.48453e-05
7.83303e-05
8.15274e-05
8.72832e-05
9.289e-05
9.731e-05
0.000103218
0.000110839
0.000113471
0.000114684
0.000116567
0.000116721
0.000115183
0.000114054
0.000113627
0.000112566
0.000111927
0.000110594
0.000108252
0.000106154
0.000100771
9.49067e-05
9.30128e-05
0.000128123
0.000141536
0.000130212
0.000119621
0.000108945
9.95178e-05
9.405e-05
0.000100281
0.000115016
0.000122465
0.000126749
0.000136444
0.000151785
0.000179446
0.000200427
0.000190433
0.000159084
0.000147082
0.000139483
0.000144087
0.000143626
0.000134922
0.000134865
0.000129914
0.000137699
0.000134083
0.000138589
0.000144537
0.000148266
0.000153802
0.00016273
0.000177604
0.000193623
0.00020732
0.000220717
0.000259404
0.000287824
0.00029119
0.000331351
0.000344244
0.000347747
0.000319055
0.000322866
0.000282447
0.000283856
0.000286816
0.000309648
0.000345291
0.000307045
0.000307429
0.000312186
0.0003403
0.000330603
0.000386469
0.000319025
0.000322977
0.000331094
0.000177112
9.87941e-05
5.92729e-05
3.77062e-05
2.74411e-05
2.48477e-05
2.49186e-05
2.57831e-05
2.6176e-05
2.61998e-05
2.63708e-05
2.69274e-05
2.78364e-05
2.94015e-05
3.10378e-05
3.21104e-05
3.30027e-05
3.43335e-05
3.62376e-05
3.74894e-05
3.78839e-05
3.78935e-05
3.8018e-05
3.81969e-05
3.85401e-05
3.90341e-05
3.96704e-05
4.07234e-05
4.20321e-05
4.31993e-05
4.33834e-05
4.34095e-05
4.44429e-05
4.72915e-05
5.48801e-05
6.55626e-05
7.3062e-05
8.01353e-05
8.23534e-05
8.35489e-05
8.71827e-05
9.25186e-05
9.61961e-05
9.64546e-05
9.10918e-05
8.83827e-05
8.22596e-05
7.5036e-05
6.64556e-05
5.87951e-05
5.36331e-05
5.04406e-05
4.8994e-05
4.84669e-05
4.85578e-05
4.85564e-05
4.84411e-05
4.79646e-05
4.75418e-05
4.71832e-05
4.68936e-05
4.65799e-05
4.63475e-05
4.60644e-05
4.58447e-05
4.57688e-05
4.5627e-05
4.57151e-05
4.60139e-05
4.63533e-05
4.71803e-05
4.79855e-05
4.85145e-05
4.89078e-05
4.922e-05
4.96246e-05
5.00237e-05
5.07923e-05
5.12983e-05
5.16585e-05
5.1874e-05
5.17608e-05
5.20245e-05
5.24065e-05
5.38866e-05
5.47051e-05
5.61561e-05
5.66709e-05
5.74113e-05
5.75258e-05
5.77776e-05
5.75727e-05
5.79706e-05
5.79569e-05
5.80508e-05
5.86868e-05
5.89698e-05
6.02102e-05
6.08413e-05
6.2407e-05
6.36223e-05
6.5537e-05
6.91347e-05
7.40683e-05
7.84512e-05
8.32531e-05
8.89846e-05
9.25211e-05
9.67968e-05
9.86343e-05
9.77397e-05
9.90613e-05
0.000101938
0.000103302
0.000102089
0.000102417
0.00010355
0.000102658
9.65664e-05
9.13008e-05
9.34864e-05
9.66136e-05
8.65326e-05
9.12861e-05
0.00012067
0.000128674
0.000123855
0.000114131
0.000103514
9.48488e-05
9.31562e-05
0.000109079
0.000122267
0.000130158
0.000149273
0.000159663
0.000171935
0.000186119
0.000177078
0.000164711
0.000153023
0.000139097
0.000134609
0.000130889
0.00012655
0.000129136
0.000122855
0.000130655
0.000125255
0.000131168
0.000137715
0.000145416
0.000152841
0.000159499
0.000172506
0.000183008
0.000196112
0.000205437
0.000223947
0.000262321
0.000262816
0.000301356
0.000330434
0.000330471
0.000315899
0.000331945
0.000279049
0.000290445
0.000285095
0.000303556
0.000343507
0.000318803
0.000293761
0.000301748
0.000336905
0.000350061
0.000394635
0.00031775
0.000322908
0.00036884
0.000195108
0.000104432
5.94144e-05
3.55608e-05
2.55106e-05
2.38324e-05
2.44263e-05
2.58295e-05
2.64507e-05
2.66993e-05
2.69015e-05
2.72832e-05
2.81957e-05
3.01423e-05
3.16042e-05
3.28515e-05
3.54301e-05
3.79452e-05
3.9002e-05
3.93396e-05
3.97078e-05
3.99116e-05
3.99608e-05
4.01056e-05
4.02017e-05
4.02605e-05
4.02149e-05
4.0331e-05
4.11624e-05
4.2464e-05
4.32462e-05
4.38011e-05
4.44136e-05
4.60199e-05
5.22055e-05
6.15986e-05
6.70358e-05
7.19174e-05
7.82836e-05
8.2118e-05
8.67672e-05
8.91626e-05
9.01096e-05
8.67015e-05
7.94207e-05
7.51654e-05
6.67977e-05
6.03121e-05
5.38832e-05
5.00082e-05
4.79875e-05
4.74624e-05
4.71835e-05
4.72829e-05
4.69771e-05
4.63158e-05
4.61086e-05
4.5953e-05
4.5892e-05
4.5689e-05
4.54838e-05
4.52116e-05
4.50617e-05
4.50452e-05
4.49678e-05
4.48792e-05
4.45614e-05
4.42613e-05
4.43239e-05
4.44649e-05
4.49499e-05
4.60781e-05
4.71609e-05
4.7694e-05
4.80666e-05
4.8201e-05
4.81955e-05
4.84429e-05
4.88942e-05
4.91295e-05
4.94302e-05
4.93168e-05
4.88533e-05
4.86007e-05
4.83863e-05
4.87523e-05
4.92543e-05
4.97311e-05
5.04403e-05
5.06633e-05
5.11044e-05
5.12691e-05
5.17972e-05
5.24471e-05
5.28497e-05
5.40604e-05
5.44845e-05
5.54189e-05
5.58876e-05
5.67956e-05
5.7642e-05
5.88245e-05
5.99484e-05
6.15131e-05
6.49574e-05
6.88301e-05
7.21547e-05
7.76826e-05
8.25366e-05
8.33229e-05
8.35999e-05
8.42643e-05
8.57828e-05
8.63701e-05
8.57147e-05
8.36213e-05
8.37409e-05
8.55281e-05
8.32374e-05
7.56551e-05
7.37571e-05
7.74073e-05
7.97896e-05
7.65933e-05
8.61951e-05
0.000109359
0.000113751
0.000111164
0.000102993
9.44501e-05
8.89874e-05
0.000100679
0.000121903
0.00013715
0.000157954
0.000161022
0.000162379
0.000175687
0.000164668
0.000166927
0.000155347
0.000137793
0.000128613
0.000124727
0.000124283
0.000125817
0.000117908
0.000123757
0.000120335
0.000127796
0.000133895
0.000143071
0.0001526
0.000156998
0.000169303
0.000178352
0.000189689
0.000199282
0.000201994
0.000240683
0.000244149
0.000265843
0.000305333
0.00029988
0.000307345
0.000327491
0.00027651
0.000308394
0.000295816
0.000308818
0.000341711
0.000327907
0.000292161
0.000297915
0.000392015
0.0004128
0.000424378
0.000354994
0.00035056
0.000402174
0.000207656
0.000105662
5.67831e-05
3.1226e-05
2.40582e-05
2.33781e-05
2.42973e-05
2.6032e-05
2.68156e-05
2.72347e-05
2.77408e-05
2.86531e-05
3.04388e-05
3.22822e-05
3.35473e-05
3.60831e-05
3.86241e-05
3.98016e-05
4.0137e-05
4.05602e-05
4.13042e-05
4.18401e-05
4.28392e-05
4.39945e-05
4.45525e-05
4.45053e-05
4.40201e-05
4.32039e-05
4.3006e-05
4.34941e-05
4.38315e-05
4.45773e-05
4.51607e-05
4.67082e-05
5.21453e-05
5.81128e-05
6.13886e-05
6.51516e-05
7.38319e-05
8.01291e-05
8.38207e-05
8.30022e-05
8.34981e-05
7.68754e-05
6.98512e-05
6.43528e-05
5.65448e-05
5.15683e-05
4.82842e-05
4.67772e-05
4.61419e-05
4.64358e-05
4.62087e-05
4.60096e-05
4.56015e-05
4.53532e-05
4.54819e-05
4.55364e-05
4.56687e-05
4.53445e-05
4.50162e-05
4.48257e-05
4.49503e-05
4.51053e-05
4.52272e-05
4.5286e-05
4.51065e-05
4.45982e-05
4.43938e-05
4.44001e-05
4.46795e-05
4.52689e-05
4.68986e-05
4.77974e-05
4.82593e-05
4.8379e-05
4.80577e-05
4.76656e-05
4.78531e-05
4.80276e-05
4.82737e-05
4.82747e-05
4.77969e-05
4.74429e-05
4.67453e-05
4.65714e-05
4.6635e-05
4.6901e-05
4.73472e-05
4.78042e-05
4.81633e-05
4.82391e-05
4.84776e-05
4.87474e-05
4.87103e-05
4.92327e-05
4.97188e-05
5.03847e-05
5.09281e-05
5.18046e-05
5.29892e-05
5.31728e-05
5.35657e-05
5.43458e-05
5.55019e-05
5.73105e-05
6.04626e-05
6.44153e-05
6.62998e-05
6.81497e-05
7.24774e-05
7.45316e-05
7.44227e-05
7.4878e-05
7.60987e-05
7.43908e-05
7.18591e-05
7.22696e-05
7.35575e-05
7.23573e-05
6.86655e-05
6.75649e-05
6.96636e-05
7.24124e-05
7.03342e-05
7.84072e-05
9.40537e-05
9.94097e-05
9.74228e-05
8.99477e-05
8.2802e-05
8.96518e-05
0.000119147
0.000144495
0.000160223
0.000158486
0.000150812
0.000159255
0.000156614
0.000162318
0.000155753
0.000139373
0.00012769
0.000122791
0.000122508
0.000120604
0.000116109
0.000121378
0.000118779
0.000127347
0.000132566
0.00014506
0.000152901
0.000158094
0.000163246
0.000171514
0.000183124
0.000197803
0.00019344
0.000221506
0.000229649
0.000238293
0.000282497
0.000269455
0.000287483
0.000324654
0.000268799
0.000300284
0.000307532
0.000327791
0.000346075
0.000328234
0.000296378
0.000335807
0.000494988
0.000444241
0.000478762
0.000425773
0.000376714
0.000430209
0.000212996
0.000102435
4.83977e-05
2.75673e-05
2.34953e-05
2.33266e-05
2.43142e-05
2.61917e-05
2.73397e-05
2.81389e-05
2.90069e-05
2.99172e-05
3.16e-05
3.35164e-05
3.49354e-05
3.78262e-05
3.99278e-05
4.05454e-05
4.10707e-05
4.21205e-05
4.31553e-05
4.36864e-05
4.52107e-05
4.62319e-05
4.6673e-05
4.69479e-05
4.71518e-05
4.69682e-05
4.6706e-05
4.64857e-05
4.58723e-05
4.56154e-05
4.64832e-05
4.80865e-05
5.18776e-05
5.52102e-05
5.75186e-05
6.06484e-05
6.91991e-05
7.75896e-05
7.94955e-05
7.90165e-05
7.8245e-05
6.86495e-05
6.23128e-05
5.66566e-05
5.07392e-05
4.72607e-05
4.59321e-05
4.54977e-05
4.53088e-05
4.58154e-05
4.54495e-05
4.52862e-05
4.52112e-05
4.51938e-05
4.54533e-05
4.55075e-05
4.532e-05
4.46235e-05
4.4451e-05
4.45654e-05
4.47993e-05
4.51793e-05
4.58947e-05
4.6535e-05
4.69391e-05
4.69315e-05
4.59074e-05
4.50417e-05
4.4849e-05
4.51387e-05
4.63052e-05
4.78531e-05
4.84845e-05
4.87208e-05
4.83977e-05
4.75962e-05
4.71269e-05
4.71146e-05
4.72869e-05
4.74769e-05
4.7452e-05
4.72278e-05
4.65397e-05
4.58576e-05
4.55475e-05
4.56633e-05
4.56729e-05
4.62837e-05
4.65594e-05
4.69009e-05
4.72117e-05
4.71537e-05
4.73644e-05
4.75043e-05
4.76651e-05
4.75514e-05
4.78539e-05
4.7801e-05
4.77246e-05
4.83208e-05
4.86432e-05
4.91745e-05
5.00151e-05
5.06722e-05
5.13011e-05
5.37277e-05
5.56965e-05
5.71221e-05
5.93012e-05
6.2489e-05
6.52105e-05
6.52454e-05
6.54698e-05
6.61197e-05
6.61925e-05
6.47437e-05
6.4339e-05
6.5613e-05
6.66211e-05
6.43631e-05
6.45557e-05
6.81754e-05
6.83037e-05
6.63749e-05
7.17178e-05
8.12803e-05
8.62635e-05
8.20736e-05
7.63867e-05
8.06267e-05
0.000113514
0.00014559
0.000159804
0.000156681
0.000143414
0.000143197
0.000151458
0.000155859
0.000150594
0.0001371
0.000126611
0.000121451
0.000119034
0.000117368
0.000114681
0.000118852
0.0001165
0.000126455
0.000131257
0.000147074
0.000152533
0.000161039
0.000161436
0.00016907
0.000173258
0.000193859
0.000189594
0.000211333
0.000220223
0.000217897
0.000262435
0.000249991
0.000268312
0.000310128
0.000267273
0.000308286
0.000322488
0.00036617
0.000344775
0.000329725
0.000315435
0.00039807
0.000412834
0.000453763
0.00048551
0.000484128
0.000382997
0.000453085
0.000215863
9.87469e-05
4.47258e-05
2.65496e-05
2.33948e-05
2.32934e-05
2.42749e-05
2.61e-05
2.73919e-05
2.8657e-05
2.99434e-05
3.09077e-05
3.24677e-05
3.42207e-05
3.52599e-05
3.77304e-05
3.96542e-05
4.03353e-05
4.13046e-05
4.325e-05
4.4406e-05
4.53571e-05
4.68077e-05
4.73561e-05
4.77142e-05
4.84531e-05
4.9098e-05
4.92959e-05
4.91283e-05
4.87477e-05
4.8018e-05
4.6503e-05
4.67527e-05
4.84536e-05
5.10424e-05
5.28792e-05
5.50413e-05
5.81194e-05
6.43665e-05
7.29268e-05
7.67429e-05
7.80557e-05
7.59569e-05
6.37025e-05
5.66389e-05
5.12518e-05
4.74151e-05
4.51787e-05
4.46729e-05
4.49027e-05
4.48143e-05
4.53785e-05
4.49332e-05
4.50219e-05
4.51004e-05
4.52213e-05
4.55035e-05
4.55945e-05
4.5245e-05
4.455e-05
4.44335e-05
4.46769e-05
4.50927e-05
4.5635e-05
4.64335e-05
4.73486e-05
4.87107e-05
5.0127e-05
5.07512e-05
4.91377e-05
4.66854e-05
4.57541e-05
4.54641e-05
4.68189e-05
4.78853e-05
4.83676e-05
4.8232e-05
4.74755e-05
4.63525e-05
4.58518e-05
4.56655e-05
4.59997e-05
4.63222e-05
4.64929e-05
4.61639e-05
4.55126e-05
4.51431e-05
4.49707e-05
4.48536e-05
4.50745e-05
4.55344e-05
4.55771e-05
4.57834e-05
4.60173e-05
4.5849e-05
4.57572e-05
4.57299e-05
4.55073e-05
4.49417e-05
4.49523e-05
4.47571e-05
4.49696e-05
4.54287e-05
4.578e-05
4.63639e-05
4.7146e-05
4.71612e-05
4.7762e-05
4.94298e-05