/*--------------------------------*- C++ -*----------------------------------*\
| =========                 |                                                 |
| \\      /  F ield         | OpenFOAM: The Open Source CFD Toolbox           |
|  \\    /   O peration     | Version:  dev                                   |
|   \\  /    A nd           | Web:      http://www.openfoam.org               |
|    \\/     M anipulation  |                                                 |
\*---------------------------------------------------------------------------*/
FoamFile
{
    version     2.0;
    format      ascii;
    class       volScalarField;
    object      p;
    location    "9.118";
}
// * * * * * * * * * * * * * * * * * * * * * * * * * * * * * * * * * * * * * //

dimensions      [1 -1 -2 0 0 0 0];

internalField   nonuniform List<scalar> 
12225
(
107620
107506
107367
107206
107003
106770
106502
106218
105893
105557
105191
104825
104426
104039
103588
103221
102784
102255
107605
107495
107357
107196
106994
106761
106492
106210
105884
105550
105183
104818
104419
104035
103584
103209
102790
102284
107578
107470
107335
107173
106973
106741
106474
106189
105867
105531
105168
104801
104407
104018
103588
103195
102771
102235
107536
107430
107297
107135
106937
106705
106441
106154
105836
105500
105141
104773
104386
103995
103582
103184
102773
102285
107471
107370
107239
107078
106881
106651
106389
106103
105788
105453
105098
104732
104350
103963
103564
103171
102770
102329
107381
107283
107155
106995
106800
106573
106314
106029
105717
105386
105036
104674
104299
103918
103530
103146
102761
102363
107259
107164
107039
106881
106689
106465
106208
105927
105619
105293
104948
104592
104225
103853
103476
103104
102735
102369
107117
107029
106906
106751
106562
106342
106089
105812
105508
105187
104848
104498
104139
103776
103409
103048
102694
102348
106964
106882
106762
106611
106425
106208
105959
105686
105388
105072
104739
104396
104045
103689
103333
102983
102641
102311
106761
106686
106571
106423
106241
106029
105786
105518
105227
104917
104593
104258
103916
103571
103227
102889
102561
102246
106496
106427
106316
106174
105998
105791
105556
105295
105012
104711
104397
104072
103742
103410
103080
102757
102444
102144
106150
106084
105978
105841
105673
105474
105248
104997
104726
104437
104135
103823
103508
103191
102878
102571
102275
101993
105696
105629
105530
105401
105242
105054
104840
104602
104345
104071
103785
103491
103193
102895
102601
102314
102038
101775
105091
105027
104936
104817
104671
104498
104300
104079
103841
103586
103321
103048
102773
102497
102226
101962
101708
101467
104289
104235
104155
104051
103922
103767
103590
103392
103177
102948
102708
102463
102214
101967
101724
101487
101261
101045
103248
103204
103141
103056
102948
102818
102668
102498
102313
102115
101908
101696
101482
101268
101059
100856
100662
100478
101907
101886
101846
101786
101706
101607
101489
101355
101206
101048
100881
100710
100537
100365
100196
100034
99878.9
99733.1
100370
100377
100361
100328
100279
100212
100131
100035
99927.6
99811.3
99688.5
99561.8
99433.9
99307.1
99183.6
99065.2
98953.1
98848.8
98934.6
98941.3
98941.8
98931.2
98907.4
98870
98820
98758.8
98688
98609.9
98526.7
98440.5
98353.4
98267.7
98184.9
98106.5
98033.7
97967.6
97683.9
97713.3
97729.8
97736.3
97732
97716.6
97690.9
97656.4
97614.5
97566.8
97515.1
97461.5
97407.6
97355.2
97305.6
97260
97219.5
97184.8
96672.6
96708.3
96734.3
96752.2
96761.5
96762
96754.4
96739.8
96719.7
96695.3
96668
96639.7
96611.8
96585.4
96562
96542.5
96527.7
96518.3
95878.8
95910.9
95941.2
95966.1
95984.2
95995.8
96001.3
96001.5
95997.6
95990.7
95981.8
95972.5
95964.2
95957.9
95954.6
95955.2
95960.3
95970.5
95256.6
95292.6
95325.7
95354.6
95378.6
95397.8
95412.6
95423.6
95431.5
95437.5
95442.3
95447.3
95453.5
95462.2
95474
95489.8
95510.1
95535.2
94790.1
94825.8
94860.3
94891.8
94919.6
94943.9
94965.1
94983.6
95000.2
95015.5
95030.4
95045.8
95062.8
95082.4
95105.4
95132.5
95163.9
95200.2
94447.6
94483.1
94518.2
94551.4
94581.8
94609.5
94635
94658.8
94681.4
94703.4
94725.3
94748.2
94772.9
94800.5
94831.5
94866.8
94906.4
94950.8
94198.7
94238.7
94274.9
94309.5
94341.7
94371.6
94400
94427.3
94454
94480.5
94507.4
94535.4
94565.5
94598.6
94635.3
94676.2
94721.7
94771.8
94030.6
94072.6
94109.6
94144.9
94178.2
94209.8
94240.1
94269.8
94299.2
94328.7
94358.8
94390.2
94423.8
94460.5
94500.9
94545.4
94595.4
94649
93926.8
93966.8
94003.8
94040
94074.2
94106.7
94138.3
94169.6
94200.7
94232.1
94264.2
94297.6
94333.4
94372.3
94414.9
94461.2
94515.2
94570.5
93870.1
93906.4
93943.1
93979.9
94015.1
94048.4
94080.9
94113.1
94145.2
94177.6
94210.8
94245.2
94282.2
94322.4
94366.4
94414.7
94468.7
94526
93853.4
93882.9
93917.4
93954.4
93989.9
94023.7
94056.5
94089.1
94121.6
94154.6
94188.2
94223.1
94260.6
94301.4
94346
94395
94449.2
94507.4
89246.7
89250.4
89259.3
89273.7
89293.3
89317.6
89346.3
89379.2
89416.5
89458
89503.8
89553.6
89606.9
89664.9
89727.1
89793.7
89864.9
89941.1
90022.4
90109.2
90201.8
90300.2
90404.8
90515.6
90633.1
90757.5
90888.5
91026.3
91170.8
91321.8
91479.8
91643
91812.1
91988.7
92173
92363.4
92562.3
92769.8
92986
93211.2
93444.4
93684.6
93931.3
94184.2
94442.9
94706
94976.7
95253.7
95535.2
95821.8
96115
96418.3
96730.6
97045.9
97362.1
97683.7
98012.5
98344.9
98683.3
99026.4
99372
99718.4
100065
100411
100754
101093
101427
101754
102072
102378
102673
102952
103215
103459
103683
103886
104066
104222
104353
104458
104538
104591
104619
104624
104604
104559
104494
104410
104310
104197
104074
103943
103807
103669
103529
103392
103257
103126
102999
102877
102760
102647
102537
102429
102321
102213
102104
101994
101881
101765
101646
101523
101396
101265
101130
100992
100850
100703
100549
100386
100217
100035
99846
99646.3
99431.9
99196.6
98949.9
98701.9
98449.4
98189.8
97918.5
97629.2
97321.4
97000.4
96674.3
96357.4
96067
95813.5
95599.8
95427.3
95298.3
95212.5
95161.8
95146.4
95175.8
95234.5
95287.2
95343.3
95377.6
95394.4
95369.2
95304.7
95199.6
95054.5
94867.7
94644.5
94386.5
94101.1
93787.1
93440.4
93063.4
92655.4
92244.5
91836
91474.8
91162.5
90897.8
90792.1
90728
90707.7
90784.3
90967.5
91327.5
91785.4
92422.9
93181.4
94045.2
95005.6
96042.4
97044.8
89357.5
89361.3
89370.5
89385
89404.6
89428.6
89456.7
89487.6
89524
89564.2
89608.5
89656.6
89708.6
89764.5
89824.6
89889
89958.1
90032.2
90111.8
90197
90288
90385
90488.1
90597.4
90713.2
90835.7
90965
91101
91243.6
91393
91548.6
91711.1
91878.9
92052.7
92239.6
92424.4
92619.6
92825.4
93039.8
93262.8
93494.6
93733.9
93978.1
94228.2
94483.8
94743.9
95011.8
95282.6
95559.6
95844
96133.2
96434.3
96748.1
97066
97374.1
97687.7
98009.8
98342.9
98681
99022.2
99365.5
99708
100051
100394
100734
101070
101401
101724
102039
102343
102634
102911
103171
103413
103635
103836
104014
104168
104298
104401
104480
104532
104558
104561
104543
104499
104433
104349
104250
104137
104014
103883
103747
103609
103469
103331
103195
103063
102935
102813
102695
102581
102471
102363
102255
102147
102039
101929
101816
101700
101580
101457
101330
101199
101064
100926
100785
100638
100485
100323
100156
99978.4
99795.4
99601
99386
99154.1
98913.9
98673
98426.9
98174.6
97912.2
97632.5
97332.8
97016.9
96693.9
96379.7
96093.7
95846.9
95641.5
95477.9
95357.2
95280
95240.4
95231.9
95271.4
95342
95405
95472.2
95512.7
95538.9
95520.9
95464.9
95369.8
95236.1
95059.4
94845
94594.4
94315.7
94008.8
93671.2
93302.4
92899.7
92484.1
92072.3
91711.2
91401.4
91122.2
91015.2
90937.1
90903
90963.5
91131.5
91483.8
91931.2
92547.6
93291
94136.1
95077.6
96112
97104.5
89573.2
89578.2
89588.2
89602.8
89621.5
89643.7
89669.8
89699.6
89733.3
89770.8
89812
89856.8
89905.1
89957.3
90013.5
90074.2
90139.8
90211
90287.9
90370.7
90459.5
90554.4
90655.1
90761.6
90874.2
90993
91118.2
91250.1
91389
91534.7
91686.8
91845.7
92010.9
92183.5
92361.2
92546
92739.1
92940.9
93149.9
93368.2
93597.6
93833.7
94073.1
94320.4
94566.4
94818
95077
95336.7
95604.3
95889.8
96174.7
96464.4
96763.3
97067.5
97384.3
97703.4
98024.2
98349.2
98679.1
99012.2
99347.3
99685.5
100023
100359
100693
101023
101348
101665
101974
102273
102559
102830
103086
103323
103540
103737
103911
104062
104188
104290
104366
104416
104442
104443
104423
104381
104315
104231
104132
104019
103896
103766
103630
103490
103351
103211
103073
102939
102809
102684
102564
102448
102337
102229
102122
102016
101908
101799
101686
101569
101450
101327
101200
101070
100936
100798
100657
100511
100360
100200
100035
99868.2
99694.5
99507.2
99298.7
99075.4
98851.4
98622.1
98387
98145.6
97896
97632.2
97348.8
97047.5
96736
96431.5
96155.6
95919.8
95728.3
95580.5
95474.3
95414.8
95396.8
95408
95465.4
95551.5
95637.3
95724.9
95778.1
95818.4
95814.7
95773.1
95696.2
95588.9
95438.4
95246.7
95014.9
94752.2
94456.9
94136.2
93788.3
93414.9
92995.2
92574.2
92199.4
91904.5
91604.9
91485.2
91369.4
91307.3
91335.3
91481.7
91829.8
92249.7
92823.1
93529.5
94340.3
95234.8
96264.8
97227.5
89884
89889.3
89899.3
89913
89930.1
89950.3
89974.1
90001.2
90031.9
90066.1
90103.6
90144.5
90189
90237.3
90289.9
90347.2
90409.7
90478.2
90552.6
90633
90719.2
90810.8
90907.8
91010.1
91117.9
91231.2
91350.7
91476.4
91608.9
91748.5
91895
92048.5
92208.5
92375.6
92550.1
92731.5
92919.3
93113.6
93313.9
93526.8
93750.8
93978
94211.7
94452.7
94689.4
94925.4
95169.5
95423.5
95686.8
95961.4
96243
96531.7
96821.1
97114.9
97417.6
97727.2
98039
98355.5
98675.9
98999.6
99325.7
99653.6
99981.7
100309
100634
100955
101271
101580
101880
102170
102448
102713
102961
103191
103402
103593
103762
103909
104031
104129
104202
104250
104274
104274
104252
104212
104147
104063
103964
103852
103730
103599
103464
103325
103184
103044
102905
102768
102636
102507
102383
102264
102148
102037
101929
101823
101716
101607
101495
101379
101259
101137
101012
100882
100750
100616
100478
100337
100190
100038
99882.4
99723.5
99558.3
99383.6
99194.2
98986.2
98773.1
98556.5
98334.4
98106.1
97872.5
97628.9
97367.4
97087.1
96796.2
96512
96253.5
96034.2
95862.5
95734.3
95648.7
95612.2
95626
95677.3
95752.5
95851.6
95962
96072.6
96146.5
96207.2
96226.8
96209.9
96155.6
96080
95972.1
95821.7
95621.7
95393.9
95127.8
94827.4
94493.5
94165.6
93766
93338.5
92937.2
92623.4
92287.9
92154.8
92001.7
91904.7
91892
92010.4
92339.1
92739.9
93263.1
93895.9
94670.3
95487.3
96510.2
97415.7
90281.5
90286
90294.9
90307
90321.9
90339.7
90360.3
90384
90411.5
90442.3
90476.7
90514.6
90555.8
90600.8
90649.9
90703.6
90762.8
90827.8
90898.5
90974.9
91056.7
91143.5
91235.7
91332.9
91434.8
91541.6
91654.1
91772.5
91897.3
92028.8
92167.5
92313.5
92466.9
92627.4
92794.9
92969.2
93149.9
93337.1
93530.7
93736.1
93948.7
94166.4
94392.6
94617
94837.2
95067.5
95306.2
95551.3
95804.9
96066.1
96333.6
96608.2
96887.8
97171.9
97461.6
97755.8
98056.9
98361.9
98670.4
98982.1
99296.3
99612
99928.2
100244
100557
100867
101171
101469
101759
102038
102306
102561
102800
103022
103224
103407
103569
103710
103828
103921
103990
104034
104055
104053
104029
103986
103924
103842
103745
103634
103513
103384
103249
103111
102970
102830
102690
102553
102419
102289
102162
102039
101919
101803
101689
101578
101467
101356
101243
101126
101008
100886
100762
100636
100510
100382
100251
100117
99981
99840.6
99699.9
99548.6
99396
99232
99057.3
98869.9
98676.2
98476.9
98270.7
98059.5
97846.6
97629.1
97394.3
97139
96874.7
96618.5
96385.9
96190.8
96045.4
95942.6
95879.3
95866.5
95915.2
96013.1
96118.3
96232.2
96361.2
96496.5
96596.6
96685.9
96738
96759.9
96746.2
96706.7
96641.2
96543.2
96387.3
96197.8
95979
95729.2
95405.4
95112.1
94766.2
94335.1
93933.9
93550
93155.3
93028.4
92827.5
92684.7
92620.7
92721.6
93000.7
93382.3
93847.6
94396.4
95115.9
95844.6
96834.7
97663.4
90758.2
90761.3
90768.7
90778.5
90790.8
90805.6
90823.1
90844.1
90868.4
90896.1
90926.8
90960.2
90996.9
91037.5
91082.5
91132.6
91188.5
91249.6
91315.5
91386.3
91462.2
91543.5
91629.7
91720.6
91815.4
91912.2
92017.2
92127.5
92243.8
92366.2
92495.5
92633.1
92777.7
92929.2
93088.2
93254.3
93427.4
93606.9
93793
93987.8
94185.9
94391.5
94603.5
94812.7
95024.7
95245.6
95471.7
95704.8
95945.9
96192.7
96445.7
96704.4
96968.9
97239.2
97514.4
97794.5
98079.9
98369.7
98663.6
98960.9
99260.7
99562
99863.9
100165
100465
100761
101052
101336
101613
101879
102135
102378
102606
102817
103011
103183
103338
103472
103586
103672
103735
103775
103793
103787
103760
103712
103654
103575
103478
103369
103249
103122
102988
102850
102710
102569
102430
102293
102158
102026
101898
101772
101650
101530
101412
101296
101178
101061
100942
100823
100702
100580
100460
100343
100223
100099
99974.9
99853.5
99730.4
99600.9
99461.6
99336.2
99204.5
99060
98902.7
98737.1
98565.1
98388.3
98203.6
98013.9
97825.7
97637.4
97434.3
97209.4
96976.2
96752.8
96553.9
96392
96275
96204.6
96166.8
96181.3
96260.1
96393.1
96533.8
96676.7
96831.5
96994.4
97127.8
97251.6
97343.2
97410.6
97447.6
97460.9
97443.4
97396.8
97299.3
97153.7
96970.4
96790.8
96502.5
96228.7
95953
95534.7
95166.2
94708.8
94265.9
94100.5
93827
93629.6
93507
93616.8
93800.6
94142.9
94541.9
95031.6
95648
96318.8
97196.9
97954.8
91305.9
91307.3
91313
91320.5
91330.2
91342.3
91357
91374.4
91394.4
91416.9
91442
91470.3
91502.8
91540
91582
91628.7
91679.5
91733.8
91792.2
91855.1
91922.7
91994.8
92071.5
92153.3
92238.2
92327.5
92423.7
92526.3
92635.4
92749.6
92870
92997.5
93131.3
93273.1
93423.2
93579.6
93743.4
93913
94088.6
94270.2
94454.3
94647.3
94844.2
95039
95239.7
95448.2
95660.6
95879.8
96105.5
96336.2
96572.8
96814.8
97062.1
97315.2
97573.4
97837
98105.8
98378.9
98656.3
98936.9
99220
99504.9
99790.4
100076
100359
100639
100914
101183
101444
101696
101938
102168
102384
102582
102765
102929
103074
103198
103302
103383
103441
103477
103490
103482
103453
103405
103341
103269
103173
103064
102946
102820
102687
102550
102410
102270
102131
101993
101857
101724
101594
101467
101341
101218
101097
100977
100857
100735
100614
100489
100364
100244
100128
100010
99893
99780.2
99667.4
99554
99441.9
99330.7
99216.1
99103.3
98986
98866.9
98736.2
98595.8
98450.3
98299.2
98141.5
97978.2
97816.7
97659.1
97491
97301.9
97104.1
96917.7
96759.2
96639.5
96553.6
96515.9
96511.9
96563.9
96668.1
96824
96996.1
97179.5
97370.8
97560.3
97738.4
97903
98040.4
98163.6
98253.6
98323.9
98360.3
98369.3
98326
98247.5
98091.3
97974.4
97745.7
97487.1
97277
96892.7
96562.5
96073.4
95585.6
95328.1
94979.5
94715.6
94530.6
94679.6
94740.8
95001.7
95325.6
95759.7
96284.6
96876.8
97604.6
98293.4
91914.6
91914.6
91918.6
91923.9
91931.1
91940.1
91950.9
91963.6
91978.3
91995.4
92015.2
92038.5
92065.8
92097
92131.7
92169.7
92210.9
92255.8
92305.2
92358.8
92416.4
92478.4
92545.1
92616.7
92693.3
92775.2
92863.8
92958.4
93059.8
93166.4
93278.6
93396
93520.1
93652.2
93790.8
93935.5
94087.3
94244.7
94408
94575.6
94746.5
94926
95106.9
95287.7
95475.4
95668.9
95866.5
96069.9
96278.8
96492.1
96711
96934.8
97163.9
97398.7
97638.8
97884.4
98134.8
98389.6
98648.4
98910.3
99175.1
99441.7
99709.1
99976.3
100242
100504
100761
101013
101258
101494
101720
101934
102135
102321
102491
102643
102778
102893
102987
103060
103112
103143
103152
103141
103109
103060
102993
102914
102828
102721
102605
102481
102350
102214
102076
101937
101798
101660
101524
101390
101259
101129
101001
100875
100750
100626
100504
100381
100258
100134
100011
99893.6
99778.6
99663.6
99553.8
99449.5
99346.1
99246
99147.2
99051.2
98961.4
98866
98765.3
98665.4
98564.2
98453.9
98338.1
98217.6
98090.9
97958.4
97826.2
97700.1
97568.6
97419.4
97261
97115.4
97000.6
96926.2
96884.2
96876.8
96915.1
97007.9
97142.5
97318.5
97524.5
97745.4
97975
98190.7
98419.3
98627.6
98814.7
98999.7
99145.7
99280.7
99362.5
99440.2
99441
99436.7
99320.8
99250.7
99092.9
98857
98693.8
98354.9
98039.6
97572.2
97049.4
96700.3
96287.9
95928.6
95669.7
95878.9
95808.1
95953.5
96184.9
96593.6
97027.4
97498.4
98097.5
98713.2
92572.9
92571.9
92574.3
92577.6
92581.8
92586.9
92593.3
92601.2
92610.7
92622
92635.5
92651.7
92670.6
92692
92716.6
92744.5
92776.3
92812.5
92853.3
92897.6
92945.7
92998.5
93055.8
93117.8
93185
93257.6
93336.2
93420.5
93511
93607.8
93710.9
93819.9
93934.8
94055.9
94182.1
94314.6
94453.4
94597.4
94747.1
94899.6
95056.9
95221.7
95386.5
95553
95725.8
95903.7
96085.2
96271.8
96462.8
96657.6
96857.8
97062.6
97272.7
97488.6
97709.5
97935.8
98166.4
98401.2
98640
98882.1
99127
99373.8
99621.8
99869.3
100115
100358
100597
100830
101056
101274
101483
101680
101865
102037
102193
102333
102455
102560
102645
102710
102754
102779
102784
102769
102735
102684
102617
102536
102444
102345
102231
102108
101979
101846
101710
101573
101436
101299
101163
101029
100896
100765
100637
100509
100383
100257
100132
100006
99881.7
99760.8
99642.4
99526.1
99415
99309.1
99206.1
99107
99016.7
98935.5
98852
98764.1
98688.6
98620.3
98546.1
98468
98391
98313.9
98231.5
98145.3
98053.5
97955.6
97856.7
97763.9
97669.8
97563.5
97448
97346.4
97276.5
97245.8
97255.8
97286.9
97374.9
97508
97674.6
97873.4
98112.3
98364.5
98628.1
98882.4
99157.2
99409
99646.6
99894.3
100090
100297
100420
100562
100615
100684
100628
100585
100495
100299
100161
99875.8
99545.7
99126.3
98607.8
98139.4
97670.8
97249.9
96928.2
97111.1
96946
96976.6
97123.5
97563.7
97768.7
98171.2
98701.1
99222.7
93267
93266
93266.2
93266.8
93267.5
93268.8
93271.4
93275
93279.2
93284.1
93290.5
93299.1
93309.9
93323.4
93340.3
93360.5
93384.3
93411.8
93442.2
93475.2
93512
93552.9
93597.9
93648.1
93703.9
93765.2
93832
93904.9
93984
94069.9
94162.6
94261.7
94366.8
94477
94591.6
94711.2
94836.1
94965.8
95099.8
95237.1
95381.1
95530.3
95679.5
95831.3
95988.2
96149.4
96313.7
96482.2
96654.5
96830.4
97011.2
97196.6
97387.4
97583.7
97784.8
97990.6
98200.6
98414.4
98632.2
98853.3
99076.9
99302.3
99531.3
99757.2
99982.1
100205
100423
100637
100843
101042
101232
101411
101579
101734
101875
102001
102111
102203
102278
102334
102372
102389
102389
102370
102334
102281
102213
102132
102039
101939
101832
101710
101582
101450
101316
101182
101047
100913
100779
100645
100513
100382
100252
100124
99997.3
99871.9
99745.4
99621.3
99498.9
99377.8
99262
99151
99042.8
98940.6
98848.6
98762.1
98679.9
98606.9
98553.5
98475.1
98412.6
98366.4
98324.3
98277.5
98227.6
98179.9
98133.6
98083.6
98029.7
97969.7
97908.2
97852.2
97797.3
97735
97664.5
97609.7
97586
97598.5
97655.8
97740.5
97875.9
98046.4
98245.1
98470.7
98735.3
99020.4
99316.8
99615.6
99931.2
100224
100517
100821
101071
101340
101518
101706
101811
101942
101962
101948
101915
101769
101635
101405
101057
100669
100186
99612.2
99093.9
98656.5
98344.9
98327.1
98132.9
98067
98157.4
98440.5
98532
98908.2
99398.9
99768.7
93984.4
93981.8
93979.3
93976.4
93973.4
93971.4
93970
93969
93968.3
93968
93968.5
93970.4
93974
93979.7
93987.4
93997.5
94010.6
94026.8
94045.7
94067.9
94093.6
94122.7
94155.9
94194
94237.2
94286
94341
94401.9
94468.8
94542.9
94624
94711.7
94806.1
94905.4
95008.7
95116.4
95228.2
95343.4
95461.1
95583.2
95712.6
95846.1
95980.3
96117.3
96257.4
96401.2
96547.7
96697.5
96850.9
97007.8
97169.1
97335.3
97506.6
97683.1
97863.7
98048.5
98236.8
98428.8
98625.8
98825
99026.8
99230.6
99435.7
99640.6
99844.5
100046
100244
100437
100624
100803
100973
101133
101281
101418
101543
101654
101750
101831
101894
101940
101969
101981
101975
101952
101912
101858
101788
101706
101613
101510
101401
101292
101165
101036
100905
100771
100639
100506
100374
100243
100113
99983.8
99855
99727.7
99600.1
99475.2
99352.2
99229.6
99110.3
98994
98880.3
98773.3
98673.4
98578.5
98492.7
98419
98351.9
98284.2
98230.2
98195.3
98159.3
98129.5
98110.6
98097.1
98080.6
98061.6
98051
98038.1
98023
98003.3
97981.3
97965.5
97952.2
97935.1
97910
97902.5
97926.7
97983.1
98083.1
98221.2
98398.6
98603.7
98835.1
99091.2
99384.3
99700.3
100032
100370
100724
101057
101408
101751
102062
102374
102612
102845
103003
103172
103275
103301
103308
103221
103077
102890
102542
102164
101722
101097
100568
100119
99938.4
99581.3
99366.4
99217.9
99219
99327.1
99485.5
99700.3
100140
100318
94713.8
94709.2
94704.5
94699
94693.2
94686.7
94679.6
94672.6
94665.5
94659.1
94653.5
94648.5
94644.4
94641.1
94638.8
94638.5
94641
94645.7
94653.1
94664.2
94678.9
94696.9
94718.9
94745.1
94775.9
94812
94853.8
94901.8
94956.4
95018.1
95087
95162.9
95245.6
95333.6
95426.2
95522.9
95622.5
95723.5
95826.2
95934
96048.1
96165.2
96284.2
96405.2
96528.2
96654.6
96783.5
96914.7
97049.2
97187
97329.6
97476.7
97628.7
97785.1
97945.1
98108.7
98275.5
98446.1
98620.3
98797.3
98976.7
99158
99340.5
99523.3
99705.3
99885.6
100063
100235
100401
100560
100711
100850
100979
101097
101204
101299
101381
101448
101500
101536
101556
101560
101548
101522
101479
101422
101352
101269
101177
101075
100964
100847
100732
100610
100482
100352
100222
100092
99961.4
99832.7
99704.6
99578.1
99451.9
99326.3
99202.2
99078.8
98957.9
98839.9
98723.8
98612.3
98506.1
98403.9
98310.9
98227.2
98149.6
98083.1
98040.8
97984.4
97936.4
97926.3
97919.9
97914.5
97917.8
97933.2
97952.3
97967
97989.6
98015.2
98037.7
98059.7
98078.1
98102.4
98132.8
98161.4
98183.9
98222.4
98293.6
98393.5
98534.5
98716
98928.9
99169.7
99434.1
99721.5
100047
100391
100756
101128
101512
101887
102289
102659
103030
103372
103663
103933
104152
104354
104520
104598
104635
104608
104462
104299
103967
103594
103192
102537
102033
101554
101520
100892
100624
100416
100322
100397
100445
100506
100903
100899
95443.3
95436.5
95429.9
95421.8
95412.1
95400.7
95388.4
95375.3
95361.8
95348.4
95334.8
95320.9
95307.6
95295.7
95285.1
95276.1
95268.9
95263.4
95259.8
95258.9
95261.4
95267.7
95278
95292.4
95310.9
95334.3
95363.2
95398.3
95440
95488.9
95544.9
95608.1
95678
95753.7
95834.4
95919.6
96006.6
96094.4
96185.3
96281.3
96380.6
96481.2
96584.6
96689.7
96795.9
96905.6
97017.6
97131.4
97246.8
97366.8
97491
97619.1
97751.6
97888.1
98027.8
98170.5
98316.3
98465.2
98617.2
98771.8
98928.8
99087.5
99247.5
99407.7
99567.6
99726
99881.4
100032
100177
100317
100448
100569
100678
100777
100865
100943
101010
101064
101104
101130
101141
101138
101120
101088
101042
100982
100911
100829
100737
100638
100529
100417
100300
100180
100058
99932
99804.1
99678.8
99551.9
99425.6
99301.4
99177.3
99054.8
98932.2
98811.2
98692.2
98572.6
98459
98349.3
98241.7
98142.9
98050.3
97964.4
97892.9
97829.7
97767.4
97718
97697.2
97678
97680
97698.6
97722.2
97752
97794.8
97846.1
97897.6
97953.5
98018.1
98077.8
98139.6
98200.2
98263.5
98336.7
98409.2
98480.3
98566.2
98682.5
98824.4
99001.9
99220.5
99463.9
99738.1
100032
100352
100707
101076
101470
101872
102278
102691
103129
103524
103953
104315
104652
104943
105218
105451
105662
105796
105862
105887
105745
105603
105290
104926
104564
103905
103442
102890
102884
102197
101864
101594
101460
101436
101361
101358
101627
101541
96158.7
96149.5
96140
96128
96113.8
96098.1
96081.1
96062.3
96042.2
96021.1
95999.1
95976.9
95954.9
95933.7
95913.8
95894.8
95876.9
95861
95847.6
95836.8
95829.3
95825
95824
95826.6
95833.4
95845.2
95862.2
95884.9
95913.8
95949.5
95992.2
96041.8
96098.2
96160.7
96228.6
96300.6
96374.9
96451.6
96532.7
96617.8
96702.3
96787.6
96876.1
96967.2
97056.6
97150.8
97246.3
97343.3
97442.6
97544.8
97650.9
97760.5
97874
97991
98111
98233.6
98358.8
98486.6
98617.1
98749.9
98884.7
99021.3
99159.1
99296.8
99433.7
99570.5
99704.8
99834
99957.6
100076
100189
100293
100384
100463
100533
100595
100647
100687
100715
100730
100732
100721
100697
100660
100610
100549
100477
100395
100304
100206
100102
99992.4
99879.3
99763
99644.6
99524.3
99403.4
99278.8
99155.1
99030.2
98911.3
98792.4
98673.4
98555.4
98437.4
98324.2
98208.3
98097
97994.6
97894.1
97801.6
97720.4
97642.3
97578.3
97525.7
97483.2
97449.8
97445.3
97449.3
97468.4
97507.4
97556.8
97613.9
97685.7
97767.9
97855.1
97945.4
98046.7
98146.8
98243.9
98345.2
98449.6
98561.3
98674
98792.8
98925.8
99087.1
99269.4
99480.3
99728.9
100001
100301
100619
100971
101349
101739
102159
102578
103005
103449
103910
104332
104798
105166
105536
105840
106163
106419
106679
106855
106955
107023
106888
106763
106466
106127
105799
105172
104748
104158
104048
103438
103030
102714
102542
102457
102337
102309
102321
102209
96850.5
96838.8
96826.6
96810.9
96792
96771
96747.7
96721.9
96694.4
96665.8
96636.1
96605.6
96574.5
96543.1
96512.9
96484
96456.9
96431.8
96409
96388.8
96370.9
96356
96344.5
96337.3
96334.7
96336.4
96342.8
96354.1
96371
96394.1
96424.1
96460.8
96504
96553.5
96608.8
96668.5
96731.5
96798
96868
96939.9
97011.3
97083.4
97158.5
97233.9
97310.3
97389
97468.8
97549.8
97633
97718.4
97807.2
97899.1
97994.3
98092.6
98193.5
98296.9
98402.6
98510.4
98620.2
98732.2
98845.9
98960.8
99077
99193.4
99307.9
99422
99535.9
99644.7
99746.6
99843.7
99937.3
100024
100098
100160
100213
100258
100295
100321
100337
100341
100335
100316
100286
100244
100191
100129
100056
99975.4
99886.9
99791.6
99690.7
99585.3
99476.9
99364.5
99251.2
99135.8
99019.8
98902.9
98786.7
98672.4
98552.5
98434.8
98318.7
98205.2
98092.2
97985.1
97873.2
97766.5
97670
97578
97492.7
97419.4
97353.4
97297.2
97259.2
97232
97218.9
97228.2
97252.9
97292.4
97351.3
97424.7
97508.4
97609.1
97722.5
97842.1
97967.3
98102.2
98241.8
98373.7
98511.1
98658.3
98804.1
98952.7
99118.7
99295.1
99496.6
99717.5
99957.9
100231
100526
100845
101185
101564
101961
102369
102803
103228
103676
104141
104611
105061
105534
105890
106277
106591
106951
107226
107526
107739
107879
107992
107872
107753
107480
107181
106866
106319
105938
105489
105103
104632
104179
103829
103540
103452
103282
103333
103038
102886
97511.1
97497.6
97483
97463.8
97440
97412.2
97381
97347.3
97311.5
97274.2
97236
97196.5
97156.2
97116
97076
97037.3
97000.4
96965.6
96933
96903
96876.1
96852.6
96832.8
96817
96805.2
96797.3
96793.9
96795.3
96801.8
96814.2
96833.3
96859
96890.8
96928.6
96972.4
97020.9
97073.5
97129.9
97188.8
97248.4
97307.9
97368
97428.9
97490.5
97553.4
97617.7
97682.7
97748.9
97816.5
97886
97958.2
98033.1
98111
98191.6
98274.5
98359.7
98446.8
98535.8
98626.5
98718.7
98812.3
98906.8
99002.3
99098.4
99192
99283.9
99376.7
99466.4
99548.5
99624.8
99698.2
99766.6
99824.3
99870.9
99908.4
99938.2
99960
99972.8
99976.9
99970.8
99955.2
99929.4
99893
99847.5
99792.1
99728.7
99657
99577.9
99492
99400.1
99303.7
99203.2
99099.6
98992.8
98884.8
98775.3
98664.6
98554.4
98443.3
98333
98220.7
98109.4
97999.1
97889
97780.8
97670.3
97573.4
97474.6
97385.2
97301.3
97224.7
97159.9
97103.8
97061.6
97035
97021
97026.1
97050.8
97093
97152.7
97232.8
97328.9
97438.6
97567.2
97710.5
97860.3
98018
98185.7
98358.6
98526.5
98697.2
98883.1
99062.2
99243.6
99452
99672.4
99906.4
100159
100424
100715
101027
101362
101718
102124
102530
102952
103389
103813
104274
104747
105215
105679
106131
106471
106868
107191
107575
107872
108192
108443
108624
108762
108653
108568
108314
108074
107745
107333
107026
106766
106082
105740
105312
104940
104465
104322
104128
104222
103730
103513
98132.7
98117.2
98099.6
98076.7
98048.2
98014
97975
97932.4
97886.8
97839
97790.3
97741
97691.4
97642.3
97593.5
97545.8
97499.5
97455.2
97413.6
97374.8
97339.2
97307.4
97279.6
97255.4
97234.8
97218.5
97206.8
97199.8
97198
97201.8
97211.6
97227.5
97249.3
97277.1
97310.5
97348.8
97391.2
97437.1
97485
97533.8
97583.2
97632.9
97682.8
97732.6
97782.9
97833.7
97884.8
97937.1
97990.3
98045.2
98102.1
98161.3
98223.1
98287.2
98353.3
98421.6
98491.4
98562.8
98635.4
98709.5
98784.7
98859.5
98935.3
99012.2
99086.9
99158.6
99230.6
99300.9
99364.6
99422.3
99477
99527
99568.1
99599.8
99623.1
99638.9
99647.4
99647.4
99640.4
99625.1
99600.9
99568.8
99527.6
99478.8
99421.8
99357.9
99287.2
99210.1
99127.4
99039.7
98947.9
98852.6
98754.7
98654.2
98551.9
98449.3
98344.8
98241.2
98136.7
98031.7
97927
97822.4
97718.2
97614.2
97513.8
97413.6
97320.3
97232.7
97147.4
97070.6
97003.5
96947
96901.2
96871.2
96856.1
96855.5
96876.4
96916.8
96974.6
97053.5
97154.1
97271.6
97405.8
97560.5
97730.6
97909
98095.3
98294.4
98496.1
98697.4
98902
99117.4
99330.1
99541.4
99783.4
100046
100314
100588
100874
101175
101501
101847
102218
102639
103045
103475
103900
104321
104784
105247
105711
106166
106580
106909
107309
107638
108036
108353
108694
108973
109185
109312
109220
109164
108939
108757
108424
108149
107902
107617
106892
106583
106139
105772
105275
105073
104806
104855
104379
104078
98714.1
98694
98672.6
98645.4
98612.4
98572.9
98526.5
98474.6
98418.7
98360.2
98300
98239.3
98178.7
98118.9
98060.3
98003.5
97948.7
97896.1
97846.3
97799.6
97756.3
97716.5
97680.4
97648.1
97620.3
97597.1
97578
97563.4
97553.8
97549.4
97550.6
97557.7
97570.8
97589.9
97614.4
97643.6
97676.9
97713.3
97751.7
97791.2
97831.3
97871.5
97911.5
97951.1
97990.8
98030.5
98070.2
98110.6
98151.6
98193.7
98237.5
98282.7
98329.8
98379.4
98430.1
98482.5
98536.9
98592.1
98647.7
98704.9
98763.5
98820.6
98877.6
98936.4
98993.1
99046.6
99099.9
99151.4
99197.2
99237.8
99275.3
99308.4
99333.7
99351
99361.4
99364.4
99360.7
99349.7
99332.2
99308.4
99277.5
99240.1
99195.5
99144.3
99087.2
99023.3
98954.3
98879.3
98800.7
98717.4
98631
98541.8
98449.8
98356.1
98260.9
98165.6
98068.5
97971.6
97874.9
97777
97679.8
97582.2
97485.5
97389.3
97296.2
97204.9
97117.3
97037
96959.7
96890.7
96833.1
96785
96749
96729.9
96725.4
96737.3
96771.8
96826.5
96899.7
96995.9
97115.6
97253.1
97409.1
97586.8
97779.9
97984.7
98197.6
98423.4
98651.8
98881.5
99117.3
99357.2
99598.5
99837.1
100103
100397
100697
100990
101294
101601
101937
102288
102673
103093
103492
103920
104320
104742
105192
105630
106082
106512
106884
107211
107599
107929
108330
108653
109021
109311
109543
109645
109581
109534
109352
109204
108891
108713
108447
108057
107496
107181
106685
106329
105883
105694
105353
105351
104928
104590
99168.6
99146.2
99120.6
99087.6
99047.7
99001.5
98948.5
98889.4
98825.9
98758.8
98689.3
98619.1
98549.3
98480.4
98413.1
98348
98285.5
98225.9
98169.7
98116.8
98067.5
98021.8
97980
97942.4
97908.9
97879.5
97854.4
97833.8
97818
97807.3
97802.2
97803
97810.1
97823.2
97841.7
97865.1
97892.3
97922.4
97954.4
97987.4
98020.9
98054.3
98087.4
98120
98152.3
98184.3
98216
98247.9
98280.1
98312.6
98346.6
98381.7
98417.7
98455.8
98495.3
98535.1
98577.1
98620.2
98662.4
98705.8
98751
98794.4
98836.8
98880.7
98923.1
98961.9
98999.8
99036.3
99067.9
99094.8
99118.3
99137.6
99150.2
99155.6
99155.2
99148.3
99135
99115.7
99090.6
99060.1
99023.9
98982.8
98935.6
98883.2
98825.8
98763.2
98696
98624.1
98548.7
98470.1
98388.5
98305
98219.2
98132.1
98043.6