/*--------------------------------*- C++ -*----------------------------------*\
| =========                 |                                                 |
| \\      /  F ield         | OpenFOAM: The Open Source CFD Toolbox           |
|  \\    /   O peration     | Version:  dev                                   |
|   \\  /    A nd           | Web:      http://www.openfoam.org               |
|    \\/     M anipulation  |                                                 |
\*---------------------------------------------------------------------------*/
FoamFile
{
    version     2.0;
    format      ascii;
    class       volScalarField;
    object      p_0;
    location    "9.118";
}
// * * * * * * * * * * * * * * * * * * * * * * * * * * * * * * * * * * * * * //

dimensions      [1 -1 -2 0 0 0 0];

internalField   nonuniform List<scalar> 
12225
(
110742
110687
110617
110528
110404
110251
110056
109832
109566
109271
108933
108578
108177
107758
107290
106814
106376
105680
110719
110667
110599
110510
110386
110233
110038
109816
109549
109255
108917
108565
108163
107747
107281
106822
106356
105668
110672
110624
110557
110468
110345
110192
109999
109776
109511
109219
108879
108533
108130
107720
107256
106808
106326
105600
110593
110550
110485
110396
110274
110121
109930
109707
109445
109153
108820
108469
108076
107664
107219
106775
106313
105623
110476
110437
110373
110285
110164
110012
109823
109602
109342
109052
108725
108375
107990
107582
107156
106717
106263
105646
110311
110275
110212
110124
110005
109855
109668
109450
109194
108907
108587
108241
107866
107468
107057
106628
106186
105664
110081
110050
109989
109903
109785
109637
109454
109240
108989
108708
108395
108056
107693
107307
106912
106499
106080
105639
109826
109795
109736
109651
109536
109390
109211
109000
108756
108480
108176
107846
107493
107121
106740
106345
105950
105554
109550
109521
109463
109379
109267
109123
108949
108742
108504
108235
107939
107617
107275
106917
106551
106174
105800
105435
109188
109158
109101
109020
108911
108771
108602
108401
108171
107910
107624
107314
106985
106643
106295
105940
105590
105252
108710
108679
108625
108547
108442
108307
108144
107951
107730
107481
107207
106912
106601
106278
105950
105621
105297
104986
108077
108050
108000
107925
107826
107698
107544
107361
107152
106916
106659
106383
106092
105793
105490
105188
104893
104610
107252
107230
107184
107115
107023
106904
106761
106591
106397
106180
105943
105690
105425
105153
104879
104608
104344
104092
106198
106172
106131
106070
105987
105880
105751
105598
105423
105228
105016
104791
104556
104317
104076
103840
103611
103393
104844
104826
104792
104741
104669
104578
104466
104333
104182
104014
103833
103640
103441
103239
103037
102840
102651
102471
103165
103150
103125
103085
103029
102955
102864
102755
102632
102496
102349
102195
102037
101877
101719
101566
101420
101283
101129
101123
101108
101082
101042
100988
100921
100840
100748
100647
100540
100427
100313
100200
100090
99984.8
99886.4
99796.2
98931.9
98937.2
98934.4
98921.9
98898
98862.8
98817.4
98762.9
98700.8
98633.2
98562.2
98489.6
98417.7
98348.4
98283.4
98223.9
98171.1
98125.8
96949.5
96968
96976.7
96974.8
96962.3
96940.2
96910.5
96874.9
96835
96792.5
96749.4
96707.4
96668.1
96632.9
96603.1
96579.5
96562.7
96553.3
95363
95379.3
95390
95392
95384.9
95370.2
95349.6
95325.6
95299.8
95273.7
95249.1
95227.9
95211.3
95200.1
95195.3
95197.4
95206.7
95223.3
94105.5
94127.7
94138
94139.3
94133.1
94121.3
94105.8
94088.4
94071.1
94055.5
94043
94035.4
94033.9
94039
94051.4
94071.6
94099.3
94134.7
93150.9
93166.1
93172.3
93170.8
93163
93151.3
93137.5
93123.6
93111.2
93101.8
93097
93098.1
93106.4
93122.4
93146.6
93179
93219.6
93268.1
92428.4
92439.4
92441.7
92436.7
92426.6
92413.9
92400.2
92387.5
92377.4
92371.8
92371.8
92378.6
92393.2
92416.5
92448.5
92489.4
92538.9
92596.6
91887.9
91901.3
91900.8
91892.7
91880.1
91865.6
91851.1
91838.6
91829.7
91825.9
91828.5
91838.9
91857.8
91885.9
91923.3
91969.9
92025.5
92089.7
91503
91513.8
91509.7
91498.9
91484.3
91468.3
91452.7
91439.8
91431.2
91428.3
91432.5
91445
91466.6
91497.7
91538.6
91589.2
91649
91717.5
91232.4
91242.4
91235.5
91222.6
91206.3
91189.1
91172.6
91159.1
91150.4
91147.8
91152.9
91166.7
91189.9
91223
91266.2
91319.2
91381.7
91453.2
91052.7
91061
91052.4
91037.1
91019
91001.1
90983.8
90969.8
90960.9
90958.5
90964
90978.5
91002.5
91036.7
91081.3
91135.9
91200
91273.2
90943.9
90946.5
90936.1
90921.1
90902.8
90882.5
90864.6
90850.2
90841.1
90838.7
90844.4
90859.2
90883.6
90918.5
90963.8
91019.3
91084.4
91158.1
90880.5
90881.7
90869.5
90853.6
90835
90815.5
90797.5
90783
90773.8
90771.4
90777.1
90792.1
90816.7
90852
90897.8
90954
91019.8
91094.9
90857.5
90854.6
90841.7
90825.5
90806.7
90787.2
90769.2
90754.6
90745.4
90743
90748.8
90763.9
90788.7
90824.2
90870.3
90926.7
90992.9
91068.6
86687.4
86691
86700.9
86716.7
86738.3
86765.5
86798.1
86836
86878.6
86926.7
86980
87038.4
87101.9
87170.5
87244.5
87324.1
87409.5
87501.2
87599.6
87705.1
87817.9
87938.4
88066.9
88203.5
88348.1
88501.3
88662.9
88833.3
89012
89198.2
89393
89595.8
89806.5
90025.4
90252.7
90489.4
90735.7
90991.3
91255.9
91531
91814.7
92105.7
92403.9
92708.5
93019.5
93335.3
93656
93982.4
94312.1
94644.6
94981.3
95325.8
95675.6
96024.7
96373.3
96723.5
97077.8
97435.8
97797.1
98160.3
98524
98887.1
99249.2
99609.9
99968.3
100323
100674
101021
101362
101695
102021
102338
102645
102940
103223
103493
103750
103991
104216
104424
104616
104791
104948
105086
105205
105305
105387
105451
105498
105528
105541
105540
105524
105495
105452
105397
105329
105249
105159
105057
104944
104818
104680
104529
104366
104189
103999
103800
103592
103376
103151
102919
102679
102434
102186
101935
101680
101421
101154
100881
100605
100328
100044
99744.7
99425
99090.3
98749
98403.9
98052.5
97692.3
97312.4
96906.8
96471.5
96008.3
95523.6
95032.7
94555.2
94101.3
93672.7
93270.6
92894.4
92546.4
92226.4
91937.3
91679.1
91449.4
91223.9
91007.5
90782.4
90550.8
90293.5
90010.8
89700.7
89362
88993.1
88597
88175.8
87735.7
87277.9
86803.3
86317.3
85825.6
85360.5
84935.4
84580.1
84301.3
84101.8
84075.3
84146.8
84304.1
84576
84965
85519.3
86201.9
87032
87984.3
89059
90243.7
91514.8
92777.9
86808.5
86812.9
86822.8
86838.7
86860.3
86887.4
86919.6
86956.8
86999
87046.1
87098.3
87155.4
87217.5
87284.5
87356.8
87434.6
87518.3
87608.4
87705.4
87809.5
87921.2
88040.6
88167.9
88303.3
88446.9
88598.7
88758.9
88927.5
89105.4
89291.9
89485.5
89687.2
89896.4
90114.4
90341.4
90574.5
90817.2
91071.4
91335.2
91608.3
91890.9
92181.5
92477.6
92779.5
93087.9
93401.2
93719.8
94039.9
94363.6
94691.3
95024.1
95367.7
95719.6
96064.4
96407.3
96748.8
97098.1
97454.3
97813.3
98173.3
98533.3
98892
99249.7
99606.1
99960.1
100311
100658
101000
101336
101665
101987
102299
102601
102893
103172
103438
103690
103927
104148
104353
104540
104711
104864
104998
105114
105211
105289
105350
105394
105420
105431
105426
105408
105375
105329
105271
105200
105118
105025
104921
104807
104681
104544
104395
104231
104053
103864
103667
103460
103245
103021
102790
102550
102308
102064
101814
101562
101305
101042
100772
100501
100230
99955.8
99666.4
99351.9
99021.1
98686.2
98349.9
98007.1
97656
97288.2
96895.5
96471.2
96015.8
95535.8
95047.9
94575.8
94129.9
93710.6
93318
92949.7
92611.3
92302.4
92018.7
91770.8
91554.9
91339.9
91133.2
90913.7
90690
90438.4
90161.9
89858.9
89527.7
89164.9
88773.9
88356.6
87919.6
87467
86998.5
86517.4
86025.8
85554.2
85123.7
84766.2
84486.3
84276
84249.9
84312.7
84459.9
84720
85097.2
85646.8
86314.1
87131.7
88075.1
89132.9
90304
91574.8
92830.3
87048
87053
87064
87080.3
87101.7
87127.9
87158.8
87194.4
87234.8
87280
87329.8
87384.3
87443.3
87507.3
87576.4
87651.2
87732.2
87820
87915.1
88017.7
88128.1
88246.2
88372
88505.5
88647
88796.1
88953
89118.4
89292.2
89475.7
89669
89869.3
90077.8
90293.9
90517.3
90747.7
90988.1
91239.5
91498.5
91767.2
92048
92336.6
92628
92927
93230.1
93534.1
93841
94148.2
94461.6
94785.8
95113.5
95443.8
95776
96117.9
96462
96804.9
97149.8
97497.4
97846.9
98197.3
98547.9
98898.9
99249
99596.9
99942.6
100285
100624
100957
101284
101605
101918
102222
102516
102799
103069
103327
103571
103800
104013
104210
104391
104554
104699
104826
104935
105025
105097
105152
105189
105209
105214
105203
105179
105139
105087
105021
104943
104854
104754
104643
104523
104394
104258
104110
103951
103779
103597
103403
103199
102986
102767
102542
102303
102065
101824
101578
101330
101078
100821
100560
100297
100038
99777.9
99506.8
99209.7
98892.4
98572.6
98251.8
97924
97587
97236.2
96864.3
96461.7
96026.4
95561.7
95086.1
94626.3
94193.6
93790
93412.6
93060.2
92742.4
92456.5
92186
91957.6
91762.8
91571.6
91384
91175.9
90964
90723.5
90457.2
90168
89856.1
89510.6
89133.6
88727.7
88299.2
87852.2
87394.7
86929.6
86454
85971.5
85527.1
85154.9
84880.3
84661.1
84626.1
84660.2
84786
85021.9
85383
85927.7
86567.1
87356.2
88269.9
89301.7
90436.7
91707.5
92932.4
87397
87402.2
87413.5
87429.6
87450.1
87474.9
87504.1
87537.8
87575.9
87618.6
87665.6
87717.1
87773.3
87834.4
87901
87973.5
88052.8
88139.4
88233.6
88335.5
88444.9
88561.5
88685.2
88815.8
88953.8
89099.3
89252.1
89412.6
89581.4
89759
89945.8
90143.4
90347.1
90559.5
90780.4
91009
91245.5
91489.6
91741.6
92005.7
92282.5
92563
92849.7
93145.2
93433.9
93719
94007.2
94305.2
94609.5
94927.2
95247.4
95570.3
95895.1
96223.2
96554.2
96887.1
97221.8
97558.7
97895
98232.9
98571.2
98909.6
99247
99582.6
99916
100247
100573
100893
101208
101516
101816
102109
102391
102661
102920
103165
103398
103615
103818
104004
104174
104326
104461
104579
104678
104759
104822
104868
104897
104909
104905
104888
104855
104809
104748
104676
104592
104495
104387
104269
104140
104002
103857
103704
103542
103376
103201
103014
102816
102610
102397
102178
101946
101712
101478
101243
101004
100761
100515
100268
100023
99778.4
99532.5
99278.8
99009.6
98717.9
98420
98119.1
97809.8
97490.4
97160.9
96814.9
96440.9
96033.8
95596
95146.4
94708.2
94294.6
93913.5
93557.4
93226.5
92935.4
92684.4
92452
92241.2
92064.3
91900.5
91737.4
91548.8
91354.2
91131.8
90882.5
90608.5
90321.4
90008.5
89659.7
89274.6
88869.6
88439.2
87990.6
87536.3
87093.2
86613.4
86154
85752
85464.8
85216.6
85173.5
85178.2
85275.7
85480.1
85818.2
86349.5
86966.9
87716.1
88578.7
89576.3
90650.7
91926.5
93082.5
87849.9
87854.7
87865.2
87880.2
87899.2
87922.1
87949
87980.2
88016
88056.4
88101.6
88151.5
88206
88265.4
88330.2
88401.1
88478.9
88564.2
88657
88757
88864.2
88978.2
89099
89226.6
89360.9
89502
89649.6
89804.3
89966.7
90137.4
90316.7
90505.1
90704.7
90911.3
91126.2
91349
91579.5
91817.3
92063
92321.2
92587.2
92857.9
93137.2
93416.7
93681.1
93958.1
94243
94533
94829.8
95126.2
95429.2
95737
96047.9
96361.2
96676.7
96993.7
97312.3
97631.8
97954.3
98276.9
98599.6
98922.1
99243.6
99563.4
99880.8
100195
100505
100810
101108
101400
101683
101962
102230
102483
102725
102954
103173
103376
103565
103737
103893
104032
104154
104259
104347
104416
104467
104501
104520
104522
104509
104482
104441
104386
104318
104238
104146
104043
103930
103806
103672
103528
103374
103212
103045
102868
102686
102501
102310
102109
101907
101691
101471
101251
101031
100811
100587
100362
100136
99908
99684.1
99462.5
99236.4
98997.6
98752
98492.8
98224.5
97949.8
97664.1
97368.3
97066.7
96754.4
96415.5
96041.6
95638.7
95225.5
94819.3
94433.1
94080.9
93754.2
93449.8
93185.4
92973.7
92792.8
92614
92454.2
92312
92176.5
92013.2
91844.7
91649.5
91430.6
91185.5
90923.5
90644.3
90335.7
89980.1
89602.2
89207.1
88787.5
88334.8
87919.7
87468.4
86994.4
86576.2
86234
85939.2
85902.5
85869.6
85927.5
86090.2
86408.8
86907.7
87505.4
88207.1
89006.7
89949.5
90953.9
92227.6
93280.3
88403.4
88407.6
88416.9
88430.1
88447
88467.6
88492.3
88521.7
88555.8
88594.7
88638
88685.3
88736.9
88793.5
88856
88925.3
89002.1
89086.1
89176.6
89273.7
89377.7
89488.7
89606
89729.2
89858.4
89993.8
90135.5
90283.6
90438.6
90601
90772.1
90952.9
91143
91342.8
91549.2
91764.4
91987.9
92219.2
92458.2
92705.5
92956.2
93213
93475.4
93738.3
93993.4
94258
94527.9
94800.5
95080.6
95363
95649.3
95939.2
96231.5
96526.3
96823.5
97120.9
97420.8
97722.1
98025.1
98328.7
98632.4
98935.7
99237.9
99539
99836.5
100134
100424
100709
100988
101261
101526
101783
102031
102267
102492
102704
102904
103090
103261
103416
103556
103678
103785
103874
103947
104002
104040
104062
104068
104058
104034
103996
103943
103878
103800
103710
103610
103500
103380
103250
103111
102963
102807
102644
102474
102294
102104
101910
101711
101511
101309
101092
100894
100698
100494
100287
100083
99882.8
99682.2
99478.7
99278.2
99083.8
98887.2
98675.5
98450.2
98221.7
97988.3
97746.8
97493.6
97229.5
96961.7
96687.9
96390.5
96056.8
95695.5
95325.2
94960.4
94612.6
94292.8
94003.8
93733.4
93497.9
93320.9
93185.2
93050.2
92921.3
92806
92701.6
92569.9
92434.2
92273.3
92092.4
91888.9
91666.9
91424.3
91157
90845.3
90494.8
90128.7
89760.2
89322.8
88923.8
88520
88041.8
87632.8
87223.2
86883.4
86826.5
86730
86737.3
86848.1
87163.8
87596
88162.3
88807.2
89552.4
90415.3
91375.9
92547.9
93518.8
89054.6
89057.9
89065.7
89077
89092
89110.8
89133.6
89160.8
89191.8
89227.3
89266.6
89310.3
89359.7
89415.2
89476.6
89545.5
89620.9
89701.3
89786.8
89878.6
89976.8
90081.3
90191.6
90307.9
90430.4
90559.5
90695.1
90837.1
90985.8
91140.9
91303.7
91474.5
91653.4
91842.2
92042.1
92248.2
92462.4
92683.9
92911.9
93145.4
93379.2
93620.2
93868.1
94109.1
94352.9
94603.7
94853.8
95110.1
95371.2
95634.4
95900.8
96169.6
96440.2
96713
96987.1
97264.8
97543.8
97824.1
98105.4
98387.1
98668.7
98949.8
99229.1
99511.2
99786
100059
100326
100589
100846
101097
101340
101576
101802
102017
102221
102413
102593
102759
102910
103047
103168
103273
103361
103434
103490
103529
103553
103560
103553
103530
103493
103443
103379
103302
103213
103114
103005
102885
102757
102620
102475
102322
102160
101989
101814
101642
101457
101265
101069
100862
100647
100455
100265
100070
99880.5
99698.9
99517.4
99337.8
99163.6
98992.2
98821.5
98651.6
98483.6
98311.5
98121.7
97923.2
97724.6
97520.2
97307.3
97083.2
96854.2
96621.8
96370.7
96084.4
95770.6
95448.9
95133.8
94835.6
94553.4
94306.5
94076.7
93883.5
93737
93635.4
93543
93460
93383.7
93312
93223.8
93128
93009.7
92876.7
92719.4
92544.1
92346.3
92122.3
91856.7
91553.6
91205.5
90888.3
90485.9
90098.1
89745.4
89280.9
88896.1
88435.6
88049.1
87922.6
87749.5
87696.2
87747.2
88080.8
88420.5
88922.2
89502.7
90197.8
90980.9
91868.8
92892.5
93799.5
89798.8
89801.1
89807.5
89817.1
89830.1
89846.7
89866.7
89890.3
89917.5
89948.7
89984
90024.5
90071
90123.5
90181.4
90244.5
90312.4
90385.5
90464.7
90547.6
90638.3
90734.5
90836.5
90944.8
91059.7
91181.7
91311.6
91448.5
91592.5
91742.3
91898.2
92060.4
92229.9
92409.2
92597.9
92790
92990.6
93197.8
93411.4
93630.5
93848.1
94073.8
94301.5
94525.3
94753.8
94981.7
95215.5
95452.6
95692.7
95934.1
96178
96423.4
96670.2
96919.6
97171
97424.8
97679.9
97936
98192.9
98450
98706.9
98964.5
99219.8
99474.2
99725
99972.6
100216
100454
100686
100913
101132
101342
101544
101736
101918
102088
102245
102389
102519
102635
102735
102821
102890
102944
102982
103004
103012
103004
102981
102944
102894
102831
102756
102668
102570
102461
102342
102214
102077
101933
101783
101624
101457
101285
101104
100918
100734
100547
100359
100163
99967.7
99782.7
99598.5
99416.3
99243.1
99078.3
98916.8
98761.3
98611.4
98469.4
98334.5
98196.6
98054.3
97915.9
97773
97614.8
97452.4
97287.1
97116.7
96937.7
96751.7
96563.8
96361.6
96128.4
95867.8
95599.6
95339.5
95098.1
94868.6
94662.4
94483.2
94339.5
94230.8
94160.5
94112.6
94077.3
94046.7
94007.9
93973.5
93923.3
93854.7
93779
93674.7
93555.3
93399.7
93232.7
93006.2
92759.8
92435.8
92161.9
91807.9
91431.9
91121.4
90682.5
90313.9
89843.9
89407.1
89201.6
88949.1
88802.4
88782.7
89156.4
89384.4
89787.9
90284.5
90949.8
91652.6
92417.1
93306.9
94138.7
90629.4
90630.1
90635.2
90643.1
90653.9
90667.2
90683.5
90703.2
90726.3
90752.9
90783.6
90818.9
90858.9
90903.4
90952.7
91007.1
91066.8
91132.4
91204.3
91281.3
91363.8
91452.4
91546.9
91647.2
91754.3
91866.3
91988.1
92117.4
92253
92395.1
92543.8
92698.5
92859.6
93027
93198.7
93379.4
93565.8
93757.1
93955
94156.6
94354.3
94564.5
94771.4
94975.6
95180.8
95394.2
95607.8
95822.9
96039.6
96256.9
96476.2
96696.1
96918.1
97142.6
97368.5
97596.5
97825.5
98054.9
98284.8
98516.2
98746.5
98976.6
99205.2
99432.1
99656.2
99876.7
100093
100304
100510
100710
100902
101087
101263
101430
101586
101732
101865
101986
102093
102187
102266
102330
102379
102413
102433
102437
102427
102402
102364
102312
102248
102171
102083
101985
101876
101758
101632
101496
101352
101202
101043
100880
100711
100538
100360
100175
99988.7
99797.9
99604.9
99427
99248
99069
98901.3
98740.1
98581.8
98432
98295.2
98167.7
98043.3
97925.9
97821.1
97722.9
97617.5
97509.3
97406.1
97298.3
97180.2
97058.1
96931.5
96799.3
96660.7
96519.7
96368.2
96191.9
95989.4
95779.5
95577.8
95394.6
95230.6
95073.9
94954.7
94864.3
94799.3
94764.2
94763.1
94772.1
94787.6
94793.8
94814.2
94814.7
94798.7
94787
94733.5
94682.6
94565.4
94461.1
94279.8
94098.5
93812.5
93565.8
93264.8
92911.6
92632.1
92227
91851.7
91400.9
90932.9
90621.2
90290.2
90055.2
89958.9
90335.3
90453.5
90748.9
91150.9
91867.3
92352.5
93016.9
93823.1
94553.2
91537.4
91535.4
91539
91544.7
91552.4
91562.2
91575.2
91591
91609.4
91630.5
91655.2
91683.9
91716.6
91753.9
91796.4
91844.4
91897.8
91957
92021
92089.1
92162.2
92240.9
92324.9
92414.9
92511.5
92615
92725.2
92843.3
92967.2
93098.8
93237.6
93382.9
93534.7
93691.7
93851.4
94014.1
94183.7
94357.5
94535.4
94715.3
94901.3
95088.8
95273.8
95457.6
95644.9
95834.7
96024.7
96215
96406.3
96597.8
96790.3
96984.2
97180.1
97377.8
97576.4
97776.4
97978.7
98179.3
98380.9
98583.1
98785
98986.4
99186.4
99384.4
99579.7
99771.8
99959.6
100143
100320
100491
100655
100812
100961
101100
101230
101350
101458
101554
101638
101708
101765
101807
101835
101849
101849
101834
101806
101766
101712
101645
101567
101476
101375
101264
101145
101018
100883
100741
100592
100436
100273
100105
99933.9
99758.6
99582.4
99402.8
99218.4
99037
98854.5
98674.6
98505.9
98343
98182.8
98034.4
97901.2
97775.6
97658.1
97554.8
97463.8
97377.1
97296.4
97230
97169.2
97102.7
97035.5
96973.5
96907.5
96834.1
96755.5
96672.1
96584.2
96494
96395.3
96277.8
96136.6
95989.3
95849.5
95726
95627.3
95537.2
95480.5
95445.2
95429.3
95435.9
95477.4
95534.4
95597
95659.9
95733.1
95787.1
95830.4
95886.5
95888.5
95908.4
95842.3
95788.5
95655.2
95541.9
95312.1
95088.5
94837.6
94517.2
94254.8
93888.6
93494.2
93061.2
92586.9
92153.1
91737.6
91450.6
91316.9
91566.2
91612.7
91806
92154.4
92778.6
93039.9
93669.4
94453.9
95012.5
92508.1
92505.8
92506.2
92508.1
92512
92518.8
92528.5
92540.5
92554.7
92571.1
92590.3
92612.9
92639.4
92670.3
92705.6
92745.1
92789.6
92839.2
92893.1
92951.7
93015.1
93082.9
93155.7
93234.3
93318.8
93409.6
93506.9
93611.4
93723.3
93842.5
93968.8
94101.2
94241.1
94386
94530.7
94680.3
94834
94989.4
95144.8
95301.9
95466.6
95635.7
95800.2
95964
96128.1
96293.1
96458
96622.3
96787.3
96952.7
97117.2
97283.6
97452.1
97622
97792.1
97963.1
98134.4
98305.9
98477.8
98650
98821.8
98992.8
99162.5
99330.4
99496.1
99658.7
99817.3
99971.1
100120
100262
100397
100524
100643
100754
100856
100949
101031
101102
101161
101207
101241
101261
101268
101261
101241
101208
101161
101104
101034
100952
100861
100758
100645
100523
100393
100256
100112
99962.3
99807.1
99646.8
99482.8
99313.7
99140.8
98965.9
98787.8
98611.8
98436.8
98260.7
98089.9
97922.9
97760.2
97608.9
97468.6
97336
97217.4
97115.7
97023.9
96942
96877.6
96828
96780.5
96741.9
96718.5
96698.7
96674.4
96652.8
96638.6
96617.7
96591.1
96559.4
96524.5
96489.3
96446.6
96389.5
96311.2
96229.1
96155.3
96094.5
96059.1
96041.2
96046.9
96067.1
96104.2
96159.9
96247.6
96355
96471.1
96590.9
96720.6
96829.2
96941.3
97056.8
97125.3
97206.7
97205.7
97205.7
97121
97058.5
96900.9
96713.5
96503.1
96225.2
95961.6
95632.1
95223.6
94793
94319.7
93794.4
93313.1
92982.3
92916.7
92874.9
92868.2
92966.2
93226.3
93637.9
93941.6
94436.5
95123.8
95474.2
93533.2
93529
93526.8
93525.8
93526.7
93529.4
93533.7
93540.3
93548.7
93559.8
93573.8
93590.7
93610.7
93633.5
93659.2
93688.7
93722.9
93761.4
93804.5
93852.6
93905.6
93962.9
94024.8
94091.6
94163.5
94241
94324.6
94414.8
94512.2
94616.9
94728.9
94847.6
94972.7
95102.4
95235
95371.7
95509.7
95646.4
95779.1
95914.6
96057.6
96202.9
96344.3
96484
96622.5
96762.2
96901.4
97038.1
97175.2
97311.3
97450.1
97589.2
97729.1
97869.8
98010.7
98151.6
98292.4
98433.3
98574.4
98715.3
98855.9
98995.8
99134.5
99271.6
99406.8
99539.2
99668
99792
99910.7
100024
100130
100227
100316
100397
100471
100537
100592
100638
100671
100694
100704
100702
100688
100662
100622
100570
100507
100431
100346
100250
100144
100029
99905.2
99773.6
99634.7
99489
99338
99180.8
99020
98856
98688
98518.1
98345.6
98171.4
97998.1
97824.2
97654.8
97489.8
97326.9
97172.5
97026
96886
96761.1
96649.8
96548.2
96463.8
96400.3
96346.2
96304.7
96286.4
96278
96272.8
96282
96305
96328.6
96350.7
96383.5
96416.2
96442.6
96466.1
96485.8
96506.5
96523.3
96528.3
96515.5
96499
96493.2
96497.8
96526.5
96575.9
96641.5
96720.9
96814.9
96924.1
97066.4
97225.2
97397.7
97574.2
97757.7
97927.5
98111
98276.7
98419.3
98554.9
98619
98674.3
98651.3
98633.2
98545.4
98404
98228.6
98001.5
97736.1
97429.8
97018.2
96579.8
96109.9
95508.1
94991.5
94603.3
94679.1
94309.4
94221.1
94232.1
94371.7
94686.6
94949.2
95224.3
95835.1
95976.5
94600.2
94593.9
94589.5
94585.8
94582.9
94580.3
94578.9
94579.1
94581.2
94585.6
94592
94600.4
94611.4
94625.7
94643.2
94664
94688.9
94717.2
94748.9
94784.6
94824.9
94869.9
94919.6
94973.8
95032.4
95096
95164.9
95240
95321.5
95410.1
95505.8
95608.4
95716.9
95829.9
95945.8
96067.6
96189.9
96305.2
96420
96538.7
96659
96776.5
96893.4
97007.7
97121.2
97234.7
97346.9
97457.3
97567
97676.2
97786.1
97896.2
98007
98118.1
98229
98339.5
98449.5
98559.5
98669.1
98778.5
98887.6
98995.9
99103.4
99209.4
99313.7
99415.6
99513.9
99607.8
99696.6
99780.5
99858.4
99927.1
99987
100039
100084
100122
100151
100172
100181
100180
100167
100143
100108
100062
100004
99933.7
99853.5
99762.4
99661.9
99552.3
99432.9
99306.9
99172.6
99031.8
98885.1
98732.4
98574.6
98413.2
98248.3
98080.8
97911.1
97739.1
97567.9
97395.4
97224.9
97057.5
96891.1
96735.2
96584.9
96440.1
96309
96186.9
96076.3
95985.8
95907.5
95840.1
95797.1
95773.4
95759.2
95766.5
95794.3
95827.9
95872.5
95934.4
96003.5
96073.3
96151.6
96237.8
96316.6
96395.4
96472.4
96549.1
96626.5
96693.7
96748.1
96799.9
96862.2
96933.4
97024.3
97138.2
97261.5
97401.9
97553
97721.2
97920.1
98131.6
98361.1
98595.5
98828.2
99060.5
99310.9
99528.2
99751
99935.5
100064
100166
100210
100238
100209
100124
99985
99810
99547.7
99258.8
98848.5
98396.4
97934.4
97271.7
96743.3
96260.5
96392.2
95842.8
95655.5
95565.3
95616.1
95808.4
95937.6
96076.4
96556.8
96559.5
95692.4
95683.3
95675.7
95667.7
95659.4
95651.9
95645.5
95639.6
95634.6
95630.7
95628
95627.3
95629.1
95634.1
95642.2
95652.9
95666.4
95683.1
95703.2
95727.5
95756.4
95789.4
95826.3
95867
95911.9
95961.4
96015.8
96075.2
96140.1
96211.3
96288.8
96372.9
96462.8
96557.4
96655.4
96756
96856.5
96953.5
97053.9
97154.4
97249.9
97342.5
97434.3
97526.2
97615.1
97702.9
97788.6
97872.1
97954.6
98036.3
98117.9
98199.4
98281.1
98362.6
98443.6
98523.9
98603.5
98682.5
98761.2
98839.4
98917
98994.1
99070.5
99145.2
99218.2
99290.1
99358.9
99422.6
99481.4
99535.9
99586.6
99628.8
99661
99685.2
99702.3
99713.6
99717.5
99712.7
99698.4
99674
99640.3
99595.6
99541
99475.3
99399.4
99312.8
99217
99111.3
98996.9
98874.8
98744.6
98608
98465.1
98316.1
98162.2
98003.4
97841.1
97675.3
97507.8
97337.7
97166.4
96994.9
96824.1
96654.6
96486.2
96324.8
96165.6
96015.2
95877.6
95745.1
95626.6
95523
95428.2
95354.3
95299.6
95255.1
95232.5
95234.8
95250.2
95284.3
95343.3
95413.9
95495.4
95596.3
95708.6
95825.9
95950.4
96087.7
96221.3
96351.7
96486
96621
96756.9
96884.9
97006.6
97127.9
97260.4
97398.8
97551.4
97725.3
97906.9
98104.8
98311.9
98541.1
98796.5
99060
99347.8
99632.9
99918
100212
100521
100793
101092
101317
101504
101646
101756
101830
101865
101835
101738
101613
101353
101081
100669
100209
99759.8
99058.1
98528.9
97931.2
98014.1
97419.3
97111.2
96920.4
96902.9
96973.3
97008.9
97049.8
97284.3
97200.8
96793.1
96781.2
96769.9
96757.1
96743.3
96729.7
96716.3
96702.4
96688.9
96676.3
96664.7
96654.8
96646.4
96639.7
96636.1
96635.6
96638.3
96644.4
96653.9
96666.8
96682.9
96702.4
96725.9
96753.8
96786.4
96822.9
96863.4
96907.7
96956.4
97010.1
97069.2
97134
97204.1
97278.7
97357
97437.1
97517.2
97597.3
97676.7
97754.5
97828.4
97898.5
97967.9
98034.3
98097.8
98160
98219.8
98276.1
98332.5
98387
98440.8
98494.1
98547.1
98599.6
98651.2
98702
98752
98801
98849.4
98897.3
98944.7
98991.1
99037.1
99081.8
99123.9
99165.2
99205.7
99240.8
99270
99295.4
99318.3
99335.2
99341.9
99340.2
99331.6
99317.2
99296.2
99267.5
99230.6
99184.7
99130.5
99066.4
98993.4
98910.7
98818.8
98718.1
98608.5
98490.5
98364.7
98231.9
98092.5
97947.1
97796.7
97640.4
97481.3
97317.6
97151.6
96983.1
96812.8
96641.9
96469.8
96299.5
96129.9
95963.5
95799.3
95641.7
95491.6
95348
95219.5
95099.8
94993.5
94905.6
94828.7
94771.6
94736
94715
94715.1
94740.9
94785.4
94848.3
94936.3
95041.3
95158.9
95298.3
95453
95614.9
95786
95970.5
96159.3
96340.3
96528.2
96723.9
96915.2
97101.6
97291.9
97480.6
97681
97887.1
98100.2
98331.1
98569.4
98820
99081.8
99372.2
99682.5
99997.9
100338
100666
101004
101357
101717
102049
102405
102656
102891
103067
103244
103360
103462
103487
103439
103372
103123
102854
102446
101993
101548
100844
100328
99736.3
99596.2
99039.7
98614.4
98332.1
98190.3
98193.7
98120.3
98161.1
98064.4
97888
97887
97873.1
97858.6
97841.2
97821
97799.3
97776.3
97752.6
97729.1
97706.6
97685.2
97664.5
97644.9
97627
97611.3
97598.7
97589.7
97584.1
97581.6
97582.1
97585.7
97592.8
97604.4
97620.2
97639.9
97663
97689.7
97719.8
97753.6
97791.4
97833.8
97880.3
97931.1
97985.8
98044.2
98104.7
98166.6
98229.8
98292.6
98350.5
98400.6
98445.8
98485.8
98525.9
98564.6
98602.5
98636.9
98669.3
98697.2
98724
98750.2
98775.7
98800.8
98825.2
98848.5
98870.9
98892.3
98912.9
98932.5
98951.4
98969.6
98986.9
99003.8
99019.9
99033.1
99044.6
99056.6
99065.1
99066.8
99064.3
99059.9
99051.4
99034.2
99008.6
98976.4
98938.4
98894.2
98842.9
98785
98718.9
98645.6
98564.2
98474.1
98376.7
98270.7
98157.7
98036.7
97908.9
97773.8
97632.6
97485.8
97333.8
97177.3
97016.4
96852.7
96686
96516.8
96347.1
96175.5
96004.5
95833.2
95664.1
95496.9
95333.4
95175.4
95022
94879.4
94744.8
94624.1
94516.1
94422.5
94348
94288.1
94248.3
94230.2
94230
94253.6
94302.5
94372.9
94464.1
94581
94718
94870.9
95047.2
95242.6
95446.6
95662.3
95892.6
96130.7
96364.1
96602.3
96856.2
97102.6
97345
97602.1
97860
98121.8
98391
98661.1
98944.7
99235.5
99538.1
99851.4
100206
100565
100931
101315
101678
102069
102473
102873
103263
103650
103913
104192
104402
104640
104803
104960
105046
105056
105046
104802
104556
104150
103726
103261
102620
102158
101734
101179
100719
100240
99866.8
99477
99381.8
99221.4
99266.5
98884
98604.1
98956.9
98940.9
98922.7
98900.4
98873.8
98843
98809.2
98773.9
98737.8
98702.1
98668
98635.1
98604.1
98575.3
98548.6
98524.4
98503
98484.9
98470.1
98458.9
98451.2
98447.2
98446.5
98448.8
98454.3
98463.4
98476.1
98492.3
98511.8
98534.9
98561.6
98591.6
98625
98661.4
98700.7
98741.7
98783.6
98825.7
98865.7
98901.7
98933.4
98962
98985.6
99003.4
99017.9
99027.6
99033.9
99038.7
99040.9
99041.8
99041.7
99040.7
99039.1
99036.5
99032.8
99028.4
99022.8
99016.3
99008.8
99000.7
98992
98981.5
98970.8
98960.1
98946.9
98931.1
98915.5
98897.8
98874.4
98846.7
98817
98783.8
98743.5
98696.1
98642.6
98583.3
98518.3
98446.5
98369.5
98285.9
98195.4
98098.7
97994.6
97884.1
97766.5
97642.7
97512.4
97376
97233.7
97086
96933.2
96776.3
96615.7
96451.6
96284.7
96116.5
95945.8
95775.9
95604.8
95434
95265.2
95098.5
94934.8
94774.9
94622.9
94476.3
94339.8
94215
94102
94004.2
93923.2
93860.6
93815.4
93792
93791
93810.4
93856.4
93927.7
94021.3
94139.3
94284.3
94451.4
94637.5
94848.7
95081.5
95325.6
95582
95856.5
96139.1
96422.5
96711.6
97015.7
97318
97614.7
97931.7
98259.9
98584.9
98907.9
99231.8
99561.4
99901
100253
100618
101031
101430
101844
102260
102655
103090
103530
103966
104394
104789
105065
105386
105631
105924
106138
106350
106499
106567
106583
106345
106132
105735
105363
104872
104334
103945
103567
102721
102304
101762
101333
100743
100521
100251
100222
99706
99309.6
99986.3
99965.9
99942.5
99914.6
99882.2
99844
99800.1
99752.4
99702.7
99652.5
99603.2
99555.8
99510.7
99468.3
99428.9
99392.7
99359.8
99330.1
99303.9
99281.2
99261.9
99245.9
99232.9
99222.9
99216.1
99212.2
99211.2
99213
99217.9
99225.9
99237
99250.9
99267.6
99286.9
99308.2
99330.5
99353.1
99374.7
99393.7
99409.3
99420.9
99428
99430.3
99427.8
99421
99410.1
99395.4
99377.9
99357.6
99335.2
99311.3
99285.7
99259
99231.7
99202.8
99173.1
99142.9
99111.3
99078.4
99045.3
99012.1
98976.3
98939.7
98904.1
98866.4
98826
98785.5
98743.1
98696.1
98645.6
98593.2
98537.4
98475.7
98408.2
98335.7
98257.4
98173.9
98084.6
97990.5
97891.6
97787.2
97677.8
97562.4
97441.4
97315.2
97182.7
97045.2
96901.7
96754.1
96601.3
96445.1
96285
96121.5
95955.5
95787.8
95619.3
95448.9
95279.1
95110.2
94941.4
94775.4
94611.9
94452.5
94297.7
94150.8
94011.2
93881.2
93765.1
93660.2
93571.9
93502.6
93451.2
93419.6
93411.2
93425.6
93463.4
93529.1
93621.1
93737
93879.5
94051.2
94246.3
94463
94706
94972
95253.8
95548.5
95862.9
96187.1
96515.4
96853.6
97202.5
97556.9
97906.6
98275.3
98664.1
99054.6
99429.2
99803.9
100175
100561
100956
101375
101832
102262
102715
103146
103578
104046
104503
104969
105418
105806
106102
106456
106737
107076
107335
107612
107819
107937
107954
107726
107533
107169
106847
106353
105915
105528
105016
104144
103710
103077
102538
101921
101603
101206
101067
100503
100009
100806
100784
100755
100719
100678
100632
100579
100522
100462
100401
100339
100279
100222
100167
100116
100069
100025
99985.8
99950
99917.9
99889.2
99863.7
99841.3
99821.8
99805.1
99790.8
99778.8
99769.3
99762.4
99758.3
99756.7
99757.8
99761.6
99767.8
99775.7
99784.4
99792.7
99799.3
99803.1
99803.3
99799.7
99791.1
99777.7
99759.4
99736.6
99709.4
99678.1
99643.5
99605.6
99565
99522.7
99478.3
99432.2
99385.4
99337.3
99287.5
99237.7
99187
99133.9
99080.7
99028
98972.8
98916.2
98860.7
98803.8