/*--------------------------------*- C++ -*----------------------------------*\
| =========                 |                                                 |
| \\      /  F ield         | OpenFOAM: The Open Source CFD Toolbox           |
|  \\    /   O peration     | Version:  dev                                   |
|   \\  /    A nd           | Web:      http://www.openfoam.org               |
|    \\/     M anipulation  |                                                 |
\*---------------------------------------------------------------------------*/
FoamFile
{
    version     2.0;
    format      ascii;
    class       surfaceScalarField;
    object      phi;
    location    "9.118";
}
// * * * * * * * * * * * * * * * * * * * * * * * * * * * * * * * * * * * * * //

dimensions      [1 0 -1 0 0 0 0];

internalField   nonuniform List<scalar> 
24170
(
1.99279e-06
3.45451e-06
8.56434e-07
2.70828e-06
2.93873e-07
2.11931e-06
3.54086e-09
1.81865e-06
-2.03648e-07
1.71176e-06
-2.16976e-07
1.48734e-06
-3.61984e-07
1.58649e-06
-2.07255e-07
1.24784e-06
-3.07249e-07
1.46217e-06
-3.47155e-08
1.04657e-06
-1.01867e-07
1.33438e-06
3.21475e-07
7.96248e-07
3.78433e-07
1.10399e-06
1.10931e-06
3.7589e-07
1.62591e-06
5.37275e-07
3.83329e-06
-1.23533e-06
5.17224e-06
-3.90268e-07
6.98023e-07
5.42161e-06
3.67266e-06
5.71352e-06
2.84637e-06
5.33353e-06
2.1311e-06
4.60398e-06
1.60208e-06
4.08585e-06
1.22525e-06
3.79117e-06
8.91001e-07
3.498e-06
7.81945e-07
3.32952e-06
6.23508e-07
3.00537e-06
5.55268e-07
3.07874e-06
6.58033e-07
2.45244e-06
6.24291e-07
2.81085e-06
9.5464e-07
1.86361e-06
1.02471e-06
2.356e-06
1.544e-06
1.12275e-06
1.70529e-06
1.56749e-06
2.59535e-06
-1.00674e-06
3.32935e-06
-7.99028e-08
-1.15628e-06
6.15545e-06
4.53344e-06
7.90647e-06
4.18961e-06
7.65197e-06
3.76919e-06
6.96209e-06
3.35221e-06
6.4021e-06
2.93938e-06
6.06476e-06
2.66585e-06
5.59561e-06
2.42243e-06
5.35805e-06
2.25758e-06
4.90686e-06
2.17534e-06
4.85695e-06
2.2939e-06
3.97117e-06
2.21656e-06
4.47394e-06
2.60285e-06
2.99533e-06
2.46832e-06
3.95003e-06
3.1474e-06
1.81848e-06
2.92231e-06
3.1016e-06
3.54023e-06
-3.90035e-07
3.77613e-06
8.52435e-07
-2.12397e-06
5.77984e-06
4.81282e-06
1.05214e-05
4.84597e-06
9.76733e-06
4.61199e-06
9.31926e-06
4.54025e-06
8.53745e-06
4.20866e-06
8.43358e-06
4.23472e-06
7.54494e-06
3.87555e-06
7.66734e-06
4.02342e-06
6.63476e-06
3.72109e-06
7.00598e-06
3.85068e-06
5.60577e-06
3.71628e-06
6.33197e-06
3.98011e-06
4.3673e-06
3.9019e-06
5.61345e-06
4.32887e-06
2.88395e-06
4.32805e-06
4.5343e-06
4.35858e-06
9.2652e-07
4.09595e-06
2.4031e-06
-1.17494e-06
4.27888e-06
5.04684e-06
1.34624e-05
5.3109e-06
1.18278e-05
4.98216e-06
1.19619e-05
5.14801e-06
1.06088e-05
4.79737e-06
1.10003e-05
5.04518e-06
9.44449e-06
4.655e-06
1.01759e-05
4.93566e-06
8.40104e-06
4.63206e-06
9.31028e-06
4.88361e-06
7.28258e-06
4.72291e-06
8.35757e-06
4.89251e-06
5.98835e-06
4.98721e-06
7.23209e-06
5.01882e-06
4.48328e-06
5.28034e-06
5.82467e-06
4.8768e-06
2.79765e-06
4.88573e-06
3.78907e-06
9.12135e-07
4.03762e-06
5.45063e-06
1.68516e-05
5.54643e-06
1.42424e-05
5.17807e-06
1.4823e-05
5.30378e-06
1.2903e-05
5.00041e-06
1.36926e-05
5.18056e-06
1.15953e-05
4.91888e-06
1.27249e-05
5.11435e-06
1.04312e-05
5.01057e-06
1.15759e-05
5.17212e-06
9.21667e-06
5.28082e-06
1.02676e-05
5.3161e-06
7.89581e-06
5.61005e-06
8.7905e-06
5.5259e-06
6.3359e-06
5.92624e-06
7.10191e-06
5.63028e-06
4.68327e-06
5.77434e-06
5.14485e-06
3.2536e-06
4.79481e-06
6.14521e-06
2.01907e-05
6.04886e-06
1.70282e-05
5.64568e-06
1.78869e-05
5.57699e-06
1.5561e-05
5.33526e-06
1.6487e-05
5.33804e-06
1.40867e-05
5.28282e-06
1.52259e-05
5.33462e-06
1.27608e-05
5.47127e-06
1.37546e-05
5.51982e-06
1.14149e-05
5.78253e-06
1.21692e-05
5.75351e-06
1.00069e-05
6.09829e-06
1.04327e-05
5.95648e-06
8.37822e-06
6.35322e-06
8.50549e-06
6.02569e-06
6.7205e-06
6.21853e-06
6.55952e-06
5.4968e-06
5.4694e-06
4.91448e-06
2.26163e-05
4.73203e-06
1.9238e-05
4.51724e-06
2.01019e-05
4.39741e-06
1.76279e-05
4.27847e-06
1.85258e-05
4.18316e-06
1.60561e-05
4.20363e-06
1.70453e-05
4.14293e-06
1.46123e-05
4.28322e-06
1.53599e-05
4.24554e-06
1.3144e-05
4.46559e-06
1.35814e-05
4.42746e-06
1.16142e-05
4.68045e-06
1.16814e-05
4.59724e-06
9.89659e-06
4.8093e-06
9.65422e-06
4.59494e-06
8.22698e-06
4.7051e-06
7.6652e-06
6.90242e-06
4.44005e-06
5.82077e-06
2.54795e-05
5.51194e-06
2.18202e-05
5.29825e-06
2.25506e-05
5.08159e-06
2.00256e-05
4.9866e-06
2.07648e-05
4.82678e-06
1.8314e-05
4.9178e-06
1.90093e-05
4.78342e-06
1.67523e-05
4.98995e-06
1.71048e-05
4.89649e-06
1.51305e-05
5.15199e-06
1.51517e-05
5.11651e-06
1.34071e-05
5.33362e-06
1.3146e-05
5.25468e-06
1.15842e-05
5.37748e-06
1.10573e-05
5.26223e-06
9.79234e-06
5.27571e-06
9.01811e-06
8.26289e-06
5.20337e-06
6.5394e-06
2.85239e-05
6.24363e-06
2.46244e-05
6.12573e-06
2.51176e-05
5.85095e-06
2.27028e-05
5.77451e-06
2.31905e-05
5.50682e-06
2.0891e-05
5.61696e-06
2.11535e-05
5.43129e-06
1.91466e-05
5.6466e-06
1.90355e-05
5.5638e-06
1.72991e-05
5.83157e-06
1.68944e-05
5.805e-06
1.53703e-05
6.0133e-06
1.47923e-05
5.94079e-06
1.34312e-05
6.07535e-06
1.26093e-05
5.97573e-06
1.14947e-05
5.92338e-06
1.05853e-05
9.72753e-06
5.8917e-06
7.91906e-06
3.19282e-05
7.33424e-06
2.79125e-05
7.13704e-06
2.79381e-05
6.72802e-06
2.56997e-05
6.70828e-06
2.57306e-05
6.36025e-06
2.37258e-05
6.48079e-06
2.34533e-05
6.23152e-06
2.17747e-05
6.40986e-06
2.11673e-05
6.3217e-06
1.96366e-05
6.54132e-06
1.88431e-05
6.52895e-06
1.7475e-05
6.70602e-06
1.66214e-05
6.69439e-06
1.53626e-05
6.77239e-06
1.436e-05
6.73285e-06
1.32731e-05
6.6703e-06
1.22964e-05
1.14143e-05
6.54784e-06
8.94833e-06
3.54789e-05
8.29507e-06
3.13726e-05
8.13694e-06
3.08131e-05
7.68127e-06
2.88402e-05
7.65146e-06
2.83776e-05
7.27141e-06
2.6693e-05
7.28948e-06
2.59573e-05
7.02856e-06
2.45171e-05
7.11237e-06
2.34948e-05
7.04135e-06
2.2057e-05
7.19907e-06
2.09534e-05
7.22327e-06
1.96433e-05
7.39718e-06
1.85526e-05
7.42435e-06
1.73514e-05
7.45858e-06
1.62516e-05
7.42716e-06
1.51388e-05
7.35135e-06
1.41189e-05
1.31584e-05
7.27052e-06
1.06478e-05
3.8822e-05
9.83225e-06
3.49326e-05
9.48855e-06
3.38232e-05
8.87066e-06
3.2095e-05
8.69318e-06
3.11347e-05
8.34371e-06
2.95944e-05
8.29302e-06
2.85068e-05
8.11851e-06
2.71511e-05
8.14015e-06
2.58701e-05
8.08099e-06
2.44554e-05
8.12883e-06
2.31732e-05
8.11296e-06
2.18565e-05
8.1551e-06
2.06252e-05
8.14584e-06
1.93916e-05
8.13697e-06
1.82062e-05
8.07909e-06
1.70566e-05
7.98762e-06
1.59872e-05
1.49621e-05
7.88208e-06
1.23169e-05
4.24506e-05
1.15469e-05
3.81346e-05
1.11272e-05
3.66224e-05
1.04479e-05
3.51342e-05
1.00412e-05
3.38635e-05
9.6064e-06
3.2334e-05
9.37801e-06
3.10094e-05
9.20967e-06
2.95656e-05
9.14346e-06
2.81413e-05
9.06074e-06
2.67005e-05
9.01751e-06
2.53265e-05
8.95014e-06
2.39749e-05
8.8868e-06
2.26706e-05
8.81248e-06
2.13772e-05
8.726e-06
2.01303e-05
8.64174e-06
1.89055e-05
8.54429e-06
1.77771e-05
1.67058e-05
8.42603e-06
1.41218e-05
4.49766e-05
1.31788e-05
4.08132e-05
1.24907e-05
3.9034e-05
1.17848e-05
3.75698e-05
1.13295e-05
3.60465e-05
1.08823e-05
3.45192e-05
1.05776e-05
3.3058e-05
1.03509e-05
3.15357e-05
1.01749e-05
3.00536e-05
1.00069e-05
2.85928e-05
9.86014e-06
2.71758e-05
9.7189e-06
2.57853e-05
9.58708e-06
2.44316e-05
9.45281e-06
2.30963e-05
9.31937e-06
2.1801e-05
9.16579e-06
2.05486e-05
9.01339e-06
1.93714e-05
1.82563e-05
8.85952e-06
1.68959e-05
4.71634e-05
1.57015e-05
4.2514e-05
1.47813e-05
4.05061e-05
1.39599e-05
3.89976e-05
1.32637e-05
3.74064e-05
1.26112e-05
3.59e-05
1.21367e-05
3.43229e-05
1.17209e-05
3.27911e-05
1.13549e-05
3.13029e-05
1.1035e-05
2.98339e-05
1.07514e-05
2.84078e-05
1.04816e-05
2.70172e-05
1.02222e-05
2.56609e-05
9.97052e-06
2.43172e-05
9.73818e-06
2.30018e-05
9.50997e-06
2.17389e-05
9.2862e-06
2.05502e-05
1.94202e-05
9.0707e-06
1.94202e-05
4.69285e-05
1.82696e-05
4.22694e-05
1.71647e-05
4.03303e-05
1.61419e-05
3.88703e-05
1.51572e-05
3.73822e-05
1.43266e-05
3.58668e-05
1.36325e-05
3.42981e-05
1.3018e-05
3.28107e-05
1.24488e-05
3.13937e-05
1.19434e-05
2.99749e-05
1.151e-05
2.85811e-05
1.11062e-05
2.72449e-05
1.07274e-05
2.59401e-05
1.03694e-05
2.4645e-05
1.00434e-05
2.33667e-05
9.73447e-06
2.21427e-05
9.44304e-06
2.09905e-05
1.98625e-05
9.20093e-06
1.96447e-05
4.45603e-05
1.81668e-05
4.03396e-05
1.69187e-05
3.83514e-05
1.59205e-05
3.68474e-05
1.50703e-05
3.54236e-05
1.42881e-05
3.40492e-05
1.35345e-05
3.26584e-05
1.2824e-05
3.13136e-05
1.21279e-05
3.00601e-05
1.14827e-05
2.87702e-05
1.09295e-05
2.74567e-05
1.04352e-05
2.62094e-05
9.98947e-06
2.49973e-05
9.58754e-06
2.37975e-05
9.22158e-06
2.26155e-05
8.87479e-06
2.14899e-05
8.53993e-06
2.04394e-05
1.9382e-05
8.24133e-06
1.71159e-05
4.07922e-05
1.60463e-05
3.68947e-05
1.50992e-05
3.5007e-05
1.43064e-05
3.35838e-05
1.35892e-05
3.2314e-05
1.2882e-05
3.1147e-05
1.21652e-05
2.99735e-05
1.14499e-05
2.88296e-05
1.0758e-05
2.77527e-05
1.00682e-05
2.66556e-05
9.42663e-06
2.54831e-05
8.84053e-06
2.43551e-05
8.30545e-06
2.32627e-05
7.82055e-06
2.21804e-05
7.37406e-06
2.11168e-05
6.95114e-06
2.01128e-05
6.56884e-06
1.91646e-05
1.82123e-05
6.21515e-06
1.56986e-05
3.62223e-05
1.4951e-05
3.26901e-05
1.42385e-05
3.09653e-05
1.34598e-05
2.98292e-05
1.26912e-05
2.87649e-05
1.19426e-05
2.77845e-05
1.11825e-05
2.68145e-05
1.04321e-05
2.58556e-05
9.74801e-06
2.49145e-05
9.09743e-06
2.3973e-05
8.4595e-06
2.29658e-05
7.87142e-06
2.19687e-05
7.32895e-06
2.10106e-05
6.81562e-06
2.00712e-05
6.32097e-06
1.91497e-05
5.84468e-06
1.82824e-05
5.41239e-06
1.74447e-05
1.6613e-05
5.00194e-06
1.34366e-05
3.1072e-05
1.29638e-05
2.81545e-05
1.23617e-05
2.67336e-05
1.16921e-05
2.58567e-05
1.10579e-05
2.49438e-05
1.0427e-05
2.41456e-05
9.83848e-06
2.33099e-05
9.25124e-06
2.2524e-05
8.70713e-06
2.17221e-05
8.18863e-06
2.09329e-05
7.64249e-06
2.01146e-05
7.10539e-06
1.92761e-05
6.61559e-06
1.84448e-05
6.13929e-06
1.76541e-05
5.6779e-06
1.68741e-05
5.25224e-06
1.61272e-05
4.85413e-06
1.54122e-05
1.47107e-05
4.46786e-06
1.20608e-05
2.64148e-05
1.16222e-05
2.3759e-05
1.10573e-05
2.26101e-05
1.05832e-05
2.18051e-05
1.00782e-05
2.10803e-05
9.56534e-06
2.04474e-05
8.99149e-06
1.98302e-05
8.4174e-06
1.91976e-05
7.86495e-06
1.85269e-05
7.35825e-06
1.78511e-05
6.87497e-06
1.71614e-05
6.39125e-06
1.64751e-05
5.9213e-06
1.57834e-05
5.46739e-06
1.51274e-05
5.03118e-06
1.44785e-05
4.61949e-06
1.3853e-05
4.23129e-06
1.32567e-05
1.26715e-05
3.86446e-06
1.08658e-05
2.19287e-05
1.05233e-05
1.95626e-05
1.01558e-05
1.85583e-05
9.77733e-06
1.79024e-05
9.36687e-06
1.7343e-05
8.92675e-06
1.68744e-05
8.47293e-06
1.64041e-05
7.98498e-06
1.59376e-05
7.45782e-06
1.54381e-05
6.94127e-06
1.48867e-05
6.44661e-06
1.43123e-05
5.9661e-06
1.37482e-05
5.49904e-06
1.31758e-05
5.06618e-06
1.2625e-05
4.64524e-06
1.2099e-05
4.23697e-06
1.15932e-05
3.85649e-06
1.11033e-05
1.06306e-05
3.49055e-06
9.9335e-06
1.75096e-05
9.68004e-06
1.56349e-05
9.28114e-06
1.48772e-05
8.82948e-06
1.43894e-05
8.38118e-06
1.39362e-05
7.95605e-06
1.35558e-05
7.55623e-06
1.31705e-05
7.15621e-06
1.28174e-05
6.75689e-06
1.24342e-05
6.33662e-06
1.20211e-05
5.8963e-06
1.15852e-05
5.46231e-06
1.11355e-05
5.03251e-06
1.068e-05
4.61366e-06
1.02411e-05
4.21854e-06
9.8125e-06
3.84985e-06
9.40259e-06
3.50882e-06
9.00495e-06
8.63086e-06
3.18693e-06
8.83956e-06
1.3633e-05
8.62212e-06
1.20496e-05
8.38781e-06
1.1389e-05
8.10118e-06
1.10481e-05
7.77217e-06
1.07296e-05
7.42573e-06
1.04602e-05
7.03879e-06
1.02103e-05
6.61573e-06
9.99122e-06
6.1954e-06
9.70593e-06
5.7853e-06
9.38503e-06
5.38393e-06
9.04476e-06
4.98923e-06
8.69495e-06
4.59863e-06
8.34347e-06
4.20306e-06
8.01849e-06
3.81439e-06
7.69269e-06
3.45173e-06
7.36691e-06
3.11203e-06
7.05469e-06
6.75871e-06
2.80228e-06
7.75389e-06
9.9677e-06
7.77652e-06
8.59078e-06
7.60045e-06
8.19371e-06
7.33595e-06
8.02217e-06
7.00505e-06
7.85069e-06
6.64101e-06
7.69534e-06
6.25443e-06
7.55052e-06
5.87655e-06
7.40667e-06
5.49551e-06
7.21092e-06
5.12355e-06
6.97105e-06
4.75664e-06
6.71873e-06
4.37973e-06
6.47433e-06
3.99459e-06
6.22815e-06
3.60926e-06
6.00191e-06
3.22415e-06
5.77429e-06
2.84351e-06
5.54247e-06
2.47995e-06
5.31086e-06
5.09835e-06
2.1292e-06
6.97049e-06
6.58198e-06
6.97755e-06
5.49759e-06
6.8508e-06
5.28961e-06
6.60924e-06
5.30128e-06
6.25934e-06
5.30659e-06
5.85927e-06
5.27203e-06
5.43206e-06
5.22554e-06
5.00409e-06
5.156e-06
4.57421e-06
5.03894e-06
4.13826e-06
4.88519e-06
3.69505e-06
4.72255e-06
3.25188e-06
4.56278e-06
2.80689e-06
4.40404e-06
2.3691e-06
4.25687e-06
1.94814e-06
4.09944e-06
1.5387e-06
3.94263e-06
1.16276e-06
3.76297e-06
3.62594e-06
7.96501e-07
6.37223e-06
3.55999e-06
6.34011e-06
2.76865e-06
6.02841e-06
2.88664e-06
5.57725e-06
3.09792e-06
5.05184e-06
3.23718e-06
4.49573e-06
3.29224e-06
3.95521e-06
3.29155e-06
3.44141e-06
3.25951e-06
2.93882e-06
3.19768e-06
2.43642e-06
3.11257e-06
1.93186e-06
3.02218e-06
1.4385e-06
2.92282e-06
9.72831e-07
2.80896e-06
5.26462e-07
2.71679e-06
1.03785e-07
2.61118e-06
-2.87446e-07
2.49898e-06
-6.88058e-07
2.40304e-06
2.29407e-06
-1.04139e-06
5.5128e-06
9.95018e-07
4.97187e-06
8.43211e-07
4.25788e-06
1.17214e-06
3.53152e-06
1.44608e-06
2.84489e-06
1.59602e-06
2.21857e-06
1.64159e-06
1.65483e-06
1.63052e-06
1.14172e-06
1.60202e-06
6.62667e-07
1.56202e-06
2.00879e-07
1.5177e-06
-2.26547e-07
1.45327e-06
-6.3713e-07
1.39988e-06
-1.04928e-06
1.35235e-06
-1.43126e-06
1.29739e-06
-1.7958e-06
1.24316e-06
-2.14326e-06
1.18363e-06
-2.46477e-06
1.13089e-06
1.08332e-06
-2.77848e-06
3.58615e-06
2.25084e-06
1.28536e-06
6.37094e-07
1.82202e-07
-1.81986e-07
-5.10059e-07
-8.17456e-07
-1.11363e-06
-1.40055e-06
-1.69578e-06
-1.98605e-06
-2.26391e-06
-2.535e-06
-2.79774e-06
-3.057e-06
-3.30703e-06
-3.54563e-06
-1.63633e-07
-1.57158e-06
-5.75772e-07
-1.43063e-06
-1.05402e-06
-1.39635e-06
-1.43014e-06
-1.49772e-06
-1.67767e-06
-1.62639e-06
-1.79962e-06
-1.75176e-06
-1.83846e-06
-1.8361e-06
-1.81455e-06
-1.89976e-06
-1.75005e-06
-1.94235e-06
-1.6295e-06
-1.99888e-06
-1.44943e-06
-2.05669e-06
-1.21756e-06
-2.10574e-06
-9.59169e-07
-2.12971e-06
-6.68311e-07
-2.15975e-06
-3.57482e-07
-2.17703e-06
-7.08162e-08
-2.1515e-06
1.80102e-07
-2.11485e-06
4.23128e-07
-2.10558e-06
6.46044e-07
-2.08476e-06
8.03996e-07
-2.01934e-06
9.19437e-07
-1.97443e-06
1.02069e-06
-1.9566e-06
1.03207e-06
-1.86276e-06
9.68082e-07
-1.78084e-06
7.83052e-07
-1.64915e-06
4.98438e-07
-1.53801e-06
4.3149e-08
-1.35345e-06
-5.27688e-07
-1.2174e-06
-1.28486e-06
-1.01634e-06
-2.25545e-06
-7.85068e-07
-3.38295e-06
-6.07163e-07
-4.83751e-06
-2.76818e-07
-6.30758e-06
-2.28337e-07
-7.33581e-06
-5.94395e-07
-7.98387e-06
-9.35947e-07
-8.42163e-06
-1.15905e-06
-8.63955e-06
-1.38132e-06
-8.84737e-06
-1.37053e-06
-8.95968e-06
-1.44267e-06
-8.75101e-06
-1.7225e-06
-8.35874e-06
-1.87093e-06
-7.81876e-06
-1.99572e-06
-7.09543e-06
-2.15633e-06
-6.15651e-06
-2.3536e-06
-5.138e-06
-2.37583e-06
-4.52119e-06
-1.93273e-06
-3.74572e-06
-2.03648e-06
-2.79296e-06
-2.1253e-06
-2.41238e-06
-1.49e-06
-2.61219e-06
-8.54478e-07
-2.89282e-06
-7.46165e-07
-2.7726e-06
-1.11285e-06
-2.18557e-06
-1.50823e-06
-1.42986e-06
-1.63487e-06
-8.71741e-07
-1.40731e-06
-8.16611e-07
-8.63769e-07
-1.46496e-06
-1.28316e-07
-2.70502e-06
4.89632e-07
-4.02845e-06
5.92905e-07
-5.19629e-06
4.64337e-07
-6.14405e-06
2.74443e-07
-6.89278e-06
1.06285e-07
-7.45313e-06
-5.22155e-08
-7.85571e-06
-1.79482e-07
-8.11666e-06
-2.90032e-07
-8.29102e-06
-3.44204e-07
-8.38345e-06
-3.92427e-07
-8.3945e-06
-4.37107e-07
-8.34915e-06
-4.53745e-07
-8.25944e-06
-4.54834e-07
-8.13227e-06
-4.44531e-07
-7.96692e-06
-4.29734e-07
-7.79713e-06
-3.75219e-07
-7.63843e-06
-2.98736e-07
-7.45664e-06
-2.49673e-07
-7.26582e-06
-1.78761e-07
-7.06995e-06
-9.60713e-08
-6.86296e-06
-1.13947e-08
-6.64352e-06
8.00554e-08
-6.39381e-06
1.61935e-07
-6.10307e-06
2.42131e-07
-5.81617e-06
3.75416e-07
-5.51362e-06
4.95557e-07
-5.15715e-06
5.83659e-07
-4.77625e-06
7.08408e-07
-4.34632e-06
8.14152e-07
-3.8517e-06
9.08841e-07
-3.32426e-06
1.03969e-06
-2.79648e-06
1.20258e-06
-2.22367e-06
1.31786e-06
-1.59764e-06
1.42243e-06
-9.33021e-07
1.53649e-06
-2.35323e-07
1.65e-06
4.79361e-07
1.77054e-06
1.21314e-06
1.8781e-06
1.95664e-06
1.98594e-06
2.72154e-06
2.06611e-06
3.48801e-06
2.15078e-06
4.22788e-06
2.25182e-06
4.98166e-06
2.29312e-06
5.71127e-06
2.35024e-06
6.40681e-06
2.39055e-06
7.01838e-06
2.45477e-06
7.55865e-06
2.48802e-06
8.02208e-06
2.51809e-06
8.39405e-06
2.55107e-06
8.54569e-06
2.6966e-06
8.43486e-06
2.87399e-06
8.07913e-06
3.02465e-06
7.59283e-06
3.06281e-06
7.08266e-06
2.99166e-06
6.59496e-06
2.85609e-06
6.24444e-06
2.59615e-06
6.0798e-06
2.29432e-06
6.03255e-06
2.06699e-06
5.88717e-06
2.04223e-06
5.62166e-06
2.03189e-06
5.3204e-06
1.93791e-06
5.00157e-06
1.81416e-06
4.86735e-06
1.46735e-06
5.08892e-06
9.40051e-07
5.43469e-06
6.60185e-07
5.74757e-06
5.1148e-07
5.84936e-06
5.48826e-07
5.72048e-06
6.15599e-07
5.54526e-06
4.98496e-07
5.71368e-06
2.18593e-09
6.33245e-06
-6.14142e-07
7.53448e-06
-1.36974e-06
9.4516e-06
-2.23317e-06
1.16667e-05
-2.74889e-06
1.34509e-05
-2.68446e-06
1.46506e-05
-2.41898e-06
1.5538e-05
-2.35694e-06
1.63224e-05
-2.65793e-06
1.67296e-05
-2.69812e-06
1.67431e-05
-2.51406e-06
1.69412e-05
-2.94484e-06
1.71245e-05
-3.29011e-06
1.63692e-05
-2.65378e-06
1.5773e-05
-3.16101e-06
1.67004e-05
-5.33133e-06
1.6087e-05
-4.35424e-06
1.4434e-05
-3.57099e-06
1.48357e-05
-6.29467e-06
1.63764e-05
-8.14552e-06
1.67717e-05
-7.62316e-06
1.78355e-05
-8.79168e-06
1.86901e-05
-9.08351e-06
2.03194e-05
-1.03285e-05
2.1676e-05
-1.05379e-05
2.28899e-05
-1.08554e-05
2.36822e-05
-1.094e-05
2.39517e-05
-1.08935e-05
2.3434e-05
-1.05461e-05
2.24322e-05
-1.04267e-05
2.13381e-05
-1.06237e-05
2.06749e-05
-1.14134e-05
2.04051e-05
-1.22001e-05
2.04149e-05
-1.31535e-05
2.03753e-05
-1.37531e-05
1.98407e-05
-1.40871e-05
1.90196e-05
-1.40272e-05
1.64276e-05
-1.21549e-05
1.35537e-05
-1.17995e-05
9.35737e-06
-1.03856e-05
4.82086e-06
-1.06332e-05
6.13243e-06
-1.74501e-05
6.98762e-06
-1.65266e-05
4.57621e-06
-1.20509e-05
2.04959e-06
-1.10397e-05
-5.66093e-07
-1.09904e-05
-2.67283e-06
-1.13872e-05
-5.81586e-06
-9.58752e-06
-8.45757e-06
-9.37993e-06
-1.09819e-05
-8.92015e-06
-1.39316e-05
-7.86977e-06
-1.6961e-05
-7.03169e-06
-1.91547e-05
-7.28589e-06
-7.54185e-06
-1.99739e-05
-7.65738e-08
-3.1783e-06
-2.45561e-07
-3.03917e-06
-4.93049e-07
-2.98712e-06
-6.99445e-07
-3.13613e-06
-7.93087e-07
-3.36223e-06
-7.76314e-07
-3.58541e-06
-7.10193e-07
-3.71765e-06
-6.35253e-07
-3.78958e-06
-5.23776e-07
-3.86963e-06
-3.77388e-07
-3.95938e-06
-1.9752e-07
-4.047e-06
2.9046e-08
-4.13428e-06
2.68188e-07
-4.16734e-06
5.01358e-07
-4.19136e-06
7.47536e-07
-4.22385e-06
9.91335e-07
-4.20332e-06
1.1988e-06
-4.14391e-06
1.36238e-06
-4.10461e-06
1.51387e-06
-4.08578e-06
1.65669e-06
-4.02711e-06
1.77264e-06
-3.96782e-06
1.88247e-06
-3.95059e-06
1.99743e-06
-3.86496e-06
2.02691e-06
-3.70167e-06
2.0286e-06
-3.53542e-06
1.92135e-06
-3.29942e-06
1.73873e-06
-3.03072e-06
1.44307e-06
-2.75681e-06
1.04346e-06
-2.42423e-06
5.22516e-07
-2.03527e-06
-1.24657e-07
-1.69942e-06
-8.21759e-07
-1.29124e-06
-1.7308e-06
-1.00707e-06
-3.10738e-06
-8.7074e-07
-4.75688e-06
-9.48456e-07
-6.22774e-06
-1.4117e-06
-7.17027e-06
-2.13646e-06
-7.57019e-06
-2.59505e-06
-7.52736e-06
-3.09013e-06
-7.39721e-06
-3.4582e-06
-7.13282e-06
-3.70457e-06
-6.58825e-06
-4.02495e-06
-5.77469e-06
-4.44286e-06
-4.78179e-06
-4.84135e-06
-3.77113e-06
-4.7762e-06
-2.62446e-06
-4.38827e-06
-1.52528e-06
-4.27986e-06
-1.02004e-06
-3.68883e-06
-6.73123e-07
-2.90662e-06
-4.95989e-07
-2.07172e-06
-5.57098e-07
-1.70457e-06
-1.27848e-06
-1.33825e-06
-2.84144e-06
-8.20218e-07
-5.15399e-06
-1.84934e-07
-7.60302e-06
1.95349e-07
-9.53469e-06
2.41752e-07
-1.08283e-05
3.62127e-07
-1.15849e-05
4.75347e-07
-1.21546e-05
4.28621e-07
-1.25921e-05
2.05849e-07
-1.29005e-05
-8.08637e-08
-1.31078e-05
-3.17502e-07
-1.31822e-05
-5.78446e-07
-1.31715e-05
-7.58579e-07
-1.30866e-05
-9.12833e-07
-1.29148e-05
-1.02136e-06
-1.26867e-05
-1.093e-06
-1.24375e-05
-1.1232e-06
-1.21528e-05
-1.13697e-06
-1.18507e-05
-1.1142e-06
-1.15418e-05
-1.06618e-06
-1.12172e-05
-1.01693e-06
-1.08809e-05
-9.17493e-07
-1.05236e-05
-7.99026e-07
-1.02244e-05
-6.22347e-07
-9.91167e-06
-4.88161e-07
-9.59416e-06
-3.25197e-07
-9.2694e-06
-1.54609e-07
-8.9344e-06
2.79173e-08
-8.57385e-06
1.93492e-07
-8.20166e-06
3.77558e-07
-7.80968e-06
6.15496e-07
-7.36231e-06
8.1292e-07
-6.90721e-06
1.03336e-06
-6.38782e-06
1.23911e-06
-5.82979e-06
1.45577e-06
-5.24089e-06
1.67161e-06
-4.62881e-06
1.93967e-06
-3.98095e-06
2.23252e-06
-3.27327e-06
2.44617e-06
-2.54976e-06
2.69272e-06
-1.7804e-06
2.91521e-06
-9.89345e-07
3.15914e-06
-1.91152e-07
3.41418e-06
6.28486e-07
3.63246e-06
1.457e-06
3.85463e-06
2.27573e-06
4.05699e-06
3.1056e-06
4.22865e-06
3.90065e-06
4.45282e-06
4.66283e-06
4.58975e-06
5.38998e-06
4.72721e-06
6.06573e-06
4.83178e-06
6.66101e-06
4.9627e-06
7.14191e-06
5.06773e-06
7.52106e-06
5.13226e-06
7.71836e-06
5.25724e-06
7.69253e-06
5.52048e-06
7.44004e-06
5.81141e-06
7.02956e-06
6.01466e-06
6.55295e-06
6.02376e-06
6.12715e-06
5.7849e-06
5.84978e-06
5.35621e-06
5.57948e-06
4.94666e-06
5.50975e-06
4.3438e-06
5.61784e-06
3.85991e-06
5.72123e-06
3.74251e-06
5.71012e-06
3.74373e-06
5.58451e-06
3.64476e-06
5.34691e-06
3.47569e-06
5.20716e-06
2.81445e-06
5.49022e-06
1.72294e-06
6.14878e-06
1.05042e-06
6.81659e-06
7.58899e-07
6.83491e-06
1.12224e-06
6.37289e-06
1.35121e-06
5.85308e-06
1.03536e-06
5.85357e-06
-3.34116e-08
6.43925e-06
-1.25679e-06
7.67106e-06
-2.74298e-06
9.86529e-06
-4.56924e-06
1.28782e-05
-5.79285e-06
1.58391e-05
-5.73197e-06
1.79705e-05
-5.04484e-06
1.94956e-05
-4.9229e-06
2.03041e-05
-5.43315e-06
1.98727e-05
-5.32934e-06
1.89661e-05
-5.01662e-06
1.81731e-05
-5.48297e-06
1.65699e-05
-5.07554e-06
1.48036e-05
-4.34702e-06
1.44963e-05
-6.74434e-06
1.50287e-05
-1.04144e-05
1.52262e-05
-9.6569e-06
1.38259e-05
-7.68847e-06
1.38728e-05
-1.25164e-05
1.59367e-05
-1.65491e-05
1.69306e-05
-1.58467e-05
1.85646e-05
-1.82917e-05
1.97505e-05
-1.87566e-05
2.19758e-05
-2.11801e-05
2.37982e-05
-2.14478e-05
2.56212e-05
-2.20793e-05
2.73495e-05
-2.25374e-05
2.86515e-05
-2.2787e-05
2.90942e-05
-2.23383e-05
2.8605e-05
-2.19281e-05
2.71114e-05
-2.16797e-05
2.49451e-05
-2.22699e-05
2.27843e-05
-2.30805e-05
2.13361e-05
-2.50616e-05
2.09927e-05
-2.77172e-05
2.09471e-05
-3.05585e-05
1.94692e-05
-2.97852e-05
1.60262e-05
-2.58749e-05
1.20018e-05
-2.41177e-05
7.64272e-06
-2.24055e-05
4.36918e-06
-2.52449e-05
5.99321e-06
-3.6729e-05
8.58174e-06
-3.65778e-05
7.76663e-06
-2.76551e-05
4.99667e-06
-2.34329e-05
2.09083e-06
-2.3515e-05
6.28919e-07
-2.54388e-05
-2.72126e-06
-2.19921e-05
-5.94911e-06
-2.08941e-05
-8.78977e-06
-1.9805e-05
-1.23234e-05
-1.76714e-05
-1.61116e-05
-1.55056e-05
-1.82225e-05
-1.70392e-05
-1.58442e-05
-1.9708e-05
-1.82978e-07
-4.62307e-06
-3.65766e-07
-4.52489e-06
-4.75492e-07
-4.55116e-06
-4.71761e-07
-4.79983e-06
-3.54716e-07
-5.12372e-06
-2.3468e-07
-5.34986e-06
-1.44154e-07
-5.45627e-06
-1.68922e-08
-5.57021e-06
1.35921e-07
-5.67884e-06
3.13316e-07
-5.79025e-06
4.94668e-07
-5.88747e-06
6.74635e-07
-5.97948e-06
8.44076e-07
-6.01855e-06
9.65257e-07
-6.01991e-06
1.02912e-06
-6.02741e-06
1.06758e-06
-6.01902e-06
1.09277e-06
-5.9906e-06
1.08898e-06
-5.96092e-06
1.08801e-06
-5.97095e-06
1.13727e-06
-5.9836e-06
1.20869e-06
-5.95936e-06
1.28462e-06
-5.94677e-06
1.37579e-06
-5.87052e-06
1.4278e-06
-5.66742e-06
1.47295e-06
-5.49691e-06
1.48235e-06
-5.21806e-06
1.48632e-06
-4.93352e-06
1.384e-06
-4.5428e-06
1.19779e-06
-4.1106e-06
9.73076e-07
-3.64677e-06
6.72866e-07
-3.18592e-06
2.41475e-07
-2.59596e-06
-2.93285e-07
-2.15564e-06
-9.39429e-07
-1.85504e-06
-1.88937e-06
-1.58592e-06
-3.07146e-06
-1.80504e-06
-4.4669e-06
-2.31185e-06
-5.59007e-06
-2.99042e-06
-6.22936e-06
-3.9703e-06
-6.49319e-06
-4.78736e-06
-6.32853e-06
-5.31351e-06
-5.73558e-06
-5.90881e-06
-5.03467e-06
-6.57664e-06
-4.23344e-06
-6.91378e-06
-3.07248e-06
-6.84886e-06
-2.52191e-06
-5.7764e-06
-2.63826e-06
-5.05461e-06
-3.44228e-06
-3.82769e-06
-4.71897e-06
-2.62107e-06
-6.06381e-06
-1.70914e-06
-7.72831e-06
-9.54028e-07
-9.46407e-06
-4.38926e-07
-1.10129e-05
-1.38453e-07
-1.21504e-05
1.0201e-07
-1.30252e-05
2.47638e-07
-1.37428e-05
1.7815e-07
-1.42006e-05
7.4807e-08
-1.43241e-05
-1.03592e-07
-1.42494e-05
-3.10907e-07
-1.40639e-05
-6.16343e-07
-1.38323e-05
-9.16254e-07
-1.35253e-05
-1.20163e-06
-1.32221e-05
-1.42984e-06
-1.28706e-05
-1.63359e-06
-1.24946e-05
-1.78346e-06
-1.20924e-05
-1.89153e-06
-1.16795e-05
-1.94373e-06
-1.12868e-05
-1.92369e-06
-1.08747e-05
-1.92201e-06
-1.04857e-05
-1.83994e-06
-1.00864e-05
-1.76184e-06
-9.72666e-06
-1.62883e-06
-9.40175e-06
-1.4439e-06
-9.06247e-06
-1.2837e-06
-8.72597e-06
-1.04259e-06
-8.4031e-06
-8.25214e-07
-8.06659e-06
-5.99998e-07
-7.73607e-06
-3.39959e-07
-7.37725e-06
-9.40944e-08
-7.02211e-06
1.73882e-07
-6.65156e-06
4.47136e-07
-6.26615e-06
7.82185e-07
-5.84551e-06
1.06098e-06
-5.41418e-06
1.39239e-06
-4.92212e-06
1.66782e-06
-4.39188e-06
1.97674e-06
-3.8305e-06
2.29337e-06
-3.25955e-06
2.68591e-06
-2.65218e-06
3.08022e-06
-2.00252e-06
3.38781e-06
-1.31584e-06
3.72833e-06
-5.85781e-07
4.03489e-06
1.87847e-07
4.35932e-06
9.44641e-07
4.74621e-06
1.71477e-06
5.05674e-06
2.54017e-06
5.32307e-06
3.34361e-06
5.63893e-06
4.15554e-06
5.89024e-06
4.91689e-06
6.23661e-06
5.6514e-06
6.4546e-06
6.30634e-06
6.73729e-06
6.92675e-06
6.93452e-06
7.55285e-06
7.12729e-06
7.99714e-06
7.40511e-06
8.16542e-06
7.66714e-06
8.07919e-06
7.97329e-06
8.03092e-06
8.16444e-06
7.87706e-06
8.47414e-06
7.58142e-06
8.6802e-06
7.21588e-06
8.63868e-06
6.83633e-06
8.3002e-06
6.4404e-06
7.74178e-06
6.10606e-06
7.14828e-06
5.92962e-06
6.3134e-06
5.85354e-06
5.57566e-06
5.85919e-06
5.18283e-06
5.96302e-06
4.97702e-06
6.06889e-06
4.76802e-06
6.02122e-06
4.5605e-06
5.68367e-06
3.88713e-06
5.53331e-06
2.45694e-06
6.24266e-06
1.08653e-06
7.77861e-06
2.85514e-07
8.58181e-06
1.05117e-06
7.69075e-06
2.12992e-06
6.54879e-06
1.68533e-06
6.12381e-06
3.08815e-08
6.48268e-06
-1.84835e-06
7.31717e-06
-3.83536e-06
9.0356e-06
-6.56658e-06
1.18223e-05
-8.78387e-06
1.49124e-05
-8.76037e-06
1.7799e-05
-7.76461e-06
2.03086e-05
-7.43813e-06
2.13953e-05
-7.61203e-06
2.10569e-05
-7.8248e-06
2.01804e-05
-7.68874e-06
1.88264e-05
-7.65019e-06
1.66876e-05
-6.52619e-06
1.43925e-05
-5.61611e-06
1.33427e-05
-9.68962e-06
1.30314e-05
-1.43267e-05
1.50179e-05
-1.59396e-05
1.52458e-05
-1.40298e-05
1.397e-05
-1.80587e-05
1.47549e-05
-2.31235e-05
1.65811e-05
-2.36496e-05
1.88612e-05
-2.69947e-05
2.0395e-05
-2.76584e-05
2.28426e-05
-3.11116e-05
2.45992e-05
-3.12277e-05
2.62361e-05
-3.23326e-05
2.77195e-05
-3.27171e-05
2.94637e-05
-3.33417e-05
3.0609e-05
-3.33138e-05
3.09358e-05
-3.31448e-05
3.04601e-05
-3.27698e-05
2.91059e-05
-3.34779e-05
2.68585e-05
-3.43635e-05
2.41462e-05
-3.58434e-05
2.21865e-05
-3.86981e-05
2.17555e-05
-4.45556e-05
2.00905e-05
-4.51477e-05
1.688e-05
-4.04805e-05
1.34301e-05
-3.81325e-05
1.15738e-05
-3.56747e-05
8.85775e-06
-3.83068e-05
8.19556e-06
-5.09103e-05
8.66674e-06
-5.33844e-05
9.00092e-06
-4.42439e-05
6.59022e-06
-3.63885e-05
2.53933e-06
-3.50843e-05
1.95205e-06
-3.91357e-05
-3.28461e-07
-3.54846e-05
-3.57311e-06
-3.34241e-05
-6.76793e-06
-3.12488e-05
-1.0507e-05
-2.85543e-05
-1.49544e-05
-2.50079e-05
-1.6161e-05
-2.90107e-05
-2.48097e-05
-1.79497e-05
-2.37998e-07
-5.96145e-06
-4.62414e-07
-5.89461e-06
-5.0905e-07
-6.07493e-06
-4.46091e-07
-6.42063e-06
-3.35439e-07
-6.78414e-06
-2.95089e-07
-6.93752e-06
-2.29846e-07
-7.07118e-06
-1.59073e-07
-7.19855e-06
-5.27873e-08
-7.34649e-06
5.85793e-08
-7.47507e-06
1.5401e-07
-7.57756e-06
2.23286e-07
-7.66575e-06
2.63474e-07
-7.70356e-06
2.70013e-07
-7.70236e-06
2.10907e-07
-7.67573e-06
1.00222e-07
-7.65286e-06
-1.9742e-08
-7.65398e-06
-9.97982e-08
-7.68519e-06
-1.371e-07
-7.73866e-06
-1.36826e-07
-7.77398e-06
-1.08638e-07
-7.75304e-06
-6.57771e-08
-7.73489e-06
-3.22593e-08
-7.64118e-06
3.22273e-08
-7.46369e-06
1.0672e-07
-7.30709e-06
2.212e-07
-7.08139e-06
3.0944e-07
-6.76379e-06
3.7162e-07
-6.35529e-06
4.25305e-07
-5.92267e-06
4.56027e-07
-5.44084e-06
3.13817e-07
-4.79086e-06
1.7648e-07
-4.16751e-06
-1.00879e-07
-3.56665e-06
-5.17447e-07
-3.08373e-06
-1.02807e-06
-2.65829e-06
-1.76287e-06
-2.58753e-06
-2.80148e-06
-2.72749e-06
-3.98421e-06
-3.22133e-06
-5.2015e-06
-4.25311e-06
-6.02606e-06
-5.41918e-06
-6.05952e-06
-6.45745e-06
-5.8689e-06
-7.41171e-06
-5.77021e-06
-7.89546e-06
-5.64961e-06
-7.6058e-06
-6.0927e-06
-7.06503e-06
-7.16339e-06
-5.6989e-06
-8.55775e-06
-4.69366e-06
-9.71208e-06
-3.68756e-06
-1.09424e-05
-2.39601e-06
-1.18238e-05
-1.72778e-06
-1.27707e-05
-8.9443e-07
-1.35317e-05
-5.48084e-07
-1.42118e-05
-2.91276e-07
-1.45582e-05
-3.43054e-07
-1.46936e-05
-3.53402e-07
-1.46683e-05
-5.43639e-07
-1.45298e-05
-7.29896e-07
-1.42147e-05
-1.04708e-06
-1.38124e-05
-1.31601e-06
-1.3361e-05
-1.64212e-06
-1.28795e-05
-1.95275e-06
-1.23875e-05
-2.22771e-06
-1.188e-05
-2.44721e-06
-1.13805e-05
-2.62224e-06
-1.08466e-05
-2.78152e-06
-1.03749e-05
-2.80756e-06
-9.88842e-06
-2.84789e-06
-9.41213e-06
-2.79244e-06
-8.99098e-06
-2.70637e-06
-8.58343e-06
-2.57915e-06
-8.23055e-06
-2.40944e-06
-7.84406e-06
-2.26917e-06
-7.48206e-06
-2.01371e-06
-7.12509e-06
-1.79815e-06
-6.74498e-06
-1.52461e-06
-6.40799e-06
-1.20169e-06
-6.02191e-06
-9.55372e-07
-5.66572e-06
-5.89605e-07
-5.32025e-06
-2.48257e-07
-4.97537e-06
1.11131e-07
-4.58682e-06
4.38358e-07
-4.18769e-06
8.68797e-07
-3.77201e-06
1.24348e-06
-3.33216e-06
1.6674e-06
-2.85828e-06
2.02961e-06
-2.31379e-06
2.3866e-06
-1.76356e-06
2.82218e-06
-1.19314e-06
3.32305e-06
-5.78795e-07
3.79711e-06
6.01944e-08
4.20447e-06
7.05243e-07
4.65394e-06
1.35347e-06
5.07204e-06
2.03666e-06
5.45909e-06
2.73083e-06
5.92674e-06
3.46892e-06
6.26894e-06
4.19179e-06
6.62695e-06
4.92591e-06
6.98625e-06
5.6752e-06
7.2734e-06
6.41602e-06
7.65582e-06
7.15367e-06
7.89717e-06
7.83484e-06
8.26806e-06
8.45349e-06
8.52889e-06
8.95739e-06
8.86565e-06
9.37397e-06
9.2426e-06
9.60382e-06
9.74776e-06
9.70116e-06
1.02292e-05
9.66913e-06
1.05041e-05
9.57299e-06
1.07964e-05
9.47607e-06
1.09918e-05
9.24309e-06
1.10026e-05
8.91898e-06
1.05805e-05
8.71678e-06
9.86762e-06
8.5281e-06
9.26678e-06
8.13319e-06
8.40565e-06
7.28341e-06
7.73532e-06
6.51298e-06
7.12136e-06
6.17611e-06
6.43825e-06
6.20505e-06
5.70624e-06
6.35781e-06
5.16463e-06
6.1721e-06