/*--------------------------------*- C++ -*----------------------------------*\
| =========                 |                                                 |
| \\      /  F ield         | OpenFOAM: The Open Source CFD Toolbox           |
|  \\    /   O peration     | Version:  dev                                   |
|   \\  /    A nd           | Web:      http://www.openfoam.org               |
|    \\/     M anipulation  |                                                 |
\*---------------------------------------------------------------------------*/
FoamFile
{
    version     2.0;
    format      ascii;
    class       surfaceScalarField;
    object      phi_0;
    location    "9.118";
}
// * * * * * * * * * * * * * * * * * * * * * * * * * * * * * * * * * * * * * //

dimensions      [1 0 -1 0 0 0 0];

internalField   nonuniform List<scalar> 
24170
(
1.85561e-06
3.01091e-06
6.46207e-07
2.17803e-06
-2.99866e-08
1.64987e-06
-3.87664e-07
1.32372e-06
-7.00253e-07
1.27589e-06
-8.13182e-07
1.06522e-06
-1.05664e-06
1.18801e-06
-1.01829e-06
8.93366e-07
-1.22712e-06
1.12347e-06
-1.05668e-06
7.27914e-07
-1.22919e-06
1.04551e-06
-9.12428e-07
5.34292e-07
-9.708e-07
8.74475e-07
-3.44506e-07
1.63541e-07
-4.987e-10
4.06595e-07
2.23276e-06
-1.51947e-06
3.28768e-06
-3.85235e-07
1.07803e-06
2.85361e-06
3.57075e-06
4.80016e-06
2.6833e-06
4.22987e-06
1.88543e-06
3.59552e-06
1.25023e-06
3.09432e-06
7.65702e-07
2.88019e-06
3.12492e-07
2.63234e-06
2.73456e-08
2.57086e-06
-1.77403e-07
2.18902e-06
-4.04453e-07
2.41626e-06
-3.81906e-07
1.7601e-06
-5.88514e-07
2.27147e-06
-3.14684e-07
1.26072e-06
-4.43638e-07
1.95705e-06
5.16327e-08
5.94846e-07
-1.99034e-07
1.52938e-06
4.52744e-07
-1.34044e-06
1.12104e-06
-2.97753e-07
-9.87174e-07
3.88802e-06
4.41302e-06
6.44934e-06
4.01576e-06
5.90083e-06
3.51399e-06
5.34966e-06
2.99857e-06
4.84483e-06
2.47036e-06
4.62754e-06
2.08441e-06
4.22472e-06
1.72775e-06
4.12226e-06
1.41561e-06
3.67904e-06
1.2073e-06
3.78761e-06
1.20378e-06
2.90131e-06
9.74862e-07
3.61934e-06
1.25153e-06
2.06216e-06
9.72486e-07
3.2904e-06
1.48488e-06
1.08208e-06
1.14518e-06
2.83786e-06
1.60663e-06
-8.90505e-07
1.44353e-06
7.04503e-07
-1.72276e-06
2.97629e-06
4.64948e-06
8.48462e-06
4.63808e-06
7.29144e-06
4.30634e-06
7.0495e-06
4.14255e-06
6.34449e-06
3.68331e-06
6.41798e-06
3.60307e-06
5.60625e-06
3.10454e-06
5.92296e-06
3.12939e-06
4.92061e-06
2.68221e-06
5.49867e-06
2.66836e-06
4.13625e-06
2.41093e-06
5.08706e-06
2.51615e-06
3.11874e-06
2.31502e-06
4.63242e-06
2.5606e-06
1.92195e-06
2.4845e-06
3.96844e-06
2.30667e-06
2.778e-07
1.73139e-06
2.20924e-06
-5.0688e-07
1.42917e-06
4.86747e-06
1.08068e-05
5.07072e-06
8.57085e-06
4.62279e-06
8.97975e-06
4.68492e-06
7.72187e-06
4.19178e-06
8.35116e-06
4.3195e-06
6.8869e-06
3.7777e-06
7.87222e-06
3.9238e-06
6.15146e-06
3.46591e-06
7.31967e-06
3.5784e-06
5.35542e-06
3.28154e-06
6.68824e-06
3.29059e-06
4.37901e-06
3.2541e-06
5.89842e-06
3.11874e-06
3.24174e-06
3.29965e-06
4.92642e-06
2.67317e-06
1.98415e-06
2.51131e-06
3.39042e-06
1.38782e-06
1.62367e-06
5.26349e-06
1.35237e-05
5.27886e-06
1.01423e-05
4.78163e-06
1.10582e-05
4.77892e-06
9.26813e-06
4.32275e-06
1.03461e-05
4.3559e-06
8.3712e-06
3.93859e-06
9.79707e-06
3.97388e-06
7.60275e-06
3.71764e-06
9.03881e-06
3.71758e-06
6.79424e-06
3.68708e-06
8.12323e-06
3.55501e-06
5.88072e-06
3.7241e-06
7.05308e-06
3.47396e-06
4.76799e-06
3.79169e-06
5.83926e-06
3.32144e-06
3.62509e-06
3.35648e-06
4.47091e-06
3.27254e-06
2.56043e-06
5.96883e-06
1.60228e-05
5.7678e-06
1.20215e-05
5.22934e-06
1.3262e-05
5.01158e-06
1.1116e-05
4.61039e-06
1.23711e-05
4.4436e-06
1.01417e-05
4.22675e-06
1.16075e-05
4.09504e-06
9.30715e-06
4.07025e-06
1.06152e-05
3.93855e-06
8.45408e-06
4.05148e-06
9.50379e-06
3.85117e-06
7.53789e-06
4.06471e-06
8.25116e-06
3.76266e-06
6.43233e-06
4.06493e-06
6.85483e-06
3.59911e-06
5.35023e-06
3.73558e-06
5.53811e-06
4.98465e-06
3.18374e-06
4.78856e-06
1.78487e-05
4.51855e-06
1.35363e-05
4.20238e-06
1.48099e-05
3.96527e-06
1.25599e-05
3.72627e-06
1.38129e-05
3.49828e-06
1.15574e-05
3.39488e-06
1.28931e-05
3.18966e-06
1.06797e-05
3.20695e-06
1.17534e-05
3.03242e-06
9.76605e-06
3.13972e-06
1.0511e-05
2.97656e-06
8.78903e-06
3.12983e-06
9.15502e-06
2.93951e-06
7.64373e-06
3.07978e-06
7.70651e-06
2.79032e-06
6.58816e-06
2.88045e-06
6.35725e-06
6.00596e-06
2.7325e-06
5.65944e-06
2.0055e-05
5.25286e-06
1.53125e-05
4.92485e-06
1.64877e-05
4.57123e-06
1.42414e-05
4.34145e-06
1.53615e-05
4.0268e-06
1.31801e-05
3.97825e-06
1.42401e-05
3.68002e-06
1.22661e-05
3.75178e-06
1.29545e-05
3.5033e-06
1.1271e-05
3.63388e-06
1.16116e-05
3.46231e-06
1.01661e-05
3.56801e-06
1.02201e-05
3.37543e-06
8.97052e-06
3.43192e-06
8.75572e-06
3.2546e-06
7.82292e-06
3.2541e-06
7.37355e-06
6.9653e-06
3.27293e-06
6.37371e-06
2.23778e-05
5.94695e-06
1.72096e-05
5.69708e-06
1.81754e-05
5.2597e-06
1.61037e-05
5.03195e-06
1.69969e-05
4.58552e-06
1.5032e-05
4.53688e-06
1.56799e-05
4.16791e-06
1.40234e-05
4.22609e-06
1.42679e-05
3.97376e-06
1.28822e-05
4.09869e-06
1.28195e-05
3.92915e-06
1.16441e-05
4.01721e-06
1.14051e-05
3.83245e-06
1.03932e-05
3.89569e-06
9.899e-06
3.74779e-06
9.13089e-06
3.69362e-06
8.54622e-06
8.00863e-06
3.73135e-06
7.73164e-06
2.4934e-05
6.98613e-06
1.94766e-05
6.63942e-06
2.00011e-05
6.04751e-06
1.81729e-05
5.86065e-06
1.86383e-05
5.31313e-06
1.70408e-05
5.25264e-06
1.71849e-05
4.79898e-06
1.59264e-05
4.79367e-06
1.57071e-05
4.52061e-06
1.45818e-05
4.57768e-06
1.41653e-05
4.41425e-06
1.31906e-05
4.46343e-06
1.27068e-05
4.34913e-06
1.18262e-05
4.35249e-06
1.11801e-05
4.27525e-06
1.04509e-05
4.21884e-06
9.80697e-06
9.23703e-06
4.15991e-06
8.71932e-06
2.74592e-05
7.89682e-06
2.1783e-05
7.57314e-06
2.17634e-05
6.91412e-06
2.02746e-05
6.68908e-06
2.02891e-05
6.08929e-06
1.90801e-05
5.90016e-06
1.88047e-05
5.42197e-06
1.78459e-05
5.29934e-06
1.72616e-05
5.03183e-06
1.62794e-05
5.00935e-06
1.56018e-05
4.87438e-06
1.47271e-05
4.91494e-06
1.40433e-05
4.83974e-06
1.32516e-05
4.80415e-06
1.25366e-05
4.74523e-06
1.1797e-05
4.68175e-06
1.11256e-05
1.04839e-05
4.65827e-06
1.03876e-05
2.96653e-05
9.39506e-06
2.40753e-05
8.86387e-06
2.35625e-05
8.02342e-06
2.23932e-05
7.62207e-06
2.19646e-05
7.03702e-06
2.09599e-05
6.75386e-06
2.03891e-05
6.34812e-06
1.95711e-05
6.14411e-06
1.87895e-05
5.87499e-06
1.78817e-05
5.72822e-06
1.70813e-05
5.54537e-06
1.6242e-05
5.44744e-06
1.54616e-05
5.33693e-06
1.46681e-05
5.26449e-06
1.38967e-05
5.18563e-06
1.31419e-05
5.1147e-06
1.244e-05
1.17505e-05
5.06786e-06
1.19573e-05
3.19617e-05
1.10415e-05
2.58983e-05
1.04212e-05
2.50842e-05
9.50853e-06
2.42289e-05
8.86061e-06
2.35508e-05
8.17836e-06
2.26142e-05
7.69284e-06
2.18761e-05
7.27759e-06
2.1022e-05
6.96944e-06
2.01614e-05
6.66532e-06
1.92783e-05
6.42172e-06
1.84399e-05
6.18662e-06
1.76084e-05
5.98834e-06
1.67991e-05
5.82047e-06
1.59794e-05
5.68046e-06
1.51793e-05
5.586e-06
1.4375e-05
5.51824e-06
1.36388e-05
1.29295e-05
5.46206e-06
1.37556e-05
3.32859e-05
1.26285e-05
2.72536e-05
1.17234e-05
2.62446e-05
1.07825e-05
2.54689e-05
1.00816e-05
2.45961e-05
9.37455e-06
2.37241e-05
8.79867e-06
2.29162e-05
8.31152e-06
2.20343e-05
7.88508e-06
2.11732e-05
7.48972e-06
2.03175e-05
7.14272e-06
1.94833e-05
6.83773e-06
1.86537e-05
6.58044e-06
1.78349e-05
6.36279e-06
1.7008e-05
6.18792e-06
1.61921e-05
6.03328e-06
1.53904e-05
5.91879e-06
1.46319e-05
1.39056e-05
5.8355e-06
1.6462e-05
3.43341e-05
1.51309e-05
2.77728e-05
1.40078e-05
2.66251e-05
1.29574e-05
2.58562e-05
1.20071e-05
2.49707e-05
1.10821e-05
2.41724e-05
1.03355e-05
2.32908e-05
9.65803e-06
2.24402e-05
9.04693e-06
2.16136e-05
8.50762e-06
2.07856e-05
8.03555e-06
1.99777e-05
7.6149e-06
1.91808e-05
7.24515e-06
1.83902e-05
6.92705e-06
1.75827e-05
6.67029e-06
1.67733e-05
6.4582e-06
1.5986e-05
6.28686e-06
1.52404e-05
1.4522e-05
6.15559e-06
1.90379e-05
3.32342e-05
1.7726e-05
2.68398e-05
1.64214e-05
2.57949e-05
1.51796e-05
2.50916e-05
1.39522e-05
2.43324e-05
1.28717e-05
2.35388e-05
1.19251e-05
2.2681e-05
1.10687e-05
2.18897e-05
1.02779e-05
2.11478e-05
9.57811e-06
2.03814e-05
8.98263e-06
1.96172e-05
8.45653e-06
1.88857e-05
7.9979e-06
1.81573e-05
7.6029e-06
1.74094e-05
7.27906e-06
1.66489e-05
7.01047e-06
1.59127e-05
6.79273e-06
1.52166e-05
1.45122e-05
6.65371e-06
1.94087e-05
3.0961e-05
1.77627e-05
2.50682e-05
1.63657e-05
2.39096e-05
1.52032e-05
2.31298e-05
1.41677e-05
2.24115e-05
1.31925e-05
2.17314e-05
1.22446e-05
2.10234e-05
1.13521e-05
2.03471e-05
1.04967e-05
1.97423e-05
9.71776e-06
1.90795e-05
9.05764e-06
1.83731e-05
8.49123e-06
1.77103e-05
8.01025e-06
1.70565e-05
7.60775e-06
1.63884e-05
7.27247e-06
1.57113e-05
6.98704e-06
1.50629e-05
6.74068e-06
1.44598e-05
1.38198e-05
6.55242e-06
1.69311e-05
2.76779e-05
1.58165e-05
2.24185e-05
1.47839e-05
2.1313e-05
1.38759e-05
2.05587e-05
1.3025e-05
1.99367e-05
1.21841e-05
1.94021e-05
1.1342e-05
1.88486e-05
1.05139e-05
1.83138e-05
9.72908e-06
1.78297e-05
8.96958e-06
1.73074e-05
8.28049e-06
1.66935e-05
7.67289e-06
1.6106e-05
7.14318e-06
1.55319e-05
6.68818e-06
1.4945e-05
6.29442e-06
1.43534e-05
5.94647e-06
1.37969e-05
5.65848e-06
1.32688e-05
1.27101e-05
5.4147e-06
1.56353e-05
2.42251e-05
1.48028e-05
1.94966e-05
1.40178e-05
1.84575e-05
1.31545e-05
1.79097e-05
1.22972e-05
1.74107e-05
1.14647e-05
1.69827e-05
1.06346e-05
1.65555e-05
9.82879e-06
1.61301e-05
9.10284e-06
1.57113e-05
8.42992e-06
1.528e-05
7.79009e-06
1.4771e-05
7.21826e-06
1.42576e-05
6.71015e-06
1.37656e-05
6.25032e-06
1.3272e-05
5.82754e-06
1.27771e-05
5.44029e-06
1.23148e-05
5.10991e-06
1.18589e-05
1.13869e-05
4.81178e-06
1.34118e-05
2.04767e-05
1.28516e-05
1.65027e-05
1.21904e-05
1.56497e-05
1.14668e-05
1.52678e-05
1.07825e-05
1.48325e-05
1.01051e-05
1.45049e-05
9.47991e-06
1.41341e-05
8.86868e-06
1.38054e-05
8.31112e-06
1.34523e-05
7.79279e-06
1.31043e-05
7.26721e-06
1.27187e-05
6.76818e-06
1.23006e-05
6.33013e-06
1.18757e-05
5.92069e-06
1.14761e-05
5.54144e-06
1.10706e-05
5.21032e-06
1.06798e-05
4.91596e-06
1.03027e-05
9.92025e-06
4.64146e-06
1.20006e-05
1.71636e-05
1.15313e-05
1.36937e-05
1.09292e-05
1.3035e-05
1.04209e-05
1.26429e-05
9.88486e-06
1.23173e-05
9.34663e-06
1.20773e-05
8.75536e-06
1.18489e-05
8.17536e-06
1.15997e-05
7.62796e-06
1.13081e-05
7.13734e-06
1.10047e-05
6.68576e-06
1.06815e-05
6.24917e-06
1.03529e-05
5.83893e-06
1.00076e-05
5.45797e-06
9.68536e-06
5.10667e-06
9.35706e-06
4.78848e-06
9.03769e-06
4.50096e-06
8.73277e-06
8.42276e-06
4.24079e-06
1.08213e-05
1.41339e-05
1.04423e-05
1.10902e-05
1.00415e-05
1.05008e-05
9.63474e-06
1.01834e-05
9.20348e-06
9.94897e-06
8.75043e-06
9.80021e-06
8.29311e-06
9.6472e-06
7.81117e-06
9.49548e-06
7.30173e-06
9.30853e-06
6.81468e-06
9.06503e-06
6.3605e-06
8.79503e-06
5.93263e-06
8.52868e-06
5.53081e-06
8.24551e-06
5.17315e-06
7.97305e-06
4.83692e-06
7.71519e-06
4.52126e-06
7.46614e-06
4.2387e-06
7.22064e-06
6.97918e-06
3.97535e-06
9.89206e-06
1.11159e-05
9.59001e-06
8.70797e-06
9.16093e-06
8.28251e-06
8.69275e-06
8.06043e-06
8.23839e-06
7.86546e-06
7.8125e-06
7.74281e-06
7.41837e-06
7.61378e-06
7.03099e-06
7.51479e-06
6.65315e-06
7.38316e-06
6.26463e-06
7.21875e-06
5.86729e-06
7.02927e-06
5.48792e-06
6.82015e-06
5.12345e-06
6.59971e-06
4.77841e-06
6.38772e-06
4.4653e-06
6.17744e-06
4.18507e-06
5.97675e-06
3.9366e-06
5.7793e-06
5.59426e-06
3.71027e-06
8.78386e-06
8.47163e-06
8.53394e-06
6.55571e-06
8.27992e-06
6.16067e-06
7.98021e-06
6.02891e-06
7.64548e-06
5.91347e-06
7.29945e-06
5.84702e-06
6.92028e-06
5.79754e-06
6.51331e-06
5.77617e-06
6.11829e-06
5.68614e-06
5.74225e-06
5.55991e-06
5.38475e-06
5.41292e-06
5.04309e-06
5.25267e-06
4.71431e-06
5.08658e-06
4.38866e-06
4.94046e-06
4.07698e-06
4.78666e-06
3.79642e-06
4.62586e-06
3.54167e-06
4.473e-06
4.32641e-06
3.31876e-06
7.72656e-06
6.05869e-06
7.70228e-06
4.43427e-06
7.49974e-06
4.23612e-06
7.21986e-06
4.21988e-06
6.88378e-06
4.19926e-06
6.52268e-06
4.19581e-06
6.1475e-06
4.19998e-06
5.78861e-06
4.20363e-06
5.43324e-06
4.15457e-06
5.09392e-06
4.06146e-06
4.76721e-06
3.95492e-06
4.4385e-06
3.85327e-06
4.10993e-06
3.74632e-06
3.78884e-06
3.65397e-06
3.47473e-06
3.55509e-06
3.17092e-06
3.44647e-06
2.88457e-06
3.33857e-06
3.23765e-06
2.61397e-06
6.95087e-06
3.87397e-06
6.90921e-06
2.56179e-06
6.75515e-06
2.48981e-06
6.49763e-06
2.61092e-06
6.14349e-06
2.72039e-06
5.74717e-06
2.79133e-06
5.33239e-06
2.84737e-06
4.92364e-06
2.88058e-06
4.51903e-06
2.86639e-06
4.11466e-06
2.81585e-06
3.71043e-06
2.75539e-06
3.3144e-06
2.69504e-06
2.92386e-06
2.63398e-06
2.54734e-06
2.58031e-06
2.19335e-06
2.51279e-06
1.85941e-06
2.43824e-06
1.55156e-06
2.35853e-06
2.29443e-06
1.26062e-06
6.3453e-06
1.87632e-06
6.27037e-06
9.31584e-07
5.93309e-06
1.13199e-06
5.47077e-06
1.4059e-06
4.94541e-06
1.60686e-06
4.40078e-06
1.72637e-06
3.87777e-06
1.78947e-06
3.38669e-06
1.82136e-06
2.91194e-06
1.82393e-06
2.44321e-06
1.80339e-06
1.97906e-06
1.77674e-06
1.53306e-06
1.73969e-06
1.12159e-06
1.68708e-06
7.33485e-07
1.65495e-06
3.7075e-07
1.60835e-06
3.01636e-08
1.55861e-06
-2.86328e-07
1.50253e-06
1.45506e-06
-5.71838e-07
5.47913e-06
2.20522e-07
4.91411e-06
-2.06398e-08
4.19185e-06
3.44064e-07
3.46759e-06
6.43016e-07
2.79057e-06
8.20425e-07
2.18061e-06
8.96391e-07
1.63774e-06
9.16187e-07
1.1492e-06
9.18988e-07
6.99072e-07
9.10309e-07
2.70822e-07
8.97584e-07
-1.17438e-07
8.63352e-07
-4.82327e-07
8.3983e-07
-8.44594e-07
8.22433e-07
-1.17241e-06
7.9652e-07
-1.47903e-06
7.70873e-07
-1.76166e-06
7.40202e-07
-2.02593e-06
7.09382e-07
6.90748e-07
-2.2761e-06
3.5828e-06
2.2491e-06
1.28875e-06
6.43627e-07
1.93451e-07
-1.61608e-07
-4.76439e-07
-7.66336e-07
-1.04058e-06
-1.30058e-06
-1.56492e-06
-1.81943e-06
-2.05647e-06
-2.2827e-06
-2.49684e-06
-2.70321e-06
-2.90206e-06
-3.08416e-06
-7.38315e-08
-1.00068e-06
-3.69333e-07
-8.51362e-07
-7.23641e-07
-8.14155e-07
-9.85203e-07
-9.07761e-07
-1.12929e-06
-1.02651e-06
-1.15767e-06
-1.14404e-06
-1.10795e-06
-1.22457e-06
-9.96644e-07
-1.28804e-06
-8.48247e-07
-1.32682e-06
-6.46348e-07
-1.38193e-06
-3.8725e-07
-1.43965e-06
-7.84477e-08
-1.48917e-06
2.54998e-07
-1.51444e-06
6.22649e-07
-1.5491e-06
1.01186e-06
-1.57035e-06
1.38077e-06
-1.55054e-06
1.71969e-06
-1.52198e-06
2.05563e-06
-1.51966e-06
2.37504e-06
-1.50288e-06
2.63252e-06
-1.44277e-06
2.84959e-06
-1.40427e-06
3.05595e-06
-1.39117e-06
3.17174e-06
-1.30097e-06
3.21231e-06
-1.22389e-06
3.13636e-06
-1.10115e-06
2.95775e-06
-9.97245e-07
2.61279e-06
-8.21814e-07
2.14973e-06
-6.94211e-07
1.49869e-06
-4.994e-07
6.47184e-07
-2.82312e-07
-3.73348e-07
-1.04235e-07
-1.70149e-06
2.08289e-07
-3.04992e-06
2.48041e-07
-3.97478e-06
-1.33715e-07
-4.53387e-06
-4.72756e-07
-4.86258e-06
-7.09845e-07
-4.967e-06
-9.39001e-07
-5.06909e-06
-9.292e-07
-5.08501e-06
-1.00056e-06
-4.79508e-06
-1.2859e-06
-4.33543e-06
-1.43717e-06
-3.74012e-06
-1.55941e-06
-2.96439e-06
-1.72439e-06
-1.97539e-06
-1.92982e-06
-9.24223e-07
-1.9652e-06
-2.67308e-07
-1.54729e-06
5.54043e-07
-1.67779e-06
1.52944e-06
-1.80318e-06
1.91001e-06
-1.19365e-06
1.73768e-06
-5.92842e-07
1.54318e-06
-5.4138e-07
1.73144e-06
-9.25677e-07
2.32865e-06
-1.31691e-06
3.0768e-06
-1.44804e-06
3.64467e-06
-1.26278e-06
3.68354e-06
-7.5234e-07
2.97992e-06
5.00619e-11
1.75452e-06
5.68481e-07
4.57338e-07
6.4821e-07
-7.07244e-07
4.98349e-07
-1.67546e-06
2.87241e-07
-2.45806e-06
8.85898e-08
-3.06613e-06
-9.94279e-08
-3.53303e-06
-2.54097e-07
-3.87402e-06
-3.93475e-07
-4.1447e-06
-4.76141e-07
-4.34949e-06
-5.53558e-07
-4.48857e-06
-6.29294e-07
-4.58698e-06
-6.7683e-07
-4.65649e-06
-7.08893e-07
-4.70371e-06
-7.29743e-07
-4.7273e-06
-7.46138e-07
-4.76053e-06
-7.22116e-07
-4.81838e-06
-6.75191e-07
-4.86372e-06
-6.56885e-07
-4.9096e-06
-6.15478e-07
-4.95817e-06
-5.61428e-07
-5.00086e-06
-5.04774e-07
-5.03457e-06
-4.4004e-07
-5.03831e-06
-3.84814e-07
-4.99936e-06
-3.30812e-07
-4.95451e-06
-2.21796e-07
-4.88535e-06
-1.16548e-07
-4.7725e-06
-2.92833e-08
-4.6217e-06
7.40294e-08
-4.39651e-06
1.49961e-07
-4.0862e-06
2.22277e-07
-3.7198e-06
3.30417e-07
-3.33329e-06
4.75888e-07
-2.88408e-06
5.77574e-07
-2.35554e-06
6.6145e-07
-1.76529e-06
7.57578e-07
-1.12582e-06
8.56926e-07
-4.53441e-07
9.62224e-07
2.52666e-07
1.0548e-06
9.79866e-07
1.14064e-06
1.73826e-06
1.20202e-06
2.50542e-06
1.26627e-06
3.2437e-06
1.35063e-06
3.99988e-06
1.36806e-06
4.71928e-06
1.41423e-06
5.40006e-06
1.44067e-06
5.9888e-06
1.49847e-06
6.50121e-06
1.52423e-06
6.92585e-06
1.54956e-06
7.25275e-06
1.57649e-06
7.3586e-06
1.71673e-06
7.1994e-06
1.89072e-06
6.79631e-06
2.03637e-06
6.26992e-06
2.06118e-06
5.72184e-06
1.97853e-06
5.20051e-06
1.83536e-06
4.82292e-06
1.56413e-06
4.64614e-06
1.25165e-06
4.58029e-06
1.02891e-06
4.41549e-06
1.00342e-06
4.11734e-06
1.00702e-06
3.77582e-06
9.26822e-07
3.41548e-06
8.19867e-07
3.2561e-06
4.88327e-07
3.42455e-06
3.04653e-08
3.74421e-06
-2.53796e-07
3.98335e-06
-3.15916e-07
3.9796e-06
-1.84076e-07
3.73015e-06
-2.37907e-08
3.50466e-06
-1.29397e-07
3.68406e-06
-6.08419e-07
4.29534e-06
-1.12739e-06
5.47824e-06
-1.78291e-06
7.33767e-06
-2.51833e-06
9.42965e-06
-2.87235e-06
1.10506e-05
-2.64623e-06
1.2109e-05
-2.27077e-06
1.29128e-05
-2.14036e-06
1.37112e-05
-2.38419e-06
1.42443e-05
-2.35887e-06
1.44586e-05
-2.11027e-06
1.48809e-05
-2.4375e-06
1.52569e-05
-2.60925e-06
1.47074e-05
-1.84526e-06
1.43896e-05
-2.27891e-06
1.54904e-05
-4.16605e-06
1.49663e-05
-2.93502e-06
1.35925e-05
-2.19253e-06
1.42411e-05
-4.69528e-06
1.57107e-05
-6.07724e-06
1.60717e-05
-5.40207e-06
1.70121e-05
-6.31133e-06
1.77614e-05
-6.46206e-06
1.91448e-05
-7.41372e-06
2.02375e-05
-7.43617e-06
2.11706e-05
-7.5641e-06
2.16706e-05
-7.44422e-06
2.16401e-05
-7.18503e-06
2.08787e-05
-6.68629e-06
1.9708e-05
-6.44072e-06
1.85319e-05
-6.5452e-06
1.78182e-05
-7.18025e-06
1.74755e-05
-7.76218e-06
1.73982e-05
-8.43176e-06
1.72589e-05
-8.74345e-06
1.67408e-05
-8.8578e-06
1.60276e-05
-8.7867e-06
1.3802e-05
-7.14967e-06
1.13534e-05
-6.86742e-06
7.69671e-06
-5.52685e-06
4.15459e-06
-5.97602e-06
5.86185e-06
-1.20224e-05
6.92739e-06
-1.1213e-05
5.01012e-06
-7.49175e-06
3.14658e-06
-6.97217e-06
1.428e-06
-7.21007e-06
6.22378e-08
-7.64788e-06
-2.41554e-06
-6.22982e-06
-4.4316e-06
-6.40544e-06
-6.42656e-06
-6.24792e-06
-8.88234e-06
-5.64608e-06
-1.15499e-05
-5.20611e-06
-1.3898e-05
-5.45548e-06
-5.88389e-06
-1.52936e-05
2.63545e-08
-2.0719e-06
-3.79427e-08
-1.90107e-06
-1.69541e-07
-1.83819e-06
-2.69324e-07
-1.97135e-06
-2.68876e-07
-2.18269e-06
-1.63098e-07
-2.39864e-06
-1.055e-08
-2.52463e-06
1.40719e-07
-2.58803e-06
3.30543e-07
-2.66697e-06
5.53571e-07
-2.75617e-06
8.07799e-07
-2.84527e-06
1.10678e-06
-2.93515e-06
1.4208e-06
-2.9739e-06
1.73196e-06
-3.00718e-06
2.06075e-06
-3.0483e-06
2.39176e-06
-3.03555e-06
2.69156e-06
-2.98529e-06
2.95381e-06
-2.95447e-06
3.20847e-06
-2.93943e-06
3.45457e-06
-2.88344e-06
3.67449e-06
-2.82857e-06
3.89053e-06
-2.81645e-06
4.11081e-06
-2.73594e-06
4.24338e-06
-2.57742e-06
4.34794e-06
-2.42407e-06
4.34487e-06
-2.20493e-06
4.26549e-06
-1.95442e-06
4.07476e-06
-1.70241e-06
3.7808e-06
-1.38559e-06
3.35617e-06
-1.01864e-06
2.81786e-06
-7.08117e-07
2.22208e-06
-3.15056e-07
1.40737e-06
-3.09128e-08
1.25495e-07
6.87148e-08
-1.42331e-06
-6.29411e-09
-2.73603e-06
-5.01777e-07
-3.53946e-06
-1.23423e-06
-3.83502e-06
-1.69993e-06
-3.69003e-06
-2.19887e-06
-3.46102e-06
-2.57329e-06
-3.12551e-06
-2.82007e-06
-2.54522e-06
-3.13884e-06
-1.68304e-06
-3.56394e-06
-6.37698e-07
-3.96687e-06
4.23085e-07
-3.94781e-06
1.61568e-06
-3.63765e-06
2.71058e-06
-3.60048e-06
3.25105e-06
-3.09421e-06
3.63953e-06
-2.39084e-06
3.83711e-06
-1.58694e-06
3.87308e-06
-1.26472e-06
3.17455e-06
-9.55933e-07
1.56807e-06
-4.86124e-07
-7.946e-07
2.17561e-07
-3.17321e-06
4.44226e-07
-5.05904e-06
4.60695e-07
-6.29586e-06
5.61078e-07
-7.04382e-06
6.42437e-07
-7.61817e-06
5.47621e-07
-8.07338e-06
2.7553e-07
-8.43085e-06
-4.03251e-08
-8.67662e-06
-3.5763e-07
-8.80606e-06
-6.73179e-07
-8.86546e-06
-9.08108e-07
-8.86595e-06
-1.11823e-06
-8.79358e-06
-1.28464e-06
-8.67885e-06
-1.41532e-06
-8.55903e-06
-1.50536e-06
-8.41914e-06
-1.57952e-06
-8.27629e-06
-1.61807e-06
-8.14191e-06
-1.63035e-06
-8.00626e-06
-1.64219e-06
-7.87273e-06
-1.60316e-06
-7.72992e-06
-1.54452e-06
-7.65773e-06
-1.42655e-06
-7.57999e-06
-1.35176e-06
-7.50575e-06
-1.2445e-06
-7.43001e-06
-1.12862e-06
-7.34811e-06
-9.97852e-07
-7.2396e-06
-8.85188e-07
-7.11914e-06
-7.48958e-07
-6.97473e-06
-5.56616e-07
-6.76233e-06
-3.99568e-07
-6.52097e-06
-2.1155e-07
-6.24849e-06
2.67241e-09
-5.9002e-06
1.50615e-07
-5.49339e-06
3.15375e-07
-5.04604e-06
5.43126e-07
-4.54161e-06
7.9942e-07
-3.95213e-06
9.79536e-07
-3.32857e-06
1.19111e-06
-2.63372e-06
1.37436e-06
-1.90525e-06
1.59185e-06
-1.15045e-06
1.81193e-06
-3.59597e-07
1.99848e-06
4.49997e-07
2.18013e-06
1.26006e-06
2.34096e-06
2.08917e-06
2.4685e-06
2.88506e-06
2.65144e-06
3.64852e-06
2.74007e-06
4.36884e-06
2.84503e-06
5.03568e-06
2.91188e-06
5.60858e-06
3.0217e-06
6.04944e-06
3.11321e-06
6.38241e-06
3.17321e-06
6.53762e-06
3.29691e-06
6.47015e-06
3.55855e-06
6.17183e-06
3.84596e-06
5.71901e-06
4.04064e-06
5.20644e-06
4.02944e-06
4.74454e-06
3.77413e-06
4.43282e-06
3.34077e-06
4.1477e-06
2.91742e-06
4.06398e-06
2.3072e-06
4.15513e-06
1.8278e-06
4.2437e-06
1.70563e-06
4.20578e-06
1.7206e-06
4.04105e-06
1.64052e-06
3.75721e-06
1.50405e-06
3.60201e-06
8.86805e-07
3.86043e-06
-5.98872e-08
4.50319e-06
-7.37151e-07
5.08754e-06
-8.97639e-07
4.95257e-06
-3.32673e-07
4.38086e-06
7.50583e-08
3.8338e-06
-1.36913e-07
3.85444e-06
-1.13392e-06
4.43205e-06
-2.17981e-06
5.66212e-06
-3.49297e-06
7.83761e-06
-5.11341e-06
1.07554e-05
-6.06182e-06
1.35381e-05
-5.72267e-06
1.54719e-05
-4.8053e-06
1.68365e-05
-4.50695e-06
1.7571e-05
-4.83012e-06
1.72297e-05
-4.52303e-06
1.65314e-05
-4.06565e-06
1.595e-05
-4.3374e-06
1.45694e-05
-3.67123e-06
1.31019e-05
-2.79251e-06
1.31203e-05
-4.99622e-06
1.38565e-05
-8.10859e-06
1.4116e-05
-6.78769e-06
1.29577e-05
-4.77739e-06
1.32852e-05
-9.28117e-06
1.53156e-05
-1.25389e-05
1.624e-05
-1.13933e-05
1.76878e-05
-1.33334e-05
1.87501e-05
-1.3528e-05
2.06897e-05
-1.54309e-05
2.22417e-05
-1.53524e-05
2.37837e-05
-1.5636e-05
2.52058e-05
-1.57069e-05
2.61264e-05
-1.54404e-05
2.62091e-05
-1.45503e-05
2.54223e-05
-1.37908e-05
2.3734e-05
-1.32927e-05
2.14981e-05
-1.35823e-05
1.93711e-05
-1.41331e-05
1.79928e-05
-1.56961e-05
1.76599e-05
-1.77169e-05
1.75761e-05
-1.95701e-05
1.62005e-05
-1.86053e-05
1.32116e-05
-1.51543e-05
9.71354e-06
-1.3793e-05
5.84814e-06
-1.20766e-05
3.53605e-06
-1.51375e-05
5.54179e-06
-2.55896e-05
8.37889e-06
-2.55605e-05
7.92105e-06
-1.78781e-05
5.82442e-06
-1.48484e-05
3.90639e-06
-1.54413e-05
2.9863e-06
-1.7151e-05
4.3583e-07
-1.45125e-05
-2.10429e-06
-1.42804e-05
-4.33239e-06
-1.39551e-05
-7.32281e-06
-1.2644e-05
-1.06284e-05
-1.1475e-05
-1.28946e-05
-1.29331e-05
-1.25129e-05
-1.48152e-05
-5.30288e-08
-3.03793e-06
-1.31015e-07
-2.88211e-06
-1.42934e-07
-2.89275e-06
-5.24463e-08
-3.12251e-06
1.46676e-07
-3.43297e-06
3.43759e-07
-3.64436e-06
5.11059e-07
-3.74212e-06
7.1878e-07
-3.84993e-06
9.48464e-07
-3.95347e-06
1.19917e-06
-4.06238e-06
1.45235e-06
-4.15956e-06
1.70344e-06
-4.25248e-06
1.9469e-06
-4.2941e-06
2.14653e-06
-4.30048e-06
2.29756e-06
-4.31361e-06
2.43359e-06
-4.30845e-06
2.56424e-06
-4.28098e-06
2.66961e-06
-4.25081e-06
2.78057e-06
-4.25837e-06
2.94137e-06
-4.26753e-06
3.11974e-06
-4.24328e-06
3.29743e-06
-4.23538e-06
3.48947e-06
-4.16664e-06
3.64041e-06
-3.97079e-06
3.77625e-06
-3.81228e-06
3.88593e-06
-3.56181e-06
3.9896e-06
-3.29947e-06
3.98321e-06
-2.93822e-06
3.90038e-06
-2.54014e-06
3.77633e-06
-2.11122e-06
3.56838e-06
-1.6781e-06
3.23168e-06
-1.13072e-06
2.80004e-06
-7.25155e-07
2.22684e-06
-4.43759e-07
1.37817e-06
-2.01931e-07
3.15541e-07
-4.52435e-07
-9.46755e-07
-9.73672e-07
-1.96414e-06
-1.67017e-06
-2.47688e-06
-2.67339e-06
-2.59812e-06
-3.48802e-06
-2.3705e-06
-4.01815e-06
-1.75268e-06
-4.63522e-06
-9.59573e-07
-5.31779e-06
-9.44598e-08
-5.69724e-06
1.07483e-06
-5.71396e-06
1.63548e-06
-4.77956e-06
1.4941e-06
-4.17507e-06
7.2814e-07
-2.99148e-06
-4.85065e-07
-1.8306e-06
-1.76405e-06
-9.97771e-07
-3.3997e-06
-2.90674e-07
-5.07571e-06
9.35282e-08
-6.58674e-06
3.79085e-07
-7.64022e-06
6.19716e-07
-8.53508e-06
6.91403e-07
-9.28072e-06
5.6035e-07
-9.74782e-06
3.88191e-07
-9.87741e-06
1.39736e-07
-9.82095e-06
-1.38656e-07
-9.66452e-06
-5.15872e-07
-9.45352e-06
-8.89725e-07
-9.20093e-06
-1.2585e-06
-8.9619e-06
-1.56746e-06
-8.68535e-06
-1.85257e-06
-8.39632e-06
-2.0849e-06
-8.09382e-06
-2.27698e-06
-7.7946e-06
-2.41463e-06
-7.52996e-06
-2.4813e-06
-7.25938e-06
-2.56811e-06
-7.02567e-06
-2.57461e-06
-6.79574e-06
-2.58395e-06
-6.62254e-06
-2.53587e-06
-6.49933e-06
-2.43698e-06
-6.37225e-06
-2.36401e-06
-6.2556e-06
-2.20933e-06
-6.16123e-06
-2.07709e-06
-6.06067e-06
-1.93128e-06
-5.97325e-06
-1.74812e-06
-5.86087e-06
-1.57676e-06
-5.75316e-06
-1.38286e-06
-5.62639e-06
-1.17917e-06
-5.48106e-06
-9.08308e-07
-5.29048e-06
-6.90158e-07
-5.07854e-06
-4.08675e-07
-4.79427e-06
-1.38782e-07
-4.48983e-06
1.23902e-07
-4.1018e-06
3.40117e-07
-3.69246e-06
6.85112e-07
-3.22523e-06
1.02862e-06
-2.69451e-06
1.28949e-06
-2.10299e-06
1.58024e-06
-1.45101e-06
1.83791e-06
-7.37679e-07
2.12415e-06
-3.3389e-08
2.47261e-06
7.10729e-07
2.73181e-06
1.51963e-06
2.9489e-06
2.31352e-06
3.21335e-06
3.12016e-06
3.40761e-06
3.88089e-06
3.69684e-06
4.61974e-06
3.848e-06
5.27855e-06
4.07233e-06
5.90358e-06
4.19688e-06
6.51304e-06
4.33379e-06
6.92963e-06
4.5617e-06
7.05498e-06
4.79774e-06
6.92635e-06
5.08586e-06
6.83358e-06
5.26363e-06
6.63666e-06
5.56449e-06
6.30288e-06
5.7618e-06
5.90451e-06
5.69685e-06
5.49105e-06
5.34145e-06
5.05332e-06
4.7981e-06
4.69666e-06
4.17936e-06
4.493e-06
3.33301e-06
4.39798e-06
2.62083e-06
4.39064e-06
2.28404e-06
4.47462e-06
2.1252e-06
4.54947e-06
1.95686e-06
4.45872e-06
1.80994e-06
4.10046e-06
1.23641e-06
3.97339e-06
-1.70227e-09
4.69248e-06
-1.33012e-06
6.15157e-06
-1.97532e-06
6.76411e-06
-1.00566e-06
5.74186e-06
3.30012e-07
4.61359e-06
6.51455e-08
4.18968e-06
-1.41975e-06
4.53376e-06
-3.08581e-06
5.36751e-06
-4.86259e-06
7.10122e-06
-7.34838e-06
9.85316e-06
-9.18609e-06
1.28155e-05
-8.7602e-06
1.5521e-05
-7.44815e-06
1.78243e-05
-6.87109e-06
1.87722e-05
-6.74626e-06
1.84809e-05
-6.58459e-06
1.77823e-05
-6.15785e-06
1.66408e-05
-5.83199e-06
1.4742e-05
-4.37339e-06
1.2744e-05
-3.3064e-06
1.20527e-05
-7.09401e-06
1.20641e-05
-1.10579e-05
1.41537e-05
-1.18078e-05
1.44706e-05
-9.39072e-06
1.33753e-05
-1.31242e-05
1.43033e-05
-1.74839e-05
1.60908e-05
-1.73686e-05
1.81094e-05
-2.00264e-05
1.94866e-05
-2.02817e-05
2.16023e-05
-2.29617e-05
2.3054e-05
-2.25677e-05
2.44395e-05
-2.31272e-05
2.57447e-05
-2.29943e-05
2.7172e-05
-2.29338e-05
2.79161e-05
-2.21725e-05
2.78655e-05
-2.12897e-05
2.71191e-05
-2.04602e-05
2.55335e-05
-2.05994e-05
2.31988e-05
-2.09385e-05
2.05392e-05
-2.19165e-05
1.87575e-05
-2.43659e-05
1.8283e-05
-2.87882e-05
1.67281e-05
-2.84078e-05
1.39199e-05
-2.40644e-05
1.10875e-05
-2.22507e-05
9.52832e-06
-2.0374e-05
7.60428e-06
-2.359e-05
7.2922e-06
-3.50795e-05
8.23876e-06
-3.74216e-05
8.97911e-06
-2.94968e-05
7.26839e-06
-2.33613e-05
4.31282e-06
-2.28913e-05
4.21413e-06
-2.67369e-05
2.54988e-06
-2.37357e-05
-1.23318e-07
-2.28561e-05
-2.58727e-06
-2.21227e-05
-5.81462e-06
-2.03931e-05
-9.61216e-06
-1.8517e-05
-1.11011e-05
-2.23446e-05
-1.97877e-05
-1.32596e-05
-9.80245e-08
-3.94051e-06
-2.22428e-07
-3.78657e-06
-1.83537e-07
-3.9478e-06
-4.11576e-08
-4.2736e-06
1.44988e-07
-4.62084e-06
2.60505e-07
-4.75889e-06
4.02577e-07
-4.88366e-06
5.51255e-07
-5.00311e-06
7.32313e-07
-5.14216e-06
9.173e-07
-5.26362e-06
1.08541e-06
-5.35925e-06
1.2279e-06
-5.44181e-06
1.34682e-06
-5.47679e-06
1.43787e-06
-5.47464e-06
1.47187e-06
-5.44956e-06
1.46683e-06
-5.42713e-06
1.46244e-06
-5.42603e-06
1.49752e-06
-5.45326e-06
1.57336e-06
-5.50563e-06
1.68345e-06
-5.5426e-06
1.81236e-06
-5.52603e-06
1.94814e-06
-5.5158e-06
2.07118e-06
-5.43023e-06
2.22439e-06
-5.26135e-06
2.38748e-06
-5.1167e-06
2.58987e-06
-4.91451e-06
2.76719e-06
-4.62606e-06
2.92493e-06
-4.24887e-06
3.07593e-06
-3.85152e-06
3.20267e-06
-3.41174e-06
3.16019e-06
-2.80566e-06
3.10346e-06
-2.22185e-06
2.92416e-06
-1.67192e-06
2.60746e-06
-1.23161e-06
2.18714e-06
-8.55343e-07
1.53679e-06
-8.2485e-07
5.86899e-07
-9.9159e-07
-4.91553e-07
-1.51609e-06
-1.5431e-06
-2.5652e-06
-2.22533e-06
-3.74536e-06
-2.22686e-06
-4.81906e-06
-1.93665e-06
-5.79615e-06
-1.74904e-06
-6.33106e-06
-1.71843e-06
-6.1778e-06
-2.14936e-06
-5.76981e-06
-3.09937e-06
-4.45285e-06
-4.43578e-06
-3.50935e-06
-5.53972e-06
-2.58895e-06
-6.67704e-06
-1.38001e-06
-7.53968e-06
-7.70708e-07
-8.46142e-06
-6.38954e-09
-9.25489e-06
2.59367e-07
-9.93332e-06
4.3812e-07
-1.02418e-05
3.19391e-07
-1.03621e-05
2.22421e-07
-1.03607e-05
-2.05332e-08
-1.02259e-05
-3.25265e-07
-9.9313e-06
-7.29336e-07
-9.54766e-06
-1.09805e-06
-9.12364e-06
-1.51822e-06
-8.67641e-06
-1.9264e-06
-8.23277e-06
-2.30326e-06
-7.78626e-06
-2.62604e-06
-7.35991e-06
-2.90604e-06
-6.91302e-06
-3.17147e-06
-6.53562e-06
-3.30635e-06
-6.15955e-06
-3.45643e-06
-5.8075e-06
-3.5128e-06
-5.52496e-06
-3.54039e-06
-5.26997e-06
-3.527e-06
-5.08071e-06
-3.47312e-06
-4.87726e-06
-3.43927e-06
-4.71389e-06
-3.29333e-06
-4.5646e-06
-3.19175e-06
-4.39722e-06
-3.03254e-06
-4.2777e-06
-2.82152e-06
-4.11719e-06
-2.67749e-06
-3.99352e-06
-2.40959e-06
-3.89316e-06
-2.15673e-06
-3.7915e-06
-1.89523e-06
-3.63796e-06
-1.66408e-06
-3.47167e-06
-1.31549e-06
-3.27981e-06
-1.02209e-06
-3.05371e-06
-6.66046e-07
-2.76079e-06
-3.45431e-07
-2.44217e-06
1.56568e-08
-2.07143e-06
3.09432e-07
-1.65341e-06
7.40252e-07
-1.17152e-06
1.15132e-06
-6.44682e-07
1.49834e-06
-9.74368e-08
1.89509e-06
4.75823e-07
2.24618e-06
1.10209e-06
2.58853e-06
1.75058e-06
3.01493e-06
2.45839e-06
3.30185e-06
3.15536e-06
3.60927e-06
3.87444e-06
3.91367e-06
4.61483e-06
4.14179e-06
5.35198e-06
4.46671e-06
6.09058e-06
4.6418e-06
6.77091e-06
4.94848e-06
7.39166e-06
5.13058e-06
7.88979e-06
5.39876e-06
8.30005e-06
5.69869e-06
8.52637e-06
6.11442e-06
8.59709e-06
6.50823e-06
8.51709e-06
6.72429e-06
8.3852e-06
6.98057e-06
8.24852e-06
7.14638e-06
7.97095e-06
7.12651e-06
7.61443e-06
6.69256e-06
7.37201e-06
5.98331e-06
7.15409e-06
5.33025e-06
6.71957e-06
4.51069e-06
5.85669e-06
3.92646e-06
5.07598e-06
3.39501e-06
4.72121e-06
2.78351e-06
4.73284e-06
2.16322e-06
4.86827e-06
1.75658e-06
4.66606e-06
1.31286e-06