/*--------------------------------*- C++ -*----------------------------------*\
| =========                 |                                                 |
| \\      /  F ield         | OpenFOAM: The Open Source CFD Toolbox           |
|  \\    /   O peration     | Version:  dev                                   |
|   \\  /    A nd           | Web:      http://www.openfoam.org               |
|    \\/     M anipulation  |                                                 |
\*---------------------------------------------------------------------------*/
FoamFile
{
    version     2.0;
    format      ascii;
    class       volScalarField;
    object      pMean;
    location    "9.118";
}
// * * * * * * * * * * * * * * * * * * * * * * * * * * * * * * * * * * * * * //

dimensions      [1 -1 -2 0 0 0 0];

internalField   nonuniform List<scalar> 
12225
(
98311.8
98292.1
98278.3
98271.3
98257
98247.6
98229.2
98219.6
98198.1
98189.4
98164.7
98157.9
98126.9
98120.6
98079.8
98040.2
97951.1
97585.2
98307.3
98291
98277.7
98270.8
98256.4
98247.1
98228.5
98219.1
98197.4
98189
98164
98157.3
98126.5
98118.7
98078.1
98044.2
97952
97790.9
98303.6
98289.4
98276.7
98269.4
98255
98245.6
98227
98217.7
98196
98187.5
98163.1
98155.3
98127.1
98115.3
98080.4
98045.1
97977.8
97889
98298.5
98286.5
98274.6
98266.9
98252.6
98242.9
98224.9
98215
98194.2
98184.8
98161.8
98152.2
98126
98113.1
98081.3
98053.5
98005.1
97936.3
98291.9
98282.1
98271.1
98262.9
98249
98238.8
98221.9
98210.9
98191.8
98180.5
98160.3
98147.6
98126.2
98109.8
98083.2
98059
98019.2
97986.5
98283.6
98275.9
98265.1
98256.9
98243.4
98232.8
98216.7
98205.1
98187.4
98175.2
98157.1
98143.5
98125.1
98108.1
98086.8
98061.5
98039.4
98018.9
98273.3
98267
98256.6
98248.2
98235.6
98224.4
98209.6
98197.1
98181.3
98167.8
98152.4
98137.4
98122.8
98105.3
98091
98070
98059.7
98044.8
98262.6
98256.9
98247.3
98238.6
98226.9
98215.3
98201.8
98188.6
98174.6
98160.3
98147.2
98131.5
98120
98102.7
98093.9
98076.1
98074.4
98059.5
98251.7
98246.3
98237.5
98228.6
98217.7
98206
98193.4
98180
98167.4
98152.7
98141.3
98125.8
98116.1
98100.1
98093.9
98079.7
98079.4
98067.5
98238.1
98232.7
98225
98215.9
98206
98194.3
98182.7
98169.3
98158
98143.4
98133.5
98118.6
98110.4
98096
98091
98079.3
98078.5
98070.2
98221.2
98215.7
98209.2
98200.4
98191.2
98179.8
98169
98156.1
98145.6
98132
98122.6
98109.5
98101.5
98090
98084.3
98075.8
98073.1
98067.9
98200.6
98194.9
98189.7
98181.2
98172.9
98161.8
98152
98139.7
98130.1
98117.5
98108.9
98097.4
98089.8
98080.6
98074.8
98068.5
98064.9
98061.2
98175.8
98170.5
98166
98158.5
98150.5
98140.6
98131.2
98120.3
98111
98100.4
98092
98082.7
98075.4
98068.2
98062.8
98057.9
98054.3
98051.6
98147.6
98142.8
98138.8
98132.2
98125
98116.1
98107.5
98098
98089.4
98080.5
98072.8
98065.2
98058.8
98053.1
98048.4
98044.6
98041.7
98039.6
98117.4
98113.7
98109.9
98104.5
98098
98090.4
98082.6
98074.5
98066.9
98059.5
98052.8
98046.7
98041.4
98036.8
98033.1
98030.2
98028
98026.5
98089.7
98086.9
98083.6
98079.1
98073.5
98067
98060.2
98053.3
98046.8
98040.6
98035
98030
98025.7
98022.2
98019.3
98017.1
98015.6
98014.6
98071.1
98069.2
98066.4
98062.5
98057.5
98051.9
98045.9
98040
98034.3
98029.1
98024.3
98020.1
98016.6
98013.7
98011.4
98009.7
98008.5
98007.9
98071.3
98069.7
98067.1
98063.4
98058.7
98053.3
98047.8
98042.2
98036.9
98031.9
98027.5
98023.5
98020.2
98017.4
98015.1
98013.4
98012.2
98011.5
98091.1
98089.2
98086.4
98082.4
98077.5
98071.9
98066.2
98060.4
98054.8
98049.6
98044.8
98040.5
98036.8
98033.6
98030.9
98028.8
98027.1
98025.9
98121.8
98119.7
98116.3
98111.8
98106.4
98100.3
98094
98087.7
98081.5
98075.7
98070.3
98065.4
98061
98057.1
98053.8
98050.9
98048.5
98046.6
98156.7
98154.1
98150
98144.8
98138.8
98132.1
98125.2
98118.2
98111.4
98104.8
98098.7
98093.1
98087.9
98083.3
98079.2
98075.6
98072.4
98069.8
98190.6
98187.5
98182.7
98176.8
98170.2
98162.9
98155.4
98147.8
98140.3
98133.1
98126.3
98119.9
98114.1
98108.7
98103.9
98099.6
98095.7
98092.3
98220.8
98217.1
98211.6
98205.1
98197.9
98190.1
98182.1
98174
98166
98158.2
98150.8
98143.8
98137.4
98131.4
98125.9
98121
98116.5
98112.5
98246.1
98241.8
98235.5
98228.3
98220.7
98212.6
98204.2
98195.7
98187.2
98179
98171.1
98163.7
98156.7
98150.2
98144.2
98138.8
98133.8
98129.3
98266.4
98261.2
98254
98246.4
98238.4
98230
98221.4
98212.6
98203.8
98195.3
98187
98179.2
98171.8
98165
98158.6
98152.8
98147.4
98142.5
98282
98275.7
98267.6
98259.5
98251.3
98242.8
98234.1
98225.1
98216.1
98207.3
98198.8
98190.7
98183.1
98175.9
98169.3
98163.1
98157.5
98152.3
98293.8
98286
98276.9
98268.4
98260.2
98251.7
98242.8
98233.7
98224.6
98215.7
98207
98198.7
98190.9
98183.5
98176.7
98170.4
98164.5
98159.1
98302.6
98292.7
98282.7
98274
98265.8
98257.3
98248.4
98239.3
98230.1
98221.1
98212.3
98203.9
98196
98188.5
98181.5
98175
98169.1
98163.5
98308.6
98296.5
98285.4
98276.8
98268.7
98260.4
98251.6
98242.5
98233.3
98224.2
98215.3
98206.9
98198.8
98191.3
98184.3
98177.7
98171.7
98166
98314.6
98299.1
98287
98278.2
98270
98261.6
98252.9
98243.8
98234.6
98225.5
98216.6
98208.1
98200.1
98192.5
98185.4
98178.8
98172.8
98167.2
98311.6
98311.3
98310.5
98309.3
98307.9
98306
98303.8
98301.2
98298.1
98294.7
98290.8
98286.6
98282
98277
98271.8
98266.3
98260.6
98254.7
98248.6
98242.3
98235.9
98229.3
98222.6
98215.8
98208.9
98202
98194.9
98187.9
98180.8
98173.7
98166.6
98159.6
98152.5
98145.6
98138.7
98132
98125.3
98118.8
98112.5
98106.4
98100.5
98094.8
98089.4
98084.2
98079.4
98075
98070.8
98067.1
98063.8
98061
98058.6
98056.7
98055.3
98054.5
98054.2
98054.5
98055.5
98057.1
98059.4
98062.4
98066
98070.4
98075.5
98081.3
98087.8
98095.1
98103
98111.7
98121
98131
98141.6
98152.7
98164.5
98176.8
98189.5
98202.8
98216.4
98230.4
98244.7
98259.2
98274.1
98289.1
98304.2
98319.4
98334.7
98349.9
98365.1
98380.2
98395.1
98409.8
98424.2
98438.3
98452.1
98465.5
98478.4
98490.8
98502.7
98514
98524.8
98534.9
98544.4
98553.3
98561.5
98569.1
98576
98582.3
98588.1
98593.2
98597.8
98601.9
98605.6
98608.8
98611.6
98614.1
98616.3
98618.2
98619.9
98621.3
98622.6
98623.7
98624.8
98625.8
98627
98628.3
98629.9
98631.9
98634.6
98638
98642.4
98648
98655.1
98663.8
98674.5
98687.4
98702.7
98720.7
98741.5
98765.3
98792
98821.8
98854.8
98890.7
98929.5
98971
99015.4
99061.9
99110.9
99161.6
99214.2
99268.3
99323.8
99380.2
99437.2
99494.6
99551.8
99608.4
99663.8
99717.6
99768.6
99816.5
99860.1
99898.5
99930.5
99955.6
99972.4
99979.9
99977.3
99964.3
99940.3
99905.6
99860.2
99805.4
99741.5
99670.8
99593.8
99513.2
99428.7
99344
99257.1
99174
98304.7
98304.3
98303.5
98302.4
98300.9
98299
98296.7
98294.1
98291.1
98287.7
98283.9
98279.8
98275.3
98270.5
98265.4
98260.1
98254.6
98248.9
98242.9
98236.9
98230.6
98224.2
98217.7
98211.1
98204.4
98197.6
98190.7
98183.8
98176.8
98169.9
98163
98156.1
98149.2
98142.4
98135.7
98129.1
98122.6
98116.2
98110
98104
98098.2
98092.7
98087.3
98082.3
98077.6
98073.2
98069.1
98065.5
98062.2
98059.4
98057
98055.1
98053.7
98052.8
98052.5
98052.8
98053.7
98055.3
98057.5
98060.4
98063.9
98068.2
98073.2
98078.9
98085.3
98092.4
98100.2
98108.7
98117.8
98127.6
98138
98149
98160.5
98172.6
98185.1
98198.1
98211.5
98225.3
98239.4
98253.7
98268.3
98283
98297.9
98312.9
98327.9
98342.8
98357.7
98372.5
98387.1
98401.5
98415.7
98429.5
98443
98456.1
98468.7
98480.8
98492.4
98503.5
98514
98523.9
98533.2
98541.8
98549.8
98557.2
98564
98570.1
98575.7
98580.7
98585.2
98589.2
98592.8
98595.9
98598.7
98601.1
98603.2
98605
98606.6
98608
98609.2
98610.3
98611.3
98612.2
98613.3
98614.5
98615.9
98617.8
98620.2
98623.3
98627.4
98632.7
98639.4
98647.6
98657.8
98670.1
98684.8
98702.2
98722.3
98745.2
98771.2
98800.1
98832.1
98867
98904.8
98945.2
98988.4
99033.8
99081.6
99131.1
99182.6
99235.6
99289.9
99345.1
99401
99457.3
99513.5
99569.2
99623.7
99676.6
99726.9
99774.2
99817.3
99855.4
99887.4
99912.6
99929.7
99937.8
99936.1
99924.2
99901.4
99868.3
99824.5
99771.4
99709.3
99640.4
99565.1
99486.3
99403.3
99320.1
99234.3
99149.4
98292
98291.6
98290.8
98289.6
98288
98286.1
98283.8
98281.1
98278.1
98274.7
98271
98267
98262.6
98258
98253.2
98248.1
98242.9
98237.5
98231.9
98226.2
98220.4
98214.3
98208.2
98202
98195.6
98189.1
98182.6
98176
98169.4
98162.7
98156.1
98149.4
98142.8
98136.3
98129.8
98123.5
98117.2
98111.1
98105.1
98099.3
98093.7
98088.4
98083.2
98078.3
98073.7
98069.4
98065.5
98061.9
98058.7
98055.9
98053.5
98051.6
98050.2
98049.3
98048.9
98049.1
98049.9
98051.3
98053.4
98056.1
98059.5
98063.6
98068.3
98073.7
98079.9
98086.7
98094.2
98102.4
98111.2
98120.7
98130.8
98141.4
98152.6
98164.2
98176.4
98189
98201.9
98215.2
98228.9
98242.7
98256.9
98271.1
98285.5
98300
98314.5
98328.9
98343.3
98357.6
98371.6
98385.5
98399.1
98412.4
98425.3
98437.8
98449.8
98461.4
98472.5
98483
98493
98502.4
98511.3
98519.5
98527.1
98534.1
98540.5
98546.4
98551.7
98556.4
98560.7
98564.4
98567.8
98570.8
98573.4
98575.7
98577.7
98579.4
98580.8
98582.1
98583.1
98584.1
98584.9
98585.6
98586.4
98587.3
98588.4
98589.8
98591.8
98594.3
98597.8
98602.3
98608.2
98615.5
98624.7
98635.9
98649.4
98665.4
98684
98705.4
98729.7
98756.7
98786.9
98819.7
98855.4
98893.6
98934.6
98977.7
99023.1
99070.4
99119.4
99170.1
99222
99274.9
99328.6
99382.8
99436.8
99490.4
99543
99594.2
99643
99688.9
99730.9
99768.2
99799.6
99824.8
99842.2
99851.1
99850.7
99840.6
99820.2
99789.7
99748.9
99699.3
99640.7
99575.5
99503.8
99428.5
99349
99269
99186
99102.2
98274.5
98274.2
98273.4
98272.2
98270.6
98268.6
98266.3
98263.6
98260.6
98257.3
98253.7
98249.8
98245.7
98241.3
98236.7
98232
98227.1
98222.1
98217
98211.7
98206.3
98200.7
98195.1
98189.3
98183.4
98177.4
98171.4
98165.2
98159.1
98152.9
98146.7
98140.5
98134.3
98128.2
98122.1
98116.1
98110.2
98104.4
98098.7
98093.2
98087.9
98082.7
98077.8
98073.1
98068.6
98064.5
98060.7
98057.2
98054.1
98051.3
98049
98047.1
98045.6
98044.6
98044.2
98044.3
98044.9
98046.2
98048
98050.5
98053.6
98057.4
98061.8
98066.9
98072.7
98079.1
98086.2
98094
98102.3
98111.3
98120.9
98131
98141.7
98152.8
98164.4
98176.4
98188.8
98201.5
98214.4
98227.7
98241.1
98254.7
98268.4
98282.2
98295.9
98309.7
98323.3
98336.8
98350.2
98363.3
98376.1
98388.6
98400.8
98412.5
98423.8
98434.6
98445
98454.8
98464.1
98472.8
98481
98488.6
98495.7
98502.1
98508.1
98513.4
98518.3
98522.7
98526.6
98530.1
98533.2
98535.9
98538.3
98540.4
98542.2
98543.7
98545
98546
98546.9
98547.6
98548.1
98548.5
98548.9
98549.4
98549.9
98550.8
98552
98553.8
98556.4
98559.9
98564.6
98570.6
98578.4
98588
98599.8
98613.9
98630.4
98649.6
98671.5
98696.1
98723.6
98753.7
98786.4
98821.7
98859.6
98899.7
98941.8
98985.9
99031.8
99079.2
99128
99177.8
99228.5
99279.7
99330.8
99381.7
99431.7
99480.4
99527.1
99571
99611.4
99647.5
99678.1
99702.8
99720.5
99730.2
99731.1
99723
99705.3
99678.2
99641.3
99596
99542
99481.7
99414.8
99344.4
99269.6
99194
99115.3
99035.2
98253.3
98253
98252.3
98251.2
98249.6
98247.7
98245.4
98242.8
98239.9
98236.7
98233.2
98229.5
98225.6
98221.4
98217.2
98212.8
98208.3
98203.6
98198.9
98194.1
98189.1
98184.1
98178.9
98173.7
98168.3
98162.9
98157.4
98151.9
98146.3
98140.7
98135
98129.4
98123.7
98118.1
98112.6
98107
98101.6
98096.3
98091
98085.9
98080.9
98076.1
98071.4
98067
98062.8
98058.8
98055.2
98051.8
98048.8
98046.1
98043.8
98041.9
98040.4
98039.3
98038.7
98038.7
98039.2
98040.2
98041.8
98044
98046.8
98050.1
98054.2
98058.8
98064.1
98070
98076.6
98083.8
98091.6
98100
98108.9
98118.4
98128.4
98138.9
98149.7
98161
98172.6
98184.5
98196.7
98209.1
98221.7
98234.4
98247.2
98260.1
98273
98285.8
98298.5
98311.1
98323.5
98335.7
98347.6
98359.1
98370.4
98381.2
98391.6
98401.5
98410.9
98419.8
98428.3
98436.2
98443.6
98450.4
98456.8
98462.6
98467.9
98472.7
98477
98481
98484.4
98487.5
98490.3
98492.7
98494.8
98496.7
98498.2
98499.5
98500.5
98501.2
98501.8
98502.1
98502.3
98502.3
98502.2
98502.1
98502.1
98502.2
98502.6
98503.4
98504.8
98507
98510.3
98514.8
98520.8
98528.5
98538.2
98550
98564
98580.6
98599.6
98621.2
98645.5
98672.3
98701.5
98733.2
98767.4
98803.8
98842.1
98882.4
98924.4
98968
99013
99059.1
99106.1
99153.7
99201.4
99248.9
99295.7
99341.5
99385.5
99427.1
99465.4
99499.8
99529.3
99553.4
99571.1
99581.4
99583.7
99577.8
99563.1
99539.7
99507.2
99466.8
99418.3
99363.6
99302.6
99238.1
99169.1
99099.2
99025.9
98951.3
98229.9
98229.7
98229
98228
98226.5
98224.8
98222.6
98220.2
98217.4
98214.4
98211.1
98207.6
98203.9
98200
98196.1
98192
98187.8
98183.5
98179.2
98174.8
98170.3
98165.7
98161
98156.3
98151.5
98146.6
98141.7
98136.8
98131.8
98126.8
98121.8
98116.7
98111.7
98106.7
98101.7
98096.7
98091.8
98087
98082.3
98077.6
98073
98068.6
98064.3
98060.2
98056.3
98052.6
98049.1
98045.9
98043
98040.4
98038.2
98036.3
98034.7
98033.6
98032.9
98032.7
98033
98033.7
98035
98036.9
98039.3
98042.3
98045.8
98049.9
98054.7
98060.1
98066
98072.6
98079.7
98087.4
98095.6
98104.3
98113.5
98123.1
98133.2
98143.6
98154.3
98165.3
98176.5
98188
98199.6
98211.3
98223.1
98234.9
98246.7
98258.5
98270.1
98281.6
98293
98304
98314.9
98325.4
98335.5
98345.3
98354.6
98363.5
98371.9
98379.8
98387.3
98394.3
98400.8
98406.8
98412.4
98417.4
98422
98426.2
98429.9
98433.3
98436.3
98438.9
98441.3
98443.3
98445
98446.5
98447.7
98448.7
98449.3
98449.7
98449.9
98449.9
98449.6
98449.1
98448.5
98447.7
98446.9
98446.1
98445.6
98445.2
98445.4
98446.2
98447.9
98450.6
98454.6
98460.2
98467.4
98476.6
98487.9
98501.5
98517.4
98535.6
98556.3
98579.3
98604.8
98632.5
98662.6
98694.8
98728.9
98765
98802.8
98842.2
98883.1
98925.1
98968
99011.6
99055.4
99099.2
99142.5
99184.9
99225.8
99264.6
99300.6
99333
99361
99384.2
99401.6
99412.3
99415.9
99412.2
99400.4
99380.9
99353
99317.9
99275
99226.6
99171.8
99114.1
99051.6
98988.2
98921.3
98853.3
98205.4
98205.3
98204.7
98203.8
98202.5
98200.9
98199
98196.7
98194.2
98191.4
98188.4
98185.1
98181.7
98178.2
98174.5
98170.8
98166.9
98163
98159
98155
98150.9
98146.8
98142.6
98138.3
98134.1
98129.7
98125.4
98121
98116.6
98112.2
98107.8
98103.3
98098.9
98094.4
98090
98085.7
98081.3
98077
98072.8
98068.6
98064.5
98060.5
98056.5
98052.8
98049.2
98045.8
98042.5
98039.5
98036.8
98034.3
98032.1
98030.2
98028.7
98027.5
98026.6
98026.3
98026.3
98026.8
98027.8
98029.3
98031.3
98033.8
98036.9
98040.5
98044.6
98049.4
98054.6
98060.5
98066.9
98073.8
98081.2
98089
98097.4
98106.1
98115.2
98124.6
98134.4
98144.4
98154.6
98165
98175.5
98186.1
98196.8
98207.5
98218.1
98228.7
98239.2
98249.5
98259.6
98269.6
98279.2
98288.5
98297.5
98306.1
98314.3
98322.1
98329.4
98336.3
98342.7
98348.8
98354.4
98359.5
98364.1
98368.4
98372.2
98375.7
98378.7
98381.5
98383.9
98386
98387.9
98389.5
98390.8
98391.8
98392.6
98393.2
98393.4
98393.4
98393.2
98392.7
98391.9
98390.8
98389.5
98388
98386.4
98384.7
98383
98381.5
98380.2
98379.4
98379.4
98380.3
98382.2
98385.4
98390.1
98396.6
98405
98415.4
98427.8
98442.5
98459.4
98478.6
98500
98523.6
98549.4
98577.2
98607
98638.8
98672.2
98707.2
98743.7
98781.4
98819.9
98859.3
98899
98938.9
98978.5
99017.2
99054.6
99090.4
99123.7
99153.8
99179.9
99201.8
99218.5
99229.5
99234.1
99232.5
99223.5
99207.8
99184.3
99154.4
99117.4
99075.2
99027.2
98976.4
98920.8
98864.6
98804.7
98743.8
98181.2
98181.2
98180.7
98179.9
98178.9
98177.5
98175.8
98173.8
98171.5
98169
98166.3
98163.4
98160.3
98157.1
98153.7
98150.3
98146.8
98143.2
98139.6
98136
98132.3
98128.5
98124.8
98121
98117.2
98113.4
98109.5
98105.7
98101.8
98097.9
98094
98090.1
98086.2
98082.3
98078.5
98074.6
98070.8
98067
98063.2
98059.5
98055.8
98052.2
98048.6
98045.2
98041.9
98038.7
98035.7
98032.9
98030.3
98027.9
98025.8
98023.9
98022.3
98021.1
98020.1
98019.6
98019.4
98019.7
98020.3
98021.5
98023.1
98025.1
98027.7
98030.7
98034.3
98038.3
98042.9
98048
98053.7
98059.7
98066.3
98073.3
98080.7
98088.5
98096.6
98105.1
98113.8
98122.7
98131.9
98141.2
98150.5
98160
98169.5
98179
98188.4
98197.8
98207
98216.1
98225
98233.6
98242
98250.1
98257.9
98265.3
98272.3
98278.9
98285.1
98290.9
98296.3
98301.3
98305.9
98310.1
98313.9
98317.3
98320.4
98323.1
98325.5
98327.5
98329.4
98330.9
98332.3
98333.3
98334.1
98334.7
98335
98335.1
98334.9
98334.4
98333.7
98332.6
98331.2
98329.6
98327.5
98325.2
98322.7
98319.9
98317.1
98314.3
98311.6
98309.3
98307.5
98306.4
98306.1
98306.9
98309
98312.7
98318.1
98325.3
98334.4
98345.4
98358.6
98373.9
98391.3
98410.8
98432.2
98455.6
98481
98508.5
98537.5
98568
98600.1
98633.4
98667.6
98702.6
98738.2
98774.2
98809.9
98844.8
98878.6
98911
98941.3
98968.9
98992.7
99012.9
99028.7
99039.5
99044.9
99044.8
99038.3
99025.9
99006.5
98981.6
98950.1
98914.2
98872.9
98829.2
98780.7
98731.9
98679.1
98626
98158.4
98158.4
98158.1
98157.4
98156.5
98155.3
98153.9
98152.1
98150.2
98148
98145.6
98143
98140.3
98137.4
98134.4
98131.3
98128.2
98125
98121.7
98118.5
98115.1
98111.8
98108.5
98105.1
98101.8
98098.4
98095
98091.6
98088.2
98084.8
98081.4
98077.9
98074.5
98071.1
98067.7
98064.3
98060.9
98057.6
98054.2
98050.8
98047.5
98044.2
98041
98037.9
98034.8
98031.9
98029.1
98026.5
98024
98021.7
98019.6
98017.7
98016
98014.7
98013.6
98012.9
98012.5
98012.5
98012.9
98013.6
98014.8
98016.4
98018.5
98021
98023.9
98027.4
98031.3
98035.7
98040.5
98045.8
98051.5
98057.7
98064.2
98071
98078.2
98085.6
98093.3
98101.2
98109.2
98117.4
98125.7
98134
98142.3
98150.5
98158.8
98166.9
98174.9
98182.7
98190.3
98197.6
98204.8
98211.6
98218.1
98224.3
98230.1
98235.6
98240.6
98245.3
98249.7
98253.6
98257.2
98260.5
98263.4
98266
98268.2
98270.1
98271.8
98273.2
98274.4
98275.3
98276.1
98276.6
98276.8
98276.9
98276.6
98276.2
98275.4
98274.4
98273.1
98271.4
98269.4
98267
98264.2
98261
98257.5
98253.7
98249.7
98245.6
98241.6
98237.7
98234.1
98231
98228.6
98227.1
98226.7
98227.6
98230
98234.1
98239.8
98247.4
98256.8
98268.4
98281.9
98297.3
98314.6
98333.9
98355
98378.2
98402.9
98429.2
98456.9
98485.9
98515.8
98546.7
98578.1
98610.1
98641.7
98672.8
98702.9
98731.8
98758.7
98783.5
98804.9
98823.1
98837.4
98847.7
98853.4
98854.4
98849.8
98840.1
98824.4
98804
98777.7
98747.7
98712.9
98676
98634.6
98593.1
98547.7
98502.4
98137.7
98137.8
98137.6
98137.1
98136.3
98135.4
98134.2
98132.7
98131.1
98129.2
98127.1
98124.9
98122.5
98120
98117.4
98114.7
98111.9
98109.1
98106.2
98103.3
98100.4
98097.4
98094.5
98091.5
98088.6
98085.6
98082.6
98079.6
98076.6
98073.6
98070.5
98067.5
98064.5
98061.5
98058.4
98055.4
98052.4
98049.3
98046.3
98043.2
98040.2
98037.2
98034.2
98031.3
98028.5
98025.7
98023
98020.5
98018.1
98015.8
98013.7
98011.8
98010.1
98008.7
98007.5
98006.6
98006
98005.7
98005.8
98006.2
98007
98008.2
98009.8
98011.8
98014.2
98017
98020.3
98024
98028.1
98032.7
98037.6
98042.8
98048.5
98054.4
98060.6
98067.1
98073.8
98080.6
98087.6
98094.7
98101.8
98109
98116.1
98123.2
98130.2
98137.1
98143.9
98150.4
98156.8
98162.9
98168.8
98174.4
98179.7
98184.6
98189.3
98193.5
98197.5
98201
98204.3
98207.2
98209.8
98212.1
98214.1
98215.8
98217.2
98218.4
98219.3
98220
98220.5
98220.8
98220.9
98220.8
98220.4
98219.9
98219.1
98218
98216.7
98215
98213
98210.7
98207.9
98204.8
98201.1
98197.1
98192.6
98187.7
98182.6
98177.3
98171.9
98166.5
98161.2
98156.3
98151.8
98148.1
98145.3
98143.6
98143.2
98144.2
98146.7
98151
98157
98165
98174.7
98186.4
98199.9
98215.2
98232.3
98251.5
98272.2
98294.4
98317.9
98342.7
98368.6
98395.4
98422.9
98450.8
98478.4
98505.7
98532
98557.2
98580.8
98602.6
98621.3
98637.2
98649.6
98658.8
98664
98665.5
98662.2
98654.7
98642.2
98625.6
98603.9
98579.5
98550.8
98520.3
98485.6
98451.3
98413
98375.6
98119.9
98120
98119.9
98119.5
98119
98118.2
98117.2
98116
98114.7
98113.1
98111.4
98109.5
98107.5
98105.3
98103.1
98100.8
98098.4
98095.9
98093.4
98090.9
98088.4
98085.8
98083.2
98080.7
98078.1
98075.4
98072.8
98070.1
98067.4
98064.7
98062
98059.3
98056.6
98053.9
98051.1
98048.4
98045.6
98042.8
98040
98037.2
98034.3
98031.5
98028.7
98025.9
98023.2
98020.5
98018
98015.5
98013.1
98010.8
98008.7
98006.7
98005
98003.4
98002
98001
98000.1
97999.6
97999.4
97999.5
98000
98000.8
98002
98003.5
98005.4
98007.7
98010.4
98013.5
98016.9
98020.7
98024.9
98029.4
98034.2
98039.3
98044.6
98050.2
98055.9
98061.8
98067.7
98073.8
98079.9
98085.9
98092
98097.9
98103.8
98109.5
98115.1
98120.4
98125.6
98130.5
98135.2
98139.6
98143.7
98147.4
98150.9
98154
98156.8
98159.3
98161.5
98163.4
98165
98166.3
98167.4
98168.2
98168.8
98169.1
98169.2
98169.2
98169
98168.5
98167.9
98167.1
98166.1
98165
98163.5
98161.8
98159.8
98157.4
98154.7
98151.6
98148.1
98144.1
98139.6
98134.7
98129.3
98123.4
98117.2
98110.7
98104
98097.2
98090.3
98083.7
98077.4
98071.7
98066.6
98062.5
98059.5
98057.8
98057.4
98058.6
98061.4
98066
98072.4
98080.7
98090.6
98102.4
98115.9
98131.3
98148.3
98166.8
98186.4
98207.4
98229.4
98252.3
98275.9
98299.9
98323.6
98347.1
98369.7
98391.1
98411.3
98429.7
98445.6
98458.8
98469
98476.4
98480.5
98481.7
98479.2
98473.3
98463.2
98450
98432.3
98412.8
98389.5
98364.9
98336.5
98309
98277.6
98247.7
98105.2
98105.4
98105.4
98105.1
98104.7
98104.1
98103.4
98102.5
98101.4
98100.1
98098.7
98097.2
98095.5
98093.8
98091.9
98090
98088
98085.9
98083.8
98081.7
98079.5
98077.3
98075.1
98072.9
98070.6
98068.3
98065.9
98063.5
98061.1
98058.7
98056.2
98053.8
98051.3
98048.7
98046.2
98043.6
98041
98038.3
98035.7
98033
98030.2
98027.5
98024.8
98022
98019.4
98016.7
98014.2
98011.7
98009.2
98006.9
98004.7
98002.7
98000.8
97999.1
97997.6
97996.4
97995.3
97994.6
97994.1
97994
97994.1
97994.6
97995.4
97996.5
97998
97999.8
98001.9
98004.4
98007.3
98010.5
98014
98017.7
98021.8
98026.1
98030.7
98035.4
98040.2
98045.2
98050.3
98055.4
98060.4
98065.5
98070.5
98075.4
98080.2
98084.8
98089.3
98093.5
98097.6
98101.3
98104.8
98108.1
98111
98113.7
98116
98118
98119.7
98121.2
98122.3
98123.1
98123.7
98124.1
98124.2
98124.2
98123.9
98123.3
98122.7
98121.8
98120.8
98119.6
98118.3
98116.7
98115
98113.1
98111
98108.5
98105.8
98102.7
98099.2
98095.3
98091
98086.2
98080.9
98075
98068.7
98061.9
98054.7
98047.1
98039.2
98031.1
98022.8
98014.7
98006.7
97999.1
97992.1
97985.8
97980.5
97976.2
97973.3
97971.8
97971.8
97973.5
97976.9
97982
97988.9
97997.5
98007.8
98020
98033.5
98048.7
98064.9
98082.4
98100.7
98119.9
98139.9
98160.1
98180
98199.9
98218.6
98236.2
98252.8
98267.7
98280.5
98290.8
98298.3
98303.6
98306
98306.2
98303.7
98298.7
98290.4
98279.9
98265.6
98250.3
98231.7
98212.5
98189.8
98168.6
98143.6
98120.8
98093.8
98094
98094.1
98093.9
98093.6
98093.2
98092.7
98092
98091.2
98090.3
98089.2
98088
98086.7
98085.3
98083.9
98082.3
98080.8
98079.1
98077.4
98075.7
98073.9
98072
98070.2
98068.3
98066.3
98064.2
98062.1
98060
98057.8
98055.6
98053.3
98051
98048.6
98046.2
98043.8
98041.3
98038.7
98036.1
98033.5
98030.8
98028.1
98025.3
98022.6
98019.9
98017.2
98014.5
98011.9
98009.3
98006.8
98004.4
98002.1
97999.9
97997.9
97996
97994.4
97993
97991.8
97990.8
97990.1
97989.7
97989.6
97989.7
97990.2
97991
97992.1
97993.5
97995.2
97997.2
97999.6
98002.2
98005.1
98008.3
98011.7
98015.3
98019.2
98023.1
98027.2
98031.4
98035.6
98039.8
98044
98048.2
98052.3
98056.2
98060
98063.6
98067
98070.2
98073.2
98075.9
98078.3
98080.5
98082.3
98083.9
98085.2
98086.1
98086.8
98087.2
98087.3
98087.1
98086.7
98086.2
98085.4
98084.4
98083.2
98081.8
98080.3
98078.6
98076.8
98074.8
98072.6
98070.3
98067.8
98065.1
98062.2
98058.9
98055.4
98051.5
98047.2
98042.5
98037.4
98031.8
98025.6
98019
98011.8
98004.1
97995.9
97987.3
97978.3
97969.1
97959.6
97950.1
97940.7
97931.5
97922.8
97914.6
97907.2
97900.9
97895.7
97891.9
97889.5
97888.7
97889.4
97892
97896.2
97902
97909.5
97918.7
97929.3
97941.3
97954.4
97968.7
97983.8
97999.7
98016.2
98032.8
98049.2
98065.4
98080.3
98094.1
98106.9
98118.1
98127.7
98134.9
98139.6
98142.5
98142.7
98141.3
98138
98133.3
98126.1
98117.6
98106.2
98094.2
98079.5
98065.1
98047.5
98032
98012.8
97996.8
98085.4
98085.6
98085.7
98085.7
98085.6
98085.4
98085.1
98084.6
98084.1
98083.5
98082.7
98081.9
98081
98080
98079
98077.9
98076.7
98075.5
98074.2
98072.9
98071.5
98070
98068.5
98066.8
98065.1
98063.3
98061.4
98059.5
98057.5
98055.4
98053.2
98051
98048.7
98046.3
98043.9
98041.4
98038.8
98036.2
98033.5
98030.7
98028
98025.2
98022.3
98019.5
98016.7
98013.9
98011.1
98008.4
98005.8
98003.3
98000.8
97998.5
97996.4
97994.4
97992.5
97990.9
97989.6
97988.4
97987.5
97986.9
97986.5
97986.5
97986.7
97987.2
97987.9
97989
97990.4
97992
97993.9
97996.1
97998.5
98001.2
98004.1
98007.1
98010.3
98013.6
98017
98020.5
98024
98027.5
98030.9
98034.2
98037.5
98040.5
98043.4
98046.1
98048.6
98050.9
98052.8
98054.5
98056
98057.1
98058
98058.5
98058.8
98058.7
98058.4
98057.8
98056.9
98055.8
98054.4
98052.9
98051.2
98049.2
98047.1
98044.9
98042.6
98040
98037.3
98034.5
98031.5
98028.3
98025
98021.4
98017.6
98013.6
98009.2
98004.5
97999.4
97993.9
97987.9
97981.5
97974.5
97967.1
97959.1
97950.6
97941.6
97932.1
97922.2
97912
97901.6
97890.9
97880.3
97869.8
97859.5
97849.8
97840.7
97832.6
97825.6
97819.8
97815.3
97812.4
97811
97811.3
97813.1
97816.6
97821.5
97828.1
97836
97845.3
97855.7
97867.1
97879.3
97892.1
97905.3
97918.6
97931.6
97944.1
97955.3
97965.5
97974.4
97982
97987.9
97991.8
97993.6
97994
97991.8
97988.4
97984
97978.8
97972
97964.8
97955.5
97946.2
97934.8
97924.5
97911.3
97901
97887
97877.2
98079.4
98079.7
98079.9
98080
98080
98079.9
98079.8
98079.7
98079.4
98079.2
98078.8
98078.5
98078
98077.5
98076.9
98076.3
98075.6
98074.8
98074
98073
98072
98070.9
98069.6
98068.3
98066.8
98065.2
98063.6
98061.7
98059.8
98057.8
98055.7
98053.5
98051.2
98048.8
98046.3
98043.7
98041
98038.3
98035.5
98032.7
98029.8
98026.8
98023.8
98020.9
98017.9
98014.9
98012
98009.1
98006.3
98003.6
98001
97998.6
97996.2
97994.1
97992.1
97990.4
97988.8
97987.5
97986.5
97985.6
97985.1
97984.8
97984.8
97985.1
97985.6
97986.4
97987.5
97988.8
97990.4
97992.2
97994.2
97996.5
97998.9
98001.5
98004.2
98006.9
98009.8
98012.6
98015.5
98018.3
98021.1
98023.7
98026.2
98028.5
98030.6
98032.4
98034.1
98035.4
98036.5
98037.3
98037.8
98038.1
98038
98037.6
98036.9
98035.9
98034.7
98033.1
98031.3
98029.2
98026.9
98024.4
98021.8
98019
98016
98012.9
98009.6
98006.2
98002.6
97998.9
97995
97991
97986.8
97982.3
97977.7
97972.7
97967.5
97961.9
97956
97949.7
97943
97935.7
97928
97919.8
97911.1
97901.9
97892.2
97882
97871.3
97860.4
97849.1
97837.5
97825.9
97814.3
97802.8
97791.8
97781.4
97772
97763.4
97755.9
97749.8
97745.1
97741.9
97740.2
97740.1
97741.4
97744.2
97748.5
97754.1
97760.9
97768.8
97777.8
97787.3
97797.2
97807.3
97817.3
97827.1
97836.1
97843.8
97850.3
97855.4
97859.3
97861.5
97862
97860.7
97858.4
97853.8
97848.4
97842.2
97836
97829.2
97822.6
97814.7
97807.5
97798.7
97791.9
97782.5
97776.7
97767.3
97763
98075.1
98075.4
98075.6
98075.8
98076
98076.1
98076.3
98076.5
98076.7
98076.9
98077.1
98077.3
98077.4
98077.4
98077.4
98077.3
98077.1
98076.7
98076.3
98075.7
98075.1
98074.3
98073.3
98072.2
98070.9
98069.5
98068
98066.2
98064.4
98062.4
98060.3
98058
98055.7
98053.2
98050.6
98047.9
98045.1
98042.2
98039.3
98036.3
98033.2
98030
98026.9
98023.7
98020.5
98017.4
98014.3
98011.2
98008.2
98005.4
98002.6
98000
97997.5
97995.2
97993.1
97991.2
97989.5
97988.1
97986.9
97985.9
97985.2
97984.8
97984.6
97984.7
97985
97985.6
97986.5
97987.6
97988.9
97990.4
97992.2
97994.1
97996.1
97998.3
98000.6
98002.9
98005.3
98007.7
98010
98012.2
98014.4
98016.4
98018.2
98019.8
98021.2
98022.4
98023.2
98023.8
98024.1
98024.1
98023.8
98023.2
98022.2
98021
98019.4
98017.6
98015.4
98013
98010.2
98007.3
98004.1
98000.7
97997.2
97993.5
97989.6
97985.6
97981.5
97977.2
97972.7
97968.1
97963.4
97958.5
97953.3
97948
97942.4
97936.6
97930.5
97924.2
97917.4
97910.3
97902.8
97894.8
97886.4
97877.5
97868.2
97858.4
97848.1
97837.3
97826
97814.5
97802.5
97790.2
97777.8
97765.4
97753
97741
97729.7
97719.1
97709.2
97700.5
97693
97686.9
97682.1
97678.8
97676.9
97676.5
97677.5
97679.9
97683.4
97688
97693.7
97700.5
97707.6
97714.7
97721.8
97728.7
97735.3
97741
97745.3
97748.4
97749.7
97749.8
97748.4
97745.4
97741
97735.8
97728.8
97721.1
97713.1
97705.7
97698.3
97691.9
97684.7
97679
97672.3
97668.1
97661.8
97660.1
97654.7
97655.4
98071.4
98071.5
98071.8
98071.9
98072.2
98072.7
98073.3
98074.1
98074.9
98075.9
98076.7
98077.6
98078.4
98079.1
98079.7
98080.1
98080.4
98080.5
98080.5
98080.3
98079.9
98079.4
98078.7
98077.8
98076.7
98075.4
98074
98072.3
98070.5
98068.5
98066.3
98064
98061.6
98059
98056.3
98053.4
98050.5
98047.5
98044.3
98041.1
98037.8
98034.5
98031.1
98027.8
98024.4
98021
98017.7
98014.5
98011.4
98008.3
98005.4
98002.6
98000
97997.6
97995.4
97993.4
97991.6
97990
97988.7
97987.7
97986.9
97986.3
97986
97986
97986.2
97986.6
97987.3
97988.2
97989.4
97990.7
97992.2
97993.9
97995.6
97997.5
97999.4
98001.4
98003.4
98005.3
98007.1
98008.9
98010.5
98012
98013.2
98014.2
98015
98015.5
98015.7
98015.6
98015.2
98014.5
98013.4
98012
98010.3
98008.2
98005.9
98003.2
98000.2
97997
97993.4
97989.6
97985.6
97981.4
97977
97972.4
97967.7
97962.9
97957.9
97952.7
97947.4
97941.9
97936.3
97930.5
97924.5
97918.2
97911.8
97905.2
97898.3
97891.1
97883.6
97875.8
97867.5
97858.9
97849.8
97840.4
97830.5
97820.2
97809.3
97798.1
97786.4
97774.4
97761.8
97749
97736
97723
97710
97697.4
97685.3
97673.8
97662.9
97653.2
97644.5
97637.1
97631
97626.3
97623
97621.1
97620.6
97621.3
97622.9
97625.7
97629.5
97634
97639
97643.6
97647.8
97651.7
97655.3
97657.8
97659
97658.7
97656.4
97652.8
97647.7
97641.3
97633.6
97625.4
97616
97606.2
97596.3
97587.5
97579.2
97572.6
97565.7
97561.2
97555.9
97553.9
97550.2
97551.9
97550.1
97555
98066.5
98066.5
98066.6
98066.9
98067.6
98068.9
98070.3
98072.1
98073.9
98075.7
98077.5
98079.1
98080.7
98082.1
98083.3
98084.2
98085
98085.6
98085.9
98086
98086
98085.6
98085.1
98084.4
98083.4
98082.2
98080.8
98079.2
98077.4
98075.3
98073.2
98070.8
98068.3
98065.6
98062.7
98059.7
98056.6
98053.4
98050.1
98046.7
98043.3
98039.7
98036.2
98032.7
98029.1
98025.6
98022.1
98018.7
98015.4
98012.2
98009.2
98006.3
98003.6
98001.1
97998.8
97996.6
97994.8
97993.2
97991.8
97990.6
97989.8
97989.1
97988.7
97988.6
97988.7
97989.1
97989.7
97990.5
97991.5
97992.7
97994
97995.4
97997
97998.6
98000.2
98001.8
98003.5
98005
98006.4
98007.8
98008.9
98009.9
98010.6
98011.1
98011.3
98011.2
98010.8
98010.1
98009
98007.6
98005.9
98003.8
98001.3
97998.6
97995.5
97992
97988.3
97984.3
97980
97975.4
97970.6
97965.6
97960.4
97955
97949.5
97943.9
97938.1
97932.1
97926
97919.7
97913.2
97906.6
97899.8
97892.7
97885.5
97878
97870.4
97862.5
97854.3
97845.7
97836.8
97827.6
97818.1
97808.2
97797.8
97787
97775.8
97764.2
97752.2
97739.8
97726.9
97713.7
97700.3
97686.8
97673.5
97660.5
97647.8
97635.5
97624
97613.3
97603.7