/*--------------------------------*- C++ -*----------------------------------*\
| =========                 |                                                 |
| \\      /  F ield         | OpenFOAM: The Open Source CFD Toolbox           |
|  \\    /   O peration     | Version:  dev                                   |
|   \\  /    A nd           | Web:      http://www.openfoam.org               |
|    \\/     M anipulation  |                                                 |
\*---------------------------------------------------------------------------*/
FoamFile
{
    version     2.0;
    format      ascii;
    class       volScalarField;
    object      T;
    location    "9.118";
}
// * * * * * * * * * * * * * * * * * * * * * * * * * * * * * * * * * * * * * //

dimensions      [0 0 0 1 0 0 0];

internalField   nonuniform List<scalar> 
12225
(
306.067
306.363
305.774
305.243
304.724
304.251
303.897
303.311
303.196
302.386
302.556
301.403
301.935
299.972
301.043
297.586
299.435
296.742
306.839
306.234
305.022
303.799
303.06
301.7
301.473
299.731
300.23
297.909
299.381
296.073
298.882
294.038
297.951
292.122
296.406
293.147
306.984
306.189
305.22
303.713
303.231
301.516
301.372
299.318
299.501
297.132
297.867
295.282
296.397
294.026
295.456
293.554
294.389
292.299
306.865
306.205
305.193
304.127
303.255
302.444
301.349
300.855
299.361
299.129
297.438
297.583
295.799
295.911
294.607
294.564
293.659
292.648
306.536
306.698
304.796
304.729
303.019
303.288
301.384
301.81
299.829
300.098
298.13
298.313
296.502
296.422
294.959
294.774
293.608
292.915
306.077
307.042
304.561
305.025
303.002
303.482
301.497
301.863
300.096
300.218
298.477
298.402
296.917
296.718
295.32
295.092
293.856
293.283
305.96
307.071
304.5
304.998
302.989
303.32
301.547
301.711
300.333
300.155
298.802
298.425
297.341
296.819
295.756
295.143
294.146
293.471
305.898
307.055
304.488
305.12
303.104
303.493
301.706
301.865
300.491
300.271
299.005
298.617
297.598
297.022
296.132
295.421
294.562
293.874
305.672
306.946
304.507
305.142
303.181
303.577
301.909
302.036
300.776
300.526
299.373
298.913
297.979
297.317
296.569
295.803
295.11
294.425
305.698
306.751
304.582
305.205
303.481
303.786
302.302
302.305
301.208
300.923
299.922
299.451
298.63
297.944
297.305
296.562
295.983
295.34
305.734
306.571
304.867
305.225
303.93
304.062
302.969
302.805
301.941
301.583
300.768
300.256
299.532
298.844
298.287
297.6
297.111
296.544
305.711
306.236
305.14
305.284
304.445
304.408
303.702
303.405
302.774
302.391
301.789
301.275
300.663
300.061
299.58
299.004
298.574
298.067
305.638
305.993
305.421
305.459
304.98
304.89
304.514
304.225
303.853
303.527
303.112
302.618
302.122
301.592
301.158
300.685
300.288
299.845
305.331
305.652
305.499
305.592
305.449
305.417
305.293
305.103
304.932
304.714
304.448
304.048
303.698
303.282
302.957
302.589
302.319
301.965
304.905
305.221
305.355
305.585
305.741
305.887
305.976
305.965
305.953
305.863
305.722
305.476
305.284
305.008
304.823
304.584
304.441
304.221
304.15
304.581
304.945
305.357
305.751
306.069
306.316
306.494
306.642
306.689
306.697
306.624
306.578
306.466
306.419
306.314
306.293
306.21
303.248
303.543
304.03
304.61
305.179
305.621
305.946
306.28
306.571
306.72
306.824
306.909
306.996
307.051
307.065
307.089
307.162
307.14
302.094
302.138
302.619
303.223
303.8
304.243
304.472
304.844
305.23
305.377
305.416
305.573
305.736
305.833
305.808
305.864
305.955
305.923
300.911
300.534
300.856
301.305
301.737
302.097
302.162
302.417
302.804
302.88
302.722
302.848
303.007
303.029
302.912
302.923
302.975
302.883
299.936
299.097
299.171
299.354
299.54
299.797
299.789
299.82
300.045
300.103
299.779
299.712
299.762
299.682
299.465
299.415
299.362
299.189
299.001
297.819
297.701
297.669
297.591
297.651
297.603
297.469
297.369
297.363
297.074
296.793
296.618
296.443
296.178
296.042
295.865
295.658
298.281
296.7
296.382
296.188
295.926
295.771
295.572
295.376
295.085
294.85
294.613
294.282
293.849
293.628
293.282
293
292.801
292.539
297.741
295.864
295.395
295.046
294.648
294.365
293.99
293.684
293.391
292.998
292.598
292.23
291.757
291.413
290.991
290.664
290.371
290.057
297.366
295.262
294.661
294.167
293.606
293.147
292.696
292.295
291.933
291.557
291.091
290.651
290.209
289.739
289.298
288.949
288.542
288.263
297.115
294.765
293.99
293.435
292.885
292.368
291.864
291.402
290.922
290.469
290.001
289.52
289.001
288.545
288.051
287.617
287.226
286.847
296.84
294.383
293.547
292.933
292.324
291.774
291.219
290.69
290.181
289.708
289.184
288.701
288.167
287.644
287.119
286.617
286.129
285.682
296.683
294.175
293.307
292.626
291.945
291.333
290.72
290.176
289.598
289.033
288.4
287.757
287.075
286.417
285.766
285.159
284.572
284.041
296.575
293.997
293.104
292.394
291.667
290.969
290.259
289.586
288.865
288.125
287.294
286.486
285.648
284.917
284.177
283.567
282.957
282.463
296.537
293.856
292.943
292.201
291.428
290.652
289.86
289.07
288.242
287.432
286.648
285.953
285.322
284.817
284.333
284.041
283.66
283.506
296.987
294.825
294.19
293.622
293.057
292.555
292.111
291.72
291.366
291.068
290.811
290.596
290.416
290.285
290.18
290.126
290.065
290.032
278.109
265.751
264.204
266.512
268.172
269.317
270.25
271.249
272.139
273.025
273.953
274.799
275.591
276.457
277.267
277.86
278.382
278.938
279.233
279.153
279.463
279.662
279.373
279.941
279.832
280.075
280.694
280.202
281.327
280.521
280.75
280.888
279.15
280.505
283.335
284.813
284.933
285.197
284.665
284.446
284.972
284.972
284.554
283.093
282.158
282.374
281.264
281.277
284.853
287.94
288.395
287.896
289.882
292.547
293.858
296.115
301.242
302.648
300.492
298.921
297.936
297.383
297.037
296.807
296.65
296.539
296.457
296.377
296.313
296.241
296.155
296.048
295.931
295.792
295.626
295.439
295.229
294.989
294.723
294.419
294.065
293.677
293.214
292.729
292.262
291.75
291.158
290.528
289.979
289.345
288.692
288.084
287.496
286.904
286.268
285.678
285.048
284.535
284.07
283.447
283.15
283.102
283.495
284.08
284.596
284.867
285.114
285.423
285.511
285.29
284.611
283.681
282.864
281.747
280.065
278.459
277.534
276.398
275.2
273.922
273.255
272.704
273.587
275.643
277.179
278.118
278.92
278.742
279.342
279.42
278.227
278.62
281.112
281.699
281.698
284.46
288.136
289.074
290.204
291.161
289.092
285.045
287.55
288.301
281.352
280.464
282.063
281.493
281.538
281.178
281.416
281.195
281.422
281.909
282.809
283.717
283.577
281.468
279.01
274.735
272.012
268.04
270.293
271.668
272.063
271.864
258.026
246.078
253.466
265.918
269.523
261.061
258.431
264.081
267.364
267.997
268.219
272.005
269.759
276.883
281.688
268.857
262.508
262.669
265.037
267.782
269.573
271.171
272.566
273.949
275.727
277.646
279.098
280.411
281.693
282.499
282.897
283.04
282.694
282.159
281.794
281.04
280.299
279.876
279.692
279.701
279.714
280.744
281.071
281.765
282.393
283.413
283.051
280.978
282.415
277.929
272.255
271.94
272.029
270.987
270.943
271.547
273.048
269.534
268.401
265.344
269.453
274.099
274.875
283.688
283.231
277.704
288.12
293.485
293.289
293.577
292.953
292.369
291.427
291.308
291.048
291.173
291.126
291.274
291.323
291.423
291.463
291.486
291.494
291.458
291.372
291.196
290.981
290.734
290.441
290.149
289.766
289.418
289
288.616
288.133
287.532
286.843
286.024
285.277
284.647
283.757
282.583
281.515
280.69
279.513
278.5
277.354
276.311
275.213
274.145
273.021
272.041
270.997
270.05
269.378
269.248
270.154
272.193
274.478
275.746
276.261
277.744
280.104
280.723
280.171
280.308
280.598
279.556
276.302
271.404
266.902
263.197
261
261.337
262.631
258.947
252.336
252.813
259.765
270.456
281.443
283.42
286.84
288.156
285.043
274.646
264.515
257.127
251.718
255.353
269.086
278.084
283.155
284.947
279.877
278.069
282.317
280.801
269.239
275.189
268.416
268.821
269.877
272.954
272.964
273.298
271.794
270.879
270.186
270.121
270.779
270.838
269.574
259.723
250.228
238.93
243.447
245.157
248.313
240.364
222.557
219.806
228.033
239.344
247.784
232.896
222.657
221.347
230.747
235.126
231.142
239.634
229.837
247.752
285.217
276.281
271.509
272.636
275.45
277.863
279.127
280.15
281.014
282.037
283.166
284.864
285.95
286.528
286.624
285.907
284.278
282.414
280.346
277.99
275.865
274.345
273.104
271.693
271.184
271.623
270.888
271.62
272.458
274.734
276.377
277.281
280.713
282.898
284.912
283.735
277.876
273.14
272.429
268.122
265.8
270.058
272.607
268.191
273.161
272.234
283.407
294.269
288.199
289.407
288.37
291.462
292.619
292.476
292.411
292.186
292.584
292.645
293.51
293.935
294.7
295.2
295.88
296.289
296.812
297.13
297.507
297.747
297.999
298.21
298.365
298.454
298.435
298.441
298.34
298.258
298.112
297.939
297.744
297.586
297.365
297.048
296.746
296.133
295.527
295.147
294.639
293.583
292.453
291.67
290.446
289.313
287.671
286.184
284.637
283.006
281.03
279.145
276.916
275.465
273.642
271.788
269.227
267.799
269.83
274.838
278.001
277.983
279.157
281.783
283.053
284.263
286.569
288.018
288.228
287.471
281.928
275.137
269.064
272.777
283.565
286.786
270.724
250.066
256.355
283.157
308.201
314.256
318.21
317.347
314.638
302.261
285.017
267.284
248.918
249.058
263.018
273.026
279.827
284.514
279.552
283.661
280.465
260.555
272.645
288.437
274.254
278.461
278.287
286.22
284.667
286.858
285.751
280.649
274.794
271.98
268.705
264.866
264.91
263.344
254.83
235.805
235.052
233.627
244.125
240.775
222.137
231.437
232.03
238.158
242.458
229.772
227.557
211.067
212.853
221.338
210.776
219.177
205.413
223.519
288.011
282.876
281.342
283.051
285.633
287.23
288.299
289.137
290.044
291.436
292.207
292.864
292.241
290.697
288.434
285.423
281.719
278.5
276.162
274.173
272.99
272.517
272.134
271.326
270.25
269.13
268.383
267.901
266.716
266.953
268.264
270.308
271.918
273.863
278.012
282.76
283.856
283.712
278.824
268.194
269.834
275.34
268.28
274.351
295.996
298.559
288.839
293.318
290.086
291.089
291.877
291.657
291.927
291.719
292.155
292.805
293.639
294.179
295.247
295.682
296.79
296.876
297.755
297.801
298.475
298.535
298.908
298.981
299.188
299.235
299.382
299.452
299.524
299.552
299.584
299.524
299.519
299.422
299.332
299.292
299.171
298.937
298.855
298.693
298.619
298.494
298.4
298.084
298.104
297.915
297.67
297.544
297.143
296.636
296.048
295.36
294.261
292.553
290.448
288.659
285.575
283.282
279.579
275.876
272.187
270.649
272.705
276.509
278.607
279.481
280.66
282.265
280.989
276.719
278.743
288.958
292.745
290.931
285.073
284.823
297.19
310.562
309.04
271.992
250.967
269.338
299.026
309.899
313.874
313.715
310.512
305.635
297.897
278.332
258.021
256.15
262.1
270.063
276.81
282.927
280.639
290.218
285.67
254.652
274.377
295.834
294.843
301.455
295.727
300.545
295.942
293.233
293.172
295.117
288.069
280.864
277.576
272.594
265.277
261.037
261.108
249.005
235.021
232.622
233.996
253.398
243.167
245.967
233.312
235.528
239.68
224.994
232.287
212.514
208.24
214.736
204.169
204.369
200.402
212.556
290.045
287.095
287.13
288.908
291.359
293.444
294.446
294.778
295.245
295.111
294.402
294.049
292.995
291.479
289.711
287.095
283.803
281.502
280.241
279.646
279.638
279.538
278.71
277.549
276.261
274.838
273.898
272.517
270.928
269.831
269.326
269.353
268.246
268.496
270.042
274.3
277.596
281.545
278.348
272.469
276.703
272.852
278.028
295.448
293.52
289.902
291.608
291.741
290.309
291.326
291.452
290.99
292.782
292.636
294.532
294.99
296.438
297.239
298.203
298.717
299.387
299.854
300.321
300.678
301.006
301.339
301.562
301.837
302.008
302.145
302.341
302.371
302.525
302.505
302.508
302.492
302.303
302.163
301.818
301.546
301.292
300.889
300.609
300.206
299.814
299.364
299.268
298.58
298.28
297.871
297.7
297.194
297.291
296.986
297.285
296.713
297.056
297.119
296.818
297.604
295.925
295.534
293.016
290.247
284.608
278.089
274.126
273.265
272.518
274.798
278.811
276.924
275.786
281.22
284.808
281.97
281.805
289.519
294.119
292.294
296.366
308.137
324.803
309.905
262.351
256.863
277.844
289.464
298.056
307.403
310.828
305.632
296.558
278.409
264.524
263.754
263.695
267.044
278.545
278.963
280.606
295.657
298.701
280.007
285.479
305.287
309.186
318.297
309.804
313.652
306.205
300.539
290.826
289.739
291.768
288.687
282.31
281.415
276.348
265.333
261.814
261.172
240.897
234.787
227.818
248.731
228.169
239.331
235.156
237.62
240.865
218.246
234.96
219.073
213.036
207.858
211.185
190.087
209.222
217.61
291.672
290.124
290.959
293.19
295.398
296.542
295.419
294.69
294.369
294.583
296.258
298.344
298.765
297.565
294.507
289.565
284.619
281.673
279.938
278.898
278.397
278.959
280.02
280.98
280.861
279.393
277.906
275.725
273.252
271.048
269.881
271.716
273.584
272.785
270.266
270.782
271.757
276.395
276.027
276.67
279.758
274.464
284.344
295.286
290.651
289.875
292.358
290.348
290.925
291.884
292.094
293.2
295.049
295.342
297.628
297.55
298.917
299.032
299.386
299.956
299.872
300.578
300.343
301.059
300.977
301.551
301.59
301.956
302.231
302.429
302.852
302.974
303.445
303.661
303.771
304.353
304.29
304.726
304.805
304.922
304.951
304.774
304.664
304.327
304.27
303.497
303.494
302.725
302.222
301.415
301.261
300.106
300.512
298.891
298.975
298.418
297.509
298.26
296.565
297.528
296.005
297.056
297.679
297.509
296.515
293.773
288.872
282.937
278.964
277.136
274.998
274.267
277.632
276.635
274.732
279.986
285.654
284.577
285.783
290.153
290.93
288.368
301.383
327.369
293.931
262.71
265.188
270.728
278.846
297.333
314.266
313.018
298.457
278.999
269.243
267.12
263.854
263.501
279.192
281.82
278.386
283.915
301.615
303.074
309.037
314.213
312.406
323.732
310.546
315.033
306.198
303.236
296.963
292.77
291.186
291.301
285.652
281.263
282.386
275.609
263.605
269.774
252.275
237.555
229.859
239.824
216.202
249.022
239.196
240.42
240.411
216.647
234.438
232.019
228.173
208.564
212.826
183.081
237.401
235.881
293.022
292.37
293.428
294.937
296.159
296.464
295.773
296.145
297.254
299.748
301.257
300.179
296.602
293.017
289.17
286.689
286.41
286.786
285.897
285.91
287.244
289.156
291.423
292.962
293.515
292.758
290.992
288.37
283.751
276.762
270.03
269.599
271.973
272.611
273.288
273.217
272.467
276.657
277.38
280.7
280.401
276.481
289.011
294.649
289.561
290.645
292.49
290.324
292.614
293.341
293.939
296.117
296.784
297.513
298.838
298.347
299.147
299.006
299.329
299.801
299.763
300.557
300.49
301.22
301.224
301.703
302.021
302.102
302.416
302.394
302.847
302.719
302.926
303.318
302.882
303.649
303.481
303.756
304.024
304.125
304.481
304.493
304.981
304.809
305.093
305.06
304.918
305.011
304.675
304.347
304.431
303.525
303.513
303.144
302.189
302.953
301.148
301.34
300.386
299.714
299.854
298.914
298.134
297.253
298.01
297.243
295.714
295.419
293.782
287.269
284.827
287.939
285.251
278.937
281.476
283.961
283.639
283.058
284.407
291.684
302.103
293.422
278.629
301.437
320.349
293.669
275.442
269.96
268.938
282.389
306.062
317.285
302.985
281.323
271.746
268.196
264.819
264.603
274.033
287.924
277.384
275.158
292.606
309.144
314.75
315.574
313.77
327.489
309.038
313.957
302.16
297.276
290.01
288.32
290.084
291.298
290.687
285.206
283.037
284.322
266.899
274.481
264.348
242.746
241.608
237.788
211.056
252.441
238.379
244.462
240.687
219.533
228.358
238.637
234.858
216.783
212.493
187.331
234.694
234.324
294.207
294.199
295.306
296.149
297.362
298.137
297.661
297.717
297.933
298.143
297.612
297.186
297.807
299.316
299.741
299.985
300.017
298.402
295.918
294.94
295.113
295.472
295.936
296.199
296.234
295.798
294.956
294.553
294.5
291.323
283.4
276.132
272.158
272.155
274.685
274.704
274.592
277.446
279.338
283.478
279.886
279.016
292.399
293.466
289.424
291.334
292.919
291.196
294.697
294.846
295.834
298.135
297.736
298.956
298.916
298.731
299.532
299.276
300.136
300.373
300.753
301.057
301.208
301.55
301.886
302.054
302.494
302.57
303.002
302.784
303.272
303.524
303.74
303.914
303.936
304.146
304.351
304.532
304.71
304.755
304.925
304.788
304.868
304.962
304.977
305.111
304.724
304.807
304.158
304.147
303.851
303.834
303.763
303.969
304.313
303.393
303.85
302.834
302.353
301.54
301.471
300.087
300.004
300.758
299.621
299.88
300.451
297.218
296.058
297.823
295.476
292.771
295.526
295.689
292.195
289.941
295.827
297.504
290.316
289.743
303.727
316.771
302.78
291.094
308.58
321.914
306.92
294.136
280.025
279.699
300.025
320.208
309.382
284.488
274.073
268.159
267.334
272.006
269.277
286.09
268.895
271.43
286.402
301.562
306.149
311.869
312.629
321.602
307.141
310.642
300.129
297.591
292.522
290.288
291.232
292.736
290.344
290.11
282.253
291.617
272.155
276.952
276.605
249.475
258.133
241.47
215.756
257.147
235.1
243.177
235.953
228.831
231.075
241.589
244.137
214.084
214.16
190.367
216.933
220.72
295.271
295.745
296.821
297.245
298.65
299.635
299.193
298.955
299.248
300.536
300.188
298.372
297.625
298.121
297.814
297.649
296.635
294.066
292.789
292.858
292.671
292.447
293.039
293.169
292.68
291.964
292.114
292.795
294.422
294.56
290.616
283.401
275.8
273.327
273.629
273.669
274.219
275.431
279.927
284.365
279.119
282.324
294.403
292.611
290.3
292.158
294.128
292.365
296.599
296.324
297.46
299.574
298.066
299.561
298.757
298.714
299.649
299.293
300.095
299.641
299.839
299.74
300.035
300.191
300.58
300.76
301.297
301.072
301.395
300.927
300.939
300.539
301.416
300.872
301.4
301.503
301.718
302.365
302.725
303.271
303.683
303.7
304.356
303.852
304.857
304.138
305.05
304.69
304.759
303.865
303.764
302.678
302.978
302.814
303.003
303.668
303.978
303.739
304.514
303.761
301.305
301.813
300.055
299.162
301.91
300.692
299.73
303.073
298.991
297.894
302.245
299.475
295.285
297.442
300.284
296.775
297.492
303.217
304.478
298.202
294.247
304.794
311.81
305.297
295.024
314.982
323.537
320.361
303.463
289.378
299.802
322.482
317.539
290.367
276.648
268.968
270.068
276.798
273.032
277.35
266.133
270.851
282.102
294.661
304.285
311.513
314.468
314.269
305.771
308.484
296.469
295.823
288.398
292.388
290.136
299.216
293.299
295.923
280.856
296.85
278.814
278.637
286.312
256.471
271.741
250.906
220.066
268.357
247.115
242.982
227.063
245.994
238.643
246.704
239.665
206.297
241.762
198.338
201.738
216.994
296.296
297.315
298.855
300.372
302.133
301.178
300.091
300.121
299.469
298.684
298.287
298.83
298.846
297.544
295.632
294.366
291.588
288.94
289.035
288.891
288.526
289.619
291.293
291.526
291.433
291.413
291.772
292.494
293.526
294.166
293.164
289.293
282.252
277.68
274.662
273.447
274.601
273.836
279.018
284.166
279.229
285.342
294.799
292.368
290.957
292.46
295.53
293.484
297.855
297.73
298.216
300.424
297.984
299.317
298.39
298.696
299.619
299.145
299.381
298.831
299.046
299.259
299.948
300.676
301.504
301.722
302.445
302.307
302.809
301.494
301.647
299.875
299.828
299.456
299.2
299.481
299.419
299.366
299.699
299.775
300.82
300.686
302.055
300.982
301.847
301.655
301.566
302.658
302.673
303.523
303.064
303.228
301.508
301.09
301.295
300.518
300.292
302.306
301.85
302.381
303.494
301.382
301.765
300.652
298.278
301.599
299.951
300.632
303.442
300.878
299.172
302.05
300.71
297.836
300.84
301.833
298.695
297.588
303
306.805
299.569
297.358
305.738
315.038
299.108
298.573
313.987
323.621
318.09
298.846
300.088
321.925
324.331
297.315
279.691
270.563
271.218
277.516
280.165
272.287
268.666
276.635
285.561
294.355
305.359
310.763
310.865
312.593
305.086
308.957
293.488
299.038
286.641
296.355
287.445
299.822
292.165
303.139
284.474
298.95
283.607
280.315
293.988
264.317
280.501
261.782
231.848
272.038
244.692
240.321
211.923
250.609
240.352
243.722
232.479
252.466
236.809
205.616
195.207
229.451
297.273
298.809
300.752
302.412
303.198
302.72
303.03
303.895
303.585
302.196
299.638
297.196
295.373
294.538
294.91
296.318
296.462
296.265
296.766
294.83
292.57
291.73
291.354
290.697
291.023
291.475
291.686
292.124
293.147
294.134
294.405
292.581
287.562
283.173
277.85
273.755
274.353
273.195
274.643
279.144
278.691
287.364
294.35
293.608
292.632
293.325
297.23
294.769
298.927
299.375
298.525
300.811
297.672
299.239
298.387
298.843
299.383
298.712
298.409
298.22
298.681
299.338
300.044
300.511
301.449
301.87
302.686
302.058
303.168
302.135
301.357
300.294
298.461
298.024
297.466
298.026
298.158
298.258
298.06
297.857
298.51
299.174
299.448
301.452
299.558
301.8
299.292
299.806
299.973
299.683
300.814
301.91
301.312
302.063
300.923
300.688
300.405
298.738
300.137
299.327
300.017
302.43
300.47
300.859
298.428
297.133
299.521
300.028
300.48
303.957
303.259
301.624
303.159
301.685
299.165
301.45
306.095
301.613
297.798
305.514
307.353
298.895
296.282
310.432
309.699
296.64
306.195
316.138
322.373
306.071
300.421
318.818
328.303
305.78
283.113
273.179
273.125
277.947
282.014
275.827
277.5
283.471
289.379
294.821
302.809
309.631
307.8
309.227
302.557
304.075
289.804
298.659
283.994
299.619
289.846
304.864
292.863
308.952
286.66
300.707
289.711
281.877
299.017
272.753
286.821
270.481
242.916
276.837
243.705
240.222
203.395
245.424
239.415
239.838
240.233
235.872
201.298
216.317
204.392
239.978
298.016
299.52
300.734
300.691
300.006
300.147
301.157
302.757
302.876
301.903
300.397
299.806
299.368
298.447
296.933
295.021
292.35
290.561
291.301
292.491
292.824
292.267
292.161
291.494
291.101
291.192
291.456
291.934
292.865
293.817
294.617
294.444
292.102
289.025
283.444
277.995
278.56
278.937
273.464
273.03
277.485
286.916
291.614
293.062
293.244
292.874
297.817
295.495
299.182
300.294
298.289
300.885
297.64
298.886
298.288
298.892
298.845
298.262
298.214
298.309
298.629
298.927
299.269
299.06
299.35
299.328
300.865
301.391
301.282
302.721
301.336
300.545
298.585
297.624
296.471
296.878
296.315
296.996
296.944
297.244
296.775
298.023
296.915
299.394
298.847
300.099
300.953
299.692
300.113
299.688
296.985
299.524
298.836
298.394
300.748
300.068
299.623
300.259
299.185
300.126
298.795
298.67
299.461
299.141
299.88
298.363
297.072
299.959
299.893
300.2
303.494
302.593
302.415
305.548
304.385
298.935
302.155
305.639
299.987
300.218
309.554
307.614
297.214
302.696
313.385
300.08
302.064
309.781
318.869
311.236
301.007
315.053
330.505
316.023
286.069
275.963
275.836
278.526
285.405
280.736
284.528
288.712
293.466
295.254
302.248
306.836
306.488
307.526
303.832
302.775
291.029
300.884
285.084
302.812
290.43
309.368
294.249
312.577
291.944
304.233
293.668
285.189
301.464
279.102
290.89
275.81
252.978
278.631
241.628
241.611
220.694
242.449
236.752
237.41
232.332
216.174
216.937
222.784
222.423
227.966
298.593
299.84
300.46
300.866
303.017
302.753
301.569
303.505
302.412
301.489
300.622
299.702
299.528
298.802
297.107
296.31
296.423
294.867
293.947
293.234
292.618
292.686
292.632
291.929
291.673
291.675
291.405
291.926
292.578
293.092
294.332
295.135
294.509
293.193
289.962
286.142
287.141
287.002
276.366
272.723
279.716
287.538
290.962
293.967
294.743
293.443
299.212
296.849
299.735
301.248
298.726
300.928
298.128
298.624
298.353
298.8
298.591
298.469
298.291
298.204
298.726
298.738
298.784
298.34
298.774
298.651
298.123
300.235
300.528
302.066
302.815
302.407
300.879
300.167
298.91
298.672
297.689
297.597
297.349
297.481
298.157
298.171
298.808
298.511
298.733
298.477
298.869
299.416
298.917
300.242
299.283
299.847
299.717
299.332
299.681
299.989
298.987
300.439
300.567
299.877
300.618
300.265
299.83
299.06
297.498
299.086
296.783
296.625
300.124
299.643
301.756
304.602
302.177
302.676
307.08
303.255
300.759
306.483
304.968
297.47
302.965
308.373
300.055
299.347
310.822
304.778
300.668
308.855
315.369
314.293
302.834
309.535
331.897
327.694
293.838
278.426
277.035
278.895
285.902
284.586
287.658
291.766
295.405
292.946
300.891
305.226
304.15
306.182
300.598
299.267
291.044
298.24
283.846
304.807
292.544
313.752
297.377
318.12
296.712
307.282
296.493
288.173
304.694
284.889
295.129
279.712
261.969
277.518
239.531
241.597
247.084
241.747
238.107
240.426
230.936
225.243
215.458
202.737
249.662
214.911
299.154
300.402
301.249
302.019
302.347
301.396
301.671
302.857
303.049
303.289
302.592
300.339
298.954
299.673
299.001
297.052
296.516
296.431
295.383
293.997
293.774
293.218
293.289
292.795
291.871
291.813
291.524
291.682
292.041
292.574
293.493
294.762
294.965
295.12
293.92
292.216
292.005
289.313
279.373
277.711
283.711
287.852
290.301
294.031
294.748
293.745
299.557
297.475
299.953
301.673
299.415
300.567
298.516
298.366
298.368
298.532
298.387
298.596
298.576
298.637
298.881
298.392
299.303
300.214
299.938
300.818
299.966
299.2
299.376
300.003
301.601
303.374
302.868
302.473
300.721
299.84
298.809
298.06
298.342
297.367
298.385
298.22
299.301
299.601
300.582
300.77
301.369
300.61
299.977
300.203
299.448
300.137
300.831
299.496
301.292
300.956
300.272
301.101
301.126
300.405
299.639
300.282
299.342
301.197
298.512
298.688
299.889
296.678
299.234
299.967
299.244
303.882
303.97
300.847
305.016
306.155
301.463
303.532
307.093
299.472
300.035
307.801
301.759
298.344
307.114
307.463
299.965
306.234
315.127
314.658
305.98
305.512
328.113
336.793
301.533
283.043
278.711
278.274
285.388
286.422
286.752
293.37
295.093
291.639
300.289
301.99
302.471
305.879
300.548
297.552
292.726
298.344
289.051
310.244
297.107
319.733
301.578
322.858
299.881
311.79
297.81
292.698
307.045
289.83
299.168
281.045
270.226
273.803
237.573
227.164
257.556
239.162
236.235
234.141
233.93
219.206
219.243
186.76
247.148
214.854
299.517
300.335
300.353
300.153
300.4
300.142
301.606
304.303
303.921
302.667
300.944
299.962
299.549
299.733
300.736
300.368
298.883
296.546
295.158
294.314
294.856
295.522
295.289
294.558
293.52
292.934
292.065
291.53
291.197
291.331
291.449
291.901
292.279
292.398
292.066
291.228
290.089
287.333
282.55
283.909
287.367
289.537
291.997
295.46
295.382
294.928
300.036
297.987
300.136
301.614
300.043
300.624
299.344
298.577
298.593
298.018
298.161
298.736
298.56
298.394
298.976
299.095
298.753
300.203
301.21
301.441
301.164
300.904
299.556
298.855
298.336
300.548
301.748
302.736
301.248
299.547
297.889
296.379
296.6
296.129
297.135
297.219
297.783
297.979
299.076
300.003
300.875
301.952
303.055
302.651
303.303
302.303
302.997
301.094
302.336
302.268
301.75
302.637
301.595
301.863
301.966
302.701
300.154
301.016
300.42
297.797
301.468
297.843
297.77
301.24
299.567
301.631
304.629
300.777
301.066
306.076
303.206
301.607
308.231
302.426
298.669
306.407
302.324
297.354
304.735
308.472
301.598
301.612
315.987
314.77
306.1
304.655
321.17
337.647
310.187
286.121
280.965
280.044
286.784
288.176
288.363
295.42
294.033
288.435
298.251
298.463
303.016
304.256
298.157
296.487
293.181
295.86
293.995
316.769
303.566
325.168
307.378
328.211
305.853
315.906
298.919
296.371
308.341
295.243
300.773
280.578
276.648
266.194
231.243
201.39
255.41
231.752
223.36
220.524
236.814
229.57
228.297
187.19
234.214
220.725
299.856
300.453
300.307
299.364
297.957
298.403
301.141
302.079
301.79
303.63
303.047
302.218
301.355
298.978
298.375
297.676
298.134
298.954
298.842
298.417
297.295
295.586
294.185
293.874
294.298
294.546
294.23
293.658
292.995
292.44
292.044
291.812
291.632
291.435
291.141
290.546
289.577
288.16
286.941
288.348
289.691
291.17
292.866
295.019
295.127
295.555
299.779
298.344
300.344
301.585
301.245
301.676
300.486
299.915
299.967
298.734
299.241
298.974
298.874
299.811
299.073
298.932
299.145
299.966
300.961
301.65
300.461
300.561
301.404
301.114
299.622
299.178
299.863
301.102
300.921
299.48
298.371
295.742
296.05
294.718
295.353
296.471
296.222
298.063
298.281
298.968
299.863
299.92
300.532
301.311
301.806
301.687
302.927
302.244
302.858
303.002
301.208
303.011
302.285
301.333
301.126
301.631
301.069
300.938
302.357
298.562
302.404
300.822
296.645
301.255
300.776
300.035
305.269
302.074
298.926
304.882
304.384
300.019
306.037
302.38
297.733
304.998
303.183
297.336
303.954
308.147
303.074
300.417
313.792
315.839
304.116
305.88
314.35
330.247
317.597
289.957
280.15
279.24
286.844
290.62
289.289
295.423
289.964
285.975
296.159
294.816
301.853
302.028
296.138
296.057
294.504
299.61
304.198
324.009
310.014
328.206
311.899
330.441
308.705
317.202
296.892
302.009
312.148
297.414
300.854
278.761
278.941
257.258
224.877
200.531
253.794
231.159
218.453
213.76
233.535
232.405
229.774
214.929
235.775
232.145
300.048
300.329
300.262
299.76
298.273
297.679
299.204
301.028
300.03
300.989
302.954
302.373
301.97
301.63
301.143
299.999
299.287
298.747
297.823
297.099
296.594
296.353
296.408
296.506
296.476
296.211
295.786
295.353
294.777
294.123
293.411
292.764
292.202
291.694
291.317
290.962
290.653
290.491
290.862
292.078
292.835
294.042
295.59
296.809
296.872
297.224
299.928
299.296
300.142
301.373
301.458
301.8
301.353
301.161
301.003
300.522
300.954
300.547
300.359
300.706
300.615
300.782
299.517
300.264
302.665
302.725
301.043
300.002
300.771
301.196
300.551
299.578
299.982
300.595
300.906
298.708
298.21
295.66
295.607
295.507
295.524
297.491
297.433
298.497
299.031
299.527
300.106
300.87
301.276
301.31
301.229
301.164
301.673
300.809
300.307
302.252
300.636
301.441
301.513
300.868
301.933
301.11
300.387
299.934
301.905
298.873
300.813
302.604
296.574
301.205
302.008
297.615
303.059
301.438
296.632
303.479
305.529
299.949
304.688
302.611
297.898
302.926
303.084
297.911
302.861
307.175
302.129
300.715
309.078
314.723
302.554
303.918
309.208
320.012
320.609
298.395
281.884
276.921
282.523
287.677
286.352
292.352
282.051
282.704
291.644
291.835
302.951
299.415
295.595
297.076
294.907
302.666
313.412
327.182
313.924
328.916
314.222
330.705
307.279
315.217
294.663
309.309
312.238
301.756
299.401
278.085
277.995
251.983
228.578
229.461
256.608
239.922
235.748
232.254
231.289
238.325
239.756
243.909
241.759
244.324
300.003
299.544
299.021
299.482
299.048
298.079
298.001
297.09
295.959
296.678
298.212
298.588
298.886
299.581
300.063
300.082
300.103
299.877
299.48
299.096
298.747
298.313
297.844
297.262
296.647
296.107
295.657
295.584
295.665
295.662
295.609
295.489
295.287
295.012
294.75
294.491
294.251
294.038
294.056
294.179
294.492
295.075
295.811
296.621
297.142
297.856
299.709
300.109
300.758
301.476
301.963
302.677
302.569
302.76
302.523
302.663
302.331
302.419
302.13
301.615
302.25
301.973
300.588
301.407
303.521
303.821
301.131
300.04
300.778
300.312
299.098
298.222
298.847
299.139
299.123
296.872
295.617
293.999
293.742
293.895
294.532
296.898
297.193
299.007
300.398
300.171
301.24
300.643
301.067
301.831
302.193
301.964
302.254