/*--------------------------------*- C++ -*----------------------------------*\
| =========                 |                                                 |
| \\      /  F ield         | OpenFOAM: The Open Source CFD Toolbox           |
|  \\    /   O peration     | Version:  dev                                   |
|   \\  /    A nd           | Web:      http://www.openfoam.org               |
|    \\/     M anipulation  |                                                 |
\*---------------------------------------------------------------------------*/
FoamFile
{
    version     2.0;
    format      ascii;
    class       volVectorField;
    object      U;
    location    "9.118";
}
// * * * * * * * * * * * * * * * * * * * * * * * * * * * * * * * * * * * * * //

dimensions      [0 1 -1 0 0 0 0];

internalField   nonuniform List<vector> 
12225
(
(6.70475 0.964113 0)
(3.34931 0.658915 0)
(1.07168 0.494114 0)
(0.522833 0.465943 0)
(-0.66779 0.481218 0)
(-0.0921189 0.435954 0)
(-1.2964 0.507157 0)
(-0.131043 0.394817 0)
(-1.32771 0.519015 0)
(0.27545 0.354884 0)
(-0.936984 0.521909 0)
(1.12286 0.283239 0)
(0.037982 0.469835 0)
(2.91237 0.137348 0)
(2.13483 0.20197 0)
(6.86923 -0.229539 0)
(13.489 0.504077 0)
(16.2148 5.04042 0)
(8.99883 2.52432 0)
(8.22326 2.33149 0)
(5.23103 1.95354 0)
(5.21799 1.72565 0)
(2.0941 1.64458 0)
(3.80966 1.5313 0)
(0.321444 1.59108 0)
(3.36549 1.41393 0)
(-0.618577 1.60954 0)
(3.59379 1.28744 0)
(-0.846675 1.59295 0)
(4.37272 1.09929 0)
(-0.241897 1.47496 0)
(5.71982 0.659655 0)
(1.27516 0.818963 0)
(7.0585 -1.86964 0)
(5.80522 -1.33618 0)
(10.1893 -2.98677 0)
(8.87262 3.49031 0)
(10.8085 3.49136 0)
(7.24478 3.23954 0)
(9.33024 3.06048 0)
(4.69474 2.95926 0)
(8.1547 2.85775 0)
(2.88886 2.78932 0)
(7.62889 2.70794 0)
(1.85943 2.7385 0)
(7.57121 2.38854 0)
(1.99464 2.72184 0)
(7.65979 1.94901 0)
(3.37339 2.53469 0)
(7.71034 1.27906 0)
(5.24428 2.04546 0)
(8.14527 -0.381159 0)
(8.10868 0.905125 0)
(6.82051 -0.729687 0)
(7.40453 4.7268 0)
(11.9675 4.71912 0)
(7.07786 4.54043 0)
(11.2711 4.36312 0)
(6.12713 4.35532 0)
(10.5568 4.14975 0)
(5.45495 4.23968 0)
(9.91601 3.92677 0)
(5.21912 4.24338 0)
(9.39221 3.44927 0)
(5.38294 4.24886 0)
(9.02494 2.79139 0)
(6.19258 4.16373 0)
(9.1922 1.81919 0)
(7.32913 3.78004 0)
(9.92257 -0.0497315 0)
(8.21524 1.26504 0)
(6.43938 -2.08919 0)
(7.28072 6.04388 0)
(11.2741 5.707 0)
(7.61184 5.80664 0)
(10.4199 5.49608 0)
(7.52561 5.77824 0)
(9.79471 5.29466 0)
(7.55301 5.73906 0)
(9.25524 5.09482 0)
(7.65599 5.68091 0)
(8.97351 4.7599 0)
(7.83779 5.57551 0)
(8.83456 4.18734 0)
(8.29709 5.34433 0)
(9.17622 3.33352 0)
(8.75635 4.72076 0)
(9.65803 2.08273 0)
(8.5073 3.14386 0)
(7.10588 -0.223086 0)
(8.72112 7.86862 0)
(9.29747 6.93801 0)
(8.4443 7.42148 0)
(8.60745 6.73626 0)
(8.19537 7.4143 0)
(8.21008 6.51627 0)
(8.00991 7.50558 0)
(8.07975 6.28653 0)
(7.99702 7.49056 0)
(8.26445 5.95109 0)
(8.21819 7.3069 0)
(8.56386 5.4441 0)
(8.55885 6.83266 0)
(9.13146 4.62445 0)
(8.89956 5.92662 0)
(9.74891 3.43271 0)
(8.84074 4.48299 0)
(8.004 2.32427 0)
(9.60251 9.46584 0)
(8.58181 8.2947 0)
(8.88197 9.00934 0)
(7.92436 8.17196 0)
(8.27943 9.03523 0)
(7.51705 8.03282 0)
(7.94275 9.09818 0)
(7.61233 7.88216 0)
(7.97091 8.93725 0)
(7.96094 7.66212 0)
(8.20174 8.60937 0)
(8.33368 7.26512 0)
(8.54382 8.02836 0)
(8.81856 6.50068 0)
(8.82246 7.11251 0)
(9.24416 5.5119 0)
(8.68449 5.81872 0)
(8.34975 4.52489 0)
(9.88067 10.9638 0)
(8.70467 9.63816 0)
(8.95048 10.4995 0)
(8.2037 9.54961 0)
(8.3337 10.4723 0)
(7.79275 9.38202 0)
(7.94006 10.4708 0)
(7.78535 9.20268 0)
(7.84966 10.2759 0)
(7.93497 8.95212 0)
(8.05789 9.86297 0)
(8.24577 8.57519 0)
(8.36997 9.19161 0)
(8.68823 7.90467 0)
(8.63352 8.22467 0)
(8.89693 7.09189 0)
(8.54432 7.01552 0)
(8.42445 6.38311 0)
(10.039 12.3999 0)
(8.83249 10.9696 0)
(8.97858 11.7587 0)
(8.25658 10.8516 0)
(8.26919 11.7428 0)
(7.79915 10.7629 0)
(7.90329 11.7092 0)
(7.77755 10.6555 0)
(7.8022 11.481 0)
(7.88691 10.4541 0)
(7.99251 11.017 0)
(8.12553 10.0489 0)
(8.22687 10.3518 0)
(8.46277 9.37478 0)
(8.4226 9.41009 0)
(8.59598 8.59691 0)
(8.39776 8.30516 0)
(8.34188 7.80261 0)
(9.57083 13.8499 0)
(8.65884 12.3973 0)
(8.75293 13.2589 0)
(8.27874 12.3887 0)
(8.12946 13.2512 0)
(7.75155 12.3339 0)
(7.68118 13.1138 0)
(7.60909 12.2029 0)
(7.60598 12.8404 0)
(7.69452 11.9956 0)
(7.8035 12.3502 0)
(7.93862 11.586 0)
(8.03442 11.7118 0)
(8.23302 10.9733 0)
(8.22718 10.7991 0)
(8.32979 10.1725 0)
(8.1829 9.79513 0)
(8.15529 9.3627 0)
(9.90918 15.643 0)
(8.96777 14.0753 0)
(8.68981 14.7144 0)
(8.25416 14.0244 0)
(7.99761 14.7334 0)
(7.74183 14.0915 0)
(7.59614 14.6106 0)
(7.53118 13.9918 0)
(7.48444 14.2963 0)
(7.53766 13.7109 0)
(7.61077 13.8166 0)
(7.70608 13.2571 0)
(7.82115 13.2132 0)
(7.93075 12.6533 0)
(7.93603 12.3502 0)
(7.98281 11.8323 0)
(7.89976 11.4233 0)
(7.88678 11.0626 0)
(9.52404 17.3868 0)
(8.78319 15.9294 0)
(8.42689 16.4265 0)
(8.10085 15.9292 0)
(7.84182 16.4022 0)
(7.63667 16.0135 0)
(7.43185 16.3146 0)
(7.31566 15.9226 0)
(7.23072 15.9719 0)
(7.24037 15.5829 0)
(7.28052 15.486 0)
(7.3716 15.0952 0)
(7.46218 14.9143 0)
(7.55263 14.4738 0)
(7.59613 14.1465 0)
(7.61253 13.6994 0)
(7.58091 13.3035 0)
(7.59561 12.8993 0)
(9.69461 19.2783 0)
(9.04161 17.9119 0)
(8.49041 18.1009 0)
(8.07861 17.8245 0)
(7.71738 18.1067 0)
(7.52001 17.9692 0)
(7.33796 18.1258 0)
(7.24623 17.9111 0)
(7.18835 17.8162 0)
(7.18643 17.5154 0)
(7.17441 17.3007 0)
(7.189 16.9732 0)
(7.20412 16.6906 0)
(7.20375 16.3328 0)
(7.19752 15.9732 0)
(7.16448 15.5794 0)
(7.07555 15.2067 0)
(7.12644 14.828 0)
(9.60179 21.1884 0)
(9.05113 19.8701 0)
(8.639 19.933 0)
(8.21148 19.8788 0)
(7.75487 20.0028 0)
(7.45797 19.9439 0)
(7.22505 19.9409 0)
(7.08674 19.7888 0)
(6.9981 19.6595 0)
(6.96446 19.4388 0)
(6.91594 19.234 0)
(6.883 18.9704 0)
(6.83121 18.7067 0)
(6.78658 18.3797 0)
(6.72228 18.0469 0)
(6.67566 17.6491 0)
(6.58436 17.2947 0)
(6.64514 16.9052 0)
(9.53043 23.0421 0)
(8.91292 21.594 0)
(8.41053 21.5533 0)
(7.92971 21.6561 0)
(7.50635 21.7882 0)
(7.24317 21.8005 0)
(7.02332 21.7201 0)
(6.87532 21.5794 0)
(6.73422 21.4299 0)
(6.64676 21.2448 0)
(6.53369 21.0417 0)
(6.46621 20.7988 0)
(6.36743 20.5342 0)
(6.30775 20.2153 0)
(6.20008 19.8823 0)
(6.13993 19.5203 0)
(6.01598 19.1785 0)
(6.07227 18.8078 0)
(9.78558 24.3768 0)
(9.1688 23.0731 0)
(8.55832 22.9887 0)
(8.034 23.1078 0)
(7.5837 23.1888 0)
(7.25259 23.1661 0)
(6.92893 23.0859 0)
(6.71435 23.0051 0)
(6.48835 22.9176 0)
(6.33119 22.7917 0)
(6.14404 22.6457 0)
(6.02742 22.4597 0)
(5.86341 22.2499 0)
(5.75534 21.986 0)
(5.59865 21.6851 0)
(5.51075 21.3573 0)
(5.33989 21.0368 0)
(5.38524 20.6759 0)
(9.76574 25.4486 0)
(9.15728 23.8484 0)
(8.53567 23.7271 0)
(8.02637 23.9033 0)
(7.54369 24.0219 0)
(7.13551 24.0316 0)
(6.75347 23.985 0)
(6.47984 23.946 0)
(6.17632 23.8841 0)
(5.95141 23.7691 0)
(5.70391 23.6285 0)
(5.54125 23.4693 0)
(5.32862 23.2852 0)
(5.18518 23.0557 0)
(4.99754 22.778 0)
(4.88835 22.4928 0)
(4.69196 22.2173 0)
(4.7189 21.8924 0)
(9.90405 25.1894 0)
(9.13902 23.6207 0)
(8.44324 23.487 0)
(7.89717 23.6462 0)
(7.45326 23.728 0)
(7.10732 23.7465 0)
(6.72555 23.7024 0)
(6.40025 23.7054 0)
(6.03895 23.7337 0)
(5.74348 23.6865 0)
(5.42744 23.5845 0)
(5.20649 23.4889 0)
(4.95716 23.3577 0)
(4.78071 23.1709 0)
(4.57318 22.9282 0)
(4.44367 22.6819 0)
(4.23231 22.4535 0)
(4.2124 22.1799 0)
(9.70305 23.769 0)
(9.11901 22.4704 0)
(8.53728 22.2251 0)
(8.05465 22.233 0)
(7.62726 22.3034 0)
(7.27155 22.4036 0)
(6.86759 22.4347 0)
(6.49967 22.4911 0)
(6.09588 22.578 0)
(5.73842 22.5613 0)
(5.34781 22.4451 0)
(5.03114 22.3593 0)
(4.70061 22.2595 0)
(4.44666 22.1063 0)
(4.16335 21.9068 0)
(3.95411 21.7179 0)
(3.69424 21.5544 0)
(3.61579 21.3493 0)
(10.0402 21.7397 0)
(9.61373 20.4127 0)
(9.13662 20.1412 0)
(8.65292 20.1494 0)
(8.14276 20.2328 0)
(7.68047 20.382 0)
(7.19519 20.4757 0)
(6.74523 20.5395 0)
(6.28267 20.6365 0)
(5.88148 20.6932 0)
(5.45617 20.6221 0)
(5.09545 20.5543 0)
(4.73359 20.4878 0)
(4.42363 20.3763 0)
(4.08254 20.224 0)
(3.80126 20.095 0)
(3.48526 19.9598 0)
(3.32408 19.7825 0)
(9.66436 19.2376 0)
(9.40957 17.9669 0)
(9.03049 17.6682 0)
(8.56359 17.6386 0)
(8.07851 17.7156 0)
(7.64514 17.8926 0)
(7.19205 18.0924 0)
(6.77807 18.2422 0)
(6.36915 18.3301 0)
(6.01504 18.3928 0)
(5.62246 18.3594 0)
(5.24752 18.2825 0)
(4.85821 18.2063 0)
(4.53553 18.1294 0)
(4.19787 18.0238 0)
(3.90135 17.9417 0)
(3.58377 17.8388 0)
(3.38019 17.7305 0)
(9.74718 16.417 0)
(9.53065 15.3757 0)
(9.14284 15.15 0)
(8.73627 15.1648 0)
(8.32336 15.2143 0)
(7.91026 15.3118 0)
(7.46313 15.4376 0)
(7.01361 15.5972 0)
(6.53449 15.709 0)
(6.11694 15.7906 0)
(5.71713 15.8366 0)
(5.33699 15.8223 0)
(4.94709 15.7623 0)
(4.5856 15.7242 0)
(4.20956 15.6492 0)
(3.8928 15.5608 0)
(3.55548 15.486 0)
(3.32616 15.4024 0)
(9.84819 13.988 0)
(9.71249 12.8289 0)
(9.43622 12.5264 0)
(9.09435 12.5386 0)
(8.70693 12.6381 0)
(8.3149 12.8137 0)
(7.88795 12.9704 0)
(7.47551 13.1248 0)
(7.00421 13.2424 0)
(6.52867 13.3142 0)
(6.05544 13.3251 0)
(5.62308 13.3294 0)
(5.18326 13.292 0)
(4.78721 13.2588 0)
(4.40094 13.2113 0)
(4.03074 13.1728 0)
(3.67128 13.1294 0)
(3.38511 13.0777 0)
(10.1189 11.3439 0)
(10.0556 10.3752 0)
(9.77158 10.2517 0)
(9.3178 10.3233 0)
(8.80011 10.3754 0)
(8.34454 10.4412 0)
(7.91518 10.5384 0)
(7.51169 10.6567 0)
(7.09337 10.7698 0)
(6.68663 10.852 0)
(6.23248 10.8763 0)
(5.78981 10.9014 0)
(5.34437 10.9014 0)
(4.91161 10.8836 0)
(4.49865 10.8637 0)
(4.12003 10.8332 0)
(3.7517 10.7889 0)
(3.46461 10.7664 0)
(10.1488 9.10108 0)
(10.0319 8.17524 0)
(9.84498 8.0766 0)
(9.55842 8.17861 0)
(9.15672 8.25675 0)
(8.75234 8.3189 0)
(8.30865 8.39359 0)
(7.84717 8.47513 0)
(7.33645 8.54541 0)
(6.86671 8.59322 0)
(6.39235 8.61972 0)
(5.9377 8.62113 0)
(5.48638 8.61661 0)
(5.04364 8.62168 0)
(4.58517 8.6034 0)
(4.16908 8.59652 0)
(3.76055 8.57573 0)
(3.42737 8.55042 0)
(9.89177 6.79967 0)
(10.0511 6.14904 0)
(10.033 6.10442 0)
(9.75062 6.15709 0)
(9.30436 6.21748 0)
(8.83369 6.31509 0)
(8.31633 6.40911 0)
(7.8231 6.49367 0)
(7.3175 6.5589 0)
(6.83408 6.58498 0)
(6.34933 6.58364 0)
(5.88132 6.58232 0)
(5.38182 6.56648 0)
(4.89078 6.56199 0)
(4.39218 6.55906 0)
(3.90931 6.54979 0)
(3.43029 6.53545 0)
(3.00392 6.51651 0)
(9.96706 4.87077 0)
(10.1053 4.22233 0)
(10.1471 4.17782 0)
(9.89165 4.28837 0)
(9.39024 4.38928 0)
(8.80764 4.50371 0)
(8.1783 4.61008 0)
(7.55123 4.70471 0)
(6.91938 4.75135 0)
(6.29323 4.76558 0)
(5.64709 4.76391 0)
(5.01051 4.76343 0)
(4.36609 4.75721 0)
(3.73411 4.7718 0)
(3.11731 4.77864 0)
(2.53259 4.77441 0)
(1.96634 4.74341 0)
(1.46486 4.7249 0)
(10.0218 2.93637 0)
(10.436 2.46075 0)
(10.2374 2.51062 0)
(9.57401 2.65672 0)
(8.69378 2.7957 0)
(7.76632 2.9267 0)
(6.85058 3.04225 0)
(5.99126 3.13004 0)
(5.16587 3.18562 0)
(4.34995 3.21495 0)
(3.53282 3.23156 0)
(2.72808 3.23498 0)
(1.96055 3.22707 0)
(1.2348 3.24038 0)
(0.550505 3.23751 0)
(-0.117016 3.23113 0)
(-0.736092 3.22205 0)
(-1.32064 3.21564 0)
(9.99996 1.17725 0)
(9.6335 0.848044 0)
(8.55771 1.03262 0)
(7.17156 1.30086 0)
(5.81666 1.53842 0)
(4.59031 1.69254 0)
(3.50562 1.78081 0)
(2.53072 1.82887 0)
(1.64176 1.86086 0)
(0.792637 1.88059 0)
(-0.0283913 1.88303 0)
(-0.785297 1.88516 0)
(-1.49154 1.88868 0)
(-2.15783 1.89393 0)
(-2.80276 1.89046 0)
(-3.42382 1.8799 0)
(-3.99869 1.8828 0)
(-4.54215 1.86944 0)
(8.34077 0.159847 0)
(5.75818 0.218075 0)
(3.5185 0.471232 0)
(1.86671 0.607855 0)
(0.772948 0.648125 0)
(-0.02798 0.64903 0)
(-0.713695 0.640144 0)
(-1.34938 0.632656 0)
(-1.95676 0.63178 0)
(-2.56588 0.630794 0)
(-3.17184 0.623046 0)
(-3.75735 0.627928 0)
(-4.3223 0.63273 0)
(-4.86764 0.630909 0)
(-5.39768 0.629771 0)
(-5.90459 0.62474 0)
(-6.38806 0.620283 0)
(-6.85886 0.626211 0)
(-0.0326332 -1.27048 0)
(-0.246256 -1.02227 0)
(-0.638998 -1.03782 0)
(-0.96816 -1.17676 0)
(-1.22146 -1.3025 0)
(-1.36422 -1.38743 0)
(-1.43894 -1.4348 1.0811e-17)
(-1.44549 -1.4791 -1.07709e-17)
(-1.40825 -1.52872 0)
(-1.34787 -1.56789 -1.06817e-17)
(-1.24273 -1.60497 0)
(-1.07579 -1.61958 0)
(-0.872841 -1.62444 0)
(-0.674687 -1.63576 1.0497e-17)
(-0.435122 -1.62754 0)
(-0.184661 -1.59177 0)
(0.0255744 -1.57012 -1.03349e-17)
(0.214319 -1.56458 0)
(0.401232 -1.51336 0)
(0.555843 -1.43293 0)
(0.667727 -1.38076 1.00662e-17)
(0.744323 -1.30609 0)
(0.797939 -1.24399 9.91141e-18)
(0.793041 -1.13764 0)
(0.679093 -1.01481 0)
(0.527996 -0.930713 9.71188e-18)
(0.223352 -0.767022 0)
(-0.169583 -0.643766 -9.56953e-18)
(-0.667917 -0.45886 0)
(-1.38827 -0.298053 9.43725e-18)
(-2.14127 -0.172401 0)
(-3.22439 0.28356 0)
(-4.56162 0.0546739 0)
(-5.49096 -0.918298 0)
(-6.17567 -1.32863 0)
(-6.65139 -0.983788 -9.18016e-18)
(-6.84388 -0.782938 0)
(-7.04419 -0.834494 1.81226e-17)
(-7.17128 -0.918059 0)
(-7.06167 -1.03968 -1.78093e-17)
(-6.81865 -1.15619 0)
(-6.43997 -1.22403 0)
(-5.90758 -1.27514 1.7428e-17)
(-5.22962 -1.34094 0)
(-4.32037 -1.31055 1.70245e-17)
(-3.76882 -1.04837 -1.69104e-17)
(-3.15511 -1.21335 0)
(-2.51544 -1.24496 -1.65863e-17)
(-1.84928 -0.379636 -1.66669e-17)
(-1.85345 0.468819 0)
(-2.1943 0.794968 0)
(-2.21747 0.375069 0)
(-1.90683 -0.910812 0)
(-1.44134 -2.22123 0)
(-0.970363 -2.62373 1.64513e-17)
(-0.517183 -2.11775 0)
(-0.60827 -0.919732 -1.66116e-17)
(-1.58892 0.142294 0)
(-2.71022 0.507175 0)
(-3.67437 0.478119 1.61141e-17)
(-4.48504 0.370307 0)
(-5.09855 0.259763 -1.57971e-17)
(-5.59675 0.165504 0)
(-5.95094 0.0861702 0)
(-6.21017 0.0174824 0)
(-6.37206 -0.0207427 1.53051e-17)
(-6.42123 -0.0528037 0)
(-6.42378 -0.0828289 0)
(-6.394 -0.0978538 1.49703e-17)
(-6.31575 -0.0970585 0)
(-6.21579 -0.0984313 1.4751e-17)
(-6.09946 -0.0949469 0)
(-5.98671 -0.0823352 0)
(-5.85757 -0.0521271 0)
(-5.68331 -0.0351801 -1.4311e-17)
(-5.5104 -0.0108049 0)
(-5.3452 0.0277408 0)
(-5.18492 0.0628519 -1.39775e-17)
(-5.01878 0.100638 -1.38654e-17)
(-4.8455 0.134326 0)
(-4.67728 0.169352 -1.3638e-17)
(-4.48685 0.225902 0)
(-4.23407 0.27676 -2.68122e-17)
(-3.94992 0.317306 0)
(-3.65996 0.358405 -2.63472e-17)
(-3.35667 0.397286 0)
(-3.01257 0.42374 2.5878e-17)
(-2.6144 0.4654 0)
(-2.2578 0.522939 0)
(-1.85529 0.568273 0)
(-1.37589 0.606587 -2.49463e-17)
(-0.910666 0.637762 0)
(-0.403772 0.670151 2.4499e-17)
(0.0988624 0.703533 0)
(0.622185 0.738628 -2.40592e-17)
(1.18798 0.768738 -2.38445e-17)
(1.74965 0.793316 -2.36295e-17)
(2.29969 0.823236 0)
(2.85448 0.870481 0)
(3.41056 0.867196 0)
(3.95754 0.89616 0)
(4.50152 0.892523 0)
(4.99452 0.878987 0)
(5.44288 0.856539 0)
(5.84019 0.86217 0)
(6.19101 0.887701 2.2236e-17)
(6.4691 0.93672 2.21112e-17)
(6.52775 0.9437 0)
(6.28556 0.959744 0)
(5.91688 1.02168 0)
(5.5434 1.0405 2.15115e-17)
(5.18067 1.01483 0)
(4.86598 0.932696 0)
(4.63728 0.837269 0)
(4.56797 0.774318 0)
(4.5125 0.764578 -2.04021e-17)
(4.32184 0.721779 0)
(4.1154 0.666874 0)
(3.82854 0.615802 1.97938e-17)
(3.63381 0.524645 -1.95824e-17)
(3.72319 0.402532 0)
(3.98384 0.290845 -1.92614e-17)
(4.27889 0.232559 0)
(4.46833 0.26822 1.92343e-17)
(4.48311 0.309153 0)
(4.3596 0.237887 0)
(4.36838 0.0831313 0)
(4.70311 -0.0689736 0)
(5.43032 -0.271105 0)
(6.76297 -0.466555 -3.75894e-17)
(8.48264 -0.543607 -3.72007e-17)
(10.2653 -0.48261 0)
(11.585 -0.449482 0)
(12.4004 -0.611381 0)
(13.0691 -0.730717 3.67989e-17)
(13.8586 -0.740795 0)
(14.269 -0.783454 0)
(14.3741 -0.979921 0)
(14.864 -1.22166 3.70619e-17)
(14.9722 -0.860657 -3.69696e-17)
(13.5354 -0.607969 0)
(13.8297 -1.33904 0)
(15.0319 -1.26108 -3.59669e-17)
(13.1555 -1.00001 -3.58534e-17)
(11.8052 -1.39031 0)
(13.9163 -1.8214 0)
(14.1866 -1.86258 3.45806e-17)
(15.0103 -2.13041 -3.43301e-17)
(15.637 -2.19973 0)
(16.8822 -2.46868 0)
(18.2442 -2.47057 -3.37682e-17)
(19.4918 -2.53442 0)
(20.426 -2.48949 0)
(21.1477 -2.50537 -3.32635e-17)
(21.0838 -2.41614 0)
(20.5397 -2.47489 -3.31226e-17)
(19.4361 -2.76967 0)
(18.7661 -3.15117 0)
(18.0834 -3.12857 0)
(18.0272 -3.05884 3.14316e-17)
(17.798 -3.01701 0)
(17.45 -3.10069 0)
(17.507 -3.20103 0)
(15.7691 -2.75572 0)
(13.9333 -2.67215 0)
(10.7863 -2.09213 0)
(4.88899 -1.72301 2.83761e-17)
(3.94358 -3.00562 2.69315e-17)
(6.30524 -2.75981 0)
(5.54733 -2.22888 0)
(3.00166 -2.34149 0)
(0.274963 -2.07045 -2.77715e-17)
(-1.0791 -2.03348 0)
(-3.67102 -1.65714 5.54042e-17)
(-6.38009 -1.85954 -5.56788e-17)
(-8.44926 -1.71132 -5.54041e-17)
(-10.7785 -1.57629 5.50312e-17)
(-13.4806 -1.36079 -5.5381e-17)
(-15.5404 -1.34583 5.45045e-17)
(-16.9991 -1.49977 0)
(-0.0309336 -4.14195 0)
(-0.106832 -3.65802 0)
(-0.276549 -3.42372 -2.16313e-17)
(-0.464222 -3.5732 0)
(-0.595569 -3.8561 2.15247e-17)
(-0.624713 -4.137 2.15886e-17)
(-0.585414 -4.28858 1.08072e-17)
(-0.524496 -4.42068 1.07536e-17)
(-0.467623 -4.54521 0)
(-0.386376 -4.67296 1.07065e-17)
(-0.251462 -4.80388 0)
(-0.0982007 -4.92451 0)
(0.102366 -4.96189 -2.13783e-17)
(0.289888 -5.0057 -1.0644e-17)
(0.473135 -5.04612 2.12648e-17)
(0.676307 -4.97168 2.1171e-17)
(0.866862 -4.84468 1.05077e-17)
(1.00475 -4.78842 0)
(1.1145 -4.73478 0)
(1.24021 -4.56739 0)
(1.34472 -4.43462 1.01952e-17)
(1.41457 -4.33728 0)
(1.49948 -4.13824 -2.992e-17)
(1.56844 -3.90713 0)
(1.60142 -3.68255 0)
(1.54014 -3.42476 -9.72249e-18)
(1.43969 -3.0393 0)
(1.26766 -2.73808 9.61238e-18)
(1.01646 -2.3495 1.91236e-17)
(0.622908 -1.87455 -9.5002e-18)
(0.238719 -1.5078 0)
(-0.398255 -1.09022 0)
(-1.0786 -0.72495 0)
(-1.6809 -0.602514 1.84001e-17)
(-3.13757 -1.02801 1.83642e-17)
(-4.52834 -1.90095 8.96791e-18)
(-5.22642 -2.70335 0)
(-5.7142 -2.61684 -1.72992e-17)
(-5.79189 -2.64206 0)
(-5.66507 -3.09465 1.69984e-17)
(-5.52537 -3.32013 0)
(-5.15511 -3.51456 0)
(-4.73336 -3.78831 -1.67585e-17)
(-3.95926 -4.06118 0)
(-3.16993 -4.02054 -4.87121e-17)
(-2.47681 -3.19322 1.59208e-17)
(-1.35492 -3.12886 0)
(-0.933944 -3.33964 1.61934e-17)
(-0.645674 -2.89029 1.61204e-17)
(-0.29583 -2.44001 0)
(-0.484649 -2.47666 0)
(-0.361263 -2.67539 0)
(-1.10937 -2.08616 0)
(-3.03752 -0.994691 0)
(-5.3208 -0.211127 -1.64367e-17)
(-6.96597 0.289486 -3.26742e-17)
(-7.95865 0.601535 1.61837e-17)
(-8.71482 0.759102 0)
(-9.17143 0.649528 -3.17354e-17)
(-9.58309 0.453949 1.5748e-17)
(-9.81207 0.210008 0)
(-9.9897 -0.013498 1.55255e-17)
(-10.0392 -0.231424 0)
(-10.0514 -0.399649 0)
(-9.96482 -0.538953 3.04126e-17)
(-9.86074 -0.625783 -1.5109e-17)
(-9.66049 -0.687327 2.99971e-17)
(-9.47241 -0.731479 -2.97859e-17)
(-9.22777 -0.738528 -1.47941e-17)
(-8.99369 -0.732263 0)
(-8.72996 -0.704845 -1.45784e-17)
(-8.47941 -0.667243 0)
(-8.22501 -0.599869 0)
(-7.97103 -0.507244 0)
(-7.70162 -0.409132 -1.41019e-17)
(-7.41192 -0.316034 0)
(-7.15884 -0.215742 -2.77547e-17)
(-6.90494 -0.115409 4.12939e-17)
(-6.64698 -0.00932111 1.36533e-17)
(-6.38029 0.0892702 0)
(-6.09476 0.189321 1.34183e-17)
(-5.80844 0.329235 0)
(-5.49466 0.458621 2.63359e-17)
(-5.15933 0.590802 0)
(-4.79 0.726139 2.5819e-17)
(-4.40595 0.807863 -5.11132e-17)
(-3.97921 0.898292 -2.53172e-17)
(-3.51518 1.03376 0)
(-3.11376 1.19476 0)
(-2.58837 1.2915 0)
(-2.10113 1.4099 2.42388e-17)
(-1.5486 1.52743 0)
(-0.99825 1.62252 -2.37144e-17)
(-0.425455 1.73401 0)
(0.141035 1.83155 6.95722e-17)
(0.746622 1.93209 2.29536e-17)
(1.33691 2.00381 2.27014e-17)
(1.92163 2.07705 0)
(2.46591 2.18659 0)
(3.03043 2.21068 0)
(3.54501 2.28759 0)
(4.05632 2.33109 0)
(4.53598 2.42679 4.30824e-17)
(5.00605 2.49271 4.31176e-17)
(5.36666 2.50935 0)
(5.58761 2.48908 -2.1577e-17)
(5.6523 2.54995 -2.14783e-17)
(5.58329 2.73497 0)
(5.3723 2.89911 -4.29531e-17)
(5.05305 2.90051 0)
(4.75454 2.73538 2.11898e-17)
(4.48483 2.52724 0)
(4.24216 2.31665 0)
(4.09862 1.96821 -4.15425e-17)
(4.1019 1.68596 0)
(4.15381 1.63831 1.99338e-17)
(4.15173 1.58417 0)
(4.06929 1.49114 0)
(3.8661 1.36458 1.87805e-17)
(3.7085 1.03875 1.87273e-17)
(3.79036 0.657292 0)
(4.15323 0.403689 -1.82929e-17)
(4.66359 0.302897 0)
(4.95267 0.293744 1.76486e-17)
(4.82617 0.35575 3.60845e-17)
(4.57792 0.269629 0)
(4.57246 -0.188783 0)
(4.90341 -0.730405 0)
(5.63631 -1.36846 0)
(7.14979 -2.09499 3.88272e-17)
(9.3008 -2.47489 1.14438e-16)
(11.678 -2.41685 0)
(13.1759 -2.08427 0)
(14.1426 -1.8816 0)
(14.9024 -2.08816 -3.29561e-17)
(15.3391 -2.22659 0)
(15.4798 -2.10626 0)
(15.5241 -2.39914 7.17075e-17)
(15.0285 -2.52037 3.63007e-17)
(13.2051 -2.06573 3.62541e-17)
(11.7486 -2.84119 0)
(12.6447 -4.47759 0)
(12.9217 -3.51972 3.53895e-17)
(12.9105 -2.88478 -3.51039e-17)
(10.2136 -5.17718 0)
(13.2443 -6.63083 0)
(13.1862 -5.8875 -3.29465e-17)
(14.8865 -6.75181 9.86127e-17)
(15.5262 -6.95116 0)
(17.7184 -7.88615 0)
(19.0883 -7.99096 3.27957e-17)
(21.0438 -8.1408 0)
(22.2136 -8.16246 6.47432e-17)
(23.8438 -8.06042 -3.21914e-17)
(24.44 -7.85055 0)
(24.7627 -7.69316 3.15997e-17)
(23.7828 -7.47032 6.32419e-17)
(22.7075 -7.83998 0)
(20.1099 -8.37981 0)
(18.3812 -8.98287 -2.97164e-17)
(16.5171 -9.23044 0)
(16.2942 -9.17868 5.4462e-17)
(16.647 -9.21483 0)
(14.1584 -7.92924 0)
(12.0242 -7.6768 0)
(7.71144 -6.83713 0)
(3.40037 -6.95505 -2.4536e-17)
(3.71317 -10.8044 -2.40779e-17)
(5.46467 -10.4723 0)
(7.64111 -7.79042 0)
(5.45366 -6.97718 0)
(2.07758 -6.73214 2.48412e-17)
(1.39989 -6.81426 0)
(-0.746919 -5.68576 -4.661e-17)
(-3.15708 -5.43896 4.82521e-17)
(-5.7209 -5.14264 4.88048e-17)
(-7.75122 -4.34976 4.77802e-17)
(-11.0736 -3.95352 4.90168e-17)
(-12.7351 -3.88854 4.67554e-17)
(-14.5966 -3.94534 0)
(-0.0756339 -6.87199 0)
(-0.232884 -6.4149 0)
(-0.344174 -6.16961 2.22835e-17)
(-0.387426 -6.44658 2.2287e-17)
(-0.335834 -6.87902 -2.2291e-17)
(-0.245324 -7.23993 -2.23274e-17)
(-0.155452 -7.44325 6.43199e-20)
(-0.0752202 -7.61389 0)
(0.0293618 -7.73339 0)
(0.153631 -7.8664 0)
(0.314686 -7.98775 0)
(0.450908 -8.13192 0)
(0.60584 -8.1661 6.56713e-17)
(0.733612 -8.14496 0)
(0.797831 -8.15118 -2.15962e-17)
(0.83258 -8.0827 -2.13906e-17)
(0.855174 -7.90866 0)
(0.854056 -7.71239 0)
(0.827933 -7.55914 0)
(0.833468 -7.38303 0)
(0.889979 -7.17655 -1.99082e-17)
(0.939412 -6.94958 0)
(0.97927 -6.75143 1.94199e-17)
(1.04963 -6.4656 0)
(1.12848 -6.06842 0)
(1.06739 -5.7291 0)
(1.10152 -5.32294 3.7484e-17)
(1.11743 -4.81774 0)
(0.98921 -4.21461 -1.85335e-17)
(0.819653 -3.63685 3.71672e-17)
(0.642492 -3.11521 0)
(0.39668 -2.4255 0)
(-0.0592889 -1.90033 0)
(-0.370084 -1.66703 -1.85152e-17)
(-1.14644 -1.44041 -1.85066e-17)
(-1.98384 -1.80375 0)
(-2.85299 -2.55565 0)
(-4.01178 -3.51283 3.47793e-17)
(-4.61964 -4.65535 3.44533e-17)
(-4.86634 -4.97762 -3.36869e-17)
(-4.77942 -5.09819 0)
(-4.47471 -5.67055 0)
(-4.21351 -6.36894 0)
(-3.3472 -6.66772 0)
(-2.99856 -6.56616 3.29675e-17)
(-1.81721 -6.40897 3.26311e-17)
(-1.77529 -6.41835 -3.3717e-17)
(-2.55376 -5.06135 0)
(-2.93918 -3.54477 0)
(-4.229 -2.17539 0)
(-5.35417 -1.25721 0)
(-6.81676 -0.421025 3.34146e-17)
(-8.07332 0.0843908 0)
(-9.15372 0.427362 0)
(-9.9689 0.410842 3.28083e-17)
(-10.5121 0.406196 3.25459e-17)
(-10.9832 0.42563 0)
(-11.1213 0.362253 -6.43031e-17)
(-11.1371 0.199997 3.20223e-17)
(-11.0019 -0.0895876 -3.18486e-17)
(-10.8518 -0.355197 0)
(-10.6145 -0.626307 0)
(-10.3746 -0.872404 0)
(-10.1051 -1.08444 0)
(-9.80284 -1.2414 -3.10493e-17)
(-9.49132 -1.34869 -6.1689e-17)
(-9.15777 -1.39247 -3.06813e-17)
(-8.84479 -1.40176 3.04876e-17)
(-8.50796 -1.41142 0)
(-8.18034 -1.3489 -6.01518e-17)
(-7.91424 -1.27698 -5.97502e-17)
(-7.59851 -1.17897 -5.9338e-17)
(-7.3144 -1.04523 5.89071e-17)
(-7.01306 -0.904577 0)
(-6.7553 -0.724568 8.70985e-17)
(-6.48537 -0.562101 0)
(-6.21881 -0.397547 -2.85494e-17)
(-5.96727 -0.21054 -2.83975e-17)
(-5.69333 -0.0243329 0)
(-5.41491 0.168694 0)
(-5.12553 0.342292 -5.54039e-17)
(-4.84899 0.582485 0)
(-4.53808 0.765977 -5.44992e-17)
(-4.21049 0.991967 0)
(-3.85136 1.22726 5.35022e-17)
(-3.46798 1.40933 1.06181e-16)
(-3.06087 1.58575 0)
(-2.59283 1.80548 0)
(-2.21706 2.04297 0)
(-1.65945 2.2275 5.09584e-17)
(-1.24452 2.42067 0)
(-0.64583 2.6122 4.9839e-17)
(-0.152876 2.77049 0)
(0.429232 2.94724 0)
(0.990585 3.09486 -9.60982e-17)
(1.57705 3.23472 0)
(2.14153 3.37559 -4.67551e-17)
(2.76306 3.47365 0)
(3.27265 3.64409 -4.544e-17)
(3.84328 3.74223 0)
(4.27608 3.87224 0)
(4.72597 3.91263 0)
(5.12112 3.95043 -1.29009e-16)
(5.51534 3.99727 -4.25321e-17)
(5.79022 4.10391 0)
(5.94889 4.33076 0)
(5.96853 4.48711 0)
(5.8812 4.60609 0)
(5.72676 4.68919 4.28965e-17)
(5.51171 4.73597 -8.59111e-17)
(5.28791 4.58908 -4.29433e-17)
(5.10422 4.26006 8.55814e-17)
(4.85838 3.91111 8.57331e-17)
(4.64126 3.43006 4.2874e-17)
(4.5674 2.99765 0)
(4.50233 2.86586 8.44202e-17)
(4.53026 2.74614 0)
(4.51905 2.56715 -7.98109e-17)
(4.49798 2.37223 -3.8849e-17)
(4.40104 1.95885 0)
(4.31776 1.2884 8.07938e-17)
(4.52503 0.648334 4.06287e-17)
(5.31607 0.447896 0)
(6.06643 0.736682 3.48936e-17)
(5.96698 1.02662 -1.06957e-16)
(5.59956 0.833755 0)
(5.35586 0.0253306 0)
(5.57983 -0.948834 0)
(6.17548 -2.14943 0)
(7.21729 -3.67327 -8.55618e-17)
(9.37674 -4.6371 -8.42948e-17)
(11.9156 -4.34125 0)
(13.6083 -3.50208 0)
(15.0961 -3.25578 0)
(15.6048 -3.3386 0)
(15.7539 -3.15814 0)
(16.2058 -3.2151 0)
(16.0664 -3.62721 -7.04086e-17)
(15.1916 -3.19256 8.27986e-20)
(12.9005 -2.82464 0)
(11.2762 -4.61653 0)
(11.3646 -6.8201 -7.16109e-17)
(11.061 -6.90535 0)
(13.0881 -5.07661 6.5011e-17)
(11.5752 -7.70707 6.79083e-17)
(12.6939 -10.8231 0)
(12.5494 -9.88572 0)
(15.712 -11.501 -6.78178e-17)
(16.0731 -11.72 -1.35408e-16)
(19.562 -13.4751 0)
(20.3856 -13.4957 0)
(22.8415 -13.9528 0)
(23.4616 -13.9966 -6.78038e-17)
(25.2028 -13.8951 6.61505e-17)
(25.7347 -13.3857 0)
(26.6892 -12.9722 1.27631e-16)
(25.8217 -12.7797 6.30665e-17)
(25.4257 -12.8506 -1.23101e-16)
(23.3625 -12.9058 0)
(21.7529 -13.5084 0)
(18.3565 -14.5361 -1.16394e-16)
(16.3838 -15.2941 -5.32263e-17)
(16.6388 -15.01 0)
(13.6932 -13.1912 0)
(12.7634 -12.4626 0)
(9.26645 -11.0343 0)
(7.36797 -11.5356 -9.81108e-17)
(7.07492 -16.7795 0)
(5.34969 -17.3732 0)
(7.93964 -13.7608 0)
(6.91318 -11.69 0)
(2.98716 -10.6583 0)
(1.68403 -11.3203 0)
(0.717876 -9.24494 -8.9149e-17)
(-0.905282 -8.8951 0)
(-4.1397 -8.54831 0)
(-5.49053 -7.28246 -1.7401e-16)
(-9.30608 -6.48567 8.99669e-17)
(-10.2557 -6.79428 -8.34014e-17)
(-11.658 -6.45178 9.01088e-17)
(-0.0857339 -9.32677 0)
(-0.308261 -8.96735 -4.67898e-17)
(-0.414924 -9.01475 0)
(-0.391931 -9.49488 -2.30429e-17)
(-0.322712 -10.0395 0)
(-0.254083 -10.3879 0)
(-0.22297 -10.5811 2.31596e-17)
(-0.174223 -10.7312 0)
(-0.102723 -10.9003 0)
(-0.00694936 -11.0797 0)
(0.0770842 -11.204 0)
(0.141834 -11.304 0)
(0.194991 -11.2701 -8.94631e-17)
(0.206548 -11.1128 -4.42573e-17)
(0.197469 -10.8987 4.35978e-17)
(0.118996 -10.6469 0)
(0.00545248 -10.3819 0)
(-0.0709206 -10.1515 0)
(-0.108111 -10.0217 0)
(-0.136962 -9.91418 0)
(-0.117539 -9.74434 -3.94762e-17)
(-0.0938798 -9.54197 -3.91138e-17)
(-0.0769321 -9.32855 3.87707e-17)
(-0.0356712 -9.04599 -3.83707e-17)
(0.0449315 -8.64141 0)
(0.09472 -8.23183 0)
(0.169017 -7.78293 -3.70174e-17)
(0.252894 -7.16969 0)
(0.26777 -6.51606 0)
(0.327941 -5.8328 -3.60266e-17)
(0.292901 -5.08279 -3.60313e-17)
(0.201317 -4.31571 -3.60307e-17)
(0.0253276 -3.74994 0)
(-0.172679 -3.2205 0)
(-0.607224 -2.65717 3.62079e-17)
(-1.02318 -2.72857 0)
(-1.74712 -3.16903 0)
(-2.7303 -3.77932 -3.60459e-17)
(-3.65397 -4.93702 3.53438e-17)
(-4.38613 -6.1095 -3.37461e-17)
(-4.45718 -7.03056 0)
(-4.59348 -8.00549 0)
(-4.41069 -8.49395 -6.58748e-17)
(-4.11138 -8.74761 0)
(-4.51877 -9.10539 -7.14103e-17)
(-5.43471 -6.93967 -1.07404e-16)
(-6.40939 -5.30809 1.03156e-16)
(-7.18785 -4.09137 -6.93437e-17)
(-8.11862 -2.60515 0)
(-8.9548 -1.76901 0)
(-9.6923 -0.803089 -6.74576e-17)
(-10.4862 -0.430075 -3.34372e-17)
(-10.8991 -0.0338095 0)
(-11.3937 0.0304286 0)
(-11.4599 0.0661857 -3.28036e-17)
(-11.5581 -0.0920214 -6.53182e-17)
(-11.4259 -0.310471 0)
(-11.2758 -0.54272 6.47041e-17)
(-10.9696 -0.796498 -6.44848e-17)
(-10.6226 -1.11803 6.41196e-17)
(-10.2566 -1.42376 0)
(-9.85741 -1.70713 0)
(-9.46806 -1.91353 0)
(-9.05333 -2.09751 0)
(-8.67982 -2.24268 0)
(-8.24309 -2.30038 6.20428e-17)
(-7.8664 -2.32108 0)
(-7.49796 -2.26514 0)
(-7.1439 -2.19923 0)
(-6.74303 -2.07381 1.20807e-16)
(-6.44903 -1.95387 6.00377e-17)
(-6.14115 -1.8039 5.96242e-17)
(-5.84739 -1.60319 -1.18346e-16)
(-5.5593 -1.43526 5.87126e-17)
(-5.27371 -1.2004 -5.83864e-17)
(-4.98679 -0.956863 0)
(-4.72653 -0.730639 5.7545e-17)
(-4.46028 -0.474818 0)
(-4.19101 -0.213911 0)
(-3.90888 0.0446608 0)
(-3.5968 0.297926 1.11611e-16)
(-3.30569 0.604639 -5.53122e-17)
(-2.99555 0.869036 -5.47991e-17)
(-2.67376 1.1748 -1.08958e-16)
(-2.31953 1.44953 -1.62332e-16)
(-1.94449 1.7547 -5.37719e-17)
(-1.51631 1.99578 0)
(-1.08588 2.29836 -1.05679e-16)
(-0.667208 2.62308 0)
(-0.14808 2.87137 -1.56295e-16)
(0.261861 3.16888 0)
(0.833576 3.4627 -1.53915e-16)
(1.32668 3.69708 0)
(1.8317 3.99459 0)
(2.40536 4.2057 -4.98698e-17)
(2.96187 4.40313 0)
(3.50315 4.61413 4.9072e-17)
(4.08918 4.75003 9.67299e-17)
(4.58151 4.94681 4.77842e-17)
(5.17449 5.03038 9.41623e-17)
(5.6028 5.18778 -9.25293e-17)
(6.07675 5.27357 -9.11734e-17)
(6.438 5.39357 1.78933e-16)
(6.73497 5.55744 0)
(6.84782 5.68691 0)
(6.9434 5.75634 8.47564e-17)
(7.02186 5.85264 -8.48191e-17)
(7.05124 6.11526 0)
(7.06459 6.31885 0)
(7.03349 6.32213 8.54006e-17)
(6.88358 5.99232 0)
(6.67439 5.63385 -1.85494e-19)
(6.49425 5.18356 -1.82436e-19)
(6.29489 4.44735 8.22742e-17)
(5.91917 3.83642 0)
(5.2994 3.56897 -8.50685e-17)
(5.02106 3.38893 0)
(4.91522 3.17601 8.45831e-17)
(4.92517 2.96443 0)
(5.00506 2.56337 0)
(4.88294 1.7451 -8.48665e-17)
(4.72878 0.635085 -8.79594e-17)
(5.00666 -0.100979 0)
(6.49774 0.34485 -7.60373e-17)
(7.24023 1.18484 1.39555e-16)
(7.26311 1.09885 0)
(6.96232 -0.0928144 0)
(6.8343 -1.56405 0)
(7.26188 -3.00751 0)
(7.5466 -5.04131 8.47079e-17)
(8.84151 -6.78303 -1.66572e-16)
(11.0091 -6.61589 0)
(13.3666 -5.76767 0)
(15.2944 -4.98426 0)
(15.5828 -4.48415 0)
(16.1706 -4.74651 0)
(16.9084 -4.78496 0)
(16.6159 -4.60872 0)
(14.6665 -4.02555 7.11528e-17)
(13.2137 -3.51571 0)
(11.9012 -5.7837 0)
(11.1592 -8.85231 7.31464e-17)
(10.6477 -10.0755 0)
(11.0747 -8.32839 0)
(12.7998 -10.9016 -6.81158e-17)
(13.2757 -14.4329 0)
(13.217 -14.9955 0)
(17.4484 -17.125 1.47116e-16)
(17.3567 -17.0024 1.43084e-16)
(21.7144 -19.4407 1.45311e-16)
(22.1967 -19.0113 0)
(25.1351 -19.5488 1.40548e-16)
(25.2562 -19.7264 0)
(27.3575 -19.963 -1.40228e-16)
(27.2426 -19.3835 0)
(28.6109 -18.8465 -1.30873e-16)
(27.9707 -18.0923 9.2673e-19)
(27.533 -17.9046 1.25579e-16)