/*--------------------------------*- C++ -*----------------------------------*\
| =========                 |                                                 |
| \\      /  F ield         | OpenFOAM: The Open Source CFD Toolbox           |
|  \\    /   O peration     | Version:  dev                                   |
|   \\  /    A nd           | Web:      http://www.openfoam.org               |
|    \\/     M anipulation  |                                                 |
\*---------------------------------------------------------------------------*/
FoamFile
{
    version     2.0;
    format      ascii;
    class       volVectorField;
    object      U_0;
    location    "9.118";
}
// * * * * * * * * * * * * * * * * * * * * * * * * * * * * * * * * * * * * * //

dimensions      [0 1 -1 0 0 0 0];

internalField   nonuniform List<vector> 
12225
(
(6.48624 0.855307 0)
(2.86946 0.506623 0)
(0.404281 0.351751 0)
(-0.355261 0.309417 0)
(-1.80256 0.337716 0)
(-1.46917 0.291193 0)
(-2.9388 0.365375 0)
(-2.02953 0.262505 0)
(-3.54498 0.387037 0)
(-2.1902 0.22643 0)
(-3.71254 0.397899 0)
(-1.89755 0.172383 0)
(-3.31533 0.360529 0)
(-0.772424 0.0524519 0)
(-1.76098 0.1246 0)
(3.13258 -0.283133 0)
(9.25278 0.716595 0)
(8.80283 5.47769 0)
(8.78062 2.14748 0)
(7.81543 1.85742 0)
(4.63618 1.5087 0)
(4.46957 1.26561 0)
(1.06229 1.20817 0)
(2.5903 1.09851 0)
(-1.20198 1.18052 0)
(1.64172 0.988139 0)
(-2.71247 1.21911 0)
(1.30761 0.890291 0)
(-3.49383 1.23574 0)
(1.52147 0.73907 0)
(-3.47053 1.17603 0)
(2.17301 0.343916 0)
(-2.58526 0.736524 0)
(3.11381 -2.12718 0)
(0.773849 -1.65993 0)
(3.26376 -3.22344 0)
(8.5823 2.81701 0)
(10.3852 2.67187 0)
(6.60214 2.45713 0)
(8.59132 2.27611 0)
(3.66829 2.20129 0)
(6.97757 2.11139 0)
(1.40796 2.0851 0)
(5.95772 1.97001 0)
(-0.137498 2.06883 0)
(5.33113 1.69886 0)
(-0.513381 2.12796 0)
(4.84665 1.2995 0)
(0.32248 2.0363 0)
(4.23397 0.693758 0)
(1.61277 1.85769 0)
(4.15293 -0.770751 0)
(3.0864 0.677517 0)
(1.08497 -0.503672 0)
(7.08403 3.75844 0)
(11.4874 3.51251 0)
(6.41254 3.38203 0)
(10.4423 3.20582 0)
(5.10043 3.23898 0)
(9.28256 3.04044 0)
(3.99436 3.1892 0)
(8.14175 2.85512 0)
(3.27 3.2517 0)
(7.07802 2.44295 0)
(2.93182 3.3615 0)
(6.17604 1.85624 0)
(3.18687 3.40278 0)
(5.77273 1.01794 0)
(3.76898 3.33341 0)
(6.03305 -0.579464 0)
(3.48526 1.11569 0)
(1.58278 -1.31499 0)
(7.07447 4.74648 0)
(10.7198 4.07674 0)
(6.9878 4.2504 0)
(9.49233 3.9301 0)
(6.50702 4.27552 0)
(8.4162 3.7859 0)
(6.07091 4.31633 0)
(7.38942 3.64613 0)
(5.66899 4.33792 0)
(6.60369 3.40795 0)
(5.34187 4.34859 0)
(5.973 2.95713 0)
(5.27636 4.26863 0)
(5.8099 2.30293 0)
(5.23526 3.95597 0)
(5.8408 1.37544 0)
(4.11748 2.76288 0)
(3.01068 0.319237 0)
(8.56261 6.22122 0)
(8.74035 4.85275 0)
(7.84151 5.42844 0)
(7.68312 4.73101 0)
(7.15957 5.48669 0)
(6.83473 4.58573 0)
(6.48424 5.66964 0)
(6.22868 4.43848 0)
(5.95966 5.75294 0)
(5.92273 4.22453 0)
(5.67705 5.70619 0)
(5.74085 3.87932 0)
(5.52378 5.41733 0)
(5.8419 3.30478 0)
(5.42672 4.82635 0)
(6.04387 2.47816 0)
(4.79857 3.85999 0)
(4.23807 2.54137 0)
(9.43814 7.39801 0)
(8.09377 5.71821 0)
(8.26559 6.53733 0)
(7.07129 5.69531 0)
(7.23596 6.64197 0)
(6.21497 5.64484 0)
(6.42302 6.80348 0)
(5.82888 5.599 0)
(5.9461 6.75864 0)
(5.67669 5.52808 0)
(5.6823 6.58975 0)
(5.57206 5.32841 0)
(5.55987 6.22697 0)
(5.61886 4.8457 0)
(5.4447 5.64603 0)
(5.67659 4.26004 0)
(4.95303 4.86033 0)
(4.77568 4.18502 0)
(9.70382 8.52118 0)
(8.25761 6.61802 0)
(8.33218 7.58434 0)
(7.38931 6.63691 0)
(7.29616 7.64538 0)
(6.53122 6.5719 0)
(6.43859 7.75625 0)
(6.04089 6.52157 0)
(5.85003 7.70266 0)
(5.6971 6.44069 0)
(5.58033 7.47194 0)
(5.54323 6.28392 0)
(5.45105 7.0456 0)
(5.57822 5.91914 0)
(5.35399 6.42976 0)
(5.47105 5.53168 0)
(5.03327 5.72746 0)
(5.00377 5.53155 0)
(9.80953 9.63498 0)
(8.38626 7.52392 0)
(8.3536 8.42512 0)
(7.44184 7.53297 0)
(7.23445 8.51303 0)
(6.54321 7.5624 0)
(6.41113 8.60096 0)
(6.04484 7.60315 0)
(5.8296 8.53037 0)
(5.67943 7.59194 0)
(5.55766 8.26776 0)
(5.47374 7.4291 0)
(5.37593 7.87447 0)
(5.43348 7.07777 0)
(5.24728 7.29959 0)
(5.30199 6.72742 0)
(5.05529 6.68935 0)
(5.0567 6.51709 0)
(9.37423 10.6829 0)
(8.24651 8.47767 0)
(8.14277 9.44902 0)
(7.48058 8.6029 0)
(7.10952 9.55229 0)
(6.51829 8.68069 0)
(6.21264 9.55071 0)
(5.90993 8.71629 0)
(5.67135 9.45472 0)
(5.53176 8.71616 0)
(5.42234 9.1911 0)
(5.35325 8.57136 0)
(5.26646 8.84901 0)
(5.30335 8.30085 0)
(5.17256 8.31317 0)
(5.18065 7.92423 0)
(5.00456 7.78923 0)
(5.01586 7.62937 0)
(9.7204 12.1021 0)
(8.56348 9.61586 0)
(8.08943 10.3598 0)
(7.46895 9.71372 0)
(7.0042 10.5011 0)
(6.53991 9.92895 0)
(6.16826 10.5356 0)
(5.87635 10.0163 0)
(5.6012 10.4188 0)
(5.43279 9.96226 0)
(5.29757 10.1929 0)
(5.20235 9.79459 0)
(5.15049 9.91005 0)
(5.11534 9.54697 0)
(5.01593 9.4384 0)
(4.9913 9.14904 0)
(4.89442 8.97112 0)
(4.90805 8.84654 0)
(9.32974 13.3056 0)
(8.39455 10.8753 0)
(7.85615 11.466 0)
(7.34835 11.0254 0)
(6.8865 11.5732 0)
(6.47362 11.2726 0)
(6.05239 11.6677 0)
(5.72014 11.3899 0)
(5.42083 11.548 0)
(5.22227 11.2999 0)
(5.06742 11.3406 0)
(4.98163 11.1211 0)
(4.9184 11.1091 0)
(4.88237 10.8686 0)
(4.83552 10.7425 0)
(4.79634 10.5164 0)
(4.75637 10.3414 0)
(4.78799 10.1534 0)
(9.53504 14.648 0)
(8.67509 12.1884 0)
(7.96166 12.4657 0)
(7.37211 12.2652 0)
(6.8164 12.6259 0)
(6.41862 12.5876 0)
(6.03175 12.8429 0)
(5.73501 12.7527 0)
(5.476 12.7813 0)
(5.27947 12.6324 0)
(5.08599 12.5734 0)
(4.93794 12.4265 0)
(4.81388 12.3273 0)
(4.70293 12.1726 0)
(4.61981 12.0182 0)
(4.54482 11.8398 0)
(4.45338 11.6815 0)
(4.51747 11.5115 0)
(9.40706 15.9358 0)
(8.69237 13.4202 0)
(8.14043 13.5837 0)
(7.54508 13.6152 0)
(6.91065 13.8244 0)
(6.42893 13.8706 0)
(6.00488 13.9744 0)
(5.6738 13.9553 0)
(5.39641 13.966 0)
(5.18336 13.9082 0)
(4.97011 13.8749 0)
(4.79424 13.8006 0)
(4.62229 13.7315 0)
(4.48801 13.61 0)
(4.36226 13.4859 0)
(4.28761 13.3007 0)
(4.20139 13.1569 0)
(4.26978 12.9718 0)
(9.39525 17.0927 0)
(8.60347 14.3982 0)
(7.96351 14.4748 0)
(7.33195 14.6678 0)
(6.75194 14.8915 0)
(6.32196 15.0112 0)
(5.92492 15.0489 0)
(5.60022 15.0505 0)
(5.28663 15.0553 0)
(5.03825 15.0423 0)
(4.77935 15.022 0)
(4.589 14.9754 0)
(4.38952 14.9128 0)
(4.25774 14.8046 0)
(4.1033 14.6832 0)
(4.02545 14.5364 0)
(3.91088 14.4047 0)
(3.97225 14.2395 0)
(9.64152 17.89 0)
(8.91406 15.1842 0)
(8.19122 15.2286 0)
(7.54189 15.4391 0)
(6.95146 15.615 0)
(6.46685 15.7037 0)
(5.98405 15.7535 0)
(5.61398 15.8227 0)
(5.23821 15.8976 0)
(4.9441 15.9488 0)
(4.63505 15.9916 0)
(4.41756 16.0061 0)
(4.1734 16.0031 0)
(4.01072 15.9522 0)
(3.82317 15.8646 0)
(3.72847 15.7523 0)
(3.57511 15.6422 0)
(3.62623 15.4867 0)
(9.69154 18.3831 0)
(8.98787 15.4202 0)
(8.26816 15.447 0)
(7.65058 15.7155 0)
(7.04875 15.9274 0)
(6.51391 16.049 0)
(6.00264 16.1343 0)
(5.60095 16.2434 0)
(5.17639 16.343 0)
(4.8431 16.404 0)
(4.50159 16.4508 0)
(4.26327 16.4894 0)
(3.99494 16.5086 0)
(3.81784 16.487 0)
(3.61753 16.42 0)
(3.51422 16.3466 0)
(3.34513 16.2788 0)
(3.38243 16.1581 0)
(9.88088 17.9287 0)
(9.07347 15.0171 0)
(8.29212 15.0178 0)
(7.66107 15.2551 0)
(7.12439 15.4218 0)
(6.67891 15.5463 0)
(6.19497 15.6307 0)
(5.76958 15.7749 0)
(5.31686 15.9554 0)
(4.9426 16.0747 0)
(4.56112 16.1515 0)
(4.28988 16.2416 0)
(4.00843 16.3011 0)
(3.8183 16.31 0)
(3.61476 16.2686 0)
(3.5036 16.2234 0)
(3.32892 16.1934 0)
(3.32748 16.1166 0)
(9.70413 16.591 0)
(9.12559 14.0969 0)
(8.49989 13.9624 0)
(7.95354 14.0409 0)
(7.44888 14.192 0)
(7.01072 14.3871 0)
(6.52738 14.5334 0)
(6.08553 14.7137 0)
(5.61659 14.9311 0)
(5.20642 15.0618 0)
(4.77672 15.1091 0)
(4.43394 15.19 0)
(4.09308 15.2616 0)
(3.84367 15.2869 0)
(3.57913 15.2726 0)
(3.40061 15.2686 0)
(3.18729 15.2864 0)
(3.13956 15.2626 0)
(10.0905 14.9903 0)
(9.69702 12.5758 0)
(9.16464 12.4119 0)
(8.62241 12.482 0)
(8.04891 12.633 0)
(7.52346 12.8585 0)
(6.98123 13.0472 0)
(6.48305 13.2173 0)
(5.9816 13.4254 0)
(5.55222 13.6064 0)
(5.11228 13.6788 0)
(4.74905 13.7574 0)
(4.3966 13.8407 0)
(4.10803 13.8864 0)
(3.80134 13.8988 0)
(3.56482 13.9333 0)
(3.30647 13.9585 0)
(3.18917 13.9435 0)
(9.73748 13.084 0)
(9.52052 10.8965 0)
(9.0857 10.6791 0)
(8.57092 10.6958 0)
(8.04203 10.8258 0)
(7.56622 11.0624 0)
(7.07544 11.3355 0)
(6.63203 11.5713 0)
(6.20251 11.7536 0)
(5.83607 11.9185 0)
(5.44398 12.0044 0)
(5.08231 12.0541 0)
(4.71787 12.108 0)
(4.43061 12.167 0)
(4.13989 12.2027 0)
(3.89969 12.2601 0)
(3.64858 12.2976 0)
(3.5011 12.3309 0)
(9.81038 10.9973 0)
(9.64322 9.17462 0)
(9.22444 9.00857 0)
(8.78557 9.05417 0)
(8.33978 9.14125 0)
(7.89615 9.28488 0)
(7.42418 9.46865 0)
(6.95735 9.69648 0)
(6.46938 9.8873 0)
(6.05198 10.056 0)
(5.66348 10.1981 0)
(5.30719 10.2882 0)
(4.95277 10.3402 0)
(4.636 10.4151 0)
(4.31589 10.4582 0)
(4.0627 10.489 0)
(3.79829 10.5336 0)
(3.63521 10.5694 0)
(9.92289 9.31705 0)
(9.84039 7.50519 0)
(9.53334 7.26243 0)
(9.15994 7.3022 0)
(8.74386 7.43219 0)
(8.3299 7.64186 0)
(7.88892 7.84216 0)
(7.4703 8.04824 0)
(7.00151 8.22643 0)
(6.53858 8.36843 0)
(6.08743 8.45772 0)
(5.68772 8.54779 0)
(5.29209 8.60288 0)
(4.95051 8.66349 0)
(4.6276 8.71511 0)
(4.32775 8.7764 0)
(4.04751 8.83243 0)
(3.83574 8.88067 0)
(10.2095 7.43501 0)
(10.1814 5.94185 0)
(9.8605 5.87012 0)
(9.37812 5.95925 0)
(8.84166 6.03029 0)
(8.37623 6.11986 0)
(7.94289 6.25005 0)
(7.54149 6.40849 0)
(7.13313 6.56903 0)
(6.74554 6.70517 0)
(6.32034 6.79272 0)
(5.91794 6.8865 0)
(5.52353 6.95998 0)
(5.15122 7.01967 0)
(4.8074 7.0796 0)
(4.50531 7.12936 0)
(4.22032 7.16767 0)
(4.01496 7.22544 0)
(10.2137 5.91013 0)
(10.1473 4.5852 0)
(9.93609 4.5326 0)
(9.62919 4.64775 0)
(9.21212 4.73875 0)
(8.79908 4.81973 0)
(8.35263 4.91944 0)
(7.89665 5.03078 0)
(7.40082 5.13712 0)
(6.95607 5.22683 0)
(6.51661 5.30129 0)
(6.10758 5.35543 0)
(5.71138 5.40923 0)
(5.33272 5.47468 0)
(4.94683 5.51939 0)
(4.61016 5.57718 0)
(4.28679 5.62246 0)
(4.0381 5.66063 0)
(9.97501 4.27858 0)
(10.1875 3.35715 0)
(10.1296 3.34629 0)
(9.81927 3.40634 0)
(9.35491 3.47712 0)
(8.87557 3.58996 0)
(8.35937 3.70187 0)
(7.87743 3.80825 0)
(7.39168 3.89954 0)
(6.93635 3.9562 0)
(6.48842 3.99108 0)
(6.0664 4.02989 0)
(5.62224 4.05782 0)
(5.1962 4.09938 0)
(4.77146 4.14436 0)
(4.3699 4.18354 0)
(3.97715 4.22235 0)
(3.63778 4.25132 0)
(10.062 3.02686 0)
(10.2447 2.15883 0)
(10.2429 2.14309 0)
(9.9551 2.26358 0)
(9.43226 2.37197 0)
(8.8403 2.49322 0)
(8.21238 2.61194 0)
(7.59687 2.72099 0)
(6.98503 2.78571 0)
(6.38663 2.82265 0)
(5.77729 2.84793 0)
(5.18781 2.8766 0)
(4.60112 2.90215 0)
(4.03645 2.95004 0)
(3.49603 2.99089 0)
(2.9973 3.01891 0)
(2.51907 3.03483 0)
(2.10554 3.04706 0)
(10.1059 1.70561 0)
(10.5704 1.06574 0)
(10.3167 1.13006 0)
(9.61661 1.28335 0)
(8.71278 1.42882 0)
(7.7779 1.56529 0)
(6.8689 1.6893 0)
(6.02519 1.78681 0)
(5.22308 1.85509 0)
(4.43865 1.90006 0)
(3.66265 1.93469 0)
(2.91012 1.95713 0)
(2.2061 1.97044 0)
(1.55222 2.00598 0)
(0.946384 2.02662 0)
(0.373898 2.04491 0)
(-0.155953 2.06192 0)
(-0.653842 2.08064 0)
(10.0631 0.523917 0)
(9.74218 0.0650633 0)
(8.62377 0.24403 0)
(7.20966 0.514024 0)
(5.83894 0.75406 0)
(4.61132 0.913439 0)
(3.5381 1.00657 0)
(2.58307 1.06073 0)
(1.7222 1.1006 0)
(0.909362 1.12966 0)
(0.134236 1.14205 0)
(-0.566248 1.15498 0)
(-1.20552 1.17077 0)
(-1.79616 1.18891 0)
(-2.35785 1.1997 0)
(-2.88563 1.20683 0)
(-3.3674 1.21495 0)
(-3.81802 1.22162 0)
(8.39917 -0.028898 0)
(5.86782 -0.025009 0)
(3.5955 0.216744 0)
(1.91941 0.352658 0)
(0.809045 0.392922 0)
(0.00419392 0.394921 0)
(-0.674037 0.387347 0)
(-1.29305 0.381555 0)
(-1.87502 0.382946 0)
(-2.45058 0.384795 0)
(-3.01333 0.379873 0)
(-3.54528 0.388159 0)
(-4.04609 0.397115 0)
(-4.51753 0.399598 0)
(-4.96526 0.403165 0)
(-5.38066 0.403815 0)
(-5.76971 0.401654 0)
(-6.14591 0.415473 0)
(0.00148708 -0.799418 0)
(-0.139778 -0.569919 0)
(-0.444369 -0.588932 0)
(-0.684906 -0.721807 0)
(-0.856237 -0.842524 0)
(-0.923295 -0.924049 0)
(-0.926671 -0.970042 1.06981e-17)
(-0.86362 -1.01726 -1.06587e-17)
(-0.755968 -1.06736 0)
(-0.625759 -1.1083 -1.05709e-17)
(-0.453155 -1.14787 0)
(-0.222621 -1.16552 0)
(0.0472468 -1.17396 0)
(0.316688 -1.19068 1.03895e-17)
(0.626596 -1.18803 0)
(0.948626 -1.16011 0)
(1.23288 -1.14765 -1.02312e-17)
(1.50002 -1.14893 0)
(1.76742 -1.1029 0)
(2.00245 -1.03027 0)
(2.19821 -0.984803 9.9696e-18)
(2.35951 -0.915325 0)
(2.49586 -0.860901 9.81873e-18)
(2.57643 -0.759804 0)
(2.54449 -0.645559 0)
(2.47744 -0.569407 9.62574e-18)
(2.25661 -0.41315 0)
(1.93987 -0.300121 -9.48716e-18)
(1.5251 -0.121565 0)
(0.875767 0.0293939 9.35896e-18)
(0.200917 0.146115 0)
(-0.807503 0.600342 0)
(-2.08051 0.366128 0)
(-2.92226 -0.616641 0)
(-3.51474 -1.03279 0)
(-3.90626 -0.707687 -9.11488e-18)
(-4.01632 -0.508897 0)
(-4.13192 -0.56374 1.80085e-17)
(-4.18821 -0.6534 0)
(-4.01213 -0.779947 -1.77048e-17)
(-3.70532 -0.901165 0)
(-3.27881 -0.972377 0)
(-2.70715 -1.03059 1.73405e-17)
(-2.00445 -1.10548 0)
(-1.07154 -1.08615 1.69467e-17)
(-0.485055 -0.844125 -1.68369e-17)
(0.15 -1.02512 0)
(0.813575 -1.06141 -1.6516e-17)
(1.52742 -0.194116 -1.66017e-17)
(1.55491 0.630877 0)
(1.25647 0.91805 0)
(1.28334 0.462426 0)
(1.63883 -0.852835 0)
(2.12942 -2.16872 0)
(2.61769 -2.56309 1.64021e-17)
(3.09386 -2.0363 0)
(3.01219 -0.835184 -1.65714e-17)
(2.00704 0.206696 0)
(0.866947 0.540917 0)
(-0.116614 0.494395 1.60761e-17)
(-0.960061 0.374784 0)
(-1.61494 0.24862 -1.57654e-17)
(-2.16262 0.140414 0)
(-2.57597 0.0472743 0)
(-2.90491 -0.0351302 0)
(-3.1472 -0.0867848 1.5284e-17)
(-3.28569 -0.132059 0)
(-3.38846 -0.175666 0)
(-3.47134 -0.204131 1.49571e-17)
(-3.51612 -0.216193 0)
(-3.55014 -0.230282 1.47432e-17)
(-3.57851 -0.239157 0)
(-3.62042 -0.238662 0)
(-3.65477 -0.21998 0)
(-3.65045 -0.214057 -1.43147e-17)
(-3.65361 -0.200758 0)
(-3.67006 -0.172387 0)
(-3.69585 -0.147093 -1.39903e-17)
(-3.71817 -0.118588 -1.38814e-17)
(-3.73383 -0.0937561 0)
(-3.75202 -0.0669292 -1.36606e-17)
(-3.74263 -0.0196244 0)
(-3.6672 0.0199554 -2.68667e-17)
(-3.56103 0.0508092 0)
(-3.44485 0.0933268 -2.64138e-17)
(-3.30107 0.12839 0)
(-3.10051 0.149171 2.59565e-17)
(-2.82996 0.186606 0)
(-2.58657 0.239736 0)
(-2.2831 0.28098 0)
(-1.88531 0.316482 -2.50443e-17)
(-1.48599 0.343278 0)
(-1.03287 0.371064 2.46046e-17)
(-0.57384 0.399552 0)
(-0.0817219 0.430495 -2.41706e-17)
(0.460679 0.454314 -2.3959e-17)
(1.00432 0.473701 -2.3746e-17)
(1.54306 0.498275 0)
(2.08879 0.539706 0)
(2.63722 0.531309 0)
(3.1726 0.556271 0)
(3.69862 0.54998 0)
(4.16838 0.536965 0)
(4.58961 0.51631 0)
(4.95543 0.52095 0)
(5.2713 0.545686 2.23507e-17)
(5.51268 0.597037 2.2221e-17)
(5.53426 0.60758 0)
(5.25677 0.626024 0)
(4.85871 0.689203 0)
(4.46306 0.707235 2.15966e-17)
(4.08027 0.680719 0)
(3.74847 0.597406 0)
(3.51217 0.5065 0)
(3.43921 0.448783 0)
(3.37516 0.443899 -2.0455e-17)
(3.16899 0.40538 0)
(2.94023 0.357579 0)
(2.62703 0.313822 1.9828e-17)
(2.41436 0.227382 -1.96113e-17)
(2.47776 0.114783 0)
(2.70888 0.0256638 -1.92828e-17)
(2.95814 -0.00608114 0)
(3.06459 0.0543313 1.92491e-17)
(2.98088 0.0968417 0)
(2.78251 0.0369313 0)
(2.76712 -0.0935132 0)
(3.09971 -0.215286 0)
(3.81245 -0.388307 0)
(5.11684 -0.547273 -3.75138e-17)
(6.77745 -0.577483 -3.71138e-17)
(8.45096 -0.47303 0)
(9.63358 -0.412967 0)
(10.3553 -0.559417 0)
(11.0105 -0.658722 3.66935e-17)
(11.8548 -0.652587 0)
(12.3764 -0.681886 0)
(12.668 -0.85331 0)
(13.3637 -1.03799 3.68131e-17)
(13.619 -0.614721 -3.6668e-17)
(12.3964 -0.357365 0)
(12.9992 -1.04819 0)
(14.3089 -0.898796 -3.55895e-17)
(12.5081 -0.627379 -3.53935e-17)
(11.5083 -0.976855 0)
(13.7511 -1.32149 0)
(13.9907 -1.32907 3.40862e-17)
(14.7996 -1.5394 -3.37974e-17)
(15.3781 -1.58049 0)
(16.5346 -1.79 0)
(17.7459 -1.7517 -3.31443e-17)
(18.8132 -1.77728 0)
(19.5624 -1.68846 0)
(20.0578 -1.65981 -3.25724e-17)
(19.755 -1.53325 0)
(18.9911 -1.57628 -3.2373e-17)
(17.7412 -1.86375 0)
(16.9917 -2.2051 0)
(16.2608 -2.12089 0)
(16.1711 -2.00447 3.0583e-17)
(15.8839 -1.93405 0)
(15.5477 -2.02169 0)
(15.6075 -2.11198 0)
(13.9789 -1.69245 0)
(12.3978 -1.60958 0)
(9.48383 -1.02245 0)
(4.14039 -0.776129 2.75415e-17)
(3.81539 -2.00293 2.61947e-17)
(6.48044 -1.76825 0)
(5.96048 -1.33546 0)
(3.85559 -1.52928 0)
(1.70739 -1.33807 -2.7092e-17)
(0.897965 -1.33605 0)
(-1.11658 -1.01718 5.42391e-17)
(-3.24738 -1.30643 -5.45675e-17)
(-4.88417 -1.22215 -5.43621e-17)
(-6.85042 -1.18108 5.40731e-17)
(-9.21225 -1.03846 -5.45081e-17)
(-11.3122 -1.03014 5.37345e-17)
(-13.0543 -1.20509 0)
(0.0105096 -2.7461 0)
(0.00659827 -2.30165 0)
(-0.0800197 -2.09825 -2.14015e-17)
(-0.184807 -2.24167 0)
(-0.239009 -2.50778 2.12946e-17)
(-0.195211 -2.77364 2.13575e-17)
(-0.0934328 -2.92035 1.06945e-17)
(0.036612 -3.0525 1.06364e-17)
(0.167683 -3.18025 0)
(0.314761 -3.31299 1.05908e-17)
(0.517078 -3.44918 0)
(0.738113 -3.57508 0)
(1.00618 -3.62277 -2.11569e-17)
(1.26265 -3.68257 -1.05317e-17)
(1.51909 -3.73723 2.10495e-17)
(1.79858 -3.67935 2.09601e-17)
(2.06694 -3.57527 1.04019e-17)
(2.28497 -3.54245 0)
(2.4778 -3.50628 0)
(2.68737 -3.35646 0)
(2.8746 -3.24419 1.01083e-17)
(3.02586 -3.16372 0)
(3.19285 -2.98147 -2.96618e-17)
(3.34333 -2.77269 0)
(3.45586 -2.57165 0)
(3.47488 -2.33512 -9.64085e-18)
(3.45425 -1.97645 0)
(3.36766 -1.70133 9.53525e-18)
(3.19525 -1.33566 1.89784e-17)
(2.88041 -0.885243 -9.4253e-18)
(2.57335 -0.544348 0)
(2.01398 -0.146613 0)
(1.40216 0.194612 0)
(0.871955 0.285027 1.8269e-17)
(-0.518789 -0.163482 1.82424e-17)
(-1.89912 -1.06533 8.90958e-18)
(-2.5518 -1.90612 0)
(-2.95515 -1.83668 -1.71875e-17)
(-2.95996 -1.87057 0)
(-2.77052 -2.34674 1.69017e-17)
(-2.56851 -2.58652 0)
(-2.15254 -2.78632 0)
(-1.68064 -3.0719 -1.6673e-17)
(-0.910565 -3.36783 0)
(-0.0968601 -3.3629 -4.84898e-17)
(0.594859 -2.58549 1.5844e-17)
(1.79139 -2.57709 0)
(2.2688 -2.86407 1.61081e-17)
(2.59717 -2.46975 1.60511e-17)
(3.0663 -2.04816 0)
(2.90903 -2.1432 0)
(3.02216 -2.38154 0)
(2.37035 -1.81081 0)
(0.423518 -0.770327 0)
(-1.87967 -0.0187222 -1.63848e-17)
(-3.48318 0.45912 -3.25888e-17)
(-4.45319 0.742377 1.61396e-17)
(-5.21064 0.871983 0)
(-5.69 0.729548 -3.16649e-17)
(-6.1225 0.495394 1.57187e-17)
(-6.3907 0.209311 0)
(-6.61074 -0.0505894 1.54926e-17)
(-6.70588 -0.307353 0)
(-6.77376 -0.51588 0)
(-6.75387 -0.695704 3.03668e-17)
(-6.72756 -0.822743 -1.50859e-17)
(-6.6148 -0.923643 2.99602e-17)
(-6.52452 -1.00823 -2.97536e-17)
(-6.38913 -1.05438 -1.47788e-17)
(-6.27497 -1.08628 0)
(-6.14144 -1.09621 -1.4569e-17)
(-6.03221 -1.09461 0)
(-5.92907 -1.0625 0)
(-5.83492 -1.00359 0)
(-5.73237 -0.937882 -1.4103e-17)
(-5.61458 -0.876089 0)
(-5.53885 -0.805034 -2.777e-17)
(-5.46676 -0.732713 4.13275e-17)
(-5.39311 -0.652776 1.36693e-17)
(-5.31077 -0.579063 0)
(-5.20822 -0.502892 1.34414e-17)
(-5.10256 -0.386377 0)
(-4.96327 -0.280533 2.63964e-17)
(-4.78946 -0.169743 0)
(-4.58462 -0.0467032 2.58921e-17)
(-4.3639 0.028314 -5.12487e-17)
(-4.07733 0.103453 -2.54048e-17)
(-3.73604 0.227681 0)
(-3.44526 0.378619 0)
(-3.01417 0.464804 0)
(-2.60557 0.573357 2.43491e-17)
(-2.11835 0.68043 0)
(-1.61961 0.764318 -2.38328e-17)
(-1.08773 0.86218 0)
(-0.55184 0.948643 6.99047e-17)
(0.0309073 1.03271 2.30803e-17)
(0.605384 1.08914 2.28294e-17)
(1.17941 1.14661 0)
(1.71632 1.23968 0)
(2.2751 1.24762 0)
(2.78093 1.3106 0)
(3.27904 1.34467 0)
(3.73817 1.43648 4.3296e-17)
(4.17419 1.49578 4.33311e-17)
(4.49196 1.50812 0)
(4.67448 1.4925 -2.17005e-17)
(4.70585 1.56683 -2.15994e-17)
(4.60005 1.75911 0)
(4.34943 1.9172 -4.31375e-17)
(4.00105 1.91543 0)
(3.68149 1.7526 2.12521e-17)
(3.3879 1.54777 0)
(3.12686 1.33467 0)
(2.97743 0.995975 -4.16709e-17)
(2.98197 0.732641 0)
(3.04108 0.711071 1.99954e-17)
(3.04278 0.6815 0)
(2.95148 0.613224 0)
(2.72602 0.508841 1.87965e-17)
(2.54552 0.197585 1.87674e-17)
(2.60696 -0.163366 0)
(2.9715 -0.344615 -1.82842e-17)
(3.47427 -0.362013 0)
(3.67176 -0.312526 1.76523e-17)
(3.41354 -0.229698 3.61193e-17)
(3.05562 -0.293699 0)
(2.98103 -0.690539 0)
(3.29843 -1.15266 0)
(4.00143 -1.71212 0)
(5.49912 -2.33921 3.87026e-17)
(7.62306 -2.58942 1.13829e-16)
(9.94984 -2.4077 0)
(11.3678 -1.98204 0)
(12.2744 -1.72094 0)
(13.0317 -1.88313 -3.28461e-17)
(13.4876 -1.95916 0)
(13.6648 -1.76593 0)
(13.8176 -1.9738 7.14356e-17)
(13.4327 -1.9684 3.60809e-17)
(11.7778 -1.42693 3.5947e-17)
(10.643 -2.16196 0)
(11.8203 -3.59091 0)
(12.2275 -2.40811 3.5026e-17)
(12.2788 -1.81975 -3.46654e-17)
(9.86979 -4.04988 0)
(13.0909 -5.1658 0)
(13.0074 -4.33969 -3.2427e-17)
(14.6539 -5.06176 9.70289e-17)
(15.2544 -5.17948 0)
(17.3096 -5.9341 0)
(18.5349 -5.92412 3.21449e-17)
(20.3049 -5.96369 0)
(21.329 -5.8715 6.32876e-17)
(22.7531 -5.62462 -3.14691e-17)
(23.1109 -5.30629 0)
(23.171 -5.04697 3.08879e-17)
(21.9777 -4.7469 6.17841e-17)
(20.7052 -5.06119 0)
(17.993 -5.53912 0)
(16.2972 -6.09536 -2.88499e-17)
(14.532 -6.25001 0)
(14.4841 -6.14919 5.30447e-17)
(14.7732 -6.1381 0)
(12.3889 -4.93863 0)
(10.4687 -4.75077 0)
(6.4224 -3.9954 0)
(2.62658 -4.42447 -2.38578e-17)
(3.40083 -8.10921 -2.34147e-17)
(5.57024 -7.74102 0)
(7.96527 -5.26153 0)
(6.09869 -4.67013 0)
(3.27316 -4.7249 2.4249e-17)
(3.06723 -4.908 0)
(1.32175 -3.99299 -4.57137e-17)
(-0.525222 -3.91014 4.74189e-17)
(-2.63572 -3.78709 4.79968e-17)
(-4.39924 -3.23842 4.70412e-17)
(-7.2883 -3.0545 4.83695e-17)
(-9.09036 -3.03496 4.61846e-17)
(-10.9534 -3.17722 0)
(-0.0198653 -4.613 0)
(-0.0955268 -4.16448 0)
(-0.127024 -3.95136 2.2027e-17)
(-0.0969131 -4.21201 2.20369e-17)
(0.0245167 -4.61701 -2.20294e-17)
(0.182466 -4.96254 -2.20659e-17)
(0.33905 -5.16626 7.39067e-20)
(0.486694 -5.34013 0)
(0.65818 -5.46918 0)
(0.847605 -5.61268 0)
(1.07347 -5.74749 0)
(1.2753 -5.90223 0)
(1.49648 -5.95439 6.49679e-17)
(1.69122 -5.96128 0)
(1.82511 -5.99949 -2.1372e-17)
(1.9353 -5.96389 -2.11761e-17)
(2.03636 -5.82688 0)
(2.11442 -5.66873 0)
(2.16748 -5.54964 0)
(2.2521 -5.40462 0)
(2.38461 -5.22968 -1.97336e-17)
(2.50725 -5.03356 0)
(2.61933 -4.86677 1.92524e-17)
(2.76036 -4.61582 0)
(2.90779 -4.25586 0)
(2.92082 -3.9537 0)
(3.02873 -3.58981 3.72118e-17)
(3.12207 -3.12173 0)
(3.07239 -2.55988 -1.83968e-17)
(2.99532 -2.01914 3.6924e-17)
(2.9015 -1.5293 0)
(2.72644 -0.875873 0)
(2.37156 -0.381421 0)
(2.13985 -0.175613 -1.8385e-17)
(1.43459 0.00910299 -1.83764e-17)
(0.663473 -0.390712 0)
(-0.178528 -1.20088 0)
(-1.30822 -2.2121 3.45655e-17)
(-1.84727 -3.39415 3.42566e-17)
(-2.0407 -3.75707 -3.35242e-17)
(-1.90636 -3.90014 0)
(-1.52291 -4.48005 0)
(-1.19392 -5.19649 0)
(-0.349091 -5.53824 0)
(0.0799072 -5.479 3.27094e-17)
(1.29725 -5.47116 3.24058e-17)
(1.45863 -5.55175 -3.35492e-17)
(0.78772 -4.23377 0)
(0.405858 -2.81922 0)
(-0.841639 -1.50834 0)
(-1.99315 -0.651068 0)
(-3.39399 0.122687 3.32935e-17)
(-4.61181 0.533345 0)
(-5.6709 0.799226 0)
(-6.47993 0.754703 3.27239e-17)
(-7.05209 0.721565 3.24506e-17)
(-7.5405 0.695199 0)
(-7.69488 0.568195 -6.41565e-17)
(-7.7182 0.340262 3.19376e-17)
(-7.60351 -0.0185411 -3.17691e-17)
(-7.47185 -0.355286 0)
(-7.26629 -0.689773 0)
(-7.07174 -1.00164 0)
(-6.85979 -1.28068 0)
(-6.62138 -1.5049 -3.09935e-17)
(-6.38612 -1.67905 -6.16031e-17)
(-6.13731 -1.78956 -3.06356e-17)
(-5.92117 -1.86468 3.04476e-17)
(-5.69129 -1.93992 0)
(-5.48058 -1.94206 -6.01001e-17)
(-5.34293 -1.93177 -5.9708e-17)
(-5.16715 -1.8929 -5.93065e-17)
(-5.0335 -1.81709 5.88861e-17)
(-4.89097 -1.73329 0)
(-4.79942 -1.609 8.71e-17)
(-4.70166 -1.49934 0)
(-4.61214 -1.38387 -2.8554e-17)
(-4.54303 -1.24315 -2.84207e-17)
(-4.45435 -1.09959 0)
(-4.36143 -0.948249 0)
(-4.25613 -0.815294 -5.54717e-17)
(-4.16085 -0.61114 0)
(-4.0261 -0.461112 -5.45927e-17)
(-3.86596 -0.266769 0)
(-3.66585 -0.0633931 5.36199e-17)
(-3.44391 0.105502 1.06477e-16)
(-3.18622 0.260422 0)
(-2.84229 0.459749 0)
(-2.57954 0.680062 0)
(-2.11892 0.847143 5.11357e-17)
(-1.785 1.02316 0)
(-1.25317 1.19935 5.00378e-17)
(-0.814429 1.34462 0)
(-0.272857 1.50507 0)
(0.257099 1.63477 -9.66063e-17)
(0.818594 1.75681 0)
(1.37021 1.87958 -4.69818e-17)
(1.9828 1.95755 0)
(2.48826 2.10861 -4.56635e-17)
(3.0559 2.18149 0)
(3.4883 2.28933 0)
(3.93944 2.3099 0)
(4.33098 2.34025 -1.29659e-16)
(4.70887 2.38387 -4.27985e-17)
(4.94926 2.483 0)
(5.06014 2.69743 0)
(5.03736 2.85317 0)
(4.91846 2.98624 0)
(4.73047 3.07443 4.31289e-17)
(4.48145 3.11301 -8.62264e-17)
(4.23159 2.96152 -4.31555e-17)
(4.01414 2.63537 8.58705e-17)
(3.73585 2.28222 8.59934e-17)
(3.49872 1.80172 4.30395e-17)
(3.40609 1.38567 0)
(3.33172 1.28876 8.4607e-17)
(3.37071 1.22631 0)
(3.3672 1.10946 -7.99321e-17)
(3.34475 0.980169 -3.89568e-17)
(3.2094 0.594075 0)
(3.07759 -0.0730062 8.09173e-17)
(3.2808 -0.637598 4.06494e-17)
(4.11878 -0.669859 0)
(4.85973 -0.20866 3.48234e-17)
(4.61804 0.158253 -1.07181e-16)
(4.06649 -0.0289493 0)
(3.68484 -0.788652 0)
(3.86174 -1.65031 0)
(4.41112 -2.73465 0)
(5.46358 -4.10654 -8.52857e-17)
(7.64014 -4.85062 -8.39089e-17)
(10.1585 -4.33668 0)
(11.8003 -3.34373 0)
(13.2552 -2.99873 0)
(13.8093 -2.98208 0)
(14.0062 -2.67508 0)
(14.494 -2.61449 0)
(14.4369 -2.87204 -7.01815e-17)
(13.67 -2.24901 7.71526e-20)
(11.5322 -1.79179 0)
(10.2182 -3.49775 0)
(10.5832 -5.38928 -7.08221e-17)
(10.5252 -5.0964 0)
(12.7264 -3.29483 6.42854e-17)
(11.2482 -5.79691 6.72438e-17)
(12.5444 -8.42187 0)
(12.4918 -7.32572 0)
(15.5211 -8.67498 -6.64471e-17)
(15.8544 -8.78121 -1.32817e-16)
(19.1488 -10.1888 0)
(19.8072 -10.0518 0)
(22.0562 -10.3022 0)
(22.556 -10.1597 -6.60729e-17)
(24.1358 -9.85053 6.42887e-17)
(24.506 -9.16598 0)
(25.1915 -8.59782 1.24302e-16)
(24.1109 -8.3268 6.13621e-17)
(23.5455 -8.28221 -1.19903e-16)
(21.3143 -8.19247 0)
(19.5612 -8.69696 0)
(16.1532 -9.68296 -1.12465e-16)
(14.4575 -10.3564 -5.15082e-17)
(14.7605 -9.95137 0)
(11.9478 -8.30215 0)
(11.2235 -7.52823 0)
(7.94002 -6.22755 0)
(6.47621 -7.32623 -9.47413e-17)
(6.48532 -12.1949 0)
(5.13374 -12.8459 0)
(8.17247 -9.46793 0)
(7.44626 -7.83605 0)
(4.14334 -7.27596 0)
(3.39163 -7.94332 0)
(2.60119 -6.37403 -8.71737e-17)
(1.35917 -6.36751 0)
(-1.37307 -6.316 0)
(-2.608 -5.44457 -1.71327e-16)
(-5.96517 -5.01097 8.88681e-17)
(-7.10205 -5.40346 -8.2385e-17)
(-8.47884 -5.32059 8.9012e-17)
(-0.020655 -6.28287 0)
(-0.162138 -5.87279 -4.6307e-17)
(-0.192186 -5.92913 0)
(-0.101305 -6.38557 -2.27774e-17)
(0.0344931 -6.90197 0)
(0.168189 -7.24354 0)
(0.266201 -7.44097 2.29221e-17)
(0.38127 -7.60015 0)
(0.519545 -7.77675 0)
(0.682208 -7.96294 0)
(0.831277 -8.10358 0)
(0.96023 -8.22267 0)
(1.07671 -8.22245 -8.85625e-17)
(1.15278 -8.11002 -4.38394e-17)
(1.20943 -7.9511 4.31956e-17)
(1.2007 -7.75911 0)
(1.16145 -7.55513 0)
(1.16316 -7.37616 0)
(1.20408 -7.28869 0)
(1.25248 -7.21974 0)
(1.34793 -7.08376 -3.91314e-17)
(1.44366 -6.91255 -3.87727e-17)
(1.52839 -6.73459 3.84375e-17)
(1.63401 -6.49361 -3.80462e-17)
(1.77725 -6.13905 0)
(1.88545 -5.78829 0)
(2.0234 -5.39561 -3.6697e-17)
(2.17342 -4.84165 0)
(2.25178 -4.25747 0)
(2.3859 -3.63399 -3.57546e-17)
(2.43204 -2.93773 -3.58074e-17)
(2.42129 -2.2217 -3.58144e-17)
(2.3231 -1.70523 0)
(2.21056 -1.21401 0)
(1.87876 -0.678276 3.6014e-17)
(1.56608 -0.777635 0)
(0.904312 -1.26424 0)
(-0.0245818 -1.93503 -3.58107e-17)
(-0.905548 -3.17813 3.52092e-17)
(-1.6315 -4.44561 -3.36169e-17)
(-1.62272 -5.39004 0)
(-1.65753 -6.38301 0)
(-1.4878 -6.96337 -6.5564e-17)
(-1.10953 -7.27867 0)
(-1.30919 -7.6798 -7.08999e-17)
(-2.18108 -5.63226 -1.06867e-16)
(-3.20204 -4.16933 1.02712e-16)
(-3.88856 -3.01181 -6.91205e-17)
(-4.81328 -1.59441 0)
(-5.61036 -0.854172 0)
(-6.33074 0.0440825 -6.72579e-17)
(-7.14337 0.353886 -3.33171e-17)
(-7.57419 0.678004 0)
(-8.06595 0.660182 0)
(-8.11449 0.596082 -3.26987e-17)
(-8.21388 0.349636 -6.51605e-17)
(-8.08988 0.0483757 0)
(-7.94939 -0.270084 6.45205e-17)
(-7.65473 -0.609566 -6.43486e-17)
(-7.32572 -1.01913 6.39891e-17)
(-6.97924 -1.41457 0)
(-6.61736 -1.79398 0)
(-6.26897 -2.09401 0)
(-5.91049 -2.36937 0)
(-5.59838 -2.60633 0)
(-5.23765 -2.75508 6.19378e-17)
(-4.94525 -2.86578 0)
(-4.67223 -2.89938 0)
(-4.42477 -2.92257 0)
(-4.13795 -2.88339 1.20691e-16)
(-3.96804 -2.84902 5.99863e-17)
(-3.79642 -2.77658 5.95854e-17)
(-3.65102 -2.65394 -1.18292e-16)
(-3.5211 -2.56492 5.86938e-17)
(-3.39786 -2.40715 -5.83844e-17)
(-3.27742 -2.23747 0)
(-3.18813 -2.07627 5.75696e-17)
(-3.09814 -1.88295 0)
(-3.01147 -1.67762 0)
(-2.91283 -1.47764 0)
(-2.78102 -1.27948 1.11747e-16)
(-2.6662 -1.02327 -5.53741e-17)
(-2.52947 -0.807071 -5.48298e-17)
(-2.37157 -0.545776 -1.09125e-16)
(-2.16719 -0.31297 -1.62665e-16)
(-1.94669 -0.0443211 -5.39291e-17)
(-1.67311 0.172632 0)
(-1.36968 0.448097 -1.05921e-16)
(-1.06306 0.74551 0)
(-0.641585 0.967323 -1.56794e-16)
(-0.314278 1.24016 0)
(0.189705 1.5095 -1.54482e-16)
(0.624086 1.7208 0)
(1.08144 1.99728 0)
(1.62037 2.18244 -4.99675e-17)
(2.14912 2.35696 0)
(2.67063 2.54649 4.93713e-17)
(3.24377 2.66222 9.71414e-17)
(3.73071 2.84211 4.80934e-17)
(4.32003 2.903 9.45836e-17)
(4.75014 3.04675 -9.29399e-17)
(5.22608 3.10834 -9.15772e-17)
(5.59215 3.21523 1.79894e-16)
(5.89105 3.37373 0)
(6.0071 3.50656 0)
(6.09585 3.56906 8.50536e-17)
(6.13894 3.64553 -8.51126e-17)
(6.12433 3.88742 0)
(6.10446 4.08213 0)
(6.04084 4.07962 8.57866e-17)
(5.85932 3.75223 0)
(5.61804 3.39154 -3.55187e-19)
(5.41831 2.96954 -3.44105e-19)
(5.2129 2.29187 8.23903e-17)
(4.81366 1.71597 0)
(4.14713 1.43347 -8.53833e-17)
(3.84316 1.28161 0)
(3.72987 1.14717 8.47963e-17)
(3.75299 1.05125 0)
(3.82248 0.73557 0)
(3.63868 -0.055838 -8.5111e-17)
(3.4229 -1.14629 -8.79955e-17)
(3.71699 -1.72926 0)
(5.32519 -0.958306 -7.57167e-17)
(6.04565 0.098206 1.39491e-16)
(5.89335 0.0483227 0)
(5.40775 -1.12642 0)
(5.20517 -2.47132 0)
(5.57957 -3.77637 0)
(5.85802 -5.64318 8.4617e-17)
(7.22195 -7.09886 -1.66065e-16)
(9.40098 -6.61042 0)
(11.6773 -5.52659 0)
(13.5401 -4.59643 0)
(13.8619 -3.98019 0)
(14.5196 -4.05529 0)
(15.3227 -3.88758 0)
(15.0735 -3.512 0)
(13.2675 -2.69867 7.0757e-17)
(12.0186 -2.05203 0)
(10.9449 -4.21872 0)
(10.4712 -6.91196 7.23437e-17)
(10.2153 -7.66236 0)
(10.9126 -5.88026 0)
(12.6756 -8.18055 -6.75207e-17)
(13.1167 -11.2105 0)
(13.2226 -11.4212 0)
(17.3528 -13.1 1.43678e-16)
(17.2029 -12.8919 1.398e-16)
(21.416 -14.8702 1.41905e-16)
(21.7214 -14.2485 0)
(24.4247 -14.5969 1.37458e-16)
(24.4491 -14.5123 0)
(26.413 -14.3341 -1.36857e-16)
(26.1254 -13.5198 0)
(27.2524 -12.7581 -1.27161e-16)
(26.3574 -11.8493 8.80488e-19)
(25.6598 -11.561 1.21764e-16)
(23.2126 -11.6033 -1.18907e-16)
(22.125 -11.971 1.17044e-16)