/*--------------------------------*- C++ -*----------------------------------*\
| =========                 |                                                 |
| \\      /  F ield         | OpenFOAM: The Open Source CFD Toolbox           |
|  \\    /   O peration     | Version:  dev                                   |
|   \\  /    A nd           | Web:      http://www.openfoam.org               |
|    \\/     M anipulation  |                                                 |
\*---------------------------------------------------------------------------*/
FoamFile
{
    version     2.0;
    format      ascii;
    class       volVectorField;
    object      UMean;
    location    "9.118";
}
// * * * * * * * * * * * * * * * * * * * * * * * * * * * * * * * * * * * * * //

dimensions      [0 1 -1 0 0 0 0];

internalField   nonuniform List<vector> 
12225
(
(7.00365 0.430271 0)
(4.4388 0.192542 0)
(2.55676 0.0311481 0)
(2.51096 -0.01666 0)
(1.38441 0.0193615 0)
(2.26748 -0.0342842 0)
(0.989424 0.0489824 0)
(2.18278 -0.059183 0)
(0.797394 0.0716605 0)
(2.29201 -0.0978627 0)
(0.688603 0.0993806 0)
(2.74385 -0.138637 0)
(0.947859 0.102612 0)
(3.39688 -0.172112 0)
(3.52999 -0.168448 0)
(4.69431 0.0501058 0)
(14.8396 -2.43359 0)
(7.11655 5.13145 0)
(9.54626 0.981589 0)
(9.54344 0.86086 0)
(6.68672 0.466269 0)
(7.59065 0.214544 0)
(4.09042 0.140305 0)
(6.84357 0.0107975 0)
(2.66485 0.132649 0)
(6.68985 -0.0903554 0)
(1.82235 0.141853 0)
(7.03988 -0.165079 0)
(1.26031 0.123918 0)
(8.12251 -0.414393 0)
(1.38501 0.252502 0)
(9.95495 -1.44196 0)
(3.43513 0.272457 0)
(12.3861 -4.06668 0)
(10.4253 -1.92677 0)
(7.77283 0.483905 0)
(9.11839 0.763512 0)
(12.167 0.951371 0)
(8.32928 0.623932 0)
(11.8324 0.443363 0)
(6.22568 0.310279 0)
(11.4134 0.206464 0)
(4.58208 0.221483 0)
(11.3156 -0.0195661 0)
(3.87337 0.192929 0)
(11.3774 -0.277898 0)
(4.34966 0.187275 0)
(11.2541 -0.723269 0)
(5.72773 0.176247 0)
(11.0914 -1.49172 0)
(7.21421 0.0533455 0)
(12.118 -3.86448 0)
(6.93266 0.350354 0)
(9.35287 -2.39185 0)
(7.2186 0.524997 0)
(13.9933 0.960985 0)
(7.92929 0.609424 0)
(14.2957 0.55381 0)
(7.47382 0.420862 0)
(14.117 0.27109 0)
(7.17515 0.396649 0)
(13.7391 -0.145128 0)
(7.25615 0.459533 0)
(13.2704 -0.698748 0)
(7.6586 0.576697 0)
(12.8754 -1.42268 0)
(8.26559 0.699506 0)
(12.6523 -2.31301 0)
(9.02116 0.042724 0)
(11.8899 -3.63575 0)
(8.68421 -1.43164 0)
(8.36544 0.681778 0)
(6.42355 0.56998 0)
(14.0114 0.565857 0)
(8.47329 0.674407 0)
(13.9585 0.284471 0)
(9.16935 0.636642 0)
(13.6438 -0.00257639 0)
(9.51723 0.6578 0)
(13.2141 -0.388699 0)
(9.59214 0.73433 0)
(12.8129 -0.871275 0)
(9.44539 0.876867 0)
(12.5822 -1.52124 0)
(9.14902 1.08997 0)
(12.5696 -2.48932 0)
(8.82574 1.13234 0)
(11.6152 -5.02671 0)
(8.54223 1.26719 0)
(8.72178 0.125487 0)
(7.95638 0.616908 0)
(11.803 0.152299 0)
(9.50542 0.654713 0)
(11.7392 0.0501516 0)
(10.0887 0.693912 0)
(11.6001 -0.165711 0)
(10.3211 0.725838 0)
(11.4757 -0.457546 0)
(10.301 0.783093 0)
(11.3887 -0.853567 0)
(10.0333 0.83229 0)
(11.3541 -1.40007 0)
(9.49293 0.801895 0)
(11.4161 -2.13834 0)
(8.80176 0.727394 0)
(10.9954 -3.92053 0)
(7.73624 1.33675 0)
(9.48883 -0.219061 0)
(9.34472 0.812753 0)
(10.4381 -0.26617 0)
(10.1415 0.930487 0)
(10.553 -0.304692 0)
(10.3995 1.02001 0)
(10.581 -0.503027 0)
(10.521 1.07553 0)
(10.6244 -0.781282 0)
(10.5645 1.15357 0)
(10.6706 -1.15789 0)
(10.5167 1.23551 0)
(10.6986 -1.63588 0)
(10.3687 1.26183 0)
(10.6864 -2.3272 0)
(10.056 1.27238 0)
(10.3748 -3.95367 0)
(8.30268 2.01912 0)
(9.69645 -0.953916 0)
(9.84994 0.701262 0)
(10.1549 -0.326255 0)
(10.4075 0.855089 0)
(10.3889 -0.350123 0)
(10.5812 0.906941 0)
(10.4696 -0.494215 0)
(10.7026 0.893091 0)
(10.5511 -0.686509 0)
(10.8064 0.872963 0)
(10.6431 -0.935515 0)
(10.8822 0.824393 0)
(10.7346 -1.23296 0)
(10.9098 0.672269 0)
(10.7532 -1.67264 0)
(10.7257 0.520771 0)
(10.4924 -2.47381 0)
(8.89678 0.980365 0)
(9.96359 -0.485536 0)
(10.0866 0.802299 0)
(10.0188 -0.583718 0)
(10.5364 1.02146 0)
(10.3099 -0.604743 0)
(10.6761 1.07507 0)
(10.4393 -0.725195 0)
(10.7785 1.0483 0)
(10.5702 -0.890234 0)
(10.858 1.0038 0)
(10.7108 -1.11796 0)
(10.8996 0.921352 0)
(10.8313 -1.39506 0)
(10.875 0.735094 0)
(10.8218 -1.76081 0)
(10.6033 0.505877 0)
(10.5205 -2.06849 0)
(9.35174 0.585356 0)
(10.0231 -0.392341 0)
(10.1399 0.648735 0)
(10.0414 -0.512251 0)
(10.511 0.878173 0)
(10.3327 -0.456814 0)
(10.622 0.869387 0)
(10.4812 -0.493935 0)
(10.6983 0.77845 0)
(10.6283 -0.572426 0)
(10.7345 0.658136 0)
(10.763 -0.695621 0)
(10.7182 0.495835 0)
(10.8397 -0.845152 0)
(10.6185 0.264403 0)
(10.7651 -1.0321 0)
(10.2827 0.0704795 0)
(10.4792 -1.05257 0)
(9.62415 0.123824 0)
(10.2064 -0.0330408 0)
(10.1415 0.700088 0)
(10.0702 -0.692149 0)
(10.4529 0.902616 0)
(10.2982 -0.619172 0)
(10.5378 0.847716 0)
(10.4299 -0.645728 0)
(10.6035 0.735336 0)
(10.5603 -0.707554 0)
(10.6274 0.586835 0)
(10.6601 -0.791341 0)
(10.6093 0.383184 0)
(10.681 -0.869226 0)
(10.5271 0.117096 0)
(10.5708 -0.921854 0)
(10.2919 -0.113894 0)
(10.3608 -0.76474 0)
(10.0204 -0.154564 0)
(10.2454 -0.125285 0)
(10.0971 0.468082 0)
(10.1506 -0.49539 0)
(10.3538 0.595864 0)
(10.2933 -0.374876 0)
(10.4205 0.527651 0)
(10.4092 -0.355021 0)
(10.4849 0.418995 0)
(10.5238 -0.37439 0)
(10.5132 0.275838 0)
(10.5993 -0.414789 0)
(10.5158 0.0934027 0)
(10.597 -0.461642 0)
(10.4768 -0.103257 0)
(10.4996 -0.499969 0)
(10.3574 -0.232134 0)
(10.3647 -0.405478 0)
(10.2663 -0.219995 0)
(10.3739 -0.110269 0)
(10.0501 0.410999 0)
(10.1753 -0.487464 0)
(10.2548 0.437224 0)
(10.2378 -0.367659 0)
(10.3088 0.367366 0)
(10.3306 -0.345702 0)
(10.3792 0.250856 0)
(10.4245 -0.355375 0)
(10.4226 0.0994691 0)
(10.4822 -0.374893 0)
(10.4462 -0.0797169 0)
(10.4817 -0.403349 0)
(10.433 -0.246677 0)
(10.4261 -0.431147 0)
(10.3773 -0.339216 0)
(10.3686 -0.392588 0)
(10.3572 -0.320581 0)
(10.4223 -0.276554 0)
(10.0154 0.199626 0)
(10.1907 -0.285962 0)
(10.1932 0.167316 0)
(10.2052 -0.179399 0)
(10.2293 0.131641 0)
(10.2792 -0.171443 0)
(10.3062 0.0472178 0)
(10.3626 -0.19782 0)
(10.366 -0.0587223 0)
(10.4142 -0.235731 0)
(10.4055 -0.176008 0)
(10.4267 -0.286397 0)
(10.4124 -0.274978 0)
(10.4113 -0.33161 0)
(10.3995 -0.324124 0)
(10.4066 -0.337171 0)
(10.4109 -0.316029 0)
(10.4698 -0.304835 0)
(9.99665 0.0970852 0)
(10.1445 -0.185993 0)
(10.1463 0.0215998 0)
(10.1501 -0.133714 0)
(10.1622 -0.00867881 0)
(10.2089 -0.146199 0)
(10.241 -0.077004 0)
(10.2919 -0.186758 0)
(10.311 -0.159427 0)
(10.3486 -0.237975 0)
(10.3575 -0.244796 0)
(10.3791 -0.298307 0)
(10.3805 -0.316282 0)
(10.3939 -0.35007 0)
(10.3959 -0.361028 0)
(10.4185 -0.380202 0)
(10.4239 -0.381066 0)
(10.4789 -0.387252 0)
(9.99372 0.0154735 0)
(10.106 -0.0858705 0)
(10.1089 -0.0443763 0)
(10.1138 -0.0932849 0)
(10.1188 -0.074928 0)
(10.1675 -0.118966 0)
(10.198 -0.120644 0)
(10.2518 -0.163858 0)
(10.274 -0.180596 0)
(10.3154 -0.219171 0)
(10.3279 -0.243944 0)
(10.3598 -0.277822 0)
(10.3659 -0.301342 0)
(10.394 -0.329006 0)
(10.3996 -0.347002 0)
(10.4329 -0.370815 0)
(10.4356 -0.383804 0)
(10.4884 -0.397018 0)
(9.99178 0.00472676 0)
(10.0636 -0.0252204 0)
(10.0567 -0.0349743 0)
(10.0678 -0.0665212 0)
(10.0778 -0.0757675 0)
(10.128 -0.0998105 0)
(10.1573 -0.115989 0)
(10.211 -0.144742 0)
(10.2337 -0.169014 0)
(10.2782 -0.199605 0)
(10.292 -0.226601 0)
(10.33 -0.25707 0)
(10.3384 -0.283357 0)
(10.3731 -0.312091 0)
(10.3789 -0.336849 0)
(10.4153 -0.365581 0)
(10.4147 -0.388098 0)
(10.4635 -0.407512 0)
(9.9915 0.0141457 0)
(10.0466 0.0161165 0)
(10.0398 -0.0106222 0)
(10.0575 -0.0377251 0)
(10.0748 -0.0565828 0)
(10.1254 -0.0779004 0)
(10.1553 -0.0989138 0)
(10.2071 -0.123866 0)
(10.2311 -0.149038 0)
(10.2753 -0.176671 0)
(10.2911 -0.203477 0)
(10.3292 -0.232203 0)
(10.3394 -0.259415 0)
(10.3736 -0.288356 0)
(10.3801 -0.315689 0)
(10.4141 -0.345756 0)
(10.4132 -0.371617 0)
(10.4567 -0.393431 0)
(9.99163 0.0329258 0)
(10.0501 0.0496286 0)
(10.0565 0.00991084 0)
(10.0798 -0.018097 0)
(10.1006 -0.0402644 0)
(10.1506 -0.0614989 0)
(10.1818 -0.0836363 0)
(10.2315 -0.106436 0)
(10.2562 -0.130585 0)
(10.2984 -0.15555 0)
(10.315 -0.18112 0)
(10.3507 -0.207368 0)
(10.3614 -0.233604 0)
(10.3926 -0.260453 0)
(10.399 -0.287074 0)
(10.4288 -0.315327 0)
(10.4281 -0.341058 0)
(10.4653 -0.362835 0)
(9.98987 0.040705 0)
(10.0547 0.0526456 0)
(10.0827 -0.00635756 0)
(10.1166 -0.0406931 0)
(10.1419 -0.0641449 0)
(10.1903 -0.0822937 0)
(10.2223 -0.102129 0)
(10.2689 -0.121044 0)
(10.2934 -0.142791 0)
(10.332 -0.164042 0)
(10.3482 -0.187459 0)
(10.3801 -0.210148 0)
(10.3904 -0.234457 0)
(10.4173 -0.257973 0)
(10.4228 -0.282838 0)
(10.4473 -0.307871 0)
(10.4461 -0.332498 0)
(10.4767 -0.352893 0)
(9.99055 0.0316185 0)
(10.0685 0.022031 0)
(10.1261 -0.0557412 0)
(10.1769 -0.0967611 0)
(10.2125 -0.119794 0)
(10.2609 -0.132757 0)
(10.2937 -0.147797 0)
(10.3361 -0.161681 0)
(10.3601 -0.179866 0)
(10.3941 -0.196956 0)
(10.4103 -0.217403 0)
(10.4377 -0.236287 0)
(10.4478 -0.258039 0)
(10.4701 -0.278103 0)
(10.4753 -0.300785 0)
(10.4946 -0.322405 0)
(10.4939 -0.345256 0)
(10.5186 -0.363533 0)
(9.99117 0.00987017 0)
(10.092 -0.0297263 0)
(10.1869 -0.120865 0)
(10.2595 -0.162803 0)
(10.3093 -0.181164 0)
(10.359 -0.187197 0)
(10.3929 -0.196074 0)
(10.4304 -0.204402 0)
(10.4541 -0.218147 0)
(10.4836 -0.230786 0)
(10.5001 -0.247649 0)
(10.5232 -0.262679 0)
(10.5337 -0.281388 0)
(10.5516 -0.298075 0)
(10.5571 -0.318133 0)
(10.5718 -0.336463 0)
(10.5722 -0.357037 0)
(10.5919 -0.373168 0)
(9.9928 -0.0233253 0)
(10.1275 -0.103574 0)
(10.2671 -0.204903 0)
(10.3665 -0.241581 0)
(10.4319 -0.250805 0)
(10.4835 -0.248394 0)
(10.5183 -0.250902 0)
(10.5517 -0.253699 0)
(10.5753 -0.262977 0)
(10.6011 -0.271344 0)
(10.6181 -0.284678 0)
(10.6378 -0.296301 0)
(10.6486 -0.312115 0)
(10.6631 -0.325872 0)
(10.6691 -0.343408 0)
(10.6801 -0.358853 0)
(10.6813 -0.377161 0)
(10.6967 -0.391309 0)
(9.99053 -0.0716064 0)
(10.1744 -0.201168 0)
(10.3679 -0.305463 0)
(10.5001 -0.327871 0)
(10.5805 -0.322577 0)
(10.6344 -0.310207 0)
(10.669 -0.305587 0)
(10.6997 -0.30258 0)
(10.7226 -0.306717 0)
(10.746 -0.310601 0)
(10.7624 -0.319926 0)
(10.7794 -0.32807 0)
(10.7895 -0.340609 0)
(10.8006 -0.351387 0)
(10.8055 -0.365979 0)
(10.8123 -0.378539 0)
(10.8121 -0.394096 0)
(10.8221 -0.406048 0)
(9.99203 -0.136342 0)
(10.2447 -0.322983 0)
(10.5027 -0.41898 0)
(10.6712 -0.417612 0)
(10.7627 -0.394157 0)
(10.8175 -0.371086 0)
(10.8494 -0.358924 0)
(10.8771 -0.35057 0)
(10.896 -0.350088 0)
(10.9148 -0.350486 0)
(10.9253 -0.356379 0)
(10.9355 -0.361511 0)
(10.9374 -0.370815 0)
(10.9393 -0.378678 0)
(10.9339 -0.389876 0)
(10.929 -0.399461 0)
(10.9163 -0.411385 0)
(10.9114 -0.420531 0)
(9.98982 -0.219885 0)
(10.3369 -0.468115 0)
(10.6737 -0.539728 0)
(10.8758 -0.508219 0)
(10.9698 -0.464845 0)
(11.0135 -0.428054 0)
(11.0286 -0.404804 0)
(11.0352 -0.388381 0)
(11.029 -0.381417 0)
(11.0194 -0.376966 0)
(10.9979 -0.378181 0)
(10.9735 -0.379086 0)
(10.9376 -0.383807 0)
(10.8998 -0.387286 0)
(10.8521 -0.393655 0)
(10.804 -0.39898 0)
(10.746 -0.405299 0)
(10.6943 -0.410071 0)
(9.98339 -0.332063 0)
(10.4677 -0.642305 0)
(10.8829 -0.667088 0)
(11.0725 -0.602627 0)
(11.103 -0.537172 0)
(11.0583 -0.483108 0)
(10.9743 -0.44497 0)
(10.8731 -0.41622 0)
(10.7577 -0.398006 0)
(10.6349 -0.383265 0)
(10.5034 -0.374881 0)
(10.3664 -0.366321 0)
(10.224 -0.362437 0)
(10.0772 -0.356986 0)
(9.92843 -0.355843 0)
(9.77683 -0.353251 0)
(9.62563 -0.352951 0)
(9.47568 -0.351114 0)
(10.0025 -0.453678 0)
(10.619 -0.818953 0)
(10.9016 -0.752054 0)
(10.7932 -0.623739 0)
(10.4937 -0.512518 0)
(10.1376 -0.42918 0)
(9.77009 -0.373555 0)
(9.41756 -0.334721 0)
(9.07674 -0.30729 0)
(8.75538 -0.284605 0)
(8.44637 -0.267648 0)
(8.15327 -0.251324 0)
(7.8725 -0.240039 0)
(7.6029 -0.227334 0)
(7.34808 -0.221131 0)
(7.09854 -0.211815 0)
(6.8701 -0.210845 0)
(6.64065 -0.204168 0)
(10.0974 -0.750792 0)
(10.0459 -1.01319 0)
(9.42497 -0.801069 0)
(8.51448 -0.572171 0)
(7.65506 -0.378724 0)
(6.92892 -0.244891 0)
(6.32735 -0.16753 0)
(5.83163 -0.126257 0)
(5.40919 -0.104705 0)
(5.04859 -0.0923208 0)
(4.72849 -0.084959 0)
(4.44775 -0.0793474 0)
(4.19133 -0.0758091 0)
(3.96242 -0.0718917 0)
(3.7507 -0.0721309 0)
(3.55552 -0.0690756 0)
(3.38329 -0.0802567 0)
(3.21837 -0.0828499 0)
(8.51676 -0.436051 0)
(6.11026 -0.380883 0)
(4.29836 -0.138047 0)
(3.1239 -0.0213858 0)
(2.48113 0.0191307 0)
(2.12049 0.0224735 0)
(1.89624 0.0137177 0)
(1.73492 0.0046179 0)
(1.59887 -0.00156687 0)
(1.47812 -0.00478875 0)
(1.36603 -0.00640385 0)
(1.26387 -0.00672005 0)
(1.16819 -0.00670838 0)
(1.08146 -0.00639043 0)
(0.999427 -0.00665691 0)
(0.919198 -0.00703231 0)
(0.851689 -0.0186016 0)
(0.731203 -0.00613229 0)
(-0.0520774 0.138032 0)
(-0.157082 0.0713732 0)
(-0.206934 0.0162818 0)
(-0.19493 -0.0445063 0)
(-0.117504 -0.0992142 0)
(0.0128512 -0.145229 0)
(0.18706 -0.175744 1.11354e-17)
(0.388946 -0.193675 -1.10604e-17)
(0.607299 -0.198037 0)
(0.829781 -0.19275 -1.09172e-17)
(1.04701 -0.178402 0)
(1.25001 -0.15763 0)
(1.43221 -0.130978 0)
(1.58834 -0.101585 1.06425e-17)
(1.71576 -0.0702942 0)
(1.8117 -0.0381692 0)
(1.87531 -0.00597427 -1.04454e-17)
(1.90729 0.0243092 0)
(1.90931 0.050744 0)
(1.88346 0.0723936 0)
(1.83345 0.0893088 1.01959e-17)
(1.76184 0.10087 0)
(1.67253 0.108781 1.0074e-17)
(1.56724 0.111689 0)
(1.45064 0.10973 0)
(1.32548 0.107961 9.89535e-18)
(1.192 0.111148 0)
(1.04945 0.116186 -9.77903e-18)
(0.900994 0.121386 0)
(0.747226 0.126412 9.66417e-18)
(0.589667 0.130415 0)
(0.430602 0.13286 0)
(0.272315 0.134062 0)
(0.11518 0.134013 0)
(-0.0404733 0.131221 0)
(-0.192592 0.126504 -9.32955e-18)
(-0.339522 0.120398 0)
(-0.480809 0.113953 1.84405e-17)
(-0.615021 0.107533 0)
(-0.741746 0.100355 -1.82216e-17)
(-0.859487 0.0933204 0)
(-0.968408 0.086533 0)
(-1.06896 0.0787679 1.78885e-17)
(-1.16062 0.0703679 0)
(-1.24405 0.062614 1.76654e-17)
(-1.31924 0.0553126 -1.75533e-17)
(-1.38569 0.0482923 0)
(-1.44427 0.042292 -1.73283e-17)
(-1.49614 0.0369286 -1.72152e-17)
(-1.54016 0.0331233 0)
(-1.57672 0.0315998 0)
(-1.60799 0.0318452 0)
(-1.63567 0.0321038 0)
(-1.66066 0.0321584 0)
(-1.68423 0.0329682 1.65283e-17)
(-1.70824 0.0343147 0)
(-1.73399 0.0362521 -1.62989e-17)
(-1.76014 0.0380652 0)
(-1.78566 0.0386695 0)
(-1.81069 0.0393365 1.59524e-17)
(-1.83594 0.0411701 0)
(-1.86334 0.042467 -1.57211e-17)
(-1.89279 0.0442098 0)
(-1.92415 0.045772 0)
(-1.95694 0.0466683 0)
(-1.99057 0.0478697 1.52556e-17)
(-2.02466 0.0496783 0)
(-2.05951 0.0518662 0)
(-2.09488 0.054248 1.4906e-17)
(-2.13105 0.0556985 0)
(-2.16504 0.0559139 1.46713e-17)
(-2.19592 0.0562893 0)
(-2.22359 0.0564607 0)
(-2.24699 0.0562914 0)
(-2.26517 0.0556919 -1.42052e-17)
(-2.27744 0.0544719 0)
(-2.28448 0.0537724 0)
(-2.28823 0.0537318 -1.38614e-17)
(-2.2891 0.0527847 -1.3748e-17)
(-2.28539 0.0511493 0)
(-2.2753 0.0489041 -1.35228e-17)
(-2.25869 0.0460135 0)
(-2.23522 0.0429043 -2.66026e-17)
(-2.20488 0.0395008 0)
(-2.16819 0.0358412 -2.61673e-17)
(-2.12495 0.0327585 0)
(-2.07621 0.0303246 2.57385e-17)
(-2.02277 0.0283271 0)
(-1.96469 0.0268462 0)
(-1.90263 0.025819 0)
(-1.83811 0.025203 -2.49016e-17)
(-1.77093 0.0249172 0)
(-1.70269 0.0248714 2.44998e-17)
(-1.6335 0.0255087 0)
(-1.56413 0.0266266 -2.41105e-17)
(-1.49653 0.0291906 -2.39219e-17)
(-1.42977 0.0303401 -2.37376e-17)
(-1.36296 0.0314376 0)
(-1.29795 0.0314786 0)
(-1.23348 0.0326573 0)
(-1.16768 0.0333797 0)
(-1.1028 0.0329271 0)
(-1.03281 0.0317983 0)
(-0.96416 0.0332579 0)
(-0.893114 0.0328835 0)
(-0.826398 0.0354415 2.22134e-17)
(-0.758936 0.0357862 2.20612e-17)
(-0.696586 0.040218 0)
(-0.635854 0.0414085 0)
(-0.580524 0.0412145 0)
(-0.513302 0.0384844 2.14805e-17)
(-0.451281 0.0426667 0)
(-0.382896 0.0409459 0)
(-0.318331 0.0438058 0)
(-0.248004 0.0408337 0)
(-0.175818 0.0433764 -2.0806e-17)
(-0.10173 0.045093 0)
(-0.0223063 0.0441153 0)
(0.061992 0.0454574 2.04289e-17)
(0.150036 0.0451772 -2.03074e-17)
(0.241818 0.0443846 0)
(0.338319 0.0482074 -2.00748e-17)
(0.430297 0.051105 0)
(0.523489 0.0542558 1.98482e-17)
(0.60659 0.0590159 0)
(0.678475 0.0619845 0)
(0.754417 0.0622964 0)
(0.824144 0.0630647 0)
(0.904198 0.0602761 0)
(0.977875 0.0609106 -3.8396e-17)
(1.05381 0.062652 -3.8177e-17)
(1.11324 0.0677017 0)
(1.16377 0.0663274 0)
(1.20859 0.0675052 0)
(1.24688 0.0633833 3.72525e-17)
(1.29546 0.0588976 0)
(1.34566 0.0571494 0)
(1.39115 0.0560163 0)
(1.43982 0.054211 3.62325e-17)
(1.47665 0.056844 -3.59642e-17)
(1.51982 0.0527295 0)
(1.55874 0.0527165 0)
(1.60035 0.0531606 -3.51496e-17)
(1.62654 0.0582473 -3.48768e-17)
(1.65674 0.0549369 0)
(1.68497 0.058723 0)
(1.72433 0.0556843 3.40439e-17)
(1.76082 0.0659374 -3.37645e-17)
(1.7693 0.0713109 0)
(1.78315 0.0707034 0)
(1.80864 0.0710489 -3.29277e-17)
(1.84226 0.0757418 0)
(1.85612 0.0833386 0)
(1.86788 0.0890461 -3.20836e-17)
(1.86759 0.0931373 0)
(1.88214 0.0979735 -3.15236e-17)
(1.88453 0.105002 0)
(1.8904 0.109187 0)
(1.87774 0.120818 0)
(1.86475 0.126668 3.04339e-17)
(1.85005 0.133087 0)
(1.81829 0.14303 0)
(1.74573 0.154792 0)
(1.66889 0.154797 0)
(1.60269 0.157138 0)
(1.51204 0.165897 0)
(1.38348 0.172529 2.88921e-17)
(1.2648 0.173815 2.87383e-17)
(1.08044 0.18193 0)
(0.872868 0.184647 0)
(0.629027 0.183603 0)
(0.413088 0.169801 -2.83209e-17)
(0.190852 0.162846 0)
(0.0384392 0.14662 5.63472e-17)
(-0.162743 0.144017 -5.62377e-17)
(-0.265943 0.123647 -5.60584e-17)
(-0.427264 0.126782 5.59545e-17)
(-0.46228 0.0966304 -5.57518e-17)
(-0.619885 0.129171 5.57322e-17)
(-0.566771 -0.00414601 0)
(0.0101618 0.248912 0)
(0.0147257 0.191893 0)
(0.0499531 0.00738262 -2.27964e-17)
(0.121504 -0.198812 0)
(0.236636 -0.384812 2.23646e-17)
(0.389148 -0.536201 2.22177e-17)
(0.570448 -0.645048 1.10433e-17)
(0.770432 -0.710927 1.09808e-17)
(0.977779 -0.73749 0)
(1.18195 -0.731139 1.08537e-17)
(1.3743 -0.695197 0)
(1.54755 -0.636775 0)
(1.69774 -0.562014 -2.13189e-17)
(1.82013 -0.477456 -1.05943e-17)
(1.91467 -0.385475 2.10545e-17)
(1.97957 -0.290913 2.0921e-17)
(2.01622 -0.198547 1.03949e-17)
(2.02469 -0.110454 0)
(2.00742 -0.0274169 0)
(1.96439 0.0473154 0)
(1.89946 0.112761 1.0136e-17)
(1.81272 0.171794 0)
(1.70884 0.224596 -3.00358e-17)
(1.58662 0.26731 0)
(1.44836 0.302158 0)
(1.29458 0.332614 -9.83142e-18)
(1.12877 0.356504 0)
(0.953686 0.373705 9.71513e-18)
(0.773178 0.384687 1.93119e-17)
(0.588133 0.391905 -9.59719e-18)
(0.401351 0.393964 0)
(0.214067 0.390115 0)
(0.0260137 0.382821 0)
(-0.162383 0.375873 1.87305e-17)
(-0.349228 0.367376 1.86161e-17)
(-0.533306 0.355315 9.25111e-18)
(-0.711989 0.340753 0)
(-0.885753 0.323743 -1.82761e-17)
(-1.05068 0.303299 0)
(-1.20903 0.281537 1.80508e-17)
(-1.35915 0.259153 0)
(-1.50279 0.236461 0)
(-1.63834 0.216166 -1.77169e-17)
(-1.76678 0.197108 0)
(-1.89046 0.179136 -5.24872e-17)
(-2.00847 0.160212 1.73859e-17)
(-2.11983 0.141187 0)
(-2.22427 0.1243 1.71658e-17)
(-2.32247 0.106731 1.70556e-17)
(-2.41345 0.0874244 0)
(-2.49543 0.0690846 0)
(-2.57023 0.0549893 0)
(-2.6394 0.0452012 0)
(-2.70489 0.0395456 0)
(-2.76629 0.0375786 -1.63738e-17)
(-2.8258 0.0365761 -3.25153e-17)
(-2.88372 0.0362377 1.61415e-17)
(-2.93716 0.0333488 0)
(-2.98822 0.0292567 -3.18132e-17)
(-3.03707 0.0279008 1.57876e-17)
(-3.08305 0.0289482 0)
(-3.13007 0.0299645 1.555e-17)
(-3.17488 0.0327716 0)
(-3.21776 0.0343202 0)
(-3.25906 0.0340007 3.03757e-17)
(-3.29946 0.0334873 -1.50675e-17)
(-3.33543 0.0315513 2.98922e-17)
(-3.36897 0.0289029 -2.96509e-17)
(-3.39656 0.025304 -1.47048e-17)
(-3.42103 0.0205258 0)
(-3.43912 0.0129498 -1.44631e-17)
(-3.45048 0.00272441 0)
(-3.45616 -0.00804895 0)
(-3.45336 -0.0206023 0)
(-3.44136 -0.0348791 -1.39832e-17)
(-3.42106 -0.0489099 0)
(-3.39425 -0.0590394 -2.74955e-17)
(-3.36165 -0.0661456 4.08948e-17)
(-3.3237 -0.0746366 1.35165e-17)
(-3.27944 -0.0856445 0)
(-3.22731 -0.098284 1.3288e-17)
(-3.16994 -0.110851 0)
(-3.10699 -0.122781 2.61246e-17)
(-3.03892 -0.133673 0)
(-2.96592 -0.144069 2.56816e-17)
(-2.8879 -0.153374 -5.09235e-17)
(-2.806 -0.162248 -2.52479e-17)
(-2.72176 -0.170248 0)
(-2.63246 -0.17787 0)
(-2.54096 -0.183589 0)
(-2.44718 -0.187803 2.44079e-17)
(-2.3501 -0.191879 0)
(-2.25178 -0.194531 -2.40016e-17)
(-2.15348 -0.194835 0)
(-2.05461 -0.196348 7.08236e-17)
(-1.95593 -0.19559 2.34177e-17)
(-1.85662 -0.196522 2.32318e-17)
(-1.75953 -0.193619 0)
(-1.6648 -0.193129 0)
(-1.5695 -0.194185 0)
(-1.47155 -0.194969 0)
(-1.37482 -0.197344 0)
(-1.2721 -0.201722 4.43237e-17)
(-1.17614 -0.199593 4.39873e-17)
(-1.07625 -0.199823 0)
(-0.989312 -0.193992 -2.16756e-17)
(-0.89268 -0.19537 -2.15237e-17)
(-0.806089 -0.188256 0)
(-0.711392 -0.187116 -4.24442e-17)
(-0.633851 -0.185927 0)
(-0.537977 -0.196392 2.09377e-17)
(-0.452694 -0.190373 0)
(-0.347505 -0.198658 0)
(-0.25337 -0.195337 -4.10579e-17)
(-0.140795 -0.203791 0)
(-0.0372433 -0.20377 2.02725e-17)
(0.0873147 -0.211262 0)
(0.212905 -0.219111 0)
(0.348606 -0.223603 1.98873e-17)
(0.488818 -0.228768 1.97711e-17)
(0.634416 -0.234751 0)
(0.783822 -0.235643 -1.95338e-17)
(0.943813 -0.237087 0)
(1.10324 -0.229276 1.92968e-17)
(1.26896 -0.219499 3.8363e-17)
(1.41694 -0.213172 0)
(1.57442 -0.2142 0)
(1.71949 -0.214169 0)
(1.87935 -0.215525 0)
(2.02576 -0.21039 3.72295e-17)
(2.18013 -0.207043 1.11004e-16)
(2.31559 -0.18759 0)
(2.43985 -0.183259 0)
(2.55791 -0.172867 0)
(2.66464 -0.175346 -3.60796e-17)
(2.76626 -0.179408 0)
(2.86933 -0.179128 0)
(2.96392 -0.177177 7.06157e-17)
(3.05885 -0.176348 3.5034e-17)
(3.13194 -0.170274 3.47646e-17)
(3.22001 -0.179676 0)
(3.28345 -0.173642 0)
(3.35211 -0.175204 3.39206e-17)
(3.39827 -0.164269 -3.36149e-17)
(3.4449 -0.178276 0)
(3.47398 -0.174909 0)
(3.50889 -0.191219 -3.27227e-17)
(3.53701 -0.173257 9.71914e-17)
(3.55194 -0.1691 0)
(3.56288 -0.179935 0)
(3.57449 -0.191612 3.14609e-17)
(3.59536 -0.189614 0)
(3.5914 -0.183017 6.16278e-17)
(3.5898 -0.181305 -3.04727e-17)
(3.56279 -0.18558 0)
(3.55904 -0.194557 2.98465e-17)
(3.53488 -0.190951 5.90577e-17)
(3.52347 -0.192436 0)
(3.47701 -0.185751 0)
(3.45388 -0.194723 -2.85749e-17)
(3.41379 -0.186599 0)
(3.35692 -0.169151 5.58878e-17)
(3.25956 -0.149839 0)
(3.16778 -0.154867 0)
(3.04739 -0.146215 0)
(2.91854 -0.121293 0)
(2.72314 -0.10252 -2.66525e-17)
(2.56437 -0.0757262 -2.64635e-17)
(2.27969 -0.0258607 0)
(2.0058 -0.000959599 0)
(1.67502 0.0231678 0)
(1.37977 0.0190026 2.59582e-17)
(1.04578 0.0237023 0)
(0.837772 0.014568 -5.16693e-17)
(0.516035 0.0334375 5.16426e-17)
(0.401004 0.00112545 5.1494e-17)
(0.119731 0.0319806 5.14852e-17)
(0.120184 -0.0159897 5.13315e-17)
(-0.176368 0.0786471 5.14961e-17)
(0.0115413 -0.11779 0)
(0.0290762 0.0708994 0)
(0.121291 -0.0388401 0)
(0.228445 -0.242293 2.2913e-17)
(0.340711 -0.46929 2.26644e-17)
(0.475315 -0.693859 -2.25127e-17)
(0.619576 -0.875649 -2.23997e-17)
(0.773876 -1.00414 -1.48201e-21)
(0.925193 -1.07422 0)
(1.07027 -1.08484 0)
(1.19699 -1.04554 0)
(1.30568 -0.965638 0)
(1.39156 -0.856321 0)
(1.45705 -0.725772 6.47087e-17)
(1.49766 -0.585486 0)
(1.5162 -0.440596 -2.13039e-17)
(1.51088 -0.294123 -2.11677e-17)
(1.48461 -0.152706 0)
(1.43595 -0.019238 0)
(1.36955 0.104587 0)
(1.28513 0.217019 0)
(1.185 0.316332 -2.05019e-17)
(1.06997 0.399333 0)
(0.945064 0.471682 2.0248e-17)
(0.807532 0.5368 0)
(0.660276 0.591635 0)
(0.504639 0.636511 0)
(0.346073 0.672407 3.95245e-17)
(0.183532 0.699531 0)
(0.0195627 0.718859 -1.95221e-17)
(-0.145415 0.729145 3.87995e-17)
(-0.309652 0.732204 0)
(-0.476188 0.73383 0)
(-0.642878 0.730752 0)
(-0.808406 0.721185 -1.89164e-17)
(-0.970279 0.705906 -1.87955e-17)
(-1.12891 0.684448 0)
(-1.28271 0.657273 0)
(-1.43091 0.625972 3.68588e-17)
(-1.57223 0.592153 3.66193e-17)
(-1.71184 0.557971 -3.63812e-17)
(-1.8465 0.52541 0)
(-1.97943 0.492114 0)
(-2.1067 0.46013 0)
(-2.23034 0.430863 0)
(-2.34966 0.403152 3.52005e-17)
(-2.46303 0.373842 3.49668e-17)
(-2.57112 0.34415 -3.47348e-17)
(-2.67373 0.315603 0)
(-2.77016 0.287634 0)
(-2.86147 0.259145 0)
(-2.94723 0.232672 0)
(-3.03237 0.214192 3.35755e-17)
(-3.11167 0.19758 0)
(-3.18613 0.183891 0)
(-3.25401 0.175604 3.2878e-17)
(-3.31725 0.169968 3.26464e-17)
(-3.37509 0.162673 0)
(-3.4253 0.152981 -6.43598e-17)
(-3.47348 0.145868 3.19486e-17)
(-3.51768 0.139358 -3.17142e-17)
(-3.55605 0.135634 0)
(-3.59152 0.133052 0)
(-3.62092 0.129026 0)
(-3.64545 0.125001 0)
(-3.66745 0.120014 -3.05526e-17)
(-3.68523 0.112856 -6.06461e-17)
(-3.69681 0.105115 -3.00974e-17)
(-3.70471 0.0968492 2.98725e-17)
(-3.70541 0.0853781 0)
(-3.70105 0.0722102 -5.88393e-17)
(-3.68872 0.0561483 -5.83909e-17)
(-3.67116 0.0399383 -5.7946e-17)
(-3.64938 0.0220736 5.75043e-17)
(-3.61877 -0.000325764 0)
(-3.58122 -0.0231359 8.49409e-17)
(-3.53778 -0.0426652 0)
(-3.48957 -0.0580853 -2.78774e-17)
(-3.4328 -0.0718157 -2.76644e-17)
(-3.36805 -0.0873952 0)
(-3.29706 -0.104131 0)
(-3.22257 -0.120737 -5.40405e-17)
(-3.14587 -0.135416 0)
(-3.0652 -0.149454 -5.31932e-17)
(-2.98198 -0.162933 0)
(-2.89419 -0.177154 5.23544e-17)
(-2.80294 -0.188409 1.03881e-16)
(-2.70805 -0.198074 0)
(-2.61239 -0.207278 0)
(-2.5137 -0.214841 0)
(-2.41631 -0.2212 5.02911e-17)
(-2.3171 -0.227112 0)
(-2.21459 -0.231902 4.94696e-17)
(-2.10917 -0.235221 0)
(-2.0033 -0.234397 0)
(-1.89496 -0.234425 -9.65063e-17)
(-1.78955 -0.231875 0)
(-1.68209 -0.231283 -4.7462e-17)
(-1.57904 -0.225137 0)
(-1.47158 -0.225964 -4.66943e-17)
(-1.36515 -0.225314 0)
(-1.25621 -0.224527 0)
(-1.14903 -0.228262 0)
(-1.03839 -0.23082 -1.35695e-16)
(-0.938599 -0.22211 -4.487e-17)
(-0.829058 -0.219086 0)
(-0.73643 -0.208216 0)
(-0.634484 -0.210124 0)
(-0.549777 -0.197221 0)
(-0.445508 -0.193419 4.32354e-17)
(-0.360403 -0.187469 -8.58346e-17)
(-0.253872 -0.204583 -4.26322e-17)
(-0.167157 -0.196847 8.46564e-17)
(-0.0476756 -0.212778 8.40934e-17)
(0.0537211 -0.208968 4.17609e-17)
(0.183288 -0.223802 0)
(0.295603 -0.224371 8.2397e-17)
(0.434033 -0.240053 0)
(0.565627 -0.24948 -8.12868e-17)
(0.713678 -0.256464 -4.0385e-17)
(0.859657 -0.261823 0)
(1.01461 -0.270536 7.97641e-17)
(1.16355 -0.273784 3.96289e-17)
(1.32571 -0.282179 0)
(1.48401 -0.280698 3.9091e-17)
(1.65831 -0.27002 -1.16511e-16)
(1.81747 -0.257822 0)
(1.98229 -0.256727 0)
(2.13415 -0.256188 0)
(2.29443 -0.259155 0)
(2.45046 -0.254282 -7.51526e-17)
(2.60646 -0.251035 -7.46543e-17)
(2.75678 -0.219626 0)
(2.89558 -0.214405 0)
(3.02471 -0.201738 0)
(3.14856 -0.200659 0)
(3.25307 -0.205162 0)
(3.37568 -0.208912 0)
(3.48708 -0.207487 -7.09537e-17)
(3.60273 -0.20524 -1.65093e-20)
(3.69494 -0.195895 0)
(3.80665 -0.209342 0)
(3.89406 -0.196737 -6.86083e-17)
(3.98812 -0.197717 0)
(4.06613 -0.176989 6.74274e-17)
(4.13709 -0.187821 6.68105e-17)
(4.17841 -0.170339 0)
(4.23353 -0.189108 0)
(4.27169 -0.164906 -6.4901e-17)
(4.32244 -0.15641 -1.28514e-16)
(4.35001 -0.160564 0)
(4.3836 -0.172667 0)
(4.42529 -0.163783 0)
(4.43888 -0.1493 -6.16915e-17)
(4.46789 -0.136275 6.10036e-17)
(4.46733 -0.135829 0)
(4.4873 -0.141928 1.19372e-16)
(4.47085 -0.129899 5.90312e-17)
(4.488 -0.128322 -1.16769e-16)
(4.46545 -0.110008 0)
(4.46494 -0.117122 0)
(4.43447 -0.0957209 -1.1275e-16)
(4.3946 -0.0677042 -5.57153e-17)
(4.3103 -0.0380157 0)
(4.247 -0.0356227 0)
(4.11396 -0.0170719 0)
(4.00382 0.0254426 0)
(3.79112 0.0526895 -1.05586e-16)
(3.62247 0.0958843 0)
(3.32409 0.167742 0)
(3.06498 0.192777 0)
(2.71364 0.220448 0)
(2.39927 0.203203 0)
(2.00952 0.187713 0)
(1.77177 0.15458 -1.00633e-16)
(1.3653 0.151875 0)
(1.23588 0.0830936 0)
(0.851298 0.10529 -1.99419e-16)
(0.84696 0.022598 9.92465e-17)
(0.461163 0.111132 -9.94044e-17)
(0.657567 -0.129231 9.87829e-17)
(0.020625 -0.0945308 0)
(0.125111 -0.270141 -4.69562e-17)
(0.247958 -0.490974 0)
(0.375972 -0.75657 -2.27967e-17)
(0.502636 -1.0001 0)
(0.618685 -1.18868 0)
(0.723144 -1.30589 2.24447e-17)
(0.803575 -1.34876 0)
(0.866217 -1.31865 0)
(0.90522 -1.2327 0)
(0.927085 -1.10985 0)
(0.929638 -0.960561 0)
(0.917753 -0.793392 -8.66118e-17)
(0.88882 -0.616235 -4.30233e-17)
(0.846314 -0.433501 4.27439e-17)
(0.789948 -0.252481 0)
(0.721761 -0.0798434 0)
(0.640375 0.0814995 0)
(0.549253 0.230167 0)
(0.447876 0.363479 0)
(0.339023 0.481027 -4.11499e-17)
(0.220876 0.582929 -4.08975e-17)
(0.0947607 0.673735 4.06484e-17)
(-0.0371633 0.749852 -4.04008e-17)
(-0.173235 0.812676 0)
(-0.312082 0.86079 0)
(-0.452445 0.896821 -3.96578e-17)
(-0.593182 0.921503 0)
(-0.734834 0.935603 0)
(-0.877045 0.944173 -3.8925e-17)
(-1.01985 0.949606 -3.86818e-17)
(-1.16051 0.947252 -3.84374e-17)
(-1.29808 0.938115 0)
(-1.43242 0.922777 0)
(-1.56221 0.901295 3.76937e-17)
(-1.68699 0.871681 0)
(-1.80784 0.836274 0)
(-1.92506 0.796988 -3.69487e-17)
(-2.03932 0.759277 3.66971e-17)
(-2.15203 0.721507 -3.64485e-17)
(-2.25843 0.68311 0)
(-2.36316 0.64405 0)
(-2.46386 0.607922 -7.14192e-17)
(-2.56165 0.573718 0)
(-2.65402 0.535487 -7.04529e-17)
(-2.74285 0.497109 -1.04963e-16)
(-2.828 0.4612 1.04242e-16)
(-2.9078 0.424799 -6.90146e-17)
(-2.98441 0.387658 0)
(-3.0584 0.352166 0)
(-3.13142 0.323504 -6.76021e-17)
(-3.20179 0.298583 -3.35706e-17)
(-3.26604 0.27262 0)
(-3.3261 0.25111 0)
(-3.38165 0.235326 -3.28784e-17)
(-3.43179 0.217996 -6.5297e-17)
(-3.47571 0.198648 0)
(-3.51364 0.180355 6.4379e-17)
(-3.5477 0.16569 -6.39198e-17)
(-3.57638 0.151989 6.3464e-17)
(-3.59924 0.138139 0)
(-3.61586 0.124948 0)
(-3.62803 0.113895 0)
(-3.63485 0.10289 0)
(-3.63803 0.0929872 0)
(-3.63582 0.077399 6.07736e-17)
(-3.62928 0.0604072 0)
(-3.61607 0.0418667 0)
(-3.59705 0.0209024 0)
(-3.57395 -0.00100813 1.18046e-16)
(-3.54534 -0.0249548 5.85909e-17)
(-3.51204 -0.0489734 5.81575e-17)
(-3.47379 -0.0760193 -1.15457e-16)
(-3.42919 -0.107532 5.73035e-17)
(-3.3812 -0.13771 -5.68842e-17)
(-3.32697 -0.1653 0)
(-3.26782 -0.191253 5.60371e-17)
(-3.19873 -0.21794 0)
(-3.12547 -0.243226 0)
(-3.04657 -0.265173 0)
(-2.96617 -0.285914 1.08718e-16)
(-2.8836 -0.304928 -5.39456e-17)
(-2.79771 -0.323823 -5.35321e-17)
(-2.71056 -0.342558 -1.06269e-16)
(-2.61942 -0.362295 -1.58213e-16)
(-2.52737 -0.377992 -5.23426e-17)
(-2.43061 -0.390777 0)
(-2.33428 -0.402228 -1.03069e-16)
(-2.23645 -0.410357 0)
(-2.13868 -0.416865 -1.52204e-16)
(-2.04019 -0.426938 0)
(-1.94282 -0.433464 -1.49832e-16)
(-1.8393 -0.439859 0)
(-1.73531 -0.440532 0)
(-1.62636 -0.44206 -4.87468e-17)
(-1.51907 -0.438684 0)
(-1.40827 -0.438215 4.79719e-17)
(-1.30246 -0.433448 9.51555e-17)
(-1.18864 -0.435266 4.72032e-17)
(-1.07907 -0.437213 9.36489e-17)