/*--------------------------------*- C++ -*----------------------------------*\
| =========                 |                                                 |
| \\      /  F ield         | OpenFOAM: The Open Source CFD Toolbox           |
|  \\    /   O peration     | Version:  dev                                   |
|   \\  /    A nd           | Web:      http://www.openfoam.org               |
|    \\/     M anipulation  |                                                 |
\*---------------------------------------------------------------------------*/
FoamFile
{
    version     2.0;
    format      ascii;
    class       volSymmTensorField;
    object      UPrime2Mean;
    location    "9.118";
}
// * * * * * * * * * * * * * * * * * * * * * * * * * * * * * * * * * * * * * //

dimensions      [0 2 -2 0 0 0 0];

internalField   nonuniform List<symmTensor> 
12225
(
(0.329265 0.0192758 0 0.0692764 0 0)
(2.98603 0.0797054 0 0.0781996 0 0)
(7.87982 0.112335 0 0.0769025 0 0)
(14.533 0.14825 0 0.0755768 0 0)
(22.7006 0.133058 0 0.076523 0 0)
(32.0631 0.201126 0 0.0746765 0 0)
(42.374 0.0960675 0 0.0766182 0 0)
(53.5152 0.200499 0 0.0738558 0 0)
(65.6068 -0.0282358 0 0.077616 0 0)
(78.2002 0.125861 0 0.0736235 0 0)
(92.944 -0.305905 0 0.0813147 0 0)
(107.281 -0.11538 0 0.0769939 0 0)
(127.886 -0.671816 0 0.086313 0 0)
(145.591 -1.27685 0 0.134712 0 0)
(185.892 -1.40909 0 0.116406 0 0)
(198.48 -0.392773 0 2.39252 0 0)
(272.242 -33.5287 0 5.80778 0 0)
(575.689 -52.8977 0 18.8111 0 0)
(0.377411 0.0568263 0 0.689077 0 0)
(3.15586 0.252268 0 0.732375 0 0)
(8.4101 0.362175 0 0.71423 0 0)
(15.4715 0.485457 0 0.706722 0 0)
(24.1943 0.453204 0 0.703587 0 0)
(34.4505 0.63295 0 0.683411 0 0)
(45.5166 0.296452 0 0.692212 0 0)
(58.4669 0.60945 0 0.658879 0 0)
(71.4563 -0.134455 0 0.682727 0 0)
(87.1228 0.283528 0 0.646066 0 0)
(102.755 -1.06381 0 0.711331 0 0)
(121.388 -0.764429 0 0.655544 0 0)
(142.806 -2.54121 0 1.06871 0 0)
(166.273 -4.48942 0 1.04669 0 0)
(199.702 -0.92736 0 3.09954 0 0)
(274.311 -9.97731 0 6.60178 0 0)
(280.975 -20.826 0 8.73742 0 0)
(799.632 -185.126 0 64.6858 0 0)
(0.505069 0.0584051 0 2.14093 0 0)
(3.06392 0.424701 0 2.20285 0 0)
(8.46529 0.570608 0 2.15176 0 0)
(14.8507 0.852091 0 2.14325 0 0)
(24.2727 0.864915 0 2.12015 0 0)
(33.1445 1.05345 0 2.08294 0 0)
(45.2638 0.757054 0 2.07869 0 0)
(56.1891 0.887184 0 2.00791 0 0)
(69.6727 0.173606 0 2.05202 0 0)
(83.425 0.0186228 0 1.95969 0 0)
(98.1638 -1.121 0 2.12283 0 0)
(115.628 -2.44481 0 2.09469 0 0)
(138.583 -3.59308 0 2.62224 0 0)
(154.832 -7.19461 0 2.83084 0 0)
(210.945 -13.0023 0 6.11694 0 0)
(223.325 -7.89139 0 6.37159 0 0)
(352.913 -62.2368 0 31.0732 0 0)
(534.356 -192.393 0 98.1719 0 0)
(1.03017 0.0924221 0 4.67122 0 0)
(3.54988 0.619681 0 4.76781 0 0)
(9.06896 0.815999 0 4.64357 0 0)
(15.0651 1.15036 0 4.60285 0 0)
(24.634 1.3135 0 4.55853 0 0)
(32.9789 1.35063 0 4.48424 0 0)
(44.9985 1.26262 0 4.44921 0 0)
(55.1573 0.974814 0 4.3507 0 0)
(68.5871 0.477913 0 4.38239 0 0)
(80.6954 -0.280405 0 4.25872 0 0)
(96.0145 -1.32763 0 4.50786 0 0)
(110.487 -3.33794 0 4.37297 0 0)
(131.443 -4.78976 0 5.30161 0 0)
(152.205 -10.9637 0 5.60717 0 0)
(187.821 -11.4268 0 9.28218 0 0)
(238.317 -28.8473 0 16.82 0 0)
(291.342 -58.885 0 32.6681 0 0)
(414.705 -178.224 0 107.767 0 0)
(1.8643 0.365139 0 8.52413 0 0)
(5.01004 0.720494 0 8.72566 0 0)
(9.43569 1.14041 0 8.47442 0 0)
(16.2408 1.29513 0 8.37137 0 0)
(24.6445 1.70159 0 8.28167 0 0)
(33.9419 1.50334 0 8.14669 0 0)
(44.8108 1.59935 0 8.04589 0 0)
(55.5122 0.994509 0 7.91388 0 0)
(68.3989 0.603041 0 7.86072 0 0)
(80.1037 -0.591105 0 7.76283 0 0)
(95.3473 -1.77483 0 7.96417 0 0)
(108.531 -4.22287 0 7.91139 0 0)
(128.064 -6.87326 0 9.0268 0 0)
(145.184 -12.2818 0 9.26889 0 0)
(173.914 -19.1895 0 14.5844 0 0)
(217.848 -25.9422 0 17.2126 0 0)
(233.537 -55.5435 0 46.27 0 0)
(326.603 -171.664 0 138.587 0 0)
(2.56174 0.750737 0 14.0422 0 0)
(6.32504 0.807083 0 14.394 0 0)
(9.29655 1.54039 0 13.9642 0 0)
(17.0954 1.59494 0 13.7694 0 0)
(24.1335 2.12145 0 13.5947 0 0)
(34.2614 1.93764 0 13.3626 0 0)
(43.9641 1.99275 0 13.1573 0 0)
(55.1607 1.41745 0 12.9164 0 0)
(67.3099 0.897562 0 12.7794 0 0)
(78.8914 -0.382336 0 12.5783 0 0)
(94.3991 -1.73357 0 12.7779 0 0)
(105.802 -4.30657 0 12.6863 0 0)
(128.076 -7.26041 0 13.9872 0 0)
(137.899 -13.1476 0 14.6658 0 0)
(170.914 -21.8264 0 21.2439 0 0)
(191.444 -33.0214 0 24.5979 0 0)
(210.993 -55.8708 0 51.577 0 0)
(265.615 -145.622 0 130.608 0 0)
(2.24285 0.72188 0 21.5359 0 0)
(5.54155 0.940387 0 22.1518 0 0)
(9.19712 1.76417 0 21.3777 0 0)
(16.3374 2.07772 0 21.1899 0 0)
(23.9693 2.45089 0 20.7912 0 0)
(33.3584 2.54364 0 20.5581 0 0)
(43.6047 2.27623 0 20.0895 0 0)
(54.0388 1.92997 0 19.8595 0 0)
(66.4723 0.900524 0 19.4411 0 0)
(77.3444 -0.215257 0 19.2885 0 0)
(92.4955 -2.36645 0 19.2278 0 0)
(103.474 -4.81823 0 19.2707 0 0)
(123.608 -8.97302 0 20.4786 0 0)
(133.889 -14.2526 0 21.4565 0 0)
(161.487 -24.3887 0 28.5152 0 0)
(169.323 -32.3925 0 32.0524 0 0)
(203.344 -58.9765 0 56.8652 0 0)
(190.195 -108.74 0 114.134 0 0)
(1.42136 0.598759 0 29.7592 0 0)
(4.31762 1.13394 0 30.6447 0 0)
(8.57875 1.92436 0 29.4973 0 0)
(15.2476 2.47296 0 29.3262 0 0)
(23.2009 2.77821 0 28.6808 0 0)
(32.2591 2.9642 0 28.42 0 0)
(42.4104 2.5999 0 27.668 0 0)
(52.7781 2.19289 0 27.3875 0 0)
(64.4132 1.01008 0 26.6633 0 0)
(75.5977 -0.360231 0 26.4982 0 0)
(88.6229 -2.74778 0 26.1139 0 0)
(100.408 -5.73016 0 26.3384 0 0)
(115.509 -10.3144 0 27.0929 0 0)
(128.046 -15.791 0 28.6069 0 0)
(144.605 -26.4783 0 33.9169 0 0)
(151.98 -33.4427 0 37.4808 0 0)
(180.289 -54.8657 0 53.1807 0 0)
(139.531 -71.2673 0 83.6845 0 0)
(1.00209 0.521135 0 38.5316 0 0)
(3.77163 1.28696 0 39.7262 0 0)
(8.17286 2.03589 0 38.1886 0 0)
(14.7219 2.7798 0 38.0476 0 0)
(22.6417 3.00623 0 37.1375 0 0)
(31.5785 3.31645 0 36.8627 0 0)
(41.491 2.80629 0 35.8112 0 0)
(51.7629 2.47465 0 35.493 0 0)
(62.8113 1.04077 0 34.4836 0 0)
(73.8269 -0.278874 0 34.2839 0 0)
(85.6342 -3.04226 0 33.6521 0 0)
(96.9946 -5.89941 0 33.9119 0 0)
(109.307 -10.9421 0 34.4189 0 0)
(121.185 -16.031 0 36.138 0 0)
(131.175 -25.5503 0 40.0161 0 0)
(138.104 -33.1903 0 44.7474 0 0)
(149.933 -47.2912 0 52.4627 0 0)
(123.162 -58.7114 0 73.1181 0 0)
(0.607192 0.484448 0 49.7198 0 0)
(3.22986 1.4457 0 51.3084 0 0)
(7.73652 2.18672 0 49.2113 0 0)
(14.1927 3.03635 0 49.1242 0 0)
(21.9841 3.27408 0 47.8348 0 0)
(30.8406 3.58024 0 47.5558 0 0)
(40.4609 3.06605 0 46.0941 0 0)
(50.5933 2.6381 0 45.7258 0 0)
(61.1116 1.16336 0 44.3058 0 0)
(71.7771 -0.291046 0 44.0623 0 0)
(82.652 -3.1394 0 43.0172 0 0)
(93.1924 -6.03484 0 43.3359 0 0)
(103.824 -11.0879 0 43.3344 0 0)
(113.687 -15.8371 0 45.1906 0 0)
(121.287 -24.4935 0 47.69 0 0)
(125.726 -30.5526 0 51.9603 0 0)
(129.054 -40.6922 0 56.4749 0 0)
(115.976 -48.3605 0 69.0355 0 0)
(0.432618 0.516234 0 63.9162 0 0)
(2.97687 1.6278 0 65.9719 0 0)
(7.46724 2.38397 0 63.2794 0 0)
(13.841 3.31118 0 63.1682 0 0)
(21.485 3.57052 0 61.5338 0 0)
(30.1798 3.86028 0 61.1199 0 0)
(39.5344 3.35714 0 59.3114 0 0)
(49.3688 2.81945 0 58.717 0 0)
(59.433 1.37029 0 56.9955 0 0)
(69.5319 -0.266383 0 56.478 0 0)
(79.621 -2.98049 0 55.1742 0 0)
(89.1519 -6.07928 0 55.23 0 0)
(98.4623 -10.5494 0 54.882 0 0)
(106.337 -15.4097 0 56.4293 0 0)
(112.495 -22.1209 0 57.8695 0 0)
(115.029 -28.0334 0 61.5991 0 0)
(115.972 -35.1744 0 64.5604 0 0)
(109.529 -40.7695 0 71.4558 0 0)
(0.35595 0.540744 0 81.4117 0 0)
(2.83045 1.74538 0 84.0981 0 0)
(7.2595 2.55544 0 80.6294 0 0)
(13.5117 3.50215 0 80.5209 0 0)
(20.9818 3.80968 0 78.434 0 0)
(29.4565 4.0374 0 77.8815 0 0)
(38.5091 3.56109 0 75.5918 0 0)
(47.9737 2.91971 0 74.7676 0 0)
(57.5213 1.48145 0 72.5749 0 0)
(67.0088 -0.22223 0 71.7879 0 0)
(76.2157 -2.8711 0 70.0314 0 0)
(84.7966 -5.85499 0 69.772 0 0)
(92.6969 -9.95745 0 68.9349 0 0)
(99.1226 -14.2839 0 69.8879 0 0)
(103.832 -19.7273 0 70.5279 0 0)
(105.776 -24.6378 0 73.0312 0 0)
(105.93 -29.7996 0 74.9709 0 0)
(101.689 -33.2819 0 78.6237 0 0)
(0.329179 0.56919 0 102.493 0 0)
(2.73531 1.80717 0 105.704 0 0)
(7.06656 2.6835 0 101.677 0 0)
(13.1506 3.58387 0 101.208 0 0)
(20.4254 3.93388 0 98.9435 0 0)
(28.6051 4.055 0 97.8647 0 0)
(37.3333 3.61536 0 95.3495 0 0)
(46.3282 2.83385 0 93.9005 0 0)
(55.3509 1.4746 0 91.4633 0 0)
(64.126 -0.341462 0 90.0124 0 0)
(72.4992 -2.75826 0 87.9846 0 0)
(80.0841 -5.68781 0 87.0101 0 0)
(86.8005 -9.19615 0 85.7968 0 0)
(92.058 -13.0832 0 85.8032 0 0)
(95.7566 -17.2988 0 85.7513 0 0)
(97.3406 -21.3632 0 86.8915 0 0)
(97.4428 -25.2054 0 87.9169 0 0)
(94.6407 -27.6588 0 89.5192 0 0)
(0.3136 0.573494 0 126.491 0 0)
(2.64003 1.77451 0 130.422 0 0)
(6.84577 2.66806 0 125.711 0 0)
(12.7264 3.46381 0 124.902 0 0)
(19.7592 3.79187 0 122.37 0 0)
(27.6052 3.80621 0 120.794 0 0)
(35.9416 3.33317 0 117.911 0 0)
(44.4458 2.48686 0 115.878 0 0)
(52.8771 1.13285 0 113.017 0 0)
(60.9654 -0.629441 0 110.926 0 0)
(68.5092 -2.89621 0 108.434 0 0)
(75.228 -5.52676 0 106.707 0 0)
(80.9619 -8.58037 0 104.938 0 0)
(85.4081 -11.8021 0 103.932 0 0)
(88.4513 -15.1631 0 103.099 0 0)
(89.8879 -18.329 0 102.923 0 0)
(90.1902 -21.2464 0 102.935 0 0)
(88.2286 -22.892 0 103.085 0 0)
(0.29921 0.525097 0 151.91 0 0)
(2.53209 1.58226 0 156.414 0 0)
(6.58164 2.37813 0 151.284 0 0)
(12.2287 2.98862 0 149.846 0 0)
(18.9663 3.21254 0 147.286 0 0)
(26.441 3.07104 0 144.974 0 0)
(34.3368 2.53125 0 141.885 0 0)
(42.3212 1.59994 0 139.079 0 0)
(50.153 0.271509 0 135.879 0 0)
(57.5675 -1.43228 0 133.002 0 0)
(64.3759 -3.49287 0 130.05 0 0)
(70.3508 -5.82919 0 127.476 0 0)
(75.3615 -8.4047 0 125.072 0 0)
(79.2457 -11.0554 0 123.069 0 0)
(81.9421 -13.692 0 121.354 0 0)
(83.3591 -16.1554 0 120.013 0 0)
(83.9414 -18.3528 0 118.923 0 0)
(82.7351 -19.3979 0 117.81 0 0)
(0.283906 0.394404 0 175.137 0 0)
(2.41366 1.14605 0 180.339 0 0)
(6.28144 1.67125 0 174.73 0 0)
(11.667 2.00388 0 172.848 0 0)
(18.071 2.00154 0 170.166 0 0)
(25.1474 1.66526 0 167.315 0 0)
(32.5755 0.985317 0 163.928 0 0)
(40.04 -0.0228724 0 160.532 0 0)
(47.2936 -1.35634 0 156.914 0 0)
(54.1032 -2.96725 0 153.4 0 0)
(60.2911 -4.83451 0 149.912 0 0)
(65.693 -6.86418 0 146.62 0 0)
(70.2042 -9.01727 0 143.522 0 0)
(73.7516 -11.164 0 140.666 0 0)
(76.3058 -13.2268 0 138.074 0 0)
(77.8311 -15.1254 0 135.748 0 0)
(78.7128 -16.7721 0 133.635 0 0)
(78.1648 -17.369 0 131.435 0 0)
(0.268694 0.156621 0 190.25 0 0)
(2.2928 0.391634 0 195.925 0 0)
(5.96495 0.489883 0 190.03 0 0)
(11.0715 0.411744 0 187.887 0 0)
(17.1254 0.075582 0 185.141 0 0)
(23.7943 -0.532287 0 181.971 0 0)
(30.7609 -1.40088 0 178.392 0 0)
(37.7299 -2.5225 0 174.639 0 0)
(44.4655 -3.87146 0 170.727 0 0)
(50.7614 -5.41068 0 166.808 0 0)
(56.4649 -7.0967 0 162.916 0 0)
(61.4544 -8.86439 0 159.136 0 0)
(65.6545 -10.6593 0 155.499 0 0)
(69.036 -12.4036 0 152.037 0 0)
(71.5916 -14.0212 0 148.77 0 0)
(73.3101 -15.4906 0 145.725 0 0)
(74.5047 -16.7262 0 142.833 0 0)
(74.5495 -17.0467 0 139.837 0 0)
(0.259037 -0.142314 0 190.222 0 0)
(2.19528 -0.533774 0 195.856 0 0)
(5.68836 -0.936932 0 190.024 0 0)
(10.5388 -1.49182 0 187.872 0 0)
(16.2772 -2.2119 0 185.169 0 0)
(22.586 -3.11393 0 182.005 0 0)
(29.1573 -4.18701 0 178.452 0 0)
(35.7185 -5.42542 0 174.702 0 0)
(42.047 -6.79869 0 170.777 0 0)
(47.9654 -8.27821 0 166.825 0 0)
(53.3375 -9.81721 0 162.85 0 0)
(58.0751 -11.3732 0 158.964 0 0)
(62.1172 -12.8933 0 155.152 0 0)
(65.4576 -14.3342 0 151.488 0 0)
(68.0952 -15.6306 0 147.946 0 0)
(70.0354 -16.7897 0 144.608 0 0)
(71.5115 -17.7361 0 141.359 0 0)
(72.0456 -17.9404 0 138.029 0 0)
(0.255876 -0.396151 0 174.402 0 0)
(2.13612 -1.30585 0 179.356 0 0)
(5.49768 -2.12701 0 174.026 0 0)
(10.1583 -3.07512 0 172.033 0 0)
(15.6634 -4.10319 0 169.552 0 0)
(21.7082 -5.23197 0 166.663 0 0)
(27.9957 -6.45436 0 163.412 0 0)
(34.2714 -7.76727 0 159.989 0 0)
(40.3254 -9.14223 0 156.384 0 0)
(46.0012 -10.5594 0 152.755 0 0)
(51.1736 -11.9768 0 149.072 0 0)
(55.7745 -13.3679 0 145.465 0 0)
(59.7504 -14.6878 0 141.883 0 0)
(63.1055 -15.9134 0 138.431 0 0)
(65.8378 -16.9932 0 135.047 0 0)
(67.9648 -17.9424 0 131.846 0 0)
(69.6555 -18.6997 0 128.691 0 0)
(70.5526 -18.887 0 125.491 0 0)
(0.257336 -0.545276 0 148.963 0 0)
(2.10836 -1.74695 0 152.922 0 0)
(5.38331 -2.82201 0 148.386 0 0)
(9.9164 -4.00496 0 146.669 0 0)
(15.2648 -5.20819 0 144.548 0 0)
(21.1328 -6.45669 0 142.095 0 0)
(27.2326 -7.74248 0 139.332 0 0)
(33.3225 -9.0674 0 136.427 0 0)
(39.2026 -10.4041 0 133.355 0 0)
(44.7294 -11.7426 0 130.264 0 0)
(49.7877 -13.0447 0 127.108 0 0)
(54.3181 -14.2972 0 124.014 0 0)
(58.2746 -15.4607 0 120.92 0 0)
(61.6627 -16.5264 0 117.931 0 0)
(64.4815 -17.4506 0 114.983 0 0)
(66.7531 -18.2523 0 112.185 0 0)
(68.6027 -18.8811 0 109.413 0 0)
(69.7628 -19.0904 0 106.622 0 0)
(0.260208 -0.601047 0 120.057 0 0)
(2.09945 -1.88904 0 123.028 0 0)
(5.31731 -3.06648 0 119.379 0 0)
(9.76506 -4.33895 0 117.986 0 0)
(15.0087 -5.5967 0 116.28 0 0)
(20.7591 -6.86586 0 114.316 0 0)
(26.7352 -8.13617 0 112.104 0 0)
(32.7044 -9.41298 0 109.777 0 0)
(38.4743 -10.6709 0 107.314 0 0)
(43.9095 -11.9069 0 104.83 0 0)
(48.9027 -13.0871 0 102.289 0 0)
(53.3992 -14.207 0 99.7905 0 0)
(57.3579 -15.2322 0 97.2861 0 0)
(60.7836 -16.1627 0 94.861 0 0)
(63.6764 -16.9614 0 92.463 0 0)
(66.0613 -17.648 0 90.1797 0 0)
(68.033 -18.1815 0 87.9151 0 0)
(69.3918 -18.4169 0 85.6401 0 0)
(0.263139 -0.590268 0 91.9031 0 0)
(2.09909 -1.82925 0 94.0191 0 0)
(5.27956 -2.99539 0 91.2279 0 0)
(9.67048 -4.24526 0 90.1546 0 0)
(14.8436 -5.46501 0 88.8556 0 0)
(20.5155 -6.67707 0 87.3611 0 0)
(26.4099 -7.87099 0 85.6808 0 0)
(32.3004 -9.05177 0 83.9092 0 0)
(38.0002 -10.1987 0 82.0337 0 0)
(43.3792 -11.3105 0 80.1369 0 0)
(48.3359 -12.3602 0 78.1964 0 0)
(52.818 -13.3463 0 76.2821 0 0)
(56.788 -14.2412 0 74.3643 0 0)
(60.249 -15.0474 0 72.5011 0 0)
(63.2027 -15.7368 0 70.66 0 0)
(65.6763 -16.3245 0 68.9002 0 0)
(67.7423 -16.7812 0 67.1576 0 0)
(69.2539 -17.0306 0 65.4048 0 0)
(0.26624 -0.536454 0 66.946 0 0)
(2.10295 -1.65008 0 68.3867 0 0)
(5.25829 -2.72939 0 66.3548 0 0)
(9.61149 -3.88175 0 65.5721 0 0)
(14.7373 -5.00083 0 64.6341 0 0)
(20.3569 -6.10252 0 63.5525 0 0)
(26.1979 -7.17879 0 62.3385 0 0)
(32.0373 -8.23153 0 61.053 0 0)
(37.6931 -9.24593 0 59.6943 0 0)
(43.0387 -10.2195 0 58.3147 0 0)
(47.9763 -11.1331 0 56.906 0 0)
(52.4554 -11.9842 0 55.5115 0 0)
(56.4404 -12.7534 0 54.1177 0 0)
(59.9334 -13.4424 0 52.7591 0 0)
(62.9372 -14.0316 0 51.4192 0 0)
(65.4798 -14.5304 0 50.1335 0 0)
(67.6183 -14.9204 0 48.8639 0 0)
(69.2477 -15.1681 0 47.5829 0 0)
(0.268047 -0.462627 0 46.2983 0 0)
(2.10735 -1.41519 0 47.2372 0 0)
(5.24644 -2.36259 0 45.8364 0 0)
(9.5747 -3.37348 0 45.2984 0 0)
(14.6689 -4.35415 0 44.6574 0 0)
(20.2539 -5.314 0 43.9138 0 0)
(26.0603 -6.24804 0 43.0799 0 0)
(31.8674 -7.15454 0 42.1927 0 0)
(37.4965 -8.02458 0 41.2573 0 0)
(42.8228 -8.85347 0 40.3043 0 0)
(47.7513 -9.62895 0 39.3345 0 0)
(52.2323 -10.347 0 38.372 0 0)
(56.2319 -10.9954 0 37.4126 0 0)
(59.7509 -11.5734 0 36.4747 0 0)
(62.7927 -12.0688 0 35.5515 0 0)
(65.386 -12.4855 0 34.6625 0 0)
(67.5766 -12.8135 0 33.7877 0 0)
(69.2919 -13.0439 0 32.9017 0 0)
(0.26924 -0.382848 0 30.1637 0 0)
(2.11093 -1.16401 0 30.7481 0 0)
(5.23975 -1.95728 0 29.8379 0 0)
(9.55127 -2.80592 0 29.4907 0 0)
(14.6242 -3.62926 0 29.0787 0 0)
(20.186 -4.43349 0 28.5983 0 0)
(25.9694 -5.21484 0 28.0592 0 0)
(31.7543 -5.97031 0 27.4836 0 0)
(37.3646 -6.69338 0 26.8777 0 0)
(42.6763 -7.37929 0 26.2594 0 0)
(47.5965 -8.0195 0 25.6315 0 0)
(52.0749 -8.60986 0 25.0072 0 0)
(56.0798 -9.14242 0 24.3862 0 0)
(59.6111 -9.61527 0 23.7777 0 0)
(62.6725 -10.0209 0 23.1796 0 0)
(65.2917 -10.3596 0 22.602 0 0)
(67.5091 -10.6268 0 22.035 0 0)
(69.2774 -10.8244 0 21.4595 0 0)
(0.269553 -0.304429 0 18.2151 0 0)
(2.1127 -0.919265 0 18.5594 0 0)
(5.23438 -1.5533 0 18.0086 0 0)
(9.53188 -2.23595 0 17.8027 0 0)
(14.5858 -2.89986 0 17.5597 0 0)
(20.1255 -3.54963 0 17.2752 0 0)
(25.8845 -4.18053 0 16.955 0 0)
(31.6439 -4.78922 0 16.6122 0 0)
(37.2286 -5.36917 0 16.2505 0 0)
(42.515 -5.91689 0 15.8805 0 0)
(47.4127 -6.42511 0 15.504 0 0)
(51.8701 -6.89146 0 15.1289 0 0)
(55.8592 -7.30913 0 14.7555 0 0)
(59.3777 -7.67784 0 14.3888 0 0)
(62.4339 -7.99177 0 14.0283 0 0)
(65.0504 -8.25151 0 13.6794 0 0)
(67.271 -8.45621 0 13.3374 0 0)
(69.0669 -8.60663 0 12.9906 0 0)
(0.269182 -0.228147 0 9.88395 0 0)
(2.11044 -0.690866 0 10.0675 0 0)
(5.21716 -1.17804 0 9.77031 0 0)
(9.48842 -1.70757 0 9.66797 0 0)
(14.5122 -2.22181 0 9.5436 0 0)
(20.0185 -2.72206 0 9.39445 0 0)
(25.7405 -3.20401 0 9.22381 0 0)
(31.462 -3.66517 0 9.03963 0 0)
(37.0076 -4.09978 0 8.84392 0 0)
(42.2569 -4.5063 0 8.64297 0 0)
(47.1186 -4.87911 0 8.43735 0 0)
(51.546 -5.2184 0 8.23226 0 0)
(55.5099 -5.51833 0 8.02712 0 0)
(59.0121 -5.78115 0 7.8259 0 0)
(62.0602 -6.00073 0 7.62764 0 0)
(64.6758 -6.18061 0 7.43635 0 0)
(66.9002 -6.32376 0 7.2496 0 0)
(68.7295 -6.42583 0 7.06141 0 0)
(0.268068 -0.154705 0 4.48684 0 0)
(2.08359 -0.497574 0 4.58246 0 0)
(5.15588 -0.851903 0 4.45726 0 0)
(9.38762 -1.22814 0 4.42164 0 0)
(14.3858 -1.58505 0 4.37059 0 0)
(19.8666 -1.92725 0 4.30619 0 0)
(25.5621 -2.2521 0 4.2289 0 0)
(31.2577 -2.55734 0 4.14243 0 0)
(36.7803 -2.8414 0 4.04941 0 0)
(42.009 -3.10543 0 3.9536 0 0)
(46.854 -3.34654 0 3.85581 0 0)
(51.2721 -3.56558 0 3.75873 0 0)
(55.2302 -3.7588 0 3.66186 0 0)
(58.7385 -3.92827 0 3.56789 0 0)
(61.7931 -4.06787 0 3.47523 0 0)
(64.4275 -4.18293 0 3.38777 0 0)
(66.6491 -4.27344 0 3.30253 0 0)
(68.5065 -4.3435 0 3.21834 0 0)
(0.255157 -0.088131 0 1.42125 0 0)
(2.0676 -0.313262 0 1.48698 0 0)
(5.2043 -0.525701 0 1.44692 0 0)
(9.49448 -0.73398 0 1.43378 0 0)
(14.5461 -0.923994 0 1.41367 0 0)
(20.0781 -1.10653 0 1.39041 0 0)
(25.8298 -1.28309 0 1.36378 0 0)
(31.5845 -1.45113 0 1.33445 0 0)
(37.1684 -1.609 0 1.30347 0 0)
(42.456 -1.75653 0 1.27186 0 0)
(47.3605 -1.89222 0 1.24005 0 0)
(51.8309 -2.01607 0 1.20864 0 0)
(55.8387 -2.12606 0 1.17761 0 0)
(59.3866 -2.22286 0 1.14764 0 0)
(62.4744 -2.30237 0 1.11838 0 0)
(65.1402 -2.36859 0 1.0919 0 0)
(67.3615 -2.4212 0 1.06668 0 0)
(69.2108 -2.46069 0 1.03974 0 0)
(0.245846 -0.025313 0 0.141869 0 0)
(2.06543 -0.0977605 0 0.153652 0 0)
(5.18319 -0.165461 0 0.150867 0 0)
(9.44256 -0.23067 0 0.149699 0 0)
(14.4754 -0.293533 0 0.147397 0 0)
(19.9949 -0.353829 0 0.14467 0 0)
(25.74 -0.412619 0 0.141671 0 0)
(31.4922 -0.469085 0 0.138541 0 0)
(37.0833 -0.522407 0 0.135319 0 0)
(42.3889 -0.572392 0 0.132068 0 0)
(47.3237 -0.618734 0 0.128811 0 0)
(51.8349 -0.661404 0 0.125609 0 0)
(55.8962 -0.699832 0 0.122467 0 0)
(59.5026 -0.733876 0 0.119443 0 0)
(62.6606 -0.762798 0 0.116618 0 0)
(65.4032 -0.788046 0 0.114281 0 0)
(67.7145 -0.806261 0 0.112206 0 0)
(69.6415 -0.815577 0 0.111822 0 0)
(0.0244912 0.035741 0 0.717853 0 0)
(0.267406 0.0990261 0 0.678883 0 0)
(0.785907 0.18081 0 0.671699 0 0)
(1.53967 0.294922 0 0.662445 0 0)
(2.48685 0.424012 0 0.660837 0 0)
(3.60928 0.5689 0 0.657571 0 0)
(4.88507 0.715989 -2.38678e-19 0.655625 -6.49534e-20 1.48019e-37)
(6.31147 0.866915 2.42558e-19 0.65133 6.92751e-20 1.48481e-37)
(7.88174 1.01388 0 0.645324 0 0)
(9.59392 1.16131 2.44734e-19 0.637751 6.86942e-20 1.46262e-37)
(11.4428 1.30538 0 0.629167 0 0)
(13.4223 1.44829 0 0.620068 0 0)
(15.5258 1.58543 0 0.612109 0 0)
(17.7471 1.71715 -2.76966e-19 0.605642 -5.17599e-20 1.34883e-37)
(20.0799 1.84029 0 0.599428 0 0)
(22.5247 1.95387 0 0.594191 0 0)
(25.0817 2.05375 3.40091e-19 0.589881 3.90486e-20 1.22205e-37)
(27.7493 2.14157 0 0.585422 0 0)
(30.5225 2.22009 0 0.580759 0 0)
(33.3954 2.29157 0 0.576314 0 0)
(36.3522 2.35495 -4.56036e-19 0.572986 -1.95992e-20 1.01866e-37)
(39.3833 2.41086 0 0.569259 0 0)
(42.475 2.45733 -5.15823e-19 0.56701 -1.03026e-20 9.26059e-38)
(45.6181 2.49431 0 0.568198 0 0)
(48.7966 2.52802 0 0.56892 0 0)
(51.9962 2.55114 -6.03975e-19 0.571069 1.18703e-21 7.98388e-38)
(55.2101 2.55339 0 0.572927 0 0)
(58.4425 2.53597 6.57608e-19 0.571456 -6.91874e-21 7.22242e-38)
(61.6875 2.50488 0 0.563636 0 0)
(64.9511 2.46194 -7.02389e-19 0.553243 1.05026e-20 6.54554e-38)
(68.232 2.40984 0 0.539675 0 0)
(71.5176 2.35106 0 0.523781 0 0)
(74.8002 2.28564 0 0.509785 0 0)
(78.0811 2.20956 0 0.498485 0 0)
(81.3543 2.12222 0 0.486901 0 0)
(84.6165 2.02675 7.79725e-19 0.476009 -1.403e-20 4.60394e-38)
(87.8665 1.92293 0 0.464392 0 0)
(91.1048 1.81057 -1.56268e-18 0.448359 2.72108e-20 1.61527e-37)
(94.3302 1.69128 0 0.43276 0 0)
(97.5378 1.56384 1.55267e-18 0.418091 -2.62139e-20 1.4008e-37)
(100.721 1.43081 0 0.402918 0 0)
(103.878 1.28863 0 0.391247 0 0)
(107.001 1.13819 -1.51444e-18 0.378682 2.1555e-20 1.11318e-37)
(110.071 0.985489 0 0.365872 0 0)
(113.074 0.830747 -1.47568e-18 0.355085 1.82381e-20 9.43365e-38)
(115.996 0.672782 1.45319e-18 0.346254 -1.65305e-20 8.66467e-38)
(118.82 0.509106 0 0.340139 0 0)
(121.538 0.339338 1.40247e-18 0.335355 -1.25023e-20 7.34645e-38)
(124.134 0.163797 1.37436e-18 0.331377 -1.06525e-20 6.80263e-38)
(126.609 -0.0142512 0 0.327952 0 0)
(128.947 -0.193165 0 0.325822 0 0)
(131.128 -0.376235 0 0.323215 0 0)
(133.133 -0.564395 0 0.321713 0 0)
(134.942 -0.7549 0 0.323173 0 0)
(136.529 -0.944854 -1.17345e-18 0.327174 -4.39351e-21 5.01967e-38)
(137.867 -1.13655 0 0.33158 0 0)
(138.944 -1.33319 1.0792e-18 0.335518 1.14585e-20 4.75241e-38)
(139.761 -1.53586 0 0.340676 0 0)
(140.315 -1.74417 0 0.347483 0 0)
(140.587 -1.94962 -9.1179e-19 0.356814 -2.25367e-20 4.75496e-38)
(140.573 -2.15332 0 0.368767 0 0)
(140.256 -2.35783 7.80534e-19 0.380758 3.12846e-20 4.97231e-38)
(139.641 -2.56121 0 0.391045 0 0)
(138.726 -2.7647 0 0.403837 0 0)
(137.519 -2.96747 0 0.418022 0 0)
(136.034 -3.16315 -4.8212e-19 0.43247 -4.76042e-20 6.03553e-38)
(134.273 -3.35231 0 0.44725 0 0)
(132.249 -3.53517 0 0.460388 0 0)
(129.976 -3.71074 -2.26389e-19 0.474096 -6.11776e-20 7.30432e-38)
(127.474 -3.88417 0 0.489215 0 0)
(124.779 -4.05041 -5.08537e-20 0.50442 -6.98103e-20 8.30251e-38)
(121.904 -4.20421 0 0.519888 0 0)
(118.866 -4.34587 0 0.535887 0 0)
(115.694 -4.47667 0 0.553025 0 0)
(112.413 -4.59811 -3.04683e-19 0.571164 8.31653e-20 1.04536e-37)
(109.04 -4.70739 0 0.589252 0 0)
(105.591 -4.80123 0 0.607205 0 0)
(102.078 -4.87998 -5.63938e-19 0.625286 9.02911e-20 1.20161e-37)
(98.5139 -4.94808 -6.45707e-19 0.644039 9.18281e-20 1.25273e-37)
(94.926 -5.00516 0 0.662824 0 0)
(91.3452 -5.05034 -7.98685e-19 0.682534 9.46002e-20 1.3469e-37)
(87.7924 -5.08432 0 0.703737 0 0)
(84.2881 -5.10644 -1.8771e-18 0.725303 1.92523e-19 5.74367e-37)
(80.8465 -5.11568 0 0.74794 0 0)
(77.4856 -5.11041 -2.12218e-18 0.77051 1.93654e-19 6.07488e-37)
(74.2235 -5.08883 0 0.793454 0 0)
(71.0744 -5.0542 2.32485e-18 0.819431 -1.938e-19 6.36444e-37)
(68.0558 -5.0063 0 0.844485 0 0)
(65.1823 -4.93985 0 0.866807 0 0)
(62.4535 -4.85475 0 0.889527 0 0)
(59.8741 -4.75281 -2.58561e-18 0.914548 1.86166e-19 6.79739e-37)
(57.4497 -4.63652 0 0.939167 0 0)
(55.189 -4.50406 2.64632e-18 0.963384 -1.79918e-19 6.9446e-37)
(53.094 -4.35502 0 0.987081 0 0)
(51.1535 -4.18375 -2.65838e-18 1.01062 1.73637e-19 7.03251e-37)
(49.3626 -3.99607 -2.64939e-18 1.0319 1.70434e-19 7.06735e-37)
(47.7091 -3.79566 -2.63069e-18 1.05309 1.66284e-19 7.09397e-37)
(46.1882 -3.58613 0 1.07547 0 0)
(44.7732 -3.36666 0 1.0986 0 0)
(43.4756 -3.13834 0 1.11818 0 0)
(42.2776 -2.90124 0 1.138 0 0)
(41.174 -2.66216 0 1.15777 0 0)
(40.1456 -2.42244 0 1.17683 0 0)
(39.1924 -2.18035 0 1.19194 0 0)
(38.2642 -1.93706 0 1.20792 0 0)
(37.3644 -1.70036 2.02604e-18 1.22302 -1.31509e-19 7.07519e-37)
(36.4538 -1.47207 1.91183e-18 1.2403 -1.24224e-19 7.06777e-37)
(35.5611 -1.25311 0 1.25176 0 0)
(34.6467 -1.04259 0 1.26481 0 0)
(33.7256 -0.855845 0 1.27883 0 0)
(32.7414 -0.679477 1.35528e-18 1.29189 -1.04862e-19 6.90849e-37)
(31.7978 -0.529673 0 1.29926 0 0)
(30.7879 -0.387652 0 1.30908 0 0)
(29.832 -0.285277 0 1.31925 0 0)
(28.9081 -0.202255 0 1.33234 0 0)
(28.0822 -0.152093 -4.40757e-19 1.34071 7.56401e-20 6.66057e-37)
(27.3872 -0.125787 0 1.34986 0 0)
(26.8513 -0.134256 0 1.36329 0 0)
(26.5588 -0.176223 -2.22805e-19 1.37089 -6.50923e-20 6.42351e-37)
(26.5077 -0.244796 4.50351e-19 1.38395 6.10137e-20 6.2992e-37)
(26.7546 -0.354481 0 1.40091 0 0)
(27.3525 -0.510802 9.12959e-19 1.41815 6.01046e-20 6.05289e-37)
(28.3662 -0.70724 0 1.43731 0 0)
(29.8579 -0.959198 -1.35397e-18 1.45499 -6.46465e-20 5.75637e-37)
(31.8488 -1.24499 0 1.47773 0 0)
(34.4128 -1.58067 0 1.50474 0 0)
(37.4487 -1.95853 0 1.53746 0 0)
(41.0669 -2.38699 0 1.57173 0 0)
(45.1198 -2.84156 0 1.60977 0 0)
(49.614 -3.34283 4.89673e-18 1.65196 2.04727e-19 1.97176e-36)
(54.4825 -3.88794 5.15144e-18 1.69806 2.30655e-19 1.93689e-36)
(59.7497 -4.46914 0 1.74611 0 0)
(65.207 -5.07003 0 1.80207 0 0)
(70.829 -5.69749 0 1.85725 0 0)
(76.4514 -6.30922 -5.69213e-18 1.91817 -3.52216e-19 1.91699e-36)
(81.8601 -6.92403 0 1.98929 0 0)
(87.0066 -7.54476 0 2.0615 0 0)
(91.839 -8.15922 0 2.13798 0 0)
(96.2801 -8.75224 -5.33184e-18 2.21627 -5.33388e-19 2.07146e-36)
(100.312 -9.31914 5.09776e-18 2.29971 5.82051e-19 2.13288e-36)
(103.724 -9.84158 0 2.3905 0 0)
(106.633 -10.3514 0 2.48332 0 0)
(109.005 -10.8053 4.07963e-18 2.57789 7.35154e-19 2.36512e-36)
(110.846 -11.225 3.65052e-18 2.67126 7.84025e-19 2.45039e-36)
(112.002 -11.5697 0 2.77158 0 0)
(112.577 -11.8854 0 2.87153 0 0)
(112.461 -12.1281 -2.0529e-18 2.97552 -9.45589e-19 2.71848e-36)
(111.787 -12.3529 1.42295e-18 3.07054 9.89169e-19 2.79724e-36)
(110.597 -12.5072 0 3.16736 0 0)
(108.692 -12.6074 0 3.26803 0 0)
(106.193 -12.6413 -5.22049e-19 3.35894 1.11707e-18 3.06789e-36)
(103.061 -12.621 0 3.44945 0 0)
(99.5805 -12.5634 0 3.53306 0 0)
(95.5918 -12.4145 -2.54939e-18 3.60556 1.20606e-18 3.30037e-36)
(91.2914 -12.1941 0 3.67756 0 0)
(86.6681 -11.8626 -3.83316e-18 3.73909 1.25704e-18 3.4433e-36)
(81.7799 -11.446 0 3.79484 0 0)
(76.6718 -10.9113 0 3.83399 0 0)
(71.7276 -10.2782 0 3.8581 0 0)
(66.8401 -9.48021 5.87282e-18 3.87688 -1.27771e-18 3.68164e-36)
(62.1743 -8.5626 0 3.88048 0 0)
(57.9466 -7.4928 0 3.86835 0 0)
(54.4811 -6.30318 0 3.84051 0 0)
(51.6144 -4.92485 0 3.79856 0 0)
(49.5184 -3.46548 0 3.7479 0 0)
(48.7929 -1.91103 0 3.67598 0 0)
(49.6262 -0.286854 6.0213e-18 3.58629 -1.1043e-18 3.72785e-36)
(51.6811 1.42677 5.60491e-18 3.48805 -1.05008e-18 3.71019e-36)
(55.3843 3.11931 0 3.37654 0 0)
(60.6426 4.74644 0 3.25866 0 0)
(67.4522 6.3271 0 3.12921 0 0)
(75.3916 7.801 -3.05193e-18 2.99953 7.95345e-19 3.38444e-36)
(84.5248 9.10279 0 2.87133 0 0)
(94.0909 10.2912 2.94764e-18 2.73628 -1.35085e-18 1.23653e-35)
(103.988 11.2487 -1.30939e-18 2.60555 1.21803e-18 1.16642e-35)
(113.636 12.0395 3.18966e-19 2.47426 1.10546e-18 1.10218e-35)
(123.3 12.6905 -2.022e-18 2.34948 -1.01463e-18 1.03366e-35)
(131.43 13.2317 3.67511e-18 2.23047 9.23246e-19 9.76208e-36)
(139.312 13.7091 -5.27935e-18 2.1232 -9.03935e-19 8.99727e-36)
(143.065 14.4019 0 2.06724 0 0)
(0.0183136 0.174243 0 6.10046 0 0)
(0.202759 0.387845 0 6.03882 0 0)
(0.629597 0.609686 1.31906e-19 5.86571 1.75384e-19 6.76464e-37)
(1.32725 0.854204 0 5.74448 0 0)
(2.26947 1.1335 -1.92274e-19 5.68445 -3.5383e-19 9.19897e-37)
(3.44578 1.4382 -1.83465e-19 5.65721 -4.42224e-19 9.73404e-37)
(4.83518 1.76265 -8.01633e-20 5.64182 -2.51974e-19 2.49224e-37)
(6.42342 2.10297 -6.81613e-20 5.6238 -2.7093e-19 2.61456e-37)
(8.20258 2.452 0 5.59545 0 0)
(10.1707 2.8052 -4.10092e-20 5.55285 -2.69667e-19 2.59545e-37)
(12.3289 3.15377 0 5.50101 0 0)
(14.6755 3.49528 0 5.44144 0 0)
(17.202 3.82458 9.23213e-20 5.37317 4.24332e-19 9.51511e-37)
(19.9093 4.14123 6.83881e-20 5.30126 1.87089e-19 2.34224e-37)
(22.7864 4.43565 -1.83376e-19 5.22598 -3.26475e-19 8.93984e-37)
(25.8275 4.70783 -2.49823e-19 5.14766 -2.81315e-19 8.66235e-37)
(29.021 4.95917 -1.70378e-19 5.06319 -1.18429e-19 2.12824e-37)
(32.3608 5.19106 0 4.97238 0 0)
(35.8351 5.40191 0 4.87662 0 0)
(39.4351 5.59623 0 4.77385 0 0)
(43.1376 5.77325 -3.86465e-19 4.66882 -3.65176e-20 1.80473e-37)
(46.9335 5.93036 0 4.5642 0 0)
(50.7998 6.05906 1.60922e-18 4.45755 -1.67915e-20 1.55254e-36)
(54.7243 6.16291 0 4.35447 0 0)
(58.6903 6.24349 0 4.24921 0 0)
(62.6805 6.30088 7.75208e-19 4.14501 -5.78547e-20 1.56595e-37)
(66.6676 6.33176 0 4.03909 0 0)
(70.6327 6.34545 -9.33582e-19 3.93856 8.19587e-20 1.46101e-37)
(74.5422 6.33568 -1.99499e-18 3.83865 1.81868e-19 5.57523e-37)
(78.3861 6.2973 1.07785e-18 3.73587 -9.89016e-20 1.36733e-37)
(82.1607 6.22741 0 3.62796 0 0)
(85.8657 6.12958 0 3.52247 0 0)
(89.4879 6.00654 0 3.4189 0 0)
(93.0312 5.85946 -2.57853e-18 3.31065 2.22983e-19 4.71848e-37)
(96.4874 5.68301 -2.65683e-18 3.20329 2.20459e-19 4.55685e-37)
(99.8698 5.47732 -1.37458e-18 3.10246 1.07641e-19 1.10883e-37)
(103.186 5.24036 0 3.01041 0 0)
(106.43 4.96729 2.83977e-18 2.92215 -2.03004e-19 4.13229e-37)
(109.61 4.65627 0 2.83686 0 0)
(112.718 4.31662 -2.87611e-18 2.75524 1.88296e-19 3.81815e-37)
(115.764 3.94927 0 2.67483 0 0)
(118.743 3.5622 0 2.60256 0 0)
(121.66 3.15904 2.82847e-18 2.5315 -1.5379e-19 3.31807e-37)
(124.502 2.73686 0 2.46624 0 0)
(127.25 2.28871 8.16183e-18 2.40851 -3.92715e-19 2.68585e-36)
(129.903 1.81024 -2.68926e-18 2.36342 1.19146e-19 2.83821e-37)
(132.465 1.30656 0 2.33619 0 0)
(134.952 0.778189 -2.5492e-18 2.32009 9.1171e-20 2.51835e-37)
(137.348 0.217575 -2.46844e-18 2.31383 7.68865e-20 2.36218e-37)
(139.648 -0.368611 0 2.31626 0 0)
(141.831 -0.964753 0 2.3289 0 0)
(143.88 -1.5588 0 2.34254 0 0)
(145.782 -2.14445 0 2.35616 0 0)
(147.497 -2.72348 0 2.38026 0 0)
(149.013 -3.30289 1.88353e-18 2.41315 1.45805e-20 1.72296e-37)
(150.308 -3.89137 3.45144e-18 2.4562 7.12065e-20 6.56701e-37)
(151.364 -4.48304 -1.6446e-18 2.50684 -5.58697e-20 1.60307e-37)
(152.192 -5.0927 0 2.56257 0 0)
(152.764 -5.70327 2.68805e-18 2.62556 1.89915e-19 6.0222e-37)
(153.052 -6.29275 -1.17068e-18 2.69372 -1.13067e-19 1.47049e-37)
(153.084 -6.87693 0 2.77067 0 0)
(152.807 -7.45507 -9.79117e-19 2.86077 -1.48394e-19 1.49659e-37)
(152.235 -8.01154 0 2.9542 0 0)
(151.36 -8.55882 0 3.05556 0 0)
(150.18 -9.08803 -1.04954e-18 3.1617 -3.96569e-19 6.2604e-37)
(148.681 -9.58857 4.23519e-19 3.27251 2.15106e-19 1.63868e-37)
(146.902 -10.0816 -4.90752e-19 3.39276 -4.6203e-19 6.68895e-37)
(144.836 -10.5534 2.13393e-19 3.51717 4.89008e-19 6.92688e-37)
(142.511 -11.0011 1.0664e-20 3.64271 2.54439e-19 1.82817e-37)