/*--------------------------------*- C++ -*----------------------------------*\
| =========                 |                                                 |
| \\      /  F ield         | OpenFOAM: The Open Source CFD Toolbox           |
|  \\    /   O peration     | Version:  dev                                   |
|   \\  /    A nd           | Web:      http://www.openfoam.org               |
|    \\/     M anipulation  |                                                 |
\*---------------------------------------------------------------------------*/
FoamFile
{
    version     2.0;
    format      ascii;
    class       volScalarField;
    object      k;
    location    "9.164";
}
// * * * * * * * * * * * * * * * * * * * * * * * * * * * * * * * * * * * * * //

dimensions      [0 2 -2 0 0 0 0];

internalField   nonuniform List<scalar> 
12225
(
7.63113
9.00913
5.84806
6.17147
5.61864
6.72291
7.9794
8.58764
11.6292
11.0753
15.8266
13.9441
20.3308
17.7481
25.3618
22.7411
28.124
39.6218
1.52085
6.28222
5.39452
6.83102
4.93198
6.79536
5.04153
7.08881
5.80242
7.43352
6.90504
7.89161
8.63006
8.74708
11.6858
12.4886
31.979
40.454
0.152059
1.77361
2.03975
3.19663
2.87781
3.60293
3.19195
3.58761
3.42858
3.27543
3.44882
2.87264
3.64063
2.75726
4.73704
4.88245
20.3651
38.2412
0.0159829
0.274262
0.574091
0.864808
1.26158
1.32161
1.68962
1.52264
2.04642
1.46618
2.03986
1.29186
1.91155
1.18918
2.16888
1.993
10.8899
25.354
0.00666002
0.0742874
0.198197
0.317313
0.521169
0.573721
0.764594
0.733906
0.9316
0.74236
1.00236
0.667741
1.02294
0.639639
1.12625
0.97093
4.40365
9.26175
0.00965666
0.0391808
0.0909746
0.126564
0.212752
0.22433
0.32917
0.303491
0.418498
0.336134
0.489626
0.331329
0.539151
0.361837
0.638692
0.706491
1.69156
2.41288
0.0173325
0.0305367
0.0563819
0.0673039
0.101776
0.103974
0.151793
0.139237
0.195053
0.161993
0.240771
0.17744
0.279625
0.208848
0.339905
0.353287
0.785267
0.76793
0.0228264
0.0386272
0.0519669
0.0604161
0.0741195
0.0781032
0.095291
0.0928923
0.113844
0.103759
0.134679
0.114225
0.155822
0.130402
0.188117
0.189538
0.364008
0.333967
0.0334104
0.0640782
0.0607786
0.068207
0.0730973
0.0779004
0.0839183
0.0863591
0.0924076
0.0917714
0.100084
0.0963822
0.108419
0.10363
0.123238
0.127644
0.193313
0.181563
0.0568842
0.104928
0.0915497
0.0987336
0.0881005
0.0922905
0.0886848
0.090968
0.0905589
0.0913607
0.0925362
0.0918836
0.0959888
0.0954691
0.103455
0.102658
0.131164
0.123591
0.116553
0.179675
0.157332
0.165133
0.140361
0.140299
0.116785
0.115175
0.101892
0.100341
0.0960679
0.0941486
0.0954322
0.0930048
0.0975179
0.0948956
0.105076
0.103912
0.262871
0.322526
0.284178
0.278903
0.238966
0.231207
0.191952
0.180303
0.14557
0.134475
0.11512
0.10889
0.102682
0.0982061
0.0990116
0.0957287
0.0982139
0.0980179
0.492379
0.550283
0.483305
0.452426
0.380733
0.352759
0.294295
0.268683
0.223449
0.202186
0.170129
0.152119
0.133375
0.121694
0.112735
0.106782
0.102654
0.100008
0.825785
0.893788
0.799326
0.719208
0.602747
0.530944
0.442635
0.385068
0.320908
0.280249
0.241533
0.217523
0.19466
0.177392
0.159739
0.14621
0.13135
0.119686
1.35502
1.42023
1.294
1.13461
0.976812
0.840245
0.707183
0.59624
0.498091
0.422215
0.359132
0.311122
0.270602
0.23909
0.211058
0.189624
0.169495
0.153473
2.11087
2.08957
1.8141
1.49918
1.23838
1.02395
0.84426
0.698899
0.580321
0.487124
0.411961
0.353171
0.304665
0.266765
0.234093
0.208664
0.18549
0.16771
2.39866
2.32512
1.97883
1.61224
1.32044
1.08359
0.889686
0.733418
0.607422
0.508123
0.428721
0.366528
0.315537
0.27551
0.241175
0.214333
0.189986
0.171044
2.38777
2.3049
1.96327
1.60229
1.31446
1.07986
0.887151
0.731238
0.605656
0.506837
0.428076
0.36639
0.315745
0.275618
0.241057
0.213759
0.188928
0.169432
2.02634
1.97631
1.73838
1.4499
1.21065
1.00838
0.836391
0.693269
0.576305
0.483553
0.409613
0.351776
0.304218
0.266435
0.233468
0.207151
0.182877
0.163699
1.27821
1.27038
1.18286
1.04616
0.921337
0.802014
0.686304
0.580182
0.488231
0.412507
0.351476
0.304124
0.265282
0.234892
0.207586
0.185793
0.164489
0.147486
0.761804
0.75872
0.696361
0.604058
0.528719
0.469978
0.414377
0.36044
0.310342
0.263823
0.225739
0.198189
0.176683
0.161201
0.145931
0.134118
0.120785
0.110698
0.438998
0.441675
0.421651
0.382344
0.350308
0.315965
0.273697
0.232901
0.195819
0.170902
0.153681
0.141938
0.131897
0.124493
0.116358
0.110505
0.1032
0.0980711
0.233935
0.241599
0.235492
0.219269
0.19967
0.179287
0.165886
0.15595
0.147405
0.140976
0.135223
0.129512
0.123107
0.118001
0.11183
0.10754
0.101971
0.0979472
0.11162
0.12191
0.116737
0.115788
0.120977
0.129715
0.136435
0.138698
0.139507
0.13942
0.138091
0.13571
0.131858
0.128368
0.123875
0.12062
0.116608
0.113345
0.0451106
0.0518698
0.0639721
0.0876258
0.110251
0.129763
0.146157
0.160558
0.172926
0.180985
0.185991
0.186715
0.185676
0.183802
0.181027
0.1789
0.176831
0.174525
0.0131602
0.0302055
0.0617604
0.122081
0.181744
0.228203
0.269106
0.306527
0.338566
0.358996
0.36827
0.368086
0.365017
0.360251
0.354719
0.35104
0.34695
0.342439
0.00657654
0.0667621
0.216424
0.410631
0.568223
0.67461
0.753289
0.813572
0.855843
0.873515
0.868602
0.85434
0.834844
0.818084
0.798105
0.785456
0.768502
0.753694
0.0518082
0.522362
1.21683
1.63226
1.88041
2.01515
2.09277
2.12416
2.1141
2.08338
2.01584
1.93473
1.86615
1.8135
1.75305
1.70885
1.648
1.6003
0.814212
3.68194
4.9397
5.02862
4.84063
4.55853
4.31237
4.08861
3.89732
3.74933
3.62264
3.50364
3.38459
3.26601
3.1553
3.03878
2.9358
2.81784
6.74463
9.88804
8.63986
6.81093
5.69088
5.25582
5.14625
5.17312
5.26191
5.39079
5.5104
5.60933
5.66916
5.70044
5.70668
5.67844
5.62191
5.44164
0.0636059
0.0832513
0.121231
0.177385
0.252198
0.325078
0.393783
0.434898
0.472833
0.521786
0.58351
0.652684
0.726752
0.801058
0.892326
1.0093
1.11945
1.25499
1.37897
1.49835
1.64147
1.72817
1.82381
1.88381
1.87983
1.8715
1.83762
1.75293
1.71873
1.71699
1.73383
1.77046
1.82064
1.94176
2.11669
2.24655
2.44526
2.73445
2.97346
2.98522
2.92685
2.91573
3.05563
3.40126
3.69815
4.03998
4.63311
5.56485
6.33284
6.9271
7.46102
7.93788
8.34272
8.69072
8.95572
9.12767
9.2341
9.29187
9.27595
9.20812
9.09081
8.92843
8.72255
8.48256
8.20696
7.91063
7.59747
7.25414
6.90032
6.54643
6.19792
5.83981
5.48114
5.1532
4.83428
4.51751
4.19917
3.90725
3.66626
3.44159
3.18439
3.01902
2.82308
2.68099
2.54902
2.4422
2.33639
2.25047
2.17885
2.1081
2.04479
1.98634
1.93514
1.89641
1.86914
1.85542
1.85307
1.85611
1.85071
1.83431
1.81452
1.80182
1.79247
1.77207
1.74167
1.71151
1.67291
1.62522
1.56387
1.49428
1.41678
1.34709
1.2863
1.23431
1.2
1.17903
1.18899
1.23425
1.34675
1.58813
1.85338
1.95481
1.95494
2.01992
2.22876
2.40699
2.42517
2.44072
2.60874
2.98632
3.49661
4.44529
5.45365
6.14552
6.993
7.48497
7.57532
7.75819
7.93442
7.29515
7.30611
7.40091
7.71498
8.24685
8.90896
9.71913
10.2792
10.8884
11.3459
11.5026
11.6542
11.711
11.6264
11.6022
11.5992
11.5486
11.5179
11.273
10.7425
10.4372
10.3098
10.4348
10.4169
9.72738
9.26257
9.06775
7.7866
6.34854
5.76635
5.72807
5.90638
7.5708
10.0849
10.0644
7.48859
6.42924
7.01949
8.80425
14.0116
18.6217
0.395533
0.147835
0.173004
0.285877
0.436124
0.515671
0.506241
0.470978
0.434257
0.395032
0.343366
0.302243
0.278969
0.260001
0.2518
0.252267
0.258396
0.279784
0.299958
0.344903
0.390815
0.44986
0.527299
0.590183
0.694458
0.758394
0.798653
0.806484
0.790976
0.722044
0.689729
0.632881
0.525875
0.505448
0.538161
0.608382
0.647562
0.743135
0.922173
1.03609
1.12252
1.27528
1.92993
3.1391
3.57522
3.75197
4.13697
4.43903
4.39885
4.22803
4.04414
3.79101
3.53499
3.27229
3.01034
2.74371
2.50816
2.29295
2.08319
1.89473
1.73199
1.58776
1.44398
1.32291
1.20396
1.12808
1.05245
0.990783
0.942943
0.901753
0.864592
0.818754
0.787336
0.766869
0.731373
0.692205
0.668654
0.657061
0.652348
0.637374
0.621326
0.623296
0.616151
0.623695
0.637432
0.658197
0.667216
0.685573
0.709114
0.723995
0.735876
0.740434
0.743921
0.746325
0.751406
0.763714
0.790399
0.836486
0.887161
0.921606
0.934496
0.938209
0.95668
0.963573
0.951566
0.943534
0.942553
0.94424
0.934501
0.913215
0.878866
0.851925
0.840799
0.84149
0.852826
0.860321
0.866164
0.873969
0.883116
0.918761
1.05873
1.22009
1.2284
1.20924
1.2625
1.52984
1.81473
1.96823
2.23199
2.50523
3.0859
3.74276
3.94908
3.97003
4.04625
3.86691
3.50672
3.42577
3.29692
2.65726
2.98177
2.95337
2.95165
3.65471
3.87551
4.55492
5.14143
5.69305
6.64467
7.15984
7.65819
7.98195
7.88109
7.79996
7.70869
7.51069
7.55082
7.42681
6.81815
6.53277
6.61912
7.27228
7.96221
7.27157
6.90042
7.16764
6.07159
4.98428
4.70469
5.19637
6.55648
7.75241
7.95092
5.81771
4.7919
4.49267
4.62649
4.88167
5.84614
8.81714
1.17417
0.332703
0.334113
0.567291
0.690171
0.652761
0.543532
0.430752
0.326916
0.248153
0.203721
0.178945
0.165464
0.157117
0.151365
0.147713
0.146365
0.14629
0.146903
0.149617
0.154943
0.16664
0.184249
0.203229
0.251358
0.304276
0.341542
0.397683
0.413024
0.404817
0.366572
0.332372
0.312693
0.31492
0.381584
0.435211
0.490086
0.669837
0.888901
1.53838
2.4297
2.56634
2.64438
2.8744
2.73241
2.44479
2.09371
1.82245
1.59443
1.35114
1.11314
0.933867
0.773242
0.639424
0.537032
0.455656
0.399995
0.356105
0.319772
0.291676
0.271454
0.254857
0.242619
0.232237
0.225136
0.222092
0.220086
0.218881
0.218
0.216429
0.213586
0.210447
0.208726
0.206674
0.2021
0.198642
0.19769
0.200754
0.205931
0.20722
0.20907
0.216995
0.219739
0.227085
0.235695
0.247497
0.255235
0.266234
0.281462
0.29211
0.303756
0.309955
0.317479
0.321487
0.324399
0.328785
0.336541
0.35647
0.394094
0.434896
0.465876
0.481718
0.513227
0.54565
0.557674
0.571276
0.603102
0.647562
0.681621
0.693825
0.686626
0.664175
0.618942
0.59129
0.581954
0.575173
0.578259
0.574071
0.561903
0.566595
0.615722
0.691597
0.711773
0.753413
0.926548
1.3941
1.68432
1.79977
1.85735
1.96793
2.37833
2.52283
2.23951
2.12114
2.08296
1.79869
1.62872
1.59285
1.48556
1.28976
1.41808
1.41969
1.43225
1.73845
1.80153
2.09293
2.40097
2.64385
3.27364
3.69413
4.0314
4.79922
4.91328
4.93014
5.00926
4.88906
4.93475
5.01211
4.80052
4.48609
4.31328
4.53934
5.23142
4.90336
4.6827
5.06305
4.48205
3.97627
4.29851
5.49715
6.52416
6.65143
4.96429
3.89922
3.5344
3.34748
3.42632
3.27453
3.4527
4.39193
2.5751
0.755979
0.82004
0.97051
0.881756
0.65477
0.418417
0.261906
0.194782
0.166498
0.154882
0.148727
0.145008
0.142606
0.140398
0.138424
0.136873
0.135731
0.133078
0.127742
0.123197
0.121122
0.122577
0.127029
0.135914
0.157936
0.198411
0.218175
0.256829
0.267237
0.259014
0.256264
0.271554
0.399062
0.598719
0.696569
1.01773
1.75494
2.06026
2.22655
2.33326
2.19912
1.89521
1.54099
1.2937
1.05999
0.827023
0.651338
0.522903
0.414303
0.327507
0.26957
0.23072
0.20372
0.186794
0.17644
0.171173
0.169938
0.169494
0.169918
0.171295
0.172546
0.174338
0.175798
0.17639
0.176809
0.177176
0.177826
0.178492
0.178847
0.178043
0.176368
0.173591
0.168251
0.163895
0.15876
0.152165
0.149249
0.148068
0.146834
0.146842
0.150523
0.152951
0.158586
0.161676
0.167241
0.169877
0.173978
0.180878
0.185617
0.191313
0.194679
0.199013
0.203988
0.208894
0.212974
0.214689
0.220173
0.237248
0.265793
0.28829
0.301478
0.325915
0.355067
0.370491
0.383877
0.402716
0.424066
0.456713
0.496081
0.508972
0.506843
0.494556
0.452094
0.428818
0.420776
0.423391
0.424613
0.4231
0.431623
0.46514
0.502167
0.535165
0.632034
0.939843
1.33285
1.50105
1.5856
1.54651
1.58289
1.81057
1.81075
1.4752
1.36449
1.34477
1.24723
1.15087
1.13011
1.07618
1.00198
1.06
1.06142
1.06865
1.18684
1.21181
1.33075
1.45036
1.57839
1.89647
2.14262
2.32716
2.90226
3.21785
3.28516
3.47225
3.47935
3.54347
3.81193
3.98877
3.8495
3.30894
3.40649
3.84071
3.812
3.78376
4.06492
3.82803
3.62258
4.29783
5.58508
6.09969
4.65
3.63068
3.24645
3.12175
3.04012
3.01164
2.6549
2.66062
2.94154
4.3243
1.6181
1.49584
1.21719
0.807542
0.426801
0.239769
0.174501
0.156551
0.151548
0.15057
0.150376
0.15146
0.152923
0.152627
0.150868
0.14904
0.147488
0.144342
0.133754
0.127044
0.123009
0.11286
0.111136
0.112456
0.116965
0.129867
0.175788
0.196952
0.212486
0.24229
0.297081
0.409897
0.932856
1.53356
1.67248
1.74137
1.89486
1.92212
1.79527
1.49532
1.20449
0.927621
0.692529
0.549885
0.428547
0.329952
0.256129
0.21346
0.184189
0.164627
0.153823
0.149263
0.149161
0.15034
0.152652
0.155648
0.159102
0.162217
0.165334
0.16785
0.169941
0.172201
0.17477
0.176191
0.176961
0.177107
0.176971
0.176573
0.176491
0.176445
0.176159
0.173949
0.167361
0.163209
0.159379
0.150507
0.142448
0.138871
0.134813
0.13194
0.131184
0.131578
0.134461
0.136474
0.140806
0.142634
0.144183
0.147386
0.150574
0.153078
0.154531
0.155948
0.15843
0.165768
0.170261
0.171514
0.174425
0.182346
0.200362
0.213674
0.221559
0.240284
0.263338
0.276701
0.286912
0.296309
0.305032
0.31862
0.351446
0.384874
0.394887
0.397799
0.380446
0.358545
0.353612
0.357591
0.356358
0.355764
0.367838
0.400582
0.425634
0.469959
0.605656
0.981565
1.24412
1.36625
1.38163
1.30959
1.31073
1.42855
1.44982
1.24882
1.10882
1.07267
1.04245
1.00304
0.964371
0.931639
0.881759
0.937889
0.94464
0.942501
0.990323
1.0299
1.10337
1.14705
1.25019
1.38038
1.4983
1.63205
2.00719
2.33941
2.42222
2.57091
2.62927
2.68152
2.91369
3.60675
3.66022
2.99597
2.94711
3.11733
3.29328
3.35812
3.5517
3.54781
3.54185
4.37142
5.33925
5.10213
3.58634
3.15089
3.03828
3.00103
2.89445
2.72423
2.31311
2.27489
2.37044
6.29104
2.82972
1.86779
1.14227
0.523487
0.251367
0.169155
0.152324
0.151357
0.153738
0.160534
0.166997
0.170966
0.171162
0.169816
0.16542
0.161613
0.159479
0.155209
0.14711
0.144366
0.141679
0.127308
0.111348
0.107669
0.110937
0.126029
0.163106
0.198207
0.240421
0.317202
0.687344
1.22938
1.51029
1.63605
1.62987
1.60488
1.48682
1.26749
0.96156
0.731465
0.568504
0.437664
0.316753
0.249352
0.20492
0.17519
0.15505
0.145433
0.14142
0.141398
0.142739
0.145017
0.149048
0.153633
0.159096
0.164454
0.169362
0.173651
0.177669
0.180593
0.182117
0.183143
0.183576
0.183843
0.184352
0.184663
0.184842
0.184149
0.182233
0.181438
0.181123
0.180544
0.177786
0.173802
0.168056
0.160784
0.148549
0.141629
0.134963
0.129641
0.126838
0.125693
0.124835
0.1245
0.126855
0.13063
0.131732
0.132459
0.134752
0.136213
0.136855
0.137235
0.136422
0.138955
0.146643
0.150732
0.153142
0.158698
0.170901
0.178554
0.182233
0.193831
0.215172
0.227311
0.235582
0.239969
0.239616
0.241485
0.256744
0.292516
0.319207
0.32744
0.322365
0.316115
0.31964
0.327757
0.328134
0.326039
0.333382
0.362194
0.391612
0.449591
0.627018
1.01193
1.20005
1.20582
1.17178
1.16505
1.17187
1.20586
1.19572
1.11812
1.09583
0.96348
0.907704
0.873657
0.862818
0.858656
0.782273
0.834348
0.862478
0.865938
0.896008
0.958879
1.03517
1.04661
1.13227
1.19385
1.26572
1.45208
1.65437
1.88069
1.9817
2.05599
2.17619
2.1747
2.28685
3.01737
3.53223
3.06171
2.82782
2.86893
3.05864
3.11129
3.21367
3.31565
3.47383
4.42097
4.74561
4.04
3.19945
3.0262
3.01396
2.9775
2.7872
2.41035
2.114
2.07732
2.14292
8.38355
3.84202
1.94643
0.817917
0.310966
0.173374
0.149529
0.150108
0.158882
0.172839
0.179071
0.180562
0.179937
0.177663
0.173887
0.170023
0.165056
0.161507
0.156581
0.153471
0.153387
0.15072
0.131832
0.114304
0.110441
0.113388
0.132323
0.179328
0.242558
0.439203
0.860557
1.20053
1.39415
1.46737
1.41338
1.27461
1.05069
0.826179
0.660844
0.500487
0.359846
0.279174
0.225702
0.179725
0.157115
0.144693
0.13785
0.135817
0.136503
0.138174
0.142402
0.149179
0.157437
0.164861
0.172082
0.17777
0.181905
0.185495
0.188766
0.191565
0.194064
0.19521
0.195797
0.195685
0.194681
0.194355
0.194074
0.194088
0.194769
0.195658
0.195479
0.193866
0.193163
0.191745
0.188022
0.186689
0.184565
0.177076
0.162568
0.148326
0.136549
0.129209
0.125747
0.123057
0.121057
0.120592
0.123895
0.126191
0.125645
0.125687
0.126888
0.127225
0.127019
0.125291
0.124413
0.125815
0.128287
0.130907
0.135849
0.146038
0.152332
0.153701
0.158758
0.172991
0.190052
0.19837
0.201235
0.20146
0.202223
0.207817
0.22973
0.263245
0.271409
0.271895
0.271054
0.27574
0.284332
0.289016
0.286228
0.291926
0.318105
0.360293
0.440176
0.672172
1.02804
1.14827
1.08501
1.04204
1.07098
1.06183
1.03622
1.02836
0.967306
0.985845
0.871799
0.810381
0.803434
0.762039
0.776185
0.729235
0.747873
0.826622
0.838753
0.85403
0.907049
1.01595
1.00362
1.06981
1.13694
1.23077
1.39514
1.49673
1.66518
1.73965
1.77128
1.9055
1.91368
1.96884
2.38959
3.20394
3.06633
2.80738
2.85006
2.95371
2.95368
3.01484
3.09196
3.35686
4.41217
4.57484
3.5392
3.15916
3.02697
3.00697
3.0194
2.76
2.1951
1.94591
1.95368
2.05363
10.4666
4.48412
1.71021
0.524298
0.203241
0.149852
0.149732
0.166634
0.179971
0.186508
0.186919
0.185697
0.181496
0.177498
0.174812
0.171651
0.168406
0.164458
0.1581
0.15281
0.152402
0.152955
0.143754
0.124378
0.12135
0.128457
0.163558
0.249112
0.56208
0.882681
1.09304
1.23751
1.26869
1.11848
0.91439
0.756739
0.600023
0.448213
0.345557
0.271241
0.201786
0.169503
0.151569
0.137851
0.131987
0.131227
0.131879
0.134395
0.138984
0.147618
0.158369
0.166869
0.172093
0.176589
0.179161
0.180536
0.181821
0.182992
0.184093
0.185218
0.186756
0.188556
0.189282
0.18901
0.186606
0.185589
0.185432
0.187113
0.192395
0.197397
0.200306
0.20243
0.202315
0.200306
0.194072
0.193441
0.19349
0.194328
0.191385
0.183983
0.166565
0.146536
0.13484
0.125836
0.121396
0.116914
0.115599
0.119603
0.121573
0.121351
0.121623
0.122664
0.121821
0.11871
0.116946
0.115882
0.113467
0.114228
0.117563
0.12456
0.1291
0.12963
0.130613
0.138954
0.153848
0.168654
0.177218
0.178612
0.182079
0.185275
0.191301
0.207228
0.227523
0.237578
0.238304
0.236776
0.239534
0.240809
0.236772
0.240408
0.262251
0.316873
0.425551
0.703868
1.00672
1.07056
1.01576
0.959998
0.962005
0.913643
0.881918
0.902981
0.871854
0.840541
0.766528
0.750797
0.743745
0.677067
0.653343
0.646573
0.679108
0.781315
0.833345
0.83601
0.854879
0.953412
0.975768
1.0426
1.12424
1.25342
1.32421
1.37689
1.50779
1.57388
1.59499
1.72155
1.83177
1.8487
2.14734
2.87781
2.9021
2.64399
2.83951
2.83959
2.86333
2.90385
2.9238
3.15416
4.10712
4.46917
3.34866
3.17771
3.16306
3.08468
3.05389
2.73894
2.11474
1.78591
1.79777
1.95684
12.4272
4.82005
1.3686
0.356209
0.165696
0.150499
0.166069
0.18138
0.188477
0.192614
0.19207
0.188562
0.18186
0.177036
0.174275
0.17148
0.169396
0.164802
0.157183
0.152129
0.153821
0.153713
0.1436
0.135016
0.139112
0.165472
0.262584
0.575045
0.836433
0.985291
1.08084
1.05071
0.87284
0.702779
0.556474
0.43792
0.340216
0.255607
0.200366
0.169043
0.143597
0.133163
0.127815
0.126247
0.126879
0.1296
0.133369
0.142158
0.155041
0.163564
0.167927
0.170088
0.172287
0.172993
0.17095
0.165521
0.1584
0.15212
0.148929
0.147096
0.147358
0.151647
0.159013
0.162417
0.164507
0.164533
0.163467
0.161545
0.162614
0.174057
0.18663
0.193379
0.195843
0.195168
0.188401
0.187312
0.189835
0.19548
0.196117
0.194247
0.188135
0.171965
0.157913
0.139851
0.126914
0.117606
0.108575
0.104851
0.108431
0.111197
0.113471
0.116589
0.117897
0.115392
0.11305
0.111392
0.107215
0.104944
0.10661
0.11037
0.112046
0.112794
0.112187
0.116198
0.12876
0.13908
0.150767
0.16048
0.162707
0.166681
0.171199
0.17458
0.183518
0.1945
0.197051
0.194705
0.198643
0.210362
0.210276
0.212519
0.230693
0.280929
0.400127
0.717613
0.961465
0.994078
0.95803
0.929533
0.876611
0.830032
0.803375
0.796295
0.77709
0.755735
0.695858
0.71229
0.694831
0.60629
0.582337
0.582449
0.644054
0.705789
0.808067
0.817114
0.811856
0.92404
0.979878
1.01235
1.14216
1.22955
1.27493
1.29964
1.40786
1.48155
1.50838
1.58919
1.77752
1.69645
2.07606
2.54291
2.68212
2.42759
2.82518
2.82553
2.87433
2.84257
2.82302
3.00864
3.6171
3.84944
3.11529
3.29376
3.22636
3.16828
3.0616
2.59254
2.05754
1.72262
1.71739
1.85548
14.1583
4.87486
1.10955
0.276924
0.158001
0.162176
0.179237
0.193355
0.20371
0.207936
0.206008
0.197899
0.18669
0.178925
0.173409
0.169057
0.166684
0.160327
0.152387
0.149813
0.151754
0.149121
0.144914
0.1523
0.181115
0.303877
0.557002
0.749128
0.879221
0.949832
0.875908
0.707977
0.560672
0.439466
0.339884
0.263154
0.206359
0.166064
0.142164
0.131206
0.123366
0.121102
0.121539
0.123906
0.127067
0.133509
0.14646
0.157735
0.164184
0.167088
0.168622
0.168122
0.164035
0.151231
0.138946
0.131871
0.127949
0.12532
0.124062
0.123708
0.124269
0.126448
0.13231
0.147147
0.157437
0.160889
0.160967
0.156277
0.151891
0.148373
0.152675
0.169427
0.178862
0.178098
0.170139
0.156757
0.15528
0.164796
0.17791
0.186966
0.187938
0.178923
0.165563
0.151631
0.136351
0.123213
0.108556
0.0979194
0.0922483
0.0911189
0.0930529
0.100071
0.107878
0.107913
0.10833
0.10873
0.104834
0.10014
0.0997806
0.102172
0.103141
0.102296
0.102574
0.102867
0.108397
0.116425
0.129061
0.136609
0.143647
0.145604
0.147383
0.148026
0.151114
0.159756
0.164002
0.162054
0.165616
0.180171
0.186274
0.189332
0.203134
0.243235
0.360283
0.708363
0.927615
0.944318
0.90683
0.88982
0.841906
0.778507
0.768574
0.735651
0.700875
0.687571
0.634321
0.633156
0.623701
0.572144
0.540614
0.537429
0.617114
0.655768
0.697596
0.789096
0.773442
0.934675
1.01242
1.02036
1.17851
1.22101
1.26163
1.28705
1.35208
1.41037
1.4765
1.53762
1.71573
1.61214
1.73328
2.14506
2.47849
2.304
2.80534
2.85284
2.91066
2.82976
2.73799
2.93878
3.47124
3.51266
3.20196
3.46416
3.20441
3.18292
2.94262
2.31207
1.94555
1.7018
1.67043
1.76209
15.6008
4.75754
0.946464
0.249386
0.166686
0.17431
0.193581
0.208372
0.21585
0.221243
0.220497
0.213919
0.199637
0.184138
0.171711
0.161043
0.152449
0.140637
0.134598
0.135273
0.138269
0.143869
0.15619
0.194991
0.355793
0.543189
0.668782
0.769351
0.821819
0.747152
0.596259
0.463327
0.362222
0.279086
0.219876
0.173817
0.145037
0.128936
0.120451
0.117057
0.116039
0.117632
0.120548
0.124774
0.133935
0.146582
0.156477
0.161868
0.16517
0.166014
0.164544
0.15558
0.139636
0.130016
0.124776
0.120358
0.117969
0.117106
0.117433
0.119058
0.121344
0.1226
0.124551
0.128713
0.143717
0.15708
0.162044
0.161534
0.155888
0.144584
0.134454
0.13134
0.145638
0.160879
0.161403
0.147371
0.129741
0.124651
0.130311
0.151427
0.166879
0.169651
0.166052
0.154508
0.140681
0.12751
0.110086
0.0972143
0.0873233
0.0805017
0.0790279
0.0805237
0.0866257
0.0903705
0.0962275
0.10275
0.101828
0.0978612
0.0952584
0.09551
0.0958409
0.0954597
0.0953586
0.096536
0.0971612
0.0999155
0.113076
0.118988
0.124209
0.127653
0.128842
0.127879
0.129426
0.134832
0.14206
0.145516
0.148862
0.157697
0.170177
0.173052
0.184239
0.215841
0.308788
0.652039
0.907002
0.925379
0.880649
0.841034
0.810693
0.747756
0.749338
0.716031
0.65299
0.635553
0.589241
0.559972
0.548734
0.542952
0.521815
0.516956
0.591648
0.633127
0.640469
0.731287
0.711412
0.891848
1.0471
1.03099
1.16085
1.26578
1.26537
1.29566
1.33069
1.34698
1.42036
1.50834
1.58999
1.54324
1.55549
1.71639
2.13133
2.25948
2.75186
2.86912
2.9124
2.83861
2.66694
2.87342
3.38585
3.50502
3.10244
3.42766
3.14371
3.09611
2.6059
2.1788
1.91037
1.69898
1.62231
1.64257
16.7401
4.60757
0.879855
0.251227
0.185726
0.185473
0.202333
0.218832
0.23065
0.238278
0.237335
0.226713
0.206832
0.186623
0.169143
0.15485
0.140754
0.131156
0.127438
0.12872
0.134983
0.147814
0.187395
0.354784
0.520984
0.612217
0.675937
0.697016
0.632222
0.520558
0.403378
0.31079
0.244503
0.190084
0.15561
0.131757
0.119593
0.113769
0.111466
0.11171
0.113813
0.117307
0.122118
0.130382
0.141703
0.151548
0.158058
0.161482
0.162187
0.158379
0.145205
0.134187
0.127426
0.12431
0.122624
0.119886
0.115822
0.11357
0.113231
0.116079
0.120934
0.123313
0.123838
0.124098
0.126108
0.136079
0.15075
0.159155
0.158915
0.152238
0.134844
0.118648
0.111263
0.117699
0.135815
0.13719
0.122603
0.108218
0.105075
0.110297
0.125671
0.139074
0.145315
0.146632
0.141669
0.130516
0.11443
0.0993371
0.0871686
0.0778899
0.0737536
0.0736856
0.0747995
0.0772724
0.0798739
0.0895541
0.0932429
0.0919803
0.0908241
0.0895069
0.0891496
0.0901389
0.0902481
0.0910846
0.0913728
0.0918616
0.0989468
0.109108
0.112424
0.114445
0.115324
0.114229
0.113689
0.120099
0.126903
0.137687
0.140434
0.148142
0.159627
0.162684
0.173011
0.199058
0.266838
0.556107
0.858135
0.903116
0.878293
0.79133
0.768313
0.727727
0.712282
0.675339
0.61036
0.595998
0.558964
0.522526
0.51307
0.517199
0.504242
0.50327
0.553314
0.622555
0.623622
0.704274
0.644738
0.735671
1.02916
0.984437
1.01704
1.30008
1.27639
1.30271
1.30142
1.28256
1.29001
1.37383
1.4193
1.4232
1.51344
1.56201
1.74409
2.38385
2.49532
2.79364
2.81439
2.85314
2.63492
2.77312
3.0618
3.46638
2.96564
3.28401
3.07353
2.72812
2.26488
1.98857
1.87071
1.71613
1.59389
1.55224
17.659
4.61182
0.905749
0.3119
0.22174
0.201924
0.210186
0.225945
0.239982
0.251049
0.251974
0.245553
0.226996
0.19587
0.170473
0.154706
0.139977
0.131625
0.128916
0.131268
0.142205
0.180141
0.318533
0.466566
0.555471
0.607542
0.60229
0.539515
0.466544
0.373089
0.284184
0.219823
0.175896
0.14122
0.122086
0.111589
0.107321
0.106437
0.107523
0.1103
0.113649
0.118676
0.125491
0.134115
0.143561
0.15174
0.15568
0.155123
0.148402
0.136546
0.128167
0.1245
0.123395
0.123633
0.124286
0.124503
0.122982
0.117273
0.111019
0.109718
0.115393
0.12568
0.127868
0.126004
0.123626
0.1234
0.124894
0.133764
0.140877
0.144592
0.140738
0.121478
0.105721
0.0983903
0.0984377
0.108301
0.109631
0.100369
0.0912335
0.0894466
0.0946815
0.105677
0.110703
0.115972
0.124875
0.125838
0.116654
0.103457
0.0897853
0.0781673
0.0728479
0.0714259
0.0711354
0.0719417
0.0739626
0.0801404
0.0831855
0.0848032
0.0859881
0.0858989
0.0841386
0.0863317
0.0872949
0.0877387
0.0880982
0.0884037
0.0906986
0.100872
0.104972
0.107026
0.107783
0.107009
0.107144
0.114028
0.121099
0.131148
0.136914
0.144204
0.153089
0.157538
0.166349
0.186064
0.232158
0.414177
0.780131
0.875755
0.866938
0.785765
0.729312
0.69669
0.671689
0.625584
0.558431
0.550262
0.526175
0.498406
0.485197
0.488809
0.482309
0.48749
0.520699
0.608461
0.606845
0.696224
0.614873
0.636233
0.938804
0.900232
0.896872
1.21982
1.24607
1.28418
1.28105
1.24407
1.17674
1.21777
1.27864
1.33678
1.57006
1.51947
1.66759
2.37219
2.30062
2.57237
2.69801
2.93402
2.63582
2.60881
2.66998
2.94096
2.92634
3.23533
2.81343
2.27299
2.0481
1.8466
1.79955
1.7551
1.60284
1.55647
18.3429
4.86475
1.10652
0.461399
0.297076
0.222422
0.213269
0.228634
0.244514
0.256176
0.260134
0.259975
0.251139
0.230946
0.199253
0.173532
0.157848
0.150295
0.149128
0.163218
0.206353
0.294585
0.403721
0.485596
0.541037
0.530151
0.475212
0.418082
0.354559
0.275765
0.209341
0.16625
0.136747
0.117885
0.107988
0.104202
0.103557
0.10437
0.106993
0.110336
0.114326
0.120197
0.126984
0.134948
0.143526
0.148383
0.147601
0.142986
0.1342
0.127431
0.124327
0.123228
0.12331
0.12473
0.127627
0.130498
0.131813
0.130501
0.120586
0.107543
0.104543
0.111201
0.127817
0.129751
0.124085
0.120186
0.118454
0.116905
0.116522
0.117413
0.12061
0.120666
0.110504
0.0972943
0.0906509
0.0868298
0.0859378
0.0853783
0.0775743
0.0717379
0.0720827
0.0815817
0.0927858
0.0956841
0.098098
0.106813
0.108826
0.103725
0.0925687
0.0801903
0.0732061
0.0711904
0.0702899
0.0702406
0.0724392
0.0768656
0.078824
0.0821893
0.0826764
0.0844257
0.0823882
0.0852269
0.0861475
0.086292
0.0857706
0.085811
0.0879439
0.096207
0.101804
0.103127
0.10299
0.10344
0.104952
0.112194
0.119081
0.128143
0.136224
0.13969
0.145481
0.154535
0.161979
0.174676
0.206674
0.307892
0.669231
0.834353
0.844185
0.798043
0.707657
0.674986
0.641995
0.587579
0.525767
0.510861
0.485975
0.47017
0.472107
0.47732
0.474373
0.476967
0.522574
0.557242
0.555652
0.602855
0.574166
0.591491
0.820762
0.829599
0.845194
1.13922
1.19292
1.24716
1.25618
1.20017
1.12393
1.14838
1.20326
1.29528
1.61004
1.48561
1.71026
2.35688
2.27711
2.49563
2.58837
2.98248
2.68686
2.47912
2.57334
2.93436
3.05644
3.27939
2.35204
1.99706
1.81083
1.70213
1.73899
1.80012
1.67107
1.63736
18.8616
5.05791
1.27885
0.651894
0.417126
0.255761
0.215417
0.228833
0.243708
0.252729
0.259986
0.264946
0.264721
0.258139
0.245919
0.233369
0.22584
0.222862
0.227299
0.250247
0.29426
0.35199
0.415473
0.463242
0.456122
0.422498
0.381139
0.336925
0.276749
0.209976
0.163795
0.13829
0.122148
0.112027
0.105459
0.103376
0.10345
0.10467
0.107988
0.112539
0.117423
0.122165
0.126931
0.13441
0.140223
0.140184
0.138319
0.134426
0.13021
0.126598
0.125185
0.124994
0.124983
0.125335
0.127236
0.129229
0.130933
0.13187
0.130122
0.116258
0.101501
0.0990524
0.106896
0.121972
0.123869
0.11896
0.114648
0.112269
0.110643
0.110449
0.111624
0.113627
0.113496
0.107397
0.0938172
0.0834894
0.0762635
0.0722819
0.068468
0.0631277
0.0624864
0.0649499
0.0776722
0.0856686
0.0874476
0.0896171
0.0953789
0.0959519
0.092168
0.08115
0.073912
0.0713351
0.0703513
0.06965
0.0726412
0.0759567
0.0772183
0.080762
0.0823688
0.0829853
0.082111
0.0847779
0.0860553
0.085837
0.0853501
0.0852621
0.087679
0.0947226
0.10099
0.101783
0.101619
0.102896
0.104879
0.111745
0.118051
0.128135
0.136292
0.13966
0.144313
0.15404
0.160867
0.17151
0.194493
0.25803
0.53273
0.76709
0.816627
0.798652
0.714812
0.664855
0.627781
0.578152
0.51553
0.48306
0.4569
0.457038
0.469019
0.473716
0.471924
0.470251
0.530774
0.531535
0.533418
0.539468
0.549183
0.571584
0.674162
0.767954
0.832448
1.05041
1.10082
1.17591
1.20009
1.15563
1.10378
1.13064
1.16277
1.24932
1.60181
1.4852
1.90488
2.26833
2.30376
2.43456
2.49242
2.98327
2.83204
2.44986
2.61853
3.10001
3.36751
3.24567
2.08488
1.85158
1.59511
1.51317
1.63078
1.80832
1.75204
1.6389
19.1744
5.20361
1.40423
0.842946
0.612492
0.296099
0.216957
0.225091
0.23207
0.229099
0.248083
0.262933
0.265582
0.265649
0.266274
0.266721
0.268869
0.273583
0.282089
0.299065
0.324683
0.358819
0.388753
0.38269
0.3677
0.342553
0.312668
0.276901
0.228875
0.180199
0.148612
0.131183
0.120471
0.113016
0.106929
0.105127
0.105419
0.10689
0.110893
0.115821
0.120836
0.124405
0.127439
0.130259
0.131155
0.131013
0.13041
0.128884
0.127681
0.12625
0.126196
0.126475
0.126031
0.125257
0.125578
0.126987
0.128213
0.129264
0.128924
0.122757
0.10438
0.0946945
0.0939139
0.102079
0.111557
0.112567
0.112281
0.110481
0.10731
0.10708
0.108988
0.113
0.113869
0.112351
0.101968
0.0891274
0.0769203
0.0687747
0.0645941
0.0612081
0.0599868
0.0604271
0.0655624
0.076525
0.0809058
0.0826037
0.0850563
0.0872603
0.0877107
0.0817273
0.0740817
0.0705325
0.0692337
0.0684959
0.0721713
0.0755083
0.0763869
0.0796001
0.0836595
0.0825551
0.0820567
0.084581
0.0873333
0.0861298
0.0865247
0.0854688
0.0882506
0.0950975
0.100914
0.101397
0.101087
0.103691
0.108037
0.112767
0.118345
0.127943
0.138763
0.143727
0.145684
0.15631
0.163406
0.172412
0.187927
0.22919
0.385462
0.669096
0.770357