/*--------------------------------*- C++ -*----------------------------------*\
| =========                 |                                                 |
| \\      /  F ield         | OpenFOAM: The Open Source CFD Toolbox           |
|  \\    /   O peration     | Version:  dev                                   |
|   \\  /    A nd           | Web:      http://www.openfoam.org               |
|    \\/     M anipulation  |                                                 |
\*---------------------------------------------------------------------------*/
FoamFile
{
    version     2.0;
    format      ascii;
    class       volScalarField;
    object      k_0;
    location    "9.164";
}
// * * * * * * * * * * * * * * * * * * * * * * * * * * * * * * * * * * * * * //

dimensions      [0 2 -2 0 0 0 0];

internalField   nonuniform List<scalar> 
12225
(
7.73168
9.42063
6.25305
6.67953
5.98788
7.26457
8.28191
9.11933
11.871
11.5955
16.0967
14.4276
20.6456
18.2362
26.2271
24.6916
31.4852
43.2805
1.40773
6.22217
5.42295
6.89107
4.97364
6.84709
5.03402
7.1335
5.71086
7.48801
6.75417
7.8986
8.41397
8.73424
11.5895
12.234
31.3143
44.3908
0.126401
1.66053
1.92421
3.01482
2.81995
3.45198
3.14438
3.47366
3.3679
3.19406
3.3519
2.79171
3.49255
2.61711
4.44463
4.23076
17.4116
37.0592
0.0130863
0.238379
0.531737
0.802316
1.20299
1.2549
1.62316
1.46643
1.96677
1.43272
1.95315
1.2655
1.82352
1.13829
1.99453
1.68295
8.19527
18.9107
0.005204
0.0690413
0.184818
0.295866
0.486176
0.54047
0.717015
0.697611
0.873749
0.71271
0.939266
0.646077
0.962124
0.608379
1.03197
0.836586
3.10105
5.57164
0.00838025
0.0382445
0.0856795
0.118902
0.19559
0.208744
0.303104
0.284197
0.386626
0.31816
0.452294
0.316766
0.498515
0.341381
0.58187
0.61353
1.31106
1.53077
0.0170021
0.0307873
0.0542831
0.0655336
0.0947792
0.09859
0.139602
0.130814
0.178664
0.152607
0.220091
0.166822
0.255595
0.193536
0.30722
0.296672
0.650518
0.592406
0.0237237
0.0409612
0.0515513
0.0602826
0.0721543
0.0768898
0.0907687
0.0900656
0.106978
0.100011
0.125064
0.108579
0.143431
0.121862
0.170072
0.163056
0.298248
0.273793
0.0348703
0.0684001
0.0630003
0.0700037
0.0727026
0.0776043
0.0829033
0.0854476
0.0904248
0.0903402
0.096735
0.0936483
0.10367
0.0994103
0.115616
0.116353
0.167212
0.159718
0.0601768
0.111496
0.097192
0.103794
0.092095
0.0952106
0.090148
0.0913775
0.0902365
0.0902922
0.0919119
0.0903767
0.0950681
0.0930577
0.10118
0.0982844
0.12194
0.116452
0.129628
0.191586
0.168325
0.174007
0.149457
0.147208
0.12361
0.119686
0.105213
0.10185
0.0972973
0.0939931
0.095314
0.091985
0.0968843
0.0937885
0.101994
0.10203
0.284682
0.342632
0.302107
0.292613
0.252268
0.241243
0.202073
0.187567
0.153416
0.139907
0.120254
0.112006
0.105054
0.0995533
0.0996938
0.0962366
0.097838
0.0979397
0.519443
0.58122
0.509192
0.473149
0.400045
0.367072
0.308023
0.278766
0.233526
0.209868
0.17806
0.15851
0.139919
0.127243
0.116953
0.110437
0.10483
0.10136
0.863897
0.940825
0.837492
0.751105
0.632106
0.554158
0.463314
0.400903
0.335081
0.29148
0.25207
0.226545
0.203065
0.184841
0.166736
0.152443
0.137067
0.124585
1.40763
1.48484
1.33886
1.16977
1.0061
0.862567
0.725928
0.611002
0.511011
0.432904
0.368482
0.318851
0.277212
0.244733
0.215995
0.193979
0.173427
0.157055
2.13642
2.14147
1.83459
1.51492
1.24932
1.03141
0.850137
0.703685
0.584631
0.490902
0.415333
0.356119
0.307276
0.269103
0.236188
0.210531
0.187126
0.169162
2.36808
2.33887
1.96952
1.60727
1.31639
1.08026
0.887202
0.7317
0.60638
0.507605
0.42859
0.36665
0.315823
0.275887
0.241577
0.214721
0.190308
0.171311
2.3381
2.29931
1.94088
1.58741
1.30297
1.07088
0.880205
0.725949
0.601704
0.503918
0.425937
0.364819
0.314573
0.274702
0.240299
0.213073
0.18825
0.168752
1.93237
1.92416
1.68723
1.41405
1.18404
0.988355
0.821153
0.68152
0.56716
0.476342
0.403871
0.347159
0.300474
0.263402
0.230967
0.205066
0.181065
0.162136
1.19866
1.21831
1.12753
0.999773
0.882481
0.769917
0.660085
0.559003
0.471336
0.39882
0.340261
0.294855
0.2576
0.22852
0.202237
0.1813
0.16058
0.144052
0.711609
0.7219
0.657608
0.570579
0.499895
0.445159
0.392899
0.34209
0.294527
0.250479
0.214623
0.188906
0.168853
0.15447
0.140175
0.129132
0.116585
0.107227
0.409958
0.418121
0.398926
0.36292
0.333313
0.300418
0.259931
0.221267
0.186372
0.163578
0.147955
0.137296
0.128005
0.12111
0.113454
0.107971
0.101076
0.0962701
0.216989
0.227474
0.221474
0.206366
0.188145
0.169502
0.158162
0.149978
0.142995
0.137609
0.132448
0.127068
0.120915
0.116007
0.110012
0.105876
0.100454
0.0965703
0.103197
0.114128
0.109142
0.10963
0.116446
0.126186
0.133361
0.135923
0.137063
0.137228
0.136389
0.134482
0.131048
0.127851
0.123678
0.120658
0.116929
0.113824
0.0415148
0.0485879
0.0620979
0.0862296
0.108816
0.128297
0.14542
0.160977
0.174465
0.183346
0.188776
0.189681
0.188867
0.187174
0.18463
0.182654
0.180812
0.178672
0.0121568
0.0300672
0.0625814
0.125772
0.187567
0.235562
0.277796
0.316325
0.349142
0.369991
0.379254
0.379065
0.375831
0.370982
0.365407
0.361706
0.357516
0.352895
0.0069196
0.0728477
0.23102
0.430177
0.590415
0.698699
0.778589
0.839299
0.881088
0.897841
0.891644
0.876975
0.856827
0.839737
0.819286
0.806485
0.78898
0.773993
0.0612298
0.559278
1.2576
1.67175
1.92016
2.05555
2.12974
2.1569
2.14273
2.11026
2.04127
1.95912
1.89019
1.83737
1.77677
1.73252
1.67094
1.62458
0.917469
3.77645
4.98887
5.04613
4.84076
4.55589
4.31038
4.08923
3.90145
3.75772
3.63589
3.52159
3.40654
3.29087
3.18284
3.06676
2.96521
2.85834
6.75015
9.97574
8.83864
7.05607
5.9214
5.46811
5.339
5.34637
5.41066
5.51384
5.6065
5.67767
5.71343
5.72082
5.70511
5.66058
5.59479
5.43761
0.064081
0.0837722
0.122104
0.178777
0.253727
0.326122
0.393478
0.432635
0.469066
0.51667
0.576402
0.643117
0.713727
0.784737
0.873787
0.985972
1.09159
1.22179
1.33855
1.45547
1.59099
1.67321
1.76684
1.81988
1.81628
1.80988
1.77154
1.6961
1.67015
1.67138
1.69401
1.73256
1.78847
1.91809
2.08744
2.21639
2.42757
2.71572
2.92774
2.93037
2.88687
2.89353
3.08272
3.4347
3.72903
4.08379
4.74439
5.75268
6.55503
7.17508
7.73769
8.24041
8.66699
9.03351
9.31164
9.49166
9.60317
9.66466
9.65036
9.58074
9.45948
9.28996
9.07455
8.8224
8.53257
8.21799
7.88618
7.5222
7.14642
6.77033
6.39925
6.01861
5.63745
5.28862
4.9504
4.61456
4.2775
3.96932
3.71531
3.47899
3.21075
3.03847
2.83532
2.6894
2.55414
2.44572
2.33919
2.25385
2.18389
2.11496
2.05416
1.99833
1.95007
1.9136
1.88848
1.87616
1.87475
1.87832
1.87266
1.85515
1.83321
1.81813
1.80622
1.78273
1.74912
1.71633
1.67581
1.62613
1.56325
1.4924
1.41428
1.34498
1.28619
1.23789
1.20748
1.19001
1.20341
1.25103
1.36571
1.60862
1.86851
1.95819
1.94652
1.99962
2.19356
2.34708
2.35199
2.36716
2.55492
2.94958
3.48801
4.48774
5.54134
6.25954
7.14732
7.64899
7.72309
7.90166
8.08017
7.31145
7.26509
7.32719
7.45716
7.94543
8.51603
9.23091
9.76311
10.3236
10.7609
10.9579
11.1371
11.2461
11.2386
11.2777
11.3562
11.3651
11.365
11.1669
10.6943
10.4033
10.2811
10.3674
10.386
9.73571
9.25171
9.08149
7.7762
6.35199
5.7819
5.72269
5.93883
7.75814
10.2997
10.1989
7.5662
6.50969
7.15369
9.01573
14.426
19.2153
0.400564
0.147233
0.174417
0.28882
0.438638
0.514865
0.50421
0.46815
0.431857
0.39236
0.341164
0.301221
0.278674
0.260392
0.253419
0.254928
0.262891
0.286136
0.307668
0.355244
0.401632
0.463236
0.539252
0.605066
0.70918
0.767365
0.805349
0.809811
0.788962
0.717617
0.687895
0.624266
0.521601
0.508379
0.551786
0.619409
0.658888
0.766884
0.942267
1.05313
1.13466
1.31426
2.09288
3.2453
3.61456
3.78721
4.17659
4.45794
4.40265
4.2268
4.04262
3.79015
3.5367
3.27748
3.01835
2.75588
2.52454
2.31218
2.10373
1.91532
1.75177
1.60647
1.46108
1.33839
1.21731
1.1398
1.06292
1.00032
0.951951
0.910405
0.872759
0.8264
0.794886
0.773948
0.737703
0.698241
0.674823
0.663328
0.658193
0.642371
0.626894
0.628688
0.621188
0.629553
0.643375
0.663813
0.672527
0.690957
0.71414
0.728468
0.739757
0.7439
0.747253
0.749523
0.754848
0.767318
0.794138
0.840023
0.890335
0.924588
0.937613
0.94166
0.960297
0.967653
0.956338
0.948478
0.947673
0.949755
0.940504
0.919605
0.885551
0.858552
0.847493
0.848547
0.860176
0.86786
0.87427
0.882588
0.892336
0.930541
1.07603
1.23592
1.24181
1.22232
1.28424
1.57035
1.85138
2.0053
2.27513
2.55791
3.15635
3.80588
4.00031
4.02083
4.10082
3.9122
3.55753
3.48275
3.34176
2.69411
3.05635
3.00694
3.01771
3.78967
3.98142
4.71348
5.28788
5.86569
6.82526
7.32536
7.82442
8.12905
8.00179
7.92754
7.8314
7.64053
7.69143
7.53444
6.90101
6.64365
6.75027
7.46254
8.12158
7.36168
7.02122
7.30077
6.10449
5.03088
4.76344
5.28711
6.6503
7.808
8.00055
5.90544
4.85094
4.53308
4.68589
4.95018
5.96096
9.01346
1.19641
0.326679
0.334091
0.572633
0.687942
0.650587
0.537818
0.425461
0.322692
0.245258
0.201862
0.177907
0.164887
0.156771
0.151241
0.147897
0.146946
0.146907
0.14787
0.151156
0.157063
0.169889
0.187989
0.208605
0.260885
0.312063
0.349721
0.404174
0.415187
0.403193
0.361578
0.329724
0.312637
0.317968
0.392455
0.441811
0.506414
0.701825
0.939042
1.66955
2.48473
2.56464
2.66055
2.88739
2.72057
2.43102
2.06942
1.80024
1.5728
1.33229
1.09684
0.921721
0.76501
0.634409
0.534867
0.455706
0.400828
0.357544
0.321478
0.293284
0.27295
0.256185
0.243752
0.233173
0.225902
0.222807
0.220786
0.219542
0.218606
0.216978
0.214107
0.210968
0.209282
0.207288
0.202683
0.19944
0.198706
0.202082
0.20726
0.208524
0.210523
0.218543
0.221146
0.228677
0.237397
0.24915
0.256847
0.267966
0.283072
0.293522
0.304959
0.310971
0.318309
0.322166
0.324978
0.32944
0.337488
0.357666
0.395136
0.435707
0.466609
0.482553
0.513976
0.54652
0.558887
0.572616
0.604446
0.649283
0.684259
0.697381
0.690816
0.669016
0.624193
0.596502
0.587431
0.580714
0.583795
0.579892
0.568008
0.573649
0.625406
0.699905
0.719977
0.765311
0.955891
1.43616
1.71464
1.82378
1.88022
1.99477
2.41448
2.54343
2.24376
2.13512
2.09899
1.80706
1.64383
1.60931
1.49436
1.30278
1.44309
1.43553
1.4536
1.78907
1.83616
2.16471
2.46744
2.72457
3.37948
3.77964
4.13391
4.89228
4.96914
4.98216
5.06486
4.93628
5.00254
5.07285
4.8388
4.535
4.37884
4.64098
5.31722
4.95073
4.74641
5.14374
4.50105
4.01329
4.36387
5.59077
6.59264
6.67215
4.99612
3.94169
3.56781
3.3615
3.44039
3.29906
3.49085
4.48416
2.64688
0.73964
0.821151
0.965943
0.877688
0.645152
0.411235
0.258469
0.193112
0.165615
0.154316
0.148271
0.144695
0.142362
0.140288
0.138484
0.137062
0.136047
0.132832
0.127461
0.123117
0.121182
0.123575
0.128441
0.137965
0.163692
0.203088
0.223269
0.261054
0.268187
0.258546
0.257143
0.278044
0.429862
0.607867
0.712303
1.1093
1.81599
2.07499
2.23795
2.34176
2.18733
1.87111
1.5124
1.27317
1.0421
0.812282
0.639108
0.513288
0.407644
0.323242
0.266987
0.229492
0.203508
0.187021
0.176825
0.171497
0.17028
0.169783
0.170139
0.171461
0.172668
0.174417
0.175792
0.176304
0.176703
0.177082
0.177731
0.178369
0.178679
0.177814
0.17602
0.173112
0.167819
0.163448
0.158206
0.151821
0.149199
0.148134
0.147058
0.14724
0.151206
0.153664
0.1593
0.162344
0.167854
0.170439
0.174626
0.181508
0.18614
0.191751
0.195063
0.199357
0.204304
0.209066
0.21293
0.214777
0.22054
0.237775
0.266254
0.288722
0.302018
0.326474
0.355644
0.371256
0.384812
0.403777
0.425284
0.458231
0.498269
0.51181
0.510056
0.498241
0.456041
0.432664
0.424509
0.42689
0.428236
0.426884
0.435835
0.470745
0.508017
0.542743
0.647931
0.973133
1.36338
1.52292
1.60277
1.55831
1.59932
1.82965
1.82093
1.47269
1.37176
1.35415
1.25426
1.15869
1.13744
1.08307
1.00939
1.07167
1.07033
1.078
1.20857
1.22368
1.36011
1.4818
1.61858
1.953
2.19024
2.38493
2.98317
3.26229
3.32057
3.50797
3.50899
3.5861
3.86516
4.03585
3.87071
3.33143
3.46093
3.89636
3.85488
3.831
4.12153
3.85132
3.65302
4.37392
5.65857
6.15305
4.65931
3.65064
3.26516
3.13665
3.04398
3.01783
2.66778
2.67941
2.98458
4.47854
1.59252
1.48812
1.20888
0.797791
0.419025
0.236555
0.173389
0.156211
0.151317
0.150339
0.150022
0.151259
0.152581
0.152306
0.15066
0.149117
0.147622
0.143908
0.132801
0.126751
0.12247
0.112176
0.111322
0.113166
0.118352
0.134243
0.181353
0.199801
0.216669
0.249
0.30628
0.433787
1.03572
1.57989
1.68037
1.75227
1.91082
1.9283
1.77451
1.46545
1.17876
0.908157
0.676881
0.537439
0.419323
0.323772
0.25207
0.210876
0.182837
0.164084
0.153705
0.149277
0.149305
0.150514
0.152824
0.155783
0.159193
0.162263
0.16533
0.1678
0.169851
0.172094
0.174644
0.17602
0.176726
0.176859
0.176699
0.176278
0.176192
0.176148
0.175757
0.173309
0.166676
0.162594
0.158621
0.149571
0.141825
0.138391
0.134385
0.131768
0.131166
0.131737
0.134842
0.136911
0.141161
0.14283
0.144389
0.14763
0.150754
0.153164
0.154568
0.155987
0.158554
0.165935
0.170208
0.171341
0.174332
0.182432
0.200519
0.213841
0.221849
0.240632
0.263694
0.277185
0.28756
0.29713
0.306066
0.31988
0.352914
0.386784
0.39703
0.400313
0.383243
0.361323
0.356335
0.360221
0.359119
0.358668
0.37129
0.404147
0.42992
0.477051
0.624486
1.01208
1.26755
1.38238
1.39285
1.31635
1.32065
1.4412
1.45736
1.24856
1.11437
1.0784
1.05025
1.00888
0.967807
0.936747
0.887861
0.947488
0.952261
0.947962
1.00413
1.03829
1.11149
1.16529
1.27198
1.40585
1.52684
1.66894
2.06707
2.37735
2.45371
2.59603
2.65369
2.70878
2.96721
3.67036
3.68807
2.97778
2.96365
3.15799
3.33054
3.39792
3.59123
3.57576
3.57039
4.44039
5.39436
5.12844
3.60285
3.16238
3.04426
3.00607
2.90501
2.73732
2.32057
2.28597
2.38709
6.54968
2.79873
1.85373
1.13108
0.513858
0.247746
0.168124
0.152217
0.151454
0.154023
0.160918
0.167261
0.170986
0.171292
0.169886
0.16532
0.161932
0.159873
0.155049
0.147082
0.144632
0.141369
0.124898
0.110524
0.107888
0.112056
0.130241
0.168659
0.203685
0.247725
0.334224
0.764546
1.27926
1.53096
1.64611
1.63571
1.60581
1.46744
1.24299
0.94051
0.713093
0.554028
0.427458
0.309793
0.244454
0.201852
0.173491
0.154261
0.145113
0.141322
0.141505
0.142924
0.14519
0.149194
0.153721
0.159056
0.164306
0.169125
0.173337
0.177289
0.180102
0.181544
0.182542
0.182976
0.183252
0.183747
0.184042
0.184173
0.183334
0.181433
0.180756
0.180472
0.17981
0.176793
0.17276
0.166829
0.159198
0.147143
0.140586
0.134132
0.129034
0.126446
0.125398
0.12464
0.124443
0.127115
0.130717
0.13169
0.132435
0.134785
0.136157
0.136726
0.137054
0.136238
0.139001
0.146691
0.150685
0.153035
0.158618
0.170886
0.178573
0.182366
0.194057
0.215416
0.227631
0.236021
0.240518
0.240379
0.24241
0.257523
0.293645
0.320755
0.329243
0.32445
0.318402
0.32227
0.330333
0.33063
0.328737
0.336912
0.366293
0.395914
0.457184
0.649241
1.03782
1.21728
1.21567
1.17818
1.17397
1.1815
1.21333
1.19996
1.12159
1.10218
0.964627
0.912854
0.87947
0.866304
0.860479
0.7846
0.844819
0.868914
0.868273
0.906797
0.967819
1.03257
1.05726
1.14891
1.20533
1.28701
1.48479
1.68825
1.91004
2.00582
2.07697
2.19628
2.19132
2.32223
3.10733
3.56606
3.04318
2.83669
2.89192
3.09068
3.14186
3.24517
3.3424
3.50428
4.47664
4.78745
4.05668
3.21559
3.02988
3.01115
2.98032
2.79618
2.43177
2.12086
2.08285
2.14352
8.76201
3.8064
1.92697
0.805422
0.305681
0.172101
0.149523
0.150563
0.159917
0.173604
0.179589
0.180993
0.18049
0.178114
0.174286
0.170354
0.165455
0.161937
0.157032
0.154189
0.154135
0.150454
0.129286
0.113358
0.110512
0.114922
0.137492
0.186385
0.254503
0.484156
0.907282
1.2305
1.40959
1.4744
1.40291
1.25922
1.03045
0.808205
0.644703
0.488396
0.350607
0.272611
0.221423
0.177378
0.155811
0.144083
0.137623
0.135853
0.136684
0.138393
0.142642
0.149424
0.157627
0.164977
0.172166
0.177913
0.182091
0.185654
0.188903
0.191681
0.194126
0.195196
0.195746
0.195588
0.194553
0.194244
0.193981
0.193976
0.194568
0.195155
0.194588
0.192777
0.19208
0.190508
0.187004
0.185698
0.183179
0.174676
0.15995
0.145969
0.134956
0.12824
0.125093
0.122524
0.120651
0.120425
0.124037
0.126027
0.125395
0.125489
0.126749
0.127017
0.126751
0.124969
0.124159
0.125675
0.128214
0.130881
0.135836
0.14601
0.152306
0.153774
0.158952
0.173234
0.190268
0.198592
0.201543
0.201944
0.20288
0.208508
0.230537
0.264435
0.272565
0.273358
0.272776
0.278008
0.286798
0.291556
0.288822
0.295597
0.322941
0.365661
0.44923
0.694932
1.05061
1.16213
1.08896
1.04836
1.08023
1.06762
1.04043
1.03099
0.97016
0.99251
0.869401
0.813997
0.810043
0.767268
0.779307
0.731089
0.756433
0.837238
0.839506
0.861009
0.918246
1.01145
1.00805
1.08571
1.14489
1.25121
1.41763
1.5166
1.68761
1.75596
1.78421
1.92748
1.92425
1.98807
2.47147
3.24739
3.06134
2.81972
2.86811
2.97948
2.98084
3.03963
3.11367
3.38976
4.45659
4.61477
3.55915
3.16177
3.02419
3.00102
3.02387
2.76107
2.19974
1.95763
1.96366
2.05151
10.9746
4.43849
1.68789
0.512962
0.200279
0.149505
0.150277
0.168028
0.18075
0.187083
0.187459
0.186169
0.181958
0.178206
0.175595
0.172443
0.169091
0.164965
0.15847
0.153456
0.15323
0.153408
0.141899
0.123713
0.121589
0.130956
0.170925
0.267501
0.605518
0.913067
1.11306
1.25041
1.26863
1.10107
0.899872
0.741949
0.586795
0.437094
0.336685
0.2651
0.197962
0.167206
0.150251
0.137339
0.131834
0.13132
0.132104
0.134677
0.139364
0.148093
0.158781
0.167222
0.172422
0.17689
0.179457
0.180885
0.182278
0.183592
0.184806
0.186041
0.187663
0.189378
0.189906
0.189491
0.187127
0.186284
0.186258
0.188129
0.193271
0.197783
0.200292
0.202076
0.201698
0.199307
0.19343
0.193013
0.193104
0.193672
0.18988
0.181501
0.163172
0.143877
0.13296
0.12467
0.120559
0.1163
0.115464
0.11979
0.121363
0.121059
0.121367
0.122369
0.121403
0.118285
0.116594
0.115502
0.11317
0.114099
0.117543
0.124517
0.12903
0.129619
0.130699
0.139171
0.154088
0.168824
0.177361
0.178861
0.182533
0.18585
0.192058
0.208093
0.228505
0.238955
0.239887
0.23847
0.241483
0.242571
0.238661
0.243295
0.266655
0.323053
0.436286
0.725352
1.0251
1.08098
1.01924
0.965732
0.96812
0.915171
0.885227
0.908074
0.873609
0.842855
0.768998
0.75541
0.748571
0.679566
0.657767
0.649765
0.686219
0.795485
0.836038
0.838265
0.862505
0.955202
0.982017
1.05619
1.12958
1.26999
1.33891
1.38828
1.52733
1.58533
1.60324
1.74641
1.8437
1.85402
2.20803
2.91884
2.91356
2.65074
2.85686
2.85639
2.88073
2.92173
2.9401
3.18452
4.14671
4.48818
3.36692
3.17183
3.14349
3.07622
3.05712
2.74976
2.1151
1.79056
1.80749
1.95473
13.0813
4.78316
1.34266
0.347539
0.163948
0.150879
0.167452
0.182381
0.189393
0.19349
0.192876
0.189229
0.182706
0.178045
0.17536
0.17254
0.170327
0.165382
0.157653
0.152792
0.154563
0.154125
0.14287
0.135351
0.140969
0.171349
0.284734
0.609547
0.858808
0.999854
1.08965
1.04202
0.858253
0.690291
0.545354
0.427993
0.332123
0.249843
0.196395
0.166539
0.142395
0.132617
0.127631
0.126363
0.127157
0.129952
0.133856
0.142879
0.155732
0.164071
0.168336
0.170425
0.172619
0.173437
0.17155
0.1663
0.159309
0.153211
0.150237
0.148611
0.149093
0.15373
0.160728
0.163391
0.164785
0.164542
0.163405
0.161938
0.163958
0.176727
0.188142
0.193868
0.195708
0.194685
0.187903
0.187676
0.190609
0.195768
0.195848
0.19331
0.186279
0.169332
0.155317
0.13743
0.125191
0.116273
0.107688
0.104695
0.108827
0.111303
0.113524
0.116476
0.117536
0.11487
0.112608
0.11089
0.106732
0.104647
0.106454
0.110201
0.111899
0.112707
0.112158
0.116212
0.128946
0.139339
0.150929
0.160465
0.162896
0.167087
0.171819
0.175332
0.184399
0.19546
0.198289
0.19602
0.200507
0.211901
0.21167
0.214603
0.234336
0.286865
0.411915
0.738475
0.976104
1.00219
0.962141
0.934289
0.879211
0.83289
0.807346
0.799401
0.779547
0.756703
0.697794
0.718971
0.696058
0.605529
0.585948
0.585197
0.65115
0.718343
0.818847
0.818436
0.81396
0.929897
0.9846
1.01949
1.14474
1.23873
1.28406
1.30428
1.4265
1.49126
1.51257
1.60996
1.78934
1.69216
2.11898
2.57292
2.69426
2.42932
2.85211
2.83819
2.88898
2.852
2.83541
3.03492
3.64942
3.86313
3.11918
3.27332
3.21243
3.15992
3.0678
2.62263
2.06474
1.71678
1.72027
1.85133
14.9825
4.83813
1.08295
0.27013
0.157367
0.16332
0.18063
0.194653
0.204871
0.208946
0.206823
0.198383
0.187367
0.179832
0.174435
0.17017
0.167712
0.160863
0.152972
0.15055
0.152547
0.149517
0.145712
0.154493
0.187358
0.326424
0.580875
0.766908
0.89191
0.955649
0.864643
0.696502
0.550255
0.430421
0.332523
0.257317
0.20214
0.163502
0.140764
0.130487
0.123172
0.121186
0.121815
0.124299
0.127576
0.134315
0.147437
0.158486
0.164735
0.167505
0.168953
0.168407
0.164298
0.151505
0.139369
0.132395
0.128429
0.125694
0.124411
0.123945
0.124538
0.127051
0.133751
0.149026
0.15824
0.160898
0.160534
0.155241
0.151245
0.14862
0.155471
0.172058
0.179638
0.177779
0.168551
0.156533
0.156635
0.168158
0.180173
0.187815
0.187667
0.176847
0.163535
0.149462
0.134249
0.12123
0.106951
0.0968863
0.09188
0.0911951
0.0934872
0.100718
0.10798
0.107732
0.108061
0.108278
0.104167
0.099689
0.0994796
0.101948
0.102859
0.102094
0.102458
0.102755
0.108394
0.116569
0.129206
0.136764
0.14365
0.145786
0.147809
0.148631
0.151734
0.160316
0.164893
0.162976
0.166954
0.181717
0.187423
0.190981
0.205902
0.248197
0.372414
0.729818
0.939938
0.950892
0.910225
0.894115
0.843236
0.780906
0.772663
0.736893
0.703002
0.688008
0.632688
0.638049
0.625977
0.571072
0.541568
0.539781
0.626422
0.661213
0.716085
0.794799
0.774579
0.948847
1.00979
1.02363
1.1872
1.21614
1.26875
1.29005
1.3626
1.41952
1.47901
1.54752
1.72807
1.60691
1.76221
2.17771
2.4952
2.30012
2.8395
2.86407
2.92577
2.83097
2.74464
2.96103
3.49575
3.52155
3.17295
3.43625
3.19068
3.17883
2.96655
2.33686
1.94451
1.69047
1.66829
1.75764
16.6146
4.72269
0.923
0.243891
0.166608
0.175651
0.195025
0.209703
0.217206
0.222599
0.22179
0.214837
0.200414
0.184862
0.172548
0.161896
0.153132
0.141187
0.135318
0.136141
0.139341
0.145265
0.158593
0.202357
0.375382
0.560072
0.681976
0.780058
0.824371
0.737246
0.586536
0.454567
0.355056
0.273267
0.215605
0.170825
0.143267
0.12808
0.120154
0.117042
0.116252
0.118036
0.121036
0.125469
0.134997
0.147638
0.157297
0.162476
0.165644
0.166391
0.164836
0.155476
0.13963
0.130021
0.12469
0.120222
0.118088
0.117431
0.117714
0.119349
0.121381
0.122649
0.12489
0.130033
0.146373
0.15834
0.162167
0.161061
0.154242
0.142825
0.133736
0.132979
0.150189
0.162508
0.161265
0.144791
0.128804
0.125512
0.133774
0.155339
0.168866
0.170074
0.16479
0.152652
0.138721
0.125359
0.108144
0.0957391
0.0862407
0.0799977
0.0789011
0.0807468
0.0871232
0.0906653
0.0965253
0.102579
0.101315
0.0973341
0.094867
0.0952002
0.095563
0.0951115
0.0951286
0.0963901
0.0970442
0.0998953
0.112993
0.119001
0.124174
0.127614
0.128867
0.128208
0.129799
0.135373
0.142734
0.146176
0.149744
0.158741
0.17099
0.174223
0.186344
0.219844
0.318736
0.675239
0.919197
0.930996
0.882023
0.842941
0.811832
0.749682
0.753314
0.71543
0.653481
0.635662
0.585704
0.560882
0.551271
0.545143
0.521282
0.517772
0.602361
0.633454
0.645498
0.740292
0.712861
0.922079
1.04111
1.03258
1.1842
1.24875
1.2687
1.29751
1.33322
1.35056
1.42393
1.50851
1.59604
1.54346
1.55427
1.74325
2.15843
2.26227
2.78227
2.87974
2.92402
2.83568
2.66811
2.89251
3.40068
3.51348
3.08112
3.39098
3.13671
3.11413
2.64781
2.20123
1.90218
1.68619
1.61946
1.64965
17.9572
4.56929
0.858255
0.247202
0.185713
0.18655
0.204018
0.220388
0.232146
0.239707
0.23891
0.228055
0.207987
0.187718
0.170119
0.155679
0.141474
0.131942
0.128399
0.129861
0.13655
0.150183
0.194275
0.371494
0.533995
0.622155
0.684066
0.697289
0.625673
0.513204
0.396262
0.304961
0.239935
0.186671
0.153321
0.130478
0.119053
0.113655
0.111603
0.112021
0.114296
0.117885
0.12295
0.131445
0.142768
0.15246
0.15879
0.162042
0.162647
0.158477
0.145083
0.134288
0.127507
0.124308
0.12251
0.11958
0.115454
0.113428
0.113462
0.116668
0.121138
0.123031
0.123672
0.124186
0.127065
0.138941
0.153312
0.159926
0.158808
0.150391
0.132076
0.116975
0.111554
0.121892
0.138673
0.137509
0.120319
0.107709
0.10581
0.113183
0.128878
0.141365
0.146591
0.146922
0.140216
0.128627
0.112255
0.0974646
0.0857556
0.0769592
0.0732749
0.0734028
0.0747611
0.0773065
0.0800329
0.089845
0.0930597
0.0916262
0.0904264
0.0891265
0.0888487
0.0898117
0.0898341
0.0908325
0.0911344
0.0916818
0.0986749
0.108735
0.11215
0.114263
0.1152
0.114305
0.113695
0.12012
0.126984
0.138237
0.140957
0.148852
0.160131
0.163214
0.174583
0.202249
0.274057
0.579406
0.871092
0.908488
0.879062
0.790013
0.768891
0.728659
0.713592
0.673627
0.609783
0.596827
0.555625
0.520997
0.515008
0.521033
0.503872
0.503378
0.565841
0.62253
0.626695
0.70369
0.63776
0.775326
1.02577
0.984059
1.04545
1.30264
1.2733
1.30319
1.2966
1.28016
1.28611
1.37466
1.42218
1.42598
1.51906
1.56478
1.77246
2.42463
2.50913
2.80927
2.82204
2.85
2.62796
2.78583
3.06831
3.46754
2.96319
3.25836
3.08949
2.76793
2.30174
2.00956
1.86108
1.69938
1.58155
1.54441
19.0854
4.57524
0.884625
0.306445
0.22095
0.202693
0.211621
0.227442
0.241464
0.25276
0.25369
0.247372
0.22872
0.197278
0.171654
0.155812
0.141012
0.132721
0.130144
0.132773
0.144699
0.186688
0.331507
0.477341
0.564033
0.613891
0.601581
0.535911
0.461757
0.367574
0.279198
0.216015
0.173049
0.139369
0.121092
0.111264
0.107383
0.106684
0.107958
0.11082
0.114264
0.119492
0.126441
0.135165
0.144587
0.152622
0.156261
0.155471
0.148188
0.136491
0.128264
0.12472
0.123619
0.123808
0.124197
0.124052
0.121915
0.115941
0.110437
0.110028
0.116796
0.126075
0.127333
0.125289
0.123638
0.123836
0.126219
0.136676
0.143227
0.145856
0.139246
0.118313
0.103808
0.0979329
0.0996475
0.110761
0.110311
0.0991432
0.0913162
0.0903932
0.0972988
0.10765
0.112201
0.117757
0.126055
0.125766
0.114673
0.101642
0.0879861
0.0769891
0.0721654
0.070947
0.0706746
0.0717203
0.0737481
0.0801563
0.0830387
0.0843839
0.08569
0.0854305
0.0836769
0.0858618
0.0868332
0.0873414
0.0877286
0.0881668
0.0903794
0.100291
0.104571
0.106618
0.107488
0.106776
0.106964
0.113749
0.120593
0.131395
0.13702
0.144868
0.153592
0.157633
0.16746
0.188533
0.237052
0.435686
0.795072
0.881627
0.868783
0.78145
0.727919
0.69615
0.670754
0.622296
0.557317
0.552236
0.524843
0.496591
0.485124
0.491105
0.481049
0.489185
0.526563
0.611193
0.611936
0.696512
0.602756
0.651703
0.952553
0.89679
0.910842
1.24746
1.2459
1.28443
1.27139
1.23613
1.17101
1.22183
1.28095
1.33845
1.57692
1.51326
1.68372
2.41585
2.28809
2.58292
2.70586
2.92617
2.62093
2.61058
2.67103
2.93749
2.916
3.20854
2.85358
2.31594
2.08041
1.86347
1.79051
1.73332
1.5811
1.53099
19.9485
4.83447
1.08719
0.45604
0.295478
0.222783
0.21447
0.229952
0.245873
0.257731
0.262103
0.262117
0.25336
0.233268
0.201581
0.175709
0.159988
0.152584
0.151749
0.167251
0.212815
0.302863
0.412042
0.493222
0.546303
0.529657
0.473264
0.415413
0.350798
0.271459
0.205874
0.163965
0.135345
0.117311
0.107933
0.104482
0.103966
0.104882
0.10758
0.11095
0.115084
0.121068
0.127926
0.135996
0.144508
0.148966
0.147879
0.142839
0.134045
0.12745
0.124512
0.123481
0.123572
0.125131
0.12798
0.130636
0.131618
0.129445
0.117907
0.106498
0.105052
0.113853
0.128793
0.129433
0.123017
0.12008
0.118751
0.117465
0.117306
0.118748
0.121915
0.120185
0.107396
0.0952691
0.0895517
0.0866658
0.08669
0.0856663
0.0768232
0.0722328
0.0732294
0.0845273
0.0941035
0.0963285
0.0991215
0.108126
0.1089
0.102304
0.0909836
0.078815
0.0723376
0.0706082
0.0697202
0.0697738
0.0721349
0.076521
0.0785043
0.081567
0.08216
0.0839512
0.0817738
0.084532
0.0855612
0.0858029
0.0851547
0.085412
0.0875853
0.0955619
0.101097
0.102533
0.102468
0.102897
0.104654
0.111666
0.118387
0.127526
0.135945
0.139803
0.145648
0.15441
0.1625
0.176049
0.210123
0.320824
0.690565
0.840863
0.846853
0.793075
0.704047
0.673343
0.639534
0.582801
0.523379
0.511415
0.486078
0.469408
0.468958
0.478112
0.473263
0.478247
0.521811
0.558702
0.560081
0.608036
0.57125
0.598354
0.839262
0.830956
0.85036
1.17466
1.19726
1.24977
1.24954
1.18515
1.1128
1.14765
1.20035
1.30038
1.62207
1.46439
1.72211
2.37713
2.26071
2.48781
2.58803
2.98413
2.6606
2.47335
2.57137
2.90541
3.02343
3.26437
2.39379
2.02076
1.84419
1.72166
1.73232
1.78344
1.62568
1.60401
20.6175
5.04735
1.26789
0.651211
0.416233
0.25591
0.216325
0.229691
0.2447
0.254218
0.261701
0.267089
0.267237
0.261054
0.248939
0.236616
0.229391
0.226794
0.231747
0.255215
0.29996
0.358023
0.421653
0.466827
0.455967
0.421597
0.379673
0.334813
0.273686
0.207012
0.161963
0.137463
0.121975
0.112178
0.105797
0.103871
0.103968
0.105284
0.10873
0.11335
0.11826
0.122948
0.127815
0.135389
0.140794
0.1405
0.1384
0.134489
0.130256
0.126708
0.125388
0.12518
0.125174
0.125661
0.127714
0.129615
0.131197
0.131794
0.129077
0.11297
0.100433
0.0995259
0.110139
0.123492
0.123856
0.118029
0.114299
0.112238
0.110972
0.110967
0.112251
0.113581
0.112499
0.104153
0.0911565
0.0817746
0.0751408
0.0717687
0.067803
0.0627248
0.0626531
0.0662319
0.0799097
0.0863879
0.0877574
0.0902254
0.0959141
0.095911
0.0909184
0.0797547
0.0729798
0.0707054
0.0697826
0.0690862
0.0723522
0.0754572
0.0767648
0.0801437
0.0816042
0.0824371
0.0814088
0.0840236
0.0852857
0.085206
0.0845866
0.084474
0.0871203
0.0941071
0.0999825
0.101078
0.100861
0.10179
0.10428
0.111097
0.117369
0.12704
0.135666
0.139063
0.143889
0.153794
0.160461
0.171979
0.196801
0.26568
0.555026
0.775174
0.819039
0.796594
0.707732
0.661814
0.624375
0.572758
0.511183
0.480923
0.456821
0.457988
0.466696
0.471712
0.470093
0.469885
0.530546
0.530165
0.529901
0.53852
0.551966
0.574782
0.689635
0.769718
0.833737
1.07361
1.11018
1.18333
1.19664
1.13829
1.09397
1.12513
1.14636
1.26207
1.61457
1.45705
1.92197
2.27061
2.29197
2.41542
2.47521
2.98814
2.79687
2.43748
2.61402
3.03701
3.29513
3.25143
2.10794
1.86944
1.62507
1.53082
1.62726
1.79752
1.7157
1.62016
21.0453
5.19168
1.40066
0.84951
0.617147
0.295643
0.217069
0.225111
0.23243
0.229798
0.248946
0.264853
0.267959
0.268508
0.269487
0.270242
0.272647
0.277597
0.286377
0.303544
0.329222
0.363538
0.391249
0.383451
0.367951
0.342321
0.31201
0.275651
0.227305
0.17902
0.148175
0.131219
0.120727
0.11345
0.107469
0.105803
0.106153
0.107732
0.111844
0.116703
0.121622
0.125087
0.128077
0.130728
0.131502
0.131343
0.130692
0.129146
0.127947
0.126525
0.12649
0.126748
0.126183
0.125521
0.126058
0.127525
0.128702
0.129593
0.128759
0.120112
0.101912
0.094473
0.0948806
0.105076
0.112748
0.112927
0.112468
0.110339
0.107484
0.10756
0.109846
0.113231
0.113454
0.110675
0.0987376
0.0862806
0.0749925
0.0675993
0.0636895
0.0604964
0.0596057
0.0604086
0.0671041
0.0776134
0.0812155
0.0827394
0.0852723
0.087335
0.0874793
0.0803566
0.0730764
0.0698829
0.0687214
0.0679384
0.0720107
0.075069
0.0759396
0.0791558
0.0826857
0.0818426
0.0812765
0.0838664
0.0863837
0.0852403
0.0857291
0.0844971
0.0873235
0.0943509
0.0998296
0.100555
0.100403
0.102194
0.10652
0.111877
0.117566
0.126935
0.137225
0.142414
0.14493
0.15553
0.162087
0.172207
0.189264
0.233446
0.405467