/*--------------------------------*- C++ -*----------------------------------*\
| =========                 |                                                 |
| \\      /  F ield         | OpenFOAM: The Open Source CFD Toolbox           |
|  \\    /   O peration     | Version:  dev                                   |
|   \\  /    A nd           | Web:      http://www.openfoam.org               |
|    \\/     M anipulation  |                                                 |
\*---------------------------------------------------------------------------*/
FoamFile
{
    version     2.0;
    format      ascii;
    class       volScalarField;
    object      muSgs;
    location    "9.164";
}
// * * * * * * * * * * * * * * * * * * * * * * * * * * * * * * * * * * * * * //

dimensions      [1 -1 -1 0 0 0 0];

internalField   nonuniform List<scalar> 
12225
(
0.000216847
0.000231148
0.000182581
0.000183797
0.000171847
0.00018413
0.000196465
0.000199613
0.000227377
0.00021738
0.000254181
0.000233816
0.000275948
0.000252753
0.000295058
0.000273722
0.000297694
0.000343592
0.000101679
0.000203228
0.000184804
0.000204039
0.00016993
0.000195651
0.000164916
0.000191805
0.000169505
0.000188374
0.000177011
0.000185998
0.000189353
0.000187453
0.00021094
0.000213819
0.000333902
0.000365494
3.37581e-05
0.000113422
0.000119307
0.000146665
0.000136366
0.000149841
0.000138003
0.000143695
0.000137166
0.000131749
0.000131823
0.00011819
0.000129676
0.000110744
0.000141577
0.000140774
0.000280281
0.000374647
1.14872e-05
4.68402e-05
6.64408e-05
8.00658e-05
9.47777e-05
9.52262e-05
0.00010544
9.82283e-05
0.000111413
9.24698e-05
0.000106664
8.31575e-05
9.8879e-05
7.63526e-05
0.000100814
9.45103e-05
0.00021567
0.000321577
7.78517e-06
2.55855e-05
4.09987e-05
5.08761e-05
6.39745e-05
6.58015e-05
7.44809e-05
7.15046e-05
7.8934e-05
6.90006e-05
7.85125e-05
6.27176e-05
7.59675e-05
5.87885e-05
7.63043e-05
6.93488e-05
0.000144307
0.000204507
9.84317e-06
1.9494e-05
2.91756e-05
3.37015e-05
4.2922e-05
4.31475e-05
5.13088e-05
4.82261e-05
5.5533e-05
4.8702e-05
5.75962e-05
4.63399e-05
5.78943e-05
4.63893e-05
6.02919e-05
6.2073e-05
9.38571e-05
0.000109622
1.38418e-05
1.80423e-05
2.41064e-05
2.5772e-05
3.11546e-05
3.08008e-05
3.65546e-05
3.42482e-05
3.97756e-05
3.54521e-05
4.23782e-05
3.55658e-05
4.37522e-05
3.69725e-05
4.61622e-05
4.60376e-05
6.71134e-05
6.49676e-05
1.40312e-05
1.79168e-05
2.04351e-05
2.1554e-05
2.34764e-05
2.35634e-05
2.55728e-05
2.46875e-05
2.68314e-05
2.50424e-05
2.79892e-05
2.51896e-05
2.88442e-05
2.57936e-05
3.03427e-05
2.97786e-05
4.03986e-05
3.78512e-05
1.8321e-05
2.48933e-05
2.3843e-05
2.4703e-05
2.51471e-05
2.53789e-05
2.58795e-05
2.56677e-05
2.60717e-05
2.54025e-05
2.60312e-05
2.49639e-05
2.59557e-05
2.48098e-05
2.64996e-05
2.63749e-05
3.17677e-05
3.01293e-05
2.57883e-05
3.43476e-05
3.15625e-05
3.20498e-05
2.97701e-05
2.97933e-05
2.86895e-05
2.84094e-05
2.78301e-05
2.73277e-05
2.69842e-05
2.62808e-05
2.63288e-05
2.56745e-05
2.61758e-05
2.5509e-05
2.82235e-05
2.68214e-05
3.98167e-05
4.84742e-05
4.46095e-05
4.46805e-05
4.04964e-05
3.95928e-05
3.54771e-05
3.44525e-05
3.18034e-05
3.08621e-05
2.96143e-05
2.867e-05
2.82849e-05
2.73135e-05
2.73842e-05
2.64356e-05
2.723e-05
2.65144e-05
6.44311e-05
6.99928e-05
6.45613e-05
6.25613e-05
5.68888e-05
5.47337e-05
4.8959e-05
4.64102e-05
4.09036e-05
3.84658e-05
3.48813e-05
3.31902e-05
3.15758e-05
3.02151e-05
2.97065e-05
2.85879e-05
2.83478e-05
2.77317e-05
9.49224e-05
9.8504e-05
9.05922e-05
8.57993e-05
7.72109e-05
7.27426e-05
6.51676e-05
6.09343e-05
5.44673e-05
5.07239e-05
4.55753e-05
4.21846e-05
3.86856e-05
3.61677e-05
3.40878e-05
3.24756e-05
3.11762e-05
3.01351e-05
0.000132234
0.000135101
0.000125248
0.00011634
0.000104362
9.59248e-05
8.58257e-05
7.83673e-05
7.00906e-05
6.41432e-05
5.83078e-05
5.41791e-05
5.01867e-05
4.69079e-05
4.35837e-05
4.08311e-05
3.79016e-05
3.54342e-05
0.000182005
0.000183072
0.000171206
0.000156955
0.000142617
0.000129525
0.000116371
0.00010463
9.36566e-05
8.44429e-05
7.62691e-05
6.95196e-05
6.34833e-05
5.84365e-05
5.37632e-05
4.99103e-05
4.6213e-05
4.30769e-05
0.000243907
0.000238436
0.000217535
0.00019355
0.000172236
0.000153301
0.000136282
0.000121416
0.000108327
9.71929e-05
8.75321e-05
7.93681e-05
7.21997e-05
6.61693e-05
6.07031e-05
5.61449e-05
5.18508e-05
4.82987e-05
0.000278624
0.000269669
0.00024354
0.000215137
0.000190575
0.000168947
0.000149867
0.000133211
0.000118698
0.000106304
9.56257e-05
8.66027e-05
7.86985e-05
7.20332e-05
6.60241e-05
6.09714e-05
5.62371e-05
5.22859e-05
0.000277309
0.000267971
0.000242087
0.00021402
0.000189705
0.000168309
0.000149349
0.000132732
0.000118306
0.000105982
9.53938e-05
8.64481e-05
7.86059e-05
7.19491e-05
6.59217e-05
6.08212e-05
5.60395e-05
5.20047e-05
0.000239265
0.000232594
0.000213576
0.000190905
0.000170779
0.000152587
0.000136063
0.000121311
0.000108317
9.71935e-05
8.76271e-05
7.95523e-05
7.24861e-05
6.6454e-05
6.09679e-05
5.62699e-05
5.18225e-05
4.80526e-05
0.000178146
0.000175004
0.000165379
0.000152293
0.000139962
0.000127856
0.000115849
0.00010434
9.37449e-05
8.44418e-05
7.6352e-05
6.95998e-05
6.36956e-05
5.87195e-05
5.41155e-05
5.01529e-05
4.62787e-05
4.29413e-05
0.000129119
0.00012705
0.000119283
0.000108827
9.97252e-05
9.21038e-05
8.47212e-05
7.73993e-05
7.03719e-05
6.35961e-05
5.76311e-05
5.29384e-05
4.89732e-05
4.58414e-05
4.27637e-05
4.01606e-05
3.73867e-05
3.50653e-05
9.21458e-05
9.118e-05
8.73344e-05
8.14791e-05
7.64186e-05
7.11107e-05
6.48519e-05
5.86288e-05
5.26727e-05
4.8235e-05
4.48188e-05
4.22216e-05
3.98917e-05
3.79843e-05
3.60055e-05
3.43873e-05
3.25938e-05
3.11399e-05
6.33072e-05
6.34832e-05
6.14536e-05
5.81178e-05
5.43528e-05
5.04923e-05
4.75866e-05
4.52234e-05
4.30914e-05
4.13019e-05
3.96515e-05
3.80351e-05
3.63498e-05
3.48871e-05
3.32942e-05
3.20117e-05
3.05624e-05
2.93697e-05
4.11561e-05
4.24756e-05
4.07746e-05
3.9804e-05
3.98857e-05
4.04833e-05
4.06897e-05
4.02229e-05
3.95335e-05
3.8747e-05
3.77962e-05
3.67291e-05
3.54929e-05
3.43279e-05
3.30656e-05
3.19877e-05
3.0842e-05
2.98154e-05
2.46487e-05
2.61132e-05
2.84473e-05
3.26457e-05
3.59071e-05
3.81866e-05
3.97287e-05
4.08168e-05
4.15231e-05
4.16443e-05
4.13806e-05
4.06487e-05
3.97351e-05
3.87617e-05
3.7716e-05
3.6763e-05
3.58429e-05
3.49158e-05
1.25559e-05
1.87912e-05
2.63549e-05
3.6336e-05
4.34728e-05
4.77629e-05
5.08498e-05
5.32012e-05
5.48146e-05
5.53309e-05
5.49441e-05
5.38505e-05
5.25776e-05
5.12134e-05
4.9827e-05
4.86059e-05
4.73817e-05
4.6163e-05
8.37057e-06
2.63486e-05
4.65372e-05
6.28621e-05
7.25156e-05
7.74741e-05
8.02672e-05
8.17835e-05
8.22357e-05
8.1452e-05
7.96302e-05
7.74284e-05
7.50437e-05
7.28379e-05
7.05422e-05
6.86209e-05
6.65604e-05
6.46387e-05
2.21557e-05
6.9536e-05
0.000104133
0.000118294
0.00012452
0.000126395
0.000126286
0.000124735
0.000122
0.000118736
0.000114507
0.000109981
0.000105901
0.000102355
9.86724e-05
9.55225e-05
9.19847e-05
8.88837e-05
8.28829e-05
0.000174237
0.000197998
0.00019592
0.000188513
0.000179385
0.000171063
0.000163293
0.000156283
0.000150258
0.000144777
0.000139565
0.00013447
0.000129495
0.000124788
0.000120067
0.000115718
0.000111157
0.000224665
0.000268488
0.000246144
0.000214293
0.000192047
0.000180906
0.00017544
0.00017238
0.000170376
0.000169007
0.000167472
0.00016562
0.000163218
0.000160454
0.000157401
0.00015395
0.000150204
0.000144916
2.04228e-05
2.39012e-05
2.90295e-05
3.51326e-05
4.18914e-05
4.76418e-05
5.25849e-05
5.54541e-05
5.80465e-05
6.12267e-05
6.501e-05
6.90524e-05
7.31753e-05
7.71731e-05
8.18387e-05
8.7441e-05
9.25006e-05
9.83879e-05
0.000103558
0.000108421
0.000113947
0.000117344
0.000121165
0.000123584
0.000123995
0.000124631
0.000124149
0.000121223
0.000119702
0.000119491
0.000120397
0.000122509
0.000124982
0.00012944
0.000135915
0.000141106
0.000147646
0.000155909
0.000163202
0.000165228
0.000165704
0.000165758
0.000168695
0.000177275
0.000185215
0.000194175
0.000207467
0.000227083
0.000242959
0.000255162
0.000265963
0.000275528
0.000283705
0.000290835
0.000296538
0.000300692
0.000303775
0.00030607
0.000307158
0.000307386
0.000306773
0.000305369
0.000303168
0.000300298
0.000296696
0.000292586
0.000288011
0.000282678
0.000276914
0.000270904
0.000264748
0.000258109
0.000251149
0.000244583
0.000237934
0.000231019
0.00022371
0.000216726
0.000210824
0.000205129
0.000198197
0.000193844
0.000188224
0.000184262
0.000180416
0.000177297
0.000174067
0.00017145
0.000169256
0.000167022
0.000165008
0.00016312
0.000161507
0.000160408
0.000159814
0.00015982
0.000160341
0.000161094
0.000161464
0.000161345
0.00016104
0.000160974
0.000161065
0.000160788
0.000160104
0.000159396
0.000158314
0.00015679
0.000154555
0.000151788
0.000148521
0.000145437
0.000142673
0.000140271
0.000138843
0.000138012
0.000138709
0.000141772
0.000148494
0.000161023
0.000172235
0.000175689
0.000177079
0.000180969
0.000189038
0.000195697
0.000196187
0.000196847
0.000203783
0.000217959
0.000235669
0.000266405
0.000295794
0.000313665
0.000335003
0.000345808
0.000348872
0.000353917
0.000356482
0.000341047
0.000345236
0.000346911
0.000355197
0.000368803
0.000383904
0.000401318
0.000413267
0.000425573
0.000434566
0.000438096
0.000441629
0.000443275
0.000442781
0.000443219
0.000444444
0.000445439
0.000446328
0.000443214
0.000434129
0.000428662
0.000426972
0.000429313
0.000428737
0.000419575
0.000411577
0.000408327
0.000387363
0.000355263
0.000337977
0.000329854
0.000323615
0.000366826
0.000437651
0.000455289
0.000405846
0.00038246
0.000392468
0.000446521
0.00055239
0.000613103
5.08826e-05
3.1929e-05
3.46946e-05
4.43585e-05
5.46325e-05
5.94548e-05
5.90921e-05
5.72374e-05
5.52233e-05
5.29415e-05
4.95592e-05
4.67387e-05
4.50912e-05
4.37426e-05
4.33484e-05
4.35731e-05
4.45113e-05
4.64885e-05
4.84277e-05
5.23299e-05
5.56945e-05
6.03729e-05
6.54338e-05
6.93288e-05
7.58263e-05
7.94088e-05
8.17826e-05
8.27076e-05
8.30076e-05
8.02621e-05
7.81833e-05
7.51911e-05
6.98316e-05
6.89614e-05
7.07756e-05
7.53416e-05
7.88179e-05
8.59963e-05
9.4889e-05
9.8496e-05
0.000105663
0.00011459
0.000135618
0.000168541
0.000179817
0.000184872
0.000194845
0.000202723
0.000202753
0.000199699
0.000196207
0.000190822
0.000185092
0.000178871
0.000172317
0.000165246
0.000158685
0.000152396
0.000145899
0.000139753
0.000134205
0.000129061
0.000123621
0.000118852
0.000113889
0.000110736
0.000107435
0.0001047
0.000102581
0.000100739
9.90553e-05
9.67994e-05
9.53227e-05
9.44711e-05
9.26514e-05
9.05246e-05
8.93696e-05
8.89669e-05
8.89981e-05
8.83004e-05
8.7612e-05
8.82378e-05
8.80268e-05
8.91187e-05
9.05526e-05
9.25107e-05
9.35784e-05
9.53228e-05
9.73453e-05
9.86971e-05
9.98448e-05
0.000100343
0.000100744
0.000101029
0.000101547
0.000102649
0.000104957
0.000108759
0.000112802
0.000115734
0.000117479
0.000118445
0.000120095
0.000121348
0.000121412
0.000121534
0.000122469
0.000124018
0.000124552
0.000123735
0.000121877
0.000120201
0.000119224
0.000119268
0.000120079
0.000121192
0.000121121
0.000121071
0.00012157
0.000124669
0.000134699
0.000144798
0.000147378
0.000148047
0.000150533
0.000162932
0.000174454
0.000180791
0.000191913
0.000202415
0.000226803
0.000251012
0.000253826
0.000253799
0.000256114
0.000246675
0.000237751
0.000235077
0.000227395
0.000203146
0.00022012
0.000216706
0.00021708
0.000246288
0.000253502
0.000277479
0.000297105
0.000315067
0.000343903
0.000359428
0.00037322
0.000381238
0.000381099
0.000381342
0.000381207
0.000380422
0.000386522
0.000386998
0.000370026
0.000359118
0.000362715
0.000385177
0.000407002
0.000402796
0.000395576
0.000404151
0.000392862
0.000367971
0.000345643
0.00034152
0.000370672
0.000416433
0.000439365
0.000390848
0.000363667
0.000348715
0.000356274
0.000368382
0.000409135
0.000490472
8.7152e-05
4.73871e-05
4.75806e-05
6.17855e-05
6.81773e-05
6.65747e-05
6.10515e-05
5.46255e-05
4.78322e-05
4.18872e-05
3.80772e-05
3.57634e-05
3.45452e-05
3.38118e-05
3.3338e-05
3.32359e-05
3.32159e-05
3.35795e-05
3.39424e-05
3.44108e-05
3.55773e-05
3.68014e-05
3.91227e-05
4.13894e-05
4.57685e-05
5.05469e-05
5.39587e-05
5.83459e-05
5.92133e-05
5.93519e-05
5.71558e-05
5.47175e-05
5.40479e-05
5.5266e-05
6.05289e-05
6.41047e-05
6.90702e-05
8.17897e-05
9.31807e-05
0.000120398
0.000149449
0.000152721
0.000154294
0.000161014
0.000157676
0.000149729
0.000139101
0.000130281
0.000122337
0.000113063
0.000103019
9.47391e-05
8.65462e-05
7.90322e-05
7.27277e-05
6.72677e-05
6.32994e-05
5.99758e-05
5.70732e-05
5.47391e-05
5.3027e-05
5.15972e-05
5.0555e-05
4.96696e-05
4.91174e-05
4.90021e-05
4.89967e-05
4.90808e-05
4.91932e-05
4.92167e-05
4.90866e-05
4.89237e-05
4.89235e-05
4.88599e-05
4.84909e-05
4.82546e-05
4.83522e-05
4.89183e-05
4.97152e-05
4.99643e-05
5.038e-05
5.16075e-05
5.20384e-05
5.31681e-05
5.43957e-05
5.6049e-05
5.71868e-05
5.87488e-05
6.07692e-05
6.21605e-05
6.37713e-05
6.46678e-05
6.56818e-05
6.62861e-05
6.66561e-05
6.69427e-05
6.76951e-05
7.01271e-05
7.42832e-05
7.84184e-05
8.17377e-05
8.375e-05
8.71778e-05
9.08426e-05
9.25789e-05
9.42828e-05
9.75154e-05
0.000101629
0.000105051
0.000107161
0.000107482
0.000106009
0.000100543
9.68007e-05
9.51362e-05
9.50435e-05
9.57296e-05
9.51194e-05
9.26882e-05
9.17218e-05
9.72607e-05
0.000106285
0.000111106
0.00011599
0.000128727
0.000155752
0.000168113
0.000172305
0.000173995
0.000179274
0.00019875
0.0002023
0.000186326
0.000182853
0.00018127
0.000165926
0.000160296
0.000158145
0.000152264
0.000141505
0.000149553
0.000148215
0.000148322
0.000166402
0.000167078
0.000182597
0.000197321
0.000207518
0.000235106
0.000254778
0.000271796
0.000300317
0.000304313
0.000306876
0.000312016
0.000308845
0.00032003
0.000329269
0.0003098
0.000283942
0.000275435
0.00029409
0.000338033
0.000346374
0.00033819
0.000356681
0.000356519
0.000343071
0.00033603
0.000359797
0.00038511
0.000402345
0.000357874
0.000329293
0.000318794
0.000291827
0.000311274
0.000296415
0.00030844
0.000353438
0.00012848
7.05626e-05
7.36039e-05
8.03401e-05
7.69935e-05
6.67429e-05
5.35657e-05
4.24973e-05
3.67278e-05
3.40206e-05
3.28145e-05
3.21797e-05
3.18615e-05
3.1678e-05
3.16055e-05
3.15191e-05
3.15125e-05
3.17374e-05
3.19228e-05
3.16731e-05
3.15429e-05
3.18662e-05
3.18607e-05
3.29851e-05
3.44464e-05
3.65905e-05
4.1654e-05
4.32441e-05
4.70268e-05
4.93695e-05
4.83472e-05
4.75861e-05
4.99943e-05
6.2055e-05
7.55267e-05
8.02487e-05
9.70403e-05
0.000127161
0.000136799
0.0001414
0.000144293
0.000140094
0.000130281
0.000117763
0.000108238
9.83008e-05
8.71182e-05
7.7604e-05
6.98089e-05
6.23998e-05
5.57232e-05
5.07696e-05
4.71862e-05
4.45352e-05
4.2842e-05
4.18298e-05
4.13825e-05
4.14218e-05
4.15539e-05
4.17869e-05
4.21437e-05
4.24776e-05
4.28798e-05
4.32419e-05
4.35012e-05
4.37409e-05
4.3983e-05
4.42598e-05
4.4545e-05
4.47933e-05
4.48806e-05
4.48605e-05
4.47365e-05
4.42261e-05
4.3813e-05
4.32799e-05
4.25529e-05
4.2261e-05
4.22576e-05
4.21391e-05
4.22436e-05
4.28596e-05
4.33399e-05
4.42857e-05
4.4824e-05
4.57862e-05
4.63179e-05
4.70906e-05
4.83021e-05
4.91757e-05
5.02007e-05
5.08652e-05
5.16159e-05
5.24316e-05
5.35498e-05
5.42067e-05
5.40604e-05
5.49872e-05
5.77334e-05
6.14117e-05
6.40836e-05
6.55834e-05
6.84278e-05
7.2129e-05
7.43504e-05
7.60222e-05
7.82269e-05
8.09335e-05
8.45242e-05
8.89083e-05
9.06365e-05
9.0969e-05
8.79506e-05
8.15129e-05
7.76074e-05
7.69756e-05
7.78175e-05
7.84515e-05
7.79586e-05
7.79711e-05
8.14633e-05
8.76734e-05
9.41944e-05
0.00010486
0.000128588
0.000151502
0.00015904
0.000162281
0.000158234
0.000160519
0.000173248
0.000170374
0.000150266
0.000146654
0.000146901
0.000140433
0.000135638
0.000133849
0.00013167
0.000123999
0.000130968
0.00012972
0.000128603
0.00013855
0.000136547
0.000143991
0.000151847
0.000157484
0.000174387
0.000188477
0.000200087
0.000231325
0.000247173
0.000249736
0.000261954
0.00025724
0.000263696
0.000292309
0.000286854
0.000254066
0.000228223
0.000239712
0.00028875
0.000306194
0.000296842
0.000323209
0.000335881
0.000328253
0.000334033
0.000368239
0.000382907
0.000344353
0.000317337
0.000318558
0.000308589
0.00028497
0.000292739
0.000270454
0.000270522
0.000287043
0.000166165
0.000102455
9.90438e-05
9.00545e-05
7.3789e-05
5.37544e-05
4.02292e-05
3.43268e-05
3.25276e-05
3.20494e-05
3.20664e-05
3.21734e-05
3.24198e-05
3.26844e-05
3.27943e-05
3.26667e-05
3.24764e-05
3.25153e-05
3.26185e-05
3.18019e-05
3.14437e-05
3.15808e-05
3.06795e-05
3.05265e-05
3.11099e-05
3.23241e-05
3.36665e-05
3.94564e-05
4.17094e-05
4.23975e-05
4.63913e-05
5.35227e-05
6.24856e-05
9.15973e-05
0.000116419
0.000121601
0.00012406
0.000129103
0.000129678
0.000125218
0.000114353
0.000102873
9.05923e-05
7.85735e-05
7.03218e-05
6.23859e-05
5.50458e-05
4.87603e-05
4.47723e-05
4.18176e-05
3.9741e-05
3.86069e-05
3.82099e-05
3.83637e-05
3.868e-05
3.91301e-05
3.96702e-05
4.02621e-05
4.08116e-05
4.13597e-05
4.18364e-05
4.22636e-05
4.2708e-05
4.31925e-05
4.3544e-05
4.38241e-05
4.40336e-05
4.41922e-05
4.43172e-05
4.45017e-05
4.46982e-05
4.48285e-05
4.48032e-05
4.41838e-05
4.38151e-05
4.35038e-05
4.25665e-05
4.14937e-05
4.11287e-05
4.05723e-05
4.02257e-05
4.00834e-05
4.01974e-05
4.07341e-05
4.10767e-05
4.18352e-05
4.22363e-05
4.26159e-05
4.32034e-05
4.38774e-05
4.44763e-05
4.48586e-05
4.54537e-05
4.58457e-05
4.70777e-05
4.82614e-05
4.82775e-05
4.84562e-05
5.00228e-05
5.30789e-05
5.50511e-05
5.59033e-05
5.83319e-05
6.15424e-05
6.35033e-05
6.47677e-05
6.57798e-05
6.68391e-05
6.83907e-05
7.23935e-05
7.65522e-05
7.86125e-05
7.82332e-05
7.50116e-05
7.16072e-05
7.1194e-05
7.17057e-05
7.14967e-05
7.09885e-05
7.12443e-05
7.47253e-05
7.9627e-05
8.71849e-05
0.000101557
0.000130525
0.000146241
0.000152176
0.000150522
0.000145322
0.000145376
0.000152542
0.000153525
0.000138272
0.000130596
0.000129553
0.000127804
0.000123516
0.000122215
0.000121098
0.000114504
0.000120933
0.00012059
0.000118106
0.000126945
0.000125862
0.00013031
0.000134379
0.000138979
0.000147186
0.000156393
0.000162645
0.000186962
0.000209291
0.00021019
0.000226105
0.000224943
0.000220463
0.000252854
0.000278361
0.000251892
0.000221962
0.000219512
0.000258813
0.000280467
0.000265333
0.000296271
0.000322484
0.000322429
0.00033489
0.000362206
0.000361072
0.000317648
0.000314667
0.000330632
0.000303129
0.000280807
0.000270596
0.000246805
0.000249075
0.000255487
0.000200544
0.000135384
0.000110908
8.73978e-05
5.92248e-05
4.09002e-05
3.35097e-05
3.19599e-05
3.20661e-05
3.25538e-05
3.35134e-05
3.44712e-05
3.50956e-05
3.52417e-05
3.53295e-05
3.49215e-05
3.44375e-05
3.41963e-05
3.37522e-05
3.30474e-05
3.301e-05
3.30723e-05
3.23286e-05
3.12278e-05
3.08142e-05
3.10977e-05
3.34058e-05
3.7559e-05
4.13804e-05
4.7136e-05
5.46356e-05
7.87181e-05
0.000103516
0.000113878
0.000118567
0.000118324
0.000117395
0.000112994
0.000104507
9.13366e-05
7.99973e-05
7.08909e-05
6.25664e-05
5.3559e-05
4.78031e-05
4.36051e-05
4.05477e-05
3.83421e-05
3.72936e-05
3.69147e-05
3.70283e-05
3.73085e-05
3.7709e-05
3.8334e-05
3.90328e-05
3.98374e-05
4.0632e-05
4.13701e-05
4.20318e-05
4.26702e-05
4.31782e-05
4.35211e-05
4.3801e-05
4.40133e-05
4.42082e-05
4.44429e-05
4.46586e-05
4.48596e-05
4.49477e-05
4.48783e-05
4.49744e-05
4.50959e-05
4.52707e-05
4.51638e-05
4.48212e-05
4.42911e-05
4.3718e-05
4.22692e-05
4.15415e-05
4.06815e-05
4.00267e-05
3.95925e-05
3.9445e-05
3.93511e-05
3.93493e-05
3.97406e-05
4.04036e-05
4.07571e-05
4.10093e-05
4.13863e-05
4.18144e-05
4.18226e-05
4.19659e-05
4.20861e-05
4.26433e-05
4.42034e-05
4.52494e-05
4.56234e-05
4.63343e-05
4.83795e-05
4.9876e-05
5.01946e-05
5.16825e-05
5.49356e-05
5.69924e-05
5.81786e-05
5.85847e-05
5.82773e-05
5.83316e-05
6.02872e-05
6.51243e-05
6.89438e-05
6.98196e-05
6.85256e-05
6.70573e-05
6.74274e-05
6.84539e-05
6.88856e-05
6.84786e-05
6.82157e-05
7.14752e-05
7.70404e-05
8.56846e-05
0.000103062
0.000132132
0.000143301
0.000142149
0.000138287
0.000137194
0.000137525
0.000139642
0.000139915
0.000131872
0.000128884
0.000119561
0.000117488
0.000114856
0.000116545
0.000116503
0.000112417
0.00011402
0.000115184
0.000112814
0.000121067
0.000120876
0.000126627
0.00012854
0.000130324
0.000135218
0.000145395
0.000151484
0.000164219
0.000186153
0.000185026
0.000199702
0.000206931
0.000193062
0.000216516
0.000256934
0.00025791
0.000236205
0.000217788
0.000249487
0.000267034
0.000244152
0.000274438
0.000309622
0.000318731
0.000337691
0.000343808
0.000328896
0.00031208
0.000322621
0.000340201
0.000306736
0.000270806
0.000251687
0.000235941
0.000239783
0.000246322
0.0002319
0.00015798
0.000113462
7.38837e-05
4.53918e-05
3.38477e-05
3.16619e-05
3.20432e-05
3.31127e-05
3.47209e-05
3.55084e-05
3.58571e-05
3.59807e-05
3.58898e-05
3.58252e-05
3.56457e-05
3.52435e-05
3.49707e-05
3.4332e-05
3.39254e-05
3.40628e-05
3.42148e-05
3.2674e-05
3.07615e-05
3.0792e-05
3.16525e-05
3.37596e-05
3.96382e-05
4.74527e-05
6.31469e-05
8.65215e-05
0.000101167
0.000108454
0.000111372
0.000109357
0.000104022
9.47496e-05
8.42908e-05
7.57988e-05
6.63252e-05
5.65851e-05
5.01274e-05
4.53183e-05
4.06603e-05
3.81765e-05
3.67729e-05
3.59918e-05
3.58125e-05
3.59666e-05
3.62588e-05
3.68862e-05
3.78556e-05
3.9013e-05
4.00694e-05
4.11e-05
4.19544e-05
4.26339e-05
4.32465e-05
4.38226e-05
4.43458e-05
4.48266e-05
4.51419e-05
4.53949e-05
4.55628e-05
4.56253e-05
4.57513e-05
4.58713e-05
4.60255e-05
4.62793e-05
4.65338e-05
4.66535e-05
4.66104e-05
4.67026e-05
4.66411e-05
4.62904e-05
4.63385e-05
4.62695e-05
4.55729e-05
4.39811e-05
4.21495e-05
4.08066e-05
3.97787e-05
3.93321e-05
3.89355e-05
3.86707e-05
3.86307e-05
3.91607e-05
3.9606e-05
3.9819e-05
3.9883e-05
4.02238e-05
4.05107e-05
4.05666e-05
4.01894e-05
4.0054e-05
4.04135e-05
4.10011e-05
4.1693e-05
4.26418e-05
4.42499e-05
4.55776e-05
4.58804e-05
4.64857e-05
4.87347e-05
5.14465e-05
5.28421e-05
5.3698e-05
5.37707e-05
5.38027e-05
5.41584e-05
5.70341e-05
6.11206e-05
6.27298e-05
6.29039e-05
6.19053e-05
6.1648e-05
6.23037e-05
6.34373e-05
6.33033e-05
6.26912e-05
6.56323e-05
7.32266e-05
8.4534e-05
0.000106321
0.000133027
0.000139353
0.000134056
0.00013029
0.00013185
0.000129881
0.000127425
0.000128673
0.000123911
0.000123788
0.00011392
0.000111151
0.000111152
0.00011015
0.000113653
0.000110761
0.000110022
0.000113519
0.00011085
0.000118469
0.000115571
0.00012503
0.000126412
0.000124871
0.000129967
0.000144666
0.000147196
0.000152849
0.000174218
0.000169796
0.000181814
0.000194069
0.000179882
0.000192894
0.000224636
0.000253735
0.00024851
0.000219992
0.000246741
0.000260181
0.000232055
0.000259143
0.000294799
0.000313334
0.000340597
0.000345463
0.000313967
0.000310793
0.000329701
0.000338593
0.000300601
0.000265027
0.000236564
0.000221616
0.000230811
0.000243034
0.000259714
0.000171089
0.000106608
5.90753e-05
3.66836e-05
3.16639e-05
3.19211e-05
3.37531e-05
3.5043e-05
3.57876e-05
3.59879e-05
3.60965e-05
3.59365e-05
3.58124e-05
3.59083e-05
3.58562e-05
3.5915e-05
3.56958e-05
3.4756e-05
3.40749e-05
3.38696e-05
3.38805e-05
3.37527e-05
3.26891e-05
3.27979e-05
3.33645e-05
3.80151e-05
4.79494e-05
7.06628e-05
8.63865e-05
9.59541e-05
0.00010171
0.000102978
9.69987e-05
8.78142e-05
8.03341e-05
7.18713e-05
6.24833e-05
5.5174e-05
4.91393e-05
4.26155e-05
3.9208e-05
3.72307e-05
3.56112e-05
3.49393e-05
3.49084e-05
3.50684e-05
3.54869e-05
3.61911e-05
3.74386e-05
3.89495e-05
4.01914e-05
4.10423e-05
4.18141e-05
4.23614e-05
4.27641e-05
4.31393e-05
4.35003e-05
4.38405e-05
4.41648e-05
4.45332e-05
4.49249e-05
4.51849e-05
4.53222e-05
4.52087e-05
4.52507e-05
4.53922e-05
4.57438e-05
4.65337e-05
4.73001e-05
4.77912e-05
4.82073e-05
4.83508e-05
4.8194e-05
4.74678e-05
4.75203e-05
4.75255e-05
4.76942e-05
4.74608e-05
4.66156e-05
4.45953e-05
4.2058e-05
4.04809e-05
3.92408e-05
3.86644e-05
3.80925e-05
3.7913e-05
3.85371e-05
3.89625e-05
3.91181e-05
3.91006e-05
3.92235e-05
3.94023e-05
3.91565e-05
3.88996e-05
3.88096e-05
3.84562e-05
3.85445e-05
3.93985e-05
4.06411e-05
4.1589e-05
4.18289e-05
4.17738e-05
4.32238e-05
4.59548e-05
4.82335e-05
5.00489e-05
5.036e-05
5.13098e-05
5.1255e-05
5.20749e-05
5.36825e-05
5.71152e-05
5.84269e-05
5.77639e-05
5.66845e-05
5.66394e-05
5.72684e-05
5.77065e-05
5.70201e-05
5.93137e-05
6.83014e-05
8.27043e-05
0.000108366
0.000131398
0.000134025
0.000128981
0.00012462
0.000124437
0.000119655
0.000117342
0.000119605
0.000117678
0.000115543
0.000108097
0.000108376
0.000108705
0.000102854
0.000105055
0.000103619
0.000105117
0.000110809
0.000109196
0.000118243
0.000112205
0.000121644
0.000126209
0.00012205
0.000127904
0.000146461
0.000142151
0.000146135
0.000165137
0.000160202
0.000169623
0.000183232
0.00017832
0.00018085
0.000200076
0.000241694
0.000251496
0.000217321
0.000242574
0.000253561
0.000225591
0.000249406
0.000283832
0.000303955
0.000332043
0.00034924
0.000313525
0.000309173
0.000330175
0.000334413
0.000293722
0.000265605
0.000235127
0.00021117
0.000220846
0.000235998
0.000283793
0.000177908
9.55161e-05
4.87274e-05
3.32632e-05
3.18743e-05
3.36251e-05
3.51921e-05
3.60044e-05
3.66584e-05
3.69284e-05
3.70031e-05
3.66346e-05
3.63713e-05
3.62376e-05
3.59912e-05
3.59772e-05
3.55761e-05
3.47088e-05
3.4126e-05
3.42116e-05
3.50723e-05
3.52047e-05
3.45092e-05
3.48142e-05
3.83828e-05
4.9196e-05
7.13139e-05
8.33725e-05
9.02224e-05
9.48157e-05
9.32161e-05
8.54358e-05
7.69382e-05
6.87881e-05
6.14639e-05
5.43926e-05
4.74186e-05
4.21451e-05
3.88652e-05
3.59651e-05
3.47281e-05
3.41356e-05
3.39957e-05
3.41778e-05
3.4637e-05
3.52646e-05
3.65654e-05
3.83862e-05
3.96524e-05
4.04284e-05
4.09361e-05
4.14421e-05
4.1757e-05
4.17169e-05
4.1236e-05
4.0503e-05
3.98334e-05
3.95437e-05
3.94136e-05
3.95527e-05
4.02302e-05
4.13194e-05
4.19002e-05
4.23325e-05
4.25005e-05
4.25025e-05
4.23938e-05
4.26455e-05
4.42813e-05
4.59971e-05
4.70876e-05
4.75968e-05
4.77998e-05
4.71404e-05
4.72136e-05
4.75094e-05
4.83162e-05
4.82736e-05
4.81042e-05
4.72169e-05
4.52791e-05
4.34503e-05
4.10015e-05
3.90868e-05
3.7836e-05
3.65147e-05
3.59948e-05
3.66538e-05
3.74162e-05
3.79864e-05
3.83982e-05
3.84577e-05
3.82541e-05
3.80405e-05
3.79044e-05
3.74063e-05
3.6762e-05
3.70912e-05
3.7917e-05
3.83521e-05
3.88603e-05
3.86857e-05
3.91186e-05
4.15286e-05
4.33299e-05
4.58302e-05
4.73119e-05
4.8182e-05
4.85083e-05
4.91767e-05
4.89255e-05
5.06938e-05
5.23415e-05
5.24492e-05
5.14068e-05
5.13509e-05
5.30476e-05
5.45031e-05
5.38005e-05
5.52113e-05
6.35598e-05
7.93413e-05
0.00010946
0.000128023
0.000128606
0.000125008
0.000121915
0.00011816
0.00011398
0.000112542
0.000112125
0.000110444
0.00011028
0.000104066
0.000104744
0.000103804
9.6792e-05
9.77975e-05
9.84528e-05
0.000102007
0.000104925
0.000106404
0.000116332
0.000111146
0.000121561
0.000127657
0.00012015
0.000127589
0.000144004
0.000139819
0.000143298
0.000158948
0.000156734
0.000162707
0.00017384
0.000179289
0.000171667
0.000181845
0.000219881
0.000245738
0.00021052
0.000239183
0.000252899
0.000225814
0.000242672
0.00027629
0.000296198
0.000315358
0.000324022
0.000295984
0.000303545
0.000315198
0.000316963
0.000283259
0.000252969
0.000228715
0.000207092
0.000215837
0.000226837
0.000303859
0.000179445
8.62227e-05
4.309e-05
3.26108e-05
3.32665e-05
3.52098e-05
3.67057e-05
3.77863e-05
3.84136e-05
3.85717e-05
3.82579e-05
3.75413e-05
3.71476e-05
3.67932e-05
3.62911e-05
3.59117e-05
3.51866e-05
3.43447e-05
3.41107e-05
3.47821e-05
3.55303e-05
3.54453e-05
3.63206e-05
4.01304e-05
5.24662e-05
6.99113e-05
7.87949e-05
8.47064e-05
8.85983e-05
8.5108e-05
7.66706e-05
6.87256e-05
6.10385e-05
5.40464e-05
4.77801e-05
4.24659e-05
3.8287e-05
3.55279e-05
3.42555e-05
3.33038e-05
3.30879e-05
3.32538e-05
3.36841e-05
3.42566e-05
3.52697e-05
3.71462e-05
3.87734e-05
3.98039e-05
4.03887e-05
4.08049e-05
4.0951e-05
4.06341e-05
3.91816e-05
3.76996e-05
3.68499e-05
3.6414e-05
3.61409e-05
3.6054e-05
3.60858e-05
3.62419e-05
3.66009e-05
3.74974e-05
3.96387e-05
4.11494e-05
4.17819e-05
4.19606e-05
4.14818e-05
4.09373e-05
4.05562e-05
4.11497e-05
4.35342e-05
4.49196e-05
4.51833e-05
4.4414e-05
4.29969e-05
4.29454e-05
4.44915e-05
4.63508e-05
4.78288e-05
4.79261e-05
4.67923e-05
4.49607e-05
4.30124e-05
4.07755e-05
3.87281e-05
3.63915e-05
3.46647e-05
3.36594e-05
3.35435e-05
3.40586e-05
3.55922e-05
3.69604e-05
3.69009e-05
3.71223e-05
3.72482e-05
3.69503e-05
3.60161e-05
3.56784e-05
3.6293e-05
3.65337e-05
3.66292e-05
3.70203e-05
3.68244e-05
3.78182e-05
3.91498e-05
4.1874e-05
4.31888e-05
4.44666e-05
4.49364e-05
4.55113e-05
4.52502e-05
4.59889e-05
4.75763e-05
4.80015e-05
4.71893e-05
4.67968e-05
4.85536e-05
5.10684e-05
5.129e-05
5.17881e-05
5.84627e-05
7.41102e-05
0.000108204
0.000125309
0.000125076
0.000121581
0.00011854
0.0001154
0.000110003
0.00010967
0.000107993
0.000105007
0.000105086
0.000100503
9.94004e-05
9.69732e-05
9.37708e-05
9.3707e-05
9.56848e-05
0.000100734
0.0001024
0.000100046
0.000112593
0.000109732
0.00012344
0.000131232
0.000123252
0.00012898
0.000141653
0.000140299
0.000143459
0.000154919
0.000155104
0.000157815
0.000167486
0.000178753
0.000170353
0.000162185
0.000191586
0.000236818
0.000206419
0.000236014
0.000254759
0.00022738
0.000239228
0.000269975
0.000291996
0.000312601
0.000306268
0.000289459
0.000298448
0.000299679
0.000304275
0.000270331
0.000239396
0.000219984
0.000207782
0.00021183
0.000220464
0.000320064
0.0001779
7.98373e-05
4.09275e-05
3.35587e-05
3.45605e-05
3.65579e-05
3.79248e-05
3.86934e-05
3.94203e-05
3.97355e-05
3.97412e-05
3.89528e-05
3.78629e-05
3.67004e-05
3.54268e-05
3.41199e-05
3.25058e-05
3.17456e-05
3.21432e-05
3.33803e-05
3.50857e-05
3.697e-05
4.18133e-05
5.6552e-05
6.84217e-05
7.40364e-05
7.89041e-05
8.20411e-05
7.85753e-05
7.03009e-05
6.23501e-05
5.54458e-05
4.88705e-05
4.3651e-05
3.89139e-05
3.56665e-05
3.37395e-05
3.26968e-05
3.23564e-05
3.2326e-05
3.26835e-05
3.32185e-05
3.39448e-05
3.53457e-05
3.71806e-05
3.86378e-05
3.95193e-05
4.01319e-05
4.04324e-05
4.04292e-05
3.94801e-05
3.75548e-05
3.63778e-05
3.57745e-05
3.52601e-05
3.50282e-05
3.50169e-05
3.5185e-05
3.55313e-05
3.59806e-05
3.62111e-05
3.64863e-05
3.70822e-05
3.92855e-05
4.1221e-05
4.21013e-05
4.22524e-05
4.16469e-05
4.01571e-05
3.87388e-05
3.82353e-05
4.03287e-05
4.25287e-05
4.28707e-05
4.12429e-05
3.8787e-05
3.82024e-05
3.90934e-05
4.2424e-05
4.49085e-05
4.55883e-05
4.54405e-05
4.37409e-05
4.1657e-05
3.97148e-05
3.68719e-05
3.45375e-05
3.27617e-05
3.16311e-05
3.12854e-05
3.17067e-05
3.31382e-05
3.38326e-05
3.48938e-05
3.61079e-05
3.61472e-05
3.5703e-05
3.4752e-05
3.47953e-05
3.51281e-05
3.51642e-05
3.54713e-05
3.5695e-05
3.58244e-05
3.61069e-05
3.84712e-05
3.98597e-05
4.06082e-05