/*--------------------------------*- C++ -*----------------------------------*\
| =========                 |                                                 |
| \\      /  F ield         | OpenFOAM: The Open Source CFD Toolbox           |
|  \\    /   O peration     | Version:  dev                                   |
|   \\  /    A nd           | Web:      http://www.openfoam.org               |
|    \\/     M anipulation  |                                                 |
\*---------------------------------------------------------------------------*/
FoamFile
{
    version     2.0;
    format      ascii;
    class       volScalarField;
    object      p;
    location    "9.164";
}
// * * * * * * * * * * * * * * * * * * * * * * * * * * * * * * * * * * * * * //

dimensions      [1 -1 -2 0 0 0 0];

internalField   nonuniform List<scalar> 
12225
(
103790
103757
103732
103716
103689
103658
103606
103544
103454
103359
103231
103096
102926
102742
102518
102276
101913
100953
103778
103748
103724
103708
103681
103650
103598
103537
103446
103352
103224
103090
102921
102738
102521
102286
101925
101244
103756
103728
103705
103689
103662
103632
103580
103520
103428
103336
103208
103076
102908
102729
102518
102290
101962
101470
103723
103694
103672
103656
103630
103601
103549
103491
103399
103308
103181
103051
102887
102713
102510
102310
102014
101706
103672
103644
103622
103606
103581
103552
103501
103444
103353
103263
103140
103011
102852
102684
102488
102286
102054
101855
103597
103571
103550
103534
103510
103481
103431
103375
103288
103199
103078
102953
102800
102640
102458
102274
102067
101889
103492
103470
103450
103435
103411
103383
103335
103279
103196
103108
102994
102870
102729
102576
102413
102247
102066
101898
103371
103354
103336
103322
103299
103271
103226
103170
103093
103005
102899
102776
102647
102501
102354
102199
102041
101884
103244
103230
103214
103200
103179
103151
103108
103054
102981
102894
102796
102674
102556
102417
102283
102137
101997
101854
103076
103065
103051
103039
103019
102992
102952
102899
102831
102747
102657
102540
102431
102302
102181
102048
101925
101799
102857
102849
102837
102826
102808
102782
102744
102694
102631
102552
102470
102360
102261
102146
102037
101920
101813
101707
102569
102563
102555
102544
102528
102503
102469
102422
102365
102293
102220
102121
102033
101932
101838
101738
101648
101562
102197
102189
102184
102174
102160
102137
102107
102064
102014
101951
101884
101803
101728
101642
101563
101484
101412
101347
101701
101701
101699
101691
101679
101659
101632
101595
101552
101499
101443
101379
101318
101252
101191
101133
101081
101039
101062
101070
101072
101067
101057
101039
101016
100986
100951
100910
100867
100821
100776
100732
100691
100654
100625
100603
100256
100270
100275
100272
100263
100249
100230
100207
100181
100153
100124
100095
100069
100046
100028
100015
100009
100010
99267.5
99282.4
99287.5
99284.6
99276.2
99263.8
99248.9
99232.5
99215.8
99199.9
99186.1
99175.4
99168.9
99167.6
99172
99182.8
99200.3
99224.7
98176
98187.2
98190.1
98185.1
98174.9
98162.3
98149.4
98137.7
98128.6
98123.3
98122.6
98127.5
98138.6
98156.4
98181.3
98213.2
98252.2
98298
97146.1
97161.1
97163.4
97156.1
97143.6
97129.6
97117.1
97107.8
97103.3
97104.9
97113.3
97129.4
97153.4
97185.6
97225.9
97274
97329.7
97392.4
96268.8
96296
96299.3
96290.4
96275.6
96259.9
96246.5
96237.8
96235.6
96241.2
96255.3
96278.6
96311.3
96353.3
96404.4
96464.1
96531.8
96606.8
95566.4
95593.8
95596.2
95585.6
95569.1
95551.6
95537
95528
95526.5
95534
95551.5
95579.3
95617.7
95666.4
95725
95792.8
95869.2
95953.1
95020.2
95040.4
95040.3
95028.1
95009.9
94990.8
94974.7
94964.8
94963.3
94971.7
94991.1
95021.7
95063.8
95117
95180.7
95254.2
95336.6
95427
94606.6
94615.3
94612.1
94598.4
94578.8
94558.1
94540.7
94529.8
94527.9
94536.5
94556.8
94589.1
94633.5
94689.7
94756.9
94834.4
94921
95016
94288.6
94295.6
94290.7
94275.8
94254.8
94232.7
94214.1
94202.2
94199.7
94208.3
94229
94262.3
94308.2
94366.3
94435.9
94516.1
94605.8
94704
94049.6
94061.2
94055.7
94039.8
94017.8
93994.6
93975
93962.2
93959.2
93967.5
93988.4
94022.3
94069.2
94128.6
94199.8
94281.8
94373.6
94474.1
93888.6
93896.2
93889.7
93873
93850.1
93826
93805.5
93792.2
93788.6
93796.7
93817.7
93851.9
93899.3
93959.6
94031.9
94115.2
94208.5
94310.5
93777.6
93784
93776.4
93759.2
93735.9
93711.6
93690.5
93676.7
93672.8
93680.8
93701.7
93736
93783.8
93844.7
93917.7
94001.8
94096.1
94199.1
93706.8
93712.2
93703.8
93686.3
93663
93638.5
93617.4
93603.3
93599.2
93607
93627.8
93662.3
93710.3
93771.5
93845
93929.7
94024.6
94128.4
93664
93669.6
93661.2
93644.4
93621.4
93597.1
93575.9
93561.8
93557.6
93565.3
93586.1
93620.6
93668.8
93730.2
93803.8
93888.9
93984.2
94088.5
93655.2
93652.5
93643.4
93626.6
93603.6
93579.2
93558.1
93544
93539.7
93547.4
93568.2
93602.8
93651
93712.5
93786.3
93871.5
93967.1
94071.8
91884.7
91888.3
91895.9
91907.8
91923
91942.4
91965.5
91991.9
92021.3
92053.8
92089.2
92127.8
92169.5
92214.7
92263.5
92315.9
92372.3
92432.6
92496.9
92565.2
92637.2
92713
92792.5
92875.2
92961.7
93051.2
93143.5
93238.7
93335.9
93435
93536.2
93638.5
93742.9
93849
93955.6
94061.8
94169.2
94277.1
94385.9
94492.5
94600.5
94711.2
94819.9
94925.6
95029
95130.6
95233.5
95338.4
95441.9
95542.9
95642.2
95740.4
95837.6
95934
96029.6
96124.3
96218.1
96310.9
96402.7
96493.2
96582.3
96669.8
96755.4
96838.8
96919.5
96997.1
97071.5
97142.7
97209.5
97271.8
97329.6
97382.8
97431.1
97474.4
97512.6
97545.7
97573.4
97595.6
97612.1
97622.8
97627.6
97626.1
97618.2
97603.5
97581.6
97552.4
97515.2
97469.7
97415.3
97351.3
97276.8
97191.4
97095.3
96985.6
96861.6
96725.2
96574.4
96411.2
96233.9
96042.8
95838
95620.2
95390.4
95149.5
94899
94640.7
94376.7
94109.7
93839.7
93569.7
93302.9
93043.4
92794
92556.3
92332
92121.7
91925.8
91744.5
91577.1
91423.6
91279.6
91144.4
91015.9
90892.8
90774.1
90658.6
90544.7
90429.2
90309
90181.2
90043.2
89892.3
89726.9
89545.6
89348
89134.6
88905
88660.8
88399.3
88125.9
87831.9
87523.9
87208
86867.5
86512.1
86141.1
85755.8
85359.7
84949.1
84526
84092.1
83647.5
83201.1
82756.5
82309
81860.4
81408.4
80944.3
80477.6
80016.1
79553.5
79083.6
78603.7
78133.3
77693.3
77288.2
76930.3
76639
76440.3
76331
76305.2
76373.7
76533.5
76804.9
77212.2
77709.1
78233.9
78850.8
79512.7
80225.4
91937
91940.3
91947.4
91958.4
91974.1
91993.6
92016.5
92042.6
92071.8
92104
92139.3
92177.9
92219.7
92265
92314
92366.6
92423.1
92483.6
92548.4
92617.4
92688.8
92764.2
92843.8
92927
93013.6
93103.3
93195.6
93290.6
93388
93487.5
93588.9
93691.7
93795.9
93902
94009.5
94117.6
94224.6
94331.7
94440.1
94545.6
94651.8
94759.8
94870.6
94979
95081
95177.8
95276.8
95379.6
95481.5
95581.5
95679.8
95777.3
95873.5
95969.1
96063.6
96157.4
96250
96342
96433.2
96522
96609.8
96696
96780.4
96862.7
96942
97018.2
97090.8
97161.9
97226.7
97287.4
97343.6
97395.2
97441.9
97483.5
97520
97551.4
97577.3
97597.6
97612.3
97621.1
97623.9
97620.5
97610.5
97593.8
97570
97538.7
97499.6
97452.2
97395.9
97330.1
97253.9
97166.9
97068.7
96958
96833.6
96696.2
96545.5
96381.6
96203.7
96012.4
95807.9
95590.5
95361.5
95121.6
94872.1
94614.8
94352.1
94085.6
93818.1
93550.4
93284.8
93026.9
92778.5
92543
92321.3
92113.3
91919.3
91739.3
91573.7
91421.5
91279.5
91145.3
91017.2
90894.1
90775.3
90660.4
90547.5
90433.3
90314.2
90187.6
90050.6
89900.4
89736.1
89556.4
89360
89148.5
88921.2
88678.9
88418.6
88147.6
87857.2
87551.2
87238.6
86900.3
86547.5
86178.7
85795
85400.5
84994.2
84572.9
84141.5
83700.7
83252.7
82808.3
82362.1
81917
81468.1
80997.9
80529.4
80068.9
79609.2
79141.6
78660.7
78185.6
77744.9
77346.2
76981.8
76679.3
76477.5
76366.2
76339.4
76404.3
76558.8
76827.7
77237.4
77737.6
78263.1
78878.3
79538
80252.5
92042.1
92045.4
92052.4
92063.2
92077.9
92096.3
92118.4
92143.7
92172.3
92204.2
92239.3
92277.7
92319.7
92365.2
92414.3
92467
92523.7
92584
92648.1
92716.6
92789.1
92865.3
92945.6
93029.9
93117.1
93207.4
93301
93396.8
93494.4
93594.3
93695.8
93798.4
93902.8
94009.1
94116.5
94221.9
94324.1
94432.3
94545.3
94658.5
94768.7
94871.2
94968
95069.2
95170.3
95268.8
95366.4
95464.7
95562.6
95659.7
95755.8
95850.9
95945.2
96038.6
96131.2
96222.8
96313.4
96402.7
96490.6
96578.2
96664
96748
96829.9
96910.1
96986.6
97060.6
97130.8
97197.3
97259.5
97317.4
97370.7
97419.1
97462.7
97501.1
97534.2
97562.1
97584.5
97601.2
97612.3
97617.3
97616.3
97609
97595.1
97574.5
97546.8
97511.7
97468.7
97417.6
97357.5
97288.2
97208.7
97118.6
97017.3
96904.1
96778.3
96639.4
96487.5
96322.7
96144.3
95951.9
95747.4
95530.8
95303
95064.7
94817.1
94562
94301.5
94036.9
93771
93507.7
93249
92994.6
92749.6
92517.9
92300.9
92097.6
91907.5
91730.2
91566.9
91417.5
91278.7
91146.6
91019.7
90897.4
90779.3
90665.6
90554.5
90442.2
90325.1
90200.6
90065.2
89916.6
89755.2
89578.8
89384.9
89176.7
88953.5
88716.1
88458.6
88190.8
87906.7
87604.5
87296.9
86963.3
86615.8
86252.3
85872.6
85484
85082.7
84667
84239.7
83802
83355.2
82913.7
82469.2
82023.7
81574.5
81107
80634.9
80175.2
79719.6
79258.1
78772.7
78294.1
77852.7
77444.8
77069.9
76767
76562.1
76442.2
76408.7
76466.9
76614.7
76871.4
77292.3
77799.9
78326.3
78936.8
79592.7
80306.3
92197.3
92200.9
92207.8
92218.1
92232
92249.4
92270.4
92294.9
92322.8
92354.1
92388.9
92427.4
92469.6
92515.3
92564.9
92618.3
92675.5
92736.5
92800.9
92868.6
92941.9
93019.3
93100.2
93184.7
93273.2
93364.2
93458.1
93555.3
93653.9
93754.1
93856.1
93958.9
94063.1
94169.5
94276
94383
94493.9
94603.9
94704.2
94804.1
94907.4
95009.4
95107.8
95205.3
95301.7
95399
95494.1
95588.9
95683.4
95777.2
95870.1
95962.1
96053.3
96143.7
96233.1
96321.4
96408.7
96494.9
96579.7
96663.3
96745.1
96825.7
96903.1
96981.1
97053.2
97122.4
97188.2
97250.3
97308.1
97361.6
97410.4
97454.3
97493.2
97526.8
97554.9
97577.8
97595.1
97606.5
97612.2
97611.9
97605.3
97592.4
97572.9
97546.5
97513.2
97472.4
97423.9
97367.2
97301.8
97227.3
97142.9
97048.3
96942.9
96826.1
96697.6
96556.4
96402.7
96236.6
96058.1
95863.3
95659.7
95444.1
95218.2
94982.5
94737.9
94486.2
94229.7
93970.1
93710.5
93453
93199.3
92950.5
92711
92484.9
92273.8
92076.2
91891.3
91718.4
91558.9
91412.6
91277.1
91148.1
91023.4
90902.8
90787
90675.5
90566.8
90456.5
90342.1
90220.8
90088.4
89942.5
89785.1
89614.1
89424.2
89221.8
89003.8
88773.5
88520.6
88257.9
87981.8
87685.4
87384.9
87057.6
86716.3
86360.1
85986.7
85605.2
85212
84805.4
84385.7
83954.9
83511
83073.3
82630
82186.1
81747.9
81279.1
80794.6
80332.9
79875.7
79424.6
78944.8
78463.8
78021.5
77602.8
77216.5
76909.1
76695.9
76564.3
76519.6
76570.8
76711.9
76965.2
77383.8
77897.9
78424
79024.1
79674.9
80388.7
92401.1
92404.5
92411.4
92421.3
92434.6
92451.3
92471.4
92494.8
92521.7
92552.3
92586.5
92624.7
92666.8
92712.9
92763.1
92817.6
92876.4
92939.9
93006.9
93076
93149.3
93226.5
93307.2
93391.7
93479.8
93572.5
93668.7
93766
93865.1
93966
94067.5
94170.7
94275.8
94382.9
94487.4
94587.4
94689.3
94793.6
94895.8
94995.5
95094
95191.2
95287.1
95381.7
95475.3
95568.4
95660.5
95751.9
95842.7
95932.7
96021.7
96109.7
96196.7
96282.9
96368
96452
96534.8
96616.3
96696.4
96774.8
96851.2
96929.5
97001.6
97071.9
97139
97202.8
97263
97319.4
97371.6
97419.4
97462.4
97500.3
97533.2
97560.6
97582.3
97598.6
97609.3
97613.8
97612.4
97605.1
97591.3
97571.2
97544.5
97510.9
97470.2
97422.3
97366.7
97303
97230.9
97149.7
97059.1
96958.7
96848
96726.4
96594
96449.6
96293.4
96125.6
95945.6
95752.2
95547.8
95333.5
95110.1
94877.9
94637.3
94390.6
94139.7
93886.4
93633.8
93383.8
93137.6
92896.2
92663.5
92444.6
92239.8
92048.6
91869.8
91703
91548.6
91406.6
91275.5
91150.4
91029.1
90911.5
90798.9
90690.4
90583.9
90476.9
90366.5
90249.3
90121.7
89979.1
89825.4
89660.3
89479
89283.9
89073.2
88851.7
88606.8
88348.9
88082.7
87795
87504
87185.9
86852.1
86504.5
86138.2
85765.5
85381.3
84979.3
84573.3
84155.7
83717.2
83287.2
82847.6
82401.1
81973.4
81512.7
81018.1
80542.5
80078.5
79633.8
79168.5
78691.1
78244.1
77822.1
77422.2
77102.8
76877.4
76735.8
76671.3
76718.4
76853.2
77108.7
77533.3
78027
78553.6
79141.6
79783.8
80498
92653.6
92656.5
92662.7
92672.1
92684.8
92700.6
92719.7
92742.1
92768.4
92798.5
92832.4
92870.1
92911.7
92957.3
93007.5
93062.4
93121.9
93186.4
93253.4
93325.9
93401.7
93480.4
93562.3
93648.6
93738.9
93831.7
93927.5
94026
94125
94225.4
94329.3
94434.6
94537
94636.4
94736
94835.2
94934.1
95032.8
95130.2
95226.3
95321
95414.5
95507
95598.6
95688.9
95778.1
95866.4
95953.7
96040
96125.1
96209.1
96291.8
96373.4
96454.1
96533.7
96611.8
96688.8
96764.8
96838.8
96911.4
96983.4
97052.6
97118.9
97182.5
97243
97300.2
97353.6
97403.1
97448.4
97489.2
97525.2
97556
97581.5
97601.5
97615.7
97624.2
97626.9
97623.5
97613.6
97597.7
97575.3
97546.4
97511
97468.9
97419.6
97363
97299
97227.1
97146.9
97058.1
96960.1
96852.8
96736.1
96609.1
96471.7
96323.5
96163.9
95993.5
95812.2
95619.6
95415.8
95203.2
94982.8
94754.8
94519.5
94278.8
94035
93789.5
93544.6
93303
93065.5
92833.4
92609.4
92398.1
92200.6
92016.7
91845.6
91686
91537.6
91401.3
91275.4
91154.9
91037.5
90924.5
90816
90711.6
90609.3
90506.5
90400.6
90288.5
90166.5
90029.9
89881.6
89723.7
89549.4
89363.8
89162.6
88951.1
88718.8
88467.5
88210.4
87934
87653.5
87347.6
87025.2
86688.7
86328.7
85966.1
85594.5
85197.4
84801.6
84401.4
83972.1
83553.1
83121.3
82672.5
82251.8
81803.6
81310
80818.9
80339.3
79894.1
79429
78954.2
78514.1
78090.7
77680
77331.5
77089.2
76950.8
76874.4
76921.1
77053.1
77315.7
77725.6
78199.7
78716
79292
79923.4
80635.5
92953.4
92955.8
92961.3
92970.1
92981.9
92996.9
93015.4
93037.8
93064.2
93094.1
93127.8
93165.1
93206.3
93251.7
93301.6
93356.1
93415.2
93478.5
93547.9
93621.9
93699.3
93779.9
93863.8
93951
94041.7
94136.5
94233.6
94331.3
94431.7
94534.3
94635.8
94735.2
94833.2
94930.1
95026.6
95122.4
95217.6
95311.9
95405.2
95497.6
95588.7
95678.7
95767.3
95854.7
95941.6
96026.2
96109.3
96191
96271.4
96350.3
96427.8
96504
96579
96653.3
96725.9
96797.3
96867.4
96938.1
97005.2
97070.6
97134.5
97196.1
97254.9
97310.9
97363.7
97413
97458.5
97500
97537.2
97569.9
97597.7
97620.3
97637.4
97648.8
97654.2
97653.8
97647.5
97635
97615.9
97590.5
97558.5
97519.5
97474.2
97422.2
97363.2
97296.9
97223.3
97142.2
97052.9
96955.4
96849.3
96734.3
96610.3
96477.2
96334.6
96182
96018.9
95845.7
95662.9
95470.4
95268.3
95057.5
94840.3
94616.7
94387.4
94153.7
93917.7
93680.5
93444.6
93212.1
92984.6
92763.7
92550.3
92348
92159
91983.4
91820.7
91669
91527.7
91398.1
91278.5
91163.8
91051.5
90943.6
90840.5
90741
90643.5
90545.9
90445.5
90339.4
90225.8
90098.2
89957.3
89802.8
89638.9
89464.5
89274.8
89076.1
88858.8
88619.3
88371.7
88105.8
87839
87546.4
87235.5
86913.5
86561
86208.9
85853.5
85468.2
85078.3
84688.5
84276.3
83869.8
83449.8
83004.8
82580.8
82151.2
81671.1
81171
80670.6
80216.4
79763.7
79273.1
78835.2
78407.4
77990.3
77624.1
77368.2
77213.4
77131.4
77185
77318.9
77579.1
77967.7
78410.6
78915.5
79479.2
80096
80804
93299.2
93301.1
93306.1
93314.1
93325.3
93339.8
93358.3
93380.5
93406.2
93435.3
93467.8
93504.2
93544.9
93590.2
93640.9
93697.1
93758.4
93822.9
93892.7
93966.4
94043.5
94123.4
94207
94295.9
94389.6
94485.4
94582.2
94682
94783.2
94882
94978.3
95073.4
95167.8
95261.7
95354.8
95447.2
95538.9
95629.6
95719.4
95808.1
95895.4
95981.1
96065.2
96147.5
96228.2
96307.2
96383.7
96458.7
96532.2
96604
96674.3
96743.1
96810.4
96879.9
96944.9
97008.9
97071.6
97133.1
97192.7
97250.3
97305.9
97358.9
97409.2
97456.5
97500.5
97540.8
97577.4
97609.7
97637.8
97661.4
97680.1
97693.5
97701.1
97702.9
97698.4
97687.8
97671.4
97648.7
97619.4
97583.6
97541.4
97491.9
97435.8
97372.9
97303.2
97226.4
97142.1
97050.9
96952.1
96845.1
96730.1
96607.1
96475.6
96335.5
96186.8
96029.4
95862.7
95686.8
95502.4
95309.8
95109
94901
94687.3
94468.6
94245.3
94019.1
93791.1
93563.3
93337.6
93115.6
92898.7
92690
92486.7
92294.9
92115.4
91949.7
91796.4
91654
91520.4
91398.4
91286.2
91178.8
91073.7
90972
90874.9
90781.1
90689.7
90598.5
90504.7
90406.1
90300.3
90183.8
90055.2
89909.7
89753.9
89591.3
89413.4
89228.4
89028.3
88802.6
88570.1
88314.5
88063.6
87789
87486.3
87178.9
86838.4
86495.3
86157.4
85784
85404.6
85027.5
84632.7
84238.1
83833.1
83396.4
82955.3
82548.6
82099
81600.7
81063.7
80606.1
80158.5
79658.3
79213.3
78788.1
78355.6
77972.7
77698.2
77533.4
77447.2
77505.9
77646.9
77896.2
78255
78663.8
79153.6
79701.3
80303.3
81004.2
93689.7
93691.1
93695.6
93703.2
93714
93728.3
93746.2
93767.6
93792.2
93820.1
93851.6
93886.9
93926.7
93971.7
94022.5
94079
94140.6
94207.7
94278.6
94352.5
94429.2
94509.3
94595.2
94686.6
94780.7
94876.3
94974.5
95073.7
95170
95263.2
95355.6
95447.4
95538.5
95629.1
95718.9
95808
95896.3
95983.5
96069.4
96153.7
96236.1
96316.6
96394.9
96471
96544.8
96616.3
96685.4
96753.3
96820.3
96884.5
96947.8
97009.5
97069.9
97129.4
97187.1
97243.1
97297.4
97349.9
97400.4
97448.8
97494.8
97538.3
97578.9
97616.4
97650.7
97681.2
97707.9
97730.3
97748.3
97762
97770.9
97774.4
97772
97763.4
97748.5
97726.8
97699.2
97665.3
97625.1
97578.1
97524.8
97464.4
97397
97322.9
97242
97154.3
97059.1
96956.8
96847.8
96731.2
96606.7
96475
96335.9
96188.7
96033.8
95871.1
95700.3
95521.6
95335.8
95143.2
94943.9
94738.5
94528.6
94315.1
94098.1
93879.7
93660.7
93442.6
93227.5
93017
92811
92614.8
92424.2
92243.6
92073.9
91917.7
91774.5
91642.3
91517.7
91403.9
91300.2
91201.4
91105.6
91011.8
90921.6
90834.4
90749.6
90665.9
90580.1
90489.2
90392.6
90287.8
90174.4
90040.7
89895
89745.5
89582.9
89410.9
89229.7
89019
88803.4
88562.5
88326.9
88077.9
87785.9
87492.1
87164.9
86827.5
86507.1
86150.4
85786.5
85424.7
85045.8
84658.2
84273.1
83852
83400.7
82975.3
82582.9
82104.1
81554.1
81069.9
80614.1
80097.7
79653.1
79226.5
78780.1
78379.2
78084.4
77915.1
77831
77890.2
78021.1
78257
78580.5
78961.2
79433.3
79956.1
80547.8
81233.2
94123.4
94124.2
94128.3
94135.6
94146.2
94160.2
94177.8
94198.8
94223
94250.6
94281.6
94316.4
94355.8
94400.7
94451.6
94508.7
94571.5
94638.9
94709.3
94782.5
94858.5
94939.6
95026.8
95117.5
95210.7
95306.5
95402.8
95496.3
95586.5
95675.9
95765.2
95853.8
95941.8
96029.1
96115.6
96201.3
96285.7
96368.7
96449.8
96528.8
96605.6
96679.8
96751.5
96820.6
96887.1
96951.2
97013.3
97073.6
97132.3
97189.4
97244.9
97299.2
97350.9
97401.3
97449.8
97496.4
97541
97583.5
97623.7
97661.6
97697.1
97729.8
97759.7
97786.6
97810.3
97830.5
97846.6
97858.4
97865.7
97868.6
97867
97860.4
97847.9
97828.9
97803.3
97770.7
97731.5
97686.1
97634.5
97576
97510.7
97438.8
97359.8
97274.2
97181.5
97082.5
96976.5
96863.4
96743.7
96617.2
96483.6
96342.9
96195.5
96041.4
95880.2
95712.4
95537.5
95355.9
95168.4
94975.9
94778.2
94575.7
94369.1
94160.9
93950.8
93740.4
93530.2
93322
93119.5
92920.6
92727.2
92541.6
92364.5
92195.4
92037
91891
91758.5
91637.3
91523.2
91418.4
91324
91235.2
91149.7
91065.8
90983.4
90903.8
90826.7
90751.4
90674.6
90593.8
90508.4
90412.8
90304.5
90192.8
90065.5
89929.5
89784.2
89628.8
89467.9
89276.1
89077.6
88855.4
88632.9
88411.6
88138.1
87859.7
87548.2
87212.4
86905.7
86583.9
86229.1
85883.5
85522.3
85139.9
84777
84377
83924.4
83481.2
83078.1
82656.9
82111.4
81605.1
81137.4
80608.3
80162.3
79729.7
79271.2
78850
78530.9
78354.5
78252.6
78315.6
78430.5
78653.9
78943.6
79297.3
79753.4
80244.7
80828
81488.4
94596.8
94597.1
94600.9
94607.9
94618.3
94632.1
94649.2
94669.6
94693.4
94720.7
94751.5
94786.2
94825.6
94870.5
94921.4
94978.4
95040.8
95107.2
95176.7
95248.8
95324.5
95405.8
95492.1
95581.9
95674.6
95767.4
95857.4
95944.5
96030.8
96117.3
96203.4
96288.8
96373.6
96457.4
96540.3
96621.9
96701.8
96779.8
96855.5
96928.7
96999.1
97066.7
97131.4
97193.1
97252.1
97308.6
97362.9
97415.3
97465.8
97514.5
97561.1
97605.7
97649.1
97690.1
97728.7
97765.1
97799.2
97830.8
97860
97886.7
97910.8
97931.9
97950.1
97965.2
97977.4
97986.6
97991.9
97993
97989.3
97981
97967.9
97950.3
97927.2
97898
97861.7
97818.1
97767.7
97710.9
97647.8
97578.3
97501.5
97418
97327.1
97229.4
97125.3
97014.7
96897.6
96773.8
96643.9
96507.5
96364.6
96215.6
96060
95898.5
95731.2
95558.4
95379.6
95195.1
95006.2
94813.8
94617.4
94417.7
94215
94011.7
93808.5
93606.1
93406.2
93206.2
93019.3
92830.4
92648.9
92474.6
92310.5
92154.1
92008.6
91873.3
91751.6
91642
91539.9
91445.1
91360.4
91282.9
91208.4
91135.7
91063.2
90992.3
90924.1
90858.2
90792.1
90722.4
90648.6
90568.3
90475.8
90378.7
90270.1
90150
90021
89885
89747
89577.8
89397.6
89199
88988.4
88793.1
88544
88280.7
87993.9
87660.9
87360
87077.7
86740.3
86410.7
86066.2
85689.7
85345.8
84973.2
84527.2
84076.9
83645.8
83260
82732.3
82212.8
81733.9
81207.5
80741.6
80298.3
79831.6
79384.1
79043.6
78818.2
78682.8
78778.7
78885.9
79096
79350.5
79680.3
80119.3
80571.5
81140.9
81771.5
95105.5
95105.2
95108.4
95114.8
95124.7
95138
95154.6
95174.8
95198.5
95225.8
95256.6
95291.1
95329.9
95373.7
95422.5
95478.2
95538.3
95602.4
95670.1
95741.7
95818.3
95900.5
95987.1
96076.2
96165.2
96251.1
96334.4
96417.2
96500.5
96583.7
96666.2
96748
96829
96909
96987.7
97064.7
97139.6
97212.1
97281.9
97348.9
97412.7
97473.2
97530.4
97584.4
97635.6
97684
97730.1
97774.1
97815.9
97855.7
97893.3
97928.6
97961.8
97992.6
98020.7
98046.1
98068.9
98089
98106.5
98121.4
98133.9
98143.4
98149.3
98151.6
98151
98148.2
98142.1
98132.5
98118.2
98098.9
98074.7
98045.5
98011.1
97971
97924.4
97870.1
97808.3
97740.1
97665.4
97584.8
97497.4
97402.9
97301.5
97192.3
97076.5
96954.9
96826.8
96692.3
96552.7
96406.8
96254.6
96097.3
95934.6
95766
95592.6
95414.6
95232.2
95045.1
94854.6
94662
94467
94269.8
94071.6
93873.7
93677.1
93481.7
93293.9
93104.9
92925.4
92750.5
92581.3
92418.7
92267
92123.9
91991.6
91868.6
91758.2
91660.1
91571.3
91487.9
91412.9
91347.5
91284.8
91224.4
91164.1
91103.3
91045.2
90990
90935.6
90878.6
90818.8
90754.1
90677.4
90598.8
90511.1
90412.2
90300.6
90183
90068.6
89926.7
89767.4
89592.2
89399.2
89224.6
89002.9
88758.4
88500.7
88183.3
87887.3
87631.7
87320.3
87010.7
86685.5
86311.5
85981.6
85630.3
85206.1
84765.3
84312.4
83866
83418.8
82905
82404.5
81876.3
81390.4
80938.9
80462.2
79990
79628.6
79379.6
79232
79298.2
79404.8
79584.9
79801.7
80112.1
80515.6
80955.9
81487.7
82085
95644.2
95643
95645.4
95651
95660.1
95672.9
95689.6
95710
95733.8
95761
95791.9
95825.8
95864.2
95906.5
95955.2
96007.1
96063.6
96124.5
96190.3
96261.5
96338.6
96420.9
96505.6
96590
96671.8
96751.2
96830.1
96909.8
96989.9
97069.3
97147.8
97225.8
97302.7
97378.4
97452.4
97524.3
97593.8
97660.6
97724.3
97784.7
97841.5
97894.6
97944
97990.1
98033
98073
98110.4
98145.3
98177.7
98207.8
98235.2
98260.3
98282.8
98302.8
98319.9
98334.2
98345.8
98354.4
98359.9
98362.1
98362.2
98360.2
98354.6
98344.7
98330.7
98314.4
98295.9
98274.6
98249.6
98219.9
98185.4
98145.4
98100
98048.7
97991.3
97927.2
97855.3
97776.5
97690.5
97598.3
97500.4
97395.4
97283.7
97164.7
97038.3
96906.1
96768.1
96623.5
96474.4
96319.8
96159.2
95993.4
95823.9
95649.3
95470
95287.2
95101.1
94912
94720
94526.9
94333.3
94138.7
93944.5
93751.8
93561.6
93372.3
93196.1
93018.3
92847.8
92685
92528
92378
92238
92108.2
91989.3
91880
91781.6
91694.8
91619.7
91549.3
91484.8
91431.2
91382.3
91335.5
91288.3
91240.7
91194
91150.2
91108.8
91066.9
91022.6
90973.7
90913.1
90855.7
90791.4
90717.6
90627.7
90528.6
90436.7
90325
90195.5
90037.4
89872
89711.5
89515
89296.3
89065.5
88776.4
88501.8
88251.8
87966.4
87681.5
87380.2
87034
86704
86357.8
85964.3
85540.1
85082.1
84612.3
84191.5
83696.5
83148.4
82598.6
82105.8
81656
81157.5
80676.2
80290.1
80042.1
79938.3
79895.7
79989.9
80117.8
80301.7
80588.3
80960.4
81385.7
81872.9
82426.7
96207
96205.2
96207.1
96211.7
96218.8
96229.2
96245.2
96265.6
96289.3
96316
96346.1
96379.8
96416.5
96459.9
96506.6
96557.1
96611.7
96671
96735.4
96805.2
96879.8
96957.6
97035.7
97112.7
97188
97263
97338.9
97415.6
97491.9
97567.3
97642
97715.9
97788.4
97859.4
97928.4
97995
98058.8
98119.6
98177
98230.6
98280.2
98325.8
98367.5
98405.3
98439.6
98470.6
98498.7
98523.8
98546
98565.3
98582.3
98596.4
98607.6
98616.4
98622.6
98625.7
98625.9
98623.1
98617.1
98607.1
98594
98579.4
98562.6
98541.5
98515.6
98486.5
98455.3
98421.2
98384.3
98343.5
98298.6
98249
98193.5
98132.1
98064
97989.7
97908.4
97819.9
97724.5
97622.1
97514
97399.5
97277.8
97149.4
97013.6
96871.5
96724.3
96571.2
96413.2
96250.6
96082.8
95910
95733.7
95553.5
95368.8
95182.1
94992.5
94801.4
94608.5
94414.8
94221.9
94030
93839.9
93652.3
93468.9
93288.7
93116
92950.4
92790.7
92638.5
92494
92356.5
92228.6
92112.2
92005.8
91911.5
91825.8
91750.4
91688.4
91632.2
91579.9
91537.4
91503
91472.2
91441.3
91408.5
91374.6
91344.5
91316.4
91290.4
91263.2
91227.8
91190.5
91156.1
91115.1
91068.6
91006.6
90928
90858.3
90775.5
90684.1
90546.4
90410.6
90262.6
90096.3
89905.7
89691.2
89437.4
89202.9
88958.2
88686.2
88426.6
88152.9
87839.7
87519.2
87182
86815.9
86400.3
85948.8
85495
85052
84566.3
83951.3
83362.6
82886
82455.6
81928.8
81449.8
81022
80773.3
80660.9
80571.3
80625.6
80702.2
80861.4
81120
81459.2
81864.8
82299
82800.3
96788.2
96785.5
96786.9
96792.2
96801.6
96814.4
96828
96843.8
96863.1
96886.6
96914.6
96947.8
96985.6
97024.7
97068.7
97117.3
97170.4
97227.8
97289.5
97355.6
97425
97496.1
97567.4
97638.5
97709.6
97781.5
97854.6
97927.8
98000.1
98071.6
98142.4
98211.9
98279.9
98346.2
98410.2
98471.5
98529.7
98584.2
98634.9
98681.5
98723.8
98761.8
98795.4
98824.9
98850.4
98872.3
98890.6
98905.7
98917.6
98926.4
98932.2
98935
98934.7
98931.7
98926.3
98917.9
98906.5
98892.2
98875
98853.7
98828.4
98801
98771.8
98739.5
98702.7
98662.1
98618.9
98572.8
98523.9
98472
98416.2
98356.5
98291.8
98221.4
98144.3
98060.3
97969.8
97872.3
97768.2
97657.1
97539.7
97416.5
97286.5
97149.7
97005.9
96855.3
96699.6
96538.9
96373.6
96204
96029.8
95851.2
95669
95484
95294.9
95104.7
94912.2
94718.8
94525.6
94331.9
94139.6
93949.9
93763.6
93580.9
93403.3
93231.2
93064.9
92907.5
92758.9
92616.6
92483.8
92359.3
92243.6
92140.1
92046.1
91965.2
91894.5
91830.7
91780.4
91739.9
91702
91670.9
91650.9
91637.3
91624.2
91606.3
91591.8
91578.4
91566.2
91555.9
91546.8
91525.8
91517.4
91506.6
91488.1
91468
91438.4
91385.8
91338.6
91286.2
91226.6
91128.1
91018.4
90888.3
90756.4
90602.2
90392.5
90170.9
89985.1
89761
89498
89264.6
89020.5
88739.8
88429
88104.9
87763.6
87351.5
86912.1
86465.6
85957.1
85490.4
84847.9
84225.7
83757.1
83345.7
82825.5
82312.5
81827.3
81544.9
81432
81321.3
81315.2
81351.5
81483.8
81710
82015.9
82391.5
82772.1
83217.5
97376.3
97372.6
97371.9
97374.3
97380.5
97390
97402.1
97416.8
97434.3
97455.8
97481.4
97511.1
97545.3
97584
97626.9
97673.8
97724.7
97779.6
97838.1
97899.7
97963.9
98029
98095.5
98162.8
98231
98300.3
98370.3
98439.8
98508.4
98576.2
98643
98708.3
98771.8
98833.1
98891.8
98947.5
98999.8
99048.2
99092.4
99132.2
99167.2
99197.5
99223.2
99244.2
99260.9
99273.2
99281.7
99286.5
99287.9
99286.1
99280.9
99272.6
99261.1
99246.4
99228.9
99208.8
99185.8
99159.9
99131.1
99098.6
99061.8
99022.5
98981.4
98937.7
98890.3
98839.1
98784.8
98727.3
98667.1
98604.4
98539
98469.7
98396
98316.7
98231.5
98139.5
98041
97935.8
97824
97705.7
97580.6
97449.4
97311.8
97167.9
97017.7
96860.7
96698.4
96531.2
96359.7
96184.1
96004.8
95821.9
95635
95445.8
95253.4
95060.1
94865.4
94670.1
94476.8
94283.4
94091.9
93904.1
93721
93543.1
93370.6
93205.7
93046.5
92896.1
92757.1
92625.6
92502.2
92390.5
92287.8
92196
92116.2
92045.5
91990.2
91941.2
91900.4
91875.7
91854
91836.4
91830.8
91833.9
91840.5
91844
91847.2
91853.9
91861.5
91870.2
91871.4
91885.8
91899.9
91912.3
91917
91921
91923.8
91906.1
91881.9
91864.5
91831.8
91784.7
91702.5
91600
91496.3
91378.3
91184.2
90995.1
90845.8
90657.4
90421.1
90206.3
89986.5
89734.2
89433.3
89127.4
88803.1
88397.8
87977.5
87531.2
87010.9
86505.2
85887.6
85240.4
84746.9
84331.1
83811.2
83234.7
82733.1
82376.2
82260.1
82136.1
82070.1
82077.4
82174.8
82359.9
82630.9
82966.1
83300.4
83700.3
97968.5
97963.4
97958.8
97956.6
97958.7
97965.3
97973.6
97985.2
98000.3
98019
98041.3
98067.7
98098.8
98134.3
98174
98217.9
98266
98317.9
98373
98431
98491.1
98552.9
98616.1
98680.6
98746.2
98812.6
98879.2
98945.2
99010.2
99074.3
99137.1
99198.1
99257
99313.4
99366.8
99416.7
99462.8
99504.9
99542.8
99575.9
99604
99627
99644.9
99657.7
99665.6
99668.7
99667.3
99662.1
99653.1
99640.9
99625.4
99606.6
99584.2
99557.8
99528.5
99496.7
99461.9
99424.5
99384.2
99340.4
99292.4
99241.7
99189.3
99134.9
99077.9
99017.3
98953.3
98885.5
98815
98742
98667.1
98589.2
98507.3
98420.4
98327.6
98228.4
98123.2
98011.5
97893.2
97769.3
97638.8
97501.6
97358
97208.2
97052.6
96890.8
96723.5
96551.9
96376.1
96196.1
96012.5
95826.1
95635.9
95443.7
95249.1
95053.6
94857.5
94660.7
94467.3
94274.9
94084.3
93898.4
93718.1
93544.4
93377.3
93217.3
93065.3
92922.2
92791.1
92670.3
92556.4
92454.8
92365.6
92285.2
92219.8
92160.1
92116.3
92086
92056.7
92043.6
92039.5
92038.1
92046.5
92065.8
92093.3
92120.2
92142.5
92164.6
92190.2
92219.4
92259.1
92299.1
92339.2
92378
92406.9
92435.3
92468.9
92490.8
92497.7
92515.1
92515.4
92520
92469.7
92399.3
92322.2
92228.8
92069.5
91916
91787.2
91638.7
91452.4
91256
91048.1
90817.4
90529.3
90242.5
89934
89543.2
89146.2
88700.4
88185.3
87645.9
87097.5
86431.8
85858.9
85415.7
84889
84242.1
83755.1
83276.2
83171.7
83017.6
82903.8
82888.2
82946.8
83078.8
83302.4
83586.1
83878.7
84232.9
98562.5
98555
98544.5
98534.3
98529.8
98531.1
98534.3
98541.4
98552.8
98567.6
98586.6
98609.3
98636.5
98668.1
98704.4
98745
98789.7
98838.2
98890.1
98944.7
99001.6
99060.6
99121.4
99183.6
99246.7
99310.3
99373.8
99436.5
99498.1
99558.6
99617.5
99674.3
99728.8
99780.4
99828.7
99873.1
99913.5
99949.6
99981.1
100008
100029
100045
100055
100060
100060
100055
100044
100029
100011
99988.4
99962.4
99932.9
99899.6
99862.5
99822.3
99779.1
99732.8
99684
99632.7
99578.2
99519.8
99458.4
99395.1
99329.8
99263.5
99195.2
99123.9
99047.9
98968.2
98886.2
98802.4
98716.5
98627
98533.2
98434.1
98329.2
98218.3
98101.5
97978.4
97849.6
97715.1
97574.2
97427.1
97273.4
97114
96949.2
96778.8
96604
96425.7
96243.1
96057
95868.6
95676.5
95481.9
95286.3
95089.6
94893.2
94695.6
94501.9
94310.9
94121.7
93937.5
93759.9
93589.4
93427.2
93271.8
93125.8
92990.1
92866.2
92753.3
92651.3
92558.3
92480.9
92412.6
92359
92315
92279.8
92264.2
92252.8
92248.3
92259.7
92278
92301.8
92337.7
92387
92439
92487.2
92534
92581.1
92637.2
92700.7
92766.7
92835.6
92907.1
92963.8
93019.6
93084.1
93144.6
93191.1
93242.5
93281.6
93333
93323.7
93280
93234
93166.9
93052.1
92930.2
92812.2
92701.2
92577.1
92410
92205.1
91990.4
91723.2
91453.2
91159.7
90792.7
90421.2
89980.5
89466.4
88910.4
88410.2
87746.7
87086.7
86599.2