/*--------------------------------*- C++ -*----------------------------------*\
| =========                 |                                                 |
| \\      /  F ield         | OpenFOAM: The Open Source CFD Toolbox           |
|  \\    /   O peration     | Version:  dev                                   |
|   \\  /    A nd           | Web:      http://www.openfoam.org               |
|    \\/     M anipulation  |                                                 |
\*---------------------------------------------------------------------------*/
FoamFile
{
    version     2.0;
    format      ascii;
    class       volScalarField;
    object      p_0;
    location    "9.164";
}
// * * * * * * * * * * * * * * * * * * * * * * * * * * * * * * * * * * * * * //

dimensions      [1 -1 -2 0 0 0 0];

internalField   nonuniform List<scalar> 
12225
(
105132
105111
105094
105085
105065
105045
105011
104976
104921
104867
104782
104697
104581
104461
104300
104125
103770
102789
105116
105097
105081
105072
105052
105034
104998
104965
104909
104857
104771
104687
104572
104453
104299
104131
103801
103179
105084
105067
105051
105043
105023
105005
104969
104938
104880
104833
104745
104663
104549
104434
104285
104126
103845
103466
105029
105016
105001
104992
104972
104955
104919
104890
104830
104787
104699
104619
104509
104400
104255
104117
103888
103689
104947
104936
104922
104913
104894
104877
104842
104813
104754
104716
104627
104546
104443
104333
104202
104062
103901
103780
104829
104822
104808
104800
104781
104764
104731
104702
104646
104608
104526
104446
104350
104249
104131
104007
103875
103766
104664
104663
104650
104642
104624
104607
104576
104547
104498
104457
104386
104307
104222
104130
104032
103930
103821
103717
104482
104483
104472
104462
104446
104428
104401
104371
104329
104283
104230
104151
104076
103992
103909
103818
103730
103636
104288
104287
104279
104268
104254
104236
104212
104183
104145
104099
104060
103981
103915
103840
103770
103688
103615
103534
104033
104032
104024
104013
104001
103983
103962
103934
103902
103858
103830
103753
103700
103634
103576
103508
103450
103385
103700
103696
103689
103678
103667
103650
103631
103606
103579
103542
103519
103449
103412
103357
103310
103259
103216
103170
103259
103256
103249
103238
103228
103212
103196
103174
103154
103125
103102
103054
103026
102984
102953
102919
102892
102866
102691
102681
102676
102665
102655
102641
102629
102612
102596
102576
102558
102529
102518
102490
102475
102461
102451
102446
101945
101939
101935
101925
101916
101904
101895
101883
101874
101864
101856
101847
101845
101840
101842
101850
101859
101874
100990
100994
100990
100982
100974
100965
100958
100954
100952
100954
100959
100967
100980
100996
101019
101046
101078
101116
99822.4
99818.9
99813.1
99805.2
99797.6
99791.6
99789.2
99791.1
99798.4
99811.2
99830.1
99854.9
99886
99923.3
99966.8
100016
100071
100132
98385.1
98393.6
98388.3
98380.1
98372.7
98368.7
98370.2
98378.3
98394.1
98418.2
98450.6
98491.6
98540.8
98598
98662.8
98734.5
98812.4
98895.9
96851.8
96858.7
96851.4
96841.5
96833.4
96830.1
96833.8
96846.3
96868.6
96901.4
96944.9
96999
97063.4
97137.3
97220.2
97311.1
97408.9
97512.8
95471.4
95470.8
95460.6
95449.2
95440.2
95436.8
95441.4
95455.9
95481.8
95519.8
95570.2
95633
95707.6
95793.2
95889
95993.7
96106.3
96225.4
94340.9
94335.8
94324.4
94312.3
94302.4
94298.1
94302.2
94317.1
94344.3
94384.8
94439
94506.8
94587.7
94680.8
94785
94898.9
95021.5
95151.2
93428.5
93429.1
93420.1
93408.6
93398.4
93393.3
93396.5
93410.8
93437.9
93479.2
93535.1
93605.5
93690
93787.7
93897.2
94017.4
94146.7
94283.7
92716.3
92723.4
92717.9
92707.3
92696.7
92690.5
92692.4
92705.6
92732.2
92773.4
92829.9
92901.8
92988.4
93088.8
93201.8
93326
93459.7
93601.7
92174.5
92187.5
92184.9
92174.9
92163.8
92156.5
92157.2
92169.3
92194.9
92235.7
92292.2
92364.6
92452.3
92554.4
92669.5
92796.3
92933.1
93078.4
91776.4
91793.3
91790.8
91780.3
91768.2
91759.6
91759.1
91770
91794.7
91834.9
91891.3
91963.9
92052.2
92155.3
92271.8
92400.2
92539.1
92686.7
91493.3
91508.3
91504.3
91493.3
91481
91471.5
91470.2
91480.1
91504.1
91543.8
91599.9
91672.4
91761
91864.6
91982
92111.6
92251.8
92401
91299.9
91312.1
91308.9
91296.6
91281.1
91269.2
91267
91276.1
91299.5
91338.7
91394.5
91467
91555.7
91659.6
91777.5
91907.9
92049.1
92199.3
91170.3
91178.8
91173.1
91159.9
91145.1
91134.4
91130.3
91138.4
91161.5
91200.3
91255.8
91328.2
91416.9
91521
91639.3
91770.1
91911.8
92062.9
91089.4
91094.5
91086.9
91073.2
91058.2
91047.1
91043.7
91051.8
91074.1
91112.5
91167.8
91240.1
91328.9
91433.2
91551.6
91682.8
91824.9
91976.4
91045.9
91047.1
91037.8
91023.8
91008.8
90997.8
90994.4
91002.9
91025.1
91063.2
91118.4
91190.6
91279.4
91383.8
91502.4
91633.7
91776.1
91928
91032.8
91027.6
91017.2
91003
90987.8
90976.5
90973.3
90981.8
91004
91042.2
91097.3
91169.6
91258.5
91362.9
91481.6
91613.1
91755.7
91907.9
92268.3
92270.6
92275.6
92283.7
92294.7
92308
92323.9
92342
92362.1
92384.1
92408.1
92434
92462.2
92492.6
92525.5
92561
92599
92639.6
92683.2
92730
92779.7
92832.5
92887.9
92945.8
93006.6
93069.7
93135
93202.7
93272
93343.4
93417.2
93492.6
93570
93650.1
93732
93815
93899.5
93986.4
94074.6
94162.7
94254.1
94349.6
94444
94536.8
94631.5
94729.8
94830
94933.5
95037.4
95140.7
95244.3
95348.5
95453.7
95560
95666.7
95773.9
95881.1
95988
96094
96198.7
96301.6
96401.9
96499.1
96591.7
96679.9
96763.1
96840.8
96912.4
96977.2
97034.9
97085.2
97127.8
97162.4
97188.9
97207.1
97216.9
97218.2
97210.8
97194.6
97169.9
97136.7
97094.9
97044.9
96986.9
96921
96847.6
96767
96679.7
96586.6
96487.6
96382.8
96272.6
96156.9
96038.8
95909.9
95785.1
95656.4
95524.3
95388.6
95249
95105.2
94957.2
94804.8
94647.7
94486.1
94319.9
94149.4
93974.8
93796.4
93615
93431.6
93247.8
93065.3
92885.5
92709.7
92538
92370.4
92206.7
92046.5
91889.9
91734.4
91578.3
91421
91261.9
91101.7
90941
90779.6
90615.6
90446.7
90271.3
90087.2
89892.7
89686
89466
89231.9
88983.4
88719.1
88441.8
88150.2
87845.5
87524
87190.3
86850
86489.6
86120.3
85742.3
85352.2
84950
84532.1
84098.8
83651.4
83187.4
82711.2
82227.3
81736.4
81242
80743.4
80237.3
79733.4
79246.6
78774.6
78303.7
77831.1
77372.4
76943.3
76553
76214.2
75938.3
75740.2
75621.7
75571.9
75605.1
75714.6
75902.8
76206.7
76574.1
76963.9
77416.3
77907.4
78449.3
92334.3
92336.5
92341.2
92348.7
92358.9
92372.3
92388.1
92405.9
92425.7
92447.5
92471.2
92497.1
92525.3
92555.9
92589.2
92625.3
92662.6
92702.6
92745.8
92792.2
92841.8
92894.3
92949.7
93007.8
93068.7
93131.7
93196.9
93264.4
93334.1
93405.6
93479.1
93554.4
93631.9
93711.4
93794.2
93877.7
93962
94049.2
94136.8
94224.8
94314.1
94409.2
94506
94604.4
94697.8
94786
94880.5
94981
95083
95185.2
95287.6
95390.5
95494.1
95600.8
95705.7
95811.4
95917.4
96022.8
96127.1
96230.1
96331.2
96429.6
96524.7
96616.2
96702.5
96783.8
96859.8
96929.3
96992.1
97047.7
97095.9
97136.2
97168.7
97193
97208.9
97216.4
97215.4
97205.7
97187.3
97160.1
97124.6
97080.6
97028.3
96968.1
96900.1
96824.7
96742.1
96652.9
96557.5
96456.4
96350
96238.1
96121.1
96000.1
95874.7
95746.8
95616.3
95483.5
95347.2
95207.2
95063.3
94915.3
94763.2
94606.9
94446
94280.8
94111.6
93938.4
93761.7
93582.2
93400.6
93218.5
93037.5
92860
92686.8
92517.8
92352.5
92190.9
92033.1
91878.9
91726.3
91572.6
91416.8
91258.7
91099.1
90939.4
90779.5
90616.9
90449.3
90275.1
90091.7
89897.4
89691.5
89472.7
89239.6
88992.7
88730
88453.9
88162.9
87858.4
87539.6
87206.8
86869.2
86510.5
86142.7
85765.6
85376.7
84976.9
84561.4
84129.5
83684
83222.8
82746.7
82264.3
81774.9
81282.3
80785.4
80277.3
79772.5
79288
78819.1
78351.8
77876.2
77414.7
76987.6
76594.4
76250.9
75970.7
75768.9
75650.2
75597.5
75626.8
75728.6
75913.2
76218.9
76589.6
76980.3
77432.4
77922.4
78466.5
92466.5
92468.6
92473.1
92480
92489.5
92501.8
92516.6
92533.5
92552.5
92573.6
92596.9
92622.5
92650.4
92680.6
92713.2
92747.9
92786.2
92827.2
92870.7
92917
92966.3
93018.5
93073.9
93132.4
93193.1
93256.4
93322.6
93390.5
93460
93532.1
93605.7
93680.8
93758.6
93839.9
93923.5
94003.6
94086
94171.6
94260.5
94352.3
94445.8
94531.3
94616.8
94707.6
94799.4
94890.1
94982.7
95078.3
95175.9
95275.4
95375.1
95475.6
95577.1
95679.9
95782.8
95885.9
95988.9
96091.4
96192.6
96292.3
96389.5
96484.4
96575.7
96665.3
96747.8
96825.1
96896.8
96962.2
97020.9
97072.4
97116.4
97152.5
97180.6
97200.5
97211.9
97215
97209.5
97195.2
97172.3
97140.6
97100.5
97052
96995.3
96930.8
96858.6
96779.1
96692.6
96599.5
96500.3
96395.4
96285.2
96170.4
96050.9
95927.4
95800.5
95670.8
95537.8
95402.6
95265
95124.2
94979.7
94831.6
94680.1
94524.7
94365.3
94201.9
94034.9
93864.5
93691.4
93516
93338.7
93160.3
92983.1
92809.9
92642
92478.4
92317.8
92160.7
92006.7
91857.1
91709.7
91560.5
91408.1
91252.5
91095.1
90937.7
90780.2
90620
90454.6
90282.3
90100.2
89906.7
89703.4
89487.2
89255.7
89009.3
88750.9
88477.1
88188.7
87886
87570.6
87239.2
86905.5
86550.3
86185.8
85811.5
85424.7
85028.8
84619.3
84191
83749.5
83291.6
82817.7
82339.3
81852.7
81362.9
80870
80360.8
79853
79370.9
78906.5
78441.6
77967
77502.4
77071
76678.4
76326.6
76036.3
75833.6
75703.2
75647.7
75669
75761.1
75936
76245.1
76625.2
77016.1
77466.5
77955.9
78502
92663.2
92665.1
92669.3
92675.5
92684
92695.1
92708.6
92724.4
92742.6
92763
92785.8
92810.9
92838.5
92868.5
92900.9
92936
92974.5
93015.8
93059.6
93106.2
93155.4
93207.4
93262.3
93320.2
93381.3
93444.4
93510.4
93579.3
93649.8
93721.8
93795
93869.8
93947
94025.8
94103.2
94185.1
94270.9
94358.1
94440.8
94522.7
94608.6
94694.2
94778.8
94864.6
94951.6
95039.6
95129.3
95220.8
95315.8
95410.8
95506.7
95603.5
95701.2
95799.7
95898.6
95997.5
96096.2
96194.2
96291.1
96386.5
96477.3
96567.6
96654
96736.6
96813.9
96885.6
96951.5
97010.9
97063.5
97108.8
97146.5
97176.3
97198.1
97211.5
97216.4
97212.9
97200.8
97179.8
97150.3
97112.1
97065.3
97010.3
96947.2
96876.4
96798.1
96712.7
96620.5
96521.8
96417.1
96306.9
96191.6
96071.9
95948.2
95821.4
95691.4
95558.5
95423.6
95284.9
95145.5
95003.3
94858
94709.8
94558.9
94405.1
94247.7
94087
93923.5
93757.4
93589.3
93419.6
93248.5
93076.8
92906.3
92740.2
92579.5
92423
92269.4
92118.6
91970.7
91826.9
91685.5
91542.3
91395
91243.6
91090.4
90936.9
90782.8
90625.1
90462.6
90293.3
90113.6
89922.4
89722.3
89510.3
89281.8
89039.2
88784.1
88515
88227.5
87928.5
87618.3
87289.7
86960.7
86610.2
86249.8
85880.5
85497.3
85105.9
84703.9
84280.3
83846.7
83394.9
82924.6
82451.5
81968.5
81481.8
80999.7
80492.9
79979.3
79497.2
79035.4
78580.7
78104.1
77637.6
77210.4
76810.2
76449
76149.9
75937.9
75799.6
75728.1
75739.7
75821.4
75991.4
76299.3
76676
77072.4
77518.1
78007.2
78558
92922.6
92924.4
92928.4
92933.5
92941.2
92951.3
92963.6
92978
92994.8
93014
93035.5
93059.8
93087
93117.1
93151
93185.5
93223.5
93265.2
93310.1
93357.7
93407.7
93459.8
93514
93571.2
93631.2
93695.3
93762.5
93830.6
93900.6
93972.5
94046
94121.4
94198.1
94276.9
94354.4
94429.4
94506.1
94586.5
94666.7
94746.1
94826.1
94906.5
94987.4
95069.2
95152.1
95236.3
95322.2
95409.6
95499.6
95590.5
95681.6
95773.5
95866.1
95959.1
96052.3
96145.4
96238
96329.7
96420.5
96509
96594.5
96677.2
96756.2
96831
96900.8
96964.9
97022.9
97074.4
97119
97156.3
97185.9
97207.6
97221.1
97226.1
97222.5
97210.4
97189.8
97160.2
97122
97075.3
97020
96956.6
96885.4
96806.5
96720.4
96627.5
96527.9
96422.2
96310.7
96193.8
96072.2
95946.5
95817.3
95685.3
95551
95414.1
95275.3
95134.9
94992.4
94848.3
94702.1
94553.9
94404.1
94252.2
94097.7
93940.9
93782
93621.2
93459.6
93297.2
93134.2
92971.1
92809.6
92652.4
92500.1
92352
92207
92064.7
91924.7
91788.4
91654.6
91518.7
91378
91232.8
91085.3
90936.7
90785.9
90632.4
90474.2
90308.7
90133.3
89944.6
89747.4
89541.2
89319.5
89080.8
88830.1
88566.9
88282.7
87986.5
87682.9
87359.7
87037.1
86692.8
86336.9
85973.4
85595.2
85209.5
84812.8
84395.4
83972
83529.8
83065.4
82600.6
82124.1
81638
81166.8
80671.8
80154.5
79662.7
79196.9
78747
78280.5
77814.6
77391.4
76987.7
76614.4
76301.5
76075.8
75929.4
75838.2
75840.5
75911.2
76082.9
76384.6
76752.1
77148.9
77589
78076.4
78633
93243.2
93244.1
93246.5
93252.2
93259.7
93268.8
93279.7
93292.7
93308.2
93326
93346.3
93369.1
93394.5
93422.4
93453.1
93489.4
93528.7
93571.3
93617.4
93666.4
93717.6
93770.5
93825.5
93883.5
93944.4
94007.6
94073.4
94141.7
94211.1
94282.4
94356.7
94432.2
94505.6
94577.2
94649.1
94721.3
94794.2
94868.1
94942.3
95016.8
95091.8
95167.5
95244.2
95321.9
95400.6
95480.4
95561.6
95644.1
95728.5
95812.9
95897.9
95983.4
96069.3
96155.4
96241.5
96327.2
96412
96495.9
96578.2
96658.6
96736.1
96810.2
96880.4
96945.9
97006.3
97061.1
97109.6
97151.5
97186.3
97213.8
97233.6
97245.3
97248.8
97243.7
97229.9
97207.7
97176.8
97137
97088.4
97031.5
96966.1
96892.7
96811.7
96723.3
96627.9
96525.8
96417.7
96303.6
96184.1
96059.6
95930.6
95798
95662.5
95524.4
95384.6
95243
95099.7
94955.5
94810.5
94664.4
94517.2
94369.2
94220.6
94071
93920.1
93768
93615.2
93461.5
93307.3
93153.1
92999.1
92845.7
92694.8
92547.7
92405
92266.7
92132
92000
91869.9
91742.9
91617.9
91490.3
91357.4
91220.5
91080.4
90937.6
90792.5
90644.1
90490.6
90330
90159.7
89975.7
89782.1
89579.2
89363.7
89133.9
88889
88632.5
88356.6
88063.4
87765
87449.6
87133.6
86797.3
86448.9
86092.9
85719
85338
84945.6
84537
84124.4
83694.1
83238.7
82784.3
82318.2
81833.6
81369.7
80892
80380.7
79877.7
79392.7
78951
78497.5
78028
77606.9
77204.8
76819.6
76490.9
76248.2
76090.6
75983.2
75979.8
76043.8
76215.5
76505.4
76858.4
77247.6
77682.5
78167.4
78728.8
93625.2
93625.7
93628
93632.4
93638.6
93646.5
93656.4
93668.9
93683.8
93700.9
93720.3
93742
93766.3
93793.5
93823.7
93858
93896.2
93938.3
93984.3
94033.4
94084.9
94138.7
94194.3
94252
94312.4
94376.3
94442.3
94509.4
94579.3
94651
94721.5
94790.5
94858.4
94925.8
94993.2
95060.8
95128.8
95197.1
95266.1
95335.7
95406.2
95477.3
95549.3
95622.1
95695.7
95769.9
95844.9
95920.3
95997.8
96074.5
96151.5
96228.9
96306.5
96384.1
96461.8
96538.8
96614.9
96689.5
96762.4
96833
96900.5
96964.6
97024.4
97079.4
97129
97172.7
97210.1
97240.7
97264.2
97280.4
97288.7
97289
97280.8
97264.1
97238.6
97204.5
97162
97110.8
97050.6
96982.3
96905.6
96820.7
96728.6
96629.5
96523.6
96411.2
96293.1
96169.8
96041.2
95908.2
95771.2
95630.9
95488
95343.2
95197.2
95050.6
94902.5
94754
94605.7
94457.7
94309.5
94161.6
94014.2
93866.9
93719.8
93573
93426.7
93280.5
93135
92989.9
92845.8
92703.6
92564.6
92429
92297.2
92170.3
92047.2
91926.4
91807.6
91691.4
91576.5
91458.7
91335
91207.1
91075.5
90940.3
90802
90659.7
90511.9
90357.1
90194.7
90018.2
89830.2
89630.5
89420.4
89200.9
88963
88715.6
88450
88163.6
87870.2
87561.8
87254.5
86926.9
86586
86239.5
85869.4
85494.4
85115.8
84711.9
84304.9
83888.5
83445
83001.1
82549.5
82071.6
81609.1
81149.7
80658.2
80147.5
79642.2
79200.9
78758.6
78281.1
77858.2
77457.9
77062.2
76716.5
76457.3
76283.6
76164.9
76161.7
76217.3
76388.1
76662.2
76991.6
77373.1
77802.9
78283
78848.3
94066.7
94066.7
94068.3
94071.8
94076.9
94084
94093.4
94105.2
94118.9
94134.5
94152.2
94172.4
94195.9
94222.8
94252.2
94286.3
94324.4
94366.2
94411.3
94459
94508.9
94560.7
94615.2
94673.9
94736.1
94799.7
94864.7
94932.6
95001.2
95067.6
95131.8
95195.1
95257.9
95320.7
95383.4
95446.2
95509.4
95573.1
95637.3
95702.1
95767.5
95833.3
95899.5
95966
96032.7
96099.6
96166.7
96234
96301.9
96369.9
96438.1
96506.6
96575.2
96643.8
96711.9
96779.2
96845.2
96909.7
96972
97031.5
97087.8
97140.2
97188.1
97231
97268.3
97299.4
97324.2
97342
97352.6
97355.9
97351.5
97338.8
97317.7
97287.8
97249.1
97201.8
97146.2
97082.2
97009.6
96928.8
96840.2
96743.2
96639.1
96528.2
96410.8
96287.3
96158.2
96024.6
95886.5
95744.1
95598.4
95450.1
95299.5
95147.4
94994.8
94842.3
94689.4
94536.5
94384.5
94234.2
94084.9
93937.1
93790.9
93646.1
93502.6
93360.8
93220.9
93082.6
92946.1
92811.4
92678.3
92547.9
92420.9
92297.9
92178.6
92064.8
91954.5
91846.4
91739.4
91635
91531.3
91424.7
91312.2
91194.7
91072.8
90946.3
90816.2
90681.5
90540.8
90393.3
90237.9
90071.3
89892.8
89700.5
89497.7
89285.6
89055
88817.2
88563.5
88285.8
88002.1
87699.4
87403.1
87087.9
86750.5
86412.9
86047.6
85679.6
85316.1
84919.2
84515.6
84117
83685.9
83252.2
82817.7
82351.6
81886.6
81439.4
80982.1
80473.3
79952.9
79500.7
79061.6
78578.4
78150.7
77750.6
77342.1
76978.4
76701
76516.2
76385.6
76384.8
76445.4
76601.4
76853
77155.6
77527.3
77950.2
78425.6
78993.8
94565.7
94564.9
94566
94568.8
94573.2
94579.5
94588
94598.3
94610.3
94624.1
94639.7
94657.5
94678.2
94702.7
94733.3
94768.3
94807.3
94849.2
94893
94938.9
94986.7
95037.4
95092.9
95152.3
95213.4
95276
95340.8
95405.8
95468.1
95527.6
95586.3
95644.4
95702.3
95760.2
95818.1
95876.3
95934.7
95993.5
96052.5
96111.7
96170.9
96230
96288.9
96347.6
96406.1
96464.3
96522.4
96580.6
96639.1
96697.8
96756.8
96815.8
96874.7
96933.1
96990.7
97047.1
97101.7
97154.3
97204.4
97251.3
97294.6
97333.9
97368.5
97397.8
97421.5
97438.9
97449.7
97453.4
97450
97439.3
97420.9
97394.4
97359.3
97315.3
97262.5
97200.8
97131
97053
96967
96872.9
96771.5
96662.1
96545.6
96422.4
96293.1
96158.2
96017.8
95873
95724.6
95572.7
95417.6
95260.6
95102.3
94942.9
94783.3
94624.4
94466.1
94308.9
94153.6
94000.7
93850.3
93702.1
93557.1
93414.8
93274.8
93138
93004.4
92874.1
92746.4
92622.5
92500.9
92383
92268.7
92159.7
92053.1
91952.2
91855.4
91760.8
91666.5
91574.8
91483.4
91389.1
91289.9
91184.4
91073.1
90956.6
90835.6
90709.8
90577.7
90437.9
90291
90134.9
89968.6
89786.9
89590.8
89387.4
89168.2
88939.4
88699
88431.1
88158.6
87864.2
87578.6
87281.2
86949.3
86619.5
86259.8
85896.1
85547.4
85164.3
84772.3
84381.6
83965.5
83541.3
83125
82674.7
82207.8
81761
81333.2
80845.9
80319.5
79851.2
79406
78918.6
78485.3
78083.5
77661.7
77279.5
76982
76792.3
76655
76659.8
76708.6
76848.8
77072.9
77354
77713.3
78123.4
78598
79163.9
95119.7
95118.4
95118.9
95121
95124.9
95130.6
95138.3
95147.8
95159
95171.8
95186.2
95202.8
95222.3
95246
95274.8
95308.5
95346.6
95387.4
95430
95474
95519.8
95569.7
95624.2
95681.3
95740.4
95801.5
95862.2
95919.9
95974.6
96028.4
96082
96135.2
96188.3
96241.2
96294.2
96347.3
96400.4
96453.5
96506.3
96558.6
96610.4
96661.6
96712.2
96762.1
96811.5
96860.5
96909.3
96958.1
97007
97056
97104.9
97153.5
97201.4
97248.3
97293.7
97337.5
97379.4
97418.6
97454.8
97487.6
97516.5
97541.2
97561
97575.7
97584.7
97587.4
97583.3
97572.1
97553.5
97527.8
97494.6
97453.7
97404.2
97345.9
97278.6
97202.3
97117.7
97025.3
96925.3
96817.4
96702.2
96579.9
96450.5
96315
96173.4
96026.8
95875.3
95719.5
95560.5
95398.8
95234.6
95068.7
94902.2
94735.4
94569
94403.8
94239.8
94078.1
93919.6
93764.2
93612.2
93463.8
93319.1
93179.2
93043.3
92911.4
92783.9
92661.3
92542.8
92429
92319.1
92213.6
92112.8
92015.7
91923.6
91836.2
91753.5
91673.1
91592.4
91513.7
91435.8
91355.1
91269.7
91177.9
91078.4
90973
90862.3
90746.6
90624.4
90494.6
90358.4
90211.9
90057.4
89890.7
89703.3
89509.4
89303.7
89086.8
88860.8
88605.8
88344.4
88061.5
87784.5
87506.3
87186.1
86866.1
86512.9
86150
85812.2
85450.3
85061.5
84684.4
84288.6
83873.3
83475.5
83043.6
82578.3
82119
81701.7
81248.5
80731.4
80248
79796.5
79305
78865.6
78462.2
78025.4
77624.2
77303.1
77109
76956.1
76960
76996.5
77123.4
77321.2
77582.1
77929.9
78324.4
78800.2
79357.3
95724.1
95722.2
95722.1
95723.7
95727.1
95732.3
95739.2
95747.7
95757.9
95770.1
95784.1
95800.1
95818.7
95841.1
95868
95899.4
95935.1
95973.7
96014.1
96055.8
96099.9
96148
96199.8
96254.2
96310.8
96366.6
96419.3
96469
96517.8
96566.6
96615.2
96663.4
96711.4
96759.1
96806.6
96853.9
96900.8
96947.1
96992.6
97037.3
97081
97123.7
97165.3
97205.9
97245.8
97285.1
97324.1
97362.9
97401.5
97439.8
97477.6
97514.5
97550.2
97584.2
97615.6
97646.5
97674.4
97699.1
97720.4
97738
97751.6
97760.3
97764
97762.5
97755.7
97743
97723.6
97697
97662.7
97621.1
97572.1
97515.8
97451.5
97378.7
97296.9
97205.9
97106.7
96999.9
96885.7
96764.5
96635.8
96500.4
96358
96209.7
96056.1
95897.7
95735
95568.6
95399.5
95228
95054.6
94880.4
94705.6
94531.3
94358
94186.7
94017.4
93851.1
93689.1
93531.4
93377.5
93228.4
93084
92945.9
92814
92687.5
92566.8
92451.6
92342.5
92236.3
92137.6
92043.3
91956.2
91872.2
91794.6
91720.8
91652.2
91586.6
91520.5
91455.2
91391.1
91324.9
91253.7
91176.5
91090.5
90997.7
90898.5
90794
90683.2
90564.7
90439.6
90306.8
90165.3
90007.8
89838.2
89658
89464.4
89261.7
89052.4
88813.4
88564.1
88297.4
88026.8
87766.6
87463.4
87153.2
86817
86453
86117
85784.5
85410.9
85043.1
84659.7
84252.4
83870.6
83458.5
83001.2
82536.7
82079
81676.8
81184.1
80687.9
80235.8
79744.3
79299
78882.1
78434.2
78013.4
77673.3
77434.3
77271.1
77288.1
77314.8
77431.7
77603.1
77846.9
78180.6
78558
79029.9
79576.2
96372.5
96369.9
96369.1
96370.1
96373
96377.5
96383.6
96391.4
96401.1
96412.6
96425.9
96441.1
96458.6
96479
96502.9
96530.5
96561.7
96596.2
96633.4
96673.5
96717.1
96764.6
96814.9
96866.5
96916.9
96963.8
97007.9
97051.2
97094.8
97138.3
97181.2
97223.8
97266.1
97308
97349.5
97390.3
97430.2
97469
97506.6
97543
97578
97611.6
97643.7
97674.5
97704.4
97733.4
97761.9
97789.8
97817.2
97843.8
97869.5
97894
97917
97938.3
97957.4
97972
97984.1
97993.1
97998.5
98000
97997.5
97990
97976.8
97957.8
97933.6
97904.3
97868.8
97826.8
97777.2
97719.8
97654.8
97582.4
97502.6
97414.8
97318.8
97213.5
97099.6
96978.3
96849.9
96715.3
96574
96426.2
96272.1
96111.4
95945.7
95776.1
95602.5
95425.5
95246.9
95066.1
94883.6
94701.2
94519.1
94337.4
94157.5
93980.1
93805.7
93634.8
93468.9
93308.6
93152.9
93002.8
92859
92722.5
92593.9
92472.1
92358.7
92250.7
92148.8
92051.7
91962.7
91879.3
91804.7
91734.2
91670.6
91610.5
91556.1
91505.1
91454.5
91403.2
91352.7
91301.6
91244.7
91182.4
91111.6
91032.7
90946.5
90854.4
90756.2
90650.6
90538.8
90419.9
90294.9
90152.9
90000.7
89837.4
89656
89466.4
89275.4
89056.9
88821.5
88571.8
88310.9
88065.3
87782
87483.6
87168
86808.5
86474.4
86176.6
85813.1
85456.7
85083.5
84683
84299
83916.1
83476
83023.1
82565.2
82140.2
81682.1
81178.1
80724.8
80232.8
79783.4
79345.9
78888.8
78449.5
78088
77826.8
77667.2
77651.3
77680.3
77778.2
77920.4
78149.7
78467.7
78830
79291.5
79821.2
97057
97053.6
97051.9
97051.9
97054
97058.1
97064
97071.7
97080.9
97091.9
97105
97119.6
97134.2
97152.4
97173.7
97197.7
97224.4
97254.4
97288.3
97326.4
97368.9
97414.6
97460.9
97505.6
97546.8
97585.2
97622.7
97660.8
97699
97736.5
97773.5
97810.1
97846.1
97881.6
97916.2
97949.8
97982.1
98013.1
98042.6
98070.2
98096
98119.8
98141.9
98162.5
98181.7
98199.9
98217.1
98233.4
98248.7
98262.7
98275.3
98286.4
98295.6
98302.8
98305.8
98306
98302.9
98296.1
98285.1
98269.7
98250.3
98226.6
98197
98160.7
98118.1
98070.6
98018
97959.5
97894.5
97821.9
97741.8
97653.9
97558.5
97455.6
97344.9
97226.3
97098.9
96963.9
96821.6
96673.4
96519.9
96360.1
96194.7
96023.5
95846.5
95666.2
95482.6
95295.8
95108.1
94918.9
94728.1
94537.5
94348.6
94160.5
93974.2
93791.1
93611.7
93436.5
93266.6
93103.1
92945.4
92794.3
92650.7
92515.4
92389.8
92271.7
92164.4
92063.8
91967.1
91880.6
91800.3
91727.2
91663.6
91606.3
91555.9
91509.9
91468.7
91431.8
91397
91360.3
91323.2
91287
91246
91199.7
91145.3
91081.5
91009.1
90930.4
90846.2
90755.8
90658.8
90553.5
90440.1
90320.8
90189
90046.2
89881.9
89706.2
89533.2
89338.5
89123.8
88886.7
88643.6
88407.3
88141.7
87860.1
87565.5
87222.6
86896.1
86596.7
86259.1
85924
85561.1
85172.6
84794.8
84420.8
84005.3
83571.3
83117
82672.6
82234.9
81766.2
81264
80757.4
80313.1
79864.8
79395.6
78938.7
78549.6
78292.8
78171
78072.3
78099.6
78160.3
78276.6
78489.7
78785.4
79148.4
79582.3
80098.2
97768.7
97764.6
97762.3
97761.6
97762.7
97765.6
97770.2
97776.3
97784.2
97793.8
97805.4
97819.4
97834.8
97851.9
97871.1
97892.7
97916.6
97943.7
97974.6
98009.2
98047
98086
98123.6
98158.8
98191.7
98223.7
98256.2
98289
98321.4
98352.8
98383.8
98414.2
98443.6
98472.2
98499.6
98525.5
98550
98572.7
98593.4
98612
98628.3
98642.3
98654.2
98664.1
98672.2
98678.9
98684.1
98688
98690.2
98690.6
98689.2
98685.4
98679.1
98670.1
98659.5
98645
98626.7
98604.3
98577.4
98545
98507.8
98466.8
98421.1
98368.7
98309
98243.5
98173.1
98097
98015.3
97927
97831.9
97730
97620.1
97502.8
97377.6
97245.4
97105.4
96957.9
96803.7
96643.2
96477.8
96307.3
96130.8
95949.5
95762.8
95572.4
95379.8
95184.7
94988.5
94791.6
94594
94396.5
94200.7
94006.7
93814.5
93626.4
93442.3
93262.7
93089.4
92922.4
92762.1
92610
92466.3
92331.7
92208.6
92093.9
91990
91895.9
91805.5
91726.9
91656.2
91592.3
91538.6
91493.7
91455.2
91423.9
91395.2
91371.1
91351.5
91329.9
91306.5
91284.1
91259.8
91230.9
91195.1
91147.7
91090
91026.4
90956.8
90882.7
90802.8
90714.1
90614
90519.1
90407.7
90288.2
90147.4
89986.9
89831.3
89659.7
89474.5
89251.2
89028.2
88799.9
88554.6
88290.1
88007.9
87692.2
87384.6
87077.1
86749.2
86420.2
86092
85724.9
85359.6
84993.1
84599
84175.9
83732.2
83286.7
82842.2
82421.7
81839
81307.1
80849.9
80445.7
79961.7
79485.9
79059.3
78810.6
78706.4
78556
78560.7
78580
78679.9
78875.6
79148.6
79505
79909.1
80404.3
98496.7
98491.7
98488.3
98486.4
98486
98487.2
98489.8
98494
98500
98507.6
98517.5
98529.8
98544.1
98560.2
98578.4
98598.5
98620.7
98645
98671.7
98700.9
98731.4
98761.8
98790.8
98818.4
98845.3
98872.5
98900.1
98927.4
98953.7
98979.1
99003.9
99027.7
99050.5
99072.1
99092.3
99110.7
99127.2
99141.4
99153
99162.2
99168.7
99172.7
99174
99173
99169.8
99164.5
99157.3
99148
99136.7
99123.2
99107.4
99088.9
99067.3
99043.5
99017
98986.8
98952.7
98914.5
98871.9
98823.5
98769.2
98710.6
98647.7
98579
98503.3
98421.2
98333.7
98240.7
98142.1
98037.9
97927.5
97811.1
97687.9
97557.6
97419.6
97274.2
97122.1
96963
96797.7
96626.6
96450.4
96270.1
96084.4
95894.1
95699
95500.1
95299.1
95096.8
94893.8
94690.3
94486.6
94283.4
94081.6
93882.4
93685.1
93492.4
93303.9
93120.4
92943.8
92773.5
92610.5
92456.8
92312.8
92178.4
92055.5
91945
91842.6
91754.2
91669.9
91596.6
91534.8
91480.6
91435.7
91401.6
91373.8
91355.4
91340.7
91327.9
91321.7
91316
91307
91297.9
91289.9
91279.3
91261.9
91234.3
91193.8
91147.7
91094.9
91037.9
90976.6
90907.3
90831
90754.6
90663.9
90565.5
90452.1
90311.6
90174.1
90026.1
89868
89672.7
89467.5
89250.3
89029.1
88787.7
88506.9
88218.1
87938.2
87634.1
87304.8
86999.4
86693.2
86350.8
85994.6
85639.4
85262.1
84841.4
84407.2
83971.8
83501.6
83058.2
82472.9
81918.9
81455.2
81084.2
80593.1
80093.5
79625.3
79351.2
79231.2
79089.8
79063.9
79045.8
79129.6
79307.9
79562.3
79902.1
80274
80732.2
99228.9
99222.6
99217
99212.5
99210.1
99209.7
99210.7
99212.7
99216
99221.3
99228.6
99237.9
99249.7
99264
99280.4
99298.4
99318
99339.1
99361.6
99385
99408.9
99431.8
99454.6
99476.8
99499.2
99522.1
99544.8
99566.6
99587.2
99606.9
99625.7
99643.1
99659.1
99673.5
99686.2
99696.9
99705.2
99710.9
99713.9
99713.9
99710.7
99704.5
99695.4
99683.3
99668.5
99650.9
99630.8
99608.4
99583.5
99556
99525.7
99492.3
99455.2
99416.6
99374.2
99328.3
99278.4
99224.3
99165.7
99101.4
99031
98955.7
98876
98790.9
98699.4
98601.6
98498
98388.8
98274.2
98154.7
98030.2
97899.9
97763.6
97620.8
97471.2
97314.6
97151.5
96982.1
96807.3
96627.2
96442
96252.4
96058.5
95860.6
95658.8
95453.5
95246.2
95037.7
94828.9
94620
94411.6
94204.1
93997.5
93793.7
93592.2
93395.3
93203
93015.6
92836.1
92662.8
92497.3
92341.5
92196.4
92062
91938
91831.7
91730
91642.9
91565.6
91497.6
91441.2
91396.5
91360.4
91335
91318.6
91309.1
91308.9
91308.7
91312.4
91322.8
91329
91333.7
91341.5
91348
91349.2
91336.6
91322.5
91296.8
91264.2
91227.9
91187.1
91140.8
91088
91031.4
90960.1
90881.9
90796.3
90683.9
90564.5
90444.5
90309.4
90152.6
89966.8
89768.4
89567.4
89352.3
89080.2
88808.9
88555
88274.3
87958.7
87669
87375.3
87054.9
86703.4
86366.7
85996.8
85577.7
85154.7
84719
84233.3
83747.1
83200.2
82629.2
82166.6
81788.9
81292.6
80758.3
80267.6
79947.5
79799.8
79679.1
79602.6
79568.4
79631.6
79787.9
80028.2
80342.8
80686.2
81110.4
99954.6
99947.3
99938.1
99927.4
99922.3
99920
99918.1
99917.7
99918.9
99921.7
99926.1
99932.2
99941
99952
99964.9
99979.7
99996.1
100014
100032
100051
100071
100089
100107
100126
100144
100163
100180
100197
100212
100226
100239
100250
100260
100267
100273
100275
100275
100273
100267
100258
100246
100230
100211
100188
100161
100132
100099
100064
100025
99984.2
99940.2
99893.4
99843.6
99787.9
99729.4
99667.5
99601.8
99531.9
99457.2
99377
99290.7
99199.4
99103.7
99003.3
98897.3
98785
98666.8
98542.4
98413
98278.9
98140.7
97997.9
97849.6
97695.5
97535
97368.4
97196
97018
96834.8
96647.4
96455.4
96258.8
96058.2
95854
95646.9
95436.7
95224.9
95012.4
94799.7
94586.8
94374.4
94163.7
93953.6
93746.2
93541.6
93341.4
93145.7
92954.7
92772.5
92596.8
92428.6
92270.6
92123.9
91989.1
91865.6
91756.7
91657.8
91571.5
91498.4
91436.1
91383.2
91345.1
91318.3
91300.1
91294.6
91293.2
91303.6
91319.4
91332.5
91355.2
91377.7
91396.9
91419
91441.9
91463.1
91475.7
91479.7
91477.3
91466.7
91454.6
91436.9
91416.3
91387.1
91353.1
91300.6
91243.3
91185.1
91106.2
91011.2
90920.1
90812
90695.9
90533.9
90359.4
90177.3
89980.1
89729.5
89475.8
89238.5
88991.1
88710.3
88426.3
88139.5
87837.9
87484.8
87152.9
86803
86387.1
85979.1
85535
85051.4
84557.6
84053
83458
82955.3
82561.1
82065.5
81481
80997.6
80613.7
80463.1
80315.9
80200.3
80155.6
80196.5
80324.2
80544.3
80826.8
81147.6
81549.6
100662
100652
100638
100623
100611
100605
100599
100596
100595
100595
100597
100600
100605
100613
100622
100634
100647
100661
100676
100692
100707
100722
100738
100753
100768
100782
100796
100807
100818
100827
100834
100840
100843
100844
100842
100838
100830
100819
100806
100788
100767
100742
100713
100679
100642
100601
100557
100509
100458
100404
100346
100285
100221
100151
100078
100001
99920
99834.6
99744.8
99649.5
99548.1
99441.4
99330.3
99214.6
99095.1
98970.6
98840.2
98702.9
98559.9
98412.5
98261.6
98106.9
97947.6
97783.4
97613.8
97438.7
97258.3
97073.3
96883.5
96689.9
96492.7
96291.5
96086.7
95878.3
95667.4
95454.5
95239.9
95024.7
94809.8
94594.7
94380.2
94167.5
93955.2
93745
93538.4
93335.6
93137.6
92943.6
92758.5
92580.9
92410.2
92250
92101.3
91964.7
91841.2
91729.9
91631.5
91545.9
91474.8
91415.5
91368.5
91333.6
91314.2
91303.3
91305.6
91315
91331.7
91360.7
91388
91418.6
91456
91492.1
91527.9
91566.7
91608.1
91643.7
91668.4
91694.8
91707.2
91719.9
91726.9
91732.8
91726.5
91719.5
91691.5
91658.2
91628.9
91584.3
91521.6
91459.6
91383.5
91307
91176.3
91023.1
90864.4
90684.6
90462.5
90225.4
89994.8
89777.5
89541.7
89275.7
88985.1
88669.5
88343.4
88001.6
87658.9
87276.6
86890.7
86444.5
85957.2
85458.7
84993.3
84381.1
83824.3
83402.1
82909
82284.1
81797.2
81360.7
81183.6
81003.6
80868.5
80810
80832.4
80924.8
81110.8