/*--------------------------------*- C++ -*----------------------------------*\
| =========                 |                                                 |
| \\      /  F ield         | OpenFOAM: The Open Source CFD Toolbox           |
|  \\    /   O peration     | Version:  dev                                   |
|   \\  /    A nd           | Web:      http://www.openfoam.org               |
|    \\/     M anipulation  |                                                 |
\*---------------------------------------------------------------------------*/
FoamFile
{
    version     2.0;
    format      ascii;
    class       surfaceScalarField;
    object      phi;
    location    "9.164";
}
// * * * * * * * * * * * * * * * * * * * * * * * * * * * * * * * * * * * * * //

dimensions      [1 0 -1 0 0 0 0];

internalField   nonuniform List<scalar> 
24170
(
1.71369e-06
2.67289e-06
4.60187e-07
2.02334e-06
-3.21893e-07
1.53163e-06
-7.94035e-07
1.19516e-06
-1.31056e-06
1.21762e-06
-1.58158e-06
9.46688e-07
-2.07173e-06
1.14561e-06
-2.2397e-06
8.04583e-07
-2.78193e-06
1.16171e-06
-2.75172e-06
5.75644e-07
-3.3653e-06
1.20237e-06
-3.21884e-06
4.31976e-07
-3.91645e-06
1.25946e-06
-3.44227e-06
8.11823e-08
-3.76637e-06
8.65324e-07
-1.76173e-06
-1.47638e-06
-6.58292e-07
-5.94086e-07
5.21132e-06
-5.39296e-06
3.43034e-06
4.3081e-06
2.41908e-06
3.93265e-06
1.49325e-06
3.32062e-06
7.16248e-07
2.80758e-06
7.65839e-08
2.66288e-06
-5.88542e-07
2.39522e-06
-1.15227e-06
2.46554e-06
-1.56043e-06
1.95344e-06
-2.14557e-06
2.46335e-06
-2.26016e-06
1.39582e-06
-2.84795e-06
2.47132e-06
-2.82352e-06
1.07922e-06
-3.45295e-06
2.53775e-06
-3.25406e-06
5.21224e-07
-4.38997e-06
2.62689e-06
-4.33282e-06
-9.31938e-07
-5.10897e-06
7.69289e-07
5.05185e-06
-4.3883e-06
4.15784e-06
5.70861e-06
3.67456e-06
5.39658e-06
2.98942e-06
4.94601e-06
2.34861e-06
4.35913e-06
1.61524e-06
4.27371e-06
9.85152e-07
3.87833e-06
4.42742e-07
3.83232e-06
-1.92533e-07
3.39606e-06
-7.27026e-07
3.78294e-06
-9.09489e-07
2.34827e-06
-1.56617e-06
3.8793e-06
-1.51626e-06
1.76176e-06
-2.43683e-06
4.17753e-06
-2.40028e-06
1.1844e-06
-3.6106e-06
4.52937e-06
-3.861e-06
-1.08789e-08
-6.06546e-06
3.6259e-06
5.62191e-06
-5.96808e-06
4.39608e-06
7.37742e-06
4.47168e-06
6.38955e-06
3.82289e-06
6.62092e-06
3.52547e-06
5.64623e-06
2.74187e-06
6.01462e-06
2.46653e-06
5.07781e-06
1.6353e-06
5.5617e-06
1.42453e-06
4.47857e-06
6.51025e-07
5.41096e-06
2.31923e-07
3.59912e-06
-5.36888e-07
5.46671e-06
-8.27004e-07
2.84611e-06
-1.77669e-06
5.909e-06
-2.00046e-06
2.17087e-06
-3.47938e-06
6.76007e-06
-3.41131e-06
6.50711e-07
-6.99861e-06
7.93263e-06
8.09762e-06
-8.72314e-06
4.53799e-06
9.64102e-06
4.81366e-06
7.26864e-06
4.02195e-06
8.52733e-06
3.91046e-06
6.82734e-06
3.00524e-06
7.95983e-06
2.89711e-06
6.18419e-06
1.91579e-06
7.51747e-06
1.79979e-06
5.53662e-06
9.55398e-07
7.17811e-06
5.49595e-07
4.90639e-06
-3.17353e-07
7.21572e-06
-6.43405e-07
4.02836e-06
-1.61064e-06
7.71814e-06
-1.99877e-06
3.38027e-06
-2.90682e-06
8.47324e-06
-3.5441e-06
2.07792e-06
-5.89045e-06
1.1059e-05
9.22495e-06
-6.24979e-06
4.96825e-06
1.21744e-05
4.76028e-06
8.71343e-06
3.88037e-06
1.06039e-05
3.77527e-06
8.07894e-06
2.8853e-06
9.9657e-06
2.69681e-06
7.4429e-06
1.70702e-06
9.55296e-06
1.47758e-06
6.77711e-06
7.33961e-07
8.91187e-06
3.3453e-07
6.27363e-06
-4.21616e-07
8.92164e-06
-6.67548e-07
5.19533e-06
-1.34172e-06
9.29717e-06
-1.91948e-06
4.84386e-06
-2.14101e-06
9.56119e-06
-3.76768e-06
4.55489e-06
-3.63592e-06
1.17573e-05
9.54746e-06
-3.14106e-06
5.67699e-06
1.45252e-05
5.34964e-06
1.0354e-05
4.36589e-06
1.28558e-05
4.19447e-06
9.46732e-06
3.31799e-06
1.20247e-05
3.0476e-06
8.84916e-06
2.13466e-06
1.15746e-05
1.78969e-06
8.19447e-06
9.53648e-07
1.08007e-05
5.94851e-07
7.66085e-06
7.12549e-08
1.04557e-05
-6.23994e-07
6.87292e-06
-8.24095e-07
1.04622e-05
-1.63921e-06
6.60564e-06
-1.85959e-06
1.07147e-05
-3.4526e-06
7.05802e-06
-2.71574e-06
1.19188e-05
1.05355e-05
-2.82416e-06
4.48276e-06
1.62011e-05
4.23522e-06
1.15839e-05
3.53867e-06
1.44969e-05
3.24196e-06
1.06717e-05
2.60459e-06
1.3542e-05
2.27124e-06
1.00289e-05
1.72967e-06
1.2941e-05
1.36591e-06
9.35796e-06
8.89319e-07
1.20632e-05
5.55294e-07
8.76177e-06
2.45009e-07
1.15251e-05
-3.86156e-07
8.24324e-06
-5.30478e-07
1.13298e-05
-1.22336e-06
8.0112e-06
-1.21918e-06
1.14137e-05
-2.20273e-06
8.73011e-06
-1.66773e-06
1.20637e-05
1.13969e-05
-1.86456e-06
5.14414e-06
1.81623e-05
4.83614e-06
1.29758e-05
4.24162e-06
1.6137e-05
3.73973e-06
1.21765e-05
3.17671e-06
1.50764e-05
2.65581e-06
1.14867e-05
2.20896e-06
1.42997e-05
1.65077e-06
1.08032e-05
1.2557e-06
1.33283e-05
6.51289e-07
1.0216e-05
3.03984e-07
1.27156e-05
-4.65787e-07
9.83752e-06
-5.80466e-07
1.22473e-05
-1.40888e-06
9.63516e-06
-1.31531e-06
1.21011e-05
-2.13809e-06
1.03251e-05
-1.67779e-06
1.23596e-05
1.2171e-05
-1.70605e-06
6.37302e-06
1.99414e-05
5.63048e-06
1.48992e-05
4.99614e-06
1.79074e-05
4.22579e-06
1.4034e-05
3.75413e-06
1.6601e-05
3.01599e-06
1.32424e-05
2.67235e-06
1.56333e-05
1.89514e-06
1.25458e-05
1.55041e-06
1.46175e-05
7.44075e-07
1.19479e-05
4.00514e-07
1.39777e-05
-3.94867e-07
1.15318e-05
-4.68497e-07
1.31985e-05
-1.32026e-06
1.13602e-05
-1.22236e-06
1.28595e-05
-1.87446e-06
1.18274e-05
-1.44303e-06
1.27633e-05
1.28555e-05
-1.30461e-06
7.45425e-06
2.21282e-05
6.3824e-06
1.72192e-05
5.90294e-06
1.9575e-05
4.85321e-06
1.62261e-05
4.42861e-06
1.81265e-05
3.42499e-06
1.53115e-05
3.09665e-06
1.69966e-05
2.163e-06
1.44922e-05
1.86163e-06
1.59083e-05
9.49807e-07
1.38398e-05
7.04303e-07
1.51932e-05
-1.43476e-07
1.33299e-05
-2.58592e-07
1.42475e-05
-9.62731e-07
1.29985e-05
-9.75118e-07
1.37904e-05
-1.41202e-06
1.31779e-05
-1.19453e-06
1.3446e-05
1.34338e-05
-8.85697e-07
8.59904e-06
2.42481e-05
7.34681e-06
1.97259e-05
6.92194e-06
2.11795e-05
5.62652e-06
1.86648e-05
5.15131e-06
1.96902e-05
3.93355e-06
1.75895e-05
3.57154e-06
1.83837e-05
2.49725e-06
1.65761e-05
2.13286e-06
1.72593e-05
1.1683e-06
1.57906e-05
9.53025e-07
1.63805e-05
1.19872e-07
1.51297e-05
-1.11388e-07
1.54336e-05
-7.75203e-07
1.46193e-05
-7.4815e-07
1.47121e-05
-1.04248e-06
1.44178e-05
-9.44405e-07
1.42854e-05
1.40832e-05
-6.66782e-07
1.0148e-05
2.65683e-05
8.61078e-06
2.24241e-05
8.03346e-06
2.28337e-05
6.57211e-06
2.11706e-05
5.95597e-06
2.12906e-05
4.64716e-06
1.98659e-05
4.08101e-06
1.98805e-05
2.93828e-06
1.86439e-05
2.4633e-06
1.86431e-05
1.51843e-06
1.76503e-05
1.21463e-06
1.75909e-05
4.78394e-07
1.67778e-05
1.83039e-07
1.66471e-05
-3.48049e-07
1.60713e-05
-4.34634e-07
1.57209e-05
-5.40305e-07
1.54512e-05
-4.61878e-07
1.51354e-05
1.48573e-05
-3.10416e-07
1.19515e-05
2.89254e-05
1.00775e-05
2.51946e-05
9.10772e-06
2.4624e-05
7.63238e-06
2.34319e-05
6.79409e-06
2.287e-05
5.56805e-06
2.18208e-05
4.82295e-06
2.13284e-05
3.68774e-06
2.04874e-05
2.96441e-06
2.00735e-05
1.96142e-06
1.93752e-05
1.36706e-06
1.89195e-05
6.30691e-07
1.82694e-05
2.82576e-07
1.77659e-05
-9.97206e-08
1.72461e-05
-3.24536e-07
1.67535e-05
-3.32508e-07
1.6286e-05
-2.2275e-07
1.58617e-05
1.54657e-05
1.25149e-08
1.36123e-05
3.04443e-05
1.19271e-05
2.7266e-05
1.07143e-05
2.61586e-05
9.23806e-06
2.52029e-05
8.02502e-06
2.43602e-05
6.67182e-06
2.34464e-05
5.56595e-06
2.27067e-05
4.40307e-06
2.1946e-05
3.48898e-06
2.13051e-05
2.57936e-06
2.0637e-05
1.88815e-06
2.00022e-05
1.23303e-06
1.93574e-05
7.32148e-07
1.87412e-05
3.28941e-07
1.81651e-05
5.0549e-08
1.75856e-05
-8.6527e-08
1.70158e-05
-6.34215e-08
1.64607e-05
1.59214e-05
1.27554e-07
1.52541e-05
3.13936e-05
1.37968e-05
2.8242e-05
1.23588e-05
2.70703e-05
1.08189e-05
2.62194e-05
9.30915e-06
2.53617e-05
7.80455e-06
2.4466e-05
6.45399e-06
2.36121e-05
5.23123e-06
2.27749e-05
4.19972e-06
2.20018e-05
3.29811e-06
2.12714e-05
2.51085e-06
2.0594e-05
1.82331e-06
1.99245e-05
1.24376e-06
1.92759e-05
8.12303e-07
1.86248e-05
5.21409e-07
1.79759e-05
3.6248e-07
1.73391e-05
3.63061e-07
1.66846e-05
1.60906e-05
4.72029e-07
1.81416e-05
3.17605e-05
1.61933e-05
2.83569e-05
1.44169e-05
2.70154e-05
1.2735e-05
2.61209e-05
1.1101e-05
2.5275e-05
9.50803e-06
2.44178e-05
8.00948e-06
2.35613e-05
6.61665e-06
2.27165e-05
5.35906e-06
2.19214e-05
4.24829e-06
2.11602e-05
3.29828e-06
2.04428e-05
2.49514e-06
1.97494e-05
1.84894e-06
1.90636e-05
1.36102e-06
1.83725e-05
1.03853e-06
1.76728e-05
8.7578e-07
1.69818e-05
8.34301e-07
1.63083e-05
1.56634e-05
9.36017e-07
1.82334e-05
3.03205e-05
1.63217e-05
2.71071e-05
1.45163e-05
2.57091e-05
1.2831e-05
2.47937e-05
1.12034e-05
2.40054e-05
9.60928e-06
2.32443e-05
8.09075e-06
2.24469e-05
6.71887e-06
2.16018e-05
5.51859e-06
2.07862e-05
4.49345e-06
2.00069e-05
3.6364e-06
1.92797e-05
2.91375e-06
1.86091e-05
2.32204e-06
1.79498e-05
1.8211e-06
1.73182e-05
1.41897e-06
1.66672e-05
1.11715e-06
1.60147e-05
9.09848e-07
1.53798e-05
1.47455e-05
8.13849e-07
1.61952e-05
2.79063e-05
1.48016e-05
2.47018e-05
1.33112e-05
2.34687e-05
1.18271e-05
2.26752e-05
1.03855e-05
2.19871e-05
8.99361e-06
2.13217e-05
7.67197e-06
2.06099e-05
6.4569e-06
1.98204e-05
5.37033e-06
1.90365e-05
4.42669e-06
1.8283e-05
3.61844e-06
1.7585e-05
2.93719e-06
1.69543e-05
2.36711e-06
1.63474e-05
1.88206e-06
1.5788e-05
1.48101e-06
1.52091e-05
1.13508e-06
1.46452e-05
8.77987e-07
1.40636e-05
1.34818e-05
6.97537e-07
1.47108e-05
2.49964e-05
1.31925e-05
2.21648e-05
1.17195e-05
2.0962e-05
1.03672e-05
2.01875e-05
9.14157e-06
1.95191e-05
8.01263e-06
1.89128e-05
6.9657e-06
1.82786e-05
5.95833e-06
1.76079e-05
5.00312e-06
1.69375e-05
4.13132e-06
1.62663e-05
3.33569e-06
1.56549e-05
2.64507e-06
1.50861e-05
2.04236e-06
1.45494e-05
1.52697e-06
1.40615e-05
1.11319e-06
1.35334e-05
7.65989e-07
1.30467e-05
5.05931e-07
1.25203e-05
1.20082e-05
3.04755e-07
1.31384e-05
2.17311e-05
1.19249e-05
1.92967e-05
1.0731e-05
1.81646e-05
9.61352e-06
1.74524e-05
8.5429e-06
1.68854e-05
7.51741e-06
1.63881e-05
6.52601e-06
1.58727e-05
5.57094e-06
1.53224e-05
4.67819e-06
1.47474e-05
3.83761e-06
1.41793e-05
3.07906e-06
1.36434e-05
2.4068e-06
1.31436e-05
1.826e-06
1.26688e-05
1.35471e-06
1.22233e-05
9.6156e-07
1.17614e-05
6.70746e-07
1.13148e-05
4.50345e-07
1.08506e-05
1.04034e-05
2.93059e-07
1.15405e-05
1.85136e-05
1.05977e-05
1.62805e-05
9.59835e-06
1.53055e-05
8.59362e-06
1.4738e-05
7.5909e-06
1.43128e-05
6.63602e-06
1.3914e-05
5.74575e-06
1.34776e-05
4.9191e-06
1.30105e-05
4.17355e-06
1.25007e-05
3.47123e-06
1.20332e-05
2.84477e-06
1.15702e-05
2.27401e-06
1.11573e-05
1.77036e-06
1.076e-05
1.34923e-06
1.03732e-05
9.83854e-07
9.98947e-06
6.99467e-07
9.59741e-06
4.6048e-07
9.20957e-06
8.8324e-06
2.75251e-07
1.02268e-05
1.52379e-05
9.45209e-06
1.33121e-05
8.59929e-06
1.25253e-05
7.76257e-06
1.20757e-05
6.93858e-06
1.17732e-05
6.12953e-06
1.14916e-05
5.3571e-06
1.1151e-05
4.6404e-06
1.07635e-05
3.96838e-06
1.03432e-05
3.35118e-06
9.95543e-06
2.78139e-06
9.5797e-06
2.25976e-06
9.25111e-06
1.79726e-06
8.92651e-06
1.39053e-06
8.61284e-06
1.0431e-06
8.29467e-06
7.50633e-07
7.96969e-06
5.07846e-07
7.64709e-06
7.33678e-06
3.1102e-07
9.35729e-06
1.22645e-05
8.55544e-06
1.06546e-05
7.74143e-06
9.97924e-06
6.96004e-06
9.62033e-06
6.25443e-06
9.36547e-06
5.60755e-06
9.14387e-06
4.99453e-06
8.89343e-06
4.39786e-06
8.61036e-06
3.8056e-06
8.30797e-06
3.23781e-06
8.01854e-06
2.69774e-06
7.73625e-06
2.20855e-06
7.47881e-06
1.77316e-06
7.21954e-06
1.39613e-06
6.96517e-06
1.07108e-06
6.70922e-06
7.92471e-07
6.44812e-06
5.61468e-07
6.18454e-06
5.94027e-06
3.6611e-07
8.31596e-06
9.55596e-06
7.68395e-06
8.12617e-06
7.00209e-06
7.58767e-06
6.32176e-06
7.34074e-06
5.68194e-06
7.15589e-06
5.07717e-06
7.00898e-06
4.51196e-06
6.82979e-06
3.96972e-06
6.63272e-06
3.44781e-06
6.42164e-06
2.94544e-06
6.22216e-06
2.47274e-06
6.02135e-06
2.03546e-06
5.83795e-06
1.64334e-06
5.64174e-06
1.30367e-06
5.44146e-06
1.00098e-06
5.25135e-06
7.49341e-07
5.03974e-06
5.29145e-07
4.84055e-06
4.65182e-06
3.4603e-07
7.45582e-06
6.81389e-06
7.03409e-06
5.68807e-06
6.52109e-06
5.32472e-06
5.96608e-06
5.22026e-06
5.36369e-06
5.17814e-06
4.73811e-06
5.15053e-06
4.14304e-06
5.0392e-06
3.59304e-06
4.896e-06
3.0939e-06
4.73339e-06
2.63616e-06
4.59202e-06
2.21536e-06
4.45375e-06
1.82845e-06
4.33476e-06
1.47782e-06
4.19983e-06
1.16815e-06
4.05376e-06
8.95119e-07
3.92003e-06
6.55088e-07
3.7655e-06
4.44771e-07
3.62329e-06
3.48179e-06
2.706e-07
6.57146e-06
4.43437e-06
6.31976e-06
3.36555e-06
5.91082e-06
3.23328e-06
5.38657e-06
3.33399e-06
4.81387e-06
3.42782e-06
4.23765e-06
3.49137e-06
3.66755e-06
3.46014e-06
3.11481e-06
3.38723e-06
2.58891e-06
3.2867e-06
2.09548e-06
3.20197e-06
1.63694e-06
3.11739e-06
1.22579e-06
3.0392e-06
8.61529e-07
2.94427e-06
5.37561e-07
2.84321e-06
2.54749e-07
2.7517e-06
-2.33875e-09
2.65212e-06
-2.16901e-07
2.54542e-06
2.45883e-06
-4.11627e-07
6.01903e-06
2.30989e-06
5.63548e-06
1.44417e-06
5.03222e-06
1.59413e-06
4.35865e-06
1.84441e-06
3.67402e-06
2.02684e-06
3.02553e-06
2.13224e-06
2.40606e-06
2.15011e-06
1.81268e-06
2.12968e-06
1.24857e-06
2.07881e-06
7.26849e-07
2.03096e-06
2.52371e-07
1.97837e-06
-1.68119e-07
1.92493e-06
-5.47397e-07
1.86665e-06
-8.85873e-07
1.80111e-06
-1.18042e-06
1.74028e-06
-1.44472e-06
1.68282e-06
-1.67331e-06
1.61027e-06
1.5572e-06
-1.86838e-06
5.31822e-06
3.7805e-07
4.48143e-06
2.24325e-07
3.47908e-06
5.92031e-07
2.52739e-06
8.60432e-07
1.6775e-06
1.00953e-06
9.36387e-07
1.07545e-06
2.77838e-07
1.08052e-06
-3.10346e-07
1.06047e-06
-8.41822e-07
1.02364e-06
-1.31405e-06
9.87555e-07
-1.73418e-06
9.53894e-07
-2.10299e-06
9.19749e-07
-2.43091e-06
8.90284e-07
-2.72448e-06
8.58788e-07
-2.97933e-06
8.25989e-07
-3.19842e-06
7.97483e-07
-3.38574e-06
7.55735e-07
7.30788e-07
-3.54135e-06
3.33721e-06
1.75215e-06
5.86641e-07
-2.51666e-07
-8.81551e-07
-1.38464e-06
-1.82046e-06
-2.21354e-06
-2.58069e-06
-2.92114e-06
-3.2327e-06
-3.5164e-06
-3.7685e-06
-3.99223e-06
-4.19041e-06
-4.36053e-06
-4.51795e-06
-4.64953e-06
4.39186e-08
-4.403e-08
1.50656e-08
2.33316e-08
4.17489e-08
-3.43942e-08
2.77924e-07
-2.45663e-07
8.15998e-07
-5.48185e-07
1.62363e-06
-8.19035e-07
2.628e-06
-1.01767e-06
3.73598e-06
-1.12413e-06
4.88706e-06
-1.17085e-06
6.02361e-06
-1.16131e-06
7.14158e-06
-1.14725e-06
8.21898e-06
-1.1123e-06
9.18034e-06
-1.00193e-06
1.00494e-05
-9.14488e-07
1.08138e-05
-8.18007e-07
1.14644e-05
-7.13973e-07
1.20218e-05
-6.32564e-07
1.24046e-05
-4.70211e-07
1.26744e-05
-3.70146e-07
1.28054e-05
-2.43775e-07
1.27763e-05
-9.98232e-08
1.27049e-05
-6.54637e-08
1.24405e-05
1.15035e-07
1.2156e-05
1.1518e-07
1.18942e-05
9.87013e-08
1.14889e-05
2.32603e-07
1.11663e-05
9.01003e-08
1.08558e-05
1.53595e-08
1.05471e-05
-9.73026e-09
1.04137e-05
-1.766e-07
1.03864e-05
-2.5749e-07
1.04214e-05
-3.19016e-07
1.06349e-05
-5.43645e-07
1.08914e-05
-6.09922e-07
1.10154e-05
-4.6117e-07
1.10525e-05
-4.01267e-07
1.10799e-05
-4.62488e-07
1.10025e-05
-3.72941e-07
1.06027e-05
9.09011e-09
1.02417e-05
5.50678e-09
1.07502e-05
-9.32489e-07
1.15558e-05
-1.36168e-06
1.20718e-05
-1.09577e-06
1.24116e-05
-8.7098e-07
1.26557e-05
-7.36565e-07
1.23408e-05
-2.04162e-07
1.12037e-05
5.90373e-07
9.72699e-06
9.65677e-07
8.28142e-06
9.69879e-07
6.94672e-06
8.70935e-07
5.73485e-06
7.55252e-07
4.65948e-06
6.26876e-07
3.72217e-06
4.98838e-07
2.92348e-06
3.72466e-07
2.2377e-06
2.73073e-07
1.68916e-06
1.50813e-07
1.2532e-06
5.45127e-08
9.21473e-07
-3.26244e-08
7.09402e-07
-1.3468e-07
5.8876e-07
-2.07762e-07
5.50978e-07
-2.72072e-07
5.8491e-07
-3.25532e-07
6.9571e-07
-3.84841e-07
8.68589e-07
-4.31301e-07
1.1088e-06
-4.84193e-07
1.37406e-06
-4.96057e-07
1.67624e-06
-5.21445e-07
2.02106e-06
-5.55199e-07
2.39204e-06
-5.74233e-07
2.78377e-06
-5.90151e-07
3.18098e-06
-5.93277e-07
3.59505e-06
-6.10444e-07
4.01335e-06
-6.1772e-07
4.40813e-06
-5.99998e-07
4.8031e-06
-6.08906e-07
5.20319e-06
-6.25842e-07
5.59002e-06
-6.27825e-07
5.93069e-06
-6.00239e-07
6.18983e-06
-5.40183e-07
6.41963e-06
-5.34447e-07
6.64854e-06
-5.60411e-07
6.74918e-06
-4.63683e-07
6.83861e-06
-4.84713e-07
6.82323e-06
-4.14993e-07
6.7298e-06
-3.75682e-07
6.53347e-06
-3.11939e-07
6.26436e-06
-2.785e-07
5.90324e-06
-2.25224e-07
5.4669e-06
-1.85359e-07
4.96418e-06
-1.51064e-07
4.37558e-06
-9.3853e-08
3.73618e-06
-6.74581e-08
3.10988e-06
-9.76081e-08
2.42507e-06
-4.69911e-08
1.75565e-06
-7.40798e-08
1.05355e-06
-3.04858e-08
3.32205e-07
9.4306e-09
-4.04593e-07
5.32551e-08
-1.13776e-06
8.85711e-08
-1.84857e-06
1.15414e-07
-2.51661e-06
1.31821e-07
-3.08522e-06
1.00087e-07
-3.59455e-06
1.15e-07
-4.0872e-06
1.78823e-07
-4.48752e-06
1.73385e-07
-4.79305e-06
1.69528e-07
-5.03892e-06
2.02197e-07
-5.27094e-06
2.80781e-07
-5.45031e-06
3.21638e-07
-5.56357e-06
3.46632e-07
-5.53382e-06
2.9003e-07
-5.30848e-06
1.73162e-07
-4.85054e-06
9.07339e-09
-4.19541e-06
-1.29456e-07
-3.33777e-06
-2.80892e-07
-2.33065e-06
-3.89255e-07
-1.16058e-06
-5.27011e-07
1.38146e-07
-6.37594e-07
1.6671e-06
-8.64065e-07
3.4695e-06
-1.17481e-06
4.76917e-06
-7.27964e-07
5.4998e-06
-1.55765e-07
6.31319e-06
-2.39603e-07
7.38343e-06
-5.93364e-07
8.43173e-06
-6.71183e-07
9.32191e-06
-5.53675e-07
9.96046e-06
-3.38972e-07
1.03402e-05
-1.27515e-07
1.03542e-05
1.78203e-07
1.01913e-05
2.84265e-07
9.91643e-06
3.4838e-07
9.25385e-06
7.03212e-07
8.55578e-06
6.71074e-07
8.04061e-06
4.22911e-07
7.64752e-06
2.4434e-07
7.49935e-06
-5.06254e-08
7.77863e-06
-5.24022e-07
8.20996e-06
-7.58626e-07
8.48341e-06
-6.68738e-07
1.04978e-05
-2.40049e-06
1.14152e-05
-1.36835e-06
1.26871e-05
-1.81434e-06
1.46961e-05
-2.55684e-06
1.51415e-05
-1.06285e-06
1.59669e-05
-1.49892e-06
1.61108e-05
-8.47227e-07
1.61309e-05
-7.4786e-07
1.59878e-05
-6.1977e-07
1.56424e-05
-4.43469e-07
1.53281e-05
-5.02024e-07
1.50301e-05
-5.56871e-07
1.46485e-05
-5.12315e-07
1.41894e-05
-4.97764e-07
1.37263e-05
-5.78738e-07
1.31555e-05
-5.43494e-07
1.28109e-05
-8.68894e-07
1.23577e-05
-8.68532e-07
1.14499e-05
-4.94544e-07
1.08086e-05
-8.6828e-07
1.05322e-05
-1.3117e-06
1.0375e-05
-1.48558e-06
1.02247e-05
-1.55539e-06
9.41553e-06
-8.41378e-07
8.77457e-06
-1.01033e-06
8.58304e-06
-1.54103e-06
7.82523e-06
-8.71574e-07
7.02802e-06
-7.8293e-07
6.29467e-06
-9.49377e-07
6.44751e-06
-1.98408e-06
6.47342e-06
-1.91179e-06
4.62407e-06
6.38615e-08
9.61025e-07
2.06184e-06
-3.70137e-06
3.02988e-06
-6.62829e-06
9.60491e-07
-4.29742e-06
-4.79658e-06
4.18874e-07
-7.45468e-06
1.76254e-06
-4.22964e-06
3.47965e-06
-4.926e-06
2.74728e-06
-2.76485e-06
-1.60369e-06
6.51496e-07
2.90276e-07
-3.20015e-07
4.65955e-07
-1.466e-07
7.20427e-07
-2.91372e-07
1.21093e-06
-7.4285e-07
1.97763e-06
-1.32141e-06
2.98468e-06
-1.8315e-06
4.09002e-06
-2.1282e-06
5.24808e-06
-2.28827e-06
6.39929e-06
-2.32988e-06
7.50105e-06
-2.27805e-06
8.54554e-06
-2.21044e-06
9.53492e-06
-2.12305e-06
1.04395e-05
-1.93686e-06
1.12601e-05
-1.75775e-06
1.19907e-05
-1.58105e-06
1.26994e-05
-1.45216e-06
1.32646e-05
-1.23853e-06
1.37844e-05
-1.06831e-06
1.41699e-05
-8.20061e-07
1.44239e-05
-6.17307e-07
1.46285e-05
-4.2273e-07
1.46343e-05
-1.87614e-07
1.46296e-05
-7.75022e-08
1.44961e-05
8.84513e-08
1.41261e-05
3.00619e-07
1.39426e-05
1.96385e-07
1.35941e-05
2.31235e-07
1.31645e-05
2.83495e-07
1.30596e-05
-4.63967e-08
1.29613e-05
-3.4666e-07
1.26315e-05
-2.73548e-07
1.24096e-05
-3.25557e-07
1.25373e-05
-9.02348e-07
1.2916e-05
-1.40383e-06
1.30873e-05
-1.09642e-06
1.28267e-05
-4.89885e-07
1.26625e-05
-5.60192e-07
1.30689e-05
-1.20559e-06
1.37565e-05
-1.37111e-06
1.43183e-05
-9.92892e-07
1.42862e-05
-1.06445e-06
1.31283e-05
-8.51825e-07
1.0923e-05
1.93777e-07
8.33852e-06
1.06966e-06
5.87535e-06
1.24846e-06
3.90206e-06
1.30098e-06
2.55019e-06
1.47209e-06
1.50123e-06
1.5484e-06
5.18456e-07
1.48939e-06
-3.86093e-07
1.31588e-06
-1.19279e-06
1.10785e-06
-1.88597e-06
8.72829e-07
-2.45965e-06
6.34348e-07
-2.92022e-06
4.0916e-07
-3.25047e-06
1.91987e-07
-3.48465e-06
-1.14243e-08
-3.61323e-06
-1.97461e-07
-3.64886e-06
-3.60758e-07
-3.6068e-06
-5.23744e-07
-3.48293e-06
-6.60171e-07
-3.27208e-06
-7.93048e-07
-2.98575e-06
-9.0435e-07
-2.64589e-06
-1.00058e-06
-2.24164e-06
-1.09514e-06
-1.80764e-06
-1.16388e-06
-1.33285e-06
-1.2039e-06
-8.11247e-07
-1.26409e-06
-2.81021e-07
-1.29987e-06
2.69363e-07
-1.33198e-06
8.37069e-07
-1.36085e-06
1.41662e-06
-1.37406e-06
2.01666e-06
-1.41275e-06
2.60631e-06
-1.4135e-06
3.14949e-06
-1.3557e-06
3.68723e-06
-1.36827e-06
4.25306e-06
-1.42505e-06
4.77769e-06
-1.40189e-06
5.25839e-06
-1.35056e-06
5.63383e-06
-1.20875e-06
5.98319e-06
-1.19828e-06
6.31501e-06
-1.22892e-06
6.52451e-06
-1.04668e-06
6.71678e-06
-1.08072e-06
6.81726e-06
-9.49514e-07
6.866e-06
-8.98999e-07
6.80743e-06
-7.68918e-07
6.6746e-06
-7.02507e-07
6.45064e-06
-5.9945e-07
6.09597e-06
-4.7125e-07
5.66462e-06
-3.95936e-07
5.18092e-06
-3.19675e-07
4.64628e-06
-2.71469e-07
4.00955e-06
-2.19594e-07
3.42778e-06
-2.33299e-07
2.83621e-06
-2.51188e-07
2.28047e-06
-2.31118e-07
1.72991e-06
-1.75133e-07
1.13932e-06
-6.49108e-08
4.47651e-07
1.05542e-07
-2.94905e-07
2.27407e-07
-1.04931e-06
3.10328e-07
-1.75105e-06
2.92794e-07
-2.40109e-06
3.2839e-07
-3.02756e-06
4.46888e-07
-3.56193e-06
4.38677e-07
-3.97523e-06
4.01671e-07
-4.30711e-06
4.34153e-07
-4.55433e-06
5.22745e-07
-4.67218e-06
5.44808e-07
-4.64828e-06
5.33812e-07
-4.47263e-06
4.2181e-07
-4.14004e-06
2.36461e-07
-3.54075e-06
-1.23787e-07
-2.74857e-06
-3.96565e-07
-1.76321e-06
-6.93212e-07
-6.17539e-07
-9.18459e-07
4.74159e-07
-9.85485e-07
1.66144e-06
-1.18456e-06
3.19385e-06
-1.726e-06
4.91787e-06
-2.18792e-06
6.64233e-06
-1.78755e-06
8.03202e-06
-9.06805e-07
9.24266e-06
-8.02167e-07
1.0484e-05
-1.32053e-06
1.1259e-05
-1.15371e-06
1.11555e-05
-2.94255e-07
1.05766e-05
3.99392e-07
1.0037e-05
5.89386e-07
9.49489e-06
8.40041e-07
8.97415e-06
9.17134e-07
8.07264e-06
1.35174e-06
6.85377e-06
1.86764e-06
6.12967e-06
1.23733e-06
5.69142e-06
7.02855e-07
5.42382e-06
2.66836e-07
5.75391e-06
-6.53439e-07
6.34939e-06
-1.40544e-06
7.05622e-06
-1.89415e-06
8.00102e-06
-2.12831e-06
1.00091e-05
-4.83202e-06
1.11386e-05
-3.00655e-06
1.30626e-05
-4.39728e-06
1.58332e-05
-5.80086e-06
1.67984e-05
-2.60775e-06
1.84478e-05
-3.79823e-06
1.92573e-05
-2.29389e-06
1.98691e-05
-2.0419e-06
2.04347e-05
-1.86125e-06
2.03113e-05
-1.0586e-06
1.97857e-05
-8.37155e-07
1.90644e-05
-8.23077e-07
1.79521e-05
-4.42385e-07
1.69108e-05
-5.26098e-07
1.58681e-05
-7.13939e-07
1.48124e-05
-7.41918e-07
1.40243e-05
-1.4049e-06
1.33178e-05
-1.65365e-06
1.226e-05
-1.12697e-06
1.14888e-05
-1.96357e-06
1.13454e-05
-2.98746e-06
1.18551e-05
-3.69687e-06
1.22289e-05
-3.71307e-06
1.09453e-05
-1.37509e-06
1.03543e-05
-2.35756e-06
1.03773e-05
-3.73939e-06
9.37373e-06
-1.831e-06
8.58724e-06
-1.87305e-06
8.01027e-06
-2.64821e-06
7.42061e-06
-4.01332e-06
5.64882e-06
-2.58133e-06
1.73732e-06
1.94337e-06
-3.1909e-06
5.11308e-06
-7.21133e-06
4.92307e-06
-8.21371e-06
-6.53828e-07
-4.13821e-06
-1.20736e-05
1.12677e-06
-1.57977e-05
2.88052e-06
-9.61327e-06
6.01453e-06
-1.18461e-05
7.57398e-06
-8.53512e-06
-5.97372e-06
7.31218e-06
4.68288e-07
-7.52794e-07
8.45889e-07
-4.99161e-07
1.42046e-06
-8.50299e-07
2.27803e-06
-1.58909e-06
3.34048e-06
-2.37128e-06
4.44791e-06
-2.92488e-06
5.56042e-06
-3.22606e-06
6.61065e-06
-3.32264e-06
7.58158e-06
-3.28339e-06
8.49193e-06
-3.17754e-06
9.32452e-06
-3.04559e-06
1.00506e-05
-2.84909e-06
1.07552e-05
-2.63701e-06
1.13966e-05
-2.40171e-06
1.20094e-05
-2.17892e-06
1.25664e-05
-2.00636e-06
1.30364e-05
-1.70334e-06
1.35447e-05
-1.55505e-06
1.39229e-05
-1.23991e-06
1.43079e-05
-1.01074e-06
1.46502e-05
-8.37569e-07
1.47755e-05
-4.41377e-07
1.4955e-05
-3.21356e-07
1.50191e-05
-1.79271e-07
1.48519e-05
2.22138e-07
1.45966e-05
2.8782e-07
1.44507e-05
1.85928e-07
1.42266e-05
2.13811e-07
1.38161e-05
1.21642e-07
1.3639e-05
-3.19305e-07
1.36845e-05
-5.3511e-07
1.3587e-05
-4.20089e-07
1.33032e-05
-7.41602e-07
1.32335e-05
-1.63971e-06
1.38634e-05
-2.22818e-06
1.47686e-05
-1.76193e-06
1.51218e-05
-1.13632e-06
1.45258e-05
-1.03371e-06
1.32862e-05
-7.89339e-07
1.13552e-05
2.69662e-07
8.41635e-06
1.31688e-06
5.52572e-06
1.54892e-06
3.50193e-06
1.73813e-06
2.15044e-06
1.96806e-06
9.05939e-07
2.04343e-06
-2.6112e-07
2.01384e-06
-1.16564e-06
1.92099e-06
-1.82429e-06
1.75158e-06
-2.33509e-06
1.54704e-06
-2.75897e-06
1.29205e-06
-3.11511e-06
1.02243e-06
-3.39916e-06
7.23288e-07
-3.62115e-06
4.32629e-07
-3.75165e-06
1.27951e-07
-3.81041e-06
-1.47424e-07
-3.80877e-06
-3.97288e-07
-3.73032e-06
-6.44604e-07
-3.56186e-06
-8.80984e-07
-3.33968e-06
-1.08069e-06
-3.06469e-06
-1.25357e-06
-2.75268e-06
-1.40757e-06
-2.3797e-06
-1.5636e-06
-1.95353e-06
-1.69764e-06
-1.5061e-06
-1.79619e-06
-1.01661e-06
-1.89431e-06
-5.07363e-07
-1.94327e-06
3.68048e-08
-2.02878e-06
6.18942e-07
-2.09526e-06
1.2277e-06
-2.14911e-06
1.82412e-06
-2.16346e-06
2.39193e-06
-2.14802e-06
2.9691e-06
-2.19867e-06
3.52784e-06
-2.18826e-06
4.05285e-06
-2.10613e-06
4.55757e-06
-2.10927e-06
5.03894e-06
-2.15455e-06
5.4678e-06
-2.09561e-06
5.90638e-06
-2.07588e-06
6.29417e-06
-1.91353e-06
6.62208e-06
-1.86691e-06
6.88054e-06
-1.84384e-06
7.09662e-06
-1.65556e-06
7.23782e-06
-1.65055e-06
7.2883e-06
-1.45647e-06
7.33074e-06
-1.43295e-06
7.2886e-06
-1.25637e-06
7.19072e-06
-1.17294e-06
7.01455e-06
-1.02752e-06
6.7406e-06
-8.47852e-07
6.39061e-06
-7.33502e-07
5.93225e-06
-5.82329e-07
5.46599e-06
-5.60283e-07
4.90021e-06
-4.32171e-07
4.2447e-06
-3.74169e-07
3.5023e-06
-3.18496e-07
2.77327e-06
-3.03487e-07
2.266e-06
-4.38028e-07
1.86609e-06
-4.0276e-07
1.40631e-06
-1.41479e-07
8.50381e-07
1.21114e-07
2.59166e-07
2.92766e-07
-2.79878e-07
2.84659e-07
-8.08004e-07
3.77724e-07
-1.32983e-06
5.66325e-07
-1.80367e-06
5.97571e-07
-2.19538e-06
5.70182e-07
-2.50577e-06
6.14639e-07
-2.67745e-06
6.5705e-07
-2.64591e-06
5.65139e-07
-2.51742e-06
5.5256e-07
-2.31178e-06
4.63157e-07
-2.0638e-06
3.47792e-07
-1.67787e-06
-7.1562e-08
-1.03855e-06
-5.46501e-07
-1.42181e-07
-1.0491e-06
9.81975e-07
-1.44903e-06
2.2068e-06
-1.59408e-06
3.36116e-06
-1.74177e-06
4.44958e-06
-2.24178e-06
5.55807e-06
-2.64571e-06
6.89071e-06
-2.35068e-06
8.45625e-06
-1.68211e-06
9.88087e-06
-1.50656e-06
1.0853e-05
-1.74273e-06
1.11214e-05
-1.08619e-06
1.04561e-05
5.35835e-07
9.55108e-06
1.4381e-06
8.71042e-06
1.5678e-06
8.11673e-06
1.54542e-06
7.58183e-06
1.56308e-06
6.57363e-06
2.36999e-06
5.7067e-06
2.55782e-06
5.68418e-06
1.08441e-06
5.73468e-06
5.02081e-07
5.52849e-06
1.99088e-07
6.01829e-06
-1.44764e-06
6.89066e-06
-2.59658e-06
7.70053e-06
-3.14503e-06
8.59916e-06
-3.55076e-06
1.01509e-05
-6.88e-06
1.11957e-05
-4.69414e-06
1.28749e-05
-6.84526e-06
1.56216e-05
-9.13073e-06
1.64954e-05
-4.23838e-06
1.8352e-05
-6.40534e-06
1.95065e-05
-4.05624e-06
2.04062e-05
-3.69959e-06
2.14143e-05
-3.5455e-06
2.20343e-05
-2.21854e-06
2.22419e-05
-1.61031e-06
2.22462e-05
-1.52912e-06
2.10914e-05
-3.02594e-07
1.98451e-05
-4.55062e-07
1.87936e-05
-8.64477e-07
1.71342e-05
-4.47269e-07
1.60091e-05
-1.57691e-06
1.53826e-05
-2.29575e-06
1.38205e-05
-1.53933e-06
1.20286e-05
-2.6604e-06
1.09905e-05
-4.04603e-06
1.15869e-05
-5.75195e-06
1.29846e-05
-6.20203e-06
1.21394e-05
-1.89788e-06
1.14031e-05
-3.56782e-06
1.17404e-05
-6.24869e-06
1.08499e-05
-2.90119e-06
9.66822e-06
-2.70353e-06
8.32484e-06
-3.8971e-06
6.2898e-06
-4.6622e-06
3.38274e-06
-2.07921e-06
-7.34965e-07
3.96367e-06
-4.89757e-06
7.1273e-06
-7.05391e-06
4.60654e-06
-6.63501e-06
-4.06628e-06
-3.19086e-06
-1.88299e-05
4.12477e-07
-2.24529e-05
2.84269e-06
-1.56818e-05
5.57928e-06
-1.84181e-05
7.59809e-06
-1.45916e-05
-1.15744e-05
8.70739e-06
4.85967e-07
-1.17621e-06
1.06675e-06
-1.02945e-06
1.97386e-06
-1.71209e-06
3.11166e-06
-2.68339e-06
4.30198e-06
-3.51833e-06
5.3295e-06
-3.90762e-06
6.21526e-06
-4.06501e-06
6.98437e-06
-4.04617e-06
7.68443e-06
-3.93899e-06
8.32701e-06
-3.78594e-06
8.90912e-06
-3.60996e-06
9.49221e-06
-3.41634e-06
1.00714e-05
-3.20172e-06
1.06217e-05
-2.93303e-06
1.11377e-05
-2.67705e-06
1.1538e-05
-2.39327e-06
1.19818e-05
-2.10191e-06
1.23042e-05
-1.77778e-06
1.264e-05
-1.48383e-06
1.28912e-05
-1.19845e-06
1.31753e-05
-1.03255e-06
1.3573e-05
-9.02671e-07
1.37213e-05
-5.69206e-07
1.40076e-05
-4.66727e-07
1.43057e-05
-3.14173e-07
1.42402e-05
1.35514e-07
1.40346e-05
1.96477e-07
1.38397e-05
9.86743e-08
1.38154e-05
8.4431e-08
1.3693e-05
-3.16366e-07
1.33718e-05
-6.28353e-07
1.35477e-05
-8.75645e-07
1.41756e-05
-1.42322e-06
1.43546e-05
-2.0262e-06
1.37843e-05
-2.15231e-06
1.29928e-05
-1.44877e-06
1.15984e-05
-1.50078e-07
9.15656e-06
9.51956e-07
6.40745e-06
1.49147e-06
4.31912e-06
1.90113e-06
2.8275e-06
2.36372e-06
1.4254e-06
2.51714e-06
2.19029e-07
2.5165e-06
-6.35697e-07
2.39408e-06
-1.29044e-06
2.26583e-06
-1.8097e-06
2.0975e-06
-2.22733e-06
1.90298e-06
-2.54291e-06
1.63252e-06
-2.78319e-06
1.35781e-06
-2.95627e-06
1.03977e-06
-3.08391e-06
7.30452e-07
-3.18254e-06
4.08939e-07
-3.24317e-06
8.86956e-08
-3.27708e-06
-2.32556e-07
-3.24897e-06
-5.58778e-07
-3.14949e-06
-8.66838e-07
-2.98409e-06
-1.16597e-06
-2.76758e-06
-1.43837e-06
-2.47944e-06
-1.69338e-06
-2.13317e-06
-1.90785e-06
-1.73416e-06
-2.10137e-06
-1.31291e-06
-2.26389e-06
-8.54762e-07
-2.4193e-06
-3.60739e-07
-2.54243e-06
1.64323e-07
-2.65888e-06
6.98383e-07
-2.70654e-06
1.23541e-06
-2.78691e-06
1.79345e-06
-2.86793e-06
2.38769e-06
-2.95382e-06
2.9911e-06
-2.97707e-06
3.56339e-06
-2.93344e-06
4.13324e-06
-2.98372e-06
4.68514e-06
-2.96508e-06
5.16893e-06
-2.83061e-06
5.64366e-06
-2.84009e-06
6.08858e-06
-2.87202e-06
6.42542e-06
-2.73057e-06
6.75312e-06
-2.72316e-06
7.08517e-06
-2.59591e-06
7.35442e-06
-2.51911e-06
7.51842e-06
-2.41783e-06
7.69277e-06
-2.2647e-06
7.83977e-06
-2.26182e-06
7.89763e-06
-2.01702e-06
7.89683e-06
-1.96774e-06
7.84482e-06
-1.77332e-06
7.70621e-06
-1.64189e-06
7.50252e-06
-1.46283e-06
7.25005e-06
-1.27155e-06
6.90093e-06
-1.10077e-06
6.48375e-06
-9.18239e-07
6.00911e-06
-8.72966e-07
5.50169e-06
-7.39884e-07
5.02411e-06
-7.10887e-07
4.38475e-06
-5.04019e-07
3.46025e-06
-2.34295e-07
2.59784e-06
-4.07295e-07
2.02317e-06
-6.10974e-07
1.56747e-06
-4.39313e-07
1.0845e-06
-1.11192e-07
5.85049e-07
1.29135e-07
1.95009e-07
7.63404e-08
-1.41627e-07
1.85854e-07
-5.08315e-07
4.77481e-07
-8.77878e-07
5.95342e-07
-1.14745e-06
5.58435e-07
-1.32563e-06
5.99725e-07
-1.33506e-06
5.67358e-07
-1.12709e-06
3.54526e-07
-9.31408e-07
4.44468e-07
-7.55484e-07
4.63852e-07
-6.09802e-07
4.75518e-07
-5.643e-07
2.35383e-07
-2.7633e-07
-4.34747e-07
2.8634e-07
-1.17698e-06
1.09186e-06
-1.77257e-06
2.22295e-06
-2.1999e-06
3.40529e-06
-2.38405e-06
4.52908e-06
-2.84995e-06
5.8004e-06
-3.38039e-06
7.26181e-06