/*--------------------------------*- C++ -*----------------------------------*\
| =========                 |                                                 |
| \\      /  F ield         | OpenFOAM: The Open Source CFD Toolbox           |
|  \\    /   O peration     | Version:  dev                                   |
|   \\  /    A nd           | Web:      http://www.openfoam.org               |
|    \\/     M anipulation  |                                                 |
\*---------------------------------------------------------------------------*/
FoamFile
{
    version     2.0;
    format      ascii;
    class       surfaceScalarField;
    object      phi_0;
    location    "9.164";
}
// * * * * * * * * * * * * * * * * * * * * * * * * * * * * * * * * * * * * * //

dimensions      [1 0 -1 0 0 0 0];

internalField   nonuniform List<scalar> 
24170
(
1.66917e-06
2.31863e-06
4.11302e-07
1.60219e-06
-3.8978e-07
1.13766e-06
-8.85036e-07
8.14831e-07
-1.43841e-06
8.6137e-07
-1.75378e-06
6.06425e-07
-2.29546e-06
8.24015e-07
-2.53052e-06
5.10731e-07
-3.14023e-06
8.82926e-07
-3.17802e-06
3.11665e-07
-3.89916e-06
9.9191e-07
-3.81193e-06
1.90107e-07
-4.68906e-06
1.15688e-06
-4.32842e-06
-6.88674e-08
-5.05395e-06
1.02196e-06
-3.47774e-06
-1.27704e-06
-2.20632e-06
-9.64175e-07
5.10138e-06
-7.00243e-06
3.40476e-06
3.5582e-06
2.41025e-06
3.03906e-06
1.48304e-06
2.48206e-06
6.98981e-07
1.99825e-06
3.65566e-08
1.9031e-06
-6.69488e-07
1.67818e-06
-1.27453e-06
1.78015e-06
-1.73882e-06
1.32411e-06
-2.381e-06
1.86713e-06
-2.55958e-06
8.36211e-07
-3.22902e-06
1.99997e-06
-3.27497e-06
5.8247e-07
-4.02604e-06
2.25583e-06
-3.91282e-06
1.73894e-07
-5.28409e-06
2.76124e-06
-5.38298e-06
-8.1625e-07
-7.31669e-06
1.34941e-06
4.34417e-06
-6.14512e-06
4.11732e-06
4.52727e-06
3.65693e-06
3.97773e-06
2.97296e-06
3.61717e-06
2.32836e-06
3.0738e-06
1.56838e-06
3.07145e-06
9.224e-07
2.71781e-06
3.28048e-07
2.75247e-06
-3.62108e-07
2.38942e-06
-9.63861e-07
2.83747e-06
-1.20691e-06
1.45282e-06
-1.95096e-06
3.11512e-06
-1.96162e-06
9.65854e-07
-3.01142e-06
3.6915e-06
-3.05934e-06
6.08899e-07
-4.43181e-06
4.53858e-06
-4.74042e-06
-1.02032e-07
-7.69859e-06
4.7287e-06
5.86674e-06
-8.7223e-06
4.32809e-06
5.71049e-06
4.4387e-06
4.38375e-06
3.78003e-06
4.76513e-06
3.48445e-06
3.83403e-06
2.66476e-06
4.33411e-06
2.3741e-06
3.43076e-06
1.47249e-06
4.06339e-06
1.25444e-06
3.00709e-06
3.94024e-07
4.09704e-06
-6.55996e-08
2.31493e-06
-9.41401e-07
4.39025e-06
-1.31525e-06
1.73875e-06
-2.36373e-06
5.15631e-06
-2.66083e-06
1.32408e-06
-4.24866e-06
6.56078e-06
-4.13681e-06
2.25129e-07
-7.84179e-06
8.89488e-06
8.90968e-06
-1.03729e-05
4.45329e-06
7.40943e-06
4.76641e-06
4.62331e-06
3.95578e-06
6.10225e-06
3.84392e-06
4.44228e-06
2.89638e-06
5.75859e-06
2.76622e-06
4.01174e-06
1.71357e-06
5.55619e-06
1.5712e-06
3.57662e-06
6.24746e-07
5.47214e-06
1.86524e-07
3.18657e-06
-7.90264e-07
5.79279e-06
-1.16708e-06
2.54701e-06
-2.2385e-06
6.67274e-06
-2.68987e-06
2.23037e-06
-3.66921e-06
7.9984e-06
-4.33706e-06
1.36759e-06
-6.22526e-06
1.1277e-05
9.64115e-06
-6.45755e-06
4.8879e-06
9.3258e-06
4.71025e-06
5.38415e-06
3.81545e-06
7.55289e-06
3.70704e-06
5.0735e-06
2.77234e-06
7.19629e-06
2.55206e-06
4.70698e-06
1.49231e-06
7.08033e-06
1.22199e-06
4.29799e-06
3.88792e-07
6.75714e-06
-4.10039e-08
4.07567e-06
-9.2762e-07
7.13216e-06
-1.2434e-06
3.32295e-06
-1.98812e-06
7.89209e-06
-2.68378e-06
3.41114e-06
-2.87596e-06
8.67922e-06
-4.66609e-06
3.66332e-06
-4.13986e-06
1.12668e-05
9.57776e-06
-3.54398e-06
5.61053e-06
1.09693e-05
5.30601e-06
6.2952e-06
4.3147e-06
9.11963e-06
4.12769e-06
5.80216e-06
3.21029e-06
8.63367e-06
2.89385e-06
5.51513e-06
1.92483e-06
8.52968e-06
1.50882e-06
5.18134e-06
5.99103e-07
8.13827e-06
1.66432e-07
4.9819e-06
-4.36254e-07
8.21485e-06
-1.246e-06
4.61563e-06
-1.4688e-06
8.61475e-06
-2.41452e-06
4.86873e-06
-2.60878e-06
9.39534e-06
-4.30269e-06
5.90023e-06
-3.47274e-06
1.09915e-05
1.0159e-05
-3.48649e-06
4.4374e-06
1.22334e-05
4.19981e-06
6.97391e-06
3.50036e-06
1.02352e-05
3.18493e-06
6.51039e-06
2.52358e-06
9.66993e-06
2.1502e-06
6.2441e-06
1.57598e-06
9.44989e-06
1.15055e-06
5.94504e-06
6.38692e-07
8.9901e-06
2.20233e-07
5.74581e-06
-1.35361e-07
8.92531e-06
-8.53907e-07
5.68759e-06
-1.0231e-06
9.15142e-06
-1.78951e-06
6.01541e-06
-1.76805e-06
9.7604e-06
-2.80304e-06
7.33653e-06
-2.24769e-06
1.0847e-05
1.06562e-05
-2.32432e-06
5.10218e-06
1.36354e-05
4.79959e-06
7.7489e-06
4.19628e-06
1.12836e-05
3.66928e-06
7.45672e-06
3.08444e-06
1.0653e-05
2.51801e-06
7.1899e-06
2.03735e-06
1.02985e-05
1.40718e-06
6.93731e-06
9.73622e-07
9.78695e-06
2.79529e-07
6.81194e-06
-8.75792e-08
9.67541e-06
-9.65473e-07
6.94905e-06
-1.10465e-06
9.68991e-06
-1.99838e-06
7.32605e-06
-1.88916e-06
1.00718e-05
-2.74077e-06
8.62883e-06
-2.28349e-06
1.08351e-05
1.10396e-05
-2.20577e-06
6.34411e-06
1.48292e-05
5.57617e-06
9.00702e-06
4.93784e-06
1.23804e-05
4.13676e-06
8.68766e-06
3.64812e-06
1.15493e-05
2.85471e-06
8.37203e-06
2.47662e-06
1.10536e-05
1.62252e-06
8.16403e-06
1.24426e-06
1.05389e-05
3.46037e-07
8.09567e-06
-1.85681e-08
1.04347e-05
-9.01852e-07
8.23906e-06
-9.96191e-07
1.02114e-05
-1.91821e-06
8.69232e-06
-1.81196e-06
1.04157e-05
-2.46923e-06
9.75782e-06
-2.02114e-06
1.08673e-05
1.13149e-05
-1.80216e-06
7.39289e-06
1.63352e-05
6.31068e-06
1.05653e-05
5.83928e-06
1.32872e-05
4.75281e-06
1.01849e-05
4.31277e-06
1.23742e-05
3.24633e-06
9.80609e-06
2.88433e-06
1.17707e-05
1.87123e-06
9.53218e-06
1.53072e-06
1.12354e-05
5.27817e-07
9.47247e-06
2.57928e-07
1.10833e-05
-6.80828e-07
9.58848e-06
-7.93731e-07
1.07686e-05
-1.52861e-06
9.87846e-06
-1.56652e-06
1.09183e-05
-1.97961e-06
1.06585e-05
-1.75983e-06
1.11479e-05
1.14407e-05
-1.3719e-06
8.54044e-06
1.77657e-05
7.27043e-06
1.22457e-05
6.85269e-06
1.40663e-05
5.51314e-06
1.18694e-05
5.02373e-06
1.31756e-05
3.74367e-06
1.13883e-05
3.34727e-06
1.24557e-05
2.19757e-06
1.09775e-05
1.78543e-06
1.19473e-05
7.53473e-07
1.08294e-05
4.95966e-07
1.16768e-05
-3.8278e-07
1.08384e-05
-6.47882e-07
1.14432e-05
-1.32793e-06
1.0979e-05
-1.30057e-06
1.13424e-05
-1.5641e-06
1.1398e-05
-1.4481e-06
1.15281e-05
1.16075e-05
-1.1001e-06
1.00607e-05
1.91552e-05
8.52358e-06
1.40451e-05
7.94464e-06
1.4856e-05
6.44732e-06
1.35657e-05
5.81264e-06
1.39769e-05
4.45771e-06
1.29103e-05
3.84911e-06
1.32204e-05
2.65012e-06
1.23495e-05
2.12237e-06
1.26607e-05
1.12714e-06
1.20433e-05
7.56181e-07
1.22914e-05
-6.39287e-09
1.18906e-05
-2.97048e-07
1.20497e-05
-8.25303e-07
1.18625e-05
-9.03062e-07
1.18153e-05
-9.59808e-07
1.18814e-05
-8.33589e-07
1.18557e-05
1.18716e-05
-6.22539e-07
1.18585e-05
2.06911e-05
9.98064e-06
1.59066e-05
8.9976e-06
1.57813e-05
7.50742e-06
1.49904e-05
6.63931e-06
1.47624e-05
5.3829e-06
1.40917e-05
4.5934e-06
1.39365e-05
3.42116e-06
1.3477e-05
2.65313e-06
1.34118e-05
1.62322e-06
1.3099e-05
9.88377e-07
1.29962e-05
2.63599e-07
1.27384e-05
-9.1974e-08
1.25737e-05
-4.43088e-07
1.24325e-05
-6.39326e-07
1.22757e-05
-5.82194e-07
1.21354e-05
-3.97701e-07
1.20234e-05
1.19178e-05
-6.09311e-08
1.3553e-05
2.14814e-05
1.18306e-05
1.71608e-05
1.05887e-05
1.65265e-05
9.09804e-06
1.59883e-05
7.85381e-06
1.55213e-05
6.48149e-06
1.49977e-05
5.34763e-06
1.46301e-05
4.17283e-06
1.42573e-05
3.24453e-06
1.3994e-05
2.34093e-06
1.37171e-05
1.65354e-06
1.34639e-05
1.03177e-06
1.32091e-05
5.57084e-07
1.29654e-05
2.13281e-07
1.27597e-05
3.01621e-09
1.25317e-05
-6.11729e-08
1.23038e-05
5.25774e-08
1.20679e-05
1.18275e-05
3.50463e-07
1.51844e-05
2.18189e-05
1.36835e-05
1.75035e-05
1.22005e-05
1.68405e-05
1.06445e-05
1.6409e-05
9.12365e-06
1.59453e-05
7.62498e-06
1.54459e-05
6.28258e-06
1.49827e-05
5.08063e-06
1.45404e-05
4.0742e-06
1.41609e-05
3.21209e-06
1.38266e-05
2.47268e-06
1.35417e-05
1.85215e-06
1.32616e-05
1.3497e-06
1.2993e-05
1.01327e-06
1.2711e-05
8.27525e-07
1.24184e-05
7.88143e-07
1.21226e-05
9.1489e-07
1.17927e-05
1.15053e-05
1.1521e-06
1.80235e-05
2.20085e-05
1.60204e-05
1.73581e-05
1.42069e-05
1.65218e-05
1.25185e-05
1.60425e-05
1.08985e-05
1.55931e-05
9.33977e-06
1.51291e-05
7.88955e-06
1.4663e-05
6.56226e-06
1.42087e-05
5.38325e-06
1.38026e-05
4.36739e-06
1.34292e-05
3.5272e-06
1.30958e-05
2.84875e-06
1.27815e-05
2.34048e-06
1.24665e-05
2.00091e-06
1.21365e-05
1.83457e-06
1.17859e-05
1.83426e-06
1.14298e-05
1.95705e-06
1.10772e-05
1.07361e-05
2.22385e-06
1.80539e-05
2.06421e-05
1.60957e-05
1.63293e-05
1.42618e-05
1.54298e-05
1.25808e-05
1.49229e-05
1.09872e-05
1.452e-05
9.45521e-06
1.41335e-05
8.02453e-06
1.37057e-05
6.76243e-06
1.32289e-05
5.69047e-06
1.278e-05
4.80916e-06
1.23655e-05
4.10947e-06
1.19991e-05
3.55642e-06
1.1684e-05
3.14296e-06
1.13728e-05
2.82731e-06
1.10811e-05
2.61372e-06
1.07594e-05
2.50081e-06
1.04248e-05
2.48039e-06
1.00948e-05
9.75052e-06
2.56719e-06
1.60321e-05
1.86872e-05
1.4569e-05
1.45495e-05
1.30385e-05
1.3808e-05
1.15587e-05
1.34012e-05
1.01605e-05
1.30704e-05
8.84608e-06
1.27494e-05
7.63012e-06
1.23751e-05
6.54235e-06
1.19219e-05
5.6019e-06
1.1474e-05
4.81812e-06
1.10534e-05
4.18168e-06
1.06846e-05
3.68154e-06
1.03771e-05
3.29881e-06
1.00869e-05
3.0064e-06
9.83645e-06
2.79896e-06
9.55745e-06
2.64653e-06
9.28433e-06
2.57885e-06
8.98234e-06
8.66754e-06
2.58321e-06
1.46075e-05
1.66475e-05
1.29596e-05
1.29321e-05
1.14434e-05
1.21698e-05
1.01002e-05
1.17478e-05
8.92174e-06
1.14053e-05
7.87079e-06
1.11101e-05
6.92838e-06
1.0778e-05
6.04895e-06
1.04074e-05
5.24185e-06
1.0034e-05
4.53337e-06
9.65789e-06
3.91397e-06
9.33813e-06
3.40747e-06
9.05519e-06
2.99475e-06
8.79952e-06
2.67276e-06
8.58457e-06
2.4517e-06
8.32306e-06
2.29681e-06
8.0945e-06
2.22341e-06
7.81777e-06
7.54483e-06
2.20346e-06
1.30444e-05
1.43759e-05
1.17048e-05
1.11421e-05
1.04671e-05
1.03861e-05
9.35208e-06
9.9877e-06
8.31998e-06
9.71012e-06
7.36484e-06
9.48468e-06
6.47265e-06
9.23139e-06
5.64253e-06
8.93961e-06
4.89613e-06
8.62071e-06
4.21846e-06
8.30786e-06
3.63535e-06
8.02408e-06
3.14649e-06
7.77219e-06
2.75362e-06
7.54107e-06
2.47148e-06
7.33257e-06
2.26594e-06
7.10277e-06
2.15901e-06
6.88093e-06
2.11672e-06
6.63543e-06
6.39755e-06
2.13054e-06
1.14237e-05
1.21742e-05
1.03872e-05
9.2589e-06
9.34391e-06
8.60496e-06
8.33618e-06
8.30622e-06
7.36803e-06
8.12672e-06
6.48051e-06
7.9573e-06
5.68634e-06
7.74291e-06
4.97966e-06
7.49401e-06
4.37282e-06
7.20202e-06
3.82584e-06
6.95101e-06
3.36521e-06
6.70175e-06
2.96854e-06
6.49986e-06
2.64291e-06
6.30899e-06
2.39981e-06
6.12437e-06
2.21174e-06
5.93818e-06
2.09877e-06
5.73833e-06
2.02663e-06
5.53802e-06
5.34e-06
1.99992e-06
1.00926e-05
9.83114e-06
9.25367e-06
7.41218e-06
8.36164e-06
6.90034e-06
7.51994e-06
6.67371e-06
6.72484e-06
6.57363e-06
5.97678e-06
6.47975e-06
5.29288e-06
6.32205e-06
4.68694e-06
6.11522e-06
4.14343e-06
5.87641e-06
3.66961e-06
5.66841e-06
3.25337e-06
5.4707e-06
2.89323e-06
5.31705e-06
2.5961e-06
5.1639e-06
2.35544e-06
5.0185e-06
2.17273e-06
4.86489e-06
2.0404e-06
4.70068e-06
1.95287e-06
4.53506e-06
4.37476e-06
1.90387e-06
9.22261e-06
7.79387e-06
8.3618e-06
5.83184e-06
7.5151e-06
5.38161e-06
6.73084e-06
5.20287e-06
6.051e-06
5.11197e-06
5.45825e-06
5.04208e-06
4.92295e-06
4.93942e-06
4.42528e-06
4.80237e-06
3.95005e-06
4.64642e-06
3.51366e-06
4.50184e-06
3.11583e-06
4.36337e-06
2.776e-06
4.24707e-06
2.49346e-06
4.12694e-06
2.26986e-06
4.00921e-06
2.09631e-06
3.8873e-06
1.96564e-06
3.75717e-06
1.87759e-06
3.62158e-06
3.50015e-06
1.81835e-06
8.20432e-06
6.12197e-06
7.5066e-06
4.32493e-06
6.79433e-06
3.95609e-06
6.11002e-06
3.84875e-06
5.49121e-06
3.79228e-06
4.93407e-06
3.76226e-06
4.43774e-06
3.69903e-06
3.9849e-06
3.6156e-06
3.56901e-06
3.51848e-06
3.18634e-06
3.43204e-06
2.84341e-06
3.34317e-06
2.54235e-06
3.27027e-06
2.28986e-06
3.18317e-06
2.09002e-06
3.09072e-06
1.92562e-06
3.00644e-06
1.80873e-06
2.89835e-06
1.71857e-06
2.80065e-06
2.70905e-06
1.65965e-06
7.35417e-06
4.16639e-06
6.8757e-06
2.81552e-06
6.32742e-06
2.5748e-06
5.76085e-06
2.57518e-06
5.176e-06
2.63012e-06
4.59566e-06
2.68886e-06
4.06515e-06
2.6654e-06
3.59831e-06
2.60658e-06
3.19619e-06
2.53018e-06
2.84675e-06
2.47385e-06
2.54269e-06
2.41955e-06
2.27833e-06
2.3834e-06
2.05326e-06
2.33037e-06
1.8695e-06
2.26592e-06
1.72132e-06
2.21187e-06
1.60283e-06
2.13595e-06
1.50965e-06
2.07103e-06
2.003e-06
1.44747e-06
6.47643e-06
2.54109e-06
6.17523e-06
1.33513e-06
5.73115e-06
1.29041e-06
5.19549e-06
1.46214e-06
4.63917e-06
1.61984e-06
4.10031e-06
1.7428e-06
3.58949e-06
1.77319e-06
3.11247e-06
1.75997e-06
2.67432e-06
1.72108e-06
2.27925e-06
1.69586e-06
1.92677e-06
1.67035e-06
1.62669e-06
1.65041e-06
1.37613e-06
1.61321e-06
1.16567e-06
1.57073e-06
9.94856e-07
1.53579e-06
8.46801e-07
1.49242e-06
7.37549e-07
1.44075e-06
1.40731e-06
6.42333e-07
5.92442e-06
1.06194e-06
5.49594e-06
1.73426e-07
4.86756e-06
3.74219e-07
4.19136e-06
6.64238e-07
3.52628e-06
8.83405e-07
2.91521e-06
1.02517e-06
2.34999e-06
1.08206e-06
1.82515e-06
1.09925e-06
1.34187e-06
1.08767e-06
9.10101e-07
1.07735e-06
5.3202e-07
1.06212e-06
2.11588e-07
1.04576e-06
-6.67783e-08
1.02491e-06
-3.02877e-07
9.95668e-07
-4.96952e-07
9.71198e-07
-6.63604e-07
9.49865e-07
-7.98402e-07
9.12813e-07
8.94485e-07
-9.04786e-07
5.24113e-06
-1.84754e-07
4.36939e-06
-3.70694e-07
3.35745e-06
9.16772e-09
2.41289e-06
2.93608e-07
1.58595e-06
4.59402e-07
8.81367e-07
5.43448e-07
2.73556e-07
5.67957e-07
-2.53137e-07
5.66914e-07
-7.12272e-07
5.49415e-07
-1.1046e-06
5.31951e-07
-1.43947e-06
5.16648e-07
-1.71991e-06
5.00717e-07
-1.95787e-06
4.89628e-07
-2.16192e-06
4.7603e-07
-2.32832e-06
4.60783e-07
-2.46129e-06
4.50102e-07
-2.56551e-06
4.25844e-07
4.20217e-07
-2.64374e-06
3.28768e-06
1.69569e-06
5.2074e-07
-3.19601e-07
-9.40181e-07
-1.42078e-06
-1.82087e-06
-2.16704e-06
-2.47697e-06
-2.75246e-06
-2.9935e-06
-3.20302e-06
-3.37857e-06
-3.52503e-06
-3.6465e-06
-3.74077e-06
-3.82379e-06
-3.88042e-06
1.05852e-07
2.34213e-07
1.48937e-07
3.0129e-07
2.48699e-07
2.44343e-07
5.4779e-07
4.25688e-08
1.16162e-06
-2.73532e-07
2.04782e-06
-5.4565e-07
3.12835e-06
-7.40215e-07
4.30914e-06
-8.41841e-07
5.52948e-06
-8.83745e-07
6.73315e-06
-8.70987e-07
7.91575e-06
-8.53798e-07
9.05287e-06
-8.13495e-07
1.00686e-05
-6.97129e-07
1.09895e-05
-6.06837e-07
1.18006e-05
-5.05173e-07
1.24949e-05
-3.98603e-07
1.30903e-05
-3.10608e-07
1.35077e-05
-1.44803e-07
1.38107e-05
-4.30704e-08
1.39662e-05
9.23959e-08
1.39703e-05
2.26117e-07
1.39271e-05
2.66644e-07
1.36892e-05
4.46392e-07
1.34445e-05
4.32894e-07
1.32083e-05
4.33901e-07
1.28334e-05
5.57026e-07
1.25459e-05
3.99383e-07
1.22557e-05
3.35359e-07
1.19785e-05
3.0293e-07
1.18805e-05
1.38641e-07
1.1879e-05
7.07373e-08
1.19539e-05
-8.33538e-09
1.21946e-05
-2.23309e-07
1.24466e-05
-2.52937e-07
1.25541e-05
-9.09912e-08
1.25969e-05
-6.37766e-08
1.26118e-05
-1.11804e-07
1.25052e-05
6.30859e-09
1.20771e-05
3.98067e-07
1.17888e-05
2.87159e-07
1.23866e-05
-6.8237e-07
1.31661e-05
-1.00479e-06
1.36158e-05
-6.98445e-07
1.39238e-05
-5.02386e-07
1.41161e-05
-3.50769e-07
1.36847e-05
2.28191e-07
1.24548e-05
9.94317e-07
1.09541e-05
1.3024e-06
9.51871e-06
1.26786e-06
8.19775e-06
1.15781e-06
6.99874e-06
1.0357e-06
5.93339e-06
9.02354e-07
5.0038e-06
7.67696e-07
4.20487e-06
6.38581e-07
3.51455e-06
5.32676e-07
2.95732e-06
4.02995e-07
2.50715e-06
3.00731e-07
2.15547e-06
2.07395e-07
1.91736e-06
9.91402e-08
1.76733e-06
1.60835e-08
1.69581e-06
-5.81025e-08
1.69033e-06
-1.20777e-07
1.75445e-06
-1.88285e-07
1.87683e-06
-2.45367e-07
2.06195e-06
-3.08456e-07
2.26799e-06
-3.31278e-07
2.50873e-06
-3.7016e-07
2.7815e-06
-4.08359e-07
3.08049e-06
-4.42752e-07
3.39845e-06
-4.72081e-07
3.72013e-06
-4.88581e-07
4.0574e-06
-5.19628e-07
4.39747e-06
-5.40805e-07
4.71351e-06
-5.38179e-07
5.02985e-06
-5.6318e-07
5.35024e-06
-5.95476e-07
5.65621e-06
-6.13113e-07
5.91423e-06
-6.00952e-07
6.09182e-06
-5.59479e-07
6.24236e-06
-5.73741e-07
6.38976e-06
-6.15692e-07
6.40993e-06
-5.38083e-07
6.42013e-06
-5.7875e-07
6.32522e-06
-5.27324e-07
6.15365e-06
-5.07616e-07
5.8809e-06
-4.63492e-07
5.53739e-06
-4.49741e-07
5.10272e-06
-4.15443e-07
4.59412e-06
-3.96086e-07
4.02058e-06
-3.81892e-07
3.36269e-06
-3.42794e-07
2.66007e-06
-3.34935e-07
1.96185e-06
-3.83059e-07
1.20787e-06
-3.50644e-07
4.77218e-07
-3.7753e-07
-2.84776e-07
-3.51092e-07
-1.07392e-06
-3.17685e-07
-1.87808e-06
-2.8477e-07
-2.67528e-06
-2.6076e-07
-3.44971e-06
-2.3885e-07
-4.18027e-06
-2.24104e-07
-4.80652e-06
-2.57015e-07
-5.3678e-06
-2.4069e-07
-5.90855e-06
-1.70578e-07
-6.3493e-06
-1.6902e-07
-6.68254e-06
-1.66767e-07
-6.94167e-06
-1.26403e-07
-7.18763e-06
-2.05626e-08
-7.36761e-06
3.51622e-08
-7.46439e-06
7.27115e-08
-7.3974e-06
2.65958e-08
-7.11853e-06
-7.28504e-08
-6.59358e-06
-2.16311e-07
-5.85664e-06
-3.37717e-07
-4.91066e-06
-4.64974e-07
-3.81002e-06
-5.48978e-07
-2.54135e-06
-6.675e-07
-1.1451e-06
-7.57905e-07
4.75538e-07
-9.59587e-07
2.36233e-06
-1.24643e-06
3.71823e-06
-7.59539e-07
4.48332e-06
-1.7229e-07
5.33021e-06
-2.61347e-07
6.43493e-06
-6.10707e-07
7.50875e-06
-6.73807e-07
8.41016e-06
-5.43152e-07
9.0344e-06
-3.06854e-07
9.3727e-06
-7.21821e-08
9.32922e-06
2.48414e-07
9.09976e-06
3.65917e-07
8.74265e-06
4.48911e-07
7.99054e-06
8.14522e-07
7.20999e-06
7.88931e-07
6.60987e-06
5.61473e-07
6.13676e-06
4.01843e-07
5.91004e-06
1.26489e-07
6.11698e-06
-3.22626e-07
6.47715e-06
-5.18886e-07
6.70034e-06
-4.29687e-07
8.65184e-06
-2.10203e-06
9.50493e-06
-1.01766e-06
1.07606e-05
-1.46534e-06
1.26553e-05
-2.08282e-06
1.30096e-05
-5.78126e-07
1.37657e-05
-9.9599e-07
1.38301e-05
-2.96741e-07
1.37981e-05
-1.90438e-07
1.35769e-05
2.61378e-09
1.31644e-05
2.05349e-07
1.28032e-05
1.66568e-07
1.24507e-05
1.59476e-07
1.20524e-05
2.06122e-07
1.16017e-05
2.35631e-07
1.11289e-05
2.06537e-07
1.05629e-05
2.52887e-07
1.02193e-05
-5.15835e-08
9.72969e-06
1.61547e-08
8.83568e-06
3.67691e-07
8.27856e-06
-4.56176e-08
8.06283e-06
-4.36238e-07
7.9103e-06
-5.27098e-07
7.74502e-06
-5.29243e-07
7.01097e-06
1.39817e-07
6.54997e-06
-1.0153e-07
6.56093e-06
-6.16977e-07
6.04823e-06
3.22795e-08
5.58501e-06
3.81408e-08
5.29266e-06
-2.43258e-07
5.88242e-06
-1.30525e-06
6.27455e-06
-1.22735e-06
4.80073e-06
6.8703e-07
1.55029e-06
2.6351e-06
-2.58701e-06
3.52547e-06
-4.98504e-06
1.45563e-06
-2.32944e-06
-4.1171e-06
2.59924e-06
-6.65093e-06
4.20432e-06
-3.57166e-06
6.08271e-06
-4.22302e-06
5.46959e-06
-2.13654e-06
-9.66014e-07
3.4418e-06
3.52739e-07
2.32656e-07
5.97442e-07
4.08586e-07
9.23307e-07
2.61773e-07
1.49986e-06
-1.97511e-07
2.34325e-06
-7.79179e-07
3.42652e-06
-1.28831e-06
4.605e-06
-1.57535e-06
5.83355e-06
-1.72577e-06
7.05179e-06
-1.75747e-06
8.21711e-06
-1.69786e-06
9.32347e-06
-1.62463e-06
1.03721e-05
-1.52946e-06
1.13315e-05
-1.33182e-06
1.22032e-05
-1.14506e-06
1.29848e-05
-9.64324e-07
1.3733e-05
-8.2023e-07
1.43398e-05
-6.03723e-07
1.49066e-05
-4.3137e-07
1.53268e-05
-1.65594e-07
1.55939e-05
6.37798e-08
1.58285e-05
2.40421e-07
1.58673e-05
4.68902e-07
1.58923e-05
5.80255e-07
1.57703e-05
7.61756e-07
1.54343e-05
9.56402e-07
1.52812e-05
8.42755e-07
1.49379e-05
8.99787e-07
1.45532e-05
9.28597e-07
1.44968e-05
5.76448e-07
1.43932e-05
3.1594e-07
1.40639e-05
4.12311e-07
1.38934e-05
3.1307e-07
1.409e-05
-2.88371e-07
1.44818e-05
-7.13735e-07
1.45933e-05
-3.06177e-07
1.43003e-05
2.58951e-07
1.41944e-05
1.06843e-07
1.46696e-05
-5.62159e-07
1.53313e-05
-6.26231e-07
1.58351e-05
-2.63995e-07
1.56973e-05
-3.54908e-07
1.43694e-05
-7.46767e-08
1.20149e-05
1.0207e-06
9.39181e-06
1.80143e-06
6.96619e-06
1.9141e-06
5.07794e-06
1.96e-06
3.79064e-06
2.12223e-06
2.76638e-06
2.16834e-06
1.78852e-06
2.08468e-06
8.87211e-07
1.89491e-06
8.28989e-08
1.67405e-06
-6.06505e-07
1.42555e-06
-1.18044e-06
1.17648e-06
-1.64478e-06
9.37551e-07
-1.98289e-06
7.08399e-07
-2.23229e-06
4.92706e-07
-2.37739e-06
2.92757e-07
-2.43449e-06
1.16151e-07
-2.42989e-06
-4.90331e-08
-2.33633e-06
-2.16059e-07
-2.16205e-06
-3.66503e-07
-1.91707e-06
-4.96038e-07
-1.62141e-06
-6.11359e-07
-1.27381e-06
-7.20761e-07
-8.99065e-07
-8.11944e-07
-4.90122e-07
-8.71232e-07
-4.35673e-08
-9.52176e-07
4.2693e-07
-1.0207e-06
9.08977e-07
-1.07522e-06
1.40447e-06
-1.12891e-06
1.90979e-06
-1.16856e-06
2.43391e-06
-1.23437e-06
2.94541e-06
-1.26189e-06
3.40985e-06
-1.23392e-06
3.86933e-06
-1.27864e-06
4.3558e-06
-1.36577e-06
4.80001e-06
-1.37348e-06
5.19889e-06
-1.35278e-06
5.49328e-06
-1.247e-06
5.76333e-06
-1.27514e-06
6.01442e-06
-1.33827e-06
6.14413e-06
-1.19359e-06
6.25821e-06
-1.26612e-06
6.28102e-06
-1.17232e-06
6.25282e-06
-1.15996e-06
6.11818e-06
-1.06807e-06
5.9109e-06
-1.04032e-06
5.61336e-06
-9.74876e-07
5.18603e-06
-8.86068e-07
4.68267e-06
-8.49249e-07
4.12975e-06
-8.10854e-07
3.52954e-06
-7.98714e-07
2.8266e-06
-7.78129e-07
2.17343e-06
-8.21679e-07
1.52557e-06
-8.61305e-07
9.0904e-07
-8.63379e-07
3.01051e-07
-8.28491e-07
-3.50828e-07
-7.38056e-07
-1.10751e-06
-5.84537e-07
-1.90662e-06
-4.82244e-07
-2.71641e-06
-4.04483e-07
-3.46822e-06
-4.23628e-07
-4.16368e-06
-3.85805e-07
-4.83469e-06
-2.55612e-07
-5.40499e-06
-2.50589e-07
-5.84325e-06
-2.75176e-07
-6.1921e-06
-2.2755e-07
-6.44261e-06
-1.02259e-07
-6.56257e-06
-3.13335e-08
-6.52919e-06
-6.6272e-09
-6.31192e-06
-1.07831e-07
-5.92839e-06
-2.45905e-07
-5.25359e-06
-5.70302e-07
-4.37444e-06
-8.03386e-07
-3.30028e-06
-1.05001e-06
-2.06292e-06
-1.22497e-06
-8.77992e-07
-1.24462e-06
4.04916e-07
-1.40884e-06
2.03721e-06
-1.91871e-06
3.84365e-06
-2.33183e-06
5.62707e-06
-1.86225e-06
7.05004e-06
-9.41166e-07
8.28327e-06
-8.36954e-07
9.53729e-06
-1.33658e-06
1.02996e-05
-1.11555e-06
1.01699e-05
-2.17965e-07
9.56801e-06
4.90601e-07
8.99916e-06
6.99625e-07
8.4118e-06
9.78871e-07
7.82052e-06
1.0879e-06
6.82567e-06
1.55992e-06
5.53204e-06
2.08525e-06
4.74096e-06
1.47188e-06
4.21563e-06
9.87582e-07
3.87715e-06
5.87293e-07
4.12529e-06
-2.94161e-07
4.63847e-06
-9.97996e-07
5.28483e-06
-1.41237e-06
6.18237e-06
-1.64089e-06
8.1085e-06
-4.22257e-06
9.18783e-06
-2.32605e-06
1.11215e-05
-3.71605e-06
1.37605e-05
-4.8533e-06
1.46405e-05
-1.66443e-06
1.62205e-05
-2.80892e-06
1.69346e-05
-1.195e-06
1.74894e-05
-9.36129e-07
1.7971e-05
-6.34424e-07
1.7731e-05
2.72879e-07
1.71313e-05
5.30386e-07
1.63463e-05
6.47686e-07
1.51877e-05
1.0686e-06
1.41682e-05
9.63229e-07
1.31264e-05
8.87781e-07
1.20974e-05
8.72297e-07
1.13163e-05
2.58106e-07
1.05343e-05
2.17365e-07
9.52742e-06
6.54336e-07
8.8725e-06
-2.66699e-07
8.8198e-06
-1.23533e-06
9.33946e-06
-1.80057e-06
9.65392e-06
-1.61978e-06
8.42466e-06
6.8011e-07
8.04963e-06
-4.49605e-07
8.29013e-06
-1.75918e-06
7.49012e-06
1.881e-07
7.04406e-06
-4.99031e-08
6.93353e-06
-1.04544e-06
6.76626e-06
-2.45001e-06
5.35738e-06
-1.08936e-06
1.86101e-06
3.27264e-06
-2.57199e-06
6.32785e-06
-6.03833e-06
6.02069e-06
-6.55117e-06
5.18052e-07
-2.14285e-06
-1.06051e-05
3.32474e-06
-1.41254e-05
5.32396e-06
-8.1508e-06
8.61762e-06
-1.0323e-05
1.02827e-05
-7.10991e-06
-4.61409e-06
1.01186e-05
5.34086e-07
6.40509e-08
9.82728e-07
3.18566e-07
1.6354e-06
-4.26077e-08
2.57379e-06
-7.89349e-07
3.71666e-06
-1.56946e-06
4.89917e-06
-2.11248e-06
6.08347e-06
-2.39885e-06
7.20109e-06
-2.48041e-06
8.23646e-06
-2.42853e-06
9.20723e-06
-2.31285e-06
1.0097e-05
-2.17422e-06
1.08763e-05
-1.96546e-06
1.16337e-05
-1.74167e-06
1.23257e-05
-1.49593e-06
1.2988e-05
-1.26549e-06
1.35918e-05
-1.07467e-06
1.41081e-05
-7.66472e-07
1.46568e-05
-6.09657e-07
1.50767e-05
-2.7568e-07
1.55092e-05
-1.82197e-08
1.58738e-05
1.56737e-07
1.60321e-05
5.47625e-07
1.62523e-05
6.55868e-07
1.63247e-05
8.31116e-07
1.61675e-05
1.23028e-06
1.59492e-05
1.25994e-06
1.58358e-05
1.17037e-06
1.56004e-05
1.20803e-06
1.52117e-05
1.0823e-06
1.50945e-05
6.52436e-07
1.51544e-05
4.91059e-07
1.50438e-05
5.94191e-07
1.47973e-05
1.9441e-07
1.48105e-05
-7.07877e-07
1.54731e-05
-1.14595e-06
1.63237e-05
-5.98505e-07
1.66094e-05
-6.30341e-08
1.59268e-05
-2.40266e-08
1.45326e-05
3.82656e-07
1.24384e-05
1.46534e-06
9.41145e-06
2.4139e-06
6.56584e-06
2.56933e-06
4.65743e-06
2.74975e-06
3.36709e-06
2.94932e-06
2.14153e-06
2.9976e-06
9.95657e-07
2.95589e-06
1.21674e-07
2.84109e-06
-5.17569e-07
2.64824e-06
-1.02239e-06
2.42638e-06
-1.44542e-06
2.15215e-06
-1.80359e-06
1.86575e-06
-2.09388e-06
1.54986e-06
-2.32487e-06
1.24237e-06
-2.46981e-06
9.19519e-07
-2.5468e-06
6.25596e-07
-2.56724e-06
3.56565e-07
-2.51567e-06
8.93356e-08
-2.37737e-06
-1.6873e-07
-2.17906e-06
-3.89163e-07
-1.94509e-06
-5.8757e-07
-1.67369e-06
-7.71279e-07
-1.34734e-06
-9.52507e-07
-9.69492e-07
-1.11759e-06
-5.82132e-07
-1.23907e-06
-1.55987e-07
-1.36989e-06
2.93368e-07
-1.45511e-06
7.77384e-07
-1.57566e-06
1.28859e-06
-1.67834e-06
1.82504e-06
-1.76773e-06
2.34614e-06
-1.81862e-06
2.83743e-06
-1.84309e-06
3.33674e-06
-1.93384e-06
3.81557e-06
-1.96273e-06
4.26075e-06
-1.9252e-06
4.68607e-06
-1.97559e-06
5.08668e-06
-2.06526e-06
5.43577e-06
-2.05325e-06
5.79435e-06
-2.07958e-06
6.10097e-06
-1.96746e-06
6.34845e-06
-1.97514e-06
6.52724e-06
-2.00188e-06
6.66473e-06
-1.86829e-06
6.72744e-06
-1.91712e-06
6.70198e-06
-1.77929e-06
6.66987e-06
-1.81147e-06
6.55284e-06
-1.68903e-06
6.3822e-06
-1.66218e-06
6.13364e-06
-1.57145e-06
5.78887e-06
-1.44861e-06
5.369e-06
-1.38959e-06
4.8418e-06
-1.29374e-06
4.30855e-06
-1.32366e-06
3.6783e-06
-1.24271e-06
2.95895e-06
-1.22699e-06
2.15739e-06
-1.20789e-06
1.37565e-06
-1.22983e-06
8.1625e-07
-1.39193e-06
3.59439e-07
-1.38323e-06
-1.68101e-07
-1.13706e-06
-7.78273e-07
-9.12474e-07
-1.42194e-06
-7.48511e-07
-2.00697e-06
-7.60798e-07
-2.57894e-06
-6.63809e-07
-3.13948e-06
-4.61381e-07
-3.64438e-06
-4.08998e-07
-4.05739e-06
-4.1492e-07
-4.38368e-06
-3.38724e-07
-4.55914e-06
-2.49645e-07
-4.50985e-06
-2.94393e-07
-4.35245e-06
-2.56826e-07
-4.11916e-06
-2.95164e-07
-3.81445e-06
-3.39168e-07
-3.34556e-06
-6.95045e-07
-2.61242e-06
-1.11102e-06
-1.62464e-06
-1.54609e-06
-4.13423e-07
-1.8791e-06
9.02389e-07
-1.95721e-06
2.15049e-06
-2.04788e-06
3.33105e-06
-2.49451e-06
4.51381e-06
-2.83742e-06
5.90225e-06
-2.47423e-06
7.50124e-06
-1.75008e-06
8.93671e-06
-1.54666e-06
9.90104e-06
-1.73457e-06
1.01478e-05
-9.96426e-07
9.45949e-06
6.79079e-07
8.54008e-06
1.58872e-06
7.67727e-06
1.73747e-06
7.04473e-06
1.75361e-06
6.43699e-06
1.82935e-06
5.34658e-06
2.69052e-06
4.42978e-06
2.88056e-06
4.34246e-06
1.44017e-06
4.29208e-06
9.48868e-07
4.00775e-06
7.02437e-07
4.42727e-06
-8.93172e-07
5.20399e-06
-1.95936e-06
5.92784e-06
-2.39302e-06
6.76431e-06
-2.7874e-06
8.24558e-06
-5.95369e-06
9.24465e-06
-3.67129e-06
1.09409e-05
-5.82263e-06
1.35677e-05
-7.70923e-06
1.4376e-05
-2.83285e-06
1.61801e-05
-4.93297e-06
1.72228e-05
-2.41706e-06
1.8082e-05
-2.07148e-06
1.9031e-05
-1.75057e-06
1.95464e-05
-2.65995e-07
1.96669e-05
3.99928e-07
1.95636e-05
6.55956e-07
1.83149e-05
2.0188e-06
1.70955e-05
1.79451e-06
1.60391e-05
1.55316e-06
1.43919e-05
2.02002e-06
1.3288e-05
8.90513e-07
1.25946e-05
4.60985e-07
1.10265e-05
1.26393e-06
9.36605e-06
2.71646e-09
8.47555e-06
-1.47714e-06
9.13547e-06
-3.10706e-06
1.04305e-05
-3.21942e-06
9.60002e-06
1.15638e-06
9.09204e-06
-6.75803e-07
9.62616e-06
-3.18345e-06
8.90716e-06
2.76856e-07
8.08284e-06
1.35672e-07
7.20519e-06
-1.3218e-06
5.57559e-06
-2.19183e-06
3.06709e-06
2.57817e-07
-5.99378e-07
6.02359e-06
-4.2548e-06
9.02288e-06
-5.90102e-06
6.40305e-06
-4.99794e-06
-2.14603e-06
-1.23762e-06
-1.65382e-05
2.59282e-06
-1.9964e-05
5.26549e-06
-1.3412e-05
8.17434e-06
-1.61491e-05
1.0357e-05
-1.2414e-05
-9.44617e-06
1.1588e-05
5.61625e-07
-1.1208e-07
1.21076e-06
4.24937e-08
2.19611e-06
-6.57388e-07
3.41381e-06
-1.63097e-06
4.68279e-06
-2.45773e-06
5.77984e-06
-2.82608e-06
6.72913e-06
-2.9657e-06
7.55968e-06
-2.9323e-06
8.32157e-06
-2.81605e-06
9.02162e-06
-2.65162e-06
9.65902e-06
-2.46622e-06
1.03002e-05
-2.26101e-06
1.09361e-05
-2.03275e-06
1.15387e-05
-1.74867e-06
1.21016e-05
-1.47863e-06
1.25527e-05
-1.18057e-06
1.30409e-05
-8.72307e-07
1.33954e-05
-5.27328e-07
1.37618e-05
-2.1507e-07
1.40742e-05
7.48026e-08
1.44176e-05
2.40635e-07
1.48427e-05
3.94984e-07
1.5025e-05
7.31155e-07
1.53715e-05
8.3247e-07
1.56685e-05
1.02559e-06
1.55997e-05
1.47346e-06
1.54108e-05
1.50509e-06
1.52406e-05
1.42109e-06
1.52482e-05
1.394e-06
1.51223e-05
9.67684e-07
1.48337e-05
6.74589e-07
1.51069e-05
4.32369e-07
1.57472e-05
-1.21042e-07
1.58186e-05
-6.98775e-07
1.5179e-05
-7.30018e-07
1.4302e-05
1.02696e-07
1.27409e-05
1.38639e-06
1.01387e-05
2.39919e-06
7.43464e-06
2.89231e-06
5.44991e-06
3.27482e-06
4.01338e-06
3.69361e-06
2.62842e-06
3.81182e-06
1.45594e-06
3.78751e-06
6.25752e-07
3.64238e-06
-1.79936e-08
3.49754e-06
-5.17402e-07
3.30715e-06
-9.23354e-07
3.09629e-06
-1.23517e-06
2.80726e-06
-1.47726e-06
2.51274e-06
-1.65816e-06
2.17629e-06
-1.79613e-06
1.84708e-06
-1.90726e-06
1.50441e-06
-1.98292e-06
1.1617e-06
-2.03599e-06
8.1666e-07
-2.03015e-06
4.65153e-07
-1.95486e-06
1.29618e-07
-1.81604e-06
-1.97867e-07
-1.62989e-06
-4.99755e-07
-1.37378e-06
-7.86528e-07
-1.06294e-06
-1.03687e-06
-7.0358e-07
-1.2647e-06
-3.39444e-07
-1.45e-06
5.41699e-08
-1.64444e-06
5.01168e-07
-1.82084e-06
9.7051e-07
-1.97637e-06
1.44114e-06
-2.06692e-06
1.91131e-06
-2.19313e-06
2.39911e-06
-2.32113e-06
2.92057e-06
-2.45399e-06
3.44803e-06
-2.52461e-06
3.94212e-06
-2.53228e-06
4.43215e-06
-2.63466e-06
4.90174e-06
-2.66653e-06
5.30402e-06
-2.59117e-06
5.69741e-06
-2.66187e-06
6.05828e-06
-2.74984e-06
6.3131e-06
-2.67122e-06
6.56359e-06
-2.72883e-06
6.81715e-06
-2.66492e-06
7.00591e-06
-2.65409e-06
7.09214e-06
-2.6192e-06
7.19024e-06
-2.53623e-06
7.26019e-06
-2.60049e-06
7.24225e-06
-2.4269e-06
7.1691e-06
-2.45018e-06
7.0442e-06
-2.32363e-06
6.83372e-06
-2.26337e-06
6.55931e-06
-2.15423e-06
6.23789e-06
-2.03473e-06
5.822e-06
-1.93481e-06
5.34124e-06
-1.82312e-06
4.8046e-06
-1.8429e-06
4.23859e-06
-1.77373e-06
3.70253e-06
-1.80086e-06
3.00101e-06
-1.6396e-06
2.02231e-06
-1.42066e-06
1.11967e-06
-1.64007e-06
5.00499e-07
-1.87342e-06
6.15389e-09
-1.73161e-06
-5.46214e-07
-1.41625e-06
-1.09638e-06
-1.19617e-06
-1.52741e-06
-1.25354e-06
-1.90293e-06
-1.13966e-06
-2.30472e-06
-8.33722e-07
-2.70197e-06
-6.85389e-07
-2.98787e-06
-6.89774e-07
-3.17415e-06
-6.05776e-07
-3.17769e-06
-5.84743e-07
-2.94871e-06
-7.40255e-07
-2.72305e-06
-5.83038e-07
-2.51284e-06
-4.87996e-07
-2.30611e-06
-3.86144e-07
-2.17462e-06
-5.31754e-07
-1.79284e-06
-1.12323e-06
-1.14266e-06
-1.79194e-06
-2.56992e-07
-2.31453e-06
9.6569e-07
-2.67039e-06
2.24175e-06
-2.77685e-06
3.46041e-06
-3.17212e-06
4.8078e-06
-3.61551e-06
6.31741e-06
-3.2851e-06
7.80656e-06
-2.42175e-06