/*--------------------------------*- C++ -*----------------------------------*\
| =========                 |                                                 |
| \\      /  F ield         | OpenFOAM: The Open Source CFD Toolbox           |
|  \\    /   O peration     | Version:  dev                                   |
|   \\  /    A nd           | Web:      http://www.openfoam.org               |
|    \\/     M anipulation  |                                                 |
\*---------------------------------------------------------------------------*/
FoamFile
{
    version     2.0;
    format      ascii;
    class       volScalarField;
    object      pMean;
    location    "9.164";
}
// * * * * * * * * * * * * * * * * * * * * * * * * * * * * * * * * * * * * * //

dimensions      [1 -1 -2 0 0 0 0];

internalField   nonuniform List<scalar> 
12225
(
98310.1
98290.4
98276.6
98269.6
98255.3
98245.9
98227.5
98217.9
98196.4
98187.7
98163
98156.1
98125.2
98118.9
98078.1
98038.4
97949.3
97583.4
98305.6
98289.3
98276
98269.1
98254.7
98245.4
98226.8
98217.4
98195.7
98187.3
98162.3
98155.6
98124.8
98117
98076.4
98042.5
97950.2
97789.2
98301.9
98287.7
98275
98267.7
98253.3
98243.9
98225.3
98216
98194.3
98185.8
98161.4
98153.6
98125.4
98113.6
98078.7
98043.4
97976.1
97887.3
98296.8
98284.8
98272.9
98265.2
98250.9
98241.2
98223.2
98213.3
98192.5
98183.1
98160.1
98150.5
98124.3
98111.4
98079.6
98051.8
98003.3
97934.5
98290.2
98280.4
98269.4
98261.2
98247.3
98237.1
98220.2
98209.2
98190.1
98178.8
98158.6
98146
98124.5
98108.1
98081.5
98057.3
98017.5
97984.8
98281.9
98274.2
98263.5
98255.2
98241.7
98231.1
98215.1
98203.5
98185.7
98173.6
98155.4
98141.8
98123.4
98106.5
98085.1
98059.8
98037.7
98017.3
98271.7
98265.3
98255
98246.5
98233.9
98222.8
98208
98195.4
98179.7
98166.2
98150.8
98135.7
98121.2
98103.6
98089.3
98068.4
98058
98043.1
98261
98255.3
98245.6
98236.9
98225.2
98213.7
98200.1
98186.9
98172.9
98158.6
98145.5
98129.9
98118.3
98101
98092.3
98074.5
98072.8
98057.8
98250.1
98244.7
98235.9
98226.9
98216.1
98204.3
98191.8
98178.3
98165.7
98151.1
98139.7
98124.2
98114.5
98098.5
98092.2
98078.1
98077.8
98065.8
98236.5
98231.1
98223.4
98214.3
98204.4
98192.6
98181.1
98167.6
98156.4
98141.8
98131.9
98116.9
98108.8
98094.4
98089.4
98077.6
98076.9
98068.6
98219.6
98214.1
98207.6
98198.8
98189.7
98178.2
98167.4
98154.5
98144
98130.4
98121
98107.9
98099.9
98088.4
98082.7
98074.2
98071.5
98066.3
98199.1
98193.4
98188.1
98179.7
98171.3
98160.3
98150.4
98138.1
98128.5
98116
98107.3
98095.8
98088.3
98079
98073.3
98066.9
98063.3
98059.7
98174.3
98169
98164.5
98157
98149
98139.1
98129.6
98118.8
98109.5
98098.9
98090.4
98081.1
98073.9
98066.7
98061.2
98056.4
98052.8
98050
98146.1
98141.3
98137.3
98130.8
98123.5
98114.6
98106
98096.5
98088
98079
98071.3
98063.7
98057.3
98051.6
98046.9
98043.1
98040.1
98038
98116
98112.3
98108.5
98103.1
98096.6
98089
98081.2
98073.1
98065.5
98058.1
98051.3
98045.2
98039.9
98035.4
98031.7
98028.7
98026.5
98025
98088.3
98085.6
98082.2
98077.7
98072.1
98065.6
98058.8
98051.9
98045.3
98039.2
98033.6
98028.6
98024.3
98020.7
98017.9
98015.7
98014.1
98013.2
98069.8
98067.8
98065.1
98061.1
98056.2
98050.5
98044.6
98038.6
98033
98027.7
98022.9
98018.8
98015.2
98012.3
98010
98008.3
98007.1
98006.5
98070
98068.3
98065.8
98062.1
98057.3
98052
98046.4
98040.8
98035.5
98030.6
98026.1
98022.1
98018.8
98016
98013.7
98012
98010.8
98010.1
98089.7
98087.9
98085
98081
98076.1
98070.6
98064.8
98059
98053.4
98048.2
98043.4
98039.1
98035.4
98032.2
98029.5
98027.4
98025.7
98024.4
98120.4
98118.3
98114.9
98110.4
98104.9
98098.9
98092.6
98086.2
98080.1
98074.2
98068.8
98063.9
98059.5
98055.7
98052.3
98049.5
98047.1
98045.1
98155.2
98152.6
98148.5
98143.4
98137.3
98130.7
98123.7
98116.7
98109.9
98103.3
98097.2
98091.6
98086.4
98081.8
98077.7
98074.1
98071
98068.3
98189.1
98186
98181.2
98175.3
98168.6
98161.4
98153.9
98146.3
98138.8
98131.6
98124.8
98118.4
98112.6
98107.2
98102.4
98098.1
98094.2
98090.8
98219.2
98215.6
98210
98203.5
98196.3
98188.6
98180.5
98172.4
98164.4
98156.6
98149.2
98142.3
98135.8
98129.8
98124.4
98119.4
98114.9
98110.9
98244.5
98240.2
98233.9
98226.7
98219.1
98211
98202.6
98194.1
98185.6
98177.4
98169.5
98162.1
98155.1
98148.6
98142.6
98137.2
98132.2
98127.7
98264.7
98259.5
98252.4
98244.7
98236.7
98228.4
98219.7
98211
98202.2
98193.6
98185.4
98177.6
98170.2
98163.3
98157
98151.1
98145.8
98140.9
98280.4
98274.1
98266
98257.8
98249.7
98241.2
98232.4
98223.4
98214.5
98205.7
98197.2
98189.1
98181.4
98174.3
98167.6
98161.5
98155.8
98150.6
98292.2
98284.3
98275.2
98266.8
98258.5
98250
98241.1
98232.1
98223
98214
98205.3
98197.1
98189.2
98181.9
98175
98168.7
98162.8
98157.5
98300.9
98291
98281
98272.3
98264.1
98255.6
98246.7
98237.6
98228.5
98219.4
98210.6
98202.2
98194.3
98186.8
98179.9
98173.4
98167.4
98161.9
98307
98294.8
98283.7
98275.1
98267
98258.7
98249.9
98240.8
98231.6
98222.5
98213.7
98205.2
98197.2
98189.6
98182.6
98176
98170
98164.4
98312.9
98297.4
98285.3
98276.5
98268.3
98260
98251.2
98242.1
98232.9
98223.8
98214.9
98206.4
98198.4
98190.8
98183.7
98177.2
98171.1
98165.5
98310
98309.7
98308.9
98307.7
98306.2
98304.4
98302.2
98299.6
98296.5
98293.1
98289.2
98285
98280.4
98275.4
98270.2
98264.7
98259
98253.1
98247
98240.8
98234.3
98227.8
98221.1
98214.3
98207.4
98200.4
98193.4
98186.4
98179.3
98172.2
98165.1
98158
98151
98144.1
98137.2
98130.4
98123.8
98117.3
98111
98104.9
98098.9
98093.3
98087.8
98082.7
98077.9
98073.4
98069.3
98065.6
98062.3
98059.4
98057.1
98055.1
98053.8
98052.9
98052.6
98053
98053.9
98055.6
98057.8
98060.8
98064.5
98068.8
98073.9
98079.8
98086.3
98093.5
98101.5
98110.1
98119.5
98129.4
98140
98151.2
98162.9
98175.2
98188
98201.2
98214.8
98228.8
98243.1
98257.7
98272.5
98287.5
98302.6
98317.8
98333.1
98348.4
98363.5
98378.6
98393.5
98408.2
98422.7
98436.8
98450.6
98463.9
98476.8
98489.2
98501.1
98512.5
98523.2
98533.4
98542.9
98551.8
98560
98567.6
98574.5
98580.8
98586.6
98591.7
98596.3
98600.4
98604.1
98607.3
98610.2
98612.7
98614.9
98616.8
98618.4
98619.9
98621.1
98622.2
98623.3
98624.4
98625.6
98626.9
98628.5
98630.5
98633.2
98636.6
98641
98646.6
98653.7
98662.4
98673.1
98686
98701.3
98719.4
98740.2
98764
98790.8
98820.6
98853.6
98889.5
98928.3
98969.8
99014.2
99060.7
99109.7
99160.4
99213
99267.2
99322.7
99379.1
99436.1
99493.5
99550.8
99607.4
99662.8
99716.6
99767.6
99815.6
99859.1
99897.5
99929.6
99954.7
99971.5
99979.1
99976.5
99963.6
99939.6
99905
99859.6
99804.9
99741
99670.3
99593.3
99512.8
99428.2
99343.5
99256.6
99173.4
98303.1
98302.7
98301.9
98300.8
98299.2
98297.4
98295.1
98292.5
98289.5
98286.1
98282.4
98278.2
98273.7
98268.9
98263.9
98258.6
98253
98247.3
98241.4
98235.3
98229.1
98222.7
98216.2
98209.5
98202.8
98196
98189.2
98182.2
98175.3
98168.4
98161.4
98154.5
98147.7
98140.9
98134.2
98127.5
98121.1
98114.7
98108.5
98102.5
98096.7
98091.1
98085.8
98080.8
98076
98071.6
98067.6
98063.9
98060.7
98057.8
98055.5
98053.5
98052.1
98051.3
98051
98051.3
98052.2
98053.7
98055.9
98058.8
98062.4
98066.7
98071.6
98077.3
98083.7
98090.8
98098.6
98107.1
98116.3
98126.1
98136.4
98147.4
98159
98171
98183.6
98196.6
98210
98223.7
98237.8
98252.1
98266.7
98281.5
98296.3
98311.3
98326.3
98341.3
98356.2
98371
98385.6
98400
98414.1
98428
98441.4
98454.5
98467.1
98479.3
98490.9
98502
98512.5
98522.3
98531.6
98540.3
98548.3
98555.7
98562.5
98568.6
98574.2
98579.2
98583.7
98587.7
98591.3
98594.4
98597.2
98599.6
98601.8
98603.6
98605.2
98606.6
98607.8
98608.8
98609.8
98610.8
98611.8
98613
98614.5
98616.3
98618.7
98621.9
98626
98631.3
98638
98646.2
98656.4
98668.8
98683.5
98700.8
98720.9
98743.9
98769.9
98798.8
98830.9
98865.8
98903.6
98944
98987.2
99032.6
99080.4
99130
99181.4
99234.4
99288.7
99344
99399.9
99456.2
99512.5
99568.1
99622.6
99675.6
99725.9
99773.2
99816.4
99854.5
99886.5
99911.7
99928.9
99937
99935.3
99923.4
99900.7
99867.6
99823.9
99770.9
99708.7
99639.9
99564.6
99485.8
99402.9
99319.7
99233.8
99148.8
98290.4
98290
98289.3
98288
98286.5
98284.5
98282.2
98279.5
98276.5
98273.1
98269.4
98265.4
98261.1
98256.5
98251.6
98246.6
98241.4
98236
98230.4
98224.7
98218.8
98212.8
98206.7
98200.4
98194.1
98187.6
98181.1
98174.5
98167.9
98161.2
98154.6
98147.9
98141.3
98134.8
98128.3
98121.9
98115.7
98109.6
98103.6
98097.8
98092.2
98086.8
98081.7
98076.8
98072.2
98067.9
98064
98060.4
98057.2
98054.4
98052
98050.1
98048.6
98047.7
98047.3
98047.5
98048.3
98049.8
98051.8
98054.6
98057.9
98062
98066.8
98072.2
98078.3
98085.2
98092.7
98100.9
98109.7
98119.1
98129.2
98139.8
98151
98162.7
98174.8
98187.4
98200.4
98213.7
98227.3
98241.2
98255.3
98269.6
98284
98298.4
98312.9
98327.4
98341.8
98356
98370.1
98384
98397.5
98410.8
98423.7
98436.2
98448.3
98459.9
98471
98481.5
98491.5
98500.9
98509.7
98518
98525.6
98532.6
98539
98544.9
98550.2
98554.9
98559.2
98563
98566.4
98569.3
98571.9
98574.2
98576.2
98577.9
98579.4
98580.7
98581.7
98582.6
98583.4
98584.2
98585
98585.8
98586.9
98588.4
98590.3
98592.9
98596.4
98600.9
98606.8
98614.1
98623.4
98634.6
98648
98664
98682.7
98704.1
98728.3
98755.5
98785.6
98818.5
98854.1
98892.4
98933.4
98976.5
99022
99069.2
99118.3
99168.9
99220.9
99273.8
99327.5
99381.7
99435.7
99489.4
99542
99593.2
99642
99687.9
99729.9
99767.2
99798.7
99823.8
99841.3
99850.2
99849.8
99839.8
99819.4
99788.9
99748.3
99698.7
99640.1
99574.9
99503.3
99428
99348.5
99268.5
99185.5
99101.6
98272.9
98272.6
98271.9
98270.7
98269.1
98267.1
98264.7
98262.1
98259.1
98255.8
98252.1
98248.3
98244.1
98239.8
98235.2
98230.5
98225.6
98220.6
98215.4
98210.1
98204.7
98199.2
98193.5
98187.8
98181.9
98175.9
98169.8
98163.7
98157.6
98151.4
98145.2
98139
98132.8
98126.7
98120.6
98114.6
98108.7
98102.9
98097.2
98091.7
98086.4
98081.2
98076.2
98071.5
98067.1
98063
98059.1
98055.7
98052.6
98049.8
98047.5
98045.5
98044.1
98043.1
98042.6
98042.7
98043.4
98044.6
98046.5
98049
98052.1
98055.9
98060.3
98065.4
98071.1
98077.6
98084.7
98092.4
98100.8
98109.8
98119.3
98129.5
98140.1
98151.3
98162.8
98174.8
98187.2
98199.9
98212.9
98226.1
98239.6
98253.2
98266.9
98280.6
98294.4
98308.1
98321.8
98335.3
98348.6
98361.7
98374.6
98387.1
98399.3
98411
98422.3
98433.1
98443.5
98453.3
98462.6
98471.3
98479.5
98487.1
98494.1
98500.6
98506.6
98512
98516.8
98521.2
98525.2
98528.6
98531.7
98534.5
98536.9
98539
98540.8
98542.3
98543.6
98544.6
98545.5
98546.1
98546.7
98547.1
98547.5
98547.9
98548.5
98549.3
98550.6
98552.4
98554.9
98558.4
98563.2
98569.2
98577
98586.6
98598.4
98612.5
98629.1
98648.3
98670.2
98694.8
98722.3
98752.4
98785.2
98820.5
98858.4
98898.4
98940.6
98984.7
99030.6
99078
99126.8
99176.7
99227.3
99278.5
99329.7
99380.6
99430.6
99479.3
99526
99570
99610.3
99646.4
99677
99701.8
99719.6
99729.2
99730.2
99722.2
99704.5
99677.4
99640.6
99595.3
99541.4
99481
99414.2
99343.8
99269
99193.5
99114.7
99034.6
98251.8
98251.5
98250.8
98249.7
98248.1
98246.2
98243.9
98241.3
98238.4
98235.2
98231.7
98228
98224.1
98219.9
98215.7
98211.3
98206.8
98202.1
98197.4
98192.6
98187.6
98182.6
98177.4
98172.2
98166.8
98161.4
98155.9
98150.4
98144.8
98139.2
98133.5
98127.9
98122.2
98116.6
98111
98105.5
98100.1
98094.8
98089.5
98084.4
98079.4
98074.6
98069.9
98065.4
98061.2
98057.3
98053.6
98050.3
98047.3
98044.6
98042.3
98040.3
98038.8
98037.8
98037.2
98037.1
98037.6
98038.7
98040.3
98042.4
98045.2
98048.6
98052.6
98057.3
98062.6
98068.5
98075.1
98082.3
98090.1
98098.5
98107.4
98116.9
98126.9
98137.3
98148.2
98159.5
98171.1
98183
98195.2
98207.6
98220.2
98232.9
98245.7
98258.6
98271.4
98284.2
98297
98309.6
98322
98334.2
98346
98357.6
98368.9
98379.7
98390.1
98400
98409.4
98418.3
98426.8
98434.7
98442.1
98448.9
98455.3
98461.1
98466.4
98471.2
98475.6
98479.5
98483
98486.1
98488.9
98491.3
98493.4
98495.2
98496.8
98498
98499.1
98499.8
98500.4
98500.7
98500.9
98500.9
98500.8
98500.6
98500.6
98500.7
98501.1
98501.9
98503.3
98505.6
98508.9
98513.4
98519.4
98527.1
98536.8
98548.6
98562.7
98579.2
98598.3
98619.9
98644.2
98671
98700.2
98732
98766.2
98802.5
98840.9
98881.1
98923.2
98966.8
99011.9
99058
99104.9
99152.6
99200.2
99247.7
99294.6
99340.4
99384.4
99426
99464.3
99498.7
99528.2
99552.3
99570
99580.4
99582.7
99576.9
99562.1
99538.8
99506.4
99466.1
99417.5
99362.9
99301.9
99237.5
99168.5
99098.5
99025.2
98950.6
98228.4
98228.2
98227.5
98226.5
98225.1
98223.3
98221.1
98218.7
98215.9
98212.9
98209.6
98206.1
98202.4
98198.6
98194.6
98190.5
98186.3
98182
98177.7
98173.3
98168.8
98164.2
98159.6
98154.8
98150
98145.2
98140.2
98135.3
98130.3
98125.3
98120.3
98115.2
98110.2
98105.2
98100.2
98095.2
98090.3
98085.5
98080.7
98076.1
98071.5
98067.1
98062.8
98058.7
98054.7
98051
98047.6
98044.4
98041.5
98038.9
98036.7
98034.7
98033.2
98032.1
98031.4
98031.1
98031.4
98032.2
98033.5
98035.4
98037.8
98040.7
98044.3
98048.4
98053.2
98058.5
98064.5
98071
98078.2
98085.8
98094
98102.8
98112
98121.6
98131.6
98142
98152.7
98163.7
98175
98186.4
98198
98209.7
98221.5
98233.4
98245.2
98256.9
98268.6
98280.1
98291.5
98302.5
98313.4
98323.9
98334
98343.8
98353.1
98362
98370.4
98378.4
98385.8
98392.8
98399.3
98405.4
98410.9
98415.9
98420.6
98424.7
98428.5
98431.8
98434.8
98437.5
98439.8
98441.9
98443.6
98445.1
98446.3
98447.2
98447.9
98448.3
98448.5
98448.4
98448.1
98447.6
98447
98446.2
98445.4
98444.7
98444.1
98443.7
98443.9
98444.7
98446.4
98449.2
98453.2
98458.7
98466
98475.2
98486.5
98500.1
98516
98534.2
98554.9
98578
98603.5
98631.2
98661.3
98693.5
98727.7
98763.8
98801.6
98841
98881.9
98923.9
98966.8
99010.4
99054.2
99098
99141.3
99183.7
99224.6
99263.5
99299.4
99331.9
99359.8
99383
99400.4
99411.2
99414.8
99411.1
99399.4
99380
99352.1
99317
99274.2
99225.8
99171.1
99113.4
99050.9
98987.5
98920.6
98852.5
98204
98203.8
98203.3
98202.4
98201.1
98199.5
98197.5
98195.3
98192.8
98190
98186.9
98183.7
98180.3
98176.8
98173.1
98169.3
98165.5
98161.6
98157.6
98153.6
98149.5
98145.3
98141.1
98136.9
98132.6
98128.3
98123.9
98119.6
98115.1
98110.7
98106.3
98101.8
98097.4
98092.9
98088.5
98084.2
98079.8
98075.5
98071.3
98067.1
98063
98058.9
98055
98051.3
98047.7
98044.2
98041
98038
98035.3
98032.8
98030.6
98028.7
98027.1
98025.9
98025.1
98024.7
98024.8
98025.3
98026.3
98027.8
98029.8
98032.3
98035.4
98039
98043.1
98047.8
98053.1
98059
98065.3
98072.2
98079.6
98087.5
98095.8
98104.6
98113.7
98123.1
98132.8
98142.8
98153
98163.4
98174
98184.6
98195.3
98205.9
98216.6
98227.2
98237.7
98248
98258.2
98268.1
98277.7
98287
98296
98304.6
98312.8
98320.6
98327.9
98334.8
98341.3
98347.3
98352.9
98358
98362.7
98366.9
98370.8
98374.2
98377.3
98380
98382.5
98384.6
98386.5
98388.1
98389.4
98390.4
98391.2
98391.7
98392
98392
98391.7
98391.2
98390.4
98389.4
98388.1
98386.5
98384.9
98383.2
98381.6
98380
98378.7
98378
98378
98378.9
98380.7
98384
98388.7
98395.2
98403.5
98414
98426.4
98441.1
98458.1
98477.2
98498.7
98522.3
98548.1
98575.9
98605.7
98637.5
98670.9
98705.9
98742.4
98780.1
98818.7
98858
98897.7
98937.6
98977.2
99016
99053.4
99089.2
99122.5
99152.6
99178.7
99200.6
99217.4
99228.3
99233
99231.3
99222.4
99206.7
99183.2
99153.4
99116.4
99074.3
99026.3
98975.6
98920
98863.8
98803.8
98743
98179.8
98179.7
98179.3
98178.5
98177.4
98176
98174.3
98172.4
98170.1
98167.6
98164.9
98162
98158.9
98155.7
98152.3
98148.9
98145.4
98141.8
98138.2
98134.5
98130.8
98127.1
98123.3
98119.5
98115.7
98111.9
98108.1
98104.2
98100.3
98096.4
98092.5
98088.6
98084.7
98080.8
98077
98073.1
98069.3
98065.5
98061.7
98058
98054.3
98050.7
98047.1
98043.7
98040.4
98037.2
98034.2
98031.4
98028.8
98026.4
98024.3
98022.4
98020.8
98019.5
98018.6
98018.1
98017.9
98018.1
98018.8
98019.9
98021.5
98023.6
98026.1
98029.2
98032.8
98036.8
98041.4
98046.5
98052.1
98058.2
98064.8
98071.8
98079.2
98087
98095.1
98103.5
98112.3
98121.2
98130.3
98139.6
98149
98158.5
98168
98177.5
98186.9
98196.3
98205.5
98214.6
98223.5
98232.2
98240.5
98248.6
98256.4
98263.8
98270.8
98277.4
98283.7
98289.5
98294.9
98299.9
98304.5
98308.7
98312.5
98315.9
98318.9
98321.7
98324
98326.1
98327.9
98329.5
98330.8
98331.9
98332.7
98333.3
98333.6
98333.7
98333.5
98333
98332.2
98331.2
98329.8
98328.1
98326.1
98323.7
98321.2
98318.4
98315.6
98312.8
98310.1
98307.8
98306
98304.9
98304.6
98305.4
98307.6
98311.3
98316.7
98323.9
98332.9
98344
98357.2
98372.5
98389.9
98409.4
98430.8
98454.3
98479.7
98507.2
98536.2
98566.8
98598.8
98632.2
98666.3
98701.4
98737
98772.9
98808.6
98843.5
98877.4
98909.8
98940
98967.6
98991.4
99011.7
99027.4
99038.3
99043.7
99043.6
99037.2
99024.8
99005.4
98980.5
98949.1
98913.2
98872
98828.3
98779.8
98730.9
98678.2
98625
98157
98157
98156.7
98156
98155.1
98153.9
98152.5
98150.7
98148.8
98146.6
98144.2
98141.6
98138.9
98136
98133
98129.9
98126.8
98123.6
98120.3
98117
98113.7
98110.4
98107
98103.7
98100.3
98096.9
98093.6
98090.2
98086.7
98083.3
98079.9
98076.5
98073
98069.6
98066.2
98062.8
98059.4
98056.1
98052.7
98049.3
98046
98042.7
98039.5
98036.4
98033.3
98030.4
98027.6
98024.9
98022.5
98020.1
98018
98016.2
98014.5
98013.2
98012.1
98011.4
98011
98011
98011.4
98012.1
98013.3
98014.9
98017
98019.5
98022.4
98025.9
98029.8
98034.2
98039
98044.3
98050
98056.1
98062.6
98069.5
98076.7
98084.1
98091.8
98099.7
98107.7
98115.9
98124.1
98132.4
98140.7
98149
98157.2
98165.4
98173.4
98181.2
98188.8
98196.2
98203.3
98210.1
98216.7
98222.8
98228.7
98234.1
98239.2
98243.9
98248.2
98252.2
98255.8
98259
98261.9
98264.5
98266.8
98268.7
98270.4
98271.8
98272.9
98273.9
98274.6
98275.2
98275.4
98275.4
98275.2
98274.7
98274
98273
98271.6
98270
98267.9
98265.5
98262.7
98259.5
98256
98252.2
98248.2
98244.1
98240.1
98236.2
98232.6
98229.5
98227.1
98225.6
98225.2
98226.2
98228.6
98232.6
98238.3
98246
98255.4
98267
98280.5
98296
98313.3
98332.5
98353.7
98376.9
98401.6
98427.8
98455.5
98484.5
98514.4
98545.3
98576.8
98608.7
98640.4
98671.4
98701.6
98730.4
98757.4
98782.2
98803.6
98821.8
98836.1
98846.4
98852
98853.1
98848.5
98838.9
98823.2
98802.8
98776.5
98746.6
98711.9
98675
98633.5
98592.1
98546.6
98501.4
98136.3
98136.4
98136.2
98135.7
98135
98134
98132.8
98131.4
98129.7
98127.8
98125.8
98123.5
98121.1
98118.6
98116
98113.3
98110.5
98107.7
98104.8
98101.9
98099
98096
98093.1
98090.1
98087.1
98084.2
98081.2
98078.1
98075.1
98072.1
98069.1
98066
98063
98060
98056.9
98053.9
98050.9
98047.8
98044.8
98041.7
98038.7
98035.7
98032.7
98029.8
98027
98024.2
98021.5
98019
98016.6
98014.3
98012.2
98010.3
98008.6
98007.2
98006
98005.1
98004.5
98004.2
98004.3
98004.7
98005.5
98006.7
98008.3
98010.3
98012.7
98015.5
98018.8
98022.5
98026.6
98031.2
98036.1
98041.3
98046.9
98052.9
98059.1
98065.6
98072.3
98079.1
98086.1
98093.2
98100.3
98107.5
98114.6
98121.7
98128.7
98135.6
98142.4
98149
98155.3
98161.4
98167.3
98172.9
98178.2
98183.2
98187.8
98192.1
98196
98199.6
98202.8
98205.7
98208.3
98210.6
98212.6
98214.4
98215.8
98217
98217.9
98218.6
98219.1
98219.4
98219.5
98219.3
98219
98218.5
98217.7
98216.6
98215.2
98213.6
98211.5
98209.2
98206.4
98203.3
98199.6
98195.6
98191.1
98186.2
98181.1
98175.8
98170.4
98165
98159.7
98154.8
98150.3
98146.6
98143.8
98142.1
98141.7
98142.8
98145.3
98149.6
98155.6
98163.5
98173.3
98185
98198.5
98213.9
98231
98250.1
98270.8
98293
98316.5
98341.4
98367.2
98394
98421.5
98449.4
98477
98504.3
98530.6
98555.8
98579.5
98601.2
98619.9
98635.8
98648.3
98657.4
98662.6
98664.1
98660.9
98653.4
98640.8
98624.3
98602.6
98578.3
98549.6
98519.2
98484.4
98450.1
98411.9
98374.4
98118.5
98118.7
98118.5
98118.2
98117.6
98116.8
98115.8
98114.7
98113.3
98111.7
98110
98108.1
98106.1
98104
98101.7
98099.4
98097
98094.5
98092
98089.5
98087
98084.4
98081.8
98079.2
98076.6
98074
98071.3
98068.6
98066
98063.3
98060.6
98057.8
98055.1
98052.4
98049.6
98046.9
98044.1
98041.3
98038.5
98035.7
98032.8
98030
98027.2
98024.4
98021.7
98019
98016.5
98014
98011.6
98009.3
98007.2
98005.2
98003.4
98001.9
98000.5
97999.5
97998.6
97998.1
97997.9
97998
97998.5
97999.3
98000.5
98002
98003.9
98006.2
98008.9
98012
98015.4
98019.2
98023.4
98027.9
98032.7
98037.8
98043.1
98048.6
98054.4
98060.2
98066.2
98072.3
98078.3
98084.4
98090.4
98096.4
98102.3
98108
98113.6
98119
98124.1
98129.1
98133.7
98138.1
98142.2
98146
98149.4
98152.6
98155.4
98157.9
98160
98161.9
98163.5
98164.8
98165.9
98166.7
98167.3
98167.7
98167.8
98167.8
98167.5
98167.1
98166.5
98165.7
98164.7
98163.5
98162.1
98160.4
98158.3
98155.9
98153.2
98150.1
98146.6
98142.6
98138.1
98133.2
98127.7
98121.9
98115.7
98109.2
98102.5
98095.6
98088.8
98082.2
98075.9
98070.1
98065.1
98061
98058
98056.3
98055.9
98057.1
98060
98064.6
98070.9
98079.2
98089.2
98101
98114.4
98129.9
98146.9
98165.4
98185
98206
98228
98250.9
98274.5
98298.4
98322.1
98345.6
98368.2
98389.6
98409.8
98428.2
98444.1
98457.3
98467.5
98475
98479
98480.3
98477.7
98471.8
98461.8
98448.6
98430.9
98411.5
98388.2
98363.7
98335.2
98307.7
98276.4
98246.4
98103.9
98104
98104
98103.7
98103.3
98102.8
98102
98101.1
98100
98098.8
98097.4
98095.8
98094.2
98092.4
98090.5
98088.6
98086.6
98084.5
98082.4
98080.3
98078.1
98075.9
98073.7
98071.4
98069.1
98066.8
98064.5
98062.1
98059.7
98057.2
98054.8
98052.3
98049.8
98047.2
98044.7
98042.1
98039.5
98036.8
98034.2
98031.4
98028.7
98026
98023.2
98020.5
98017.9
98015.2
98012.7
98010.2
98007.7
98005.4
98003.2
98001.2
97999.3
97997.6
97996.1
97994.8
97993.8
97993.1
97992.6
97992.5
97992.6
97993.1
97993.9
97995
97996.5
97998.3
98000.4
98002.9
98005.8
98009
98012.4
98016.2
98020.3
98024.6
98029.1
98033.9
98038.7
98043.7
98048.7
98053.8
98058.9
98064
98069
98073.9
98078.7
98083.3
98087.8
98092
98096.1
98099.8
98103.4
98106.6
98109.5
98112.2
98114.5
98116.6
98118.3
98119.7
98120.8
98121.7
98122.2
98122.6
98122.8
98122.7
98122.4
98121.9
98121.2
98120.4
98119.4
98118.2
98116.8
98115.3
98113.6
98111.6
98109.5
98107
98104.3
98101.2
98097.7
98093.8
98089.4
98084.6
98079.3
98073.5
98067.1
98060.3
98053.1
98045.5
98037.6
98029.5
98021.2
98013.1
98005.1
97997.6
97990.6
97984.3
97978.9
97974.7
97971.7
97970.3
97970.3
97972
97975.3
97980.5
97987.4
97996
98006.3
98018.4
98032
98047.2
98063.3
98080.8
98099.2
98118.4
98138.4
98158.6
98178.5
98198.4
98217
98234.7
98251.2
98266.1
98279
98289.2
98296.8
98302.1
98304.5
98304.7
98302.1
98297.2
98288.9
98278.4
98264.2
98248.8
98230.3
98211.1
98188.4
98167.2
98142.2
98119.4
98092.4
98092.7
98092.7
98092.5
98092.3
98091.9
98091.3
98090.7
98089.8
98088.9
98087.8
98086.6
98085.3
98083.9
98082.5
98080.9
98079.3
98077.7
98076
98074.2
98072.4
98070.6
98068.7
98066.8
98064.8
98062.8
98060.7
98058.5
98056.3
98054.1
98051.8
98049.5
98047.1
98044.7
98042.2
98039.7
98037.2
98034.6
98032
98029.3
98026.6
98023.8
98021.1
98018.4
98015.7
98013
98010.4
98007.8
98005.3
98002.9
98000.6
97998.4
97996.4
97994.5
97992.9
97991.5
97990.3
97989.3
97988.6
97988.2
97988.1
97988.2
97988.7
97989.5
97990.6
97992
97993.7
97995.7
97998.1
98000.7
98003.6
98006.8
98010.2
98013.8
98017.6
98021.6
98025.7
98029.8
98034.1
98038.3
98042.5
98046.7
98050.7
98054.7
98058.5
98062.1
98065.5
98068.7
98071.7
98074.4
98076.8
98079
98080.8
98082.4
98083.7
98084.7
98085.3
98085.7
98085.8
98085.6
98085.2
98084.7
98083.9
98082.9
98081.7
98080.3
98078.8
98077.1
98075.3
98073.3
98071.1
98068.8
98066.3
98063.6
98060.7
98057.4
98053.8
98050
98045.7
98041
98035.8
98030.2
98024.1
98017.4
98010.2
98002.5
97994.3
97985.7
97976.7
97967.5
97958.1
97948.6
97939.1
97930
97921.3
97913.1
97905.7
97899.3
97894.1
97890.3
97887.9
97887.1
97887.9
97890.4
97894.6
97900.4
97907.9
97917.1
97927.7
97939.8
97952.8
97967.1
97982.2
97998.1
98014.6
98031.2
98047.6
98063.8
98078.7
98092.5
98105.2
98116.5
98126.1
98133.2
98138
98140.9
98141.1
98139.7
98136.5
98131.8
98124.6
98116
98104.7
98092.6
98078
98063.6
98046
98030.6
98011.4
97995.4
98084
98084.3
98084.4
98084.3
98084.2
98084
98083.7
98083.2
98082.7
98082.1
98081.3
98080.5
98079.6
98078.6
98077.6
98076.5
98075.3
98074.1
98072.8
98071.4
98070
98068.5
98067
98065.4
98063.6
98061.8
98060
98058
98056
98053.9
98051.7
98049.5
98047.2
98044.8
98042.4
98039.8
98037.3
98034.6
98032
98029.2
98026.4
98023.6
98020.8
98018
98015.2
98012.4
98009.6
98006.9
98004.3
98001.8
97999.3
97997
97994.8
97992.8
97991
97989.4
97988.1
97986.9
97986
97985.4
97985
97985
97985.2
97985.6
97986.4
97987.5
97988.8
97990.5
97992.4
97994.6
97997
97999.7
98002.5
98005.6
98008.8
98012.1
98015.5
98019
98022.4
98025.9
98029.3
98032.7
98035.9
98039
98041.9
98044.6
98047.1
98049.3
98051.3
98053
98054.5
98055.6
98056.5
98057
98057.3
98057.2
98056.9
98056.3
98055.4
98054.3
98052.9
98051.4
98049.6
98047.7
98045.6
98043.4
98041
98038.5
98035.8
98033
98029.9
98026.8
98023.5
98019.9
98016.1
98012
98007.6
98002.9
97997.8
97992.3
97986.3
97979.9
97972.9
97965.5
97957.5
97949
97940
97930.5
97920.6
97910.4
97900
97889.4
97878.7
97868.2
97857.9
97848.2
97839.1
97831
97824
97818.2
97813.7
97810.7
97809.4
97809.6
97811.5
97814.9
97819.9
97826.4
97834.4
97843.6
97854
97865.5
97877.6
97890.4
97903.7
97916.9
97929.9
97942.5
97953.7
97963.8
97972.7
97980.3
97986.3
97990.2
97991.9
97992.3
97990.2
97986.8
97982.3
97977.1
97970.4
97963.1
97953.9
97944.6
97933.1
97922.9
97909.7
97899.4
97885.4
97875.6
98078
98078.3
98078.5
98078.6
98078.6
98078.5
98078.4
98078.2
98078
98077.7
98077.4
98077
98076.6
98076.1
98075.5
98074.9
98074.2
98073.4
98072.5
98071.6
98070.5
98069.4
98068.2
98066.8
98065.3
98063.8
98062.1
98060.2
98058.3
98056.3
98054.2
98052
98049.7
98047.2
98044.8
98042.2
98039.5
98036.8
98034
98031.1
98028.2
98025.3
98022.3
98019.3
98016.4
98013.4
98010.5
98007.6
98004.8
98002.1
97999.5
97997
97994.7
97992.6
97990.6
97988.9
97987.3
97986
97984.9
97984.1
97983.6
97983.3
97983.3
97983.6
97984.1
97984.9
97985.9
97987.3
97988.8
97990.7
97992.7
97994.9
97997.4
97999.9
98002.6
98005.4
98008.2
98011.1
98013.9
98016.8
98019.5
98022.1
98024.6
98026.9
98029
98030.9
98032.5
98033.9
98035
98035.8
98036.3
98036.5
98036.5
98036.1
98035.4
98034.4
98033.1
98031.6
98029.7
98027.7
98025.4
98022.9
98020.2
98017.4
98014.5
98011.3
98008.1
98004.7
98001.1
97997.3
97993.5
97989.5
97985.2
97980.8
97976.1
97971.2
97965.9
97960.3
97954.4
97948.1
97941.4
97934.1
97926.4
97918.1
97909.5
97900.3
97890.6
97880.3
97869.7
97858.7
97847.4
97835.9
97824.3
97812.7
97801.2
97790.2
97779.8
97770.3
97761.7
97754.2
97748.1
97743.4
97740.2
97738.5
97738.3
97739.7
97742.5
97746.8
97752.4
97759.1
97767.1
97776.1
97785.6
97795.5
97805.6
97815.6
97825.3
97834.4
97842
97848.6
97853.6
97857.5
97859.8
97860.3
97859
97856.7
97852.1
97846.7
97840.5
97834.3
97827.5
97821
97813
97805.8
97797
97790.2
97780.8
97775
97765.6
97761.4
98073.6
98073.9
98074.2
98074.3
98074.5
98074.7
98074.9
98075.1
98075.3
98075.5
98075.6
98075.8
98075.9
98076
98075.9
98075.8
98075.6
98075.3
98074.8
98074.3
98073.6
98072.8
98071.8
98070.7
98069.4
98068
98066.4
98064.7
98062.9
98060.9
98058.8
98056.5
98054.1
98051.7
98049.1
98046.4
98043.6
98040.7
98037.7
98034.7
98031.6
98028.5
98025.3
98022.2
98019
98015.9
98012.7
98009.7
98006.7
98003.8
98001.1
97998.5
97996
97993.7
97991.6
97989.7
97988
97986.6
97985.4
97984.4
97983.7
97983.3
97983.1
97983.2
97983.5
97984.1
97985
97986.1
97987.4
97988.9
97990.6
97992.5
97994.6
97996.8
97999.1
98001.4
98003.7
98006.1
98008.4
98010.7
98012.8
98014.8
98016.6
98018.3
98019.7
98020.8
98021.7
98022.3
98022.6
98022.6
98022.3
98021.6
98020.7
98019.5
98017.9
98016
98013.9
98011.4
98008.7
98005.7
98002.5
97999.1
97995.6
97991.9
97988.1
97984.1
97979.9
97975.6
97971.1
97966.5
97961.8
97956.9
97951.7
97946.4
97940.8
97935
97928.9
97922.5
97915.8
97908.7
97901.1
97893.1
97884.7
97875.9
97866.6
97856.7
97846.4
97835.6
97824.4
97812.8
97800.8
97788.6
97776.2
97763.7
97751.4
97739.4
97728
97717.4
97707.5
97698.8
97691.3
97685.1
97680.3
97677
97675.1
97674.7
97675.7
97678.1
97681.5
97686.2
97691.9
97698.7
97705.8
97712.9
97720
97726.9
97733.5
97739.2
97743.5
97746.6
97747.9
97748
97746.6
97743.7
97739.2
97734
97727
97719.4
97711.4
97703.9
97696.5
97690.1
97682.9
97677.2
97670.5
97666.3
97660
97658.4
97653
97653.7
98069.9
98070.1
98070.3
98070.5
98070.7
98071.2
98071.8
98072.6
98073.5
98074.4
98075.3
98076.1
98076.9
98077.6
98078.2
98078.6
98078.9
98079
98079
98078.8
98078.4
98077.9
98077.2
98076.3
98075.2
98073.9
98072.4
98070.8
98068.9
98066.9
98064.8
98062.5
98060
98057.4
98054.7
98051.9
98049
98045.9
98042.8
98039.6
98036.3
98032.9
98029.6
98026.2
98022.9
98019.5
98016.2
98013
98009.8
98006.8
98003.9
98001.1
97998.5
97996.1
97993.9
97991.8
97990.1
97988.5
97987.2
97986.1
97985.3
97984.8
97984.5
97984.4
97984.6
97985.1
97985.8
97986.7
97987.8
97989.2
97990.7
97992.3
97994.1
97995.9
97997.9
97999.8
98001.8
98003.7
98005.6
98007.3
98008.9
98010.4
98011.6
98012.7
98013.4
98013.9
98014.2
98014.1
98013.6
98012.9
98011.8
98010.4
98008.7
98006.7
98004.3
98001.6
97998.7
97995.4
97991.8
97988
97984
97979.8
97975.3
97970.8
97966.1
97961.3
97956.2
97951.1
97945.8
97940.3
97934.7
97928.9
97922.8
97916.6
97910.2
97903.5
97896.6
97889.4
97881.9
97874.1
97865.8
97857.2
97848.2
97838.7
97828.8
97818.5
97807.7
97796.4
97784.8
97772.7
97760.2
97747.3
97734.3
97721.3
97708.3
97695.7
97683.6
97672
97661.2
97651.4
97642.7
97635.3
97629.2
97624.5
97621.2
97619.2
97618.7
97619.4
97621.1
97623.8
97627.6
97632.2
97637.1
97641.7
97646
97649.9
97653.4
97656
97657.2
97656.9
97654.6
97651
97645.9
97639.5
97631.9
97623.6
97614.2
97604.4
97594.5
97585.8
97577.5
97570.8
97563.9
97559.3
97554
97552
97548.3
97550
97548.3
97553.3
98065
98065
98065
98065.4
98066.1
98067.4
98068.8
98070.6
98072.3
98074.2
98075.9
98077.6
98079.2
98080.6
98081.7
98082.7
98083.5
98084
98084.4
98084.5
98084.4
98084.1
98083.6
98082.8
98081.9
98080.7
98079.3
98077.6
98075.8
98073.8
98071.6
98069.2
98066.7
98064
98061.2
98058.2
98055.1
98051.9
98048.6
98045.2
98041.7
98038.2
98034.7
98031.1
98027.6
98024
98020.6
98017.2
98013.9
98010.7
98007.7
98004.8
98002.1
97999.5
97997.2
97995.1
97993.3
97991.6
97990.2
97989.1
97988.2
97987.6
97987.2
97987.1
97987.2
97987.5
97988.1
97988.9
97989.9
97991.1
97992.4
97993.9
97995.4
97997
97998.6
98000.3
98001.9
98003.4
98004.9
98006.2
98007.3
98008.3
98009
98009.5
98009.7
98009.6
98009.3
98008.5
98007.5
98006.1
98004.3
98002.2
97999.8
97997
97993.9
97990.4
97986.7
97982.7
97978.4
97973.8
97969
97964
97958.8
97953.4
97947.9
97942.2
97936.4
97930.5
97924.3
97918
97911.6
97904.9
97898.1
97891
97883.8
97876.4
97868.7
97860.8
97852.5
97844
97835.1
97825.9
97816.4
97806.4
97796.1
97785.3
97774.1
97762.5
97750.5
97738.1
97725.2
97712
97698.5
97685.1
97671.7
97658.7
97646
97633.8
97622.2