/*--------------------------------*- C++ -*----------------------------------*\
| =========                 |                                                 |
| \\      /  F ield         | OpenFOAM: The Open Source CFD Toolbox           |
|  \\    /   O peration     | Version:  dev                                   |
|   \\  /    A nd           | Web:      http://www.openfoam.org               |
|    \\/     M anipulation  |                                                 |
\*---------------------------------------------------------------------------*/
FoamFile
{
    version     2.0;
    format      ascii;
    class       volScalarField;
    object      pPrime2Mean;
    location    "9.164";
}
// * * * * * * * * * * * * * * * * * * * * * * * * * * * * * * * * * * * * * //

dimensions      [2 -2 -4 0 0 0 0];

internalField   nonuniform List<scalar> 
12225
(
5.03238e+07
4.98587e+07
4.88981e+07
4.75471e+07
4.58936e+07
4.4027e+07
4.20066e+07
3.99042e+07
3.77608e+07
3.56244e+07
3.35327e+07
3.14887e+07
2.95663e+07
2.76963e+07
2.59501e+07
2.43907e+07
2.28302e+07
2.12519e+07
5.02161e+07
4.9751e+07
4.87912e+07
4.74419e+07
4.57898e+07
4.39257e+07
4.19081e+07
3.98083e+07
3.76688e+07
3.55351e+07
3.34481e+07
3.14077e+07
2.94899e+07
2.76268e+07
2.5898e+07
2.43387e+07
2.28312e+07
2.14986e+07
4.99663e+07
4.95018e+07
4.85425e+07
4.71962e+07
4.55487e+07
4.36893e+07
4.16784e+07
3.95849e+07
3.74535e+07
3.53279e+07
3.32493e+07
3.12207e+07
2.93089e+07
2.7463e+07
2.5754e+07
2.41996e+07
2.27658e+07
2.15543e+07
4.95313e+07
4.90697e+07
4.81127e+07
4.67716e+07
4.51321e+07
4.32811e+07
4.12819e+07
3.91989e+07
3.70823e+07
3.49701e+07
3.29074e+07
3.08965e+07
2.90019e+07
2.71754e+07
2.5496e+07
2.39661e+07
2.2581e+07
2.14816e+07
4.88671e+07
4.84058e+07
4.74535e+07
4.61219e+07
4.44941e+07
4.26577e+07
4.06743e+07
3.86106e+07
3.6513e+07
3.44249e+07
3.23824e+07
3.04023e+07
2.85303e+07
2.67397e+07
2.51125e+07
2.3605e+07
2.2325e+07
2.12619e+07
4.79192e+07
4.74553e+07
4.65125e+07
4.51944e+07
4.35846e+07
4.17679e+07
3.98091e+07
3.7771e+07
3.57035e+07
3.36451e+07
3.16368e+07
2.96908e+07
2.7857e+07
2.61129e+07
2.45351e+07
2.3097e+07
2.18713e+07
2.0816e+07
4.66261e+07
4.61609e+07
4.52336e+07
4.39317e+07
4.2348e+07
4.0557e+07
3.86338e+07
3.66291e+07
3.46044e+07
3.25849e+07
3.0625e+07
2.87245e+07
2.6942e+07
2.52557e+07
2.37348e+07
2.23567e+07
2.11892e+07
2.01624e+07
4.5186e+07
4.47225e+07
4.38115e+07
4.25274e+07
4.09724e+07
3.9211e+07
3.73263e+07
3.53605e+07
3.33812e+07
3.14078e+07
2.94976e+07
2.76508e+07
2.59197e+07
2.42965e+07
2.2824e+07
2.1509e+07
2.03742e+07
1.94153e+07
4.36733e+07
4.32132e+07
4.23185e+07
4.10542e+07
3.95287e+07
3.77998e+07
3.59544e+07
3.4031e+07
3.20978e+07
3.01739e+07
2.83146e+07
2.65234e+07
2.48461e+07
2.32835e+07
2.1863e+07
2.0604e+07
1.95111e+07
1.86133e+07
4.17358e+07
4.12825e+07
4.04072e+07
3.91705e+07
3.76814e+07
3.59964e+07
3.41998e+07
3.23325e+07
3.04565e+07
2.85974e+07
2.68009e+07
2.50812e+07
2.34699e+07
2.19819e+07
2.06277e+07
1.94362e+07
1.84e+07
1.7548e+07
3.92906e+07
3.88472e+07
3.79955e+07
3.67955e+07
3.53522e+07
3.37243e+07
3.19897e+07
3.01933e+07
2.83904e+07
2.66116e+07
2.48953e+07
2.32615e+07
2.17338e+07
2.03319e+07
1.90606e+07
1.79459e+07
1.69764e+07
1.61706e+07
3.62713e+07
3.58429e+07
3.50193e+07
3.38682e+07
3.24821e+07
3.09274e+07
2.92702e+07
2.75628e+07
2.58503e+07
2.41703e+07
2.25521e+07
2.10212e+07
1.95943e+07
1.82916e+07
1.71168e+07
1.60862e+07
1.51923e+07
1.44395e+07
3.26633e+07
3.22534e+07
3.14662e+07
3.03762e+07
2.90624e+07
2.75966e+07
2.60351e+07
2.44342e+07
2.28318e+07
2.12681e+07
1.97666e+07
1.83547e+07
1.70441e+07
1.58534e+07
1.4785e+07
1.3848e+07
1.30372e+07
1.23494e+07
2.85572e+07
2.81702e+07
2.74297e+07
2.6412e+07
2.51864e+07
2.38241e+07
2.23764e+07
2.08975e+07
1.94232e+07
1.79904e+07
1.66216e+07
1.53402e+07
1.4158e+07
1.30878e+07
1.21329e+07
1.12961e+07
1.05739e+07
9.96009e+06
2.42384e+07
2.38778e+07
2.31933e+07
2.22564e+07
2.11309e+07
1.98827e+07
1.85606e+07
1.72139e+07
1.58771e+07
1.4583e+07
1.33531e+07
1.22067e+07
1.11548e+07
1.02062e+07
9.36355e+06
8.62674e+06
7.99259e+06
7.45443e+06
2.02965e+07
1.99645e+07
1.93396e+07
1.84843e+07
1.74603e+07
1.63252e+07
1.51267e+07
1.39082e+07
1.27031e+07
1.15397e+07
1.04385e+07
9.41523e+06
8.47992e+06
7.63858e+06
6.89311e+06
6.24223e+06
5.68276e+06
5.20849e+06
1.77339e+07
1.74275e+07
1.68528e+07
1.60654e+07
1.51237e+07
1.40796e+07
1.29785e+07
1.18594e+07
1.0754e+07
9.68739e+06
8.6786e+06
7.74116e+06
6.88379e+06
6.11128e+06
5.42498e+06
4.82352e+06
4.3039e+06
3.86078e+06
1.78415e+07
1.7547e+07
1.69945e+07
1.62368e+07
1.53299e+07
1.43229e+07
1.32594e+07
1.21763e+07
1.11038e+07
1.00656e+07
9.07934e+06
8.15778e+06
7.30902e+06
6.53753e+06
5.84474e+06
5.2298e+06
4.69019e+06
4.22158e+06
2.07145e+07
2.04155e+07
1.98534e+07
1.90808e+07
1.81545e+07
1.71238e+07
1.60319e+07
1.49155e+07
1.38047e+07
1.27227e+07
1.16872e+07
1.07108e+07
9.8018e+06
8.96501e+06
8.20232e+06
7.51365e+06
6.89715e+06
6.34945e+06
2.51957e+07
2.48839e+07
2.42939e+07
2.34803e+07
2.25027e+07
2.14119e+07
2.02523e+07
1.90618e+07
1.78707e+07
1.67031e+07
1.55771e+07
1.45059e+07
1.34983e+07
1.25597e+07
1.16927e+07
1.0898e+07
1.01745e+07
9.5197e+06
3.02486e+07
2.99227e+07
2.92996e+07
2.84367e+07
2.73969e+07
2.6233e+07
2.49916e+07
2.37118e+07
2.24253e+07
2.11571e+07
1.99262e+07
1.87464e+07
1.76273e+07
1.65751e+07
1.55931e+07
1.46827e+07
1.38436e+07
1.30741e+07
3.51562e+07
3.48186e+07
3.41645e+07
3.32547e+07
3.21548e+07
3.09199e+07
2.95985e+07
2.82313e+07
2.68514e+07
2.54848e+07
2.41516e+07
2.28663e+07
2.16395e+07
2.04779e+07
1.93858e+07
1.83651e+07
1.74161e+07
1.65378e+07
3.94998e+07
3.9154e+07
3.84745e+07
3.7525e+07
3.63736e+07
3.50771e+07
3.36858e+07
3.22418e+07
3.07795e+07
2.93263e+07
2.79028e+07
2.65246e+07
2.52029e+07
2.39452e+07
2.27564e+07
2.16389e+07
2.05938e+07
1.96204e+07
4.30908e+07
4.27399e+07
4.20411e+07
4.10608e+07
3.98683e+07
3.85221e+07
3.70739e+07
3.55671e+07
3.40374e+07
3.25128e+07
3.1015e+07
2.95603e+07
2.81605e+07
2.68237e+07
2.55553e+07
2.43583e+07
2.32341e+07
2.21826e+07
4.58955e+07
4.55416e+07
4.48291e+07
4.38259e+07
4.26025e+07
4.12182e+07
3.97262e+07
3.81709e+07
3.65887e+07
3.50087e+07
3.34532e+07
3.19389e+07
3.04783e+07
2.908e+07
2.77497e+07
2.64909e+07
2.53053e+07
2.41929e+07
4.79709e+07
4.76154e+07
4.68933e+07
4.5874e+07
4.46282e+07
4.32164e+07
4.16922e+07
4.01013e+07
3.84807e+07
3.68598e+07
3.52617e+07
3.37036e+07
3.21983e+07
3.07547e+07
2.93788e+07
2.80745e+07
2.68435e+07
2.56864e+07
4.94179e+07
4.90615e+07
4.83328e+07
4.73025e+07
4.60416e+07
4.46108e+07
4.30648e+07
4.14493e+07
3.98021e+07
3.81531e+07
3.65255e+07
3.4937e+07
3.34006e+07
3.19256e+07
3.05182e+07
2.91823e+07
2.792e+07
2.67318e+07
5.03516e+07
4.99942e+07
4.92613e+07
4.82244e+07
4.69537e+07
4.55109e+07
4.39509e+07
4.23199e+07
4.06558e+07
3.89887e+07
3.73423e+07
3.57343e+07
3.4178e+07
3.26828e+07
3.1255e+07
2.98988e+07
2.86164e+07
2.74082e+07
5.088e+07
5.05223e+07
4.97878e+07
4.87478e+07
4.74717e+07
4.60224e+07
4.44546e+07
4.28146e+07
4.11406e+07
3.94632e+07
3.78059e+07
3.61867e+07
3.46189e+07
3.31121e+07
3.16726e+07
3.03048e+07
2.90109e+07
2.77918e+07
5.11018e+07
5.07456e+07
5.00092e+07
4.89674e+07
4.76888e+07
4.62367e+07
4.46655e+07
4.30217e+07
4.13435e+07
3.96615e+07
3.79995e+07
3.63755e+07
3.48029e+07
3.3291e+07
3.18466e+07
3.04739e+07
2.91754e+07
2.79518e+07
6.04446e+07
6.03856e+07
6.0255e+07
6.00494e+07
5.9767e+07
5.94069e+07
5.89693e+07
5.8455e+07
5.7865e+07
5.72008e+07
5.64642e+07
5.56575e+07
5.47828e+07
5.38427e+07
5.284e+07
5.17777e+07
5.0659e+07
4.94873e+07
4.82663e+07
4.7e+07
4.56923e+07
4.43472e+07
4.29689e+07
4.15619e+07
4.01305e+07
3.86794e+07
3.7213e+07
3.57358e+07
3.42521e+07
3.27667e+07
3.12841e+07
2.98088e+07
2.83454e+07
2.68986e+07
2.54729e+07
2.40729e+07
2.27032e+07
2.13685e+07
2.00736e+07
1.88232e+07
1.76222e+07
1.64754e+07
1.53879e+07
1.43647e+07
1.3411e+07
1.25321e+07
1.17331e+07
1.10195e+07
1.03968e+07
9.87037e+06
9.44566e+06
9.12813e+06
8.92319e+06
8.83609e+06
8.87196e+06
9.0356e+06
9.33157e+06
9.76413e+06
1.03371e+07
1.10539e+07
1.1917e+07
1.29288e+07
1.40906e+07
1.54032e+07
1.68665e+07
1.84797e+07
2.02412e+07
2.21484e+07
2.41983e+07
2.63871e+07
2.87101e+07
3.11621e+07
3.37371e+07
3.64287e+07
3.923e+07
4.21339e+07
4.51328e+07
4.8219e+07
5.13845e+07
5.46215e+07
5.79218e+07
6.12772e+07
6.46795e+07
6.812e+07
7.159e+07
7.50808e+07
7.85832e+07
8.20877e+07
8.55843e+07
8.90626e+07
9.25117e+07
9.59201e+07
9.92757e+07
1.02566e+08
1.05779e+08
1.08901e+08
1.11921e+08
1.14825e+08
1.17603e+08
1.20244e+08
1.22738e+08
1.25078e+08
1.27256e+08
1.29267e+08
1.31107e+08
1.32774e+08
1.34268e+08
1.35592e+08
1.36751e+08
1.37752e+08
1.38606e+08
1.39323e+08
1.39918e+08
1.40405e+08
1.408e+08
1.4112e+08
1.41386e+08
1.41619e+08
1.41842e+08
1.42082e+08
1.42369e+08
1.42736e+08
1.43219e+08
1.43858e+08
1.44697e+08
1.45783e+08
1.4717e+08
1.48913e+08
1.51074e+08
1.53714e+08
1.56899e+08
1.60688e+08
1.65145e+08
1.70325e+08
1.76283e+08
1.83063e+08
1.90702e+08
1.99227e+08
2.08652e+08
2.1898e+08
2.30205e+08
2.42305e+08
2.55252e+08
2.69005e+08
2.8352e+08
2.98735e+08
3.14602e+08
3.31049e+08
3.48013e+08
3.65418e+08
3.83193e+08
4.01252e+08
4.19505e+08
4.37859e+08
4.56193e+08
4.74365e+08
4.92214e+08
5.09569e+08
5.26199e+08
5.41868e+08
5.56276e+08
5.69124e+08
5.80071e+08
5.88795e+08
5.94959e+08
5.98267e+08
5.98457e+08
5.95349e+08
5.88815e+08
5.78884e+08
5.65634e+08
5.49333e+08
5.30296e+08
5.0902e+08
4.85977e+08
4.61694e+08
4.36536e+08
4.1094e+08
3.85114e+08
3.59385e+08
5.93709e+07
5.93153e+07
5.91903e+07
5.89906e+07
5.87146e+07
5.83621e+07
5.79339e+07
5.74309e+07
5.68544e+07
5.62058e+07
5.54868e+07
5.46995e+07
5.38459e+07
5.29285e+07
5.19498e+07
5.09126e+07
4.982e+07
4.86752e+07
4.74819e+07
4.62436e+07
4.49644e+07
4.3648e+07
4.22988e+07
4.0921e+07
3.95188e+07
3.80968e+07
3.66592e+07
3.52104e+07
3.37547e+07
3.22966e+07
3.08404e+07
2.93909e+07
2.79525e+07
2.65297e+07
2.5127e+07
2.3749e+07
2.24002e+07
2.10851e+07
1.98086e+07
1.85753e+07
1.739e+07
1.62577e+07
1.51832e+07
1.41716e+07
1.32281e+07
1.23579e+07
1.15663e+07
1.08586e+07
1.02403e+07
9.71681e+06
9.29364e+06
8.97621e+06
8.76988e+06
8.67991e+06
8.71141e+06
8.86926e+06
9.15804e+06
9.58197e+06
1.01448e+07
1.085e+07
1.17001e+07
1.26973e+07
1.3843e+07
1.51379e+07
1.6582e+07
1.81746e+07
1.99138e+07
2.17972e+07
2.38218e+07
2.59836e+07
2.82782e+07
3.07002e+07
3.32437e+07
3.59024e+07
3.86694e+07
4.15375e+07
4.44994e+07
4.75473e+07
5.06734e+07
5.38696e+07
5.7128e+07
6.04404e+07
6.37985e+07
6.7194e+07
7.06181e+07
7.40622e+07
7.75169e+07
8.09731e+07
8.44207e+07
8.78496e+07
9.12488e+07
9.4607e+07
9.79125e+07
1.01153e+08
1.04316e+08
1.07389e+08
1.1036e+08
1.13216e+08
1.15948e+08
1.18544e+08
1.20996e+08
1.23295e+08
1.25435e+08
1.2741e+08
1.29217e+08
1.30854e+08
1.32321e+08
1.3362e+08
1.34757e+08
1.3574e+08
1.36578e+08
1.37282e+08
1.37866e+08
1.38343e+08
1.38729e+08
1.39042e+08
1.39301e+08
1.39527e+08
1.39742e+08
1.39973e+08
1.40248e+08
1.40601e+08
1.41067e+08
1.41684e+08
1.42496e+08
1.4355e+08
1.44898e+08
1.46595e+08
1.487e+08
1.51276e+08
1.54386e+08
1.58091e+08
1.62451e+08
1.67523e+08
1.73358e+08
1.80002e+08
1.8749e+08
1.95851e+08
2.05098e+08
2.15235e+08
2.26255e+08
2.38137e+08
2.50855e+08
2.64368e+08
2.78634e+08
2.9359e+08
3.09188e+08
3.25364e+08
3.42051e+08
3.59177e+08
3.7667e+08
3.94448e+08
4.12424e+08
4.30506e+08
4.48574e+08
4.6649e+08
4.84094e+08
5.01222e+08
5.17647e+08
5.33134e+08
5.47397e+08
5.60139e+08
5.71023e+08
5.7973e+08
5.85934e+08
5.89344e+08
5.89701e+08
5.86829e+08
5.80597e+08
5.71016e+08
5.58161e+08
5.42286e+08
5.23698e+08
5.02877e+08
4.80284e+08
4.56431e+08
4.31684e+08
4.0647e+08
3.80997e+08
3.55508e+08
5.73082e+07
5.72551e+07
5.71357e+07
5.69444e+07
5.668e+07
5.63429e+07
5.59342e+07
5.5455e+07
5.49062e+07
5.4289e+07
5.36049e+07
5.28555e+07
5.20428e+07
5.11689e+07
5.02359e+07
4.92465e+07
4.82035e+07
4.71099e+07
4.5969e+07
4.47843e+07
4.35594e+07
4.22983e+07
4.10048e+07
3.96829e+07
3.83368e+07
3.69704e+07
3.55877e+07
3.4193e+07
3.27904e+07
3.13844e+07
2.99792e+07
2.85793e+07
2.7189e+07
2.58126e+07
2.44545e+07
2.31189e+07
2.18105e+07
2.05334e+07
1.92926e+07
1.80925e+07
1.69378e+07
1.58335e+07
1.47844e+07
1.37955e+07
1.28718e+07
1.20187e+07
1.12414e+07
1.05453e+07
9.93568e+06
9.4181e+06
8.99796e+06
8.68069e+06
8.47171e+06
8.37625e+06
8.39941e+06
8.54607e+06
8.8208e+06
9.22781e+06
9.77092e+06
1.04534e+07
1.12779e+07
1.22466e+07
1.33608e+07
1.46212e+07
1.60277e+07
1.75795e+07
1.92748e+07
2.11114e+07
2.30861e+07
2.51951e+07
2.74337e+07
2.97968e+07
3.22785e+07
3.48726e+07
3.75723e+07
4.03705e+07
4.32599e+07
4.62329e+07
4.92819e+07
5.23989e+07
5.55759e+07
5.88048e+07
6.20775e+07
6.53856e+07
6.87207e+07
7.20741e+07
7.54368e+07
7.87995e+07
8.21524e+07
8.54856e+07
8.87882e+07
9.20492e+07
9.52572e+07
9.84002e+07
1.01466e+08
1.04443e+08
1.07319e+08
1.10082e+08
1.12724e+08
1.15232e+08
1.176e+08
1.19819e+08
1.21883e+08
1.23789e+08
1.25531e+08
1.27109e+08
1.28522e+08
1.29774e+08
1.30869e+08
1.31815e+08
1.32622e+08
1.333e+08
1.33861e+08
1.3432e+08
1.3469e+08
1.34988e+08
1.35233e+08
1.35443e+08
1.35643e+08
1.35855e+08
1.36108e+08
1.36432e+08
1.36862e+08
1.37436e+08
1.38194e+08
1.39182e+08
1.40451e+08
1.42054e+08
1.44049e+08
1.46497e+08
1.49458e+08
1.52994e+08
1.57162e+08
1.62017e+08
1.67609e+08
1.73983e+08
1.81174e+08
1.8921e+08
1.98104e+08
2.07861e+08
2.18475e+08
2.29925e+08
2.42189e+08
2.5523e+08
2.69e+08
2.83444e+08
2.9851e+08
3.14145e+08
3.30283e+08
3.46852e+08
3.63781e+08
3.80998e+08
3.98418e+08
4.15948e+08
4.33474e+08
4.50868e+08
4.6797e+08
4.84621e+08
5.00607e+08
5.15697e+08
5.29627e+08
5.42103e+08
5.52803e+08
5.61426e+08
5.67652e+08
5.71207e+08
5.71842e+08
5.69384e+08
5.63698e+08
5.54772e+08
5.42678e+08
5.27641e+08
5.09945e+08
4.90046e+08
4.68371e+08
4.454e+08
4.21504e+08
3.97085e+08
3.72366e+08
3.47519e+08
5.44179e+07
5.43687e+07
5.42567e+07
5.40776e+07
5.38309e+07
5.35176e+07
5.31385e+07
5.2694e+07
5.21849e+07
5.16122e+07
5.09769e+07
5.02804e+07
4.95242e+07
4.87099e+07
4.78396e+07
4.69156e+07
4.59406e+07
4.49174e+07
4.38488e+07
4.27381e+07
4.15889e+07
4.04044e+07
3.91885e+07
3.79445e+07
3.6676e+07
3.53868e+07
3.40805e+07
3.27612e+07
3.14329e+07
3.00998e+07
2.8766e+07
2.74355e+07
2.61125e+07
2.4801e+07
2.3505e+07
2.22288e+07
2.09766e+07
1.97529e+07
1.8562e+07
1.74084e+07
1.62967e+07
1.52317e+07
1.42182e+07
1.32611e+07
1.23656e+07
1.15366e+07
1.07796e+07
1.00997e+07
9.50245e+06
8.99322e+06
8.57743e+06
8.2605e+06
8.04782e+06
7.9446e+06
7.95591e+06
8.08665e+06
8.3414e+06
8.72434e+06
9.23924e+06
9.88933e+06
1.06773e+07
1.16052e+07
1.26744e+07
1.38855e+07
1.52384e+07
1.67322e+07
1.83652e+07
2.01352e+07
2.20391e+07
2.4073e+07
2.62324e+07
2.85121e+07
3.09067e+07
3.34097e+07
3.60146e+07
3.87145e+07
4.15022e+07
4.43703e+07
4.73114e+07
5.03175e+07
5.33808e+07
5.64934e+07
5.96473e+07
6.28341e+07
6.60455e+07
6.9273e+07
7.25078e+07
7.57409e+07
7.89625e+07
8.21629e+07
8.53315e+07
8.84576e+07
9.153e+07
9.45372e+07
9.74678e+07
1.0031e+08
1.03053e+08
1.05686e+08
1.082e+08
1.10585e+08
1.12834e+08
1.14941e+08
1.16899e+08
1.18704e+08
1.20354e+08
1.21846e+08
1.23183e+08
1.24367e+08
1.25403e+08
1.26296e+08
1.27058e+08
1.27697e+08
1.28226e+08
1.28657e+08
1.29002e+08
1.29278e+08
1.295e+08
1.29688e+08
1.29863e+08
1.30048e+08
1.30268e+08
1.30551e+08
1.30929e+08
1.31438e+08
1.32118e+08
1.33013e+08
1.34171e+08
1.35642e+08
1.37481e+08
1.39747e+08
1.42498e+08
1.45795e+08
1.49691e+08
1.54241e+08
1.59493e+08
1.65488e+08
1.72262e+08
1.79842e+08
1.88244e+08
1.97471e+08
2.07516e+08
2.18366e+08
2.29997e+08
2.42378e+08
2.55461e+08
2.69195e+08
2.83526e+08
2.98413e+08
3.13791e+08
3.29593e+08
3.45746e+08
3.62191e+08
3.78842e+08
3.95611e+08
4.12387e+08
4.29052e+08
4.45454e+08
4.61437e+08
4.76802e+08
4.91327e+08
5.04766e+08
5.1684e+08
5.2725e+08
5.35712e+08
5.41923e+08
5.45626e+08
5.46582e+08
5.44622e+08
5.39615e+08
5.31532e+08
5.20435e+08
5.06511e+08
4.90022e+08
4.71382e+08
4.50974e+08
4.29241e+08
4.06543e+08
3.83256e+08
3.59618e+08
3.35779e+08
5.09003e+07
5.08563e+07
5.07545e+07
5.05917e+07
5.03682e+07
5.00846e+07
4.97411e+07
4.93381e+07
4.88764e+07
4.83564e+07
4.77788e+07
4.71446e+07
4.64551e+07
4.57117e+07
4.49163e+07
4.40708e+07
4.31776e+07
4.22389e+07
4.12576e+07
4.02364e+07
3.91784e+07
3.80866e+07
3.69641e+07
3.58138e+07
3.4639e+07
3.34431e+07
3.22295e+07
3.10021e+07
2.97645e+07
2.85206e+07
2.72739e+07
2.60283e+07
2.47875e+07
2.35552e+07
2.23352e+07
2.11316e+07
1.99484e+07
1.87897e+07
1.76599e+07
1.65633e+07
1.55043e+07
1.44875e+07
1.35177e+07
1.25997e+07
1.17385e+07
1.09392e+07
1.02069e+07
9.54699e+06
8.9648e+06
8.46574e+06
8.0552e+06
7.73857e+06
7.52122e+06
7.40836e+06
7.40502e+06
7.51605e+06
7.74598e+06
8.09896e+06
8.57871e+06
9.18846e+06
9.93087e+06
1.08079e+07
1.1821e+07
1.29707e+07
1.42569e+07
1.56785e+07
1.72341e+07
1.89213e+07
2.07371e+07
2.26777e+07
2.47388e+07
2.69154e+07
2.92018e+07
3.15919e+07
3.40795e+07
3.66578e+07
3.93198e+07
4.20583e+07
4.4866e+07
4.77352e+07
5.06583e+07
5.36275e+07
5.6635e+07
5.96726e+07
6.27322e+07
6.58053e+07
6.88834e+07
7.19576e+07
7.50184e+07
7.80562e+07
8.10611e+07
8.40226e+07
8.69299e+07
8.97718e+07
9.25375e+07
9.52163e+07
9.77979e+07
1.00273e+08
1.02632e+08
1.04866e+08
1.06969e+08
1.08937e+08
1.10764e+08
1.12446e+08
1.13981e+08
1.15368e+08
1.1661e+08
1.1771e+08
1.1867e+08
1.19498e+08
1.20202e+08
1.20792e+08
1.21279e+08
1.21672e+08
1.21984e+08
1.2223e+08
1.22424e+08
1.22583e+08
1.22725e+08
1.22873e+08
1.23049e+08
1.2328e+08
1.23594e+08
1.24025e+08
1.2461e+08
1.25391e+08
1.26411e+08
1.27721e+08
1.29371e+08
1.31417e+08
1.33912e+08
1.36916e+08
1.40482e+08
1.44661e+08
1.49498e+08
1.55034e+08
1.61303e+08
1.68333e+08
1.76138e+08
1.84725e+08
1.94088e+08
2.04214e+08
2.15082e+08
2.26668e+08
2.38924e+08
2.51808e+08
2.65263e+08
2.79254e+08
2.93723e+08
3.0861e+08
3.23842e+08
3.39363e+08
3.55095e+08
3.70951e+08
3.86827e+08
4.02612e+08
4.18166e+08
4.33339e+08
4.47946e+08
4.61781e+08
4.74605e+08
4.86166e+08
4.96197e+08
5.04424e+08
5.1057e+08
5.14392e+08
5.15665e+08
5.14235e+08
5.09974e+08
5.02839e+08
4.92876e+08
4.80235e+08
4.65156e+08
4.47999e+08
4.29103e+08
4.08873e+08
3.87635e+08
3.65741e+08
3.43441e+08
3.20893e+08
4.69777e+07
4.69407e+07
4.68514e+07
4.67077e+07
4.65103e+07
4.62593e+07
4.59549e+07
4.55974e+07
4.51871e+07
4.4724e+07
4.42089e+07
4.36425e+07
4.30259e+07
4.23601e+07
4.16468e+07
4.08874e+07
4.00841e+07
3.92386e+07
3.83534e+07
3.7431e+07
3.64738e+07
3.54842e+07
3.44648e+07
3.34183e+07
3.23474e+07
3.12552e+07
3.0145e+07
2.90201e+07
2.78837e+07
2.67392e+07
2.55898e+07
2.44389e+07
2.32899e+07
2.21463e+07
2.10115e+07
1.98893e+07
1.87836e+07
1.76982e+07
1.66372e+07
1.56047e+07
1.46051e+07
1.36427e+07
1.27222e+07
1.18482e+07
1.10257e+07
1.02597e+07
9.55534e+06
8.91783e+06
8.35253e+06
7.8648e+06
7.46001e+06
7.14353e+06
6.92071e+06
6.79671e+06
6.77653e+06
6.86494e+06
7.06645e+06
7.38516e+06
7.82473e+06
8.38832e+06
9.07854e+06
9.89739e+06
1.08462e+07
1.19255e+07
1.31351e+07
1.44743e+07
1.59412e+07
1.75336e+07
1.92486e+07
2.10826e+07
2.30313e+07
2.50897e+07
2.72525e+07
2.95137e+07
3.18673e+07
3.43067e+07
3.68252e+07
3.94157e+07
4.20712e+07
4.47842e+07
4.75474e+07
5.03531e+07
5.31937e+07
5.60613e+07
5.8948e+07
6.18454e+07
6.47452e+07
6.76388e+07
7.05171e+07
7.33705e+07
7.61897e+07
7.89647e+07
8.16853e+07
8.43407e+07
8.69208e+07
8.94158e+07
9.18162e+07
9.41132e+07
9.62982e+07
9.8364e+07
1.00304e+08
1.02116e+08
1.03794e+08
1.05337e+08
1.06743e+08
1.08012e+08
1.09146e+08
1.10148e+08
1.11022e+08
1.11773e+08
1.1241e+08
1.12941e+08
1.13376e+08
1.13724e+08
1.13995e+08
1.14203e+08
1.14361e+08
1.14483e+08
1.14586e+08
1.14689e+08
1.14813e+08
1.14982e+08
1.15223e+08
1.15567e+08
1.16046e+08
1.16699e+08
1.17566e+08
1.18694e+08
1.20132e+08
1.21931e+08
1.2414e+08
1.26818e+08
1.30015e+08
1.33778e+08
1.38153e+08
1.43177e+08
1.48884e+08
1.55302e+08
1.62447e+08
1.70323e+08
1.78931e+08
1.88258e+08
1.98285e+08
2.08992e+08
2.20339e+08
2.32287e+08
2.44783e+08
2.57794e+08
2.71268e+08
2.85151e+08
2.99375e+08
3.13883e+08
3.28605e+08
3.43456e+08
3.58339e+08
3.73151e+08
3.87765e+08
4.02033e+08
4.15789e+08
4.28842e+08
4.40964e+08
4.51928e+08
4.61496e+08
4.69416e+08
4.75437e+08
4.79324e+08
4.80879e+08
4.79964e+08
4.7645e+08
4.70286e+08
4.61499e+08
4.50214e+08
4.36639e+08
4.21083e+08
4.03838e+08
3.85272e+08
3.65666e+08
3.45347e+08
3.24566e+08
3.03511e+08
4.28749e+07
4.28454e+07
4.27695e+07
4.26462e+07
4.24758e+07
4.22585e+07
4.19943e+07
4.16833e+07
4.13253e+07
4.09206e+07
4.04695e+07
3.99727e+07
3.94309e+07
3.88451e+07
3.82163e+07
3.75459e+07
3.68353e+07
3.60864e+07
3.53009e+07
3.44807e+07
3.36277e+07
3.27439e+07
3.18314e+07
3.08925e+07
2.99297e+07
2.89457e+07
2.79434e+07
2.69255e+07
2.58948e+07
2.48542e+07
2.38066e+07
2.2755e+07
2.17023e+07
2.06518e+07
1.96066e+07
1.85703e+07
1.75463e+07
1.65382e+07
1.55498e+07
1.45851e+07
1.36482e+07
1.27433e+07
1.18748e+07
1.10474e+07
1.02658e+07
9.53498e+06
8.86004e+06
8.24615e+06
7.69859e+06
7.22272e+06
6.82384e+06
6.50728e+06
6.27833e+06
6.14214e+06
6.10365e+06
6.16761e+06
6.33845e+06
6.62021e+06
7.01648e+06
7.53039e+06
8.16445e+06
8.9206e+06
9.80011e+06
1.08036e+07
1.19308e+07
1.31809e+07
1.45522e+07
1.60425e+07
1.76489e+07
1.93678e+07
2.1195e+07
2.3126e+07
2.51553e+07
2.72773e+07
2.94862e+07
3.17755e+07
3.41389e+07
3.65695e+07
3.90605e+07
4.16048e+07
4.4195e+07
4.6824e+07
4.94842e+07
5.21681e+07
5.48679e+07
5.75756e+07
6.0283e+07
6.29817e+07
6.5663e+07
6.83178e+07
7.09371e+07
7.35114e+07
7.60311e+07
7.84865e+07
8.0868e+07
8.31666e+07
8.53736e+07
8.74812e+07
8.94818e+07
9.1369e+07
9.31375e+07
9.47837e+07
9.63048e+07
9.76997e+07
9.89678e+07
1.0011e+08
1.01128e+08
1.02024e+08
1.02804e+08
1.03472e+08
1.04034e+08
1.04499e+08
1.04875e+08
1.05169e+08
1.05393e+08
1.05556e+08
1.05671e+08
1.05751e+08
1.05808e+08
1.05861e+08
1.05928e+08
1.0603e+08
1.06192e+08
1.06442e+08
1.06809e+08
1.07326e+08
1.08032e+08
1.08968e+08
1.10181e+08
1.11719e+08
1.1363e+08
1.15966e+08
1.18774e+08
1.22101e+08
1.25989e+08
1.30475e+08
1.35595e+08
1.41373e+08
1.47826e+08
1.54962e+08
1.62782e+08
1.71277e+08
1.80431e+08
1.90227e+08
2.00632e+08
2.11611e+08
2.23116e+08
2.35117e+08
2.47564e+08
2.6041e+08
2.73591e+08
2.87055e+08
3.0073e+08
3.14536e+08
3.28386e+08
3.42183e+08
3.5581e+08
3.69122e+08
3.81969e+08
3.94177e+08
4.05536e+08
4.15838e+08
4.24871e+08
4.32414e+08
4.38236e+08
4.42122e+08
4.43895e+08
4.43435e+08
4.40616e+08
4.35378e+08
4.27732e+08
4.17792e+08
4.05726e+08
3.91798e+08
3.76253e+08
3.59416e+08
3.41524e+08
3.22879e+08
3.03722e+08
2.84278e+08
3.88045e+07
3.87824e+07
3.87199e+07
3.86167e+07
3.8473e+07
3.82888e+07
3.80638e+07
3.77979e+07
3.7491e+07
3.71433e+07
3.6755e+07
3.63265e+07
3.58581e+07
3.53505e+07
3.48047e+07
3.42215e+07
3.36021e+07
3.29478e+07
3.22599e+07
3.15398e+07
3.0789e+07
3.00092e+07
2.92019e+07
2.83693e+07
2.75134e+07
2.66365e+07
2.57409e+07
2.48289e+07
2.39029e+07
2.29654e+07
2.20189e+07
2.10658e+07
2.0109e+07
1.91512e+07
1.81954e+07
1.72447e+07
1.63022e+07
1.53712e+07
1.44554e+07
1.35584e+07
1.2684e+07
1.18365e+07
1.10201e+07
1.02392e+07
9.49849e+06
8.80288e+06
8.15735e+06
7.56702e+06
7.03711e+06
6.57291e+06
6.17969e+06
5.86274e+06
5.62727e+06
5.47838e+06
5.42099e+06
5.4598e+06
5.59915e+06
5.84302e+06
6.19492e+06
6.65791e+06
7.23445e+06
7.92637e+06
8.73493e+06
9.66064e+06
1.07033e+07
1.18621e+07
1.31352e+07
1.45206e+07
1.60152e+07
1.76157e+07
1.93181e+07
2.11177e+07
2.30095e+07
2.4988e+07
2.70475e+07
2.91818e+07
3.13849e+07
3.36501e+07
3.59708e+07
3.83403e+07
4.07514e+07
4.31973e+07
4.56706e+07
4.8164e+07
5.06699e+07
5.31807e+07
5.56884e+07
5.8185e+07
6.06621e+07
6.31112e+07
6.55236e+07
6.78904e+07
7.02027e+07
7.24517e+07
7.46287e+07
7.67254e+07
7.87341e+07
8.06479e+07
8.24599e+07
8.41649e+07
8.57582e+07
8.72366e+07
8.85981e+07
8.98423e+07
9.097e+07
9.1982e+07
9.288e+07
9.36675e+07
9.43485e+07
9.49277e+07
9.54109e+07
9.58046e+07
9.61152e+07
9.63508e+07
9.65208e+07
9.66344e+07
9.67012e+07
9.67327e+07
9.67409e+07
9.67398e+07
9.67455e+07
9.67784e+07
9.68588e+07
9.70111e+07
9.7263e+07
9.76438e+07
9.81868e+07
9.89316e+07
9.99196e+07
1.01196e+08
1.02807e+08
1.048e+08
1.07218e+08
1.10106e+08
1.13507e+08
1.17457e+08
1.21988e+08
1.27126e+08
1.32889e+08
1.39287e+08
1.46322e+08
1.5399e+08
1.62278e+08
1.71172e+08
1.80644e+08
1.90664e+08
2.0119e+08
2.12196e+08
2.23632e+08
2.35452e+08
2.47602e+08
2.60029e+08
2.72664e+08
2.85433e+08
2.98254e+08
3.11034e+08
3.23661e+08
3.36e+08
3.47915e+08
3.59247e+08
3.69802e+08
3.79397e+08
3.87838e+08
3.94932e+08
4.0048e+08
4.04281e+08
4.0619e+08
4.06091e+08
4.0387e+08
3.99463e+08
3.92872e+08
3.84195e+08
3.73569e+08
3.61218e+08
3.47342e+08
3.3222e+08
3.1605e+08
2.99104e+08
2.81611e+08
2.63827e+08
3.49533e+07
3.4938e+07
3.48878e+07
3.48033e+07
3.46844e+07
3.4531e+07
3.43427e+07
3.41192e+07
3.38604e+07
3.35662e+07
3.32367e+07
3.2872e+07
3.24724e+07
3.20382e+07
3.15702e+07
3.10688e+07
3.05348e+07
2.99692e+07
2.93728e+07
2.87467e+07
2.80921e+07
2.74101e+07
2.67021e+07
2.59697e+07
2.52146e+07
2.44388e+07
2.36439e+07
2.2832e+07
2.2005e+07
2.11649e+07
2.0314e+07
1.94543e+07
1.85883e+07
1.77185e+07
1.68475e+07
1.59779e+07
1.51127e+07
1.4255e+07
1.34081e+07
1.25753e+07
1.17605e+07
1.09675e+07
1.02005e+07
9.46381e+06
8.762e+06
8.09984e+06
7.48221e+06
6.91418e+06
6.40088e+06
5.94754e+06
5.55938e+06
5.24161e+06
4.99941e+06
4.83785e+06
4.76179e+06
4.77583e+06
4.88428e+06
5.09102e+06
5.3995e+06
5.81262e+06
6.3328e+06
6.96181e+06
7.7008e+06
8.55021e+06
9.50981e+06
1.05787e+07
1.17552e+07
1.30371e+07
1.44216e+07
1.59051e+07
1.7484e+07
1.91536e+07
2.09091e+07
2.27452e+07
2.46563e+07
2.66366e+07
2.868e+07
3.07804e+07
3.29311e+07
3.51259e+07
3.73579e+07
3.96205e+07
4.19065e+07
4.42088e+07
4.65202e+07
4.88334e+07
5.11406e+07
5.34342e+07
5.57064e+07
5.79489e+07
6.01538e+07
6.23126e+07
6.44174e+07
6.64601e+07
6.84327e+07
7.0328e+07
7.2139e+07
7.38596e+07
7.5484e+07
7.70079e+07
7.84272e+07
7.97392e+07
8.09431e+07
8.20387e+07
8.3027e+07
8.39093e+07
8.46876e+07
8.53652e+07
8.59458e+07
8.64342e+07
8.68353e+07
8.71546e+07
8.73972e+07
8.75703e+07
8.76822e+07
8.77413e+07
8.77557e+07
8.77351e+07
8.76899e+07
8.76318e+07
8.75754e+07
8.75377e+07
8.75364e+07
8.75929e+07
8.77317e+07
8.79795e+07
8.83662e+07
8.89273e+07
8.97006e+07
9.07273e+07
9.20498e+07
9.37111e+07
9.57537e+07
9.82205e+07
1.01152e+08
1.04583e+08
1.08547e+08
1.13068e+08
1.18167e+08
1.23855e+08
1.30137e+08
1.37013e+08
1.44472e+08
1.52504e+08
1.61086e+08
1.7019e+08
1.79784e+08
1.8984e+08
2.00314e+08
2.11157e+08
2.22319e+08
2.3375e+08
2.45386e+08
2.57157e+08
2.68981e+08
2.80769e+08
2.92413e+08
3.03789e+08
3.14774e+08
3.25218e+08
3.34952e+08
3.43808e+08
3.51612e+08
3.58197e+08
3.63393e+08
3.67023e+08
3.68965e+08
3.69113e+08
3.67366e+08
3.63662e+08
3.58002e+08
3.50462e+08
3.41155e+08
3.30273e+08
3.17976e+08
3.04494e+08
2.89995e+08
2.74712e+08
2.58867e+08
2.42734e+08
3.14727e+07
3.14631e+07
3.14236e+07
3.13555e+07
3.12588e+07
3.1133e+07
3.09777e+07
3.07925e+07
3.05771e+07
3.03313e+07
3.00549e+07
2.97478e+07
2.94103e+07
2.90423e+07
2.86443e+07
2.82166e+07
2.77595e+07
2.72736e+07
2.67596e+07
2.62181e+07
2.565e+07
2.50563e+07
2.44378e+07
2.37959e+07
2.31318e+07
2.24471e+07
2.17432e+07
2.10216e+07
2.02839e+07
1.95318e+07
1.87672e+07
1.7992e+07
1.72081e+07
1.64177e+07
1.56232e+07
1.4827e+07
1.40317e+07
1.32401e+07
1.24554e+07
1.16807e+07
1.09197e+07
1.01761e+07
9.45381e+06
8.75708e+06
8.09039e+06
7.45837e+06
6.86587e+06
6.31784e+06
5.81934e+06
5.3755e+06
4.9915e+06
4.67251e+06
4.42365e+06
4.24995e+06
4.1562e+06
4.14693e+06
4.22635e+06
4.39826e+06
4.66598e+06
5.03233e+06
5.49959e+06
6.06946e+06
6.74298e+06
7.52052e+06
8.40178e+06
9.38576e+06
1.04708e+07
1.16547e+07
1.29345e+07
1.43068e+07
1.57679e+07
1.73134e+07
1.89385e+07
2.06381e+07
2.24068e+07
2.4239e+07
2.61286e+07
2.80698e+07
3.00562e+07
3.20817e+07
3.41399e+07
3.62242e+07
3.83278e+07
4.04439e+07
4.25656e+07
4.46857e+07
4.67971e+07
4.88925e+07
5.09644e+07
5.30051e+07
5.50072e+07
5.69631e+07
5.88653e+07
6.07067e+07
6.248e+07
6.41789e+07
6.57971e+07
6.73294e+07
6.87712e+07
7.01188e+07
7.1369e+07
7.25196e+07
7.35704e+07
7.45214e+07
7.53741e+07
7.61297e+07
7.67905e+07
7.73594e+07
7.78402e+07
7.82372e+07
7.85549e+07
7.87974e+07
7.89699e+07
7.90782e+07
7.91295e+07
7.91308e+07
7.90896e+07
7.90137e+07
7.89126e+07
7.87962e+07
7.86774e+07
7.85703e+07
7.84903e+07
7.84558e+07
7.84883e+07
7.86123e+07
7.88545e+07
7.92465e+07
7.98221e+07
8.06179e+07
8.16729e+07
8.30278e+07
8.47221e+07
8.67966e+07
8.92902e+07
9.22382e+07
9.56715e+07
9.96164e+07
1.04095e+08
1.09121e+08
1.14702e+08
1.20841e+08
1.27529e+08
1.34762e+08
1.42518e+08
1.50775e+08
1.59505e+08
1.6868e+08
1.78261e+08
1.88198e+08
1.98441e+08
2.08944e+08
2.19646e+08
2.30475e+08
2.41355e+08
2.52195e+08
2.62894e+08
2.73336e+08
2.83408e+08
2.92971e+08
3.01879e+08
3.09977e+08
3.17111e+08
3.23135e+08
3.27911e+08
3.31279e+08
3.33144e+08
3.33418e+08
3.32011e+08
3.28869e+08
3.23991e+08
3.17435e+08
3.09299e+08
2.9974e+08
2.88888e+08
2.76927e+08
2.64e+08
2.50302e+08
2.36041e+08
2.21504e+08
2.84727e+07
2.84673e+07
2.84364e+07
2.83822e+07
2.83044e+07
2.82024e+07
2.80756e+07
2.79237e+07
2.7746e+07
2.75422e+07
2.7312e+07
2.70552e+07
2.67716e+07
2.64612e+07
2.6124e+07
2.576e+07
2.53694e+07
2.49526e+07
2.45099e+07
2.40416e+07
2.35483e+07
2.30306e+07
2.24893e+07
2.19254e+07
2.13398e+07
2.07336e+07
2.0108e+07
1.94642e+07
1.88034e+07
1.81271e+07
1.74368e+07
1.67341e+07
1.60207e+07
1.52986e+07
1.45698e+07
1.38365e+07
1.31012e+07
1.23665e+07
1.16352e+07
1.09105e+07
1.01957e+07
9.49443e+06
8.81051e+06
8.14805e+06
7.51142e+06
6.90518e+06
6.33408e+06
5.80299e+06
5.3169e+06
4.88087e+06
4.50003e+06
4.1795e+06
3.92435e+06
3.73952e+06
3.62972e+06
3.5994e+06
3.6527e+06
3.79331e+06
4.02443e+06
4.34875e+06
4.76843e+06
5.28502e+06
5.89946e+06
6.612e+06
7.42222e+06
8.32905e+06
9.33077e+06
1.04251e+07
1.16091e+07
1.28793e+07
1.4232e+07
1.56629e+07
1.71674e+07
1.87404e+07
2.03765e+07
2.20704e+07
2.38162e+07
2.5608e+07
2.74398e+07
2.93056e+07
3.11994e+07
3.31148e+07
3.50453e+07
3.69844e+07
3.89254e+07
4.08616e+07
4.2786e+07
4.46919e+07
4.65723e+07
4.842e+07
5.02282e+07
5.19899e+07
5.36983e+07
5.5347e+07
5.69295e+07
5.84402e+07
5.98739e+07
6.12262e+07
6.24934e+07
6.36723e+07
6.47607e+07
6.5757e+07
6.6661e+07
6.74732e+07
6.81952e+07
6.88284e+07
6.93748e+07
6.98377e+07
7.02203e+07
7.05265e+07
7.07601e+07