/*--------------------------------*- C++ -*----------------------------------*\
| =========                 |                                                 |
| \\      /  F ield         | OpenFOAM: The Open Source CFD Toolbox           |
|  \\    /   O peration     | Version:  dev                                   |
|   \\  /    A nd           | Web:      http://www.openfoam.org               |
|    \\/     M anipulation  |                                                 |
\*---------------------------------------------------------------------------*/
FoamFile
{
    version     2.0;
    format      ascii;
    class       volScalarField;
    object      T;
    location    "9.164";
}
// * * * * * * * * * * * * * * * * * * * * * * * * * * * * * * * * * * * * * //

dimensions      [0 0 0 1 0 0 0];

internalField   nonuniform List<scalar> 
12225
(
304.26
303.784
303.533
303.451
303.347
303.344
303.326
303.279
303.315
303.089
303.231
302.777
303.025
302.328
302.676
302.002
301.499
300.936
304.185
302.984
302.453
301.995
301.819
301.401
301.626
301.138
301.804
300.907
302.029
300.693
302.142
300.532
301.821
300.911
301.061
301.076
304.184
302.878
302.489
301.776
301.665
300.895
301.154
300.263
301.033
299.88
300.964
299.793
300.905
299.92
300.678
300.134
300.691
300.578
304.269
302.784
302.537
301.865
301.711
301.06
301.077
300.436
300.618
300.13
300.338
300.008
300.241
299.98
300.036
300.02
300.252
300.149
304.209
302.826
302.387
302.061
301.57
301.329
300.976
300.783
300.527
300.437
300.262
300.225
300.125
299.998
299.937
299.643
299.796
300.017
304.045
302.923
302.132
302.233
301.396
301.572
300.858
300.983
300.487
300.616
300.246
300.422
300.109
300.17
300.118
299.862
300.062
300.12
303.9
303.154
302.027
302.387
301.328
301.762
300.881
301.204
300.524
300.814
300.275
300.59
300.137
300.309
300.179
300.179
300.266
300.054
303.709
303.108
301.972
302.422
301.267
301.815
300.848
301.319
300.499
300.916
300.239
300.672
300.116
300.395
300.085
300.272
300.08
300.122
303.557
303.114
301.944
302.458
301.315
301.915
300.971
301.464
300.602
301.001
300.268
300.703
300.203
300.454
300.17
300.309
300.23
300.172
303.433
303.136
301.88
302.467
301.33
301.873
300.983
301.471
300.66
301.087
300.418
300.823
300.396
300.639
300.418
300.491
300.433
300.312
303.184
302.939
301.789
302.425
301.367
301.88
301.064
301.511
300.832
301.197
300.695
300.952
300.633
300.798
300.694
300.72
300.694
300.584
303.053
302.756
301.856
302.34
301.506
301.953
301.274
301.668
301.177
301.394
301.096
301.256
301.032
301.15
301.074
301.121
301.113
301.036
302.966
302.388
301.904
302.164
301.767
302.022
301.624
301.876
301.617
301.678
301.58
301.633
301.548
301.621
301.569
301.617
301.624
301.588
302.716
302.03
301.873
302.023
301.969
302.058
301.95
302.101
302.002
302.011
302.042
302.064
302.074
302.098
302.129
302.138
302.127
302.129
302.375
301.576
301.608
301.83
301.962
302.091
302.176
302.28
302.319
302.36
302.383
302.402
302.472
302.505
302.568
302.587
302.64
302.649
301.742
300.949
301.164
301.487
301.679
301.941
302.13
302.253
302.392
302.469
302.536
302.611
302.655
302.71
302.809
302.824
302.9
302.962
301.119
300.175
300.46
300.806
301.084
301.418
301.635
301.842
302.006
302.154
302.267
302.342
302.45
302.532
302.597
302.7
302.799
302.858
300.243
299.14
299.444
299.803
300.135
300.393
300.606
300.849
300.96
301.11
301.237
301.336
301.47
301.567
301.678
301.791
301.836
301.94
299.401
298.07
298.31
298.615
298.83
299.038
299.217
299.349
299.49
299.566
299.668
299.771
299.848
300.004
300.048
300.198
300.259
300.377
298.728
297.124
297.281
297.446
297.554
297.722
297.779
297.829
297.944
297.92
298.043
298.071
298.154
298.32
298.322
298.567
298.513
298.716
298.137
296.361
296.313
296.357
296.407
296.421
296.437
296.491
296.479
296.4
296.5
296.428
296.558
296.664
296.653
296.926
296.816
297.108
297.622
295.665
295.518
295.505
295.443
295.386
295.318
295.225
295.23
295.131
295.181
295.148
295.187
295.27
295.269
295.436
295.391
295.599
297.183
295.124
294.908
294.787
294.66
294.433
294.39
294.258
294.173
294.12
294.055
294.053
294.066
294.096
294.154
294.2
294.28
294.365
297.042
294.74
294.373
294.216
293.998
293.815
293.692
293.472
293.409
293.259
293.226
293.199
293.182
293.238
293.238
293.323
293.359
293.451
296.85
294.436
294.081
293.816
293.522
293.315
293.11
292.947
292.809
292.681
292.631
292.562
292.577
292.57
292.602
292.651
292.686
292.779
296.582
294.193
293.869
293.572
293.279
293.004
292.771
292.585
292.412
292.301
292.185
292.136
292.093
292.085
292.111
292.14
292.214
292.276
296.488
294.067
293.699
293.395
293.078
292.791
292.536
292.315
292.135
291.987
291.881
291.805
291.766
291.753
291.768
291.808
291.864
291.945
296.526
293.965
293.532
293.174
292.833
292.541
292.291
292.076
291.892
291.746
291.636
291.57
291.537
291.541
291.567
291.621
291.69
291.785
296.462
293.856
293.451
293.128
292.793
292.49
292.236
292.035
291.885
291.784
291.728
291.712
291.722
291.76
291.814
291.894
291.976
292.103
297.086
294.919
294.605
294.333
294.081
293.889
293.752
293.654
293.586
293.546
293.526
293.525
293.538
293.568
293.614
293.675
293.752
293.833
286.862
281.461
280.693
281.613
282.686
283.295
283.59
283.719
283.744
283.718
283.707
283.634
283.588
283.474
283.306
283.184
283.119
283.039
283.098
283.091
283.174
283.397
283.216
283.473
283.518
282.733
282.546
283.927
286.04
287.736
288.311
287.663
287.286
287.826
287.548
286.685
287.199
288.971
289.234
287.601
285.297
286.012
289.055
291.565
292.344
292.808
294.839
296.592
297.095
297.226
297.3
297.362
297.413
297.458
297.495
297.528
297.555
297.579
297.598
297.61
297.616
297.613
297.601
297.579
297.545
297.502
297.449
297.388
297.319
297.243
297.156
297.055
296.94
296.809
296.653
296.477
296.286
296.101
295.923
295.723
295.438
295.133
294.905
294.532
294.255
294.008
293.796
293.61
293.482
293.345
293.206
293.069
292.859
292.562
292.147
291.637
291.034
290.401
289.756
289.082
288.416
287.835
287.196
286.284
285.233
284.183
283.034
281.823
280.576
279.385
278.156
277.126
276.219
275.415
274.592
274.097
274.188
273.678
273.335
274.161
277.361
279.745
278.071
277.104
279.191
280.817
281.728
282.232
282.386
282.989
283.677
283.383
283.079
283.709
283.638
284.501
283.866
283.294
284.49
285.15
281.845
282.192
281.259
279.844
279.145
278.579
277.825
277.246
276.672
275.804
274.824
273.857
272.545
271.365
269.939
268.095
266.535
264.823
263.196
262.016
260.711
260.09
259.409
255.375
253.359
252.101
245.838
241.829
242.34
247.851
257.19
257.857
250.691
242.284
236.373
234.574
241.153
239.935
247.425
260.029
287.282
280.925
280.719
283.305
285.203
286.071
286.294
286.213
285.981
285.652
285.638
285.314
285.286
285.081
284.279
284.265
282.828
282.991
282.5
281.563
282.848
281.19
282.143
282.994
281.95
282.638
282.92
282.425
279.982
277.946
280.186
280.382
276.494
275.789
278.592
279.579
277.022
273.273
277.194
284.386
277.23
273.757
285.902
294.784
296.237
296.524
296.788
296.857
296.833
296.822
296.815
296.834
296.855
296.886
296.923
296.933
296.968
296.984
297.005
297.023
297.03
297.033
297.026
297
296.958
296.903
296.844
296.791
296.747
296.717
296.677
296.62
296.549
296.46
296.34
296.187
295.967
295.8
295.697
295.638
295.209
294.581
294.57
293.694
293.141
292.479
291.997
291.423
291.05
290.854
290.622
290.802
291.019
291.322
291.433
291.229
290.286
288.673
287.07
285.571
283.637
282.191
281.308
279.637
277.942
276.661
274.558
271.507
269.075
267.873
266.919
266.606
267.199
267.412
267.63
266.611
267.987
269.658
270.35
269.329
268.046
268.16
264.849
262.085
263.881
268.904
274.074
275.967
277.371
279.118
276.938
275.998
280.743
281.85
282.249
286.713
283.456
283.476
287.551
288.992
282.478
285.458
284.756
279.07
278.933
275.945
273.434
270.915
267.691
265.371
263.77
263.048
260.873
258.765
256.731
253.33
249.38
246.337
246.165
247.6
246.078
242.187
239.079
230.149
227.676
226.622
214.189
206.984
214.147
228.109
236.68
229.941
221.797
214.642
211.082
215.143
215.749
216.634
215.85
223.738
289.315
284.284
284.787
286.849
287.825
287.758
287.45
287.121
286.786
286.463
286.673
287.219
287.098
287.012
286.903
285.486
285.558
283.603
282.373
282.317
279.102
281.061
279.25
278.473
281.34
281.563
280.735
281.452
283.942
281.761
279.728
279.535
275.786
271.945
274.615
278.222
275.297
273.082
277.446
283.831
288.726
291.727
294.458
295.548
295.618
295.823
296.027
296.237
296.43
296.61
296.817
296.97
297.147
297.241
297.351
297.459
297.496
297.575
297.644
297.702
297.776
297.826
297.871
297.91
297.893
297.834
297.771
297.686
297.633
297.627
297.646
297.615
297.561
297.628
297.686
297.687
297.469
297.373
297.413
297.895
297.775
297.148
297.524
296.985
296.666
295.941
295.432
294.559
293.616
293.214
292.205
291.8
291.447
291.254
291.555
292.833
293.504
292.08
290.365
289.336
287.657
285.791
283.665
280.926
278.883
277.342
275.675
274.235
272.326
269.48
267.424
266.824
271.764
276.112
278.98
277.923
277.008
278.148
282.824
287.466
283.097
275.056
267.427
264.057
264.368
268.546
274.023
276.916
279.115
279.356
277.485
281.21
288.067
286.024
286.204
290.798
286.626
287.45
288.394
289.183
286.885
289.551
290.507
285.08
288.776
284.49
281.6
280.577
275.13
269.209
263.098
259.243
258.27
255.972
253.176
252.087
243.809
238.167
247.034
259.848
261.954
250.975
233.663
220.082
219.684
216.092
203.019
198.518
210.783
222.921
227.451
220.626
215.322
208.689
206.946
222.088
212.681
220.666
220.187
219.279
291.123
288.268
288.902
289.025
288.56
287.952
287.925
288.249
288.767
289.373
290.517
291.48
291.878
292.33
291.935
291.893
291.549
289.508
286.232
283.876
281.166
277.19
280.149
276.716
275.338
280.699
277.647
281.746
282.409
275.687
278.451
282.72
278.317
273.101
276.145
281.655
282.879
284.821
288.195
291.193
293.476
294.819
295.661
296.297
296.729
297.101
297.465
297.698
297.87
297.966
298.005
298.081
298.043
298.062
298.017
297.97
297.978
297.931
297.903
297.914
297.881
297.907
297.921
297.942
297.925
297.895
297.801
297.708
297.567
297.408
297.343
297.238
296.854
296.755
296.761
296.768
296.579
296.811
296.698
297.311
297.587
297.948
297.975
297.876
298.071
297.681
297.441
296.912
295.96
295.265
294.387
293.797
293.406
293.071
290.98
290.807
293.289
292.488
289.614
288.567
288.358
288.454
287.733
285.163
282.805
281.729
280.6
278.472
276.87
274.484
272.889
271.496
277.59
286.614
293.482
293.439
291.537
290.003
291.763
295.133
293.766
284.138
273.534
267.539
266.568
269.976
273.48
276.018
280.111
279.876
277.818
282.966
290.001
286.142
283.89
286.254
284.901
286.257
284.052
291.092
283.473
286.324
289.705
283.209
290.133
288.03
284.788
286.07
282.75
277.6
272.006
262.204
257.811
257.251
251.558
255.827
251.269
234.462
243.675
269.541
277.444
267.294
234.893
219.989
225.47
214.112
199.53
198.404
212.396
219.896
221.514
215.829
207.929
197.078
201.16
217.013
212.286
218.008
220.607
221.191
292.343
291.103
290.608
289.399
288.776
289.287
290.845
291.919
292.941
293.686
293.754
293.775
293.789
294.024
293.978
294.659
295.842
295.212
292.389
289.95
287.062
282.492
279.786
280.294
277.928
274.054
278.546
277.803
279.464
286.901
281.298
271.25
274.202
283.522
287.36
288.64
290.034
292.09
294.244
295.862
297.037
297.701
298.03
298.254
298.304
298.19
297.881
297.619
297.233
296.94
296.721
296.562
296.483
296.503
296.543
296.68
296.796
296.953
297.097
297.246
297.363
297.466
297.584
297.687
297.727
297.703
297.631
297.658
297.678
297.555
297.372
297.415
296.839
296.354
296.209
295.879
294.907
295.353
295.222
295.862
296.192
297.351
297.893
298.091
298.706
298.785
298.713
298.478
298.469
297.811
296.968
296.532
294.651
295.078
294.529
291.723
293.212
295.081
292.696
289.54
288.646
289.766
289.49
287.509
285.844
285.596
285.962
285.725
285.575
283.525
280.774
277.147
279.739
285.586
290.739
290.761
290.696
291.468
293.777
298.159
297.196
288.033
276.954
270.441
268.413
270.263
272.731
277.843
280.743
281.299
280.375
281.101
290.098
289.812
287.676
287.763
292.304
289.861
287.641
296.019
289.103
290.927
296.652
282.766
290.633
290.292
286.69
289.038
286.377
280.336
280.85
270.441
260.251
263.131
251.44
254.986
262.169
237.652
239.443
265.79
272.133
272.213
236.768
223.878
238.312
218.953
200.602
200.226
214.165
219.073
215.27
205.876
195.707
184.035
201.173
215.245
218.785
223.322
221.858
223.389
292.96
292.12
290.785
289.658
290.464
292.569
294.065
293.722
292.965
291.991
290.992
289.714
289.097
289.253
288.598
289.382
291.292
292.662
293.788
293.406
292.277
290.288
282.769
275.016
275.319
278.193
277.304
281.892
283.365
275.257
274.053
281.318
287.442
290.95
292.197
293.599
295.004
296.37
297.222
297.569
297.678
297.492
297.096
296.59
296.166
295.656
295.3
295.101
295.147
295.34
295.713
296.181
296.66
297.147
297.575
297.992
298.33
298.631
298.905
299.093
299.266
299.419
299.596
299.746
299.875
299.926
299.939
299.936
299.97
300.034
299.892
299.959
299.439
298.943
298.911
298.504
296.835
296.108
295.181
295.211
295.011
295.933
296.607
297.189
297.672
298.363
298.626
298.079
297.832
298.406
297.661
298.988
299.035
297.915
297.323
295.202
292.876
293.257
294.384
292.976
290.836
292.282
293.064
290.767
288.318
287.76
288.628
290.145
291.211
290.744
287.509
283.931
284.215
287.622
291.393
291.783
291.449
290.235
291.509
296.437
295.447
285.572
275.655
271.188
269.268
270.941
274.37
278.605
280.591
281.289
281.534
280.272
288
292.144
295.66
292.359
293.666
287.836
287.398
284.38
289.63
291.495
298.198
282.547
292.584
289.97
286.925
294.024
290.624
277.86
285.199
280.343
263.147
271.237
255.423
253.002
270.521
246.755
238.126
255.884
259.356
269.636
236.404
227.366
250.147
225.619
202.656
201.19
214.177
218.197
210.854
198.446
187.553
178.62
198.517
219.505
221.714
223.749
220.606
220.678
293.41
292.642
291.097
290.871
293.03
294.543
293.548
291.746
291.598
291.2
290.99
290.527
290.207
290.29
288.906
288.327
288.553
288.898
291.016
292.852
292.89
290.337
285.625
283.779
279.943
277.217
282.083
280.983
274.246
278.616
285.968
290.211
293.078
294.149
295.361
296.227
296.627
297.023
296.754
296.482
296.005
295.64
295.354
295.071
295.15
295.36
295.852
296.434
297.207
297.907
298.581
299.07
299.409
299.595
299.691
299.676
299.579
299.506
299.421
299.325
299.285
299.308
299.315
299.345
299.374
299.496
299.68
299.859
299.895
300.077
300.299
300.446
300.403
300.769
301.15
300.807
300.556
299.892
298.714
298.679
296.931
297.207
297.41
298.072
298.505
299.06
299.823
299.959
298.452
298.74
298.31
297.248
297.225
298.568
299.096
298.639
297.737
296.235
295.493
295.64
293.513
293.218
294.436
293.458
291.643
290.337
288.003
288.006
288.611
290.896
290.68
290.629
287.82
287.6
292.151
296.305
298.171
295.726
295.431
301.828
301.541
288.209
276.508
272.234
269.651
272.63
276.078
278.975
280.067
283.673
286.189
282.841
285.324
288.755
295.463
292.319
291.366
286.611
280.544
279.153
284.694
290.124
299.309
282.539
298.348
291.688
286.469
299.121
295.962
276.253
288.633
287.462
265.533
277.977
261.435
253.449
273.45
258.086
243.456
248.792
247.717
267.041
239.251
230.244
257.484
232.364
206.362
201.942
212.906
213.937
207.428
198.689
184.182
179.87
204.625
223.796
225.679
229.084
222.736
219.412
293.82
293.011
291.481
292.336
294.217
293.8
292.435
292.89
294.331
294.555
294.408
293.741
292.88
291.838
290.054
289.056
287.066
286.656
289.921
292.01
294.691
296.45
289.784
279.588
276.516
280.961
279.537
274.787
281.394
289.785
291.659
294.12
295.484
295.894
296.872
296.562
296.512
296.113
295.775
295.555
295.265
295.451
295.529
295.961
296.467
297.171
297.841
298.411
298.843
299.002
298.959
298.66
298.27
297.827
297.359
296.928
296.625
296.338
296.142
296.078
296.051
296.078
296.129
296.199
296.216
296.29
296.385
296.568
296.737
296.803
296.999
297.063
297.151
297.67
298.502
298.688
299.678
300.229
300.358
300.757
300.033
299.27
299.117
298.922
298.787
298.407
298.892
299.842
299.719
298.942
300.075
301.053
299.263
297.85
298.131
297.979
298.057
298.828
297.017
296.781
295.625
294.876
296.709
296.078
293.314
292.869
289.587
289.186
286.836
289.924
290.249
293.354
289.23
289.271
293.434
298.506
300.965
298.967
294.734
301.146
302.984
289.823
277.958
273.408
270.25
273.829
277.775
280.114
281.432
285.835
286.947
285.406
285.54
285.995
292.349
288.982
287.09
289.817
278.983
281.552
284.587
289.642
303.638
280.854
299.187
291.321
283.828
303.121
300.112
276.384
292.299
289.536
267.694
281.466
267.134
256.356
271.102
268.033
260.473
248.848
239.29
263.614
244.113
232.771
262.029
238.1
209.401
202.696
211.605
210.032
202.879
201.148
188.805
185.211
211.386
223.174
223.535
230.965
223.883
221.111
294.22
293.367
292.245
293.349
294.192
293.706
293.584
294.294
294.374
293.43
292.031
289.927
288.761
288.149
288.146
289.001
288.583
289.102
290.663
292.117
294.303
288.263
278.827
277.078
280.07
278.336
274.829
281.871
292.125
294.327
294.675
296.873
296.564
296.843
296.778
295.977
296.123
295.747
295.928
296.068
296.187
296.686
297.009
297.687
298.128
298.592
298.784
298.766
298.473
298.028
297.426
296.857
296.352
295.943
295.689
295.56
295.569
295.717
295.935
296.265
296.665
297.055
297.331
297.485
297.477
297.456
297.596
297.704
298.017
298.012
298.138
297.496
297.206
296.434
296.304
295.945
297.018
297.292
298.947
299.453
301.113
301.051
301.457
301.442
302.01
301.095
300.505
300.28
300.561
298.827
297.966
299.402
301.198
300.127
299.265
298.633
297.356
299.797
299.913
298.912
298.134
295.568
296.439
298.677
296.47
295.614
291.283
291.399
288.41
290.255
290.483
295.197
292.465
292.003
293.735
298.377
302.229
301.622
294.07
300.103
305.331
293.321
281.05
273.424
271.209
275.144
278.523
281.958
283.159
286.27
285.845
286.224
287.611
284.539
289.791
291.734
291.142
292.024
283.574
281.935
286.346
291.543
307.76
283.152
295.348
288.027
282.256
304.58
304.472
279.601
292.895
288.205
270.055
280.52
272.244
261.03
267.04
271.891
283.453
258.712
236.858
262.255
248.352
234.086
263.729
243.459
212.522
204.209
210.127
211.131
208.306
209.619
200.707
198.955
220.383
228.835
227.474
232.041
224.58
224.636
294.664
293.855
292.846
293.838
294.378
293.475
292.616
292.664
292.947
292.283
290.883
288.592
286.809
284.923
284.381
285.881
288.099
289.626
290.549
291.338
288.832
281.54
279.469
280.876
278.491
277.191
282.939
292.469
296.077
295.554
296.799
297.539
296.726
297.119
296.427
296.359
296.596
296.42
296.869
297.092
297.607
298.077
298.405
298.722
298.718
298.657
298.254
297.77
297.163
296.661
296.196
295.91
295.771
295.716
295.783
295.981
296.213
296.54
296.923
297.397
297.938
298.737
299.416
299.832
299.872
299.66
299.55
299.64
300.402
300.748
301.719
301.458
301.19
299.772
299.03
297.418
297.276
296.493
296.572
295.472
296.459
297.072
298.189
299.056
299.887
300.867
301.238
301.029
301.564
301.381
300.564
298.842
299.352
300.42
299.717
299.745
297.157
298.403
301.108
299.937
299.754
298.108
295.706
298.043
298.24
298.902
294.551
294.141
293.293
292.544
290.965
293.666
292.353
290.994
292.686
296.454
302.766
304.961
295.411
297.171
305.532
296.84
285.653
274.973
272.347
275.949
278.854
283.991
284.43
287.597
287.274
286.031
287.702
285.3
287.034
290.433
295.931
293.535
285.915
279.46
284.713
288.904
305.174
288.583
293.162
286.468
280.316
299.407
307.352
284.678
291.865
288.023
273.055
278.149
279.361
268.169
264.796
268.723
292.134
274.543
237.88
262.289
252.43
234.985
265.247
247.972
215.529
205.958
208.849
214.578
217.114
219.838
211.486
208.783
227.437
229.327
230.904
230.698
226.464
225.947
295.127
294.29
293.568
295.053
295.293
294.332
294.351
295.52
295.95
295.256
293.58
290.285
287.263
284.995
285.112
287.25
291.43
295.083
296.879
295.23
288.689
281.417
279.534
277.411
278.336
285.553
294.153
297.369
296.922
296.931
297.813
297.329
296.954
297.049
296.503
297.028
297.336
297.658
298.168
298.317
298.575
298.599
298.67
298.608
298.354
297.948
297.451
296.995
296.632
296.375
296.271
296.194
296.169
296.199
296.224
296.329
296.461
296.608
296.733
296.99
297.198
297.937
299.136
300.302
300.614
300.6
299.99
299.493
299.521
300.177
301.074
302.481
302.966
302.911
301.916
300.787
300.976
300.39
300.977
299.795
298.099
296.849
295.377
296.715
297.993
298.256
299.157
300.769
301.132
300.065
301.169
300.523
298.768
299.406
300.053
300.104
298.879
297.073
301.533
301.96
300.003
299.471
297.08
297.388
297.624
299.805
299.697
297.075
298.321
296.45
293.289
293.123
294.206
292.051
292.398
293.689
300.227
306.617
299.322
296.986
305.186
299.621
290.253
277.629
272.707
276.489
279.349
284.626
285.522
288.26
288.958
289.076
290.25
286.44
283.918
285.644
293.858
294.866
288.959
279.954
286.237
289.924
302.003
296.85
295.421
287.842
280.358
290.928
303.919
290.707
289.675
288.51
275.086
275.661
286.609
277.208
264.911
264.849
285.564
289.481
241.975
261.227
256.622
234.762
267.311
252.308
219.733
207.498
208.34
212.349
212.422
223.45
211.812
215.676
231.692
230.831
232.839
228.838
227.799
225.146
295.603
294.816
294.567
296.263
296.894
296.471
295.522
294.46
293.73
293.805
293.004
289.937
287.287
284.953
284.547
286.573
291.532
296.497
298.903
295.897
287.626
279.461
276.508
277.253
284.603
293.446
297.193
296.682
296.933
297.979
298.163
297.776
297.785
297.514
297.315
297.784
297.763
298.06
298.133
298.436
298.809
298.863
298.834
298.434
298.139
297.631
297.267
296.985
296.862
296.697
296.632
296.477
296.259
296.071
295.943
295.873
295.802
295.937
296.012
296.334
296.307
296.371
297.011
298.915
300.148
301.162
300.624
300.539
299.218
299.316
299.035
300.49
301.443
302.261
302.318
299.685
299.294
299.489
300.812
302.724
301.772
300.908
298.479
295.425
296.469
298.026
297.303
298.871
301.31
299.403
300.121
301.308
300.458
298.061
300.03
299.119
300.303
296.779
298.101
301.461
300.41
299.785
299.337
299.216
298.283
298.219
302.5
299.105
300.908
300.142
295.819
293.275
295.189
295.399
295.194
293.235
298.166
304.765
302.737
296.686
302.682
301.927
294.846
282.127
273.945
275.589
278.988
284.825
286.876
288.565
289.537
291.303
293.234
290.723
286.009
282.555
288.952
295.275
295.512
282.134
284.273
291.113
295.615
305.345
301.446
289.354
283.978
285.107
292.561
294.85
289.492
291.297
278.349
273.787
290.406
286.774
267.621
265.826
279.271
289.846
247.338
258.069
261.717
239.766
270.936
256.325
223.422
208.897
209.315
207.243
202.889
221.041
211.35
225.673
235.148
231.91
233.153
227.944
228.42
226.902
296.133
295.474
295.083
295.977
296.455
295.224
293.524
293.963
294.804
295.056
294.977
292.256
289.353
286.856
285.276
284.94
286.598
289.012
289.287
286.592
281.249
277.888
280.063
286.258
294.378
298.801
298.187
297.121
298.367
298.828
298.064
297.954
297.749
297.457
298.029
298.661
298.666
298.914
298.637
298.823
298.887
298.77
298.697
298.389
298.104
297.606
297.498
297.385
297.371
297.296
297.225
297.033
296.861
296.619
296.389
296.405
296.188
296.26
296.385
297.028
297.311
297.392
296.77
297.523
298.345
300.068
300.472
301.395
301.216
300.749
300.885
300.46
301.671
302.262
303.31
302.466
300.252
299.296
298.291
301.054
303.017
301.536
301.174
298.363
295.879
297.425
297.406
297.707
300.936
298.989
298.68
299.396
301.938
298.317
299.841
299.243
300.093
299.637
297.597
300.262
300.483
300.653
299.865
299.97
299.086
296.371
301.708
301.544
300.643
302.493
299.708
295.493
294.408
295.929
296.442
293.951
296.086
300.574
306.628
299.968
299.026
303.542
300.32
286.958
277.157
274.701
277.006
282.707
286.344
288.752
288.807
292.103
294.074
293.012
291.056
284.2
287.575
296.477
300.918
286.175
283.044
289.841
291.525
310.487
303.55
291.184
290.769
284.319
283.159
292.862
288.746
294.43
282.428
273.657
291.047
289.835
269.148
269.84
276.66
279.519
252.741
261.145
268.46
248.403
273.645
262.299
226.692
211.3
210.724
206.728
201.595
220.962
217.987
234.746
236.357
232.265
232.567
228.345
229.431
228.842
296.709
296.189
295.613
295.417
295.686
296.299
296.717
296.8
295.72
295.237
295.899
294.348
292.158
289.656
287.359
286.702
286.352
286.264
285.784
284.086
282.445
283.357
288.075
293.823
298.892
299.449
298.251
298.357
299.913
299.539
298.82
298.938
298.622
298.375
298.803
298.67
298.603
299.115
299.361
299.858
299.736
299.228
298.781
298.28
298.028
297.87
298.031
298.01
298.24
298.437
298.436
298.347
298.407
298.432
297.948
297.917
297.848
297.696
296.975
296.785
296.919
297.783
297.839
297.758
297.354
297.799
298.272
298.808
300.241
300.331
301.392
301.558
300.819
301.501
301.083
302.82
301.311
300.87
300.561
299.758
302.406
302.195
300.642
299.05
296.312
296.97
297.566
297.121
299.388
299.037
299.591
298.74
301.167
298.379
297.796
300.079
298.315
300.778
298.197
298.258
298.789
301.076
301.216
300.528
301.001
296.917
298.898
302.864
301.852
302.236
301.898
298.463
293.88
296.472
295.758
297.033
297.572
297.931
308.514
304.317
297.177
302.914
305.175
292.462
281.209
276.127
276.122
279.936
283.523
286.686
287.499
291.012
291.602
293.021
295.383
288.386
285.574
292.618
301.055
287.727
287.692
281.342
290.422
307.657
298.941
287.995
295.71
283.743
279.89
287.662
285.667
294.573
284.556
274.974
292.105
288.422
271.636
274.209
274.737
273.38
256.158
275.319
270.789
250.25
273.676
269.754
229.655
214.251
211.364
211.851
209.836
221.858
228.83
239.524
236.635
232.495
232.012
229.703
229.018
226.856
297.309
297.154
297.522
297.992
297.993
297.337
295.002
294.511
296.907
296.061
295.005
297.173
296.931
294.424
292.317
290.112
289.087
288.662
288.308
288.646
289.378
292.017
295.613
298.962
300.51
299.72
298.815
299.493
300.528
299.558
299.029
299.258
298.568
298.244
298.706
298.656
298.629
298.699
298.459
298.729
299.037
299.209
299.083
298.682
298.639
298.568
298.66
298.975
299.363
299.344
299.39
299.666
299.492
299.709
299.517
298.785
298.175
298.366
297.619
296.11
295.101
294.986
295.847
297.011
297.389
297.814
298.052
297.792
298.017
299.041
299.551
301.91
301.559
302.633
300.587
300.98
301.604
300.637
301.002
300.621
301.581
302.481
301.399
299.776
296.521
295.736
296.973
298.243
299.718
298.965
298.992
298.656
299.966
300.144
297.617
301.34
297.719
301.214
300.359
298.369
298.076
300.868
301.612
300.185
301.164
298.662
296.987
300.853
303.853
301.418
302.536
302.396
294.159
297.5
294.658
297.709
300.956
296.284
307.623
307.653
298.864
300.193
305.279
298.494
286.709
278.194
275.663
278.44
280.612
283.087
285.044
288.588
289.195
292.627
296.345
293.648
288.772
292.442
302.464
289.471
296.288
276.739
292.038
299.966
297.228
288.341
293.372
280.739
284.63
284.09
279.427
292.682
284.287
277.041
292.036
285.239
276.564
277.438
273.649
274.139
257.819
292.705
264.751
239.496
269.561
278.707
234.21
217.262
210.935
217.36
219.82
226.578
238.316
240.429
236.618
233.147
233.303
232.485
227.274
219.191
297.977
298.227
298.596
298.316
297.66
297.606
297.543
297.032
296.534
295.251
296.273
297.397
296.708
295.941
295.75
295.872
295.085
294.539
294.044
294.28
294.947
296.591
298.586
300.054
300.411
299.73
299.654
300.48
300.964
300.004
299.304
299.232
298.5
298.575
299.355
299.524
299.8
299.965
299.414
299.371
299.196
298.816
298.787
298.732
298.649
298.884
299.814
300.049
299.985
300.546
300.435
300.403
300.541
300.515
300.067
299.553
298.516
297.804
298.115
297.937
297.266
296.439
295.467
295.991
296.756
298.078
298.668
299.022
298.198
298.586
298.798
299.743
300.5
301.587
301.891
300.951
300.696
301.661
302.396
301.819
301.387
301.188
300.069
299.583
297.519
296.497
296.317
296.437
298.276
299.084
300.362
299.905
298.568
300.191
296.764
300.747
296.999
299.669
301.038
298.092
297.876
300.11
301.346
301.567
300.626
299.72
297.068
298.858
305.072
302.565
299.437
303.168
296.79
298.567
295.782
294.8
304.574
297.25
301.316
309.905
302.356
297.955
303.097
302.754
293.327
282.501
277.084
277.302
279.042
280.923
282.338
287.064
287.891
291.603
297.678
296.67
292.382
292.64
298.509
290.275
296.028
275.566
290.096
291.865
295.642
294.412
285.599
274.163
292.809
285.54
273.613
290.075
285.668
283.827
294.134
284.361
282.925
278.545
274.426
277.232
259.776
299.315
253.584
225.659
265.65
287.544
240.788
219.915
210.689
218.369
226.91
235.004
242.1
239.954
236.653
233.692
236.181
237.535
226.745
212.977
298.559
298.779
298.468
298.362
298.525
298.129
297.865
296.664
296.298
296.333
296.015
296.428
297.125
298.154
298.47
297.998
297.618
297.675
297.96
298.091
298.684
299.174
299.821
299.969
300.096
299.611
299.912
300.684
301.008
300.263
300.012
299.994
299.244
298.625
298.916
299.201
299.729
300.319
300.291
300.337
299.881
299.705
299.835
299.491
299.65
300.093
300.372
300.788
301.264
301.494
301.091
301.173
300.841
300.53
300.248
299.707
299.477
298.762
297.806
297.774
297.663
297.912
296.822
296.657
296.074
296.398
296.643
296.957
297.667
297.531
298.962
299.484
299.966
300.619
301.362
301.843
301.878
301.335
302.004
302.705
301.753
300.791
299.019
298.57
297.029
296.04
296.885
297.72
298.577
297.616
298.832
299.787
298.145
301.012
298.546
300.865
297.673
298.099
301.727
298.748
297.409
298.493
300.041
301.664
300.245
299.043
297.737
297.623
304.03
305.778
297.978
299.439
298.412
297.713
298.983
291.874
301.216
303.444
298.136
307.542
306.281
297.91
299.84
303.515
298.296
288.079
279.989
276.921
278.272
279.616
280.452
287.876
289.606
293.248
299.219
295.949
292.543
295.451
294.927
289.517
293.345
279.413
289.427
289.938
297.197
299.907
277.165
270.533
300.683
291.978
273.581
288.276
287.407
290.104
294.256
284.708
287.633
278.229
277.159
280.482
262.954
295.6
248.646
218.337
263.197
295.033
248.934
222.091
212.277
214.634
233.151
242.892
243.073
239.904
237.313
234.723
239.977
244.434
231.015
217.756
299.028
298.956
298.407
298.4
298.314
298.216
298.234
296.883
296.485
297.334
296.696
295.812
296.644
297.568
297.649
298.124
298.722
298.961
299.184
299.704
300.218
300.863
301.266
301.225
301.154
300.86
301.027
301.318
301.659
301.084
300.764
300.597
300.217
299.698
299.724
299.757
299.667
299.847
300.18
300.287
300.104
299.716
299.541
299.733
299.526
299.965
300.562
301.009
301.098
301.761
301.492
300.873
300.819
301.079
300.728
299.472
298.971
299.397
298.217
297.891
296.393
296.25
296.494
296.879
297.599
296.772
297.419
296.168
296.128
295.864
296.481
298.171
299.6
299.775
300.696
301.115
301.838
302.197
302.011
302.202
301.338
300.83
298.701
297.153
297.042
296.982
296.669
297.111
298.757
298.612
299.542
300.744
297.524
299.375