/*--------------------------------*- C++ -*----------------------------------*\
| =========                 |                                                 |
| \\      /  F ield         | OpenFOAM: The Open Source CFD Toolbox           |
|  \\    /   O peration     | Version:  dev                                   |
|   \\  /    A nd           | Web:      http://www.openfoam.org               |
|    \\/     M anipulation  |                                                 |
\*---------------------------------------------------------------------------*/
FoamFile
{
    version     2.0;
    format      ascii;
    class       volVectorField;
    object      U;
    location    "9.164";
}
// * * * * * * * * * * * * * * * * * * * * * * * * * * * * * * * * * * * * * //

dimensions      [0 1 -1 0 0 0 0];

internalField   nonuniform List<vector> 
12225
(
(6.32155 0.736021 0)
(2.60636 0.498096 0)
(-0.25435 0.356174 0)
(-1.20058 0.305104 0)
(-3.31662 0.358095 0)
(-3.29678 0.269399 0)
(-5.56108 0.386554 0)
(-5.04184 0.253752 0)
(-7.47911 0.432276 0)
(-6.54053 0.188049 0)
(-9.08932 0.511008 0)
(-7.76812 0.160076 0)
(-10.5368 0.57199 0)
(-9.04243 0.0758538 0)
(-10.5125 0.232829 0)
(-6.78153 -0.289568 0)
(2.36343 -0.209229 0)
(-12.2826 10.9549 0)
(8.76054 2.04046 0)
(7.74775 1.80417 0)
(3.78317 1.46143 0)
(3.89573 1.20795 0)
(-0.678031 1.20341 0)
(1.08422 1.05142 0)
(-4.17576 1.20872 0)
(-0.942477 0.950316 0)
(-7.14657 1.36525 0)
(-2.39604 0.7463 0)
(-9.36254 1.48576 0)
(-3.42185 0.635614 0)
(-11.0818 1.72258 0)
(-4.5763 0.0283666 0)
(-12.0183 1.85371 0)
(-6.43991 -2.2264 0)
(-13.8513 -0.737995 0)
(-19.2861 5.61785 0)
(8.1158 2.6128 0)
(10.5683 2.61728 0)
(5.40047 2.40646 0)
(8.24656 2.18324 0)
(1.66011 2.15823 0)
(5.83933 2.06384 0)
(-1.84891 2.09454 0)
(3.9252 1.91707 0)
(-4.91718 2.25749 0)
(2.29615 1.43128 0)
(-6.74137 2.4731 0)
(0.645097 1.16284 0)
(-7.8503 2.76574 0)
(-1.83307 0.954675 0)
(-9.10483 3.25573 0)
(-4.54697 0.122152 0)
(-13.3241 2.69305 0)
(-18.8405 3.08623 0)
(6.14919 3.43199 0)
(12.2328 3.32325 0)
(5.45876 3.29344 0)
(10.3195 3.04071 0)
(3.29743 3.17284 0)
(8.14827 2.9588 0)
(1.10237 3.1556 0)
(5.95789 2.78751 0)
(-0.904661 3.37152 0)
(3.74127 2.20291 0)
(-2.79841 3.73956 0)
(1.20513 1.82386 0)
(-4.75795 4.39635 0)
(-1.42592 1.34349 0)
(-7.27613 5.0942 0)
(-4.7157 0.241611 0)
(-10.6705 5.02679 0)
(-21.2124 8.70845 0)
(6.56321 4.51088 0)
(10.7025 3.6894 0)
(6.41675 4.32035 0)
(8.73931 3.66872 0)
(4.89414 4.32284 0)
(6.55873 3.571 0)
(3.28204 4.39459 0)
(4.26556 3.43152 0)
(1.49549 4.60232 0)
(2.39178 3.20988 0)
(-0.445331 5.00693 0)
(-0.175895 2.92001 0)
(-2.52125 5.87245 0)
(-2.57569 2.5488 0)
(-5.13865 7.46587 0)
(-5.08771 0.685527 0)
(-8.36081 10.3431 0)
(-15.1052 7.46377 0)
(8.80739 5.78063 0)
(8.04654 4.28985 0)
(7.07203 5.39648 0)
(6.28918 4.42659 0)
(5.5404 5.53709 0)
(4.50376 4.38245 0)
(3.74214 5.70836 0)
(2.40892 4.27711 0)
(1.83123 5.84044 0)
(0.855683 4.23504 0)
(0.187673 6.39752 0)
(-1.06132 3.71009 0)
(-1.45735 7.39989 0)
(-2.80458 3.64425 0)
(-3.06724 8.74367 0)
(-4.25266 3.90433 0)
(-7.7935 12.8747 0)
(-5.55036 10.0836 0)
(9.30565 7.13116 0)
(8.09074 5.26182 0)
(7.34195 6.73857 0)
(6.22348 5.15563 0)
(5.79531 6.82795 0)
(4.59499 5.18194 0)
(3.99647 7.18028 0)
(2.8288 5.14781 0)
(2.06606 7.29203 0)
(1.12441 5.19519 0)
(0.608374 7.87301 0)
(-0.358313 4.83733 0)
(-1.11711 8.83056 0)
(-1.73721 5.02355 0)
(-2.6335 9.79025 0)
(-3.07939 5.51878 0)
(-6.38308 11.9469 0)
(-2.70513 9.93099 0)
(9.37464 8.12173 0)
(8.18538 6.00674 0)
(7.64072 7.81331 0)
(6.31588 5.94348 0)
(5.83838 7.90256 0)
(4.47768 6.02953 0)
(4.03219 8.23833 0)
(2.88426 6.10923 0)
(2.32537 8.3433 0)
(1.22791 6.26836 0)
(0.905425 8.68566 0)
(-0.072068 6.31343 0)
(-0.884033 9.31737 0)
(-1.41473 6.69231 0)
(-2.51811 10.2501 0)
(-2.67781 7.71186 0)
(-4.72055 11.9725 0)
(-2.62189 11.982 0)
(9.06638 9.10103 0)
(8.17758 6.70407 0)
(7.63588 8.76419 0)
(6.58247 6.7523 0)
(5.87816 8.87814 0)
(4.76378 6.8965 0)
(4.13673 9.17974 0)
(3.20559 6.98795 0)
(2.43049 9.30559 0)
(1.46287 7.13218 0)
(0.759748 9.63295 0)
(0.136961 7.43436 0)
(-1.0822 10.1698 0)
(-1.23129 7.829 0)
(-2.58584 11.0135 0)
(-2.35069 9.30907 0)
(-3.85355 12.4851 0)
(-2.42188 12.5957 0)
(9.57643 10.1005 0)
(8.55091 7.64517 0)
(7.63749 9.73364 0)
(6.54827 7.78444 0)
(5.71369 9.82496 0)
(4.76849 7.95756 0)
(4.04812 10.0651 0)
(3.28613 8.19354 0)
(2.37333 10.1962 0)
(1.61629 8.46877 0)
(0.699475 10.5932 0)
(0.341492 8.91563 0)
(-0.90605 10.9218 0)
(-0.873748 9.56491 0)
(-2.07676 11.6222 0)
(-1.87965 10.9268 0)
(-2.66873 12.6818 0)
(-1.97136 13.3237 0)
(9.62418 11.1687 0)
(8.29802 8.84246 0)
(7.6081 10.7793 0)
(6.42715 9.00324 0)
(5.73581 10.7653 0)
(4.6537 9.18952 0)
(4.01738 10.9765 0)
(3.15167 9.42264 0)
(2.43253 11.1815 0)
(1.68754 9.79247 0)
(0.967947 11.5701 0)
(0.519584 10.2783 0)
(-0.424495 11.8805 0)
(-0.523839 11.0758 0)
(-1.36735 12.4565 0)
(-1.3526 12.3043 0)
(-1.66596 13.3866 0)
(-1.3012 14.0081 0)
(9.32218 12.3221 0)
(8.33467 10.1701 0)
(7.49388 11.6696 0)
(6.48964 10.4016 0)
(5.65823 11.7589 0)
(4.65147 10.6492 0)
(3.9424 11.9644 0)
(3.12537 10.9504 0)
(2.41892 12.2093 0)
(1.70447 11.3637 0)
(1.0693 12.5733 0)
(0.593651 11.87 0)
(-0.114116 12.8938 0)
(-0.343481 12.6294 0)
(-0.88663 13.3866 0)
(-0.940192 13.5861 0)
(-1.02667 14.2014 0)
(-0.782905 14.7236 0)
(9.35092 13.5265 0)
(8.50678 11.6209 0)
(7.46345 12.7174 0)
(6.53809 11.9679 0)
(5.6044 12.8639 0)
(4.73617 12.2276 0)
(3.92097 12.9947 0)
(3.13707 12.4571 0)
(2.41322 13.1656 0)
(1.78435 12.8091 0)
(1.19648 13.5199 0)
(0.713495 13.3118 0)
(0.209121 13.9373 0)
(-0.0487057 14.0177 0)
(-0.372597 14.4569 0)
(-0.508533 14.7757 0)
(-0.488495 15.1485 0)
(-0.2646 15.5434 0)
(9.55953 14.8005 0)
(8.56629 13.2127 0)
(7.41806 13.68 0)
(6.43419 13.449 0)
(5.55923 13.8541 0)
(4.76686 13.6657 0)
(4.03281 14.0102 0)
(3.30309 13.9175 0)
(2.57427 14.2855 0)
(1.91278 14.3 0)
(1.27081 14.6615 0)
(0.749732 14.7067 0)
(0.33381 15.023 0)
(0.0411615 15.1987 0)
(-0.177079 15.4923 0)
(-0.278326 15.751 0)
(-0.256899 16.047 0)
(0.00609363 16.3076 0)
(9.44962 16.0283 0)
(8.52452 14.7362 0)
(7.59239 14.7662 0)
(6.65126 14.7631 0)
(5.73022 14.8636 0)
(4.88482 14.8759 0)
(4.05528 15.0624 0)
(3.31491 15.1915 0)
(2.60419 15.446 0)
(1.99438 15.616 0)
(1.45272 15.7966 0)
(1.00666 15.9324 0)
(0.614715 16.0911 0)
(0.319236 16.2656 0)
(0.0863808 16.4393 0)
(-0.0313428 16.6248 0)
(-0.101794 16.7984 0)
(0.0696178 17.0218 0)
(9.11882 16.7197 0)
(8.37253 15.5749 0)
(7.53929 15.5639 0)
(6.64272 15.7095 0)
(5.72809 15.8529 0)
(4.8608 15.9548 0)
(4.0128 16.0812 0)
(3.30342 16.1833 0)
(2.63671 16.3079 0)
(2.10209 16.4371 0)
(1.60725 16.5972 0)
(1.19672 16.7434 0)
(0.819258 16.9058 0)
(0.535974 17.0622 0)
(0.315898 17.2086 0)
(0.21139 17.3496 0)
(0.130669 17.4398 0)
(0.271753 17.5514 0)
(9.48841 17.3564 0)
(8.44612 16.0879 0)
(7.51561 16.0638 0)
(6.64759 16.2436 0)
(5.81914 16.3858 0)
(5.03799 16.4869 0)
(4.25262 16.5742 0)
(3.55978 16.6649 0)
(2.883 16.7854 0)
(2.3142 16.9223 0)
(1.78588 17.079 0)
(1.37307 17.221 0)
(0.994744 17.3507 0)
(0.732322 17.4371 0)
(0.512704 17.4968 0)
(0.416635 17.5295 0)
(0.34912 17.545 0)
(0.460104 17.5682 0)
(9.44379 17.35 0)
(8.48735 16.0915 0)
(7.5258 15.9032 0)
(6.65565 15.9849 0)
(5.84066 16.1256 0)
(5.0667 16.2655 0)
(4.28185 16.3828 0)
(3.57449 16.4767 0)
(2.92773 16.5635 0)
(2.3943 16.6463 0)
(1.9175 16.7354 0)
(1.55111 16.8346 0)
(1.20936 16.9172 0)
(0.966575 16.9823 0)
(0.726109 17.0024 0)
(0.570457 17.0097 0)
(0.446654 17.0056 0)
(0.455447 16.9941 0)
(9.42309 16.1627 0)
(8.65562 15.0386 0)
(7.78609 14.932 0)
(6.93627 15.0599 0)
(6.10998 15.2457 0)
(5.33858 15.4295 0)
(4.57031 15.5451 0)
(3.86674 15.5703 0)
(3.21371 15.5873 0)
(2.66198 15.611 0)
(2.15827 15.6601 0)
(1.76795 15.7467 0)
(1.40361 15.8256 0)
(1.1311 15.9269 0)
(0.879429 15.9815 0)
(0.686247 15.9982 0)
(0.519799 15.9945 0)
(0.455597 15.9953 0)
(9.68515 15.1574 0)
(8.7996 13.9112 0)
(7.83017 13.7118 0)
(6.88791 13.7895 0)
(6.06947 13.91 0)
(5.34322 14.0423 0)
(4.65513 14.1462 0)
(4.0204 14.1868 0)
(3.38935 14.202 0)
(2.82544 14.1983 0)
(2.29039 14.218 0)
(1.83529 14.2655 0)
(1.42543 14.3189 0)
(1.08534 14.4039 0)
(0.798211 14.4409 0)
(0.569496 14.5097 0)
(0.388544 14.4959 0)
(0.28164 14.4954 0)
(9.71259 13.2699 0)
(8.94533 12.275 0)
(8.08125 12.0882 0)
(7.23044 12.1109 0)
(6.43891 12.1976 0)
(5.69004 12.3305 0)
(4.97602 12.4194 0)
(4.28036 12.4798 0)
(3.62452 12.5204 0)
(3.02448 12.5248 0)
(2.43508 12.5733 0)
(1.95237 12.6146 0)
(1.48575 12.6789 0)
(1.13218 12.7692 0)
(0.818314 12.7827 0)
(0.573565 12.8318 0)
(0.406054 12.8051 0)
(0.287647 12.8194 0)
(9.58113 11.6028 0)
(8.93124 10.6639 0)
(8.15112 10.4166 0)
(7.34491 10.4189 0)
(6.51932 10.5117 0)
(5.72277 10.6298 0)
(4.98506 10.7446 0)
(4.28768 10.8151 0)
(3.65969 10.84 0)
(3.09072 10.8642 0)
(2.54069 10.8753 0)
(2.07834 10.9051 0)
(1.63052 10.9348 0)
(1.26795 10.9618 0)
(0.941015 10.9826 0)
(0.689568 10.9838 0)
(0.471311 10.9543 0)
(0.323667 10.9406 0)
(9.51931 9.65528 0)
(8.96186 8.78572 0)
(8.21862 8.63142 0)
(7.45764 8.69212 0)
(6.69171 8.8237 0)
(5.95473 8.95022 0)
(5.22335 9.01878 0)
(4.54911 9.05675 0)
(3.92279 9.04812 0)
(3.33336 9.07002 0)
(2.80902 9.08245 0)
(2.30089 9.13159 0)
(1.86312 9.18037 0)
(1.46498 9.2253 0)
(1.11289 9.25183 0)
(0.838632 9.2513 0)
(0.573725 9.24842 0)
(0.413193 9.26013 0)
(9.79439 7.97787 0)
(9.15026 7.22726 0)
(8.37091 7.03321 0)
(7.54266 7.03625 0)
(6.76363 7.14535 0)
(6.08958 7.27536 0)
(5.4362 7.37511 0)
(4.82905 7.41735 0)
(4.21365 7.43558 0)
(3.62478 7.45122 0)
(3.05911 7.47243 0)
(2.52483 7.51658 0)
(2.06097 7.5481 0)
(1.63426 7.57891 0)
(1.28658 7.59581 0)
(0.971207 7.59739 0)
(0.710636 7.57365 0)
(0.515556 7.56875 0)
(9.70182 6.25779 0)
(9.18987 5.55529 0)
(8.4952 5.39723 0)
(7.70497 5.45245 0)
(6.93382 5.54625 0)
(6.21151 5.65306 0)
(5.52939 5.73011 0)
(4.90231 5.79533 0)
(4.28337 5.84121 0)
(3.70273 5.88633 0)
(3.13994 5.92555 0)
(2.61596 5.96637 0)
(2.14051 5.9998 0)
(1.71524 6.0289 0)
(1.34855 6.04331 0)
(1.02731 6.0473 0)
(0.759021 6.04361 0)
(0.543154 6.05905 0)
(9.65738 4.80529 0)
(9.34629 4.24908 0)
(8.8155 4.08793 0)
(8.15375 4.09633 0)
(7.38191 4.16884 0)
(6.56177 4.2538 0)
(5.755 4.33465 0)
(5.0089 4.38811 0)
(4.33584 4.42595 0)
(3.72081 4.47579 0)
(3.1577 4.51627 0)
(2.63754 4.57389 0)
(2.16109 4.60617 0)
(1.73432 4.62024 0)
(1.35681 4.65258 0)
(1.02326 4.63696 0)
(0.735057 4.63796 0)
(0.506928 4.6395 0)
(9.43658 3.1382 0)
(9.33607 2.6438 0)
(8.96981 2.60567 0)
(8.30521 2.71107 0)
(7.46549 2.8755 0)
(6.60067 3.01123 0)
(5.74991 3.09177 0)
(4.93677 3.12624 0)
(4.14989 3.14855 0)
(3.41363 3.18198 0)
(2.72102 3.21935 0)
(2.09172 3.26786 0)
(1.52747 3.30085 0)
(1.03048 3.32146 0)
(0.591093 3.34594 0)
(0.201631 3.34994 0)
(-0.128062 3.35369 0)
(-0.416157 3.37008 0)
(9.70751 2.03433 0)
(9.49342 1.44687 0)
(8.79898 1.48166 0)
(7.73714 1.6315 0)
(6.57886 1.79656 0)
(5.46661 1.93341 0)
(4.42483 2.00921 0)
(3.43642 2.05652 0)
(2.49214 2.09984 0)
(1.61106 2.14731 0)
(0.798732 2.18551 0)
(0.0718886 2.22238 0)
(-0.56877 2.24217 0)
(-1.14184 2.25175 0)
(-1.63875 2.26304 0)
(-2.08372 2.27975 0)
(-2.47222 2.27113 0)
(-2.80667 2.28167 0)
(9.86344 0.575917 0)
(8.98655 0.264938 0)
(7.35742 0.457574 0)
(5.51801 0.714581 0)
(3.8243 0.923459 0)
(2.36606 1.07908 0)
(1.08512 1.16726 0)
(-0.0506244 1.21183 0)
(-1.06395 1.2372 0)
(-1.96567 1.25697 0)
(-2.76915 1.27152 0)
(-3.48188 1.28083 0)
(-4.10374 1.29256 0)
(-4.66015 1.29959 0)
(-5.14397 1.30747 0)
(-5.56734 1.31586 0)
(-5.92188 1.30811 0)
(-6.2355 1.30559 0)
(8.10235 0.0174938 0)
(4.97816 0.0619422 0)
(2.27212 0.285392 0)
(0.239357 0.405043 0)
(-1.22916 0.438938 0)
(-2.35621 0.44523 0)
(-3.30978 0.436336 0)
(-4.15321 0.428293 0)
(-4.92601 0.422223 0)
(-5.64491 0.419785 0)
(-6.3053 0.419623 0)
(-6.90529 0.419951 0)
(-7.4381 0.42345 0)
(-7.91779 0.425798 0)
(-8.34555 0.42551 0)
(-8.71677 0.426957 0)
(-9.02838 0.41593 0)
(-9.33319 0.436944 0)
(0.0375581 0.0145681 0)
(0.0195646 0.057932 0)
(-0.00987682 0.0146597 0)
(0.0701821 -0.138374 0)
(0.391487 -0.396832 0)
(0.947145 -0.623044 0)
(1.68061 -0.777891 1.12193e-17)
(2.51741 -0.859496 -1.11414e-17)
(3.41904 -0.893444 0)
(4.32388 -0.884736 -1.09777e-17)
(5.21954 -0.865107 0)
(6.08887 -0.806421 0)
(6.89962 -0.72385 0)
(7.6323 -0.644418 1.06478e-17)
(8.28309 -0.562594 0)
(8.83382 -0.469743 0)
(9.32448 -0.351634 -1.04006e-17)
(9.68465 -0.269743 0)
(9.93679 -0.137254 0)
(10.1123 -0.0746818 0)
(10.0946 -0.00546381 1.01007e-17)
(10.0706 0.116364 0)
(9.91876 0.0974548 9.95597e-18)
(9.68935 0.202683 0)
(9.50228 0.158909 0)
(9.15699 0.123365 9.72737e-18)
(8.88018 0.160455 0)
(8.66844 0.0376459 -9.63499e-18)
(8.47225 -0.0961932 0)
(8.35969 -0.19286 9.62697e-18)
(8.27624 -0.306091 0)
(8.24461 -0.370328 0)
(8.37637 -0.346703 0)
(8.59001 -0.317071 0)
(8.68783 -0.40108 0)
(8.72664 -0.414654 -9.18443e-18)
(8.81055 -0.273111 0)
(8.89874 -0.0916228 1.82498e-17)
(8.57475 0.197572 0)
(8.10085 0.460889 -1.7896e-17)
(8.20325 0.243041 0)
(8.78643 -0.0961432 0)
(9.45662 -1.06702 1.76144e-17)
(9.7811 -2.23222 0)
(9.96534 -2.602 1.75473e-17)
(10.2589 -1.79357 -1.74457e-17)
(9.84936 -0.306386 0)
(8.56439 0.564552 -1.74024e-17)
(7.27487 0.67366 -1.72985e-17)
(6.15793 0.616417 0)
(5.14435 0.552042 0)
(4.21194 0.481762 0)
(3.41268 0.410806 0)
(2.70874 0.337144 0)
(2.10172 0.275616 1.65771e-17)
(1.60607 0.201477 0)
(1.20572 0.146879 -1.63449e-17)
(0.904265 0.101892 0)
(0.689555 0.0511559 0)
(0.56256 0.0124912 1.60045e-17)
(0.492439 -0.0228783 0)
(0.484228 -0.0483868 -1.57817e-17)
(0.546842 -0.072036 0)
(0.656624 -0.0992672 0)
(0.792061 -0.130545 0)
(1.00149 -0.133512 1.53446e-17)
(1.26472 -0.144083 0)
(1.53164 -0.163522 0)
(1.81036 -0.173972 1.50235e-17)
(2.11211 -0.176428 0)
(2.4377 -0.180195 1.48125e-17)
(2.76481 -0.192674 0)
(3.09564 -0.200769 0)
(3.42155 -0.193695 0)
(3.72605 -0.188699 -1.43936e-17)
(4.04269 -0.190935 0)
(4.36147 -0.200807 0)
(4.65574 -0.199536 -1.40809e-17)
(4.88438 -0.173314 -1.39784e-17)
(5.06856 -0.158892 0)
(5.26634 -0.180176 -1.37701e-17)
(5.37763 -0.141023 0)
(5.45619 -0.148266 -2.71252e-17)
(5.48305 -0.120613 0)
(5.43614 -0.107673 -2.67055e-17)
(5.31209 -0.0891778 0)
(5.12637 -0.0778714 2.63091e-17)
(4.89828 -0.0542354 0)
(4.58171 -0.0433277 0)
(4.19412 -0.026909 0)
(3.74144 -0.00788222 -2.55605e-17)
(3.28767 0.0177115 0)
(2.77772 0.0104023 2.51884e-17)
(2.23881 0.0313012 0)
(1.69389 0.0203736 -2.47914e-17)
(1.10551 0.0226745 -2.458e-17)
(0.5202 0.0267343 -2.43621e-17)
(-0.0818169 0.0267604 0)
(-0.686665 0.0164482 0)
(-1.27914 0.0119166 0)
(-1.85467 0.0151293 0)
(-2.34864 0.0073498 0)
(-2.78686 0.0122034 0)
(-3.1985 0.0305093 0)
(-3.55962 0.0324532 0)
(-3.829 0.0530383 2.23703e-17)
(-4.03488 0.0782189 2.21294e-17)
(-4.24224 0.14136 0)
(-4.4083 0.1718 0)
(-4.5374 0.205062 0)
(-4.57874 0.194455 2.11731e-17)
(-4.47352 0.162384 0)
(-4.18181 0.0852622 0)
(-3.7163 0.0242577 0)
(-3.09609 -0.0162296 0)
(-2.33444 -0.0510898 -2.01867e-17)
(-1.43236 -0.0744612 0)
(-0.434812 -0.0484131 0)
(0.673019 -0.0789455 1.97346e-17)
(2.19982 -0.0910121 -1.96621e-17)
(3.66902 0.138875 0)
(4.44248 0.191824 -1.97962e-17)
(4.92941 -0.000441926 0)
(5.7496 -0.141229 1.93589e-17)
(6.79334 -0.217438 0)
(7.75213 -0.262058 0)
(8.46681 -0.194805 0)
(8.9377 -0.0690312 0)
(9.19902 0.0190917 0)
(9.03981 0.135798 -3.80286e-17)
(8.99373 0.104601 -3.78638e-17)
(8.61657 0.135966 0)
(7.85337 0.217194 0)
(7.48057 0.175528 0)
(7.08051 0.115768 3.68491e-17)
(6.74424 0.0803092 0)
(6.94211 -0.0480724 0)
(7.37015 -0.124382 0)
(7.2549 -0.0148498 3.60483e-17)
(8.80556 -0.50566 -3.59203e-17)
(10.1965 -0.261853 0)
(10.8629 -0.310549 0)
(13.0111 -0.465516 -3.47835e-17)
(13.78 -0.108404 -3.43883e-17)
(14.5459 -0.224605 0)
(15.0297 -0.0576463 0)
(15.0136 -0.070371 3.34901e-17)
(15.1509 -0.0461581 -3.32088e-17)
(14.9913 -0.104164 0)
(14.5824 -0.175802 0)
(14.4463 -0.200982 -3.23113e-17)
(14.1415 -0.210963 0)
(13.6583 -0.152507 0)
(13.3657 -0.150635 -3.1337e-17)
(12.8781 -0.152898 0)
(12.4045 -0.239611 -3.05952e-17)
(12.0745 -0.219431 0)
(11.3175 -0.0485669 0)
(10.5317 -0.0754312 0)
(10.2392 -0.162177 2.92227e-17)
(9.98339 -0.108193 0)
(10.1491 -0.180797 0)
(9.61076 -0.15386 0)
(8.45498 -0.171349 0)
(8.59168 -0.267076 0)
(8.02715 -0.12553 0)
(6.93381 0.0384709 2.6329e-17)
(6.15627 0.120759 2.57685e-17)
(5.74726 -0.279187 0)
(6.60074 -0.60147 0)
(6.30293 -0.133657 0)
(3.53277 0.750874 -2.6807e-17)
(-1.52757 1.12704 0)
(-6.12324 0.820032 4.97688e-17)
(-6.46418 -0.414598 -4.83671e-17)
(-1.13716 -1.17861 -4.77683e-17)
(1.20205 -0.573835 4.88144e-17)
(2.583 -0.493804 -4.82584e-17)
(3.89266 0.0781148 4.93833e-17)
(2.0406 0.154296 0)
(0.160552 -0.256441 0)
(0.284993 -0.061877 0)
(0.40822 -0.225744 -2.2898e-17)
(0.692398 -0.706083 0)
(1.23507 -1.43952 2.29073e-17)
(1.96843 -2.09229 2.28048e-17)
(2.82531 -2.54199 1.13377e-17)
(3.738 -2.78035 1.12346e-17)
(4.6683 -2.85724 0)
(5.55225 -2.79447 1.10533e-17)
(6.40544 -2.72861 0)
(7.20924 -2.59888 0)
(7.9625 -2.35905 -2.16274e-17)
(8.66268 -2.1532 -1.07191e-17)
(9.25053 -1.92242 2.12416e-17)
(9.8153 -1.66724 2.10864e-17)
(10.3098 -1.52389 1.04056e-17)
(10.6748 -1.11717 0)
(11.0795 -0.963972 0)
(11.2641 -0.653689 0)
(11.4711 -0.312079 1.01256e-17)
(11.5352 -0.354592 0)
(11.4439 0.191283 -2.98337e-17)
(11.5484 0.0850548 0)
(11.1754 0.100807 0)
(10.9575 0.501863 -9.74038e-18)
(10.9204 0.0870846 0)
(10.4171 0.0432247 9.59209e-18)
(10.0916 0.0846136 1.8897e-17)
(10.0871 -0.318822 -9.30971e-18)
(9.95298 -0.389264 0)
(9.63002 -0.473405 0)
(9.4386 -1.06595 0)
(9.69243 -1.26858 1.79847e-17)
(10.1528 -0.743437 1.80404e-17)
(10.0058 -0.550336 8.97558e-18)
(9.59685 -0.79056 0)
(9.6013 -0.806659 -1.72934e-17)
(10.2052 -0.230133 0)
(10.9599 -0.562848 1.77371e-17)
(11.0179 -2.58568 0)
(10.64 -3.16967 0)
(9.91174 -1.43759 -1.74592e-17)
(7.79842 0.256635 0)
(5.35973 0.905493 -5.34041e-17)
(3.84363 1.28974 1.76817e-17)
(2.72984 1.57182 0)
(1.69342 1.59161 1.74478e-17)
(0.805533 1.5009 1.73234e-17)
(0.0490136 1.33273 0)
(-0.65394 1.13242 0)
(-1.2515 0.911569 0)
(-1.76563 0.688712 0)
(-2.19592 0.47991 0)
(-2.51484 0.29236 -1.66211e-17)
(-2.75054 0.114002 -3.30304e-17)
(-2.88542 -0.0461053 1.63946e-17)
(-2.96693 -0.188497 0)
(-2.95003 -0.328877 -3.23552e-17)
(-2.86543 -0.453352 1.60732e-17)
(-2.72185 -0.555389 0)
(-2.52409 -0.64377 1.58374e-17)
(-2.27841 -0.718082 0)
(-1.9954 -0.793067 0)
(-1.6554 -0.847075 3.10229e-17)
(-1.25626 -0.862951 -1.53955e-17)
(-0.855653 -0.903592 3.05803e-17)
(-0.428371 -0.940803 -3.03621e-17)
(0.0269214 -0.956664 -1.50693e-17)
(0.481343 -0.972823 0)
(0.934257 -0.982603 -1.48579e-17)
(1.40428 -0.996535 0)
(1.88731 -0.990499 0)
(2.33093 -0.951171 0)
(2.76062 -0.961266 -1.44398e-17)
(3.20793 -0.986537 0)
(3.64197 -0.971285 -2.84455e-17)
(4.0492 -0.918766 4.23511e-17)
(4.37496 -0.81465 1.40155e-17)
(4.64949 -0.816512 0)
(4.97569 -0.838741 1.38025e-17)
(5.10773 -0.695746 0)
(5.34304 -0.719242 2.7173e-17)
(5.3911 -0.60744 0)
(5.4765 -0.559063 2.66758e-17)
(5.44101 -0.469168 -5.28602e-17)
(5.37327 -0.421833 -2.6214e-17)
(5.2377 -0.352128 0)
(4.99528 -0.279754 0)
(4.72446 -0.235918 0)
(4.3395 -0.188968 2.53943e-17)
(3.93382 -0.169442 0)
(3.46147 -0.182301 -2.5088e-17)
(2.98639 -0.155222 0)
(2.50517 -0.14538 7.43341e-17)
(2.03869 -0.0912115 2.45995e-17)
(1.60911 -0.0385606 2.43524e-17)
(1.14664 0.0282317 0)
(0.624212 0.097417 0)
(0.042376 0.132889 0)
(-0.594008 0.14943 0)
(-1.15381 0.109734 0)
(-1.69893 0.129952 4.52721e-17)
(-2.2249 0.208054 4.46962e-17)
(-2.67569 0.193479 0)
(-3.04329 0.167819 -2.182e-17)
(-3.3135 0.190454 -2.15074e-17)
(-3.53046 0.25712 0)
(-3.63929 0.277858 -4.15712e-17)
(-3.68741 0.265336 0)
(-3.60924 0.195781 2.03382e-17)
(-3.4197 0.0743566 0)
(-3.07184 -0.117409 0)
(-2.48023 -0.242769 -3.9959e-17)
(-1.83385 -0.397704 0)
(-0.903873 -0.482853 1.96609e-17)
(-0.00368653 -0.585525 0)
(0.83448 -0.801768 0)
(1.92269 -1.07583 1.95434e-17)
(3.31763 -1.39014 1.93419e-17)
(4.81223 -1.06006 0)
(6.13152 -0.387514 -1.9006e-17)
(7.07753 -0.304015 0)
(8.02134 -0.626275 1.83402e-17)
(9.09821 -0.670235 3.67047e-17)
(9.57042 -0.431977 0)
(9.25732 -0.261248 0)
(8.77017 -0.114871 0)
(8.4382 0.194774 0)
(8.05515 0.190281 3.75671e-17)
(7.59524 0.311402 1.11081e-16)
(6.44543 0.69612 0)
(5.57539 0.546601 0)
(5.37188 0.273367 0)
(4.91485 0.122097 -3.67925e-17)
(4.90736 -0.169523 0)
(5.64016 -0.592886 0)
(6.12694 -0.806252 7.25869e-17)
(6.42978 -0.864289 3.6606e-17)
(8.65708 -2.39898 3.65377e-17)
(9.71739 -1.3668 0)
(10.8552 -1.84688 0)
(14.0869 -2.50974 3.53315e-17)
(14.9866 -1.13715 -3.44449e-17)
(16.432 -1.52522 0)
(17.5782 -0.938098 0)
(17.9883 -0.819964 -3.30748e-17)
(18.5814 -0.683381 9.77281e-17)
(18.7665 -0.422036 0)
(18.2312 -0.401891 0)
(17.744 -0.413799 3.11222e-17)
(16.9456 -0.300664 0)
(15.8383 -0.348008 6.08752e-17)
(14.9771 -0.483842 -3.00449e-17)
(13.8496 -0.393804 0)
(12.9982 -0.66274 2.9012e-17)
(12.4042 -0.649272 5.68494e-17)
(11.3101 -0.452592 0)
(10.4256 -0.810305 0)
(10.3031 -1.19793 -2.77175e-17)
(10.378 -1.41134 0)
(11.3467 -1.37069 5.36184e-17)
(10.5574 -0.643318 0)
(8.82216 -0.813717 0)
(9.37466 -1.15234 0)
(8.68535 -0.641085 0)
(7.09212 -0.695004 -2.30081e-17)
(6.66305 -0.928189 -2.21261e-17)
(6.60476 -1.51199 0)
(6.22014 -1.15856 0)
(3.99282 0.302137 0)
(-0.654214 1.3709 2.39755e-17)
(-5.43258 1.52276 0)
(-7.7837 -0.0622327 -4.43103e-17)
(-6.00556 -3.60595 4.33741e-17)
(-0.665473 -5.07227 4.3954e-17)
(1.84053 -2.94558 4.39014e-17)
(3.39937 -3.54305 4.37727e-17)
(6.46707 -2.3443 4.33996e-17)
(6.98071 -1.48587 0)
(0.222183 -0.931373 0)
(0.501022 -0.527661 0)
(0.808756 -0.82207 2.3182e-17)
(1.42795 -1.78788 2.32025e-17)
(2.24778 -2.95729 -2.30732e-17)
(3.15497 -3.87214 -2.29019e-17)
(4.04159 -4.43714 3.13228e-20)
(4.89046 -4.67565 0)
(5.69355 -4.6795 0)
(6.42549 -4.51548 0)
(7.12957 -4.2899 0)
(7.78378 -4.01126 0)
(8.34429 -3.729 6.52993e-17)
(8.89257 -3.35978 0)
(9.3581 -3.00024 -2.14192e-17)
(9.82766 -2.73011 -2.11608e-17)
(10.2206 -2.27339 0)
(10.5004 -2.05959 0)
(10.8982 -1.55179 0)
(11.0581 -1.1993 0)
(11.3364 -1.05353 -1.99578e-17)
(11.5141 -0.337519 0)
(11.5576 -0.574669 1.96792e-17)
(11.6097 0.0451178 0)
(11.6707 0.583405 0)
(11.5529 -0.0319654 0)
(11.2056 0.475498 3.8496e-17)
(11.2701 0.611895 0)
(11.0746 -0.230007 -1.91652e-17)
(10.57 -0.580804 3.78069e-17)
(10.544 -0.363655 0)
(10.5994 -0.445706 0)
(10.1916 -1.2377 0)
(9.8432 -2.1676 -1.77139e-17)
(10.148 -1.98164 -1.77701e-17)
(10.8929 -0.796288 0)
(11.5118 -0.718841 0)
(11.2666 -2.24054 3.46011e-17)
(10.8329 -2.99317 3.49145e-17)
(10.1403 -1.64911 -3.54437e-17)
(7.8095 0.300179 0)
(5.3036 1.23265 0)
(3.71623 1.70633 0)
(2.27224 1.96576 0)
(1.12256 2.04009 3.55309e-17)
(0.183048 2.11544 3.53547e-17)
(-0.620821 2.14556 -3.51391e-17)
(-1.22747 2.02801 0)
(-1.67342 1.84295 0)
(-2.05022 1.56871 0)
(-2.38603 1.26767 0)
(-2.64306 0.946465 3.40614e-17)
(-2.85291 0.63842 0)
(-2.98458 0.330266 0)
(-3.07729 0.0617037 3.34016e-17)
(-3.11784 -0.195836 3.31522e-17)
(-3.07654 -0.427366 0)
(-2.98306 -0.628447 -6.54581e-17)
(-2.81732 -0.817134 3.24814e-17)
(-2.62031 -0.991052 -3.22596e-17)
(-2.3562 -1.13267 0)
(-2.06959 -1.26345 0)
(-1.74849 -1.37317 0)
(-1.39837 -1.46439 0)
(-0.999338 -1.5398 -3.1161e-17)
(-0.592353 -1.58336 -6.19054e-17)
(-0.170331 -1.64241 -3.07126e-17)
(0.28113 -1.68188 3.04891e-17)
(0.761797 -1.70809 0)
(1.23472 -1.72333 -6.01405e-17)
(1.68107 -1.71079 -5.97235e-17)
(2.13868 -1.73253 -5.93005e-17)
(2.62572 -1.72632 5.88769e-17)
(3.04236 -1.65064 0)
(3.47586 -1.65122 8.7125e-17)
(3.8952 -1.68785 0)
(4.24267 -1.64545 -2.86247e-17)
(4.62804 -1.59347 -2.8414e-17)
(4.95257 -1.416 0)
(5.2147 -1.40038 0)
(5.53038 -1.40994 -5.57403e-17)
(5.58522 -1.20864 0)
(5.87531 -1.22856 -5.49344e-17)
(5.82654 -1.07552 0)
(5.93294 -1.03919 5.4029e-17)
(5.90021 -0.897875 1.07077e-16)
(5.84962 -0.826683 0)
(5.72509 -0.715082 0)
(5.51751 -0.572164 0)
(5.29759 -0.47593 5.16097e-17)
(4.95168 -0.345891 0)
(4.61855 -0.313051 5.06678e-17)
(4.16813 -0.249875 0)
(3.68002 -0.265376 0)
(3.14068 -0.306767 -9.92452e-17)
(2.50772 -0.313752 0)
(1.99684 -0.27733 -4.92578e-17)
(1.66248 -0.168444 0)
(1.32776 0.0294895 -4.80633e-17)
(0.932648 0.176242 0)
(0.41774 0.255139 0)
(-0.025081 0.256258 0)
(-0.437372 0.282375 -1.37069e-16)
(-0.873679 0.369918 -4.49602e-17)
(-1.26664 0.368193 0)
(-1.60295 0.335547 0)
(-1.87805 0.355183 0)
(-2.10825 0.421597 0)
(-2.12573 0.443483 4.21145e-17)
(-2.0397 0.433535 -8.27396e-17)
(-1.91007 0.36316 -4.07981e-17)
(-1.68378 0.190302 8.08338e-17)
(-1.52086 -0.123358 8.17865e-17)
(-1.13453 -0.378298 4.12869e-17)
(-0.484332 -0.61946 0)
(0.343454 -0.801856 8.1993e-17)
(1.36896 -0.761943 0)
(2.36917 -0.804086 -8.09993e-17)
(3.35865 -1.26167 -4.09181e-17)
(4.45121 -1.54419 0)
(5.34258 -1.35614 8.07989e-17)
(6.47345 -0.84234 3.89933e-17)
(7.70657 -0.766021 0)
(8.57635 -1.05541 3.6971e-17)
(9.23965 -0.81471 -1.10343e-16)
(9.14558 0.0146509 0)
(8.47663 0.682472 0)
(7.78608 0.77076 0)
(7.26627 0.760514 0)
(6.94131 0.854974 -7.52389e-17)
(6.30547 1.21345 -7.4241e-17)
(5.23738 1.43651 0)
(5.04177 0.867302 0)
(5.3264 0.474936 0)
(5.18701 0.100649 0)
(4.91819 -0.671946 0)
(6.13268 -1.17359 0)
(6.84836 -1.49507 -7.36693e-17)
(7.20704 -1.75947 4.23913e-20)
(9.27163 -3.67286 0)
(9.56179 -2.2558 0)
(11.0636 -3.56284 -7.24893e-17)
(14.0069 -4.57492 0)
(15.077 -1.99924 7.04016e-17)
(16.51 -2.9831 7.09348e-17)
(18.373 -1.78114 0)
(18.8133 -1.60992 0)
(19.782 -1.50727 -6.7526e-17)
(20.5208 -0.87509 -1.31695e-16)
(20.3963 -0.62829 0)
(20.4034 -0.622627 0)
(19.6674 -0.193292 0)
(18.3989 -0.152458 -6.02729e-17)
(17.4725 -0.390543 5.93758e-17)
(16.1046 -0.317522 0)
(14.894 -0.868464 1.15742e-16)
(13.7987 -1.11674 5.57243e-17)
(12.6039 -0.785288 -1.08175e-16)
(11.6649 -1.20112 0)
(10.7661 -1.89019 0)
(10.2923 -2.38748 -1.16775e-16)
(12.1097 -2.2753 -5.54586e-17)
(11.4496 -0.817978 0)
(9.32339 -1.39428 0)
(9.87426 -2.19616 0)
(9.73968 -1.03027 0)
(7.70098 -0.913375 -8.73991e-17)
(7.1692 -1.25427 0)
(6.29121 -1.87893 0)
(4.39609 -1.14191 0)
(1.56454 1.34608 0)
(-2.93202 2.67762 0)
(-6.04386 2.18653 0)
(-6.62052 -0.597538 -8.63447e-17)
(-3.71418 -5.91604 0)
(-1.51708 -7.61164 0)
(1.61518 -4.55857 -1.73054e-16)
(3.38598 -5.71791 8.93237e-17)
(5.96685 -4.14067 -8.85441e-17)
(7.45646 -3.13026 8.77729e-17)
(0.20671 -1.70321 0)
(0.546738 -1.24407 -4.72621e-17)
(1.13197 -2.0387 0)
(2.0478 -3.53345 -2.33138e-17)
(3.00004 -4.91464 0)
(3.89573 -5.77083 0)
(4.65636 -6.16398 2.2838e-17)
(5.32553 -6.17115 0)
(5.89977 -5.95442 0)
(6.45886 -5.65581 0)
(6.99432 -5.32583 0)
(7.47787 -4.98865 0)
(7.9493 -4.57737 -8.84977e-17)
(8.4178 -4.18117 -4.40377e-17)
(8.87316 -3.7846 4.36612e-17)
(9.21493 -3.37928 0)
(9.56377 -2.95683 0)
(9.8196 -2.54079 0)
(9.93458 -2.18201 0)
(10.1414 -1.76837 0)
(10.1163 -1.46529 -4.02571e-17)
(10.33 -1.07782 -3.9427e-17)
(10.6559 -0.510122 3.95697e-17)
(10.5206 -0.713992 -3.87862e-17)
(10.8608 -0.128273 0)
(11.0847 0.690941 0)
(10.9297 -0.173598 -3.80281e-17)
(10.8656 -0.113529 0)
(10.6944 0.469132 0)
(10.5325 -0.446986 -3.69305e-17)
(10.3878 -1.12909 -3.71499e-17)
(10.3058 -0.716276 -3.74418e-17)
(10.5959 -0.733067 0)
(10.8502 -2.017 0)
(10.71 -3.55056 3.57738e-17)
(10.5796 -3.5448 0)
(9.99293 -2.00108 0)
(8.15303 -0.180925 -3.59885e-17)
(6.02223 0.996797 3.62835e-17)
(4.31291 1.8269 -3.63929e-17)
(2.81864 2.40303 0)
(1.58201 2.59723 0)
(0.623963 2.73444 -7.22405e-17)
(-0.206552 2.72448 0)
(-0.810412 2.60686 -7.15258e-17)
(-1.27007 2.42644 -1.06641e-16)
(-1.63524 2.24522 1.06051e-16)
(-1.94796 1.99589 -7.03105e-17)
(-2.15428 1.70645 0)
(-2.31888 1.35967 0)
(-2.44353 1.01989 -6.89358e-17)
(-2.53852 0.658976 -3.41903e-17)
(-2.62143 0.311155 0)
(-2.64998 -0.0447861 0)
(-2.64605 -0.382996 -3.34695e-17)
(-2.58975 -0.685303 -6.65355e-17)
(-2.47757 -0.978513 0)
(-2.32002 -1.24555 6.55108e-17)
(-2.12971 -1.47074 -6.51096e-17)
(-1.87929 -1.66257 6.46476e-17)
(-1.57843 -1.83655 0)
(-1.24001 -1.97715 0)
(-0.871585 -2.11702 0)
(-0.477967 -2.21043 0)
(-0.0480708 -2.30193 0)
(0.393296 -2.336 6.18917e-17)
(0.827424 -2.4185 0)
(1.26026 -2.47229 0)
(1.72336 -2.53075 0)
(2.21672 -2.53019 1.20192e-16)
(2.68014 -2.47192 5.96497e-17)
(3.1273 -2.50185 5.92149e-17)
(3.59829 -2.48551 -1.17481e-16)
(3.97856 -2.37853 5.83245e-17)
(4.38448 -2.35954 -5.79076e-17)
(4.79601 -2.37988 0)
(5.02374 -2.28632 5.70832e-17)
(5.34528 -2.27517 0)
(5.57712 -2.09968 0)
(5.85061 -2.03052 0)
(6.05228 -1.96149 1.1146e-16)
(6.17269 -1.78697 -5.54106e-17)
(6.36518 -1.75937 -5.50216e-17)
(6.38294 -1.54564 -1.09284e-16)
(6.44089 -1.51734 -1.62934e-16)
(6.38452 -1.34999 -5.38878e-17)
(6.33973 -1.26527 0)
(6.18819 -1.10367 -1.05991e-16)
(5.99443 -0.938773 0)
(5.75835 -0.846889 -1.56005e-16)
(5.39025 -0.707726 0)
(5.07544 -0.661032 -1.53143e-16)
(4.67736 -0.51463 0)
(4.26536 -0.417384 0)
(3.85301 -0.297752 -4.94739e-17)
(3.19879 -0.268105 0)
(2.42995 -0.478097 4.92916e-17)
(1.81596 -0.520625 9.75389e-17)
(1.44457 -0.34507 4.80085e-17)
(1.09845 -0.0568029 9.49152e-17)
(0.639295 0.114518 -9.41961e-17)
(0.289965 0.105791 -9.35826e-17)
(0.0295538 0.197513 1.85508e-16)
(-0.247919 0.37731 0)
(-0.58169 0.414481 0)
(-0.829032 0.404203 8.89256e-17)
(-1.01386 0.442419 -8.79669e-17)
(-1.1176 0.43823 0)
(-0.992864 0.302603 0)
(-0.812674 0.306737 8.43656e-17)
(-0.693145 0.288059 0)
(-0.470768 0.220649 -4.35657e-20)
(-0.43506 -0.0528813 -3.88224e-20)
(-0.423384 -0.415546 8.57195e-17)
(0.0348327 -0.818538 0)
(0.546173 -1.15141 -8.66252e-17)
(1.43836 -1.37217 0)
(2.453 -1.51964 8.4486e-17)
(3.5172 -1.86762 0)
(4.66959 -2.20875 0)
(5.91702 -1.9132 -8.38805e-17)
(6.96713 -1.47981 -8.05781e-17)
(8.09751 -1.26524 0)
(8.68949 -1.22293 -7.4914e-17)
(8.79596 -0.511055 1.4835e-16)
(8.35699 0.61026 0)
(7.92918 1.00326 0)
(7.29445 1.02282 0)
(6.76094 1.00348 0)
(6.46397 0.915393 7.53914e-17)
(5.9351 1.47968 -1.48782e-16)
(5.26383 1.53538 0)
(5.24646 0.356831 0)
(5.89416 0.0337794 0)
(6.64627 -0.00127919 0)
(6.56519 -1.12986 0)
(6.70831 -2.08517 0)
(8.70854 -2.42602 0)
(8.28659 -2.61556 7.25256e-17)
(10.3667 -4.7488 0)
(10.6821 -3.42625 0)
(12.1216 -4.88487 7.16613e-17)
(14.0117 -6.53339 0)
(15.3204 -3.13749 0)
(16.0927 -4.81802 -7.12785e-17)
(18.6905 -3.11411 0)
(18.8926 -2.81187 0)
(19.9592 -2.7437 1.38092e-16)