/*--------------------------------*- C++ -*----------------------------------*\
| =========                 |                                                 |
| \\      /  F ield         | OpenFOAM: The Open Source CFD Toolbox           |
|  \\    /   O peration     | Version:  dev                                   |
|   \\  /    A nd           | Web:      http://www.openfoam.org               |
|    \\/     M anipulation  |                                                 |
\*---------------------------------------------------------------------------*/
FoamFile
{
    version     2.0;
    format      ascii;
    class       volVectorField;
    object      U_0;
    location    "9.164";
}
// * * * * * * * * * * * * * * * * * * * * * * * * * * * * * * * * * * * * * //

dimensions      [0 1 -1 0 0 0 0];

internalField   nonuniform List<vector> 
12225
(
(6.2428 0.655744 0)
(2.47944 0.381359 0)
(-0.409284 0.240683 0)
(-1.39755 0.187467 0)
(-3.59173 0.245288 0)
(-3.6576 0.158945 0)
(-6.06838 0.277484 0)
(-5.66215 0.151097 0)
(-8.30613 0.330676 0)
(-7.49228 0.0911997 0)
(-10.3343 0.429143 0)
(-9.13449 0.0707473 0)
(-12.2832 0.526727 0)
(-11.088 0.038322 0)
(-13.0992 0.268943 0)
(-10.7299 -0.0881838 0)
(-3.25728 -0.450191 0)
(-18.1298 11.2214 0)
(8.64307 1.7433 0)
(7.69325 1.42835 0)
(3.70988 1.09788 0)
(3.87082 0.84396 0)
(-0.802997 0.846159 0)
(0.983455 0.702066 0)
(-4.4593 0.857337 0)
(-1.21219 0.617821 0)
(-7.6727 1.02981 0)
(-2.91488 0.42988 0)
(-10.2134 1.1969 0)
(-4.26481 0.325497 0)
(-12.3209 1.54701 0)
(-5.90015 -0.228428 0)
(-13.7617 2.07758 0)
(-8.77494 -1.98546 0)
(-17.3464 -0.838466 0)
(-26.0815 5.38319 0)
(7.94056 2.07951 0)
(10.4994 1.96358 0)
(5.27351 1.76977 0)
(8.21122 1.5473 0)
(1.50935 1.5344 0)
(5.74689 1.44844 0)
(-2.12113 1.48323 0)
(3.68201 1.33585 0)
(-5.38233 1.67263 0)
(1.78118 0.872173 0)
(-7.47336 1.9598 0)
(-0.231332 0.623912 0)
(-8.88418 2.39252 0)
(-3.14018 0.54418 0)
(-10.5539 3.22455 0)
(-6.53557 0.167066 0)
(-15.4626 3.81262 0)
(-23.4431 1.70422 0)
(5.9744 2.64528 0)
(12.1129 2.3563 0)
(5.31413 2.35665 0)
(10.1958 2.09793 0)
(3.13817 2.25679 0)
(7.93852 2.03371 0)
(0.843014 2.26694 0)
(5.5648 1.9003 0)
(-1.32043 2.52462 0)
(3.13533 1.35424 0)
(-3.4606 2.98349 0)
(0.298656 1.00551 0)
(-5.70634 3.83197 0)
(-2.68595 0.666427 0)
(-8.52029 4.97597 0)
(-6.56307 -0.0436599 0)
(-11.4358 5.79228 0)
(-22.8762 9.31047 0)
(6.45737 3.44898 0)
(10.513 2.3824 0)
(6.30323 3.0656 0)
(8.52944 2.39146 0)
(4.74621 3.09144 0)
(6.25783 2.31221 0)
(3.01678 3.20369 0)
(3.78493 2.2045 0)
(1.05216 3.46884 0)
(1.72098 2.04289 0)
(-1.14169 3.97813 0)
(-1.10778 1.81127 0)
(-3.45265 5.05145 0)
(-3.81896 1.59366 0)
(-6.28221 7.13017 0)
(-6.6587 -0.125105 0)
(-9.25114 11.0726 0)
(-14.5989 8.4943 0)
(8.73328 4.40145 0)
(7.86151 2.61351 0)
(6.9718 3.79529 0)
(6.10743 2.78871 0)
(5.3959 3.96089 0)
(4.23144 2.76585 0)
(3.46241 4.1836 0)
(1.97075 2.69033 0)
(1.3628 4.39155 0)
(0.216082 2.71098 0)
(-0.53039 5.08568 0)
(-1.94545 2.28729 0)
(-2.40737 6.29682 0)
(-3.9705 2.44567 0)
(-4.21055 7.991 0)
(-5.53823 3.04881 0)
(-9.08503 12.4919 0)
(-5.55917 10.2431 0)
(9.2131 5.38778 0)
(7.95916 3.18774 0)
(7.23704 4.75459 0)
(6.09328 3.12389 0)
(5.6412 4.87661 0)
(4.36524 3.18002 0)
(3.713 5.28437 0)
(2.44302 3.18318 0)
(1.60784 5.48921 0)
(0.54365 3.30042 0)
(-0.0897045 6.2199 0)
(-1.17624 3.08832 0)
(-2.04637 7.35067 0)
(-2.77482 3.5588 0)
(-3.7511 8.66891 0)
(-4.20326 4.5062 0)
(-7.44141 11.018 0)
(-3.67658 9.60535 0)
(9.26705 6.07558 0)
(8.07387 3.56693 0)
(7.53185 5.47699 0)
(6.19035 3.55719 0)
(5.67824 5.60493 0)
(4.26042 3.68003 0)
(3.75649 5.9923 0)
(2.51926 3.81091 0)
(1.87955 6.19638 0)
(0.684049 4.05843 0)
(0.219604 6.70277 0)
(-0.849433 4.2812 0)
(-1.76986 7.50303 0)
(-2.36867 4.96493 0)
(-3.56175 8.75895 0)
(-3.72873 6.41168 0)
(-5.66889 10.7821 0)
(-3.71225 11.3046 0)
(8.9769 6.79778 0)
(8.08884 3.93421 0)
(7.52767 6.10031 0)
(6.46039 4.04478 0)
(5.71348 6.25236 0)
(4.55929 4.22937 0)
(3.86453 6.60347 0)
(2.86034 4.38378 0)
(1.98602 6.83249 0)
(0.958158 4.63654 0)
(0.0901442 7.33672 0)
(-0.592668 5.12851 0)
(-1.90065 8.05867 0)
(-2.09524 5.82955 0)
(-3.51099 9.19281 0)
(-3.30416 7.71944 0)
(-4.72887 10.9781 0)
(-3.38793 11.4435 0)
(9.53854 7.47891 0)
(8.45412 4.51653 0)
(7.52469 6.70178 0)
(6.41941 4.71754 0)
(5.55436 6.82218 0)
(4.5659 4.93159 0)
(3.78379 7.11299 0)
(2.95191 5.24045 0)
(1.95124 7.3468 0)
(1.14767 5.64689 0)
(0.097637 7.90767 0)
(-0.332756 6.29678 0)
(-1.60972 8.44362 0)
(-1.64351 7.25978 0)
(-2.84701 9.42219 0)
(-2.71063 8.99826 0)
(-3.40139 10.8175 0)
(-2.76894 11.7757 0)
(9.52617 8.2192 0)
(8.19905 5.3123 0)
(7.50173 7.32554 0)
(6.30727 5.53012 0)
(5.58812 7.34148 0)
(4.46151 5.76181 0)
(3.77194 7.60566 0)
(2.83985 6.07371 0)
(2.04957 7.9148 0)
(1.25885 6.59071 0)
(0.43098 8.45163 0)
(-0.0890025 7.29131 0)
(-1.03265 9.00008 0)
(-1.20814 8.38343 0)
(-2.03082 9.86404 0)
(-2.05594 9.95712 0)
(-2.30008 11.1457 0)
(-1.9464 12.0005 0)
(9.23329 8.98949 0)
(8.26034 6.18547 0)
(7.3954 7.75112 0)
(6.38167 6.48617 0)
(5.51504 7.8743 0)
(4.47951 6.77994 0)
(3.71865 8.13158 0)
(2.8492 7.16337 0)
(2.07912 8.47725 0)
(1.32347 7.72532 0)
(0.598944 8.98078 0)
(0.0704109 8.45693 0)
(-0.637044 9.56994 0)
(-0.911433 9.48656 0)
(-1.43104 10.353 0)
(-1.50106 10.7669 0)
(-1.53279 11.5103 0)
(-1.27344 12.2247 0)
(9.2673 9.75538 0)
(8.42981 7.15182 0)
(7.37296 8.30528 0)
(6.43368 7.57221 0)
(5.47475 8.47873 0)
(4.58356 7.87199 0)
(3.72855 8.65942 0)
(2.90349 8.18146 0)
(2.13089 8.93318 0)
(1.46169 8.67798 0)
(0.813535 9.43968 0)
(0.309465 9.40416 0)
(-0.20715 10.1205 0)
(-0.493806 10.3694 0)
(-0.779 10.9294 0)
(-0.906576 11.43 0)
(-0.837412 11.9502 0)
(-0.581194 12.5146 0)
(9.47906 10.5773 0)
(8.50142 8.23175 0)
(7.34068 8.74936 0)
(6.34346 8.54267 0)
(5.45194 8.94702 0)
(4.63689 8.79184 0)
(3.87386 9.15474 0)
(3.11252 9.12258 0)
(2.35237 9.53883 0)
(1.66341 9.64815 0)
(0.995714 10.0796 0)
(0.467586 10.2659 0)
(0.0498181 10.6695 0)
(-0.243816 11.0063 0)
(-0.426847 11.4268 0)
(-0.49539 11.8369 0)
(-0.422693 12.2817 0)
(-0.14399 12.6977 0)
(9.40417 11.3581 0)
(8.4921 9.25479 0)
(7.53489 9.33315 0)
(6.57489 9.34942 0)
(5.63709 9.4532 0)
(4.77306 9.49199 0)
(3.92506 9.70131 0)
(3.17029 9.87865 0)
(2.4489 10.1831 0)
(1.83512 10.4311 0)
(1.29594 10.6926 0)
(0.861588 10.9418 0)
(0.488579 11.2048 0)
(0.21964 11.5147 0)
(0.0224477 11.8174 0)
(-0.0459289 12.1398 0)
(-0.0511342 12.4509 0)
(0.144123 12.8104 0)
(9.09296 11.6689 0)
(8.35763 9.6751 0)
(7.49069 9.70917 0)
(6.57295 9.86344 0)
(5.64702 10.0096 0)
(4.77395 10.124 0)
(3.9261 10.2692 0)
(3.22206 10.4069 0)
(2.56507 10.578 0)
(2.04655 10.7734 0)
(1.57401 11.0129 0)
(1.19475 11.2543 0)
(0.856833 11.5206 0)
(0.621744 11.7908 0)
(0.458214 12.0554 0)
(0.418463 12.3224 0)
(0.410284 12.5365 0)
(0.594371 12.769 0)
(9.45793 12.1349 0)
(8.43514 9.92539 0)
(7.47017 9.94241 0)
(6.58514 10.116 0)
(5.7526 10.2504 0)
(4.97716 10.3523 0)
(4.20666 10.4522 0)
(3.53655 10.5692 0)
(2.89066 10.7292 0)
(2.36062 10.9194 0)
(1.87936 11.1418 0)
(1.52222 11.3625 0)
(1.20672 11.5793 0)
(1.01428 11.7614 0)
(0.869315 11.9233 0)
(0.852028 12.0616 0)
(0.868462 12.1868 0)
(1.03306 12.3202 0)
(9.41419 12.0488 0)
(8.46936 9.89246 0)
(7.47733 9.74016 0)
(6.5929 9.81414 0)
(5.7785 9.94454 0)
(5.01976 10.0803 0)
(4.26422 10.2018 0)
(3.59849 10.3085 0)
(3.00465 10.4217 0)
(2.5334 10.5421 0)
(2.12703 10.6806 0)
(1.83847 10.8413 0)
(1.58043 10.9938 0)
(1.42613 11.1383 0)
(1.27724 11.2438 0)
(1.21447 11.3411 0)
(1.18555 11.4316 0)
(1.26146 11.515 0)
(9.41114 10.9818 0)
(8.64818 9.06555 0)
(7.73523 8.99984 0)
(6.86498 9.12142 0)
(6.04174 9.29545 0)
(5.29418 9.4682 0)
(4.56789 9.57816 0)
(3.92114 9.60783 0)
(3.33721 9.64037 0)
(2.86463 9.69104 0)
(2.44857 9.77704 0)
(2.15284 9.90971 0)
(1.8884 10.0438 0)
(1.71976 10.2066 0)
(1.5746 10.3304 0)
(1.48847 10.4205 0)
(1.42934 10.4947 0)
(1.44862 10.5751 0)
(9.69563 10.3442 0)
(8.8107 8.35609 0)
(7.77367 8.2029 0)
(6.8089 8.27738 0)
(5.99721 8.38597 0)
(5.29932 8.50563 0)
(4.65945 8.60197 0)
(4.08891 8.64305 0)
(3.53705 8.66617 0)
(3.06426 8.68137 0)
(2.63005 8.72663 0)
(2.28357 8.80856 0)
(1.98727 8.90353 0)
(1.7651 9.03489 0)
(1.59694 9.12665 0)
(1.48777 9.2519 0)
(1.42495 9.30255 0)
(1.41651 9.36647 0)
(9.72632 8.94201 0)
(8.96477 7.27853 0)
(8.02776 7.12799 0)
(7.15089 7.14935 0)
(6.36132 7.22807 0)
(5.63912 7.35049 0)
(4.97452 7.42976 0)
(4.34791 7.48606 0)
(3.77992 7.52949 0)
(3.28117 7.5462 0)
(2.80475 7.6115 0)
(2.44334 7.67871 0)
(2.10309 7.77299 0)
(1.87971 7.89794 0)
(1.69544 7.95434 0)
(1.58082 8.04571 0)
(1.53907 8.07235 0)
(1.53132 8.13691 0)
(9.58316 7.82093 0)
(8.94195 6.28818 0)
(8.09277 6.07054 0)
(7.25553 6.07505 0)
(6.42848 6.16209 0)
(5.66023 6.26969 0)
(4.97583 6.37422 0)
(4.35428 6.43772 0)
(3.82082 6.45997 0)
(3.36054 6.49072 0)
(2.93232 6.51174 0)
(2.59882 6.55972 0)
(2.28661 6.61169 0)
(2.06132 6.6653 0)
(1.87201 6.71976 0)
(1.75715 6.75525 0)
(1.6699 6.76862 0)
(1.64217 6.79676 0)
(9.52325 6.38713 0)
(8.95822 5.05572 0)
(8.15683 4.92848 0)
(7.36422 4.98911 0)
(6.59587 5.11262 0)
(5.88702 5.22767 0)
(5.21067 5.28347 0)
(4.61578 5.31315 0)
(4.08688 5.30173 0)
(3.61095 5.32598 0)
(3.21243 5.34636 0)
(2.83826 5.40809 0)
(2.5418 5.47347 0)
(2.28628 5.53935 0)
(2.0785 5.59057 0)
(1.94535 5.61909 0)
(1.81853 5.64907 0)
(1.78527 5.69594 0)
(9.78738 5.23859 0)
(9.13863 4.12474 0)
(8.30004 3.95308 0)
(7.44059 3.95611 0)
(6.66059 4.05916 0)
(6.01479 4.17802 0)
(5.41664 4.26637 0)
(4.88843 4.3009 0)
(4.37195 4.31531 0)
(3.89975 4.3319 0)
(3.46332 4.35775 0)
(3.06883 4.4099 0)
(2.75044 4.4532 0)
(2.47221 4.49915 0)
(2.27323 4.53545 0)
(2.10364 4.55909 0)
(1.9862 4.56129 0)
(1.92397 4.58447 0)
(9.68878 4.06058 0)
(9.18719 3.05462 0)
(8.42265 2.91997 0)
(7.60137 2.97411 0)
(6.82702 3.05764 0)
(6.13014 3.15218 0)
(5.50214 3.21966 0)
(4.95367 3.27739 0)
(4.43546 3.31903 0)
(3.9737 3.36327 0)
(3.54374 3.40429 0)
(3.16284 3.45042 0)
(2.83661 3.49211 0)
(2.56334 3.53289 0)
(2.3484 3.56198 0)
(2.17679 3.58337 0)
(2.05407 3.60066 0)
(1.97591 3.63816 0)
(9.6609 3.10046 0)
(9.34216 2.30995 0)
(8.74504 2.16049 0)
(8.04375 2.16691 0)
(7.26134 2.23339 0)
(6.46635 2.3119 0)
(5.71564 2.38264 0)
(5.05108 2.42831 0)
(4.48175 2.46233 0)
(3.9875 2.51031 0)
(3.55884 2.55149 0)
(3.18297 2.61222 0)
(2.85715 2.64985 0)
(2.5839 2.67258 0)
(2.35979 2.71592 0)
(2.1774 2.71306 0)
(2.03674 2.72986 0)
(1.94869 2.7483 0)
(9.4269 1.86592 0)
(9.33222 1.20919 0)
(8.89522 1.17613 0)
(8.18667 1.28108 0)
(7.3361 1.4447 0)
(6.49407 1.57687 0)
(5.69735 1.64993 0)
(4.96676 1.6789 0)
(4.28377 1.69722 0)
(3.66864 1.72868 0)
(3.11128 1.76606 0)
(2.6274 1.81634 0)
(2.2151 1.85295 0)
(1.8729 1.88002 0)
(1.5876 1.9121 0)
(1.35031 1.92602 0)
(1.16893 1.94155 0)
(1.02195 1.97052 0)
(9.69099 1.14487 0)
(9.47193 0.462105 0)
(8.70798 0.507256 0)
(7.60811 0.658713 0)
(6.4438 0.822371 0)
(5.35687 0.955362 0)
(4.3698 1.02924 0)
(3.46266 1.07534 0)
(2.62299 1.11548 0)
(1.86498 1.16084 0)
(1.18982 1.19857 0)
(0.609726 1.23633 0)
(0.122112 1.25871 0)
(-0.295517 1.27252 0)
(-0.637642 1.28901 0)
(-0.929967 1.31309 0)
(-1.16967 1.31266 0)
(-1.36234 1.33172 0)
(9.85439 0.102279 0)
(8.96678 -0.299957 0)
(7.27511 -0.103985 0)
(5.40542 0.153904 0)
(3.70876 0.361099 0)
(2.27695 0.51456 0)
(1.05161 0.60235 0)
(-0.00231458 0.646936 0)
(-0.91096 0.671469 0)
(-1.68905 0.69035 0)
(-2.35493 0.704899 0)
(-2.92071 0.714795 0)
(-3.38965 0.728425 0)
(-3.79051 0.737857 0)
(-4.11906 0.749302 0)
(-4.38985 0.762369 0)
(-4.59474 0.760615 0)
(-4.7669 0.763958 0)
(8.08564 -0.0988084 0)
(4.95569 -0.120081 0)
(2.18971 0.10117 0)
(0.109521 0.221588 0)
(-1.38015 0.254889 0)
(-2.49555 0.260053 0)
(-3.40597 0.251085 0)
(-4.17845 0.242515 0)
(-4.85591 0.236262 0)
(-5.45961 0.233825 0)
(-5.98971 0.233963 0)
(-6.44859 0.234867 0)
(-6.83283 0.23938 0)
(-7.15977 0.243042 0)
(-7.43401 0.24434 0)
(-7.6532 0.248033 0)
(-7.8127 0.238397 0)
(-7.9756 0.26445 0)
(0.0618748 0.246661 0)
(0.0951943 0.285235 0)
(0.121395 0.238839 0)
(0.254467 0.0820088 0)
(0.62949 -0.176192 0)
(1.24405 -0.400605 0)
(2.03567 -0.553101 1.12196e-17)
(2.9282 -0.632757 -1.11413e-17)
(3.88263 -0.665187 0)
(4.83792 -0.655965 -1.0977e-17)
(5.78285 -0.634696 0)
(6.69852 -0.572911 0)
(7.55169 -0.489838 0)
(8.32394 -0.410252 1.06452e-17)
(9.01115 -0.327278 0)
(9.59764 -0.231166 0)
(10.1204 -0.114185 -1.03973e-17)
(10.5074 -0.0319237 0)
(10.7901 0.0999875 0)
(10.986 0.158315 0)
(10.9929 0.231224 1.00962e-17)
(10.9975 0.344076 0)
(10.8638 0.324471 9.94954e-18)
(10.6687 0.429191 0)
(10.5048 0.373837 0)
(10.1782 0.346043 9.71659e-18)
(9.93784 0.374062 0)
(9.75699 0.238552 -9.63444e-18)
(9.59255 0.109661 0)
(9.51249 0.0157206 9.62137e-18)
(9.44984 -0.095048 0)
(9.44382 -0.14943 0)
(9.60898 -0.120191 0)
(9.83234 -0.0987415 0)
(9.91463 -0.183424 0)
(9.95048 -0.175477 -9.16985e-18)
(10.0485 -0.0196022 0)
(10.1208 0.171802 1.82291e-17)
(9.75036 0.46331 0)
(9.29516 0.685104 -1.78486e-17)
(9.47023 0.424656 0)
(10.0988 0.0238882 0)
(10.741 -1.01835 1.76044e-17)
(11.0227 -2.13289 0)
(11.1974 -2.3547 1.75161e-17)
(11.4322 -1.41978 -1.7421e-17)
(10.9088 0.0566291 0)
(9.5745 0.8142 -1.73744e-17)
(8.29421 0.854452 -1.72644e-17)
(7.18661 0.783237 0)
(6.17983 0.713633 0)
(5.25457 0.638858 0)
(4.46125 0.562573 0)
(3.75796 0.486041 0)
(3.14711 0.419043 1.65457e-17)
(2.64514 0.339745 0)
(2.23413 0.280874 -1.63157e-17)
(1.91842 0.231212 0)
(1.68515 0.176337 0)
(1.53531 0.131086 1.59785e-17)
(1.43858 0.0895856 0)
(1.39987 0.0581201 -1.5758e-17)
(1.42738 0.0282543 0)
(1.49679 -0.0039532 0)
(1.58846 -0.0410897 0)
(1.75184 -0.0503655 1.53246e-17)
(1.96738 -0.068511 0)
(2.18067 -0.0909355 0)
(2.40098 -0.109393 1.50053e-17)
(2.64404 -0.118821 0)
(2.90997 -0.129805 1.4795e-17)
(3.17621 -0.149591 0)
(3.44509 -0.164594 0)
(3.70823 -0.164634 0)
(3.95008 -0.167206 -1.43758e-17)
(4.20436 -0.177127 0)
(4.46003 -0.194707 0)
(4.6896 -0.200584 -1.4062e-17)
(4.85283 -0.182031 -1.39589e-17)
(4.97447 -0.176561 0)
(5.10893 -0.205388 -1.37492e-17)
(5.15607 -0.174052 0)
(5.17193 -0.189705 -2.70805e-17)
(5.13612 -0.16956 0)
(5.02603 -0.164798 -2.66581e-17)
(4.83973 -0.154246 0)
(4.59322 -0.150587 2.62595e-17)
(4.30448 -0.134315 0)
(3.92691 -0.131034 0)
(3.4782 -0.121871 0)
(2.96494 -0.109959 -2.5508e-17)
(2.45081 -0.0909566 0)
(1.88066 -0.104148 2.51377e-17)
(1.27254 -0.0903756 0)
(0.667367 -0.09973 -2.47388e-17)
(0.0270487 -0.1034 -2.45293e-17)
(-0.614504 -0.101051 -2.43139e-17)
(-1.27013 -0.104058 0)
(-1.93192 -0.117286 0)
(-2.57993 -0.123245 0)
(-3.21005 -0.120053 0)
(-3.75627 -0.127053 0)
(-4.24125 -0.120502 0)
(-4.69312 -0.0990773 0)
(-5.08889 -0.094266 0)
(-5.38429 -0.0702753 2.23577e-17)
(-5.60298 -0.0416477 2.21212e-17)
(-5.81691 0.0245261 0)
(-5.98415 0.0642938 0)
(-6.10179 0.107326 0)
(-6.11663 0.103528 2.11793e-17)
(-5.97157 0.0794686 0)
(-5.629 0.00742194 0)
(-5.10212 -0.0465614 0)
(-4.41241 -0.0776563 0)
(-3.57937 -0.103139 -2.02011e-17)
(-2.60482 -0.1192 0)
(-1.53093 -0.0855905 0)
(-0.348071 -0.106627 1.97499e-17)
(1.24485 -0.108365 -1.96803e-17)
(2.75305 0.1307 0)
(3.54601 0.183668 -1.9814e-17)
(4.06137 -0.0090008 0)
(4.91308 -0.146924 1.93773e-17)
(5.97634 -0.221725 0)
(6.9446 -0.261093 0)
(7.65304 -0.183615 0)
(8.09812 -0.0504145 0)
(8.31239 0.0429463 0)
(8.09732 0.162626 -3.80349e-17)
(7.98706 0.132928 -3.78605e-17)
(7.5267 0.170223 0)
(6.68816 0.255909 0)
(6.24171 0.217458 0)
(5.76075 0.163211 3.68149e-17)
(5.3453 0.135283 0)
(5.48076 0.0138205 0)
(5.82654 -0.0499969 0)
(5.64648 0.0568249 3.59913e-17)
(7.15565 -0.414802 -3.58412e-17)
(8.47662 -0.156501 0)
(9.11584 -0.204781 0)
(11.2082 -0.327977 -3.46876e-17)
(11.866 0.0305868 -3.42933e-17)
(12.566 -0.0799674 0)
(12.967 0.0983763 0)
(12.882 0.0866036 3.33877e-17)
(12.9567 0.118441 -3.31042e-17)
(12.711 0.0737656 0)
(12.2414 0.010353 0)
(12.0551 -0.00166745 -3.21912e-17)
(11.7018 0.00725709 0)
(11.2115 0.0627056 0)
(10.9153 0.0668706 -3.11986e-17)
(10.4191 0.0694366 0)
(9.95237 -0.00274728 -3.04457e-17)
(9.5996 0.0373057 0)
(8.8244 0.187618 0)
(8.08956 0.149171 0)
(7.85989 0.0720384 2.90618e-17)
(7.63133 0.143409 0)
(7.78094 0.0829114 0)
(7.24287 0.102367 0)
(6.23171 0.0617763 0)
(6.56548 -0.0319709 0)
(6.20045 0.131451 0)
(5.41187 0.264699 2.61583e-17)
(5.01782 0.297581 2.56191e-17)
(5.02812 -0.123239 0)
(6.27636 -0.444799 0)
(6.33346 0.0398447 0)
(3.93394 0.917756 -2.66355e-17)
(-0.712752 1.25896 0)
(-4.85172 0.937297 4.94254e-17)
(-4.83186 -0.271312 -4.80764e-17)
(0.746107 -1.01395 -4.74567e-17)
(3.38677 -0.436775 4.8472e-17)
(5.00329 -0.347047 -4.78969e-17)
(6.52654 0.213414 4.90099e-17)
(4.86903 0.291858 0)
(0.185084 0.440065 0)
(0.358369 0.618821 0)
(0.534802 0.447411 -2.29062e-17)
(0.881017 -0.0377761 0)
(1.48691 -0.77243 2.29146e-17)
(2.2782 -1.42107 2.28103e-17)
(3.19135 -1.86432 1.13419e-17)
(4.15801 -2.09564 1.12332e-17)
(5.13899 -2.16581 0)
(6.07087 -2.10173 1.10514e-17)
(6.97091 -2.03525 0)
(7.81901 -1.89672 0)
(8.61661 -1.65325 -2.1625e-17)
(9.35379 -1.44929 -1.0713e-17)
(9.97808 -1.21729 2.1234e-17)
(10.58 -0.96968 2.10745e-17)
(11.0979 -0.815592 1.03977e-17)
(11.5047 -0.40807 0)
(11.9386 -0.26637 0)
(12.1399 0.0587179 0)
(12.3755 0.369001 1.01217e-17)
(12.4484 0.344214 0)
(12.4064 0.884982 -2.98336e-17)
(12.5214 0.736233 0)
(12.1483 0.802573 0)
(11.9935 1.15972 -9.73451e-18)
(11.9521 0.713006 0)
(11.4478 0.712302 9.57264e-18)
(11.1751 0.710472 1.88543e-17)
(11.1908 0.297236 -9.29991e-18)
(11.0531 0.260199 0)
(10.7385 0.130725 0)
(10.5892 -0.477238 0)
(10.9077 -0.585053 1.79767e-17)
(11.3528 -0.0240265 1.80353e-17)
(11.1348 0.0989697 8.95627e-18)
(10.7271 -0.177806 0)
(10.7975 -0.136821 -1.72688e-17)
(11.4742 0.428072 0)
(12.1964 -0.0999903 1.76987e-17)
(12.1252 -2.12998 0)
(11.6913 -2.43401 0)
(10.8766 -0.551654 -1.75185e-17)
(8.65911 1.03564 0)
(6.24297 1.57443 -5.33179e-17)
(4.79236 1.92407 1.7649e-17)
(3.72443 2.16851 0)
(2.71744 2.14291 1.74143e-17)
(1.83819 2.02206 1.72904e-17)
(1.08325 1.83417 0)
(0.382784 1.61754 0)
(-0.212748 1.38163 0)
(-0.725047 1.14483 0)
(-1.15891 0.922028 0)
(-1.48812 0.720367 -1.65935e-17)
(-1.73302 0.52762 -3.29799e-17)
(-1.8809 0.352542 1.63686e-17)
(-1.97849 0.194031 0)
(-1.98511 0.0365401 -3.23095e-17)
(-1.92801 -0.102727 1.6052e-17)
(-1.81125 -0.221364 0)
(-1.64503 -0.326624 1.58166e-17)
(-1.43392 -0.418704 0)
(-1.1914 -0.508025 0)
(-0.897669 -0.580831 3.09873e-17)
(-0.547302 -0.614279 -1.53784e-17)
(-0.190395 -0.674121 3.05469e-17)
(0.182927 -0.732119 -3.03291e-17)
(0.57514 -0.768365 -1.50536e-17)
(0.972262 -0.804714 0)
(1.36581 -0.835098 -1.48426e-17)
(1.77578 -0.86974 0)
(2.19728 -0.884274 0)
(2.57847 -0.867275 0)
(2.94616 -0.900698 -1.44214e-17)
(3.33146 -0.947479 0)
(3.70312 -0.953801 -2.84087e-17)
(4.04629 -0.922885 4.22959e-17)
(4.30714 -0.84371 1.39977e-17)
(4.52032 -0.871924 0)
(4.78266 -0.91482 1.3782e-17)
(4.85268 -0.796016 0)
(5.02604 -0.844204 2.71294e-17)
(5.01302 -0.754281 0)
(5.03833 -0.729704 2.66285e-17)
(4.94223 -0.662888 -5.2756e-17)
(4.81581 -0.63854 -2.61647e-17)
(4.62077 -0.590405 0)
(4.31917 -0.540673 0)
(3.98867 -0.518747 0)
(3.54449 -0.492412 2.53449e-17)
(3.07941 -0.493151 0)
(2.54616 -0.523878 -2.50397e-17)
(2.00894 -0.513427 0)
(1.46847 -0.508884 7.41839e-17)
(0.947642 -0.467308 2.45523e-17)
(0.467238 -0.422444 2.43067e-17)
(-0.0453206 -0.363091 0)
(-0.617341 -0.299385 0)
(-1.24588 -0.268769 0)
(-1.92558 -0.250832 0)
(-2.52765 -0.287851 0)
(-3.11293 -0.263477 4.52194e-17)
(-3.67183 -0.175995 4.4654e-17)
(-4.15078 -0.178639 0)
(-4.54043 -0.193539 -2.18127e-17)
(-4.81946 -0.159245 -2.15068e-17)
(-5.03039 -0.0794911 0)
(-5.12994 -0.0395572 -4.1571e-17)
(-5.17033 -0.0259197 0)
(-5.06938 -0.0656875 2.03373e-17)
(-4.84389 -0.165744 0)
(-4.45389 -0.341298 0)
(-3.80202 -0.445465 -3.99756e-17)
(-3.09216 -0.573581 0)
(-2.09065 -0.630789 1.96758e-17)
(-1.12686 -0.710627 0)
(-0.226759 -0.909724 0)
(0.929021 -1.16441 1.95521e-17)
(2.3946 -1.45259 1.93518e-17)
(3.94849 -1.0866 0)
(5.29685 -0.398125 -1.90148e-17)
(6.26807 -0.320189 0)
(7.23978 -0.636636 1.83538e-17)
(8.31872 -0.661751 3.67641e-17)
(8.75295 -0.408749 0)
(8.39707 -0.225351 0)
(7.88555 -0.0602341 0)
(7.51772 0.261411 0)
(7.07946 0.266331 3.75741e-17)
(6.55168 0.406591 1.11051e-16)
(5.32586 0.79826 0)
(4.38297 0.653344 0)
(4.10533 0.398944 0)
(3.56557 0.263638 -3.67791e-17)
(3.4679 -0.00843225 0)
(4.14519 -0.408383 0)
(4.53778 -0.588432 7.25115e-17)
(4.77221 -0.647621 3.65655e-17)
(6.93801 -2.12291 3.64688e-17)
(7.94506 -1.05706 0)
(9.07747 -1.53923 0)
(12.244 -2.09202 3.522e-17)
(13.045 -0.722935 -3.43287e-17)
(14.4412 -1.09647 0)
(15.5037 -0.472936 0)
(15.8511 -0.35406 -3.2962e-17)
(16.3993 -0.180446 9.73495e-17)
(16.4938 0.110942 0)
(15.8804 0.14598 0)
(15.3407 0.16627 3.10193e-17)
(14.4755 0.310052 0)
(13.3631 0.254283 6.0619e-17)
(12.5159 0.139408 -2.99075e-17)
(11.3993 0.242729 0)
(10.586 -0.0168489 2.88775e-17)
(9.97895 0.0215025 5.65686e-17)
(8.88036 0.193556 0)
(8.06084 -0.193285 0)
(7.99925 -0.553416 -2.75878e-17)
(8.12771 -0.723625 0)
(9.08866 -0.63593 5.33178e-17)
(8.28159 0.0633169 0)
(6.74853 -0.180074 0)
(7.51142 -0.511897 0)
(6.97396 -0.00929489 0)
(5.68592 -0.17112 -2.28642e-17)
(5.63833 -0.47313 -2.20254e-17)
(5.92427 -1.05318 0)
(5.84099 -0.690165 0)
(3.92538 0.764414 0)
(-0.352767 1.76882 2.38298e-17)
(-4.7145 1.85449 0)
(-6.64497 0.22567 -4.408e-17)
(-4.56671 -3.22138 4.31943e-17)
(1.10656 -4.63054 4.36917e-17)
(3.79924 -2.57674 4.3643e-17)
(5.59988 -3.16671 4.34856e-17)
(8.8167 -1.99439 4.30872e-17)
(9.51139 -1.13157 0)
(0.248515 0.223685 0)
(0.576681 0.610208 0)
(0.941845 0.302297 2.31863e-17)
(1.62371 -0.672328 2.32147e-17)
(2.50491 -1.84426 -2.30747e-17)
(3.46965 -2.75301 -2.29012e-17)
(4.41023 -3.30754 3.93779e-20)
(5.31037 -3.53512 0)
(6.16179 -3.53001 0)
(6.94015 -3.36091 0)
(7.69075 -3.13147 0)
(8.3858 -2.84927 0)
(8.98646 -2.56223 6.52837e-17)
(9.57299 -2.1883 0)
(10.0756 -1.8376 -2.13994e-17)
(10.5812 -1.56313 -2.11415e-17)
(11.0017 -1.10942 0)
(11.3176 -0.895895 0)
(11.7423 -0.381989 0)
(11.9347 -0.0685452 0)
(12.244 0.104312 -1.99389e-17)
(12.4435 0.794223 0)
(12.5126 0.544378 1.96478e-17)
(12.5963 1.2365 0)
(12.6819 1.66874 0)
(12.56 1.06204 0)
(12.2538 1.63354 3.84669e-17)
(12.3534 1.64904 0)
(12.1316 0.787164 -1.91444e-17)
(11.6533 0.522313 3.77208e-17)
(11.6774 0.746019 0)
(11.7082 0.57215 0)
(11.2729 -0.298951 0)
(10.9851 -1.15239 -1.76877e-17)
(11.3816 -0.78399 -1.77779e-17)
(12.1401 0.381992 0)
(12.6643 0.210904 0)
(12.3545 -1.35768 3.45783e-17)
(11.9133 -1.85564 3.49747e-17)
(11.0754 -0.304228 -3.54938e-17)
(8.60841 1.58354 0)
(6.14461 2.37842 0)
(4.62778 2.78252 0)
(3.23688 2.97427 0)
(2.11882 3.00841 3.54685e-17)
(1.19338 3.07383 3.52983e-17)
(0.411672 3.0775 -3.50825e-17)
(-0.174548 2.92119 0)
(-0.610991 2.70357 0)
(-0.986306 2.40093 0)
(-1.3253 2.07546 0)
(-1.58651 1.73 3.40081e-17)
(-1.8025 1.39987 0)
(-1.94383 1.06638 0)
(-2.04966 0.774766 3.3352e-17)
(-2.10614 0.493157 3.31006e-17)
(-2.08481 0.236259 0)
(-2.01421 0.00920337 -6.5368e-17)
(-1.86977 -0.207123 3.24351e-17)
(-1.69846 -0.406237 -3.22155e-17)
(-1.46636 -0.576805 0)
(-1.21421 -0.734093 0)
(-0.927188 -0.874254 0)
(-0.619943 -0.989318 0)
(-0.270281 -1.09693 -3.11265e-17)
(0.0884451 -1.17228 -6.18381e-17)
(0.457574 -1.26265 -3.06805e-17)
(0.854133 -1.33987 3.04576e-17)
(1.27728 -1.39768 0)
(1.69092 -1.44581 -6.00769e-17)
(2.07654 -1.46758 -5.96598e-17)
(2.47309 -1.52341 -5.9236e-17)
(2.89736 -1.55076 5.88122e-17)
(3.25077 -1.51175 0)
(3.6219 -1.55122 8.70269e-17)
(3.97669 -1.62351 0)
(4.26159 -1.61729 -2.85825e-17)
(4.58454 -1.60022 -2.83805e-17)
(4.84493 -1.46242 0)
(5.04417 -1.49002 0)
(5.29466 -1.53514 -5.56479e-17)
(5.28839 -1.37312 0)
(5.5161 -1.43394 -5.48369e-17)
(5.40417 -1.31909 0)
(5.45311 -1.32123 5.39192e-17)
(5.36028 -1.21668 1.06863e-16)
(5.25123 -1.18327 0)
(5.06823 -1.10643 0)
(4.80399 -0.999075 0)
(4.52615 -0.93758 5.14899e-17)
(4.12404 -0.840024 0)
(3.73371 -0.838917 5.05505e-17)
(3.22576 -0.8045 0)
(2.68022 -0.845318 0)
(2.08205 -0.906884 -9.90445e-17)
(1.38992 -0.934402 0)
(0.825603 -0.912826 -4.91524e-17)
(0.444639 -0.814747 0)
(0.0598514 -0.621846 -4.79683e-17)
(-0.383886 -0.489247 0)
(-0.939726 -0.408969 0)
(-1.42065 -0.402224 0)
(-1.86528 -0.366151 -1.36902e-16)
(-2.32663 -0.262222 -4.49245e-17)
(-2.74251 -0.244274 0)
(-3.09679 -0.257383 0)
(-3.38145 -0.216289 0)
(-3.61584 -0.123686 0)
(-3.62209 -0.0691832 4.21244e-17)
(-3.50458 -0.0371765 -8.27437e-17)
(-3.34489 -0.060866 -4.08157e-17)
(-3.08353 -0.196387 8.08265e-17)
(-2.89443 -0.48208 8.17735e-17)
(-2.46268 -0.705414 4.12996e-17)
(-1.75499 -0.906864 0)
(-0.851561 -1.04535 8.2007e-17)
(0.246109 -0.963987 0)
(1.31004 -0.974655 -8.10403e-17)
(2.35355 -1.40551 -4.0955e-17)
(3.49323 -1.65135 0)
(4.44464 -1.41613 8.07598e-17)
(5.6361 -0.871705 3.89784e-17)
(6.90615 -0.789153 0)
(7.78949 -1.05736 3.69821e-17)
(8.44564 -0.771431 -1.10482e-16)
(8.31444 0.0908869 0)
(7.61304 0.762958 0)
(6.90132 0.853431 0)
(6.34969 0.864951 0)
(5.97553 0.989186 -7.52421e-17)
(5.27116 1.37171 -7.4255e-17)
(4.13175 1.60193 0)
(3.86381 1.05114 0)
(4.07742 0.696948 0)
(3.84724 0.346086 0)
(3.48118 -0.388945 0)
(4.65606 -0.849534 0)
(5.25358 -1.11786 -7.36028e-17)
(5.55759 -1.37599 2.68888e-20)
(7.54085 -3.20647 0)
(7.76537 -1.74392 0)
(9.26511 -3.05051 -7.23736e-17)
(12.151 -3.85212 0)
(13.1205 -1.30073 7.02453e-17)
(14.5114 -2.24901 7.07259e-17)
(16.2868 -0.979539 0)
(16.6541 -0.821205 0)
(17.5936 -0.640827 -6.72646e-17)
(18.2549 0.0394601 -1.31001e-16)
(18.077 0.296932 0)
(18.0505 0.347301 0)
(17.2418 0.816294 0)
(15.9515 0.850531 -6.00488e-17)
(15.0448 0.643218 5.91276e-17)
(13.6853 0.724313 0)
(12.4823 0.177381 1.15125e-16)
(11.4237 -0.0187908 5.53624e-17)
(10.254 0.301796 -1.07733e-16)
(9.27497 -0.146646 0)
(8.33603 -0.767718 0)
(7.93542 -1.20144 -1.16038e-16)
(9.80633 -1.01634 -5.5012e-17)
(9.21207 0.341404 0)
(7.32569 -0.36243 0)
(8.07275 -1.12062 0)
(8.07973 -0.0199008 0)
(6.33467 -0.062275 -8.6844e-17)
(6.16582 -0.458161 0)
(5.57337 -1.06405 0)
(3.97448 -0.336875 0)
(1.47107 2.09988 0)
(-2.64345 3.34885 0)
(-5.34843 2.78352 0)
(-5.53367 -0.0347912 -8.59444e-17)
(-2.31694 -5.24792 0)
(0.302325 -6.84567 0)
(3.53794 -3.89786 -1.72023e-16)
(5.59162 -5.04691 8.8745e-17)
(8.37502 -3.50435 -8.78846e-17)
(10.0042 -2.52542 8.70752e-17)
(0.237369 -0.10562 0)
(0.627897 0.341318 -4.72913e-17)
(1.27123 -0.47523 0)
(2.24765 -1.98481 -2.33158e-17)
(3.25784 -3.36307 0)
(4.20727 -4.20693 0)
(5.01678 -4.58239 2.28596e-17)
(5.73255 -4.57346 0)
(6.35441 -4.34756 0)
(6.96207 -4.04545 0)
(7.54303 -3.71105 0)
(8.07201 -3.36614 0)
(8.58913 -2.95016 -8.8503e-17)
(9.10287 -2.5526 -4.40412e-17)
(9.59307 -2.15447 4.36582e-17)
(9.97247 -1.74359 0)
(10.3565 -1.31742 0)
(10.6245 -0.909916 0)
(10.76 -0.560291 0)
(10.9911 -0.161783 0)
(11.0045 0.125104 -4.0174e-17)
(11.271 0.511179 -3.94137e-17)
(11.6095 1.04366 3.95538e-17)
(11.5025 0.820899 -3.8718e-17)
(11.899 1.48693 0)
(12.1198 2.21089 0)
(11.9615 1.27825 -3.80048e-17)
(11.9334 1.49004 0)
(11.7699 1.97821 0)
(11.6028 0.927467 -3.6855e-17)
(11.4893 0.380896 -3.72035e-17)
(11.4759 0.85585 -3.73975e-17)
(11.7902 0.654867 0)
(11.9794 -0.774083 0)
(11.8176 -2.17395 3.58214e-17)
(11.6789 -1.88986 0)
(10.9473 -0.21245 0)
(8.96091 1.55149 -3.59815e-17)
(6.83271 2.62169 3.6299e-17)
(5.18785 3.37658 -3.63949e-17)
(3.74987 3.87156 0)
(2.55293 4.01715 0)
(1.61495 4.13202 -7.21576e-17)
(0.808119 4.08143 0)
(0.227164 3.92466 -7.14321e-17)
(-0.22004 3.71255 -1.06485e-16)
(-0.58042 3.50102 1.0589e-16)
(-0.884084 3.21814 -7.02068e-17)
(-1.09003 2.89689 0)
(-1.26276 2.51756 0)
(-1.39617 2.14622 -6.8833e-17)
(-1.50127 1.75372 -3.41324e-17)
(-1.59596 1.37353 0)
(-1.63858 0.984603 0)
(-1.65139 0.612335 -3.34173e-17)
(-1.61388 0.275191 -6.64454e-17)
(-1.5224 -0.0536217 0)
(-1.38798 -0.356629 6.54183e-17)
(-1.22316 -0.617983 -6.5029e-17)
(-1.00397 -0.850095 6.45706e-17)
(-0.733285 -1.06541 0)
(-0.429152 -1.23764 0)
(-0.0927274 -1.42012 0)
(0.257842 -1.55853 0)
(0.631301 -1.69247 0)
(1.02445 -1.77212 6.18275e-17)
(1.40572 -1.90028 0)
(1.78296 -1.99975 0)
(2.18883 -2.10283 0)
(2.62245 -2.14697 1.20069e-16)
(3.02428 -2.13626 5.95921e-17)
(3.40872 -2.21382 5.91558e-17)
(3.81478 -2.24367 -1.17355e-16)
(4.13038 -2.187 5.82575e-17)
(4.47445 -2.22012 -5.78501e-17)
(4.81821 -2.28938 0)
(4.98153 -2.24776 5.70243e-17)
(5.24047 -2.28636 0)
(5.41226 -2.16107 0)
(5.62268 -2.1473 0)
(5.76157 -2.13033 1.11304e-16)
(5.81997 -2.00975 -5.53164e-17)
(5.9527 -2.03405 -5.49033e-17)
(5.90755 -1.87436 -1.09073e-16)
(5.90603 -1.90023 -1.62615e-16)
(5.79123 -1.78262 -5.37865e-17)
(5.68777 -1.74935 0)
(5.47819 -1.63534 -1.05733e-16)
(5.22918 -1.51931 0)
(4.93603 -1.47493 -1.55625e-16)
(4.51403 -1.38002 0)
(4.14724 -1.37374 -1.52769e-16)
(3.69621 -1.26435 0)
(3.23278 -1.20084 0)
(2.77222 -1.1068 -4.93292e-17)
(2.06225 -1.10846 0)
(1.23364 -1.3474 4.91994e-17)
(0.578769 -1.40145 9.73084e-17)
(0.165403 -1.22997 4.7919e-17)
(-0.22527 -0.949976 9.47196e-17)
(-0.7226 -0.784021 -9.40141e-17)
(-1.11645 -0.790644 -9.34135e-17)
(-1.41199 -0.689172 1.85252e-16)
(-1.71225 -0.486372 0)
(-2.06496 -0.421175 0)
(-2.33003 -0.402797 8.88289e-17)
(-2.52285 -0.330551 -8.78911e-17)
(-2.62068 -0.28924 0)
(-2.48142 -0.375735 0)
(-2.27082 -0.321058 8.43806e-17)
(-2.12126 -0.289103 0)
(-1.85553 -0.302109 -8.36634e-20)
(-1.79338 -0.535427 -7.80749e-20)
(-1.75517 -0.856889 8.57045e-17)
(-1.25577 -1.21342 0)
(-0.673062 -1.49029 -8.66856e-17)
(0.294318 -1.65509 0)
(1.38848 -1.75263 8.4549e-17)
(2.52311 -2.05756 0)
(3.73666 -2.34823 0)
(5.02936 -1.99817 -8.38688e-17)
(6.12943 -1.52465 -8.04859e-17)
(7.2946 -1.28371 0)
(7.89168 -1.20138 -7.49206e-17)
(7.99036 -0.43234 1.48492e-16)
(7.53573 0.714381 0)
(7.09484 1.10574 0)
(6.43555 1.14428 0)
(5.86843 1.15343 0)
(5.52676 1.10534 7.53968e-17)
(4.9394 1.7088 -1.48806e-16)
(4.19925 1.76821 0)
(4.10173 0.613493 0)
(4.69106 0.352221 0)
(5.36131 0.356434 0)
(5.17349 -0.731148 0)
(5.28594 -1.62371 0)
(7.16119 -1.88008 0)
(6.6757 -2.06826 7.24129e-17)
(8.66 -4.0848 0)
(8.94228 -2.71563 0)
(10.3356 -4.18285 7.15717e-17)
(12.1749 -5.54109 0)
(13.3897 -2.17465 0)
(14.1398 -3.79042 -7.11633e-17)
(16.6338 -1.97386 0)
(16.7368 -1.70399 0)
(17.8077 -1.52168 1.3758e-16)
(19.0148 -0.503851 1.34734e-16)