/*--------------------------------*- C++ -*----------------------------------*\
| =========                 |                                                 |
| \\      /  F ield         | OpenFOAM: The Open Source CFD Toolbox           |
|  \\    /   O peration     | Version:  dev                                   |
|   \\  /    A nd           | Web:      http://www.openfoam.org               |
|    \\/     M anipulation  |                                                 |
\*---------------------------------------------------------------------------*/
FoamFile
{
    version     2.0;
    format      ascii;
    class       volVectorField;
    object      UMean;
    location    "9.164";
}
// * * * * * * * * * * * * * * * * * * * * * * * * * * * * * * * * * * * * * //

dimensions      [0 1 -1 0 0 0 0];

internalField   nonuniform List<vector> 
12225
(
(7.00355 0.430265 0)
(4.43868 0.192542 0)
(2.55676 0.0311568 0)
(2.51078 -0.0166502 0)
(1.38445 0.0193584 0)
(2.26724 -0.0342698 0)
(0.989438 0.0489767 0)
(2.18252 -0.0591668 0)
(0.797283 0.0716522 0)
(2.29171 -0.0978459 0)
(0.688398 0.0993749 0)
(2.74351 -0.138634 0)
(0.947603 0.102613 0)
(3.39694 -0.172139 0)
(3.53013 -0.168428 0)
(4.6953 0.0499899 0)
(14.8422 -2.4337 0)
(7.11761 5.13284 0)
(9.54627 0.981574 0)
(9.54319 0.860837 0)
(6.6868 0.466275 0)
(7.59026 0.214541 0)
(4.09066 0.140322 0)
(6.84297 0.010842 0)
(2.66506 0.132644 0)
(6.68907 -0.0902864 0)
(1.82227 0.141849 0)
(7.03895 -0.165035 0)
(1.26005 0.123918 0)
(8.12144 -0.414381 0)
(1.3845 0.252428 0)
(9.95463 -1.44218 0)
(3.43398 0.272209 0)
(12.3877 -4.06775 0)
(10.4255 -1.92696 0)
(7.77322 0.483811 0)
(9.11855 0.763583 0)
(12.1666 0.95139 0)
(8.32957 0.623998 0)
(11.8319 0.44337 0)
(6.22619 0.31034 0)
(11.4128 0.20652 0)
(4.58285 0.221515 0)
(11.3148 -0.0193977 0)
(3.87393 0.192952 0)
(11.3763 -0.27774 0)
(4.34995 0.187291 0)
(11.2527 -0.72312 0)
(5.72804 0.176065 0)
(11.0898 -1.49163 0)
(7.2145 0.0529339 0)
(12.1158 -3.86564 0)
(6.93359 0.351002 0)
(9.35189 -2.39242 0)
(7.21912 0.525005 0)
(13.9928 0.960945 0)
(7.92997 0.609523 0)
(14.2951 0.553791 0)
(7.47461 0.420969 0)
(14.1162 0.271097 0)
(7.176 0.396729 0)
(13.7383 -0.144959 0)
(7.25693 0.459635 0)
(13.2695 -0.698567 0)
(7.65939 0.576851 0)
(12.8743 -1.42265 0)
(8.26663 0.699613 0)
(12.6506 -2.31332 0)
(9.02314 0.042726 0)
(11.8868 -3.63755 0)
(8.68641 -1.43115 0)
(8.36315 0.68113 0)
(6.4245 0.570145 0)
(14.0103 0.565827 0)
(8.47399 0.674596 0)
(13.9574 0.284477 0)
(9.16987 0.636806 0)
(13.6427 -0.00253118 0)
(9.51766 0.657938 0)
(13.2131 -0.388557 0)
(9.59261 0.734441 0)
(12.8121 -0.87111 0)
(9.4461 0.876967 0)
(12.5815 -1.52116 0)
(9.15013 1.09009 0)
(12.5692 -2.48974 0)
(8.82749 1.13283 0)
(11.6155 -5.02801 0)
(8.54221 1.26768 0)
(8.72114 0.125374 0)
(7.95736 0.617025 0)
(11.802 0.152289 0)
(9.50564 0.654899 0)
(11.7383 0.0501449 0)
(10.0886 0.694056 0)
(11.5993 -0.1657 0)
(10.3209 0.725987 0)
(11.4752 -0.457531 0)
(10.3008 0.783212 0)
(11.3886 -0.853582 0)
(10.0332 0.832322 0)
(11.3544 -1.40011 0)
(9.49297 0.801738 0)
(11.4171 -2.13847 0)
(8.80163 0.726757 0)
(10.9977 -3.91999 0)
(7.73352 1.33718 0)
(9.48868 -0.219278 0)
(9.34478 0.81283 0)
(10.4382 -0.265976 0)
(10.1412 0.930712 0)
(10.5533 -0.304582 0)
(10.3991 1.02015 0)
(10.5814 -0.502908 0)
(10.5205 1.07568 0)
(10.6249 -0.781148 0)
(10.5639 1.15368 0)
(10.6714 -1.15761 0)
(10.516 1.23546 0)
(10.6996 -1.63542 0)
(10.3676 1.26152 0)
(10.6878 -2.32682 0)
(10.0538 1.27149 0)
(10.3759 -3.95295 0)
(8.29962 2.01891 0)
(9.69704 -0.952799 0)
(9.84934 0.70131 0)
(10.1558 -0.326005 0)
(10.4067 0.85533 0)
(10.3897 -0.349989 0)
(10.5804 0.907124 0)
(10.4705 -0.494075 0)
(10.7017 0.893269 0)
(10.5519 -0.686351 0)
(10.8054 0.873023 0)
(10.6438 -0.935224 0)
(10.881 0.824167 0)
(10.7353 -1.2326 0)
(10.908 0.671729 0)
(10.7538 -1.67231 0)
(10.7229 0.520046 0)
(10.4925 -2.47308 0)
(8.89432 0.980542 0)
(9.964 -0.48383 0)
(10.0858 0.802397 0)
(10.0196 -0.583403 0)
(10.5355 1.02172 0)
(10.3106 -0.604534 0)
(10.6751 1.07524 0)
(10.4399 -0.724973 0)
(10.7775 1.04845 0)
(10.5708 -0.889979 0)
(10.8572 1.00389 0)
(10.7113 -1.11761 0)
(10.8987 0.921332 0)
(10.8316 -1.39468 0)
(10.8739 0.735021 0)
(10.822 -1.76044 0)
(10.602 0.505992 0)
(10.5205 -2.06794 0)
(9.35042 0.586417 0)
(10.0235 -0.391426 0)
(10.1391 0.648773 0)
(10.0423 -0.511982 0)
(10.5102 0.878302 0)
(10.3335 -0.456564 0)
(10.6213 0.869464 0)
(10.482 -0.493695 0)
(10.6978 0.778518 0)
(10.629 -0.572153 0)
(10.7341 0.658161 0)
(10.7635 -0.695309 0)
(10.7179 0.495823 0)
(10.8401 -0.844876 0)
(10.6182 0.264388 0)
(10.7653 -1.03188 0)
(10.2823 0.0705496 0)
(10.4794 -1.05228 0)
(9.6237 0.124179 0)
(10.2069 -0.0326418 0)
(10.141 0.700126 0)
(10.0706 -0.69182 0)
(10.4525 0.902734 0)
(10.2985 -0.618833 0)
(10.5374 0.847821 0)
(10.4302 -0.645425 0)
(10.6032 0.735467 0)
(10.5606 -0.707241 0)
(10.6272 0.586977 0)
(10.6603 -0.79105 0)
(10.6091 0.383389 0)
(10.6811 -0.869041 0)
(10.5268 0.117419 0)
(10.5709 -0.921757 0)
(10.2915 -0.113362 0)
(10.3609 -0.764619 0)
(10.02 -0.153772 0)
(10.2455 -0.125042 0)
(10.0968 0.468102 0)
(10.1509 -0.495027 0)
(10.3536 0.595919 0)
(10.2934 -0.374527 0)
(10.4203 0.527687 0)
(10.4093 -0.354677 0)
(10.4848 0.419041 0)
(10.5239 -0.37404 0)
(10.5131 0.275915 0)
(10.5993 -0.414473 0)
(10.5156 0.0935599 0)
(10.597 -0.461421 0)
(10.4766 -0.102993 0)
(10.4995 -0.499796 0)
(10.3571 -0.231756 0)
(10.3646 -0.405234 0)
(10.266 -0.219481 0)
(10.3738 -0.109937 0)
(10.0501 0.411074 0)
(10.1754 -0.487061 0)
(10.2548 0.437315 0)
(10.2379 -0.367285 0)
(10.3087 0.367478 0)
(10.3306 -0.345331 0)
(10.3792 0.250988 0)
(10.4245 -0.35502 0)
(10.4226 0.0996593 0)
(10.4822 -0.374599 0)
(10.4462 -0.0794472 0)
(10.4817 -0.40311 0)
(10.4329 -0.246338 0)
(10.426 -0.430895 0)
(10.3772 -0.338807 0)
(10.3685 -0.392237 0)
(10.3571 -0.320129 0)
(10.4222 -0.276115 0)
(10.0153 0.19969 0)
(10.1907 -0.285602 0)
(10.1931 0.167413 0)
(10.2051 -0.179095 0)
(10.2292 0.13177 0)
(10.2791 -0.171137 0)
(10.3061 0.0473738 0)
(10.3625 -0.197536 0)
(10.3659 -0.0585156 0)
(10.4141 -0.235476 0)
(10.4054 -0.175762 0)
(10.4266 -0.286142 0)
(10.4122 -0.274682 0)
(10.4111 -0.331313 0)
(10.3993 -0.323764 0)
(10.4064 -0.336801 0)
(10.4107 -0.315622 0)
(10.4696 -0.304412 0)
(9.99664 0.0971751 0)
(10.1444 -0.185656 0)
(10.1463 0.0217723 0)
(10.1501 -0.133445 0)
(10.1622 -0.00847637 0)
(10.2089 -0.145912 0)
(10.241 -0.0767668 0)
(10.2919 -0.186472 0)
(10.311 -0.159156 0)
(10.3485 -0.23768 0)
(10.3574 -0.244502 0)
(10.379 -0.297987 0)
(10.3804 -0.315943 0)
(10.3938 -0.349705 0)
(10.3958 -0.360629 0)
(10.4184 -0.379772 0)
(10.4237 -0.380612 0)
(10.4787 -0.386777 0)
(9.99364 0.0155327 0)
(10.1059 -0.0856707 0)
(10.1088 -0.0442096 0)
(10.1138 -0.0931017 0)
(10.1188 -0.0747438 0)
(10.1674 -0.118765 0)
(10.1979 -0.120433 0)
(10.2517 -0.163636 0)
(10.2739 -0.180359 0)
(10.3152 -0.218925 0)
(10.3277 -0.243674 0)
(10.3596 -0.277537 0)
(10.3658 -0.301029 0)
(10.3938 -0.32867 0)
(10.3994 -0.346634 0)
(10.4327 -0.370417 0)
(10.4354 -0.383383 0)
(10.4882 -0.396578 0)
(9.99174 0.00478487 0)
(10.0635 -0.0250982 0)
(10.0567 -0.0348402 0)
(10.0678 -0.0663759 0)
(10.0778 -0.0756126 0)
(10.128 -0.0996459 0)
(10.1572 -0.115804 0)
(10.2109 -0.144545 0)
(10.2336 -0.168795 0)
(10.278 -0.199372 0)
(10.2919 -0.22634 0)
(10.3299 -0.256792 0)
(10.3383 -0.28305 0)
(10.373 -0.31176 0)
(10.3787 -0.336486 0)
(10.4151 -0.365193 0)
(10.4145 -0.387685 0)
(10.4633 -0.40708 0)
(9.99155 0.0141292 0)
(10.0466 0.016097 0)
(10.0398 -0.0106136 0)
(10.0576 -0.0377001 0)
(10.0748 -0.0565325 0)
(10.1254 -0.0778323 0)
(10.1554 -0.0988174 0)
(10.2071 -0.123751 0)
(10.2311 -0.148893 0)
(10.2753 -0.176506 0)
(10.2911 -0.203282 0)
(10.3292 -0.231986 0)
(10.3394 -0.259168 0)
(10.3736 -0.288087 0)
(10.38 -0.315387 0)
(10.414 -0.345429 0)
(10.4132 -0.371263 0)
(10.4566 -0.393056 0)
(9.99172 0.0328378 0)
(10.0502 0.0494964 0)
(10.0566 0.00982424 0)
(10.0799 -0.0181609 0)
(10.1007 -0.0402952 0)
(10.1506 -0.0615107 0)
(10.1819 -0.0836143 0)
(10.2316 -0.106388 0)
(10.2562 -0.130499 0)
(10.2984 -0.155435 0)
(10.315 -0.180973 0)
(10.3507 -0.207196 0)
(10.3614 -0.233404 0)
(10.3926 -0.260231 0)
(10.399 -0.286825 0)
(10.4287 -0.315055 0)
(10.4281 -0.340765 0)
(10.4653 -0.362517 0)
(9.98987 0.0406066 0)
(10.0546 0.052471 0)
(10.0827 -0.00647763 0)
(10.1166 -0.0407819 0)
(10.1419 -0.0642001 0)
(10.1903 -0.0823251 0)
(10.2223 -0.102125 0)
(10.269 -0.121012 0)
(10.2935 -0.142721 0)
(10.332 -0.16394 0)
(10.3483 -0.187325 0)
(10.3801 -0.209987 0)
(10.3904 -0.234265 0)
(10.4173 -0.25776 0)
(10.4228 -0.2826 0)
(10.4473 -0.30761 0)
(10.4461 -0.332219 0)
(10.4768 -0.352589 0)
(9.99053 0.0314928 0)
(10.0684 0.0218266 0)
(10.1261 -0.0558846 0)
(10.1769 -0.0968715 0)
(10.2125 -0.119869 0)
(10.2609 -0.132805 0)
(10.2937 -0.147808 0)
(10.3361 -0.161662 0)
(10.3601 -0.179807 0)
(10.3941 -0.196868 0)
(10.4103 -0.217282 0)
(10.4377 -0.23614 0)
(10.4479 -0.257858 0)
(10.4702 -0.277899 0)
(10.4754 -0.300554 0)
(10.4946 -0.322155 0)
(10.494 -0.344987 0)
(10.5187 -0.363248 0)
(9.99117 0.00976421 0)
(10.0919 -0.0299058 0)
(10.1869 -0.120987 0)
(10.2594 -0.162892 0)
(10.3092 -0.181214 0)
(10.3589 -0.187218 0)
(10.3929 -0.196061 0)
(10.4304 -0.204366 0)
(10.4542 -0.218077 0)
(10.4837 -0.230691 0)
(10.5002 -0.247522 0)
(10.5233 -0.262526 0)
(10.5338 -0.281206 0)
(10.5517 -0.297868 0)
(10.5573 -0.317898 0)
(10.5719 -0.336213 0)
(10.5724 -0.35677 0)
(10.5921 -0.372887 0)
(9.99283 -0.023476 0)
(10.1275 -0.103782 0)
(10.267 -0.205055 0)
(10.3664 -0.24169 0)
(10.4319 -0.25087 0)
(10.4835 -0.248419 0)
(10.5183 -0.250896 0)
(10.5517 -0.253668 0)
(10.5753 -0.262921 0)
(10.6012 -0.271255 0)
(10.6181 -0.284559 0)
(10.6378 -0.296153 0)
(10.6487 -0.311939 0)
(10.6632 -0.325672 0)
(10.6692 -0.343182 0)
(10.6802 -0.35861 0)
(10.6814 -0.376906 0)
(10.6969 -0.391032 0)
(9.99044 -0.071652 0)
(10.1743 -0.201295 0)
(10.3677 -0.305559 0)
(10.4999 -0.327931 0)
(10.5804 -0.322593 0)
(10.6343 -0.310188 0)
(10.6689 -0.30554 0)
(10.6996 -0.302511 0)
(10.7226 -0.306625 0)
(10.7459 -0.310481 0)
(10.7624 -0.319777 0)
(10.7793 -0.3279 0)
(10.7895 -0.340409 0)
(10.8006 -0.351166 0)
(10.8055 -0.365736 0)
(10.8124 -0.378278 0)
(10.8122 -0.393818 0)
(10.8222 -0.405753 0)
(9.99202 -0.13644 0)
(10.2447 -0.323133 0)
(10.5025 -0.419098 0)
(10.6711 -0.417686 0)
(10.7626 -0.39418 0)
(10.8174 -0.371076 0)
(10.8493 -0.358881 0)
(10.8771 -0.350504 0)
(10.896 -0.349991 0)
(10.9148 -0.350366 0)
(10.9253 -0.356226 0)
(10.9355 -0.36134 0)
(10.9375 -0.370618 0)
(10.9394 -0.378465 0)
(10.934 -0.389642 0)
(10.9293 -0.399212 0)
(10.9166 -0.411118 0)
(10.9118 -0.420254 0)
(9.98973 -0.219964 0)
(10.3368 -0.468215 0)
(10.6735 -0.539796 0)
(10.8756 -0.508231 0)
(10.9696 -0.464811 0)
(11.0134 -0.427993 0)
(11.0285 -0.404717 0)
(11.0351 -0.388272 0)
(11.029 -0.381283 0)
(11.0194 -0.376815 0)
(10.998 -0.378005 0)
(10.9736 -0.378899 0)
(10.9378 -0.383606 0)
(10.9001 -0.387074 0)
(10.8525 -0.393427 0)
(10.8045 -0.398742 0)
(10.7466 -0.405052 0)
(10.695 -0.409818 0)
(9.98331 -0.332126 0)
(10.4675 -0.642389 0)
(10.8827 -0.667146 0)
(11.0723 -0.602623 0)
(11.1029 -0.537142 0)
(11.0583 -0.483054 0)
(10.9743 -0.444899 0)
(10.8732 -0.416126 0)
(10.7579 -0.397896 0)
(10.6352 -0.383147 0)
(10.5039 -0.37475 0)
(10.367 -0.366186 0)
(10.2247 -0.362294 0)
(10.0781 -0.356839 0)
(9.92943 -0.355687 0)
(9.77798 -0.353094 0)
(9.62693 -0.35279 0)
(9.47714 -0.350952 0)
(10.0025 -0.453683 0)
(10.6189 -0.818986 0)
(10.9015 -0.752053 0)
(10.7932 -0.62369 0)
(10.4938 -0.512474 0)
(10.1378 -0.429128 0)
(9.77038 -0.373495 0)
(9.41797 -0.334647 0)
(9.0773 -0.307213 0)
(8.75608 -0.284528 0)
(8.44724 -0.267571 0)
(8.15428 -0.25125 0)
(7.87368 -0.239962 0)
(7.60424 -0.227263 0)
(7.34958 -0.221061 0)
(7.10018 -0.211754 0)
(6.87189 -0.210782 0)
(6.64259 -0.204109 0)
(10.0974 -0.750795 0)
(10.0458 -1.01321 0)
(9.42486 -0.801054 0)
(8.51449 -0.572137 0)
(7.65518 -0.378699 0)
(6.92915 -0.244869 0)
(6.32771 -0.167504 0)
(5.83211 -0.126233 0)
(5.40981 -0.104684 0)
(5.04934 -0.0923021 0)
(4.72936 -0.084943 0)
(4.44873 -0.079332 0)
(4.19243 -0.075791 0)
(3.96363 -0.0718754 0)
(3.75201 -0.072122 0)
(3.55691 -0.0690693 0)
(3.38477 -0.0802512 0)
(3.21991 -0.0828474 0)
(8.51671 -0.436077 0)
(6.11017 -0.380891 0)
(4.2983 -0.138046 0)
(3.12397 -0.0213847 0)
(2.48126 0.0191337 0)
(2.12069 0.0224744 0)
(1.8965 0.0137182 0)
(1.73524 0.00461797 0)
(1.59926 -0.0015661 0)
(1.47857 -0.00478926 0)
(1.36652 -0.00640291 0)
(1.26441 -0.00671645 0)
(1.16878 -0.00670538 0)
(1.08209 -0.00638701 0)
(1.00009 -0.00665498 0)
(0.919887 -0.00702973 0)
(0.852407 -0.0186042 0)
(0.731927 -0.00612695 0)
(-0.0520126 0.137892 0)
(-0.15705 0.0715263 0)
(-0.207069 0.0165265 0)
(-0.19526 -0.0442867 0)
(-0.118023 -0.0990208 0)
(0.0121588 -0.145075 0)
(0.186223 -0.175639 1.11358e-17)
(0.387989 -0.193621 -1.10608e-17)
(0.60625 -0.198028 0)
(0.82867 -0.192775 -1.09177e-17)
(1.04587 -0.17844 0)
(1.24887 -0.15768 0)
(1.43111 -0.13105 0)
(1.58733 -0.101695 1.06431e-17)
(1.71489 -0.0704457 0)
(1.81102 -0.0383806 0)
(1.87482 -0.00624345 -1.04459e-17)
(1.907 0.0240086 0)
(1.90924 0.0504773 0)
(1.88361 0.072219 0)
(1.83381 0.089204 1.01964e-17)
(1.76239 0.100764 0)
(1.67326 0.108624 1.00745e-17)
(1.56812 0.111514 0)
(1.45162 0.109616 0)
(1.32647 0.107971 9.8958e-18)
(1.19294 0.111261 0)
(1.05028 0.116362 -9.77948e-18)
(0.901683 0.121572 0)
(0.747758 0.126589 9.66459e-18)
(0.590053 0.130576 0)
(0.430837 0.133032 0)
(0.272367 0.134192 0)
(0.115103 0.133969 0)
(-0.0406538 0.131093 0)
(-0.192835 0.126458 -9.32978e-18)
(-0.339809 0.120409 0)
(-0.481159 0.113968 1.84408e-17)
(-0.615437 0.107527 0)
(-0.742187 0.100319 -1.82218e-17)
(-0.859926 0.0932674 0)
(-0.968855 0.0864765 0)
(-1.06942 0.0787231 1.78885e-17)
(-1.16116 0.0704342 0)
(-1.24469 0.0628668 1.76653e-17)
(-1.32012 0.0557776 -1.75533e-17)
(-1.38692 0.0487475 0)
(-1.44573 0.0424493 -1.73283e-17)
(-1.49759 0.0369115 -1.72152e-17)
(-1.54158 0.0331307 0)
(-1.57788 0.0315102 0)
(-1.60842 0.0314949 0)
(-1.6353 0.0316271 0)
(-1.65951 0.0316296 0)
(-1.68247 0.0324888 1.65282e-17)
(-1.70608 0.0340197 0)
(-1.73169 0.0362341 -1.6299e-17)
(-1.7581 0.0382966 0)
(-1.78406 0.0389089 0)
(-1.80956 0.0394719 1.59525e-17)
(-1.83527 0.0411828 0)
(-1.86288 0.0423526 -1.57212e-17)
(-1.89241 0.0439788 0)
(-1.92359 0.045414 0)
(-1.95592 0.0461631 0)
(-1.98877 0.0472805 1.52556e-17)
(-2.02212 0.0492349 0)
(-2.05605 0.0514967 0)
(-2.09068 0.0538854 1.4906e-17)
(-2.12627 0.055215 0)
(-2.16006 0.0554576 1.46713e-17)
(-2.19095 0.0561374 0)
(-2.21904 0.0567148 0)
(-2.2432 0.0567241 0)
(-2.26213 0.0561432 -1.42054e-17)
(-2.27524 0.0549396 0)
(-2.28309 0.0541771 0)
(-2.28755 0.054073 -1.38615e-17)
(-2.289 0.0530654 -1.37481e-17)
(-2.28578 0.0513875 0)
(-2.27608 0.0490899 -1.35229e-17)
(-2.2598 0.046146 0)
(-2.23654 0.0429673 -2.66029e-17)
(-2.2063 0.0395145 0)
(-2.16963 0.0358228 -2.61674e-17)
(-2.12637 0.0327463 0)
(-2.07757 0.0303215 2.57387e-17)
(-2.02407 0.0283452 0)
(-1.96601 0.0269122 0)
(-1.90401 0.0259415 0)
(-1.83965 0.0253527 -2.49017e-17)
(-1.77264 0.0250865 0)
(-1.70464 0.0250415 2.44999e-17)
(-1.63565 0.0256181 0)
(-1.56637 0.0266383 -2.41106e-17)
(-1.49874 0.0291262 -2.3922e-17)
(-1.43195 0.0302822 -2.37376e-17)
(-1.36499 0.0313318 0)
(-1.2998 0.0313511 0)
(-1.23526 0.032534 0)
(-1.16964 0.0333892 0)
(-1.10497 0.0330288 0)
(-1.0353 0.0318913 0)
(-0.966642 0.0331645 0)
(-0.895814 0.0327698 0)
(-0.828747 0.0351548 2.22137e-17)
(-0.761264 0.0356158 2.20614e-17)
(-0.698714 0.039964 0)
(-0.637913 0.041293 0)
(-0.581919 0.0409369 0)
(-0.513992 0.0383123 2.14808e-17)
(-0.451287 0.042526 0)
(-0.382481 0.0408572 0)
(-0.317586 0.0437333 0)
(-0.246825 0.0407589 0)
(-0.173925 0.043114 -2.08064e-17)
(-0.0986703 0.0446027 0)
(-0.0174911 0.0435263 0)
(0.0678834 0.0449566 2.04292e-17)
(0.156806 0.0448312 -2.03077e-17)
(0.249001 0.0441759 0)
(0.34484 0.0481717 -2.0075e-17)
(0.436553 0.0511862 0)
(0.528683 0.0549476 1.98485e-17)
(0.6095 0.0595687 0)
(0.680619 0.0624912 0)
(0.755475 0.062665 0)
(0.824992 0.0633683 0)
(0.904578 0.0604418 0)
(0.978738 0.0609395 -3.83961e-17)
(1.05455 0.0624591 -3.8177e-17)
(1.11542 0.0671747 0)
(1.16627 0.0663721 0)
(1.21125 0.0677042 0)
(1.24813 0.063643 3.72525e-17)
(1.29599 0.0588548 0)
(1.34534 0.0571997 0)
(1.39034 0.0560713 0)
(1.43886 0.0538707 3.62325e-17)
(1.47807 0.0560411 -3.59646e-17)
(1.52254 0.0527876 0)
(1.56113 0.0528228 0)
(1.60237 0.0532809 -3.51497e-17)
(1.62846 0.0583236 -3.48767e-17)
(1.65814 0.054998 0)
(1.68667 0.058711 0)
(1.72583 0.0557211 3.40434e-17)
(1.76255 0.0659755 -3.37639e-17)
(1.77067 0.0713629 0)
(1.78432 0.0707676 0)
(1.80931 0.0711448 -3.29271e-17)
(1.84248 0.0758577 0)
(1.85585 0.0834415 0)
(1.86679 0.0891283 -3.20828e-17)
(1.86594 0.0932538 0)
(1.88037 0.0980745 -3.15223e-17)
(1.88287 0.105082 0)
(1.88891 0.109202 0)
(1.87625 0.120821 0)
(1.86257 0.126753 3.04332e-17)
(1.84667 0.133164 0)
(1.81463 0.142934 0)
(1.74199 0.154652 0)
(1.6644 0.154812 0)
(1.59768 0.157296 0)
(1.50672 0.166009 0)
(1.37973 0.172333 2.88921e-17)
(1.26184 0.173933 2.87379e-17)
(1.07702 0.182165 0)
(0.871563 0.18454 0)
(0.629033 0.183709 0)
(0.413602 0.170022 -2.83201e-17)
(0.191466 0.162936 0)
(0.040406 0.146534 5.63444e-17)
(-0.158095 0.143801 -5.62349e-17)
(-0.259003 0.123711 -5.60559e-17)
(-0.420184 0.126866 5.59517e-17)
(-0.454049 0.0966452 -5.57492e-17)
(-0.61126 0.129675 5.573e-17)
(-0.561936 -0.00341512 0)
(0.0100852 0.248971 0)
(0.0143227 0.192306 0)
(0.0492522 0.00801196 -2.2797e-17)
(0.120463 -0.198158 0)
(0.235311 -0.384178 2.23661e-17)
(0.387579 -0.535592 2.22194e-17)
(0.568745 -0.644494 1.10443e-17)
(0.768648 -0.710465 1.09819e-17)
(0.97601 -0.737097 0)
(1.18023 -0.730835 1.08548e-17)
(1.3727 -0.694995 0)
(1.5461 -0.636701 0)
(1.69646 -0.562096 -2.13211e-17)
(1.81904 -0.477704 -1.05953e-17)
(1.91379 -0.385828 2.10566e-17)
(1.97892 -0.291301 2.0923e-17)
(2.01576 -0.19895 1.03959e-17)
(2.02444 -0.110874 0)
(2.00739 -0.0278818 0)
(1.96459 0.0467689 0)
(1.89986 0.11219 1.01368e-17)
(1.81325 0.171328 0)
(1.70941 0.224265 -3.00379e-17)
(1.58716 0.267121 0)
(1.44885 0.302129 0)
(1.29502 0.332719 -9.83204e-18)
(1.12916 0.356704 0)
(0.954026 0.37401 9.71566e-18)
(0.773449 0.385046 1.93129e-17)
(0.58833 0.392273 -9.59767e-18)
(0.401455 0.39432 0)
(0.214089 0.390494 0)
(0.0258905 0.383234 0)
(-0.162684 0.376339 1.87312e-17)
(-0.349865 0.367825 1.86168e-17)
(-0.534328 0.355638 9.25137e-18)
(-0.713304 0.340962 0)
(-0.887316 0.323962 -1.82764e-17)
(-1.05242 0.303488 0)
(-1.21093 0.281621 1.8051e-17)
(-1.36124 0.259222 0)
(-1.50494 0.236607 0)
(-1.6405 0.216358 -1.77169e-17)
(-1.76876 0.197333 0)
(-1.89212 0.179378 -5.24874e-17)
(-2.00967 0.160546 1.7386e-17)
(-2.12056 0.141528 0)
(-2.22442 0.124475 1.71658e-17)
(-2.32216 0.106677 1.70555e-17)
(-2.41254 0.0869419 0)
(-2.49363 0.0678335 0)
(-2.56757 0.0531214 0)
(-2.63623 0.0434067 0)
(-2.70154 0.0382612 0)
(-2.76288 0.036731 -1.63739e-17)
(-2.82232 0.0362757 -3.25155e-17)
(-2.88013 0.0364618 1.61416e-17)
(-2.93369 0.0340455 0)
(-2.9848 0.0301719 -3.18133e-17)
(-3.03386 0.0289274 1.57877e-17)
(-3.0802 0.0297871 0)
(-3.12731 0.0303881 1.55501e-17)
(-3.17236 0.032812 0)
(-3.21511 0.0338974 0)
(-3.25609 0.0329402 3.03756e-17)
(-3.29585 0.0319811 -1.50675e-17)
(-3.33123 0.0298877 2.98923e-17)
(-3.36417 0.0270644 -2.9651e-17)
(-3.39182 0.024072 -1.4705e-17)
(-3.41649 0.0202361 0)
(-3.43513 0.0132085 -1.44633e-17)
(-3.44679 0.00338054 0)
(-3.45282 -0.00704835 0)
(-3.45046 -0.0193971 0)
(-3.43895 -0.0335188 -1.39835e-17)
(-3.41925 -0.0475214 0)
(-3.39302 -0.0577423 -2.7496e-17)
(-3.36097 -0.0650232 4.08957e-17)
(-3.3235 -0.073706 1.35168e-17)
(-3.27976 -0.0848791 0)
(-3.22803 -0.0976803 1.32883e-17)
(-3.17102 -0.110393 0)
(-3.10833 -0.122493 2.61252e-17)
(-3.04049 -0.133522 0)
(-2.96761 -0.144036 2.56821e-17)
(-2.88962 -0.153433 -5.09244e-17)
(-2.80768 -0.162348 -2.52483e-17)
(-2.72333 -0.170307 0)
(-2.63402 -0.177806 0)
(-2.54248 -0.183403 0)
(-2.44881 -0.187574 2.4408e-17)
(-2.35181 -0.191585 0)
(-2.25364 -0.194251 -2.40018e-17)
(-2.15549 -0.194613 0)
(-2.05681 -0.196178 7.08245e-17)
(-1.95815 -0.195529 2.34181e-17)
(-1.85889 -0.196557 2.32321e-17)
(-1.76173 -0.193849 0)
(-1.66709 -0.193155 0)
(-1.57188 -0.193884 0)
(-1.47411 -0.194594 0)
(-1.37738 -0.197011 0)
(-1.27495 -0.20133 4.43244e-17)
(-1.17891 -0.199441 4.39883e-17)
(-1.07944 -0.199665 0)
(-0.992102 -0.194187 -2.16764e-17)
(-0.895882 -0.19521 -2.15243e-17)
(-0.808841 -0.188509 0)
(-0.714293 -0.187467 -4.24457e-17)
(-0.635539 -0.187057 0)
(-0.538706 -0.197321 2.09387e-17)
(-0.452301 -0.191173 0)
(-0.346757 -0.19913 0)
(-0.252098 -0.195919 -4.10594e-17)
(-0.138783 -0.204529 0)
(-0.0344787 -0.20502 2.0273e-17)
(0.0910515 -0.213062 0)
(0.21811 -0.220772 0)
(0.354249 -0.224694 1.98876e-17)
(0.49503 -0.229317 1.97712e-17)
(0.640577 -0.234422 0)
(0.78939 -0.234829 -1.95337e-17)
(0.948586 -0.236445 0)
(1.10773 -0.227173 1.9297e-17)
(1.27097 -0.218028 3.83636e-17)
(1.41894 -0.21217 0)
(1.57587 -0.213723 0)
(1.72136 -0.21394 0)
(1.88112 -0.215715 0)
(2.02874 -0.210799 3.72309e-17)
(2.18335 -0.207546 1.11008e-16)
(2.32022 -0.188815 0)
(2.4444 -0.183292 0)
(2.56363 -0.172374 0)
(2.66856 -0.174056 -3.60801e-17)
(2.77055 -0.178485 0)
(2.8711 -0.178215 0)
(2.96596 -0.176787 7.06168e-17)
(3.05944 -0.177164 3.50344e-17)
(3.1353 -0.172712 3.47659e-17)
(3.2237 -0.179866 0)
(3.28786 -0.173552 0)
(3.35541 -0.174896 3.39208e-17)
(3.4024 -0.164003 -3.36147e-17)
(3.44755 -0.178124 0)
(3.47739 -0.175018 0)
(3.51138 -0.191199 -3.27217e-17)
(3.54025 -0.173275 9.71878e-17)
(3.55444 -0.168787 0)
(3.56513 -0.179609 0)
(3.5759 -0.191081 3.14593e-17)
(3.59615 -0.189146 0)
(3.5914 -0.182346 6.16247e-17)
(3.58846 -0.180549 -3.04709e-17)
(3.56065 -0.185267 0)
(3.55701 -0.194678 2.98438e-17)
(3.53325 -0.191145 5.90524e-17)
(3.52231 -0.19257 0)
(3.47609 -0.185443 0)
(3.45224 -0.19374 -2.8573e-17)
(3.41051 -0.185815 0)
(3.35251 -0.168828 5.58857e-17)
(3.25344 -0.149177 0)
(3.15965 -0.154044 0)
(3.0387 -0.145961 0)
(2.90929 -0.121776 0)
(2.71585 -0.103655 -2.66526e-17)
(2.55769 -0.0762359 -2.64632e-17)
(2.27361 -0.0268912 0)
(2.00337 -0.00267358 0)
(1.67408 0.0220472 0)
(1.38062 0.0183464 2.59576e-17)
(1.04678 0.0228344 0)
(0.84116 0.012708 -5.16675e-17)
(0.523346 0.0311092 5.1641e-17)
(0.411661 -0.000104826 5.14922e-17)
(0.131106 0.031194 5.14822e-17)
(0.132841 -0.0168134 5.133e-17)
(-0.162789 0.0797499 5.14929e-17)
(0.0214689 -0.115237 0)
(0.029017 0.0717711 0)
(0.120811 -0.0373608 0)
(0.22763 -0.240686 2.29141e-17)
(0.339597 -0.467789 2.26657e-17)
(0.473993 -0.692568 -2.25142e-17)
(0.618134 -0.874677 -2.24016e-17)
(0.772463 -1.00352 -1.47973e-21)
(0.923899 -1.07397 0)
(1.06922 -1.08487 0)
(1.19619 -1.0458 0)
(1.30517 -0.966032 0)
(1.3913 -0.856829 0)
(1.45706 -0.726376 6.47139e-17)
(1.4979 -0.586235 0)
(1.51668 -0.44145 -2.13054e-17)
(1.5116 -0.295012 -2.11691e-17)
(1.48555 -0.153645 0)
(1.4371 -0.020236 0)
(1.3708 0.103596 0)
(1.28637 0.216161 0)
(1.18611 0.315718 -2.05028e-17)
(1.0709 0.398972 0)
(0.945765 0.471517 2.02487e-17)
(0.808032 0.536777 0)
(0.660582 0.591745 0)
(0.504769 0.63676 0)
(0.346016 0.672758 3.9525e-17)
(0.183305 0.699939 0)
(0.0191368 0.719311 -1.95222e-17)
(-0.146004 0.729625 3.87998e-17)
(-0.310414 0.732703 0)
(-0.477104 0.734385 0)
(-0.644027 0.731392 0)
(-0.809767 0.721988 -1.89167e-17)
(-0.971884 0.706844 -1.87959e-17)
(-1.13079 0.685412 0)
(-1.2849 0.658132 0)
(-1.43343 0.626655 3.68596e-17)
(-1.57493 0.592713 3.66201e-17)
(-1.71466 0.558454 -3.63819e-17)
(-1.84929 0.525713 0)
(-1.98192 0.492118 0)
(-2.10879 0.459804 0)
(-2.23187 0.430242 0)
(-2.35058 0.402408 3.52011e-17)
(-2.46326 0.37299 3.49675e-17)
(-2.57075 0.343129 -3.47355e-17)
(-2.67264 0.314365 0)
(-2.76846 0.286273 0)
(-2.85901 0.25704 0)
(-2.94424 0.230029 0)
(-3.02951 0.2121 3.3576e-17)
(-3.10884 0.196136 0)
(-3.18323 0.182815 0)
(-3.25108 0.174889 3.28785e-17)
(-3.31434 0.169636 3.26469e-17)
(-3.37206 0.162756 0)
(-3.42222 0.153512 -6.43605e-17)
(-3.47015 0.146566 3.19489e-17)
(-3.51433 0.140303 -3.17144e-17)
(-3.55247 0.136367 0)
(-3.5878 0.133423 0)
(-3.61719 0.129009 0)
(-3.64162 0.124205 0)
(-3.66342 0.118501 -3.05526e-17)
(-3.68111 0.110703 -6.06465e-17)
(-3.69315 0.103352 -3.00978e-17)
(-3.70172 0.0962322 2.98729e-17)
(-3.70291 0.085103 0)
(-3.69865 0.0723539 -5.88404e-17)
(-3.68656 0.056615 -5.83921e-17)
(-3.66897 0.0407907 -5.79471e-17)
(-3.64731 0.0232883 5.75053e-17)
(-3.61678 0.00120441 0)
(-3.57942 -0.0213422 8.49426e-17)
(-3.53618 -0.0408153 0)
(-3.48826 -0.0563223 -2.78781e-17)
(-3.43178 -0.0702314 -2.76653e-17)
(-3.36734 -0.085938 0)
(-3.29677 -0.102816 0)
(-3.22268 -0.119608 -5.40426e-17)
(-3.14636 -0.13449 0)
(-3.066 -0.148761 -5.31958e-17)
(-2.98305 -0.162446 0)
(-2.89549 -0.17686 5.23571e-17)
(-2.80436 -0.188311 1.03886e-16)
(-2.70952 -0.198136 0)
(-2.61376 -0.207365 0)
(-2.51497 -0.214832 0)
(-2.41743 -0.220939 5.02926e-17)
(-2.31824 -0.226776 0)
(-2.2157 -0.231464 4.94707e-17)
(-2.11042 -0.234717 0)
(-2.00463 -0.233975 0)
(-1.89658 -0.234143 -9.65094e-17)
(-1.7912 -0.231816 0)
(-1.68388 -0.231314 -4.74641e-17)
(-1.58083 -0.22527 0)
(-1.47359 -0.225949 -4.66966e-17)
(-1.36702 -0.22508 0)
(-1.25818 -0.22423 0)
(-1.15086 -0.227959 0)
(-1.04057 -0.230358 -1.35699e-16)
(-0.940685 -0.221981 -4.48716e-17)
(-0.831708 -0.218883 0)
(-0.738759 -0.208533 0)
(-0.637171 -0.210017 0)
(-0.551605 -0.197806 0)
(-0.447666 -0.194154 4.32366e-17)
(-0.361582 -0.189598 -8.58379e-17)
(-0.254421 -0.206406 -4.26336e-17)
(-0.166983 -0.198206 8.46588e-17)
(-0.0472234 -0.213477 8.40952e-17)
(0.0545507 -0.21009 4.17619e-17)
(0.184721 -0.22497 0)
(0.29751 -0.226031 8.23983e-17)
(0.436084 -0.242419 0)
(0.568214 -0.251731 -8.12867e-17)
(0.716478 -0.257734 -4.03851e-17)
(0.862376 -0.262455 0)
(1.01715 -0.270252 7.97629e-17)
(1.16604 -0.272605 3.96283e-17)
(1.32775 -0.28133 0)
(1.48616 -0.277534 3.90902e-17)
(1.65853 -0.267785 -1.16509e-16)
(1.81846 -0.256561 0)
(1.98326 -0.256255 0)
(2.13575 -0.255951 0)
(2.29644 -0.259697 0)
(2.45348 -0.255386 -7.51553e-17)
(2.60999 -0.252263 -7.46564e-17)
(2.76166 -0.221548 0)
(2.90001 -0.214686 0)
(3.03121 -0.201147 0)
(3.15325 -0.199325 0)
(3.26007 -0.20402 0)
(3.3797 -0.207446 0)
(3.49272 -0.206717 -7.09532e-17)
(3.60543 -0.206204 -1.65151e-20)
(3.70086 -0.199004 0)
(3.81047 -0.209491 0)
(3.90081 -0.196743 -6.86077e-17)
(3.99287 -0.197409 0)
(4.07281 -0.176473 6.74253e-17)
(4.14151 -0.187255 6.68076e-17)
(4.18341 -0.17025 0)
(4.23722 -0.18885 0)
(4.27577 -0.164828 -6.48999e-17)
(4.32553 -0.15574 -1.2851e-16)
(4.35298 -0.159924 0)
(4.38546 -0.17165 0)
(4.42686 -0.162874 0)
(4.43942 -0.148067 -6.1688e-17)
(4.46706 -0.135036 6.10002e-17)
(4.46553 -0.135318 0)
(4.48538 -0.142143 1.19364e-16)
(4.46903 -0.130285 5.9028e-17)
(4.48649 -0.128678 -1.16762e-16)
(4.46414 -0.109845 0)
(4.46393 -0.116026 0)
(4.4322 -0.0942089 -1.12741e-16)
(4.39045 -0.0664172 -5.57141e-17)
(4.3037 -0.0363047 0)
(4.23869 -0.0344592 0)
(4.10534 -0.0167262 0)
(3.99447 0.0249043 0)
(3.78326 0.0508942 -1.0559e-16)
(3.6148 0.095379 0)
(3.31743 0.166232 0)
(3.06153 0.190125 0)
(2.71238 0.21881 0)
(2.3998 0.202459 0)
(2.01036 0.186585 0)
(1.7749 0.151615 -1.00639e-16)
(1.37189 0.148116 0)
(1.24562 0.0812772 0)
(0.861601 0.104442 -1.99429e-16)
(0.858396 0.0214108 9.92522e-17)
(0.474177 0.112639 -9.94022e-17)
(0.669947 -0.125515 9.87818e-17)
(0.0206387 -0.0932458 0)
(0.124873 -0.268043 -4.69575e-17)
(0.247556 -0.488927 0)
(0.375518 -0.75479 -2.27979e-17)
(0.502249 -0.998741 0)
(0.618419 -1.18782 0)
(0.723146 -1.30561 2.24467e-17)
(0.803855 -1.34904 0)
(0.866797 -1.31924 0)
(0.906047 -1.2335 0)
(0.928132 -1.11075 0)
(0.93091 -0.961523 0)
(0.919269 -0.79447 -8.66179e-17)
(0.890505 -0.617389 -4.30261e-17)
(0.848156 -0.434673 4.27466e-17)
(0.791922 -0.253699 0)
(0.723795 -0.0811 0)
(0.642321 0.0804595 0)
(0.550957 0.229529 0)
(0.449251 0.363193 0)
(0.34006 0.48106 -4.11509e-17)
(0.221606 0.583222 -4.08982e-17)
(0.0952021 0.674158 4.0649e-17)
(-0.0369868 0.750336 -4.04013e-17)
(-0.173282 0.813265 0)
(-0.31233 0.861474 0)
(-0.452908 0.897613 -3.9658e-17)
(-0.593838 0.92237 0)
(-0.735689 0.936443 0)
(-0.878062 0.944963 -3.89249e-17)
(-1.02102 0.950451 -3.86817e-17)
(-1.1619 0.948225 -3.84373e-17)
(-1.29974 0.939187 0)
(-1.43433 0.923955 0)
(-1.56434 0.902554 3.76939e-17)
(-1.68935 0.872995 0)
(-1.81036 0.837496 0)
(-1.92773 0.798004 -3.69492e-17)
(-2.04197 0.759912 3.66977e-17)
(-2.15452 0.721666 -3.6449e-17)
(-2.2605 0.682765 0)
(-2.36476 0.643216 0)
(-2.46488 0.606627 -7.14207e-17)
(-2.56214 0.572127 0)
(-2.65396 0.533845 -7.04547e-17)
(-2.7423 0.495552 -1.04965e-16)
(-2.82694 0.459507 1.04244e-16)
(-2.90632 0.423032 -6.90157e-17)
(-2.98248 0.385614 0)
(-3.05611 0.349771 0)
(-3.12937 0.321447 -6.76034e-17)
(-3.19994 0.296807 -3.35713e-17)
(-3.26416 0.271061 0)
(-3.32422 0.249792 0)
(-3.37963 0.234335 -3.28792e-17)
(-3.42965 0.217484 -6.52985e-17)
(-3.47335 0.198526 0)
(-3.51112 0.180595 6.43804e-17)
(-3.54483 0.166098 -6.39211e-17)
(-3.57339 0.152476 6.34652e-17)
(-3.59581 0.138327 0)
(-3.61245 0.125107 0)
(-3.62451 0.113735 0)
(-3.63144 0.102124 0)
(-3.63476 0.0916053 0)
(-3.6333 0.0763895 6.0775e-17)
(-3.6275 0.0598889 0)
(-3.6145 0.0415591 0)
(-3.59572 0.0209051 0)
(-3.57264 -0.000690369 1.18049e-16)
(-3.54411 -0.0243849 5.85922e-17)
(-3.51072 -0.0480708 5.81587e-17)
(-3.47246 -0.0748107 -1.15459e-16)
(-3.42776 -0.105966 5.73045e-17)
(-3.37977 -0.135872 -5.68852e-17)
(-3.32551 -0.163348 0)
(-3.26648 -0.189395 5.60385e-17)
(-3.19755 -0.216182 0)
(-3.12451 -0.24151 0)
(-3.04586 -0.263518 0)
(-2.96573 -0.284444 1.08721e-16)
(-2.88344 -0.303733 -5.39473e-17)
(-2.79787 -0.32288 -5.3534e-17)
(-2.71099 -0.341835 -1.06273e-16)
(-2.62016 -0.361852 -1.5822e-16)
(-2.52827 -0.377831 -5.23448e-17)
(-2.43164 -0.390944 0)
(-2.33527 -0.402479 -1.03073e-16)
(-2.23742 -0.410531 0)
(-2.13956 -0.416716 -1.52209e-16)
(-2.04105 -0.426615 0)
(-1.94357 -0.433024 -1.49835e-16)
(-1.84004 -0.43929 0)
(-1.73601 -0.439947 0)
(-1.62732 -0.441535 -4.87484e-17)
(-1.52009 -0.438432 0)
(-1.40957 -0.438092 4.79744e-17)
(-1.30388 -0.433448 9.51606e-17)
(-1.19022 -0.435219 4.72058e-17)
(-1.08048 -0.436945 9.36539e-17)
(-0.962076 -0.437541 -9.2897e-17)