/*--------------------------------*- C++ -*----------------------------------*\
| =========                 |                                                 |
| \\      /  F ield         | OpenFOAM: The Open Source CFD Toolbox           |
|  \\    /   O peration     | Version:  dev                                   |
|   \\  /    A nd           | Web:      http://www.openfoam.org               |
|    \\/     M anipulation  |                                                 |
\*---------------------------------------------------------------------------*/
FoamFile
{
    version     2.0;
    format      ascii;
    class       volSymmTensorField;
    object      UPrime2Mean;
    location    "9.164";
}
// * * * * * * * * * * * * * * * * * * * * * * * * * * * * * * * * * * * * * //

dimensions      [0 2 -2 0 0 0 0];

internalField   nonuniform List<symmTensor> 
12225
(
(0.329282 0.0192518 0 0.0691625 0 0)
(2.98663 0.0796173 0 0.0780711 0 0)
(7.88162 0.112185 0 0.0767766 0 0)
(14.5367 0.148028 0 0.0754542 0 0)
(22.7066 0.13279 0 0.0764019 0 0)
(32.0721 0.200799 0 0.0745592 0 0)
(42.3861 0.0956915 0 0.0765025 0 0)
(53.5311 0.20006 0 0.0737433 0 0)
(65.6262 -0.0287629 0 0.0775084 0 0)
(78.2247 0.125297 0 0.0735169 0 0)
(92.9718 -0.306532 0 0.0812151 0 0)
(107.314 -0.116066 0 0.0768957 0 0)
(127.925 -0.672606 0 0.086231 0 0)
(145.627 -1.27704 0 0.134599 0 0)
(185.95 -1.41129 0 0.116382 0 0)
(198.525 -0.393585 0 2.39315 0 0)
(272.305 -33.5337 0 5.80705 0 0)
(575.809 -52.9267 0 18.8189 0 0)
(0.377454 0.056748 0 0.687927 0 0)
(3.15664 0.251997 0 0.731151 0 0)
(8.41207 0.36176 0 0.713042 0 0)
(15.4759 0.484839 0 0.705549 0 0)
(24.201 0.452413 0 0.70243 0 0)
(34.4614 0.632015 0 0.682287 0 0)
(45.5302 0.295432 0 0.691094 0 0)
(58.4868 0.608138 0 0.657805 0 0)
(71.4789 -0.135844 0 0.68168 0 0)
(87.1545 0.281858 0 0.645052 0 0)
(102.789 -1.06574 0 0.710388 0 0)
(121.433 -0.766372 0 0.654645 0 0)
(142.857 -2.54352 0 1.06808 0 0)
(166.318 -4.48963 0 1.0459 0 0)
(199.787 -0.929571 0 3.10213 0 0)
(274.373 -9.97563 0 6.603 0 0)
(281.062 -20.8372 0 8.73493 0 0)
(799.878 -185.164 0 64.6852 0 0)
(0.504924 0.0583389 0 2.13733 0 0)
(3.0644 0.424205 0 2.19915 0 0)
(8.46667 0.569985 0 2.14816 0 0)
(14.8547 0.850979 0 2.13965 0 0)
(24.2783 0.863523 0 2.11661 0 0)
(33.1547 1.05177 0 2.07948 0 0)
(45.2753 0.755089 0 2.07527 0 0)
(56.2078 0.884858 0 2.00463 0 0)
(69.6924 0.171032 0 2.0488 0 0)
(83.4554 0.0157163 0 1.95659 0 0)
(98.1959 -1.12474 0 2.11988 0 0)
(115.673 -2.44881 0 2.09195 0 0)
(138.631 -3.59765 0 2.62002 0 0)
(154.888 -7.2 0 2.82902 0 0)
(211.021 -13.0078 0 6.11956 0 0)
(223.42 -7.89371 0 6.37482 0 0)
(353.027 -62.2586 0 31.0797 0 0)
(534.526 -192.477 0 98.2134 0 0)
(1.02921 0.0923475 0 4.66338 0 0)
(3.54948 0.618887 0 4.7598 0 0)
(9.06923 0.81511 0 4.63581 0 0)
(15.0682 1.14877 0 4.59512 0 0)
(24.6388 1.31147 0 4.55094 0 0)
(32.9879 1.3482 0 4.47674 0 0)
(45.0101 1.25952 0 4.44186 0 0)
(55.1745 0.971491 0 4.34357 0 0)
(68.6083 0.473818 0 4.37542 0 0)
(80.7229 -0.284688 0 4.25202 0 0)
(96.0475 -1.33326 0 4.50153 0 0)
(110.527 -3.34343 0 4.36679 0 0)
(131.49 -4.79618 0 5.29704 0 0)
(152.269 -10.973 0 5.60291 0 0)
(187.878 -11.4322 0 9.28439 0 0)
(238.439 -28.8641 0 16.8167 0 0)
(291.481 -58.9156 0 32.6719 0 0)
(414.842 -178.317 0 107.821 0 0)
(1.86281 0.364814 0 8.50983 0 0)
(5.00891 0.719717 0 8.71106 0 0)
(9.43624 1.139 0 8.46027 0 0)
(16.2436 1.29339 0 8.3573 0 0)
(24.6514 1.69894 0 8.26788 0 0)
(33.9507 1.50049 0 8.133 0 0)
(44.8256 1.59533 0 8.03259 0 0)
(55.5298 0.990356 0 7.90079 0 0)
(68.4234 0.597398 0 7.84806 0 0)
(80.1317 -0.597002 0 7.75057 0 0)
(95.383 -1.78233 0 7.95261 0 0)
(108.571 -4.2312 0 7.90025 0 0)
(128.112 -6.88335 0 9.01775 0 0)
(145.241 -12.2912 0 9.25969 0 0)
(173.982 -19.2044 0 14.5835 0 0)
(217.906 -25.9566 0 17.2018 0 0)
(233.689 -55.5759 0 46.2574 0 0)
(326.671 -171.737 0 138.643 0 0)
(2.56148 0.750095 0 14.0188 0 0)
(6.32443 0.80672 0 14.3701 0 0)
(9.30115 1.53865 0 13.9409 0 0)
(17.0983 1.59314 0 13.7465 0 0)
(24.144 2.11839 0 13.5721 0 0)
(34.2707 1.93426 0 13.3404 0 0)
(43.9819 1.98803 0 13.1358 0 0)
(55.179 1.41205 0 12.8954 0 0)
(67.3375 0.890584 0 12.7595 0 0)
(78.9208 -0.39025 0 12.5589 0 0)
(94.4387 -1.74294 0 12.7603 0 0)
(105.844 -4.31712 0 12.6691 0 0)
(128.128 -7.27105 0 13.9728 0 0)
(137.957 -13.161 0 14.6524 0 0)
(170.986 -21.839 0 21.2367 0 0)
(191.493 -33.0435 0 24.5873 0 0)
(211.094 -55.916 0 51.5555 0 0)
(265.664 -145.634 0 130.598 0 0)
(2.24434 0.721202 0 21.4999 0 0)
(5.54362 0.940695 0 22.1152 0 0)
(9.20141 1.76215 0 21.342 0 0)
(16.3423 2.07559 0 21.1546 0 0)
(23.9773 2.44717 0 20.7566 0 0)
(33.37 2.53963 0 20.5238 0 0)
(43.6197 2.27038 0 20.0565 0 0)
(54.0599 1.92391 0 19.8269 0 0)
(66.4982 0.891969 0 19.4103 0 0)
(77.3765 -0.223559 0 19.2577 0 0)
(92.5341 -2.37757 0 19.1993 0 0)
(103.517 -4.82868 0 19.2422 0 0)
(123.66 -8.987 0 20.4534 0 0)
(133.945 -14.2658 0 21.4317 0 0)
(161.556 -24.4055 0 28.4944 0 0)
(169.398 -32.4134 0 32.032 0 0)
(203.394 -59.008 0 56.8331 0 0)
(190.259 -108.752 0 114.086 0 0)
(1.4245 0.598382 0 29.7095 0 0)
(4.32237 1.13404 0 30.5938 0 0)
(8.58461 1.92234 0 29.4482 0 0)
(15.2542 2.47028 0 29.2772 0 0)
(23.2113 2.77419 0 28.6331 0 0)
(32.272 2.95952 0 28.3724 0 0)
(42.4278 2.59361 0 27.6222 0 0)
(52.8002 2.18595 0 27.3421 0 0)
(64.4405 1.00139 0 26.62 0 0)
(75.6291 -0.369701 0 26.4554 0 0)
(88.6622 -2.75888 0 26.0738 0 0)
(100.447 -5.74231 0 26.2989 0 0)
(115.565 -10.3288 0 27.0569 0 0)
(128.095 -15.8061 0 28.5721 0 0)
(144.682 -26.4961 0 33.886 0 0)
(152.045 -33.4628 0 37.4516 0 0)
(180.344 -54.8908 0 53.1524 0 0)
(139.612 -71.3095 0 83.6571 0 0)
(1.00746 0.521059 0 38.4672 0 0)
(3.77863 1.28702 0 39.66 0 0)
(8.18127 2.03402 0 38.1248 0 0)
(14.73 2.77703 0 37.9839 0 0)
(22.6569 3.00224 0 37.0755 0 0)
(31.5918 3.31124 0 36.8008 0 0)
(41.512 2.79959 0 35.7517 0 0)
(51.7833 2.46693 0 35.4337 0 0)
(62.8405 1.03136 0 34.4271 0 0)
(73.8553 -0.289178 0 34.2278 0 0)
(85.6739 -3.05442 0 33.5992 0 0)
(97.0319 -5.91259 0 33.8596 0 0)
(109.359 -10.9576 0 34.3705 0 0)
(121.232 -16.0481 0 36.0908 0 0)
(131.241 -25.5698 0 39.9741 0 0)
(138.16 -33.2129 0 44.7046 0 0)
(150.006 -47.3239 0 52.4315 0 0)
(123.229 -58.7522 0 73.0843 0 0)
(0.61206 0.484275 0 49.6368 0 0)
(3.23598 1.44479 0 51.2227 0 0)
(7.74224 2.18452 0 49.1295 0 0)
(14.1998 3.03276 0 49.0421 0 0)
(21.9942 3.2693 0 47.7549 0 0)
(30.8523 3.57383 0 47.476 0 0)
(40.4771 3.05862 0 46.0171 0 0)
(50.6117 2.62901 0 45.6493 0 0)
(61.1356 1.15324 0 44.2325 0 0)
(71.8033 -0.303066 0 43.9899 0 0)
(82.6847 -3.15278 0 42.9484 0 0)
(93.2266 -6.05028 0 43.2685 0 0)
(103.866 -11.1052 0 43.2714 0 0)
(113.729 -15.857 0 45.1288 0 0)
(121.338 -24.5151 0 47.6338 0 0)
(125.776 -30.5793 0 51.9049 0 0)
(129.111 -40.7232 0 56.4268 0 0)
(116.02 -48.393 0 68.9885 0 0)
(0.434063 0.515833 0 63.8097 0 0)
(2.97898 1.62591 0 65.8618 0 0)
(7.46972 2.38111 0 63.1741 0 0)
(13.8459 3.30651 0 63.0624 0 0)
(21.4919 3.5648 0 61.4311 0 0)
(30.1895 3.85289 0 61.0172 0 0)
(39.5478 3.34878 0 59.2122 0 0)
(49.3853 2.80937 0 58.6185 0 0)
(59.4543 1.35905 0 56.901 0 0)
(69.5561 -0.27944 0 56.3847 0 0)
(79.6505 -2.995 0 55.0852 0 0)
(89.1838 -6.09584 0 55.1429 0 0)
(98.4998 -10.5678 0 54.7997 0 0)
(106.375 -15.4303 0 56.3489 0 0)
(112.539 -22.1445 0 57.795 0 0)
(115.073 -28.0589 0 61.5257 0 0)
(116.018 -35.2037 0 64.4935 0 0)
(109.57 -40.8017 0 71.3927 0 0)
(0.356303 0.540094 0 81.2766 0 0)
(2.83134 1.74304 0 83.9579 0 0)
(7.26147 2.55202 0 80.4953 0 0)
(13.5155 3.49696 0 80.3862 0 0)
(20.988 3.80331 0 78.303 0 0)
(29.4656 4.02951 0 77.7508 0 0)
(38.5216 3.55202 0 75.4653 0 0)
(47.9895 2.90906 0 74.6422 0 0)
(57.5411 1.46945 0 72.4539 0 0)
(67.032 -0.235839 0 71.669 0 0)
(76.243 -2.88633 0 69.9173 0 0)
(84.8268 -5.87203 0 69.6605 0 0)
(92.7311 -9.9764 0 68.8285 0 0)
(99.1585 -14.3047 0 69.7845 0 0)
(103.872 -19.7506 0 70.4299 0 0)
(105.815 -24.663 0 72.9363 0 0)
(105.971 -29.8275 0 74.8811 0 0)
(101.727 -33.3118 0 78.5398 0 0)
(0.329236 0.568535 0 102.323 0 0)
(2.7359 1.80465 0 105.528 0 0)
(7.06835 2.67983 0 101.508 0 0)
(13.1542 3.5785 0 101.039 0 0)
(20.4313 3.92727 0 98.7785 0 0)
(28.6138 4.04695 0 97.7005 0 0)
(37.3452 3.60605 0 95.1899 0 0)
(46.3433 2.82308 0 93.743 0 0)
(55.3696 1.46243 0 91.3107 0 0)
(64.1481 -0.355149 0 89.8627 0 0)
(72.5247 -2.77354 0 87.8401 0 0)
(80.1124 -5.70475 0 86.8692 0 0)
(86.8318 -9.21488 0 85.6613 0 0)
(92.0911 -13.1035 0 85.6717 0 0)
(95.7919 -17.3212 0 85.6251 0 0)
(97.3763 -21.3872 0 86.7698 0 0)
(97.4789 -25.2311 0 87.8002 0 0)
(94.6755 -27.6863 0 89.4082 0 0)
(0.313647 0.57276 0 126.282 0 0)
(2.64058 1.77189 0 130.205 0 0)
(6.84753 2.66425 0 125.502 0 0)
(12.73 3.45848 0 124.694 0 0)
(19.765 3.78528 0 122.166 0 0)
(27.6136 3.79834 0 120.592 0 0)
(35.953 3.32406 0 117.714 0 0)
(44.4603 2.47648 0 115.684 0 0)
(52.8949 1.12114 0 112.828 0 0)
(60.9862 -0.642525 0 110.741 0 0)
(68.533 -2.91075 0 108.255 0 0)
(75.2545 -5.54276 0 106.532 0 0)
(80.9907 -8.5979 0 104.768 0 0)
(85.4385 -11.8211 0 103.768 0 0)
(88.4832 -15.1837 0 102.94 0 0)
(89.9204 -18.3509 0 102.77 0 0)
(90.2227 -21.2695 0 102.787 0 0)
(88.2603 -22.9167 0 102.943 0 0)
(0.29925 0.524342 0 151.66 0 0)
(2.53264 1.5799 0 156.155 0 0)
(6.58337 2.37466 0 151.033 0 0)
(12.2321 2.98393 0 149.596 0 0)
(18.9719 3.20676 0 147.041 0 0)
(26.4492 3.06424 0 144.732 0 0)
(34.3477 2.52341 0 141.647 0 0)
(42.335 1.59105 0 138.845 0 0)
(50.1697 0.261501 0 135.652 0 0)
(57.587 -1.44346 0 132.779 0 0)
(64.3981 -3.50523 0 129.833 0 0)
(70.3752 -5.84278 0 127.265 0 0)
(75.3878 -8.41951 0 124.867 0 0)
(79.2735 -11.0714 0 122.87 0 0)
(81.9709 -13.7092 0 121.16 0 0)
(83.3885 -16.1736 0 119.826 0 0)
(83.9707 -18.3718 0 118.741 0 0)
(82.7641 -19.4187 0 117.634 0 0)
(0.283973 0.393886 0 174.849 0 0)
(2.41426 1.14447 0 180.041 0 0)
(6.28319 1.66895 0 174.441 0 0)
(11.6705 2.00083 0 172.561 0 0)
(18.0765 1.99778 0 169.883 0 0)
(25.1553 1.66085 0 167.036 0 0)
(32.586 0.980199 0 163.654 0 0)
(40.0531 -0.0287265 0 160.262 0 0)
(47.3093 -1.363 0 156.65 0 0)
(54.1215 -2.97478 0 153.142 0 0)
(60.3116 -4.8429 0 149.66 0 0)
(65.7155 -6.87351 0 146.375 0 0)
(70.2283 -9.02751 0 143.283 0 0)
(73.777 -11.1752 0 140.433 0 0)
(76.3321 -13.2388 0 137.848 0 0)
(77.8579 -15.1382 0 135.527 0 0)
(78.7395 -16.7855 0 133.42 0 0)
(78.1913 -17.3842 0 131.227 0 0)
(0.268749 0.156484 0 189.938 0 0)
(2.29343 0.391409 0 195.602 0 0)
(5.96672 0.489616 0 189.716 0 0)
(11.0749 0.4114 0 187.576 0 0)
(17.1308 0.0751114 0 184.833 0 0)
(23.8019 -0.532907 0 181.667 0 0)
(30.7709 -1.40174 0 178.093 0 0)
(37.7424 -2.52366 0 174.346 0 0)
(44.4803 -3.87303 0 170.44 0 0)
(50.7785 -5.41271 0 166.527 0 0)
(56.484 -7.09924 0 162.64 0 0)
(61.4753 -8.8675 0 158.867 0 0)
(65.6768 -10.663 0 155.237 0 0)
(69.0593 -12.4079 0 151.781 0 0)
(71.6157 -14.0261 0 148.521 0 0)
(73.3348 -15.496 0 145.482 0 0)
(74.5293 -16.7321 0 142.595 0 0)
(74.5741 -17.0541 0 139.606 0 0)
(0.259105 -0.141861 0 189.91 0 0)
(2.19593 -0.532364 0 195.533 0 0)
(5.69011 -0.934778 0 189.71 0 0)
(10.5421 -1.48898 0 187.561 0 0)
(16.2824 -2.20852 0 184.861 0 0)
(22.5933 -3.11012 0 181.701 0 0)
(29.1669 -4.18294 0 178.152 0 0)
(35.7303 -5.4212 0 174.408 0 0)
(42.061 -6.79445 0 170.488 0 0)
(47.9814 -8.27404 0 166.542 0 0)
(53.3553 -9.8132 0 162.574 0 0)
(58.0945 -11.3694 0 158.694 0 0)
(62.1379 -12.8898 0 154.887 0 0)
(65.4794 -14.331 0 151.23 0 0)
(68.1177 -15.6278 0 147.694 0 0)
(70.0584 -16.7872 0 144.361 0 0)
(71.5347 -17.7339 0 141.118 0 0)
(72.0689 -17.9396 0 137.794 0 0)
(0.255924 -0.395288 0 174.116 0 0)
(2.13672 -1.30311 0 179.06 0 0)
(5.49934 -2.1229 0 173.738 0 0)
(10.1615 -3.06972 0 171.748 0 0)
(15.6683 -4.09672 0 169.27 0 0)
(21.7151 -5.22462 0 166.384 0 0)
(28.0047 -6.44634 0 163.138 0 0)
(34.2825 -7.75874 0 159.719 0 0)
(40.3386 -9.13338 0 156.119 0 0)
(46.0163 -10.5503 0 152.496 0 0)
(51.1905 -11.9676 0 148.818 0 0)
(55.7928 -13.3587 0 145.216 0 0)
(59.77 -14.6787 0 141.639 0 0)
(63.126 -15.9044 0 138.193 0 0)
(65.8591 -16.9845 0 134.814 0 0)
(67.9866 -17.9338 0 131.618 0 0)
(69.6775 -18.6913 0 128.468 0 0)
(70.5749 -18.8796 0 125.274 0 0)
(0.25737 -0.544194 0 148.719 0 0)
(2.1089 -1.74357 0 152.67 0 0)
(5.38486 -2.81691 0 148.14 0 0)
(9.91936 -3.99823 0 146.425 0 0)
(15.2695 -5.20009 0 144.307 0 0)
(21.1394 -6.44747 0 141.857 0 0)
(27.2412 -7.73236 0 139.097 0 0)
(33.333 -9.05656 0 136.196 0 0)
(39.2151 -10.3927 0 133.129 0 0)
(44.7438 -11.7308 0 130.042 0 0)
(49.8037 -13.0327 0 126.891 0 0)
(54.3356 -14.285 0 123.801 0 0)
(58.2933 -15.4485 0 120.711 0 0)
(61.6824 -16.5141 0 117.727 0 0)
(64.5019 -17.4384 0 114.783 0 0)
(66.7741 -18.2402 0 111.99 0 0)
(68.624 -18.8691 0 109.222 0 0)
(69.7845 -19.0791 0 106.435 0 0)
(0.260228 -0.599961 0 119.859 0 0)
(2.09991 -1.88565 0 122.824 0 0)
(5.31875 -3.06129 0 119.181 0 0)
(9.76785 -4.33201 0 117.789 0 0)
(15.0131 -5.58828 0 116.086 0 0)
(20.7653 -6.85621 0 114.124 0 0)
(26.7434 -8.12551 0 111.915 0 0)
(32.7145 -9.40148 0 109.592 0 0)
(38.4862 -10.6588 0 107.131 0 0)
(43.9233 -11.8942 0 104.651 0 0)
(48.9181 -13.0741 0 102.113 0 0)
(53.416 -14.1938 0 99.6183 0 0)
(57.376 -15.2188 0 97.1175 0 0)
(60.8026 -16.1492 0 94.6959 0 0)
(63.6962 -16.9479 0 92.3015 0 0)
(66.0817 -17.6345 0 90.0217 0 0)
(68.0538 -18.168 0 87.7605 0 0)
(69.413 -18.4039 0 85.489 0 0)
(0.263163 -0.589242 0 91.751 0 0)
(2.09953 -1.82615 0 93.863 0 0)
(5.28092 -2.99057 0 91.0762 0 0)
(9.67313 -4.23873 0 90.0042 0 0)
(14.8478 -5.45702 0 88.7068 0 0)
(20.5214 -6.66784 0 87.2141 0 0)
(26.4177 -7.86075 0 85.536 0 0)
(32.31 -9.04068 0 83.7667 0 0)
(38.0116 -10.1869 0 81.8937 0 0)
(43.3924 -11.2982 0 79.9995 0 0)
(48.3506 -12.3476 0 78.0616 0 0)
(52.8342 -13.3333 0 76.15 0 0)
(56.8054 -14.228 0 74.2349 0 0)
(60.2674 -15.034 0 72.3744 0 0)
(63.222 -15.7234 0 70.536 0 0)
(65.6961 -16.3111 0 68.7788 0 0)
(67.7626 -16.7678 0 67.0388 0 0)
(69.2746 -17.0174 0 65.2886 0 0)
(0.266236 -0.535591 0 66.8349 0 0)
(2.10334 -1.64744 0 68.2729 0 0)
(5.25957 -2.72518 0 66.2442 0 0)
(9.61402 -3.87597 0 65.4625 0 0)
(14.7414 -4.99371 0 64.5256 0 0)
(20.3626 -6.09424 0 63.4454 0 0)
(26.2054 -7.16956 0 62.2329 0 0)
(32.0466 -8.2215 0 60.9491 0 0)
(37.7042 -9.23526 0 59.5922 0 0)
(43.0514 -10.2083 0 58.2145 0 0)
(47.9907 -11.1215 0 56.8076 0 0)
(52.4711 -11.9723 0 55.4151 0 0)
(56.4573 -12.7412 0 54.0233 0 0)
(59.9514 -13.4301 0 52.6666 0 0)
(62.956 -14.0192 0 51.3286 0 0)
(65.4992 -14.5179 0 50.0448 0 0)
(67.6381 -14.9078 0 48.777 0 0)
(69.268 -15.1557 0 47.498 0 0)
(0.268098 -0.461921 0 46.2212 0 0)
(2.10775 -1.41305 0 47.1585 0 0)
(5.24771 -2.35908 0 45.7599 0 0)
(9.57718 -3.36862 0 45.2226 0 0)
(14.6729 -4.3481 0 44.5823 0 0)
(20.2595 -5.30695 0 43.8396 0 0)
(26.0676 -6.24013 0 43.0067 0 0)
(31.8765 -7.14592 0 42.1207 0 0)
(37.5073 -8.01537 0 41.1866 0 0)
(42.8353 -8.84376 0 40.2349 0 0)
(47.7653 -9.61886 0 39.2663 0 0)
(52.2477 -10.3366 0 38.3052 0 0)
(56.2485 -10.9847 0 37.3471 0 0)
(59.7685 -11.5625 0 36.4105 0 0)
(62.8111 -12.0579 0 35.4887 0 0)
(65.4051 -12.4745 0 34.601 0 0)
(67.5961 -12.8024 0 33.7274 0 0)
(69.3118 -13.0328 0 32.8427 0 0)
(0.269248 -0.382289 0 30.1133 0 0)
(2.11126 -1.16234 0 30.6968 0 0)
(5.24092 -1.9545 0 29.788 0 0)
(9.55365 -2.80201 0 29.4413 0 0)
(14.628 -3.62435 0 29.0298 0 0)
(20.1914 -4.42771 0 28.5499 0 0)
(25.9765 -5.20833 0 28.0115 0 0)
(31.7632 -5.96316 0 27.4367 0 0)
(37.3752 -6.6857 0 26.8315 0 0)
(42.6886 -7.37117 0 26.214 0 0)
(47.6103 -8.01103 0 25.587 0 0)
(52.0901 -8.6011 0 24.9635 0 0)
(56.0962 -9.13343 0 24.3434 0 0)
(59.6285 -9.6061 0 23.7357 0 0)
(62.6907 -10.0116 0 23.1385 0 0)
(65.3106 -10.3501 0 22.5617 0 0)
(67.5285 -10.6173 0 21.9956 0 0)
(69.2972 -10.8149 0 21.4209 0 0)
(0.269556 -0.30397 0 18.1846 0 0)
(2.11301 -0.917973 0 18.5283 0 0)
(5.23554 -1.55113 0 17.9785 0 0)
(9.53423 -2.23287 0 17.7728 0 0)
(14.5896 -2.89598 0 17.53 0 0)
(20.1309 -3.54504 0 17.2459 0 0)
(25.8915 -4.17531 0 16.9262 0 0)
(31.6527 -4.78348 0 16.5837 0 0)
(37.239 -5.36297 0 16.2225 0 0)
(42.5271 -5.91032 0 15.853 0 0)
(47.4262 -6.41823 0 15.477 0 0)
(51.8851 -6.88434 0 15.1024 0 0)
(55.8753 -7.30181 0 14.7295 0 0)
(59.3948 -7.67036 0 14.3633 0 0)
(62.4518 -7.98418 0 14.0034 0 0)
(65.0689 -8.24382 0 13.6549 0 0)
(67.29 -8.44847 0 13.3135 0 0)
(69.0862 -8.59889 0 12.9672 0 0)
(0.269206 -0.227802 0 9.86742 0 0)
(2.11074 -0.68991 0 10.0507 0 0)
(5.21831 -1.17642 0 9.75392 0 0)
(9.49074 -1.70524 0 9.6517 0 0)
(14.5159 -2.21883 0 9.52748 0 0)
(20.0238 -2.71852 0 9.3785 0 0)
(25.7474 -3.19998 0 9.20807 0 0)
(31.4706 -3.66072 0 9.02412 0 0)
(37.0178 -4.09498 0 8.82867 0 0)
(42.2687 -4.50121 0 8.62797 0 0)
(47.1319 -4.8738 0 8.42263 0 0)
(51.5606 -5.21289 0 8.21782 0 0)
(55.5255 -5.5127 0 8.01296 0 0)
(59.0287 -5.7754 0 7.81202 0 0)
(62.0775 -5.9949 0 7.61405 0 0)
(64.6936 -6.17473 0 7.42305 0 0)
(66.9184 -6.31784 0 7.23657 0 0)
(68.7479 -6.41991 0 7.04866 0 0)
(0.26806 -0.154494 0 4.4793 0 0)
(2.08388 -0.496902 0 4.5748 0 0)
(5.15703 -0.850742 0 4.44979 0 0)
(9.38992 -1.22646 0 4.41421 0 0)
(14.3894 -1.58292 0 4.36321 0 0)
(19.8718 -1.92472 0 4.29887 0 0)
(25.5689 -2.24923 0 4.22167 0 0)
(31.2661 -2.5542 0 4.13531 0 0)
(36.7903 -2.83803 0 4.04242 0 0)
(42.0205 -3.10189 0 3.94674 0 0)
(46.867 -3.34285 0 3.84908 0 0)
(51.2863 -3.56178 0 3.75214 0 0)
(55.2455 -3.75491 0 3.6554 0 0)
(58.7547 -3.92432 0 3.56156 0 0)
(61.8101 -4.06388 0 3.46904 0 0)
(64.445 -4.1789 0 3.38171 0 0)
(66.667 -4.26938 0 3.2966 0 0)
(68.5247 -4.33943 0 3.21253 0 0)
(0.255173 -0.088006 0 1.41885 0 0)
(2.06794 -0.312843 0 1.4845 0 0)
(5.2055 -0.524987 0 1.44451 0 0)
(9.49684 -0.732972 0 1.43137 0 0)
(14.5498 -0.922735 0 1.41129 0 0)
(20.0834 -1.10507 0 1.38805 0 0)
(25.8368 -1.28146 0 1.36145 0 0)
(31.5932 -1.44936 0 1.33217 0 0)
(37.1788 -1.60712 0 1.30122 0 0)
(42.4681 -1.75455 0 1.26966 0 0)
(47.3741 -1.89015 0 1.23789 0 0)
(51.8458 -2.01394 0 1.20652 0 0)
(55.8548 -2.12389 0 1.17553 0 0)
(59.4036 -2.22065 0 1.14561 0 0)
(62.4923 -2.30014 0 1.11639 0 0)
(65.1587 -2.36632 0 1.08994 0 0)
(67.3804 -2.41892 0 1.06477 0 0)
(69.23 -2.4584 0 1.03786 0 0)
(0.245861 -0.0252729 0 0.14163 0 0)
(2.06576 -0.0976301 0 0.153396 0 0)
(5.18435 -0.165232 0 0.150615 0 0)
(9.44482 -0.230348 0 0.149447 0 0)
(14.479 -0.293134 0 0.147147 0 0)
(19.9999 -0.353368 0 0.144423 0 0)
(25.7466 -0.4121 0 0.141428 0 0)
(31.5005 -0.468524 0 0.138302 0 0)
(37.0932 -0.521803 0 0.135083 0 0)
(42.4002 -0.571754 0 0.131836 0 0)
(47.3364 -0.618067 0 0.128583 0 0)
(51.8489 -0.660717 0 0.125386 0 0)
(55.9111 -0.699128 0 0.122247 0 0)
(59.5185 -0.733154 0 0.119228 0 0)
(62.6773 -0.762063 0 0.116407 0 0)
(65.4204 -0.787296 0 0.114074 0 0)
(67.7321 -0.805503 0 0.112004 0 0)
(69.6593 -0.814799 0 0.111622 0 0)
(0.0244653 0.0357272 0 0.71642 0 0)
(0.267057 0.0989953 0 0.677554 0 0)
(0.784828 0.180708 0 0.670402 0 0)
(1.53766 0.294617 0 0.661185 0 0)
(2.48389 0.423455 0 0.65958 0 0)
(3.60536 0.568054 0 0.656314 0 0)
(4.88014 0.714896 -2.38204e-19 0.65435 -6.47016e-20 1.47681e-37)
(6.30541 0.865582 2.4225e-19 0.650042 6.89936e-20 1.4813e-37)
(7.87449 1.01232 0 0.644032 0 0)
(9.5854 1.15954 2.44767e-19 0.63646 6.84114e-20 1.45911e-37)
(11.4329 1.30339 0 0.62788 0 0)
(13.4111 1.4461 0 0.618793 0 0)
(15.5132 1.58307 0 0.610847 0 0)
(17.733 1.71464 -2.77433e-19 0.60439 -5.15783e-20 1.34571e-37)
(20.0643 1.83763 0 0.598192 0 0)
(22.5075 1.95114 0 0.592977 0 0)
(25.0628 2.05098 3.40518e-19 0.588698 3.89845e-20 1.21937e-37)
(27.7288 2.13879 0 0.584267 0 0)
(30.5007 2.21718 0 0.579625 0 0)
(33.3726 2.28836 0 0.575202 0 0)
(36.3288 2.3514 -4.56074e-19 0.571883 -1.95933e-20 1.01658e-37)
(39.3598 2.40708 0 0.568134 0 0)
(42.4518 2.45351 -5.15638e-19 0.565883 -1.0341e-20 9.24142e-38)
(45.5957 2.49052 0 0.567088 0 0)
(48.7754 2.52422 0 0.567849 0 0)
(51.9768 2.54726 -6.03549e-19 0.570015 1.17135e-21 7.96836e-38)
(55.1931 2.54943 0 0.571841 0 0)
(58.4283 2.53201 6.57091e-19 0.570321 -6.89625e-21 7.20923e-38)
(61.6764 2.50101 0 0.562484 0 0)
(64.9432 2.4583 -7.01782e-19 0.552122 1.04466e-20 6.53316e-38)
(68.2271 2.40644 0 0.538616 0 0)
(71.5156 2.3479 0 0.522872 0 0)
(74.8012 2.28254 0 0.508933 0 0)
(78.0851 2.20662 0 0.497653 0 0)
(81.3612 2.1196 0 0.486183 0 0)
(84.6261 2.0244 7.78958e-19 0.475332 -1.40015e-20 4.59419e-38)
(87.8783 1.9208 0 0.463769 0 0)
(91.1188 1.80866 -1.56129e-18 0.447815 2.71723e-20 1.61192e-37)
(94.3461 1.6895 0 0.4323 0 0)
(97.5554 1.56221 1.55152e-18 0.417712 -2.61861e-20 1.39812e-37)
(100.74 1.42926 0 0.402616 0 0)
(103.899 1.28712 0 0.391061 0 0)
(107.023 1.13678 -1.51372e-18 0.378653 2.16053e-20 1.11145e-37)
(110.094 0.98438 0 0.365851 0 0)
(113.099 0.830149 -1.47534e-18 0.354856 1.83377e-20 9.4233e-38)
(116.021 0.672583 1.45294e-18 0.345868 -1.66316e-20 8.6552e-38)
(118.846 0.508626 0 0.339664 0 0)
(121.567 0.338333 1.40236e-18 0.334736 -1.25902e-20 7.33486e-38)
(124.166 0.162974 1.37425e-18 0.330854 -1.0704e-20 6.7887e-38)
(126.643 -0.0147465 0 0.327619 0 0)
(128.985 -0.193886 0 0.325419 0 0)
(131.171 -0.377184 0 0.322642 0 0)
(133.181 -0.565435 0 0.321361 0 0)
(134.994 -0.755962 0 0.32337 0 0)
(136.584 -0.945468 -1.17425e-18 0.327564 -4.37563e-21 5.01097e-38)
(137.922 -1.13642 0 0.331663 0 0)
(138.995 -1.33209 1.07971e-18 0.335367 1.14602e-20 4.74631e-38)
(139.808 -1.53439 0 0.340624 0 0)
(140.355 -1.74303 0 0.347428 0 0)
(140.621 -1.94899 -9.11988e-19 0.356695 -2.24313e-20 4.74752e-38)
(140.602 -2.15318 0 0.368619 0 0)
(140.281 -2.35823 7.80809e-19 0.380634 3.12168e-20 4.96454e-38)
(139.665 -2.56217 0 0.390934 0 0)
(138.749 -2.76611 0 0.403724 0 0)
(137.543 -2.96926 0 0.417961 0 0)
(136.061 -3.1653 -4.83061e-19 0.432505 -4.75271e-20 6.03024e-38)
(134.304 -3.35424 0 0.447073 0 0)
(132.287 -3.53674 0 0.460138 0 0)
(130.019 -3.71223 -2.27458e-19 0.474047 -6.11895e-20 7.29848e-38)
(127.52 -3.88599 0 0.489938 0 0)
(124.825 -4.05158 -5.16451e-20 0.505261 -6.98921e-20 8.2965e-38)
(121.947 -4.20396 0 0.520195 0 0)
(118.904 -4.34499 0 0.536391 0 0)
(115.729 -4.47647 0 0.553661 0 0)
(112.445 -4.59823 -3.04467e-19 0.571643 8.31235e-20 1.04503e-37)
(109.071 -4.70794 0 0.589631 0 0)
(105.622 -4.80221 0 0.6074 0 0)
(102.109 -4.88124 -5.63925e-19 0.625337 9.02692e-20 1.20121e-37)
(98.5467 -4.9494 -6.45781e-19 0.643987 9.18156e-20 1.25229e-37)
(94.9602 -5.00641 0 0.662682 0 0)
(91.3803 -5.05145 -7.98927e-19 0.682312 9.45907e-20 1.34646e-37)
(87.8278 -5.08516 0 0.703414 0 0)
(84.3231 -5.10703 -1.87761e-18 0.724938 1.92493e-19 5.74243e-37)
(80.8806 -5.11595 0 0.74756 0 0)
(77.5181 -5.11037 -2.12264e-18 0.770111 1.93619e-19 6.07412e-37)
(74.2539 -5.0885 0 0.793038 0 0)
(71.1026 -5.05367 2.32536e-18 0.818965 -1.9376e-19 6.36441e-37)
(68.0816 -5.00563 0 0.843958 0 0)
(65.2053 -4.939 0 0.866257 0 0)
(62.4734 -4.85358 0 0.888939 0 0)
(59.8901 -4.75151 -2.58637e-18 0.913936 1.86168e-19 6.79868e-37)
(57.4613 -4.63516 0 0.938517 0 0)
(55.1962 -4.50281 2.64732e-18 0.962768 -1.79891e-19 6.94604e-37)
(53.0975 -4.35425 0 0.986517 0 0)
(51.1543 -4.1835 -2.6593e-18 1.01009 1.73551e-19 7.0346e-37)
(49.3614 -3.99605 -2.65014e-18 1.03138 1.70328e-19 7.06972e-37)
(47.7065 -3.79591 -2.63111e-18 1.05262 1.66154e-19 7.09632e-37)
(46.1858 -3.58685 0 1.07499 0 0)
(44.7724 -3.36776 0 1.09807 0 0)
(43.4767 -3.13942 0 1.11761 0 0)
(42.2793 -2.90205 0 1.13752 0 0)
(41.1767 -2.66308 0 1.15737 0 0)
(40.1498 -2.42347 0 1.17643 0 0)
(39.1953 -2.18128 0 1.19153 0 0)
(38.2674 -1.93779 0 1.20755 0 0)
(37.3636 -1.70132 2.02539e-18 1.22293 -1.31483e-19 7.07353e-37)
(36.4507 -1.47305 1.91148e-18 1.24007 -1.24221e-19 7.06724e-37)
(35.5537 -1.2542 0 1.25176 0 0)
(34.6384 -1.04404 0 1.26484 0 0)
(33.7135 -0.857575 0 1.27893 0 0)
(32.7298 -0.681743 1.35478e-18 1.29139 -1.04637e-19 6.90904e-37)
(31.7863 -0.531518 0 1.29858 0 0)
(30.7757 -0.389061 0 1.30849 0 0)
(29.8173 -0.286337 0 1.31867 0 0)
(28.8899 -0.20304 0 1.33186 0 0)
(28.0594 -0.152518 -4.39474e-19 1.34033 7.57076e-20 6.66005e-37)
(27.3594 -0.126375 0 1.34969 0 0)
(26.8199 -0.135449 0 1.36319 0 0)
(26.5298 -0.178179 -2.21905e-19 1.37109 -6.55432e-20 6.42571e-37)
(26.4845 -0.246707 4.48903e-19 1.38398 6.12351e-20 6.29952e-37)
(26.7355 -0.356625 0 1.40101 0 0)
(27.342 -0.513152 9.11633e-19 1.41881 6.00859e-20 6.05129e-37)
(28.3627 -0.711248 0 1.43819 0 0)
(29.8649 -0.962772 -1.35303e-18 1.45514 -6.43506e-20 5.75451e-37)
(31.8642 -1.24887 0 1.47786 0 0)
(34.4317 -1.58378 0 1.50488 0 0)
(37.4675 -1.9607 0 1.53759 0 0)
(41.0783 -2.38854 0 1.57189 0 0)
(45.1223 -2.84224 0 1.61008 0 0)
(49.6001 -3.34392 4.89681e-18 1.65237 2.04602e-19 1.97168e-36)
(54.4603 -3.88957 5.152e-18 1.69854 2.30337e-19 1.93713e-36)
(59.7162 -4.4712 0 1.74708 0 0)
(65.1783 -5.07371 0 1.80271 0 0)
(70.7972 -5.70034 0 1.85794 0 0)
(76.4223 -6.3139 -5.69367e-18 1.9187 -3.52156e-19 1.91713e-36)
(81.8333 -6.92882 0 1.98978 0 0)
(86.99 -7.55036 0 2.0621 0 0)
(91.8336 -8.16502 0 2.13846 0 0)
(96.2836 -8.75591 -5.33483e-18 2.21689 -5.33356e-19 2.07196e-36)
(100.302 -9.32162 5.10129e-18 2.30185 5.83173e-19 2.13437e-36)
(103.714 -9.84519 0 2.39129 0 0)
(106.623 -10.3553 0 2.48392 0 0)
(108.999 -10.8099 4.08006e-18 2.5784 7.35311e-19 2.36603e-36)
(110.84 -11.229 3.65028e-18 2.67175 7.84242e-19 2.45125e-36)
(111.998 -11.5734 0 2.77201 0 0)
(112.57 -11.8882 0 2.87195 0 0)
(112.452 -12.1309 -2.05223e-18 2.97603 -9.4573e-19 2.71911e-36)
(111.774 -12.3559 1.42268e-18 3.07106 9.89366e-19 2.79785e-36)
(110.584 -12.5106 0 3.16793 0 0)
(108.68 -12.6111 0 3.26862 0 0)
(106.184 -12.6453 -5.22157e-19 3.3596 1.11723e-18 3.06846e-36)
(103.057 -12.6255 0 3.45016 0 0)
(99.5822 -12.5677 0 3.53378 0 0)
(95.6014 -12.4191 -2.5492e-18 3.60633 1.20624e-18 3.30147e-36)
(91.3091 -12.1984 0 3.6784 0 0)
(86.6901 -11.8666 -3.83273e-18 3.74001 1.25735e-18 3.44467e-36)
(81.8092 -11.4498 0 3.79601 0 0)
(76.7074 -10.9154 0 3.83547 0 0)
(71.767 -10.2824 0 3.85966 0 0)
(66.8876 -9.48477 5.87292e-18 3.87845 -1.27831e-18 3.68158e-36)
(62.2293 -8.56743 0 3.88197 0 0)
(58.0071 -7.49758 0 3.87004 0 0)
(54.5462 -6.30812 0 3.84231 0 0)
(51.6882 -4.93054 0 3.80071 0 0)
(49.5973 -3.47323 0 3.75045 0 0)
(48.8825 -1.91856 0 3.6785 0 0)
(49.6993 -0.291764 6.01783e-18 3.58925 -1.10563e-18 3.73117e-36)
(51.741 1.42096 5.60745e-18 3.4915 -1.0515e-18 3.71326e-36)
(55.4594 3.11039 0 3.37972 0 0)
(60.6988 4.74254 0 3.26134 0 0)
(67.4836 6.32389 0 3.13199 0 0)
(75.405 7.79679 -3.05773e-18 3.00207 7.96105e-19 3.38664e-36)
(84.5292 9.10009 0 2.87383 0 0)
(94.0705 10.2904 2.96054e-18 2.73885 -1.35154e-18 1.23795e-35)
(103.936 11.2495 -1.31668e-18 2.60824 1.21886e-18 1.16766e-35)
(113.561 12.0393 3.18654e-19 2.47642 1.1059e-18 1.10328e-35)
(123.212 12.6906 -2.02413e-18 2.35119 -1.01565e-18 1.03503e-35)
(131.336 13.2329 3.68423e-18 2.23188 9.23536e-19 9.78236e-36)
(139.231 13.7125 -5.29622e-18 2.1243 -9.05377e-19 9.01505e-36)
(142.997 14.4055 0 2.06826 0 0)
(0.0182997 0.174042 0 6.08859 0 0)
(0.202603 0.387458 0 6.02678 0 0)
(0.629091 0.609091 1.31809e-19 5.85436 1.75571e-19 6.75736e-37)
(1.32616 0.85324 0 5.73381 0 0)
(2.26768 1.13204 -1.927e-19 5.67413 -3.52682e-19 9.18311e-37)
(3.44316 1.43626 -1.84534e-19 5.64703 -4.40287e-19 9.71241e-37)
(4.83144 1.76034 -8.11109e-20 5.63163 -2.50751e-19 2.4862e-37)
(6.41825 2.10029 -6.9491e-20 5.61357 -2.69617e-19 2.60839e-37)
(8.19572 2.44886 0 5.58522 0 0)
(10.1619 2.80159 -4.28768e-20 5.54263 -2.68473e-19 2.58979e-37)
(12.318 3.14968 0 5.49077 0 0)
(14.6623 3.49078 0 5.43118 0 0)
(17.1864 3.81974 9.62214e-20 5.36297 4.22974e-19 9.49487e-37)
(19.8912 4.13612 7.02115e-20 5.29118 1.86629e-19 2.33731e-37)
(22.766 4.43018 -1.86668e-19 5.21613 -3.25954e-19 8.92103e-37)
(25.805 4.70182 -2.52633e-19 5.13814 -2.81135e-19 8.64418e-37)
(28.9967 4.9525 -1.71493e-19 5.05403 -1.18501e-19 2.1238e-37)
(32.335 5.18377 0 4.96355 0 0)
(35.8078 5.39402 0 4.86809 0 0)
(39.4066 5.58788 0 4.76565 0 0)
(43.1084 5.76438 -3.86299e-19 4.66098 -3.69787e-20 1.80072e-37)
(46.9043 5.92072 0 4.55665 0 0)
(50.7719 6.04859 1.60709e-18 4.4503 -1.54457e-20 1.54908e-36)
(54.6984 6.15164 0 4.3475 0 0)
(58.6671 6.23162 0 4.2425 0 0)
(62.6604 6.28867 7.73842e-19 4.1384 -5.744e-20 1.56217e-37)
(66.6507 6.31953 0 4.03252 0 0)
(70.6191 6.33349 -9.3176e-19 3.93204 8.15815e-20 1.45721e-37)
(74.5323 6.32414 -1.99101e-18 3.83224 1.81168e-19 5.56051e-37)
(78.38 6.28636 1.0757e-18 3.72975 -9.85762e-20 1.3637e-37)
(82.1583 6.21717 0 3.62229 0 0)
(85.867 6.12009 0 3.51738 0 0)
(89.4927 5.99768 0 3.41444 0 0)
(93.0392 5.85111 -2.57387e-18 3.30661 2.22759e-19 4.70531e-37)
(96.498 5.67488 -2.65221e-18 3.19936 2.20348e-19 4.5442e-37)
(99.8826 5.46928 -1.37233e-18 3.0985 1.07637e-19 1.10587e-37)
(103.201 5.2327 0 3.00668 0 0)
(106.447 4.96019 2.83565e-18 2.91868 -2.03203e-19 4.12228e-37)
(109.629 4.64957 0 2.83365 0 0)
(112.739 4.31011 -2.87268e-18 2.75236 1.88757e-19 3.81066e-37)
(115.786 3.94326 0 2.67233 0 0)
(118.766 3.55693 0 2.60028 0 0)
(121.687 3.15424 2.82628e-18 2.52965 -1.54492e-19 3.31275e-37)
(124.533 2.73226 0 2.46467 0 0)
(127.285 2.28483 8.1578e-18 2.40683 -3.94695e-19 2.68113e-36)
(129.942 1.80786 -2.68829e-18 2.36144 1.19584e-19 2.83343e-37)
(132.507 1.30558 0 2.33398 0 0)
(134.995 0.777811 -2.54888e-18 2.31769 9.12312e-20 2.51429e-37)
(137.391 0.217181 -2.46838e-18 2.31092 7.69352e-20 2.35875e-37)
(139.693 -0.369708 0 2.31287 0 0)
(141.88 -0.968146 0 2.32598 0 0)
(143.932 -1.56408 0 2.34077 0 0)
(145.834 -2.14838 0 2.35407 0 0)
(147.549 -2.72505 0 2.37757 0 0)
(149.065 -3.30258 1.88413e-18 2.41037 1.44585e-20 1.7177e-37)
(150.36 -3.88847 3.45288e-18 2.45364 7.10495e-20 6.5464e-37)
(151.414 -4.47793 -1.64537e-18 2.50469 -5.58875e-20 1.59803e-37)
(152.237 -5.08569 0 2.56077 0 0)
(152.803 -5.69533 2.68947e-18 2.624 1.90293e-19 6.00345e-37)
(153.084 -6.28516 -1.17119e-18 2.69229 -1.13267e-19 1.46595e-37)
(153.107 -6.87106 0 2.76904 0 0)
(152.824 -7.452 -9.79425e-19 2.85898 -1.4855e-19 1.49256e-37)
(152.246 -8.01121 0 2.95239 0 0)
(151.369 -8.5614 0 3.0536 0 0)
(150.189 -9.09415 -1.05104e-18 3.16092 -3.96436e-19 6.24705e-37)
(148.696 -9.59822 4.24331e-19 3.27305 2.14965e-19 1.63534e-37)
(146.922 -10.093 -4.92226e-19 3.39265 -4.62026e-19 6.67578e-37)
(144.863 -10.5662 2.15251e-19 3.51736 4.89112e-19 6.91387e-37)
(142.541 -11.0096 1.14097e-20 3.6417 2.54474e-19 1.82508e-37)
(139.948 -11.4288 0 3.7732 0 0)