/*--------------------------------*- C++ -*----------------------------------*\
| =========                 |                                                 |
| \\      /  F ield         | OpenFOAM: The Open Source CFD Toolbox           |
|  \\    /   O peration     | Version:  dev                                   |
|   \\  /    A nd           | Web:      http://www.openfoam.org               |
|    \\/     M anipulation  |                                                 |
\*---------------------------------------------------------------------------*/
FoamFile
{
    version     2.0;
    format      ascii;
    class       volScalarField;
    object      k;
    location    "9.149";
}
// * * * * * * * * * * * * * * * * * * * * * * * * * * * * * * * * * * * * * //

dimensions      [0 2 -2 0 0 0 0];

internalField   nonuniform List<scalar> 
12225
(
9.17184
12.472
10.2685
11.2454
9.97771
13.4578
12.4881
17.6027
15.5035
22.6548
18.3378
28.883
21.6776
35.0855
28.7397
40.2417
37.0598
37.6621
2.16258
5.91291
5.54191
6.08036
5.15898
5.9753
5.21871
6.50768
5.71848
7.52774
6.52041
8.55282
8.01169
8.59855
10.9063
10.6232
12.1301
17.4229
0.199913
1.59914
1.91665
2.86376
2.81842
3.12156
2.96837
3.15911
3.074
3.10407
3.21468
2.97587
3.43513
2.56393
3.39146
2.21925
3.35282
3.07952
0.0169546
0.239601
0.562673
0.822283
1.12866
1.18974
1.3832
1.35774
1.52272
1.41237
1.61392
1.39308
1.59322
1.18883
1.40999
0.941009
1.43761
1.23108
0.00309884
0.0414819
0.14206
0.216376
0.374446
0.416496
0.532906
0.549596
0.637393
0.608678
0.665821
0.579535
0.667238
0.528413
0.620006
0.431293
0.625612
0.618394
0.00218425
0.0107043
0.040914
0.063508
0.119914
0.13631
0.19331
0.204064
0.255607
0.241124
0.270252
0.242032
0.286123
0.249414
0.287298
0.249236
0.338577
0.390324
0.00446624
0.00874555
0.0212721
0.0300943
0.0549525
0.0617354
0.0867884
0.0913963
0.117418
0.115004
0.128249
0.124616
0.145075
0.140587
0.155792
0.152649
0.169701
0.224927
0.00705314
0.0107744
0.020503
0.0278565
0.0419572
0.0465178
0.0587036
0.0632921
0.0778426
0.0807687
0.0896305
0.0924625
0.103152
0.106262
0.11254
0.122007
0.122976
0.140455
0.00701876
0.0184671
0.0239232
0.032968
0.0427825
0.0473051
0.0560739
0.0612144
0.0728161
0.0778303
0.0847406
0.0886083
0.0946874
0.101839
0.103742
0.111844
0.11301
0.117251
0.00732173
0.0310321
0.0365534
0.0523183
0.0551878
0.0601846
0.0633361
0.0707725
0.0779115
0.0869469
0.0901063
0.0967068
0.099325
0.106352
0.107515
0.111127
0.113198
0.116153
0.0184946
0.0575831
0.0667847
0.0913115
0.0945209
0.102296
0.100869
0.107102
0.109068
0.118904
0.11976
0.124391
0.123962
0.126288
0.12563
0.125969
0.127146
0.128375
0.0581536
0.111351
0.124194
0.158005
0.164511
0.175102
0.175739
0.182323
0.185504
0.194583
0.194805
0.196932
0.193061
0.184971
0.174124
0.167879
0.166834
0.164861
0.15548
0.228027
0.260345
0.291857
0.297784
0.30294
0.300474
0.300495
0.296598
0.296556
0.291637
0.281811
0.266619
0.256867
0.245881
0.23959
0.234957
0.230888
0.293348
0.369519
0.412344
0.438339
0.445337
0.448409
0.443994
0.441882
0.436053
0.432984
0.423811
0.412852
0.396799
0.383096
0.366844
0.357055
0.34136
0.328843
0.518564
0.63887
0.719086
0.76195
0.774496
0.78019
0.773274
0.747605
0.712151
0.67687
0.636868
0.598913
0.559614
0.526117
0.490434
0.463879
0.431867
0.407096
0.842291
0.987828
1.05697
1.07706
1.07597
1.05192
0.992435
0.931718
0.86843
0.807233
0.745892
0.690599
0.636814
0.591882
0.546169
0.5105
0.470009
0.439562
1.06572
1.18351
1.21818
1.22326
1.21446
1.16674
1.08624
1.00864
0.931505
0.858566
0.787755
0.72492
0.665294
0.615458
0.565707
0.526586
0.483347
0.450369
1.114
1.22823
1.25012
1.25139
1.23942
1.18595
1.10238
1.02148
0.940981
0.865273
0.79207
0.727502
0.666569
0.615776
0.565003
0.524759
0.480746
0.447253
1.00624
1.1424
1.18215
1.18841
1.17955
1.1388
1.0622
0.985159
0.908214
0.835213
0.76366
0.700495
0.641417
0.592285
0.542756
0.503362
0.45993
0.427019
0.639022
0.808529
0.897182
0.936505
0.946435
0.939904
0.913794
0.856088
0.792679
0.731465
0.668558
0.613022
0.562171
0.5204
0.477561
0.44392
0.405002
0.375998
0.408525
0.512563
0.569331
0.5913
0.593643
0.591225
0.583606
0.558217
0.522744
0.487991
0.448238
0.412246
0.379462
0.35404
0.326905
0.306154
0.280155
0.260581
0.217166
0.288071
0.337877
0.3666
0.376465
0.376856
0.374085
0.364301
0.33943
0.313099
0.284089
0.260773
0.242232
0.230347
0.218156
0.210748
0.199386
0.191735
0.112892
0.150553
0.187917
0.213087
0.218548
0.217315
0.211546
0.206131
0.20085
0.196043
0.191166
0.188278
0.186383
0.185114
0.183513
0.18174
0.177467
0.173753
0.0493356
0.0764227
0.0957269
0.105447
0.113608
0.122864
0.133992
0.146088
0.155094
0.161674
0.166446
0.171377
0.176515
0.180323
0.181575
0.181476
0.180487
0.178222
0.0217331
0.033422
0.0430631
0.0578082
0.0775299
0.0991381
0.12305
0.144463
0.160072
0.172611
0.183306
0.193425
0.204037
0.212994
0.219009
0.222353
0.223792
0.223777
0.00647992
0.0159847
0.031567
0.0582171
0.0996486
0.147976
0.198365
0.24124
0.270181
0.292014
0.31201
0.329968
0.350905
0.368113
0.381854
0.390235
0.3936
0.397047
0.00270813
0.0268111
0.0908798
0.219175
0.365599
0.499016
0.613238
0.693871
0.738134
0.764933
0.791594
0.811304
0.833019
0.852144
0.866242
0.871828
0.875134
0.877034
0.0211051
0.250874
0.74781
1.22565
1.61163
1.86288
2.00112
2.0556
2.05855
2.03356
2.02206
2.00356
1.98238
1.96844
1.93998
1.89694
1.86364
1.8359
0.51361
2.79114
4.15308
4.50887
4.4982
4.36208
4.11166
3.9349
3.8179
3.72399
3.63432
3.5377
3.45077
3.36031
3.26472
3.16691
3.08585
2.99508
6.92945
11.2539
11.0873
9.71213
8.64201
8.25113
8.28333
8.42073
8.69912
9.02264
9.28244
9.51565
9.6791
9.76975
9.79632
9.76432
9.67166
9.45416
0.127484
0.226958
0.2437
0.249186
0.251444
0.252368
0.252683
0.256348
0.266279
0.282526
0.302055
0.323278
0.346327
0.36932
0.394097
0.422594
0.454572
0.489607
0.526035
0.565573
0.608799
0.657394
0.708946
0.765026
0.830028
0.90266
0.97595
1.06147
1.16466
1.27517
1.39224
1.54895
1.73531
1.93206
2.14711
2.39453
2.63612
2.88414
3.15922
3.41776
3.68117
3.93839
4.18173
4.35893
4.39443
4.14308
3.7163
3.53796
3.47912
3.48522
3.60666
3.82936
4.03846
4.2591
4.52016
4.62739
4.65769
4.63482
4.51014
4.41078
4.17687
3.98594
3.92492
3.90921
3.89734
3.93411
4.06395
4.39535
4.90698
5.43613
5.6986
5.78231
5.4008
5.31239
5.41697
5.69138
5.96309
6.62399
7.62697
8.60028
9.4222
10.1473
10.7761
11.1594
11.3159
11.3461
11.0858
10.6718
10.1615
9.64839
9.08429
8.44234
7.67184
6.85344
6.10367
5.47927
4.99773
4.54091
3.96706
3.56253
3.26151
2.93589
2.67762
2.40876
2.24745
2.12054
2.02476
1.97861
1.96689
1.99915
2.06754
2.12971
2.16942
2.18492
2.2353
2.45851
2.68
2.68045
2.59803
2.63867
2.73109
2.73416
2.73281
2.74652
2.68925
2.60958
2.61163
2.72191
2.96833
3.23518
3.63574
4.13169
4.69273
5.25667
5.56166
5.7247
5.823
6.05679
6.49386
6.80501
7.52139
8.08977
8.71151
9.49242
10.3555
11.2289
11.957
12.3217
12.4101
11.8582
12.2958
13.2446
13.7824
13.8811
13.5314
11.8359
10.5687
10.7734
10.4952
10.058
8.63101
7.06552
6.41948
6.30998
6.7564
8.08152
8.99222
9.6471
9.84954
8.888
7.55568
7.42223
8.16148
8.8543
10.2965
10.5597
11.0058
16.1705
20.8584
23.8811
0.293808
0.213355
0.201897
0.18182
0.160704
0.150994
0.140333
0.134289
0.132961
0.133034
0.134859
0.139102
0.145741
0.151843
0.156152
0.160811
0.166333
0.171857
0.177492
0.184538
0.19233
0.201996
0.211311
0.221933
0.233075
0.244896
0.253051
0.260686
0.273426
0.284594
0.288566
0.290129
0.29674
0.311637
0.321412
0.34184
0.391655
0.457362
0.537666
0.684606
0.854629
1.09602
1.45144
1.77059
2.35201
2.76767
2.83967
2.92548
2.78926
2.12416
1.59823
1.47606
1.46398
1.55423
1.6488
1.63528
1.43292
1.1265
0.944679
0.833895
0.713789
0.69002
0.743936
0.843317
0.927138
1.00434
1.06108
1.24182
1.57577
2.00287
2.53605
2.87839
2.88722
3.17793
4.30398
4.90188
5.01142
5.05302
5.06743
4.90516
4.72414
4.52751
4.2988
4.03343
3.69089
3.36433
3.05305
2.79151
2.58606
2.40768
2.22052
1.99985
1.78311
1.61573
1.52116
1.45675
1.40263
1.31429
1.22297
1.19812
1.15474
1.09491
1.04602
1.01825
1.01765
1.00635
1.00297
1.0054
1.01575
1.03445
1.10065
1.17367
1.21033
1.22378
1.22479
1.29262
1.47308
1.57685
1.57005
1.56973
1.63553
1.70998
1.78438
1.86073
1.90061
1.89643
1.91097
2.021
2.26474
2.42963
2.5481
2.70966
3.0216
3.49927
3.93387
4.05985
4.01
4.07061
4.346
4.42006
4.89449
5.0693
5.30109
5.7807
6.43299
6.8286
6.77776
6.23644
5.96767
5.95712
6.96629
8.08785
8.9466
9.07819
8.72363
6.9555
6.61619
7.4633
7.35514
7.4316
6.41834
5.23322
4.84216
4.97008
5.39626
6.22132
6.88131
7.29521
7.50758
6.92679
5.92458
5.75502
6.24347
6.50675
7.60272
8.29402
8.42075
8.85714
11.1378
13.1343
0.701008
0.232813
0.168396
0.159419
0.153306
0.144869
0.129801
0.11793
0.114194
0.113204
0.114218
0.119587
0.128592
0.135976
0.140022
0.145529
0.152641
0.160349
0.168095
0.176425
0.184305
0.19401
0.204937
0.215603
0.222621
0.228405
0.23364
0.239864
0.243011
0.242234
0.236059
0.234287
0.236087
0.236044
0.233592
0.232639
0.230341
0.223245
0.221402
0.225655
0.239274
0.270375
0.338186
0.432698
0.58943
0.850856
1.06692
1.28449
1.56107
1.6962
1.67019
1.53528
1.26643
1.01039
0.854138
0.693713
0.503084
0.402595
0.368781
0.361088
0.363333
0.393085
0.487017
0.607687
0.716837
0.795464
0.851479
0.925366
1.11734
1.50163
2.14415
2.89821
3.26554
3.44113
3.5552
3.33714
2.90389
2.67707
2.36882
2.10146
1.87359
1.67443
1.47755
1.28756
1.11037
0.97987
0.893394
0.828538
0.788309
0.748037
0.702001
0.64548
0.603952
0.5866
0.580837
0.578511
0.570493
0.556554
0.549489
0.563063
0.564703
0.550523
0.54051
0.539086
0.567748
0.579496
0.591193
0.60138
0.607512
0.612666
0.643022
0.692021
0.733878
0.745658
0.723701
0.729031
0.830791
0.91987
0.963221
0.958094
0.978059
1.04178
1.1148
1.17732
1.26021
1.33606
1.44418
1.69715
1.86544
1.83688
1.75804
1.78706
2.04043
2.25639
2.45051
2.55199
2.60224
2.86012
3.10784
3.13458
3.25337
3.23582
3.26247
3.48946
3.93101
4.28029
4.23552
3.80387
3.45937
3.39525
3.77904
4.28003
4.97314
5.47256
5.47811
4.51994
4.38672
4.83296
4.82297
5.00104
4.60401
4.10305
4.18753
4.3422
4.6543
4.8272
4.92356
5.03748
5.21527
5.04466
4.56278
4.43022
4.51707
5.2572
6.73768
7.51069
6.90787
7.77337
7.54695
7.10653
1.37603
0.377539
0.168057
0.150924
0.160299
0.159538
0.138812
0.119215
0.11481
0.113934
0.117811
0.129648
0.144756
0.156263
0.165479
0.175582
0.184345
0.189847
0.193524
0.197622
0.202545
0.20991
0.215424
0.215925
0.214574
0.213536
0.21293
0.211101
0.205926
0.202833
0.204578
0.212143
0.216104
0.217708
0.219075
0.219054
0.212691
0.204319
0.201275
0.19498
0.189417
0.189466
0.193561
0.205703
0.233107
0.299239
0.378188
0.487957
0.693224
0.821456
1.13423
1.35597
1.33594
1.19047
0.931653
0.669151
0.441493
0.350032
0.327642
0.325241
0.362852
0.42802
0.571187
0.766393
0.926485
1.00764
1.10806
1.24099
1.4912
1.91016
2.44988
2.8436
2.94785
2.74262
2.10358
1.74129
1.52727
1.28539
1.09353
0.949054
0.830597
0.741677
0.649151
0.566533
0.502802
0.468488
0.449393
0.436814
0.428761
0.418842
0.403317
0.382744
0.374703
0.373614
0.380294
0.386066
0.385442
0.381764
0.379824
0.389146
0.395649
0.391751
0.383069
0.379138
0.400154
0.427435
0.451778
0.467415
0.476652
0.48639
0.495519
0.514013
0.576168
0.593399
0.579073
0.561544
0.598245
0.686135
0.718229
0.719003
0.732881
0.796915
0.854311
0.883308
0.968311
1.06767
1.20983
1.54929
1.71778
1.63151
1.4704
1.44807
1.61365
1.89478
1.92669
1.92133
1.98314
2.29757
2.6294
2.67916
2.66967
2.68082
2.68964
2.79928
3.01089
3.21537
3.23172
2.96791
2.6887
2.56862
2.72992
2.95581
3.3402
3.93291
4.08837
3.66223
3.6774
3.7423
3.82155
3.82013
3.66135
3.52933
3.89075
3.92024
4.00847
4.09004
4.22655
4.27371
4.40462
4.36917
4.01497
3.88692
3.86917
5.24332
6.71662
6.46333
5.35357
7.57762
6.53568
5.17925
2.06022
0.709394
0.196473
0.150571
0.174751
0.183083
0.145839
0.126355
0.121857
0.1238
0.140851
0.167005
0.196023
0.205183
0.203569
0.19902
0.196032
0.195044
0.194553
0.193335
0.190349
0.184753
0.175679
0.166964
0.16164
0.157168
0.152891
0.151282
0.151053
0.151856
0.155873
0.161123
0.164489
0.171101
0.177238
0.182131
0.191689
0.197619
0.198525
0.197004
0.193733
0.187795
0.18382
0.183846
0.184927
0.191092
0.20824
0.240052
0.308776
0.392254
0.523309
0.733255
1.07335
1.15546
1.05396
0.831133
0.505579
0.378668
0.360149
0.382026
0.448058
0.52539
0.705172
0.925731
1.05479
1.14609
1.28013
1.47179
1.70151
2.00373
2.22128
2.26498
1.80952
1.43394
1.14825
0.91703
0.797411
0.670579
0.578811
0.525914
0.474077
0.442663
0.405587
0.370604
0.344755
0.33567
0.332009
0.329824
0.327714
0.323519
0.312539
0.297966
0.292798
0.29351
0.305982
0.32367
0.325404
0.321012
0.316094
0.319989
0.326502
0.327212
0.322378
0.312852
0.321939
0.336423
0.357155
0.379497
0.399129
0.427776
0.443824
0.442574
0.466447
0.524816
0.522462
0.512099
0.518897
0.584939
0.611161
0.614101
0.616372
0.672504
0.731995
0.755565
0.821
0.920657
1.00722
1.22952
1.45334
1.54222
1.46701
1.43882
1.47256
1.68801
1.76006
1.68651
1.68424
1.86007
2.26831
2.28408
2.39135
2.52551
2.59799
2.64609
2.73582
2.77036
2.76679
2.55236
2.38172
2.30008
2.34797
2.48951
2.69094
3.15768
3.36536
3.35036
3.54997
3.41584
3.53635
3.20351
3.14813
3.28378
3.51892
3.56706
3.44698
3.41111
3.57524
3.86456
4.07772
4.11424
3.79972
3.60513
3.75546
5.392
6.41657
5.35246
5.2468
5.56146
6.07826
5.05112
2.72212
0.985428
0.254227
0.158837
0.194028
0.189959
0.148778
0.137772
0.138296
0.160529
0.201445
0.224481
0.228034
0.223824
0.209786
0.197663
0.192435
0.188502
0.183259
0.176015
0.169823
0.163038
0.156554
0.151205
0.147405
0.142511
0.137456
0.135329
0.13459
0.134494
0.135528
0.13814
0.142658
0.149733
0.156786
0.165078
0.174339
0.180851
0.188285
0.196209
0.201969
0.202664
0.20131
0.197459
0.189159
0.18854
0.191679
0.195972
0.208587
0.237121
0.281936
0.365658
0.53524
0.839357
0.980695
0.918996
0.764833
0.529869
0.463014
0.500488
0.583044
0.663083
0.828145
1.00021
1.09043
1.18775
1.29657
1.46314
1.60726
1.67114
1.48623
1.27081
0.962682
0.767313
0.652175
0.537038
0.471953
0.420898
0.386291
0.368955
0.35255
0.34118
0.326091
0.310068
0.295274
0.285073
0.276217
0.271989
0.26457
0.252987
0.241354
0.230414
0.226524
0.226797
0.232909
0.254316
0.280905
0.286273
0.279015
0.281563
0.286413
0.287516
0.283729
0.278321
0.283048
0.293421
0.303313
0.311686
0.321338
0.335303
0.369542
0.385974
0.392653
0.417342
0.46517
0.468858
0.474997
0.514313
0.563774
0.583767
0.582083
0.615528
0.655337
0.682606
0.763279
0.84009
0.888464
0.978178
1.16332
1.31947
1.38737
1.36215
1.39007
1.54397
1.7651
1.64737
1.53575
1.63252
1.90776
2.028
2.24476
2.37056
2.53296
2.57737
2.69473
2.64673
2.6032
2.35675
2.19705
2.20526
2.26177
2.29965
2.49771
2.72378
2.89026
3.29773
3.49507
3.31262
3.41955
2.98289
2.88408
3.15028
3.28446
3.09202
3.00382
2.95695
3.09254
3.46681
3.82414
3.91989
3.67886
3.45816
3.73686
5.51419
5.5202
4.50481
4.21747
4.09334
5.49543
4.98924
3.34101
1.1676
0.284649
0.177871
0.206019
0.175058
0.154543
0.153971
0.178468
0.242755
0.259953
0.246443
0.22635
0.220539
0.215216
0.202058
0.193786
0.189054
0.18193
0.174246
0.16836
0.162541
0.157476
0.152164
0.147607
0.14209
0.135561
0.132176
0.130822
0.130545
0.130895
0.132904
0.137333
0.143618
0.150985
0.159769
0.168783
0.1761
0.185647
0.196589
0.20538
0.213031
0.217716
0.21824
0.214971
0.207369
0.202573
0.202201
0.205929
0.210561
0.218773
0.242984
0.30259
0.432323
0.672267
0.829682
0.785469
0.696572
0.644419
0.645612
0.706898
0.768518
0.891671
1.02201
1.07798
1.1535
1.2059
1.23126
1.17803
1.05885
0.870714
0.719441
0.569324
0.472638
0.422989
0.378175
0.34493
0.326074
0.309889
0.302585
0.295239
0.289746
0.281464
0.272494
0.2606
0.25105
0.241043
0.231879
0.222352
0.212657
0.201612
0.196315
0.193661
0.193519
0.194967
0.19947
0.209585
0.22886
0.244355
0.260611
0.261709
0.262624
0.258889
0.257936
0.262892
0.272921
0.276764
0.277544
0.27437
0.277803
0.299658
0.321073
0.338048
0.351172
0.376317
0.392206
0.402427
0.42097
0.47951
0.516598
0.547833
0.575722
0.583179
0.604207
0.71343
0.763461
0.8203
0.895451
1.09096
1.21071
1.22076
1.23093
1.27178
1.33573
1.70103
1.64326
1.50902
1.5994
1.73141
1.9838
2.2418
2.33793
2.46722
2.42477
2.56096
2.5764
2.53284
2.29134
2.09571
2.10371
2.28032
2.21312
2.42072
2.48613
2.63307
3.34344
3.45969
3.12198
3.20543
2.9077
2.83327
3.10801
3.30132
3.07301
2.93893
2.83195
2.77749
3.09858
3.53015
3.71503
3.51203
3.36946
3.68369
5.48829
4.91494
3.84208
2.97028
3.30726
4.80579
4.6291
3.92091
1.30988
0.30507
0.197316
0.196135
0.173324
0.174551
0.192617
0.240257
0.271815
0.276102
0.271425
0.244575
0.23019
0.225985
0.220976
0.210357
0.201092
0.19499
0.189023
0.187592
0.187327
0.185182
0.179357
0.172482
0.163216
0.150578
0.14067
0.134207
0.132007
0.131643
0.132729
0.136521
0.142065
0.150218
0.16069
0.173159
0.185697
0.197597
0.208137
0.216748
0.224186
0.235223
0.244104
0.245148
0.242915
0.236905
0.228071
0.222356
0.218272
0.219387
0.227202
0.246026
0.286386
0.377387
0.534218
0.693292
0.692378
0.677108
0.692181
0.740268
0.800838
0.92499
1.01983
1.03243
1.00645
0.985429
0.924363
0.797836
0.682008
0.552583
0.458446
0.397062
0.354426
0.328554
0.300617
0.281233
0.267884
0.260196
0.255255
0.250848
0.246419
0.241446
0.235848
0.229351
0.222745
0.215192
0.205261
0.195149
0.189976
0.183636
0.181314
0.180565
0.181008
0.181059
0.176932
0.175578
0.183492
0.197092
0.223317
0.231067
0.242888
0.242972
0.243777
0.250695
0.258036
0.262469
0.258398
0.248175
0.243398
0.252133
0.265423
0.282755
0.298463
0.311469
0.3364
0.352366
0.366107
0.403206
0.43281
0.474018
0.490257
0.510952
0.563132
0.681118
0.724813
0.762626
0.836161
1.05475
1.14636
1.11979
1.1471
1.24153
1.22395
1.4075
1.608
1.52478
1.58059
1.63446
1.95283
2.24635
2.30058
2.35557
2.33367
2.30387
2.30465
2.31164
2.19813
2.05835
2.04522
2.19188
2.17862
2.39017
2.44151
2.54721
3.36249
3.45239
3.06314
2.80692
2.93287
3.07781
3.40042
3.4454
3.24478
3.04991
2.95644
2.77042
2.87997
3.25239
3.49945
3.29638
3.24695
3.64672
5.03835
4.63184
3.69748
2.78907
2.98693
4.0921
4.01535
4.51483
1.61415
0.372071
0.218069
0.205687
0.208024
0.211578
0.268341
0.285412
0.278643
0.278827
0.283614
0.283952
0.265611
0.257517
0.254049
0.244798
0.232931
0.225534
0.225664
0.231062
0.23985
0.243484
0.244538
0.238869
0.228421
0.207451
0.182721
0.157535
0.143086
0.13777
0.136351
0.136533
0.140619
0.146979
0.156977
0.170695
0.187239
0.203045
0.219294
0.23403
0.243455
0.248585
0.254977
0.261814
0.268539
0.269811
0.268625
0.265696
0.257228
0.249719
0.246814
0.252499
0.267243
0.292202
0.340359
0.446515
0.593175
0.65273
0.683688
0.745167
0.834315
0.922236
0.988219
0.977942
0.900795
0.815482
0.720574
0.562861
0.477839
0.394359
0.343888
0.317021
0.29051
0.261232
0.246814
0.235635
0.229055
0.22554
0.223588
0.221003
0.21871
0.215415
0.209731
0.204034
0.19359
0.17855
0.172503
0.170201
0.171636
0.174647
0.175566
0.17628
0.178058
0.178208
0.173358
0.165631
0.166063
0.169554
0.177347
0.185915
0.217359
0.231238
0.232882
0.239713
0.246156
0.248108
0.245775
0.229745
0.221801
0.221586
0.224507
0.240944
0.260537
0.262278
0.280438
0.305075
0.318032
0.338983
0.376056
0.404871
0.427758
0.490185
0.523156
0.588898
0.648285
0.68499
0.773436
1.00263
0.985857
0.963227
1.03538
1.19784
1.1529
1.14535
1.40214
1.46758
1.47561
1.53253
1.90342
2.18977
2.28498
2.27206
2.12714
2.003
1.96177
2.1192
2.11433
1.94354
1.95096
2.04543
2.16078
2.36125
2.46164
2.56989
3.32051
3.30019
3.04079
2.84121
3.0901
3.73578
3.86734
3.59903
3.1869
2.77541
2.89327
2.79878
2.78747
3.03279
3.28113
3.10907
3.09956
3.57715
4.48751
4.35725
3.62008
2.84766
2.86229
3.57301
3.7474
4.98187
1.70497
0.384122
0.204301
0.198266
0.220871
0.244907
0.30038
0.308204
0.298689
0.297619
0.299708
0.294266
0.274311
0.266241
0.263411
0.260925
0.256533
0.255778
0.25728
0.262899
0.275612
0.293634
0.310172
0.316569
0.318372
0.310858
0.283116
0.234206
0.182309
0.154355
0.143318
0.139996
0.139622
0.1422
0.146825
0.153613
0.164258
0.180315
0.200037
0.223097
0.238796
0.245216
0.251057
0.260468
0.274206
0.283938
0.298757
0.307305
0.302323
0.290886
0.286924
0.283375
0.281292
0.290311
0.299077
0.325782
0.394759
0.525258
0.643926
0.734351
0.835123
0.90501
0.965818
0.958464
0.849238
0.696238
0.572876
0.43156
0.368213
0.315137
0.285635
0.265128
0.234786
0.219388
0.212408
0.20975
0.209568
0.212106
0.211543
0.210206
0.209113
0.205062
0.19497
0.178691
0.159732
0.15163
0.149744
0.148584
0.153732
0.163521
0.169985
0.175361
0.179053
0.179512
0.176528
0.162254
0.160539
0.160773
0.158223
0.157757
0.180415
0.205567
0.208542
0.209242
0.215673
0.219636
0.216947
0.203623
0.199295
0.203315
0.200413
0.211632
0.227248
0.230327
0.244109
0.259667
0.270529
0.298288
0.342427
0.348736
0.370343
0.456873
0.4673
0.473949
0.529523
0.65015
0.779792
0.825123
0.800975
0.848568
0.979239
1.15855
1.12184
1.03018
1.24931
1.34603
1.31038
1.40649
1.94522
2.20454
2.0424
1.95527
1.85746
1.83049
1.78551
1.88431
1.84248
1.77713
1.91372
2.00919
2.14809
2.34059
2.46973
2.56675
3.24528
3.03729
2.81186
2.577
3.14903
4.04379
3.92575
3.51296
3.03054
2.29785
2.4711
2.66104
2.65358
2.87076
3.04981
2.97704
2.96417
3.3442
4.10081
4.00606
3.43154
2.82394
2.63723
3.08833
3.53042
5.49327
1.91649
0.406394
0.211488
0.197325
0.224599
0.288933
0.31606
0.320925
0.32099
0.301422
0.28924
0.278922
0.27043
0.268275
0.271673
0.276028
0.276399
0.272677
0.272263
0.274791
0.2857
0.306383
0.330184
0.339014
0.344564
0.350526
0.357743
0.345139
0.290558
0.207029
0.164215
0.148688
0.144375
0.143676
0.145494
0.15041
0.155362
0.161329
0.169602
0.181614
0.200989
0.223504
0.236102
0.248673
0.268793
0.283663
0.302661
0.33422
0.355386
0.360274
0.358559
0.346066
0.316754
0.31067
0.302885
0.29799
0.308982
0.361538
0.492458
0.680879
0.813011
0.858241
0.923468
0.940569
0.848704
0.655232
0.500088
0.364551
0.307328
0.270719
0.249471
0.226206
0.204197
0.197729
0.196444
0.198593
0.202364
0.203313
0.202908
0.200549
0.195186
0.185708
0.16702
0.146756
0.136949
0.13263
0.131932
0.132359
0.137783
0.14608
0.156695
0.174572
0.180837
0.183381
0.182821
0.170635
0.160428
0.162097
0.152743
0.146382
0.153416
0.166442
0.167175
0.168083
0.173114
0.185411
0.190149
0.186046
0.180715
0.185621
0.183455
0.194566
0.204428
0.205727
0.218901
0.234767
0.239668
0.270647
0.311736
0.3126
0.336216
0.402894
0.427973
0.425612
0.465154
0.605911
0.757293
0.762186
0.815515
0.832807
0.957507
1.13266
1.08492
1.05189
1.21606
1.23583
1.14205
1.30054
1.95117
2.08309
1.82066
1.79945
1.8776
1.79853
1.60948
1.56101
1.57051
1.73171
1.92897
2.01902
2.23799
2.41897
2.4204
2.46513
2.98158
2.77589
2.51241
2.30966
2.82305
3.47368
3.42296
3.07099
2.71792
2.23047
2.26741
2.56133
2.52177
2.76163
2.85558
2.82881
2.83572
3.06462
3.74248
3.65581
3.21558
2.7545
2.43942
2.7295
3.39121
5.99215
2.57029
0.575714
0.218825
0.20127
0.256856
0.329769
0.338803
0.335221
0.327453
0.296049
0.268498
0.258644
0.255762
0.257434
0.271411
0.292831
0.306543
0.312145
0.301815
0.299201
0.300055
0.320418
0.342552
0.345144
0.345741
0.354039
0.375968
0.39309
0.388045
0.33
0.218974
0.171501
0.156767
0.153933
0.154592
0.159087
0.164727
0.167369
0.169668
0.173866
0.180684
0.19053
0.209535
0.228211
0.245149
0.264981
0.28869
0.330158
0.369647
0.388765
0.411904
0.430148
0.405721
0.364059
0.32842
0.301102
0.290633
0.298019
0.348721
0.510278
0.753267
0.820181
0.886323
0.920482
0.855962
0.650493
0.452179
0.327516
0.274275
0.24731
0.228143
0.19988
0.18819
0.186065
0.186013
0.187828
0.189289
0.188835
0.185789
0.179539
0.170289
0.157663
0.141852
0.131117
0.127438
0.126281
0.127138
0.128428
0.131817
0.134305
0.139131
0.152934
0.172216
0.181897
0.185573
0.184062
0.171154
0.170293
0.155802
0.1414
0.136382
0.142966
0.141004
0.139744
0.147702
0.166737
0.17244
0.174127
0.170604
0.176947
0.174277
0.178487
0.19148
0.192703
0.200834
0.225731
0.229516
0.25448
0.287058
0.296216
0.318899
0.365553
0.384849
0.403684
0.44711
0.553865
0.652615
0.728046
0.839842
0.823264
0.934784
1.05343
1.04642
1.07536
1.1627
1.18271
1.07228
1.26106
1.98199
1.90569
1.71981
1.80245
1.8563
1.66597
1.42072
1.42614
1.48585
1.75376
2.00754
2.11215
2.58753
2.54945
2.37342
2.36785
2.61827
2.41459
2.30825
2.25205
2.51076
2.83333
2.69081
2.54149
2.3168
2.03822
2.04178
2.50149
2.40549
2.68904
2.7499
2.67051
2.72406
2.81455
3.35937
3.30997
3.00124
2.5032
2.25089
2.48729
3.25552
6.41652
3.0248
0.842746
0.272362
0.214277
0.256925
0.329187
0.340906
0.336731
0.318734
0.275172
0.233254
0.218219
0.213844
0.214433
0.235266
0.269169
0.307955
0.34685
0.365802
0.363834
0.352557
0.363119
0.379467
0.377949
0.357526
0.355302
0.373138
0.418257
0.435602
0.417996
0.332882
0.220865
0.181756
0.17253
0.172668
0.180863
0.194326
0.201042
0.199774
0.190297
0.183648
0.179758
0.179778
0.187796
0.203765
0.220199
0.243177
0.28732
0.345182
0.377725
0.412296
0.468506
0.50735
0.494778
0.429012
0.331022
0.297703
0.289538
0.292596
0.360598
0.575624
0.739739
0.858397
0.910782
0.867069
0.661011
0.438125
0.312309
0.260632
0.236077
0.211406
0.185188
0.177876
0.176374
0.176025
0.178188
0.178844
0.177684
0.173799
0.167273
0.157924
0.143855
0.132533
0.126525
0.124661
0.124421
0.126208
0.127524
0.13038
0.131076
0.131429
0.133478
0.142229
0.154098
0.180801
0.18934
0.183135
0.17812
0.165458
0.140398
0.132293
0.130651
0.132189
0.130193
0.136696
0.156399
0.169031
0.170726
0.169764
0.171345
0.175373
0.174351
0.181823
0.192556
0.19442
0.215406
0.230009
0.251155
0.27796
0.291335
0.304476
0.345192
0.359637
0.384893
0.428593
0.504939
0.584438
0.653319
0.804868
0.804422
0.873729
0.903102
0.974502
1.05829
1.13763
1.16853
1.07239
1.26999
2.14137
1.86209
1.69287
1.75155
1.70237
1.43778
1.36419
1.42964
1.48698
1.87063
2.10444
2.29918
2.68904
2.56241
2.34869
2.19402
2.31687
2.1451
2.09563
2.24206
2.31762
2.59824
2.18422
2.07507
1.94503
1.81432
1.8612
2.41555
2.36859
2.55727
2.69943
2.55333
2.62962
2.6242
3.0103
2.99655
2.69142
2.26161
2.03939
2.24885
3.12296
6.86262
3.34183
0.881641
0.262796
0.203468
0.246428
0.304767
0.31503
0.311881
0.285767
0.242236
0.204544
0.187176
0.181904
0.180922
0.188658
0.208114
0.251081
0.324447
0.391301
0.425415
0.44268
0.440571
0.437848
0.431314
0.407933
0.397766
0.407339
0.463568
0.510551
0.52476
0.460792
0.333745
0.237935
0.20659
0.197748
0.197124
0.206533
0.223745
0.237258
0.240403
0.221361
0.189003
0.174002
0.168156
0.16834
0.176998
0.1918
0.213016
0.262291
0.324768
0.376236
0.454766
0.525431
0.600592
0.592463
0.473349
0.341172
0.298637
0.280917
0.294131
0.392238
0.559635
0.784791
0.89137
0.874736
0.704247
0.442207
0.312187
0.257486
0.231662
0.202171
0.176545
0.171022
0.170652
0.171409
0.173748
0.174502
0.173418
0.169808
0.16236
0.15348
0.140071
0.131111
0.126705
0.125251
0.125782
0.128947
0.130581
0.131951
0.132923
0.130952
0.129227
0.132521
0.139544
0.14727
0.177486
0.187835
0.17846
0.172233
0.147788
0.132192
0.129298
0.129274
0.12986
0.133246
0.151994
0.170445
0.167972
0.175597
0.171925
0.176964
0.180233
0.180946
0.192964
0.194709
0.208658
0.227376
0.250387
0.27174
0.282633
0.293915
0.327795
0.338349
0.36707
0.40112
0.468255
0.543576
0.597606
0.700051
0.730369
0.762893
0.822962
0.880573
1.01048
1.14399
1.13249
1.0916
1.36869
2.24222
1.7942
1.56757
1.55265
1.50953
1.42845
1.38286
1.39005
1.48828
1.98424
2.16143
2.57468
2.71597
2.56289
2.46055
2.01787
2.16604
1.9505
1.98922
2.23336
2.25206
2.56492
1.81785
1.83701
1.65
1.66469
1.77939
2.2713
2.39048
2.38939
2.60201
2.48757
2.55915
2.50229
2.74509
2.76272
2.42677
2.07045
1.89434
2.10683
3.03145
7.31133
3.69151
1.03498
0.293769
0.198848
0.227633
0.297327
0.319145
0.313951
0.28991
0.2533
0.217874
0.191666
0.177814
0.174867
0.178988
0.190703
0.205504
0.233398
0.296655
0.411508
0.487348
0.51456
0.541004
0.578741
0.546001
0.483065
0.473803
0.513796
0.581364
0.657503
0.687492
0.60043
0.443416
0.33064
0.268336
0.237041
0.223364
0.225896
0.243286
0.258713
0.261429
0.240995
0.189908
0.165234
0.155755
0.154431
0.160312
0.178688
0.211666
0.263174
0.308361
0.374158
0.469945
0.598621
0.678523
0.626021
0.497422
0.3418
0.285326
0.271376
0.301732
0.401932
0.610697
0.842959
0.866707
0.740043
0.460051
0.31541
0.258018
0.231802
0.201602
0.174685
0.17001
0.170929
0.171373
0.172919
0.17423
0.173248
0.169778
0.162194
0.153686
0.141468
0.134893
0.132718
0.132346
0.134748
0.14105
0.148354
0.150813
0.145814
0.141995
0.136255
0.129222
0.132408
0.137018
0.14058
0.167187
0.168792
0.163604
0.151303
0.13464
0.130976
0.127516
0.12947
0.132914
0.143353
0.168051
0.163465
0.175982
0.174646
0.174257
0.183144
0.184014
0.191849
0.196874
0.20664
0.218836
0.244001
0.263132
0.269156
0.283868
0.313818
0.320962
0.34966
0.371223
0.437962
0.485629
0.551598
0.608509
0.624368
0.649281
0.746211
0.787627
0.92302
1.12022
1.12356
1.10982
1.55989
2.25243
1.69608
1.4312
1.39074
1.36976
1.42325
1.37686
1.35625
1.50941
2.02628
2.24843
2.8734
2.92458
2.71455
2.53892
1.90386
1.99418
1.84505
2.04055
2.4172
2.31321
2.49495
1.67085
1.64118
1.50005
1.55912
1.70351
2.08971
2.42042
2.26055
2.43588
2.46434
2.47047
2.39026
2.56473
2.59261
2.27642
1.9338
1.83614
2.03204
2.91695
7.95831
4.28301
1.61882
0.52589
0.243879
0.213074
0.239179
0.295082
0.313609
0.30893
0.291012
0.263048
0.224625
0.196913
0.182798
0.18119
0.184037
0.190936
0.20321
0.215765
0.238371
0.30177
0.460661
0.527961
0.644872
0.714248
0.661828
0.599243
0.578119
0.597983
0.668535
0.739676
0.775469
0.724719
0.612264
0.498067
0.387881
0.305162
0.257153
0.247109
0.260381
0.273953
0.26809
0.230704
0.178645
0.154755
0.146026
0.145276
0.153555
0.179935
0.231932
0.270947
0.305773
0.370627
0.523922
0.679679
0.68845
0.62708
0.470186
0.306844
0.270269
0.268309
0.310351
0.442496
0.718001
0.831142
0.757049
0.515218
0.323391
0.260228
0.233249
0.203558
0.175347
0.170644
0.171009
0.170836
0.172638
0.175257
0.175241
0.172653
0.165775
0.159626
0.155337
0.160227
0.166676
0.170127
0.175681
0.179677
0.179399
0.167492
0.163734
0.14913
0.145318
0.135277
0.128185
0.127186
0.129612
0.136241
0.146201
0.15307
0.149505
0.136585
0.134903
0.13127
0.129664
0.133264
0.141793
0.154843
0.157367
0.168365
0.174261
0.171999
0.177496
0.187078
0.189987
0.197435
0.208217
0.213269
0.236015
0.259207
0.26062
0.279283
0.304638
0.308401
0.331275
0.348472
0.403094
0.445131
0.497977
0.538169
0.550415
0.56582
0.687815
0.71276
0.799718
0.959375
1.12349
1.13731
1.7184
2.19634
1.65255
1.33553
1.24153
1.20139
1.38294
1.39173
1.37139
1.53989
2.01442
2.46843
3.15791
3.39583
2.85048
2.41692
1.97736
1.90707
1.88056
2.43341
2.59781
2.30169
2.26707
1.6048
1.4616
1.50083
1.48916