/*--------------------------------*- C++ -*----------------------------------*\
| =========                 |                                                 |
| \\      /  F ield         | OpenFOAM: The Open Source CFD Toolbox           |
|  \\    /   O peration     | Version:  dev                                   |
|   \\  /    A nd           | Web:      http://www.openfoam.org               |
|    \\/     M anipulation  |                                                 |
\*---------------------------------------------------------------------------*/
FoamFile
{
    version     2.0;
    format      ascii;
    class       volScalarField;
    object      k_0;
    location    "9.149";
}
// * * * * * * * * * * * * * * * * * * * * * * * * * * * * * * * * * * * * * //

dimensions      [0 2 -2 0 0 0 0];

internalField   nonuniform List<scalar> 
12225
(
9.26745
12.6043
10.5128
11.6907
10.5161
14.4015
13.5576
19.3468
17.2433
25.4808
20.7569
33.2033
24.7412
41.5766
33.724
49.2294
45.1994
46.4768
2.1541
5.81335
5.43862
5.93908
5.05616
5.78448
5.09607
6.22933
5.56926
7.14498
6.3296
8.11265
7.67354
8.14185
10.3497
10.0978
10.5118
14.818
0.205587
1.58217
1.90983
2.86715
2.82476
3.10853
2.97049
3.13827
3.06662
3.07832
3.17296
2.96115
3.29943
2.5613
3.13869
2.21492
2.83548
2.22355
0.0182764
0.241414
0.567869
0.825647
1.12799
1.18988
1.37498
1.35646
1.50463
1.41089
1.58616
1.39979
1.54381
1.19409
1.32439
0.956916
1.26358
1.07521
0.00342043
0.0424304
0.144472
0.218065
0.373768
0.416161
0.529392
0.548723
0.631561
0.606701
0.655009
0.582311
0.648452
0.528516
0.586808
0.433185
0.580177
0.562756
0.00240691
0.0110491
0.0422522
0.0644462
0.120688
0.137334
0.193754
0.205193
0.253916
0.241096
0.266558
0.243228
0.280682
0.248775
0.275193
0.241824
0.310006
0.394287
0.00486162
0.00917112
0.0221303
0.0309938
0.0559966
0.0625967
0.0873425
0.092301
0.11742
0.115445
0.127622
0.125293
0.144339
0.140853
0.152799
0.151172
0.161379
0.223644
0.00756179
0.0111833
0.0213586
0.0287929
0.042777
0.0472793
0.0594687
0.0641515
0.0787157
0.0815915
0.0903573
0.0932929
0.103821
0.107173
0.112754
0.121712
0.121203
0.141493
0.00774705
0.0191877
0.0248154
0.0339219
0.0436709
0.0481297
0.0570083
0.0623279
0.0740733
0.0788789
0.0858315
0.0896995
0.0958862
0.102933
0.104561
0.112789
0.112993
0.119037
0.00850357
0.032318
0.0378873
0.0537356
0.0563639
0.0610236
0.0646031
0.0721456
0.0795406
0.0881658
0.0915625
0.0979689
0.100712
0.107776
0.108532
0.112347
0.113883
0.117601
0.0208611
0.0598046
0.0690062
0.093567
0.0964608
0.103807
0.102597
0.109153
0.111322
0.120989
0.121714
0.126273
0.125679
0.128188
0.127194
0.127871
0.129065
0.130524
0.0632813
0.114875
0.127755
0.161721
0.167632
0.177622
0.17855
0.185359
0.188881
0.197418
0.197553
0.199578
0.194517
0.186132
0.175356
0.169967
0.169284
0.167283
0.166759
0.23416
0.266229
0.29657
0.30196
0.306659
0.304031
0.304045
0.299977
0.300089
0.293945
0.283587
0.268404
0.258954
0.248214
0.242519
0.237927
0.234064
0.31222
0.377789
0.420056
0.444804
0.451197
0.454002
0.449012
0.447074
0.440977
0.437786
0.427592
0.416189
0.399715
0.385874
0.369707
0.359746
0.343456
0.331064
0.552672
0.652884
0.732054
0.772909
0.784381
0.789544
0.780392
0.752298
0.716047
0.679674
0.638703
0.600009
0.560248
0.526379
0.490531
0.463614
0.431081
0.406409
0.898014
1.00479
1.07174
1.08949
1.08717
1.05777
0.995976
0.933921
0.869305
0.806977
0.744829
0.688977
0.634949
0.589723
0.543895
0.507876
0.467043
0.436818
1.13406
1.19928
1.23189
1.23575
1.22453
1.16983
1.08776
1.00872
0.930316
0.856334
0.784818
0.721526
0.661729
0.611678
0.561906
0.522529
0.479075
0.446404
1.18693
1.24342
1.26314
1.26357
1.24873
1.18841
1.1033
1.02088
0.939068
0.862326
0.788459
0.723466
0.662391
0.611391
0.560563
0.520068
0.47589
0.442653
1.07518
1.15736
1.1948
1.19956
1.18843
1.14183
1.06299
0.984325
0.906023
0.83184
0.75952
0.695935
0.636719
0.58734
0.537703
0.498036
0.454461
0.421753
0.686434
0.821287
0.907856
0.944917
0.953407
0.944947
0.915341
0.854743
0.789994
0.727492
0.663784
0.608035
0.557214
0.515213
0.472304
0.438285
0.399212
0.370398
0.437543
0.52014
0.575442
0.595656
0.59704
0.593774
0.584613
0.556257
0.520083
0.48432
0.443923
0.407936
0.375417
0.349938
0.322727
0.301557
0.275365
0.255833
0.232495
0.292835
0.342234
0.369896
0.378638
0.378499
0.374933
0.363606
0.337117
0.3103
0.281097
0.258231
0.240256
0.228637
0.216629
0.209084
0.197597
0.189984
0.12093
0.153254
0.190843
0.215072
0.219645
0.217878
0.211663
0.206211
0.200816
0.195958
0.191201
0.188503
0.186707
0.185429
0.183745
0.181726
0.17705
0.173192
0.0534079
0.0781072
0.0972014
0.106699
0.114793
0.124209
0.135567
0.147638
0.156469
0.162931
0.167725
0.172783
0.17791
0.181431
0.182358
0.182089
0.180796
0.178324
0.0234494
0.0341478
0.0439696
0.0591472
0.079378
0.101437
0.125642
0.146897
0.162311
0.174832
0.185642
0.196038
0.2068
0.215559
0.22122
0.224264
0.225506
0.225439
0.00711338
0.0165812
0.032746
0.0603947
0.103097
0.152453
0.203263
0.245651
0.274124
0.296147
0.316582
0.335337
0.356789
0.373862
0.387087
0.394786
0.398002
0.401296
0.0031019
0.0282283
0.0951359
0.226367
0.374706
0.509171
0.623153
0.701904
0.744669
0.771841
0.799171
0.8198
0.842221
0.861107
0.874339
0.879408
0.882711
0.884312
0.0209479
0.255276
0.761768
1.24859
1.63929
1.88791
2.02126
2.0699
2.06982
2.04112
2.03156
2.01288
1.99197
1.9778
1.94678
1.90375
1.87175
1.84267
0.471933
2.77132
4.13012
4.47686
4.47187
4.32207
4.07445
3.90205
3.79057
3.69898
3.61047
3.51543
3.43104
3.34299
3.25057
3.15718
3.07982
2.98648
6.99087
11.2679
11.0676
9.60821
8.53466
8.15194
8.19722
8.34767
8.6444
8.97989
9.24861
9.48622
9.64915
9.73555
9.75621
9.712
9.60264
9.36001
0.128273
0.228474
0.245626
0.251447
0.253971
0.25509
0.255498
0.259208
0.269267
0.285732
0.305518
0.326986
0.350255
0.373356
0.398228
0.426877
0.458984
0.494073
0.530419
0.569811
0.612861
0.66121
0.712547
0.768467
0.833155
0.904987
0.977188
1.06195
1.16411
1.27282
1.38916
1.54561
1.73056
1.92553
2.13997
2.38716
2.62912
2.88019
3.15899
3.42195
3.69209
3.95631
4.20846
4.38563
4.43127
4.18616
3.77251
3.59584
3.54126
3.55509
3.68968
3.91498
4.13024
4.35643
4.6256
4.7355
4.7675
4.74492
4.62046
4.52331
4.29417
4.10061
4.03347
4.01618
4.00304
4.03867
4.17086
4.50804
5.03638
5.58501
5.85263
5.9428
5.53842
5.43328
5.52518
5.79975
6.05433
6.67059
7.61808
8.54494
9.32489
10.0062
10.5919
10.9515
11.0834
11.0903
10.8192
10.3929
9.86726
9.34339
8.78067
8.15366
7.40834
6.61153
5.87548
5.26008
4.78822
4.35183
3.80464
3.41207
3.12324
2.81717
2.57127
2.32266
2.17487
2.0636
1.98252
1.94685
1.94831
1.99606
2.07964
2.15551
2.20633
2.2273
2.28298
2.51753
2.75073
2.74883
2.66101
2.6991
2.78775
2.78412
2.77704
2.78445
2.71828
2.63481
2.63547
2.7526
3.00747
3.29089
3.71252
4.22571
4.80055
5.3721
5.68992
5.86962
5.9823
6.23331
6.69444
7.02027
7.76858
8.36367
9.00952
9.81396
10.6984
11.5745
12.2798
12.6324
12.7408
12.2175
12.7078
13.6901
14.2413
14.338
13.9803
12.1786
10.8868
11.1189
10.8069
10.3529
8.85068
7.18438
6.4898
6.41463
6.92772
8.38051
9.36617
10.0791
10.3119
9.29927
7.86474
7.71989
8.50458
9.24939
10.8292
11.1138
11.637
17.1025
22.04
25.3349
0.29577
0.214467
0.202706
0.182699
0.161555
0.151913
0.141169
0.134994
0.133605
0.133616
0.135463
0.139782
0.146554
0.152736
0.157073
0.161775
0.167369
0.172978
0.178754
0.185974
0.193956
0.203726
0.213163
0.223849
0.235076
0.246844
0.254837
0.262713
0.275718
0.286535
0.290074
0.291631
0.299434
0.31436
0.324392
0.346561
0.39685
0.46169
0.543455
0.69118
0.862987
1.1087
1.4648
1.79021
2.37957
2.77961
2.84334
2.92583
2.77409
2.10728
1.59609
1.48082
1.469
1.55768
1.64726
1.63397
1.4354
1.13179
0.951149
0.842214
0.721436
0.696365
0.748943
0.848435
0.933294
1.0118
1.06954
1.25034
1.56945
1.98687
2.52173
2.8757
2.89969
3.17706
4.26853
4.89545
5.0101
5.04545
5.05394
4.88742
4.70013
4.50257
4.27796
4.0236
3.69286
3.37366
3.06756
2.80674
2.60271
2.42828
2.25006
2.03548
1.81731
1.64276
1.54101
1.47349
1.4204
1.33664
1.23816
1.2113
1.16971
1.11006
1.06078
1.02876
1.02803
1.01712
1.01306
1.01543
1.0257
1.04382
1.1093
1.18324
1.22009
1.23398
1.23687
1.30542
1.48677
1.5879
1.58215
1.58272
1.64942
1.72385
1.80112
1.87705
1.9153
1.91213
1.93099
2.05186
2.29753
2.45922
2.57911
2.74981
3.07344
3.55324
3.97867
4.09741
4.04771
4.12263
4.40457
4.47522
4.94554
5.11562
5.34615
5.82029
6.47476
6.87883
6.83655
6.31804
6.05052
6.05013
7.04143
8.16415
9.05901
9.23179
8.92708
7.10767
6.72851
7.5865
7.47698
7.56504
6.56852
5.34941
4.93899
5.0728
5.5089
6.34589
7.00469
7.41454
7.63045
7.03114
6.01414
5.84431
6.34174
6.64359
7.77886
8.4946
8.65067
9.04204
11.2825
13.2554
0.707103
0.233873
0.169074
0.160274
0.15445
0.146064
0.13088
0.118807
0.115026
0.114041
0.115092
0.120636
0.129732
0.137154
0.141212
0.146788
0.153951
0.161666
0.169406
0.177745
0.185682
0.195473
0.206418
0.216989
0.22393
0.22972
0.234988
0.241133
0.244074
0.243087
0.236631
0.235217
0.2371
0.236845
0.234166
0.233278
0.230632
0.223095
0.221299
0.225771
0.239419
0.271324
0.339023
0.433977
0.592742
0.852668
1.06827
1.28431
1.56281
1.69359
1.66337
1.52597
1.26505
1.01
0.854782
0.693838
0.503438
0.403801
0.370419
0.362002
0.363839
0.393171
0.485568
0.606699
0.718696
0.79972
0.857372
0.931525
1.11962
1.49472
2.12988
2.88639
3.25529
3.41742
3.53234
3.34042
2.90955
2.67607
2.36915
2.09924
1.8703
1.67363
1.48156
1.29597
1.12011
0.987188
0.899336
0.83352
0.793242
0.754694
0.711059
0.655522
0.611573
0.59177
0.5849
0.58269
0.57551
0.562109
0.552734
0.566266
0.56942
0.556137
0.545475
0.542629
0.571072
0.583638
0.595636
0.606188
0.612803
0.617889
0.647578
0.696655
0.739206
0.751484
0.730033
0.73621
0.838259
0.92651
0.969637
0.965637
0.98618
1.0512
1.12535
1.18895
1.27218
1.34924
1.46291
1.72333
1.88633
1.84888
1.77021
1.80708
2.07608
2.28882
2.47122
2.56047
2.61148
2.88433
3.13163
3.1585
3.27266
3.26001
3.28425
3.50758
3.94001
4.2876
4.25667
3.84898
3.51167
3.44486
3.8123
4.29706
4.97775
5.51481
5.54942
4.59739
4.45872
4.89233
4.88212
5.05031
4.67374
4.16629
4.2737
4.43515
4.75968
4.93247
5.00956
5.11049
5.28047
5.09988
4.61424
4.48471
4.57426
5.38261
6.9106
7.62309
7.08358
7.96165
7.65622
7.10242
1.38964
0.383738
0.168291
0.151721
0.161756
0.161144
0.139862
0.120055
0.115646
0.114819
0.118913
0.131064
0.146314
0.157866
0.167112
0.177208
0.185893
0.191286
0.194867
0.198889
0.203788
0.211125
0.216519
0.216911
0.215556
0.214616
0.214046
0.212054
0.206787
0.203907
0.205807
0.213421
0.21702
0.218518
0.219664
0.219469
0.212284
0.204223
0.201234
0.194833
0.189457
0.189506
0.193766
0.205972
0.233942
0.299703
0.377738
0.490805
0.693698
0.822554
1.13819
1.35826
1.32959
1.18395
0.932308
0.668467
0.441561
0.35044
0.32813
0.325658
0.362145
0.426015
0.56749
0.764153
0.927488
1.00925
1.10987
1.24276
1.48891
1.89797
2.42524
2.82186
2.94293
2.74814
2.12658
1.73601
1.52348
1.28442
1.09163
0.947427
0.829349
0.742751
0.653865
0.572415
0.507528
0.471487
0.45178
0.439084
0.431124
0.422094
0.407838
0.387331
0.377539
0.375766
0.381544
0.388399
0.388124
0.38477
0.382063
0.390599
0.398257
0.394943
0.386667
0.381539
0.401541
0.429222
0.454409
0.470825
0.480474
0.490582
0.499747
0.517787
0.580197
0.598252
0.584239
0.567376
0.604717
0.692189
0.723683
0.725664
0.740242
0.806476
0.862941
0.892775
0.981523
1.08141
1.22765
1.57149
1.73268
1.64041
1.48369
1.46581
1.64541
1.92489
1.94751
1.92918
1.99152
2.31361
2.64505
2.69101
2.68976
2.71004
2.72209
2.83084
3.03589
3.22943
3.24995
2.99627
2.73104
2.60928
2.76264
2.98012
3.3487
3.95287
4.1261
3.7186
3.75246
3.79806
3.88369
3.8588
3.70466
3.57727
3.96815
4.00333
4.0916
4.17352
4.30836
4.34807
4.4716
4.42785
4.06508
3.93856
3.94028
5.38318
6.87154
6.52143
5.47171
7.65064
6.65048
5.23833
2.0841
0.720909
0.197244
0.15122
0.1766
0.184739
0.146433
0.127225
0.122914
0.125083
0.142899
0.169206
0.198083
0.207135
0.205181
0.200372
0.197281
0.196245
0.195672
0.194326
0.19121
0.185523
0.176369
0.167608
0.162222
0.15774
0.153477
0.151898
0.15167
0.152528
0.156674
0.161869
0.165268
0.171864
0.177849
0.18281
0.192342
0.197915
0.198649
0.197041
0.193648
0.187672
0.183967
0.183995
0.185049
0.191364
0.208823
0.24096
0.308972
0.393294
0.524069
0.73306
1.0717
1.15532
1.04571
0.831829
0.506526
0.379398
0.360438
0.380772
0.445737
0.522715
0.700863
0.922677
1.0543
1.14526
1.27702
1.46622
1.69298
1.98967
2.20661
2.25651
1.80273
1.42852
1.14961
0.915027
0.792891
0.669956
0.577342
0.525052
0.474375
0.443898
0.409013
0.375039
0.347667
0.337039
0.333344
0.3313
0.329502
0.326107
0.316112
0.301549
0.294791
0.294813
0.305472
0.325028
0.327815
0.323885
0.318151
0.32143
0.328295
0.329418
0.325409
0.315068
0.32349
0.337868
0.358594
0.381548
0.401624
0.430548
0.447707
0.446651
0.469798
0.5281
0.527311
0.516662
0.524256
0.591445
0.617189
0.620349
0.622835
0.682665
0.740549
0.764436
0.834311
0.933648
1.02007
1.24163
1.46134
1.55201
1.47579
1.44993
1.48991
1.71775
1.78533
1.69829
1.69075
1.87465
2.27536
2.2905
2.41389
2.54956
2.63091
2.68316
2.7728
2.79894
2.79232
2.57662
2.41152
2.33645
2.37953
2.51893
2.71493
3.17325
3.38522
3.40024
3.6285
3.47728
3.60756
3.25057
3.18654
3.33525
3.58541
3.63995
3.52138
3.47603
3.63625
3.93828
4.14715
4.173
3.84888
3.6583
3.83369
5.53932
6.49466
5.3862
5.28756
5.66335
6.13213
5.13544
2.7549
0.998612
0.254432
0.160028
0.196024
0.191182
0.149271
0.138815
0.139793
0.16341
0.204474
0.22708
0.229677
0.225315
0.211476
0.199103
0.193704
0.189665
0.184274
0.176908
0.170659
0.163794
0.157265
0.151858
0.147996
0.143074
0.137998
0.135885
0.135154
0.135076
0.136125
0.138749
0.143313
0.150393
0.157424
0.165723
0.174927
0.181399
0.188861
0.196735
0.202342
0.203016
0.201561
0.197505
0.189395
0.18895
0.192304
0.196432
0.209392
0.237814
0.282205
0.366458
0.537356
0.834618
0.981659
0.913469
0.763709
0.532108
0.465462
0.499703
0.579941
0.659037
0.823165
0.998669
1.08805
1.18369
1.29024
1.4548
1.59625
1.66171
1.4717
1.26328
0.961968
0.761735
0.648804
0.536727
0.470135
0.420507
0.385635
0.368506
0.353012
0.342343
0.328397
0.312957
0.298052
0.287522
0.278109
0.273818
0.266969
0.255731
0.244192
0.23288
0.227996
0.227944
0.232985
0.252686
0.281346
0.28868
0.281002
0.283099
0.287979
0.289393
0.285932
0.280263
0.284546
0.29487
0.304818
0.313191
0.323284
0.337422
0.371299
0.38888
0.395943
0.419852
0.46764
0.473171
0.478817
0.519687
0.569546
0.58931
0.587861
0.624337
0.662931
0.690957
0.776507
0.850897
0.899625
0.990991
1.18045
1.33219
1.39548
1.36426
1.39708
1.56365
1.79246
1.65799
1.54493
1.65075
1.91607
2.04763
2.27707
2.39771
2.55429
2.60195
2.7265
2.68191
2.63605
2.38346
2.21944
2.23465
2.29075
2.33026
2.53222
2.74636
2.9039
3.34389
3.56856
3.36545
3.49492
3.04434
2.93076
3.2049
3.3593
3.15645
3.06727
3.01706
3.14368
3.53021
3.88745
3.9732
3.72082
3.51261
3.8106
5.64
5.5549
4.52787
4.16912
4.10354
5.6423
5.07768
3.37604
1.18302
0.284842
0.179503
0.207657
0.175347
0.155616
0.155674
0.181442
0.245792
0.26243
0.249494
0.228383
0.222195
0.216991
0.203847
0.195237
0.1903
0.18307
0.175279
0.16931
0.163428
0.158312
0.152938
0.148334
0.142798
0.13625
0.132849
0.131499
0.13121
0.131542
0.133567
0.138036
0.144367
0.151754
0.160572
0.169597
0.176918
0.18651
0.197428
0.206186
0.213783
0.218413
0.218928
0.215552
0.208019
0.203359
0.203068
0.206798
0.211279
0.219269
0.243939
0.303752
0.433021
0.666389
0.828858
0.783036
0.694846
0.643927
0.643647
0.702665
0.763607
0.886521
1.02016
1.07525
1.14803
1.19657
1.22051
1.16298
1.05051
0.864297
0.713582
0.568584
0.470747
0.420734
0.377999
0.344715
0.326175
0.309856
0.302604
0.295619
0.290537
0.282889
0.274524
0.262882
0.253298
0.243335
0.234128
0.224605
0.215006
0.203784
0.198032
0.194887
0.194592
0.195819
0.200038
0.20976
0.228765
0.244098
0.262199
0.263443
0.264419
0.260818
0.259846
0.264524
0.274276
0.278361
0.279366
0.275869
0.279599
0.301183
0.322881
0.340375
0.353406
0.378213
0.394798
0.40529
0.424172
0.483492
0.521085
0.552808
0.580207
0.587291
0.611708
0.727791
0.773392
0.829971
0.911026
1.11631
1.22833
1.23052
1.2387
1.28232
1.34516
1.72617
1.65325
1.52037
1.6181
1.74277
2.01445
2.28463
2.37496
2.48875
2.44131
2.57373
2.60232
2.56144
2.31811
2.118
2.12471
2.301
2.24151
2.45955
2.51754
2.64402
3.38595
3.53547
3.17216
3.26165
2.96975
2.88762
3.17613
3.3816
3.13889
2.99755
2.8876
2.8256
3.15626
3.58388
3.76048
3.54239
3.41604
3.75346
5.56462
4.97252
3.89593
2.97439
3.38307
4.9203
4.65554
3.94526
1.33236
0.306626
0.199558
0.197197
0.174328
0.176537
0.196207
0.243997
0.274425
0.278407
0.274066
0.248503
0.232949
0.228354
0.223722
0.212987
0.203188
0.196894
0.190634
0.189117
0.188818
0.186594
0.180614
0.173566
0.164176
0.151423
0.141444
0.134933
0.132727
0.13236
0.133439
0.137259
0.142842
0.151047
0.161586
0.174143
0.186734
0.198656
0.209213
0.217847
0.225376
0.236526
0.24541
0.246375
0.244068
0.238033
0.229263
0.223605
0.219427
0.220416
0.228797
0.247646
0.287328
0.376813
0.52806
0.688908
0.692467
0.673891
0.688402
0.735369
0.795947
0.91871
1.01658
1.02964
1.00065
0.97697
0.917696
0.790338
0.67603
0.549695
0.455476
0.395843
0.35389
0.327999
0.300823
0.281431
0.267823
0.260117
0.255322
0.251215
0.247101
0.242453
0.237173
0.230957
0.224507
0.217116
0.207407
0.197072
0.191722
0.185296
0.182575
0.181665
0.18199
0.182231
0.178278
0.1763
0.183653
0.196271
0.223692
0.231756
0.244219
0.24471
0.24552
0.252193
0.259661
0.263968
0.26001
0.250037
0.244842
0.253184
0.266963
0.284425
0.300056
0.313266
0.338523
0.354928
0.368796
0.40561
0.435992
0.477312
0.493075
0.514977
0.572742
0.693078
0.73339
0.769007
0.849629
1.08083
1.15981
1.12427
1.15653
1.25362
1.22966
1.41991
1.61836
1.53103
1.58907
1.64018
1.99051
2.29172
2.34033
2.38279
2.3481
2.30633
2.30674
2.3249
2.21754
2.07072
2.05783
2.20128
2.20681
2.4284
2.4776
2.56103
3.39588
3.51536
3.12081
2.84878
2.99399
3.19668
3.52516
3.53667
3.29511
3.09104
3.00175
2.81799
2.93679
3.30282
3.53698
3.32078
3.2831
3.71175
5.02837
4.68667
3.76913
2.84926
3.04725
4.16917
4.05754
4.52168
1.64035
0.373905
0.219326
0.207027
0.210194
0.214125
0.272285
0.289084
0.281568
0.281149
0.286256
0.286761
0.269062
0.260556
0.256675
0.247726
0.235932
0.227858
0.227904
0.233006
0.241784
0.245462
0.246517
0.240636
0.23003
0.208793
0.183838
0.158448
0.143872
0.138515
0.1371
0.137281
0.141417
0.147841
0.157944
0.171815
0.188472
0.204392
0.220781
0.235588
0.245041
0.250214
0.256671
0.263575
0.270329
0.271661
0.270583
0.267723
0.259316
0.252122
0.249188
0.254623
0.269076
0.29339
0.339108
0.442465
0.586348
0.650755
0.680314
0.739687
0.826991
0.91548
0.98539
0.976361
0.899643
0.810069
0.716969
0.559332
0.474018
0.392801
0.342398
0.316153
0.29063
0.261067
0.246463
0.235538
0.229072
0.225692
0.224006
0.221696
0.219705
0.216757
0.211209
0.205647
0.195747
0.180077
0.173578
0.170808
0.172183
0.175572
0.176674
0.177319
0.179261
0.179434
0.175113
0.166622
0.166675
0.169936
0.177792
0.18593
0.216824
0.232697
0.23461
0.241343
0.247445
0.249926
0.247095
0.231091
0.223144
0.222492
0.225661
0.242193
0.261606
0.263713
0.282089
0.306849
0.320057
0.340992
0.37865
0.407526
0.431593
0.494738
0.527562
0.592982
0.651873
0.692391
0.789536
1.01826
0.980183
0.965382
1.05348
1.21335
1.16074
1.14762
1.40733
1.46151
1.46281
1.53038
1.94403
2.22668
2.31247
2.29075
2.12862
2.00888
1.96527
2.12274
2.11014
1.94535
1.96428
2.05843
2.18973
2.39679
2.49315
2.57995
3.3495
3.34405
3.08273
2.86833
3.13976
3.82979
3.96061
3.66891
3.24506
2.80625
2.93341
2.83692
2.84009
3.08423
3.31116
3.13514
3.13205
3.62065
4.49543
4.38503
3.67919
2.89732
2.89309
3.63154
3.82213
4.96686
1.73232
0.385172
0.20475
0.198793
0.221708
0.248294
0.303868
0.31145
0.302619
0.300553
0.301657
0.296347
0.276728
0.268563
0.265927
0.26374
0.259439
0.258663
0.259962
0.265285
0.277808
0.295875
0.312713
0.319123
0.320927
0.313207
0.284866
0.235438
0.18314
0.155043
0.144023
0.140729
0.140373
0.142998
0.147678
0.154553
0.165416
0.18176
0.201808
0.225056
0.24063
0.246972
0.252874
0.26244
0.276281
0.286179
0.301246
0.309872
0.304782
0.293783
0.290038
0.286508
0.283822
0.292044
0.299889
0.324667
0.391623
0.516187
0.638723
0.727666
0.8265
0.897441
0.962467
0.957698
0.853169
0.697016
0.572749
0.429787
0.365703
0.314164
0.28495
0.265046
0.23484
0.219065
0.212017
0.209295
0.20921
0.212443
0.212286
0.211189
0.210289
0.206702
0.197071
0.180902
0.161671
0.152199
0.150052
0.148796
0.153622
0.16364
0.170577
0.176087
0.180297
0.180992
0.178618
0.163697
0.161143
0.161502
0.158944
0.15781
0.179508
0.206267
0.209607
0.210708
0.216936
0.220512
0.218117
0.204981
0.200538
0.204072
0.201486
0.212781
0.227955
0.231544
0.245424
0.261071
0.272367
0.300833
0.343902
0.350449
0.373859
0.45971
0.468152
0.475024
0.535849
0.660278
0.791342
0.82324
0.804701
0.860971
1.00176
1.17619
1.12911
1.03655
1.26172
1.33835
1.29426
1.40734
1.99063
2.2353
2.04102
1.95252
1.87163
1.8448
1.78621
1.87054
1.82849
1.78918
1.92985
2.02547
2.17975
2.37658
2.49162
2.57104
3.26276
3.07085
2.84901
2.58889
3.15853
4.05671
3.99128
3.55925
3.06152
2.32355
2.49597
2.68524
2.69619
2.92166
3.07639
3.00107
2.99501
3.35276
4.1079
4.01823
3.45851
2.87259
2.65192
3.13423
3.61163
5.43298
1.96458
0.409528
0.212849
0.198243
0.22578
0.293352
0.319534
0.324167
0.324029
0.303913
0.289929
0.279462
0.271834
0.270235
0.273732
0.278862
0.279684
0.275874
0.275353
0.277589
0.288191
0.308791
0.332895
0.341869
0.347361
0.353391
0.360541
0.347487
0.29156
0.207547
0.16475
0.149361
0.14511
0.144443
0.146308
0.151268
0.156231
0.162258
0.170636
0.182973
0.202793
0.225369
0.237915
0.250616
0.270924
0.285969
0.30541
0.337362
0.358741
0.364037
0.362503
0.349417
0.319876
0.313798
0.303988
0.298035
0.307187
0.357264
0.481732
0.671742
0.802645
0.849198
0.918867
0.938918
0.853319
0.660579
0.502221
0.36438
0.306123
0.270249
0.249388
0.226411
0.203956
0.197188
0.19581
0.197952
0.202207
0.203768
0.203646
0.201588
0.196425
0.187377
0.16915
0.148463
0.138149
0.133309
0.132379
0.132665
0.137911
0.146072
0.156155
0.17493
0.181801
0.184619
0.184607
0.1731
0.161423
0.162741
0.153873
0.146583
0.153332
0.166873
0.168042
0.169004
0.174119
0.186523
0.191284
0.187302
0.182185
0.186851
0.184716
0.195801
0.205205
0.206872
0.220434
0.236459
0.241697
0.27417
0.313179
0.314594
0.341425
0.404952
0.427986
0.426796
0.473405
0.61549
0.762624
0.767756
0.82369
0.841834
0.981275
1.14967
1.08984
1.05878
1.21792
1.23948
1.13409
1.31623
2.00142
2.09515
1.81967
1.80966
1.89179
1.80444
1.60837
1.55622
1.57205
1.7543
1.94497
2.03919
2.29327
2.47014
2.44335
2.45925
2.96116
2.77435
2.5497
2.33775
2.78887
3.44672
3.43322
3.08262
2.72609
2.24522
2.28558
2.58549
2.55195
2.81125
2.89164
2.84679
2.86817
3.06968
3.73204
3.65999
3.23082
2.76566
2.43879
2.767
3.47628
5.87499
2.64479
0.591347
0.219358
0.20299
0.260445
0.332465
0.3413
0.337664
0.32965
0.297663
0.268471
0.258312
0.255681
0.257549
0.272712
0.294869
0.309232
0.316078
0.305707
0.302817
0.303166
0.323497
0.345436
0.348175
0.34887
0.357219
0.379347
0.396291
0.391222
0.330771
0.219077
0.171965
0.157518
0.154787
0.155468
0.160011
0.165537
0.168118
0.170416
0.174659
0.181555
0.191738
0.211039
0.229809
0.246906
0.267047
0.291276
0.333414
0.373024
0.392375
0.416105
0.435139
0.410446
0.36831
0.330806
0.301498
0.290739
0.296062
0.343188
0.497358
0.739413
0.808656
0.882036
0.919597
0.860781
0.657286
0.455673
0.328222
0.274136
0.247161
0.228324
0.199899
0.18771
0.185449
0.185548
0.18752
0.189492
0.189363
0.18662
0.180586
0.171636
0.159144
0.143446
0.132082
0.1281
0.126829
0.127671
0.128884
0.132406
0.134851
0.139215
0.152395
0.172148
0.182823
0.187016
0.186113
0.172883
0.17182
0.157485
0.14213
0.136986
0.143471
0.141718
0.140626
0.148376
0.167702
0.173748
0.175503
0.172171
0.178333
0.175818
0.180266
0.192617
0.19422
0.202914
0.227673
0.231901
0.258639
0.289882
0.299363
0.323701
0.368517
0.386488
0.405957
0.456991
0.559709
0.653626
0.736549
0.840714
0.830228
0.951657
1.05393
1.0463
1.07614
1.17093
1.19648
1.07582
1.28732
2.04756
1.91562
1.7253
1.80997
1.86402
1.65821
1.42633
1.43566
1.49883
1.78064
2.02599
2.13957
2.65908
2.61274
2.41034
2.35844
2.60031
2.40272
2.33234
2.29863
2.50948
2.85986
2.70726
2.54091
2.31808
2.04533
2.05775
2.52208
2.42945
2.72946
2.79815
2.69253
2.75888
2.8214
3.34037
3.3031
2.98191
2.4843
2.24769
2.52051
3.33982
6.33499
3.08544
0.840065
0.270673
0.214684
0.259043
0.331109
0.342738
0.338678
0.318702
0.274045
0.231914
0.216637
0.211944
0.212674
0.233487
0.26874
0.310323
0.350324
0.370462
0.368933
0.357583
0.367827
0.383321
0.38093
0.360109
0.358363
0.376989
0.422478
0.439303
0.421549
0.333714
0.220863
0.182421
0.173499
0.173696
0.182165
0.195515
0.201723
0.200052
0.19019
0.183763
0.179994
0.180142
0.188765
0.204867
0.221537
0.24508
0.289973
0.348348
0.381142
0.41688
0.473863
0.513587
0.502557
0.433969
0.332575
0.298626
0.28929
0.289298
0.353735
0.555212
0.719639
0.850997
0.908768
0.87069
0.670893
0.443402
0.314109
0.261103
0.236257
0.211961
0.185122
0.177601
0.17619
0.175952
0.17829
0.179292
0.178431
0.174766
0.168327
0.159398
0.145594
0.134058
0.127614
0.125479
0.12518
0.126961
0.128251
0.131262
0.132085
0.132244
0.13394
0.142394
0.153585
0.180708
0.190547
0.185003
0.179677
0.16728
0.141721
0.133145
0.131497
0.132649
0.130973
0.137202
0.156945
0.170061
0.171932
0.171117
0.172907
0.176705
0.176109
0.183664
0.193985
0.196801
0.217986
0.231979
0.255259
0.281525
0.294261
0.308139
0.348545
0.363
0.387206
0.435052
0.509858
0.59199
0.660181
0.800308
0.809618
0.872441
0.901647
0.968879
1.05565
1.15622
1.18203
1.07908
1.31282
2.21687
1.85604
1.68282
1.7464
1.69268
1.4411
1.37772
1.43572
1.49986
1.90007
2.1159
2.34429
2.75386
2.62476
2.39946
2.1927
2.32123
2.15089
2.11658
2.28823
2.34332
2.64833
2.19621
2.07747
1.94714
1.8359
1.89044
2.43764
2.3931
2.58162
2.74307
2.58632
2.66287
2.64125
2.99734
2.98779
2.65825
2.25156
2.04674
2.28644
3.20739
6.79675
3.40509
0.87025
0.258283
0.202726
0.247041
0.304755
0.314865
0.311721
0.284908
0.241636
0.204144
0.187015
0.181737
0.180805
0.188559
0.207896
0.250543
0.326379
0.395507
0.430144
0.448656
0.446456
0.443253
0.43587
0.411016
0.400903
0.410934
0.468626
0.515481
0.528533
0.462558
0.33492
0.238087
0.207445
0.198795
0.198173
0.208264
0.225438
0.238259
0.240695
0.219614
0.187788
0.173417
0.168019
0.168455
0.177876
0.192897
0.214721
0.265176
0.328075
0.380011
0.459926
0.531974
0.606637
0.599986
0.477869
0.344386
0.298837
0.279769
0.289387
0.380488
0.538427
0.766593
0.887254
0.876026
0.714548
0.447748
0.314134
0.258273
0.232242
0.203718
0.177021
0.17116
0.170852
0.171556
0.17399
0.175075
0.174245
0.171025
0.163926
0.155422
0.14218
0.132889
0.128162
0.126535
0.12699
0.130278
0.132285
0.133379
0.134396
0.132338
0.130147
0.132803
0.139675
0.146764
0.176786
0.188623
0.180152
0.173375
0.149472
0.133152
0.130291
0.129802
0.130333
0.133905
0.151954
0.170853
0.169183
0.175931
0.173288
0.177952
0.181399
0.18276
0.194467
0.197277
0.211535
0.229022
0.254171
0.274658
0.284754
0.2963
0.329997
0.341874
0.369212
0.404679
0.472572
0.549481
0.600994
0.690829
0.721748
0.753566
0.821568
0.870063
1.00813
1.16603
1.14332
1.10147
1.45579
2.29281
1.77375
1.54973
1.5334
1.50121
1.43821
1.39359
1.39189
1.50235
1.99596
2.17488
2.6481
2.80269
2.6315
2.5348
2.02916
2.17384
1.96645
2.03025
2.29023
2.3068
2.61012
1.84023
1.8342
1.65722
1.68822
1.80972
2.28598
2.41385
2.40344
2.63057
2.5334
2.58877
2.52374
2.74448
2.75541
2.40389
2.07054
1.91717
2.14911
3.10676
7.27562
3.77675
1.04413
0.293706
0.198693
0.228046
0.298542
0.320953
0.315478
0.291369
0.256104
0.220868
0.192716
0.178427
0.175775
0.180276
0.191646
0.205973
0.233179
0.298467
0.41667
0.492006
0.518691
0.544123
0.580676
0.546407
0.485814
0.477718
0.51936
0.587929
0.662582
0.690239
0.597744
0.440593
0.328286
0.266936
0.236442
0.223525
0.226968
0.24525
0.259486
0.261336
0.237841
0.187253
0.163975
0.155379
0.154455
0.161125
0.180358
0.214181
0.26639
0.31206
0.377791
0.474737
0.606125
0.682755
0.627099
0.504454
0.343371
0.283979
0.269424
0.295322
0.387637
0.587901
0.83227
0.864147
0.746202
0.469742
0.317683
0.258753
0.232286
0.203288
0.175448
0.170294
0.170974
0.171382
0.173094
0.174863
0.174146
0.171067
0.163956
0.155883
0.143752
0.137027
0.134673
0.13446
0.136835
0.143138
0.151158
0.153759
0.148422
0.143805
0.138068
0.130022
0.132312
0.136959
0.140161
0.166698
0.169123
0.164195
0.152628
0.135939
0.131974
0.128568
0.130035
0.133595
0.144361
0.167401
0.164378
0.175934
0.175712
0.175492
0.183268
0.186074
0.193402
0.199186
0.209147
0.220801
0.24651
0.265395
0.271484
0.286064
0.316001
0.324212
0.351316
0.372539
0.44039
0.489359
0.549646
0.601518
0.615669
0.639335
0.744993
0.776112
0.916938
1.12392
1.13714
1.11894
1.6587
2.28923
1.68103
1.41649
1.37099
1.35345
1.43049
1.38882
1.36816
1.52594
2.02505
2.27692
2.96285
3.04935
2.76973
2.57795
1.94767
2.00808
1.87948
2.13012
2.50105
2.37872
2.52192
1.6973
1.62737
1.52577
1.5834
1.72954
2.09616
2.43654
2.27969
2.47063
2.5206
2.49423
2.42186
2.582
2.58435
2.26233
1.94839
1.87302
2.07299
2.97214
7.9966
4.37041
1.65031
0.541166
0.248762
0.212393
0.235681
0.292527
0.31441
0.310562
0.292114
0.264282
0.226538
0.199481
0.184542
0.182856
0.185978
0.193126
0.205175
0.216983
0.236292
0.308891
0.469628
0.537819
0.653203
0.71246
0.64986
0.592313
0.575211
0.60031
0.674481
0.742659
0.774742
0.715836
0.602855
0.488518
0.379181
0.29893
0.254114
0.246264
0.261453
0.273533
0.265901
0.225598
0.175425
0.153225
0.145505
0.145268
0.154687
0.182585
0.235252
0.274351
0.309576
0.375933
0.529969
0.683767
0.691061
0.626246
0.474831
0.305394
0.268978
0.264487
0.301276
0.424678
0.696765
0.821997
0.759678
0.528017
0.326795
0.261205
0.233818
0.205333
0.176278
0.170912
0.171087
0.171026
0.172847
0.175915
0.176101
0.174036
0.167726
0.162356
0.158381
0.164623
0.172775
0.176727
0.181887
0.185549
0.18397
0.170533
0.166352
0.15123
0.147045
0.136667
0.129017
0.127489
0.129917
0.136149
0.146072
0.152905
0.149938
0.137955
0.135842
0.132389
0.130811
0.13416
0.143158
0.154968
0.158801
0.168159
0.174837
0.173352
0.178171
0.188542
0.191677
0.198973
0.210069
0.215959
0.238988
0.261431
0.263102
0.281057
0.30583
0.310685
0.33319
0.349764
0.403978
0.448234
0.494286
0.534176
0.544596
0.560157
0.688654
0.704453
0.792316
0.943905
1.13858
1.15434
1.80384
2.22001
1.64668
1.32078
1.22613
1.19652
1.3865
1.40392
1.38579
1.5478
1.99137
2.50716
3.23368
3.46856
2.90186
2.49152
2.13227
1.97969
1.99184
2.57873
2.65649
2.3443
2.28709