/*--------------------------------*- C++ -*----------------------------------*\
| =========                 |                                                 |
| \\      /  F ield         | OpenFOAM: The Open Source CFD Toolbox           |
|  \\    /   O peration     | Version:  dev                                   |
|   \\  /    A nd           | Web:      http://www.openfoam.org               |
|    \\/     M anipulation  |                                                 |
\*---------------------------------------------------------------------------*/
FoamFile
{
    version     2.0;
    format      ascii;
    class       volScalarField;
    object      muSgs;
    location    "9.149";
}
// * * * * * * * * * * * * * * * * * * * * * * * * * * * * * * * * * * * * * //

dimensions      [1 -1 -1 0 0 0 0];

internalField   nonuniform List<scalar> 
12225
(
0.000211467
0.000242356
0.000215785
0.000221708
0.000205259
0.000234204
0.000221857
0.000258938
0.000239007
0.000284204
0.000251405
0.00031069
0.000264384
0.000331517
0.000295258
0.000342566
0.000326285
0.000321834
0.000108153
0.0001756
0.000166926
0.000171808
0.000155716
0.000164772
0.000151499
0.000166438
0.000153352
0.000173315
0.00015823
0.000178974
0.000169474
0.000173607
0.000192103
0.000185836
0.000196671
0.00023107
3.45227e-05
9.5838e-05
0.000103101
0.000123825
0.000120956
0.000125173
0.000120154
0.000122034
0.000118314
0.000117256
0.000117039
0.000111177
0.000117102
9.99065e-05
0.000112654
8.99438e-05
0.000108532
0.000102571
1.05655e-05
3.89427e-05
5.86903e-05
6.96519e-05
8.04024e-05
8.11207e-05
8.61405e-05
8.39697e-05
8.75061e-05
8.29875e-05
8.72805e-05
7.97426e-05
8.39496e-05
7.13511e-05
7.64205e-05
6.14271e-05
7.4616e-05
6.79289e-05
4.74981e-06
1.70146e-05
3.09919e-05
3.75012e-05
4.86664e-05
5.0372e-05
5.61699e-05
5.60457e-05
5.94771e-05
5.71971e-05
5.88736e-05
5.39729e-05
5.70231e-05
4.9953e-05
5.32254e-05
4.36233e-05
5.17097e-05
5.05741e-05
4.19048e-06
9.08356e-06
1.74822e-05
2.13516e-05
2.89384e-05
3.02607e-05
3.55579e-05
3.58592e-05
3.96138e-05
3.78245e-05
3.93897e-05
3.65934e-05
3.9227e-05
3.60399e-05
3.8073e-05
3.48274e-05
3.99663e-05
4.21503e-05
6.29631e-06
8.63068e-06
1.32451e-05
1.54521e-05
2.05846e-05
2.13896e-05
2.50355e-05
2.52199e-05
2.82159e-05
2.74239e-05
2.85009e-05
2.75837e-05
2.93358e-05
2.84239e-05
2.94349e-05
2.86352e-05
2.96917e-05
3.35867e-05
6.99899e-06
8.47262e-06
1.15003e-05
1.31484e-05
1.59061e-05
1.64236e-05
1.82111e-05
1.85665e-05
2.02968e-05
2.03064e-05
2.10656e-05
2.10172e-05
2.18767e-05
2.18347e-05
2.20991e-05
2.2616e-05
2.23209e-05
2.34373e-05
7.54632e-06
1.19913e-05
1.34279e-05
1.54571e-05
1.73554e-05
1.79083e-05
1.92374e-05
1.97312e-05
2.1204e-05
2.15316e-05
2.21271e-05
2.2228e-05
2.26375e-05
2.30792e-05
2.29015e-05
2.33746e-05
2.3101e-05
2.3106e-05
8.33371e-06
1.68101e-05
1.79438e-05
2.10479e-05
2.13033e-05
2.18418e-05
2.20877e-05
2.29254e-05
2.36979e-05
2.45884e-05
2.46359e-05
2.50896e-05
2.50248e-05
2.54532e-05
2.5175e-05
2.51357e-05
2.49382e-05
2.48121e-05
1.4329e-05
2.47757e-05
2.62304e-05
3.00855e-05
3.01446e-05
3.07892e-05
3.01192e-05
3.04789e-05
3.0274e-05
3.10711e-05
3.06736e-05
3.07159e-05
3.01892e-05
2.99496e-05
2.93522e-05
2.8886e-05
2.85035e-05
2.81312e-05
2.75004e-05
3.73019e-05
3.86941e-05
4.28273e-05
4.2998e-05
4.35648e-05
4.29564e-05
4.2992e-05
4.26547e-05
4.2932e-05
4.22537e-05
4.17639e-05
4.06577e-05
3.91109e-05
3.72995e-05
3.59717e-05
3.52202e-05
3.43763e-05
4.86832e-05
5.782e-05
6.0644e-05
6.30309e-05
6.2584e-05
6.20071e-05
6.07277e-05
5.96789e-05
5.82908e-05
5.72873e-05
5.58312e-05
5.39633e-05
5.15805e-05
4.97364e-05
4.78066e-05
4.63517e-05
4.50829e-05
4.38708e-05
7.2501e-05
7.98045e-05
8.26804e-05
8.36833e-05
8.28585e-05
8.16832e-05
7.98799e-05
7.83055e-05
7.64294e-05
7.48386e-05
7.27519e-05
7.05523e-05
6.79255e-05
6.55787e-05
6.30298e-05
6.10546e-05
5.86007e-05
5.64697e-05
0.000104622
0.000113873
0.000118441
0.000119662
0.000118455
0.000116766
0.000114183
0.000110276
0.000105712
0.000101238
9.64433e-05
9.18607e-05
8.7194e-05
8.30304e-05
7.86923e-05
7.51353e-05
7.11591e-05
6.78065e-05
0.000144967
0.000153875
0.000155985
0.000154492
0.000151554
0.000147114
0.000140283
0.000133446
0.000126486
0.000119733
0.000112998
0.000106743
0.00010063
9.52227e-05
8.97658e-05
8.51771e-05
8.01887e-05
7.60941e-05
0.000177591
0.00018335
0.000182262
0.000179147
0.000175134
0.000168445
0.000159499
0.000150832
0.00014224
0.000134
0.000125982
0.00011861
0.000111498
0.000105223
9.90028e-05
9.37159e-05
8.80853e-05
8.34138e-05
0.000184333
0.000189605
0.000187412
0.000183878
0.000179494
0.000172248
0.000162943
0.000153881
0.000144874
0.000136283
0.000127978
0.000120338
0.000112966
0.000106514
0.000100105
9.46393e-05
8.88795e-05
8.40719e-05
0.000166859
0.000174144
0.00017357
0.000170673
0.000166783
0.000160765
0.000152337
0.000143927
0.000135511
0.000127452
0.000119644
0.000112446
0.000105487
9.94175e-05
9.33743e-05
8.82056e-05
8.27341e-05
7.81748e-05
0.000126481
0.000139374
0.000143866
0.000144164
0.000142165
0.000138991
0.000134481
0.000127727
0.000120516
0.000113527
0.000106581
0.000100177
9.40446e-05
8.87415e-05
8.33825e-05
7.88218e-05
7.38851e-05
6.98132e-05
9.60682e-05
0.000105405
0.000108888
0.000108868
0.000107028
0.000104786
0.000102194
9.81159e-05
9.31061e-05
8.82059e-05
8.30255e-05
7.816e-05
7.35333e-05
6.96557e-05
6.56174e-05
6.22552e-05
5.84306e-05
5.52631e-05
6.64496e-05
7.49864e-05
7.96195e-05
8.13887e-05
8.09367e-05
7.94424e-05
7.77042e-05
7.5282e-05
7.12787e-05
6.71485e-05
6.27818e-05
5.90306e-05
5.58198e-05
5.33876e-05
5.09418e-05
4.90924e-05
4.68389e-05
4.50433e-05
4.54013e-05
5.13712e-05
5.62813e-05
5.88233e-05
5.84793e-05
5.72325e-05
5.54164e-05
5.37018e-05
5.20399e-05
5.04341e-05
4.88647e-05
4.75933e-05
4.64519e-05
4.54122e-05
4.43575e-05
4.32862e-05
4.19479e-05
4.06942e-05
2.84129e-05
3.46646e-05
3.80514e-05
3.91936e-05
3.99422e-05
4.07781e-05
4.17955e-05
4.2835e-05
4.33273e-05
4.34134e-05
4.32264e-05
4.30317e-05
4.28398e-05
4.2477e-05
4.18142e-05
4.09992e-05
4.00997e-05
3.90716e-05
1.78384e-05
2.16851e-05
2.41467e-05
2.74625e-05
3.12247e-05
3.46632e-05
3.79112e-05
4.03199e-05
4.16562e-05
4.24641e-05
4.29425e-05
4.32759e-05
4.3613e-05
4.37095e-05
4.3477e-05
4.29681e-05
4.22698e-05
4.14479e-05
9.21113e-06
1.41798e-05
1.95439e-05
2.60518e-05
3.34643e-05
4.00382e-05
4.55139e-05
4.92806e-05
5.11937e-05
5.22298e-05
5.29817e-05
5.3464e-05
5.40965e-05
5.43561e-05
5.43033e-05
5.38378e-05
5.30221e-05
5.22164e-05
5.62649e-06
1.73531e-05
3.13399e-05
4.77764e-05
6.05818e-05
6.94971e-05
7.56476e-05
7.90019e-05
7.99885e-05
7.99195e-05
7.97845e-05
7.92551e-05
7.87944e-05
7.81823e-05
7.73219e-05
7.60793e-05
7.47466e-05
7.33674e-05
1.48354e-05
5.01319e-05
8.49068e-05
0.000106718
0.000120162
0.000126862
0.000129118
0.000128494
0.000126234
0.000123148
0.000120511
0.000117705
0.000114869
0.000112281
0.000109326
0.000106011
0.000103028
0.000100242
6.91129e-05
0.000157929
0.000188973
0.000193306
0.000189594
0.000183337
0.000174776
0.000167849
0.000162277
0.000157274
0.000152435
0.00014753
0.000142907
0.000138285
0.000133641
0.000129033
0.000124853
0.000120536
0.000239589
0.000299399
0.000291374
0.000267518
0.000247601
0.000237387
0.000233361
0.000230824
0.00023014
0.000229896
0.000228702
0.00022709
0.000224594
0.00022125
0.000217221
0.000212612
0.000207429
0.000201014
3.26623e-05
4.4253e-05
4.58121e-05
4.63098e-05
4.64956e-05
4.67048e-05
4.68027e-05
4.73071e-05
4.83263e-05
4.99169e-05
5.17211e-05
5.36192e-05
5.5607e-05
5.75304e-05
5.95519e-05
6.17908e-05
6.42112e-05
6.67781e-05
6.9382e-05
7.21462e-05
7.50681e-05
7.82059e-05
8.13992e-05
8.47465e-05
8.84798e-05
9.24753e-05
9.63237e-05
0.000100574
0.000105522
0.000110746
0.00011611
0.000122603
0.000129738
0.000137226
0.000144961
0.000153064
0.000160895
0.000168341
0.000176214
0.000183661
0.000190451
0.000197252
0.00020336
0.000207127
0.000207879
0.000201519
0.000191068
0.000187199
0.000185964
0.000186283
0.000189671
0.000195307
0.000200234
0.000204879
0.000210549
0.000213821
0.000216209
0.000216841
0.000214299
0.000212232
0.000207221
0.000202976
0.000201408
0.000201314
0.000201758
0.000203512
0.000207376
0.000216074
0.000228239
0.000239827
0.000244848
0.000245557
0.000236974
0.000236143
0.000239621
0.000243854
0.000246684
0.000260391
0.000282645
0.000302637
0.000318209
0.000331459
0.000342765
0.000350113
0.000354049
0.000356053
0.000353374
0.00034801
0.000340774
0.000333222
0.00032451
0.000314078
0.000300744
0.000285698
0.000271137
0.000258377
0.000248088
0.00023765
0.000223275
0.000212761
0.000204563
0.000195141
0.000187363
0.000178716
0.000173711
0.000169379
0.000166528
0.000165226
0.000165446
0.000167703
0.000171598
0.000174959
0.000177155
0.00017831
0.000181178
0.000191123
0.000200351
0.000200917
0.000198693
0.000201149
0.00020533
0.000206602
0.000208452
0.000210494
0.00020893
0.000206487
0.000207523
0.000212158
0.000222016
0.000233614
0.000248805
0.000265527
0.000282785
0.000300173
0.000310209
0.000314535
0.000316078
0.000321378
0.000332846
0.000343853
0.000360711
0.000374727
0.000387678
0.00040372
0.000421561
0.000439885
0.000457697
0.000469374
0.000473118
0.000461475
0.000465485
0.000480994
0.000490822
0.00049406
0.000492108
0.00047546
0.000458156
0.000447827
0.000441428
0.000430979
0.000404442
0.000373719
0.000366549
0.000366568
0.000382446
0.000414226
0.000433461
0.00044688
0.00044726
0.000424745
0.000390124
0.000384383
0.000397046
0.000422536
0.000456056
0.000457325
0.000483782
0.000576235
0.000629231
0.000667291
4.98264e-05
4.32637e-05
4.152e-05
3.93056e-05
3.68317e-05
3.57109e-05
3.45221e-05
3.38901e-05
3.38357e-05
3.3947e-05
3.42563e-05
3.48661e-05
3.5788e-05
3.66497e-05
3.729e-05
3.79644e-05
3.87403e-05
3.95108e-05
4.03101e-05
4.12915e-05
4.23472e-05
4.35692e-05
4.47057e-05
4.59414e-05
4.72186e-05
4.85495e-05
4.94692e-05
5.02398e-05
5.15182e-05
5.27956e-05
5.33971e-05
5.35259e-05
5.41249e-05
5.57221e-05
5.67194e-05
5.84638e-05
6.27156e-05
6.78094e-05
7.35168e-05
8.31042e-05
9.29499e-05
0.000105296
0.000121162
0.000133976
0.000154096
0.000166262
0.000168378
0.000170208
0.000164607
0.000145415
0.000128583
0.000123737
0.000122769
0.000125737
0.000128998
0.000128834
0.000121384
0.000108292
9.94061e-05
9.337e-05
8.67095e-05
8.56554e-05
8.86855e-05
9.42205e-05
9.90087e-05
0.000103755
0.000106814
0.000115891
0.000131321
0.000146979
0.000164854
0.00017689
0.000175812
0.000183407
0.000216065
0.000232391
0.00023494
0.00023658
0.000237794
0.000234489
0.000230766
0.000226571
0.00022127
0.000214594
0.000205522
0.000196436
0.000187448
0.000179587
0.000173208
0.00016749
0.000161184
0.000153387
0.00014539
0.000139096
0.000135792
0.000133706
0.000131802
0.000128056
0.000124063
0.000123809
0.000121838
0.00011926
0.000116802
0.000115952
0.00011732
0.000116583
0.000117784
0.000118114
0.000118888
0.000120196
0.000126184
0.000132358
0.000135712
0.000135589
0.000133963
0.000138651
0.000151704
0.000159325
0.000158473
0.000159538
0.000165609
0.000168643
0.000171944
0.000180195
0.000185959
0.000183544
0.000181426
0.000187226
0.000198945
0.000205403
0.000209539
0.000219089
0.000237642
0.000259425
0.000279036
0.00028638
0.000281205
0.000277078
0.000283648
0.000291567
0.000308278
0.00031594
0.000320776
0.000332369
0.000349512
0.000362607
0.000366823
0.000353163
0.000346429
0.000347938
0.000374879
0.000401516
0.000422113
0.000424962
0.000427472
0.000412403
0.000418514
0.000423529
0.000415793
0.000408987
0.000386995
0.000366849
0.000372127
0.000381583
0.00040428
0.000430046
0.000447703
0.000455509
0.000445851
0.000422598
0.000385223
0.000375514
0.00038424
0.000421541
0.000446243
0.000468152
0.000465151
0.000501791
0.0005118
0.00053204
7.64248e-05
4.56196e-05
3.84298e-05
3.69631e-05
3.59839e-05
3.49046e-05
3.3131e-05
3.17483e-05
3.14036e-05
3.13707e-05
3.1571e-05
3.23877e-05
3.37726e-05
3.49907e-05
3.57163e-05
3.65794e-05
3.76427e-05
3.87386e-05
3.98219e-05
4.09271e-05
4.1921e-05
4.30697e-05
4.43017e-05
4.54526e-05
4.62251e-05
4.68731e-05
4.74881e-05
4.81812e-05
4.85699e-05
4.85997e-05
4.80555e-05
4.79789e-05
4.83928e-05
4.84649e-05
4.81185e-05
4.82108e-05
4.8136e-05
4.73091e-05
4.72887e-05
4.79004e-05
4.92729e-05
5.27093e-05
5.91499e-05
6.68145e-05
7.86094e-05
9.42018e-05
0.000105292
0.000115365
0.000125354
0.000130968
0.00012857
0.000123737
0.000115114
0.000102533
9.38509e-05
8.47349e-05
7.22764e-05
6.49121e-05
6.21523e-05
6.16429e-05
6.2161e-05
6.46074e-05
7.18471e-05
8.07647e-05
8.80261e-05
9.32793e-05
9.64832e-05
0.000100011
0.000109344
0.000126851
0.000152533
0.000178175
0.000188988
0.000194236
0.00019757
0.000191314
0.000178241
0.000170931
0.000160644
0.00015131
0.000143084
0.000135476
0.000127437
0.000119083
0.000110677
0.000104081
9.95216e-05
9.59917e-05
9.38256e-05
9.16056e-05
8.89544e-05
8.55235e-05
8.2941e-05
8.19637e-05
8.181e-05
8.19536e-05
8.1679e-05
8.10128e-05
8.07615e-05
8.23445e-05
8.2564e-05
8.20922e-05
8.12183e-05
8.13815e-05
8.46155e-05
8.54674e-05
8.71664e-05
8.84249e-05
8.91182e-05
8.89966e-05
9.18091e-05
9.66784e-05
0.000102842
0.000104616
9.92304e-05
9.6927e-05
0.000107379
0.000119951
0.000121961
0.000119523
0.000126332
0.000132969
0.000133737
0.00013973
0.000153364
0.000159365
0.000159303
0.000167009
0.000172253
0.000168607
0.000163838
0.000166702
0.000184838
0.000203066
0.0002221
0.000236295
0.000237209
0.000239147
0.000243971
0.000250548
0.000259668
0.000256621
0.000259336
0.000267549
0.000280933
0.000291539
0.000290979
0.000269295
0.000255553
0.000255294
0.000275781
0.000297385
0.000322822
0.000337438
0.000352887
0.000346741
0.00033695
0.000351252
0.000353163
0.000354115
0.00034728
0.000346559
0.000355284
0.000358403
0.000368278
0.000382649
0.000400493
0.000407656
0.000397879
0.000385185
0.000359465
0.00035199
0.000350077
0.000406021
0.000428502
0.000457772
0.000386957
0.000476082
0.000445619
0.000416184
0.000105849
5.79006e-05
3.89598e-05
3.66111e-05
3.73116e-05
3.68228e-05
3.42585e-05
3.18974e-05
3.14902e-05
3.14817e-05
3.20682e-05
3.38161e-05
3.61108e-05
3.78665e-05
3.90744e-05
4.02734e-05
4.1314e-05
4.19233e-05
4.23006e-05
4.27003e-05
4.31968e-05
4.39586e-05
4.4547e-05
4.46307e-05
4.45666e-05
4.45455e-05
4.46208e-05
4.46131e-05
4.42856e-05
4.41628e-05
4.45011e-05
4.5458e-05
4.60258e-05
4.6264e-05
4.66006e-05
4.68503e-05
4.60027e-05
4.48781e-05
4.46957e-05
4.39737e-05
4.32084e-05
4.33798e-05
4.40186e-05
4.55502e-05
4.89512e-05
5.56653e-05
6.3116e-05
7.2066e-05
8.55115e-05
9.30599e-05
0.000108099
0.000116918
0.000116107
0.000111858
9.96077e-05
8.30188e-05
6.75634e-05
6.06298e-05
5.88645e-05
5.88563e-05
6.2419e-05
6.73683e-05
7.7789e-05
9.10122e-05
0.000100237
0.000104862
0.000109891
0.000116371
0.000127741
0.000144701
0.000164268
0.000176915
0.000179833
0.000173261
0.00015155
0.000137837
0.000129014
0.000118341
0.00010927
0.000101953
9.55876e-05
9.05398e-05
8.48953e-05
7.94993e-05
7.50552e-05
7.2581e-05
7.11932e-05
7.02862e-05
6.97135e-05
6.90403e-05
6.79006e-05
6.63361e-05
6.58551e-05
6.59576e-05
6.67435e-05
6.75091e-05
6.76209e-05
6.76565e-05
6.75257e-05
6.89172e-05
6.95057e-05
6.98424e-05
6.90865e-05
6.87082e-05
7.10755e-05
7.3947e-05
7.62206e-05
7.79352e-05
7.91227e-05
8.04638e-05
8.16397e-05
8.18113e-05
8.75072e-05
9.30644e-05
9.18138e-05
8.47788e-05
8.75785e-05
0.000102349
0.000104569
9.94457e-05
0.000104688
0.000115006
0.000116467
0.000117261
0.000129656
0.000142972
0.000149625
0.000158819
0.000161199
0.000157467
0.000151006
0.000149587
0.000158561
0.000177538
0.000191833
0.000206743
0.000214658
0.000217407
0.000226066
0.000228692
0.000228251
0.000228081
0.00023675
0.000243415
0.000252458
0.000257502
0.000256965
0.000238667
0.000223417
0.000216425
0.000230093
0.000246315
0.00026454
0.000289535
0.000311606
0.000318697
0.000298778
0.000308079
0.000316184
0.000317467
0.000320817
0.000330145
0.000330021
0.000321686
0.000309245
0.000319507
0.000353734
0.000376966
0.000376822
0.000373213
0.000351198
0.000345116
0.000345931
0.000403467
0.000415474
0.000418959
0.00036235
0.000403793
0.000422845
0.000378708
0.000128507
7.85013e-05
4.22517e-05
3.70883e-05
3.9429e-05
3.94395e-05
3.49761e-05
3.26824e-05
3.22541e-05
3.26492e-05
3.51223e-05
3.87484e-05
4.23081e-05
4.31333e-05
4.26826e-05
4.22071e-05
4.19766e-05
4.18909e-05
4.18927e-05
4.18233e-05
4.15365e-05
4.09649e-05
4.00071e-05
3.90847e-05
3.8588e-05
3.81959e-05
3.78523e-05
3.78711e-05
3.80396e-05
3.83371e-05
3.90293e-05
3.99114e-05
4.05508e-05
4.14527e-05
4.22918e-05
4.30178e-05
4.41206e-05
4.47034e-05
4.47508e-05
4.43796e-05
4.38148e-05
4.31011e-05
4.25987e-05
4.2661e-05
4.30206e-05
4.40316e-05
4.64303e-05
5.02783e-05
5.73922e-05
6.48956e-05
7.5022e-05
8.83459e-05
0.000104597
0.0001082
0.000105388
9.37156e-05
7.30155e-05
6.33144e-05
6.20832e-05
6.36918e-05
6.90747e-05
7.50611e-05
8.67995e-05
9.93881e-05
0.000105813
0.000111478
0.000118399
0.000126812
0.000136664
0.00014807
0.000155911
0.000157151
0.000140366
0.000124864
0.000111848
0.000100035
9.33972e-05
8.58009e-05
7.97924e-05
7.61768e-05
7.23862e-05
6.99721e-05
6.70406e-05
6.40916e-05
6.18349e-05
6.10065e-05
6.06646e-05
6.05112e-05
6.03836e-05
6.01042e-05
5.91944e-05
5.7903e-05
5.74982e-05
5.77495e-05
5.90497e-05
6.10551e-05
6.14177e-05
6.1401e-05
6.0831e-05
6.1901e-05
6.24727e-05
6.34671e-05
6.30456e-05
6.22249e-05
6.31948e-05
6.50035e-05
6.73383e-05
6.98155e-05
7.19343e-05
7.39215e-05
7.71578e-05
7.75344e-05
7.7545e-05
8.34692e-05
8.80712e-05
8.53033e-05
8.1923e-05
9.30601e-05
9.82058e-05
9.35805e-05
9.3908e-05
0.000102464
0.000106873
0.000107943
0.000116224
0.000129287
0.00013947
0.000146751
0.000149811
0.000156022
0.000160811
0.000160158
0.000155088
0.000162774
0.000178297
0.000193324
0.000201742
0.000200916
0.000210553
0.000210652
0.000217054
0.000217197
0.000224119
0.000229734
0.000239328
0.000243265
0.000242628
0.000225347
0.000212211
0.000204676
0.000212658
0.000224844
0.000236795
0.000260145
0.000285703
0.000304725
0.000284807
0.000293135
0.000305019
0.000295275
0.000304389
0.00032106
0.000295142
0.000289263
0.000271001
0.000271632
0.000299859
0.000341941
0.000361556
0.000369146
0.000351677
0.000343255
0.000357515
0.000395526
0.000397373
0.00040185
0.000381116
0.000324821
0.000430429
0.000398601
0.000146984
9.17043e-05
4.80509e-05
3.82722e-05
4.12721e-05
3.97895e-05
3.51893e-05
3.4077e-05
3.44271e-05
3.76348e-05
4.27439e-05
4.48016e-05
4.44123e-05
4.41644e-05
4.3287e-05
4.19908e-05
4.12426e-05
4.07908e-05
4.01977e-05
3.93868e-05
3.87375e-05
3.80246e-05
3.7327e-05
3.67688e-05
3.6412e-05
3.59343e-05
3.54819e-05
3.54216e-05
3.55257e-05
3.57583e-05
3.60747e-05
3.66196e-05
3.74494e-05
3.86316e-05
3.97384e-05
4.08942e-05
4.20439e-05
4.29136e-05
4.39006e-05
4.47439e-05
4.52083e-05
4.51736e-05
4.49784e-05
4.45938e-05
4.37875e-05
4.37942e-05
4.43098e-05
4.52586e-05
4.72089e-05
5.05146e-05
5.55424e-05
6.34436e-05
7.57617e-05
9.36196e-05
0.000100974
9.86428e-05
8.96654e-05
7.44813e-05
7.11403e-05
7.38106e-05
7.93602e-05
8.49107e-05
9.45031e-05
0.000103161
0.000107251
0.000112789
0.000118142
0.000125602
0.000131938
0.000134513
0.000127031
0.000117363
0.000102305
9.14409e-05
8.44619e-05
7.6754e-05
7.20396e-05
6.80982e-05
6.52904e-05
6.3804e-05
6.23741e-05
6.13603e-05
6.00027e-05
5.84966e-05
5.7073e-05
5.60293e-05
5.51251e-05
5.46826e-05
5.39778e-05
5.28975e-05
5.17809e-05
5.07928e-05
5.03866e-05
5.07306e-05
5.15082e-05
5.39995e-05
5.69036e-05
5.78516e-05
5.71305e-05
5.79028e-05
5.82146e-05
5.9143e-05
5.87695e-05
5.86847e-05
5.94555e-05
6.0832e-05
6.22096e-05
6.29151e-05
6.47601e-05
6.59834e-05
6.93567e-05
7.1574e-05
7.28921e-05
7.39396e-05
7.96873e-05
8.20849e-05
7.95281e-05
8.39016e-05
9.20557e-05
9.32361e-05
9.26841e-05
9.65661e-05
9.9419e-05
0.000101869
0.00011052
0.000119606
0.00012991
0.000136282
0.0001407
0.0001465
0.000157411
0.00016507
0.000160318
0.000154105
0.000171472
0.000188929
0.000193139
0.000193678
0.000197117
0.000200253
0.000211234
0.000214141
0.000221776
0.000222381
0.000230023
0.000235589
0.000237753
0.000221713
0.000207592
0.000199716
0.000210458
0.000215788
0.000229531
0.000240573
0.000264127
0.000299446
0.000274803
0.000287809
0.000297746
0.000287686
0.000296835
0.000314542
0.000273431
0.000252908
0.000242651
0.000245791
0.000263187
0.00030384
0.000342273
0.000361437
0.000352723
0.000344313
0.000366246
0.000389174
0.000359695
0.000374153
0.000318953
0.000314861
0.000412597
0.000408254
0.000162104
9.91187e-05
5.05463e-05
3.99419e-05
4.16321e-05
3.79311e-05
3.58264e-05
3.59784e-05
3.9203e-05
4.62635e-05
4.7661e-05
4.62143e-05
4.4569e-05
4.34488e-05
4.23962e-05
4.14379e-05
4.08203e-05
4.0392e-05
3.98269e-05
3.91544e-05
3.85957e-05
3.80063e-05
3.7501e-05
3.69715e-05
3.65069e-05
3.59374e-05
3.52703e-05
3.49779e-05
3.50035e-05
3.51891e-05
3.54293e-05
3.5929e-05
3.67178e-05
3.77529e-05
3.89347e-05
4.03127e-05
4.16281e-05
4.26166e-05
4.38556e-05
4.52101e-05
4.62513e-05
4.71522e-05
4.76425e-05
4.76597e-05
4.73338e-05
4.63774e-05
4.58132e-05
4.59687e-05
4.66962e-05
4.73678e-05
4.87483e-05
5.17313e-05
5.77594e-05
6.85808e-05
8.36523e-05
9.30375e-05
9.10379e-05
8.56054e-05
8.35948e-05
8.42514e-05
8.72793e-05
9.086e-05
9.79017e-05
0.000103972
0.000106561
0.000111193
0.000114219
0.000115466
0.00011326
0.000107352
9.76059e-05
8.87978e-05
7.92778e-05
7.2334e-05
6.85658e-05
6.48003e-05
6.19338e-05
6.01394e-05
5.86069e-05
5.7837e-05
5.70812e-05
5.64906e-05
5.55986e-05
5.45805e-05
5.32944e-05
5.21681e-05
5.10631e-05
5.00609e-05
4.90425e-05
4.81712e-05
4.70876e-05
4.6831e-05
4.64738e-05
4.66693e-05
4.69429e-05
4.76504e-05
4.89908e-05
5.13544e-05
5.31968e-05
5.52004e-05
5.55652e-05
5.62058e-05
5.61427e-05
5.61627e-05
5.71052e-05
5.83714e-05
5.95737e-05
6.01777e-05
5.96652e-05
5.98386e-05
6.35127e-05
6.4977e-05
6.71826e-05
6.89546e-05
7.08113e-05
7.42291e-05
7.45605e-05
7.53807e-05
8.25214e-05
8.70278e-05
8.99832e-05
9.22714e-05
9.24259e-05
9.4943e-05
0.000104725
0.000111181
0.000120702
0.000130769
0.000142302
0.000145622
0.000148438
0.000159378
0.00016004
0.000145657
0.000158829
0.00018095
0.000190344
0.000193395
0.000190293
0.000203322
0.000216687
0.000221069
0.000226237
0.000219588
0.000221538
0.000226171
0.000230159
0.000220082
0.000206375
0.000195045
0.000213548
0.000211858
0.000224346
0.000228942
0.000252143
0.000297605
0.00026804
0.000276161
0.000258556
0.000285268
0.000298001
0.000300119
0.000277819
0.000258189
0.000243848
0.000241802
0.00024326
0.000269152
0.00031746
0.000349503
0.000347624
0.000345774
0.000368785
0.000381079
0.000339634
0.000345075
0.000272165
0.00028981
0.000364101
0.000395756
0.000174683
0.000104121
5.16878e-05
4.10955e-05
3.99414e-05
3.76011e-05
3.8299e-05
4.11429e-05
4.60513e-05
4.76727e-05
4.72804e-05
4.74189e-05
4.53197e-05
4.41853e-05
4.40861e-05
4.35856e-05
4.28215e-05
4.2055e-05
4.13387e-05
4.08037e-05
4.07033e-05
4.07149e-05
4.05774e-05
4.00069e-05
3.926e-05
3.8303e-05
3.69087e-05
3.57893e-05
3.51743e-05
3.50708e-05
3.52112e-05
3.55532e-05
3.62322e-05
3.71594e-05
3.83935e-05
3.98888e-05
4.16342e-05
4.32776e-05
4.48273e-05
4.62194e-05
4.73256e-05
4.82679e-05
4.95433e-05
5.06365e-05
5.08715e-05
5.06688e-05
5.02375e-05
4.93858e-05
4.90485e-05
4.89442e-05
4.90996e-05
4.99959e-05
5.20956e-05
5.6369e-05
6.37702e-05
7.52049e-05
8.58898e-05
8.58225e-05
8.52284e-05
8.71422e-05
8.98606e-05
9.28619e-05
9.99431e-05
0.000104467
0.000104813
0.000104396
0.000103739
0.000100401
9.35498e-05
8.65465e-05
7.82319e-05
7.12495e-05
6.64615e-05
6.26232e-05
6.01179e-05
5.72432e-05
5.52047e-05
5.36673e-05
5.27814e-05
5.21457e-05
5.15996e-05
5.10503e-05
5.04899e-05
4.99052e-05
4.93322e-05
4.87406e-05
4.80989e-05
4.72043e-05
4.62111e-05
4.57305e-05
4.51288e-05
4.53529e-05
4.52403e-05
4.54944e-05
4.55309e-05
4.52462e-05
4.53651e-05
4.64975e-05
4.82519e-05
5.11192e-05
5.24289e-05
5.3856e-05
5.4383e-05
5.45573e-05
5.58147e-05
5.7101e-05
5.74676e-05
5.74567e-05
5.77014e-05
5.61891e-05
5.77031e-05
5.93342e-05
6.1317e-05
6.38196e-05
6.42216e-05
6.80253e-05
7.01997e-05
7.09183e-05
7.48847e-05
7.89882e-05
8.26909e-05
8.42338e-05
8.71408e-05
9.04412e-05
9.7644e-05
0.000106385
0.000113233
0.000122201
0.000134202
0.000135181
0.000139535
0.000152932
0.000158568
0.000143213
0.000138846
0.000165082
0.000186177
0.000189076
0.00018473
0.000191444
0.000196786
0.000203016
0.000216574
0.000217303
0.000210847
0.000209007
0.000211596
0.000212022
0.000206211
0.000193529
0.00020963
0.000211518
0.000218871
0.000226723
0.000249313
0.000291333
0.000265574
0.000280475
0.00022603
0.000284524
0.000316568
0.000305193
0.000286231
0.000280194
0.00025943
0.000255503
0.00024742
0.000248708
0.000292878
0.00033384
0.000336375
0.000342304
0.000372064
0.000360119
0.000331072
0.000337303
0.000284539
0.000273795
0.000317029
0.000365944
0.000186159
0.00011383
5.57834e-05
4.21881e-05
4.05092e-05
4.11252e-05
4.20218e-05
4.80205e-05
4.93e-05
4.80051e-05
4.80518e-05
4.83983e-05
4.87268e-05
4.76263e-05
4.64676e-05
4.61644e-05
4.57378e-05
4.46542e-05
4.41844e-05
4.43165e-05
4.49984e-05
4.60305e-05
4.65443e-05
4.67489e-05
4.62999e-05
4.54204e-05
4.32943e-05
4.0707e-05
3.79057e-05
3.62402e-05
3.57454e-05
3.57396e-05
3.59156e-05
3.65857e-05
3.75136e-05
3.88831e-05
4.06858e-05
4.27611e-05
4.459e-05
4.6447e-05
4.81206e-05
4.9212e-05
4.98599e-05
5.06283e-05
5.14984e-05
5.2493e-05
5.30648e-05
5.31028e-05
5.32252e-05
5.3077e-05
5.22378e-05
5.22366e-05
5.30995e-05
5.46946e-05
5.69228e-05
6.06294e-05
6.89612e-05
7.92249e-05
8.29286e-05
8.61434e-05
9.0412e-05
9.51056e-05
0.000100121
0.000103185
0.000102176
9.91263e-05
9.48714e-05
8.91316e-05
7.89924e-05
7.27535e-05
6.61893e-05
6.16592e-05
5.906e-05
5.61442e-05
5.29981e-05
5.13878e-05
5.02385e-05
4.95824e-05
4.92748e-05
4.90519e-05
4.87688e-05
4.84953e-05
4.80904e-05
4.7533e-05
4.70039e-05
4.60049e-05
4.44059e-05
4.37812e-05
4.36572e-05
4.39755e-05
4.41454e-05
4.45908e-05
4.48315e-05
4.53847e-05
4.53103e-05
4.50224e-05
4.43583e-05
4.45267e-05
4.5504e-05
4.62933e-05
4.76798e-05
5.15957e-05
5.35813e-05
5.41162e-05
5.47709e-05
5.56189e-05
5.67468e-05
5.62641e-05
5.4744e-05
5.42671e-05
5.47857e-05
5.44881e-05
5.65903e-05
5.97986e-05
5.89227e-05
6.18653e-05
6.51947e-05
6.57899e-05
6.84382e-05
7.40011e-05
7.53123e-05
7.72557e-05
8.72269e-05
8.67496e-05
8.66258e-05
9.71613e-05
0.000106094
0.000115523
0.000120629
0.000113523
0.000122145
0.000138646
0.000149872
0.000136333
0.000123883
0.000147253
0.000178152
0.000179987
0.000181848
0.000189435
0.000187802
0.000183544
0.0001918
0.00019434
0.000188872
0.000187299
0.000198823
0.000207942
0.000200713
0.000188268
0.000201769
0.000211288
0.000213752
0.000226577
0.00025302
0.000285544
0.000253432
0.000285613
0.00024403
0.000284036
0.000320054
0.000311668
0.000280147
0.000272974
0.000241689
0.000250163
0.000252018
0.000238474
0.000272768
0.000316423
0.000325278
0.000334111
0.000373056
0.000340814
0.000320277
0.000321897
0.000303175
0.000278565
0.000286023
0.000348536
0.000194482
0.000115802
5.57996e-05
4.04199e-05
3.98566e-05
4.26929e-05
4.5475e-05
4.99708e-05
5.03026e-05
4.94122e-05
4.91289e-05
4.92043e-05
4.92095e-05
4.81081e-05
4.73569e-05
4.7199e-05
4.71477e-05
4.71294e-05
4.712e-05
4.72849e-05
4.80491e-05
4.92028e-05
5.10862e-05
5.25782e-05
5.33609e-05
5.37177e-05
5.31973e-05
5.1008e-05
4.64888e-05
4.11225e-05
3.79741e-05
3.67339e-05
3.65038e-05
3.66563e-05
3.71749e-05
3.79071e-05
3.88546e-05
4.03177e-05
4.23896e-05
4.47467e-05
4.73384e-05
4.90062e-05
4.96515e-05
5.02267e-05
5.12344e-05
5.27227e-05
5.37545e-05
5.51414e-05
5.63534e-05
5.66768e-05
5.56001e-05
5.56646e-05
5.6014e-05
5.58403e-05
5.703e-05
5.75941e-05
5.94624e-05
6.49137e-05
7.4213e-05
8.30474e-05
8.93366e-05
9.49446e-05
9.93912e-05
0.000102708
0.000101512
9.63942e-05
8.79445e-05
7.96825e-05
6.92587e-05
6.38045e-05
5.89364e-05
5.57325e-05
5.34181e-05
4.99077e-05
4.83127e-05
4.77635e-05
4.76843e-05
4.78204e-05
4.81478e-05
4.80017e-05
4.77888e-05
4.76873e-05
4.72412e-05
4.62187e-05
4.43487e-05
4.2069e-05
4.11927e-05
4.1064e-05
4.07833e-05
4.16766e-05
4.28506e-05
4.37582e-05
4.44691e-05
4.54113e-05
4.55454e-05
4.5224e-05
4.39668e-05
4.3914e-05
4.434e-05
4.43671e-05
4.42972e-05
4.7419e-05
5.07188e-05
5.13535e-05
5.19272e-05
5.24345e-05
5.25801e-05
5.31271e-05
5.18643e-05
5.08407e-05
5.25769e-05
5.15928e-05
5.31319e-05
5.59319e-05
5.54138e-05
5.78189e-05
6.01212e-05
6.02204e-05
6.45861e-05
7.11564e-05
6.90152e-05
7.09207e-05
8.51454e-05
8.23322e-05
7.77151e-05
8.63745e-05
0.000103146
0.000114719
0.000107766
0.000103867
0.000114587
0.000130007
0.000141391
0.000129461
0.000118835
0.00014043
0.000170335
0.000169518
0.000175924
0.000197076
0.000196693
0.000179514
0.000173624
0.00017396
0.000174459
0.000175615
0.000184021
0.000190172
0.000188971
0.000186116
0.000199526
0.000210281
0.000210482
0.000226213
0.00025679
0.000278148
0.000238315
0.000264662
0.000228308
0.000267568
0.000294481
0.000297077
0.000266412
0.000258226
0.00021611
0.00022682
0.000246697
0.000228466
0.000257704
0.000298547
0.000317436
0.000324973
0.000363743
0.000335211
0.000309134
0.000298724
0.000305599
0.000270547
0.000261209
0.00033196
0.000203023
0.000121572
5.67972e-05
4.11418e-05
4.02113e-05
4.29318e-05
4.85388e-05
5.04074e-05
5.05292e-05
5.11691e-05
4.95794e-05
4.83913e-05
4.81168e-05
4.74724e-05
4.74096e-05
4.77781e-05
4.81221e-05
4.84013e-05
4.79333e-05
4.82728e-05
4.84326e-05
4.95421e-05
5.15056e-05
5.35668e-05
5.45943e-05
5.5202e-05
5.59525e-05
5.67833e-05
5.60053e-05
5.16132e-05
4.36741e-05
3.89542e-05
3.71441e-05
3.67058e-05
3.6782e-05
3.72107e-05
3.80076e-05
3.87522e-05
3.96618e-05
4.08502e-05
4.24436e-05
4.47788e-05
4.727e-05
4.86277e-05
5.00018e-05
5.21768e-05
5.37757e-05
5.56012e-05
5.87953e-05
6.0863e-05
6.09753e-05
6.10044e-05
6.1089e-05
5.89423e-05
5.9251e-05
5.89586e-05
5.78517e-05
5.83419e-05
6.20966e-05
7.22924e-05
8.53481e-05
9.33337e-05
9.67082e-05
0.000100878
0.000101019
9.65772e-05
8.58052e-05
7.48131e-05
6.38435e-05
5.82397e-05
5.44842e-05
5.18977e-05
4.91545e-05
4.66348e-05
4.61853e-05
4.62476e-05
4.64835e-05
4.67622e-05
4.67086e-05
4.65907e-05
4.62981e-05
4.57469e-05
4.46727e-05
4.24586e-05
3.99124e-05
3.8544e-05
3.81816e-05
3.83245e-05
3.84535e-05
3.93478e-05
4.07595e-05
4.24825e-05
4.48899e-05
4.60475e-05
4.67551e-05
4.6613e-05
4.5555e-05
4.46183e-05
4.46236e-05
4.38205e-05
4.32127e-05
4.4086e-05
4.60166e-05
4.63279e-05
4.61361e-05
4.70548e-05
4.85551e-05
4.90424e-05
4.93177e-05