/*--------------------------------*- C++ -*----------------------------------*\
| =========                 |                                                 |
| \\      /  F ield         | OpenFOAM: The Open Source CFD Toolbox           |
|  \\    /   O peration     | Version:  dev                                   |
|   \\  /    A nd           | Web:      http://www.openfoam.org               |
|    \\/     M anipulation  |                                                 |
\*---------------------------------------------------------------------------*/
FoamFile
{
    version     2.0;
    format      ascii;
    class       volScalarField;
    object      p;
    location    "9.149";
}
// * * * * * * * * * * * * * * * * * * * * * * * * * * * * * * * * * * * * * //

dimensions      [1 -1 -2 0 0 0 0];

internalField   nonuniform List<scalar> 
12225
(
88101.7
88184.1
88369.1
88638.6
88972.2
89360.2
89787.7
90249.8
90731.3
91233.5
91739.8
92265.4
92775.5
93333.6
93856.2
94440.7
95092.2
95554.6
88105.8
88191.6
88376.9
88646.2
88979.6
89367.3
89794.7
90256.4
90737.6
91239.4
91745
92270
92780.7
93333
93856.8
94434.4
95032.3
95580.7
88119.4
88209.8
88395.2
88664
88996.6
89383.9
89810.5
90271.6
90751.7
91252.9
91757.4
92279.7
92791.7
93334.1
93858.7
94420.6
94982.8
95520.6
88147.4
88241.2
88426.7
88694.7
89026.2
89412.7
89838
90297.9
90776.6
91276
91779.2
92299.7
92808.6
93340.2
93857.9
94398.8
94937.2
95411.7
88195.3
88289.8
88474.9
88741.8
89071.9
89457
89880.6
90338.4
90815.1
91311.3
91812.8
92325
92834.8
93351.5
93864.2
94381
94896.7
95446.9
88266.1
88360.2
88544.3
88809.7
89138.1
89521
89942.3
90397
90870.7
91362.6
91860.8
92365.3
92872.4
93376.3
93884.4
94377.9
94880.2
95351.2
88360.6
88457.4
88640.5
88903.9
89230.1
89609.8
90028
90478.3
90948.3
91434
91928.1
92424.6
92924.9
93417.9
93915.9
94397.3
94873.4
95314.8
88474.2
88568.5
88750.5
89011.5
89335.5
89711.5
90126.4
90572
91038
91517.5
92005.8
92494.8
92986.4
93469.1
93953.7
94418.4
94870.7
95293
88596.1
88688.8
88869.8
89128.4
89449.9
89822.1
90233.4
90674.1
91135.6
91609
92090.5
92572.1
93054.3
93527.1
93996.9
94446.6
94879.3
95286.3
88759.9
88849.4
89028.8
89284.4
89602.3
89969.7
90376.3
90810.7
91265.8
91731.5
92204.3
92676.4
93146.8
93607.4
94059.9
94494.1
94908.1
95297.9
88975.7
89063.2
89240.7
89492.4
89805.4
90166.6
90566.6
90993.2
91439.5
91895.6
92357.4
92817.6
93273.5
93719.6
94154.2
94570.8
94965.6
95337.8
89264
89348.1
89522.7
89769.1
90075.7
90428.9
90820
91236.5
91671.6
92115.3
92563.4
93008.8
93448.3
93877.3
94292.2
94689.6
95065.7
95419.7
89638.6
89725.6
89896.3
90136.2
90434.2
90777.4
91156.7
91560.2
91980.6
92409.1
92840.3
93268.1
93688.5
94097.3
94491.2
94867.9
95224.4
95559.5
90135.4
90224
90389.5
90621.1
90908
91238.3
91602.2
91989.2
92391.5
92800.9
93211.6
93618.2
94016.2
94402.2
94773.2
95127.2
95462.2
95777.2
90790.2
90878.6
91036.3
91256.6
91529.1
91842.7
92187.5
92553.8
92933.6
93319.4
93705.4
94086.6
94458.9
94819
95164.5
95493.5
95804.6
96097.2
91654.4
91728.6
91874.2
92079.7
92334.1
92626.6
92947.8
93288.5
93640.9
93998.1
94354.7
94705.9
95048.3
95378.9
95695.3
95996.4
96281
96548.6
92728.7
92803.1
92938.3
93126.5
93358.7
93625.5
93917.8
94227.3
94546.7
94869.9
95191.6
95507.9
95815.6
96112.1
96395.7
96665
96919.2
97158.1
93972.5
94038.8
94159
94327.2
94534.7
94772.9
95033.5
95308.8
95592.3
95878.5
96162.8
96441.7
96712.5
96972.9
97221.7
97457.6
97679.7
97888.1
95170
95225.4
95331.4
95480.8
95665.3
95876.8
96107.6
96351.2
96601.6
96853.8
97103.7
97348.6
97585.9
97813.6
98030.5
98235.8
98428.7
98608.8
96200.6
96247.8
96341.1
96474.2
96639.1
96828
97034
97250.8
97473.4
97697.1
97918.5
98135
98344.4
98544.8
98735.2
98914.7
99082.8
99239.1
97050.5
97093.8
97178.2
97298.3
97447.1
97617.6
97803.3
97998.5
98198.4
98399
98597.3
98790.9
98977.5
99155.7
99324.4
99482.9
99630.6
99767.2
97736.9
97774.3
97851.3
97961
98097
98252.7
98422.2
98600.2
98782
98964.3
99144.4
99319.7
99488.3
99648.7
99800.3
99942.1
100074
100195
98268.6
98305
98376.6
98478.2
98604.2
98748.6
98905.6
99070.2
99238.2
99406.5
99572.4
99733.6
99888.2
100035
100173
100302
100421
100530
98673.2
98709
98775.9
98871
98989.4
99125.1
99272.6
99427.1
99584.6
99742.3
99897.5
100048
100192
100329
100457
100576
100685
100785
98976.6
99008.2
99070.4
99160.2
99272.8
99402.2
99542.7
99689.8
99839.8
99989.6
100137
100280
100416
100545
100665
100777
100880
100973
99201.8
99222.3
99279.7
99365.6
99474.1
99599
99734.6
99876.5
100021
100165
100307
100444
100575
100699
100814
100921
101018
101107
99354
99368.4
99421.7
99504.7
99610.4
99732.2
99864.6
100003
100144
100285
100423
100556
100683
100803
100915
101018
101112
101198
99451.2
99461.5
99511.8
99593
99696.8
99816.7
99947.1
100083
100222
100360
100496
100627
100752
100870
100979
101080
101172
101255
99504.5
99513
99561.4
99641.3
99744.9
99864.2
99993.6
100129
100266
100403
100537
100667
100791
100907
101015
101115
101206
101288
99528.2
99535.4
99582.8
99662.2
99765.4
99884.3
100013
100148
100285
100421
100555
100684
100807
100923
101031
101130
101220
101301
107590
107582
107565
107539
107505
107463
107413
107355
107288
107213
107129
107035
106933
106823
106704
106576
106440
106295
106141
105978
105807
105627
105439
105242
105038
104825
104604
104375
104139
103894
103642
103383
103116
102844
102564
102279
101988
101693
101393
101088
100779
100467
100150
99829.3
99504.3
99174.9
98839.9
98504.5
98166.2
97826.5
97486.3
97142.6
96797.6
96452.6
96107.3
95760.9
95412.5
95062.8
94713
94363.9
94016.3
93668.7
93321.4
92974.7
92628.5
92283.8
91941.5
91604.4
91272.1
90947
90627.1
90310.5
89999.9
89695.6
89392.2
89103
88822.1
88551.2
88288.8
88035.1
87792.1
87561.5
87344.8
87143.2
86957.8
86789.5
86639.4
86508
86395.9
86303.6
86231.6
86179.9
86148.3
86136.3
86143.7
86170
86214.5
86276.8
86354.9
86447.1
86552.8
86669.5
86795.9
86929.8
87068.7
87211.6
87355.6
87499.5
87641.1
87779.5
87912.7
88040.5
88162.2
88279.1
88393.8
88503.7
88609.3
88713.8
88820
88929.1
89041.6
89158.5
89279.8
89403.3
89527.1
89648.8
89763.6
89865.1
89946.8
90002.7
90028.8
90021.8
89978
89890.4
89750.6
89556.5
89310.4
89018.9
88682.3
88309.8
87901.1
87466.8
87008.3
86534.4
86050.6
85559.3
85065.5
84573.9
84092.5
83621.4
83147.6
82680.7
82215.9
81757.3
81301.3
80848.9
80431.8
80060
79746.4
79476.5
79263.4
79101.9
78993.3
78913.6
78854
78797.8
78721.9
78633.6
78525.7
78384.3
78205.7
77992.8
77772.3
77566.2
77424.8
77407.6
77363.2
77511.7
77793.6
78220.5
107516
107508
107491
107466
107432
107391
107342
107285
107219
107145
107061
106969
106869
106761
106644
106517
106383
106239
106087
105926
105757
105580
105394
105200
104998
104788
104570
104344
104110
103869
103619
103363
103099
102829
102553
102270
101983
101690
101392
101091
100785
100475
100161
99841.6
99518.2
99190.8
98860.7
98530.8
98200.1
97866
97525.2
97182.3
96839.3
96496
96152.5
95808.3
95462.2
95114.7
94767.1
94420.7
94074.6
93728.5
93383.2
93038.8
92694.3
92350.8
92014.5
91672.9
91340
91018.9
90701.4
90386.5
90077.2
89778.3
89487.7
89191.1
88903.7
88628.5
88364.4
88110.4
87867.6
87637.1
87420.5
87218.7
87033.3
86865.1
86714.9
86583.2
86470.6
86377.7
86304.9
86252.1
86219.5
86206.5
86212.9
86238.4
86281.7
86342.5
86419.8
86510.9
86615.7
86731.3
86856.5
86989.6
87127.9
87269.9
87413.1
87556.2
87697.4
87835
87967.5
88095.2
88216.6
88331.6
88447.2
88556.7
88661.7
88764.5
88870.3
88978.8
89089.6
89205.4
89325.3
89446.4
89568.3
89688.6
89801.7
89901.3
89980.5
90033.7
90057.6
90049
90004
89917
89778.6
89583.8
89335
89042
88705.9
88334.4
87926.6
87492.6
87033.8
86562.1
86079.3
85588.8
85093.9
84602.2
84120.9
83654.2
83176
82707.2
82241.8
81783.4
81328.2
80871.9
80455
80082.6
79770.8
79503
79292.8
79133.8
79027.8
78952.5
78897.2
78846.5
78771.2
78683.9
78580
78441.2
78263.2
78049.9
77825.9
77616.3
77479.6
77460.4
77430.4
77573.6
77846.6
78274
107369
107362
107346
107322
107289
107249
107202
107147
107082
107010
106929
106840
106743
106638
106523
106400
106268
106128
105979
105822
105657
105484
105303
105115
104918
104714
104501
104281
104053
103817
103574
103323
103066
102801
102530
102254
101971
101684
101393
101096
100797
100493
100184
99871.4
99554.3
99232.9
98909.1
98582.3
98254.1
97924.1
97593.9
97263.4
96923.5
96583.9
96243.7
95902.7
95560.7
95217.7
94874.7
94532.6
94189.9
93847.5
93505.9
93163.2
92819.2
92475.5
92134.3
91800.6
91476.1
91158.9
90846.9
90538.7
90232.9
89931.2
89635.7
89344.2
89059.3
88783.4
88518
88263.6
88020.6
87790
87573.2
87371.5
87185.8
87017
86866.1
86733.5
86619.7
86525.2
86450.4
86395.5
86361
86346.3
86350.5
86373.6
86414.6
86473.1
86548.5
86637.5
86739.9
86853.2
86976.7
87108.5
87245.3
87385.6
87527.4
87669.2
87808.9
87945.7
88077.3
88204.3
88325.1
88434.9
88553.5
88661.4
88765.3
88866.2
88971.2
89078.9
89187
89300.2
89418.2
89536
89652.8
89768.3
89877.4
89973.5
90048.4
90095.9
90114.2
90102.7
90057.3
89970.6
89833.1
89638.4
89385.2
89088.5
88754.9
88384.5
87974.7
87544.5
87090.2
86619.6
86138
85647.2
85150.9
84659
84175.4
83703.6
83232
82761.2
82294.2
81835.7
81377.2
80920.2
80501.5
80132.2
79822.9
79555.3
79349.5
79195.6
79097.5
79031.6
78983.4
78939.1
78871.6
78789
78688.8
78550.9
78372
78160.6
77934.9
77724.8
77612.9
77559.2
77573.2
77709.5
77959
78388.8
107152
107146
107132
107109
107078
107039
106994
106941
106880
106811
106734
106649
106555
106453
106342
106223
106096
105960
105818
105668
105510
105342
105170
104989
104801
104605
104401
104189
103969
103742
103507
103265
103016
102760
102498
102229
101955
101676
101394
101106
100815
100520
100221
99918.1
99610.5
99298.7
98982.9
98662.8
98340.8
98016.9
97692.4
97368
97042.4
96713.4
96377.1
96042.5
95708.2
95371.8
95034
94695.3
94360.8
94025.1
93689.7
93353
93015
92674.8
92339.5
92010.1
91688
91373.4
91064
90758.3
90455.6
90155.9
89860.1
89569.7
89286.6
89011.9
88746.9
88492.6
88249.7
88019.1
87802
87599.9
87413.7
87244
87091.9
86957.6
86841.6
86744.8
86667.2
86609
86570.9
86553
86554.3
86573.9
86611
86665.4
86737.5
86823.4
86923
87033.3
87153.2
87282.5
87418
87556.3
87696.2
87835.7
87973.2
88108.2
88239.1
88365.4
88489.1
88591.2
88704.6
88813.2
88917.1
89017.3
89120.4
89225.9
89332.2
89441.8
89555.9
89669.7
89781.5
89889.8
89990.9
90079.7
90147.3
90186.4
90197.1
90180.7
90134.2
90050.9
89916.3
89720.4
89462.1
89159.9
88827.6
88459.4
88048
87625.7
87177
86709
86229.9
85738.3
85240.1
84745.7
84260.6
83798.6
83321.6
82845.1
82374.3
81913.7
81451.4
80996.3
80578.4
80213.8
79906.9
79638.6
79439.6
79295.6
79213.3
79160.6
79129.9
79093.1
79034.4
78953.5
78855.4
78719.2
78540
78328.9
78105.4
77915
77799.5
77720.8
77768.2
77912.1
78141.1
78575.7
106869
106863
106850
106829
106800
106764
106722
106672
106615
106551
106478
106395
106306
106208
106104
105992
105872
105745
105610
105468
105319
105162
104998
104827
104648
104462
104269
104067
103859
103642
103419
103189
102951
102706
102455
102198
101936
101668
101396
101119
100839
100556
100269
99977.9
99682.3
99382.6
99078.4
98769.7
98457.6
98142.7
97825.7
97507.4
97190.8
96874.8
96553.6
96228.5
95902.4
95576.1
95248.5
94922.6
94593.8
94264.7
93935.8
93607.2
93281.6
92954.6
92623.6
92297.3
91977.1
91663.4
91354.9
91050.1
90748.6
90450.9
90157.4
89869
89587.6
89314.6
89050.7
88797.2
88554.9
88324.6
88107.5
87904.8
87717.6
87546.3
87392.1
87255.6
87136.7
87036.2
86954.9
86892.7
86850.4
86828
86824.5
86839.3
86872.1
86921.9
86988.8
87070.8
87165.8
87272.9
87388.9
87514
87646.5
87781.5
87919.2
88056.5
88191.9
88324.5
88452.4
88574.8
88696.3
88804.7
88910.5
89014.2
89117.3
89218.4
89317.8
89418.7
89522.3
89629.1
89737.6
89845.7
89952
90051.8
90140.7
90218.4
90277.3
90307.6
90308.3
90283.4
90234.6
90153.7
90024.4
89829.3
89566.7
89258.1
88923.2
88556
88150.3
87732.2
87292.8
86832.5
86358.6
85867.1
85366.8
84864.5
84374.1
83900.7
83433.7
82955
82480.7
82016.8
81550.1
81094.8
80680.2
80322.9
80017.4
79753.2
79563.8
79432.4
79363.8
79321.6
79300.1
79281.7
79242.1
79172.4
79077
78943.4
78764.9
78555.8
78333.5
78174.9
78046.8
77943.4
78016.6
78178.8
78414.6
78849.4
106524
106518
106507
106487
106461
106429
106391
106346
106293
106232
106163
106086
106003
105913
105816
105712
105601
105483
105358
105227
105088
104942
104789
104629
104461
104287
104106
103918
103722
103520
103310
103094
102870
102640
102404
102161
101914
101661
101402
101139
100872
100603
100329
100051
99768.6
99482.6
99192.6
98898.4
98599.7
98297.5
97992.2
97684
97375.8
97069.6
96763.3
96453.3
96140.8
95827.9
95511.9
95194.5
94877.6
94560.2
94242.4
93926.6
93608.2
93288.8
92968.1
92649.2
92333.6
92022.1
91714.8
91411.4
91111.6
90816.1
90525.4
90240.3
89961.6
89690.8
89428.6
89176.3
88934.6
88704.5
88487.1
88283.4
88094.3
87920.8
87763.4
87623.5
87500.9
87395.9
87310.2
87243.1
87195.7
87168
87158.9
87168.7
87196.5
87241.1
87302.6
87379.4
87469.8
87572.4
87684.2
87804.7
87932.8
88065.2
88199
88333.1
88465.2
88595.3
88721.6
88838.1
88954.7
89066.1
89171
89270.2
89368.7
89469
89565
89659.3
89758
89860.8
89963.1
90064.4
90163.1
90254.8
90332.9
90396.5
90442.7
90464.6
90459.1
90424.2
90364
90283.5
90159
89965.7
89700.3
89385.1
89042.4
88678.2
88279.4
87865.1
87434.2
86983
86520.2
86031.9
85534.2
85020.5
84521.8
84037.5
83572.9
83091
82610.7
82145.1
81675.5
81221.2
80811.9
80459.6
80163.5
79899.8
79725.6
79603.5
79546
79512.4
79501.1
79493.9
79484.3
79434.4
79347
79219.8
79044.5
78838.9
78623.2
78496.3
78351.2
78242.9
78336.8
78490.1
78804.2
79204.8
106123
106119
106108
106090
106068
106040
106007
105966
105917
105860
105796
105728
105653
105571
105484
105390
105289
105182
105068
104947
104819
104685
104545
104398
104244
104083
103916
103743
103562
103375
103182
102981
102775
102562
102343
102117
101887
101650
101409
101164
100913
100659
100400
100137
99870.2
99599.4
99324.9
99046.4
98763.5
98476.7
98186.6
97893
97597.2
97301.1
97007.2
96713.5
96417
96119
95818.6
95514.4
95210.7
94907.1
94602.2
94295.9
93988.9
93679.4
93368
93056.9
92747.6
92440.9
92137.4
91837.5
91541.5
91249.8
90962.9
90681.5
90406.2
90137.8
89877.6
89626.5
89385.5
89155.3
88937.2
88731.9
88540.3
88363.7
88202.2
88058
87931.3
87821.7
87731.3
87659.1
87605.8
87572.5
87557.4
87560.4
87582.5
87621.7
87676.7
87748.1
87832.6
87930.5
88037.5
88154
88277.5
88405.7
88536
88666
88794.2
88920.4
89045.4
89154.1
89268.9
89376.7
89481.4
89577.7
89671
89766.9
89859.9
89949.4
90041.7
90137.1
90231
90325
90416.4
90497.7
90565.5
90618.3
90650.9
90663.3
90651.4
90608.9
90535.6
90442.2
90319
90131.1
89863.9
89542.1
89194
88832.6
88441.5
88030.4
87601.9
87157.3
86707.7
86228.8
85740.7
85217.8
84710.9
84224.2
83744.4
83255.6
82770.6
82299.7
81826.4
81375.4
80964.9
80623
80352.4
80077.5
79916.6
79812.8
79745.9
79718.1
79714.6
79727.7
79752
79733.2
79658.2
79544.6
79377.4
79179
78976.3
78870.8
78711.5
78618
78728.2
78914.8
79268.2
79644.2
105674
105671
105661
105646
105629
105606
105576
105539
105495
105444
105389
105329
105263
105191
105113
105028
104938
104841
104739
104631
104516
104396
104269
104136
103998
103853
103702
103544
103381
103211
103035
102853
102665
102470
102270
102064
101853
101636
101414
101188
100956
100720
100480
100236
99986.8
99733.5
99475.8
99214.4
98948.7
98678.4
98404.9
98128.3
97848.9
97567.3
97285.9
97006.5
96727
96445.9
96163.5
95876.4
95587.2
95297.1
95005.2
94711.1
94415.9
94118
93817.1
93515.1
93213.7
92914.1
92617
92323.1
92032.8
91746.7
91464.7
91187
90914.7
90648.6
90390.1
90140
89899.5
89669.1
89450
89243.1
89049
88869.6
88704.8
88556.4
88426.1
88312.7
88217.8
88140.7
88081.4
88041.6
88020.4
88015.9
88030.3
88063
88111.6
88176.4
88255
88347.2
88449.2
88561
88680.7
88805.8
88931.9
89057.5
89179.4
89302.2
89419.5
89529.4
89639.5
89741.5
89841.7
89935.1
90024
90113.8
90201.2
90285.1
90372.2
90458.6
90540.9
90626.2
90710.7
90779.4
90834.2
90878.6
90902.3
90905.7
90882.7
90828.7
90744.9
90631.9
90503.1
90320.4
90055.6
89730.3
89377.1
89015.2
88638.6
88244.2
87819.4
87375.1
86924
86456.8
85975.3
85458.8
84941.2
84445.5
83952.6
83450.3
82962.9
82483.2
82003.4
81556.7
81145.4
80791.3
80551.4
80294.6
80146.8
80065.5
80006.4
79962.2
79969.3
79995.5
80043.7
80064.5
80009.1
79915.3
79761.2
79573.7
79386.2
79296.9
79125.4
79078.9
79186.8
79420.4
79802.8
80178.6
105185
105183
105176
105165
105150
105131
105104
105071
105034
104992
104945
104893
104836
104773
104704
104631
104552
104468
104378
104283
104183
104078
103967
103850
103727
103599
103466
103327
103182
103031
102874
102711
102543
102369
102189
102003
101813
101617
101416
101210
100999
100783
100563
100342
100113
99878.7
99640.4
99398.4
99152.3
98901.2
98646.6
98388.7
98126.7
97861.9
97595.3
97329.8
97066.3
96802.8
96539.1
96271.4
95998.7
95723.9
95446.4
95165.7
94883.5
94598.2
94308.7
94017.5
93726
93435.5
93147.1
92861.5
92578.6
92298.7
92021.7
91748.1
91479.1
91215.6
90959.2
90710.7
90471.2
90240.8
90021.1
89813.9
89618.6
89437.5
89271.1
89119.7
88985.9
88868.7
88769.5
88687.9
88622.7
88576.5
88548.6
88537.6
88544.4
88569.1
88609.6
88666.3
88738.6
88824.4
88920.7
89026.9
89142.7
89264.2
89385.1
89505.4
89623
89738.3
89852.7
89959.5
90063.8
90160.7
90254.9
90343.2
90427.4
90511.2
90590.1
90666.3
90747.5
90824.5
90893.1
90967
91041.3
91098.3
91140.3
91174.7
91188
91181.2
91144.2
91081.1
90989.3
90862.9
90715.6
90530.4
90270
89947.3
89590.2
89226.5
88857.5
88481.6
88077.3
87638.4
87182.4
86716.5
86237.8
85725.9
85205.1
84700.7
84195.7
83677.7
83186.1
82697.4
82206.9
81762.4
81361.9
80988.1
80732.7
80555.6
80441.6
80363.7
80325.1
80292.2
80317
80348.8
80393.7
80434.2
80402.5
80331
80193.2
80021.4
79845.3
79754.7
79620.8
79621.6
79728.4
80005.5
80410.9
80801.5
104664
104663
104659
104651
104639
104622
104600
104572
104541
104507
104468
104424
104376
104323
104265
104203
104136
104065
103989
103909
103823
103734
103639
103540
103436
103326
103212
103092
102967
102836
102699
102557
102410
102257
102099
101935
101767
101593
101414
101230
101041
100847
100649
100449
100241
100028
99811.5
99591.1
99366.4
99136.8
98903.8
98667.1
98425.1
98179.2
97930.2
97679.4
97430.6
97183.3
96937.5
96689.9
96437
96180.3
95918.5
95652.5
95384.4
95113.3
94836.8
94557.7
94277.9
93998.4
93720.2
93444.1
93170
92897.3
92626.5
92358.5
92095.1
91836.6
91583.9
91337.7
91099.9
90871.1
90651.8
90445
90250
90068.4
89900.6
89746.7
89609.1
89487.4
89382.5
89295.5
89224.9
89172.5
89138.1
89121.6
89121.9
89140.1
89174.5
89222.2
89286.8
89364.6
89454.4
89554.8
89665.4
89781.6
89898.9
90007.1
90124.3
90235.8
90343.4
90445.4
90543.2
90634.6
90721.3
90803.3
90881.6
90958.2
91027.2
91095.2
91168.2
91233.5
91290.1
91350.4
91408
91453.9
91485.6
91504.1
91500.4
91476
91430.1
91364.1
91264.7
91129.1
90960.6
90763.2
90507
90190.4
89836.8
89466.5
89091.8
88720.3
88341.1
87923.6
87473
87006.9
86537.5
86023.7
85504.1
84990.2
84472.8
83941.5
83438.1
82947.1
82448
81997
81614.8
81252.2
81005.4
80848.8
80760
80693.7
80674.7
80667.7
80708.5
80749.7
80798.4
80855
80843
80792.3
80673.1
80521.7
80360.8
80264.9
80188.7
80244.2
80367.1
80677.1
81087.8
81505
104116
104116
104113
104107
104099
104086
104069
104048
104024
103996
103965
103929
103890
103846
103800
103750
103697
103641
103580
103515
103446
103373
103297
103214
103129
103039
102944
102844
102740
102630
102513
102393
102268
102137
102002
101861
101716
101566
101410
101250
101084
100913
100737
100558
100373
100183
99988.5
99789.6
99586.4
99379
99168.6
98954.8
98735.6
98511.6
98283.3
98050.4
97816.5
97584.1
97354.5
97126
96893.8
96656.7
96413.4
96164.6
95912.4
95657
95395.5
95129.6
94862.4
94595.6
94329.4
94064.3
93800
93536.1
93273.6
93013.4
92757
92504.4
92256.2
92013
91776.9
91550.6
91333.2
91127.3
90933.5
90752.3
90584
90428.4
90287.5
90162.1
90052.4
89960.3
89885.1
89828.2
89788.5
89766.8
89761.3
89773.4
89801.9
89843.3
89898.8
89967.3
90049.3
90143.7
90246.2
90355.8
90469.5
90567.8
90680.7
90789.1
90890.6
90986.3
91078.4
91162.6
91241
91316.8
91386.7
91453.8
91515.3
91575.4
91635
91687.8
91735.5
91779.1
91816.3
91851
91871.5
91871.2
91845.2
91801.8
91749.4
91678.5
91570.9
91428.7
91245.9
91037.8
90784.6
90471.6
90117.8
89748.6
89385.8
89009.6
88622.2
88221
87788.5
87329.1
86870.9
86366.8
85842.1
85315.3
84785.5
84245.8
83725.6
83232.7
82731.8
82269.9
81895.2
81567.2
81319.6
81154.5
81060.3
81055.1
81032.4
81061
81106.1
81176.9
81243.1
81324.6
81333
81304.6
81207.9
81081.6
80940.2
80841.2
80824.7
80930.3
81091
81412.3
81832
82288.4
103548
103549
103547
103544
103538
103531
103520
103504
103486
103465
103441
103413
103382
103349
103316
103280
103242
103201
103156
103108
103056
103000
102939
102877
102811
102741
102667
102588
102504
102415
102322
102224
102121
102013
101900
101782
101660
101535
101403
101267
101125
100978
100826
100670
100508
100341
100169
99992.3
99811.6
99626.9
99438.7
99246.6
99049.9
98849.2
98645.1
98435.3
98220
98003
97787.9
97575.7
97363.2
97147.1
96924.7
96694.7
96459.6
96221.2
95976.7
95726.8
95474
95220.9
94968.1
94716
94463.7
94210.2
93956.9
93704.9
93455.6
93209.6
92967.5
92730.3
92499.2
92277.7
92064.6
91860.5
91667.7
91487.1
91318.7
91161.6
91019
90891.6
90779.2
90683.3
90604.2
90543.3
90499
90471.7
90461.2
90467
90489
90524.1
90571.4
90631.5
90704.7
90789.6
90883.4
90985.8
91088.3
91190.1
91293.5
91395.2
91490.9
91579.8
91667.2
91743.5
91813.3
91883.4
91943.2
91999
92056.1
92106.3
92149.3
92192.4
92231
92256
92275.9
92298.8
92303.5
92284.7
92245.5
92191.1
92124.5
92034.6
91916.1
91768.2
91581.2
91367.9
91117.6
90801.4
90442.4
90087
89733.5
89356.5
88961.9
88570.5
88147
87693.4
87235.6
86735.8
86216.6
85676.7
85136.3
84592
84060.4
83558.7
83048.8
82589.3
82208.2
81897.9
81657
81491.7
81387.5
81476.1
81449.2
81514.9
81574.7
81666.3
81735.4
81841.9
81880.6
81873.8
81805.2
81706.8
81586.2
81500
81530.9
81669.7
81868.7
82209.5
82655.7
83151
102966
102968
102969
102969
102967
102963
102956
102948
102936
102922
102904
102885
102864
102842
102820
102797
102773
102748
102721
102691
102658
102620
102580
102536
102489
102438
102383
102324
102261
102194
102122
102046
101965
101881
101792
101698
101600
101498
101392
101280
101163
101041
100913
100780
100641
100498
100349
100196
100038
99876.5
99710.9
99540.9
99366.6
99188.4
99007.4
98822.4
98631.3
98434.3
98234.7
98037.3
97841.9
97645.5
97444.8
97236.5
97021.3
96800.7
96573.8
96341
96104.8
95867
95628.8
95390.8
95151.9
94910.6
94668.1
94425.8
94185.2
93948.4
93716
93488.4
93265.3
93049.7
92841.5
92640.3
92448.9
92268.6
92100.4
91943.4
91799.4
91670.9
91557.5
91459.2
91376.2
91311.1
91263.1
91229.5
91214.4
91215.1
91230.2
91259.5
91301.9
91353.3
91419.7
91495.4
91579.4
91672.8
91769.6
91866.6
91962
92054.6
92145.8
92226.8
92306.4
92376.1
92439
92501
92552.5
92597.2
92647.1
92686.6
92715
92748.4
92775.3
92784.1
92789.4
92797.4
92784
92750.4
92701.9
92635
92551.1
92438.7
92306.7
92154.3
91969.3
91754.7
91501.6
91179.5
90820.2
90472.1
90119.6
89750.6
89357.7
88982.1
88553.9
88095.6
87628.2
87133.3
86624.2
86076.3
85531.8
84984.7
84457.6
83935.2
83423.8
82970.4
82574
82266.4
82052.4
81915.8
81828.7
81945.8
81917.5
82041.5
82106.3
82217.8
82292.3
82413.4
82491
82501.2
82468
82394.7
82299.6
82244
82310.8
82477.5
82710.6
83089.4
83567.7
84087.4
102373
102377
102381
102384
102386
102386
102385
102383
102379
102373
102365
102355
102344
102333
102322
102312
102303
102293
102282
102270
102256
102238
102218
102195
102165
102133
102098
102058
102016
101970
101921
101868
101810
101747
101681
101611
101537
101459
101376
101289
101197
101100
100997
100888
100773
100652
100527
100397
100262
100123
99980.6
99833.4
99682.1
99526.8
99367.6
99205
99039.1
98867.1
98688
98506.6
98326.9
98148.5
97968.4
97782.4
97589.2
97388.8
97181.4
96966.5
96747.5
96526.1
96303.9
96081.3
95857.2
95630.5
95401.8
95172.7
94944.7
94719.4
94497.6
94279.9
94065.1
93854.4
93649.8
93452.2
93264
93086.3
92920.2
92764.8
92621
92491.9
92377.3
92278.2
92193.6
92124.2
92072.7
92035.7
92015.8
92012.8
92024
92047.3
92084.7
92129.2
92192.6
92259.5
92338.3
92423.9
92511.8
92600.5
92689.3
92772
92856.4
92928.4
92997.9
93062
93117.3
93169.3
93215.1
93249.8
93287.8
93316.9
93334.1
93354
93366.6
93364
93354.8
93344.7
93314.3
93268
93207.4
93123.8
93021.8
92891.9
92746.2
92589.7
92406.4
92189.2
91924.6
91600.6
91249.6
90897.9
90545.3
90189
89816.9
89432.5
89004.2
88545.7
88071.5
87581.8
87077
86525.2
85971.6
85431.2
84890.8
84347
83851.1
83392.3
83000.9
82708.8
82517.9
82414.4
82363.1
82445.8
82426.7
82616.2
82686.1
82826.1
82917.8
83042.9
83162.9
83191.2
83195.2
83148.6
83081.1
83061.8
83154.4
83359.1
83628.5
84052.2
84559.4
85094.2
101777
101782
101787
101793
101801
101808
101816
101822
101826
101829
101831
101832
101832
101833
101835
101837
101841
101845
101850
101855
101858
101859
101856
101847
101839
101828
101813
101794
101771
101746
101719
101689
101654
101614
101570
101523
101472
101417
101357
101294
101226
101153
101074
100989
100898
100801
100698
100591
100479
100363
100244
100119
99990.8
99858.2
99721.4
99579.9
99436.1
99289.8
99136.2
98975.7
98813.4
98652.8
98492.4
98327.6
98155.5
97976.5
97790.1
97595.5
97395.1
97191.7
96986.4
96780.4
96572.6
96362.7
96150.4
95936.7
95722.8
95509.8
95298.9
95090.8
94884.7
94680.8
94482.4
94291.1
94108.2
93935
93772.7
93620
93477.9
93348.9
93234.1
93134.4
93049.2
92979.5
92925.6
92886.6
92863.8
92856.8
92865.9
92884.8
92921.2
92953.8
93015.8
93081.6
93153.3
93231.6
93312
93391.8
93472.7
93545.8
93619.9
93684.7
93745
93802.1
93848.1
93890.8
93929.6
93955.1
93980.5
93999.5
94006.2
94010.8
94008.5
93994.9
93969
93940
93892.9
93831.8
93752.1
93653.8
93538.4
93396
93237.8
93073.8
92886.2
92667.8
92393.1
92069.2
91729.8
91376.5
91022.3
90669.4
90308.8
89928.2
89511.4
89060.3
88584.4
88094.3
87588.4
87035.9
86461.2
85915.5
85330.2
84803
84330.7
83871.8
83509.7
83241.2
83065.8
82998
82958.5
82961
82979.6
83193.6
83296.5
83481.4
83609.9
83741.9
83889.1
83958.3
83987.4
83976.1
83943.3
83947.8
84058.5
84305.5
84622.6
85089.8
85624.8
86170.8
101181
101187
101195
101205
101217
101231
101248
101265
101282
101296
101309
101323
101336
101350
101365
101382
101399
101417
101437
101457
101476
101493
101508
101519
101527
101531
101528
101524
101524
101521
101516
101509
101499
101485
101465
101438
101408
101374
101336
101295
101250
101201
101144
101082
101014
100940
100861
100776
100687
100593
100496
100394
100288
100177
100063
99943.4
99820.2
99696.5
99569.3
99433.9
99292.8
99150.8
99009.5
98865.5
98715
98557.8
98392.7
98219.4
98039.2
97854.8
97667.8
97479.8
97289.7
97097.7
96903
96705.8
96506.6
96307.6
96109.9
95912.7
95717
95523.4
95333.9
95150.4
94973.6
94805
94646.9
94498.4
94360
94233
94119.5
94022.4
93938.2
93869.5
93817
93778.2
93753.6
93744.3
93751.7
93764.7
93795.8
93834.6
93889
93950
94015.2
94086.9
94160.4
94232.5
94304.4
94369.4
94433.7
94491.5
94543.3
94594.1
94633.3
94666.9
94695.2
94713
94726.5
94734.8
94731.4
94720.4
94703.8
94677.5
94634.5
94586.9
94522.8
94445
94345.5
94235.3
94106.5
93953.2
93782.4
93608.1
93412.8
93192.5
92918.4
92598.1
92257.4
91906.8
91552.9
91195
90832.8
90468.9
90081.2
89642.9
89166.1
88672
88161.5
87615.2
87024.9
86415.7
85845.6
85364.8
84902.9
84461.5
84113
83857.8
83710.5
83653.3
83604.6
83568.5
83630.3
83802.3
83963.2
84181.8
84360.6
84514.4
84672.9
84797.9
84842.5
84876.4
84898.9
84919.5
85050.3
85328.4
85694.8
86206.8
86768.2
87315.7
100588
100597
100608
100623
100641
100662
100688
100716
100745
100774
100802
100830
100858
100887
100917
100947
100979
101012
101045
101079
101112
101143
101173
101200
101223
101241
101256
101270
101282
101295
101310
101323
101337
101348
101352
101350
101342
101328
101311
101291
101268
101240
101206
101165
101119
101067
101010
100948
100882
100810
100734
100654
100570
100480
100387
100289
100187
100085
99981.4
99871.9
99755.2
99634.3
99512.5
99388.6
99259.6
99124.5
98982.5
98830.7
98671.3
98507.2
98340
98171.2
98000.8
97827.5
97651.1
97470.9
97288.6
97105.6
96922.2
96737.7
96554.5
96373
96194.3
96019.5
95850.1
95687.9
95535.8
95393.9
95262.4
95141.4
95032.3
94937.4
94856.4
94789.8
94737.8
94700.7
94676.7
94663.3
94668.4
94683.7
94712.1
94750.5
94800.3
94857.1
94917.3
94983.4
95051
95115.5
95178.5
95237.1
95292.9
95345.4
95390.6
95435.3
95469.2
95495.3
95512.1
95522.1
95523.9
95520.8
95508
95483.7
95453.6
95412.2
95352.7
95287.7
95208.5
95110.8
94995.9
94871.8
94727.8
94563.2
94381.3
94195.8
93990.9
93765.8
93500.6
93184.5
92835.3
92491.7
92141.5
91777.3
91407
91052.2
90690.8
90271
89802.5
89307.1
88795.8
88259.9
87678.4
87021
86463.1
86045.6
85574
85162.4
84799.4
84565.8
84437.5
84348.4
84302.2
84274
84379.9
84528.8
84719.6
84943.8
85165.4
85352.4
85522.5
85682.1
85761.6
85849.8
85938.2
85991.2
86157.5
86443.3
86856
87416.3
87989.8
88523.3
100002
100013
100028
100048
100074
100105
100140
100179
100220
100264
100307
100352
100396
100441
100486
100531
100577
100624
100670
100716
100762
100807
100851
100895
100936
100974
101009
101040
101068
101096
101124
101157
101188
101220
101244
101262
101274
101279
101282
101281
101277
101269
101255
101235
101210
101180
101144
101105
101060
101010
100956
100897
100833
100764
100690
100613
100532
100450
100368
100284
100192
100095
99994.3
99890.7
99782.3
99668.6
99548.9
99420.3
99282.9
99140
98993.7
98845.2
98695.2
98541.8
98384
98221.5
98056.3
97889.8
97722
97552
97382.7
97215.5
97049.7
96886.7
96728.2
96577.1
96434.1
96301
96178.7
96065.5
95963.4
95872.9
95794
95729.3
95679.5
95643.4
95618.8
95609
95613.1
95628.5
95655.8
95694.2
95741.1
95794.3
95851.5
95913.6
95976.2
96034.7
96090.6
96144.2
96194
96243.8
96285.3
96323
96351.6
96369.4
96376.8
96378.7
96371.5
96357.2
96335.7
96299.1
96255.3
96197.2
96123.3
96041.4
95947.5
95831.2
95704
95564.3
95404.7
95227.6
95039
94841
94623.7
94390.2
94132
93822.1
93478.7
93138.1
92790.3
92422.3
92046.4
91689.2
91336.2
90935.8
90485
89995.5
89493.1
88970.5
88409.8
87754.8
87178.2
86755.9
86305
85914.2
85585.1
85371.8
85208.2
85081.2
85077.7
85073.4
85214.1
85366.1
85562.4
85777.1
86043.1
86250.2
86447.3
86620.8
86754.1
86901.5
87041.6
87155
87367.4
87652.9
88120.2
88724.2
89283.5
89788.3
99514.6
99527.4
99544.6
99570.6
99604.2
99643.7
99688.7
99738.2
99791.4
99847.1
99904.1
99962.1
100020
100078
100136
100194
100252
100310
100368
100426
100484
100541
100598
100653
100707
100759
100809
100858
100904
100948
100992
101036
101082
101121
101157
101186
101209
101233
101252
101267
101277
101284
101287
101284
101276
101264
101246
101224
101197
101166
101129
101088