/*--------------------------------*- C++ -*----------------------------------*\
| =========                 |                                                 |
| \\      /  F ield         | OpenFOAM: The Open Source CFD Toolbox           |
|  \\    /   O peration     | Version:  dev                                   |
|   \\  /    A nd           | Web:      http://www.openfoam.org               |
|    \\/     M anipulation  |                                                 |
\*---------------------------------------------------------------------------*/
FoamFile
{
    version     2.0;
    format      ascii;
    class       volScalarField;
    object      p_0;
    location    "9.149";
}
// * * * * * * * * * * * * * * * * * * * * * * * * * * * * * * * * * * * * * //

dimensions      [1 -1 -2 0 0 0 0];

internalField   nonuniform List<scalar> 
12225
(
88716.9
88777.2
88940.4
89192.1
89512.7
89891.4
90313.3
90772.8
91255
91760.1
92272.6
92804.5
93325.7
93886.4
94425
95015
95673.3
96284.1
88719.5
88783.9
88947.5
89199.1
89519.4
89897.8
90319.4
90778.5
91260.4
91765.2
92277
92808.5
93329.4
93886
94423.8
95009.8
95626.3
96252.5
88734.2
88801
88964.7
89215.8
89535.4
89913.2
90334.1
90792.5
91273.4
91777.3
92288.1
92817.3
93338.7
93886.1
94424.1
94994.9
95570.7
96175.4
88763.9
88830.9
88994.9
89245.1
89563.7
89940.5
90360.2
90817.2
91296.7
91798.8
92307.9
92833.7
93353.3
93891.6
94421.4
94970.2
95513.3
95987.6
88808.7
88877.4
89041.4
89290.5
89607.7
89983
90401
90855.7
91333.2
91831.9
92339.4
92857.7
93377.2
93901
94425.9
94948.5
95460.6
95992.5
88873.2
88945.1
89108.4
89356.3
89671.6
90044.8
90460.1
90911.8
91386.1
91880.6
92384.6
92895.5
93411.6
93922.9
94442.1
94941.9
95448
95931.9
88967
89039.2
89201.8
89447.9
89760.9
90130.9
90542.8
90990.2
91460.3
91949
92448
92951.4
93459.9
93961.4
94468.4
94957.7
95442.7
95904.2
89073
89146.9
89308.8
89553
89863.5
90229.8
90638
91080.6
91546.4
92028.8
92521.7
93017.4
93516.9
94008
94501.5
94974.4
95435.4
95869.7
89190.8
89264.1
89425.2
89667.3
89975
90337.5
90741.8
91179.3
91640.2
92116.3
92602.2
93090.3
93580.2
94061.2
94539.6
94997.5
95438
95853.9
89347.1
89420.7
89580.7
89819.8
90123.9
90481.3
90880.6
91311.4
91765.7
92233.7
92710.6
93188.9
93666.5
94134.9
94595.5
95037.5
95458.5
95855.2
89561.2
89630.4
89788.4
90023.6
90322.7
90673.5
91065.9
91488.3
91933.4
92391
92856.7
93322.3
93784.8
94238.1
94680.1
95103.7
95504.4
95882.1
89843.5
89910.2
90065.3
90295
90587.6
90929.9
91313
91724.6
92157.8
92602.2
93053.2
93503.2
93948.4
94383.7
94804.8
95207.9
95588.8
95946.8
90220.6
90282.9
90433
90655.7
90939.5
91271.2
91641.9
92039.5
92456.9
92884.8
93317.7
93748.7
94173.5
94587.1
94985.5
95366.4
95726.2
96063.6
90711.9
90775.4
90919.3
91133.1
91405.6
91723.6
92077.9
92457.5
92855.1
93262.2
93672.7
94080.6
94481
94869.7
95243.4
95599.4
95935.4
96250.7
91372
91423.7
91558.2
91760.5
92017.9
92318.2
92651.7
93008.8
93381.6
93762.6
94145.7
94525.5
94897.3
95257.4
95602.7
95931
96240.4
96530.3
92210.5
92260.2
92386.2
92574.5
92813.1
93091
93398.6
93727.3
94069.5
94418.5
94768.4
95114.5
95452.7
95779.4
96091.9
96388.7
96668
96929.6
93264.4
93323.4
93441.3
93612.6
93828
94077.8
94353.5
94647.3
94952.2
95262.4
95572.5
95878.6
96176.9
96464.5
96739.2
96999.5
97244
97472.7
94510.5
94553.5
94656.3
94807.1
94995.9
95214.3
95454.3
95709.2
95973
96240.5
96507.4
96769.9
97025.1
97270.6
97504.6
97725.9
97933.1
98126.3
95692.6
95734.2
95824.9
95956.7
96120.7
96309.2
96515.6
96734.1
96959.5
97187.5
97414.2
97636.7
97852.3
98059
98255.5
98440.6
98613.4
98773.5
96715.9
96750.2
96830.9
96946.7
97089.7
97253.1
97431
97618.7
97811.8
98006.4
98199.5
98388.5
98571.1
98745.5
98910.4
99065
99208.5
99340.6
97560.9
97593.1
97665.9
97768.5
97894.1
98036.7
98191.4
98354
98520.6
98688.1
98853.9
99015.7
99171.3
99319.2
99458.4
99588.1
99707.5
99816.4
98232
98269.6
98337.1
98429.2
98540.8
98666.8
98803.1
98945.6
99091.1
99237.1
99381.3
99521.4
99655.5
99782.4
99901.2
100011
100111
100202
98765.2
98799.3
98861.2
98944.8
99045.5
99158.6
99280.5
99407.6
99536.9
99666.3
99793.7
99917
100035
100145
100248
100343
100428
100504
99170.6
99202.1
99259.2
99335.9
99428.3
99531.8
99642.7
99758.1
99875.2
99992
100107
100217
100323
100421
100512
100594
100669
100734
99466.8
99498.9
99552.2
99623.7
99709.8
99806.2
99909.1
100016
100124
100232
100337
100439
100535
100624
100706
100780
100846
100903
99679.9
99710
99760.1
99827.7
99909.4
100001
100098
100199
100301
100402
100501
100596
100686
100768
100844
100912
100972
101024
99825.8
99853.9
99900.7
99965.5
100044
100132
100226
100323
100421
100518
100612
100703
100788
100866
100938
101001
101058
101106
99922.6
99945.1
99989.1
100052
100129
100216
100307
100401
100497
100591
100683
100770
100852
100928
100997
101058
101112
101157
99977.8
99995.9
100038
100101
100177
100262
100353
100446
100539
100632
100722
100808
100889
100963
101030
101090
101142
101186
100004
100018
100059
100121
100197
100282
100372
100464
100557
100649
100739
100824
100904
100978
101044
101103
101155
101198
108624
108614
108593
108561
108520
108468
108406
108333
108250
108157
108053
107938
107813
107677
107531
107375
107208
107032
106845
106649
106444
106229
106005
105773
105532
105283
105026
104761
104489
104209
103923
103629
103330
103026
102716
102402
102083
101761
101437
101109
100779
100447
100113
99780.3
99441.3
99099.8
98757.3
98414.3
98070.8
97728
97385.4
97041.4
96698.2
96356.6
96016.4
95676.7
95336.6
94996.7
94658.1
94321.9
93988.1
93656.9
93327.5
92999.8
92673.5
92349.7
92029.6
91714.9
91406.5
91104.7
90807.9
90514.6
90227.4
89946.9
89669.4
89398.1
89135.8
88883.6
88639.6
88403.6
88177.4
87962.9
87761.3
87574
87402
87246.4
87108.3
86988.2
86886.7
86804.3
86741.7
86699
86676.2
86673.5
86690.7
86728
86784.8
86861.2
86956
87068.5
87198.1
87342.7
87501.2
87671.8
87852.8
88042.8
88238.7
88438.8
88640.2
88840.4
89037.2
89229
89414.2
89590.7
89760.2
89917.6
90063.2
90198.1
90324.2
90441.6
90550.8
90653.7
90751.2
90842.5
90927.9
91007.7
91079.4
91137.8
91175.9
91187.7
91169.7
91121.5
91040.3
90918.1
90746.5
90518.7
90243.8
89920.2
89544.7
89131.5
88678.9
88194.4
87686.9
87169.4
86652.2
86142.1
85644.5
85163.8
84706.4
84272.2
83856.8
83459.6
83078.3
82714.3
82357.7
82001.1
81665.4
81354.5
81078.4
80837.5
80641
80485
80375.8
80305.7
80270.1
80253.4
80231.8
80216.4
80204.9
80181.8
80150
80109.6
80052.1
80001
80045.1
80223.3
80411
80757.1
81254.8
81886.8
108545
108535
108514
108482
108441
108390
108329
108258
108176
108084
107981
107869
107745
107612
107468
107313
107149
106974
106790
106597
106394
106182
105961
105732
105494
105248
104994
104733
104464
104188
103904
103614
103318
103017
102710
102399
102084
101765
101444
101120
100793
100464
100133
99800.2
99463.9
99125.1
98785.8
98450.4
98113.4
97774.8
97433.7
97091.6
96750.8
96410.9
96072.5
95735.1
95397.2
95059.4
94722.9
94388.9
94056.8
93728.3
93402.4
93076.9
92751.3
92426.5
92105.7
91791.7
91484.1
91184
90889.6
90597.9
90311.4
90033.8
89761.1
89488.1
89222.3
88967.2
88721.9
88486
88260.3
88046.3
87845.2
87658.1
87486.6
87331.6
87193.8
87073.9
86972.3
86889.8
86826.7
86783.4
86760.1
86756.8
86773.4
86810.1
86866
86941.3
87035.3
87147
87275.7
87419.3
87577
87746.7
87927
88116.1
88311.2
88510.6
88711.4
88910.9
89106.7
89298.2
89483.3
89657.7
89827.8
89985.4
90129.8
90263
90389.1
90506.4
90614.1
90716.1
90813
90902.4
90985.6
91063.7
91133.8
91190.4
91226.2
91234.9
91214.2
91163.9
91081.2
90959.3
90788.2
90558.8
90278.6
89957.3
89576.4
89166.9
88715.3
88232.6
87726.5
87211
86695.5
86187.2
85689.6
85210.2
84753.5
84320.1
83903.2
83503.9
83121.5
82757.3
82400.8
82041.2
81707.1
81395.8
81121.1
80882.5
80689.5
80537.1
80433
80369.1
80338.9
80328.2
80301.6
80286.3
80275.8
80253.6
80219
80174.7
80117.3
80067.3
80128.2
80285.8
80481
80827.5
81316.3
81947.5
108386
108377
108358
108327
108287
108237
108178
108109
108030
107941
107841
107732
107612
107481
107341
107190
107029
106859
106680
106491
106293
106086
105871
105648
105417
105178
104930
104676
104413
104144
103867
103584
103295
102999
102699
102395
102086
101774
101459
101141
100821
100499
100174
99846.9
99517.3
99185.4
98852.6
98519.5
98186
97852.3
97523.6
97192
96856.6
96520.3
96185.4
95851.3
95517.8
95184.8
94853.1
94523.8
94196.7
93870
93544.7
93218.4
92893.3
92572.2
92254.3
91941.8
91638.6
91342.5
91052.4
90766.2
90482
90201.9
89927.3
89657.1
89392.7
89136.6
88890.3
88654.3
88429.1
88215.6
88015.1
87828.9
87658
87503.3
87365.7
87245.7
87143.8
87060.5
86996.3
86951.5
86927
86922.5
86937.6
86972.5
87026.5
87099.9
87192.5
87302.2
87428.9
87570.5
87726.4
87894.8
88073.7
88261
88454.8
88652.5
88851.9
89050.1
89245
89436.4
89617.9
89793.5
89961.4
90118.5
90261.9
90393.3
90519.2
90636.6
90742.5
90842.5
90938.2
91025.8
91104.8
91177.3
91242.3
91295.1
91326.4
91328.8
91301.2
91247.1
91164
91042.3
90871
90639.8
90352.3
90024.1
89650.2
89238.8
88788.8
88311.1
87810.1
87298.2
86785.4
86278.6
85781.8
85304.3
84848.2
84416
83998.5
83595.7
83211.1
82846.2
82486.3
82126.7
81794.2
81485.2
81213.3
80975.2
80787
80643.5
80554.2
80503.1
80483.3
80477.5
80455.3
80439.4
80427.1
80399.5
80354.8
80307.6
80254.2
80213.2
80295.2
80426.2
80638.3
80990
81449.2
82079.6
108153
108145
108127
108099
108060
108012
107956
107890
107814
107729
107633
107528
107413
107286
107150
107005
106850
106687
106514
106333
106144
105946
105740
105526
105304
105074
104837
104592
104340
104080
103813
103540
103261
102974
102684
102389
102089
101787
101481
101172
100862
100550
100236
99919
99599.5
99277.6
98953.5
98627.4
98300.9
97974.5
97650.1
97327.1
97005
96680.1
96351
96023.4
95697.7
95371.5
95045.9
94722.1
94399.4
94076.7
93756.3
93438.8
93122
92804.1
92488.5
92178.8
91876.9
91582.9
91294.4
91010.2
90728.8
90450.1
90174.9
89905.2
89642.4
89387.7
89142.2
88906.9
88682.6
88470
88270.4
88085
87914.9
87760.6
87623.1
87502.7
87399.7
87315.1
87249.2
87202.2
87175.2
87168.4
87181
87213.2
87264.1
87334.4
87424.6
87531.3
87655.2
87794
87947
88113.2
88290
88475
88666.8
88862.2
89058.8
89255.3
89448.9
89638
89820.8
89993.5
90157.1
90311.9
90455.5
90586.9
90711.1
90826.9
90932.8
91030.8
91123.5
91208.6
91284.5
91350.2
91405.2
91448.9
91472.4
91465.5
91428.6
91367.5
91282.8
91165
90995.9
90761.5
90466
90129.3
89758.2
89343.8
88899.3
88431.1
87939.1
87433.3
86925.6
86420.5
85923.4
85446
84989.9
84561.4
84143.9
83736.2
83347.6
82980.1
82616.6
82259.3
81930
81625.2
81356.8
81118.8
80938.5
80810.6
80743.3
80707.3
80700.7
80706.5
80694.5
80677.6
80659.9
80624.5
80570.3
80512.1
80462.1
80452.6
80542.6
80629.9
80871
81236.1
81665.9
82296.9
107848
107841
107825
107799
107762
107718
107665
107603
107532
107452
107362
107261
107150
107030
106901
106764
106619
106464
106302
106131
105951
105764
105570
105367
105157
104939
104714
104482
104242
103995
103741
103481
103214
102942
102664
102382
102095
101805
101511
101214
100916
100618
100316
100011
99704.6
99395.9
99084.1
98769.9
98454
98137.2
97820.4
97504.3
97191.8
96881.3
96567
96249.7
95932.9
95616.8
95300.6
94985.9
94672.5
94359
94046.9
93737.2
93428.4
93118.1
92807.6
92501.1
92200.6
91906.6
91618.2
91333.7
91052.7
90775.6
90502.6
90234.8
89974
89721.3
89477.7
89244.2
89021.6
88810.6
88612.2
88427.7
88258.1
88103.8
87965.7
87844.5
87740.1
87653.2
87584.9
87534.9
87504.9
87494.6
87503.5
87531.9
87579.3
87645.7
87732
87835.3
87955.4
88091.2
88240.6
88403.2
88577
88758.9
88947.8
89140.7
89334.2
89528.2
89719.5
89904.3
90086.7
90258.8
90418.9
90569.2
90711.7
90844.4
90965.4
91076.7
91181.3
91278.7
91367.6
91448.4
91520.9
91579.7
91622.2
91652.2
91665.4
91649.4
91601.5
91529.3
91439.7
91323.8
91159.1
90923.4
90620.2
90273.5
89901.2
89484.6
89045.6
88587.8
88110.2
87616.7
87118.2
86617.1
86120.2
85638.4
85180.4
84751.2
84334.4
83922.2
83529.5
83158.6
82791
82434.2
82109.4
81810.8
81545.8
81312.1
81143.8
81034
80985.2
80961.1
80963.3
80987.6
80998.2
80991.9
80970
80926.1
80861.3
80795.4
80749.3
80785
80850
80902.6
81180.4
81551.7
81994.7
82617.3
107479
107473
107458
107433
107400
107360
107312
107256
107190
107114
107029
106933
106831
106720
106601
106474
106339
106196
106044
105886
105719
105544
105362
105173
104977
104773
104563
104345
104121
103889
103652
103408
103157
102901
102640
102374
102103
101828
101550
101269
100985
100700
100413
100123
99829.8
99537.2
99240.3
98941.3
98639.6
98336.2
98031.5
97725.9
97422.3
97122.6
96823.8
96522.6
96220
95917.8
95613.8
95309.2
95006.6
94704.7
94402.9
94102.2
93801.8
93500.3
93198
92897.4
92600.1
92307.2
92018.9
91734.8
91454.8
91179.4
90909.1
90644.8
90387.1
90137.3
89896.3
89665
89444.2
89234.7
89037.7
88853.9
88684.1
88529.1
88389.5
88266.5
88159.9
88070
87998.9
87945.5
87911.5
87897.3
87901.8
87925.8
87968.9
88030.8
88112.3
88211.8
88327.5
88459.8
88605.3
88763.8
88934.1
89112.9
89297.9
89487.2
89676.8
89867.6
90057
90238.9
90416.9
90587.1
90746.9
90893.9
91031.9
91164
91282.7
91388.7
91489.3
91584.1
91668.6
91745.1
91812.2
91864.4
91897.2
91912.3
91911.1
91885.9
91831.1
91745.9
91641.4
91522.4
91361
91125.3
90815.5
90458.7
90076.9
89662.7
89231.6
88783.6
88320.6
87841.2
87357.9
86865.6
86373.6
85886.7
85423.2
84991.5
84571.2
84153.5
83754.7
83381.4
83010.5
82655.1
82333.9
82041
81786.4
81553.9
81404.7
81308.5
81273.3
81259.4
81271.2
81313.5
81355.9
81369.2
81349
81300.4
81226.6
81155.9
81117.9
81186.8
81225.4
81256.1
81578.4
81947.7
82454.8
83033.8
107052
107046
107033
107011
106982
106947
106905
106853
106792
106722
106643
106558
106465
106364
106256
106140
106017
105886
105748
105602
105449
105289
105121
104947
104767
104579
104385
104185
103978
103764
103545
103319
103088
102851
102609
102361
102110
101854
101594
101332
101066
100797
100526
100253
99976.9
99699.3
99419.5
99137.5
98852.6
98565.6
98276.9
97986.3
97695.2
97406.2
97120.7
96836.6
96550.8
96264
95976.2
95685.6
95395.9
95107.4
94817.8
94527.4
94237
93944.5
93650.1
93356.3
93064.3
92775.3
92489.9
92208.6
91931.8
91660.1
91393.7
91133.2
90879.3
90632.6
90394.4
90165.5
89946.7
89738.6
89542.5
89358.7
89188.3
89032.1
88890.1
88764.6
88655.7
88562.9
88488.8
88432.1
88393.8
88375.5
88375.3
88393.6
88431.8
88488.6
88564.4
88659.2
88770.1
88898.3
89039.6
89194.5
89361.2
89536.5
89717.2
89903.3
90089
90273.8
90460.5
90640.7
90814.4
90979.7
91137.5
91281.9
91415.3
91543.2
91659.6
91762.5
91858.5
91946.8
92024.3
92096
92158.2
92201.8
92225.9
92231.6
92216.3
92180.1
92117.4
92022
91899
91762.7
91599.3
91367.6
91052.1
90684.1
90294.6
89882.1
89464.2
89026.1
88571.8
88103.8
87638.2
87160.7
86680.7
86192.6
85721.7
85284.5
84855.8
84431.7
84027.7
83648.4
83273.2
82922
82596.4
82313.5
82082.5
81841.3
81709.1
81634.7
81595.5
81593.4
81617.5
81683.4
81759.1
81802.2
81787.7
81743.1
81664.8
81591.5
81561.1
81657.3
81669.8
81723.1
82059
82463.3
83006
83546.8
106576
106571
106559
106541
106517
106487
106450
106404
106348
106284
106216
106140
106058
105968
105871
105766
105655
105538
105413
105282
105144
104999
104849
104691
104528
104359
104183
104001
103814
103620
103420
103215
103004
102788
102567
102342
102111
101877
101639
101397
101152
100904
100652
100399
100142
99882.8
99621.2
99357.4
99090.7
98821.6
98550.6
98277.8
98003.6
97729
97456.5
97187.8
96919.3
96650.2
96381.1
96107.9
95832.5
95557.5
95281.1
95002.4
94723.1
94441.5
94156.9
93871.2
93586.4
93303.9
93024.4
92748.9
92477.6
92211.4
91949.9
91693.4
91442.8
91199.1
90963.4
90736.7
90519.8
90313
90117.7
89934.3
89763.1
89606.4
89463.1
89335.4
89225.2
89130.6
89053.8
88994.4
88951.9
88928.6
88923.7
88936
88968.2
89019.5
89088.7
89177.2
89283
89406.3
89543.2
89693.7
89857.4
90029.9
90205.7
90388.1
90567.9
90751.7
90932.9
91108.4
91277.9
91437.8
91590.9
91731.6
91861.3
91984.1
92094.7
92193.1
92285.7
92366.4
92433.6
92498.3
92555.6
92589
92601.6
92601.1
92577
92530.6
92455.6
92346.4
92208.2
92046.4
91872.4
91643.3
91326.3
90948.6
90551.3
90139.6
89745.4
89328.5
88882.5
88420.3
87962.7
87497.9
87033
86550.8
86075.7
85629.7
85191.5
84757.7
84350.6
83961.7
83578.7
83232.4
82901.3
82606.4
82405.4
82183.3
82065.9
82016
81985.6
81976.5
82023.1
82107.2
82206.3
82284.1
82283.1
82250.9
82173.4
82100.1
82072.1
82166.2
82186.8
82316.9
82627.8
83072.4
83639.2
84166.2
106059
106056
106047
106033
106013
105988
105954
105912
105864
105811
105752
105686
105614
105535
105449
105358
105259
105156
105046
104930
104809
104681
104548
104409
104265
104115
103959
103798
103631
103459
103281
103097
102909
102715
102517
102314
102106
101895
101679
101460
101238
101012
100783
100551
100316
100079
99838.1
99595.2
99349.4
99100.2
98850.1
98596.9
98340.8
98083.4
97826.1
97571.9
97319.9
97068.9
96818.4
96564.9
96306.9
96047.1
95785
95519.5
95252.6
94983.1
94709.7
94434.5
94159.3
93885.7
93614.7
93347.4
93083.7
92823.7
92567.3
92315.2
92068.6
91828.4
91596.1
91372.3
91158.1
90953.2
90759
90577.5
90407.2
90251
90108.7
89980.4
89868.9
89773
89693.9
89631.6
89585
89556.9
89546.9
89554.1
89580.2
89625.2
89687.8
89768.9
89868.6
89985.9
90118
90263.6
90422.5
90593
90761.1
90940.4
91118.8
91297
91472.5
91642.5
91806.5
91960.4
92107.3
92243
92368.2
92485.9
92588.6
92680.1
92768.3
92841
92896.3
92950.2
92998.3
93022.4
93024.5
93015.3
92979.3
92920.9
92832.4
92713.4
92563.3
92381.2
92183.2
91948.2
91632.1
91252
90845.4
90438.4
90059.1
89666.1
89243.3
88791.5
88334.8
87881
87420.1
86951.3
86477.1
86025.3
85578.7
85132.5
84722.2
84322.4
83926.1
83581.8
83259
82942.2
82733.7
82584.4
82497.3
82452.2
82447.1
82448.8
82519.5
82614.7
82719.8
82817
82836.4
82820.9
82749.1
82681
82651.8
82739.2
82798.1
82983.3
83294.3
83778.5
84357.8
84884.1
105514
105512
105505
105493
105477
105455
105426
105390
105350
105306
105256
105200
105138
105070
104997
104918
104835
104746
104651
104552
104447
104338
104223
104104
103980
103851
103717
103577
103432
103282
103127
102966
102801
102631
102456
102277
102094
101906
101715
101520
101321
101119
100913
100704
100493
100278
100060
99840.2
99617.3
99391.2
99163.7
98933.5
98698.7
98461.3
98222.1
97983.1
97746.2
97511.5
97279.1
97045.7
96808.4
96566.3
96320.3
96069.8
95816.8
95561.5
95301.1
95037.9
94774.5
94512.1
94251.7
93994
93739.3
93486.7
93237
92991.2
92751.3
92517.4
92290.2
92070.2
91859.4
91658.1
91466.1
91287.3
91119.9
90965.4
90824.5
90696.4
90583.4
90485.5
90403.1
90337.6
90287.4
90254.9
90240.3
90243.4
90264
90303.8
90361.6
90435.4
90528.1
90638
90764.1
90903.4
91056.7
91224.5
91384.9
91560.2
91735.8
91909.4
92078.8
92241.7
92399.4
92546.9
92686.3
92816.1
92935.5
93046.2
93140.5
93224.6
93305.4
93367.8
93413.1
93454.1
93486
93501.1
93495.2
93470.2
93416
93339.8
93241.7
93118.8
92958
92761.5
92535.9
92285
91970.2
91592.1
91186.5
90780.9
90399
90017.2
89623.9
89199.3
88751.8
88300.2
87857.5
87397.6
86926.9
86470.8
86017
85559.7
85138.7
84734.9
84327.5
83973.5
83669.2
83362
83150.2
83029.8
82969.4
82937.7
82953.5
82985.4
83078.9
83183.9
83298.8
83411.3
83450.5
83452.4
83391.4
83334.5
83310.2
83384.4
83498.2
83743.6
84069.5
84581.7
85150.7
85689.5
104942
104941
104936
104927
104914
104897
104873
104845
104813
104776
104734
104688
104635
104578
104518
104454
104387
104313
104236
104154
104067
103976
103881
103782
103679
103571
103459
103341
103219
103092
102959
102822
102680
102535
102385
102230
102072
101910
101745
101575
101401
101224
101042
100858
100670
100479
100284
100087
99887.6
99685
99481.5
99277
99066
98852
98634.8
98413.8
98192.6
97973.2
97757.1
97542.8
97325.9
97104.1
96877
96644.3
96407.8
96168.4
95923.4
95673.9
95423.5
95174.1
94926.2
94680.2
94435.8
94192.6
93952
93715.2
93483.6
93257
93036
92820.7
92613.3
92416.7
92229.2
92053.6
91890.3
91739.1
91600.3
91473.5
91360.3
91261.2
91176.7
91108.8
91056.4
91021.3
91003.1
91002.6
91018.7
91053.7
91106.6
91174.3
91258.8
91359.7
91478.2
91610.4
91756.5
91915.4
92078.1
92245.7
92415.5
92583.5
92747.2
92903
93054.7
93195.5
93325.9
93450.3
93561.8
93662.5
93751.1
93828.7
93896.4
93948
93986.2
94011
94023.1
94029.1
94013
93968.5
93892.7
93798.4
93691.8
93561.5
93390.2
93184.2
92939
92672.9
92359.5
91981.9
91577.9
91181.1
90805.5
90420.2
90029
89627.8
89205
88767.3
88344.9
87897.5
87429
86966.3
86506.5
86043.9
85604.1
85198.2
84787.3
84418
84119.5
83850.1
83633.9
83503.1
83441.5
83465
83486.5
83553.7
83660.3
83793.2
83929.6
84066.5
84126.2
84149.9
84107.4
84068.6
84053.1
84116.5
84285.3
84579.5
84938.5
85450.7
86013.1
86577.9
104353
104353
104350
104344
104336
104324
104307
104285
104259
104229
104194
104156
104113
104069
104022
103973
103921
103865
103806
103742
103675
103603
103528
103448
103365
103279
103188
103093
102994
102890
102781
102668
102550
102429
102303
102174
102042
101906
101766
101622
101474
101322
101166
101007
100843
100677
100507
100333
100158
99979.6
99800.5
99617.5
99431.3
99242.5
99051
98854.3
98652.7
98449.6
98248.2
98050.3
97852.9
97652.5
97446.7
97233.7
97015.3
96793.6
96566.3
96333.6
96098.5
95863.6
95629.9
95397.7
95166.2
94934.6
94704.6
94477.5
94254.4
94036.1
93822.9
93616.1
93416.1
93227.1
93047.1
92876
92716.7
92569.2
92433.4
92307.7
92195.7
92097.6
92012.9
91943.7
91890
91853.4
91832.6
91827.9
91840
91869.7
91917.5
91979.6
92054.6
92148.4
92257
92382.2
92519.3
92671.7
92830.1
92991.6
93154.8
93315.6
93473.2
93622.1
93768.4
93902.5
94024.4
94142.9
94245.6
94335.1
94420.2
94489.8
94540.9
94584.6
94615.6
94621.6
94617.4
94613
94581.4
94518.7
94429.9
94323.8
94201.6
94049.7
93866.1
93653.1
93401.5
93127.5
92814.7
92432.6
92026.3
91650.4
91280.1
90892.9
90499.4
90112.8
89709.2
89285.9
88870.9
88435.7
87979.6
87511.8
87049.2
86585.1
86131.4
85717.3
85297.4
84927.7
84615.5
84363.8
84160.9
84024.5
83963
84064.7
84085.4
84189.2
84310.3
84469.4
84613.8
84780.3
84871.7
84918.3
84905
84888.3
84884
84954.2
85160.3
85477
85865.2
86383.3
86957.3
87543.7
103751
103753
103753
103751
103746
103737
103726
103711
103693
103670
103644
103614
103582
103549
103515
103480
103444
103405
103365
103321
103273
103221
103166
103106
103044
102979
102909
102836
102759
102678
102592
102504
102410
102313
102212
102108
102001
101890
101776
101659
101537
101411
101281
101147
101009
100867
100721
100572
100421
100269
100113
99953.5
99791.6
99626.9
99460.1
99289.7
99113.6
98931.7
98746.9
98564.3
98384.4
98204
98020.1
97829.9
97632.4
97429.7
97221.1
97006.8
96789.4
96570.8
96352.7
96135.8
95919.1
95701.2
95483.9
95268.5
95056
94849
94647.9
94453.1
94264.1
94083.6
93911.4
93746.1
93591
93446.8
93314.4
93192
93081.6
92985.5
92902.7
92834
92779.2
92740.5
92718.5
92709.3
92717.7
92743.1
92785.5
92843
92910.8
93000.4
93096.1
93216.9
93349.1
93492.7
93643.2
93797.3
93952.6
94104.8
94256.3
94398.5
94536.1
94663.2
94780.1
94889.8
94985.1
95065.4
95143.1
95203.1
95241.4
95276.7
95296.7
95288
95270.7
95251.2
95201.6
95125.4
95029.3
94909.1
94767
94589.8
94391.8
94174.2
93925.1
93648
93329.2
92942.4
92540.2
92170
91803.3
91430.7
91043.6
90669.7
90271.8
89851.9
89433.3
89011.1
88575.7
88108.5
87651.1
87185.8
86734.5
86302.9
85882.6
85516.3
85182.5
84929.8
84760.4
84650.2
84609.8
84740
84760.7
84919.9
85043.6
85224.3
85371
85558.6
85691.6
85757.2
85785.6
85788.6
85803.5
85897.8
86123.9
86454.2
86862.1
87404.3
87991.8
88577.2
103143
103146
103149
103150
103150
103146
103141
103133
103122
103108
103092
103073
103052
103029
103007
102985
102964
102943
102920
102895
102869
102838
102799
102759
102719
102674
102625
102572
102516
102458
102396
102331
102262
102188
102112
102032
101949
101863
101775
101684
101588
101489
101384
101275
101161
101044
100923
100799
100672
100544
100412
100278
100141
100001
99857.3
99710.9
99561.2
99405.7
99243
99077.9
98914.5
98752.8
98590.2
98423.1
98248.9
98067.8
97880
97685
97486.1
97285.5
97084.8
96884.7
96684.4
96483.3
96282
96082.2
95885
95691.9
95503.9
95321.7
95143.7
94970.9
94805.2
94646.6
94498.2
94359.8
94232.6
94115.4
94008.4
93914.7
93833.7
93766.9
93713.5
93673.5
93649.4
93638.9
93644.4
93666.2
93705.6
93758.1
93819.1
93902.9
94001.5
94114.2
94239
94374.8
94516.5
94661.2
94808.4
94951.9
95095.1
95229.2
95357.3
95477.5
95588.8
95689
95778.4
95851.2
95917.5
95967.3
95996.7
96019.7
96025.2
96007.3
95977
95938.7
95872.8
95784.3
95677.3
95539.5
95377.6
95181.8
94969.3
94748.3
94501.8
94220.7
93889
93504.1
93114.4
92737.1
92371.1
92016
91654.9
91285.3
90889.5
90475.8
90060.7
89649.9
89230.7
88766.9
88309.6
87853
87389.6
86937.4
86536.1
86162.4
85834.3
85596.8
85457.6
85387.5
85379.9
85475.8
85496.9
85722.9
85848.5
86053.7
86211.7
86405.1
86583.4
86672
86745.4
86771.5
86811.3
86931.3
87163.1
87518.1
87943.8
88514.2
89104.1
89672.1
102536
102540
102543
102548
102552
102556
102559
102560
102558
102554
102547
102539
102529
102520
102509
102500
102491
102483
102478
102473
102465
102454
102438
102417
102394
102369
102339
102304
102269
102232
102193
102153
102108
102058
102005
101948
101888
101826
101762
101695
101624
101549
101470
101385
101296
101203
101107
101007
100905
100800
100693
100583
100471
100355
100236
100113
99986.5
99857.7
99722.2
99579.9
99435.7
99293.1
99151
99005.8
98854.7
98696.2
98531.1
98358
98179.5
97998.5
97816.5
97634.9
97452.6
97270.8
97088.6
96906.7
96726.2
96547.9
96373.6
96203.9
96037.7
95874.6
95718.5
95569.9
95430
95299.9
95179.9
95068.6
94966.5
94876
94797.8
94733.2
94681.1
94643.4
94619.2
94607.1
94613.1
94633.5
94668.6
94716.3
94778
94857
94954
95062.6
95180.8
95308.4
95442.1
95578.1
95716.2
95850.5
95983.2
96110.1
96230.1
96344.2
96446.4
96539.4
96621.9
96687.2
96742.3
96782.6
96802.6
96811.3
96802.8
96775.5
96728.8
96671.5
96589.2
96485.8
96358.8
96207.1
96032
95824.2
95598.9
95371.2
95121.1
94839.7
94500.1
94120.5
93746
93366.7
92999
92649.9
92305.1
91948
91575
91179.5
90772.7
90367.6
89956.1
89501.3
89027.1
88565.7
88068.4
87634.7
87265.4
86892.3
86597.3
86388.5
86269.4
86244.1
86240
86254.9
86291.9
86542.5
86695.3
86943.4
87134.5
87330
87538.3
87678.8
87782.1
87842.4
87920.2
88049
88276
88657.3
89109.5
89698.6
90282.9
90825.8
101928
101934
101941
101949
101958
101969
101981
101993
102003
102011
102016
102021
102025
102029
102033
102038
102043
102049
102055
102065
102075
102081
102085
102082
102077
102066
102052
102036
102018
102001
101984
101966
101946
101921
101891
101857
101819
101778
101736
101692
101645
101593
101537
101476
101411
101341
101269
101193
101114
101033
100949
100864
100775
100683
100588
100488
100385
100280
100172
100057
99936
99814
99692.6
99569.3
99440.9
99306.1
99164.2
99014.3
98857.9
98698.1
98536.3
98374.5
98212.3
98050.8
97889.1
97726.4
97563.4
97402
97243.6
97087.5
96934.8
96785.3
96641.3
96504.2
96373.5
96251.4
96139.3
96035.7
95940.7
95855.3
95781.4
95721.7
95672.9
95637.2
95617.7
95608
95611.9
95631.5
95670.7
95711.8
95774.7
95852.5
95945.8
96048.9
96160.8
96281.8
96408.2
96535.8
96664.9
96790.9
96914.6
97034.4
97146.3
97256.2
97351.2
97437.4
97510.2
97569.1
97613.8
97644.5
97655.3
97649.8
97628.7
97589.8
97526.1
97450.3
97351
97230.8
97083.6
96920.8
96733.3
96516.1
96278.7
96042
95784.9
95503.9
95172.4
94802.4
94427.2
94053.8
93687.7
93334.5
92990.1
92659.7
92333.7
91962.3
91563.9
91161.6
90752.3
90313.5
89827.2
89309.3
88834.4
88459.5
88114.2
87766.8
87486.8
87297.6
87210.1
87193.7
87166.7
87136.7
87204.1
87410.9
87608.6
87890
88125.5
88341
88558.9
88764.6
88890.8
88997.6
89138.3
89269.5
89495.7
89884
90359.9
90957.7
91527.9
92033.9
101326
101335
101345
101358
101374
101392
101413
101435
101458
101480
101500
101520
101539
101559
101578
101599
101620
101643
101667
101686
101705
101722
101736
101749
101757
101762
101763
101763
101766
101770
101769
101770
101773
101773
101767
101755
101739
101719
101697
101673
101647
101617
101583
101544
101501
101454
101405
101352
101296
101238
101177
101114
101049
100980
100907
100830
100750
100668
100586
100498
100403
100305
100205
100104
99998.3
99887.2
99769.8
99643.5
99510.1
99372.6
99233.1
99092.7
98952.8
98812.5
98671.7
98528.7
98385.4
98243
98101.6
97960.8
97823.2
97689.1
97559.3
97434.6
97315.2
97202.8
97100.2
97006.8
96921.6
96845
96778.4
96722.9
96679.7
96648.9
96631.1
96623.9
96630.2
96650.8
96686.5
96733.5
96795.7
96871.8
96961.6
97060.7
97167.9
97283.4
97403.9
97523.6
97644.3
97763.4
97880.2
97994.8
98101.5
98206.4
98296.1
98376.4
98439.2
98491
98525.7
98546.7
98549.8
98532.5
98499.6
98446.5
98366.7
98273.9
98160.1
98019.7
97857.9
97681.3
97479.4
97253.5
97007.1
96760.4
96495.7
96213.2
95899.5
95541.3
95160.8
94798.4
94438.6
94080.9
93732.8
93420.1
93130.1
92790.8
92412
92016.6
91614.6
91194.6
90726.1
90169.8
89723.4
89423
89079.1
88773.2
88489
88325.7
88250.1
88194
88163.5
88140.8
88249.9
88415.1
88633.4
88908.1
89179.2
89427.2
89653.7
89894.8
90069.5
90236.1
90444.6
90598.5
90845.8
91211
91703
92302.2
92834.1
93286.7
100730
100742
100756
100775
100799
100826
100857
100891
100926
100962
100998
101034
101069
101104
101139
101173
101208
101242
101276
101308
101340
101370
101400
101432
101459
101482
101501
101516
101528
101541
101561
101583
101606
101624
101637
101644
101647
101646
101642
101637
101630
101620
101606
101588
101566
101540
101512
101481
101448
101411
101373
101331
101287
101240
101188
101133
101076
101016
100957
100895
100828
100755
100679
100600
100517
100429
100336
100235
100124
100011
99894.7
99777
99659.8
99542
99422
99299.3
99175.5
99052.2
98929.1
98805.5
98684.4
98567.5
98453.9
98344.5
98239.9
98142
98051.4
97969.4
97896
97829.8
97773
97725.5
97685.4
97658.7
97644.9
97641.9
97651.3
97675.1
97712
97761.5
97824.5
97900.6
97987.6
98083.6
98187.4
98299.5
98414.7
98528.5
98643.5
98757.2
98870.8
98982.6
99087.9
99186.6
99272.7
99345
99400.9
99445.1
99473.8
99485.4
99481.8
99453.2
99408
99339.2
99245.9
99136.4
99009.1
98850.5
98677.5
98485.8
98269.9
98034.1
97784.7
97527.7
97254
96967.8
96669
96326.7
95960.1
95604.3
95251.1
94894.6
94548.6
94238.1
93961.8
93651
93303.5
92925.2
92541.4
92141.5
91706
91182.1
90735.2
90430.9
90114.3
89843.6
89609.6
89463
89341.1
89243.7
89256.9
89260.2
89407.6
89556.8
89766.6
90011.7
90319.2
90580.3
90834.1
91084.7
91325.6
91557.8
91812
92017.5
92298.5
92632.9
93145.4
93730.3
94190.5
94575.6
100242
100252
100268
100292
100324
100360
100401
100445
100492
100540
100589
100638
100686
100734
100780
100827
100873
100918
100963
101007
101051
101093
101135
101176
101215
101253
101290
101325
101359
101390
101418
101448
101474
101500
101523
101542
101559
101572
101584
101593
101599
101604
101605
101603
101598
101590
101579
101565
101550
101531
101510
101487
101460
101431
101396
101359
101320
101280
101241