/*--------------------------------*- C++ -*----------------------------------*\
| =========                 |                                                 |
| \\      /  F ield         | OpenFOAM: The Open Source CFD Toolbox           |
|  \\    /   O peration     | Version:  dev                                   |
|   \\  /    A nd           | Web:      http://www.openfoam.org               |
|    \\/     M anipulation  |                                                 |
\*---------------------------------------------------------------------------*/
FoamFile
{
    version     2.0;
    format      ascii;
    class       volScalarField;
    object      pMean;
    location    "9.149";
}
// * * * * * * * * * * * * * * * * * * * * * * * * * * * * * * * * * * * * * //

dimensions      [1 -1 -2 0 0 0 0];

internalField   nonuniform List<scalar> 
12225
(
98311.4
98291.7
98277.9
98270.9
98256.6
98247.2
98228.7
98219.2
98197.7
98188.9
98164.2
98157.4
98126.4
98120.1
98079.3
98039.6
97950.4
97584.3
98306.9
98290.6
98277.3
98270.4
98256
98246.6
98228.1
98218.6
98197
98188.5
98163.5
98156.9
98126
98118.1
98077.5
98043.6
97951.3
97790.2
98303.2
98289
98276.3
98269
98254.6
98245.2
98226.6
98217.3
98195.5
98187
98162.7
98154.8
98126.6
98114.8
98079.8
98044.6
97977.2
97888.3
98298.1
98286.1
98274.2
98266.5
98252.2
98242.5
98224.5
98214.6
98193.8
98184.3
98161.3
98151.7
98125.5
98112.5
98080.8
98053
98004.5
97935.6
98291.5
98281.7
98270.7
98262.5
98248.6
98238.3
98221.4
98210.4
98191.4
98180
98159.8
98147.2
98125.7
98109.3
98082.7
98058.5
98018.6
97985.9
98283.2
98275.5
98264.7
98256.5
98243
98232.4
98216.3
98204.7
98186.9
98174.8
98156.6
98143
98124.6
98107.6
98086.3
98061
98038.8
98018.4
98272.9
98266.6
98256.2
98247.8
98235.1
98224
98209.2
98196.6
98180.9
98167.4
98152
98136.9
98122.4
98104.8
98090.5
98069.5
98059.1
98044.2
98262.2
98256.5
98246.9
98238.2
98226.5
98214.9
98201.4
98188.2
98174.2
98159.8
98146.7
98131.1
98119.5
98102.2
98093.5
98075.6
98073.9
98059
98251.4
98245.9
98237.1
98228.2
98217.3
98205.6
98193
98179.5
98166.9
98152.3
98140.9
98125.4
98115.7
98099.7
98093.4
98079.2
98078.9
98067
98237.7
98232.3
98224.6
98215.6
98205.7
98193.9
98182.3
98168.9
98157.6
98143
98133.1
98118.1
98109.9
98095.5
98090.6
98078.8
98078
98069.7
98220.8
98215.3
98208.8
98200
98190.9
98179.4
98168.6
98155.7
98145.2
98131.6
98122.2
98109.1
98101
98089.5
98083.9
98075.3
98072.7
98067.5
98200.3
98194.6
98189.3
98180.9
98172.5
98161.5
98151.6
98139.3
98129.7
98117.1
98108.5
98097
98089.4
98080.1
98074.4
98068
98064.4
98060.8
98175.5
98170.2
98165.7
98158.1
98150.2
98140.2
98130.8
98119.9
98110.7
98100
98091.6
98082.3
98075
98067.8
98062.4
98057.5
98053.9
98051.2
98147.3
98142.5
98138.5
98131.9
98124.7
98115.8
98107.1
98097.6
98089.1
98080.1
98072.4
98064.8
98058.4
98052.7
98048
98044.2
98041.2
98039.1
98117.1
98113.4
98109.6
98104.2
98097.7
98090.1
98082.3
98074.2
98066.6
98059.1
98052.4
98046.3
98041
98036.5
98032.7
98029.8
98027.6
98026.1
98089.4
98086.7
98083.3
98078.8
98073.2
98066.7
98059.9
98053
98046.4
98040.2
98034.6
98029.7
98025.4
98021.8
98018.9
98016.8
98015.2
98014.3
98070.8
98068.9
98066.1
98062.2
98057.3
98051.6
98045.6
98039.7
98034
98028.8
98024
98019.8
98016.3
98013.3
98011
98009.4
98008.2
98007.6
98071.1
98069.4
98066.9
98063.1
98058.4
98053.1
98047.5
98041.9
98036.6
98031.6
98027.1
98023.2
98019.8
98017
98014.8
98013.1
98011.9
98011.2
98090.8
98089
98086.1
98082.1
98077.2
98071.7
98065.9
98060.1
98054.5
98049.3
98044.5
98040.2
98036.5
98033.3
98030.6
98028.5
98026.8
98025.5
98121.6
98119.4
98116
98111.5
98106.1
98100
98093.7
98087.4
98081.2
98075.4
98070
98065
98060.6
98056.8
98053.4
98050.6
98048.2
98046.3
98156.4
98153.8
98149.7
98144.6
98138.5
98131.8
98124.9
98117.9
98111
98104.5
98098.4
98092.7
98087.6
98082.9
98078.8
98075.2
98072.1
98069.4
98190.3
98187.2
98182.4
98176.6
98169.9
98162.6
98155.1
98147.5
98140
98132.8
98126
98119.6
98113.7
98108.4
98103.6
98099.2
98095.4
98092
98220.5
98216.8
98211.3
98204.8
98197.6
98189.8
98181.8
98173.7
98165.6
98157.9
98150.5
98143.5
98137
98131
98125.6
98120.6
98116.1
98112.1
98245.8
98241.5
98235.2
98228
98220.3
98212.2
98203.8
98195.3
98186.9
98178.7
98170.8
98163.3
98156.3
98149.8
98143.9
98138.4
98133.4
98128.9
98266.1
98260.9
98253.7
98246
98238
98229.7
98221
98212.2
98203.5
98194.9
98186.7
98178.8
98171.5
98164.6
98158.2
98152.4
98147
98142.1
98281.7
98275.4
98267.3
98259.2
98251
98242.5
98233.7
98224.7
98215.8
98206.9
98198.4
98190.3
98182.7
98175.5
98168.9
98162.7
98157.1
98151.9
98293.5
98285.7
98276.6
98268.1
98259.8
98251.3
98242.4
98233.4
98224.3
98215.3
98206.6
98198.3
98190.5
98183.1
98176.3
98169.9
98164.1
98158.7
98302.2
98292.4
98282.3
98273.7
98265.4
98256.9
98248.1
98238.9
98229.8
98220.7
98211.9
98203.5
98195.6
98188.1
98181.1
98174.6
98168.7
98163.1
98308.3
98296.2
98285.1
98276.5
98268.4
98260
98251.3
98242.2
98232.9
98223.8
98215
98206.5
98198.4
98190.9
98183.9
98177.3
98171.3
98165.6
98314.3
98298.7
98286.7
98277.8
98269.6
98261.3
98252.5
98243.4
98234.2
98225.1
98216.2
98207.7
98199.7
98192.1
98185
98178.4
98172.4
98166.8
98311.3
98311
98310.2
98309
98307.5
98305.7
98303.5
98300.8
98297.8
98294.4
98290.5
98286.2
98281.6
98276.7
98271.5
98266
98260.3
98254.4
98248.3
98242
98235.6
98229
98222.3
98215.5
98208.6
98201.7
98194.6
98187.6
98180.5
98173.4
98166.3
98159.2
98152.2
98145.2
98138.4
98131.6
98125
98118.5
98112.2
98106
98100.1
98094.4
98089
98083.8
98079
98074.5
98070.4
98066.7
98063.4
98060.6
98058.2
98056.3
98054.9
98054
98053.8
98054.1
98055.1
98056.7
98059
98061.9
98065.6
98070
98075.1
98080.9
98087.4
98094.7
98102.6
98111.3
98120.6
98130.6
98141.2
98152.4
98164.1
98176.4
98189.2
98202.4
98216
98230
98244.3
98258.9
98273.8
98288.8
98303.9
98319.1
98334.4
98349.7
98364.9
98380
98394.9
98409.6
98424
98438.2
98452
98465.3
98478.2
98490.7
98502.6
98513.9
98524.7
98534.8
98544.3
98553.2
98561.4
98569
98575.9
98582.3
98588
98593.1
98597.7
98601.8
98605.5
98608.7
98611.6
98614
98616.2
98618.1
98619.8
98621.2
98622.5
98623.6
98624.7
98625.7
98626.9
98628.2
98629.8
98631.8
98634.5
98637.9
98642.3
98647.9
98655
98663.7
98674.5
98687.3
98702.7
98720.7
98741.6
98765.3
98792.2
98822
98855
98890.9
98929.8
98971.3
99015.6
99062.2
99111.2
99161.9
99214.5
99268.7
99324.2
99380.6
99437.6
99494.9
99552.1
99608.7
99664.1
99717.9
99768.8
99816.7
99860.1
99898.5
99930.4
99955.5
99972.2
99979.7
99977
99964
99939.9
99905.2
99859.7
99805
99741
99670.3
99593.2
99512.7
99428.2
99343.5
99256.7
99173.5
98304.4
98304
98303.2
98302.1
98300.5
98298.7
98296.4
98293.8
98290.8
98287.4
98283.6
98279.5
98275
98270.2
98265.1
98259.8
98254.3
98248.6
98242.6
98236.6
98230.3
98223.9
98217.4
98210.8
98204
98197.2
98190.4
98183.5
98176.5
98169.6
98162.6
98155.7
98148.8
98142.1
98135.3
98128.7
98122.2
98115.9
98109.7
98103.7
98097.9
98092.3
98087
98081.9
98077.2
98072.8
98068.7
98065.1
98061.8
98059
98056.6
98054.7
98053.3
98052.4
98052.1
98052.4
98053.3
98054.8
98057.1
98059.9
98063.5
98067.8
98072.8
98078.5
98084.9
98092
98099.8
98108.3
98117.4
98127.2
98137.6
98148.6
98160.2
98172.2
98184.8
98197.8
98211.2
98225
98239
98253.4
98268
98282.7
98297.6
98312.6
98327.6
98342.6
98357.5
98372.3
98386.9
98401.3
98415.5
98429.3
98442.8
98455.9
98468.5
98480.7
98492.3
98503.4
98513.9
98523.8
98533.1
98541.7
98549.7
98557.1
98563.9
98570
98575.6
98580.6
98585.1
98589.1
98592.7
98595.8
98598.6
98601
98603.1
98604.9
98606.5
98607.9
98609.1
98610.2
98611.1
98612.1
98613.2
98614.3
98615.8
98617.6
98620
98623.2
98627.3
98632.6
98639.3
98647.5
98657.8
98670.1
98684.8
98702.2
98722.3
98745.3
98771.3
98800.2
98832.3
98867.2
98905
98945.4
98988.7
99034.1
99081.9
99131.4
99182.9
99235.9
99290.2
99345.5
99401.4
99457.7
99513.8
99569.5
99623.9
99676.9
99727.1
99774.4
99817.4
99855.5
99887.3
99912.5
99929.6
99937.6
99935.8
99923.8
99901.1
99867.8
99824
99771
99708.8
99639.8
99564.6
99485.8
99402.8
99319.7
99233.9
99148.9
98291.7
98291.3
98290.5
98289.3
98287.7
98285.8
98283.5
98280.8
98277.8
98274.4
98270.7
98266.7
98262.3
98257.7
98252.9
98247.9
98242.6
98237.2
98231.6
98225.9
98220.1
98214
98207.9
98201.7
98195.3
98188.8
98182.3
98175.7
98169.1
98162.4
98155.7
98149.1
98142.5
98136
98129.5
98123.1
98116.8
98110.7
98104.8
98099
98093.4
98088
98082.8
98077.9
98073.3
98069
98065.1
98061.5
98058.3
98055.5
98053.1
98051.2
98049.8
98048.8
98048.5
98048.7
98049.5
98050.9
98053
98055.7
98059.1
98063.1
98067.9
98073.3
98079.5
98086.3
98093.8
98102
98110.8
98120.3
98130.4
98141
98152.2
98163.9
98176
98188.6
98201.6
98214.9
98228.5
98242.4
98256.5
98270.8
98285.2
98299.7
98314.2
98328.7
98343.1
98357.3
98371.4
98385.3
98398.9
98412.2
98425.1
98437.6
98449.7
98461.3
98472.4
98482.9
98492.9
98502.3
98511.2
98519.4
98527
98534
98540.4
98546.3
98551.6
98556.3
98560.6
98564.4
98567.7
98570.7
98573.3
98575.6
98577.6
98579.3
98580.8
98582
98583
98583.9
98584.8
98585.5
98586.3
98587.1
98588.2
98589.7
98591.6
98594.2
98597.7
98602.2
98608.1
98615.5
98624.7
98635.9
98649.4
98665.4
98684
98705.4
98729.7
98756.9
98787
98819.9
98855.6
98893.9
98934.9
98978
99023.4
99070.7
99119.7
99170.4
99222.4
99275.3
99329
99383.1
99437.1
99490.7
99543.3
99594.5
99643.2
99689
99731
99768.2
99799.6
99824.7
99842.1
99850.9
99850.4
99840.2
99819.8
99789.2
99748.5
99698.8
99640.2
99575
99503.3
99428.1
99348.5
99268.6
99185.6
99101.7
98274.2
98273.9
98273.1
98271.9
98270.3
98268.3
98266
98263.3
98260.3
98257
98253.4
98249.5
98245.4
98241
98236.5
98231.7
98226.8
98221.8
98216.7
98211.4
98206
98200.4
98194.8
98189
98183.1
98177.1
98171
98164.9
98158.8
98152.6
98146.4
98140.2
98134
98127.8
98121.8
98115.7
98109.8
98104
98098.4
98092.9
98087.5
98082.3
98077.4
98072.7
98068.3
98064.1
98060.3
98056.8
98053.7
98050.9
98048.6
98046.7
98045.2
98044.2
98043.7
98043.8
98044.5
98045.7
98047.6
98050.1
98053.2
98057
98061.4
98066.5
98072.3
98078.7
98085.8
98093.6
98101.9
98110.9
98120.5
98130.6
98141.3
98152.4
98164
98176
98188.4
98201.1
98214.1
98227.3
98240.8
98254.4
98268.1
98281.9
98295.7
98309.4
98323.1
98336.6
98350
98363.1
98375.9
98388.4
98400.6
98412.4
98423.7
98434.5
98444.8
98454.7
98464
98472.7
98480.9
98488.5
98495.5
98502
98508
98513.3
98518.2
98522.6
98526.5
98530
98533.1
98535.8
98538.2
98540.3
98542.1
98543.6
98544.9
98545.9
98546.8
98547.5
98548
98548.4
98548.8
98549.2
98549.8
98550.6
98551.9
98553.7
98556.2
98559.7
98564.5
98570.5
98578.3
98588
98599.7
98613.8
98630.4
98649.6
98671.6
98696.2
98723.7
98753.8
98786.6
98821.9
98859.8
98899.9
98942.1
98986.2
99032
99079.5
99128.3
99178.1
99228.8
99280
99331.1
99382
99431.9
99480.7
99527.3
99571.2
99611.5
99647.5
99678
99702.7
99720.4
99730
99730.9
99722.8
99705
99677.8
99640.9
99595.5
99541.5
99481.2
99414.3
99343.9
99269.1
99193.6
99114.9
99034.8
98253
98252.8
98252
98250.9
98249.4
98247.4
98245.2
98242.6
98239.6
98236.4
98232.9
98229.2
98225.3
98221.2
98216.9
98212.5
98208
98203.3
98198.6
98193.8
98188.8
98183.8
98178.6
98173.4
98168
98162.6
98157.1
98151.5
98146
98140.3
98134.7
98129.1
98123.4
98117.8
98112.2
98106.7
98101.3
98095.9
98090.7
98085.5
98080.5
98075.7
98071
98066.6
98062.4
98058.4
98054.8
98051.4
98048.4
98045.7
98043.4
98041.5
98040
98038.9
98038.3
98038.3
98038.7
98039.8
98041.4
98043.6
98046.3
98049.7
98053.8
98058.4
98063.7
98069.6
98076.2
98083.4
98091.2
98099.6
98108.5
98118
98128
98138.5
98149.4
98160.6
98172.2
98184.2
98196.3
98208.8
98221.4
98234.1
98246.9
98259.8
98272.7
98285.5
98298.3
98310.9
98323.3
98335.5
98347.4
98359
98370.2
98381
98391.4
98401.3
98410.8
98419.7
98428.1
98436.1
98443.4
98450.3
98456.6
98462.5
98467.8
98472.6
98476.9
98480.9
98484.3
98487.4
98490.2
98492.6
98494.7
98496.6
98498.1
98499.3
98500.4
98501.1
98501.7
98502
98502.2
98502.2
98502.1
98501.9
98501.9
98502
98502.4
98503.2
98504.6
98506.9
98510.2
98514.7
98520.7
98528.4
98538.1
98549.9
98564
98580.6
98599.6
98621.3
98645.6
98672.3
98701.6
98733.4
98767.6
98803.9
98842.3
98882.6
98924.6
98968.3
99013.3
99059.4
99106.4
99154
99201.7
99249.2
99296
99341.7
99385.7
99427.2
99465.5
99499.9
99529.3
99553.3
99571
99581.2
99583.5
99577.5
99562.8
99539.3
99506.9
99466.4
99417.8
99363.2
99302.1
99237.7
99168.6
99098.8
99025.5
98950.8
98229.6
98229.4
98228.8
98227.7
98226.3
98224.5
98222.4
98219.9
98217.2
98214.1
98210.8
98207.3
98203.6
98199.8
98195.8
98191.7
98187.5
98183.2
98178.9
98174.5
98170
98165.4
98160.7
98156
98151.2
98146.3
98141.4
98136.5
98131.5
98126.5
98121.4
98116.4
98111.4
98106.3
98101.3
98096.4
98091.5
98086.7
98081.9
98077.2
98072.7
98068.2
98063.9
98059.8
98055.9
98052.2
98048.7
98045.5
98042.6
98040
98037.8
98035.9
98034.3
98033.2
98032.5
98032.3
98032.5
98033.3
98034.6
98036.5
98038.9
98041.8
98045.4
98049.5
98054.3
98059.6
98065.6
98072.1
98079.3
98087
98095.2
98103.9
98113.1
98122.7
98132.8
98143.2
98153.9
98164.9
98176.2
98187.6
98199.2
98211
98222.8
98234.6
98246.4
98258.2
98269.9
98281.4
98292.7
98303.8
98314.7
98325.2
98335.3
98345.1
98354.4
98363.3
98371.8
98379.7
98387.2
98394.2
98400.7
98406.7
98412.2
98417.3
98421.9
98426.1
98429.8
98433.2
98436.2
98438.8
98441.1
98443.2
98444.9
98446.4
98447.6
98448.5
98449.2
98449.6
98449.8
98449.7
98449.4
98448.9
98448.3
98447.5
98446.7
98445.9
98445.4
98445
98445.2
98446
98447.7
98450.5
98454.5
98460
98467.3
98476.5
98487.8
98501.4
98517.3
98535.5
98556.3
98579.4
98604.8
98632.6
98662.7
98694.9
98729.1
98765.2
98803
98842.5
98883.4
98925.4
98968.2
99011.8
99055.6
99099.4
99142.7
99185.1
99225.9
99264.8
99300.7
99333.1
99361
99384.1
99401.5
99412.1
99415.7
99411.9
99400.1
99380.6
99352.7
99317.5
99274.7
99226.2
99171.4
99113.7
99051.2
98987.8
98920.9
98852.9
98205.2
98205
98204.5
98203.5
98202.3
98200.7
98198.7
98196.5
98193.9
98191.1
98188.1
98184.9
98181.5
98177.9
98174.3
98170.5
98166.7
98162.7
98158.8
98154.7
98150.6
98146.5
98142.3
98138
98133.8
98129.4
98125.1
98120.7
98116.3
98111.9
98107.4
98103
98098.5
98094.1
98089.7
98085.3
98081
98076.7
98072.4
98068.3
98064.1
98060.1
98056.2
98052.4
98048.8
98045.4
98042.2
98039.2
98036.4
98033.9
98031.7
98029.8
98028.3
98027.1
98026.2
98025.8
98025.9
98026.4
98027.4
98028.9
98030.9
98033.4
98036.5
98040.1
98044.2
98048.9
98054.2
98060.1
98066.5
98073.4
98080.8
98088.6
98097
98105.7
98114.8
98124.3
98134
98144
98154.2
98164.6
98175.1
98185.8
98196.5
98207.2
98217.8
98228.4
98238.9
98249.3
98259.4
98269.3
98279
98288.3
98297.3
98305.9
98314.1
98321.9
98329.2
98336.1
98342.6
98348.6
98354.2
98359.3
98364
98368.2
98372.1
98375.5
98378.6
98381.3
98383.8
98385.9
98387.8
98389.3
98390.6
98391.7
98392.5
98393
98393.3
98393.3
98393
98392.5
98391.7
98390.6
98389.3
98387.8
98386.2
98384.4
98382.8
98381.2
98380
98379.2
98379.2
98380.1
98382
98385.2
98389.9
98396.4
98404.8
98415.2
98427.7
98442.4
98459.4
98478.6
98500
98523.7
98549.4
98577.3
98607.1
98638.9
98672.3
98707.4
98743.9
98781.6
98820.1
98859.5
98899.2
98939.1
98978.7
99017.4
99054.8
99090.5
99123.8
99153.9
99179.9
99201.8
99218.5
99229.4
99234
99232.3
99223.3
99207.5
99184
99154.1
99117
99074.8
99026.8
98976
98920.4
98864.2
98804.3
98743.5
98181
98180.9
98180.5
98179.7
98178.6
98177.2
98175.5
98173.5
98171.3
98168.8
98166
98163.1
98160
98156.8
98153.5
98150.1
98146.5
98143
98139.4
98135.7
98132
98128.2
98124.5
98120.7
98116.9
98113.1
98109.2
98105.4
98101.5
98097.6
98093.7
98089.8
98085.9
98082
98078.2
98074.3
98070.5
98066.7
98062.9
98059.2
98055.5
98051.8
98048.3
98044.9
98041.5
98038.4
98035.4
98032.6
98030
98027.6
98025.4
98023.5
98021.9
98020.7
98019.7
98019.2
98019
98019.3
98019.9
98021
98022.6
98024.7
98027.2
98030.3
98033.8
98037.9
98042.5
98047.6
98053.2
98059.3
98065.9
98072.9
98080.3
98088.1
98096.2
98104.7
98113.4
98122.4
98131.5
98140.8
98150.2
98159.7
98169.2
98178.7
98188.1
98197.5
98206.8
98215.9
98224.7
98233.4
98241.8
98249.9
98257.7
98265.1
98272.1
98278.7
98284.9
98290.8
98296.2
98301.2
98305.8
98310
98313.8
98317.2
98320.2
98322.9
98325.3
98327.4
98329.2
98330.8
98332.1
98333.2
98334
98334.5
98334.8
98334.9
98334.7
98334.2
98333.5
98332.4
98331
98329.3
98327.3
98325
98322.4
98319.7
98316.9
98314
98311.4
98309
98307.2
98306.1
98305.8
98306.7
98308.8
98312.5
98317.9
98325.1
98334.2
98345.3
98358.5
98373.8
98391.3
98410.7
98432.2
98455.7
98481.1
98508.5
98537.6
98568.2
98600.2
98633.6
98667.7
98702.8
98738.4
98774.4
98810
98844.9
98878.8
98911.1
98941.4
98968.9
98992.7
99012.9
99028.6
99039.4
99044.8
99044.7
99038.1
99025.7
99006.2
98981.3
98949.8
98913.9
98872.6
98828.8
98780.3
98731.5
98678.8
98625.6
98158.1
98158.1
98157.8
98157.2
98156.3
98155.1
98153.6
98151.9
98149.9
98147.7
98145.3
98142.8
98140
98137.1
98134.2
98131.1
98127.9
98124.7
98121.5
98118.2
98114.9
98111.5
98108.2
98104.8
98101.5
98098.1
98094.7
98091.3
98087.9
98084.5
98081
98077.6
98074.2
98070.8
98067.4
98064
98060.6
98057.2
98053.9
98050.5
98047.2
98043.9
98040.7
98037.5
98034.5
98031.5
98028.8
98026.1
98023.6
98021.3
98019.2
98017.3
98015.7
98014.3
98013.2
98012.5
98012.1
98012.1
98012.4
98013.2
98014.4
98016
98018
98020.6
98023.5
98027
98030.9
98035.3
98040.1
98045.4
98051.1
98057.2
98063.7
98070.6
98077.8
98085.2
98092.9
98100.8
98108.8
98117
98125.3
98133.6
98141.9
98150.2
98158.4
98166.6
98174.6
98182.4
98190
98197.4
98204.5
98211.4
98217.9
98224.1
98229.9
98235.4
98240.5
98245.2
98249.5
98253.4
98257.1
98260.3
98263.2
98265.8
98268
98270
98271.6
98273
98274.2
98275.1
98275.9
98276.4
98276.7
98276.7
98276.4
98276
98275.2
98274.2
98272.8
98271.2
98269.1
98266.7
98263.9
98260.7
98257.2
98253.4
98249.4
98245.3
98241.3
98237.4
98233.8
98230.7
98228.3
98226.8
98226.4
98227.4
98229.8
98233.9
98239.6
98247.2
98256.7
98268.2
98281.8
98297.3
98314.6
98333.9
98355
98378.2
98402.9
98429.2
98456.9
98485.9
98515.9
98546.8
98578.2
98610.2
98641.8
98672.9
98703
98731.9
98758.8
98783.6
98804.9
98823.1
98837.4
98847.6
98853.2
98854.2
98849.6
98839.9
98824.2
98803.7
98777.4
98747.4
98712.6
98675.7
98634.2
98592.7
98547.3
98502.1
98137.5
98137.6
98137.3
98136.8
98136.1
98135.1
98133.9
98132.5
98130.8
98129
98126.9
98124.7
98122.3
98119.8
98117.1
98114.4
98111.6
98108.8
98105.9
98103
98100.1
98097.2
98094.2
98091.2
98088.3
98085.3
98082.3
98079.3
98076.3
98073.2
98070.2
98067.2
98064.2
98061.1
98058.1
98055.1
98052
98049
98046
98042.9
98039.9
98036.9
98033.9
98031
98028.1
98025.4
98022.7
98020.2
98017.7
98015.5
98013.4
98011.4
98009.8
98008.3
98007.1
98006.2
98005.6
98005.3
98005.4
98005.8
98006.6
98007.8
98009.3
98011.3
98013.8
98016.6
98019.9
98023.6
98027.7
98032.2
98037.1
98042.4
98048
98054
98060.2
98066.7
98073.4
98080.2
98087.2
98094.3
98101.4
98108.6
98115.8
98122.9
98129.9
98136.8
98143.6
98150.1
98156.5
98162.7
98168.5
98174.1
98179.5
98184.4
98189.1
98193.3
98197.3
98200.8
98204.1
98207
98209.6
98211.9
98213.9
98215.6
98217
98218.2
98219.1
98219.8
98220.3
98220.6
98220.7
98220.6
98220.2
98219.7
98218.9
98217.8
98216.4
98214.8
98212.7
98210.4
98207.6
98204.5
98200.8
98196.8
98192.3
98187.4
98182.3
98177
98171.6
98166.2
98160.9
98156
98151.5
98147.8
98145
98143.3
98142.9
98144
98146.5
98150.8
98156.8
98164.8
98174.6
98186.3
98199.8
98215.2
98232.3
98251.5
98272.2
98294.4
98317.9
98342.8
98368.6
98395.4
98422.9
98450.8
98478.4
98505.7
98532.1
98557.3
98580.9
98602.6
98621.3
98637.1
98649.6
98658.7
98663.9
98665.3
98662
98654.5
98641.9
98625.4
98603.6
98579.2
98550.5
98520
98485.3
98450.9
98412.7
98375.2
98119.6
98119.8
98119.7
98119.3
98118.7
98117.9
98117
98115.8
98114.4
98112.9
98111.1
98109.3
98107.2
98105.1
98102.8
98100.5
98098.1
98095.7
98093.2
98090.6
98088.1
98085.5
98082.9
98080.4
98077.7
98075.1
98072.5
98069.8
98067.1
98064.4
98061.7
98059
98056.3
98053.6
98050.8
98048.1
98045.3
98042.5
98039.7
98036.8
98034
98031.2
98028.4
98025.6
98022.9
98020.2
98017.6
98015.1
98012.7
98010.5
98008.3
98006.4
98004.6
98003
98001.7
98000.6
97999.7
97999.2
97999
97999.1
97999.6
98000.4
98001.5
98003.1
98005
98007.3
98010
98013
98016.5
98020.3
98024.4
98028.9
98033.7
98038.8
98044.2
98049.7
98055.5
98061.4
98067.3
98073.4
98079.5
98085.5
98091.6
98097.6
98103.4
98109.2
98114.8
98120.1
98125.3
98130.2
98134.9
98139.3
98143.4
98147.2
98150.7
98153.8
98156.6
98159.1
98161.3
98163.1
98164.7
98166.1
98167.2
98168
98168.5
98168.9
98169
98169
98168.7
98168.3
98167.7
98166.9
98165.9
98164.7
98163.3
98161.6
98159.5
98157.1
98154.4
98151.3
98147.8
98143.8
98139.3
98134.3
98128.9
98123
98116.9
98110.3
98103.7
98096.8
98090
98083.4
98077.1
98071.3
98066.3
98062.2
98059.2
98057.5
98057.1
98058.3
98061.2
98065.8
98072.2
98080.4
98090.4
98102.2
98115.7
98131.2
98148.2
98166.7
98186.3
98207.3
98229.4
98252.2
98275.9
98299.8
98323.5
98347.1
98369.7
98391.1
98411.3
98429.7
98445.6
98458.7
98468.9
98476.3
98480.4
98481.6
98479
98473.1
98462.9
98449.7
98432
98412.5
98389.2
98364.6
98336.2
98308.7
98277.3
98247.3
98105
98105.1
98105.1
98104.8
98104.4
98103.9
98103.1
98102.2
98101.1
98099.9
98098.5
98096.9
98095.3
98093.5
98091.6
98089.7
98087.7
98085.6
98083.5
98081.4
98079.2
98077
98074.8
98072.6
98070.3
98067.9
98065.6
98063.2
98060.8
98058.4
98055.9
98053.4
98050.9
98048.4
98045.9
98043.3
98040.7
98038
98035.3
98032.6
98029.9
98027.2
98024.4
98021.7
98019
98016.4
98013.8
98011.3
98008.9
98006.6
98004.4
98002.3
98000.4
97998.7
97997.2
97996
97994.9
97994.2
97993.7
97993.5
97993.7
97994.1
97994.9
97996
97997.5
97999.3
98001.5
98004
98006.8
98010
98013.5
98017.3
98021.4
98025.7
98030.2
98034.9
98039.8
98044.8
98049.8
98054.9
98060
98065.1
98070.1
98075
98079.8
98084.5
98088.9
98093.2
98097.2
98101
98104.6
98107.8
98110.8
98113.4
98115.7
98117.8
98119.5
98120.9
98122
98122.9
98123.5
98123.9
98124
98123.9
98123.6
98123.1
98122.4
98121.6
98120.6
98119.4
98118
98116.5
98114.7
98112.8
98110.7
98108.2
98105.4
98102.3
98098.8
98095
98090.6
98085.8
98080.5
98074.7
98068.3
98061.5
98054.3
98046.7
98038.8
98030.7
98022.4
98014.3
98006.3
97998.8
97991.8
97985.4
97980.1
97975.9
97972.9
97971.5
97971.5
97973.2
97976.6
97981.7
97988.6
97997.2
98007.6
98019.7
98033.3
98048.5
98064.7
98082.2
98100.6
98119.8
98139.8
98160
98179.9
98199.8
98218.5
98236.2
98252.7
98267.6
98280.4
98290.7
98298.2
98303.5
98305.8
98306.1
98303.5
98298.5
98290.2
98279.6
98265.4
98250
98231.4
98212.2
98189.5
98168.3
98143.3
98120.5
98093.5
98093.8
98093.8
98093.6
98093.4
98093
98092.4
98091.8
98090.9
98090
98088.9
98087.7
98086.4
98085
98083.6
98082
98080.4
98078.8
98077.1
98075.3
98073.6
98071.7
98069.9
98067.9
98065.9
98063.9
98061.8
98059.7
98057.5
98055.3
98053
98050.6
98048.3
98045.9
98043.4
98040.9
98038.4
98035.8
98033.1
98030.5
98027.8
98025
98022.3
98019.6
98016.8
98014.2
98011.5
98008.9
98006.4
98004
98001.7
97999.5
97997.5
97995.7
97994
97992.6
97991.4
97990.4
97989.7
97989.3
97989.1
97989.3
97989.8
97990.5
97991.6
97993
97994.7
97996.8
97999.1
98001.7
98004.7
98007.8
98011.3
98014.9
98018.7
98022.7
98026.8
98030.9
98035.2
98039.4
98043.6
98047.8
98051.8
98055.8
98059.6
98063.3
98066.7
98069.9
98072.9
98075.6
98078
98080.2
98082
98083.6
98084.9
98085.9
98086.5
98086.9
98087
98086.9
98086.5
98085.9
98085.1
98084.1
98082.9
98081.5
98080
98078.3
98076.5
98074.5
98072.3
98070
98067.5
98064.8
98061.9
98058.6
98055
98051.1
98046.8
98042.2
98037
98031.4
98025.2
98018.6
98011.4
98003.7
97995.5
97986.9
97977.9
97968.7
97959.2
97949.7
97940.3
97931.2
97922.4
97914.2
97906.9
97900.5
97895.3
97891.5
97889.1
97888.3
97889.1
97891.6
97895.8
97901.7
97909.1
97918.3
97929
97941.1
97954.2
97968.5
97983.5
97999.4
98016
98032.6
98049.1
98065.3
98080.2
98094
98106.7
98118
98127.5
98134.7
98139.4
98142.3
98142.5
98141.1
98137.9
98133.1
98125.9
98117.3
98106
98093.9
98079.2
98064.8
98047.2
98031.8
98012.6
97996.5
98085.1
98085.4
98085.5
98085.4
98085.3
98085.1
98084.8
98084.3
98083.8
98083.2
98082.4
98081.6
98080.7
98079.7
98078.7
98077.6
98076.4
98075.2
98073.9
98072.6
98071.1
98069.7
98068.1
98066.5
98064.8
98063
98061.1
98059.2
98057.1
98055
98052.9
98050.6
98048.3
98046
98043.5
98041
98038.5
98035.8
98033.2
98030.4
98027.6
98024.8
98022
98019.2
98016.4
98013.6
98010.8
98008.1
98005.5
98002.9
98000.5
97998.1
97996
97994
97992.2
97990.5
97989.2
97988
97987.1
97986.5
97986.1
97986
97986.2
97986.7
97987.5
97988.5
97989.9
97991.5
97993.4
97995.6
97998.1
98000.7
98003.6
98006.6
98009.8
98013.2
98016.6
98020
98023.5
98027
98030.5
98033.8
98037
98040.1
98043
98045.8
98048.3
98050.5
98052.5
98054.2
98055.6
98056.8
98057.7
98058.2
98058.5
98058.5
98058.1
98057.5
98056.6
98055.5
98054.1
98052.6
98050.9
98048.9
98046.8
98044.6
98042.2
98039.7
98037
98034.1
98031.1
98028
98024.7
98021.1
98017.3
98013.2
98008.8
98004.1
97999
97993.5
97987.5
97981.1
97974.1
97966.6
97958.6
97950.2
97941.1
97931.6
97921.8
97911.6
97901.1
97890.5
97879.8
97869.3
97859.1
97849.3
97840.3
97832.2
97825.1
97819.3
97814.9
97811.9
97810.6
97810.8
97812.7
97816.2
97821.1
97827.7
97835.7
97844.9
97855.3
97866.8
97878.9
97891.8
97905
97918.3
97931.3
97943.9
97955.1
97965.3
97974.2
97981.8
97987.8
97991.7
97993.4
97993.8
97991.6
97988.2
97983.8
97978.5
97971.8
97964.5
97955.2
97945.9
97934.5
97924.2
97911.1
97900.7
97886.7
97876.9
98079.1
98079.4
98079.6
98079.7
98079.7
98079.6
98079.5
98079.3
98079.1
98078.8
98078.5
98078.1
98077.7
98077.2
98076.6
98076
98075.3
98074.5
98073.6
98072.7
98071.7
98070.5
98069.3
98068
98066.5
98064.9
98063.2
98061.4
98059.5
98057.5
98055.4
98053.1
98050.8
98048.4
98045.9
98043.4
98040.7
98038
98035.2
98032.3
98029.4
98026.5
98023.5
98020.5
98017.5
98014.6
98011.6
98008.8
98006
98003.3
98000.7
97998.2
97995.9
97993.7
97991.7
97990
97988.4
97987.1
97986
97985.2
97984.7
97984.4
97984.4
97984.6
97985.1
97985.9
97987
97988.3
97989.9
97991.7
97993.7
97996
97998.4
98001
98003.7
98006.5
98009.3
98012.2
98015
98017.9
98020.6
98023.2
98025.7
98028
98030.2
98032
98033.7
98035.1
98036.2
98037
98037.5
98037.7
98037.7
98037.3
98036.6
98035.6
98034.4
98032.8
98031
98028.9
98026.6
98024.1
98021.4
98018.6
98015.7
98012.5
98009.3
98005.8
98002.3
97998.5
97994.7
97990.6
97986.4
97981.9
97977.3
97972.3
97967.1
97961.5
97955.6
97949.3
97942.5
97935.3
97927.5
97919.3
97910.6
97901.4
97891.7
97881.5
97870.9
97859.9
97848.6
97837.1
97825.4
97813.8
97802.4
97791.3
97781
97771.5
97762.9
97755.4
97749.3
97744.6
97741.4
97739.7
97739.5
97740.9
97743.7
97748
97753.6
97760.4
97768.4
97777.4
97786.9
97796.8
97807
97817
97826.7
97835.8
97843.5
97850.1
97855.1
97859
97861.3
97861.8
97860.5
97858.2
97853.6
97848.1
97842
97835.8
97829
97822.4
97814.5
97807.2
97798.5
97791.6
97782.2
97776.5
97767
97762.8
98074.7
98075
98075.3
98075.4
98075.6
98075.8
98076
98076.2
98076.4
98076.6
98076.7
98076.9
98077
98077.1
98077
98076.9
98076.7
98076.4
98075.9
98075.4
98074.7
98073.9
98072.9
98071.8
98070.6
98069.2
98067.6
98065.9
98064
98062.1
98059.9
98057.7
98055.3
98052.9
98050.3
98047.6
98044.8
98041.9
98038.9
98035.9
98032.8
98029.7
98026.5
98023.4
98020.2
98017
98013.9
98010.9
98007.9
98005
98002.2
97999.6
97997.1
97994.8
97992.7
97990.8
97989.1
97987.7
97986.5
97985.5
97984.8
97984.3
97984.2
97984.2
97984.6
97985.2
97986
97987.1
97988.4
97990
97991.7
97993.6
97995.7
97997.8
98000.1
98002.5
98004.8
98007.2
98009.5
98011.8
98013.9
98015.9
98017.8
98019.4
98020.8
98022
98022.8
98023.4
98023.7
98023.7
98023.4
98022.8
98021.9
98020.6
98019.1
98017.2
98015.1
98012.6
98009.9
98006.9
98003.7
98000.3
97996.8
97993.1
97989.3
97985.3
97981.1
97976.8
97972.3
97967.7
97963
97958
97952.9
97947.5
97942
97936.2
97930.1
97923.7
97916.9
97909.8
97902.3
97894.3
97885.9
97877
97867.7
97857.9
97847.6
97836.8
97825.5
97814
97802
97789.7
97777.3
97764.9
97752.5
97740.5
97729.2
97718.5
97708.7
97699.9
97692.4
97686.3
97681.5
97678.2
97676.3
97675.9
97676.9
97679.3
97682.8
97687.5
97693.2
97700
97707.1
97714.2
97721.4
97728.3
97734.9
97740.6
97744.9
97748
97749.4
97749.5
97748.1
97745.2
97740.7
97735.5
97728.5
97720.8
97712.9
97705.4
97698
97691.7
97684.4
97678.8
97672
97667.9
97661.6
97659.9
97654.5
97655.1
98071
98071.2
98071.4
98071.6
98071.8
98072.4
98072.9
98073.7
98074.6
98075.5
98076.4
98077.2
98078
98078.7
98079.3
98079.7
98080
98080.1
98080.1
98079.9
98079.6
98079
98078.3
98077.4
98076.3
98075.1
98073.6
98071.9
98070.1
98068.1
98066
98063.7
98061.2
98058.6
98055.9
98053.1
98050.2
98047.1
98044
98040.8
98037.5
98034.1
98030.8
98027.4
98024
98020.7
98017.4
98014.1
98011
98007.9
98005
98002.3
97999.6
97997.2
97995
97993
97991.2
97989.6
97988.3
97987.2
97986.4
97985.8
97985.5
97985.5
97985.7
97986.1
97986.8
97987.7
97988.9
97990.2
97991.7
97993.4
97995.1
97997
97998.9
98000.9
98002.9
98004.8
98006.7
98008.4
98010.1
98011.5
98012.8
98013.8
98014.6
98015.1
98015.3
98015.2
98014.8
98014.1
98013
98011.6
98009.9
98007.9
98005.5
98002.8
97999.9
97996.6
97993.1
97989.2
97985.2
97981
97976.6
97972
97967.3
97962.5
97957.4
97952.3
97947
97941.5
97935.9
97930
97924
97917.8
97911.3
97904.7
97897.8
97890.6
97883.1
97875.2
97867
97858.3
97849.3
97839.9
97830
97819.6
97808.8
97797.5
97785.9
97773.8
97761.3
97748.5
97735.5
97722.5
97709.5
97696.9
97684.7
97673.2
97662.3
97652.5
97643.9
97636.5
97630.3
97625.7
97622.4
97620.5
97620
97620.7
97622.3
97625.1
97628.9
97633.5
97638.4
97643
97647.4
97651.3
97654.8
97657.4
97658.6
97658.3
97656
97652.4
97647.4
97641
97633.3
97625.1
97615.7
97605.9
97596
97587.3
97579
97572.3
97565.5
97560.9
97555.6
97553.7
97549.9
97551.6
97549.9
97554.8
98066.1
98066.1
98066.2
98066.5
98067.2
98068.5
98069.9
98071.7
98073.4
98075.3
98077
98078.7
98080.3
98081.7
98082.9
98083.8
98084.6
98085.2
98085.5
98085.6
98085.5
98085.2
98084.7
98084
98083
98081.8
98080.4
98078.8
98077
98075
98072.8
98070.4
98067.9
98065.2
98062.4
98059.4
98056.3
98053.1
98049.8
98046.4
98042.9
98039.4
98035.8
98032.3
98028.7
98025.2
98021.7
98018.3
98015
98011.9
98008.8
98005.9
98003.2
98000.7
97998.3
97996.2
97994.4
97992.7
97991.3
97990.2
97989.3
97988.7
97988.3
97988.1
97988.2
97988.6
97989.2
97990
97991
97992.1
97993.5
97994.9
97996.5
97998.1
97999.7
98001.3
98003
98004.5
98006
98007.3
98008.4
98009.4
98010.2
98010.7
98010.9
98010.8
98010.4
98009.7
98008.6
98007.2
98005.5
98003.4
98001
97998.2
97995.1
97991.6
97987.9
97983.9
97979.6
97975
97970.2
97965.2
97960
97954.6
97949.1
97943.4
97937.6
97931.6
97925.5
97919.2
97912.8
97906.1
97899.2
97892.2
97885
97877.5
97869.8
97861.9
97853.7
97845.2
97836.3
97827
97817.5
97807.6
97797.2
97786.4
97775.3
97763.7
97751.7
97739.2
97726.3
97713.1
97699.7
97686.2
97672.9
97659.9
97647.2