/*--------------------------------*- C++ -*----------------------------------*\
| =========                 |                                                 |
| \\      /  F ield         | OpenFOAM: The Open Source CFD Toolbox           |
|  \\    /   O peration     | Version:  dev                                   |
|   \\  /    A nd           | Web:      http://www.openfoam.org               |
|    \\/     M anipulation  |                                                 |
\*---------------------------------------------------------------------------*/
FoamFile
{
    version     2.0;
    format      ascii;
    class       volScalarField;
    object      pPrime2Mean;
    location    "9.149";
}
// * * * * * * * * * * * * * * * * * * * * * * * * * * * * * * * * * * * * * //

dimensions      [2 -2 -4 0 0 0 0];

internalField   nonuniform List<scalar> 
12225
(
5.03682e+07
4.99029e+07
4.89419e+07
4.75902e+07
4.59359e+07
4.40684e+07
4.20468e+07
3.99432e+07
3.77986e+07
3.56608e+07
3.35677e+07
3.15223e+07
2.95985e+07
2.7727e+07
2.59793e+07
2.44186e+07
2.28567e+07
2.12767e+07
5.02604e+07
4.97951e+07
4.88349e+07
4.74849e+07
4.5832e+07
4.39669e+07
4.19481e+07
3.98472e+07
3.77064e+07
3.55713e+07
3.3483e+07
3.14412e+07
2.9522e+07
2.76574e+07
2.59272e+07
2.43666e+07
2.28576e+07
2.15235e+07
5.00104e+07
4.95457e+07
4.85859e+07
4.7239e+07
4.55906e+07
4.37302e+07
4.17182e+07
3.96235e+07
3.74909e+07
3.53639e+07
3.3284e+07
3.12539e+07
2.93407e+07
2.74934e+07
2.5783e+07
2.42273e+07
2.27921e+07
2.15792e+07
4.95748e+07
4.91131e+07
4.81556e+07
4.68138e+07
4.51735e+07
4.33215e+07
4.13212e+07
3.9237e+07
3.71192e+07
3.50057e+07
3.29416e+07
3.09294e+07
2.90334e+07
2.72054e+07
2.55246e+07
2.39935e+07
2.2607e+07
2.15064e+07
4.89099e+07
4.84484e+07
4.74956e+07
4.61634e+07
4.45348e+07
4.26974e+07
4.07129e+07
3.8648e+07
3.65492e+07
3.44599e+07
3.2416e+07
3.04346e+07
2.85612e+07
2.67692e+07
2.51407e+07
2.36319e+07
2.23507e+07
2.12865e+07
4.79609e+07
4.74968e+07
4.65536e+07
4.52348e+07
4.36242e+07
4.18066e+07
3.98467e+07
3.78075e+07
3.57388e+07
3.36791e+07
3.16695e+07
2.97222e+07
2.78871e+07
2.61417e+07
2.45626e+07
2.31233e+07
2.18964e+07
2.08401e+07
4.66663e+07
4.62009e+07
4.52732e+07
4.39707e+07
4.23862e+07
4.05942e+07
3.867e+07
3.66641e+07
3.46383e+07
3.26176e+07
3.06564e+07
2.87547e+07
2.69709e+07
2.52833e+07
2.37613e+07
2.2382e+07
2.12135e+07
2.01856e+07
4.52246e+07
4.47608e+07
4.38495e+07
4.25648e+07
4.1009e+07
3.92467e+07
3.73609e+07
3.53941e+07
3.34136e+07
3.14391e+07
2.95277e+07
2.76796e+07
2.59474e+07
2.43229e+07
2.28494e+07
2.15333e+07
2.03974e+07
1.94376e+07
4.37101e+07
4.32499e+07
4.23547e+07
4.10898e+07
3.95636e+07
3.78338e+07
3.59875e+07
3.4063e+07
3.21287e+07
3.02037e+07
2.83432e+07
2.65509e+07
2.48724e+07
2.33087e+07
2.18871e+07
2.06271e+07
1.95332e+07
1.86346e+07
4.17705e+07
4.13169e+07
4.04412e+07
3.92039e+07
3.77141e+07
3.60283e+07
3.42308e+07
3.23625e+07
3.04854e+07
2.86253e+07
2.68277e+07
2.51069e+07
2.34945e+07
2.20055e+07
2.06502e+07
1.94579e+07
1.84207e+07
1.7568e+07
3.93224e+07
3.88789e+07
3.80267e+07
3.68262e+07
3.53823e+07
3.37535e+07
3.20181e+07
3.02208e+07
2.84169e+07
2.66371e+07
2.49198e+07
2.32849e+07
2.17563e+07
2.03534e+07
1.90812e+07
1.79656e+07
1.69954e+07
1.61888e+07
3.62998e+07
3.58711e+07
3.50471e+07
3.38956e+07
3.25089e+07
3.09534e+07
2.92954e+07
2.75871e+07
2.58738e+07
2.41928e+07
2.25737e+07
2.10419e+07
1.96142e+07
1.83106e+07
1.71349e+07
1.61037e+07
1.52091e+07
1.44557e+07
3.26876e+07
3.22776e+07
3.149e+07
3.03996e+07
2.90852e+07
2.76187e+07
2.60565e+07
2.44548e+07
2.28516e+07
2.12872e+07
1.97849e+07
1.83721e+07
1.70608e+07
1.58694e+07
1.48003e+07
1.38626e+07
1.30513e+07
1.2363e+07
2.8577e+07
2.81898e+07
2.7449e+07
2.64309e+07
2.52048e+07
2.38419e+07
2.23936e+07
2.0914e+07
1.9439e+07
1.80055e+07
1.6636e+07
1.53539e+07
1.41711e+07
1.31003e+07
1.21448e+07
1.13075e+07
1.05848e+07
9.97062e+06
2.42534e+07
2.38926e+07
2.32079e+07
2.22706e+07
2.11447e+07
1.98959e+07
1.85733e+07
1.72261e+07
1.58887e+07
1.4594e+07
1.33635e+07
1.22165e+07
1.11641e+07
1.02151e+07
9.37195e+06
8.63473e+06
8.00022e+06
7.46173e+06
2.03072e+07
1.99752e+07
1.935e+07
1.84944e+07
1.747e+07
1.63344e+07
1.51355e+07
1.39164e+07
1.27109e+07
1.15469e+07
1.04453e+07
9.42157e+06
8.48582e+06
7.64408e+06
6.89825e+06
6.24704e+06
5.68729e+06
5.21276e+06
1.77421e+07
1.74356e+07
1.68606e+07
1.6073e+07
1.51309e+07
1.40864e+07
1.29848e+07
1.18652e+07
1.07593e+07
9.69229e+06
8.68304e+06
7.74518e+06
6.88741e+06
6.11453e+06
5.4279e+06
4.82614e+06
4.30627e+06
3.86293e+06
1.78503e+07
1.75556e+07
1.70029e+07
1.62449e+07
1.53375e+07
1.433e+07
1.3266e+07
1.21824e+07
1.11094e+07
1.00706e+07
9.08387e+06
8.16183e+06
7.31261e+06
6.54071e+06
5.84754e+06
5.23225e+06
4.69234e+06
4.22347e+06
2.0727e+07
2.04279e+07
1.98654e+07
1.90924e+07
1.81656e+07
1.71342e+07
1.60417e+07
1.49247e+07
1.38132e+07
1.27305e+07
1.16944e+07
1.07174e+07
9.80778e+06
8.97044e+06
8.20724e+06
7.5181e+06
6.90119e+06
6.35312e+06
2.52137e+07
2.49017e+07
2.43113e+07
2.34972e+07
2.2519e+07
2.14274e+07
2.0267e+07
1.90756e+07
1.78837e+07
1.67153e+07
1.55885e+07
1.45165e+07
1.35081e+07
1.25688e+07
1.17012e+07
1.09058e+07
1.01818e+07
9.52646e+06
3.02728e+07
2.99467e+07
2.9323e+07
2.84596e+07
2.74189e+07
2.62542e+07
2.50118e+07
2.3731e+07
2.24435e+07
2.11743e+07
1.99423e+07
1.87616e+07
1.76416e+07
1.65885e+07
1.56056e+07
1.46945e+07
1.38547e+07
1.30845e+07
3.51863e+07
3.48485e+07
3.41938e+07
3.32833e+07
3.21825e+07
3.09466e+07
2.96241e+07
2.82557e+07
2.68746e+07
2.55069e+07
2.41725e+07
2.28861e+07
2.16582e+07
2.04956e+07
1.94024e+07
1.83808e+07
1.7431e+07
1.65519e+07
3.95352e+07
3.9189e+07
3.8509e+07
3.75587e+07
3.64063e+07
3.51087e+07
3.37161e+07
3.22708e+07
3.08073e+07
2.93527e+07
2.79279e+07
2.65485e+07
2.52256e+07
2.39667e+07
2.27767e+07
2.16582e+07
2.06121e+07
1.96378e+07
4.31305e+07
4.27793e+07
4.20799e+07
4.10987e+07
3.99052e+07
3.85578e+07
3.71082e+07
3.56001e+07
3.40689e+07
3.25429e+07
3.10437e+07
2.95876e+07
2.81864e+07
2.68484e+07
2.55788e+07
2.43807e+07
2.32554e+07
2.22028e+07
4.59386e+07
4.55844e+07
4.48713e+07
4.38671e+07
4.26426e+07
4.12571e+07
3.97636e+07
3.82069e+07
3.66233e+07
3.50417e+07
3.34847e+07
3.19689e+07
3.05069e+07
2.91073e+07
2.77757e+07
2.65156e+07
2.53288e+07
2.42153e+07
4.80165e+07
4.76607e+07
4.6938e+07
4.59177e+07
4.46708e+07
4.32576e+07
4.1732e+07
4.01396e+07
3.85174e+07
3.6895e+07
3.52953e+07
3.37357e+07
3.22288e+07
3.07838e+07
2.94066e+07
2.81009e+07
2.68688e+07
2.57105e+07
4.94652e+07
4.91086e+07
4.83791e+07
4.7348e+07
4.60858e+07
4.46537e+07
4.31062e+07
4.14892e+07
3.98404e+07
3.81897e+07
3.65605e+07
3.49705e+07
3.34326e+07
3.19561e+07
3.05472e+07
2.921e+07
2.79464e+07
2.6757e+07
5.04001e+07
5.00424e+07
4.93088e+07
4.8271e+07
4.6999e+07
4.55549e+07
4.39934e+07
4.23608e+07
4.0695e+07
3.90263e+07
3.73782e+07
3.57687e+07
3.42108e+07
3.27141e+07
3.12849e+07
2.99273e+07
2.86436e+07
2.74342e+07
5.09291e+07
5.05711e+07
4.98359e+07
4.87949e+07
4.75176e+07
4.6067e+07
4.44976e+07
4.28561e+07
4.11805e+07
3.95013e+07
3.78424e+07
3.62216e+07
3.46522e+07
3.31439e+07
3.1703e+07
3.03337e+07
2.90386e+07
2.78182e+07
5.11512e+07
5.07947e+07
5.00576e+07
4.90149e+07
4.7735e+07
4.62815e+07
4.47088e+07
4.30634e+07
4.13836e+07
3.96999e+07
3.80363e+07
3.64107e+07
3.48364e+07
3.33231e+07
3.18772e+07
3.0503e+07
2.92032e+07
2.79784e+07
6.04828e+07
6.04238e+07
6.02931e+07
6.00874e+07
5.98047e+07
5.94443e+07
5.90064e+07
5.84917e+07
5.79012e+07
5.72364e+07
5.64993e+07
5.56919e+07
5.48165e+07
5.38757e+07
5.28722e+07
5.18091e+07
5.06894e+07
4.95168e+07
4.82949e+07
4.70276e+07
4.57188e+07
4.43726e+07
4.29933e+07
4.15852e+07
4.01527e+07
3.87005e+07
3.7233e+07
3.57546e+07
3.42698e+07
3.27833e+07
3.12995e+07
2.98231e+07
2.83587e+07
2.69108e+07
2.54842e+07
2.40832e+07
2.27125e+07
2.1377e+07
2.00812e+07
1.88301e+07
1.76284e+07
1.64809e+07
1.53928e+07
1.43691e+07
1.3415e+07
1.25356e+07
1.17363e+07
1.10225e+07
1.03996e+07
9.87309e+06
9.44837e+06
9.13091e+06
8.92612e+06
8.83925e+06
8.87542e+06
9.03944e+06
9.33587e+06
9.76897e+06
1.03426e+07
1.106e+07
1.19239e+07
1.29365e+07
1.40992e+07
1.54128e+07
1.68771e+07
1.84914e+07
2.02541e+07
2.21626e+07
2.42138e+07
2.6404e+07
2.87284e+07
3.11819e+07
3.37584e+07
3.64517e+07
3.92547e+07
4.21603e+07
4.5161e+07
4.82489e+07
5.14163e+07
5.46552e+07
5.79574e+07
6.13147e+07
6.47189e+07
6.81613e+07
7.16332e+07
7.51259e+07
7.86301e+07
8.21365e+07
8.56348e+07
8.91148e+07
9.25655e+07
9.59754e+07
9.93324e+07
1.02624e+08
1.05838e+08
1.08961e+08
1.11982e+08
1.14887e+08
1.17665e+08
1.20306e+08
1.22801e+08
1.25141e+08
1.27319e+08
1.29329e+08
1.31169e+08
1.32835e+08
1.34328e+08
1.35651e+08
1.36809e+08
1.37809e+08
1.38661e+08
1.39377e+08
1.39971e+08
1.40456e+08
1.40849e+08
1.41167e+08
1.41432e+08
1.41662e+08
1.41883e+08
1.42122e+08
1.42407e+08
1.42772e+08
1.43253e+08
1.43891e+08
1.44728e+08
1.45814e+08
1.472e+08
1.48943e+08
1.51104e+08
1.53745e+08
1.56931e+08
1.60721e+08
1.6518e+08
1.70363e+08
1.76323e+08
1.83106e+08
1.90748e+08
1.99276e+08
2.08704e+08
2.19035e+08
2.30263e+08
2.42366e+08
2.55316e+08
2.6907e+08
2.83587e+08
2.98803e+08
3.14669e+08
3.31114e+08
3.48075e+08
3.65476e+08
3.83244e+08
4.01295e+08
4.19537e+08
4.37879e+08
4.56197e+08
4.74353e+08
4.92182e+08
5.09515e+08
5.2612e+08
5.41761e+08
5.56141e+08
5.6896e+08
5.79877e+08
5.8857e+08
5.94704e+08
5.97983e+08
5.98145e+08
5.95011e+08
5.88454e+08
5.78502e+08
5.65233e+08
5.48917e+08
5.2987e+08
5.08587e+08
4.85541e+08
4.61258e+08
4.36106e+08
4.10518e+08
3.84705e+08
3.58993e+08
5.94081e+07
5.93524e+07
5.92273e+07
5.90275e+07
5.87513e+07
5.83985e+07
5.79699e+07
5.74665e+07
5.68896e+07
5.62405e+07
5.55209e+07
5.4733e+07
5.38787e+07
5.29606e+07
5.19811e+07
5.09431e+07
4.98496e+07
4.8704e+07
4.75097e+07
4.62705e+07
4.49902e+07
4.36729e+07
4.23226e+07
4.09437e+07
3.95404e+07
3.81173e+07
3.66787e+07
3.52287e+07
3.37719e+07
3.23127e+07
3.08555e+07
2.94049e+07
2.79655e+07
2.65417e+07
2.5138e+07
2.37591e+07
2.24093e+07
2.10934e+07
1.98161e+07
1.8582e+07
1.7396e+07
1.62631e+07
1.5188e+07
1.41759e+07
1.3232e+07
1.23614e+07
1.15694e+07
1.08615e+07
1.0243e+07
9.71948e+06
9.2963e+06
8.97893e+06
8.77275e+06
8.683e+06
8.71479e+06
8.87302e+06
9.16225e+06
9.5867e+06
1.01502e+07
1.0856e+07
1.17068e+07
1.27049e+07
1.38514e+07
1.51473e+07
1.65925e+07
1.81861e+07
1.99264e+07
2.18111e+07
2.3837e+07
2.60002e+07
2.82962e+07
3.07196e+07
3.32647e+07
3.5925e+07
3.86936e+07
4.15634e+07
4.4527e+07
4.75767e+07
5.07046e+07
5.39027e+07
5.71629e+07
6.04772e+07
6.38372e+07
6.72345e+07
7.06605e+07
7.41064e+07
7.7563e+07
8.10209e+07
8.44702e+07
8.79007e+07
9.13015e+07
9.46612e+07
9.7968e+07
1.0121e+08
1.04374e+08
1.07448e+08
1.10419e+08
1.13277e+08
1.16009e+08
1.18606e+08
1.21057e+08
1.23357e+08
1.25496e+08
1.27471e+08
1.29278e+08
1.30914e+08
1.3238e+08
1.33679e+08
1.34815e+08
1.35796e+08
1.36632e+08
1.37335e+08
1.37917e+08
1.38392e+08
1.38777e+08
1.39088e+08
1.39345e+08
1.39569e+08
1.39782e+08
1.40011e+08
1.40284e+08
1.40636e+08
1.411e+08
1.41716e+08
1.42527e+08
1.4358e+08
1.44927e+08
1.46624e+08
1.4873e+08
1.51307e+08
1.54418e+08
1.58124e+08
1.62486e+08
1.67559e+08
1.73397e+08
1.80043e+08
1.87535e+08
1.95899e+08
2.05149e+08
2.15289e+08
2.26312e+08
2.38197e+08
2.50917e+08
2.64432e+08
2.78699e+08
2.93656e+08
3.09253e+08
3.25428e+08
3.42113e+08
3.59234e+08
3.76721e+08
3.94491e+08
4.12456e+08
4.30526e+08
4.48579e+08
4.66478e+08
4.84063e+08
5.0117e+08
5.17571e+08
5.33031e+08
5.47267e+08
5.59979e+08
5.70834e+08
5.79511e+08
5.85685e+08
5.89067e+08
5.89397e+08
5.86499e+08
5.80244e+08
5.70642e+08
5.57769e+08
5.41878e+08
5.23279e+08
5.02451e+08
4.79854e+08
4.56002e+08
4.31259e+08
4.06053e+08
3.80593e+08
3.55119e+08
5.73432e+07
5.72901e+07
5.71706e+07
5.69791e+07
5.67145e+07
5.63772e+07
5.59682e+07
5.54886e+07
5.49394e+07
5.43217e+07
5.36371e+07
5.28871e+07
5.20738e+07
5.11992e+07
5.02655e+07
4.92754e+07
4.82316e+07
4.71372e+07
4.59954e+07
4.48098e+07
4.35839e+07
4.23218e+07
4.10273e+07
3.97045e+07
3.83574e+07
3.69899e+07
3.56062e+07
3.42104e+07
3.28068e+07
3.13998e+07
2.99936e+07
2.85927e+07
2.72014e+07
2.5824e+07
2.4465e+07
2.31286e+07
2.18192e+07
2.05414e+07
1.92997e+07
1.80989e+07
1.69436e+07
1.58387e+07
1.4789e+07
1.37996e+07
1.28755e+07
1.2022e+07
1.12444e+07
1.0548e+07
9.93831e+06
9.42065e+06
9.0005e+06
8.6833e+06
8.47446e+06
8.37921e+06
8.40265e+06
8.54968e+06
8.82483e+06
9.23235e+06
9.77604e+06
1.04592e+07
1.12844e+07
1.22538e+07
1.33689e+07
1.46302e+07
1.60377e+07
1.75906e+07
1.92871e+07
2.11248e+07
2.31008e+07
2.5211e+07
2.7451e+07
2.98155e+07
3.22988e+07
3.48944e+07
3.75957e+07
4.03955e+07
4.32866e+07
4.62613e+07
4.93121e+07
5.24308e+07
5.56096e+07
5.88403e+07
6.21148e+07
6.54247e+07
6.87616e+07
7.21167e+07
7.54811e+07
7.88455e+07
8.22001e+07
8.55348e+07
8.88389e+07
9.21013e+07
9.53105e+07
9.84548e+07
1.01522e+08
1.04499e+08
1.07376e+08
1.1014e+08
1.12782e+08
1.15291e+08
1.17659e+08
1.19878e+08
1.21942e+08
1.23847e+08
1.25589e+08
1.27166e+08
1.28578e+08
1.29829e+08
1.30923e+08
1.31868e+08
1.32674e+08
1.3335e+08
1.3391e+08
1.34367e+08
1.34736e+08
1.35032e+08
1.35274e+08
1.35483e+08
1.35681e+08
1.35891e+08
1.36142e+08
1.36465e+08
1.36894e+08
1.37466e+08
1.38223e+08
1.39211e+08
1.40479e+08
1.42082e+08
1.44077e+08
1.46526e+08
1.49488e+08
1.53025e+08
1.57194e+08
1.62051e+08
1.67646e+08
1.74022e+08
1.81216e+08
1.89255e+08
1.98153e+08
2.07913e+08
2.18529e+08
2.29982e+08
2.42249e+08
2.55291e+08
2.69063e+08
2.83508e+08
2.98573e+08
3.14207e+08
3.30343e+08
3.46907e+08
3.63831e+08
3.8104e+08
3.9845e+08
4.15969e+08
4.33481e+08
4.5086e+08
4.67944e+08
4.84575e+08
5.00539e+08
5.15603e+08
5.29506e+08
5.41953e+08
5.52626e+08
5.6122e+08
5.67417e+08
5.70945e+08
5.71554e+08
5.69071e+08
5.63362e+08
5.54414e+08
5.42302e+08
5.27249e+08
5.09542e+08
4.89634e+08
4.67955e+08
4.44984e+08
4.21091e+08
3.96679e+08
3.71971e+08
3.47138e+08
5.445e+07
5.44007e+07
5.42887e+07
5.41094e+07
5.38626e+07
5.35491e+07
5.31696e+07
5.27248e+07
5.22154e+07
5.16422e+07
5.10065e+07
5.03095e+07
4.95527e+07
4.87378e+07
4.78669e+07
4.69423e+07
4.59666e+07
4.49425e+07
4.38732e+07
4.27617e+07
4.16115e+07
4.04263e+07
3.92094e+07
3.79645e+07
3.66951e+07
3.54049e+07
3.40977e+07
3.27774e+07
3.14482e+07
3.01141e+07
2.87794e+07
2.7448e+07
2.61241e+07
2.48117e+07
2.35149e+07
2.22378e+07
2.09848e+07
1.97603e+07
1.85687e+07
1.74144e+07
1.63021e+07
1.52366e+07
1.42225e+07
1.3265e+07
1.2369e+07
1.15397e+07
1.07824e+07
1.01023e+07
9.50491e+06
8.99561e+06
8.57981e+06
8.26294e+06
8.05039e+06
7.94737e+06
7.95895e+06
8.09003e+06
8.34519e+06
8.72862e+06
9.24407e+06
9.89477e+06
1.06834e+07
1.16121e+07
1.26821e+07
1.3894e+07
1.52479e+07
1.67427e+07
1.83768e+07
2.01479e+07
2.2053e+07
2.40881e+07
2.62488e+07
2.85299e+07
3.09259e+07
3.34304e+07
3.60368e+07
3.87382e+07
4.15275e+07
4.43973e+07
4.734e+07
5.03478e+07
5.34128e+07
5.65271e+07
5.96826e+07
6.28712e+07
6.60843e+07
6.93134e+07
7.25498e+07
7.57845e+07
7.90076e+07
8.22095e+07
8.53795e+07
8.85068e+07
9.15804e+07
9.45887e+07
9.75202e+07
1.00363e+08
1.03107e+08
1.05741e+08
1.08255e+08
1.10641e+08
1.1289e+08
1.14996e+08
1.16954e+08
1.18759e+08
1.20408e+08
1.219e+08
1.23236e+08
1.24419e+08
1.25453e+08
1.26346e+08
1.27106e+08
1.27744e+08
1.28272e+08
1.28701e+08
1.29045e+08
1.29319e+08
1.29539e+08
1.29725e+08
1.29899e+08
1.30082e+08
1.303e+08
1.30581e+08
1.30958e+08
1.31466e+08
1.32145e+08
1.3304e+08
1.34196e+08
1.35668e+08
1.37507e+08
1.39774e+08
1.42526e+08
1.45823e+08
1.49721e+08
1.54273e+08
1.59527e+08
1.65525e+08
1.72301e+08
1.79885e+08
1.88289e+08
1.97519e+08
2.07567e+08
2.18419e+08
2.30053e+08
2.42437e+08
2.5552e+08
2.69255e+08
2.83586e+08
2.98472e+08
3.13847e+08
3.29646e+08
3.45795e+08
3.62232e+08
3.78875e+08
3.95633e+08
4.12396e+08
4.29048e+08
4.45433e+08
4.61397e+08
4.76742e+08
4.91244e+08
5.04658e+08
5.16705e+08
5.27088e+08
5.35524e+08
5.41707e+08
5.45384e+08
5.46314e+08
5.4433e+08
5.39301e+08
5.31198e+08
5.20081e+08
5.06141e+08
4.89639e+08
4.7099e+08
4.50577e+08
4.28842e+08
4.06147e+08
3.82866e+08
3.59237e+08
3.3541e+08
5.09289e+07
5.08849e+07
5.0783e+07
5.06201e+07
5.03965e+07
5.01127e+07
4.9769e+07
4.93657e+07
4.89037e+07
4.83833e+07
4.78053e+07
4.71707e+07
4.64807e+07
4.57368e+07
4.49408e+07
4.40948e+07
4.32009e+07
4.22616e+07
4.12796e+07
4.02576e+07
3.91989e+07
3.81063e+07
3.6983e+07
3.58319e+07
3.46563e+07
3.34595e+07
3.22451e+07
3.10168e+07
2.97784e+07
2.85336e+07
2.72862e+07
2.60397e+07
2.47981e+07
2.35649e+07
2.23442e+07
2.11398e+07
1.99559e+07
1.87965e+07
1.76661e+07
1.65688e+07
1.55092e+07
1.44919e+07
1.35216e+07
1.26032e+07
1.17417e+07
1.0942e+07
1.02095e+07
9.54939e+06
8.96706e+06
8.46793e+06
8.05739e+06
7.74081e+06
7.52359e+06
7.4109e+06
7.40782e+06
7.51916e+06
7.74948e+06
8.10291e+06
8.58317e+06
9.1935e+06
9.93654e+06
1.08143e+07
1.18282e+07
1.29787e+07
1.42657e+07
1.56883e+07
1.72449e+07
1.89331e+07
2.075e+07
2.26919e+07
2.47542e+07
2.6932e+07
2.92197e+07
3.16112e+07
3.41002e+07
3.668e+07
3.93434e+07
4.20834e+07
4.48927e+07
4.77634e+07
5.06881e+07
5.3659e+07
5.6668e+07
5.97072e+07
6.27684e+07
6.58429e+07
6.89225e+07
7.19982e+07
7.50604e+07
7.80996e+07
8.11057e+07
8.40683e+07
8.69767e+07
8.98196e+07
9.25861e+07
9.52657e+07
9.78478e+07
1.00323e+08
1.02682e+08
1.04917e+08
1.0702e+08
1.08988e+08
1.10814e+08
1.12496e+08
1.1403e+08
1.15417e+08
1.16659e+08
1.17757e+08
1.18717e+08
1.19543e+08
1.20246e+08
1.20835e+08
1.2132e+08
1.21712e+08
1.22023e+08
1.22267e+08
1.22459e+08
1.22616e+08
1.22757e+08
1.22903e+08
1.23078e+08
1.23307e+08
1.2362e+08
1.2405e+08
1.24635e+08
1.25414e+08
1.26434e+08
1.27744e+08
1.29394e+08
1.31441e+08
1.33936e+08
1.36942e+08
1.40509e+08
1.44689e+08
1.49529e+08
1.55067e+08
1.61339e+08
1.68371e+08
1.76179e+08
1.84769e+08
1.94135e+08
2.04263e+08
2.15134e+08
2.26721e+08
2.3898e+08
2.51864e+08
2.65319e+08
2.79309e+08
2.93776e+08
3.0866e+08
3.23888e+08
3.39404e+08
3.55128e+08
3.70976e+08
3.8684e+08
4.02612e+08
4.18151e+08
4.33307e+08
4.47896e+08
4.6171e+08
4.74511e+08
4.86049e+08
4.96054e+08
5.04256e+08
5.10377e+08
5.14174e+08
5.15422e+08
5.13969e+08
5.09687e+08
5.02532e+08
4.92549e+08
4.79891e+08
4.64799e+08
4.47631e+08
4.28728e+08
4.08494e+08
3.87257e+08
3.65369e+08
3.43076e+08
3.2054e+08
4.70026e+07
4.69656e+07
4.68762e+07
4.67325e+07
4.65349e+07
4.62837e+07
4.59792e+07
4.56214e+07
4.52108e+07
4.47475e+07
4.42321e+07
4.36653e+07
4.30483e+07
4.23821e+07
4.16683e+07
4.09085e+07
4.01046e+07
3.92586e+07
3.83728e+07
3.74497e+07
3.64919e+07
3.55016e+07
3.44816e+07
3.34343e+07
3.23627e+07
3.12698e+07
3.01588e+07
2.90332e+07
2.78961e+07
2.67508e+07
2.56007e+07
2.44491e+07
2.32994e+07
2.2155e+07
2.10195e+07
1.98967e+07
1.87903e+07
1.77043e+07
1.66427e+07
1.56097e+07
1.46096e+07
1.36467e+07
1.27257e+07
1.18514e+07
1.10286e+07
1.02623e+07
9.55768e+06
8.91999e+06
8.35457e+06
7.86678e+06
7.46198e+06
7.14555e+06
6.92284e+06
6.79901e+06
6.77905e+06
6.86776e+06
7.06962e+06
7.38874e+06
7.82878e+06
8.3929e+06
9.08371e+06
9.9032e+06
1.08527e+07
1.19328e+07
1.31432e+07
1.44832e+07
1.59511e+07
1.75445e+07
1.92605e+07
2.10956e+07
2.30454e+07
2.5105e+07
2.7269e+07
2.95315e+07
3.18864e+07
3.43271e+07
3.68469e+07
3.94389e+07
4.20958e+07
4.48103e+07
4.75749e+07
5.03821e+07
5.32241e+07
5.60931e+07
5.89813e+07
6.18801e+07
6.47812e+07
6.76762e+07
7.05556e+07
7.34103e+07
7.62306e+07
7.90066e+07
8.17281e+07
8.43844e+07
8.69652e+07
8.94608e+07
9.18617e+07
9.4159e+07
9.63442e+07
9.84101e+07
1.0035e+08
1.02161e+08
1.0384e+08
1.05382e+08
1.06787e+08
1.08056e+08
1.09189e+08
1.1019e+08
1.11063e+08
1.11814e+08
1.1245e+08
1.1298e+08
1.13413e+08
1.13759e+08
1.14029e+08
1.14236e+08
1.14392e+08
1.14513e+08
1.14614e+08
1.14716e+08
1.14839e+08
1.15006e+08
1.15246e+08
1.15589e+08
1.16068e+08
1.16719e+08
1.17586e+08
1.18714e+08
1.20152e+08
1.21951e+08
1.24162e+08
1.26841e+08
1.30039e+08
1.33804e+08
1.3818e+08
1.43206e+08
1.48916e+08
1.55337e+08
1.62484e+08
1.70363e+08
1.78973e+08
1.88303e+08
1.98332e+08
2.09041e+08
2.2039e+08
2.32339e+08
2.44835e+08
2.57845e+08
2.71317e+08
2.85198e+08
2.99419e+08
3.13922e+08
3.28639e+08
3.43482e+08
3.58355e+08
3.73155e+08
3.87756e+08
4.02009e+08
4.15749e+08
4.28784e+08
4.40885e+08
4.51827e+08
4.61373e+08
4.6927e+08
4.75267e+08
4.79131e+08
4.80663e+08
4.79726e+08
4.76191e+08
4.70009e+08
4.61201e+08
4.49899e+08
4.36309e+08
4.20742e+08
4.03489e+08
3.84917e+08
3.65311e+08
3.44995e+08
3.2422e+08
3.03176e+08
4.2896e+07
4.28665e+07
4.27906e+07
4.26672e+07
4.24967e+07
4.22793e+07
4.2015e+07
4.17038e+07
4.13456e+07
4.09406e+07
4.04892e+07
3.99922e+07
3.94501e+07
3.88639e+07
3.82347e+07
3.75639e+07
3.68529e+07
3.61035e+07
3.53175e+07
3.44968e+07
3.36433e+07
3.27589e+07
3.18459e+07
3.09064e+07
2.9943e+07
2.89584e+07
2.79555e+07
2.69369e+07
2.59056e+07
2.48644e+07
2.38162e+07
2.27639e+07
2.17106e+07
2.06595e+07
1.96137e+07
1.85768e+07
1.75522e+07
1.65436e+07
1.55548e+07
1.45896e+07
1.36522e+07
1.27468e+07
1.1878e+07
1.10502e+07
1.02684e+07
9.53728e+06
8.86213e+06
8.24809e+06
7.70042e+06
7.22448e+06
6.82559e+06
6.50907e+06
6.28022e+06
6.14418e+06
6.1059e+06
6.17012e+06
6.34128e+06
6.62341e+06
7.02011e+06
7.53449e+06
8.16909e+06
8.92583e+06
9.80598e+06
1.08101e+07
1.19381e+07
1.3189e+07
1.45612e+07
1.60524e+07
1.76597e+07
1.93796e+07
2.12079e+07
2.31399e+07
2.51703e+07
2.72935e+07
2.95035e+07
3.17941e+07
3.41587e+07
3.65907e+07
3.90829e+07
4.16285e+07
4.42201e+07
4.68504e+07
4.95119e+07
5.21971e+07
5.48982e+07
5.76071e+07
6.03157e+07
6.30156e+07
6.5698e+07
6.83539e+07
7.09741e+07
7.35493e+07
7.60698e+07
7.85259e+07
8.0908e+07
8.3207e+07
8.54144e+07
8.75223e+07
8.9523e+07
9.14103e+07
9.31787e+07
9.48247e+07
9.63455e+07
9.77399e+07
9.90076e+07
1.00149e+08
1.01166e+08
1.02062e+08
1.02841e+08
1.03508e+08
1.04069e+08
1.04533e+08
1.04907e+08
1.052e+08
1.05423e+08
1.05585e+08
1.05698e+08
1.05777e+08
1.05833e+08
1.05885e+08
1.0595e+08
1.06051e+08
1.06212e+08
1.06461e+08
1.06827e+08
1.07344e+08
1.08049e+08
1.08986e+08
1.10199e+08
1.11737e+08
1.13648e+08
1.15985e+08
1.18794e+08
1.22122e+08
1.26012e+08
1.30501e+08
1.35623e+08
1.41403e+08
1.47859e+08
1.54997e+08
1.62819e+08
1.71316e+08
1.80473e+08
1.90271e+08
2.00677e+08
2.11657e+08
2.23163e+08
2.35163e+08
2.4761e+08
2.60454e+08
2.73633e+08
2.87092e+08
3.00762e+08
3.14562e+08
3.28405e+08
3.42192e+08
3.55807e+08
3.69106e+08
3.81938e+08
3.94131e+08
4.05471e+08
4.15754e+08
4.24766e+08
4.32288e+08
4.38089e+08
4.41953e+08
4.43705e+08
4.43225e+08
4.40385e+08
4.3513e+08
4.27465e+08
4.17507e+08
4.05426e+08
3.91486e+08
3.75931e+08
3.59087e+08
3.41193e+08
3.2255e+08
3.03398e+08
2.83963e+08
3.8822e+07
3.88e+07
3.87374e+07
3.86342e+07
3.84904e+07
3.83061e+07
3.8081e+07
3.7815e+07
3.75079e+07
3.71601e+07
3.67716e+07
3.63428e+07
3.58742e+07
3.53664e+07
3.48202e+07
3.42367e+07
3.3617e+07
3.29623e+07
3.2274e+07
3.15535e+07
3.08023e+07
3.0022e+07
2.92143e+07
2.83812e+07
2.75248e+07
2.66474e+07
2.57513e+07
2.48388e+07
2.39123e+07
2.29743e+07
2.20272e+07
2.10736e+07
2.01163e+07
1.9158e+07
1.82017e+07
1.72504e+07
1.63074e+07
1.5376e+07
1.44597e+07
1.35623e+07
1.26876e+07
1.18397e+07
1.10229e+07
1.02417e+07
9.50077e+06
8.80493e+06
8.15921e+06
7.56874e+06
7.03872e+06
6.57446e+06
6.18124e+06
5.86432e+06
5.62893e+06
5.48017e+06
5.42297e+06
5.462e+06
5.60164e+06
5.84583e+06
6.19812e+06
6.66155e+06
7.23857e+06
7.93103e+06
8.74016e+06
9.66651e+06
1.07099e+07
1.18693e+07
1.31433e+07
1.45294e+07
1.60249e+07
1.76263e+07
1.93296e+07
2.11302e+07
2.3023e+07
2.50026e+07
2.70631e+07
2.91986e+07
3.14028e+07
3.36692e+07
3.59911e+07
3.83617e+07
4.0774e+07
4.32211e+07
4.56956e+07
4.81901e+07
5.06972e+07
5.32091e+07
5.57179e+07
5.82155e+07
6.06936e+07
6.31436e+07
6.55568e+07
6.79244e+07
7.02373e+07
7.24869e+07
7.46644e+07
7.67615e+07
7.87705e+07
8.06844e+07
8.24965e+07
8.42015e+07
8.57946e+07
8.72727e+07
8.86339e+07
8.98777e+07
9.10049e+07
9.20162e+07
9.29136e+07
9.37003e+07
9.43805e+07
9.49588e+07
9.5441e+07
9.58337e+07
9.61432e+07
9.63777e+07
9.65466e+07
9.6659e+07
9.67247e+07
9.6755e+07
9.6762e+07
9.67597e+07
9.67644e+07
9.67963e+07
9.68757e+07
9.70272e+07
9.72784e+07
9.76587e+07
9.82014e+07
9.8946e+07
9.99341e+07
1.01211e+08
1.02823e+08
1.04816e+08
1.07235e+08
1.10125e+08
1.13527e+08
1.17478e+08
1.22011e+08
1.27152e+08
1.32917e+08
1.39317e+08
1.46354e+08
1.54025e+08
1.62315e+08
1.71211e+08
1.80684e+08
1.90705e+08
2.01232e+08
2.12238e+08
2.23674e+08
2.35493e+08
2.47641e+08
2.60064e+08
2.72695e+08
2.8546e+08
2.98274e+08
3.11046e+08
3.23663e+08
3.35991e+08
3.47893e+08
3.5921e+08
3.6975e+08
3.79327e+08
3.87749e+08
3.94825e+08
4.00353e+08
4.04136e+08
4.06025e+08
4.05907e+08
4.03667e+08
3.99242e+08
3.92634e+08
3.8394e+08
3.73298e+08
3.60934e+08
3.47048e+08
3.31919e+08
3.15745e+08
2.98799e+08
2.81311e+08
2.63534e+08
3.49677e+07
3.49524e+07
3.49022e+07
3.48176e+07
3.46987e+07
3.45452e+07
3.43568e+07
3.41332e+07
3.38743e+07
3.358e+07
3.32504e+07
3.28855e+07
3.24857e+07
3.20514e+07
3.15831e+07
3.10815e+07
3.05473e+07
2.99813e+07
2.93846e+07
2.87582e+07
2.81033e+07
2.74209e+07
2.67126e+07
2.59798e+07
2.52244e+07
2.44481e+07
2.36528e+07
2.28405e+07
2.20131e+07
2.11726e+07
2.03211e+07
1.94611e+07
1.85947e+07
1.77244e+07
1.68529e+07
1.5983e+07
1.51174e+07
1.42593e+07
1.34119e+07
1.25788e+07
1.17636e+07
1.09703e+07
1.0203e+07
9.46609e+06
8.76405e+06
8.10168e+06
7.48389e+06
6.91573e+06
6.40233e+06
5.94893e+06
5.56075e+06
5.243e+06
5.00087e+06
4.83943e+06
4.76352e+06
4.77776e+06
4.88645e+06
5.09349e+06
5.4023e+06
5.81582e+06
6.33643e+06
6.96592e+06
7.70544e+06
8.55541e+06
9.51563e+06
1.05852e+07
1.17624e+07
1.30451e+07
1.44303e+07
1.59147e+07
1.74943e+07
1.91648e+07
2.09212e+07
2.27583e+07
2.46704e+07
2.66517e+07
2.86962e+07
3.07975e+07
3.29493e+07
3.51452e+07
3.73783e+07
3.96419e+07
4.1929e+07
4.42323e+07
4.65448e+07
4.88589e+07
5.1167e+07
5.34616e+07
5.57346e+07
5.79779e+07
6.01835e+07
6.23429e+07
6.44482e+07
6.64914e+07
6.84644e+07
7.036e+07
7.21712e+07
7.38919e+07
7.55162e+07
7.704e+07
7.84592e+07
7.97709e+07
8.09744e+07
8.20695e+07
8.30573e+07
8.39391e+07
8.47167e+07
8.53935e+07
8.59734e+07
8.64609e+07
8.68612e+07
8.71795e+07
8.74212e+07
8.75932e+07
8.77041e+07
8.77622e+07
8.77755e+07
8.77539e+07
8.77077e+07
8.76486e+07
8.75912e+07
8.75526e+07
8.75505e+07
8.76063e+07
8.77444e+07
8.79918e+07
8.83781e+07
8.89391e+07
8.97124e+07
9.07394e+07
9.20623e+07
9.37242e+07
9.57676e+07
9.82355e+07
1.01168e+08
1.04601e+08
1.08567e+08
1.1309e+08
1.1819e+08
1.2388e+08
1.30165e+08
1.37043e+08
1.44503e+08
1.52538e+08
1.61121e+08
1.70227e+08
1.79821e+08
1.89877e+08
2.00351e+08
2.11193e+08
2.22354e+08
2.33783e+08
2.45416e+08
2.57183e+08
2.69002e+08
2.80783e+08
2.92419e+08
3.03785e+08
3.14759e+08
3.25191e+08
3.34911e+08
3.4375e+08
3.51537e+08
3.58106e+08
3.63285e+08
3.66898e+08
3.68822e+08
3.68953e+08
3.67189e+08
3.63468e+08
3.57791e+08
3.50235e+08
3.40913e+08
3.30018e+08
3.1771e+08
3.0422e+08
2.89716e+08
2.74433e+08
2.58591e+08
2.42464e+08
3.14846e+07
3.1475e+07
3.14354e+07
3.13673e+07
3.12706e+07
3.11448e+07
3.09894e+07
3.08041e+07
3.05887e+07
3.03427e+07
3.00662e+07
2.97591e+07
2.94214e+07
2.90533e+07
2.86551e+07
2.82272e+07
2.77699e+07
2.72838e+07
2.67696e+07
2.62279e+07
2.56596e+07
2.50655e+07
2.44468e+07
2.38045e+07
2.31402e+07
2.24551e+07
2.17509e+07
2.10289e+07
2.02909e+07
1.95385e+07
1.87735e+07
1.79979e+07
1.72137e+07
1.64229e+07
1.5628e+07
1.48315e+07
1.40358e+07
1.32439e+07
1.24589e+07
1.16839e+07
1.09226e+07
1.01787e+07
9.45615e+06
8.75919e+06
8.09228e+06
7.46008e+06
6.86742e+06
6.31927e+06
5.82066e+06
5.37676e+06
4.99274e+06
4.67376e+06
4.42495e+06
4.25133e+06
4.15772e+06
4.14862e+06
4.22826e+06
4.40042e+06
4.66845e+06
5.03514e+06
5.50279e+06
6.0731e+06
6.74709e+06
7.52515e+06
8.40696e+06
9.39154e+06
1.04772e+07
1.16618e+07
1.29423e+07
1.43154e+07
1.57772e+07
1.73235e+07
1.89495e+07
2.065e+07
2.24196e+07
2.42526e+07
2.61432e+07
2.80853e+07
3.00726e+07
3.20991e+07
3.41582e+07
3.62435e+07
3.83481e+07
4.04651e+07
4.25877e+07
4.47087e+07
4.68209e+07
4.89171e+07
5.09896e+07
5.3031e+07
5.50337e+07
5.69901e+07
5.88928e+07
6.07345e+07
6.25082e+07
6.42072e+07
6.58255e+07
6.73578e+07
6.87996e+07
7.0147e+07
7.1397e+07
7.25474e+07
7.35977e+07
7.45483e+07
7.54004e+07
7.61555e+07
7.68156e+07
7.73838e+07
7.78639e+07
7.82601e+07
7.8577e+07
7.88186e+07
7.89901e+07
7.90976e+07
7.9148e+07
7.91483e+07
7.91062e+07
7.90294e+07
7.89275e+07
7.88102e+07
7.86905e+07
7.85826e+07
7.85019e+07
7.84667e+07
7.84987e+07
7.86222e+07
7.88641e+07
7.92559e+07
7.98315e+07
8.06275e+07
8.16828e+07
8.30382e+07
8.47333e+07
8.68087e+07
8.93034e+07
9.22528e+07
9.56876e+07
9.96342e+07
1.04115e+08
1.09143e+08
1.14725e+08
1.20866e+08
1.27556e+08
1.3479e+08
1.42549e+08
1.50807e+08
1.59538e+08
1.68713e+08
1.78294e+08
1.88232e+08
1.98474e+08
2.08974e+08
2.19674e+08
2.305e+08
2.41376e+08
2.52211e+08
2.62903e+08
2.73336e+08
2.83399e+08
2.92951e+08
3.01847e+08
3.0993e+08
3.17049e+08
3.23058e+08
3.27819e+08
3.31171e+08
3.33021e+08
3.33279e+08
3.31855e+08
3.28698e+08
3.23805e+08
3.17234e+08
3.09084e+08
2.99512e+08
2.88649e+08
2.7668e+08
2.63748e+08
2.50049e+08
2.3579e+08
2.21258e+08
2.84827e+07
2.84772e+07
2.84463e+07
2.83921e+07
2.83143e+07
2.82123e+07
2.80855e+07
2.79335e+07
2.77557e+07
2.75519e+07
2.73217e+07
2.70648e+07
2.67811e+07
2.64706e+07
2.61332e+07
2.57691e+07
2.53784e+07
2.49615e+07
2.45185e+07
2.405e+07
2.35565e+07
2.30387e+07
2.24972e+07
2.1933e+07
2.13472e+07
2.07408e+07
2.01149e+07
1.94708e+07
1.88097e+07
1.81331e+07
1.74425e+07
1.67395e+07
1.60258e+07
1.53034e+07
1.45743e+07
1.38407e+07
1.31051e+07
1.23701e+07
1.16385e+07
1.09135e+07
1.01984e+07
9.49691e+06
8.81275e+06
8.15007e+06
7.51324e+06
6.90682e+06
6.33556e+06
5.80435e+06
5.31816e+06
4.88206e+06
4.50119e+06
4.18066e+06
3.92553e+06
3.74077e+06
3.63108e+06
3.60091e+06
3.65439e+06
3.79523e+06
4.02661e+06
4.35125e+06
4.77127e+06
5.28826e+06
5.90313e+06
6.61614e+06
7.42688e+06
8.33426e+06
9.33657e+06
1.04315e+07
1.16162e+07
1.28871e+07
1.42405e+07
1.56722e+07
1.71774e+07
1.87511e+07
2.03881e+07
2.20828e+07
2.38294e+07
2.56221e+07
2.74548e+07
2.93215e+07
3.12161e+07
3.31324e+07
3.50638e+07
3.70037e+07
3.89455e+07
4.08824e+07
4.28076e+07
4.47141e+07
4.65951e+07
4.84434e+07
5.02521e+07
5.20142e+07
5.3723e+07
5.53719e+07
5.69546e+07
5.84655e+07
5.98992e+07
6.12514e+07
6.25186e+07
6.36973e+07
6.47854e+07
6.57813e+07
6.6685e+07
6.74967e+07
6.82182e+07
6.88508e+07
6.93966e+07
6.98588e+07