/*--------------------------------*- C++ -*----------------------------------*\
| =========                 |                                                 |
| \\      /  F ield         | OpenFOAM: The Open Source CFD Toolbox           |
|  \\    /   O peration     | Version:  dev                                   |
|   \\  /    A nd           | Web:      http://www.openfoam.org               |
|    \\/     M anipulation  |                                                 |
\*---------------------------------------------------------------------------*/
FoamFile
{
    version     2.0;
    format      ascii;
    class       volScalarField;
    object      rho;
    location    "9.149";
}
// * * * * * * * * * * * * * * * * * * * * * * * * * * * * * * * * * * * * * //

dimensions      [1 -3 0 0 0 0 0];

internalField   nonuniform List<scalar> 
12225
(
1.05469
1.05791
1.05947
1.06161
1.06491
1.0678
1.07167
1.07521
1.07929
1.08354
1.0873
1.09272
1.09544
1.10193
1.10669
1.10745
1.12181
1.12023
1.05777
1.06003
1.06228
1.06532
1.06981
1.07352
1.07793
1.08232
1.08572
1.09151
1.09277
1.10146
1.09983
1.10992
1.11298
1.11339
1.1254
1.126
1.05743
1.05929
1.06235
1.06529
1.07055
1.07438
1.07937
1.08452
1.08788
1.09502
1.09614
1.10451
1.10511
1.1138
1.11448
1.12264
1.12482
1.13205
1.05813
1.05884
1.06277
1.06482
1.07077
1.07391
1.0794
1.08389
1.08856
1.094
1.09852
1.10252
1.10769
1.11233
1.11647
1.12115
1.12452
1.12907
1.05949
1.05868
1.06351
1.0642
1.07145
1.07318
1.07975
1.08272
1.08893
1.09367
1.0985
1.10166
1.10708
1.11223
1.11659
1.11985
1.12487
1.12936
1.06013
1.05945
1.06443
1.06494
1.07202
1.07308
1.08064
1.08254
1.09053
1.09417
1.09846
1.10054
1.1074
1.11217
1.11726
1.11988
1.12532
1.12811
1.0607
1.06043
1.06496
1.06606
1.0726
1.0732
1.08125
1.08326
1.09127
1.09379
1.09861
1.10086
1.10745
1.11246
1.11691
1.1203
1.12442
1.12755
1.06162
1.06121
1.0657
1.06683
1.07325
1.07412
1.08206
1.08432
1.09088
1.09351
1.09903
1.10182
1.10819
1.11221
1.11635
1.11984
1.12354
1.12663
1.06239
1.06218
1.06656
1.06738
1.07373
1.07535
1.08285
1.08488
1.09097
1.09361
1.09925
1.10213
1.10817
1.11184
1.11563
1.11924
1.12308
1.12554
1.06356
1.06353
1.06755
1.06825
1.07441
1.07658
1.08313
1.08541
1.09137
1.094
1.0989
1.10252
1.10744
1.11097
1.11537
1.11794
1.1216
1.12433
1.06531
1.06541
1.06895
1.07013
1.07558
1.07776
1.08361
1.08607
1.09102
1.09453
1.09883
1.1019
1.10723
1.11069
1.11386
1.11724
1.11993
1.12265
1.06755
1.068
1.07062
1.07221
1.07672
1.07918
1.08406
1.08712
1.09133
1.09458
1.09885
1.10248
1.10631
1.10964
1.11317
1.11585
1.11853
1.12086
1.07011
1.07109
1.07302
1.07502
1.07849
1.08123
1.08516
1.08834
1.09203
1.09541
1.09871
1.10255
1.10579
1.10868
1.11164
1.11436
1.11703
1.11912
1.07422
1.07523
1.07627
1.07829
1.08105
1.08394
1.08721
1.09032
1.09336
1.09651
1.0996
1.10267
1.10518
1.10828
1.11096
1.11326
1.11532
1.11757
1.07948
1.08034
1.08097
1.0828
1.08506
1.08762
1.09031
1.09298
1.09562
1.09842
1.10098
1.10365
1.10606
1.10863
1.11068
1.11286
1.11483
1.11668
1.08663
1.08699
1.08719
1.08866
1.0905
1.09263
1.09477
1.09694
1.09914
1.10139
1.10361
1.10577
1.10792
1.10986
1.11159
1.11346
1.11498
1.11661
1.09571
1.09558
1.09558
1.09675
1.09822
1.09986
1.10158
1.10331
1.10499
1.10662
1.10853
1.11036
1.112
1.11355
1.11533
1.11682
1.11823
1.11961
1.10607
1.10583
1.10574
1.10667
1.10785
1.10922
1.11075
1.11217
1.11341
1.11474
1.11665
1.11816
1.11917
1.12052
1.12204
1.12337
1.12494
1.12594
1.11611
1.11574
1.11572
1.11675
1.11794
1.1193
1.12082
1.12222
1.12311
1.1242
1.12639
1.12809
1.12872
1.12982
1.13133
1.13259
1.13425
1.13519
1.12477
1.12457
1.12466
1.12579
1.12709
1.12852
1.1302
1.13187
1.13272
1.13366
1.13617
1.1382
1.13879
1.13987
1.14106
1.14182
1.14363
1.14461
1.13202
1.13168
1.13211
1.13355
1.13509
1.13652
1.1386
1.14077
1.14168
1.14251
1.14519
1.14731
1.14823
1.14925
1.14986
1.15052
1.15209
1.15308
1.1378
1.13777
1.13846
1.14024
1.142
1.14341
1.14565
1.1479
1.14917
1.1504
1.15242
1.15427
1.15581
1.15696
1.15774
1.15853
1.15982
1.16082
1.14233
1.14231
1.14325
1.14521
1.14736
1.14927
1.1511
1.15331
1.15554
1.15688
1.15846
1.16036
1.16172
1.16307
1.16451
1.16543
1.16645
1.16717
1.14571
1.14622
1.14736
1.14921
1.15155
1.15378
1.15572
1.15773
1.15994
1.16179
1.16357
1.16505
1.16639
1.1678
1.1692
1.17034
1.17144
1.17229
1.14821
1.14875
1.15011
1.15221
1.15453
1.15676
1.15898
1.16103
1.16299
1.16519
1.16698
1.16844
1.17012
1.17143
1.17276
1.17397
1.17488
1.17581
1.15037
1.15076
1.1519
1.15394
1.1563
1.15867
1.16104
1.16343
1.16555
1.16738
1.16921
1.17092
1.17255
1.174
1.17528
1.17637
1.17734
1.17818
1.1516
1.15205
1.15337
1.15552
1.15785
1.16031
1.16279
1.16512
1.16731
1.16929
1.17112
1.1728
1.17439
1.17584
1.17715
1.1783
1.17927
1.18007
1.15236
1.15272
1.15408
1.15638
1.15887
1.16143
1.16401
1.16647
1.16872
1.17075
1.17261
1.17428
1.17581
1.17714
1.17832
1.17928
1.1801
1.18065
1.15295
1.15344
1.15476
1.15702
1.15955
1.16209
1.16457
1.1668
1.16881
1.17059
1.17214
1.17349
1.17465
1.17558
1.17636
1.17695
1.17745
1.1776
1.15285
1.15374
1.15452
1.15588
1.15749
1.15911
1.16066
1.16208
1.16343
1.16467
1.16582
1.16688
1.16783
1.16868
1.16944
1.17011
1.17067
1.17107
1.25772
1.27248
1.26662
1.2616
1.25637
1.25513
1.25241
1.25226
1.2506
1.24951
1.24758
1.24566
1.24358
1.2414
1.23946
1.23745
1.23538
1.23347
1.23193
1.23097
1.23006
1.22876
1.22711
1.22543
1.22387
1.22219
1.21992
1.21697
1.21458
1.21386
1.21361
1.21057
1.20595
1.20453
1.2027
1.19824
1.19615
1.19222
1.18816
1.18637
1.18118
1.17852
1.17494
1.16797
1.16331
1.15731
1.15448
1.15515
1.1531
1.14998
1.14695
1.14213
1.1362
1.12805
1.12133
1.12152
1.12637
1.12847
1.12658
1.12425
1.12408
1.12316
1.11919
1.11699
1.11724
1.11776
1.11673
1.11495
1.11076
1.10503
1.09806
1.08944
1.08409
1.08547
1.087
1.07547
1.05921
1.05716
1.06572
1.07089
1.07206
1.07237
1.07241
1.07274
1.07358
1.07454
1.07522
1.07555
1.07563
1.07573
1.07597
1.07658
1.07773
1.07955
1.08196
1.08453
1.08667
1.08838
1.09032
1.0927
1.09432
1.0966
1.0988
1.10135
1.10455
1.10507
1.10816
1.10855
1.10963
1.11196
1.11511
1.11652
1.11645
1.11605
1.11745
1.12031
1.12114
1.12053
1.12189
1.1233
1.1234
1.12605
1.13272
1.13726
1.13708
1.13712
1.13869
1.13662
1.13534
1.14065
1.14228
1.13989
1.13547
1.13517
1.13688
1.1326
1.12494
1.11797
1.11469
1.12138
1.11542
1.11382
1.10696
1.10089
1.09717
1.09602
1.10171
1.10953
1.11096
1.10514
1.09137
1.08326
1.08031
1.08026
1.0865
1.11902
1.13765
1.09807
1.09334
1.08714
1.09802
1.11806
1.14704
1.15358
1.15967
1.14507
1.13261
1.12404
1.11013
1.10658
1.09915
1.08951
1.07014
1.09023
1.08808
1.07435
1.11007
1.08772
1.04285
1.03066
1.26384
1.28307
1.26121
1.25355
1.2449
1.24069
1.23959
1.23946
1.23912
1.23834
1.23664
1.23482
1.23377
1.23335
1.23298
1.23249
1.23215
1.23183
1.23218
1.23337
1.23455
1.23494
1.23445
1.23339
1.23255
1.23188
1.23039
1.2267
1.22385
1.22493
1.22592
1.22117
1.21663
1.21785
1.21629
1.21131
1.20963
1.20597
1.20158
1.19943
1.19642
1.19255
1.18822
1.18536
1.17872
1.16823
1.16387
1.15503
1.13992
1.14987
1.16804
1.16549
1.15703
1.14602
1.1375
1.13674
1.14011
1.14313
1.14185
1.13753
1.13781
1.13917
1.13195
1.12556
1.12409
1.12785
1.12569
1.12504
1.12778
1.11571
1.10823
1.11233
1.10003
1.09001
1.09959
1.10437
1.10041
1.09971
1.09998
1.09869
1.09798
1.0974
1.09609
1.09367
1.09121
1.08868
1.08682
1.08521
1.08374
1.08239
1.08096
1.08027
1.08071
1.08249
1.08544
1.08845
1.08976
1.0901
1.09115
1.09645
1.09538
1.09742
1.09595
1.09902
1.10861
1.10411
1.11365
1.1117
1.10958
1.10791
1.12386
1.13781
1.14505
1.13396
1.11621
1.12086
1.14504
1.15851
1.15103
1.1551
1.17086
1.16227
1.15628
1.1828
1.20386
1.18568
1.16377
1.16407
1.16472
1.15728
1.14912
1.1614
1.18915
1.20246
1.21595
1.22454
1.20603
1.17573
1.16118
1.17983
1.18173
1.18631
1.17416
1.1614
1.15413
1.15856
1.17278
1.17345
1.17308
1.17561
1.16771
1.15718
1.15315
1.14898
1.17544
1.26614
1.31345
1.24771
1.23019
1.2002
1.21837
1.27524
1.34082
1.35306
1.3717
1.35492
1.33727
1.31756
1.26754
1.24714
1.22568
1.20876
1.18406
1.26879
1.23901
1.24094
1.22019
1.27984
1.16078
1.10807
1.25498
1.29517
1.2782
1.25895
1.24525
1.23806
1.23697
1.23905
1.24097
1.24055
1.23841
1.2371
1.2395
1.24433
1.24712
1.24832
1.24979
1.25035
1.25081
1.25028
1.24845
1.24566
1.24217
1.23804
1.23462
1.23153
1.2292
1.22643
1.22388
1.2222
1.21983
1.2181
1.21953
1.21709
1.21037
1.21083
1.21063
1.20428
1.20445
1.20418
1.19863
1.20193
1.20173
1.19581
1.20115
1.19378
1.18736
1.18146
1.16038
1.15893
1.14248
1.14279
1.16644
1.15906
1.14982
1.14788
1.1457
1.14619
1.14264
1.14127
1.14328
1.13842
1.13339
1.13658
1.13658
1.13935
1.13509
1.12471
1.11516
1.11208
1.11519
1.11657
1.11186
1.10934
1.1063
1.10189
1.09672
1.09161
1.08687
1.08315
1.08103
1.07899
1.07677
1.07417
1.07138
1.06885
1.06669
1.06472
1.06329
1.06208
1.061
1.06019
1.05933
1.05862
1.05827
1.05867
1.05893
1.05978
1.05968
1.06376
1.06147
1.06532
1.06014
1.06012
1.07047
1.06667
1.07347
1.07611
1.07548
1.06594
1.0698
1.08234
1.11434
1.12086
1.07562
1.04336
1.07922
1.14196
1.13096
1.10768
1.15499
1.17408
1.13782
1.15307
1.21928
1.22653
1.17546
1.13312
1.11115
1.09254
1.08171
1.08815
1.12554
1.17213
1.22626
1.27438
1.26289
1.21062
1.18106
1.20392
1.2209
1.20606
1.21004
1.20331
1.18673
1.17655
1.17682
1.14571
1.13658
1.14257
1.16632
1.17817
1.18286
1.17506
1.2245
1.32057
1.29868
1.28591
1.29035
1.26678
1.29092
1.36055
1.37656
1.35964
1.34546
1.36866
1.41423
1.41898
1.35717
1.33201
1.30327
1.29138
1.26829
1.35958
1.26382
1.27513
1.12073
1.29615
1.2278
1.17838
1.24062
1.29087
1.29713
1.28157
1.26271
1.2446
1.23685
1.23815
1.24104
1.24095
1.23858
1.24053
1.24913
1.25615
1.25504
1.25125
1.24817
1.24358
1.2383
1.23251
1.22715
1.22227
1.21827
1.21475
1.21244
1.21044
1.20984
1.2105
1.21225
1.2137
1.21341
1.21284
1.21232
1.20975
1.21041
1.2126
1.20403
1.19414
1.19397
1.18925
1.18136
1.18168
1.18211
1.18237
1.18939
1.18952
1.19547
1.19743
1.18784
1.18332
1.16564
1.14899
1.14548
1.16492
1.16848
1.14509
1.14326
1.14815
1.14813
1.14816
1.14879
1.13759
1.1331
1.1405
1.13843
1.13801
1.1333
1.13008
1.12772
1.12476
1.12355
1.11927
1.11355
1.10842
1.10321
1.09903
1.0946
1.09067
1.08808
1.08601
1.08465
1.08348
1.0822
1.08108
1.07969
1.07796
1.07589
1.0737
1.07124
1.06973
1.06848
1.06791
1.06785
1.06744
1.06701
1.06753
1.06655
1.06863
1.06568
1.07092
1.06756
1.07444
1.07119
1.06725
1.07105
1.07458
1.07378
1.07582
1.07799
1.08163
1.08368
1.06272
1.0701
1.11772
1.11258
1.03982
1.03727
1.12821
1.12295
1.06387
1.10568
1.16104
1.13192
1.11714
1.17595
1.23092
1.20625
1.1278
1.08362
1.08267
1.09015
1.08472
1.08573
1.1183
1.19449
1.28503
1.30912
1.22793
1.18979
1.18863
1.18471
1.17767
1.21661
1.2223
1.21854
1.19899
1.18976
1.14954
1.1271
1.11362
1.14491
1.17427
1.18275
1.18934
1.25162
1.34843
1.25773
1.28171
1.29781
1.29941
1.33728
1.39749
1.32655
1.28435
1.21741
1.24153
1.34818
1.42459
1.39863
1.38679
1.35739
1.35175
1.35414
1.35281
1.22732
1.25803
1.19211
1.11345
1.25195
1.25603
1.23094
1.27677
1.30103
1.2998
1.278
1.24438
1.23196
1.23225
1.23385
1.23462
1.24064
1.25243
1.25765
1.24869
1.23604
1.23169
1.2298
1.22595
1.22311
1.22051
1.2172
1.2141
1.21157
1.20976
1.20953
1.20979
1.21119
1.21384
1.21578
1.21767
1.21919
1.22187
1.22428
1.2227
1.22128
1.22106
1.21638
1.20949
1.2037
1.19404
1.18452
1.1793
1.17389
1.17135
1.17359
1.17744
1.18514
1.19108
1.19454
1.19416
1.19098
1.18064
1.15126
1.14377
1.16235
1.15985
1.15456
1.15276
1.15497
1.14643
1.14403
1.14403
1.13792
1.13321
1.12631
1.13439
1.13602
1.1308
1.12947
1.12375
1.11992
1.11401
1.10937
1.10474
1.10203
1.09911
1.09665
1.09482
1.09212
1.09005
1.08721
1.08387
1.08117
1.07759
1.07423
1.07041
1.06661
1.06378
1.06132
1.05962
1.05815
1.05647
1.05471
1.05445
1.05242
1.05443
1.0543
1.05762
1.05236
1.06076
1.05627
1.06832
1.06557
1.06402
1.06169
1.06475
1.06694
1.06956
1.07101
1.05958
1.0822
1.08541
1.05392
1.06597
1.12357
1.0956
1.04184
1.11101
1.14327
1.08326
1.08151
1.12606
1.12211
1.11191
1.1448
1.19868
1.2323
1.16979
1.09485
1.10335
1.16227
1.1651
1.11166
1.08629
1.16157
1.28256
1.33506
1.2612
1.19309
1.18578
1.19036
1.15544
1.17184
1.18652
1.21185
1.22028
1.2141
1.17041
1.13747
1.11295
1.14098
1.16799
1.17952
1.1926
1.26485
1.34799
1.22024
1.27649
1.30149
1.31978
1.36832
1.40893
1.24745
1.21073
1.15047
1.15578
1.24259
1.35891
1.39472
1.41354
1.39721
1.39602
1.42051
1.30778
1.20098
1.32597
1.26655
1.04551
1.32149
1.33867
1.22485
1.26548
1.30072
1.30592
1.26955
1.23249
1.22717
1.23045
1.23622
1.24978
1.26253
1.24902
1.22403
1.22414
1.23483
1.22958
1.21954
1.21429
1.20925
1.20463
1.20182
1.19966
1.19747
1.19592
1.19516
1.19525
1.19739
1.20038
1.20288
1.20684
1.20852
1.21076
1.21407
1.21808
1.22009
1.21927
1.21544
1.2137
1.21252
1.20628
1.19702
1.1898
1.18441
1.18146
1.18107
1.17899
1.17887
1.18663
1.1955
1.19554
1.20128
1.20063
1.18086
1.16113
1.15452
1.161
1.15275
1.14638
1.16723
1.16074
1.15223
1.15197
1.14323
1.1316
1.1228
1.12742
1.12635
1.12332
1.12192
1.11784
1.11552
1.11069
1.10854
1.10597
1.10423
1.10199
1.09951
1.09679
1.09388
1.09004
1.08637
1.08264
1.07919
1.07525
1.07136
1.06676
1.06259
1.0586
1.0559
1.05459
1.05332
1.05387
1.0508
1.05376
1.05221
1.05209
1.05133
1.05521
1.05197
1.05779
1.0509
1.06204
1.05879
1.06392
1.06528
1.06694
1.06959
1.06354
1.07458
1.06829
1.06608
1.07292
1.07977
1.0589
1.0774
1.10181
1.05709
1.06824
1.1158
1.10696
1.09841
1.10927
1.10321
1.104
1.12902
1.16088
1.22213
1.21793
1.14932
1.12005
1.1699
1.23417
1.18275
1.07534
1.11551
1.2682
1.3385
1.29773
1.21794
1.1963
1.19566
1.17582
1.17438
1.16375
1.17358
1.20906
1.22652
1.19837
1.15853
1.10908
1.1505
1.1663
1.18674
1.18747
1.26178
1.33516
1.1866
1.27267
1.29197
1.33256
1.39411
1.40927
1.19622
1.13697
1.10349
1.12327
1.17266
1.27488
1.36341
1.41791
1.4242
1.42977
1.45882
1.27244
1.17205
1.34573
1.18226
1.18129
1.33222
1.37956
1.21932
1.25657
1.29309
1.28791
1.2428
1.22391
1.22586
1.22886
1.2392
1.24933
1.23925
1.22966
1.23291
1.21325
1.19407
1.20012
1.20284
1.20066
1.20246
1.20359
1.20262
1.20092
1.19952
1.19871
1.19746
1.19712
1.19854
1.1994
1.20215
1.20546
1.20772
1.21111
1.21322
1.21545
1.21816
1.22174
1.22307
1.22145
1.21985
1.21767
1.21442
1.21131
1.20636
1.20107
1.19762
1.1905
1.18564
1.18654
1.19013
1.18967
1.1969
1.20094
1.19734
1.18519
1.15522
1.15246
1.15492
1.14917
1.16261
1.16655
1.15085
1.14501
1.14138
1.12825
1.12201
1.12785
1.12914
1.12571
1.12495
1.12077
1.11983
1.11688
1.11703
1.11472
1.11308
1.10869
1.10571
1.10047
1.09628
1.09109
1.0864
1.08158
1.07634
1.0702
1.06491
1.05841
1.05367
1.04961
1.04647
1.04748
1.04801
1.05268
1.04822
1.04944
1.04811
1.04828
1.04789
1.04763
1.04671
1.04817
1.04935
1.05604
1.05888
1.05767
1.06167
1.06154
1.07227
1.07802
1.07144
1.06435
1.08412
1.06795
1.07257
1.07653
1.06443
1.08938
1.07672
1.06083
1.08457
1.09837
1.09923
1.09596
1.08721
1.09366
1.10657
1.13197
1.18175
1.22146
1.20034
1.16227
1.17608
1.25352
1.23439
1.09274
1.05254
1.21616
1.33076
1.30918
1.23421
1.22809
1.22734
1.22231
1.21386
1.18475
1.15944
1.17647
1.20372
1.20642
1.17926
1.10897
1.16263
1.16723
1.17824
1.18284
1.26199
1.31785
1.16329
1.25789
1.15878
1.33834
1.41208
1.35376
1.21232
1.1643
1.12111
1.12917
1.14369
1.19456
1.31618
1.40839
1.43656
1.45462
1.47949
1.24891
1.17284
1.34393
1.20211
1.20965
1.25716
1.38838
1.2129
1.24623
1.27727
1.25812
1.222
1.21932
1.23307
1.2564
1.2546
1.21662
1.19286
1.20224
1.20606
1.20767
1.21172
1.20708
1.21108
1.2121
1.20559
1.20426
1.20152
1.19838
1.19689
1.19476
1.19129
1.19049
1.19003
1.1896
1.19268
1.19474
1.19687
1.19923
1.20072
1.20286
1.20429
1.20542
1.20769
1.20791
1.20858
1.20983
1.2096
1.20873
1.20691
1.20659
1.20531
1.20173
1.20224
1.20027
1.20302
1.20735
1.20384
1.20029
1.19766
1.19689
1.17539
1.16095
1.15979
1.15557
1.15636
1.16528
1.15787
1.14638
1.144
1.13484
1.12768
1.13363
1.13447
1.12971
1.12907
1.12584
1.12667
1.12264
1.12134
1.11445
1.10735
1.09849
1.09149
1.08346
1.07748
1.07105
1.06543
1.05987
1.05534
1.05181
1.05074
1.04982
1.05043
1.05193
1.05254
1.05209
1.05243
1.06079
1.05675
1.05779
1.05491
1.05688
1.06015
1.05934
1.05713
1.0486
1.05373
1.0522
1.05876
1.05685
1.06263
1.06796
1.06216
1.06673
1.08948
1.06774
1.07378
1.07258
1.07037
1.08077
1.06112
1.07797
1.08336
1.0702
1.07329
1.08914
1.08595
1.0842
1.0951
1.07913
1.05594
1.11164
1.14977
1.1812
1.15128
1.10881
1.15431
1.24599
1.23784
1.1224
1.01152
1.1216
1.29488
1.28754
1.23314
1.16548
1.11349
1.13157
1.18923
1.19509
1.16343
1.1495
1.15837
1.18662
1.18897
1.11598
1.1641
1.17454
1.1568
1.18203
1.26868
1.28642
1.15381
1.28976
1.08254
1.32911
1.43924
1.31613
1.22263
1.22963
1.17085
1.16776
1.16473
1.14495
1.26505
1.3861
1.43483
1.46693
1.5002
1.23179
1.1777
1.3391
1.29695
1.20252
1.18625
1.37842
1.20456
1.22734
1.24821
1.22858
1.21026
1.21729
1.22886
1.24241
1.23229
1.21
1.20638
1.20042
1.20347
1.21182
1.19643
1.19238
1.19912
1.19583
1.19815
1.19705
1.19685
1.19734
1.1973
1.19565
1.19382
1.19332
1.18928
1.18719
1.18632
1.18581
1.18771
1.18939
1.19018
1.19037
1.18959
1.18884
1.18867
1.18857
1.18595
1.18445
1.18364
1.1826
1.18153
1.18039
1.18069
1.18411
1.18995
1.1892
1.19425
1.20609
1.20048
1.20323
1.20499
1.20221
1.19234
1.17257
1.16033
1.15249
1.14598
1.15906
1.16114
1.15028
1.14774
1.1387
1.12951
1.13778
1.1405
1.13591
1.13506
1.13067
1.12838
1.12174
1.11518
1.1036
1.09479
1.08831
1.08516
1.08252
1.08041
1.07649
1.07282
1.0687
1.06419
1.06236
1.06145
1.0629
1.06464
1.06426
1.06476
1.06439
1.05565
1.0599
1.05986
1.06395
1.05816
1.06244
1.0673
1.06635
1.07484
1.0656
1.06832
1.0656
1.06929
1.07255
1.06637
1.06505
1.07876
1.07108
1.0743
1.08025
1.0875
1.07098
1.07014
1.08388
1.06095
1.07372
1.0813
1.06521
1.06979
1.09466
1.07018
1.06455
1.11916
1.0739
1.00747
1.07352
1.1367
1.16105
1.0614
1.0041
1.08948
1.18899
1.19111
1.10091
1.00048
1.0714
1.26299
1.2685
1.25363
1.16812
1.07629
1.02652
1.07238
1.11948
1.1177
1.1165
1.1368
1.18663
1.19096
1.11156
1.15987
1.1781
1.13665
1.17643
1.28185
1.2688
1.12616
1.3182
1.16167
1.29263
1.32074
1.26031
1.17082
1.20878
1.14345
1.15577
1.18035
1.1159
1.22009
1.35678
1.42867
1.46547
1.51875
1.23523
1.17465
1.29153
1.3676
1.24982
1.14534
1.35897
1.19798
1.21489
1.22883
1.2161
1.21284
1.22639
1.23605
1.22197
1.20996
1.20295
1.19385
1.18719
1.1939
1.20451
1.19918
1.19724
1.19728
1.20265
1.19983
1.19618
1.19811
1.19393
1.19666
1.19401
1.19516
1.19543
1.19377
1.1951
1.19326
1.19207
1.19204
1.1924
1.19462
1.19691
1.19849
1.1984
1.19662
1.19649
1.19638
1.19476
1.19259
1.18909
1.18464
1.18014
1.17767
1.17694
1.17505
1.17093
1.17573
1.18796
1.18388
1.1892
1.19988
1.19635
1.19847
1.18826
1.17131
1.15754
1.14322
1.15138
1.15575
1.14778
1.15017
1.1465
1.13352
1.13951
1.14418
1.13889
1.13655
1.1296
1.12395
1.11251
1.10295
1.09124
1.08902
1.09041
1.09169
1.09151
1.08862
1.08302
1.07792
1.07474
1.07146
1.07137
1.07016
1.07003
1.07169
1.07139
1.06457
1.06587
1.05898
1.05704
1.05404
1.06161
1.05978
1.05758
1.06883
1.06961
1.07557
1.08122
1.07748
1.07494
1.0735
1.07555
1.08212
1.07269
1.06237
1.07646
1.08111
1.06766
1.08954
1.07329
1.07207
1.08551
1.06472
1.07557
1.08082
1.05718
1.07624
1.10306
1.05669
1.05028
1.13158
1.07841
1.0075
1.05595
1.13434
1.14826
1.04525
1.01922
1.08893
1.14641
1.1426
1.05979
1.01193
1.08245
1.26092
1.26781
1.26596
1.20211
1.12347
1.06193
1.04644
1.07236
1.07996
1.09731
1.11582
1.16253
1.17261
1.10949
1.15727
1.17595
1.12419
1.17261
1.30175
1.25018
1.10387
1.27026
1.14118
1.20624
1.16802
1.19233
1.12697
1.17259
1.12367
1.13391
1.18496
1.09571
1.18479
1.3278
1.42481
1.45758
1.53155
1.27091
1.18243
1.23104
1.38431
1.26458
1.12506
1.33352
1.19095
1.20299
1.21604
1.21661
1.22654
1.22298
1.21465
1.20169
1.19108
1.20167
1.19718
1.18851
1.19907
1.19709
1.19596
1.19336
1.18812
1.18989
1.18212
1.1871
1.18126
1.18075
1.18112
1.17902
1.18162
1.18085
1.18241
1.18354
1.18418
1.18514
1.18379
1.18128
1.17951
1.17864
1.17972
1.18175
1.18293
1.18249
1.18342
1.18455
1.18512
1.1843
1.18133
1.17819
1.17628
1.17642
1.17608
1.17305
1.17625
1.17662
1.16663
1.16584
1.18415
1.19002
1.20366
1.20874
1.19154
1.17593
1.153
1.14609
1.14669
1.14355
1.14921
1.1516
1.13869
1.14203
1.15075
1.14447
1.13992
1.1286
1.12105
1.10851
1.09877
1.09338
1.09661
1.09786
1.09369
1.08619
1.07868
1.07332
1.06915
1.06715
1.06469
1.06338
1.06274
1.05878
1.06213
1.06527
1.0635
1.06296
1.06574
1.06886
1.06641
1.07116
1.07639
1.07113
1.0799
1.08714
1.07802
1.08689
1.09118
1.08376
1.08242
1.08371
1.07271
1.07446
1.06775
1.06141
1.07549
1.05609
1.08217
1.07221
1.06949
1.08464
1.06341
1.07623
1.08211
1.0488
1.08175
1.10383
1.05341
1.05468
1.13346
1.08334
1.03178
1.05875
1.13008
1.12487
1.06711
1.0939
1.10562
1.12838
1.10646
1.03622
1.05146
1.13049
1.25948
1.26699
1.28904
1.18534
1.07797
1.06744
1.06907
1.08622
1.08528
1.09247
1.0811
1.12072
1.14851
1.10853
1.16017
1.1675
1.13689
1.15755
1.27707
1.22962
1.10134
1.20156
1.1116
1.17018
1.1579
1.17824
1.14335
1.18214
1.14917
1.13722
1.20086
1.08682
1.16039
1.29667
1.41787
1.44345
1.5392
1.32687
1.19115
1.21044
1.37847
1.28254
1.12183
1.30582
1.18423
1.18897
1.19436
1.19297
1.20688
1.22642
1.21488
1.1876
1.18771
1.19315
1.18948
1.19706
1.19463
1.18385
1.19379
1.18985
1.18971
1.19211
1.18606
1.186
1.18222
1.18366
1.17867
1.17904
1.17693
1.17638
1.17649
1.17363
1.17475
1.17791
1.17966
1.17836
1.17475
1.17099
1.16806
1.16637
1.16681
1.16845
1.17015
1.17257
1.17555
1.17724
1.17747
1.17579
1.17355
1.17271
1.17372
1.17314
1.17432
1.17146
1.16618
1.16688
1.17817
1.17465
1.1777
1.19918
1.20387
1.20002
1.17532
1.15373
1.1442
1.13755
1.1452
1.15787
1.14731
1.14331
1.15251
1.14653
1.14073
1.12918
1.11909
1.10563
1.0963
1.09728
1.10068
1.09634
1.08729
1.08199
1.07973
1.08315
1.08969
1.09485
1.09461
1.09377
1.09551
1.08781
1.08314
1.08153
1.08086
1.07578
1.07618
1.08154
1.08199
1.08167
1.08331
1.07337
1.08381
1.08969
1.08597
1.08242
1.09087
1.09526
1.08768
1.08492
1.08439
1.07614
1.06384
1.06064
1.07712
1.05108
1.07061
1.07289
1.05149
1.08652
1.07271
1.06703
1.09383
1.05709
1.07042
1.10518
1.06078
1.04601
1.12143
1.09068
1.05522
1.05147
1.13075
1.11186
1.07557
1.12407
1.09828
1.12509
1.07675
1.02746
1.08732
1.15337
1.20961
1.26489
1.34228
1.17542
1.06204
1.07839
1.10416
1.08563
1.06611
1.07455
1.06728
1.10873
1.13735
1.12054
1.16966
1.15048
1.12552
1.16057
1.31623
1.23579
1.10606
1.15866
1.12756
1.20014
1.19886
1.13194
1.13515
1.1667
1.15366
1.1284
1.21742
1.0899
1.14065
1.26749
1.40664
1.41798
1.54156
1.37714
1.20109
1.20401
1.37215
1.31531
1.13616
1.27705
1.17928
1.18223
1.18606
1.18778
1.19381
1.21742
1.22671
1.1901
1.17478
1.18896
1.19109
1.18778
1.17764
1.1798
1.19573
1.18982
1.19158
1.19211
1.18669
1.18481
1.1854
1.18276
1.18412
1.1849
1.182
1.18223
1.18043
1.17749
1.17328
1.17329
1.17713
1.18113
1.18259
1.18058
1.17813
1.17603
1.17321
1.17091
1.17093
1.17119
1.17271
1.17554
1.17805
1.18041
1.18036
1.17726
1.17499
1.17423
1.17109
1.16969
1.16939
1.17441
1.1793
1.17306
1.16456
1.17642
1.1946
1.20978
1.19791
1.17465
1.15655
1.13931
1.13933
1.15531
1.15479
1.14875
1.15994
1.15283
1.14423
1.13211
1.11985
1.10278
1.09397
1.09618
1.10033
1.10065
1.09631
1.09573
1.09715
1.1009
1.10466
1.10171
1.09324
1.08922
1.08731
1.08245
1.08286
1.08362
1.0826
1.07979
1.0788
1.08399
1.08227
1.079
1.08888
1.07933
1.08016
1.09083
1.08429
1.08487
1.1028
1.10027
1.10285
1.10699
1.09209
1.09699
1.08323
1.06681
1.07912
1.06565
1.0628
1.08785
1.04205
1.07595
1.08672
1.05127
1.09259
1.08072
1.0517
1.10109
1.08077
1.04198
1.10979
1.09941
1.07797
1.03791
1.12819
1.09501
1.0704
1.11461
1.08525
1.12015
1.06756
1.03058
1.10557
1.14154
1.16181
1.27357
1.36022
1.15043
1.06349
1.08159
1.09527
1.05079
1.05231
1.08167
1.08966
1.12277
1.13617
1.13622
1.17126
1.12113
1.04664
1.15048
1.29337
1.20495
1.11566
1.15668
1.1239
1.22487
1.22564
1.07435
1.11585
1.12866
1.13331
1.10736
1.22354
1.10918
1.11848
1.24038
1.3945
1.39522
1.5416
1.40809
1.21388
1.19913
1.37112
1.32675
1.14513
1.25271
1.17442
1.17837
1.19146
1.20549
1.20684
1.20879
1.20389
1.18491
1.17921
1.18321
1.17976
1.18573
1.18384
1.17657
1.18346
1.18339
1.18293
1.18002
1.17782
1.17882
1.17733
1.17625
1.17977
1.18023
1.17979
1.17934
1.17915
1.17991
1.177
1.17398
1.17231
1.17171
1.17438
1.17709
1.17737
1.17633
1.17549
1.17382
1.17174
1.17083
1.1703
1.17015
1.17169
1.17511
1.17872
1.17936
1.17733
1.17499
1.17181
1.17103
1.17133
1.17592
1.17475
1.17226
1.17291
1.17198
1.17219
1.19638
1.21142
1.20049
1.17709
1.15188
1.14531
1.15803
1.16058
1.15145
1.16224
1.15885
1.14832
1.13588
1.12071
1.10105
1.09367
1.10338
1.11153
1.11689
1.11679
1.11348
1.11122
1.10947
1.10738
1.10283
1.09736
1.09701
1.09904
1.09135
1.09373
1.09218
1.09032
1.08518
1.07879
1.08249
1.09084
1.08618
1.07767
1.09494
1.08923
1.08848
1.09714
1.08341
1.09717
1.12169
1.10416
1.11671
1.11223
1.10445
1.09943
1.08813
1.08482
1.09046
1.05846
1.10151
1.06147
1.06794
1.10075
1.05656
1.08231
1.10406
1.04915
1.0951
1.09398
1.04877
1.09471
1.09344
1.09611
1.03293
1.13684
1.08337
1.07799
1.10558
1.07875
1.1201
1.07685
1.03699
1.09849
1.1015
1.13704
1.29187
1.34496
1.13284
1.07525
1.08334
1.06571
1.02971
1.07388
1.11809
1.12158
1.13628
1.14202
1.1549
1.16798
1.05142
1.02256
1.16576
1.2737
1.22397
1.15223
1.18449
1.14734
1.24436
1.22348
1.04815
1.1143
1.09199
1.10233
1.07771
1.21715
1.14008
1.1017
1.21425
1.37774
1.37388
1.54454
1.42883
1.23623
1.20451
1.36586
1.34459
1.16244
1.23204
1.16927
1.17136
1.18306
1.20508
1.21849
1.21987
1.20474
1.17702
1.16827
1.17844
1.17839
1.17699
1.17945
1.17915
1.1829
1.18134
1.17913
1.17667
1.17472
1.17714
1.1792
1.17841
1.17622
1.17413
1.17355
1.173
1.17329
1.17477
1.177
1.17807
1.17738
1.1752
1.17226
1.17079
1.17067
1.16991
1.16792
1.16579
1.16453
1.16304
1.16235
1.16221
1.16195
1.16241
1.16601
1.17113
1.17407
1.17321
1.17333
1.17113
1.16993
1.17641
1.17557
1.17436
1.18116
1.18833
1.16745
1.17413
1.20506
1.21508
1.19859
1.1718
1.15952
1.16523
1.16874
1.15881
1.16528
1.16335
1.15215
1.14124
1.12503
1.1048
1.09908
1.11481
1.1215
1.12349
1.11923
1.11198
1.11296
1.11207
1.10783
1.10531
1.11132
1.11081
1.11212
1.10476
1.10091
1.09823
1.09679
1.09162
1.08943
1.08723
1.08582
1.10104
1.09357
1.09119
1.10787
1.10048
1.09287
1.10939
1.10661
1.12091
1.11766
1.11572
1.11842
1.10981
1.10143
1.09951
1.0794
1.10036
1.06002
1.09868
1.0749
1.07237
1.10969
1.07076
1.0767
1.11652
1.05983
1.09576
1.1016
1.06859
1.0949
1.09593
1.11538
1.0321
1.13825
1.07474
1.08237
1.09338
1.07212
1.11284
1.08553
1.04494
1.08307
1.05724
1.13995
1.32332
1.31975
1.12474
1.0901
1.08874
1.0476
1.0144
1.07973
1.13496
1.14459
1.1493
1.1501
1.16214
1.15583
1.01661
1.09969
1.21094
1.33229
1.2726
1.18238
1.20212
1.17287
1.23592
1.18746
1.07647
1.12952
1.09706
1.09965
1.05082
1.19078
1.16808
1.09628
1.18004
1.36134
1.34968
1.54107
1.45274
1.27224
1.22483
1.368
1.36695
1.18542
1.21863
1.16456
1.16557
1.17036
1.18255
1.1985
1.20892
1.2109
1.19513
1.17512
1.1692
1.17209
1.17387
1.17528
1.17336
1.17464
1.17488
1.17111
1.17241
1.17342
1.16556
1.16708
1.17944
1.18426
1.17997
1.1767
1.1768
1.17637
1.1762
1.17659
1.17613
1.1759
1.17635
1.1759
1.17392
1.17235
1.17112
1.17012
1.16798
1.16524
1.16323
1.16202
1.16141
1.16248
1.16483
1.1659
1.16845
1.17462
1.17961
1.17961
1.17641
1.17185
1.17336
1.17566
1.1796
1.18169
1.19938
1.186
1.16925
1.18527
1.21041
1.21411
1.19452
1.17364
1.16988
1.17424
1.16405
1.17089
1.17111
1.15961
1.15006
1.13271
1.10998
1.10807
1.12634
1.13345
1.13033
1.12883
1.12667
1.12666
1.12365
1.12337
1.12252
1.13089
1.12923
1.12131
1.11303
1.10675
1.10203
1.09929
1.09963
1.09691
1.09952
1.10055
1.09442
1.09944
1.10937
1.10646
1.11765
1.1124
1.11096
1.12036
1.12936
1.12096
1.11173
1.11732
1.11136
1.09885
1.10283
1.08052
1.10707
1.0653
1.10099
1.08348
1.07786
1.11376
1.0887
1.08098
1.12264
1.07381
1.10251
1.10254
1.08721
1.09347
1.09353
1.1217
1.04311
1.13828
1.07733
1.09513
1.08935
1.07443
1.11069
1.09729
1.05725
1.06329
1.0212
1.14054
1.33276
1.29081
1.11229
1.09883
1.10188
1.05078
1.00976
1.06205
1.13058
1.15579
1.15485
1.16013
1.16868
1.14216
1.09791
1.1863
1.16791
1.3247
1.26309
1.19952
1.24336
1.17805
1.16371
1.13824
1.12507
1.14283
1.15279
1.12498
1.04895
1.15963
1.18559
1.10725
1.13638
1.34039
1.32881
1.52114
1.47594
1.31561
1.25632
1.38086
1.38887
1.20712
1.20957
1.15992
1.16039
1.16553
1.17272
1.17961
1.18354
1.18843
1.19287
1.18841
1.17874
1.17168
1.16711
1.16768
1.16589
1.16613
1.16859
1.16688
1.16701
1.17194
1.17494
1.17578
1.18082
1.18659
1.18444
1.17875
1.17785
1.17827
1.17777
1.17854
1.17828
1.17718
1.17588
1.17506
1.17482
1.17422
1.17345
1.17317
1.17381
1.17297
1.17021
1.16811
1.16552
1.16325
1.16634
1.1715
1.17123
1.16892
1.17266
1.17564
1.17553
1.17389
1.17191
1.17588
1.18866
1.18535
1.19345
1.19501
1.17613
1.1754
1.19897
1.21757
1.21033
1.18778
1.17963
1.18302
1.16963
1.17245
1.1769
1.16608
1.15813
1.14146
1.11572
1.11876
1.13761
1.14434
1.14039
1.14365
1.13946
1.13265
1.13157
1.13334
1.13394
1.13736
1.13649
1.12664
1.12196
1.12186
1.1214
1.11776
1.12347
1.12926
1.11274
1.1169
1.12032
1.10485
1.10531
1.11901
1.11294
1.11289
1.12161
1.12068
1.12198
1.12384
1.11425
1.12188
1.11428
1.10314
1.10558
1.08086
1.1063
1.07623
1.10622
1.09801
1.08517
1.10687
1.09921
1.08889
1.12674
1.08317
1.10539
1.10144
1.10599
1.09837
1.10252
1.13156
1.05467
1.13103
1.08425
1.10288
1.08901
1.07618
1.11365
1.1035
1.06462
1.04956
0.999948
1.12996
1.33433
1.26877
1.10469
1.09927
1.11671
1.08335
1.04133
1.06308
1.12826
1.15766
1.15991
1.16835
1.16865
1.14346
1.21259
1.2354
1.09588
1.32228
1.23387
1.25334
1.26285
1.13471
1.1306
1.13508
1.17588
1.14731
1.18478
1.13781
1.06021
1.13372
1.19103
1.1313
1.1123
1.3197
1.31804
1.48582
1.47798
1.35128
1.2952
1.4025
1.40642
1.22654
1.2075
1.15583
1.15469
1.15828
1.16531
1.16855
1.16894
1.17461
1.18703
1.19291
1.18946
1.18125
1.17282
1.17027
1.16712
1.16624
1.16792
1.17086
1.17144
1.17283
1.17592
1.17718
1.17696
1.18164
1.19042
1.19351
1.18878
1.18223
1.17916
1.17856
1.17689
1.17526
1.17789
1.17836
1.17626
1.17365
1.17135
1.16888
1.16875
1.17014
1.16771
1.16498
1.16665
1.16467
1.1588
1.16215
1.17118
1.17008
1.16575
1.17216
1.17635
1.17546
1.1745
1.17595
1.19007
1.19251
1.19244
1.20326
1.19151
1.18199
1.19683
1.21568
1.21458
1.19865
1.19079
1.19449
1.17842
1.17476
1.18019
1.17042
1.16402
1.15107
1.12628
1.13169
1.14741
1.15196
1.14963
1.15246
1.1473
1.13858
1.14118
1.14165
1.14024
1.14518
1.15023
1.1492