/*--------------------------------*- C++ -*----------------------------------*\
| =========                 |                                                 |
| \\      /  F ield         | OpenFOAM: The Open Source CFD Toolbox           |
|  \\    /   O peration     | Version:  dev                                   |
|   \\  /    A nd           | Web:      http://www.openfoam.org               |
|    \\/     M anipulation  |                                                 |
\*---------------------------------------------------------------------------*/
FoamFile
{
    version     2.0;
    format      ascii;
    class       volScalarField;
    object      rho_0;
    location    "9.149";
}
// * * * * * * * * * * * * * * * * * * * * * * * * * * * * * * * * * * * * * //

dimensions      [1 -3 0 0 0 0 0];

internalField   nonuniform List<scalar> 
12225
(
1.06284
1.06388
1.065
1.06701
1.07008
1.07301
1.07675
1.08041
1.08437
1.08879
1.09242
1.09808
1.10061
1.10733
1.11221
1.11258
1.12774
1.12659
1.06442
1.06415
1.06628
1.06923
1.07366
1.07732
1.08173
1.08612
1.08959
1.09542
1.09678
1.10557
1.104
1.1143
1.11733
1.11793
1.1306
1.13179
1.06398
1.06337
1.06633
1.06919
1.07438
1.07813
1.08316
1.08826
1.09174
1.09886
1.1001
1.10855
1.10934
1.11801
1.11886
1.12699
1.12936
1.13755
1.06472
1.06291
1.06675
1.0687
1.07461
1.07763
1.08317
1.08761
1.09239
1.09785
1.10242
1.10653
1.11191
1.11653
1.12087
1.12558
1.12899
1.1334
1.06603
1.06274
1.06746
1.06808
1.07528
1.07688
1.0835
1.08644
1.09281
1.09749
1.10231
1.10564
1.11127
1.11646
1.12084
1.12427
1.12938
1.1337
1.06652
1.0635
1.06836
1.06881
1.07579
1.0768
1.08438
1.08629
1.09444
1.09788
1.10215
1.10454
1.11167
1.1164
1.12146
1.12418
1.12971
1.13255
1.0672
1.06446
1.06888
1.06991
1.0763
1.07691
1.085
1.087
1.09505
1.09746
1.10233
1.10481
1.11169
1.11666
1.12106
1.12458
1.12875
1.1321
1.06796
1.06522
1.06961
1.07066
1.07694
1.07783
1.08579
1.08798
1.09454
1.09721
1.10281
1.10576
1.11232
1.11628
1.12047
1.12409
1.12784
1.13101
1.0687
1.06618
1.07043
1.07119
1.07744
1.07905
1.0865
1.08848
1.0946
1.0973
1.103
1.10603
1.11219
1.11583
1.11972
1.12346
1.1273
1.12978
1.06983
1.0675
1.07139
1.07203
1.07812
1.08024
1.08672
1.08899
1.09496
1.09761
1.10262
1.10636
1.11133
1.11495
1.11937
1.12201
1.12576
1.12849
1.07148
1.06936
1.07277
1.07389
1.07924
1.08137
1.08715
1.08958
1.09458
1.09811
1.10244
1.10569
1.1111
1.11452
1.11777
1.12122
1.12394
1.12677
1.07366
1.07193
1.07442
1.07593
1.08033
1.08274
1.08756
1.09059
1.0948
1.09811
1.10244
1.10613
1.11
1.1134
1.11697
1.11966
1.12241
1.12475
1.07618
1.07501
1.0768
1.0787
1.08206
1.08474
1.08861
1.09175
1.09544
1.09882
1.10219
1.10609
1.10932
1.11227
1.11529
1.11806
1.12074
1.12282
1.08018
1.07913
1.08002
1.08194
1.0846
1.0874
1.0906
1.09366
1.09666
1.09983
1.10294
1.106
1.10857
1.11173
1.1144
1.11671
1.1188
1.1211
1.08543
1.08425
1.08471
1.08643
1.08857
1.09103
1.09364
1.09624
1.09884
1.1016
1.10415
1.10683
1.10926
1.11183
1.11387
1.11608
1.11804
1.11987
1.09233
1.09086
1.09093
1.09229
1.09401
1.09602
1.09804
1.10012
1.10224
1.10444
1.10662
1.10875
1.11088
1.11277
1.11451
1.11635
1.11783
1.11943
1.1011
1.09948
1.09936
1.10043
1.10176
1.10325
1.10483
1.10643
1.10799
1.10954
1.11139
1.11313
1.11468
1.1162
1.11793
1.11935
1.12071
1.122
1.1114
1.10985
1.10964
1.11045
1.11147
1.11268
1.11404
1.11527
1.11634
1.11758
1.11936
1.12069
1.12158
1.12287
1.1243
1.12555
1.12699
1.12783
1.12124
1.11988
1.11977
1.12067
1.1217
1.12288
1.12419
1.12534
1.12601
1.12699
1.12904
1.13045
1.13089
1.13191
1.13329
1.13443
1.13592
1.13664
1.1298
1.12881
1.12883
1.12985
1.13097
1.1322
1.13366
1.13504
1.13561
1.13642
1.13879
1.14045
1.14077
1.1417
1.14268
1.14332
1.14496
1.14567
1.13693
1.13603
1.13642
1.13774
1.13908
1.1403
1.14217
1.14399
1.14456
1.14524
1.14775
1.14948
1.15007
1.15083
1.15118
1.15173
1.1531
1.15387
1.14255
1.14221
1.14287
1.14455
1.14608
1.14727
1.14927
1.15118
1.15208
1.15307
1.15485
1.15637
1.15758
1.1584
1.15891
1.15951
1.16056
1.1613
1.14708
1.14682
1.14776
1.14961
1.15154
1.15318
1.15473
1.15666
1.15851
1.15949
1.1608
1.16237
1.16339
1.16447
1.16559
1.1662
1.16694
1.16736
1.15047
1.15082
1.15192
1.15366
1.1558
1.15775
1.15937
1.16108
1.16294
1.16443
1.16584
1.16697
1.16799
1.1691
1.17018
1.17101
1.17179
1.1723
1.15289
1.15338
1.15472
1.15671
1.15881
1.16076
1.16266
1.16437
1.166
1.16784
1.16922
1.17035
1.17168
1.17264
1.17365
1.17452
1.1751
1.17572
1.15495
1.15538
1.15652
1.15846
1.16062
1.1627
1.16476
1.1668
1.16853
1.16998
1.17145
1.17281
1.17407
1.17516
1.17609
1.17683
1.17748
1.178
1.15612
1.15669
1.15802
1.16006
1.16218
1.16437
1.16652
1.16849
1.1703
1.17189
1.17334
1.17465
1.17587
1.17697
1.17792
1.17871
1.17934
1.17981
1.15687
1.15736
1.15874
1.16093
1.16321
1.16549
1.16775
1.16984
1.1717
1.17335
1.17481
1.1761
1.17726
1.17822
1.17903
1.17963
1.1801
1.18031
1.15749
1.15808
1.15941
1.16158
1.16389
1.16615
1.16829
1.17016
1.17178
1.17317
1.17432
1.17529
1.17606
1.17661
1.17702
1.17725
1.17739
1.17721
1.15738
1.15838
1.1591
1.16033
1.16171
1.16304
1.16425
1.1653
1.16626
1.16711
1.16787
1.16854
1.16912
1.16959
1.16999
1.17031
1.17052
1.17062
1.26704
1.28199
1.276
1.27089
1.26551
1.26417
1.26132
1.26105
1.25923
1.25798
1.25586
1.25374
1.25145
1.24903
1.24685
1.24457
1.24224
1.24006
1.23826
1.23702
1.23581
1.23418
1.23221
1.23022
1.22834
1.22631
1.22365
1.22038
1.21778
1.21686
1.2162
1.21261
1.20778
1.20627
1.20399
1.19924
1.19696
1.19268
1.18852
1.18649
1.18104
1.17833
1.17443
1.16733
1.16266
1.15653
1.15367
1.15424
1.15207
1.14892
1.14582
1.14101
1.13512
1.12699
1.12021
1.12031
1.12519
1.12744
1.12569
1.12342
1.12331
1.12257
1.11877
1.11672
1.11715
1.11786
1.11705
1.11548
1.11153
1.10603
1.09931
1.09097
1.08552
1.08692
1.08896
1.07791
1.06158
1.05924
1.0678
1.07331
1.07478
1.07527
1.07544
1.07584
1.07676
1.07785
1.07869
1.07918
1.0794
1.07959
1.0799
1.08056
1.08173
1.08357
1.08605
1.08878
1.09113
1.093
1.09508
1.09768
1.09955
1.10207
1.10458
1.10743
1.11112
1.11208
1.11567
1.11663
1.1182
1.12106
1.12483
1.12691
1.12743
1.12751
1.12936
1.1327
1.13394
1.13363
1.13515
1.13664
1.13677
1.13936
1.14591
1.15024
1.14973
1.14935
1.15046
1.14797
1.14644
1.15148
1.15267
1.1499
1.14524
1.14485
1.1464
1.14177
1.1337
1.12635
1.1228
1.12932
1.123
1.12102
1.11367
1.10717
1.10311
1.10171
1.10737
1.11542
1.11736
1.11207
1.09895
1.09141
1.08918
1.08987
1.09649
1.13035
1.15188
1.11297
1.10787
1.10153
1.11221
1.1324
1.16211
1.16916
1.17587
1.1619
1.15017
1.14232
1.12891
1.12647
1.12024
1.11212
1.09365
1.1163
1.11605
1.1037
1.14241
1.12088
1.07621
1.06542
1.27311
1.29286
1.27069
1.26279
1.25393
1.24955
1.24834
1.2481
1.24762
1.24669
1.2448
1.24279
1.24156
1.24093
1.24034
1.23962
1.23903
1.23847
1.23857
1.23952
1.2404
1.24046
1.23963
1.23824
1.23711
1.23612
1.23418
1.2301
1.22716
1.22815
1.22855
1.22318
1.21868
1.21983
1.21762
1.21237
1.21053
1.20646
1.20196
1.19971
1.19641
1.19234
1.18795
1.1849
1.17788
1.16741
1.16306
1.15383
1.13895
1.14936
1.16711
1.16436
1.15602
1.14506
1.13656
1.13573
1.13904
1.14213
1.141
1.13673
1.13699
1.13859
1.13156
1.12524
1.12394
1.12789
1.12586
1.12555
1.12841
1.11642
1.10929
1.11379
1.10162
1.09149
1.10091
1.10611
1.10257
1.10192
1.10228
1.1011
1.10044
1.10003
1.099
1.09683
1.09452
1.09207
1.09026
1.08874
1.08737
1.08615
1.08479
1.08407
1.08445
1.08618
1.08918
1.09245
1.0941
1.09464
1.09559
1.10121
1.10056
1.10289
1.1017
1.10466
1.11497
1.11092
1.12088
1.11978
1.11814
1.11664
1.13301
1.14787
1.15605
1.14554
1.12784
1.13295
1.15786
1.17183
1.16425
1.16863
1.18465
1.17557
1.16965
1.19685
1.21739
1.19776
1.1752
1.17527
1.17517
1.16692
1.15866
1.17161
1.19977
1.21291
1.2266
1.23496
1.21535
1.18422
1.16947
1.18821
1.18994
1.19391
1.18129
1.1681
1.16026
1.16417
1.17838
1.17898
1.17885
1.18198
1.17502
1.16535
1.16228
1.15838
1.18468
1.27704
1.32855
1.26455
1.24687
1.21638
1.23355
1.29083
1.35737
1.37036
1.38967
1.3737
1.35749
1.33873
1.28868
1.26958
1.24931
1.23417
1.21045
1.29958
1.27025
1.27484
1.25312
1.31693
1.19613
1.14469
1.26387
1.30488
1.28797
1.26841
1.25436
1.24687
1.24563
1.24763
1.24944
1.24886
1.24653
1.24508
1.24739
1.25206
1.25461
1.25556
1.25678
1.25706
1.25724
1.25638
1.25421
1.2511
1.24728
1.24285
1.23915
1.23578
1.23315
1.23005
1.22721
1.22522
1.22255
1.22068
1.2218
1.21869
1.21182
1.21237
1.21157
1.20499
1.20529
1.20446
1.19887
1.20233
1.20145
1.1957
1.20103
1.19302
1.18674
1.18027
1.15944
1.15812
1.14134
1.14223
1.16576
1.15822
1.14916
1.14708
1.14486
1.14544
1.14198
1.14059
1.14272
1.13818
1.13319
1.13639
1.13659
1.1396
1.1355
1.1253
1.11593
1.11308
1.1164
1.11793
1.1135
1.11119
1.10825
1.10402
1.09909
1.09411
1.0894
1.08564
1.08354
1.08167
1.07967
1.07731
1.0747
1.07228
1.07023
1.06834
1.06697
1.06586
1.06487
1.06418
1.06344
1.06282
1.0625
1.06298
1.06334
1.06438
1.06429
1.06867
1.06662
1.07089
1.06618
1.06582
1.07671
1.07347
1.08054
1.08391
1.08406
1.07488
1.07887
1.09173
1.12462
1.13233
1.08713
1.05468
1.09173
1.15546
1.14337
1.12035
1.16919
1.18725
1.15007
1.16724
1.23414
1.23889
1.1857
1.14238
1.1198
1.10116
1.09069
1.09758
1.13578
1.18312
1.2381
1.28613
1.27289
1.21895
1.18939
1.21202
1.22851
1.21288
1.21714
1.21039
1.19359
1.18279
1.18314
1.15162
1.14204
1.14822
1.17251
1.18579
1.19187
1.18446
1.2343
1.33308
1.31271
1.30093
1.3066
1.28376
1.30741
1.37801
1.39315
1.37618
1.36181
1.3858
1.4334
1.44018
1.37919
1.35609
1.32873
1.31918
1.29829
1.39026
1.29186
1.30805
1.15065
1.33072
1.26565
1.21904
1.24918
1.30013
1.30682
1.29121
1.27191
1.25325
1.24533
1.24658
1.24936
1.2491
1.24662
1.24857
1.25709
1.26379
1.26229
1.25822
1.25488
1.25001
1.24445
1.23837
1.23274
1.2276
1.22332
1.21954
1.21697
1.2147
1.21387
1.21428
1.21577
1.21688
1.21623
1.21535
1.2145
1.21171
1.2123
1.21391
1.20459
1.19483
1.19469
1.18938
1.1815
1.18198
1.18219
1.18262
1.18947
1.18952
1.19568
1.19697
1.18744
1.18256
1.16467
1.14848
1.14514
1.16456
1.16796
1.14455
1.14283
1.14769
1.14775
1.14784
1.14875
1.13767
1.13303
1.14065
1.13887
1.13861
1.13406
1.13095
1.12886
1.12603
1.12492
1.12085
1.11537
1.11037
1.10532
1.10131
1.09713
1.09332
1.09081
1.08883
1.08755
1.0865
1.08537
1.0844
1.08323
1.08171
1.07982
1.0778
1.07542
1.07394
1.07276
1.07223
1.07229
1.07204
1.07168
1.07235
1.07142
1.07378
1.07085
1.0763
1.0731
1.08023
1.07775
1.07383
1.07774
1.08186
1.08155
1.084
1.08666
1.09091
1.09383
1.07309
1.08044
1.12903
1.12492
1.05162
1.05008
1.14228
1.13545
1.07622
1.12024
1.17471
1.14384
1.13065
1.19121
1.24471
1.21735
1.13724
1.09314
1.09365
1.10205
1.09548
1.09563
1.12925
1.20724
1.29845
1.31995
1.2363
1.19806
1.1963
1.19177
1.18365
1.22261
1.2285
1.2254
1.20623
1.19726
1.15687
1.13393
1.11982
1.15108
1.18174
1.19151
1.19884
1.26188
1.3628
1.27217
1.2958
1.31332
1.31637
1.35488
1.41672
1.34281
1.30043
1.23268
1.25688
1.36489
1.44389
1.42041
1.41165
1.38423
1.38109
1.3873
1.37982
1.25259
1.29296
1.22831
1.1432
1.29537
1.30247
1.23927
1.28564
1.31045
1.30927
1.28669
1.25249
1.24016
1.24047
1.242
1.2428
1.24889
1.26042
1.26507
1.25583
1.24306
1.23848
1.23632
1.23221
1.22914
1.22631
1.22277
1.21943
1.21664
1.21459
1.21411
1.21413
1.21529
1.21768
1.21936
1.22096
1.22224
1.22467
1.22674
1.2248
1.22317
1.22267
1.2176
1.21044
1.20436
1.19438
1.18483
1.17956
1.17407
1.17166
1.17398
1.17795
1.1856
1.19135
1.1948
1.19419
1.19109
1.18005
1.15051
1.14389
1.16239
1.15984
1.15449
1.15263
1.15515
1.14661
1.14425
1.14429
1.13841
1.1341
1.12696
1.13481
1.1369
1.13184
1.13067
1.12515
1.12146
1.11573
1.1113
1.10679
1.10425
1.10155
1.09924
1.09764
1.09513
1.0932
1.09061
1.08738
1.08484
1.08146
1.07828
1.07466
1.07094
1.06817
1.06577
1.06414
1.06282
1.06132
1.05962
1.05952
1.05747
1.05949
1.05943
1.0632
1.0579
1.06645
1.06206
1.07431
1.0724
1.07118
1.06903
1.07236
1.07502
1.07817
1.08037
1.06906
1.09218
1.09648
1.06514
1.07739
1.13596
1.10821
1.05481
1.12536
1.1566
1.09623
1.09587
1.13994
1.13476
1.12561
1.15977
1.21331
1.2454
1.18074
1.10646
1.11748
1.17738
1.17783
1.12128
1.09658
1.17484
1.29731
1.3465
1.27061
1.20185
1.19445
1.19879
1.16283
1.17809
1.192
1.21736
1.22719
1.22222
1.17907
1.14563
1.12013
1.14812
1.17609
1.18898
1.20217
1.27536
1.36336
1.2347
1.29043
1.31679
1.33699
1.38717
1.42998
1.26406
1.22614
1.16618
1.17149
1.25869
1.3763
1.41577
1.43841
1.42509
1.42656
1.45458
1.33254
1.2248
1.36434
1.30248
1.07873
1.3666
1.38771
1.23292
1.2741
1.30977
1.31454
1.27715
1.24021
1.23525
1.23854
1.24438
1.25799
1.27041
1.25645
1.23118
1.23086
1.24133
1.23612
1.22591
1.22044
1.21521
1.21037
1.20732
1.20492
1.20248
1.20068
1.19968
1.19953
1.20144
1.20422
1.20648
1.2102
1.21163
1.21365
1.21674
1.2205
1.22225
1.22114
1.21706
1.21514
1.21372
1.20718
1.19774
1.19045
1.18506
1.18215
1.18169
1.17949
1.17952
1.18754
1.1961
1.19599
1.20193
1.20058
1.1808
1.16157
1.15457
1.16114
1.15286
1.14671
1.16786
1.16145
1.15293
1.1529
1.14453
1.1331
1.12389
1.12835
1.12761
1.12467
1.12343
1.11952
1.11749
1.11289
1.11092
1.10856
1.10701
1.10492
1.10263
1.10001
1.09732
1.09365
1.09012
1.08654
1.08325
1.0795
1.07585
1.07144
1.06742
1.0635
1.06077
1.05953
1.0583
1.05916
1.05609
1.0591
1.05788
1.05786
1.05705
1.06124
1.05809
1.06426
1.0574
1.06866
1.06593
1.07129
1.07316
1.0752
1.07847
1.0727
1.08428
1.07864
1.07678
1.08408
1.09175
1.07118
1.08972
1.11481
1.07023
1.08216
1.12961
1.12116
1.11295
1.12291
1.11624
1.11813
1.14353
1.17575
1.23656
1.23084
1.16229
1.13477
1.1867
1.24942
1.19141
1.0834
1.12809
1.28307
1.35058
1.30765
1.22742
1.20653
1.20528
1.18581
1.18342
1.1712
1.17943
1.21491
1.23366
1.20745
1.16806
1.11715
1.15887
1.17538
1.197
1.19766
1.27287
1.35133
1.20092
1.28653
1.30349
1.34951
1.41428
1.42935
1.21567
1.1537
1.11968
1.1401
1.18996
1.29177
1.38395
1.44269
1.45253
1.46132
1.4927
1.29716
1.19721
1.37996
1.2125
1.22
1.37248
1.42814
1.22708
1.26481
1.30141
1.29528
1.2498
1.23164
1.23399
1.23731
1.24746
1.25654
1.24565
1.23627
1.24003
1.22034
1.20061
1.20632
1.20913
1.20681
1.20835
1.20931
1.20813
1.20619
1.20454
1.2035
1.202
1.20143
1.20263
1.20328
1.2058
1.20891
1.21095
1.21413
1.21604
1.21809
1.22061
1.22399
1.2251
1.22329
1.22151
1.21914
1.21572
1.21247
1.20737
1.202
1.19843
1.1912
1.18649
1.18754
1.19101
1.19078
1.19806
1.20168
1.19795
1.1854
1.1554
1.15329
1.15594
1.15037
1.16361
1.16771
1.15216
1.14644
1.14315
1.13023
1.12349
1.12916
1.13099
1.12772
1.12718
1.12316
1.12241
1.11955
1.11984
1.11763
1.1161
1.11173
1.10885
1.10374
1.0997
1.09472
1.0902
1.08562
1.08071
1.07484
1.06986
1.06362
1.05898
1.05506
1.0518
1.05275
1.0532
1.05838
1.0543
1.0555
1.05436
1.05462
1.0544
1.05434
1.05354
1.05511
1.05636
1.06328
1.06671
1.0658
1.07017
1.07032
1.08147
1.08803
1.08208
1.07514
1.09564
1.07991
1.08497
1.08967
1.07763
1.103
1.09072
1.07516
1.09896
1.1131
1.11356
1.10968
1.10152
1.10775
1.11965
1.14714
1.19665
1.235
1.21155
1.17377
1.19224
1.26969
1.24206
1.09839
1.06299
1.22996
1.34344
1.31769
1.24365
1.23588
1.23291
1.22912
1.2223
1.19337
1.16692
1.18246
1.20946
1.21468
1.18962
1.11796
1.17226
1.17786
1.18863
1.19386
1.27479
1.33466
1.17827
1.27691
1.16833
1.35217
1.43422
1.37156
1.23299
1.18521
1.13993
1.1481
1.16302
1.21244
1.33658
1.43309
1.46472
1.48655
1.51379
1.27388
1.20145
1.37669
1.24374
1.24641
1.29209
1.43721
1.22029
1.25381
1.28454
1.26473
1.22908
1.22703
1.24098
1.26459
1.26247
1.22361
1.19949
1.20866
1.21243
1.21443
1.21846
1.21341
1.21726
1.21823
1.21153
1.20993
1.20701
1.20364
1.20193
1.19959
1.19588
1.19484
1.19419
1.19354
1.19644
1.19833
1.20027
1.20246
1.20378
1.20575
1.20703
1.20802
1.21013
1.21019
1.21072
1.21182
1.21143
1.2104
1.20845
1.20802
1.20658
1.20296
1.2035
1.20153
1.20445
1.20881
1.20486
1.20132
1.19896
1.19784
1.1766
1.16241
1.16118
1.15694
1.1575
1.16679
1.15972
1.1483
1.14617
1.13731
1.12974
1.13558
1.13704
1.13243
1.13187
1.12863
1.12959
1.12565
1.12441
1.11769
1.11063
1.1019
1.09508
1.08731
1.08155
1.07538
1.06998
1.0646
1.06019
1.05674
1.05579
1.0551
1.05584
1.05758
1.05853
1.0583
1.05821
1.06699
1.06354
1.0647
1.06191
1.06374
1.06732
1.06693
1.06525
1.05659
1.06167
1.06039
1.06729
1.06576
1.07178
1.07777
1.07234
1.07713
1.10075
1.0795
1.08599
1.08528
1.08356
1.09447
1.07497
1.09248
1.09812
1.08496
1.08857
1.1048
1.10015
1.09887
1.11151
1.09188
1.06811
1.1277
1.16545
1.19327
1.15594
1.11613
1.17024
1.26061
1.24414
1.12592
1.02016
1.13621
1.30955
1.29561
1.24322
1.17075
1.11604
1.13405
1.19321
1.20095
1.16991
1.1557
1.16493
1.1956
1.19982
1.12593
1.17455
1.18691
1.16781
1.19349
1.28395
1.30424
1.16762
1.31474
1.09971
1.33908
1.45491
1.33405
1.24099
1.25076
1.19051
1.18844
1.18626
1.16428
1.28585
1.41069
1.46324
1.49836
1.53552
1.25849
1.20722
1.36841
1.345
1.23992
1.22103
1.42713
1.21163
1.23444
1.25481
1.23509
1.21762
1.22516
1.23657
1.24914
1.23886
1.21715
1.21368
1.207
1.20981
1.21866
1.20304
1.19845
1.20499
1.20167
1.20386
1.20259
1.20223
1.2025
1.20233
1.2005
1.19845
1.19777
1.19352
1.19121
1.19016
1.18947
1.19118
1.19271
1.19333
1.19337
1.19242
1.19153
1.19123
1.191
1.18823
1.18663
1.18571
1.18457
1.18341
1.18216
1.18242
1.18585
1.19157
1.19072
1.19598
1.20765
1.20177
1.20485
1.20677
1.20356
1.19391
1.1743
1.162
1.15409
1.14761
1.16103
1.16326
1.15257
1.15043
1.14183
1.13212
1.14009
1.14351
1.13915
1.13838
1.13399
1.13166
1.12506
1.11861
1.10714
1.0984
1.0922
1.08933
1.0871
1.08541
1.08182
1.07838
1.07458
1.07015
1.06836
1.06744
1.06892
1.07099
1.07089
1.07148
1.07186
1.063
1.06689
1.067
1.07162
1.06602
1.06998
1.07529
1.07441
1.08347
1.07464
1.07737
1.0749
1.07875
1.08259
1.07678
1.07554
1.08976
1.08265
1.08619
1.0928
1.10075
1.08433
1.08423
1.09835
1.07556
1.08922
1.09657
1.0802
1.08664
1.11138
1.08409
1.08109
1.13763
1.08557
1.02064
1.09146
1.15517
1.17174
1.06484
1.01563
1.10859
1.20255
1.1966
1.10364
1.01089
1.0907
1.28151
1.27945
1.26602
1.17814
1.08414
1.03311
1.07741
1.12435
1.12339
1.12394
1.14519
1.19618
1.20168
1.12248
1.17136
1.19174
1.14907
1.18832
1.29976
1.28905
1.1392
1.33551
1.18306
1.3032
1.32775
1.27664
1.18806
1.2273
1.16217
1.17661
1.2033
1.13627
1.24204
1.38186
1.4586
1.49639
1.55445
1.26795
1.20558
1.31679
1.41345
1.28837
1.18129
1.40768
1.20481
1.2218
1.23551
1.22326
1.22084
1.23406
1.24316
1.22819
1.21598
1.21003
1.20081
1.1936
1.2001
1.21058
1.20576
1.20357
1.20301
1.20844
1.20547
1.20164
1.20339
1.19902
1.20162
1.19885
1.19984
1.19998
1.19812
1.19928
1.19726
1.19589
1.19571
1.19592
1.19799
1.20016
1.20161
1.20139
1.19947
1.19923
1.199
1.19726
1.19499
1.19138
1.18685
1.18226
1.17977
1.179
1.17699
1.1729
1.17795
1.18991
1.18557
1.19112
1.20188
1.19828
1.20095
1.19111
1.17403
1.16021
1.1459
1.15379
1.15793
1.15026
1.15314
1.15021
1.13698
1.14242
1.14781
1.14281
1.14053
1.13348
1.12796
1.1166
1.10707
1.09539
1.09311
1.09481
1.09634
1.09642
1.0939
1.08865
1.08365
1.08069
1.07753
1.07759
1.07667
1.07652
1.07844
1.07893
1.07225
1.07375
1.06733
1.06541
1.06208
1.06978
1.06864
1.06607
1.07747
1.07871
1.08471
1.09097
1.08772
1.08537
1.08409
1.08631
1.09342
1.08451
1.07411
1.08876
1.09402
1.08075
1.10346
1.08746
1.08695
1.10074
1.08015
1.09195
1.0968
1.07297
1.09475
1.11993
1.07106
1.06932
1.15093
1.09092
1.02356
1.07636
1.15444
1.15877
1.05621
1.03967
1.10963
1.15978
1.14859
1.06529
1.02735
1.10693
1.28052
1.28102
1.28063
1.21206
1.13199
1.07273
1.05692
1.08183
1.08909
1.10701
1.12375
1.17016
1.1828
1.12168
1.17051
1.19047
1.13908
1.18465
1.31894
1.27208
1.11996
1.28104
1.16005
1.2204
1.18203
1.21006
1.14728
1.19341
1.14523
1.15664
1.21013
1.11721
1.20836
1.3534
1.45625
1.48822
1.56746
1.31094
1.21499
1.2606
1.42682
1.30188
1.16227
1.38169
1.19751
1.20946
1.22219
1.22301
1.23367
1.23048
1.22139
1.20772
1.19715
1.20818
1.20412
1.19552
1.20553
1.20296
1.2022
1.19951
1.19399
1.19561
1.18755
1.19245
1.18644
1.1858
1.186
1.18378
1.18628
1.18539
1.18682
1.18782
1.1883
1.18909
1.18758
1.18493
1.18304
1.18207
1.18308
1.18504
1.18613
1.1856
1.18645
1.18748
1.18795
1.18701
1.18394
1.18073
1.17879
1.17893
1.17855
1.17557
1.17883
1.17885
1.16876
1.16852
1.18707
1.19282
1.20653
1.21175
1.19486
1.17972
1.15677
1.14925
1.14938
1.14635
1.15241
1.15575
1.14299
1.14552
1.15483
1.149
1.14465
1.13334
1.12578
1.11339
1.10342
1.09812
1.10146
1.1031
1.0992
1.09194
1.08457
1.07959
1.07586
1.07428
1.0721
1.07089
1.07073
1.06665
1.0697
1.07331
1.07209
1.07144
1.07428
1.07797
1.07571
1.08026
1.08615
1.08094
1.08953
1.0976
1.08858
1.09731
1.10235
1.09534
1.09408
1.09577
1.08496
1.08704
1.08062
1.07453
1.08922
1.07005
1.09672
1.08725
1.08475
1.10078
1.0799
1.09316
1.09925
1.06605
1.10075
1.12109
1.06962
1.07497
1.15236
1.09778
1.04997
1.07936
1.15033
1.13663
1.08398
1.1167
1.12265
1.14247
1.11342
1.0466
1.07186
1.15448
1.27248
1.28184
1.30826
1.19105
1.08424
1.07932
1.0839
1.09832
1.09562
1.10265
1.09017
1.13029
1.16025
1.12284
1.17579
1.18233
1.15294
1.17177
1.29788
1.25357
1.12137
1.21436
1.13259
1.19137
1.18182
1.1984
1.16641
1.20517
1.17313
1.16158
1.22879
1.11016
1.18527
1.32273
1.44998
1.473
1.57592
1.37034
1.22416
1.24622
1.42059
1.32292
1.16102
1.35281
1.19064
1.19533
1.20033
1.19899
1.21282
1.23353
1.22274
1.1941
1.19374
1.19943
1.19584
1.20358
1.20055
1.18953
1.19986
1.19586
1.19561
1.19793
1.19175
1.19142
1.18754
1.18883
1.18366
1.18387
1.18156
1.18086
1.18084
1.17786
1.17893
1.18198
1.18357
1.18211
1.17836
1.17448
1.17146
1.16969
1.17008
1.17166
1.17332
1.17571
1.17864
1.18025
1.18039
1.17863
1.17639
1.17558
1.1766
1.17605
1.17721
1.17426
1.16916
1.17036
1.18146
1.17746
1.18062
1.20233
1.20759
1.20435
1.17992
1.15819
1.14822
1.14109
1.14867
1.16214
1.15238
1.14772
1.15729
1.15171
1.14599
1.13471
1.12462
1.11099
1.10116
1.10209
1.10605
1.10263
1.09389
1.08876
1.08659
1.09007
1.09701
1.10276
1.10291
1.10211
1.10443
1.09727
1.09249
1.09089
1.09062
1.08569
1.08574
1.09137
1.09234
1.09213
1.09436
1.08427
1.09445
1.10097
1.09768
1.09402
1.10281
1.1078
1.10056
1.09807
1.09783
1.08996
1.07786
1.07498
1.09195
1.06627
1.08595
1.08918
1.06733
1.10373
1.09054
1.08423
1.11239
1.07597
1.0889
1.12378
1.07873
1.06594
1.14089
1.10772
1.07415
1.07108
1.152
1.12461
1.09338
1.14337
1.1132
1.14012
1.08588
1.04189
1.1088
1.17092
1.21843
1.28479
1.36213
1.17899
1.07155
1.09208
1.11793
1.09447
1.07606
1.08684
1.08163
1.12367
1.15177
1.13758
1.18727
1.1655
1.1371
1.17571
1.33871
1.26042
1.13021
1.17769
1.15039
1.22715
1.2263
1.15166
1.15827
1.1882
1.17683
1.15264
1.2469
1.1162
1.16586
1.29441
1.43938
1.44755
1.58001
1.41905
1.23543
1.24198
1.41641
1.35632
1.17583
1.32297
1.18556
1.18876
1.19293
1.19535
1.20116
1.22407
1.23312
1.19653
1.181
1.19517
1.19723
1.19387
1.18358
1.1855
1.20142
1.19562
1.19721
1.19761
1.19212
1.19009
1.19059
1.18778
1.1891
1.18972
1.18664
1.18674
1.1848
1.18171
1.1774
1.17739
1.18119
1.18507
1.18637
1.18422
1.18166
1.17945
1.17653
1.17418
1.1742
1.17446
1.17602
1.17884
1.18131
1.18363
1.1835
1.18037
1.17816
1.17742
1.17428
1.173
1.17294
1.17824
1.18282
1.17629
1.16828
1.18029
1.19826
1.21381
1.20299
1.18051
1.162
1.14416
1.14393
1.16003
1.16023
1.15378
1.16532
1.15887
1.15026
1.13837
1.12618
1.10871
1.09938
1.10178
1.1065
1.10798
1.10438
1.10379
1.10518
1.10879
1.11278
1.11039
1.10211
1.09806
1.09654
1.0918
1.09243
1.09357
1.09297
1.09043
1.08925
1.09473
1.09372
1.09026
1.10052
1.09162
1.09203
1.10307
1.09701
1.09743
1.1158
1.11405
1.1167
1.1215
1.10681
1.1121
1.09871
1.08256
1.09506
1.08245
1.07917
1.10574
1.05942
1.09398
1.10589
1.0695
1.11206
1.10123
1.07054
1.12151
1.10028
1.06249
1.13028
1.11799
1.09724
1.05739
1.15101
1.10835
1.08964
1.13202
1.10129
1.13651
1.08056
1.04738
1.12471
1.15273
1.17477
1.29874
1.37326
1.15426
1.07633
1.0957
1.1051
1.05904
1.06645
1.09947
1.10908
1.14097
1.15319
1.1558
1.19038
1.13519
1.05905
1.16791
1.31192
1.23199
1.14451
1.18354
1.14908
1.25334
1.2529
1.09585
1.14097
1.14996
1.15594
1.13179
1.25305
1.13946
1.14425
1.26805
1.42776
1.42637
1.58271
1.44804
1.25164
1.23989
1.41673
1.36754
1.18519
1.29797
1.18054
1.18475
1.19835
1.21328
1.21498
1.21583
1.20939
1.19064
1.18546
1.18924
1.18557
1.19164
1.19013
1.18263
1.18907
1.18898
1.18832
1.18528
1.18304
1.184
1.1824
1.18125
1.18463
1.18491
1.1844
1.18385
1.18356
1.18421
1.18116
1.17802
1.17626
1.1756
1.17824
1.18086
1.18101
1.17988
1.17898
1.17724
1.17514
1.17424
1.1737
1.17359
1.17518
1.17863
1.18217
1.1827
1.18067
1.17835
1.17528
1.17465
1.17514
1.17984
1.17852
1.17627
1.17748
1.17658
1.17609
1.20038
1.21656
1.20667
1.1833
1.1582
1.15167
1.16392
1.16663
1.1572
1.16782
1.16519
1.15479
1.1428
1.1278
1.10781
1.09975
1.10998
1.11868
1.12464
1.12514
1.12179
1.11969
1.11803
1.11605
1.11196
1.10718
1.10694
1.10975
1.10225
1.1045
1.10332
1.10187
1.09711
1.09063
1.09397
1.10289
1.09929
1.09015
1.1077
1.1028
1.10184
1.11093
1.09753
1.11108
1.13658
1.11915
1.13201
1.12812
1.1204
1.11578
1.10512
1.10156
1.10837
1.07592
1.12031
1.08033
1.08738
1.12128
1.07649
1.10286
1.12575
1.0695
1.11726
1.11441
1.07076
1.11625
1.11401
1.11673
1.05364
1.16085
1.09837
1.09921
1.12263
1.09645
1.13777
1.09237
1.05461
1.11437
1.11
1.15715
1.32126
1.35312
1.1398
1.09073
1.09839
1.07543
1.04047
1.09055
1.13795
1.14281
1.15597
1.16139
1.176
1.18944
1.06699
1.04553
1.19043
1.30361
1.261
1.18588
1.21566
1.17677
1.27278
1.24904
1.07453
1.14329
1.11751
1.12757
1.10332
1.24502
1.17377
1.12977
1.24111
1.41168
1.40597
1.58716
1.47044
1.28002
1.25062
1.4137
1.38852
1.20402
1.27675
1.17529
1.17749
1.18906
1.21112
1.2251
1.2266
1.21122
1.18344
1.17453
1.18438
1.18431
1.18265
1.18527
1.18515
1.18853
1.18665
1.18421
1.18178
1.17995
1.18227
1.18421
1.18337
1.18106
1.17886
1.17817
1.17751
1.17769
1.17904
1.18117
1.18213
1.18135
1.17905
1.17598
1.17448
1.17431
1.17342
1.17134
1.1692
1.16793
1.16643
1.16577
1.16562
1.16535
1.16593
1.16968
1.1748
1.17767
1.17685
1.17704
1.17488
1.17393
1.18054
1.17968
1.17895
1.18631
1.1933
1.17205
1.17873
1.20974
1.2205
1.20508
1.1792
1.16672
1.17157
1.17521
1.1652
1.17161
1.17027
1.15924
1.14892
1.13299
1.11233
1.10614
1.12229
1.12963
1.13169
1.12798
1.12085
1.12194
1.12151
1.11777
1.1152
1.122
1.12206
1.12362
1.11675
1.11273
1.11016
1.10907
1.10436
1.10245
1.10047
1.09876
1.11443
1.10772
1.10506
1.1222
1.11549
1.10762
1.12465
1.12215
1.13664
1.13377
1.13168
1.13496
1.12655
1.11828
1.11704
1.09684
1.11899
1.07851
1.11811
1.09461
1.09334
1.13092
1.09202
1.09892
1.13887
1.08174
1.1196
1.12296
1.09247
1.11759
1.11861
1.13626
1.05418
1.16207
1.09211
1.105
1.111
1.09168
1.13187
1.10299
1.06343
1.09659
1.06714
1.16506
1.35218
1.32599
1.13394
1.10701
1.10577
1.06127
1.0278
1.09433
1.1527
1.16574
1.17005
1.17172
1.18445
1.17809
1.04404
1.13377
1.22901
1.36482
1.30766
1.21725
1.23696
1.20345
1.25918
1.21125
1.1088
1.16151
1.13138
1.13021
1.07953
1.21744
1.20366
1.1283
1.20489
1.39602
1.38333
1.5817
1.49724
1.32214
1.27711
1.42054
1.41249
1.22708
1.26304
1.17049
1.17163
1.17629
1.18805
1.20375
1.21404
1.21636
1.20142
1.18162
1.17534
1.17817
1.17966
1.18068
1.1786
1.17982
1.17982
1.17606
1.17765
1.17809
1.17019
1.17293
1.1855
1.18929
1.18439
1.1812
1.18136
1.1808
1.18051
1.18074
1.18012
1.17982
1.18018
1.17958
1.17746
1.17583
1.17456
1.17346
1.17118
1.16841
1.16645
1.16531
1.16481
1.16602
1.16842
1.16954
1.17227
1.17849
1.18341
1.18327
1.18006
1.17574
1.17751
1.18011
1.18442
1.18706
1.20447
1.19084
1.17407
1.18981
1.21542
1.22038
1.2019
1.18081
1.17666
1.18116
1.17065
1.1774
1.17844
1.16718
1.15825
1.14134
1.11791
1.11594
1.13444
1.14242
1.13938
1.13863
1.13687
1.13665
1.1339
1.13416
1.13341
1.14203
1.14148
1.13375
1.12577
1.1198
1.11534
1.11263
1.11359
1.11128
1.11375
1.11534
1.1091
1.11403
1.12441
1.12174
1.13326
1.12842
1.12704
1.13683
1.14586
1.1377
1.12855
1.13473
1.12883
1.11658
1.121
1.09909
1.12627
1.08505
1.12175
1.10443
1.09983
1.13515
1.11091
1.1046
1.14563
1.09677
1.12701
1.12465
1.11236
1.11649
1.11806
1.14355
1.06693
1.16156
1.09771
1.11879
1.10844
1.09574
1.13203
1.11608
1.07566
1.07582
1.03441
1.16636
1.35867
1.29762
1.12334
1.11635
1.12144
1.07099
1.02948
1.07846
1.14845
1.17663
1.17658
1.18364
1.19264
1.16533
1.1382
1.22648
1.17595
1.3503
1.28973
1.23939
1.28094
1.20602
1.18732
1.166
1.1625
1.17601
1.19215
1.15834
1.08146
1.18729
1.22177
1.14441
1.16357
1.37572
1.36638
1.55821
1.51847
1.3683
1.31427
1.43822
1.43435
1.24771
1.25382
1.16579
1.16634
1.17157
1.17862
1.18487
1.18829
1.19341
1.19891
1.195
1.18506
1.17748
1.17273
1.1732
1.17123
1.17164
1.17391
1.17213
1.17269
1.17778
1.18051
1.18138
1.18648
1.19153
1.18854
1.18299
1.18243
1.18263
1.18197
1.18265
1.18214
1.18084
1.17948
1.17862
1.17832
1.17763
1.17683
1.17659
1.17715
1.17602
1.17315
1.17107
1.16851
1.16658
1.16999
1.17502
1.17453
1.17234
1.17624
1.17928
1.17923
1.1777
1.17601
1.18064
1.19355
1.1903
1.19832
1.19996
1.18153
1.18104
1.2047
1.22346
1.21662
1.19478
1.18714
1.19065
1.17675
1.17891
1.18404
1.17352
1.16622
1.15045
1.12432
1.1274
1.14618
1.15348
1.14994
1.1538
1.15003
1.14279
1.1421
1.1442
1.14503
1.14875
1.14919
1.14018
1.13559
1.13588
1.13601
1.13231
1.13814
1.1448
1.12829
1.13231
1.1361
1.12077
1.121
1.13533
1.12943
1.12969
1.13873
1.13798
1.13922
1.14136
1.13195
1.1401
1.1325
1.1217
1.12457
1.1008
1.12637
1.098
1.12791
1.12041
1.10812
1.12895
1.12216
1.1135
1.15003
1.10736
1.13073
1.12545
1.1321
1.12201
1.12904
1.15362
1.07899
1.15452
1.10687
1.12572
1.10918
1.09855
1.13681
1.12188
1.08211
1.06343
1.01763
1.15591
1.35892
1.27688
1.11942
1.11899
1.13952
1.10962
1.06733
1.08518
1.14912
1.17966
1.184
1.19342
1.19327
1.16783
1.2543
1.28297
1.12253
1.34931
1.26858
1.29618
1.29382
1.16277
1.16589
1.16879
1.21628
1.18187
1.22185
1.17297
1.0966
1.16372
1.22789
1.17376
1.14609
1.35584
1.35996
1.52284
1.51524
1.40574
1.35788
1.46287
1.45057
1.26554
1.25204
1.16169
1.16061
1.1641
1.17118
1.17416
1.17448
1.18071
1.19363
1.19945
1.1956
1.18698
1.17856
1.176
1.17272
1.17206
1.17388
1.17667
1.17694
1.17822
1.18106
1.18195
1.18198
1.18733
1.1959
1.19778
1.19209
1.18552
1.18287
1.18221
1.18026
1.17899
1.18172
1.18162
1.17919
1.17651
1.17418
1.17184
1.17195
1.1731
1.17034
1.1679
1.1696
1.16726
1.16169
1.16562
1.17454
1.17318
1.16914
1.17592
1.18009
1.17914
1.17842
1.18051
1.19487
1.1972
1.1975
1.20866
1.19735
1.18814
1.20327
1.22146
1.2199
1.20506
1.1981
1.20199
1.18597
1.18182
1.18756
1.17807
1.17243
1.16036
1.13554
1.14074
1.15601
1.16099
1.15951
1.16245
1.15814
1.14917
1.15228
1.15318
1.15157
1.15684
1.16294
1.1632
1.15909
1.15879
1.15849
1.14962
1.14817
1.15049
1.14712
1.14222
1.13249
1.13813
1.13286
1.13995
1.14744