/*--------------------------------*- C++ -*----------------------------------*\
| =========                 |                                                 |
| \\      /  F ield         | OpenFOAM: The Open Source CFD Toolbox           |
|  \\    /   O peration     | Version:  dev                                   |
|   \\  /    A nd           | Web:      http://www.openfoam.org               |
|    \\/     M anipulation  |                                                 |
\*---------------------------------------------------------------------------*/
FoamFile
{
    version     2.0;
    format      ascii;
    class       volScalarField;
    object      T;
    location    "9.149";
}
// * * * * * * * * * * * * * * * * * * * * * * * * * * * * * * * * * * * * * //

dimensions      [0 0 0 1 0 0 0];

internalField   nonuniform List<scalar> 
12225
(
290.349
289.735
289.917
290.214
290.403
290.882
291.218
291.752
292.199
292.664
293.271
293.488
294.379
294.405
294.78
296.412
294.637
296.487
289.517
289.182
289.174
289.23
289.097
289.353
289.548
289.858
290.489
290.547
291.821
291.175
293.22
292.283
293.116
294.811
293.511
295.048
289.656
289.443
289.216
289.294
288.954
289.176
289.213
289.316
289.957
289.659
290.962
290.402
291.854
291.27
292.727
292.339
293.511
293.287
289.556
289.67
289.204
289.522
288.989
289.396
289.293
289.57
289.856
290.003
290.401
290.987
291.226
291.672
292.202
292.66
293.448
293.725
289.34
289.871
289.162
289.845
288.955
289.736
289.337
290.012
289.882
290.202
290.512
291.294
291.471
291.734
292.19
292.944
293.232
293.759
289.397
289.893
289.138
289.864
289.015
289.971
289.297
290.25
289.632
290.231
290.674
291.718
291.504
291.828
292.08
292.927
293.064
293.789
289.554
289.944
289.308
289.868
289.157
290.226
289.41
290.317
289.683
290.56
290.847
291.821
291.655
291.881
292.268
292.876
293.275
293.822
289.673
290.095
289.465
290.009
289.323
290.306
289.508
290.333
290.074
290.9
290.982
291.789
291.652
292.108
292.533
293.063
293.498
293.997
289.862
290.223
289.621
290.24
289.564
290.333
289.642
290.511
290.36
291.162
291.193
291.949
291.871
292.387
292.857
293.308
293.643
294.261
290.079
290.38
289.869
290.511
289.874
290.477
290.025
290.808
290.669
291.448
291.644
292.175
292.355
292.867
293.122
293.797
294.122
294.613
290.306
290.566
290.179
290.676
290.215
290.794
290.508
291.213
291.314
291.83
292.149
292.785
292.808
293.29
293.813
294.22
294.739
295.176
290.637
290.787
290.642
291.009
290.782
291.256
291.199
291.71
291.971
292.512
292.794
293.235
293.6
294.064
294.425
294.957
295.419
295.903
291.157
291.173
291.202
291.436
291.46
291.823
291.982
292.417
292.768
293.224
293.708
294.032
294.492
295.006
295.452
295.907
296.308
296.796
291.652
291.663
291.917
292.116
292.291
292.573
292.857
293.253
293.719
294.171
294.642
295.104
295.686
296.07
296.516
297.008
297.505
297.884
292.339
292.39
292.728
292.94
293.203
293.515
293.888
294.335
294.831
295.302
295.834
296.318
296.841
297.282
297.816
298.26
298.702
299.118
293.178
293.319
293.731
293.99
294.304
294.661
295.107
295.6
296.125
296.646
297.173
297.697
298.192
298.708
299.231
299.668
300.148
300.543
294.158
294.428
294.858
295.14
295.479
295.882
296.342
296.852
297.407
297.982
298.477
298.975
299.498
300.007
300.412
300.849
301.259
301.63
295.31
295.583
295.985
296.264
296.601
296.981
297.387
297.868
298.421
298.957
299.331
299.794
300.365
300.81
301.173
301.546
301.812
302.188
296.382
296.653
296.989
297.183
297.439
297.733
298.045
298.429
298.966
299.457
299.645
299.95
300.512
300.921
301.185
301.479
301.629
301.931
297.286
297.486
297.75
297.861
298.028
298.23
298.422
298.647
299.105
299.544
299.558
299.686
300.171
300.497
300.762
301.109
301.144
301.361
297.993
298.214
298.36
298.35
298.4
298.547
298.569
298.596
298.964
299.36
299.26
299.293
299.619
299.893
300.243
300.548
300.586
300.738
298.576
298.697
298.753
298.619
298.573
298.679
298.609
298.561
298.783
299.014
299.032
299.082
299.19
299.375
299.627
299.848
299.911
300.015
299.01
299.126
299.096
298.892
298.716
298.656
298.654
298.577
298.508
298.668
298.757
298.752
298.865
298.956
299
299.148
299.24
299.379
299.355
299.329
299.234
299.041
298.791
298.622
298.565
298.509
298.414
298.409
298.418
298.487
298.575
298.62
298.642
298.703
298.75
298.828
299.622
299.576
299.41
299.134
298.874
298.686
298.535
298.448
298.392
298.276
298.259
298.309
298.286
298.335
298.355
298.377
298.449
298.491
299.738
299.7
299.576
299.304
299.019
298.784
298.58
298.391
298.278
298.24
298.196
298.166
298.141
298.138
298.153
298.194
298.235
298.283
299.879
299.804
299.622
299.315
299.029
298.759
298.519
298.333
298.194
298.107
298.051
298.02
297.994
297.979
297.977
297.992
298.025
298.075
299.973
299.911
299.708
299.358
299.026
298.726
298.452
298.229
298.068
297.96
297.891
297.855
297.836
297.846
297.872
297.928
297.992
298.096
299.98
299.88
299.682
299.336
298.994
298.697
298.447
298.278
298.175
298.128
298.132
298.172
298.245
298.352
298.475
298.62
298.763
298.966
300.079
299.869
299.81
299.695
299.589
299.526
299.512
299.547
299.61
299.697
299.801
299.914
300.035
300.161
300.287
300.409
300.535
300.672
297.338
293.866
295.177
296.282
297.421
297.599
298.108
297.982
298.192
298.241
298.468
298.669
298.88
299.099
299.233
299.361
299.477
299.532
299.471
299.248
298.984
298.793
298.66
298.513
298.311
298.117
298.043
298.11
298.021
297.499
296.838
296.838
297.209
296.77
296.414
296.69
296.364
296.479
296.615
296.17
296.564
296.309
296.275
297.091
297.308
297.86
297.583
296.4
295.908
295.683
295.434
295.636
296.123
297.199
297.91
296.785
294.432
292.807
292.218
291.745
290.716
289.876
289.828
289.318
288.177
286.972
286.169
285.576
285.614
286.071
286.876
288.135
288.561
287.22
285.846
287.974
291.474
291.148
287.954
285.74
284.64
283.811
283.097
282.358
281.536
280.741
280.079
279.567
279.184
278.861
278.566
278.241
277.841
277.335
276.741
276.17
275.767
275.533
275.292
274.987
274.915
274.714
274.562
274.351
273.992
274.313
273.998
274.353
274.529
274.387
274.029
274.079
274.476
274.939
274.951
274.589
274.714
275.188
275.184
275.176
275.499
275.212
273.963
273.247
273.669
274.032
274.004
274.812
275.374
274.262
273.95
274.503
275.438
275.241
274.399
274.841
275.953
276.767
276.53
273.726
273.915
272.955
273.205
273.216
272.609
271.337
268.378
264.946
263.099
263.003
264.812
265.296
264.527
263.062
260.093
251.13
245.742
253.423
253.523
254.105
250.913
245.915
239.371
237.774
236.346
239.19
241.588
243.157
245.867
246.212
247.309
248.819
252.608
247.294
247.332
250.437
242.239
247.692
259.289
263.794
295.694
291.241
296.242
297.981
299.959
300.861
300.989
300.86
300.759
300.739
300.92
301.105
301.078
300.876
300.634
300.399
300.101
299.774
299.261
298.518
297.757
297.163
296.759
296.468
296.1
295.668
295.41
295.659
295.684
294.739
293.794
294.205
294.551
293.484
293.07
293.464
293.046
293.092
293.3
292.952
292.8
292.847
292.996
292.767
293.462
295.123
295.244
296.51
299.432
295.832
290.215
289.829
290.917
292.67
293.811
292.957
291.035
289.209
288.476
288.513
287.386
285.987
286.75
287.313
286.624
284.61
284.119
283.227
281.514
283.558
284.475
282.444
284.625
286.287
282.873
280.716
280.819
280.128
279.225
278.748
278.161
277.577
277.222
277.195
277.228
277.336
277.33
277.32
277.335
277.382
277.515
277.524
277.305
276.808
276.075
275.393
275.201
275.307
275.291
274.248
274.847
274.704
275.468
275.12
273.175
274.734
272.828
273.753
274.719
275.564
272.065
269.119
267.787
270.757
275.423
274.62
269.14
266.318
268.368
267.748
264.473
266.775
268.517
262.852
258.607
262.923
268.212
268.441
268.527
270.414
272.405
269.5
263.08
259.917
256.637
254.283
257.468
263.239
265.531
260.239
258.62
256.351
257.645
259.064
259.242
256.779
252.2
250.598
249.251
247.335
247.585
248.43
247.895
247.408
240.493
222.013
212.912
223.092
225.389
230.245
226.211
215.69
204.867
202.821
199.923
202.269
204.743
207.576
215.483
218.62
221.944
224.437
228.461
212.629
217.357
216.965
220.569
210.678
233.104
245.533
297.375
288.128
291.911
296.306
299.476
301.103
301.234
300.573
299.93
299.826
300.119
300.187
299.333
297.877
296.891
296.261
295.547
295.025
294.502
294.192
294.164
294.339
294.66
295.113
295.378
295.542
295.502
295.545
295.513
295.25
295.13
294.834
293.752
293.585
294.438
293.532
292.77
293.485
292.603
291.814
292.296
290.613
289.77
290.296
288.087
288.929
289.544
290.028
294.315
293.692
296.917
295.832
288.821
289.64
290.94
290.399
289.914
288.749
288.603
287.908
286.36
286.538
286.762
284.908
283.856
282.118
282.132
283.704
285.122
284.922
283.153
281.845
282.081
281.777
281.625
281.832
282.258
282.7
283.085
283.241
283.013
282.806
282.69
282.721
282.856
282.976
283.056
283.146
283.157
283.17
283.213
283.249
283.365
283.507
283.615
283.584
283.65
283.614
283.888
283.09
284.036
283.377
285.168
285.607
283.287
284.756
283.411
283.172
283.79
286.776
286.168
283.262
275.504
274.242
286.161
295.367
285.886
270.488
273.441
279.526
268.4
264.373
273.157
269.9
255.576
254.393
265.768
275.995
281.685
286.636
289.563
287.812
278.111
266.8
254.632
244.487
246.015
255.786
261.205
255.176
250.46
252.303
250.168
250.208
252.293
253.026
251.501
256.839
257.423
254.637
248.046
244.163
241.823
242.071
230.995
212.988
215.457
216.6
215.021
218.288
213.652
202.324
199.724
202.04
204.045
200.474
193.849
192.996
201.53
204.977
209.019
210.376
213.587
198.709
213.457
211.416
240.586
208.391
220.698
231.223
300.21
288.506
287.076
290.499
294.752
298.934
300.679
300.215
299.344
299.173
299.529
298.821
296.502
294.562
294.514
295.078
295.453
296.163
297.025
297.998
298.851
299.57
300.061
300.413
300.445
300.379
299.941
299.17
298.108
297.1
296.5
295.946
295.357
295.248
294.337
293.034
294.329
295.955
295.173
295.505
296.622
295.676
294.689
293.733
291.1
290.158
287.795
286.394
287.764
287.912
291.312
294.552
294.466
288.569
286.69
291.532
290.982
288.725
287.706
286.673
285.505
287.289
287.397
284.509
283.992
283.058
283.206
283
282.601
282.371
281.718
281.847
282.349
282.716
283.119
283.279
283.526
283.672
283.499
283.227
282.803
282.368
282.006
281.649
281.411
281.316
281.365
281.506
281.775
281.859
281.935
281.896
281.788
281.838
281.957
281.882
282.262
281.891
282.905
281.799
283.012
281.556
282.799
284.264
283.695
283.211
283.875
283.786
283.66
283.138
283.022
289.018
287.425
275.498
277.124
296.88
297.957
274.25
275.854
291.516
280.827
267.765
275.004
278.996
265.375
253.829
259.312
277.624
289.16
289.538
287.586
288.972
288.555
279.892
261.648
242.682
237.532
252.381
259.501
258.677
258.325
258.625
249.065
246.574
245.967
248.555
249.026
256.243
259.85
261.553
252.956
245.223
242.081
239.393
226.198
208.785
222.686
217.531
214.01
213.029
206.478
197.225
207.557
214.233
225.925
221.433
203.765
192.638
195.97
197.301
201.116
201.412
200.484
200.191
220.334
214.737
226.749
243.217
216.947
217.446
301.77
290.921
285.462
285.677
290.469
298.218
301.103
300.894
300.344
299.974
298.315
295.277
293.804
295.64
298.372
299.11
299.231
299.811
300.123
300.36
300.749
301.068
301.227
301.185
300.729
300.131
299.229
297.999
296.926
295.849
294.843
293.54
292.287
291.97
291.596
290.916
291.284
292.176
292.796
294.358
295.902
296.379
296.892
296.673
295.233
293.381
290.582
288.234
286.489
285.664
285.503
287.066
293.436
294.397
288.731
288.379
288.719
288.185
286.647
287.794
287.399
286.4
286.934
287.117
287.871
284.82
283.397
283.703
283.053
283.522
283.534
284.088
284.332
284.587
284.361
284.205
283.948
283.557
283.418
283.149
283.112
283.247
283.257
283.545
283.826
284.282
284.793
285.102
285.374
285.503
285.634
285.882
286.219
286.216
286.758
286.258
286.404
285.668
287.315
285.309
286.836
283.948
285.058
285.882
286.944
286.561
286.422
286.165
286.218
289.74
284.096
283.646
292.521
289.568
275.053
282.403
297.319
279.123
271.551
286.916
287.714
276.662
277.971
280.86
273.114
261.125
254.254
268.071
286.606
284.494
270.073
269.343
282.138
288.469
269.387
243.446
233.188
245.993
259.062
259.582
257.399
263.921
258.923
254.372
247.695
244.584
244.396
252.027
257.828
262.03
254.169
246.868
243.057
239.04
224.102
209.107
229.817
218.718
213.701
210.043
202.11
195.961
221.136
227.723
239.586
238.429
221.66
202.509
197.071
194.119
195.944
195.59
191.675
207.776
225.882
204.318
214.105
259.909
206.25
204.733
302.291
292.57
284.612
283.427
291.474
300.15
301.343
300.413
298.859
295.449
292.276
295.221
301.013
300.731
297.855
298.833
300.978
301.941
302.841
303.622
303.929
304.053
304.167
304.095
303.802
303.273
302.205
300.906
299.717
298.149
297.133
295.96
294.514
292.89
291.733
291.239
291.447
291.142
290.684
291.428
292.908
293.899
294.433
294.349
293.616
293.291
292.466
289.691
286.672
285.785
283.536
282.798
286.625
290.578
291.321
288.765
289.89
290.552
284.421
285.062
286.211
285.317
286.532
288.508
289.782
287.61
286.895
286.681
286.061
286.136
285.773
286.067
285.682
285.418
284.951
284.632
284.393
284.24
284.163
284.361
284.547
284.788
284.999
285.386
285.808
286.475
287.083
287.706
288.039
288.052
288.116
287.743
288.426
287.526
287.919
287.985
288.284
287.371
288.459
287.126
289.306
286.608
287.854
286.861
286.911
286.897
286.621
288.689
286.15
288.26
289.27
287.8
286.35
292.361
287.68
281.619
293.857
291.116
279.006
281.529
284.034
281.576
283.443
283.561
277.579
270.236
256.914
257.982
273.523
280.739
268.76
254.666
265.56
291.827
280.929
246.575
232.936
239.409
254.115
257.654
256.632
259.738
258.781
259.797
256.251
247.327
242.397
246.6
253.584
263.374
252.487
247.631
241.959
240.448
224.992
211.445
236.719
219.747
215.668
208.41
198.775
196.336
231.136
243.078
250.418
245.985
235.598
216.57
202.286
194.198
192.913
191.662
187.331
214.424
232.36
202.091
230.312
230.95
205.605
199.559
302.517
293.538
285.22
286.32
296.649
301.151
300.577
299.726
297.089
294.521
296.737
298.858
297.858
302.453
307.056
305.236
304.255
304.495
303.709
303.078
302.953
302.994
302.94
302.717
302.587
302.206
301.364
300.644
299.438
298.075
296.96
295.555
294.449
293.297
292.019
290.525
289.553
289.265
288.957
288.772
288.829
288.84
289.28
289.795
289.853
290.796
291.184
290.147
288.446
287.719
285.139
283.328
283.322
285.359
291.879
291.69
290.177
290.728
286.469
284.595
287.559
288.105
288.094
290.501
291.167
288.706
287.416
287.331
286.57
286.687
285.987
285.808
284.848
284.53
284.053
284.296
284.197
284.703
284.964
285.52
285.982
286.518
287.207
288.188
288.996
290.189
290.962
291.61
292.063
291.42
290.972
289.442
290.498
290.048
290.366
290.33
290.512
290.714
291.153
290.982
290.935
289.414
288.989
289.704
289.015
289.472
286.996
285.885
288.058
290.388
285.492
290.17
289.292
288.575
292.197
285.812
289.476
294.125
287.986
284.649
284.719
285.87
288.471
287.069
284.008
277.884
266.379
257.869
262.5
271.134
267.916
251.248
254.933
287.683
298.266
257.6
234.718
237.732
251.194
251.422
250.468
250.331
250.846
255.705
259.94
254.761
247.584
245.524
249.684
263.983
250.366
247.924
244.177
241.843
225.371
214.629
241.918
222.78
241.023
207.973
196.715
204.923
228.64
237.988
247.145
245.421
242.378
232.003
210.367
196.312
192.059
189.201
185.543
219.507
233.27
203.332
227.639
226.757
219.164
199.392
302.834
294.725
287.537
291.873
300.449
301.046
297.603
291.975
292.272
301.251
307.091
304.52
303.365
302.755
301.52
302.435
301.175
300.646
301.975
301.996
302.353
302.797
302.804
302.959
303.436
303.217
302.892
302.543
301.285
300.273
299.227
298.11
297.194
296.103
295.174
294.304
293.143
292.465
291.665
290.714
290.103
289.634
289.38
288.752
288.34
288.466
287.598
287.315
285.89
284.086
284.126
284.164
283.978
283.343
287.694
290.436
289.888
290.101
289.053
285.985
286.945
288.944
288.658
290.087
291.019
288.578
287.442
287.724
286.958
286.856
285.729
285.845
285.278
286.148
287.099
288.535
289.518
290.81
291.591
292.528
293.287
294.071
294.611
294.917
294.573
294.237
293.523
292.612
292.012
291.764
291.357
288.808
289.716
289.301
290.022
289.465
288.62
288.947
289.711
292.283
291.12
291.847
290.375
291.267
290.075
289.032
291.025
290.187
284.514
290.709
289.453
290.133
291.09
288.617
294.288
289.992
288.832
292.676
292.116
288.135
289.258
290.002
287.377
291.905
298.594
283.847
274.599
267.422
274.446
284.967
273.665
253.378
254.811
280.67
310.994
279.903
241.737
242.237
251.927
265.474
276.692
271.061
256.676
254.126
259.694
261.428
257.98
250.326
248.319
263.016
250.672
246.956
249.279
242.549
224.667
220.363
244.45
217.729
258.637
209.985
193.56
211.45
227.453
226.033
237.402
238.108
238.871
243.061
219.833
200.4
193.221
188.548
183.932
223.76
233.531
205.261
212.222
229.563
233.831
202.18
303.521
297.881
292.88
297.528
301.991
300.19
297.29
293.955
296.263
301.599
302.369
303.721
302.786
300.519
304.186
305.005
303.061
303.651
302.803
302.805
302.564
302.137
301.823
301.9
302.006
301.76
302.395
302.518
302.316
302.003
301.064
300.161
299.471
298.914
298.585
298.23
297.717
297.167
297.236
297.007
296.591
296.218
295.838
295.473
294.723
293.185
291.05
290.526
288.581
285.025
285.621
284.223
283.051
282.94
284.505
288.515
290.769
291.953
292.812
288.704
287.369
289.253
289.053
290.49
291.985
288.992
287.422
287.692
287.012
287.235
286.93
287.743
288.555
290.7
292.161
293.024
293.014
292.884
292.629
292.893
293.119
293.5
294.028
293.856
293.467
292.475
291.453
291.062
290.49
290.207
292.283
290.844
290.643
289.375
290.864
289.657
288.362
288.699
286.548
289.218
288.716
289.735
289.047
288.514
290.562
291.318
288.005
290.462
289.97
288.744
287.187
291.963
292.53
289.134
295.691
292.459
290.681
295.345
294.336
287.89
294.739
296.549
282.292
294.429
314.1
294.96
278.693
272.95
298.621
315.637
290.784
266.264
265.521
286.877
315.164
293.699
248.431
246.468
248.401
265.502
286.962
299.603
285.482
272.106
271.122
269.962
263.68
251.107
248.674
264.86
252.315
246.881
254.382
244.336
222.911
223.986
251.12
213.55
241.562
216.613
211.701
221.638
238.463
230.882
244.148
241.641
236.74
250.539
229.054
205.794
195.104
189.797
182.736
224.424
235.603
214.283
202.635
222.501
244.029
206.666
303.676
299.446
296.037
299.112
299.884
296.521
294.141
297.451
300.314
301.967
304.154
305.734
303.874
301.044
302.215
302.525
302.322
300.765
301.251
301.937
301.202
301.996
301.033
301.411
300.818
300.434
300.519
299.835
299.932
299.851
299.459
298.954
297.972
296.956
296.105
295.654
295.604
295.133
294.641
294.505
294.489
294.789
295.313
295.851
295.858
295.413
295.247
295.632
293.761
290.064
290.379
288.39
285.12
285.248
284.02
285.728
289.124
291.821
294.728
291.892
290.028
291.266
289.869
289.99
292.489
290.124
288.1
288.586
288.324
289.239
289.833
291.95
293.617
295.9
295.637
294.407
293.223
292.449
292.417
293.139
293.759
293.89
294.078
293.43
293.131
292.575
291.577
291.161
292.577
291.821
293.377
293.628
294.232
291.964
292.353
292.909
289.826
289.673
288.18
286.828
288.031
288.963
289.641
289.415
288.013
290.922
294.131
290.63
289.758
293.769
288.215
292.906
293.559
290.216
296.165
293.442
292.268
299.058
293.984
287.051
299.887
301.932
280.414
294.434
315.357
301.038
280.332
276.987
304.273
311.96
291.845
277.01
277.632
298.882
312.437
291.449
249.492
247.269
246.658
258.688
275.638
290.394
293.433
284.987
281.532
275.604
269.571
257.203
253.452
266.26
253.714
248.113
257.98
245.872
220.147
227.975
256.988
222.333
246.729
232.971
240.33
235.236
248.82
239.118
249.656
247.528
237.007
256.491
237.17
211.495
196.803
192.018
182.379
219.518
235.721
226.57
201.792
221.75
250.518
212.444
303.867
300.829
297.591
297.435
295.001
295.825
297.803
300.955
303.565
300.812
301.849
303.945
301.153
301.525
301.677
302.19
303.368
302.749
304.561
303.095
304.389
304.305
303.986
304.284
303.363
303.297
302.617
302.036
301.566
301
301.001
301.285
301.371
301.207
300.531
299.601
298.875
298.545
297.854
297.1
296.47
296.173
296.401
296.66
296.599
296
295.511
295.685
294.282
293.576
295.463
295.026
289.82
287.735
283.817
281.953
285.34
288.443
293.487
294.562
293.705
293.792
291.608
290.251
292.773
291.138
288.143
288.917
289.255
291.334
292.472
294.948
296.728
297.35
295.644
294.482
294.791
296.018
297.28
297.976
298.371
298.192
298.171
297.866
297.411
297.928
296.44
295.057
295.089
294.826
293.702
292.543
292.97
291.488
289.942
291.296
288.914
287.026
289.548
287.318
286.365
288.544
289.166
289.123
292.42
292.298
294.504
296.588
293.07
298.81
291.934
294.956
296.005
292.14
298.229
294.92
293.543
303.088
294.054
288.362
302.36
302.169
281.315
294.471
309.311
301.545
282.573
283.882
299.163
291.699
288.442
282.406
287.661
306.685
301.635
279.908
250.542
248.199
242.999
263.177
288.219
289.836
288.135
282.303
281.161
277.851
279.3
267.862
259.791
267.511
254.016
250.814
255.978
249.928
225.174
232.557
258.463
235.956
254.278
241.057
243.332
239.116
246.344
238.345
245.319
248.112
235.155
260.092
243.627
217.945
199.078
195.246
182.781
211.77
235.851
232.396
204.473
220.638
253.547
219.037
303.924
302.715
301.345
301.686
298.194
293.422
296.177
302.935
302.854
301.412
302.27
300.275
300.796
303.441
300.816
301.706
301.63
300.904
302.307
302.182
302.996
302.461
303.564
303.285
303.634
303.571
303.323
303.826
303.287
302.213
301.489
301.532
302.156
302.804
303.226
303.317
302.839
302.042
301.211
300.185
299.006
298.142
297.636
297.599
297.685
297.403
296.64
296.262
295.432
295.603
296.381
295.631
292.219
292.5
291.141
285.318
283.583
283.866
289.196
293.967
295.77
296.837
294.181
290.271
292.23
292.527
289.456
290.209
290.914
293.11
294.968
297.765
299.5
298.43
296.709
297.084
298.76
299.431
299.28
297.573
295.052
292.956
292.344
291.92
290.845
292.327
293.048
292.977
292.701
293.67
293.2
291.437
291.063
290.954
290.371
292.972
290.115
288.567
289.628
290.69
288.59
287.622
289.861
290.869
291.314
293.878
297.609
298.842
294.602
302.237
297.035
296.692
303.019
293.492
297.497
299.309
292.167
302.505
298.922
289.681
301.944
306.353
285.869
294.008
303.952
305.112
283.734
288.497
298.105
285.073
291.557
284.331
296.715
310.448
292.758
275.35
261.83
249.517
234.202
266.396
293.681
288.012
280.047
283.576
287.388
283.663
284.105
271.915
263.486
265.763
252.996
255.571
259.597
250.253
219.312
232.294
258.343
245.685
251.718
236.017
235.966
250.19
249.4
242.851
245.775
251.56
233.363
261.006
249.511
224.524
202.144
200.285
183.957
205.703
235.943
235.772
207.385
217.248
252.868
226.319
303.485
302.735
301.761
301.322
299.795
293.967
291.725
300.673
304.56
300.886
300.296
301.077
303.607
302.985
298.884
300.304
299.792
299.586
300.875
301.264
301.014
301.578
301.113
300.784
301.383
301.176
301.474
302.052
302.949
302.749
301.548
300.303
299.694
299.957
300.318
300.577
301.01
301.299
300.976
300.578
299.841
298.759
297.747
296.757
296.362
296.719
296.851
296.589
296.917
296.794
296.377
294.607
292.872
293.901
295.506
291.981
286.981
282.814
285.038
290.097
294.051
297.901
297.282
292.544
292.027
292.897
289.391
290.475
291.939
294.334
296.818
300.663
302.323
300.95
299.049
298.195
298.614
298.022
296.898
295.17
293.464
293.568
295.182
295.629
295.536
296.285
295.631
294.919
294.735
295.089
294.995
293.268
293.467
294.146
291.325
293.793
293.518
290.65
292.453
292.39
287.769
288.593
288.128
287.288
291.474
290.469
294.469
299.316
296.21
300.255
301.359
294.68
307.896
298.42
295.664
305.839
294.437
297.816
306.197
292.587
298.181
309.391
290.573
293.341
299.195
310.769
285.86
294.413
301.025
288.878
296.424
286.84
300.541
310.811
289.148
279.382
273.751
248.849
232.078
273.347
294.54
288.428
283.579
294.34
292.498
283.089
279.52
269.747
265.006
263.32
253.826
263.478
280.48
253.586
224.196
239.339
257.259
247.212
253.761
232.454
232.062
265.121
255.172
252.658
251.819
258.071
233.776
258.26
256.354
231.188
205.555
205.267
185.561
203.018
235.691
239.072
209.675
217.68
253.656
233.315
302.987
301.982
298.676
295.208
294.884
294.41
295.606
300.335
301.773
300.735
301.591
300.043
300.49
302.313
300.524
300.512
300.601
301.311
301.844
301.554
301.893
302.119
301.155
300.97
300.995
301.015
300.96
300.649
301.267
301.907
302.19
302.187
301.33
300.451
300.184
300.244
300.238
300.433
300.722
300.698
300.561
300.309
299.609
298.413
297.162
296.647
296.787
296.991
297.398
297.185
296.685
295.093
294.94
295.105
294.471
294.221
293.676
287.24
283.159
285.213
290.352
296.167
297.32
293.495
292.273
293.985
290.636
290.841
292.845
295.376
298.685
303.315
304.648
301.252
298.329
296.185
295.501
295.677
295.586
295.37
295.252
295.806
296.633
296.1
294.958
296.472
295.3
295.223
295.269
296.254
297.639
296.303
293.767
294.804
296.966
292.164
293.633
293.825
291.541
295.311
291.727
285.487
290.218
287.166
288.568
290.87
292.476
295.798
296.983
295.711
304.928
293.239
304.526
302.89
294.038
306.507
299.362
293.573
309.065
296.188
296.546
309.395
296.451
296.787
296.035
314.108
285.306
299.238
300.536
292.773
299.728
288.258
299.366
310.348
292.392
290.909
281.006
246.457
235.82
278.898
292.696
289.367
292.941
301.886
288.082
275.266
272.938
267.911
265.028
260.412
255.848
282.424
288.558
251.491
228.824
236.818
250.383
242.707
249.986
230.208
233.99
273.404
257.114
262.97
260.724
267.133
236.79
253.18
262.377
238.138
209.89
210.362
186.967
202.061
233.801
240.549
212.818
217.28
252.844
240.07
302.549
302.023
299.051
293.607
290.395
290.089
293.754
300.691
302.956
300.349
300.367
300.727
300.099
300.179
299.231
299.634
300.207
300.848
301.362
300.756
300.24
300.445
300.994
301.504
301.631
301.741
301.62
301.183
300.544
300.199
300.295
300.763
301.415
301.672
301.573
301.631
301.99
302.377
302.528
302.728
302.705
302.521
302.353
301.978
300.773
299.171
298.118
298.018
297.659
297.872
297.822
295.816
295.647
295.558
293.455
291.271
296.051
293.935
285.946
283.128
286.555
292.63
295.247
293.309
291.915
293.881
291.694
291.596
293.825
296.015
299.646
304.485
305.41
300.448
297.998
296.808
297.274
298.546
297.625
297.213
297.703
297.742
295.511
295.047
294.128
295.543
296.065
296.303
296.241
297.235
297.466
297.749
297.863
293.525
295.358
295.879
291.353
293.286
295.357
291.02
291.864
288.242
289.274
289.981
289.504
291.995
294.471
295.236
300.999
295.496
306.983
296.386
303.14
304.038
293.957
304.784
303.227
292.493
308.222
298.175
296.616
305.792
298.438
298.114
292.835
316.366
286.719
303.464
301.07
297.726
303.253
291.714
298.545
309.596
298.095
304.66
281.718
241.83
241.591
282.387
290.231
289.467
299.637
308.141
288.154
272.75
269.01
266.425
264.711
260.317
260.009
293.75
269.709
243.416
220.014
229.078
245.495
240.686
246.17
233.42
242.83
267.876
255.352
263.585
263.289
276.136
244.056
249.19
265.978
247.303
214.442
216.265
189.332
200.855
229.654
239.244
215.012
216.364
251.066
245.781
301.993
301.751
300.54
297.469
293.544
291.058
290.629
294.514
299.577
301.137
300.435
300.017
299.699
300.229
299.948
299.935
300.951
300.672
300.472
302.558
302.22
299.105
297.928
299.045
299.902
299.885
299.987
300.02
299.919
300.03
300.07
299.936
300.023
300.487
300.828
301.066
301.234
301.683
302.281
302.682
302.861
302.871
302.425
301.627
301.148
300.27
298.46
296.947
296.684
297.217
298.083
297.398
296.502
295.187
294.327
289.64
292.546
296.371
291.992
285.537
284.264
288.513
293.226
293.742
292.204
294.293
292.085
291.515
293.866
295.749
299.704
305.253
305.183
299.64
297.163
297.379
297.16
297.115
296.508
296.691
296.16
295.784
293.014
292.881
294.4
296.063
297.246
298.052
298.357
297.865
298.244
297.228
296.683
298.128
296.599
293.825
294.52
291.54
292.942
293.361
290.995
288.798
291.129
293.736
292.47
294.262
297.845
296.998
303.361
296.291
308.117
298.311
303.299
305.044
295.334
302.239
304.49
293.244
306.625
298.669
298.648
302.825
301.039
300.939
293.247
315.183
288.634
304.713
299.445
300.683
304.44
294.022
297.072
307.75
305.363
317.198
283.174
241.496
248.429
287.203
289.603
287.673
300.464
311.418
294.816
275.597
268.152
266.884
264.139
260.583
264.837
273.581
251.527
254.057
222.774
232.426
243.735
234.426
246.989
249.862
255.305
258.18
254.356
252.677
259.422
278.949
252.86
247.774
265.804
259.372
220.011
222.017
193.996
199.987
224.703
236.077
215.708
215.746
249.845
250.913
301.425
301.33
300.036
298.237
296.55
295.628
294.484
293.47
294.657
297.16
299.033
300.288
300.226
300.773
300.799
300.257
300.794
300.859
299.691
299.025
298.908
297.723
296.362
296.981
298.481
298.763
298.701
298.869
298.71
298.813
299.139
299.508
299.756
299.85
300.017
300.206
300.253
300.048
300.214
300.863
301.335
301.92
302.406
301.486
300.02
299.936
300.358
299.218
298.262
298.079
298.271
298.538
297.281
293.822
294.367
292.086
291.408
295.784
295.662
289.532
284.777
286.133
291.209
292.854
291.637
294.574
293.445
291.886
294.119
295.645
299.453
305.838
304.478
298.901
296.607
297.085
295.686
296.216
297.434
297.151
296.123
295.41
293.977
293.666
295.711
296.444
295.997
295.681
296.235
294.354
292.509
296.555
295.197
294.089
298.046
297.803
294.082
295.644
295.675
293.424
293.755
293.533
293.203
295.903
294.077
296.288
299.495
299.035
306.076
299.223
307.764
299.585
301.968
305.684
299.796
301.97
304.885
294.673
306.534
300.36
301.398
300.081
302.069
300.801
292.898
314.036
292.592
304.903
299.391
302.807
305.952
295.143
297.286
307.538
311.271
325.933
287.614
242.739
254.326
291.02
291.348
285.665
293.273
303.922
296.522
278.101
269.629
267.623
264.169
262.506
266.521
249.442
243.268
272.916
224.947
239.906
235.172
232.758
258.649
259.316
258.15
249.111
255.635
247.987
258.806
278.484
261.107
249.088
262.763
267.75
225.881
226.398
201.04
202.231
221.619
231.982
215.257
216.042
249.352
254.819
300.729
301.058
300.172
298.42
297.671
297.662
296.329
293.341
292.017
292.99
295.157
297.408
298.189
299.126
299.486
299.191
298.575
298.566
298.349
297.703
297.522
297.707
296.658
294.598
293.956
295.236
296.975
297.841
298.073
298.577
299.076
298.506
298.479
299.103
299.842
300.482
301.155
301.204
300.853
301.478
302.171
301.713
302.188
303.66
302.708
300.283
300.46
301.458
299.677
298.463
298.528
298.596
298.04
294.305
293.485
293.277
290.406
293.031
295.149
291.245
286.469
286.448
289.965
291.576
290.357
293.982
294.543
292.81
294.845
296.04
298.929
305.048
303.129
298.512
296.857
296.967
295.74
296.566
298.324
297.127
296.49
296.346
294.565
292.779
292.563
293.209
292.935
292.757
294.64
294.69
293.833
294.558
295.697
298.103
296.511
297.866
296.011
294.112
294.632