/*--------------------------------*- C++ -*----------------------------------*\
| =========                 |                                                 |
| \\      /  F ield         | OpenFOAM: The Open Source CFD Toolbox           |
|  \\    /   O peration     | Version:  dev                                   |
|   \\  /    A nd           | Web:      http://www.openfoam.org               |
|    \\/     M anipulation  |                                                 |
\*---------------------------------------------------------------------------*/
FoamFile
{
    version     2.0;
    format      ascii;
    class       volVectorField;
    object      U;
    location    "9.149";
}
// * * * * * * * * * * * * * * * * * * * * * * * * * * * * * * * * * * * * * //

dimensions      [0 1 -1 0 0 0 0];

internalField   nonuniform List<vector> 
12225
(
(7.02747 0.426404 0)
(4.84752 0.232663 0)
(3.08218 0.0760809 0)
(2.53483 0.0313702 0)
(1.59847 0.0555316 0)
(1.75191 0.0485584 0)
(0.691851 0.105344 0)
(1.17367 0.0492239 0)
(-0.233321 0.142697 0)
(0.761975 0.0439486 0)
(-1.37701 0.207107 0)
(0.605001 0.0167241 0)
(-2.71773 0.27187 0)
(0.0246328 0.155427 0)
(-2.68867 -0.15695 0)
(-3.24615 1.78549 0)
(-0.428691 -1.29363 0)
(-12.0491 0.903237 0)
(9.655 0.873198 0)
(10.0437 0.813225 0)
(7.90397 0.485678 0)
(8.15284 0.24203 0)
(5.71475 0.160711 0)
(7.33921 0.101752 0)
(4.34791 0.136275 0)
(7.33031 0.094624 0)
(2.973 0.14485 0)
(7.98928 0.178677 0)
(1.03706 0.135197 0)
(9.56838 0.107846 0)
(-1.27337 0.735405 0)
(11.3053 -1.11241 0)
(-1.73335 2.34359 0)
(11.1742 -2.05326 0)
(4.59492 2.01766 0)
(-5.47492 5.71899 0)
(9.42641 0.565301 0)
(12.1225 0.86443 0)
(9.70375 0.616693 0)
(11.8462 0.384336 0)
(8.15497 0.291672 0)
(11.4981 0.260137 0)
(6.62496 0.160287 0)
(11.744 0.286812 0)
(5.13256 0.0971354 0)
(12.1953 0.374886 0)
(4.32116 0.164068 0)
(12.1843 0.0318349 0)
(4.93592 0.884274 0)
(11.5844 -0.893546 0)
(5.15907 1.71836 0)
(10.3005 -2.35943 0)
(6.8946 7.07178 0)
(9.01473 -0.365267 0)
(8.2921 0.250623 0)
(13.4606 0.634341 0)
(10.0819 0.526173 0)
(13.87 0.334208 0)
(9.46153 0.30234 0)
(13.77 0.295427 0)
(8.85183 0.23756 0)
(13.7722 0.24202 0)
(8.58763 0.38336 0)
(13.4192 2.37281e-05 0)
(8.83662 0.840863 0)
(12.9354 -0.795187 0)
(8.96424 1.93095 0)
(12.7733 -2.07477 0)
(7.66111 3.56012 0)
(10.9498 -3.84273 0)
(10.0211 3.79682 0)
(9.38584 8.30688 0)
(8.70397 0.0591288 0)
(12.3661 0.275932 0)
(10.9228 0.520744 0)
(12.893 0.210206 0)
(11.1622 0.401998 0)
(12.5522 0.0314346 0)
(11.3497 0.398416 0)
(12.2597 -0.102244 0)
(11.4233 0.662136 0)
(11.5492 -0.3791 0)
(11.4965 1.17217 0)
(11.3387 -1.09906 0)
(11.7686 2.33201 0)
(11.0868 -1.89845 0)
(10.7715 4.80516 0)
(9.61509 -5.44654 0)
(10.5746 8.79958 0)
(11.524 1.09002 0)
(9.64792 0.078773 0)
(10.4489 -0.204667 0)
(11.1403 0.391971 0)
(11.4823 -0.161409 0)
(11.9812 0.504515 0)
(11.6293 -0.238113 0)
(12.0289 0.546432 0)
(11.2274 -0.354339 0)
(11.5893 1.03557 0)
(10.9137 -0.676769 0)
(11.8848 1.30566 0)
(11.5435 -1.31349 0)
(11.926 2.29085 0)
(11.4184 -1.18491 0)
(11.8452 3.74927 0)
(11.4448 -2.52042 0)
(9.62316 5.38409 0)
(14.6141 2.98033 0)
(10.3612 -0.288972 0)
(10.5118 -0.408644 0)
(11.2735 0.374131 0)
(10.7341 -0.617105 0)
(12.1086 0.556186 0)
(11.4315 -0.586666 0)
(12.3189 0.954772 0)
(10.7605 -0.625095 0)
(11.9465 1.31513 0)
(11.0205 -1.10398 0)
(12.6008 1.33031 0)
(11.5212 -1.30906 0)
(11.981 2.33726 0)
(11.4554 -0.746706 0)
(12.2321 3.06337 0)
(11.6739 -1.12145 0)
(10.5271 3.0156 0)
(12.6152 2.46307 0)
(10.1788 -0.425285 0)
(10.5708 -0.670549 0)
(11.3878 0.372792 0)
(10.8375 -0.950124 0)
(11.905 0.308405 0)
(11.2572 -0.787443 0)
(11.969 0.976234 0)
(11.1949 -0.55089 0)
(12.2415 1.00841 0)
(11.7536 -1.10236 0)
(12.4242 0.965947 0)
(11.8433 -0.721047 0)
(11.8826 1.80937 0)
(11.9908 -0.102296 0)
(12.0365 2.04081 0)
(11.963 0.0975277 0)
(11.1251 2.41315 0)
(11.885 3.24263 0)
(10.2526 -0.757254 0)
(10.7437 -0.803018 0)
(11.6221 0.302856 0)
(11.197 -1.03183 0)
(11.8492 0.322818 0)
(11.1504 -0.829471 0)
(11.8764 0.867692 0)
(11.5459 -0.71958 0)
(12.2777 0.849516 0)
(11.9087 -1.00429 0)
(12.0969 0.947061 0)
(11.8442 -0.550393 0)
(11.901 1.4968 0)
(12.289 0.207224 0)
(11.9221 1.64756 0)
(11.9999 1.03196 0)
(11.4381 2.1179 0)
(11.9179 2.76014 0)
(10.3765 -0.968387 0)
(10.7379 -1.04122 0)
(11.5043 0.0623797 0)
(11.1856 -1.12944 0)
(11.5984 0.0869878 0)
(11.2298 -0.839114 0)
(11.7779 0.59174 0)
(11.6679 -0.634962 0)
(12.0074 0.502629 0)
(11.854 -0.808035 0)
(11.9223 0.621311 0)
(11.9809 -0.285659 0)
(11.9414 1.01248 0)
(12.3726 0.567607 0)
(12.1754 1.49695 0)
(12.2744 1.52813 0)
(12.2181 1.93749 0)
(12.4429 2.82043 0)
(10.1204 -1.23152 0)
(10.7662 -1.04996 0)
(11.2205 -0.131879 0)
(11.1663 -1.06931 0)
(11.4966 -0.0996792 0)
(11.4539 -0.843149 0)
(11.8687 0.225555 0)
(11.8864 -0.606163 0)
(12.1052 0.295884 0)
(11.9654 -0.561578 0)
(11.9719 0.400944 0)
(12.0307 -0.068607 0)
(12.0505 0.78741 0)
(12.2168 0.755269 0)
(12.2159 1.26535 0)
(12.3366 1.61394 0)
(12.5046 1.89214 0)
(12.7041 2.45524 0)
(10.1227 -1.70923 0)
(10.9393 -1.19162 0)
(11.2713 -0.561491 0)
(11.3163 -1.19008 0)
(11.5591 -0.518746 0)
(11.5946 -0.882868 0)
(11.8389 -0.141585 0)
(11.9093 -0.550223 0)
(12.0623 -0.031476 0)
(12.0831 -0.400179 0)
(12.1227 0.110229 0)
(12.1384 0.0932984 0)
(12.2028 0.628996 0)
(12.2741 0.825567 0)
(12.3716 1.20353 0)
(12.5336 1.66279 0)
(12.7021 1.96008 0)
(12.9041 2.30739 0)
(9.95808 -2.04302 0)
(10.7314 -1.27109 0)
(10.9518 -0.878528 0)
(11.0365 -1.11733 0)
(11.211 -0.709472 0)
(11.3188 -0.850952 0)
(11.5787 -0.504903 0)
(11.7767 -0.593567 0)
(11.9923 -0.306438 0)
(12.0875 -0.3119 0)
(12.1378 0.00423242 0)
(12.2261 0.193022 0)
(12.3215 0.535712 0)
(12.4844 0.833709 0)
(12.6887 1.14562 0)
(12.8551 1.48712 0)
(13.1178 1.83188 0)
(13.3997 2.13504 0)
(10.0404 -2.62507 0)
(10.8152 -1.35518 0)
(11.0499 -1.18185 0)
(11.2257 -1.27685 0)
(11.4217 -1.10329 0)
(11.6368 -1.0644 0)
(11.8496 -0.836167 0)
(12.0606 -0.747353 0)
(12.2224 -0.50853 0)
(12.359 -0.380447 0)
(12.4793 -0.118054 0)
(12.6112 0.12044 0)
(12.7827 0.406537 0)
(12.9715 0.730656 0)
(13.2013 1.04636 0)
(13.4225 1.33816 0)
(13.6504 1.63165 0)
(13.9186 1.95 0)
(9.87085 -3.08056 0)
(10.5849 -1.55623 0)
(10.9087 -1.50673 0)
(11.1835 -1.52081 0)
(11.3931 -1.38477 0)
(11.6066 -1.2714 0)
(11.8398 -1.07128 0)
(12.0967 -0.918154 0)
(12.3356 -0.712447 0)
(12.5778 -0.514581 0)
(12.7908 -0.284107 0)
(12.9987 -0.0298861 0)
(13.173 0.276271 0)
(13.3672 0.567232 0)
(13.5654 0.863248 0)
(13.7946 1.17354 0)
(13.9971 1.4863 0)
(14.2861 1.76421 0)
(9.99468 -3.19343 0)
(10.7652 -1.7363 0)
(11.0815 -1.77933 0)
(11.3249 -1.73042 0)
(11.5016 -1.58901 0)
(11.7215 -1.45699 0)
(11.9328 -1.31423 0)
(12.1919 -1.18097 0)
(12.4156 -0.979448 0)
(12.6659 -0.749498 0)
(12.8746 -0.470231 0)
(13.1055 -0.160871 0)
(13.3015 0.169049 0)
(13.5158 0.476323 0)
(13.7501 0.783698 0)
(13.9877 1.03997 0)
(14.2157 1.32459 0)
(14.5365 1.59307 0)
(10.1184 -3.65688 0)
(10.8353 -1.92424 0)
(11.1747 -1.82512 0)
(11.4486 -1.72709 0)
(11.6855 -1.61154 0)
(11.9825 -1.50247 0)
(12.2523 -1.37853 0)
(12.5471 -1.22741 0)
(12.7935 -1.03709 0)
(13.0474 -0.814854 0)
(13.278 -0.576383 0)
(13.5439 -0.291729 0)
(13.7937 -0.00886038 0)
(14.0714 0.285283 0)
(14.3294 0.558273 0)
(14.6261 0.800145 0)
(14.9015 1.03781 0)
(15.2264 1.2591 0)
(9.9607 -3.92558 0)
(10.6622 -2.06908 0)
(11.1109 -1.91007 0)
(11.5535 -1.7822 0)
(11.9255 -1.6686 0)
(12.3117 -1.58064 0)
(12.6464 -1.48387 0)
(12.9831 -1.33348 0)
(13.2786 -1.13448 0)
(13.5503 -0.899154 0)
(13.7931 -0.677339 0)
(14.0809 -0.436205 0)
(14.3389 -0.163208 0)
(14.6302 0.0966245 0)
(14.884 0.324849 0)
(15.1471 0.559321 0)
(15.3998 0.779975 0)
(15.7006 1.00499 0)
(9.92728 -3.74757 0)
(10.6425 -2.07168 0)
(11.102 -1.96901 0)
(11.6091 -1.84567 0)
(12.076 -1.71725 0)
(12.5342 -1.60501 0)
(12.9213 -1.48984 0)
(13.2826 -1.32849 0)
(13.5943 -1.09751 0)
(13.9023 -0.858618 0)
(14.1978 -0.664903 0)
(14.5317 -0.473109 0)
(14.8546 -0.229534 0)
(15.1906 -0.00758368 0)
(15.4967 0.184688 0)
(15.7871 0.398006 0)
(16.0264 0.577139 0)
(16.3208 0.770042 0)
(10.3165 -3.52988 0)
(10.8903 -1.88154 0)
(11.3056 -1.84891 0)
(11.78 -1.78313 0)
(12.2366 -1.67209 0)
(12.6878 -1.53029 0)
(13.0831 -1.39004 0)
(13.4562 -1.24043 0)
(13.804 -1.05107 0)
(14.194 -0.864941 0)
(14.5633 -0.736731 0)
(14.9412 -0.61609 0)
(15.3185 -0.427375 0)
(15.6825 -0.215843 0)
(16.023 -0.0162588 0)
(16.3379 0.192747 0)
(16.5824 0.396735 0)
(16.8585 0.599472 0)
(9.98225 -2.97674 0)
(10.7779 -1.62899 0)
(11.3488 -1.6511 0)
(11.9079 -1.65105 0)
(12.4136 -1.57343 0)
(12.9244 -1.45137 0)
(13.3998 -1.31266 0)
(13.8646 -1.18608 0)
(14.2981 -1.0762 0)
(14.7457 -0.933994 0)
(15.1618 -0.825279 0)
(15.5251 -0.741886 0)
(15.8229 -0.579418 0)
(16.1383 -0.395072 0)
(16.4032 -0.184798 0)
(16.666 0.0500635 0)
(16.9169 0.243278 0)
(17.1829 0.432471 0)
(10.0119 -2.77011 0)
(10.7405 -1.50987 0)
(11.4724 -1.51627 0)
(12.1277 -1.49943 0)
(12.6821 -1.42648 0)
(13.2278 -1.34372 0)
(13.7705 -1.25773 0)
(14.2925 -1.17638 0)
(14.7444 -1.08575 0)
(15.1562 -0.970498 0)
(15.5294 -0.856829 0)
(15.8512 -0.701181 0)
(16.1241 -0.524416 0)
(16.418 -0.351489 0)
(16.6763 -0.155834 0)
(16.9475 0.0101599 0)
(17.2376 0.173972 0)
(17.5291 0.319249 0)
(9.91831 -2.50335 0)
(10.7236 -1.46009 0)
(11.521 -1.47164 0)
(12.2935 -1.42429 0)
(12.9483 -1.35986 0)
(13.5455 -1.29966 0)
(14.0858 -1.23503 0)
(14.5708 -1.11251 0)
(15.0287 -0.988523 0)
(15.416 -0.874474 0)
(15.7195 -0.778017 0)
(16.009 -0.649061 0)
(16.2864 -0.534934 0)
(16.578 -0.420157 0)
(16.861 -0.306137 0)
(17.137 -0.167689 0)
(17.432 -0.0145433 0)
(17.727 0.125168 0)
(10.2572 -2.09545 0)
(10.9326 -1.26436 0)
(11.6277 -1.34267 0)
(12.3123 -1.30489 0)
(12.9374 -1.22488 0)
(13.5209 -1.14296 0)
(14.0848 -1.09723 0)
(14.5958 -1.02922 0)
(15.1064 -0.951137 0)
(15.5698 -0.828467 0)
(15.9361 -0.68581 0)
(16.3108 -0.579422 0)
(16.656 -0.462799 0)
(16.9771 -0.374206 0)
(17.3057 -0.302713 0)
(17.6005 -0.169691 0)
(17.8787 -0.0610596 0)
(18.1618 0.0431413 0)
(10.1103 -1.76985 0)
(10.8733 -1.07288 0)
(11.6878 -1.15547 0)
(12.4593 -1.15758 0)
(13.1823 -1.14549 0)
(13.873 -1.10216 0)
(14.5249 -1.06521 0)
(15.0768 -0.993771 0)
(15.5202 -0.891168 0)
(15.9003 -0.790769 0)
(16.2245 -0.68786 0)
(16.5688 -0.609885 0)
(16.8851 -0.547987 0)
(17.1928 -0.485215 0)
(17.5556 -0.398916 0)
(17.8745 -0.289199 0)
(18.1398 -0.175618 0)
(18.4121 -0.0712084 0)
(9.67568 -1.47283 0)
(10.7353 -1.06578 0)
(11.8562 -1.12508 0)
(12.8074 -1.11351 0)
(13.5397 -1.0912 0)
(14.1523 -1.06439 0)
(14.706 -0.999014 0)
(15.2254 -0.899228 0)
(15.7039 -0.769293 0)
(16.1463 -0.672891 0)
(16.5175 -0.583442 0)
(16.8598 -0.52159 0)
(17.1542 -0.493211 0)
(17.4275 -0.424916 0)
(17.6959 -0.36213 0)
(17.9378 -0.301947 0)
(18.1568 -0.208506 0)
(18.3907 -0.133719 0)
(10.0435 -1.15505 0)
(11.0919 -1.08051 0)
(12.167 -1.14757 0)
(13.0513 -1.08149 0)
(13.7192 -1.00646 0)
(14.2612 -0.950744 0)
(14.6854 -0.911648 0)
(15.0688 -0.857199 0)
(15.4133 -0.752372 0)
(15.7566 -0.663631 0)
(16.0446 -0.589708 0)
(16.3144 -0.510366 0)
(16.5475 -0.444915 0)
(16.7487 -0.387194 0)
(16.9145 -0.343925 0)
(17.0623 -0.292232 0)
(17.1889 -0.232706 0)
(17.3132 -0.184517 0)
(9.93183 -0.987893 0)
(11.3454 -1.05649 0)
(12.3742 -1.01041 0)
(12.9515 -0.924111 0)
(13.2966 -0.847005 0)
(13.5331 -0.756815 0)
(13.6728 -0.695035 0)
(13.8004 -0.6298 0)
(13.8804 -0.557019 0)
(14.0113 -0.481694 0)
(14.1167 -0.429582 0)
(14.2357 -0.348472 0)
(14.3447 -0.287028 0)
(14.4173 -0.249043 0)
(14.4697 -0.212159 0)
(14.5208 -0.158375 0)
(14.5543 -0.118272 0)
(14.56 -0.0813591 0)
(10.0195 -1.14892 0)
(10.767 -1.21556 0)
(10.9976 -0.982489 0)
(10.8373 -0.777699 0)
(10.6393 -0.585482 0)
(10.4674 -0.447679 0)
(10.3807 -0.359494 0)
(10.3397 -0.310372 0)
(10.3288 -0.267869 0)
(10.3999 -0.208867 0)
(10.4609 -0.173212 0)
(10.5643 -0.134807 0)
(10.6633 -0.117698 0)
(10.7555 -0.0912199 0)
(10.852 -0.0615698 0)
(10.9419 -0.0322847 0)
(11.0239 -0.0185104 0)
(11.0899 -0.00178672 0)
(8.47707 -0.592333 0)
(6.77453 -0.477158 0)
(5.67799 -0.217462 0)
(5.11919 -0.101927 0)
(5.01722 -0.0479961 0)
(5.1212 -0.0512685 0)
(5.34539 -0.0510426 0)
(5.58073 -0.060566 0)
(5.81831 -0.0551639 0)
(6.05992 -0.0487432 0)
(6.29589 -0.0416605 0)
(6.53989 -0.0318094 0)
(6.77894 -0.0205339 0)
(7.01593 -0.0100483 0)
(7.24877 0.00105168 0)
(7.46437 0.0147845 0)
(7.69986 0.0134276 0)
(7.8573 0.0506389 0)
(-0.0787974 0.802748 0)
(-0.322512 0.798158 0)
(-0.47967 0.750806 0)
(-0.558381 0.637871 0)
(-0.522738 0.552866 0)
(-0.371677 0.421219 0)
(-0.116154 0.342925 1.17096e-17)
(0.171468 0.306434 -1.16206e-17)
(0.479479 0.290229 0)
(0.774227 0.285312 -1.14641e-17)
(1.07289 0.265925 0)
(1.37066 0.243495 0)
(1.69087 0.21349 0)
(2.03739 0.181657 1.11705e-17)
(2.39566 0.17121 0)
(2.74513 0.15757 0)
(3.0913 0.135834 -1.09466e-17)
(3.44858 0.109921 0)
(3.82776 0.0796415 0)
(4.22994 0.0644585 0)
(4.62916 0.0501301 1.06205e-17)
(5.03406 0.0540221 0)
(5.42903 0.025329 1.04591e-17)
(5.83943 -0.0119333 0)
(6.27704 -0.0377636 0)
(6.71031 -0.0543782 1.02197e-17)
(7.1735 -0.0843972 0)
(7.64115 -0.101371 -1.00755e-17)
(8.09351 -0.0980397 0)
(8.53382 -0.100845 9.9116e-18)
(8.96867 -0.114557 0)
(9.41078 -0.0771575 0)
(9.78326 -0.0182398 0)
(10.0615 0.0356786 0)
(10.2847 0.117229 0)
(10.4274 0.179179 -9.47011e-18)
(10.4552 0.260614 0)
(10.3833 0.325722 1.86582e-17)
(10.2173 0.411318 0)
(9.89917 0.547858 -1.83735e-17)
(9.47651 0.62074 0)
(8.86968 0.808711 0)
(8.02805 0.953078 1.79935e-17)
(7.14948 1.14188 0)
(5.82672 1.47226 1.78051e-17)
(4.21315 0.929588 -1.77188e-17)
(3.14616 -0.301394 0)
(2.43652 -0.912977 -1.73977e-17)
(1.76082 -0.634908 -1.7252e-17)
(1.52936 -0.118958 0)
(1.5558 0.0483017 0)
(1.43295 0.0479228 0)
(1.18341 0.0828167 0)
(0.888419 0.189345 0)
(0.424454 0.117545 1.66527e-17)
(-0.162783 -0.0479171 0)
(-0.65402 -0.116084 -1.62299e-17)
(-0.939598 -0.111603 0)
(-1.0417 -0.170494 0)
(-1.04809 -0.269204 1.57565e-17)
(-0.755435 -0.399644 0)
(-0.092023 -0.455292 -1.54445e-17)
(0.43677 -0.369089 0)
(0.908702 -0.302162 0)
(1.25715 -0.297617 0)
(1.79776 -0.222622 1.48702e-17)
(2.00112 -0.224895 0)
(2.10151 0.0442348 0)
(1.77324 0.494006 1.4486e-17)
(0.990295 0.652001 0)
(0.0387816 0.934206 1.43433e-17)
(-1.55247 1.40675 0)
(-2.8768 0.87805 0)
(-2.90811 -0.607414 0)
(-2.57017 -1.58134 -1.39048e-17)
(-2.34122 -1.56952 0)
(-2.53604 -0.762015 0)
(-3.45931 0.226773 -1.38633e-17)
(-4.92471 0.739019 -1.36115e-17)
(-6.45429 0.809843 0)
(-7.89349 0.777421 -1.32615e-17)
(-9.22716 0.724419 0)
(-10.4405 0.667644 -2.60081e-17)
(-11.535 0.624657 0)
(-12.5088 0.568321 -2.55101e-17)
(-13.3078 0.511921 0)
(-13.9235 0.432894 2.50368e-17)
(-14.3699 0.348497 0)
(-14.7171 0.263544 0)
(-14.9777 0.226885 0)
(-15.1307 0.198333 -2.4251e-17)
(-15.1959 0.164291 0)
(-15.1199 0.100962 2.38755e-17)
(-14.9102 0.0249504 0)
(-14.6213 -0.0202916 -2.34762e-17)
(-14.3118 -0.0295823 -2.32751e-17)
(-14.0448 0.00968227 -2.30879e-17)
(-13.7744 0.0273539 0)
(-13.347 -0.0604143 0)
(-12.8768 -0.0158774 0)
(-12.5134 -0.0113347 0)
(-12.0819 -0.0248146 0)
(-11.6426 -0.0282947 0)
(-10.9788 -0.0669191 0)
(-10.3496 -0.00299085 0)
(-9.68262 -0.0315633 2.16258e-17)
(-8.97025 0.000143372 2.14538e-17)
(-8.27587 -0.010188 0)
(-7.53814 0.00111136 0)
(-6.6065 0.0259329 0)
(-5.74535 0.0811296 2.08704e-17)
(-5.01072 0.125094 0)
(-4.30549 0.162934 0)
(-3.62646 0.180044 0)
(-2.77129 0.124866 0)
(-1.76772 0.154612 -2.02062e-17)
(-0.841457 0.263423 0)
(-0.237253 0.314947 0)
(0.313938 0.324349 1.98463e-17)
(0.978536 0.353288 -1.97151e-17)
(1.50361 0.38408 0)
(1.91891 0.390289 -1.9459e-17)
(2.3373 0.367192 0)
(2.7166 0.328651 1.90691e-17)
(2.90101 0.276604 0)
(3.10549 0.299278 0)
(3.41184 0.395588 0)
(3.81515 0.573976 0)
(3.98303 0.628394 0)
(3.68291 0.565067 -3.67949e-17)
(3.48811 0.517393 -3.65059e-17)
(3.55905 0.54115 0)
(3.6323 0.546052 0)
(3.57539 0.465857 0)
(3.33317 0.476704 3.55905e-17)
(3.02828 0.433225 0)
(2.83712 0.384824 0)
(2.92992 0.300329 0)
(2.78741 0.385015 3.4966e-17)
(2.75658 0.430515 -3.43951e-17)
(2.14623 0.572723 0)
(1.05771 0.591231 0)
(0.204301 0.579058 -3.36869e-17)
(-0.882061 0.562711 -3.34765e-17)
(-1.82784 0.515273 0)
(-2.91202 0.625635 0)
(-4.2896 0.678517 3.22588e-17)
(-5.27059 0.557239 -3.16469e-17)
(-5.47234 0.40403 0)
(-4.70504 0.381514 0)
(-4.55849 0.583186 -3.10321e-17)
(-5.31833 0.5903 0)
(-6.37654 0.610957 0)
(-6.80591 0.501512 -3.02163e-17)
(-7.06196 0.499137 0)
(-7.65824 0.582147 -2.85074e-17)
(-5.98679 0.790163 0)
(-6.16507 1.05909 0)
(-6.78162 0.807791 0)
(-7.01939 0.824317 2.81624e-17)
(-7.41572 0.74714 0)
(-7.68384 0.925895 0)
(-7.60586 0.802705 0)
(-6.70839 0.69062 0)
(-5.39232 0.620869 0)
(-3.78738 0.670237 0)
(-3.13365 0.916833 2.56867e-17)
(-2.74184 0.969013 2.56856e-17)
(-2.42892 0.885567 0)
(-2.16836 0.955827 0)
(-2.14957 0.990058 0)
(-1.98502 0.999088 -2.56787e-17)
(-1.66561 1.00252 0)
(-2.0999 1.21517 5.03996e-17)
(-0.728919 1.36969 -5.00824e-17)
(-1.04002 1.27443 -5.0381e-17)
(-0.187709 1.00816 4.84224e-17)
(4.17493 1.08574 -4.91052e-17)
(5.19684 1.26608 5.09902e-17)
(5.79404 0.9683 0)
(0.0422026 2.42773 0)
(-0.219032 2.4067 0)
(-0.343268 2.14813 -2.39571e-17)
(-0.431606 1.82806 0)
(-0.375711 1.44475 2.39155e-17)
(-0.198481 1.09689 2.38165e-17)
(0.0886025 0.850263 1.18166e-17)
(0.434565 0.753622 1.17502e-17)
(0.74833 0.759939 0)
(1.01578 0.76593 1.15781e-17)
(1.27872 0.743947 0)
(1.55503 0.679047 0)
(1.86992 0.583648 -2.26678e-17)
(2.21119 0.477879 -1.12553e-17)
(2.559 0.434933 2.23134e-17)
(2.89206 0.415371 2.21379e-17)
(3.22213 0.372172 1.09886e-17)
(3.53828 0.299744 0)
(3.84711 0.195446 0)
(4.1651 0.0941584 0)
(4.49008 0.0198094 1.05823e-17)
(4.84659 -0.0127203 0)
(5.19743 -0.0799647 -3.12279e-17)
(5.56484 -0.192729 0)
(5.96314 -0.305395 0)
(6.38967 -0.376644 -1.01581e-17)
(6.8523 -0.459279 0)
(7.3268 -0.521344 1.00166e-17)
(7.79501 -0.558053 1.98842e-17)
(8.29521 -0.587099 -9.84401e-18)
(8.77161 -0.640722 0)
(9.26458 -0.629446 0)
(9.69638 -0.492109 0)
(10.0562 -0.374154 1.9059e-17)
(10.4411 -0.285201 1.8903e-17)
(10.6994 -0.0957416 9.39948e-18)
(10.9013 0.101172 0)
(11.1131 0.259563 -1.85116e-17)
(11.1499 0.466349 0)
(11.1974 0.696398 1.82381e-17)
(11.107 0.903895 0)
(10.9147 1.22824 0)
(10.6741 1.49977 -1.78475e-17)
(10.2848 1.81316 0)
(9.99989 2.22631 -5.28653e-17)
(9.41192 2.50272 1.75898e-17)
(8.71352 2.49401 0)
(7.58759 2.30583 1.74301e-17)
(5.53555 1.89352 1.74777e-17)
(3.98024 0.395362 0)
(2.72971 -0.738275 0)
(1.87018 -0.0663343 0)
(1.71933 0.264666 0)
(1.406 0.186575 0)
(0.864509 0.538705 -1.6468e-17)
(0.317026 0.768528 -3.26362e-17)
(-0.240235 0.579951 1.60902e-17)
(-0.687572 0.128296 0)
(-0.739464 -0.390287 -3.15022e-17)
(-0.691311 -0.733802 1.56608e-17)
(-0.207687 -1.50768 0)
(0.568589 -1.88457 1.52839e-17)
(1.13089 -1.58632 0)
(1.90353 -1.35 0)
(2.43907 -1.31566 3.00199e-17)
(3.28606 -1.20386 -1.47849e-17)
(3.52372 -0.859584 2.93434e-17)
(3.55557 -0.220622 -2.9041e-17)
(3.2379 0.603759 -1.43145e-17)
(2.64306 1.01478 0)
(1.75421 1.28213 -1.42544e-17)
(1.01667 1.29813 0)
(0.719043 0.327833 0)
(-0.227153 -0.295613 0)
(-2.9472 0.581279 -1.38125e-17)
(-6.03232 1.46442 0)
(-8.33492 1.90394 -2.70073e-17)
(-10.0166 2.1199 4.0118e-17)
(-11.4687 2.13267 1.32271e-17)
(-12.7729 2.01195 0)
(-13.9307 1.84148 1.29992e-17)
(-14.9462 1.65 0)
(-15.8329 1.44993 2.55613e-17)
(-16.5812 1.23914 0)
(-17.141 0.964059 2.52205e-17)
(-17.4842 0.67998 -5.01903e-17)
(-17.6899 0.422035 -2.48952e-17)
(-17.8015 0.230426 0)
(-17.8579 0.091801 0)
(-17.8547 -0.0255178 0)
(-17.7431 -0.145723 2.42517e-17)
(-17.5292 -0.316238 0)
(-17.1542 -0.49271 -2.39133e-17)
(-16.6722 -0.623525 0)
(-16.1478 -0.613307 7.05264e-17)
(-15.6468 -0.558665 2.32724e-17)
(-15.2109 -0.519329 2.30972e-17)
(-14.7959 -0.562869 0)
(-14.1267 -0.737687 0)
(-13.4651 -0.51968 0)
(-13.0139 -0.526575 0)
(-12.3246 -0.560524 0)
(-11.8643 -0.604854 4.44321e-17)
(-10.9991 -0.694161 4.40786e-17)
(-10.172 -0.522069 0)
(-9.34696 -0.542894 -2.16825e-17)
(-8.5158 -0.472793 -2.1385e-17)
(-7.63992 -0.449921 0)
(-6.86874 -0.451112 -4.25119e-17)
(-5.83991 -0.500374 0)
(-4.78849 -0.270821 2.07851e-17)
(-3.69433 -0.0840578 0)
(-2.74534 0.0890819 0)
(-2.16058 0.167419 -4.04807e-17)
(-1.43831 -0.0680144 0)
(-0.260407 -0.0467911 2.02341e-17)
(1.157 0.289767 0)
(1.86479 0.58434 0)
(2.24241 0.570331 1.94144e-17)
(3.07102 0.518745 1.92085e-17)
(3.97391 0.682559 0)
(4.53382 0.793204 -1.89206e-17)
(4.97691 0.783457 0)
(5.49676 0.900858 1.8393e-17)
(5.75998 1.07551 3.59346e-17)
(5.74875 1.08986 0)
(5.673 0.748158 0)
(5.566 0.59263 0)
(5.44551 0.891148 0)
(4.9615 1.1467 3.63449e-17)
(4.63486 1.10786 1.09146e-16)
(4.95782 0.755907 0)
(5.75378 0.72655 0)
(6.69513 1.07096 0)
(6.40903 1.22495 -3.33617e-17)
(5.6878 1.29975 0)
(4.9788 1.17868 0)
(4.36258 0.973381 6.72111e-17)
(3.64311 1.04341 3.36978e-17)
(3.12078 1.04312 3.2793e-17)
(2.64908 1.60353 0)
(1.42264 1.35817 0)
(1.06276 1.30413 3.18808e-17)
(0.138122 1.38468 -3.18904e-17)
(-1.11526 1.37434 0)
(-2.78276 1.52932 0)
(-4.63348 1.37521 -3.04471e-17)
(-5.63259 0.707413 9.02503e-17)
(-6.24293 -0.104219 0)
(-4.31523 -0.385984 0)
(-2.82109 0.424196 2.91482e-17)
(-2.72195 1.00306 0)
(-3.66013 1.34331 5.76112e-17)
(-4.40856 1.13001 -2.85795e-17)
(-5.32128 1.353 0)
(-6.76979 0.738868 2.53258e-17)
(-4.3072 0.125131 4.82847e-17)
(-3.72113 1.33296 0)
(-4.27914 1.30794 0)
(-4.83516 1.83858 -2.56141e-17)
(-5.90364 1.76384 0)
(-6.43722 1.59207 4.75135e-17)
(-5.88517 0.49908 0)
(-4.68327 0.0139884 0)
(-2.80154 -0.32635 0)
(-0.523802 0.0318875 0)
(0.407005 0.855456 -2.18507e-17)
(1.13571 1.19199 -2.20128e-17)
(1.11888 1.44585 0)
(0.703403 1.89458 0)
(-0.143794 2.14505 0)
(-0.832664 2.35049 2.32331e-17)
(-1.57732 2.49523 0)
(-2.21915 1.96648 -4.34961e-17)
(0.278486 1.91544 4.41829e-17)
(-0.697382 2.47684 4.38242e-17)
(-1.61584 1.38126 4.44032e-17)
(6.54521 1.58975 4.20303e-17)
(7.46329 3.41085 4.62736e-17)
(7.24512 3.071 0)
(0.200906 3.54301 0)
(0.175396 3.92992 0)
(0.119309 3.54967 2.36411e-17)
(0.0730315 3.05098 2.37876e-17)
(0.112339 2.45643 -2.39106e-17)
(0.236297 1.80799 -2.38698e-17)
(0.509892 1.35801 -3.84949e-20)
(0.801896 1.25083 0)
(1.05404 1.36507 0)
(1.24561 1.42924 0)
(1.41422 1.376 0)
(1.62684 1.22131 0)
(1.89903 1.02445 6.76302e-17)
(2.1701 0.864235 0)
(2.41168 0.796029 -2.20636e-17)
(2.6326 0.774037 -2.18607e-17)
(2.85497 0.733381 0)
(3.04683 0.671635 0)
(3.21259 0.578239 0)
(3.3832 0.457916 0)
(3.54684 0.353213 -2.09506e-17)
(3.75574 0.250649 0)
(4.01671 0.120631 2.06914e-17)
(4.30322 -0.0819067 0)
(4.65283 -0.293438 0)
(5.02592 -0.474573 0)
(5.43224 -0.608567 4.03104e-17)
(5.88867 -0.730784 0)
(6.34536 -0.875926 -1.98901e-17)
(6.80741 -1.01088 3.9443e-17)
(7.27518 -1.00893 0)
(7.70148 -0.89113 0)
(8.05053 -0.801282 0)
(8.47378 -0.675509 -1.90831e-17)
(8.87053 -0.487073 -1.90042e-17)
(9.13026 -0.264077 0)
(9.44695 -0.0900899 0)
(9.76521 0.177046 3.70982e-17)
(9.8495 0.403961 3.67261e-17)
(10.0497 0.651241 -3.63795e-17)
(10.1594 1.06102 0)
(10.1032 1.30968 0)
(10.2881 1.72037 0)
(10.162 2.12063 0)
(10.2463 2.35888 3.46452e-17)
(10.2366 2.84257 3.45206e-17)
(9.9411 2.84978 -3.43436e-17)
(9.82861 3.05387 0)
(8.98504 3.35178 0)
(8.24323 2.8799 0)
(6.88482 2.7316 0)
(4.47955 1.46142 3.38717e-17)
(3.08058 0.185396 0)
(2.2605 0.728816 0)
(1.3977 1.12087 3.26732e-17)
(0.649929 0.741112 3.23556e-17)
(-0.0954429 0.384146 0)
(-0.632282 -0.12081 -6.35737e-17)
(-0.786561 -0.823 3.15112e-17)
(-0.83993 -1.5171 -3.12174e-17)
(-0.0155972 -2.77246 0)
(-0.114171 -2.85262 0)
(0.642766 -2.69768 0)
(1.31098 -2.99894 0)
(1.87984 -2.89493 -2.97033e-17)
(2.38396 -2.46603 -5.87289e-17)
(2.19011 -1.65539 -2.91122e-17)
(2.07684 -0.369611 2.90682e-17)
(1.64365 0.87448 0)
(0.719969 1.62579 -5.76447e-17)
(-0.455454 1.95463 -5.68626e-17)
(-1.89392 2.15119 -5.61881e-17)
(-4.18996 2.58122 5.58397e-17)
(-6.8245 3.30196 0)
(-9.04327 3.56036 8.24188e-17)
(-10.7981 3.48333 0)
(-12.2847 3.44638 -2.72449e-17)
(-13.5666 3.41154 -2.69903e-17)
(-14.6353 3.25284 0)
(-15.5072 2.99579 0)
(-16.2609 2.68444 -5.30909e-17)
(-16.9271 2.3773 0)
(-17.4384 2.00224 -5.23233e-17)
(-17.7708 1.5866 0)
(-17.9691 1.15706 5.16571e-17)
(-18.0308 0.755495 1.02555e-16)
(-18.0265 0.444291 0)
(-17.9584 0.206796 0)
(-17.8699 0.0323117 0)
(-17.7395 -0.141969 4.99918e-17)
(-17.5116 -0.364768 0)
(-17.231 -0.624911 4.9329e-17)
(-16.8054 -0.903661 0)
(-16.2756 -1.05208 0)
(-15.8107 -1.03037 -9.6682e-17)
(-15.3451 -0.864999 0)
(-14.9177 -0.869393 -4.77327e-17)
(-14.5222 -0.931155 0)
(-13.7925 -1.25461 -4.7121e-17)
(-13.2364 -0.831599 0)
(-12.632 -0.830107 0)
(-11.8862 -0.796145 0)
(-11.6624 -0.863848 -1.3803e-16)
(-10.7369 -1.15309 -4.57222e-17)
(-10.0259 -0.866147 0)
(-8.9951 -0.850254 0)
(-8.22568 -0.728287 0)
(-7.20532 -0.613269 0)
(-6.40348 -0.514583 4.38767e-17)
(-5.44035 -0.726203 -8.82106e-17)
(-4.55044 -0.45112 -4.36476e-17)
(-3.44184 -0.261961 8.59473e-17)
(-1.99197 0.240155 8.3021e-17)
(-1.04852 0.659828 4.09714e-17)
(-0.70198 0.210825 0)
(-0.220122 -0.22444 8.71914e-17)
(1.50945 0.307694 0)
(3.01217 1.19497 -7.87823e-17)
(3.31451 1.20819 -3.9508e-17)
(3.74521 0.855877 0)
(4.87509 1.03178 7.66228e-17)
(5.54508 1.32703 3.7452e-17)
(5.79868 1.3972 0)
(6.53219 1.49343 3.78099e-17)
(7.1692 1.59418 -1.06531e-16)
(7.21238 1.72478 0)
(7.11659 1.94444 0)
(6.51333 2.30817 0)
(5.64191 2.68934 0)
(4.79854 2.71355 -7.71409e-17)
(4.16182 2.18461 -7.73532e-17)
(4.34019 1.3811 0)
(5.18447 0.89202 0)
(7.04753 1.32365 0)
(7.81397 2.19074 0)
(7.14602 2.51712 0)
(6.30859 2.54851 0)
(5.06164 2.2312 -6.53375e-17)
(3.56594 2.42976 4.54354e-20)
(2.11043 1.90168 0)
(0.866906 2.32409 0)
(0.387472 2.0977 -6.29231e-17)
(0.0679437 2.01595 0)
(-0.061255 2.23693 6.15966e-17)
(-0.760831 2.53129 6.1779e-17)
(-2.35168 3.23823 0)
(-4.23648 2.8234 0)
(-5.56416 1.87607 -6.17031e-17)
(-7.08427 0.0242809 -1.23043e-16)
(-5.20919 -1.02712 0)
(-3.17957 0.325671 0)
(-2.4039 1.46981 0)
(-2.67119 2.20721 -5.62505e-17)
(-3.37773 2.229 5.59403e-17)
(-4.64915 2.74626 0)
(-6.34058 1.81302 9.73381e-17)
(-4.87826 0.468038 4.8955e-17)
(-3.31063 2.53207 -9.77386e-17)
(-3.60713 2.2646 0)
(-3.67188 3.08493 0)
(-4.94252 3.19858 -9.47128e-17)
(-5.51791 2.7752 -4.45515e-17)
(-5.14991 1.22537 0)
(-4.16225 0.603419 0)
(-2.26494 0.115839 0)
(0.542717 0.391458 0)
(1.87673 1.3731 -8.29202e-17)
(2.99837 1.97854 0)
(2.84372 2.54812 0)
(2.13304 3.34643 0)
(0.820344 3.87529 0)
(-0.25571 4.03422 0)
(-1.48752 4.12751 0)
(-0.615023 2.93842 -8.14888e-17)
(0.638521 3.85487 0)
(-1.82789 5.40732 0)
(-4.79512 2.6013 -1.93452e-16)
(6.00374 1.11348 8.33377e-17)
(7.90418 5.29354 -8.75443e-17)
(8.11279 5.18872 9.1333e-17)
(0.211964 4.04776 0)
(0.451068 4.92124 -4.69425e-17)
(0.536381 4.72617 0)
(0.559799 4.17723 -2.33702e-17)
(0.609476 3.46042 0)
(0.691189 2.63656 0)
(0.909099 1.97381 2.35717e-17)
(1.06456 1.82984 0)
(1.16822 2.03505 0)
(1.27574 2.19445 0)
(1.42702 2.10632 0)
(1.61153 1.81977 0)
(1.74503 1.55591 -8.93421e-17)
(1.78214 1.43447 -4.40236e-17)
(1.78889 1.42657 4.37104e-17)
(1.80903 1.43058 0)
(1.8463 1.41271 0)
(1.87494 1.36592 0)
(1.92723 1.28546 0)
(2.01629 1.13956 0)
(2.17761 0.934719 -4.25175e-17)
(2.4039 0.666605 -4.23205e-17)
(2.67732 0.352818 4.20929e-17)
(2.97004 0.00257598 -4.18475e-17)
(3.31991 -0.308296 0)
(3.65101 -0.593836 0)
(4.031 -0.835358 -4.0959e-17)
(4.43554 -1.059 0)
(4.82291 -1.26855 0)
(5.14485 -1.36673 -3.97236e-17)
(5.51591 -1.27788 -3.93375e-17)
(5.88143 -1.21398 -3.89924e-17)
(6.19148 -1.22274 0)
(6.61793 -1.06937 0)
(6.96638 -0.864238 3.79799e-17)
(7.22698 -0.737498 0)
(7.62489 -0.495117 0)
(7.9131 -0.119678 -3.74199e-17)
(8.10589 0.163107 3.7058e-17)
(8.35149 0.408916 -3.68554e-17)
(8.58106 0.869152 0)
(8.69098 1.145 0)
(8.95387 1.43929 -7.19726e-17)
(9.04192 1.81313 0)
(9.2566 2.04802 -7.01014e-17)
(9.45874 2.50447 -1.04049e-16)
(9.52969 2.77185 1.0246e-16)
(9.72391 3.15309 -6.75327e-17)
(9.49635 3.59931 0)
(9.37156 3.76327 0)
(8.71684 3.96477 -6.7256e-17)
(7.72537 3.80065 -3.3709e-17)
(6.26347 3.13289 0)
(4.05719 1.99533 0)
(2.99249 1.70866 -3.21461e-17)
(2.27099 2.05705 -6.50635e-17)
(1.31142 1.61583 0)
(0.398805 0.565341 6.34593e-17)
(-0.176481 -0.845427 -6.29286e-17)
(-0.712249 -2.28976 6.22709e-17)
(-0.611206 -3.2897 0)
(-1.02163 -3.26566 0)
(-0.403128 -4.04027 0)
(-0.693744 -3.82516 0)
(-1.0476 -2.96015 0)
(-1.49175 -2.07087 5.87758e-17)
(-2.01772 -1.00085 0)
(-2.66922 0.514003 0)
(-3.47043 1.96276 0)
(-4.47739 3.172 1.14117e-16)
(-5.88719 3.99661 5.64338e-17)
(-7.47655 4.55101 5.60546e-17)
(-9.23426 4.80055 -1.1169e-16)
(-10.8024 4.96476 5.56242e-17)
(-12.1325 4.88272 -5.51824e-17)
(-13.2111 4.70857 0)
(-14.1415 4.41188 5.45366e-17)
(-14.8954 4.11645 0)
(-15.5045 3.75914 0)
(-16.0148 3.37179 0)
(-16.4598 2.96128 1.06094e-16)
(-16.8444 2.53063 -5.26893e-17)
(-17.1417 2.02526 -5.24267e-17)
(-17.3041 1.46876 -1.037e-16)
(-17.3686 0.923367 -1.54211e-16)
(-17.3699 0.43768 -5.09332e-17)
(-17.3023 0.0737209 0)
(-17.1836 -0.198036 -1.00851e-16)
(-17.006 -0.374632 0)
(-16.7404 -0.565229 -1.49258e-16)
(-16.4403 -0.851805 0)
(-16.1144 -1.15217 -1.47252e-16)
(-15.7934 -1.48745 0)
(-15.3078 -1.66657 0)
(-14.9143 -1.66654 -4.8267e-17)
(-14.403 -1.39974 0)
(-13.8954 -1.46465 4.74021e-17)
(-13.5969 -1.43102 9.42746e-17)
(-12.7159 -1.90064 4.68629e-17)
(-12.5936 -1.45578 9.2953e-17)
(-11.7801 -1.53723 -9.27082e-17)
(-10.9923 -1.27491 -9.15999e-17)
(-10.8116 -1.23885 1.82496e-16)
(-9.96075 -1.73162 0)
(-9.57397 -1.53916 0)
(-8.41363 -1.48674 8.96115e-17)
(-7.68134 -1.24687 -8.9196e-17)
(-6.66324 -1.17123 0)
(-5.85858 -0.957529 0)
(-4.67962 -1.11337 8.69479e-17)
(-3.7638 -0.734889 0)
(-3.10871 -0.725205 1.83678e-19)
(-1.84712 -0.372212 1.81515e-19)
(-0.313926 0.670984 8.24828e-17)
(0.701175 0.723056 0)
(0.44305 -0.127999 -8.75272e-17)
(1.29447 -0.366854 0)
(3.30966 1.04817 7.97516e-17)
(4.18087 1.89124 0)
(4.36233 1.34635 0)
(5.33661 1.32979 -8.00363e-17)
(6.31397 1.86361 -7.59835e-17)
(6.47295 1.79282 0)
(6.85216 1.65718 -7.79835e-17)
(7.90011 2.40291 1.4744e-16)
(8.12052 2.81388 0)
(7.79275 2.83589 0)
(7.07174 3.17156 0)
(5.96191 3.56778 0)
(5.2139 3.45114 7.78256e-17)
(4.84956 2.74859 -1.53769e-16)
(4.63531 1.49982 0)
(4.9373 0.559463 0)
(6.42052 0.937671 0)
(8.12229 2.47193 0)
(8.12673 3.62169 0)