/*--------------------------------*- C++ -*----------------------------------*\
| =========                 |                                                 |
| \\      /  F ield         | OpenFOAM: The Open Source CFD Toolbox           |
|  \\    /   O peration     | Version:  dev                                   |
|   \\  /    A nd           | Web:      http://www.openfoam.org               |
|    \\/     M anipulation  |                                                 |
\*---------------------------------------------------------------------------*/
FoamFile
{
    version     2.0;
    format      ascii;
    class       volVectorField;
    object      U_0;
    location    "9.149";
}
// * * * * * * * * * * * * * * * * * * * * * * * * * * * * * * * * * * * * * //

dimensions      [0 1 -1 0 0 0 0];

internalField   nonuniform List<vector> 
12225
(
(7.31437 0.528143 0)
(5.749 0.338302 0)
(4.549 0.178064 0)
(4.53879 0.132466 0)
(4.08622 0.152146 0)
(4.67688 0.143534 0)
(3.99814 0.19603 0)
(4.81402 0.135992 0)
(3.70014 0.224844 0)
(4.94098 0.122397 0)
(3.05066 0.276157 0)
(5.19535 0.0790085 0)
(2.15634 0.339425 0)
(5.05464 0.179221 0)
(2.73046 -0.164496 0)
(2.79565 1.91905 0)
(5.48824 -2.27438 0)
(-3.81004 1.30646 0)
(9.96946 1.17988 0)
(10.9471 1.14436 0)
(9.36536 0.806857 0)
(10.1534 0.556241 0)
(8.20392 0.463933 0)
(10.2671 0.396444 0)
(7.67792 0.416235 0)
(10.9882 0.36144 0)
(6.97111 0.395477 0)
(12.2115 0.412872 0)
(5.5999 0.336597 0)
(14.2443 0.310766 0)
(3.79989 0.859309 0)
(16.5027 -1.01863 0)
(3.82531 2.39165 0)
(17.8326 -2.31158 0)
(9.82197 1.49056 0)
(3.41933 4.71009 0)
(9.71436 1.11895 0)
(13.0096 1.44217 0)
(11.1499 1.17787 0)
(13.8183 0.933617 0)
(10.634 0.825074 0)
(14.3718 0.774458 0)
(9.94757 0.653879 0)
(15.3183 0.752409 0)
(9.10335 0.537981 0)
(16.3233 0.782469 0)
(8.78228 0.51672 0)
(16.7792 0.401415 0)
(9.91141 1.12478 0)
(16.5996 -0.725042 0)
(10.7443 1.64218 0)
(16.1688 -2.11605 0)
(12.9854 6.18022 0)
(15.0089 -3.51738 0)
(8.60701 1.10362 0)
(14.3278 1.4812 0)
(11.5404 1.35603 0)
(15.7944 1.14247 0)
(11.9437 1.093 0)
(16.6018 1.0511 0)
(12.1712 0.964667 0)
(17.3186 0.93366 0)
(12.5257 1.02064 0)
(17.5285 0.61807 0)
(13.2802 1.34893 0)
(17.4887 -0.248227 0)
(13.9013 2.27364 0)
(17.6463 -1.74035 0)
(12.9587 3.55874 0)
(16.7476 -3.95382 0)
(15.5157 4.14841 0)
(15.8051 6.20622 0)
(9.03754 1.23088 0)
(13.1876 1.42758 0)
(12.374 1.64805 0)
(14.7865 1.30384 0)
(13.6122 1.46397 0)
(15.3653 1.05438 0)
(14.6137 1.37832 0)
(15.7743 0.839 0)
(15.2733 1.52829 0)
(15.6224 0.454882 0)
(15.8725 1.86429 0)
(15.8918 -0.389962 0)
(16.5532 2.82527 0)
(15.9233 -1.39419 0)
(15.9158 4.63972 0)
(14.9213 -5.24561 0)
(16.4185 8.80543 0)
(17.1673 -1.41842 0)
(9.96872 1.54901 0)
(11.2796 1.26879 0)
(12.5793 1.83691 0)
(13.4106 1.25127 0)
(14.407 1.87387 0)
(14.4432 1.08062 0)
(15.2164 1.81368 0)
(14.7094 0.868918 0)
(15.3873 2.14558 0)
(15.0015 0.372558 0)
(16.2336 2.2022 0)
(16.033 -0.396867 0)
(16.5633 3.00322 0)
(16.2445 -0.557886 0)
(16.84 3.83226 0)
(16.2977 -2.49933 0)
(15.2569 5.19407 0)
(19.9349 1.11112 0)
(10.6512 1.54268 0)
(11.3647 1.42893 0)
(12.6627 2.1566 0)
(12.6796 1.13968 0)
(14.5149 2.25232 0)
(14.2448 1.07665 0)
(15.433 2.53138 0)
(14.2433 0.885929 0)
(15.7471 2.66941 0)
(15.1042 0.197116 0)
(16.8604 2.48943 0)
(15.8859 -0.155287 0)
(16.5385 3.25548 0)
(16.2124 0.0362545 0)
(17.0808 3.42244 0)
(16.4212 -0.925128 0)
(15.6188 3.0637 0)
(17.4636 1.55699 0)
(10.4718 1.74706 0)
(11.4305 1.49619 0)
(12.7733 2.46897 0)
(12.7671 1.1141 0)
(14.2662 2.31715 0)
(14.0345 1.19089 0)
(15.082 2.83533 0)
(14.6957 1.21086 0)
(16.01 2.60598 0)
(15.7422 0.449238 0)
(16.5649 2.39832 0)
(16.1421 0.633385 0)
(16.3685 2.91249 0)
(16.6232 0.824367 0)
(16.7037 2.6353 0)
(16.5772 0.490971 0)
(15.8152 2.64471 0)
(16.4916 2.71947 0)
(10.5478 1.73299 0)
(11.6007 1.67708 0)
(12.9958 2.69252 0)
(13.09 1.33635 0)
(14.1623 2.61952 0)
(13.9028 1.42048 0)
(14.9927 2.97334 0)
(15.0054 1.29735 0)
(15.9689 2.7106 0)
(15.8052 0.790783 0)
(16.1691 2.59889 0)
(16.097 0.981922 0)
(16.3253 2.80837 0)
(16.7814 1.30982 0)
(16.4332 2.5037 0)
(16.4815 1.6228 0)
(15.9301 2.46387 0)
(16.3394 2.65189 0)
(10.6467 1.87226 0)
(11.568 1.78708 0)
(12.8447 2.79688 0)
(13.0395 1.57711 0)
(13.8873 2.70778 0)
(13.9592 1.72345 0)
(14.8583 3.00249 0)
(15.0579 1.67356 0)
(15.6303 2.6491 0)
(15.6887 1.25369 0)
(15.9449 2.52614 0)
(16.1513 1.46946 0)
(16.2501 2.56985 0)
(16.7378 1.91933 0)
(16.549 2.60341 0)
(16.6348 2.3561 0)
(16.5353 2.5529 0)
(16.6563 3.10377 0)
(10.393 1.99206 0)
(11.5829 2.17474 0)
(12.5451 2.98815 0)
(13.0002 2.01365 0)
(13.7679 2.88149 0)
(14.144 2.06537 0)
(14.8953 2.9841 0)
(15.207 2.04521 0)
(15.6539 2.77916 0)
(15.7095 1.8 0)
(15.896 2.59854 0)
(16.0844 1.96359 0)
(16.2028 2.62807 0)
(16.4173 2.3703 0)
(16.4337 2.65827 0)
(16.527 2.75224 0)
(16.6296 2.80467 0)
(16.7149 3.12121 0)
(10.3909 1.93128 0)
(11.7323 2.46619 0)
(12.5683 2.98715 0)
(13.1013 2.31225 0)
(13.771 2.87979 0)
(14.2017 2.42911 0)
(14.7761 3.01356 0)
(15.1337 2.47272 0)
(15.5173 2.81804 0)
(15.7283 2.30661 0)
(15.9178 2.64637 0)
(16.0474 2.4572 0)
(16.194 2.79289 0)
(16.3051 2.76953 0)
(16.4114 2.93685 0)
(16.5359 3.16199 0)
(16.63 3.23359 0)
(16.7302 3.36485 0)
(10.2248 2.03683 0)
(11.5022 2.86062 0)
(12.2082 3.1504 0)
(12.7641 2.84846 0)
(13.3574 3.14058 0)
(13.8493 2.88561 0)
(14.4343 3.07578 0)
(14.9054 2.84262 0)
(15.3369 2.95705 0)
(15.6013 2.78899 0)
(15.7903 2.92434 0)
(15.9799 2.92318 0)
(16.1442 3.06344 0)
(16.3411 3.14857 0)
(16.5366 3.24788 0)
(16.6652 3.37816 0)
(16.8626 3.51804 0)
(17.0421 3.62118 0)
(10.3227 1.98501 0)
(11.5706 3.2885 0)
(12.269 3.34326 0)
(12.895 3.16655 0)
(13.4949 3.22349 0)
(14.0667 3.13756 0)
(14.5827 3.20873 0)
(15.0469 3.13763 0)
(15.4131 3.19699 0)
(15.713 3.14329 0)
(15.9586 3.21461 0)
(16.1789 3.25487 0)
(16.4035 3.3416 0)
(16.6093 3.45977 0)
(16.8239 3.56687 0)
(16.9995 3.65578 0)
(17.1605 3.76147 0)
(17.341 3.90257 0)
(10.123 2.07559 0)
(11.3036 3.59813 0)
(12.0692 3.52 0)
(12.7626 3.41655 0)
(13.3466 3.43282 0)
(13.8928 3.40681 0)
(14.4129 3.44333 0)
(14.9085 3.42204 0)
(15.3395 3.44162 0)
(15.7294 3.44711 0)
(16.0495 3.48021 0)
(16.3257 3.53662 0)
(16.5353 3.64118 0)
(16.7365 3.72725 0)
(16.9161 3.82674 0)
(17.0985 3.946 0)
(17.2409 4.07226 0)
(17.459 4.17608 0)
(10.2188 2.39058 0)
(11.4274 3.86654 0)
(12.1594 3.71102 0)
(12.7884 3.66974 0)
(13.3125 3.6842 0)
(13.8394 3.66395 0)
(14.3126 3.63542 0)
(14.7871 3.58953 0)
(15.1815 3.60359 0)
(15.5611 3.63923 0)
(15.8618 3.72039 0)
(16.1517 3.82888 0)
(16.3753 3.95422 0)
(16.5937 4.05977 0)
(16.8075 4.16842 0)
(17.0016 4.23532 0)
(17.1795 4.34271 0)
(17.4387 4.43133 0)
(10.3661 2.26107 0)
(11.4608 4.04432 0)
(12.157 4.02381 0)
(12.776 4.02077 0)
(13.3279 4.00349 0)
(13.9002 3.95749 0)
(14.4014 3.91088 0)
(14.8841 3.88133 0)
(15.2776 3.88201 0)
(15.6426 3.90764 0)
(15.953 3.94606 0)
(16.2696 4.03021 0)
(16.5422 4.113 0)
(16.8183 4.2101 0)
(17.0539 4.28816 0)
(17.3101 4.34586 0)
(17.5334 4.40739 0)
(17.7997 4.4614 0)
(10.1611 2.14601 0)
(11.2121 4.04113 0)
(11.9867 4.06784 0)
(12.7365 4.09126 0)
(13.3823 4.07257 0)
(14.0048 4.00737 0)
(14.5365 3.93806 0)
(15.0328 3.91419 0)
(15.4509 3.93111 0)
(15.8128 3.97399 0)
(16.1211 3.99745 0)
(16.4487 4.0465 0)
(16.7223 4.12991 0)
(17.0073 4.19713 0)
(17.2349 4.24065 0)
(17.4569 4.30071 0)
(17.6596 4.35264 0)
(17.9063 4.41656 0)
(10.1016 2.18297 0)
(11.1296 3.88918 0)
(11.8787 3.86713 0)
(12.6556 3.89144 0)
(13.3582 3.89506 0)
(14.0162 3.86284 0)
(14.568 3.82054 0)
(15.0621 3.81771 0)
(15.4775 3.87698 0)
(15.8635 3.92985 0)
(16.2135 3.93106 0)
(16.5795 3.9421 0)
(16.9136 4.01018 0)
(17.2392 4.05244 0)
(17.5167 4.07316 0)
(17.7621 4.1208 0)
(17.9494 4.13909 0)
(18.1928 4.1809 0)
(10.458 2.02959 0)
(11.3148 3.71458 0)
(11.9916 3.62807 0)
(12.7054 3.60322 0)
(13.3682 3.60179 0)
(13.9925 3.61167 0)
(14.53 3.60423 0)
(15.0186 3.59787 0)
(15.4599 3.62556 0)
(15.9182 3.6391 0)
(16.3289 3.58876 0)
(16.7287 3.54487 0)
(17.1085 3.57909 0)
(17.4559 3.63167 0)
(17.7635 3.67681 0)
(18.0292 3.73751 0)
(18.2182 3.79338 0)
(18.4399 3.85181 0)
(10.1199 2.07023 0)
(11.1732 3.44408 0)
(11.9752 3.32246 0)
(12.7439 3.24226 0)
(13.4317 3.22006 0)
(14.0974 3.22402 0)
(14.6997 3.2275 0)
(15.2649 3.20786 0)
(15.776 3.17233 0)
(16.2776 3.16542 0)
(16.7197 3.1158 0)
(17.0859 3.0542 0)
(17.376 3.08021 0)
(17.6706 3.12619 0)
(17.9004 3.20476 0)
(18.1206 3.30395 0)
(18.3205 3.35983 0)
(18.5332 3.41662 0)
(10.1614 1.6916 0)
(11.1143 2.97111 0)
(12.0561 2.8753 0)
(12.895 2.82133 0)
(13.6108 2.80425 0)
(14.2959 2.7814 0)
(14.9507 2.74809 0)
(15.5548 2.70443 0)
(16.0661 2.67036 0)
(16.5182 2.65778 0)
(16.9092 2.64284 0)
(17.2301 2.6735 0)
(17.4937 2.72284 0)
(17.767 2.77221 0)
(17.9936 2.84579 0)
(18.2264 2.89078 0)
(18.4669 2.93731 0)
(18.701 2.96356 0)
(10.0658 1.33763 0)
(11.0845 2.39862 0)
(12.0696 2.30698 0)
(13.0085 2.29139 0)
(13.8067 2.27578 0)
(14.5247 2.2451 0)
(15.1606 2.21335 0)
(15.7183 2.2327 0)
(16.2283 2.24563 0)
(16.6454 2.2481 0)
(16.9631 2.23461 0)
(17.2557 2.25209 0)
(17.5246 2.2557 0)
(17.7957 2.26315 0)
(18.0462 2.27325 0)
(18.2808 2.3148 0)
(18.5255 2.37049 0)
(18.7637 2.41256 0)
(10.3821 1.13646 0)
(11.2663 1.97241 0)
(12.1341 1.81993 0)
(12.9758 1.8047 0)
(13.7371 1.81742 0)
(14.435 1.82113 0)
(15.0897 1.78254 0)
(15.6705 1.76351 0)
(16.2304 1.75382 0)
(16.7197 1.78873 0)
(17.0988 1.83745 0)
(17.4756 1.84933 0)
(17.806 1.87419 0)
(18.1022 1.86983 0)
(18.3947 1.85694 0)
(18.6423 1.90856 0)
(18.8673 1.93362 0)
(19.09 1.95529 0)
(10.2204 0.897095 0)
(11.1886 1.55992 0)
(12.1751 1.40653 0)
(13.1016 1.35641 0)
(13.9579 1.31337 0)
(14.7566 1.29581 0)
(15.4884 1.26786 0)
(16.0944 1.27309 0)
(16.574 1.30524 0)
(16.9767 1.33018 0)
(17.3136 1.35582 0)
(17.6572 1.35627 0)
(17.9568 1.34238 0)
(18.242 1.33504 0)
(18.5696 1.35557 0)
(18.8371 1.40011 0)
(19.0466 1.44852 0)
(19.2579 1.48539 0)
(9.78381 0.643025 0)
(11.0421 0.98992 0)
(12.3422 0.870195 0)
(13.4342 0.844087 0)
(14.282 0.823915 0)
(14.9896 0.805497 0)
(15.6189 0.824107 0)
(16.1957 0.873375 0)
(16.7142 0.947202 0)
(17.1785 0.983274 0)
(17.5557 1.0115 0)
(17.8891 1.01076 0)
(18.1612 0.981681 0)
(18.4037 0.996596 0)
(18.6317 1.00609 0)
(18.8247 1.01703 0)
(18.9903 1.05992 0)
(19.1632 1.08177 0)
(10.1364 0.401984 0)
(11.3782 0.436804 0)
(12.629 0.32676 0)
(13.651 0.368505 0)
(14.4302 0.411068 0)
(15.0593 0.430735 0)
(15.5509 0.432549 0)
(15.9864 0.451056 0)
(16.3677 0.517062 0)
(16.7308 0.561772 0)
(17.0225 0.59174 0)
(17.2816 0.627554 0)
(17.4905 0.649427 0)
(17.657 0.665137 0)
(17.7792 0.669331 0)
(17.8767 0.683502 0)
(17.947 0.704183 0)
(18.0104 0.714727 0)
(10.0361 0.0573302 0)
(11.6229 -0.0306589 0)
(12.8106 -0.0133188 0)
(13.5125 0.0526238 0)
(13.9623 0.113525 0)
(14.2811 0.183257 0)
(14.4847 0.220488 0)
(14.6605 0.260367 0)
(14.7754 0.305653 0)
(14.9267 0.351156 0)
(15.0367 0.37418 0)
(15.1472 0.426673 0)
(15.2331 0.457343 0)
(15.2709 0.466504 0)
(15.2812 0.477616 0)
(15.283 0.505427 0)
(15.2584 0.51798 0)
(15.203 0.528496 0)
(10.1149 -0.581742 0)
(11.0178 -0.632763 0)
(11.3985 -0.412185 0)
(11.3611 -0.21891 0)
(11.2682 -0.0332453 0)
(11.1819 0.092092 0)
(11.1644 0.164908 0)
(11.1759 0.198215 0)
(11.2043 0.225129 0)
(11.298 0.267706 0)
(11.3666 0.285812 0)
(11.4649 0.306737 0)
(11.5443 0.3069 0)
(11.6066 0.317852 0)
(11.6638 0.332129 0)
(11.7063 0.34562 0)
(11.7331 0.343045 0)
(11.7404 0.344235 0)
(8.55459 -0.425451 0)
(7.02471 -0.286098 0)
(6.09174 -0.0285729 0)
(5.67743 0.0828664 0)
(5.70079 0.132257 0)
(5.9077 0.123638 0)
(6.21498 0.11911 0)
(6.51394 0.104418 0)
(6.79857 0.104814 0)
(7.07114 0.105584 0)
(7.32282 0.107242 0)
(7.56834 0.111813 0)
(7.79515 0.117646 0)
(8.00808 0.122428 0)
(8.20583 0.128499 0)
(8.37835 0.136829 0)
(8.55984 0.130661 0)
(8.6615 0.159965 0)
(-0.1442 0.556004 0)
(-0.518848 0.553795 0)
(-0.808656 0.505186 0)
(-1.01664 0.390765 0)
(-1.10859 0.305087 0)
(-1.08176 0.174206 0)
(-0.94999 0.0968162 1.17593e-17)
(-0.783857 0.0630123 -1.16695e-17)
(-0.597644 0.0501956 0)
(-0.423587 0.0492997 -1.15111e-17)
(-0.246747 0.032826 0)
(-0.0727047 0.0141942 0)
(0.132135 -0.00814037 0)
(0.368226 -0.0348244 1.12132e-17)
(0.612022 -0.0400913 0)
(0.848715 -0.0483735 0)
(1.08481 -0.0644489 -1.09854e-17)
(1.33531 -0.0842507 0)
(1.61123 -0.107869 0)
(1.91362 -0.115806 0)
(2.21587 -0.122573 1.06529e-17)
(2.52675 -0.110794 0)
(2.83094 -0.131424 1.04885e-17)
(3.15435 -0.15948 0)
(3.50775 -0.175233 0)
(3.85932 -0.181919 1.02443e-17)
(4.24413 -0.202038 0)
(4.63513 -0.208064 -1.00972e-17)
(5.01346 -0.19354 0)
(5.38433 -0.186064 9.92843e-18)
(5.75568 -0.188471 0)
(6.13396 -0.13835 0)
(6.44102 -0.0679274 0)
(6.66445 -0.002969 0)
(6.8367 0.089205 0)
(6.92697 0.162007 -9.47945e-18)
(6.91397 0.254427 0)
(6.80295 0.330179 1.86718e-17)
(6.60105 0.429093 0)
(6.25744 0.5774 -1.83801e-17)
(5.80431 0.661856 0)
(5.17672 0.863896 0)
(4.32607 1.01901 1.79932e-17)
(3.42943 1.21528 0)
(2.09762 1.55894 1.77998e-17)
(0.468655 1.03973 -1.77118e-17)
(-0.60845 -0.170541 0)
(-1.31202 -0.786508 -1.73882e-17)
(-1.99558 -0.505355 -1.72414e-17)
(-2.23642 0.0282564 0)
(-2.2132 0.209392 0)
(-2.3341 0.217542 0)
(-2.5704 0.259777 0)
(-2.85205 0.378695 0)
(-3.30138 0.324719 1.66365e-17)
(-3.86841 0.169187 0)
(-4.33763 0.10286 -1.62164e-17)
(-4.60525 0.113874 0)
(-4.6872 0.0662265 0)
(-4.67195 -0.019692 1.57398e-17)
(-4.36062 -0.144559 0)
(-3.66523 -0.198507 -1.54277e-17)
(-3.09827 -0.106084 0)
(-2.58485 -0.0272916 0)
(-2.19148 -0.0171652 0)
(-1.59006 0.0611198 1.48537e-17)
(-1.31106 0.0715984 0)
(-1.12319 0.325081 0)
(-1.35844 0.782672 1.44678e-17)
(-2.05682 0.959596 0)
(-2.93225 1.2465 1.43239e-17)
(-4.45153 1.75433 0)
(-5.75708 1.29387 0)
(-5.79935 -0.162644 0)
(-5.38356 -1.15628 -1.38899e-17)
(-5.05289 -1.21847 0)
(-5.15816 -0.450252 0)
(-5.95581 0.540574 -1.38551e-17)
(-7.28391 1.07832 -1.3607e-17)
(-8.68719 1.16838 0)
(-10.0005 1.14202 -1.32541e-17)
(-11.2017 1.09054 0)
(-12.2767 1.03275 -2.59958e-17)
(-13.2273 0.988156 0)
(-14.0546 0.930734 -2.55035e-17)
(-14.7063 0.874888 0)
(-15.1718 0.796209 2.50321e-17)
(-15.461 0.710306 0)
(-15.6433 0.619606 0)
(-15.7375 0.576518 0)
(-15.7232 0.54428 -2.42512e-17)
(-15.6249 0.508357 0)
(-15.3905 0.443628 2.38816e-17)
(-15.0206 0.3619 0)
(-14.5681 0.307879 -2.34883e-17)
(-14.0934 0.290349 -2.32886e-17)
(-13.6673 0.323718 -2.3102e-17)
(-13.2604 0.343144 0)
(-12.7097 0.250026 0)
(-12.1128 0.285786 0)
(-11.6383 0.289659 0)
(-11.1164 0.272022 0)
(-10.6078 0.26497 0)
(-9.88834 0.219565 0)
(-9.21084 0.280181 0)
(-8.5119 0.249362 2.16662e-17)
(-7.78512 0.277091 2.1498e-17)
(-7.08799 0.264457 0)
(-6.36775 0.273055 0)
(-5.46377 0.29346 0)
(-4.63488 0.345161 2.09299e-17)
(-3.93933 0.38876 0)
(-3.27841 0.427205 0)
(-2.63992 0.4384 0)
(-1.8317 0.384775 0)
(-0.882443 0.41263 -2.02787e-17)
(0.00155808 0.519744 0)
(0.575793 0.566464 0)
(1.10234 0.574951 1.99204e-17)
(1.74636 0.601799 -1.97893e-17)
(2.2565 0.627408 0)
(2.65844 0.629125 -1.95306e-17)
(3.05468 0.600259 0)
(3.40368 0.552621 1.91383e-17)
(3.55346 0.493933 0)
(3.71128 0.511699 0)
(3.94345 0.601315 0)
(4.23554 0.771912 0)
(4.24884 0.816142 0)
(3.76903 0.741094 -3.69211e-17)
(3.39196 0.683709 -3.66326e-17)
(3.2697 0.699189 0)
(3.12029 0.699245 0)
(2.80313 0.624337 0)
(2.26647 0.640898 3.56908e-17)
(1.66511 0.592726 0)
(1.19975 0.528376 0)
(1.03385 0.440775 0)
(0.663778 0.523815 3.50462e-17)
(0.457673 0.576443 -3.44637e-17)
(-0.321958 0.73021 0)
(-1.53942 0.752593 0)
(-2.48832 0.742977 -3.37311e-17)
(-3.62511 0.73903 -3.35141e-17)
(-4.58712 0.695034 0)
(-5.65021 0.811912 0)
(-6.97901 0.866491 3.22941e-17)
(-7.89628 0.745956 -3.16812e-17)
(-8.03945 0.586169 0)
(-7.20433 0.570134 0)
(-6.97498 0.764133 -3.10593e-17)
(-7.65097 0.772445 0)
(-8.66076 0.795376 0)
(-9.05284 0.683673 -3.02829e-17)
(-9.25366 0.678947 0)
(-9.74494 0.731203 -2.86041e-17)
(-7.83807 0.936723 0)
(-7.78223 1.22971 0)
(-8.18105 0.989828 0)
(-8.19561 1.01603 2.82422e-17)
(-8.33276 0.94511 0)
(-8.34824 1.13512 0)
(-8.07112 1.0234 0)
(-7.04572 0.93003 0)
(-5.63965 0.877376 0)
(-4.00874 0.953021 0)
(-3.36138 1.20476 2.57511e-17)
(-2.98554 1.26634 2.57557e-17)
(-2.73453 1.20073 0)
(-2.56448 1.28107 0)
(-2.64042 1.31742 0)
(-2.53118 1.32309 -2.57983e-17)
(-2.18874 1.32623 0)
(-2.40003 1.52246 5.06689e-17)
(-0.562392 1.72008 -5.03388e-17)
(-0.645892 1.59918 -5.06979e-17)
(0.589423 1.35195 4.87698e-17)
(5.75886 1.42247 -4.94936e-17)
(7.42299 1.59707 5.14405e-17)
(8.55376 1.29447 0)
(-0.0210394 1.69122 0)
(-0.409023 1.68317 0)
(-0.668541 1.41366 -2.40552e-17)
(-0.886598 1.09057 0)
(-0.958978 0.703149 2.40163e-17)
(-0.905998 0.354768 2.39174e-17)
(-0.740826 0.112294 1.18657e-17)
(-0.514983 0.0235552 1.17999e-17)
(-0.321195 0.0389842 0)
(-0.177108 0.0551508 1.16257e-17)
(-0.037427 0.0455063 0)
(0.123263 -0.00474038 0)
(0.325675 -0.0824096 -2.27554e-17)
(0.552755 -0.172987 -1.12983e-17)
(0.787398 -0.201018 2.23957e-17)
(1.01004 -0.204749 2.22174e-17)
(1.23342 -0.231181 1.10272e-17)
(1.44615 -0.286077 0)
(1.65553 -0.370939 0)
(1.87818 -0.450502 0)
(2.11169 -0.501191 1.06139e-17)
(2.37984 -0.508878 0)
(2.64441 -0.550261 -3.13146e-17)
(2.92809 -0.635376 0)
(3.24564 -0.717817 0)
(3.59417 -0.757581 -1.01818e-17)
(3.98093 -0.808956 0)
(4.37838 -0.839377 1.00383e-17)
(4.77334 -0.84408 1.99221e-17)
(5.20835 -0.841527 -9.85942e-18)
(5.62273 -0.862225 0)
(6.04859 -0.813363 0)
(6.41532 -0.641618 0)
(6.72767 -0.495544 1.90797e-17)
(7.06265 -0.372078 1.89258e-17)
(7.26596 -0.145732 9.40859e-18)
(7.4316 0.0807345 0)
(7.60355 0.271708 -1.85253e-17)
(7.60357 0.51468 0)
(7.62603 0.776896 1.82435e-17)
(7.50657 1.02303 0)
(7.29078 1.3843 0)
(7.0299 1.68949 -1.78462e-17)
(6.62579 2.03765 0)
(6.32364 2.48181 -5.28623e-17)
(5.71191 2.79273 1.75836e-17)
(5.01934 2.82026 0)
(3.8982 2.66904 1.74235e-17)
(1.83516 2.31671 1.74674e-17)
(0.312659 0.858384 0)
(-0.898779 -0.262267 0)
(-1.77226 0.427926 0)
(-1.93676 0.79174 0)
(-2.24579 0.741496 0)
(-2.77782 1.11517 -1.64503e-17)
(-3.30413 1.38003 -3.26108e-17)
(-3.83715 1.2348 1.60763e-17)
(-4.26814 0.818964 0)
(-4.30285 0.322606 -3.1474e-17)
(-4.24566 0.0178931 1.56501e-17)
(-3.74641 -0.729834 0)
(-2.92025 -1.1198 1.52684e-17)
(-2.33454 -0.812163 0)
(-1.54112 -0.548902 0)
(-0.970939 -0.502703 2.99984e-17)
(-0.0408666 -0.392081 -1.47709e-17)
(0.248489 -0.0446857 2.93189e-17)
(0.336734 0.606073 -2.90164e-17)
(0.143294 1.4661 -1.43009e-17)
(-0.384823 1.92838 0)
(-1.23435 2.24002 -1.42406e-17)
(-1.90275 2.30578 0)
(-2.14844 1.38932 0)
(-2.99114 0.768562 0)
(-5.56592 1.62305 -1.38099e-17)
(-8.55964 2.49752 0)
(-10.7926 2.94921 -2.69882e-17)
(-12.3948 3.16742 4.00958e-17)
(-13.7457 3.18638 1.32205e-17)
(-14.9388 3.0755 0)
(-15.9764 2.91043 1.29958e-17)
(-16.8631 2.72125 0)
(-17.6152 2.5223 2.55532e-17)
(-18.2296 2.31825 0)
(-18.6562 2.04979 2.52115e-17)
(-18.8588 1.76428 -5.01847e-17)
(-18.9115 1.49707 -2.48912e-17)
(-18.8608 1.29206 0)
(-18.749 1.14306 0)
(-18.5809 1.01833 0)
(-18.3079 0.894348 2.42534e-17)
(-17.937 0.71761 0)
(-17.4068 0.527231 -2.3924e-17)
(-16.7637 0.371634 0)
(-16.072 0.354693 7.05946e-17)
(-15.4042 0.394758 2.32909e-17)
(-14.8099 0.426937 2.31133e-17)
(-14.2627 0.383807 0)
(-13.4741 0.183428 0)
(-12.6816 0.376352 0)
(-12.1207 0.371745 0)
(-11.3391 0.32603 0)
(-10.8049 0.274503 4.45054e-17)
(-9.89171 0.165152 4.41767e-17)
(-9.02172 0.3195 0)
(-8.15604 0.296388 -2.17273e-17)
(-7.31788 0.350444 -2.14357e-17)
(-6.43304 0.368669 0)
(-5.67365 0.36369 -4.26288e-17)
(-4.67312 0.304706 0)
(-3.66865 0.51505 2.08671e-17)
(-2.62153 0.692326 0)
(-1.7197 0.859819 0)
(-1.1587 0.930039 -4.06292e-17)
(-0.467216 0.711882 0)
(0.646704 0.722631 2.03145e-17)
(2.00158 1.04233 0)
(2.67357 1.32195 0)
(3.03524 1.30665 1.95034e-17)
(3.83927 1.24734 1.92854e-17)
(4.71822 1.3914 0)
(5.2691 1.4956 -1.90073e-17)
(5.69121 1.48087 0)
(6.16683 1.57009 1.84612e-17)
(6.38358 1.70691 3.60699e-17)
(6.32853 1.69439 0)
(6.18178 1.33795 0)
(5.95384 1.17908 0)
(5.67154 1.46566 0)
(5.01075 1.6828 3.65136e-17)
(4.51162 1.59308 1.09635e-16)
(4.66474 1.2044 0)
(5.27947 1.16667 0)
(5.98515 1.5223 0)
(5.41613 1.68518 -3.34453e-17)
(4.41885 1.75009 0)
(3.44619 1.59541 0)
(2.55283 1.37578 6.74249e-17)
(1.5977 1.46664 3.37916e-17)
(0.922637 1.46134 3.28605e-17)
(0.295695 2.03275 0)
(-1.02871 1.80534 0)
(-1.47746 1.77503 3.19237e-17)
(-2.43324 1.88312 -3.19417e-17)
(-3.68469 1.89313 0)
(-5.30805 2.06828 0)
(-7.09545 1.91572 -3.04932e-17)
(-8.04137 1.25554 9.04249e-17)
(-8.63203 0.413594 0)
(-6.66728 0.0902721 0)
(-5.07629 0.898669 2.91973e-17)
(-4.8555 1.48871 0)
(-5.69829 1.8488 5.77494e-17)
(-6.39207 1.63975 -2.86843e-17)
(-7.22041 1.86548 0)
(-8.53358 1.20078 2.54543e-17)
(-5.87419 0.522645 4.84448e-17)
(-5.07547 1.77704 0)
(-5.42216 1.78514 0)
(-5.77075 2.35592 -2.56815e-17)
(-6.61252 2.3172 0)
(-6.9306 2.17208 4.77364e-17)
(-6.20438 1.09036 0)
(-4.89156 0.639508 0)
(-2.92719 0.32755 0)
(-0.628716 0.737314 0)
(0.295798 1.60646 -2.19154e-17)
(1.02694 1.9773 -2.20785e-17)
(0.945427 2.29163 0)
(0.425846 2.76677 0)
(-0.532254 3.0234 0)
(-1.28727 3.23465 2.33383e-17)
(-2.0333 3.40048 0)
(-2.40938 2.8044 -4.37186e-17)
(0.443474 2.92441 4.44485e-17)
(-0.384793 3.36821 4.40999e-17)
(-0.930705 2.3811 4.48329e-17)
(7.86731 2.5278 4.24354e-17)
(9.3799 4.39412 4.67764e-17)
(9.73405 4.06336 0)
(0.141152 2.3107 0)
(1.84676e-05 2.73913 0)
(-0.187132 2.35068 2.37342e-17)
(-0.364985 1.83927 2.38803e-17)
(-0.453567 1.23511 -2.40091e-17)
(-0.451495 0.582555 -2.39704e-17)
(-0.293926 0.138597 -4.10726e-20)
(-0.119568 0.045551 0)
(0.0120719 0.178079 0)
(0.0874503 0.261604 0)
(0.141854 0.229731 0)
(0.23983 0.098205 0)
(0.401577 -0.0743605 6.78841e-17)
(0.565212 -0.210165 0)
(0.699479 -0.253833 -2.21437e-17)
(0.815688 -0.248287 -2.1938e-17)
(0.937222 -0.258968 0)
(1.03129 -0.29261 0)
(1.10301 -0.35133 0)
(1.18047 -0.434358 0)
(1.25147 -0.500555 -2.10137e-17)
(1.37089 -0.565233 0)
(1.54467 -0.650386 2.07484e-17)
(1.74446 -0.807245 0)
(2.01044 -0.970848 0)
(2.30224 -1.10149 0)
(2.63103 -1.18327 4.03985e-17)
(3.0116 -1.25383 0)
(3.39435 -1.34819 -1.99269e-17)
(3.78699 -1.43018 3.95141e-17)
(4.18662 -1.37181 0)
(4.54832 -1.19789 0)
(4.84474 -1.05445 0)
(5.21346 -0.87579 -1.91083e-17)
(5.54797 -0.63127 -1.90247e-17)
(5.7672 -0.357292 0)
(6.05119 -0.131902 0)
(6.32057 0.191394 3.71291e-17)
(6.37884 0.472011 3.67433e-17)
(6.5602 0.778062 -3.64013e-17)
(6.63234 1.24719 0)
(6.57281 1.5533 0)
(6.74252 2.02738 0)
(6.58553 2.48267 0)
(6.68208 2.77898 3.46297e-17)
(6.64487 3.32198 3.45208e-17)
(6.34449 3.37961 -3.43349e-17)
(6.23542 3.64223 0)
(5.36144 3.987 0)
(4.65872 3.56537 0)
(3.28894 3.51073 0)
(0.89899 2.31885 3.3851e-17)
(-0.444564 1.07394 0)
(-1.27557 1.64666 0)
(-2.13889 2.08895 3.2644e-17)
(-2.86594 1.77207 3.23241e-17)
(-3.60186 1.46782 0)
(-4.13419 1.01246 -6.35305e-17)
(-4.28525 0.354474 3.14798e-17)
(-4.34512 -0.286988 -3.119e-17)
(-3.48007 -1.51625 0)
(-3.54865 -1.59969 0)
(-2.79539 -1.39389 0)
(-2.08235 -1.66551 0)
(-1.47629 -1.55037 -2.96759e-17)
(-0.913137 -1.11765 -5.86888e-17)
(-1.06004 -0.300974 -2.90826e-17)
(-1.13626 1.03896 2.90391e-17)
(-1.51985 2.35358 0)
(-2.38362 3.17279 -5.76069e-17)
(-3.48559 3.55881 -5.68261e-17)
(-4.83589 3.8005 -5.61528e-17)
(-7.02766 4.25564 5.57985e-17)
(-9.55987 4.99396 0)
(-11.7081 5.2723 8.23617e-17)
(-13.3872 5.22629 0)
(-14.7788 5.19546 -2.72335e-17)
(-15.9596 5.16981 -2.69704e-17)
(-16.9253 5.02765 0)
(-17.6857 4.78629 0)
(-18.315 4.48159 -5.30936e-17)
(-18.8551 4.18216 0)
(-19.2431 3.81818 -5.23264e-17)
(-19.4459 3.40922 0)
(-19.5073 2.98028 5.16573e-17)
(-19.422 2.56722 1.02548e-16)
(-19.26 2.23891 0)
(-19.0278 1.98489 0)
(-18.7691 1.79716 0)
(-18.4724 1.61698 5.00125e-17)
(-18.0795 1.38735 0)
(-17.6358 1.11392 4.93555e-17)
(-17.0533 0.808346 0)
(-16.3557 0.621343 0)
(-15.7193 0.602357 -9.67452e-17)
(-15.0875 0.749152 0)
(-14.4983 0.736542 -4.77852e-17)
(-13.9702 0.671534 0)
(-13.1145 0.302444 -4.71882e-17)
(-12.4327 0.680731 0)
(-11.7217 0.685985 0)
(-10.8626 0.699377 0)
(-10.5561 0.632867 -1.38228e-16)
(-9.58471 0.314133 -4.58115e-17)
(-8.83974 0.562641 0)
(-7.76901 0.575235 0)
(-6.98573 0.674611 0)
(-5.9644 0.772694 0)
(-5.16956 0.864138 4.39854e-17)
(-4.22137 0.651578 -8.84866e-17)
(-3.36859 0.912596 -4.37953e-17)
(-2.32059 1.0803 8.63179e-17)
(-0.955864 1.55163 8.33845e-17)
(-0.0317729 1.93693 4.11232e-17)
(0.321281 1.52685 0)
(0.746585 1.11971 8.75865e-17)
(2.39689 1.61328 0)
(3.83071 2.43364 -7.91128e-17)
(4.11968 2.44773 -3.97026e-17)
(4.53525 2.10331 0)
(5.61633 2.22715 7.69344e-17)
(6.25867 2.49209 3.76244e-17)
(6.50869 2.57282 0)
(7.20093 2.62641 3.7958e-17)
(7.76354 2.64871 -1.06865e-16)
(7.74738 2.74067 0)
(7.58487 2.95935 0)
(6.86202 3.32405 0)
(5.82208 3.674 0)
(4.80374 3.62745 -7.75855e-17)
(4.0002 3.01412 -7.77047e-17)
(4.00569 2.14722 0)
(4.67539 1.63571 0)
(6.32142 2.08557 0)
(6.82784 2.96002 0)
(5.90532 3.25662 0)
(4.81326 3.24525 0)
(3.30067 2.9181 -6.55601e-17)
(1.56866 3.15793 6.74091e-20)
(-0.0316942 2.61354 0)
(-1.4146 3.02993 0)
(-2.00886 2.84412 -6.31103e-17)
(-2.41924 2.79393 0)
(-2.56659 3.0462 6.16719e-17)
(-3.26643 3.37631 6.18633e-17)
(-4.81734 4.13317 0)
(-6.63779 3.74197 0)
(-7.9572 2.83877 -6.17968e-17)
(-9.51395 0.962394 -1.23398e-16)
(-7.64732 -0.165145 0)
(-5.48037 1.13102 0)
(-4.57168 2.27168 0)
(-4.70181 3.0324 -5.64054e-17)
(-5.33371 3.06194 5.61409e-17)
(-6.48673 3.57239 0)
(-7.99447 2.59415 9.78259e-17)
(-6.48062 1.18448 4.9209e-17)
(-4.67242 3.29752 -9.81755e-17)
(-4.74132 3.07353 0)
(-4.56849 3.93637 0)
(-5.5865 4.10427 -9.51439e-17)
(-5.93677 3.71521 -4.47317e-17)
(-5.42153 2.23908 0)
(-4.34384 1.69061 0)
(-2.38549 1.28876 0)
(0.440394 1.60848 0)
(1.7757 2.63853 -8.34153e-17)
(2.90493 3.27141 0)
(2.678 3.92517 0)
(1.857 4.75673 0)
(0.444532 5.30212 0)
(-0.669697 5.46148 0)
(-1.87167 5.57847 0)
(-0.691797 4.40802 -8.20868e-17)
(0.69294 5.59972 0)
(-1.67186 6.96808 0)
(-3.96986 4.34891 -1.95367e-16)
(7.0599 2.70281 8.44198e-17)
(9.64022 6.9666 -8.84592e-17)
(10.4977 6.84828 9.21667e-17)
(0.153723 2.32523 0)
(0.288316 3.26264 -4.7132e-17)
(0.254685 3.08635 0)
(0.148691 2.52607 -2.34597e-17)
(0.0693338 1.79102 0)
(0.0315746 0.950521 0)
(0.138688 0.290289 2.3663e-17)
(0.183036 0.166487 0)
(0.173539 0.401037 0)
(0.16806 0.590074 0)
(0.20549 0.527498 0)
(0.278484 0.265979 0)
(0.305753 0.0368804 -8.96653e-17)
(0.239655 -0.0485386 -4.41802e-17)
(0.143925 -0.0228804 4.38654e-17)
(0.0613562 0.0170706 0)
(-0.00928589 0.0395566 0)
(-0.080063 0.0352493 0)
(-0.118743 0.00101025 0)
(-0.129842 -0.0953849 0)
(-0.0729085 -0.24674 -4.26422e-17)
(0.0643867 -0.457867 -4.24397e-17)
(0.257919 -0.71185 4.22059e-17)
(0.463983 -1.00071 -4.1954e-17)
(0.73266 -1.24718 0)
(0.985453 -1.46559 0)
(1.29182 -1.63713 -4.1043e-17)
(1.62732 -1.78956 0)
(1.94937 -1.92695 0)
(2.20863 -1.95102 -3.97894e-17)
(2.51709 -1.78582 -3.94047e-17)
(2.82183 -1.64692 -3.90551e-17)
(3.0738 -1.58032 0)
(3.44394 -1.34992 0)
(3.74554 -1.07029 3.80217e-17)
(3.96681 -0.870548 0)
(4.31039 -0.551187 0)
(4.54319 -0.100482 -3.74501e-17)
(4.70712 0.251891 3.70953e-17)
(4.92034 0.576537 -3.68987e-17)
(5.11228 1.11561 0)
(5.21025 1.46863 0)
(5.45649 1.8459 -7.19971e-17)
(5.52954 2.29871 0)
(5.75387 2.61441 -7.01005e-17)
(5.94066 3.15267 -1.04022e-16)
(6.02522 3.49752 1.02402e-16)
(6.22267 3.95565 -6.7522e-17)
(5.98931 4.46885 0)
(5.88176 4.70743 0)
(5.22071 4.97998 -6.72388e-17)
(4.25033 4.90436 -3.36768e-17)
(2.81417 4.35368 0)
(0.657072 3.28299 0)
(-0.4007 3.04147 -3.21132e-17)
(-1.1556 3.47142 -6.50208e-17)
(-2.09371 3.12384 0)
(-2.98695 2.16169 6.34056e-17)
(-3.56185 0.82389 -6.28976e-17)
(-4.08738 -0.575508 6.22435e-17)
(-3.9499 -1.57198 0)
(-4.38418 -1.48306 0)
(-3.74838 -2.20249 0)
(-3.95962 -1.99404 0)
(-4.30497 -1.0778 0)
(-4.72745 -0.13369 5.87224e-17)
(-5.22311 0.969401 0)
(-5.84605 2.51539 0)
(-6.60771 4.01291 0)
(-7.5531 5.28977 1.14039e-16)
(-8.88591 6.18432 5.63921e-17)
(-10.3948 6.80862 5.60124e-17)
(-12.0673 7.10998 -1.11616e-16)
(-13.5484 7.30182 5.55994e-17)
(-14.7964 7.24739 -5.51443e-17)
(-15.7852 7.10733 0)
(-16.6207 6.83691 5.44989e-17)
(-17.2746 6.55872 0)
(-17.7739 6.21683 0)
(-18.1647 5.84126 0)
(-18.4833 5.44115 1.06083e-16)
(-18.7387 5.02514 -5.26962e-17)
(-18.9087 4.5353 -5.24542e-17)
(-18.9411 3.98536 -1.03725e-16)
(-18.8672 3.43435 -1.54229e-16)
(-18.7252 2.92973 -5.09256e-17)
(-18.5093 2.54202 0)
(-18.2372 2.24688 -1.00877e-16)
(-17.9059 2.05207 0)
(-17.4785 1.85502 -1.49311e-16)
(-17.0135 1.55905 0)
(-16.5151 1.23952 -1.4734e-16)
(-16.0321 0.869699 0)
(-15.3833 0.640211 0)
(-14.828 0.582281 -4.83388e-17)
(-14.1669 0.822789 0)
(-13.4907 0.745629 4.74348e-17)
(-13.0598 0.768117 9.43889e-17)
(-12.0324 0.253949 4.69061e-17)
(-11.7876 0.641655 9.3102e-17)
(-10.8918 0.546352 -9.28735e-17)
(-9.98747 0.769348 -9.17798e-17)
(-9.71501 0.816042 1.82751e-16)
(-8.80038 0.300168 0)
(-8.37892 0.444485 0)
(-7.20238 0.469088 8.98448e-17)
(-6.4436 0.694284 -8.94424e-17)
(-5.42743 0.750535 0)
(-4.63383 0.947144 0)
(-3.47933 0.767868 8.72028e-17)
(-2.5856 1.13209 0)
(-1.94254 1.15783 2.29445e-19)
(-0.776854 1.49559 2.26738e-19)
(0.667791 2.46622 8.28766e-17)
(1.69399 2.49171 0)
(1.43599 1.72803 -8.78656e-17)
(2.22575 1.50039 0)
(4.13716 2.79984 8.0033e-17)
(4.99265 3.62203 0)
(5.17784 3.11604 0)
(6.09379 3.0452 -8.02921e-17)
(7.01868 3.50046 -7.63683e-17)
(7.16528 3.4259 0)
(7.52168 3.28137 -7.82707e-17)
(8.48169 3.93834 1.47854e-16)
(8.60167 4.23661 0)
(8.20619 4.21531 0)
(7.41559 4.57849 0)
(6.17004 4.95293 0)
(5.27044 4.72877 7.80906e-17)
(4.73116 3.88808 -1.54195e-16)
(4.33337 2.55859 0)
(4.43267 1.6041 0)
(5.68635 2.01447 0)
(7.11444 3.55676 0)
(6.87718 4.65491 0)
(5.78148 4.91692 0)
(4.38392 5.09421 0)
(2.17284 5.14431 6.62697e-17)
(0.503364 4.89791 0)
(-1.59568 5.08612 0)
(-2.0656 3.89163 6.47016e-17)
(-3.43991 3.34579 0)
(-2.85221 3.64716 0)
(-3.02645 4.05607 -6.02897e-17)
(-3.69981 5.22703 0)
(-4.92468 5.0665 0)
(-5.98149 3.99848 1.23481e-16)
(-7.82742 1.65299 1.2432e-16)
(-7.40488 -0.587316 1.24734e-16)
(-5.66184 0.951805 0)
(-5.19621 2.65093 1.15562e-16)
(-4.6111 4.05821 0)
(-4.86312 4.17419 -1.1139e-16)
(-6.46558 5.1188 0)
(-7.11147 3.55476 -9.57096e-17)
(-7.23788 1.13985 1.95311e-19)
(-5.02103 3.9622 9.86405e-17)
(-5.21172 4.05503 -9.65947e-17)