/*--------------------------------*- C++ -*----------------------------------*\
| =========                 |                                                 |
| \\      /  F ield         | OpenFOAM: The Open Source CFD Toolbox           |
|  \\    /   O peration     | Version:  dev                                   |
|   \\  /    A nd           | Web:      http://www.openfoam.org               |
|    \\/     M anipulation  |                                                 |
\*---------------------------------------------------------------------------*/
FoamFile
{
    version     2.0;
    format      ascii;
    class       volVectorField;
    object      UMean;
    location    "9.149";
}
// * * * * * * * * * * * * * * * * * * * * * * * * * * * * * * * * * * * * * //

dimensions      [0 1 -1 0 0 0 0];

internalField   nonuniform List<vector> 
12225
(
(7.00365 0.430274 0)
(4.43881 0.192551 0)
(2.55672 0.031162 0)
(2.51083 -0.0166588 0)
(1.38443 0.019374 0)
(2.26728 -0.0342833 0)
(0.989566 0.0489919 0)
(2.18248 -0.059177 0)
(0.797606 0.0716571 0)
(2.29164 -0.0978431 0)
(0.688949 0.0993546 0)
(2.74349 -0.138626 0)
(0.948469 0.102591 0)
(3.39704 -0.172141 0)
(3.53214 -0.16856 0)
(4.69651 0.0499397 0)
(14.8475 -2.4344 0)
(7.12059 5.13398 0)
(9.54626 0.98159 0)
(9.54342 0.860872 0)
(6.68673 0.466307 0)
(7.59035 0.214534 0)
(4.09045 0.140338 0)
(6.84301 0.0107828 0)
(2.66515 0.132686 0)
(6.68896 -0.0903505 0)
(1.82295 0.141875 0)
(7.0386 -0.165106 0)
(1.26131 0.123933 0)
(8.12088 -0.414467 0)
(1.38586 0.252368 0)
(9.9547 -1.44241 0)
(3.43563 0.271433 0)
(12.3898 -4.06856 0)
(10.4304 -1.92856 0)
(7.77678 0.485954 0)
(9.11842 0.763521 0)
(12.1669 0.951385 0)
(8.32951 0.624025 0)
(11.8321 0.443373 0)
(6.22598 0.310369 0)
(11.413 0.206395 0)
(4.58296 0.221604 0)
(11.3148 -0.0196304 0)
(3.8749 0.193077 0)
(11.376 -0.277963 0)
(4.35166 0.187352 0)
(11.2519 -0.723098 0)
(5.73002 0.175812 0)
(11.0894 -1.49151 0)
(7.21648 0.0520053 0)
(12.1176 -3.86679 0)
(6.93319 0.35008 0)
(9.35371 -2.39052 0)
(7.21896 0.524968 0)
(13.9931 0.960979 0)
(7.92971 0.609531 0)
(14.2954 0.553785 0)
(7.47426 0.420992 0)
(14.1166 0.270928 0)
(7.17575 0.39681 0)
(13.7387 -0.145297 0)
(7.25691 0.459729 0)
(13.2699 -0.698922 0)
(7.65983 0.57687 0)
(12.8751 -1.42287 0)
(8.26796 0.699278 0)
(12.6517 -2.31329 0)
(9.02567 0.0408025 0)
(11.8878 -3.63671 0)
(8.68753 -1.43374 0)
(8.3638 0.682103 0)
(6.4236 0.570055 0)
(14.0115 0.565893 0)
(8.47315 0.674595 0)
(13.9586 0.284452 0)
(9.16897 0.63682 0)
(13.644 -0.0026973 0)
(9.5167 0.65799 0)
(13.2145 -0.388856 0)
(9.59155 0.734518 0)
(12.8137 -0.871483 0)
(9.44504 0.876997 0)
(12.5836 -1.52158 0)
(9.1493 1.08986 0)
(12.5719 -2.49027 0)
(8.82716 1.13151 0)
(11.6178 -5.02826 0)
(8.54259 1.26525 0)
(8.72211 0.13028 0)
(7.95589 0.616839 0)
(11.8037 0.152414 0)
(9.50479 0.654769 0)
(11.7399 0.0502121 0)
(10.088 0.693939 0)
(11.6009 -0.165697 0)
(10.3203 0.725843 0)
(11.4767 -0.457564 0)
(10.3001 0.782974 0)
(11.39 -0.853618 0)
(10.0322 0.831901 0)
(11.3559 -1.40012 0)
(9.49137 0.800978 0)
(11.4189 -2.13856 0)
(8.79917 0.725314 0)
(10.999 -3.92106 0)
(7.73232 1.33502 0)
(9.48921 -0.216618 0)
(9.34368 0.812771 0)
(10.4392 -0.266028 0)
(10.1405 0.930602 0)
(10.554 -0.304613 0)
(10.3986 1.02008 0)
(10.582 -0.502959 0)
(10.5201 1.07557 0)
(10.6255 -0.78122 0)
(10.5634 1.15352 0)
(10.6718 -1.15773 0)
(10.5153 1.23524 0)
(10.7 -1.63564 0)
(10.3666 1.26115 0)
(10.6881 -2.32735 0)
(10.0526 1.27107 0)
(10.3759 -3.95502 0)
(8.2982 2.01959 0)
(9.69705 -0.95175 0)
(9.84884 0.701175 0)
(10.1562 -0.326022 0)
(10.4065 0.855076 0)
(10.3899 -0.349927 0)
(10.5802 0.906873 0)
(10.4706 -0.493992 0)
(10.7016 0.892965 0)
(10.552 -0.686287 0)
(10.8054 0.87269 0)
(10.6438 -0.93523 0)
(10.8811 0.823809 0)
(10.7353 -1.23272 0)
(10.9083 0.671275 0)
(10.7537 -1.67271 0)
(10.7235 0.519559 0)
(10.4922 -2.47454 0)
(8.89341 0.981015 0)
(9.96364 -0.484122 0)
(10.0855 0.802361 0)
(10.0199 -0.583485 0)
(10.5354 1.02154 0)
(10.3108 -0.604571 0)
(10.675 1.0751 0)
(10.4401 -0.725031 0)
(10.7775 1.0483 0)
(10.571 -0.890123 0)
(10.8572 1.00376 0)
(10.7115 -1.11787 0)
(10.8989 0.92123 0)
(10.8319 -1.39511 0)
(10.8743 0.734885 0)
(10.8223 -1.76125 0)
(10.6025 0.505771 0)
(10.5206 -2.06948 0)
(9.34986 0.586416 0)
(10.0234 -0.391801 0)
(10.139 0.648685 0)
(10.0424 -0.511972 0)
(10.5102 0.878055 0)
(10.3335 -0.456532 0)
(10.6213 0.869253 0)
(10.482 -0.493664 0)
(10.6978 0.778279 0)
(10.6291 -0.572176 0)
(10.7342 0.657915 0)
(10.7636 -0.695403 0)
(10.718 0.495567 0)
(10.8403 -0.845104 0)
(10.6183 0.264061 0)
(10.7655 -1.03242 0)
(10.2823 0.070187 0)
(10.4794 -1.05326 0)
(9.62304 0.124066 0)
(10.2068 -0.0329959 0)
(10.1409 0.700129 0)
(10.0707 -0.691996 0)
(10.4525 0.902628 0)
(10.2986 -0.61903 0)
(10.5374 0.847755 0)
(10.4303 -0.645641 0)
(10.6032 0.735386 0)
(10.5607 -0.707525 0)
(10.6272 0.58688 0)
(10.6604 -0.791416 0)
(10.6092 0.383241 0)
(10.6813 -0.869512 0)
(10.5269 0.117146 0)
(10.571 -0.922422 0)
(10.2915 -0.113742 0)
(10.3609 -0.765406 0)
(10.0197 -0.154112 0)
(10.2455 -0.125418 0)
(10.0968 0.468073 0)
(10.1509 -0.495138 0)
(10.3536 0.595818 0)
(10.2934 -0.37465 0)
(10.4203 0.527593 0)
(10.4094 -0.354813 0)
(10.4848 0.418928 0)
(10.5239 -0.37422 0)
(10.5131 0.275765 0)
(10.5994 -0.414712 0)
(10.5157 0.093342 0)
(10.5971 -0.461741 0)
(10.4767 -0.103318 0)
(10.4996 -0.500252 0)
(10.3571 -0.232164 0)
(10.3646 -0.405752 0)
(10.2659 -0.21991 0)
(10.3739 -0.110309 0)
(10.0501 0.411116 0)
(10.1755 -0.487331 0)
(10.2548 0.437313 0)
(10.2379 -0.367573 0)
(10.3088 0.367454 0)
(10.3307 -0.34564 0)
(10.3793 0.250929 0)
(10.4247 -0.355359 0)
(10.4227 0.0995316 0)
(10.4823 -0.374967 0)
(10.4463 -0.0796764 0)
(10.4818 -0.403525 0)
(10.433 -0.246694 0)
(10.4262 -0.431388 0)
(10.3773 -0.339264 0)
(10.3686 -0.39277 0)
(10.3571 -0.320636 0)
(10.4223 -0.276628 0)
(10.0154 0.1997 0)
(10.1908 -0.285806 0)
(10.1932 0.167387 0)
(10.2052 -0.179297 0)
(10.2293 0.131712 0)
(10.2792 -0.17136 0)
(10.3062 0.0472767 0)
(10.3626 -0.197785 0)
(10.366 -0.0586792 0)
(10.4142 -0.235759 0)
(10.4055 -0.176014 0)
(10.4268 -0.28648 0)
(10.4124 -0.27503 0)
(10.4113 -0.331719 0)
(10.3995 -0.324186 0)
(10.4066 -0.337262 0)
(10.4109 -0.316095 0)
(10.4698 -0.30491 0)
(9.99664 0.0971827 0)
(10.1445 -0.185865 0)
(10.1464 0.0217148 0)
(10.1501 -0.133647 0)
(10.1622 -0.00857722 0)
(10.209 -0.146144 0)
(10.241 -0.0769207 0)
(10.292 -0.186729 0)
(10.3111 -0.159378 0)
(10.3486 -0.237979 0)
(10.3576 -0.244803 0)
(10.3791 -0.298345 0)
(10.3805 -0.316322 0)
(10.3939 -0.350127 0)
(10.3959 -0.361076 0)
(10.4185 -0.380257 0)
(10.4238 -0.381124 0)
(10.4788 -0.387321 0)
(9.99364 0.0155484 0)
(10.106 -0.0857612 0)
(10.1088 -0.0442716 0)
(10.1138 -0.0932149 0)
(10.1188 -0.0748436 0)
(10.1675 -0.118911 0)
(10.198 -0.12058 0)
(10.2518 -0.163823 0)
(10.274 -0.180562 0)
(10.3154 -0.219165 0)
(10.3278 -0.243942 0)
(10.3597 -0.277842 0)
(10.3659 -0.301365 0)
(10.3939 -0.329041 0)
(10.3995 -0.347035 0)
(10.4328 -0.370853 0)
(10.4355 -0.383847 0)
(10.4883 -0.397072 0)
(9.99175 0.00481131 0)
(10.0636 -0.0251023 0)
(10.0567 -0.0348583 0)
(10.0678 -0.0664236 0)
(10.0778 -0.0756702 0)
(10.128 -0.0997324 0)
(10.1573 -0.115914 0)
(10.211 -0.144688 0)
(10.2337 -0.168966 0)
(10.2782 -0.199575 0)
(10.292 -0.226574 0)
(10.33 -0.257058 0)
(10.3384 -0.283347 0)
(10.3731 -0.312091 0)
(10.3788 -0.336849 0)
(10.4152 -0.365589 0)
(10.4146 -0.388112 0)
(10.4634 -0.407533 0)
(9.99159 0.0141898 0)
(10.0467 0.0161888 0)
(10.0399 -0.0105468 0)
(10.0576 -0.0376576 0)
(10.0749 -0.0565126 0)
(10.1255 -0.0778392 0)
(10.1554 -0.098853 0)
(10.2072 -0.123817 0)
(10.2312 -0.14899 0)
(10.2754 -0.176633 0)
(10.2912 -0.20344 0)
(10.3293 -0.232175 0)
(10.3395 -0.259388 0)
(10.3737 -0.288339 0)
(10.3801 -0.315671 0)
(10.4141 -0.345745 0)
(10.4132 -0.371607 0)
(10.4567 -0.393426 0)
(9.99171 0.0329629 0)
(10.0502 0.0496734 0)
(10.0566 0.00996493 0)
(10.0799 -0.0180486 0)
(10.1007 -0.0402114 0)
(10.1507 -0.0614578 0)
(10.1819 -0.0835921 0)
(10.2316 -0.106397 0)
(10.2563 -0.13054 0)
(10.2985 -0.15551 0)
(10.3151 -0.18108 0)
(10.3508 -0.207335 0)
(10.3615 -0.233573 0)
(10.3926 -0.26043 0)
(10.3991 -0.287051 0)
(10.4288 -0.315311 0)
(10.4281 -0.341045 0)
(10.4653 -0.362822 0)
(9.98992 0.0407374 0)
(10.0547 0.0526781 0)
(10.0828 -0.00631029 0)
(10.1167 -0.0406427 0)
(10.1419 -0.0640887 0)
(10.1904 -0.0822454 0)
(10.2224 -0.102078 0)
(10.2691 -0.120998 0)
(10.2936 -0.142739 0)
(10.3321 -0.163989 0)
(10.3484 -0.187404 0)
(10.3802 -0.210093 0)
(10.3905 -0.234398 0)
(10.4174 -0.257918 0)
(10.4229 -0.282783 0)
(10.4473 -0.307817 0)
(10.4462 -0.332447 0)
(10.4768 -0.352838 0)
(9.99053 0.0316041 0)
(10.0685 0.0220234 0)
(10.1262 -0.0557305 0)
(10.177 -0.0967458 0)
(10.2126 -0.119773 0)
(10.261 -0.132738 0)
(10.2938 -0.147776 0)
(10.3361 -0.161663 0)
(10.3602 -0.179839 0)
(10.3941 -0.196927 0)
(10.4104 -0.217369 0)
(10.4377 -0.23625 0)
(10.4479 -0.257991 0)
(10.4702 -0.278054 0)
(10.4754 -0.300729 0)
(10.4946 -0.32235 0)
(10.4939 -0.345199 0)
(10.5187 -0.363476 0)
(9.99118 0.00989605 0)
(10.092 -0.0296955 0)
(10.187 -0.120823 0)
(10.2595 -0.162758 0)
(10.3093 -0.181114 0)
(10.359 -0.18715 0)
(10.3929 -0.196027 0)
(10.4305 -0.204362 0)
(10.4542 -0.218102 0)
(10.4837 -0.230738 0)
(10.5002 -0.247594 0)
(10.5233 -0.26262 0)
(10.5337 -0.281324 0)
(10.5517 -0.298005 0)
(10.5572 -0.318056 0)
(10.5719 -0.336389 0)
(10.5723 -0.356963 0)
(10.592 -0.373096 0)
(9.99282 -0.0233702 0)
(10.1275 -0.103612 0)
(10.2671 -0.204926 0)
(10.3665 -0.241591 0)
(10.432 -0.250805 0)
(10.4836 -0.248387 0)
(10.5183 -0.250894 0)
(10.5518 -0.253691 0)
(10.5754 -0.262968 0)
(10.6012 -0.271326 0)
(10.6181 -0.284652 0)
(10.6378 -0.296268 0)
(10.6487 -0.312075 0)
(10.6632 -0.325826 0)
(10.6692 -0.343354 0)
(10.6801 -0.358797 0)
(10.6814 -0.377108 0)
(10.6968 -0.391247 0)
(9.99045 -0.0715598 0)
(10.1744 -0.201145 0)
(10.3678 -0.30544 0)
(10.5001 -0.327842 0)
(10.5805 -0.322543 0)
(10.6343 -0.310173 0)
(10.669 -0.305552 0)
(10.6997 -0.302543 0)
(10.7226 -0.306678 0)
(10.746 -0.310554 0)
(10.7624 -0.319873 0)
(10.7794 -0.328017 0)
(10.7895 -0.340547 0)
(10.8006 -0.351322 0)
(10.8055 -0.365908 0)
(10.8124 -0.378464 0)
(10.8122 -0.394018 0)
(10.8222 -0.405964 0)
(9.99199 -0.136361 0)
(10.2447 -0.32301 0)
(10.5027 -0.419009 0)
(10.6712 -0.417632 0)
(10.7627 -0.394171 0)
(10.8175 -0.3711 0)
(10.8494 -0.35893 0)
(10.8772 -0.350569 0)
(10.896 -0.350076 0)
(10.9149 -0.350468 0)
(10.9253 -0.356349 0)
(10.9355 -0.36148 0)
(10.9375 -0.370774 0)
(10.9394 -0.378634 0)
(10.934 -0.389825 0)
(10.9291 -0.399405 0)
(10.9164 -0.41132 0)
(10.9116 -0.420464 0)
(9.98974 -0.219902 0)
(10.3369 -0.46812 0)
(10.6736 -0.53973 0)
(10.8757 -0.508209 0)
(10.9697 -0.464834 0)
(11.0135 -0.428039 0)
(11.0285 -0.404783 0)
(11.0352 -0.388352 0)
(11.029 -0.381382 0)
(11.0194 -0.37693 0)
(10.998 -0.378138 0)
(10.9735 -0.379043 0)
(10.9377 -0.383762 0)
(10.8999 -0.387237 0)
(10.8522 -0.3936 0)
(10.8042 -0.39892 0)
(10.7462 -0.405237 0)
(10.6945 -0.410007 0)
(9.9833 -0.332078 0)
(10.4676 -0.642324 0)
(10.8829 -0.66711 0)
(11.0724 -0.602639 0)
(11.1029 -0.537188 0)
(11.0583 -0.483112 0)
(10.9743 -0.444969 0)
(10.8731 -0.416205 0)
(10.7577 -0.397991 0)
(10.635 -0.38325 0)
(10.5035 -0.374864 0)
(10.3666 -0.366304 0)
(10.2242 -0.36242 0)
(10.0775 -0.356966 0)
(9.92869 -0.355818 0)
(9.77712 -0.353223 0)
(9.62596 -0.352924 0)
(9.47606 -0.351084 0)
(10.0025 -0.453654 0)
(10.619 -0.818951 0)
(10.9017 -0.752064 0)
(10.7933 -0.623745 0)
(10.4938 -0.512534 0)
(10.1376 -0.429184 0)
(9.77013 -0.373554 0)
(9.41762 -0.33471 0)
(9.07682 -0.307281 0)
(8.75548 -0.284595 0)
(8.4465 -0.267639 0)
(8.15341 -0.251315 0)
(7.87268 -0.240025 0)
(7.6031 -0.227323 0)
(7.34831 -0.221117 0)
(7.09879 -0.211807 0)
(6.87038 -0.210834 0)
(6.64097 -0.204157 0)
(10.0974 -0.750789 0)
(10.0458 -1.0132 0)
(9.42494 -0.801089 0)
(8.51444 -0.572183 0)
(7.65499 -0.378727 0)
(6.92884 -0.244882 0)
(6.32728 -0.167519 0)
(5.83156 -0.12625 0)
(5.40914 -0.104702 0)
(5.04855 -0.0923206 0)
(4.72847 -0.0849612 0)
(4.44775 -0.0793489 0)
(4.19136 -0.0758059 0)
(3.96247 -0.0718889 0)
(3.75077 -0.0721326 0)
(3.55561 -0.06908 0)
(3.38341 -0.0802644 0)
(3.21852 -0.0828589 0)
(8.51677 -0.436069 0)
(6.11026 -0.380896 0)
(4.29833 -0.138056 0)
(3.12387 -0.0213906 0)
(2.48109 0.0191316 0)
(2.12048 0.0224705 0)
(1.89625 0.0137113 0)
(1.73494 0.00461307 0)
(1.59891 -0.00157088 0)
(1.47818 -0.00479205 0)
(1.36609 -0.00640498 0)
(1.26394 -0.00671826 0)
(1.16828 -0.00670602 0)
(1.08156 -0.00638804 0)
(0.999539 -0.00665626 0)
(0.919312 -0.00703201 0)
(0.851816 -0.0186101 0)
(0.731294 -0.00613754 0)
(-0.0520704 0.138075 0)
(-0.157207 0.0716002 0)
(-0.20726 0.0165263 0)
(-0.195446 -0.0443287 0)
(-0.11819 -0.0990742 0)
(0.0120159 -0.145132 0)
(0.18612 -0.175707 1.11355e-17)
(0.387949 -0.193697 -1.10605e-17)
(0.606293 -0.198113 0)
(0.828816 -0.192867 -1.09173e-17)
(1.04614 -0.178535 0)
(1.24927 -0.157778 0)
(1.43165 -0.131148 0)
(1.58801 -0.101794 1.06428e-17)
(1.71569 -0.0705427 0)
(1.81191 -0.0384626 0)
(1.87579 -0.00629815 -1.04456e-17)
(1.90805 0.0239897 0)
(1.91037 0.0504778 0)
(1.88478 0.0722197 0)
(1.83499 0.089196 1.01962e-17)
(1.76359 0.100758 0)
(1.67447 0.108645 1.00742e-17)
(1.56936 0.111563 0)
(1.45288 0.109677 0)
(1.32777 0.108032 9.89554e-18)
(1.19429 0.111335 0)
(1.05166 0.116462 -9.77921e-18)
(0.903102 0.121705 0)
(0.749185 0.126742 9.66433e-18)
(0.591468 0.13073 0)
(0.432226 0.133174 0)
(0.273722 0.134322 0)
(0.116438 0.134093 0)
(-0.0393073 0.131195 0)
(-0.191442 0.126508 -9.32963e-18)
(-0.338314 0.1204 0)
(-0.479514 0.113901 1.84405e-17)
(-0.6136 0.107413 0)
(-0.740152 0.100195 -1.82216e-17)
(-0.857706 0.0931724 0)
(-0.966427 0.0864204 0)
(-1.06675 0.0786793 1.78884e-17)
(-1.1582 0.070319 0)
(-1.24141 0.0625957 1.76651e-17)
(-1.31642 0.0552948 -1.75531e-17)
(-1.3827 0.0482362 0)
(-1.4411 0.0421726 -1.73281e-17)
(-1.49274 0.0368739 -1.72151e-17)
(-1.5366 0.0332145 0)
(-1.57285 0.0316138 0)
(-1.6034 0.0315752 0)
(-1.63038 0.0316701 0)
(-1.65476 0.0316569 0)
(-1.67797 0.032529 1.65281e-17)
(-1.70184 0.0340764 0)
(-1.72773 0.036319 -1.62989e-17)
(-1.75439 0.0383916 0)
(-1.78063 0.0390208 0)
(-1.8064 0.0396056 1.59525e-17)
(-1.8324 0.0413561 0)
(-1.86038 0.0425684 -1.57212e-17)
(-1.89034 0.0442274 0)
(-1.92203 0.0456908 0)
(-1.95491 0.0464554 0)
(-1.98836 0.047573 1.52555e-17)
(-2.02233 0.0495186 0)
(-2.05687 0.051776 0)
(-2.0921 0.0541359 1.49058e-17)
(-2.12826 0.0554251 0)
(-2.16256 0.0556299 1.46712e-17)
(-2.1939 0.056255 0)
(-2.22234 0.0567717 0)
(-2.24677 0.0567607 0)
(-2.26594 0.0562315 -1.42051e-17)
(-2.27926 0.0551099 0)
(-2.28732 0.0544274 0)
(-2.292 0.0543578 -1.38612e-17)
(-2.29369 0.053346 -1.37478e-17)
(-2.29065 0.0516284 0)
(-2.2811 0.0492965 -1.35225e-17)
(-2.26489 0.046298 0)
(-2.24163 0.0430672 -2.66021e-17)
(-2.21131 0.0395611 0)
(-2.17449 0.0358183 -2.61666e-17)
(-2.13102 0.0327045 0)
(-2.08196 0.03026 2.57378e-17)
(-2.0282 0.0282657 0)
(-1.96984 0.0268146 0)
(-1.90753 0.0258319 0)
(-1.84283 0.0252322 -2.49007e-17)
(-1.77547 0.024965 0)
(-1.70708 0.0249156 2.4499e-17)
(-1.63769 0.0254897 0)
(-1.568 0.0265176 -2.41096e-17)
(-1.49994 0.0290129 -2.39211e-17)
(-1.4327 0.0301452 -2.37367e-17)
(-1.3653 0.0311959 0)
(-1.29972 0.0313016 0)
(-1.23481 0.0325014 0)
(-1.16873 0.033278 0)
(-1.10359 0.032904 0)
(-1.03355 0.0318127 0)
(-0.964605 0.0331621 0)
(-0.893607 0.0328259 0)
(-0.826479 0.0351794 2.2213e-17)
(-0.759087 0.0357145 2.20607e-17)
(-0.696782 0.0401082 0)
(-0.636166 0.0413896 0)
(-0.580552 0.0410628 0)
(-0.513122 0.0384532 2.14802e-17)
(-0.450954 0.042596 0)
(-0.382054 0.0407994 0)
(-0.317232 0.0437367 0)
(-0.246489 0.0406927 0)
(-0.173699 0.0431555 -2.08059e-17)
(-0.0987284 0.0446845 0)
(-0.0182275 0.0437064 0)
(0.0668577 0.0450896 2.04288e-17)
(0.155517 0.0451134 -2.03072e-17)
(0.247158 0.0444201 0)
(0.34332 0.0483312 -2.00746e-17)
(0.434635 0.0513453 0)
(0.526996 0.0545861 1.98481e-17)
(0.609117 0.0593356 0)
(0.680202 0.0623834 0)
(0.755292 0.0626587 0)
(0.824686 0.0633602 0)
(0.904316 0.0605012 0)
(0.977949 0.0610105 -3.83962e-17)
(1.05365 0.0625381 -3.81772e-17)
(1.11392 0.0672739 0)
(1.16467 0.0663627 0)
(1.20957 0.067705 0)
(1.24625 0.0636542 3.72527e-17)
(1.29408 0.058843 0)
(1.34335 0.057203 0)
(1.38824 0.0560796 0)
(1.43677 0.0538654 3.62325e-17)
(1.47593 0.056062 -3.59645e-17)
(1.52039 0.0527665 0)
(1.55915 0.0527953 0)
(1.6005 0.0532586 -3.51496e-17)
(1.62694 0.0582934 -3.48766e-17)
(1.65681 0.0550091 0)
(1.68576 0.0587052 0)
(1.72508 0.0557661 3.40433e-17)
(1.76188 0.0660075 -3.37639e-17)
(1.77016 0.0714194 0)
(1.7838 0.0707878 0)
(1.80897 0.071149 -3.29271e-17)
(1.84213 0.0758852 0)
(1.85534 0.0834417 0)
(1.86668 0.0891801 -3.20829e-17)
(1.86578 0.0933139 0)
(1.88012 0.0981289 -3.15226e-17)
(1.88214 0.105163 0)
(1.8876 0.109241 0)
(1.87449 0.120759 0)
(1.86103 0.126605 3.04335e-17)
(1.84589 0.1331 0)
(1.81403 0.142912 0)
(1.74227 0.154526 0)
(1.66569 0.154571 0)
(1.60052 0.156889 0)
(1.51074 0.165785 0)
(1.38269 0.172563 2.88929e-17)
(1.26353 0.173915 2.8739e-17)
(1.07922 0.181854 0)
(0.872839 0.184493 0)
(0.629764 0.183548 0)
(0.41348 0.169796 -2.83216e-17)
(0.191548 0.162729 0)
(0.03936 0.146542 5.63483e-17)
(-0.160492 0.14389 -5.62383e-17)
(-0.26323 0.123642 -5.60593e-17)
(-0.424295 0.126642 5.59554e-17)
(-0.459294 0.0965646 -5.57536e-17)
(-0.617429 0.12913 5.57337e-17)
(-0.565666 -0.00401277 0)
(0.0101259 0.249139 0)
(0.0144714 0.192415 0)
(0.0494846 0.00797624 -2.27961e-17)
(0.12073 -0.198269 0)
(0.235559 -0.384314 2.2365e-17)
(0.387807 -0.535763 2.22184e-17)
(0.56896 -0.644729 1.10439e-17)
(0.768887 -0.710772 1.09815e-17)
(0.976298 -0.737475 0)
(1.18059 -0.731281 1.08545e-17)
(1.37314 -0.695493 0)
(1.54662 -0.637227 0)
(1.69707 -0.562617 -2.13206e-17)
(1.81973 -0.478179 -1.05951e-17)
(1.91458 -0.386225 2.10561e-17)
(1.9798 -0.291633 2.09226e-17)
(2.01673 -0.199269 1.03957e-17)
(2.02548 -0.111193 0)
(2.00847 -0.0281552 0)
(1.9657 0.0466029 0)
(1.90101 0.112105 1.01367e-17)
(1.81448 0.171234 0)
(1.71079 0.224124 -3.00376e-17)
(1.58875 0.266931 0)
(1.4507 0.301887 0)
(1.29713 0.332461 -9.83191e-18)
(1.13156 0.356434 0)
(0.956696 0.373725 9.71554e-18)
(0.776385 0.384792 1.93127e-17)
(0.591509 0.392077 -9.59755e-18)
(0.404849 0.394198 0)
(0.217663 0.390436 0)
(0.0296423 0.383179 0)
(-0.158732 0.376215 1.87311e-17)
(-0.345668 0.367607 1.86166e-17)
(-0.529873 0.355318 9.25128e-18)
(-0.708615 0.340546 0)
(-0.882413 0.323481 -1.82762e-17)
(-1.04733 0.302983 0)
(-1.20563 0.281146 1.80507e-17)
(-1.35569 0.25873 0)
(-1.49914 0.235965 0)
(-1.63444 0.215587 -1.77165e-17)
(-1.7625 0.196505 0)
(-1.8858 0.178559 -5.24863e-17)
(-2.00341 0.159762 1.73856e-17)
(-2.11443 0.140801 0)
(-2.21847 0.123861 1.71654e-17)
(-2.31637 0.106192 1.70552e-17)
(-2.40681 0.0866105 0)
(-2.48801 0.0676906 0)
(-2.56209 0.0531933 0)
(-2.63094 0.0437008 0)
(-2.69653 0.0387969 0)
(-2.75828 0.0374111 -1.63736e-17)
(-2.81813 0.0369647 -3.2515e-17)
(-2.87641 0.0371167 1.61413e-17)
(-2.93036 0.034647 0)
(-2.98197 0.0307907 -3.18128e-17)
(-3.03146 0.029529 1.57874e-17)
(-3.07833 0.0304946 0)
(-3.12599 0.0312165 1.55499e-17)
(-3.17165 0.0337632 0)
(-3.21506 0.0349767 0)
(-3.25675 0.0341021 3.03751e-17)
(-3.29725 0.0332006 -1.50672e-17)
(-3.3334 0.0311314 2.98916e-17)
(-3.36713 0.0282928 -2.96503e-17)
(-3.39558 0.0252389 -1.47046e-17)
(-3.42105 0.021313 0)
(-3.44041 0.0141792 -1.44628e-17)
(-3.45273 0.0042309 0)
(-3.45933 -0.00634164 0)
(-3.45749 -0.0188216 0)
(-3.44638 -0.0330549 -1.39829e-17)
(-3.42692 -0.0471632 0)
(-3.4008 -0.0574648 -2.74948e-17)
(-3.36877 -0.0647921 4.08938e-17)
(-3.33128 -0.0734975 1.35161e-17)
(-3.28744 -0.0847286 0)
(-3.2356 -0.0976057 1.32877e-17)
(-3.17842 -0.110437 0)
(-3.11551 -0.122639 2.61239e-17)
(-3.04739 -0.133789 0)
(-2.9742 -0.144393 2.56809e-17)
(-2.89585 -0.153849 -5.09219e-17)
(-2.81353 -0.162807 -2.5247e-17)
(-2.72879 -0.170791 0)
(-2.63906 -0.178336 0)
(-2.54712 -0.183966 0)
(-2.45301 -0.188169 2.44067e-17)
(-2.35557 -0.192213 0)
(-2.25695 -0.194919 -2.40005e-17)
(-2.15834 -0.195311 0)
(-2.05916 -0.196908 7.08205e-17)
(-1.96002 -0.196275 2.34168e-17)
(-1.86028 -0.197291 2.32308e-17)
(-1.76263 -0.194514 0)
(-1.66738 -0.193856 0)
(-1.57154 -0.194682 0)
(-1.4733 -0.195313 0)
(-1.37604 -0.197699 0)
(-1.27323 -0.201859 4.43217e-17)
(-1.17679 -0.199903 4.39857e-17)
(-1.07707 -0.19992 0)
(-0.989664 -0.194212 -2.16752e-17)
(-0.893468 -0.195027 -2.15232e-17)
(-0.806528 -0.188246 0)
(-0.711997 -0.187129 -4.24436e-17)
(-0.633741 -0.186372 0)
(-0.53749 -0.196614 2.09376e-17)
(-0.45175 -0.19083 0)
(-0.346226 -0.199205 0)
(-0.251775 -0.195703 -4.10574e-17)
(-0.138748 -0.204475 0)
(-0.0347575 -0.20462 2.0272e-17)
(0.0904595 -0.212479 0)
(0.216701 -0.220087 0)
(0.352602 -0.224476 1.98866e-17)
(0.49316 -0.228937 1.97702e-17)
(0.638409 -0.234399 0)
(0.787608 -0.234987 -1.95329e-17)
(0.946945 -0.236216 0)
(1.1058 -0.228158 1.92963e-17)
(1.27025 -0.218584 3.83626e-17)
(1.41785 -0.21233 0)
(1.57479 -0.213726 0)
(1.72003 -0.213914 0)
(1.87979 -0.215419 0)
(2.02671 -0.210405 3.72303e-17)
(2.18107 -0.207182 1.11006e-16)
(2.31733 -0.188376 0)
(2.44122 -0.183203 0)
(2.56032 -0.172225 0)
(2.66483 -0.173911 -3.60799e-17)
(2.7667 -0.178433 0)
(2.86698 -0.178118 0)
(2.96168 -0.176731 7.06164e-17)
(3.05509 -0.17721 3.50343e-17)
(3.13086 -0.172652 3.47657e-17)
(3.21921 -0.180004 0)
(3.28359 -0.173745 0)
(3.35117 -0.175158 3.39209e-17)
(3.39864 -0.164389 -3.36149e-17)
(3.4441 -0.178467 0)
(3.4746 -0.175441 0)
(3.50914 -0.191374 -3.27218e-17)
(3.5383 -0.173512 9.71888e-17)
(3.55303 -0.168887 0)
(3.56397 -0.179728 0)
(3.57513 -0.191231 3.14599e-17)
(3.59578 -0.189101 0)
(3.59093 -0.182526 6.16259e-17)
(3.58882 -0.180826 -3.04716e-17)
(3.56121 -0.185286 0)
(3.55751 -0.194463 2.98452e-17)
(3.53335 -0.190657 5.90559e-17)
(3.52169 -0.192056 0)
(3.47453 -0.18523 0)
(3.45029 -0.194156 -2.85747e-17)
(3.40967 -0.186267 0)
(3.35229 -0.169419 5.58888e-17)
(3.25525 -0.150136 0)
(3.16328 -0.155156 0)
(3.0442 -0.146997 0)
(2.91593 -0.121839 0)
(2.7216 -0.102577 -2.66538e-17)
(2.56242 -0.0756087 -2.64645e-17)
(2.27786 -0.0264459 0)
(2.00549 -0.00174511 0)
(1.67602 0.0230016 0)
(1.3804 0.0191234 2.59593e-17)
(1.04699 0.0234619 0)
(0.839355 0.0140452 -5.16709e-17)
(0.519941 0.0325534 5.16439e-17)
(0.40575 0.000918266 5.14958e-17)
(0.124912 0.0317975 5.14866e-17)
(0.12488 -0.0156302 5.13349e-17)
(-0.172808 0.0794075 5.14987e-17)
(0.0129293 -0.116715 0)
(0.0290481 0.071534 0)
(0.12106 -0.0377069 0)
(0.228004 -0.240976 2.29131e-17)
(0.339944 -0.467914 2.26646e-17)
(0.474227 -0.692594 -2.25132e-17)
(0.618242 -0.874718 -2.24007e-17)
(0.772474 -1.00366 -1.48125e-21)
(0.92386 -1.07424 0)
(1.06916 -1.08525 0)
(1.19613 -1.04626 0)
(1.30513 -0.966523 0)
(1.39132 -0.857306 0)
(1.45715 -0.726868 6.47143e-17)
(1.49808 -0.586743 0)
(1.51696 -0.441973 -2.13056e-17)
(1.51197 -0.295522 -2.11693e-17)
(1.48597 -0.15408 0)
(1.43753 -0.0205156 0)
(1.3713 0.103435 0)
(1.28703 0.215986 0)
(1.18704 0.315378 -2.05029e-17)
(1.07219 0.398446 0)
(0.947482 0.470833 2.02488e-17)
(0.810199 0.535956 0)
(0.663219 0.590841 0)
(0.507895 0.635799 0)
(0.349606 0.671801 3.95252e-17)
(0.187352 0.69906 0)
(0.0236167 0.718532 -1.95223e-17)
(-0.141132 0.728949 3.87999e-17)
(-0.305169 0.732134 0)
(-0.471492 0.733869 0)
(-0.638032 0.73085 0)
(-0.803414 0.721345 -1.89165e-17)
(-0.965205 0.706101 -1.87956e-17)
(-1.12381 0.684625 0)
(-1.27764 0.657351 0)
(-1.4259 0.625875 3.68588e-17)
(-1.5672 0.591868 3.66192e-17)
(-1.70672 0.557551 -3.6381e-17)
(-1.84119 0.524839 0)
(-1.97384 0.491316 0)
(-2.10083 0.459119 0)
(-2.2241 0.429715 0)
(-2.34312 0.402003 3.52004e-17)
(-2.45614 0.372719 3.49667e-17)
(-2.56404 0.343028 -3.47348e-17)
(-2.66639 0.314444 0)
(-2.7627 0.28648 0)
(-2.85372 0.257406 0)
(-2.93945 0.230525 0)
(-3.0252 0.212683 3.35754e-17)
(-3.10497 0.196842 0)
(-3.17975 0.183751 0)
(-3.24804 0.176005 3.28779e-17)
(-3.31165 0.17085 3.26464e-17)
(-3.36983 0.164012 0)
(-3.42038 0.154759 -6.43595e-17)
(-3.46886 0.147882 3.19484e-17)
(-3.51346 0.141651 -3.1714e-17)
(-3.55229 0.137937 0)
(-3.58812 0.135105 0)
(-3.61819 0.130878 0)
(-3.64327 0.126242 0)
(-3.66576 0.120633 -3.05522e-17)
(-3.68413 0.112902 -6.06456e-17)
(-3.69687 0.105603 -3.00973e-17)
(-3.70617 0.098481 2.98723e-17)
(-3.70812 0.0872836 0)
(-3.70462 0.0743987 -5.8839e-17)
(-3.69322 0.0584521 -5.83905e-17)
(-3.67626 0.0424027 -5.79455e-17)
(-3.65512 0.0246242 5.75037e-17)
(-3.62494 0.00224578 0)
(-3.58781 -0.0205921 8.49401e-17)
(-3.54466 -0.0403097 0)
(-3.49675 -0.0560032 -2.78773e-17)
(-3.44015 -0.0700486 -2.76645e-17)
(-3.37558 -0.0858598 0)
(-3.30476 -0.102872 0)
(-3.23043 -0.119776 -5.40411e-17)
(-3.1538 -0.134836 0)
(-3.07315 -0.149242 -5.31942e-17)
(-2.98988 -0.163076 0)
(-2.90201 -0.177609 5.23556e-17)
(-2.81053 -0.189136 1.03883e-16)
(-2.71531 -0.199002 0)
(-2.61916 -0.208261 0)
(-2.51999 -0.215758 0)
(-2.42206 -0.221891 5.02911e-17)
(-2.32246 -0.22775 0)
(-2.21953 -0.232447 4.94691e-17)
(-2.11385 -0.235733 0)
(-2.00766 -0.235012 0)
(-1.89915 -0.235204 -9.65056e-17)
(-1.79336 -0.232884 0)
(-1.68563 -0.232415 -4.74621e-17)
(-1.58206 -0.226442 0)
(-1.47423 -0.227134 -4.66946e-17)
(-1.3672 -0.226216 0)
(-1.258 -0.225251 0)
(-1.1502 -0.228971 0)
(-1.03964 -0.231099 -1.35693e-16)
(-0.939368 -0.222575 -4.48698e-17)
(-0.830244 -0.219125 0)
(-0.73704 -0.20855 0)
(-0.635321 -0.209817 0)
(-0.549814 -0.197529 0)
(-0.445691 -0.193724 4.32349e-17)
(-0.359843 -0.188535 -8.58343e-17)
(-0.253008 -0.205246 -4.26318e-17)
(-0.166092 -0.197494 8.46553e-17)
(-0.0467438 -0.213565 8.40923e-17)
(0.0547959 -0.209581 4.17601e-17)
(0.184541 -0.224701 0)
(0.296975 -0.225456 8.23941e-17)
(0.435485 -0.241597 0)
(0.567171 -0.250632 -8.12828e-17)
(0.715161 -0.257336 -4.03833e-17)
(0.861082 -0.26184 0)
(1.01563 -0.270097 7.97606e-17)
(1.1645 -0.273006 3.96273e-17)
(1.32634 -0.281006 0)
(1.48469 -0.278832 3.90893e-17)
(1.65809 -0.268495 -1.16507e-16)
(1.81751 -0.256594 0)
(1.98187 -0.256038 0)
(2.13384 -0.255826 0)
(2.29422 -0.259183 0)
(2.45079 -0.25464 -7.51534e-17)
(2.60685 -0.251592 -7.46546e-17)
(2.7582 -0.220811 0)
(2.89601 -0.214448 0)
(3.02719 -0.200843 0)
(3.14861 -0.19895 0)
(3.25524 -0.203843 0)
(3.37449 -0.207166 0)
(3.4873 -0.206541 -7.09519e-17)
(3.5999 -0.20623 -1.6519e-20)
(3.69523 -0.19889 0)
(3.80494 -0.209694 0)
(3.89551 -0.197001 -6.86077e-17)
(3.98763 -0.197773 0)
(4.06801 -0.177104 6.74263e-17)
(4.13707 -0.187858 6.68087e-17)
(4.17957 -0.171069 0)
(4.23404 -0.189332 0)
(4.27313 -0.165408 -6.49009e-17)
(4.32366 -0.156168 -1.28511e-16)
(4.35168 -0.16029 0)
(4.38467 -0.172131 0)
(4.42641 -0.162996 0)
(4.4393 -0.1485 -6.16905e-17)
(4.46769 -0.135526 6.10028e-17)
(4.46675 -0.13529 0)
(4.48667 -0.141834 1.19371e-16)
(4.47051 -0.129509 5.90316e-17)
(4.4875 -0.127759 -1.1677e-16)
(4.46453 -0.109161 0)
(4.46297 -0.116448 0)
(4.4323 -0.095062 -1.12751e-16)
(4.39124 -0.0676304 -5.57193e-17)
(4.3066 -0.0382959 0)
(4.24308 -0.0363243 0)
(4.11082 -0.0184918 0)
(4.00113 0.0243915 0)
(3.78944 0.0523699 -1.05594e-16)
(3.62068 0.0962009 0)
(3.32233 0.166981 0)
(3.06396 0.191478 0)
(2.71453 0.219884 0)
(2.3999 0.203226 0)
(2.01062 0.187089 0)
(1.77333 0.153436 -1.0064e-16)
(1.36886 0.15026 0)
(1.24012 0.0827801 0)
(0.855764 0.105206 -1.99434e-16)
(0.850666 0.0233777 9.92564e-17)
(0.464221 0.112396 -9.94099e-17)
(0.659587 -0.127553 9.87903e-17)
(0.0206336 -0.0937522 0)
(0.125028 -0.26875 -4.69563e-17)
(0.247712 -0.489252 0)
(0.375528 -0.754703 -2.27969e-17)
(0.502076 -0.998446 0)
(0.618102 -1.18757 0)
(0.722721 -1.30556 2.24462e-17)
(0.803373 -1.34921 0)
(0.866319 -1.3196 0)
(0.905607 -1.23403 0)
(0.927774 -1.11147 0)
(0.930652 -0.962368 0)
(0.919107 -0.795359 -8.66185e-17)
(0.890439 -0.618276 -4.30264e-17)
(0.848157 -0.435512 4.27469e-17)
(0.791961 -0.25438 0)
(0.723899 -0.0815927 0)
(0.642642 0.0799218 0)
(0.551643 0.22874 0)
(0.450418 0.362165 0)
(0.341737 0.47978 -4.1151e-17)
(0.223801 0.581695 -4.08983e-17)
(0.0979424 0.672457 4.06491e-17)
(-0.0337112 0.748521 -4.04014e-17)
(-0.169479 0.811366 0)
(-0.308006 0.859576 0)
(-0.448068 0.895743 -3.9658e-17)
(-0.588491 0.920578 0)
(-0.729857 0.934827 0)
(-0.871785 0.943554 -3.89246e-17)
(-1.01432 0.949138 -3.86812e-17)
(-1.15476 0.94693 -3.84367e-17)
(-1.29218 0.937921 0)
(-1.42638 0.922718 0)
(-1.55605 0.901312 3.7693e-17)
(-1.68075 0.871725 0)
(-1.80151 0.836226 0)
(-1.91867 0.796788 -3.69483e-17)
(-2.03282 0.758804 3.66968e-17)
(-2.14538 0.720729 -3.64481e-17)
(-2.25147 0.682031 0)
(-2.35592 0.642678 0)
(-2.45632 0.606333 -7.1419e-17)
(-2.55393 0.572078 0)
(-2.64617 0.533986 -7.0453e-17)
(-2.73497 0.495935 -1.04962e-16)
(-2.82012 0.460106 1.04241e-16)
(-2.90003 0.423797 -6.90141e-17)
(-2.97678 0.386523 0)
(-3.05099 0.350861 0)
(-3.12483 0.322648 -6.76019e-17)
(-3.19597 0.298126 -3.35705e-17)
(-3.26077 0.272526 0)
(-3.32136 0.251456 0)
(-3.37726 0.23614 -3.28785e-17)
(-3.42772 0.219325 -6.52972e-17)
(-3.47192 0.200396 0)
(-3.51017 0.182462 6.43791e-17)
(-3.54444 0.168055 -6.39199e-17)
(-3.57349 0.154552 6.34641e-17)
(-3.59646 0.140597 0)
(-3.61358 0.127506 0)
(-3.62624 0.116385 0)
(-3.63375 0.104921 0)
(-3.6377 0.0944721 0)
(-3.63685 0.0793247 6.07741e-17)
(-3.63173 0.0628966 0)
(-3.6194 0.0445906 0)
(-3.60131 0.0238923 0)
(-3.57889 0.00213749 1.18046e-16)
(-3.55096 -0.0218184 5.8591e-17)
(-3.51806 -0.0458629 5.81575e-17)
(-3.48019 -0.0730316 -1.15457e-16)
(-3.43574 -0.104633 5.73035e-17)
(-3.38793 -0.134966 -5.68842e-17)
(-3.33373 -0.162803 0)
(-3.2747 -0.18915 5.60374e-17)
(-3.20564 -0.216181 0)
(-3.13245 -0.241665 0)
(-3.05354 -0.263856 0)
(-2.97318 -0.284902 1.08719e-16)
(-2.89058 -0.304376 -5.39463e-17)
(-2.80472 -0.323683 -5.3533e-17)
(-2.71753 -0.342792 -1.06271e-16)
(-2.6264 -0.362946 -1.58217e-16)
(-2.53419 -0.379034 -5.23438e-17)
(-2.43722 -0.392194 0)
(-2.34045 -0.403787 -1.03071e-16)
(-2.24219 -0.411874 0)
(-2.14392 -0.418104 -1.52205e-16)
(-2.04498 -0.428038 0)
(-1.94712 -0.434458 -1.49831e-16)
(-1.84321 -0.440773 0)
(-1.73882 -0.441483 0)
(-1.62972 -0.443089 -4.87469e-17)
(-1.5221 -0.439981 0)
(-1.41114 -0.4397 4.79728e-17)
(-1.30496 -0.435152 9.51573e-17)
(-1.19085 -0.436865 4.72042e-17)
(-1.08076 -0.43853 9.36506e-17)
(-0.962131 -0.43897 -9.28936e-17)