/*--------------------------------*- C++ -*----------------------------------*\
| =========                 |                                                 |
| \\      /  F ield         | OpenFOAM: The Open Source CFD Toolbox           |
|  \\    /   O peration     | Version:  dev                                   |
|   \\  /    A nd           | Web:      http://www.openfoam.org               |
|    \\/     M anipulation  |                                                 |
\*---------------------------------------------------------------------------*/
FoamFile
{
    version     2.0;
    format      ascii;
    class       volSymmTensorField;
    object      UPrime2Mean;
    location    "9.149";
}
// * * * * * * * * * * * * * * * * * * * * * * * * * * * * * * * * * * * * * //

dimensions      [0 2 -2 0 0 0 0];

internalField   nonuniform List<symmTensor> 
12225
(
(0.329423 0.0192651 0 0.0692419 0 0)
(2.98791 0.079675 0 0.078162 0 0)
(7.88497 0.11227 0 0.0768659 0 0)
(14.5429 0.148163 0 0.0755423 0 0)
(22.7161 0.132914 0 0.0764895 0 0)
(32.0855 0.200988 0 0.0746456 0 0)
(42.4038 0.0958546 0 0.0765879 0 0)
(53.5535 0.200241 0 0.0738265 0 0)
(65.6537 -0.0285423 0 0.0775896 0 0)
(78.2575 0.125469 0 0.0735972 0 0)
(93.011 -0.306319 0 0.0812921 0 0)
(107.359 -0.116007 0 0.0769706 0 0)
(127.979 -0.672246 0 0.0862972 0 0)
(145.685 -1.27716 0 0.134698 0 0)
(186.027 -1.41119 0 0.11645 0 0)
(198.604 -0.390796 0 2.39464 0 0)
(272.398 -33.5484 0 5.81023 0 0)
(576.007 -52.9628 0 18.8343 0 0)
(0.377615 0.0567892 0 0.688727 0 0)
(3.15796 0.252182 0 0.732004 0 0)
(8.41574 0.362036 0 0.713873 0 0)
(15.4825 0.485259 0 0.706371 0 0)
(24.2114 0.452815 0 0.703242 0 0)
(34.4763 0.632622 0 0.683076 0 0)
(45.5499 0.295877 0 0.691878 0 0)
(58.5127 0.60877 0 0.658557 0 0)
(71.51 -0.135316 0 0.682423 0 0)
(87.1937 0.282297 0 0.645766 0 0)
(102.834 -1.06525 0 0.711093 0 0)
(121.488 -0.766395 0 0.655322 0 0)
(142.922 -2.54289 0 1.06891 0 0)
(166.393 -4.49109 0 1.04677 0 0)
(199.869 -0.925583 0 3.10381 0 0)
(274.51 -9.97516 0 6.60942 0 0)
(281.138 -20.8449 0 8.73881 0 0)
(800.198 -185.25 0 64.7233 0 0)
(0.50518 0.0583513 0 2.13982 0 0)
(3.06569 0.424528 0 2.20171 0 0)
(8.47054 0.570408 0 2.15067 0 0)
(14.8611 0.851699 0 2.14215 0 0)
(24.289 0.864293 0 2.11907 0 0)
(33.1691 1.05282 0 2.08188 0 0)
(45.295 0.756005 0 2.07765 0 0)
(56.2328 0.885998 0 2.00688 0 0)
(69.722 0.171984 0 2.05106 0 0)
(83.4933 0.0163951 0 1.95873 0 0)
(98.2372 -1.1237 0 2.12199 0 0)
(115.726 -2.44929 0 2.09407 0 0)
(138.693 -3.59691 0 2.62212 0 0)
(154.958 -7.20059 0 2.8315 0 0)
(211.127 -13.014 0 6.12466 0 0)
(223.519 -7.88574 0 6.37923 0 0)
(353.232 -62.2885 0 31.0899 0 0)
(534.821 -192.615 0 98.2908 0 0)
(1.02996 0.0923419 0 4.66883 0 0)
(3.55126 0.61936 0 4.76536 0 0)
(9.07377 0.815686 0 4.64121 0 0)
(15.0748 1.14971 0 4.60047 0 0)
(24.6501 1.31262 0 4.55622 0 0)
(33.0022 1.34954 0 4.48191 0 0)
(45.03 1.26098 0 4.44696 0 0)
(55.1987 0.972979 0 4.34847 0 0)
(68.6378 0.47528 0 4.38028 0 0)
(80.7586 -0.28351 0 4.25669 0 0)
(96.0872 -1.33192 0 4.50614 0 0)
(110.576 -3.34347 0 4.37136 0 0)
(131.544 -4.79542 0 5.30154 0 0)
(152.343 -10.9768 0 5.60841 0 0)
(187.957 -11.4305 0 9.28868 0 0)
(238.565 -28.8749 0 16.8325 0 0)
(291.659 -58.958 0 32.6879 0 0)
(414.993 -178.363 0 107.844 0 0)
(1.86401 0.365083 0 8.51976 0 0)
(5.0116 0.720277 0 8.72124 0 0)
(9.44139 1.13987 0 8.47012 0 0)
(16.2508 1.29444 0 8.36705 0 0)
(24.6632 1.70047 0 8.27746 0 0)
(33.9655 1.50207 0 8.14242 0 0)
(44.8459 1.59721 0 8.0418 0 0)
(55.5537 0.992241 0 7.9098 0 0)
(68.4537 0.599322 0 7.85684 0 0)
(80.1662 -0.595224 0 7.75915 0 0)
(95.4244 -1.78089 0 7.96098 0 0)
(108.617 -4.23041 0 7.90854 0 0)
(128.167 -6.88368 0 9.02596 0 0)
(145.303 -12.2928 0 9.26833 0 0)
(174.056 -19.2078 0 14.5915 0 0)
(218.019 -25.9677 0 17.2167 0 0)
(233.786 -55.6063 0 46.2716 0 0)
(326.813 -171.799 0 138.687 0 0)
(2.56349 0.750721 0 14.0351 0 0)
(6.329 0.807223 0 14.3869 0 0)
(9.30633 1.53984 0 13.9572 0 0)
(17.1068 1.59427 0 13.7625 0 0)
(24.1556 2.12027 0 13.5878 0 0)
(34.2862 1.93608 0 13.3559 0 0)
(44.0021 1.99036 0 13.1509 0 0)
(55.2031 1.41426 0 12.9102 0 0)
(67.3682 0.893092 0 12.7738 0 0)
(78.9548 -0.388061 0 12.573 0 0)
(94.4823 -1.74077 0 12.7738 0 0)
(105.889 -4.31555 0 12.6826 0 0)
(128.19 -7.27056 0 13.9857 0 0)
(138.013 -13.1616 0 14.6663 0 0)
(171.071 -21.843 0 21.2517 0 0)
(191.594 -33.0523 0 24.6072 0 0)
(211.154 -55.9293 0 51.5851 0 0)
(265.837 -145.722 0 130.67 0 0)
(2.24678 0.721991 0 21.525 0 0)
(5.54849 0.941334 0 22.141 0 0)
(9.20675 1.76356 0 21.3669 0 0)
(16.3511 2.07715 0 21.1792 0 0)
(23.989 2.44932 0 20.7807 0 0)
(33.3857 2.54201 0 20.5475 0 0)
(43.6399 2.27305 0 20.0795 0 0)
(54.084 1.92671 0 19.8496 0 0)
(66.5289 0.894805 0 19.432 0 0)
(77.4106 -0.220838 0 19.2792 0 0)
(92.5777 -2.37516 0 19.2198 0 0)
(103.562 -4.82676 0 19.2626 0 0)
(123.721 -8.98613 0 20.4732 0 0)
(134.004 -14.2666 0 21.4519 0 0)
(161.643 -24.4114 0 28.5187 0 0)
(169.484 -32.4198 0 32.0544 0 0)
(203.488 -59.029 0 56.8825 0 0)
(190.386 -108.835 0 114.184 0 0)
(1.42621 0.59895 0 29.7442 0 0)
(4.32574 1.13481 0 30.6295 0 0)
(8.58929 1.9238 0 29.4825 0 0)
(15.2617 2.47217 0 29.3113 0 0)
(23.2222 2.77656 0 28.6662 0 0)
(32.2865 2.96226 0 28.4053 0 0)
(42.4468 2.59659 0 27.6538 0 0)
(52.8233 2.18908 0 27.3734 0 0)
(64.4692 1.00451 0 26.6499 0 0)
(75.6623 -0.366928 0 26.4849 0 0)
(88.7021 -2.75644 0 26.1019 0 0)
(100.492 -5.74091 0 26.3268 0 0)
(115.619 -10.3284 0 27.0838 0 0)
(128.154 -15.808 0 28.5992 0 0)
(144.753 -26.5026 0 33.916 0 0)
(152.117 -33.4715 0 37.4804 0 0)
(180.447 -54.9187 0 53.1997 0 0)
(139.671 -71.3408 0 83.7151 0 0)
(1.00862 0.521469 0 38.5121 0 0)
(3.78116 1.28787 0 39.7062 0 0)
(8.18543 2.03547 0 38.1692 0 0)
(14.7368 2.77913 0 38.0281 0 0)
(22.6671 3.0047 0 37.1184 0 0)
(31.6056 3.31426 0 36.8434 0 0)
(41.5301 2.80265 0 35.7927 0 0)
(51.8057 2.47036 0 35.4743 0 0)
(62.8679 1.03448 0 34.4659 0 0)
(73.8873 -0.286078 0 34.2661 0 0)
(85.7113 -3.05216 0 33.6357 0 0)
(97.0744 -5.91093 0 33.8956 0 0)
(109.408 -10.9578 0 34.4055 0 0)
(121.287 -16.0499 0 36.1252 0 0)
(131.301 -25.576 0 40.0103 0 0)
(138.224 -33.2218 0 44.7398 0 0)
(150.081 -47.3414 0 52.472 0 0)
(123.272 -58.7723 0 73.1344 0 0)
(0.612615 0.484579 0 49.6947 0 0)
(3.23775 1.44574 0 51.2824 0 0)
(7.74581 2.186 0 49.1866 0 0)
(14.206 3.03498 0 49.0992 0 0)
(22.0037 3.27186 0 47.8102 0 0)
(30.8654 3.57697 0 47.5309 0 0)
(40.4943 3.06183 0 46.07 0 0)
(50.6333 2.63254 0 45.7015 0 0)
(61.1618 1.15648 0 44.2825 0 0)
(71.8341 -0.2999 0 44.0391 0 0)
(82.7202 -3.15047 0 42.9954 0 0)
(93.267 -6.04856 0 43.3147 0 0)
(103.912 -11.1055 0 43.316 0 0)
(113.779 -15.8585 0 45.1728 0 0)
(121.392 -24.521 0 47.6779 0 0)
(125.832 -30.5864 0 51.9481 0 0)
(129.169 -40.7363 0 56.4713 0 0)
(116.065 -48.4089 0 69.0374 0 0)
(0.434351 0.516129 0 63.8841 0 0)
(2.98039 1.62698 0 65.9385 0 0)
(7.47298 2.38264 0 63.2476 0 0)
(13.8518 3.30887 0 63.1356 0 0)
(21.501 3.56747 0 61.5022 0 0)
(30.2023 3.85618 0 61.0878 0 0)
(39.5645 3.35212 0 59.2803 0 0)
(49.4063 2.81303 0 58.6856 0 0)
(59.4796 1.36244 0 56.9654 0 0)
(69.5859 -0.276194 0 56.4478 0 0)
(79.6847 -2.99252 0 55.1459 0 0)
(89.2225 -6.09409 0 55.2021 0 0)
(98.5429 -10.5676 0 54.8569 0 0)
(106.422 -15.4317 0 56.4049 0 0)
(112.589 -22.1488 0 57.8501 0 0)
(115.123 -28.0653 0 61.58 0 0)
(116.069 -35.2135 0 64.5469 0 0)
(109.615 -40.8138 0 71.4472 0 0)
(0.356486 0.540393 0 81.3713 0 0)
(2.83261 1.74416 0 84.0557 0 0)
(7.26456 2.55358 0 80.589 0 0)
(13.5212 3.49932 0 80.4797 0 0)
(20.9968 3.80601 0 78.3937 0 0)
(29.478 4.03274 0 77.8407 0 0)
(38.5378 3.55535 0 75.5521 0 0)
(48.0099 2.9126 0 74.7276 0 0)
(57.5656 1.47277 0 72.5362 0 0)
(67.0608 -0.232717 0 71.7495 0 0)
(76.2758 -2.88394 0 69.9947 0 0)
(84.8636 -5.87033 0 69.736 0 0)
(92.7717 -9.97616 0 68.9013 0 0)
(99.2022 -14.3058 0 69.8556 0 0)
(103.918 -19.754 0 70.499 0 0)
(105.862 -24.668 0 73.004 0 0)
(106.018 -29.8346 0 74.9469 0 0)
(101.771 -33.32 0 78.6047 0 0)
(0.329382 0.568799 0 102.442 0 0)
(2.73708 1.80572 0 105.65 0 0)
(7.07132 2.68131 0 101.626 0 0)
(13.1597 3.5807 0 101.157 0 0)
(20.4399 3.92978 0 98.8929 0 0)
(28.6258 4.04988 0 97.8134 0 0)
(37.3609 3.60906 0 95.2994 0 0)
(46.363 2.82619 0 93.8503 0 0)
(55.3932 1.46534 0 91.4145 0 0)
(64.1756 -0.352552 0 89.9638 0 0)
(72.5561 -2.77155 0 87.9378 0 0)
(80.1473 -5.70354 0 86.9641 0 0)
(86.8699 -9.21479 0 85.753 0 0)
(92.1317 -13.1047 0 85.7608 0 0)
(95.8344 -17.3239 0 85.7115 0 0)
(97.4194 -21.3914 0 86.854 0 0)
(97.5221 -25.2367 0 87.8818 0 0)
(94.7175 -27.6925 0 89.4877 0 0)
(0.31376 0.572994 0 126.429 0 0)
(2.64168 1.77279 0 130.357 0 0)
(6.85038 2.66549 0 125.648 0 0)
(12.7353 3.46022 0 124.838 0 0)
(19.7733 3.78727 0 122.308 0 0)
(27.6252 3.80055 0 120.732 0 0)
(35.9682 3.32629 0 117.849 0 0)
(44.4792 2.47867 0 115.816 0 0)
(52.9175 1.12307 0 112.956 0 0)
(61.0125 -0.64095 0 110.866 0 0)
(68.5627 -2.90977 0 108.375 0 0)
(75.2873 -5.54248 0 106.649 0 0)
(81.0263 -8.59858 0 104.882 0 0)
(85.4763 -11.8228 0 103.878 0 0)
(88.5225 -15.1865 0 103.047 0 0)
(89.9605 -18.3548 0 102.873 0 0)
(90.263 -21.2744 0 102.887 0 0)
(88.2999 -22.9219 0 103.04 0 0)
(0.299366 0.524465 0 151.837 0 0)
(2.53369 1.58039 0 156.337 0 0)
(6.5861 2.37527 0 151.209 0 0)
(12.2372 2.98473 0 149.77 0 0)
(18.9798 3.2076 0 147.211 0 0)
(26.4603 3.06504 0 144.899 0 0)
(34.3622 2.52406 0 141.811 0 0)
(42.353 1.59146 0 139.005 0 0)
(50.1913 0.261569 0 135.806 0 0)
(57.6119 -1.44384 0 132.93 0 0)
(64.4261 -3.50619 0 129.979 0 0)
(70.4061 -5.84441 0 127.406 0 0)
(75.4212 -8.42193 0 125.004 0 0)
(79.3088 -11.0746 0 123.002 0 0)
(82.0077 -13.7132 0 121.289 0 0)
(83.426 -16.1785 0 119.95 0 0)
(84.0086 -18.3775 0 118.861 0 0)
(82.8016 -19.4242 0 117.751 0 0)
(0.284074 0.393762 0 175.052 0 0)
(2.41526 1.14421 0 180.25 0 0)
(6.28578 1.66842 0 174.643 0 0)
(11.6753 2.00004 0 172.761 0 0)
(18.084 1.99667 0 170.08 0 0)
(25.1659 1.65936 0 167.229 0 0)
(32.5998 0.978283 0 163.843 0 0)
(40.0702 -0.0311069 0 160.447 0 0)
(47.3297 -1.36591 0 156.83 0 0)
(54.145 -2.97823 0 153.316 0 0)
(60.338 -4.84698 0 149.829 0 0)
(65.7445 -6.87822 0 146.538 0 0)
(70.2596 -9.03289 0 143.442 0 0)
(73.8101 -11.1812 0 140.587 0 0)
(76.3665 -13.2455 0 137.997 0 0)
(77.8932 -15.1454 0 135.672 0 0)
(78.7754 -16.7932 0 133.56 0 0)
(78.2271 -17.3915 0 131.362 0 0)
(0.268853 0.156052 0 190.158 0 0)
(2.29437 0.390071 0 195.829 0 0)
(5.96918 0.487393 0 189.936 0 0)
(11.0795 0.408333 0 187.793 0 0)
(17.138 0.071211 0 185.047 0 0)
(23.8119 -0.537626 0 181.877 0 0)
(30.784 -1.40725 0 178.299 0 0)
(37.7586 -2.52994 0 174.546 0 0)
(44.4995 -3.88005 0 170.635 0 0)
(50.8007 -5.42044 0 166.716 0 0)
(56.5089 -7.10766 0 162.825 0 0)
(61.5026 -8.87657 0 159.046 0 0)
(65.7062 -10.6727 0 155.41 0 0)
(69.0905 -12.4181 0 151.949 0 0)
(71.6483 -14.0368 0 148.683 0 0)
(73.3683 -15.5071 0 145.64 0 0)
(74.5636 -16.7435 0 142.748 0 0)
(74.6086 -17.065 0 139.754 0 0)
(0.259203 -0.142707 0 190.131 0 0)
(2.19682 -0.534955 0 195.76 0 0)
(5.69247 -0.938922 0 189.93 0 0)
(10.5465 -1.49461 0 187.778 0 0)
(16.2893 -2.21552 0 185.075 0 0)
(22.6029 -3.1184 0 181.911 0 0)
(29.1793 -4.19238 0 178.358 0 0)
(35.7457 -5.43171 0 174.609 0 0)
(42.0794 -6.80593 0 170.684 0 0)
(48.0025 -8.28639 0 166.732 0 0)
(53.379 -9.82633 0 162.759 0 0)
(58.1206 -11.3833 0 158.873 0 0)
(62.166 -12.9042 0 155.062 0 0)
(65.5092 -14.3459 0 151.399 0 0)
(68.149 -15.6431 0 147.858 0 0)
(70.0907 -16.8027 0 144.52 0 0)
(71.5678 -17.7496 0 141.272 0 0)
(72.1024 -17.9547 0 137.943 0 0)
(0.256033 -0.396472 0 174.319 0 0)
(2.13762 -1.30668 0 179.268 0 0)
(5.50166 -2.1285 0 173.94 0 0)
(10.1658 -3.07728 0 171.947 0 0)
(15.675 -4.10606 0 169.467 0 0)
(21.7244 -5.23557 0 166.577 0 0)
(28.0168 -6.45873 0 163.326 0 0)
(34.2975 -7.77242 0 159.903 0 0)
(40.3564 -9.14818 0 156.299 0 0)
(46.0368 -10.5661 0 152.671 0 0)
(51.2135 -11.9842 0 148.987 0 0)
(55.818 -13.3761 0 145.382 0 0)
(59.7973 -14.6966 0 141.799 0 0)
(63.1551 -15.9228 0 138.348 0 0)
(65.8896 -17.0031 0 134.965 0 0)
(68.0182 -17.9527 0 131.764 0 0)
(69.71 -18.7103 0 128.61 0 0)
(70.6078 -18.8981 0 125.411 0 0)
(0.257486 -0.545482 0 148.891 0 0)
(2.10982 -1.74753 0 152.847 0 0)
(5.38718 -2.82318 0 148.313 0 0)
(9.92365 -4.00672 0 146.596 0 0)
(15.2761 -5.21057 0 144.475 0 0)
(21.1486 -6.45973 0 142.022 0 0)
(27.2532 -7.74619 0 139.258 0 0)
(33.3478 -9.07177 0 136.354 0 0)
(39.2326 -10.4091 0 133.283 0 0)
(44.7639 -11.7483 0 130.192 0 0)
(49.8263 -13.0509 0 127.036 0 0)
(54.3604 -14.304 0 123.942 0 0)
(58.3202 -15.468 0 120.848 0 0)
(61.711 -16.5341 0 117.86 0 0)
(64.532 -17.4587 0 114.912 0 0)
(66.8053 -18.2607 0 112.115 0 0)
(68.6562 -18.8896 0 109.343 0 0)
(69.8172 -19.0992 0 106.553 0 0)
(0.260338 -0.601255 0 119.999 0 0)
(2.10086 -1.88961 0 122.967 0 0)
(5.3211 -3.06759 0 119.32 0 0)
(9.77215 -4.34057 0 117.927 0 0)
(15.0197 -5.59886 0 116.221 0 0)
(20.7745 -6.86859 0 114.257 0 0)
(26.7553 -8.13947 0 112.045 0 0)
(32.7292 -9.41683 0 109.718 0 0)
(38.5036 -10.6753 0 107.255 0 0)
(43.9433 -11.9118 0 104.771 0 0)
(48.9405 -13.0925 0 102.23 0 0)
(53.4407 -14.2128 0 99.7322 0 0)
(57.4026 -15.2385 0 97.2281 0 0)
(60.831 -16.1692 0 94.8033 0 0)
(63.7261 -16.9682 0 92.4057 0 0)
(66.1128 -17.6549 0 90.1228 0 0)
(68.0858 -18.1885 0 87.8585 0 0)
(69.4456 -18.4241 0 85.584 0 0)
(0.263294 -0.59047 0 91.858 0 0)
(2.10052 -1.82984 0 93.9725 0 0)
(5.28331 -2.99645 0 91.1824 0 0)
(9.67747 -4.24676 0 90.109 0 0)
(14.8545 -5.46698 0 88.81 0 0)
(20.5306 -6.67951 0 87.3155 0 0)
(26.4297 -7.87392 0 85.6353 0 0)
(32.3247 -9.05517 0 83.8637 0 0)
(38.029 -10.2025 0 81.9884 0 0)
(43.4124 -11.3148 0 80.0917 0 0)
(48.373 -12.3649 0 78.1513 0 0)
(52.8588 -13.3513 0 76.2372 0 0)
(56.832 -14.2464 0 74.3196 0 0)
(60.2957 -15.0529 0 72.4567 0 0)
(63.2518 -15.7425 0 70.6158 0 0)
(65.7272 -16.3304 0 68.8563 0 0)
(67.7946 -16.7871 0 67.1139 0 0)
(69.3073 -17.0365 0 65.3614 0 0)
(0.266369 -0.53667 0 66.9129 0 0)
(2.10435 -1.65069 0 68.3526 0 0)
(5.26198 -2.7304 0 66.3215 0 0)
(9.61839 -3.88313 0 65.5388 0 0)
(14.7481 -5.0026 0 64.6008 0 0)
(20.3719 -6.10469 0 63.5192 0 0)
(26.2173 -7.18137 0 62.3052 0 0)
(32.0613 -8.2345 0 61.0198 0 0)
(37.7216 -9.24927 0 59.6612 0 0)
(43.0714 -10.2232 0 58.2816 0 0)
(48.0131 -11.1371 0 56.873 0 0)
(52.4957 -11.9884 0 55.4786 0 0)
(56.484 -12.7578 0 54.085 0 0)
(59.9797 -13.447 0 52.7265 0 0)
(62.9858 -14.0364 0 51.3868 0 0)
(65.5303 -14.5353 0 50.1013 0 0)
(67.6703 -14.9252 0 48.8318 0 0)
(69.3008 -15.173 0 47.5511 0 0)
(0.268209 -0.462822 0 46.2752 0 0)
(2.10876 -1.41578 0 47.2136 0 0)
(5.25013 -2.36353 0 45.8133 0 0)
(9.58155 -3.37473 0 45.2753 0 0)
(14.6796 -4.35573 0 44.6342 0 0)
(20.2688 -5.31592 0 43.8906 0 0)
(26.0796 -6.25029 0 43.0567 0 0)
(31.8912 -7.15711 0 42.1696 0 0)
(37.5247 -8.02744 0 41.2343 0 0)
(42.8553 -8.85658 0 40.2813 0 0)
(47.7878 -9.63229 0 39.3116 0 0)
(52.2724 -10.3506 0 38.3491 0 0)
(56.2751 -10.9991 0 37.3898 0 0)
(59.7969 -11.5772 0 36.452 0 0)
(62.841 -12.0727 0 35.529 0 0)
(65.4363 -12.4894 0 34.6401 0 0)
(67.6284 -12.8174 0 33.7654 0 0)
(69.3448 -13.0478 0 32.8795 0 0)
(0.269383 -0.383034 0 30.1486 0 0)
(2.11231 -1.16457 0 30.7327 0 0)
(5.24338 -1.95814 0 29.8228 0 0)
(9.55808 -2.80703 0 29.4756 0 0)
(14.6348 -3.63063 0 29.0636 0 0)
(20.2007 -4.43512 0 28.5831 0 0)
(25.9885 -5.21673 0 28.044 0 0)
(31.778 -5.97243 0 27.4685 0 0)
(37.3927 -6.69571 0 26.8626 0 0)
(42.7086 -7.38182 0 26.2443 0 0)
(47.6328 -8.02219 0 25.6165 0 0)
(52.1148 -8.61269 0 24.9922 0 0)
(56.1229 -9.14536 0 24.3713 0 0)
(59.6569 -9.61829 0 23.7628 0 0)
(62.7207 -10.0239 0 23.1648 0 0)
(65.3418 -10.3626 0 22.5873 0 0)
(67.5608 -10.6298 0 22.0204 0 0)
(69.3302 -10.8274 0 21.4449 0 0)
(0.269701 -0.304566 0 18.2059 0 0)
(2.11407 -0.919728 0 18.55 0 0)
(5.23801 -1.55399 0 17.9995 0 0)
(9.53867 -2.23684 0 17.7935 0 0)
(14.5963 -2.90095 0 17.5505 0 0)
(20.1402 -3.55092 0 17.266 0 0)
(25.9036 -4.18199 0 16.9459 0 0)
(31.6675 -4.79085 0 16.603 0 0)
(37.2565 -5.37095 0 16.2413 0 0)
(42.5471 -5.91881 0 15.8713 0 0)
(47.4487 -6.42714 0 15.4948 0 0)
(51.9097 -6.8936 0 15.1198 0 0)
(55.902 -7.31135 0 14.7464 0 0)
(59.4232 -7.6801 0 14.3797 0 0)
(62.4818 -7.99406 0 14.0193 0 0)
(65.1001 -8.25379 0 13.6704 0 0)
(67.3222 -8.45848 0 13.3285 0 0)
(69.1192 -8.60888 0 12.9818 0 0)
(0.269344 -0.228245 0 9.87896 0 0)
(2.11181 -0.691208 0 10.0624 0 0)
(5.22078 -1.17856 0 9.76532 0 0)
(9.49517 -1.70822 0 9.66297 0 0)
(14.5226 -2.22259 0 9.53859 0 0)
(20.0331 -2.72298 0 9.38942 0 0)
(25.7594 -3.20505 0 9.21878 0 0)
(31.4854 -3.66632 0 9.0346 0 0)
(37.0352 -4.10105 0 8.8389 0 0)
(42.2887 -4.50766 0 8.63795 0 0)
(47.1542 -4.88056 0 8.43235 0 0)
(51.5851 -5.21991 0 8.22727 0 0)
(55.552 -5.51991 0 8.02215 0 0)
(59.057 -5.78276 0 7.82095 0 0)
(62.1072 -6.00236 0 7.62272 0 0)
(64.7246 -6.18224 0 7.43146 0 0)
(66.9504 -6.32538 0 7.24474 0 0)
(68.7806 -6.42744 0 7.05659 0 0)
(0.2682 -0.154787 0 4.48454 0 0)
(2.08494 -0.497809 0 4.58014 0 0)
(5.15947 -0.852244 0 4.45499 0 0)
(9.3943 -1.22855 0 4.41936 0 0)
(14.3961 -1.58555 0 4.36829 0 0)
(19.881 -1.92783 0 4.30388 0 0)
(25.5808 -2.25277 0 4.22658 0 0)
(31.2807 -2.55809 0 4.14011 0 0)
(36.8075 -2.84223 0 4.0471 0 0)
(42.0403 -3.10633 0 3.9513 0 0)
(46.8891 -3.3475 0 3.85352 0 0)
(51.3106 -3.56659 0 3.75645 0 0)
(55.2717 -3.75984 0 3.65959 0 0)
(58.7826 -3.92934 0 3.56563 0 0)
(61.8393 -4.06895 0 3.47299 0 0)
(64.4755 -4.184 0 3.38555 0 0)
(66.6984 -4.27449 0 3.30033 0 0)
(68.5568 -4.34453 0 3.21615 0 0)
(0.255299 -0.0881768 0 1.42051 0 0)
(2.06896 -0.313388 0 1.48623 0 0)
(5.20795 -0.52588 0 1.44619 0 0)
(9.50128 -0.734206 0 1.43304 0 0)
(14.5566 -0.924262 0 1.41293 0 0)
(20.0928 -1.10685 0 1.38966 0 0)
(25.8488 -1.28347 0 1.36303 0 0)
(31.6079 -1.45157 0 1.33371 0 0)
(37.1963 -1.6095 0 1.30273 0 0)
(42.4881 -1.75706 0 1.27113 0 0)
(47.3965 -1.89278 0 1.23932 0 0)
(51.8705 -2.01666 0 1.20791 0 0)
(55.8815 -2.12668 0 1.17688 0 0)
(59.4321 -2.22349 0 1.14692 0 0)
(62.5223 -2.303 0 1.11766 0 0)
(65.19 -2.36921 0 1.09118 0 0)
(67.4128 -2.42182 0 1.06598 0 0)
(69.2632 -2.46129 0 1.03903 0 0)
(0.245974 -0.025323 0 0.141795 0 0)
(2.06678 -0.0978019 0 0.153574 0 0)
(5.18682 -0.165519 0 0.15079 0 0)
(9.44928 -0.230745 0 0.149621 0 0)
(14.4859 -0.293628 0 0.147318 0 0)
(20.0094 -0.353946 0 0.144591 0 0)
(25.7588 -0.412756 0 0.141593 0 0)
(31.5155 -0.469243 0 0.138462 0 0)
(37.111 -0.522579 0 0.13524 0 0)
(42.4207 -0.572575 0 0.131989 0 0)
(47.3595 -0.618928 0 0.128733 0 0)
(51.8743 -0.661607 0 0.125531 0 0)
(55.9387 -0.700042 0 0.122389 0 0)
(59.5479 -0.734088 0 0.119365 0 0)
(62.7084 -0.76301 0 0.116541 0 0)
(65.4529 -0.788253 0 0.114205 0 0)
(67.7659 -0.806466 0 0.112132 0 0)
(69.694 -0.815753 0 0.111747 0 0)
(0.0244806 0.0357522 0 0.717167 0 0)
(0.267257 0.0990595 0 0.678256 0 0)
(0.785452 0.180823 0 0.671103 0 0)
(1.53891 0.294816 0 0.661885 0 0)
(2.48592 0.423755 0 0.660281 0 0)
(3.60827 0.5685 0 0.657 0 0)
(4.88394 0.715531 -2.38456e-19 0.655017 -6.48067e-20 1.47774e-37)
(6.31001 0.866429 2.42472e-19 0.650695 6.91079e-20 1.48227e-37)
(7.87983 1.01337 0 0.644677 0 0)
(9.5914 1.16077 2.44895e-19 0.637104 6.85307e-20 1.46011e-37)
(11.4396 1.30476 0 0.628527 0 0)
(13.4184 1.44759 0 0.619442 0 0)
(15.5213 1.58465 0 0.611498 0 0)
(17.742 1.71628 -2.77366e-19 0.605041 -5.16745e-20 1.34666e-37)
(20.0744 1.83933 0 0.598841 0 0)
(22.519 1.95284 0 0.593625 0 0)
(25.076 2.05265 3.40423e-19 0.589343 3.90447e-20 1.22025e-37)
(27.7439 2.14041 0 0.584902 0 0)
(30.5179 2.21877 0 0.580246 0 0)
(33.3922 2.28998 0 0.575811 0 0)
(36.351 2.35308 -4.56124e-19 0.572486 -1.96056e-20 1.0173e-37)
(39.3846 2.40882 0 0.568733 0 0)
(42.4792 2.45528 -5.15803e-19 0.566473 -1.03288e-20 9.24765e-38)
(45.6257 2.49232 0 0.567672 0 0)
(48.8078 2.52612 0 0.568435 0 0)
(52.0114 2.54929 -6.03883e-19 0.570611 1.20114e-21 7.97274e-38)
(55.2295 2.55158 0 0.572446 0 0)
(58.4664 2.53427 6.57504e-19 0.570915 -6.92904e-21 7.21225e-38)
(61.7159 2.50337 0 0.563043 0 0)
(64.9839 2.46073 -7.0226e-19 0.552633 1.04845e-20 6.53606e-38)
(68.2688 2.40894 0 0.539063 0 0)
(71.5581 2.35048 0 0.523237 0 0)
(74.8441 2.2852 0 0.509203 0 0)
(78.1282 2.20936 0 0.497826 0 0)
(81.4044 2.12235 0 0.486277 0 0)
(84.6692 2.02708 7.79405e-19 0.475379 -1.40022e-20 4.59691e-38)
(87.9215 1.92338 0 0.46377 0 0)
(91.1622 1.8111 -1.56206e-18 0.447766 2.71543e-20 1.61301e-37)
(94.3898 1.69184 0 0.432213 0 0)
(97.5995 1.56445 1.55218e-18 0.417616 -2.61677e-20 1.39921e-37)
(100.784 1.43145 0 0.4025 0 0)
(103.944 1.28922 0 0.390853 0 0)
(107.069 1.13865 -1.51432e-18 0.378301 2.15815e-20 1.11247e-37)
(110.142 0.985757 0 0.36549 0 0)
(113.148 0.830755 -1.4759e-18 0.354652 1.82879e-20 9.43182e-38)
(116.073 0.672549 1.45349e-18 0.345701 -1.65531e-20 8.66261e-38)
(118.9 0.508773 0 0.339537 0 0)
(121.622 0.338941 1.40275e-18 0.334771 -1.25247e-20 7.34108e-38)
(124.221 0.163659 1.37455e-18 0.330856 -1.06611e-20 6.79486e-38)
(126.699 -0.0142527 0 0.32758 0 0)
(129.041 -0.193647 0 0.325447 0 0)
(131.227 -0.377252 0 0.322773 0 0)
(133.237 -0.565814 0 0.321575 0 0)
(135.05 -0.75664 0 0.32363 0 0)
(136.641 -0.946421 -1.17427e-18 0.327853 -4.3921e-21 5.01558e-38)
(137.979 -1.1376 0 0.331972 0 0)
(139.053 -1.33349 1.07961e-18 0.335687 1.14695e-20 4.75064e-38)
(139.867 -1.53602 0 0.340955 0 0)
(140.415 -1.74487 0 0.347769 0 0)
(140.683 -1.95099 -9.1166e-19 0.357045 -2.24431e-20 4.75151e-38)
(140.665 -2.15529 0 0.368971 0 0)
(140.345 -2.36039 7.80293e-19 0.380972 3.12387e-20 4.96776e-38)
(139.729 -2.56435 0 0.391261 0 0)
(138.813 -2.7683 0 0.404046 0 0)
(137.607 -2.97144 0 0.418285 0 0)
(136.123 -3.1675 -4.82207e-19 0.432841 -4.7564e-20 6.03347e-38)
(134.364 -3.35648 0 0.44743 0 0)
(132.344 -3.53909 0 0.460507 0 0)
(130.073 -3.71489 -2.26429e-19 0.474428 -6.12204e-20 7.30222e-38)
(127.572 -3.88904 0 0.49031 0 0)
(124.875 -4.055 -5.06555e-20 0.505605 -6.99151e-20 8.30053e-38)
(121.996 -4.20779 0 0.520494 0 0)
(118.953 -4.34898 0 0.536652 0 0)
(115.777 -4.48029 0 0.55394 0 0)
(112.492 -4.60158 -3.04982e-19 0.571907 8.31618e-20 1.04543e-37)
(109.116 -4.7107 0 0.589833 0 0)
(105.666 -4.80445 0 0.607583 0 0)
(102.15 -4.88325 -5.64108e-19 0.625564 9.02934e-20 1.20156e-37)
(98.5844 -4.95139 -6.45864e-19 0.644267 9.184e-20 1.2526e-37)
(94.9947 -5.00843 0 0.663011 0 0)
(91.4117 -5.05347 -7.98879e-19 0.682683 9.46244e-20 1.34675e-37)
(87.8562 -5.08724 0 0.70383 0 0)
(84.3484 -5.10916 -1.87729e-18 0.725369 1.92572e-19 5.74353e-37)
(80.9029 -5.11809 0 0.748002 0 0)
(77.5374 -5.11252 -2.12208e-18 0.770577 1.9371e-19 6.07503e-37)
(74.2703 -5.09059 0 0.793526 0 0)
(71.116 -5.05565 2.32459e-18 0.819496 -1.93863e-19 6.36472e-37)
(68.0921 -5.00749 0 0.844517 0 0)
(65.2128 -4.94073 0 0.866827 0 0)
(62.4781 -4.85517 0 0.889529 0 0)
(59.8922 -4.75295 -2.58541e-18 0.914538 1.86294e-19 6.79838e-37)
(57.4611 -4.63643 0 0.939142 0 0)
(55.1939 -4.5039 2.6464e-18 0.963403 -1.80026e-19 6.94568e-37)
(53.0934 -4.35511 0 0.987156 0 0)
(51.1486 -4.18411 -2.65852e-18 1.01073 1.73685e-19 7.03435e-37)
(49.3543 -3.99648 -2.64945e-18 1.03204 1.70455e-19 7.06962e-37)
(47.6986 -3.79624 -2.63058e-18 1.05329 1.66294e-19 7.09654e-37)
(46.1771 -3.58695 0 1.07569 0 0)
(44.7633 -3.3675 0 1.0988 0 0)
(43.4674 -3.13906 0 1.11837 0 0)
(42.2706 -2.90164 0 1.13818 0 0)
(41.1682 -2.66237 0 1.15806 0 0)
(40.1417 -2.42265 0 1.17707 0 0)
(39.1878 -2.18001 0 1.19219 0 0)
(38.2608 -1.93668 0 1.20818 0 0)
(37.3584 -1.70008 2.0264e-18 1.22351 -1.31622e-19 7.07504e-37)
(36.448 -1.47182 1.91241e-18 1.2407 -1.24291e-19 7.0688e-37)
(35.5536 -1.25277 0 1.25238 0 0)
(34.6408 -1.04264 0 1.26541 0 0)
(33.7196 -0.856003 0 1.27943 0 0)
(32.7376 -0.67965 1.35467e-18 1.29206 -1.04653e-19 6.91097e-37)
(31.7947 -0.529325 0 1.29934 0 0)
(30.7834 -0.387024 0 1.30917 0 0)
(29.8266 -0.284143 0 1.31927 0 0)
(28.898 -0.200585 0 1.33252 0 0)
(28.0674 -0.150274 -4.38876e-19 1.34098 7.57635e-20 6.66216e-37)
(27.3669 -0.124189 0 1.35035 0 0)
(26.8293 -0.133509 0 1.3638 0 0)
(26.5394 -0.176401 -2.23347e-19 1.37173 -6.55546e-20 6.42815e-37)
(26.496 -0.245597 4.50437e-19 1.38447 6.11664e-20 6.30182e-37)
(26.7502 -0.355237 0 1.40139 0 0)
(27.3551 -0.51193 9.13184e-19 1.41882 6.0084e-20 6.05353e-37)
(28.3771 -0.709014 0 1.4379 0 0)
(29.8764 -0.960983 -1.35485e-18 1.45557 -6.45256e-20 5.75659e-37)
(31.8736 -1.24743 0 1.47837 0 0)
(34.4437 -1.58333 0 1.50544 0 0)
(37.4828 -1.96112 0 1.53812 0 0)
(41.0997 -2.38935 0 1.5724 0 0)
(45.1476 -2.84364 0 1.61059 0 0)
(49.6328 -3.34551 4.89983e-18 1.65283 2.04775e-19 1.97226e-36)
(54.4961 -3.89136 5.15494e-18 1.69906 2.30579e-19 1.9376e-36)
(59.7571 -4.47325 0 1.74756 0 0)
(65.2209 -5.07556 0 1.80323 0 0)
(70.8398 -5.70242 0 1.85848 0 0)
(76.4658 -6.31617 -5.6953e-18 1.91925 -3.52393e-19 1.91766e-36)
(81.8762 -6.93105 0 1.99033 0 0)
(87.0322 -7.5527 0 2.06265 0 0)
(91.8754 -8.16728 0 2.139 0 0)
(96.3233 -8.75797 -5.33596e-18 2.21745 -5.33624e-19 2.07264e-36)
(100.34 -9.3236 5.10231e-18 2.30238 5.83404e-19 2.13502e-36)
(103.749 -9.84672 0 2.39182 0 0)
(106.654 -10.3564 0 2.48443 0 0)
(109.027 -10.8105 4.08147e-18 2.57887 7.3559e-19 2.36683e-36)
(110.862 -11.2289 3.65177e-18 2.6722 7.84526e-19 2.45209e-36)
(112.015 -11.5728 0 2.77245 0 0)
(112.581 -11.8869 0 2.87238 0 0)
(112.455 -12.1288 -2.05332e-18 2.97633 -9.46e-19 2.71992e-36)
(111.77 -12.3526 1.42365e-18 3.07129 9.89581e-19 2.79866e-36)
(110.57 -12.5062 0 3.16806 0 0)
(108.656 -12.6055 0 3.26862 0 0)
(106.147 -12.6383 -5.2109e-19 3.35949 1.11736e-18 3.06936e-36)
(103.007 -12.6172 0 3.44993 0 0)
(99.5206 -12.5582 0 3.53342 0 0)
(95.5271 -12.4084 -2.54751e-18 3.60585 1.20621e-18 3.30223e-36)
(91.2245 -12.1866 0 3.67776 0 0)
(86.5991 -11.8538 -3.8305e-18 3.73921 1.2572e-18 3.44529e-36)
(81.7122 -11.4359 0 3.79495 0 0)
(76.6049 -10.9002 0 3.8341 0 0)
(71.6627 -10.2663 0 3.8581 0 0)
(66.7834 -9.46821 5.86906e-18 3.87681 -1.27781e-18 3.68249e-36)
(62.1299 -8.5505 0 3.88026 0 0)
(57.9182 -7.48082 0 3.86826 0 0)
(54.4678 -6.29142 0 3.84039 0 0)
(51.6194 -4.91297 0 3.79835 0 0)
(49.5285 -3.45417 0 3.74783 0 0)
(48.8119 -1.9007 0 3.67569 0 0)
(49.6537 -0.277478 6.0203e-18 3.58588 -1.10424e-18 3.72728e-36)
(51.7219 1.43534 5.60472e-18 3.48761 -1.04982e-18 3.70957e-36)
(55.4311 3.1273 0 3.37612 0 0)
(60.6909 4.75367 0 3.2582 0 0)
(67.5032 6.33334 0 3.12864 0 0)
(75.4459 7.80639 -3.05044e-18 2.99896 7.94975e-19 3.38386e-36)
(84.5764 9.10797 0 2.87082 0 0)
(94.134 10.2961 2.94459e-18 2.73604 -1.35064e-18 1.23627e-35)
(104.013 11.2531 -1.30775e-18 2.60558 1.21792e-18 1.16628e-35)
(113.643 12.042 3.201e-19 2.47401 1.105e-18 1.10191e-35)
(123.289 12.6916 -2.02512e-18 2.34912 -1.0142e-18 1.03349e-35)
(131.403 13.232 3.67863e-18 2.23006 9.22818e-19 9.76003e-36)
(139.273 13.708 -5.28436e-18 2.12273 -9.03326e-19 8.99439e-36)
(143.026 14.4 0 2.0668 0 0)
(0.0183087 0.174185 0 6.09496 0 0)
(0.202705 0.387752 0 6.03311 0 0)
(0.629479 0.609514 1.31761e-19 5.8605 1.75826e-19 6.761e-37)
(1.32707 0.853813 0 5.7398 0 0)
(2.26932 1.13286 -1.92596e-19 5.67996 -3.5323e-19 9.18776e-37)
(3.4456 1.43747 -1.84432e-19 5.65265 -4.40934e-19 9.71829e-37)
(4.8347 1.76206 -8.10428e-20 5.63705 -2.51128e-19 2.48796e-37)
(6.42229 2.10257 -6.93981e-20 5.61888 -2.70036e-19 2.61054e-37)
(8.20055 2.45165 0 5.5905 0 0)
(10.1676 2.80481 -4.26881e-20 5.54792 -2.68924e-19 2.59234e-37)
(12.3247 3.15322 0 5.49609 0 0)
(14.6702 3.49454 0 5.43655 0 0)
(17.1958 3.8236 9.56205e-20 5.3684 4.23742e-19 9.50544e-37)
(19.9023 4.13997 6.98982e-20 5.29667 1.86969e-19 2.33997e-37)
(22.7791 4.43392 -1.86052e-19 5.22167 -3.26529e-19 8.93157e-37)
(25.8203 4.70546 -2.52102e-19 5.14365 -2.81617e-19 8.65474e-37)
(29.0145 4.95611 -1.71275e-19 5.05944 -1.18707e-19 2.12643e-37)
(32.3555 5.18737 0 4.96882 0 0)
(35.8314 5.39755 0 4.87324 0 0)
(39.4336 5.59119 0 4.77064 0 0)
(43.1389 5.76759 -3.86245e-19 4.66578 -3.70102e-20 1.80296e-37)
(46.9383 5.92403 0 4.56128 0 0)
(50.809 6.05217 1.60732e-18 4.45475 -1.55468e-20 1.5509e-36)
(54.7385 6.15569 0 4.35178 0 0)
(58.7096 6.23619 0 4.24657 0 0)
(62.705 6.29384 7.74155e-19 4.14229 -5.75208e-20 1.56391e-37)
(66.6971 6.32537 0 4.03623 0 0)
(70.6668 6.34003 -9.32277e-19 3.93551 8.16394e-20 1.45889e-37)
(74.5807 6.33143 -1.99217e-18 3.83544 1.81243e-19 5.56679e-37)
(78.4288 6.29438 1.07634e-18 3.7326 -9.85965e-20 1.3652e-37)
(82.207 6.22585 0 3.62471 0 0)
(85.9153 6.12941 0 3.51933 0 0)
(89.5403 6.00746 0 3.41596 0 0)
(93.0857 5.86113 -2.57519e-18 3.30784 2.22577e-19 4.71042e-37)
(96.5434 5.68494 -2.65349e-18 3.20044 2.20143e-19 4.54909e-37)
(99.9268 5.47926 -1.37296e-18 3.09953 1.07526e-19 1.10703e-37)
(103.244 5.24239 0 3.0077 0 0)
(106.489 4.96945 2.83684e-18 2.91968 -2.02974e-19 4.12645e-37)
(109.669 4.65835 0 2.8346 0 0)
(112.779 4.31845 -2.87374e-18 2.75319 1.88453e-19 3.81428e-37)
(115.826 3.95081 0 2.67296 0 0)
(118.807 3.56326 0 2.60089 0 0)
(121.727 3.15964 2.8271e-18 2.53005 -1.54167e-19 3.31586e-37)
(124.572 2.73711 0 2.46479 0 0)
(127.324 2.289 8.15908e-18 2.40681 -3.93789e-19 2.6837e-36)
(129.98 1.81099 -2.68863e-18 2.36139 1.19315e-19 2.83619e-37)
(132.544 1.30744 0 2.33405 0 0)
(135.032 0.778476 -2.54915e-18 2.31805 9.10397e-20 2.51679e-37)
(137.429 0.216784 -2.46864e-18 2.31161 7.67747e-20 2.3611e-37)
(139.735 -0.37087 0 2.31386 0 0)
(141.925 -0.969774 0 2.32734 0 0)
(143.981 -1.5663 0 2.34238 0 0)
(145.886 -2.1512 0 2.35584 0 0)
(147.604 -2.72844 0 2.37935 0 0)
(149.124 -3.30675 1.88379e-18 2.41209 1.44618e-20 1.71937e-37)
(150.421 -3.89369 3.45208e-18 2.45538 7.10617e-20 6.55261e-37)
(151.478 -4.48411 -1.6449e-18 2.50651 -5.58877e-20 1.59951e-37)
(152.304 -5.09277 0 2.56272 0 0)
(152.873 -5.70301 2.68789e-18 2.62604 1.90272e-19 6.00872e-37)
(153.157 -6.29338 -1.17028e-18 2.69434 -1.13254e-19 1.46718e-37)
(153.182 -6.87926 0 2.77109 0 0)
(152.901 -7.45991 -9.78148e-19 2.86089 -1.4856e-19 1.49357e-37)
(152.324 -8.01865 0 2.95414 0 0)
(151.447 -8.56812 0 3.05519 0 0)
(150.265 -9.10019 -1.04783e-18 3.16241 -3.96578e-19 6.25055e-37)
(148.769 -9.60357 4.22754e-19 3.27454 2.15027e-19 1.63625e-37)
(146.991 -10.0979 -4.89101e-19 3.39423 -4.62118e-19 6.67924e-37)
(144.927 -10.5709 2.12255e-19 3.51911 4.89159e-19 6.91703e-37)
(142.598 -11.0148 1.00184e-20 3.6436 2.54473e-19 1.82579e-37)