/*--------------------------------*- C++ -*----------------------------------*\
| =========                 |                                                 |
| \\      /  F ield         | OpenFOAM: The Open Source CFD Toolbox           |
|  \\    /   O peration     | Version:  dev                                   |
|   \\  /    A nd           | Web:      http://www.openfoam.org               |
|    \\/     M anipulation  |                                                 |
\*---------------------------------------------------------------------------*/
FoamFile
{
    version     2.0;
    format      ascii;
    class       volScalarField;
    object      k;
    location    "9.154";
}
// * * * * * * * * * * * * * * * * * * * * * * * * * * * * * * * * * * * * * //

dimensions      [0 2 -2 0 0 0 0];

internalField   nonuniform List<scalar> 
12225
(
8.733
10.1324
6.95654
7.37468
5.80356
8.80206
7.4324
12.1464
10.0163
16.7643
13.0828
23.9537
18.6794
34.8561
34.5812
42.4403
71.0402
99.1954
1.63418
5.48415
4.92032
5.83684
4.49576
5.49874
4.52374
5.74472
5.13914
6.33239
5.80314
6.44589
6.08938
6.31499
6.4237
6.44763
7.03253
9.05275
0.115464
1.712
2.04705
3.36576
2.94005
3.61455
3.19415
3.40346
3.26357
3.20337
3.24203
2.80843
2.76726
2.27612
2.28552
2.0565
2.4398
3.97862
0.0106858
0.329663
0.499156
0.946064
1.12912
1.25604
1.65796
1.51056
1.80309
1.54397
1.66025
1.38232
1.33849
1.10142
1.10368
1.07607
1.43839
3.66173
0.0016016
0.0633466
0.115167
0.215068
0.414223
0.484247
0.677446
0.661182
0.779288
0.692244
0.74822
0.650815
0.668919
0.568416
0.600989
0.6541
0.993426
2.38804
0.00256928
0.0467443
0.0554734
0.0917932
0.140535
0.177543
0.250335
0.250937
0.299433
0.268584
0.309524
0.279043
0.313746
0.270759
0.294629
0.313953
0.771703
1.09193
0.00149162
0.00634108
0.0155266
0.0215723
0.0413663
0.049865
0.0778531
0.0801225
0.104913
0.0977802
0.122867
0.114751
0.138168
0.122364
0.143175
0.150968
0.265731
0.732883
0.00165021
0.00318194
0.00674566
0.00992027
0.0184907
0.0234959
0.036106
0.0396093
0.0512312
0.0516135
0.0638262
0.0639985
0.0754796
0.0727475
0.0852299
0.0907794
0.156113
0.216747
0.001545
0.0038434
0.00707627
0.0104966
0.0164769
0.0214662
0.0302973
0.0341061
0.0413891
0.0437531
0.0502924
0.0531646
0.0600867
0.0613335
0.0686356
0.0730291
0.092549
0.122678
0.0012867
0.00760798
0.0109895
0.0189514
0.0222251
0.0294942
0.0334333
0.0388926
0.0430884
0.0447929
0.0499122
0.0525691
0.0590567
0.0603004
0.0651599
0.0661433
0.0714195
0.0788777
0.00206058
0.0135011
0.0198886
0.0362788
0.0406639
0.0498227
0.0513304
0.0547186
0.0554567
0.0569004
0.0586722
0.0614943
0.063702
0.0658908
0.065923
0.0663229
0.066604
0.0683493
0.00481409
0.0274728
0.0405675
0.0668478
0.0747766
0.0863634
0.0876308
0.0896095
0.0886618
0.0885492
0.0880798
0.0877569
0.0880712
0.0868506
0.0842647
0.0773287
0.0713875
0.0687217
0.0185653
0.0536424
0.0733694
0.107975
0.120277
0.135003
0.136545
0.137234
0.135795
0.134287
0.131823
0.130235
0.127299
0.122533
0.113481
0.102001
0.0900559
0.0828578
0.0480123
0.0895981
0.127876
0.172371
0.194051
0.209821
0.212389
0.212539
0.210428
0.205579
0.198283
0.192618
0.183632
0.173307
0.159936
0.14695
0.13195
0.118337
0.0866077
0.145988
0.21771
0.282148
0.319481
0.339203
0.343932
0.344357
0.341474
0.331771
0.312912
0.292822
0.269865
0.246443
0.220851
0.197963
0.1754
0.157177
0.141876
0.239804
0.339362
0.406873
0.439317
0.44923
0.449728
0.445645
0.428319
0.399885
0.370621
0.340652
0.309132
0.278453
0.246893
0.219325
0.192979
0.17222
0.184028
0.284865
0.38585
0.449827
0.479151
0.486545
0.486166
0.480235
0.457545
0.423926
0.390451
0.356706
0.321802
0.288189
0.254176
0.224752
0.197065
0.175507
0.178458
0.283075
0.385427
0.449592
0.479022
0.486498
0.48614
0.480255
0.457896
0.424062
0.390418
0.356645
0.321677
0.28786
0.253615
0.224048
0.196168
0.174202
0.138601
0.236637
0.336267
0.402847
0.436526
0.447567
0.448323
0.444542
0.428595
0.398585
0.367539
0.336495
0.304268
0.273272
0.241366
0.21372
0.187403
0.166491
0.0865438
0.153661
0.228919
0.288391
0.324866
0.341314
0.345804
0.345533
0.342037
0.327139
0.303083
0.279435
0.254395
0.230401
0.204828
0.182573
0.160867
0.143518
0.0498266
0.0890983
0.131914
0.167912
0.192684
0.204334
0.207836
0.207724
0.205635
0.197914
0.18459
0.171054
0.15641
0.143104
0.128793
0.116686
0.104337
0.0941667
0.0238452
0.0461291
0.0749011
0.100389
0.118655
0.128342
0.130813
0.1301
0.127741
0.121783
0.111395
0.103377
0.0971017
0.092451
0.0871562
0.0825132
0.0772001
0.0730362
0.0123236
0.0218848
0.0363399
0.0548487
0.0675448
0.0719539
0.0724189
0.0737374
0.0754799
0.0767659
0.0778867
0.0789807
0.0794117
0.079003
0.0773218
0.0750118
0.0717376
0.0692875
0.00439034
0.0112616
0.0193674
0.0274466
0.0335519
0.0398816
0.0486404
0.0560236
0.0623146
0.0675363
0.0727765
0.0775632
0.0813525
0.0830902
0.0836196
0.0835159
0.0821478
0.0813094
0.00178224
0.00383431
0.00868848
0.0171612
0.0248714
0.0356028
0.0502198
0.0661065
0.0798077
0.0917609
0.104085
0.114848
0.12394
0.130267
0.133533
0.135627
0.13657
0.138428
0.000441173
0.00342729
0.0126711
0.0316832
0.0573135
0.0925419
0.134558
0.174488
0.20561
0.230586
0.2565
0.278093
0.294094
0.30439
0.308687
0.311081
0.312325
0.316672
0.00194209
0.0314756
0.112304
0.224764
0.335625
0.452602
0.56483
0.645402
0.695302
0.726837
0.759563
0.782858
0.792901
0.795023
0.793752
0.78937
0.785636
0.784423
0.0379118
0.368907
0.952533
1.35176
1.66361
1.86647
1.98365
2.01922
2.01743
2.00855
1.9957
1.97313
1.92849
1.88601
1.841
1.79402
1.75006
1.70814
0.748038
3.21161
4.31144
4.60694
4.52622
4.40051
4.19737
3.9922
3.81934
3.65335
3.51169
3.36247
3.22833
3.10594
2.9884
2.87071
2.76695
2.6257
6.93511
9.55105
8.50584
6.71671
5.7824
5.43937
5.38286
5.45203
5.60056
5.77631
5.91727
6.0312
6.11069
6.15362
6.15496
6.12549
6.03756
5.7959
0.0780125
0.0764926
0.079648
0.0856404
0.0947322
0.106453
0.12055
0.136669
0.156615
0.18164
0.212361
0.249549
0.293269
0.341796
0.397043
0.465841
0.550841
0.64804
0.751145
0.857617
0.974909
1.11861
1.29616
1.49458
1.70528
1.94821
2.24177
2.57794
2.93798
3.30789
3.67222
4.00245
4.28092
4.49735
4.64805
4.75722
4.84611
4.91803
4.97856
5.03191
5.07334
5.1058
5.13949
5.17096
5.20325
5.24378
5.29233
5.35762
5.40205
5.40127
5.3707
5.35263
5.35646
5.3788
5.44508
5.53195
5.63761
5.79095
5.90521
5.97609
6.01598
6.02541
6.00849
5.97161
5.9172
5.839
5.75103
5.68043
5.64349
5.63587
5.6924
5.75048
5.76823
5.67832
5.49648
5.24476
5.0261
4.92965
4.88855
4.75521
4.57857
4.45569
4.40059
4.33244
4.17394
3.96279
3.85378
3.92545
4.18915
4.43105
4.53293
4.52457
4.53661
4.53722
4.46806
4.62494
5.32139
5.76879
5.92451
6.06817
6.7232
8.74845
11.0572
11.3524
9.06974
5.88856
4.61501
4.05784
3.55945
3.04224
2.53094
2.02371
1.99057
1.81625
1.6574
1.58781
1.63991
1.78911
2.03494
2.53972
3.37059
4.56596
5.38461
5.72228
5.77143
5.77865
5.96481
6.31136
6.76567
7.01099
7.13039
7.06614
7.07512
7.10792
7.31593
7.60777
8.00785
8.42909
8.91371
9.3872
9.9067
10.5005
11.0241
11.4342
11.9553
12.1504
12.2458
12.305
12.6891
13.7279
14.8138
15.4117
15.332
15.4474
15.7598
17.6435
18.4332
18.1592
17.8259
18.266
18.8747
18.7729
17.4151
15.2792
12.7123
10.8344
10.4376
10.7951
10.9315
10.6661
8.75428
8.91405
10.6405
10.7249
12.6952
14.1943
13.7144
14.886
15.3053
17.0796
0.262252
0.13382
0.0883575
0.079303
0.0783058
0.0800574
0.0841063
0.0893083
0.0949844
0.102714
0.113618
0.126678
0.143496
0.165316
0.193047
0.231735
0.281391
0.335475
0.3926
0.460387
0.545565
0.65499
0.797365
0.960957
1.10729
1.23608
1.37069
1.48306
1.52413
1.52701
1.48295
1.35206
1.16939
0.995326
0.847943
0.742022
0.68136
0.625919
0.580927
0.550173
0.523751
0.503849
0.493448
0.489971
0.489764
0.497933
0.52099
0.537868
0.538625
0.532887
0.517499
0.511889
0.512103
0.522278
0.55106
0.597298
0.664427
0.770556
0.867759
0.938602
0.98362
1.00093
1.00346
1.00142
0.995365
0.974597
0.950764
0.945533
0.955982
0.988888
1.07219
1.22304
1.38785
1.49973
1.55783
1.55861
1.46752
1.41409
1.42282
1.42109
1.39462
1.36706
1.36279
1.42875
1.45186
1.38921
1.16647
1.07348
1.1202
1.26659
1.46583
1.85687
2.91703
3.69097
4.06331
4.19065
3.8767
3.02964
2.70281
2.87065
4.09539
4.6925
4.23822
1.97425
1.14927
0.99623
1.03397
1.37734
1.51104
1.49762
1.4688
1.31306
1.1482
1.32361
1.26715
1.10235
1.04098
1.03597
0.964489
0.970066
1.071
1.2861
1.54348
1.74721
1.83847
1.89119
1.95135
2.06734
2.31671
2.66342
2.98683
3.22834
3.42127
3.54973
3.67976
3.78919
3.89797
4.04267
4.10919
4.27476
4.45714
4.64194
4.93769
5.25835
5.36157
5.51736
5.65856
5.88263
6.48966
7.61267
8.2448
7.314
7.42068
7.87195
8.14411
8.94458
9.4986
9.42422
8.96004
8.91168
9.23019
9.43191
9.21335
8.58582
7.49481
6.68936
6.56365
6.46103
6.21249
6.28667
6.37351
6.66081
7.59312
7.98836
9.98273
8.64485
7.14207
7.53426
9.02975
8.80697
0.607521
0.248874
0.110944
0.0794501
0.0727619
0.0719539
0.072921
0.0764397
0.080133
0.083918
0.0913061
0.100923
0.112313
0.12921
0.15117
0.181187
0.22563
0.290161
0.373466
0.46851
0.554992
0.620306
0.656896
0.681982
0.71439
0.725256
0.724735
0.698775
0.628622
0.540964
0.438294
0.34104
0.275369
0.23844
0.217701
0.205379
0.199623
0.194919
0.192004
0.189612
0.186617
0.182646
0.178555
0.175867
0.174615
0.17419
0.174541
0.175212
0.174742
0.172445
0.167033
0.163707
0.163142
0.16404
0.168534
0.176827
0.195228
0.225177
0.248009
0.261949
0.268088
0.270052
0.270509
0.271765
0.276569
0.287283
0.310117
0.338782
0.363646
0.383443
0.410661
0.442441
0.492315
0.543484
0.593002
0.625001
0.626534
0.62994
0.641603
0.644669
0.635656
0.594553
0.547468
0.546028
0.585435
0.590209
0.599273
0.678968
0.826846
1.21802
2.1262
2.88742
3.15949
3.08233
2.77227
2.17855
1.49535
1.15895
1.11197
1.48423
2.14951
2.17976
1.2687
0.731181
0.601085
0.552775
0.564082
0.680348
0.777648
0.804625
1.0044
1.39764
1.42712
1.23471
1.20296
1.04607
0.930417
0.918343
0.800079
0.676418
0.652076
0.677459
0.760304
0.886374
0.940476
0.980612
1.00659
1.03123
1.08734
1.2159
1.37979
1.55489
1.71225
1.87291
1.95463
2.07573
2.13089
2.25105
2.31214
2.41171
2.47101
2.54507
2.69944
2.94478
3.03826
3.15739
3.47456
4.17864
4.95609
5.34551
5.29041
4.47169
4.70949
5.27691
5.43414
5.96533
5.68483
5.5112
5.39905
5.30066
5.34065
5.47781
5.49695
5.37878
5.06547
4.87311
5.17375
5.23933
4.94902
5.04757
5.16745
5.53595
6.19846
6.11898
7.54017
7.77127
6.56372
6.20828
6.36424
5.49366
1.08392
0.412682
0.156698
0.0890615
0.0738517
0.0714899
0.0720286
0.0749387
0.079439
0.0857197
0.0947458
0.102529
0.113765
0.132395
0.161019
0.207186
0.284766
0.395216
0.460801
0.484463
0.483136
0.449647
0.431983
0.421979
0.403382
0.381159
0.347235
0.308582
0.260565
0.220967
0.187058
0.174553
0.171042
0.170866
0.173579
0.179415
0.183906
0.186142
0.186993
0.187088
0.186195
0.182603
0.176418
0.170857
0.166061
0.161129
0.158172
0.156022
0.153692
0.15157
0.148642
0.147105
0.146638
0.146055
0.144278
0.143456
0.145576
0.153322
0.156893
0.157606
0.157045
0.156979
0.160287
0.169707
0.188637
0.213349
0.242758
0.270788
0.280299
0.278551
0.272281
0.277868
0.30294
0.316331
0.319666
0.348784
0.375556
0.374637
0.379939
0.379397
0.375137
0.380614
0.365196
0.343497
0.348652
0.37564
0.456704
0.741857
1.41877
2.03289
2.39568
2.44938
2.14141
1.71984
1.38262
1.04389
0.830616
0.768941
0.778778
0.968175
1.30416
1.3617
1.09697
0.778718
0.57882
0.428863
0.379787
0.377881
0.405293
0.49159
0.732682
1.19615
1.44164
0.759196
0.757342
0.76569
0.792082
0.853496
0.779339
0.619398
0.537579
0.549778
0.631992
0.79629
0.849986
0.878507
0.907714
0.901846
0.894973
0.911829
0.970921
1.05142
1.13314
1.25251
1.30202
1.41119
1.484
1.56135
1.62466
1.71716
1.77488
1.81007
1.92287
2.0792
2.19709
2.35588
2.64172
3.69017
4.52264
4.72915
4.41061
4.04704
4.13001
3.91589
3.97029
4.66302
4.64082
4.45244
4.40864
4.33442
4.30899
4.30338
4.30393
4.25023
4.09628
4.07951
4.50935
4.97051
4.66882
4.69099
4.70443
5.17908
5.54686
5.1828
4.66988
7.16543
6.65639
6.15136
5.22727
4.44654
1.67877
0.606758
0.210262
0.0992388
0.0772063
0.0753586
0.0769903
0.0802866
0.0857676
0.0903355
0.0984008
0.109122
0.128639
0.166246
0.237969
0.348141
0.404741
0.418419
0.408962
0.362521
0.299372
0.275153
0.260563
0.243698
0.229836
0.211887
0.193252
0.178469
0.165539
0.161937
0.161597
0.164868
0.172665
0.181854
0.193714
0.203831
0.210704
0.214864
0.216895
0.217661
0.217512
0.214696
0.207449
0.196017
0.18217
0.168836
0.160318
0.156732
0.155259
0.154536
0.153709
0.152495
0.151664
0.148973
0.143838
0.140522
0.137985
0.137183
0.137658
0.137307
0.135847
0.135221
0.137651
0.146648
0.168324
0.181872
0.180878
0.175718
0.175365
0.182031
0.193957
0.208958
0.226124
0.235456
0.261006
0.312206
0.342526
0.340489
0.344326
0.336102
0.310584
0.296622
0.292961
0.29654
0.314213
0.366128
0.592807
1.28851
1.71294
1.9955
2.00653
1.68973
1.25006
0.989743
0.828694
0.754645
0.736283
0.733505
0.742078
0.87318
1.08917
1.14126
1.04638
0.858002
0.587742
0.356634
0.292202
0.268122
0.248009
0.274256
0.374605
0.477562
0.574626
0.469134
0.554098
0.642963
0.606916
0.576504
0.619823
0.565184
0.493514
0.52525
0.726058
0.918214
0.972341
0.946644
0.909903
0.884043
0.844715
0.817146
0.824943
0.850967
0.901116
0.976526
1.03346
1.1077
1.2061
1.26231
1.32343
1.4089
1.46467
1.4941
1.603
1.6996
1.78146
1.99559
2.21018
2.94296
3.9765
4.43936
4.14105
3.73953
3.77719
3.20842
3.44739
3.92588
4.24879
4.22478
4.13488
3.98445
3.91801
3.79028
3.85888
3.84186
3.6893
3.44793
3.73286
4.72956
4.55775
4.32514
4.19082
4.8835
5.61189
5.34691
4.38057
5.32534
6.36975
6.15573
4.9984
4.4348
2.37492
0.86734
0.299752
0.127487
0.0916608
0.0887775
0.0915217
0.092916
0.093167
0.0976031
0.111443
0.137659
0.192445
0.287434
0.359848
0.380517
0.37443
0.333267
0.252465
0.210797
0.193187
0.184576
0.179613
0.174292
0.169519
0.162303
0.156013
0.154274
0.153996
0.155406
0.16019
0.168088
0.177819
0.187261
0.197411
0.205809
0.211688
0.214922
0.217605
0.220832
0.221856
0.221788
0.218341
0.209579
0.198124
0.185661
0.174719
0.162658
0.156317
0.153302
0.152089
0.151504
0.150003
0.147436
0.146141
0.145576
0.143764
0.142494
0.141448
0.140799
0.140201
0.137405
0.135152
0.137518
0.146529
0.14892
0.140623
0.132733
0.132475
0.143956
0.166958
0.184252
0.196194
0.217489
0.267509
0.313585
0.320772
0.330661
0.336393
0.327917
0.309268
0.289443
0.286024
0.296879
0.328652
0.430658
0.889357
1.4967
1.68966
1.68142
1.44136
1.10803
0.834168
0.714964
0.685705
0.689744
0.68464
0.668989
0.675244
0.815801
0.966255
0.998876
0.9658
0.793818
0.463533
0.306356
0.286397
0.236403
0.210571
0.212581
0.23292
0.274406
0.401113
0.421534
0.495583
0.656607
0.590678
0.464141
0.469583
0.475035
0.48429
0.53075
0.851437
1.04386
1.0526
0.999844
0.853118
0.784181
0.808923
0.792452
0.762752
0.758472
0.797613
0.841737
0.918093
0.953176
1.04915
1.12346
1.17182
1.24842
1.30996
1.33749
1.45548
1.55522
1.5461
1.75064
2.03898
2.5207
3.30482
3.61111
3.4596
3.14034
2.81911
2.64255
2.66194
3.62411
4.14212
4.23584
4.12354
3.95009
3.8291
3.52687
3.40415
3.64521
3.53852
3.16553
3.16449
4.27913
4.53393
4.17275
3.82775
4.66851
5.58947
5.55516
4.27428
4.1864
5.71801
5.89926
4.88827
4.4938
3.1788
1.02034
0.332476
0.142582
0.103532
0.100164
0.103859
0.106594
0.110026
0.120987
0.154454
0.225743
0.316888
0.351679
0.353801
0.333282
0.269496
0.197204
0.171125
0.161587
0.159306
0.159189
0.159456
0.158332
0.153435
0.148155
0.14561
0.144985
0.145221
0.14772
0.153071
0.159143
0.165328
0.171499
0.176389
0.177922
0.178067
0.17836
0.181743
0.190293
0.199663
0.206792
0.209106
0.208593
0.200812
0.192429
0.187751
0.182698
0.177519
0.170426
0.166087
0.162062
0.153064
0.147565
0.143618
0.1424
0.143536
0.144332
0.14403
0.141233
0.139875
0.138215
0.131721
0.128551
0.13355
0.141365
0.136569
0.124215
0.121348
0.129264
0.15313
0.174527
0.188377
0.214957
0.267673
0.301625
0.314259
0.328998
0.337889
0.333648
0.325955
0.301151
0.289843
0.29414
0.327983
0.521977
1.23121
1.54484
1.50663
1.2232
0.984843
0.793693
0.66712
0.601082
0.569943
0.530547
0.500601
0.460137
0.451752
0.530074
0.615797
0.632174
0.610605
0.467161
0.325454
0.293671
0.286891
0.229255
0.209411
0.200486
0.184989
0.201596
0.308825
0.392554
0.455696
0.607501
0.574924
0.449918
0.429841
0.440323
0.50056
0.549511
0.729758
0.881191
0.923005
0.850247
0.682808
0.710655
0.842426
0.810521
0.751044
0.734517
0.759033
0.782209
0.814487
0.893163
0.928581
1.00744
1.09379
1.13131
1.1636
1.21672
1.32778
1.4893
1.41884
1.55506
1.93835
2.26122
2.87554
3.08452
2.93346
2.57073
2.21289
2.33129
2.35179
2.90431
3.90502
4.20934
4.1035
3.95917
3.87406
3.56654
3.13718
3.42713
3.41226
3.073
2.75968
3.5195
4.46013
4.1175
3.71827
4.59796
5.12778
5.02631
3.65746
3.74288
4.79864
5.19172
4.7499
4.43504
3.98977
1.04838
0.269124
0.121087
0.105165
0.104504
0.113717
0.131602
0.154212
0.186334
0.245386
0.289383
0.319181
0.323592
0.297161
0.232195
0.176103
0.158471
0.154274
0.155172
0.158902
0.159136
0.156268
0.14959
0.143487
0.141334
0.14059
0.140563
0.141768
0.144478
0.147934
0.151477
0.155401
0.159834
0.162832
0.163123
0.162188
0.159404
0.158174
0.158285
0.161381
0.167418
0.177607
0.18772
0.190393
0.190296
0.187863
0.186032
0.18597
0.187037
0.189103
0.18925
0.183942
0.172584
0.154568
0.141513
0.137268
0.135677
0.13501
0.134215
0.129776
0.128377
0.129039
0.118035
0.112092
0.118271
0.127122
0.121655
0.115619
0.116607
0.131281
0.156735
0.172601
0.199915
0.25025
0.288932
0.309396
0.314199
0.312469
0.318574
0.325314
0.318299
0.306381
0.311993
0.370958
0.726559
1.3685
1.46966
1.18125
0.851764
0.709483
0.625669
0.579806
0.523505
0.43298
0.379155
0.343253
0.309082
0.297825
0.307994
0.33516
0.342442
0.340664
0.314167
0.275753
0.276211
0.259689
0.231984
0.230993
0.196228
0.175201
0.179155
0.201197
0.311799
0.39385
0.434136
0.436685
0.427622
0.421285
0.422427
0.55669
0.600907
0.604664
0.57842
0.60489
0.617944
0.631914
0.733186
0.914865
0.87039
0.763576
0.739328
0.738598
0.747994
0.765992
0.834074
0.854087
0.894127
1.00025
1.06435
1.06363
1.125
1.19244
1.3846
1.3323
1.51199
1.83532
2.11241
2.43554
2.51176
2.42809
2.22424
2.05246
2.12
2.27314
2.32766
2.82377
3.38916
3.74704
3.86844
3.84026
3.66315
3.17356
2.89619
3.18835
2.97497
2.39407
2.83452
4.26908
4.0394
3.66508
4.50406
4.35003
4.66417
3.6795
3.38099
4.21832
4.67682
4.46602
4.03158
4.7571
1.09514
0.244326
0.113818
0.106703
0.117953
0.144199
0.179842
0.212667
0.248412
0.283462
0.291979
0.287786
0.261476
0.198672
0.160944
0.148957
0.146672
0.148924
0.15426
0.155018
0.153013
0.145648
0.14305
0.142635
0.143383
0.145838
0.149158
0.151824
0.152505
0.152651
0.152816
0.154381
0.157387
0.163431
0.165708
0.165398
0.162153
0.157332
0.155859
0.155534
0.156484
0.160919
0.17219
0.184224
0.186572
0.185394
0.183251
0.182617
0.1838
0.190111
0.192975
0.194017
0.192738
0.182745
0.160691
0.140643
0.134055
0.131493
0.129165
0.12309
0.113212
0.110296
0.110978
0.0988095
0.0936502
0.0975597
0.107671
0.105492
0.100445
0.104195
0.123196
0.141811
0.18783
0.249239
0.288561
0.304402
0.306178
0.30415
0.307475
0.316482
0.317906
0.324803
0.360925
0.497493
1.00227
1.37178
1.30843
0.864707
0.635361
0.5608
0.532664
0.509012
0.433422
0.336804
0.298531
0.271854
0.252075
0.245145
0.245913
0.257292
0.272269
0.277549
0.270714
0.249776
0.241892
0.228749
0.239011
0.239258
0.197832
0.1733
0.167484
0.174056
0.213826
0.339013
0.393346
0.388882
0.394118
0.421834
0.426741
0.551327
0.609661
0.592516
0.520611
0.530855
0.595888
0.621315
0.758054
0.881458
0.884384
0.808633
0.749655
0.738512
0.719256
0.736244
0.764452
0.79956
0.844989
0.893824
0.997586
1.02187
1.04369
1.1338
1.28938
1.27272
1.39298
1.52472
1.89895
2.12844
2.06757
2.031
1.93879
1.94305
1.98278
2.18192
2.14221
2.12662
2.182
2.40039
3.22256
3.63901
3.61808
3.25756
2.60672
2.71038
2.65008
2.21413
2.30207
3.82075
3.76198
3.5111
4.28691
4.17666
4.50861
3.60148
2.94817
3.66797
4.134
4.03267
3.43668
5.62483
1.23763
0.247248
0.111933
0.10695
0.124379
0.164695
0.205122
0.240865
0.269223
0.280917
0.279837
0.254352
0.196623
0.156484
0.145582
0.143794
0.145632
0.149239
0.149399
0.146782
0.143237
0.142618
0.144071
0.149193
0.155154
0.157978
0.1588
0.158601
0.156111
0.150936
0.148215
0.148067
0.151265
0.158938
0.168995
0.172816
0.173157
0.169969
0.161046
0.157687
0.157253
0.158435
0.165856
0.181459
0.191432
0.192932
0.190056
0.180758
0.177209
0.177589
0.185295
0.191235
0.192326
0.188198
0.177627
0.153575
0.136177
0.130239
0.1269
0.121989
0.110842
0.10321
0.1009
0.099285
0.0890365
0.0858498
0.0888907
0.0919306
0.0903687
0.0935729
0.109452
0.13331
0.187924
0.266855
0.313133
0.330189
0.332156
0.330091
0.329426
0.331807
0.348384
0.394786
0.467975
0.657699
1.09081
1.24157
1.04846
0.643563
0.504611
0.470445
0.464108
0.446581
0.369353
0.284627
0.253138
0.237364
0.227462
0.222718
0.220897
0.226209
0.246078
0.252339
0.243098
0.22895
0.233072
0.22313
0.218944
0.214221
0.198588
0.171986
0.162681
0.162578
0.180024
0.253283
0.357037
0.373677
0.379053
0.426317
0.443088
0.498401
0.560849
0.540634
0.502683
0.522644
0.674432
0.727183
0.78817
0.772468
0.837327
0.798978
0.744335
0.723269
0.712041
0.719793
0.716618
0.755838
0.821003
0.824046
0.915095
0.981816
0.967309
1.0148
1.17027
1.22875
1.29401
1.29089
1.47789
1.75544
1.85433
1.91506
1.85417
1.8778
1.94028
1.82922
1.83921
1.83567
1.92539
1.83196
2.21888
2.91744
3.29932
3.21722
2.56838
2.37529
2.32509
2.15898
2.0221
3.36888
3.45331
3.33224
4.04453
4.27535
4.27495
3.11358
2.50634
3.43784
3.77538
3.63935
3.10325
6.5109
1.42854
0.266668
0.109425
0.10329
0.125851
0.169961
0.216458
0.255829
0.268001
0.26598
0.244715
0.200216
0.154559
0.139315
0.136435
0.138441
0.146354
0.148756
0.148059
0.143443
0.141347
0.141275
0.144145
0.149977
0.152037
0.151902
0.149576
0.146474
0.144529
0.142643
0.142743
0.146596
0.157236
0.173258
0.183271
0.184789
0.182942
0.174201
0.163774
0.161952
0.163017
0.164101
0.166454
0.17524
0.189139
0.194238
0.193934
0.185269
0.170161
0.162523
0.162249
0.174577
0.183186
0.185418
0.181317
0.167481
0.141045
0.129837
0.124948
0.120087
0.112602
0.101591
0.096662
0.0955882
0.0904826
0.0840992
0.0833299
0.0858539
0.0867961
0.0895076
0.103023
0.130382
0.193402
0.280211
0.331808
0.356361
0.363581
0.365487
0.369678
0.38275
0.411136
0.445741
0.536326
0.813869
1.05467
1.05952
0.788721
0.510545
0.428581
0.409506
0.40346
0.380477
0.306727
0.247233
0.226663
0.219166
0.214216
0.211069
0.205852
0.206374
0.212937
0.2069
0.193642
0.199529
0.224242
0.217098
0.182265
0.172029
0.181434
0.168183
0.156857
0.157063
0.167102
0.219473
0.296875
0.351227
0.37171
0.424924
0.45528
0.508061
0.52072
0.500868
0.503889
0.535485
0.748597
0.791499
0.735357
0.629362
0.685316
0.719913
0.699238
0.67764
0.680838
0.684992
0.687536
0.72175
0.776318
0.783083
0.806471
0.869816
0.876502
0.936743
1.00282
1.10788
1.26207
1.18564
1.26416
1.44508
1.71981
1.93033
1.84379
1.83003
1.85304
1.65456
1.62566
1.70587
1.79694
1.75364
1.76865
2.21709
2.70406
2.83698
2.47485
2.1968
2.13958
2.14388
1.94728
3.05829
3.262
3.30997
3.77481
4.34746
4.15491
3.14442
2.36698
3.06794
3.52453
3.40138
2.9685
7.54914
1.79726
0.337763
0.113727
0.102791
0.126775
0.168352
0.213241
0.252055
0.26312
0.258021
0.223919
0.16867
0.13331
0.124925
0.124705
0.1305
0.142594
0.147453
0.147683
0.145084
0.141013
0.139599
0.139422
0.140322
0.140102
0.140705
0.14406
0.144987
0.144703
0.143179
0.143376
0.149165
0.165455
0.180251
0.18301
0.182756
0.179273
0.174375
0.174777
0.181409
0.184399
0.183358
0.176773
0.174148
0.173475
0.178919
0.181948
0.182353
0.171446
0.1545
0.14883
0.14925
0.162424
0.173509
0.175317
0.171033
0.152616
0.131307
0.124249
0.119979
0.112295
0.104808
0.0951439
0.0905826
0.0891418
0.0835134
0.0814688
0.0830442
0.085659
0.0886249
0.101005
0.130436
0.20287
0.298367
0.35164
0.376237
0.384603
0.388924
0.39912
0.420193
0.449369
0.506834
0.652472
0.860149
0.94362
0.878124
0.585147
0.426387
0.38399
0.377657
0.369354
0.335792
0.262891
0.225437
0.211914
0.205286
0.199242
0.194064
0.189014
0.186863
0.184492
0.178591
0.174902
0.175746
0.193336
0.190693
0.174817
0.159422
0.159037
0.157193
0.149175
0.150302
0.157576
0.196529
0.276284
0.323891
0.365385
0.430068
0.453352
0.5104
0.508104
0.498908
0.512488
0.538777
0.692448
0.701499
0.572536
0.542324
0.585333
0.663311
0.661214
0.655469
0.655344
0.634795
0.631953
0.654082
0.67425
0.713374
0.741312
0.788252
0.820048
0.92483
0.926618
1.00167
1.21954
1.16187
1.17896
1.29165
1.6539
1.99829
1.82615
1.76838
1.74859
1.57865
1.52304
1.6151
1.72761
1.70276
1.62331
1.78636
2.15313
2.26105
2.32576
2.14415
1.9979
2.11523
1.92944
2.88005
3.1995
3.35087
3.52538
4.26655
4.05547
3.08905
2.30995
2.43487
3.19019
3.21584
2.94179
8.69241
2.2051
0.473706
0.129476
0.102348
0.120481
0.156151
0.200859
0.244345
0.258197
0.252497
0.223863
0.172709
0.129838
0.116595
0.114169
0.116961
0.126206
0.137933
0.141666
0.141732
0.138094
0.132118
0.124852
0.122349
0.12267
0.130449
0.146311
0.152102
0.153084
0.149812
0.147943
0.149922
0.162502
0.173932
0.176295
0.176698
0.176884
0.17874
0.183302
0.186929
0.187335
0.184213
0.174658
0.164033
0.157186
0.146968
0.144031
0.150363
0.154987
0.151658
0.142005
0.140568
0.144753
0.159542
0.165332
0.166201
0.159064
0.134817
0.12446
0.120519
0.112173
0.105031
0.0990208
0.0893751
0.0843621
0.0820543
0.0801183
0.0809689
0.0853809
0.0894256
0.10092
0.130338
0.203143
0.303255
0.366175
0.390252
0.399855
0.408874
0.429531
0.467371
0.528654
0.601917
0.718705
0.815552
0.816174
0.682525
0.455104
0.365899
0.345897
0.348461
0.348458
0.324345
0.25279
0.214314
0.198694
0.19213
0.189095
0.185402
0.182191
0.180021
0.174756
0.168993
0.16825
0.169207
0.175704
0.179239
0.174294
0.150244
0.146886
0.14794
0.14299
0.143735
0.151907
0.181626
0.254169
0.30959
0.377232
0.43147
0.456011
0.493132
0.500956
0.503503
0.517478
0.527889
0.518223
0.499582
0.474007
0.504288
0.583623
0.647581
0.648631
0.645138
0.644538
0.617434
0.602236
0.615098
0.640195
0.681721
0.71768
0.753562
0.790387
0.943534
0.917238
0.958895
1.1657
1.12376
1.1422
1.23
1.61378
2.00329
1.78038
1.70109
1.66819
1.55281
1.47173
1.52836
1.67061
1.65993
1.58442
1.62447
1.83842
2.00187
2.29612
2.17303
1.91558
2.06011
1.92621
2.7103
3.21384
3.36928
3.31826
3.88179
3.76702
2.82229
2.13966
2.10798
2.66327
3.03128
2.98524
9.99635
2.62532
0.692942
0.171221
0.104888
0.109603
0.136177
0.172316
0.216777
0.247038
0.25209
0.231957
0.185539
0.135533
0.11525
0.10813
0.106702
0.108425
0.113081
0.11768
0.12036
0.120487
0.11722
0.113161
0.112094
0.112978
0.118358
0.132606
0.147137
0.150687
0.150458
0.149718
0.152609
0.159686
0.170657
0.1759
0.177371
0.177814
0.180451
0.181142
0.178027
0.166387
0.15347
0.13701
0.123494
0.121798
0.122741
0.120367
0.120243
0.123265
0.130742
0.132441
0.132452
0.137546
0.150066
0.160476
0.163555
0.162035
0.148736
0.128027
0.119455
0.115064
0.105128
0.0994605
0.0914038
0.0828756
0.0788087
0.0782071
0.0793885
0.0863403
0.0944582
0.102199
0.122632
0.183227
0.296013
0.374065
0.413603
0.425776
0.439728
0.473486
0.528459
0.582351
0.641462
0.703473
0.719205
0.677373
0.505491
0.371526
0.320587
0.308921
0.312751
0.313622
0.299698
0.245741
0.206633
0.190192
0.185648
0.185106
0.182875
0.179411
0.177208
0.17203
0.167631
0.167659
0.169574
0.175995
0.179351
0.173272
0.149251
0.143448
0.143204
0.139059
0.141365
0.148723
0.174201
0.243185
0.297387
0.375245
0.431845
0.464223
0.489448
0.502137
0.509782
0.517142
0.491076
0.457241
0.436652
0.438799
0.474826
0.623668
0.62013
0.630635
0.626684
0.628466
0.610733
0.58751
0.600156
0.637525
0.674551
0.705085
0.750534
0.789408
1.00772
0.922695
0.947434
1.11553
1.09634
1.12808
1.20076
1.48999
1.67529
1.51924
1.55125
1.59982
1.53681
1.44848
1.4788
1.61314
1.62327
1.56241
1.58413
1.70514
1.96165
2.32853
2.22824
1.84673
1.88474
1.89045
2.46751
3.23334
3.34932
3.13248
3.73741
3.69306
2.75442
2.11131
2.00694
2.23854
2.87506
3.0361
11.5681
3.06114
0.945967
0.265142
0.116286
0.103107
0.111513
0.141382
0.181119
0.222327
0.239689
0.23752
0.212318
0.159796
0.123861
0.11055
0.105404
0.104038
0.104351
0.105659
0.107077
0.108409
0.109197
0.109912
0.110922
0.112622
0.116736
0.126623
0.1407
0.148729
0.152235
0.15388
0.155724
0.158962
0.164838
0.170271
0.171263
0.168059
0.161917
0.153413
0.142722
0.12831
0.119931
0.114891
0.110759
0.110036
0.111441
0.111062
0.111289
0.112292
0.121095
0.12436
0.123913
0.124675
0.129496
0.144288
0.155029
0.157437
0.152736
0.135164
0.122315
0.116931
0.109123
0.101902
0.0930274
0.0822409
0.0767362
0.0753646
0.0775536
0.0869963
0.0967125
0.10408
0.118149
0.156222
0.270903
0.373901
0.427854
0.456874
0.476615
0.514241
0.556898
0.599724
0.634638
0.644136
0.621309
0.525728
0.391521
0.31743
0.288797
0.285775
0.290894
0.291453
0.28025
0.24169
0.206208
0.188004
0.182936
0.184703
0.184745
0.181358
0.17741
0.172108
0.168955
0.169257
0.171751
0.179525
0.181078
0.175099
0.150959
0.143386
0.142208
0.136598
0.137458
0.147716
0.171713
0.233196
0.293308
0.36876
0.446125
0.483945
0.498491
0.515792
0.516099
0.504878
0.467616
0.437096
0.415235
0.402676
0.439416
0.585725
0.524163
0.550101
0.57439
0.589353
0.599642
0.583741
0.59086
0.649161
0.677121
0.698178
0.759701
0.798494
1.02285
0.928547
0.932918
1.1001
1.09138
1.11056
1.17946
1.30388
1.3147
1.29201
1.39613
1.53205
1.49888
1.43722
1.47048
1.56562
1.56302
1.50636
1.56172
1.69506
2.03886
2.34635
2.24542
1.83863
1.79384
1.86701
2.24848
3.21645
3.23554
3.04313
3.74924
3.76606
2.65866
2.0273
1.94619
2.12787
2.7919
2.9365
13.5343
3.59689
1.29732
0.446223
0.162383
0.107006
0.10281
0.111742
0.135208
0.172122
0.213958
0.231497
0.22745
0.20952
0.16777
0.130615
0.114598
0.109153
0.107703
0.107508
0.108122
0.108873
0.109888
0.111846
0.115696
0.120865
0.127261
0.135065
0.14546
0.15389
0.159179
0.160131
0.159301
0.159683
0.160758
0.160223
0.160506
0.160197
0.152599
0.136485
0.126804
0.121406
0.116415
0.111997
0.109335
0.108663
0.109877
0.108251
0.107701
0.108825
0.114423
0.117301
0.115785
0.115159
0.117128
0.121937
0.13221
0.140369
0.142867
0.135444
0.122329
0.117918
0.111611
0.104238
0.0957588
0.0837345
0.0763611
0.0742367
0.0747831
0.0840829
0.0968725
0.104302
0.115738
0.140491
0.227878
0.359726
0.431926
0.470125
0.501525
0.534513
0.567724
0.59305
0.596953
0.580851
0.520954
0.423072
0.340833
0.293125
0.276189
0.277079
0.283058
0.285322
0.277096
0.245813
0.212421
0.194365
0.186059
0.184497
0.184093
0.182412
0.177864
0.173259
0.171728
0.172435
0.174766
0.182124
0.184109
0.181879
0.155841
0.143932
0.139676
0.13623
0.137079
0.145368
0.172618
0.225648
0.289415