/*--------------------------------*- C++ -*----------------------------------*\
| =========                 |                                                 |
| \\      /  F ield         | OpenFOAM: The Open Source CFD Toolbox           |
|  \\    /   O peration     | Version:  dev                                   |
|   \\  /    A nd           | Web:      http://www.openfoam.org               |
|    \\/     M anipulation  |                                                 |
\*---------------------------------------------------------------------------*/
FoamFile
{
    version     2.0;
    format      ascii;
    class       volScalarField;
    object      k_0;
    location    "9.154";
}
// * * * * * * * * * * * * * * * * * * * * * * * * * * * * * * * * * * * * * //

dimensions      [0 2 -2 0 0 0 0];

internalField   nonuniform List<scalar> 
12225
(
8.67191
9.83332
6.62002
6.92969
5.52123
8.21273
7.13115
11.2692
9.52561
15.3733
12.245
21.5959
16.858
31.2124
29.958
37.7644
68.9486
93.1401
1.69969
5.53795
4.93281
5.85654
4.49
5.53142
4.56447
5.79904
5.23891
6.39702
5.93037
6.44602
6.19624
6.2288
6.32372
6.41448
7.24664
9.46188
0.129447
1.79259
2.12868
3.46376
2.97719
3.70688
3.22032
3.47636
3.30987
3.27431
3.31759
2.84666
2.83603
2.33004
2.34129
2.2406
2.97542
5.60728
0.0116804
0.356526
0.529166
0.998487
1.16684
1.30623
1.70899
1.54397
1.85879
1.57267
1.71515
1.40611
1.36915
1.13587
1.13987
1.20589
1.93662
5.87565
0.00173804
0.0667564
0.121611
0.229236
0.436804
0.506575
0.709536
0.685924
0.818318
0.717024
0.785811
0.676946
0.698212
0.595649
0.636368
0.752719
1.32247
4.69214
0.00284205
0.0476701
0.057581
0.0965145
0.150034
0.188151
0.265458
0.263224
0.31865
0.281154
0.330979
0.294311
0.335842
0.288525
0.320658
0.386998
1.08772
2.16909
0.00171735
0.00681616
0.0165569
0.0230037
0.0447003
0.0531009
0.0833922
0.0843151
0.112092
0.103062
0.132864
0.122016
0.148357
0.131086
0.158518
0.176919
0.419822
0.996416
0.00158647
0.00311954
0.00688063
0.0100298
0.0194144
0.024206
0.0377397
0.0407776
0.0532351
0.0532127
0.0673557
0.0663145
0.0784793
0.0756529
0.0908543
0.100674
0.20432
0.313705
0.00136917
0.00364093
0.00703125
0.0102722
0.0166096
0.0215269
0.030545
0.0341819
0.0414156
0.04389
0.0504988
0.0536436
0.0595748
0.0616583
0.0701855
0.0758017
0.110394
0.14934
0.00110783
0.00737626
0.0106546
0.0181043
0.0214254
0.0286411
0.0327129
0.0383694
0.042186
0.0444888
0.0490474
0.052655
0.0579853
0.0601133
0.0644339
0.0660301
0.0753585
0.0855419
0.00174322
0.0131597
0.0192571
0.0350312
0.0388503
0.0477129
0.0489826
0.0525692
0.053155
0.0548522
0.0566402
0.0596829
0.0617497
0.0639115
0.0642801
0.0649365
0.0663409
0.0687422
0.00413647
0.0273222
0.0398778
0.0653474
0.072246
0.0833596
0.0839433
0.0862827
0.0847106
0.0849633
0.0840794
0.0842136
0.0842936
0.0830078
0.0801344
0.0733434
0.068837
0.0671824
0.0164994
0.0530991
0.0723103
0.106028
0.117025
0.130979
0.131623
0.132362
0.13046
0.129076
0.12667
0.12504
0.12188
0.116638
0.107196
0.095537
0.084516
0.0783193
0.0447495
0.089251
0.1263
0.169424
0.189098
0.203897
0.205431
0.205413
0.202456
0.197404
0.190088
0.184454
0.175355
0.16501
0.151838
0.138897
0.124058
0.110972
0.0817346
0.145967
0.21569
0.278289
0.313709
0.33244
0.336332
0.336559
0.333363
0.322846
0.304102
0.284259
0.261437
0.238117
0.212878
0.190489
0.168626
0.151013
0.134493
0.242446
0.342129
0.408258
0.438937
0.447712
0.447782
0.442682
0.423193
0.394677
0.365267
0.335034
0.303312
0.272452
0.240985
0.213753
0.187937
0.16763
0.178721
0.29374
0.394518
0.456608
0.483902
0.490119
0.489307
0.481875
0.455917
0.421776
0.387677
0.353167
0.317642
0.283518
0.249366
0.220062
0.192765
0.171601
0.175578
0.294208
0.396438
0.458617
0.485931
0.4921
0.491245
0.48379
0.457945
0.423333
0.388925
0.354256
0.318484
0.283955
0.249405
0.21987
0.192256
0.170627
0.137673
0.249756
0.350489
0.415661
0.447252
0.456653
0.456768
0.451643
0.432163
0.40061
0.368539
0.336404
0.30318
0.271238
0.238752
0.210875
0.184572
0.163761
0.0876873
0.164706
0.242407
0.30222
0.337704
0.352889
0.35655
0.355832
0.350885
0.332754
0.307586
0.282784
0.25662
0.231488
0.205026
0.18221
0.160164
0.142548
0.0509825
0.0961509
0.140847
0.177717
0.202318
0.2133
0.216277
0.215934
0.213246
0.203863
0.189737
0.175591
0.160254
0.146117
0.131002
0.118248
0.105308
0.0946588
0.0243638
0.0504222
0.0805417
0.106517
0.12469
0.13394
0.136063
0.135279
0.132564
0.125496
0.114461
0.10589
0.0990856
0.0938868
0.0880337
0.0829863
0.0773485
0.072912
0.0125401
0.0239174
0.0395746
0.0588017
0.0715579
0.0756748
0.0758479
0.0766824
0.077882
0.0786968
0.0793354
0.0799609
0.080057
0.0793572
0.077321
0.0747886
0.0713842
0.0688391
0.00457719
0.0124907
0.0211563
0.0294593
0.0354163
0.0415512
0.0499571
0.0571251
0.0632121
0.0683053
0.0734387
0.0780389
0.0814448
0.0827485
0.0830077
0.0826037
0.0809367
0.0800576
0.00181668
0.0041671
0.00920117
0.0176684
0.0252561
0.036029
0.0505733
0.0659498
0.0791154
0.0907892
0.102792
0.113131
0.121737
0.127472
0.130329
0.132195
0.133092
0.134967
0.000405228
0.00320121
0.0117466
0.0297159
0.054554
0.089243
0.130416
0.169274
0.199503
0.224404
0.250204
0.271262
0.286629
0.296203
0.299994
0.302359
0.303802
0.308683
0.00158355
0.0279236
0.103047
0.211753
0.321362
0.438895
0.550689
0.629873
0.678778
0.710741
0.744179
0.767008
0.776539
0.778695
0.777541
0.77336
0.770785
0.770513
0.0333864
0.348234
0.92711
1.32897
1.63624
1.83921
1.96265
2.0013
2.00055
1.99268
1.9811
1.95817
1.91314
1.87154
1.82678
1.78052
1.73729
1.694
0.705076
3.16267
4.2942
4.61297
4.54464
4.42577
4.21152
3.99961
3.82435
3.65552
3.51151
3.3584
3.22258
3.09823
2.97822
2.85865
2.75104
2.59503
6.89337
9.38794
8.24208
6.43501
5.50002
5.15152
5.08388
5.14145
5.27796
5.43468
5.56231
5.66355
5.73075
5.76295
5.7573
5.72116
5.62318
5.34875
0.0773493
0.0760211
0.0791699
0.0850069
0.0938476
0.105254
0.118953
0.134548
0.153793
0.177881
0.207423
0.243208
0.285287
0.331805
0.384237
0.449108
0.529458
0.621995
0.720837
0.822662
0.932903
1.06577
1.23052
1.41691
1.61379
1.83743
2.10642
2.41594
2.74945
3.0938
3.43593
3.74948
4.01596
4.22485
4.3705
4.47432
4.56047
4.63184
4.69364
4.75049
4.79824
4.83809
4.88018
4.9217
4.96487
5.01692
5.07708
5.15551
5.22345
5.24719
5.24018
5.23855
5.26053
5.29905
5.38262
5.48524
5.60666
5.7739
5.90493
5.9877
6.03906
6.05763
6.04883
6.0197
5.97249
5.90153
5.81994
5.7588
5.7287
5.73297
5.80008
5.86912
5.89177
5.80368
5.61836
5.3544
5.12253
5.01987
4.97764
4.83938
4.65412
4.5202
4.46301
4.40034
4.24527
4.03178
3.91394
3.99988
4.28595
4.54689
4.65695
4.6445
4.64541
4.6374
4.55533
4.6851
5.36394
5.8073
5.95142
6.06948
6.65329
8.56159
11.0105
11.4045
9.25637
6.00689
4.6622
4.10064
3.6091
3.09864
2.58448
2.06623
2.02311
1.8508
1.68527
1.61514
1.66836
1.81889
2.07033
2.5896
3.4373
4.63967
5.45762
5.80443
5.8758
5.9123
6.13292
6.51017
6.99535
7.25297
7.37741
7.28153
7.26083
7.23209
7.38677
7.6009
7.9631
8.29384
8.77372
9.18916
9.70958
10.2694
10.8655
11.2356
11.7954
12.0877
12.2172
12.4083
12.7896
13.8617
14.632
15.1348
15.4411
15.5933
16.3988
18.8816
19.7612
19.4682
19.1564
19.6973
20.4004
20.2756
18.7596
16.3869
13.5667
11.5246
11.106
11.4233
11.4631
10.9195
8.73106
8.9628
11.0505
11.491
12.8786
13.0841
12.619
13.6427
14.4711
17.2047
0.260894
0.133349
0.0880913
0.078999
0.0780221
0.0797289
0.0837299
0.0888819
0.0944783
0.102057
0.112774
0.125595
0.142024
0.163297
0.190151
0.227642
0.276299
0.329778
0.385964
0.451836
0.534061
0.63937
0.777348
0.93906
1.08643
1.21466
1.34859
1.4666
1.52144
1.53026
1.4995
1.38432
1.20793
1.03199
0.879069
0.764813
0.698197
0.640821
0.592771
0.559617
0.531744
0.51041
0.497681
0.492751
0.491846
0.497946
0.519457
0.54127
0.54366
0.53974
0.524867
0.517285
0.51678
0.525087
0.551713
0.59661
0.661177
0.767183
0.868561
0.943968
0.993064
1.01367
1.01742
1.01581
1.01059
0.99142
0.965729
0.95933
0.968319
0.998901
1.07964
1.23097
1.39887
1.5128
1.57436
1.57556
1.48538
1.42506
1.43257
1.43162
1.40674
1.37886
1.37514
1.44416
1.46965
1.41166
1.18578
1.0849
1.12613
1.26815
1.47068
1.86562
2.93153
3.69539
4.06488
4.22928
3.92456
3.06995
2.6845
2.8046
3.98263
4.67762
4.32258
2.03334
1.1755
1.00623
1.02977
1.35872
1.51963
1.51591
1.48826
1.32703
1.14645
1.33573
1.27437
1.10479
1.04616
1.04026
0.963546
0.977267
1.07995
1.27682
1.50137
1.67973
1.75603
1.80036
1.85358
1.95674
2.19046
2.52046
2.82673
3.05837
3.24938
3.37029
3.49333
3.59844
3.69326
3.82924
3.88993
4.03257
4.1982
4.36484
4.63574
4.94825
5.05286
5.20328
5.35902
5.62765
6.21007
7.22154
7.79368
6.86094
7.05401
7.58691
8.07158
8.66188
8.95134
8.85088
8.43356
8.37148
8.62044
8.79182
8.61716
8.10895
7.16946
6.50795
6.48152
6.36079
6.06221
6.09037
6.19851
6.49666
7.38059
8.18793
10.4513
8.58846
6.97281
7.31327
8.62839
8.22305
0.605973
0.248435
0.110743
0.0792502
0.072458
0.0716202
0.0725336
0.0760023
0.0796482
0.0832869
0.0904464
0.0998432
0.110857
0.127176
0.148377
0.177168
0.21964
0.28166
0.362592
0.456443
0.543397
0.610906
0.649594
0.673977
0.70627
0.720724
0.722306
0.703319
0.640449
0.557673
0.457807
0.358068
0.286586
0.245053
0.221971
0.207679
0.201045
0.195911
0.192641
0.190186
0.187313
0.183434
0.17925
0.176263
0.174807
0.174248
0.174461
0.175365
0.175081
0.173185
0.168061
0.163975
0.163184
0.163753
0.167794
0.17547
0.192874
0.223072
0.247668
0.263152
0.270461
0.272939
0.273502
0.274507
0.278646
0.288184
0.309952
0.338394
0.363786
0.384047
0.411741
0.444393
0.494937
0.547232
0.59855
0.631654
0.632797
0.635317
0.645516
0.648236
0.639281
0.598366
0.551279
0.550317
0.591169
0.596604
0.605762
0.68012
0.824218
1.21207
2.1174
2.88149
3.18511
3.10317
2.79932
2.19724
1.52559
1.1572
1.09079
1.40742
2.11073
2.18525
1.32866
0.748468
0.615509
0.557655
0.564715
0.677573
0.786569
0.815126
1.00534
1.41067
1.44725
1.25079
1.21495
1.05117
0.937761
0.926957
0.797465
0.678871
0.656016
0.681747
0.762366
0.883799
0.931355
0.968134
0.991444
1.00991
1.06116
1.17736
1.32561
1.48506
1.62876
1.78303
1.85861
1.97917
2.03399
2.14479
2.20471
2.3076
2.36617
2.42979
2.572
2.80583
2.9061
3.04092
3.31852
4.05852
4.8321
5.20147
5.13921
4.37282
4.6252
5.19469
5.44134
6.01547
5.57809
5.30661
5.19949
5.10156
5.11917
5.24562
5.26047
5.16421
4.9045
4.7785
5.16839
5.302
4.96192
5.01143
5.09405
5.51172
6.11877
6.23918
7.81492
8.10613
6.5842
6.16168
6.07835
5.21766
1.08366
0.412293
0.156612
0.088902
0.0735505
0.0711047
0.0715935
0.074418
0.0787811
0.0848262
0.0937017
0.101342
0.112084
0.129828
0.156883
0.200057
0.273294
0.382695
0.450962
0.481688
0.48293
0.450116
0.430683
0.420726
0.403252
0.382871
0.351035
0.314708
0.267834
0.22824
0.191853
0.175931
0.170884
0.170396
0.17245
0.177966
0.182787
0.185378
0.18649
0.186723
0.186178
0.183171
0.177274
0.171672
0.166865
0.161795
0.158531
0.156261
0.153844
0.151629
0.148605
0.14671
0.146169
0.145675
0.144064
0.143055
0.144826
0.152601
0.15697
0.158033
0.157619
0.157508
0.160424
0.169076
0.187223
0.211796
0.241444
0.270706
0.282346
0.281446
0.275115
0.279525
0.303865
0.318225
0.321364
0.34925
0.375219
0.375445
0.381023
0.380509
0.37669
0.38133
0.367048
0.345553
0.350381
0.377102
0.455842
0.732856
1.40272
2.0179
2.40487
2.46552
2.15185
1.73286
1.3921
1.05704
0.838239
0.770623
0.77415
0.939424
1.2816
1.35877
1.1258
0.80511
0.595098
0.436711
0.381744
0.380508
0.409182
0.494531
0.733405
1.20006
1.45368
0.766006
0.762919
0.769948
0.80101
0.863709
0.779622
0.618583
0.537967
0.553057
0.641509
0.807714
0.858664
0.885142
0.914755
0.90349
0.890288
0.901063
0.950967
1.02045
1.09375
1.20091
1.24695
1.34832
1.42602
1.50186
1.56255
1.65358
1.71781
1.74769
1.85914
2.00103
2.0995
2.29914
2.54095
3.52582
4.40234
4.65014
4.41033
4.02035
4.11857
3.84145
3.85567
4.70869
4.71733
4.49333
4.42235
4.30741
4.22369
4.19049
4.22164
4.18864
4.03734
4.01435
4.47286
5.06095
4.75516
4.68336
4.65723
5.24529
5.65087
5.32836
4.69139
7.58889
6.80293
6.10384
5.08924
4.42266
1.67951
0.605949
0.209977
0.0990287
0.07668
0.0747566
0.0763118
0.0795159
0.0849111
0.0893839
0.0972137
0.107345
0.125431
0.160095
0.227051
0.33543
0.397597
0.416012
0.410015
0.368823
0.302753
0.2759
0.260933
0.244228
0.230757
0.213753
0.195232
0.180712
0.166731
0.161654
0.160954
0.163369
0.170451
0.179123
0.190786
0.201552
0.209222
0.214111
0.216509
0.217632
0.217724
0.21558
0.209081
0.198172
0.184562
0.170815
0.161241
0.15687
0.15509
0.154248
0.153427
0.152157
0.151398
0.149063
0.143962
0.14041
0.137739
0.136783
0.137309
0.137053
0.13568
0.134964
0.137034
0.145219
0.166259
0.182913
0.183415
0.17886
0.178241
0.183918
0.194746
0.209169
0.226472
0.235352
0.259067
0.309089
0.341321
0.340013
0.343503
0.335725
0.3112
0.297505
0.293941
0.297035
0.314603
0.36566
0.583278
1.27467
1.7013
2.00784
2.01931
1.71381
1.26647
0.997887
0.833825
0.75757
0.739236
0.736495
0.741662
0.861704
1.08318
1.14567
1.06352
0.88069
0.609119
0.364348
0.295009
0.271167
0.250234
0.275613
0.376159
0.480701
0.56847
0.472596
0.559453
0.648254
0.60929
0.582217
0.622268
0.565651
0.492927
0.529191
0.750331
0.942928
0.993555
0.959381
0.91473
0.889624
0.845518
0.812152
0.814958
0.834436
0.878325
0.946131
1.00373
1.06648
1.1621
1.22799
1.28692
1.36444
1.43083
1.45617
1.56992
1.67353
1.71218
1.94447
2.16451
2.80794
3.80503
4.28899
4.13269
3.75757
3.70315
3.14067
3.25521
3.82108
4.34957
4.37196
4.25822
4.06586
3.93535
3.72153
3.78251
3.84629
3.70777
3.415
3.6365
4.74491
4.65919
4.32567
4.15336
4.97459
5.77644
5.54675
4.31557
5.31886
6.48856
6.12669
4.97808
4.52673
2.37709
0.866643
0.300384
0.127166
0.0907641
0.0878907
0.0906085
0.092057
0.0922675
0.0962689
0.109079
0.133112
0.183645
0.275876
0.351732
0.377668
0.374838
0.339498
0.260474
0.213322
0.193932
0.184384
0.17918
0.173965
0.169508
0.162943
0.156027
0.153808
0.153384
0.154337
0.1584
0.165731
0.175273
0.184674
0.194995
0.204054
0.210777
0.214635
0.217377
0.220782
0.222251
0.222473
0.219938
0.212019
0.200826
0.187899
0.17636
0.163596
0.156404
0.152901
0.151462
0.150865
0.149645
0.14723
0.145875
0.145315
0.143475
0.142087
0.14101
0.140388
0.139924
0.137326
0.13491
0.136838
0.14597
0.148897
0.141529
0.133629
0.133213
0.14424
0.166941
0.184243
0.195933
0.215748
0.263781
0.311816
0.32033
0.330349
0.335932
0.328258
0.309768
0.290246
0.286784
0.296796
0.328326
0.425149
0.872984
1.48984
1.70135
1.68982
1.45717
1.1243
0.846886
0.718177
0.685485
0.69
0.687285
0.67044
0.672284
0.805595
0.963875
1.00156
0.977846
0.813514
0.480866
0.309373
0.287551
0.237489
0.21022
0.212724
0.235006
0.277579
0.404279
0.42568
0.501262
0.661225
0.590393
0.46279
0.471466
0.478581
0.482657
0.536391
0.875967
1.0589
1.0632
1.00212
0.836164
0.774339
0.816785
0.791383
0.750827
0.751486
0.788915
0.820197
0.898971
0.937961
1.01265
1.09319
1.15138
1.21585
1.27402
1.31019
1.42651
1.55201
1.51273
1.69002
2.01713
2.44555
3.17278
3.42024
3.311
3.04801
2.64203
2.58599
2.5304
3.36292
4.11331
4.38151
4.25998
4.04543
3.89309
3.5585
3.34882
3.65932
3.59145
3.17807
3.05522
4.16211
4.58867
4.19928
3.8804
4.80688
5.69513
5.76301
4.15868
4.16822
5.80509
5.81096
4.91107
4.58233
3.17594
1.02483
0.335468
0.143286
0.103072
0.0993558
0.102854
0.105359
0.108301
0.118072
0.148663
0.216051
0.307046
0.347565
0.352396
0.336534
0.278488
0.203022
0.1729
0.161584
0.158607
0.158347
0.158666
0.157962
0.153596
0.148389
0.145381
0.144537
0.144598
0.146572
0.151506
0.157431
0.163632
0.17001
0.175574
0.178221
0.17881
0.179062
0.181693
0.189756
0.199227
0.207158
0.210151
0.210145
0.203078
0.194115
0.188836
0.183419
0.17778
0.169973
0.16491
0.161033
0.152514
0.147296
0.143336
0.142044
0.143226
0.144189
0.144061
0.141303
0.139932
0.13841
0.132199
0.128706
0.13316
0.141242
0.136896
0.124953
0.121776
0.129346
0.153191
0.174555
0.188103
0.213293
0.265524
0.300577
0.313572
0.328961
0.338489
0.334415
0.326688
0.301972
0.290671
0.294633
0.327005
0.511506
1.21441
1.55325
1.51822
1.23543
0.993175
0.801515
0.674393
0.60495
0.570349
0.528513
0.497705
0.456825
0.443861
0.513234
0.604548
0.624447
0.606311
0.471581
0.329235
0.295501
0.288165
0.230332
0.209797
0.200227
0.185651
0.20314
0.312037
0.396315
0.460142
0.610918
0.575771
0.446876
0.431235
0.444438
0.505111
0.557018
0.736305
0.876498
0.910685
0.821271
0.663229
0.713481
0.863993
0.819094
0.741778
0.729727
0.760991
0.766774
0.793507
0.884
0.90677
0.971863
1.07413
1.11453
1.13063
1.1861
1.29953
1.4836
1.40503
1.51496
1.92778
2.22697
2.77033
2.93482
2.80561
2.4749
2.14423
2.28783
2.32111
2.68177
3.6509
4.19509
4.18176
4.03303
3.93033
3.65063
3.16602
3.36854
3.45232
3.09128
2.64797
3.30327
4.47626
4.14223
3.81437
4.74103
4.95992
4.99431
3.55737
3.71228
4.81548
5.14158
4.75696
4.39779
3.98456
1.05458
0.27367
0.121574
0.104534
0.103458
0.111833
0.128675
0.150267
0.180456
0.238643
0.283332
0.316083
0.32326
0.301235
0.240299
0.179616
0.159226
0.153532
0.153835
0.157808
0.158372
0.156208
0.150216
0.143658
0.14129
0.140381
0.140259
0.141178
0.143603
0.14691
0.150367
0.154163
0.158535
0.162482
0.163286
0.162748
0.160273
0.158588
0.158427
0.161068
0.166724
0.176354
0.187433
0.190856
0.190912
0.188609
0.186215
0.18577
0.186359
0.188346
0.18866
0.183462
0.172271
0.154978
0.14172
0.137383
0.135861
0.135205
0.134713
0.130534
0.129056
0.129873
0.11941
0.113198
0.118929
0.127839
0.122421
0.116307
0.117309
0.132218
0.157709
0.173583
0.199384
0.248518
0.287619
0.309365
0.315214
0.314173
0.320175
0.326269
0.319546
0.307729
0.313038
0.368585
0.710586
1.3651
1.48052
1.19829
0.859544
0.712726
0.628431
0.583341
0.527715
0.434591
0.378415
0.342291
0.308275
0.295185
0.30258
0.32923
0.338213
0.338353
0.316025
0.277294
0.277726
0.261072
0.233055
0.231178
0.195558
0.175051
0.179602
0.203057
0.316566
0.397535
0.433719
0.43688
0.429326
0.423288
0.423863
0.566691
0.607696
0.603998
0.570078
0.596341
0.606811
0.620348
0.753602
0.929756
0.869816
0.76756
0.73791
0.740651
0.739516
0.751079
0.819455
0.84196
0.873907
0.963861
1.05056
1.05709
1.09122
1.16206
1.37481
1.32116
1.45963
1.78821
2.08857
2.34168
2.36097
2.29526
2.13716
2.01509
2.08874
2.26867
2.21474
2.45362
2.86796
3.39128
3.83151
3.84046
3.68626
3.24602
2.77057
3.10277
2.92792
2.31787
2.60629
4.21341
4.02594
3.7465
4.57314
4.34712
4.65668
3.58983
3.24656
4.24379
4.62779
4.38303
3.87789
4.75647
1.09877
0.246613
0.113528
0.105813
0.115896
0.140423
0.175235
0.207476
0.242185
0.279529
0.290372
0.288204
0.266038
0.20545
0.163269
0.149178
0.145939
0.147381
0.153102
0.154235
0.152923
0.146077
0.142808
0.142316
0.142938
0.145198
0.1483
0.151234
0.152046
0.152098
0.152097
0.153403
0.156009
0.161895
0.16539
0.165523
0.163006
0.158027
0.156015
0.15549
0.156125
0.15973
0.169609
0.183094
0.186322
0.185527
0.183353
0.182701
0.183464
0.189449
0.192617
0.193805
0.193037
0.183838
0.1621
0.141504
0.134473
0.131905
0.129763
0.12419
0.114268
0.110961
0.111902
0.0999585
0.0943054
0.0981298
0.108585
0.106526
0.101464
0.105091
0.124202
0.141736
0.185893
0.246804
0.287208
0.304431
0.306846
0.305237
0.308841
0.31807
0.319669
0.326595
0.362023
0.493709
0.99015
1.38029
1.32272
0.881427
0.639264
0.56118
0.533365
0.511431
0.437927
0.33821
0.298632
0.27223
0.25273
0.244855
0.244871
0.255795
0.271992
0.278511
0.272306
0.251251
0.242979
0.229755
0.239787
0.238866
0.196339
0.172805
0.168025
0.175395
0.21785
0.344693
0.395671
0.389687
0.395903
0.42592
0.426542
0.557286
0.615324
0.59244
0.517091
0.530553
0.596094
0.620553
0.778061
0.87737
0.867816
0.811482
0.754624
0.736342
0.713797
0.731464
0.749754
0.781608
0.844033
0.866477
0.96274
1.02257
1.02343
1.08548
1.26048
1.2682
1.34915
1.41552
1.79484
2.03371
1.97944
1.97548
1.91464
1.92918
1.96699
2.15394
2.05197
1.96897
1.93788
2.03782
2.81694
3.44008
3.55989
3.26298
2.56755
2.55925
2.5031
2.19839
2.13163
3.71298
3.6684
3.52093
4.29425
4.26185
4.47237
3.43151
2.7818
3.67123
4.0772
3.92866
3.28146
5.62019
1.23719
0.248766
0.111453
0.10595
0.122024
0.160806
0.20041
0.235827
0.264927
0.278898
0.279331
0.257694
0.202619
0.158404
0.14548
0.142904
0.14413
0.148171
0.148636
0.146651
0.142851
0.142023
0.143111
0.147882
0.153894
0.157139
0.158213
0.158184
0.156196
0.151368
0.147997
0.147554
0.150099
0.157148
0.167309
0.172508
0.173351
0.171101
0.162645
0.157851
0.157048
0.157652
0.163703
0.178466
0.190357
0.192622
0.190551
0.181779
0.178077
0.178178
0.185291
0.19156
0.192872
0.18925
0.179315
0.155314
0.137179
0.130933
0.127608
0.123102
0.112048
0.103978
0.101534
0.099904
0.0897966
0.0862393
0.0893444
0.0926176
0.0909571
0.0938818
0.109545
0.132165
0.185065
0.263656
0.311777
0.330193
0.332589
0.330781
0.330465
0.333165
0.349808
0.396388
0.468687
0.653513
1.08906
1.24691
1.06464
0.653974
0.506634
0.469967
0.463611
0.447429
0.372199
0.285916
0.253437
0.237957
0.228452
0.223506
0.221361
0.226471
0.246749
0.253421
0.244501
0.230159
0.23396
0.22358
0.218857
0.214532
0.19747
0.171706
0.162901
0.162973
0.18281
0.259593
0.360914
0.375922
0.379855
0.432326
0.447003
0.501903
0.561267
0.538456
0.500621
0.522485
0.692947
0.752738
0.794399
0.752677
0.797677
0.792224
0.744897
0.711044
0.704098
0.719058
0.706943
0.738214
0.82102
0.813432
0.877576
0.963524
0.94648
0.978037
1.11709
1.20996
1.28931
1.24161
1.36388
1.63581
1.82558
1.94106
1.8694
1.87453
1.91847
1.71734
1.74801
1.76092
1.83392
1.73973
1.93178
2.60962
3.054
3.11883
2.54125
2.27302
2.20778
2.16088
1.96083
3.28444
3.41138
3.37276
4.01454
4.39563
4.24775
3.00075
2.43118
3.41466
3.75664
3.56026
3.03789
6.49996
1.42237
0.266661
0.108792
0.102196
0.123276
0.166013
0.211477
0.251644
0.265688
0.265052
0.246501
0.204467
0.157089
0.139286
0.135441
0.136707
0.144305
0.14752
0.147277
0.143128
0.140596
0.140385
0.142841
0.148575
0.151466
0.151577
0.149635
0.146605
0.144765
0.142536
0.142336
0.145337
0.154943
0.170419
0.182546
0.185159
0.184194
0.176712
0.165145
0.161641
0.162172
0.163018
0.165005
0.173134
0.187136
0.194155
0.194463
0.186977
0.172307
0.163971
0.163244
0.17525
0.184015
0.186458
0.182769
0.169693
0.142803
0.130871
0.125824
0.121031
0.113841
0.102593
0.0973077
0.096359
0.091287
0.084597
0.0837146
0.0862959
0.0870996
0.089554
0.102644
0.128578
0.189655
0.276992
0.330801
0.356872
0.364535
0.366609
0.370843
0.383788
0.412816
0.447694
0.535744
0.808451
1.06347
1.06882
0.801188
0.517025
0.430485
0.410243
0.403557
0.38085
0.307753
0.248189
0.227381
0.220002
0.21498
0.211474
0.206217
0.206935
0.213364
0.207345
0.194216
0.20067
0.224991
0.216825
0.180994
0.172052
0.181199
0.167441
0.15704
0.157164
0.169364
0.225494
0.300575
0.354086
0.374374
0.430292
0.46056
0.512058
0.521165
0.500065
0.501473
0.535369
0.757518
0.797
0.713018
0.607015
0.653563
0.705098
0.689612
0.667419
0.66971
0.674157
0.672621
0.703342
0.754347
0.768823
0.778516
0.842421
0.857315
0.929827
0.962279
1.06631
1.26134
1.17762
1.2188
1.3589
1.71209
2.00226
1.86401
1.82346
1.83613
1.6178
1.5789
1.69181
1.76572
1.72809
1.67437
1.97613
2.4358
2.52434
2.39737
2.1701
2.06155
2.14024
1.94303
3.03778
3.28443
3.36771
3.72248
4.40048
4.13815
3.05355
2.33291
2.91878
3.48633
3.36613
2.95914
7.5097
1.78333
0.334112
0.11265
0.101606
0.124427
0.16483
0.208783
0.248518
0.260947
0.257357
0.226003
0.172527
0.13412
0.124125
0.123403
0.128266
0.139785
0.145767
0.146334
0.14425
0.14022
0.13868
0.138416
0.139593
0.139541
0.139955
0.143231
0.144489
0.144423
0.142732
0.142574
0.147183
0.162055
0.179149
0.183264
0.183481
0.180714
0.174973
0.173972
0.179588
0.183604
0.183154
0.177255
0.174274
0.173739
0.179588
0.183318
0.184066
0.173973
0.156593
0.149913
0.1499
0.162707
0.174477
0.176599
0.172752
0.154664
0.132646
0.125147
0.120851
0.113415
0.105931
0.095986
0.0912488
0.0900518
0.0842807
0.0818979
0.0834478
0.0858904
0.0885998
0.100248
0.128021
0.19902
0.295461
0.350774
0.377558
0.386447
0.390727
0.400382
0.421229
0.450516
0.507202
0.651628
0.862253
0.948231
0.886773
0.594338
0.429863
0.385174
0.378769
0.37071
0.337665
0.264417
0.226405
0.212507
0.205577
0.19932
0.193816
0.189061
0.187028
0.184167
0.178748
0.175525
0.176841
0.194721
0.190786
0.174285
0.159142
0.158653
0.156813
0.149385
0.151269
0.15948
0.202639
0.280612
0.326978
0.370574
0.435464
0.458576
0.513198
0.509725
0.498258
0.514031
0.540323
0.682781
0.676733
0.546697
0.526187
0.57662
0.661344
0.658398
0.649919
0.649437
0.626924
0.616797
0.636486
0.653028
0.699389
0.730232
0.772138
0.812015
0.930855
0.919097
0.980248
1.21001
1.15633
1.16429
1.25351
1.64967
2.05236
1.83279
1.75655
1.7313
1.57131
1.50397
1.60222
1.73656
1.70226
1.61386
1.66813
1.94461
2.06303
2.30877
2.16665
1.9498
2.09827
1.93996
2.89238
3.26921
3.39338
3.44061
4.19859
4.00513
2.96311
2.24699
2.26753
3.08507
3.19225
2.94502
8.59224
2.18492
0.465412
0.127505
0.101181
0.118973
0.153802
0.197273
0.240943
0.25584
0.251172
0.224609
0.175234
0.130621
0.115964
0.112961
0.115168
0.123574
0.135465
0.139955
0.140371
0.137283
0.131813
0.124623
0.121652
0.121591
0.128169
0.143844
0.150502
0.15192
0.149056
0.14683
0.148111
0.159566
0.172707
0.175873
0.176467
0.176554
0.177911
0.18218
0.186254
0.187314
0.185116
0.176533
0.166619
0.160044
0.14955
0.146364
0.152564
0.157476
0.15383
0.143236
0.141261
0.144778
0.159688
0.166186
0.167348
0.160792
0.136127
0.12525
0.121429
0.113217
0.106086
0.0999641
0.0902681
0.0851957
0.0828934
0.0806202
0.0813551
0.0855293
0.0892672
0.100073
0.127792
0.199372
0.300247
0.366002
0.391736
0.401696
0.410273
0.429825
0.466855
0.52873
0.60302
0.718338
0.821052
0.8218
0.688238
0.460193
0.367583
0.346159
0.348459
0.348418
0.325753
0.254624
0.215321
0.199286
0.192421
0.189234
0.185633
0.182594
0.18061
0.17524
0.169885
0.169322
0.170539
0.1767
0.17965
0.173464
0.149589
0.146727
0.148107
0.143249
0.144839
0.154024
0.186576
0.259313
0.31459
0.384412
0.437061
0.461155
0.495803
0.503766
0.504699
0.519212
0.528007
0.502277
0.4815
0.460902
0.494495
0.591003
0.647123
0.643452
0.640061
0.639647
0.614358
0.593406
0.608152
0.634723
0.678262
0.715679
0.748152
0.790975
0.975802
0.920258
0.952319
1.15519
1.1191
1.1394
1.21798
1.59375
1.9856
1.7267
1.66239
1.65331
1.55582
1.47167
1.51495
1.66117
1.65872
1.58732
1.59622
1.73841
1.96614
2.31434
2.22909
1.87961
1.99495
1.93399
2.68365
3.3133
3.38257
3.23262
3.82139
3.72524
2.70414
2.09038
2.0472
2.5161
2.99186
2.99406
9.7889
2.59473
0.67863
0.1669
0.103483
0.10864
0.134916
0.170446
0.214073
0.244554
0.249773
0.230961
0.186347
0.136094
0.114998
0.107398
0.105652
0.1071
0.111578
0.116184
0.119251
0.119709
0.116872
0.112822
0.111579
0.112183
0.116768
0.12996
0.145086
0.149365
0.149313
0.148407
0.150876
0.157499
0.168597
0.174729
0.17661
0.177269
0.180103
0.181471
0.179453
0.169707
0.157628
0.141356
0.12611
0.123506
0.124319
0.121411
0.12125
0.124294
0.131718
0.133483
0.133182
0.137747
0.150361
0.16119
0.164557
0.163306
0.150254
0.128895
0.120248
0.115872
0.106096
0.10045
0.0923329
0.0838476
0.0795852
0.0787553
0.0795389
0.0862299
0.0942064
0.101791
0.120986
0.179972
0.292928
0.372874
0.414871
0.427247
0.440576
0.473112
0.528361
0.583589
0.642608
0.708227
0.722487
0.681372
0.508497
0.374173
0.321718
0.309184
0.312489
0.312981
0.299491
0.246779
0.207587
0.190848
0.186171
0.185711
0.18355
0.180236
0.178189
0.172943
0.168555
0.168599
0.170557
0.176694
0.179252
0.172241
0.148293
0.143444
0.142825
0.139155
0.142312
0.150777
0.179419
0.248622
0.303408
0.382928
0.438497
0.469506
0.493019
0.50459
0.511073
0.517252
0.485194
0.450301
0.431628
0.431278
0.468107
0.626283
0.607471
0.615457
0.617247
0.620886
0.60834
0.582874
0.598598
0.638789
0.675606
0.705361
0.750374
0.792996
1.02957
0.929155
0.942813
1.11175
1.09355
1.12669
1.19764
1.39921
1.4423
1.37795
1.48607
1.58306
1.53363
1.45451
1.48269
1.60448
1.6108
1.54981
1.58464
1.69643
1.9983
2.36262
2.25666
1.81991
1.81564
1.89333
2.3983
3.31351
3.31077
3.0662
3.76878
3.71155
2.66307
2.06387
1.99076
2.15423
2.83334
2.99855
11.1885
3.01306
0.918631
0.254669
0.113704
0.102048
0.110812
0.140435
0.179683
0.220506
0.237623
0.235129
0.2106
0.158821
0.122989
0.109728
0.104532
0.103013
0.103288
0.104605
0.106099
0.107557
0.108462
0.109241
0.110226
0.111752
0.11545
0.124781
0.138719
0.147143
0.15082
0.152549
0.154489
0.157781
0.163709
0.169698
0.17117
0.168522
0.163143
0.155452
0.145621
0.130374
0.121169
0.115909
0.111324
0.110336
0.111685
0.111511
0.111781
0.112609
0.121536
0.125266
0.124991
0.125807
0.130656
0.145452
0.156217
0.158839
0.154278
0.136935
0.123157
0.117789
0.109924
0.102509
0.0940789
0.0833535
0.0774097
0.0758856
0.0776008
0.0867634
0.0966183
0.103933
0.117329
0.153185
0.267448
0.3721
0.428532
0.45812
0.477474
0.514771
0.558006
0.601236
0.639029
0.64685
0.624846
0.527671
0.394007
0.319557
0.290063
0.286843
0.291636
0.291978
0.280748
0.242492
0.20716
0.189059
0.184014
0.185589
0.185756
0.182384
0.178462
0.173042
0.17004
0.170436
0.173276
0.180857
0.181409
0.174151
0.149478
0.142993
0.141711
0.13676
0.138814
0.15031
0.176355
0.239672
0.299915
0.378173
0.455343
0.489752
0.502634
0.518663
0.516444
0.502058
0.461536
0.429705
0.410012
0.396682
0.431048
0.56015
0.497338
0.523279
0.554031
0.572685
0.595547
0.580144
0.58985
0.653412
0.678719
0.695532
0.762352
0.806626
1.02678
0.929603
0.929387
1.10451
1.08528
1.09921
1.18146
1.25049
1.21879
1.22054
1.35262
1.51502
1.48574
1.44318
1.48257
1.54603
1.52635
1.48547
1.55791
1.70902
2.12499
2.35903
2.25003
1.81193
1.76651
1.88921
2.21061
3.2514
3.13829
3.00745
3.89728
3.85738
2.51414
1.96933
1.92756
2.13086
2.72676
2.81056
12.8953
3.52185
1.25641
0.421314
0.154467
0.10501
0.10168
0.111202
0.135217
0.171916
0.212783
0.229273
0.224604
0.206567
0.16456
0.128155
0.112767
0.107502
0.106118
0.105983
0.106624
0.107475
0.108568
0.110506
0.114234
0.119236
0.125407
0.133051
0.143415
0.151968
0.15768
0.159021
0.158494
0.159048
0.160459
0.160385
0.161023
0.161101
0.154361
0.1384
0.127867
0.121891
0.116577
0.112133
0.109424
0.108565
0.109656
0.108394
0.108017
0.10893
0.114159
0.117404
0.116183
0.115603
0.117518
0.122627
0.133722
0.142189
0.144813
0.137141
0.123548
0.118578
0.11262
0.105145
0.0966866
0.084902
0.0770123
0.0746727
0.0749391
0.0837794
0.0966351
0.104207
0.115248
0.138007
0.223971
0.356663
0.431818
0.471313
0.502773
0.536025
0.569023
0.596841
0.599903
0.58465
0.523083
0.424217
0.343091
0.295451
0.278186
0.278883
0.284599
0.286588
0.278237
0.247225
0.214395
0.196329
0.18788
0.185662
0.185173
0.183462
0.178979
0.174653
0.173415
0.174161
0.176994
0.183673
0.184662
0.18034
0.153372
0.143457
0.139625
0.136558
0.138195
0.147893
0.177795
0.23203
0.297356
0.383002
0.481901
0.516602
0.532264
0.531038