/*--------------------------------*- C++ -*----------------------------------*\
| =========                 |                                                 |
| \\      /  F ield         | OpenFOAM: The Open Source CFD Toolbox           |
|  \\    /   O peration     | Version:  dev                                   |
|   \\  /    A nd           | Web:      http://www.openfoam.org               |
|    \\/     M anipulation  |                                                 |
\*---------------------------------------------------------------------------*/
FoamFile
{
    version     2.0;
    format      ascii;
    class       volScalarField;
    object      muSgs;
    location    "9.154";
}
// * * * * * * * * * * * * * * * * * * * * * * * * * * * * * * * * * * * * * //

dimensions      [1 -1 -1 0 0 0 0];

internalField   nonuniform List<scalar> 
12225
(
0.000225067
0.000237002
0.000192319
0.000193988
0.000168634
0.000203413
0.00018311
0.000229223
0.000203799
0.00025814
0.000223133
0.000295761
0.000255379
0.000341541
0.000333348
0.000359085
0.000461375
0.000521079
0.000102091
0.000182857
0.000169825
0.000181305
0.000156017
0.000169103
0.00015027
0.000165954
0.000153579
0.000167099
0.000156261
0.000161738
0.000153349
0.000153293
0.000151248
0.000147757
0.000153282
0.000166495
2.84922e-05
0.000107298
0.000115076
0.000144626
0.000132556
0.000144063
0.000132747
0.000134357
0.000128746
0.000125171
0.000122934
0.000112469
0.000108809
9.69949e-05
9.47455e-05
8.83301e-05
9.3946e-05
0.00011729
9.10476e-06
4.94282e-05
5.9691e-05
8.04963e-05
8.62731e-05
8.913e-05
0.000100419
9.39257e-05
0.000100559
9.11449e-05
9.25655e-05
8.27428e-05
7.96896e-05
7.07019e-05
6.93064e-05
6.68742e-05
7.52892e-05
0.0001182
3.70331e-06
2.27436e-05
3.01091e-05
4.02865e-05
5.48637e-05
5.80757e-05
6.73696e-05
6.52065e-05
6.93924e-05
6.40308e-05
6.52214e-05
5.96128e-05
5.91503e-05
5.33762e-05
5.36985e-05
5.48186e-05
6.60147e-05
0.000100097
4.92749e-06
2.05045e-05
2.19488e-05
2.76213e-05
3.35701e-05
3.69003e-05
4.30235e-05
4.21549e-05
4.51666e-05
4.18496e-05
4.40691e-05
4.09556e-05
4.25405e-05
3.86478e-05
3.94822e-05
3.98637e-05
6.12694e-05
7.09843e-05
3.94152e-06
7.93112e-06
1.21936e-05
1.40623e-05
1.91341e-05
2.0543e-05
2.5204e-05
2.50078e-05
2.80686e-05
2.65151e-05
2.91581e-05
2.75682e-05
2.96385e-05
2.72892e-05
2.89067e-05
2.9033e-05
3.77443e-05
6.12431e-05
3.66265e-06
4.9646e-06
7.10085e-06
8.42446e-06
1.13015e-05
1.24573e-05
1.51623e-05
1.55334e-05
1.73386e-05
1.70297e-05
1.85787e-05
1.81927e-05
1.93675e-05
1.85926e-05
1.97105e-05
1.98929e-05
2.55615e-05
2.94696e-05
3.82575e-06
5.89258e-06
7.85404e-06
9.36136e-06
1.15193e-05
1.28569e-05
1.49926e-05
1.55625e-05
1.68275e-05
1.69316e-05
1.7804e-05
1.7907e-05
1.86515e-05
1.84312e-05
1.90936e-05
1.92691e-05
2.1241e-05
2.39397e-05
3.77095e-06
8.95409e-06
1.05656e-05
1.35823e-05
1.44411e-05
1.6269e-05
1.69979e-05
1.7938e-05
1.85304e-05
1.84907e-05
1.91411e-05
1.92206e-05
1.99521e-05
1.97232e-05
2.00751e-05
1.97926e-05
2.01285e-05
2.0704e-05
5.15047e-06
1.28803e-05
1.5342e-05
2.02913e-05
2.1073e-05
2.28244e-05
2.272e-05
2.29721e-05
2.26843e-05
2.24958e-05
2.23777e-05
2.24229e-05
2.23441e-05
2.22428e-05
2.17759e-05
2.13849e-05
2.09699e-05
2.07926e-05
8.4971e-06
1.98286e-05
2.36418e-05
2.9726e-05
3.08289e-05
3.24406e-05
3.20273e-05
3.17173e-05
3.09283e-05
3.02705e-05
2.95684e-05
2.88953e-05
2.83346e-05
2.75413e-05
2.65438e-05
2.48991e-05
2.34136e-05
2.24891e-05
1.80124e-05
2.99143e-05
3.43035e-05
4.0772e-05
4.21711e-05
4.37616e-05
4.31213e-05
4.23369e-05
4.12619e-05
4.01829e-05
3.8991e-05
3.7946e-05
3.67213e-05
3.52679e-05
3.32124e-05
3.08237e-05
2.83462e-05
2.66172e-05
3.12695e-05
4.17254e-05
4.88538e-05
5.55818e-05
5.77664e-05
5.88346e-05
5.79877e-05
5.68166e-05
5.53765e-05
5.36009e-05
5.15414e-05
4.97344e-05
4.75322e-05
4.52014e-05
4.24998e-05
3.98728e-05
3.69847e-05
3.42833e-05
4.53024e-05
5.74444e-05
6.87538e-05
7.6669e-05
7.99153e-05
8.06476e-05
7.95296e-05
7.79411e-05
7.60087e-05
7.33684e-05
6.97623e-05
6.60648e-05
6.20773e-05
5.80602e-05
5.37996e-05
4.98523e-05
4.5926e-05
4.25562e-05
6.2537e-05
7.93921e-05
9.25507e-05
9.92648e-05
0.00010101
0.000100025
9.80077e-05
9.55389e-05
9.17156e-05
8.67662e-05
8.17749e-05
7.67465e-05
7.15652e-05
6.64754e-05
6.12663e-05
5.65142e-05
5.18898e-05
4.798e-05
7.6821e-05
9.32849e-05
0.000106359
0.000112483
0.000113681
0.00011216
0.000109785
0.000106833
0.000102103
9.62295e-05
9.04106e-05
8.46002e-05
7.86514e-05
7.28504e-05
6.69657e-05
6.16319e-05
5.64935e-05
5.2184e-05
7.59767e-05
9.3317e-05
0.000106674
0.000112871
0.000114084
0.000112573
0.000110187
0.000107228
0.000102526
9.66083e-05
9.07599e-05
8.49274e-05
7.89475e-05
7.31021e-05
6.71659e-05
6.17952e-05
5.66076e-05
5.22233e-05
6.31002e-05
8.03836e-05
9.38869e-05
0.000100674
0.000102625
0.000101765
9.97319e-05
9.72527e-05
9.35223e-05
8.8318e-05
8.30553e-05
7.78091e-05
7.24412e-05
6.72017e-05
6.18349e-05
5.69662e-05
5.22265e-05
4.8205e-05
4.70044e-05
6.10397e-05
7.30271e-05
8.03065e-05
8.34804e-05
8.38086e-05
8.25892e-05
8.08681e-05
7.88095e-05
7.54889e-05
7.11798e-05
6.69179e-05
6.25353e-05
5.82609e-05
5.3793e-05
4.97299e-05
4.57057e-05
4.22793e-05
3.36437e-05
4.38236e-05
5.22698e-05
5.77759e-05
6.06269e-05
6.11682e-05
6.04015e-05
5.91753e-05
5.76825e-05
5.54322e-05
5.24544e-05
4.94381e-05
4.63117e-05
4.33727e-05
4.02979e-05
3.75657e-05
3.47787e-05
3.23616e-05
2.19417e-05
2.97377e-05
3.71466e-05
4.21365e-05
4.48764e-05
4.57465e-05
4.52309e-05
4.42042e-05
4.29165e-05
4.10473e-05
3.8474e-05
3.62973e-05
3.44684e-05
3.29383e-05
3.13217e-05
2.98506e-05
2.82693e-05
2.6934e-05
1.488e-05
1.93244e-05
2.44075e-05
2.93831e-05
3.19517e-05
3.23214e-05
3.17683e-05
3.14154e-05
3.11404e-05
3.07709e-05
3.03728e-05
2.99618e-05
2.94381e-05
2.87587e-05
2.78697e-05
2.68853e-05
2.57487e-05
2.47855e-05
8.37904e-06
1.30787e-05
1.68096e-05
1.96111e-05
2.12506e-05
2.27012e-05
2.457e-05
2.58434e-05
2.67093e-05
2.72521e-05
2.77186e-05
2.80397e-05
2.81355e-05
2.7855e-05
2.73764e-05
2.67969e-05
2.60332e-05
2.53656e-05
5.03774e-06
7.20063e-06
1.06225e-05
1.46331e-05
1.7264e-05
2.02426e-05
2.35635e-05
2.64953e-05
2.85339e-05
2.99854e-05
3.12963e-05
3.22147e-05
3.2789e-05
3.29351e-05
3.26661e-05
3.22495e-05
3.16991e-05
3.1259e-05
2.36474e-06
6.42381e-06
1.21064e-05
1.87639e-05
2.47325e-05
3.08019e-05
3.64013e-05
4.06276e-05
4.32259e-05
4.48633e-05
4.63749e-05
4.73188e-05
4.76837e-05
4.75306e-05
4.68936e-05
4.61167e-05
4.52625e-05
4.46445e-05
4.68337e-06
1.83724e-05
3.40127e-05
4.71632e-05
5.64868e-05
6.42926e-05
7.03994e-05
7.37599e-05
7.50384e-05
7.51957e-05
7.53374e-05
7.49531e-05
7.3915e-05
7.25186e-05
7.09885e-05
6.93477e-05
6.77677e-05
6.63264e-05
1.95274e-05
5.93675e-05
9.35017e-05
0.000109171
0.000118697
0.000123234
0.00012454
0.000123173
0.000120687
0.000118029
0.000115299
0.000112337
0.000108811
0.000105413
0.00010202
9.86462e-05
9.54362e-05
9.23592e-05
8.1899e-05
0.000165353
0.000187755
0.000190223
0.000184799
0.000178612
0.000171
0.000163467
0.000156699
0.000150167
0.000144236
0.000138258
0.00013271
0.000127511
0.000122534
0.000117655
0.00011318
0.000108018
0.00023577
0.000269723
0.000249267
0.000216961
0.000197214
0.000187405
0.000182652
0.000180086
0.000178799
0.000177867
0.000176335
0.000174375
0.000171926
0.000168995
0.000165558
0.000161784
0.000157339
0.00015102
2.34717e-05
2.37797e-05
2.44194e-05
2.53961e-05
2.67846e-05
2.84696e-05
3.03794e-05
3.24388e-05
3.48284e-05
3.76197e-05
4.07929e-05
4.43445e-05
4.82083e-05
5.22053e-05
5.64472e-05
6.13107e-05
6.68153e-05
7.26329e-05
7.84136e-05
8.40525e-05
8.99069e-05
9.65979e-05
0.000104265
0.000112301
0.000120408
0.000129173
0.000139002
0.00014953
0.000160101
0.000170307
0.000179918
0.000188464
0.000195746
0.000201684
0.000206208
0.000209778
0.000212795
0.000215326
0.00021751
0.000219473
0.000221147
0.00022262
0.000224116
0.000225581
0.000227098
0.000228818
0.000230711
0.000232923
0.00023465
0.000235455
0.000235745
0.000236414
0.000237614
0.000239147
0.000241422
0.000244103
0.000247225
0.000251331
0.000254704
0.000257274
0.000259295
0.000260798
0.000261812
0.00026242
0.000262621
0.000262208
0.000261471
0.000261073
0.000261414
0.000262441
0.000264976
0.00026763
0.000269516
0.000268996
0.000266149
0.000261548
0.000257848
0.000256968
0.000256731
0.000253564
0.000249646
0.000247804
0.000248148
0.000248095
0.000245335
0.00024084
0.000239325
0.000243459
0.000253393
0.000262596
0.000267482
0.000268246
0.000268318
0.000266954
0.000264654
0.000272152
0.000296327
0.000311192
0.000316311
0.000321567
0.000340771
0.000390875
0.000439047
0.000442508
0.000398153
0.000326537
0.000292155
0.000275019
0.000258957
0.00024154
0.000222836
0.000202352
0.000201092
0.000193372
0.000184842
0.000180475
0.000183312
0.00019168
0.000205142
0.00022986
0.000266466
0.000312708
0.000342042
0.000354547
0.000357532
0.000358876
0.000365427
0.000376601
0.000390434
0.000397674
0.000401406
0.000400206
0.000401648
0.000403807
0.000411079
0.000420473
0.000433714
0.000446069
0.00046171
0.00047476
0.000490817
0.000506497
0.000522228
0.000532964
0.000548758
0.0005569
0.000560038
0.000563917
0.000574464
0.00059852
0.000623041
0.000630536
0.000642431
0.000652877
0.000667371
0.00070646
0.000729335
0.000736634
0.000745158
0.000760966
0.000776496
0.000778739
0.000756402
0.000716545
0.000667948
0.000636943
0.000644562
0.000663496
0.000663941
0.000642665
0.000575437
0.000590228
0.000672536
0.000708502
0.000731942
0.000787278
0.000772688
0.000788072
0.000778924
0.00082656
4.30569e-05
3.16578e-05
2.58923e-05
2.45855e-05
2.45061e-05
2.48588e-05
2.55608e-05
2.64461e-05
2.73915e-05
2.86045e-05
3.01982e-05
3.19815e-05
3.41038e-05
3.67175e-05
3.99182e-05
4.40217e-05
4.86777e-05
5.31876e-05
5.75414e-05
6.24015e-05
6.81856e-05
7.5248e-05
8.35405e-05
9.18513e-05
9.86944e-05
0.00010459
0.000110422
0.000115163
0.000117148
0.000117665
0.000116369
0.000111579
0.000104201
9.65291e-05
8.94817e-05
8.40387e-05
8.08359e-05
7.77547e-05
7.51689e-05
7.34014e-05
7.18682e-05
7.07282e-05
7.02306e-05
7.02311e-05
7.04825e-05
7.1365e-05
7.33189e-05
7.48025e-05
7.50988e-05
7.4885e-05
7.40223e-05
7.39613e-05
7.44428e-05
7.56226e-05
7.79904e-05
8.1436e-05
8.62417e-05
9.31845e-05
9.91307e-05
0.00010342
0.000106254
0.000107689
0.000108397
0.000108942
0.000109343
0.000108886
0.000108122
0.000108356
0.000109457
0.000111816
0.00011695
0.000125442
0.000134223
0.000140238
0.000143887
0.000145101
0.000141812
0.000139866
0.000140863
0.000141306
0.000140765
0.000140358
0.000140911
0.000144571
0.000146004
0.000143461
0.00013247
0.000128187
0.000131842
0.000141702
0.000154593
0.000174619
0.000218295
0.000246496
0.000259598
0.000263934
0.000253544
0.000224003
0.000212813
0.000221401
0.000265042
0.000280201
0.000264202
0.000184118
0.000145077
0.000135919
0.000136539
0.000157532
0.000167726
0.000169619
0.000169228
0.000162995
0.000156104
0.000163103
0.000161855
0.000149264
0.000144045
0.000143577
0.000139056
0.000139696
0.000147199
0.000162539
0.000180926
0.000195807
0.000203411
0.000207829
0.000211997
0.00021951
0.000233796
0.000251447
0.000266572
0.00027876
0.000289841
0.000296598
0.000302661
0.000307534
0.000314733
0.000321877
0.000328754
0.000336868
0.000348888
0.000357162
0.000372927
0.000387368
0.000391429
0.000406236
0.00040613
0.00041403
0.000432929
0.000467292
0.00048602
0.000429928
0.00046309
0.00048633
0.000494091
0.000527642
0.000556129
0.000572203
0.000581272
0.000593546
0.000608742
0.000617286
0.000614715
0.000600981
0.000581947
0.000578451
0.000599494
0.000614576
0.000591643
0.000556264
0.000549171
0.000582474
0.000640575
0.00063514
0.000654314
0.000677309
0.00063752
0.000633751
0.00065271
0.000661871
6.51956e-05
4.29174e-05
2.89343e-05
2.45882e-05
2.36222e-05
2.35908e-05
2.38429e-05
2.45416e-05
2.52905e-05
2.60372e-05
2.73512e-05
2.90122e-05
3.08168e-05
3.3115e-05
3.5647e-05
3.8914e-05
4.35239e-05
4.95304e-05
5.64024e-05
6.35385e-05
6.9519e-05
7.35802e-05
7.59469e-05
7.75814e-05
7.95726e-05
8.04974e-05
8.06439e-05
7.92685e-05
7.52719e-05
6.9833e-05
6.29347e-05
5.55569e-05
5.00132e-05
4.66486e-05
4.46612e-05
4.35052e-05
4.30115e-05
4.26218e-05
4.24423e-05
4.2334e-05
4.21605e-05
4.18811e-05
4.15746e-05
4.14305e-05
4.1446e-05
4.15658e-05
4.17956e-05
4.20752e-05
4.22237e-05
4.21249e-05
4.16309e-05
4.14062e-05
4.15588e-05
4.18578e-05
4.26373e-05
4.38365e-05
4.63871e-05
5.03092e-05
5.31137e-05
5.48626e-05
5.57249e-05
5.6108e-05
5.63222e-05
5.66415e-05
5.73648e-05
5.87085e-05
6.12056e-05
6.41974e-05
6.67979e-05
6.89039e-05
7.19057e-05
7.53181e-05
7.99164e-05
8.4506e-05
8.8974e-05
9.17226e-05
9.22256e-05
9.30504e-05
9.4611e-05
9.54273e-05
9.50505e-05
9.21537e-05
8.89161e-05
8.95169e-05
9.33399e-05
9.40306e-05
9.52426e-05
0.000102382
0.000113488
0.000138299
0.000184106
0.000215731
0.000227329
0.000226324
0.000214935
0.000189591
0.000156602
0.000138755
0.000137287
0.000159802
0.0001928
0.000193455
0.000147424
0.000113255
0.00010334
9.78475e-05
9.84149e-05
0.000110462
0.000120756
0.000122712
0.000136255
0.000164611
0.000173633
0.000151892
0.000153699
0.000144004
0.000136147
0.000136035
0.00012822
0.000118631
0.000117079
0.000118055
0.000124617
0.000136117
0.000142593
0.00014684
0.000148727
0.000150205
0.000154742
0.000166169
0.000179219
0.000191217
0.000201263
0.000211952
0.000218493
0.000228357
0.000233068
0.000240228
0.000245854
0.00025181
0.000258758
0.000264128
0.000276172
0.00029822
0.000295402
0.000318771
0.000326405
0.000350686
0.000364925
0.000378577
0.000374115
0.000345214
0.000369438
0.000382744
0.000375495
0.000416665
0.000432336
0.00044708
0.000452279
0.000459476
0.000476629
0.00049352
0.000501915
0.000505345
0.00050509
0.000504455
0.000522704
0.000555894
0.000549058
0.000522143
0.000524279
0.00055915
0.000569069
0.000515488
0.000536929
0.000610925
0.00060729
0.000575426
0.000567925
0.000557638
8.67947e-05
5.49993e-05
3.42683e-05
2.59855e-05
2.37958e-05
2.35382e-05
2.37416e-05
2.43713e-05
2.53095e-05
2.64591e-05
2.78219e-05
2.89271e-05
3.05558e-05
3.3004e-05
3.6414e-05
4.13316e-05
4.86745e-05
5.79561e-05
6.31287e-05
6.45948e-05
6.45632e-05
6.24504e-05
6.1291e-05
6.0719e-05
5.95184e-05
5.78894e-05
5.5251e-05
5.20268e-05
4.77537e-05
4.39845e-05
4.0499e-05
3.91899e-05
3.89146e-05
3.90329e-05
3.94924e-05
4.03283e-05
4.10038e-05
4.14132e-05
4.16807e-05
4.18367e-05
4.18741e-05
4.16186e-05
4.10255e-05
4.0482e-05
4.00338e-05
3.95345e-05
3.9276e-05
3.91117e-05
3.89171e-05
3.87634e-05
3.85399e-05
3.85343e-05
3.86802e-05
3.87519e-05
3.87105e-05
3.87805e-05
3.93217e-05
4.07376e-05
4.15611e-05
4.1987e-05
4.2215e-05
4.24489e-05
4.30894e-05
4.45904e-05
4.73446e-05
5.05105e-05
5.37408e-05
5.65759e-05
5.76221e-05
5.77197e-05
5.7724e-05
5.90985e-05
6.21709e-05
6.38457e-05
6.48806e-05
6.81792e-05
7.07729e-05
7.13892e-05
7.24585e-05
7.24817e-05
7.26768e-05
7.38094e-05
7.23836e-05
7.05397e-05
7.17436e-05
7.4844e-05
8.29438e-05
0.000106858
0.000149175
0.000179318
0.000195314
0.000198454
0.000186664
0.00016777
0.000150003
0.000130325
0.000117637
0.000114621
0.000115699
0.000129418
0.000150592
0.000153165
0.000137465
0.000117105
0.00010165
8.74667e-05
8.2289e-05
8.25243e-05
8.53468e-05
9.22779e-05
0.000112989
0.00014764
0.000164749
0.000119447
0.000119718
0.000121425
0.000125253
0.000131538
0.000127066
0.00011332
0.000107561
0.00010951
0.00011623
0.000129048
0.000134057
0.000136318
0.000140735
0.000141182
0.000138398
0.000140065
0.000145355
0.000153815
0.000160734
0.000171307
0.00017575
0.00018526
0.000191993
0.000199677
0.000202942
0.000210202
0.000216114
0.000218734
0.000222798
0.000250563
0.000240726
0.000269868
0.000292016
0.00033219
0.000331682
0.000333101
0.000331376
0.000350176
0.000342237
0.000327856
0.000327557
0.000365585
0.000393442
0.000407082
0.000401314
0.000398723
0.000412682
0.00043384
0.000450915
0.000461378
0.000461647
0.000453546
0.000455075
0.000507639
0.000526929
0.00052049
0.000525099
0.000559883
0.000545882
0.00053115
0.000440638
0.00055815
0.000598319
0.000573777
0.000535302
0.000509632
0.000107714
6.63485e-05
3.95509e-05
2.73734e-05
2.43167e-05
2.41919e-05
2.46013e-05
2.52702e-05
2.62678e-05
2.68539e-05
2.79423e-05
2.95005e-05
3.2162e-05
3.67321e-05
4.42748e-05
5.41475e-05
5.89389e-05
5.99795e-05
5.90892e-05
5.55385e-05
5.0562e-05
4.85031e-05
4.71922e-05
4.56791e-05
4.43094e-05
4.25661e-05
4.06628e-05
3.91212e-05
3.77691e-05
3.74755e-05
3.7597e-05
3.81549e-05
3.92654e-05
4.05363e-05
4.20546e-05
4.33759e-05
4.43047e-05
4.49341e-05
4.53077e-05
4.55359e-05
4.56414e-05
4.54882e-05
4.48656e-05
4.36892e-05
4.22332e-05
4.07682e-05
3.98232e-05
3.9497e-05
3.94016e-05
3.94081e-05
3.9396e-05
3.92865e-05
3.92026e-05
3.88875e-05
3.83433e-05
3.80281e-05
3.78481e-05
3.79812e-05
3.84183e-05
3.87713e-05
3.89262e-05
3.89754e-05
3.93883e-05
4.08626e-05
4.40348e-05
4.57332e-05
4.53273e-05
4.45139e-05
4.47342e-05
4.62468e-05
4.86331e-05
5.13083e-05
5.40014e-05
5.55503e-05
5.88513e-05
6.45804e-05
6.80405e-05
6.85373e-05
6.92852e-05
6.86753e-05
6.65613e-05
6.52301e-05
6.4811e-05
6.55442e-05
6.78627e-05
7.34399e-05
9.42695e-05
0.000140612
0.000163471
0.000177854
0.000179104
0.00016485
0.000142023
0.000125907
0.00011504
0.000110734
0.000110428
0.000110165
0.000111344
0.000122619
0.000137891
0.000141261
0.000135887
0.000123583
0.000102194
7.94808e-05
7.20251e-05
6.9434e-05
6.68089e-05
6.90802e-05
8.09262e-05
9.13333e-05
9.99577e-05
9.41016e-05
0.000103321
0.000111172
0.000109672
0.000108324
0.000113536
0.000108315
0.000101398
0.000105447
0.000124874
0.00013814
0.000144025
0.00014008
0.00013609
0.000137947
0.00013358
0.000130965
0.000130848
0.000135838
0.000141481
0.000148649
0.000153136
0.000161593
0.000166557
0.000174844
0.000182738
0.000186213
0.000190303
0.000197314
0.000196005
0.000223075
0.000209664
0.000233171
0.000262817
0.000303615
0.000317022
0.000309844
0.000289908
0.000300403
0.000326581
0.000316027
0.000329582
0.000345917
0.000382362
0.000398923
0.000389142
0.000378621
0.000374896
0.000383559
0.000411616
0.000434715
0.000439289
0.000415975
0.000391589
0.000457897
0.000505272
0.000504538
0.000509677
0.000566407
0.000572604
0.000580114
0.000452215
0.000472106
0.000565891
0.000571817
0.000531593
0.000522063
0.000127861
7.89998e-05
4.71294e-05
3.10451e-05
2.64778e-05
2.62569e-05
2.67913e-05
2.6883e-05
2.69246e-05
2.76659e-05
2.96162e-05
3.30964e-05
3.93663e-05
4.86838e-05
5.51266e-05
5.68394e-05
5.60208e-05
5.26083e-05
4.55929e-05
4.16735e-05
3.99332e-05
3.90276e-05
3.85877e-05
3.8156e-05
3.77482e-05
3.71054e-05
3.64757e-05
3.63967e-05
3.65089e-05
3.68564e-05
3.75865e-05
3.86996e-05
4.01053e-05
4.1405e-05
4.27125e-05
4.38048e-05
4.45793e-05
4.50977e-05
4.55514e-05
4.60359e-05
4.62802e-05
4.64252e-05
4.62417e-05
4.54397e-05
4.42862e-05
4.29782e-05
4.17811e-05
4.04107e-05
3.9714e-05
3.94488e-05
3.94484e-05
3.94826e-05
3.93481e-05
3.90843e-05
3.89759e-05
3.89414e-05
3.88001e-05
3.86496e-05
3.86205e-05
3.87452e-05
3.89997e-05
3.87916e-05
3.85332e-05
3.90322e-05
4.0557e-05
4.10057e-05
3.97997e-05
3.8638e-05
3.87844e-05
4.09723e-05
4.48847e-05
4.79268e-05
5.00957e-05
5.32917e-05
5.94871e-05
6.45001e-05
6.58467e-05
6.76005e-05
6.82991e-05
6.77486e-05
6.63702e-05
6.42887e-05
6.4296e-05
6.60269e-05
6.95431e-05
7.98164e-05
0.000115614
0.000151327
0.000162025
0.000162691
0.000151232
0.000132584
0.000114591
0.000105692
0.000103742
0.0001048
0.000104832
0.000103974
0.000105396
0.000116573
0.000127447
0.00013096
0.000129568
0.000117241
8.95881e-05
7.30198e-05
7.08452e-05
6.50294e-05
6.21388e-05
6.2133e-05
6.52041e-05
7.00461e-05
8.46228e-05
8.76431e-05
9.81082e-05
0.000113032
0.000109242
9.69486e-05
0.000100291
0.000102095
0.000103902
0.000106079
0.000135534
0.000148195
0.00014849
0.000147345
0.00013421
0.000130487
0.000133981
0.000131879
0.000125196
0.000125422
0.000129568
0.000136138
0.000141164
0.000148796
0.000154401
0.00015871
0.000167522
0.000174195
0.000174573
0.000181158
0.000179894
0.000208727
0.000194254
0.000201149
0.000240323
0.000286963
0.000298464
0.000290039
0.000274059
0.000270648
0.00027282
0.00028751
0.000288596
0.000328234
0.000369875
0.000387728
0.000382737
0.000381538
0.00036991
0.000352598
0.000358855
0.000397747
0.000419878
0.000404475
0.000353638
0.000401125
0.000482759
0.000495404
0.000492555
0.000547069
0.000527628
0.00055586
0.000429346
0.00043057
0.000509292
0.000551545
0.000528615
0.000511471
0.000147852
8.56374e-05
4.97185e-05
3.28838e-05
2.8118e-05
2.7744e-05
2.81428e-05
2.84969e-05
2.92834e-05
3.10119e-05
3.52089e-05
4.28975e-05
5.11651e-05
5.40872e-05
5.40532e-05
5.22477e-05
4.66514e-05
3.99132e-05
3.73049e-05
3.63649e-05
3.62654e-05
3.63991e-05
3.661e-05
3.66071e-05
3.61065e-05
3.56099e-05
3.53649e-05
3.53988e-05
3.55737e-05
3.60042e-05
3.68399e-05
3.77773e-05
3.87045e-05
3.95862e-05
4.02805e-05
4.05874e-05
4.07022e-05
4.0892e-05
4.1433e-05
4.2519e-05
4.3711e-05
4.46257e-05
4.50738e-05
4.51827e-05
4.4494e-05
4.36872e-05
4.32711e-05
4.27774e-05
4.2254e-05
4.14809e-05
4.10551e-05
4.06584e-05
3.96333e-05
3.90218e-05
3.85805e-05
3.85014e-05
3.87974e-05
3.90006e-05
3.90421e-05
3.87238e-05
3.86882e-05
3.86269e-05
3.78708e-05
3.75321e-05
3.83992e-05
3.97755e-05
3.93986e-05
3.77091e-05
3.71934e-05
3.84998e-05
4.23738e-05
4.59586e-05
4.82309e-05
5.18125e-05
5.82897e-05
6.23116e-05
6.42516e-05
6.62388e-05
6.70685e-05
6.73232e-05
6.76714e-05
6.52782e-05
6.42644e-05
6.51388e-05
6.8947e-05
8.74845e-05
0.000135711
0.000152859
0.000151883
0.00013774
0.000123582
0.000110473
0.000100731
9.52168e-05
9.29438e-05
9.05177e-05
8.8936e-05
8.62034e-05
8.59075e-05
9.2813e-05
9.99456e-05
0.000101837
0.000100486
8.83764e-05
7.43846e-05
7.11139e-05
7.0407e-05
6.31128e-05
6.07871e-05
5.92576e-05
5.70783e-05
5.95405e-05
7.26078e-05
8.27906e-05
9.22658e-05
0.000108095
0.000106702
9.43822e-05
9.41333e-05
9.48559e-05
0.000105023
0.000108418
0.000124917
0.000139935
0.000141591
0.000137188
0.000124134
0.000124312
0.000133885
0.000136917
0.000127587
0.000123308
0.000124907
0.000128833
0.000128674
0.000141798
0.000145762
0.000148519
0.000157598
0.000162544
0.000160532
0.000171025
0.000165605
0.000190399
0.000192058
0.000181108
0.000210969
0.000264625
0.000286508
0.000278446
0.000271746
0.000262532
0.000252199
0.000262684
0.000265204
0.000287555
0.000333283
0.000355432
0.000357124
0.000370822
0.000374432
0.000359747
0.000332377
0.000354585
0.000387967
0.000391105
0.000326788
0.000337114
0.000447671
0.000487377
0.00049518
0.000525717
0.000469547
0.00051625
0.000383794
0.000398104
0.000452876
0.00051404
0.000527381
0.000478931
0.000165812
8.71649e-05
4.49346e-05
3.02091e-05
2.81117e-05
2.80007e-05
2.93888e-05
3.21258e-05
3.50143e-05
3.85627e-05
4.45512e-05
4.86786e-05
5.12272e-05
5.16806e-05
4.91607e-05
4.32722e-05
3.76029e-05
3.57308e-05
3.53747e-05
3.55569e-05
3.61436e-05
3.63243e-05
3.61481e-05
3.54293e-05
3.47486e-05
3.45743e-05
3.4591e-05
3.47117e-05
3.50031e-05
3.55163e-05
3.61599e-05
3.68052e-05
3.74637e-05
3.81834e-05
3.86524e-05
3.88279e-05
3.88593e-05
3.86739e-05
3.86819e-05
3.88041e-05
3.92919e-05
4.01349e-05
4.14932e-05
4.28212e-05
4.32828e-05
4.3431e-05
4.3303e-05
4.32167e-05
4.33491e-05
4.36133e-05
4.39447e-05
4.40402e-05
4.35124e-05
4.21544e-05
3.99323e-05
3.82628e-05
3.77377e-05
3.76607e-05
3.77033e-05
3.76952e-05
3.71222e-05
3.69862e-05
3.73463e-05
3.59643e-05
3.50537e-05
3.6064e-05
3.77985e-05
3.73512e-05
3.6288e-05
3.62054e-05
3.84939e-05
4.24934e-05
4.51411e-05
4.91092e-05
5.56891e-05
6.05471e-05
6.32352e-05
6.42844e-05
6.44049e-05
6.58372e-05
6.71559e-05
6.61065e-05
6.50842e-05
6.63713e-05
7.28457e-05
0.000102842
0.0001425
0.000148265
0.000133481
0.000113803
0.000103762
9.71125e-05
9.30218e-05
8.82537e-05
8.09724e-05
7.70491e-05
7.43903e-05
7.12548e-05
7.02165e-05
7.13959e-05
7.44349e-05
7.52946e-05
7.51167e-05
7.22203e-05
6.77405e-05
6.82215e-05
6.60548e-05
6.22532e-05
6.29845e-05
5.86659e-05
5.60967e-05
5.66726e-05
5.83455e-05
7.34105e-05
8.4504e-05
9.07526e-05
9.07786e-05
9.11291e-05
9.19864e-05
9.20528e-05
0.00010842
0.000116439
0.000114919
0.000112247
0.000113525
0.000117078
0.000118987
0.000124887
0.000135852
0.000138715
0.000131321
0.000123209
0.000121979
0.000126822
0.000122169
0.000129222
0.000138373
0.000139363
0.000146727
0.000156501
0.000153414
0.000160862
0.000159304
0.000172656
0.000187219
0.000180997
0.000192157
0.000239207
0.000259704
0.000258979
0.000262865
0.000241864
0.000244375
0.000240655
0.000242041
0.000260952
0.00026636
0.000280329
0.00029741
0.000335042
0.000360174
0.000371019
0.00034939
0.000314222
0.000348247
0.000368889
0.000300942
0.000285605
0.00040428
0.000468269
0.000503362
0.000536406
0.000495481
0.000547467
0.00042305
0.000367467
0.000430944
0.000492137
0.000504219
0.000431738
0.000181088
8.91878e-05
4.27784e-05
2.92214e-05
2.83066e-05
2.9877e-05
3.34551e-05
3.78455e-05
4.12655e-05
4.47116e-05
4.7852e-05
4.84083e-05
4.80689e-05
4.57258e-05
3.95397e-05
3.56248e-05
3.44462e-05
3.42802e-05
3.46877e-05
3.52583e-05
3.54617e-05
3.53268e-05
3.46223e-05
3.44927e-05
3.45538e-05
3.48223e-05
3.52964e-05
3.58165e-05
3.63196e-05
3.65917e-05
3.67589e-05
3.69803e-05
3.73751e-05
3.79129e-05
3.87366e-05
3.90928e-05
3.91532e-05
3.89003e-05
3.85169e-05
3.84829e-05
3.85195e-05
3.87136e-05
3.93938e-05
4.09229e-05
4.25084e-05
4.29807e-05
4.29999e-05
4.29193e-05
4.30141e-05
4.32946e-05
4.41531e-05
4.46562e-05
4.48822e-05
4.48256e-05
4.37189e-05
4.10043e-05
3.83604e-05
3.74659e-05
3.7166e-05
3.689e-05
3.60715e-05
3.46232e-05
3.42858e-05
3.45998e-05
3.26414e-05
3.16613e-05
3.25134e-05
3.46131e-05
3.44374e-05
3.345e-05
3.40609e-05
3.73196e-05
4.0507e-05
4.73281e-05
5.56194e-05
6.09194e-05
6.31895e-05
6.38219e-05
6.40048e-05
6.48744e-05
6.58344e-05
6.5898e-05
6.74043e-05
7.15761e-05
8.41157e-05
0.000120487
0.000142188
0.000138986
0.00011333
9.75669e-05
9.1645e-05
8.90487e-05
8.65846e-05
7.98672e-05
7.12175e-05
6.81448e-05
6.56429e-05
6.32798e-05
6.23462e-05
6.23284e-05
6.35408e-05
6.54121e-05
6.62814e-05
6.55606e-05
6.2825e-05
6.24091e-05
6.08308e-05
6.19382e-05
6.27904e-05
5.71527e-05
5.46914e-05
5.4525e-05
5.42827e-05
6.01836e-05
7.69601e-05
8.43715e-05
8.42113e-05
8.51672e-05
8.97261e-05
9.29024e-05
0.000106299
0.000115928
0.000114685
0.000108312
0.000106879
0.00011572
0.000117393
0.00012341
0.000133392
0.000138301
0.000131648
0.000125442
0.000119844
0.000126705
0.000121701
0.000121619
0.000128678
0.000134449
0.000136695
0.000146254
0.000151549
0.000153677
0.000153866
0.000162494
0.000183695
0.000169263
0.000166805
0.000212622
0.000230694
0.000231627
0.000246593
0.000227444
0.000239557
0.000232337
0.000215386
0.000238925
0.000241224
0.000229217
0.000224171
0.000274923
0.000326974
0.000355048
0.000368467
0.000314797
0.000308291
0.000331316
0.000293469
0.000247084
0.000355146
0.000436571
0.000499856
0.000532145
0.000529221
0.000493865
0.000397238
0.000334599
0.000406913
0.000455746
0.000455232
0.000394776
0.000196677
9.45573e-05
4.28641e-05
2.88651e-05
2.82942e-05
3.07623e-05
3.58946e-05
4.02931e-05
4.38632e-05
4.6473e-05
4.76585e-05
4.73395e-05
4.49365e-05
3.93899e-05
3.50772e-05
3.39419e-05
3.39535e-05
3.41698e-05
3.47665e-05
3.48681e-05
3.46814e-05
3.4386e-05
3.43473e-05
3.4659e-05
3.54111e-05
3.62508e-05
3.67838e-05
3.70184e-05
3.71134e-05
3.69785e-05
3.65227e-05
3.63382e-05
3.64474e-05
3.6934e-05
3.79384e-05
3.92345e-05
3.98735e-05
4.01572e-05
4.00112e-05
3.90911e-05
3.87612e-05
3.8743e-05
3.89551e-05
3.99602e-05
4.19133e-05
4.32369e-05
4.35835e-05
4.34092e-05
4.25208e-05
4.22187e-05
4.23774e-05
4.34775e-05
4.42593e-05
4.45262e-05
4.42568e-05
4.30862e-05
4.01271e-05
3.77592e-05
3.7015e-05
3.66027e-05
3.59318e-05
3.4328e-05
3.31241e-05
3.28613e-05
3.2815e-05
3.10558e-05
3.04151e-05
3.11762e-05
3.20167e-05
3.17709e-05
3.22743e-05
3.50272e-05
3.89885e-05
4.71032e-05
5.73046e-05
6.30693e-05
6.52683e-05
6.58299e-05
6.59531e-05
6.63489e-05
6.71097e-05
6.94637e-05
7.46557e-05
8.11204e-05
9.61807e-05
0.000125158
0.000134531
0.000123641
9.69764e-05
8.60913e-05
8.29652e-05
8.20944e-05
8.03781e-05
7.33896e-05
6.52075e-05
6.24847e-05
6.09908e-05
5.95494e-05
5.86884e-05
5.81716e-05
5.86688e-05
6.16051e-05
6.30074e-05
6.23061e-05
6.0463e-05
6.16121e-05
6.05464e-05
5.98537e-05
5.89745e-05
5.60288e-05
5.32717e-05
5.31805e-05
5.23091e-05
5.50078e-05
6.62576e-05
7.8596e-05
8.15485e-05
8.35489e-05
8.94502e-05
9.29413e-05
0.000102812
0.000110804
0.000108593
0.000107174
0.000107335
0.000122446
0.000126433
0.000125128
0.000123504
0.000136026
0.000126319
0.000128606
0.000118286
0.000127381
0.00011827
0.000121061
0.000122718
0.000128292
0.00013328
0.00013493
0.00014335
0.000147849
0.000144542
0.000146283
0.000176409
0.000163322
0.000151792
0.000176741
0.000197545
0.000210861
0.000236108
0.000227926
0.000238459
0.000231087
0.000196659
0.000204524
0.000220106
0.000233087
0.000211915
0.000222509
0.000274769
0.000316789
0.000357086
0.000328956
0.000289935
0.000297347
0.000296403
0.000229649
0.000314861
0.00040287
0.000485427
0.000497478
0.000530353
0.000442307
0.000369491
0.000299076
0.000383979
0.000423772
0.000422314
0.000378436
0.000211377
0.000101388
4.44317e-05
2.8477e-05
2.7738e-05
3.08074e-05
3.65864e-05
4.14988e-05
4.49674e-05
4.60225e-05
4.58704e-05
4.39404e-05
3.95719e-05
3.46453e-05
3.29482e-05
3.27609e-05
3.3125e-05
3.40103e-05
3.43802e-05
3.45249e-05
3.41914e-05
3.41276e-05
3.42482e-05
3.47272e-05
3.56024e-05
3.59613e-05
3.60331e-05
3.58334e-05
3.56182e-05
3.56002e-05
3.55318e-05
3.56403e-05
3.61481e-05
3.74839e-05
3.953e-05
4.08669e-05
4.12777e-05
4.12814e-05
4.04144e-05
3.92451e-05
3.90988e-05
3.93365e-05
3.95869e-05
3.99569e-05
4.10868e-05
4.28545e-05
4.36462e-05
4.38176e-05
4.30455e-05
4.14217e-05
4.06595e-05
4.07085e-05
4.23455e-05
4.3397e-05
4.36784e-05
4.33268e-05
4.1786e-05
3.83797e-05
3.68425e-05
3.62269e-05
3.54859e-05
3.43551e-05
3.26926e-05
3.194e-05
3.20743e-05
3.14564e-05
3.0192e-05
3.0029e-05
3.07376e-05
3.10685e-05
3.14984e-05
3.37738e-05
3.82264e-05
4.73824e-05
5.82838e-05
6.45641e-05
6.74169e-05
6.85011e-05
6.89911e-05
6.98748e-05
7.17281e-05
7.48392e-05
7.82711e-05
8.60603e-05
0.000106733
0.000122637
0.000123378
0.00010625
8.54451e-05
7.84094e-05
7.65369e-05
7.56784e-05
7.34319e-05
6.64756e-05
6.06325e-05
5.89792e-05
5.80635e-05
5.68791e-05
5.61711e-05
5.54491e-05
5.58277e-05
5.72985e-05
5.6633e-05
5.49999e-05
5.58575e-05
5.98475e-05
5.92318e-05
5.48507e-05
5.28063e-05