/*--------------------------------*- C++ -*----------------------------------*\
| =========                 |                                                 |
| \\      /  F ield         | OpenFOAM: The Open Source CFD Toolbox           |
|  \\    /   O peration     | Version:  dev                                   |
|   \\  /    A nd           | Web:      http://www.openfoam.org               |
|    \\/     M anipulation  |                                                 |
\*---------------------------------------------------------------------------*/
FoamFile
{
    version     2.0;
    format      ascii;
    class       volScalarField;
    object      p_0;
    location    "9.154";
}
// * * * * * * * * * * * * * * * * * * * * * * * * * * * * * * * * * * * * * //

dimensions      [1 -1 -2 0 0 0 0];

internalField   nonuniform List<scalar> 
12225
(
98831.5
98815.3
98804
98792.1
98766.7
98733
98682.6
98626
98548.6
98465.6
98358.9
98248.7
98107.5
97964.1
97772.2
97578.9
97276.3
96700.8
98827.4
98816.2
98805.2
98793
98767.4
98733.7
98683.1
98626.6
98548.9
98466.2
98359.2
98248.9
98108.8
97962.8
97774.5
97589.4
97276.8
96949.9
98829.5
98819.3
98807.9
98795.2
98768.9
98735.2
98684.3
98627.6
98549.7
98466.9
98360.8
98248.5
98111.2
97961
97780.1
97592.7
97328.5
97044.7
98829.4
98822.8
98812
98798.8
98771.9
98737.8
98687.1
98629.5
98552.1
98468.4
98363.9
98249.4
98114.2
97962.6
97785.7
97603.5
97352.5
97096
98832.4
98827.8
98817.5
98803.8
98776.5
98741.9
98691.5
98632.6
98556.2
98471
98368
98252.3
98118.8
97967.9
97801.1
97617.5
97395.5
97116.6
98833.8
98834.4
98824.2
98810.3
98782.6
98747.5
98697.1
98637.2
98561.3
98475.4
98373.6
98257.9
98126.7
97976.9
97818.9
97637.6
97450.4
97169.6
98837.6
98843
98833.2
98818.2
98790.8
98754.2
98704.6
98643.1
98568.8
98481.3
98382.1
98266
98139.5
97992.4
97841.6
97665.8
97502.7
97288.9
98846.7
98852.7
98843.5
98827.2
98799.8
98761.9
98712.6
98650.1
98577.1
98488.9
98391.9
98277.2
98154.1
98011.8
97867.8
97704.1
97552.5
97387.6
98857.3
98863.3
98854.7
98836.9
98809.6
98770.3
98721.2
98657.9
98585.9
98497.6
98402.3
98290
98169.3
98031.6
97893
97741.1
97600.3
97457.3
98871.4
98877.4
98869.4
98849.9
98822.3
98781.9
98732.2
98668.8
98597
98510
98415.7
98306.4
98188.3
98056.6
97923.3
97782.4
97648.4
97518.6
98894.8
98897.2
98888.4
98867.4
98838.6
98797.4
98746.7
98683.4
98611.5
98525.9
98432.7
98326.8
98211.5
98086.9
97958.4
97828.5
97699.6
97578.4
98929.4
98924.5
98913
98890.2
98859.8
98817.5
98766
98702.7
98630.8
98546.6
98454.4
98352
98240.2
98122
97999.8
97877.7
97755.3
97638.8
98970.6
98960.3
98944.7
98920.1
98887.3
98844.1
98791.2
98728.1
98655.8
98573.6
98482.4
98383.5
98275.7
98163.5
98047.6
97931.9
97816.1
97703.2
99021
99005.6
98985.7
98958.5
98923.1
98878.4
98824.2
98760.7
98688.2
98607.4
98518.1
98422.1
98319
98211.9
98101.9
97991.4
97881.4
97772.6
99083.1
99062.5
99037.6
99007.2
98968.9
98922.2
98866.6
98802.4
98729.8
98649.8
98562.5
98469.2
98370.4
98268
98163.2
98057.5
97952.3
97847.5
99150.1
99129.1
99101.5
99067.5
99026.4
98977.2
98919.8
98854.5
98781.7
98702.1
98616.4
98525.6
98430.4
98332
98231.7
98130.4
98029.2
97928.1
99225.7
99207.9
99177.8
99140.2
99095.6
99043.5
98983.9
98917.1
98843.6
98764.3
98679.9
98591.1
98498.7
98403.8
98307.4
98209.9
98112.3
98014.3
99314.5
99291.2
99258.2
99217.5
99169.4
99114.2
99052.1
98983.5
98909.1
98829.6
98745.8
98658.5
98568.4
98476.1
98382.3
98287.8
98193.3
98098.2
99393.3
99363.4
99327.8
99284.8
99234.1
99176.1
99111.8
99041.6
98966.3
98886.6
98803.3
98717
98628.4
98538
98446.3
98353.8
98261.2
98168.4
99446.2
99418.4
99382.5
99338
99285.5
99225.5
99159.1
99087.5
99011.4
98931.5
98848.5
98763
98675.5
98586.5
98496.4
98405.6
98314.6
98223.2
99484.2
99460.5
99424.8
99379.2
99325.2
99263.8
99196.1
99123.3
99046.5
98966.5
98883.7
98798.7
98712
98624
98535.1
98445.6
98355.9
98265.9
99525.2
99495.6
99457.9
99410.9
99355.6
99293
99224.3
99150.7
99073.3
98993.2
98910.6
98826.1
98739.9
98652.7
98564.6
98476.1
98387.4
98298.4
99555.9
99522.9
99483.2
99434.8
99378.4
99315.1
99245.7
99171.6
99093.8
99013.4
98930.9
98846.7
98761.1
98674.4
98587
98499.2
98411.2
98323
99577.7
99543.9
99502.6
99452.8
99395.4
99331.3
99261.5
99187.1
99109.1
99028.5
98946.1
98862.1
98776.9
98690.7
98603.8
98516.5
98429
98341.3
99595.6
99560
99516.9
99465.9
99407.8
99343.2
99273.1
99198.5
99120.4
99039.8
98957.3
98873.5
98788.5
98702.7
98616.1
98529.2
98442.1
98354.9
99611
99572.1
99527.3
99475.3
99416.6
99351.8
99281.5
99206.7
99128.6
99048
98965.6
98881.8
98796.9
98711.3
98625.1
98538.4
98451.5
98364.7
99620.1
99580.7
99534.6
99481.7
99422.8
99357.8
99287.4
99212.6
99134.4
99053.8
98971.4
98887.6
98802.9
98717.4
98631.3
98544.8
98458.2
98371.6
99630.1
99587
99539.3
99485.9
99426.9
99361.9
99291.4
99216.5
99138.3
99057.7
98975.3
98891.6
98806.9
98721.5
98635.5
98549.1
98462.6
98376.1
99637.4
99591.4
99542.1
99488.4
99429.3
99364.4
99293.9
99219
99140.8
99060.2
98977.8
98894.1
98809.4
98724
98638.1
98551.7
98465.2
98378.7
99643.1
99594.4
99544
99490
99430.7
99365.7
99295.3
99220.4
99142.1
99061.5
98979.1
98895.4
98810.7
98725.3
98639.4
98553
98466.5
98379.9
96454.8
96459.9
96470.4
96486.2
96507.3
96533.9
96565.9
96603.4
96646.4
96694.9
96748.9
96808.3
96873
96942.8
97017.6
97097.3
97181.7
97270.4
97363.2
97459.8
97560.1
97663.6
97770.2
97879.4
97990.7
98103.8
98218.9
98334.7
98450.9
98566.9
98682.4
98796.8
98910
99021.7
99131.7
99239.6
99344.9
99447.3
99546.3
99641.5
99732.7
99819.7
99902.2
99980.3
100054
100123
100187
100247
100303
100355
100404
100450
100493
100534
100574
100613
100653
100693
100736
100782
100832
100887
100948
101017
101093
101178
101273
101378
101494
101621
101760
101911
102074
102250
102441
102645
102865
103101
103351
103615
103894
104188
104498
104822
105159
105510
105874
106251
106636
107029
107429
107838
108250
108665
109082
109504
109929
110352
110771
111185
111592
111992
112387
112773
113150
113511
113850
114174
114480
114764
115018
115256
115462
115694
115858
116012
116152
116285
116402
116513
116610
116696
116776
116857
116938
117020
117105
117194
117294
117392
117500
117615
117750
117886
118043
118213
118402
118606
118829
119072
119334
119617
119929
120282
120667
121106
121589
122107
122632
123159
123693
124205
124761
125357
125939
126581
127299
128060
128862
129726
130706
131701
132724
133732
134696
135606
136503
137488
138586
139687
140670
141400
141811
141889
141776
141676
141564
141201
140570
139573
96446.1
96451.3
96461.7
96477.4
96498.4
96524.8
96556.6
96593.9
96636.6
96684.9
96738.6
96797.7
96862.1
96931.5
97005.9
97085.2
97169.2
97257.5
97349.7
97445.7
97545.2
97648.1
97754
97863.2
97974.3
98086.8
98200.3
98314.8
98429.7
98544.7
98659.3
98773
98885.5
98996.4
99105.4
99212.3
99316.6
99418
99516
99610.2
99700.5
99786.7
99868.3
99945.5
100018
100086
100150
100209
100264
100315
100363
100408
100450
100490
100529
100568
100606
100646
100688
100733
100782
100836
100897
100964
101038
101122
101216
101320
101435
101562
101700
101849
102012
102188
102377
102580
102799
103033
103281
103544
103821
104113
104422
104745
105080
105426
105787
106160
106541
106930
107325
107729
108140
108554
108968
109386
109804
110220
110634
111044
111447
111841
112224
112598
112970
113326
113661
113979
114279
114556
114805
115040
115248
115459
115630
115783
115923
116055
116171
116280
116378
116461
116539
116617
116697
116777
116861
116952
117048
117147
117256
117366
117513
117643
117802
117974
118164
118368
118592
118834
119095
119379
119691
120056
120439
120886
121376
121902
122423
122943
123477
124003
124560
125162
125748
126378
127094
127857
128650
129512
130470
131467
132487
133491
134450
135343
136200
137162
138272
139387
140376
141102
141480
141556
141493
141347
141239
140887
140264
139270
96429.3
96434.4
96444.8
96460.3
96481.1
96507.1
96538.5
96575.3
96617.5
96665.2
96718.2
96776.7
96840.5
96909.5
96983.2
97061.4
97144
97231
97322.3
97417.4
97516.2
97617.9
97722.5
97829.2
97938
98048.6
98160.6
98273.4
98386.5
98499.6
98612.4
98724.3
98834.9
98943.9
99051.1
99156.2
99258.8
99358.5
99454.8
99547.3
99635.9
99720.4
99800.3
99875.7
99946.6
100013
100074
100132
100185
100235
100281
100323
100363
100402
100439
100476
100512
100551
100591
100635
100682
100734
100792
100857
100930
101012
101103
101204
101317
101441
101576
101725
101886
102060
102248
102449
102665
102897
103142
103401
103676
103964
104267
104586
104918
105260
105615
105980
106354
106735
107125
107521
107922
108326
108735
109144
109551
109957
110361
110761
111153
111531
111893
112256
112617
112966
113292
113598
113887
114150
114391
114616
114817
115012
115184
115336
115475
115606
115719
115825
115921
116004
116079
116151
116227
116303
116386
116472
116569
116666
116772
116887
117021
117156
117314
117489
117683
117887
118113
118354
118614
118901
119207
119593
119973
120419
120932
121489
122006
122510
123034
123601
124170
124777
125380
126001
126684
127446
128214
129050
129977
130968
131983
132980
133924
134777
135549
136444
137568
138732
139743
140466
140784
140925
140844
140670
140548
140222
139618
138603
96405.2
96410.3
96420.5
96435.7
96456.1
96481.7
96512.5
96548.7
96590.2
96637.3
96689.5
96746.8
96809.3
96876.8
96949.1
97025.8
97107.1
97192.8
97282.4
97375.5
97471.7
97571
97673
97777.2
97883.6
97991.6
98100.9
98211
98321.4
98431.8
98541.7
98650.8
98758.8
98865.5
98970.5
99073.3
99173.6
99270.9
99364.9
99455
99541.1
99622.9
99700.4
99773.3
99841.6
99905.1
99964.2
100019
100070
100116
100160
100200
100237
100272
100307
100341
100375
100410
100448
100488
100533
100583
100638
100700
100770
100848
100936
101033
101142
101262
101394
101540
101699
101870
102056
102256
102468
102695
102936
103191
103460
103744
104041
104354
104679
105015
105361
105717
106081
106454
106834
107219
107608
108000
108392
108786
109179
109570
109958
110341
110717
111077
111427
111771
112114
112446
112756
113046
113319
113570
113799
114005
114200
114378
114543
114687
114822
114945
115054
115156
115247
115329
115408
115478
115551
115622
115699
115787
115881
115980
116080
116192
116322
116457
116599
116789
116978
117178
117415
117660
117921
118221
118519
118913
119305
119723
120247
120867
121414
121903
122387
122959
123586
124212
124841
125449
126095
126839
127585
128400
129276
130217
131204
132189
133125
133965
134668
135449
136536
137731
138762
139486
139779
139966
139821
139730
139556
139243
138622
137567
96375
96380
96390
96404.9
96424.8
96449.8
96479.9
96515.2
96555.9
96601.8
96652.6
96708.4
96769.2
96834.9
96905.3
96980.2
97059.6
97143
97229.8
97319.9
97413.1
97509.4
97608.2
97709.4
97812.6
97917.3
98023.2
98129.9
98236.9
98343.9
98450.5
98556.3
98661
98764.2
98865.8
98965.2
99062
99155.9
99246.6
99333.5
99416.2
99494.7
99569
99638.7
99703.6
99764
99819.9
99871.4
99918.7
99962.3
100002
100039
100073
100105
100136
100166
100197
100228
100262
100299
100340
100386
100437
100495
100561
100635
100718
100811
100914
101029
101157
101299
101454
101622
101804
102001
102209
102430
102666
102915
103178
103456
103748
104053
104370
104698
105034
105377
105729
106091
106458
106828
107200
107574
107948
108324
108698
109069
109436
109798
110155
110501
110831
111153
111469
111774
112062
112334
112592
112832
113048
113234
113411
113567
113722
113859
113980
114089
114195
114296
114383
114457
114537
114612
114682
114756
114827
114907
115007
115111
115206
115308
115431
115568
115706
115877
116091
116275
116513
116775
117044
117356
117655
118043
118476
118855
119336
120014
120636
121151
121629
122161
122812
123437
124064
124695
125312
126005
126748
127575
128421
129292
130200
131131
132063
132933
133600
134241
135232
136410
137447
138157
138412
138625
138563
138537
138272
137952
137298
136203
96340
96344.9
96354.5
96369
96388.3
96412.5
96441.8
96476
96515.3
96559.6
96609
96663.2
96722.2
96786
96854.6
96926.9
97003
97082.6
97165.9
97252.4
97342.2
97434.9
97530.2
97627.7
97727.1
97827.9
97929.8
98032.4
98135.2
98237.9
98340.4
98441.6
98541.8
98640.4
98737.4
98832.1
98924.3
99013.8
99100.3
99183
99261.8
99336.4
99406.7
99472.3
99533.3
99589.9
99641.9
99689.5
99733
99772.5
99808.6
99841.7
99872.1
99900.4
99927.2
99953.4
99980
100008
100037
100069
100106
100147
100194
100248
100309
100379
100457
100545
100642
100751
100872
101008
101157
101320
101498
101689
101890
102106
102335
102577
102834
103105
103390
103686
103994
104312
104637
104968
105306
105651
106002
106354
106707
107061
107415
107769
108121
108469
108811
109147
109476
109797
110106
110404
110694
110973
111237
111485
111720
111942
112142
112314
112469
112605
112742
112866
112969
113064
113161
113252
113344
113421
113496
113573
113639
113710
113783
113846
113935
114060
114165
114260
114376
114514
114645
114811
115024
115218
115444
115720
116007
116331
116639
116999
117490
117863
118256
118922
119637
120214
120756
121280
121912
122478
123081
123748
124316
124950
125671
126517
127392
128245
129075
129892
130765
131653
132330
132853
133687
134815
135859
136519
136821
137124
137153
137026
136748
136399
135704
134570
96301.7
96306.5
96315.8
96329.6
96348.1
96371.4
96399.4
96432
96469.5
96512
96559.5
96611.9
96669.2
96731.1
96795.2
96864.3
96936.9
97013
97092.5
97175.4
97261.4
97350.1
97441.2
97534.4
97629.1
97725.2
97822.2
97919.7
98017.5
98115.4
98213.8
98308.8
98402.9
98496
98587.3
98676.2
98762.8
98846.9
98928.3
99006.3
99080.4
99150.5
99216
99276.9
99333.4
99385.4
99433
99476.3
99515.4
99550.4
99582
99610.6
99636.5
99660.3
99682.6
99704.4
99726.6
99749.8
99774.8
99802.6
99834.2
99870.8
99913.1
99962
100018
100082
100155
100237
100329
100430
100544
100672
100815
100971
101143
101327
101522
101731
101952
102186
102435
102698
102973
103260
103558
103865
104178
104495
104816
105144
105476
105809
106141
106472
106803
107132
107459
107780
108096
108406
108707
108998
109280
109553
109816
110067
110305
110525
110733
110930
111111
111270
111405
111524
111634
111739
111824
111908
111988
112068
112153
112238
112306
112374
112433
112495
112561
112618
112704
112827
112955
113063
113180
113325
113449
113593
113801
114012
114243
114516
114830
115163
115499
115819
116327
116758
117088
117640
118418
119041
119656
120201
120836
121362
121914
122628
123190
123765
124425
125227
126120
127015
127868
128579
129305
130138
130857
131308
131949
132984
134044
134701
135215
135439
135493
135273
135036
134620
133859
132770
96262.1
96266.8
96275.9
96289.2
96306.8
96328.7
96355.2
96386.3
96422.1
96462.5
96507.3
96556.5
96610.2
96667.8
96730.6
96796.4
96865.4
96937.6
97013
97091.5
97172.8
97256.6
97342.6
97430.5
97519.8
97610.3
97701.5
97793.2
97885
97976.3
98065.8
98157
98246.4
98333.9
98419
98501.6
98581.6
98659.1
98734.5
98807
98875.7
98940.1
99000.3
99056.2
99107.3
99154
99196.5
99234.8
99268.7
99298.8
99325.7
99349.3
99370.4
99389.4
99407
99423.9
99441
99459.1
99479.2
99502.3
99529
99560.2
99596.9
99640.3
99690.6
99748.3
99814.8
99891.5
99977.9
100074
100180
100300
100435
100584
100748
100925
101110
101311
101524
101749
101989
102242
102507
102784
103071
103365
103665
103967
104270
104579
104890
105202
105512
105820
106125
106428
106725
107015
107301
107582
107855
108119
108374
108620
108855
109078
109290
109485
109665
109832
109989
110132
110252
110351
110437
110514
110586
110654
110722
110796
110866
110935
110996
111052
111100
111153
111210
111269
111366
111477
111597
111737
111859
112019
112147
112282
112459
112681
112924
113177
113511
113864
114220
114538
114993
115500
115848
116296
116989
117643
118307
118889
119544
120106
120602
121306
121994
122599
123186
123830
124641
125504
126446
127194
127763
128452
129220
129617
130073
130965
131993
132633
133311
133285
133472
133340
133115
132609
131809
130857
96222.6
96227.1
96235.8
96248.6
96265.4
96286.3
96311.5
96341.2
96375.3
96413.8
96456.3
96502.7
96553.1
96607
96664.6
96725.7
96790.3
96858.1
96929.1
97002.6
97078.6
97156.6
97236.8
97318.8
97402.2
97486.6
97571.9
97657.8
97743.4
97828.7
97913.6
97997.4
98079.8
98160
98237.8
98313.2
98385.9
98456.2
98524.4
98590.2
98652
98709.5
98763.1
98812.8
98858.2
98899
98935.5
98967.8
98996.1
99020.6
99042
99060.7
99076.7
99090.8
99103.4
99115.1
99126.9
99139.8
99154.6
99172.4
99193.7
99219.4
99250.4
99288
99332.8
99384.7
99444.6
99514.5
99595.3
99686
99786.5
99898.7
100024
100165
100319
100486
100664
100854
101056
101271
101500
101743
101998
102264
102540
102820
103104
103390
103675
103964
104255
104544
104832
105115
105393
105667
105934
106193
106449
106700
106944
107181
107410
107629
107840
108037
108223
108394
108543
108676
108804
108926
109031
109112
109180
109233
109289
109342
109396
109452
109513
109555
109596
109644
109681
109721
109778
109846
109943
110053
110147
110314
110441
110601
110738
110902
111047
111244
111515
111750
112053
112442
112811
113136
113526
114107
114513
114885
115475
116097
116756
117428
118087
118692
119237
119813
120567
121295
121920
122442
123071
123783
124692
125572
126099
126627
127404
127787
128090
128804
129689
130193
130896
130972
131279
131238
130951
130418
129653
128788
96185.1
96189.5
96197.8
96209.9
96225.8
96245.7
96269.6
96297.6
96329.5
96365.4
96405.2
96448.7
96495.3
96545.3
96598.7
96655.2
96714.9
96777.6
96842.8
96910.5
96980.5
97052.4
97126.1
97201.5
97278.3
97356.2
97435.1
97514.9
97594.9
97674.2
97752.5
97829.3
97904.3
97977.1
98047.5
98115.1
98179.8
98242.1
98302.2
98359.8
98413.7
98463.3
98509
98551.3
98590.3
98624.8
98654.8
98680.8
98702.8
98721.1
98736.5
98749.5
98759.8
98768.3
98775.3
98781.7
98788.3
98795.8
98805.3
98817.7
98833.3
98853.4
98878.9
98910.6
98949.5
98996.3
99050.6
99113.8
99187.8
99272.3
99366.5
99471.2
99588.2
99718.6
99862.8
100020
100188
100369
100561
100764
100982
101212
101454
101709
101972
102237
102506
102774
103041
103311
103580
103848
104111
104369
104620
104866
105104
105336
105564
105787
106002
106211
106410
106601
106785
106956
107114
107262
107388
107495
107592
107686
107772
107838
107888
107925
107961
107999
108037
108070
108107
108135
108146
108171
108197
108228
108280
108375
108461
108558
108650
108806
108950
109095
109243
109428
109573
109744
110012
110265
110525
110898
111317
111648
111987
112583
113047
113444
113937
114491
115084
115784
116450
117062
117731
118278
118897
119617
120380
120940
121443
121980
122716
123621
124204
124638
125366
125801
125984
126526
127180
127584
128292
128694
128967
128996
128626
128129
127404
126538
96151.2
96155.4
96163.2
96174.6
96189.6
96208.3
96230.8
96257.2
96287
96320.2
96356.7
96396.3
96438.9
96484.4
96532.9
96584.6
96639.5
96696.8
96756
96817.3
96880.4
96945.4
97012.1
97080.4
97150.2
97221.8
97294.6
97367.8
97440.8
97513.1
97584.1
97653.4
97720.5
97785.1
97847
97906.2
97962.9
98017
98068.6
98117.5
98162.8
98204.1
98241.9
98276.8
98308.5
98336
98359.3
98378.8
98394
98405.5
98414.4
98420.8
98425.3
98428
98429.1
98429.7
98430.6
98432.6
98436.4
98443.1
98453.3
98467.7
98487.5
98513.2
98545.7
98586.4
98635.4
98692.6
98759.6
98837.4
98925.3
99022.9
99131.5
99253
99388
99535.7
99695.1
99865.7
100048
100240
100446
100663
100892
101133
101380
101630
101881
102132
102382
102630
102879
103124
103365
103597
103822
104039
104250
104456
104657
104851
105036
105214
105385
105551
105709
105850
105979
106102
106212
106301
106373
106438
106500
106551
106583
106607
106626
106644
106664
106682
106682
106688
106680
106679
106696
106727
106781
106872
106953
107037
107138
107255
107404
107543
107711
107877
108046
108212
108433
108721
108969
109291
109723
110077
110427
110937
111432
111879
112339
112809
113312
113971
114635
115286
116018
116623
117187
117780
118544
119225
119710
120160
120684
121478
122097
122483
123121
123636
123735
124139
124548
125060
125693
126174
126371
126553
126209
125715
125006
124174
96122.4
96126.4
96133.7
96144.3
96158.2
96175.5
96196.3
96220.7
96248.3
96278.9
96312.2
96347.9
96386.2
96427
96470.5
96516.8
96565.8
96617.1
96670.5
96725.6
96781.7
96839.7
96898.9
96960
97022.6
97086.8
97151.9
97217.3
97282.3
97346.4
97408.9
97469.2
97527.3
97583.1
97636.3
97687.1
97735.2
97780.7
97823.8
97864.3
97901.6
97935.7
97966.2
97993.5
98017.8
98038.2
98054.3
98066.6
98074.7
98079.1
98080.7
98080
98077.7
98074
98069.2
98063.9
98058.6
98054.6
98052.6
98053.4
98058.2
98067.4
98081.7
98102.1
98128.9
98162.9
98205.9
98257.2
98317.5
98388.6
98470.3
98560.9
98661.5
98774.2
98900.2
99038.8
99189.4
99350.9
99523.2
99705.9
99899.8
100105
100320
100544
100774
101007
101241
101473
101704
101934
102162
102385
102602
102810
103008
103199
103386
103567
103741
103906
104062
104214
104362
104507
104639
104754
104854
104949
105040
105114
105164
105205
105246
105277
105292
105299
105305
105306
105304
105300
105279
105253
105234
105220
105231
105260
105306
105371
105435
105518
105625
105711
105835
105973
106151
106294
106480
106650
106821
107109
107367
107648
108033
108416
108783
109233
109686
110153
110638
111028
111465
112085
112725
113430
114161
114785
115382
115978
116637
117322
117863
118333
118692
119290
119868
120213
120733
121308
121360
121643
121872
122548
123079
123519
123760
123934
123741
123162
122483
121744
96100.3
96104.1
96110.9
96120.6
96133.3
96149.1
96168
96190
96214.9
96242.4
96272.2
96303.9
96337.7
96373.5
96411.6
96452.3
96495.4
96540.4
96586.9
96634.6
96684.5
96735.2
96787.7
96841.4
96896.3
96952.4
97009.1
97065.8
97121.7
97176.4
97229.4
97280.4
97328.9
97375.2
97419.3
97461.2
97500.6
97537.6
97572.5
97605.1
97635.2
97662.2
97685.7
97705.6
97722.3
97735.3
97743.8
97748.2
97748.9
97745.9
97739.9
97731.7
97721.9
97711.2
97699.9
97688.5
97677.4
97667.4
97659.5
97654.4
97653.2
97656.9
97665.6
97680.5
97702.6
97731.6
97768.7
97814.3
97868.3
97932.3
98007.2
98091
98183.6
98287.4
98404.6
98534.6
98676.8
98829.6
98993.1
99166.4
99349.4
99542
99742.7
99950.2
100162
100379
100595
100809
101021
101231
101438
101639
101833
102017
102194
102366
102526
102682
102830
102970
103102
103230
103355
103472
103579
103675
103756
103828
103894
103950
103983
104003
104023
104033
104036
104030
104018
104002
103980
103952
103914
103869
103839
103817
103825
103845
103882
103923
103963
104032
104128
104197
104287
104411
104575
104703
104886
105064
105207
105453
105724
105979
106297
106689
107043
107492
107903
108339
108845
109227
109670
110217
110814
111513
112211
112824
113422
114046
114629
115249
115870
116371
116659
117044
117540
117868
118263
118833
118901
119056
119202
119905
120369
120812
121107
121225
121176
120570
119919
119305
96086
96089.4
96095.7
96104.4
96115.8
96129.9
96146.8
96166.4
96188.6
96212.9
96239
96266.8
96296
96326.9
96359.6
96394.4
96431.3
96469.9
96509.9
96551
96593.5
96637
96681.4
96726.9
96773.3
96820.3
96867.6
96914.9
96961.3
97006.4
97049.7
97091
97130.3
97167.6
97202.9
97236
97266.8
97295.6
97322.4
97347.1
97369
97388
97403.7
97415.7
97424.3
97429.1
97429.4
97425.7
97418.5
97408.1
97394.6
97378.7
97361.1
97343.1
97325
97307.2
97290.1
97274.5
97260.9
97250.4
97243.7
97241.7
97245.3
97254.3
97270.7
97295
97326.8
97367.2
97415.8
97473.4
97541.4
97618.7
97704.3
97800
97908.5
98030.3
98164.3
98308.7
98463.2
98626.9
98799.1
98979.3
99166
99358
99555.3
99752.8
99951.3
100148
100342
100532
100718
100897
101069
101233
101389
101539
101681
101811
101937
102055
102166
102269
102367
102456
102540
102622
102692
102746
102792
102826
102843
102846
102846
102841
102829
102810
102784
102749
102708
102662
102606
102548
102503
102478
102484
102496
102518
102548
102574
102621
102691
102738
102802
102889
103018
103131
103289
103465
103600
103796
104062
104299
104567
104947
105257
105700
106104
106514
106991
107423
107904
108367
108913
109561
110196
110792
111374
111960
112508
113048
113663
114111
114384
114663
115113
115474
115768
116225
116367
116408
116538
117160
117555
117960
118301
118470
118443
118006
117416
116893
96080.4
96083.1
96089.6
96096.9
96107
96119.4
96134.1
96151.1
96170.1
96191.1
96213.7
96237.4
96262.2
96287.9
96314.9
96343.3
96373.3
96404.9
96437.8
96471.9
96506.7
96542.4
96578.7
96615.7
96653.3
96691.1
96728.9
96766.5
96803.2
96838.5
96872.2
96904.2
96934.3
96962.6
96988.9
97013.2
97035.4
97055.4
97073.4
97089.3
97102.6
97113.1
97120.4
97123.9
97123.5
97119.2
97110.8
97098.8
97083.7
97066
97045.7
97022.9
96998.6
96973.4
96948.2
96923.8
96900.9
96879.9
96860.9
96845
96833.5
96826.3
96824.9
96829.5
96840.6
96859.7
96886.3
96921.3
96965.2
97017.4
97079.2
97150.7
97230.1
97318.2
97418
97531.4
97657
97793.3
97938.8
98092.9
98254.3
98422
98594.8
98772.2
98952.9
99135.2
99317.3
99497.3
99674.3
99847.8
100016
100175
100326
100469
100604
100734
100857
100974
101073
101170
101260
101343
101419
101487
101553
101617
101672
101708
101733
101753
101757
101747
101730
101712
101687
101655
101613
101565
101508
101443
101368
101298
101245
101217
101212
101218
101229
101252
101294
101293
101324
101341
101387
101435
101518
101607
101729
101885
102017
102172
102406
102632
102879
103220
103487
103889
104298
104692
105098
105572
106066
106481
106986
107566
108136
108704
109250
109791
110311
110802
111268
111621
111884
112205
112646
113063
113274
113540
113763
113738
113887
114419
114741
115118
115514
115717
115652
115402
114933
114462
96084.3
96086.9
96092.2
96098.9
96107.4
96118.1
96130.8
96145.2
96161.2
96178.5
96197.1
96216.6
96236.8
96257.5
96278.8
96300.9
96323.9
96348
96373.2
96399.3
96426
96453.1
96480.7
96508.6
96537
96565.4
96593.6
96621.3
96648.1
96673.6
96697.7
96720.1
96740.6
96759.4
96776.4
96791.3
96804.4
96815.6
96824.6
96831.4
96835.7
96837.2
96835.5
96830.1
96820.7
96807.7
96791.1
96770.9
96747.7
96722.4
96695.5
96666.6
96636
96604.1
96572.4
96541.9
96513.3
96486.9
96463.3
96442.8
96426.3
96414.7
96408.3
96408.7
96415.8
96430.3
96452.4
96482.4
96521.6
96569.1
96625.5
96691.2
96765
96846.4
96938.1
97042.9
97160.3
97288.5
97425.4
97569.7
97721
97877.2
98036.4
98200.6
98366
98532.9
98699.4
98863.7
99024.5
99181.3
99333.1
99476.3
99609
99732.3
99848.7
99958.5
100062
100160
100250
100322
100394
100459
100520
100574
100623
100666
100702
100722
100735
100741
100735
100711
100682
100649
100612
100572
100519
100459
100391
100308
100219
100139
100083
100047
100029
100022
100019
100033
100046
100027
100020
100008
100035
100046
100086
100152
100236
100352
100475
100603
100785
100998
101232
101517
101764
102105
102497
102867
103215
103677
104142
104541
105018
105530
106050
106576
107074
107579
108065
108530
108852
109220
109511
109845
110221
110611
110742
110861
111119
111084
111258
111698
111970
112361
112756
112959
112946
112775
112444
112086
96097.7
96100.1
96105
96111
96118.2
96127.2
96137.7
96149.6
96162.5
96176.3
96190.6
96205.5
96220.7
96236.1
96251.7
96267.5
96283.6
96300.1
96317.2
96334.9
96352.9
96370.8
96389
96407.6
96426.4
96445
96463.3
96480.9
96497.8
96513.3
96527.4
96540.2
96550.8
96559.9
96567.7
96573.2
96577
96579.1
96579.1
96576.5
96571.4
96563.5
96552.3
96537.6
96519.6
96498.4
96473.8
96445.7
96414.8
96382.2
96348.1
96312.6
96275.5
96237.4
96199.6
96163.3
96129.3
96097.9
96069.6
96045.1
96024.5
96009.4
95999.6
95995.9
95999.3
96009.7
96028.1
96054.4
96089.1
96132.3
96183.9
96244.3
96313.9
96390.2
96474.2
96570.2
96679.2
96799.2
96928
97063.3
97204.4
97350.6
97501
97650.6
97801.7
97952.9
98104
98253.4
98399
98539.8
98675.3
98803.1
98920
99026.6
99125.3
99217.4
99303.2
99382.7
99456.6
99519.3
99570.6
99618.2
99663
99702.7
99735.3
99762
99785.3
99797.2
99799.8
99791.1
99773.9
99741.2
99703.1
99663.2
99617.1
99566.3
99508.3
99437.3
99356.7
99261.5
99164.8
99080.2
99018.6
98975.2
98946.6
98921.3
98897.6
98885.3
98849.8
98818.1
98788.9
98758.2
98754.5
98728.6
98734.9
98771.5
98814.8
98885.6
98986.9
99087.8
99217.8
99407.4
99611.6
99843.6
100081
100365
100712
101043
101363
101788
102196
102585
103030
103485
103962
104430
104888
105367
105823
106239
106515
106929
107284
107539
107816
108095
108151
108229
108480
108473
108662
109000
109266
109671
110038
110252
110321
110262
110065
109859
96119.4
96121.3
96126
96131.9
96138.7
96146.5
96155.4
96165
96174.9
96185
96195
96204.9
96214.6
96224.1
96233.4
96242.5
96251.5
96260.4
96269.4
96278.5
96287.6
96296.6
96305.5
96314.6
96323.4
96332
96340.1
96347.4
96354.2
96359.4
96363.3
96366.5
96366.9
96366.1
96364.5
96360.5
96354.3
96346.9
96337.7
96324.8
96309.9
96292.3
96271.5
96247.4
96220.4
96190.7
96158.1
96122.5
96084.7
96045.6
96005
95962.7
95918.9
95874.9
95832.2
95791.6
95753.3
95717.8
95685.1
95656.6
95632.5
95613.5
95600.8
95594.1
95594.3
95601.7
95616.7
95640.1
95671.1
95710.4
95758.1
95813.9
95879.1
95952.1
96030.6
96117.9
96218.1
96329.8
96450.5
96578
96709.5
96845.3
96984.3
97124
97262.9
97400.6
97537.5
97672.5
97803.8
97930.2
98050.4
98163.1
98265.8
98358
98440.8
98516
98586.1
98649.8
98708
98757.3
98796.5
98828.6
98858.9
98883.7
98901.9
98918.6
98931.6
98935.7
98926.6
98908.3
98882.6
98845.4
98801.7
98754.3
98701.2
98643
98577.6
98501.6
98410.8
98308.6
98205.4
98119
98052
97999.6
97955.6
97911.1
97862.8
97801.8
97750.6
97695.1
97648.1
97604.2
97558.4
97498.3
97474.3
97466
97469.6
97501.3
97564.2
97630.4
97722.8
97871.6
98032.2
98221.6
98436.2
98676
98963.8
99241.4
99556.3
99937.1
100281
100655
101058
101463
101894
102301
102734
103178
103599
103957
104260
104657
105017
105183
105378
105547
105569
105655
105890
105926
106142
106353
106644
107081
107439
107667
107768
107827
107807
107692
96140.1
96143.2
96149.3
96156.8
96164.6
96172.8
96180.8
96188.6
96196.1
96203
96209.2
96214.5
96219.1
96223.1
96226.4
96229.3
96231.8
96233.8
96235.7
96237.4
96238.9
96240.1
96241.1
96241.9
96242.2
96242.1
96241.4
96239.9
96237.7
96234.2
96229.2
96223.5
96215.8
96206.1
96195.6
96183.4
96168.7
96152.2
96133.8
96112.5
96088.5
96061.8
96032.4
96000.2
95965.9
95929.4
95890.2
95848.4
95804.9
95760.5
95714.5
95666.5
95617.6
95569.5
95523.2
95479.3
95437.8
95399
95363.2
95331.2
95304
95281.9
95266
95256.6
95254
95259.1
95271.6
95291.9
95320.6
95356.7
95401.2
95453.9
95514.5
95584.2
95660
95741.2
95833.2
95937.1
96050.2
96170.4
96294.4
96421.4
96550.6
96680.9
96810.1
96937.3
97063.2
97186.7
97306.1
97419.5
97526.7
97626.9
97718.1
97799.2
97870.7
97933.3
97989.5
98039.2
98082.6
98120.2
98150.4
98174.4
98190.7
98201.4
98213.4
98218.7
98220.7
98214.6
98197.1
98171.7
98139
98096
98047.1
97993.9
97935
97872.8
97802
97720.3
97624.3
97516.7
97411.8
97321.9
97248.9
97185.3
97122.3
97056.1
96983.2
96901.4
96820.7
96742.6
96670
96602.9
96518.8
96433
96376.9
96321.8
96287.1
96284.4
96300
96327
96394