/*--------------------------------*- C++ -*----------------------------------*\
| =========                 |                                                 |
| \\      /  F ield         | OpenFOAM: The Open Source CFD Toolbox           |
|  \\    /   O peration     | Version:  dev                                   |
|   \\  /    A nd           | Web:      http://www.openfoam.org               |
|    \\/     M anipulation  |                                                 |
\*---------------------------------------------------------------------------*/
FoamFile
{
    version     2.0;
    format      ascii;
    class       surfaceScalarField;
    object      phi;
    location    "9.154";
}
// * * * * * * * * * * * * * * * * * * * * * * * * * * * * * * * * * * * * * //

dimensions      [1 0 -1 0 0 0 0];

internalField   nonuniform List<scalar> 
24170
(
2.45177e-06
7.59582e-07
1.87257e-06
2.43767e-07
1.81953e-06
-2.57776e-07
1.99884e-06
-4.66691e-07
2.24888e-06
-5.13601e-07
2.56316e-06
-5.58286e-07
2.81092e-06
-4.7042e-07
3.24466e-06
-6.40923e-07
3.5027e-06
-4.4682e-07
4.00632e-06
-6.81758e-07
4.31811e-06
-4.74335e-07
5.06604e-06
-9.06656e-07
5.34779e-06
-4.31816e-07
6.73973e-06
-1.53699e-06
6.64962e-06
-6.5502e-08
8.5766e-06
-2.04274e-06
1.1926e-05
-3.53996e-06
-6.96398e-06
1.87497e-05
4.13394e-06
1.66129e-07
3.88676e-06
1.35694e-07
3.79185e-06
-4.89387e-07
3.69854e-06
-6.74628e-07
3.85453e-06
-9.46851e-07
3.99374e-06
-9.52772e-07
4.28588e-06
-9.96547e-07
4.6867e-06
-1.25917e-06
5.05278e-06
-1.01149e-06
5.43821e-06
-1.25626e-06
6.07696e-06
-1.28236e-06
6.94847e-06
-1.94604e-06
7.57754e-06
-1.21854e-06
9.25478e-06
-3.36427e-06
9.58849e-06
-5.65829e-07
1.2609e-05
-5.15699e-06
1.54916e-05
-6.62129e-06
-1.09508e-05
1.93095e-05
5.02787e-06
-9.5603e-07
5.23236e-06
-4.54859e-07
5.48606e-06
-1.09897e-06
5.47486e-06
-9.91324e-07
5.67942e-06
-1.45293e-06
5.70232e-06
-1.25202e-06
6.04794e-06
-1.59391e-06
6.418e-06
-1.86368e-06
6.76651e-06
-1.5726e-06
7.6639e-06
-2.35687e-06
7.94096e-06
-1.7438e-06
9.12726e-06
-3.3131e-06
9.38395e-06
-1.64812e-06
1.07988e-05
-4.94669e-06
1.13905e-05
-1.31943e-06
1.33857e-05
-7.3124e-06
1.38144e-05
-7.18626e-06
-1.46158e-05
1.72558e-05
5.3095e-06
-1.98863e-06
6.02315e-06
-1.5884e-06
6.53874e-06
-2.00168e-06
6.92369e-06
-1.73268e-06
7.19349e-06
-2.05049e-06
7.69294e-06
-2.05107e-06
7.8856e-06
-2.05882e-06
8.56834e-06
-2.79614e-06
8.65494e-06
-1.89018e-06
9.61522e-06
-3.52914e-06
9.75129e-06
-2.07856e-06
1.06269e-05
-4.37613e-06
1.08124e-05
-2.02428e-06
1.19222e-05
-6.23385e-06
1.26743e-05
-2.25603e-06
1.34974e-05
-8.34887e-06
1.38034e-05
-7.66423e-06
-1.87187e-05
1.77435e-05
5.71698e-06
-2.80348e-06
6.83024e-06
-3.15568e-06
7.24783e-06
-2.83766e-06
8.0971e-06
-2.96585e-06
8.26706e-06
-2.57527e-06
9.10107e-06
-3.20803e-06
9.22666e-06
-2.47808e-06
9.95011e-06
-3.78651e-06
1.00325e-05
-2.22118e-06
1.08138e-05
-4.53783e-06
1.10304e-05
-2.50363e-06
1.1719e-05
-5.26365e-06
1.19702e-05
-2.47336e-06
1.25847e-05
-7.04141e-06
1.35125e-05
-3.3777e-06
1.44308e-05
-9.47279e-06
1.39627e-05
-7.43211e-06
-2.19366e-05
1.7042e-05
6.31731e-06
-3.73971e-06
7.29998e-06
-4.62586e-06
7.6215e-06
-3.60705e-06
8.5564e-06
-4.31042e-06
8.7796e-06
-3.17897e-06
9.6642e-06
-4.43756e-06
9.93367e-06
-3.06146e-06
1.07418e-05
-4.88102e-06
1.10024e-05
-2.74663e-06
1.17811e-05
-5.55608e-06
1.20144e-05
-2.9589e-06
1.27691e-05
-6.22969e-06
1.31421e-05
-3.05686e-06
1.39471e-05
-8.04912e-06
1.4898e-05
-4.5316e-06
1.55453e-05
-1.03119e-05
1.49902e-05
-7.11266e-06
-2.04336e-05
1.3257e-05
6.97283e-06
-4.50256e-06
7.75907e-06
-5.92844e-06
8.10903e-06
-4.4286e-06
8.98469e-06
-5.61588e-06
9.30881e-06
-3.9014e-06
1.02132e-05
-5.705e-06
1.06939e-05
-3.87333e-06
1.16044e-05
-6.09432e-06
1.226e-05
-3.67865e-06
1.30504e-05
-6.5975e-06
1.34843e-05
-3.62619e-06
1.41195e-05
-7.08831e-06
1.51152e-05
-4.26817e-06
1.55627e-05
-8.70809e-06
1.65838e-05
-5.76465e-06
1.65486e-05
-1.04819e-05
1.67904e-05
-7.5728e-06
-1.51497e-05
1.12564e-05
5.53588e-06
-5.43276e-06
6.22767e-06
-7.00335e-06
6.53343e-06
-5.08398e-06
7.12624e-06
-6.5271e-06
7.42315e-06
-4.49125e-06
8.0104e-06
-6.55869e-06
8.44557e-06
-4.55017e-06
9.01684e-06
-6.88416e-06
9.57675e-06
-4.43758e-06
9.93477e-06
-7.13814e-06
1.05645e-05
-4.42737e-06
1.08712e-05
-7.55783e-06
1.17725e-05
-5.32566e-06
1.18672e-05
-8.95686e-06
1.26917e-05
-6.74215e-06
1.23502e-05
-1.0291e-05
1.30401e-05
-8.41228e-06
-1.2896e-05
1.06284e-05
6.41235e-06
-6.52864e-06
7.18383e-06
-8.19556e-06
7.58751e-06
-5.86933e-06
8.23615e-06
-7.52547e-06
8.72837e-06
-5.30475e-06
9.32683e-06
-7.44854e-06
9.90286e-06
-5.38807e-06
1.03667e-05
-7.5825e-06
1.10744e-05
-5.35717e-06
1.14029e-05
-7.6612e-06
1.22214e-05
-5.4271e-06
1.25222e-05
-8.0334e-06
1.34127e-05
-6.38159e-06
1.3347e-05
-9.05362e-06
1.41103e-05
-7.66444e-06
1.3793e-05
-1.0135e-05
1.43613e-05
-9.13711e-06
-1.13261e-05
1.26299e-05
7.35034e-06
-7.43923e-06
8.06564e-06
-9.36358e-06
8.79192e-06
-7.00246e-06
9.46618e-06
-8.57103e-06
1.03058e-05
-6.48407e-06
1.08324e-05
-8.28306e-06
1.15986e-05
-6.42826e-06
1.19832e-05
-8.21262e-06
1.28175e-05
-6.40997e-06
1.31105e-05
-8.15492e-06
1.40926e-05
-6.59198e-06
1.43123e-05
-8.43023e-06
1.52285e-05
-7.46581e-06
1.51969e-05
-9.18656e-06
1.59915e-05
-8.61832e-06
1.55995e-05
-9.90827e-06
1.60382e-05
-9.7398e-06
-1.04104e-05
1.49607e-05
8.55714e-06
-8.83963e-06
9.35692e-06
-1.06241e-05
1.02919e-05
-8.35149e-06
1.09411e-05
-9.59956e-06
1.18906e-05
-7.77702e-06
1.24717e-05
-9.1754e-06
1.33504e-05
-7.57678e-06
1.37759e-05
-8.87764e-06
1.46627e-05
-7.50832e-06
1.50314e-05
-8.72199e-06
1.59728e-05
-7.71167e-06
1.62808e-05
-8.90693e-06
1.70853e-05
-8.42787e-06
1.72126e-05
-9.46924e-06
1.77751e-05
-9.32884e-06
1.76258e-05
-9.91252e-06
1.78603e-05
-1.01331e-05
-1.01549e-05
1.74448e-05
1.05055e-05
-1.01287e-05
1.0964e-05
-1.15233e-05
1.19399e-05
-9.71786e-06
1.2524e-05
-1.05404e-05
1.36422e-05
-9.2125e-06
1.42144e-05
-1.00337e-05
1.52446e-05
-8.85393e-06
1.57019e-05
-9.5473e-06
1.67313e-05
-8.71845e-06
1.71742e-05
-9.32943e-06
1.82071e-05
-8.89288e-06
1.86152e-05
-9.45524e-06
1.93999e-05
-9.345e-06
1.95807e-05
-9.78151e-06
2.00452e-05
-9.91842e-06
2.01123e-05
-1.01035e-05
2.00827e-05
-1.02341e-05
-1.01798e-05
1.99734e-05
1.20141e-05
-1.16287e-05
1.2751e-05
-1.26292e-05
1.39005e-05
-1.11865e-05
1.45793e-05
-1.15079e-05
1.57097e-05
-1.05908e-05
1.64249e-05
-1.09622e-05
1.75684e-05
-1.01761e-05
1.82897e-05
-1.04166e-05
1.93415e-05
-9.88903e-06
1.99285e-05
-1.00159e-05
2.08225e-05
-9.87016e-06
2.13237e-05
-1.00332e-05
2.19655e-05
-1.00587e-05
2.23065e-05
-1.01951e-05
2.25882e-05
-1.02752e-05
2.2713e-05
-1.03035e-05
2.26884e-05
-1.02911e-05
-1.02205e-05
2.26405e-05
1.39912e-05
-1.29794e-05
1.47897e-05
-1.3635e-05
1.60407e-05
-1.26027e-05
1.69028e-05
-1.25087e-05
1.8127e-05
-1.1922e-05
1.89366e-05
-1.1844e-05
2.0036e-05
-1.13155e-05
2.08565e-05
-1.12519e-05
2.18423e-05
-1.08676e-05
2.26452e-05
-1.07989e-05
2.34739e-05
-1.06686e-05
2.41638e-05
-1.06883e-05
2.47805e-05
-1.06402e-05
2.52618e-05
-1.06435e-05
2.55938e-05
-1.05834e-05
2.57954e-05
-1.04874e-05
2.58633e-05
-1.03512e-05
-1.01705e-05
2.58061e-05
1.61381e-05
-1.36878e-05
1.71574e-05
-1.45621e-05
1.85794e-05
-1.39082e-05
1.9787e-05
-1.35855e-05
2.10653e-05
-1.30473e-05
2.20873e-05
-1.26911e-05
2.3175e-05
-1.22059e-05
2.40936e-05
-1.1956e-05
2.50712e-05
-1.16192e-05
2.59218e-05
-1.14186e-05
2.67248e-05
-1.12426e-05
2.73814e-05
-1.11221e-05
2.79558e-05
-1.10025e-05
2.83997e-05
-1.0885e-05
2.87398e-05
-1.07359e-05
2.90011e-05
-1.05796e-05
2.91719e-05
-1.03695e-05
-1.01016e-05
2.92382e-05
1.85722e-05
-1.51865e-05
2.01495e-05
-1.55531e-05
2.15435e-05
-1.47099e-05
2.27759e-05
-1.42387e-05
2.40134e-05
-1.3705e-05
2.51886e-05
-1.32814e-05
2.64136e-05
-1.28444e-05
2.75506e-05
-1.25085e-05
2.86785e-05
-1.21714e-05
2.97218e-05
-1.19003e-05
3.06722e-05
-1.16492e-05
3.14659e-05
-1.13938e-05
3.21181e-05
-1.11594e-05
3.26304e-05
-1.09304e-05
3.30274e-05
-1.06949e-05
3.33024e-05
-1.04463e-05
3.34669e-05
-1.01569e-05
-9.8369e-06
3.35455e-05
2.12406e-05
-1.55334e-05
2.31164e-05
-1.60701e-05
2.48975e-05
-1.5156e-05
2.65104e-05
-1.45664e-05
2.8047e-05
-1.39946e-05
2.94511e-05
-1.34695e-05
3.07758e-05
-1.29843e-05
3.19793e-05
-1.25619e-05
3.31025e-05
-1.21821e-05
3.41111e-05
-1.18407e-05
3.50058e-05
-1.15229e-05
3.58042e-05
-1.12216e-05
3.64859e-05
-1.0923e-05
3.70461e-05
-1.06234e-05
3.74625e-05
-1.02967e-05
3.78022e-05
-1.00219e-05
3.80849e-05
-9.727e-06
-9.40613e-06
3.83158e-05
2.20691e-05
-1.49025e-05
2.35562e-05
-1.54671e-05
2.51693e-05
-1.47163e-05
2.67459e-05
-1.41744e-05
2.82629e-05
-1.36225e-05
2.9641e-05
-1.30307e-05
3.09827e-05
-1.25801e-05
3.22236e-05
-1.21275e-05
3.33437e-05
-1.16985e-05
3.4378e-05
-1.13459e-05
3.52882e-05
-1.09805e-05
3.60577e-05
-1.06172e-05
3.66962e-05
-1.02657e-05
3.72221e-05
-9.92546e-06
3.76815e-05
-9.60486e-06
3.79996e-05
-9.25845e-06
3.82731e-05
-8.98612e-06
-8.6771e-06
3.84887e-05
1.95835e-05
-1.41634e-05
2.12128e-05
-1.46495e-05
2.27062e-05
-1.38158e-05
2.40656e-05
-1.3242e-05
2.53417e-05
-1.27078e-05
2.65474e-05
-1.21423e-05
2.76288e-05
-1.16597e-05
2.86738e-05
-1.12627e-05
2.96274e-05
-1.0834e-05
3.05043e-05
-1.04955e-05
3.12926e-05
-1.01337e-05
3.1993e-05
-9.77223e-06
3.26025e-05
-9.42059e-06
3.31328e-05
-9.08389e-06
3.35855e-05
-8.76455e-06
3.3996e-05
-8.45506e-06
3.42912e-05
-8.13927e-06
-7.82936e-06
3.451e-05
1.74259e-05
-1.25638e-05
1.85723e-05
-1.31908e-05
1.9787e-05
-1.2482e-05
2.09691e-05
-1.19879e-05
2.21355e-05
-1.15498e-05
2.33139e-05
-1.11103e-05
2.43663e-05
-1.06056e-05
2.53338e-05
-1.02239e-05
2.62338e-05
-9.83032e-06
2.7033e-05
-9.48741e-06
2.77538e-05
-9.14783e-06
2.84064e-05
-8.81213e-06
2.89876e-05
-8.48209e-06
2.9492e-05
-8.15784e-06
2.99326e-05
-7.85533e-06
3.02995e-05
-7.55549e-06
3.06127e-05
-7.26036e-06
-6.97232e-06
3.0871e-05
1.5715e-05
-1.09886e-05
1.67735e-05
-1.16389e-05
1.79654e-05
-1.11134e-05
1.90808e-05
-1.06553e-05
2.00651e-05
-1.01972e-05
2.0958e-05
-9.78574e-06
2.1835e-05
-9.37384e-06
2.26164e-05
-8.99743e-06
2.33817e-05
-8.69575e-06
2.40888e-05
-8.39219e-06
2.47299e-05
-8.08925e-06
2.53059e-05
-7.78407e-06
2.58204e-05
-7.48212e-06
2.62718e-05
-7.18527e-06
2.66509e-05
-6.88959e-06
2.69598e-05
-6.60371e-06
2.72066e-05
-6.32086e-06
-6.06261e-06
2.74083e-05
1.39836e-05
-9.29822e-06
1.49946e-05
-1.01112e-05
1.60488e-05
-9.68411e-06
1.70296e-05
-9.26379e-06
1.79566e-05
-8.85922e-06
1.88107e-05
-8.48799e-06
1.96255e-05
-8.14931e-06
2.03976e-05
-7.82997e-06
2.10678e-05
-7.53136e-06
2.16899e-05
-7.27481e-06
2.22569e-05
-7.01216e-06
2.2766e-05
-6.74284e-06
2.32248e-05
-6.47654e-06
2.36327e-05
-6.21764e-06
2.39964e-05
-5.95584e-06
2.43081e-05
-5.69781e-06
2.45709e-05
-5.43868e-06
-5.20651e-06
2.47906e-05
1.25086e-05
-8.17113e-06
1.357e-05
-8.76487e-06
1.4575e-05
-8.33948e-06
1.54338e-05
-7.87676e-06
1.61934e-05
-7.47746e-06
1.68925e-05
-7.15026e-06
1.75577e-05
-6.88402e-06
1.81991e-05
-6.6408e-06
1.87982e-05
-6.39823e-06
1.93247e-05
-6.16096e-06
1.98205e-05
-5.95693e-06
2.02747e-05
-5.73307e-06
2.06898e-05
-5.51003e-06
2.10616e-05
-5.28943e-06
2.13946e-05
-5.06441e-06
2.16886e-05
-4.84104e-06
2.19554e-05
-4.62381e-06
-4.41827e-06
2.21834e-05
1.11088e-05
-6.75636e-06
1.19401e-05
-7.35454e-06
1.28349e-05
-7.04995e-06
1.36806e-05
-6.63426e-06
1.44598e-05
-6.26783e-06
1.51904e-05
-5.99007e-06
1.58633e-05
-5.76173e-06
1.64651e-05
-5.5412e-06
1.7004e-05
-5.32641e-06
1.74737e-05
-5.10736e-06
1.78881e-05
-4.9322e-06
1.82595e-05
-4.74501e-06
1.85899e-05
-4.55839e-06
1.88775e-05
-4.3683e-06
1.9141e-05
-4.19012e-06
1.9381e-05
-4.01106e-06
1.95981e-05
-3.83517e-06
-3.66861e-06
1.97922e-05
1.00283e-05
-5.34648e-06
1.08113e-05
-6.07851e-06
1.16285e-05
-5.86252e-06
1.23755e-05
-5.465e-06
1.30578e-05
-5.12506e-06
1.36921e-05
-4.88974e-06
1.42778e-05
-4.70132e-06
1.48133e-05
-4.51623e-06
1.52944e-05
-4.32975e-06
1.57459e-05
-4.16113e-06
1.61478e-05
-4.01333e-06
1.64995e-05
-3.84982e-06
1.68154e-05
-3.69821e-06
1.70899e-05
-3.5343e-06
1.73269e-05
-3.38322e-06
1.75307e-05
-3.23258e-06
1.77083e-05
-3.08915e-06
-2.95953e-06
1.78669e-05
8.82817e-06
-4.3295e-06
9.72152e-06
-5.09652e-06
1.05064e-05
-4.82408e-06
1.1205e-05
-4.42148e-06
1.18578e-05
-4.11899e-06
1.24632e-05
-3.91867e-06
1.30095e-05
-3.75204e-06
1.34867e-05
-3.57581e-06
1.38954e-05
-3.39618e-06
1.42507e-05
-3.24638e-06
1.45637e-05
-3.12594e-06
1.48388e-05
-2.99151e-06
1.50796e-05
-2.86958e-06
1.5298e-05
-2.74488e-06
1.54845e-05
-2.62047e-06
1.56436e-05
-2.49862e-06
1.57832e-05
-2.38893e-06
-2.29419e-06
1.5907e-05
7.98469e-06
-3.46113e-06
8.77762e-06
-4.19708e-06
9.46957e-06
-3.87007e-06
1.00799e-05
-3.45869e-06
1.06172e-05
-3.15799e-06
1.10853e-05
-2.96292e-06
1.14928e-05
-2.80903e-06
1.18511e-05
-2.65472e-06
1.2167e-05
-2.50101e-06
1.24377e-05
-2.37155e-06
1.26639e-05
-2.26937e-06
1.28485e-05
-2.15358e-06
1.29908e-05
-2.04709e-06
1.31136e-05
-1.95809e-06
1.32222e-05
-1.87255e-06
1.33153e-05
-1.78555e-06
1.33955e-05
-1.71105e-06
-1.64145e-06
1.34553e-05
7.18484e-06
-2.58924e-06
7.85794e-06
-3.34863e-06
8.35314e-06
-2.8863e-06
8.75178e-06
-2.44463e-06
9.0689e-06
-2.12941e-06
9.29815e-06
-1.91279e-06
9.47493e-06
-1.77181e-06
9.62418e-06
-1.65385e-06
9.76705e-06
-1.5554e-06
9.88629e-06
-1.46169e-06
9.98369e-06
-1.39457e-06
1.00604e-05
-1.3125e-06
1.01284e-05
-1.24949e-06
1.01837e-05
-1.19749e-06
1.02258e-05
-1.1459e-06
1.02599e-05
-1.09586e-06
1.02823e-05
-1.05208e-06
-1.00541e-06
1.02876e-05
6.33151e-06
-1.93406e-06
6.38582e-06
-2.04556e-06
6.33273e-06
-1.51236e-06
6.31339e-06
-1.16238e-06
6.33629e-06
-9.48894e-07
6.38512e-06
-8.17513e-07
6.43933e-06
-7.40551e-07
6.51016e-06
-6.96726e-07
6.59148e-06
-6.64577e-07
6.68654e-06
-6.38299e-07
6.75809e-06
-5.98746e-07
6.84049e-06
-5.75795e-07
6.91166e-06
-5.47419e-07
6.97218e-06
-5.28191e-07
7.02328e-06
-5.0842e-07
7.07063e-06
-4.93836e-07
7.10943e-06
-4.7903e-07
-4.61913e-07
7.14243e-06
4.25589e-06
3.4304e-06
3.09666e-06
3.0599e-06
3.18279e-06
3.38311e-06
3.6072e-06
3.82347e-06
4.02228e-06
4.20001e-06
4.37228e-06
4.52474e-06
4.66486e-06
4.78547e-06
4.88896e-06
4.97181e-06
5.03607e-06
5.08631e-06
-4.3463e-07
-3.17859e-07
-9.15991e-07
-2.91774e-07
-1.40531e-06
-2.86206e-07
-1.88167e-06
-2.99619e-07
-2.34988e-06
-3.08288e-07
-2.81587e-06
-3.10102e-07
-3.28368e-06
-3.07035e-07
-3.75403e-06
-3.02504e-07
-4.23369e-06
-2.89987e-07
-4.73208e-06
-2.66264e-07
-5.25308e-06
-2.37048e-07
-5.78929e-06
-2.1417e-07
-6.3415e-06
-1.90105e-07
-6.88693e-06
-1.88333e-07
-7.42193e-06
-1.86891e-07
-7.97201e-06
-1.55567e-07
-8.55417e-06
-1.06873e-07
-9.16393e-06
-6.5745e-08
-9.77611e-06
-5.09083e-08
-1.0362e-05
-6.23964e-08
-1.09019e-05
-8.9919e-08
-1.14317e-05
-7.82485e-08
-1.20228e-05
3.75031e-09
-1.26874e-05
9.29976e-08
-1.33956e-05
1.54602e-07
-1.41588e-05
2.36685e-07
-1.49783e-05
3.20731e-07
-1.58357e-05
3.8523e-07
-1.67061e-05
4.2844e-07
-1.75647e-05
4.443e-07
-1.83891e-05
4.27297e-07
-1.91493e-05
3.7176e-07
-1.98212e-05
2.87801e-07
-2.039e-05
1.92467e-07
-2.08414e-05
9.27318e-08
-2.11741e-05
1.55102e-09
-2.14013e-05
-7.24583e-08
-2.15341e-05
-1.36626e-07
-2.15793e-05
-1.97886e-07
-2.15494e-05
-2.51653e-07
-2.14463e-05
-3.07988e-07
-2.12766e-05
-3.60824e-07
-2.10539e-05
-4.02976e-07
-2.0783e-05
-4.44184e-07
-2.04636e-05
-4.87846e-07
-2.01145e-05
-5.13211e-07
-1.97335e-05
-5.3987e-07
-1.93369e-05
-5.51463e-07
-1.89171e-05
-5.77066e-07
-1.84395e-05
-6.45943e-07
-1.78925e-05
-7.2969e-07
-1.72949e-05
-7.92708e-07
-1.66865e-05
-8.11205e-07
-1.60542e-05
-8.34898e-07
-1.54648e-05
-7.94839e-07
-1.49028e-05
-7.80395e-07
-1.4403e-05
-7.32819e-07
-1.40239e-05
-6.29932e-07
-1.37191e-05
-5.78461e-07
-1.34583e-05
-5.56926e-07
-1.32334e-05
-5.43594e-07
-1.30352e-05
-5.38306e-07
-1.28344e-05
-5.59922e-07
-1.26332e-05
-5.76628e-07
-1.24294e-05
-5.92888e-07
-1.21792e-05
-6.50957e-07
-1.18557e-05
-7.35614e-07
-1.14416e-05
-8.37725e-07
-1.09632e-05
-9.12814e-07
-1.04416e-05
-9.65748e-07
-9.96302e-06
-9.31569e-07
-9.64278e-06
-7.81969e-07
-9.52279e-06
-5.88514e-07
-9.50238e-06
-4.89928e-07
-9.55638e-06
-4.15179e-07
-9.66594e-06
-3.6331e-07
-9.63482e-06
-4.98825e-07
-9.53595e-06
-5.36473e-07
-9.58867e-06
-3.45469e-07
-9.74095e-06
-2.27934e-07
-9.82001e-06
-3.02258e-07
-9.85963e-06
-3.33223e-07
-9.84214e-06
-3.60363e-07
-9.76831e-06
-3.72384e-07
-9.65866e-06
-3.58141e-07
-9.33518e-06
-5.18454e-07
-8.60764e-06
-8.64843e-07
-7.38235e-06
-1.29526e-06
-6.05817e-06
-1.31783e-06
-5.01759e-06
-9.53213e-07
-4.12436e-06
-7.14523e-07
-3.16925e-06
-6.75078e-07
-2.31334e-06
-4.76762e-07
-2.08441e-06
2.39395e-07
-2.94982e-06
1.42787e-06
-4.67635e-06
2.38145e-06
-6.66565e-06
2.76304e-06
-8.33999e-06
2.5972e-06
-9.44548e-06
2.1648e-06
-1.02419e-05
1.9665e-06
-1.12437e-05
2.29377e-06
-1.3009e-05
3.20902e-06
-1.50962e-05
3.71416e-06
-1.60862e-05
2.69548e-06
-1.46083e-05
1.89013e-07
-1.18042e-05
-9.95943e-07
-9.65986e-06
-9.49963e-08
-8.39887e-06
9.14659e-07
-6.86089e-06
7.16422e-07
-4.6582e-06
1.34956e-07
-2.41141e-06
1.76691e-07
-1.86343e-06
1.97535e-06
-2.91109e-06
3.67825e-06
-5.76745e-07
3.42692e-07
2.38167e-07
1.87807e-06
6.28634e-07
2.28025e-06
1.32548e-06
1.97388e-06
2.67776e-06
1.33691e-06
3.69096e-06
1.70141e-06
5.71087e-06
7.47333e-07
7.38171e-06
1.17296e-06
7.80751e-06
2.50153e-06
6.95913e-06
3.8832e-06
5.4536e-06
4.68845e-06
3.7624e-06
5.05646e-06
2.00204e-06
5.33956e-06
3.57112e-07
5.47333e-06
-1.42473e-06
5.88094e-06
-3.29254e-06
6.31231e-06
-5.36345e-06
6.86914e-06
-7.55905e-06
7.37406e-06
-9.92646e-06
7.9581e-06
-1.20119e-05
8.15211e-06
-1.42097e-05
8.74391e-06
-1.6002e-05
8.84693e-06
-1.77554e-05
9.31268e-06
-1.9067e-05
9.46081e-06
-2.03119e-05
9.94585e-06
-2.10056e-05
1.00321e-05
-2.16229e-05
1.05332e-05
-2.20196e-05
1.0954e-05
-2.23181e-05
1.14015e-05
-2.24672e-05
1.18635e-05
-2.26424e-05
1.24322e-05
-2.26287e-05
1.27347e-05
-2.22618e-05
1.31154e-05
-2.10964e-05
1.2727e-05
-1.95183e-05
1.27963e-05
-1.87324e-05
1.40763e-05
-1.92975e-05
1.58606e-05
-2.1144e-05
1.76969e-05
-2.06623e-05
1.4949e-05
-1.97308e-05
1.54161e-05
-1.82152e-05
1.5667e-05
-1.32472e-05
1.27417e-05
-1.16347e-05
1.66328e-05
-1.16283e-05
1.87849e-05
-1.13588e-05
1.92789e-05
-1.03141e-05
1.95364e-05
-8.91081e-06
1.99598e-05
-7.9282e-06
2.10028e-05
-7.2151e-06
2.18217e-05
-6.42132e-06
2.23765e-05
-5.42963e-06
2.28366e-05
-4.03797e-06
2.34267e-05
-2.03704e-06
2.40818e-05
9.01773e-07
2.43121e-05
4.13223e-06
2.46801e-05
7.91476e-06
2.37835e-05
1.10562e-05
2.33231e-05
1.16252e-05
2.56156e-05
1.07587e-05
2.76402e-05
7.67607e-06
3.04115e-05
1.40976e-05
1.93287e-05
2.61268e-05
1.06981e-05
2.92954e-05
2.01088e-05
3.04169e-05
2.09169e-05
2.83513e-05
2.21634e-05
2.33492e-05
2.37632e-05
2.15651e-05
2.03758e-05
-4.58331e-07
-6.18378e-07
-9.52349e-07
-5.82315e-07
-1.44158e-06
-5.84388e-07
-1.91008e-06
-6.19425e-07
-2.37579e-06
-6.32904e-07
-2.84684e-06
-6.29936e-07
-3.32029e-06
-6.25167e-07
-3.78926e-06
-6.2622e-07
-4.26355e-06
-6.07394e-07
-4.75674e-06
-5.60636e-07
-5.24379e-06
-5.30176e-07
-5.73832e-06
-4.88769e-07
-6.27894e-06
-4.0996e-07
-6.88922e-06
-3.4127e-07
-7.56121e-06
-2.79494e-07
-8.25754e-06
-2.03119e-07
-8.94508e-06
-1.25529e-07
-9.59366e-06
-9.0629e-08
-1.02123e-05
-9.00595e-08
-1.08628e-05
-6.96449e-08
-1.16467e-05
2.2872e-08
-1.25677e-05
1.74641e-07
-1.35564e-05
3.78943e-07
-1.45939e-05
5.7593e-07
-1.56884e-05
7.09893e-07
-1.67817e-05
8.05761e-07
-1.78515e-05
8.94964e-07
-1.88814e-05
9.36954e-07
-1.98424e-05
9.28938e-07
-2.07189e-05
8.83287e-07
-2.14836e-05
7.71508e-07
-2.21464e-05
6.31432e-07
-2.27038e-05
4.66246e-07
-2.31588e-05
2.89615e-07
-2.35202e-05
1.20882e-07
-2.37785e-05
-4.46247e-08
-2.39129e-05
-2.15621e-07
-2.3927e-05
-3.74962e-07
-2.38311e-05
-5.24431e-07
-2.3643e-05
-6.5242e-07
-2.33869e-05
-7.60455e-07
-2.30703e-05
-8.58253e-07
-2.27075e-05
-9.36418e-07
-2.23087e-05
-1.00829e-06
-2.18734e-05
-1.08711e-06
-2.13997e-05
-1.15098e-06
-2.08778e-05
-1.22102e-06
-2.02934e-05
-1.2818e-06
-1.96624e-05
-1.3396e-06
-1.89824e-05
-1.45943e-06
-1.82808e-05
-1.58993e-06
-1.75776e-05
-1.68955e-06
-1.68832e-05
-1.7173e-06
-1.6153e-05
-1.76585e-06
-1.54237e-05
-1.71342e-06
-1.4679e-05
-1.72809e-06
-1.39774e-05
-1.65743e-06
-1.34196e-05
-1.41964e-06
-1.30012e-05
-1.24529e-06
-1.26839e-05
-1.14727e-06
-1.24012e-05
-1.12559e-06
-1.21368e-05
-1.12765e-06
-1.18436e-05
-1.20092e-06
-1.15352e-05
-1.25508e-06
-1.12577e-05
-1.25543e-06
-1.09576e-05
-1.34122e-06
-1.0536e-05
-1.55066e-06
-9.94978e-06
-1.82308e-06
-9.24685e-06
-2.02146e-06
-8.447e-06
-2.17884e-06
-7.63757e-06
-2.16524e-06
-7.05892e-06
-1.79474e-06
-6.74254e-06
-1.34471e-06
-6.53807e-06
-1.14282e-06
-6.46453e-06
-9.46319e-07
-6.57386e-06
-7.06837e-07
-6.72937e-06
-7.77993e-07
-6.78912e-06
-8.90565e-07
-6.88631e-06
-6.40637e-07
-6.87151e-06
-6.1944e-07
-6.65998e-06
-8.78746e-07
-6.44107e-06
-8.84803e-07
-6.1381e-06
-9.41426e-07
-5.67364e-06
-1.06595e-06
-5.48519e-06
-7.3805e-07
-5.51876e-06
-6.38454e-07
-5.03608e-06
-1.45485e-06
-3.9791e-06
-2.39549e-06
-2.62707e-06
-2.63879e-06
-1.36302e-06
-2.09977e-06
-8.53915e-07
-1.00671e-06
-1.86194e-06
6.44867e-07
-4.33947e-06
2.40843e-06
-7.51313e-06
3.946e-06
-1.03232e-05
4.91449e-06
-1.23364e-05
5.20574e-06
-1.34135e-05
4.75355e-06
-1.39453e-05
4.11021e-06
-1.44277e-05
3.6935e-06
-1.55765e-05
4.32432e-06
-1.74857e-05
5.71993e-06
-1.94652e-05
6.90274e-06
-2.03192e-05
6.06332e-06
-1.94379e-05
3.07926e-06
-1.75443e-05
-1.17882e-07
-1.57295e-05
-6.83712e-07
-1.42192e-05
6.15228e-07
-1.23632e-05
1.14198e-06
-9.6251e-06
9.56745e-08
-6.60564e-06
-5.88953e-07
-3.912e-06
-1.26766e-07
-2.24431e-06
2.75057e-06
-2.25875e-06
6.38323e-06
7.78882e-07
-7.26773e-08
2.58701e-06
2.67146e-06
3.12785e-06
4.28937e-06
3.80233e-06
3.85865e-06
5.17077e-06
2.5596e-06
5.69484e-06
3.80813e-06
7.26957e-06
1.82558e-06
9.00327e-06
2.15998e-06
1.02376e-05
4.10367e-06
1.0503e-05
6.59238e-06
9.95283e-06
8.35926e-06
8.80844e-06
9.49501e-06
7.3265e-06
1.03012e-05
5.95181e-06
1.05433e-05
4.64799e-06
1.11406e-05
3.45191e-06
1.17895e-05
1.96639e-06
1.30594e-05
2.6703e-07
1.42321e-05
-1.82203e-06
1.56222e-05
-4.11227e-06
1.6525e-05
-6.39744e-06
1.76246e-05
-8.83693e-06
1.8453e-05
-1.09982e-05
1.92396e-05
-1.27319e-05
1.95572e-05
-1.4215e-05
2.03377e-05
-1.53994e-05
2.0796e-05
-1.65741e-05
2.18713e-05
-1.73061e-05
2.26283e-05
-1.76416e-05
2.33036e-05
-1.81314e-05
2.4638e-05
-1.84313e-05
2.61387e-05
-1.86121e-05
2.63035e-05
-1.82949e-05
2.77606e-05
-1.7995e-05
2.76282e-05
-1.72118e-05
2.73141e-05
-1.7141e-05
2.90874e-05
-1.87327e-05
3.28389e-05
-2.20657e-05
3.74131e-05
-2.22981e-05
3.07235e-05
-2.10231e-05
3.02747e-05
-1.81612e-05
3.00014e-05
-1.17363e-05
2.34688e-05
-6.69444e-06
2.98936e-05
-6.13842e-06
3.80894e-05
-6.19974e-06
4.06761e-05
-5.41896e-06
4.12373e-05
-3.87458e-06
4.2191e-05
-2.77936e-06
4.50209e-05
-2.31546e-06
4.75704e-05
-2.38132e-06
4.95932e-05
-2.3316e-06
5.08671e-05
-1.40569e-06
5.19535e-05
1.06386e-06
5.22125e-05
4.40333e-06
5.22662e-05
7.8615e-06
5.44893e-05
1.0636e-05
5.40434e-05
1.11246e-05
5.33814e-05
9.22783e-06
5.84642e-05
7.24928e-06
6.16917e-05
5.27934e-06
6.20505e-05
1.20022e-05
3.68761e-05
2.48651e-05
2.08667e-05
3.2036e-05
3.93473e-05
3.39726e-05
4.44519e-05
3.03598e-05
4.78198e-05
2.34952e-05
5.18256e-05
4.8939e-05
1.90753e-05
-4.39985e-07
-9.42814e-07
-8.94781e-07
-9.15667e-07
-1.35674e-06
-9.18402e-07
-1.78235e-06
-9.92509e-07
-2.188e-06
-1.02945e-06
-2.60444e-06
-1.01792e-06
-3.04173e-06
-9.9485e-07
-3.48318e-06
-9.96901e-07
-3.93536e-06
-9.70409e-07
-4.43865e-06
-8.73429e-07
-5.04627e-06
-7.42212e-07
-5.72449e-06
-6.27041e-07
-6.42417e-06
-5.01918e-07
-7.1413e-06
-3.65519e-07
-7.84568e-06
-2.80331e-07
-8.54184e-06
-2.19486e-07
-9.2203e-06
-1.69884e-07
-9.92343e-06
-1.02491e-07
-1.08008e-05
7.62248e-08
-1.19092e-05
3.34825e-07
-1.3174e-05
6.28996e-07
-1.44814e-05
8.58256e-07
-1.57206e-05
1.00755e-06
-1.68768e-05
1.15196e-06
-1.80009e-05
1.26606e-06
-1.91029e-05
1.36329e-06
-2.01199e-05
1.42008e-06
-2.10532e-05
1.4141e-06
-2.18891e-05
1.34552e-06
-2.26102e-05
1.21212e-06
-2.32298e-05
1.02023e-06
-2.37651e-05
8.17232e-07
-2.42288e-05
5.90047e-07
-2.4589e-05
3.35539e-07
-2.48532e-05
9.06324e-08
-2.5001e-05
-1.75864e-07
-2.50252e-05
-4.45192e-07
-2.49306e-05
-7.07237e-07
-2.47438e-05
-9.3902e-07
-2.44831e-05
-1.12826e-06
-2.41696e-05
-1.2761e-06
-2.38152e-05
-1.4006e-06
-2.34204e-05
-1.50486e-06
-2.29892e-05
-1.60015e-06
-2.25291e-05
-1.69713e-06
-2.20363e-05
-1.79075e-06
-2.14866e-05
-1.9167e-06
-2.08622e-05
-2.04989e-06
-2.01842e-05
-2.15242e-06
-1.94597e-05
-2.31013e-06
-1.8731e-05
-2.44996e-06
-1.80551e-05
-2.51252e-06
-1.74185e-05
-2.50471e-06
-1.67778e-05
-2.55837e-06
-1.60749e-05
-2.57314e-06
-1.53527e-05
-2.63536e-06
-1.46085e-05
-2.6457e-06
-1.3813e-05
-2.46975e-06
-1.30442e-05
-2.25527e-06
-1.23594e-05
-2.0804e-06
-1.17647e-05
-1.97664e-06
-1.12241e-05
-1.93573e-06
-1.07611e-05
-1.94768e-06
-1.04134e-05
-1.90716e-06
-1.02149e-05
-1.77769e-06
-1.00886e-05
-1.79873e-06
-9.82285e-06
-2.1465e-06
-9.30497e-06
-2.67155e-06
-8.52088e-06
-3.13965e-06
-7.55679e-06
-3.497e-06
-6.46275e-06
-3.64379e-06
-5.50129e-06
-3.15093e-06
-4.71617e-06
-2.52343e-06
-3.88224e-06
-2.3732e-06
-3.22298e-06
-1.99982e-06
-2.96315e-06
-1.35041e-06
-2.76998e-06
-1.34559e-06
-2.61789e-06
-1.41609e-06
-2.72938e-06
-8.78741e-07
-2.86196e-06
-8.06871e-07
-3.22369e-06
-8.18947e-07
-4.14014e-06
-2.39415e-07
-4.63992e-06
-6.84507e-07
-4.18868e-06
-1.71902e-06
-3.66576e-06
-1.40737e-06
-3.17152e-06
-1.22003e-06
-2.26084e-06
-2.41015e-06
-1.30608e-06
-3.33097e-06
-1.25884e-06
-2.5941e-06
-2.57413e-06
-6.05903e-07
-5.23137e-06
1.91913e-06
-8.23125e-06
3.99263e-06
-1.08423e-05
5.45844e-06
-1.27189e-05
6.39302e-06
-1.38492e-05
6.78757e-06
-1.43319e-05
6.56633e-06
-1.44185e-05
5.78126e-06
-1.4372e-05
5.0569e-06
-1.46527e-05
5.07466e-06
-1.56593e-05
6.60031e-06
-1.73177e-05
8.8692e-06
-1.86104e-05
9.8649e-06
-1.8614e-05
7.71861e-06
-1.75299e-05
3.65701e-06
-1.62247e-05
5.24935e-07
-1.50966e-05
2.89786e-07
-1.38177e-05
1.25022e-06
-1.19448e-05
1.13499e-06
-9.45321e-06
-2.61171e-07
-7.53569e-06
-1.65887e-07
-6.00234e-06
6.09855e-07
-2.91302e-06
1.89147e-06
1.86652e-07
5.62514e-06
2.74168e-06
-2.31419e-07
4.78336e-06
3.0725e-06
5.72929e-06
5.7716e-06
6.55596e-06
5.52264e-06
8.37843e-06
3.28962e-06
8.38794e-06
6.41869e-06
8.98935e-06
3.82863e-06
9.34954e-06
4.40343e-06
9.66457e-06
6.41266e-06
9.82555e-06
9.18729e-06
9.82802e-06
1.12221e-05
9.32895e-06
1.29766e-05
8.41127e-06
1.42589e-05
7.34686e-06
1.49017e-05
6.06133e-06
1.59851e-05
5.25234e-06
1.6338e-05
4.2938e-06
1.80996e-05
2.98165e-06
1.99919e-05
1.18086e-06
2.234e-05
-7.29189e-07
2.37409e-05
-2.8703e-06
2.56208e-05
-4.81848e-06
2.67826e-05
-6.42791e-06
2.79169e-05
-8.30114e-06
2.91136e-05
-1.02417e-05
3.06288e-05
-1.16389e-05
3.09233e-05
-1.27564e-05
3.22745e-05
-1.37196e-05
3.34674e-05
-1.41831e-05
3.41791e-05
-1.51623e-05
3.59905e-05
-1.51624e-05
3.90038e-05
-1.59873e-05
3.87351e-05
-1.60099e-05
4.16207e-05
-1.66655e-05
4.37542e-05
-1.71939e-05
4.30782e-05
-1.89269e-05
4.36882e-05
-2.09934e-05
4.72871e-05
-2.35509e-05
5.32388e-05
-2.41322e-05
4.80625e-05
-2.3238e-05
4.53289e-05
-2.06028e-05
4.37617e-05
-1.45272e-05
3.29962e-05
-7.95733e-06
3.93884e-05
-5.23458e-06
5.41311e-05
-4.59587e-06
6.09071e-05
-4.46602e-06
6.14104e-05
-3.57121e-06
6.17345e-05
-2.43042e-06
6.62201e-05
-1.24603e-06
7.13561e-05
-5.53586e-07
7.59707e-05
1.36212e-07
7.88567e-05
1.39886e-06
7.99475e-05
3.70528e-06
7.74518e-05
6.17322e-06
7.44525e-05
8.75393e-06
7.90566e-05
1.01821e-05
8.31868e-05
9.80413e-06
8.48375e-05
9.24612e-06
9.16871e-05
8.94209e-06
9.40788e-05
5.75421e-06
9.15521e-05
9.83008e-06
5.71285e-05
2.09052e-05
3.14604e-05
3.1413e-05
5.13305e-05
3.16614e-05
6.72459e-05
2.66312e-05
7.34784e-05
2.12889e-05
7.98834e-05
7.54184e-05
1.78595e-05
-4.4097e-07
-1.27979e-06
-8.65551e-07
-1.29e-06
-1.25259e-06
-1.3407e-06
-1.60247e-06
-1.45734e-06
-1.96745e-06
-1.48488e-06
-2.35619e-06
-1.45332e-06
-2.7838e-06
-1.39553e-06
-3.29536e-06
-1.32115e-06
-3.90154e-06
-1.20145e-06
-4.60427e-06
-9.84386e-07
-5.32357e-06
-8.09555e-07
-6.06315e-06
-6.69313e-07
-6.78978e-06
-5.51591e-07
-7.47671e-06
-4.36703e-07
-8.16933e-06
-3.314e-07
-8.95907e-06
-1.76892e-07
-9.99398e-06
8.47803e-08
-1.13255e-05
4.35726e-07
-1.27675e-05
8.07299e-07
-1.41631e-05
1.08606e-06
-1.5451e-05
1.26368e-06
-1.66419e-05
1.41578e-06
-1.77788e-05
1.53492e-06
-1.88659e-05
1.64136e-06
-1.98627e-05
1.70463e-06
-2.07412e-05
1.73399e-06
-2.1512e-05
1.72875e-06
-2.21708e-05
1.65325e-06
-2.27703e-05
1.54292e-06
-2.33051e-05
1.35675e-06
-2.38031e-05
1.14184e-06
-2.42462e-05
8.85951e-07
-2.46374e-05
6.13003e-07
-2.49654e-05
3.13207e-07
-2.51838e-05
-2.77993e-08
-2.53049e-05
-3.74481e-07
-2.53121e-05
-7.2995e-07
-2.52102e-05
-1.08019e-06
-2.50086e-05
-1.38728e-06
-2.47209e-05
-1.63361e-06
-2.43678e-05
-1.83097e-06
-2.39624e-05
-1.98688e-06
-2.35077e-05
-2.11554e-06
-2.30346e-05
-2.21826e-06
-2.25397e-05
-2.32445e-06
-2.20191e-05
-2.43045e-06
-2.1468e-05
-2.58052e-06
-2.08866e-05
-2.737e-06
-2.02914e-05
-2.85221e-06
-1.96851e-05
-3.03278e-06
-1.90705e-05
-3.19918e-06
-1.84858e-05
-3.24162e-06
-1.78614e-05
-3.25918e-06
-1.7222e-05
-3.32455e-06
-1.65642e-05
-3.36953e-06
-1.59592e-05
-3.3976e-06
-1.53701e-05
-3.43405e-06
-1.46664e-05
-3.39342e-06
-1.39565e-05
-3.19137e-06
-1.32665e-05
-3.00743e-06
-1.26644e-05
-2.8206e-06
-1.21578e-05
-2.67987e-06
-1.16833e-05
-2.66899e-06
-1.1312e-05
-2.55409e-06
-1.10512e-05
-2.31457e-06
-1.08236e-05
-2.25468e-06
-1.04731e-05
-2.68515e-06
-9.88704e-06
-3.45393e-06
-9.03094e-06
-4.23346e-06
-8.1158e-06
-4.71758e-06
-7.18578e-06
-4.93684e-06
-6.19378e-06
-4.50811e-06
-5.1206e-06
-3.94528e-06
-3.99522e-06
-3.85473e-06
-3.03351e-06
-3.3076e-06
-2.23024e-06
-2.47187e-06
-1.24352e-06
-2.64847e-06
-4.59767e-07
-2.51001e-06
-1.40413e-07
-1.4789e-06
3.34416e-07
-1.54022e-06
4.61962e-07
-1.18034e-06
-1.99252e-07
2.25688e-07
-9.38464e-07
-1.04509e-07
-1.53926e-06
-1.23741e-06
-1.92017e-06
-1.09557e-06
-1.73501e-06
-1.41569e-06
-1.66708e-06
-2.43947e-06
-2.72304e-06
-2.17768e-06
-5.03772e-06
-1.0417e-07
-7.94224e-06
2.57519e-06
-1.05498e-05
4.89729e-06
-1.25087e-05
6.4002e-06
-1.37096e-05
7.20409e-06
-1.41632e-05
7.5111e-06
-1.41384e-05
7.53128e-06
-1.3984e-05
7.2246e-06
-1.40385e-05
6.71253e-06