/*--------------------------------*- C++ -*----------------------------------*\
| =========                 |                                                 |
| \\      /  F ield         | OpenFOAM: The Open Source CFD Toolbox           |
|  \\    /   O peration     | Version:  dev                                   |
|   \\  /    A nd           | Web:      http://www.openfoam.org               |
|    \\/     M anipulation  |                                                 |
\*---------------------------------------------------------------------------*/
FoamFile
{
    version     2.0;
    format      ascii;
    class       surfaceScalarField;
    object      phi_0;
    location    "9.154";
}
// * * * * * * * * * * * * * * * * * * * * * * * * * * * * * * * * * * * * * //

dimensions      [1 0 -1 0 0 0 0];

internalField   nonuniform List<scalar> 
24170
(
2.44934e-06
7.49226e-07
1.85092e-06
2.23107e-07
1.78227e-06
-2.83351e-07
1.94377e-06
-4.92144e-07
2.17983e-06
-5.4651e-07
2.47176e-06
-5.84943e-07
2.7071e-06
-5.09477e-07
3.11554e-06
-6.67528e-07
3.35894e-06
-4.84736e-07
3.84302e-06
-7.13237e-07
4.15165e-06
-5.20803e-07
4.87642e-06
-9.29631e-07
5.19717e-06
-5.13611e-07
6.52737e-06
-1.5147e-06
6.52683e-06
-1.87608e-07
8.54793e-06
-2.1713e-06
1.21462e-05
-3.8147e-06
-7.41409e-06
1.94264e-05
4.10772e-06
4.45824e-08
3.82787e-06
9.90002e-08
3.69523e-06
-5.27231e-07
3.57068e-06
-7.20878e-07
3.69345e-06
-1.00213e-06
3.79976e-06
-1.00459e-06
4.05529e-06
-1.05949e-06
4.41793e-06
-1.30885e-06
4.74448e-06
-1.07145e-06
5.08896e-06
-1.30672e-06
5.7122e-06
-1.37151e-06
6.53342e-06
-1.97357e-06
7.18851e-06
-1.37643e-06
8.74812e-06
-3.27267e-06
9.20404e-06
-8.44551e-07
1.25102e-05
-5.61701e-06
1.53541e-05
-6.90006e-06
-9.54526e-06
1.73246e-05
5.01177e-06
-1.09273e-06
5.17619e-06
-5.04864e-07
5.38595e-06
-1.14706e-06
5.33581e-06
-1.05615e-06
5.49869e-06
-1.52787e-06
5.47969e-06
-1.32599e-06
5.79162e-06
-1.68993e-06
6.10899e-06
-1.9283e-06
6.43302e-06
-1.67619e-06
7.26865e-06
-2.41213e-06
7.52909e-06
-1.88081e-06
8.64564e-06
-3.33175e-06
8.91818e-06
-1.87787e-06
1.02515e-05
-4.82427e-06
1.08732e-05
-1.67307e-06
1.28849e-05
-7.82016e-06
1.35685e-05
-7.7645e-06
-1.22823e-05
1.60859e-05
5.29941e-06
-2.21849e-06
5.97174e-06
-1.65557e-06
6.45085e-06
-2.07342e-06
6.78423e-06
-1.80945e-06
7.0173e-06
-2.15619e-06
7.45684e-06
-2.13547e-06
7.61746e-06
-2.19579e-06
8.23259e-06
-2.86767e-06
8.29439e-06
-2.04347e-06
9.19197e-06
-3.5949e-06
9.28784e-06
-2.24622e-06
1.00998e-05
-4.39897e-06
1.02725e-05
-2.30317e-06
1.13514e-05
-6.13778e-06
1.19677e-05
-2.52932e-06
1.27598e-05
-8.8613e-06
1.34442e-05
-8.64347e-06
-1.61953e-05
1.71625e-05
5.70411e-06
-3.17104e-06
6.77991e-06
-3.24954e-06
7.1719e-06
-2.95042e-06
7.96344e-06
-3.05514e-06
8.0982e-06
-2.72013e-06
8.87188e-06
-3.30937e-06
8.95435e-06
-2.65186e-06
9.60574e-06
-3.86755e-06
9.65378e-06
-2.42181e-06
1.03743e-05
-4.6225e-06
1.05378e-05
-2.69566e-06
1.11479e-05
-5.28211e-06
1.1337e-05
-2.75864e-06
1.1962e-05
-7.01869e-06
1.27729e-05
-3.59261e-06
1.34422e-05
-9.79394e-06
1.32851e-05
-8.75218e-06
-1.97298e-05
1.66541e-05
6.30628e-06
-4.24034e-06
7.25149e-06
-4.75213e-06
7.54409e-06
-3.76467e-06
8.42936e-06
-4.42792e-06
8.61217e-06
-3.36542e-06
9.44049e-06
-4.56752e-06
9.65817e-06
-3.27111e-06
1.03917e-05
-4.97637e-06
1.05918e-05
-2.97577e-06
1.12983e-05
-5.6557e-06
1.14637e-05
-3.16793e-06
1.21517e-05
-6.26231e-06
1.24362e-05
-3.32837e-06
1.32335e-05
-8.08713e-06
1.40914e-05
-4.71483e-06
1.44215e-05
-1.03783e-05
1.33024e-05
-7.92054e-06
-1.90079e-05
1.23462e-05
6.94118e-06
-5.07907e-06
7.69552e-06
-6.09856e-06
8.00401e-06
-4.62649e-06
8.83152e-06
-5.77128e-06
9.11122e-06
-4.13381e-06
9.96678e-06
-5.87921e-06
1.03926e-05
-4.12392e-06
1.12507e-05
-6.23416e-06
1.1819e-05
-3.91747e-06
1.25344e-05
-6.71756e-06
1.28754e-05
-3.83514e-06
1.34843e-05
-7.18231e-06
1.4359e-05
-4.50082e-06
1.47734e-05
-8.78851e-06
1.56382e-05
-5.85907e-06
1.54277e-05
-1.04337e-05
1.4945e-05
-7.71319e-06
-1.47567e-05
1.04109e-05
5.52628e-06
-6.10345e-06
6.1798e-06
-7.19429e-06
6.445e-06
-5.30573e-06
6.99811e-06
-6.71004e-06
7.25393e-06
-4.75271e-06
7.80763e-06
-6.77132e-06
8.1971e-06
-4.82885e-06
8.73752e-06
-7.068e-06
9.23165e-06
-4.68582e-06
9.54762e-06
-7.29021e-06
1.01122e-05
-4.64294e-06
1.0403e-05
-7.70379e-06
1.12144e-05
-5.53229e-06
1.129e-05
-9.07694e-06
1.20132e-05
-6.78807e-06
1.16501e-05
-1.02672e-05
1.20957e-05
-8.3502e-06
-1.2752e-05
9.89586e-06
6.41256e-06
-7.23166e-06
7.13983e-06
-8.4116e-06
7.49476e-06
-6.11829e-06
8.09787e-06
-7.74182e-06
8.53456e-06
-5.59214e-06
9.08977e-06
-7.70096e-06
9.60657e-06
-5.69225e-06
1.00346e-05
-7.81635e-06
1.06724e-05
-5.62176e-06
1.09634e-05
-7.86099e-06
1.17079e-05
-5.65164e-06
1.198e-05
-8.2291e-06
1.27699e-05
-6.56109e-06
1.26709e-05
-9.20824e-06
1.33542e-05
-7.69236e-06
1.30434e-05
-1.01717e-05
1.35014e-05
-9.01256e-06
-1.1245e-05
1.17899e-05
7.33315e-06
-8.3236e-06
8.01503e-06
-9.62893e-06
8.68653e-06
-7.2863e-06
9.31737e-06
-8.83629e-06
1.00893e-05
-6.79818e-06
1.05643e-05
-8.57964e-06
1.12537e-05
-6.7529e-06
1.15938e-05
-8.50015e-06
1.23507e-05
-6.6958e-06
1.26041e-05
-8.41187e-06
1.35083e-05
-6.83331e-06
1.36831e-05
-8.67125e-06
1.4509e-05
-7.63945e-06
1.44265e-05
-9.36822e-06
1.51505e-05
-8.64759e-06
1.47225e-05
-9.97323e-06
1.51299e-05
-9.63932e-06
-1.03658e-05
1.40388e-05
8.54266e-06
-9.78197e-06
9.29136e-06
-1.09402e-05
1.01632e-05
-8.67911e-06
1.0768e-05
-9.92849e-06
1.16483e-05
-8.13131e-06
1.21724e-05
-9.52486e-06
1.2968e-05
-7.92898e-06
1.33341e-05
-9.21776e-06
1.41372e-05
-7.82296e-06
1.44479e-05
-9.03122e-06
1.5309e-05
-7.97917e-06
1.55517e-05
-9.18472e-06
1.62811e-05
-8.62256e-06
1.63377e-05
-9.66899e-06
1.68625e-05
-9.40274e-06
1.66565e-05
-9.99675e-06
1.68868e-05
-1.00952e-05
-1.01175e-05
1.64192e-05
1.04716e-05
-1.1224e-05
1.08711e-05
-1.19073e-05
1.17783e-05
-1.01042e-05
1.23141e-05
-1.09473e-05
1.33584e-05
-9.61888e-06
1.38641e-05
-1.04429e-05
1.48056e-05
-9.24283e-06
1.51917e-05
-9.94189e-06
1.61337e-05
-9.07175e-06
1.65059e-05
-9.69229e-06
1.74569e-05
-9.19931e-06
1.77814e-05
-9.76491e-06
1.84932e-05
-9.57585e-06
1.85961e-05
-1.00042e-05
1.90241e-05
-1.00484e-05
1.90311e-05
-1.02137e-05
1.89969e-05
-1.02702e-05
-1.01884e-05
1.88627e-05
1.20109e-05
-1.28269e-05
1.26549e-05
-1.30802e-05
1.37151e-05
-1.16357e-05
1.43229e-05
-1.19907e-05
1.53784e-05
-1.10659e-05
1.60203e-05
-1.14411e-05
1.70804e-05
-1.06234e-05
1.77132e-05
-1.08636e-05
1.86781e-05
-1.02945e-05
1.91708e-05
-1.04217e-05
1.99825e-05
-1.02282e-05
2.03864e-05
-1.03743e-05
2.09572e-05
-1.03405e-05
2.12137e-05
-1.04477e-05
2.14508e-05
-1.04658e-05
2.15202e-05
-1.04552e-05
2.14732e-05
-1.03942e-05
-1.02882e-05
2.14033e-05
1.39637e-05
-1.44034e-05
1.46711e-05
-1.4194e-05
1.58299e-05
-1.31397e-05
1.66036e-05
-1.30723e-05
1.77403e-05
-1.24721e-05
1.84619e-05
-1.23941e-05
1.94758e-05
-1.18348e-05
2.02049e-05
-1.17637e-05
2.11051e-05
-1.13409e-05
2.18102e-05
-1.12574e-05
2.25528e-05
-1.10866e-05
2.31483e-05
-1.10756e-05
2.36874e-05
-1.09781e-05
2.40862e-05
-1.09399e-05
2.43571e-05
-1.08305e-05
2.4502e-05
-1.0691e-05
2.45283e-05
-1.05138e-05
-1.03009e-05
2.44419e-05
1.60908e-05
-1.53299e-05
1.70174e-05
-1.52661e-05
1.83467e-05
-1.45604e-05
1.9456e-05
-1.42411e-05
2.06389e-05
-1.36825e-05
2.1557e-05
-1.33121e-05
2.25473e-05
-1.27987e-05
2.33605e-05
-1.25303e-05
2.42404e-05
-1.21594e-05
2.49849e-05
-1.19323e-05
2.56898e-05
-1.17188e-05
2.62486e-05
-1.1562e-05
2.67397e-05
-1.14001e-05
2.71064e-05
-1.12393e-05
2.73813e-05
-1.1045e-05
2.75875e-05
-1.08466e-05
2.77096e-05
-1.0593e-05
-1.02934e-05
2.77356e-05
1.8605e-05
-1.69976e-05
2.00136e-05
-1.63524e-05
2.12815e-05
-1.54642e-05
2.24003e-05
-1.4987e-05
2.35349e-05
-1.44304e-05
2.46062e-05
-1.39841e-05
2.573e-05
-1.35161e-05
2.67611e-05
-1.31517e-05
2.77858e-05
-1.27789e-05
2.87215e-05
-1.24723e-05
2.95663e-05
-1.21805e-05
3.02559e-05
-1.18842e-05
3.08109e-05
-1.16078e-05
3.12352e-05
-1.13368e-05
3.15538e-05
-1.1058e-05
3.1759e-05
-1.07679e-05
3.18638e-05
-1.04373e-05
-1.00852e-05
3.18906e-05
2.13191e-05
-1.73277e-05
2.30025e-05
-1.69334e-05
2.4639e-05
-1.59933e-05
2.61252e-05
-1.5394e-05
2.75416e-05
-1.47924e-05
2.88253e-05
-1.4236e-05
3.00328e-05
-1.37171e-05
3.11197e-05
-1.32608e-05
3.21296e-05
-1.28431e-05
3.30274e-05
-1.24631e-05
3.38166e-05
-1.21042e-05
3.45132e-05
-1.17596e-05
3.50975e-05
-1.1417e-05
3.5567e-05
-1.10759e-05
3.59004e-05
-1.07067e-05
3.61645e-05
-1.03915e-05
3.63789e-05
-1.0056e-05
-9.69666e-06
3.6542e-05
2.20282e-05
-1.67577e-05
2.34124e-05
-1.64058e-05
2.49253e-05
-1.56188e-05
2.64011e-05
-1.50554e-05
2.78168e-05
-1.44652e-05
2.90893e-05
-1.38327e-05
3.03263e-05
-1.33445e-05
3.14621e-05
-1.28525e-05
3.24775e-05
-1.2381e-05
3.3407e-05
-1.19857e-05
3.42133e-05
-1.15761e-05
3.48822e-05
-1.11689e-05
3.54256e-05
-1.07743e-05
3.58614e-05
-1.03938e-05
3.62381e-05
-1.00346e-05
3.64785e-05
-9.64886e-06
3.66811e-05
-9.33977e-06
-8.99502e-06
3.68324e-05
1.95391e-05
-1.61498e-05
2.11276e-05
-1.56245e-05
2.25484e-05
-1.47248e-05
2.38254e-05
-1.41211e-05
2.50149e-05
-1.35441e-05
2.61321e-05
-1.29345e-05
2.71244e-05
-1.24121e-05
2.80829e-05
-1.19761e-05
2.89521e-05
-1.15044e-05
2.97465e-05
-1.11233e-05
3.04542e-05
-1.07176e-05
3.10751e-05
-1.03123e-05
3.16072e-05
-9.91829e-06
3.2062e-05
-9.54189e-06
3.24411e-05
-9.18556e-06
3.27819e-05
-8.83977e-06
3.30082e-05
-8.48785e-06
-8.1452e-06
3.31615e-05
1.74198e-05
-1.42748e-05
1.85116e-05
-1.41036e-05
1.96672e-05
-1.33417e-05
2.07855e-05
-1.28247e-05
2.18871e-05
-1.2349e-05
2.29986e-05
-1.18656e-05
2.39801e-05
-1.13174e-05
2.48756e-05
-1.08963e-05
2.57056e-05
-1.04613e-05
2.64365e-05
-1.00778e-05
2.70911e-05
-9.69683e-06
2.76798e-05
-9.32018e-06
2.81984e-05
-8.9507e-06
2.86418e-05
-8.58926e-06
2.90214e-05
-8.2515e-06
2.93278e-05
-7.91726e-06
2.95815e-05
-7.58872e-06
-7.2688e-06
2.97795e-05
1.56875e-05
-1.25433e-05
1.67337e-05
-1.24736e-05
1.78857e-05
-1.1895e-05
1.89428e-05
-1.14129e-05
1.98636e-05
-1.09222e-05
2.06947e-05
-1.0474e-05
2.15139e-05
-1.00246e-05
2.22383e-05
-9.61196e-06
2.29487e-05
-9.2728e-06
2.36022e-05
-8.93147e-06
2.419e-05
-8.58966e-06
2.47131e-05
-8.24571e-06
2.51743e-05
-7.9072e-06
2.55721e-05
-7.57526e-06
2.58965e-05
-7.24647e-06
2.61509e-05
-6.92947e-06
2.63442e-05
-6.61693e-06
-6.33146e-06
2.6494e-05
1.39593e-05
-1.0707e-05
1.49693e-05
-1.08546e-05
1.5995e-05
-1.03717e-05
1.69329e-05
-9.93111e-06
1.78118e-05
-9.49969e-06
1.86155e-05
-9.09671e-06
1.938e-05
-8.72424e-06
2.01023e-05
-8.37185e-06
2.07229e-05
-8.03894e-06
2.1298e-05
-7.74973e-06
2.18201e-05
-7.454e-06
2.22851e-05
-7.15002e-06
2.26995e-05
-6.85095e-06
2.30628e-05
-6.56044e-06
2.33807e-05
-6.26817e-06
2.36454e-05
-5.98156e-06
2.38606e-05
-5.69564e-06
-5.4398e-06
2.40325e-05
1.25356e-05
-9.29453e-06
1.35747e-05
-9.3888e-06
1.45512e-05
-8.91919e-06
1.53667e-05
-8.43797e-06
1.60798e-05
-8.01977e-06
1.67337e-05
-7.66971e-06
1.73551e-05
-7.37642e-06
1.79539e-05
-7.10474e-06
1.85126e-05
-6.83331e-06
1.89998e-05
-6.56766e-06
1.94581e-05
-6.33609e-06
1.98762e-05
-6.08325e-06
2.02551e-05
-5.83163e-06
2.05903e-05
-5.58334e-06
2.08859e-05
-5.33141e-06
2.11418e-05
-5.0831e-06
2.13703e-05
-4.84277e-06
-4.6163e-06
2.1559e-05
1.11124e-05
-7.7398e-06
1.19418e-05
-7.87521e-06
1.28223e-05
-7.53008e-06
1.36392e-05
-7.09656e-06
1.43823e-05
-6.71471e-06
1.50739e-05
-6.41866e-06
1.57066e-05
-6.16765e-06
1.62674e-05
-5.92201e-06
1.67666e-05
-5.68323e-06
1.71988e-05
-5.44175e-06
1.75772e-05
-5.24421e-06
1.79142e-05
-5.03411e-06
1.82113e-05
-4.82423e-06
1.84662e-05
-4.61174e-06
1.86979e-05
-4.41205e-06
1.89061e-05
-4.2124e-06
1.90915e-05
-4.01779e-06
-3.83394e-06
1.92538e-05
1.00438e-05
-6.09188e-06
1.08156e-05
-6.48853e-06
1.16187e-05
-6.2433e-06
1.23418e-05
-5.83165e-06
1.29937e-05
-5.48004e-06
1.3595e-05
-5.23119e-06
1.41472e-05
-5.02479e-06
1.465e-05
-4.81945e-06
1.50995e-05
-4.61395e-06
1.55209e-05
-4.42801e-06
1.58922e-05
-4.2614e-06
1.6213e-05
-4.07886e-06
1.64986e-05
-3.90881e-06
1.67425e-05
-3.72664e-06
1.69494e-05
-3.55899e-06
1.7124e-05
-3.39293e-06
1.72733e-05
-3.23573e-06
-3.09278e-06
1.74038e-05
8.85583e-06
-4.81545e-06
9.73675e-06
-5.40054e-06
1.05087e-05
-5.11045e-06
1.11886e-05
-4.69981e-06
1.18179e-05
-4.39014e-06
1.23961e-05
-4.17949e-06
1.29128e-05
-3.9975e-06
1.33591e-05
-3.80372e-06
1.37379e-05
-3.60954e-06
1.40655e-05
-3.44834e-06
1.43523e-05
-3.31442e-06
1.46017e-05
-3.16534e-06
1.48173e-05
-3.02963e-06
1.50109e-05
-2.8913e-06
1.51723e-05
-2.75413e-06
1.53058e-05
-2.62054e-06
1.54201e-05
-2.50103e-06
-2.39595e-06
1.55178e-05
7.99727e-06
-3.83961e-06
8.79217e-06
-4.41675e-06
9.47902e-06
-4.07525e-06
1.00753e-05
-3.65748e-06
1.05926e-05
-3.35202e-06
1.1038e-05
-3.1503e-06
1.14221e-05
-2.98505e-06
1.17565e-05
-2.81656e-06
1.20477e-05
-2.65088e-06
1.22935e-05
-2.51303e-06
1.2495e-05
-2.40107e-06
1.26548e-05
-2.27432e-06
1.27734e-05
-2.15898e-06
1.28736e-05
-2.06133e-06
1.29599e-05
-1.96705e-06
1.30307e-05
-1.87218e-06
1.30882e-05
-1.79094e-06
-1.71384e-06
1.31247e-05
7.19662e-06
-2.87185e-06
7.87961e-06
-3.50017e-06
8.37406e-06
-3.02113e-06
8.76075e-06
-2.57114e-06
9.05616e-06
-2.2489e-06
9.25887e-06
-2.02659e-06
9.40944e-06
-1.87897e-06
9.53466e-06
-1.75251e-06
9.6549e-06
-1.64659e-06
9.751e-06
-1.54702e-06
9.82582e-06
-1.47392e-06
9.88036e-06
-1.38466e-06
9.92646e-06
-1.31653e-06
9.96012e-06
-1.25963e-06
9.9806e-06
-1.2029e-06
9.99317e-06
-1.14836e-06
9.99386e-06
-1.10095e-06
-1.05116e-06
9.97858e-06
6.35366e-06
-2.02416e-06
6.39666e-06
-2.11657e-06
6.33027e-06
-1.57092e-06
6.29147e-06
-1.21465e-06
6.29058e-06
-9.96563e-07
6.3131e-06
-8.62166e-07
6.34098e-06
-7.82517e-07
6.38784e-06
-7.35703e-07
6.4471e-06
-7.00815e-07
6.52111e-06
-6.72426e-07
6.57206e-06
-6.30244e-07
6.6356e-06
-6.04856e-07
6.68793e-06
-5.74496e-07
6.72981e-06
-5.53744e-07
6.7624e-06
-5.32145e-07
6.79155e-06
-5.16481e-07
6.81248e-06
-5.01331e-07
-4.85524e-07
6.82924e-06
4.25445e-06
3.40502e-06
3.05681e-06
3.00696e-06
3.1167e-06
3.30312e-06
3.51302e-06
3.71573e-06
3.90163e-06
4.06649e-06
4.22627e-06
4.36631e-06
4.49355e-06
4.60031e-06
4.68929e-06
4.75629e-06
4.80277e-06
4.83173e-06
-3.35534e-07
-3.27229e-07
-7.17181e-07
-3.0067e-07
-1.10766e-06
-2.95368e-07
-1.48627e-06
-3.08994e-07
-1.85753e-06
-3.18398e-07
-2.22747e-06
-3.21384e-07
-2.60035e-06
-3.1976e-07
-2.97716e-06
-3.16959e-07
-3.36481e-06
-3.06699e-07
-3.77316e-06
-2.85535e-07
-4.20706e-06
-2.58581e-07
-4.65949e-06
-2.38117e-07
-5.13201e-06
-2.1605e-07
-5.60192e-06
-2.16733e-07
-6.06507e-06
-2.1958e-07
-6.54708e-06
-1.93581e-07
-7.06601e-06
-1.49128e-07
-7.61866e-06
-1.10544e-07
-8.18088e-06
-9.7566e-08
-8.72496e-06
-1.10941e-07
-9.22818e-06
-1.4444e-07
-9.72187e-06
-1.44125e-07
-1.02774e-05
-7.30226e-08
-1.09125e-05
1.12737e-08
-1.15964e-05
6.59216e-08
-1.23401e-05
1.39001e-07
-1.31495e-05
2.18492e-07
-1.40051e-05
2.77131e-07
-1.48836e-05
3.16169e-07
-1.57595e-05
3.28503e-07
-1.66106e-05
3.10143e-07
-1.74073e-05
2.53833e-07
-1.81229e-05
1.65941e-07
-1.87432e-05
6.48048e-08
-1.92505e-05
-4.56908e-08
-1.96457e-05
-1.45539e-07
-1.99386e-05
-2.30402e-07
-2.01395e-05
-3.04854e-07
-2.0254e-05
-3.76423e-07
-2.02942e-05
-4.39852e-07
-2.02615e-05
-5.06014e-07
-2.01607e-05
-5.69866e-07
-2.00049e-05
-6.2308e-07
-1.97987e-05
-6.74603e-07
-1.95408e-05
-7.29536e-07
-1.92494e-05
-7.66729e-07
-1.89214e-05
-8.05745e-07
-1.85726e-05
-8.28794e-07
-1.81992e-05
-8.60766e-07
-1.7767e-05
-9.35018e-07
-1.7259e-05
-1.02999e-06
-1.66887e-05
-1.11061e-06
-1.60969e-05
-1.14619e-06
-1.54698e-05
-1.1874e-06
-1.48739e-05
-1.16298e-06
-1.4296e-05
-1.16133e-06
-1.37658e-05
-1.13242e-06
-1.33455e-05
-1.04397e-06
-1.29941e-05
-1.00142e-06
-1.26796e-05
-9.91539e-07
-1.23924e-05
-9.91532e-07
-1.21248e-05
-9.99144e-07
-1.18475e-05
-1.03446e-06
-1.15611e-05
-1.06745e-06
-1.12652e-05
-1.09916e-06
-1.09188e-05
-1.17076e-06
-1.04953e-05
-1.26899e-06
-9.97666e-06
-1.38621e-06
-9.38861e-06
-1.47768e-06
-8.75241e-06
-1.54772e-06
-8.15286e-06
-1.53287e-06
-7.70384e-06
-1.40452e-06
-7.4514e-06
-1.22942e-06
-7.30016e-06
-1.14619e-06
-7.22475e-06
-1.08858e-06
-7.20499e-06
-1.05671e-06
-7.04894e-06
-1.21096e-06
-6.83211e-06
-1.271e-06
-6.76416e-06
-1.11445e-06
-6.80099e-06
-1.01698e-06
-6.7764e-06
-1.10083e-06
-6.7123e-06
-1.15906e-06
-6.60277e-06
-1.20961e-06
-6.45386e-06
-1.24263e-06
-6.27385e-06
-1.26318e-06
-5.87886e-06
-1.46685e-06
-5.09683e-06
-1.84245e-06
-3.83621e-06
-2.30533e-06
-2.49032e-06
-2.36671e-06
-1.42334e-06
-2.06461e-06
-5.07308e-07
-1.8908e-06
4.58821e-07
-1.90928e-06
1.2903e-06
-1.74194e-06
1.48438e-06
-1.06968e-06
5.84159e-07
8.9803e-08
-1.17073e-06
1.00279e-06
-3.20925e-06
1.32799e-06
-4.9568e-06
1.09631e-06
-6.14803e-06
5.9973e-07
-7.03068e-06
3.34229e-07
-8.11494e-06
5.88392e-07
-9.95405e-06
1.43044e-06
-1.21671e-05
1.91122e-06
-1.3378e-05
9.39426e-07
-1.2108e-05
-1.64382e-06
-9.41474e-06
-3.01884e-06
-7.31673e-06
-2.25056e-06
-6.15477e-06
-1.24786e-06
-4.77917e-06
-1.44858e-06
-2.71681e-06
-2.11271e-06
-5.48742e-07
-2.17601e-06
-3.87579e-08
-4.84905e-07
-1.3229e-06
1.3398e-06
8.84137e-07
-2.17204e-06
1.4847e-06
-5.73445e-07
1.73626e-06
-2.25332e-07
2.32977e-06
-5.59066e-07
3.57353e-06
-1.19209e-06
4.48544e-06
-8.42292e-07
6.41441e-06
-1.80821e-06
7.93965e-06
-1.3316e-06
8.18902e-06
1.83076e-08
7.19318e-06
1.35337e-06
5.56208e-06
2.12443e-06
3.74944e-06
2.48827e-06
1.87163e-06
2.78057e-06
1.01217e-07
2.94487e-06
-1.72342e-06
3.32344e-06
-3.64609e-06
3.7863e-06
-5.76445e-06
4.40332e-06
-7.97511e-06
4.96083e-06
-1.03689e-05
5.63994e-06
-1.25284e-05
5.93313e-06
-1.47692e-05
6.59329e-06
-1.65712e-05
6.77042e-06
-1.83574e-05
7.34981e-06
-1.96942e-05
7.58461e-06
-2.09616e-05
8.18083e-06
-2.16235e-05
8.33431e-06
-2.21878e-05
8.96375e-06
-2.2508e-05
9.50377e-06
-2.26636e-05
1.00507e-05
-2.26297e-05
1.06346e-05
-2.2672e-05
1.14259e-05
-2.24299e-05
1.17746e-05
-2.18656e-05
1.23466e-05
-2.0501e-05
1.2121e-05
-1.87045e-05
1.22811e-05
-1.77668e-05
1.36928e-05
-1.83193e-05
1.56844e-05
-2.06081e-05
1.81279e-05
-2.00936e-05
1.49784e-05
-1.89692e-05
1.53506e-05
-1.73913e-05
1.58703e-05
-1.14797e-05
1.23975e-05
-9.20575e-06
1.66912e-05
-8.99668e-06
1.95009e-05
-8.61397e-06
2.02959e-05
-7.2229e-06
2.05016e-05
-5.32166e-06
2.09113e-05
-4.11704e-06
2.2191e-05
-3.27076e-06
2.31613e-05
-2.45847e-06
2.38332e-05
-1.51232e-06
2.43588e-05
-1.35201e-07
2.49463e-05
2.25354e-06
2.51733e-05
5.93444e-06
2.48368e-05
9.95069e-06
2.49135e-05
1.42014e-05
2.4008e-05
1.72482e-05
2.37981e-05
1.7004e-05
2.67102e-05
1.49307e-05
2.87695e-05
1.04079e-05
3.07383e-05
1.70734e-05
1.68079e-05
2.99026e-05
7.49221e-06
3.26549e-05
1.78748e-05
3.25843e-05
1.86998e-05
2.86859e-05
2.0025e-05
2.15164e-05
2.17749e-05
1.89016e-05
1.67857e-05
-3.59141e-07
-6.3678e-07
-7.53962e-07
-5.98582e-07
-1.14521e-06
-6.0125e-07
-1.51698e-06
-6.36614e-07
-1.88657e-06
-6.51525e-07
-2.2623e-06
-6.50925e-07
-2.64144e-06
-6.4887e-07
-3.0173e-06
-6.53149e-07
-3.39983e-06
-6.38873e-07
-3.80346e-06
-5.97157e-07
-4.20375e-06
-5.71916e-07
-4.614e-06
-5.37328e-07
-5.07188e-06
-4.65121e-07
-5.60102e-06
-4.01471e-07
-6.19476e-06
-3.46741e-07
-6.82016e-06
-2.7919e-07
-7.44676e-06
-2.09238e-07
-8.04277e-06
-1.79767e-07
-8.61116e-06
-1.86747e-07
-9.20389e-06
-1.81833e-07
-9.92493e-06
-1.06719e-07
-1.07914e-05
2.92893e-08
-1.17342e-05
2.11666e-07
-1.27385e-05
4.00913e-07
-1.38071e-05
5.26348e-07
-1.48855e-05
6.11292e-07
-1.59483e-05
6.90759e-07
-1.69813e-05
7.26236e-07
-1.79567e-05
7.12335e-07
-1.88589e-05
6.61529e-07
-1.96575e-05
5.44581e-07
-2.03599e-05
3.95974e-07
-2.09637e-05
2.19812e-07
-2.14699e-05
2.94399e-08
-2.18891e-05
-1.57205e-07
-2.22106e-05
-3.39284e-07
-2.2415e-05
-5.26682e-07
-2.25033e-05
-7.0363e-07
-2.24819e-05
-8.73738e-07
-2.2366e-05
-1.02413e-06
-2.21797e-05
-1.15464e-06
-2.1931e-05
-1.2747e-06
-2.16337e-05
-1.37467e-06
-2.12982e-05
-1.46683e-06
-2.09233e-05
-1.56724e-06
-2.05083e-05
-1.65268e-06
-2.00449e-05
-1.74396e-06
-1.95156e-05
-1.82798e-06
-1.89349e-05
-1.90277e-06
-1.82976e-05
-2.03792e-06
-1.76265e-05
-2.19326e-06
-1.69425e-05
-2.32655e-06
-1.62622e-05
-2.38519e-06
-1.55393e-05
-2.46599e-06
-1.48088e-05
-2.44175e-06
-1.40515e-05
-2.48219e-06
-1.33191e-05
-2.45342e-06
-1.2719e-05
-2.24918e-06
-1.22526e-05
-2.09405e-06
-1.1883e-05
-2.01631e-06
-1.1544e-05
-2.01635e-06
-1.12172e-05
-2.042e-06
-1.08521e-05
-2.14353e-06
-1.04585e-05
-2.23281e-06
-1.00864e-05
-2.26575e-06
-9.6891e-06
-2.37704e-06
-9.16885e-06
-2.61093e-06
-8.48031e-06
-2.9121e-06
-7.67216e-06
-3.14096e-06
-6.76152e-06
-3.33271e-06
-5.83507e-06
-3.3596e-06
-5.13192e-06
-3.03463e-06
-4.68912e-06
-2.62005e-06
-4.36117e-06
-2.44543e-06
-4.16173e-06
-2.28447e-06
-4.14414e-06
-2.08877e-06
-4.17537e-06
-2.1997e-06
-4.13421e-06
-2.33834e-06
-4.10815e-06
-2.1764e-06
-3.97052e-06
-2.20251e-06
-3.66694e-06
-2.46218e-06
-3.33346e-06
-2.54733e-06
-2.92195e-06
-2.66759e-06
-2.37994e-06
-2.82625e-06
-2.12898e-06
-2.55239e-06
-2.09727e-06
-2.52794e-06
-1.57699e-06
-3.38202e-06
-4.84641e-07
-4.40685e-06
9.20377e-07
-4.75045e-06
2.23546e-06
-4.31272e-06
2.76705e-06
-3.32988e-06
1.75456e-06
-1.7951e-06
-7.55269e-07
-9.16204e-08
-3.94061e-06
1.31716e-06
-6.77882e-06
2.20981e-06
-8.84586e-06
2.43049e-06
-9.98923e-06
1.89014e-06
-1.05883e-05
1.13465e-06
-1.11116e-05
5.64137e-07
-1.23014e-05
1.03577e-06
-1.43098e-05
2.31353e-06
-1.64608e-05
3.46061e-06
-1.74832e-05
2.61735e-06
-1.68198e-05
-3.22564e-07
-1.5058e-05
-3.84544e-06
-1.33467e-05
-4.705e-06
-1.19447e-05
-3.52492e-06
-1.02355e-05
-3.01666e-06
-7.65858e-06
-4.15059e-06
-4.74645e-06
-5.03191e-06
-2.10756e-06
-4.73213e-06
-5.73002e-07
-1.95975e-06
-7.72666e-07
1.64999e-06
2.16301e-06
-4.93168e-06
3.81921e-06
-2.1545e-06
4.22736e-06
-6.27497e-07
4.80904e-06
-1.12208e-06
6.05305e-06
-2.39576e-06
6.46585e-06
-1.19836e-06
7.96062e-06
-3.2348e-06
9.56867e-06
-2.80017e-06
1.06373e-05
-7.54805e-07
1.076e-05
1.66927e-06
1.0085e-05
3.35296e-06
8.81744e-06
4.44767e-06
7.2453e-06
5.22985e-06
5.82874e-06
5.4896e-06
4.44645e-06
6.13239e-06
3.21345e-06
6.80157e-06
1.68153e-06
8.16297e-06
-6.66579e-08
9.4346e-06
-2.08963e-06
1.0909e-05
-4.35135e-06
1.19423e-05
-6.61553e-06
1.32119e-05
-8.99506e-06
1.42025e-05
-1.11513e-05
1.52067e-05
-1.28604e-05
1.56883e-05
-1.43228e-05
1.66944e-05
-1.54665e-05
1.73272e-05
-1.65752e-05
1.86306e-05
-1.72254e-05
1.96082e-05
-1.74022e-05
2.04677e-05
-1.76633e-05
2.19608e-05
-1.78541e-05
2.40232e-05
-1.77829e-05
2.42141e-05
-1.72097e-05
2.59882e-05
-1.67893e-05
2.64405e-05
-1.59933e-05
2.64643e-05
-1.59393e-05
2.83524e-05
-1.75943e-05
3.23241e-05
-2.13168e-05
3.78992e-05
-2.16721e-05
3.09976e-05
-2.02607e-05
3.02043e-05
-1.71996e-05
3.02161e-05
-9.84297e-06
2.27297e-05
-3.83586e-06
2.96071e-05
-2.84436e-06
3.92711e-05
-2.75956e-06
4.27376e-05
-1.70169e-06
4.31544e-05
1.98055e-08
4.42202e-05
1.58077e-06
4.71416e-05
2.23629e-06
5.02696e-05
2.15521e-06
5.27234e-05
2.1392e-06
5.42088e-05
3.08816e-06
5.52154e-05
5.72493e-06
5.45887e-05
9.77972e-06
5.30702e-05
1.40544e-05
5.46927e-05
1.69781e-05
5.45081e-05
1.69268e-05
5.46937e-05
1.41389e-05
6.09766e-05
1.09909e-05
6.38618e-05
7.71628e-06
6.1875e-05
1.46513e-05
3.18154e-05
2.82054e-05
1.46469e-05
3.53709e-05
3.44463e-05
3.58659e-05
3.97077e-05
3.0142e-05
4.32925e-05
2.1171e-05
4.75524e-05
4.2927e-05
1.50384e-05
-3.41982e-07
-9.69978e-07
-7.00519e-07
-9.37691e-07
-1.06743e-06
-9.40639e-07
-1.39963e-06
-1.01469e-06
-1.71215e-06
-1.05398e-06
-2.03578e-06
-1.04624e-06
-2.38083e-06
-1.02723e-06
-2.73025e-06
-1.03418e-06
-3.0905e-06
-1.01524e-06
-3.5011e-06
-9.27784e-07
-4.01549e-06
-8.05401e-07
-4.6033e-06
-6.99709e-07
-5.21906e-06
-5.85789e-07
-5.86162e-06
-4.59667e-07
-6.49839e-06
-3.83768e-07
-7.12859e-06
-3.32046e-07
-7.74162e-06
-2.94331e-07
-8.3738e-06
-2.47017e-07
-9.17059e-06
-9.40846e-08
-1.02026e-05
1.42391e-07
-1.14074e-05
4.19381e-07
-1.26703e-05
6.3715e-07
-1.38828e-05
7.71521e-07
-1.50151e-05
8.98699e-07
-1.61178e-05
9.96567e-07
-1.72092e-05
1.07795e-06
-1.82296e-05
1.1226e-06
-1.91764e-05
1.10825e-06
-2.00365e-05
1.03223e-06
-2.07881e-05
8.89387e-07
-2.14439e-05
6.87349e-07
-2.20186e-05
4.67868e-07
-2.25274e-05
2.23559e-07
-2.29475e-05
-4.28037e-08
-2.32721e-05
-3.15623e-07
-2.34882e-05
-6.02866e-07
-2.35864e-05
-8.94962e-07
-2.35654e-05
-1.18393e-06
-2.34511e-05
-1.44742e-06
-2.32605e-05
-1.67176e-06
-2.30151e-05
-1.85402e-06
-2.27279e-05
-2.01118e-06
-2.23988e-05
-2.14754e-06
-2.20306e-05
-2.27326e-06
-2.16314e-05
-2.4004e-06
-2.11988e-05
-2.52152e-06
-2.07095e-05
-2.67426e-06
-2.01409e-05
-2.84118e-06
-1.95111e-05
-2.97426e-06
-1.88246e-05
-3.16127e-06
-1.81179e-05
-3.34387e-06
-1.74521e-05
-3.45611e-06
-1.6824e-05
-3.48651e-06
-1.61919e-05
-3.5752e-06
-1.54906e-05
-3.62715e-06
-1.47551e-05
-3.72929e-06
-1.39894e-05
-3.79338e-06
-1.31651e-05
-3.67073e-06
-1.23533e-05
-3.49871e-06
-1.16153e-05
-3.36063e-06
-1.09584e-05
-3.29467e-06
-1.0347e-05
-3.29202e-06
-9.80256e-06
-3.34742e-06
-9.35971e-06
-3.36093e-06
-9.05932e-06
-3.27851e-06
-8.83495e-06
-3.32869e-06
-8.47522e-06
-3.70077e-06
-7.86029e-06
-4.25968e-06
-6.97231e-06
-4.77005e-06
-5.89263e-06
-5.17891e-06
-4.67253e-06
-5.39002e-06
-3.58666e-06
-4.96533e-06
-2.68694e-06
-4.38358e-06
-1.73655e-06
-4.27637e-06
-9.60629e-07
-3.96434e-06
-5.9195e-07
-3.37338e-06
-2.91262e-07
-3.41812e-06
5.74473e-09
-3.57196e-06
-4.43352e-08
-3.07744e-06
-1.19376e-07
-3.07898e-06
-3.35362e-07
-3.20515e-06
-1.14462e-06
-2.69851e-06
-1.53121e-06
-3.23407e-06
-9.7532e-07
-4.33164e-06
-3.86515e-07
-4.09034e-06
1.34794e-07
-3.98474e-06
1.13768e-06
-5.30013e-06
2.16294e-06
-6.33835e-06
2.26022e-06
-5.74393e-06
9.90358e-07
-3.88914e-06
-1.6393e-06
-1.49385e-06
-4.64549e-06
4.41875e-07
-7.26359e-06
1.78398e-06
-9.1953e-06
2.57196e-06
-1.03936e-05
2.83496e-06
-1.09429e-05
2.4875e-06
-1.10956e-05
1.55783e-06
-1.11045e-05
6.42033e-07
-1.14168e-05
4.14952e-07
-1.24678e-05
1.72059e-06
-1.42396e-05
3.85739e-06
-1.57466e-05
4.86081e-06
-1.5979e-05
2.70081e-06
-1.5003e-05
-1.51435e-06
-1.38202e-05
-5.01767e-06
-1.28183e-05
-5.55302e-06
-1.16743e-05
-4.72056e-06
-9.94669e-06
-4.91787e-06
-7.59648e-06
-6.47028e-06
-5.7628e-06
-6.58768e-06
-4.30569e-06
-5.96477e-06
-1.32982e-06
-4.803e-06
1.68018e-06
-1.24885e-06
4.12197e-06
-7.24036e-06
6.06752e-06
-3.90332e-06
6.89221e-06
-1.35945e-06
7.62663e-06
-1.78005e-06
9.2994e-06
-3.98517e-06
9.14695e-06
-9.43486e-07
9.65176e-06
-3.66178e-06
9.88474e-06
-3.01868e-06
1.00197e-05
-8.25494e-07
1.00586e-05
1.9119e-06
9.95622e-06
3.9221e-06
9.33491e-06
5.65763e-06
8.33766e-06
6.90552e-06
7.21204e-06
7.53295e-06
5.86095e-06
8.70228e-06
5.01279e-06
9.13501e-06
4.03114e-06
1.10056e-05
2.73622e-06
1.29823e-05
9.06922e-07
1.54887e-05
-9.38547e-07
1.69906e-05
-3.04241e-06
1.91111e-05
-4.86114e-06
2.03845e-05
-6.45181e-06
2.18457e-05
-8.26447e-06
2.32638e-05
-1.01592e-05
2.51068e-05
-1.14726e-05
2.5693e-05
-1.25162e-05
2.73396e-05
-1.337e-05
2.87981e-05
-1.36986e-05
2.98502e-05
-1.43932e-05
3.17147e-05
-1.42963e-05
3.55601e-05
-1.48805e-05
3.53879e-05
-1.45689e-05
3.83025e-05
-1.50838e-05
4.15506e-05
-1.57391e-05
4.19159e-05
-1.76479e-05
4.27605e-05
-1.98814e-05
4.62404e-05
-2.23895e-05
5.24525e-05
-2.3081e-05
4.78741e-05
-2.21922e-05
4.52237e-05
-1.94359e-05
4.39592e-05
-1.29728e-05
3.2286e-05
-5.61009e-06
3.87771e-05
-2.22574e-06
5.51926e-05
-1.25883e-06
6.32355e-05
-8.20933e-07
6.35164e-05
3.53292e-07
6.39382e-05
1.68733e-06
6.84319e-05
3.15792e-06
7.40675e-05
4.05785e-06
7.94069e-05
4.85293e-06
8.28243e-05
6.08881e-06
8.386e-05
8.39282e-06
7.99578e-05
1.13161e-05
7.44074e-05
1.47573e-05
7.79539e-05
1.64248e-05
8.29788e-05
1.55505e-05
8.64474e-05
1.43873e-05
9.47351e-05
1.31603e-05
9.60787e-05
8.69e-06
9.05727e-05
1.23354e-05
5.01152e-05
2.36265e-05
2.23531e-05
3.43575e-05
4.34514e-05
3.29645e-05
6.01034e-05
2.57637e-05
6.67597e-05
1.85742e-05
7.26993e-05
6.5171e-05
1.37465e-05
-3.44771e-07
-1.31431e-06
-6.76674e-07
-1.31498e-06
-9.71161e-07
-1.36616e-06
-1.22908e-06
-1.48308e-06
-1.50276e-06
-1.51337e-06
-1.80038e-06
-1.48714e-06
-2.13613e-06
-1.43596e-06
-2.55253e-06
-1.37124e-06
-3.0617e-06
-1.26459e-06
-3.67258e-06
-1.05974e-06
-4.30581e-06
-8.95446e-07
-4.96198e-06
-7.65719e-07
-5.60922e-06
-6.60649e-07
-6.22161e-06
-5.59595e-07
-6.84003e-06
-4.70858e-07
-7.54561e-06
-3.39673e-07
-8.48361e-06
-1.03929e-07
-9.72249e-06
2.20321e-07
-1.11001e-05
5.71197e-07
-1.24513e-05
8.37069e-07
-1.37003e-05
9.99635e-07
-1.48575e-05
1.13276e-06
-1.59662e-05
1.23186e-06
-1.70338e-05
1.31851e-06
-1.80258e-05
1.36359e-06
-1.89116e-05
1.37422e-06
-1.96982e-05
1.35219e-06
-2.03766e-05
1.26173e-06
-2.09974e-05
1.13794e-06
-2.15592e-05
9.37123e-07
-2.20876e-05
7.0468e-07
-2.25669e-05
4.28945e-07
-2.30025e-05
1.34369e-07
-2.33787e-05
-1.87171e-07
-2.3659e-05
-5.54188e-07
-2.38491e-05
-9.28436e-07
-2.39304e-05
-1.31453e-06
-2.39037e-05
-1.70187e-06
-2.37783e-05
-2.05209e-06
-2.35653e-05
-2.34482e-06
-2.3284e-05
-2.58758e-06
-2.29495e-05
-2.78687e-06
-2.25629e-05
-2.95825e-06
-2.2152e-05
-3.10233e-06
-2.1716e-05
-3.24859e-06
-2.12525e-05
-3.38908e-06
-2.0756e-05
-3.5724e-06
-2.02244e-05
-3.77138e-06
-1.96719e-05
-3.92549e-06
-1.91027e-05
-4.14165e-06
-1.8517e-05
-4.36138e-06
-1.79579e-05
-4.4616e-06
-1.73567e-05
-4.52201e-06
-1.67289e-05
-4.63168e-06
-1.60649e-05
-4.73091e-06
-1.54412e-05
-4.81107e-06
-1.48302e-05
-4.90477e-06
-1.40913e-05
-4.93337e-06
-1.333e-05
-4.79621e-06
-1.25764e-05
-4.6695e-06
-1.19023e-05
-4.53924e-06
-1.13198e-05
-4.44647e-06
-1.07601e-05
-4.48928e-06
-1.0296e-05
-4.44069e-06
-9.94517e-06
-4.25822e-06
-9.63193e-06
-4.23278e-06
-9.193e-06
-4.6889e-06
-8.50572e-06
-5.49694e-06
-7.52953e-06
-6.33735e-06
-6.47809e-06
-6.89924e-06
-5.39973e-06
-7.21314e-06
-4.27347e-06
-6.86698e-06
-3.08476e-06
-6.36005e-06
-1.83419e-06
-6.33565e-06
-7.43263e-07
-5.87183e-06
1.60459e-07
-5.09537e-06
1.25011e-06
-5.33785e-06
2.11925e-06
-5.28427e-06
2.53505e-06
-4.34284e-06
3.11162e-06
-4.5023e-06
3.30682e-06
-4.24518e-06
2.71533e-06
-2.95479e-06
2.0566e-06
-3.4128e-06
1.56747e-06
-4.65662e-06
1.2848e-06
-4.60698e-06
1.55259e-06
-5.035e-06
1.69327e-06
-6.20842e-06
7.34851e-07
-6.13128e-06
-1.52313e-06
-4.22502e-06
-4.41061e-06
-1.70407e-06
-7.03624e-06
4.82296e-07
-9.0453e-06
1.84026e-06
-1.03e-05
2.47857e-06
-1.08109e-05
2.60192e-06
-1.08314e-05
2.4394e-06
-1.07209e-05