/*--------------------------------*- C++ -*----------------------------------*\
| =========                 |                                                 |
| \\      /  F ield         | OpenFOAM: The Open Source CFD Toolbox           |
|  \\    /   O peration     | Version:  dev                                   |
|   \\  /    A nd           | Web:      http://www.openfoam.org               |
|    \\/     M anipulation  |                                                 |
\*---------------------------------------------------------------------------*/
FoamFile
{
    version     2.0;
    format      ascii;
    class       volScalarField;
    object      pMean;
    location    "9.154";
}
// * * * * * * * * * * * * * * * * * * * * * * * * * * * * * * * * * * * * * //

dimensions      [1 -1 -2 0 0 0 0];

internalField   nonuniform List<scalar> 
12225
(
98310.8
98291
98277.2
98270.2
98256
98246.5
98228.1
98218.5
98197
98188.2
98163.6
98156.7
98125.7
98119.4
98078.6
98038.9
97949.8
97583.8
98306.2
98289.9
98276.7
98269.7
98255.3
98246
98227.4
98217.9
98196.3
98187.8
98162.8
98156.2
98125.3
98117.5
98076.9
98043
97950.7
97789.6
98302.5
98288.3
98275.7
98268.3
98253.9
98244.5
98225.9
98216.6
98194.9
98186.4
98162
98154.1
98125.9
98114.1
98079.2
98043.9
97976.5
97887.7
98297.4
98285.4
98273.5
98265.9
98251.5
98241.8
98223.8
98213.9
98193.1
98183.7
98160.6
98151
98124.8
98111.9
98080.1
98052.3
98003.8
97935
98290.8
98281
98270
98261.8
98247.9
98237.7
98220.8
98209.8
98190.7
98179.4
98159.1
98146.5
98125
98108.7
98082
98057.8
98018
97985.3
98282.5
98274.8
98264.1
98255.8
98242.3
98231.7
98215.6
98204
98186.3
98174.1
98155.9
98142.3
98123.9
98107
98085.6
98060.3
98038.2
98017.7
98272.3
98265.9
98255.6
98247.1
98234.5
98223.3
98208.6
98196
98180.2
98166.7
98151.3
98136.3
98121.7
98104.1
98089.8
98068.9
98058.5
98043.6
98261.5
98255.9
98246.2
98237.5
98225.8
98214.3
98200.7
98187.5
98173.5
98159.2
98146
98130.4
98118.9
98101.6
98092.8
98075
98073.3
98058.3
98250.7
98245.3
98236.4
98227.5
98216.7
98204.9
98192.4
98178.9
98166.3
98151.7
98140.2
98124.7
98115
98099
98092.7
98078.5
98078.3
98066.3
98237.1
98231.6
98223.9
98214.9
98205
98193.2
98181.7
98168.2
98156.9
98142.3
98132.4
98117.5
98109.3
98094.9
98089.9
98078.1
98077.3
98069.1
98220.2
98214.7
98208.2
98199.4
98190.2
98178.8
98168
98155
98144.5
98130.9
98121.5
98108.4
98100.4
98088.9
98083.2
98074.7
98072
98066.8
98199.6
98193.9
98188.7
98180.2
98171.9
98160.8
98150.9
98138.6
98129
98116.5
98107.8
98096.3
98088.8
98079.5
98073.8
98067.4
98063.8
98060.1
98174.8
98169.6
98165
98157.5
98149.6
98139.6
98130.2
98119.3
98110
98099.4
98090.9
98081.6
98074.4
98067.2
98061.7
98056.9
98053.3
98050.5
98146.7
98141.8
98137.9
98131.3
98124
98115.1
98106.5
98097
98088.4
98079.5
98071.7
98064.2
98057.8
98052.1
98047.4
98043.6
98040.6
98038.5
98116.5
98112.8
98109
98103.6
98097.1
98089.5
98081.7
98073.6
98065.9
98058.5
98051.8
98045.7
98040.4
98035.8
98032.1
98029.2
98027
98025.5
98088.8
98086
98082.7
98078.2
98072.6
98066
98059.2
98052.4
98045.8
98039.6
98034
98029
98024.7
98021.2
98018.3
98016.1
98014.6
98013.6
98070.2
98068.3
98065.5
98061.6
98056.6
98051
98045
98039.1
98033.4
98028.1
98023.4
98019.2
98015.6
98012.7
98010.4
98008.7
98007.6
98007
98070.5
98068.8
98066.3
98062.5
98057.8
98052.5
98046.9
98041.3
98036
98031
98026.5
98022.6
98019.2
98016.4
98014.2
98012.5
98011.3
98010.5
98090.2
98088.4
98085.5
98081.5
98076.6
98071.1
98065.3
98059.5
98053.9
98048.7
98043.9
98039.6
98035.8
98032.7
98030
98027.8
98026.2
98024.9
98121
98118.8
98115.4
98110.9
98105.5
98099.4
98093.1
98086.7
98080.6
98074.7
98069.3
98064.4
98060
98056.1
98052.8
98050
98047.6
98045.6
98155.8
98153.2
98149.1
98143.9
98137.9
98131.2
98124.2
98117.2
98110.4
98103.9
98097.8
98092.1
98086.9
98082.3
98078.2
98074.6
98071.5
98068.8
98189.6
98186.6
98181.8
98175.9
98169.2
98162
98154.4
98146.8
98139.3
98132.1
98125.3
98119
98113.1
98107.7
98102.9
98098.6
98094.7
98091.3
98219.8
98216.2
98210.7
98204.1
98196.9
98189.2
98181.1
98173
98165
98157.2
98149.8
98142.8
98136.4
98130.4
98124.9
98120
98115.5
98111.5
98245.1
98240.8
98234.5
98227.4
98219.7
98211.6
98203.2
98194.7
98186.2
98178
98170.1
98162.7
98155.7
98149.2
98143.2
98137.8
98132.8
98128.2
98265.4
98260.2
98253
98245.4
98237.4
98229
98220.4
98211.6
98202.8
98194.3
98186
98178.2
98170.8
98163.9
98157.6
98151.7
98146.3
98141.4
98281.1
98274.7
98266.6
98258.5
98250.3
98241.8
98233
98224.1
98215.1
98206.3
98197.8
98189.7
98182
98174.9
98168.2
98162.1
98156.4
98151.2
98292.8
98285
98275.9
98267.4
98259.2
98250.6
98241.8
98232.7
98223.6
98214.6
98206
98197.7
98189.8
98182.5
98175.6
98169.3
98163.4
98158
98301.5
98291.7
98281.6
98273
98264.8
98256.3
98247.4
98238.3
98229.1
98220
98211.3
98202.9
98194.9
98187.4
98180.5
98174
98168
98162.5
98307.6
98295.5
98284.4
98275.8
98267.7
98259.4
98250.6
98241.5
98232.3
98223.2
98214.3
98205.8
98197.8
98190.2
98183.2
98176.7
98170.6
98165
98313.6
98298.1
98286
98277.1
98269
98260.6
98251.9
98242.8
98233.6
98224.4
98215.6
98207.1
98199
98191.4
98184.3
98177.8
98171.7
98166.1
98310.5
98310.2
98309.4
98308.2
98306.8
98304.9
98302.7
98300.1
98297
98293.6
98289.7
98285.5
98280.9
98275.9
98270.7
98265.3
98259.6
98253.7
98247.6
98241.3
98234.9
98228.3
98221.6
98214.8
98207.9
98200.9
98193.9
98186.9
98179.8
98172.7
98165.6
98158.5
98151.5
98144.5
98137.7
98130.9
98124.3
98117.8
98111.5
98105.4
98099.4
98093.8
98088.3
98083.2
98078.4
98073.9
98069.8
98066.1
98062.8
98059.9
98057.5
98055.6
98054.3
98053.4
98053.1
98053.5
98054.4
98056.1
98058.3
98061.3
98065
98069.3
98074.4
98080.3
98086.8
98094
98102
98110.7
98120
98129.9
98140.5
98151.7
98163.5
98175.8
98188.5
98201.8
98215.4
98229.4
98243.7
98258.3
98273.1
98288.1
98303.2
98318.5
98333.7
98349
98364.2
98379.3
98394.2
98408.9
98423.3
98437.5
98451.3
98464.6
98477.5
98490
98501.9
98513.2
98523.9
98534.1
98543.6
98552.5
98560.7
98568.3
98575.2
98581.6
98587.3
98592.4
98597.1
98601.2
98604.8
98608
98610.9
98613.4
98615.6
98617.5
98619.1
98620.6
98621.8
98622.9
98624
98625.1
98626.2
98627.5
98629.1
98631.2
98633.8
98637.2
98641.7
98647.3
98654.4
98663.1
98673.8
98686.7
98702
98720.1
98740.9
98764.7
98791.5
98821.4
98854.4
98890.3
98929.1
98970.7
99015
99061.6
99110.6
99161.3
99213.9
99268.1
99323.6
99380
99437
99494.4
99551.6
99608.2
99663.6
99717.4
99768.4
99816.2
99859.7
99898.1
99930.1
99955.2
99971.9
99979.4
99976.8
99963.8
99939.7
99905
99859.6
99804.8
99740.9
99670.2
99593.1
99512.6
99428.1
99343.3
99256.5
99173.3
98303.6
98303.2
98302.4
98301.3
98299.8
98297.9
98295.7
98293.1
98290.1
98286.7
98282.9
98278.7
98274.2
98269.4
98264.4
98259.1
98253.5
98247.8
98241.9
98235.8
98229.6
98223.2
98216.7
98210
98203.3
98196.5
98189.7
98182.7
98175.8
98168.9
98161.9
98155
98148.2
98141.4
98134.6
98128
98121.5
98115.2
98109
98103
98097.2
98091.6
98086.3
98081.3
98076.5
98072.1
98068.1
98064.4
98061.2
98058.3
98055.9
98054
98052.6
98051.8
98051.5
98051.8
98052.7
98054.2
98056.4
98059.3
98062.9
98067.2
98072.1
98077.8
98084.2
98091.3
98099.1
98107.6
98116.8
98126.6
98137
98148
98159.5
98171.6
98184.1
98197.1
98210.5
98224.3
98238.4
98252.7
98267.3
98282.1
98296.9
98311.9
98326.9
98341.9
98356.8
98371.6
98386.2
98400.7
98414.8
98428.6
98442.1
98455.2
98467.8
98480
98491.6
98502.7
98513.2
98523.1
98532.3
98541
98549
98556.4
98563.2
98569.3
98574.9
98579.9
98584.4
98588.4
98592
98595.1
98597.9
98600.3
98602.5
98604.3
98605.9
98607.3
98608.4
98609.5
98610.5
98611.4
98612.5
98613.7
98615.1
98617
98619.4
98622.5
98626.6
98631.9
98638.6
98646.9
98657.1
98669.4
98684.2
98701.5
98721.7
98744.7
98770.6
98799.6
98831.6
98866.6
98904.4
98944.8
98988
99033.5
99081.3
99130.8
99182.3
99235.3
99289.6
99344.9
99400.8
99457.1
99513.3
99568.9
99623.4
99676.4
99726.7
99773.9
99817
99855.1
99887
99912.2
99929.3
99937.4
99935.5
99923.6
99900.9
99867.7
99823.9
99770.8
99708.6
99639.7
99564.5
99485.7
99402.7
99319.5
99233.7
99148.7
98290.9
98290.6
98289.8
98288.6
98287
98285
98282.7
98280
98277
98273.6
98269.9
98265.9
98261.6
98257
98252.1
98247.1
98241.9
98236.5
98230.9
98225.2
98219.3
98213.3
98207.2
98200.9
98194.6
98188.1
98181.6
98175
98168.4
98161.7
98155
98148.4
98141.8
98135.3
98128.8
98122.4
98116.2
98110.1
98104.1
98098.3
98092.7
98087.3
98082.2
98077.3
98072.7
98068.4
98064.5
98060.9
98057.7
98054.9
98052.5
98050.6
98049.1
98048.2
98047.8
98048
98048.8
98050.3
98052.3
98055
98058.4
98062.5
98067.3
98072.7
98078.8
98085.7
98093.2
98101.4
98110.2
98119.7
98129.7
98140.4
98151.5
98163.2
98175.4
98187.9
98200.9
98214.2
98227.9
98241.8
98255.9
98270.2
98284.6
98299.1
98313.6
98328
98342.4
98356.7
98370.7
98384.6
98398.2
98411.5
98424.4
98436.9
98449
98460.6
98471.7
98482.2
98492.2
98501.6
98510.4
98518.7
98526.3
98533.3
98539.7
98545.6
98550.9
98555.6
98559.9
98563.7
98567.1
98570
98572.6
98574.9
98576.9
98578.6
98580.1
98581.3
98582.4
98583.3
98584.1
98584.8
98585.6
98586.5
98587.6
98589
98590.9
98593.5
98597
98601.6
98607.4
98614.8
98624
98635.2
98648.7
98664.7
98683.4
98704.8
98729.1
98756.2
98786.3
98819.2
98854.9
98893.2
98934.2
98977.4
99022.8
99070
99119.1
99169.8
99221.8
99274.7
99328.4
99382.5
99436.6
99490.2
99542.8
99594
99642.7
99688.6
99730.5
99767.8
99799.2
99824.3
99841.8
99850.6
99850.1
99840
99819.6
99789
99748.3
99698.7
99640
99574.8
99503.2
99427.9
99348.4
99268.4
99185.4
99101.5
98273.4
98273.1
98272.4
98271.2
98269.6
98267.6
98265.2
98262.6
98259.6
98256.3
98252.6
98248.8
98244.6
98240.3
98235.7
98231
98226.1
98221.1
98215.9
98210.6
98205.2
98199.7
98194
98188.2
98182.4
98176.4
98170.3
98164.2
98158.1
98151.9
98145.7
98139.5
98133.3
98127.2
98121.1
98115.1
98109.2
98103.4
98097.7
98092.2
98086.8
98081.7
98076.7
98072
98067.6
98063.5
98059.6
98056.2
98053.1
98050.3
98048
98046
98044.6
98043.6
98043.1
98043.2
98043.9
98045.1
98047
98049.5
98052.6
98056.4
98060.8
98065.9
98071.6
98078.1
98085.2
98092.9
98101.3
98110.3
98119.9
98130
98140.6
98151.8
98163.4
98175.4
98187.7
98200.5
98213.4
98226.7
98240.1
98253.7
98267.5
98281.2
98295
98308.7
98322.4
98335.9
98349.3
98362.4
98375.2
98387.8
98399.9
98411.7
98423
98433.8
98444.1
98453.9
98463.2
98472
98480.2
98487.8
98494.8
98501.3
98507.3
98512.7
98517.5
98521.9
98525.8
98529.3
98532.4
98535.1
98537.6
98539.7
98541.5
98543
98544.2
98545.3
98546.1
98546.8
98547.3
98547.7
98548.1
98548.5
98549.1
98550
98551.2
98553
98555.6
98559.1
98563.8
98569.9
98577.7
98587.3
98599.1
98613.2
98629.8
98649
98670.9
98695.6
98723
98753.2
98785.9
98821.3
98859.2
98899.3
98941.5
98985.5
99031.4
99078.9
99127.7
99177.5
99228.2
99279.4
99330.5
99381.4
99431.4
99480.1
99526.8
99570.7
99611
99647.1
99677.6
99702.4
99720
99729.6
99730.6
99722.5
99704.7
99677.6
99640.7
99595.3
99541.4
99481
99414.2
99343.7
99268.9
99193.4
99114.6
99034.5
98252.3
98252
98251.3
98250.1
98248.6
98246.7
98244.4
98241.8
98238.9
98235.7
98232.2
98228.5
98224.5
98220.4
98216.2
98211.8
98207.2
98202.6
98197.9
98193
98188.1
98183.1
98177.9
98172.7
98167.3
98161.9
98156.4
98150.8
98145.2
98139.6
98134
98128.4
98122.7
98117.1
98111.5
98106
98100.6
98095.2
98090
98084.9
98079.9
98075
98070.4
98065.9
98061.7
98057.8
98054.1
98050.8
98047.8
98045.1
98042.8
98040.8
98039.3
98038.3
98037.7
98037.6
98038.1
98039.1
98040.7
98042.9
98045.7
98049.1
98053.1
98057.8
98063.1
98069
98075.6
98082.8
98090.6
98099
98107.9
98117.4
98127.4
98137.8
98148.7
98160
98171.6
98183.5
98195.7
98208.1
98220.7
98233.4
98246.3
98259.1
98272
98284.8
98297.6
98310.2
98322.6
98334.8
98346.7
98358.3
98369.5
98380.3
98390.7
98400.6
98410.1
98419
98427.4
98435.4
98442.7
98449.6
98455.9
98461.8
98467.1
98471.9
98476.3
98480.2
98483.7
98486.8
98489.5
98491.9
98494.1
98495.9
98497.4
98498.7
98499.7
98500.5
98501
98501.3
98501.5
98501.5
98501.4
98501.3
98501.2
98501.3
98501.7
98502.5
98504
98506.2
98509.5
98514
98520.1
98527.8
98537.4
98549.2
98563.3
98579.9
98599
98620.6
98644.9
98671.7
98701
98732.7
98767
98803.3
98841.7
98882
98924
98967.7
99012.7
99058.8
99105.8
99153.4
99201.1
99248.6
99295.4
99341.2
99385.1
99426.7
99465
99499.4
99528.8
99552.9
99570.6
99580.8
99583.1
99577.2
99562.5
99539
99506.6
99466.2
99417.6
99363
99301.9
99237.4
99168.4
99098.5
99025.2
98950.6
98228.9
98228.7
98228
98227
98225.5
98223.7
98221.6
98219.2
98216.4
98213.4
98210.1
98206.6
98202.9
98199
98195.1
98191
98186.8
98182.5
98178.2
98173.8
98169.3
98164.7
98160
98155.3
98150.5
98145.6
98140.7
98135.8
98130.8
98125.8
98120.7
98115.7
98110.7
98105.6
98100.7
98095.7
98090.8
98086
98081.2
98076.6
98072
98067.6
98063.3
98059.2
98055.2
98051.5
98048.1
98044.9
98042
98039.4
98037.2
98035.2
98033.7
98032.6
98031.9
98031.6
98031.9
98032.7
98034
98035.8
98038.2
98041.2
98044.8
98048.9
98053.7
98059
98065
98071.5
98078.6
98086.3
98094.5
98103.3
98112.5
98122.1
98132.1
98142.5
98153.2
98164.3
98175.5
98187
98198.6
98210.3
98222.1
98233.9
98245.8
98257.5
98269.2
98280.7
98292.1
98303.2
98314
98324.5
98334.6
98344.4
98353.7
98362.6
98371.1
98379
98386.5
98393.5
98400
98406
98411.5
98416.6
98421.2
98425.4
98429.1
98432.5
98435.5
98438.1
98440.5
98442.5
98444.3
98445.7
98446.9
98447.9
98448.5
98448.9
98449.1
98449.1
98448.7
98448.3
98447.6
98446.8
98446
98445.3
98444.7
98444.3
98444.5
98445.3
98447
98449.8
98453.8
98459.4
98466.6
98475.9
98487.2
98500.8
98516.6
98534.9
98555.6
98578.7
98604.2
98631.9
98662
98694.2
98728.4
98764.6
98802.4
98841.8
98882.7
98924.7
98967.6
99011.2
99055
99098.8
99142.1
99184.5
99225.4
99264.2
99300.1
99332.6
99360.5
99383.6
99401
99411.7
99415.3
99411.6
99399.8
99380.3
99352.4
99317.2
99274.4
99225.9
99171.2
99113.4
99050.9
98987.5
98920.6
98852.5
98204.4
98204.3
98203.7
98202.8
98201.5
98199.9
98198
98195.7
98193.2
98190.4
98187.4
98184.2
98180.8
98177.2
98173.6
98169.8
98165.9
98162
98158.1
98154
98149.9
98145.8
98141.6
98137.3
98133.1
98128.7
98124.4
98120
98115.6
98111.2
98106.7
98102.3
98097.9
98093.4
98089
98084.7
98080.3
98076
98071.8
98067.6
98063.5
98059.5
98055.5
98051.8
98048.2
98044.7
98041.5
98038.5
98035.8
98033.3
98031.1
98029.2
98027.6
98026.4
98025.6
98025.2
98025.3
98025.8
98026.8
98028.3
98030.3
98032.8
98035.8
98039.4
98043.6
98048.3
98053.6
98059.5
98065.8
98072.7
98080.1
98088
98096.3
98105.1
98114.2
98123.6
98133.3
98143.4
98153.6
98164
98174.5
98185.1
98195.8
98206.5
98217.2
98227.8
98238.3
98248.6
98258.7
98268.7
98278.3
98287.6
98296.6
98305.2
98313.4
98321.2
98328.5
98335.4
98341.9
98347.9
98353.5
98358.6
98363.3
98367.5
98371.4
98374.9
98377.9
98380.7
98383.1
98385.3
98387.1
98388.7
98390
98391
98391.8
98392.4
98392.6
98392.6
98392.3
98391.8
98391
98390
98388.7
98387.1
98385.5
98383.8
98382.1
98380.6
98379.3
98378.6
98378.5
98379.5
98381.3
98384.6
98389.3
98395.8
98404.2
98414.6
98427.1
98441.8
98458.7
98477.9
98499.4
98523
98548.8
98576.7
98606.5
98638.3
98671.7
98706.7
98743.2
98780.9
98819.5
98858.8
98898.5
98938.5
98978.1
99016.8
99054.2
99090
99123.2
99153.3
99179.4
99201.3
99218
99228.9
99233.5
99231.8
99222.8
99207.1
99183.6
99153.7
99116.7
99074.5
99026.5
98975.7
98920.1
98863.9
98803.9
98743.1
98180.2
98180.2
98179.8
98179
98177.9
98176.5
98174.8
98172.8
98170.5
98168
98165.3
98162.4
98159.3
98156.1
98152.8
98149.3
98145.8
98142.3
98138.6
98135
98131.3
98127.5
98123.8
98120
98116.2
98112.4
98108.5
98104.7
98100.8
98096.9
98093
98089.1
98085.2
98081.3
98077.5
98073.6
98069.8
98066
98062.2
98058.5
98054.8
98051.2
98047.6
98044.2
98040.9
98037.7
98034.8
98031.9
98029.3
98026.9
98024.8
98022.9
98021.3
98020
98019.1
98018.6
98018.4
98018.6
98019.3
98020.4
98022
98024.1
98026.6
98029.7
98033.2
98037.3
98041.9
98047
98052.6
98058.7
98065.3
98072.2
98079.7
98087.5
98095.6
98104
98112.8
98121.7
98130.8
98140.1
98149.5
98159
98168.5
98178
98187.5
98196.8
98206.1
98215.2
98224.1
98232.7
98241.1
98249.2
98257
98264.4
98271.4
98278
98284.3
98290.1
98295.5
98300.5
98305.1
98309.3
98313.1
98316.5
98319.6
98322.3
98324.7
98326.7
98328.6
98330.1
98331.5
98332.5
98333.3
98333.9
98334.2
98334.3
98334
98333.6
98332.8
98331.8
98330.3
98328.7
98326.6
98324.3
98321.8
98319
98316.2
98313.4
98310.7
98308.4
98306.5
98305.5
98305.2
98306
98308.2
98311.9
98317.3
98324.5
98333.6
98344.7
98357.8
98373.1
98390.6
98410.1
98431.5
98455
98480.4
98507.9
98536.9
98567.5
98599.6
98632.9
98667.1
98702.2
98737.8
98773.7
98809.4
98844.3
98878.1
98910.5
98940.8
98968.3
98992.1
99012.4
99028.1
99038.9
99044.3
99044.2
99037.6
99025.2
99005.8
98980.9
98949.4
98913.5
98872.2
98828.4
98779.9
98731.1
98678.4
98625.2
98157.4
98157.4
98157.1
98156.5
98155.6
98154.4
98152.9
98151.2
98149.2
98147
98144.6
98142
98139.3
98136.4
98133.4
98130.4
98127.2
98124
98120.8
98117.5
98114.2
98110.8
98107.5
98104.1
98100.8
98097.4
98094
98090.6
98087.2
98083.8
98080.3
98076.9
98073.5
98070.1
98066.7
98063.3
98059.9
98056.6
98053.2
98049.8
98046.5
98043.2
98040
98036.9
98033.8
98030.9
98028.1
98025.5
98023
98020.7
98018.6
98016.7
98015
98013.7
98012.6
98011.9
98011.5
98011.5
98011.8
98012.6
98013.8
98015.4
98017.4
98019.9
98022.9
98026.4
98030.3
98034.7
98039.5
98044.8
98050.5
98056.6
98063.1
98070
98077.1
98084.6
98092.3
98100.2
98108.2
98116.4
98124.6
98132.9
98141.3
98149.5
98157.8
98165.9
98173.9
98181.7
98189.3
98196.7
98203.9
98210.7
98217.2
98223.4
98229.2
98234.7
98239.8
98244.5
98248.8
98252.8
98256.4
98259.6
98262.5
98265.1
98267.4
98269.3
98271
98272.4
98273.5
98274.5
98275.2
98275.7
98276
98276
98275.8
98275.3
98274.6
98273.5
98272.2
98270.5
98268.5
98266.1
98263.3
98260.1
98256.6
98252.7
98248.8
98244.7
98240.6
98236.7
98233.1
98230.1
98227.6
98226.2
98225.8
98226.7
98229.2
98233.2
98238.9
98246.6
98256.1
98267.6
98281.1
98296.6
98313.9
98333.2
98354.3
98377.5
98402.3
98428.6
98456.3
98485.3
98515.2
98546.1
98577.6
98609.5
98641.2
98672.2
98702.4
98731.2
98758.2
98783
98804.3
98822.5
98836.8
98847.1
98852.7
98853.7
98849.1
98839.4
98823.7
98803.2
98776.9
98746.9
98712.2
98675.3
98633.8
98592.3
98546.9
98501.6
98136.8
98136.8
98136.6
98136.1
98135.4
98134.4
98133.2
98131.8
98130.1
98128.3
98126.2
98124
98121.6
98119.1
98116.4
98113.7
98110.9
98108.1
98105.2
98102.3
98099.4
98096.5
98093.5
98090.5
98087.6
98084.6
98081.6
98078.6
98075.6
98072.5
98069.5
98066.5
98063.5
98060.4
98057.4
98054.4
98051.4
98048.3
98045.3
98042.2
98039.2
98036.2
98033.2
98030.3
98027.5
98024.7
98022.1
98019.5
98017.1
98014.8
98012.7
98010.8
98009.1
98007.7
98006.5
98005.6
98005
98004.7
98004.7
98005.2
98006
98007.2
98008.7
98010.7
98013.2
98016
98019.3
98023
98027.1
98031.6
98036.5
98041.8
98047.4
98053.4
98059.6
98066.1
98072.7
98079.6
98086.6
98093.6
98100.8
98108
98115.1
98122.2
98129.2
98136.1
98142.9
98149.5
98155.9
98162
98167.9
98173.5
98178.8
98183.7
98188.4
98192.7
98196.6
98200.2
98203.4
98206.3
98208.9
98211.2
98213.2
98214.9
98216.4
98217.5
98218.4
98219.2
98219.6
98219.9
98220
98219.9
98219.6
98219
98218.2
98217.2
98215.8
98214.1
98212.1
98209.7
98207
98203.8
98200.2
98196.1
98191.6
98186.8
98181.6
98176.3
98170.9
98165.5
98160.2
98155.3
98150.9
98147.2
98144.3
98142.7
98142.3
98143.3
98145.9
98150.2
98156.2
98164.1
98173.9
98185.7
98199.2
98214.5
98231.6
98250.8
98271.5
98293.7
98317.3
98342.1
98368
98394.8
98422.3
98450.2
98477.8
98505.1
98531.4
98556.6
98580.2
98602
98620.7
98636.5
98649
98658.1
98663.3
98664.8
98661.5
98653.9
98641.4
98624.8
98603.1
98578.7
98550
98519.5
98484.8
98450.4
98412.2
98374.7
98118.9
98119.1
98119
98118.6
98118
98117.2
98116.3
98115.1
98113.7
98112.2
98110.4
98108.5
98106.5
98104.4
98102.1
98099.8
98097.4
98094.9
98092.5
98089.9
98087.4
98084.8
98082.2
98079.6
98077
98074.4
98071.8
98069.1
98066.4
98063.7
98061
98058.3
98055.6
98052.9
98050.1
98047.4
98044.6
98041.8
98039
98036.2
98033.3
98030.5
98027.7
98024.9
98022.2
98019.6
98017
98014.5
98012.1
98009.8
98007.7
98005.7
98004
98002.4
98001
97999.9
97999.1
97998.6
97998.4
97998.5
97999
97999.8
98000.9
98002.5
98004.4
98006.7
98009.4
98012.4
98015.9
98019.7
98023.8
98028.3
98033.1
98038.2
98043.6
98049.1
98054.8
98060.7
98066.7
98072.7
98078.8
98084.9
98090.9
98096.9
98102.8
98108.5
98114.1
98119.5
98124.7
98129.6
98134.2
98138.6
98142.7
98146.5
98150
98153.1
98155.9
98158.4
98160.6
98162.5
98164.1
98165.4
98166.5
98167.3
98167.9
98168.2
98168.4
98168.3
98168.1
98167.7
98167.1
98166.3
98165.3
98164.1
98162.6
98160.9
98158.9
98156.5
98153.8
98150.7
98147.1
98143.1
98138.6
98133.7
98128.3
98122.4
98116.2
98109.7
98103
98096.2
98089.3
98082.7
98076.4
98070.7
98065.7
98061.5
98058.5
98056.8
98056.4
98057.7
98060.5
98065.2
98071.5
98079.8
98089.8
98101.6
98115.1
98130.5
98147.5
98166
98185.7
98206.7
98228.7
98251.6
98275.2
98299.2
98322.9
98346.4
98369
98390.5
98410.6
98429
98444.9
98458.1
98468.2
98475.7
98479.7
98481
98478.4
98472.5
98462.3
98449.1
98431.4
98412
98388.7
98364.1
98335.6
98308.1
98276.8
98246.8
98104.3
98104.4
98104.4
98104.1
98103.7
98103.2
98102.4
98101.5
98100.4
98099.2
98097.8
98096.2
98094.6
98092.8
98090.9
98089
98087
98084.9
98082.8
98080.7
98078.5
98076.3
98074.1
98071.8
98069.6
98067.2
98064.9
98062.5
98060.1
98057.7
98055.2
98052.7
98050.2
98047.7
98045.2
98042.6
98040
98037.3
98034.7
98032
98029.2
98026.5
98023.8
98021.1
98018.4
98015.8
98013.2
98010.7
98008.3
98005.9
98003.7
98001.7
97999.8
97998.1
97996.6
97995.3
97994.3
97993.6
97993.1
97992.9
97993.1
97993.5
97994.3
97995.4
97996.9
97998.7
98000.9
98003.4
98006.2
98009.4
98012.9
98016.7
98020.8
98025.1
98029.6
98034.3
98039.2
98044.2
98049.2
98054.3
98059.4
98064.5
98069.5
98074.4
98079.2
98083.8
98088.3
98092.6
98096.6
98100.4
98103.9
98107.1
98110.1
98112.7
98115.1
98117.1
98118.8
98120.2
98121.4
98122.2
98122.8
98123.2
98123.3
98123.2
98122.9
98122.4
98121.8
98120.9
98119.9
98118.7
98117.4
98115.8
98114.1
98112.2
98110
98107.6
98104.8
98101.7
98098.2
98094.3
98090
98085.2
98079.8
98074
98067.7
98060.8
98053.6
98046
98038.1
98030
98021.8
98013.6
98005.6
97998.1
97991.1
97984.8
97979.5
97975.3
97972.3
97970.8
97970.8
97972.5
97975.9
97981.1
97988
97996.6
98006.9
98019.1
98032.7
98047.8
98064
98081.5
98099.9
98119.1
98139.1
98159.3
98179.3
98199.1
98217.8
98235.5
98252
98266.9
98279.7
98290
98297.5
98302.8
98305.2
98305.4
98302.8
98297.9
98289.5
98279
98264.8
98249.4
98230.8
98211.6
98188.9
98167.7
98142.7
98119.9
98092.8
98093.1
98093.1
98092.9
98092.7
98092.3
98091.7
98091.1
98090.2
98089.3
98088.2
98087
98085.7
98084.3
98082.9
98081.3
98079.7
98078.1
98076.4
98074.6
98072.9
98071
98069.2
98067.2
98065.2
98063.2
98061.1
98059
98056.8
98054.6
98052.3
98049.9
98047.6
98045.2
98042.7
98040.2
98037.7
98035.1
98032.5
98029.8
98027.1
98024.4
98021.6
98018.9
98016.2
98013.5
98010.9
98008.3
98005.8
98003.4
98001.1
97998.9
97996.9
97995
97993.4
97992
97990.7
97989.8
97989.1
97988.7
97988.5
97988.7
97989.2
97989.9
97991
97992.4
97994.1
97996.2
97998.5
98001.1
98004
98007.2
98010.6
98014.3
98018.1
98022.1
98026.1
98030.3
98034.5
98038.8
98043
98047.1
98051.2
98055.2
98059
98062.6
98066
98069.2
98072.2
98074.9
98077.3
98079.5
98081.4
98082.9
98084.2
98085.2
98085.9
98086.2
98086.3
98086.2
98085.8
98085.2
98084.4
98083.4
98082.2
98080.9
98079.4
98077.7
98075.8
98073.8
98071.7
98069.4
98066.9
98064.2
98061.2
98058
98054.4
98050.5
98046.2
98041.5
98036.4
98030.7
98024.6
98017.9
98010.7
98003
97994.8
97986.2
97977.2
97968
97958.6
97949.1
97939.6
97930.5
97921.8
97913.6
97906.2
97899.9
97894.7
97890.9
97888.5
97887.6
97888.4
97891
97895.1
97901
97908.5
97917.7
97928.3
97940.4
97953.5
97967.8
97982.8
97998.8
98015.3
98031.9
98048.3
98064.6
98079.4
98093.3
98106
98117.3
98126.8
98134
98138.7
98141.6
98141.8
98140.4
98137.2
98132.4
98125.2
98116.7
98105.3
98093.3
98078.6
98064.2
98046.6
98031.1
98011.9
97995.9
98084.4
98084.7
98084.8
98084.7
98084.6
98084.4
98084.1
98083.6
98083.1
98082.5
98081.7
98080.9
98080
98079
98078
98076.9
98075.7
98074.5
98073.2
98071.8
98070.4
98069
98067.4
98065.8
98064.1
98062.3
98060.4
98058.5
98056.4
98054.3
98052.2
98049.9
98047.6
98045.3
98042.8
98040.3
98037.8
98035.2
98032.5
98029.7
98027
98024.2
98021.3
98018.5
98015.7
98012.9
98010.2
98007.5
98004.8
98002.3
97999.8
97997.5
97995.4
97993.4
97991.5
97989.9
97988.5
97987.4
97986.5
97985.9
97985.5
97985.4
97985.6
97986.1
97986.9
97987.9
97989.3
97990.9
97992.8
97995
97997.4
98000.1
98003
98006
98009.2
98012.5
98016
98019.4
98022.9
98026.4
98029.8
98033.2
98036.4
98039.5
98042.4
98045.1
98047.6
98049.8
98051.8
98053.5
98055
98056.1
98057
98057.5
98057.8
98057.8
98057.4
98056.8
98055.9
98054.8
98053.5
98051.9
98050.2
98048.3
98046.2
98044
98041.6
98039
98036.3
98033.5
98030.5
98027.3
98024
98020.4
98016.6
98012.5
98008.1
98003.4
97998.3
97992.8
97986.8
97980.4
97973.4
97965.9
97958
97949.5
97940.5
97931
97921.1
97910.9
97900.5
97889.9
97879.2
97868.7
97858.5
97848.7
97839.7
97831.5
97824.5
97818.7
97814.2
97811.3
97809.9
97810.2
97812
97815.5
97820.4
97827
97835
97844.2
97854.6
97866.1
97878.2
97891.1
97904.3
97917.6
97930.6
97943.2
97954.4
97964.5
97973.4
97981
97987
97990.9
97992.7
97993
97990.9
97987.5
97983
97977.8
97971.1
97963.8
97954.5
97945.2
97933.8
97923.5
97910.4
97900
97886.1
97876.2
98078.4
98078.7
98078.9
98079
98079
98078.9
98078.8
98078.6
98078.4
98078.1
98077.8
98077.4
98077
98076.5
98075.9
98075.3
98074.6
98073.8
98072.9
98072
98071
98069.8
98068.6
98067.2
98065.8
98064.2
98062.5
98060.7
98058.8
98056.8
98054.6
98052.4
98050.1
98047.7
98045.2
98042.7
98040
98037.3
98034.5
98031.6
98028.7
98025.8
98022.8
98019.9
98016.9
98013.9
98011
98008.1
98005.3
98002.6
98000
97997.6
97995.2
97993.1
97991.1
97989.4
97987.8
97986.5
97985.4
97984.6
97984.1
97983.8
97983.8
97984
97984.5
97985.3
97986.4
97987.7
97989.3
97991.1
97993.1
97995.4
97997.8
98000.4
98003.1
98005.8
98008.7
98011.5
98014.4
98017.2
98020
98022.6
98025.1
98027.4
98029.5
98031.4
98033
98034.4
98035.5
98036.3
98036.8
98037
98037
98036.6
98035.9
98034.9
98033.7
98032.1
98030.3
98028.2
98025.9
98023.4
98020.8
98018
98015
98011.9
98008.6
98005.2
98001.6
97997.9
97994
97990
97985.8
97981.3
97976.6
97971.7
97966.4
97960.9
97954.9
97948.6
97941.9
97934.6
97926.9
97918.6
97910
97900.8
97891
97880.8
97870.2
97859.2
97847.9
97836.4
97824.8
97813.2
97801.7
97790.7
97780.3
97770.8
97762.2
97754.8
97748.6
97743.9
97740.7
97739.1
97738.9
97740.2
97743
97747.4
97753
97759.7
97767.7
97776.7
97786.2
97796.1
97806.2
97816.2
97826
97835
97842.7
97849.3
97854.4
97858.3
97860.6
97861.1
97859.8
97857.5
97852.8
97847.4
97841.3
97835.1
97828.2
97821.7
97813.7
97806.5
97797.8
97790.9
97781.5
97775.7
97766.3
97762.1
98074.1
98074.3
98074.6
98074.8
98074.9
98075.1
98075.3
98075.5
98075.7
98075.9
98076.1
98076.2
98076.3
98076.4
98076.3
98076.2
98076
98075.7
98075.2
98074.7
98074
98073.2
98072.2
98071.1
98069.9
98068.5
98066.9
98065.2
98063.3
98061.3
98059.2
98057
98054.6
98052.2
98049.6
98046.9
98044.1
98041.2
98038.3
98035.2
98032.2
98029
98025.9
98022.7
98019.5
98016.4
98013.3
98010.2
98007.2
98004.4
98001.6
97999
97996.5
97994.2
97992.1
97990.2
97988.5
97987.1
97985.9
97984.9
97984.2
97983.7
97983.6
97983.6
97984
97984.6
97985.4
97986.5
97987.8
97989.4
97991.1
97993
97995.1
97997.2
97999.5
98001.8
98004.2
98006.6
98008.9
98011.1
98013.3
98015.3
98017.1
98018.7
98020.1
98021.3
98022.2
98022.8
98023.1
98023.1
98022.8
98022.1
98021.2
98020
98018.4
98016.6
98014.4
98012
98009.2
98006.2
98003.1
97999.7
97996.1
97992.4
97988.6
97984.6
97980.4
97976.1
97971.7
97967.1
97962.3
97957.4
97952.2
97946.9
97941.3
97935.5
97929.4
97923
97916.3
97909.2
97901.6
97893.6
97885.2
97876.3
97867
97857.2
97846.9
97836.1
97824.9
97813.3
97801.3
97789.1
97776.7
97764.2
97751.9
97739.9
97728.5
97717.9
97708
97699.3
97691.8
97685.6
97680.8
97677.5
97675.6
97675.2
97676.2
97678.6
97682.1
97686.8
97692.5
97699.3
97706.4
97713.5
97720.6
97727.5
97734.1
97739.8
97744.2
97747.3
97748.6
97748.8
97747.3
97744.4
97739.9
97734.7
97727.7
97720.1
97712.1
97704.7
97697.3
97690.9
97683.7
97678
97671.3
97667.1
97660.8
97659.1
97653.7
97654.4
98070.3
98070.5
98070.7
98070.9
98071.1
98071.7
98072.3
98073.1
98073.9
98074.8
98075.7
98076.5
98077.3
98078
98078.6
98079
98079.3
98079.4
98079.4
98079.2
98078.9
98078.3
98077.6
98076.7
98075.6
98074.3
98072.9
98071.2
98069.4
98067.4
98065.2
98063
98060.5
98057.9
98055.2
98052.4
98049.5
98046.4
98043.3
98040.1
98036.8
98033.5
98030.1
98026.8
98023.4
98020
98016.7
98013.5
98010.4
98007.3
98004.4
98001.6
97999
97996.6
97994.4
97992.3
97990.6
97989
97987.7
97986.6
97985.8
97985.2
97984.9
97984.9
97985.1
97985.5
97986.2
97987.1
97988.3
97989.6
97991.1
97992.8
97994.5
97996.4
97998.3
98000.3
98002.3
98004.2
98006
98007.8
98009.4
98010.9
98012.1
98013.1
98013.9
98014.4
98014.6
98014.6
98014.1
98013.4
98012.3
98010.9
98009.2
98007.2
98004.8
98002.1
97999.2
97995.9
97992.4
97988.5
97984.5
97980.3
97975.9
97971.3
97966.6
97961.8
97956.8
97951.6
97946.3
97940.8
97935.2
97929.4
97923.4
97917.1
97910.7
97904
97897.1
97889.9
97882.4
97874.6
97866.3
97857.6
97848.6
97839.2
97829.3
97818.9
97808.1
97796.9
97785.2
97773.2
97760.6
97747.8
97734.8
97721.8
97708.8
97696.2
97684.1
97672.5
97661.7
97651.9
97643.2
97635.8
97629.7
97625
97621.7
97619.8
97619.3
97620
97621.6
97624.4
97628.2
97632.8
97637.7
97642.3
97646.6
97650.5
97654.1
97656.6
97657.8
97657.5
97655.2
97651.7
97646.6
97640.2
97632.6
97624.3
97614.9
97605.1
97595.3
97586.5
97578.2
97571.5
97564.7
97560.1
97554.8
97552.9
97549.1
97550.8
97549.1
97554
98065.4
98065.5
98065.5
98065.8
98066.5
98067.8
98069.2
98071
98072.8
98074.6
98076.4
98078
98079.6
98081
98082.2
98083.1
98083.9
98084.5
98084.8
98084.9
98084.8
98084.5
98084
98083.3
98082.3
98081.1
98079.7
98078.1
98076.3
98074.3
98072.1
98069.7
98067.2
98064.5
98061.7
98058.7
98055.6
98052.4
98049.1
98045.7
98042.2
98038.7
98035.2
98031.6
98028.1
98024.6
98021.1
98017.7
98014.4
98011.2
98008.2
98005.3
98002.6
98000
97997.7
97995.6
97993.7
97992.1
97990.7
97989.6
97988.7
97988.1
97987.7
97987.5
97987.6
97988
97988.6
97989.4
97990.4
97991.5
97992.9
97994.3
97995.9
97997.5
97999.1
98000.7
98002.3
98003.9
98005.3
98006.6
98007.8
98008.8
98009.5
98010
98010.2
98010.1
98009.7
98009
98008
98006.6
98004.8
98002.7
98000.3
97997.5
97994.4
97990.9
97987.2
97983.2
97978.9
97974.3
97969.5
97964.5
97959.3
97953.9
97948.4
97942.8
97937
97931
97924.8
97918.5
97912.1
97905.4
97898.6
97891.5
97884.3
97876.9
97869.2
97861.2
97853
97844.5
97835.6
97826.4
97816.8
97806.9
97796.5
97785.8
97774.6
97763
97751
97738.6
97725.6
97712.4
97699
97685.6