/*--------------------------------*- C++ -*----------------------------------*\
| =========                 |                                                 |
| \\      /  F ield         | OpenFOAM: The Open Source CFD Toolbox           |
|  \\    /   O peration     | Version:  dev                                   |
|   \\  /    A nd           | Web:      http://www.openfoam.org               |
|    \\/     M anipulation  |                                                 |
\*---------------------------------------------------------------------------*/
FoamFile
{
    version     2.0;
    format      ascii;
    class       volScalarField;
    object      pPrime2Mean;
    location    "9.154";
}
// * * * * * * * * * * * * * * * * * * * * * * * * * * * * * * * * * * * * * //

dimensions      [2 -2 -4 0 0 0 0];

internalField   nonuniform List<scalar> 
12225
(
5.03563e+07
4.98911e+07
4.89301e+07
4.75786e+07
4.59244e+07
4.40571e+07
4.20357e+07
3.99324e+07
3.7788e+07
3.56506e+07
3.35579e+07
3.15128e+07
2.95893e+07
2.77183e+07
2.5971e+07
2.44106e+07
2.28491e+07
2.12695e+07
5.02486e+07
4.97833e+07
4.88231e+07
4.74733e+07
4.58206e+07
4.39556e+07
4.19371e+07
3.98364e+07
3.76959e+07
3.55612e+07
3.34731e+07
3.14317e+07
2.95129e+07
2.76487e+07
2.59188e+07
2.43586e+07
2.285e+07
2.15162e+07
4.99986e+07
4.9534e+07
4.85742e+07
4.72274e+07
4.55792e+07
4.3719e+07
4.17073e+07
3.96128e+07
3.74805e+07
3.53538e+07
3.32742e+07
3.12445e+07
2.93317e+07
2.74848e+07
2.57747e+07
2.42193e+07
2.27846e+07
2.1572e+07
4.95632e+07
4.91015e+07
4.8144e+07
4.68024e+07
4.51622e+07
4.33105e+07
4.13104e+07
3.92265e+07
3.71089e+07
3.49957e+07
3.2932e+07
3.09201e+07
2.90245e+07
2.71968e+07
2.55164e+07
2.39857e+07
2.25995e+07
2.14992e+07
4.88985e+07
4.8437e+07
4.74843e+07
4.61522e+07
4.45238e+07
4.26866e+07
4.07023e+07
3.86377e+07
3.65391e+07
3.44501e+07
3.24066e+07
3.04254e+07
2.85524e+07
2.67608e+07
2.51327e+07
2.36242e+07
2.23433e+07
2.12794e+07
4.79498e+07
4.74858e+07
4.65426e+07
4.52239e+07
4.36134e+07
4.1796e+07
3.98364e+07
3.77974e+07
3.5729e+07
3.36696e+07
3.16603e+07
2.97133e+07
2.78785e+07
2.61335e+07
2.45548e+07
2.31158e+07
2.18892e+07
2.08332e+07
4.66556e+07
4.61903e+07
4.52626e+07
4.39602e+07
4.23758e+07
4.05841e+07
3.86601e+07
3.66545e+07
3.46289e+07
3.26085e+07
3.06476e+07
2.87462e+07
2.69627e+07
2.52755e+07
2.37537e+07
2.23748e+07
2.12066e+07
2.0179e+07
4.52143e+07
4.47506e+07
4.38393e+07
4.25547e+07
4.09991e+07
3.9237e+07
3.73514e+07
3.53848e+07
3.34046e+07
3.14303e+07
2.95192e+07
2.76715e+07
2.59396e+07
2.43154e+07
2.28422e+07
2.15264e+07
2.03908e+07
1.94313e+07
4.37004e+07
4.32401e+07
4.23451e+07
4.10803e+07
3.95542e+07
3.78245e+07
3.59784e+07
3.40542e+07
3.21201e+07
3.01954e+07
2.83352e+07
2.65431e+07
2.4865e+07
2.33015e+07
2.18803e+07
2.06206e+07
1.95269e+07
1.86285e+07
4.17613e+07
4.13078e+07
4.04322e+07
3.9195e+07
3.77053e+07
3.60196e+07
3.42223e+07
3.23542e+07
3.04774e+07
2.86175e+07
2.68202e+07
2.50997e+07
2.34875e+07
2.19988e+07
2.06438e+07
1.94517e+07
1.84148e+07
1.75624e+07
3.9314e+07
3.88705e+07
3.80184e+07
3.6818e+07
3.53742e+07
3.37456e+07
3.20104e+07
3.02133e+07
2.84096e+07
2.663e+07
2.4913e+07
2.32784e+07
2.175e+07
2.03473e+07
1.90754e+07
1.796e+07
1.699e+07
1.61837e+07
3.62923e+07
3.58637e+07
3.50398e+07
3.38883e+07
3.25017e+07
3.09464e+07
2.92885e+07
2.75805e+07
2.58673e+07
2.41866e+07
2.25677e+07
2.10362e+07
1.96086e+07
1.83052e+07
1.71298e+07
1.60988e+07
1.52044e+07
1.44511e+07
3.26813e+07
3.22713e+07
3.14838e+07
3.03934e+07
2.90791e+07
2.76128e+07
2.60507e+07
2.44492e+07
2.28462e+07
2.1282e+07
1.97798e+07
1.83673e+07
1.70561e+07
1.58649e+07
1.4796e+07
1.38585e+07
1.30473e+07
1.23592e+07
2.85719e+07
2.81847e+07
2.7444e+07
2.64259e+07
2.52e+07
2.38371e+07
2.2389e+07
2.09096e+07
1.94347e+07
1.80014e+07
1.66321e+07
1.53502e+07
1.41675e+07
1.30969e+07
1.21416e+07
1.13043e+07
1.05818e+07
9.96775e+06
2.42496e+07
2.38888e+07
2.32041e+07
2.22669e+07
2.11411e+07
1.98925e+07
1.85699e+07
1.72229e+07
1.58856e+07
1.45911e+07
1.33607e+07
1.22139e+07
1.11616e+07
1.02127e+07
9.36973e+06
8.63263e+06
7.99822e+06
7.45983e+06
2.03045e+07
1.99724e+07
1.93474e+07
1.84918e+07
1.74675e+07
1.6332e+07
1.51332e+07
1.39143e+07
1.27088e+07
1.1545e+07
1.04435e+07
9.41996e+06
8.48434e+06
7.64272e+06
6.89701e+06
6.2459e+06
5.68624e+06
5.2118e+06
1.774e+07
1.74335e+07
1.68586e+07
1.6071e+07
1.5129e+07
1.40846e+07
1.29832e+07
1.18637e+07
1.0758e+07
9.69109e+06
8.68199e+06
7.74426e+06
6.88663e+06
6.11388e+06
5.42737e+06
4.82571e+06
4.30593e+06
3.86267e+06
1.78478e+07
1.75532e+07
1.70006e+07
1.62426e+07
1.53354e+07
1.43281e+07
1.32642e+07
1.21808e+07
1.1108e+07
1.00694e+07
9.08283e+06
8.16096e+06
7.31191e+06
6.54016e+06
5.84713e+06
5.23197e+06
4.69217e+06
4.2234e+06
2.07233e+07
2.04242e+07
1.98619e+07
1.9089e+07
1.81624e+07
1.71313e+07
1.60389e+07
1.49222e+07
1.38109e+07
1.27285e+07
1.16926e+07
1.07158e+07
9.80647e+06
8.96934e+06
8.20633e+06
7.51736e+06
6.9006e+06
6.35266e+06
2.52083e+07
2.48964e+07
2.43061e+07
2.34923e+07
2.25143e+07
2.14229e+07
2.02629e+07
1.90718e+07
1.78802e+07
1.6712e+07
1.55856e+07
1.45139e+07
1.35058e+07
1.25667e+07
1.16993e+07
1.09042e+07
1.01804e+07
9.52522e+06
3.02656e+07
2.99396e+07
2.93161e+07
2.84528e+07
2.74125e+07
2.62481e+07
2.50061e+07
2.37257e+07
2.24385e+07
2.11697e+07
1.99381e+07
1.87577e+07
1.7638e+07
1.65852e+07
1.56027e+07
1.46918e+07
1.38523e+07
1.30823e+07
3.51773e+07
3.48396e+07
3.41852e+07
3.32749e+07
3.21744e+07
3.09389e+07
2.96168e+07
2.82488e+07
2.68682e+07
2.55009e+07
2.41669e+07
2.28809e+07
2.16534e+07
2.04912e+07
1.93984e+07
1.83771e+07
1.74275e+07
1.65487e+07
3.95246e+07
3.91786e+07
3.84988e+07
3.75488e+07
3.63968e+07
3.50996e+07
3.37075e+07
3.22626e+07
3.07996e+07
2.93455e+07
2.79212e+07
2.65422e+07
2.52197e+07
2.39612e+07
2.27716e+07
2.16535e+07
2.06077e+07
1.96337e+07
4.31187e+07
4.27676e+07
4.20685e+07
4.10875e+07
3.98945e+07
3.85475e+07
3.70984e+07
3.55907e+07
3.40601e+07
3.25346e+07
3.10359e+07
2.95803e+07
2.81796e+07
2.6842e+07
2.55728e+07
2.43751e+07
2.32502e+07
2.21979e+07
4.59258e+07
4.55717e+07
4.48588e+07
4.3855e+07
4.26309e+07
4.12459e+07
3.97529e+07
3.81967e+07
3.66136e+07
3.50326e+07
3.34761e+07
3.19609e+07
3.04994e+07
2.91002e+07
2.7769e+07
2.65094e+07
2.53229e+07
2.42099e+07
4.8003e+07
4.76473e+07
4.69248e+07
4.59048e+07
4.46584e+07
4.32457e+07
4.17206e+07
4.01287e+07
3.85071e+07
3.68853e+07
3.52861e+07
3.37271e+07
3.22207e+07
3.07762e+07
2.93994e+07
2.80942e+07
2.68625e+07
2.57045e+07
4.94512e+07
4.90946e+07
4.83654e+07
4.73346e+07
4.60729e+07
4.46413e+07
4.30943e+07
4.14779e+07
3.98296e+07
3.81796e+07
3.65509e+07
3.49614e+07
3.34241e+07
3.19481e+07
3.05397e+07
2.92029e+07
2.79398e+07
2.67507e+07
5.03857e+07
5.00281e+07
4.92948e+07
4.82573e+07
4.69858e+07
4.55422e+07
4.39812e+07
4.23492e+07
4.0684e+07
3.90159e+07
3.73684e+07
3.57594e+07
3.42021e+07
3.27059e+07
3.12771e+07
2.992e+07
2.86367e+07
2.74277e+07
5.09145e+07
5.05566e+07
4.98217e+07
4.87811e+07
4.75042e+07
4.60541e+07
4.44853e+07
4.28443e+07
4.11693e+07
3.94907e+07
3.78324e+07
3.62121e+07
3.46433e+07
3.31355e+07
3.16951e+07
3.03263e+07
2.90316e+07
2.78116e+07
5.11365e+07
5.07801e+07
5.00433e+07
4.90009e+07
4.77215e+07
4.62685e+07
4.46964e+07
4.30515e+07
4.13723e+07
3.96893e+07
3.80262e+07
3.64012e+07
3.48274e+07
3.33146e+07
3.18692e+07
3.04955e+07
2.91962e+07
2.79717e+07
6.0468e+07
6.04089e+07
6.02783e+07
6.00727e+07
5.97901e+07
5.94298e+07
5.89921e+07
5.84775e+07
5.78872e+07
5.72227e+07
5.64859e+07
5.56787e+07
5.48036e+07
5.38631e+07
5.286e+07
5.17972e+07
5.06779e+07
4.95057e+07
4.82842e+07
4.70173e+07
4.5709e+07
4.43632e+07
4.29843e+07
4.15767e+07
4.01447e+07
3.86929e+07
3.72258e+07
3.57479e+07
3.42636e+07
3.27775e+07
3.12942e+07
2.98183e+07
2.83543e+07
2.69068e+07
2.54805e+07
2.40799e+07
2.27097e+07
2.13745e+07
2.00791e+07
1.88282e+07
1.76268e+07
1.64797e+07
1.53918e+07
1.43683e+07
1.34144e+07
1.25352e+07
1.17361e+07
1.10224e+07
1.03996e+07
9.87315e+06
9.44847e+06
9.13104e+06
8.92624e+06
8.83934e+06
8.87544e+06
9.03938e+06
9.3357e+06
9.76866e+06
1.03421e+07
1.10593e+07
1.19231e+07
1.29354e+07
1.40979e+07
1.54111e+07
1.68752e+07
1.84892e+07
2.02515e+07
2.21596e+07
2.42105e+07
2.64002e+07
2.87243e+07
3.11772e+07
3.37534e+07
3.64461e+07
3.92486e+07
4.21537e+07
4.51539e+07
4.82413e+07
5.14081e+07
5.46464e+07
5.79481e+07
6.13048e+07
6.47084e+07
6.81502e+07
7.16216e+07
7.51137e+07
7.86174e+07
8.21232e+07
8.5621e+07
8.91004e+07
9.25506e+07
9.59601e+07
9.93167e+07
1.02608e+08
1.05822e+08
1.08945e+08
1.11965e+08
1.14869e+08
1.17648e+08
1.20289e+08
1.22784e+08
1.25123e+08
1.27302e+08
1.29312e+08
1.31152e+08
1.32819e+08
1.34312e+08
1.35636e+08
1.36794e+08
1.37794e+08
1.38647e+08
1.39364e+08
1.39958e+08
1.40444e+08
1.40838e+08
1.41157e+08
1.41422e+08
1.41653e+08
1.41876e+08
1.42115e+08
1.42401e+08
1.42766e+08
1.43248e+08
1.43887e+08
1.44725e+08
1.45811e+08
1.47198e+08
1.48942e+08
1.51103e+08
1.53744e+08
1.56929e+08
1.6072e+08
1.65179e+08
1.70361e+08
1.76321e+08
1.83103e+08
1.90745e+08
1.99272e+08
2.087e+08
2.19031e+08
2.30259e+08
2.42362e+08
2.55312e+08
2.69066e+08
2.83584e+08
2.98801e+08
3.14669e+08
3.31115e+08
3.48078e+08
3.65481e+08
3.83252e+08
4.01307e+08
4.19554e+08
4.379e+08
4.56224e+08
4.74386e+08
4.92222e+08
5.09563e+08
5.26176e+08
5.41826e+08
5.56215e+08
5.69043e+08
5.79969e+08
5.88671e+08
5.94813e+08
5.981e+08
5.9827e+08
5.95142e+08
5.88592e+08
5.78645e+08
5.65381e+08
5.49067e+08
5.30022e+08
5.0874e+08
4.85695e+08
4.61412e+08
4.36258e+08
4.10668e+08
3.84852e+08
3.59135e+08
5.93936e+07
5.9338e+07
5.92129e+07
5.90132e+07
5.8737e+07
5.83844e+07
5.79559e+07
5.74527e+07
5.6876e+07
5.62271e+07
5.55078e+07
5.47201e+07
5.38661e+07
5.29483e+07
5.19692e+07
5.09315e+07
4.98384e+07
4.86931e+07
4.74992e+07
4.62604e+07
4.49806e+07
4.36637e+07
4.23138e+07
4.09353e+07
3.95325e+07
3.81099e+07
3.66717e+07
3.52222e+07
3.37658e+07
3.23071e+07
3.08503e+07
2.94002e+07
2.79611e+07
2.65377e+07
2.51345e+07
2.37559e+07
2.24065e+07
2.1091e+07
1.98139e+07
1.85802e+07
1.73945e+07
1.62618e+07
1.5187e+07
1.41751e+07
1.32314e+07
1.2361e+07
1.15692e+07
1.08614e+07
1.0243e+07
9.71953e+06
9.2964e+06
8.97905e+06
8.77286e+06
8.68308e+06
8.71482e+06
8.87297e+06
9.16209e+06
9.5864e+06
1.01497e+07
1.08553e+07
1.1706e+07
1.27038e+07
1.38501e+07
1.51457e+07
1.65906e+07
1.81839e+07
1.99239e+07
2.18082e+07
2.38337e+07
2.59965e+07
2.82921e+07
3.07151e+07
3.32597e+07
3.59195e+07
3.86877e+07
4.1557e+07
4.45201e+07
4.75692e+07
5.06966e+07
5.38941e+07
5.71538e+07
6.04675e+07
6.38269e+07
6.72237e+07
7.06491e+07
7.40944e+07
7.75504e+07
8.10078e+07
8.44567e+07
8.78866e+07
9.1287e+07
9.46462e+07
9.79526e+07
1.01194e+08
1.04358e+08
1.07431e+08
1.10403e+08
1.1326e+08
1.15992e+08
1.18589e+08
1.2104e+08
1.2334e+08
1.2548e+08
1.27455e+08
1.29262e+08
1.30898e+08
1.32365e+08
1.33663e+08
1.348e+08
1.35781e+08
1.36619e+08
1.37322e+08
1.37904e+08
1.38381e+08
1.38766e+08
1.39078e+08
1.39336e+08
1.3956e+08
1.39774e+08
1.40004e+08
1.40278e+08
1.4063e+08
1.41095e+08
1.41712e+08
1.42524e+08
1.43578e+08
1.44925e+08
1.46622e+08
1.48728e+08
1.51305e+08
1.54416e+08
1.58122e+08
1.62484e+08
1.67557e+08
1.73394e+08
1.8004e+08
1.87532e+08
1.95895e+08
2.05145e+08
2.15284e+08
2.26307e+08
2.38192e+08
2.50913e+08
2.64429e+08
2.78696e+08
2.93654e+08
3.09252e+08
3.25429e+08
3.42115e+08
3.59239e+08
3.76728e+08
3.94502e+08
4.12472e+08
4.30547e+08
4.48605e+08
4.66511e+08
4.84102e+08
5.01216e+08
5.17625e+08
5.33094e+08
5.47339e+08
5.6006e+08
5.70923e+08
5.7961e+08
5.85792e+08
5.89181e+08
5.89518e+08
5.86627e+08
5.80378e+08
5.70781e+08
5.57913e+08
5.42026e+08
5.23428e+08
5.02601e+08
4.80006e+08
4.56153e+08
4.3141e+08
4.06202e+08
3.80738e+08
3.55259e+08
5.73295e+07
5.72764e+07
5.71569e+07
5.69655e+07
5.6701e+07
5.63638e+07
5.59549e+07
5.54755e+07
5.49265e+07
5.4309e+07
5.36246e+07
5.28749e+07
5.20619e+07
5.11875e+07
5.02542e+07
4.92643e+07
4.82209e+07
4.71268e+07
4.59854e+07
4.48002e+07
4.35747e+07
4.2313e+07
4.10189e+07
3.96965e+07
3.83498e+07
3.69828e+07
3.55995e+07
3.42041e+07
3.2801e+07
3.13944e+07
2.99886e+07
2.85881e+07
2.71972e+07
2.58202e+07
2.44616e+07
2.31255e+07
2.18165e+07
2.0539e+07
1.92977e+07
1.80971e+07
1.69421e+07
1.58375e+07
1.4788e+07
1.37988e+07
1.28749e+07
1.20216e+07
1.12441e+07
1.05479e+07
9.93828e+06
9.42069e+06
9.00059e+06
8.68341e+06
8.47456e+06
8.37929e+06
8.40268e+06
8.54962e+06
8.82467e+06
9.23206e+06
9.7756e+06
1.04585e+07
1.12836e+07
1.22528e+07
1.33676e+07
1.46287e+07
1.60359e+07
1.75884e+07
1.92846e+07
2.1122e+07
2.30976e+07
2.52075e+07
2.74471e+07
2.98112e+07
3.2294e+07
3.48891e+07
3.75899e+07
4.03893e+07
4.32798e+07
4.62541e+07
4.93043e+07
5.24225e+07
5.56007e+07
5.88309e+07
6.21048e+07
6.54142e+07
6.87506e+07
7.21052e+07
7.54691e+07
7.88329e+07
8.2187e+07
8.55213e+07
8.88249e+07
9.20869e+07
9.52958e+07
9.84397e+07
1.01506e+08
1.04484e+08
1.0736e+08
1.10124e+08
1.12766e+08
1.15275e+08
1.17642e+08
1.19862e+08
1.21926e+08
1.23831e+08
1.25573e+08
1.27151e+08
1.28564e+08
1.29815e+08
1.30909e+08
1.31855e+08
1.32661e+08
1.33338e+08
1.33898e+08
1.34356e+08
1.34725e+08
1.35022e+08
1.35266e+08
1.35475e+08
1.35673e+08
1.35885e+08
1.36137e+08
1.3646e+08
1.3689e+08
1.37462e+08
1.3822e+08
1.39208e+08
1.40477e+08
1.42081e+08
1.44076e+08
1.46525e+08
1.49487e+08
1.53024e+08
1.57193e+08
1.62049e+08
1.67643e+08
1.7402e+08
1.81213e+08
1.89251e+08
1.98149e+08
2.07909e+08
2.18524e+08
2.29978e+08
2.42244e+08
2.55287e+08
2.69059e+08
2.83505e+08
2.98572e+08
3.14207e+08
3.30344e+08
3.46911e+08
3.63837e+08
3.8105e+08
3.98464e+08
4.15988e+08
4.33505e+08
4.50889e+08
4.6798e+08
4.84617e+08
5.00589e+08
5.15662e+08
5.29573e+08
5.42029e+08
5.5271e+08
5.61312e+08
5.67517e+08
5.71052e+08
5.71668e+08
5.69192e+08
5.63489e+08
5.54547e+08
5.42439e+08
5.2739e+08
5.09685e+08
4.89779e+08
4.68101e+08
4.4513e+08
4.21237e+08
3.96823e+08
3.72112e+08
3.47275e+08
5.44373e+07
5.4388e+07
5.4276e+07
5.40968e+07
5.38501e+07
5.35367e+07
5.31573e+07
5.27127e+07
5.22034e+07
5.16304e+07
5.09949e+07
5.02981e+07
4.95416e+07
4.87269e+07
4.78563e+07
4.6932e+07
4.59566e+07
4.49329e+07
4.38638e+07
4.27527e+07
4.1603e+07
4.0418e+07
3.92015e+07
3.79571e+07
3.66881e+07
3.53982e+07
3.40914e+07
3.27715e+07
3.14427e+07
3.0109e+07
2.87747e+07
2.74437e+07
2.61201e+07
2.48081e+07
2.35116e+07
2.22349e+07
2.09823e+07
1.97581e+07
1.85667e+07
1.74127e+07
1.63007e+07
1.52354e+07
1.42216e+07
1.32642e+07
1.23685e+07
1.15394e+07
1.07821e+07
1.01022e+07
9.50487e+06
8.99564e+06
8.57988e+06
8.26304e+06
8.05049e+06
7.94744e+06
7.95897e+06
8.08998e+06
8.34504e+06
8.72834e+06
9.24364e+06
9.89418e+06
1.06826e+07
1.16111e+07
1.26808e+07
1.38926e+07
1.52462e+07
1.67407e+07
1.83745e+07
2.01452e+07
2.20499e+07
2.40847e+07
2.6245e+07
2.85258e+07
3.09213e+07
3.34253e+07
3.60313e+07
3.87323e+07
4.15211e+07
4.43904e+07
4.73326e+07
5.03398e+07
5.34044e+07
5.65182e+07
5.96732e+07
6.28612e+07
6.60738e+07
6.93024e+07
7.25384e+07
7.57726e+07
7.89953e+07
8.21967e+07
8.53663e+07
8.84932e+07
9.15665e+07
9.45744e+07
9.75057e+07
1.00348e+08
1.03092e+08
1.05726e+08
1.0824e+08
1.10625e+08
1.12874e+08
1.14981e+08
1.16939e+08
1.18744e+08
1.20393e+08
1.21886e+08
1.23222e+08
1.24405e+08
1.2544e+08
1.26333e+08
1.27094e+08
1.27733e+08
1.28261e+08
1.2869e+08
1.29035e+08
1.2931e+08
1.29531e+08
1.29718e+08
1.29892e+08
1.30076e+08
1.30295e+08
1.30577e+08
1.30954e+08
1.31463e+08
1.32143e+08
1.33037e+08
1.34195e+08
1.35666e+08
1.37506e+08
1.39773e+08
1.42524e+08
1.45822e+08
1.4972e+08
1.54272e+08
1.59525e+08
1.65522e+08
1.72298e+08
1.79881e+08
1.88285e+08
1.97515e+08
2.07563e+08
2.18415e+08
2.30048e+08
2.42432e+08
2.55516e+08
2.69252e+08
2.83584e+08
2.98471e+08
3.13848e+08
3.29649e+08
3.458e+08
3.62241e+08
3.78887e+08
3.9565e+08
4.12417e+08
4.29074e+08
4.45465e+08
4.61435e+08
4.76787e+08
4.91297e+08
5.04718e+08
5.16773e+08
5.27165e+08
5.35608e+08
5.41799e+08
5.45483e+08
5.46419e+08
5.44442e+08
5.39419e+08
5.31321e+08
5.20209e+08
5.06273e+08
4.89774e+08
4.71127e+08
4.50715e+08
4.28982e+08
4.06286e+08
3.83004e+08
3.59372e+08
3.35542e+08
5.09174e+07
5.08735e+07
5.07716e+07
5.06087e+07
5.03851e+07
5.01014e+07
4.97578e+07
4.93547e+07
4.88928e+07
4.83726e+07
4.77948e+07
4.71603e+07
4.64705e+07
4.57269e+07
4.49312e+07
4.40854e+07
4.31918e+07
4.22528e+07
4.12711e+07
4.02494e+07
3.9191e+07
3.80988e+07
3.69758e+07
3.58251e+07
3.46498e+07
3.34534e+07
3.22394e+07
3.10114e+07
2.97734e+07
2.85289e+07
2.72818e+07
2.60357e+07
2.47944e+07
2.35616e+07
2.23412e+07
2.11371e+07
1.99535e+07
1.87944e+07
1.76642e+07
1.65672e+07
1.55079e+07
1.44908e+07
1.35207e+07
1.26025e+07
1.17411e+07
1.09416e+07
1.02092e+07
9.54925e+06
8.96701e+06
8.46795e+06
8.05745e+06
7.7409e+06
7.52367e+06
7.41096e+06
7.40783e+06
7.51911e+06
7.74933e+06
8.10265e+06
8.58277e+06
9.19294e+06
9.9358e+06
1.08134e+07
1.1827e+07
1.29773e+07
1.42641e+07
1.56864e+07
1.72427e+07
1.89306e+07
2.07472e+07
2.26887e+07
2.47506e+07
2.6928e+07
2.92154e+07
3.16065e+07
3.40951e+07
3.66744e+07
3.93374e+07
4.20769e+07
4.48857e+07
4.7756e+07
5.06802e+07
5.36506e+07
5.66592e+07
5.96979e+07
6.27586e+07
6.58327e+07
6.89119e+07
7.19871e+07
7.50489e+07
7.80877e+07
8.10935e+07
8.40557e+07
8.69638e+07
8.98064e+07
9.25727e+07
9.5252e+07
9.78341e+07
1.00309e+08
1.02668e+08
1.04903e+08
1.07006e+08
1.08974e+08
1.10801e+08
1.12483e+08
1.14017e+08
1.15404e+08
1.16646e+08
1.17745e+08
1.18705e+08
1.19532e+08
1.20235e+08
1.20825e+08
1.2131e+08
1.21703e+08
1.22014e+08
1.22259e+08
1.22452e+08
1.22609e+08
1.22751e+08
1.22898e+08
1.23073e+08
1.23303e+08
1.23616e+08
1.24047e+08
1.24632e+08
1.25412e+08
1.26433e+08
1.27743e+08
1.29393e+08
1.3144e+08
1.33935e+08
1.36941e+08
1.40508e+08
1.44688e+08
1.49527e+08
1.55065e+08
1.61335e+08
1.68367e+08
1.76175e+08
1.84764e+08
1.9413e+08
2.04258e+08
2.15129e+08
2.26716e+08
2.38975e+08
2.5186e+08
2.65316e+08
2.79307e+08
2.93776e+08
3.08662e+08
3.23892e+08
3.3941e+08
3.55138e+08
3.70989e+08
3.86857e+08
4.02634e+08
4.18178e+08
4.3334e+08
4.47935e+08
4.61756e+08
4.74564e+08
4.86109e+08
4.96122e+08
5.04331e+08
5.10459e+08
5.14262e+08
5.15517e+08
5.1407e+08
5.09794e+08
5.02645e+08
4.92667e+08
4.80012e+08
4.64923e+08
4.47759e+08
4.28858e+08
4.08626e+08
3.87389e+08
3.655e+08
3.43205e+08
3.20665e+08
4.69924e+07
4.69554e+07
4.68661e+07
4.67224e+07
4.65249e+07
4.62738e+07
4.59693e+07
4.56117e+07
4.52012e+07
4.4738e+07
4.42227e+07
4.36561e+07
4.30393e+07
4.23733e+07
4.16597e+07
4.09001e+07
4.00964e+07
3.92507e+07
3.83652e+07
3.74424e+07
3.64848e+07
3.54949e+07
3.44751e+07
3.34281e+07
3.23568e+07
3.12642e+07
3.01536e+07
2.90283e+07
2.78915e+07
2.67465e+07
2.55967e+07
2.44455e+07
2.3296e+07
2.2152e+07
2.10168e+07
1.98942e+07
1.87881e+07
1.77024e+07
1.6641e+07
1.56083e+07
1.46083e+07
1.36457e+07
1.27249e+07
1.18508e+07
1.10281e+07
1.02619e+07
9.55743e+06
8.91985e+06
8.35451e+06
7.86678e+06
7.46203e+06
7.14562e+06
6.92291e+06
6.79906e+06
6.77906e+06
6.8677e+06
7.06948e+06
7.3885e+06
7.82841e+06
8.39239e+06
9.08303e+06
9.90233e+06
1.08516e+07
1.19315e+07
1.31417e+07
1.44814e+07
1.5949e+07
1.75421e+07
1.92579e+07
2.10926e+07
2.30421e+07
2.51013e+07
2.7265e+07
2.95271e+07
3.18816e+07
3.43219e+07
3.68413e+07
3.94329e+07
4.20893e+07
4.48034e+07
4.75676e+07
5.03743e+07
5.32159e+07
5.60845e+07
5.89722e+07
6.18706e+07
6.47714e+07
6.7666e+07
7.05451e+07
7.33994e+07
7.62193e+07
7.8995e+07
8.17163e+07
8.43724e+07
8.6953e+07
8.94485e+07
9.18492e+07
9.41464e+07
9.63316e+07
9.83975e+07
1.00338e+08
1.02149e+08
1.03828e+08
1.0537e+08
1.06776e+08
1.08044e+08
1.09178e+08
1.10179e+08
1.11053e+08
1.11803e+08
1.1244e+08
1.1297e+08
1.13404e+08
1.13751e+08
1.14022e+08
1.14228e+08
1.14385e+08
1.14507e+08
1.14609e+08
1.14711e+08
1.14835e+08
1.15003e+08
1.15243e+08
1.15586e+08
1.16066e+08
1.16718e+08
1.17585e+08
1.18713e+08
1.20151e+08
1.21951e+08
1.24161e+08
1.2684e+08
1.30037e+08
1.33802e+08
1.38178e+08
1.43204e+08
1.48913e+08
1.55333e+08
1.6248e+08
1.70358e+08
1.78968e+08
1.88298e+08
1.98327e+08
2.09036e+08
2.20385e+08
2.32334e+08
2.44831e+08
2.57842e+08
2.71316e+08
2.85198e+08
2.99421e+08
3.13927e+08
3.28646e+08
3.43492e+08
3.58368e+08
3.73173e+08
3.87779e+08
4.02037e+08
4.15782e+08
4.28823e+08
4.4093e+08
4.51879e+08
4.61431e+08
4.69335e+08
4.75339e+08
4.79209e+08
4.80747e+08
4.79816e+08
4.76287e+08
4.7011e+08
4.61307e+08
4.50009e+08
4.36423e+08
4.20859e+08
4.03609e+08
3.8504e+08
3.65434e+08
3.45117e+08
3.24341e+08
3.03293e+08
4.28872e+07
4.28577e+07
4.27818e+07
4.26585e+07
4.2488e+07
4.22706e+07
4.20064e+07
4.16953e+07
4.13372e+07
4.09323e+07
4.04811e+07
3.99842e+07
3.94423e+07
3.88562e+07
3.82272e+07
3.75566e+07
3.68458e+07
3.60966e+07
3.53108e+07
3.44904e+07
3.36371e+07
3.2753e+07
3.18402e+07
3.0901e+07
2.99378e+07
2.89535e+07
2.79508e+07
2.69326e+07
2.59015e+07
2.48606e+07
2.38126e+07
2.27606e+07
2.17076e+07
2.06567e+07
1.96112e+07
1.85746e+07
1.75502e+07
1.65418e+07
1.55532e+07
1.45882e+07
1.3651e+07
1.27459e+07
1.18772e+07
1.10496e+07
1.02679e+07
9.53693e+06
8.86189e+06
8.24794e+06
7.70034e+06
7.22447e+06
6.82562e+06
6.50913e+06
6.28028e+06
6.14422e+06
6.1059e+06
6.17007e+06
6.34115e+06
6.62318e+06
7.01977e+06
7.53402e+06
8.16846e+06
8.92503e+06
9.805e+06
1.08089e+07
1.19367e+07
1.31874e+07
1.45593e+07
1.60502e+07
1.76572e+07
1.93768e+07
2.12048e+07
2.31365e+07
2.51666e+07
2.72895e+07
2.94991e+07
3.17894e+07
3.41536e+07
3.65851e+07
3.9077e+07
4.16222e+07
4.42134e+07
4.68433e+07
4.95044e+07
5.21892e+07
5.489e+07
5.75985e+07
6.03068e+07
6.30063e+07
6.56884e+07
6.8344e+07
7.09639e+07
7.35389e+07
7.60592e+07
7.85151e+07
8.0897e+07
8.3196e+07
8.54033e+07
8.75111e+07
8.95118e+07
9.13991e+07
9.31676e+07
9.48137e+07
9.63347e+07
9.77292e+07
9.89971e+07
1.00139e+08
1.01156e+08
1.02052e+08
1.02832e+08
1.03499e+08
1.04061e+08
1.04525e+08
1.04899e+08
1.05193e+08
1.05416e+08
1.05579e+08
1.05693e+08
1.05772e+08
1.05829e+08
1.05881e+08
1.05947e+08
1.06048e+08
1.0621e+08
1.06459e+08
1.06826e+08
1.07343e+08
1.08048e+08
1.08985e+08
1.10198e+08
1.11737e+08
1.13648e+08
1.15984e+08
1.18793e+08
1.22121e+08
1.2601e+08
1.30499e+08
1.3562e+08
1.414e+08
1.47855e+08
1.54993e+08
1.62814e+08
1.71311e+08
1.80467e+08
1.90265e+08
2.00672e+08
2.11652e+08
2.23159e+08
2.3516e+08
2.47608e+08
2.60453e+08
2.73633e+08
2.87095e+08
3.00767e+08
3.1457e+08
3.28415e+08
3.42206e+08
3.55825e+08
3.69129e+08
3.81965e+08
3.94163e+08
4.05509e+08
4.15798e+08
4.24817e+08
4.32344e+08
4.38152e+08
4.42021e+08
4.43779e+08
4.43304e+08
4.4047e+08
4.3522e+08
4.2756e+08
4.17606e+08
4.0553e+08
3.91592e+08
3.7604e+08
3.59199e+08
3.41307e+08
3.22663e+08
3.0351e+08
2.84072e+08
3.88145e+07
3.87925e+07
3.87299e+07
3.86267e+07
3.8483e+07
3.82987e+07
3.80737e+07
3.78077e+07
3.75008e+07
3.7153e+07
3.67646e+07
3.63359e+07
3.58674e+07
3.53597e+07
3.48137e+07
3.42304e+07
3.36108e+07
3.29563e+07
3.22682e+07
3.15479e+07
3.07969e+07
3.00168e+07
2.92093e+07
2.83764e+07
2.75203e+07
2.66431e+07
2.57472e+07
2.48349e+07
2.39087e+07
2.29709e+07
2.2024e+07
2.10707e+07
2.01136e+07
1.91555e+07
1.81994e+07
1.72484e+07
1.63056e+07
1.53744e+07
1.44583e+07
1.35611e+07
1.26865e+07
1.18388e+07
1.10222e+07
1.02411e+07
9.5003e+06
8.80458e+06
8.15897e+06
7.56859e+06
7.03864e+06
6.57444e+06
6.18125e+06
5.86436e+06
5.62898e+06
5.48021e+06
5.42297e+06
5.46196e+06
5.60153e+06
5.84564e+06
6.19782e+06
6.66112e+06
7.238e+06
7.93031e+06
8.73927e+06
9.66542e+06
1.07086e+07
1.18678e+07
1.31415e+07
1.45274e+07
1.60227e+07
1.76238e+07
1.93268e+07
2.11271e+07
2.30196e+07
2.49989e+07
2.70591e+07
2.91943e+07
3.13981e+07
3.36641e+07
3.59857e+07
3.8356e+07
4.0768e+07
4.32147e+07
4.56888e+07
4.8183e+07
5.06897e+07
5.32013e+07
5.57098e+07
5.82072e+07
6.0685e+07
6.31347e+07
6.55477e+07
6.79151e+07
7.02279e+07
7.24773e+07
7.46546e+07
7.67516e+07
7.87606e+07
8.06745e+07
8.24866e+07
8.41916e+07
8.57848e+07
8.72631e+07
8.86244e+07
8.98684e+07
9.09958e+07
9.20074e+07
9.2905e+07
9.3692e+07
9.43725e+07
9.49511e+07
9.54336e+07
9.58267e+07
9.61366e+07
9.63716e+07
9.65409e+07
9.66538e+07
9.67199e+07
9.67507e+07
9.67582e+07
9.67565e+07
9.67616e+07
9.6794e+07
9.68738e+07
9.70257e+07
9.72773e+07
9.76579e+07
9.82008e+07
9.89456e+07
9.99338e+07
1.01211e+08
1.02822e+08
1.04815e+08
1.07234e+08
1.10123e+08
1.13525e+08
1.17476e+08
1.22009e+08
1.27148e+08
1.32913e+08
1.39313e+08
1.4635e+08
1.5402e+08
1.62309e+08
1.71205e+08
1.80679e+08
1.907e+08
2.01228e+08
2.12234e+08
2.2367e+08
2.35491e+08
2.4764e+08
2.60065e+08
2.72698e+08
2.85464e+08
2.98281e+08
3.11056e+08
3.23677e+08
3.36009e+08
3.47915e+08
3.59237e+08
3.69782e+08
3.79364e+08
3.87792e+08
3.94873e+08
4.00407e+08
4.04195e+08
4.06089e+08
4.05976e+08
4.03742e+08
3.99321e+08
3.92718e+08
3.84028e+08
3.7339e+08
3.6103e+08
3.47147e+08
3.32021e+08
3.15849e+08
2.98903e+08
2.81414e+08
2.63634e+08
3.49614e+07
3.49461e+07
3.48959e+07
3.48113e+07
3.46925e+07
3.4539e+07
3.43506e+07
3.41271e+07
3.38683e+07
3.3574e+07
3.32445e+07
3.28797e+07
3.248e+07
3.20458e+07
3.15776e+07
3.10761e+07
3.0542e+07
2.99762e+07
2.93797e+07
2.87534e+07
2.80986e+07
2.74164e+07
2.67083e+07
2.59757e+07
2.52204e+07
2.44443e+07
2.36492e+07
2.28371e+07
2.20099e+07
2.11696e+07
2.03183e+07
1.94585e+07
1.85923e+07
1.77222e+07
1.68509e+07
1.59811e+07
1.51157e+07
1.42578e+07
1.34106e+07
1.25776e+07
1.17626e+07
1.09695e+07
1.02023e+07
9.46553e+06
8.76361e+06
8.10135e+06
7.48365e+06
6.91557e+06
6.40224e+06
5.94889e+06
5.56075e+06
5.24303e+06
5.00091e+06
4.83945e+06
4.76352e+06
4.77772e+06
4.88636e+06
5.09332e+06
5.40204e+06
5.81545e+06
6.33593e+06
6.96528e+06
7.70463e+06
8.55444e+06
9.51446e+06
1.05838e+07
1.17608e+07
1.30432e+07
1.44282e+07
1.59124e+07
1.74918e+07
1.9162e+07
2.09181e+07
2.27549e+07
2.46667e+07
2.66477e+07
2.86919e+07
3.07929e+07
3.29445e+07
3.514e+07
3.73728e+07
3.96361e+07
4.19228e+07
4.42259e+07
4.6538e+07
4.88519e+07
5.11598e+07
5.34541e+07
5.57268e+07
5.79699e+07
6.01753e+07
6.23347e+07
6.44398e+07
6.64829e+07
6.84558e+07
7.03513e+07
7.21625e+07
7.38832e+07
7.55076e+07
7.70315e+07
7.84507e+07
7.97626e+07
8.09662e+07
8.20615e+07
8.30495e+07
8.39315e+07
8.47094e+07
8.53864e+07
8.59666e+07
8.64544e+07
8.68549e+07
8.71736e+07
8.74156e+07
8.75881e+07
8.76994e+07
8.77578e+07
8.77717e+07
8.77504e+07
8.77046e+07
8.7646e+07
8.75891e+07
8.75509e+07
8.75491e+07
8.76052e+07
8.77437e+07
8.79913e+07
8.83779e+07
8.8939e+07
8.97124e+07
9.07393e+07
9.20622e+07
9.37239e+07
9.57671e+07
9.82347e+07
1.01167e+08
1.046e+08
1.08564e+08
1.13087e+08
1.18187e+08
1.23877e+08
1.30161e+08
1.37038e+08
1.44498e+08
1.52532e+08
1.61116e+08
1.70222e+08
1.79816e+08
1.89873e+08
2.00347e+08
2.1119e+08
2.22353e+08
2.33782e+08
2.45417e+08
2.57186e+08
2.69007e+08
2.80791e+08
2.9243e+08
3.03799e+08
3.14777e+08
3.25213e+08
3.34937e+08
3.43782e+08
3.51574e+08
3.58147e+08
3.63332e+08
3.66949e+08
3.68878e+08
3.69014e+08
3.67254e+08
3.63538e+08
3.57865e+08
3.50313e+08
3.40995e+08
3.30104e+08
3.17799e+08
3.04312e+08
2.8981e+08
2.74528e+08
2.58685e+08
2.42555e+08
3.14793e+07
3.14697e+07
3.14301e+07
3.13621e+07
3.12654e+07
3.11395e+07
3.09842e+07
3.0799e+07
3.05836e+07
3.03377e+07
3.00612e+07
2.97542e+07
2.94165e+07
2.90485e+07
2.86505e+07
2.82226e+07
2.77654e+07
2.72794e+07
2.67653e+07
2.62237e+07
2.56555e+07
2.50616e+07
2.4443e+07
2.38009e+07
2.31367e+07
2.24518e+07
2.17477e+07
2.10259e+07
2.02881e+07
1.95358e+07
1.8771e+07
1.79956e+07
1.72115e+07
1.64209e+07
1.56262e+07
1.48298e+07
1.40343e+07
1.32426e+07
1.24577e+07
1.16828e+07
1.09217e+07
1.01779e+07
9.45549e+06
8.75864e+06
8.09184e+06
7.45974e+06
6.86717e+06
6.3191e+06
5.82056e+06
5.37671e+06
4.99273e+06
4.67378e+06
4.42498e+06
4.25136e+06
4.15773e+06
4.1486e+06
4.22818e+06
4.40028e+06
4.66822e+06
5.03482e+06
5.50235e+06
6.07253e+06
6.74637e+06
7.52427e+06
8.40591e+06
9.3903e+06
1.04758e+07
1.16601e+07
1.29404e+07
1.43133e+07
1.57749e+07
1.73209e+07
1.89466e+07
2.06469e+07
2.24162e+07
2.4249e+07
2.61393e+07
2.80811e+07
3.00682e+07
3.20944e+07
3.41532e+07
3.62382e+07
3.83425e+07
4.04593e+07
4.25816e+07
4.47024e+07
4.68144e+07
4.89103e+07
5.09827e+07
5.30239e+07
5.50265e+07
5.69828e+07
5.88853e+07
6.0727e+07
6.25006e+07
6.41996e+07
6.58179e+07
6.73503e+07
6.87921e+07
7.01396e+07
7.13897e+07
7.25402e+07
7.35907e+07
7.45415e+07
7.53938e+07
7.6149e+07
7.68094e+07
7.73779e+07
7.78582e+07
7.82546e+07
7.85718e+07
7.88138e+07
7.89856e+07
7.90934e+07
7.91441e+07
7.91449e+07
7.91031e+07
7.90267e+07
7.89251e+07
7.88082e+07
7.86889e+07
7.85814e+07
7.85009e+07
7.8466e+07
7.84983e+07
7.86221e+07
7.88642e+07
7.92561e+07
7.98317e+07
8.06277e+07
8.1683e+07
8.30382e+07
8.47331e+07
8.68082e+07
8.93026e+07
9.22515e+07
9.56859e+07
9.96319e+07
1.04112e+08
1.09139e+08
1.14722e+08
1.20862e+08
1.27552e+08
1.34786e+08
1.42544e+08
1.50802e+08
1.59533e+08
1.68709e+08
1.7829e+08
1.88228e+08
1.98471e+08
2.08973e+08
2.19674e+08
2.30501e+08
2.41379e+08
2.52216e+08
2.62911e+08
2.73347e+08
2.83413e+08
2.92969e+08
3.01868e+08
3.09957e+08
3.1708e+08
3.23093e+08
3.27859e+08
3.31216e+08
3.3307e+08
3.33332e+08
3.31913e+08
3.28759e+08
3.2387e+08
3.17303e+08
3.09156e+08
2.99587e+08
2.88729e+08
2.76762e+08
2.63832e+08
2.50134e+08
2.35875e+08
2.2134e+08
2.84782e+07
2.84728e+07
2.84418e+07
2.83877e+07
2.83099e+07
2.82079e+07
2.80811e+07
2.79291e+07
2.77514e+07
2.75476e+07
2.73174e+07
2.70606e+07
2.67769e+07
2.64665e+07
2.61292e+07
2.57651e+07
2.53745e+07
2.49576e+07
2.45148e+07
2.40464e+07
2.3553e+07
2.30352e+07
2.24939e+07
2.19298e+07
2.13441e+07
2.07378e+07
2.01121e+07
1.94681e+07
1.88071e+07
1.81307e+07
1.74402e+07
1.67374e+07
1.60238e+07
1.53015e+07
1.45726e+07
1.38391e+07
1.31037e+07
1.23688e+07
1.16374e+07
1.09125e+07
1.01976e+07
9.49615e+06
8.8121e+06
8.14953e+06
7.5128e+06
6.90648e+06
6.33531e+06
5.80417e+06
5.31805e+06
4.882e+06
4.50117e+06
4.18067e+06
3.92556e+06
3.7408e+06
3.6311e+06
3.6009e+06
3.65434e+06
3.79512e+06
4.02643e+06
4.35097e+06
4.77089e+06
5.28776e+06
5.90249e+06
6.61535e+06
7.42592e+06
8.33312e+06
9.33525e+06
1.043e+07
1.16145e+07
1.28852e+07
1.42383e+07
1.56698e+07
1.71748e+07
1.87483e+07
2.0385e+07
2.20795e+07
2.38259e+07
2.56183e+07
2.74507e+07
2.93172e+07
3.12116e+07
3.31275e+07
3.50587e+07
3.69984e+07
3.894e+07
4.08767e+07
4.28017e+07
4.4708e+07
4.65889e+07
4.8437e+07
5.02456e+07
5.20076e+07
5.37163e+07
5.53652e+07
5.69479e+07
5.84588e+07
5.98925e+07
6.12448e+07
6.2512e+07
6.36908e+07
6.4779e+07
6.57751e+07
6.66789e+07
6.74908e+07
6.82125e+07
6.88453e+07
6.93914e+07
6.98538e+07
7.02359e+07