/*--------------------------------*- C++ -*----------------------------------*\
| =========                 |                                                 |
| \\      /  F ield         | OpenFOAM: The Open Source CFD Toolbox           |
|  \\    /   O peration     | Version:  dev                                   |
|   \\  /    A nd           | Web:      http://www.openfoam.org               |
|    \\/     M anipulation  |                                                 |
\*---------------------------------------------------------------------------*/
FoamFile
{
    version     2.0;
    format      ascii;
    class       volScalarField;
    object      rho;
    location    "9.154";
}
// * * * * * * * * * * * * * * * * * * * * * * * * * * * * * * * * * * * * * //

dimensions      [1 -3 0 0 0 0 0];

internalField   nonuniform List<scalar> 
12225
(
1.15038
1.14779
1.14722
1.14703
1.14716
1.14675
1.14652
1.14584
1.14496
1.14409
1.14252
1.14224
1.13989
1.13898
1.13905
1.13039
1.14571
1.1176
1.14862
1.14617
1.14697
1.14742
1.14822
1.14849
1.14838
1.1486
1.14699
1.14739
1.14392
1.14657
1.14151
1.1436
1.1418
1.1363
1.15196
1.12555
1.14833
1.1462
1.14734
1.14771
1.14869
1.14911
1.14958
1.15039
1.14891
1.15067
1.14649
1.15017
1.14407
1.14767
1.14179
1.1453
1.14138
1.13888
1.14857
1.14575
1.1476
1.14729
1.14872
1.14838
1.14933
1.14944
1.14957
1.14919
1.14867
1.14845
1.14719
1.14511
1.14446
1.14141
1.13436
1.13915
1.14904
1.14518
1.14753
1.14671
1.14843
1.1475
1.14861
1.14849
1.14899
1.14806
1.14798
1.14822
1.14693
1.14587
1.1442
1.14271
1.13961
1.13746
1.14939
1.14443
1.14769
1.14591
1.14875
1.14656
1.14899
1.1476
1.14881
1.14705
1.14835
1.14715
1.14685
1.14467
1.14411
1.14209
1.14269
1.13587
1.14897
1.14441
1.14757
1.14589
1.14915
1.14686
1.14929
1.14723
1.14845
1.1469
1.1483
1.14656
1.1465
1.14483
1.14418
1.14217
1.14227
1.13902
1.14856
1.14424
1.14718
1.14543
1.14868
1.14636
1.14875
1.14675
1.14869
1.14719
1.14863
1.14639
1.14692
1.14461
1.14415
1.14193
1.14197
1.14035
1.14797
1.14414
1.14704
1.14566
1.14838
1.14606
1.14809
1.14635
1.14838
1.14698
1.14811
1.14626
1.14617
1.14415
1.14353
1.14182
1.14111
1.14006
1.148
1.14412
1.14642
1.14537
1.14769
1.1455
1.14725
1.14564
1.14753
1.14621
1.14718
1.14558
1.14506
1.14327
1.14249
1.14103
1.13971
1.13847
1.14719
1.14388
1.1457
1.14506
1.14636
1.14482
1.14585
1.14523
1.14647
1.14554
1.1453
1.14406
1.14318
1.14198
1.14076
1.1399
1.13839
1.13721
1.14643
1.14295
1.14455
1.14417
1.14505
1.14427
1.14459
1.14402
1.1446
1.14405
1.14357
1.14265
1.14151
1.14034
1.13875
1.13803
1.13672
1.13573
1.14579
1.14253
1.14334
1.14327
1.14347
1.14308
1.14305
1.14249
1.14242
1.14182
1.14129
1.14046
1.1393
1.13826
1.13679
1.13573
1.13446
1.13344
1.14521
1.14168
1.14196
1.14209
1.14175
1.14135
1.14112
1.1407
1.14037
1.13974
1.13891
1.13799
1.13684
1.13575
1.13451
1.13328
1.13219
1.13104
1.14376
1.14008
1.1404
1.14008
1.13976
1.13926
1.13869
1.13823
1.13765
1.13701
1.13616
1.13515
1.13396
1.13269
1.13155
1.1303
1.12901
1.12791
1.14216
1.13827
1.13841
1.13808
1.13746
1.13681
1.13619
1.13555
1.13484
1.134
1.13302
1.13198
1.13089
1.12961
1.12841
1.12711
1.12598
1.12481
1.1406
1.13617
1.13598
1.13559
1.13491
1.13408
1.13337
1.13254
1.13174
1.13095
1.12998
1.12903
1.12786
1.12665
1.12547
1.12424
1.12318
1.12202
1.13904
1.13368
1.1335
1.13334
1.13263
1.13185
1.13109
1.13024
1.12956
1.12878
1.12796
1.12706
1.1259
1.12477
1.12367
1.12258
1.12162
1.12067
1.13726
1.13159
1.13157
1.13141
1.13076
1.13018
1.12946
1.12884
1.12832
1.12767
1.12711
1.12627
1.12542
1.12433
1.12346
1.12257
1.1217
1.12104
1.13584
1.12974
1.13018
1.1301
1.12965
1.12922
1.12831
1.12799
1.12764
1.12719
1.12697
1.12614
1.12568
1.12469
1.12404
1.12332
1.12252
1.12198
1.13516
1.12852
1.12901
1.12889
1.1286
1.12851
1.1277
1.12786
1.12774
1.12743
1.12745
1.1266
1.12638
1.12557
1.12505
1.12454
1.12367
1.12325
1.13381
1.12757
1.12811
1.12809
1.12787
1.12826
1.12772
1.1279
1.12787
1.12757
1.12782
1.12726
1.12725
1.12671
1.1262
1.12581
1.12495
1.12464
1.13315
1.12705
1.12744
1.12753
1.12763
1.12794
1.12783
1.12805
1.12796
1.12796
1.12809
1.12786
1.12789
1.12746
1.12717
1.12671
1.12615
1.12574
1.13262
1.12657
1.12686
1.12709
1.12737
1.12738
1.12764
1.12793
1.12808
1.12838
1.12837
1.12844
1.12838
1.12815
1.12802
1.12758
1.12728
1.12676
1.13234
1.12618
1.12639
1.12681
1.12702
1.12725
1.12759
1.12785
1.12822
1.12847
1.12866
1.12878
1.12874
1.12867
1.12845
1.12819
1.12786
1.12747
1.13186
1.12586
1.12623
1.12663
1.12685
1.12717
1.12745
1.12779
1.12814
1.12842
1.12873
1.12887
1.12898
1.12893
1.12881
1.1286
1.12826
1.12795
1.13193
1.12572
1.12603
1.12641
1.12676
1.12712
1.12754
1.12792
1.1283
1.12864
1.12892
1.12911
1.12919
1.12916
1.12901
1.12875
1.12842
1.12804
1.13172
1.12571
1.12608
1.12642
1.12672
1.12712
1.12767
1.12819
1.12869
1.12905
1.12927
1.12932
1.12926
1.12902
1.12874
1.12839
1.12806
1.12776
1.1321
1.12583
1.12605
1.12639
1.12672
1.12719
1.12771
1.12816
1.12842
1.12845
1.12829
1.12803
1.12779
1.1275
1.12736
1.12718
1.12719
1.12708
1.13401
1.12824
1.12763
1.12725
1.12708
1.12702
1.12693
1.12676
1.12651
1.12618
1.12582
1.12546
1.12511
1.12477
1.12446
1.12416
1.12388
1.12368
1.15539
1.17781
1.18098
1.18016
1.17913
1.17801
1.17695
1.17601
1.17522
1.17445
1.17352
1.17254
1.1716
1.17097
1.17048
1.16945
1.16776
1.16614
1.16514
1.16461
1.16418
1.1635
1.16247
1.16179
1.16198
1.16206
1.16154
1.16102
1.16026
1.159
1.15791
1.15764
1.15844
1.16034
1.1628
1.1651
1.16679
1.16782
1.16829
1.16839
1.16831
1.16818
1.168
1.16789
1.16792
1.16805
1.16815
1.16799
1.16765
1.1676
1.16821
1.16936
1.17073
1.17169
1.17147
1.171
1.17068
1.17013
1.17019
1.17084
1.172
1.17374
1.17584
1.17807
1.18024
1.18211
1.18363
1.18501
1.18629
1.18761
1.18897
1.19065
1.19305
1.19598
1.19858
1.20162
1.20594
1.20934
1.20911
1.20666
1.20654
1.20987
1.21494
1.22
1.22491
1.22987
1.23506
1.24063
1.24568
1.25092
1.25552
1.25598
1.2504
1.23974
1.23435
1.24339
1.25788
1.26444
1.26397
1.26541
1.2697
1.27245
1.26706
1.25613
1.26025
1.27844
1.28775
1.28846
1.29107
1.29826
1.30881
1.32472
1.32301
1.32748
1.32397
1.31638
1.31135
1.30849
1.30878
1.3084
1.31232
1.31889
1.32411
1.32709
1.32824
1.32809
1.32677
1.325
1.32248
1.31898
1.31594
1.31374
1.31344
1.31326
1.31357
1.31339
1.3163
1.31536
1.31978
1.31826
1.32247
1.32142
1.32555
1.32418
1.32923
1.33393
1.33207
1.33393
1.33402
1.33216
1.33085
1.31643
1.34065
1.35321
1.36531
1.36182
1.37131
1.39124
1.41616
1.42439
1.42556
1.42928
1.4371
1.44911
1.47657
1.52069
1.56325
1.57767
1.56426
1.5284
1.50619
1.52657
1.58751
1.66103
1.5727
1.59521
1.58828
1.55044
1.50704
1.50961
1.15597
1.18549
1.18889
1.18725
1.1866
1.1861
1.18555
1.18603
1.18684
1.18752
1.18768
1.1869
1.18487
1.18421
1.18707
1.19052
1.19033
1.18686
1.18264
1.18008
1.18026
1.18445
1.18752
1.18505
1.18196
1.18125
1.18003
1.17891
1.17872
1.17856
1.17852
1.17921
1.17989
1.1805
1.18137
1.18182
1.18207
1.18207
1.18196
1.18176
1.18168
1.18146
1.18123
1.18121
1.18148
1.18221
1.18319
1.18383
1.18348
1.18225
1.18169
1.18297
1.18622
1.18902
1.18959
1.1889
1.18956
1.18934
1.18808
1.18762
1.18774
1.18914
1.19126
1.19428
1.19812
1.20155
1.20377
1.2055
1.20686
1.20797
1.20914
1.21011
1.2113
1.21324
1.21715
1.22288
1.22743
1.229
1.2297
1.23007
1.23268
1.23718
1.23973
1.23797
1.236
1.23731
1.24258
1.24913
1.25338
1.26256
1.27604
1.27627
1.26864
1.2692
1.26964
1.26678
1.26096
1.25595
1.25904
1.26671
1.2653
1.24548
1.23156
1.25329
1.29
1.29376
1.27147
1.2668
1.28344
1.2994
1.30473
1.32472
1.35227
1.31161
1.32588
1.30664
1.29334
1.28802
1.28863
1.28662
1.28606
1.29169
1.3082
1.32638
1.3389
1.34442
1.34573
1.34941
1.35331
1.35309
1.35026
1.35381
1.363
1.36495
1.36367
1.36114
1.36909
1.37053
1.38406
1.38612
1.40148
1.40147
1.4144
1.41922
1.41581
1.44398
1.42106
1.41646
1.4058
1.39669
1.39158
1.30296
1.38909
1.41205
1.40613
1.4285
1.45665
1.50012
1.55817
1.5906
1.59814
1.59837
1.60569
1.62135
1.67543
1.75758
1.83348
1.88893
1.84904
1.72316
1.68466
1.7428
1.78996
1.72534
1.58544
1.75855
1.8159
1.75258
1.64412
1.6834
1.15002
1.17848
1.18565
1.18629
1.18657
1.1873
1.18767
1.18967
1.19304
1.19588
1.19997
1.20629
1.21021
1.20806
1.19792
1.19016
1.18856
1.18842
1.18856
1.19112
1.19307
1.19014
1.18941
1.18816
1.18641
1.18689
1.1852
1.18217
1.1793
1.17517
1.17239
1.16907
1.16701
1.16558
1.16369
1.16291
1.162
1.16113
1.16083
1.16099
1.16133
1.16196
1.16244
1.16308
1.16354
1.16418
1.16529
1.16669
1.16823
1.16908
1.16979
1.17109
1.17328
1.17433
1.17599
1.17621
1.18038
1.18782
1.19072
1.19256
1.19316
1.19279
1.19215
1.19195
1.19246
1.19324
1.19315
1.19318
1.19415
1.19541
1.20125
1.20802
1.2109
1.21446
1.21988
1.22072
1.22168
1.22502
1.22995
1.23334
1.2329
1.23171
1.23424
1.23995
1.24436
1.24422
1.24641
1.25446
1.25579
1.25657
1.26178
1.26444
1.26944
1.27521
1.27264
1.26207
1.25403
1.25785
1.26629
1.27151
1.27047
1.26166
1.25603
1.26678
1.27058
1.25034
1.24078
1.26388
1.28805
1.28251
1.27037
1.29674
1.34915
1.26467
1.29222
1.29407
1.29302
1.29617
1.3046
1.30845
1.31094
1.29264
1.28382
1.29454
1.31229
1.31915
1.31449
1.30738
1.30744
1.32344
1.33563
1.33812
1.33786
1.34284
1.35073
1.36557
1.37123
1.37077
1.37986
1.37945
1.396
1.39969
1.41661
1.46003
1.41938
1.49783
1.4575
1.4235
1.35597
1.35033
1.33723
1.33803
1.39104
1.35731
1.30822
1.38132
1.46376
1.53271
1.56185
1.59656
1.64502
1.67684
1.69733
1.72248
1.76882
1.79581
1.8006
1.89734
1.92256
1.80511
1.78615
1.83514
1.75997
1.59997
1.49697
1.67297
1.8044
1.753
1.704
1.79577
1.1462
1.17281
1.18155
1.18412
1.18644
1.18849
1.18992
1.19318
1.19913
1.20242
1.19826
1.1933
1.19228
1.18945
1.18568
1.18213
1.18318
1.19152
1.19762
1.19082
1.18757
1.18642
1.18368
1.18218
1.18095
1.17739
1.17311
1.16759
1.16208
1.15814
1.15484
1.1527
1.15215
1.15211
1.15239
1.15335
1.15413
1.15449
1.15517
1.15507
1.15475
1.15481
1.15402
1.153
1.15247
1.15129
1.15031
1.14928
1.14812
1.14748
1.14798
1.14972
1.15183
1.15219
1.15394
1.15526
1.15873
1.16563
1.17145
1.17663
1.18098
1.18361
1.18485
1.18744
1.19167
1.19129
1.18408
1.17616
1.17331
1.17488
1.1843
1.19608
1.20089
1.20268
1.21157
1.21465
1.2109
1.21872
1.22408
1.22113
1.22711
1.23299
1.2302
1.23191
1.23938
1.24137
1.2434
1.25259
1.26013
1.26114
1.26106
1.26291
1.26612
1.26549
1.25767
1.25328
1.26393
1.27565
1.27518
1.27499
1.27398
1.26382
1.25952
1.26924
1.27361
1.26893
1.26438
1.26696
1.261
1.23386
1.23341
1.2572
1.27365
1.2683
1.26855
1.27539
1.28925
1.30005
1.30995
1.30614
1.32643
1.33106
1.31336
1.29488
1.29774
1.29383
1.30986
1.31403
1.28891
1.28817
1.29136
1.30896
1.3134
1.32719
1.33122
1.34361
1.35356
1.36808
1.35879
1.36467
1.37572
1.37448
1.35408
1.45989
1.36018
1.46799
1.49543
1.4349
1.29016
1.26318
1.29723
1.4267
1.37606
1.34968
1.33511
1.37081
1.47432
1.55267
1.53364
1.53212
1.58568
1.66309
1.72329
1.76913
1.79779
1.76465
1.67915
1.77887
1.89963
1.86653
1.87491
1.89979
1.78467
1.7913
1.56105
1.59176
1.76532
1.75605
1.7722
1.82421
1.14298
1.16682
1.17725
1.18167
1.18578
1.18973
1.19262
1.19528
1.19774
1.18877
1.18088
1.17961
1.18017
1.18136
1.18586
1.19472
1.20172
1.19844
1.18991
1.1836
1.18148
1.17794
1.17351
1.1703
1.16473
1.16114
1.1573
1.15446
1.15311
1.15266
1.15346
1.15475
1.15706
1.15978
1.16163
1.16384
1.16504
1.16592
1.16593
1.16557
1.16451
1.16403
1.16382
1.16174
1.16079
1.1598
1.1585
1.15797
1.15653
1.15532
1.15398
1.15126
1.14788
1.14484
1.14474
1.14461
1.14557
1.14891
1.15605
1.16406
1.17086
1.17093
1.16874
1.1706
1.17334
1.16824
1.157
1.14878
1.1516
1.16448
1.1822
1.19746
1.20733
1.21288
1.21622
1.21607
1.21898
1.2273
1.22951
1.22926
1.23514
1.23434
1.22982
1.23197
1.23491
1.2338
1.24039
1.25065
1.25674
1.2625
1.26357
1.26305
1.26084
1.25193
1.24586
1.25244
1.26019
1.25532
1.25716
1.27201
1.27648
1.2732
1.2748
1.27606
1.27067
1.26446
1.26167
1.26551
1.26187
1.23665
1.23547
1.23086
1.224
1.27108
1.27993
1.27428
1.28964
1.30267
1.31246
1.30696
1.30506
1.31125
1.31647
1.29081
1.30357
1.2808
1.26509
1.2968
1.28051
1.27235
1.26114
1.28494
1.29639
1.30426
1.30195
1.32281
1.30251
1.3323
1.35563
1.33464
1.33354
1.36469
1.30469
1.43757
1.31564
1.37812
1.47144
1.46855
1.31509
1.21272
1.17125
1.27324
1.37307
1.43728
1.44165
1.4136
1.49744
1.56201
1.53556
1.51743
1.51065
1.56671
1.66134
1.75325
1.80261
1.76048
1.58809
1.64493
1.84362
1.8843
1.92814
1.97924
1.86116
1.92617
1.65412
1.56176
1.7068
1.74943
1.79976
1.87118
1.14072
1.16201
1.17491
1.18242
1.185
1.1897
1.19123
1.18199
1.17793
1.17824
1.17611
1.17827
1.18103
1.19077
1.20072
1.19957
1.18756
1.17782
1.16854
1.16468
1.16159
1.15724
1.15572
1.15592
1.15538
1.15651
1.15541
1.15522
1.15566
1.15719
1.15819
1.15996
1.16456
1.1674
1.16871
1.16969
1.16953
1.17001
1.17028
1.16987
1.16919
1.16886
1.16922
1.16854
1.16718
1.16596
1.16429
1.16297
1.16175
1.16116
1.16165
1.16079
1.1585
1.15661
1.15442
1.15157
1.15054
1.14713
1.14645
1.14876
1.15471
1.15611
1.15389
1.15469
1.15826
1.15758
1.15217
1.1473
1.14875
1.16011
1.176
1.19117
1.20241
1.21068
1.21433
1.21188
1.21903
1.22839
1.22622
1.22772
1.23421
1.23153
1.23475
1.24033
1.23738
1.23639
1.24198
1.24884
1.25418
1.25812
1.25885
1.25445
1.24534
1.23649
1.2351
1.23984
1.24063
1.24059
1.24751
1.25111
1.25259
1.26169
1.26522
1.25856
1.25434
1.25337
1.25352
1.26224
1.27373
1.26337
1.26241
1.24532
1.24026
1.24889
1.28511
1.28207
1.30212
1.29935
1.33197
1.34372
1.34996
1.31226
1.31946
1.29874
1.29172
1.31089
1.28848
1.30243
1.31246
1.30103
1.25489
1.25667
1.26192
1.28658
1.27334
1.31307
1.29461
1.28192
1.3207
1.32633
1.29353
1.32429
1.25667
1.40616
1.30843
1.26931
1.40085
1.49977
1.35811
1.25868
1.21137
1.25179
1.32772
1.4408
1.43659
1.39606
1.46707
1.51619
1.51236
1.53575
1.50777
1.49305
1.5421
1.64685
1.75929
1.78653
1.55766
1.51493
1.7661
1.88366
1.94974
1.95519
1.7184
1.81072
1.58988
1.60646
1.62127
1.7237
1.80973
1.82114
1.14014
1.16137
1.17688
1.1843
1.18406
1.18347
1.17465
1.1698
1.1789
1.18626
1.18767
1.19259
1.19622
1.19601
1.18735
1.17822
1.16568
1.16166
1.16133
1.1608
1.16167
1.16218
1.16373
1.16355
1.16162
1.16168
1.15954
1.15897
1.15958
1.15947
1.16128
1.16371
1.16556
1.16628
1.16599
1.16562
1.16427
1.16457
1.16477
1.16398
1.16404
1.16357
1.16458
1.16468
1.16478
1.16416
1.16321
1.1616
1.15989
1.15801
1.1569
1.15576
1.15517
1.15426
1.15271
1.15119
1.15137
1.15015
1.14854
1.14636
1.14682
1.14783
1.14873
1.14838
1.14868
1.15246
1.15737
1.15747
1.15103
1.15038
1.15926
1.17365
1.18142
1.18399
1.18952
1.19375
1.20176
1.20668
1.20146
1.20949
1.22577
1.22593
1.22599
1.22933
1.22802
1.23093
1.23906
1.24168
1.24503
1.24884
1.24448
1.235
1.22412
1.21489
1.21373
1.22101
1.23087
1.24021
1.24317
1.23574
1.23047
1.23326
1.23406
1.23669
1.24292
1.24674
1.24469
1.24399
1.24947
1.24072
1.24002
1.23499
1.21279
1.22252
1.26036
1.27466
1.28915
1.2848
1.3067
1.29672
1.34217
1.3181
1.31358
1.33476
1.31534
1.32355
1.3321
1.30341
1.28518
1.3356
1.28879
1.25548
1.24706
1.26302
1.23229
1.29268
1.2991
1.2668
1.28601
1.30009
1.26209
1.31079
1.21121
1.31077
1.35041
1.21259
1.26126
1.46022
1.39764
1.30746
1.30442
1.34205
1.38532
1.40151
1.4045
1.36623
1.36148
1.39427
1.4146
1.49091
1.51732
1.51483
1.48785
1.51413
1.65538
1.75329
1.54135
1.40387
1.65123
1.86553
1.98878
1.89324
1.5966
1.76795
1.53637
1.57087
1.57373
1.71246
1.83161
1.71654
1.14132
1.16617
1.18222
1.18059
1.17457
1.16935
1.17228
1.18687
1.19066
1.18862
1.19228
1.19528
1.19336
1.19136
1.17831
1.16909
1.16233
1.16008
1.15983
1.15823
1.15924
1.15999
1.1607
1.15855
1.15603
1.15479
1.15424
1.15422
1.15479
1.15652
1.15947
1.1621
1.16368
1.16528
1.16451
1.16458
1.1647
1.16505
1.16564
1.16475
1.16386
1.16304
1.16326
1.16356
1.16367
1.1638
1.16372
1.16297
1.1626
1.16222
1.16052
1.15848
1.1569
1.15301
1.15006
1.14763
1.14521
1.14551
1.1456
1.14471
1.14241
1.14041
1.14453
1.14838
1.14458
1.1424
1.15088
1.15848
1.15049
1.13903
1.13738
1.14509
1.15517
1.16366
1.17534
1.18515
1.19201
1.19834
1.19976
1.21045
1.21764
1.20758
1.20765
1.21623
1.22
1.22649
1.23406
1.23478
1.23573
1.23649
1.23107
1.22276
1.21257
1.2066
1.21317
1.22944
1.24334
1.25081
1.25144
1.24707
1.24216
1.2389
1.23505
1.23235
1.22968
1.23326
1.22739
1.2198
1.23267
1.24158
1.25227
1.24696
1.20741
1.21631
1.24166
1.26593
1.25845
1.27244
1.2898
1.28478
1.31388
1.35372
1.32757
1.32149
1.30274
1.32494
1.32729
1.28915
1.25137
1.30577
1.31557
1.25038
1.23456
1.27143
1.20646
1.21904
1.2859
1.26178
1.25204
1.29053
1.26154
1.28216
1.22947
1.23274
1.35846
1.22898
1.1806
1.36566
1.37657
1.34758
1.3869
1.32921
1.39382
1.34644
1.30382
1.38491
1.27957
1.22552
1.23283
1.36276
1.46595
1.54155
1.55501
1.45959
1.53719
1.68073
1.52398
1.32531
1.52418
1.80964
2.03626
1.95176
1.82921
1.94627
1.68844
1.52561
1.59721
1.72739
1.80597
1.62297
1.14152
1.16748
1.18123
1.17789
1.17416
1.17443
1.18507
1.19605
1.19492
1.19359
1.19151
1.18334
1.17928
1.17262
1.15905
1.15606
1.15772
1.15688
1.15755
1.15189
1.15153
1.15048
1.15153
1.15342
1.15298
1.15474
1.1564
1.15613
1.15786
1.15975
1.16032
1.1625
1.16475
1.16599
1.1649
1.16334
1.16206
1.16189
1.16377
1.16406
1.16223
1.16039
1.16025
1.16104
1.16182
1.16317
1.16325
1.1637
1.16416
1.16384
1.16293
1.16329
1.16192
1.16019
1.15798
1.15414
1.15006
1.14647
1.14428
1.14195
1.13983
1.1368
1.13652
1.1394
1.13519
1.12708
1.13004
1.14114
1.14303
1.13385
1.12965
1.13434
1.14359
1.15698
1.17625
1.19321
1.20088
1.2052
1.2085
1.21408
1.21022
1.20452
1.21472
1.21946
1.21647
1.22342
1.22989
1.22675
1.22628
1.22741
1.22299
1.21518
1.20459
1.20006
1.20981
1.22542
1.23282
1.23003
1.22475
1.21838
1.21022
1.20705
1.20735
1.20516
1.19829
1.20556
1.20434
1.19566
1.20746
1.20465
1.22758
1.2408
1.20774
1.20412
1.21885
1.23644
1.23708
1.23871
1.25729
1.29007
1.29442
1.33807
1.33838
1.34411
1.30921
1.3336
1.32063
1.25283
1.25177
1.29153
1.28158
1.26424
1.21302
1.29538
1.22588
1.19843
1.23591
1.25218
1.23393
1.24574
1.27141
1.27172
1.21782
1.20226
1.36374
1.1974
1.12439
1.28029
1.30804
1.32843
1.42256
1.33883
1.40428
1.34414
1.18424
1.32176
1.33531
1.24887
1.16099
1.22517
1.36712
1.48436
1.61864
1.54132
1.47594
1.59939
1.54534
1.27226
1.41532
1.74824
2.06594
1.9847
1.99391
1.78575
1.6025
1.48763
1.61734
1.70144
1.71588
1.60734
1.14015
1.16434
1.17658
1.17329
1.17229
1.17758
1.18974
1.19236
1.19348
1.1917
1.19205
1.18205
1.17266
1.16488
1.15859
1.1581
1.16147
1.15727
1.15896
1.15753
1.15736
1.15742
1.15446
1.15487
1.15532
1.15561
1.15789
1.15809
1.15761
1.1584
1.1594
1.15991
1.15981
1.15864
1.15691
1.15614
1.15777
1.1607
1.16311
1.16326
1.16151
1.15843
1.15629
1.15517
1.15425
1.15516
1.15577
1.15572
1.15671
1.15583
1.15484
1.15582
1.1541
1.15368
1.15512
1.15347
1.15126
1.1464
1.1451
1.14313
1.14053
1.13909
1.13507
1.1349
1.13849
1.13381
1.1269
1.13121
1.13837
1.13539
1.12952
1.12953
1.13527
1.15119
1.17121
1.18586
1.19096
1.19352
1.19535
1.1996
1.20483
1.21288
1.22034
1.21374
1.20974
1.21819
1.22315
1.21912
1.21632
1.21528
1.20881
1.20017
1.19385
1.19455
1.20497
1.22023
1.22585
1.21853
1.20955
1.19979
1.19173
1.19577
1.20368
1.20864
1.20455
1.21248
1.21371
1.20721
1.19852
1.17871
1.20028
1.22794
1.20421
1.19945
1.21402
1.20894
1.22209
1.23909
1.24682
1.26658
1.31676
1.33342
1.32669
1.35349
1.32508
1.3264
1.31472
1.24577
1.23804
1.3055
1.23711
1.30076
1.20981
1.30887
1.20485
1.2321
1.21228
1.21216
1.253
1.19997
1.22691
1.27088
1.20923
1.13607
1.33287
1.19874
1.112
1.20635
1.23336
1.27698
1.4027
1.37194
1.42192
1.35146
1.18092
1.2211
1.31142
1.35194
1.2563
1.195
1.28308
1.38691
1.57845
1.62262
1.48274
1.53244
1.5806
1.26169
1.33628
1.68384
2.05944
1.91019
1.97497
1.64245
1.6031
1.44215
1.57643
1.6555
1.67562
1.62148
1.13894
1.16204
1.17436
1.1707
1.16943
1.17238
1.19373
1.19545
1.1872
1.18283
1.1791
1.17327
1.16393
1.15561
1.15338
1.15467
1.15482
1.14902
1.14794
1.15131
1.15421
1.15638
1.15658
1.15685
1.15853
1.15807
1.15672
1.15506
1.15605
1.15905
1.16027
1.15923
1.15604
1.15335
1.15456
1.15639
1.15906
1.16084
1.16047
1.15807
1.1561
1.15519
1.15458
1.15299
1.15139
1.15186
1.15354
1.15487
1.15664
1.15726
1.15824
1.15652
1.15568
1.15213
1.14854
1.14805
1.148
1.14496
1.14153
1.14019
1.13526
1.13105
1.12918
1.12701
1.13411
1.13922
1.13022
1.12536
1.1309
1.13291
1.12712
1.12258
1.12551
1.1415
1.16249
1.17931
1.18413
1.18706
1.18832
1.19258
1.19899
1.20289
1.20409
1.2028
1.20681
1.21393
1.2143
1.20789
1.20322
1.20101
1.19525
1.18662
1.18164
1.18734
1.20218
1.21719
1.2145
1.19934
1.18919
1.18469
1.18727
1.1956
1.19481
1.19541
1.19202
1.20072
1.20374
1.21252
1.19757
1.16803
1.17766
1.21112
1.20471
1.18994
1.21149
1.20567
1.19598
1.21921
1.24714
1.25639
1.3081
1.35755
1.32758
1.34922
1.31092
1.28799
1.29026
1.26114
1.22686
1.2777
1.19213
1.28826
1.22437
1.30251
1.18037
1.2503
1.20331
1.17287
1.25726
1.19241
1.18588
1.23584
1.2414
1.11109
1.27118
1.20299
1.16313
1.20675
1.1979
1.25788
1.37463
1.37043
1.41838
1.30473
1.19401
1.21449
1.22733
1.26011
1.27247
1.21633
1.24664
1.28108
1.49116
1.62656
1.48306
1.47905
1.592
1.28164
1.29234
1.63807
2.00824
1.76302
1.87636
1.7174
1.67202
1.52074
1.52481
1.65095
1.67493
1.60656
1.13714
1.15733
1.1716
1.17019
1.17093
1.17103
1.18668
1.19693
1.19065
1.18511
1.17433
1.16522
1.15965
1.15505
1.15431
1.15456
1.15333
1.14816
1.14532
1.14639
1.14848
1.152
1.15518
1.15513
1.1541
1.15159
1.15226
1.15694
1.16285
1.16843
1.17055
1.16843
1.16459
1.16206
1.16118
1.15945
1.15721
1.15293
1.14882
1.14567
1.14529
1.14602
1.1463
1.1447
1.14247
1.14025
1.14029
1.14256
1.14545
1.14705
1.15092
1.15065
1.15193
1.1516
1.14883
1.14591
1.14422
1.14395
1.14135
1.14044
1.13883
1.13017
1.12726
1.12367
1.11776
1.12138
1.11961
1.11438
1.12275
1.1291
1.12301
1.1141
1.11793
1.1368
1.16166
1.17948
1.18312
1.18348
1.18179
1.18347
1.18698
1.18746
1.19091
1.19844
1.20535
1.20748
1.20412
1.19668
1.19007
1.18701
1.18365
1.17838
1.18029
1.19027
1.20084
1.20341
1.19731
1.18731
1.18449
1.18533
1.186
1.18403
1.1725
1.18049
1.18145
1.17917
1.1702
1.18709
1.19756
1.16208
1.16261
1.18708
1.17708
1.18634
1.1888
1.18756
1.19508
1.2046
1.23656
1.27337
1.29747
1.34442
1.30384
1.30494
1.26673
1.23906
1.24696
1.26051
1.23757
1.27713
1.19075
1.262
1.22888
1.29167
1.19156
1.25103
1.20443
1.15989
1.23042
1.20745
1.17429
1.20215
1.26147
1.11737
1.2672
1.17498
1.17381
1.23355
1.19736
1.24617
1.31085
1.32915
1.36733
1.26489
1.19824
1.21631
1.22472
1.19565
1.24617
1.23463
1.239
1.20765
1.37627
1.5873
1.47722
1.41959
1.58177
1.32167
1.2578
1.59981
1.89728
1.69079
1.78457
1.63017
1.52996
1.53379
1.47483
1.63234
1.66188
1.59013
1.13623
1.1546
1.16958
1.16818
1.16622
1.17037
1.18613
1.19575
1.18679
1.18099
1.17716
1.16805
1.15961
1.15526
1.15667
1.15785
1.15506
1.15166
1.14932
1.15226
1.15363
1.15387
1.15561
1.1562
1.15749
1.15909
1.16054
1.16295
1.16485
1.16729
1.16506
1.1577
1.15182
1.14925
1.14767
1.14538
1.14341
1.14146
1.14145
1.14243
1.14435
1.14527
1.14579
1.14504
1.14345
1.14188
1.13916
1.13818
1.13986
1.14132
1.14446
1.14778
1.14995
1.14953
1.14656
1.14318
1.13897
1.13509
1.13318
1.12996
1.13298
1.13142
1.12613
1.13029
1.12347
1.11602
1.11624
1.11051
1.11323
1.12177
1.12026
1.11234
1.11532
1.13254
1.15689
1.17081
1.17516
1.17546
1.17634
1.17561
1.17875
1.18052
1.18702
1.19669
1.20083
1.19863
1.19299
1.18488
1.17724
1.17817
1.17849
1.17541
1.17884
1.18726
1.19236
1.19398
1.19003
1.17874
1.17065
1.16755
1.16454
1.16662
1.16578
1.19195
1.20287
1.18773
1.14968
1.15765
1.17958
1.16095
1.14173
1.16974
1.17937
1.18811
1.18809
1.17035
1.1781
1.20223
1.23023
1.26789
1.29701
1.32041
1.29437
1.27911
1.23569
1.21576
1.21175
1.21709
1.19415
1.25377
1.18045
1.23328
1.20245
1.2795
1.2164
1.24023
1.22312
1.16891
1.19737
1.22011
1.16708
1.18097
1.26033
1.11461
1.27573
1.17005
1.15924
1.21855
1.2033
1.19329
1.18396
1.25209
1.28629
1.22235
1.20241
1.20745
1.20835
1.19334
1.24434
1.2696
1.26465
1.23272
1.32609
1.54538
1.47118
1.37106
1.54917
1.38402
1.23471
1.57073
1.77106
1.69978
1.76727
1.62639
1.5329
1.53911
1.51125
1.56983
1.61635
1.55195
1.13572
1.15361
1.17113
1.17296
1.16197
1.16023
1.17538
1.19528
1.1941
1.18252
1.1719
1.16684
1.16005
1.15571
1.15521
1.15939
1.15673
1.15275
1.14608
1.14385
1.1453
1.145
1.14629
1.14659
1.1467
1.15006
1.15265
1.15484
1.15429
1.15348
1.15311
1.15025
1.14794
1.14609
1.1445
1.14346
1.1428
1.14209
1.1425
1.14196
1.14197
1.14222
1.14132
1.14131
1.13922
1.13848
1.1388
1.13863
1.13769
1.1363
1.13516
1.13849
1.14166
1.14767
1.1473
1.14439
1.14207
1.1379
1.1357
1.13094
1.12368
1.12474
1.116
1.1162
1.12445
1.11871
1.11676
1.11196
1.10876
1.11663
1.11812
1.10843
1.10318
1.11822
1.14722
1.1656
1.17416
1.17318
1.17492
1.17354
1.17554
1.17997
1.18617
1.19073
1.1906
1.18781
1.18265
1.17327
1.16441
1.16269
1.16383
1.16691
1.17486
1.18485
1.18756
1.18315
1.17957
1.17056
1.16529
1.16652
1.16293
1.16713
1.17127
1.19482
1.20303
1.18785
1.1388
1.13739
1.16291
1.16046
1.14263
1.14935
1.16289
1.16273
1.1721
1.16507
1.16786
1.19124
1.23007
1.26632
1.30156
1.30697
1.28596
1.24992
1.2145
1.19199
1.19694
1.20233
1.17305
1.22705
1.16404
1.20403
1.15994
1.24985
1.22709
1.22445
1.23491
1.18888
1.17426
1.21486
1.17235
1.16987
1.22891
1.11355
1.25811
1.17364
1.14613
1.18648
1.22096
1.14988
1.11119
1.19064
1.21752
1.18885
1.19228
1.19692
1.19687
1.19698
1.23028
1.2724
1.33052
1.3465
1.38712
1.53314
1.46389
1.3339
1.50412
1.44855
1.2291
1.54651
1.66068
1.70239
1.73642
1.65978
1.54376
1.5224
1.59959
1.52185
1.5233
1.50553
1.13471
1.15106
1.17058
1.18202
1.1734
1.15925
1.15727
1.17542
1.18906
1.1896
1.17988
1.16863
1.16114
1.15543
1.15244
1.15755
1.16028
1.16098
1.15912
1.15268
1.14876
1.14593
1.1459
1.14703
1.14687
1.14881
1.15054
1.15224
1.15271
1.15219
1.15185
1.15093
1.14956
1.14743
1.14498
1.14304
1.14254
1.14195
1.14279
1.14243
1.13992
1.14002
1.1399
1.13899
1.13728
1.13479
1.13792
1.14146
1.14289
1.14085
1.13496
1.13442
1.13536
1.13825
1.14127
1.1402
1.1378
1.13271
1.12681
1.12904
1.12428
1.12167
1.12306
1.11149
1.11262
1.10907
1.10524
1.10915
1.10637
1.10795
1.11011
1.10467
1.09831
1.10902
1.1341
1.15669
1.16761
1.17046
1.17169
1.17267
1.17335
1.17847
1.18343
1.18313
1.18011
1.17755
1.17337
1.16521
1.15741
1.15577
1.15201
1.14843
1.15493
1.16974
1.17665
1.18055
1.17937
1.16544
1.15434
1.15772
1.15857
1.15831
1.15559
1.16184
1.16822
1.17511
1.14593
1.13684
1.16795
1.15338
1.12213
1.13584
1.14957
1.16435
1.1648
1.14766
1.16379
1.18047
1.21983
1.26418
1.3022
1.30097
1.26544
1.22793
1.2096
1.18605
1.18068
1.17531
1.14274
1.18483
1.15752
1.18364
1.13548
1.214
1.21812
1.20365
1.22542
1.20133
1.16036
1.18977
1.17899
1.15978
1.17936
1.11603
1.21378
1.17091
1.13169
1.15743
1.21734
1.13794
1.11924
1.16691
1.1775
1.17698
1.18741
1.18703
1.19869
1.20622
1.23547
1.26569
1.38544
1.40558
1.42199
1.48814
1.44077
1.3068
1.46972
1.48864
1.24082
1.52132
1.58354
1.69912
1.70621
1.60147
1.50087
1.50447
1.61011
1.54513
1.48632
1.49844
1.13323
1.14675
1.16791
1.18534
1.18254
1.16991
1.15708
1.15962
1.17451
1.18147
1.18442
1.17562
1.16741
1.15898
1.15162
1.14979
1.15307
1.15532
1.15898
1.15946
1.15757
1.15549
1.15338
1.15264
1.15171
1.15082
1.15039
1.15018
1.15
1.15021
1.1497
1.14834
1.14544
1.14403
1.14263
1.14038
1.14126
1.14147
1.13937
1.13978
1.13822
1.13715
1.13824
1.13483
1.13151
1.12633
1.12569
1.12996
1.13481
1.13924
1.13936
1.13674
1.13797
1.13866
1.14144
1.13954
1.13785
1.13747
1.12984
1.12042
1.12093
1.11112
1.11415
1.11451
1.10885
1.10797
1.10059
1.10407
1.10345
1.10091
1.10538
1.10413
1.09539
1.09966
1.12269
1.14774
1.16153
1.1677
1.16833
1.17052
1.17199
1.17333
1.17451
1.17225
1.16954
1.1701
1.16664
1.15779
1.15098
1.1543
1.15266
1.14531
1.14686
1.15773
1.16427
1.16762
1.16983
1.16815
1.15606
1.15242
1.15603
1.15608
1.15353
1.14955
1.1539
1.16485
1.13905
1.12
1.12831
1.14578
1.124
1.12275
1.13428
1.15145
1.16222
1.14854
1.1449
1.17653
1.21429
1.26145
1.28126
1.27287
1.22831
1.19334
1.17517
1.16785
1.16675
1.16521
1.14373
1.17707
1.16246
1.17235
1.13727
1.19894
1.20735
1.18324
1.21123
1.20498
1.15485
1.16674
1.17749
1.14994
1.148
1.12592
1.16612
1.1606
1.12987
1.15091
1.19462
1.13672
1.14917
1.16116
1.16287
1.17124
1.17993
1.1869
1.19812
1.20596
1.23565
1.26722
1.38391
1.36102
1.33413
1.39052
1.40258
1.32778
1.47591
1.48753
1.26355
1.49154
1.53144
1.70278
1.65803
1.56906
1.51244
1.52762
1.58684
1.54497
1.47323
1.45637
1.13145
1.1408
1.15913
1.18304
1.18758
1.17804
1.16465
1.15382
1.16113
1.16843
1.17747
1.17913
1.17586
1.16959
1.16301
1.15514
1.15166
1.15008
1.15056
1.15188
1.15252
1.15235
1.1513
1.15157
1.15044
1.14964
1.14955
1.14745
1.14669
1.14633
1.14418
1.14329
1.14291
1.14109
1.14009
1.13908
1.13752
1.13881
1.13741
1.13818
1.13752
1.13535
1.13665
1.13695
1.13707
1.13463
1.13228
1.13184
1.13092
1.13197
1.13285
1.13442
1.13918
1.13796
1.13827
1.13632
1.13145
1.12747
1.13028
1.12377
1.12085
1.11972
1.10705
1.10694
1.10404
1.1034
1.09896
1.09523
1.09866
1.09489
1.09546
1.09999
1.0952
1.0875
1.10372
1.13125
1.15106
1.16223
1.16514
1.16442
1.16884
1.17025
1.16562
1.15815
1.15526
1.15828
1.1579
1.15192
1.14577
1.14497
1.14855
1.14697
1.14497
1.15336
1.16359
1.16806
1.16465
1.16171
1.15851
1.15351
1.15573
1.15889
1.16679
1.16429
1.16933
1.17548
1.15728
1.1134
1.14053
1.15116
1.12471
1.11872
1.13471
1.14154
1.14011
1.14002
1.13327
1.16699
1.22478
1.25896
1.27271
1.24724
1.20866
1.17341
1.15079
1.14331
1.14353
1.15499
1.15998
1.18898
1.15939
1.1468
1.13509
1.18418
1.18489
1.17117
1.20247
1.19779
1.15261
1.15945
1.16664
1.14444
1.14593
1.13627
1.14174
1.14482
1.13091
1.15961
1.17129
1.12944
1.16573
1.15556
1.1584
1.16541
1.17607
1.18891
1.19496
1.20338
1.22941
1.27725
1.34446
1.31412
1.25618
1.34864
1.39321
1.37661
1.5079
1.47461
1.29009
1.46638
1.49499
1.70612
1.61552
1.53479
1.50106
1.51901
1.58149
1.48741
1.4021
1.38239
1.1308
1.13684
1.1463
1.17078
1.18034
1.17763
1.17043
1.15662
1.15342
1.15624
1.16226
1.16929
1.17267
1.17179
1.17003
1.16557
1.1607
1.15639
1.15311
1.15151
1.15106
1.15051
1.15039
1.14957
1.14936
1.14912
1.14772
1.14773
1.1473
1.14483
1.14466
1.14278
1.14078
1.13925
1.13722
1.13829
1.13763
1.1398
1.13918
1.14019
1.14223
1.14135
1.13865
1.13197
1.13217
1.13726
1.13954
1.13801
1.13221
1.13127
1.13718
1.1419
1.14618
1.14192
1.13664
1.13215
1.13072
1.12658
1.11903
1.11859
1.11033
1.11131
1.10962
1.10503
1.10587
1.09922
1.09901
1.09443
1.09336
1.09479
1.0902
1.09453
1.09815
1.08788
1.08666
1.11166
1.13744
1.15277
1.16187
1.1602
1.15965
1.16427
1.16206
1.15245
1.14583
1.14535
1.14444
1.14319
1.13745