/*--------------------------------*- C++ -*----------------------------------*\
| =========                 |                                                 |
| \\      /  F ield         | OpenFOAM: The Open Source CFD Toolbox           |
|  \\    /   O peration     | Version:  dev                                   |
|   \\  /    A nd           | Web:      http://www.openfoam.org               |
|    \\/     M anipulation  |                                                 |
\*---------------------------------------------------------------------------*/
FoamFile
{
    version     2.0;
    format      ascii;
    class       volScalarField;
    object      rho_0;
    location    "9.154";
}
// * * * * * * * * * * * * * * * * * * * * * * * * * * * * * * * * * * * * * //

dimensions      [1 -3 0 0 0 0 0];

internalField   nonuniform List<scalar> 
12225
(
1.1433
1.14083
1.14047
1.14048
1.14083
1.14058
1.1406
1.14004
1.13939
1.13858
1.13724
1.13687
1.13459
1.13367
1.13323
1.12574
1.13814
1.11214
1.14149
1.13945
1.1405
1.14115
1.14214
1.1426
1.14268
1.14303
1.14162
1.14204
1.13887
1.14136
1.13641
1.13853
1.13615
1.13266
1.14461
1.11969
1.14127
1.13958
1.14095
1.14152
1.14269
1.14331
1.14401
1.14493
1.14368
1.14543
1.14149
1.14506
1.13899
1.14257
1.1367
1.1402
1.13661
1.13173
1.14155
1.13922
1.1413
1.14117
1.14281
1.14268
1.14387
1.14416
1.14442
1.14421
1.14377
1.14361
1.1421
1.14018
1.13914
1.13531
1.1293
1.13407
1.14211
1.13877
1.14134
1.14074
1.14262
1.14192
1.14326
1.14336
1.14395
1.14321
1.14331
1.14355
1.14212
1.141
1.13913
1.13714
1.13333
1.13348
1.14261
1.13819
1.14168
1.14012
1.14309
1.14115
1.1438
1.1426
1.14393
1.14241
1.14382
1.14263
1.1422
1.14002
1.1393
1.1373
1.13679
1.1303
1.14242
1.13842
1.14182
1.14037
1.14376
1.14168
1.14431
1.14242
1.14382
1.14247
1.14396
1.14223
1.14214
1.14039
1.1396
1.13758
1.13723
1.1333
1.14232
1.13854
1.14171
1.14018
1.14359
1.14148
1.14407
1.14229
1.14439
1.14302
1.14452
1.14231
1.14284
1.14044
1.13988
1.1376
1.13752
1.13554
1.14205
1.13876
1.1419
1.1407
1.14357
1.14147
1.14373
1.14222
1.14442
1.14314
1.14434
1.14246
1.14242
1.14034
1.13966
1.13781
1.13709
1.13579
1.14251
1.13914
1.1417
1.14083
1.14331
1.14131
1.14331
1.1419
1.14399
1.14277
1.14387
1.14222
1.14174
1.13989
1.1391
1.13744
1.13606
1.13474
1.14235
1.13949
1.14155
1.14105
1.14252
1.14115
1.14247
1.14204
1.14346
1.14256
1.14246
1.14124
1.14042
1.13917
1.13797
1.13693
1.13526
1.13398
1.14235
1.1393
1.14114
1.14088
1.14196
1.14131
1.14187
1.14151
1.14229
1.14181
1.14142
1.14051
1.13939
1.13817
1.13661
1.13585
1.13438
1.13327
1.14277
1.13982
1.14087
1.14091
1.14131
1.14108
1.14123
1.14085
1.14096
1.14046
1.14003
1.13922
1.13807
1.13698
1.13547
1.13438
1.133
1.13187
1.14348
1.14023
1.14072
1.14097
1.14078
1.14055
1.14051
1.14024
1.14004
1.13949
1.13874
1.13785
1.13671
1.13561
1.13429
1.13302
1.13184
1.13054
1.14368
1.14026
1.14074
1.14052
1.14035
1.13999
1.13958
1.13925
1.13877
1.13821
1.13739
1.13639
1.13518
1.1339
1.1327
1.13136
1.12999
1.12879
1.14416
1.14048
1.14078
1.14049
1.13998
1.13945
1.13895
1.13841
1.13776
1.13695
1.13599
1.13494
1.1338
1.13246
1.13117
1.12978
1.12855
1.12722
1.14514
1.14086
1.14081
1.14044
1.13981
1.13904
1.1384
1.13761
1.13684
1.13604
1.13503
1.13402
1.13276
1.13146
1.13017
1.12881
1.12762
1.1263
1.14619
1.14102
1.14102
1.14085
1.14013
1.13935
1.1386
1.13773
1.13701
1.13617
1.13526
1.13424
1.13294
1.13168
1.13043
1.12918
1.12805
1.12689
1.14686
1.14139
1.14155
1.14135
1.14065
1.14001
1.13924
1.13855
1.13794
1.13718
1.13647
1.13547
1.13443
1.13316
1.13212
1.13102
1.12996
1.12906
1.14753
1.14157
1.14221
1.14206
1.14152
1.14096
1.13996
1.13954
1.13904
1.13846
1.13804
1.13702
1.13634
1.13513
1.13428
1.13331
1.1323
1.13149
1.14837
1.14192
1.14265
1.14244
1.14207
1.14181
1.14086
1.14091
1.14059
1.14012
1.1399
1.13882
1.13839
1.13731
1.13658
1.13577
1.13466
1.13396
1.14833
1.14225
1.14302
1.14289
1.14258
1.1428
1.14206
1.14211
1.14186
1.14138
1.1414
1.14058
1.14034
1.1395
1.13874
1.13805
1.13692
1.13632
1.14873
1.1427
1.14331
1.14331
1.14328
1.14343
1.14312
1.14315
1.14283
1.14262
1.14252
1.14202
1.14179
1.14106
1.14049
1.13973
1.13887
1.13817
1.14892
1.14295
1.14346
1.14359
1.14372
1.14356
1.14363
1.14371
1.14363
1.14369
1.14343
1.14323
1.14289
1.14238
1.14195
1.1412
1.14058
1.13973
1.14923
1.14309
1.14351
1.14382
1.14389
1.14393
1.14407
1.14412
1.14426
1.14427
1.14419
1.14404
1.14371
1.14334
1.14282
1.14225
1.1416
1.14088
1.14914
1.14315
1.14372
1.14401
1.14407
1.1442
1.14428
1.14439
1.14452
1.14455
1.14459
1.14445
1.14427
1.14392
1.14349
1.14296
1.14229
1.14166
1.14943
1.14325
1.14376
1.14404
1.14423
1.1444
1.1446
1.14476
1.14489
1.14498
1.14499
1.1449
1.14469
1.14436
1.14388
1.1433
1.14265
1.14194
1.14939
1.14341
1.14397
1.14419
1.14434
1.14456
1.1449
1.14519
1.14544
1.14553
1.14548
1.14524
1.14487
1.14433
1.14374
1.14307
1.14242
1.14181
1.14986
1.14355
1.14399
1.14423
1.14441
1.1447
1.14501
1.14521
1.14521
1.14496
1.14452
1.14398
1.14345
1.14288
1.14244
1.14197
1.14168
1.14127
1.15208
1.14601
1.14551
1.14502
1.1447
1.14444
1.14412
1.14371
1.14319
1.1426
1.14196
1.14132
1.1407
1.14006
1.13946
1.13886
1.13828
1.13779
1.14347
1.16565
1.16886
1.1681
1.16715
1.1661
1.16513
1.16428
1.1636
1.16295
1.16218
1.16136
1.16057
1.16011
1.15982
1.15905
1.15762
1.15621
1.1554
1.15509
1.15491
1.15454
1.15378
1.15332
1.15374
1.15417
1.154
1.15381
1.15342
1.1525
1.15162
1.15144
1.15228
1.15425
1.1569
1.15951
1.16155
1.16294
1.16371
1.16405
1.16417
1.16418
1.16412
1.16409
1.16417
1.16435
1.16451
1.1644
1.16405
1.16388
1.16435
1.16537
1.16667
1.16764
1.16743
1.16685
1.1664
1.16569
1.16553
1.16597
1.16692
1.16846
1.17038
1.17246
1.17451
1.17627
1.17769
1.17896
1.18014
1.18137
1.18264
1.18424
1.18656
1.18947
1.19205
1.19503
1.19936
1.20298
1.20304
1.2007
1.20054
1.20389
1.20914
1.2145
1.21976
1.22507
1.23064
1.23663
1.24218
1.24793
1.25307
1.25415
1.24916
1.23906
1.23436
1.24405
1.25922
1.26666
1.26699
1.26904
1.27402
1.2777
1.27345
1.26289
1.2664
1.28529
1.29616
1.29756
1.30046
1.30798
1.31892
1.33525
1.33398
1.33856
1.33496
1.32717
1.32206
1.31924
1.3196
1.31949
1.32384
1.33085
1.33664
1.34047
1.34273
1.34393
1.34419
1.34419
1.34385
1.34265
1.34209
1.34256
1.34523
1.34812
1.35165
1.35462
1.36116
1.36363
1.37194
1.37395
1.38204
1.38431
1.39212
1.394
1.40188
1.41082
1.41128
1.41572
1.41832
1.41864
1.42035
1.40326
1.43223
1.44921
1.46432
1.46348
1.4758
1.49966
1.52983
1.54178
1.54551
1.55149
1.56189
1.57658
1.60848
1.65826
1.7055
1.72174
1.70479
1.66174
1.63711
1.65901
1.71994
1.7828
1.67877
1.70243
1.68718
1.63852
1.58793
1.58868
1.14397
1.17316
1.17659
1.17501
1.1744
1.17397
1.17348
1.17401
1.17489
1.17569
1.17601
1.17543
1.17357
1.17292
1.17581
1.17957
1.17992
1.17693
1.17296
1.17043
1.17044
1.17467
1.17845
1.17677
1.17389
1.17337
1.17252
1.17162
1.17164
1.17176
1.17192
1.17281
1.17377
1.17463
1.17578
1.17656
1.17712
1.17741
1.17754
1.17755
1.17765
1.1776
1.17749
1.17753
1.17781
1.17853
1.17956
1.18035
1.18018
1.17895
1.17813
1.17903
1.18208
1.18501
1.18573
1.18493
1.1854
1.18509
1.18368
1.18298
1.18285
1.18401
1.18592
1.18874
1.19244
1.19583
1.19804
1.19972
1.20102
1.20205
1.20311
1.20397
1.20509
1.20694
1.21074
1.21649
1.22117
1.22287
1.2237
1.22415
1.22683
1.23156
1.23448
1.23302
1.2313
1.23288
1.23845
1.24539
1.25016
1.25997
1.27403
1.27474
1.26772
1.26912
1.27052
1.26856
1.2634
1.25874
1.2621
1.27073
1.2714
1.25296
1.23728
1.25691
1.29555
1.30321
1.28158
1.27558
1.29205
1.30907
1.315
1.33504
1.36368
1.3229
1.33664
1.31687
1.30356
1.29834
1.29907
1.2971
1.29694
1.30342
1.3208
1.33975
1.35321
1.35984
1.36254
1.36791
1.37388
1.37629
1.37632
1.3826
1.39487
1.40008
1.40241
1.40353
1.41515
1.41994
1.43757
1.44316
1.46318
1.46693
1.48404
1.49558
1.49196
1.52914
1.50777
1.50358
1.49117
1.48328
1.48354
1.39052
1.47944
1.50808
1.50211
1.53043
1.56708
1.61853
1.68214
1.72078
1.73486
1.74032
1.75191
1.77174
1.83208
1.91859
1.99627
2.06008
2.01656
1.8768
1.84001
1.9016
1.93272
1.83988
1.69372
1.88141
1.93042
1.84895
1.73619
1.78202
1.13792
1.16609
1.17321
1.17389
1.1742
1.17496
1.17536
1.17736
1.18075
1.18364
1.18774
1.19416
1.19847
1.19706
1.18747
1.17967
1.17796
1.17795
1.17816
1.18083
1.1834
1.18095
1.18041
1.17957
1.17799
1.17875
1.17774
1.17517
1.17277
1.16899
1.16647
1.16341
1.16145
1.16031
1.15865
1.15804
1.15742
1.15673
1.15653
1.15683
1.15731
1.15809
1.15874
1.15953
1.16011
1.16079
1.16192
1.16335
1.165
1.16597
1.16665
1.16778
1.16994
1.171
1.17263
1.17259
1.17613
1.18345
1.18651
1.18829
1.18881
1.18835
1.18756
1.18717
1.1875
1.18822
1.18817
1.18824
1.1892
1.19028
1.19581
1.20243
1.20528
1.2088
1.21419
1.21508
1.21613
1.21945
1.2245
1.2281
1.22775
1.22676
1.22951
1.23549
1.24021
1.24045
1.24297
1.25139
1.25314
1.25456
1.26041
1.26354
1.26908
1.27571
1.27433
1.26465
1.25691
1.26089
1.26993
1.27621
1.27661
1.26896
1.263
1.27349
1.27927
1.26011
1.24892
1.2713
1.29723
1.29332
1.28061
1.30641
1.35909
1.27487
1.30274
1.30408
1.30315
1.30648
1.31516
1.31877
1.32093
1.30279
1.29511
1.30673
1.32516
1.33236
1.32922
1.32383
1.32525
1.34343
1.35787
1.36325
1.36547
1.37385
1.38497
1.40391
1.41334
1.41694
1.42845
1.43131
1.45136
1.45837
1.47494
1.53282
1.48496
1.57565
1.54498
1.51005
1.42871
1.41924
1.4096
1.43092
1.48004
1.44866
1.39517
1.47048
1.56747
1.64737
1.67258
1.70738
1.76501
1.80996
1.84101
1.87406
1.92219
1.93842
1.92706
2.03583
2.07663
1.96072
1.94906
1.99213
1.8855
1.71413
1.59767
1.77712
1.90756
1.843
1.80279
1.89389
1.1339
1.16026
1.16892
1.17148
1.17379
1.17586
1.17731
1.18053
1.18652
1.19021
1.1865
1.18167
1.18079
1.17825
1.17472
1.17117
1.17179
1.17996
1.18718
1.18134
1.17801
1.17713
1.17473
1.17339
1.17266
1.16976
1.16608
1.16112
1.15584
1.15204
1.1489
1.14678
1.14627
1.14643
1.14685
1.14799
1.14908
1.14969
1.15063
1.15087
1.15073
1.15103
1.15053
1.14965
1.14928
1.14825
1.14736
1.14642
1.1453
1.14456
1.14487
1.1465
1.1488
1.14924
1.15091
1.15205
1.1551
1.1618
1.16757
1.17264
1.17693
1.17963
1.18081
1.18312
1.18734
1.18746
1.18071
1.17277
1.16954
1.17043
1.17923
1.19092
1.19582
1.19752
1.20649
1.20975
1.206
1.21385
1.21938
1.21659
1.22276
1.22885
1.22632
1.22837
1.23618
1.23854
1.2409
1.25047
1.25846
1.26011
1.26069
1.26305
1.2669
1.26711
1.25999
1.25575
1.26665
1.27938
1.27997
1.28058
1.28077
1.27143
1.26695
1.27656
1.2818
1.27772
1.2733
1.27626
1.27139
1.24423
1.24281
1.26684
1.28296
1.27787
1.27828
1.2852
1.29924
1.30992
1.3197
1.316
1.33665
1.34077
1.32343
1.30532
1.30933
1.3058
1.323
1.32923
1.30495
1.30569
1.30998
1.33099
1.33843
1.3551
1.36112
1.37722
1.38804
1.40831
1.40371
1.41057
1.42353
1.42901
1.40072
1.52405
1.41527
1.52422
1.57351
1.52443
1.3656
1.31975
1.34221
1.49609
1.46255
1.4472
1.43427
1.46263
1.57495
1.66155
1.63712
1.63052
1.6799
1.76539
1.84215
1.90386
1.93719
1.89224
1.77753
1.881
2.03286
2.01781
2.03755
2.05723
1.9214
1.93367
1.66063
1.68388
1.85898
1.84579
1.8711
1.9141
1.13042
1.15405
1.16434
1.16869
1.17279
1.17673
1.17968
1.18253
1.18544
1.17694
1.16904
1.16763
1.16824
1.16937
1.17359
1.18237
1.19019
1.18819
1.18025
1.17381
1.17177
1.16876
1.16467
1.16198
1.15684
1.15349
1.14997
1.14724
1.146
1.14564
1.14656
1.14797
1.15037
1.15341
1.15558
1.15812
1.15974
1.16101
1.16141
1.16141
1.16058
1.16017
1.16031
1.15847
1.15753
1.15669
1.15544
1.15498
1.15366
1.15245
1.15123
1.14872
1.14543
1.14213
1.14183
1.14166
1.14242
1.1455
1.1524
1.16042
1.16757
1.16809
1.1658
1.16732
1.17029
1.16576
1.15463
1.1458
1.14772
1.15984
1.17734
1.19278
1.20283
1.20844
1.21206
1.21213
1.21485
1.22327
1.22581
1.22569
1.23177
1.23124
1.22696
1.2294
1.23278
1.23203
1.23892
1.24964
1.25622
1.26262
1.26448
1.26459
1.26311
1.25478
1.24879
1.25561
1.26429
1.26012
1.2618
1.27723
1.2831
1.28091
1.2829
1.2844
1.27954
1.27358
1.27081
1.27486
1.27168
1.24613
1.24458
1.24017
1.23339
1.2809
1.28918
1.2836
1.29916
1.31174
1.32145
1.31527
1.31406
1.32002
1.32534
1.30013
1.3135
1.2917
1.277
1.31081
1.29669
1.29016
1.27852
1.30385
1.3173
1.32839
1.32695
1.3534
1.33295
1.36237
1.39422
1.37641
1.37225
1.4119
1.34458
1.49131
1.37035
1.41419
1.52531
1.55418
1.4011
1.28471
1.22611
1.31824
1.4423
1.53282
1.53956
1.50146
1.58607
1.65238
1.62994
1.6179
1.60017
1.644
1.74078
1.84914
1.91954
1.88477
1.67842
1.71862
1.95391
2.02108
2.07846
2.1165
1.95936
2.03346
1.73561
1.65111
1.78274
1.83271
1.89091
1.94987
1.12782
1.1489
1.16158
1.16902
1.17168
1.17647
1.17847
1.16957
1.16536
1.16562
1.16352
1.16563
1.16818
1.17762
1.18817
1.18857
1.17748
1.168
1.15871
1.15469
1.15201
1.1479
1.1463
1.14675
1.14646
1.14801
1.14742
1.14743
1.148
1.14977
1.15109
1.1527
1.15739
1.16094
1.1628
1.16431
1.16455
1.16527
1.16593
1.16593
1.16547
1.16523
1.1658
1.16548
1.16433
1.16327
1.16172
1.16047
1.15927
1.15858
1.15913
1.15852
1.15628
1.15431
1.1522
1.14926
1.14823
1.14486
1.14397
1.14605
1.15212
1.15391
1.15163
1.15212
1.15575
1.15524
1.14963
1.14426
1.14531
1.15654
1.1726
1.18797
1.19952
1.20815
1.21207
1.20955
1.2165
1.22617
1.22435
1.2258
1.23229
1.22983
1.23333
1.23921
1.23666
1.23595
1.24187
1.24923
1.25506
1.25961
1.26106
1.25741
1.24885
1.24024
1.23893
1.24416
1.24579
1.24631
1.25361
1.25766
1.2592
1.26886
1.27339
1.26742
1.26347
1.26264
1.26281
1.27163
1.28336
1.27289
1.2719
1.25448
1.24943
1.25827
1.29421
1.291
1.31084
1.3078
1.3408
1.35163
1.35754
1.3193
1.32673
1.30696
1.30091
1.32208
1.3017
1.31541
1.32621
1.31883
1.27261
1.27339
1.27932
1.3068
1.29242
1.33927
1.32589
1.30845
1.34948
1.36272
1.32688
1.36451
1.28902
1.44009
1.37004
1.29952
1.42291
1.56468
1.44073
1.34209
1.30153
1.32998
1.40095
1.51159
1.50871
1.46585
1.52308
1.56861
1.57434
1.61926
1.60083
1.57867
1.60709
1.70122
1.83919
1.89272
1.64258
1.56607
1.84568
2.00324
2.08851
2.04693
1.76297
1.88558
1.65257
1.68743
1.6831
1.80304
1.89416
1.86864
1.12683
1.14774
1.16304
1.17063
1.17064
1.17042
1.1618
1.15638
1.16514
1.17279
1.17432
1.17926
1.18326
1.18399
1.17617
1.16771
1.15523
1.15063
1.15037
1.15003
1.15113
1.15191
1.15385
1.15434
1.15271
1.15314
1.15146
1.15094
1.15185
1.15195
1.15381
1.15653
1.1589
1.16025
1.16046
1.16061
1.15953
1.15993
1.16057
1.1601
1.16041
1.16009
1.16126
1.16167
1.16203
1.16168
1.16096
1.15955
1.15796
1.15609
1.15503
1.15394
1.15336
1.15263
1.15118
1.14953
1.14974
1.14853
1.14693
1.14468
1.14514
1.14621
1.147
1.14657
1.14685
1.15052
1.15523
1.15534
1.14914
1.14873
1.15778
1.17251
1.18073
1.18342
1.18876
1.19273
1.20087
1.20613
1.20093
1.20887
1.2254
1.22586
1.22618
1.22984
1.22886
1.23204
1.24061
1.24372
1.24745
1.25193
1.24842
1.23961
1.22922
1.22017
1.219
1.22659
1.23719
1.24748
1.25149
1.24465
1.23916
1.24181
1.24282
1.24575
1.25229
1.25641
1.25448
1.25379
1.25927
1.25023
1.24929
1.24378
1.22147
1.23136
1.26918
1.28297
1.29661
1.29208
1.31329
1.30351
1.3483
1.32474
1.32005
1.34151
1.32213
1.33231
1.34214
1.31097
1.29349
1.34893
1.30594
1.26991
1.26229
1.28178
1.24676
1.30648
1.32515
1.29325
1.30864
1.33004
1.29402
1.34564
1.24733
1.32692
1.40827
1.25483
1.27073
1.49003
1.45983
1.38356
1.40062
1.41839
1.46315
1.45251
1.44719
1.43344
1.39557
1.4065
1.42785
1.52884
1.58692
1.61007
1.58014
1.56363
1.70097
1.82427
1.61433
1.44262
1.69774
1.96042
2.12258
1.99124
1.71647
1.87579
1.61738
1.6303
1.64354
1.79308
1.89687
1.74067
1.12759
1.15203
1.16802
1.1668
1.16104
1.15577
1.15796
1.17226
1.17673
1.17494
1.17855
1.18199
1.18047
1.17938
1.16713
1.15792
1.15112
1.1487
1.14869
1.14725
1.14834
1.14936
1.15066
1.14923
1.14703
1.14598
1.1457
1.14592
1.14667
1.14848
1.15164
1.1548
1.15688
1.15913
1.15893
1.15926
1.1597
1.16032
1.16137
1.16096
1.16042
1.15979
1.16016
1.1607
1.16105
1.16137
1.16155
1.16095
1.16061
1.16042
1.15898
1.15696
1.15561
1.15193
1.14894
1.14659
1.14416
1.1444
1.14461
1.1439
1.14175
1.13954
1.14343
1.14756
1.14417
1.14189
1.15014
1.15799
1.15037
1.13904
1.13737
1.14518
1.15532
1.16359
1.17495
1.18459
1.1917
1.19836
1.19982
1.21092
1.21882
1.20903
1.20937
1.21833
1.22242
1.22927
1.23738
1.2386
1.23996
1.24137
1.23674
1.22913
1.21931
1.21325
1.21973
1.2365
1.25121
1.25932
1.2606
1.25678
1.25206
1.24888
1.24515
1.24249
1.23975
1.24342
1.23757
1.2298
1.24266
1.25141
1.2616
1.25521
1.21528
1.22474
1.25017
1.27341
1.26499
1.27912
1.29509
1.2904
1.31956
1.35957
1.33145
1.32526
1.30735
1.33177
1.33217
1.2913
1.25801
1.31425
1.32492
1.26233
1.24557
1.29174
1.22277
1.22795
1.29993
1.2838
1.27093
1.31079
1.29384
1.31016
1.26494
1.25008
1.40241
1.26855
1.19488
1.37593
1.4064
1.40175
1.46657
1.38264
1.45584
1.39369
1.31581
1.43373
1.33529
1.25852
1.24155
1.36668
1.49716
1.60421
1.66419
1.54437
1.5761
1.72532
1.59371
1.35887
1.55056
1.88164
2.1579
2.06193
2.01612
2.01768
1.74987
1.56801
1.67138
1.79207
1.83345
1.65223
1.12748
1.15313
1.16689
1.1638
1.16002
1.15982
1.16995
1.18145
1.18087
1.17976
1.17827
1.17053
1.16665
1.1609
1.14749
1.14374
1.14554
1.14502
1.14641
1.14119
1.14077
1.13991
1.14094
1.14332
1.14329
1.14519
1.14744
1.14756
1.14943
1.1518
1.15273
1.15511
1.15784
1.15981
1.15945
1.15834
1.15733
1.15716
1.15927
1.1603
1.15909
1.15746
1.15738
1.15839
1.15942
1.16109
1.16149
1.16211
1.16279
1.16281
1.16199
1.16241
1.16135
1.15967
1.15752
1.15384
1.14979
1.14632
1.14416
1.14192
1.1399
1.13679
1.1365
1.13973
1.13585
1.12757
1.13031
1.14164
1.14384
1.13465
1.13028
1.135
1.14435
1.15744
1.17658
1.19385
1.20206
1.20685
1.21041
1.21653
1.21301
1.20742
1.21811
1.22334
1.22059
1.22796
1.23508
1.23245
1.23223
1.23393
1.23021
1.223
1.21281
1.2082
1.21785
1.23403
1.24224
1.23978
1.23473
1.22855
1.22044
1.21734
1.2179
1.21585
1.20881
1.21605
1.21462
1.20575
1.21748
1.21459
1.23742
1.24929
1.21512
1.21188
1.22666
1.24337
1.2428
1.2443
1.26284
1.29499
1.29952
1.34226
1.34129
1.34637
1.31215
1.33759
1.32181
1.25285
1.25756
1.29945
1.28138
1.2775
1.2215
1.31371
1.23785
1.21622
1.24347
1.26364
1.25554
1.25367
1.29026
1.29744
1.24282
1.21215
1.39258
1.22732
1.14405
1.28493
1.31706
1.35391
1.4712
1.39488
1.46032
1.39295
1.20571
1.33328
1.39263
1.32897
1.21783
1.24154
1.37914
1.50235
1.6882
1.64608
1.52712
1.62962
1.61652
1.3081
1.43578
1.80583
2.1596
2.038
2.08659
1.76971
1.63298
1.52277
1.66985
1.73862
1.73281
1.65055
1.12584
1.14981
1.16202
1.15888
1.15774
1.16266
1.17458
1.1777
1.1792
1.17759
1.17852
1.1693
1.16014
1.15252
1.14613
1.14523
1.14909
1.14528
1.14702
1.14612
1.14617
1.14688
1.14425
1.14466
1.1455
1.14594
1.14857
1.14942
1.14931
1.15035
1.15177
1.15279
1.15327
1.1527
1.1514
1.15074
1.15238
1.15556
1.15862
1.15962
1.15862
1.15596
1.15398
1.15312
1.15238
1.15345
1.15438
1.15452
1.15577
1.15528
1.15424
1.15554
1.15409
1.15366
1.1554
1.15401
1.15195
1.14711
1.14578
1.14393
1.14149
1.14025
1.13629
1.13604
1.13955
1.13492
1.12809
1.13256
1.13998
1.13716
1.13135
1.1315
1.13724
1.15294
1.17322
1.1885
1.19424
1.19716
1.19928
1.20378
1.2091
1.21744
1.22555
1.21944
1.2157
1.2245
1.23009
1.22658
1.22401
1.22343
1.21751
1.20915
1.20309
1.20409
1.21476
1.23062
1.23683
1.22968
1.22077
1.21112
1.20307
1.20722
1.21519
1.22018
1.21591
1.22369
1.22447
1.21739
1.2081
1.18838
1.21058
1.23682
1.2114
1.20694
1.22084
1.21513
1.22803
1.24424
1.25149
1.27147
1.32179
1.33599
1.32845
1.35477
1.32517
1.32522
1.3119
1.2459
1.2414
1.30876
1.23274
1.30911
1.21834
1.31955
1.20699
1.25155
1.22012
1.21405
1.27314
1.20838
1.23125
1.28528
1.23693
1.14054
1.34057
1.22762
1.14699
1.2219
1.24088
1.29463
1.42719
1.41622
1.46392
1.37788
1.22001
1.23742
1.32414
1.39159
1.32291
1.23613
1.29877
1.37973
1.59599
1.69377
1.53147
1.55332
1.6384
1.30465
1.35854
1.73312
2.11212
1.89299
1.98852
1.66858
1.65585
1.48819
1.60394
1.68876
1.70517
1.6552
1.1244
1.14734
1.15954
1.15598
1.15463
1.15718
1.17833
1.18078
1.17307
1.1688
1.16542
1.16011
1.15121
1.14283
1.1403
1.14165
1.14254
1.13717
1.13568
1.13899
1.14225
1.14498
1.14576
1.14625
1.14834
1.14853
1.14771
1.14626
1.14724
1.15058
1.15255
1.15236
1.14982
1.14722
1.14844
1.15054
1.15361
1.15615
1.15673
1.15503
1.15335
1.15265
1.15241
1.15131
1.14993
1.15056
1.15252
1.15407
1.1561
1.15695
1.15813
1.15683
1.15621
1.15303
1.14959
1.14909
1.14933
1.14644
1.14309
1.14192
1.13722
1.13324
1.13135
1.129
1.13627
1.1419
1.13319
1.12827
1.1337
1.13589
1.13045
1.12614
1.12882
1.14452
1.16564
1.18303
1.18854
1.19194
1.19361
1.19816
1.20495
1.20935
1.21093
1.21004
1.2145
1.22209
1.22304
1.21704
1.21253
1.21067
1.20551
1.19726
1.19259
1.19866
1.21377
1.22905
1.22668
1.2116
1.20156
1.19724
1.19991
1.20818
1.20705
1.20755
1.20401
1.21263
1.21544
1.22329
1.20685
1.17731
1.18807
1.22063
1.21197
1.19725
1.21838
1.21069
1.20102
1.22453
1.25142
1.26091
1.31304
1.35931
1.32675
1.34694
1.30613
1.28262
1.28454
1.25932
1.22746
1.27586
1.1898
1.2884
1.23058
1.3052
1.18411
1.26135
1.21006
1.17467
1.26465
1.20632
1.1903
1.23801
1.26865
1.12382
1.2788
1.21711
1.19629
1.23557
1.21341
1.27512
1.37698
1.38655
1.43193
1.30997
1.22543
1.24436
1.23758
1.24986
1.29948
1.25885
1.26972
1.27084
1.4779
1.65467
1.51308
1.48634
1.62711
1.3275
1.31275
1.68025
2.01017
1.73837
1.86729
1.74534
1.68055
1.56666
1.53761
1.68195
1.6995
1.62401
1.12245
1.14254
1.15661
1.15522
1.15601
1.15579
1.17118
1.18182
1.17619
1.17111
1.16079
1.1518
1.14632
1.14176
1.14099
1.14149
1.14087
1.13616
1.13325
1.13427
1.13645
1.14018
1.14394
1.14456
1.1441
1.14189
1.14241
1.14703
1.15321
1.15946
1.16266
1.16156
1.15829
1.156
1.15551
1.15439
1.15289
1.14934
1.14567
1.14262
1.14225
1.14328
1.14413
1.1431
1.14131
1.13936
1.13961
1.14212
1.14539
1.14721
1.1514
1.15136
1.15275
1.15277
1.15037
1.14772
1.14625
1.14626
1.14381
1.14309
1.1417
1.13315
1.13027
1.12672
1.12113
1.12519
1.12363
1.11822
1.12649
1.1333
1.12772
1.11881
1.12206
1.14061
1.16573
1.18462
1.18911
1.19004
1.18867
1.19067
1.19463
1.19545
1.19907
1.20713
1.21475
1.21741
1.21452
1.20746
1.20095
1.19829
1.19554
1.19068
1.19307
1.20348
1.2141
1.21656
1.21063
1.20075
1.19795
1.19888
1.19936
1.19711
1.18539
1.19358
1.19405
1.19109
1.18226
1.19912
1.20746
1.17094
1.17271
1.19621
1.18487
1.19374
1.19504
1.19299
1.20001
1.20952
1.24157
1.27757
1.30087
1.34364
1.30034
1.29973
1.25942
1.23299
1.24105
1.25549
1.23378
1.2726
1.18877
1.25732
1.2274
1.2898
1.19877
1.25343
1.21152
1.16507
1.22663
1.21999
1.17914
1.2014
1.27541
1.12866
1.28212
1.18077
1.18538
1.25045
1.21459
1.24556
1.27895
1.31764
1.35161
1.2626
1.21945
1.23516
1.24185
1.20267
1.26227
1.27103
1.26886
1.22625
1.36773
1.59508
1.49271
1.41516
1.59477
1.36807
1.27156
1.63113
1.8602
1.70281
1.78258
1.62597
1.52149
1.55829
1.49858
1.63994
1.66585
1.59456
1.12144
1.13969
1.15443
1.15303
1.15139
1.15527
1.17076
1.18067
1.17218
1.16658
1.16312
1.15443
1.14614
1.14167
1.14306
1.14465
1.14236
1.13926
1.13691
1.13993
1.14174
1.14227
1.14432
1.1453
1.14692
1.14888
1.15066
1.15343
1.15574
1.15891
1.1579
1.15137
1.14565
1.14322
1.1421
1.14035
1.13885
1.13721
1.13739
1.13863
1.14098
1.14245
1.14355
1.1433
1.14216
1.14098
1.13859
1.13782
1.13988
1.14174
1.14532
1.14885
1.15143
1.15129
1.14863
1.14557
1.14166
1.13804
1.13629
1.13318
1.13657
1.13521
1.13007
1.13436
1.12768
1.12045
1.1208
1.11515
1.11799
1.12688
1.1259
1.11806
1.12078
1.13785
1.16259
1.17754
1.18251
1.18332
1.18453
1.18419
1.18772
1.18983
1.19664
1.20692
1.21176
1.21012
1.20492
1.19708
1.18942
1.1906
1.19151
1.18906
1.19302
1.20184
1.20689
1.20845
1.20462
1.19322
1.18495
1.18181
1.17858
1.18066
1.18039
1.20689
1.2163
1.19894
1.1609
1.17017
1.19064
1.16976
1.15153
1.17988
1.18806
1.19547
1.19344
1.17502
1.18336
1.20747
1.2351
1.27175
1.29934
1.31853
1.29014
1.27231
1.22805
1.20944
1.20545
1.20943
1.18699
1.24528
1.17454
1.22505
1.19287
1.27261
1.21983
1.23603
1.22819
1.17497
1.18991
1.22383
1.16991
1.17925
1.25737
1.11901
1.28032
1.17668
1.16001
1.21496
1.21775
1.17869
1.14729
1.22931
1.25905
1.21413
1.2123
1.21455
1.21363
1.20852
1.25461
1.29265
1.30589
1.29124
1.3571
1.54802
1.47399
1.3617
1.54293
1.42537
1.24635
1.59026
1.71948
1.72179
1.76708
1.64091
1.54827
1.54935
1.55474
1.55955
1.59398
1.54282
1.12098
1.13877
1.15595
1.15748
1.14687
1.14543
1.16059
1.18036
1.17935
1.16811
1.15772
1.15288
1.14635
1.14209
1.14156
1.14599
1.14385
1.14032
1.13391
1.13169
1.13339
1.13343
1.13504
1.13575
1.13612
1.13975
1.14276
1.1455
1.14555
1.14518
1.1454
1.14312
1.14123
1.13981
1.13867
1.13805
1.13784
1.13751
1.13834
1.13831
1.13887
1.13965
1.13924
1.13974
1.13811
1.13775
1.13821
1.1383
1.13779
1.13693
1.13634
1.13999
1.14342
1.14977
1.14987
1.14724
1.14518
1.14132
1.13958
1.13506
1.12807
1.12946
1.12072
1.12102
1.12947
1.12419
1.12257
1.11772
1.11447
1.1227
1.12496
1.11565
1.11013
1.12466
1.15401
1.17325
1.18267
1.18224
1.18444
1.18348
1.1858
1.19064
1.19739
1.20253
1.20287
1.20058
1.19598
1.18693
1.17812
1.17641
1.17763
1.18093
1.1894
1.20017
1.20318
1.19892
1.19537
1.18601
1.18063
1.18202
1.17837
1.18247
1.18695
1.21027
1.21661
1.19867
1.14932
1.15018
1.17521
1.1701
1.15176
1.15892
1.17137
1.17016
1.17825
1.16981
1.173
1.19684
1.23527
1.27023
1.30292
1.30423
1.28013
1.24195
1.20725
1.18578
1.19106
1.194
1.16484
1.21491
1.15647
1.19389
1.14855
1.23825
1.22282
1.21532
1.2318
1.19125
1.16605
1.20716
1.17325
1.16519
1.21113
1.1144
1.24473
1.17443
1.14145
1.17474
1.2258
1.13923
1.10202
1.17502
1.19437
1.18167
1.1925
1.19613
1.19945
1.20556
1.23332
1.27574
1.36918
1.39883
1.42219
1.51653
1.4505
1.32127
1.49034
1.47142
1.24113
1.55162
1.61163
1.70869
1.71995
1.649
1.5353
1.52093
1.62645
1.52046
1.49783
1.49778
1.12018
1.13658
1.1557
1.16652
1.15788
1.14428
1.14292
1.16121
1.17454
1.17506
1.16549
1.15456
1.1473
1.14184
1.13892
1.14412
1.14711
1.14814
1.14672
1.14067
1.137
1.1344
1.13458
1.13608
1.13625
1.13852
1.14067
1.14283
1.14383
1.14378
1.14392
1.14352
1.14269
1.14108
1.13912
1.13761
1.13752
1.13734
1.13871
1.13892
1.13693
1.13748
1.13779
1.13753
1.13639
1.13439
1.1378
1.1416
1.14339
1.14179
1.13618
1.13603
1.13729
1.14068
1.14407
1.1435
1.14156
1.13675
1.13105
1.13372
1.12911
1.12694
1.12853
1.11717
1.11873
1.11545
1.11178
1.11567
1.11315
1.11518
1.11782
1.11271
1.10616
1.1165
1.14187
1.16528
1.1772
1.18066
1.18242
1.18388
1.18492
1.19042
1.19603
1.19628
1.19362
1.19157
1.18793
1.18009
1.17248
1.1713
1.16768
1.16376
1.17032
1.18565
1.19297
1.19731
1.19602
1.1819
1.17059
1.17397
1.17471
1.17383
1.17089
1.17685
1.1828
1.1877
1.15706
1.15
1.18007
1.16183
1.131
1.14602
1.15887
1.17221
1.17007
1.15259
1.16923
1.186
1.22555
1.2687
1.30302
1.29666
1.25791
1.22006
1.20195
1.17888
1.17317
1.16574
1.1351
1.17447
1.15094
1.17317
1.12743
1.20287
1.20858
1.19113
1.21537
1.19742
1.15147
1.17557
1.17454
1.15095
1.15844
1.11448
1.18927
1.16321
1.12432
1.14694
1.20605
1.13088
1.12664
1.15766
1.16156
1.16988
1.18128
1.18178
1.19618
1.20548
1.23371
1.26136
1.393
1.39823
1.39362
1.43566
1.41153
1.30368
1.46426
1.48258
1.25128
1.51079
1.54239
1.69639
1.67307
1.56729
1.48716
1.50479
1.60347
1.54658
1.4723
1.4836
1.11905
1.13283
1.15378
1.17046
1.16719
1.15465
1.14241
1.14581
1.16073
1.16753
1.1702
1.16141
1.15339
1.14525
1.13818
1.13665
1.14015
1.14262
1.14651
1.14727
1.1457
1.14394
1.14216
1.14175
1.1412
1.1407
1.14066
1.14089
1.14113
1.14178
1.1418
1.14098
1.13855
1.1376
1.13669
1.13487
1.13622
1.13695
1.1354
1.13627
1.13518
1.13463
1.13621
1.13334
1.13051
1.12573
1.12548
1.13019
1.13556
1.14045
1.14092
1.1386
1.14
1.14117
1.14452
1.14316
1.14188
1.14201
1.13467
1.12561
1.1264
1.11672
1.12016
1.12076
1.11555
1.11494
1.10768
1.11146
1.11117
1.10891
1.11373
1.11302
1.10432
1.10829
1.13135
1.1572
1.17198
1.17894
1.18015
1.18281
1.18484
1.18666
1.18821
1.18622
1.18374
1.18493
1.18215
1.17367
1.16701
1.17067
1.16971
1.16266
1.16416
1.17511
1.18198
1.18537
1.1873
1.1855
1.17334
1.16959
1.1731
1.17252
1.1695
1.16499
1.16958
1.17825
1.15006
1.13165
1.14116
1.15653
1.1329
1.13229
1.14396
1.16003
1.16808
1.15271
1.15003
1.18288
1.2204
1.2653
1.28067
1.26734
1.22026
1.18551
1.16727
1.16025
1.15862
1.15661
1.13863
1.17098
1.15468
1.15952
1.13019
1.18834
1.19364
1.17002
1.19934
1.1948
1.14469
1.15324
1.16618
1.13831
1.13327
1.1215
1.14255
1.14573
1.12112
1.14368
1.17379
1.12532
1.15098
1.14918
1.14944
1.15902
1.16765
1.17773
1.18674
1.19458
1.22298
1.25965
1.35649
1.31919
1.2719
1.3394
1.37402
1.33749
1.47734
1.45845
1.26866
1.46907
1.49486
1.6919
1.613
1.53546
1.49936
1.52068
1.57
1.52046
1.44368
1.4209
1.11768
1.12742
1.14621
1.16943
1.17319
1.1633
1.14992
1.13994
1.14792
1.1553
1.16419
1.16546
1.16205
1.15583
1.14939
1.14185
1.13878
1.13755
1.13837
1.13996
1.14086
1.14096
1.1402
1.14081
1.14002
1.13958
1.13991
1.13821
1.13785
1.13797
1.13626
1.13583
1.13592
1.1346
1.13409
1.13351
1.13245
1.13418
1.13324
1.13447
1.13421
1.13248
1.1344
1.13534
1.13587
1.13354
1.13153
1.13177
1.13167
1.13336
1.13445
1.13607
1.14123
1.1407
1.14175
1.14046
1.13601
1.13232
1.13557
1.12922
1.12679
1.12595
1.11371
1.11376
1.11102
1.1109
1.10669
1.10322
1.10701
1.10356
1.10442
1.10939
1.10509
1.09729
1.11331
1.14133
1.16205
1.17419
1.17794
1.17762
1.18243
1.1847
1.18069
1.17321
1.1702
1.1735
1.17373
1.16843
1.1625
1.16181
1.16601
1.16493
1.16316
1.17175
1.18216
1.18663
1.183
1.17949
1.17673
1.17134
1.17332
1.17639
1.18394
1.18076
1.1854
1.18907
1.16723
1.12482
1.15471
1.16123
1.13311
1.12815
1.14386
1.14902
1.14609
1.14464
1.13874
1.17474
1.23159
1.26186
1.27098
1.24117
1.201
1.16549
1.14358
1.13633
1.13629
1.14794
1.15479
1.18071
1.14811
1.13237
1.12682
1.17064
1.16773
1.15919
1.19008
1.18228
1.14105
1.14775
1.14917
1.13064
1.13307
1.12619
1.12337
1.12562
1.11963
1.15051
1.14617
1.11427
1.15605
1.13632
1.14226
1.14736
1.16016
1.17236
1.17424
1.18504
1.21179
1.2645
1.2977
1.27685
1.22568
1.32709
1.37657
1.3847
1.4964
1.43484
1.28554
1.43537
1.45727
1.68311
1.56519
1.49733
1.47497
1.49538
1.55875
1.45934
1.36593
1.35107
1.11741
1.12358
1.13419
1.15844
1.16693
1.16369
1.1561
1.14257
1.14037
1.1437
1.15003
1.15688
1.15989
1.15876
1.1569
1.1524
1.14773
1.14372
1.14084
1.13965
1.13956
1.13934
1.13951
1.13902
1.13916
1.13924
1.13819
1.1386
1.13852
1.13648
1.13676
1.13529
1.13376
1.13263
1.13107
1.13264
1.13246
1.13507
1.13488
1.13654
1.13917
1.13878
1.1366
1.13039
1.13088
1.13626
1.13911
1.13838
1.13312
1.13248
1.13847
1.14358
1.14877
1.14536
1.14076
1.13659
1.13568
1.13191
1.12482
1.1247
1.11668
1.11794
1.11643
1.11226
1.11343
1.10713
1.1073
1.10286
1.10221
1.104
1.09966
1.10435
1.10864
1.0987
1.09719
1.12218
1.14877
1.1651
1.17527
1.1744
1.17397
1.17908
1.17783
1.16876
1.16206
1.16149
1.16084
1.15994
1.15455
1.15502
1.15963
1.15873
1.15788
1.16212