/*--------------------------------*- C++ -*----------------------------------*\
| =========                 |                                                 |
| \\      /  F ield         | OpenFOAM: The Open Source CFD Toolbox           |
|  \\    /   O peration     | Version:  dev                                   |
|   \\  /    A nd           | Web:      http://www.openfoam.org               |
|    \\/     M anipulation  |                                                 |
\*---------------------------------------------------------------------------*/
FoamFile
{
    version     2.0;
    format      ascii;
    class       volScalarField;
    object      T;
    location    "9.154";
}
// * * * * * * * * * * * * * * * * * * * * * * * * * * * * * * * * * * * * * //

dimensions      [0 0 0 1 0 0 0];

internalField   nonuniform List<scalar> 
12225
(
301.074
301.696
301.764
301.712
301.531
301.466
301.301
301.241
301.173
301.098
301.143
300.862
301.048
300.878
300.303
302.084
297.225
303.14
301.526
302.117
301.825
301.606
301.248
301.003
300.808
300.511
300.635
300.224
300.769
299.719
300.617
299.65
299.577
300.545
295.628
301.723
301.592
302.104
301.719
301.519
301.113
300.83
300.482
300.031
300.118
299.356
300.085
298.764
299.937
298.562
299.583
298.174
298.529
298.501
301.512
302.207
301.633
301.612
301.084
301
300.525
300.255
299.923
299.717
299.496
299.185
299.102
299.205
298.874
299.196
300.421
298.456
301.36
302.328
301.624
301.732
301.129
301.198
300.684
300.468
300.045
299.976
299.644
299.21
299.138
298.975
298.947
298.845
299.112
298.882
301.218
302.48
301.535
301.898
300.999
301.396
300.536
300.651
300.043
300.188
299.502
299.442
299.118
299.249
298.96
298.99
298.375
299.384
301.256
302.417
301.502
301.833
300.827
301.246
300.39
300.675
300.07
300.157
299.454
299.53
299.161
299.165
298.917
298.957
298.532
298.842
301.285
302.385
301.529
301.878
300.872
301.296
300.453
300.719
299.931
300.005
299.298
299.51
298.995
299.178
298.897
299.03
298.639
298.651
301.351
302.327
301.486
301.734
300.87
301.29
300.539
300.738
299.932
299.978
299.357
299.476
299.127
299.247
299.021
299.051
298.875
298.79
301.238
302.221
301.54
301.699
300.94
301.325
300.646
300.812
300.041
300.074
299.496
299.561
299.33
299.409
299.234
299.229
299.221
299.212
301.295
302.136
301.584
301.633
301.14
301.352
300.864
300.772
300.173
300.109
299.851
299.833
299.704
299.647
299.599
299.466
299.515
299.507
301.302
302.188
301.695
301.674
301.285
301.299
300.996
300.895
300.47
300.313
300.124
300.033
299.984
299.939
300.002
299.85
299.86
299.812
301.216
302.05
301.758
301.653
301.441
301.352
301.141
301.04
300.789
300.657
300.487
300.384
300.355
300.294
300.344
300.297
300.317
300.282
301.058
301.949
301.79
301.629
301.556
301.472
301.311
301.179
301.003
300.886
300.807
300.742
300.729
300.697
300.707
300.72
300.708
300.72
301.021
301.948
301.772
301.727
301.646
301.587
301.52
301.405
301.304
301.2
301.143
301.118
301.133
301.168
301.17
301.21
301.267
301.28
300.883
301.872
301.745
301.702
301.703
301.688
301.639
301.581
301.524
301.49
301.482
301.482
301.493
301.552
301.594
301.665
301.696
301.748
300.589
301.738
301.7
301.674
301.696
301.736
301.724
301.726
301.708
301.676
301.686
301.684
301.739
301.802
301.86
301.938
301.971
302.038
300.306
301.651
301.598
301.511
301.548
301.583
301.595
301.619
301.588
301.572
301.562
301.569
301.643
301.709
301.768
301.83
301.86
301.892
300.108
301.501
301.399
301.315
301.343
301.338
301.354
301.333
301.273
301.24
301.181
301.19
301.203
301.279
301.296
301.324
301.35
301.319
299.864
301.393
301.171
301.071
301.057
301.022
301.101
301.011
300.922
300.85
300.715
300.739
300.662
300.728
300.705
300.701
300.722
300.676
299.606
301.245
301.005
300.919
300.866
300.748
300.812
300.603
300.465
300.369
300.182
300.225
300.096
300.129
300.083
300.038
300.09
300.024
299.598
301.127
300.869
300.759
300.693
300.453
300.453
300.25
300.095
300.005
299.767
299.744
299.569
299.54
299.501
299.434
299.493
299.409
299.474
300.979
300.762
300.622
300.476
300.265
300.153
299.946
299.815
299.653
299.454
299.351
299.176
299.124
299.036
298.995
298.981
298.93
299.412
300.896
300.704
300.528
300.336
300.207
300.004
299.784
299.593
299.357
299.2
299.024
298.879
298.779
298.656
298.614
298.539
298.523
299.325
300.848
300.676
300.451
300.277
300.094
299.872
299.664
299.417
299.199
298.995
298.807
298.663
298.527
298.429
298.345
298.28
298.235
299.35
300.829
300.612
300.391
300.216
300.011
299.808
299.58
299.342
299.12
298.887
298.698
298.516
298.375
298.257
298.161
298.103
298.038
299.281
300.798
300.595
300.377
300.169
299.955
299.716
299.479
299.236
298.999
298.776
298.575
298.404
298.26
298.152
298.072
298.012
297.969
299.301
300.761
300.537
300.33
300.137
299.91
299.638
299.366
299.093
298.853
298.646
298.484
298.351
298.264
298.19
298.137
298.078
298.014
299.183
300.708
300.521
300.315
300.111
299.87
299.605
299.354
299.143
298.992
298.886
298.806
298.72
298.648
298.539
298.44
298.29
298.177
298.689
300.063
300.091
300.076
300.008
299.907
299.804
299.715
299.644
299.586
299.534
299.482
299.424
299.368
299.301
299.235
299.163
299.072
294.374
288.78
288.028
288.266
288.563
288.898
289.23
289.545
289.837
290.136
290.486
290.861
291.24
291.552
291.841
292.274
292.884
293.487
293.945
294.29
294.621
295.018
295.515
295.925
296.121
296.347
296.727
297.111
297.559
298.134
298.665
298.985
299.025
298.779
298.387
298.036
297.841
297.807
297.913
298.107
298.341
298.583
298.83
299.054
299.234
299.383
299.535
299.748
300.002
300.178
300.179
300.04
299.845
299.755
299.966
300.245
300.491
300.803
300.968
300.991
300.898
300.669
300.369
300.054
299.778
299.603
299.543
299.545
299.599
299.674
299.769
299.812
299.708
299.503
299.415
299.251
298.808
298.629
299.377
300.712
301.5
301.458
301.018
300.61
300.266
299.939
299.582
299.162
298.879
298.561
298.412
299.252
301.544
305.09
307.38
306.109
303.529
302.883
303.913
304.47
304.321
304.524
306.665
310.174
309.972
306.335
304.857
305.402
305.477
304.431
302.581
299.531
300.372
299.907
301.122
303.282
304.814
305.816
306.028
306.35
305.601
304.175
302.995
302.267
301.884
301.715
301.737
301.826
301.99
302.319
302.5
302.462
301.961
301.399
300.708
300.152
298.908
298.559
297.038
296.915
295.579
295.508
294.392
294.613
293.521
292.659
293.377
293.398
293.921
294.938
295.842
299.61
294.769
292.688
290.79
292.521
291.655
288.692
284.87
284.621
286.003
286.903
287.055
286.428
282.854
276.434
270.717
270.219
274.724
283.591
290.348
289.027
280.164
269.424
285.993
283.263
285.776
293.679
302.303
300.962
294.229
286.914
286.116
286.547
286.751
286.929
287.133
287.099
286.999
286.94
287.019
287.339
287.972
288.285
287.752
287.092
287.319
288.349
289.577
290.413
290.583
289.775
289.253
290.086
291.081
291.494
292.035
292.555
292.847
293.129
293.38
293.45
293.52
293.604
293.622
293.74
293.904
294.127
294.373
294.634
294.861
295.116
295.367
295.56
295.675
295.668
295.593
295.597
295.844
296.307
296.6
296.426
295.761
295.212
295.22
295.543
295.534
295.753
296.239
296.539
296.704
296.565
296.262
295.758
295.077
294.523
294.292
294.209
294.245
294.37
294.509
294.728
294.926
294.97
294.572
293.771
293.291
293.564
294.067
294.685
294.802
294.492
294.679
295.922
297.239
297.791
297.42
296.766
296.674
295.428
293.22
294.095
296.807
297.601
298.426
300.025
302.337
304.468
304.631
303.684
304.899
310.61
314.964
310.339
302.294
302.177
308.214
310.073
306.741
303.609
302.96
298.954
293.343
302.961
300.143
304.982
308.498
310.123
310.27
310.997
311.316
310.063
306.169
301.928
298.992
297.576
297.029
295.904
294.666
294.272
294.4
293.124
290.614
289.635
289.329
289.315
287.096
286.277
283
282.161
278.719
278.45
275.742
274.743
275.444
270.248
274.918
276.232
278.853
281.245
282.865
302.649
284.448
280.478
282.362
278.871
274.577
267.77
258.95
254.92
255.179
256.593
256.943
256.022
249.307
239.178
230.811
225.661
232.366
251.467
259.487
253.056
248.322
259.189
283.476
256.722
249.738
259.556
276.798
269.576
295.762
288.629
286.907
286.786
286.763
286.645
286.625
286.224
285.507
284.931
284.075
282.712
281.931
282.579
285.129
287.155
287.72
287.938
288.1
287.681
287.417
288.339
288.733
289.26
289.914
290.026
290.671
291.651
292.596
293.859
294.791
295.863
296.618
297.215
297.926
298.35
298.804
299.245
299.536
299.699
299.814
299.846
299.909
299.924
299.982
299.986
299.861
299.657
299.413
299.341
299.301
299.109
298.687
298.559
298.279
298.363
297.457
295.747
295.188
294.906
294.944
295.233
295.608
295.892
296.021
296.106
296.433
296.754
296.872
296.948
295.921
294.71
294.487
294.133
293.363
293.731
294.104
293.945
293.411
293.293
294.149
295.178
295.35
294.798
294.582
295.458
295.817
294.797
295.374
296.087
295.77
296.056
295.795
295.369
296.875
300.275
303.112
303.093
301.96
301.598
302.699
305.632
307.792
305.957
305.851
311.598
314.755
309.711
304.567
306.507
310.032
304.282
292.955
313.058
306.852
306.841
307.486
307.1
305.413
304.767
304.39
308.823
310.969
308.355
304.083
302.325
303.155
304.498
304.111
300.009
296.806
295.758
295.317
293.678
291.423
287.751
286.064
285.685
283.364
283.073
279.41
278.434
274.975
266.786
274.484
260.321
267.882
274.723
288.946
290.737
294.201
294.638
284.001
291.772
303.536
288.45
273.297
262.162
258.432
254.092
247.986
244.681
243.16
241.069
236.21
234.119
235.003
224.591
223.374
239.908
244.558
240.118
252.194
279.099
299.775
269.389
250.861
258.942
266.466
252.082
296.76
290.037
287.913
287.323
286.804
286.366
286.087
285.383
284.055
283.379
284.475
285.78
286.155
286.98
288.045
289.072
288.989
287.144
285.867
287.692
288.678
289.161
290.039
290.62
291.14
292.241
293.53
295.144
296.77
298.006
299.084
299.864
300.231
300.46
300.606
300.572
300.58
300.691
300.715
300.935
301.208
301.373
301.756
302.19
302.489
302.956
303.362
303.779
304.223
304.525
304.522
304.187
303.754
303.784
303.447
303.23
302.454
300.803
299.457
298.297
297.37
296.895
296.786
296.358
295.545
295.904
297.993
300.317
301.393
301.367
299.379
296.868
296.148
296.206
294.559
294.371
295.88
294.601
293.956
295.347
294.621
293.952
295.38
295.764
294.792
295.148
295.514
294.197
293.294
293.93
294.823
295.273
295.402
296.428
299.158
301.095
299.434
297.54
298.497
299.39
300.449
303.659
305.463
303.885
303.621
305.509
307.332
307.392
309.508
316.956
317.676
312.217
308.708
310.52
310.943
309.71
306.787
304.603
302.613
303.769
299.335
298.441
302.52
306.825
306.07
306.838
302.867
301.635
307.175
306.956
305.751
301.172
299.684
296.068
294.668
291.493
288.911
285.435
286.995
285.437
282.893
282.967
287.124
266.37
285.982
265.237
260.811
272.31
303.435
310.504
302.928
276.128
287.039
293.422
297.515
290.809
271.473
258.919
263.305
264.935
257.342
246.766
239.565
234.785
232.462
238.273
251.926
239.375
225.86
231.773
232.689
231.62
248.212
248.804
286.842
282.455
255.664
257.661
255.305
247.176
297.61
291.542
288.979
287.93
286.975
286.076
285.445
284.885
284.384
286.626
288.648
289.076
289.067
288.912
287.961
285.98
284.474
285.422
287.643
289.359
290.065
291.131
292.428
293.432
295.041
296.162
297.357
298.302
298.864
299.196
299.199
299.075
298.684
298.187
297.91
297.54
297.425
297.387
297.567
297.834
298.274
298.559
298.767
299.451
299.838
300.23
300.695
300.958
301.45
301.878
302.34
303.16
304.156
305.069
305.2
305.344
305.2
304.433
302.68
300.735
299.142
299.29
300.034
299.76
299.284
300.84
304.036
306.511
306.089
303.062
298.905
295.512
293.543
292.675
292.379
292.956
292.825
291.433
291.533
292.245
291.536
292.437
294.256
294.51
294.594
295.669
294.915
293.305
292.712
292.211
292.804
293.765
295.119
298.066
300.372
299.643
298.641
300.635
301.019
298.301
298.043
299.579
299.947
300.386
302.395
304.607
305.976
305.719
307.258
314.161
315.051
316.772
319.082
307.732
306.086
307.883
304.622
301.936
300.021
301.587
302.261
300.964
299.905
305.912
302.872
308.144
311.778
303.914
307.496
309.131
311.469
305.26
302.127
299.86
299.921
294.8
299.024
291.981
286.66
290.904
290.95
284.213
297.232
269.89
295.051
281.942
264.594
265.71
297.353
323.076
335.094
309.022
287.51
275.52
275.67
282.241
267.434
257.496
263.11
267.643
270.222
261.96
248.467
236.882
231.833
238.835
266.255
258.564
232.384
229.214
225.836
221.851
237.318
230.706
269.896
286.999
263.362
257.494
250.178
239.711
298.218
292.763
289.569
287.761
287.175
286.09
285.783
288.087
289.162
289.176
289.803
289.384
288.827
286.59
284.352
284.766
287.797
290.335
292.804
293.947
294.904
296.195
296.773
296.91
297.24
297.145
297.623
297.867
297.948
297.748
297.682
297.417
296.43
295.887
295.734
295.657
295.866
295.91
295.999
296.257
296.577
296.802
296.844
297.141
297.606
298.032
298.564
299.003
299.413
299.654
299.613
299.92
300.592
301.163
301.815
302.647
303.007
304.004
304.287
303.79
302.354
302.132
302.875
302.848
302.115
302.519
304.191
305.759
305.673
303.009
299.271
295.847
293.503
291.951
291.559
292.664
291.492
289.837
290.949
291.218
290.34
291.661
291.611
291.032
292.479
293.496
292.95
292.118
291.661
291.542
292.168
293.99
296.945
299.883
301.036
300.698
301.316
302.123
301.228
301.12
301.513
300.076
299.957
302.256
303.983
304.912
305.545
304.075
301.957
305.039
305.84
310.573
312.341
310.635
302.344
303.499
299.212
300.216
293.206
290.953
289.891
298.415
296.948
301.789
303.412
298.909
303.976
300.497
297.968
300.353
311.059
310.223
308.542
302.248
304.975
295.39
299.378
302.026
292.942
291.535
298.799
291.865
307.588
275.081
295.914
305.31
277.182
259.622
287.474
310.884
323.684
314.009
297.188
274.696
276.559
285.87
272.935
265.23
267.095
264.484
270.839
274.928
267.601
251.992
237.369
235.238
271.23
280.283
242.046
228.749
222.773
223.87
255.978
244.513
279.771
277.863
275.85
259.897
247.323
244.683
298.382
292.94
289.098
287.315
287.41
287.599
289.816
291.082
288.911
287.202
286.955
285.876
285.122
285.287
287.49
289.851
293.108
294.269
294.503
294.796
294.736
294.772
294.549
294.764
295.428
295.584
296.303
296.623
296.64
296.84
296.546
296.094
295.786
295.757
295.984
296.224
296.711
296.776
296.859
297.191
297.3
297.535
297.386
297.463
297.529
297.775
298.099
298.588
299.098
299.647
299.995
300.347
300.554
300.846
301.306
301.762
301.776
302.166
302.669
303.331
303.311
303.163
303.061
303.308
303.403
302.606
301.547
301.768
303.728
304.196
302.193
298.848
297.277
297.066
296.15
295.597
294.148
293.495
295.348
293.989
290.707
291.327
291.995
291.905
292.948
292.997
291.815
291.942
291.9
291.761
293.537
296.552
299.959
303.013
304.08
303.04
301.372
299.844
299.856
302.381
304.391
304.404
304.9
304.938
304.084
303.812
304.953
305.739
304.989
307.731
308.474
310.267
316.438
314.374
305.37
302.371
299.353
300.746
296.051
298.663
288.85
294.412
295.629
291.071
295.384
293.517
291.548
297.79
301.836
290.297
300.631
308.293
310.063
305.845
313.114
298.187
296.562
303.949
299.257
295.95
304.842
293.629
317.917
293.963
285.788
318.67
306.86
265.803
278.636
298.696
300.217
292.504
284.604
282.157
282.572
291.909
293.837
288.061
285.171
272.154
269.025
270.998
277.365
273.852
251.899
239.351
273.677
301.778
258.069
230.219
217.742
230.373
274.633
249.532
288.294
282.663
282.578
259.93
242.626
257.593
298.089
291.746
287.803
288.226
289.739
291.072
290.397
286.886
286.041
286.608
285.812
285.186
285.742
286.332
289.618
292.024
293.848
294.55
294.75
295.298
295.184
295.143
295.109
295.809
296.606
297.077
297.371
297.528
297.531
297.233
296.619
296.084
295.813
295.54
295.864
295.968
296.053
296.074
296.032
296.362
296.683
296.979
297.005
297.003
297.041
297.064
297.138
297.375
297.511
297.643
298.11
298.663
299.098
300.133
300.928
301.594
302.264
302.225
302.251
302.546
303.229
303.849
302.86
301.97
303.118
303.864
301.816
300.053
302.382
305.698
306.441
304.708
302.42
300.618
298.068
296.067
294.853
293.808
294.002
291.969
290.837
293.886
294.524
293.124
292.917
292.067
290.976
291.504
291.98
292.506
294.507
297.228
300.45
302.663
301.744
298.456
295.805
294.707
295.223
296.919
298.75
300.19
301.781
303.09
304.389
304.129
306.199
308.693
306.031
304.38
302.319
304.13
314.584
312.723
306.749
301.267
303.445
300.487
296.802
298.332
292.034
283.719
289.514
291.012
295.287
290.353
289.793
298.258
307.19
294.297
291.97
307.017
310.732
301.552
317.514
313.979
297.545
303.165
305.514
296.399
303.329
298.675
311.776
311.202
282.906
313.286
326.632
283.09
281.839
288.912
281.665
294.75
282.294
293.252
303.804
287.436
312.366
327.351
326.717
297.117
277.953
265.995
265.303
283.948
270.829
249.1
276.187
318.739
278.475
236.311
211.853
222.549
238.954
225.458
260.793
289.189
276.64
255.732
243.968
270.165
298.042
291.425
288.05
288.89
289.84
289.811
287.256
284.672
285.004
285.39
285.965
288.02
289.1
290.837
294.344
295.214
294.903
295.232
295.181
296.755
296.973
297.372
297.23
296.872
297.116
296.794
296.497
296.693
296.375
296.013
295.984
295.54
295.074
294.864
295.233
295.719
296.128
296.251
295.85
295.848
296.378
296.902
296.988
296.83
296.664
296.347
296.349
296.249
296.141
296.225
296.458
296.363
296.71
297.147
297.711
298.7
299.764
300.712
301.305
301.949
302.554
303.418
303.568
302.895
304.133
306.459
305.817
303.029
302.746
305.443
306.848
305.881
303.739
300.593
296.064
292.279
290.857
290.282
289.985
289.171
290.653
292.617
290.769
290.271
291.658
290.648
289.772
291.169
291.937
292.328
294.05
296.61
299.892
301.696
299.924
296.743
295.587
296.876
298.774
300.958
303.594
305.03
305.587
306.772
309.155
307.876
308.784
311.597
309.073
310.296
304.997
302.252
311.015
312.384
309.017
304.998
305.23
305.213
301.077
293.793
293.159
283.858
284.013
282.997
290.647
285.374
288.192
303.774
304.045
294.663
296.836
300.905
313.472
293.489
309.958
316.939
307.21
303.222
307.86
304.984
298.998
299.362
313.023
317.413
280.373
320.079
341.515
300.629
295.281
291.807
273.579
291.807
279.413
293.071
333.728
300.233
298.758
320.953
346.633
329.852
297.254
275.436
254.328
268.586
281.56
260.976
271.567
330.844
298.521
243.319
207.701
217.471
217.91
243.765
272.756
294.343
271.038
257.311
254.353
270.351
298.4
292.211
289.185
290.019
290.296
289.027
286.115
285.535
285.321
285.808
285.79
288.28
290.667
292.691
294.368
294.583
293.825
294.99
294.66
295.126
295.274
295.362
296.228
296.228
296.218
296.251
295.772
295.827
296.048
295.944
295.779
295.733
295.836
296.204
296.711
296.966
296.6
295.896
295.324
295.322
295.795
296.602
297.164
297.462
297.701
297.463
297.292
297.287
297.009
297.204
297.427
297.14
297.546
297.617
297.21
297.602
298.148
299.389
299.716
300.232
300.927
301.332
302.442
302.55
301.68
303.034
305.022
304.012
302.286
303.292
305.106
305.37
304.122
300.244
295.468
292.2
291.355
291.163
291.174
290.627
289.878
288.494
287.295
289.453
291.026
289.619
289.054
290.622
291.902
292.766
294.954
297.702
299.901
300.343
298.343
295.193
294.409
296.744
299.526
302.551
305.195
304.733
303.297
302.625
304.23
302.787
303.022
305.189
307.898
313.544
308.361
301.878
308.297
309.95
306.631
308.291
305.346
301.538
300.048
295.718
284.796
281.531
283.136
277.686
283.795
283.607
286.217
302.175
304.125
288.447
304.339
289.54
311.294
287.739
312.521
305.663
310.602
310.667
300.813
314.291
307.52
297.43
313.282
333.824
285.078
317.997
343.7
317.516
311.641
302.05
276.122
283.637
274.905
290.381
333.7
323.871
303.009
295.575
319.745
337.484
315.762
293.618
259.667
254.294
279.399
271.279
264.386
332.145
314.487
251.058
206.879
223.998
218.064
263.028
270.5
301.09
275.42
261.861
257.864
265.261
298.707
292.778
289.72
290.646
290.989
290.288
285.133
284.768
286.795
287.907
288.875
290.372
292.769
294.946
295.59
295.336
295.376
296.949
297.311
296.522
295.859
295.386
295.418
295.434
295.087
295.284
295.71
296.215
296.035
295.34
295.092
295.41
296.273
297.004
296.724
296.276
295.611
295.168
295.266
295.879
296.377
296.593
296.728
297.11
297.492
297.332
296.854
296.459
295.946
295.722
295.404
295.775
295.921
296.762
297.62
297.68
297.633
298.37
299.221
299.539
300.819
301.932
302.445
303.057
301.209
299.932
302.421
303.849
302.509
302.155
303.912
305.375
304.841
300.863
295.748
291.875
291.055
290.732
290.842
290.246
289.165
288.723
288.961
289.824
289.427
288.295
288.772
290.871
292.566
293.676
295.67
298.398
300.229
299.345
296.187
293.055
294.221
298.467
301.549
303.226
303.099
301.502
302.222
302.609
304.009
302.313
302.044
300.35
304.589
312.747
310.605
302.439
304.481
308.683
303.573
305.408
308.252
302.736
296.324
294.494
283.133
273.073
279.455
275.135
283.35
288.549
288.198
295.057
303.431
291.434
312.414
289.2
304.407
286.195
315.904
298.363
310.093
318.233
297.155
313.71
315.683
303.421
302.931
339.031
296.79
314.778
326.633
315.708
319.144
304.898
280.111
282.333
274.091
299.209
328.564
324.343
322.273
315.382
314.26
330.44
323.764
316.424
273.325
252.301
277.966
279.531
260.936
325.135
323.062
256.212
210.294
240.494
227.304
249.309
256.672
282.765
281.67
259.759
255.097
264.617
299.158
293.947
290.378
290.748
290.588
290.59
286.793
284.373
285.915
287.299
289.985
292.302
293.76
294.986
295.234
295.233
295.61
297.002
297.8
297.584
297.104
296.254
295.499
295.57
295.892
296.593
296.477
295.331
293.876
292.51
292.012
292.565
293.544
294.189
294.41
294.838
295.393
296.467
297.498
298.282
298.338
298.1
297.969
298.326
298.84
299.348
299.256
298.572
297.723
297.205
296.102
296.066
295.631
295.613
296.223
296.876
297.222
297.203
297.802
297.974
298.344
300.593
301.349
302.311
303.93
302.989
303.536
305.052
302.895
301.337
303.147
305.772
304.952
300.142
293.999
289.863
289.302
289.574
290.371
290.366
289.939
290.28
289.922
288.604
287.46
287.47
288.789
291.104
293.245
294.527
295.895
297.747
297.783
295.782
293.655
293.494
295.464
298.433
299.628
299.875
300.176
301.138
304.609
303.059
303.315
304.371
307.151
303.227
301.036
310.672
310.919
304.889
307.883
305.881
305.615
306.287
304.716
302.654
295.169
286.963
281.898
272.278
280.98
280.927
289.611
296.294
294.619
291.669
297.245
288.186
309.264
291.904
299.94
285.495
309.707
295.146
306.789
318.759
300.736
307.002
316.071
309.249
295.54
334.452
295.532
319.798
321.189
306.675
317.222
305.62
291.595
289.004
282.316
306.67
325.424
322.064
321.299
330.627
319.059
323.93
324.232
334.096
294.421
256.86
277.28
289.23
260.635
313.066
329.315
260.105
220.315
248.47
236.516
259.7
277.184
277.105
287.857
259.459
253.833
263.936
299.36
294.605
290.842
291.207
291.719
290.71
286.875
284.6
286.784
288.23
289.207
291.504
293.664
294.81
294.493
294.235
294.989
295.909
296.557
295.843
295.532
295.508
295.1
294.984
294.688
294.314
293.973
293.387
292.924
292.321
292.879
294.731
296.216
296.852
297.225
297.777
298.241
298.694
298.635
298.311
297.737
297.417
297.195
297.295
297.605
297.906
298.499
298.63
298.058
297.537
296.58
295.578
294.879
294.847
295.474
296.214
297.18
298.077
298.467
299.217
298.333
298.679
300.03
298.897
300.701
302.72
302.698
304.32
303.66
301.461
302.01
304.327
303.705
299.299
293.243
290.029
289.255
289.508
289.641
290.195
289.816
289.798
288.643
286.763
286.235
287.229
289.06
291.514
293.883
294.13
294.53
295.776
295.378
293.724
292.898
292.92
294.321
297.573
300.062
301.283
302.495
302.414
303.069
296.86
294.611
298.804
309.117
307.399
302.102
307.371
312.917
305.767
303.635
301.756
302.115
307.036
305.348
299.541
293.035
284.622
278.489
273.772
279.509
283.049
293.248
298.302
299.531
298.443
304.365
290.081
308.344
295.263
303.004
284.975
300.058
294.495
298.941
313.114
305.919
300.773
315.002
311.841
292.959
332.227
291.007
318.414
322.409
307.827
313.078
316.615
320.253
304.286
297.672
314.937
321.904
322.102
323.445
329.226
317.424
312.936
315.844
325.598
303.767
261.897
276.25
297.005
263.699
296.386
332.402
262.255
233.327
244.503
236.063
257.204
273.317
272.506
277.47
266.06
257.285
266.696
299.442
294.806
290.405
289.967
292.729
293.189
289.436
284.643
284.954
287.777
290.415
291.704
293.439
294.571
294.725
293.689
294.394
295.438
297.184
297.787
297.431
297.526
297.205
297.138
297.115
296.251
295.586
295.019
295.145
295.331
295.394
296.087
296.631
297.053
297.398
297.596
297.686
297.784
297.584
297.624
297.515
297.337
297.452
297.325
297.734
297.782
297.543
297.424
297.502
297.692
297.811
296.76
295.757
294.032
293.955
294.536
294.974
295.903
296.335
297.452
299.256
298.876
301.134
301.018
298.769
300.286
300.819
302.15
303.077
301.021
300.729
303.493
305.095
301.17
293.767
289.372
287.53
288.064
287.952
288.629
288.498
287.792
286.684
285.979
286.423
287.518
289.2
291.944
294.601
295.474
295.611
295.254
293.66
291.575
291.296
292.767
294.044
296.695
298.421
298.49
299.802
299.116
298.442
292.935
291.339
295.491
308.644
309.417
303.006
304.022
309.109
307.616
304.361
304.736
302.633
304.783
304.364
298.675
289.525
281.501
274.115
273.195
277.88
286.124
294.762
300.597
299.621
298.517
306.201
292.912
309.036
298.924
310.463
288.364
294.031
294.917
292.784
304.528
308.617
298.815
310.328
311.582
297.309
329.175
292.137
314.368
322.999
313.151
305.679
325.704
338.396
317.199
311.716
321.001
321.809
322.183
323.836
325.56
318.426
309.585
297.905
295.847
288.132
261.574
274.951
302.334
268.753
280.184
330.408
263.247
245.701
240.984
236.985
248.527
267.576
271.517
258.435
270.505
268.981
270.983
299.639
295.389
290.475
287.677
289.805
293.361
293.885
289.371
286.073
285.968
288.347
291.145
293.041
294.504
295.282
293.992
293.31
293.143
293.619
295.263
296.271
296.998
296.997
296.691
296.717
296.193
295.718
295.249
295.084
295.168
295.193
295.358
295.63
296.092
296.63
297.03
297.048
297.083
296.74
296.701
297.216
297.044
296.921
296.995
297.268
297.737
296.728
295.611
295.038
295.358
296.679
296.607
296.148
295.183
294.195
294.271
294.701
295.844
297.218
296.472
297.584
298.147
297.668
300.677
300.302
301.219
302.24
301.179
301.963
301.585
301.078
302.667
304.545
301.753
295.256
289.696
287.221
286.781
286.765
286.828
286.984
286.074
285.224
285.654
286.754
287.758
289.168
291.583
293.942
294.753
296.098
297.392
296.076
292.675
291.302
290.687
291.327
295.162
298.344
297.813
297.943
298.361
299.409
298.123
296.884
295.554
303.48
306.266
298.439
302.556
311.311
307.845
304.464
300.903
301.091
305.887
301.921
297.918
288.547
278.654
270.717
271.176
279.005
287.789
292.444
298.549
300.19
301.832
310.711
299.862
307.179
300.555
313.507
293.435
292.738
296.533
291.629
297.937
308.83
301.668
305.137
310.84
306.396
324.854
299.491
311.685
323.705
317.698
303.345
325.899
332.829
320.528
319.168
321.047
319.892
321.674
320.201
319.897
313.992
308.097
283.102
280.263
277.875
266.353
276.123
305.231
271.868
269.167
323.304
264.044
254.115
237.979
237.505
253.489
270.93
270.511
252.588
262.378
271.541
268.187
299.942
296.412
291.055
286.786
287.478
290.598
293.839
293.215
289.516
287.827
287.125
289.289
291.331
293.456
295.331
295.798
294.953
294.369
293.425
293.289
293.746
294.248
294.755
294.908
295.104
295.285
295.342
295.333
295.311
295.178
295.22
295.472
296.111
296.358
296.599
297.05
296.679
296.475
296.867
296.598
296.832
296.933
296.462
297.155
297.818
298.969
298.914
297.551
296.041
294.651
294.378
294.814
294.249
293.827
292.875
293.132
293.346
293.234
295.016
297.309
297
299.465
298.513
298.303
299.731
299.899
301.862
300.884
301.057
301.777
300.609
301.028
303.529
302.47
296.409
290.113
286.872
285.587
285.686
285.42
285.349
285.327
285.352
286.221
287.216
287.416
288.615
291.17
293.246
292.751
293.509
295.728
295.646
293.175
291.832
291.3
291.058
291.793
295.161
296.396
295.781
296.091
297.088
298.474
297.678
295.218
302.251
307.714
305.762
301.428
307.58
308.186
305.319
301.029
298.513
302.349
303.561
295.632
286.657
276.129
272.03
274.01
284.185
292.768
297.583
299.75
300.318
301.005
306.934
298.426
302.367
299.953
309.432
293.685
291.89
298.136
291.586
293.541
306.722
304.059
301.941
309.886
311.175
318.273
308.141
310.779
320.534
315.903
305.523
322.599
320.603
318.569
319.625
318.988
318.26
318.079
316.712
316.313
310.343
304.197
279.801
285.665
292.275
281.404
279.975
296.69
267.234
265.469
313.048
265.329
258.81
233.744
240.376
254.436
264.442
261.97
251.894
257.978
269.504
271.488
300.304
297.852
293.153
287.24
286.156
288.488
291.82
294.576
292.735
290.917
288.692
288.293
289.092
290.638
292.27
294.246
295.113
295.492
295.339
294.964
294.756
294.75
294.966
294.836
295.061
295.193
295.137
295.59
295.689
295.676
296.118
296.223
296.186
296.514
296.624
296.724
296.962
296.45
296.629
296.236
296.205
296.562
296.002
295.693
295.422
295.812
296.17
296.022
295.992
295.448
294.947
294.263
292.76
292.8
292.453
292.695
293.707
294.504
293.547
295.037
295.608
295.73
298.952
298.842
299.509
299.589
300.727
301.705
300.741
301.781
301.649
300.459
301.851
304.083
299.726
292.574
287.715
285.152
284.665
285.083
284.264
284.188
285.595
287.723
288.736
288.284
288.684
290.495
292.367
292.881
292.274
292.974
293.767
291.899
289.596
288.756
289.874
290.885
291.974
293.516
293.227
292.711
291.031
291.968
291.008
289.78
294.665
306.597
299.601
297.117
304.385
306.261
302.178
300.623
301.253
301.525
303.567
294.986
281.245
273.767
270.961
276.666
285.711
294.561
300.638
302.887
303.091
300.342
299.271
292.134
299.743
303.162
306.504
293.927
293.965
297.709
290.261
291.778
303.682
302.352
301.059
307.637
308.01
311.527
310.932
311.184
316.292
309.672
307.74
320.655
312.101
316.153
316.893
316.542
315.27
313.487
313.46
312.912
307.877
297.856
284
291.857
306.385
286.266
277.933
282.076
257.66
263.543
301.769
265.507
260.783
229.269
242.331
255.543
261.703
258.703
248.219
263.234
278.335
281.304
300.343
298.754
296.303
290.123
287.789
288.467
290.259
293.738
294.564
293.852
292.332
290.572
289.724
289.926
290.338
291.421
292.606
293.654
294.439
294.793
294.847
294.919
294.874
295.003
294.968
294.934
295.19
295.073
295.064
295.57
295.472
295.81
296.167
296.395
296.748
296.282
296.256
295.488
295.438
294.952
294.194
294.181
294.628
296.106
295.785
294.185
293.314
293.418
294.626
294.573
292.746
291.236
289.847
290.63
291.688
292.562
292.659
293.474
295.203
295.082
297.058
296.594
296.865
297.938
297.573
299.258
299.223
300.41
300.66
300.25
301.518
300.354
299.418
302.321
302.751
296.055
289.491
285.815
283.774
284.401
284.764
283.872
284.663
287.293
289.213
289.602
290.103
290.697
292.44
292.731
291.87
292.476
293.017
292.138
290.751
288.581
287.37