/*--------------------------------*- C++ -*----------------------------------*\
| =========                 |                                                 |
| \\      /  F ield         | OpenFOAM: The Open Source CFD Toolbox           |
|  \\    /   O peration     | Version:  dev                                   |
|   \\  /    A nd           | Web:      http://www.openfoam.org               |
|    \\/     M anipulation  |                                                 |
\*---------------------------------------------------------------------------*/
FoamFile
{
    version     2.0;
    format      ascii;
    class       volVectorField;
    object      U_0;
    location    "9.154";
}
// * * * * * * * * * * * * * * * * * * * * * * * * * * * * * * * * * * * * * //

dimensions      [0 1 -1 0 0 0 0];

internalField   nonuniform List<vector> 
12225
(
(7.47622 0.255535 0)
(5.63666 -0.0044688 0)
(4.72744 -0.172584 0)
(5.49495 -0.222482 0)
(5.20817 -0.208077 0)
(7.10992 -0.231115 0)
(6.5205 -0.192208 0)
(8.91477 -0.263166 0)
(8.21114 -0.176699 0)
(11.0867 -0.356379 0)
(9.98227 -0.144787 0)
(13.9446 -0.424305 0)
(12.6724 -0.184225 0)
(17.5106 -0.572154 0)
(18.8345 -0.342442 0)
(20.414 0.332078 0)
(30.7452 -5.1568 0)
(33.6245 3.88668 0)
(9.81033 0.355563 0)
(10.5099 0.249546 0)
(8.86862 -0.180717 0)
(10.2592 -0.389445 0)
(7.72094 -0.528865 0)
(11.3516 -0.596027 0)
(7.73456 -0.566316 0)
(13.3246 -0.766546 0)
(8.57402 -0.59494 0)
(15.9176 -0.795044 0)
(9.48939 -0.823982 0)
(20.1069 -1.267 0)
(12.3715 -0.830154 0)
(25.2439 -2.63489 0)
(19.2287 -0.056988 0)
(30.2836 -5.57798 0)
(30.976 -4.447 0)
(48.0072 -13.9101 0)
(9.77405 -0.245741 0)
(13.0993 -0.0763527 0)
(10.7093 -0.443873 0)
(14.4531 -0.534855 0)
(9.76629 -0.789613 0)
(15.7922 -0.776531 0)
(9.02215 -0.995809 0)
(17.9589 -1.15694 0)
(9.58219 -1.14129 0)
(20.6462 -1.35326 0)
(12.0377 -1.44631 0)
(23.2077 -2.33288 0)
(15.8701 -1.62433 0)
(25.7923 -3.74299 0)
(21.7595 -1.46468 0)
(29.2164 -6.34992 0)
(28.0052 -8.09125 0)
(36.3654 -12.0958 0)
(7.82565 -1.01564 0)
(14.8778 -0.573601 0)
(10.1053 -1.0035 0)
(17.121 -0.788789 0)
(10.8423 -1.2522 0)
(18.8107 -1.05707 0)
(11.8591 -1.37524 0)
(20.2937 -1.74405 0)
(13.465 -1.41632 0)
(21.8225 -2.52197 0)
(15.8159 -1.65738 0)
(23.5172 -3.55338 0)
(18.0977 -1.88199 0)
(25.5998 -5.39542 0)
(22.1509 -2.10586 0)
(29.2138 -9.12652 0)
(22.6079 -9.71595 0)
(36.6726 -15.3906 0)
(7.56972 -1.50729 0)
(14.7845 -1.40929 0)
(10.7667 -1.4882 0)
(16.7388 -1.52134 0)
(13.0117 -1.52401 0)
(18.0878 -1.88656 0)
(14.9774 -1.66869 0)
(19.265 -2.55053 0)
(16.5614 -1.69695 0)
(20.3578 -3.29804 0)
(18.313 -2.01353 0)
(21.9323 -4.13706 0)
(19.9425 -2.25315 0)
(23.5458 -6.05278 0)
(22.0762 -2.66299 0)
(27.4121 -9.85286 0)
(21.65 -9.37796 0)
(31.1927 -21.8168 0)
(9.66342 -2.05333 0)
(12.4057 -2.32429 0)
(12.0742 -2.1428 0)
(14.3023 -2.30495 0)
(14.1405 -2.08738 0)
(15.9165 -2.55159 0)
(15.9483 -2.18368 0)
(17.5653 -3.092 0)
(17.5753 -2.1315 0)
(19.0839 -4.01612 0)
(19.081 -2.58935 0)
(20.6486 -4.91906 0)
(20.6321 -2.93308 0)
(22.5751 -7.17746 0)
(22.9125 -4.53505 0)
(25.663 -9.482 0)
(23.7819 -8.34972 0)
(22.5395 -23.3025 0)
(10.8691 -2.60294 0)
(10.6246 -3.28236 0)
(12.7988 -2.43929 0)
(12.5918 -3.38195 0)
(14.4423 -2.30132 0)
(14.3014 -3.75803 0)
(16.2769 -2.43916 0)
(16.2914 -4.3494 0)
(18.4172 -2.37882 0)
(18.5951 -5.19071 0)
(20.0575 -2.59866 0)
(20.1287 -6.06309 0)
(21.8894 -2.99689 0)
(22.5469 -8.12188 0)
(24.0038 -4.74298 0)
(24.4597 -11.2783 0)
(24.8807 -7.98023 0)
(18.9386 -17.9 0)
(11.0346 -3.0594 0)
(10.8734 -3.76941 0)
(13.2401 -3.07406 0)
(12.8525 -3.83908 0)
(14.7109 -3.01835 0)
(14.4818 -4.19623 0)
(16.2922 -3.28491 0)
(16.4409 -4.78946 0)
(18.144 -3.45196 0)
(18.6416 -5.44486 0)
(19.5068 -3.61236 0)
(20.4086 -6.22729 0)
(21.4234 -4.73174 0)
(22.8067 -8.22332 0)
(22.8542 -6.51513 0)
(24.2017 -10.1942 0)
(23.1853 -8.64812 0)
(22.1294 -14.9414 0)
(10.9172 -3.68513 0)
(10.8589 -4.62975 0)
(13.1172 -3.3771 0)
(12.7678 -4.65964 0)
(14.7813 -3.23714 0)
(14.4736 -5.12124 0)
(16.4258 -3.61727 0)
(16.2311 -5.70738 0)
(18.1227 -3.79956 0)
(18.0406 -6.26072 0)
(19.6732 -4.09099 0)
(19.7863 -7.1297 0)
(21.3784 -5.36407 0)
(21.7385 -8.85767 0)
(22.2005 -6.94241 0)
(22.6393 -10.8437 0)
(22.3798 -9.10645 0)
(21.8184 -13.327 0)
(10.6154 -4.43141 0)
(10.7449 -5.18433 0)
(12.6375 -4.05684 0)
(12.8413 -5.11658 0)
(14.5348 -4.12777 0)
(14.82 -5.40293 0)
(16.2149 -4.49114 0)
(16.5424 -5.86573 0)
(17.6427 -4.83617 0)
(18.1394 -6.3068 0)
(19.1539 -5.37604 0)
(19.7838 -7.17169 0)
(20.5702 -6.56034 0)
(21.4163 -8.49336 0)
(21.491 -8.25167 0)
(22.1096 -9.97018 0)
(21.7257 -10.092 0)
(21.391 -11.9032 0)
(10.3015 -4.90877 0)
(11.0194 -6.05093 0)
(12.4495 -4.7969 0)
(12.9134 -5.98096 0)
(14.2481 -4.83508 0)
(14.7666 -6.27904 0)
(15.9216 -5.16777 0)
(16.4467 -6.67312 0)
(17.2614 -5.51576 0)
(17.933 -7.09648 0)
(18.6991 -6.06541 0)
(19.2508 -7.87556 0)
(19.9677 -7.3049 0)
(20.5847 -9.02502 0)
(20.8248 -8.90313 0)
(21.1273 -10.2635 0)
(21.1016 -10.6864 0)
(20.8442 -11.4144 0)
(10.8274 -5.86548 0)
(11.3997 -6.604 0)
(12.2752 -5.70982 0)
(12.8216 -6.52627 0)
(13.8774 -5.88046 0)
(14.5527 -6.7291 0)
(15.4544 -6.13611 0)
(16.152 -6.99844 0)
(16.8028 -6.55344 0)
(17.6231 -7.41064 0)
(18.236 -7.31217 0)
(18.9154 -8.18248 0)
(19.4887 -8.33746 0)
(20.065 -9.21196 0)
(20.28 -9.62502 0)
(20.4928 -10.3482 0)
(20.5381 -10.8904 0)
(20.3503 -11.3545 0)
(10.4871 -6.65087 0)
(11.4131 -7.27773 0)
(12.2164 -6.62218 0)
(12.8657 -7.24719 0)
(13.6914 -6.7965 0)
(14.423 -7.46946 0)
(15.259 -7.06532 0)
(16.0891 -7.68146 0)
(16.7269 -7.4354 0)
(17.4726 -8.02528 0)
(18.0591 -8.11409 0)
(18.5941 -8.71268 0)
(19.0839 -9.03928 0)
(19.4992 -9.63951 0)
(19.7014 -10.1449 0)
(19.8353 -10.638 0)
(19.8905 -11.1007 0)
(19.7883 -11.4586 0)
(10.5161 -7.64901 0)
(11.3475 -7.89163 0)
(12.0725 -7.46248 0)
(12.7789 -7.78768 0)
(13.5604 -7.74694 0)
(14.2671 -8.13517 0)
(14.9905 -8.05809 0)
(15.6902 -8.37667 0)
(16.3032 -8.39217 0)
(16.9736 -8.69643 0)
(17.532 -8.9384 0)
(18.0441 -9.34858 0)
(18.5375 -9.68297 0)
(18.9389 -10.1263 0)
(19.1826 -10.5136 0)
(19.3794 -10.8813 0)
(19.4546 -11.203 0)
(19.4366 -11.5142 0)
(10.3967 -8.02836 0)
(11.2119 -8.54417 0)
(11.9969 -8.44737 0)
(12.7923 -8.62694 0)
(13.5405 -8.62136 0)
(14.2593 -8.75007 0)
(14.8849 -8.73771 0)
(15.5167 -8.91092 0)
(16.1033 -9.03533 0)
(16.6573 -9.29081 0)
(17.1467 -9.54706 0)
(17.6008 -9.86934 0)
(17.978 -10.1845 0)
(18.3096 -10.5398 0)
(18.5557 -10.8313 0)
(18.7305 -11.1296 0)
(18.8463 -11.3746 0)
(18.8618 -11.5806 0)
(10.3843 -8.96718 0)
(11.2175 -9.1372 0)
(11.9731 -9.04533 0)
(12.6477 -9.16439 0)
(13.2589 -9.21811 0)
(13.9049 -9.34183 0)
(14.5434 -9.3916 0)
(15.2043 -9.51151 0)
(15.8061 -9.62583 0)
(16.4037 -9.79829 0)
(16.9269 -9.98875 0)
(17.3811 -10.2068 0)
(17.7665 -10.444 0)
(18.0939 -10.6911 0)
(18.3167 -10.9227 0)
(18.4963 -11.1542 0)
(18.5953 -11.3205 0)
(18.5986 -11.4523 0)
(10.1684 -9.50322 0)
(11.0097 -9.65585 0)
(11.8065 -9.49292 0)
(12.5659 -9.5298 0)
(13.2647 -9.53109 0)
(13.9655 -9.56902 0)
(14.581 -9.62898 0)
(15.1811 -9.76194 0)
(15.7194 -9.89439 0)
(16.2143 -10.0496 0)
(16.6346 -10.2053 0)
(17.0314 -10.3549 0)
(17.3751 -10.5009 0)
(17.6642 -10.6438 0)
(17.8754 -10.7836 0)
(18.0576 -10.8919 0)
(18.1888 -11.0001 0)
(18.2649 -11.0857 0)
(10.4753 -9.37521 0)
(11.1098 -9.61294 0)
(11.8022 -9.48582 0)
(12.5362 -9.52716 0)
(13.2369 -9.57267 0)
(13.9177 -9.59799 0)
(14.5398 -9.61394 0)
(15.1434 -9.62907 0)
(15.6872 -9.674 0)
(16.1985 -9.74521 0)
(16.6372 -9.83211 0)
(17.0133 -9.9407 0)
(17.3226 -10.0575 0)
(17.5964 -10.1726 0)
(17.8156 -10.2965 0)
(17.9918 -10.3903 0)
(18.1055 -10.4713 0)
(18.1794 -10.5121 0)
(10.3024 -9.01544 0)
(11.2101 -9.19799 0)
(11.9874 -9.11 0)
(12.7172 -9.11045 0)
(13.3784 -9.08979 0)
(14.0275 -9.06993 0)
(14.6174 -9.0803 0)
(15.1696 -9.1276 0)
(15.6852 -9.20076 0)
(16.1676 -9.25752 0)
(16.5919 -9.3037 0)
(16.9812 -9.32891 0)
(17.3138 -9.34606 0)
(17.6259 -9.3633 0)
(17.8682 -9.40178 0)
(18.0867 -9.45725 0)
(18.2495 -9.50037 0)
(18.3538 -9.54134 0)
(10.332 -8.43154 0)
(11.079 -8.61072 0)
(11.7543 -8.42559 0)
(12.449 -8.41288 0)
(13.1078 -8.41897 0)
(13.8132 -8.40865 0)
(14.4714 -8.40553 0)
(15.0683 -8.39773 0)
(15.6071 -8.39951 0)
(16.1 -8.41018 0)
(16.5354 -8.4336 0)
(16.9433 -8.46756 0)
(17.2914 -8.50146 0)
(17.617 -8.54319 0)
(17.8833 -8.57908 0)
(18.1253 -8.60974 0)
(18.3173 -8.63004 0)
(18.4456 -8.62675 0)
(10.5011 -7.27668 0)
(11.1755 -7.57741 0)
(11.9712 -7.47484 0)
(12.752 -7.49737 0)
(13.423 -7.53711 0)
(14.0313 -7.55239 0)
(14.602 -7.5513 0)
(15.1426 -7.56509 0)
(15.6372 -7.57234 0)
(16.114 -7.58038 0)
(16.5366 -7.58647 0)
(16.9473 -7.58588 0)
(17.2991 -7.57402 0)
(17.6198 -7.55882 0)
(17.888 -7.55279 0)
(18.1054 -7.53492 0)
(18.2803 -7.52439 0)
(18.396 -7.51582 0)
(10.4588 -6.35031 0)
(11.2153 -6.73028 0)
(12.0242 -6.70308 0)
(12.804 -6.68495 0)
(13.4941 -6.64194 0)
(14.1508 -6.61 0)
(14.7647 -6.58014 0)
(15.3327 -6.5849 0)
(15.8637 -6.59934 0)
(16.3131 -6.60688 0)
(16.7311 -6.61842 0)
(17.116 -6.62142 0)
(17.4689 -6.61892 0)
(17.7914 -6.61501 0)
(18.07 -6.5936 0)
(18.3239 -6.57017 0)
(18.5155 -6.54065 0)
(18.6784 -6.50328 0)
(10.5222 -5.48436 0)
(11.3478 -5.77838 0)
(12.2809 -5.71319 0)
(13.0834 -5.67039 0)
(13.7267 -5.64804 0)
(14.3016 -5.64666 0)
(14.8546 -5.67516 0)
(15.3841 -5.69514 0)
(15.8889 -5.7121 0)
(16.3269 -5.70728 0)
(16.7447 -5.70443 0)
(17.115 -5.69517 0)
(17.4684 -5.67886 0)
(17.8023 -5.66485 0)
(18.0963 -5.63323 0)
(18.3506 -5.59784 0)
(18.5735 -5.5552 0)
(18.7657 -5.51308 0)
(10.4948 -4.63841 0)
(11.2048 -4.95484 0)
(12.115 -4.93527 0)
(12.9754 -4.84538 0)
(13.742 -4.76283 0)
(14.4276 -4.72703 0)
(15.0575 -4.72459 0)
(15.6391 -4.73414 0)
(16.1588 -4.75154 0)
(16.5906 -4.7677 0)
(16.9885 -4.78286 0)
(17.3263 -4.78978 0)
(17.6374 -4.78417 0)
(17.9186 -4.77642 0)
(18.1734 -4.76333 0)
(18.3999 -4.73984 0)
(18.6035 -4.70578 0)
(18.7884 -4.67131 0)
(10.5922 -3.82442 0)
(11.3729 -4.10687 0)
(12.3127 -4.07362 0)
(13.1963 -3.99271 0)
(13.9593 -3.94773 0)
(14.6203 -3.95636 0)
(15.2307 -3.96492 0)
(15.8005 -3.95751 0)
(16.3178 -3.93174 0)
(16.7896 -3.91997 0)
(17.2186 -3.91898 0)
(17.5951 -3.90781 0)
(17.9266 -3.89988 0)
(18.2111 -3.87625 0)
(18.4669 -3.86292 0)
(18.6782 -3.83659 0)
(18.8752 -3.81215 0)
(19.0441 -3.79329 0)
(10.3624 -2.95264 0)
(11.3945 -3.36295 0)
(12.4668 -3.38195 0)
(13.4204 -3.27481 0)
(14.2311 -3.17712 0)
(14.9469 -3.13186 0)
(15.6022 -3.12592 0)
(16.1902 -3.11897 0)
(16.6901 -3.11591 0)
(17.1109 -3.12153 0)
(17.4821 -3.14161 0)
(17.8074 -3.13632 0)
(18.0939 -3.1343 0)
(18.3333 -3.11244 0)
(18.5566 -3.09331 0)
(18.7523 -3.0674 0)
(18.9237 -3.04828 0)
(19.0635 -3.03943 0)
(10.4967 -2.42156 0)
(11.4872 -2.82459 0)
(12.6308 -2.75201 0)
(13.6018 -2.60484 0)
(14.3611 -2.53324 0)
(14.9852 -2.52055 0)
(15.532 -2.50564 0)
(16.0153 -2.46903 0)
(16.4473 -2.41297 0)
(16.8033 -2.38553 0)
(17.1028 -2.37393 0)
(17.3437 -2.35508 0)
(17.5334 -2.34294 0)
(17.686 -2.32475 0)
(17.831 -2.30506 0)
(17.9427 -2.28299 0)
(18.0515 -2.27267 0)
(18.1126 -2.27281 0)
(10.4255 -1.77039 0)
(11.6419 -2.25278 0)
(12.6533 -2.1276 0)
(13.3954 -1.95217 0)
(13.8907 -1.83316 0)
(14.2433 -1.76861 0)
(14.4661 -1.73464 0)
(14.6673 -1.69869 0)
(14.8323 -1.66441 0)
(15.0056 -1.63181 0)
(15.1256 -1.62271 0)
(15.2338 -1.59547 0)
(15.3272 -1.57491 0)
(15.3953 -1.564 0)
(15.4559 -1.55482 0)
(15.4847 -1.54427 0)
(15.5153 -1.54138 0)
(15.4793 -1.53104 0)
(10.5555 -1.47141 0)
(11.0599 -1.82052 0)
(11.129 -1.56376 0)
(11.0242 -1.31771 0)
(10.9472 -1.13836 0)
(10.9435 -1.00418 0)
(10.9558 -0.92905 0)
(11.0366 -0.890581 0)
(11.1196 -0.870622 0)
(11.2647 -0.860397 0)
(11.3567 -0.845975 0)
(11.4691 -0.839015 0)
(11.5717 -0.831934 0)
(11.6623 -0.832131 0)
(11.7434 -0.830619 0)
(11.7995 -0.834573 0)
(11.8533 -0.840725 0)
(11.8616 -0.844881 0)
(8.8173 -0.607431 0)
(7.13126 -0.606236 0)
(6.14087 -0.373475 0)
(5.79928 -0.261402 0)
(5.9069 -0.228392 0)
(6.23674 -0.212483 0)
(6.63283 -0.219878 0)
(7.04735 -0.233258 0)
(7.42735 -0.238375 0)
(7.804 -0.245762 0)
(8.11864 -0.235828 0)
(8.39563 -0.245215 0)
(8.66179 -0.243048 0)
(8.89627 -0.247975 0)
(9.0897 -0.249014 0)
(9.25164 -0.257169 0)
(9.38953 -0.263161 0)
(9.45295 -0.261204 0)
(-0.117669 -0.305185 0)
(-0.394048 -0.282296 0)
(-0.694001 -0.262083 0)
(-0.986986 -0.259855 0)
(-1.27196 -0.259625 0)
(-1.55529 -0.256609 0)
(-1.83969 -0.251999 1.14291e-17)
(-2.12783 -0.248806 -1.13577e-17)
(-2.41984 -0.244105 0)
(-2.7245 -0.23807 -1.12143e-17)
(-3.04871 -0.229703 0)
(-3.39174 -0.21033 0)
(-3.74324 -0.176836 0)
(-4.10945 -0.140903 1.09403e-17)
(-4.47645 -0.108733 0)
(-4.83948 -0.0958773 0)
(-5.23035 -0.110754 -1.07465e-17)
(-5.64905 -0.136613 0)
(-6.09108 -0.146815 0)
(-6.53401 -0.108246 0)
(-6.92926 -0.0482673 1.0494e-17)
(-7.31263 -0.0268328 0)
(-7.71451 -0.0736196 1.03691e-17)
(-8.17549 -0.14881 0)
(-8.69726 -0.155562 0)
(-9.25488 -0.0841366 1.01679e-17)
(-9.86529 0.0141336 0)
(-10.5242 0.0874564 -1.00411e-17)
(-11.2148 0.13353 0)
(-11.9156 0.162325 9.92422e-18)
(-12.6102 0.170786 0)
(-13.2697 0.15974 0)
(-13.8612 0.128179 0)
(-14.3711 0.073052 0)
(-14.7891 0.00154414 0)
(-15.1118 -0.0687234 -9.50289e-18)
(-15.3529 -0.126677 0)
(-15.5281 -0.171755 1.87153e-17)
(-15.6438 -0.205739 0)
(-15.707 -0.235021 -1.84652e-17)
(-15.7172 -0.265573 0)
(-15.6707 -0.300176 0)
(-15.5782 -0.334249 1.81188e-17)
(-15.45 -0.363924 0)
(-15.2802 -0.39203 1.78888e-17)
(-15.0739 -0.416429 -1.77713e-17)
(-14.8424 -0.429821 0)
(-14.5927 -0.440618 -1.75409e-17)
(-14.3284 -0.458647 -1.74319e-17)
(-14.0276 -0.493218 0)
(-13.6679 -0.528755 0)
(-13.2545 -0.549696 0)
(-12.7994 -0.557645 0)
(-12.3204 -0.569492 0)
(-11.8334 -0.555655 1.67084e-17)
(-11.4006 -0.543864 0)
(-10.9707 -0.520869 -1.65019e-17)
(-10.6264 -0.479019 0)
(-10.3302 -0.451172 0)
(-10.0794 -0.443281 1.61847e-17)
(-9.85209 -0.441193 0)
(-9.62749 -0.448944 -1.59442e-17)
(-9.3993 -0.475142 0)
(-9.17243 -0.502844 0)
(-8.93109 -0.526369 0)
(-8.66941 -0.552399 1.54516e-17)
(-8.36014 -0.582944 0)
(-7.98605 -0.616677 0)
(-7.55158 -0.632757 1.5133e-17)
(-7.06059 -0.640477 0)
(-6.56718 -0.625019 1.49318e-17)
(-6.14761 -0.584075 0)
(-5.87485 -0.547782 0)
(-5.70551 -0.522529 0)
(-5.618 -0.47648 -1.45075e-17)
(-5.58088 -0.440382 0)
(-5.49466 -0.509169 0)
(-5.32088 -0.540091 -1.41763e-17)
(-5.18984 -0.395367 -1.41115e-17)
(-5.21392 -0.160674 0)
(-5.23997 -0.0482921 -1.40233e-17)
(-5.2016 -0.160487 0)
(-5.11086 -0.435878 -2.76286e-17)
(-5.02623 -0.694125 0)
(-4.89526 -0.761685 -2.71838e-17)
(-4.68787 -0.757723 0)
(-4.23414 -0.756736 2.67564e-17)
(-3.40335 -0.819142 0)
(-2.3796 -0.68231 0)
(-1.46175 -0.339976 0)
(-0.688938 -0.171196 -2.59113e-17)
(-0.0176144 -0.506421 0)
(0.646427 -1.19386 2.58207e-17)
(1.21212 -1.41038 0)
(1.10715 -0.78012 -2.59636e-17)
(-0.05716 0.037122 -2.56788e-17)
(-1.69782 0.587909 -2.52825e-17)
(-3.18719 0.67777 0)
(-4.24095 0.448505 0)
(-4.92715 0.116028 0)
(-5.56221 -0.148345 0)
(-6.52264 -0.0354293 0)
(-8.21465 0.616484 0)
(-10.027 0.914992 0)
(-10.0258 0.0954291 0)
(-7.97137 -0.997839 2.40149e-17)
(-5.90268 -1.1089 2.37322e-17)
(-4.83253 -0.579947 0)
(-4.08134 -0.245042 0)
(-2.7714 -0.214466 0)
(-1.34043 -0.294339 2.2954e-17)
(0.572756 0.0945289 0)
(-1.08233 0.485528 0)
(-0.620716 -0.488472 0)
(1.37163 -0.00726466 0)
(0.846953 -0.0530958 -2.22706e-17)
(1.47505 -0.11249 0)
(2.14845 -0.302297 0)
(2.89601 -0.18283 2.2023e-17)
(3.95589 -0.366988 -2.18896e-17)
(5.28299 -0.0949989 0)
(6.09646 0.331182 -2.14185e-17)
(5.79776 0.603913 0)
(4.7588 0.698906 2.09933e-17)
(3.46816 0.735897 0)
(2.11528 0.827476 0)
(0.834055 0.895723 0)
(-0.518042 0.995242 0)
(-1.82427 1.09309 0)
(-3.33336 1.21303 -4.03381e-17)
(-4.83043 1.34169 -4.0096e-17)
(-6.58283 1.45179 0)
(-8.20371 1.4927 0)
(-9.85099 1.61005 0)
(-11.1775 1.63218 3.88452e-17)
(-12.5448 1.74529 0)
(-13.473 1.81065 0)
(-14.5873 1.96139 0)
(-15.0209 1.9418 3.73894e-17)
(-15.6052 2.16842 -3.71277e-17)
(-15.7449 2.24778 0)
(-16.0831 2.36151 0)
(-15.7445 2.45414 -3.60859e-17)
(-16.0189 2.54777 -3.58832e-17)
(-15.7538 2.59411 0)
(-15.3107 2.64227 0)
(-14.7883 2.60429 3.5069e-17)
(-13.4079 2.60327 -3.48643e-17)
(-12.6863 2.86475 0)
(-12.0511 3.23508 0)
(-13.7652 3.66492 -3.44599e-17)
(-14.9476 3.1385 0)
(-12.9792 3.25986 0)
(-13.2246 3.25611 -3.35509e-17)
(-10.1631 2.73156 0)
(-6.47275 3.43273 -3.3048e-17)
(-5.96806 3.6535 0)
(-6.00066 3.65992 0)
(-5.2193 3.68836 0)
(-4.00228 3.76392 3.12726e-17)
(-2.93956 3.96867 0)
(-2.1491 4.05612 0)
(-1.60238 4.07019 0)
(-1.0677 4.05696 0)
(-0.420636 4.08261 0)
(0.503271 4.06606 0)
(2.43767 3.98861 2.85176e-17)
(4.97861 3.98566 2.82692e-17)
(7.42294 3.7413 0)
(10.3925 3.51235 0)
(11.2662 4.1802 0)
(10.5046 4.55943 -2.95417e-17)
(6.33746 4.64033 0)
(5.52528 2.48835 5.47349e-17)
(15.0763 1.2774 -5.78678e-17)
(20.6376 2.92867 -5.66691e-17)
(19.7565 2.97547 5.68974e-17)
(20.3734 3.05286 -5.82206e-17)
(16.6793 3.18697 5.95051e-17)
(12.3144 2.643 0)
(-0.130488 -0.787889 0)
(-0.416632 -0.691129 0)
(-0.718959 -0.682707 -2.32877e-17)
(-1.00786 -0.720148 0)
(-1.28305 -0.742146 2.3005e-17)
(-1.56935 -0.747142 2.28525e-17)
(-1.85536 -0.738736 1.13499e-17)
(-2.14333 -0.724407 1.12698e-17)
(-2.42313 -0.688379 0)
(-2.72297 -0.622784 1.11004e-17)
(-3.02881 -0.553311 0)
(-3.33114 -0.49516 0)
(-3.65768 -0.474339 -2.17908e-17)
(-4.03445 -0.508316 -1.08314e-17)
(-4.45455 -0.540869 2.1464e-17)
(-4.90785 -0.466418 2.12536e-17)
(-5.38296 -0.306021 1.05547e-17)
(-5.86698 -0.155818 0)
(-6.32678 -0.0980617 0)
(-6.76771 -0.184216 0)
(-7.25433 -0.360737 1.0364e-17)
(-7.84632 -0.385277 0)
(-8.51745 -0.104551 -3.04919e-17)
(-9.2657 0.208031 0)
(-10.1055 0.385772 0)
(-10.9521 0.493142 -1.00159e-17)
(-11.7785 0.607154 0)
(-12.5923 0.689545 9.90632e-18)
(-13.3794 0.731835 1.9685e-17)
(-14.1082 0.724148 -9.78497e-18)
(-14.7667 0.66484 0)
(-15.3365 0.529843 0)
(-15.8351 0.345136 0)
(-16.26 0.147812 1.90578e-17)
(-16.6034 -0.0476991 1.89268e-17)
(-16.88 -0.217884 9.40457e-18)
(-17.0807 -0.36709 0)
(-17.1918 -0.504269 -1.85688e-17)
(-17.2201 -0.637577 0)
(-17.1738 -0.761791 1.83396e-17)
(-17.0614 -0.883835 0)
(-16.8997 -0.991993 0)
(-16.7031 -1.07941 -1.79996e-17)
(-16.4689 -1.16359 0)
(-16.1996 -1.24767 -5.32841e-17)
(-15.8923 -1.30694 1.76433e-17)
(-15.564 -1.36438 0)
(-15.1956 -1.38599 1.73875e-17)
(-14.7846 -1.41496 1.72759e-17)
(-14.3237 -1.52015 0)
(-13.8238 -1.67598 0)
(-13.3188 -1.82465 0)
(-12.7866 -1.88704 0)
(-12.2636 -1.96305 0)
(-11.6211 -1.90693 -1.65294e-17)
(-11.1328 -1.88675 -3.28386e-17)
(-10.5234 -1.82706 1.63148e-17)
(-10.0384 -1.65842 0)
(-9.6278 -1.57939 -3.22185e-17)
(-9.3335 -1.56016 1.60013e-17)
(-9.08325 -1.55395 0)
(-8.83498 -1.54774 1.58058e-17)
(-8.53112 -1.58001 0)
(-8.23082 -1.59949 0)
(-7.9174 -1.6197 3.07804e-17)
(-7.59432 -1.71679 -1.52656e-17)
(-7.2458 -1.85658 3.02671e-17)
(-6.76798 -2.02218 -3.0046e-17)
(-6.20766 -2.13687 -1.49325e-17)
(-5.53652 -2.19199 0)
(-4.81473 -2.13218 -1.47379e-17)
(-4.15257 -1.92053 0)
(-3.73088 -1.61872 0)
(-3.43119 -1.4733 0)
(-3.23847 -1.4195 -1.43078e-17)
(-3.16554 -1.40367 0)
(-3.12205 -1.58345 -2.81246e-17)
(-3.12775 -1.66648 4.19474e-17)
(-3.13678 -1.51549 1.39193e-17)
(-3.09541 -1.58567 0)
(-2.89351 -1.84997 1.37656e-17)
(-2.63662 -1.8229 0)
(-2.33739 -1.56982 2.71397e-17)
(-1.9696 -1.29625 0)
(-1.68447 -1.21923 2.70016e-17)
(-1.64998 -1.55069 -5.36796e-17)
(-1.4346 -2.2272 -2.66608e-17)
(-0.766851 -2.86447 0)
(0.135899 -3.00059 0)
(1.05333 -2.84685 0)
(2.07636 -2.82966 2.55558e-17)
(2.19656 -2.45064 0)
(0.544005 -1.30065 -2.54958e-17)
(-1.82918 0.00359254 0)
(-4.04429 0.986347 7.57141e-17)
(-5.90332 1.45873 2.52229e-17)
(-7.15633 1.33214 2.52506e-17)
(-7.81121 0.883844 0)
(-8.0739 0.431784 0)
(-8.47572 0.427111 0)
(-9.72433 1.07496 0)
(-11.7769 2.03916 0)
(-13.4556 2.09333 5.0431e-17)
(-13.3813 0.32779 4.95475e-17)
(-11.7761 -2.25395 0)
(-10.2592 -3.09105 -2.37682e-17)
(-9.47615 -1.95194 -2.40733e-17)
(-8.54561 -1.02865 0)
(-6.67189 -1.51366 -4.72593e-17)
(-4.39959 -2.34836 0)
(-2.62088 -2.38429 2.29394e-17)
(-0.314754 -0.613446 0)
(-0.813391 1.02601 0)
(0.0198399 -2.1536 -4.50704e-17)
(2.68806 -0.65547 0)
(2.87959 -0.296456 2.24767e-17)
(3.18395 -0.670892 0)
(4.18975 -1.26422 0)
(4.55706 -0.941921 2.22801e-17)
(5.33829 -1.84375 2.23181e-17)
(6.39185 -1.46545 0)
(7.70012 -0.336497 -2.1809e-17)
(8.09868 0.820016 0)
(7.808 1.51976 2.09539e-17)
(6.99894 1.84187 4.13615e-17)
(5.85344 2.02939 0)
(4.85044 2.10859 0)
(3.75306 2.39117 0)
(2.97256 2.68859 0)
(1.88017 3.17699 3.95231e-17)
(0.893354 3.59052 1.17546e-16)
(-0.785844 4.06493 0)
(-2.03339 4.30193 0)
(-3.94953 4.61891 0)
(-5.29098 4.89192 -3.75851e-17)
(-7.07241 5.251 0)
(-7.99267 5.22482 0)
(-9.65763 5.57033 7.27488e-17)
(-9.99601 5.67286 3.56251e-17)
(-11.044 6.02638 3.55149e-17)
(-11.0618 6.29024 0)
(-11.7705 6.57865 0)
(-11.2089 6.8154 3.40294e-17)
(-11.7136 7.14554 -3.34015e-17)
(-11.8856 7.28057 0)
(-11.0453 7.56324 0)
(-11.3325 7.43536 -3.29723e-17)
(-10.636 7.33062 9.8811e-17)
(-10.8023 7.96813 0)
(-10.5643 9.09541 0)
(-13.0535 10.7513 3.3187e-17)
(-15.904 9.35462 0)
(-14.0259 8.589 6.61878e-17)
(-12.8051 8.7313 -3.23116e-17)
(-9.86029 6.61296 0)
(-3.34442 8.6001 3.1854e-17)
(-1.45764 10.3004 6.19436e-17)
(-1.66553 10.4496 0)
(-1.35963 9.92 0)
(-0.280154 9.80893 -2.82426e-17)
(0.852827 10.3967 0)
(1.54456 11.0354 5.57031e-17)
(1.6556 11.3345 0)
(1.44242 11.4577 0)
(1.50941 11.1512 0)
(2.03103 10.3329 0)
(3.74298 9.57258 -2.45169e-17)
(6.31219 9.45575 -2.37636e-17)
(8.41872 9.41412 0)
(10.1288 10.1118 0)
(8.89367 11.4536 0)
(7.07229 11.7941 2.58443e-17)
(3.71895 11.4458 0)
(4.60867 5.9761 -5.34294e-17)
(12.1406 3.18093 5.76304e-17)
(19.8571 6.53047 5.14954e-17)
(19.1113 7.10981 4.96172e-17)
(19.8822 7.6317 5.19095e-17)
(15.609 9.16076 5.43083e-17)
(10.398 8.01802 0)
(-0.131917 -1.34512 0)
(-0.390362 -1.24974 0)
(-0.669105 -1.23986 2.33518e-17)
(-0.942732 -1.29493 2.3174e-17)
(-1.17396 -1.30759 -2.30117e-17)
(-1.41321 -1.28136 -2.28364e-17)
(-1.66656 -1.26691 -5.1755e-21)
(-1.92965 -1.2753 0)
(-2.18771 -1.24829 0)
(-2.46305 -1.1762 0)
(-2.79384 -1.17063 0)
(-3.20861 -1.11259 0)
(-3.63641 -0.888089 6.40216e-17)
(-4.10374 -0.657963 0)
(-4.6319 -0.439029 -2.12521e-17)
(-5.1484 -0.312762 -2.12539e-17)
(-5.62069 -0.282747 0)
(-6.07118 -0.362434 0)
(-6.58459 -0.453764 0)
(-7.25761 -0.302725 0)
(-8.10382 0.137895 -2.05065e-17)
(-9.11388 0.510516 0)
(-10.0955 0.719169 2.02997e-17)
(-10.9545 0.906746 0)
(-11.8276 1.06699 0)
(-12.6776 1.17162 0)
(-13.486 1.25058 3.96751e-17)
(-14.2811 1.26553 0)
(-15.0236 1.17986 -1.9691e-17)
(-15.6847 1.04013 3.92527e-17)
(-16.2749 0.806808 0)
(-16.797 0.550156 0)
(-17.2518 0.279089 0)
(-17.6408 -0.0116247 -1.93234e-17)
(-17.9601 -0.284502 -1.92347e-17)
(-18.1923 -0.569042 0)
(-18.3271 -0.861254 0)
(-18.3629 -1.1546 3.78035e-17)
(-18.3202 -1.42009 3.75767e-17)
(-18.2139 -1.64148 -3.73332e-17)
(-18.0484 -1.81944 0)
(-17.8238 -1.96322 0)
(-17.5846 -2.08971 0)
(-17.3108 -2.19679 0)
(-16.9986 -2.31299 3.60947e-17)
(-16.6839 -2.40971 3.58098e-17)
(-16.3309 -2.54507 -3.55436e-17)
(-15.9081 -2.67556 0)
(-15.4337 -2.77699 0)
(-14.903 -2.94153 0)
(-14.3544 -3.10353 0)
(-13.8171 -3.21102 3.42199e-17)
(-13.3189 -3.23024 0)
(-12.875 -3.2798 0)
(-12.2795 -3.23396 3.34028e-17)
(-11.7536 -3.29239 3.32208e-17)
(-11.2179 -3.26228 0)
(-10.5018 -2.95671 -6.48922e-17)
(-9.83475 -2.6862 3.21832e-17)
(-9.23012 -2.48732 -3.19236e-17)
(-8.67506 -2.42655 0)
(-8.20318 -2.45558 0)
(-7.77741 -2.5875 0)
(-7.39363 -2.71222 0)
(-7.11303 -2.72857 -3.09442e-17)
(-6.90489 -2.8213 -6.13878e-17)
(-6.74726 -3.0871 -3.05498e-17)
(-6.3781 -3.41396 3.03649e-17)
(-5.75674 -3.68942 0)
(-5.00572 -3.96166 -5.98378e-17)
(-4.07243 -3.99303 -5.92281e-17)
(-3.10293 -3.54918 -5.85764e-17)
(-2.39357 -3.04629 5.81189e-17)
(-1.64992 -2.84411 0)
(-0.973364 -2.56316 8.56799e-17)
(-0.598416 -2.21662 0)
(-0.241027 -2.1848 -2.81738e-17)
(-0.0681297 -2.26356 -2.80573e-17)
(-0.0720541 -2.15784 0)
(0.0157309 -2.12643 0)
(-0.0163082 -2.1637 -5.49081e-17)
(-0.598428 -2.26125 0)
(-1.12209 -2.78765 -5.43872e-17)
(-0.984256 -3.2666 0)
(-0.503426 -2.89764 5.34989e-17)
(-0.143077 -2.49485 1.06679e-16)
(0.498456 -3.12634 0)
(1.29534 -4.09321 0)
(1.86664 -4.50625 0)
(1.54428 -3.76602 5.19031e-17)
(-0.0751141 -2.03478 0)
(-2.36096 -0.215934 5.11368e-17)
(-4.56097 1.05728 0)
(-6.20901 1.77951 0)
(-7.33809 2.1425 -1.00522e-16)
(-8.06396 1.99206 0)
(-8.29265 1.35768 -5.05936e-17)
(-8.27639 0.668449 0)
(-8.26691 0.345522 -4.97701e-17)
(-8.60186 0.991941 0)
(-9.73714 2.14795 0)
(-11.4449 2.63781 0)
(-12.4423 1.46167 -1.48074e-16)
(-11.8229 -1.04232 -4.89358e-17)
(-10.562 -3.25517 0)
(-9.90056 -3.43239 0)
(-9.47078 -2.86931 0)
(-8.35723 -2.95732 0)
(-6.48381 -3.84977 4.71057e-17)
(-4.70382 -4.18463 -9.36319e-17)
(-3.94073 -3.71793 -4.72664e-17)
(-2.37921 -1.86942 9.18125e-17)
(0.333668 0.879055 8.78173e-17)
(2.33379 -3.89387 4.67833e-17)
(3.66376 -1.86766 0)
(5.04924 -0.520951 9.01197e-17)
(5.06123 -0.7488 0)
(6.47993 -1.72544 -8.89756e-17)
(6.78411 -0.717009 -4.41625e-17)
(6.95857 -2.26355 0)
(6.99435 -2.01718 8.65419e-17)
(7.51552 -0.736079 4.38243e-17)
(7.59726 0.886695 0)
(7.64745 1.99641 4.27315e-17)
(7.2996 2.75801 -1.26475e-16)
(6.55566 3.35963 0)
(6.04676 3.57056 0)
(4.81203 3.96506 0)
(4.29124 4.23354 0)
(3.38631 4.89815 -8.05034e-17)
(2.86706 5.6077 -7.95452e-17)
(1.39357 6.60402 0)
(0.381318 7.1591 0)
(-1.54869 8.00091 0)
(-2.4518 8.29194 0)
(-4.15023 8.67143 0)
(-4.88915 9.12074 0)
(-6.43601 9.63756 -7.30634e-17)
(-7.09284 9.66788 -3.58533e-19)
(-8.37665 10.5033 0)
(-8.39503 10.7111 0)
(-9.34078 10.8403 -6.92672e-17)
(-9.21486 11.3543 0)
(-8.86453 11.9293 6.55668e-17)
(-10.1305 12.108 6.72573e-17)
(-8.93608 12.2309 0)
(-8.96978 13.2006 0)
(-9.8032 13.39 -6.56187e-17)
(-11.8067 14.5683 -1.3822e-16)
(-12.8623 16.2069 0)
(-15.6366 18.828 0)
(-14.8192 15.526 0)
(-17.0098 14.5195 -6.62683e-17)
(-13.4737 14.661 6.75225e-17)
(-13.1492 10.9501 0)
(-5.85858 13.3727 1.32265e-16)
(-1.51103 16.8159 6.16365e-17)
(-0.668595 17.6648 -1.1761e-16)
(-0.540854 17.3458 0)
(-0.0585985 16.9856 0)
(0.78463 17.1589 -1.10029e-16)
(1.72813 17.8543 -5.3844e-17)
(2.39646 18.6797 0)
(2.69265 18.9025 0)
(3.16831 18.5588 0)
(3.51869 17.6704 0)
(4.52475 16.8205 -1.0146e-16)
(6.8815 16.5101 0)
(8.63041 16.4729 0)
(9.11197 17.7707 0)
(7.6206 20.0631 0)
(7.53074 19.9735 0)
(4.64868 19.7607 0)
(6.07619 11.8584 -1.13408e-16)
(9.26654 5.57332 0)
(19.2312 10.6992 0)
(19.1753 12.4366 -2.01634e-16)
(17.2079 13.8868 1.03412e-16)
(12.2896 15.8128 -1.05017e-16)
(9.28632 13.4418 9.82556e-17)
(-0.13808 -1.90572 0)
(-0.390712 -1.78666 -4.74839e-17)
(-0.633627 -1.75859 0)
(-0.836459 -1.91888 -2.3222e-17)
(-1.02621 -2.00638 0)
(-1.24554 -1.98346 0)
(-1.47714 -1.91605 2.26169e-17)
(-1.74589 -1.90295 0)
(-2.08727 -1.84001 0)
(-2.49112 -1.59866 0)
(-2.97866 -1.2022 0)
(-3.49081 -0.925815 0)
(-3.98817 -0.785282 -8.66176e-17)
(-4.46147 -0.667892 -4.31032e-17)
(-4.93605 -0.642871 4.29439e-17)
(-5.44351 -0.616046 0)
(-6.02755 -0.553784 0)
(-6.80449 -0.278172 0)
(-7.81426 0.273613 0)
(-8.9323 0.7743 0)
(-9.93545 1.05601 -4.1172e-17)
(-10.8466 1.26741 -4.09479e-17)
(-11.7568 1.4319 4.07782e-17)
(-12.596 1.58112 -4.05752e-17)
(-13.4099 1.66118 0)
(-14.1699 1.75159 0)
(-14.8665 1.7702 -4.01038e-17)
(-15.4906 1.70978 0)
(-16.0719 1.57558 0)
(-16.593 1.33999 -3.98677e-17)
(-17.074 1.05599 -3.97066e-17)
(-17.4993 0.704692 -3.95425e-17)
(-17.8783 0.330443 0)
(-18.2143 -0.054277 0)
(-18.4654 -0.475595 3.88206e-17)
(-18.638 -0.891135 0)
(-18.7421 -1.30535 0)
(-18.7449 -1.69716 -3.80452e-17)
(-18.6698 -2.0495 3.76972e-17)
(-18.5498 -2.33501 -3.74497e-17)
(-18.3677 -2.55487 0)
(-18.1422 -2.74824 0)
(-17.8598 -2.91107 -7.35805e-17)
(-17.5645 -3.04339 0)
(-17.2383 -3.18011 -7.27186e-17)
(-16.9171 -3.32896 -1.08512e-16)
(-16.5777 -3.51486 1.07891e-16)
(-16.1855 -3.72128 -7.14849e-17)
(-15.7833 -3.87341 0)
(-15.3505 -4.0893 0)
(-14.8942 -4.28073 -7.01829e-17)
(-14.4341 -4.34265 -3.48589e-17)
(-14.0006 -4.33525 0)
(-13.4913 -4.40148 0)
(-12.966 -4.49892 -3.40358e-17)
(-12.4234 -4.59831 -6.74506e-17)
(-11.9943 -4.66352 0)
(-11.3732 -4.58059 6.61108e-17)
(-10.7378 -4.43201 -6.52418e-17)
(-10.0902 -4.29334 6.4532e-17)
(-9.52122 -4.17804 0)
(-8.9983 -4.08577 0)
(-8.5778 -4.01541 0)
(-8.19379 -3.86203 0)
(-7.81974 -3.57222 0)
(-7.54942 -3.47362 6.14231e-17)
(-7.33327 -3.89295 0)
(-6.99311 -4.58625 0)
(-6.31195 -5.23943 0)
(-5.5331 -5.71225 1.21596e-16)
(-4.67301 -6.04167 6.00758e-17)
(-3.67437 -5.55242 5.91589e-17)
(-2.84065 -4.85242 -1.17066e-16)
(-1.89454 -4.79425 5.80794e-17)
(-0.840716 -4.43185 -5.74742e-17)
(-0.22751 -3.62067 0)
(0.544677 -3.71952 5.69267e-17)
(1.45359 -3.88104 0)
(1.72829 -3.00009 0)
(2.1629 -2.93012 0)
(2.65679 -3.19086 1.10148e-16)
(2.26193 -2.26627 -5.45045e-17)
(1.89701 -2.5146 -5.42591e-17)
(1.49481 -3.76881 -1.0818e-16)
(0.954122 -3.59713 -1.60756e-16)
(0.996847 -3.71014 -5.33724e-17)
(1.4475 -5.07898 0)
(1.1168 -5.51523 -1.04608e-16)
(-0.174354 -4.14567 0)
(-2.15077 -2.05561 -1.54597e-16)
(-4.33126 -0.216558 0)
(-6.13184 0.967897 -1.53128e-16)
(-7.34541 1.69145 0)
(-7.96932 2.00953 0)
(-8.12394 1.99535 -5.04367e-17)
(-8.08971 1.57297 0)
(-7.92336 0.896288 5.02474e-17)
(-8.04282 0.297171 9.87652e-17)
(-8.18161 0.277195 4.93867e-17)
(-8.17053 1.3021 9.79364e-17)
(-8.13758 3.10318 -9.75135e-17)
(-7.93495 3.84003 -9.78412e-17)
(-7.51762 2.16213 1.96171e-16)
(-7.08981 -1.01776 0)
(-6.91575 -3.3345 0)
(-7.1253 -3.88206 9.59701e-17)
(-7.35625 -3.5118 -9.59141e-17)
(-6.93368 -3.61267 0)
(-5.4633 -4.57669 0)
(-4.2107 -4.34011 9.73802e-17)
(-3.40902 -3.76268 0)
(-2.38427 -3.82765 -5.72488e-19)
(1.0777 -1.98471 -5.71439e-19)
(3.42158 -5.19328 9.23806e-17)
(3.35786 -2.98697 0)
(4.95765 -1.18506 -9.14816e-17)
(4.95823 -1.28992 0)
(6.23564 -2.96039 8.87794e-17)
(7.49901 -0.576092 0)
(7.80775 -2.19101 0)
(7.57978 -1.73805 -8.55669e-17)
(7.22012 -0.579252 -8.42436e-17)
(6.64817 1.01828 0)
(6.40674 2.20219 -8.60479e-17)
(6.86281 3.32369 1.69931e-16)
(6.29006 3.96214 0)
(6.42629 4.24615 0)
(5.9413 5.18427 0)
(5.31767 5.4216 0)
(4.31996 6.51048 8.29206e-17)
(3.91128 7.56464 -1.63233e-16)
(2.53445 8.80818 0)
(2.09411 9.62572 0)
(0.197928 10.6504 0)
(-0.646544 11.1816 0)