/*--------------------------------*- C++ -*----------------------------------*\
| =========                 |                                                 |
| \\      /  F ield         | OpenFOAM: The Open Source CFD Toolbox           |
|  \\    /   O peration     | Version:  dev                                   |
|   \\  /    A nd           | Web:      http://www.openfoam.org               |
|    \\/     M anipulation  |                                                 |
\*---------------------------------------------------------------------------*/
FoamFile
{
    version     2.0;
    format      ascii;
    class       volVectorField;
    object      UMean;
    location    "9.154";
}
// * * * * * * * * * * * * * * * * * * * * * * * * * * * * * * * * * * * * * //

dimensions      [0 1 -1 0 0 0 0];

internalField   nonuniform List<vector> 
12225
(
(7.00359 0.430268 0)
(4.43875 0.192547 0)
(2.55676 0.0311608 0)
(2.51077 -0.0166573 0)
(1.38449 0.0193673 0)
(2.26722 -0.0342786 0)
(0.989626 0.0489819 0)
(2.18244 -0.0591699 0)
(0.79764 0.0716446 0)
(2.29163 -0.0978364 0)
(0.688894 0.0993511 0)
(2.74349 -0.138631 0)
(0.948199 0.102597 0)
(3.39716 -0.172146 0)
(3.53117 -0.168501 0)
(4.6966 0.049959 0)
(14.8447 -2.43394 0)
(7.11983 5.13364 0)
(9.54626 0.98158 0)
(9.54328 0.860846 0)
(6.68684 0.466294 0)
(7.59021 0.214529 0)
(4.09068 0.14033 0)
(6.84283 0.0107952 0)
(2.66538 0.132664 0)
(6.68878 -0.09033 0)
(1.82307 0.141853 0)
(7.03844 -0.165064 0)
(1.26112 0.123906 0)
(8.12079 -0.41437 0)
(1.3852 0.252307 0)
(9.9547 -1.44218 0)
(3.43433 0.271562 0)
(12.3896 -4.0681 0)
(10.4277 -1.92789 0)
(7.77663 0.484981 0)
(9.11856 0.763529 0)
(12.1667 0.951366 0)
(8.32975 0.624012 0)
(11.8318 0.443359 0)
(6.22635 0.310355 0)
(11.4127 0.206413 0)
(4.58332 0.221572 0)
(11.3145 -0.0195666 0)
(3.87501 0.193023 0)
(11.3758 -0.277819 0)
(4.35133 0.187276 0)
(11.2519 -0.722927 0)
(5.72938 0.175778 0)
(11.0893 -1.49134 0)
(7.21565 0.0521416 0)
(12.1166 -3.86629 0)
(6.93305 0.350444 0)
(9.35311 -2.39093 0)
(7.21927 0.524987 0)
(13.9927 0.960927 0)
(7.93012 0.609532 0)
(14.295 0.55376 0)
(7.47468 0.420983 0)
(14.1162 0.270957 0)
(7.17608 0.396774 0)
(13.7383 -0.145185 0)
(7.25709 0.459675 0)
(13.2696 -0.698718 0)
(7.65982 0.576822 0)
(12.8747 -1.42266 0)
(8.26768 0.699313 0)
(12.6513 -2.31316 0)
(9.02504 0.0413951 0)
(11.8874 -3.63693 0)
(8.6874 -1.43277 0)
(8.36395 0.681461 0)
(6.42431 0.570065 0)
(14.0107 0.565865 0)
(8.47366 0.67456 0)
(13.9578 0.284461 0)
(9.16939 0.636768 0)
(13.6433 -0.0026292 0)
(9.51709 0.657912 0)
(13.2138 -0.38872 0)
(9.59197 0.734425 0)
(12.813 -0.871279 0)
(9.44551 0.876907 0)
(12.5827 -1.52133 0)
(9.1498 1.08983 0)
(12.571 -2.48999 0)
(8.82763 1.13185 0)
(11.6172 -5.02787 0)
(8.54277 1.2659 0)
(8.72228 0.128705 0)
(7.95663 0.61688 0)
(11.803 0.152396 0)
(9.50521 0.654793 0)
(11.7393 0.0502018 0)
(10.0883 0.693941 0)
(11.6003 -0.165677 0)
(10.3205 0.725833 0)
(11.4762 -0.457517 0)
(10.3004 0.782987 0)
(11.3895 -0.85355 0)
(10.0326 0.831967 0)
(11.3555 -1.40003 0)
(9.49205 0.801122 0)
(11.4185 -2.13841 0)
(8.80017 0.725613 0)
(10.9988 -3.92046 0)
(7.73297 1.3352 0)
(9.48934 -0.217321 0)
(9.34409 0.812703 0)
(10.4389 -0.265954 0)
(10.1408 0.930557 0)
(10.5538 -0.30456 0)
(10.3988 1.02 0)
(10.5818 -0.50289 0)
(10.5203 1.07549 0)
(10.6253 -0.781119 0)
(10.5636 1.15346 0)
(10.6717 -1.15761 0)
(10.5156 1.23518 0)
(10.6999 -1.63546 0)
(10.367 1.26109 0)
(10.6881 -2.32705 0)
(10.0531 1.27098 0)
(10.376 -3.95416 0)
(8.29893 2.019 0)
(9.69713 -0.951986 0)
(9.84905 0.70116 0)
(10.1561 -0.325989 0)
(10.4066 0.855098 0)
(10.3899 -0.349911 0)
(10.5803 0.906864 0)
(10.4706 -0.493974 0)
(10.7017 0.892952 0)
(10.552 -0.686238 0)
(10.8055 0.87269 0)
(10.6439 -0.935155 0)
(10.8812 0.823803 0)
(10.7354 -1.2326 0)
(10.9083 0.671265 0)
(10.7538 -1.67248 0)
(10.7234 0.519526 0)
(10.4924 -2.47391 0)
(8.89397 0.980607 0)
(9.96386 -0.484058 0)
(10.0856 0.802253 0)
(10.0199 -0.58339 0)
(10.5355 1.02147 0)
(10.3108 -0.60447 0)
(10.6751 1.07499 0)
(10.4401 -0.724924 0)
(10.7775 1.04819 0)
(10.5709 -0.889982 0)
(10.8573 1.00365 0)
(10.7115 -1.1177 0)
(10.8989 0.921106 0)
(10.8319 -1.39488 0)
(10.8742 0.734763 0)
(10.8223 -1.76088 0)
(10.6025 0.505655 0)
(10.5207 -2.06889 0)
(9.35029 0.586165 0)
(10.0235 -0.391733 0)
(10.139 0.64864 0)
(10.0424 -0.511923 0)
(10.5102 0.878036 0)
(10.3335 -0.456484 0)
(10.6213 0.869194 0)
(10.482 -0.493626 0)
(10.6978 0.77822 0)
(10.629 -0.572117 0)
(10.7342 0.657863 0)
(10.7636 -0.695324 0)
(10.7179 0.495509 0)
(10.8402 -0.844985 0)
(10.6183 0.264021 0)
(10.7655 -1.03221 0)
(10.2824 0.0701431 0)
(10.4794 -1.05295 0)
(9.62342 0.123915 0)
(10.2069 -0.0329965 0)
(10.1409 0.699995 0)
(10.0707 -0.691858 0)
(10.4525 0.902505 0)
(10.2986 -0.618883 0)
(10.5374 0.847615 0)
(10.4303 -0.645489 0)
(10.6032 0.735257 0)
(10.5607 -0.70735 0)
(10.6272 0.586766 0)
(10.6604 -0.791219 0)
(10.6092 0.383139 0)
(10.6813 -0.869297 0)
(10.527 0.117087 0)
(10.571 -0.922175 0)
(10.2916 -0.113765 0)
(10.361 -0.765182 0)
(10.0199 -0.154143 0)
(10.2456 -0.125413 0)
(10.0968 0.467992 0)
(10.1509 -0.495053 0)
(10.3536 0.595729 0)
(10.2934 -0.374573 0)
(10.4203 0.527498 0)
(10.4093 -0.354741 0)
(10.4848 0.418841 0)
(10.5239 -0.374141 0)
(10.5131 0.275689 0)
(10.5993 -0.414622 0)
(10.5157 0.0932759 0)
(10.5971 -0.461643 0)
(10.4767 -0.103349 0)
(10.4996 -0.500144 0)
(10.3572 -0.232167 0)
(10.3646 -0.405673 0)
(10.266 -0.219907 0)
(10.3739 -0.11033 0)
(10.05 0.41099 0)
(10.1754 -0.487196 0)
(10.2548 0.437186 0)
(10.2379 -0.367447 0)
(10.3087 0.367345 0)
(10.3306 -0.345521 0)
(10.3792 0.250843 0)
(10.4246 -0.355245 0)
(10.4226 0.099474 0)
(10.4823 -0.374858 0)
(10.4462 -0.0797022 0)
(10.4818 -0.403429 0)
(10.433 -0.246679 0)
(10.4261 -0.431298 0)
(10.3772 -0.339221 0)
(10.3686 -0.392701 0)
(10.3571 -0.32059 0)
(10.4223 -0.276592 0)
(10.0154 0.199622 0)
(10.1908 -0.285734 0)
(10.1932 0.167314 0)
(10.2052 -0.179247 0)
(10.2293 0.131649 0)
(10.2792 -0.171319 0)
(10.3062 0.0472323 0)
(10.3626 -0.197745 0)
(10.366 -0.0587034 0)
(10.4142 -0.235719 0)
(10.4055 -0.176015 0)
(10.4267 -0.286444 0)
(10.4124 -0.275011 0)
(10.4112 -0.331682 0)
(10.3995 -0.324157 0)
(10.4066 -0.337229 0)
(10.4109 -0.316067 0)
(10.4698 -0.304883 0)
(9.99662 0.0971283 0)
(10.1444 -0.18582 0)
(10.1463 0.0216781 0)
(10.1501 -0.13362 0)
(10.1622 -0.00860654 0)
(10.2089 -0.146121 0)
(10.241 -0.0769359 0)
(10.2919 -0.186708 0)
(10.311 -0.15938 0)
(10.3486 -0.237956 0)
(10.3575 -0.244789 0)
(10.3791 -0.298318 0)
(10.3805 -0.316296 0)
(10.3938 -0.350094 0)
(10.3959 -0.361043 0)
(10.4185 -0.38022 0)
(10.4238 -0.381085 0)
(10.4788 -0.387279 0)
(9.99364 0.0154976 0)
(10.1059 -0.0857716 0)
(10.1088 -0.0442995 0)
(10.1138 -0.0932295 0)
(10.1188 -0.0748713 0)
(10.1674 -0.118925 0)
(10.198 -0.120598 0)
(10.2518 -0.163832 0)
(10.274 -0.180572 0)
(10.3153 -0.219168 0)
(10.3278 -0.243942 0)
(10.3597 -0.277836 0)
(10.3658 -0.301356 0)
(10.3938 -0.329027 0)
(10.3994 -0.347019 0)
(10.4328 -0.370833 0)
(10.4355 -0.383825 0)
(10.4882 -0.397047 0)
(9.99176 0.00476259 0)
(10.0636 -0.0251439 0)
(10.0567 -0.034897 0)
(10.0678 -0.0664547 0)
(10.0778 -0.0757015 0)
(10.128 -0.099757 0)
(10.1573 -0.115935 0)
(10.2109 -0.144704 0)
(10.2337 -0.168978 0)
(10.2781 -0.199582 0)
(10.2919 -0.226577 0)
(10.3299 -0.257056 0)
(10.3383 -0.28334 0)
(10.373 -0.312079 0)
(10.3787 -0.336833 0)
(10.4151 -0.36557 0)
(10.4145 -0.38809 0)
(10.4633 -0.407509 0)
(9.99159 0.0141382 0)
(10.0467 0.0161173 0)
(10.0399 -0.010613 0)
(10.0576 -0.0377176 0)
(10.0748 -0.0565673 0)
(10.1255 -0.077887 0)
(10.1554 -0.0988955 0)
(10.2071 -0.123853 0)
(10.2311 -0.149023 0)
(10.2753 -0.176662 0)
(10.2911 -0.203466 0)
(10.3292 -0.232198 0)
(10.3394 -0.259407 0)
(10.3736 -0.288354 0)
(10.3801 -0.315682 0)
(10.414 -0.345752 0)
(10.4132 -0.371612 0)
(10.4566 -0.393428 0)
(9.99173 0.0329007 0)
(10.0502 0.0495867 0)
(10.0566 0.00988766 0)
(10.0799 -0.0181173 0)
(10.1007 -0.0402728 0)
(10.1506 -0.0615115 0)
(10.1819 -0.083641 0)
(10.2316 -0.10644 0)
(10.2562 -0.13058 0)
(10.2984 -0.155542 0)
(10.315 -0.181108 0)
(10.3507 -0.207358 0)
(10.3614 -0.233593 0)
(10.3926 -0.260447 0)
(10.399 -0.287066 0)
(10.4287 -0.315323 0)
(10.428 -0.341056 0)
(10.4652 -0.362832 0)
(9.98991 0.0406593 0)
(10.0547 0.052576 0)
(10.0828 -0.00639942 0)
(10.1167 -0.0407221 0)
(10.1419 -0.0641593 0)
(10.1904 -0.0823054 0)
(10.2223 -0.10213 0)
(10.269 -0.121041 0)
(10.2935 -0.142777 0)
(10.332 -0.164022 0)
(10.3483 -0.187434 0)
(10.3802 -0.210121 0)
(10.3904 -0.234426 0)
(10.4174 -0.257945 0)
(10.4228 -0.282809 0)
(10.4473 -0.307842 0)
(10.4461 -0.33247 0)
(10.4767 -0.352859 0)
(9.9905 0.0315432 0)
(10.0684 0.0219328 0)
(10.1261 -0.0558089 0)
(10.1769 -0.0968167 0)
(10.2125 -0.119835 0)
(10.2609 -0.132792 0)
(10.2937 -0.14782 0)
(10.336 -0.161699 0)
(10.3601 -0.179868 0)
(10.3941 -0.196952 0)
(10.4103 -0.21739 0)
(10.4377 -0.23627 0)
(10.4478 -0.25801 0)
(10.4701 -0.278074 0)
(10.4753 -0.30075 0)
(10.4945 -0.322371 0)
(10.4939 -0.345221 0)
(10.5186 -0.363497 0)
(9.99118 0.0098265 0)
(10.092 -0.0297909 0)
(10.1869 -0.120902 0)
(10.2595 -0.162827 0)
(10.3093 -0.181173 0)
(10.359 -0.187201 0)
(10.3929 -0.196071 0)
(10.4304 -0.204399 0)
(10.4542 -0.218134 0)
(10.4837 -0.230768 0)
(10.5001 -0.247621 0)
(10.5233 -0.262646 0)
(10.5337 -0.281346 0)
(10.5517 -0.298028 0)
(10.5572 -0.318078 0)
(10.5719 -0.336411 0)
(10.5723 -0.356985 0)
(10.592 -0.373116 0)
(9.99283 -0.0234169 0)
(10.1275 -0.10368 0)
(10.2671 -0.204983 0)
(10.3665 -0.241638 0)
(10.4319 -0.250845 0)
(10.4835 -0.24842 0)
(10.5183 -0.250925 0)
(10.5517 -0.253718 0)
(10.5753 -0.262991 0)
(10.6012 -0.271344 0)
(10.6181 -0.284667 0)
(10.6378 -0.29628 0)
(10.6487 -0.312085 0)
(10.6631 -0.325835 0)
(10.6691 -0.343362 0)
(10.6801 -0.358806 0)
(10.6813 -0.377117 0)
(10.6968 -0.391256 0)
(9.99043 -0.0716102 0)
(10.1743 -0.201211 0)
(10.3678 -0.305495 0)
(10.5 -0.327886 0)
(10.5804 -0.322577 0)
(10.6343 -0.310201 0)
(10.6689 -0.305578 0)
(10.6996 -0.302568 0)
(10.7226 -0.306701 0)
(10.7459 -0.310574 0)
(10.7624 -0.319889 0)
(10.7793 -0.328029 0)
(10.7894 -0.340556 0)
(10.8005 -0.351329 0)
(10.8054 -0.365915 0)
(10.8123 -0.378469 0)
(10.8121 -0.394022 0)
(10.8221 -0.405969 0)
(9.99199 -0.136394 0)
(10.2447 -0.323055 0)
(10.5026 -0.419044 0)
(10.6711 -0.417656 0)
(10.7627 -0.394185 0)
(10.8174 -0.371109 0)
(10.8493 -0.358936 0)
(10.8771 -0.350575 0)
(10.896 -0.35008 0)
(10.9148 -0.35047 0)
(10.9253 -0.356349 0)
(10.9355 -0.361478 0)
(10.9374 -0.370771 0)
(10.9393 -0.378631 0)
(10.9339 -0.389822 0)
(10.9291 -0.399402 0)
(10.9164 -0.411319 0)
(10.9116 -0.420464 0)
(9.98974 -0.219937 0)
(10.3368 -0.468165 0)
(10.6736 -0.539764 0)
(10.8757 -0.508229 0)
(10.9697 -0.464843 0)
(11.0134 -0.428045 0)
(11.0285 -0.404785 0)
(11.0352 -0.388353 0)
(11.029 -0.381381 0)
(11.0194 -0.376928 0)
(10.9979 -0.378134 0)
(10.9735 -0.379038 0)
(10.9377 -0.383757 0)
(10.8999 -0.387232 0)
(10.8522 -0.393595 0)
(10.8042 -0.398917 0)
(10.7462 -0.405235 0)
(10.6945 -0.410007 0)
(9.98331 -0.332094 0)
(10.4676 -0.642349 0)
(10.8828 -0.667125 0)
(11.0724 -0.602642 0)
(11.1029 -0.537185 0)
(11.0583 -0.483107 0)
(10.9743 -0.444961 0)
(10.8731 -0.416196 0)
(10.7578 -0.39798 0)
(10.635 -0.383242 0)
(10.5036 -0.374856 0)
(10.3667 -0.366298 0)
(10.2242 -0.362414 0)
(10.0776 -0.356962 0)
(9.92881 -0.355816 0)
(9.77726 -0.353224 0)
(9.62612 -0.352927 0)
(9.47623 -0.35109 0)
(10.0025 -0.453663 0)
(10.619 -0.818964 0)
(10.9016 -0.752063 0)
(10.7933 -0.623736 0)
(10.4938 -0.512526 0)
(10.1377 -0.429178 0)
(9.77018 -0.373547 0)
(9.41769 -0.334704 0)
(9.07691 -0.307274 0)
(8.75559 -0.284592 0)
(8.44664 -0.267637 0)
(8.15357 -0.251315 0)
(7.87286 -0.240027 0)
(7.6033 -0.227327 0)
(7.34853 -0.221124 0)
(7.09902 -0.211815 0)
(6.87063 -0.210845 0)
(6.64123 -0.204171 0)
(10.0974 -0.750795 0)
(10.0458 -1.01321 0)
(9.42491 -0.801083 0)
(8.51444 -0.572176 0)
(7.65503 -0.378725 0)
(6.9289 -0.244883 0)
(6.32736 -0.167518 0)
(5.83167 -0.12625 0)
(5.40927 -0.104703 0)
(5.04871 -0.092322 0)
(4.72864 -0.0849635 0)
(4.44793 -0.0793513 0)
(4.19155 -0.07581 0)
(3.96267 -0.0718943 0)
(3.75098 -0.0721398 0)
(3.55582 -0.0690882 0)
(3.38362 -0.0802724 0)
(3.21872 -0.082869 0)
(8.51675 -0.436078 0)
(6.11023 -0.3809 0)
(4.29831 -0.138056 0)
(3.12388 -0.02139 0)
(2.48112 0.0191312 0)
(2.12051 0.0224704 0)
(1.8963 0.013713 0)
(1.735 0.00461322 0)
(1.59898 -0.00157077 0)
(1.47826 -0.00479246 0)
(1.36618 -0.00640589 0)
(1.26403 -0.00671908 0)
(1.16837 -0.00670785 0)
(1.08165 -0.00638988 0)
(0.999627 -0.00665878 0)
(0.919397 -0.00703432 0)
(0.851897 -0.0186105 0)
(0.73138 -0.00613793 0)
(-0.0520655 0.138055 0)
(-0.157233 0.0716411 0)
(-0.207343 0.0165988 0)
(-0.195603 -0.044241 0)
(-0.118432 -0.0989743 0)
(0.0116777 -0.145024 0)
(0.185673 -0.17559 1.11356e-17)
(0.387383 -0.193579 -1.10606e-17)
(0.605605 -0.197997 0)
(0.828004 -0.192758 -1.09175e-17)
(1.04521 -0.178437 0)
(1.24822 -0.157689 0)
(1.4305 -0.131068 0)
(1.58676 -0.101721 1.06429e-17)
(1.71437 -0.0704778 0)
(1.81053 -0.0384102 0)
(1.87436 -0.00626155 -1.04457e-17)
(1.90658 0.0240082 0)
(1.90886 0.0504821 0)
(1.88325 0.0722163 0)
(1.83346 0.0891895 1.01963e-17)
(1.76206 0.100751 0)
(1.67296 0.108631 1.00743e-17)
(1.56786 0.111541 0)
(1.45141 0.10965 0)
(1.32633 0.108005 9.89562e-18)
(1.19288 0.111307 0)
(1.05029 0.116434 -9.77927e-18)
(0.901772 0.121675 0)
(0.747907 0.126711 9.66438e-18)
(0.590248 0.130697 0)
(0.431072 0.133137 0)
(0.272646 0.134279 0)
(0.115452 0.134046 0)
(-0.0401928 0.131143 0)
(-0.192217 0.126461 -9.32964e-18)
(-0.338973 0.120353 0)
(-0.480048 0.113857 1.84406e-17)
(-0.614009 0.107377 0)
(-0.740443 0.100169 -1.82216e-17)
(-0.857887 0.0931628 0)
(-0.966511 0.0864284 0)
(-1.06675 0.0787118 1.78884e-17)
(-1.15815 0.0703821 0)
(-1.24133 0.0626872 1.76651e-17)
(-1.31636 0.0554525 -1.75531e-17)
(-1.38275 0.0483566 0)
(-1.4412 0.0420873 -1.73282e-17)
(-1.49279 0.036608 -1.72151e-17)
(-1.53658 0.0328865 0)
(-1.57275 0.0313195 0)
(-1.60321 0.0313543 0)
(-1.63008 0.0315313 0)
(-1.65433 0.0315731 0)
(-1.67739 0.0324669 1.65281e-17)
(-1.70112 0.034027 0)
(-1.72691 0.0362678 -1.62989e-17)
(-1.75351 0.038353 0)
(-1.77969 0.0389867 0)
(-1.80545 0.0395679 1.59524e-17)
(-1.83142 0.0412961 0)
(-1.85932 0.0424784 -1.57211e-17)
(-1.88916 0.0441145 0)
(-1.92066 0.0455581 0)
(-1.95331 0.0463116 0)
(-1.98649 0.0474344 1.52555e-17)
(-2.02017 0.0493912 0)
(-2.05445 0.0516609 0)
(-2.08943 0.0540568 1.49058e-17)
(-2.12539 0.0553909 0)
(-2.15957 0.0556393 1.46711e-17)
(-2.19087 0.0563274 0)
(-2.21938 0.0569047 0)
(-2.24394 0.0569035 0)
(-2.26325 0.0563072 -1.42051e-17)
(-2.2767 0.0550888 0)
(-2.28487 0.0543168 0)
(-2.2896 0.0542051 -1.38613e-17)
(-2.29132 0.0531862 -1.37478e-17)
(-2.28833 0.0514784 0)
(-2.27881 0.0491557 -1.35226e-17)
(-2.26267 0.0461896 0)
(-2.23952 0.0430121 -2.66022e-17)
(-2.20937 0.0395647 0)
(-2.17275 0.0358784 -2.61668e-17)
(-2.12952 0.0328034 0)
(-2.08074 0.0303765 2.5738e-17)
(-2.02726 0.0283997 0)
(-1.96924 0.0269642 0)
(-1.90729 0.0259842 0)
(-1.84296 0.0253798 -2.49009e-17)
(-1.776 0.0251005 0)
(-1.70801 0.0250727 2.44992e-17)
(-1.63904 0.0256828 0)
(-1.56975 0.0267239 -2.41098e-17)
(-1.50205 0.0292016 -2.39212e-17)
(-1.4351 0.0303089 -2.37369e-17)
(-1.36792 0.0313285 0)
(-1.30248 0.0313914 0)
(-1.23764 0.0325609 0)
(-1.17154 0.0332846 0)
(-1.10635 0.0328949 0)
(-1.03621 0.0317667 0)
(-0.967136 0.0331269 0)
(-0.896005 0.0327624 0)
(-0.828641 0.0350856 2.22132e-17)
(-0.760938 0.0355741 2.20609e-17)
(-0.698266 0.0399534 0)
(-0.637357 0.0412306 0)
(-0.58122 0.0408229 0)
(-0.513209 0.038243 2.14804e-17)
(-0.450461 0.042477 0)
(-0.381472 0.0407825 0)
(-0.316544 0.0436354 0)
(-0.245518 0.0406095 0)
(-0.172502 0.0430406 -2.0806e-17)
(-0.0972065 0.0445658 0)
(-0.0163893 0.0436004 0)
(0.0689482 0.0450133 2.04289e-17)
(0.157807 0.0450649 -2.03073e-17)
(0.249564 0.0444064 0)
(0.345764 0.0483397 -2.00746e-17)
(0.437045 0.0513662 0)
(0.529348 0.0546105 1.98481e-17)
(0.611379 0.0593609 0)
(0.682366 0.0624091 0)
(0.757317 0.0626881 0)
(0.826569 0.0633967 0)
(0.906034 0.0605479 0)
(0.979489 0.0610569 -3.8396e-17)
(1.05499 0.0625806 -3.8177e-17)
(1.11508 0.0673082 0)
(1.16566 0.0663864 0)
(1.21043 0.067719 0)
(1.24699 0.0636579 3.72525e-17)
(1.29472 0.0588358 0)
(1.34392 0.057188 0)
(1.38875 0.0560592 0)
(1.43725 0.0538416 3.62323e-17)
(1.47637 0.0560368 -3.59643e-17)
(1.52083 0.052745 0)
(1.55952 0.0527914 0)
(1.60086 0.0532417 -3.51494e-17)
(1.62717 0.0582979 -3.48764e-17)
(1.65707 0.0549876 0)
(1.68585 0.0587054 0)
(1.72527 0.0557247 3.40431e-17)
(1.76216 0.0660061 -3.37637e-17)
(1.7704 0.0714022 0)
(1.7841 0.0707876 0)
(1.80923 0.0711451 -3.29269e-17)
(1.84255 0.0758513 0)
(1.85599 0.0834621 0)
(1.86724 0.0891814 -3.20827e-17)
(1.86641 0.0932939 0)
(1.88069 0.0981009 -3.15224e-17)
(1.88289 0.105132 0)
(1.8885 0.10925 0)
(1.87538 0.120773 0)
(1.86191 0.126668 3.04333e-17)
(1.84652 0.13316 0)
(1.81443 0.142964 0)
(1.7423 0.154562 0)
(1.6656 0.154612 0)
(1.60022 0.156954 0)
(1.51046 0.165847 0)
(1.38261 0.172647 2.88921e-17)
(1.26337 0.17401 2.8738e-17)
(1.0794 0.181908 0)
(0.872988 0.184635 0)
(0.629616 0.183722 0)
(0.413391 0.169932 -2.83206e-17)
(0.191378 0.162834 0)
(0.0393516 0.146492 5.63464e-17)
(-0.159763 0.143816 -5.62368e-17)
(-0.262144 0.12371 -5.6058e-17)
(-0.423603 0.126629 5.59541e-17)
(-0.458129 0.0965324 -5.57519e-17)
(-0.616041 0.12928 5.57324e-17)
(-0.564797 -0.00385593 0)
(0.0100981 0.249251 0)
(0.0143201 0.192607 0)
(0.0492291 0.00822026 -2.27965e-17)
(0.120367 -0.197987 0)
(0.235101 -0.383996 2.23655e-17)
(0.387242 -0.535411 2.22189e-17)
(0.568288 -0.644345 1.10441e-17)
(0.768097 -0.710365 1.09817e-17)
(0.975392 -0.737061 0)
(1.17957 -0.730869 1.08546e-17)
(1.37202 -0.695095 0)
(1.54541 -0.636856 0)
(1.69577 -0.562286 -2.13209e-17)
(1.81836 -0.477899 -1.05953e-17)
(1.91312 -0.386 2.10564e-17)
(1.97827 -0.29145 2.09229e-17)
(2.01514 -0.199112 1.03958e-17)
(2.02383 -0.111058 0)
(2.00677 -0.0280484 0)
(1.96396 0.0466732 0)
(1.89925 0.112133 1.01368e-17)
(1.8127 0.171224 0)
(1.70899 0.22409 -3.00378e-17)
(1.58693 0.266887 0)
(1.44885 0.301835 0)
(1.29528 0.332402 -9.83197e-18)
(1.1297 0.356362 0)
(0.95486 0.373639 9.71558e-18)
(0.774574 0.384687 1.93127e-17)
(0.589743 0.391947 -9.59758e-18)
(0.403146 0.394042 0)
(0.216047 0.390253 0)
(0.0281292 0.382962 0)
(-0.160119 0.375967 1.87311e-17)
(-0.346913 0.367328 1.86166e-17)
(-0.530949 0.355019 9.25128e-18)
(-0.709506 0.340228 0)
(-0.883111 0.323147 -1.82762e-17)
(-1.0478 0.302652 0)
(-1.20588 0.280823 1.80507e-17)
(-1.35571 0.258419 0)
(-1.49892 0.235695 0)
(-1.63398 0.21535 -1.77165e-17)
(-1.76181 0.196327 0)
(-1.88486 0.178448 -5.24862e-17)
(-2.00224 0.159722 1.73856e-17)
(-2.11304 0.14084 0)
(-2.21687 0.123942 1.71654e-17)
(-2.31465 0.106301 1.70552e-17)
(-2.40511 0.0867112 0)
(-2.48633 0.067735 0)
(-2.56046 0.0531439 0)
(-2.62935 0.0435397 0)
(-2.69494 0.038494 0)
(-2.75659 0.0370486 -1.63736e-17)
(-2.81638 0.0366686 -3.2515e-17)
(-2.87458 0.0369108 1.61413e-17)
(-2.92852 0.0345431 0)
(-2.98005 0.0307137 -3.18128e-17)
(-3.02952 0.0295079 1.57874e-17)
(-3.0763 0.0303994 0)
(-3.12387 0.0310225 1.55498e-17)
(-3.16938 0.0334601 0)
(-3.21259 0.0345503 0)
(-3.25403 0.033593 3.03749e-17)
(-3.29424 0.0326446 -1.50672e-17)
(-3.33007 0.0305648 2.98916e-17)
(-3.36346 0.0277568 -2.96502e-17)
(-3.39157 0.0247788 -1.47046e-17)
(-3.41673 0.0209602 0)
(-3.43585 0.0139546 -1.44628e-17)
(-3.44802 0.00414784 0)
(-3.45456 -0.00628329 0)
(-3.45269 -0.01868 0)
(-3.44164 -0.032866 -1.39829e-17)
(-3.42235 -0.0469426 0)
(-3.3965 -0.0572258 -2.74949e-17)
(-3.36481 -0.0645612 4.0894e-17)
(-3.32766 -0.0732943 1.35162e-17)
(-3.2842 -0.0845426 0)
(-3.23274 -0.0973979 1.32878e-17)
(-3.17596 -0.110184 0)
(-3.11348 -0.122333 2.61241e-17)
(-3.0458 -0.133435 0)
(-2.97305 -0.144018 2.56811e-17)
(-2.89515 -0.153451 -5.09223e-17)
(-2.81326 -0.162378 -2.52472e-17)
(-2.72897 -0.170322 0)
(-2.6397 -0.177811 0)
(-2.54824 -0.183391 0)
(-2.45462 -0.187562 2.4407e-17)
(-2.3577 -0.191581 0)
(-2.25953 -0.194293 -2.40008e-17)
(-2.16128 -0.194734 0)
(-2.06239 -0.196403 7.08215e-17)
(-1.96344 -0.195869 2.34171e-17)
(-1.86382 -0.196998 2.32312e-17)
(-1.76621 -0.194337 0)
(-1.67092 -0.193798 0)
(-1.57501 -0.194701 0)
(-1.47661 -0.195439 0)
(-1.37924 -0.197824 0)
(-1.27623 -0.202074 4.43228e-17)
(-1.17961 -0.20011 4.39868e-17)
(-1.07962 -0.20024 0)
(-0.991909 -0.194617 -2.16758e-17)
(-0.895331 -0.195522 -2.15238e-17)
(-0.807981 -0.188727 0)
(-0.713215 -0.187638 -4.24447e-17)
(-0.634403 -0.187164 0)
(-0.53748 -0.197407 2.09382e-17)
(-0.450962 -0.191337 0)
(-0.345193 -0.199292 0)
(-0.250575 -0.196042 -4.10581e-17)
(-0.137185 -0.204787 0)
(-0.0328683 -0.205016 2.02724e-17)
(0.0926894 -0.212899 0)
(0.219323 -0.220478 0)
(0.35552 -0.224782 1.9887e-17)
(0.496357 -0.229174 1.97706e-17)
(0.641804 -0.234529 0)
(0.791152 -0.235031 -1.95331e-17)
(0.950531 -0.2362 0)
(1.10941 -0.228115 1.92964e-17)
(1.27382 -0.218514 3.83627e-17)
(1.4214 -0.212233 0)
(1.57824 -0.213602 0)
(1.72336 -0.213774 0)
(1.88295 -0.215261 0)
(2.02969 -0.210236 3.72301e-17)
(2.1838 -0.207001 1.11006e-16)
(2.31983 -0.188212 0)
(2.44346 -0.183056 0)
(2.56237 -0.172106 0)
(2.6667 -0.173803 -3.60795e-17)
(2.76837 -0.178352 0)
(2.86851 -0.178051 0)
(2.96301 -0.176674 7.06153e-17)
(3.0563 -0.177183 3.50337e-17)
(3.13187 -0.172635 3.47651e-17)
(3.22017 -0.179981 0)
(3.28434 -0.173691 0)
(3.3519 -0.175117 3.39203e-17)
(3.39912 -0.164308 -3.36142e-17)
(3.44457 -0.17844 0)
(3.47473 -0.175365 0)
(3.50919 -0.191514 -3.27215e-17)
(3.53843 -0.173514 9.71877e-17)
(3.55305 -0.168961 0)
(3.56404 -0.179788 0)
(3.57516 -0.191294 3.14596e-17)
(3.59595 -0.189332 0)
(3.59157 -0.182624 6.16252e-17)
(3.58944 -0.180856 -3.04712e-17)
(3.56196 -0.185341 0)
(3.55826 -0.194524 2.98446e-17)
(3.53414 -0.190853 5.9054e-17)
(3.52277 -0.192177 0)
(3.47566 -0.185338 0)
(3.45156 -0.194084 -2.85738e-17)
(3.4107 -0.18609 0)
(3.35301 -0.16918 5.58872e-17)
(3.25536 -0.149928 0)
(3.16301 -0.155047 0)
(3.04348 -0.146991 0)
(2.91512 -0.122043 0)
(2.72087 -0.102786 -2.66523e-17)
(2.56167 -0.0758447 -2.6463e-17)
(2.27765 -0.0267411 0)
(2.00544 -0.00179229 0)
(1.67587 0.0228579 0)
(1.38037 0.0188645 2.59578e-17)
(1.04703 0.0232585 0)
(0.839765 0.0135401 -5.16681e-17)
(0.521028 0.0319653 5.16421e-17)
(0.40741 0.000793108 5.14934e-17)
(0.12591 0.0316824 5.14846e-17)
(0.12608 -0.0159921 5.13327e-17)
(-0.170978 0.0794319 5.14966e-17)
(0.0148124 -0.116423 0)
(0.0290426 0.0719007 0)
(0.120888 -0.0371869 0)
(0.227691 -0.240449 2.29134e-17)
(0.3395 -0.467392 2.2665e-17)
(0.473689 -0.692058 -2.25136e-17)
(0.617618 -0.87415 -2.2401e-17)
(0.77177 -1.00306 -1.48062e-21)
(0.923069 -1.07363 0)
(1.06829 -1.08465 0)
(1.19519 -1.04569 0)
(1.30411 -0.966017 0)
(1.39021 -0.856859 0)
(1.45595 -0.726443 6.47143e-17)
(1.49679 -0.586335 0)
(1.51557 -0.441581 -2.13056e-17)
(1.51049 -0.295161 -2.11693e-17)
(1.48441 -0.153768 0)
(1.4359 -0.0202626 0)
(1.3696 0.103623 0)
(1.28525 0.216123 0)
(1.18518 0.315494 -2.05029e-17)
(1.07023 0.398558 0)
(0.945421 0.470934 2.02488e-17)
(0.808046 0.536035 0)
(0.660988 0.590891 0)
(0.505599 0.635812 0)
(0.347266 0.671772 3.95252e-17)
(0.184988 0.698983 0)
(0.0212492 0.718395 -1.95223e-17)
(-0.143482 0.728745 3.87999e-17)
(-0.307477 0.731861 0)
(-0.473727 0.733532 0)
(-0.640182 0.730443 0)
(-0.805445 0.720872 -1.89164e-17)
(-0.967091 0.70556 -1.87956e-17)
(-1.12553 0.684028 0)
(-1.27917 0.65671 0)
(-1.42723 0.625186 3.68588e-17)
(-1.56827 0.59116 3.66191e-17)
(-1.70755 0.556832 -3.6381e-17)
(-1.84177 0.524102 0)
(-1.97411 0.490605 0)
(-2.1008 0.458435 0)
(-2.22377 0.429056 0)
(-2.34245 0.401413 3.52003e-17)
(-2.45516 0.372194 3.49666e-17)
(-2.56274 0.342546 -3.47346e-17)
(-2.66477 0.314002 0)
(-2.76078 0.286129 0)
(-2.85157 0.257101 0)
(-2.93704 0.23028 0)
(-3.02261 0.212533 3.35753e-17)
(-3.10226 0.19673 0)
(-3.17702 0.183553 0)
(-3.24525 0.175754 3.28778e-17)
(-3.30892 0.170611 3.26462e-17)
(-3.36708 0.163808 0)
(-3.41769 0.154619 -6.43593e-17)
(-3.46609 0.147724 3.19483e-17)
(-3.51075 0.1415 -3.17139e-17)
(-3.54937 0.137606 0)
(-3.5852 0.134694 0)
(-3.61508 0.1303 0)
(-3.64 0.125495 0)
(-3.66228 0.119763 -3.0552e-17)
(-3.68043 0.111942 -6.06453e-17)
(-3.6929 0.104587 -3.00971e-17)
(-3.7019 0.0974812 2.98722e-17)
(-3.70354 0.0863809 0)
(-3.69974 0.0736701 -5.88388e-17)
(-3.68812 0.0579637 -5.83903e-17)
(-3.67101 0.0421655 -5.79453e-17)
(-3.64981 0.0246305 5.75034e-17)
(-3.6197 0.00246023 0)
(-3.58275 -0.0201964 8.49399e-17)
(-3.53989 -0.0397851 0)
(-3.49236 -0.0553864 -2.78773e-17)
(-3.43622 -0.0693824 -2.76645e-17)
(-3.37214 -0.0851543 0)
(-3.30186 -0.102145 0)
(-3.22806 -0.119019 -5.4041e-17)
(-3.15196 -0.134028 0)
(-3.07182 -0.148364 -5.31942e-17)
(-2.98902 -0.162133 0)
(-2.90161 -0.176626 5.23556e-17)
(-2.8106 -0.188143 1.03883e-16)
(-2.71586 -0.198006 0)
(-2.6202 -0.207238 0)
(-2.52151 -0.214688 0)
(-2.42406 -0.220776 5.02913e-17)
(-2.3249 -0.226642 0)
(-2.22233 -0.2314 4.94695e-17)
(-2.11692 -0.234801 0)
(-2.01093 -0.234217 0)
(-1.90255 -0.234564 -9.65068e-17)
(-1.79682 -0.232412 0)
(-1.6891 -0.23213 -4.74629e-17)
(-1.58548 -0.226326 0)
(-1.47755 -0.227193 -4.66955e-17)
(-1.3704 -0.226372 0)
(-1.26098 -0.225553 0)
(-1.15311 -0.229264 0)
(-1.04231 -0.231573 -1.35697e-16)
(-0.941883 -0.223046 -4.48709e-17)
(-0.832456 -0.219766 0)
(-0.739007 -0.209302 0)
(-0.636928 -0.210693 0)
(-0.550937 -0.198333 0)
(-0.446713 -0.194539 4.32361e-17)
(-0.360477 -0.189911 -8.58368e-17)
(-0.253038 -0.206736 -4.26331e-17)
(-0.165439 -0.198614 8.46577e-17)
(-0.0455416 -0.213832 8.40939e-17)
(0.0562826 -0.210228 4.1761e-17)
(0.186433 -0.225321 0)
(0.299274 -0.226164 8.23963e-17)
(0.438057 -0.242328 0)
(0.57013 -0.251324 -8.1285e-17)
(0.718363 -0.257885 -4.03843e-17)
(0.864547 -0.262297 0)
(1.01927 -0.270385 7.97622e-17)
(1.16832 -0.273163 3.9628e-17)
(1.33023 -0.281051 0)
(1.48865 -0.278823 3.90898e-17)
(1.66206 -0.268432 -1.16508e-16)
(1.8215 -0.256494 0)
(1.9858 -0.255889 0)
(2.13772 -0.255629 0)
(2.29795 -0.258922 0)
(2.45436 -0.254337 -7.51532e-17)
(2.61018 -0.251248 -7.46544e-17)
(2.7613 -0.220487 0)
(2.89886 -0.214143 0)
(3.0298 -0.200594 0)
(3.15106 -0.198737 0)
(3.25748 -0.203643 0)
(3.37657 -0.206973 0)
(3.48912 -0.206373 -7.09507e-17)
(3.60152 -0.206074 -1.65195e-20)
(3.69653 -0.198757 0)
(3.80602 -0.209594 0)
(3.89628 -0.196875 -6.86059e-17)
(3.98829 -0.197678 0)
(4.06839 -0.176928 6.74242e-17)
(4.13737 -0.187735 6.68066e-17)
(4.17955 -0.170809 0)
(4.2338 -0.189404 0)
(4.2728 -0.165355 -6.49002e-17)
(4.32311 -0.156204 -1.28511e-16)
(4.35114 -0.160351 0)
(4.38415 -0.172238 0)
(4.42627 -0.163478 0)
(4.43947 -0.148726 -6.16897e-17)
(4.46806 -0.135617 6.10017e-17)
(4.4671 -0.135447 0)
(4.48726 -0.141909 1.19368e-16)
(4.47093 -0.129801 5.90298e-17)
(4.48827 -0.127952 -1.16765e-16)
(4.46531 -0.109373 0)
(4.46408 -0.116432 0)
(4.43326 -0.0948336 -1.12746e-16)
(4.39201 -0.0672526 -5.57166e-17)
(4.30681 -0.0379002 0)
(4.2429 -0.0360195 0)
(4.11011 -0.0182833 0)
(4.00017 0.0243791 0)
(3.78838 0.0523558 -1.05589e-16)
(3.61959 0.0960199 0)
(3.32167 0.166559 0)
(3.06357 0.191458 0)
(2.71437 0.219953 0)
(2.39978 0.203172 0)
(2.01044 0.186949 0)
(1.7736 0.152763 -1.00637e-16)
(1.36954 0.149473 0)
(1.24134 0.0828027 0)
(0.855945 0.105335 -1.99431e-16)
(0.850605 0.0228744 9.92542e-17)
(0.465125 0.112164 -9.94067e-17)
(0.661419 -0.127365 9.87862e-17)
(0.0206557 -0.0932167 0)
(0.124908 -0.267874 -4.69563e-17)
(0.247452 -0.4884 0)
(0.375146 -0.753919 -2.27972e-17)
(0.50161 -0.997715 0)
(0.617552 -1.18684 0)
(0.722112 -1.30481 2.24464e-17)
(0.802691 -1.34845 0)
(0.865554 -1.31886 0)
(0.904757 -1.23329 0)
(0.926821 -1.11071 0)
(0.929583 -0.96162 0)
(0.917925 -0.794653 -8.66188e-17)
(0.889151 -0.617612 -4.30266e-17)
(0.846772 -0.434911 4.27471e-17)
(0.790481 -0.253849 0)
(0.722319 -0.0811247 0)
(0.640944 0.0803448 0)
(0.549803 0.229145 0)
(0.448418 0.362562 0)
(0.33958 0.480164 -4.11512e-17)
(0.221492 0.582052 -4.08984e-17)
(0.0955003 0.672773 4.06492e-17)
(-0.0362697 0.748782 -4.04014e-17)
(-0.172131 0.811564 0)
(-0.310733 0.8597 0)
(-0.450844 0.895787 -3.9658e-17)
(-0.591297 0.920532 0)
(-0.732666 0.934686 0)
(-0.874578 0.943311 -3.89246e-17)
(-1.01707 0.948792 -3.86812e-17)
(-1.15744 0.946476 -3.84367e-17)
(-1.29477 0.937349 0)
(-1.42885 0.922038 0)
(-1.55837 0.900533 3.7693e-17)
(-1.68291 0.870848 0)
(-1.80347 0.835263 0)
(-1.92043 0.795751 -3.69483e-17)
(-2.03435 0.757718 3.66968e-17)
(-2.14666 0.719595 -3.64481e-17)
(-2.25248 0.680867 0)
(-2.35664 0.641524 0)
(-2.45673 0.605174 -7.14192e-17)
(-2.55402 0.570943 0)
(-2.64592 0.532933 -7.04532e-17)
(-2.73439 0.494919 -1.04963e-16)
(-2.81919 0.459152 1.04242e-16)
(-2.89876 0.422949 -6.90141e-17)
(-2.97516 0.385791 0)
(-3.04905 0.350196 0)
(-3.1226 0.322107 -6.76018e-17)
(-3.19349 0.297685 -3.35705e-17)
(-3.25804 0.272136 0)
(-3.31846 0.251044 0)
(-3.37425 0.235751 -3.28784e-17)
(-3.42467 0.219034 -6.5297e-17)
(-3.46878 0.200182 0)
(-3.50699 0.182325 6.43789e-17)
(-3.54115 0.167892 -6.39197e-17)
(-3.57016 0.154316 6.34639e-17)
(-3.59305 0.140203 0)
(-3.61015 0.127008 0)
(-3.62267 0.115643 0)
(-3.63007 0.104004 0)
(-3.63387 0.0934234 0)
(-3.63289 0.0781379 6.07738e-17)
(-3.62757 0.0616125 0)
(-3.61503 0.0433026 0)
(-3.59672 0.022706 0)
(-3.5741 0.001167 1.18046e-16)
(-3.54602 -0.0224951 5.85906e-17)
(-3.51305 -0.0461884 5.81571e-17)
(-3.47518 -0.0730182 -1.15456e-16)
(-3.43083 -0.104282 5.73031e-17)
(-3.38322 -0.134311 -5.68838e-17)
(-3.32932 -0.161902 0)
(-3.27069 -0.188065 5.60371e-17)
(-3.20211 -0.214961 0)
(-3.12944 -0.240382 0)
(-3.0511 -0.262558 0)
(-2.97131 -0.28359 1.08719e-16)
(-2.88928 -0.303046 -5.3946e-17)
(-2.80397 -0.322345 -5.35327e-17)
(-2.71728 -0.341435 -1.06271e-16)
(-2.62662 -0.361559 -1.58216e-16)
(-2.53486 -0.377633 -5.23436e-17)
(-2.43834 -0.390774 0)
(-2.34206 -0.402321 -1.03071e-16)
(-2.24423 -0.410376 0)
(-2.14634 -0.416622 -1.52205e-16)
(-2.04772 -0.426633 0)
(-1.95009 -0.433199 -1.49832e-16)
(-1.84635 -0.4397 0)
(-1.74206 -0.440602 0)
(-1.63303 -0.442421 -4.87473e-17)
(-1.52543 -0.439528 0)
(-1.41445 -0.439474 4.79733e-17)
(-1.30822 -0.435124 9.51585e-17)
(-1.19404 -0.437053 4.72048e-17)
(-1.08384 -0.438837 9.36519e-17)
(-0.964944 -0.439431 -9.2895e-17)