/*--------------------------------*- C++ -*----------------------------------*\
| =========                 |                                                 |
| \\      /  F ield         | OpenFOAM: The Open Source CFD Toolbox           |
|  \\    /   O peration     | Version:  dev                                   |
|   \\  /    A nd           | Web:      http://www.openfoam.org               |
|    \\/     M anipulation  |                                                 |
\*---------------------------------------------------------------------------*/
FoamFile
{
    version     2.0;
    format      ascii;
    class       volSymmTensorField;
    object      UPrime2Mean;
    location    "9.154";
}
// * * * * * * * * * * * * * * * * * * * * * * * * * * * * * * * * * * * * * //

dimensions      [0 2 -2 0 0 0 0];

internalField   nonuniform List<symmTensor> 
12225
(
(0.329392 0.0192681 0 0.0692195 0 0)
(2.98759 0.0796758 0 0.0781363 0 0)
(7.88409 0.112273 0 0.0768405 0 0)
(14.5412 0.148163 0 0.0755171 0 0)
(22.7135 0.132924 0 0.0764645 0 0)
(32.0817 0.200985 0 0.0746205 0 0)
(42.3987 0.0958685 0 0.0765636 0 0)
(53.5468 0.200242 0 0.0738023 0 0)
(65.6452 -0.0285224 0 0.0775664 0 0)
(78.2471 0.12546 0 0.0735738 0 0)
(92.9983 -0.306295 0 0.0812698 0 0)
(107.344 -0.115949 0 0.0769481 0 0)
(127.961 -0.672251 0 0.086277 0 0)
(145.664 -1.27689 0 0.134662 0 0)
(185.999 -1.41125 0 0.116423 0 0)
(198.575 -0.391727 0 2.39389 0 0)
(272.371 -33.5433 0 5.80918 0 0)
(575.937 -52.9534 0 18.829 0 0)
(0.377575 0.0567966 0 0.688501 0 0)
(3.15763 0.252185 0 0.731764 0 0)
(8.41474 0.362036 0 0.713639 0 0)
(15.4807 0.485247 0 0.706138 0 0)
(24.2085 0.452834 0 0.703012 0 0)
(34.472 0.632593 0 0.682851 0 0)
(45.5442 0.29592 0 0.691656 0 0)
(58.5047 0.608747 0 0.658342 0 0)
(71.5003 -0.13524 0 0.682212 0 0)
(87.1809 0.282328 0 0.64556 0 0)
(102.82 -1.06512 0 0.710889 0 0)
(121.469 -0.766138 0 0.655133 0 0)
(142.9 -2.54279 0 1.06865 0 0)
(166.366 -4.49027 0 1.0466 0 0)
(199.841 -0.92727 0 3.10306 0 0)
(274.454 -9.97458 0 6.60754 0 0)
(281.106 -20.8425 0 8.73799 0 0)
(800.071 -185.215 0 64.7107 0 0)
(0.505124 0.0583823 0 2.13911 0 0)
(3.0654 0.42453 0 2.20099 0 0)
(8.46949 0.570424 0 2.14996 0 0)
(14.8594 0.85168 0 2.14144 0 0)
(24.2861 0.8643 0 2.11838 0 0)
(33.165 1.05277 0 2.08119 0 0)
(45.2892 0.756019 0 2.07698 0 0)
(56.2252 0.885954 0 2.00624 0 0)
(69.7125 0.172049 0 2.05042 0 0)
(83.4809 0.0165376 0 1.95813 0 0)
(98.2233 -1.12351 0 2.12137 0 0)
(115.708 -2.44863 0 2.09345 0 0)
(138.672 -3.59651 0 2.62144 0 0)
(154.933 -7.19971 0 2.83074 0 0)
(211.091 -13.011 0 6.12265 0 0)
(223.484 -7.8882 0 6.37784 0 0)
(353.157 -62.2753 0 31.085 0 0)
(534.712 -192.565 0 98.2634 0 0)
(1.02979 0.0924034 0 4.6673 0 0)
(3.55094 0.619372 0 4.7638 0 0)
(9.07262 0.815727 0 4.63969 0 0)
(15.0731 1.14973 0 4.59896 0 0)
(24.647 1.31263 0 4.55473 0 0)
(32.9983 1.34952 0 4.48044 0 0)
(45.0242 1.26099 0 4.44551 0 0)
(55.1915 0.972965 0 4.34707 0 0)
(68.6285 0.47537 0 4.37889 0 0)
(80.7472 -0.283372 0 4.25539 0 0)
(96.074 -1.33168 0 4.5048 0 0)
(110.56 -3.34288 0 4.37008 0 0)
(131.525 -4.79483 0 5.30015 0 0)
(152.318 -10.9748 0 5.60669 0 0)
(187.928 -11.4295 0 9.28701 0 0)
(238.521 -28.8698 0 16.8268 0 0)
(291.599 -58.9391 0 32.6827 0 0)
(414.931 -178.341 0 107.837 0 0)
(1.86416 0.365074 0 8.51697 0 0)
(5.01153 0.7203 0 8.71837 0 0)
(9.44013 1.13988 0 8.46735 0 0)
(16.2494 1.2945 0 8.3643 0 0)
(24.6599 1.70046 0 8.27476 0 0)
(33.9617 1.50209 0 8.13976 0 0)
(44.8399 1.59723 0 8.0392 0 0)
(55.5469 0.992239 0 7.90725 0 0)
(68.4442 0.599424 0 7.85434 0 0)
(80.1556 -0.595133 0 7.75672 0 0)
(95.4109 -1.78056 0 7.95856 0 0)
(108.602 -4.22992 0 7.90618 0 0)
(128.149 -6.88262 0 9.02345 0 0)
(145.281 -12.2913 0 9.2658 0 0)
(174.029 -19.2053 0 14.5885 0 0)
(217.978 -25.9635 0 17.2125 0 0)
(233.752 -55.5939 0 46.2643 0 0)
(326.754 -171.768 0 138.667 0 0)
(2.56326 0.750599 0 14.0305 0 0)
(6.32773 0.807273 0 14.3822 0 0)
(9.30497 1.53985 0 13.9526 0 0)
(17.1044 1.59441 0 13.758 0 0)
(24.1523 2.1203 0 13.5834 0 0)
(34.2816 1.9362 0 13.3515 0 0)
(43.9961 1.99043 0 13.1466 0 0)
(55.1958 1.41439 0 12.906 0 0)
(67.3586 0.893232 0 12.7697 0 0)
(78.944 -0.387795 0 12.569 0 0)
(94.4681 -1.7404 0 12.7699 0 0)
(105.874 -4.31498 0 12.6787 0 0)
(128.169 -7.26953 0 13.9817 0 0)
(137.993 -13.1601 0 14.6621 0 0)
(171.042 -21.8401 0 21.2463 0 0)
(191.558 -33.0478 0 24.601 0 0)
(211.128 -55.9219 0 51.5717 0 0)
(265.774 -145.687 0 130.642 0 0)
(2.24602 0.721772 0 21.5179 0 0)
(5.54699 0.941397 0 22.1337 0 0)
(9.20527 1.76355 0 21.3599 0 0)
(16.3486 2.07728 0 21.1723 0 0)
(23.9857 2.44939 0 20.7739 0 0)
(33.3811 2.54215 0 20.5408 0 0)
(43.634 2.27318 0 20.0729 0 0)
(54.0768 1.92689 0 19.8432 0 0)
(66.5193 0.895072 0 19.4258 0 0)
(77.3998 -0.220454 0 19.2732 0 0)
(92.5634 -2.37462 0 19.2139 0 0)
(103.547 -4.82595 0 19.2569 0 0)
(123.7 -8.98499 0 20.4673 0 0)
(133.984 -14.2646 0 21.4461 0 0)
(161.613 -24.4078 0 28.5108 0 0)
(169.454 -32.4152 0 32.0478 0 0)
(203.452 -59.0196 0 56.8663 0 0)
(190.342 -108.804 0 114.15 0 0)
(1.42568 0.598863 0 29.7344 0 0)
(4.32471 1.13491 0 30.6194 0 0)
(8.58798 1.92388 0 29.4728 0 0)
(15.2596 2.47233 0 29.3017 0 0)
(23.2191 2.77672 0 28.6568 0 0)
(32.2824 2.96245 0 28.396 0 0)
(42.4412 2.59681 0 27.6448 0 0)
(52.8164 2.18935 0 27.3645 0 0)
(64.4602 1.00491 0 26.6414 0 0)
(75.6518 -0.366348 0 26.4765 0 0)
(88.6891 -2.75567 0 26.0938 0 0)
(100.477 -5.73971 0 26.3188 0 0)
(115.6 -10.3268 0 27.0758 0 0)
(128.134 -15.8054 0 28.5913 0 0)
(144.728 -26.4983 0 33.9065 0 0)
(152.092 -33.4663 0 37.4718 0 0)
(180.411 -54.9073 0 53.1845 0 0)
(139.649 -71.3266 0 83.6951 0 0)
(1.00824 0.521445 0 38.4995 0 0)
(3.78039 1.28799 0 39.6932 0 0)
(8.18426 2.03562 0 38.1566 0 0)
(14.7349 2.7793 0 38.0157 0 0)
(22.6642 3.00495 0 37.1063 0 0)
(31.6017 3.31449 0 36.8314 0 0)
(41.5248 2.80302 0 35.7811 0 0)
(51.799 2.4707 0 35.4628 0 0)
(62.8594 1.03505 0 34.4549 0 0)
(73.8773 -0.285434 0 34.2553 0 0)
(85.6991 -3.05114 0 33.6253 0 0)
(97.0604 -5.90966 0 33.8854 0 0)
(109.391 -10.9558 0 34.3953 0 0)
(121.268 -16.0472 0 36.1153 0 0)
(131.28 -25.5716 0 39.9992 0 0)
(138.202 -33.2163 0 44.7292 0 0)
(150.054 -47.333 0 52.4593 0 0)
(123.256 -58.7625 0 73.1176 0 0)
(0.612442 0.484621 0 49.6784 0 0)
(3.23725 1.44589 0 51.2656 0 0)
(7.74485 2.18624 0 49.1705 0 0)
(14.2043 3.03524 0 49.0831 0 0)
(22.0011 3.27222 0 47.7946 0 0)
(30.8617 3.57732 0 47.5154 0 0)
(40.4893 3.06232 0 46.0551 0 0)
(50.6269 2.63303 0 45.6868 0 0)
(61.1537 1.15719 0 44.2683 0 0)
(71.8245 -0.299083 0 44.0252 0 0)
(82.7088 -3.14926 0 42.982 0 0)
(93.2538 -6.04711 0 43.3015 0 0)
(103.897 -11.1032 0 43.303 0 0)
(113.762 -15.8558 0 45.16 0 0)
(121.374 -24.5167 0 47.6647 0 0)
(125.812 -30.5815 0 51.935 0 0)
(129.149 -40.7293 0 56.4577 0 0)
(116.049 -48.4006 0 69.0215 0 0)
(0.43427 0.516197 0 63.8632 0 0)
(2.98001 1.62716 0 65.9169 0 0)
(7.47212 2.38295 0 63.2269 0 0)
(13.8502 3.30921 0 63.115 0 0)
(21.4985 3.56794 0 61.4822 0 0)
(30.1987 3.85665 0 61.0679 0 0)
(39.5596 3.35275 0 59.2611 0 0)
(49.4001 2.81368 0 58.6667 0 0)
(59.4719 1.3633 0 56.9472 0 0)
(69.5767 -0.27519 0 56.43 0 0)
(79.6739 -2.99118 0 55.1286 0 0)
(89.21 -6.09243 0 55.1852 0 0)
(98.5287 -10.5654 0 54.8404 0 0)
(106.406 -15.4289 0 56.3887 0 0)
(112.572 -22.1449 0 57.8339 0 0)
(115.106 -28.0606 0 61.5638 0 0)
(116.051 -35.2076 0 64.5309 0 0)
(109.6 -40.807 0 71.4302 0 0)
(0.356442 0.540487 0 81.3447 0 0)
(2.83228 1.74436 0 84.0282 0 0)
(7.26377 2.55398 0 80.5627 0 0)
(13.5197 3.49977 0 80.4533 0 0)
(20.9944 3.80663 0 78.3682 0 0)
(29.4745 4.03339 0 77.8154 0 0)
(38.5331 3.55617 0 75.5277 0 0)
(48.0039 2.91348 0 74.7035 0 0)
(57.5582 1.47386 0 72.513 0 0)
(67.0519 -0.231485 0 71.7267 0 0)
(76.2655 -2.88237 0 69.9728 0 0)
(84.8519 -5.86849 0 69.7145 0 0)
(92.7585 -9.97377 0 68.8805 0 0)
(99.1878 -14.3029 0 69.8351 0 0)
(103.902 -19.7503 0 70.479 0 0)
(105.846 -24.6638 0 72.9841 0 0)
(106.002 -29.8296 0 74.9274 0 0)
(101.756 -33.3146 0 78.5851 0 0)
(0.329348 0.568928 0 102.409 0 0)
(2.73679 1.806 0 105.616 0 0)
(7.07056 2.68184 0 101.593 0 0)
(13.1582 3.58134 0 101.124 0 0)
(20.4376 3.93062 0 98.8608 0 0)
(28.6225 4.05081 0 97.7816 0 0)
(37.3565 3.61018 0 95.2686 0 0)
(46.3573 2.82741 0 93.8201 0 0)
(55.3862 1.46676 0 91.3853 0 0)
(64.1673 -0.35095 0 89.9353 0 0)
(72.5464 -2.76968 0 87.9102 0 0)
(80.1364 -5.70137 0 86.9372 0 0)
(86.8578 -9.21221 0 85.7269 0 0)
(92.1187 -13.1017 0 85.7353 0 0)
(95.8206 -17.3203 0 85.6867 0 0)
(97.4053 -21.3874 0 86.8295 0 0)
(97.508 -25.2322 0 87.858 0 0)
(94.7038 -27.6879 0 89.4642 0 0)
(0.313736 0.573143 0 126.387 0 0)
(2.6414 1.77318 0 130.314 0 0)
(6.84965 2.66618 0 125.607 0 0)
(12.7339 3.46112 0 124.798 0 0)
(19.771 3.78842 0 122.268 0 0)
(27.622 3.80188 0 120.692 0 0)
(35.9639 3.32783 0 117.811 0 0)
(44.4738 2.48038 0 115.779 0 0)
(52.9108 1.12498 0 112.92 0 0)
(61.0046 -0.638842 0 110.831 0 0)
(68.5537 -2.90742 0 108.341 0 0)
(75.2772 -5.53987 0 106.616 0 0)
(81.0152 -8.59565 0 104.85 0 0)
(85.4644 -11.8196 0 103.847 0 0)
(88.51 -15.1829 0 103.017 0 0)
(89.9477 -18.3509 0 102.844 0 0)
(90.2501 -21.2702 0 102.858 0 0)
(88.2872 -22.9177 0 103.012 0 0)
(0.299342 0.52467 0 151.787 0 0)
(2.53344 1.58096 0 156.286 0 0)
(6.58541 2.37624 0 151.159 0 0)
(12.2359 2.98603 0 149.721 0 0)
(18.9777 3.20923 0 147.164 0 0)
(26.4573 3.06695 0 144.852 0 0)
(34.3582 2.52623 0 141.765 0 0)
(42.3479 1.59386 0 138.96 0 0)
(50.185 0.264187 0 135.763 0 0)
(57.6045 -1.44101 0 132.887 0 0)
(64.4177 -3.50315 0 129.937 0 0)
(70.3967 -5.84115 0 127.367 0 0)
(75.4109 -8.41844 0 124.965 0 0)
(79.2978 -11.0709 0 122.965 0 0)
(81.9962 -13.7093 0 121.252 0 0)
(83.4142 -16.1744 0 119.915 0 0)
(83.9967 -18.3732 0 118.827 0 0)
(82.7898 -19.4201 0 117.717 0 0)
(0.28405 0.394059 0 174.995 0 0)
(2.415 1.14505 0 180.192 0 0)
(6.28512 1.66981 0 174.586 0 0)
(11.674 2.00192 0 172.705 0 0)
(18.0821 1.99899 0 170.024 0 0)
(25.1631 1.66208 0 167.174 0 0)
(32.596 0.98135 0 163.79 0 0)
(40.0654 -0.027739 0 160.395 0 0)
(47.3239 -1.36227 0 156.779 0 0)
(54.1382 -2.97437 0 153.267 0 0)
(60.3303 -4.84292 0 149.781 0 0)
(65.7359 -6.87398 0 146.492 0 0)
(70.2502 -9.02849 0 143.397 0 0)
(73.8001 -11.1767 0 140.544 0 0)
(76.356 -13.2409 0 137.955 0 0)
(77.8823 -15.1407 0 135.631 0 0)
(78.7644 -16.7885 0 133.52 0 0)
(78.2161 -17.387 0 131.323 0 0)
(0.268825 0.156455 0 190.097 0 0)
(2.29413 0.391267 0 195.765 0 0)
(5.96855 0.489317 0 189.874 0 0)
(11.0783 0.410925 0 187.732 0 0)
(17.1361 0.0744018 0 184.987 0 0)
(23.8092 -0.533909 0 181.818 0 0)
(30.7804 -1.40308 0 178.241 0 0)
(37.7541 -2.52539 0 174.49 0 0)
(44.4941 -3.87519 0 170.58 0 0)
(50.7943 -5.41532 0 166.663 0 0)
(56.5017 -7.10234 0 162.773 0 0)
(61.4946 -8.8711 0 158.995 0 0)
(65.6975 -10.6671 0 155.361 0 0)
(69.0812 -12.4124 0 151.901 0 0)
(71.6385 -14.0311 0 148.637 0 0)
(73.3582 -15.5015 0 145.595 0 0)
(74.5533 -16.7379 0 142.705 0 0)
(74.5982 -17.0597 0 139.712 0 0)
(0.259175 -0.142183 0 190.069 0 0)
(2.19659 -0.533393 0 195.696 0 0)
(5.69186 -0.936433 0 189.868 0 0)
(10.5454 -1.49127 0 187.717 0 0)
(16.2875 -2.21144 0 185.015 0 0)
(22.6004 -3.11367 0 181.852 0 0)
(29.1759 -4.18711 0 178.3 0 0)
(35.7415 -5.42599 0 174.552 0 0)
(42.0742 -6.79984 0 170.629 0 0)
(47.9965 -8.28002 0 166.679 0 0)
(53.3722 -9.81975 0 162.707 0 0)
(58.113 -11.3765 0 158.823 0 0)
(62.1578 -12.8974 0 155.012 0 0)
(65.5004 -14.3391 0 151.351 0 0)
(68.1397 -15.6362 0 147.812 0 0)
(70.0811 -16.796 0 144.475 0 0)
(71.558 -17.743 0 141.229 0 0)
(72.0924 -17.9484 0 137.901 0 0)
(0.256005 -0.395874 0 174.262 0 0)
(2.13738 -1.30486 0 179.21 0 0)
(5.50105 -2.12565 0 173.883 0 0)
(10.1646 -3.07346 0 171.891 0 0)
(15.6732 -4.1014 0 169.411 0 0)
(21.7219 -5.23019 0 166.523 0 0)
(28.0135 -6.45275 0 163.273 0 0)
(34.2934 -7.76594 0 159.852 0 0)
(40.3514 -9.14131 0 156.248 0 0)
(46.031 -10.5589 0 152.621 0 0)
(51.2069 -11.9769 0 148.94 0 0)
(55.8107 -13.3685 0 145.335 0 0)
(59.7893 -14.689 0 141.754 0 0)
(63.1466 -15.9152 0 138.304 0 0)
(65.8806 -16.9956 0 134.922 0 0)
(68.0089 -17.9452 0 131.723 0 0)
(69.7004 -18.703 0 128.57 0 0)
(70.5981 -18.8911 0 125.372 0 0)
(0.25745 -0.544867 0 148.843 0 0)
(2.10956 -1.74566 0 152.797 0 0)
(5.38656 -2.82023 0 148.264 0 0)
(9.9225 -4.00277 0 146.548 0 0)
(15.2743 -5.20575 0 144.428 0 0)
(21.1461 -6.45417 0 141.976 0 0)
(27.2499 -7.74 0 139.213 0 0)
(33.3437 -9.06508 0 136.31 0 0)
(39.2277 -10.402 0 133.239 0 0)
(44.7582 -11.7409 0 130.15 0 0)
(49.8198 -13.0433 0 126.995 0 0)
(54.3532 -14.2962 0 123.902 0 0)
(58.3123 -15.4602 0 120.809 0 0)
(61.7026 -16.5263 0 117.823 0 0)
(64.5231 -17.4509 0 114.876 0 0)
(66.7961 -18.253 0 112.08 0 0)
(68.6467 -18.8821 0 109.309 0 0)
(69.8076 -19.092 0 106.52 0 0)
(0.260305 -0.600659 0 119.96 0 0)
(2.1006 -1.88782 0 122.927 0 0)
(5.32046 -3.06476 0 119.281 0 0)
(9.77099 -4.33676 0 117.888 0 0)
(15.0179 -5.59421 0 116.183 0 0)
(20.772 -6.86322 0 114.22 0 0)
(26.752 -8.1335 0 112.008 0 0)
(32.7251 -9.41036 0 109.683 0 0)
(38.4987 -10.6684 0 107.22 0 0)
(43.9376 -11.9046 0 104.737 0 0)
(48.9341 -13.0852 0 102.197 0 0)
(53.4336 -14.2054 0 99.7001 0 0)
(57.3949 -15.2309 0 97.1969 0 0)
(60.8227 -16.1617 0 94.773 0 0)
(63.7173 -16.9607 0 92.3762 0 0)
(66.1037 -17.6475 0 90.0942 0 0)
(68.0765 -18.1813 0 87.8308 0 0)
(69.4361 -18.4171 0 85.557 0 0)
(0.263259 -0.58993 0 91.828 0 0)
(2.10024 -1.82821 0 93.9417 0 0)
(5.28265 -2.99387 0 91.1525 0 0)
(9.67628 -4.24328 0 90.0796 0 0)
(14.8527 -5.46272 0 88.781 0 0)
(20.5281 -6.67459 0 87.287 0 0)
(26.4263 -7.86844 0 85.6073 0 0)
(32.3206 -9.04922 0 83.8364 0 0)
(38.0241 -10.1962 0 81.9617 0 0)
(43.4067 -11.3082 0 80.0658 0 0)
(48.3666 -12.3581 0 78.1261 0 0)
(52.8517 -13.3444 0 76.2127 0 0)
(56.8243 -14.2395 0 74.2957 0 0)
(60.2875 -15.0459 0 72.4335 0 0)
(63.2431 -15.7356 0 70.5933 0 0)
(65.7181 -16.3235 0 68.8344 0 0)
(67.7853 -16.7804 0 67.0927 0 0)
(69.2978 -17.03 0 65.3408 0 0)
(0.26633 -0.5362 0 66.891 0 0)
(2.10407 -1.64928 0 68.3302 0 0)
(5.26131 -2.72816 0 66.2998 0 0)
(9.61718 -3.88009 0 65.5173 0 0)
(14.7462 -4.99887 0 64.5797 0 0)
(20.3693 -6.10037 0 63.4984 0 0)
(26.214 -7.17654 0 62.2849 0 0)
(32.0572 -8.22927 0 60.9999 0 0)
(37.7167 -9.24372 0 59.6418 0 0)
(43.0657 -10.2174 0 58.2627 0 0)
(48.0066 -11.1311 0 56.8546 0 0)
(52.4886 -11.9824 0 55.4607 0 0)
(56.4762 -12.7517 0 54.0676 0 0)
(59.9715 -13.4409 0 52.7096 0 0)
(62.9771 -14.0303 0 51.3703 0 0)
(65.5212 -14.5292 0 50.0853 0 0)
(67.6609 -14.9192 0 48.8163 0 0)
(69.2913 -15.1672 0 47.536 0 0)
(0.268186 -0.462435 0 46.26 0 0)
(2.10848 -1.4146 0 47.1981 0 0)
(5.24946 -2.36163 0 45.7983 0 0)
(9.58036 -3.37217 0 45.2605 0 0)
(14.6777 -4.35257 0 44.6196 0 0)
(20.2662 -5.31225 0 43.8763 0 0)
(26.0763 -6.24619 0 43.0427 0 0)
(31.8871 -7.15266 0 42.1559 0 0)
(37.5198 -8.02271 0 41.2209 0 0)
(42.8495 -8.85164 0 40.2682 0 0)
(47.7813 -9.62721 0 39.2988 0 0)
(52.2652 -10.3454 0 38.3367 0 0)
(56.2674 -10.9938 0 37.3778 0 0)
(59.7887 -11.5719 0 36.4403 0 0)
(62.8323 -12.0675 0 35.5176 0 0)
(65.4272 -12.4843 0 34.629 0 0)
(67.619 -12.8123 0 33.7546 0 0)
(69.3353 -13.0428 0 32.8691 0 0)
(0.26934 -0.382714 0 30.1387 0 0)
(2.11201 -1.16361 0 30.7226 0 0)
(5.24269 -1.9566 0 29.813 0 0)
(9.55685 -2.80494 0 29.466 0 0)
(14.6329 -3.62805 0 29.0541 0 0)
(20.1981 -4.43211 0 28.5738 0 0)
(25.9851 -5.21337 0 28.0349 0 0)
(31.7738 -5.96878 0 27.4595 0 0)
(37.3877 -6.69183 0 26.8538 0 0)
(42.7029 -7.37775 0 26.2358 0 0)
(47.6263 -8.018 0 25.6081 0 0)
(52.1076 -8.60841 0 24.9841 0 0)
(56.1151 -9.14103 0 24.3634 0 0)
(59.6486 -9.61395 0 23.7551 0 0)
(62.7119 -10.0196 0 23.1574 0 0)
(65.3327 -10.3583 0 22.58 0 0)
(67.5514 -10.6256 0 22.0133 0 0)
(69.3207 -10.8232 0 21.4381 0 0)
(0.269659 -0.304309 0 18.1999 0 0)
(2.11376 -0.918977 0 18.5439 0 0)
(5.23732 -1.55279 0 17.9936 0 0)
(9.53743 -2.23519 0 17.7877 0 0)
(14.5945 -2.89891 0 17.5447 0 0)
(20.1376 -3.54855 0 17.2604 0 0)
(25.9002 -4.17934 0 16.9403 0 0)
(31.6633 -4.78797 0 16.5976 0 0)
(37.2515 -5.36788 0 16.236 0 0)
(42.5414 -5.9156 0 15.8662 0 0)
(47.4422 -6.42383 0 15.4898 0 0)
(51.9026 -6.89021 0 15.1149 0 0)
(55.8942 -7.30792 0 14.7416 0 0)
(59.4149 -7.67667 0 14.3751 0 0)
(62.473 -7.99064 0 14.0148 0 0)
(65.091 -8.25041 0 13.666 0 0)
(67.3128 -8.45514 0 13.3242 0 0)
(69.1096 -8.60562 0 12.9776 0 0)
(0.269298 -0.228058 0 9.87572 0 0)
(2.11149 -0.690656 0 10.0591 0 0)
(5.22008 -1.17766 0 9.76211 0 0)
(9.49393 -1.70699 0 9.6598 0 0)
(14.5207 -2.22107 0 9.53546 0 0)
(20.0305 -2.7212 0 9.38635 0 0)
(25.7561 -3.20305 0 9.21577 0 0)
(31.4812 -3.66415 0 9.03165 0 0)
(37.0303 -4.09873 0 8.83602 0 0)
(42.283 -4.50524 0 8.63513 0 0)
(47.1478 -4.87807 0 8.42961 0 0)
(51.578 -5.21737 0 8.2246 0 0)
(55.5443 -5.51735 0 8.01955 0 0)
(59.0487 -5.7802 0 7.81842 0 0)
(62.0985 -5.9998 0 7.62026 0 0)
(64.7154 -6.17972 0 7.42908 0 0)
(66.9409 -6.3229 0 7.24242 0 0)
(68.771 -6.42501 0 7.05433 0 0)
(0.268161 -0.154662 0 4.48307 0 0)
(2.08463 -0.497428 0 4.57864 0 0)
(5.15878 -0.851624 0 4.45353 0 0)
(9.39309 -1.2277 0 4.41791 0 0)
(14.3943 -1.5845 0 4.36686 0 0)
(19.8785 -1.9266 0 4.30247 0 0)
(25.5775 -2.25139 0 4.2252 0 0)
(31.2766 -2.5566 0 4.13876 0 0)
(36.8026 -2.84064 0 4.04578 0 0)
(42.0346 -3.10468 0 3.95002 0 0)
(46.8827 -3.3458 0 3.85227 0 0)
(51.3035 -3.56486 0 3.75524 0 0)
(55.264 -3.75811 0 3.65841 0 0)
(58.7742 -3.9276 0 3.56448 0 0)
(61.8306 -4.06723 0 3.47188 0 0)
(64.4663 -4.18229 0 3.38446 0 0)
(66.6889 -4.27281 0 3.29927 0 0)
(68.5471 -4.34289 0 3.21512 0 0)
(0.255265 -0.0881037 0 1.42004 0 0)
(2.06867 -0.313163 0 1.48574 0 0)
(5.20727 -0.525517 0 1.44572 0 0)
(9.50006 -0.733712 0 1.43257 0 0)
(14.5547 -0.923657 0 1.41247 0 0)
(20.0902 -1.10615 0 1.38921 0 0)
(25.8455 -1.28269 0 1.36259 0 0)
(31.6038 -1.45073 0 1.33328 0 0)
(37.1913 -1.6086 0 1.30231 0 0)
(42.4823 -1.75613 0 1.27071 0 0)
(47.39 -1.89182 0 1.23892 0 0)
(51.8632 -2.01568 0 1.20752 0 0)
(55.8735 -2.12569 0 1.1765 0 0)
(59.4236 -2.2225 0 1.14655 0 0)
(62.5133 -2.30202 0 1.1173 0 0)
(65.1806 -2.36823 0 1.09083 0 0)
(67.403 -2.42086 0 1.06564 0 0)
(69.2533 -2.46035 0 1.0387 0 0)
(0.245948 -0.0253026 0 0.141748 0 0)
(2.06648 -0.0977312 0 0.153525 0 0)
(5.18613 -0.165402 0 0.150741 0 0)
(9.44804 -0.230584 0 0.149572 0 0)
(14.484 -0.293429 0 0.14727 0 0)
(20.0067 -0.353715 0 0.144544 0 0)
(25.7554 -0.412497 0 0.141547 0 0)
(31.5113 -0.468963 0 0.138417 0 0)
(37.1059 -0.52228 0 0.135196 0 0)
(42.4148 -0.572263 0 0.131946 0 0)
(47.3528 -0.618606 0 0.12869 0 0)
(51.8669 -0.66128 0 0.12549 0 0)
(55.9307 -0.699712 0 0.122349 0 0)
(59.5394 -0.733756 0 0.119326 0 0)
(62.6993 -0.76268 0 0.116503 0 0)
(65.4435 -0.787924 0 0.114168 0 0)
(67.7561 -0.806143 0 0.112095 0 0)
(69.684 -0.815439 0 0.111711 0 0)
(0.0244748 0.0357379 0 0.716921 0 0)
(0.267179 0.0990192 0 0.67803 0 0)
(0.785217 0.180746 0 0.670885 0 0)
(1.53845 0.294686 0 0.661671 0 0)
(2.48521 0.423564 0 0.660068 0 0)
(3.60727 0.56824 0 0.656788 0 0)
(4.88265 0.715189 -2.38482e-19 0.654809 -6.47436e-20 1.47759e-37)
(6.30846 0.866005 2.42533e-19 0.650488 6.90419e-20 1.48211e-37)
(7.87803 1.01287 0 0.644472 0 0)
(9.58938 1.1602 2.45033e-19 0.636898 6.84678e-20 1.45995e-37)
(11.4373 1.30413 0 0.62832 0 0)
(13.4159 1.44691 0 0.619237 0 0)
(15.5186 1.58393 0 0.611293 0 0)
(17.739 1.71552 -2.77606e-19 0.604838 -5.16312e-20 1.34651e-37)
(20.071 1.83852 0 0.598639 0 0)
(22.5151 1.95202 0 0.593422 0 0)
(25.0715 2.05183 3.40657e-19 0.58914 3.90189e-20 1.22007e-37)
(27.7389 2.1396 0 0.584699 0 0)
(30.5122 2.21797 0 0.580044 0 0)
(33.3857 2.28917 0 0.575612 0 0)
(36.3437 2.35225 -4.56266e-19 0.572288 -1.95988e-20 1.01711e-37)
(39.3765 2.40797 0 0.568535 0 0)
(42.4703 2.45441 -5.15887e-19 0.566277 -1.03275e-20 9.24565e-38)
(45.6159 2.49145 0 0.567476 0 0)
(48.7971 2.52523 0 0.568238 0 0)
(51.9999 2.54838 -6.03872e-19 0.570412 1.1959e-21 7.97061e-38)
(55.2174 2.55065 0 0.572246 0 0)
(58.4536 2.53333 6.57431e-19 0.570717 -6.92253e-21 7.21004e-38)
(61.7026 2.50242 0 0.562851 0 0)
(64.9701 2.45977 -7.02134e-19 0.552446 1.04768e-20 6.53389e-38)
(68.2547 2.40799 0 0.538882 0 0)
(71.5436 2.34955 0 0.523063 0 0)
(74.8293 2.2843 0 0.509034 0 0)
(78.1132 2.20851 0 0.49766 0 0)
(81.389 2.12157 0 0.486114 0 0)
(84.6536 2.02638 7.79202e-19 0.475216 -1.39965e-20 4.59512e-38)
(87.9054 1.92278 0 0.463609 0 0)
(91.1456 1.81062 -1.56166e-18 0.447612 2.71444e-20 1.61237e-37)
(94.3726 1.69147 0 0.432065 0 0)
(97.5816 1.56423 1.55179e-18 0.417477 -2.61582e-20 1.39865e-37)
(100.766 1.43137 0 0.402373 0 0)
(103.924 1.28928 0 0.39074 0 0)
(107.048 1.13889 -1.51397e-18 0.378215 2.15735e-20 1.11204e-37)
(110.119 0.986137 0 0.365434 0 0)
(113.124 0.831314 -1.47554e-18 0.354652 1.82861e-20 9.42826e-38)
(116.047 0.673249 1.45311e-18 0.345811 -1.65643e-20 8.65952e-38)
(118.873 0.509158 0 0.339605 0 0)
(121.593 0.33892 1.4024e-18 0.334707 -1.25232e-20 7.33856e-38)
(124.192 0.163542 1.37425e-18 0.330887 -1.06505e-20 6.79229e-38)
(126.669 -0.0142907 0 0.327706 0 0)
(129.01 -0.193597 0 0.325548 0 0)
(131.197 -0.377108 0 0.322802 0 0)
(133.207 -0.565592 0 0.321544 0 0)
(135.02 -0.756357 0 0.323572 0 0)
(136.611 -0.946102 -1.17405e-18 0.327783 -4.3898e-21 5.01393e-38)
(137.949 -1.13727 0 0.331893 0 0)
(139.024 -1.33316 1.07945e-18 0.335604 1.14705e-20 4.74903e-38)
(139.838 -1.53567 0 0.340867 0 0)
(140.387 -1.7445 0 0.347676 0 0)
(140.655 -1.95062 -9.11621e-19 0.356949 -2.24384e-20 4.74997e-38)
(140.638 -2.15496 0 0.36888 0 0)
(140.318 -2.36012 7.80366e-19 0.380901 3.12239e-20 4.96685e-38)
(139.704 -2.56415 0 0.391205 0 0)
(138.79 -2.76817 0 0.404003 0 0)
(137.586 -2.97138 0 0.418248 0 0)
(136.105 -3.16747 -4.82489e-19 0.4328 -4.75329e-20 6.03236e-38)
(134.349 -3.35644 0 0.447378 0 0)
(132.333 -3.53895 0 0.460449 0 0)
(130.065 -3.71442 -2.26844e-19 0.474363 -6.11964e-20 7.30041e-38)
(127.566 -3.88816 0 0.490262 0 0)
(124.871 -4.05371 -5.10536e-20 0.505591 -6.9899e-20 8.29809e-38)
(121.992 -4.20604 0 0.520527 0 0)
(118.947 -4.34701 0 0.53673 0 0)
(115.77 -4.47847 0 0.554011 0 0)
(112.484 -4.60023 -3.04864e-19 0.572006 8.31267e-20 1.04511e-37)
(109.108 -4.70992 0 0.590008 0 0)
(105.657 -4.80417 0 0.60779 0 0)
(102.142 -4.88315 -5.64138e-19 0.625737 9.0278e-20 1.20128e-37)
(98.577 -4.95129 -6.4592e-19 0.644393 9.18246e-20 1.25236e-37)
(94.988 -5.00832 0 0.663092 0 0)
(91.4058 -5.05338 -7.98885e-19 0.682725 9.46112e-20 1.34651e-37)
(87.851 -5.08708 0 0.703845 0 0)
(84.344 -5.10887 -1.87724e-18 0.725389 1.9255e-19 5.74245e-37)
(80.8993 -5.1177 0 0.74803 0 0)
(77.5346 -5.11203 -2.12206e-18 0.770597 1.93675e-19 6.07396e-37)
(74.2684 -5.09009 0 0.793537 0 0)
(71.1152 -5.0552 2.3246e-18 0.81948 -1.93816e-19 6.36389e-37)
(68.0924 -5.00709 0 0.844487 0 0)
(65.2143 -4.94038 0 0.866794 0 0)
(62.4805 -4.85489 0 0.889482 0 0)
(59.8956 -4.7528 -2.58532e-18 0.914487 1.86224e-19 6.79774e-37)
(57.4654 -4.63641 0 0.939083 0 0)
(55.1989 -4.50386 2.64612e-18 0.963343 -1.79949e-19 6.9452e-37)
(53.0991 -4.35498 0 0.987077 0 0)
(51.155 -4.18397 -2.65785e-18 1.01063 1.73558e-19 7.03361e-37)
(49.3615 -3.99641 -2.64858e-18 1.03192 1.70332e-19 7.06864e-37)
(47.707 -3.79629 -2.62957e-18 1.05315 1.66187e-19 7.0954e-37)
(46.1869 -3.58712 0 1.07552 0 0)
(44.7742 -3.3677 0 1.0986 0 0)
(43.4791 -3.13926 0 1.11814 0 0)
(42.2824 -2.90172 0 1.13794 0 0)
(41.1794 -2.66239 0 1.15781 0 0)
(40.152 -2.42261 0 1.17682 0 0)
(39.1974 -2.18019 0 1.19195 0 0)
(38.2697 -1.93687 0 1.20797 0 0)
(37.3663 -1.70035 2.02533e-18 1.22334 -1.31636e-19 7.0747e-37)
(36.4535 -1.47183 1.9115e-18 1.24057 -1.24348e-19 7.06848e-37)
(35.5565 -1.25282 0 1.25226 0 0)
(34.6411 -1.04263 0 1.26531 0 0)
(33.7162 -0.856079 0 1.27939 0 0)
(32.7322 -0.680253 1.35498e-18 1.29193 -1.0475e-19 6.91046e-37)
(31.7889 -0.530178 0 1.29912 0 0)
(30.7781 -0.387857 0 1.30897 0 0)
(29.8216 -0.285007 0 1.31909 0 0)
(28.8934 -0.201538 0 1.33233 0 0)
(28.0634 -0.151283 -4.39726e-19 1.34082 7.57963e-20 6.66106e-37)
(27.3637 -0.125274 0 1.35021 0 0)
(26.8272 -0.134627 0 1.36367 0 0)
(26.5383 -0.177471 -2.22234e-19 1.37159 -6.55826e-20 6.42709e-37)
(26.496 -0.246585 4.49293e-19 1.38434 6.11886e-20 6.30075e-37)
(26.7505 -0.356053 0 1.40125 0 0)
(27.3552 -0.512584 9.12105e-19 1.41869 6.00854e-20 6.05245e-37)
(28.3761 -0.709544 0 1.43778 0 0)
(29.874 -0.961421 -1.35393e-18 1.45546 -6.452e-20 5.75562e-37)
(31.8696 -1.24778 0 1.47828 0 0)
(34.438 -1.58359 0 1.50536 0 0)
(37.4751 -1.96128 0 1.53805 0 0)
(41.0902 -2.38939 0 1.57232 0 0)
(45.1363 -2.84357 0 1.61053 0 0)
(49.6199 -3.34536 4.8989e-18 1.65277 2.04756e-19 1.97207e-36)
(54.4818 -3.89114 5.15413e-18 1.69901 2.30556e-19 1.93745e-36)
(59.7419 -4.473 0 1.74751 0 0)
(65.2051 -5.07526 0 1.80319 0 0)
(70.8238 -5.70209 0 1.85844 0 0)
(76.45 -6.31585 -5.69486e-18 1.91923 -3.5236e-19 1.91754e-36)
(81.861 -6.93079 0 1.99032 0 0)
(87.0181 -7.5525 0 2.06265 0 0)
(91.8624 -8.16716 0 2.13902 0 0)
(96.3117 -8.75791 -5.33576e-18 2.21748 -5.33585e-19 2.07246e-36)
(100.33 -9.3237 5.10222e-18 2.30242 5.83364e-19 2.13484e-36)
(103.741 -9.84693 0 2.39187 0 0)
(106.648 -10.3568 0 2.48451 0 0)
(109.022 -10.8111 4.08138e-18 2.57897 7.35575e-19 2.36661e-36)
(110.86 -11.2297 3.65159e-18 2.67231 7.84523e-19 2.45186e-36)
(112.014 -11.5736 0 2.77256 0 0)
(112.582 -11.8878 0 2.87247 0 0)
(112.458 -12.1299 -2.05323e-18 2.97652 -9.4601e-19 2.71973e-36)
(111.774 -12.3542 1.42351e-18 3.07151 9.89618e-19 2.79846e-36)
(110.577 -12.5081 0 3.16831 0 0)
(108.667 -12.6078 0 3.26893 0 0)
(106.163 -12.6411 -5.2142e-19 3.35984 1.1174e-18 3.0692e-36)
(103.028 -12.6204 0 3.45032 0 0)
(99.545 -12.5618 0 3.53386 0 0)
(95.5548 -12.4123 -2.54852e-18 3.60631 1.20632e-18 3.30208e-36)
(91.2551 -12.1908 0 3.67828 0 0)
(86.6315 -11.8583 -3.83177e-18 3.73978 1.25732e-18 3.4453e-36)
(81.7459 -11.4408 0 3.79561 0 0)
(76.6407 -10.9053 0 3.83484 0 0)
(71.6986 -10.2716 0 3.8589 0 0)
(66.8188 -9.47352 5.87034e-18 3.87764 -1.27809e-18 3.68233e-36)
(62.162 -8.55585 0 3.8811 0 0)
(57.9459 -7.486 0 3.86908 0 0)
(54.4899 -6.29643 0 3.84122 0 0)
(51.6353 -4.91772 0 3.79922 0 0)
(49.5385 -3.45882 0 3.74879 0 0)
(48.816 -1.90526 0 3.67673 0 0)
(49.6531 -0.281967 6.02123e-18 3.587 -1.10462e-18 3.72856e-36)
(51.7186 1.43107 5.60617e-18 3.48876 -1.05025e-18 3.71109e-36)
(55.4212 3.12365 0 3.37724 0 0)
(60.6762 4.75043 0 3.25931 0 0)
(67.4856 6.33045 0 3.12978 0 0)
(75.4239 7.80404 -3.05187e-18 3.00006 7.95453e-19 3.38549e-36)
(84.5533 9.10604 0 2.8719 0 0)
(94.1067 10.295 2.94833e-18 2.73711 -1.35091e-18 1.23696e-35)
(103.983 11.252 -1.3087e-18 2.60673 1.21831e-18 1.16679e-35)
(113.614 12.0412 3.2066e-19 2.47488 1.10558e-18 1.10229e-35)
(123.262 12.6912 -2.0249e-18 2.34997 -1.01452e-18 1.03386e-35)
(131.381 13.2317 3.68103e-18 2.23073 9.2305e-19 9.76662e-36)
(139.26 13.7089 -5.2872e-18 2.12331 -9.04037e-19 8.99964e-36)
(143.022 14.4015 0 2.0673 0 0)
(0.0183062 0.174108 0 6.09293 0 0)
(0.202704 0.387542 0 6.0311 0 0)
(0.629433 0.609183 1.31889e-19 5.8586 1.75595e-19 6.76032e-37)
(1.32693 0.853347 0 5.73797 0 0)
(2.26899 1.13225 -1.9294e-19 5.67817 -3.528e-19 9.18737e-37)
(3.44503 1.43669 -1.84864e-19 5.6509 -4.40439e-19 9.71742e-37)
(4.83385 1.76108 -8.13059e-20 5.63535 -2.50856e-19 2.48766e-37)
(6.42117 2.10137 -6.96987e-20 5.61721 -2.69752e-19 2.6101e-37)
(8.19915 2.45023 0 5.58884 0 0)
(10.1659 2.8032 -4.30584e-20 5.54627 -2.68655e-19 2.59176e-37)
(12.3226 3.15145 0 5.49444 0 0)
(14.6677 3.49266 0 5.43489 0 0)
(17.1927 3.82165 9.64337e-20 5.36672 4.23356e-19 9.50281e-37)
(19.8986 4.138 7.02919e-20 5.29497 1.86808e-19 2.33928e-37)
(22.7747 4.43195 -1.86798e-19 5.21995 -3.26272e-19 8.92874e-37)
(25.8152 4.70349 -2.52769e-19 5.14194 -2.81416e-19 8.65179e-37)
(29.0086 4.9541 -1.7156e-19 5.05775 -1.18629e-19 2.12567e-37)
(32.3487 5.18533 0 4.96717 0 0)
(35.8237 5.39549 0 4.87164 0 0)
(39.4249 5.58915 0 4.76908 0 0)
(43.1291 5.76559 -3.86388e-19 4.66426 -3.69983e-20 1.80224e-37)
(46.9274 5.92207 0 4.55981 0 0)
(50.797 6.0502 1.6074e-18 4.45334 -1.54971e-20 1.55024e-36)
(54.7254 6.15365 0 4.35045 0 0)
(58.6957 6.23404 0 4.24533 0 0)
(62.6903 6.29158 7.73987e-19 4.14112 -5.7474e-20 1.56322e-37)
(66.6816 6.32301 0 4.03513 0 0)
(70.6506 6.33757 -9.3198e-19 3.93448 8.15817e-20 1.45822e-37)
(74.5639 6.32892 -1.99148e-18 3.83446 1.81117e-19 5.56421e-37)
(78.4113 6.29185 1.07594e-18 3.73167 -9.85286e-20 1.36456e-37)
(82.189 6.22336 0 3.62384 0 0)
(85.8967 6.12696 0 3.51849 0 0)
(89.5211 6.00512 0 3.41517 0 0)
(93.0659 5.85893 -2.5741e-18 3.30708 2.22457e-19 4.70815e-37)
(96.5229 5.68293 -2.65237e-18 3.19972 2.20032e-19 4.54689e-37)
(99.9057 5.47745 -1.37238e-18 3.09884 1.07475e-19 1.10649e-37)
(103.223 5.2408 0 3.00703 0 0)
(106.466 4.96809 2.83566e-18 2.91905 -2.02888e-19 4.12445e-37)
(109.646 4.65725 0 2.83398 0 0)
(112.755 4.31761 -2.87257e-18 2.7526 1.8838e-19 3.81243e-37)
(115.802 3.95027 0 2.67241 0 0)
(118.782 3.56306 0 2.60035 0 0)
(121.701 3.1598 2.82602e-18 2.52957 -1.54113e-19 3.31425e-37)
(124.546 2.7377 0 2.46437 0 0)
(127.297 2.29006 8.15608e-18 2.40647 -3.9364e-19 2.68239e-36)
(129.953 1.81259 -2.68764e-18 2.36118 1.19274e-19 2.83481e-37)
(132.517 1.30955 0 2.33396 0 0)
(135.005 0.780798 -2.54815e-18 2.31799 9.10294e-20 2.51558e-37)
(137.402 0.219067 -2.46762e-18 2.31152 7.6783e-20 2.35997e-37)
(139.705 -0.368938 0 2.31371 0 0)
(141.893 -0.968471 0 2.32701 0 0)
(143.947 -1.56546 0 2.34195 0 0)
(145.852 -2.15074 0 2.35535 0 0)
(147.57 -2.72831 0 2.37892 0 0)
(149.09 -3.30665 1.8832e-18 2.41178 1.44507e-20 1.71853e-37)
(150.388 -3.89324 3.45093e-18 2.45508 7.10169e-20 6.54946e-37)
(151.445 -4.48332 -1.64436e-18 2.50617 -5.58643e-20 1.59874e-37)
(152.271 -5.0916 0 2.56227 0 0)
(152.841 -5.70169 2.68726e-18 2.62553 1.90223e-19 6.00578e-37)
(153.125 -6.29184 -1.17003e-18 2.69382 -1.13226e-19 1.46646e-37)
(153.151 -6.87797 0 2.7706 0 0)
(152.872 -7.45906 -9.78221e-19 2.86057 -1.48501e-19 1.49298e-37)
(152.296 -8.01834 0 2.95401 0 0)
(151.422 -8.56854 0 3.05528 0 0)
(150.244 -9.10125 -1.04848e-18 3.16265 -3.96315e-19 6.24798e-37)
(148.752 -9.60517 4.23064e-19 3.27485 2.14904e-19 1.63552e-37)
(146.98 -10.0998 -4.89734e-19 3.39451 -4.61896e-19 6.67612e-37)
(144.921 -10.5726 2.12876e-19 3.51929 4.88968e-19 6.91378e-37)
(142.599 -11.0157 1.03286e-20 3.64368 2.5439e-19 1.82495e-37)
(140.005 -11.4345 0 3.77523 0 0)