/*--------------------------------*- C++ -*----------------------------------*\
| =========                 |                                                 |
| \\      /  F ield         | OpenFOAM: The Open Source CFD Toolbox           |
|  \\    /   O peration     | Version:  dev                                   |
|   \\  /    A nd           | Web:      http://www.openfoam.org               |
|    \\/     M anipulation  |                                                 |
\*---------------------------------------------------------------------------*/
FoamFile
{
    version     2.0;
    format      ascii;
    class       volScalarField;
    object      k;
    location    "9.163";
}
// * * * * * * * * * * * * * * * * * * * * * * * * * * * * * * * * * * * * * //

dimensions      [0 2 -2 0 0 0 0];

internalField   nonuniform List<scalar> 
12225
(
9.26711
12.6822
9.46859
11.7399
9.08194
14.708
11.8998
19.8654
16.0609
25.9414
21.5483
32.6473
29.6668
36.8957
46.1757
42.8733
74.5344
66.3485
1.90682
6.15278
5.11974
6.03297
4.57832
5.70919
4.55036
5.79566
4.98883
6.11672
5.63699
6.22855
6.74584
6.6637
9.09368
8.13917
8.73893
11.8342
0.197558
1.97325
2.19131
3.33792
3.04562
3.46849
3.2378
3.33159
3.31407
3.07432
3.07429
2.70522
2.75548
2.33346
2.61614
2.1276
2.15134
1.54985
0.0224223
0.430097
0.666998
1.02854
1.37486
1.41907
1.69628
1.60795
1.86285
1.65716
1.76692
1.50517
1.51752
1.24489
1.27982
1.07874
1.14683
0.822361
0.00681078
0.119279
0.221076
0.356767
0.600737
0.656768
0.815399
0.800898
0.895751
0.823828
0.875515
0.76705
0.791186
0.666442
0.69262
0.586582
0.745835
0.691384
0.0114756
0.0458889
0.107051
0.149503
0.259304
0.276033
0.35009
0.33568
0.402372
0.36974
0.413637
0.370259
0.398095
0.346809
0.372827
0.322694
0.392859
0.662032
0.0118387
0.0169455
0.0446377
0.051895
0.0994481
0.0995457
0.140224
0.132282
0.172299
0.159541
0.187184
0.170354
0.190025
0.169518
0.189371
0.170057
0.193273
0.291749
0.0116127
0.0135817
0.0233593
0.0249813
0.0442701
0.0440711
0.0623815
0.0594158
0.0785929
0.07453
0.0882938
0.0823618
0.09297
0.0862786
0.0969225
0.0941795
0.101542
0.142819
0.015766
0.0158494
0.0194986
0.0205296
0.0275319
0.0286283
0.0366587
0.0364322
0.0438072
0.0432969
0.0488174
0.0477517
0.0525618
0.052409
0.0552886
0.0605249
0.0624435
0.08324
0.0231292
0.024478
0.0223328
0.0228256
0.0257746
0.027081
0.0295481
0.0300359
0.0321741
0.0324437
0.0340136
0.0342672
0.0354676
0.0375692
0.0381989
0.0422965
0.0430914
0.0517571
0.0411334
0.0437433
0.0346242
0.0338958
0.0305765
0.0308286
0.0306214
0.0308681
0.0307339
0.0309695
0.0306398
0.0309082
0.0308594
0.031933
0.0318588
0.0337814
0.0343609
0.0369664
0.0861686
0.0839395
0.0641226
0.0608181
0.0488505
0.0468168
0.0399431
0.0377181
0.0339052
0.0329764
0.031011
0.0305967
0.0294449
0.0298803
0.0295842
0.0304265
0.0309792
0.0320226
0.164057
0.15407
0.11445
0.103171
0.0790906
0.0731482
0.0605426
0.0567355
0.0476549
0.0415523
0.0359496
0.0331338
0.0310384
0.0307098
0.0300663
0.0303833
0.0308246
0.0315323
0.285044
0.258028
0.19318
0.163974
0.129766
0.113292
0.0935475
0.0803688
0.066811
0.0576448
0.0494768
0.0436493
0.0394664
0.0372303
0.0353464
0.0346133
0.0339521
0.0340492
0.490903
0.439038
0.333384
0.272367
0.222863
0.187055
0.155234
0.129801
0.108969
0.0928476
0.0797789
0.069378
0.0609817
0.0547443
0.0496386
0.0464054
0.0435846
0.0419112
0.824762
0.724613
0.542131
0.417378
0.326701
0.260519
0.209961
0.171026
0.140514
0.11659
0.0976972
0.0828657
0.0711491
0.0624112
0.0553701
0.050862
0.0469681
0.0449402
1.07171
0.919903
0.655569
0.487913
0.374349
0.294179
0.23474
0.189297
0.15372
0.12587
0.104058
0.0872369
0.0740707
0.0642804
0.0565201
0.0514119
0.0470991
0.0448542
1.14502
0.960952
0.676116
0.500907
0.383707
0.300737
0.239178
0.192004
0.155286
0.1267
0.10444
0.0873025
0.0739643
0.0640609
0.0562686
0.0510674
0.0467509
0.0444105
1.01879
0.876847
0.630199
0.472911
0.366225
0.289375
0.231269
0.18602
0.150462
0.122779
0.101323
0.0848823
0.0720667
0.06252
0.0549812
0.04988
0.0455694
0.0431189
0.682415
0.597446
0.445298
0.349269
0.283992
0.234502
0.193476
0.158827
0.130069
0.107242
0.0892306
0.0754217
0.0644314
0.056193
0.0494802
0.0448189
0.0406811
0.0383424
0.412274
0.37138
0.281672
0.220346
0.179525
0.149448
0.125475
0.104832
0.0863888
0.0711344
0.0592799
0.0506225
0.0439861
0.0392091
0.0352829
0.0326069
0.0300807
0.0288702
0.24257
0.220001
0.167842
0.135077
0.112874
0.0955921
0.0800556
0.0658737
0.055023
0.0472173
0.0416051
0.0376014
0.0346115
0.0323957
0.0303805
0.0289237
0.027387
0.0266104
0.126217
0.118571
0.0951886
0.077756
0.0644014
0.0558902
0.0498258
0.0455708
0.0424336
0.0398229
0.0375347
0.0357294
0.0340972
0.0326657
0.0313585
0.0303799
0.0293222
0.0287173
0.0645295
0.0606883
0.0480922
0.0422948
0.0402185
0.0406007
0.0411596
0.0421522
0.0426747
0.0429011
0.0428227
0.0426361
0.0424383
0.0422792
0.0423319
0.0423351
0.0422736
0.0420763
0.0261276
0.0267703
0.026188
0.0301699
0.0376451
0.0449233
0.0515297
0.058296
0.0658506
0.0731029
0.078483
0.0822161
0.0847303
0.0864653
0.0884723
0.0899693
0.0908952
0.0911142
0.00827301
0.015621
0.0270601
0.051454
0.0797437
0.108421
0.134291
0.159527
0.183521
0.203107
0.215692
0.223022
0.226791
0.229036
0.231438
0.233292
0.234389
0.234295
0.00370808
0.0324054
0.11646
0.248023
0.360066
0.44425
0.505335
0.558487
0.60151
0.62695
0.636583
0.63818
0.633831
0.6263
0.620841
0.618753
0.613766
0.608179
0.0227779
0.287085
0.854808
1.2734
1.56522
1.72451
1.79676
1.83282
1.84127
1.81853
1.75841
1.70208
1.64779
1.60107
1.5623
1.5344
1.49224
1.46326
0.449542
2.81961
4.14058
4.35746
4.29953
4.08528
3.86998
3.67304
3.50226
3.36831
3.25034
3.13696
3.02915
2.91498
2.81997
2.71971
2.63411
2.54927
7.23262
11.063
10.4574
8.47562
7.28484
6.79292
6.66937
6.7154
6.79845
6.91677
7.0193
7.09285
7.10489
7.07982
7.01276
6.8835
6.70051
6.44038
0.0598041
0.0648862
0.0873819
0.137674
0.212979
0.290888
0.360525
0.401795
0.426977
0.457645
0.492371
0.539341
0.584727
0.641291
0.704386
0.774347
0.842308
0.919038
1.00131
1.07821
1.14811
1.19668
1.22024
1.22767
1.2282
1.24423
1.26412
1.31121
1.38312
1.4299
1.48975
1.58464
1.67907
1.79928
2.04441
2.21964
2.29822
2.35341
2.48574
2.76797
3.17837
3.52393
3.77917
4.31213
5.64527
7.53873
8.93695
9.85053
10.5704
11.2093
11.7277
12.1131
12.3706
12.527
12.5981
12.6213
12.5374
12.3918
12.1752
11.9125
11.5948
11.2302
10.8505
10.4428
10.0081
9.5585
9.10742
8.65927
8.20975
7.75267
7.29552
6.82841
6.37393
5.95029
5.52079
5.09016
4.72058
4.38646
4.01776
3.7398
3.46062
3.23634
3.03361
2.86444
2.73089
2.61503
2.50626
2.4096
2.32209
2.23609
2.15625
2.085
2.03039
1.99841
1.98413
1.97924
1.96478
1.9188
1.86134
1.79877
1.73927
1.68573
1.62743
1.56201
1.50227
1.44869
1.38717
1.31596
1.23777
1.16727
1.12119
1.10377
1.10441
1.11839
1.15689
1.26791
1.43169
1.74598
2.077
2.15803
2.03076
1.96209
2.09757
2.34457
2.5886
2.99657
3.48567
4.08536
4.98006
5.55947
5.71224
6.24236
7.56123
8.06883
7.83207
8.19829
8.2124
7.90735
8.03421
7.98687
8.37195
8.97578
9.86691
10.7329
11.5942
12.3153
12.7534
13.2083
13.4488
13.794
14.1093
14.4752
14.841
15.3084
15.5037
15.4652
14.9397
14.5437
14.721
15.5051
15.6451
14.4082
13.2298
12.6782
11.5335
8.56786
7.36087
7.26446
7.27316
8.91091
12.4287
13.281
11.0895
7.39824
7.10612
8.82769
13.302
19.1822
22.8012
23.554
0.324169
0.148897
0.210535
0.37658
0.526381
0.546573
0.501354
0.456383
0.415319
0.370557
0.326284
0.283543
0.251267
0.227329
0.214986
0.213949
0.219006
0.233024
0.258285
0.301122
0.351615
0.418665
0.485393
0.53659
0.560876
0.554218
0.528007
0.507884
0.468615
0.399625
0.387541
0.416879
0.443959
0.514082
0.676005
0.763962
0.857954
1.05721
1.23778
1.88476
3.12349
3.63731
3.83775
3.94656
4.02786
4.03998
3.71655
3.23008
2.88959
2.53596
2.26452
2.02682
1.83584
1.6776
1.55379
1.45532
1.37947
1.31125
1.25005
1.19793
1.15017
1.099
1.05403
1.02463
0.994378
0.976648
0.95465
0.939835
0.920813
0.892831
0.861416
0.829818
0.808605
0.784369
0.747161
0.722641
0.709034
0.69064
0.671964
0.666438
0.658009
0.659281
0.659466
0.669643
0.695352
0.727997
0.746392
0.764091
0.78013
0.784167
0.782867
0.775883
0.772125
0.776018
0.795492
0.840964
0.91427
0.961419
0.986695
0.993086
0.992019
0.997949
1.00363
0.996428
0.992023
0.997224
1.00444
1.00015
0.975693
0.934489
0.920076
0.922917
0.926797
0.920037
0.890314
0.88464
0.89576
0.972957
1.15074
1.30273
1.30003
1.34514
1.66811
2.17698
2.4884
2.57041
2.5464
2.70208
2.88004
2.76822
2.69014
3.22775
3.57791
3.30252
3.10357
3.1921
2.97987
2.94123
3.13654
3.25617
3.80207
4.19398
4.98681
5.57866
6.39846
7.21761
7.85813
8.24105
8.223
8.32744
8.30956
8.46986
8.88242
9.02925
9.07866
9.00541
8.15963
7.77963
8.34188
10.202
10.7671
9.82757
9.04529
9.04833
8.37778
6.39974
5.91985
6.73889
7.84748
8.6579
9.69595
8.84124
6.79547
5.65041
5.85428
6.005
6.76867
8.38947
10.7047
12.4142
1.00239
0.394943
0.573687
0.831474
0.7271
0.59381
0.462754
0.333157
0.249069
0.196737
0.166374
0.150903
0.13876
0.127789
0.121647
0.118534
0.11701
0.116728
0.118162
0.123458
0.134817
0.159748
0.186508
0.224199
0.259703
0.267944
0.262892
0.253164
0.258653
0.274199
0.321202
0.417022
0.51267
0.843835
1.08675
1.25341
1.87548
2.4643
2.6658
2.70869
2.72162
2.64458
2.32001
1.95577
1.59552
1.17965
0.899752
0.731565
0.55951
0.447696
0.37647
0.328859
0.29236
0.264702
0.249293
0.2372
0.229952
0.224725
0.21972
0.216692
0.213429
0.21004
0.208625
0.208159
0.20802
0.208989
0.210693
0.211695
0.211317
0.209416
0.208627
0.208529
0.210388
0.212582
0.213329
0.216579
0.221695
0.224368
0.225137
0.228307
0.229121
0.230909
0.232552
0.237021
0.247374
0.261885
0.272885
0.283625
0.295323
0.303301
0.307406
0.308095
0.305759
0.304501
0.309721
0.327482
0.371786
0.425575
0.466901
0.495645
0.51471
0.542025
0.567859
0.577644
0.594743
0.637125
0.677417
0.708989
0.715174
0.702803
0.674846
0.666253
0.670799
0.688509
0.686867
0.657648
0.613123
0.61369
0.678955
0.75425
0.83157
1.16244
1.74277
2.01483
2.01692
1.72511
1.60602
1.62062
1.58092
1.44171
1.42355
1.65895
1.76407
1.54885
1.44744
1.47092
1.30957
1.29414
1.37228
1.48772
1.8014
1.93197
2.19977
2.40336
2.74805
3.20107
3.62179
4.12199
4.16356
4.36034
4.31557
4.37445
4.82699
5.19151
5.36963
5.47677
5.27024
4.89157
4.89359
5.91409
6.66696
6.44934
5.96624
6.07677
5.83836
5.20557
5.27997
6.48963
7.55575
7.74283
6.90017
5.46006
4.32342
4.22364
4.86581
4.21697
4.37823
4.7363
5.59235
6.59713
2.34125
1.03739
1.28843
0.993675
0.692748
0.378696
0.206034
0.154081
0.134512
0.127579
0.124109
0.120919
0.115575
0.110512
0.107462
0.105704
0.104236
0.10096
0.0982488
0.0975807
0.0982145
0.102705
0.112871
0.1334
0.151119
0.170772
0.185764
0.198223
0.23693
0.382929
0.713403
0.963109
1.17152
1.64486
1.84882
1.94496
2.00539
2.04151
1.97219
1.74522
1.38924
1.00902
0.785899
0.604066
0.442617
0.340714
0.250935
0.216256
0.189496
0.171754
0.162987
0.157506
0.154075
0.152806
0.152324
0.152391
0.153531
0.155017
0.156981
0.159371
0.161788
0.163745
0.165092
0.165909
0.166682
0.167662
0.168178
0.168755
0.168522
0.16642
0.162493
0.160149
0.15847
0.15619
0.155508
0.155986
0.158097
0.161962
0.165724
0.171104
0.172518
0.173104
0.173235
0.173352
0.174954
0.178338
0.181905
0.184902
0.187688
0.190305
0.193054
0.193903
0.193673
0.192077
0.193483
0.196828
0.212542
0.248961
0.2783
0.300605
0.317718
0.341417
0.363092
0.371613
0.381596
0.404786
0.440951
0.480929
0.503237
0.501903
0.485724
0.457916
0.441566
0.444652
0.450582
0.453462
0.457705
0.476695
0.529828
0.594395
0.732075
1.20015
1.74704
1.77632
1.51466
1.26709
1.17605
1.14879
1.11726
1.07529
1.06911
1.16388
1.20074
1.1288
1.05868
1.08481
0.992229
0.956655
0.945696
0.972473
1.19411
1.34682
1.42841
1.4929
1.61887
1.82312
2.05617
2.42915
2.49404
2.65812
2.66645
2.66597
2.96231
3.33031
3.55553
4.00076
4.24938
3.9627
3.63442
4.28181
4.88476
5.00494
4.7012
4.85883
4.71876
4.61397
5.24381
5.91002
6.61934
6.24459
5.1279
3.96114
3.38755
3.58719
3.86053
3.31075
3.3705
3.55434
3.9675
4.41891
4.44526
2.17392
1.51554
0.862812
0.32291
0.170329
0.135114
0.129172
0.127808
0.130769
0.136157
0.142035
0.14148
0.137172
0.131742
0.126653
0.121865
0.114075
0.103496
0.0978565
0.0949032
0.0944301
0.0974386
0.107222
0.131376
0.154216
0.169826
0.24172
0.419805
0.79796
1.26582
1.45159
1.52672
1.57236
1.59034
1.57224
1.46028
1.19297
0.912776
0.709647
0.529002
0.393056
0.275125
0.225129
0.190683
0.169676
0.153034
0.146534
0.141707
0.137762
0.136733
0.136478
0.136764
0.13822
0.140538
0.143227
0.145953
0.148898
0.151755
0.154897
0.158605
0.162552
0.166025
0.168454
0.1708
0.172137
0.17274
0.173448
0.173806
0.172932
0.16912
0.1625
0.157864
0.154035
0.145565
0.14187
0.136146
0.134773
0.135854
0.143151
0.149129
0.154122
0.154921
0.154544
0.154008
0.154507
0.155096
0.155972
0.155832
0.154926
0.155545
0.156357
0.157264
0.156956
0.156606
0.158894
0.163651
0.183452
0.203135
0.21603
0.229647
0.246444
0.259762
0.265724
0.27224
0.28207
0.307336
0.348302
0.372828
0.377864
0.374292
0.355452
0.332123
0.325626
0.331556
0.341092
0.355034
0.384072
0.458816
0.542107
0.731064
1.3285
1.67602
1.46037
1.20253
1.02299
0.950113
0.939379
0.953992
0.950807
0.949139
1.02307
1.00171
0.939599
0.932297
0.961907
0.924526
0.862213
0.815709
0.811928
0.915472
1.10352
1.17858
1.19624
1.23999
1.31908
1.44648
1.7116
1.80487
1.86909
1.98058
1.98046
2.11462
2.3755
2.5755
3.14934
3.73359
3.50206
2.97204
3.57471
3.9818
4.12447
3.92017
4.16352
4.10691
4.21596
5.3312
5.81202
5.82346
5.06019
4.04978
3.40708
3.11042
3.19573
3.39863
3.10681
2.97986
3.13453
3.27968
3.514
7.36678
2.97351
1.42619
0.448477
0.18369
0.136738
0.13185
0.138159
0.154207
0.170515
0.183198
0.193029
0.195193
0.191734
0.18435
0.176147
0.167794
0.152994
0.130134
0.119306
0.109515
0.101271
0.100912
0.109156
0.130055
0.168219
0.241162
0.437659
0.855198
1.224
1.29507
1.30469
1.2971
1.2455
1.10616
0.924425
0.74254
0.571373
0.410406
0.296484
0.238487
0.196504
0.164298
0.152459
0.142893
0.134801
0.129551
0.127971
0.127548
0.127613
0.12886
0.13073
0.133195
0.135763
0.138684
0.141782
0.145257
0.148844
0.152057
0.155416
0.158963
0.162364
0.165705
0.168167
0.170546
0.172366
0.173358
0.175382
0.176463
0.17687
0.176407
0.173671
0.168657
0.163696
0.151428
0.141883
0.131859
0.123241
0.118699
0.11831
0.118988
0.123075
0.127872
0.13102
0.131337
0.131624
0.131597
0.133222
0.136052
0.136072
0.136118
0.137765
0.140252
0.143235
0.14306
0.142088
0.144826
0.15408
0.169408
0.17542
0.186005
0.201035
0.20829
0.211126
0.212981
0.213572
0.224895
0.261368
0.293049
0.30619
0.308172
0.29874
0.288065
0.282729
0.283903
0.287297
0.301238
0.339662
0.424908
0.520193
0.755853
1.37998
1.52707
1.18043
0.965106
0.874608
0.884117
0.861977
0.841792
0.815244
0.810617
0.89093
0.889616
0.827256
0.813918
0.825281
0.864054
0.821578
0.77315
0.739543
0.768614
0.88201
1.02624
1.06382
1.10808
1.14429
1.21199
1.39152
1.50399
1.53505
1.65102
1.68705
1.7187
1.89912
1.99802
2.47913
3.34598
3.15597
2.71314
3.25179
3.5357
3.57668
3.48236
3.81111
3.77953
3.97887
5.34005
5.77506
4.78835
4.16755
3.45561
3.11843
2.90432
3.06691
3.13189
2.84575
2.67136
2.76864
2.90411
3.01981
10.8516
3.2337
1.04074
0.292939
0.143199
0.134143
0.145533
0.165222
0.187353
0.202102
0.209709
0.214275
0.218601
0.217214
0.212293
0.202271
0.190011
0.17303
0.160545
0.153369
0.134276
0.114128
0.110585
0.1182
0.144541
0.216574
0.41276
0.830194
1.11229
1.1503
1.13058
1.05036
0.917867
0.800891
0.662976
0.496965
0.374104
0.287984
0.216994
0.177747
0.160498
0.148027
0.136484
0.128809
0.123179
0.121393
0.120934
0.121341
0.123663
0.126832
0.129936
0.133269
0.138067
0.142583
0.147095
0.151532
0.155886
0.160126
0.163718
0.166398
0.168184
0.169362
0.170573
0.170876
0.170789
0.170101
0.169271
0.169014
0.168993
0.170186
0.172127
0.171907
0.170754
0.167672
0.160421
0.150167
0.137623
0.122832
0.114464
0.110368
0.109232
0.109396
0.111698
0.115962
0.117667
0.119404
0.119098
0.118486
0.119919
0.120256
0.119004
0.117133
0.118697
0.123496
0.128726
0.129927
0.13107
0.134457
0.141696
0.147623
0.153007
0.165921
0.173125
0.174383
0.175986
0.178515
0.18338
0.206644
0.243346
0.255103
0.257061
0.258557
0.262269
0.265379
0.262856
0.265383
0.27728
0.324264
0.415821
0.513872
0.783453
1.38331
1.41402
1.04001
0.811932
0.783239
0.822896
0.760157
0.722719
0.676472
0.66612
0.728549
0.769637
0.75059
0.6958
0.701458
0.724721
0.734153
0.743411
0.708588
0.687477
0.747715
0.888145
0.945991
0.993693
1.07366
1.12212
1.24211
1.41455
1.41884
1.47135
1.53705
1.51335
1.65373
1.67741
1.99031
2.86909
2.86892
2.7717
2.94696
3.22957
3.18213
3.24726
3.7133
3.69172
3.89807
5.119
5.51351
4.00837
3.6173
3.33705
3.10539
2.90179
3.06342
2.97198
2.63062
2.39343
2.38865
2.55708
2.56132
14.379
3.29876
0.820089
0.19271
0.132571
0.142077
0.176146
0.204762
0.221755
0.231914
0.237465
0.242207
0.243144
0.240786
0.235467
0.225273
0.209305
0.187625
0.17071
0.157233
0.133042
0.114629
0.111636
0.120737
0.176256
0.359029
0.791517
1.00675
1.0196
0.939866
0.818091
0.716885
0.625319
0.497016
0.388862
0.280883
0.216204
0.180871
0.158624
0.14288
0.136227
0.12829
0.118098
0.114784
0.114093
0.114225
0.116305
0.120989
0.125822
0.130361
0.136804
0.145456
0.155136
0.164279
0.173112
0.180874
0.186891
0.191917
0.195545
0.197027
0.197099
0.196137
0.192668
0.18782
0.183742
0.177465
0.17417
0.170044
0.165821
0.161868
0.159624
0.158992
0.159145
0.158531
0.158305
0.154012
0.145171
0.129804
0.114955
0.108025
0.105003
0.10437
0.105252
0.108364
0.111344
0.113839
0.114165
0.112655
0.112246
0.11304
0.111961
0.107396
0.104756
0.106236
0.109748
0.111376
0.114588
0.118187
0.120658
0.122795
0.131208
0.14125
0.1496
0.152417
0.155582
0.160682
0.165379
0.171541
0.189802
0.21772
0.225196
0.228916
0.229481
0.227606
0.22827
0.234077
0.247441
0.304723
0.400685
0.502253
0.787013
1.32987
1.32527
0.988078
0.749691
0.708699
0.700639
0.66943
0.664334
0.610149
0.596664
0.619444
0.676338
0.70671
0.65326
0.621525
0.622724
0.637531
0.662934
0.651718
0.634545
0.67459
0.774419
0.85312
0.879711
0.982735
1.0172
1.13468
1.35256
1.38618
1.36585
1.4091
1.39449
1.52032
1.51627
1.79595
2.39907
2.62392
2.81543
2.74452
2.90501
2.88537
3.03781
3.63371
3.70757
3.89888
4.66428
4.8344
3.64819
3.19525
3.6119
3.50813
3.058
3.11471
3.0042
2.64038
2.27053
2.07531
2.30632
2.35164
17.5304
3.14364
0.525884
0.151727
0.133628
0.174412
0.210777
0.231186
0.246742
0.255237
0.259549
0.263118
0.26227
0.258448
0.253293
0.245729
0.232323
0.210045
0.180674
0.153588
0.126575
0.114839
0.117874
0.153876
0.294528
0.686199
0.916792
0.928773
0.816509
0.649384
0.569148
0.508954
0.404664
0.316453
0.239706
0.186882
0.159903
0.146842
0.138159
0.12926
0.120539
0.11055
0.10726
0.106895
0.107463
0.110437
0.116712
0.124145
0.132269
0.142595
0.155113
0.166408
0.175464
0.183443
0.190709
0.196136
0.200768
0.204694
0.20856
0.211215
0.211955
0.212053
0.209873
0.204424
0.199893
0.194771
0.191011
0.183105
0.177433
0.169151
0.163981
0.15955
0.156242
0.153073
0.152178
0.150877
0.146345
0.138585
0.125116
0.111357
0.104702
0.102042
0.101994
0.103395
0.107873
0.11152
0.112586
0.111205
0.109647
0.109976
0.109233
0.105339
0.0996865
0.0974272
0.0982244
0.0990064
0.101059
0.103241
0.103832
0.104893
0.110187
0.12349
0.131427
0.133852
0.13679
0.141549
0.147219
0.149972
0.154913
0.172317
0.192981
0.198886
0.203203
0.200299
0.198416
0.200633
0.211448
0.269459
0.385394
0.489453
0.785405
1.22564
1.23929
0.975373
0.742168
0.662069
0.632015
0.623808
0.595147
0.547488
0.539795
0.527666
0.555668
0.611527
0.615681
0.602948
0.584306
0.586646
0.597069
0.608391
0.605584
0.62508
0.705839
0.773307
0.811659
0.884648
0.927676
1.06895
1.19093
1.38453
1.31888
1.31633
1.36023
1.44117
1.41216
1.66455
2.03602
2.33567
2.76314
2.66174
2.59952
2.60669
2.8896
3.5781
3.76737
3.91621
4.49332
4.1234
3.33987
3.02055
4.17008
3.92556
3.37858
3.29093
3.08818
2.61223
2.11057
1.9244
2.10965
2.1648
19.7988
2.83215
0.420195
0.145579
0.147852
0.19212
0.224174
0.246741
0.259117
0.26767
0.27506
0.277432
0.277393
0.274657
0.270383
0.262158
0.248797
0.226623
0.194469
0.160722
0.145976
0.14973
0.18821
0.318889
0.59891
0.782273
0.811688
0.725418
0.552757
0.474197
0.427908
0.35367
0.282461
0.219428
0.172448
0.150934
0.138508
0.132561
0.126965
0.118284
0.106906
0.102467
0.101893
0.10229
0.104745
0.110329
0.118465
0.128874
0.141047
0.153555
0.163686
0.172378
0.180825
0.187919
0.192512
0.19436
0.195185
0.195776
0.197375
0.200804
0.202985
0.203945
0.20398
0.202349
0.197969
0.195188
0.193487
0.188905
0.186536
0.181851
0.178198
0.173968
0.168795
0.163923
0.157116
0.154043
0.14845
0.144118
0.135894
0.122917
0.11072
0.102323
0.100162
0.100061
0.102843
0.106582
0.109755
0.10966
0.107926
0.10831
0.108027
0.104776
0.099328
0.0945497
0.0930936
0.0925634
0.0936752
0.0946578
0.0941586
0.0940176
0.0966424
0.105046
0.116418
0.12008
0.122944
0.124436
0.126278
0.128216
0.130222
0.138897
0.160262
0.166233
0.169793
0.169998
0.169307
0.17055
0.179106
0.224871
0.345678
0.461748
0.772206
1.11746
1.1476
0.957226
0.744426
0.653255
0.584192
0.564597
0.533337
0.487732
0.477091
0.47108
0.48296
0.530156
0.539598
0.5676
0.568691
0.568106
0.561737
0.588973
0.589676
0.599291
0.666974
0.717058
0.774615
0.816237
0.855397
0.985637
0.999247
1.29048
1.315
1.25371
1.31305
1.37152
1.35905
1.50078
1.77085
2.1509
2.61166
2.68609
2.5149
2.5084
2.89339
3.56396
3.81666
3.91261
4.44926
3.78956
3.02067
3.18631
4.32009
4.05937
3.44992
3.3425
3.07622
2.56932
1.96144
1.80674
1.91391
1.93924
20.9933
2.74746
0.392241
0.146027
0.152715
0.197078
0.231874
0.250807
0.262244
0.271695
0.282356
0.291079
0.296735
0.298807
0.297191
0.292642
0.285589
0.270573
0.245354
0.236354
0.249079
0.301152
0.410033
0.547378
0.646892
0.668354
0.60029
0.453954
0.385241
0.351779
0.302914
0.249021
0.203145
0.163786
0.1437
0.134705
0.129684
0.126621
0.12163
0.112158
0.102899
0.100996
0.100993
0.102045
0.105239
0.111828
0.122111
0.134798
0.147277
0.156369
0.163987
0.171473
0.174477
0.1753
0.172458
0.166404
0.157343
0.152115
0.150848
0.151225
0.155445
0.15995
0.163214
0.168618
0.171326
0.17469
0.177363
0.17798
0.176542
0.176541
0.175899
0.178137
0.179638
0.183123
0.178351
0.172259
0.158784
0.151191
0.141812
0.128814
0.117211
0.104357
0.094558
0.09056
0.0908043
0.0927522
0.0988244
0.104601
0.104415
0.104949
0.105486
0.103811
0.0997748
0.0947257
0.0910038
0.089078
0.0896568
0.0900054
0.0895242
0.0884805
0.0902972
0.0942251
0.101474
0.106975
0.109908
0.110397
0.111204
0.113064
0.11459
0.121229
0.137385
0.140366
0.141703
0.144669
0.148365
0.150581
0.158858
0.191508
0.296031
0.416377
0.720034
1.03507
1.07132
0.936491
0.750444
0.651244
0.562811
0.53362
0.495245
0.447317
0.427858
0.429597
0.435146
0.47233
0.484333
0.50586
0.515852
0.536392
0.547974
0.576212
0.581204
0.594468
0.644707
0.707979
0.758435
0.782033
0.806661
0.878477
0.899922
1.05221
1.25144
1.13704
1.188
1.26048
1.30546
1.37948
1.58258
2.06319
2.51866
2.8873
2.60315
2.74233
3.16637
3.52622
3.82836
3.8301
4.20634
3.56662
2.81336
3.40702
4.3177
3.95286
3.50991
3.41513
2.95403
2.38776
1.84753
1.66479
1.74094
1.76087
21.7084
2.74051
0.389047
0.152983
0.156369
0.197284
0.232318
0.250836
0.262111
0.272301
0.283971
0.294499
0.304153
0.313143
0.320641
0.32644
0.33075
0.333828
0.33976
0.352922
0.378739
0.421189
0.480076
0.52497
0.532545
0.475428
0.368933
0.316625
0.291177
0.261323
0.226361
0.191722
0.162923
0.142769
0.134753
0.131235
0.129647
0.127824
0.123477
0.114473
0.104536
0.102201
0.102107
0.103214
0.106846
0.114359
0.125579
0.137005
0.144849
0.150553
0.154676
0.155628
0.153591
0.147873
0.140372
0.133197
0.128781
0.126356
0.124383
0.124104
0.126752
0.134958
0.14036
0.141746
0.139403
0.138677
0.141664
0.152732
0.155426
0.155646
0.153322
0.156924
0.168964
0.182438
0.185945
0.186477
0.177287
0.164552
0.151434
0.137476
0.120013
0.105188
0.0921701
0.0800175
0.07568
0.0746643
0.0761894
0.0826969
0.089945
0.0936883
0.0963798
0.0993865
0.0990187
0.0945877
0.0901712
0.086872
0.0870638
0.0875222
0.0871251
0.0866398
0.0856438
0.0872006
0.0901916
0.0985395
0.100548
0.101751
0.0998796
0.100129
0.102786
0.109318
0.121222
0.127239
0.127423
0.12949
0.132561
0.137673
0.146078
0.170679
0.246373
0.369341
0.664993
0.962039
1.00197
0.918705
0.747146
0.628105
0.548183
0.506963
0.47248
0.426905
0.40247
0.417686
0.422036
0.431479
0.442855
0.4648
0.466031
0.503977
0.551199
0.57586
0.589169
0.599636
0.636309
0.70949
0.758376
0.777316
0.792069
0.789487
0.865428
0.947563
1.06454
1.02916
1.08484
1.13855
1.25421
1.32626
1.45452
1.94588
2.48647
3.04794
3.00596
3.32641
3.37918
3.44336
3.79924
3.67706
3.79113
3.21015
2.74969
3.59559
4.2764
3.58792
3.4904
3.39891
2.84738
2.21191
1.72699
1.57138
1.59117
1.605
22.1065
2.74477
0.393985
0.165266
0.159609
0.189765
0.224578
0.244311
0.254639
0.264423
0.275551
0.289196
0.302546
0.314847
0.326238
0.336083
0.344977
0.353181
0.363604
0.379754
0.402822
0.427915
0.434968
0.419593
0.37156
0.301673
0.27275
0.247755
0.230702
0.211088
0.187071
0.165689
0.147401
0.137223
0.133047
0.131077
0.130294
0.129595
0.126706
0.11959
0.108538
0.1045
0.104157
0.105152
0.108998
0.116108
0.125571
0.133038
0.135674
0.136021
0.135673
0.132845
0.126571
0.121362
0.118541
0.117593
0.117665
0.117942
0.117442
0.114459
0.114344
0.12194
0.13547
0.139002
0.136985
0.129443
0.128305
0.136767
0.149339
0.150829
0.14318
0.131857
0.132665
0.151543
0.172614
0.179728
0.178889
0.169717
0.156872
0.14659
0.127707
0.106954
0.0928797
0.0780708
0.0691559
0.0660918
0.0655457
0.0676948
0.0734971
0.0792597
0.0814515
0.0848225
0.0912581
0.092184
0.0885235
0.0834906
0.0815635
0.0820319
0.0825131
0.0831749
0.0822123
0.0823599
0.0850361
0.0911576
0.0929573
0.0941112
0.0933236
0.0924786
0.0961351
0.103686
0.113514
0.120535
0.121383
0.122333
0.124841
0.130224
0.13915
0.158301
0.210208
0.317555
0.600028
0.890996
0.942399
0.896396
0.741212
0.603098
0.524559
0.489511
0.466773
0.424131
0.397778
0.411368
0.406777
0.414662
0.428794
0.453644
0.439846
0.50483
0.565152
0.579978
0.592779
0.62332
0.680382
0.717473
0.771885
0.789239
0.812342
0.763836
0.859923
0.904917
0.971284
0.970772
1.01746
1.0387
1.2038
1.30896
1.36654
1.80894
2.49938
3.09307
3.35521
3.7112
3.44315
3.164
3.62866
3.47971
3.54065
2.95049
2.9687
3.93399
4.01241
3.23255
3.3357
3.14305
2.53773
2.05847
1.61867
1.51502
1.50863
1.50603
22.1008
2.81081
0.434845
0.191941
0.17697
0.185469
0.203185
0.22935
0.24014
0.243618
0.246487
0.257684
0.275076
0.29491
0.31358
0.327492
0.33955
0.350012
0.359586
0.36921
0.371122
0.362952
0.337768
0.293693
0.260429
0.239665
0.218498
0.206674
0.191829
0.180375
0.164058
0.15008
0.136924
0.130539
0.128421
0.128251
0.129526
0.130326
0.129321
0.12522
0.11749
0.110839
0.109991
0.110721
0.113872
0.118123
0.124322
0.129729
0.131473
0.131633
0.131069
0.127261
0.11949
0.113809
0.110856
0.109394
0.109228
0.113613
0.115343
0.113012
0.110493
0.113352
0.128741
0.142792
0.144374
0.130834
0.12367
0.124948
0.145501
0.152312
0.145908
0.126364
0.116339
0.120448
0.136761
0.147446
0.153282
0.158081
0.152542
0.14607
0.133799
0.115626
0.0957468
0.0793734
0.068894
0.064326
0.0624974
0.062321
0.0654455
0.0722302
0.0746154
0.0768179
0.0810884
0.0841405
0.0827773
0.0802731
0.0780803
0.0778266
0.0792482
0.0796367
0.0797383
0.0792242
0.0825465
0.0868047
0.0886814
0.0899227
0.0897935
0.0893955
0.0926029
0.102312
0.110536
0.116188
0.118544
0.119333
0.121592
0.126101
0.137435
0.151374
0.186956
0.270344
0.500084
0.844448
0.908009
0.881182
0.740929
0.590252
0.503119
0.479678
0.462839
0.421706
0.398416
0.410024
0.40383
0.401132
0.413716
0.438051
0.420277
0.511795
0.57878
0.566975
0.571372
0.634726
0.776858
0.788678
0.854391
0.829078
0.935267
0.807041
0.867122
0.886124
0.930814
0.954048
0.982954
0.973612
1.17114
1.29708
1.32839
1.67056
2.4762
3.05215
3.46492
3.73297
3.24633
2.86231
3.3114
3.19835
3.39162
2.89668
3.49001
4.15009
3.37841
3.03338
3.00791
2.7106
2.25086
1.90942
1.55049
1.4713
1.44491
1.43059
22.3998
2.96538
0.542687
0.289631
0.249647
0.202863
0.196736
0.206399
0.22105
0.228187
0.230377
0.226638
0.225551
0.236654
0.252282
0.268906
0.282598
0.29225
0.295042
0.291027
0.278617
0.259229
0.240143
0.225603
0.208227
0.195432
0.184284
0.17389
0.164632
0.158401
0.149913
0.14135
0.132301
0.127584
0.126275
0.126421
0.128196
0.131384
0.131966
0.1312
0.12817
0.123802
0.120072
0.119364
0.119494
0.121144
0.124438
0.129275
0.130766
0.131003
0.130913
0.127082
0.11804
0.110797
0.108
0.104733
0.102727
0.106839
0.113766
0.11496
0.111168
0.111057
0.118649
0.141081
0.154512
0.14665
0.124268
0.115481
0.131014
0.151082
0.152682
0.1315
0.113078
0.106586
0.114023
0.127686
0.126882
0.123092
0.124561
0.130525
0.130887
0.119361
0.103839
0.084934
0.0704099
0.0643277
0.0626296
0.0622946
0.0636557
0.0693515
0.0720894
0.0740087
0.0766889
0.0795867
0.0795273
0.078281
0.0761625
0.0753838
0.0768406
0.0788076
0.0781214
0.0777007
0.08166
0.0850009
0.0871569
0.0886378
0.0878009
0.0878073
0.0913715
0.102398
0.109271
0.115222
0.116691
0.118381
0.119893
0.124834
0.137731
0.149354
0.175337
0.236196
0.399854
0.768796
0.888525
0.875041
0.75621
0.589184
0.498283
0.473037
0.459072
0.424144
0.410903
0.424252
0.41633
0.397066
0.398557
0.413615
0.410858
0.526498
0.588255
0.544347
0.5397
0.614941
0.819785
0.821555
0.884223
0.855385
1.00919
0.922708
0.885013
0.909479
0.922451
0.958078
0.975582
0.941229
1.15531
1.25652
1.30299
1.54524
2.34018
2.85346
3.39166
3.3775
2.79096
2.60612
2.91407
2.9022
3.28772
2.99281
3.87093
4.00912
2.7689
2.90283
2.64514
2.30179
2.02768
1.75191
1.4984
1.44929
1.40034
1.38638
22.617
3.00235
0.731051
0.533681
0.455991
0.291843
0.205355
0.195199
0.207581
0.220764
0.225059
0.215728
0.206881
0.202445
0.200621
0.201556
0.202846
0.203429
0.203166
0.198393
0.191647
0.183507
0.176256
0.168117
0.160473
0.155695
0.152383
0.145017
0.140153
0.136541
0.132494
0.128929
0.125301
0.123
0.12211
0.122092
0.123491
0.127799
0.131174
0.131536
0.130901
0.128906
0.126037
0.123618
0.122931
0.12398
0.12757
0.132194
0.133931
0.133737
0.131801
0.126903
0.116884
0.108169
0.105107
0.101118
0.0950291
0.0934163
0.100043
0.111022
0.117117
0.119045
0.122812
0.131258
0.150895
0.155352
0.13557
0.106065
0.0969794
0.116867
0.139009
0.130355
0.10916
0.0998251
0.100658
0.111802
0.116923
0.110636
0.104755
0.106538
0.113136
0.11551
0.104583
0.0887832
0.0744392
0.0654654
0.0627515
0.062242
0.0630584
0.0680536
0.0716003
0.0736557
0.0756948
0.0779039
0.0792985
0.0781632
0.0760405
0.075068
0.0763652