/*--------------------------------*- C++ -*----------------------------------*\
| =========                 |                                                 |
| \\      /  F ield         | OpenFOAM: The Open Source CFD Toolbox           |
|  \\    /   O peration     | Version:  dev                                   |
|   \\  /    A nd           | Web:      http://www.openfoam.org               |
|    \\/     M anipulation  |                                                 |
\*---------------------------------------------------------------------------*/
FoamFile
{
    version     2.0;
    format      ascii;
    class       volScalarField;
    object      k_0;
    location    "9.163";
}
// * * * * * * * * * * * * * * * * * * * * * * * * * * * * * * * * * * * * * //

dimensions      [0 2 -2 0 0 0 0];

internalField   nonuniform List<scalar> 
12225
(
9.18307
12.1663
8.85347
10.8669
8.31017
13.5488
11.0023
18.5181
15.1047
24.6565
20.6218
31.7861
28.9213
37.2845
45.7742
44.0007
80.6613
75.0325
1.88109
6.06288
5.01397
5.91843
4.46133
5.5485
4.39457
5.55396
4.78901
5.79334
5.34489
5.83454
6.23301
6.15021
8.2294
7.3627
7.78501
10.5149
0.197808
1.96648
2.20325
3.37432
3.05441
3.49478
3.24648
3.34552
3.32622
3.0651
3.0641
2.69067
2.72665
2.33434
2.56342
2.12689
2.0807
1.43942
0.0226252
0.428345
0.668266
1.033
1.37417
1.42019
1.69894
1.60914
1.86857
1.656
1.76448
1.50224
1.50575
1.24635
1.27388
1.09501
1.13688
0.7192
0.00731427
0.120144
0.223134
0.360804
0.601684
0.655436
0.813521
0.796198
0.895565
0.820401
0.873172
0.765342
0.785953
0.668933
0.691781
0.605611
0.765287
0.655585
0.0115924
0.0463305
0.108173
0.149571
0.259878
0.273635
0.348239
0.332857
0.402919
0.367941
0.413413
0.370173
0.397322
0.349805
0.374295
0.334836
0.38844
0.758763
0.0121038
0.0170357
0.0449345
0.0518046
0.0992327
0.0983149
0.13984
0.131096
0.172631
0.158771
0.187221
0.170565
0.190127
0.171257
0.190912
0.174752
0.200573
0.315251
0.0121218
0.0137008
0.0234467
0.0249878
0.0442709
0.0436737
0.0622168
0.05892
0.0786569
0.0742039
0.0882039
0.0824136
0.0930319
0.0869665
0.0978898
0.0965756
0.108985
0.152307
0.0166038
0.0160219
0.0198186
0.0207535
0.0278125
0.0288521
0.0367655
0.0364086
0.0439067
0.0432755
0.048848
0.0478704
0.0527643
0.0529152
0.0563956
0.0616922
0.0644334
0.0896834
0.0245989
0.0251087
0.022698
0.0232532
0.0262312
0.0274622
0.0297127
0.0302777
0.0322717
0.0325649
0.0340375
0.0343937
0.0356841
0.0377673
0.0384307
0.0430095
0.0437871
0.0544396
0.0445284
0.0451155
0.0354027
0.0347203
0.0310333
0.0312751
0.0308711
0.0310503
0.0308015
0.0310546
0.0305707
0.0309148
0.0308091
0.0320126
0.0318658
0.0341419
0.0345987
0.0381111
0.0927591
0.0856377
0.0654722
0.0619102
0.0494259
0.0474368
0.0400296
0.0377425
0.0338988
0.032849
0.0309072
0.0304514
0.0293773
0.0299226
0.0295877
0.0306593
0.0311451
0.0324784
0.175614
0.15603
0.116154
0.103994
0.0796671
0.0735236
0.060753
0.0567323
0.0470953
0.0409689
0.0355309
0.0328113
0.03095
0.0306464
0.0300817
0.0305368
0.0309684
0.0318183
0.303637
0.260858
0.195641
0.165283
0.130688
0.113608
0.0933815
0.0797938
0.0661637
0.0569994
0.0489041
0.0432044
0.0392233
0.0370597
0.03525
0.0345733
0.0339427
0.0341509
0.524562
0.443391
0.336127
0.273805
0.223334
0.186524
0.15412
0.128389
0.107555
0.0914714
0.0784725
0.0681698
0.0599353
0.0538504
0.0489381
0.045862
0.0431555
0.0416405
0.875757
0.724545
0.53942
0.41374
0.322847
0.256683
0.206298
0.167599
0.137377
0.113774
0.0952126
0.0807132
0.0693501
0.0609176
0.0542164
0.0499699
0.0463068
0.0444928
1.13172
0.90866
0.644367
0.478879
0.366876
0.287804
0.229167
0.184379
0.149414
0.12217
0.100941
0.0846312
0.0719414
0.0625531
0.0551965
0.0504007
0.0463756
0.0443745
1.20121
0.942912
0.661416
0.489742
0.374846
0.29343
0.232961
0.186649
0.150694
0.122813
0.101199
0.0846273
0.0717983
0.0623188
0.0549334
0.0500483
0.0460172
0.0438984
1.05996
0.854639
0.613207
0.46031
0.356464
0.281487
0.224659
0.180382
0.145674
0.118778
0.0980207
0.0821792
0.0698864
0.0607657
0.0536205
0.0488144
0.0447672
0.0425152
0.704381
0.575686
0.428902
0.337301
0.274723
0.226864
0.186921
0.1532
0.12534
0.103344
0.0860491
0.0728184
0.0623113
0.0544618
0.048085
0.0436723
0.0397713
0.0376082
0.425774
0.358345
0.271092
0.212228
0.173086
0.144047
0.120765
0.100593
0.0826496
0.0680012
0.0567894
0.0486608
0.042455
0.0379888
0.0343239
0.031828
0.029493
0.028404
0.249231
0.211242
0.160922
0.129959
0.108753
0.0919985
0.0768116
0.0631345
0.0529278
0.0456716
0.0404671
0.0367472
0.033956
0.0318418
0.0299124
0.0285072
0.0270481
0.0263215
0.12918
0.11369
0.0911018
0.0745028
0.0618755
0.054006
0.0484221
0.044573
0.0416887
0.0392107
0.037033
0.035306
0.0337244
0.0323467
0.0311051
0.0301628
0.0291573
0.0285862
0.0655875
0.057823
0.0459138
0.0409423
0.039453
0.0401993
0.0409046
0.0420062
0.0426122
0.0429491
0.0429576
0.0428183
0.0426824
0.0425753
0.0426813
0.0426818
0.0425991
0.0423892
0.0265258
0.0257327
0.0255546
0.0304572
0.0380984
0.0457198
0.0526915
0.0598819
0.0677964
0.075137
0.0804133
0.0840183
0.0864077
0.08812
0.0900996
0.0914711
0.0922302
0.0923142
0.00860699
0.0157562
0.0281576
0.0544994
0.0840072
0.113614
0.14024
0.166153
0.190327
0.209436
0.22124
0.227887
0.231152
0.233164
0.235367
0.236944
0.237709
0.237268
0.0042776
0.0358674
0.127597
0.262912
0.376453
0.460708
0.521945
0.575026
0.616589
0.63961
0.647254
0.647663
0.641128
0.633272
0.627646
0.62506
0.619038
0.612806
0.025936
0.313745
0.894441
1.3172
1.60958
1.76298
1.82931
1.85979
1.86384
1.83006
1.76667
1.70847
1.653
1.60589
1.56706
1.53764
1.49447
1.46413
0.452396
2.88858
4.17938
4.37092
4.29891
4.07116
3.85668
3.65886
3.48943
3.35743
3.24017
3.12665
3.01834
2.90428
2.81
2.71051
2.62627
2.53711
7.24536
10.8816
10.1187
8.03315
6.82897
6.31761
6.16919
6.19258
6.25822
6.36525
6.4645
6.53852
6.5586
6.54347
6.48848
6.37806
6.21318
5.96436
0.0594472
0.0644079
0.0863333
0.135475
0.209608
0.286661
0.35706
0.399537
0.425616
0.457091
0.492785
0.540794
0.587528
0.645439
0.709523
0.780117
0.849278
0.927509
1.01112
1.08901
1.15973
1.20891
1.23263
1.23997
1.23951
1.25425
1.27319
1.31831
1.38964
1.43791
1.49917
1.59393
1.68732
1.80869
2.05869
2.24011
2.32011
2.37163
2.48924
2.74844
3.14283
3.48732
3.73097
4.20372
5.417
7.21701
8.58851
9.49082
10.1843
10.7912
11.2851
11.6516
11.8854
12.0254
12.0876
12.0956
12.0053
11.8564
11.6398
11.3807
11.0728
10.7194
10.3519
9.96136
9.5468
9.11835
8.6888
8.26447
7.84175
7.41219
6.98324
6.54513
6.11729
5.7199
5.31953
4.91494
4.56699
4.25737
3.91329
3.65373
3.39394
3.18585
2.99771
2.84122
2.71921
2.61364
2.51347
2.42337
2.34102
2.25947
2.18228
2.11332
2.06085
2.03156
2.0201
2.01837
2.0062
1.9607
1.90242
1.83836
1.77759
1.72297
1.66282
1.59567
1.53472
1.47987
1.41651
1.343
1.26252
1.19032
1.14363
1.12671
1.12865
1.14394
1.18441
1.2999
1.46994
1.79244
2.12552
2.20029
2.06812
2.00158
2.14153
2.39077
2.63859
3.05601
3.55316
4.15556
5.05389
5.64805
5.80153
6.29464
7.58914
8.13576
7.89224
8.25132
8.30264
8.02411
8.18334
8.20466
8.64042
9.2916
10.231
11.1387
12.0406
12.7708
13.194
13.6
13.8021
14.1022
14.3948
14.749
15.1135
15.572
15.8065
15.7863
15.2573
14.9107
15.2416
16.1704
16.332
14.9943
13.7128
13.1768
12.0083
8.89577
7.62167
7.5643
7.48777
8.91039
12.3913
13.2768
11.1777
7.62167
7.43656
9.3174
13.8225
19.5049
22.8199
23.4327
0.324396
0.147652
0.207699
0.37003
0.520104
0.543655
0.499303
0.455241
0.41453
0.370396
0.326811
0.284127
0.251624
0.227784
0.215643
0.214637
0.219327
0.232754
0.257182
0.299136
0.348701
0.414861
0.480714
0.53189
0.556692
0.551247
0.526402
0.506771
0.470046
0.401042
0.38825
0.414407
0.440571
0.510134
0.670267
0.756695
0.847212
1.04379
1.20647
1.79226
3.00847
3.58061
3.80375
3.92368
3.9806
3.98
3.68432
3.1908
2.83432
2.47171
2.18853
1.94285
1.74621
1.58396
1.45796
1.35742
1.28252
1.2166
1.15793
1.10817
1.06361
1.01719
0.973535
0.946056
0.917972
0.902271
0.883457
0.871189
0.855641
0.83175
0.804222
0.775736
0.757159
0.737243
0.704894
0.682159
0.670837
0.656361
0.639812
0.635819
0.629175
0.631608
0.633213
0.643552
0.669282
0.70332
0.723287
0.741906
0.759277
0.764675
0.764366
0.758447
0.754767
0.758823
0.777696
0.822784
0.897299
0.94676
0.974123
0.982181
0.982462
0.989529
0.996766
0.991312
0.988445
0.995285
1.00474
1.00253
0.979751
0.939191
0.925506
0.929198
0.933667
0.926255
0.895203
0.887578
0.898562
0.975752
1.15046
1.29802
1.29692
1.35442
1.694
2.19542
2.50004
2.56458
2.52789
2.66781
2.83739
2.72448
2.63831
3.14292
3.49838
3.25042
3.0449
3.13325
2.94549
2.90762
3.1076
3.24776
3.77835
4.16136
4.93737
5.52082
6.33342
7.14747
7.78894
8.1958
8.18606
8.29847
8.28329
8.43368
8.86943
9.04049
9.10687
9.05736
8.25752
7.85881
8.38307
10.2546
10.8984
10.0073
9.18287
9.20833
8.5736
6.57093
6.07707
6.90601
8.01284
8.76787
9.78846
8.9289
6.98018
5.81021
6.0431
6.18736
6.92561
8.42847
10.6394
12.2779
1.00762
0.390605
0.563355
0.824516
0.724293
0.59405
0.465649
0.336175
0.251788
0.198616
0.167183
0.151322
0.138863
0.127779
0.121679
0.118578
0.11697
0.116576
0.117869
0.122978
0.134002
0.158403
0.184451
0.221601
0.25705
0.265818
0.26168
0.252469
0.257589
0.272743
0.318084
0.412267
0.506391
0.830389
1.07331
1.22829
1.81508
2.41955
2.64979
2.72062
2.71669
2.62847
2.3224
1.95996
1.63112
1.20723
0.901498
0.729497
0.55856
0.441514
0.367482
0.319355
0.283838
0.255987
0.240578
0.228921
0.22199
0.217413
0.213014
0.210441
0.207802
0.204862
0.203284
0.202975
0.202981
0.203845
0.20556
0.206917
0.206817
0.205119
0.204176
0.204159
0.205894
0.208325
0.20942
0.212673
0.217805
0.221212
0.222293
0.225413
0.22634
0.227843
0.229201
0.232947
0.242415
0.256346
0.267078
0.277303
0.288591
0.296483
0.300616
0.301263
0.298753
0.297264
0.302086
0.318894
0.361908
0.415531
0.456945
0.48613
0.505601
0.532973
0.559111
0.56945
0.586709
0.629588
0.671281
0.704545
0.711881
0.700238
0.672501
0.663774
0.669255
0.68759
0.685986
0.654534
0.609934
0.612185
0.678725
0.752516
0.835145
1.18444
1.76532
2.01861
1.99824
1.70247
1.57892
1.58781
1.55182
1.4183
1.39872
1.61972
1.72504
1.53747
1.43458
1.4578
1.30384
1.28675
1.36279
1.48432
1.79428
1.92132
2.16469
2.35604
2.67977
3.1126
3.5203
4.02114
4.06937
4.2729
4.24207
4.293
4.73346
5.12181
5.32324
5.45868
5.30707
4.94548
4.92773
5.89136
6.66096
6.50099
6.02725
6.14462
5.91342
5.30319
5.4062
6.60038
7.6707
7.79983
6.90276
5.50836
4.36834
4.31923
5.00325
4.33123
4.48292
4.8068
5.62093
6.54996
2.36405
1.02254
1.27767
0.987947
0.696606
0.384167
0.208494
0.154896
0.134456
0.127118
0.123573
0.120238
0.114886
0.109948
0.107057
0.105427
0.103979
0.100682
0.0980034
0.0973303
0.0978698
0.1022
0.111979
0.132009
0.149601
0.169294
0.184042
0.196466
0.2328
0.372497
0.695943
0.949848
1.14895
1.61365
1.81952
1.92608
1.99962
2.01446
1.95133
1.74236
1.40153
1.02755
0.786922
0.605862
0.442966
0.345802
0.249892
0.213334
0.188101
0.170528
0.16163
0.156608
0.153082
0.152021
0.151708
0.151929
0.15311
0.15468
0.15671
0.159189
0.161811
0.164052
0.165638
0.166589
0.167373
0.168407
0.168904
0.169651
0.169641
0.167883
0.163934
0.161353
0.159597
0.157226
0.156047
0.156301
0.158025
0.161841
0.165468
0.171345
0.173078
0.173805
0.173903
0.173748
0.174986
0.177967
0.18126
0.183945
0.18635
0.188681
0.191336
0.192113
0.191746
0.189685
0.190571
0.193926
0.208826
0.244356
0.273192
0.295191
0.312265
0.33537
0.356518
0.365112
0.374931
0.397313
0.433574
0.474077
0.496406
0.495622
0.480157
0.452285
0.436622
0.439928
0.446131
0.450159
0.454951
0.474517
0.530251
0.597661
0.742734
1.23036
1.76195
1.76303
1.49184
1.24698
1.15688
1.1301
1.10295
1.06505
1.0602
1.15632
1.1903
1.12767
1.06296
1.0908
1.00194
0.960513
0.949106
0.975475
1.19335
1.35374
1.42525
1.48366
1.59723
1.7854
2.00719
2.3706
2.4423
2.59425
2.61863
2.62435
2.89914
3.2625
3.5006
3.96825
4.25667
4.01637
3.67623
4.3078
4.88416
5.02845
4.75057
4.92317
4.77475
4.67725
5.36648
6.01866
6.67316
6.23343
5.11557
4.02226
3.44428
3.67515
3.95467
3.40211
3.45396
3.63788
4.01942
4.42104
4.50621
2.14504
1.50891
0.869166
0.327572
0.171452
0.134882
0.12865
0.126832
0.129571
0.134635
0.140176
0.139678
0.135539
0.130512
0.125729
0.121101
0.113458
0.103091
0.09759
0.0946967
0.0941747
0.0969993
0.106348
0.129841
0.15247
0.167177
0.236086
0.407603
0.775672
1.2376
1.42597
1.5108
1.5627
1.57259
1.5541
1.4533
1.21253
0.923441
0.711922
0.532204
0.402315
0.277316
0.223821
0.190136
0.169962
0.153326
0.146509
0.142137
0.138025
0.136737
0.136537
0.136824
0.13816
0.140448
0.143222
0.146039
0.149087
0.15202
0.155157
0.158874
0.162929
0.166678
0.169343
0.171858
0.173505
0.174163
0.174931
0.175534
0.175005
0.17178
0.165058
0.159807
0.156137
0.147333
0.143462
0.137307
0.135146
0.135701
0.142643
0.148766
0.154334
0.155529
0.155186
0.154504
0.154806
0.155155
0.156001
0.155782
0.154617
0.155131
0.15587
0.156901
0.156724
0.155847
0.15757
0.162157
0.181232
0.200632
0.213104
0.226645
0.243067
0.255721
0.261329
0.267466
0.276789
0.301666
0.342686
0.367368
0.372768
0.369582
0.350779
0.328928
0.323369
0.329346
0.339115
0.35327
0.383823
0.461597
0.54767
0.744233
1.35929
1.67377
1.43364
1.17705
1.00752
0.940979
0.930736
0.945646
0.943645
0.941765
1.02635
1.00929
0.933821
0.932952
0.97077
0.938421
0.874103
0.823815
0.816808
0.912943
1.10722
1.18414
1.1993
1.23767
1.30868
1.43111
1.68208
1.7886
1.83966
1.95197
1.96756
2.08962
2.33312
2.53131
3.10033
3.7238
3.52894
3.01594
3.61958
4.00453
4.13724
3.96263
4.23566
4.16808
4.26705
5.43509
5.94574
5.82118
5.04267
4.07394
3.47841
3.17834
3.27798
3.48612
3.18708
3.05092
3.21012
3.33247
3.53815
7.50034
2.93935
1.42705
0.451826
0.185089
0.13634
0.130941
0.136853
0.152411
0.168452
0.181191
0.191153
0.193226
0.189712
0.18263
0.174731
0.166553
0.151989
0.129564
0.119081
0.109397
0.101023
0.100481
0.108217
0.128027
0.164831
0.235022
0.424142
0.826231
1.20364
1.28676
1.29407
1.28322
1.23664
1.11068
0.928893
0.745073
0.57776
0.418533
0.299123
0.238379
0.198885
0.164659
0.152555
0.143456
0.135586
0.129956
0.127891
0.127466
0.127595
0.128763
0.130593
0.133083
0.135701
0.138665
0.141791
0.145306
0.14903
0.152383
0.155805
0.159415
0.162866
0.166363
0.169008
0.17152
0.173555
0.174586
0.176696
0.177951
0.178568
0.178416
0.176105
0.171384
0.166747
0.154576
0.144201
0.133772
0.124715
0.119154
0.118285
0.118691
0.122503
0.127371
0.131088
0.131497
0.131832
0.131629
0.133009
0.136055
0.135893
0.135666
0.137145
0.139526
0.142831
0.143001
0.141641
0.143896
0.152637
0.167775
0.173504
0.1837
0.198716
0.205576
0.207855
0.209383
0.210238
0.221396
0.257647
0.289559
0.302341
0.30428
0.295626
0.285845
0.281512
0.282611
0.286226
0.300767
0.341896
0.42954
0.527137
0.774342
1.40032
1.52064
1.15872
0.942896
0.861695
0.876753
0.852968
0.83226
0.804281
0.798456
0.885849
0.894646
0.825972
0.806851
0.823045
0.871603
0.834292
0.785108
0.748615
0.76786
0.880439
1.02764
1.06638
1.10799
1.14436
1.21199
1.3756
1.50947
1.53751
1.63346
1.68579
1.7144
1.8784
1.97552
2.43336
3.31376
3.15308
2.76103
3.29377
3.57302
3.58571
3.52179
3.89766
3.85672
4.03927
5.42478
5.89795
4.76952
4.16618
3.53838
3.21728
2.98914
3.15088
3.21635
2.91151
2.71873
2.81674
2.94351
3.03908
11.1029
3.18304
1.04607
0.29589
0.143264
0.13342
0.144146
0.163268
0.185532
0.200491
0.208337
0.213163
0.217639
0.216256
0.211387
0.201509
0.189401
0.172581
0.160224
0.152913
0.133912
0.113585
0.109763
0.116604
0.1419
0.209706
0.399518
0.80249
1.0999
1.14272
1.12096
1.04928
0.918276
0.799376
0.667204
0.502864
0.376692
0.290359
0.220874
0.178092
0.160467
0.148592
0.137371
0.12953
0.123367
0.121188
0.120693
0.121056
0.123195
0.126404
0.129691
0.133057
0.138015
0.142835
0.147581
0.152211
0.156715
0.161136
0.164969
0.167818
0.169683
0.170756
0.171955
0.172286
0.172117
0.17141
0.170536
0.170161
0.169921
0.170791
0.173157
0.173342
0.172729
0.170048
0.163223
0.153372
0.140853
0.124898
0.115673
0.110866
0.109375
0.109403
0.111488
0.115902
0.117824
0.119874
0.119635
0.118751
0.120078
0.120417
0.118977
0.116595
0.117807
0.122246
0.12771
0.129151
0.130035
0.133031
0.13987
0.145735
0.150895
0.163528
0.170926
0.172196
0.173547
0.176246
0.181334
0.203883
0.239787
0.25228
0.254375
0.256599
0.26004
0.26257
0.260259
0.263372
0.275981
0.326
0.419842
0.520335
0.801513
1.39773
1.40821
1.02958
0.800602
0.771552
0.805678
0.747965
0.714762
0.667546
0.65606
0.715394
0.768495
0.756029
0.696638
0.697191
0.723054
0.736859
0.751707
0.718471
0.69052
0.747079
0.884589
0.944548
0.989505
1.06799
1.12039
1.22924
1.4249
1.4403
1.46601
1.53548
1.51993
1.65006
1.67522
1.97454
2.81883
2.85905
2.81307
2.98211
3.25443
3.18694
3.27575
3.80489
3.7824
3.97368
5.13329
5.53871
4.02827
3.61969
3.46358
3.23443
2.99533
3.15868
3.05527
2.69198
2.42553
2.40993
2.58745
2.58308
14.7875
3.23051
0.828928
0.19559
0.132207
0.140644
0.173675
0.202699
0.219999
0.230475
0.236244
0.241177
0.242398
0.240156
0.234959
0.224873
0.209112
0.187686
0.170781
0.157199
0.133089
0.114191
0.110852
0.118803
0.170467
0.346906
0.766029
1.00005
1.01374
0.93742
0.817257
0.714099
0.625608
0.49953
0.392329
0.285204
0.217798
0.181204
0.159853
0.143226
0.136335
0.12899
0.118795
0.114385
0.11359
0.113687
0.115517
0.120026
0.125205
0.129821
0.136137
0.144861
0.15462
0.163966
0.173046
0.181175
0.187511
0.192774
0.196614
0.198683
0.198927
0.198268
0.195112
0.190198
0.1862
0.179689
0.176074
0.171671
0.1673
0.163229
0.160666
0.159727
0.159855
0.159256
0.159634
0.156336
0.148015
0.133274
0.117135
0.109119
0.10551
0.10461
0.105291
0.108304
0.111469
0.114349
0.114886
0.113356
0.112729
0.113621
0.11255
0.107759
0.104642
0.105587
0.108538
0.110221
0.113441
0.116639
0.118717
0.120922
0.129411
0.139237
0.147523
0.150703
0.154079
0.158773
0.163211
0.168694
0.185693
0.214282
0.22253
0.226437
0.226774
0.224326
0.224535
0.230418
0.244202
0.304358
0.403727
0.508473
0.804114
1.32589
1.31795
0.984142
0.748118
0.700014
0.685657
0.659109
0.654182
0.601233
0.588495
0.607632
0.668039
0.709716
0.660493
0.62446
0.623467
0.638659
0.663927
0.657303
0.639348
0.674194
0.769441
0.850906
0.875667
0.968418
1.01167
1.11982
1.34517
1.41567
1.37503
1.40706
1.4057
1.52153
1.52048
1.80512
2.35164
2.60779
2.84009
2.78242
2.91424
2.89269
3.06536
3.7167
3.80422
3.97654
4.71523
4.78866
3.67972
3.22463
3.85516
3.72361
3.19708
3.22532
3.08606
2.68871
2.28764
2.09238
2.34136
2.38249
18.124
3.07536
0.534442
0.152433
0.132799
0.17205
0.209336
0.229551
0.245452
0.25429
0.258789
0.262708
0.262032
0.258314
0.253249
0.245786
0.232613
0.210779
0.181659
0.15436
0.127215
0.114738
0.117327
0.151818
0.286813
0.662612
0.910572
0.925042
0.81995
0.651361
0.56603
0.508427
0.406674
0.318998
0.241894
0.188782
0.160203
0.146816
0.138407
0.129827
0.121195
0.111014
0.106704
0.106238
0.106648
0.109259
0.115232
0.12288
0.130978
0.141188
0.153715
0.165244
0.174638
0.182719
0.190111
0.195692
0.200405
0.204395
0.208259
0.21137
0.212295
0.212521
0.210751
0.205449
0.200797
0.195632
0.192224
0.184716
0.179283
0.171121
0.16559
0.160828
0.157491
0.154045
0.153177
0.152182
0.148161
0.141325
0.128534
0.113999
0.105853
0.10261
0.102165
0.103383
0.107674
0.111592
0.113089
0.111912
0.110213
0.110576
0.109999
0.10611
0.10017
0.0974689
0.09789
0.0984844
0.100397
0.102184
0.102378
0.103387
0.108494
0.121648
0.12946
0.131961
0.135492
0.139843
0.144382
0.146753
0.151051
0.168166
0.189715
0.195578
0.199453
0.196581
0.194285
0.196128
0.207069
0.266381
0.385458
0.494287
0.801199
1.21994
1.23063
0.972447
0.742996
0.658848
0.621638
0.612083
0.582285
0.535529
0.528553
0.517867
0.545627
0.60509
0.613969
0.60672
0.589828
0.592197
0.598669
0.611744
0.611418
0.626037
0.701372
0.770118
0.810138
0.872935
0.920629
1.04508
1.15754
1.41118
1.34157
1.32221
1.36982
1.44196
1.41821
1.66867
2.00059
2.32267
2.77176
2.70951
2.63264
2.63882
2.9397
3.65379
3.85801
3.98806
4.57928
4.12571
3.35063
3.09974
4.34926
4.09422
3.49824
3.38623
3.1507
2.63459
2.11454
1.94184
2.13378
2.17713
20.5851
2.75164
0.422109
0.145274
0.146894
0.1909
0.222888
0.246045
0.258851
0.267435
0.274716
0.27721
0.277298
0.274681
0.270617
0.262746
0.249875
0.228383
0.1967
0.162718
0.147115
0.15116
0.188601
0.315785
0.585023
0.779251
0.805212
0.726298
0.554506
0.472086
0.426391
0.353543
0.283735
0.221401
0.173182
0.151305
0.138482
0.132383
0.12713
0.119004
0.107652
0.102068
0.101311
0.101552
0.103609
0.10877
0.116731
0.12691
0.139026
0.151711
0.162062
0.170788
0.17927
0.186553
0.191572
0.19363
0.194213
0.194513
0.195785
0.19922
0.201728
0.202892
0.203174
0.202123
0.197777
0.195002
0.193388
0.188924
0.186571
0.1822
0.178804
0.175362
0.17068
0.166308
0.158997
0.155648
0.149948
0.146053
0.138372
0.125548
0.113147
0.103439
0.100347
0.0998777
0.102212
0.105696
0.10953
0.109854
0.108185
0.108572
0.10851
0.105533
0.100023
0.094951
0.0932579
0.0924992
0.0934936
0.0942916
0.0936055
0.0932515
0.0956811
0.103532
0.114744
0.118297
0.121253
0.122662
0.123715
0.125227
0.127039
0.135745
0.157112
0.162339
0.165065
0.165429
0.16524
0.166497
0.175218
0.220797
0.341448
0.462718
0.781469
1.11187
1.13922
0.953385
0.745518
0.65149
0.577478
0.555141
0.523399
0.478451
0.466867
0.463456
0.474882
0.523032
0.532236
0.564098
0.573021
0.574836
0.564939
0.590064
0.594412
0.602924
0.664422
0.71723
0.776518
0.814376
0.850311
0.951491
0.971204
1.26565
1.33795
1.25189
1.30523
1.35985
1.36228
1.49853
1.74321
2.15377
2.62087
2.74405
2.56683
2.58475
2.9947
3.6251
3.8924
3.9658
4.50913
3.82703
3.0395
3.37031
4.46062
4.19796
3.55477
3.43149
3.10898
2.56345
1.95953
1.81529
1.92293
1.93685
21.9328
2.65095
0.391744
0.145415
0.151902
0.196356
0.231379
0.250638
0.262249
0.27163
0.282145
0.290749
0.296246
0.298426
0.296972
0.292774
0.286457
0.272877
0.248219
0.238753
0.251119
0.301414
0.408401
0.540625
0.648166
0.663092
0.601633
0.454846
0.38244
0.349336
0.301558
0.248625
0.203447
0.164434
0.143641
0.134562
0.129538
0.12651
0.121952
0.113144
0.103023
0.100481
0.100342
0.101154
0.103993
0.110166
0.119994
0.13251
0.145185
0.154565
0.162129
0.169804
0.172892
0.173364
0.170498
0.164615
0.155654
0.149701
0.148142
0.148291
0.152321
0.157055
0.160254
0.165558
0.168562
0.171956
0.17489
0.176247
0.174683
0.1749
0.174605
0.177544
0.179347
0.183613
0.180258
0.174898
0.161622
0.153297
0.144032
0.130982
0.118992
0.105663
0.0948834
0.0895345
0.0893302
0.0907084
0.0963055
0.103347
0.10385
0.104456
0.105225
0.104168
0.100397
0.0951724
0.0912497
0.0892327
0.0896262
0.0900013
0.0894761
0.0883723
0.0898727
0.0932066
0.0999307
0.105947
0.108395
0.108841
0.109334
0.11088
0.112426
0.11901
0.134575
0.137495
0.138595
0.141264
0.145143
0.147576
0.156262
0.188166
0.29057
0.41465
0.724014
1.03163
1.06413
0.933512
0.749115
0.646035
0.557756
0.526561
0.489188
0.442857
0.422317
0.425817
0.431078
0.466461
0.478499
0.501767
0.513913
0.538861
0.552499
0.576057
0.583851
0.599393
0.646104
0.709529
0.764891
0.790051
0.81076
0.851426
0.888368
1.03035
1.22975
1.12773
1.17267
1.23697
1.30314
1.37998
1.55944
2.06289
2.53157
2.96066
2.70346
2.99044
3.32818
3.57363
3.89468
3.85455
4.17552
3.56048
2.86799
3.57222
4.44946
3.9714
3.58474
3.48013
2.94496
2.35304
1.83998
1.67405
1.74139
1.75221
22.7404
2.63479
0.387333
0.151922
0.155599
0.196696
0.231976
0.250722
0.262098
0.27214
0.283643
0.294046
0.303563
0.312402
0.31983
0.325685
0.330257
0.333706
0.340043
0.353297
0.378845
0.420284
0.476545
0.525486
0.527872
0.476034
0.368773
0.314169
0.288861
0.259456
0.225269
0.191335
0.163057
0.142618
0.134452
0.130827
0.129196
0.127613
0.123798
0.115573
0.104934
0.101778
0.101531
0.102402
0.105658
0.112656
0.12355
0.135195
0.143121
0.148445
0.152787
0.153708
0.15195
0.146624
0.139172
0.131979
0.127542
0.125266
0.123124
0.12262
0.124853
0.13284
0.13894
0.140489
0.138151
0.136824
0.139205
0.150592
0.1541
0.154264
0.151087
0.153301
0.165389
0.18087
0.185405
0.186398
0.178374
0.166211
0.15327
0.139747
0.121779
0.106284
0.0929254
0.0798724
0.0746389
0.0731468
0.0741423
0.0796614
0.087447
0.0917023
0.0944307
0.0982224
0.0990721
0.0948768
0.0903119
0.0868574
0.086651
0.0871253
0.0870071
0.0865092
0.0853358
0.0864812
0.0893947
0.0979942
0.0996231
0.10032
0.0984195
0.0985989
0.101984
0.108682
0.119832
0.125603
0.12601
0.127618
0.130697
0.136031
0.144799
0.168622
0.24118
0.365038
0.667949
0.958723
0.99617
0.916094
0.742858
0.61697
0.541065
0.50208
0.470656
0.427472
0.402423
0.415666
0.418569
0.42858
0.440546
0.465509
0.466866
0.505663
0.555736
0.574198
0.588806
0.608455
0.643005
0.709543
0.76642
0.789613
0.802623
0.782147
0.863076
0.939663
1.04504
1.02533
1.07358
1.11446
1.25002
1.32862
1.43656
1.92908
2.49959
3.07969
3.19151
3.58266
3.52257
3.45899
3.82685
3.68414
3.78367
3.2135
2.86593
3.82236
4.34143
3.54358
3.53176
3.41471
2.78473
2.17292
1.71846
1.58823
1.59424
1.60284
23.2327
2.63698
0.391177
0.163625
0.158493
0.189611
0.225073
0.24474
0.25505
0.264725
0.275691
0.288944
0.301844
0.313709
0.324802
0.334532
0.343517
0.351811
0.36208
0.378004
0.400308
0.427533
0.433285
0.416466
0.372106
0.299111
0.270551
0.245728
0.228287
0.209324
0.18587
0.164937
0.146863
0.136486
0.132291
0.130346
0.12955
0.128909
0.126468
0.12008
0.109285
0.104145
0.103621
0.104434
0.108033
0.114785
0.124062
0.131596
0.134532
0.135067
0.134797
0.132136
0.125839
0.120482
0.117428
0.116512
0.116706
0.117242
0.11702
0.113917
0.113475
0.120211
0.134157
0.138268
0.136483
0.128702
0.127044
0.134619
0.148217
0.150257
0.143139
0.130591
0.129851
0.146715
0.168761
0.177158
0.177742
0.16959
0.157251
0.147583
0.129691
0.108248
0.0937064
0.0785854
0.0691422
0.0657329
0.0648881
0.0665316
0.072004
0.078001
0.0801144
0.0832769
0.0897021
0.0914945
0.0882435
0.0832638
0.0810963
0.0813724
0.0823342
0.082759
0.0818056
0.0819564
0.0849917
0.0907088
0.0924307
0.0931818
0.0924501
0.0918588
0.0961757
0.104221
0.113393
0.119703
0.120769
0.121687
0.124036
0.129758
0.138948
0.157461
0.206666
0.311214
0.595989
0.890546
0.940958
0.896113
0.738306
0.595069
0.51749
0.487201
0.46648
0.425919
0.399979
0.411203
0.406442
0.413032
0.426269
0.455457
0.441666
0.505699
0.568005
0.574946
0.587194
0.631614
0.709602
0.730687
0.792518
0.805043
0.841903
0.773839
0.865988
0.904177
0.965102
0.976619
1.01337
1.02332
1.20214
1.3076
1.35891
1.77907
2.49749
3.08724
3.5233
3.89187
3.54683
3.12775
3.5781
3.452
3.56297
3.00876
3.2773
4.14998
3.90554
3.19445
3.32793
3.04705
2.45518
2.0164
1.61864
1.53676
1.51904
1.51251
23.2581
2.69685
0.42772
0.187602
0.173761
0.18455
0.203693
0.229976
0.240725
0.244237
0.247112
0.258149
0.275122
0.294118
0.312305
0.32593
0.337779
0.348183
0.357456
0.367688
0.369315
0.3602
0.336618
0.292279
0.257862
0.237555
0.216157
0.204241
0.189387
0.178251
0.162517
0.148908
0.135983
0.129438
0.12722
0.12701
0.128312
0.129385
0.128682
0.12513
0.118094
0.111143
0.109981
0.110524
0.113375
0.117339
0.123217
0.12882
0.130846
0.131129
0.130698
0.127055
0.119145
0.113145
0.109982
0.108443
0.108252
0.112683
0.114832
0.112718
0.110035
0.112481
0.126858
0.14189
0.144362
0.13108
0.123079
0.123374
0.143641
0.151363
0.145901
0.126539
0.115502
0.11824
0.133116
0.143649
0.148738
0.154176
0.150778
0.145512
0.134407
0.117152
0.0970677
0.0802176
0.0691565
0.0644557
0.0625591
0.0622357
0.0650488
0.0718267
0.0743228
0.0764092
0.0803799
0.0834154
0.0823188
0.0801776
0.0779758
0.0775118
0.0792716
0.0795633
0.0793849
0.0792213
0.0829711
0.0867764
0.0885904
0.0897836
0.0893897
0.089242
0.0931046
0.103461
0.11116
0.116259
0.118155
0.119392
0.121234
0.126443
0.137915
0.151625
0.18562
0.264897
0.488515
0.843034
0.911212
0.884366
0.73918
0.586099
0.500859
0.479316
0.463271
0.424858
0.40236
0.412127
0.406825
0.400193
0.411101
0.438034
0.422201
0.512162
0.579307
0.559182
0.56218
0.637673
0.79757
0.808667
0.876206
0.847338
0.968833
0.854124
0.88386
0.893108
0.933553
0.966332
0.98503
0.968762
1.17182
1.28563
1.3293
1.63475
2.41928
2.9864
3.57653
3.79512
3.19013
2.817
3.21546
3.1426
3.42007
2.98978
3.78309
4.25133
3.22252
3.02683
2.95666
2.59057
2.17167
1.86179
1.55748
1.49813
1.46158
1.44672
23.5776
2.84843
0.528766
0.277435
0.240428
0.199386
0.196207
0.207333
0.221602
0.228534
0.230613
0.226849
0.225668
0.236771
0.252123
0.26833
0.281336
0.290768
0.293213
0.288803
0.276465
0.256969
0.237351
0.2229
0.205649
0.19268
0.181728
0.171217
0.161986
0.155844
0.147767
0.139597
0.130927
0.126245
0.124916
0.125031
0.126742
0.130239
0.130947
0.130448
0.127906
0.123915
0.120078
0.119206
0.119193
0.120682
0.123768
0.128661
0.130287
0.130612
0.130554
0.126806
0.117628
0.110063
0.107027
0.103781
0.101788
0.105662
0.112852
0.114377
0.110771
0.110652
0.117688
0.139095
0.15334
0.147092
0.12477
0.114471
0.127918
0.149127
0.151423
0.13164
0.112463
0.105423
0.111843
0.125328
0.124736
0.120224
0.120762
0.127226
0.129761
0.119696
0.104616
0.0859992
0.0711839
0.0645096
0.0627802
0.0624596
0.0636823
0.0692542
0.0722317
0.0741901
0.0766776
0.0795274
0.0797392
0.0784891
0.0763746
0.0755979
0.0771619
0.079132
0.0780773
0.0780511
0.0823532
0.0853903
0.0873742
0.0888126
0.087958
0.08809
0.0922368
0.103676
0.110197
0.115956
0.116946
0.118809
0.120307
0.125606
0.138544
0.150409
0.176626
0.233627
0.387513
0.755656
0.891261
0.880874
0.767176
0.587362
0.498793
0.475194
0.461573
0.431814
0.421689
0.434755
0.423687
0.396434
0.39794
0.413929
0.414066
0.522696
0.584802
0.540975
0.538956
0.599555
0.824141
0.831372
0.891508
0.867057
1.01344
0.959546
0.902806
0.925857
0.928203
0.970957
0.97906
0.943946
1.15713
1.23617
1.30448
1.51187
2.22556
2.79083
3.42878
3.33565
2.72344
2.55868
2.81505
2.85716
3.31574
3.14554
4.0361
3.88241
2.65243
2.89062
2.56023
2.1914
1.93897
1.70421
1.51109
1.48517
1.43393
1.4263
23.8732
2.89127
0.70743
0.505455
0.43147
0.280327
0.203314
0.195004
0.208152
0.221038
0.22509
0.215865
0.206843
0.202249
0.200148
0.200908
0.201987
0.202279
0.201757
0.1967
0.189754
0.181413
0.174026
0.16578
0.15809
0.153221
0.150018
0.142758
0.137912
0.134376
0.130517
0.127178
0.123818
0.121626
0.120777
0.120754
0.122067
0.12623
0.129991
0.130621
0.1302
0.128474
0.12579
0.123381
0.122797
0.123867
0.127624
0.132153
0.13382
0.133629
0.131491
0.12642
0.116242
0.107359
0.104163
0.100182
0.0943178
0.0925882
0.0987099
0.109674
0.116887
0.119881
0.123187
0.130206
0.148799
0.153752
0.135604
0.105831
0.0946793
0.111724
0.134506
0.128833
0.108499
0.0985345
0.098805
0.10948
0.115254
0.109421
0.103323
0.104451
0.110469
0.114228
0.104765
0.0891751
0.074774
0.0656463
0.0627732
0.0622825
0.0630224
0.0678452
0.0716605
0.0738511
0.0757146
0.0779379
0.0796633
0.0784999
0.076372