/*--------------------------------*- C++ -*----------------------------------*\
| =========                 |                                                 |
| \\      /  F ield         | OpenFOAM: The Open Source CFD Toolbox           |
|  \\    /   O peration     | Version:  dev                                   |
|   \\  /    A nd           | Web:      http://www.openfoam.org               |
|    \\/     M anipulation  |                                                 |
\*---------------------------------------------------------------------------*/
FoamFile
{
    version     2.0;
    format      ascii;
    class       volScalarField;
    object      muSgs;
    location    "9.163";
}
// * * * * * * * * * * * * * * * * * * * * * * * * * * * * * * * * * * * * * //

dimensions      [1 -1 -1 0 0 0 0];

internalField   nonuniform List<scalar> 
12225
(
0.00021565
0.000247003
0.000209138
0.00022846
0.000197193
0.00024635
0.000217578
0.000276094
0.000243793
0.000304452
0.000272442
0.000329648
0.000308445
0.000338173
0.000371612
0.000351038
0.00045608
0.00042185
0.000102759
0.00018055
0.000161498
0.000172148
0.000147245
0.000161544
0.000141552
0.000157069
0.000142909
0.000155752
0.000146554
0.000151705
0.000154725
0.000151394
0.000173565
0.000161004
0.000164439
0.00018793
3.47235e-05
0.00010735
0.000110946
0.000134525
0.000126168
0.000132373
0.000125494
0.000125283
0.000122484
0.000116158
0.000113864
0.000105143
0.000104032
9.42104e-05
9.78272e-05
8.67161e-05
8.56736e-05
7.14734e-05
1.22869e-05
5.2653e-05
6.43043e-05
7.84417e-05
8.90352e-05
8.89433e-05
9.54392e-05
9.14169e-05
9.65715e-05
8.95582e-05
9.08035e-05
8.23513e-05
8.11993e-05
7.22564e-05
7.19251e-05
6.4883e-05
6.56675e-05
5.46585e-05
7.11353e-06
2.91189e-05
3.88934e-05
4.85211e-05
6.18273e-05
6.35444e-05
6.95142e-05
6.77445e-05
7.03572e-05
6.63073e-05
6.71569e-05
6.17387e-05
6.16083e-05
5.5532e-05
5.55904e-05
5.02814e-05
5.55989e-05
5.26222e-05
9.70778e-06
1.89674e-05
2.84528e-05
3.29914e-05
4.2693e-05
4.32708e-05
4.78731e-05
4.6065e-05
4.9555e-05
4.66529e-05
4.85074e-05
4.50485e-05
4.59221e-05
4.20709e-05
4.28483e-05
3.91568e-05
4.23952e-05
5.40892e-05
1.03674e-05
1.21093e-05
1.9308e-05
2.04253e-05
2.77859e-05
2.72979e-05
3.18391e-05
3.03774e-05
3.40732e-05
3.21931e-05
3.42812e-05
3.21037e-05
3.33279e-05
3.09013e-05
3.20782e-05
2.98535e-05
3.12622e-05
3.77175e-05
9.08605e-06
9.58973e-06
1.23602e-05
1.25331e-05
1.64039e-05
1.6061e-05
1.878e-05
1.80036e-05
2.0346e-05
1.94572e-05
2.08152e-05
1.97409e-05
2.06095e-05
1.94877e-05
2.02888e-05
1.96407e-05
2.00322e-05
2.332e-05
1.14435e-05
1.11989e-05
1.22121e-05
1.22827e-05
1.39896e-05
1.39931e-05
1.55649e-05
1.52366e-05
1.64221e-05
1.60294e-05
1.67323e-05
1.62471e-05
1.67489e-05
1.6417e-05
1.65631e-05
1.70156e-05
1.69706e-05
1.92375e-05
1.49969e-05
1.50533e-05
1.41334e-05
1.39987e-05
1.46351e-05
1.47096e-05
1.51121e-05
1.49516e-05
1.52195e-05
1.49975e-05
1.50989e-05
1.48723e-05
1.48676e-05
1.50239e-05
1.48784e-05
1.53698e-05
1.52286e-05
1.63852e-05
2.16364e-05
2.1782e-05
1.90315e-05
1.84595e-05
1.72399e-05
1.69807e-05
1.66372e-05
1.63942e-05
1.60813e-05
1.58447e-05
1.54913e-05
1.52706e-05
1.49896e-05
1.49718e-05
1.46854e-05
1.48465e-05
1.46974e-05
1.4965e-05
3.39035e-05
3.26706e-05
2.80334e-05
2.6765e-05
2.35789e-05
2.26433e-05
2.05553e-05
1.96058e-05
1.82652e-05
1.76841e-05
1.6849e-05
1.64313e-05
1.58322e-05
1.56569e-05
1.53005e-05
1.52316e-05
1.50847e-05
1.50529e-05
5.06865e-05
4.79707e-05
4.05634e-05
3.77653e-05
3.24804e-05
3.06466e-05
2.73878e-05
2.6027e-05
2.3429e-05
2.14834e-05
1.96232e-05
1.85008e-05
1.75832e-05
1.71685e-05
1.6679e-05
1.64546e-05
1.62672e-05
1.61478e-05
7.24871e-05
6.73507e-05
5.71317e-05
5.16282e-05
4.50835e-05
4.13361e-05
3.68831e-05
3.35595e-05
3.00499e-05
2.74056e-05
2.4926e-05
2.299e-05
2.14564e-05
2.04576e-05
1.95675e-05
1.90007e-05
1.84681e-05
1.8149e-05
0.00010332
9.54095e-05
8.14804e-05
7.22371e-05
6.41124e-05
5.76401e-05
5.15354e-05
4.62475e-05
4.16034e-05
3.76962e-05
3.4301e-05
3.13979e-05
2.88923e-05
2.68708e-05
2.51108e-05
2.38268e-05
2.26578e-05
2.18002e-05
0.000145733
0.000133348
0.000113012
9.7236e-05
8.43823e-05
7.39291e-05
6.51155e-05
5.76718e-05
5.12992e-05
4.58547e-05
4.12001e-05
3.72314e-05
3.38618e-05
3.11205e-05
2.87625e-05
2.70476e-05
2.55014e-05
2.4477e-05
0.000181157
0.000163808
0.000135458
0.000114555
9.83942e-05
8.55458e-05
7.49559e-05
6.60377e-05
5.83762e-05
5.18332e-05
4.62444e-05
4.15387e-05
3.75587e-05
3.43238e-05
3.15809e-05
2.95491e-05
2.77436e-05
2.65545e-05
0.000190421
0.000170271
0.000139887
0.000118001
0.000101234
8.78801e-05
7.68514e-05
6.75349e-05
5.95792e-05
5.27924e-05
4.7015e-05
4.21692e-05
3.80694e-05
3.47536e-05
3.19478e-05
2.98463e-05
2.80114e-05
2.67718e-05
0.000171376
0.000155221
0.000128888
0.000109398
9.43679e-05
8.2246e-05
7.20784e-05
6.33959e-05
5.59148e-05
4.95338e-05
4.41308e-05
3.96113e-05
3.57932e-05
3.26935e-05
3.00661e-05
2.8083e-05
2.63197e-05
2.51035e-05
0.000133624
0.000122111
0.000103242
8.95908e-05
7.91987e-05
7.05378e-05
6.28211e-05
5.58105e-05
4.95156e-05
4.40967e-05
3.94402e-05
3.55512e-05
3.22243e-05
2.95019e-05
2.71464e-05
2.53289e-05
2.36584e-05
2.25197e-05
9.87953e-05
9.15945e-05
7.81253e-05
6.77427e-05
5.9936e-05
5.35961e-05
4.81462e-05
4.31376e-05
3.84024e-05
3.41654e-05
3.05792e-05
2.77079e-05
2.53183e-05
2.34338e-05
2.17915e-05
2.0532e-05
1.93327e-05
1.85629e-05
7.19536e-05
6.69572e-05
5.73118e-05
5.03961e-05
4.51501e-05
4.07356e-05
3.65446e-05
3.2497e-05
2.91188e-05
2.64446e-05
2.43353e-05
2.26768e-05
2.13281e-05
2.0223e-05
1.91983e-05
1.83591e-05
1.7511e-05
1.6919e-05
4.92204e-05
4.66351e-05
4.09428e-05
3.62764e-05
3.23668e-05
2.95565e-05
2.73596e-05
2.56467e-05
2.42663e-05
2.30415e-05
2.19298e-05
2.09735e-05
2.008e-05
1.92669e-05
1.84986e-05
1.78479e-05
1.71832e-05
1.66662e-05
3.33439e-05
3.1614e-05
2.75814e-05
2.53605e-05
2.42389e-05
2.38769e-05
2.35671e-05
2.33775e-05
2.30627e-05
2.26626e-05
2.21982e-05
2.17075e-05
2.1228e-05
2.07665e-05
2.03633e-05
1.99604e-05
1.95431e-05
1.91106e-05
2.00782e-05
1.98754e-05
1.9269e-05
2.02753e-05
2.22016e-05
2.37767e-05
2.49627e-05
2.60307e-05
2.71212e-05
2.80092e-05
2.84485e-05
2.85347e-05
2.8393e-05
2.81069e-05
2.7864e-05
2.75347e-05
2.71207e-05
2.66078e-05
1.06833e-05
1.43577e-05
1.85244e-05
2.50466e-05
3.05694e-05
3.49435e-05
3.81234e-05
4.07306e-05
4.28231e-05
4.41571e-05
4.46003e-05
4.44487e-05
4.39274e-05
4.3262e-05
4.26169e-05
4.19291e-05
4.11838e-05
4.03458e-05
6.7611e-06
1.95485e-05
3.63262e-05
5.19788e-05
6.14021e-05
6.68639e-05
6.99079e-05
7.20406e-05
7.32841e-05
7.33324e-05
7.2424e-05
7.10682e-05
6.94111e-05
6.76165e-05
6.59727e-05
6.45404e-05
6.29877e-05
6.14378e-05
1.58297e-05
5.49605e-05
9.29684e-05
0.000111267
0.000120948
0.00012446
0.000124537
0.000123295
0.000121133
0.000117993
0.000113719
0.000109653
0.000105736
0.000102141
9.88768e-05
9.60222e-05
9.27883e-05
9.0027e-05
6.64147e-05
0.000162679
0.000193244
0.000194379
0.0001893
0.000180893
0.000172585
0.000164807
0.000157735
0.000151614
0.00014597
0.000140542
0.000135344
0.000130108
0.000125397
0.000120662
0.000116346
0.000112128
0.000251632
0.000304479
0.000290054
0.000255896
0.000232497
0.000220024
0.000213656
0.000210105
0.000207168
0.000204777
0.000202152
0.000199128
0.000195288
0.000191015
0.000186266
0.000180805
0.000174763
0.000167854
2.268e-05
2.41425e-05
2.82803e-05
3.56184e-05
4.4364e-05
5.19438e-05
5.7987e-05
6.14212e-05
6.35486e-05
6.60385e-05
6.87548e-05
7.22238e-05
7.54788e-05
7.93379e-05
8.34459e-05
8.78145e-05
9.19232e-05
9.63654e-05
0.000100953
0.000105117
0.000108876
0.000111569
0.000113011
0.000113377
0.000113184
0.000113642
0.000114251
0.000116174
0.000119503
0.00012204
0.000124708
0.000128731
0.000133459
0.000138749
0.000147384
0.000153764
0.00015778
0.00016058
0.000164732
0.000172541
0.000183799
0.000193135
0.000199988
0.000213369
0.000242968
0.000279845
0.000305094
0.000320932
0.000332891
0.00034325
0.000351531
0.000357686
0.000361891
0.000364591
0.000366042
0.000366793
0.000365986
0.000364268
0.000361484
0.000357979
0.000353594
0.000348416
0.000342905
0.000336833
0.000330185
0.000323121
0.000315849
0.000308429
0.000300777
0.000292756
0.000284473
0.000275705
0.000266866
0.000258352
0.000249373
0.000239976
0.000231641
0.000223861
0.000214836
0.000207862
0.000200536
0.000194562
0.000188985
0.000184305
0.000180615
0.000177352
0.000174207
0.000171387
0.000168792
0.000166202
0.000163779
0.000161653
0.000160201
0.000159701
0.000159969
0.000160639
0.000160932
0.000159907
0.000158369
0.000156561
0.000154757
0.000153083
0.000151258
0.000149165
0.000147249
0.000145595
0.000143511
0.000140869
0.000137654
0.000134594
0.000132684
0.000132292
0.000132987
0.000134515
0.000137644
0.00014468
0.000154286
0.000170482
0.000183757
0.000185626
0.000180732
0.000178669
0.000184514
0.00019375
0.000204623
0.000221638
0.000238686
0.000259274
0.00028719
0.000303041
0.000306489
0.000323018
0.000359087
0.000368831
0.000364877
0.000373704
0.000373245
0.000367698
0.000372067
0.00037167
0.000382278
0.00039701
0.000416924
0.000435616
0.000453245
0.000467534
0.000476446
0.000485484
0.000491134
0.000498298
0.000505534
0.000513166
0.000520982
0.000530471
0.000536529
0.000538601
0.000533062
0.000527969
0.000530628
0.000544743
0.000549729
0.000530781
0.00051199
0.000502845
0.000487597
0.000432603
0.000404407
0.000391457
0.000378757
0.000419736
0.000511417
0.000549518
0.000514286
0.000427987
0.00041681
0.000470103
0.000565951
0.000657639
0.000698318
0.000706276
5.27201e-05
3.65535e-05
4.36587e-05
5.82302e-05
6.87938e-05
7.0276e-05
6.76136e-05
6.48657e-05
6.22487e-05
5.91413e-05
5.57997e-05
5.22507e-05
4.94006e-05
4.7224e-05
4.61367e-05
4.61578e-05
4.68777e-05
4.85172e-05
5.12273e-05
5.55728e-05
6.01588e-05
6.60409e-05
7.14548e-05
7.56427e-05
7.83005e-05
7.79432e-05
7.63308e-05
7.49559e-05
7.17975e-05
6.68888e-05
6.61465e-05
6.8029e-05
7.08104e-05
7.74867e-05
8.86841e-05
9.2781e-05
9.73592e-05
0.000109806
0.000120039
0.000143106
0.000178396
0.000192792
0.000199112
0.000202089
0.000204451
0.000205106
0.000197067
0.000184001
0.000174282
0.00016348
0.000154674
0.000146514
0.000139609
0.000133616
0.000128738
0.00012473
0.000121576
0.000118665
0.000115997
0.000113689
0.000111534
0.000109157
0.000107033
0.000105664
0.000104227
0.000103431
0.0001024
0.000101744
0.000100855
9.94596e-05
9.78517e-05
9.6207e-05
9.51395e-05
9.38797e-05
9.1803e-05
9.04583e-05
8.97885e-05
8.88263e-05
8.78742e-05
8.77718e-05
8.74061e-05
8.78604e-05
8.81593e-05
8.92452e-05
9.14309e-05
9.4036e-05
9.56373e-05
9.71916e-05
9.85388e-05
9.90928e-05
9.92694e-05
9.8953e-05
9.88803e-05
9.93629e-05
0.000101121
0.000104776
0.000110309
0.000114171
0.000116602
0.000118022
0.000119044
0.000120063
0.000121207
0.000122034
0.000122653
0.00012385
0.000125834
0.000127482
0.000127255
0.00012524
0.000124847
0.000125367
0.000125863
0.00012563
0.000123837
0.000123627
0.000124379
0.000131702
0.000143666
0.000151904
0.000152674
0.000154768
0.000168824
0.000191005
0.00020506
0.000207342
0.000206193
0.000212944
0.000219088
0.000213325
0.000210431
0.000236545
0.00025139
0.000233893
0.000228681
0.000232021
0.000220215
0.000220772
0.00022962
0.000233007
0.000256696
0.000272284
0.000299955
0.000320155
0.00034673
0.000371701
0.000389191
0.000398373
0.000398538
0.000401457
0.000402662
0.000407364
0.000419461
0.000424103
0.000429738
0.000434569
0.00041898
0.000407404
0.000423452
0.000472466
0.000492809
0.000483014
0.000471157
0.000464082
0.000458196
0.000424875
0.000400517
0.000401833
0.000416287
0.000449466
0.000499006
0.000484231
0.000420802
0.00039289
0.000416692
0.00040593
0.00044454
0.000491712
0.000532022
0.000559599
9.18701e-05
5.85126e-05
7.05863e-05
8.51463e-05
8.00584e-05
7.29293e-05
6.49647e-05
5.55806e-05
4.8435e-05
4.33561e-05
4.01374e-05
3.84137e-05
3.70271e-05
3.57779e-05
3.50697e-05
3.47463e-05
3.46238e-05
3.46955e-05
3.49774e-05
3.57902e-05
3.74904e-05
4.06505e-05
4.39768e-05
4.84858e-05
5.19858e-05
5.37496e-05
5.41742e-05
5.31826e-05
5.36938e-05
5.57917e-05
6.09722e-05
6.85421e-05
7.54158e-05
9.76299e-05
0.000109927
0.000115029
0.000138709
0.000159118
0.000165456
0.000166659
0.000167379
0.000165362
0.00015508
0.000142549
0.00012891
0.000110976
9.70332e-05
8.75944e-05
7.66881e-05
6.86785e-05
6.30498e-05
5.8988e-05
5.56827e-05
5.3042e-05
5.15299e-05
5.03199e-05
4.95981e-05
4.90917e-05
4.85952e-05
4.83135e-05
4.80043e-05
4.76734e-05
4.75669e-05
4.75738e-05
4.76208e-05
4.77997e-05
4.80626e-05
4.82431e-05
4.82656e-05
4.81043e-05
4.80843e-05
4.81556e-05
4.84639e-05
4.88029e-05
4.89735e-05
4.94285e-05
5.00765e-05
5.04442e-05
5.06778e-05
5.12083e-05
5.12751e-05
5.17096e-05
5.20185e-05
5.26822e-05
5.40492e-05
5.58924e-05
5.73262e-05
5.87677e-05
6.02502e-05
6.13144e-05
6.21008e-05
6.23305e-05
6.22665e-05
6.21442e-05
6.26127e-05
6.45903e-05
6.95043e-05
7.50982e-05
7.91882e-05
8.23727e-05
8.49827e-05
8.81301e-05
9.11944e-05
9.28097e-05
9.4776e-05
9.88366e-05
0.000102665
0.000105984
0.000107908
0.000108002
0.000105816
0.000104457
0.000104462
0.000107151
0.00010715
0.00010404
9.9605e-05
0.000100982
0.000107538
0.000115039
0.000122346
0.000143383
0.000173437
0.000185298
0.000185329
0.000169832
0.000163798
0.000163272
0.000160188
0.000153
0.000152024
0.000166906
0.000171494
0.00015585
0.000151481
0.000152397
0.000142051
0.000142194
0.000146835
0.000151119
0.000170145
0.000177535
0.000191692
0.000201633
0.000218737
0.000242058
0.000263242
0.000284612
0.000285794
0.000291069
0.000289898
0.000292474
0.000311943
0.000325603
0.000332807
0.000345249
0.000340307
0.000306128
0.00030729
0.000360336
0.000398128
0.000408597
0.000401354
0.000395374
0.000402429
0.000396037
0.000381326
0.000401874
0.000430806
0.00045289
0.000437914
0.000372427
0.000328739
0.000332768
0.000355237
0.000318306
0.000342363
0.000373657
0.000400993
0.00042741
0.000139272
9.35387e-05
0.000104822
9.29753e-05
7.84492e-05
5.86088e-05
4.35444e-05
3.78359e-05
3.55142e-05
3.47564e-05
3.44063e-05
3.41352e-05
3.36266e-05
3.30847e-05
3.28014e-05
3.2693e-05
3.26208e-05
3.23915e-05
3.21331e-05
3.21497e-05
3.24116e-05
3.30401e-05
3.4387e-05
3.74709e-05
4.04183e-05
4.26136e-05
4.44896e-05
4.67414e-05
5.09796e-05
6.59951e-05
9.09238e-05
0.000103198
0.000109666
0.000128135
0.000136652
0.000140649
0.000142994
0.000144403
0.000141838
0.000133485
0.000119213
0.000101647
8.97774e-05
7.88035e-05
6.75426e-05
5.93564e-05
5.10212e-05
4.74398e-05
4.44807e-05
4.24034e-05
4.13713e-05
4.07247e-05
4.0324e-05
4.0203e-05
4.01828e-05
4.02316e-05
4.04242e-05
4.06645e-05
4.09662e-05
4.13222e-05
4.16759e-05
4.19699e-05
4.21859e-05
4.23342e-05
4.24823e-05
4.2665e-05
4.27959e-05
4.29358e-05
4.29803e-05
4.27598e-05
4.23103e-05
4.20798e-05
4.19524e-05
4.17264e-05
4.1725e-05
4.18878e-05
4.22351e-05
4.27748e-05
4.33869e-05
4.42819e-05
4.44566e-05
4.46944e-05
4.48444e-05
4.50002e-05
4.53718e-05
4.59964e-05
4.66514e-05
4.73059e-05
4.79246e-05
4.84196e-05
4.90188e-05
4.9289e-05
4.95613e-05
4.97187e-05
4.99222e-05
5.01949e-05
5.27592e-05
5.79357e-05
6.12932e-05
6.37315e-05
6.59818e-05
6.9014e-05
7.20084e-05
7.34432e-05
7.47543e-05
7.7664e-05
8.20825e-05
8.64581e-05
8.87032e-05
8.86841e-05
8.63888e-05
8.21958e-05
7.94109e-05
8.07808e-05
8.27524e-05
8.36225e-05
8.38248e-05
8.68163e-05
9.3393e-05
0.000101609
0.000114444
0.000145398
0.000172988
0.000174513
0.000160416
0.000145235
0.000140017
0.000136982
0.000135553
0.000133312
0.000130959
0.000138652
0.000141504
0.00013429
0.000130532
0.000132171
0.000126829
0.000124465
0.000123571
0.000123351
0.00013827
0.000146947
0.000152744
0.000156583
0.00016415
0.000176685
0.000191429
0.000214169
0.000219646
0.00022781
0.000227413
0.000224909
0.000239574
0.000257534
0.00026464
0.000294372
0.000310322
0.000259397
0.000237966
0.000291478
0.000339296
0.000356286
0.000345126
0.00034654
0.00036703
0.000377163
0.000384039
0.000391551
0.000422844
0.000424233
0.000381173
0.000318132
0.000310616
0.000317228
0.000315305
0.000295766
0.000300303
0.000319577
0.00034119
0.000361977
0.000190687
0.000134412
0.000113621
8.6741e-05
5.35094e-05
3.90618e-05
3.47085e-05
3.38296e-05
3.36218e-05
3.40926e-05
3.49138e-05
3.58513e-05
3.60342e-05
3.57108e-05
3.51192e-05
3.46103e-05
3.42098e-05
3.35314e-05
3.23904e-05
3.17787e-05
3.1621e-05
3.17105e-05
3.20992e-05
3.35353e-05
3.67378e-05
4.01785e-05
4.31699e-05
5.11821e-05
6.90275e-05
9.48525e-05
0.000113295
0.000119192
0.000123253
0.000125299
0.000126343
0.000125614
0.000121136
0.00010949
9.58134e-05
8.46039e-05
7.3193e-05
6.32643e-05
5.3077e-05
4.81611e-05
4.44613e-05
4.20522e-05
4.00441e-05
3.92764e-05
3.86985e-05
3.8238e-05
3.81596e-05
3.81892e-05
3.82883e-05
3.85426e-05
3.8912e-05
3.93248e-05
3.97416e-05
4.01736e-05
4.0591e-05
4.10402e-05
4.15626e-05
4.21079e-05
4.25863e-05
4.29329e-05
4.32597e-05
4.34682e-05
4.35918e-05
4.37197e-05
4.38408e-05
4.37814e-05
4.33505e-05
4.25626e-05
4.20381e-05
4.1584e-05
4.05111e-05
4.00756e-05
3.93541e-05
3.91557e-05
3.93769e-05
4.04592e-05
4.13451e-05
4.20775e-05
4.2248e-05
4.23024e-05
4.23044e-05
4.25693e-05
4.27931e-05
4.31263e-05
4.34095e-05
4.35914e-05
4.39621e-05
4.43319e-05
4.45104e-05
4.46051e-05
4.4917e-05
4.50357e-05
4.58503e-05
4.96173e-05
5.26026e-05
5.40814e-05
5.58964e-05
5.83857e-05
6.04492e-05
6.12218e-05
6.19628e-05
6.32642e-05
6.66314e-05
7.17177e-05
7.4897e-05
7.58193e-05
7.48695e-05
7.1608e-05
6.82829e-05
6.80253e-05
6.91451e-05
7.03246e-05
7.12875e-05
7.53638e-05
8.49872e-05
9.6285e-05
0.000114049
0.000152212
0.000169206
0.000157874
0.00014211
0.000128878
0.000124355
0.000123106
0.000125235
0.000124777
0.000123056
0.000128594
0.000127714
0.000123638
0.000121686
0.000124892
0.000123153
0.000118869
0.00011624
0.000114222
0.000120858
0.000131928
0.000137572
0.000138903
0.000143513
0.000149363
0.000156415
0.00017515
0.00018121
0.000189059
0.000197256
0.000192684
0.000200667
0.000217488
0.000218981
0.000258254
0.00029461
0.000246667
0.000207999
0.000249005
0.000301159
0.0003192
0.000302501
0.000306927
0.000338588
0.000363132
0.00039148
0.000400579
0.000408778
0.000382994
0.000336033
0.00029892
0.00030723
0.000302827
0.000306308
0.000290481
0.000285839
0.000296122
0.000311473
0.000326941
0.000244223
0.00015682
0.000110117
6.22553e-05
3.9921e-05
3.42722e-05
3.33507e-05
3.4046e-05
3.60377e-05
3.81239e-05
3.97115e-05
4.0916e-05
4.1347e-05
4.12969e-05
4.06932e-05
3.98643e-05
3.91286e-05
3.77229e-05
3.52042e-05
3.4138e-05
3.35287e-05
3.27441e-05
3.25053e-05
3.39009e-05
3.74366e-05
4.2698e-05
5.0905e-05
6.98038e-05
9.66993e-05
0.000109924
0.00011215
0.000113565
0.000113143
0.000111067
0.000104687
9.57822e-05
8.59382e-05
7.55101e-05
6.41777e-05
5.47381e-05
4.92959e-05
4.49037e-05
4.11836e-05
3.9781e-05
3.85873e-05
3.75486e-05
3.68587e-05
3.66816e-05
3.66671e-05
3.67244e-05
3.69549e-05
3.7281e-05
3.76918e-05
3.81189e-05
3.859e-05
3.90834e-05
3.96221e-05
4.01653e-05
4.06579e-05
4.11609e-05
4.16851e-05
4.21872e-05
4.26793e-05
4.30557e-05
4.34086e-05
4.36993e-05
4.39088e-05
4.41964e-05
4.44177e-05
4.45347e-05
4.45624e-05
4.43089e-05
4.37494e-05
4.31735e-05
4.16777e-05
4.0371e-05
3.90919e-05
3.78188e-05
3.71919e-05
3.7146e-05
3.72257e-05
3.78712e-05
3.86041e-05
3.92103e-05
3.92816e-05
3.94321e-05
3.95318e-05
3.98292e-05
4.03008e-05
4.04785e-05
4.0563e-05
4.11277e-05
4.20588e-05
4.26609e-05
4.29614e-05
4.29734e-05
4.32417e-05
4.49073e-05
4.76096e-05
4.85209e-05
4.98965e-05
5.23687e-05
5.40356e-05
5.43573e-05
5.43577e-05
5.4415e-05
5.60446e-05
6.10639e-05
6.5487e-05
6.7219e-05
6.69852e-05
6.53086e-05
6.44205e-05
6.45662e-05
6.4848e-05
6.50019e-05
6.62692e-05
7.14629e-05
8.23475e-05
9.47915e-05
0.000116146
0.000154882
0.000161286
0.00014216
0.000125945
0.000119372
0.000120579
0.000118235
0.000117282
0.000114235
0.00011419
0.00011951
0.000120166
0.000117649
0.000112325
0.000113768
0.000117316
0.000115044
0.000113151
0.00011068
0.000112106
0.000118192
0.000128125
0.00013008
0.000135197
0.000140167
0.000143521
0.000156991
0.000160889
0.000168155
0.000179394
0.000174243
0.000176886
0.000193495
0.000186676
0.000222327
0.000277244
0.000249471
0.000212345
0.00022925
0.00027663
0.000297439
0.000280927
0.000283251
0.000319568
0.00035339
0.000392567
0.000402339
0.000367601
0.00034144
0.00030298
0.000288854
0.000308457
0.000316236
0.000294963
0.000275207
0.000272074
0.000273573
0.000295466
0.000297431
0.000294741
0.000162778
9.3462e-05
4.9751e-05
3.46173e-05
3.325e-05
3.45781e-05
3.70707e-05
3.97591e-05
4.15939e-05
4.25246e-05
4.31107e-05
4.38278e-05
4.39661e-05
4.36311e-05
4.26098e-05
4.12328e-05
3.94835e-05
3.8335e-05
3.75989e-05
3.59832e-05
3.42784e-05
3.42801e-05
3.56779e-05
3.89967e-05
4.75166e-05
6.70841e-05
9.45154e-05
0.000104257
0.000104345
0.000104564
0.000100799
9.4448e-05
8.8513e-05
8.05402e-05
6.99084e-05
6.07686e-05
5.35147e-05
4.66386e-05
4.23821e-05
4.03812e-05
3.88632e-05
3.73624e-05
3.63364e-05
3.55682e-05
3.53355e-05
3.52965e-05
3.53829e-05
3.57524e-05
3.62444e-05
3.67283e-05
3.72439e-05
3.79609e-05
3.86298e-05
3.93036e-05
3.99541e-05
4.0582e-05
4.11928e-05
4.17122e-05
4.21119e-05
4.2403e-05
4.26223e-05
4.28452e-05
4.2959e-05
4.30271e-05
4.30015e-05
4.30142e-05
4.30298e-05
4.31345e-05
4.33703e-05
4.37253e-05
4.38472e-05
4.38074e-05
4.34998e-05
4.28079e-05
4.14628e-05
3.99309e-05
3.78637e-05
3.65952e-05
3.59752e-05
3.57669e-05
3.57297e-05
3.60802e-05
3.67964e-05
3.71238e-05
3.75314e-05
3.76664e-05
3.77894e-05
3.8114e-05
3.82914e-05
3.81702e-05
3.76674e-05
3.81413e-05
3.92619e-05
4.03963e-05
4.0819e-05
4.12181e-05
4.18636e-05
4.32298e-05
4.44673e-05
4.53006e-05
4.73435e-05
4.90677e-05
4.96435e-05
5.00703e-05
5.05263e-05
5.09077e-05
5.39237e-05
5.89816e-05
6.07091e-05
6.11931e-05
6.08722e-05
6.10448e-05
6.18129e-05
6.21411e-05
6.23149e-05
6.33788e-05
6.96523e-05
8.1521e-05
9.47324e-05
0.000118622
0.00015525
0.00015582
0.000134059
0.000115389
0.000114036
0.000115756
0.000109513
0.000107933
0.000103862
0.00010345
0.000108393
0.000112216
0.000112041
0.000103634
0.000103708
0.00010495
0.000107081
0.000108491
0.000106575
0.000106613
0.000109331
0.000119426
0.000122148
0.000126278
0.000135963
0.000138702
0.000148882
0.000154906
0.000158598
0.000168807
0.000165014
0.000163873
0.000181202
0.000168999
0.000192698
0.000249086
0.00025054
0.000234822
0.00021874
0.000255977
0.000282042
0.000271273
0.000271261
0.000310601
0.000346881
0.000383253
0.000393624
0.000337642
0.000322337
0.000309651
0.000303045
0.000323422
0.000321349
0.000288536
0.000265062
0.000259973
0.000251714
0.000278187
0.000272115
0.000337125
0.000163318
8.23465e-05
3.98892e-05
3.28805e-05
3.40403e-05
3.8282e-05
4.17423e-05
4.36932e-05
4.49091e-05
4.55023e-05
4.61952e-05
4.67085e-05
4.67433e-05
4.62256e-05
4.52492e-05
4.36125e-05
4.128e-05
3.94212e-05
3.77684e-05
3.53739e-05
3.37371e-05
3.35615e-05
3.49758e-05
4.25209e-05
6.20667e-05
9.21988e-05
9.95683e-05
9.78523e-05
9.48442e-05
8.88558e-05
8.30357e-05
7.77975e-05
6.93706e-05
6.14412e-05
5.23896e-05
4.61048e-05
4.2383e-05
3.98306e-05
3.79178e-05
3.7079e-05
3.60274e-05
3.46201e-05
3.41935e-05
3.41411e-05
3.42134e-05
3.45753e-05
3.53152e-05
3.60691e-05
3.67668e-05
3.77244e-05
3.89482e-05
4.02849e-05
4.15182e-05
4.2681e-05
4.36893e-05
4.44735e-05
4.51268e-05
4.56043e-05
4.5831e-05
4.58876e-05
4.58275e-05
4.54693e-05
4.49349e-05
4.45178e-05
4.37847e-05
4.34477e-05
4.29719e-05
4.2513e-05
4.2059e-05
4.18655e-05
4.19069e-05
4.20182e-05
4.21081e-05
4.23069e-05
4.1907e-05
4.0963e-05
3.90035e-05
3.69593e-05
3.58269e-05
3.53765e-05
3.51395e-05
3.53112e-05
3.57687e-05
3.61856e-05
3.66205e-05
3.68171e-05
3.66912e-05
3.67369e-05
3.69765e-05
3.71612e-05
3.64857e-05
3.59989e-05
3.63074e-05
3.72049e-05
3.76562e-05
3.84681e-05
3.93069e-05
3.9761e-05
4.02651e-05
4.1886e-05
4.36317e-05
4.56177e-05
4.64188e-05
4.70339e-05
4.82017e-05
4.881e-05
4.9386e-05
5.21268e-05
5.59048e-05
5.72832e-05
5.69071e-05
5.66236e-05
5.64015e-05
5.77379e-05
5.82878e-05
5.99768e-05
6.74215e-05
7.99801e-05
9.38298e-05
0.000119377
0.000152134
0.000152166
0.000131339
0.000111844
0.000108989
0.000106933
0.000104386
0.000104134
9.94822e-05
9.93671e-05
0.00010109
0.000105083
0.000108532
0.000102038
0.000100044
9.85526e-05
0.000100391
0.000102529
0.000101321
0.000102591
0.000104267
0.000112594
0.000116701
0.00011847
0.000129597
0.000130731
0.000143741
0.000150865
0.000154325
0.000163261
0.000156768
0.000156376
0.000173278
0.000161404
0.000178706
0.000220199
0.000244429
0.000247119
0.000215047
0.00023529
0.000267887
0.000264057
0.00026104
0.000306378
0.000343062
0.00036339
0.000366375
0.00032564
0.000296556
0.000338227
0.000341132
0.000346952
0.000328369
0.000292758
0.000265904
0.000253996
0.000237754
0.00026449
0.000265999
0.000369685
0.000158394
6.54289e-05
3.50161e-05
3.27443e-05
3.76882e-05
4.19203e-05
4.40848e-05
4.5503e-05
4.6468e-05
4.69224e-05
4.75453e-05
4.79118e-05
4.7827e-05
4.75501e-05
4.7214e-05
4.6195e-05
4.39411e-05
4.0511e-05
3.71493e-05
3.39411e-05
3.2768e-05
3.36507e-05
3.9332e-05
5.56076e-05
8.48904e-05
9.46824e-05
9.26455e-05
8.71316e-05
7.84336e-05
7.33831e-05
6.95346e-05
6.21982e-05
5.50246e-05
4.80464e-05
4.25739e-05
3.956e-05
3.80854e-05
3.70437e-05
3.59131e-05
3.47142e-05
3.33244e-05
3.29003e-05
3.2927e-05
3.30833e-05
3.35945e-05
3.46078e-05
3.57579e-05
3.699e-05
3.84798e-05
4.02181e-05
4.17445e-05
4.29498e-05
4.40018e-05
4.49437e-05
4.5665e-05
4.62797e-05
4.68107e-05
4.73291e-05
4.77004e-05
4.78467e-05
4.79082e-05
4.77273e-05
4.71409e-05
4.66771e-05
4.61258e-05
4.57113e-05
4.47994e-05
4.41307e-05
4.30895e-05
4.24572e-05
4.18882e-05
4.14409e-05
4.11752e-05
4.10955e-05
4.10417e-05
4.07901e-05
3.98789e-05
3.82117e-05
3.61884e-05
3.52973e-05
3.47127e-05
3.47555e-05
3.50702e-05
3.58607e-05
3.63647e-05
3.66986e-05
3.67046e-05
3.64588e-05
3.6384e-05
3.6405e-05
3.61172e-05
3.53228e-05
3.48861e-05
3.51134e-05
3.53784e-05
3.58592e-05
3.66603e-05
3.69946e-05
3.7178e-05
3.8309e-05
4.05572e-05
4.24493e-05
4.3586e-05
4.41436e-05
4.50867e-05
4.60001e-05
4.61463e-05
4.69312e-05
4.93586e-05
5.28725e-05
5.31149e-05
5.34224e-05
5.2718e-05
5.37672e-05
5.39002e-05
5.55753e-05
6.3096e-05
7.82944e-05
9.26332e-05
0.000119951
0.000146392
0.000148123
0.000131527
0.000113005
0.000106182
0.000102662
0.000101716
9.88027e-05
9.39072e-05
9.31402e-05
9.29508e-05
9.52637e-05
0.000101278
9.99148e-05
9.95708e-05
9.78135e-05
9.72365e-05
9.80511e-05
9.73459e-05
0.000100426
0.000100777
0.000107815
0.000111504
0.000114665
0.000123067
0.000123478
0.00014238
0.000141502
0.000151906
0.000160309
0.000152106
0.000155647
0.00016795
0.000158845
0.000168689
0.000197166
0.000229793
0.000244108
0.000216194
0.000216521
0.000250944
0.000259419
0.000252805
0.000301861
0.000339814
0.000355299
0.00033575
0.000311961
0.000289652
0.000371722
0.000369016
0.000368624
0.000333955
0.000295152
0.000265679
0.000244206
0.000234856
0.000253154
0.000255959
0.000390088
0.000149326
5.80061e-05
3.39565e-05
3.41077e-05
3.91024e-05
4.25025e-05
4.46282e-05
4.58842e-05
4.70756e-05
4.7876e-05
4.84279e-05
4.88896e-05
4.91041e-05
4.93025e-05
4.90167e-05
4.79456e-05
4.59491e-05
4.24694e-05
3.86043e-05
3.706e-05
3.80183e-05
4.33294e-05
5.72224e-05
7.78517e-05
8.66916e-05
8.62024e-05
8.12142e-05
7.15621e-05
6.65088e-05
6.31561e-05
5.75955e-05
5.15378e-05
4.55008e-05
4.0534e-05
3.81092e-05
3.67085e-05
3.60652e-05
3.53704e-05
3.42024e-05
3.25749e-05
3.19938e-05
3.20029e-05
3.21472e-05
3.25866e-05
3.35015e-05
3.47899e-05
3.63658e-05
3.81352e-05
3.98876e-05
4.12917e-05
4.2483e-05
4.36254e-05
4.45941e-05
4.52559e-05
4.55925e-05
4.57981e-05
4.59701e-05
4.62584e-05
4.67448e-05
4.7093e-05
4.72643e-05
4.73385e-05
4.72184e-05
4.67633e-05
4.6513e-05
4.63923e-05
4.59268e-05
4.57343e-05
4.52093e-05
4.48443e-05
4.42889e-05
4.36186e-05
4.29571e-05
4.20434e-05
4.14999e-05
4.08644e-05
4.04151e-05
3.94466e-05
3.75966e-05
3.5956e-05
3.46616e-05
3.42968e-05
3.43379e-05
3.50108e-05
3.57252e-05
3.61881e-05
3.64204e-05
3.63167e-05
3.63435e-05
3.62132e-05
3.59476e-05
3.53259e-05
3.45923e-05
3.43159e-05
3.42915e-05
3.44945e-05
3.49432e-05
3.53145e-05
3.52276e-05
3.59551e-05
3.74646e-05
3.95236e-05
4.09348e-05
4.18523e-05
4.21143e-05
4.25842e-05
4.30097e-05
4.35943e-05
4.46651e-05
4.83299e-05
4.87412e-05
4.87423e-05
4.86635e-05
4.98963e-05
5.0225e-05
5.16931e-05
5.7605e-05
7.3583e-05
8.962e-05
0.000119053
0.000140756
0.000143363
0.000131002
0.000114839
0.000106666
9.95338e-05
9.77541e-05
9.38086e-05
8.93098e-05
8.75947e-05
8.73573e-05
8.93957e-05
9.44622e-05
9.43656e-05
9.61959e-05
9.74364e-05
9.74591e-05
9.73604e-05
9.65127e-05
9.94698e-05
9.96978e-05
0.000105659
0.000107796
0.000112718
0.000118586
0.000118307
0.000139931
0.00013114
0.000145539
0.000158237
0.000150352
0.000153903
0.000163792
0.000159285
0.000158452
0.000181077
0.000218054
0.000231736
0.000222932
0.000217919
0.000251432
0.000263438
0.000248141
0.000298757
0.000337457
0.000355236
0.000326112
0.000290548
0.000318012
0.000374753
0.000356195
0.000358096
0.000330373
0.000289738
0.000265559
0.000237493
0.000231619
0.000241452
0.000242518
0.0003988
0.00014597
5.55502e-05
3.36801e-05
3.43156e-05
3.92157e-05
4.29559e-05
4.49731e-05
4.61607e-05
4.72696e-05
4.83342e-05
4.94413e-05
5.0218e-05
5.07433e-05
5.10839e-05
5.12099e-05
5.10317e-05
5.01007e-05
4.7949e-05
4.73443e-05
4.88931e-05
5.4026e-05
6.31681e-05
7.23374e-05
7.74649e-05
7.77055e-05
7.33895e-05
6.42126e-05
5.94896e-05
5.69435e-05
5.29221e-05
4.8146e-05
4.35638e-05
3.92538e-05
3.6969e-05
3.59581e-05
3.54627e-05
3.51395e-05
3.44939e-05
3.31685e-05
3.18328e-05
3.16581e-05
3.17632e-05
3.20027e-05
3.25525e-05
3.36336e-05
3.52355e-05
3.7118e-05
3.8903e-05
4.01888e-05
4.12649e-05
4.23157e-05
4.28047e-05
4.3028e-05
4.27922e-05
4.21436e-05
4.109e-05
4.05047e-05
4.04446e-05
4.05882e-05
4.12456e-05
4.19309e-05
4.24419e-05
4.32184e-05
4.36292e-05
4.40883e-05
4.4505e-05
4.4633e-05
4.45994e-05
4.46774e-05
4.47606e-05
4.51162e-05
4.54825e-05
4.59559e-05
4.5382e-05
4.45906e-05
4.26597e-05
4.15492e-05
4.02353e-05
3.84705e-05
3.67742e-05
3.4819e-05
3.33204e-05
3.26527e-05
3.26881e-05
3.33328e-05
3.44953e-05
3.5619e-05
3.57666e-05
3.59769e-05
3.59976e-05
3.57895e-05
3.53013e-05
3.47003e-05
3.40229e-05
3.36122e-05
3.3723e-05
3.39406e-05
3.45513e-05
3.44347e-05
3.47205e-05
3.56888e-05
3.68056e-05
3.80988e-05
3.92281e-05
3.95772e-05
3.99831e-05
4.04881e-05
4.11849e-05
4.21035e-05
4.48436e-05