/*--------------------------------*- C++ -*----------------------------------*\
| =========                 |                                                 |
| \\      /  F ield         | OpenFOAM: The Open Source CFD Toolbox           |
|  \\    /   O peration     | Version:  dev                                   |
|   \\  /    A nd           | Web:      http://www.openfoam.org               |
|    \\/     M anipulation  |                                                 |
\*---------------------------------------------------------------------------*/
FoamFile
{
    version     2.0;
    format      ascii;
    class       volScalarField;
    object      p;
    location    "9.163";
}
// * * * * * * * * * * * * * * * * * * * * * * * * * * * * * * * * * * * * * //

dimensions      [1 -1 -2 0 0 0 0];

internalField   nonuniform List<scalar> 
12225
(
89382.2
89420.5
89534.6
89715
89942.1
90211.2
90507.8
90831
91166.5
91517
91867.6
92229
92575.9
92939.5
93279.8
93619.3
94005.8
94254
89388.3
89428.6
89543
89723.3
89950
90218.9
90515.3
90838.2
91173.5
91523.8
91874.1
92234
92582.2
92943.1
93283.3
93635.3
93990.5
94380.7
89405.7
89448.7
89563.7
89743.3
89969.2
90237.6
90533.4
90855.9
91190.7
91540
91890.2
92247.9
92597.7
92951.8
93298
93648.7
94013.7
94431.1
89440.4
89484.3
89599.9
89778.4
90003.4
90270.8
90566
90887.2
91221.6
91569
91919
92273.8
92623.7
92974
93318.1
93669.4
94013.5
94366.4
89494
89539.9
89655.6
89832.6
90056.8
90322.7
90616.8
90936.2
91269.6
91614.6
91964
92315.1
92664.8
93009.6
93355.3
93695.2
94018.7
94372.8
89574.5
89621.5
89735.6
89911.2
90134
90398.2
90690.4
91007.5
91339.2
91681.4
92029.2
92376.9
92724.8
93064.9
93410.3
93733.9
94071.6
94399.1
89691.4
89734.6
89846.5
90020.7
90241.5
90503.3
90793.2
91107.2
91436.5
91775.4
92120.4
92464.9
92809.3
93145.4
93486.3
93805.6
94143
94448.3
89821.9
89863.6
89974
90146.5
90365.3
90624.3
90911.9
91222.3
91548.9
91884.4
92226
92566.9
92907.2
93239.4
93573.7
93889.1
94209.2
94501.1
89963.8
90003.4
90112.5
90283.3
90500
90756.1
91041.1
91348.1
91671.6
92003.3
92341.2
92678.2
93013.7
93341.7
93668.2
93976.8
94281.9
94564.3
90148.5
90189.1
90297.5
90466.1
90680.3
90932.5
91213.9
91516.6
91835.7
92162.6
92495.3
92827
93156
93478
93794.2
94094.5
94383.8
94655.8
90397.9
90437.3
90544.9
90710.6
90921.4
91168.5
91445.1
91741.9
92054.9
92375.6
92701.3
93025.7
93346.2
93659.8
93964.2
94254.2
94529.8
94790.6
90731.1
90768.6
90875.4
91036.9
91243
91483.5
91753.3
92042.4
92347.3
92659.5
92976
93290.8
93600.9
93903.4
94195
94473.3
94735.4
94982.2
91175.5
91210.3
91314.9
91471
91670.6
91902.7
92163.1
92442.3
92736.4
93037.3
93341.8
93644.4
93941.9
94230.7
94507.8
94772.3
95020.8
95253.1
91766.2
91797.4
91897.5
92046.5
92236.9
92458.3
92706.2
92972.4
93252.1
93538.7
93828
94115
94396.5
94668.8
94929.5
95177.3
95409.8
95626.8
92546
92572.5
92664.7
92804.1
92982.2
93189.6
93421.5
93670.6
93932.1
94200.1
94469.9
94737.2
94998.6
95251.1
95492.3
95720.4
95934.1
96133
93558.6
93581.4
93664.7
93791.8
93953.9
94143.1
94354.3
94581.4
94819.5
95063.3
95308.4
95550.9
95787.5
96015.4
96232.6
96437.3
96628.7
96806
94860.3
94877.6
94948.4
95058.8
95200.1
95365.8
95550.7
95749.7
95957.9
96171.1
96385.1
96596.5
96802.2
96999.7
97187.2
97363.5
97527.4
97678.3
96366.8
96379.8
96436.4
96526.8
96643.8
96781.9
96936.4
97102.7
97276.7
97454.5
97632.7
97808.2
97978.4
98141.2
98294.9
98438.5
98571.1
98692.2
97830.9
97838.8
97881.2
97951.8
98045
98156.1
98280.8
98415.2
98555.6
98698.9
98842
98982.4
99118
99246.9
99367.8
99479.8
99581.9
99673.6
99102.7
99102.1
99132.9
99187.4
99260.7
99348.6
99447.3
99553.7
99664.6
99777.6
99890
99999.6
100105
100204
100296
100380
100455
100522
100149
100151
100176
100219
100276
100344
100421
100504
100590
100677
100764
100847
100927
101001
101069
101130
101182
101227
100991
100997
101019
101052
101096
101149
101208
101271
101337
101404
101469
101531
101590
101644
101692
101733
101767
101794
101649
101661
101680
101705
101739
101779
101824
101872
101922
101972
102020
102066
102109
102146
102178
102205
102225
102238
102159
102168
102183
102203
102228
102259
102293
102330
102367
102404
102440
102473
102503
102528
102548
102563
102572
102574
102539
102545
102555
102570
102589
102612
102639
102666
102695
102723
102749
102773
102793
102809
102821
102827
102827
102822
102810
102814
102820
102830
102845
102864
102884
102906
102928
102949
102969
102986
103000
103009
103014
103014
103009
102998
103001
102997
103000
103007
103019
103034
103051
103069
103087
103103
103118
103131
103140
103145
103146
103141
103132
103117
103122
103113
103113
103119
103129
103142
103157
103172
103187
103201
103213
103222
103229
103231
103229
103222
103210
103192
103188
103178
103176
103181
103190
103203
103216
103230
103244
103256
103266
103274
103279
103280
103276
103267
103254
103235
103217
103206
103203
103207
103216
103228
103241
103255
103267
103279
103288
103296
103300
103300
103296
103286
103272
103252
111973
111970
111962
111950
111934
111913
111887
111855
111817
111772
111721
111663
111598
111527
111449
111364
111272
111172
111064
110948
110823
110689
110544
110390
110226
110051
109867
109673
109468
109255
109032
108800
108559
108311
108054
107791
107523
107245
106959
106666
106368
106071
105771
105465
105155
104839
104515
104184
103847
103507
103162
102816
102468
102119
101768
101418
101067
100717
100369
100021
99675.7
99332.8
98992.5
98655.7
98323.1
97995.2
97672.3
97355.3
97045.4
96742.9
96448.5
96162.7
95886.7
95621.2
95367.2
95125.5
94896.8
94682.2
94482.3
94297.9
94129.7
93978
93843.2
93725.6
93625.5
93542.9
93477.8
93429.9
93398.8
93384.1
93384.8
93400
93428.3
93468.4
93518.5
93576.5
93640.6
93708.6
93778.3
93847.3
93913.2
93974.3
94028.6
94074
94109.6
94134.2
94146.9
94147.9
94137.4
94116.3
94085.7
94046.4
93998.7
93942.9
93880.5
93812.8
93740.8
93665.2
93587.9
93512.1
93437.4
93366.5
93297.8
93227.9
93149.6
93058.3
92953
92836
92707.5
92568
92420
92266.1
92106.3
91940.9
91773.3
91606.2
91440.3
91275.6
91112.3
90950.4
90786.5
90620.4
90447.2
90262.3
90060.7
89837.7
89587.2
89304.2
88984.5
88629.7
88237.8
87811.6
87354.9
86872.4
86374.7
85869.7
85370.1
84896.4
84444.4
84011.4
83604.7
83237.7
82918.2
82644.1
82407.6
82226.4
82114
82066
82079
82144.8
82247.5
82394.9
82604.9
82913.9
83292.8
83767.9
84167
84573.3
84965.8
85331.8
111790
111786
111779
111767
111752
111731
111706
111675
111637
111594
111544
111487
111425
111355
111280
111197
111107
111010
110905
110791
110669
110538
110398
110247
110087
109916
109735
109544
109343
109132
108911
108681
108444
108197
107942
107679
107411
107142
106866
106587
106306
106011
105704
105394
105083
104769
104448
104121
103789
103453
103113
102771
102428
102083
101737
101390
101044
100698
100353
100010
99668.4
99329.4
98993
98659.9
98330.9
98006.4
97687.1
97373.7
97066.9
96767.4
96475.8
96193
95919.6
95656.6
95405
95165.6
94939
94726.4
94528.4
94345.6
94179.1
94028.8
93895.3
93778.9
93679.8
93598
93533.6
93486.2
93455.7
93441.3
93442.4
93457.9
93486.6
93527.1
93577.5
93635.9
93700.3
93768.8
93839.2
93908.9
93975.8
94037.9
94093.5
94140.4
94177.8
94204.2
94218.6
94221.8
94213.6
94194.9
94167.1
94130.9
94085.9
94032.1
93971.4
93905.7
93835.5
93760.1
93681.6
93603
93526.8
93456
93387.5
93315.2
93235
93141.3
93034.1
92915.2
92784.3
92642.4
92491.9
92334.4
92171
92003.5
91834.2
91664.5
91496.6
91330.3
91164.9
91001.6
90835.6
90667.7
90492.7
90306.2
90104.1
89880.7
89630
89346.8
89027.1
88673.2
88282.5
87858.9
87405.5
86925.9
86432.2
85928.2
85428.7
84961
84517.2
84088.2
83681.4
83315.3
82997.9
82725.9
82486.4
82305
82191.3
82142.1
82157.3
82215.4
82316
82464
82675.1
82990.3
83378.5
83852
84247
84647.5
85033.3
85393.8
111431
111428
111422
111411
111397
111377
111352
111321
111284
111242
111194
111140
111080
111015
110943
110865
110780
110688
110589
110482
110366
110241
110106
109962
109808
109644
109470
109285
109090
108884
108667
108440
108207
107969
107724
107476
107225
106962
106690
106415
106137
105850
105555
105253
104946
104636
104321
104001
103677
103349
103018
102685
102350
102013
101676
101337
100999
100661
100324
99988.9
99655.1
99323.5
98994.7
98669.2
98347.4
98029.9
97717.4
97410.5
97110.1
96816.6
96530.8
96253.6
95985.6
95727.5
95480.6
95245.6
95023.2
94814.4
94620
94440.4
94277
94129.7
93998.7
93884.7
93787.6
93707.8
93644.9
93598.8
93569.3
93555.8
93557.6
93573.7
93602.9
93644
93695.1
93754.3
93819.5
93889
93961
94032.6
94101.6
94165.9
94223.9
94273.9
94315.4
94345.5
94362.9
94371
94367.9
94354
94331.5
94300.8
94261
94210.9
94153.3
94090.4
94023.1
93949.4
93870
93788.4
93710.9
93639.5
93568
93490.7
93405.6
93307.7
93196.8
93074
92937.9
92790.8
92635.6
92472.1
92301.5
92128.6
91955.5
91780.7
91607.8
91437.6
91268
91101.7
90933
90762
90584.6
90396.1
90192.3
89967.5
89716.8
89433.9
89114.9
88762.9
88374.7
87955.8
87508.9
87035.6
86551
86051.6
85552.3
85091.8
84664.7
84246.9
83842.6
83480.9
83171.2
82901.4
82658
82476.3
82358.5
82300.6
82307.1
82364.2
82463.3
82612.9
82822.5
83151.3
83569.8
84016.7
84417.3
84811.9
85185.2
85535.8
110913
110911
110905
110895
110880
110860
110834
110803
110767
110727
110682
110633
110578
110517
110451
110378
110300
110216
110125
110027
109920
109804
109679
109544
109399
109245
109080
108904
108717
108518
108307
108092
107876
107653
107422
107183
106940
106689
106431
106165
105893
105614
105330
105040
104744
104444
104139
103830
103517
103201
102882
102560
102237
101912
101586
101260
100933
100607
100281
99957.4
99635
99314.6
98996.7
98681.9
98370.7
98063.6
97761.1
97464
97172.9
96888.4
96611.2
96342.3
96082.3
95831.6
95591.7
95363.5
95147
94943.7
94754.8
94580.1
94421
94277.9
94150.8
94040.3
93946.3
93869.1
93808.7
93764.7
93737.1
93725.1
93728.2
93745.4
93775.5
93817.4
93869.4
93929.7
93996.3
94067.4
94141.4
94215.7
94287.7
94354.3
94416.3
94471
94517.4
94553.1
94577.4
94591.2
94594.3
94586.9
94570.6
94546
94511.8
94468.2
94416.5
94358.3
94295
94224
94145.3
94062.4
93983.4
93910.2
93834.4
93751
93659.3
93555.7
93439.2
93309.8
93166.6
93012.4
92849.5
92677.7
92497
92315.6
92137.3
91955.6
91775.4
91599
91422.2
91250.5
91078.4
90902.8
90721.9
90530.4
90323.9
90096.8
89846.4
89564.6
89247.2
88898.1
88514.2
88101.2
87663.5
87199.8
86729
86240.4
85741.7
85286
84877.4
84482.7
84084
83730.7
83436.4
83172.8
82924.9
82739.4
82615.1
82546.1
82539.7
82597.8
82698.4
82845.3
83055.3
83401
83859.6
84278.4
84681.8
85071.7
85428.9
85767
110249
110249
110244
110233
110218
110197
110172
110144
110113
110077
110037
109993
109943
109888
109828
109762
109691
109614
109532
109443
109347
109242
109128
109006
108874
108732
108580
108413
108234
108045
107853
107658
107457
107249
107033
106808
106575
106336
106090
105838
105579
105313
105041
104764
104482
104195
103904
103609
103310
103009
102704
102398
102090
101780
101469
101157
100846
100534
100224
99914.4
99606.4
99300.4
98996.8
98696.2
98398.8
98105.2
97815.8
97531.3
97252.5
96979.9
96714.1
96456
96206.4
95965.7
95735
95515.6
95307.3
95111.3
94929.3
94761.2
94607.9
94470.4
94348.3
94242.3
94152.5
94078.8
94021.6
93980.5
93955.4
93945.8
93951
93970.1
94001.7
94044.9
94098.2
94160
94228.8
94302.4
94378.7
94456.2
94530.1
94601.5
94667.7
94727.6
94779.5
94821.9
94854.3
94876.2
94887.1
94887.6
94878.4
94859.9
94831.7
94795.2
94751.4
94700.5
94642.8
94576.4
94500.8
94419.2
94339.5
94263.5
94182.3
94092.1
93993.6
93882.5
93759.3
93622.3
93470.8
93307.2
93132.3
92950.1
92759.6
92566.5
92380.9
92192.9
92004.1
91818.6
91632.8
91452.3
91273.6
91091.7
90905.7
90710.2
90500.5
90270.9
90018.8
89737.3
89423.1
89077.6
88701.2
88295.5
87867.4
87415.7
86960.8
86490.3
85999.1
85533.8
85139.8
84779.8
84398.6
84054.5
83777.6
83531.6
83282.7
83090.2
82960.4
82883.3
82862.8
82920.4
83026.7
83174.3
83391.8
83753.6
84242
84652.6
85047.2
85425.6
85766.9
86089.9
109461
109461
109456
109447
109433
109415
109396
109374
109348
109318
109284
109245
109201
109153
109099
109041
108977
108907
108833
108754
108669
108577
108477
108365
108245
108114
107972
107818
107655
107488
107320
107145
106959
106765
106563
106354
106136
105912
105681
105443
105199
104948
104692
104431
104164
103893
103619
103340
103059
102774
102487
102198
101907
101615
101323
101029
100735
100442
100149
99857.7
99567.5
99279.3
98993.2
98709.5
98428.8
98151.8
97878.5
97609.3
97345.6
97087.7
96836
96591.4
96354.7
96126.7
95907.4
95698.6
95500.6
95313.9
95140.5
94980.4
94834.3
94703.5
94587.7
94487.2
94402.5
94333.3
94279.9
94242.3
94220.1
94213.4
94221.2
94242.7
94276.8
94322.3
94377.7
94441.6
94513
94589.7
94668.4
94749
94828.1
94904.1
94975.2
95040.2
95098
95147.7
95189.2
95221.1
95242.2
95252.6
95252.2
95243
95224.9
95198
95161.4
95117.8
95066
95005.9
94934.9
94856.1
94776.4
94697
94609.2
94511.1
94404.1
94285.1
94154.5
94008
93846.5
93671.2
93483.2
93288.9
93087.3
92880.5
92683.6
92486.9
92289.9
92095.3
91900.6
91710.2
91520.7
91330.1
91136.9
90936.2
90722.6
90490.1
90236.3
89954.5
89643.2
89301.9
88934.9
88539.4
88120.9
87682.3
87244.5
86798.4
86324.4
85843.6
85459.1
85133.9
84784.4
84446.8
84188.3
83966
83724.5
83526.3
83392.5
83310.6
83287
83342.8
83455.2
83611
83848.3
84229.2
84731.3
85141.1
85516
85872.2
86196.7
86501.1
108571
108572
108569
108561
108551
108540
108527
108510
108489
108464
108435
108403
108366
108324
108278
108228
108173
108113
108048
107977
107902
107820
107728
107631
107524
107408
107280
107143
107004
106863
106714
106554
106386
106209
106024
105831
105631
105424
105210
104989
104761
104528
104289
104045
103797
103545
103289
103029
102766
102501
102234
101964
101694
101422
101149
100876
100603
100330
100058
99786.7
99516.8
99248.6
98982.5
98718.6
98457.3
98199.1
97944.4
97693.5
97447.3
97206.5
96971.4
96742.8
96521.5
96308.3
96103.2
95907.4
95721.8
95546.7
95383.6
95233
95095.8
94972.9
94864.4
94770.5
94691.9
94628.2
94579.6
94546.2
94527.7
94524.3
94534.9
94558.8
94595.6
94644.6
94703.2
94769.6
94844.1
94924
95006.3
95091.3
95175.9
95258.2
95335.8
95407.5
95472.7
95530.8
95581.7
95624.1
95656.4
95678.5
95689.8
95692.7
95687.8
95673.1
95645.5
95609.9
95565.5
95513.2
95447.6
95371.3
95290.7
95207.9
95112.7
95005.8
94888.8
94761
94621.1
94463.7
94290.9
94102.8
93901.5
93693.4
93479
93257.7
93045.4
92834.7
92627
92424.3
92221.4
92022.5
91821.2
91619.7
91417.3
91209.8
90991.9
90756.7
90499.2
90217.2
89908.8
89573.7
89215.9
88833.3
88427.2
88002.7
87580.6
87161.8
86715.6
86231
85843.6
85550.7
85235.2
84905.7
84662
84468.8
84245.3
84047.4
83909.5
83828.3
83812
83862.9
83978.9
84158.9
84425.8
84848
85335.3
85732
86083.4
86411.6
86716.7
87002.2
107606
107607
107605
107601
107595
107588
107579
107565
107548
107528
107505
107479
107449
107416
107380
107340
107296
107248
107194
107134
107069
106996
106918
106835
106744
106642
106530
106414
106299
106176
106043
105902
105752
105593
105427
105253
105071
104882
104686
104483
104274
104060
103841
103616
103388
103155
102919
102679
102437
102193
101947
101699
101450
101200
100950
100699
100449
100198
99948.6
99699.9
99452.4
99206.4
98962.3
98720.4
98480.7
98243.5
98009.3
97778.9
97552.6
97330.7
97114.2
96903.6
96699.8
96503.4
96314.7
96134.6
95963.8
95802.5
95652.2
95513.1
95386.3
95272.7
95172.9
95086.8
95014.7
94957.4
94914.6
94886.3
94872.4
94873.1
94887.7
94914.9
94954.4
95006.3
95068.7
95138.6
95216.8
95300.9
95388.3
95478.5
95569.7
95659.6
95745.6
95826.1
95900.5
95968.6
96029.8
96082.8
96126.9
96161.9
96187.2
96203.6
96212.3
96210.8
96195.2
96169.2
96134.2
96091.7
96034
95961.3
95879.2
95791.6
95689.8
95574.3
95448
95309.6
95157.5
94987.7
94803.1
94603.1
94388.3
94164.6
93935.7
93699.4
93469.3
93242.7
93019.8
92805.7
92594.4
92387
92175.2
91961
91748
91531.8
91309.7
91072.2
90812.1
90529.1
90221.3
89894.2
89545.7
89177
88787.7
88379.4
87970.7
87579.7
87166.5
86707.1
86326.5
86034.2
85746.1
85433.8
85201.8
85042.6
84840.2
84647.2
84508.3
84432.8
84425.1
84479.9
84595
84822.2
85145.6
85594.6
86056.6
86425.8
86746.1
87044.8
87327.8
87592
106588
106591
106591
106589
106586
106581
106574
106564
106552
106537
106520
106501
106478
106454
106427
106398
106365
106328
106288
106242
106193
106133
106067
105995
105915
105826
105736
105644
105548
105441
105326
105203
105071
104931
104784
104629
104466
104296
104119
103936
103746
103552
103353
103149
102940
102728
102512
102294
102073
101851
101628
101403
101177
100951
100724
100498
100271
100045
99819.4
99594.9
99371.6
99149.9
98929.7
98711.4
98495.2
98281.3
98069.9
97861.8
97656.9
97456.1
97259.9
97068.8
96884
96706
96535.1
96372.2
96218.4
96073
95937.6
95812.3
95698.1
95595.7
95505.9
95429.3
95365.5
95315.3
95279.1
95256.9
95248.4
95253.5
95272.5
95304.3
95347.8
95403
95469.1
95543.6
95626.7
95715.5
95808.4
95905
96003.7
96102.1
96198.4
96290.1
96375.5
96454.8
96527.4
96591.9
96648.5
96697.7
96738.8
96770
96793.3
96805.9
96803.9
96789.7
96766.2
96735
96688.2
96621.3
96538.1
96444.7
96337.1
96213.9
96077.5
95928.4
95762.6
95579.3
95380.7
95167.7
94939.6
94698.1
94453.5
94204.1
93956.3
93714.1
93473.5
93245.1
93022.7
92806.1
92583
92355.5
92130.1
91903.3
91674.3
91433.9
91174.1
90889.5
90585.4
90265.9
89928.1
89573.5
89202.7
88814
88418.2
88054.6
87678.5
87259.9
86896.7
86590
86319.2
86028.9
85812.3
85680.5
85506.9
85319.3
85184.6
85123
85131.5
85198.4
85340.2
85646.6
86017
86460.4
86883.7
87217.9
87506.2
87772.3
88032.8
88270.3
105542
105547
105549
105550
105549
105548
105545
105540
105533
105524
105513
105500
105484
105466
105446
105424
105400
105374
105345
105311
105269
105225
105174
105115
105050
104984
104918
104846
104766
104677
104579
104474
104360
104239
104110
103974
103830
103679
103521
103357
103187
103013
102833
102649
102461
102269
102075
101878
101679
101480
101280
101079
100877
100675
100473
100272
100070
99868.8
99668.5
99469.3
99271.6
99075.4
98880.7
98687.6
98496.5
98307.5
98120.8
97936.8
97755.7
97577.9
97404
97234.4
97070.2
96911.9
96760
96615.3
96478.8
96350.7
96231.4
96121.6
96021.7
95932.8
95854.8
95788.8
95735.4
95694.4
95666
95650.9
95649.1
95659.9
95683.6
95720.3
95768.8
95828.3
95898.8
95978.4
96067.2
96161.8
96261.5
96365.3
96472.4
96580.1
96687.1
96791.2
96890.3
96982.4
97067.6
97145.9
97216.9
97281.5
97339.3
97386.3
97424.7
97453.1
97467.1
97466.6
97455
97435
97401
97343.2
97260.8
97162.5
97050.3
96920.6
96774.5
96613.8
96433.7
96235.8
96020.4
95789.4
95548.4
95288.8
95028.1
94766.3
94502.2
94245.5
93988
93745.2
93510.1
93281.7
93045.8
92803.5
92564
92327.2
92088.9
91841.9
91585.3
91295.9
90996.5
90693.2
90368.2
90024
89674.3
89306.5
88926.5
88589
88246.2
87877.8
87543.5
87215.5
86939.5
86676.7
86487.9
86380.6
86237.9
86062.1
85935.1
85890.8
85935.9
85985.5
86254.5
86633.2
87013.1
87433.5
87815.6
88106
88363.7
88598.5
88835.7
89042.7
104491
104496
104501
104505
104509
104511
104512
104512
104510
104506
104501
104494
104485
104473
104460
104445
104430
104412
104392
104368
104339
104306
104269
104228
104185
104141
104092
104035
103970
103897
103817
103728
103632
103529
103417
103299
103173
103040
102901
102756
102605
102450
102290
102125
101957
101786
101613
101438
101262
101085
100908
100730
100553
100376
100199
100022
99845.9
99670.2
99495.4
99322
99150.4
98980.5
98812.4
98645.8
98480.8
98317.7
98156.9
97998.6
97842.8
97689.7
97539.8
97393.6
97252.2
97115.7
96984.6
96859.7
96741.5
96630.9
96528.4
96435.3
96350.8
96276.3
96212.4
96158.6
96116.1
96085.8
96067.2
96060.3
96066.2
96084.3
96114.4
96157.1
96211
96275
96351.5
96436.8
96531.6
96633.1
96740.7
96853.2
96969.1
97087.2
97205
97321.9
97435.8
97543.4
97643.3
97737.5
97825.9
97907.2
97982.1
98046.6
98100.4
98145.3
98177.5
98192.6
98194.1
98186.1
98164.6
98118.3
98040.4
97937.8
97821.9
97687.4
97532.5
97359.1
97164.7
96950.3
96717.1
96466.1
96212.9
95937.1
95661
95386.4
95103.8
94831.8
94558.6
94304.4
94057.8
93815
93565
93305.1
93049.7
92802.8
92556.3
92302.5
92050
91756.8
91458
91173.2
90867.1
90532.3
90206
89856.3
89496.8
89183.2
88868
88549.8
88249
87911.8
87615
87395.1
87239.4
87144
87028.6
86869.8
86764.2
86738.4
86812.2
86889.4
87315.9
87717.1
88079.6
88495.2
88836.5
89082.7
89314.3
89524
89727.8
89897.9
103453
103459
103466
103472
103478
103484
103490
103495
103499
103503
103504
103504
103503
103500
103495
103488
103480
103470
103459
103445
103429
103408
103388
103365
103339
103308
103271
103227
103176
103118
103052
102980
102899
102812
102717
102616
102507
102392
102271
102144
102011
101874
101732
101587
101438
101287
101134
100980
100826
100671
100517
100363
100210
100057
99904.7
99752.5
99600.9
99450.3
99300.9
99153.1
99007.4
98864
98722.8
98583.3
98445.2
98308.7
98174.3
98042.3
97912.7
97785.5
97660.8
97539.1
97421.5
97308.5
97200.1
97097
96999.1
96907.8
96823.3
96747
96679.6
96620.3
96570.8
96531.2
96501.2
96482
96474.6
96477.6
96492.2
96518.1
96555.8
96605.8
96666.6
96737.8
96820.4
96912
97013.2
97122.5
97238.8
97361.4
97486.4
97615.1
97745.6
97876
98004.7
98129.1
98246.2
98358.3
98465.9
98565.9
98659.3
98743.2
98814.2
98874.8
98926.9
98958.8
98976.3
98981
98970.7
98937.5
98868.9
98764.4
98643.7
98503.6
98341.1
98155.5
97945.5
97713.9
97465.6
97195
96933.7
96639.8
96348.9
96063
95759.9
95471.5
95186.3
94921.1
94662.5
94403.7
94139
93860.5
93588.8
93328.3
93073.2
92816.7
92563.6
92277.7
91981.3
91704.9
91418.3
91101.6
90798.8
90466.3
90133.3
89839.6
89548.8
89276.4
88999.6
88686
88402.4
88224.9
88078.4
87975.4
87878.2
87742.1
87676.9
87696.8
87743.9
87995.1
88445.8
88801.3
89206.8
89637
89929.5
90147.9
90358.7
90541.9
90699.6
90827.1
102445
102452
102459
102468
102477
102487
102497
102508
102519
102529
102539
102547
102554
102559
102564
102567
102568
102569
102568
102566
102561
102554
102545
102533
102517
102496
102469
102437
102398
102353
102301
102242
102176
102103
102024
101938
101845
101746
101641
101531
101415
101294
101169
101042
100911
100779
100647
100513
100379
100246
100114
99982.2
99851.6
99721.9
99592.7
99464
99336.4
99210.2
99085.9
98963.4
98843.1
98725.4
98610.6
98498.3
98387.4
98277.8
98169.9
98064.6
97961.8
97861.1
97762.2
97665.6
97572.4
97483.7
97399.1
97319
97243.1
97172.2
97107.9
97049.8
97000
96958.1
96923.7
96898.4
96882.3
96875.6
96879.9
96894.7
96920.7
96953.1
97000
97058.6
97127.6
97206.8
97296.5
97395.8
97504.4
97622.4
97747.8
97880.9
98016.9
98156.3
98300.4
98445.3
98589.8
98731.4
98868.5
98999.9
99127.3
99248.6
99361.3
99465.3
99557.9
99635
99706.4
99757.6
99792.2
99809.9
99809.2
99790.8
99735.4
99633.3
99508.6
99360.8
99190.7
98992
98765.6
98517.7
98256.8
97975.5
97688.5
97392.6
97086.2
96794.3
96466.7
96163.5
95869.6
95593.5
95319.2
95043.9
94762.1
94468.4
94182.4
93905.5
93639.8
93379.3
93125.9
92851.4
92566.4
92295.6
92019.7
91728.4
91449.6
91137.6
90837.8
90563.2
90294.7
90060.1
89799.4
89529.5
89320.7
89158.2
88986.1
88865
88787.7
88685.3
88663.5
88767.3
88837.8
89229
89616.6
89946.8
90437.4
90854.1
91096.2
91302.2
91495.9
91641.3
91748
91832.5
101479
101487
101497
101508
101520
101534
101549
101564
101581
101597
101614
101630
101646
101661
101675
101688
101699
101709
101718
101726
101732
101736
101735
101731
101724
101712
101696
101674
101646
101612
101572
101525
101472
101413
101346
101274
101195
101111
101021
100925
100824
100719
100610
100499
100386
100272
100157
100042
99927.5
99813.6
99701
99590
99480.4
99372.2
99265
99158.6
99053.8
98951
98850.8
98752.9
98657.3
98564.7
98475.6
98389.8
98306
98223.2
98141.9
98062.9
97987
97913.2
97840.5
97769.3
97700.7
97636.4
97576.1
97519.2
97466.4
97417.2
97373.6
97336.1
97304.9
97280.9
97263.8
97254.1
97252.5
97259.7
97276.3
97302.3
97339.1
97384.6
97440.2
97507.9
97585.6
97673.3
97771.3
97879.7
97997
98124.1
98259.7
98402.9
98551.5
98703.1
98861.1
99021.2
99182.1
99341.5
99498.4
99651
99799.2
99943.1
100077
100202
100318
100416
100503
100576
100627
100661
100672
100666
100626
100534
100407
100252
100071
99857
99616.8
99351.5
99079.2
98787.1
98487.5
98187.8
97876.4
97559.7
97226.3
96906.2
96599.4
96312.3
96024.7
95731.5
95429.5
95124
94827.4
94535.5
94263.2
93991.7
93747.1
93481.3
93206.7
92949.7
92682.8
92414
92157.2
91868.5
91606.1
91354.8
91109.8
90897.8
90657
90423.5
90284
90110.9
89915.5
89792.4
89745.7
89700.4
89725.5
89870.9
90117.1
90516.1
90859.1
91218.5
91774.6
92124.6
92341.2
92542
92720.5
92817.1
92868.3
92903.7
100566
100576
100587
100600
100616
100633
100652
100673
100695
100718
100741
100764
100788
100811
100834
100856
100876
100896
100913
100929
100943
100954
100962
100967
100968
100965
100958
100945
100927
100903
100874
100838
100796
100747
100693
100632
100566
100494
100416
100334
100247
100157
100063
99967.2
99869.9
99771.6
99672.7
99574
99476
99379.3
99284.6
99192.2
99101.8
99013.1
98926.2
98840.5
98756.8
98675.8
98598.2
98523.8
98451.8
98383
98318.4
98257.9
98200.2
98143.8
98088.4
98035.2
97985.2
97937.6
97891.1
97845.8
97802.6
97762.6
97726.5
97693.2
97663.2
97637.1
97615.1
97598.4
97587.5
97581.4
97582.3
97589.9
97603.9
97626.3
97657
97694.2
97743
97800.3
97866.8
97944.4
98032
98128.9
98236.4
98354.4
98481.9
98618.8
98765.7
98919.4
99080.6
99246.5
99419
99594.8
99772.6
99950.2
100126
100301
100472
100638
100797
100943
101081
101204
101307
101400
101471
101521
101547
101552
101527
101453
101326
101166
100973
100746
100494
100213
99928.3
99625.8
99319.8
99016.2
98697.2
98367.3
98025.1
97692.2
97373.6
97073.5
96772.7
96461
96142.6
95824.8
95520
95216.9
94943.2
94660.4
94431.7
94172.3
93899
93652.1
93403.7
93156.1
92918.8
92655.5
92429.9
92206.7
91986.7
91789.1
91573.3
91356.3
91213.3
91026.8
90846.2
90753.6
90752.8
90786.8
90878.2
91064.2
91453.5
91822.6
92210.4
92640.7
93163.5
93439.1
93658.1
93869.4
94024.9
94066.2
94056.7
94032.1
99714.4
99725
99736.9
99752.6
99772
99793.8
99817.4
99842.9
99870.2
99899.1
99929
99959.5
99989.8
100020
100050
100080
100108
100135
100160
100184
100205
100223
100238
100250
100259
100264
100264
100259
100249
100234
100214
100187
100154
100116
100071
100021
99965
99903.9
99837.9
99767.3
99692.8
99614.9
99534.3
99451.6
99367.6
99282.7
99197.8
99113.6
99030.4
98949.1
98870.4
98794.4
98720.9
98649.5
98580.7
98514.1
98449
98388
98331.3
98278.2
98228.2
98181.9
98140.6
98104.1
98070.9
98039.3
98009
97981
97955.9
97933.1
97911.6
97891.1
97872.5
97858.3
97846
97836.9
97829.4
97825.5
97826.9
97830.5
97840.4
97854
97872.1
97897.9
97928.1
97965.2
98010.6
98062.9
98123.7
98193
98271.2
98359.5
98457.5
98564.9
98682.7
98811.2
98949.7
99097.4
99255.8
99421.4
99595.1
99775.9
99963.3
100156
100350
100548
100742
100939
101135
101324
101508
101676
101833
101981
102106
102215
102310
102379
102422
102438
102427
102370
102252
102091
101891
101657
101393
101100
100799
100486
100177
99865.1
99539.3
99201.7
98850
98508.6
98184.2
97870.6
97554.7
97220.6
96896
96569.3
96262.7
95946
95668
95385.4
95150.9
94903.6
94637.6
94399.9
94170.5
93948.6
93730.5
93495.9
93304.3
93109.7
92912.4
92734.5
92541.8
92333.8
92166.4
91976.2
91819.2
91766.9
91820.2
91944.7
92126.9
92387
92822.9
93198
93667.9
94163
94566.1
94815.3
95063.2
95279.9
95398.3
95392.2
95320.4
95232.2
98928.7
98938.9
98953
98971.3
98993.3
99019.5
99048.7
99080.3
99113.6
99149.2
99185.5
99222.3
99259.1
99295.9
99332.5
99368.6
99403.5
99437
99468.6
99498.2
99525.4
99550
99571.9
99589.6
99604.2
99615
99621.7
99623.9
99621.1
99613.1
99599.7
99580.6
99555.8
99525.2
99488.9
99447.2
99400.2
99348.2
99291.6
99230.9
99166.4
99098.9
99028.9
98957.1
98884.2
98810.8
98737.8
98666
98596
98528.1
98463.1
98401
98341.5
98284.8
98231.7
98183.2
98133
98091
98053.5
98019.5
97989.2
97963.6
97943.9
97929.8
97919.3
97910.8
97903.8
97900.4
97899.1
97900.7
97901.9
97905.2
97911.2
97920.3
97931.5
97945.5
97961.2
97979.8
98002.1
98027.4
98057.1
98090.5
98128.2
98170.9
98218.2
98271.4
98331.2
98397.9
98472
98554.1
98644.7
98744.6
98853.7
98972.6
99101.8
99241.5
99391.6
99550.4
99720.6
99899.1
100085
100281
100484
100694
100906
101122
101338
101557
101777
101988
102193
102388
102565
102735
102887
103014
103131
103219
103280
103311
103310
103268
103166
103013
102811
102575
102305
102004
101687
101362
101049
100725
100394
100053
99693.2
99347.6
99020.6
98692.9
98358.5
98020.1
97682.1
97352.1
97044.9
96731.6
96444.7
96155.5
95906.9
95659.4
95406.1
95194.5
94983.9
94790.7
94591.7
94388.9
94225.8
94056
93880.7
93727.3
93552.7
93365.6
93227.7
93042
92889.2
92864.4
92964.7
93183.7
93481.1
93830.8
94238.6
94681.8
95167.9
95681.8
96004
96287.4
96566.2
96759.6
96835
96796.6
96666.5
96497.8
98205.2
98217
98234
98254.7
98280.2
98312.2
98348.1
98388.2
98428.8
98471.2
98514.5
98558.3
98602.1
98645.3
98687.7
98729.4
98769.8
98808.6
98845.7
98880.6
98913.1
98942.7
98969.2
98992
99011.2
99026.6
99038
99045.1
99047.5
99045
99037.3
99024.2
99005.6
98981.4
98951.8
98916.8
98876.7
98831.8
98782.6
98729.3
98672.7
98613.3
98551.7
98488.7
98424.8
98360.9
98297.9
98236.3
98176.8
98119.8
98065.8
98015.4
97968
97923.7
97883.6
97848.5
97817
97790.1
97768.5
97751.4
97738.6
97731.6
97731.5
97737.6
97747.7
97760.7
97775.7
97793.8
97814.3
97837.6
97862.2
97888.7
97917.4
97948.8
97982
98017.6
98055.3
98095.7
98139
98184.8
98234.5
98287
98343.3
98403.7
98467.5
98536.6
98612
98692.8
98780.6
98876.2
98979.5
99091.5
99212.5
99343.4
99484.7
99635.8
99797.2
99967.9
100151
100342
100540
100752
100970
101198
101428
101661
101900
102140
102383
102620
102844
103067
103268
103458
103634
103785
103920
104029
104107
104155
104165
104135
104051
103913
103715
103485
103214
102911
102587
102250
101927
101589
101255
100911
100549
100203
99872.9
99530.4
99180.3
98840.8
98498.8
98169
97857.9
97561.8
97278.6
96987.4
96711.7
96447.2
96209
96015.8
95837.2
95675.6
95496.3
95327.4
95187.9
95039.7
94891.4
94763.3
94613.1
94476.7
94412.2
94236.5
94079.8
94070.8
94208.7
94535.8
94943.2
95349.4
95740.6
96209.3
96681.2
97171.7
97523
97856.6
98128
98299.8
98344.8
98267.1
98068.8
97805.3
97636.4
97649.2
97667.9
97693.4
97731.3
97775.2
97821.8
97870.6
97918.6
97967
98015.9
98065
98114.1
98162.3
98209.3
98255
98299.2
98341.4
98381.6
98419.5
98454.9
98487.5
98516.8
98542.8
98565.2
98583.7
98597.9
98607.5
98612.4
98612.4
98607.4
98597.2
98581.8
98561
98535
98503.7
98467.5
98426.8
98381.9
98333.2
98281.4
98227
98170.7
98113.1
98055
97997.1
97940.3
97885.2
97832.2
97782.1
97735.5
97693.1
97654.2
97618.5
97588
97563.7
97544
97528.7
97518.3
97513.1
97513.5
97521.2
97536.4
97557.5
97583
97612.2
97644.5
97679.9
97717.8
97758.4
97801.2
97846.2
97893.2
97942.7
97994.5
98048.4
98104.2
98162.3