/*--------------------------------*- C++ -*----------------------------------*\
| =========                 |                                                 |
| \\      /  F ield         | OpenFOAM: The Open Source CFD Toolbox           |
|  \\    /   O peration     | Version:  dev                                   |
|   \\  /    A nd           | Web:      http://www.openfoam.org               |
|    \\/     M anipulation  |                                                 |
\*---------------------------------------------------------------------------*/
FoamFile
{
    version     2.0;
    format      ascii;
    class       volScalarField;
    object      p_0;
    location    "9.163";
}
// * * * * * * * * * * * * * * * * * * * * * * * * * * * * * * * * * * * * * //

dimensions      [1 -1 -2 0 0 0 0];

internalField   nonuniform List<scalar> 
12225
(
91723
91710.4
91754.1
91847.1
91974.5
92134.9
92317.8
92524.5
92743.9
92979
93217.7
93468.1
93709.7
93966.8
94202.1
94434
94692.8
94766.8
91724.9
91716.4
91760.8
91853.7
91980.9
92141
92323.8
92530.3
92749.5
92984.4
93223
93472.7
93715
93970
94205.3
94451.4
94692
94956.1
91738.6
91732.5
91778
91870.4
91997
92156.6
92339
92544.9
92764.1
92998
93236.8
93484.5
93728.9
93977.7
94221
94466.4
94744
95046.6
91766.5
91761.7
91808.6
91900
92026
92184.7
92366.7
92571.6
92790.6
93023
93261.9
93507.4
93752.4
93998.8
94242.4
94494.4
94737.9
95013.3
91809
91807.9
91855.9
91946.2
92071.6
92229
92410.3
92613.7
92832.1
93062.8
93301.4
93544.4
93789.7
94032.8
94281.1
94525.8
94759.1
95030
91874.2
91876.4
91923.9
92013.2
92137.6
92293.7
92473.5
92675.4
92892.3
93121.3
93358.8
93599.7
93844.3
94085.1
94335.6
94568.5
94821.7
95069.5
91966.3
91971.6
92018.2
92106.9
92229.5
92384.1
92561.8
92761.7
92976.7
93203.6
93439.2
93678.4
93921.1
94160
94409.1
94641.4
94899.3
95135.7
92075.6
92081.2
92127
92215
92335.5
92488.3
92664.1
92861.5
93074.5
93299.2
93532.4
93769.5
94009.9
94249.2
94492.6
94724.3
94969.3
95194
92194.6
92200.3
92245.3
92332.5
92451.1
92601.8
92775.6
92970.5
93181.4
93403.3
93634.1
93868.7
94106.1
94342.5
94581.3
94808.8
95041
95257.7
92355.7
92359
92403.4
92489.2
92605.9
92753.5
92924.7
93116.5
93324.2
93542.6
93769.9
94000.8
94233.7
94465.9
94697.4
94919.2
95138.3
95344.2
92566.7
92571
92615.3
92698.7
92813.1
92956.5
93124.3
93311.4
93514.8
93728.7
93950.8
94176.4
94403.1
94629
94851.4
95065.9
95272.5
95468.8
92853.8
92854
92898.2
92978.2
93089
93227
93389.8
93570.9
93768.5
93975.8
94191
94409.2
94628.1
94845.3
95057.5
95262.5
95457.4
95642.5
93222.9
93229.8
93273.8
93349.2
93455.2
93586.4
93742.2
93915.4
94104.8
94303.3
94509.3
94717.9
94926.9
95132.9
95333.2
95526.8
95710.2
95883
93723.1
93728.5
93769.9
93839.6
93938.6
94061.3
94207.5
94370.6
94548.6
94735.8
94929.8
95125.9
95322
95514.4
95701.1
95880.5
96050.1
96209.8
94386.4
94384.2
94419.7
94482.2
94571.9
94683.9
94817.4
94967.2
95130.6
95302.9
95481.1
95661.1
95840.6
96016.7
96187
96349.8
96503.3
96647.2
95226.1
95229.5
95260.2
95314.5
95392.4
95490.7
95608
95740.4
95884.8
96037.5
96195.2
96354.8
96513.7
96669.3
96819.4
96962.5
97097.1
97222.7
96310.9
96304.8
96328.1
96372.3
96435.7
96516.8
96613.7
96723.7
96843.8
96971.3
97103.2
97236.9
97369.9
97500
97625.3
97744.6
97856.2
97959.8
97531.8
97531
97549.7
97583.3
97631.1
97692.5
97766.1
97850.1
97942.4
98040.8
98143
98246.8
98350.1
98451.2
98548.5
98640.7
98726.6
98805.7
98722.4
98713.5
98724.5
98746.7
98779
98821
98871.9
98930.6
98995.8
99065.9
99139.2
99214.1
99288.9
99362.2
99432.6
99499
99560.1
99615.5
99744.5
99732.3
99736.4
99748.3
99766.9
99791.8
99822.7
99859.2
99900.6
99946.1
99994.4
100044
100094
100144
100191
100235
100274
100309
100578
100576
100577
100580
100587
100597
100611
100628
100650
100675
100702
100731
100761
100790
100817
100843
100865
100883
101257
101255
101252
101249
101245
101243
101243
101246
101251
101259
101270
101282
101295
101308
101320
101330
101338
101342
101782
101785
101780
101770
101758
101747
101736
101726
101719
101715
101712
101711
101711
101711
101711
101709
101706
101699
102188
102187
102179
102165
102147
102128
102109
102091
102074
102059
102047
102036
102026
102017
102007
101997
101984
101970
102487
102484
102473
102455
102433
102408
102383
102358
102335
102313
102293
102275
102258
102241
102225
102208
102189
102168
102700
102695
102681
102660
102635
102607
102578
102548
102520
102493
102468
102444
102422
102401
102379
102357
102334
102309
102842
102837
102821
102798
102771
102741
102709
102677
102645
102614
102586
102559
102534
102509
102484
102459
102433
102405
102935
102926
102909
102885
102857
102826
102792
102758
102724
102692
102661
102632
102604
102577
102550
102523
102495
102465
102985
102976
102957
102933
102905
102873
102839
102804
102769
102735
102703
102673
102644
102615
102587
102559
102529
102498
103009
102996
102977
102953
102925
102893
102858
102823
102787
102753
102720
102690
102660
102631
102603
102574
102544
102512
110792
110790
110786
110779
110769
110755
110738
110715
110688
110655
110617
110574
110525
110471
110412
110347
110276
110199
110116
110026
109929
109825
109712
109592
109463
109325
109179
109025
108862
108691
108511
108323
108128
107926
107717
107501
107280
107054
106822
106584
106342
106096
105848
105600
105349
105094
104833
104566
104296
104023
103748
103472
103196
102920
102644
102369
102095
101822
101552
101284
101018
100756
100496
100240
99987.5
99739.3
99495.4
99256.3
99022.6
98794.7
98572.6
98356.7
98147.8
97946.2
97752.8
97568
97392.2
97226.5
97071.1
96926.8
96794.2
96673.7
96565.9
96471.1
96390
96322.9
96269.9
96231.3
96207
96197.1
96201.1
96218.6
96249.1
96291.7
96345.4
96408.8
96480.6
96559.2
96642.6
96728.6
96815
96899.4
96979.4
97053.3
97118.9
97174.2
97217
97245.6
97258.9
97256.4
97237.4
97202.1
97149.9
97080.8
96995.9
96896.8
96784.7
96660.8
96531.5
96396.3
96258.7
96125.4
95998.6
95869.6
95735.1
95589.6
95435.6
95275.9
95110.6
94939.7
94766
94592.7
94419.2
94244.7
94073.3
93907.8
93747.3
93591.6
93441.1
93295
93151.5
93010.8
92869.4
92723.2
92567.3
92397.8
92209.3
92000.1
91766.5
91506.8
91216.6
90894.1
90535.5
90138
89707.3
89249
88775.9
88308.7
87846.1
87389.9
86950.1
86540.2
86174.1
85863.8
85595.4
85389.9
85299.7
85344.2
85474.2
85678.8
85953.5
86316.4
86770.6
87339.7
87963.9
88597.8
89173.3
89685.5
90130.2
90508.6
110621
110620
110616
110609
110599
110586
110569
110547
110520
110488
110451
110409
110362
110310
110252
110189
110121
110046
109965
109878
109783
109681
109571
109453
109327
109193
109049
108897
108736
108567
108389
108202
108009
107808
107600
107386
107168
106947
106720
106491
106259
106020
105772
105518
105266
105012
104754
104491
104224
103955
103684
103413
103140
102868
102596
102325
102055
101786
101519
101255
100993
100734
100478
100225
99975.7
99730.7
99490.1
99254.4
99023.8
98798.7
98579.5
98366.5
98160.3
97961.4
97770.5
97588.3
97414.9
97251.5
97098.4
96956.1
96825.6
96707.1
96601
96508
96428.5
96362.8
96311.1
96273.6
96250.4
96241.5
96246.4
96264.9
96296.3
96339.8
96394.2
96458.3
96530.7
96610.1
96694.6
96781.5
96869.1
96954.8
97036.1
97111.6
97179.3
97236.5
97281.4
97312.3
97328.4
97328.7
97313.2
97281.7
97232.9
97166.6
97084.6
96988.9
96879.7
96758
96627.8
96491.2
96353.6
96221.7
96094.6
95962.9
95829.1
95681.4
95526.1
95365.4
95198.3
95025.7
94850.2
94673.6
94496.5
94320.4
94147.1
93979
93816.4
93659
93506.4
93359
93213.4
93071.1
92927.9
92780
92623
92452.4
92263.5
92053.9
91820.4
91561.7
91272.7
90952.7
90597.8
90203.4
89777.2
89320.8
88849.3
88390.4
87936
87483.4
87045.4
86640.1
86279
85974.9
85704
85496.6
85405
85445.9
85575.4
85771.7
86044.2
86408.2
86861
87434.3
88067.1
88701.1
89269
89772.9
90207.6
90576.7
110289
110287
110284
110278
110269
110256
110238
110216
110189
110158
110123
110083
110039
109990
109936
109876
109812
109742
109666
109583
109493
109396
109291
109178
109056
108927
108788
108640
108483
108318
108141
107956
107766
107571
107370
107167
106960
106745
106523
106298
106071
105839
105600
105355
105107
104856
104602
104346
104087
103825
103562
103297
103033
102768
102503
102239
101976
101715
101455
101198
100943
100691
100441
100196
99953.3
99714.9
99480.6
99251.1
99026.6
98807.3
98593.7
98386.5
98185.8
97992.1
97806.2
97628.9
97460.3
97301.2
97152.6
97014.4
96887.8
96773.2
96670.8
96581.2
96504.8
96442.1
96393.2
96358.2
96337.2
96330.3
96337.1
96357.3
96390.4
96435.4
96491.5
96557.1
96631
96712
96798.7
96887.1
96977.2
97065.8
97150.1
97229
97300.5
97361.8
97410.9
97446.9
97468.5
97474.6
97465.3
97440.4
97398.2
97337.7
97260.9
97170.5
97067.4
96950.6
96821.6
96684.6
96548.2
96417.7
96288.5
96154.1
96014.2
95865
95707.9
95544.7
95373.7
95197.1
95018
94836
94652.1
94471
94294.3
94120.6
93952.8
93791.3
93634.5
93484.5
93336.4
93191.4
93045.9
92895.7
92736.3
92563.5
92374
92164.6
91932.1
91675.1
91388.2
91072.7
90724.8
90337.7
89922.2
89472.9
89002.9
88554.4
88117.2
87677.4
87247.7
86855.5
86509.5
86216.1
85942.4
85734.2
85634.9
85662
85781.5
85976.7
86244.6
86603.6
87047.2
87632.6
88287.4
88911.5
89473.9
89967.2
90382.7
90736.3
109807
109807
109804
109798
109788
109774
109755
109733
109707
109678
109645
109608
109568
109523
109473
109419
109360
109296
109226
109151
109069
108979
108881
108774
108660
108536
108404
108263
108112
107950
107778
107601
107423
107240
107050
106854
106655
106451
106240
106024
105803
105577
105346
105111
104873
104631
104385
104138
103888
103636
103383
103130
102875
102621
102367
102113
101861
101610
101361
101114
100869
100627
100388
100152
99919
99690.3
99465.4
99244.9
99029.4
98818.9
98613.7
98414.7
98222.2
98036.2
97857.9
97688
97526.2
97373.6
97231.4
97099.4
96978.6
96869.6
96772.4
96687.9
96616.3
96557.9
96513
96481.9
96464.5
96460.8
96470.6
96493.5
96529
96576.4
96634.7
96702.7
96779.1
96862.4
96951.6
97043.3
97136.5
97228.6
97317.3
97401.1
97478
97545
97600.6
97643.6
97672.5
97686.3
97684.9
97667.8
97633.5
97581.9
97514.4
97432.2
97337.2
97227.5
97103.1
96968.6
96834.2
96704.8
96573.3
96434.4
96290.1
96137.7
95977.7
95810.1
95634
95452.2
95266.4
95077.4
94884
94694.9
94514
94333.3
94158
93990.2
93826.1
93670.9
93519.8
93370.1
93221.3
93068
92905.2
92728.8
92538.8
92330.3
92098.9
91845
91562.6
91252.6
90914.2
90538.3
90139
89704.3
89238.8
88793.6
88374.1
87964.6
87551
87179.5
86861.7
86586.4
86312.6
86099.8
85989.2
86000.1
86106.3
86301.2
86561.9
86905.8
87341.5
87941.1
88628.3
89235.6
89791
90272.4
90663.6
90997.7
109193
109194
109191
109184
109173
109158
109140
109120
109097
109072
109043
109010
108974
108933
108888
108839
108785
108727
108665
108597
108523
108442
108353
108256
108150
108036
107912
107777
107632
107477
107319
107159
106994
106822
106645
106462
106271
106075
105874
105669
105458
105242
105021
104797
104570
104339
104105
103869
103632
103392
103152
102911
102670
102429
102188
101947
101709
101471
101235
101002
100770
100541
100315
100091
99871.5
99655.2
99442.4
99233.6
99029.7
98830.7
98636.8
98448.5
98266.5
98090.9
97922.3
97762
97609.5
97465.5
97331.6
97207.6
97094.3
96992.7
96902.5
96824.6
96759.1
96706.5
96667
96640.8
96628
96628.9
96643
96669.9
96708.9
96759.4
96821
96892.2
96972.1
97058.7
97151.2
97246.9
97343.9
97440.1
97533.7
97623
97705.9
97780
97843.9
97895.8
97934
97957.5
97965.3
97957.4
97932.3
97891.5
97835.4
97764.7
97679.9
97579.9
97464
97335.9
97205.1
97076.4
96942.3
96799.5
96651.9
96495.3
96332.2
96159.9
95978.1
95789.3
95593.2
95395
95193
94993.1
94806.3
94620
94436.4
94259.3
94086.4
93922.8
93764.8
93608.7
93454.7
93297.3
93130.7
92950.9
92758.1
92548.8
92319.2
92069.2
91794.6
91492.4
91163.8
90801.7
90421.5
90008.8
89558
89104.3
88698.3
88331.1
87948.4
87601.8
87317.1
87075.7
86809.2
86587.7
86469
86468
86558.6
86749.2
87002
87332.8
87769.2
88394.4
89083.8
89690.6
90226.2
90684.7
91052.1
91361.1
108464
108466
108463
108456
108446
108433
108420
108404
108386
108365
108340
108312
108281
108245
108205
108162
108113
108061
108004
107942
107877
107805
107726
107639
107542
107436
107320
107195
107060
106922
106784
106640
106488
106329
106161
105988
105810
105626
105436
105241
105042
104838
104630
104418
104203
103986
103765
103544
103320
103096
102870
102644
102418
102193
101968
101743
101520
101298
101079
100861
100645
100432
100221
100013
99808.6
99607.3
99409.4
99214.9
99024.9
98839.7
98659.4
98484.3
98315.3
98152.6
97996.1
97847.3
97706.3
97573.1
97449.4
97335.3
97231.3
97138.5
97057
96987.1
96929.4
96883.8
96850.9
96830.9
96823.6
96830
96849
96880.7
96924.6
96979.6
97045.3
97120.4
97205.2
97296
97392.4
97492.7
97594.5
97696.1
97795.4
97890.7
97980.3
98062.4
98135.7
98198.4
98248.1
98283.3
98302.8
98307.5
98296.9
98270.2
98225.7
98167.3
98093.8
98006.1
97900.8
97781.4
97655.8
97528.3
97391.5
97245.3
97092.9
96933.2
96766.8
96588.3
96399.9
96201.8
95995.2
95787
95575.5
95363.2
95165.7
94971.3
94780.1
94594.7
94413.6
94241.1
94072.2
93907.2
93745.6
93582.4
93411.5
93228.6
93033.7
92822.6
92594.4
92347.5
92082.6
91792.2
91473.4
91126.7
90766.9
90382.1
89956.8
89496.1
89103.1
88779.3
88441.3
88119.6
87868.1
87672.3
87423.2
87194
87071.3
87063.7
87148.2
87332.3
87574.8
87901.6
88351.3
88998.4
89687.2
90276.5
90780.5
91201
91543
91819.7
107644
107646
107644
107639
107632
107624
107616
107605
107591
107574
107553
107530
107503
107473
107439
107401
107360
107314
107263
107208
107149
107085
107014
106935
106848
106753
106649
106535
106418
106301
106177
106045
105905
105758
105605
105445
105280
105108
104932
104750
104564
104373
104179
103982
103782
103579
103375
103168
102961
102753
102544
102335
102127
101918
101711
101504
101299
101095
100893
100693
100496
100300
100107
99916.9
99729.2
99544.7
99363.5
99185.7
99011.9
98842.4
98677.6
98518
98363.9
98216
98074.1
97939.1
97811.5
97691.4
97579.9
97477.5
97384.7
97302.4
97231
97170.4
97121.6
97084.6
97059.6
97047
97046.8
97059.4
97084.6
97121.5
97170.5
97231.2
97302.6
97381.9
97471.9
97568
97669.4
97775.1
97883.2
97991.6
98098.1
98201
98299
98390.7
98474.5
98548.4
98610.3
98659.1
98693.2
98713.2
98719.4
98709.4
98680
98635.6
98576
98503.1
98410.2
98300.2
98180.2
98055.2
97916.9
97767.2
97609.7
97447
97275.4
97089.9
96894.2
96686.9
96470.2
96250.7
96028.5
95803
95591.3
95383.4
95181.4
94989
94800.6
94620.9
94441.3
94265.6
94094.3
93923.9
93747.8
93562.2
93363.7
93151.2
92925.1
92682.8
92426.8
92151.5
91846.1
91516.6
91175.9
90822.8
90432.8
89985.6
89596.7
89312.8
89023
88730.7
88509.9
88366.4
88146
87917.1
87791.5
87785.2
87878.2
88050.7
88279.3
88622
89109
89774.9
90435.9
90988.1
91446.2
91821.7
92132.6
92378
106758
106760
106759
106757
106754
106750
106744
106735
106724
106710
106694
106675
106654
106630
106603
106574
106541
106503
106461
106413
106361
106303
106240
106171
106096
106012
105918
105820
105723
105620
105508
105390
105264
105130
104991
104845
104693
104536
104373
104205
104034
103858
103679
103497
103313
103127
102939
102749
102559
102368
102178
101987
101797
101608
101420
101233
101047
100862
100680
100499
100321
100145
99971.6
99800.4
99631.8
99465.9
99302.9
99143.5
98987.6
98835.6
98687.9
98545.1
98407.7
98276.1
98150.3
98031.1
97919
97813.8
97716.9
97628.2
97548.5
97478.3
97418.6
97369.1
97330.3
97302.8
97287
97282.9
97290.7
97310.7
97343.3
97387.2
97442
97508.3
97585.1
97671.6
97766.9
97869.2
97976.3
98088.4
98204
98320.6
98436.1
98548.5
98656.2
98758.9
98854.5
98940.5
99015.7
99079.5
99130.4
99167
99191
99198.9
99187.7
99159.3
99116.4
99060.5
98983.9
98885.7
98772.3
98649.2
98511.9
98360.6
98200.8
98032.9
97854
97661.5
97458
97242.9
97016
96784.2
96549.8
96311.1
96083.5
95861.5
95644.5
95440.8
95245.3
95058.3
94869.5
94681.4
94499.7
94320.6
94139.8
93952
93750.9
93537
93311.5
93075.5
92828.5
92568.8
92283.3
91974.4
91650.2
91330.3
90982.2
90578.9
90206.6
89932.8
89685.1
89430.4
89245.3
89156.9
88966.9
88748.8
88623.7
88624.7
88730
88905.8
89110.4
89505.9
90044.1
90705.1
91319.4
91813.4
92215.8
92547.8
92820.6
93032.9
105828
105831
105832
105831
105830
105827
105823
105817
105808
105798
105786
105772
105756
105738
105718
105696
105672
105643
105611
105573
105530
105482
105428
105368
105299
105224
105146
105068
104985
104894
104795
104690
104577
104458
104332
104200
104063
103919
103771
103618
103462
103302
103139
102973
102805
102635
102463
102291
102119
101946
101775
101604
101433
101264
101096
100929
100763
100600
100438
100278
100120
99964.7
99811.8
99661.3
99513.3
99367.8
99225.1
99085.4
98948.9
98816
98687.1
98562.4
98442.8
98328.8
98220.2
98117.8
98022.7
97934
97853
97779.8
97715.1
97659.2
97612.5
97575.9
97549.1
97532.5
97526.8
97532.7
97549.7
97577.7
97618
97669.6
97732
97805.2
97888.7
97982.1
98083.8
98192.5
98306.8
98426.3
98550.1
98675.4
98801.2
98925.3
99044.8
99159.1
99267.4
99367
99457
99537.2
99606.9
99662
99704.8
99732.2
99740.8
99731.2
99707.3
99669.9
99612.8
99530
99424.6
99303.8
99169.4
99019.2
98858.2
98684.8
98498.5
98298.2
98084.9
97861
97623.6
97377.9
97131.5
96882.4
96639.3
96403.7
96171
95953.3
95748.3
95553.1
95354.6
95153.8
94959.9
94770.4
94583.3
94392.9
94192.5
93977.5
93757
93527.5
93290.8
93046
92784
92500.4
92193.4
91907.3
91604.4
91262.5
90922.4
90643
90428.5
90216
90077.8
90030.4
89875.7
89677.1
89561.6
89579.5
89704.2
89907.1
90099.3
90587.1
91154.8
91768.8
92312
92742.6
93089.5
93374.8
93608.1
93779.1
104877
104880
104883
104884
104885
104884
104883
104880
104876
104870
104862
104852
104840
104826
104811
104794
104776
104755
104731
104703
104670
104630
104583
104530
104472
104413
104354
104290
104220
104141
104055
103962
103862
103756
103644
103526
103402
103273
103139
103001
102859
102714
102567
102416
102264
102111
101956
101801
101647
101493
101341
101189
101039
100890
100742
100596
100451
100308
100167
100028
99892
99758.1
99626.6
99497.5
99370.9
99246.8
99125.4
99006.9
98891.4
98779.1
98670.6
98565.8
98465.7
98370.5
98280.6
98196.2
98118.2
98047
97982.8
97926.3
97877.4
97837.4
97805.4
97782.5
97769.3
97765.9
97771.8
97788.5
97816.2
97854.4
97903.2
97962.9
98032.4
98114.6
98205.6
98306
98415.2
98531.1
98654
98781.9
98914.6
99049.7
99185.6
99321.8
99455.6
99583.4
99705.5
99820.9
99928.1
100026
100115
100190
100252
100301
100331
100343
100339
100320
100284
100221
100127
100011
99881.1
99733.9
99572
99395.3
99201.1
98992.2
98767.4
98530.1
98282.9
98023.9
97766.2
97506.7
97249.4
97000.8
96753.4
96524.4
96309.3
96103.3
95893.4
95679.3
95471.6
95273.1
95078.1
94882.1
94686
94467.5
94254.3
94041.6
93816.9
93583.8
93348.2
93091.3
92808.2
92555.5
92292.3
92021.5
91726.9
91439.2
91236.8
91075.1
90988.5
90983
90855.7
90692.5
90596.9
90640.1
90796.8
90961.5
91341.2
91859.1
92398.5
92941.3
93409.6
93768.7
94065.6
94300.9
94495.4
94621.8
103923
103927
103932
103936
103939
103942
103944
103944
103944
103941
103937
103932
103924
103914
103903
103890
103876
103860
103842
103821
103795
103763
103727
103687
103645
103602
103555
103502
103440
103374
103300
103219
103132
103039
102939
102834
102723
102608
102487
102363
102236
102106
101973
101838
101701
101563
101426
101288
101152
101016
100882
100750
100619
100490
100363
100237
100113
99991
99870.7
99752.8
99637.7
99525.4
99415.8
99308.5
99203.7
99101.2
99001.6
98904.9
98811.2
98720.5
98633.1
98549.4
98470.2
98395.7
98325.9
98261.4
98202.1
98149
98102.3
98063.4
98031.4
98007.4
97991.8
97984.1
97984.7
97995
98014.3
98043
98081.9
98131.7
98191.8
98258.7
98338.3
98429
98528.6
98636.6
98753.7
98877.8
99009.6
99147.5
99289.2
99435.3
99582.1
99730.1
99878.2
100022
100160
100292
100419
100537
100645
100742
100824
100894
100949
100984
101001
101003
100987
100946
100867
100759
100635
100492
100331
100150
99949.2
99729.8
99494.9
99244.3
98987.9
98720.1
98451.9
98181.3
97907.5
97645.2
97384.1
97147.2
96924.2
96704.9
96483.1
96253
96030.5
95822.8
95622.1
95422.1
95232.2
95013.6
94804.4
94611.7
94405.9
94184.4
93976.8
93743.8
93493.2
93273
93043.6
92840
92595
92319
92118
92022.8
91978.2
91998.3
91903.1
91782.3
91729.9
91802.2
91965.2
92201.3
92720.3
93228.6
93707.8
94196.4
94593.7
94879.4
95131.8
95322.4
95467.4
95542
102985
102990
102995
103001
103007
103012
103017
103021
103025
103028
103029
103028
103025
103021
103015
103007
102998
102987
102974
102959
102940
102918
102894
102867
102837
102804
102765
102719
102667
102609
102546
102476
102400
102318
102230
102137
102039
101936
101829
101718
101604
101487
101368
101247
101125
101003
100881
100760
100641
100524
100408
100294
100183
100073
99965.3
99859.1
99754.8
99652.5
99552.4
99454.8
99360.2
99269
99180.8
99095.4
99012.3
98931.5
98853.5
98778.6
98706.7
98638
98572.1
98509.7
98451.5
98398.3
98349.6
98306
98266.9
98233.7
98206.1
98185.1
98171.5
98164.4
98164.7
98173.5
98189.5
98213.6
98247.2
98289.7
98340.1
98401.3
98472.6
98552.1
98641.5
98740.8
98849.7
98966.3
99091.7
99224.9
99365.4
99514.4
99665.6
99822.3
99982.5
100144
100305
100466
100621
100772
100919
101058
101187
101308
101412
101502
101583
101642
101683
101707
101711
101692
101634
101536
101417
101279
101118
100934
100726
100497
100256
99994.9
99731.6
99457.7
99176.9
98896.4
98608
98331.8
98061.6
97816
97584.4
97351
97117
96870.5
96634.1
96412
96204.8
96007.5
95821.5
95616.7
95414.5
95231.6
95048.2
94849.1
94668.8
94458.6
94248.2
94058.4
93862.3
93715.2
93512.9
93283.7
93123
93076.4
93049.3
93074.9
93008.4
92945.2
92957.2
93094.4
93240.5
93632.9
94156.4
94588.9
95061
95521.4
95837.8
96073.1
96282.4
96427.5
96510.6
96522.9
102076
102081
102088
102095
102103
102111
102119
102128
102136
102144
102151
102156
102159
102161
102161
102160
102156
102152
102145
102136
102125
102112
102096
102077
102054
102027
101994
101956
101912
101862
101807
101746
101679
101607
101530
101448
101361
101270
101174
101075
100973
100868
100762
100654
100546
100439
100333
100227
100124
100023
99924.3
99828.3
99734.8
99643.5
99553.6
99465.4
99379.2
99295.7
99215
99137.2
99062.4
98991.1
98923.5
98859.5
98798
98738.6
98681.6
98628
98577.9
98530.8
98486.5
98445.3
98407.9
98375.8
98348.2
98325.5
98307.3
98293.9
98286.9
98285.2
98290.2
98302
98319.3
98344.1
98376.3
98415.8
98463.4
98520.3
98585
98658.2
98740.7
98832.6
98932.8
99041.8
99159.9
99286.6
99420.8
99564.2
99714
99873.1
100036
100203
100377
100552
100728
100905
101080
101250
101418
101581
101732
101875
102006
102118
102223
102307
102374
102420
102441
102444
102412
102329
102218
102083
101923
101735
101518
101282
101036
100768
100497
100221
99931.3
99641.6
99338
99050.3
98775.9
98522.6
98278.4
98031
97782.3
97526
97279.7
97040.7
96823.1
96626.4
96447.8
96261.7
96076.6
95904.4
95739.5
95569.9
95416.7
95232.8
95069.4
94912.7
94750.4
94645.6
94481.8
94317.6
94250.7
94215.6
94173.4
94188.2
94173.8
94184.3
94264
94480.3
94710.4
95187.1
95609.7
95996
96497.8
96908.9
97144.4
97344
97513.3
97601.1
97619
97561.4
101208
101214
101222
101231
101241
101252
101264
101276
101288
101300
101312
101322
101332
101341
101347
101353
101356
101357
101357
101354
101349
101342
101331
101318
101300
101278
101251
101220
101183
101140
101092
101039
100981
100918
100849
100776
100699
100618
100533
100444
100353
100259
100165
100070
99974.8
99880.9
99788.1
99696.8
99607.6
99520.9
99437.2
99356.5
99278.5
99203.2
99130.2
99058.9
98990.1
98924.2
98861.7
98802.5
98746.3
98693.8
98645.8
98602.1
98561.3
98522.6
98486.5
98453.6
98424.7
98399.2
98376.1
98355.6
98338.6
98326.8
98320.2
98317.6
98320
98327
98339.7
98358.7
98383.5
98413.2
98449.7
98491.5
98539.3
98595.7
98658.4
98729
98808.6
98895
98989.2
99093.2
99204.9
99324.1
99451.8
99589.1
99733.3
99886.4
100047
100215
100391
100570
100756
100946
101138
101330
101523
101716
101904
102090
102266
102430
102589
102727
102853
102965
103055
103125
103168
103190
103182
103123
103022
102890
102731
102538
102318
102073
101822
101551
101276
100999
100707
100409
100088
99791.6
99511.5
99252.7
98995.2
98735.4
98469.5
98209.4
97958.5
97708.2
97487
97280.7
97117.6
96945.2
96776.1
96630.3
96491.6
96343.6
96212.7
96061
95947.7
95827.9
95704
95623
95504.5
95390.9
95402.9
95354.9
95299.7
95321.1
95386.4
95495.4
95638.1
95919.9
96300.1
96763.3
97119.8
97512.8
98019.5
98330.7
98518.3
98683.4
98815
98835.6
98779.7
98638.7
100389
100397
100406
100416
100429
100443
100457
100473
100489
100506
100522
100537
100553
100567
100579
100591
100600
100607
100612
100615
100615
100612
100606
100597
100583
100566
100544
100518
100487
100452
100410
100364
100313
100257
100196
100131
100062
99989.3
99913.2
99834.1
99752.7
99669.8
99586
99502.2
99418.7
99336.2
99255
99175.7
99098.7
99024.4
98953.4
98886.2
98822.4
98761.5
98703.5
98647.3
98593.9
98543.9
98497.6
98455.6
98416.9
98381.9
98351.9
98326.6
98305.3
98286.2
98269.5
98256.2
98247.1
98241.9
98239.4
98239
98242.6
98251
98264.6
98282.2
98303.1
98330.5
98363.6
98401.1
98448.9
98494.1
98549.7
98611.4
98671.9
98746.7
98825.8
98911.2
99004.5
99104.4
99211.3
99327
99450.3
99580.4
99718.6
99865.8
100021
100184
100357
100534
100721
100913
101113
101317
101524
101733
101943
102156
102368
102575
102778
102965
103146
103315
103461
103599
103715
103809
103878
103915
103929
103898
103810
103685
103527
103334
103116
102865
102608
102333
102056
101776
101479
101176
100854
100548
100263
99994.5
99723.6
99453.2
99178.4
98914.7
98663.6
98408.4
98196.2
97985.4
97835.5
97674.8
97515.3
97382.8
97286.1
97159.9
97052.3
96935.6
96866.8
96786.9
96703.1
96640.1
96571.7
96487.5
96503.3
96445.3
96419.5
96482.9
96640.5
96860.2
97103.3
97419.6
97921.4
98322.5
98718.7
99132.7
99569
99781.3
99945.4
100093
100178
100121
99981.1
99746.7
99628.6
99635.8
99645.1
99657.5
99672.8
99689.9
99708.1
99727.2
99747.3
99768
99788.8
99809.4
99829
99847.7
99865.3
99881.3
99895.5
99907.4
99917.1
99924.1
99928.3
99929.6
99927.5
99922
99912.7
99899.4
99882
99860.2
99834
99803.1
99767.2
99726.9
99681.7
99632
99577.9
99519.7
99457.8
99392.5
99324.3
99253.6
99180.9
99106.9
99032.2
98957.6
98883.4
98810.3
98739
98669.9
98603.5
98539.9
98480.2
98425.2
98373.6
98324.8
98279
98236.3
98196.1
98159.9
98128.7
98101.4
98077.8
98058.7
98045.4
98037.6
98033.9
98032.8
98033.9
98038.5
98047.9
98060.9
98077
98095.5
98117.7
98147.3
98180.2
98218.9
98256.3
98303.7
98356
98413.4
98477
98543.5
98616
98693.8
98775.6
98864.5
98959
99059.6
99166.7
99280.2
99400.1
99527.5
99662.3
99803.8
99953
100110
100277
100450
100633
100822
101019
101224
101437
101656
101877
102104
102331
102564
102799
103026
103254
103467
103667
103864
104037
104194
104339
104457
104551
104609
104638
104632
104566
104452
104297
104111
103895
103645
103379
103099
102824
102535
102236
101930
101606
101298
101013
100736
100452
100170
99896.7
99633.8
99393
99138
98929.3
98728.5
98580.2
98429.2
98283.2
98172.6
98088.5
98005.4
97924.2
97846.4
97814.1
97772.5
97724.4
97689.2
97664
97618.5
97611.5
97566.2
97579.9
97707.2
97951.4
98279.6
98637.4
99027.3
99529.8
99919.7
100381
100809
101112
101278
101438
101559
101583
101461
101231
100908
98928
98935.6
98946.4
98960.5
98977.6
98998
99020.4
99044.1
99068.6
99094.2
99119.5
99144.3
99168.1
99190.9
99212.6
99232.7
99250.8
99266.6
99279.9
99290.4
99297.9
99302.3
99303.3
99300.9
99294.8
99285
99271.1
99253
99230.6
99203.8
99172.3
99136.3
99095.9
99051.1
99002.1
98949.5
98893.3
98834
98772
98707.9
98642.1
98575.3
98507.8
98440.5
98373.9
98308.7
98245.6
98185.2
98127.9
98074.1
98025.1
97979.1
97936.1
97896.3
97860.3
97828.6
97800.3
97776.6
97758.1
97743.7
97733.4
97728.3
97729.6
97737.4
97749.5
97764.3
97781.3
97802.7
97828.9
97859.4
97892.5
97929
97969.5
98015.9
98066.9
98122.7
98181.7
98246.2
98316.2
98391.1
98471.9
98557
98646.9
98741.5
98840.2
98944.5
99054.2
99169.2
99290.1
99417
99549.7
99689
99835.1
99988.5
100149
100317
100494
100677
100871
101070
101277
101495
101720
101953
102189
102432
102677
102929
103186
103435
103680
103922
104143
104361
104566
104745
104915
105055
105171
105256
105298
105307
105267
105173
105025
104848
104635
104393
104122
103838
103562
103261
102963
102658
102334
102029
101748
101462
101171
100887
100616
100360
100129
99893.4
99680.7
99487.6
99329.3
99186.1
99056.9
98977.5
98917.4
98868.2
98814.1
98780.7
98775.9
98768.8
98754.7
98753.1
98759.9
98786.9
98806.7
98796.9
98841.6
99019.9
99333.9
99756
100233
100689
101158
101570
102031
102443
102663
102841
102991
103056
103015
102846
102541
102114
98286.7
98295.7
98308.6
98324.2
98343.5
98368
98396
98426.7
98456.7
98487.5
98517.8
98547.5
98576.1
98603
98628.2
98651.6
98672.8
98691.3
98707.7
98721.1
98731.3
98738.2
98741.6
98741.3
98737.3
98729.6
98717.9
98702.2
98682.2
98658.2
98629.9
98597.1
98560.2
98519.1
98474.1
98425.5
98373.5
98318.7
98261.3
98201.9
98141.3
98079.7
98017.7
97956.2
97895.6
97836.7
97780.2
97726.6
97676.2
97629.5
97587
97548.3
97512.6
97480.4
97452.6
97429.9
97413
97399.9
97392
97388.3
97388.9
97395.4
97408.9
97430.3
97456.3
97485.5
97517.2
97553
97593.7
97639.1
97688.1
97740.7
97797.6
97860
97927.3
97999.3
98075.8
98157.2
98244
98335.4
98432.4
98533.9
98640.1
98750.9
98865
98983.8
99108.4
99237.2
99371.2
99511.1
99656.1
99806.9
99964
100128
100300
100478
100665
100858
101062
101272
101487
101718
101954
102201
102452
102707
102972
103241
103516
103788
104050
104318
104566
104802
105030
105238
105429
105592
105725
105834
105894
105914
105895
105828
105693
105528
105320
105089
104823
104538
104257
103947
103649
103347
103029
102732
102452
102159
101862
101588
101324
101080
100850
100642
100434
100250
100072
99933.5
99828
99768.8
99747.4
99730.9
99705.2
99717.1
99735.2
99760.9
99784.9
99818
99863
99987.2
100088
100125
100205
100427
100793
101299
101889
102338
102800
103226
103649
104016
104252
104446
104543
104563
104468
104243
103867
103331
97782.6
97793.1
97808.2
97827.8
97858.5
97893.4
97930.1
97968.1
98004.3
98039.4
98073.7
98106.8
98138.7
98168.7
98196.4
98222
98245.1
98265.4
98282.9
98297.5
98309
98317.1
98321.8
98322.8
98319.9
98313.2
98302.3
98287.4
98268.3
98244.9
98217.4
98185.6
98150.1
98110.6
98067.3
98020.5
97970.5
97917.9
97862.9
97806.1
97748.2
97689.5
97630.7
97572.5
97515.3
97459.9
97407
97357
97310.3
97267.4
97228.7
97194.6
97164.2
97137.2
97116.1
97101.2
97089.9
97083
97080.9
97083.9
97092.4
97108.4
97132.5
97161.3
97196.4
97235.6
97278.7
97325.9
97377.5
97433.8
97494.4
97559.1
97628.4
97702.9
97783
97868.1
97957.8
98052.2
98152.1
98257.1
98366.9
98481.5
98600.6
98723.5
98850.5
98981.4
99117.9
99258.3
99403.4
99553.6
99709
99869.5
100036
100209
100390
100577
100771
100973
101185
101404
101629
101868
102114
102372
102636
102903
103182
103469