/*--------------------------------*- C++ -*----------------------------------*\
| =========                 |                                                 |
| \\      /  F ield         | OpenFOAM: The Open Source CFD Toolbox           |
|  \\    /   O peration     | Version:  dev                                   |
|   \\  /    A nd           | Web:      http://www.openfoam.org               |
|    \\/     M anipulation  |                                                 |
\*---------------------------------------------------------------------------*/
FoamFile
{
    version     2.0;
    format      ascii;
    class       surfaceScalarField;
    object      phi;
    location    "9.163";
}
// * * * * * * * * * * * * * * * * * * * * * * * * * * * * * * * * * * * * * //

dimensions      [1 0 -1 0 0 0 0];

internalField   nonuniform List<scalar> 
24170
(
2.6459e-06
1.53105e-06
2.23065e-06
1.15476e-06
2.22344e-06
6.78551e-07
2.44345e-06
3.99815e-07
2.65416e-06
3.4441e-07
2.88708e-06
2.7786e-07
3.02942e-06
3.09937e-07
3.26362e-06
1.78188e-07
3.33253e-06
2.92175e-07
3.59288e-06
6.57877e-08
3.59438e-06
2.80516e-07
4.00189e-06
-1.56441e-07
3.70852e-06
5.07693e-07
4.65605e-06
-7.61637e-07
4.00582e-06
8.05441e-07
4.68929e-06
-5.59647e-07
7.058e-06
-2.26549e-06
3.17046e-07
6.80142e-06
4.32497e-06
1.80144e-06
4.24733e-06
1.94924e-06
4.28544e-06
1.30951e-06
4.41295e-06
8.86731e-07
4.57377e-06
7.41342e-07
4.78398e-06
5.68482e-07
4.97353e-06
5.68211e-07
5.21173e-06
3.35812e-07
5.38715e-06
4.66759e-07
5.79122e-06
-3.20879e-08
5.86799e-06
4.70673e-07
6.61485e-06
-6.73238e-07
6.49421e-06
8.24557e-07
7.59583e-06
-1.69597e-06
7.21239e-06
1.31578e-06
9.38179e-06
-2.6182e-06
7.03393e-06
1.73583e-07
-5.49462e-06
1.28916e-05
5.19574e-06
1.57814e-06
5.59348e-06
2.34145e-06
5.90397e-06
1.73789e-06
6.13256e-06
1.33637e-06
6.3328e-06
1.15722e-06
6.61263e-06
8.40761e-07
6.76166e-06
9.14375e-07
7.16545e-06
3.68422e-07
7.167e-06
8.50738e-07
7.82293e-06
-3.50564e-07
7.68924e-06
8.97878e-07
8.52754e-06
-1.25927e-06
8.34227e-06
1.22611e-06
9.29803e-06
-2.47119e-06
9.27574e-06
1.48308e-06
1.06007e-05
-3.8261e-06
9.50551e-06
1.36452e-06
-6.77254e-06
1.08538e-05
5.42956e-06
1.58536e-06
6.52186e-06
2.1196e-06
7.02697e-06
2.0464e-06
7.69597e-06
1.41311e-06
7.84168e-06
1.69008e-06
8.55519e-06
7.35471e-07
8.51796e-06
1.49632e-06
9.274e-06
9.5113e-08
9.08254e-06
1.46617e-06
9.79135e-06
-6.86794e-07
9.58141e-06
1.43054e-06
1.01709e-05
-1.57067e-06
1.002e-05
1.61538e-06
1.06672e-05
-2.91998e-06
1.06148e-05
1.70018e-06
1.17648e-05
-4.84826e-06
1.03894e-05
2.83695e-06
-8.39549e-06
1.20924e-05
5.65313e-06
1.75032e-06
7.24548e-06
1.48348e-06
7.64208e-06
2.5451e-06
8.77776e-06
1.097e-06
8.83374e-06
2.38033e-06
9.78052e-06
4.57273e-07
9.70435e-06
2.17077e-06
1.0546e-05
-2.15238e-07
1.03952e-05
2.08273e-06
1.09907e-05
-8.72084e-07
1.09119e-05
1.86397e-06
1.13233e-05
-1.67474e-06
1.13789e-05
1.82268e-06
1.16898e-05
-3.01167e-06
1.17617e-05
1.8145e-06
1.27926e-05
-5.73524e-06
1.23128e-05
3.43021e-06
-9.50377e-06
1.3523e-05
6.25601e-06
2.24097e-06
7.47249e-06
1.31652e-06
7.82959e-06
3.17201e-06
9.08377e-06
7.42143e-07
9.25063e-06
3.033e-06
1.0212e-05
2.3042e-07
1.0286e-05
2.75364e-06
1.11169e-05
-4.6301e-07
1.11365e-05
2.57398e-06
1.17341e-05
-1.019e-06
1.1837e-05
2.15045e-06
1.22687e-05
-1.7681e-06
1.25618e-05
1.81881e-06
1.26844e-05
-2.89283e-06
1.33217e-05
1.38335e-06
1.28915e-05
-5.13873e-06
1.51265e-05
1.33163e-06
-7.45431e-06
1.31882e-05
7.11609e-06
2.38344e-06
8.31149e-06
1.26935e-06
8.71155e-06
3.85187e-06
9.85589e-06
5.84843e-07
1.01838e-05
3.6024e-06
1.11433e-05
7.62272e-08
1.13863e-05
3.22955e-06
1.21832e-05
-6.20959e-07
1.24215e-05
2.89469e-06
1.2932e-05
-1.03605e-06
1.33112e-05
2.1985e-06
1.35732e-05
-1.65909e-06
1.41644e-05
1.54547e-06
1.40961e-05
-2.55759e-06
1.50814e-05
6.25286e-07
1.4034e-05
-3.89885e-06
1.58622e-05
-3.38524e-07
-3.99363e-06
1.2531e-05
5.49946e-06
2.51174e-06
6.4996e-06
1.16096e-06
6.95744e-06
4.23256e-06
7.71587e-06
5.92801e-07
8.05455e-06
3.96027e-06
8.67257e-06
8.09661e-08
8.98035e-06
3.48005e-06
9.39118e-06
-5.37063e-07
9.83229e-06
2.88731e-06
1.00164e-05
-8.37544e-07
1.04886e-05
2.05911e-06
1.05456e-05
-1.42759e-06
1.10875e-05
1.24962e-06
1.0894e-05
-2.15376e-06
1.15581e-05
1.41352e-07
1.08472e-05
-3.03521e-06
1.15248e-05
-8.8987e-07
-2.81527e-06
1.0451e-05
6.52255e-06
2.68259e-06
7.49405e-06
1.22428e-06
8.04217e-06
4.65554e-06
8.76567e-06
7.57753e-07
9.34687e-06
4.18482e-06
9.89491e-06
2.5334e-07
1.05694e-05
3.45161e-06
1.08713e-05
-2.66069e-07
1.15462e-05
2.71614e-06
1.16832e-05
-5.3121e-07
1.2274e-05
1.85494e-06
1.22585e-05
-1.07799e-06
1.28552e-05
9.39841e-07
1.26131e-05
-1.66607e-06
1.31164e-05
-1.50762e-07
1.24423e-05
-2.18318e-06
1.28995e-05
-1.19596e-06
-2.04752e-06
1.22587e-05
7.81834e-06
2.66076e-06
8.73584e-06
1.50171e-06
9.62027e-06
4.88894e-06
1.0307e-05
1.09745e-06
1.12389e-05
4.18226e-06
1.16791e-05
6.46702e-07
1.2554e-05
3.32189e-06
1.27639e-05
1.8564e-07
1.35686e-05
2.49322e-06
1.36608e-05
-1.12931e-07
1.43295e-05
1.63119e-06
1.42713e-05
-6.35371e-07
1.47923e-05
7.54276e-07
1.45423e-05
-1.12854e-06
1.49151e-05
-2.77708e-07
1.44133e-05
-1.47352e-06
1.46397e-05
-1.24387e-06
-1.55475e-06
1.42994e-05
9.1619e-06
2.62965e-06
1.01578e-05
1.88236e-06
1.14676e-05
4.86645e-06
1.20931e-05
1.65623e-06
1.32375e-05
4.10825e-06
1.36145e-05
1.22934e-06
1.46182e-05
3.1735e-06
1.48148e-05
7.4821e-07
1.56602e-05
2.31521e-06
1.57491e-05
3.85483e-07
1.64433e-05
1.44851e-06
1.63775e-05
-1.26662e-07
1.68716e-05
6.47262e-07
1.66845e-05
-6.07501e-07
1.6931e-05
-2.36755e-07
1.66702e-05
-9.67576e-07
1.67016e-05
-1.06473e-06
-1.1872e-06
1.65139e-05
1.06781e-05
2.57106e-06
1.1669e-05
2.47174e-06
1.32712e-05
4.74257e-06
1.3939e-05
2.34598e-06
1.53011e-05
3.97195e-06
1.5732e-05
1.89659e-06
1.68738e-05
3.01027e-06
1.71032e-05
1.38525e-06
1.80402e-05
2.14112e-06
1.81542e-05
9.42278e-07
1.88388e-05
1.35018e-06
1.88279e-05
3.94558e-07
1.93136e-05
6.04488e-07
1.92052e-05
-1.14127e-07
1.94273e-05
-1.25467e-07
1.93364e-05
-5.92776e-07
1.93444e-05
-8.27977e-07
-9.39541e-07
1.93049e-05
1.24896e-05
2.42673e-06
1.3569e-05
3.19354e-06
1.54131e-05
4.58487e-06
1.62688e-05
3.03717e-06
1.77816e-05
3.85378e-06
1.83549e-05
2.57141e-06
1.95353e-05
2.94173e-06
1.98897e-05
2.01416e-06
2.07842e-05
2.11457e-06
2.10299e-05
1.45746e-06
2.17013e-05
1.34475e-06
2.1852e-05
8.25813e-07
2.2323e-05
6.36055e-07
2.23908e-05
2.54581e-07
2.26132e-05
2.91219e-08
2.25817e-05
-2.36698e-07
2.25193e-05
-4.8233e-07
-7.10747e-07
2.25323e-05
1.47766e-05
1.83475e-06
1.5908e-05
4.09731e-06
1.76889e-05
4.71327e-06
1.8656e-05
3.81814e-06
2.02447e-05
3.83893e-06
2.115e-05
3.07452e-06
2.24155e-05
2.92826e-06
2.30996e-05
2.43744e-06
2.39731e-05
2.2171e-06
2.44362e-05
1.84598e-06
2.49998e-05
1.52765e-06
2.53153e-05
1.1591e-06
2.56486e-05
8.64393e-07
2.58776e-05
5.16578e-07
2.60148e-05
3.14313e-07
2.60598e-05
8.26908e-08
2.60176e-05
-1.22186e-07
-2.45376e-07
2.58261e-05
1.68877e-05
1.85784e-06
1.84023e-05
4.86164e-06
2.03843e-05
4.86952e-06
2.18172e-05
4.33745e-06
2.33967e-05
4.01627e-06
2.45343e-05
3.50477e-06
2.56861e-05
3.16346e-06
2.65751e-05
2.77401e-06
2.74344e-05
2.43572e-06
2.81457e-05
2.07514e-06
2.87729e-05
1.7209e-06
2.9264e-05
1.38061e-06
2.96995e-05
1.04922e-06
2.99749e-05
7.78866e-07
3.02049e-05
5.487e-07
3.03191e-05
3.70018e-07
3.03364e-05
2.06714e-07
9.11501e-08
3.02998e-05
1.94087e-05
1.97463e-06
2.14204e-05
5.34698e-06
2.36015e-05
5.0373e-06
2.54622e-05
4.61829e-06
2.7138e-05
4.26538e-06
2.85151e-05
3.83981e-06
2.9756e-05
3.43556e-06
3.08597e-05
3.0013e-06
3.1853e-05
2.60431e-06
3.27072e-05
2.23551e-06
3.34162e-05
1.8917e-06
3.39731e-05
1.58623e-06
3.43661e-05
1.31754e-06
3.46469e-05
1.06548e-06
3.48165e-05
8.6796e-07
3.49091e-05
6.9865e-07
3.4922e-05
5.5979e-07
4.43528e-07
3.48826e-05
2.2778e-05
2.22861e-06
2.51116e-05
5.67851e-06
2.74257e-05
5.23125e-06
2.9545e-05
4.78538e-06
3.14701e-05
4.3914e-06
3.31977e-05
3.93222e-06
3.47588e-05
3.47819e-06
3.61224e-05
3.03791e-06
3.7276e-05
2.66844e-06
3.82014e-05
2.36733e-06
3.88792e-05
2.11974e-06
3.93501e-05
1.89332e-06
3.96533e-05
1.67985e-06
3.98184e-05
1.46896e-06
3.99171e-05
1.25631e-06
3.99598e-05
1.06697e-06
3.9957e-05
9.08549e-07
7.54588e-07
3.9941e-05
2.25448e-05
2.32871e-06
2.50708e-05
5.53085e-06
2.75878e-05
4.96172e-06
2.98808e-05
4.54173e-06
3.188e-05
4.23026e-06
3.35835e-05
3.8561e-06
3.50307e-05
3.45497e-06
3.62488e-05
3.05778e-06
3.72811e-05
2.70195e-06
3.81369e-05
2.41849e-06
3.8846e-05
2.17972e-06
3.941e-05
1.97546e-06
3.98512e-05
1.77859e-06
4.01928e-05
1.57912e-06
4.04413e-05
1.37781e-06
4.06139e-05
1.20185e-06
4.07389e-05
1.03677e-06
8.94294e-07
4.08063e-05
2.0302e-05
2.12861e-06
2.24866e-05
5.19926e-06
2.46445e-05
4.55156e-06
2.66775e-05
4.10356e-06
2.84882e-05
3.85047e-06
3.00063e-05
3.59436e-06
3.12461e-05
3.30553e-06
3.22601e-05
2.9811e-06
3.31086e-05
2.64428e-06
3.38203e-05
2.36754e-06
3.44388e-05
2.10675e-06
3.49496e-05
1.90891e-06
3.53624e-05
1.72465e-06
3.56778e-05
1.54996e-06
3.58857e-05
1.3956e-06
3.60189e-05
1.24226e-06
3.60547e-05
1.13128e-06
9.7063e-07
3.60753e-05
1.80355e-05
1.99184e-06
2.01191e-05
4.56037e-06
2.19668e-05
4.06505e-06
2.36505e-05
3.66406e-06
2.51691e-05
3.43979e-06
2.64677e-05
3.26206e-06
2.75555e-05
3.04964e-06
2.84561e-05
2.77828e-06
2.92066e-05
2.47382e-06
2.98523e-05
2.19447e-06
3.03879e-05
1.94325e-06
3.08374e-05
1.7515e-06
3.11978e-05
1.58434e-06
3.14529e-05
1.4552e-06
3.16419e-05
1.31924e-06
3.17636e-05
1.19121e-06
3.18347e-05
1.10131e-06
9.65543e-07
3.18528e-05
1.65406e-05
1.82504e-06
1.79625e-05
4.2706e-06
1.94794e-05
3.62389e-06
2.09317e-05
3.19027e-06
2.22661e-05
2.96517e-06
2.34588e-05
2.81255e-06
2.45197e-05
2.61608e-06
2.54433e-05
2.37448e-06
2.622e-05
2.11751e-06
2.68602e-05
1.88029e-06
2.73676e-05
1.68321e-06
2.77627e-05
1.53294e-06
2.80667e-05
1.3965e-06
2.83012e-05
1.28999e-06
2.84702e-05
1.17769e-06
2.85817e-05
1.07753e-06
2.8666e-05
9.91209e-07
8.93418e-07
2.86937e-05
1.42904e-05
1.5687e-06
1.59178e-05
3.55189e-06
1.73958e-05
3.00376e-06
1.87142e-05
2.64181e-06
1.98901e-05
2.46445e-06
2.09492e-05
2.33103e-06
2.18794e-05
2.1636e-06
2.26711e-05
1.9677e-06
2.33216e-05
1.76619e-06
2.38313e-05
1.59157e-06
2.4224e-05
1.44264e-06
2.45307e-05
1.32087e-06
2.47678e-05
1.20498e-06
2.49645e-05
1.10049e-06
2.5118e-05
1.00053e-06
2.52387e-05
9.08211e-07
2.53353e-05
8.29254e-07
7.50782e-07
2.5397e-05
1.27877e-05
1.33945e-06
1.41975e-05
2.87636e-06
1.55708e-05
2.32057e-06
1.68027e-05
2.02948e-06
1.78684e-05
1.93549e-06
1.87916e-05
1.85925e-06
1.95946e-05
1.72677e-06
2.02824e-05
1.56741e-06
2.08545e-05
1.40784e-06
2.1317e-05
1.27517e-06
2.16777e-05
1.17265e-06
2.19582e-05
1.07994e-06
2.21748e-05
9.89196e-07
2.23422e-05
9.00812e-07
2.2469e-05
8.15765e-07
2.25654e-05
7.35453e-07
2.26355e-05
6.67162e-07
6.00271e-07
2.26846e-05
1.15833e-05
8.52176e-07
1.29209e-05
2.14071e-06
1.41358e-05
1.67149e-06
1.51822e-05
1.48524e-06
1.61042e-05
1.44475e-06
1.69207e-05
1.40196e-06
1.76142e-05
1.31784e-06
1.82017e-05
1.19736e-06
1.86854e-05
1.07688e-06
1.90691e-05
9.8766e-07
1.93719e-05
9.1745e-07
1.96009e-05
8.55829e-07
1.97744e-05
7.88108e-07
1.99047e-05
7.14196e-07
2.00075e-05
6.37222e-07
2.00845e-05
5.65671e-07
2.01389e-05
5.09165e-07
4.50285e-07
2.01773e-05
1.04849e-05
4.98314e-07
1.16365e-05
1.49052e-06
1.26702e-05
1.10632e-06
1.35791e-05
9.90379e-07
1.4394e-05
9.83352e-07
1.51225e-05
9.63471e-07
1.57392e-05
9.28359e-07
1.62542e-05
8.50321e-07
1.66787e-05
7.63761e-07
1.70294e-05
6.99683e-07
1.73165e-05
6.49768e-07
1.75512e-05
6.05181e-07
1.77422e-05
5.52281e-07
1.78907e-05
4.97679e-07
1.80086e-05
4.34111e-07
1.80924e-05
3.83169e-07
1.8151e-05
3.4332e-07
3.00808e-07
1.81866e-05
9.06478e-06
2.13284e-07
1.03132e-05
6.64923e-07
1.13861e-05
4.29004e-07
1.22821e-05
4.43409e-07
1.30463e-05
5.14283e-07
1.36868e-05
5.62175e-07
1.42239e-05
5.75017e-07
1.46757e-05
5.29641e-07
1.50484e-05
4.74085e-07
1.53489e-05
4.39262e-07
1.55834e-05
4.18647e-07
1.57609e-05
4.0031e-07
1.58902e-05
3.70661e-07
1.59849e-05
3.31175e-07
1.60502e-05
2.82005e-07
1.60931e-05
2.4286e-07
1.61298e-05
2.01532e-07
1.68164e-07
1.61528e-05
8.19413e-06
-2.97915e-08
9.30633e-06
-8.72085e-08
1.02388e-05
-1.66126e-07
1.1027e-05
-4.74461e-08
1.16731e-05
1.18656e-07
1.22032e-05
2.33447e-07
1.26359e-05
2.94873e-07
1.29894e-05
2.8232e-07
1.32691e-05
2.58276e-07
1.3487e-05
2.47713e-07
1.36503e-05
2.49647e-07
1.37678e-05
2.50261e-07
1.38513e-05
2.33107e-07
1.39031e-05
2.08415e-07
1.39283e-05
1.73179e-07
1.39366e-05
1.41672e-07
1.39109e-05
1.27944e-07
1.26049e-07
1.38499e-05
7.4292e-06
-5.82413e-07
8.44191e-06
-7.89277e-07
9.12823e-06
-5.60229e-07
9.63237e-06
-2.94365e-07
1.00245e-05
-5.77031e-08
1.03446e-05
8.57031e-08
1.05978e-05
1.70871e-07
1.07908e-05
1.77744e-07
1.09254e-05
1.74729e-07
1.10189e-05
1.72485e-07
1.10829e-05
1.75645e-07
1.11287e-05
1.71035e-07
1.1135e-05
1.7438e-07
1.11137e-05
1.62622e-07
1.10743e-05
1.34193e-07
1.10119e-05
1.17565e-07
1.09463e-05
1.01371e-07
9.40239e-08
1.08828e-05
6.63304e-06
-9.65235e-07
6.98437e-06
-8.70212e-07
7.11156e-06
-4.32896e-07
7.19152e-06
-1.50362e-07
7.28329e-06
3.81373e-08
7.40322e-06
1.15145e-07
7.5336e-06
1.51759e-07
7.62477e-06
1.61691e-07
7.69675e-06
1.4497e-07
7.7496e-06
1.32925e-07
7.78654e-06
1.27214e-07
7.80636e-06
1.19041e-07
7.81711e-06
1.14657e-07
7.80432e-06
1.13207e-07
7.76622e-06
9.99609e-08
7.71394e-06
9.02893e-08
7.65669e-06
7.40853e-08
6.60008e-08
7.59748e-06
4.42116e-06
3.76856e-06
3.53684e-06
3.56298e-06
3.74799e-06
3.97778e-06
4.21157e-06
4.42416e-06
4.59164e-06
4.72208e-06
4.82546e-06
4.90298e-06
4.96193e-06
5.00843e-06
5.0335e-06
5.04324e-06
5.03328e-06
5.01396e-06
-4.93888e-07
3.19617e-07
-9.73889e-07
3.07141e-07
-1.32942e-06
1.86121e-07
-1.40221e-06
-9.03241e-08
-1.12681e-06
-4.33517e-07
-5.89355e-07
-6.92982e-07
1.26612e-07
-8.69292e-07
9.40578e-07
-9.64685e-07
1.75398e-06
-9.61207e-07
2.4921e-06
-8.82486e-07
3.13017e-06
-7.78317e-07
3.62405e-06
-6.2899e-07
3.96441e-06
-4.69446e-07
4.17551e-06
-3.33861e-07
4.23881e-06
-1.78785e-07
4.1347e-06
-2.90219e-09
3.87728e-06
1.58959e-07
3.47198e-06
3.1605e-07
2.92291e-06
4.69449e-07
2.24559e-06
6.08431e-07
1.46906e-06
7.18637e-07
6.20679e-07
8.02856e-07
-3.06677e-07
8.96371e-07
-1.22509e-06
9.06319e-07
-2.06607e-06
8.5219e-07
-2.87897e-06
8.44424e-07
-3.5016e-06
6.7005e-07
-3.95192e-06
5.05581e-07
-4.3909e-06
4.99349e-07
-4.59694e-06
2.8459e-07
-4.56797e-06
7.0989e-08
-4.75169e-06
2.90216e-07
-4.9286e-06
2.99072e-07
-4.71103e-06
-5.43208e-08
-4.72468e-06
2.05264e-07
-5.29581e-06
7.60701e-07
-5.79133e-06
6.94281e-07
-5.88455e-06
3.46648e-07
-5.8288e-06
2.59913e-07
-5.80775e-06
3.26637e-07
-6.02466e-06
5.68152e-07
-6.41563e-06
7.45713e-07
-7.16586e-06
1.12533e-06
-8.50477e-06
1.76238e-06
-1.05029e-05
2.46383e-06
-1.27653e-05
2.73253e-06
-1.48125e-05
2.5219e-06
-1.65633e-05
2.25963e-06
-1.80482e-05
2.03359e-06
-1.93003e-05
1.83853e-06
-2.03549e-05
1.6807e-06
-2.12424e-05
1.55473e-06
-2.1977e-05
1.44424e-06
-2.25732e-05
1.34963e-06
-2.30417e-05
1.26727e-06
-2.34023e-05
1.20575e-06
-2.36626e-05
1.15328e-06
-2.38357e-05
1.11518e-06
-2.39256e-05
1.08228e-06
-2.39414e-05
1.0596e-06
-2.38923e-05
1.04704e-06
-2.37643e-05
1.02168e-06
-2.35698e-05
1.00957e-06
-2.33187e-05
1.00818e-06
-2.30051e-05
1.00156e-06
-2.26515e-05
1.01774e-06
-2.22488e-05
1.02505e-06
-2.18075e-05
1.04264e-06
-2.13425e-05
1.07464e-06
-2.08446e-05
1.09678e-06
-2.03048e-05
1.10911e-06
-1.97177e-05
1.11516e-06
-1.91011e-05
1.13731e-06
-1.84601e-05
1.16287e-06
-1.77637e-05
1.15591e-06
-1.70186e-05
1.15336e-06
-1.62695e-05
1.19283e-06
-1.55048e-05
1.21815e-06
-1.46811e-05
1.19904e-06
-1.38991e-05
1.27903e-06
-1.30909e-05
1.28618e-06
-1.2321e-05
1.35708e-06
-1.15607e-05
1.39614e-06
-1.08349e-05
1.45884e-06
-1.01701e-05
1.54932e-06
-9.5688e-06
1.63999e-06
-9.0208e-06
1.71654e-06
-8.51698e-06
1.78211e-06
-8.06324e-06
1.85035e-06
-7.64037e-06
1.89758e-06
-7.22475e-06
1.92018e-06
-6.80298e-06
1.92729e-06
-6.40675e-06
1.9671e-06
-6.02726e-06
2.00155e-06
-5.70696e-06
2.08498e-06
-5.44452e-06
2.17343e-06
-5.24368e-06
2.27134e-06
-5.05957e-06
2.32701e-06
-4.89046e-06
2.38312e-06
-4.71683e-06
2.42517e-06
-4.50395e-06
2.4362e-06
-4.26606e-06
2.45606e-06
-4.08564e-06
2.56099e-06
-3.89846e-06
2.61129e-06
-3.65051e-06
2.6058e-06
-3.41748e-06
2.6763e-06
-3.24049e-06
2.79342e-06
-3.12361e-06
2.91685e-06
-3.01874e-06
2.98119e-06
-2.85701e-06
2.96068e-06
-2.56004e-06
2.8482e-06
-2.13801e-06
2.73002e-06
-1.63745e-06
2.64698e-06
-1.07048e-06
2.56596e-06
-3.45302e-07
2.38603e-06
5.78735e-07
2.14988e-06
1.74049e-06
1.85926e-06
2.64898e-06
2.04649e-06
2.98996e-06
2.50886e-06
2.70663e-06
3.06335e-06
2.49008e-06
2.95322e-06
3.02147e-06
2.11243e-06
3.35013e-06
2.20798e-06
2.66787e-06
3.1476e-06
1.18446e-06
3.93429e-06
-4.7714e-07
4.05936e-06
-1.95471e-06
3.82072e-06
-3.23634e-06
3.59745e-06
-4.59682e-06
3.66402e-06
-5.59581e-06
3.28764e-06
-6.00831e-06
2.65744e-06
-7.18833e-06
3.4351e-06
-8.6172e-06
3.78985e-06
-9.12794e-06
2.84563e-06
-9.31355e-06
2.53302e-06
-9.59674e-06
2.69347e-06
-9.03308e-06
1.85153e-06
-8.34877e-06
1.75979e-06
-7.59319e-06
1.7593e-06
-6.41322e-06
1.3889e-06
-6.04762e-06
2.27477e-06
-5.92674e-06
2.60818e-06
-6.3571e-06
3.25213e-06
-7.02829e-06
3.59578e-06
-7.83961e-06
3.85033e-06
-8.87875e-06
4.1987e-06
-9.76176e-06
4.16087e-06
-1.0643e-05
4.28456e-06
-1.12644e-05
4.1732e-06
-1.18547e-05
4.29866e-06
-1.21747e-05
4.1992e-06
-1.22651e-05
4.13541e-06
-1.2229e-05
4.16236e-06
-1.21e-05
4.17949e-06
-1.19693e-05
4.27852e-06
-1.1823e-05
4.34222e-06
-1.08303e-05
3.55205e-06
-9.2751e-06
3.02308e-06
-8.26625e-06
3.53826e-06
-8.38062e-06
4.59468e-06
-8.79196e-06
4.82846e-06
-8.71022e-06
4.27042e-06
-8.50804e-06
4.10949e-06
-8.16359e-06
3.82788e-06
-8.16369e-06
4.11617e-06
-7.28487e-06
3.3645e-06
-5.19745e-06
2.34437e-06
-3.90412e-06
3.245e-06
-4.53874e-06
5.11783e-06
-7.18587e-06
7.36414e-06
-1.00652e-05
8.07941e-06
-1.18335e-05
7.63114e-06
-1.0476e-05
5.15714e-06
-5.90277e-06
2.68976e-06
-1.36784e-06
3.27737e-06
5.77482e-06
9.23865e-07
1.04144e-05
3.5636e-06
1.22278e-05
6.35197e-06
1.25024e-05
7.90083e-06
8.03814e-06
1.27931e-05
-3.77294e-07
5.14353e-07
-7.04344e-07
4.57763e-07
-7.46456e-07
5.88176e-08
-4.04345e-07
-5.94729e-07
2.41826e-07
-1.24004e-06
1.03918e-06
-1.65036e-06
1.87661e-06
-1.86588e-06
2.70215e-06
-1.94697e-06
3.46337e-06
-1.87618e-06
4.12467e-06
-1.69434e-06
4.6755e-06
-1.47739e-06
5.09695e-06
-1.19461e-06
5.37728e-06
-8.85448e-07
5.53656e-06
-6.20544e-07
5.565e-06
-3.31115e-07
5.47354e-06
-2.80126e-08
5.23718e-06
2.90851e-07
4.88814e-06
5.69203e-07
4.42474e-06
8.50564e-07
3.84489e-06
1.11512e-06
3.1855e-06
1.31648e-06
2.44871e-06
1.49015e-06
1.68507e-06
1.61917e-06
8.95336e-07
1.67257e-06
2.44177e-08
1.70744e-06
-6.18052e-07
1.49542e-06
-1.28766e-06
1.37607e-06
-2.06743e-06
1.34229e-06
-2.48477e-06
9.77875e-07
-2.54025e-06
4.10392e-07
-2.4182e-06
5.57724e-08
-2.60715e-06
5.99109e-07
-3.13058e-06
9.2463e-07
-3.21481e-06
1.72753e-07
-2.7407e-06
-4.71024e-08
-2.51519e-06
7.74519e-07
-3.08282e-06
1.45191e-06
-4.25695e-06
1.6935e-06
-5.93971e-06
2.25687e-06
-8.24889e-06
3.12692e-06
-1.11374e-05
3.88287e-06
-1.43666e-05
4.27407e-06
-1.73114e-05
4.39996e-06
-1.9518e-05
4.35093e-06
-2.1026e-05
4.37962e-06
-2.21057e-05
4.25306e-06
-2.31535e-05
4.04297e-06
-2.41459e-05
3.76021e-06
-2.50107e-05
3.444e-06
-2.57607e-05
3.1726e-06
-2.63708e-05
2.91306e-06
-2.68873e-05
2.73363e-06
-2.72739e-05
2.53533e-06
-2.75776e-05
2.40141e-06
-2.7779e-05
2.26227e-06
-2.78933e-05
2.15933e-06
-2.79166e-05
2.0628e-06
-2.78658e-05
1.99938e-06
-2.77317e-05
1.93186e-06
-2.75225e-05
1.8848e-06
-2.72428e-05
1.85407e-06
-2.69112e-05
1.82984e-06
-2.65208e-05
1.81277e-06
-2.60731e-05
1.80879e-06
-2.55826e-05
1.81457e-06
-2.50427e-05
1.83685e-06
-2.44657e-05
1.86311e-06
-2.38795e-05
1.92754e-06
-2.32498e-05
1.97134e-06
-2.25847e-05
2.01195e-06
-2.18793e-05
2.0365e-06
-2.11319e-05
2.05307e-06
-2.03608e-05
2.10322e-06
-1.95638e-05
2.15319e-06
-1.8724e-05
2.15267e-06
-1.78415e-05
2.15343e-06
-1.69727e-05
2.24739e-06
-1.60726e-05
2.27657e-06
-1.51009e-05
2.22378e-06
-1.41724e-05
2.39265e-06
-1.32313e-05
2.40983e-06
-1.23341e-05
2.55455e-06
-1.14499e-05
2.63547e-06
-1.06125e-05
2.76378e-06
-9.80075e-06
2.90871e-06
-9.04351e-06
3.08903e-06
-8.35874e-06
3.26799e-06
-7.72996e-06
3.41965e-06
-7.17838e-06
3.59168e-06
-6.67061e-06
3.70389e-06
-6.22121e-06
3.81106e-06
-5.77347e-06
3.83411e-06
-5.28213e-06
3.83945e-06
-4.74308e-06
3.82597e-06
-4.19257e-06
3.89853e-06
-3.7228e-06
4.08634e-06
-3.38227e-06
4.35852e-06
-3.13171e-06
4.558e-06
-2.9795e-06
4.75805e-06
-2.88334e-06
4.91057e-06
-2.79952e-06
5.00707e-06
-2.74499e-06
5.12039e-06
-2.69065e-06
5.28424e-06
-2.58369e-06
5.3495e-06
-2.45207e-06
5.37917e-06
-2.34073e-06
5.52189e-06
-2.22525e-06
5.69205e-06
-2.0687e-06
5.84934e-06
-1.84154e-06
5.9248e-06
-1.52381e-06
5.86113e-06
-1.07418e-06
5.62212e-06
-5.02481e-07
5.35726e-06
1.59404e-07
5.15548e-06
7.58353e-07
5.13653e-06
1.34617e-06
4.92717e-06
1.93863e-06
4.61627e-06
2.84066e-06
3.95865e-06
4.16615e-06
3.73361e-06
5.07002e-06
4.55107e-06
5.52134e-06
5.53294e-06
5.76085e-06
5.60082e-06
5.36274e-06
5.18862e-06
4.09513e-06
6.01576e-06
1.96161e-06
7.81662e-06
-3.6965e-07
8.7813e-06
-2.27407e-06
8.36599e-06
-3.78286e-06
7.68553e-06
-5.2808e-06
7.39668e-06
-6.52702e-06
7.18391e-06
-7.1078e-06
6.11326e-06
-7.65413e-06
5.32151e-06
-8.86059e-06
6.78706e-06
-1.00882e-05
7.42303e-06
-1.03196e-05
5.3781e-06
-1.01662e-05
4.57609e-06
-1.0368e-05
5.2461e-06
-9.50536e-06
3.30289e-06
-8.55109e-06
3.06418e-06
-7.35593e-06
2.94425e-06
-5.34901e-06
1.78054e-06
-4.14875e-06
3.5231e-06
-3.14149e-06
4.16442e-06
-2.85618e-06
5.62957e-06
-2.70014e-06
6.20992e-06
-2.94875e-06
7.01671e-06
-3.7698e-06
8.14878e-06
-4.88478e-06
8.62229e-06
-6.267e-06
9.19848e-06
-7.11192e-06
8.68053e-06
-7.90407e-06
8.87643e-06
-8.3954e-06
8.63542e-06
-8.80235e-06
8.63646e-06
-9.2667e-06
8.92279e-06
-9.50621e-06
8.81826e-06
-9.76016e-06
8.98223e-06
-1.02518e-05
9.46007e-06
-9.53191e-06
7.58055e-06
-7.5061e-06
5.55403e-06
-5.45663e-06
5.95566e-06
-5.42303e-06
9.14462e-06
-5.94944e-06
1.0008e-05
-6.24332e-06
9.33588e-06
-6.04521e-06
8.82032e-06
-6.02229e-06
8.39594e-06
-6.72231e-06
9.30002e-06
-5.609e-06
7.03133e-06
-4.47737e-06
6.06318e-06
-5.34655e-06
8.90771e-06
-8.571e-06
1.31815e-05
-1.26502e-05
1.66525e-05
-1.51574e-05
1.63655e-05
-1.56092e-05
1.42396e-05
-1.36633e-05
9.63027e-06
-7.93318e-06
3.87757e-06
-1.4335e-06
4.81132e-06
7.07059e-06
6.26744e-07
1.36171e-05
5.91329e-06
1.81298e-05
1.08336e-05
1.93836e-05
1.54502e-05
1.65748e-05
1.9782e-05
-2.3711e-07
5.54599e-07
-2.53613e-07
2.89912e-07
2.03225e-07
-5.77848e-07
1.01331e-06
-1.58252e-06
1.91165e-06
-2.31624e-06
2.75989e-06
-2.67549e-06
3.49322e-06
-2.77169e-06
4.08812e-06
-2.70838e-06
4.57243e-06
-2.52074e-06
4.94327e-06
-2.22029e-06
5.21249e-06
-1.89886e-06
5.43203e-06
-1.56433e-06
5.53927e-06
-1.13273e-06
5.55912e-06
-7.74197e-07
5.49204e-06
-3.98392e-07
5.35378e-06
-1.93696e-08
5.14708e-06
3.77214e-07
4.88003e-06
7.26618e-07
4.49656e-06
1.13369e-06
4.01494e-06
1.51116e-06
3.39869e-06
1.85708e-06
2.66708e-06
2.15189e-06
1.92732e-06
2.30374e-06
1.14309e-06
2.41007e-06
3.98091e-07
2.42141e-06
-4.26231e-07
2.29268e-06
-1.17613e-06
2.10907e-06
-1.51741e-06
1.70451e-06
-2.00104e-06
1.48977e-06
-2.5969e-06
1.04558e-06
-2.59286e-06
1.39719e-07
-1.99246e-06
1.23151e-07
-1.94653e-06
9.71025e-07
-3.15024e-06
1.47806e-06
-4.94579e-06
1.94554e-06
-6.91132e-06
2.98964e-06
-9.35133e-06
4.1002e-06
-1.23803e-05
4.8942e-06
-1.53844e-05
5.44002e-06
-1.78333e-05
5.79269e-06
-1.96733e-05
5.99648e-06
-2.10233e-05
5.92689e-06
-2.21798e-05
5.88595e-06
-2.32603e-05
5.78972e-06
-2.41042e-05
5.6105e-06
-2.47541e-05
5.32138e-06
-2.52501e-05
4.99016e-06
-2.56902e-05
4.6861e-06
-2.61089e-05
4.38373e-06
-2.64738e-05
4.09487e-06
-2.67931e-05
3.83068e-06
-2.70359e-05
3.61409e-06
-2.72446e-05
3.4215e-06
-2.73827e-05
3.26097e-06
-2.7453e-05
3.09818e-06
-2.74545e-05
2.97188e-06
-2.74008e-05
2.86543e-06
-2.72672e-05
2.77037e-06
-2.70775e-05
2.69804e-06
-2.683e-05
2.64336e-06
-2.65338e-05
2.61648e-06
-2.61812e-05
2.5893e-06
-2.57822e-05
2.57761e-06
-2.53372e-05
2.5803e-06
-2.48492e-05
2.59682e-06
-2.4324e-05
2.637e-06
-2.37379e-05
2.6598e-06
-2.31206e-05
2.75043e-06
-2.24601e-05
2.81014e-06
-2.18001e-05
2.9049e-06
-2.11271e-05
2.96492e-06
-2.0405e-05
2.9821e-06
-1.96478e-05
3.05047e-06
-1.88674e-05
3.13087e-06
-1.80605e-05
3.15494e-06
-1.72105e-05
3.16432e-06
-1.63481e-05
3.29235e-06
-1.54551e-05
3.31739e-06
-1.45134e-05
3.24174e-06
-1.35895e-05
3.49507e-06
-1.26817e-05
3.54803e-06
-1.18026e-05
3.73681e-06
-1.09498e-05
3.8826e-06
-1.01256e-05
4.05544e-06
-9.34388e-06
4.25879e-06
-8.58402e-06
4.48423e-06
-7.82992e-06
4.69204e-06
-7.16608e-06
4.96238e-06
-6.52775e-06
5.19189e-06
-5.93971e-06
5.37074e-06
-5.4175e-06
5.57696e-06
-4.95295e-06
5.68771e-06
-4.61149e-06
5.85087e-06
-4.23904e-06
5.8425e-06
-3.767e-06
5.80923e-06
-3.16409e-06
5.83945e-06
-2.5698e-06
6.1569e-06
-2.15395e-06
6.60283e-06
-1.81505e-06
6.89848e-06
-1.52914e-06
7.11806e-06
-1.25784e-06
7.28045e-06
-1.07531e-06
7.55167e-06
-9.41822e-07
7.8432e-06
-7.52389e-07
7.90799e-06
-5.70924e-07
7.9888e-06
-3.9533e-07
8.19917e-06
-1.21371e-07
8.33372e-06
2.27238e-07
8.45036e-06
5.57363e-07
8.57377e-06
8.66959e-07
8.54967e-06
1.27052e-06
8.16462e-06
1.77418e-06
7.69896e-06
2.50346e-06
7.21638e-06
3.29739e-06
7.18923e-06
3.90374e-06
7.16488e-06
4.16695e-06
7.14296e-06
4.21763e-06
6.68143e-06
4.53854e-06
6.22395e-06
5.03284e-06
6.87201e-06
5.57454e-06
7.87304e-06
5.66429e-06
8.31984e-06
4.49718e-06
8.98929e-06
2.38308e-06
1.06982e-05
3.55171e-07
1.24217e-05
-1.32421e-06
1.29552e-05
-2.70951e-06
1.2149e-05
-4.04814e-06
1.14037e-05
-5.60355e-06
1.12456e-05
-6.86647e-06
1.07293e-05
-7.76694e-06
9.3028e-06
-8.54767e-06
8.24498e-06
-9.14888e-06
9.5333e-06
-1.0021e-05
1.0657e-05
-1.02871e-05
7.96733e-06
-9.73111e-06
6.22406e-06
-9.85627e-06
7.68296e-06
-9.53716e-06
5.32431e-06
-9.05341e-06
4.87674e-06
-8.03805e-06
4.33607e-06
-6.12271e-06
2.21519e-06
-4.51744e-06
4.2643e-06
-3.25429e-06
5.33438e-06
-2.7866e-06
7.65268e-06
-2.28884e-06
8.25485e-06
-2.0582e-06
9.38347e-06
-1.98125e-06
1.08093e-05
-2.17502e-06
1.18042e-05
-3.09084e-06
1.34526e-05
-4.06671e-06
1.32352e-05
-4.95931e-06
1.3512e-05
-5.26352e-06
1.27876e-05
-5.52216e-06
1.27775e-05
-6.16517e-06
1.36463e-05
-6.573e-06
1.35378e-05
-6.84582e-06
1.34818e-05
-7.32768e-06
1.45403e-05
-8.53661e-06
1.39115e-05
-7.33828e-06
8.52793e-06
-4.75088e-06
6.90906e-06
-3.88662e-06
1.21911e-05
-5.05715e-06
1.5644e-05
-5.40833e-06
1.43655e-05
-4.5999e-06
1.27657e-05
-4.45239e-06
1.2767e-05
-5.31652e-06
1.49325e-05
-6.06632e-06
1.27627e-05
-5.76782e-06
1.06657e-05
-7.03601e-06
1.50458e-05
-1.01353e-05
2.16721e-05
-1.32913e-05
2.57382e-05
-1.55282e-05
2.49656e-05
-1.57944e-05
2.06275e-05
-1.38615e-05
1.42473e-05
-7.62725e-06
4.5471e-06
-6.40761e-07
5.1084e-06
6.73606e-06
8.69453e-07
1.27931e-05
8.47765e-06
1.81979e-05
1.45564e-05
2.13966e-05
2.13388e-05
2.37515e-05
2.35582e-05
-1.57023e-07
4.96098e-07
2.48047e-07
-3.10297e-07
1.15036e-06
-1.67399e-06
2.09761e-06
-2.72322e-06
2.83933e-06
-3.2495e-06
3.31103e-06
-3.33432e-06
3.5949e-06
-3.23092e-06
3.73298e-06
-3.00748e-06
3.81808e-06
-2.75329e-06
3.89035e-06
-2.43568e-06
3.95834e-06
-2.10684e-06
3.97821e-06
-1.71793e-06
3.96388e-06
-1.25248e-06
3.9064e-06
-8.54986e-07
3.8309e-06
-4.62521e-07
3.70519e-06
-3.40645e-08
3.5878e-06
3.6323e-07
3.34705e-06
8.43321e-07
3.00806e-06
1.35129e-06
2.62551e-06
1.78517e-06
2.16984e-06
2.21577e-06
1.65855e-06
2.57946e-06
1.07514e-06
2.81652e-06
3.98102e-07
3.02712e-06
-2.54862e-07
3.01849e-06
-8.93545e-07
2.87868e-06
-1.34795e-06
2.52499e-06
-2.06549e-06
2.39845e-06
-2.74506e-06
2.17209e-06
-3.11093e-06
1.40559e-06
-3.91376e-06
1.00644e-06
-5.14897e-06
1.53308e-06
-6.70126e-06
2.70964e-06
-9.14721e-06
4.00316e-06
-1.20855e-05
4.91671e-06
-1.46765e-05
5.66639e-06
-1.67656e-05
6.33136e-06
-1.8482e-05
6.78771e-06
-1.99359e-05
7.09791e-06
-2.11558e-05
7.23085e-06
-2.21329e-05
7.21642e-06
-2.29986e-05
7.06483e-06
-2.36651e-05
6.84785e-06
-2.41517e-05
6.59911e-06
-2.45087e-05
6.31913e-06
-2.4842e-05
6.03661e-06
-2.51487e-05
5.71452e-06
-2.54047e-05
5.39479e-06
-2.56367e-05
5.10745e-06
-2.58758e-05
4.86453e-06
-2.60855e-05
4.60875e-06
-2.6262e-05
4.40444e-06
-2.63893e-05
4.20622e-06
-2.64622e-05
4.03396e-06
-2.6498e-05
3.87943e-06
-2.64719e-05
3.73607e-06
-2.63874e-05
3.61611e-06
-2.62577e-05
3.52245e-06
-2.60622e-05
3.43328e-06
-2.57903e-05
3.35328e-06
-2.54483e-05
3.30866e-06
-2.50612e-05
3.28796e-06
-2.46384e-05
3.29335e-06
-2.41734e-05
3.30622e-06
-2.36665e-05
3.33129e-06
-2.31124e-05
3.37527e-06
-2.25615e-05
3.45515e-06
-2.19459e-05
3.53441e-06
-2.12787e-05
3.60447e-06
-2.06131e-05
3.76017e-06
-1.99729e-05
3.89305e-06
-1.93149e-05
3.9382e-06
-1.86252e-05
4.02898e-06
-1.78902e-05
4.11637e-06
-1.71629e-05
4.19528e-06
-1.63713e-05
4.19561e-06
-1.55431e-05
4.3491e-06
-1.46971e-05
4.38543e-06
-1.38453e-05
4.31553e-06
-1.28989e-05
4.5315e-06
-1.19915e-05
4.66464e-06
-1.11271e-05
4.9039e-06
-1.02827e-05
5.1019e-06
-9.52532e-06
5.38569e-06
-8.74589e-06
5.58364e-06
-8.0128e-06
5.8783e-06
-7.3007e-06
6.12159e-06
-6.63683e-06
6.45965e-06
-6.02605e-06
6.78209e-06
-5.41894e-06
6.99615e-06
-4.79978e-06
7.21518e-06
-4.24797e-06
7.42171e-06
-3.783e-06
7.68039e-06
-3.52807e-06
7.92848e-06
-3.39014e-06
8.08119e-06
-3.0279e-06
7.85128e-06
-2.45298e-06
7.94903e-06
-1.96721e-06
8.60254e-06
-1.52487e-06
8.99204e-06
-1.12519e-06
9.22523e-06
-7.51208e-07
9.41393e-06
-4.37413e-07
9.79056e-06
-1.62532e-07
1.01708e-05
1.44734e-07
1.02223e-05
5.06292e-07
1.02643e-05
9.06199e-07
1.04703e-05
1.31865e-06
1.06641e-05
1.67184e-06
1.08974e-05
1.88122e-06
1.11754e-05
2.07273e-06
1.11643e-05
2.24155e-06
1.07347e-05
2.44302e-06
1.01314e-05
3.02815e-06
9.23436e-06
3.87836e-06
8.99118e-06
4.69168e-06
9.03479e-06
5.4059e-06
9.08566e-06
5.62451e-06
9.0984e-06
5.50505e-06
9.05242e-06
5.46599e-06
9.71367e-06
5.55125e-06
1.06976e-05
5.1098e-06
1.15821e-05
3.59989e-06
1.31471e-05
1.41792e-06
1.54538e-05
-4.09168e-07
1.68279e-05
-1.68852e-06
1.67006e-05
-2.8799e-06
1.5677e-05
-4.07e-06
1.49286e-05
-5.15583e-06