/*--------------------------------*- C++ -*----------------------------------*\
| =========                 |                                                 |
| \\      /  F ield         | OpenFOAM: The Open Source CFD Toolbox           |
|  \\    /   O peration     | Version:  dev                                   |
|   \\  /    A nd           | Web:      http://www.openfoam.org               |
|    \\/     M anipulation  |                                                 |
\*---------------------------------------------------------------------------*/
FoamFile
{
    version     2.0;
    format      ascii;
    class       surfaceScalarField;
    object      phi_0;
    location    "9.163";
}
// * * * * * * * * * * * * * * * * * * * * * * * * * * * * * * * * * * * * * //

dimensions      [1 0 -1 0 0 0 0];

internalField   nonuniform List<scalar> 
24170
(
2.84122e-06
1.99563e-06
2.53804e-06
1.53861e-06
2.66084e-06
1.02171e-06
3.00377e-06
7.20066e-07
3.3352e-06
6.37601e-07
3.67174e-06
5.55517e-07
3.91375e-06
5.6231e-07
4.23184e-06
4.15454e-07
4.37953e-06
5.0783e-07
4.70774e-06
2.65442e-07
4.78441e-06
4.49749e-07
5.23168e-06
2.66337e-08
5.02955e-06
6.19946e-07
6.02639e-06
-6.2264e-07
5.41137e-06
9.39557e-07
6.26691e-06
-5.71132e-07
8.88007e-06
-2.36006e-06
-2.598e-07
9.34852e-06
4.54375e-06
2.67193e-06
4.59456e-06
2.76522e-06
4.75501e-06
2.06725e-06
5.00057e-06
1.59327e-06
5.26899e-06
1.39708e-06
5.57767e-06
1.18263e-06
5.85529e-06
1.13306e-06
6.16907e-06
8.64382e-07
6.42274e-06
9.39458e-07
6.88227e-06
4.17862e-07
7.0359e-06
8.41391e-07
7.81858e-06
-2.72004e-07
7.78917e-06
1.07735e-06
8.89514e-06
-1.34849e-06
8.67043e-06
1.48379e-06
1.07572e-05
-2.36304e-06
9.48301e-06
-8.31983e-07
-6.58311e-06
1.60072e-05
5.44502e-06
2.99743e-06
5.99739e-06
3.62376e-06
6.44543e-06
2.95144e-06
6.8121e-06
2.46198e-06
7.12591e-06
2.21838e-06
7.51727e-06
1.82416e-06
7.75832e-06
1.83003e-06
8.241e-06
1.22399e-06
8.32045e-06
1.61656e-06
9.03097e-06
3.83141e-07
8.96366e-06
1.51022e-06
9.83792e-06
-6.12959e-07
9.72585e-06
1.66214e-06
1.07172e-05
-1.92477e-06
1.08278e-05
1.73332e-06
1.21864e-05
-3.40398e-06
1.10674e-05
5.62593e-07
-8.86831e-06
1.35957e-05
5.69703e-06
3.52955e-06
6.97314e-06
3.90144e-06
7.63451e-06
3.75594e-06
8.46197e-06
2.9922e-06
8.73646e-06
3.19285e-06
9.57454e-06
2.12245e-06
9.63746e-06
2.79863e-06
1.04812e-05
1.30901e-06
1.03594e-05
2.57024e-06
1.11287e-05
3.57919e-07
1.0967e-05
2.33313e-06
1.15964e-05
-6.55861e-07
1.15087e-05
2.26991e-06
1.22e-05
-2.16033e-06
1.22966e-05
2.03792e-06
1.33256e-05
-4.08532e-06
1.19589e-05
2.24387e-06
-1.06948e-05
1.40506e-05
5.94858e-06
4.34131e-06
7.71886e-06
3.8373e-06
8.29293e-06
4.79323e-06
9.60064e-06
3.17467e-06
9.7981e-06
4.36753e-06
1.08785e-05
2.28944e-06
1.09153e-05
3.89431e-06
1.18523e-05
1.39244e-06
1.17705e-05
3.56493e-06
1.24391e-05
5.07003e-07
1.24139e-05
3.08404e-06
1.28793e-05
-4.7581e-07
1.2988e-05
2.73272e-06
1.33499e-05
-2.02086e-06
1.35546e-05
2.27856e-06
1.4579e-05
-4.72834e-06
1.39951e-05
3.16323e-06
-1.13817e-05
1.4984e-05
6.56014e-06
5.60764e-06
7.96672e-06
4.30115e-06
8.53252e-06
5.99509e-06
9.96544e-06
3.37437e-06
1.02891e-05
5.5483e-06
1.13933e-05
2.55271e-06
1.15953e-05
4.93371e-06
1.25307e-05
1.57511e-06
1.26346e-05
4.46122e-06
1.33179e-05
7.20051e-07
1.34837e-05
3.71331e-06
1.39823e-05
-2.66709e-07
1.43096e-05
3.0314e-06
1.45085e-05
-1.6705e-06
1.51281e-05
2.1481e-06
1.49815e-05
-4.1564e-06
1.68615e-05
1.65907e-06
-8.29551e-06
1.41061e-05
7.45128e-06
6.39978e-06
8.86937e-06
4.92857e-06
9.49529e-06
7.30396e-06
1.08282e-05
3.82772e-06
1.13352e-05
6.68516e-06
1.2446e-05
2.93703e-06
1.28295e-05
5.90614e-06
1.37408e-05
1.88604e-06
1.40772e-05
5.21684e-06
1.46704e-05
1.10609e-06
1.5113e-05
4.1398e-06
1.54507e-05
1.68706e-07
1.60581e-05
3.10785e-06
1.60774e-05
-1.08728e-06
1.69858e-05
1.77479e-06
1.61244e-05
-2.82e-06
1.77173e-05
4.84243e-07
-4.00077e-06
1.37918e-05
5.75563e-06
7.08238e-06
6.9339e-06
5.33452e-06
7.56004e-06
8.17584e-06
8.46135e-06
4.30848e-06
8.94204e-06
7.47682e-06
9.67572e-06
3.35763e-06
1.00938e-05
6.53775e-06
1.05957e-05
2.32835e-06
1.1113e-05
5.54444e-06
1.13602e-05
1.61611e-06
1.18776e-05
4.29573e-06
1.19869e-05
6.56971e-07
1.25334e-05
3.08817e-06
1.23886e-05
-4.7671e-07
1.30134e-05
1.56586e-06
1.23452e-05
-1.78306e-06
1.29529e-05
2.01285e-07
-2.36098e-06
1.16021e-05
6.82064e-06
7.84063e-06
7.98721e-06
5.99878e-06
8.72977e-06
9.1612e-06
9.62536e-06
5.00778e-06
1.03775e-05
8.19109e-06
1.10642e-05
4.00185e-06
1.18673e-05
6.94595e-06
1.227e-05
3.01483e-06
1.30324e-05
5.75924e-06
1.32322e-05
2.28974e-06
1.38703e-05
4.4353e-06
1.39038e-05
1.31147e-06
1.45055e-05
3.09522e-06
1.42891e-05
2.78168e-07
1.47519e-05
1.58249e-06
1.40963e-05
-7.03627e-07
1.45016e-05
1.73605e-07
-1.12524e-06
1.36025e-05
8.17123e-06
8.55873e-06
9.30895e-06
6.96598e-06
1.0431e-05
1.00196e-05
1.13157e-05
5.95663e-06
1.24388e-05
8.75088e-06
1.30285e-05
4.9436e-06
1.40417e-05
7.3232e-06
1.43619e-05
3.94639e-06
1.52634e-05
5.97942e-06
1.54263e-05
3.12753e-06
1.61436e-05
4.60811e-06
1.61237e-05
2.11876e-06
1.66532e-05
3.26739e-06
1.6417e-05
1.13397e-06
1.67602e-05
1.78772e-06
1.62316e-05
3.09851e-07
1.64215e-05
4.16381e-07
-2.2423e-07
1.5906e-05
9.55938e-06
9.36382e-06
1.08136e-05
8.12097e-06
1.23898e-05
1.07082e-05
1.32307e-05
7.21571e-06
1.45861e-05
9.31887e-06
1.51346e-05
6.14636e-06
1.62943e-05
7.74845e-06
1.66185e-05
5.05054e-06
1.75718e-05
6.30345e-06
1.7741e-05
4.10063e-06
1.84889e-05
4.87382e-06
1.84611e-05
3.04468e-06
1.8972e-05
3.55584e-06
1.87828e-05
2.03003e-06
1.90061e-05
2.19081e-06
1.86946e-05
1.17502e-06
1.8688e-05
9.15696e-07
5.42983e-07
1.8359e-05
1.11246e-05
1.01898e-05
1.24082e-05
9.57564e-06
1.43043e-05
1.13851e-05
1.52239e-05
8.67776e-06
1.68216e-05
9.9007e-06
1.74528e-05
7.49826e-06
1.87674e-05
8.22837e-06
1.91439e-05
6.28885e-06
2.01972e-05
6.6948e-06
2.03976e-05
5.1909e-06
2.1143e-05
5.27467e-06
2.11734e-05
4.03152e-06
2.1679e-05
3.95049e-06
2.1557e-05
2.95001e-06
2.17591e-05
2.6952e-06
2.16008e-05
1.95469e-06
2.15476e-05
1.52079e-06
1.18261e-06
2.13955e-05
1.30044e-05
1.10949e-05
1.44132e-05
1.12511e-05
1.65721e-05
1.21166e-05
1.77123e-05
1.02108e-05
1.94777e-05
1.05774e-05
2.02798e-05
8.91813e-06
2.16501e-05
8.86701e-06
2.21696e-05
7.57555e-06
2.31924e-05
7.28942e-06
2.35421e-05
6.2818e-06
2.42833e-05
5.81257e-06
2.44758e-05
4.9737e-06
2.49599e-05
4.46477e-06
2.50048e-05
3.78814e-06
2.51889e-05
3.28906e-06
2.5075e-05
2.75477e-06
2.49272e-05
2.27859e-06
1.82771e-06
2.48185e-05
1.5336e-05
1.15921e-05
1.68216e-05
1.31784e-05
1.89419e-05
1.31948e-05
2.02372e-05
1.18685e-05
2.21122e-05
1.13975e-05
2.32782e-05
1.02035e-05
2.47528e-05
9.60475e-06
2.56156e-05
8.69974e-06
2.66254e-05
8.05506e-06
2.71954e-05
7.28587e-06
2.78276e-05
6.57698e-06
2.81832e-05
5.84898e-06
2.85219e-05
5.20874e-06
2.87241e-05
4.54331e-06
2.88052e-05
4.04611e-06
2.8762e-05
3.53512e-06
2.86141e-05
3.07824e-06
2.71766e-06
2.82964e-05
1.74301e-05
1.26768e-05
1.93833e-05
1.49117e-05
2.17554e-05
1.42825e-05
2.35447e-05
1.32645e-05
2.54199e-05
1.24277e-05
2.68261e-05
1.14319e-05
2.82016e-05
1.05975e-05
2.92908e-05
9.73362e-06
3.03071e-05
8.92894e-06
3.11381e-05
8.12591e-06
3.18384e-05
7.35154e-06
3.23641e-05
6.61782e-06
3.27956e-05
5.91546e-06
3.30291e-05
5.30549e-06
3.31871e-05
4.75731e-06
3.31996e-05
4.28241e-06
3.30975e-05
3.84315e-06
3.46892e-06
3.29263e-05
1.99812e-05
1.38209e-05
2.24641e-05
1.62857e-05
2.50514e-05
1.53027e-05
2.72741e-05
1.43512e-05
2.92626e-05
1.34504e-05
3.09282e-05
1.2484e-05
3.24206e-05
1.15416e-05
3.37382e-05
1.05876e-05
3.48916e-05
9.69327e-06
3.58564e-05
8.85159e-06
3.66249e-05
8.06112e-06
3.71957e-05
7.33575e-06
3.75615e-05
6.67103e-06
3.77845e-05
6.04892e-06
3.78682e-05
5.50886e-06
3.78499e-05
5.02104e-06
3.77346e-05
4.58155e-06
4.18045e-06
3.75551e-05
2.33116e-05
1.4722e-05
2.61375e-05
1.72259e-05
2.88748e-05
1.60915e-05
3.1369e-05
1.50804e-05
3.3626e-05
1.41099e-05
3.56495e-05
1.30762e-05
3.74586e-05
1.20602e-05
3.90174e-05
1.10795e-05
4.03115e-05
1.01949e-05
4.13235e-05
9.40254e-06
4.20398e-05
8.6858e-06
4.25118e-05
8.01292e-06
4.27809e-05
7.37743e-06
4.28844e-05
6.77e-06
4.28968e-05
6.19014e-06
4.28269e-05
5.66402e-06
4.2691e-05
5.18829e-06
4.73251e-06
4.2526e-05
2.30029e-05
1.50179e-05
2.59316e-05
1.71831e-05
2.88097e-05
1.59207e-05
3.1412e-05
1.49377e-05
3.36758e-05
1.40531e-05
3.56044e-05
1.31031e-05
3.72371e-05
1.21366e-05
3.86038e-05
1.11924e-05
3.97485e-05
1.03128e-05
4.06789e-05
9.53059e-06
4.14267e-05
8.81548e-06
4.19946e-05
8.15881e-06
4.24067e-05
7.53483e-06
4.26879e-05
6.93554e-06
4.28484e-05
6.3633e-06
4.29092e-05
5.84819e-06
4.28984e-05
5.3662e-06
4.92054e-06
4.28116e-05
2.06267e-05
1.43705e-05
2.30914e-05
1.64219e-05
2.55014e-05
1.51197e-05
2.77494e-05
1.414e-05
2.97407e-05
1.33429e-05
3.1406e-05
1.2535e-05
3.27674e-05
1.16989e-05
3.38795e-05
1.08401e-05
3.48011e-05
9.99183e-06
3.55626e-05
9.22858e-06
3.62029e-05
8.50681e-06
3.67055e-05
7.87425e-06
3.70833e-05
7.27924e-06
3.7335e-05
6.7225e-06
3.74567e-05
6.21113e-06
3.74868e-05
5.72789e-06
3.74061e-05
5.30777e-06
4.85449e-06
3.7296e-05
1.82356e-05
1.32422e-05
2.05296e-05
1.49552e-05
2.25417e-05
1.38898e-05
2.43676e-05
1.30053e-05
2.6006e-05
1.22781e-05
2.7404e-05
1.15863e-05
2.85756e-05
1.08599e-05
2.95419e-05
1.00864e-05
3.03413e-05
9.3028e-06
3.10155e-05
8.5692e-06
3.15565e-05
7.8911e-06
3.19902e-05
7.29661e-06
3.23107e-05
6.75068e-06
3.25079e-05
6.26589e-06
3.26232e-05
5.7961e-06
3.26554e-05
5.36131e-06
3.26255e-05
4.98185e-06
4.57149e-06
3.25321e-05
1.66868e-05
1.19598e-05
1.82379e-05
1.36253e-05
1.98641e-05
1.24697e-05
2.14123e-05
1.16047e-05
2.28274e-05
1.09279e-05
2.40897e-05
1.03108e-05
2.5206e-05
9.64937e-06
2.6168e-05
8.95656e-06
2.69662e-05
8.26924e-06
2.76095e-05
7.62505e-06
2.81042e-05
7.04446e-06
2.84722e-05
6.53009e-06
2.87358e-05
6.05121e-06
2.89173e-05
5.62246e-06
2.90201e-05
5.20921e-06
2.90553e-05
4.83109e-06
2.90523e-05
4.48332e-06
4.13903e-06
2.89816e-05
1.44223e-05
1.0392e-05
1.61311e-05
1.17335e-05
1.7668e-05
1.07453e-05
1.90389e-05
1.00065e-05
2.02606e-05
9.43437e-06
2.13563e-05
8.89413e-06
2.2311e-05
8.32111e-06
2.31154e-05
7.73162e-06
2.37666e-05
7.15464e-06
2.42663e-05
6.62366e-06
2.46415e-05
6.13637e-06
2.49219e-05
5.69367e-06
2.5124e-05
5.27569e-06
2.5276e-05
4.88829e-06
2.53736e-05
4.52493e-06
2.543e-05
4.18874e-06
2.54513e-05
3.8823e-06
3.58801e-06
2.54291e-05
1.2932e-05
8.9751e-06
1.43688e-05
9.85584e-06
1.57657e-05
8.91151e-06
1.70194e-05
8.30015e-06
1.8104e-05
7.86942e-06
1.90421e-05
7.44509e-06
1.9854e-05
6.96673e-06
2.05436e-05
6.47263e-06
2.11101e-05
5.99415e-06
2.15597e-05
5.55846e-06
2.19007e-05
5.16749e-06
2.2154e-05
4.80072e-06
2.23359e-05
4.45196e-06
2.24604e-05
4.12217e-06
2.25366e-05
3.8123e-06
2.25746e-05
3.52432e-06
2.25783e-05
3.26286e-06
3.01294e-06
2.25532e-05
1.17074e-05
7.20291e-06
1.30492e-05
7.9225e-06
1.4263e-05
7.12307e-06
1.53142e-05
6.66694e-06
1.62429e-05
6.3451e-06
1.70627e-05
6.01464e-06
1.77547e-05
5.64523e-06
1.83367e-05
5.24863e-06
1.88094e-05
4.86545e-06
1.9178e-05
4.52607e-06
1.94603e-05
4.21709e-06
1.96632e-05
3.92826e-06
1.98054e-05
3.64598e-06
1.98982e-05
3.37149e-06
1.99572e-05
3.1084e-06
1.99828e-05
2.866e-06
1.99805e-05
2.64968e-06
2.43912e-06
1.99562e-05
1.05591e-05
5.55004e-06
1.17131e-05
6.1069e-06
1.2745e-05
5.45075e-06
1.3657e-05
5.11669e-06
1.44735e-05
4.88717e-06
1.51986e-05
4.64035e-06
1.58085e-05
4.37902e-06
1.63142e-05
4.0804e-06
1.67271e-05
3.78396e-06
1.70636e-05
3.52032e-06
1.73322e-05
3.27985e-06
1.75437e-05
3.05384e-06
1.77055e-05
2.82988e-06
1.78187e-05
2.61533e-06
1.78952e-05
2.4037e-06
1.79319e-05
2.2168e-06
1.79385e-05
2.04955e-06
1.88712e-06
1.79155e-05
9.12327e-06
4.12533e-06
1.03766e-05
4.17752e-06
1.14443e-05
3.73157e-06
1.23342e-05
3.58313e-06
1.30903e-05
3.4878e-06
1.37208e-05
3.36439e-06
1.42473e-05
3.20438e-06
1.46873e-05
2.9905e-06
1.50456e-05
2.77591e-06
1.53289e-05
2.58999e-06
1.55425e-05
2.42467e-06
1.56952e-05
2.26791e-06
1.57955e-05
2.10718e-06
1.58574e-05
1.94463e-06
1.58859e-05
1.78184e-06
1.58879e-05
1.6389e-06
1.58793e-05
1.50048e-06
1.37694e-06
1.58516e-05
8.23017e-06
2.75145e-06
9.35236e-06
2.39903e-06
1.02737e-05
2.17894e-06
1.10486e-05
2.18729e-06
1.16807e-05
2.23854e-06
1.21967e-05
2.23211e-06
1.26152e-05
2.1699e-06
1.29541e-05
2.03694e-06
1.32182e-05
1.89992e-06
1.34193e-05
1.78197e-06
1.35636e-05
1.68059e-06
1.36594e-05
1.58202e-06
1.37175e-05
1.47084e-06
1.37401e-05
1.35759e-06
1.3732e-05
1.24118e-06
1.37038e-05
1.13512e-06
1.36383e-05
1.05199e-06
9.86093e-07
1.35336e-05
7.45699e-06
1.07715e-06
8.46483e-06
7.74896e-07
9.12897e-06
9.23961e-07
9.61431e-06
1.12213e-06
9.99081e-06
1.28688e-06
1.0297e-05
1.35312e-06
1.05364e-05
1.35967e-06
1.07158e-05
1.2893e-06
1.08376e-05
1.21405e-06
1.09182e-05
1.14322e-06
1.09684e-05
1.08004e-06
1.0998e-05
1.01192e-06
1.0984e-05
9.56049e-07
1.09381e-05
8.87933e-07
1.0871e-05
8.07433e-07
1.07777e-05
7.43287e-07
1.06782e-05
6.82866e-07
6.33954e-07
1.05788e-05
6.63731e-06
-2.32248e-07
6.97242e-06
-1.25488e-07
7.07747e-06
2.76906e-07
7.14332e-06
5.25088e-07
7.22644e-06
6.77769e-07
7.33995e-06
7.16702e-07
7.46387e-06
7.15434e-07
7.54772e-06
6.88344e-07
7.61289e-06
6.36313e-07
7.65857e-06
5.91142e-07
7.68644e-06
5.53544e-07
7.69395e-06
5.15131e-07
7.68905e-06
4.82504e-07
7.65648e-06
4.54255e-07
7.59502e-06
4.15972e-07
7.51636e-06
3.83439e-07
7.43026e-06
3.45593e-07
3.14971e-07
7.34186e-06
4.43412e-06
3.77851e-06
3.54507e-06
3.57285e-06
3.76121e-06
3.99348e-06
4.2285e-06
4.4407e-06
4.60611e-06
4.73283e-06
4.82979e-06
4.89753e-06
4.9432e-06
4.97234e-06
4.97595e-06
4.96068e-06
4.92197e-06
4.86805e-06
-5.41898e-07
-4.62539e-07
-1.08776e-06
-4.80128e-07
-1.5187e-06
-6.00405e-07
-1.67585e-06
-8.70761e-07
-1.49413e-06
-1.20731e-06
-1.05761e-06
-1.46372e-06
-4.47139e-07
-1.64075e-06
2.58433e-07
-1.73889e-06
9.62087e-07
-1.73963e-06
1.59052e-06
-1.66608e-06
2.11938e-06
-1.56682e-06
2.50503e-06
-1.42205e-06
2.73843e-06
-1.26687e-06
2.8422e-06
-1.13362e-06
2.79675e-06
-9.79018e-07
2.58373e-06
-8.03666e-07
2.2167e-06
-6.4131e-07
1.70063e-06
-4.82337e-07
1.03943e-06
-3.25943e-07
2.47677e-07
-1.82752e-07
-6.44275e-07
-6.78771e-08
-1.61903e-06
3.12936e-08
-2.6679e-06
1.28589e-07
-3.7094e-06
1.52595e-07
-4.67822e-06
1.13587e-07
-5.62005e-06
1.20538e-07
-6.3811e-06
-3.17812e-08
-6.95711e-06
-2.00898e-07
-7.5301e-06
-1.93672e-07
-7.87777e-06
-3.90779e-07
-7.95989e-06
-6.15162e-07
-8.23904e-06
-4.0225e-07
-8.53602e-06
-3.64644e-07
-8.40646e-06
-7.21282e-07
-8.44523e-06
-4.96704e-07
-9.05488e-06
7.67975e-08
-9.66472e-06
9.606e-08
-9.86997e-06
-2.24127e-07
-9.87664e-06
-3.16217e-07
-9.87602e-06
-2.47953e-07
-1.00342e-05
-6.21539e-08
-1.04146e-05
1.76876e-07
-1.11636e-05
5.87649e-07
-1.24621e-05
1.21264e-06
-1.44232e-05
1.94651e-06
-1.67162e-05
2.29806e-06
-1.8837e-05
2.14154e-06
-2.06586e-05
1.8968e-06
-2.22024e-05
1.68404e-06
-2.35029e-05
1.50383e-06
-2.45967e-05
1.36234e-06
-2.55158e-05
1.2547e-06
-2.62737e-05
1.16218e-06
-2.68863e-05
1.08759e-06
-2.73635e-05
1.02491e-06
-2.77256e-05
9.84454e-07
-2.79812e-05
9.54724e-07
-2.81432e-05
9.39816e-07
-2.82145e-05
9.29679e-07
-2.82037e-05
9.29908e-07
-2.81225e-05
9.43499e-07
-2.79559e-05
9.43576e-07
-2.77146e-05
9.56094e-07
-2.74081e-05
9.79513e-07
-2.70302e-05
9.97778e-07
-2.66041e-05
1.03992e-06
-2.61202e-05
1.07283e-06
-2.559e-05
1.11704e-06
-2.50298e-05
1.17707e-06
-2.44294e-05
1.22672e-06
-2.37792e-05
1.26594e-06
-2.30715e-05
1.29655e-06
-2.23234e-05
1.3424e-06
-2.15435e-05
1.39456e-06
-2.07011e-05
1.41387e-06
-1.97973e-05
1.43148e-06
-1.88792e-05
1.49227e-06
-1.79433e-05
1.54563e-06
-1.6936e-05
1.54316e-06
-1.59634e-05
1.64407e-06
-1.49604e-05
1.67268e-06
-1.39922e-05
1.76451e-06
-1.30322e-05
1.8243e-06
-1.21048e-05
1.90521e-06
-1.12393e-05
2.01529e-06
-1.04425e-05
2.12775e-06
-9.7055e-06
2.22451e-06
-9.01889e-06
2.30751e-06
-8.39161e-06
2.39325e-06
-7.80586e-06
2.45661e-06
-7.23907e-06
2.49382e-06
-6.67802e-06
2.51293e-06
-6.15625e-06
2.56485e-06
-5.66519e-06
2.60992e-06
-5.25043e-06
2.70661e-06
-4.91335e-06
2.81096e-06
-4.65988e-06
2.92735e-06
-4.44542e-06
3.00197e-06
-4.2697e-06
3.07866e-06
-4.11009e-06
3.14031e-06
-3.92895e-06
3.17082e-06
-3.74024e-06
3.2118e-06
-3.62666e-06
3.34227e-06
-3.51841e-06
3.41925e-06
-3.36024e-06
3.44249e-06
-3.22687e-06
3.54525e-06
-3.15371e-06
3.69647e-06
-3.14319e-06
3.85996e-06
-3.1435e-06
3.96432e-06
-3.08184e-06
3.9818e-06
-2.87678e-06
3.90562e-06
-2.54205e-06
3.82739e-06
-2.12209e-06
3.78274e-06
-1.62496e-06
3.73645e-06
-9.53456e-07
3.58563e-06
-6.8634e-08
3.377e-06
1.07266e-06
3.10783e-06
1.98078e-06
3.31987e-06
2.32571e-06
3.81332e-06
2.03557e-06
4.38362e-06
1.84147e-06
4.2602e-06
2.40002e-06
3.42174e-06
2.70542e-06
3.5719e-06
1.92576e-06
4.56889e-06
3.05905e-07
5.38498e-06
-1.46794e-06
5.47879e-06
-3.03683e-06
5.20536e-06
-4.40192e-06
4.9572e-06
-5.84691e-06
5.00677e-06
-6.91274e-06
4.59037e-06
-7.33529e-06
3.87146e-06
-8.53003e-06
4.63693e-06
-1.0027e-05
5.04606e-06
-1.05726e-05
4.02534e-06
-1.07333e-05
3.62693e-06
-1.1023e-05
3.80137e-06
-1.04353e-05
2.89095e-06
-9.70318e-06
2.7483e-06
-8.90448e-06
2.73168e-06
-7.65195e-06
2.30399e-06
-7.23244e-06
3.1927e-06
-7.09249e-06
3.54484e-06
-7.55393e-06
4.21963e-06
-8.29263e-06
4.58066e-06
-9.20485e-06
4.85515e-06
-1.0396e-05
5.24124e-06
-1.14573e-05
5.21833e-06
-1.2559e-05
5.37754e-06
-1.33904e-05
5.26399e-06
-1.42074e-05
5.42953e-06
-1.47379e-05
5.35951e-06
-1.50192e-05
5.34602e-06
-1.51549e-05
5.45455e-06
-1.51524e-05
5.54207e-06
-1.51091e-05
5.73927e-06
-1.4992e-05
5.88851e-06
-1.38966e-05
5.09542e-06
-1.21559e-05
4.60279e-06
-1.09526e-05
5.26919e-06
-1.09143e-05
6.54313e-06
-1.11419e-05
6.89514e-06
-1.08108e-05
6.36366e-06
-1.03288e-05
6.25089e-06
-9.74509e-06
6.04914e-06
-9.45624e-06
6.35501e-06
-8.10205e-06
5.53036e-06
-5.44082e-06
4.43228e-06
-3.719e-06
5.41928e-06
-4.08878e-06
7.40425e-06
-6.63604e-06
9.87255e-06
-9.36641e-06
1.06413e-05
-1.09286e-05
1.02043e-05
-9.11829e-06
7.45983e-06
-3.9503e-06
4.81312e-06
9.51162e-07
5.60342e-06
8.60031e-06
3.13164e-06
1.33947e-05
5.96053e-06
1.50701e-05
8.88619e-06
1.51279e-05
1.04256e-05
1.0466e-05
1.52686e-05
-4.3199e-07
-1.01171e-06
-8.31684e-07
-1.07287e-06
-9.56403e-07
-1.46214e-06
-7.06488e-07
-2.10104e-06
-1.5871e-07
-2.73962e-06
5.37081e-07
-3.15331e-06
1.27243e-06
-3.3795e-06
1.99676e-06
-3.4743e-06
2.6569e-06
-3.41712e-06
3.21742e-06
-3.24876e-06
3.66755e-06
-3.04337e-06
3.98775e-06
-2.7688e-06
4.16575e-06
-2.46782e-06
4.22058e-06
-2.20912e-06
4.14227e-06
-1.91954e-06
3.94453e-06
-1.61755e-06
3.59785e-06
-1.29452e-06
3.13659e-06
-1.01096e-06
2.55896e-06
-7.23107e-07
1.86407e-06
-4.49027e-07
1.08667e-06
-2.36794e-07
2.30652e-07
-4.17994e-08
-6.53066e-07
9.64169e-08
-1.56803e-06
1.60744e-07
-2.55981e-06
2.18228e-07
-3.34233e-06
4.7301e-08
-4.13395e-06
-7.13911e-08
-5.04206e-06
-8.28108e-08
-5.60207e-06
-4.13197e-07
-5.80726e-06
-9.61576e-07
-5.78744e-06
-1.3398e-06
-6.04426e-06
-8.12484e-07
-6.68605e-06
-4.29218e-07
-6.9046e-06
-1.14959e-06
-6.49524e-06
-1.39224e-06
-6.27045e-06
-5.53374e-07
-6.77399e-06
1.23154e-07
-7.98207e-06
4.6162e-07
-9.62625e-06
1.04527e-06
-1.18137e-05
1.94987e-06
-1.4686e-05
2.74244e-06
-1.79656e-05
3.20875e-06
-2.10083e-05
3.41256e-06
-2.33375e-05
3.40604e-06
-2.49601e-05
3.48154e-06
-2.6109e-05
3.41299e-06
-2.71974e-05
3.2519e-06
-2.82279e-05
3.00803e-06
-2.91301e-05
2.72836e-06
-2.99136e-05
2.49299e-06
-3.05513e-05
2.26895e-06
-3.10909e-05
2.12871e-06
-3.14947e-05
1.96812e-06
-3.18113e-05
1.87635e-06
-3.20197e-05
1.77818e-06
-3.21336e-05
1.71684e-06
-3.21504e-05
1.66527e-06
-3.20873e-05
1.64836e-06
-3.1935e-05
1.62748e-06
-3.17013e-05
1.62718e-06
-3.13893e-05
1.64579e-06
-3.1019e-05
1.67216e-06
-3.05824e-05
1.70449e-06
-3.00813e-05
1.75067e-06
-2.95293e-05
1.80653e-06
-2.89196e-05
1.88011e-06
-2.82639e-05
1.95716e-06
-2.75909e-05
2.0742e-06
-2.68665e-05
2.17231e-06
-2.60997e-05
2.26785e-06
-2.52865e-05
2.34721e-06
-2.44206e-05
2.41164e-06
-2.35195e-05
2.5083e-06
-2.2586e-05
2.61186e-06
-2.16014e-05
2.66266e-06
-2.05599e-05
2.70194e-06
-1.95246e-05
2.84109e-06
-1.84563e-05
2.92535e-06
-1.73017e-05
2.90153e-06
-1.61798e-05
3.1106e-06
-1.50434e-05
3.17136e-06
-1.39477e-05
3.35666e-06
-1.28639e-05
3.47962e-06
-1.18274e-05
3.6455e-06
-1.08157e-05
3.82679e-06
-9.86062e-06
4.04869e-06
-8.983e-06
4.26785e-06
-8.16761e-06
4.45609e-06
-7.43876e-06
4.6648e-06
-6.76416e-06
4.8095e-06
-6.16153e-06
4.9495e-06
-5.57622e-06
4.99991e-06
-4.96234e-06
5.03027e-06
-4.31443e-06
5.03606e-06
-3.66798e-06
5.12786e-06
-3.11519e-06
5.33924e-06
-2.70884e-06
5.6469e-06
-2.41806e-06
5.89071e-06
-2.25451e-06
6.13696e-06
-2.16772e-06
6.33137e-06
-2.11109e-06
6.47126e-06
-2.10535e-06
6.63424e-06
-2.11864e-06
6.85342e-06
-2.08781e-06
6.97024e-06
-2.04784e-06
7.0614e-06
-2.03865e-06
7.27056e-06
-2.02133e-06
7.50102e-06
-1.96474e-06
7.73666e-06
-1.83552e-06
7.89562e-06
-1.61007e-06
7.91022e-06
-1.24716e-06
7.73946e-06
-7.62937e-07
7.54562e-06
-1.81922e-07
7.41073e-06
3.52673e-07
7.46671e-06
8.82738e-07
7.32028e-06
1.41231e-06
7.06946e-06
2.2536e-06
6.45329e-06
3.55426e-06
6.27857e-06
4.45318e-06
7.17305e-06
4.92958e-06
8.19045e-06
5.19644e-06
8.274e-06
4.74757e-06
7.937e-06
3.36291e-06
8.8697e-06
1.10503e-06
1.07248e-05
-1.32237e-06
1.16661e-05
-3.31199e-06
1.11836e-05
-4.89191e-06
1.04397e-05
-6.48182e-06
1.01185e-05
-7.81687e-06
9.86008e-06
-8.44942e-06
8.69229e-06
-9.01795e-06
7.73598e-06
-1.02182e-05
9.14877e-06
-1.14835e-05
9.90394e-06
-1.17529e-05
7.72255e-06
-1.15548e-05
6.70465e-06
-1.17525e-05
7.42086e-06
-1.08769e-05
5.35911e-06
-9.88376e-06
5.00497e-06
-8.64704e-06
4.85322e-06
-6.56384e-06
3.55445e-06
-5.28072e-06
5.28465e-06
-4.21578e-06
5.96117e-06
-3.93379e-06
7.50615e-06
-3.80502e-06
8.11041e-06
-4.10847e-06
8.95939e-06
-5.02009e-06
1.01768e-05
-6.26357e-06
1.07227e-05
-7.8417e-06
1.14193e-05
-8.876e-06
1.0906e-05
-9.88082e-06
1.11814e-05
-1.05569e-05
1.09847e-05
-1.11298e-05
1.10822e-05
-1.17703e-05
1.15814e-05
-1.21425e-05
1.16345e-05
-1.25101e-05
1.19956e-05
-1.3072e-05
1.27055e-05
-1.23074e-05
1.08994e-05
-1.01664e-05
8.81153e-06
-7.85525e-06
9.32698e-06
-7.61949e-06
1.30869e-05
-7.93966e-06
1.43254e-05
-8.00025e-06
1.38467e-05
-7.54736e-06
1.35229e-05
-7.31782e-06
1.32191e-05
-7.78277e-06
1.42324e-05
-6.24138e-06
1.18621e-05
-4.64864e-06
1.06847e-05
-5.18161e-06
1.36044e-05
-8.26846e-06
1.82163e-05
-1.22073e-05
2.21027e-05
-1.45356e-05
2.19269e-05
-1.48041e-05
1.95918e-05
-1.24183e-05
1.43522e-05
-6.01678e-06
8.21899e-06
7.62964e-07
9.63682e-06
9.91102e-06
4.9283e-06
1.67272e-05
1.09171e-05
2.12455e-05
1.61752e-05
2.23126e-05
2.08429e-05
2.18256e-05
2.25242e-05
-2.94958e-07
-1.65103e-06
-3.85874e-07
-1.9074e-06
-1.91395e-08
-2.75519e-06
6.9257e-07
-3.75362e-06
1.49364e-06
-4.49957e-06
2.24901e-06
-4.88315e-06
2.89486e-06
-5.00711e-06
3.40712e-06
-4.96976e-06
3.81063e-06
-4.8038e-06
4.09768e-06
-4.51949e-06
4.28082e-06
-4.21064e-06
4.4123e-06
-3.88689e-06
4.42334e-06
-3.46415e-06
4.34311e-06
-3.11387e-06
4.17564e-06
-2.73967e-06
3.93407e-06
-2.36116e-06
3.62103e-06
-1.95877e-06
3.23945e-06
-1.60152e-06
2.73624e-06
-1.18207e-06
2.13304e-06
-7.90195e-07
1.39122e-06
-4.23986e-07
5.40915e-07
-9.73838e-08
-3.27862e-07
8.28361e-08
-1.23198e-06
2.04754e-07
-2.10324e-06
2.34897e-07
-3.05337e-06
1.30298e-07
-3.95386e-06
-2.83436e-09
-4.42381e-06
-3.87341e-07
-5.02373e-06
-5.78252e-07
-5.78494e-06
-9.74774e-07
-5.93002e-06
-1.88315e-06
-5.39091e-06
-1.93463e-06
-5.34018e-06
-1.06714e-06
-6.52142e-06
-5.11994e-07
-8.27868e-06
-1.53016e-08
-1.02074e-05
1.07494e-06
-1.26734e-05
2.22546e-06
-1.56999e-05
3.08843e-06
-1.87494e-05
3.72505e-06
-2.12996e-05
4.15649e-06
-2.32817e-05
4.43224e-06
-2.47408e-05
4.43037e-06
-2.59678e-05
4.45239e-06
-2.71127e-05
4.41246e-06
-2.80193e-05
4.29917e-06
-2.87208e-05
4.07809e-06
-2.9257e-05
3.80568e-06
-2.97298e-05
3.55509e-06
-3.0175e-05
3.30524e-06
-3.05623e-05
3.07037e-06
-3.08992e-05
2.86014e-06
-3.11534e-05
2.70091e-06
-3.13713e-05
2.56802e-06
-3.15136e-05
2.46938e-06
-3.15837e-05
2.36915e-06
-3.15813e-05
2.30753e-06
-3.15199e-05
2.26876e-06
-3.13725e-05
2.24089e-06
-3.11624e-05
2.23701e-06
-3.0887e-05
2.25042e-06
-3.05565e-05
2.2961e-06
-3.01626e-05
2.34303e-06
-2.97152e-05
2.40427e-06
-2.92154e-05
2.48154e-06
-2.86667e-05
2.57335e-06
-2.80741e-05
2.68979e-06
-2.74127e-05
2.78784e-06
-2.67112e-05
2.95529e-06
-2.59541e-05
3.09068e-06
-2.51883e-05
3.26526e-06
-2.44084e-05
3.41187e-06
-2.35741e-05
3.50314e-06
-2.26932e-05
3.63916e-06
-2.17786e-05
3.79594e-06
-2.08311e-05
3.89719e-06
-1.98296e-05
3.96644e-06
-1.88052e-05
4.1621e-06
-1.77463e-05
4.2663e-06
-1.66303e-05
4.23326e-06
-1.55176e-05
4.54369e-06
-1.44174e-05
4.66246e-06
-1.33441e-05
4.90916e-06
-1.22944e-05
5.11642e-06
-1.12768e-05
5.34955e-06
-1.03045e-05
5.6073e-06
-9.35406e-06
5.88931e-06
-8.41119e-06
6.15225e-06
-7.56474e-06
6.47765e-06
-6.75111e-06
6.76283e-06
-5.99564e-06
6.98886e-06
-5.31477e-06
7.24259e-06
-4.70651e-06
7.39781e-06
-4.24201e-06
7.60809e-06
-3.77054e-06
7.64409e-06
-3.22166e-06
7.64636e-06
-2.54855e-06
7.69367e-06
-1.88405e-06
8.04616e-06
-1.41547e-06
8.55848e-06
-1.0522e-06
8.91815e-06
-7.66545e-07
9.1979e-06
-5.13292e-07
9.41958e-06
-3.63892e-07
9.76079e-06
-2.80068e-07
1.01367e-05
-1.54903e-07
1.02752e-05
-4.45844e-08
1.04355e-05
5.29798e-08
1.07412e-05
2.31624e-07
1.09806e-05
4.86859e-07
1.12012e-05
7.16872e-07
1.14412e-05
9.30139e-07
1.15215e-05
1.23766e-06
1.12173e-05
1.63642e-06
1.0828e-05
2.27302e-06
1.04068e-05
3.00555e-06
1.04882e-05
3.55945e-06
1.05875e-05
3.76591e-06
1.06759e-05
3.7218e-06
1.03183e-05
3.94345e-06
9.9599e-06
4.38565e-06
1.07116e-05
4.93521e-06
1.17866e-05
5.0167e-06
1.23144e-05
3.76313e-06
1.31384e-05
1.52577e-06
1.49912e-05
-5.75648e-07
1.6726e-05
-2.30305e-06
1.71836e-05
-3.75042e-06
1.6295e-05
-5.14564e-06
1.54752e-05
-6.77226e-06
1.52609e-05
-8.11278e-06
1.46963e-05
-9.08697e-06
1.31701e-05
-9.93386e-06
1.18793e-05
-1.05187e-05
1.30021e-05
-1.13685e-05
1.42469e-05
-1.16935e-05
1.14844e-05
-1.10939e-05
9.37601e-06
-1.11546e-05
1.08425e-05
-1.08371e-05
8.4315e-06
-1.03627e-05
7.83591e-06
-9.34328e-06
7.23274e-06
-7.39821e-06
4.89348e-06
-5.72428e-06
6.85949e-06
-4.39576e-06
7.94529e-06
-3.9378e-06
1.04011e-05
-3.48598e-06
1.10359e-05
-3.32742e-06
1.2203e-05
-3.33313e-06
1.37084e-05
-3.60495e-06
1.47836e-05
-4.64413e-06
1.66584e-05
-5.75872e-06
1.65165e-05
-6.84601e-06
1.69719e-05
-7.32706e-06
1.63119e-05
-7.70226e-06
1.63549e-05
-8.47049e-06
1.7541e-05
-8.98322e-06
1.77439e-05
-9.37426e-06
1.79422e-05
-9.90092e-06
1.94032e-05
-1.11237e-05
1.92275e-05
-9.9408e-06
1.34484e-05
-7.19127e-06
1.15069e-05
-6.06226e-06
1.76378e-05
-6.98446e-06
2.20314e-05
-7.13508e-06
2.12057e-05
-6.03537e-06
1.97652e-05
-5.72829e-06
2.00708e-05
-6.30812e-06
2.25681e-05
-6.75321e-06
2.03684e-05
-6.12204e-06
1.79286e-05
-7.05785e-06
2.237e-05
-9.82497e-06
2.95855e-05
-1.26545e-05
3.42247e-05
-1.46586e-05
3.34864e-05
-1.47486e-05
2.86069e-05
-1.23533e-05
2.15756e-05
-5.47099e-06
1.11922e-05
1.9019e-06
1.20403e-05
9.50046e-06
7.66607e-06
1.57131e-05
1.60885e-05
2.11347e-05
2.26234e-05
2.42738e-05
2.95432e-05
3.18301e-05
2.64062e-05
-2.09995e-07
-2.32134e-06
1.14478e-07
-3.09612e-06
9.21548e-07
-4.44661e-06
1.7773e-06
-5.51502e-06
2.43924e-06
-6.07882e-06
2.83858e-06
-6.20098e-06
3.05834e-06
-6.12497e-06
3.13334e-06
-5.91836e-06
3.15075e-06
-5.67512e-06
3.14855e-06
-5.36539e-06
3.13629e-06
-5.04367e-06
3.06736e-06
-4.66408e-06
2.95782e-06
-4.20974e-06
2.80489e-06
-3.82327e-06
2.63921e-06
-3.43876e-06
2.42334e-06
-3.01517e-06
2.21417e-06
-2.62205e-06
1.87135e-06
-2.14247e-06
1.42068e-06
-1.62773e-06
9.15081e-07
-1.17858e-06
3.29012e-07
-7.24906e-07
-3.05382e-07
-3.30965e-07
-1.03349e-06
-3.23592e-08
-1.83847e-06
1.72538e-07
-2.62055e-06
2.08085e-07
-3.39159e-06
1.28259e-07
-3.98076e-06
-2.09354e-07
-4.82018e-06
-3.12852e-07
-5.6708e-06
-4.87569e-07
-6.17823e-06
-1.24045e-06
-6.96699e-06
-1.65176e-06
-8.12071e-06
-1.12043e-06
-9.63606e-06
1.22891e-07
-1.20626e-05
1.4494e-06
-1.50509e-05
2.42995e-06
-1.77292e-05
3.25016e-06
-1.99407e-05
3.99435e-06
-2.17735e-05
4.53449e-06
-2.33205e-05
4.93157e-06
-2.46245e-05
5.14623e-06
-2.56838e-05
5.21563e-06
-2.66279e-05
5.14574e-06
-2.73673e-05
5.00257e-06
-2.79224e-05
4.82129e-06
-2.83339e-05
4.60939e-06
-2.8706e-05
4.39594e-06
-2.90429e-05
4.1419e-06
-2.93243e-05
3.88954e-06
-2.95766e-05
3.66969e-06
-2.98319e-05
3.49769e-06
-3.00558e-05
3.31435e-06
-3.02432e-05
3.18646e-06
-3.03766e-05
3.06701e-06
-3.04508e-05
2.97525e-06
-3.04836e-05
2.90327e-06
-3.04514e-05
2.84755e-06
-3.03546e-05
2.81374e-06
-3.02088e-05
2.80894e-06
-2.99942e-05
2.81114e-06
-2.9698e-05
2.82124e-06
-2.93237e-05
2.86915e-06
-2.88933e-05
2.94007e-06
-2.84191e-05
3.03934e-06
-2.78975e-05
3.1513e-06
-2.73282e-05
3.27553e-06
-2.67034e-05
3.41687e-06
-2.60753e-05
3.59603e-06
-2.53796e-05
3.77921e-06
-2.46198e-05
3.94391e-06
-2.3845e-05
4.19674e-06
-2.30912e-05
4.44435e-06
-2.23209e-05
4.5945e-06
-2.15139e-05
4.77905e-06
-2.06496e-05
4.96272e-06
-1.97884e-05
5.14464e-06
-1.88583e-05
5.22973e-06
-1.78773e-05
5.47117e-06
-1.68682e-05
5.60719e-06
-1.58536e-05
5.6012e-06
-1.47308e-05
5.88526e-06
-1.3633e-05
6.09904e-06
-1.25781e-05
6.41519e-06
-1.15403e-05
6.69075e-06
-1.0593e-05
7.05768e-06
-9.62693e-06
7.32826e-06
-8.70914e-06
7.69643e-06
-7.81609e-06
8.01052e-06
-6.97442e-06
8.41628e-06
-6.19552e-06
8.81494e-06
-5.43008e-06
9.09653e-06
-4.65865e-06
9.37402e-06
-3.96428e-06
9.64121e-06
-3.36601e-06
9.95675e-06
-2.9971e-06
1.02668e-05
-2.78032e-06
1.04964e-05
-2.37034e-06
1.03058e-05
-1.74979e-06
1.0432e-05
-1.21782e-06
1.11602e-05
-7.47222e-07
1.16274e-05
-3.4151e-07
1.19291e-05
2.90283e-08
1.21758e-05
3.08431e-07
1.26543e-05
5.41409e-07
1.31318e-05
7.86848e-07
1.32709e-05
1.07231e-06
1.3407e-05
1.39817e-06
1.37167e-05
1.73763e-06
1.40378e-05
2.00294e-06
1.44214e-05
2.11571e-06
1.48533e-05
2.21144e-06
1.49732e-05
2.27183e-06
1.46529e-05
2.35118e-06
1.41475e-05
2.83052e-06
1.33123e-05
3.60148e-06
1.31791e-05
4.34833e-06
1.33802e-05
5.01127e-06
1.35774e-05
5.1478e-06
1.37519e-05
4.93355e-06
1.38676e-05
4.82852e-06
1.46973e-05
4.8928e-06
1.58269e-05
4.41152e-06
1.68672e-05
2.81215e-06
1.86378e-05
5.48883e-07
2.10756e-05
-1.31879e-06
2.24277e-05
-2.67221e-06
2.22236e-05