/*--------------------------------*- C++ -*----------------------------------*\
| =========                 |                                                 |
| \\      /  F ield         | OpenFOAM: The Open Source CFD Toolbox           |
|  \\    /   O peration     | Version:  dev                                   |
|   \\  /    A nd           | Web:      http://www.openfoam.org               |
|    \\/     M anipulation  |                                                 |
\*---------------------------------------------------------------------------*/
FoamFile
{
    version     2.0;
    format      ascii;
    class       volScalarField;
    object      pPrime2Mean;
    location    "9.163";
}
// * * * * * * * * * * * * * * * * * * * * * * * * * * * * * * * * * * * * * //

dimensions      [2 -2 -4 0 0 0 0];

internalField   nonuniform List<scalar> 
12225
(
5.03238e+07
4.98587e+07
4.88981e+07
4.75472e+07
4.58937e+07
4.40272e+07
4.20068e+07
3.99045e+07
3.77611e+07
3.56247e+07
3.3533e+07
3.1489e+07
2.95666e+07
2.76966e+07
2.59504e+07
2.4391e+07
2.28306e+07
2.12523e+07
5.02161e+07
4.97511e+07
4.87913e+07
4.7442e+07
4.579e+07
4.39258e+07
4.19082e+07
3.98085e+07
3.76691e+07
3.55353e+07
3.34484e+07
3.1408e+07
2.94902e+07
2.76271e+07
2.58983e+07
2.4339e+07
2.28315e+07
2.14989e+07
4.99664e+07
4.95019e+07
4.85426e+07
4.71963e+07
4.55488e+07
4.36894e+07
4.16786e+07
3.95851e+07
3.74538e+07
3.53282e+07
3.32496e+07
3.1221e+07
2.93092e+07
2.74633e+07
2.57543e+07
2.41999e+07
2.27661e+07
2.15546e+07
4.95313e+07
4.90698e+07
4.81127e+07
4.67717e+07
4.51322e+07
4.32813e+07
4.12821e+07
3.91991e+07
3.70825e+07
3.49704e+07
3.29076e+07
3.08968e+07
2.90022e+07
2.71757e+07
2.54963e+07
2.39664e+07
2.25813e+07
2.14819e+07
4.88672e+07
4.84059e+07
4.74536e+07
4.6122e+07
4.44943e+07
4.26579e+07
4.06744e+07
3.86108e+07
3.65132e+07
3.44252e+07
3.23827e+07
3.04026e+07
2.85306e+07
2.674e+07
2.51129e+07
2.36053e+07
2.23253e+07
2.12622e+07
4.79193e+07
4.74554e+07
4.65126e+07
4.51945e+07
4.35847e+07
4.17681e+07
3.98093e+07
3.77712e+07
3.57038e+07
3.36454e+07
3.16371e+07
2.96911e+07
2.78573e+07
2.61133e+07
2.45354e+07
2.30973e+07
2.18716e+07
2.08163e+07
4.66261e+07
4.6161e+07
4.52337e+07
4.39318e+07
4.23481e+07
4.05572e+07
3.8634e+07
3.66293e+07
3.46047e+07
3.25852e+07
3.06252e+07
2.87248e+07
2.69423e+07
2.5256e+07
2.37351e+07
2.2357e+07
2.11895e+07
2.01627e+07
4.51861e+07
4.47226e+07
4.38116e+07
4.25276e+07
4.09726e+07
3.92112e+07
3.73265e+07
3.53608e+07
3.33814e+07
3.14081e+07
2.94979e+07
2.76511e+07
2.592e+07
2.42968e+07
2.28243e+07
2.15093e+07
2.03745e+07
1.94156e+07
4.36734e+07
4.32133e+07
4.23186e+07
4.10543e+07
3.95289e+07
3.77999e+07
3.59546e+07
3.40312e+07
3.2098e+07
3.01742e+07
2.83149e+07
2.65237e+07
2.48464e+07
2.32838e+07
2.18633e+07
2.06043e+07
1.95114e+07
1.86136e+07
4.17359e+07
4.12826e+07
4.04073e+07
3.91706e+07
3.76816e+07
3.59966e+07
3.42e+07
3.23327e+07
3.04567e+07
2.85977e+07
2.68012e+07
2.50815e+07
2.34701e+07
2.19822e+07
2.06279e+07
1.94365e+07
1.84003e+07
1.75483e+07
3.92907e+07
3.88473e+07
3.79956e+07
3.67956e+07
3.53524e+07
3.37245e+07
3.19899e+07
3.01936e+07
2.83907e+07
2.66119e+07
2.48956e+07
2.32618e+07
2.17341e+07
2.03322e+07
1.90609e+07
1.79462e+07
1.69767e+07
1.61709e+07
3.62715e+07
3.5843e+07
3.50194e+07
3.38684e+07
3.24823e+07
3.09276e+07
2.92704e+07
2.75631e+07
2.58506e+07
2.41706e+07
2.25524e+07
2.10215e+07
1.95946e+07
1.82919e+07
1.7117e+07
1.60865e+07
1.51926e+07
1.44398e+07
3.26634e+07
3.22536e+07
3.14664e+07
3.03764e+07
2.90626e+07
2.75968e+07
2.60353e+07
2.44344e+07
2.2832e+07
2.12684e+07
1.97669e+07
1.8355e+07
1.70444e+07
1.58537e+07
1.47853e+07
1.38483e+07
1.30375e+07
1.23497e+07
2.85575e+07
2.81704e+07
2.74299e+07
2.64122e+07
2.51867e+07
2.38243e+07
2.23767e+07
2.08978e+07
1.94235e+07
1.79907e+07
1.66219e+07
1.53405e+07
1.41583e+07
1.30881e+07
1.21332e+07
1.12963e+07
1.05741e+07
9.96037e+06
2.42387e+07
2.38781e+07
2.31936e+07
2.22567e+07
2.11312e+07
1.9883e+07
1.85609e+07
1.72142e+07
1.58775e+07
1.45833e+07
1.33534e+07
1.2207e+07
1.11551e+07
1.02065e+07
9.36383e+06
8.62702e+06
7.99286e+06
7.45469e+06
2.02968e+07
1.99649e+07
1.934e+07
1.84847e+07
1.74607e+07
1.63255e+07
1.51271e+07
1.39085e+07
1.27034e+07
1.154e+07
1.04388e+07
9.41553e+06
8.48021e+06
7.63886e+06
6.89338e+06
6.24249e+06
5.68302e+06
5.20873e+06
1.77344e+07
1.7428e+07
1.68532e+07
1.60659e+07
1.51242e+07
1.408e+07
1.29789e+07
1.18598e+07
1.07543e+07
9.68773e+06
8.67891e+06
7.74146e+06
6.88408e+06
6.11155e+06
5.42523e+06
4.82375e+06
4.30413e+06
3.86099e+06
1.78421e+07
1.75475e+07
1.69951e+07
1.62374e+07
1.53304e+07
1.43234e+07
1.32598e+07
1.21767e+07
1.11042e+07
1.00659e+07
9.07965e+06
8.15806e+06
7.30927e+06
6.53777e+06
5.84495e+06
5.22999e+06
4.69036e+06
4.22174e+06
2.07151e+07
2.04162e+07
1.9854e+07
1.90814e+07
1.81551e+07
1.71243e+07
1.60323e+07
1.4916e+07
1.3805e+07
1.2723e+07
1.16875e+07
1.07111e+07
9.80202e+06
8.9652e+06
8.20248e+06
7.51378e+06
6.89726e+06
6.34954e+06
2.51964e+07
2.48846e+07
2.42946e+07
2.3481e+07
2.25033e+07
2.14124e+07
2.02528e+07
1.90622e+07
1.7871e+07
1.67034e+07
1.55774e+07
1.45061e+07
1.34985e+07
1.25598e+07
1.16928e+07
1.08981e+07
1.01746e+07
9.51974e+06
3.02494e+07
2.99235e+07
2.93003e+07
2.84374e+07
2.73975e+07
2.62336e+07
2.49922e+07
2.37123e+07
2.24257e+07
2.11574e+07
1.99264e+07
1.87466e+07
1.76274e+07
1.65752e+07
1.55931e+07
1.46828e+07
1.38436e+07
1.30741e+07
3.5157e+07
3.48195e+07
3.41653e+07
3.32554e+07
3.21555e+07
3.09205e+07
2.95991e+07
2.82318e+07
2.68518e+07
2.54851e+07
2.41518e+07
2.28665e+07
2.16397e+07
2.0478e+07
1.93858e+07
1.83651e+07
1.74161e+07
1.65378e+07
3.95007e+07
3.91548e+07
3.84753e+07
3.75258e+07
3.63743e+07
3.50777e+07
3.36863e+07
3.22422e+07
3.078e+07
2.93266e+07
2.7903e+07
2.65248e+07
2.5203e+07
2.39453e+07
2.27564e+07
2.16389e+07
2.05937e+07
1.96203e+07
4.30918e+07
4.27408e+07
4.2042e+07
4.10616e+07
3.98691e+07
3.85228e+07
3.70745e+07
3.55676e+07
3.40378e+07
3.25131e+07
3.10153e+07
2.95605e+07
2.81606e+07
2.68238e+07
2.55553e+07
2.43583e+07
2.32341e+07
2.21825e+07
4.58965e+07
4.55426e+07
4.483e+07
4.38267e+07
4.26032e+07
4.12189e+07
3.97268e+07
3.81714e+07
3.65892e+07
3.5009e+07
3.34534e+07
3.19391e+07
3.04784e+07
2.90801e+07
2.77497e+07
2.64909e+07
2.53052e+07
2.41928e+07
4.79719e+07
4.76164e+07
4.68942e+07
4.58748e+07
4.4629e+07
4.32171e+07
4.16929e+07
4.01018e+07
3.84811e+07
3.68602e+07
3.5262e+07
3.37038e+07
3.21984e+07
3.07547e+07
2.93788e+07
2.80745e+07
2.68435e+07
2.56863e+07
4.94189e+07
4.90625e+07
4.83337e+07
4.73034e+07
4.60424e+07
4.46115e+07
4.30654e+07
4.14499e+07
3.98025e+07
3.81534e+07
3.65258e+07
3.49372e+07
3.34008e+07
3.19257e+07
3.05182e+07
2.91823e+07
2.79199e+07
2.67316e+07
5.03526e+07
4.99952e+07
4.92622e+07
4.82253e+07
4.69545e+07
4.55116e+07
4.39515e+07
4.23205e+07
4.06562e+07
3.89891e+07
3.73425e+07
3.57345e+07
3.41781e+07
3.26828e+07
3.1255e+07
2.98988e+07
2.86163e+07
2.74081e+07
5.0881e+07
5.05232e+07
4.97887e+07
4.87487e+07
4.74725e+07
4.60231e+07
4.44552e+07
4.28151e+07
4.11411e+07
3.94635e+07
3.78061e+07
3.61869e+07
3.4619e+07
3.31121e+07
3.16726e+07
3.03047e+07
2.90109e+07
2.77917e+07
5.11028e+07
5.07466e+07
5.00101e+07
4.89683e+07
4.76896e+07
4.62374e+07
4.46661e+07
4.30222e+07
4.13439e+07
3.96619e+07
3.79998e+07
3.63757e+07
3.4803e+07
3.32911e+07
3.18466e+07
3.04738e+07
2.91753e+07
2.79517e+07
6.04463e+07
6.03873e+07
6.02567e+07
6.00511e+07
5.97686e+07
5.94085e+07
5.89709e+07
5.84565e+07
5.78665e+07
5.72023e+07
5.64657e+07
5.56589e+07
5.47841e+07
5.3844e+07
5.28412e+07
5.17788e+07
5.066e+07
4.94883e+07
4.82673e+07
4.70009e+07
4.56931e+07
4.43479e+07
4.29696e+07
4.15625e+07
4.01311e+07
3.86799e+07
3.72135e+07
3.57362e+07
3.42525e+07
3.27671e+07
3.12844e+07
2.9809e+07
2.83456e+07
2.68988e+07
2.54731e+07
2.4073e+07
2.27033e+07
2.13686e+07
2.00737e+07
1.88233e+07
1.76223e+07
1.64756e+07
1.5388e+07
1.43649e+07
1.34112e+07
1.25322e+07
1.17333e+07
1.10198e+07
1.03971e+07
9.87065e+06
9.44597e+06
9.12847e+06
8.92357e+06
8.83651e+06
8.87242e+06
9.0361e+06
9.33212e+06
9.76473e+06
1.03378e+07
1.10545e+07
1.19178e+07
1.29296e+07
1.40915e+07
1.54041e+07
1.68675e+07
1.84807e+07
2.02422e+07
2.21496e+07
2.41996e+07
2.63884e+07
2.87115e+07
3.11635e+07
3.37386e+07
3.64303e+07
3.92318e+07
4.21357e+07
4.51347e+07
4.8221e+07
5.13867e+07
5.46237e+07
5.79242e+07
6.12797e+07
6.46821e+07
6.81227e+07
7.15929e+07
7.50838e+07
7.85864e+07
8.2091e+07
8.55877e+07
8.90662e+07
9.25154e+07
9.59239e+07
9.92797e+07
1.0257e+08
1.05783e+08
1.08906e+08
1.11925e+08
1.14829e+08
1.17607e+08
1.20248e+08
1.22743e+08
1.25082e+08
1.27261e+08
1.29271e+08
1.31112e+08
1.32778e+08
1.34273e+08
1.35596e+08
1.36755e+08
1.37756e+08
1.3861e+08
1.39327e+08
1.39922e+08
1.40409e+08
1.40804e+08
1.41124e+08
1.4139e+08
1.41623e+08
1.41846e+08
1.42085e+08
1.42372e+08
1.42739e+08
1.43222e+08
1.4386e+08
1.44699e+08
1.45785e+08
1.47172e+08
1.48915e+08
1.51076e+08
1.53717e+08
1.56901e+08
1.60691e+08
1.65148e+08
1.70328e+08
1.76286e+08
1.83067e+08
1.90706e+08
1.99231e+08
2.08656e+08
2.18984e+08
2.3021e+08
2.4231e+08
2.55258e+08
2.6901e+08
2.83526e+08
2.98742e+08
3.14609e+08
3.31055e+08
3.48019e+08
3.65425e+08
3.83199e+08
4.01257e+08
4.1951e+08
4.37864e+08
4.56196e+08
4.74368e+08
4.92215e+08
5.09569e+08
5.26197e+08
5.41864e+08
5.56271e+08
5.69117e+08
5.80061e+08
5.88781e+08
5.94942e+08
5.98246e+08
5.98434e+08
5.95322e+08
5.88786e+08
5.78853e+08
5.65602e+08
5.49299e+08
5.30262e+08
5.08986e+08
4.85943e+08
4.6166e+08
4.36503e+08
4.10908e+08
3.85083e+08
3.59355e+08
5.93726e+07
5.9317e+07
5.9192e+07
5.89923e+07
5.87162e+07
5.83637e+07
5.79355e+07
5.74324e+07
5.68559e+07
5.62073e+07
5.54883e+07
5.47008e+07
5.38472e+07
5.29297e+07
5.1951e+07
5.09138e+07
4.98211e+07
4.86762e+07
4.74828e+07
4.62445e+07
4.49652e+07
4.36488e+07
4.22995e+07
4.09216e+07
3.95194e+07
3.80973e+07
3.66597e+07
3.52108e+07
3.37551e+07
3.22969e+07
3.08407e+07
2.93912e+07
2.79527e+07
2.65299e+07
2.51272e+07
2.37492e+07
2.24003e+07
2.10853e+07
1.98087e+07
1.85754e+07
1.73901e+07
1.62578e+07
1.51833e+07
1.41718e+07
1.32283e+07
1.23581e+07
1.15665e+07
1.08588e+07
1.02405e+07
9.71709e+06
9.29395e+06
8.97655e+06
8.77026e+06
8.68032e+06
8.71186e+06
8.86975e+06
9.15858e+06
9.58255e+06
1.01455e+07
1.08506e+07
1.17008e+07
1.26981e+07
1.38438e+07
1.51388e+07
1.6583e+07
1.81756e+07
1.99148e+07
2.17983e+07
2.3823e+07
2.59849e+07
2.82796e+07
3.07016e+07
3.32452e+07
3.5904e+07
3.86711e+07
4.15393e+07
4.45013e+07
4.75493e+07
5.06755e+07
5.38718e+07
5.71303e+07
6.04428e+07
6.38011e+07
6.71966e+07
7.06209e+07
7.40651e+07
7.752e+07
8.09763e+07
8.44241e+07
8.7853e+07
9.12524e+07
9.46107e+07
9.79163e+07
1.01157e+08
1.0432e+08
1.07393e+08
1.10364e+08
1.13221e+08
1.15953e+08
1.18549e+08
1.21001e+08
1.233e+08
1.2544e+08
1.27415e+08
1.29222e+08
1.30859e+08
1.32326e+08
1.33625e+08
1.34762e+08
1.35744e+08
1.36582e+08
1.37286e+08
1.3787e+08
1.38347e+08
1.38733e+08
1.39046e+08
1.39305e+08
1.3953e+08
1.39745e+08
1.39976e+08
1.40251e+08
1.40604e+08
1.41069e+08
1.41686e+08
1.42499e+08
1.43552e+08
1.449e+08
1.46597e+08
1.48702e+08
1.51279e+08
1.54389e+08
1.58094e+08
1.62454e+08
1.67525e+08
1.73361e+08
1.80005e+08
1.87494e+08
1.95855e+08
2.05102e+08
2.15239e+08
2.26259e+08
2.38142e+08
2.5086e+08
2.64374e+08
2.78639e+08
2.93596e+08
3.09194e+08
3.2537e+08
3.42058e+08
3.59183e+08
3.76675e+08
3.94453e+08
4.12429e+08
4.3051e+08
4.48577e+08
4.66492e+08
4.84095e+08
5.01222e+08
5.17645e+08
5.3313e+08
5.47392e+08
5.60132e+08
5.71013e+08
5.79717e+08
5.85918e+08
5.89324e+08
5.89678e+08
5.86803e+08
5.80568e+08
5.70985e+08
5.58129e+08
5.42253e+08
5.23664e+08
5.02843e+08
4.8025e+08
4.56398e+08
4.31651e+08
4.06438e+08
3.80966e+08
3.55477e+08
5.73098e+07
5.72567e+07
5.71373e+07
5.6946e+07
5.66815e+07
5.63444e+07
5.59357e+07
5.54565e+07
5.49077e+07
5.42904e+07
5.36062e+07
5.28568e+07
5.20441e+07
5.11701e+07
5.02371e+07
4.92476e+07
4.82045e+07
4.71109e+07
4.597e+07
4.47852e+07
4.35602e+07
4.2299e+07
4.10054e+07
3.96836e+07
3.83374e+07
3.69709e+07
3.55882e+07
3.41934e+07
3.27908e+07
3.13847e+07
2.99795e+07
2.85796e+07
2.71892e+07
2.58128e+07
2.44547e+07
2.31191e+07
2.18106e+07
2.05336e+07
1.92927e+07
1.80926e+07
1.6938e+07
1.58337e+07
1.47846e+07
1.37956e+07
1.2872e+07
1.20188e+07
1.12416e+07
1.05455e+07
9.93592e+06
9.41837e+06
8.99826e+06
8.68102e+06
8.47208e+06
8.37665e+06
8.39984e+06
8.54655e+06
8.82131e+06
9.22837e+06
9.77152e+06
1.0454e+07
1.12786e+07
1.22473e+07
1.33616e+07
1.4622e+07
1.60286e+07
1.75804e+07
1.92759e+07
2.11125e+07
2.30873e+07
2.51963e+07
2.7435e+07
2.97982e+07
3.228e+07
3.48742e+07
3.75739e+07
4.03722e+07
4.32617e+07
4.62349e+07
4.9284e+07
5.2401e+07
5.55781e+07
5.88072e+07
6.208e+07
6.53882e+07
6.87234e+07
7.20769e+07
7.54397e+07
7.88025e+07
8.21557e+07
8.54889e+07
8.87917e+07
9.20528e+07
9.52609e+07
9.84041e+07
1.0147e+08
1.04447e+08
1.07323e+08
1.10087e+08
1.12728e+08
1.15237e+08
1.17604e+08
1.19823e+08
1.21888e+08
1.23793e+08
1.25536e+08
1.27114e+08
1.28527e+08
1.29778e+08
1.30873e+08
1.31819e+08
1.32626e+08
1.33304e+08
1.33865e+08
1.34324e+08
1.34694e+08
1.34992e+08
1.35236e+08
1.35446e+08
1.35646e+08
1.35858e+08
1.36111e+08
1.36435e+08
1.36865e+08
1.37438e+08
1.38196e+08
1.39184e+08
1.40453e+08
1.42056e+08
1.44051e+08
1.46499e+08
1.4946e+08
1.52996e+08
1.57164e+08
1.62019e+08
1.67612e+08
1.73986e+08
1.81177e+08
1.89213e+08
1.98108e+08
2.07866e+08
2.18479e+08
2.2993e+08
2.42194e+08
2.55235e+08
2.69005e+08
2.8345e+08
2.98515e+08
3.14151e+08
3.30289e+08
3.46857e+08
3.63786e+08
3.81003e+08
3.98422e+08
4.15952e+08
4.33477e+08
4.5087e+08
4.67971e+08
4.84621e+08
5.00606e+08
5.15694e+08
5.29622e+08
5.42096e+08
5.52793e+08
5.61413e+08
5.67636e+08
5.71188e+08
5.7182e+08
5.69359e+08
5.6367e+08
5.54742e+08
5.42647e+08
5.27609e+08
5.09912e+08
4.90013e+08
4.68338e+08
4.45368e+08
4.21473e+08
3.97054e+08
3.72335e+08
3.47489e+08
5.44194e+07
5.43702e+07
5.42582e+07
5.40791e+07
5.38324e+07
5.35191e+07
5.31399e+07
5.26954e+07
5.21863e+07
5.16135e+07
5.09782e+07
5.02817e+07
4.95254e+07
4.8711e+07
4.78407e+07
4.69167e+07
4.59417e+07
4.49183e+07
4.38497e+07
4.2739e+07
4.15896e+07
4.04052e+07
3.91891e+07
3.79451e+07
3.66766e+07
3.53873e+07
3.4081e+07
3.27616e+07
3.14333e+07
3.01001e+07
2.87663e+07
2.74358e+07
2.61128e+07
2.48012e+07
2.35053e+07
2.2229e+07
2.09768e+07
1.97531e+07
1.85621e+07
1.74085e+07
1.62969e+07
1.52319e+07
1.42184e+07
1.32613e+07
1.23658e+07
1.15368e+07
1.07798e+07
1.00999e+07
9.50269e+06
8.99348e+06
8.57772e+06
8.26082e+06
8.04817e+06
7.94498e+06
7.95632e+06
8.08709e+06
8.34188e+06
8.72487e+06
9.23981e+06
9.88994e+06
1.06779e+07
1.16059e+07
1.26751e+07
1.38863e+07
1.52393e+07
1.67331e+07
1.83662e+07
2.01362e+07
2.20402e+07
2.40741e+07
2.62336e+07
2.85134e+07
3.09081e+07
3.34112e+07
3.60161e+07
3.87161e+07
4.15039e+07
4.43722e+07
4.73133e+07
5.03195e+07
5.33829e+07
5.64957e+07
5.96496e+07
6.28366e+07
6.60481e+07
6.92757e+07
7.25106e+07
7.57438e+07
7.89656e+07
8.21661e+07
8.53348e+07
8.8461e+07
9.15335e+07
9.45408e+07
9.74715e+07
1.00314e+08
1.03057e+08
1.0569e+08
1.08204e+08
1.1059e+08
1.12839e+08
1.14945e+08
1.16903e+08
1.18708e+08
1.20358e+08
1.21851e+08
1.23187e+08
1.24371e+08
1.25407e+08
1.26301e+08
1.27062e+08
1.27701e+08
1.2823e+08
1.2866e+08
1.29006e+08
1.29281e+08
1.29504e+08
1.29692e+08
1.29866e+08
1.30051e+08
1.30271e+08
1.30553e+08
1.30931e+08
1.3144e+08
1.3212e+08
1.33015e+08
1.34173e+08
1.35644e+08
1.37483e+08
1.39749e+08
1.425e+08
1.45797e+08
1.49693e+08
1.54244e+08
1.59495e+08
1.65491e+08
1.72265e+08
1.79845e+08
1.88247e+08
1.97475e+08
2.0752e+08
2.1837e+08
2.30001e+08
2.42383e+08
2.55465e+08
2.692e+08
2.83531e+08
2.98418e+08
3.13796e+08
3.29598e+08
3.45751e+08
3.62195e+08
3.78846e+08
3.95614e+08
4.12389e+08
4.29054e+08
4.45455e+08
4.61436e+08
4.768e+08
4.91324e+08
5.04761e+08
5.16832e+08
5.2724e+08
5.357e+08
5.41908e+08
5.45609e+08
5.46561e+08
5.44598e+08
5.39589e+08
5.31504e+08
5.20405e+08
5.0648e+08
4.89991e+08
4.71351e+08
4.50943e+08
4.29211e+08
4.06513e+08
3.83226e+08
3.59589e+08
3.3575e+08
5.09017e+07
5.08577e+07
5.07559e+07
5.05931e+07
5.03696e+07
5.00859e+07
4.97424e+07
4.93395e+07
4.88777e+07
4.83576e+07
4.778e+07
4.71458e+07
4.64562e+07
4.57128e+07
4.49173e+07
4.40718e+07
4.31785e+07
4.22398e+07
4.12584e+07
4.02372e+07
3.91792e+07
3.80873e+07
3.69647e+07
3.58144e+07
3.46396e+07
3.34436e+07
3.223e+07
3.10025e+07
2.97649e+07
2.85209e+07
2.72743e+07
2.60287e+07
2.47878e+07
2.35554e+07
2.23354e+07
2.11318e+07
1.99486e+07
1.87899e+07
1.76601e+07
1.65634e+07
1.55044e+07
1.44876e+07
1.35178e+07
1.25999e+07
1.17387e+07
1.09394e+07
1.02071e+07
9.54721e+06
8.96504e+06
8.466e+06
8.05548e+06
7.73888e+06
7.52155e+06
7.40871e+06
7.4054e+06
7.51646e+06
7.74643e+06
8.09945e+06
8.57923e+06
9.18902e+06
9.93146e+06
1.08086e+07
1.18217e+07
1.29715e+07
1.42577e+07
1.56794e+07
1.7235e+07
1.89222e+07
2.07381e+07
2.26788e+07
2.474e+07
2.69166e+07
2.9203e+07
3.15933e+07
3.40809e+07
3.66593e+07
3.93214e+07
4.20599e+07
4.48677e+07
4.7737e+07
5.06602e+07
5.36296e+07
5.66372e+07
5.96749e+07
6.27346e+07
6.58078e+07
6.8886e+07
7.19603e+07
7.50212e+07
7.80592e+07
8.10642e+07
8.40258e+07
8.69332e+07
8.97752e+07
9.2541e+07
9.52199e+07
9.78016e+07
1.00277e+08
1.02635e+08
1.0487e+08
1.06973e+08
1.08941e+08
1.10768e+08
1.1245e+08
1.13985e+08
1.15372e+08
1.16614e+08
1.17714e+08
1.18674e+08
1.19502e+08
1.20206e+08
1.20796e+08
1.21282e+08
1.21676e+08
1.21988e+08
1.22233e+08
1.22427e+08
1.22586e+08
1.22728e+08
1.22876e+08
1.23052e+08
1.23282e+08
1.23596e+08
1.24027e+08
1.24612e+08
1.25393e+08
1.26413e+08
1.27723e+08
1.29373e+08
1.31419e+08
1.33914e+08
1.36918e+08
1.40484e+08
1.44663e+08
1.495e+08
1.55037e+08
1.61305e+08
1.68336e+08
1.76141e+08
1.84728e+08
1.94091e+08
2.04218e+08
2.15086e+08
2.26672e+08
2.38929e+08
2.51812e+08
2.65267e+08
2.79258e+08
2.93727e+08
3.08614e+08
3.23846e+08
3.39367e+08
3.55098e+08
3.70954e+08
3.86829e+08
4.02613e+08
4.18166e+08
4.33338e+08
4.47944e+08
4.61777e+08
4.746e+08
4.8616e+08
4.96188e+08
5.04413e+08
5.10556e+08
5.14376e+08
5.15646e+08
5.14213e+08
5.0995e+08
5.02813e+08
4.92849e+08
4.80207e+08
4.65128e+08
4.4797e+08
4.29074e+08
4.08844e+08
3.87606e+08
3.65713e+08
3.43413e+08
3.20866e+08
4.6979e+07
4.6942e+07
4.68527e+07
4.6709e+07
4.65116e+07
4.62606e+07
4.59561e+07
4.55986e+07
4.51883e+07
4.47252e+07
4.421e+07
4.36436e+07
4.30269e+07
4.23612e+07
4.16478e+07
4.08884e+07
4.0085e+07
3.92395e+07
3.83543e+07
3.74318e+07
3.64745e+07
3.54849e+07
3.44655e+07
3.34189e+07
3.23479e+07
3.12557e+07
3.01455e+07
2.90205e+07
2.78841e+07
2.67396e+07
2.55902e+07
2.44393e+07
2.32903e+07
2.21465e+07
2.10117e+07
1.98895e+07
1.87838e+07
1.76984e+07
1.66374e+07
1.56049e+07
1.46053e+07
1.36429e+07
1.27223e+07
1.18484e+07
1.10259e+07
1.02599e+07
9.55555e+06
8.91805e+06
8.35277e+06
7.86505e+06
7.46028e+06
7.14382e+06
6.92102e+06
6.79704e+06
6.77688e+06
6.86532e+06
7.06686e+06
7.3856e+06
7.82519e+06
8.38882e+06
9.07908e+06
9.89796e+06
1.08468e+07
1.19261e+07
1.31358e+07
1.4475e+07
1.5942e+07
1.75345e+07
1.92495e+07
2.10836e+07
2.30323e+07
2.50908e+07
2.72536e+07
2.95149e+07
3.18686e+07
3.43081e+07
3.68266e+07
3.94172e+07
4.20728e+07
4.47859e+07
4.75492e+07
5.0355e+07
5.31957e+07
5.60634e+07
5.89502e+07
6.18477e+07
6.47476e+07
6.76413e+07
7.05197e+07
7.33732e+07
7.61925e+07
7.89676e+07
8.16883e+07
8.43439e+07
8.69241e+07
8.94192e+07
9.18196e+07
9.41166e+07
9.63017e+07
9.83676e+07
1.00308e+08
1.02119e+08
1.03798e+08
1.05341e+08
1.06746e+08
1.08015e+08
1.09149e+08
1.10151e+08
1.11025e+08
1.11777e+08
1.12414e+08
1.12945e+08
1.13379e+08
1.13727e+08
1.13998e+08
1.14206e+08
1.14364e+08
1.14486e+08
1.14588e+08
1.14691e+08
1.14816e+08
1.14985e+08
1.15225e+08
1.15569e+08
1.16048e+08
1.16701e+08
1.17567e+08
1.18696e+08
1.20134e+08
1.21932e+08
1.24142e+08
1.2682e+08
1.30017e+08
1.3378e+08
1.38155e+08
1.43179e+08
1.48886e+08
1.55305e+08
1.62449e+08
1.70326e+08
1.78934e+08
1.88261e+08
1.98289e+08
2.08995e+08
2.20343e+08
2.32291e+08
2.44787e+08
2.57797e+08
2.71271e+08
2.85154e+08
2.99378e+08
3.13886e+08
3.28608e+08
3.43458e+08
3.5834e+08
3.73152e+08
3.87765e+08
4.02032e+08
4.15787e+08
4.28839e+08
4.40959e+08
4.51921e+08
4.61487e+08
4.69406e+08
4.75425e+08
4.7931e+08
4.80862e+08
4.79944e+08
4.76428e+08
4.70263e+08
4.61474e+08
4.50188e+08
4.36613e+08
4.21057e+08
4.03812e+08
3.85245e+08
3.65639e+08
3.4532e+08
3.24539e+08
3.03485e+08
4.28761e+07
4.28466e+07
4.27707e+07
4.26474e+07
4.2477e+07
4.22596e+07
4.19955e+07
4.16845e+07
4.13264e+07
4.09216e+07
4.04705e+07
3.99737e+07
3.94319e+07
3.8846e+07
3.82172e+07
3.75468e+07
3.68362e+07
3.60872e+07
3.53017e+07
3.44814e+07
3.36284e+07
3.27445e+07
3.1832e+07
3.08931e+07
2.99303e+07
2.89463e+07
2.79439e+07
2.69259e+07
2.58952e+07
2.48546e+07
2.3807e+07
2.27553e+07
2.17026e+07
2.06521e+07
1.96069e+07
1.85705e+07
1.75465e+07
1.65384e+07
1.55501e+07
1.45854e+07
1.36484e+07
1.27435e+07
1.1875e+07
1.10476e+07
1.0266e+07
9.53519e+06
8.86025e+06
8.24638e+06
7.69883e+06
7.22296e+06
6.82409e+06
6.50755e+06
6.27861e+06
6.14244e+06
6.10397e+06
6.16795e+06
6.33882e+06
6.6206e+06
7.0169e+06
7.53083e+06
8.16492e+06
8.9211e+06
9.80064e+06
1.08041e+07
1.19314e+07
1.31815e+07
1.45529e+07
1.60433e+07
1.76497e+07
1.93686e+07
2.11959e+07
2.31269e+07
2.51563e+07
2.72784e+07
2.94873e+07
3.17768e+07
3.41402e+07
3.65709e+07
3.9062e+07
4.16063e+07
4.41966e+07
4.68257e+07
4.9486e+07
5.217e+07
5.48699e+07
5.75777e+07
6.02852e+07
6.2984e+07
6.56654e+07
6.83203e+07
7.09396e+07
7.3514e+07
7.60339e+07
7.84894e+07
8.08709e+07
8.31696e+07
8.53767e+07
8.74844e+07
8.9485e+07
9.13723e+07
9.31409e+07
9.47871e+07
9.63082e+07
9.77031e+07
9.89713e+07
1.00113e+08
1.01131e+08
1.02028e+08
1.02808e+08
1.03475e+08
1.04038e+08
1.04503e+08
1.04878e+08
1.05172e+08
1.05396e+08
1.05559e+08
1.05674e+08
1.05753e+08
1.05811e+08
1.05864e+08
1.0593e+08
1.06033e+08
1.06194e+08
1.06444e+08
1.06811e+08
1.07328e+08
1.08034e+08
1.0897e+08
1.10183e+08
1.11721e+08
1.13632e+08
1.15967e+08
1.18776e+08
1.22102e+08
1.25991e+08
1.30477e+08
1.35597e+08
1.41375e+08
1.47829e+08
1.54965e+08
1.62784e+08
1.71279e+08
1.80434e+08
1.9023e+08
2.00635e+08
2.11614e+08
2.23119e+08
2.3512e+08
2.47567e+08
2.60413e+08
2.73594e+08
2.87057e+08
3.00732e+08
3.14538e+08
3.28387e+08
3.42184e+08
3.55809e+08
3.69121e+08
3.81966e+08
3.94174e+08
4.05531e+08
4.15832e+08
4.24864e+08
4.32404e+08
4.38225e+08
4.42109e+08
4.4388e+08
4.43418e+08
4.40596e+08
4.35357e+08
4.2771e+08
4.1777e+08
4.05703e+08
3.91774e+08
3.76229e+08
3.59391e+08
3.41499e+08
3.22854e+08
3.03697e+08
2.84253e+08
3.88056e+07
3.87835e+07
3.8721e+07
3.86178e+07
3.84741e+07
3.82898e+07
3.80648e+07
3.77989e+07
3.7492e+07
3.71443e+07
3.6756e+07
3.63274e+07
3.5859e+07
3.53514e+07
3.48055e+07
3.42223e+07
3.36029e+07
3.29486e+07
3.22606e+07
3.15405e+07
3.07897e+07
3.00098e+07
2.92026e+07
2.83699e+07
2.75139e+07
2.6637e+07
2.57414e+07
2.48294e+07
2.39034e+07
2.29658e+07
2.20192e+07
2.10662e+07
2.01094e+07
1.91516e+07
1.81957e+07
1.7245e+07
1.63024e+07
1.53715e+07
1.44556e+07
1.35586e+07
1.26843e+07
1.18367e+07
1.10203e+07
1.02394e+07
9.4987e+06
8.80309e+06
8.15756e+06
7.56724e+06
7.03733e+06
6.57314e+06
6.17993e+06
5.86299e+06
5.62753e+06
5.47865e+06
5.42128e+06
5.4601e+06
5.59947e+06
5.84335e+06
6.19528e+06
6.65829e+06
7.23486e+06
7.92681e+06
8.73539e+06
9.66114e+06
1.07038e+07
1.18626e+07
1.31358e+07
1.45212e+07
1.60159e+07
1.76165e+07
1.93189e+07
2.11185e+07
2.30104e+07
2.49889e+07
2.70485e+07
2.91829e+07
3.13861e+07
3.36513e+07
3.59721e+07
3.83416e+07
4.07529e+07
4.31988e+07
4.56722e+07
4.81657e+07
5.06717e+07
5.31826e+07
5.56903e+07
5.81871e+07
6.06643e+07
6.31134e+07
6.55259e+07
6.78928e+07
7.02052e+07
7.24543e+07
7.46313e+07
7.67281e+07
7.87369e+07
8.06508e+07
8.24628e+07
8.41679e+07
8.57612e+07
8.72396e+07
8.86012e+07
8.98454e+07
9.09731e+07
9.19851e+07
9.28831e+07
9.36706e+07
9.43516e+07
9.49307e+07
9.54139e+07
9.58075e+07
9.61181e+07
9.63536e+07
9.65236e+07
9.66371e+07
9.67038e+07
9.67352e+07
9.67433e+07
9.67421e+07
9.67478e+07
9.67806e+07
9.68608e+07
9.7013e+07
9.72648e+07
9.76455e+07
9.81884e+07
9.89332e+07
9.99212e+07
1.01198e+08
1.02809e+08
1.04801e+08
1.07219e+08
1.10108e+08
1.13509e+08
1.17458e+08
1.2199e+08
1.27128e+08
1.32891e+08
1.39289e+08
1.46324e+08
1.53992e+08
1.6228e+08
1.71174e+08
1.80646e+08
1.90666e+08
2.01193e+08
2.12198e+08
2.23634e+08
2.35454e+08
2.47604e+08
2.6003e+08
2.72665e+08
2.85434e+08
2.98254e+08
3.11034e+08
3.2366e+08
3.35999e+08
3.47913e+08
3.59243e+08
3.69798e+08
3.79391e+08
3.8783e+08
3.94923e+08
4.0047e+08
4.0427e+08
4.06176e+08
4.06075e+08
4.03852e+08
3.99444e+08
3.92852e+08
3.84175e+08
3.73548e+08
3.61196e+08
3.4732e+08
3.32197e+08
3.16027e+08
2.9908e+08
2.81588e+08
2.63804e+08
3.49543e+07
3.4939e+07
3.48888e+07
3.48042e+07
3.46854e+07
3.45319e+07
3.43436e+07
3.41201e+07
3.38613e+07
3.35671e+07
3.32376e+07
3.28729e+07
3.24732e+07
3.20391e+07
3.1571e+07
3.10695e+07
3.05356e+07
2.99699e+07
2.93735e+07
2.87474e+07
2.80927e+07
2.74107e+07
2.67027e+07
2.59703e+07
2.52152e+07
2.44393e+07
2.36444e+07
2.28325e+07
2.20055e+07
2.11654e+07
2.03144e+07
1.94547e+07
1.85887e+07
1.77189e+07
1.68478e+07
1.59782e+07
1.5113e+07
1.42553e+07
1.34083e+07
1.25756e+07
1.17607e+07
1.09677e+07
1.02007e+07
9.46404e+06
8.76223e+06
8.10006e+06
7.48244e+06
6.91441e+06
6.40111e+06
5.94777e+06
5.55961e+06
5.24184e+06
4.99965e+06
4.8381e+06
4.76204e+06
4.7761e+06
4.88456e+06
5.09132e+06
5.39981e+06
5.81295e+06
6.33315e+06
6.96219e+06
7.7012e+06
8.55063e+06
9.51027e+06
1.05792e+07
1.17557e+07
1.30377e+07
1.44222e+07
1.59058e+07
1.74846e+07
1.91543e+07
2.09099e+07
2.2746e+07
2.46572e+07
2.66376e+07
2.86811e+07
3.07815e+07
3.29323e+07
3.51271e+07
3.73592e+07
3.96218e+07
4.19079e+07
4.42103e+07
4.65218e+07
4.8835e+07
5.11423e+07
5.34361e+07
5.57083e+07
5.79509e+07
6.01559e+07
6.23148e+07
6.44196e+07
6.64624e+07
6.84351e+07
7.03305e+07
7.21415e+07
7.38622e+07
7.54866e+07
7.70106e+07
7.84299e+07
7.9742e+07
8.09459e+07
8.20415e+07
8.30298e+07
8.39121e+07
8.46905e+07
8.5368e+07
8.59486e+07
8.64369e+07
8.6838e+07
8.71573e+07
8.73999e+07
8.75729e+07
8.76848e+07
8.77437e+07
8.77581e+07
8.77374e+07
8.76921e+07
8.7634e+07
8.75775e+07
8.75397e+07
8.75383e+07
8.75947e+07
8.77334e+07
8.79812e+07
8.83678e+07
8.89288e+07
8.97021e+07
9.07288e+07
9.20513e+07
9.37125e+07
9.57551e+07
9.82219e+07
1.01153e+08
1.04585e+08
1.08548e+08
1.1307e+08
1.18168e+08
1.23856e+08
1.30139e+08
1.37015e+08
1.44473e+08
1.52506e+08
1.61088e+08
1.70192e+08
1.79786e+08
1.89841e+08
2.00315e+08
2.11158e+08
2.2232e+08
2.33751e+08
2.45387e+08
2.57157e+08
2.68981e+08
2.80768e+08
2.92412e+08
3.03787e+08
3.14771e+08
3.25215e+08
3.34948e+08
3.43802e+08
3.51605e+08
3.58189e+08
3.63384e+08
3.67013e+08
3.68952e+08
3.691e+08
3.67351e+08
3.63646e+08
3.57984e+08
3.50444e+08
3.41136e+08
3.30254e+08
3.17956e+08
3.04474e+08
2.89973e+08
2.74691e+08
2.58846e+08
2.42712e+08
3.14736e+07
3.1464e+07
3.14244e+07
3.13564e+07
3.12597e+07
3.11339e+07
3.09786e+07
3.07933e+07
3.05779e+07
3.03321e+07
3.00556e+07
2.97486e+07
2.9411e+07
2.90431e+07
2.86451e+07
2.82173e+07
2.77602e+07
2.72743e+07
2.67602e+07
2.62188e+07
2.56507e+07
2.50568e+07
2.44384e+07
2.37964e+07
2.31324e+07
2.24476e+07
2.17437e+07
2.1022e+07
2.02843e+07
1.95323e+07
1.87677e+07
1.79924e+07
1.72085e+07
1.64181e+07
1.56235e+07
1.48273e+07
1.4032e+07
1.32404e+07
1.24557e+07
1.1681e+07
1.092e+07
1.01763e+07
9.45406e+06
8.75733e+06
8.09062e+06
7.4586e+06
6.8661e+06
6.31807e+06
5.81956e+06
5.37572e+06
4.99172e+06
4.67273e+06
4.42387e+06
4.25017e+06
4.15643e+06
4.14716e+06
4.22659e+06
4.39851e+06
4.66625e+06
5.03261e+06
5.49989e+06
6.06978e+06
6.74332e+06
7.52089e+06
8.40217e+06
9.38618e+06
1.04713e+07
1.16552e+07
1.2935e+07
1.43074e+07
1.57685e+07
1.7314e+07
1.89392e+07
2.06389e+07
2.24077e+07
2.42398e+07
2.61296e+07
2.80708e+07
3.00572e+07
3.20828e+07
3.4141e+07
3.62254e+07
3.83291e+07
4.04453e+07
4.2567e+07
4.46872e+07
4.67987e+07
4.88942e+07
5.09661e+07
5.30069e+07
5.5009e+07
5.6965e+07
5.88673e+07
6.07087e+07
6.24822e+07
6.41811e+07
6.57993e+07
6.73317e+07
6.87735e+07
7.01211e+07
7.13714e+07
7.25221e+07
7.35729e+07
7.45239e+07
7.53766e+07
7.61323e+07
7.6793e+07
7.73619e+07
7.78427e+07
7.82397e+07
7.85574e+07
7.87999e+07
7.89722e+07
7.90806e+07
7.91318e+07
7.9133e+07
7.90918e+07
7.90158e+07
7.89147e+07
7.87982e+07
7.86793e+07
7.85722e+07
7.84921e+07
7.84574e+07
7.84899e+07
7.86138e+07
7.8856e+07
7.92479e+07
7.98234e+07
8.06192e+07
8.16742e+07
8.3029e+07
8.47233e+07
8.67978e+07
8.92913e+07
9.22394e+07
9.56727e+07
9.96176e+07
1.04096e+08
1.09122e+08
1.14703e+08
1.20842e+08
1.2753e+08
1.34763e+08
1.42519e+08
1.50777e+08
1.59506e+08
1.68681e+08
1.78262e+08
1.88199e+08
1.98442e+08
2.08944e+08
2.19646e+08
2.30475e+08
2.41355e+08
2.52194e+08
2.62893e+08
2.73334e+08
2.83405e+08
2.92968e+08
3.01875e+08
3.09972e+08
3.17105e+08
3.23128e+08
3.27903e+08
3.3127e+08
3.33133e+08
3.33406e+08
3.31997e+08
3.28855e+08
3.23976e+08
3.17419e+08
3.09282e+08
2.99722e+08
2.8887e+08
2.76908e+08
2.6398e+08
2.50282e+08
2.36022e+08
2.21485e+08
2.84735e+07
2.8468e+07
2.84371e+07
2.83829e+07
2.83051e+07
2.82031e+07
2.80764e+07
2.79244e+07
2.77467e+07
2.75429e+07
2.73127e+07
2.70559e+07
2.67723e+07
2.64619e+07
2.61246e+07
2.57606e+07
2.53701e+07
2.49533e+07
2.45105e+07
2.40422e+07
2.35488e+07
2.30312e+07
2.24899e+07
2.19259e+07
2.13403e+07
2.07342e+07
2.01085e+07
1.94647e+07
1.88039e+07
1.81275e+07
1.74372e+07
1.67345e+07
1.60211e+07
1.5299e+07
1.45702e+07
1.38369e+07
1.31016e+07
1.23668e+07
1.16355e+07
1.09108e+07
1.0196e+07
9.49471e+06
8.81078e+06
8.14831e+06
7.51167e+06
6.90542e+06
6.33431e+06
5.80322e+06
5.31712e+06
4.88108e+06
4.50024e+06
4.17971e+06
3.92455e+06
3.73972e+06
3.62992e+06
3.59961e+06
3.65292e+06
3.79353e+06
4.02466e+06
4.34899e+06
4.76868e+06
5.2853e+06
5.89975e+06
6.61231e+06
7.42256e+06
8.32942e+06
9.33117e+06
1.04255e+07
1.16096e+07
1.28798e+07
1.42326e+07
1.56635e+07
1.7168e+07
1.8741e+07
2.03773e+07
2.20712e+07
2.3817e+07
2.56089e+07
2.74407e+07
2.93066e+07
3.12005e+07
3.31159e+07
3.50465e+07
3.69857e+07
3.89267e+07
4.08629e+07
4.27875e+07
4.46934e+07
4.65738e+07
4.84216e+07
5.02299e+07
5.19916e+07
5.37001e+07
5.53488e+07
5.69314e+07
5.84422e+07
5.98759e+07
6.12282e+07
6.24955e+07
6.36744e+07
6.47628e+07
6.57592e+07
6.66632e+07
6.74754e+07
6.81974e+07
6.88306e+07
6.93771e+07
6.98399e+07
7.02226e+07
7.05287e+07