/*--------------------------------*- C++ -*----------------------------------*\
| =========                 |                                                 |
| \\      /  F ield         | OpenFOAM: The Open Source CFD Toolbox           |
|  \\    /   O peration     | Version:  dev                                   |
|   \\  /    A nd           | Web:      http://www.openfoam.org               |
|    \\/     M anipulation  |                                                 |
\*---------------------------------------------------------------------------*/
FoamFile
{
    version     2.0;
    format      ascii;
    class       volScalarField;
    object      rho;
    location    "9.163";
}
// * * * * * * * * * * * * * * * * * * * * * * * * * * * * * * * * * * * * * //

dimensions      [1 -3 0 0 0 0 0];

internalField   nonuniform List<scalar> 
12225
(
1.07002
1.06923
1.06933
1.07066
1.07233
1.07438
1.07666
1.07919
1.08163
1.08472
1.08697
1.09051
1.09245
1.09613
1.09888
1.09946
1.1057
1.10629
1.0703
1.06845
1.06928
1.07161
1.07385
1.07674
1.07859
1.08232
1.08325
1.08817
1.08856
1.09405
1.09428
1.09949
1.10125
1.10203
1.1086
1.11117
1.0699
1.06815
1.06914
1.072
1.07422
1.07787
1.07941
1.08421
1.08466
1.08999
1.09048
1.09556
1.09617
1.10094
1.10192
1.10542
1.10846
1.11194
1.07003
1.06853
1.0695
1.07224
1.07434
1.07814
1.07993
1.08433
1.08613
1.08994
1.09226
1.09538
1.0978
1.10079
1.10294
1.10605
1.10804
1.11157
1.07031
1.06848
1.06988
1.07231
1.07467
1.07811
1.08027
1.08414
1.08659
1.08981
1.09274
1.09537
1.09842
1.10099
1.10338
1.10681
1.10771
1.11134
1.07147
1.06845
1.07099
1.07247
1.07551
1.07828
1.08112
1.08426
1.08731
1.08984
1.09341
1.09539
1.09906
1.10099
1.10378
1.10654
1.10817
1.11156
1.07273
1.06886
1.07169
1.07311
1.07626
1.07861
1.0818
1.08456
1.08787
1.09015
1.09379
1.09584
1.09932
1.1014
1.10403
1.10658
1.10936
1.1118
1.07408
1.06982
1.07307
1.07384
1.07754
1.07917
1.08247
1.0852
1.08829
1.09075
1.09416
1.09653
1.09968
1.10162
1.10439
1.10691
1.10967
1.11167
1.07492
1.07079
1.07442
1.07484
1.0789
1.0801
1.08358
1.08593
1.08935
1.09157
1.09518
1.09737
1.10046
1.10248
1.10524
1.10756
1.10993
1.11218
1.07684
1.07233
1.07575
1.07565
1.08005
1.08086
1.08496
1.08661
1.09071
1.09236
1.0962
1.0979
1.10103
1.10331
1.1059
1.10804
1.11009
1.11227
1.07862
1.07468
1.07715
1.07768
1.08153
1.08275
1.08636
1.08816
1.09176
1.09367
1.09715
1.09899
1.10186
1.10417
1.10665
1.10886
1.11084
1.11294
1.0812
1.07736
1.07948
1.08006
1.08353
1.08478
1.08808
1.08999
1.09309
1.09522
1.09822
1.10043
1.1031
1.10522
1.10781
1.10985
1.11173
1.11363
1.08463
1.08108
1.08248
1.08333
1.08608
1.08752
1.09028
1.09235
1.09501
1.09743
1.09989
1.10239
1.10479
1.10683
1.1091
1.11087
1.11279
1.11465
1.08954
1.08593
1.08653
1.08768
1.08966
1.09129
1.09364
1.09569
1.09822
1.10048
1.10263
1.10505
1.10695
1.10904
1.1111
1.11274
1.11453
1.11623
1.09566
1.09191
1.09214
1.09329
1.09479
1.09648
1.09832
1.10006
1.1023
1.1043
1.10635
1.10834
1.11025
1.11225
1.11403
1.11578
1.11739
1.11893
1.10392
1.09984
1.09982
1.1007
1.10188
1.10334
1.1048
1.1065
1.10822
1.10989
1.11183
1.11342
1.11536
1.11701
1.11863
1.12017
1.12168
1.12331
1.11458
1.11024
1.10994
1.11046
1.11133
1.11239
1.11361
1.11505
1.11634
1.11796
1.11958
1.12096
1.12261
1.12396
1.12557
1.12698
1.12827
1.1294
1.12702
1.12271
1.12228
1.12252
1.12296
1.12381
1.12471
1.12583
1.12716
1.12848
1.12971
1.1311
1.13223
1.13352
1.13471
1.13567
1.13691
1.13782
1.13925
1.13515
1.13473
1.13473
1.13521
1.13596
1.13653
1.13755
1.13855
1.13955
1.14061
1.1416
1.14259
1.14357
1.14455
1.14551
1.14635
1.14716
1.14989
1.14619
1.1456
1.14562
1.14624
1.14661
1.14739
1.14822
1.1489
1.15002
1.15084
1.15158
1.1526
1.1532
1.15411
1.15475
1.15544
1.1562
1.15885
1.1553
1.15481
1.15546
1.15591
1.15622
1.15688
1.15736
1.15836
1.15908
1.15982
1.16066
1.16119
1.1618
1.16236
1.1627
1.1633
1.16364
1.16574
1.16254
1.16271
1.16315
1.16344
1.16413
1.16471
1.16529
1.16601
1.16665
1.16727
1.16772
1.1683
1.16861
1.16919
1.1695
1.16995
1.17039
1.17122
1.16851
1.16855
1.16916
1.16982
1.17033
1.171
1.17144
1.17228
1.17269
1.1733
1.17383
1.1741
1.17468
1.17482
1.17532
1.1755
1.1758
1.17565
1.17306
1.17335
1.17413
1.1745
1.17522
1.1758
1.17626
1.17705
1.17734
1.17804
1.17829
1.17873
1.17907
1.17925
1.17968
1.17967
1.18008
1.17869
1.17644
1.1769
1.17751
1.17807
1.17872
1.17926
1.17997
1.18055
1.18098
1.1815
1.18171
1.18213
1.18227
1.18255
1.18268
1.18282
1.18292
1.18083
1.17867
1.17923
1.18008
1.18077
1.18138
1.18196
1.18248
1.18298
1.18341
1.18378
1.1841
1.18435
1.18458
1.18476
1.18491
1.18503
1.18507
1.18261
1.18047
1.18097
1.18179
1.18251
1.18316
1.18374
1.18425
1.18472
1.18512
1.18547
1.18575
1.186
1.1862
1.18638
1.18653
1.18662
1.18668
1.18359
1.18136
1.18193
1.18284
1.18361
1.18426
1.18484
1.18535
1.18581
1.18622
1.18657
1.18687
1.18713
1.18735
1.18754
1.18766
1.18773
1.18771
1.18426
1.18211
1.18264
1.18348
1.1842
1.18481
1.18533
1.18579
1.18619
1.18655
1.18688
1.18717
1.18739
1.18756
1.18765
1.18764
1.18758
1.18738
1.18515
1.18339
1.18339
1.18357
1.1838
1.18404
1.18427
1.18449
1.18469
1.18487
1.18502
1.18514
1.18521
1.18525
1.18522
1.18513
1.18498
1.1848
1.2751
1.29833
1.30577
1.30545
1.30253
1.30021
1.29905
1.29867
1.29869
1.29884
1.29897
1.29902
1.29909
1.29917
1.29909
1.29916
1.29922
1.29919
1.29922
1.29897
1.29912
1.29925
1.29858
1.29417
1.28704
1.27927
1.27138
1.26479
1.26222
1.2632
1.26009
1.25668
1.26114
1.26204
1.25315
1.25025
1.25627
1.25898
1.2522
1.23847
1.22677
1.2199
1.21544
1.20967
1.19962
1.19142
1.18875
1.18684
1.18421
1.18155
1.17883
1.17607
1.17329
1.1705
1.16771
1.16491
1.16213
1.15936
1.15662
1.1539
1.15122
1.14859
1.14601
1.14348
1.14099
1.13855
1.13618
1.13387
1.13166
1.12954
1.12752
1.12561
1.12379
1.1221
1.12055
1.11913
1.11788
1.11686
1.11607
1.1154
1.1148
1.11461
1.11441
1.11461
1.11485
1.11488
1.1148
1.11472
1.11452
1.11452
1.11462
1.11499
1.11593
1.11752
1.11961
1.12189
1.12426
1.12659
1.12903
1.13158
1.13368
1.13527
1.13783
1.14151
1.1452
1.14925
1.15379
1.15892
1.16381
1.16792
1.17088
1.1727
1.17463
1.17678
1.18006
1.18094
1.18124
1.17806
1.16042
1.14624
1.14672
1.14955
1.14444
1.13298
1.13508
1.13902
1.13365
1.13381
1.13383
1.12872
1.12259
1.12816
1.13588
1.12582
1.12687
1.12448
1.11858
1.11946
1.12024
1.11883
1.12046
1.1203
1.1186
1.11711
1.11484
1.11234
1.11046
1.10843
1.10784
1.10643
1.10648
1.1055
1.10504
1.10448
1.10666
1.10895
1.11331
1.11421
1.10972
1.10673
1.10853
1.11199
1.11604
1.11638
1.13163
1.16143
1.16793
1.13468
1.09401
1.09212
1.12345
1.1644
1.18914
1.20809
1.19704
1.20786
1.18122
1.13977
1.10694
1.09842
1.27308
1.29768
1.29868
1.29042
1.28477
1.2833
1.28447
1.28686
1.28986
1.29267
1.29502
1.29613
1.29704
1.29882
1.30011
1.29914
1.29936
1.29902
1.29807
1.29948
1.2971
1.30022
1.30184
1.30602
1.31756
1.31466
1.31429
1.31121
1.30283
1.30964
1.31043
1.29478
1.30129
1.31857
1.31131
1.28589
1.26874
1.28446
1.29307
1.24481
1.20113
1.1986
1.20085
1.19761
1.19506
1.19284
1.19068
1.18829
1.18578
1.18311
1.18039
1.17769
1.17495
1.1722
1.16941
1.16659
1.16382
1.16103
1.1583
1.15562
1.15295
1.15032
1.14771
1.14515
1.14263
1.14016
1.13775
1.13536
1.13305
1.1308
1.12869
1.12672
1.12483
1.12305
1.12133
1.11961
1.11806
1.11684
1.11626
1.11572
1.11432
1.11519
1.11499
1.11627
1.11843
1.12036
1.12147
1.12258
1.12254
1.12211
1.12121
1.11885
1.11694
1.11578
1.11774
1.12259
1.12968
1.13635
1.14173
1.14804
1.15471
1.15723
1.16105
1.16927
1.17388
1.17829
1.18889
1.20303
1.2118
1.21458
1.21617
1.21533
1.21356
1.21175
1.21023
1.20807
1.20389
1.21915
1.21886
1.20729
1.2107
1.20263
1.17421
1.15912
1.16018
1.15049
1.14579
1.14502
1.13741
1.12601
1.12313
1.1489
1.15602
1.11594
1.12192
1.11885
1.09561
1.10208
1.10649
1.09853
1.11645
1.12403
1.13202
1.1388
1.14803
1.15517
1.15559
1.15148
1.14967
1.14726
1.14841
1.14725
1.15004
1.14976
1.15833
1.17255
1.18404
1.17556
1.17642
1.18335
1.19788
1.22526
1.24209
1.2196
1.2477
1.31984
1.28982
1.20932
1.15757
1.18644
1.24109
1.25757
1.24294
1.26901
1.31846
1.26457
1.30068
1.28861
1.23082
1.1988
1.2616
1.27544
1.27197
1.26985
1.27214
1.27768
1.28459
1.29056
1.29599
1.30056
1.30452
1.30618
1.30821
1.31245
1.31377
1.31387
1.31297
1.31252
1.31038
1.30702
1.30544
1.29565
1.29255
1.2951
1.28554
1.30385
1.32195
1.3177
1.31145
1.31875
1.32681
1.30432
1.28971
1.29672
1.28196
1.24463
1.22258
1.21912
1.21449
1.20927
1.20729
1.20568
1.20293
1.20001
1.19722
1.19439
1.19155
1.18867
1.18576
1.18294
1.18008
1.17711
1.17431
1.17147
1.16858
1.16575
1.1629
1.16024
1.15743
1.15467
1.15197
1.14918
1.14647
1.1439
1.14142
1.13906
1.1367
1.13431
1.1319
1.12928
1.12702
1.12504
1.12332
1.12142
1.11949
1.1175
1.11515
1.11278
1.11217
1.11214
1.10779
1.10902
1.10789
1.10759
1.10848
1.11027
1.11175
1.1141
1.11554
1.1164
1.11933
1.1184
1.11771
1.11403
1.10916
1.10898
1.11621
1.12346
1.12719
1.13419
1.14439
1.15261
1.16134
1.16794
1.17149
1.17641
1.18114
1.1879
1.20022
1.20778
1.2036
1.19182
1.18391
1.19472
1.1922
1.17915
1.16531
1.17701
1.18777
1.20159
1.21309
1.19853
1.18017
1.16886
1.16467
1.1503
1.14612
1.13362
1.12246
1.11906
1.11541
1.13077
1.12311
1.0858
1.08823
1.0826
1.06608
1.0701
1.06972
1.05404
1.07509
1.07982
1.08924
1.09271
1.10512
1.12959
1.15132
1.16321
1.15861
1.14952
1.14728
1.14614
1.16018
1.16414
1.16644
1.19452
1.19664
1.11398
1.11462
1.18536
1.22983
1.27946
1.30279
1.26789
1.3127
1.36409
1.30031
1.23245
1.22085
1.26415
1.29108
1.23077
1.21736
1.24317
1.2329
1.18329
1.24551
1.30326
1.28349
1.25602
1.25143
1.25806
1.26042
1.2684
1.27711
1.28577
1.2904
1.29185
1.29308
1.29469
1.29473
1.29665
1.30179
1.30508
1.30739
1.3091
1.31062
1.31758
1.32019
1.3206
1.32227
1.31336
1.2992
1.29754
1.31026
1.29483
1.29148
1.3088
1.30098
1.32001
1.32763
1.29224
1.24064
1.21898
1.22182
1.2217
1.21884
1.21556
1.21044
1.20665
1.20353
1.19984
1.1965
1.19368
1.19097
1.18869
1.18637
1.18405
1.18179
1.17918
1.17684
1.17427
1.17144
1.16863
1.16577
1.16282
1.15995
1.15715
1.15436
1.15157
1.14868
1.14582
1.143
1.14019
1.13753
1.13511
1.13288
1.13068
1.1287
1.12605
1.12367
1.1218
1.12041
1.11859
1.11713
1.11589
1.11375
1.1106
1.1098
1.1109
1.10689
1.10711
1.10659
1.10626
1.10647
1.10721
1.10812
1.11072
1.11306
1.11299
1.11491
1.1148
1.11782
1.12221
1.1189
1.11164
1.12061
1.13317
1.13007
1.12679
1.13091
1.13727
1.1468
1.15229
1.15355
1.15974
1.17047
1.17658
1.17616
1.17357
1.15823
1.13123
1.10928
1.12078
1.1368
1.14134
1.13505
1.14813
1.16771
1.19554
1.20939
1.19612
1.17568
1.17241
1.1633
1.1478
1.14488
1.12964
1.12987
1.12904
1.10875
1.12148
1.12324
1.09592
1.09647
1.09331
1.0935
1.08944
1.08443
1.06414
1.07308
1.07046
1.07708
1.07667
1.08052
1.09255
1.11117
1.14022
1.15051
1.1523
1.14497
1.129
1.13739
1.14962
1.13984
1.19165
1.21523
1.04874
1.00159
1.12688
1.22446
1.26646
1.26203
1.24279
1.33171
1.37985
1.31406
1.2583
1.28025
1.31858
1.3036
1.23433
1.29946
1.28596
1.22856
1.24089
1.24515
1.28669
1.29655
1.29973
1.24348
1.24881
1.25971
1.26992
1.2759
1.27777
1.27013
1.26152
1.25587
1.25438
1.25436
1.25653
1.26083
1.26439
1.26421
1.26609
1.27116
1.28315
1.29659
1.30352
1.31233
1.31458
1.30527
1.29529
1.2773
1.2847
1.31066
1.2978
1.32338
1.31427
1.24191
1.21572
1.22142
1.21917
1.21799
1.21355
1.20999
1.20569
1.2019
1.19934
1.19747
1.19649
1.19556
1.19499
1.19444
1.19336
1.19233
1.1909
1.18897
1.18731
1.18512
1.18295
1.1806
1.178
1.17528
1.17241
1.16959
1.16644
1.16331
1.16011
1.15699
1.1538
1.1506
1.14755
1.1443
1.14134
1.13861
1.13565
1.13366
1.13103
1.12852
1.12643
1.12485
1.12254
1.12106
1.11947
1.11832
1.11447
1.11246
1.10969
1.1072
1.10461
1.10242
1.1014
1.09959
1.10091
1.10082
1.1025
1.10645
1.11054
1.11395
1.1166
1.11406
1.11375
1.11899
1.11007
1.10985
1.13054
1.13518
1.12792
1.12688
1.13244
1.13819
1.13592
1.13203
1.1317
1.13809
1.14685
1.15378
1.15633
1.14349
1.11857
1.09981
1.10289
1.10732
1.10671
1.09601
1.11037
1.14189
1.18627
1.20605
1.19016
1.17408
1.16974
1.15659
1.13356
1.13128
1.12267
1.12967
1.12381
1.10572
1.1094
1.10993
1.10593
1.08925
1.09712
1.1
1.09596
1.09838
1.07841
1.07123
1.06173
1.06797
1.06697
1.0794
1.08582
1.08249
1.11088
1.11578
1.14041
1.15233
1.12222
1.12758
1.14953
1.10819
1.17831
1.23082
1.06083
0.968107
1.05359
1.20377
1.24988
1.21135
1.18909
1.31685
1.38982
1.3285
1.29812
1.31952
1.3224
1.29318
1.25055
1.34133
1.3006
1.27202
1.25808
1.26048
1.26959
1.30184
1.31643
1.23712
1.2458
1.25853
1.2642
1.26207
1.25124
1.23545
1.2276
1.22548
1.2284
1.22999
1.23012
1.23169
1.23675
1.23834
1.23655
1.23908
1.24649
1.25674
1.26819
1.29535
1.31078
1.29884
1.29775
1.3082
1.30721
1.29693
1.3154
1.2989
1.22978
1.2154
1.22179
1.21643
1.21424
1.21009
1.20679
1.2038
1.20149
1.20061
1.2005
1.20116
1.20108
1.20043
1.19945
1.19751
1.19548
1.19281
1.19016
1.18744
1.18479
1.18224
1.17993
1.17768
1.17554
1.17332
1.17114
1.16886
1.16641
1.16407
1.16158
1.1591
1.15664
1.15422
1.15181
1.14909
1.14665
1.14484
1.14168
1.1399
1.13761
1.13585
1.13431
1.13257
1.13054
1.13079
1.12767
1.12878
1.12566
1.12409
1.12068
1.11603
1.11254
1.10878
1.10876
1.10564
1.10487
1.10399
1.10172
1.09935
1.10036
1.09873
1.10358
1.11472
1.11505
1.11979
1.12013
1.11266
1.1165
1.12506
1.12299
1.11772
1.12461
1.13621
1.13147
1.12278
1.11866
1.11905
1.12724
1.13788
1.13885
1.12749
1.1128
1.11413
1.12342
1.12229
1.11461
1.10609
1.11961
1.14972
1.19222
1.20791
1.18822
1.17244
1.17157
1.14419
1.13551
1.13713
1.12562
1.12623
1.11111
1.11027
1.10484
1.10818
1.12154
1.0761
1.07895
1.08392
1.08661
1.09822
1.09492
1.08444
1.06395
1.06591
1.05956
1.07567
1.09402
1.0851
1.1043
1.08523
1.11925
1.14783
1.09953
1.1025
1.14381
1.07258
1.14331
1.22351
1.13019
1.03442
1.01703
1.17341
1.25069
1.19359
1.14697
1.29559
1.39224
1.33108
1.30799
1.30859
1.29906
1.26225
1.26312
1.39365
1.38642
1.27601
1.2454
1.26716
1.24801
1.31236
1.29189
1.23015
1.24001
1.25043
1.25004
1.23951
1.22561
1.21923
1.2223
1.22661
1.23103
1.23105
1.23017
1.23371
1.23705
1.23728
1.23341
1.227
1.2268
1.2321
1.23192
1.25548
1.2926
1.30847
1.31249
1.29262
1.28209
1.30642
1.29318
1.22795
1.20418
1.21283
1.20863
1.20712
1.20674
1.20254
1.20129
1.19925
1.1994
1.1999
1.20048
1.19941
1.19769
1.19488
1.19193
1.18886
1.18552
1.18225
1.17896
1.17586
1.1729
1.17012
1.16748
1.16497
1.16246
1.16035
1.15807
1.15564
1.15334
1.15094
1.14853
1.14628
1.14417
1.14206
1.14008
1.13819
1.13583
1.13497
1.13229
1.13117
1.12942
1.12829
1.12823
1.12708
1.1255
1.12843
1.12577
1.1286
1.12887
1.12633
1.12373
1.11916
1.11332
1.10877
1.106
1.10393
1.10411
1.10572
1.1084
1.10743
1.10725
1.10576
1.09614
1.09886
1.10518
1.11001
1.11266
1.11485
1.11419
1.117
1.12189
1.11886
1.11912
1.13169
1.13702
1.13775
1.13614
1.12567
1.1195
1.12465
1.12685
1.12776
1.1149
1.10645
1.11012
1.11766
1.11178
1.10261
1.11685
1.15055
1.19878
1.21174
1.18962
1.17711
1.17703
1.14291
1.14628
1.13153
1.11022
1.11858
1.109
1.1096
1.10813
1.11261
1.1213
1.0738
1.06683
1.05877
1.06992
1.07385
1.07709
1.09046
1.06891
1.06799
1.05511
1.06096
1.09556
1.08984
1.10846
1.07739
1.09802
1.14414
1.09092
1.08849
1.14787
1.05975
1.10596
1.1871
1.19046
1.13176
1.01936
1.1361
1.25732
1.19356
1.1128
1.27412
1.38069
1.32726
1.30966
1.31369
1.31635
1.31276
1.32796
1.4619
1.40963
1.28134
1.24757
1.27917
1.23626
1.31679
1.28336
1.22234
1.23179
1.24111
1.2357
1.22361
1.2192
1.22693
1.23633
1.23902
1.24078
1.23788
1.23985
1.24668
1.24916
1.24468
1.24114
1.23655
1.23172
1.22871
1.22218
1.23993
1.2694
1.275
1.27307
1.27635
1.30067
1.2966
1.23711
1.20377
1.21088
1.21157
1.20516
1.20466
1.20055
1.19784
1.19747
1.19686
1.19862
1.19855
1.19793
1.19542
1.19265
1.19025
1.18819
1.18573
1.18334
1.18091
1.17842
1.17606
1.17359
1.1713
1.16864
1.1663
1.16395
1.16152
1.15908
1.15665
1.1541
1.15138
1.1487
1.14588
1.14317
1.14039
1.13745
1.13535
1.13226
1.13017
1.12734
1.12548
1.12306
1.12181
1.12124
1.11978
1.12046
1.12266
1.12354
1.12727
1.13119
1.13511
1.13117
1.12901
1.12098
1.11788
1.11216
1.10616
1.10334
1.10389
1.10369
1.1033
1.10282
1.10987
1.10884
1.10399
1.10192
1.10718
1.10864
1.11279
1.11583
1.11334
1.11385
1.11716
1.11783
1.13182
1.13719
1.13667
1.14244
1.13651
1.12533
1.12544
1.12324
1.12792
1.1077
1.09719
1.09376
1.11437
1.10729
1.10454
1.11521
1.14992
1.20101
1.21669
1.18893
1.18738
1.18306
1.15285
1.15172
1.13282
1.12768
1.12563
1.11848
1.12612
1.12079
1.11143
1.1194
1.09115
1.09332
1.07258
1.07641
1.07467
1.06774
1.09221
1.07323
1.07829
1.06151
1.05788
1.0915
1.07889
1.1197
1.07307
1.08095
1.14848
1.08243
1.08205
1.14482
1.06455
1.07973
1.14763
1.21444
1.18175
1.03845
1.10107
1.25413
1.2012
1.08253
1.25411
1.36535
1.3184
1.3018
1.32807
1.28857
1.37827
1.40644
1.52768
1.42852
1.2931
1.24922
1.28314
1.25275
1.31826
1.30925
1.21395
1.22378
1.23146
1.22249
1.2137
1.21832
1.22822
1.22882
1.22326
1.22378
1.221
1.22433
1.23128
1.23367
1.23446
1.23996
1.2432
1.23918
1.22736
1.21632
1.21972
1.23181
1.2441
1.26813
1.29125
1.28679
1.23721
1.19844
1.19779
1.20469
1.19963
1.19776
1.19723
1.19342
1.19305
1.193
1.19414
1.19539
1.1944
1.19288
1.18979
1.18839
1.18689
1.18565
1.18391
1.18169
1.17997
1.17793
1.17632
1.17439
1.17271
1.17104
1.1692
1.16737
1.1653
1.1634
1.16128
1.1592
1.15705
1.15471
1.15217
1.14935
1.14691
1.1438
1.14131
1.13858
1.13543
1.13259
1.12943
1.12553
1.12245
1.11878
1.11462
1.115
1.11225
1.11171
1.118
1.11934
1.12491
1.12536
1.1281
1.11993
1.11772
1.11633
1.11373
1.10696
1.10803
1.11126
1.10785
1.10016
1.10078
1.1083
1.11046
1.10561
1.10454
1.10473
1.10457
1.11349
1.11666
1.11276
1.11497
1.11127
1.12367
1.13944
1.13774
1.13854
1.13522
1.12458
1.12158
1.11473
1.12461
1.10919
1.10006
1.08979
1.11307
1.10599
1.10717
1.10985
1.1478
1.2011
1.22379
1.19171
1.19525
1.19245
1.17072
1.16091
1.1451
1.1383
1.12838
1.11458
1.10976
1.11659
1.11161
1.12293
1.10057
1.10478
1.09897
1.08687
1.08294
1.06175
1.09443
1.07761
1.08152
1.06528
1.06597
1.09246
1.06707
1.14269
1.07259
1.06464
1.14763
1.08662
1.09048
1.13968
1.08561
1.05867
1.11545
1.21012
1.17834
1.0601
1.07112
1.23601
1.20999
1.0565
1.22578
1.34943
1.31333
1.29175
1.32971
1.29446
1.40974
1.43824
1.54418
1.41339
1.28583
1.25487
1.27958
1.28509
1.31926
1.31308
1.20533
1.21551
1.22136
1.21027
1.20189
1.20437
1.20749
1.20412
1.2037
1.21065
1.21017
1.21446
1.22168
1.22867
1.23885
1.24631
1.24686
1.24751
1.24022
1.23559
1.24014
1.25163
1.26775
1.2816
1.26773
1.23076
1.19711
1.18874
1.19564
1.19543
1.19071
1.19013
1.18739
1.18513
1.18666
1.18828
1.19057
1.1914
1.18966
1.18759
1.18551
1.18508
1.18453
1.18334
1.18116
1.179
1.17736
1.17577
1.1744
1.17311
1.17206
1.17093
1.16986
1.16891
1.16789
1.16685
1.16552
1.16402
1.16247
1.16053
1.15881
1.15622
1.15388
1.15154
1.14896
1.14691
1.14495
1.14313
1.14156
1.13892
1.13728
1.13283
1.12872
1.12409
1.11988
1.11251
1.11207
1.1124
1.11426
1.11281
1.11749
1.11674
1.11301
1.11109
1.11361
1.1124
1.10661
1.1104
1.11229
1.10736
1.10108
1.10606
1.11255
1.11286
1.1088
1.10743
1.10362
1.10841
1.11937
1.11369
1.11739
1.11301
1.11162
1.12983
1.13781
1.13425
1.13472
1.13358
1.13632
1.12355
1.12806
1.11335
1.098
1.09195
1.11821
1.11778
1.11896
1.10919
1.13902
1.19639
1.22497
1.20001
1.20217
1.1989
1.1879
1.17404
1.15475
1.1499
1.13172
1.12308
1.11016
1.11063
1.1189
1.12487
1.11031
1.10007
1.10966
1.10699
1.10861
1.06987
1.09854
1.08877
1.09034
1.06949
1.07263
1.09591
1.0647
1.16953
1.08521
1.05653
1.13446
1.10059
1.09747
1.13934
1.10968
1.04728
1.09845
1.19661
1.1506
1.08818
1.09603
1.26245
1.22793
1.03906
1.20531
1.34069
1.31958
1.30877
1.30223
1.38374
1.39635
1.36519
1.48449
1.3874
1.26469
1.26473
1.29084
1.30799
1.32105
1.31449
1.19668
1.20636
1.21061
1.19858
1.18981
1.19258
1.19994
1.20355
1.20371
1.2066
1.20587
1.21046
1.21329
1.2173
1.22435
1.2324
1.23868
1.24486
1.24661
1.24958
1.25253
1.25415
1.25216
1.23658
1.21375
1.1935
1.18512
1.18813
1.19059
1.18832
1.18589
1.18563
1.18351
1.18341
1.18562
1.18683
1.18865
1.18773
1.18535
1.18272
1.18085
1.18116
1.18089
1.17944
1.17716
1.17569
1.17451
1.17342
1.17243
1.17128
1.17023
1.1694
1.16854
1.16775
1.16675
1.16567
1.16468
1.16355
1.1626
1.16118
1.15978
1.15826
1.15653
1.15461
1.1523
1.14913
1.14721
1.14451
1.1443
1.14232
1.14255
1.1404
1.14088
1.13778
1.13456
1.1304
1.12251
1.11654
1.11257
1.11231
1.11082
1.11083
1.1129
1.1106
1.1065
1.1126
1.11166
1.11192
1.11371
1.1136
1.10763
1.1063
1.10929
1.1153
1.11189
1.10652
1.10285
1.10408
1.12317
1.12217
1.11629
1.11948
1.10878
1.11411
1.12794
1.13167
1.13533
1.13638
1.1444
1.13367
1.13048
1.12631
1.10123
1.09298
1.11308
1.12523
1.1261
1.11852
1.13368
1.19116
1.22728
1.2126
1.20917
1.20225
1.2004
1.18195
1.16491
1.15597
1.13903
1.12202
1.11311
1.11595
1.1377
1.13265
1.10478
1.08672
1.102
1.11071
1.11262
1.07007
1.09651
1.0921
1.09203
1.07398
1.07654
1.09396
1.06068
1.16876
1.10757
1.06341
1.11701
1.11169
1.09496
1.14021
1.12926
1.04937
1.10205
1.1804
1.11983
1.11946
1.18154
1.31287
1.23444
1.02205
1.16959
1.33002
1.32336
1.32947
1.31363
1.446
1.31661
1.31391
1.46711
1.35177
1.25371
1.26802
1.30301
1.3108
1.31817
1.32595
1.18747
1.19623
1.20269
1.19617
1.19122
1.19445
1.19952
1.19795
1.18813
1.1859
1.18652
1.19285
1.19598
1.20081
1.20693
1.21054
1.21556
1.22018
1.22217
1.22449
1.22296
1.21839
1.20957
1.19835
1.18835
1.18447
1.18445
1.18645
1.185
1.18188
1.1802
1.17848
1.1769
1.17713
1.17887
1.18019
1.18162
1.1804
1.17736
1.17482
1.17415
1.17575
1.17632
1.17535
1.17346
1.17205
1.17063
1.16967
1.16859
1.16752
1.16651
1.16601
1.16563
1.16541
1.1651
1.16417
1.16251
1.16032
1.15801
1.15566
1.15385
1.15163
1.15044
1.14998
1.14969
1.14812
1.1463
1.1442
1.14338
1.14366
1.14239
1.14148
1.13877
1.13972
1.13804
1.13961
1.13523
1.13464
1.12392
1.1188
1.11742
1.11231
1.11011
1.11773
1.1115
1.11003
1.11221
1.11238
1.11302
1.11765
1.11958
1.11489
1.11035
1.11773
1.12099
1.11461
1.108
1.10524
1.11523
1.1275
1.11319
1.1196
1.11651
1.11231
1.11869
1.12919
1.13693
1.13782
1.14357
1.13628
1.12101
1.13447
1.11064
1.09938
1.1097
1.13268
1.13543
1.12678
1.13018
1.18378
1.22241
1.22936
1.21312
1.20959
1.2009
1.17847
1.16703
1.15079
1.13805
1.1289
1.13172
1.12939
1.14803
1.15509
1.12864
1.10009
1.11549
1.12955
1.12412
1.07755
1.09693
1.09628
1.09818
1.0718
1.0734
1.09213
1.06007
1.1611
1.12553
1.07626
1.11371
1.12112
1.09141
1.14632
1.14287
1.06354
1.11921
1.15667
1.10032
1.14943
1.22262
1.27709
1.1907
1.00547
1.13939
1.32204
1.32726
1.31583
1.37152
1.44687
1.27874
1.34046
1.44521
1.30758
1.25903
1.28619
1.31025
1.30918
1.31829
1.33636
1.17905
1.18884
1.19492
1.18508
1.17743
1.17766
1.18049
1.18398
1.18626
1.19163
1.18476
1.182
1.18482
1.18442
1.18732
1.19038
1.19269
1.19459
1.19377
1.19314
1.19014
1.18723
1.18289
1.17864
1.17744
1.17639
1.17664
1.17637
1.17491
1.17308
1.17215
1.17103
1.16921
1.16969
1.17086
1.17288
1.17448
1.17373
1.17181
1.17012
1.17028
1.17147
1.17144
1.17015
1.16771
1.16542
1.16366
1.16305
1.16269
1.16247
1.16227
1.16276
1.16354
1.16429
1.16453
1.16471
1.16408
1.16276
1.162
1.15903
1.15597
1.1517
1.14708
1.14579
1.14435
1.14344
1.13952
1.13763
1.13462
1.13734
1.13779
1.14028
1.1373
1.13785
1.13404
1.13871
1.13543
1.13677
1.13686
1.12894
1.12487
1.12579
1.1133
1.11594
1.11624
1.11193
1.11665
1.12158
1.11586
1.1114
1.11882
1.12247
1.1136
1.11622
1.12139
1.12051
1.11133
1.11479
1.11045
1.13
1.12117
1.12056
1.1241
1.11576
1.11545
1.12363
1.13773
1.13649
1.1441
1.15055
1.12484
1.13655
1.12819
1.10986
1.1103
1.13171
1.14511
1.13901
1.1332
1.17274
1.21417
1.24566
1.22027
1.21869
1.19936
1.17659
1.15874
1.14623
1.13759
1.12675
1.1413
1.13886
1.1423
1.14983
1.13621
1.11374
1.13436
1.13884
1.12374
1.08737
1.09956
1.09728
1.10676
1.06796
1.05597
1.09128
1.06466
1.17829
1.12699
1.07953
1.123
1.13372
1.09123
1.15228
1.14512
1.07999
1.13912
1.1313
1.10204
1.17908
1.15439
1.15981
1.12276
0.983451
1.10762
1.31234
1.33417
1.31228
1.40458
1.39729
1.26034
1.38195
1.39461
1.27583
1.25625
1.30106
1.30773
1.2986
1.32123
1.34716
1.17099
1.18018
1.18311
1.17445
1.17096
1.17158
1.17564
1.18063
1.17215
1.17008
1.17745
1.182
1.18079
1.17758
1.17704
1.1763
1.17663
1.17773
1.17839
1.17871
1.17846
1.17584
1.17405
1.17295
1.17149
1.1708
1.17045
1.16913
1.16742
1.16551
1.16355
1.1622
1.1615
1.16305
1.1653
1.16753
1.17013
1.1708
1.17007
1.16867
1.1667
1.16421
1.16234
1.16079
1.15787
1.15572
1.15553
1.15621
1.15657
1.15687
1.15771
1.1591
1.16033
1.16267
1.16373
1.1631
1.16309
1.16022
1.15959
1.15855
1.15631
1.15301
1.14708
1.14549
1.14729
1.14844
1.14529
1.14006
1.13527
1.13591
1.13663
1.13947
1.13427
1.1352
1.13243
1.13287
1.14091
1.13819
1.13882
1.13938
1.12845
1.13093
1.12554
1.12368
1.12636
1.11874
1.1133
1.12191
1.12592
1.11862
1.12295
1.13057
1.12055
1.12013
1.12186
1.1314
1.11757
1.12289
1.11274
1.11993
1.12797
1.12355
1.12888
1.11929
1.11633
1.11945
1.13909
1.14319
1.14154
1.15647
1.13534
1.13135
1.13697
1.11997
1.11578
1.13004
1.14934
1.15146
1.14281
1.15675
1.20772
1.2495
1.23261
1.23327
1.20548
1.18163
1.15858
1.14776
1.131
1.12536
1.15017
1.14398
1.14848
1.16448
1.14019
1.11505
1.14856
1.15573
1.11638
1.08602
1.08993
1.10447
1.11174
1.07877
1.04221
1.07026
1.04338
1.16961
1.11349
1.07718
1.12261
1.13748
1.09386
1.16328
1.14908
1.0983
1.15437
1.10816
1.1179
1.18451
1.07846
1.07247
1.0773
0.982376
1.08692
1.30399
1.3397
1.35241
1.37368
1.359
1.27037
1.43008
1.32387
1.2578
1.27449
1.31784
1.30321
1.29751
1.33025
1.35723
1.16336
1.17273
1.17713
1.17084
1.16553
1.16315
1.16362
1.16937
1.17299
1.17573
1.17339
1.16862
1.17074
1.17213
1.17366
1.17577
1.17306
1.17154
1.16808
1.16858
1.16588
1.167
1.1668
1.16717
1.16852
1.168
1.16896
1.16752
1.16696
1.1653
1.16441
1.16309
1.16222
1.16132
1.16144
1.16254
1.16433
1.16536
1.16572
1.16413
1.16018
1.15706
1.15515
1.15324
1.15146
1.15202
1.15277
1.15235
1.15274
1.15347
1.15348
1.15441
1.15531
1.15649
1.15899
1.15663
1.15692
1.15396
1.15163
1.15263
1.15202
1.14591
1.13791
1.13244
1.13673
1.14048
1.14137
1.13608
1.12823
1.13025
1.13438
1.14277
1.14354
1.13379
1.1323
1.12539
1.13137
1.14057
1.14031
1.14447
1.13589
1.13341
1.12967
1.12338
1.12758
1.13127
1.1262
1.12696
1.12739
1.11875
1.12173
1.13069
1.12486
1.12259
1.12055
1.13258
1.124
1.12801
1.12503
1.11423
1.134
1.13006
1.1327
1.12389
1.12288
1.1183
1.13397
1.15089
1.14548
1.15939
1.14941
1.1274
1.13233
1.13204
1.11743
1.1327
1.15585
1.16082
1.16332
1.14584
1.19814
1.24895
1.23975
1.23909
1.22563
1.2009
1.18311
1.16905
1.14126
1.13447
1.16346
1.14793
1.14309
1.16607
1.14346
1.12479
1.15933
1.16369
1.10995
1.09317
1.08555
1.11072
1.11409
1.10334
1.06772
1.06716
1.03141
1.13392
1.09191
1.08287
1.14114
1.14979
1.10354
1.18064
1.14975
1.11074
1.16626
1.08877
1.13736
1.16706
1.05708
1.05747
1.06712
0.994321
1.0797
1.30137
1.35117
1.40506
1.33633
1.34128
1.27535
1.40353
1.26486
1.25703
1.29454
1.32679
1.30074
1.30791
1.34506
1.3563
1.15651
1.16535
1.16566
1.1602
1.15954
1.15765
1.15583
1.16198
1.16466
1.16057
1.16028
1.16246
1.16673
1.17125
1.16858
1.1668
1.16637
1.16857
1.17012
1.16948
1.16998
1.16634
1.16509
1.16351
1.1625
1.16052
1.16145
1.16008
1.16068
1.16028
1.16003
1.15913
1.15821
1.15796
1.15849
1.15886
1.15914
1.15948
1.15961
1.15774
1.15581
1.15396
1.15206
1.15068
1.15028
1.15019
1.14963
1.1492
1.14889
1.14894
1.14956
1.1508
1.15439
1.1533
1.15645
1.15653
1.15716
1.15464
1.14928
1.14857
1.15252
1.14931
1.14073
1.13098
1.13114
1.13741
1.14075
1.13723
1.12877
1.12168
1.12651
1.12888
1.1392
1.13613
1.13123
1.12783
1.12833
1.13725
1.1427
1.15
1.14375
1.13521
1.13334
1.12959
1.12685
1.12747
1.12503
1.12929
1.13447
1.12936
1.1304
1.1342
1.13012
1.12857
1.1252
1.13302
1.13021
1.12812
1.13395
1.11047
1.13547
1.13554
1.13601
1.13128
1.12848
1.12209
1.13461
1.15401
1.1511
1.15167
1.16039
1.13846
1.1271
1.14276
1.12643
1.13404
1.15639
1.16171
1.19051
1.14846
1.17789
1.24689
1.24908
1.24096
1.23775
1.22403
1.22525
1.20814
1.17182
1.16022
1.18308
1.14993
1.14314
1.17535
1.15087
1.13707
1.17712
1.17283
1.09877
1.07769
1.08977
1.12512
1.1314
1.13633
1.12341
1.11449
1.06879
1.10882
1.08411
1.08516
1.15778
1.15977
1.11933
1.2036
1.14893
1.11843
1.17283
1.07332
1.15397
1.16608
1.07187
1.08061
1.09083
1.02141
1.08925
1.3167
1.3713
1.43624
1.32125
1.31611
1.26992
1.30812
1.25394
1.28678
1.319
1.34348
1.3167
1.3235
1.34687
1.33835
1.15007
1.15649
1.15183
1.14866
1.14981
1.15267
1.15021
1.14965
1.15426
1.15756
1.15968
1.16008
1.15869
1.1588
1.16368
1.16634
1.16798
1.16377
1.16232
1.16063
1.16111
1.16329
1.16425
1.1655
1.16632
1.16468
1.16462
1.16294
1.16123
1.16002
1.15811
1.15748
1.15678
1.15611
1.15494
1.15357
1.15342
1.1542
1.15424
1.15346
1.15241
1.15123
1.15101
1.14992
1.1491
1.14835
1.14793
1.14875
1.14763
1.14641
1.15032
1.14935
1.15311
1.15307
1.15321
1.15458
1.15646
1.15261
1.14391
1.14131
1.14614
1.14672
1.14145
1.13305
1.13066
1.13102
1.13838
1.13394
1.13294
1.12532
1.13058
1.13424
1.1362
1.13333
1.12739
1.12314
1.12301
1.1314
1.13837
1.14532
1.14924
1.14423
1.13972
1.13368
1.13046
1.1358
1.13225
1.12933
1.13279
1.12951
1.13138
1.13322
1.13203
1.13537
1.12859
1.13237
1.13612
1.13228
1.14339
1.11615
1.13748
1.14225
1.14091
1.14018
1.12849
1.12712
1.13928
1.15844
1.16661
1.14895
1.16123
1.15579
1.12668
1.13996
1.14711
1.14201
1.1607
1.161
1.20146
1.1779
1.16123
1.22814
1.25832
1.2507
1.24129
1.24066
1.2489
1.24782
1.20743
1.19136
1.21105
1.15574
1.1395
1.17445
1.15124
1.14276
1.18557
1.17684
1.10889
1.07428
1.10078
1.1393
1.16187
1.17841
1.17062
1.19458
1.1351
1.12836
1.1161
1.11473
1.18458
1.16704
1.13361
1.22553
1.14738
1.12543
1.17619
1.06366
1.16536
1.19101
1.09308
1.11492
1.13154
1.06722
1.12674
1.35108
1.38935
1.4373
1.32282
1.29222
1.26114
1.25869
1.27523
1.31216
1.33077
1.35466
1.34614
1.35195
1.35121
1.3401
1.14355
1.14558
1.14068
1.14343
1.14254
1.14775
1.14574
1.14425
1.14641
1.15181
1.1538
1.15154
1.15277
1.15437
1.15621
1.15684
1.15865
1.16285
1.16419
1.1643
1.16217
1.15915
1.15688
1.15587
1.15708
1.15847
1.16036
1.1623
1.16265
1.16381
1.1627
1.16088
1.15881
1.15675
1.15478
1.15447
1.15376
1.15227
1.15201
1.15187
1.15097
1.15088
1.14951
1.14828
1.1473
1.14671
1.14587
1.14588
1.14791
1.14696
1.1505
1.14935
1.14987
1.1498
1.14841
1.15096
1.15573
1.15372
1.14561
1.13854
1.13891
1.13562
1.13632
1.1318
1.13151
1.13014
1.13116
1.12987
1.12795
1.1255
1.12667
1.13093
1.1358
1.13812
1.1313
1.12848
1.12946
1.13614
1.14477
1.14629
1.14888
1.14143
1.13924
1.13682
1.1294
1.13244
1.13452
1.13187
1.1361
1.13662
1.13716
1.13651
1.13631
1.14417
1.13768
1.13332
1.13968