/*--------------------------------*- C++ -*----------------------------------*\
| =========                 |                                                 |
| \\      /  F ield         | OpenFOAM: The Open Source CFD Toolbox           |
|  \\    /   O peration     | Version:  dev                                   |
|   \\  /    A nd           | Web:      http://www.openfoam.org               |
|    \\/     M anipulation  |                                                 |
\*---------------------------------------------------------------------------*/
FoamFile
{
    version     2.0;
    format      ascii;
    class       volVectorField;
    object      U;
    location    "9.163";
}
// * * * * * * * * * * * * * * * * * * * * * * * * * * * * * * * * * * * * * //

dimensions      [0 1 -1 0 0 0 0];

internalField   nonuniform List<vector> 
12225
(
(7.88423 0.433403 0)
(6.91233 0.297154 0)
(6.24845 0.141158 0)
(7.27808 0.0858183 0)
(7.03545 0.109013 0)
(8.78188 0.0898096 0)
(8.08162 0.146806 0)
(10.0383 0.0574633 0)
(8.92704 0.159618 0)
(10.9403 0.0447223 0)
(9.66632 0.157518 0)
(11.6832 0.0266717 0)
(10.911 0.214181 0)
(11.6657 -0.057838 0)
(14.6408 -0.370706 0)
(9.32795 2.21346 0)
(21.3909 -5.1746 0)
(10.6179 3.70512 0)
(10.3268 1.15045 0)
(12.1647 1.12274 0)
(10.5262 0.737964 0)
(13.0594 0.45409 0)
(10.3057 0.369938 0)
(14.5863 0.27371 0)
(10.6241 0.314715 0)
(16.2727 0.176947 0)
(11.1134 0.265684 0)
(17.8863 0.0402287 0)
(12.3259 0.279291 0)
(19.3119 -0.356725 0)
(14.7143 0.723231 0)
(20.4618 -1.64523 0)
(18.4589 1.93991 0)
(21.3447 -3.40055 0)
(25.0582 -0.74544 0)
(13.7311 -1.37215 0)
(10.148 1.07275 0)
(15.085 1.34257 0)
(12.0355 1.03405 0)
(17.3294 0.777387 0)
(12.1254 0.645594 0)
(19.1492 0.567961 0)
(12.4122 0.503864 0)
(20.8204 0.345671 0)
(13.2042 0.496924 0)
(21.9359 -0.13805 0)
(15.0168 0.601747 0)
(22.5997 -0.925141 0)
(17.4717 0.93806 0)
(23.14 -2.005 0)
(20.6053 1.10285 0)
(23.7086 -2.82603 0)
(25.3753 1.87368 0)
(22.0278 -13.9112 0)
(7.4318 0.768713 0)
(17.1537 1.51551 0)
(11.572 1.23337 0)
(20.0485 1.05968 0)
(13.5287 0.971509 0)
(21.6407 0.652414 0)
(15.3996 0.916073 0)
(22.6373 0.200916 0)
(17.2738 0.955459 0)
(23.0711 -0.457325 0)
(18.9061 1.01701 0)
(23.3983 -1.3578 0)
(20.1124 1.37016 0)
(23.8246 -2.7079 0)
(21.6689 1.6242 0)
(24.6733 -4.47953 0)
(24.7049 0.584922 0)
(22.0066 -6.84099 0)
(6.78456 1.01011 0)
(16.5138 1.03816 0)
(12.3482 1.47068 0)
(18.8851 0.815457 0)
(15.7929 1.47885 0)
(20.1961 0.373669 0)
(18.1305 1.4052 0)
(21.1902 -0.096002 0)
(19.9155 1.43338 0)
(21.8753 -0.68051 0)
(20.8755 1.46006 0)
(22.5588 -1.50509 0)
(21.5658 1.72751 0)
(23.1825 -2.93071 0)
(22.5403 2.12429 0)
(23.3298 -6.31844 0)
(25.1149 5.32845 0)
(24.6669 -12.8396 0)
(9.36763 1.15009 0)
(13.5217 0.783599 0)
(13.253 1.68147 0)
(15.8247 0.546946 0)
(16.5931 1.75932 0)
(17.5794 0.208706 0)
(18.6222 1.73249 0)
(19.1082 -0.304105 0)
(20.172 1.8131 0)
(20.2589 -0.805456 0)
(21.2214 1.72211 0)
(21.2242 -1.55571 0)
(22.2705 1.71807 0)
(22.0507 -2.84921 0)
(23.3466 1.56659 0)
(22.3496 -5.68606 0)
(24.3579 3.11549 0)
(26.5849 -9.01381 0)
(10.5246 1.34371 0)
(12.8569 0.744384 0)
(14.0285 2.32144 0)
(15.2676 0.338669 0)
(16.6008 2.35368 0)
(17.4024 0.0386722 0)
(18.4894 2.32164 0)
(19.1573 -0.519526 0)
(20.0687 2.32576 0)
(20.4698 -0.926866 0)
(21.4383 2.00411 0)
(21.3461 -1.60358 0)
(22.6314 1.70877 0)
(22.3607 -2.73322 0)
(23.4752 1.14992 0)
(23.0851 -4.52589 0)
(23.3938 -0.209914 0)
(24.3633 -5.95384 0)
(10.5435 1.41027 0)
(12.5858 0.699866 0)
(14.3576 2.47889 0)
(15.4762 0.340985 0)
(16.5845 2.51537 0)
(17.6199 -0.00175276 0)
(18.4199 2.44359 0)
(19.2363 -0.547593 0)
(20.0247 2.27316 0)
(20.5276 -0.824173 0)
(21.3561 1.82584 0)
(21.51 -1.39283 0)
(22.3391 1.30548 0)
(22.6347 -2.25687 0)
(22.6278 0.309248 0)
(23.293 -3.61308 0)
(22.2063 -0.72652 0)
(22.9931 -3.60573 0)
(10.8696 1.49651 0)
(12.4158 0.587885 0)
(14.3096 2.79141 0)
(15.0897 0.299276 0)
(16.4516 2.83417 0)
(17.2752 0.0268717 0)
(18.4088 2.63073 0)
(19.1258 -0.34044 0)
(20.0299 2.28447 0)
(20.594 -0.595313 0)
(21.3404 1.73852 0)
(21.5628 -1.14713 0)
(22.1276 1.00186 0)
(22.5625 -1.88241 0)
(22.1832 -0.0645514 0)
(22.7623 -2.76946 0)
(21.6483 -1.29308 0)
(22.2654 -2.8229 0)
(11.0691 1.46571 0)
(12.7641 0.78757 0)
(14.3528 3.01831 0)
(15.3986 0.588987 0)
(16.6984 2.83561 0)
(17.5977 0.269966 0)
(18.6687 2.4595 0)
(19.3398 -0.0832464 0)
(20.1368 2.03301 0)
(20.6762 -0.30164 0)
(21.3253 1.44593 0)
(21.5912 -0.784089 0)
(21.9365 0.756147 0)
(22.2127 -1.33884 0)
(21.8592 -0.258983 0)
(22.2303 -1.842 0)
(21.5159 -1.44133 0)
(21.5441 -1.93657 0)
(10.9809 1.56426 0)
(12.7918 0.898157 0)
(14.4843 3.10065 0)
(15.563 0.796298 0)
(16.7777 2.84476 0)
(17.6667 0.589277 0)
(18.5795 2.44109 0)
(19.272 0.290628 0)
(19.931 1.94669 0)
(20.4398 0.0300439 0)
(20.97 1.28085 0)
(21.2405 -0.437907 0)
(21.4856 0.548963 0)
(21.7115 -0.923595 0)
(21.4702 -0.364716 0)
(21.6884 -1.3185 0)
(21.2832 -1.38885 0)
(21.1608 -1.61031 0)
(10.8197 1.39718 0)
(12.7457 1.23607 0)
(14.2108 3.00686 0)
(15.415 1.25638 0)
(16.4905 2.69772 0)
(17.5352 1.01206 0)
(18.2894 2.17509 0)
(19.0949 0.74043 0)
(19.617 1.65345 0)
(20.2161 0.492085 0)
(20.5809 1.11202 0)
(20.888 0.123731 0)
(21.0946 0.53526 0)
(21.2982 -0.348198 0)
(21.2265 -0.224534 0)
(21.3238 -0.755032 0)
(21.2147 -1.01402 0)
(21.0753 -1.24187 0)
(10.778 1.38791 0)
(12.7507 1.57556 0)
(14.0622 2.8291 0)
(15.347 1.6587 0)
(16.4182 2.59558 0)
(17.4468 1.54567 0)
(18.1909 2.12199 0)
(18.9349 1.27532 0)
(19.4349 1.57105 0)
(19.9451 0.94059 0)
(20.337 1.02897 0)
(20.6768 0.508782 0)
(20.9156 0.45793 0)
(21.1266 0.001964 0)
(21.2263 -0.173565 0)
(21.2795 -0.496086 0)
(21.198 -0.787211 0)
(21.1092 -0.977803 0)
(10.915 1.16196 0)
(12.8439 2.12864 0)
(13.9143 2.74606 0)
(14.9782 2.1287 0)
(16.0103 2.43277 0)
(17.0274 1.9009 0)
(17.8904 1.98509 0)
(18.6572 1.61378 0)
(19.2396 1.58171 0)
(19.736 1.29945 0)
(20.1086 1.11519 0)
(20.4157 0.812731 0)
(20.6337 0.611092 0)
(20.8109 0.339955 0)
(20.9332 0.109863 0)
(20.9675 -0.142192 0)
(20.9268 -0.371251 0)
(20.8519 -0.528062 0)
(10.6911 0.889906 0)
(12.5374 2.59744 0)
(13.7116 2.88168 0)
(14.8647 2.60745 0)
(15.8765 2.52405 0)
(16.7968 2.1999 0)
(17.5829 2.07694 0)
(18.2398 1.88141 0)
(18.8144 1.73881 0)
(19.3208 1.5405 0)
(19.741 1.33015 0)
(20.1156 1.10279 0)
(20.3854 0.844129 0)
(20.6114 0.591736 0)
(20.7414 0.378908 0)
(20.846 0.162062 0)
(20.8366 -0.0364317 0)
(20.8157 -0.208636 0)
(10.5901 0.959024 0)
(12.2713 2.97702 0)
(13.5285 2.9553 0)
(14.7192 2.77291 0)
(15.7107 2.65982 0)
(16.5918 2.49834 0)
(17.331 2.34838 0)
(17.9996 2.13962 0)
(18.6089 1.92168 0)
(19.1347 1.67724 0)
(19.5599 1.42492 0)
(19.9258 1.18175 0)
(20.1695 0.969031 0)
(20.3503 0.758778 0)
(20.4338 0.595129 0)
(20.5156 0.458804 0)
(20.4804 0.343103 0)
(20.4793 0.229262 0)
(10.6404 1.2222 0)
(12.1896 3.20708 0)
(13.3383 3.12184 0)
(14.4622 3.01824 0)
(15.4575 2.90466 0)
(16.3656 2.70267 0)
(17.1768 2.48497 0)
(17.9094 2.24706 0)
(18.5306 2.03864 0)
(19.0498 1.85802 0)
(19.4262 1.69479 0)
(19.6985 1.54311 0)
(19.8604 1.38476 0)
(19.9698 1.22634 0)
(19.9931 1.06474 0)
(20.0312 0.918562 0)
(19.9872 0.791208 0)
(20.0045 0.644697 0)
(10.3839 1.15254 0)
(11.841 3.32368 0)
(13.0527 3.18375 0)
(14.2601 3.00802 0)
(15.3214 2.86425 0)
(16.2264 2.67656 0)
(16.9956 2.47279 0)
(17.6452 2.26445 0)
(18.1847 2.08902 0)
(18.6433 1.95299 0)
(19.0167 1.85874 0)
(19.3181 1.76189 0)
(19.5407 1.66391 0)
(19.7339 1.54073 0)
(19.8498 1.38493 0)
(19.9623 1.23365 0)
(19.996 1.11682 0)
(20.0646 0.977088 0)
(10.5146 1.2551 0)
(11.8254 3.17859 0)
(12.9755 2.91338 0)
(14.1518 2.79885 0)
(15.2138 2.76648 0)
(16.1318 2.6751 0)
(16.8821 2.5295 0)
(17.4939 2.35243 0)
(17.9961 2.16996 0)
(18.4161 2.01631 0)
(18.7624 1.88607 0)
(19.0851 1.77814 0)
(19.3147 1.66509 0)
(19.5198 1.54366 0)
(19.6533 1.41993 0)
(19.7411 1.27463 0)
(19.7636 1.16042 0)
(19.8221 1.06261 0)
(10.3659 1.14254 0)
(11.7805 2.95445 0)
(12.9378 2.72736 0)
(14.0198 2.53842 0)
(14.9893 2.46858 0)
(15.8645 2.41861 0)
(16.5863 2.35132 0)
(17.2045 2.23941 0)
(17.6924 2.08252 0)
(18.1184 1.94768 0)
(18.4654 1.80526 0)
(18.7765 1.70985 0)
(19.0225 1.62129 0)
(19.2114 1.53625 0)
(19.3395 1.46097 0)
(19.4444 1.37609 0)
(19.4857 1.30963 0)
(19.5412 1.18622 0)
(10.7162 0.951712 0)
(11.825 2.63525 0)
(12.8554 2.41779 0)
(13.8682 2.27772 0)
(14.8042 2.23418 0)
(15.6699 2.22285 0)
(16.4442 2.16701 0)
(17.1414 2.0559 0)
(17.7057 1.91246 0)
(18.198 1.75447 0)
(18.5756 1.62576 0)
(18.8872 1.52438 0)
(19.125 1.4313 0)
(19.3079 1.38337 0)
(19.4438 1.30349 0)
(19.537 1.2298 0)
(19.59 1.16763 0)
(19.6464 1.0944 0)
(10.3023 0.990536 0)
(11.6146 2.36637 0)
(12.7835 2.11601 0)
(13.8618 1.93094 0)
(14.8019 1.85236 0)
(15.6555 1.81024 0)
(16.4206 1.74231 0)
(17.0855 1.64632 0)
(17.6267 1.53425 0)
(18.0747 1.43959 0)
(18.3969 1.35733 0)
(18.6701 1.30598 0)
(18.8697 1.25615 0)
(19.0309 1.20351 0)
(19.1647 1.15554 0)
(19.2547 1.10988 0)
(19.3393 1.06614 0)
(19.3924 0.995813 0)
(10.4115 0.783905 0)
(11.55 1.91147 0)
(12.7617 1.66299 0)
(13.9061 1.53141 0)
(14.8921 1.50754 0)
(15.7345 1.49945 0)
(16.4637 1.46166 0)
(17.108 1.39756 0)
(17.6281 1.31955 0)
(18.0726 1.24749 0)
(18.4077 1.18729 0)
(18.6835 1.12584 0)
(18.8877 1.06134 0)
(19.0465 1.00597 0)
(19.1646 0.942087 0)
(19.2553 0.880232 0)
(19.3136 0.826465 0)
(19.3657 0.792838 0)
(10.4582 0.69446 0)
(11.7691 1.5247 0)
(12.998 1.26263 0)
(14.0887 1.17068 0)
(15.0417 1.17752 0)
(15.872 1.18071 0)
(16.5848 1.13096 0)
(17.1879 1.05696 0)
(17.6944 0.983078 0)
(18.0984 0.930804 0)
(18.4192 0.898665 0)
(18.6747 0.875363 0)
(18.8503 0.846848 0)
(18.9988 0.803566 0)
(19.0911 0.762785 0)
(19.1789 0.715947 0)
(19.2241 0.68238 0)
(19.2587 0.634967 0)
(10.6277 0.347223 0)
(11.8668 1.07645 0)
(13.0661 0.862481 0)
(14.1311 0.798202 0)
(15.0677 0.807134 0)
(15.8929 0.820536 0)
(16.6007 0.825771 0)
(17.1927 0.798928 0)
(17.6838 0.761416 0)
(18.0907 0.738024 0)
(18.4286 0.717746 0)
(18.7031 0.695968 0)
(18.9236 0.661212 0)
(19.1067 0.622562 0)
(19.2375 0.570822 0)
(19.3469 0.517628 0)
(19.4056 0.473368 0)
(19.4672 0.435553 0)
(10.1958 0.196088 0)
(11.6299 0.67308 0)
(13.0805 0.553536 0)
(14.3125 0.537685 0)
(15.3075 0.55887 0)
(16.1355 0.581521 0)
(16.816 0.583779 0)
(17.3983 0.551477 0)
(17.8813 0.509244 0)
(18.2847 0.479774 0)
(18.5981 0.460818 0)
(18.8424 0.443685 0)
(19.0189 0.421452 0)
(19.148 0.390448 0)
(19.2339 0.351887 0)
(19.2955 0.327462 0)
(19.3312 0.30939 0)
(19.356 0.283885 0)
(10.3188 0.113608 0)
(11.7202 0.196087 0)
(13.2199 0.0636222 0)
(14.4374 0.0998205 0)
(15.3845 0.184262 0)
(16.1489 0.250285 0)
(16.7723 0.28983 0)
(17.2868 0.285329 0)
(17.7002 0.273272 0)
(18.0333 0.273899 0)
(18.2837 0.284277 0)
(18.4691 0.294648 0)
(18.5961 0.284286 0)
(18.6805 0.264972 0)
(18.7188 0.23556 0)
(18.7271 0.206786 0)
(18.6821 0.179339 0)
(18.644 0.159184 0)
(10.2768 -0.128116 0)
(12.009 -0.229203 0)
(13.3858 -0.221648 0)
(14.2926 -0.101878 0)
(14.9226 0.0228661 0)
(15.4255 0.111001 0)
(15.8459 0.165739 0)
(16.1655 0.165197 0)
(16.3988 0.155258 0)
(16.5666 0.153471 0)
(16.6752 0.163404 0)
(16.7384 0.16739 0)
(16.7683 0.173602 0)
(16.7675 0.171219 0)
(16.7317 0.152951 0)
(16.6451 0.13098 0)
(16.5587 0.116093 0)
(16.4411 0.118408 0)
(10.5426 -0.563457 0)
(11.5447 -0.700533 0)
(12.0471 -0.492418 0)
(12.1777 -0.282158 0)
(12.272 -0.0980816 0)
(12.4333 0.0232954 0)
(12.6318 0.102145 0)
(12.8098 0.132169 0)
(12.9547 0.14131 0)
(13.0678 0.147122 0)
(13.1421 0.153035 0)
(13.1993 0.149038 0)
(13.2173 0.150125 0)
(13.2202 0.14724 0)
(13.1819 0.128527 0)
(13.1041 0.120012 0)
(13.0201 0.110735 0)
(12.898 0.0910998 0)
(8.75807 -0.401133 0)
(7.49542 -0.264805 0)
(6.80947 -0.0276177 0)
(6.65637 0.0795402 0)
(6.90314 0.11554 0)
(7.32633 0.111318 0)
(7.78547 0.10072 0)
(8.21447 0.0902744 0)
(8.57743 0.0779208 0)
(8.86393 0.0714341 0)
(9.08408 0.0673543 0)
(9.25823 0.0650682 0)
(9.37934 0.0646674 0)
(9.48365 0.065296 0)
(9.54497 0.0627572 0)
(9.5631 0.062479 0)
(9.55346 0.0517231 0)
(9.50669 0.0622315 0)
(-0.16775 0.256696 0)
(-0.512995 0.245484 0)
(-0.820889 0.185139 0)
(-0.980366 0.0329788 0)
(-0.906844 -0.199878 0)
(-0.612262 -0.400428 0)
(-0.168894 -0.539897 1.17802e-17)
(0.359457 -0.608567 -1.16931e-17)
(0.920392 -0.603581 0)
(1.45398 -0.554784 -1.15121e-17)
(1.92167 -0.479566 0)
(2.31227 -0.380618 0)
(2.60262 -0.284005 0)
(2.80246 -0.182089 1.11503e-17)
(2.90944 -0.0643299 0)
(2.90212 0.0521077 0)
(2.77945 0.172523 -1.08813e-17)
(2.53757 0.27373 0)
(2.20908 0.376989 0)
(1.80204 0.460759 0)
(1.28259 0.527436 1.05251e-17)
(0.719862 0.611467 0)
(0.115987 0.623556 1.03524e-17)
(-0.540218 0.627267 0)
(-1.15641 0.573949 0)
(-1.77265 0.456529 1.02388e-17)
(-2.28086 0.401737 0)
(-2.65636 0.281571 -1.01731e-17)
(-3.02735 0.166893 0)
(-3.24079 0.103052 1.0002e-17)
(-3.24769 0.0600691 0)
(-3.35917 0.127562 0)
(-3.5243 0.0865374 0)
(-3.39661 0.106359 0)
(-3.28499 0.553551 0)
(-3.62521 0.881361 -9.54316e-18)
(-4.05874 0.86544 0)
(-4.19274 0.860535 1.85887e-17)
(-4.18296 0.685362 0)
(-4.17208 -0.0467785 -1.85219e-17)
(-4.31455 -1.02911 0)
(-4.64073 -1.56909 0)
(-5.03015 -1.31712 1.83048e-17)
(-5.63765 -0.223043 0)
(-6.95238 1.13756 1.81541e-17)
(-8.78808 1.82377 -1.80787e-17)
(-10.5292 1.7081 0)
(-12.014 1.47275 -1.77632e-17)
(-13.2469 1.30609 -1.76154e-17)
(-14.3201 1.17445 0)
(-15.2446 1.07131 0)
(-16.0139 0.98272 0)
(-16.6642 0.907056 0)
(-17.2253 0.840885 0)
(-17.673 0.795139 1.67723e-17)
(-18.0576 0.753181 0)
(-18.3688 0.727799 -1.65043e-17)
(-18.5732 0.707022 0)
(-18.7258 0.675527 0)
(-18.8324 0.659018 1.6112e-17)
(-18.8523 0.644784 0)
(-18.8205 0.629152 -1.5856e-17)
(-18.7496 0.625475 0)
(-18.6219 0.618443 0)
(-18.4448 0.61364 0)
(-18.2239 0.607132 1.53561e-17)
(-17.9818 0.605339 0)
(-17.7162 0.612852 0)
(-17.3948 0.632329 1.4992e-17)
(-17.0289 0.641747 0)
(-16.6479 0.645158 1.47541e-17)
(-16.229 0.643463 0)
(-15.7692 0.646528 0)
(-15.3053 0.652356 0)
(-14.7949 0.651844 -1.42908e-17)
(-14.2302 0.635771 0)
(-13.6631 0.647637 0)
(-13.0868 0.660071 -1.39524e-17)
(-12.4349 0.64242 -1.38401e-17)
(-11.7949 0.668548 0)
(-11.1439 0.666818 -1.36204e-17)
(-10.4908 0.692128 0)
(-9.86941 0.702015 -2.68051e-17)
(-9.2539 0.7176 0)
(-8.68729 0.74824 -2.63738e-17)
(-8.17812 0.769086 0)
(-7.71104 0.791391 2.59797e-17)
(-7.28215 0.811845 0)
(-6.90383 0.827584 0)
(-6.54083 0.848104 0)
(-6.20907 0.861672 -2.52664e-17)
(-5.88673 0.869837 0)
(-5.54999 0.886156 2.49099e-17)
(-5.2094 0.894493 0)
(-4.8966 0.905264 -2.45168e-17)
(-4.64735 0.903469 -2.43159e-17)
(-4.47067 0.913948 -2.41162e-17)
(-4.31272 0.907593 0)
(-4.16055 0.89993 0)
(-4.02368 0.890372 0)
(-3.87242 0.895425 0)
(-3.66407 0.896706 0)
(-3.49111 0.906294 0)
(-3.34376 0.919872 0)
(-3.1477 0.930019 0)
(-2.93333 0.969166 2.23264e-17)
(-2.75837 1.01987 2.20949e-17)
(-2.64031 1.06319 0)
(-2.55338 1.0859 0)
(-2.44333 1.09809 0)
(-2.25065 1.06013 2.11993e-17)
(-1.95384 0.998744 0)
(-1.56315 0.955603 0)
(-1.11839 0.901873 0)
(-0.613742 0.878819 0)
(0.0152634 0.859916 -2.02908e-17)
(0.923571 0.870589 0)
(1.87441 1.0081 0)
(2.49855 1.11304 2.01953e-17)
(2.53157 1.22974 -2.02957e-17)
(2.03253 0.980378 0)
(2.24133 0.551777 -1.99544e-17)
(2.93591 0.46763 0)
(2.86329 0.724741 1.99527e-17)
(1.78194 1.10918 0)
(0.29484 1.30346 0)
(-1.05994 1.28412 0)
(-2.15698 1.13888 0)
(-3.19649 1.15139 0)
(-4.50906 1.18105 -3.81901e-17)
(-4.9702 0.924262 -3.80887e-17)
(-5.25195 1.07726 0)
(-6.90847 1.16338 0)
(-7.86138 0.956646 0)
(-7.77586 0.880078 3.66766e-17)
(-8.30394 0.882335 0)
(-8.1871 0.749423 0)
(-7.43533 0.716668 0)
(-7.06248 0.744026 3.56866e-17)
(-5.97412 0.659331 -3.54365e-17)
(-5.3496 0.932741 0)
(-5.11875 0.969426 0)
(-5.34602 1.11185 -3.45335e-17)
(-5.86274 1.17043 -3.42716e-17)
(-6.57091 1.16264 0)
(-7.62538 1.18971 0)
(-8.53889 1.14564 3.35298e-17)
(-9.5931 1.16477 -3.32647e-17)
(-10.2505 1.14182 0)
(-10.7546 1.15265 0)
(-11.1153 1.10777 -3.22908e-17)
(-11.2966 1.08432 0)
(-11.2708 1.06829 0)
(-11.3613 1.07353 -3.12481e-17)
(-11.2156 1.12384 0)
(-10.9817 1.16698 -3.03948e-17)
(-10.7233 1.10908 0)
(-9.7318 1.02169 0)
(-8.37593 1.13219 0)
(-7.86258 1.28321 2.91091e-17)
(-7.99034 1.27847 0)
(-8.32786 1.19815 0)
(-8.49531 1.15038 0)
(-7.98878 1.00044 0)
(-7.93848 1.09175 0)
(-7.51071 1.14383 0)
(-5.63932 0.751982 2.59871e-17)
(-3.79591 0.757526 2.65662e-17)
(-3.21321 1.11752 0)
(-5.43963 1.9567 0)
(-8.52361 2.58746 0)
(-10.7445 2.42098 -2.52814e-17)
(-11.6401 1.66961 0)
(-6.60312 0.956301 4.85178e-17)
(-3.74861 1.16116 -4.8865e-17)
(2.00008 0.773658 -4.83675e-17)
(8.40041 1.43203 4.92755e-17)
(11.5948 1.93261 -5.08826e-17)
(12.4486 1.99345 5.22471e-17)
(12.4263 1.69975 0)
(-0.123059 0.657305 0)
(-0.391912 0.603845 0)
(-0.567385 0.285576 -2.42438e-17)
(-0.460359 -0.344674 0)
(-0.0838482 -1.06342 2.41238e-17)
(0.431701 -1.59274 2.39693e-17)
(1.00605 -1.92503 1.18564e-17)
(1.59015 -2.09793 1.1803e-17)
(2.12824 -2.06844 0)
(2.60688 -1.89729 1.15745e-17)
(3.01186 -1.65935 0)
(3.35598 -1.34293 0)
(3.61163 -1.01024 -2.24946e-17)
(3.75626 -0.737572 -1.11704e-17)
(3.83272 -0.436751 2.20931e-17)
(3.82138 -0.090221 2.19344e-17)
(3.70401 0.210458 1.09015e-17)
(3.50997 0.512813 0)
(3.23056 0.786967 0)
(2.85459 1.03494 0)
(2.42185 1.25146 1.05198e-17)
(1.95629 1.34221 0)
(1.41211 1.53901 -3.09975e-17)
(0.895306 1.53763 0)
(0.305211 1.42827 0)
(-0.290077 1.54049 -9.98133e-18)
(-0.600293 1.1772 0)
(-1.15175 0.915872 9.8319e-18)
(-1.69431 0.99166 1.95804e-17)
(-1.79294 0.511699 -9.66881e-18)
(-1.64517 0.0652629 0)
(-1.69279 0.548436 0)
(-2.04891 0.575961 0)
(-2.26376 -0.29484 1.84703e-17)
(-2.12383 -0.171988 1.83928e-17)
(-1.72308 0.745652 9.30202e-18)
(-1.84359 0.581194 0)
(-2.60318 -0.267008 -1.8262e-17)
(-3.42502 -0.235949 0)
(-4.7685 0.950188 1.84549e-17)
(-7.02709 2.45151 0)
(-9.69841 3.45518 0)
(-12.245 3.92103 -1.85522e-17)
(-14.0849 4.17676 0)
(-15.3124 4.26748 -5.47759e-17)
(-16.2506 4.09881 1.81214e-17)
(-17.1524 3.74503 0)
(-18.0283 3.41682 1.78319e-17)
(-18.7602 3.10689 1.76917e-17)
(-19.4372 2.82042 0)
(-20.0067 2.58005 0)
(-20.4805 2.3713 0)
(-20.8882 2.19331 0)
(-21.2011 2.04323 0)
(-21.4351 1.9115 -1.68707e-17)
(-21.62 1.81492 -3.34597e-17)
(-21.7219 1.72622 1.66021e-17)
(-21.7755 1.65201 0)
(-21.7659 1.58341 -3.26655e-17)
(-21.7019 1.5408 1.61987e-17)
(-21.5688 1.50721 0)
(-21.3797 1.47019 1.59424e-17)
(-21.1601 1.44053 0)
(-20.8938 1.43196 0)
(-20.5805 1.43324 3.11182e-17)
(-20.2246 1.44227 -1.54306e-17)
(-19.8412 1.45347 3.06174e-17)
(-19.4182 1.47953 -3.03712e-17)
(-18.962 1.50499 -1.50585e-17)
(-18.4822 1.51791 0)
(-17.9767 1.52291 -1.48165e-17)
(-17.4227 1.52678 0)
(-16.8392 1.55237 0)
(-16.2573 1.57774 0)
(-15.6245 1.56841 -1.43612e-17)
(-14.9337 1.55647 0)
(-14.2563 1.60764 -2.82572e-17)
(-13.5977 1.62384 4.20376e-17)
(-12.7811 1.57812 1.3888e-17)
(-12.0646 1.67437 0)
(-11.2879 1.67484 1.36711e-17)
(-10.5455 1.75758 0)
(-9.82126 1.79521 2.68715e-17)
(-9.11668 1.87319 0)
(-8.42043 1.97372 2.63625e-17)
(-7.769 2.10091 -5.22719e-17)
(-7.16652 2.17499 -2.58905e-17)
(-6.63448 2.24167 0)
(-6.17443 2.31344 0)
(-5.7179 2.34756 0)
(-5.36651 2.35824 2.51713e-17)
(-5.00801 2.34567 0)
(-4.64277 2.35572 -2.49376e-17)
(-4.21079 2.38781 0)
(-3.74742 2.4746 7.38699e-17)
(-3.2918 2.57359 2.43499e-17)
(-2.93118 2.67052 2.40475e-17)
(-2.68052 2.73806 0)
(-2.52136 2.778 0)
(-2.42805 2.80483 0)
(-2.3185 2.77937 0)
(-2.23934 2.78389 0)
(-2.22787 2.8754 4.51535e-17)
(-2.14922 2.87728 4.45583e-17)
(-2.05182 2.82431 0)
(-1.95159 2.83978 -2.18051e-17)
(-1.8647 2.88445 -2.14707e-17)
(-1.74236 2.93221 0)
(-1.56794 2.93425 -4.1622e-17)
(-1.36867 2.83916 0)
(-1.05879 2.68226 2.04848e-17)
(-0.643276 2.54277 0)
(-0.152558 2.45057 0)
(0.39856 2.37032 -4.02217e-17)
(0.798669 2.13766 0)
(1.33166 1.86691 1.98609e-17)
(1.75017 1.56425 0)
(2.81425 1.58486 0)
(3.9276 1.94088 1.93192e-17)
(4.28974 2.54851 1.93033e-17)
(4.66793 2.63545 0)
(4.79984 1.99547 -1.91612e-17)
(4.17373 2.30454 0)
(2.70825 3.31876 1.9584e-17)
(0.661652 3.85966 3.87858e-17)
(-1.19519 3.73677 0)
(-2.51653 3.39381 0)
(-3.76581 3.2396 0)
(-5.04692 3.2871 0)
(-5.97431 2.81168 3.84027e-17)
(-6.15804 2.24123 1.14689e-16)
(-6.8206 3.08941 0)
(-7.9241 3.20774 0)
(-9.35149 2.37833 0)
(-8.52119 2.08817 -3.69934e-17)
(-9.10986 2.2258 0)
(-8.97152 1.58742 0)
(-7.7672 1.31775 7.35429e-17)
(-7.3261 1.38991 3.63465e-17)
(-5.51184 0.903276 3.62439e-17)
(-4.03765 1.64341 0)
(-3.01547 1.85603 0)
(-2.53586 2.35301 3.4282e-17)
(-2.39593 2.59108 -3.38307e-17)
(-2.2527 2.86932 0)
(-2.86712 3.20956 0)
(-3.5206 3.27723 -3.23746e-17)
(-5.01314 3.4081 9.6565e-17)
(-5.81363 3.22374 0)
(-6.66731 3.32663 0)
(-7.15522 3.21356 3.12715e-17)
(-7.62007 3.14207 0)
(-7.90883 3.23062 6.11056e-17)
(-8.44428 3.22947 -3.02358e-17)
(-8.62449 3.14535 0)
(-8.69984 3.13941 2.89063e-17)
(-8.85882 2.64016 5.66578e-17)
(-7.88005 1.88929 0)
(-5.68611 2.03119 0)
(-4.5959 2.87287 -2.73776e-17)
(-5.09567 3.08676 0)
(-5.8546 2.96902 5.18791e-17)
(-5.59449 2.67853 0)
(-5.17951 2.53777 0)
(-5.765 2.71622 0)
(-5.37526 1.7323 0)
(-4.04497 1.3824 -2.36145e-17)
(-3.5152 2.35444 -2.50068e-17)
(-5.77859 4.43207 0)
(-9.92383 5.25038 0)
(-12.9907 4.90461 0)
(-14.0453 3.85776 2.3534e-17)
(-13.8309 2.54183 0)
(-8.29977 1.31667 -4.64059e-17)
(-4.64054 1.47418 4.45529e-17)
(2.75565 -0.245964 4.64084e-17)
(8.8804 1.28256 4.51646e-17)
(14.0178 3.02597 4.53634e-17)
(16.9582 4.56033 4.75103e-17)
(17.8713 4.86324 0)
(-0.0936768 0.798615 0)
(-0.221396 0.652562 0)
(-0.113649 -0.181695 2.47303e-17)
(0.402128 -1.45091 2.44826e-17)
(1.03857 -2.55383 -2.43532e-17)
(1.65248 -3.20871 -2.40744e-17)
(2.19075 -3.48086 -9.29587e-20)
(2.62227 -3.51395 0)
(2.97299 -3.32396 0)
(3.25581 -2.95764 0)
(3.46567 -2.54359 0)
(3.62202 -2.06379 0)
(3.76773 -1.53534 6.67848e-17)
(3.78446 -1.05391 0)
(3.76412 -0.619692 -2.18788e-17)
(3.71194 -0.114149 -2.17042e-17)
(3.58273 0.363216 0)
(3.43052 0.792409 0)
(3.23845 1.24355 0)
(2.90888 1.64265 0)
(2.55415 1.92895 -2.09694e-17)
(2.10432 2.29053 0)
(1.58205 2.36836 2.08224e-17)
(1.105 2.48563 0)
(0.491969 2.67074 0)
(0.0248787 1.96704 0)
(-0.588737 1.99783 3.921e-17)
(-0.985083 2.19563 0)
(-1.09891 1.24486 -1.9469e-17)
(-1.60685 0.401762 3.826e-17)
(-1.93964 0.0335159 0)
(-1.69303 0.70594 0)
(-1.15259 1.32595 0)
(-1.54757 0.432044 -1.8784e-17)
(-2.91496 -0.133242 -1.88125e-17)
(-4.18581 1.04542 0)
(-5.74146 2.87109 0)
(-8.05801 4.32156 3.83182e-17)
(-10.4968 5.3174 3.80928e-17)
(-12.4982 5.92278 -3.78828e-17)
(-14.0124 6.14794 0)
(-15.1987 6.06545 0)
(-16.2755 5.90696 0)
(-17.19 5.85403 0)
(-17.9298 5.78377 3.65222e-17)
(-18.4697 5.53056 3.6201e-17)
(-18.9563 5.17447 -3.59383e-17)
(-19.382 4.79773 0)
(-19.7488 4.42519 0)
(-20.1117 4.07872 0)
(-20.413 3.78244 0)
(-20.6838 3.52591 3.46076e-17)
(-20.9196 3.29271 0)
(-21.1062 3.10677 0)
(-21.2431 2.91881 3.38036e-17)
(-21.3451 2.78447 3.35591e-17)
(-21.3945 2.65477 0)
(-21.3803 2.55101 -6.60123e-17)
(-21.3198 2.46725 3.27565e-17)
(-21.194 2.39816 -3.24933e-17)
(-21.0306 2.36096 0)
(-20.8335 2.31637 0)
(-20.5871 2.28373 0)
(-20.3033 2.27199 0)
(-19.9888 2.27068 -3.12038e-17)
(-19.6341 2.2913 -6.19129e-17)
(-19.2383 2.31815 -3.06943e-17)
(-18.814 2.36748 3.04463e-17)
(-18.3316 2.40254 0)
(-17.8575 2.448 -5.9976e-17)
(-17.3832 2.4592 -5.95043e-17)
(-16.8513 2.45821 -5.90264e-17)
(-16.2729 2.50639 5.85434e-17)
(-15.7024 2.56041 0)
(-15.095 2.55203 8.64146e-17)
(-14.4423 2.55686 0)
(-13.7679 2.63506 -2.84222e-17)
(-13.1619 2.63664 -2.81623e-17)
(-12.3326 2.5523 0)
(-11.6751 2.73739 0)
(-10.8676 2.74018 -5.51679e-17)
(-10.1779 2.87013 0)
(-9.43226 2.94008 -5.42506e-17)
(-8.80954 3.04938 0)
(-8.12724 3.17823 5.33643e-17)
(-7.46144 3.36307 1.05662e-16)
(-6.83275 3.47983 0)
(-6.23515 3.6259 0)
(-5.70039 3.78281 0)
(-5.16802 3.89322 5.1073e-17)
(-4.72286 3.98621 0)
(-4.31025 3.98174 5.02976e-17)
(-4.02135 3.97085 0)
(-3.70919 3.88893 0)
(-3.41085 3.8951 -9.94266e-17)
(-2.98843 4.03059 0)
(-2.38157 4.27502 -4.88341e-17)
(-1.93029 4.47476 0)
(-1.65219 4.60059 -4.7769e-17)
(-1.40974 4.67136 0)
(-1.15385 4.70582 0)
(-0.933989 4.74972 0)
(-0.878461 4.80114 -1.35666e-16)
(-0.710296 4.78028 -4.46353e-17)
(-0.527898 4.77538 0)
(-0.4114 4.85603 0)
(-0.251218 4.92529 0)
(0.0130721 4.96377 0)
(0.28985 4.91841 4.2042e-17)
(0.514818 4.80448 -8.3172e-17)
(0.799761 4.55801 -4.1365e-17)
(1.18187 4.3195 8.3166e-17)
(1.64232 4.1183 8.31478e-17)
(2.3833 4.07869 4.08149e-17)
(2.9405 4.00235 0)
(3.44366 3.90316 8.17449e-17)
(3.49381 3.49469 0)
(3.5814 3.07831 -8.07188e-17)
(3.97952 3.53078 -3.96055e-17)
(4.28826 4.08745 0)
(4.79706 4.07037 7.66242e-17)
(4.53652 4.23056 3.84023e-17)
(2.87859 5.01514 0)
(1.11885 6.24574 3.89694e-17)
(-0.416604 6.77521 -1.16122e-16)
(-1.68909 6.44375 0)
(-2.7266 5.9634 0)
(-4.03242 5.77842 0)
(-5.45076 5.48474 0)
(-6.30581 4.67498 -7.75975e-17)
(-7.00932 4.20295 -7.70891e-17)
(-7.67118 5.18329 0)
(-7.8477 5.48527 0)
(-9.90731 4.05893 0)
(-8.34423 3.44551 0)
(-9.01077 4.0491 0)
(-8.87218 2.73178 0)
(-8.37706 2.36633 -7.58306e-17)
(-8.07959 2.33434 1.06087e-19)
(-6.4707 1.18987 0)
(-4.81264 2.48253 0)
(-3.35032 2.9995 -7.27589e-17)
(-2.54422 3.88903 0)
(-2.46541 4.2084 7.05884e-17)
(-1.76377 4.66995 6.92674e-17)
(-1.92876 5.23294 0)
(-1.43731 5.44644 0)
(-2.45848 5.84469 -6.3868e-17)
(-3.17952 5.59117 -1.27108e-16)
(-4.1296 5.71255 0)
(-4.72542 5.51828 0)
(-4.83555 5.46891 0)
(-4.92309 5.46029 -6.06882e-17)
(-5.67992 5.33739 5.97727e-17)
(-6.13859 5.35359 0)
(-6.2161 5.62737 1.13993e-16)
(-6.92545 5.19253 5.63217e-17)
(-7.99965 3.743 -1.19506e-16)
(-6.07268 3.51261 0)
(-3.17831 4.94943 0)
(-3.44693 5.5465 -1.04816e-16)
(-4.67418 5.13444 -4.97504e-17)
(-4.35852 4.12809 0)
(-3.71614 4.04451 0)
(-4.16266 4.50923 0)
(-4.38531 3.56993 0)
(-5.28675 3.24841 -9.4092e-17)
(-4.51554 5.21871 0)
(-7.40383 7.57042 0)
(-10.1956 8.59321 0)
(-12.7172 8.43297 0)
(-14.4837 7.4737 0)
(-14.1819 5.14997 0)
(-8.98723 2.17539 -9.51666e-17)
(-3.95813 2.9202 0)
(3.54707 0.625808 0)
(8.29517 2.86488 -1.88811e-16)
(13.2545 4.48966 9.01977e-17)
(17.2036 6.74597 -9.12012e-17)
(19.6816 7.56704 9.32439e-17)
(-0.108219 0.771085 0)
(-0.0796084 0.104885 -4.98495e-17)
(0.450765 -1.5835 0)
(1.18149 -3.25977 -2.45039e-17)
(1.7652 -4.29496 0)
(2.15388 -4.64657 0)
(2.38143 -4.60855 2.33499e-17)
(2.51735 -4.34371 0)
(2.60866 -3.91157 0)
(2.65369 -3.38999 0)
(2.70009 -2.85735 0)
(2.73368 -2.29491 0)
(2.74972 -1.6758 -8.91978e-17)
(2.68294 -1.14819 -4.40315e-17)
(2.6392 -0.643263 4.36139e-17)
(2.5806 -0.0861404 0)
(2.48735 0.363945 0)
(2.38001 0.823919 0)
(2.15963 1.38949 0)
(1.90265 1.9518 0)
(1.63008 2.49034 -4.10986e-17)
(1.30114 2.89617 -4.1037e-17)
(0.983614 3.20577 4.11392e-17)
(0.481204 3.26303 -4.08438e-17)
(0.114738 3.07373 0)
(-0.437022 3.51068 0)
(-0.891637 2.96441 -4.01543e-17)
(-0.980451 1.6924 0)
(-1.80552 2.24317 0)
(-2.05865 1.86728 -3.82234e-17)
(-2.32354 0.0629711 -3.7508e-17)
(-3.13297 -0.481959 -3.81685e-17)
(-3.96364 1.09654 0)
(-5.70598 3.20758 0)
(-7.98562 4.6945 3.92432e-17)
(-9.9753 5.73897 0)
(-11.6283 6.51814 0)
(-13.0506 7.04031 -3.84476e-17)
(-14.3348 7.36799 3.80303e-17)
(-15.3991 7.62297 -3.7801e-17)
(-16.2787 7.73689 0)
(-17.0115 7.64932 0)
(-17.6164 7.40579 -7.43512e-17)
(-18.0871 7.1211 0)
(-18.4432 6.78722 -7.32862e-17)
(-18.7345 6.41769 -1.09158e-16)
(-19.0244 6.02323 1.08304e-16)
(-19.2785 5.65275 -7.15849e-17)
(-19.5375 5.2905 0)
(-19.7691 4.96752 0)
(-19.9887 4.65576 -6.98869e-17)
(-20.1777 4.40573 -3.47146e-17)
(-20.3431 4.17422 0)
(-20.4844 3.97596 0)
(-20.5887 3.79428 -3.39005e-17)
(-20.6525 3.63557 -6.7212e-17)
(-20.6714 3.49023 0)
(-20.6456 3.37033 6.62114e-17)
(-20.5795 3.26285 -6.56529e-17)
(-20.4398 3.18579 6.51396e-17)
(-20.2416 3.13335 0)
(-20.0149 3.09025 0)
(-19.7386 3.07731 0)
(-19.4494 3.06902 0)
(-19.116 3.07158 0)
(-18.7418 3.08747 6.21419e-17)
(-18.3423 3.12103 0)
(-17.9345 3.17176 0)
(-17.4315 3.22689 0)
(-16.9424 3.32716 1.2037e-16)
(-16.4708 3.38977 5.9693e-17)
(-15.9929 3.37652 5.92089e-17)
(-15.4514 3.41983 -1.17482e-16)
(-14.9357 3.47457 5.83113e-17)
(-14.3603 3.4973 -5.77632e-17)
(-13.7549 3.49771 0)
(-13.1061 3.61551 5.68641e-17)
(-12.5417 3.61069 0)
(-11.7404 3.50786 0)
(-11.136 3.74555 0)
(-10.2694 3.78992 1.10541e-16)
(-9.63235 3.94617 -5.48491e-17)
(-8.89475 4.07941 -5.45261e-17)
(-8.25895 4.24494 -1.08014e-16)
(-7.612 4.38249 -1.60622e-16)
(-7.00515 4.57396 -5.30257e-17)
(-6.3843 4.71115 0)
(-5.80713 4.92943 -1.04373e-16)
(-5.2828 5.08687 0)
(-4.77216 5.19833 -1.53939e-16)
(-4.28388 5.3549 0)
(-3.76993 5.48488 -1.51634e-16)
(-3.35055 5.62978 0)
(-2.99249 5.60482 0)
(-2.89325 5.51903 -4.95414e-17)
(-2.82517 5.40531 0)
(-2.32566 5.52279 4.86603e-17)
(-1.78641 5.91268 9.58509e-17)
(-1.43888 6.19208 4.7657e-17)
(-1.1472 6.3428 9.52376e-17)
(-0.786399 6.40224 -9.43253e-17)
(-0.474419 6.55772 -9.32299e-17)
(-0.301511 6.72773 1.83571e-16)
(-0.0311798 6.69292 0)
(0.236677 6.67995 0)
(0.545806 6.72267 8.91924e-17)
(0.852067 6.66065 -8.78056e-17)
(1.20932 6.62164 0)
(1.40695 6.68938 0)
(1.5415 6.69497 8.56265e-17)
(1.77191 6.44798 0)
(1.94639 6.22323 2.59505e-19)
(2.20601 5.85013 2.68366e-19)
(2.99011 5.64145 8.75059e-17)
(3.63913 5.46293 0)
(4.36243 5.44073 -8.44676e-17)
(4.88286 5.25846 0)
(4.75615 4.92152 8.27591e-17)
(4.58442 5.11499 0)
(4.50893 5.52772 0)
(4.5517 5.87385 -7.68581e-17)
(3.89765 6.61275 -7.73909e-17)
(2.10996 8.06974 0)
(0.312026 8.91286 -7.75296e-17)
(-0.90604 8.98257 1.55417e-16)
(-1.81701 8.38768 0)
(-2.93607 7.88323 0)
(-3.87468 7.96553 0)
(-4.80525 7.58587 0)
(-5.84584 6.62158 7.6925e-17)
(-6.87466 5.94329 -1.55843e-16)
(-7.33998 6.41487 0)
(-6.8432 7.25285 0)
(-8.45 5.56904 0)
(-7.68243 4.04635 0)
(-7.03125 5.32576 0)
(-6.64867 3.97214 0)
(-6.84009 3.41846 0)
(-7.07336 3.22205 7.46227e-17)
(-6.06754 1.32311 0)
(-5.33475 2.56802 0)
(-3.51727 3.49455 7.34297e-17)
(-2.24601 4.91343 0)
(-2.59352 5.23253 0)
(-1.7131 5.97802 -7.0897e-17)
(-2.20049 6.86391 0)
(-1.62072 7.23175 0)
(-1.89841 8.04728 1.30884e-16)
(-2.03621 7.75821 1.28188e-16)
(-2.29334 7.96236 1.26851e-16)
(-3.24984 7.54814 0)
(-3.51654 7.50179 1.26724e-16)
(-2.92691 8.19683 0)
(-3.45409 8.15948 -1.21642e-16)
(-4.36478 7.76443 0)
(-4.10375 7.8987 -1.1438e-16)
(-4.97966 8.05935 2.8883e-19)
(-8.33032 6.22698 1.26957e-16)
(-7.77364 4.92964 -1.32035e-16)