/*--------------------------------*- C++ -*----------------------------------*\
| =========                 |                                                 |
| \\      /  F ield         | OpenFOAM: The Open Source CFD Toolbox           |
|  \\    /   O peration     | Version:  dev                                   |
|   \\  /    A nd           | Web:      http://www.openfoam.org               |
|    \\/     M anipulation  |                                                 |
\*---------------------------------------------------------------------------*/
FoamFile
{
    version     2.0;
    format      ascii;
    class       volVectorField;
    object      U_0;
    location    "9.163";
}
// * * * * * * * * * * * * * * * * * * * * * * * * * * * * * * * * * * * * * //

dimensions      [0 1 -1 0 0 0 0];

internalField   nonuniform List<vector> 
12225
(
(8.11862 0.55733 0)
(7.47869 0.4014 0)
(7.18503 0.239873 0)
(8.60987 0.184956 0)
(8.68813 0.200614 0)
(10.8007 0.181639 0)
(10.3416 0.230642 0)
(12.6278 0.140736 0)
(11.6788 0.238408 0)
(13.9772 0.120824 0)
(12.8219 0.227817 0)
(15.1007 0.0885912 0)
(14.3909 0.281441 0)
(15.5094 -0.0598092 0)
(18.4729 -0.183422 0)
(13.7061 2.11306 0)
(25.9089 -5.6177 0)
(16.7878 5.28926 0)
(10.5363 1.52038 0)
(12.6894 1.46506 0)
(11.3847 1.07024 0)
(14.2308 0.780092 0)
(11.8039 0.685927 0)
(16.3298 0.584248 0)
(12.6508 0.612213 0)
(18.4791 0.465478 0)
(13.5596 0.539614 0)
(20.488 0.307743 0)
(15.0994 0.508828 0)
(22.2621 -0.0905237 0)
(17.7593 0.855367 0)
(23.7494 -1.33005 0)
(21.7177 1.9918 0)
(25.4774 -3.38138 0)
(27.7609 -0.464799 0)
(23.4547 -3.66631 0)
(10.3546 1.6973 0)
(15.6181 1.95005 0)
(12.9018 1.63308 0)
(18.5001 1.36337 0)
(13.6605 1.21964 0)
(20.8691 1.12396 0)
(14.487 1.04082 0)
(22.9917 0.871085 0)
(15.6613 0.97886 0)
(24.4959 0.355421 0)
(17.7459 1.01124 0)
(25.4679 -0.446841 0)
(20.4201 1.259 0)
(26.3257 -1.59028 0)
(23.7959 1.35503 0)
(27.5856 -2.27812 0)
(28.7667 0.384564 0)
(24.97 -14.8699 0)
(7.64061 1.73165 0)
(17.6359 2.41701 0)
(12.479 2.12839 0)
(21.1878 1.92516 0)
(15.0914 1.82564 0)
(23.355 1.48135 0)
(17.481 1.7157 0)
(24.8185 0.988935 0)
(19.7198 1.68178 0)
(25.598 0.284297 0)
(21.6168 1.65232 0)
(26.16 -0.6407 0)
(23.0306 1.86083 0)
(26.8644 -2.04608 0)
(24.8637 1.92664 0)
(28.2506 -3.96913 0)
(27.5537 0.157128 0)
(25.4872 -9.88214 0)
(7.11147 2.29419 0)
(16.8961 2.26109 0)
(13.2558 2.68757 0)
(19.9597 1.99658 0)
(17.3166 2.63871 0)
(21.8499 1.50316 0)
(20.1525 2.49643 0)
(23.3225 0.982696 0)
(22.2983 2.44202 0)
(24.3273 0.333241 0)
(23.5424 2.35651 0)
(25.2699 -0.53981 0)
(24.4452 2.43165 0)
(26.1777 -2.03865 0)
(25.5756 2.44815 0)
(26.8363 -5.08682 0)
(28.4338 4.58699 0)
(27.1956 -15.3941 0)
(9.66506 2.84425 0)
(13.8878 2.38025 0)
(14.1231 3.24738 0)
(16.9235 2.07781 0)
(18.0475 3.2627 0)
(19.2426 1.67543 0)
(20.5731 3.14337 0)
(21.2417 1.09626 0)
(22.4932 3.13291 0)
(22.7274 0.49698 0)
(23.8431 2.90239 0)
(23.9692 -0.330435 0)
(25.1069 2.68784 0)
(25.0343 -1.76036 0)
(26.2825 2.1491 0)
(25.5627 -4.59976 0)
(28.0455 3.07359 0)
(28.461 -10.536 0)
(10.7689 3.45426 0)
(13.2969 2.74545 0)
(14.8733 4.25029 0)
(16.4096 2.25497 0)
(18.0349 4.21985 0)
(19.1065 1.87265 0)
(20.4191 4.07406 0)
(21.3122 1.22707 0)
(22.3766 3.97002 0)
(22.9669 0.68744 0)
(24.0121 3.48592 0)
(24.0891 -0.09856 0)
(25.429 2.97573 0)
(25.2633 -1.39693 0)
(26.3929 2.10994 0)
(26.0239 -3.55161 0)
(26.557 0.469707 0)
(26.6274 -6.11255 0)
(10.7521 3.84743 0)
(13.0487 3.04908 0)
(15.1819 4.75101 0)
(16.588 2.60801 0)
(17.9983 4.71386 0)
(19.2956 2.16904 0)
(20.3264 4.51262 0)
(21.3669 1.51253 0)
(22.3142 4.22153 0)
(22.9924 1.08462 0)
(23.9075 3.5998 0)
(24.1932 0.37008 0)
(25.1038 2.87202 0)
(25.4148 -0.721204 0)
(25.4871 1.59877 0)
(26.0984 -2.34752 0)
(25.0268 0.370696 0)
(25.5814 -3.35777 0)
(11.0743 4.2719 0)
(12.8805 3.2781 0)
(15.0971 5.39542 0)
(16.1914 2.89893 0)
(17.8637 5.34447 0)
(18.9476 2.50966 0)
(20.3281 4.99987 0)
(21.2394 2.01099 0)
(22.3171 4.51659 0)
(23.0274 1.59012 0)
(23.8617 3.78513 0)
(24.1832 0.854621 0)
(24.8399 2.84644 0)
(25.2508 -0.120715 0)
(24.9204 1.53169 0)
(25.4493 -1.3316 0)
(24.3286 0.0457396 0)
(24.7911 -1.95915 0)
(11.2732 4.61676 0)
(13.2295 3.86504 0)
(15.1452 5.98291 0)
(16.521 3.55184 0)
(18.1048 5.68927 0)
(19.2619 3.10492 0)
(20.5465 5.16967 0)
(21.4103 2.60557 0)
(22.3656 4.59771 0)
(23.0511 2.20418 0)
(23.7855 3.81391 0)
(24.131 1.52188 0)
(24.5405 2.92048 0)
(24.8051 0.701732 0)
(24.4873 1.66303 0)
(24.8135 -0.130584 0)
(24.034 0.201942 0)
(24.0104 -0.651206 0)
(11.1604 5.1634 0)
(13.2462 4.40232 0)
(15.2559 6.47826 0)
(16.6444 4.17864 0)
(18.1222 6.11367 0)
(19.2678 3.83053 0)
(20.3831 5.55076 0)
(21.2759 3.36107 0)
(22.0805 4.88469 0)
(22.7374 2.8932 0)
(23.3472 4.01057 0)
(23.6935 2.20441 0)
(23.9946 3.06141 0)
(24.2176 1.44661 0)
(23.9917 1.89757 0)
(24.1709 0.736297 0)
(23.6965 0.590373 0)
(23.5215 0.13665 0)
(10.9939 5.48097 0)
(13.1827 5.22469 0)
(14.9477 6.85426 0)
(16.4573 5.10551 0)
(17.793 6.41931 0)
(19.0843 4.69989 0)
(20.0409 5.72846 0)
(21.0355 4.23943 0)
(21.704 5.01574 0)
(22.4339 3.77267 0)
(22.8764 4.25273 0)
(23.259 3.16378 0)
(23.5123 3.43053 0)
(23.72 2.40534 0)
(23.6462 2.40972 0)
(23.7108 1.69998 0)
(23.5293 1.33244 0)
(23.3282 0.93226 0)
(10.961 6.02214 0)
(13.1801 6.08786 0)
(14.7814 7.20044 0)
(16.3471 6.0185 0)
(17.6691 6.83096 0)
(18.9247 5.72514 0)
(19.8723 6.16747 0)
(20.7895 5.23665 0)
(21.435 5.39844 0)
(22.0671 4.66134 0)
(22.5493 4.60837 0)
(22.9518 3.96556 0)
(23.2273 3.77228 0)
(23.4436 3.1775 0)
(23.5264 2.86755 0)
(23.5279 2.39459 0)
(23.3768 1.98447 0)
(23.2204 1.65832 0)
(11.1003 6.389 0)
(13.2276 7.21214 0)
(14.5745 7.68096 0)
(15.9104 7.02509 0)
(17.1913 7.20632 0)
(18.4299 6.5962 0)
(19.4872 6.55225 0)
(20.4137 6.08014 0)
(21.1314 5.91122 0)
(21.7351 5.4994 0)
(22.1882 5.1684 0)
(22.5492 4.73339 0)
(22.7957 4.3884 0)
(22.976 3.97633 0)
(23.0729 3.60615 0)
(23.0564 3.21451 0)
(22.9515 2.86151 0)
(22.8026 2.5785 0)
(10.8187 6.71466 0)
(12.8733 8.24914 0)
(14.3323 8.3832 0)
(15.7441 8.04025 0)
(16.9775 7.84541 0)
(18.0945 7.42741 0)
(19.0536 7.184 0)
(19.8626 6.86474 0)
(20.5703 6.5766 0)
(21.1801 6.23211 0)
(21.6774 5.87025 0)
(22.0981 5.49129 0)
(22.3875 5.08086 0)
(22.6061 4.68835 0)
(22.7064 4.33651 0)
(22.7588 3.98101 0)
(22.6826 3.65243 0)
(22.603 3.35694 0)
(10.7133 7.3481 0)
(12.5836 9.13951 0)
(14.0973 8.97278 0)
(15.5108 8.71957 0)
(16.6987 8.5079 0)
(17.759 8.23464 0)
(18.6617 7.94887 0)
(19.4768 7.59396 0)
(20.205 7.22263 0)
(20.8179 6.82291 0)
(21.3032 6.41517 0)
(21.6993 6.02264 0)
(21.9472 5.6592 0)
(22.1108 5.30364 0)
(22.1631 5.00051 0)
(22.1928 4.72687 0)
(22.0968 4.47401 0)
(22.0459 4.2214 0)
(10.7356 8.02664 0)
(12.4443 9.76556 0)
(13.8195 9.5509 0)
(15.1431 9.36863 0)
(16.3158 9.14521 0)
(17.3843 8.81605 0)
(18.3382 8.4586 0)
(19.1889 8.07455 0)
(19.9025 7.71789 0)
(20.4864 7.38342 0)
(20.9027 7.06373 0)
(21.1935 6.75339 0)
(21.3569 6.43423 0)
(21.4498 6.11869 0)
(21.446 5.80354 0)
(21.4401 5.5123 0)
(21.3453 5.24009 0)
(21.3178 4.94979 0)
(10.4742 8.1388 0)
(12.0626 10.0441 0)
(13.461 9.76546 0)
(14.8335 9.50981 0)
(16.0357 9.26456 0)
(17.0644 8.95416 0)
(17.9403 8.61371 0)
(18.6784 8.25963 0)
(19.2904 7.93248 0)
(19.8038 7.64113 0)
(20.2142 7.38594 0)
(20.5342 7.12365 0)
(20.7602 6.86064 0)
(20.9386 6.57154 0)
(21.0267 6.25852 0)
(21.095 5.9629 0)
(21.0767 5.70063 0)
(21.0964 5.41156 0)
(10.6025 8.11965 0)
(12.0055 9.74549 0)
(13.3039 9.35754 0)
(14.6086 9.17744 0)
(15.7795 9.04822 0)
(16.7914 8.83527 0)
(17.6202 8.5548 0)
(18.2997 8.23074 0)
(18.857 7.89583 0)
(19.3188 7.58687 0)
(19.6949 7.29733 0)
(20.0293 7.02908 0)
(20.2547 6.75526 0)
(20.4407 6.47783 0)
(20.5391 6.20197 0)
(20.5784 5.91319 0)
(20.5498 5.66317 0)
(20.5597 5.4253 0)
(10.4372 7.55304 0)
(11.9218 9.1213 0)
(13.1924 8.79123 0)
(14.369 8.54111 0)
(15.4215 8.38422 0)
(16.3681 8.22621 0)
(17.152 8.03021 0)
(17.8233 7.77572 0)
(18.3536 7.47306 0)
(18.8119 7.18718 0)
(19.1776 6.896 0)
(19.4936 6.65343 0)
(19.7293 6.41522 0)
(19.8939 6.1871 0)
(19.9889 5.96967 0)
(20.0478 5.74967 0)
(20.037 5.545 0)
(20.0423 5.2819 0)
(10.7779 6.76659 0)
(11.9412 8.2417 0)
(13.0562 7.93959 0)
(14.1413 7.74729 0)
(15.1408 7.62547 0)
(16.0628 7.51185 0)
(16.8873 7.33336 0)
(17.6229 7.09133 0)
(18.2154 6.81117 0)
(18.7241 6.51807 0)
(19.1052 6.25615 0)
(19.4113 6.0194 0)
(19.6325 5.79558 0)
(19.7901 5.615 0)
(19.8914 5.40324 0)
(19.9391 5.20736 0)
(19.9424 5.02304 0)
(19.9468 4.82479 0)
(10.369 6.11808 0)
(11.7376 7.31752 0)
(12.9628 6.99344 0)
(14.0862 6.76225 0)
(15.0676 6.61565 0)
(15.9586 6.48196 0)
(16.7542 6.30834 0)
(17.4399 6.09917 0)
(17.9943 5.87091 0)
(18.4453 5.65916 0)
(18.7643 5.45878 0)
(19.0286 5.28829 0)
(19.2102 5.11725 0)
(19.3479 4.94641 0)
(19.4473 4.78381 0)
(19.4961 4.6275 0)
(19.531 4.47253 0)
(19.5323 4.29114 0)
(10.5004 5.21734 0)
(11.6892 6.17753 0)
(12.9276 5.86302 0)
(14.0937 5.69374 0)
(15.1014 5.61109 0)
(15.9641 5.52487 0)
(16.7112 5.39531 0)
(17.367 5.2332 0)
(17.8933 5.05311 0)
(18.337 4.87889 0)
(18.6653 4.71384 0)
(18.928 4.5464 0)
(19.1113 4.37869 0)
(19.2427 4.22044 0)
(19.3252 4.0569 0)
(19.3732 3.89936 0)
(19.3814 3.75555 0)
(19.3807 3.62594 0)
(10.558 4.45737 0)
(11.9058 5.10363 0)
(13.1397 4.78083 0)
(14.2354 4.65535 0)
(15.1999 4.61117 0)
(16.042 4.54519 0)
(16.7628 4.41765 0)
(17.3698 4.26253 0)
(17.876 4.10545 0)
(18.2741 3.97007 0)
(18.5857 3.85166 0)
(18.8243 3.7414 0)
(18.9785 3.62396 0)
(19.0988 3.49405 0)
(19.1564 3.36998 0)
(19.2028 3.243 0)
(19.198 3.13113 0)
(19.1795 3.00335 0)
(10.701 3.41115 0)
(11.9702 3.98845 0)
(13.1756 3.71805 0)
(14.2457 3.62414 0)
(15.1912 3.59082 0)
(16.0223 3.55146 0)
(16.7312 3.49614 0)
(17.3217 3.40258 0)
(17.809 3.2972 0)
(18.2097 3.20444 0)
(18.5371 3.11237 0)
(18.7951 3.01783 0)
(18.9938 2.9104 0)
(19.1466 2.80078 0)
(19.2409 2.67966 0)
(19.3054 2.562 0)
(19.3139 2.45552 0)
(19.3196 2.35478 0)
(10.2567 2.59702 0)
(11.7347 2.94735 0)
(13.1904 2.77957 0)
(14.4193 2.73818 0)
(15.4117 2.72767 0)
(16.2354 2.70999 0)
(16.9108 2.6639 0)
(17.4875 2.57925 0)
(17.9625 2.48417 0)
(18.3543 2.40141 0)
(18.651 2.32784 0)
(18.8738 2.25503 0)
(19.0231 2.1766 0)
(19.1194 2.08977 0)
(19.1672 1.9989 0)
(19.185 1.9254 0)
(19.1706 1.85771 0)
(19.1403 1.78209 0)
(10.3729 1.90103 0)
(11.8144 1.86583 0)
(13.3176 1.70105 0)
(14.5209 1.72448 0)
(15.4554 1.78892 0)
(16.2076 1.82593 0)
(16.8194 1.82999 0)
(17.3217 1.78692 0)
(17.7221 1.73683 0)
(18.0402 1.69886 0)
(18.2724 1.66908 0)
(18.4358 1.6369 0)
(18.536 1.58337 0)
(18.5874 1.52208 0)
(18.5873 1.45251 0)
(18.5493 1.38562 0)
(18.4537 1.32134 0)
(18.3622 1.26634 0)
(10.3496 1.06503 0)
(12.0898 0.896231 0)
(13.4478 0.888332 0)
(14.3254 1.00274 0)
(14.9351 1.11464 0)
(15.4229 1.18303 0)
(15.8285 1.21285 0)
(16.1332 1.1852 0)
(16.3526 1.14891 0)
(16.5067 1.12068 0)
(16.5997 1.1028 0)
(16.6444 1.07797 0)
(16.6504 1.05571 0)
(16.6194 1.02415 0)
(16.5458 0.977866 0)
(16.4169 0.929896 0)
(16.283 0.890813 0)
(16.1122 0.868812 0)
(10.5981 0.0689163 0)
(11.5794 -0.0587387 0)
(12.0468 0.144599 0)
(12.1465 0.351435 0)
(12.226 0.527585 0)
(12.3803 0.63692 0)
(12.5717 0.70149 0)
(12.7422 0.715689 0)
(12.8804 0.709001 0)
(12.986 0.699013 0)
(13.0505 0.688188 0)
(13.0934 0.667142 0)
(13.0905 0.651703 0)
(13.066 0.631774 0)
(12.9924 0.597052 0)
(12.8743 0.573806 0)
(12.7431 0.548728 0)
(12.5727 0.513503 0)
(8.81642 -0.196801 0)
(7.54545 -0.0495072 0)
(6.84841 0.183586 0)
(6.69546 0.286485 0)
(6.95105 0.318231 0)
(7.38463 0.309215 0)
(7.85197 0.293775 0)
(8.28622 0.278134 0)
(8.65106 0.260371 0)
(8.93593 0.248642 0)
(9.1501 0.23908 0)
(9.31183 0.231255 0)
(9.41357 0.225341 0)
(9.49127 0.220494 0)
(9.51665 0.21245 0)
(9.49117 0.206473 0)
(9.42941 0.190789 0)
(9.33027 0.193124 0)
(-0.186097 -0.326181 0)
(-0.573283 -0.326589 0)
(-0.930852 -0.38077 0)
(-1.14643 -0.526351 0)
(-1.13475 -0.752744 0)
(-0.905155 -0.94897 0)
(-0.528705 -1.08551 1.17889e-17)
(-0.0690857 -1.15186 -1.1702e-17)
(0.421989 -1.14538 0)
(0.884967 -1.09556 -1.15215e-17)
(1.28133 -1.01888 0)
(1.60013 -0.918473 0)
(1.81858 -0.81964 0)
(1.94615 -0.713555 1.11602e-17)
(1.979 -0.591416 0)
(1.89606 -0.470448 0)
(1.69621 -0.344467 -1.08913e-17)
(1.37526 -0.237415 0)
(0.966534 -0.127307 0)
(0.477318 -0.0364953 0)
(-0.126142 0.0378087 1.05354e-17)
(-0.777208 0.131036 0)
(-1.47143 0.153795 1.03624e-17)
(-2.22262 0.168608 0)
(-2.93976 0.126709 0)
(-3.65962 0.0185362 1.02471e-17)
(-4.27924 -0.028705 0)
(-4.76129 -0.139138 -1.01836e-17)
(-5.22898 -0.249297 0)
(-5.54453 -0.307161 1.00149e-17)
(-5.64908 -0.349297 0)
(-5.83417 -0.278341 0)
(-6.07074 -0.308911 0)
(-6.02273 -0.301965 0)
(-5.96277 0.132723 0)
(-6.32411 0.480186 -9.55797e-18)
(-6.80544 0.484124 0)
(-7.01914 0.517204 1.86142e-17)
(-7.08405 0.410472 0)
(-7.13222 -0.24729 -1.85348e-17)
(-7.2853 -1.19915 0)
(-7.6049 -1.79911 0)
(-8.00856 -1.65434 1.83317e-17)
(-8.60902 -0.639276 0)
(-9.90255 0.743681 1.8178e-17)
(-11.7507 1.5384 -1.8111e-17)
(-13.5398 1.50482 0)
(-15.084 1.28747 -1.78056e-17)
(-16.366 1.12357 -1.76583e-17)
(-17.4761 0.997764 0)
(-18.4327 0.902868 0)
(-19.2276 0.823937 0)
(-19.8933 0.758265 0)
(-20.4667 0.701691 0)
(-20.9203 0.666469 1.68244e-17)
(-21.3021 0.635437 0)
(-21.6099 0.620797 -1.65597e-17)
(-21.805 0.613502 0)
(-21.938 0.594351 0)
(-22.0234 0.589212 1.61724e-17)
(-22.0176 0.58806 0)
(-21.9514 0.584435 -1.59197e-17)
(-21.8427 0.593158 0)
(-21.6719 0.599361 0)
(-21.4448 0.607249 0)
(-21.1668 0.613127 1.54262e-17)
(-20.8602 0.622813 0)
(-20.5264 0.641221 0)
(-20.1328 0.672877 1.50667e-17)
(-19.6865 0.695366 0)
(-19.2198 0.711453 1.48315e-17)
(-18.7116 0.721226 0)
(-18.1522 0.734524 0)
(-17.5823 0.750986 0)
(-16.9641 0.762228 -1.43728e-17)
(-16.2826 0.755004 0)
(-15.5879 0.774166 0)
(-14.8841 0.797809 -1.40371e-17)
(-14.0976 0.787353 -1.39254e-17)
(-13.3143 0.820869 0)
(-12.5177 0.827115 -1.37066e-17)
(-11.7147 0.859781 0)
(-10.9422 0.877274 -2.69785e-17)
(-10.1743 0.898791 0)
(-9.45317 0.936039 -2.65466e-17)
(-8.79205 0.963943 0)
(-8.1775 0.991853 2.61508e-17)
(-7.60511 1.01739 0)
(-7.08934 1.03767 0)
(-6.59606 1.0621 0)
(-6.14292 1.07929 -2.54372e-17)
(-5.70911 1.09035 0)
(-5.27158 1.10976 2.50828e-17)
(-4.84113 1.12132 0)
(-4.4503 1.13584 -2.46908e-17)
(-4.1368 1.1376 -2.44894e-17)
(-3.91231 1.15155 -2.42887e-17)
(-3.72452 1.14912 0)
(-3.56078 1.14587 0)
(-3.43039 1.1403 0)
(-3.30166 1.14925 0)
(-3.13047 1.15547 0)
(-3.00856 1.17132 0)
(-2.92429 1.19106 0)
(-2.80155 1.20764 0)
(-2.66857 1.25375 2.24955e-17)
(-2.57965 1.31198 2.22619e-17)
(-2.54853 1.36479 0)
(-2.5477 1.39704 0)
(-2.52195 1.41825 0)
(-2.41022 1.39042 2.13566e-17)
(-2.19206 1.34041 0)
(-1.8777 1.30806 0)
(-1.50296 1.26214 0)
(-1.0611 1.24407 0)
(-0.485631 1.23111 -2.0437e-17)
(0.374829 1.248 0)
(1.29993 1.39271 0)
(1.90576 1.50521 2.03303e-17)
(1.92289 1.6282 -2.04257e-17)
(1.44068 1.37604 0)
(1.67241 0.940824 -2.00802e-17)
(2.35742 0.867758 0)
(2.2235 1.14286 2.00769e-17)
(1.0634 1.53313 0)
(-0.493793 1.71338 0)
(-1.90864 1.68444 0)
(-3.05699 1.53074 0)
(-4.14157 1.53468 0)
(-5.50586 1.55468 -3.8414e-17)
(-6.00904 1.27664 -3.83197e-17)
(-6.27014 1.42143 0)
(-7.91822 1.50832 0)
(-8.94368 1.28404 0)
(-8.8408 1.18733 3.69011e-17)
(-9.35287 1.18574 0)
(-9.25577 1.03644 0)
(-8.4732 0.988794 0)
(-8.07716 1.01001 3.59158e-17)
(-6.96106 0.909362 -3.56675e-17)
(-6.28726 1.18 0)
(-6.02929 1.2167 0)
(-6.25951 1.36072 -3.47632e-17)
(-6.81169 1.42143 -3.45023e-17)
(-7.57469 1.41728 0)
(-8.72306 1.45065 0)
(-9.76039 1.40738 3.37719e-17)
(-10.9758 1.42838 -3.35174e-17)
(-11.8059 1.40225 0)
(-12.4794 1.42101 0)
(-13.0117 1.3809 -3.25695e-17)
(-13.3624 1.36747 0)
(-13.4827 1.36882 0)
(-13.7011 1.38593 -3.15383e-17)
(-13.645 1.45404 0)
(-13.446 1.5098 -3.0679e-17)
(-13.1686 1.44859 0)
(-12.109 1.37416 0)
(-10.6228 1.51976 0)
(-9.94476 1.71583 2.93526e-17)
(-9.90889 1.73033 0)
(-10.0556 1.65589 0)
(-9.99948 1.61996 0)
(-9.27381 1.48538 0)
(-8.97643 1.55764 0)
(-8.21127 1.58505 0)
(-5.9234 1.18125 2.62011e-17)
(-3.66288 1.19989 2.67851e-17)
(-2.76551 1.61894 0)
(-4.78311 2.45565 0)
(-7.6761 3.067 0)
(-9.68399 2.88319 -2.55555e-17)
(-10.3466 2.08504 0)
(-4.94406 1.34714 4.91099e-17)
(-1.69 1.58273 -4.94749e-17)
(4.22185 1.17885 -4.90138e-17)
(10.6053 1.85629 4.99892e-17)
(13.706 2.36665 -5.16461e-17)
(14.3848 2.41343 5.30166e-17)
(14.2115 2.10009 0)
(-0.142952 -1.06589 0)
(-0.45702 -1.08324 0)
(-0.686047 -1.38535 -2.4257e-17)
(-0.641176 -2.00343 0)
(-0.329637 -2.71023 2.41375e-17)
(0.121088 -3.23105 2.39848e-17)
(0.630478 -3.55816 1.18664e-17)
(1.1503 -3.72654 1.18104e-17)
(1.62446 -3.69185 0)
(2.0386 -3.51598 1.15828e-17)
(2.37848 -3.271 0)
(2.65669 -2.94726 0)
(2.84356 -2.60773 -2.2515e-17)
(2.91902 -2.3239 -1.11794e-17)
(2.92423 -2.00762 2.21145e-17)
(2.83755 -1.64814 2.1956e-17)
(2.64381 -1.33165 1.09107e-17)
(2.37039 -1.0108 0)
(2.0083 -0.717813 0)
(1.55059 -0.4467 0)
(1.03057 -0.209736 1.05307e-17)
(0.482773 -0.0922618 0)
(-0.146784 0.135987 -3.10276e-17)
(-0.747651 0.169124 0)
(-1.40973 0.0972536 0)
(-2.10534 0.244817 -9.99078e-18)
(-2.50804 -0.0847387 0)
(-3.14626 -0.336546 9.84047e-18)
(-3.80229 -0.231425 1.96024e-17)
(-3.99907 -0.661696 -9.68208e-18)
(-3.93358 -1.12358 0)
(-4.06304 -0.662261 0)
(-4.47183 -0.563576 0)
(-4.74853 -1.39457 1.84978e-17)
(-4.69221 -1.30497 1.84004e-17)
(-4.36193 -0.358463 9.30462e-18)
(-4.49044 -0.42267 0)
(-5.21408 -1.22268 -1.8303e-17)
(-6.02089 -1.22202 0)
(-7.39434 -0.0966683 1.8423e-17)
(-9.68795 1.41863 0)
(-12.3745 2.51003 0)
(-14.9761 3.05282 -1.85889e-17)
(-16.9234 3.35843 0)
(-18.2563 3.51034 -5.48697e-17)
(-19.2562 3.41112 1.81556e-17)
(-20.1815 3.10435 0)
(-21.0854 2.80502 1.78683e-17)
(-21.8448 2.52704 1.77293e-17)
(-22.5426 2.27062 0)
(-23.1346 2.06009 0)
(-23.6223 1.88322 0)
(-24.0401 1.73691 0)
(-24.3617 1.62093 0)
(-24.5961 1.52193 -1.69187e-17)
(-24.7784 1.4599 -3.35516e-17)
(-24.8729 1.40856 1.6654e-17)
(-24.913 1.37149 0)
(-24.8865 1.33894 -3.27688e-17)
(-24.8009 1.33264 1.62479e-17)
(-24.6424 1.33869 0)
(-24.42 1.34104 1.6004e-17)
(-24.1619 1.34806 0)
(-23.8538 1.37566 0)
(-23.4927 1.41372 3.12438e-17)
(-23.0823 1.46024 -1.54999e-17)
(-22.6381 1.50815 3.07502e-17)
(-22.1492 1.57124 -3.05074e-17)
(-21.6204 1.63539 -1.51331e-17)
(-21.0622 1.68599 0)
(-20.4756 1.72655 -1.48947e-17)
(-19.8355 1.76228 0)
(-19.1544 1.81864 0)
(-18.4694 1.87889 0)
(-17.7327 1.903 -1.44355e-17)
(-16.928 1.91468 0)
(-16.1226 1.99124 -2.84203e-17)
(-15.3446 2.04182 4.22921e-17)
(-14.3963 2.01419 1.39769e-17)
(-13.5356 2.13168 0)
(-12.6167 2.15667 1.37614e-17)
(-11.7248 2.26012 0)
(-10.8512 2.31921 2.70548e-17)
(-9.99769 2.41395 0)
(-9.15031 2.53071 2.6549e-17)
(-8.34762 2.67747 -5.26271e-17)
(-7.59711 2.77035 -2.6073e-17)
(-6.9202 2.85219 0)
(-6.32267 2.93971 0)
(-5.73448 2.98827 0)
(-5.25986 3.01192 2.53462e-17)
(-4.78995 3.00939 0)
(-4.3269 3.02766 -2.51137e-17)
(-3.80945 3.06551 0)
(-3.27336 3.15883 7.44149e-17)
(-2.75582 3.26662 2.4537e-17)
(-2.34229 3.37389 2.42328e-17)
(-2.05638 3.45259 0)
(-1.88282 3.50617 0)
(-1.79384 3.54454 0)
(-1.704 3.53083 0)
(-1.6581 3.55039 0)
(-1.69598 3.65878 4.54928e-17)
(-1.67658 3.6759 4.4895e-17)
(-1.64819 3.64457 0)
(-1.62803 3.68286 -2.1976e-17)
(-1.62403 3.74427 -2.1642e-17)
(-1.58205 3.81329 0)
(-1.48683 3.84 -4.19429e-17)
(-1.36584 3.77221 0)
(-1.13276 3.64244 2.06401e-17)
(-0.794622 3.53455 0)
(-0.382873 3.47352 0)
(0.102433 3.42322 -4.05353e-17)
(0.442819 3.21672 0)
(0.919088 2.97258 2.00198e-17)
(1.26966 2.69053 0)
(2.28554 2.70873 0)
(3.36419 3.08223 1.94604e-17)
(3.71364 3.70042 1.94307e-17)
(4.12369 3.7693 0)
(4.24332 3.15846 -1.92953e-17)
(3.536 3.53393 0)
(1.99632 4.58172 1.97073e-17)
(-0.0898434 5.10926 3.9023e-17)
(-1.99203 4.96207 0)
(-3.3532 4.58883 0)
(-4.64711 4.40779 0)
(-5.99119 4.43651 0)
(-6.97782 3.93329 3.86407e-17)
(-7.19802 3.28778 1.15507e-16)
(-7.83821 4.08527 0)
(-8.87238 4.22798 0)
(-10.4207 3.37402 0)
(-9.57001 3.00166 -3.72577e-17)
(-10.1117 3.14261 0)
(-10.0263 2.47345 0)
(-8.80302 2.14325 7.41073e-17)
(-8.34088 2.19045 3.6622e-17)
(-6.52193 1.65937 3.65155e-17)
(-4.97849 2.37232 0)
(-3.90593 2.58008 0)
(-3.40702 3.08124 3.45581e-17)
(-3.29043 3.31349 -3.41228e-17)
(-3.16592 3.59068 0)
(-3.83093 3.94143 0)
(-4.53955 4.01956 -3.26253e-17)
(-6.14891 4.17741 9.73168e-17)
(-7.09686 3.98884 0)
(-8.1034 4.11169 0)
(-8.74679 4.01258 3.1555e-17)
(-9.34546 3.96838 0)
(-9.74879 4.1043 6.16909e-17)
(-10.4066 4.15041 -3.05379e-17)
(-10.6755 4.12633 0)
(-10.7642 4.17435 2.91928e-17)
(-10.9165 3.67987 5.72118e-17)
(-9.97995 2.93319 0)
(-7.69081 3.12838 0)
(-6.35946 4.09717 -2.76449e-17)
(-6.66011 4.38499 0)
(-7.24696 4.27912 5.23201e-17)
(-6.767 4.0016 0)
(-6.16844 3.93014 0)
(-6.5379 4.09653 0)
(-5.86121 3.00662 0)
(-4.25167 2.6325 -2.38123e-17)
(-3.35997 3.6873 -2.52144e-17)
(-5.37205 5.88178 0)
(-9.2598 6.72536 0)
(-12.1453 6.31944 0)
(-13.0318 5.22679 2.38109e-17)
(-12.564 3.78588 0)
(-6.73204 2.48041 -4.71033e-17)
(-2.73894 2.71509 4.52387e-17)
(4.86432 0.935212 4.70948e-17)
(10.8359 2.53032 4.58568e-17)
(15.8864 4.30035 4.60723e-17)
(18.6964 5.83385 4.82549e-17)
(19.4822 6.09926 0)
(-0.114113 -2.01463 0)
(-0.287124 -2.11186 0)
(-0.237808 -2.91741 2.47346e-17)
(0.213609 -4.16008 2.44956e-17)
(0.787838 -5.24494 -2.43635e-17)
(1.34274 -5.88948 -2.40864e-17)
(1.82547 -6.1547 -8.76328e-20)
(2.20376 -6.18292 0)
(2.50292 -5.98401 0)
(2.73346 -5.60649 0)
(2.88769 -5.17778 0)
(2.98718 -4.68199 0)
(3.07115 -4.13659 6.6824e-17)
(3.02268 -3.63223 0)
(2.93469 -3.17535 -2.18914e-17)
(2.81197 -2.64502 -2.17181e-17)
(2.60831 -2.14219 0)
(2.3787 -1.68216 0)
(2.10199 -1.20117 0)
(1.68281 -0.772971 0)
(1.23887 -0.451806 -2.09855e-17)
(0.690243 -0.0667052 0)
(0.0740054 0.0487196 2.08383e-17)
(-0.489255 0.212024 0)
(-1.20731 0.438403 0)
(-1.73995 -0.196005 0)
(-2.42389 -0.106315 3.92521e-17)
(-2.93252 0.162012 0)
(-3.13676 -0.736332 -1.9489e-17)
(-3.72489 -1.555 3.83115e-17)
(-4.15945 -1.92091 0)
(-4.03366 -1.25891 0)
(-3.53928 -0.565269 0)
(-3.89725 -1.36599 -1.87993e-17)
(-5.26625 -1.96235 -1.88066e-17)
(-6.60325 -0.867314 0)
(-8.20173 0.970539 0)
(-10.5184 2.50118 3.83606e-17)
(-12.9877 3.59773 3.81404e-17)
(-15.0731 4.31716 -3.79352e-17)
(-16.6904 4.64886 0)
(-17.9624 4.65853 0)
(-19.1002 4.5596 0)
(-20.0654 4.54914 0)
(-20.8596 4.54461 3.65817e-17)
(-21.4435 4.37004 3.6253e-17)
(-21.9587 4.08107 -3.59934e-17)
(-22.4122 3.76292 0)
(-22.7979 3.44551 0)
(-23.1756 3.15125 0)
(-23.4911 2.90631 0)
(-23.7684 2.70623 3.46782e-17)
(-24.0083 2.5285 0)
(-24.197 2.40129 0)
(-24.3308 2.27109 3.38849e-17)
(-24.4256 2.19425 3.36571e-17)
(-24.4678 2.12618 0)
(-24.4402 2.08203 -6.61984e-17)
(-24.3621 2.05981 3.28666e-17)
(-24.2139 2.05117 -3.26075e-17)
(-24.02 2.07695 0)
(-23.7899 2.09737 0)
(-23.5058 2.12655 0)
(-23.1779 2.17656 0)
(-22.815 2.23607 -3.13392e-17)
(-22.408 2.31751 -6.2161e-17)
(-21.953 2.40372 -3.0837e-17)
(-21.4661 2.51423 3.05921e-17)
(-20.9127 2.61077 0)
(-20.356 2.71878 -6.02481e-17)
(-19.7996 2.7934 -5.97862e-17)
(-19.1866 2.8444 -5.93171e-17)
(-18.5151 2.94083 5.88397e-17)
(-17.844 3.05203 0)
(-17.1331 3.09906 8.68859e-17)
(-16.3725 3.14415 0)
(-15.5737 3.26832 -2.85617e-17)
(-14.8533 3.32645 -2.83369e-17)
(-13.8964 3.26854 0)
(-13.0981 3.48742 0)
(-12.1532 3.53479 -5.54975e-17)
(-11.3158 3.69748 0)
(-10.423 3.80496 -5.45911e-17)
(-9.65199 3.94615 0)
(-8.82706 4.10218 5.37194e-17)
(-8.01568 4.31563 1.064e-16)
(-7.24284 4.46056 0)
(-6.50338 4.63117 0)
(-5.83247 4.81209 0)
(-5.17068 4.94465 5.14272e-17)
(-4.60089 5.05882 0)
(-4.07109 5.07653 5.06425e-17)
(-3.67822 5.08553 0)
(-3.27862 5.01907 0)
(-2.91452 5.03665 -1.00118e-16)
(-2.44605 5.17842 0)
(-1.79296 5.43271 -4.9195e-17)
(-1.30069 5.655 0)
(-1.00224 5.8075 -4.81295e-17)
(-0.760371 5.89942 0)
(-0.519568 5.95021 0)
(-0.328986 6.0155 0)
(-0.316058 6.09361 -1.36774e-16)
(-0.197364 6.09866 -4.5014e-17)
(-0.0769421 6.12887 0)
(-0.0336343 6.24607 0)
(0.0561695 6.3496 0)
(0.250974 6.42465 0)
(0.443645 6.41721 4.24277e-17)
(0.586272 6.34597 -8.39334e-17)
(0.792671 6.14837 -4.17734e-17)
(1.08602 5.97119 8.40225e-17)
(1.45334 5.81858 8.40302e-17)
(2.12609 5.80909 4.12388e-17)
(2.62476 5.78307 0)
(3.07163 5.75 8.25289e-17)
(3.0591 5.40187 0)
(3.06346 4.99856 -8.14187e-17)
(3.39226 5.46161 -3.99303e-17)
(3.68714 5.99374 0)
(4.20197 5.97405 7.71775e-17)
(3.89823 6.22312 3.86888e-17)
(2.16657 7.09206 0)
(0.358932 8.31842 3.92268e-17)
(-1.18536 8.80207 -1.1689e-16)
(-2.48018 8.44099 0)
(-3.56078 7.92142 0)
(-4.89965 7.73422 0)
(-6.36131 7.41613 0)
(-7.27462 6.54117 -7.80835e-17)
(-8.04056 5.95443 -7.76304e-17)
(-8.72869 6.82763 0)
(-8.79972 7.20035 0)
(-10.946 5.7574 0)
(-9.43866 4.97258 0)
(-9.98796 5.60247 0)
(-9.87443 4.25491 0)
(-9.38644 3.78532 -7.63496e-17)
(-9.1082 3.71963 1.29328e-19)
(-7.54053 2.48954 0)
(-5.85437 3.70515 0)
(-4.34415 4.22212 -7.3384e-17)
(-3.50377 5.12715 0)
(-3.48238 5.43876 7.1238e-17)
(-2.81387 5.89192 6.99755e-17)
(-3.04422 6.44935 0)
(-2.58951 6.66166 0)
(-3.65906 7.10695 -6.44681e-17)
(-4.4861 6.86288 -1.28289e-16)
(-5.54328 7.03066 0)
(-6.31354 6.85522 0)
(-6.55563 6.84924 0)
(-6.68118 6.93979 -6.13705e-17)
(-7.50809 6.89173 6.04167e-17)
(-8.08852 6.99246 0)
(-8.13823 7.34192 1.15287e-16)
(-8.77922 7.00475 5.68004e-17)
(-10.1213 5.6391 -1.20989e-16)
(-8.26924 5.41037 0)
(-5.03132 6.96295 0)
(-4.93976 7.70306 -1.06053e-16)
(-5.95882 7.33546 -5.0282e-17)
(-5.49058 6.34347 0)
(-4.69669 6.38564 0)
(-4.90576 6.81131 0)
(-4.82604 5.77162 0)
(-5.56755 5.43706 -9.50205e-17)
(-4.49769 7.50372 0)
(-7.06357 9.94153 0)
(-9.42077 10.9805 0)
(-11.6862 10.8182 0)
(-13.1918 9.85436 0)
(-12.64 7.32068 0)
(-7.19749 4.21833 -9.65812e-17)
(-1.8358 5.16551 0)
(5.74192 2.78248 0)
(10.2305 5.07095 -1.91625e-16)
(14.9758 6.63257 9.16638e-17)
(18.7347 8.8576 -9.26619e-17)
(21.1402 9.61647 9.45777e-17)
(-0.125823 -3.05051 0)
(-0.143095 -3.6437 -4.98646e-17)
(0.324916 -5.27732 0)
(0.996723 -6.91986 -2.45082e-17)
(1.52844 -7.94546 0)
(1.87021 -8.29504 0)
(2.05445 -8.25887 2.33596e-17)
(2.14728 -7.99388 0)
(2.19451 -7.55096 0)
(2.19062 -7.00951 0)
(2.18362 -6.45735 0)
(2.15966 -5.86942 0)
(2.11476 -5.21724 -8.91577e-17)
(1.98226 -4.65939 -4.40235e-17)
(1.87614 -4.12118 4.36098e-17)
(1.75626 -3.52848 0)
(1.60052 -3.04241 0)
(1.43091 -2.52902 0)
(1.13769 -1.91518 0)
(0.798338 -1.30331 0)
(0.438321 -0.707826 -4.11244e-17)
(0.0114036 -0.268351 -4.10633e-17)
(-0.414806 0.0625984 4.11658e-17)
(-1.01754 0.181005 -4.08753e-17)
(-1.45972 0.0726266 0)
(-2.12259 0.548718 0)
(-2.68877 0.0956103 -4.01936e-17)
(-2.83267 -1.12517 0)
(-3.77084 -0.563157 0)
(-4.12643 -0.768381 -3.82786e-17)
(-4.41099 -2.50054 -3.7497e-17)
(-5.23653 -3.16485 -3.80947e-17)
(-6.12136 -1.72576 0)
(-7.8796 0.406057 0)
(-10.1714 2.02339 3.92938e-17)
(-12.2285 3.19665 0)
(-13.9737 4.08281 0)
(-15.4847 4.71826 -3.84837e-17)
(-16.8521 5.14236 3.80475e-17)
(-17.9912 5.48067 -3.78237e-17)
(-18.9369 5.68543 0)
(-19.7315 5.69971 0)
(-20.3951 5.5523 -7.44275e-17)
(-20.922 5.35218 0)
(-21.3263 5.10008 -7.3376e-17)
(-21.6492 4.8107 -1.09316e-16)
(-21.962 4.49116 1.08468e-16)
(-22.2343 4.19423 -7.16908e-17)
(-22.5067 3.90559 0)
(-22.7496 3.65811 0)
(-22.9766 3.42132 -7.00071e-17)
(-23.1714 3.24697 -3.47923e-17)
(-23.3387 3.0957 0)
(-23.4789 2.97835 0)
(-23.5792 2.87948 -3.39878e-17)
(-23.6358 2.80481 -6.73572e-17)
(-23.6444 2.7443 0)
(-23.6027 2.70977 6.6412e-17)
(-23.5192 2.68716 -6.58236e-17)
(-23.361 2.69295 6.53175e-17)
(-23.1362 2.7259 0)
(-22.8773 2.76783 0)
(-22.5612 2.84071 0)
(-22.2265 2.92057 0)
(-21.8465 3.01022 0)
(-21.4192 3.11135 6.2414e-17)
(-20.9568 3.228 0)
(-20.4884 3.36153 0)
(-19.9185 3.49419 0)
(-19.347 3.67631 1.20921e-16)
(-18.7864 3.83318 6.00002e-17)
(-18.2239 3.90022 5.95274e-17)
(-17.592 4.0115 -1.18087e-16)
(-16.9791 4.1403 5.8597e-17)
(-16.3039 4.23876 -5.80985e-17)
(-15.5952 4.29675 0)
(-14.8296 4.47756 5.71946e-17)
(-14.1538 4.55059 0)
(-13.2304 4.48697 0)
(-12.495 4.76545 0)
(-11.4972 4.87135 1.11205e-16)
(-10.7101 5.07454 -5.51796e-17)
(-9.83224 5.25713 -5.4824e-17)
(-9.0474 5.47193 -1.08689e-16)
(-8.25897 5.65037 -1.6169e-16)
(-7.51109 5.88177 -5.34055e-17)
(-6.75141 6.05577 0)
(-6.03743 6.30778 -1.05089e-16)
(-5.37892 6.50057 0)
(-4.74517 6.6406 -1.55003e-16)
(-4.1401 6.82124 0)
(-3.51417 6.97811 -1.52681e-16)
(-2.99127 7.15107 0)
(-2.5379 7.15707 0)
(-2.35462 7.10448 -4.98411e-17)
(-2.23892 7.00419 0)
(-1.72219 7.11719 4.90415e-17)
(-1.15632 7.52144 9.65217e-17)
(-0.782531 7.83978 4.80048e-17)
(-0.485541 8.02997 9.59451e-17)
(-0.140411 8.11385 -9.50724e-17)
(0.147515 8.30607 -9.39855e-17)
(0.287435 8.50928 1.85131e-16)
(0.511457 8.50834 0)
(0.715007 8.53873 0)
(0.95597 8.62689 9.00285e-17)
(1.1949 8.61172 -8.86325e-17)
(1.48076 8.63181 0)
(1.59726 8.77549 0)
(1.65562 8.84691 8.64973e-17)
(1.80326 8.67978 0)
(1.8766 8.55513 2.34757e-19)
(2.02971 8.25679 2.45702e-19)
(2.72296 8.08449 8.84075e-17)
(3.30243 7.95076 0)
(3.96033 7.98816 -8.53375e-17)
(4.42005 7.89866 0)
(4.21933 7.6066 8.35274e-17)
(3.99574 7.80337 0)
(3.90153 8.17979 0)
(3.92789 8.54255 -7.74233e-17)
(3.21917 9.39422 -7.79925e-17)
(1.38857 10.9432 0)
(-0.409271 11.7481 -7.80615e-17)
(-1.6597 11.7637 1.56542e-16)
(-2.62771 11.1548 0)
(-3.80557 10.6009 0)
(-4.79107 10.654 0)
(-5.73757 10.2346 0)
(-6.82325 9.22217 7.73746e-17)
(-7.90522 8.43097 -1.56919e-16)
(-8.45138 8.70931 0)
(-7.855 9.56483 0)
(-9.37007 7.94427 0)
(-8.8078 6.17351 0)
(-8.06014 7.39353 0)
(-7.60963 6.0598 0)
(-7.74075 5.41668 0)
(-8.00309 5.18608 7.50929e-17)
(-7.03741 3.18377 0)
(-6.35343 4.29227 0)
(-4.5533 5.18667 7.39869e-17)
(-3.2221 6.64631 0)
(-3.62802 6.96835 0)
(-2.80957 7.69733 -7.15197e-17)
(-3.39249 8.57885 0)
(-2.91253 8.93145 0)
(-3.23276 9.7868 1.32436e-16)
(-3.48718 9.51024 1.29633e-16)
(-3.72626 9.79836 1.28163e-16)
(-4.82111 9.42726 0)
(-5.32043 9.39828 1.28161e-16)
(-4.76022 10.2125 0)
(-5.23862 10.3201 -1.23044e-16)
(-6.31994 10.0794 0)
(-5.97784 10.2846 -1.15877e-16)
(-6.69395 10.6336 3.47053e-19)
(-10.3518 9.05532 1.27887e-16)
(-10.0815 7.6824 -1.34294e-16)
(-5.54113 9.30404 1.186e-16)
(-3.86178 10.8944 2.14134e-16)
(-5.02397 11.0273 0)
(-5.4216 9.48536 0)
(-4.35746 9.49846 0)
(-4.46297 9.92684 0)
(-4.24272 9.017 0)
(-6.39242 8.28984 9.39207e-17)
(-6.08996 10.7105 0)
(-8.05546 13.9379 9.53877e-17)