/*--------------------------------*- C++ -*----------------------------------*\
| =========                 |                                                 |
| \\      /  F ield         | OpenFOAM: The Open Source CFD Toolbox           |
|  \\    /   O peration     | Version:  dev                                   |
|   \\  /    A nd           | Web:      http://www.openfoam.org               |
|    \\/     M anipulation  |                                                 |
\*---------------------------------------------------------------------------*/
FoamFile
{
    version     2.0;
    format      ascii;
    class       volVectorField;
    object      UMean;
    location    "9.163";
}
// * * * * * * * * * * * * * * * * * * * * * * * * * * * * * * * * * * * * * //

dimensions      [0 1 -1 0 0 0 0];

internalField   nonuniform List<vector> 
12225
(
(7.00356 0.430263 0)
(4.4387 0.192544 0)
(2.55678 0.0311576 0)
(2.51081 -0.0166502 0)
(1.38449 0.0193595 0)
(2.26729 -0.0342698 0)
(0.989505 0.0489778 0)
(2.18258 -0.0591666 0)
(0.797374 0.0716523 0)
(2.29179 -0.097847 0)
(0.688501 0.099374 0)
(2.74363 -0.138637 0)
(0.94772 0.10261 0)
(3.39715 -0.172137 0)
(3.53031 -0.168434 0)
(4.6957 0.0499796 0)
(14.8425 -2.43369 0)
(7.11811 5.13291 0)
(9.54627 0.981577 0)
(9.5432 0.860845 0)
(6.68683 0.466279 0)
(7.59027 0.214545 0)
(4.0907 0.140324 0)
(6.843 0.0108416 0)
(2.66513 0.132649 0)
(6.68911 -0.0902888 0)
(1.82237 0.141851 0)
(7.03901 -0.16503 0)
(1.26013 0.12391 0)
(8.12157 -0.414376 0)
(1.38455 0.252403 0)
(9.95492 -1.44219 0)
(3.43408 0.272129 0)
(12.3883 -4.0678 0)
(10.4259 -1.92705 0)
(7.7741 0.48386 0)
(9.11858 0.76358 0)
(12.1666 0.951398 0)
(8.32961 0.624001 0)
(11.8319 0.443379 0)
(6.22623 0.310343 0)
(11.4128 0.206523 0)
(4.58289 0.221521 0)
(11.3148 -0.0194011 0)
(3.87402 0.192952 0)
(11.3764 -0.277732 0)
(4.35009 0.187274 0)
(11.2527 -0.7231 0)
(5.72825 0.176015 0)
(11.0899 -1.49162 0)
(7.21473 0.0528245 0)
(12.1161 -3.86574 0)
(6.93366 0.350946 0)
(9.35235 -2.39226 0)
(7.21918 0.525013 0)
(13.9928 0.960971 0)
(7.92999 0.609524 0)
(14.2951 0.553809 0)
(7.4746 0.420964 0)
(14.1163 0.27111 0)
(7.17599 0.396727 0)
(13.7384 -0.144962 0)
(7.25695 0.459636 0)
(13.2696 -0.698576 0)
(7.65948 0.576839 0)
(12.8745 -1.42267 0)
(8.26681 0.699565 0)
(12.6508 -2.31334 0)
(9.02344 0.0425634 0)
(11.887 -3.63752 0)
(8.6866 -1.43133 0)
(8.36354 0.681053 0)
(6.4245 0.570138 0)
(14.0104 0.565873 0)
(8.47396 0.674594 0)
(13.9575 0.284514 0)
(9.16983 0.636799 0)
(13.6429 -0.00250702 0)
(9.51765 0.657932 0)
(13.2133 -0.38855 0)
(9.59263 0.734435 0)
(12.8123 -0.871115 0)
(9.44615 0.87695 0)
(12.5818 -1.52118 0)
(9.15021 1.09005 0)
(12.5695 -2.48976 0)
(8.82761 1.13269 0)
(11.6158 -5.02798 0)
(8.54236 1.26745 0)
(8.72147 0.125677 0)
(7.95728 0.617011 0)
(11.8021 0.152342 0)
(9.50561 0.654883 0)
(11.7385 0.0501906 0)
(10.0886 0.69404 0)
(11.5995 -0.165663 0)
(10.3209 0.725967 0)
(11.4754 -0.457504 0)
(10.3009 0.783185 0)
(11.3888 -0.853567 0)
(10.0333 0.832274 0)
(11.3546 -1.4001 0)
(9.49298 0.801641 0)
(11.4174 -2.13846 0)
(8.80158 0.726578 0)
(10.9979 -3.92004 0)
(7.73358 1.33687 0)
(9.48888 -0.219097 0)
(9.34475 0.812824 0)
(10.4383 -0.265926 0)
(10.1412 0.930698 0)
(10.5534 -0.304541 0)
(10.3991 1.02014 0)
(10.5814 -0.502875 0)
(10.5206 1.07566 0)
(10.625 -0.781119 0)
(10.564 1.15366 0)
(10.6715 -1.1576 0)
(10.516 1.23543 0)
(10.6998 -1.63542 0)
(10.3676 1.26146 0)
(10.688 -2.32683 0)
(10.0539 1.2714 0)
(10.376 -3.95307 0)
(8.29968 2.01887 0)
(9.69714 -0.952738 0)
(9.84934 0.701296 0)
(10.1558 -0.325941 0)
(10.4067 0.855305 0)
(10.3897 -0.349927 0)
(10.5805 0.907093 0)
(10.4705 -0.494017 0)
(10.7018 0.893228 0)
(10.552 -0.686297 0)
(10.8055 0.872979 0)
(10.6439 -0.935189 0)
(10.8811 0.824115 0)
(10.7354 -1.23258 0)
(10.9081 0.671653 0)
(10.7539 -1.67231 0)
(10.7231 0.519949 0)
(10.4926 -2.47315 0)
(8.89441 0.980469 0)
(9.96409 -0.483874 0)
(10.0858 0.802391 0)
(10.0196 -0.58334 0)
(10.5356 1.02171 0)
(10.3106 -0.60448 0)
(10.6752 1.07522 0)
(10.44 -0.724928 0)
(10.7776 1.04843 0)
(10.5708 -0.889947 0)
(10.8573 1.00387 0)
(10.7114 -1.1176 0)
(10.8988 0.921302 0)
(10.8317 -1.39468 0)
(10.874 0.734978 0)
(10.8221 -1.76047 0)
(10.6022 0.505925 0)
(10.5206 -2.06804 0)
(9.35054 0.586343 0)
(10.0236 -0.391485 0)
(10.1391 0.648763 0)
(10.0423 -0.511904 0)
(10.5103 0.878276 0)
(10.3335 -0.456495 0)
(10.6214 0.869434 0)
(10.482 -0.493634 0)
(10.6979 0.778485 0)
(10.629 -0.572099 0)
(10.7342 0.658127 0)
(10.7636 -0.695269 0)
(10.7179 0.49578 0)
(10.8402 -0.844852 0)
(10.6183 0.264334 0)
(10.7654 -1.03189 0)
(10.2824 0.0704807 0)
(10.4795 -1.05234 0)
(9.62378 0.124112 0)
(10.207 -0.0327048 0)
(10.141 0.700128 0)
(10.0706 -0.691756 0)
(10.4525 0.90273 0)
(10.2985 -0.618777 0)
(10.5374 0.847818 0)
(10.4302 -0.645384 0)
(10.6032 0.735458 0)
(10.5606 -0.707215 0)
(10.6272 0.586962 0)
(10.6603 -0.79104 0)
(10.6092 0.383363 0)
(10.6812 -0.869046 0)
(10.5269 0.117376 0)
(10.5709 -0.92179 0)
(10.2916 -0.113421 0)
(10.361 -0.764682 0)
(10.0201 -0.153841 0)
(10.2456 -0.125113 0)
(10.0969 0.468106 0)
(10.1509 -0.49495 0)
(10.3536 0.595922 0)
(10.2934 -0.374462 0)
(10.4203 0.527686 0)
(10.4094 -0.354628 0)
(10.4848 0.419036 0)
(10.5239 -0.374003 0)
(10.5131 0.275905 0)
(10.5993 -0.414446 0)
(10.5157 0.0935382 0)
(10.597 -0.46141 0)
(10.4767 -0.103032 0)
(10.4996 -0.499816 0)
(10.3572 -0.231809 0)
(10.3647 -0.405284 0)
(10.266 -0.219547 0)
(10.3739 -0.110004 0)
(10.0501 0.411097 0)
(10.1754 -0.486996 0)
(10.2548 0.437343 0)
(10.2379 -0.367235 0)
(10.3087 0.367503 0)
(10.3306 -0.345298 0)
(10.3792 0.251008 0)
(10.4246 -0.355001 0)
(10.4226 0.0996675 0)
(10.4822 -0.374592 0)
(10.4462 -0.0794585 0)
(10.4817 -0.403117 0)
(10.4329 -0.24637 0)
(10.4261 -0.430925 0)
(10.3772 -0.338856 0)
(10.3686 -0.392291 0)
(10.3571 -0.32019 0)
(10.4223 -0.276184 0)
(10.0153 0.199723 0)
(10.1907 -0.285535 0)
(10.1931 0.167458 0)
(10.2051 -0.179044 0)
(10.2293 0.13181 0)
(10.2791 -0.171098 0)
(10.3062 0.0474075 0)
(10.3625 -0.197509 0)
(10.3659 -0.0584954 0)
(10.4141 -0.235462 0)
(10.4054 -0.17576 0)
(10.4266 -0.286143 0)
(10.4123 -0.274698 0)
(10.4111 -0.331335 0)
(10.3994 -0.323799 0)
(10.4065 -0.336845 0)
(10.4108 -0.315673 0)
(10.4696 -0.304472 0)
(9.99664 0.0972196 0)
(10.1444 -0.185594 0)
(10.1463 0.0218312 0)
(10.1501 -0.133396 0)
(10.1622 -0.00842973 0)
(10.2089 -0.145877 0)
(10.241 -0.0767325 0)
(10.2919 -0.186448 0)
(10.311 -0.159136 0)
(10.3486 -0.237668 0)
(10.3575 -0.244497 0)
(10.379 -0.29799 0)
(10.3805 -0.315954 0)
(10.3938 -0.349725 0)
(10.3958 -0.360657 0)
(10.4184 -0.379809 0)
(10.4238 -0.380657 0)
(10.4788 -0.386832 0)
(9.99365 0.0155916 0)
(10.1059 -0.0856041 0)
(10.1088 -0.0441479 0)
(10.1138 -0.0930468 0)
(10.1188 -0.0746927 0)
(10.1674 -0.118721 0)
(10.198 -0.120395 0)
(10.2518 -0.163605 0)
(10.274 -0.180334 0)
(10.3153 -0.218907 0)
(10.3278 -0.243663 0)
(10.3596 -0.277532 0)
(10.3658 -0.30103 0)
(10.3938 -0.328678 0)
(10.3994 -0.346648 0)
(10.4327 -0.370437 0)
(10.4354 -0.383409 0)
(10.4882 -0.396614 0)
(9.99174 0.00483715 0)
(10.0635 -0.0250367 0)
(10.0567 -0.0347827 0)
(10.0678 -0.0663227 0)
(10.0778 -0.075564 0)
(10.128 -0.0996033 0)
(10.1573 -0.115767 0)
(10.2109 -0.144514 0)
(10.2337 -0.168769 0)
(10.2781 -0.199353 0)
(10.2919 -0.226327 0)
(10.3299 -0.256785 0)
(10.3383 -0.28305 0)
(10.373 -0.311767 0)
(10.3787 -0.336499 0)
(10.4151 -0.365213 0)
(10.4145 -0.387712 0)
(10.4633 -0.407114 0)
(9.99156 0.0141799 0)
(10.0466 0.0161598 0)
(10.0398 -0.0105553 0)
(10.0576 -0.0376456 0)
(10.0748 -0.0564829 0)
(10.1255 -0.0777874 0)
(10.1554 -0.0987771 0)
(10.2071 -0.123715 0)
(10.2311 -0.148862 0)
(10.2753 -0.17648 0)
(10.2911 -0.203262 0)
(10.3292 -0.231972 0)
(10.3394 -0.259161 0)
(10.3736 -0.288088 0)
(10.3801 -0.315396 0)
(10.414 -0.345445 0)
(10.4132 -0.371286 0)
(10.4566 -0.393087 0)
(9.99171 0.0328989 0)
(10.0502 0.0495605 0)
(10.0566 0.00988267 0)
(10.0799 -0.0181068 0)
(10.1007 -0.0402456 0)
(10.1506 -0.0614661 0)
(10.1819 -0.083574 0)
(10.2316 -0.106353 0)
(10.2562 -0.13047 0)
(10.2984 -0.155412 0)
(10.315 -0.180956 0)
(10.3507 -0.207185 0)
(10.3614 -0.2334 0)
(10.3926 -0.260234 0)
(10.399 -0.286834 0)
(10.4287 -0.31507 0)
(10.4281 -0.340784 0)
(10.4653 -0.362543 0)
(9.98988 0.0406496 0)
(10.0546 0.0525231 0)
(10.0827 -0.00642936 0)
(10.1166 -0.0407362 0)
(10.1419 -0.0641557 0)
(10.1903 -0.0822833 0)
(10.2223 -0.102086 0)
(10.269 -0.120978 0)
(10.2935 -0.142692 0)
(10.332 -0.163917 0)
(10.3483 -0.187308 0)
(10.3801 -0.209977 0)
(10.3904 -0.234262 0)
(10.4174 -0.257763 0)
(10.4228 -0.28261 0)
(10.4473 -0.307626 0)
(10.4461 -0.33224 0)
(10.4768 -0.352617 0)
(9.99052 0.0315375 0)
(10.0684 0.0218793 0)
(10.1261 -0.0558358 0)
(10.1769 -0.0968259 0)
(10.2125 -0.119827 0)
(10.2609 -0.132767 0)
(10.2937 -0.147775 0)
(10.3361 -0.161635 0)
(10.3601 -0.179785 0)
(10.3941 -0.196852 0)
(10.4103 -0.217271 0)
(10.4377 -0.236135 0)
(10.4479 -0.257858 0)
(10.4702 -0.277904 0)
(10.4754 -0.300564 0)
(10.4946 -0.322169 0)
(10.494 -0.345004 0)
(10.5187 -0.363269 0)
(9.99117 0.00980011 0)
(10.0919 -0.0298625 0)
(10.1869 -0.120948 0)
(10.2594 -0.162856 0)
(10.3093 -0.181181 0)
(10.359 -0.187188 0)
(10.3929 -0.196034 0)
(10.4304 -0.204342 0)
(10.4542 -0.218055 0)
(10.4837 -0.230673 0)
(10.5002 -0.247508 0)
(10.5233 -0.262516 0)
(10.5338 -0.281201 0)
(10.5517 -0.297867 0)
(10.5573 -0.317902 0)
(10.5719 -0.336221 0)
(10.5724 -0.356783 0)
(10.5921 -0.372904 0)
(9.99283 -0.0234442 0)
(10.1275 -0.103745 0)
(10.267 -0.205022 0)
(10.3664 -0.241658 0)
(10.4319 -0.250841 0)
(10.4835 -0.248392 0)
(10.5183 -0.250872 0)
(10.5517 -0.253647 0)
(10.5753 -0.262903 0)
(10.6012 -0.271242 0)
(10.6181 -0.284551 0)
(10.6378 -0.29615 0)
(10.6487 -0.31194 0)
(10.6632 -0.325677 0)
(10.6692 -0.34319 0)
(10.6802 -0.358623 0)
(10.6815 -0.376921 0)
(10.6969 -0.391051 0)
(9.99044 -0.0716268 0)
(10.1743 -0.201266 0)
(10.3677 -0.305531 0)
(10.4999 -0.327905 0)
(10.5804 -0.322571 0)
(10.6343 -0.310168 0)
(10.6689 -0.305523 0)
(10.6996 -0.302496 0)
(10.7226 -0.306613 0)
(10.7459 -0.310471 0)
(10.7624 -0.319771 0)
(10.7793 -0.327897 0)
(10.7895 -0.34041 0)
(10.8006 -0.351171 0)
(10.8055 -0.365745 0)
(10.8124 -0.378289 0)
(10.8122 -0.393833 0)
(10.8222 -0.405772 0)
(9.99203 -0.136412 0)
(10.2447 -0.323102 0)
(10.5026 -0.41907 0)
(10.6711 -0.41766 0)
(10.7626 -0.394157 0)
(10.8174 -0.371057 0)
(10.8493 -0.358865 0)
(10.8771 -0.350493 0)
(10.896 -0.349984 0)
(10.9148 -0.350361 0)
(10.9253 -0.356225 0)
(10.9355 -0.361343 0)
(10.9375 -0.370625 0)
(10.9395 -0.378476 0)
(10.9341 -0.389656 0)
(10.9293 -0.399228 0)
(10.9166 -0.411137 0)
(10.9118 -0.420276 0)
(9.98974 -0.219954 0)
(10.3368 -0.468198 0)
(10.6735 -0.539779 0)
(10.8756 -0.508216 0)
(10.9696 -0.464798 0)
(11.0134 -0.427982 0)
(11.0285 -0.404709 0)
(11.0352 -0.388267 0)
(11.029 -0.381281 0)
(11.0194 -0.376817 0)
(10.998 -0.378009 0)
(10.9736 -0.378905 0)
(10.9379 -0.383614 0)
(10.9001 -0.387084 0)
(10.8525 -0.39344 0)
(10.8045 -0.398756 0)
(10.7465 -0.405068 0)
(10.6949 -0.409837 0)
(9.98331 -0.332108 0)
(10.4675 -0.642373 0)
(10.8827 -0.667131 0)
(11.0723 -0.602611 0)
(11.1029 -0.537132 0)
(11.0583 -0.483046 0)
(10.9743 -0.444893 0)
(10.8732 -0.416122 0)
(10.7579 -0.397894 0)
(10.6353 -0.383148 0)
(10.5039 -0.374754 0)
(10.367 -0.366192 0)
(10.2247 -0.362302 0)
(10.0781 -0.356849 0)
(9.9294 -0.355699 0)
(9.77794 -0.353107 0)
(9.62688 -0.352806 0)
(9.47707 -0.350969 0)
(10.0025 -0.45367 0)
(10.6189 -0.818975 0)
(10.9015 -0.752043 0)
(10.7932 -0.623682 0)
(10.4938 -0.512469 0)
(10.1378 -0.429125 0)
(9.77038 -0.373495 0)
(9.41797 -0.334648 0)
(9.07729 -0.307215 0)
(8.75606 -0.28453 0)
(8.44721 -0.267574 0)
(8.15424 -0.251254 0)
(7.87363 -0.239966 0)
(7.60417 -0.227268 0)
(7.3495 -0.221066 0)
(7.10008 -0.21176 0)
(6.87178 -0.210789 0)
(6.64246 -0.204117 0)
(10.0974 -0.750789 0)
(10.0458 -1.0132 0)
(9.42487 -0.801048 0)
(8.51449 -0.572133 0)
(7.65518 -0.378695 0)
(6.92915 -0.244865 0)
(6.3277 -0.167501 0)
(5.83209 -0.126231 0)
(5.40978 -0.104682 0)
(5.0493 -0.0923003 0)
(4.72931 -0.0849417 0)
(4.44868 -0.079331 0)
(4.19237 -0.0757909 0)
(3.96355 -0.071876 0)
(3.75192 -0.0721233 0)
(3.55681 -0.0690709 0)
(3.38466 -0.0802535 0)
(3.2198 -0.0828498 0)
(8.5167 -0.436074 0)
(6.11017 -0.380887 0)
(4.29831 -0.138044 0)
(3.12397 -0.0213837 0)
(2.48127 0.019135 0)
(2.12069 0.0224759 0)
(1.8965 0.0137197 0)
(1.73523 0.00461901 0)
(1.59925 -0.00156513 0)
(1.47856 -0.00478833 0)
(1.36651 -0.00640204 0)
(1.26439 -0.00671562 0)
(1.16876 -0.00670492 0)
(1.08207 -0.0063867 0)
(1.00006 -0.00665479 0)
(0.919852 -0.0070298 0)
(0.852367 -0.0186046 0)
(0.73188 -0.00612775 0)
(-0.0520096 0.137873 0)
(-0.157035 0.0714977 0)
(-0.207036 0.0164967 0)
(-0.195216 -0.0443074 0)
(-0.117987 -0.0990204 0)
(0.0121681 -0.145056 0)
(0.186192 -0.175608 1.11358e-17)
(0.387911 -0.193583 -1.10608e-17)
(0.606122 -0.197987 0)
(0.828491 -0.192736 -1.09176e-17)
(1.04564 -0.178405 0)
(1.2486 -0.157652 0)
(1.4308 -0.131028 0)
(1.58699 -0.10168 1.06431e-17)
(1.71453 -0.0704392 0)
(1.81064 -0.0383819 0)
(1.87443 -0.00625219 -1.04459e-17)
(1.90661 0.0239925 0)
(1.90886 0.0504542 0)
(1.88324 0.0721898 0)
(1.83346 0.0891686 1.01964e-17)
(1.76207 0.100725 0)
(1.67297 0.108581 1.00745e-17)
(1.56787 0.11147 0)
(1.45139 0.109574 0)
(1.32627 0.107932 9.8958e-18)
(1.19278 0.111233 0)
(1.05013 0.116346 -9.77948e-18)
(0.901543 0.121569 0)
(0.747618 0.126598 9.66458e-18)
(0.589902 0.130594 0)
(0.430661 0.13305 0)
(0.272162 0.134209 0)
(0.114873 0.133992 0)
(-0.0409133 0.131111 0)
(-0.193124 0.126451 -9.32978e-18)
(-0.340109 0.120375 0)
(-0.481454 0.113915 1.84408e-17)
(-0.615724 0.107458 0)
(-0.742491 0.100261 -1.82218e-17)
(-0.860279 0.0932731 0)
(-0.969257 0.0865755 0)
(-1.06985 0.0789154 1.78885e-17)
(-1.16161 0.0706471 0)
(-1.24514 0.0629982 1.76653e-17)
(-1.32051 0.05577 -1.75532e-17)
(-1.38717 0.0486459 0)
(-1.44584 0.0423318 -1.73283e-17)
(-1.49758 0.0368068 -1.72152e-17)
(-1.54146 0.0330398 0)
(-1.57767 0.0314307 0)
(-1.60812 0.0314263 0)
(-1.63494 0.031568 0)
(-1.65908 0.0315786 0)
(-1.682 0.0324451 1.65282e-17)
(-1.70557 0.033983 0)
(-1.73115 0.0362042 -1.6299e-17)
(-1.75754 0.0382724 0)
(-1.78348 0.0388903 0)
(-1.80898 0.0394578 1.59525e-17)
(-1.83469 0.0411734 0)
(-1.86229 0.0423468 -1.57212e-17)
(-1.89184 0.0439761 0)
(-1.92303 0.0454148 0)
(-1.95538 0.0461668 0)
(-1.98825 0.0472866 1.52556e-17)
(-2.02163 0.0492426 0)
(-2.05559 0.0515066 0)
(-2.09024 0.0538971 1.49059e-17)
(-2.12587 0.0552284 0)
(-2.15969 0.0554722 1.46713e-17)
(-2.19061 0.0561536 0)
(-2.21874 0.0567322 0)
(-2.24293 0.0567424 0)
(-2.26191 0.0561628 -1.42053e-17)
(-2.27505 0.0549595 0)
(-2.28294 0.054197 0)
(-2.28744 0.0540945 -1.38615e-17)
(-2.28894 0.0530881 -1.37481e-17)
(-2.28575 0.0514074 0)
(-2.27609 0.0491119 -1.35229e-17)
(-2.25985 0.0461653 0)
(-2.23662 0.0429869 -2.66028e-17)
(-2.20641 0.0395319 0)
(-2.16977 0.035838 -2.61674e-17)
(-2.12653 0.0327594 0)
(-2.07774 0.0303335 2.57386e-17)
(-2.02425 0.0283547 0)
(-1.9662 0.0269202 0)
(-1.90421 0.0259478 0)
(-1.83984 0.0253577 -2.49016e-17)
(-1.77283 0.0250901 0)
(-1.70483 0.0250442 2.44998e-17)
(-1.63584 0.0256206 0)
(-1.56657 0.0266406 -2.41105e-17)
(-1.49893 0.0291299 -2.39219e-17)
(-1.43213 0.0302857 -2.37376e-17)
(-1.36516 0.0313361 0)
(-1.29996 0.0313573 0)
(-1.2354 0.0325417 0)
(-1.16978 0.0333974 0)
(-1.10509 0.0330379 0)
(-1.03541 0.0318994 0)
(-0.966741 0.0331713 0)
(-0.895899 0.0327767 0)
(-0.828822 0.0351593 2.22136e-17)
(-0.761326 0.0356165 2.20613e-17)
(-0.698756 0.039959 0)
(-0.63793 0.0412848 0)
(-0.58191 0.0409249 0)
(-0.513961 0.0383033 2.14808e-17)
(-0.451245 0.0425232 0)
(-0.382444 0.0408615 0)
(-0.317566 0.0437438 0)
(-0.246832 0.040772 0)
(-0.17397 0.0431301 -2.08064e-17)
(-0.098769 0.044622 0)
(-0.0176573 0.0435382 0)
(0.0676449 0.0449649 2.04293e-17)
(0.156497 0.0448228 -2.03077e-17)
(0.248689 0.0441556 0)
(0.344553 0.0481728 -2.0075e-17)
(0.436249 0.0512101 0)
(0.528348 0.0549736 1.98484e-17)
(0.609171 0.0595836 0)
(0.680344 0.0624875 0)
(0.755278 0.0626458 0)
(0.824875 0.0633475 0)
(0.904548 0.060416 0)
(0.97882 0.0609073 -3.8396e-17)
(1.05468 0.0624411 -3.81769e-17)
(1.11564 0.0671481 0)
(1.16664 0.0663386 0)
(1.2117 0.0676829 0)
(1.2486 0.0636314 3.72525e-17)
(1.29651 0.058843 0)
(1.34585 0.0572048 0)
(1.39077 0.0560879 0)
(1.43928 0.0538752 3.62324e-17)
(1.47834 0.0560858 -3.59645e-17)
(1.52264 0.0528086 0)
(1.56112 0.0528454 0)
(1.60221 0.0532961 -3.51497e-17)
(1.62825 0.0583191 -3.48767e-17)
(1.65788 0.0549973 0)
(1.68641 0.0586978 0)
(1.72558 0.0557138 3.40433e-17)
(1.76233 0.0659699 -3.37639e-17)
(1.77048 0.0713595 0)
(1.78419 0.0707678 0)
(1.80921 0.0711459 -3.2927e-17)
(1.84243 0.0758588 0)
(1.85582 0.0834456 0)
(1.86679 0.0891351 -3.20828e-17)
(1.86597 0.093262 0)
(1.8804 0.0980842 -3.15222e-17)
(1.88291 0.105081 0)
(1.88897 0.109197 0)
(1.87629 0.120828 0)
(1.86254 0.126767 3.04332e-17)
(1.84658 0.133173 0)
(1.8145 0.142937 0)
(1.74192 0.154652 0)
(1.66434 0.154828 0)
(1.59756 0.157312 0)
(1.50662 0.166004 0)
(1.3796 0.172335 2.88923e-17)
(1.26164 0.173943 2.87381e-17)
(1.07675 0.182209 0)
(0.871306 0.184547 0)
(0.629024 0.183615 0)
(0.41401 0.169891 -2.83202e-17)
(0.192253 0.162836 0)
(0.0412356 0.146501 5.63449e-17)
(-0.157397 0.143839 -5.62354e-17)
(-0.258965 0.123822 -5.60565e-17)
(-0.420615 0.126904 5.59523e-17)
(-0.454754 0.0966258 -5.57497e-17)
(-0.612032 0.129607 5.57303e-17)
(-0.562484 -0.00347279 0)
(0.0100859 0.248917 0)
(0.0143361 0.192237 0)
(0.0492776 0.00794724 -2.27969e-17)
(0.12048 -0.198186 0)
(0.235297 -0.384147 2.2366e-17)
(0.387518 -0.535512 2.22193e-17)
(0.56863 -0.644385 1.10443e-17)
(0.768478 -0.710341 1.09819e-17)
(0.975788 -0.736969 0)
(1.17996 -0.730714 1.08548e-17)
(1.37239 -0.694886 0)
(1.54574 -0.63661 0)
(1.69607 -0.562025 -2.13211e-17)
(1.81862 -0.477653 -1.05953e-17)
(1.91334 -0.385798 2.10565e-17)
(1.97845 -0.29129 2.0923e-17)
(2.01528 -0.19896 1.03959e-17)
(2.02395 -0.110905 0)
(2.0069 -0.0279293 0)
(1.96411 0.0467007 0)
(1.89938 0.11211 1.01368e-17)
(1.81279 0.171233 0)
(1.70896 0.224163 -3.00379e-17)
(1.58674 0.267019 0)
(1.44846 0.302023 0)
(1.29465 0.332629 -9.83204e-18)
(1.12881 0.356625 0)
(0.953689 0.37395 9.71567e-18)
(0.77312 0.385015 1.93129e-17)
(0.588008 0.392256 -9.59768e-18)
(0.401131 0.394332 0)
(0.213741 0.390546 0)
(0.0255067 0.383284 0)
(-0.163098 0.376371 1.87313e-17)
(-0.350296 0.367867 1.86168e-17)
(-0.534777 0.355687 9.2514e-18)
(-0.713801 0.340989 0)
(-0.887863 0.323982 -1.82765e-17)
(-1.053 0.303549 0)
(-1.21151 0.281756 1.80511e-17)
(-1.36176 0.259359 0)
(-1.50533 0.23661 0)
(-1.64067 0.216205 -1.77169e-17)
(-1.7687 0.197097 0)
(-1.89188 0.17911 -5.24872e-17)
(-2.00932 0.160261 1.73859e-17)
(-2.12012 0.141247 0)
(-2.22391 0.124216 1.71657e-17)
(-2.32158 0.106445 1.70554e-17)
(-2.4119 0.0867381 0)
(-2.49294 0.0676558 0)
(-2.56684 0.0529699 0)
(-2.63547 0.0432793 0)
(-2.70075 0.038157 0)
(-2.76207 0.0366479 -1.63738e-17)
(-2.8215 0.0362117 -3.25154e-17)
(-2.87931 0.0364158 1.61416e-17)
(-2.93287 0.0340154 0)
(-2.98399 0.0301566 -3.18132e-17)
(-3.03307 0.0289251 1.57876e-17)
(-3.07943 0.0297974 0)
(-3.12657 0.0304088 1.55501e-17)
(-3.17164 0.032842 0)
(-3.21442 0.0339362 0)
(-3.25544 0.0329861 3.03755e-17)
(-3.29524 0.0320331 -1.50675e-17)
(-3.33066 0.0299447 2.98922e-17)
(-3.36365 0.027126 -2.96509e-17)
(-3.39134 0.0241379 -1.47049e-17)
(-3.41606 0.0203054 0)
(-3.43474 0.0132803 -1.44632e-17)
(-3.44645 0.00345412 0)
(-3.45253 -0.00697303 0)
(-3.45022 -0.0193216 0)
(-3.43876 -0.0334429 -1.39834e-17)
(-3.41911 -0.0474457 0)
(-3.39292 -0.057667 -2.74959e-17)
(-3.36092 -0.0649444 4.08955e-17)
(-3.3235 -0.0736292 1.35167e-17)
(-3.2798 -0.084811 0)
(-3.22812 -0.0976073 1.32882e-17)
(-3.17115 -0.110331 0)
(-3.1085 -0.122432 2.6125e-17)
(-3.0407 -0.133469 0)
(-2.96785 -0.143992 2.5682e-17)
(-2.88989 -0.1534 -5.09242e-17)
(-2.80798 -0.162321 -2.52482e-17)
(-2.72365 -0.170287 0)
(-2.63435 -0.177794 0)
(-2.54282 -0.183395 0)
(-2.44915 -0.187569 2.44079e-17)
(-2.35215 -0.191579 0)
(-2.25398 -0.194245 -2.40017e-17)
(-2.15583 -0.194608 0)
(-2.05716 -0.196177 7.08241e-17)
(-1.95852 -0.195534 2.3418e-17)
(-1.85926 -0.196569 2.3232e-17)
(-1.7621 -0.193868 0)
(-1.66745 -0.193178 0)
(-1.57221 -0.19391 0)
(-1.47442 -0.194618 0)
(-1.37767 -0.197031 0)
(-1.27521 -0.201356 4.43243e-17)
(-1.17915 -0.199471 4.39881e-17)
(-1.07965 -0.199689 0)
(-0.992286 -0.19421 -2.16764e-17)
(-0.896041 -0.195237 -2.15242e-17)
(-0.808976 -0.188541 0)
(-0.714407 -0.1875 -4.24457e-17)
(-0.635635 -0.187086 0)
(-0.53879 -0.197339 2.09387e-17)
(-0.452385 -0.191175 0)
(-0.346853 -0.199114 0)
(-0.252225 -0.195892 -4.10594e-17)
(-0.138933 -0.204486 0)
(-0.0346722 -0.204962 2.0273e-17)
(0.0908309 -0.212981 0)
(0.217844 -0.220672 0)
(0.353901 -0.224592 1.98876e-17)
(0.494612 -0.229246 1.97712e-17)
(0.64011 -0.23442 0)
(0.788891 -0.234836 -1.95338e-17)
(0.948087 -0.23643 0)
(1.10726 -0.227181 1.9297e-17)
(1.27061 -0.218091 3.83636e-17)
(1.41874 -0.212268 0)
(1.57583 -0.213824 0)
(1.72147 -0.214044 0)
(1.88135 -0.215834 0)
(2.02908 -0.210887 3.72307e-17)
(2.18376 -0.207621 1.11007e-16)
(2.32077 -0.188956 0)
(2.4451 -0.183414 0)
(2.56441 -0.172433 0)
(2.66931 -0.174092 -3.608e-17)
(2.77137 -0.178514 0)
(2.87187 -0.178169 0)
(2.96663 -0.176713 7.06163e-17)
(3.0601 -0.177117 3.50342e-17)
(3.13574 -0.172511 3.47656e-17)
(3.22396 -0.179743 0)
(3.28795 -0.173413 0)
(3.35524 -0.174775 3.39206e-17)
(3.40213 -0.16396 -3.36145e-17)
(3.44714 -0.178077 0)
(3.47692 -0.175027 0)
(3.51087 -0.191218 -3.27216e-17)
(3.53974 -0.173315 9.71875e-17)
(3.55396 -0.168837 0)
(3.56472 -0.179659 0)
(3.57556 -0.191133 3.14592e-17)
(3.59589 -0.189201 0)
(3.59122 -0.18239 6.16246e-17)
(3.58834 -0.180589 -3.04708e-17)
(3.5606 -0.185301 0)
(3.557 -0.194697 2.98437e-17)
(3.53329 -0.191173 5.90524e-17)
(3.52241 -0.192582 0)
(3.47616 -0.185406 0)
(3.45221 -0.19368 -2.8573e-17)
(3.41037 -0.18577 0)
(3.35233 -0.168831 5.58857e-17)
(3.25335 -0.14922 0)
(3.15957 -0.154031 0)
(3.03857 -0.145954 0)
(2.9092 -0.121786 0)
(2.71577 -0.103611 -2.66529e-17)
(2.55753 -0.0761986 -2.64634e-17)
(2.27355 -0.026909 0)
(2.00361 -0.00280823 0)
(1.6747 0.0217958 0)
(1.3816 0.0181161 2.59578e-17)
(1.04797 0.0226963 0)
(0.842198 0.0127741 -5.1668e-17)
(0.5241 0.031404 5.16415e-17)
(0.411649 0.000363879 5.14926e-17)
(0.130717 0.0314595 5.14827e-17)
(0.132066 -0.0166265 5.13306e-17)
(-0.163895 0.0797353 5.14934e-17)
(0.0203979 -0.115342 0)
(0.0290145 0.0716878 0)
(0.120816 -0.0374745 0)
(0.227631 -0.240764 2.2914e-17)
(0.339555 -0.46777 2.26656e-17)
(0.47389 -0.692449 -2.25141e-17)
(0.617969 -0.874491 -2.24015e-17)
(0.772241 -1.0033 -1.47982e-21)
(0.923628 -1.07375 0)
(1.06891 -1.08465 0)
(1.19584 -1.0456 0)
(1.30478 -0.965859 0)
(1.39088 -0.856683 0)
(1.45661 -0.726257 6.47138e-17)
(1.49743 -0.586145 0)
(1.51619 -0.441388 -2.13054e-17)
(1.51109 -0.294979 -2.11691e-17)
(1.48502 -0.153642 0)
(1.43656 -0.0202598 0)
(1.37026 0.10354 0)
(1.28582 0.216085 0)
(1.18555 0.315611 -2.05028e-17)
(1.07034 0.398847 0)
(0.945217 0.471374 2.02487e-17)
(0.807496 0.536617 0)
(0.660059 0.591597 0)
(0.504272 0.636609 0)
(0.34553 0.67264 3.95251e-17)
(0.182842 0.699855 0)
(0.0186919 0.719251 -1.95223e-17)
(-0.146454 0.729599 3.87999e-17)
(-0.310866 0.732732 0)
(-0.477557 0.734478 0)
(-0.644508 0.7315 0)
(-0.810309 0.722071 -1.89167e-17)
(-0.972472 0.706914 -1.8796e-17)
(-1.13139 0.685499 0)
(-1.28545 0.658234 0)
(-1.43388 0.626705 3.68597e-17)
(-1.57524 0.592632 3.66201e-17)
(-1.71477 0.55822 -3.63819e-17)
(-1.84917 0.525374 0)
(-1.98163 0.491734 0)
(-2.10839 0.459405 0)
(-2.23137 0.429852 0)
(-2.35 0.402023 3.52011e-17)
(-2.46262 0.372613 3.49674e-17)
(-2.57007 0.342771 -3.47354e-17)
(-2.67193 0.314037 0)
(-2.76773 0.285979 0)
(-2.85826 0.256784 0)
(-2.94347 0.229808 0)
(-3.02873 0.211916 3.3576e-17)
(-3.10805 0.195985 0)
(-3.18244 0.182697 0)
(-3.25029 0.1748 3.28784e-17)
(-3.31356 0.169574 3.26468e-17)
(-3.37129 0.16272 0)
(-3.42147 0.153499 -6.43604e-17)
(-3.46942 0.146574 3.19488e-17)
(-3.51362 0.140331 -3.17144e-17)
(-3.55178 0.136413 0)
(-3.58715 0.133485 0)
(-3.61657 0.129084 0)
(-3.64104 0.124292 0)
(-3.66287 0.118598 -3.05525e-17)
(-3.68061 0.110808 -6.06463e-17)
(-3.69269 0.103464 -3.00977e-17)
(-3.7013 0.096351 2.98728e-17)
(-3.70253 0.085227 0)
(-3.69832 0.0724823 -5.88403e-17)
(-3.68627 0.056747 -5.83919e-17)
(-3.66872 0.0409241 -5.7947e-17)
(-3.64711 0.0234235 5.75051e-17)
(-3.61662 0.00133951 0)
(-3.5793 -0.0212077 8.49423e-17)
(-3.53611 -0.0406799 0)
(-3.48823 -0.056188 -2.7878e-17)
(-3.43179 -0.0700907 -2.76652e-17)
(-3.3674 -0.0858011 0)
(-3.29687 -0.102694 0)
(-3.22283 -0.119479 -5.40424e-17)
(-3.14653 -0.134378 0)
(-3.06621 -0.14865 -5.31956e-17)
(-2.98329 -0.162347 0)
(-2.89576 -0.176768 5.23569e-17)
(-2.80466 -0.188235 1.03886e-16)
(-2.70984 -0.198069 0)
(-2.6141 -0.207312 0)
(-2.51533 -0.214794 0)
(-2.41781 -0.220911 5.02925e-17)
(-2.31863 -0.22676 0)
(-2.2161 -0.231448 4.94706e-17)
(-2.11082 -0.234704 0)
(-2.00503 -0.233954 0)
(-1.89697 -0.234117 -9.65089e-17)
(-1.79159 -0.231792 0)
(-1.68428 -0.231299 -4.74639e-17)
(-1.58124 -0.225271 0)
(-1.47401 -0.225969 -4.66964e-17)
(-1.36744 -0.225109 0)
(-1.25859 -0.224264 0)
(-1.15126 -0.227994 0)
(-1.04096 -0.230397 -1.35699e-16)
(-0.941045 -0.222022 -4.48715e-17)
(-0.832049 -0.21892 0)
(-0.739079 -0.208568 0)
(-0.637468 -0.210058 0)
(-0.551887 -0.19785 0)
(-0.447942 -0.194197 4.32366e-17)
(-0.361847 -0.189637 -8.5838e-17)
(-0.254674 -0.20643 -4.26337e-17)
(-0.167234 -0.198203 8.46589e-17)
(-0.0474698 -0.213441 8.40952e-17)
(0.0542765 -0.210036 4.17619e-17)
(0.184414 -0.224903 0)
(0.297161 -0.225959 8.23982e-17)
(0.435701 -0.242344 0)
(0.567813 -0.251624 -8.12865e-17)
(0.716055 -0.25761 -4.0385e-17)
(0.861937 -0.262371 0)
(1.0167 -0.270217 7.97629e-17)
(1.16555 -0.272593 3.96284e-17)
(1.32729 -0.281336 0)
(1.4858 -0.277605 3.90902e-17)
(1.6583 -0.267957 -1.16509e-16)
(1.8184 -0.256793 0)
(1.98333 -0.256492 0)
(2.13598 -0.256171 0)
(2.29682 -0.259896 0)
(2.45394 -0.255543 -7.5155e-17)
(2.61055 -0.252436 -7.46562e-17)
(2.76235 -0.221793 0)
(2.90078 -0.21487 0)
(3.03206 -0.201222 0)
(3.154 -0.199367 0)
(3.2609 -0.204051 0)
(3.38045 -0.207347 0)
(3.49341 -0.206587 -7.09526e-17)
(3.60609 -0.206099 -1.65159e-20)
(3.70131 -0.198664 0)
(3.81082 -0.209272 0)
(3.901 -0.196461 -6.8607e-17)
(3.99278 -0.197165 0)
(4.07263 -0.176371 6.74247e-17)
(4.14117 -0.18713 6.68069e-17)
(4.18297 -0.17023 0)
(4.23671 -0.188841 0)
(4.2752 -0.164867 -6.48995e-17)
(4.32493 -0.155812 -1.2851e-16)
(4.35241 -0.160005 0)
(4.38493 -0.17174 0)
(4.4264 -0.162979 0)
(4.43904 -0.148153 -6.16879e-17)
(4.46674 -0.13511 6.10001e-17)
(4.46531 -0.13538 0)
(4.48523 -0.142179 1.19364e-16)
(4.46895 -0.130339 5.90281e-17)
(4.48649 -0.128707 -1.16762e-16)
(4.46423 -0.109794 0)
(4.464 -0.115931 0)
(4.43214 -0.0941353 -1.1274e-16)
(4.39029 -0.0664312 -5.5714e-17)
(4.30362 -0.0363647 0)
(4.23863 -0.0344083 0)
(4.10522 -0.0166841 0)
(3.99437 0.0248736 0)
(3.7833 0.0509274 -1.05591e-16)
(3.6148 0.0953639 0)
(3.31765 0.166099 0)
(3.06213 0.189833 0)
(2.71335 0.218394 0)
(2.40103 0.202086 0)
(2.01161 0.186406 0)
(1.77591 0.151783 -1.0064e-16)
(1.37251 0.148619 0)
(1.24566 0.0819627 0)
(0.861348 0.104808 -1.9943e-16)
(0.857782 0.0217308 9.92526e-17)
(0.473185 0.112685 -9.94029e-17)
(0.668841 -0.125601 9.87824e-17)
(0.0206367 -0.093342 0)
(0.124869 -0.268159 -4.69573e-17)
(0.247513 -0.488934 0)
(0.375403 -0.754649 -2.27977e-17)
(0.502066 -0.998492 0)
(0.618182 -1.18753 0)
(0.722871 -1.30531 2.24466e-17)
(0.80355 -1.34875 0)
(0.866467 -1.31899 0)
(0.905694 -1.23327 0)
(0.927757 -1.11055 0)
(0.930513 -0.961359 0)
(0.918847 -0.794337 -8.66176e-17)
(0.89006 -0.617288 -4.3026e-17)
(0.847691 -0.434603 4.27465e-17)
(0.79144 -0.253661 0)
(0.7233 -0.0810944 0)
(0.641817 0.0804373 0)
(0.550445 0.22948 0)
(0.448732 0.363118 0)
(0.339534 0.480958 -4.1151e-17)
(0.221068 0.583088 -4.08983e-17)
(0.0946619 0.674 4.06491e-17)
(-0.037532 0.750159 -4.04014e-17)
(-0.173825 0.813063 0)
(-0.312867 0.861307 0)
(-0.453423 0.897443 -3.96581e-17)
(-0.594348 0.922219 0)
(-0.736201 0.936374 0)
(-0.878557 0.94493 -3.8925e-17)
(-1.02152 0.950446 -3.86818e-17)
(-1.16241 0.948313 -3.84375e-17)
(-1.30026 0.939363 0)
(-1.43482 0.924133 0)
(-1.56475 0.902635 3.7694e-17)
(-1.68962 0.872918 0)
(-1.81046 0.837263 0)
(-1.92764 0.797646 -3.69492e-17)
(-2.04172 0.759475 3.66976e-17)
(-2.15414 0.721182 -3.64489e-17)
(-2.26003 0.682259 0)
(-2.3642 0.642702 0)
(-2.46427 0.60612 -7.14206e-17)
(-2.56148 0.571643 0)
(-2.65328 0.533388 -7.04545e-17)
(-2.7416 0.495126 -1.04965e-16)
(-2.82622 0.459116 1.04244e-16)
(-2.90559 0.422679 -6.90155e-17)
(-2.98175 0.385301 0)
(-3.05538 0.349498 0)
(-3.12863 0.321216 -6.76032e-17)
(-3.19921 0.296615 -3.35712e-17)
(-3.26343 0.270907 0)
(-3.32349 0.249673 0)
(-3.37891 0.234251 -3.28791e-17)
(-3.42894 0.217433 -6.52984e-17)
(-3.47265 0.198505 0)
(-3.51044 0.180602 6.43802e-17)
(-3.54417 0.166132 -6.3921e-17)
(-3.57276 0.152534 6.34651e-17)
(-3.59521 0.138407 0)
(-3.61188 0.125205 0)
(-3.62397 0.113851 0)
(-3.63095 0.102254 0)
(-3.6343 0.0917485 0)
(-3.63288 0.0765427 6.07748e-17)
(-3.62713 0.0600501 0)
(-3.61417 0.0417268 0)
(-3.59544 0.0210772 0)
(-3.5724 -0.000513092 1.18049e-16)
(-3.5439 -0.0242034 5.85921e-17)
(-3.51055 -0.0478871 5.81585e-17)
(-3.47234 -0.0746265 -1.15459e-16)
(-3.42767 -0.105782 5.73044e-17)
(-3.37972 -0.13569 -5.6885e-17)
(-3.3255 -0.163164 0)
(-3.26651 -0.189218 5.60383e-17)
(-3.19761 -0.215997 0)
(-3.12461 -0.241328 0)
(-3.04598 -0.263353 0)
(-2.9659 -0.284277 1.08721e-16)
(-2.88364 -0.303583 -5.39472e-17)
(-2.79811 -0.322736 -5.35338e-17)
(-2.71125 -0.34171 -1.06273e-16)
(-2.62046 -0.361734 -1.5822e-16)
(-2.52858 -0.377731 -5.23446e-17)
(-2.43198 -0.390853 0)
(-2.33564 -0.402407 -1.03073e-16)
(-2.2378 -0.410476 0)
(-2.13996 -0.416669 -1.52208e-16)
(-2.04146 -0.426583 0)
(-1.94399 -0.432999 -1.49835e-16)
(-1.84047 -0.439281 0)
(-1.73644 -0.439942 0)
(-1.62775 -0.441531 -4.87483e-17)
(-1.52049 -0.438416 0)
(-1.40996 -0.438061 4.79743e-17)
(-1.30428 -0.433433 9.51604e-17)
(-1.19063 -0.435229 4.72057e-17)
(-1.08089 -0.436976 9.36537e-17)
(-0.962482 -0.437579 -9.28967e-17)