/*--------------------------------*- C++ -*----------------------------------*\
| =========                 |                                                 |
| \\      /  F ield         | OpenFOAM: The Open Source CFD Toolbox           |
|  \\    /   O peration     | Version:  dev                                   |
|   \\  /    A nd           | Web:      http://www.openfoam.org               |
|    \\/     M anipulation  |                                                 |
\*---------------------------------------------------------------------------*/
FoamFile
{
    version     2.0;
    format      ascii;
    class       volSymmTensorField;
    object      UPrime2Mean;
    location    "9.163";
}
// * * * * * * * * * * * * * * * * * * * * * * * * * * * * * * * * * * * * * //

dimensions      [0 2 -2 0 0 0 0];

internalField   nonuniform List<symmTensor> 
12225
(
(0.329283 0.0192508 0 0.069163 0 0)
(2.98668 0.0796102 0 0.0780717 0 0)
(7.88176 0.112174 0 0.0767772 0 0)
(14.537 0.148014 0 0.0754548 0 0)
(22.707 0.132771 0 0.0764023 0 0)
(32.0727 0.200778 0 0.0745603 0 0)
(42.3869 0.0956692 0 0.0765029 0 0)
(53.5322 0.200035 0 0.0737443 0 0)
(65.6274 -0.0287835 0 0.0775089 0 0)
(78.2262 0.125262 0 0.0735183 0 0)
(92.9735 -0.306546 0 0.0812154 0 0)
(107.316 -0.1161 0 0.0768975 0 0)
(127.927 -0.672607 0 0.0862302 0 0)
(145.629 -1.27708 0 0.134604 0 0)
(185.953 -1.41138 0 0.116384 0 0)
(198.528 -0.393387 0 2.39318 0 0)
(272.31 -33.5349 0 5.80732 0 0)
(575.819 -52.9298 0 18.8196 0 0)
(0.377457 0.0567413 0 0.687929 0 0)
(3.1567 0.251976 0 0.731153 0 0)
(8.41223 0.361726 0 0.713045 0 0)
(15.4762 0.484799 0 0.705552 0 0)
(24.2015 0.452359 0 0.702432 0 0)
(34.4622 0.631961 0 0.682291 0 0)
(45.5312 0.295358 0 0.691096 0 0)
(58.4882 0.60807 0 0.657811 0 0)
(71.4805 -0.135911 0 0.681678 0 0)
(87.1567 0.281752 0 0.645061 0 0)
(102.791 -1.06579 0 0.710385 0 0)
(121.436 -0.766522 0 0.654656 0 0)
(142.86 -2.54358 0 1.0681 0 0)
(166.322 -4.48987 0 1.04594 0 0)
(199.791 -0.92942 0 3.10218 0 0)
(274.377 -9.97542 0 6.60344 0 0)
(281.062 -20.8375 0 8.73531 0 0)
(799.89 -185.169 0 64.6881 0 0)
(0.504925 0.0583291 0 2.13733 0 0)
(3.06447 0.424172 0 2.19915 0 0)
(8.46685 0.569927 0 2.14817 0 0)
(14.8551 0.85091 0 2.13966 0 0)
(24.2789 0.86343 0 2.11662 0 0)
(33.1554 1.05168 0 2.07948 0 0)
(45.2764 0.754966 0 2.07528 0 0)
(56.2092 0.884744 0 2.00464 0 0)
(69.694 0.170912 0 2.0488 0 0)
(83.4575 0.0155282 0 1.95661 0 0)
(98.1981 -1.12482 0 2.11988 0 0)
(115.676 -2.44912 0 2.09199 0 0)
(138.634 -3.59769 0 2.62003 0 0)
(154.891 -7.20029 0 2.82911 0 0)
(211.028 -13.0081 0 6.11974 0 0)
(223.424 -7.89323 0 6.3749 0 0)
(353.04 -62.2604 0 31.0802 0 0)
(534.542 -192.487 0 98.2196 0 0)
(1.02923 0.0923214 0 4.6634 0 0)
(3.54959 0.618856 0 4.75982 0 0)
(9.06948 0.815026 0 4.63582 0 0)
(15.0685 1.14867 0 4.59513 0 0)
(24.6394 1.31133 0 4.55095 0 0)
(32.9886 1.34806 0 4.47675 0 0)
(45.0111 1.25935 0 4.44187 0 0)
(55.1758 0.971315 0 4.34359 0 0)
(68.6099 0.473631 0 4.37543 0 0)
(80.7247 -0.284916 0 4.25204 0 0)
(96.0496 -1.33344 0 4.50155 0 0)
(110.529 -3.34374 0 4.36682 0 0)
(131.492 -4.7963 0 5.29708 0 0)
(152.273 -10.9735 0 5.60302 0 0)
(187.882 -11.4318 0 9.28436 0 0)
(238.445 -28.8653 0 16.8176 0 0)
(291.493 -58.9178 0 32.6727 0 0)
(414.849 -178.319 0 107.825 0 0)
(1.86296 0.364778 0 8.50985 0 0)
(5.00907 0.719651 0 8.71108 0 0)
(9.43655 1.13888 0 8.46029 0 0)
(16.2439 1.29323 0 8.35732 0 0)
(24.6521 1.69877 0 8.2679 0 0)
(33.9513 1.50027 0 8.13302 0 0)
(44.8267 1.59511 0 8.03261 0 0)
(55.5308 0.990098 0 7.90082 0 0)
(68.4251 0.597155 0 7.8481 0 0)
(80.1332 -0.597293 0 7.75059 0 0)
(95.3853 -1.78261 0 7.95266 0 0)
(108.573 -4.23153 0 7.90028 0 0)
(128.115 -6.88368 0 9.01783 0 0)
(145.243 -12.2916 0 9.2598 0 0)
(173.986 -19.2046 0 14.5836 0 0)
(217.912 -25.9581 0 17.2024 0 0)
(233.694 -55.5779 0 46.2571 0 0)
(326.679 -171.741 0 138.647 0 0)
(2.56166 0.750072 0 14.0188 0 0)
(6.32459 0.806591 0 14.3702 0 0)
(9.30144 1.53851 0 13.941 0 0)
(17.0985 1.59289 0 13.7465 0 0)
(24.1446 2.11819 0 13.5721 0 0)
(34.2712 1.93394 0 13.3405 0 0)
(43.9829 1.98779 0 13.1358 0 0)
(55.1799 1.41169 0 12.8955 0 0)
(67.3392 0.89031 0 12.7595 0 0)
(78.9222 -0.390634 0 12.5589 0 0)
(94.441 -1.74324 0 12.7604 0 0)
(105.846 -4.31754 0 12.6691 0 0)
(128.132 -7.2714 0 13.9728 0 0)
(137.959 -13.1616 0 14.6525 0 0)
(170.991 -21.8396 0 21.2369 0 0)
(191.499 -33.0444 0 24.5879 0 0)
(211.096 -55.917 0 51.556 0 0)
(265.675 -145.641 0 130.604 0 0)
(2.24454 0.721194 0 21.4999 0 0)
(5.54392 0.940566 0 22.1152 0 0)
(9.20172 1.762 0 21.3421 0 0)
(16.3428 2.07533 0 21.1546 0 0)
(23.9779 2.44691 0 20.7567 0 0)
(33.3708 2.53929 0 20.5238 0 0)
(43.6207 2.27006 0 20.0565 0 0)
(54.0611 1.9235 0 19.8269 0 0)
(66.4998 0.891605 0 19.4103 0 0)
(77.3782 -0.223993 0 19.2578 0 0)
(92.5365 -2.37799 0 19.1994 0 0)
(103.519 -4.82915 0 19.2423 0 0)
(123.663 -8.98749 0 20.4535 0 0)
(133.948 -14.2664 0 21.4319 0 0)
(161.561 -24.4063 0 28.4949 0 0)
(169.403 -32.4141 0 32.0325 0 0)
(203.4 -59.0101 0 56.8357 0 0)
(190.266 -108.758 0 114.092 0 0)
(1.42463 0.598354 0 29.7095 0 0)
(4.32256 1.13389 0 30.5938 0 0)
(8.58486 1.92217 0 29.4483 0 0)
(15.2546 2.47 0 29.2773 0 0)
(23.2118 2.7739 0 28.6331 0 0)
(32.2728 2.95912 0 28.3724 0 0)
(42.4287 2.59324 0 27.6222 0 0)
(52.8014 2.18547 0 27.3421 0 0)
(64.4419 1.00098 0 26.62 0 0)
(75.6307 -0.370234 0 26.4554 0 0)
(88.6642 -2.75936 0 26.0738 0 0)
(100.45 -5.74291 0 26.2989 0 0)
(115.567 -10.3293 0 27.057 0 0)
(128.099 -15.8068 0 28.5723 0 0)
(144.686 -26.497 0 33.8865 0 0)
(152.049 -33.4639 0 37.4522 0 0)
(180.35 -54.8932 0 53.1542 0 0)
(139.615 -71.3119 0 83.6601 0 0)
(1.00753 0.521012 0 38.4673 0 0)
(3.77876 1.28686 0 39.66 0 0)
(8.18147 2.0338 0 38.1249 0 0)
(14.7303 2.77671 0 37.984 0 0)
(22.6574 3.0019 0 37.0756 0 0)
(31.5925 3.31079 0 36.8009 0 0)
(41.5129 2.79915 0 35.7517 0 0)
(51.7844 2.4664 0 35.4338 0 0)
(62.8419 1.03086 0 34.4272 0 0)
(73.8569 -0.289743 0 34.2279 0 0)
(85.6758 -3.055 0 33.5993 0 0)
(97.0341 -5.91321 0 33.8597 0 0)
(109.362 -10.9583 0 34.3707 0 0)
(121.235 -16.0489 0 36.091 0 0)
(131.244 -25.5708 0 39.9746 0 0)
(138.164 -33.214 0 44.7051 0 0)
(150.01 -47.3256 0 52.4326 0 0)
(123.231 -58.7542 0 73.0862 0 0)
(0.612094 0.484222 0 49.6369 0 0)
(3.23606 1.44464 0 51.2228 0 0)
(7.74242 2.18428 0 49.1296 0 0)
(14.2001 3.03242 0 49.0422 0 0)
(21.9947 3.26889 0 47.755 0 0)
(30.8529 3.57333 0 47.476 0 0)
(40.4779 3.05811 0 46.0172 0 0)
(50.6128 2.62841 0 45.6493 0 0)
(61.137 1.15264 0 44.2325 0 0)
(71.8049 -0.303725 0 43.9899 0 0)
(82.6865 -3.15345 0 42.9485 0 0)
(93.2287 -6.051 0 43.2686 0 0)
(103.869 -11.106 0 43.2715 0 0)
(113.732 -15.8579 0 45.1291 0 0)
(121.341 -24.5162 0 47.6341 0 0)
(125.779 -30.5804 0 51.9053 0 0)
(129.115 -40.7247 0 56.4275 0 0)
(116.022 -48.3946 0 68.9896 0 0)
(0.434079 0.515772 0 63.8099 0 0)
(2.97904 1.62575 0 65.8619 0 0)
(7.46988 2.38082 0 63.1742 0 0)
(13.8462 3.30614 0 63.0624 0 0)
(21.4923 3.56434 0 61.4312 0 0)
(30.1902 3.85235 0 61.0173 0 0)
(39.5486 3.34819 0 59.2123 0 0)
(49.3864 2.80872 0 58.6186 0 0)
(59.4556 1.35837 0 56.901 0 0)
(69.5577 -0.280147 0 56.3848 0 0)
(79.6523 -2.99575 0 55.0853 0 0)
(89.1859 -6.09662 0 55.143 0 0)
(98.5021 -10.5686 0 54.7998 0 0)
(106.378 -15.4313 0 56.3491 0 0)
(112.542 -22.1455 0 57.7953 0 0)
(115.075 -28.0601 0 61.5262 0 0)
(116.021 -35.205 0 64.4941 0 0)
(109.572 -40.8031 0 71.3934 0 0)
(0.35631 0.540029 0 81.2768 0 0)
(2.83139 1.74284 0 83.958 0 0)
(7.26162 2.5517 0 80.4955 0 0)
(13.5158 3.49652 0 80.3863 0 0)
(20.9885 3.80279 0 78.3032 0 0)
(29.4662 4.0289 0 77.7509 0 0)
(38.5224 3.55136 0 75.4654 0 0)
(47.9906 2.90833 0 74.6423 0 0)
(57.5424 1.4687 0 72.454 0 0)
(67.0335 -0.23663 0 71.6691 0 0)
(76.2448 -2.88715 0 69.9174 0 0)
(84.8287 -5.87288 0 69.6606 0 0)
(92.7333 -9.97729 0 68.8286 0 0)
(99.1609 -14.3056 0 69.7847 0 0)
(103.874 -19.7516 0 70.4302 0 0)
(105.818 -24.6641 0 72.9367 0 0)
(105.974 -29.8286 0 74.8815 0 0)
(101.729 -33.3129 0 78.5403 0 0)
(0.329242 0.568448 0 102.323 0 0)
(2.73595 1.80443 0 105.528 0 0)
(7.06849 2.67946 0 101.508 0 0)
(13.1545 3.57802 0 101.039 0 0)
(20.4318 3.92668 0 98.7786 0 0)
(28.6145 4.04627 0 97.7006 0 0)
(37.346 3.60531 0 95.19 0 0)
(46.3444 2.82228 0 93.7431 0 0)
(55.3709 1.46159 0 91.3108 0 0)
(64.1496 -0.356016 0 89.8628 0 0)
(72.5264 -2.77444 0 87.8402 0 0)
(80.1143 -5.70567 0 86.8693 0 0)
(86.8339 -9.21583 0 85.6614 0 0)
(92.0934 -13.1045 0 85.6719 0 0)
(95.7943 -17.3222 0 85.6253 0 0)
(97.3787 -21.3883 0 86.7701 0 0)
(97.4814 -25.2322 0 87.8005 0 0)
(94.6779 -27.6874 0 89.4086 0 0)
(0.313654 0.572666 0 126.282 0 0)
(2.64063 1.77164 0 130.205 0 0)
(6.84767 2.66383 0 125.503 0 0)
(12.7303 3.45793 0 124.694 0 0)
(19.7654 3.78462 0 122.167 0 0)
(27.6142 3.79759 0 120.592 0 0)
(35.9538 3.32324 0 117.714 0 0)
(44.4614 2.47561 0 115.684 0 0)
(52.8961 1.12023 0 112.828 0 0)
(60.9877 -0.643464 0 110.741 0 0)
(68.5347 -2.91171 0 108.255 0 0)
(75.2563 -5.54373 0 106.532 0 0)
(80.9927 -8.59889 0 104.769 0 0)
(85.4407 -11.8221 0 103.768 0 0)
(88.4854 -15.1847 0 102.941 0 0)
(89.9228 -18.3519 0 102.77 0 0)
(90.2251 -21.2705 0 102.787 0 0)
(88.2626 -22.9177 0 102.943 0 0)
(0.299258 0.524239 0 151.661 0 0)
(2.5327 1.57962 0 156.156 0 0)
(6.58352 2.37421 0 151.033 0 0)
(12.2324 2.98333 0 149.597 0 0)
(18.9724 3.20604 0 147.041 0 0)
(26.4498 3.06341 0 144.732 0 0)
(34.3485 2.5225 0 141.648 0 0)
(42.336 1.59008 0 138.846 0 0)
(50.171 0.260492 0 135.652 0 0)
(57.5884 -1.44449 0 132.779 0 0)
(64.3997 -3.50627 0 129.833 0 0)
(70.377 -5.84382 0 127.265 0 0)
(75.3898 -8.42055 0 124.867 0 0)
(79.2756 -11.0724 0 122.87 0 0)
(81.9731 -13.7102 0 121.161 0 0)
(83.3907 -16.1746 0 119.826 0 0)
(83.973 -18.3728 0 118.741 0 0)
(82.7663 -19.4196 0 117.634 0 0)
(0.283978 0.393767 0 174.849 0 0)
(2.41432 1.14414 0 180.041 0 0)
(6.28333 1.66845 0 174.441 0 0)
(11.6707 2.00017 0 172.561 0 0)
(18.0769 1.99699 0 169.883 0 0)
(25.156 1.65994 0 167.036 0 0)
(32.5868 0.979202 0 163.654 0 0)
(40.0541 -0.0297845 0 160.263 0 0)
(47.3105 -1.3641 0 156.651 0 0)
(54.1229 -2.97589 0 153.142 0 0)
(60.3132 -4.84402 0 149.66 0 0)
(65.7173 -6.87463 0 146.375 0 0)
(70.2302 -9.0286 0 143.283 0 0)
(73.779 -11.1763 0 140.433 0 0)
(76.3342 -13.2399 0 137.848 0 0)
(77.86 -15.1391 0 135.528 0 0)
(78.7417 -16.7864 0 133.42 0 0)
(78.1935 -17.385 0 131.227 0 0)
(0.268757 0.156375 0 189.938 0 0)
(2.29349 0.391067 0 195.602 0 0)
(5.96688 0.489073 0 189.716 0 0)
(11.0752 0.410685 0 187.576 0 0)
(17.1313 0.0742506 0 184.833 0 0)
(23.8025 -0.533885 0 181.667 0 0)
(30.7718 -1.4028 0 178.093 0 0)
(37.7434 -2.52479 0 174.346 0 0)
(44.4815 -3.87419 0 170.44 0 0)
(50.7799 -5.41389 0 166.527 0 0)
(56.4856 -7.10041 0 162.64 0 0)
(61.477 -8.86865 0 158.867 0 0)
(65.6787 -10.6642 0 155.237 0 0)
(69.0613 -12.4089 0 151.781 0 0)
(71.6178 -14.0271 0 148.521 0 0)
(73.3369 -15.497 0 145.482 0 0)
(74.5315 -16.733 0 142.595 0 0)
(74.5763 -17.0549 0 139.606 0 0)
(0.25911 -0.141985 0 189.911 0 0)
(2.19599 -0.532736 0 195.533 0 0)
(5.69027 -0.935353 0 189.71 0 0)
(10.5424 -1.48973 0 187.561 0 0)
(16.2829 -2.20942 0 184.861 0 0)
(22.594 -3.11114 0 181.701 0 0)
(29.1677 -4.18404 0 178.152 0 0)
(35.7313 -5.42237 0 174.408 0 0)
(42.0622 -6.79565 0 170.488 0 0)
(47.9828 -8.27525 0 166.542 0 0)
(53.3569 -9.81439 0 162.574 0 0)
(58.0962 -11.3706 0 158.694 0 0)
(62.1397 -12.8909 0 154.887 0 0)
(65.4813 -14.3321 0 151.23 0 0)
(68.1198 -15.6288 0 147.694 0 0)
(70.0605 -16.7881 0 144.361 0 0)
(71.5368 -17.7347 0 141.118 0 0)
(72.0711 -17.9403 0 137.794 0 0)
(0.255932 -0.395423 0 174.117 0 0)
(2.13678 -1.30348 0 179.06 0 0)
(5.49951 -2.12347 0 173.738 0 0)
(10.1618 -3.07046 0 171.748 0 0)
(15.6688 -4.0976 0 169.27 0 0)
(21.7157 -5.22561 0 166.385 0 0)
(28.0055 -6.44742 0 163.138 0 0)
(34.2835 -7.75988 0 159.719 0 0)
(40.3398 -9.13455 0 156.119 0 0)
(46.0177 -10.5515 0 152.496 0 0)
(51.192 -11.9688 0 148.818 0 0)
(55.7945 -13.3598 0 145.217 0 0)
(59.7718 -14.6798 0 141.639 0 0)
(63.128 -15.9054 0 138.193 0 0)
(65.8611 -16.9854 0 134.814 0 0)
(67.9887 -17.9346 0 131.618 0 0)
(69.6796 -18.6921 0 128.468 0 0)
(70.5771 -18.8803 0 125.274 0 0)
(0.25738 -0.544314 0 148.719 0 0)
(2.10897 -1.7439 0 152.67 0 0)
(5.38504 -2.81744 0 148.141 0 0)
(9.91968 -3.99893 0 146.426 0 0)
(15.27 -5.20092 0 144.307 0 0)
(21.14 -6.44841 0 141.858 0 0)
(27.242 -7.73337 0 139.098 0 0)
(33.3341 -9.05762 0 136.197 0 0)
(39.2164 -10.3938 0 133.129 0 0)
(44.7452 -11.7319 0 130.042 0 0)
(49.8052 -13.0337 0 126.891 0 0)
(54.3373 -14.286 0 123.801 0 0)
(58.2951 -15.4494 0 120.711 0 0)
(61.6843 -16.5151 0 117.727 0 0)
(64.5039 -17.4392 0 114.783 0 0)
(66.7762 -18.241 0 111.99 0 0)
(68.6261 -18.8698 0 109.222 0 0)
(69.7866 -19.0797 0 106.435 0 0)
(0.260238 -0.600055 0 119.859 0 0)
(2.09999 -1.88596 0 122.824 0 0)
(5.31893 -3.06177 0 119.182 0 0)
(9.76817 -4.33263 0 117.79 0 0)
(15.0135 -5.58903 0 116.086 0 0)
(20.766 -6.85705 0 114.125 0 0)
(26.7442 -8.12642 0 111.915 0 0)
(32.7156 -9.40243 0 109.592 0 0)
(38.4875 -10.6597 0 107.131 0 0)
(43.9247 -11.8952 0 104.651 0 0)
(48.9196 -13.0751 0 102.113 0 0)
(53.4177 -14.1947 0 99.6184 0 0)
(57.3778 -15.2197 0 97.1176 0 0)
(60.8045 -16.15 0 94.696 0 0)
(63.6982 -16.9487 0 92.3016 0 0)
(66.0838 -17.6352 0 90.0218 0 0)
(68.0559 -18.1686 0 87.7606 0 0)
(69.4151 -18.4044 0 85.4891 0 0)
(0.263174 -0.589341 0 91.7512 0 0)
(2.09961 -1.82642 0 93.8632 0 0)
(5.2811 -2.99098 0 91.0764 0 0)
(9.67345 -4.23927 0 90.0044 0 0)
(14.8483 -5.45768 0 88.7069 0 0)
(20.5221 -6.66858 0 87.2143 0 0)
(26.4186 -7.86155 0 85.5362 0 0)
(32.3111 -9.04151 0 83.7668 0 0)
(38.0128 -10.1878 0 81.8939 0 0)
(43.3938 -11.2991 0 79.9996 0 0)
(48.3522 -12.3484 0 78.0618 0 0)
(52.8359 -13.3341 0 76.1501 0 0)
(56.8072 -14.2287 0 74.235 0 0)
(60.2693 -15.0347 0 72.3745 0 0)
(63.224 -15.7241 0 70.5361 0 0)
(65.6982 -16.3117 0 68.7789 0 0)
(67.7647 -16.7683 0 67.0389 0 0)
(69.2767 -17.0178 0 65.2887 0 0)
(0.266248 -0.535667 0 66.835 0 0)
(2.10342 -1.64767 0 68.2731 0 0)
(5.25975 -2.72553 0 66.2444 0 0)
(9.61434 -3.87644 0 65.4626 0 0)
(14.7419 -4.99426 0 64.5258 0 0)
(20.3633 -6.09487 0 63.4455 0 0)
(26.2062 -7.17024 0 62.233 0 0)
(32.0476 -8.22221 0 60.9492 0 0)
(37.7054 -9.23598 0 59.5923 0 0)
(43.0528 -10.209 0 58.2146 0 0)
(47.9922 -11.1222 0 56.8077 0 0)
(52.4728 -11.973 0 55.4152 0 0)
(56.4592 -12.7419 0 54.0233 0 0)
(59.9533 -13.4307 0 52.6667 0 0)
(62.958 -14.0198 0 51.3287 0 0)
(65.5012 -14.5184 0 50.0448 0 0)
(67.6403 -14.9082 0 48.7771 0 0)
(69.2701 -15.1561 0 47.498 0 0)
(0.26811 -0.461977 0 46.2213 0 0)
(2.10783 -1.41322 0 47.1586 0 0)
(5.24789 -2.35937 0 45.76 0 0)
(9.57751 -3.369 0 45.2227 0 0)
(14.6734 -4.34856 0 44.5824 0 0)
(20.2602 -5.30747 0 43.8397 0 0)
(26.0685 -6.24069 0 43.0068 0 0)
(31.8775 -7.1465 0 42.1208 0 0)
(37.5086 -8.01596 0 41.1867 0 0)
(42.8367 -8.84436 0 40.2349 0 0)
(47.7669 -9.61944 0 39.2664 0 0)
(52.2494 -10.3372 0 38.3052 0 0)
(56.2503 -10.9852 0 37.3472 0 0)
(59.7705 -11.563 0 36.4106 0 0)
(62.8131 -12.0583 0 35.4888 0 0)
(65.4072 -12.4749 0 34.601 0 0)
(67.5982 -12.8027 0 33.7275 0 0)
(69.314 -13.0331 0 32.8428 0 0)
(0.269257 -0.382334 0 30.1134 0 0)
(2.11134 -1.16248 0 30.6969 0 0)
(5.24111 -1.95473 0 29.788 0 0)
(9.55399 -2.80232 0 29.4413 0 0)
(14.6285 -3.62472 0 29.0298 0 0)
(20.1921 -4.42813 0 28.5499 0 0)
(25.9774 -5.20878 0 28.0115 0 0)
(31.7643 -5.96363 0 27.4367 0 0)
(37.3765 -6.68618 0 26.8316 0 0)
(42.69 -7.37165 0 26.2141 0 0)
(47.6119 -8.01149 0 25.587 0 0)
(52.0918 -8.60154 0 24.9636 0 0)
(56.098 -9.13385 0 24.3435 0 0)
(59.6304 -9.60649 0 23.7358 0 0)
(62.6927 -10.0119 0 23.1386 0 0)
(65.3126 -10.3505 0 22.5617 0 0)
(67.5306 -10.6175 0 21.9956 0 0)
(69.2993 -10.8151 0 21.4209 0 0)
(0.269565 -0.304011 0 18.1847 0 0)
(2.11308 -0.918089 0 18.5284 0 0)
(5.23572 -1.55131 0 17.9785 0 0)
(9.53455 -2.23311 0 17.7728 0 0)
(14.5901 -2.89626 0 17.5301 0 0)
(20.1315 -3.54536 0 17.246 0 0)
(25.8924 -4.17566 0 16.9262 0 0)
(31.6537 -4.78384 0 16.5838 0 0)
(37.2403 -5.36335 0 16.2225 0 0)
(42.5285 -5.91069 0 15.8531 0 0)
(47.4278 -6.41859 0 15.477 0 0)
(51.8867 -6.88469 0 15.1025 0 0)
(55.8771 -7.30214 0 14.7295 0 0)
(59.3967 -7.67067 0 14.3633 0 0)
(62.4538 -7.98445 0 14.0034 0 0)
(65.071 -8.24407 0 13.6549 0 0)
(67.2921 -8.44868 0 13.3135 0 0)
(69.0883 -8.59907 0 12.9672 0 0)
(0.269217 -0.227832 0 9.86745 0 0)
(2.11082 -0.689993 0 10.0507 0 0)
(5.21849 -1.17655 0 9.75395 0 0)
(9.49107 -1.70542 0 9.65173 0 0)
(14.5164 -2.21904 0 9.5275 0 0)
(20.0244 -2.71876 0 9.37852 0 0)
(25.7483 -3.20024 0 9.20809 0 0)
(31.4717 -3.66099 0 9.02414 0 0)
(37.019 -4.09526 0 8.82869 0 0)
(42.2701 -4.50149 0 8.62799 0 0)
(47.1334 -4.87407 0 8.42265 0 0)
(51.5623 -5.21315 0 8.21783 0 0)
(55.5273 -5.51294 0 8.01298 0 0)
(59.0306 -5.77563 0 7.81204 0 0)
(62.0795 -5.9951 0 7.61406 0 0)
(64.6957 -6.17491 0 7.42306 0 0)
(66.9205 -6.318 0 7.23658 0 0)
(68.75 -6.42005 0 7.04867 0 0)
(0.268069 -0.154515 0 4.47931 0 0)
(2.08396 -0.496958 0 4.57481 0 0)
(5.15721 -0.850831 0 4.4498 0 0)
(9.39025 -1.22657 0 4.41422 0 0)
(14.3899 -1.58306 0 4.36322 0 0)
(19.8725 -1.92487 0 4.29888 0 0)
(25.5698 -2.2494 0 4.22168 0 0)
(31.2672 -2.55438 0 4.13532 0 0)
(36.7915 -2.83821 0 4.04242 0 0)
(42.0219 -3.10207 0 3.94675 0 0)
(46.8685 -3.34303 0 3.84909 0 0)
(51.288 -3.56195 0 3.75214 0 0)
(55.2473 -3.75507 0 3.6554 0 0)
(58.7565 -3.92447 0 3.56157 0 0)
(61.812 -4.06401 0 3.46905 0 0)
(64.447 -4.17901 0 3.38172 0 0)
(66.669 -4.26948 0 3.29661 0 0)
(68.5266 -4.33952 0 3.21253 0 0)
(0.255182 -0.0880157 0 1.41885 0 0)
(2.06802 -0.312873 0 1.4845 0 0)
(5.20568 -0.525036 0 1.44451 0 0)
(9.49717 -0.733038 0 1.43137 0 0)
(14.5503 -0.922813 0 1.41129 0 0)
(20.0841 -1.10515 0 1.38805 0 0)
(25.8377 -1.28155 0 1.36145 0 0)
(31.5942 -1.44946 0 1.33217 0 0)
(37.1801 -1.60722 0 1.30122 0 0)
(42.4695 -1.75465 0 1.26966 0 0)
(47.3756 -1.89025 0 1.23789 0 0)
(51.8475 -2.01404 0 1.20653 0 0)
(55.8566 -2.12398 0 1.17553 0 0)
(59.4055 -2.22074 0 1.14561 0 0)
(62.4943 -2.30021 0 1.11639 0 0)
(65.1607 -2.36639 0 1.08995 0 0)
(67.3825 -2.41898 0 1.06477 0 0)
(69.2321 -2.45845 0 1.03786 0 0)
(0.245868 -0.0252758 0 0.141631 0 0)
(2.06583 -0.0976401 0 0.153397 0 0)
(5.18453 -0.165248 0 0.150615 0 0)
(9.44515 -0.23037 0 0.149447 0 0)
(14.4795 -0.29316 0 0.147147 0 0)
(20.0006 -0.353398 0 0.144423 0 0)
(25.7475 -0.412133 0 0.141428 0 0)
(31.5016 -0.468559 0 0.138302 0 0)
(37.0944 -0.521838 0 0.135084 0 0)
(42.4016 -0.571789 0 0.131836 0 0)
(47.338 -0.618102 0 0.128583 0 0)
(51.8506 -0.660751 0 0.125386 0 0)
(55.913 -0.69916 0 0.122247 0 0)
(59.5204 -0.733184 0 0.119228 0 0)
(62.6793 -0.76209 0 0.116407 0 0)
(65.4225 -0.787321 0 0.114074 0 0)
(67.7342 -0.805525 0 0.112004 0 0)
(69.6615 -0.814817 0 0.111622 0 0)
(0.024467 0.0357293 0 0.71644 0 0)
(0.267076 0.099003 0 0.677567 0 0)
(0.784881 0.180724 0 0.670415 0 0)
(1.53776 0.294638 0 0.661203 0 0)
(2.48407 0.423475 0 0.659602 0 0)
(3.60564 0.568081 0 0.656332 0 0)
(4.88051 0.714942 -2.38229e-19 0.654362 -6.46971e-20 1.47683e-37)
(6.30584 0.865657 2.42288e-19 0.65005 6.89877e-20 1.48133e-37)
(7.87494 1.01243 0 0.644037 0 0)
(9.58583 1.15967 2.44828e-19 0.636465 6.84066e-20 1.45915e-37)
(11.4333 1.30353 0 0.627887 0 0)
(13.4114 1.44625 0 0.618803 0 0)
(15.5135 1.58322 0 0.61086 0 0)
(17.7333 1.71478 -2.7751e-19 0.604406 -5.15797e-20 1.34578e-37)
(20.0645 1.83776 0 0.598208 0 0)
(22.5077 1.95126 0 0.592994 0 0)
(25.0631 2.05107 3.40586e-19 0.588715 3.89888e-20 1.21945e-37)
(27.7293 2.13886 0 0.584283 0 0)
(30.5014 2.21722 0 0.579639 0 0)
(33.3736 2.28839 0 0.575213 0 0)
(36.3301 2.35142 -4.56118e-19 0.571892 -1.95969e-20 1.01665e-37)
(39.3613 2.4071 0 0.568141 0 0)
(42.4536 2.45353 -5.1567e-19 0.565888 -1.03425e-20 9.24213e-38)
(45.5979 2.49055 0 0.567094 0 0)
(48.7778 2.52427 0 0.567858 0 0)
(51.9795 2.54733 -6.03581e-19 0.570029 1.17184e-21 7.96895e-38)
(55.196 2.54951 0 0.571862 0 0)
(58.4313 2.53211 6.57137e-19 0.570348 -6.89641e-21 7.20967e-38)
(61.6796 2.50112 0 0.562513 0 0)
(64.9464 2.45841 -7.01833e-19 0.552149 1.04498e-20 6.53353e-38)
(68.2304 2.40655 0 0.53864 0 0)
(71.5189 2.348 0 0.522894 0 0)
(74.8044 2.28262 0 0.508956 0 0)
(78.0884 2.20671 0 0.497672 0 0)
(81.3644 2.11966 0 0.486196 0 0)
(84.6293 2.02437 7.78998e-19 0.475343 -1.40021e-20 4.59453e-38)
(87.8815 1.9207 0 0.463773 0 0)
(91.1221 1.8085 -1.56134e-18 0.447808 2.71801e-20 1.61205e-37)
(94.3495 1.68932 0 0.432281 0 0)
(97.5587 1.56209 1.55154e-18 0.417707 -2.62048e-20 1.39818e-37)
(100.743 1.42939 0 0.402625 0 0)
(103.902 1.28759 0 0.390962 0 0)
(107.025 1.13758 -1.51381e-18 0.378323 2.16181e-20 1.11153e-37)
(110.096 0.985174 0 0.365417 0 0)
(113.101 0.830535 -1.47544e-18 0.354598 1.83414e-20 9.42389e-38)
(116.024 0.672465 1.45306e-18 0.345781 -1.66217e-20 8.65551e-38)
(118.85 0.508357 0 0.339567 0 0)
(121.571 0.33819 1.40242e-18 0.334634 -1.2565e-20 7.3349e-38)
(124.17 0.162943 1.37429e-18 0.33078 -1.06836e-20 6.78879e-38)
(126.648 -0.0147074 0 0.327569 0 0)
(128.989 -0.193805 0 0.325387 0 0)
(131.175 -0.377084 0 0.322625 0 0)
(133.185 -0.565332 0 0.321355 0 0)
(134.997 -0.755865 0 0.323372 0 0)
(136.587 -0.945388 -1.17421e-18 0.327574 -4.3819e-21 5.01117e-38)
(137.924 -1.13637 0 0.331679 0 0)
(138.997 -1.33206 1.07966e-18 0.335387 1.14647e-20 4.74651e-38)
(139.809 -1.5344 0 0.340648 0 0)
(140.356 -1.74307 0 0.347455 0 0)
(140.623 -1.94906 -9.11927e-19 0.356724 -2.24343e-20 4.7477e-38)
(140.604 -2.15328 0 0.36865 0 0)
(140.283 -2.35835 7.8074e-19 0.380666 3.12193e-20 4.96472e-38)
(139.667 -2.56232 0 0.390968 0 0)
(138.751 -2.76629 0 0.403759 0 0)
(137.546 -2.96945 0 0.417997 0 0)
(136.063 -3.16551 -4.82975e-19 0.432542 -4.75287e-20 6.03041e-38)
(134.307 -3.35447 0 0.447111 0 0)
(132.29 -3.53697 0 0.460176 0 0)
(130.023 -3.71247 -2.27364e-19 0.474086 -6.11908e-20 7.29864e-38)
(127.524 -3.88624 0 0.489978 0 0)
(124.829 -4.05184 -5.15471e-20 0.505301 -6.98931e-20 8.29664e-38)
(121.951 -4.20422 0 0.520235 0 0)
(118.908 -4.34525 0 0.536431 0 0)
(115.733 -4.47673 0 0.553702 0 0)
(112.45 -4.5985 -3.0456e-19 0.571684 8.31234e-20 1.04504e-37)
(109.075 -4.7082 0 0.589672 0 0)
(105.626 -4.80247 0 0.607443 0 0)
(102.114 -4.88149 -5.64002e-19 0.625379 9.02684e-20 1.20121e-37)
(98.5512 -4.94965 -6.4585e-19 0.64403 9.18141e-20 1.25229e-37)
(94.9646 -5.00665 0 0.662727 0 0)
(91.3847 -5.05168 -7.98979e-19 0.682356 9.45892e-20 1.34646e-37)
(87.832 -5.0854 0 0.70346 0 0)
(84.3272 -5.10726 -1.87767e-18 0.724985 1.92491e-19 5.7424e-37)
(80.8845 -5.11617 0 0.747608 0 0)
(77.5218 -5.11059 -2.12267e-18 0.770161 1.9362e-19 6.07409e-37)
(74.2574 -5.08872 0 0.79309 0 0)
(71.1059 -5.05389 2.32536e-18 0.819017 -1.93762e-19 6.36435e-37)
(68.0848 -5.00585 0 0.844012 0 0)
(65.2083 -4.93922 0 0.866311 0 0)
(62.4763 -4.85379 0 0.888995 0 0)
(59.8928 -4.75171 -2.58632e-18 0.913993 1.86173e-19 6.79848e-37)
(57.4639 -4.63537 0 0.938575 0 0)
(55.1987 -4.50301 2.64725e-18 0.962828 -1.79898e-19 6.94577e-37)
(53.0999 -4.35444 0 0.986576 0 0)
(51.1565 -4.18368 -2.65922e-18 1.01015 1.73557e-19 7.03433e-37)
(49.3635 -3.9962 -2.65006e-18 1.03144 1.70333e-19 7.06948e-37)
(47.7085 -3.79605 -2.63103e-18 1.05268 1.66159e-19 7.09611e-37)
(46.1877 -3.58697 0 1.07506 0 0)
(44.7743 -3.36786 0 1.09813 0 0)
(43.4785 -3.1395 0 1.11767 0 0)
(42.2811 -2.90212 0 1.13758 0 0)
(41.1784 -2.66312 0 1.15743 0 0)
(40.1514 -2.4235 0 1.17649 0 0)
(39.197 -2.18129 0 1.19159 0 0)
(38.269 -1.93778 0 1.20761 0 0)
(37.3652 -1.7013 2.02536e-18 1.22299 -1.31487e-19 7.07376e-37)
(36.4524 -1.47301 1.91145e-18 1.24013 -1.24226e-19 7.06754e-37)
(35.5554 -1.25415 0 1.25182 0 0)
(34.6402 -1.04397 0 1.2649 0 0)
(33.7153 -0.857492 0 1.27898 0 0)
(32.7316 -0.681644 1.35475e-18 1.29144 -1.04642e-19 6.90946e-37)
(31.7882 -0.531408 0 1.29863 0 0)
(30.7777 -0.388938 0 1.30853 0 0)
(29.8193 -0.286201 0 1.31871 0 0)
(28.8919 -0.202888 0 1.3319 0 0)
(28.0615 -0.152351 -4.39414e-19 1.34037 7.57119e-20 6.66039e-37)
(27.3614 -0.126186 0 1.34973 0 0)
(26.8218 -0.135252 0 1.36322 0 0)
(26.5314 -0.177981 -2.21964e-19 1.37112 -6.55415e-20 6.42605e-37)
(26.4858 -0.246557 4.49024e-19 1.38401 6.12324e-20 6.29986e-37)
(26.7369 -0.356519 0 1.40104 0 0)
(27.3437 -0.513001 9.11795e-19 1.41883 6.00872e-20 6.05159e-37)
(28.3643 -0.711051 0 1.43821 0 0)
(29.8665 -0.962596 -1.35321e-18 1.45516 -6.43446e-20 5.75476e-37)
(31.8659 -1.24877 0 1.47789 0 0)
(34.4338 -1.58376 0 1.50491 0 0)
(37.4699 -1.96073 0 1.53762 0 0)
(41.0809 -2.38859 0 1.57192 0 0)
(45.125 -2.8423 0 1.61011 0 0)
(49.6027 -3.34399 4.89688e-18 1.6524 2.04628e-19 1.97171e-36)
(54.4628 -3.88967 5.15201e-18 1.69858 2.30354e-19 1.93715e-36)
(59.7184 -4.47128 0 1.74712 0 0)
(65.1796 -5.07376 0 1.80275 0 0)
(70.7979 -5.70044 0 1.85798 0 0)
(76.4227 -6.31406 -5.69352e-18 1.91876 -3.52173e-19 1.91716e-36)
(81.833 -6.92897 0 1.98984 0 0)
(86.9898 -7.55061 0 2.06217 0 0)
(91.8339 -8.16533 0 2.13852 0 0)
(96.2837 -8.75615 -5.33452e-18 2.21697 -5.33382e-19 2.07197e-36)
(100.303 -9.32203 5.10095e-18 2.30192 5.83155e-19 2.13433e-36)
(103.716 -9.84549 0 2.39137 0 0)
(106.624 -10.3556 0 2.48401 0 0)
(109.001 -10.8102 4.08014e-18 2.57849 7.35318e-19 2.36605e-36)
(110.842 -11.2292 3.65043e-18 2.67184 7.84267e-19 2.45128e-36)
(111.999 -11.5736 0 2.77211 0 0)
(112.571 -11.8883 0 2.87204 0 0)
(112.452 -12.131 -2.0525e-18 2.97612 -9.45765e-19 2.71916e-36)
(111.774 -12.3559 1.42297e-18 3.07115 9.89401e-19 2.7979e-36)
(110.583 -12.5105 0 3.16801 0 0)
(108.679 -12.6109 0 3.26871 0 0)
(106.182 -12.645 -5.21912e-19 3.35969 1.11726e-18 3.06851e-36)
(103.055 -12.6251 0 3.45025 0 0)
(99.5795 -12.5673 0 3.53386 0 0)
(95.5981 -12.4187 -2.54899e-18 3.60641 1.20625e-18 3.30151e-36)
(91.3051 -12.1978 0 3.67847 0 0)
(86.6855 -11.8659 -3.83251e-18 3.74005 1.25736e-18 3.44472e-36)
(81.8042 -11.4491 0 3.79606 0 0)
(76.7022 -10.9147 0 3.83552 0 0)
(71.7618 -10.2815 0 3.85969 0 0)
(66.8822 -9.4837 5.87268e-18 3.87844 -1.2783e-18 3.68161e-36)
(62.2233 -8.56614 0 3.88192 0 0)
(58.0005 -7.49617 0 3.86998 0 0)
(54.54 -6.30672 0 3.84226 0 0)
(51.6827 -4.92901 0 3.80062 0 0)
(49.5922 -3.47157 0 3.75032 0 0)
(48.8785 -1.91701 0 3.6784 0 0)
(49.6974 -0.290365 6.01771e-18 3.58917 -1.10561e-18 3.73094e-36)
(51.7411 1.42219 5.60742e-18 3.49142 -1.05148e-18 3.71308e-36)
(55.4612 3.11154 0 3.37959 0 0)
(60.7024 4.74344 0 3.26122 0 0)
(67.4888 6.32465 0 3.13178 0 0)
(75.4097 7.79782 -3.05742e-18 3.00179 7.95956e-19 3.38649e-36)
(84.5307 9.10119 0 2.87361 0 0)
(94.0717 10.291 2.95732e-18 2.7387 -1.3513e-18 1.2377e-35)
(103.939 11.2495 -1.31371e-18 2.60809 1.21888e-18 1.16739e-35)
(113.568 12.0394 3.18783e-19 2.47615 1.1063e-18 1.10296e-35)
(123.218 12.6909 -2.02211e-18 2.35107 -1.01575e-18 1.03477e-35)
(131.338 13.2328 3.68128e-18 2.23178 9.23377e-19 9.78006e-36)
(139.231 13.7119 -5.2941e-18 2.12417 -9.05148e-19 9.01384e-36)
(142.998 14.405 0 2.06815 0 0)
(0.0183007 0.174054 0 6.08875 0 0)
(0.202616 0.387486 0 6.02693 0 0)
(0.629131 0.609132 1.31798e-19 5.85451 1.75625e-19 6.75747e-37)
(1.32626 0.853277 0 5.73397 0 0)
(2.26785 1.13209 -1.92723e-19 5.67429 -3.52677e-19 9.1828e-37)
(3.44339 1.43636 -1.84603e-19 5.64714 -4.40239e-19 9.71212e-37)
(4.83169 1.76052 -8.11693e-20 5.63168 -2.50718e-19 2.48616e-37)
(6.41848 2.10057 -6.95677e-20 5.61359 -2.69582e-19 2.60839e-37)
(8.1959 2.44923 0 5.58523 0 0)
(10.162 2.80201 -4.29752e-20 5.54265 -2.68449e-19 2.58986e-37)
(12.318 3.15013 0 5.49081 0 0)
(14.6622 3.49124 0 5.43125 0 0)
(17.1863 3.82017 9.64334e-20 5.36306 4.2297e-19 9.49538e-37)
(19.8911 4.13651 7.03131e-20 5.2913 1.86632e-19 2.33745e-37)
(22.7659 4.43052 -1.86864e-19 5.21626 -3.25967e-19 8.92163e-37)
(25.8049 4.7021 -2.52819e-19 5.13827 -2.81155e-19 8.6448e-37)
(28.9968 4.9527 -1.7158e-19 5.05417 -1.18513e-19 2.12396e-37)
(32.3352 5.18389 0 4.96367 0 0)
(35.8082 5.39408 0 4.8682 0 0)
(39.4073 5.58784 0 4.76574 0 0)
(43.1094 5.7643 -3.86373e-19 4.66105 -3.69901e-20 1.80088e-37)
(46.9057 5.9206 0 4.5567 0 0)
(50.7736 6.04844 1.6073e-18 4.45033 -1.5427e-20 1.54922e-36)
(54.7006 6.15151 0 4.34753 0 0)
(58.6697 6.2315 0 4.24253 0 0)
(62.6634 6.2886 7.73885e-19 4.13845 -5.74504e-20 1.56231e-37)
(66.654 6.31953 0 4.03261 0 0)
(70.6228 6.33355 -9.31791e-19 3.93214 8.15981e-20 1.45733e-37)
(74.5362 6.32426 -1.99107e-18 3.83235 1.81198e-19 5.56097e-37)
(78.3842 6.28651 1.07574e-18 3.72988 -9.85919e-20 1.36381e-37)
(82.1626 6.21739 0 3.62242 0 0)
(85.8713 6.12037 0 3.51746 0 0)
(89.497 5.99793 0 3.41451 0 0)
(93.0434 5.85134 -2.5739e-18 3.30671 2.22776e-19 4.70561e-37)
(96.5022 5.67513 -2.65221e-18 3.19944 2.2035e-19 4.54438e-37)
(99.8867 5.46949 -1.37231e-18 3.09855 1.07632e-19 1.10588e-37)
(103.205 5.23281 0 3.00677 0 0)
(106.45 4.96036 2.83565e-18 2.9188 -2.03222e-19 4.12241e-37)
(109.632 4.64998 0 2.83369 0 0)
(112.742 4.31085 -2.87262e-18 2.75225 1.8869e-19 3.8107e-37)
(115.79 3.94394 0 2.67207 0 0)
(118.771 3.55705 0 2.60009 0 0)
(121.692 3.15411 2.82653e-18 2.52938 -1.54419e-19 3.31283e-37)
(124.539 2.73244 0 2.46421 0 0)
(127.291 2.2854 8.15802e-18 2.40625 -3.94349e-19 2.68117e-36)
(129.947 1.8087 -2.68831e-18 2.3608 1.19464e-19 2.83348e-37)
(132.511 1.3066 0 2.33339 0 0)
(134.998 0.778879 -2.54884e-18 2.31722 9.1131e-20 2.51435e-37)
(137.394 0.218222 -2.46831e-18 2.31058 7.68485e-20 2.35881e-37)
(139.695 -0.368745 0 2.31265 0 0)
(141.881 -0.967288 0 2.32586 0 0)
(143.933 -1.56336 0 2.34073 0 0)
(145.835 -2.1478 0 2.3541 0 0)
(147.55 -2.72464 0 2.37765 0 0)
(149.065 -3.30234 1.88394e-18 2.4105 1.44899e-20 1.71773e-37)
(150.36 -3.88838 3.45248e-18 2.4538 7.1102e-20 6.54649e-37)
(151.414 -4.478 -1.64516e-18 2.50487 -5.5909e-20 1.59805e-37)
(152.237 -5.0859 0 2.56097 0 0)
(152.803 -5.69568 2.689e-18 2.62422 1.90321e-19 6.00349e-37)
(153.084 -6.28562 -1.17094e-18 2.69251 -1.13278e-19 1.46595e-37)
(153.108 -6.87163 0 2.76927 0 0)
(152.825 -7.45265 -9.79174e-19 2.85922 -1.48555e-19 1.49256e-37)
(152.248 -8.01194 0 2.95263 0 0)
(151.371 -8.56218 0 3.05384 0 0)
(150.192 -9.09497 -1.05052e-18 3.16116 -3.96431e-19 6.24697e-37)
(148.699 -9.59907 4.24071e-19 3.2733 2.14962e-19 1.63532e-37)
(146.926 -10.0939 -4.91705e-19 3.3929 -4.62015e-19 6.67568e-37)
(144.867 -10.567 2.14736e-19 3.51761 4.89098e-19 6.91375e-37)
(142.545 -11.0104 1.11586e-20 3.64196 2.54465e-19 1.82505e-37)