/*--------------------------------*- C++ -*----------------------------------*\
| =========                 |                                                 |
| \\      /  F ield         | OpenFOAM: The Open Source CFD Toolbox           |
|  \\    /   O peration     | Version:  dev                                   |
|   \\  /    A nd           | Web:      http://www.openfoam.org               |
|    \\/     M anipulation  |                                                 |
\*---------------------------------------------------------------------------*/
FoamFile
{
    version     2.0;
    format      ascii;
    class       volScalarField;
    object      k;
    location    "9.117";
}
// * * * * * * * * * * * * * * * * * * * * * * * * * * * * * * * * * * * * * //

dimensions      [0 2 -2 0 0 0 0];

internalField   nonuniform List<scalar> 
12225
(
8.31266
10.9186
7.84377
8.20575
5.9143
8.12546
6.16344
8.9665
6.84687
10.047
7.72166
11.5462
8.85675
13.5502
11.1846
13.7923
16.354
16.627
2.21042
6.36093
5.59734
6.37343
4.88911
5.89763
4.55565
5.82707
4.58306
5.9885
4.90737
6.33222
5.50827
6.11909
7.23725
5.62402
12.1444
13.1033
0.249669
2.04208
2.22102
3.25379
3.06834
3.49496
3.22313
3.4154
3.25312
3.15579
3.19498
2.88541
3.25145
2.44468
3.55461
1.98746
4.93128
4.72394
0.0304773
0.484407
0.730799
1.14781
1.48123
1.55858
1.82161
1.7475
2.00313
1.74948
1.98427
1.6243
1.85621
1.36908
1.76777
1.1891
2.10616
1.78395
0.00946915
0.116853
0.266666
0.391953
0.646772
0.694252
0.89924
0.887705
1.03356
0.939894
1.05787
0.898075
1.01019
0.805205
0.94285
0.760188
0.994112
0.888673
0.0136724
0.0672374
0.135626
0.184927
0.303995
0.339513
0.454069
0.464794
0.551659
0.52901
0.583444
0.529394
0.575177
0.513465
0.552188
0.503293
0.560054
0.580497
0.0259826
0.061165
0.105835
0.129413
0.192451
0.21373
0.28244
0.296214
0.351821
0.352572
0.380899
0.371629
0.386864
0.37808
0.384015
0.385041
0.391212
0.399803
0.0472967
0.0702386
0.10554
0.126158
0.17019
0.19001
0.231961
0.247386
0.281165
0.290324
0.306859
0.313662
0.315833
0.322441
0.319532
0.327743
0.325813
0.32815
0.0686567
0.109396
0.123362
0.141499
0.173691
0.195009
0.227295
0.246633
0.270439
0.285488
0.293068
0.305582
0.302651
0.311053
0.307768
0.313713
0.312591
0.312856
0.137
0.208826
0.206744
0.225385
0.221737
0.236686
0.248779
0.267671
0.280733
0.296662
0.299645
0.309374
0.306512
0.312594
0.310937
0.314834
0.314854
0.314838
0.247479
0.346911
0.34873
0.377604
0.368902
0.381759
0.368834
0.37569
0.360288
0.36293
0.350084
0.348733
0.337908
0.337961
0.336429
0.337016
0.338071
0.336407
0.568126
0.650889
0.630406
0.6453
0.619922
0.616991
0.58352
0.580293
0.553701
0.549903
0.522099
0.500527
0.470481
0.451108
0.439377
0.43406
0.428386
0.420156
1.0941
1.09656
1.03861
1.03888
0.973634
0.943794
0.866682
0.836325
0.775916
0.740705
0.685364
0.650204
0.609746
0.585955
0.561261
0.549942
0.531067
0.516805
1.83781
1.74465
1.58114
1.51341
1.36405
1.29424
1.20184
1.14357
1.06939
1.01023
0.93889
0.890147
0.837007
0.8033
0.761122
0.738417
0.700907
0.675658
3.23382
2.9655
2.72547
2.5351
2.27805
2.07143
1.87141
1.70655
1.55178
1.42203
1.2974
1.20066
1.10622
1.03701
0.961152
0.911825
0.847336
0.804974
4.94677
4.62016
4.03576
3.52103
3.05542
2.68053
2.36467
2.10721
1.88415
1.69935
1.53328
1.40036
1.27486
1.17881
1.08047
1.01195
0.931082
0.87691
6.65151
5.87516
4.78828
4.04922
3.45764
2.99198
2.61468
2.31087
2.05273
1.83957
1.65151
1.49902
1.35699
1.24715
1.13809
1.05987
0.972478
0.912566
6.96934
6.15015
4.96502
4.18497
3.56962
3.0844
2.69275
2.3771
2.10879
1.88676
1.69144
1.53299
1.38548
1.27105
1.15879
1.07773
0.988514
0.927295
6.55686
5.88794
4.82832
4.10295
3.51601
3.04647
2.6658
2.35843
2.09506
1.87619
1.684
1.52788
1.38126
1.26748
1.15561
1.07434
0.984911
0.924409
4.91146
4.61493
4.05974
3.61423
3.17795
2.79361
2.47047
2.2074
1.97527
1.77916
1.60723
1.46634
1.32889
1.22282
1.11612
1.0374
0.950315
0.89322
3.1438
3.0176
2.69813
2.44238
2.21554
2.02022
1.84826
1.71639
1.58787
1.46848
1.36346
1.27719
1.17054
1.08694
0.993754
0.92383
0.84199
0.791986
1.97122
1.9323
1.77443
1.65274
1.52594
1.42185
1.32345
1.24092
1.1554
1.07228
0.983548
0.911261
0.83662
0.782921
0.727404
0.68892
0.643725
0.615917
1.05674
1.10032
1.06459
1.03462
0.982558
0.911637
0.850027
0.804149
0.764372
0.730454
0.694911
0.667635
0.638161
0.617312
0.592724
0.576889
0.554261
0.540458
0.527944
0.588282
0.578519
0.559126
0.540933
0.54241
0.556218
0.569578
0.576829
0.579958
0.57982
0.577437
0.572229
0.566518
0.556056
0.547948
0.534409
0.525754
0.231611
0.265253
0.272816
0.300015
0.351974
0.413794
0.468359
0.508727
0.536081
0.553875
0.566229
0.572077
0.572534
0.571002
0.565717
0.559838
0.549859
0.543094
0.072868
0.111151
0.165594
0.247583
0.340674
0.431118
0.504921
0.555928
0.59005
0.614045
0.632938
0.646445
0.656017
0.658999
0.659363
0.658621
0.656324
0.653303
0.0180355
0.0873445
0.22035
0.392914
0.577138
0.736565
0.843868
0.904901
0.941866
0.969596
0.994576
1.01372
1.02587
1.02772
1.02865
1.03052
1.03213
1.03231
0.0356975
0.335309
0.92659
1.35222
1.72231
1.98844
2.10134
2.13213
2.12941
2.11617
2.10613
2.08674
2.05207
2.00753
1.97149
1.94555
1.902
1.86804
0.514865
2.83408
4.30379
4.71055
4.72172
4.49484
4.15704
3.8905
3.65684
3.47666
3.33015
3.21403
3.07655
2.9505
2.82334
2.69208
2.57138
2.47217
6.71137
11.0418
10.4929
8.66962
7.19031
6.37213
5.92125
5.70239
5.58163
5.49705
5.4168
5.32514
5.24753
5.17901
5.08486
4.98431
4.87871
4.73372
0.323499
0.215998
0.235625
0.278221
0.309631
0.335364
0.358637
0.393944
0.434127
0.475786
0.521024
0.576498
0.640766
0.717826
0.793284
0.86281
0.946223
1.0748
1.21968
1.34356
1.51065
1.7002
1.87124
2.0585
2.27268
2.47685
2.64743
2.85942
3.01542
2.9814
2.7466
2.28933
2.04228
1.91915
1.8669
1.87618
1.97479
2.11141
2.21072
2.34649
2.47298
2.51641
2.51627
2.49404
2.46998
2.40618
2.33457
2.43476
2.53998
2.60012
2.75009
3.06363
3.44244
3.68358
3.95372
4.60339
5.8578
7.05214
7.86259
8.52054
9.05275
9.44306
9.68634
9.80094
9.83689
9.71424
9.53864
9.30795
9.04184
8.74969
8.43945
8.11714
7.78998
7.47755
7.17057
6.8731
6.57816
6.29865
6.02456
5.77898
5.54451
5.31951
5.10467
4.89228
4.68307
4.4438
4.2576
4.05505
3.85406
3.65945
3.48676
3.30301
3.13151
2.96978
2.82103
2.68002
2.5475
2.43694
2.32226
2.20772
2.11379
2.02649
1.95498
1.89236
1.83492
1.77472
1.72836
1.69928
1.68194
1.65473
1.60318
1.52571
1.44643
1.37472
1.29415
1.20644
1.14765
1.09807
1.05941
1.0394
1.03109
1.01654
1.00837
1.05419
1.2009
1.40063
1.60028
1.86479
2.26063
2.68279
3.08155
3.45405
3.71632
4.20768
4.81553
5.26683
5.60267
5.90735
6.78606
8.7294
9.45232
7.91732
6.35374
6.48538
6.5206
5.79278
6.00055
6.3021
6.82864
7.39198
7.99298
8.91487
9.87579
10.5506
10.8542
10.9125
10.9029
11.0919
11.4938
11.514
12.1575
11.893
13.2678
12.8349
13.9249
16.8079
13.0288
10.4424
11.1927
10.1272
7.98305
7.55026
7.98697
7.84288
7.72066
7.36419
7.86303
8.73371
8.65901
9.83848
1.61928
0.596387
0.377865
0.376971
0.378434
0.365035
0.348566
0.341481
0.332984
0.327454
0.322864
0.313119
0.292723
0.279057
0.27512
0.273956
0.27464
0.278566
0.293409
0.305834
0.328307
0.373839
0.406486
0.464075
0.555829
0.640478
0.800593
0.997604
1.20832
1.55021
1.77574
1.7829
1.74991
1.64939
1.32955
1.11566
1.02934
0.979704
0.955931
0.955179
0.946492
0.900228
0.793814
0.737713
0.749339
0.843762
0.982805
1.02196
1.07534
1.20261
1.50265
2.49162
3.48782
3.76587
3.90097
4.09263
4.19735
4.04221
3.71697
3.40697
3.07852
2.76483
2.48193
2.25242
2.0529
1.91208
1.79756
1.70186
1.62074
1.56963
1.51541
1.48028
1.45113
1.42502
1.40202
1.37729
1.35041
1.33012
1.31619
1.30886
1.3025
1.28785
1.27527
1.25157
1.22544
1.20869
1.20018
1.18027
1.16215
1.1512
1.1415
1.12671
1.11625
1.10732
1.10237
1.09885
1.09591
1.10096
1.10576
1.10569
1.108
1.11323
1.12246
1.13209
1.14817
1.16047
1.17025
1.17122
1.16196
1.12801
1.07345
1.01834
0.976751
0.958868
0.959354
0.979882
0.977059
0.963248
0.954597
0.961581
0.988005
0.995618
0.978754
0.969257
1.0146
1.12856
1.20669
1.27271
1.37824
1.51858
1.65594
1.79507
1.8948
2.15698
2.73541
3.0428
3.39286
4.1362
5.36324
6.10552
4.79925
2.61922
2.45871
3.84821
3.12834
2.39469
2.78114
2.98224
3.39842
3.95748
4.55211
5.32847
6.31514
7.59671
8.89075
9.66591
9.81211
9.56767
8.49305
7.60472
7.29983
7.44544
7.85763
7.06816
7.26997
6.72844
5.60628
6.97924
8.97365
8.09549
5.4666
5.26147
5.6712
5.68277
5.62553
5.08673
5.36374
6.04731
5.90183
6.78391
4.07798
1.34604
0.734164
0.599449
0.475756
0.397107
0.353608
0.323593
0.289331
0.257203
0.230929
0.200818
0.183545
0.175097
0.173009
0.173568
0.174494
0.175706
0.178694
0.182076
0.187446
0.197154
0.204553
0.215327
0.23439
0.250188
0.282074
0.338273
0.402445
0.542294
0.702935
0.85454
0.999707
1.01653
0.989446
0.938026
0.82476
0.654147
0.562057
0.505114
0.475728
0.464576
0.470546
0.518479
0.676216
1.06661
1.41957
1.48362
1.76026
2.09981
2.2004
2.4455
2.57048
2.39987
2.14962
1.8564
1.51958
1.2977
1.02958
0.856294
0.698652
0.592536
0.518364
0.468623
0.441066
0.423615
0.412362
0.40544
0.40209
0.400847
0.401484
0.404675
0.409362
0.414145
0.418041
0.422375
0.428003
0.435891
0.443473
0.454067
0.462345
0.472838
0.481692
0.485396
0.487144
0.495904
0.507067
0.510304
0.516235
0.528589
0.538462
0.548882
0.559131
0.571071
0.584929
0.598806
0.6154
0.635715
0.657585
0.67737
0.69954
0.727781
0.761655
0.800603
0.845116
0.884581
0.925619
0.944059
0.945036
0.931322
0.897211
0.859212
0.833641
0.801971
0.787719
0.800027
0.859731
0.876787
0.854269
0.850059
0.882672
0.915749
0.917966
0.91194
0.89609
0.921438
0.962394
0.970143
0.968298
0.967326
0.986317
1.02782
1.13395
1.62496
2.03769
2.14819
2.43055
2.94093
3.62459
3.53366
2.20146
1.43308
1.46585
1.9758
1.6413
1.38773
1.52808
1.69013
1.97521
2.22382
2.42172
2.72284
3.09503
3.73575
4.64985
5.53218
6.21091
6.98933
7.38659
6.95832
5.83318
5.45348
5.4262
5.11132
5.15419
4.18928
3.97304
4.21511
6.09144
6.26989
4.32591
4.00164
4.25482
4.32138
4.23057
3.56742
3.57318
3.73868
4.05059
4.40804
7.29568
2.29771
1.10078
0.657317
0.465118
0.363484
0.309295
0.256472
0.209752
0.173723
0.150789
0.143202
0.143147
0.146154
0.149681
0.151743
0.15314
0.154151
0.156841
0.164448
0.172209
0.182222
0.189265
0.195918
0.2042
0.207959
0.213414
0.227054
0.245527
0.283217
0.348355
0.436974
0.530953
0.590395
0.616512
0.613792
0.588701
0.585564
0.545438
0.428251
0.39707
0.406577
0.465451
0.629779
1.06035
1.54938
1.65725
1.52641
1.61419
1.70163
1.6458
1.48428
1.19859
1.06883
0.821228
0.691737
0.521414
0.437742
0.351581
0.31363
0.286383
0.273783
0.268413
0.267043
0.272431
0.274837
0.279416
0.281627
0.284597
0.286578
0.288216
0.289923
0.291423
0.291905
0.291903
0.292129
0.294223
0.297589
0.301779
0.306844
0.310101
0.316062
0.322984
0.328723
0.334055
0.340809
0.352706
0.357378
0.3653
0.377171
0.386096
0.39828
0.41039
0.422754
0.438767
0.450432
0.467741
0.483749
0.50231
0.520373
0.540581
0.574105
0.624606
0.68309
0.725512
0.762977
0.812954
0.860067
0.875387
0.876508
0.857259
0.812211
0.789741
0.778216
0.762537
0.722126
0.713594
0.750956
0.781569
0.769306
0.78045
0.825595
0.817657
0.792218
0.796419
0.800509
0.800621
0.808439
0.777871
0.762481
0.773548
0.814811
1.00347
1.65652
1.96365
2.01346
2.03994
2.12434
2.51036
2.49365
1.60241
1.24771
1.22089
1.34384
1.25178
1.22664
1.35533
1.48389
1.7335
1.96122
2.0421
2.1115
2.18752
2.41075
2.90251
3.49715
4.02276
4.68823
5.40436
6.15416
5.79381
5.12951
4.43393
4.22459
4.06509
3.59705
3.52
3.34158
4.67504
5.45596
3.61478
3.45627
3.65107
3.75722
3.64726
2.94972
2.97633
3.2094
4.07384
4.02195
10.913
3.25591
1.21951
0.583949
0.331956
0.228604
0.17426
0.141242
0.125549
0.119112
0.119741
0.123261
0.128936
0.136942
0.140774
0.141097
0.141184
0.142368
0.147374
0.159812
0.170316
0.18143
0.192017
0.198955
0.204319
0.207827
0.212795
0.21869
0.224935
0.238806
0.270868
0.311784
0.356337
0.398059
0.423786
0.423754
0.408933
0.421172
0.468427
0.441756
0.40541
0.428469
0.547209
0.877137
1.43385
1.54286
1.34505
1.22553
1.13129
0.978927
0.856019
0.69608
0.555395
0.460697
0.355951
0.308522
0.264797
0.247209
0.239115
0.237962
0.245391
0.253223
0.260862
0.267057
0.274386
0.279793
0.284558
0.286565
0.287459
0.287824
0.286968
0.285178
0.283912
0.282149
0.278176
0.274585
0.270853
0.268218
0.267621
0.267824
0.268003
0.267628
0.268772
0.270582
0.275403
0.280529
0.29036
0.2986
0.30937
0.318746
0.326404
0.338185
0.35224
0.362601
0.379887
0.389687
0.407552
0.416941
0.433407
0.447716
0.458612
0.483136
0.515349
0.555803
0.597502
0.659254
0.713531
0.755144
0.793693
0.803584
0.783096
0.745119
0.727254
0.724369
0.711424
0.692324
0.653042
0.6447
0.665862
0.669123
0.690691
0.765448
0.769269
0.731032
0.723634
0.694387
0.631642
0.635428
0.654987
0.681166
0.709974
0.782924
1.04798
1.78799
1.95585
1.72243
1.57941
1.61386
1.81241
1.86191
1.49058
1.22095
1.09172
1.15039
1.15945
1.21689
1.37013
1.39879
1.43976
1.62993
1.68986
1.69463
1.71499
1.83293
2.07277
2.50655
2.94384
3.4176
3.91149
4.84624
5.39071
5.24597
4.20271
3.90018
3.44789
3.23444
3.3819
3.10669
3.93894
4.84526
3.49977
3.35969
3.43439
3.43024
3.3784
2.80112
2.68863
3.2354
4.2425
4.00201
14.5875
4.14648
1.26042
0.415175
0.182511
0.127769
0.113362
0.106959
0.104512
0.105905
0.110265
0.115197
0.121091
0.126807
0.132886
0.135168
0.13561
0.137791
0.145343
0.159323
0.173307
0.187118
0.199739
0.208747
0.215715
0.220727
0.226755
0.232435
0.236852
0.246531
0.266362
0.288816
0.316731
0.33876
0.347264
0.343488
0.335039
0.337445
0.362257
0.391512
0.389537
0.441643
0.616278
1.14261
1.46419
1.36151
0.956397
0.80712
0.696138
0.547188
0.451306
0.35558
0.295701
0.259995
0.236638
0.228747
0.226527
0.234706
0.241345
0.251816
0.267589
0.275633
0.2841
0.289876
0.294579
0.29754
0.298984
0.299673
0.299749
0.298839
0.295049
0.2924
0.28803
0.285621
0.28128
0.274706
0.270139
0.263986
0.261461
0.257896
0.256482
0.252085
0.247697
0.243791
0.24169
0.240624
0.241023
0.243351
0.248821
0.25496
0.265948
0.272168
0.288576
0.297518
0.31672
0.33028
0.351164
0.369889
0.384317
0.402807
0.411744
0.429805
0.439128
0.474071
0.510385
0.534356
0.58955
0.631971
0.643984
0.669735
0.702945
0.669162
0.638876
0.645359
0.63722
0.62284
0.606056
0.607131
0.60512
0.564745
0.546112
0.623178
0.737706
0.712412
0.673024
0.616405
0.546268
0.541637
0.596384
0.664092
0.702194
0.79017
1.21645
1.83892
1.78974
1.38669
1.2476
1.26839
1.46449
1.52996
1.39879
1.15419
1.00776
1.0466
1.12116
1.18632
1.31345
1.30475
1.26203
1.34793
1.43935
1.46608
1.48037
1.53339
1.66291
1.85763
2.14632
2.66267
2.97298
3.68036
4.40298
5.19487
4.17505
3.76425
3.23019
3.11039
3.3383
2.96421
3.30349
4.11598
3.50087
3.30504
3.35114
3.33028
3.1782
2.72594
2.67642
3.46022
3.68698
3.70995
17.9685
4.91289
1.29332
0.363728
0.144
0.103711
0.0982689
0.0983712
0.0990472
0.101661
0.105543
0.111153
0.117939
0.12305
0.130513
0.134232
0.135119
0.138429
0.148749
0.166084
0.18699
0.209157
0.229057
0.244278
0.254972
0.260705
0.270841
0.284278
0.292244
0.293399
0.298829
0.311134
0.327672
0.338191
0.336499
0.329787
0.331178
0.326796
0.319076
0.327967
0.357732
0.443172
0.702914
1.328
1.45365
1.06483
0.67122
0.537274
0.430213
0.326373
0.276748
0.240039
0.224414
0.217926
0.218503
0.228727
0.236674
0.258511
0.271125
0.278639
0.281655
0.283174
0.28386
0.283852
0.282529
0.280915
0.278852
0.277946
0.27761
0.277405
0.274962
0.273618
0.272695
0.271685
0.270682
0.264796
0.262172
0.254897
0.252223
0.248514
0.247005
0.24406
0.241287
0.237034
0.233121
0.226639
0.222461
0.213019
0.211189
0.209549
0.213703
0.215186
0.224329
0.231463
0.243226
0.256043
0.269747
0.292042
0.307546
0.339067
0.356745
0.375209
0.402918
0.411596
0.431834
0.454344
0.474887
0.492536
0.509319
0.534258
0.550428
0.552641
0.5579
0.571673
0.574529
0.564417
0.547087
0.547692
0.559716
0.532213
0.466463
0.471179
0.671454
0.696508
0.658045
0.58051
0.5263
0.506791
0.574854
0.665514
0.709606
0.833453
1.32135
1.80209
1.52428
1.14229
1.05632
1.09858
1.31704
1.41762
1.31639
1.02905
0.939061
1.01943
1.08555
1.04033
1.07189
1.09331
1.12666
1.23463
1.33807
1.37049
1.40216
1.43273
1.52168
1.61746
1.70909
2.01167
2.30929
2.90789
3.36677
4.60097
4.16268
3.69268
3.1858
3.0582
3.54637
3.09052
2.71499
3.46451
3.65479
3.28724
3.16122
3.17868
2.92691
2.65474
2.71787
3.51413
3.52805
3.13012
20.8023
5.72805
1.42355
0.361449
0.131937
0.0961564
0.0930684
0.095374
0.0970553
0.100084
0.104575
0.111384
0.117972
0.122212
0.129784
0.137692
0.142135
0.147878
0.163998
0.193099
0.225659
0.248594
0.262044
0.27504
0.286009
0.295777
0.311527
0.336343
0.369577
0.392102
0.39672
0.393789
0.380453
0.364907
0.349157
0.336833
0.335537
0.32722
0.312026
0.320217
0.361943
0.489145
0.967263
1.39885
1.32878
0.731879
0.470488
0.365343
0.285286
0.238991
0.219042
0.210779
0.209131
0.217974
0.228326
0.250889
0.26054
0.265652
0.268569
0.269618
0.262644
0.25531
0.249399
0.241267
0.234348
0.227336
0.222817
0.216754
0.213438
0.211545
0.210729
0.209261
0.209815
0.209781
0.211996
0.212109
0.213124
0.209344
0.208554
0.208535
0.210793
0.215449
0.221584
0.221895
0.220672
0.215085
0.212298
0.203125
0.196775
0.190284
0.188262
0.186835
0.187272
0.193095
0.1975
0.20973
0.215313
0.227426
0.243689
0.256673
0.282869
0.301343
0.330909
0.351831
0.375765
0.391396
0.401583
0.411128
0.415729
0.413667
0.423343
0.448708
0.457795
0.441865
0.453383
0.466285
0.446478
0.410839
0.424835
0.438088
0.403266
0.370639
0.486025
0.66459
0.641433
0.566442
0.521696
0.494041
0.548838
0.705118
0.754981
0.902943
1.36813
1.63948
1.304
0.976386
0.948133
0.994203
1.13676
1.2556
1.14234
0.923888
0.901467
0.950872
0.955381
0.897888
0.966824
0.976522
1.03883
1.17951
1.31921
1.32727
1.34676
1.3525
1.40023
1.53144
1.55881
1.69833
1.89158
2.32869
2.69355
3.58642
3.99285
3.49321
3.10265
2.94227
3.20266
3.21238
2.51312
3.08235
3.74733
3.04361
2.72934
2.9378
2.6735
2.70729
2.81605
3.77957
3.51132
3.00909
23.0789
6.35171
1.50677
0.357982
0.124566
0.0929306
0.0913269
0.0947206
0.0983828
0.102866
0.108276
0.116982
0.120889
0.12352
0.132245
0.149279
0.159502
0.169462
0.194869
0.231695
0.253124
0.262337
0.271934
0.286252
0.301831
0.326136
0.356985
0.385916
0.411595
0.432664
0.448948
0.460369
0.460716
0.450614
0.424091
0.394628
0.374313
0.354802
0.347443
0.370424
0.458877
0.76682
1.19811
1.31104
0.984979
0.479858
0.327741
0.259747
0.223301
0.207543
0.201784
0.202973
0.213039
0.232692
0.248127
0.254699
0.257395
0.25711
0.248624
0.241715
0.237843
0.234567
0.229451
0.224984
0.21898
0.210599
0.205324
0.197422
0.189267
0.185159
0.184288
0.182323
0.179432
0.17445
0.174044
0.174455
0.175456
0.174008
0.172674
0.167875
0.164795
0.165477
0.168298
0.173021
0.176748
0.177093
0.175524
0.175511
0.169133
0.16781
0.164625
0.165842
0.163723
0.168399
0.168871
0.173889
0.183912
0.187924
0.197913
0.209758
0.222904
0.233895
0.254178
0.270418
0.294957
0.313763
0.330931
0.338302
0.343744
0.361514
0.358451
0.353214
0.364239
0.357397
0.340877
0.348748
0.349515
0.314974
0.300188
0.321149
0.322331
0.304319
0.340501
0.559184
0.591016
0.538463
0.507763
0.477478
0.519964
0.754761
0.806977
0.944957
1.36173
1.46012
1.15085
0.909148
0.874119
0.879108
0.9541
1.02427
0.954227
0.854761
0.829985
0.828301
0.823626
0.818326
0.843001
0.87198
1.00721
1.16384
1.30364
1.319
1.33237
1.36131
1.31349
1.39671
1.45185
1.60958
1.67379
1.90161
2.24731
2.78481
3.48809
3.21049
2.93596
2.88003
3.04831
3.20527
2.59539
2.93407
3.66406
2.69811
2.38455
2.61959
2.58188
3.35916
3.12179
3.77252
3.33256
2.74094
24.1223
6.44985
1.4295
0.301692
0.111337
0.0915114
0.0908015
0.0942813
0.101352
0.109961
0.116859
0.124597
0.12877
0.129234
0.13972
0.158162
0.169793
0.180551
0.204383
0.238728
0.254628
0.262062
0.273493
0.288957
0.306892
0.33559
0.368742
0.396712
0.419704
0.439382
0.458497
0.477563
0.490791
0.496796
0.503819
0.505567
0.502263
0.503455
0.53003
0.611477
0.774463
0.98912
1.1365
1.02292
0.541059
0.319255
0.243792
0.211584
0.198307
0.193747
0.197638
0.206804
0.230011
0.241952
0.2471
0.248826
0.243735
0.240551
0.2385
0.237608
0.237313
0.235699
0.230607
0.224652
0.217777
0.206309
0.198079
0.190625
0.178685
0.168831
0.165657
0.16489
0.163819
0.161258
0.156432
0.156111
0.157337
0.158993
0.158568
0.154526
0.146858
0.141524
0.140559
0.141882
0.142731
0.145436
0.144135
0.146607
0.14531
0.146748
0.147875
0.14878
0.15012
0.150803
0.152617
0.155356
0.15786
0.16532
0.168071
0.173769
0.183542
0.189317
0.201623
0.207253
0.221679
0.237265
0.253448
0.270312
0.273392
0.282188
0.300235
0.296637
0.292072
0.291559
0.278643
0.267935
0.271494
0.26303
0.23762
0.245842
0.260731
0.259786
0.270876
0.383899
0.47735
0.455148
0.457165
0.44634
0.486435
0.762366
0.828691
0.965284
1.33826
1.3597
1.07375
0.882895
0.828986
0.79643
0.82799
0.864673
0.842523
0.82602
0.79999
0.779961
0.76733
0.766764
0.75191
0.812248
1.01345
1.19281
1.30973
1.32543
1.31317
1.35572
1.30362
1.31664
1.35586
1.47787
1.51632
1.65546
1.95902
2.24938
2.95415
2.90814
2.71201
2.69979
2.97751
3.0508
2.78744
2.92288
3.37658
2.63362
2.33529
2.31472
2.63039
4.38601
3.67444
3.71647
3.25681
2.73703
24.2373
6.36167
1.29721
0.255106
0.105457
0.0912191
0.0916293
0.0950062
0.10238
0.112262
0.11932
0.126123
0.13526
0.138492
0.144152
0.159837
0.172559
0.183153
0.20384
0.234738
0.251061
0.260126
0.272976
0.288777
0.306568
0.334088
0.364575
0.390371
0.41553
0.437311
0.456865
0.478022
0.494908
0.511932
0.534272
0.554967
0.579267
0.613401
0.664529
0.736776
0.836516
0.938222
0.88902
0.555813
0.323203
0.233459
0.201163
0.189778
0.186225
0.191071
0.200322
0.222419
0.235211
0.240224
0.24111
0.238644
0.237127
0.237673
0.239476
0.240272
0.240136
0.236098
0.22761
0.214892
0.198553
0.18095
0.168475
0.162909
0.152399
0.148026
0.145761
0.146942
0.147828
0.149077
0.14542
0.142514
0.141692
0.143389
0.143436
0.142085
0.136269
0.129909
0.128178
0.129955
0.129174
0.132622
0.132292
0.132636
0.135231
0.135141
0.139849
0.140172
0.140587
0.143016
0.141931
0.141619
0.142085
0.144158
0.147455
0.150102
0.158925
0.162111
0.167466
0.172148
0.175748
0.186022
0.194702
0.203932
0.219263
0.217451
0.226978
0.236471
0.22598
0.227672
0.239654
0.224809
0.220832
0.223962
0.215041
0.20808
0.22093
0.23653
0.239378
0.280534
0.379528
0.377317
0.385653
0.396651
0.444316
0.743819
0.88867
0.981036
1.29657
1.31416
1.05907
0.874743
0.788805
0.747702
0.762099
0.784079
0.789154
0.778442
0.772116
0.73202
0.718849
0.703012
0.699975
0.792429
1.09081
1.25281
1.31636
1.32028
1.29761
1.31722
1.29266
1.2987
1.295
1.3653
1.43989
1.48992
1.71544
1.9159
2.53952
2.65445
2.47332
2.5467
2.64374
2.67964
2.77361
2.90723
3.00281
2.63783
2.43838
2.27575
2.86375
4.38609
4.73927
3.59574
3.28227
2.89177
23.6784
6.35382
1.30501
0.259408
0.109286
0.096262
0.0965475
0.098236
0.103834
0.1133
0.121292
0.126576
0.136604
0.143706
0.147951
0.158612
0.171597
0.182632
0.195803
0.215389
0.233076
0.248482
0.264478
0.282278
0.296088
0.313587
0.337185
0.364664
0.398902
0.426232
0.449251
0.475084
0.49627
0.51841
0.54516
0.571834
0.604294
0.641294
0.684029
0.730505
0.778097
0.703871
0.516611
0.319647
0.227746
0.193538
0.182964
0.180766
0.184168
0.192699
0.21304
0.228512
0.234077
0.235686
0.234631
0.233568
0.236346
0.239116
0.240342
0.240693
0.238202
0.228384
0.209923
0.188458
0.172586
0.162903
0.149569
0.146196
0.141464
0.14002
0.139761
0.141462
0.14345
0.144924
0.143266
0.138768
0.135873
0.135853
0.136026
0.135307
0.130309
0.124681
0.122071
0.122339
0.123092
0.125214
0.128941
0.128601
0.132282
0.133219
0.136284
0.138146
0.13777
0.138766
0.1382
0.133409
0.134547
0.133316
0.13391
0.135143
0.139969
0.146843
0.147538
0.152945
0.153413
0.157371
0.163697
0.164484
0.173321
0.184391
0.181622
0.188198
0.186221
0.178517
0.186935
0.198831
0.185595
0.188261
0.209024
0.199726
0.201352
0.213689
0.222619
0.239356
0.303413
0.320374
0.333439
0.35229
0.396101
0.693616
0.935209
0.976469
1.21556
1.24393
1.05365
0.876787
0.771851
0.725883
0.731805
0.741942
0.743356
0.747422
0.735639
0.6909
0.668758
0.653368
0.675548
0.814464
1.17053
1.29392
1.33015
1.31869
1.30216
1.28373
1.25962
1.27672
1.26928
1.35725
1.39546
1.38942
1.55631
1.72944
2.24925
2.43523
2.27493
2.41779
2.39355
2.29591
2.64231
2.87523
2.68916
2.58955
2.59789
2.42397
3.35474
4.09705
5.38702
3.68365
3.56817
3.0047
22.3914
6.22984
1.29318
0.25927
0.116903
0.106507
0.107911
0.105586
0.105893
0.113622
0.123672
0.127605
0.135829
0.145553
0.149417
0.156674
0.164326
0.175222
0.183027
0.192388
0.206129
0.221024
0.241013
0.265183
0.281244
0.292778
0.314426
0.335814
0.364581
0.397386
0.43163
0.46471
0.4944
0.521049
0.54802
0.574432
0.603251
0.624175
0.642176
0.62311
0.554321
0.434041
0.317436
0.229284
0.194536
0.183755
0.180903
0.180592
0.185843
0.201391
0.220988
0.228968
0.231391
0.230651
0.23067
0.233205
0.236643
0.239043
0.239766
0.23939
0.23196
0.212606
0.192105
0.180335
0.169004
0.164954
0.151682
0.14465
0.142142
0.138461
0.141144
0.14393
0.148153
0.149013
0.147683
0.140791
0.136972
0.136018
0.135879
0.134938
0.13108
0.125196
0.122287
0.121596
0.122254
0.12389
0.127975
0.128855
0.132597
0.133663
0.13619
0.138183
0.13692
0.136969
0.136392
0.128046
0.125943
0.127262
0.125846
0.127883
0.130334
0.135223
0.139324
0.143046
0.145271
0.14559
0.149401
0.147577
0.149008
0.159465
0.157491
0.157743
0.169764
0.157624
0.159214
0.171345
0.170574
0.169664
0.188105
0.198902
0.193604
0.200124
0.21534
0.224295
0.258011
0.284895
0.29798
0.320432
0.357303
0.56023
0.929284
0.972951
1.1233
1.145
1.03978
0.884008
0.772399
0.726204
0.722417
0.709992
0.703422
0.709299
0.700554
0.659921
0.636349
0.623286
0.666481
0.890326
1.2417
1.32608
1.33366
1.30325
1.28965
1.24039
1.20443
1.24826
1.27156
1.34926
1.3121
1.36965
1.49921
1.63704
1.98424
2.24606
2.1285
2.29611
2.19774
2.02029
2.33908
2.7455
2.49435
2.56212
2.68891
2.87494
3.48038
3.83964
4.70897
4.5165
4.02323
3.04925
20.4986
5.89724
1.21468
0.25304
0.124416
0.112818
0.115602
0.116116
0.112281
0.115804
0.127328
0.131313
0.136129
0.145635
0.150898
0.158442
0.163029
0.171112
0.179184
0.185796
0.197015
0.20786
0.221585
0.23924
0.261352
0.284213
0.30464
0.323076
0.341736
0.360863
0.387354
0.418694
0.451403
0.475355
0.490464
0.501777
0.510534
0.501799
0.480413
0.43237
0.372984
0.300644
0.245216
0.2088
0.193153
0.18544
0.183363
0.184078
0.192585
0.211856
0.224008
0.228601
0.228882
0.229521
0.230995
0.232862
0.236503
0.238316
0.237569
0.234778
0.229225
0.212707
0.18831
0.176979
0.169417
0.168587
0.15982
0.145983
0.143362
0.137823
0.143496
0.1516
0.156102
0.158798
0.156238
0.14668
0.138603
0.137004
0.136609
0.135698
0.133428
0.128052
0.124527
0.123615
0.123775
0.124763
0.128922
0.129376
0.133152
0.134691
0.135547
0.137354
0.135234
0.13164
0.129276
0.124792
0.122958
0.123928
0.122834
0.12352
0.127832
0.130584
0.137468
0.140413
0.143125
0.142954
0.142938
0.144255
0.141841
0.145565
0.148596
0.14451
0.151742
0.156255
0.150072
0.156292
0.170364
0.164322
0.172263
0.196011
0.1929
0.196034
0.208723
0.218381
0.236654
0.266829
0.277929
0.299857
0.330204
0.461431
0.884705
0.990911
1.05321
1.06658
1.01228
0.883981
0.779992
0.729866
0.705712
0.686895
0.682537
0.673493
0.665163
0.627092
0.601833
0.60247
0.66896
1.01152
1.31492
1.37012
1.356
1.29639
1.27223
1.19755
1.15276
1.19774
1.25713
1.27054
1.26919
1.35204
1.43332
1.54107
1.79327
2.08481
1.98561
2.21427
2.05858
1.87549
2.14186
2.57462
2.40947
2.57601
2.97628
2.8908
3.40767
2.95855
3.62822
4.55725
4.16697
2.99456
18.1106
5.35696
1.17957
0.276377
0.150528
0.130238
0.122928
0.125654
0.12796
0.12425
0.130158
0.135732
0.137838
0.145029
0.151426
0.159075
0.164201
0.170595
0.178558
0.185069
0.194218
0.203144
0.213578
0.226234
0.240001
0.256474
0.274869
0.29671
0.319453
0.342888
0.365352
0.387421
0.407005
0.420115
0.426815
0.429289
0.418108
0.398314
0.376405
0.343988
0.306455
0.268393
0.237685
0.211393
0.198995
0.193789
0.192017
0.193355
0.202233
0.21691
0.224501
0.227834
0.228707
0.229725
0.230771
0.232942
0.235492
0.235449
0.233884
0.231304
0.2269
0.215724
0.191027
0.174287
0.16754
0.169697
0.1704
0.15321
0.144259
0.13793
0.142858
0.154258
0.157644
0.159505
0.156692
0.146712
0.136967
0.134192
0.133197
0.1333
0.132156
0.128115
0.124914
0.123105
0.123865
0.123874
0.128003
0.12846
0.131089
0.132216
0.129057
0.126712
0.124489
0.121748
0.122744
0.121392
0.122016
0.122758
0.122646
0.123025
0.127782
0.130101
0.137584
0.140676
0.142585
0.143116
0.141829
0.143418
0.141103
0.142661
0.146709
0.141571
0.144095
0.157009
0.14851
0.151682
0.169651
0.164635
0.16993
0.189884
0.194949
0.195314
0.205873
0.217874
0.230312
0.260885
0.270654
0.287231
0.313743
0.404933
0.769154
0.994914
1.02537
1.02503
0.98269
0.876398
0.783959
0.739651
0.69905
0.673915
0.648416
0.653369
0.645571
0.598657
0.573733
0.594128
0.71189
1.15497
1.38863
1.40523
1.3523
1.25208
1.23025
1.16966
1.11926
1.15811
1.23369
1.25934
1.2764
1.3083
1.36884
1.47898
1.66893
1.98274
1.9045
2.1773
1.9559
1.84921
2.06919
2.58516
2.48037
2.91398
2.95474
2.85727
3.25902
2.67395
2.84249
4.1785
3.79824
2.61419
15.5332
4.90285
1.1959
0.346528
0.207186
0.167888
0.141374
0.134997
0.134648
0.135566
0.135788
0.140564
0.143986
0.148673
0.15326
0.15878
0.165921
0.17266
0.18067
0.18797
0.195038
0.202902
0.210987
0.221222
0.231674
0.243148
0.256782
0.272401
0.290567
0.311322
0.333529
0.357608
0.380171
0.395364
0.404112
0.408519
0.401485
0.383695
0.363259
0.33703
0.304969
0.272767
0.246242
0.226392
0.219484
0.217844
0.214957
0.214704
0.21611
0.21918
0.222984
0.224838
0.226716
0.227667
0.228545
0.232147
0.232324
0.230875
0.23014
0.227201
0.218714
0.213617
0.196632
0.168194
0.160363
0.164994
0.176659
0.166192
0.146516
0.137365
0.140961
0.152642
0.157304
0.157203
0.152849
0.138137
0.125987
0.120831
0.120222
0.121596
0.123583
0.12272
0.121332
0.118079
0.118655
0.116653
0.11725
0.117283
0.116032
0.115692
0.11406
0.114521
0.116029
0.117733
0.121408
0.121072
0.122394
0.123817
0.124395
0.125448
0.129868
0.13268
0.13995
0.144664
0.144931
0.145869
0.144062
0.143031
0.143156
0.143604
0.145419
0.142697
0.143963
0.155681
0.150121
0.152477
0.16748
0.173975
0.171955
0.186075
0.201886
0.198906
0.206384
0.218984
0.230118
0.259689
0.269929
0.282515
0.30809
0.370464
0.634896
0.961652
1.01385
1.00971
0.969985
0.868742
0.78929
0.739655
0.70175
0.674571
0.64887
0.622617
0.60656
0.567524
0.553422
0.588617
0.773907
1.26629
1.44251
1.43117
1.30012
1.21529
1.20107
1.15397
1.11401
1.15626
1.2448
1.27205
1.26572
1.29508
1.34845
1.43683
1.58927
1.96691
1.86489
2.12957
1.88836
1.85281
2.0724
2.63963