/*--------------------------------*- C++ -*----------------------------------*\
| =========                 |                                                 |
| \\      /  F ield         | OpenFOAM: The Open Source CFD Toolbox           |
|  \\    /   O peration     | Version:  dev                                   |
|   \\  /    A nd           | Web:      http://www.openfoam.org               |
|    \\/     M anipulation  |                                                 |
\*---------------------------------------------------------------------------*/
FoamFile
{
    version     2.0;
    format      ascii;
    class       volScalarField;
    object      k_0;
    location    "9.117";
}
// * * * * * * * * * * * * * * * * * * * * * * * * * * * * * * * * * * * * * //

dimensions      [0 2 -2 0 0 0 0];

internalField   nonuniform List<scalar> 
12225
(
8.37042
11.1302
8.13936
8.66033
6.28761
8.77167
6.59526
9.8448
7.32348
11.1827
8.20355
13.0354
9.24689
15.5366
11.9266
15.5509
18.4604
15.318
2.23601
6.30835
5.54378
6.3047
4.87684
5.82728
4.57056
5.74317
4.61856
5.9045
4.95429
6.2563
5.53806
6.08858
7.20981
5.65056
11.6052
11.9782
0.26641
2.01188
2.197
3.2403
3.07105
3.47452
3.23112
3.39772
3.25878
3.14558
3.18042
2.88487
3.19013
2.46818
3.3903
2.01967
4.42124
3.86849
0.0335965
0.483103
0.730513
1.14406
1.47496
1.55349
1.80959
1.74553
1.98361
1.75095
1.95814
1.62949
1.81942
1.37767
1.69186
1.18284
1.88729
1.56413
0.0110228
0.120277
0.267908
0.393957
0.642579
0.691765
0.893542
0.88549
1.02356
0.938753
1.04342
0.898413
0.989187
0.805318
0.908192
0.751187
0.925903
0.83758
0.0153732
0.0689807
0.137023
0.186024
0.304623
0.339378
0.453526
0.464654
0.54938
0.528987
0.57794
0.529285
0.566708
0.512128
0.539251
0.498889
0.533969
0.568421
0.0279973
0.0635959
0.107937
0.131531
0.194695
0.215744
0.284305
0.298282
0.35223
0.354104
0.379845
0.37264
0.384642
0.378464
0.379992
0.384348
0.383109
0.394516
0.0506057
0.0727074
0.107901
0.128775
0.173014
0.19296
0.234656
0.250349
0.283442
0.292969
0.308564
0.315798
0.316805
0.32447
0.319885
0.329456
0.324907
0.327672
0.0735955
0.113298
0.12671
0.144668
0.176974
0.198197
0.230601
0.249877
0.273809
0.288401
0.296111
0.308202
0.304824
0.313811
0.309779
0.316566
0.314383
0.314892
0.146992
0.214242
0.2123
0.231011
0.226674
0.241795
0.253624
0.271876
0.285145
0.300342
0.303227
0.312779
0.309424
0.315937
0.313902
0.318273
0.317937
0.317764
0.264567
0.355958
0.357767
0.386233
0.377251
0.389962
0.376816
0.383513
0.367213
0.37002
0.355961
0.354485
0.34306
0.34343
0.341946
0.342869
0.343982
0.341896
0.604289
0.664465
0.643401
0.657612
0.630932
0.627679
0.592977
0.590484
0.562744
0.559626
0.529683
0.508399
0.478315
0.459427
0.447846
0.442921
0.436725
0.427964
1.15987
1.11178
1.05736
1.05602
0.985695
0.956548
0.87762
0.847413
0.786163
0.749989
0.694093
0.65905
0.618664
0.595431
0.570739
0.559387
0.539839
0.525292
1.9482
1.76221
1.60514
1.53357
1.3817
1.31163
1.21847
1.15894
1.0835
1.02294
0.950919
0.901971
0.848508
0.814526
0.771815
0.748578
0.709811
0.684248
3.43124
2.98992
2.76311
2.56398
2.30124
2.0911
1.88841
1.72126
1.56464
1.43328
1.30764
1.21013
1.11493
1.04495
0.96833
0.918234
0.852551
0.810134
5.25872
4.64437
4.06288
3.53913
3.0688
2.69144
2.37382
2.115
1.89075
1.70492
1.53812
1.40456
1.27847
1.18191
1.08316
1.01422
0.932701
0.878883
7.10589
5.86644
4.79585
4.05634
3.46208
2.99517
2.61707
2.31259
2.05378
1.84005
1.65165
1.49888
1.35666
1.24675
1.1377
1.05941
0.971723
0.912439
7.45368
6.13435
4.96832
4.18968
3.57166
3.08507
2.69259
2.37629
2.1074
1.88496
1.68949
1.53094
1.3834
1.26909
1.15699
1.07599
0.986622
0.926102
7.01992
5.87971
4.83527
4.10946
3.51895
3.04757
2.66583
2.35756
2.0934
1.87405
1.68168
1.52539
1.37868
1.26499
1.15326
1.07202
0.982516
0.922713
5.25718
4.60889
4.06656
3.6207
3.18057
2.79407
2.47005
2.20596
1.97273
1.77617
1.60406
1.4627
1.32507
1.21912
1.11246
1.03378
0.946783
0.890407
3.37139
3.01593
2.70076
2.44318
2.21408
2.01795
1.84618
1.71423
1.58463
1.465
1.36025
1.27285
1.16529
1.08145
0.98784
0.917719
0.836154
0.787126
2.10785
1.93266
1.77739
1.65578
1.52788
1.42316
1.32391
1.24019
1.15299
1.06839
0.978996
0.906347
0.831858
0.77864
0.723678
0.685566
0.640799
0.613512
1.13248
1.10364
1.06771
1.03743
0.983453
0.911647
0.850157
0.804341
0.764398
0.730137
0.694386
0.667093
0.637646
0.61688
0.592393
0.576568
0.553972
0.540151
0.565048
0.590598
0.57975
0.561269
0.543794
0.545457
0.559932
0.572472
0.57921
0.582036
0.581812
0.579013
0.573827
0.567917
0.557341
0.549045
0.535433
0.526498
0.248855
0.267148
0.274478
0.303462
0.356243
0.418905
0.473417
0.513276
0.540126
0.557576
0.569598
0.57501
0.57531
0.573493
0.56792
0.561893
0.551876
0.544938
0.0792032
0.113223
0.169026
0.252928
0.347091
0.437896
0.511177
0.561459
0.595177
0.619087
0.637964
0.651427
0.660795
0.663553
0.663865
0.663006
0.66066
0.657562
0.0202945
0.0909735
0.225532
0.401239
0.587359
0.746096
0.85175
0.911711
0.948636
0.976736
1.00188
1.02088
1.0325
1.03426
1.03502
1.03679
1.0384
1.03834
0.0365485
0.342453
0.934796
1.3652
1.74298
2.00942
2.1176
2.14583
2.1417
2.12751
2.11695
2.09535
2.05916
2.01433
1.97826
1.95189
1.90768
1.87282
0.459812
2.81753
4.2899
4.69387
4.71354
4.46709
4.13562
3.87263
3.64164
3.46471
3.32131
3.20744
3.07155
2.94648
2.81995
2.68995
2.57126
2.47306
6.78519
11.1885
10.6438
8.78263
7.29483
6.48125
6.04356
5.84094
5.7368
5.66673
5.60017
5.52068
5.45427
5.39517
5.30791
5.2125
5.10974
4.96414
0.337879
0.221336
0.240583
0.284067
0.315755
0.341382
0.364569
0.399885
0.43921
0.479224
0.522433
0.575232
0.635585
0.706849
0.774412
0.836694
0.915431
1.03781
1.17049
1.28505
1.44544
1.62243
1.78191
1.96282
2.16834
2.36001
2.52874
2.73866
2.87684
2.83823
2.58761
2.16824
1.95417
1.85428
1.82465
1.85387
1.97101
2.10967
2.21553
2.36266
2.49182
2.53239
2.53019
2.50391
2.47958
2.4056
2.31532
2.42327
2.53456
2.6145
2.78853
3.12951
3.52403
3.77058
4.05592
4.75225
6.04843
7.27097
8.09858
8.77291
9.31896
9.71758
9.96552
10.0812
10.1176
9.98703
9.80126
9.55979
9.2817
8.97744
8.65726
8.32462
7.98634
7.66331
7.34593
7.03869
6.73401
6.44524
6.16188
5.90742
5.66474
5.43229
5.21022
4.99106
4.77634
4.53016
4.3378
4.12974
3.92319
3.72264
3.5447
3.35606
3.1796
3.01304
2.85962
2.71415
2.57707
2.46176
2.34297
2.22392
2.12497
2.03287
1.95583
1.88752
1.82443
1.75836
1.70545
1.66941
1.64383
1.60889
1.55233
1.47305
1.39552
1.32807
1.25658
1.17994
1.12865
1.08528
1.05098
1.03438
1.03245
1.02309
1.01658
1.06346
1.213
1.41799
1.62126
1.88771
2.28322
2.70103
3.09727
3.46943
3.73721
4.23537
4.85274
5.31811
5.67401
6.02137
6.96422
8.97442
9.71436
8.17863
6.54546
6.63923
6.67587
5.95306
6.15821
6.4757
7.03155
7.62457
8.25663
9.22863
10.2428
10.9554
11.2652
11.2976
11.2282
11.3807
11.7703
11.815
12.5139
12.2857
13.6711
13.1756
14.1888
17.1542
13.5638
10.8864
11.6529
10.541
8.27098
7.79686
8.25856
8.08898
7.9448
7.5863
8.0988
9.01924
8.90865
10.0887
1.69629
0.612205
0.387991
0.387155
0.386992
0.371198
0.353991
0.34627
0.336951
0.33093
0.325492
0.314095
0.292756
0.279517
0.275745
0.274209
0.274566
0.278821
0.293571
0.30505
0.328737
0.37257
0.404158
0.465013
0.556061
0.64364
0.811746
1.00925
1.23158
1.57834
1.77718
1.77642
1.73891
1.61498
1.2829
1.09372
1.01754
0.970164
0.949105
0.949802
0.940574
0.889691
0.786609
0.73814
0.756398
0.863827
0.998967
1.03465
1.08192
1.21833
1.53475
2.56072
3.51484
3.77618
3.9116
4.08853
4.16896
4.00285
3.67083
3.36006
3.03348
2.72298
2.44362
2.21943
2.02514
1.88973
1.78189
1.69241
1.61602
1.56909
1.51626
1.48166
1.45337
1.42814
1.40581
1.38184
1.35526
1.33493
1.32116
1.31373
1.30739
1.29311
1.28064
1.25726
1.2312
1.21474
1.20614
1.18654
1.16845
1.15737
1.14771
1.13317
1.12273
1.11388
1.1089
1.10551
1.10245
1.10746
1.11248
1.11247
1.11471
1.11976
1.12883
1.13838
1.15461
1.1671
1.17752
1.17895
1.17033
1.13777
1.08399
1.02866
0.986403
0.966799
0.966459
0.987718
0.984924
0.971455
0.962393
0.968893
0.995309
1.00314
0.986436
0.977409
1.02404
1.13925
1.21738
1.28563
1.39487
1.53808
1.67713
1.8164
1.9205
2.20205
2.78766
3.08692
3.43702
4.1835
5.40474
6.13839
4.86406
2.67471
2.49032
3.85959
3.17647
2.43134
2.8128
3.0222
3.44823
4.00664
4.60459
5.38949
6.3832
7.6729
8.97859
9.78871
9.95747
9.73781
8.69196
7.79099
7.43531
7.56232
7.9545
7.13732
7.30145
6.7481
5.68562
7.14455
9.1483
8.24001
5.55398
5.36113
5.76948
5.78311
5.72589
5.1604
5.46476
6.17251
6.01543
6.94825
4.28373
1.38026
0.755162
0.611578
0.481596
0.401317
0.357446
0.325883
0.289794
0.257021
0.230115
0.199881
0.183618
0.175973
0.17435
0.175132
0.175925
0.17719
0.180268
0.18365
0.18939
0.198974
0.206153
0.217431
0.235995
0.251774
0.285368
0.341219
0.409514
0.553658
0.710929
0.858552
0.988492
0.999067
0.969514
0.916385
0.79685
0.634294
0.551955
0.498273
0.472193
0.463943
0.473567
0.52922
0.70468
1.10843
1.43453
1.49638
1.78508
2.11237
2.21616
2.43962
2.5286
2.35451
2.10462
1.82003
1.49051
1.27164
1.00801
0.838154
0.685077
0.58182
0.510556
0.462818
0.437065
0.421136
0.411253
0.405353
0.402511
0.401445
0.402243
0.405516
0.410332
0.415337
0.419378
0.423834
0.429458
0.437362
0.44502
0.455667
0.463985
0.474556
0.483602
0.487474
0.489215
0.497867
0.509323
0.512693
0.518563
0.530889
0.540881
0.551389
0.561696
0.57365
0.587537
0.601462
0.618024
0.638261
0.660151
0.680026
0.702063
0.73009
0.763623
0.802367
0.846988
0.886612
0.928116
0.948672
0.950275
0.93757
0.904237
0.866192
0.840611
0.808625
0.792099
0.803244
0.864124
0.883518
0.861079
0.856845
0.888506
0.921578
0.924521
0.91917
0.904451
0.930824
0.970496
0.977714
0.974837
0.974442
0.996691
1.03932
1.1526
1.66962
2.06914
2.17137
2.45125
2.95042
3.6244
3.53589
2.21995
1.45005
1.47769
1.97526
1.65613
1.40207
1.53904
1.70487
1.99426
2.24586
2.44283
2.74269
3.11157
3.74272
4.64355
5.50317
6.19075
7.00648
7.46406
7.10245
5.97306
5.55134
5.4856
5.17245
5.21353
4.24679
4.0344
4.30568
6.17729
6.35158
4.3757
4.07226
4.32601
4.38904
4.29145
3.60449
3.62223
3.79722
4.12564
4.48649
7.67573
2.34811
1.11844
0.66114
0.466462
0.363076
0.307743
0.253436
0.207001
0.171673
0.149917
0.143628
0.144211
0.147806
0.151168
0.153103
0.15443
0.155424
0.158648
0.166869
0.174812
0.184826
0.191759
0.198634
0.2065
0.209988
0.215828
0.229948
0.248998
0.288108
0.354726
0.443049
0.531336
0.585069
0.606634
0.600753
0.575461
0.578066
0.529962
0.418178
0.395133
0.407913
0.474805
0.657079
1.11003
1.56764
1.64942
1.52732
1.61011
1.67906
1.6183
1.44659
1.16768
1.04143
0.797974
0.673496
0.508515
0.428464
0.345134
0.309346
0.284146
0.272679
0.268053
0.267055
0.272861
0.275599
0.280403
0.28277
0.285751
0.28777
0.289392
0.291078
0.292631
0.293128
0.293186
0.29339
0.295435
0.298762
0.302965
0.308098
0.311374
0.317285
0.324237
0.330047
0.335376
0.34206
0.354117
0.358827
0.366618
0.378532
0.387491
0.399697
0.411811
0.42421
0.440234
0.451942
0.469198
0.485256
0.503845
0.521969
0.542075
0.575162
0.625284
0.683879
0.726615
0.764028
0.813314
0.861605
0.878967
0.881061
0.862525
0.817261
0.794396
0.783427
0.76869
0.727558
0.718179
0.754594
0.787264
0.77563
0.78566
0.828906
0.821899
0.797747
0.803372
0.808993
0.808371
0.814547
0.781589
0.767065
0.780685
0.824482
1.0307
1.70139
1.98751
2.02358
2.04469
2.1298
2.50558
2.49333
1.61233
1.25568
1.23138
1.34848
1.25992
1.23497
1.36339
1.49473
1.75057
1.97728
2.05931
2.12443
2.19933
2.41845
2.90087
3.48556
4.01243
4.678
5.40476
6.20534
5.91186
5.24597
4.50421
4.28452
4.10703
3.64421
3.60443
3.40501
4.74152
5.51128
3.66032
3.50841
3.71583
3.8197
3.697
2.98166
3.02226
3.27017
4.16677
4.09394
11.489
3.30845
1.22302
0.574869
0.322767
0.222419
0.169761
0.138635
0.124359
0.11899
0.120483
0.124475
0.130473
0.138505
0.142016
0.142182
0.142295
0.143761
0.149707
0.162504
0.173061
0.184337
0.194925
0.201677
0.206746
0.210312
0.215639
0.221608
0.228012
0.243768
0.27701
0.316953
0.359518
0.398177
0.419643
0.416966
0.401401
0.416918
0.463113
0.43184
0.401099
0.432198
0.566481
0.920556
1.45794
1.53726
1.32367
1.20246
1.10847
0.954663
0.830993
0.673843
0.538837
0.447218
0.346886
0.302121
0.261403
0.245368
0.238465
0.237764
0.245602
0.253867
0.261828
0.268205
0.275623
0.281124
0.285987
0.288047
0.28891
0.289246
0.28841
0.28654
0.285234
0.283466
0.279503
0.27586
0.272105
0.269362
0.268676
0.268893
0.269045
0.268657
0.269868
0.271763
0.276589
0.281679
0.291566
0.299764
0.310539
0.320009
0.327633
0.339439
0.35348
0.363824
0.381097
0.390817
0.408704
0.417978
0.434432
0.44878
0.459643
0.484149
0.516207
0.556525
0.597881
0.659465
0.714089
0.756034
0.795683
0.806545
0.787375
0.750297
0.731153
0.728356
0.71665
0.698487
0.658151
0.648617
0.670125
0.675331
0.696647
0.769817
0.771319
0.735062
0.729521
0.700756
0.639484
0.641853
0.661487
0.685724
0.717042
0.795201
1.08108
1.82448
1.96682
1.71998
1.58181
1.61631
1.81301
1.85935
1.49599
1.22935
1.09848
1.15303
1.16765
1.22449
1.37412
1.40819
1.45287
1.64296
1.69921
1.70233
1.72369
1.83965
2.07463
2.49745
2.92772
3.41215
3.90199
4.84252
5.43367
5.35365
4.2878
3.97349
3.49691
3.28841
3.45515
3.16433
3.99697
4.87831
3.5561
3.42379
3.49603
3.48968
3.42543
2.83356
2.72895
3.31342
4.31362
4.06085
15.3328
4.19049
1.25281
0.40254
0.17581
0.125037
0.112463
0.106947
0.10498
0.106848
0.111452
0.116542
0.122546
0.128214
0.134163
0.13626
0.136696
0.139286
0.147674
0.161971
0.1764
0.190639
0.20331
0.212388
0.219652
0.224953
0.23131
0.237071
0.241708
0.252423
0.272132
0.294705
0.322071
0.341847
0.347365
0.341365
0.334075
0.336296
0.36107
0.384643
0.384944
0.450154
0.643011
1.18797
1.46843
1.33811
0.931048
0.785267
0.676598
0.530138
0.436409
0.344934
0.288242
0.255373
0.234372
0.2278
0.226382
0.235129
0.24237
0.253288
0.269215
0.277385
0.285804
0.29155
0.296181
0.299098
0.300524
0.301219
0.301273
0.300372
0.296597
0.293831
0.289377
0.286914
0.282556
0.275945
0.271339
0.265117
0.262506
0.258939
0.257475
0.253088
0.248624
0.24465
0.242491
0.241429
0.241855
0.244455
0.249907
0.256118
0.267059
0.273357
0.289774
0.298735
0.317982
0.331503
0.352348
0.371034
0.385262
0.403695
0.412493
0.430589
0.4398
0.474514
0.511014
0.535057
0.59008
0.633339
0.645811
0.671839
0.706199
0.673301
0.64271
0.649424
0.640836
0.62668
0.610045
0.610764
0.608551
0.568707
0.551888
0.629348
0.738828
0.715184
0.677257
0.620651
0.550138
0.546084
0.603991
0.669494
0.709404
0.803326
1.25739
1.86377
1.78635
1.38359
1.25013
1.27363
1.4704
1.53536
1.40265
1.15996
1.01329
1.05141
1.12829
1.19433
1.32181
1.31554
1.2728
1.36096
1.44951
1.4759
1.49221
1.54435
1.67236
1.85715
2.13306
2.64557
2.9599
3.66663
4.39342
5.27485
4.25968
3.84201
3.28965
3.16649
3.38878
3.01584
3.33911
4.1196
3.55933
3.36702
3.40929
3.38793
3.21297
2.76263
2.72157
3.53521
3.73846
3.74974
18.8208
4.95259
1.2808
0.354855
0.140832
0.103231
0.0986194
0.099039
0.0998508
0.102692
0.10673
0.112547
0.119361
0.124387
0.131754
0.135331
0.136339
0.140253
0.151766
0.170001
0.192002
0.214943
0.23496
0.250185
0.260731
0.266702
0.2779
0.292366
0.300977
0.302616
0.308026
0.319938
0.334741
0.34225
0.338324
0.330924
0.332529
0.326366
0.317542
0.327466
0.36143
0.455517
0.750301
1.35771
1.44769
1.02557
0.648424
0.519779
0.416188
0.316267
0.269683
0.235963
0.222328
0.217246
0.218516
0.229451
0.238215
0.260248
0.273186
0.280631
0.283543
0.284996
0.285619
0.285441
0.284025
0.282404
0.280363
0.279437
0.279138
0.27896
0.27651
0.275087
0.274053
0.273047
0.271954
0.266072
0.263326
0.256021
0.253255
0.249475
0.24793
0.24497
0.242033
0.237709
0.233734
0.22727
0.223109
0.213596
0.211776
0.210255
0.214489
0.21611
0.225305
0.23253
0.244354
0.257186
0.270962
0.293218
0.308766
0.340082
0.357669
0.375843
0.403401
0.412308
0.432423
0.454724
0.475745
0.493899
0.510815
0.53666
0.553436
0.55548
0.560554
0.575326
0.578292
0.56805
0.550481
0.552275
0.564032
0.536198
0.470988
0.47777
0.675646
0.69758
0.660188
0.583152
0.529343
0.510565
0.583725
0.671289
0.716468
0.851138
1.35887
1.82025
1.5116
1.13953
1.05979
1.10576
1.32618
1.42364
1.3204
1.03278
0.94379
1.02518
1.08958
1.05023
1.08237
1.10433
1.13702
1.24636
1.34859
1.38094
1.41344
1.44355
1.53105
1.6277
1.71027
2.00022
2.29804
2.89322
3.34533
4.59139
4.23659
3.76181
3.24279
3.11051
3.59319
3.14278
2.74119
3.46023
3.71948
3.33485
3.20565
3.2266
2.94887
2.69617
2.76526
3.5895
3.58056
3.16884
21.6782
5.76409
1.41191
0.351676
0.12917
0.0961511
0.0936435
0.0962357
0.0979671
0.10112
0.105788
0.112782
0.11935
0.123644
0.131328
0.139564
0.144467
0.15081
0.168699
0.199088
0.231715
0.253817
0.266883
0.279949
0.291081
0.301857
0.319408
0.34625
0.380551
0.402529
0.407559
0.403855
0.388131
0.370798
0.352672
0.339795
0.337742
0.326749
0.312321
0.322978
0.370801
0.517467
1.02925
1.40615
1.29512
0.69089
0.452192
0.352411
0.2768
0.234359
0.21646
0.209758
0.209018
0.218618
0.22991
0.253053
0.262487
0.267304
0.269954
0.270896
0.263821
0.25639
0.250498
0.242519
0.235683
0.228652
0.22413
0.218036
0.214675
0.212742
0.211905
0.210401
0.210949
0.210959
0.213076
0.213149
0.214109
0.210274
0.209461
0.209462
0.211746
0.216367
0.222477
0.22273
0.221313
0.215695
0.212753
0.203504
0.19714
0.190747
0.188713
0.187389
0.187943
0.193773
0.198394
0.21054
0.216285
0.228427
0.244647
0.25783
0.283796
0.302221
0.331692
0.352413
0.376467
0.392373
0.402497
0.412084
0.417438
0.415185
0.424003
0.45069
0.460986
0.445278
0.456739
0.47026
0.450741
0.415317
0.429357
0.442346
0.406706
0.375654
0.494779
0.666108
0.642966
0.568198
0.524182
0.497985
0.558791
0.712963
0.761927
0.9232
1.39888
1.64747
1.28935
0.974886
0.951642
0.998544
1.14308
1.25868
1.14424
0.928072
0.90668
0.956398
0.963638
0.906256
0.9743
0.983338
1.04894
1.19082
1.3263
1.33553
1.35608
1.36275
1.40647
1.53845
1.56753
1.70692
1.88935
2.31473
2.67845
3.55704
4.0266
3.53409
3.14769
2.98554
3.24871
3.25888
2.54643
3.09309
3.79285
3.08922
2.76017
2.97754
2.6927
2.75918
2.87026
3.87093
3.54848
3.03831
23.9266
6.35131
1.47961
0.346117
0.121652
0.0931381
0.0919245
0.0954888
0.0993546
0.104173
0.109895
0.11877
0.122391
0.124845
0.134325
0.151725
0.162067
0.172534
0.199188
0.235698
0.255766
0.264319
0.274205
0.288973
0.305432
0.331185
0.363033
0.392314
0.417777
0.438718
0.455511
0.467357
0.468619
0.45871
0.433125
0.405049
0.382282
0.361698
0.356853
0.388714
0.496505
0.829007
1.22019
1.28859
0.925426
0.452664
0.314974
0.251967
0.219304
0.2057
0.201215
0.203133
0.214274
0.234625
0.249913
0.256177
0.258593
0.258085
0.2496
0.242756
0.239142
0.236003
0.230922
0.226466
0.220461
0.211963
0.206606
0.198646
0.190416
0.186223
0.185328
0.183364
0.180461
0.17536
0.174983
0.175401
0.176372
0.174856
0.173462
0.168526
0.165491
0.166328
0.169228
0.17394
0.177542
0.177775
0.17612
0.175852
0.169432
0.168059
0.165027
0.166166
0.16415
0.168877
0.169387
0.174592
0.184524
0.188653
0.19876
0.210584
0.223824
0.234779
0.254887
0.271375
0.295646
0.314534
0.331797
0.339363
0.34482
0.362825
0.360176
0.354184
0.366164
0.360032
0.343398
0.351689
0.352942
0.318268
0.303979
0.324473
0.325845
0.307445
0.347305
0.564157
0.593093
0.540067
0.510362
0.481656
0.529596
0.769699
0.814494
0.963722
1.38622
1.4662
1.13842
0.909658
0.87724
0.882332
0.959057
1.02681
0.956565
0.858604
0.835192
0.833881
0.830855
0.824431
0.849824
0.880271
1.01872
1.17763
1.31287
1.32931
1.3425
1.37387
1.31937
1.40089
1.46016
1.62059
1.67477
1.8967
2.24065
2.75867
3.47514
3.23403
2.96702
2.91577
3.07645
3.24729
2.64406
2.96635
3.68209
2.73764
2.41758
2.63969
2.61627
3.45134
3.16537
3.8579
3.34836
2.76127
24.8104
6.42258
1.39046
0.286983
0.109371
0.091828
0.0914287
0.0950866
0.102315
0.111181
0.118191
0.12595
0.130293
0.130858
0.141645
0.159876
0.171652
0.182691
0.206494
0.240289
0.256017
0.263747
0.275568
0.291386
0.309766
0.338865
0.3721
0.400069
0.423103
0.442908
0.462198
0.48152
0.495126
0.502411
0.511862
0.516194
0.517944
0.525764
0.559649
0.647819
0.808717
1.01066
1.12134
0.970213
0.495606
0.304029
0.236665
0.208068
0.196773
0.193416
0.198023
0.208209
0.232062
0.243482
0.248242
0.249633
0.244528
0.241573
0.239783
0.239038
0.238853
0.237321
0.23219
0.226111
0.21912
0.207523
0.199169
0.19164
0.179613
0.169682
0.166511
0.165736
0.164653
0.162012
0.157195
0.156887
0.158114
0.159715
0.159264
0.155048
0.147326
0.142038
0.141135
0.142471
0.143388
0.146004
0.14471
0.14728
0.145812
0.14738
0.1483
0.149292
0.150539
0.151153
0.153057
0.155765
0.15841
0.165757
0.168594
0.174504
0.184165
0.190129
0.202236
0.20785
0.222617
0.238057
0.254245
0.270926
0.274044
0.283129
0.3014
0.298297
0.293818
0.29351
0.280657
0.269357
0.273675
0.265188
0.240005
0.248441
0.263067
0.262282
0.274625
0.391843
0.479878
0.457816
0.461287
0.450905
0.496347
0.78024
0.837885
0.982105
1.35818
1.36692
1.064
0.88363
0.831362
0.799775
0.832782
0.86929
0.847232
0.831269
0.805013
0.785053
0.773315
0.772067
0.758531
0.82335
1.02686
1.2053
1.31851
1.33583
1.32184
1.36631
1.312
1.32343
1.36168
1.48288
1.52156
1.65674
1.9536
2.23291
2.93643
2.92072
2.72819
2.72088
2.9992
3.07449
2.82394
2.96946
3.39421
2.6807
2.37422
2.33247
2.6779
4.34625
3.74848
3.7607
3.27751
2.76227
24.7216
6.34217
1.27256
0.248499
0.104948
0.0917501
0.0924302
0.095889
0.103304
0.113239
0.120386
0.127176
0.136485
0.140006
0.145535
0.161053
0.173918
0.184837
0.205556
0.235747
0.251908
0.261195
0.274268
0.290442
0.30854
0.33608
0.366292
0.392002
0.417605
0.439802
0.459673
0.481225
0.498444
0.516526
0.540045
0.562321
0.589201
0.626223
0.679208
0.750948
0.848243
0.92731
0.848332
0.508628
0.303259
0.226122
0.198077
0.188611
0.186092
0.191659
0.201773
0.224718
0.236604
0.241181
0.24189
0.239477
0.23823
0.238955
0.240968
0.241889
0.241758
0.237663
0.228981
0.215981
0.19942
0.18171
0.169191
0.163626
0.153101
0.148755
0.146546
0.147764
0.148632
0.149834
0.146027
0.143164
0.142401
0.144138
0.144118
0.142644
0.136676
0.130376
0.128763
0.130578
0.129712
0.133266
0.132723
0.133164
0.135763
0.135553
0.140508
0.140574
0.140991
0.143398
0.142146
0.141915
0.142414
0.144617
0.147868
0.150615
0.159372
0.162551
0.168172
0.172636
0.176484
0.186845
0.195368
0.204986
0.219772
0.218057
0.228099
0.237698
0.227316
0.229282
0.240904
0.226234
0.222219
0.225794
0.216075
0.208901
0.222356
0.238878
0.24175
0.286834
0.382776
0.37994
0.390188
0.402159
0.454387
0.766291
0.900055
0.993266
1.31383
1.32195
1.05047
0.874678
0.790818
0.75114
0.767513
0.789502
0.794932
0.78333
0.777553
0.736034
0.723975
0.70868
0.705482
0.804062
1.10779
1.26585
1.32511
1.32937
1.30689
1.32386
1.29879
1.30685
1.30108
1.37706
1.44869
1.49062
1.71238
1.91009
2.52645
2.65904
2.48118
2.5619
2.64939
2.6865
2.80059
2.95528
3.01558
2.68451
2.47668
2.31012
2.91298
4.31013
4.80092
3.6068
3.31362
2.9203
23.8265
6.3448
1.28293
0.253339
0.109312
0.0976132
0.0980214
0.0994258
0.104786
0.114183
0.122328
0.127525
0.137527
0.144867
0.149192
0.159497
0.172385
0.183731
0.196203
0.214773
0.23232
0.248204
0.264642
0.282843
0.296715
0.313611
0.336878
0.364514
0.39929
0.427577
0.451378
0.478125
0.500113
0.522839
0.55015
0.577432
0.610675
0.648389
0.691195
0.733664
0.765713
0.669497
0.480085
0.298698
0.220009
0.191079
0.182461
0.180982
0.184874
0.194078
0.21557
0.230035
0.235071
0.23652
0.235446
0.23459
0.237593
0.240573
0.2418
0.242185
0.239564
0.229406
0.21071
0.18917
0.173262
0.163497
0.150135
0.14676
0.142101
0.14072
0.140523
0.142283
0.144254
0.14568
0.143918
0.139352
0.1365
0.136479
0.136627
0.135826
0.130623
0.125062
0.122526
0.122861
0.123624
0.125797
0.129445
0.128985
0.132854
0.133675
0.136827
0.138575
0.138156
0.139171
0.138457
0.13362
0.134882
0.133532
0.134266
0.135523
0.140604
0.14725
0.147994
0.153505
0.153811
0.158055
0.164212
0.164995
0.174349
0.184947
0.182413
0.189337
0.18709
0.179423
0.188767
0.200132
0.186739
0.189773
0.210435
0.20052
0.202074
0.216001
0.224874
0.242712
0.307572
0.323041
0.337399
0.357352
0.405013
0.721783
0.948624
0.985416
1.22928
1.24898
1.04694
0.876055
0.773804
0.730154
0.737025
0.747381
0.749017
0.75334
0.740298
0.694645
0.673569
0.658628
0.682219
0.829828
1.18981
1.30703
1.34001
1.32772
1.312
1.28976
1.26042
1.28351
1.27889
1.37296
1.39833
1.3953
1.5627
1.73345
2.23457
2.43404
2.28131
2.42742
2.39944
2.29875
2.64531
2.92009
2.69396
2.63329
2.62882
2.48378
3.38855
4.10215
5.31329
3.75339
3.60162
3.00936
22.3316
6.21179
1.26991
0.253585
0.117192
0.107745
0.109215
0.10696
0.106774
0.11446
0.124744
0.128626
0.136702
0.146484
0.150509
0.157691
0.1649
0.175571
0.183476
0.192346
0.205784
0.220506
0.240364
0.264638
0.281306
0.293169
0.314771
0.335956
0.364244
0.396678
0.43159
0.465762
0.496953
0.524406
0.551613
0.57811
0.606498
0.623015
0.634266
0.602882
0.526727
0.408876
0.30005
0.222306
0.192831
0.183716
0.181419
0.181308
0.187247
0.203982
0.222857
0.230191
0.232307
0.231494
0.231624
0.234385
0.237941
0.240362
0.241085
0.240672
0.232967
0.213329
0.192669
0.180943
0.169622
0.165443
0.152002
0.145044
0.142623
0.13909
0.14199
0.144829
0.149013
0.149772
0.148339
0.141267
0.137579
0.136655
0.136501
0.135466
0.131434
0.125545
0.122745
0.122064
0.122791
0.124456
0.128565
0.129356
0.133215
0.134171
0.136775
0.138655
0.137292
0.137434
0.136713
0.12805
0.126245
0.127573
0.126117
0.12828
0.130701
0.13568
0.139718
0.143438
0.145564
0.145941
0.149899
0.147874
0.149412
0.16034
0.158152
0.158664
0.170194
0.157993
0.159774
0.172898
0.171327
0.170139
0.190457
0.200029
0.194405
0.201737
0.217581
0.226825
0.262411
0.287599
0.301799
0.324927
0.364703
0.588039
0.945416
0.983479
1.13339
1.14884
1.03601
0.88304
0.774201
0.730559
0.727179
0.714609
0.708418
0.715344
0.705397
0.662811
0.640873
0.628541
0.675201
0.909736
1.2608
1.33803
1.34324
1.31187
1.29767
1.24424
1.2046
1.25305
1.28227
1.35666
1.31392
1.38032
1.50578
1.63937
1.96862
2.2394
2.13161
2.30397
2.20575
2.02677
2.33516
2.76586
2.50405
2.60276
2.73737
2.92582
3.5003
3.80521
4.74861
4.55941
4.03986
3.05117
20.1891
5.87509
1.19203
0.249546
0.125542
0.114147
0.116996
0.117659
0.11393
0.116901
0.128411
0.132518
0.13704
0.146526
0.151788
0.159515
0.16398
0.171987
0.180083
0.186606
0.197623
0.208194
0.221524
0.238771
0.260823
0.284372
0.30481
0.323049
0.341575
0.360289
0.385943
0.416105
0.447755
0.470689
0.483827
0.492249
0.497544
0.485918
0.462679
0.415984
0.357622
0.289774
0.239709
0.207246
0.193064
0.186174
0.18438
0.185451
0.194847
0.214046
0.225382
0.229573
0.229748
0.230491
0.232046
0.233962
0.237703
0.239443
0.238601
0.235721
0.230091
0.213076
0.188594
0.177374
0.169936
0.169006
0.159771
0.146113
0.143603
0.138362
0.144552
0.152664
0.15705
0.159611
0.15676
0.146968
0.139088
0.137607
0.137218
0.136239
0.133871
0.128423
0.125005
0.124105
0.124312
0.125306
0.129589
0.129901
0.133854
0.135247
0.136148
0.13795
0.135561
0.132001
0.129633
0.125006
0.123276
0.124221
0.122976
0.123811
0.128162
0.130919
0.137878
0.140793
0.143457
0.143304
0.143361
0.144567
0.142098
0.14626
0.149112
0.144941
0.152708
0.156667
0.150584
0.157665
0.171295
0.165012
0.173951
0.197646
0.194264
0.197412
0.211174
0.220731
0.240198
0.269581
0.281409
0.303896
0.336396
0.48226
0.910343
1.00241
1.06248
1.0723
1.01177
0.882445
0.781693
0.733697
0.709634
0.691563
0.687785
0.678401
0.669943
0.629978
0.606492
0.606864
0.679921
1.03558
1.33315
1.3819
1.36602
1.30462
1.27914
1.20103
1.15484
1.20211
1.26289
1.27277
1.27833
1.35839
1.43581
1.54114
1.78257
2.07885
1.99004
2.2245
2.06912
1.88941
2.14667
2.60081
2.43644
2.6174
3.02088
2.93471
3.43606
2.96745
3.68375
4.57889
4.16944
2.98715
17.5893
5.34436
1.16745
0.278703
0.155106
0.13357
0.124486
0.127128
0.129553
0.125967
0.13125
0.136868
0.138846
0.145813
0.152394
0.160027
0.165272
0.171553
0.17956
0.186093
0.195216
0.204073
0.214266
0.226636
0.23995
0.255553
0.273728
0.295819
0.318625
0.342168
0.364431
0.386046
0.40502
0.41744
0.423407
0.42518
0.412647
0.391624
0.369087
0.337395
0.301197
0.265128
0.236052
0.211326
0.199989
0.195368
0.193824
0.195576
0.204645
0.218412
0.225523
0.228599
0.229516
0.230564
0.231574
0.233982
0.236419
0.236227
0.234651
0.232102
0.227477
0.215734
0.190815
0.174186
0.167832
0.170083
0.170465
0.152516
0.144118
0.138342
0.144013
0.155366
0.158547
0.160266
0.157095
0.146809
0.13727
0.134642
0.133681
0.133837
0.132619
0.128454
0.125358
0.123561
0.124435
0.124394
0.128752
0.129084
0.131761
0.132791
0.129309
0.127207
0.124932
0.122137
0.123184
0.121544
0.122239
0.123081
0.122808
0.123343
0.128136
0.130434
0.138066
0.141132
0.142997
0.143611
0.142337
0.143723
0.141686
0.143238
0.14722
0.142175
0.144916
0.157466
0.149289
0.152658
0.170849
0.165656
0.171299
0.192044
0.196368
0.196858
0.208354
0.22028
0.233406
0.264122
0.273714
0.291077
0.318886
0.419766
0.798851
1.00745
1.03477
1.03239
0.985151
0.875541
0.785639
0.742431
0.702689
0.677773
0.6523
0.658905
0.649643
0.600698
0.5781
0.601107
0.726361
1.18262
1.40469
1.41619
1.35883
1.259
1.23694
1.17507
1.12564
1.16739
1.24268
1.27043
1.28638
1.31511
1.3751
1.48079
1.66338
1.98726
1.91256
2.18913
1.96671
1.8655
2.08012
2.60572
2.50343
2.95898
2.9844
2.89581
3.30262
2.71078
2.90169
4.18865
3.80247
2.60264
14.8566
4.91615
1.19446
0.357098
0.216412
0.174432
0.145119
0.136891
0.136089
0.137457
0.137009
0.141757
0.145625
0.150069
0.154255
0.159569
0.167085
0.173868
0.18186
0.189234
0.196187
0.203968
0.211989
0.222098
0.232396
0.243627
0.257022
0.272347
0.290255
0.310797
0.332785
0.356617
0.378962
0.394016
0.402428
0.406461
0.399392
0.381371
0.360624
0.334347
0.302587
0.271668
0.246391
0.22834
0.222239
0.220607
0.217586
0.216857
0.217647
0.219973
0.223224
0.224902
0.226964
0.227941
0.229
0.232946
0.232884
0.231451
0.230764
0.227469
0.218746
0.213627
0.19531
0.167225
0.160246
0.165559
0.176519
0.164757
0.145705
0.137531
0.142049
0.153801
0.158102
0.157775
0.152833
0.137746
0.125956
0.121114
0.120654
0.122142
0.124032
0.123018
0.121664
0.118331
0.118992
0.116901
0.117558
0.11771
0.116414
0.116227
0.114414
0.114887
0.116389
0.117999
0.121701
0.121286
0.122576
0.124045
0.124423
0.125699
0.130253
0.133051
0.140463
0.145048
0.145341
0.146367
0.144632
0.143571
0.143679
0.14431
0.146174
0.143478
0.144718
0.15652
0.151003
0.153274
0.169127
0.17524
0.173275
0.188534
0.203614
0.200725
0.208912
0.221534
0.233139
0.263405
0.273008
0.286501
0.312601
0.380847
0.664665
0.977612
1.02289
1.0168
0.97382
0.869305
0.791299
0.742106
0.704885
0.678177
0.651956
0.626136
0.609758
0.570557
0.557609
0.59705
0.794187
1.29455
1.45722
1.44087
1.303
1.22257
1.20951
1.16166
1.12335
1.16814
1.25488
1.28129
1.2685
1.30576
1.35688
1.44048
1.59409
1.97399
1.87287
2.14305
1.89793
1.86665
2.08151