/*--------------------------------*- C++ -*----------------------------------*\
| =========                 |                                                 |
| \\      /  F ield         | OpenFOAM: The Open Source CFD Toolbox           |
|  \\    /   O peration     | Version:  dev                                   |
|   \\  /    A nd           | Web:      http://www.openfoam.org               |
|    \\/     M anipulation  |                                                 |
\*---------------------------------------------------------------------------*/
FoamFile
{
    version     2.0;
    format      ascii;
    class       volScalarField;
    object      p;
    location    "9.117";
}
// * * * * * * * * * * * * * * * * * * * * * * * * * * * * * * * * * * * * * //

dimensions      [1 -1 -2 0 0 0 0];

internalField   nonuniform List<scalar> 
12225
(
84459.4
84518.7
84661.3
84868.4
85114.1
85390.6
85682.2
85992.5
86293.4
86615
86922.5
87249.9
87556.5
87902.8
88204.4
88600.1
88942.8
89271.4
84469.1
84530.8
84673.9
84880.9
85126.5
85402.7
85694.6
86002.9
86306.7
86625.7
86934.7
87260.5
87566.8
87912.3
88207.8
88609.2
88945.3
89307.8
84495
84559.5
84703.1
84909.8
85155
85431.1
85722.8
86029.6
86335
86652.1
86961.7
87284.9
87593.1
87928.5
88234.7
88607.3
88944.7
89305
84541.3
84609.2
84753.5
84959.8
85204.5
85480.2
85771.5
86077.2
86383.3
86698.5
87008.4
87328.2
87637.4
87963.6
88274.7
88621.2
88958.5
89292.5
84612.2
84686.2
84831.1
85036.8
85280.8
85555.9
85846.7
86151
86457.3
86770.4
87080.1
87395.2
87704.8
88020.5
88336.2
88662.1
88991
89306.8
84720.8
84798.5
84943.4
85148.2
85391.4
85665.5
85955.4
86258.2
86564.1
86874.8
87183.7
87494.7
87803.4
88114.5
88427.5
88743.4
89052.2
89338.8
84877.3
84955.3
85099.6
85303.2
85545.6
85818.2
86107.1
86408.1
86712.9
87021.1
87328.6
87635.4
87941.5
88245.7
88552.2
88851
89143.6
89414.1
85054.6
85134.8
85278.9
85481.2
85722.9
85993.7
86281.6
86580.6
86884.3
87190
87495.5
87798.1
88100.5
88398.4
88695.8
88982.4
89260.6
89520.6
85248.7
85329.8
85473.9
85674.9
85915.7
86184.6
86471.4
86768.5
87070.7
87373.9
87676.8
87975.6
88273.8
88565.3
88853.8
89130.8
89397.8
89648.6
85510
85591.2
85734.6
85934.1
86173.4
86440.2
86725.3
87020
87320
87620.2
87919.7
88214.3
88506.5
88790.9
89069.7
89337.2
89593.1
89833.6
85860.5
85941.2
86084.1
86281.4
86518.5
86782.7
87065.3
87357.2
87654.1
87950.7
88245.7
88535
88819.9
89096.6
89365.2
89622.7
89867.4
90097.5
86336.4
86410.1
86551.9
86746.2
86980.7
87241.7
87520.9
87808.9
88101.8
88393.6
88682.8
88965.8
89242.5
89510.4
89768.9
90015.6
90249.2
90468.8
86960.6
87036
87176.7
87368
87599
87855.6
88130.2
88413.2
88700.5
88986.2
89268.4
89543.9
89811.7
90069.9
90317.4
90553
90775.6
90984.7
87795.6
87870.3
88009.3
88197.1
88423.2
88674.4
88942.7
89219.2
89499.2
89777.5
90051.2
90317.8
90575.4
90822.6
91058.6
91282.7
91494
91692.3
88897.3
88977.7
89114.7
89298.4
89518
89761.9
90021.7
90289.6
90560.3
90828.9
91092.3
91347.9
91593.9
91829
92052.5
92264.1
92463.1
92649.8
90371.5
90441.6
90573.2
90750.7
90961.5
91195.2
91443.8
91700.2
91958.6
92214.7
92465.2
92707.3
92939.6
93160.8
93370.2
93567.8
93753.2
93926.7
92269.1
92343.9
92471.6
92640.9
92840.2
93060.4
93294.3
93535.2
93777.6
94017.4
94251.4
94477
94692.6
94897.1
95089.9
95271.1
95440.5
95598.3
94525.5
94596.9
94715.9
94872.9
95057.7
95261.6
95477.9
95700.4
95924
96144.8
96359.8
96566.5
96763.2
96949.1
97123.5
97286.5
97438.1
97578.8
96781.3
96835
96940.3
97083.5
97253.3
97441.1
97640.2
97844.9
98050.4
98253.1
98450
98638.7
98817.5
98985.8
99143
99289
99424
99548.3
98768.8
98811.9
98905.9
99036.8
99193.3
99367.2
99551.7
99741.5
99932.2
100120
100302
100476
100640
100793
100936
101068
101189
101299
100445
100484
100570
100692
100838
101001
101174
101352
101531
101708
101878
102040
102192
102335
102466
102586
102695
102794
101802
101845
101929
102044
102183
102338
102503
102672
102843
103010
103171
103325
103469
103602
103724
103835
103935
104025
102881
102922
103003
103114
103248
103397
103555
103719
103883
104044
104199
104346
104483
104610
104725
104830
104923
105005
103700
103745
103825
103933
104063
104208
104363
104522
104682
104839
104989
105131
105264
105386
105496
105595
105683
105761
104309
104356
104435
104541
104668
104810
104962
105119
105275
105429
105576
105716
105845
105963
106070
106165
106250
106323
104748
104794
104871
104975
105100
105241
105390
105545
105700
105851
105997
106134
106260
106376
106481
106573
106655
106726
105052
105093
105167
105270
105394
105533
105682
105835
105989
106140
106283
106419
106544
106658
106761
106852
106932
107001
105249
105284
105356
105457
105581
105720
105868
106020
106173
106323
106466
106601
106725
106838
106940
107030
107109
107177
105363
105392
105461
105563
105686
105824
105972
106125
106277
106427
106569
106703
106827
106939
107040
107130
107208
107276
105415
105438
105507
105607
105730
105868
106016
106169
106321
106470
106612
106746
106869
106982
107082
107172
107250
107317
108023
108021
108015
108006
107993
107978
107961
107940
107918
107891
107859
107822
107781
107737
107686
107630
107567
107497
107418
107331
107236
107134
107024
106905
106776
106639
106493
106336
106168
105990
105800
105595
105379
105153
104916
104666
104404
104129
103841
103542
103232
102913
102586
102251
101908
101556
101203
100850
100488
100125
99756.2
99389.8
99025.1
98657.8
98288.8
97921.2
97555.1
97194.1
96821.1
96447.1
96072.8
95698.6
95324.7
94950.8
94576.7
94202
93826.1
93448.2
93067.8
92684.1
92296.6
91904.6
91507.9
91106
90699.1
90287.1
89870.4
89449.4
89024.8
88597.8
88169.7
87741.8
87315.7
86893.6
86477.5
86069.4
85671.3
85286
84915.3
84561.2
84225.9
83911.3
83618.9
83350.1
83106.2
82887.9
82695.6
82529.4
82389.3
82274.8
82184.7
82117.9
82072.7
82047.1
82039.3
82046.5
82066
82095.9
82134.6
82180.2
82231
82286.6
82346.8
82411.5
82484.7
82561.8
82644.7
82734.1
82831.6
82940.9
83057.5
83180.7
83319.4
83481.3
83669.7
83875.3
84091.6
84315.6
84551.7
84805.3
85085.1
85391.8
85727
86079.4
86441.2
86808.3
87181.4
87560.8
87938.5
88308
88636.5
88964.3
89264.8
89498.4
89733.5
89922.5
90051.1
90122.7
90131.4
90072.3
89947.1
89762.9
89532.1
89264.5
88967.1
88653
88337.8
88035.6
87754.7
87502.5
87274
87063.9
86844.1
86602.6
86316.1
85965.7
85606.6
85161.9
84536
83933
83154.8
82337.8
81467.6
80622.7
79807.1
78899.9
78137.9
77488.3
76933
76553.3
107854
107850
107844
107835
107823
107808
107791
107771
107748
107722
107692
107659
107621
107579
107532
107478
107416
107347
107268
107182
107089
106988
106879
106761
106634
106498
106353
106197
106031
105855
105668
105469
105260
105040
104808
104561
104303
104033
103750
103456
103150
102837
102515
102184
101840
101488
101134
100780
100435
100082
99719.7
99362.7
99009.2
98645
98277.5
97912
97548.4
97184.5
96817.3
96448.7
96079.6
95710.4
95341.3
94972.2
94602.8
94232.5
93860.8
93487.1
93110.7
92730.8
92347
91958.7
91565.4
91167
90763.4
90354.6
89941.1
89523.3
89101.9
88678
88252.7
87827.6
87404.3
86984.8
86571.2
86165.6
85769.9
85386.8
85018.2
84666.1
84332.4
84019.4
83728.4
83460.9
83218
83000.6
82809.1
82643.4
82503.8
82389.4
82299.1
82231.7
82185.6
82159.1
82150.1
82156.4
82175
82203.5
82240.6
82284.5
82334
82388.3
82447.2
82510.1
82582.9
82659
82739.9
82829
82924.3
83031.7
83146.9
83269.8
83405.1
83562.8
83750.1
83957.5
84172.4
84391.9
84622.4
84869.1
85143.3
85443.4
85775.8
86129.5
86486.8
86848.2
87215.4
87590.8
87962.4
88322.1
88648.8
88969.7
89268
89491.2
89730.3
89914.7
90039.3
90108
90114
90052.6
89924.8
89736.9
89503.7
89234.1
88935.3
88620.8
88304.7
88001.9
87720.5
87467.9
87239.9
87031.1
86809.8
86567.4
86280.3
85919.5
85569.9
85123.9
84524
83928.7
83137.6
82328.2
81471.5
80624.9
79809.5
78931
78155.3
77502.3
76955.5
76578.2
107525
107521
107514
107505
107494
107480
107464
107445
107424
107402
107376
107346
107313
107275
107230
107178
107116
107045
106967
106884
106794
106696
106590
106474
106350
106217
106075
105923
105762
105591
105410
105219
105017
104804
104580
104345
104099
103839
103566
103280
102985
102683
102373
102045
101703
101361
101026
100693
100355
100007
99656.7
99308.9
98960.1
98606.1
98248.8
97890.6
97532.4
97174.2
96815.2
96455.7
96096.1
95736.4
95376.7
95016.7
94656.1
94294.3
93930.8
93565
93196.3
92823.9
92447.4
92066.1
91679.7
91287.9
90890.7
90488.4
90081.2
89669.5
89254.2
88836.3
88417
87997.6
87579.8
87165.6
86757.2
86356.5
85965.7
85587.1
85223.1
84875.3
84545.8
84236.5
83949
83684.6
83444.5
83229.5
83040
82876.2
82737.7
82623.8
82533.5
82465.1
82416.9
82387.7
82375.7
82378.9
82394.6
82420
82453.5
82493.7
82539.7
82590.8
82647.6
82711.7
82778.2
82855.3
82935
83019.7
83112.5
83215
83327.3
83449.6
83579.8
83730.2
83913.1
84119.3
84330.3
84542.7
84763.9
85000.2
85261.9
85554.9
85878
86221.6
86573.5
86922.5
87282.4
87649.9
88007.1
88354.6
88667.1
88982.8
89269.8
89498
89727.9
89901.4
90014.1
90077.6
90077
90010
89878.3
89684.3
89445.2
89170.9
88869.4
88553.8
88236.8
87932.1
87649.3
87396.4
87167.8
86960.6
86736.4
86493.9
86211.2
85836.6
85493.2
85058
84478.6
83897.9
83097.9
82314.9
81476.5
80634.3
79823.2
78969
78192.7
77537.9
77002.4
76633
107051
107046
107040
107031
107019
107005
106989
106971
106950
106927
106904
106877
106843
106802
106754
106700
106640
106577
106509
106432
106348
106254
106153
106043
105924
105797
105661
105517
105364
105203
105033
104853
104661
104461
104249
104027
103793
103547
103288
103021
102746
102460
102159
101840
101516
101198
100886
100562
100235
99903.5
99567.4
99228.8
98888.4
98545.6
98201.4
97856.2
97510.5
97164.5
96818.3
96472
96125.8
95779.3
95432.6
95085.4
94737.3
94387.5
94035.7
93681.2
93323.6
92962.1
92596
92225
91848.5
91466.4
91078.7
90685.5
90287.3
89884.7
89478.1
89068.6
88657.5
88246.2
87836.5
87430
87028.7
86634.9
86250.8
85878.7
85520.8
85179.2
84855.5
84551.8
84269.7
84010.4
83775
83564.6
83379.3
83219.1
83083.7
82971.9
82882.4
82814.5
82765.7
82734
82717
82714.5
82724.4
82744.4
82772.7
82807.8
82847.5
82892.2
82944.5
83002.8
83066.4
83141.9
83217.8
83303
83393.9
83491.9
83601.5
83715.7
83842.1
83980.1
84152.7
84351.9
84551.8
84755.4
84966.7
85192.6
85445.7
85727.3
86038.3
86369.3
86703.9
87039
87386.6
87738.3
88078.5
88407.2
88711.2
89015.3
89289.5
89517.9
89716.7
89884.2
89977.2
90034.9
90023.3
89949.9
89808.9
89609.4
89361.8
89080.2
88773
88453
88132.4
87826.7
87543.5
87289.7
87059.4
86855.6
86627.7
86388.7
86114
85725.1
85391.4
84963.4
84404.6
83839.2
83057
82290.1
81479.7
80655.6
79853.5
79016.3
78256.7
77601.5
77079.5
76728.1
106442
106438
106431
106423
106412
106399
106384
106367
106347
106323
106295
106264
106230
106192
106150
106103
106051
105992
105927
105855
105775
105686
105590
105487
105376
105257
105130
104996
104855
104705
104546
104378
104203
104018
103822
103615
103400
103173
102937
102692
102435
102162
101874
101579
101283
100993
100699
100390
100078
99762.4
99442.5
99120.1
98795.1
98468.6
98141.2
97813.1
97484.8
97156.1
96827.4
96498.3
96169.1
95839.6
95509.4
95178.4
94846
94511.8
94175
93835.2
93491.7
93144.1
92791.6
92433.9
92070.6
91701.5
91326.4
90945.4
90559.4
90168.5
89773.5
89375.3
88975
88574.3
88174.7
87778
87386.2
87001.3
86625.5
86261.3
85910.6
85575.9
85258.9
84961.3
84685
84431.4
84201.6
83995.9
83815.7
83660.1
83529.1
83421.5
83335.8
83270.6
83222.9
83191.1
83172
83164.6
83168.1
83181.2
83201.6
83228.9
83262.3
83299.5
83343.4
83394.4
83447.4
83502.6
83584.5
83670.8
83755
83850.3
83953.1
84064.3
84183.9
84306.3
84462.7
84646.7
84831.2
85025.3
85226.6
85441.4
85681.3
85952.6
86250.8
86564.6
86880.2
87200
87528.8
87855.3
88174
88482.3
88776.4
89059.7
89312.8
89527.7
89701.1
89857.3
89940.6
89979
89956.6
89873.5
89723.5
89513.6
89255.6
88965.1
88651.2
88325.5
87998.8
87688.8
87402.4
87147
86914.8
86713.3
86481.5
86247.3
85986.8
85567.5
85299.8
84838.1
84313.1
83763.1
82986.3
82238
81472.7
80681.2
79892.4
79076.4
78342.7
77693.5
77230.6
76878.6
105710
105707
105702
105695
105686
105675
105662
105645
105625
105601
105574
105546
105516
105483
105445
105402
105352
105297
105235
105166
105090
105007
104918
104823
104721
104614
104500
104378
104250
104114
103969
103817
103658
103488
103310
103124
102930
102726
102511
102284
102046
101795
101535
101271
101004
100740
100462
100174
99882.4
99586.8
99287.6
98986.4
98682.7
98377.9
98072
97765.4
97458.5
97151.1
96843.4
96535.3
96226.6
95917.2
95606.8
95295.1
94981.6
94665.9
94347.2
94025.1
93698.9
93368
93032.1
92690.5
92343.1
91989.6
91630
91264.3
90893.2
90517.1
90136.7
89752.8
89366.6
88979.5
88593
88208.8
87829
87455.5
87090.4
86736
86394.5
86068
85758.9
85468.2
85198.6
84950.1
84725.9
84524.8
84349.1
84197.9
84070.2
83966.8
83884.2
83822.6
83777.6
83748.2
83730.6
83722.7
83723
83730
83743.1
83762.2
83786
83811.4
83842.6
83883.3
83928.1
83972.3
84022.9
84095.7
84185.4
84275.6
84373.7
84481.6
84596.9
84709.6
84844
84995.3
85172.8
85357.1
85548.2
85750.3
85974.4
86232.2
86512.7
86806.7
87102.1
87400.7
87703.6
88003
88296.8
88581.7
88856.9
89116.4
89347
89542.1
89696.7
89824.5
89896.9
89916.4
89878.2
89780.7
89619.3
89397.8
89126.8
88826.2
88504.3
88173.2
87841.3
87526
87233.6
86973.4
86740
86534.7
86303.7
86073.2
85831.2
85396.4
85174.9
84695.8
84192.7
83652.1
82924.4
82194.7
81461.3
80709.4
79942.8
79157.5
78443.7
77807.6
77384.4
77052.5
104869
104868
104865
104860
104853
104844
104832
104817
104799
104777
104754
104728
104700
104667
104630
104588
104542
104491
104436
104374
104307
104234
104155
104072
103983
103888
103785
103677
103563
103442
103314
103178
103033
102881
102721
102556
102384
102203
102010
101806
101595
101375
101151
100919
100680
100438
100182
99919
99653.2
99382.7
99109.2
98833.6
98555.7
98276.7
97996.5
97715.3
97433.4
97150.9
96867.5
96583.5
96298.5
96012.4
95724.8
95435.5
95144
94849.8
94552.2
94250.6
93944.5
93633.2
93316.4
92993.8
92664.8
92329.5
91987.7
91639.7
91285.9
90926.9
90563.4
90196.1
89826.3
89455.4
89085
88716
88351
87991.4
87639.9
87298.1
86968.5
86652.7
86353.6
86071.7
85810.6
85569.2
85350.9
85155.8
84983.3
84837.2
84711.7
84610.4
84530
84469.4
84425.7
84396.7
84380.2
84372.6
84373.2
84378.3
84386.5
84398.7
84414.3
84429.3
84447.3
84470.8
84496.3
84527.5
84570.7
84619.6
84684.2
84753.5
84857.6
84960.4
85073.4
85189.1
85301.1
85426.8
85586.7
85757.4
85935.3
86121.6
86327.5
86565.3
86824.9
87095.3
87365.8
87638.1
87911.1
88183.2
88451.8
88711.9
88961.9
89191.7
89392.3
89562
89695
89795.5
89849
89849
89791.7
89677.6
89500.2
89265
88979.9
88667.8
88335.2
87995.1
87660.1
87341.2
87043.2
86775.2
86539.3
86323.9
86104.6
85876.2
85642
85218.1
85001.5
84541.6
84065.9
83536.2
82862.7
82142.1
81445.8
80735.5
80004.8
79254.3
78565.3
77938.7
77453.3
77132.9
103933
103934
103933
103930
103925
103918
103909
103898
103883
103866
103846
103822
103794
103763
103728
103690
103650
103607
103561
103511
103457
103398
103334
103264
103189
103107
103019
102924
102822
102714
102599
102478
102351
102218
102079
101935
101785
101626
101457
101282
101103
100919
100728
100524
100314
100096
99867.1
99634.1
99397.7
99156.6
98912.9
98666.6
98418.2
98168.3
97917.1
97664.6
97411
97156.3
96900.4
96643.3
96384.9
96124.9
95863.2
95599.2
95332.4
95062.4
94788.5
94510
94226.6
93937.8
93642.9
93341.9
93034.2
92719.8
92398.7
92070.8
91736.9
91397.3
91052.9
90704.4
90353
89999.9
89647.6
89295.7
88947.6
88603.8
88268
87941.4
87625.9
87323.9
87037.1
86767.2
86515.5
86283.9
86072.1
85884.8
85717
85577.3
85454.2
85355.5
85276.9
85216.7
85173
85140.6
85122.4
85113
85108.4
85112.1
85116.1
85118.9
85129.8
85141.3
85146.5
85156
85176.8
85183.1
85212.4
85254.4
85306.4
85351.4
85407.6
85510.3
85627.9
85740.3
85834.8
85936.7
86074.7
86228
86388.5
86557.2
86742.2
86954.2
87187
87429.9
87670.8
87912.3
88153.1
88395.8
88635.6
88866.3
89083.6
89276.3
89448.2
89590.8
89697.9
89771.7
89801.6
89780.2
89701.2
89566
89369.9
89123.3
88819
88494
88152.4
87801.2
87456.8
87132.1
86831.3
86556.3
86316.1
86096.3
85882.2
85655.4
85418.1
85040.9
84830.1
84390.6
83939.3
83408
82793.1
82075.7
81431.1
80760.3
80073.6
79363.2
78705.9
78099
77624.5
77317.2
102919
102921
102922
102921
102919
102914
102909
102902
102892
102880
102865
102846
102825
102799
102771
102742
102710
102676
102640
102603
102562
102517
102466
102408
102345
102276
102203
102123
102037
101944
101845
101742
101633
101519
101402
101280
101152
101017
100876
100733
100587
100434
100269
100094
99913.3
99724.2
99527.5
99327.6
99123.3
98915
98703.8
98489.9
98274
98056.2
97836.7
97615.5
97392.7
97168.3
96942.3
96714.8
96485.4
96254.2
96020.7
95784.4
95544.8
95301.3
95053.4
94800.6
94542
94277.7
94007
93730
93446.3
93155.2
92857.3
92552.4
92241.2
91923.9
91601.1
91273.9
90943.2
90609.7
90280.9
89947.1
89616.6
89290.6
88970.6
88661.2
88361.4
88075.9
87804.2
87548.3
87309.9
87089.1
86887.6
86707
86547.1
86410
86293.6
86198.3
86122.8
86061.9
86018.2
85984.2
85961.6
85949
85933.3
85929.5
85930.2
85922
85920.1
85927.5
85925.9
85913.9
85926.3
85929.4
85936.6
85958.3
85999.4
86037
86075.5
86143.1
86244.5
86352.5
86437.2
86519
86634
86765.4
86906.2
87057.1
87215.3
87398.7
87600
87809.9
88017.4
88225.1
88431.6
88639.6
88844.5
89039.7
89220.6
89379.4
89521.1
89631.9
89710.4
89756.1
89759.1
89712.1
89608.3
89447
89227
88949
88644.6
88304.5
87953
87594.4
87239.8
86905.3
86600.1
86322.2
86076.2
85853.8
85641
85418
85180.8
84834.5
84636.1
84245.6
83793.3
83259.7
82700.1
82019.9
81424
80784.1
80151
79505
78863.2
78317.8
77925.6
77645
101846
101849
101851
101852
101852
101851
101849
101846
101841
101834
101825
101814
101800
101784
101766
101747
101726
101702
101676
101648
101617
101581
101541
101497
101448
101394
101337
101274
101206
101132
101054
100970
100883
100792
100697
100598
100495
100388
100277
100164
100046
99918.4
99781.7
99638.7
99490.2
99334.1
99172.6
99007.5
98837.5
98664
98487.4
98308.2
98126.8
97943.2
97757.5
97569.5
97379.4
97187.3
96993.4
96797.6
96599.8
96399.5
96196.5
95990.2
95780.1
95565.5
95345.7
95120.7
94889.1
94651.3
94406.7
94155.4
93898.1
93632.3
93359.4
93079.2
92793
92501.5
92202.5
91898.6
91590.9
91281.7
90972.7
90663.6
90355
90049.8
89748.5
89455.5
89173.8
88903.2
88649.1
88409
88186.3
87980.4
87791
87620.5
87468.3
87336.4
87225.7
87133.4
87060.7
87002.2
86957
86924
86896.4
86876.3
86858.1
86840.2
86830.6
86817.9
86796.5
86788
86777.2
86752.5
86742.9
86740.7
86734.7
86731.1
86748.5
86782.8
86813.2
86848
86924.2
87020.7
87099.9
87165.4
87243.1
87364.2
87486.1
87619
87747.1
87896.9
88063.5
88235.7
88406.4
88576.9
88747
88915.3
89079.4
89237.3
89381.3
89506.4
89610
89688.8
89738.3
89751.3
89723.9
89647.6
89515.8
89327.7
89084.1
88788.1
88462.5
88107.9
87742.2
87375.9
87013.2
86668.4
86357
86076.3
85824.5
85600.2
85388
85170.1
84937.7
84626.5
84412.9
84066.8
83629.7
83107.9
82569.6
81982.4
81418.1
80802.4
80223.8
79700.2
79058.3
78589.7
78201.9
77902.1
100734
100740
100744
100748
100751
100754
100754
100754
100752
100749
100745
100741
100735
100728
100720
100710
100697
100683
100665
100646
100625
100601
100575
100547
100515
100479
100439
100394
100346
100293
100237
100176
100112
100044
99974.3
99901.4
99825.4
99746.2
99663.3
99576.9
99485.9
99387.7
99282.6
99172.9
99057.9
98936.8
98811.5
98681.7
98547.4
98409.9
98269.2
98125.9
97980.3
97832.1
97681.4
97528.1
97372.4
97214.5
97054.6
96892.4
96727.8
96560.5
96390
96215.6
96037.2
95853.8
95664
95468.6
95266.2
95056.4
94839.8
94615.5
94387.6
94148.7
93902.7
93649.4
93389.8
93124.5
92853
92575.4
92292.7
92007.4
91721.3
91436.3
91153.3
90872.2
90595.7
90323.1
90061.2
89807.6
89569.2
89346.2
89138.7
88949
88775.1
88617.5
88477.8
88354
88247.6
88158.8
88087.4
88032.7
87988.1
87952.9
87923.2
87895.7
87872.8
87848
87821.7
87799.2
87768.4
87735.8
87710.4
87680.2
87646.1
87623.1
87608.8
87587.5
87571.5
87589
87616.4
87633.3
87663.8
87744.9
87821.2
87874.4
87929.8
88026.2
88128.5
88237.5
88336.5
88448.5
88578.1
88709.3
88838.7
88968.7
89098.5
89225.3
89348.8
89464.2
89566.3
89661.2
89720.3
89764.5
89780.2
89760.6
89701.3
89593.3
89430.7
89213.5
88943.3
88627.7
88279.1
87910.2
87529.8
87150.1
86779.2
86427.3
86108.1
85823.7
85567
85340.1
85127.8
84915.4
84690.5
84413.2
84182.8
83870.8
83454.3
82964
82460
81942.6
81404.8
80836.6
80293.9
79842.9
79303.4
78853
78489.4
78211
99602.3
99610.1
99617
99623.9
99630.1
99635.3
99640.4
99644.5
99647.4
99649.7
99651.2
99651.9
99651.8
99651.2
99649.4
99646.3
99642.8
99638.6
99633
99625.7
99618.2
99608.4
99596
99581.8
99565.5
99546.5
99524.9
99500.3
99472.8
99442.2
99408.8
99372.3
99333
99291.1
99246.9
99200.2
99151.3
99099.8
99044.9
98986.3
98923.5
98856.1
98784.5
98708.3
98627.4
98541.6
98451.7
98357.5
98259.5
98158.2
98053.9
97947.2
97838
97725.9
97611.2
97493.8
97373.7
97251.1
97126.3
96999.3
96869.4
96736.4
96599.9
96458.8
96313.3
96163.7
96004.8
95840.9
95669.1
95489.1
95302.6
95108.2
94907.5
94698.8
94482.6
94258.4
94027.2
93789.8
93547
93298.5
93044.7
92786.9
92526.6
92265.5
92007
91751.1
91500.2
91253.8
91014.5
90783.5
90563.6
90358.6
90167.4
89992.9
89835.5
89692.7
89565.4
89453.4
89355.6
89272.9
89203.7
89148.5
89104.9
89067.3
89035.3
89002.9
88971.4
88941.3
88904.5
88864.6
88825.2
88778.5
88732.1
88689.7
88643.5
88594.8
88560.3
88527.7
88489.7
88474.8
88487.7
88493
88496.4
88538
88600.2
88642.1
88674.2
88727.9
88814.3
88892.8
88982.6
89057.2
89143.7
89231.9
89316.7
89402.4
89488.5
89571
89652.5
89726.8
89788.7
89830.2
89858.1
89863.1
89842
89787.7
89694.1
89551.3
89356.5
89108.9
88809.4
88469.6
88098.8
87713.6
87318.3
86924.1
86542.6
86182.8
85856.2
85569.1
85308.5
85078.2
84863.8
84658.9
84441.7
84186
83955.7
83664.9
83277.9
82833.8
82374.4
81916.9
81408.9
80863.5
80363.3
79867.7
79536
79104
78824.4
78648.8
98468.9
98478.5
98487
98495.7
98504.3
98513.4
98522.7
98531.4
98539.7
98547.8
98555.3
98561.9
98568.3
98575.2
98582.2
98588.4
98593.9
98599.2
98604.2
98608.4
98611.7
98614.3
98616.2
98617.2
98617.3
98616.2
98613.5
98609.2
98603
98594.8
98584.9
98573.1
98559.4
98543.8
98526.1
98506.3
98484.6
98460.9
98434.6
98405.2
98372.7
98336.8
98297.2
98253.9
98206.5
98155.1
98100.1
98041.4
97979.3
97914.1
97846.5
97776.4
97703.6
97628.2
97550
97468.9
97385
97298.5
97209.6
97118.4
97024.2
96926.4
96824.7
96718.3
96606.7
96489.3
96364.7
96232.3
96092.4
95943.8
95788.2
95625.2
95455
95277.6
95092.6
94899.8
94699.4
94492.4
94279.4
94060.9
93837.6
93610
93379.2
93147.1
92915.2
92685.7
92460
92241
92026.3
91821
91623.3
91439.3
91267.6
91110.2
90969
90841.6
90728.1
90628.5
90540.8
90466.2
90402.4
90347.8
90302.7
90263.4
90227.5
90191.4
90152
90111.1
90067.9
90017.5
89963.6
89906.1
89839.4
89775
89715.9
89650.7
89590.8
89544.2
89493.8
89447
89429.2
89421.4
89403.9
89406.4
89440.8
89468.6
89480.8
89504.9
89558.6
89616.6
89683
89724.8
89762.3
89803.3
89840.6
89879.5
89918.9
89956.5
89993.8
90022.1
90039.4
90048.5
90024.4
89987.5
89927.9
89837.1
89706.9
89527.5
89298.4
89018.3
88689.8
88324.6
87929.7
87526
87113.4
86704.6
86310.6
85941.3
85608.8
85315.1
85049.4
84819.8
84600
84406.8
84186.6
83960.7
83732.9
83459.5
83103.2
82714
82290.9
81885.2
81426.3
80918.8
80458.3
79996.2
79717.2
79396.1
79194.1
79066.1
97352.6
97363.8
97374.2
97385.6
97398.2
97411.6
97424.7
97437.8
97451
97464.3
97477.8
97491.7
97505.6
97519.7
97534.7
97550.2
97565.5
97580.5
97595.7
97610.7
97625.8
97642.5
97658.2
97674.2
97690.3
97706.6
97722.4
97737.7
97752.2
97766
97779.1
97791.5
97803
97813.4
97822.4
97830
97836.1
97840.5
97842.9
97843
97840.7
97835.6
97827.3
97816
97801.5
97783.9
97763.2
97739.3
97712.6
97683.3
97651.6
97617.7
97581.3
97542.4
97500.6
97455.9
97408.4
97358.2
97305.3
97250.1
97191.7
97129.5
97062.9
96991.3
96914.3
96831
96740.5
96641.4
96533.7
96418.1
96294.7
96164.5
96026.8
95881.7
95729.1
95568.6
95400.5
95225.5
95044
94857.2
94664.9
94468.4
94268.3
94066.6
93864.8
93664.8
93467.9
93276.9
93089.6
92911
92738.6
92577.8
92428.8
92291
92167.1
92056.2
91958
91873.4
91796.9
91730.5
91672.8
91621.5
91574.7
91532.9
91491.9
91451.3
91406.8
91355.9
91302
91244.6
91177.2
91106.9
91028.3
90940.9
90862.5
90783.6
90700.6
90630.1
90566.9
90497.8
90444
90415.3
90379.4
90347.5
90346.8
90354.2
90346.5
90341.3
90365.8
90397.8
90432.2
90447.7
90439
90425.6
90410.7
90401
90392.6
90383.8
90374.4
90355.2
90321.2
90276.8
90221.3
90144.6
90043.4
89912.9
89743.7
89525.9
89260.7
88947.3
88588.5
88194.7
87776
87352.4
86922.4
86498.3
86092.6
85713.7
85373.5
85069
84795.8
84571.7
84339.6
84159.5
83947.2
83737.5
83518.5
83263.5
82935.6
82605.1
82214.3
81850.6
81436.6
81011.6
80582.2
80179.9
79910.6
79745.3
79614.9
79461.1
96271.6
96283.9
96295.6
96309.2
96324.5
96340.9
96358.3
96376.9
96396.4
96416.8
96437.6
96458.8
96480.2
96501.9
96524.8
96548.8
96574.4
96600.7
96627.3
96654.4
96682.1
96710.5
96739.8
96770.1
96801.2
96833.4
96866.5
96900.4
96935.1
96970.4
97006.2
97042
97077.7
97112.9
97147.7
97181.6
97214.8
97246.7
97277.3
97306.2
97333
97357.8
97380.2
97400.4
97418.2
97433.6
97446.4
97456.7
97464.7
97470.3
97473.8
97475.4
97474.7
97471.5
97465.7
97457.1
97445.5
97431.3
97414.4
97394.6
97371.7
97345.1
97313.7
97276.7
97234.1
97185.3
97129.1
97064.2
96990
96907.5
96817.7
96721.4
96618
96506.8
96387.7
96260.5
96125.8
95983.9
95835.3
95681
95521.1
95357
95189.2
95019.2
94848.5
94679.3
94512.6
94350.7
94192.5
94041.4
93897.4
93761.8
93636.4
93521.1
93417.1
93325.2
93242.8
93172.6
93109.3
93052.7
93002.4
92954.9
92908.9
92865.4
92821.5
92775.8
92726.1
92668.3
92601.9
92535.8
92458.6
92372.5
92285.1
92182.8
92080.6
91985.6
91884.5
91786.2
91704.5
91618.2
91532.6
91474.7
91419.8
91356.6
91317.9
91299.2
91268.6
91231.6
91222
91231.8
91232.3
91218.4
91175
91108
91034.7
90970.3
90912.5
90855.2
90796.3
90727
90646.3
90548.8
90455.4
90334.7
90190.8
90019
89809.4
89551.7
89248.9
88901.5
88512.2
88089.1
87645
87198.4
86750.9
86310.3
85894
85502.9
85151.7
84839.3
84559.5
84329.1
84104.9
83921.7
83721.4
83523
83317
83080.9
82786.3
82508.6
82164.5
81816.1
81469.6
81150.1
80734.7
80408.6
80224
80144.8
80086.5
80005.1
95245.3
95257.4
95270.2
95285
95301.9
95320.5
95341.8
95366.2
95392
95419.3
95448.7
95478.1
95508.4
95539.6
95571.6
95604.6
95639
95675.1
95712.6
95751.5
95791.8
95833.4
95876.3
95920.7
95966.8
96014.4
96063.8
96114.9
96168
96222.8
96279.2
96336.6
96394.8
96453.3
96513.2
96572.2
96631
96689.3
96746.8
96803.1
96858.1
96911.6
96963.7
97014.1
97062.8
97109.8
97155.1
97198.5
97239.9
97279.5
97317.1
97353
97386.9
97418.6
97447.9
97474.3
97498
97518.9
97536.9
97551.9
97563.8
97571.9
97574.9
97571.9
97562.9
97548
97525.9
97494.8
97453.9
97405
97349.2
97287.5
97218.8
97142.3
97057.7
96964.9
96864.4
96756.9
96642.5
96522
96395.9
96265.4
96131
95994.5
95856.6
95719.6
95584
95451.3
95323.2
95200.3
95084.5
94975.1
94874.9
94783.7
94701.7
94630
94567
94511.6
94462.5
94416.3
94374.8
94332.2
94289.8
94246.9
94201.2
94151.5
94096.4
94033.8
93958.7
93881.4
93797.8
93697.4
93597.2
93485.7
93362.8
93249.5
93134.7
93012.7
92905.7
92802.3
92690.9
92599.3
92521.2
92430.5
92353.5
92304.1
92247.1
92177.8
92129.3
92110.9
92083.2
92034.2
91960.7
91853.3
91723.7
91598.7
91483.9
91374.6
91262.7
91144.6
91016
90876.6
90732.8
90563.8
90375.1
90160
89907.3
89609.7
89268.4
88885.9
88466.3
88012.7
87542.2
87068.9
86602.7
86140.3
85712.8
85308.9
84949.6
84630
84344.9
84108.8
83886.7
83702
83509
83324.6
83133.1
82919.6
82663.9
82426.8
82139.9
81821.3
81544.4
81301.5
80936.1
80692
80591.5
80583.1
80590.9
80574.6
94284
94296.5
94311.7
94329.2
94348.7
94370.5
94394.7
94421.7
94452.8
94486.3
94522.7
94561.2
94601.8
94643.4
94686
94729.9
94775
94821.5
94869.7
94919.9
94972
95026
95082
95139.8
95199.7
95261.5
95325.7
95392.3
95461.6
95533.8
95608.6
95685.9
95765.1
95846
95928.2
96011
96094.1
96177.1
96259.8
96342
96423.7
96504.6
96584.7
96663.9
96742.1
96819.2
96895.1
96969.7
97043.1
97114.9
97185.1
97254
97321.1
97386.1
97448.9
97509.1
97566.6
97621.2
97672.9
97721.5
97766.5
97808.1
97844.5
97874.3
97897.9
97916
97927
97928.8
97920.8
97905.1
97883.2
97855.8
97821.4
97779
97728.4
97669.8
97603.6
97530.6
97450.7
97364.8
97273.2
97177.1
97076.7
96974
96869.6
96764.8
96661.3
96559.6
96462.5
96368.7
96281.9
96199.9
96125.6
96058.9
96000.2
95949
95905.2
95866.2
95832.7
95799.8
95769.4
95735.1
95698.3
95659.2
95613.7
95562.4
95504.6
95438.1
95359.2
95272.2
95181.2
95070.9
94955.5
94837
94699.6
94567.1
94439.7
94299.1
94165.5
94042.5
93909.5
93783.7
93678.5
93563.6
93450.8
93366.1
93281.3
93178.7
93089.5
93033
92978
92895.1
92787
92648.1
92473.8
92290.6
92114.9
91947
91780
91610.3
91433.3
91243.9
91042.9
90833.9
90601.3
90340.6
90042.7
89702.3
89321.6
88903.9
88453
87968.9
87471.7
86967.1
86483.3
85993.1
85556.5
85146.9
84775.7
84442.7
84152.7
83912.5
83690.4
83505.7
83317.9
83149
82971.1
82781.7
82566.4
82363.1
82136.1
81879.4
81635.9
81465.1
81208.6
81022.9
80962.8
81042.4
81125.9
81179.9
93394.4
93408.8
93426
93446
93469.2
93495.5
93525.4
93558.6
93596
93636.5
93679.8
93726.2
93775
93825.2
93877.2
93930.9
93986.3
94043.5
94102.5
94163.5
94226.6
94291.9
94359.4
94429.4
94502
94577.5
94656
94737.9
94823.3
94912.3
95004.8
95100.6
95199.3
95300.4
95403.5
95507.9
95613.1
95718.9
95825
95931.2
96037.3
96143.5
96249.6
96355.5
96461.3
96566.4
96671.1
96775.2
96878.5
96980.6
97081.6
97181.4
97279.6
97376
97470.4
97562.3
97651.7
97738.3
97821.8
97901.9
97978.4
98051.9
98120
98181
98235.6
98285.2
98327.9
98361.1
98384.8
98401.8
98413.2
98419.1
98417.9
98408.4
98390.9
98365.8
98333.2
98293.7
98247.4
98195.5
98137.8
98075.8
98009.8
97940.7
97869.7
97797.2
97725.6
97655.1
97588
97524.3
97465.8
97412.4
97364.8
97323.4
97287.9
97259
97235.4
97215.2
97199
97182.1
97164.5
97142.8
97116
97083.8
97042.4
96993
96935.5
96866.8
96787
96692.9
96593.8
96476.3
96348.4
96222
96077.1
95927.8
95786.6
95631.6
95474
95330.5
95178.7
95022.8
94887
94749.9
94605
94481.2
94367.3
94232.9
94100.9
93998.6
93911
93798.2
93653.5
93482
93273.1
93038.7
92804.6
92575
92349.4
92125.7
91897.9
91658.5
91409.8
91149.8
90870.2
90563.4
90220.3
89836
89414.6
88959.7
88471.2
87961.4
87437.9
86905.7
86394.1
85893.6
85439.8
85015.8
84629.7
84283.5
83992.7
83744
83516.9
83343.6
83155.1
83000.6
82837.5
82671.7
82498.3
82330.5
82157.3
81973.2
81749.1
81615.7
81498.8
81381
81373.4
81534
81655.2
81851.9
92709.2
92723.8
92741.1
92764.2
92793
92825.9
92863.1
92903.5
92946.8
92992.8
93042.1
93094.5
93149.5
93206.6
93265.8
93327.1
93390.5
93456
93523.7
93593.5
93665.5
93739.9
93816.6
93895.9
93978.1
94063.6
94152.6
94245.7
94343.1
94445