/*--------------------------------*- C++ -*----------------------------------*\
| =========                 |                                                 |
| \\      /  F ield         | OpenFOAM: The Open Source CFD Toolbox           |
|  \\    /   O peration     | Version:  dev                                   |
|   \\  /    A nd           | Web:      http://www.openfoam.org               |
|    \\/     M anipulation  |                                                 |
\*---------------------------------------------------------------------------*/
FoamFile
{
    version     2.0;
    format      ascii;
    class       volScalarField;
    object      p_0;
    location    "9.117";
}
// * * * * * * * * * * * * * * * * * * * * * * * * * * * * * * * * * * * * * //

dimensions      [1 -1 -2 0 0 0 0];

internalField   nonuniform List<scalar> 
12225
(
84702.9
84760.1
84912.5
85137
85408.9
85716.5
86045.2
86388.7
86734.7
87083.9
87423.4
87766.6
88087.7
88438.8
88737.1
89120.8
89455.6
89771.4
84709.3
84770.8
84923.7
85148.1
85420
85727.3
86056.1
86399.2
86745.3
87094
87433.7
87775.9
88098.9
88443.9
88748.6
89119.2
89448.1
89781.9
84732
84796.9
84950.5
85174.6
85446.1
85753.2
86081.6
86424.4
86770.1
87118.3
87457.8
87798.5
88122.9
88460.2
88769.6
89117.6
89438.8
89761
84774
84843.1
84997.3
85220.9
85491.7
85798.3
86126.3
86468.5
86813.7
87161
87499.9
87838.5
88162.9
88492.3
88803
89132.1
89447.8
89750.3
84844.9
84915.5
85069.9
85292.4
85562.4
85868.3
86195.6
86536.8
86881.4
87227.1
87565.3
87900.7
88224.5
88546
88858.1
89173.4
89478.3
89771.4
84949.7
85021.5
85175.1
85396.4
85665.2
85970.1
86296
86635.9
86979.2
87323.1
87660.2
87992.4
88314.6
88630.9
88941.6
89245.5
89538.5
89806.8
85096.4
85169.8
85321.8
85541.6
85808.9
86112.2
86436.4
86774.6
87115.9
87457.8
87793.2
88122
88441.6
88752.7
89057.9
89349.1
89627.7
89882.8
85265.4
85340.1
85490.7
85708.9
85974.6
86276.1
86598.4
86934.6
87274.1
87613.5
87947
88271.9
88588.6
88894.7
89192.3
89473.6
89740.5
89987.4
85452.8
85525.7
85674.6
85891.2
86155.2
86454.4
86774.9
87108.7
87446.3
87783
88114.1
88435.7
88749.1
89049.6
89339.9
89613.2
89871.6
90111.6
85707
85774.5
85921
86135.3
86396.7
86693
87011
87341.8
87676.7
88010.1
88337.9
88655.5
88964
89258.3
89540.7
89806.7
90056.8
90288.8
86045.1
86108.2
86252.2
86463.1
86720.8
87013.4
87327.9
87654.7
87985.9
88315.1
88638.5
88951
89253.1
89540.8
89815.2
90073.5
90314.9
90539.2
86497.4
86556
86697.3
86903.2
87156.5
87443.8
87753.4
88074.8
88400.9
88724.3
89041.6
89347.8
89642.7
89923
90189.1
90439
90672
90888.6
87099.3
87156.2
87293.8
87493.4
87741
88021.2
88323.9
88637.8
88956.5
89272.4
89581.8
89880.6
90167
90439
90695.9
90936.9
91161.6
91370.5
87897.3
87958.4
88091.5
88283.8
88522.9
88793.5
89086.4
89390.4
89699.2
90005.3
90304.9
90594
90870.4
91132.4
91379.3
91610.9
91826.7
92027.4
88978.6
89029.6
89155.1
89338
89565.4
89823.3
90102.6
90393.4
90688.6
90981.7
91268.4
91545
91809
92059
92294.4
92515.1
92720.7
92912.2
90393.5
90445.7
90564.2
90735.1
90946.7
91187.3
91448.2
91720.8
91997.8
92273.4
92542.9
92802.9
93051.2
93286.3
93507.6
93715
93908.4
94088.6
92249
92297.9
92407.8
92563.9
92755.4
92973.3
93210
93458.1
93710.7
93962.5
94209.1
94447.4
94675
94890.6
95093.6
95284.1
95461.5
95627
94447.9
94498.5
94599.1
94737.9
94906.5
95098.1
95306.6
95525.4
95748.5
95971.5
96190.4
96402.1
96604.5
96796.4
96977.2
97146.7
97304.8
97452.5
96641.5
96692.4
96784.6
96907.3
97054.6
97221.4
97402.4
97592.4
97786.6
97980.7
98171.5
98356.2
98532.9
98700.5
98858.5
99006.7
99145
99274.1
98599.1
98647.2
98730.5
98839.2
98968.4
99114.1
99271.8
99437.1
99606.1
99775
99940.9
100102
100255
100401
100539
100667
100788
100899
100276
100317
100392
100489
100604
100732
100871
101016
101165
101313
101458
101598
101732
101860
101979
102091
102195
102292
101640
101686
101757
101846
101950
102065
102190
102319
102451
102582
102711
102835
102953
103065
103170
103268
103358
103442
102729
102774
102842
102925
103021
103127
103240
103358
103477
103595
103711
103822
103928
104027
104121
104207
104287
104360
103558
103610
103676
103754
103845
103944
104049
104158
104268
104377
104482
104584
104680
104770
104854
104932
105003
105069
104180
104232
104296
104371
104457
104552
104652
104754
104858
104959
105058
105152
105241
105324
105402
105473
105538
105597
104628
104678
104739
104812
104896
104987
105083
105181
105280
105377
105470
105559
105643
105721
105794
105860
105921
105976
104938
104983
105041
105112
105194
105283
105376
105472
105568
105662
105752
105837
105918
105992
106061
106124
106182
106235
105133
105176
105232
105302
105383
105471
105563
105657
105751
105843
105931
106014
106093
106165
106232
106293
106349
106400
105247
105284
105338
105408
105489
105577
105668
105762
105854
105945
106032
106114
106191
106262
106328
106388
106443
106492
105298
105330
105383
105453
105533
105621
105712
105805
105898
105988
106074
106156
106232
106303
106368
106427
106481
106530
111042
111037
111023
111002
110972
110936
110893
110842
110784
110719
110646
110565
110476
110378
110270
110152
110023
109884
109733
109572
109400
109217
109023
108819
108603
108377
108141
107894
107637
107370
107090
106798
106497
106188
105870
105543
105206
104860
104505
104141
103769
103395
103017
102635
102247
101854
101476
101090
100709
100324
99940.5
99565.7
99196.7
98827
98460
98099.5
97742.9
97385.5
97026.6
96667.5
96308.6
95949.9
95591
95231.4
94870.3
94506.8
94140.1
93769.3
93393.3
93011.5
92623.1
92227.7
91824.8
91414.4
90996.6
90571.6
90140
89702.5
89260.1
88814.2
88366.2
87917.6
87470.3
87026.3
86587.8
86156.7
85735.1
85325.6
84930
84550.5
84189.1
83847.9
83528.6
83232.7
82961.8
82717.1
82499.3
82309.2
82147.3
82013.9
81908.4
81830.4
81779.2
81753.6
81752
81771.8
81810.4
81865.5
81935
82016.4
82107.2
82206.2
82312.5
82425
82542.6
82664.1
82789.9
82920.1
83055.7
83197.7
83345
83496.3
83657
83829.4
84014.7
84208
84401.7
84592.5
84784
84981.9
85194.7
85428.9
85685.8
85961.9
86249.3
86542.6
86843.3
87152.9
87468
87784.1
88095.3
88405.2
88708.8
88985.3
89261.9
89504.1
89712.2
89886.8
90023.6
90109.5
90144.1
90128.7
90068.9
89970.2
89834.2
89663.4
89474.4
89276.6
89078.9
88888.7
88700.2
88512.7
88298.9
88056.7
87763.4
87395.8
87001.7
86503.2
85867.1
85168.5
84344.2
83448.4
82511.5
81586.1
80691.7
79775.5
78940.4
78245.8
77618.9
77191.2
110801
110795
110782
110762
110734
110700
110658
110609
110553
110490
110420
110342
110256
110162
110057
109942
109817
109680
109533
109375
109206
109026
108835
108633
108421
108198
107965
107722
107468
107204
106930
106647
106354
106054
105743
105419
105087
104747
104398
104040
103676
103308
102937
102559
102172
101784
101401
101022
100650
100278
99900.8
99540.1
99179.3
98814.4
98450.1
98091.2
97736.4
97382.3
97028.1
96674.1
96320.6
95967.1
95613.4
95258.9
94902.6
94543.9
94181.7
93815.2
93443.5
93065.7
92681.2
92289.4
91890.1
91483.1
91068.5
90646.7
90218.2
89783.7
89344.3
88901.1
88455.7
88009.5
87564.5
87122.7
86686.3
86257.3
85837.7
85430
85036.2
84658.2
84298.1
83958.2
83640
83345.1
83075
82830.9
82613.7
82423.8
82262.1
82128.7
82022.9
81944.3
81892.1
81865.4
81862.8
81881.9
81919.9
81974
82042.2
82122.2
82212.1
82310.2
82415.7
82527.7
82645.3
82767
82892.2
83021.7
83156.3
83297.9
83444.3
83592.1
83750.5
83919
84104.1
84298.3
84490.7
84677.3
84863.6
85054.6
85261.1
85491.1
85746.3
86020.8
86304.7
86592.6
86887.9
87194.1
87505.4
87813.8
88114.7
88422.7
88721.9
88989
89261.1
89502.5
89706
89876.1
90007.4
90088.5
90118.1
90097
90033.3
89931.5
89794.5
89620.8
89429.7
89230.4
89031.5
88840.6
88653.7
88467.2
88252.8
88010.1
87718.7
87341.9
86958.1
86470.7
85839.5
85153.8
84332.3
83448
82516.6
81594.6
80713.8
79798.4
78958.4
78258.7
77652.5
77220.7
110340
110333
110320
110301
110275
110243
110204
110158
110106
110047
109983
109910
109830
109741
109641
109531
109409
109277
109134
108981
108817
108643
108458
108262
108056
107840
107613
107378
107133
106879
106616
106343
106062
105771
105472
105165
104848
104520
104182
103836
103486
103134
102776
102404
102022
101646
101281
100923
100563
100200
99838.3
99483.8
99131.3
98778
98425.1
98074.3
97726.1
97379.8
97034.9
96690.8
96347.4
96004
95660.3
95315.4
94968.6
94618.9
94265.3
93907.2
93543.6
93173.6
92796.6
92412.1
92019.7
91619.4
91211.2
90795.7
90373.2
89944.6
89510.8
89073.1
88632.9
88191.8
87751.5
87314.2
86882.1
86457.3
86041.6
85637.6
85247.6
84873.2
84516.5
84179.7
83864.3
83572
83304.2
83062.2
82846.5
82658
82497.1
82363.9
82258.1
82178.7
82124.7
82095.4
82089.7
82105.8
82141.1
82192.6
82257.8
82334.8
82421.9
82517.5
82620.5
82729.8
82846.3
82969.7
83096.8
83226.7
83360.5
83501.7
83647.1
83792.7
83940.3
84102
84284.3
84476.4
84664.9
84845.2
85022.8
85204.8
85402.4
85625
85873.7
86140.9
86415
86690.4
86978
87276.7
87576.2
87874.1
88156.4
88460.1
88756.1
89010.3
89272
89501.1
89693.2
89850.3
89973.5
90044.3
90065.8
90035.2
89962.5
89853.1
89707
89532.3
89337.3
89135.2
88933.3
88740.8
88554.1
88370.6
88154
87912.8
87629.8
87245.1
86865.9
86390.7
85783.9
85114.7
84302.3
83437.6
82525.5
81614.1
80749.8
79840.4
79004.1
78300.1
77715.6
77285.2
109681
109675
109662
109643
109619
109588
109551
109509
109461
109408
109348
109280
109203
109117
109021
108915
108799
108673
108536
108391
108235
108069
107893
107708
107512
107307
107094
106872
106642
106403
106156
105898
105634
105361
105079
104789
104490
104181
103863
103541
103214
102880
102532
102171
101812
101466
101126
100783
100437
100092
99746.8
99403.1
99061.4
98721.4
98383.4
98047.3
97713.2
97380.8
97049.9
96720.2
96391.1
96062
95732.2
95401
95067.5
94730.6
94389.6
94043.4
93691.5
93332.9
92966.7
92592.8
92210.5
91820
91421.2
91014.6
90601
90180.8
89755.1
89325.2
88892.4
88458.3
88025
87594.2
87168.1
86748.8
86338.7
85939.9
85554.8
85185.2
84833.2
84500.8
84189.8
83901.8
83638
83399.6
83187.7
83002.4
82844.3
82713
82608.1
82529.3
82475
82443.9
82433.9
82444.8
82474.5
82520.7
82581.7
82654.9
82736.9
82827.5
82927.6
83034.8
83147.2
83266.4
83392.5
83524.2
83659.4
83799.4
83943.4
84085.7
84224.5
84374
84546.4
84730.2
84911.5
85083.8
85252
85424
85612.9
85826.7
86065.1
86320
86579.1
86841.8
87117.3
87400
87681.4
87962
88239.3
88530.1
88806.4
89050.5
89287.9
89500
89675.2
89817.2
89921.3
89980.2
89988.1
89948.9
89862
89740.5
89582.6
89399.5
89197.1
88991.8
88787.9
88593.4
88404.9
88226
88007.6
87774
87502.6
87117
86737
86278.3
85700.6
85053.3
84257.7
83415.9
82538.5
81648.4
80811.8
79892.4
79088.5
78378.7
77818.6
77395.1
108846
108840
108829
108811
108788
108760
108727
108688
108643
108591
108532
108465
108391
108310
108221
108123
108015
107897
107771
107635
107489
107334
107170
106998
106817
106627
106429
106224
106015
105794
105564
105328
105085
104834
104574
104306
104031
103748
103459
103163
102857
102539
102211
101880
101555
101239
100922
100596
100270
99944.2
99618.3
99293.7
98970.3
98648.7
98329.5
98012.6
97697.6
97384.4
97072.5
96761.5
96450.9
96139.9
95827.9
95514
95197.4
94877.2
94552.2
94221.6
93884.7
93540.7
93188.9
92828.7
92460
92082.5
91696.3
91301.9
90900.1
90491.3
90076.5
89657
89234
88809.4
88384.9
87962.6
87544.5
87132.5
86729.2
86336.8
85957.4
85593.4
85246.6
84919
84612.5
84328.7
84069.1
83834.6
83626.8
83445.4
83291.4
83164
83062.7
82987.3
82934.6
82904.1
82892.9
82900
82924.3
82964.7
83018.7
83085.6
83163
83248
83341.8
83445
83552.7
83663.6
83782.2
83908.5
84042.6
84180.2
84322.2
84462.6
84595
84731.7
84888.4
85055.8
85223.8
85387.4
85546.1
85708.6
85887.9
86091.2
86317
86556.9
86799.9
87048.3
87305.7
87564.4
87824.1
88085.4
88350.2
88618.9
88871.4
89098.5
89310.8
89500.9
89654.1
89774.8
89859.1
89900.9
89891.9
89835.2
89734.8
89598
89428.3
89233.6
89020.3
88806.9
88596.6
88399.7
88208.8
88034.2
87812.2
87590.3
87334.8
86942.8
86601.7
86141.4
85587.6
84963.2
84184
83371.8
82543.2
81692.1
80869.5
79978.5
79203.6
78493.7
77980.1
77552.4
107858
107854
107844
107829
107809
107785
107754
107717
107673
107622
107565
107503
107437
107364
107283
107193
107093
106985
106869
106743
106608
106465
106315
106159
105996
105826
105648
105463
105270
105074
104868
104656
104436
104208
103973
103732
103486
103230
102966
102693
102414
102124
101832
101539
101249
100960
100664
100363
100061
99759.5
99457.8
99157.5
98858.3
98561.1
98265.8
97972.5
97681
97390.9
97102
96813.6
96525.1
96235.8
95945.1
95652
95355.7
95055.3
94749.7
94438
94119.4
93793.1
93458.6
93115.3
92762.9
92401.5
92030.9
91651.7
91264.5
90870.1
90469.2
90063.1
89653.2
89241.1
88828.4
88416.9
88009.3
87607.2
87212.8
86828.7
86456.9
86099.6
85759.2
85437.1
85135.8
84856
84600.9
84369.7
84165.4
83987.4
83835.9
83712.3
83614.1
83542.1
83493.2
83466
83457.1
83464.7
83487.5
83523.4
83572
83633.5
83703.6
83778.8
83863.9
83959.7
84058.5
84161.7
84270.4
84385.1
84510.3
84640.1
84776.1
84917.6
85050.4
85176.4
85312
85456
85607.2
85759.6
85909.4
86061.1
86228.2
86417.7
86627.4
86849.8
87074.8
87303.4
87536.8
87771
88006.8
88244.7
88489.6
88729
88956
89159.3
89341.2
89501.8
89630.7
89727
89787.3
89806.9
89778.4
89701.5
89582.6
89428.7
89243.8
89038.5
88815.6
88592.5
88372.9
88168.7
87972.3
87806
87579.7
87366.6
87129.7
86742
86438.3
85980.8
85446.3
84849.3
84103.1
83323.5
82537.1
81740
80944.1
80093.7
79338.7
78645.2
78153.4
77728.6
106744
106742
106735
106723
106706
106685
106657
106623
106583
106537
106486
106430
106368
106298
106221
106138
106047
105950
105847
105736
105617
105491
105360
105223
105080
104930
104773
104610
104441
104265
104084
103895
103698
103495
103286
103074
102856
102630
102394
102152
101906
101655
101405
101148
100890
100629
100361
100088
99816.2
99543.1
99270.6
98999.1
98728.6
98460
98192.9
97927.3
97663
97399.9
97137.3
96874.8
96611.9
96347.7
96081.5
95812.6
95540
95262.7
94979.6
94689.9
94392.8
94087.3
93773
93449.7
93116.5
92773.8
92421.3
92059.8
91689.8
91312.1
90927.6
90537.3
90142.9
89745.8
89347.6
88949.9
88555.3
88165.6
87783.1
87409.8
87048.2
86700.1
86368
86053.2
85758.7
85484.6
85234.2
85007.9
84806.4
84632.3
84483.5
84361.8
84265.8
84195.3
84148.2
84122.6
84116.2
84125.1
84150
84186.4
84232.4
84289.9
84353.9
84419.3
84496.7
84583.3
84666.5
84758.4
84859.2
84964.4
85076.8
85189.2
85309.5
85445.5
85584.7
85706
85819
85937.1
86070.1
86209.1
86347
86484.1
86634.5
86806
86996.3
87197.4
87399.3
87603.5
87810
88019.8
88232.1
88445.4
88661.3
88871.6
89060.4
89230.6
89382.4
89510.5
89609.5
89677.4
89709.6
89704
89650.4
89549.9
89410.6
89236.6
89033.9
88812.8
88583.2
88353.6
88125.8
87911.7
87716.5
87533.7
87324.3
87115.7
86889.1
86517.7
86239.1
85799.4
85298
84721.6
84012.3
83271.5
82527.8
81787.3
81035
80228.1
79501.3
78826
78287.4
77900.9
105530
105530
105525
105517
105503
105485
105462
105433
105400
105361
105316
105264
105207
105143
105073
104998
104919
104837
104749
104657
104559
104455
104346
104230
104108
103979
103843
103701
103552
103397
103237
103071
102901
102724
102544
102360
102170
101974
101770
101563
101357
101148
100934
100711
100485
100255
100018
99779.4
99540.7
99300.6
99061.2
98822.2
98584.1
98347.3
98111.7
97877.1
97643.4
97410.3
97177.2
96943.7
96709.3
96473.3
96234.8
95993.1
95747
95495.7
95238.1
94973.2
94700.4
94418.9
94127.8
93827.3
93516.4
93195.4
92864.3
92523.2
92173.2
91814.7
91449.1
91077.1
90700.3
90320.1
89938.3
89556.6
89177.2
88801.9
88433.3
88073.5
87724.3
87388.5
87067
86762.5
86476.3
86210.2
85965.6
85745.1
85548.8
85378.4
85233.4
85114.5
85021.1
84952.1
84905.9
84878.5
84872.6
84881.4
84904.1
84940.7
84984.4
85035.1
85100.1
85159.2
85227.7
85302.7
85380.5
85458.9
85544.2
85639.7
85742.8
85838.9
85936.2
86053.9
86191
86313.5
86409.8
86502.7
86614.9
86738.7
86860.1
86979.9
87108.4
87257.6
87423.2
87598.8
87773.1
87949.3
88126.7
88309.6
88494.5
88678.2
88855.9
89019.3
89177.3
89317.3
89434.4
89527.1
89592.9
89629.1
89629.9
89594.1
89512.3
89386.3
89222.6
89027.4
88809.8
88571.8
88327.7
88088.4
87856.8
87634.3
87433
87244.1
87048.8
86845.8
86632.6
86261.9
86040.4
85618.3
85143.5
84570.2
83911.2
83209.8
82526.2
81834.8
81134.9
80380.2
79687.4
79039.7
78511.6
78151.3
104245
104246
104244
104238
104228
104214
104196
104174
104148
104117
104081
104039
103991
103938
103880
103819
103754
103686
103615
103542
103464
103380
103290
103193
103090
102982
102868
102748
102622
102489
102352
102210
102065
101917
101765
101609
101449
101284
101115
100948
100780
100606
100424
100236
100044
99847.5
99646.2
99444.8
99241.8
99037.8
98833.9
98630.2
98427.3
98225.1
98023.6
97822.6
97621.9
97421.1
97220
97018.2
96814.9
96609.7
96401.6
96189.6
95972.7
95750
95520.4
95283
95036.8
94781.6
94516.4
94241.2
93955.4
93658.8
93351.9
93034.5
92707.5
92371.4
92027.2
91676.4
91320.2
90960
90597.6
90234.2
89871.7
89512.6
89158.9
88814.3
88479.4
88158
87850.6
87558.6
87284.8
87028.4
86792.4
86579
86388.5
86223.2
86083.2
85968.2
85878.8
85810.6
85766
85738.2
85729.9
85737.8
85754.7
85787
85829.3
85871.5
85925.7
85988.8
86047.2
86109.7
86178.8
86250.2
86320.4
86396.8
86486.1
86576
86657.9
86748.8
86868.5
86990.5
87078.3
87150.5
87238.6
87344.3
87446.9
87549.5
87651.2
87773.4
87909.3
88053.9
88197.2
88342.3
88488.2
88638.3
88789.3
88937.1
89075.5
89200.3
89325.1
89420.1
89498.1
89553.9
89584
89585.2
89551.4
89479.7
89365.2
89207.9
89018.8
88799.1
88567.1
88319
88060.6
87807.6
87570
87344.3
87135.5
86944.7
86755.8
86559.9
86358.9
86018.1
85806.8
85424.7
84959.8
84394.4
83798.2
83153.2
82527.4
81882.5
81248.1
80568.3
79893.7
79315.2
78848.5
78489.3
102918
102921
102920
102916
102909
102900
102888
102872
102853
102830
102803
102772
102736
102697
102654
102609
102560
102507
102451
102392
102329
102261
102189
102112
102029
101942
101851
101754
101653
101547
101436
101321
101203
101082
100960
100835
100707
100577
100445
100313
100177
100035
99886.2
99733.7
99578.3
99418.3
99255.8
99092.3
98926.6
98760.2
98593.6
98427
98260.9
98095.1
97929.5
97763.8
97597.8
97431.3
97264.3
97096.1
96926.4
96754.2
96578.7
96398.8
96213.5
96021.8
95822.5
95615.1
95398
95171.3
94934.2
94686.5
94428.3
94158.5
93878
93586.6
93285.4
92974.8
92655
92327.5
91993.9
91656.4
91316.4
90975.7
90634.5
90295
89958.6
89629.8
89311.6
89003.9
88712.7
88435.3
88176.9
87934.3
87709
87506.5
87323.8
87164.4
87030.2
86919.4
86834
86769.6
86726
86700.9
86690.4
86694.7
86709.8
86733
86768.6
86809.1
86850.3
86901
86955.4
87004.7
87059.3
87121.4
87180.9
87238.9
87307.7
87389.2
87462.5
87530.4
87621.9
87733.7
87817.4
87874.8
87937.9
88022.1
88105.5
88190.1
88264.3
88352.7
88455.1
88563.4
88672
88782.3
88893.8
89006
89117.6
89226.8
89325.8
89411.3
89489.3
89541
89577.8
89595.6
89586.9
89549.2
89477.1
89367.6
89218.3
89029.7
88811.8
88570.2
88316
88056
87786.6
87520.6
87275
87045.6
86831.1
86638.8
86453.9
86264.5
86069.9
85770.1
85536.2
85211.9
84762
84217.2
83656
83093.6
82521.4
81936.2
81360.6
80809.4
80137.4
79649
79196
78837.3
101578
101583
101585
101585
101583
101578
101570
101559
101544
101528
101509
101488
101464
101437
101408
101376
101340
101301
101259
101214
101166
101116
101063
101007
100947
100883
100815
100743
100668
100589
100506
100420
100330
100239
100147
100054
99958.2
99862
99763.7
99662.8
99557.6
99448.4
99335.5
99220
99101.3
98979.3
98855.6
98729.8
98602.1
98473.9
98345.2
98216.4
98087.9
97959.3
97830.4
97701
97571.1
97440.5
97309.1
97176.4
97041.8
96904.4
96763.4
96617.6
96466.1
96307.6
96140.7
95965.1
95779.5
95583.1
95376.4
95158.3
94929.8
94689.5
94437.7
94174.5
93901.2
93618.5
93326.6
93025.8
92717.1
92403.9
92087.3
91770.7
91454.2
91139
90825.7
90515.7
90219.7
89926.4
89651.2
89389.8
89145.6
88919.5
88710.5
88521.1
88351.3
88201.2
88072.7
87966.7
87884.7
87825.6
87785
87761.3
87750.8
87752.3
87765.2
87783.8
87809.2
87842.5
87875.3
87910.9
87953.5
87995.5
88033.9
88078.8
88128.6
88171.8
88216
88279
88346.8
88398.5
88458.5
88547.4
88625.3
88670.8
88709.4
88769.5
88835.2
88897.8
88947.4
88995.8
89061.1
89129.1
89198.3
89269.9
89342.8
89414.3
89485.6
89552.3
89608.4
89650.8
89668.6
89689.6
89683.8
89658.2
89607.2
89527.6
89413.7
89263.3
89076
88855.8
88608.3
88344.8
88068.7
87789.2
87508.8
87233.4
86978.5
86744.6
86526.8
86331.6
86148.5
85965.3
85775.3
85510
85284.3
84979.5
84554.8
84052.1
83542.9
83040.3
82518.6
81985.9
81468.2
81019.1
80426.4
79980
79563
79249
100248
100255
100260
100263
100265
100264
100262
100257
100250
100241
100229
100216
100200
100183
100164
100143
100120
100096
100070
100041
100011
99979.2
99944.2
99907.1
99868
99826.1
99781.6
99734.5
99684.8
99632.6
99578.3
99521.6
99462.7
99403
99341.4
99278.5
99214.4
99148.8
99081.3
99011.5
98939
98863.9
98786.6
98706.8
98624.5
98539.7
98453.1
98364.6
98274.8
98184.2
98093.2
98002.3
97911.3
97820.1
97728.3
97636
97542.8
97448.7
97353.7
97257.7
97159.6
97058.2
96953
96842.7
96726.3
96602.6
96469.8
96327.4
96174.9
96010.3
95835.8
95649.7
95452.7
95244.3
95024.1
94791.9
94548.8
94295.9
94034.1
93763.5
93483.1
93199.8
92909
92617.1
92325.6
92035.7
91748.7
91464.2
91189.5
90920
90663.5
90420.7
90192.9
89983.1
89791.7
89617.9
89461.8
89324.8
89206.8
89109.1
89031.7
88975.4
88938
88915.8
88906.5
88906.4
88915
88931.5
88950.3
88972.9
88998.2
89022.2
89049.3
89079.9
89107.7
89133.1
89165.4
89197.2
89221.5
89256.4
89309.6
89349.3
89381.3
89436.8
89500.4
89534.8
89551.9
89584.6
89631
89669.5
89697.9
89706.3
89727.4
89752.5
89777.8
89806.7
89837.2
89865.3
89894.3
89917
89928.2
89921.7
89901.9
89870
89816.9
89744.7
89649.5
89523.1
89365
89172.6
88945.2
88691.1
88412.4
88124.4
87826.9
87527.9
87233.7
86947.5
86684.1
86446.5
86226.3
86029.4
85843.3
85668.7
85477.4
85248.6
85025.9
84738.9
84350.2
83905.1
83457.2
83025.1
82538.3
82035.8
81579.7
81116.1
80734.9
80303.6
79976.2
79736.1
98949.9
98958
98964.9
98970.7
98975.3
98979.2
98982
98983.1
98982.9
98981.4
98978.1
98973
98966.7
98959.8
98952
98943.8
98934.1
98922.6
98910.3
98896.1
98880.8
98864.7
98847.8
98829.9
98811.1
98791.1
98769.7
98746.7
98722.3
98696.3
98669.3
98641.1
98612.4
98582.9
98551.2
98518.4
98484.6
98449.2
98412.5
98374.1
98334.1
98292.3
98248.7
98203.3
98155.8
98106.5
98055.8
98003.6
97950.3
97896.5
97842.7
97788.8
97734.8
97680.7
97626.1
97570.4
97513.9
97456.4
97397.3
97339.3
97279
97213.2
97144.8
97070.4
96989.5
96901.7
96804
96696.1
96578.8
96444.7
96305.4
96153.1
95990.2
95815.3
95628.9
95429.8
95220
94999.4
94769.4
94530.5
94283.4
94030
93770.8
93508.7
93245.2
92982.6
92722.4
92465.7
92216.3
91973.9
91740.4
91520.1
91313.3
91122.3
90949
90792.3
90652.5
90530.2
90424.7
90338.1
90269
90216.9
90182.1
90161.5
90153.3
90152.2
90157.1
90167.8
90182.5
90198.9
90215.6
90231.3
90243.2
90255.2
90271
90281.8
90292.9
90311
90321.7
90328.9
90353.9
90380.3
90389.6
90407.3
90445.4
90466.2
90463.4
90466.2
90488.9
90502.8
90509.8
90485.4
90456.3
90433.3
90411.1
90393.9
90378.5
90362
90346.2
90321
90283.5
90230.5
90160.8
90075.2
89977.7
89858.9
89715.4
89541.4
89337.1
89100.8
88833.4
88543.1
88233.3
87918.8
87597.1
87278.9
86969.1
86670.8
86400.3
86156
85930.1
85735.2
85545.1
85377.9
85190.8
84986.8
84771.5
84503.7
84151.9
83771.5
83370.3
82999
82576.9
82126.2
81724.9
81299.9
81007.8
80681.4
80443.9
80259.7
97702.1
97711.7
97720.7
97729.6
97739
97748
97755.6
97762.1
97768.1
97773.2
97777.5
97781.7
97784.8
97787
97789.4
97791.4
97794.5
97797
97797.1
97797.2
97797.1
97796.9
97796.9
97797
97797.2
97797.5
97797.5
97797
97796.2
97795
97793.8
97792.7
97792
97789.8
97786.9
97783.4
97779.1
97773.7
97767.3
97759.7
97750.9
97740.8
97729.4
97716.4
97702.2
97686.8
97670.4
97653
97635.1
97616.8
97598.6
97580.6
97562.7
97544.7
97526.2
97506.9
97486.8
97465.8
97443.8
97421.1
97396.4
97368
97335.6
97297.6
97253.1
97201
97139.3
97066.8
96982.9
96887.2
96781.3
96664.8
96537.1
96397.6
96246.1
96082.4
95907.3
95721.2
95525.2
95320.1
95106.6
94886.2
94659.9
94430
94198.3
93966.8
93737.3
93511.8
93291.1
93077.8
92871.8
92677
92495.3
92326.4
92173.3
92035.9
91914.6
91810.8
91720.4
91645.7
91587.3
91542.1
91510.3
91491.2
91481.9
91480.6
91484.5
91490.7
91499.7
91511.7
91520.1
91526.5
91528.3
91523.1
91522.5
91520.7
91511.8
91508.1
91505.8
91491.6
91482.9
91488.2
91477.2
91460.6
91465.1
91466
91441.7
91413
91406.7
91397.5
91378.1
91328.5
91252.4
91173.7
91098.5
91032.5
90968.7
90905.9
90842.1
90767
90678.4
90575.4
90457.1
90326.3
90174.1
90005.1
89811
89586.5
89335.1
89054.2
88745.4
88415.5
88074.9
87732.5
87386.9
87049.1
86725.2
86413.3
86133.7
85878.8
85647.7
85452.2
85262.5
85101.1
84920.1
84732.4
84528.7
84281.5
83966.1
83652.5
83290
82966.8
82612
82264
81906.9
81547.4
81316.8
81122.3
80968.5
80833.7
96521.6
96532.8
96543.2
96554.3
96566.3
96578.7
96591.5
96604.5
96617.9
96631.6
96644.9
96657.6
96669.7
96681.4
96693.4
96706.1
96720.2
96734.8
96748.9
96763.2
96777.4
96792.1
96807.4
96825
96841.9
96860
96879.1
96899.4
96920.6
96942.4
96965.3
96991
97015
97038.8
97062.5
97086
97109.3
97132
97154.1
97176
97196.3
97215.9
97234.8
97252.8
97270.3
97287.1
97303.3
97319.1
97334.8
97350.4
97366.2
97382.6
97399.1
97415.6
97432.1
97447.9
97463
97477.4
97491.1
97503.6
97514.2
97522
97525.2
97522.8
97513.9
97497.7
97472
97435.2
97386.7
97327
97257.2
97177.5
97086.8
96984.2
96869.4
96742.1
96603.4
96453.5
96293.2
96123.7
95945.5
95760.4
95569.3
95373.9
95176.2
94978.2
94781.9
94589
94400.2
94217.9
94043.2
93877.6
93723
93580.3
93451.4
93336.9
93236
93150.9
93079
93019.1
92972.9
92936.7
92909.8
92893.8
92886.1
92885.5
92888.7
92892.6
92895.1
92902
92904.4
92899.9
92894.4
92877.2
92857.2
92841.3
92816.4
92787.6
92767.4
92736
92695.7
92672.1
92641.6
92593.4
92559.4
92534.2
92485.4
92422.7
92381.8
92351
92302.4
92227
92115.8
91982.1
91847
91725.7
91611.4
91499
91384
91256.6
91116.5
90962
90793.3
90608.6
90405.8
90186.4
89941.6
89666.1
89364.9
89038.8
88688.6
88319.8
87945
87570.5
87202.2
86843
86508.1
86176.4
85885.7
85623.9
85386.7
85189
85000.4
84841.4
84668.9
84492.5
84303.7
84078.5
83803
83549.4
83241.2
82941.6
82678.6
82452.3
82122.9
81849
81698.4
81619.4
81542.2
81485.3
95433.9
95442.2
95451.8
95462.7
95475.3
95490.6
95508.2
95528.2
95548.6
95569.5
95591.7
95613.6
95635.9
95658.7
95681.6
95704.8
95728.3
95752.4
95777.1
95803.2
95831.4
95861
95892
95924.7
95959.1
95995.7
96033.8
96073.7
96114.7
96157.6
96202.8
96248.5
96294.1
96341.1
96389.2
96437.6
96486
96534.7
96583.3
96631.5
96679.2
96726.5
96773.6
96820.5
96867.2
96914
96960.8
97007.8
97055
97102.4
97150.3
97199
97248.1
97297.6
97347.1
97396.2
97445
97493.3
97540.7
97587.1
97631.8
97674
97711.7
97743.5
97769
97787.6
97797.3
97795.6
97782.2
97758.2
97724.8
97682.3
97629.1
97564.1
97486.7
97397
97295.7
97183.4
97060.8
96928.6
96787.9
96639.9
96485.6
96327.3
96166.2
96004.4
95843.2
95684.1
95529.4
95380.3
95237.9
95103.7
94979.3
94866.2
94764.2
94675.8
94600
94536.4
94484.1
94440.9
94408.4
94383.2
94365
94355.7
94351.6
94352.9
94356.3
94359.7
94358.6
94359.4
94358.1
94344.6
94330
94305.7
94268.4
94235.8
94198.8
94147.6
94103.6
94055
93988.9
93932
93877.9
93800.4
93726.2
93669.4
93593.1
93495.4
93414.8
93356.6
93281.1
93175.2
93035.9
92860.1
92666.3
92482.9
92311.1
92144.2
91973.8
91794.3
91601.4
91394.2
91172.7
90934.8
90677.1
90408.6
90112.1
89784.5
89432.6
89059.6
88668.1
88258.4
87849.4
87436.4
87048.7
86660.9
86306.6
85969.1
85664.4
85396.2
85152.9
84952
84762.9
84603.9
84437.1
84274.8
84101.8
83903.5
83672.2
83466
83224.7
82972.1
82793.6
82655.9
82395.4
82213
82142.3
82164.1
82165.9
82195.1
94436.5
94443.3
94456.1
94474.3
94494.4
94512.5
94530.3
94550
94572.5
94596.9
94623.7
94654.5
94687.6
94722.5
94758.5
94796.4
94834.7
94873.9
94914.5
94956.1
94998.1
95041.4
95085.9
95131.6
95178.6
95226.6
95276.8
95329.5
95385.3
95444.3
95506.2
95570.8
95637.4
95706
95776.1
95847.2
95918.8
95990.9
96063.1
96135.5
96208.1
96280.8
96353.8
96427.1
96500.8
96575
96649.8
96725.3
96801.6
96878.4
96956.1
97034.8
97114.2
97194.2
97274.6
97354.9
97435.1
97515
97594.3
97672.5
97749.1
97823.8
97894.1
97958.3
98016.4
98068.4
98112
98144.2
98164.9
98175.7
98178.3
98172.4
98156.1
98127.8
98087.5
98035.1
97971.4
97897.1
97812.6
97718.9
97616.5
97506.9
97390.9
97270.8
97147.6
97023
96898.7
96776.3
96657.9
96544
96436.6
96336.2
96244
96162.5
96090.7
96030.2
95980.5
95940.7
95910.2
95887.4
95872.5
95862.4
95856.7
95857.7
95860.7
95866.1
95872.8
95877.4
95876.8
95873.5
95868.2
95848.5
95823.2
95793.9
95744.8
95695.3
95646.5
95578
95507.9
95439.7
95351.6
95260.2
95177
95073.5
94961.6
94867.9
94762.4
94629.4
94505.2
94409.8
94307.5
94170.1
94000
93793.4
93552.6
93308
93073.1
92845.2
92616.3
92382.3
92135.9
91874.2
91598.2
91307.7
91005
90676.2
90324.2
89943.6
89541.2
89120.5
88683.7
88235.7
87791.3
87345.4
86921.2
86512.4
86138.2
85795.6
85478.7
85196.3
84948.1
84743.8
84553.4
84396
84232.9
84086
83927.8
83758.2
83572.3
83407.9
83237.9
83061.2
82924.3
82874
82740.5
82631.4
82624.9
82749.6
82840.4
82968
93543
93556.1
93573.1
93589.8
93607.5
93628.5
93653.4
93682.2
93715.1
93750.9
93788.6
93827.3
93867.3
93907.9
93949.8
93992.6
94037.9
94085.5
94135
94186.2
94239.1
94293.7
94350.2
94408.5
94469
94531.6
94596.9
94665.2
94736.8
94811.9
94890.4
94972.2
95057.1
95144.4
95233.6
95324.5
95416.4
95509.1
95602.5
95696.4
95790.9
95886.1
95982.1
96079.1
96177.2
96276.1
96376.2
96477.6
96580.2
96683.8
96788.5
96894.6
97001.6
97109.4
97218
97326.8
97435.9
97544.8
97653.2
97760.6
97866.7
97971.4
98071.8
98165.9
98254.3
98337.7
98413
98477
98530
98574.8
98612.2
98641.5
98660.5
98667.7
98663.3
98647.4
98620.7
98583.5
98536.4
98480.5
98416.2
98345.3
98268.5
98187.2
98102.7
98016.2
97930
97845
97763.5
97686.4
97615.2
97550.7
97493.8
97445.4
97405.7
97375.3
97353.9
97340.4
97335.6
97336.5
97343.1
97352.9
97365.6
97380.5
97394.6
97408.1
97421.3
97429.6
97432.7
97427.4
97418.2
97393.7
97359.5
97323.4
97269.4
97206.1
97143.5
97061.3
96967.7
96878.1
96770.8
96647.8
96533.1
96405.5
96259.3
96124.7
95988.5
95821.4
95650.5
95507.9
95374
95207.3
95003.3
94767.2
94491.1
94192.7
93896.1
93603.2
93312.9
93021.6
92720.6
92403.5
92073
91728.6
91370
90989.7
90583
90148.9
89695.6
89224.7
88745.3
88257.9
87774.7
87296.6
86840.8
86411.1
86018.7
85658.4
85326.6
85030.8
84781.7
84568.7
84372.7
84227.9
84063.2
83931.1
83789.6
83648.6
83509.9
83388.8
83282.7
83192.8
83080.4
83077.5
83102.2
83079.5
83176.9
83383.7
83559.3
83817.7
92873.2
92886.6
92900.1
92917.6
92940.2
92967.5
92998.9
93033.5
93070.9
93110.6
93153.1
93197.8
93244.5
93292.7
93342.6
93394.1
93447.8
93503.5
93561.4
93621.1
93682.7
93746.2
93811.7
93879.3
93949
94021.3
94096.7
94175.6
94258.5
94345.6