/*--------------------------------*- C++ -*----------------------------------*\
| =========                 |                                                 |
| \\      /  F ield         | OpenFOAM: The Open Source CFD Toolbox           |
|  \\    /   O peration     | Version:  dev                                   |
|   \\  /    A nd           | Web:      http://www.openfoam.org               |
|    \\/     M anipulation  |                                                 |
\*---------------------------------------------------------------------------*/
FoamFile
{
    version     2.0;
    format      ascii;
    class       surfaceScalarField;
    object      phi_0;
    location    "9.117";
}
// * * * * * * * * * * * * * * * * * * * * * * * * * * * * * * * * * * * * * //

dimensions      [1 0 -1 0 0 0 0];

internalField   nonuniform List<scalar> 
24170
(
2.02895e-06
1.75332e-06
1.19724e-06
1.35532e-06
7.67446e-07
9.12655e-07
5.67795e-07
6.6105e-07
3.74278e-07
6.24673e-07
2.76149e-07
5.22461e-07
8.7556e-08
5.90568e-07
2.06123e-08
4.68474e-07
-1.67832e-07
5.70804e-07
-1.92501e-07
4.08295e-07
-4.09825e-07
5.79785e-07
-4.13086e-07
3.66708e-07
-7.1386e-07
6.38466e-07
-5.33931e-07
1.54962e-07
-1.27117e-06
1.05415e-06
-7.39427e-07
-2.43071e-07
-2.30358e-06
1.87304e-06
2.66458e-06
-4.77952e-06
3.6117e-06
1.99075e-06
3.05626e-06
2.37201e-06
2.60545e-06
1.80314e-06
2.24931e-06
1.44004e-06
1.97673e-06
1.30412e-06
1.76719e-06
1.12817e-06
1.58419e-06
1.15957e-06
1.46919e-06
9.64781e-07
1.32971e-06
1.08256e-06
1.23947e-06
8.69172e-07
1.11891e-06
1.05707e-06
1.10369e-06
7.37409e-07
8.6664e-07
1.21062e-06
1.32023e-06
2.83515e-08
3.62046e-07
2.32507e-06
1.85613e-06
-1.45604e-06
-6.03236e-07
4.63228e-06
2.93739e-06
-6.17478e-07
4.39119e-06
2.09711e-06
4.17612e-06
3.08988e-06
3.98569e-06
2.47434e-06
3.7113e-06
2.17555e-06
3.45385e-06
2.00646e-06
3.23997e-06
1.7717e-06
3.02146e-06
1.80049e-06
2.89147e-06
1.5073e-06
2.64341e-06
1.73984e-06
2.75942e-06
1.15271e-06
2.37294e-06
1.83848e-06
2.8014e-06
6.89227e-07
2.08052e-06
2.30697e-06
2.84553e-06
-3.86338e-07
1.61427e-06
3.90346e-06
2.31367e-06
-1.8418e-06
1.86902e-06
5.38706e-06
3.8419e-06
1.24645e-06
4.73584e-06
2.30113e-06
4.90718e-06
3.46983e-06
4.85396e-06
3.0575e-06
4.86496e-06
2.66804e-06
4.6363e-06
2.72448e-06
4.64794e-06
2.2273e-06
4.35921e-06
2.55245e-06
4.4321e-06
1.88141e-06
4.03757e-06
2.58253e-06
4.24405e-06
1.37781e-06
3.7291e-06
2.78498e-06
4.06491e-06
7.65653e-07
3.38603e-06
3.39244e-06
3.6995e-06
-3.16412e-07
3.278e-06
4.69987e-06
2.95054e-06
-1.16731e-06
3.48053e-06
5.18024e-06
3.27784e-06
4.33951e-06
5.04697e-06
2.70473e-06
5.55512e-06
3.56352e-06
5.42042e-06
3.77414e-06
5.6692e-06
2.96932e-06
5.39682e-06
3.53334e-06
5.58575e-06
2.55045e-06
5.24964e-06
3.39523e-06
5.45716e-06
2.16463e-06
5.06119e-06
3.46783e-06
5.18084e-06
1.73309e-06
4.78682e-06
3.64865e-06
4.86665e-06
1.13935e-06
4.57959e-06
4.11921e-06
4.33805e-06
3.47089e-07
4.64943e-06
4.79109e-06
3.54785e-06
3.14591e-07
4.21931e-06
4.86286e-06
3.55209e-06
4.28136e-06
5.46439e-06
3.20857e-06
5.91538e-06
3.77039e-06
5.72434e-06
4.59975e-06
5.97719e-06
3.31846e-06
5.73747e-06
4.35888e-06
5.92341e-06
2.92742e-06
5.68077e-06
4.19124e-06
5.85792e-06
2.52735e-06
5.62986e-06
4.23154e-06
5.64193e-06
2.24242e-06
5.5261e-06
4.27641e-06
5.40725e-06
1.75453e-06
5.60949e-06
4.39895e-06
4.98716e-06
1.4308e-06
5.5404e-06
4.68089e-06
4.37764e-06
1.89435e-06
5.17302e-06
4.45996e-06
4.30712e-06
4.77764e-06
6.08911e-06
3.54811e-06
6.41723e-06
4.15984e-06
6.29041e-06
5.41724e-06
6.42546e-06
3.84047e-06
6.26616e-06
5.15657e-06
6.32688e-06
3.48129e-06
6.21059e-06
4.90928e-06
6.21124e-06
3.11543e-06
6.20491e-06
4.81858e-06
6.10372e-06
2.90955e-06
6.28276e-06
4.6504e-06
5.94986e-06
2.62842e-06
6.28877e-06
4.58489e-06
5.54589e-06
2.67875e-06
6.10823e-06
4.60104e-06
5.17033e-06
3.28766e-06
5.69613e-06
4.35705e-06
4.72406e-06
5.67536e-06
4.85122e-06
3.81657e-06
4.89407e-06
4.66971e-06
4.86162e-06
5.98113e-06
4.89886e-06
4.30858e-06
4.90296e-06
5.64299e-06
4.89001e-06
3.96649e-06
4.91766e-06
5.34282e-06
4.83808e-06
3.64613e-06
4.97573e-06
5.12382e-06
4.81919e-06
3.49945e-06
5.03744e-06
4.85625e-06
4.71324e-06
3.36861e-06
4.92006e-06
4.78205e-06
4.43475e-06
3.5529e-06
4.76017e-06
4.64426e-06
4.32509e-06
4.06956e-06
4.5467e-06
4.45851e-06
4.92186e-06
4.65354e-06
5.69624e-06
4.00729e-06
5.74567e-06
5.25333e-06
5.7515e-06
6.58311e-06
5.71214e-06
4.92726e-06
5.75346e-06
6.16225e-06
5.66686e-06
4.59331e-06
5.75712e-06
5.77833e-06
5.6085e-06
4.30974e-06
5.80348e-06
5.43356e-06
5.61699e-06
4.18186e-06
5.79484e-06
5.16353e-06
5.46218e-06
4.17714e-06
5.64835e-06
5.05663e-06
5.26539e-06
4.37803e-06
5.51251e-06
4.8145e-06
5.25418e-06
4.72122e-06
5.34234e-06
4.74016e-06
5.17083e-06
5.44446e-06
6.51209e-06
4.44731e-06
6.60739e-06
5.88138e-06
6.70192e-06
7.17898e-06
6.68448e-06
5.60424e-06
6.80738e-06
6.67434e-06
6.6616e-06
5.35235e-06
6.81057e-06
6.22407e-06
6.6049e-06
5.09869e-06
6.77954e-06
5.82904e-06
6.57297e-06
4.94912e-06
6.70372e-06
5.58036e-06
6.41887e-06
4.99846e-06
6.57196e-06
5.42132e-06
6.32912e-06
5.11656e-06
6.44222e-06
5.17109e-06
6.33748e-06
5.27017e-06
6.30643e-06
5.19225e-06
5.41695e-06
6.46162e-06
7.94076e-06
4.95795e-06
7.8124e-06
6.82738e-06
7.87834e-06
7.88959e-06
7.82487e-06
6.40312e-06
7.97916e-06
7.23394e-06
7.79301e-06
6.22852e-06
7.9383e-06
6.74482e-06
7.73256e-06
5.95733e-06
7.85741e-06
6.34002e-06
7.67689e-06
5.75562e-06
7.78234e-06
6.08611e-06
7.59551e-06
5.78279e-06
7.69187e-06
5.90073e-06
7.54366e-06
5.81554e-06
7.54829e-06
5.691e-06
7.58022e-06
5.73572e-06
7.54174e-06
5.70401e-06
5.74574e-06
7.66482e-06
9.00147e-06
5.34776e-06
8.87372e-06
7.86933e-06
9.08808e-06
8.53862e-06
9.06933e-06
7.25164e-06
9.26015e-06
7.83376e-06
9.16947e-06
7.08203e-06
9.27947e-06
7.3703e-06
9.1142e-06
6.84164e-06
9.17279e-06
6.98148e-06
9.00266e-06
6.61451e-06
9.05084e-06
6.71002e-06
8.94039e-06
6.54669e-06
8.96847e-06
6.50172e-06
8.96625e-06
6.42013e-06
8.91102e-06
6.3213e-06
9.00956e-06
6.18475e-06
9.06333e-06
6.17226e-06
6.11769e-06
9.1906e-06
1.07648e-05
5.76735e-06
1.06118e-05
9.02965e-06
1.0868e-05
9.22713e-06
1.06995e-05
8.32623e-06
1.082e-05
8.57374e-06
1.06711e-05
8.05792e-06
1.07273e-05
8.11028e-06
1.05921e-05
7.75064e-06
1.06247e-05
7.70151e-06
1.05263e-05
7.4505e-06
1.05538e-05
7.40015e-06
1.05371e-05
7.25812e-06
1.05417e-05
7.16665e-06
1.05659e-05
7.03851e-06
1.0594e-05
6.90779e-06
1.06517e-05
6.71471e-06
1.07784e-05
6.60693e-06
6.51823e-06
1.09162e-05
1.25411e-05
6.13704e-06
1.24643e-05
1.01925e-05
1.27076e-05
9.99405e-06
1.25852e-05
9.41103e-06
1.26383e-05
9.43024e-06
1.25086e-05
9.05572e-06
1.25274e-05
8.92313e-06
1.24579e-05
8.62334e-06
1.2484e-05
8.45469e-06
1.24542e-05
8.24072e-06
1.24718e-05
8.1202e-06
1.24815e-05
7.96097e-06
1.25153e-05
7.82069e-06
1.25646e-05
7.65038e-06
1.26113e-05
7.49434e-06
1.26298e-05
7.30322e-06
1.27469e-05
7.07048e-06
6.84997e-06
1.2973e-05
1.47088e-05
6.29787e-06
1.46938e-05
1.13308e-05
1.4819e-05
1.0907e-05
1.47528e-05
1.04545e-05
1.47917e-05
1.03062e-05
1.47224e-05
9.98951e-06
1.47214e-05
9.74653e-06
1.46804e-05
9.4527e-06
1.46818e-05
9.21391e-06
1.46786e-05
8.98191e-06
1.47074e-05
8.80418e-06
1.47548e-05
8.60121e-06
1.48263e-05
8.4126e-06
1.49118e-05
8.2024e-06
1.50304e-05
7.98834e-06
1.51386e-05
7.78314e-06
1.5227e-05
7.54538e-06
7.21438e-06
1.54062e-05
1.7382e-05
6.70677e-06
1.72579e-05
1.25468e-05
1.73006e-05
1.18554e-05
1.73253e-05
1.1344e-05
1.73688e-05
1.11041e-05
1.73518e-05
1.07889e-05
1.73397e-05
1.04925e-05
1.7312e-05
1.0174e-05
1.73259e-05
9.86351e-06
1.73664e-05
9.57937e-06
1.7448e-05
9.33476e-06
1.75578e-05
9.08071e-06
1.76774e-05
8.86015e-06
1.78015e-05
8.62372e-06
1.79451e-05
8.37056e-06
1.80823e-05
8.15097e-06
1.81954e-05
7.91788e-06
7.56775e-06
1.83136e-05
1.98134e-05
7.0364e-06
2.01266e-05
1.31483e-05
2.03078e-05
1.24779e-05
2.03456e-05
1.20183e-05
2.04347e-05
1.16456e-05
2.04885e-05
1.13013e-05
2.05508e-05
1.09417e-05
2.05983e-05
1.05949e-05
2.06652e-05
1.02374e-05
2.07418e-05
9.91637e-06
2.08106e-05
9.65523e-06
2.08793e-05
9.3839e-06
2.09795e-05
9.11607e-06
2.10658e-05
8.87805e-06
2.1143e-05
8.62368e-06
2.12631e-05
8.35065e-06
2.14073e-05
8.08453e-06
7.75329e-06
2.15287e-05
2.01196e-05
7.26697e-06
2.03548e-05
1.33663e-05
2.06371e-05
1.2549e-05
2.09198e-05
1.20036e-05
2.11811e-05
1.15809e-05
2.14263e-05
1.11974e-05
2.16156e-05
1.08415e-05
2.17302e-05
1.05338e-05
2.17962e-05
1.02083e-05
2.18226e-05
9.90234e-06
2.17976e-05
9.67301e-06
2.17648e-05
9.4069e-06
2.17741e-05
9.09306e-06
2.17947e-05
8.83858e-06
2.18753e-05
8.53162e-06
2.20017e-05
8.21732e-06
2.21294e-05
7.9552e-06
7.66709e-06
2.22239e-05
1.78461e-05
6.93303e-06
1.82529e-05
1.2882e-05
1.85718e-05
1.20905e-05
1.88565e-05
1.15209e-05
1.91241e-05
1.10676e-05
1.93906e-05
1.0645e-05
1.96074e-05
1.02966e-05
1.97415e-05
1.005e-05
1.98062e-05
9.78898e-06
1.98501e-05
9.48311e-06
1.98551e-05
9.28042e-06
1.98426e-05
9.04616e-06
1.985e-05
8.71828e-06
1.98652e-05
8.4594e-06
1.98984e-05
8.15599e-06
1.9967e-05
7.82168e-06
1.99717e-05
7.63778e-06
7.28111e-06
2.00665e-05
1.60828e-05
6.27018e-06
1.64217e-05
1.20524e-05
1.67108e-05
1.12846e-05
1.70187e-05
1.0665e-05
1.73104e-05
1.01981e-05
1.75404e-05
9.80848e-06
1.77229e-05
9.47737e-06
1.78395e-05
9.28384e-06
1.79312e-05
9.04847e-06
1.79865e-05
8.7643e-06
1.80554e-05
8.54166e-06
1.81306e-05
8.32369e-06
1.8193e-05
8.01973e-06
1.8258e-05
7.76558e-06
1.83067e-05
7.50721e-06
1.83044e-05
7.24487e-06
1.83014e-05
7.08041e-06
6.68795e-06
1.83643e-05
1.4515e-05
5.66871e-06
1.49257e-05
1.08688e-05
1.53146e-05
1.0122e-05
1.56669e-05
9.52637e-06
1.59858e-05
9.07324e-06
1.62397e-05
8.72997e-06
1.6437e-05
8.43707e-06
1.66163e-05
8.25172e-06
1.67242e-05
8.08664e-06
1.67682e-05
7.85944e-06
1.6817e-05
7.63103e-06
1.68599e-05
7.43709e-06
1.68683e-05
7.18103e-06
1.687e-05
6.94642e-06
1.68713e-05
6.71655e-06
1.68218e-05
6.52909e-06
1.68307e-05
6.33084e-06
5.96928e-06
1.68429e-05
1.26349e-05
4.91969e-06
1.32002e-05
9.37088e-06
1.37252e-05
8.67019e-06
1.41664e-05
8.15623e-06
1.45263e-05
7.77347e-06
1.48074e-05
7.49714e-06
1.50101e-05
7.27116e-06
1.51845e-05
7.10364e-06
1.53317e-05
6.95978e-06
1.54075e-05
6.80412e-06
1.54489e-05
6.61376e-06
1.54896e-05
6.43039e-06
1.5477e-05
6.24268e-06
1.5462e-05
6.0288e-06
1.54459e-05
5.82275e-06
1.54088e-05
5.68324e-06
1.5443e-05
5.44387e-06
5.15708e-06
1.54337e-05
1.16636e-05
4.33201e-06
1.21039e-05
7.92444e-06
1.25301e-05
7.2442e-06
1.29215e-05
6.76968e-06
1.32628e-05
6.43235e-06
1.35334e-05
6.21855e-06
1.37224e-05
6.06362e-06
1.38353e-05
5.96217e-06
1.39065e-05
5.85511e-06
1.39576e-05
5.71982e-06
1.39775e-05
5.56338e-06
1.3995e-05
5.39142e-06
1.40167e-05
5.21274e-06
1.39984e-05
5.05656e-06
1.39807e-05
4.87228e-06
1.3999e-05
4.72356e-06
1.40157e-05
4.51656e-06
4.30362e-06
1.39893e-05
1.03221e-05
3.5182e-06
1.097e-05
6.25343e-06
1.1463e-05
5.73784e-06
1.18299e-05
5.39946e-06
1.21192e-05
5.13855e-06
1.23549e-05
4.97142e-06
1.25458e-05
4.85226e-06
1.26831e-05
4.79528e-06
1.27815e-05
4.72205e-06
1.28471e-05
4.61765e-06
1.28818e-05
4.49332e-06
1.28918e-05
4.35507e-06
1.28885e-05
4.20086e-06
1.28639e-05
4.08252e-06
1.28043e-05
3.95596e-06
1.28066e-05
3.7702e-06
1.27667e-05
3.63477e-06
3.47487e-06
1.27052e-05
9.39177e-06
2.61263e-06
9.90702e-06
4.74226e-06
1.03311e-05
4.32967e-06
1.06604e-05
4.09735e-06
1.09302e-05
3.89621e-06
1.1171e-05
3.75196e-06
1.13677e-05
3.66812e-06
1.15196e-05
3.64761e-06
1.16241e-05
3.61585e-06
1.16833e-05
3.55458e-06
1.17146e-05
3.46089e-06
1.1723e-05
3.35221e-06
1.17e-05
3.2402e-06
1.16463e-05
3.16881e-06
1.16114e-05
3.04289e-06
1.15693e-05
2.88843e-06
1.15206e-05
2.78679e-06
2.66314e-06
1.14648e-05
8.33103e-06
1.85749e-06
8.90702e-06
3.22434e-06
9.40714e-06
2.89925e-06
9.79681e-06
2.78755e-06
1.00819e-05
2.69317e-06
1.02842e-05
2.62776e-06
1.04165e-05
2.60681e-06
1.05066e-05
2.62122e-06
1.05627e-05
2.61776e-06
1.0599e-05
2.57453e-06
1.06165e-05
2.5012e-06
1.06014e-05
2.43117e-06
1.05435e-05
2.3725e-06
1.04691e-05
2.3314e-06
1.04018e-05
2.2168e-06
1.02995e-05
2.1191e-06
1.01948e-05
2.04491e-06
1.95092e-06
1.00883e-05
7.40996e-06
1.04228e-06
8.02405e-06
1.73578e-06
8.4606e-06
1.60013e-06
8.78293e-06
1.61364e-06
9.00486e-06
1.62293e-06
9.13336e-06
1.64845e-06
9.18907e-06
1.69466e-06
9.20308e-06
1.74416e-06
9.18606e-06
1.76657e-06
9.14525e-06
1.74483e-06
9.07991e-06
1.69713e-06
8.98275e-06
1.66397e-06
8.8582e-06
1.64128e-06
8.73052e-06
1.61577e-06
8.58202e-06
1.53839e-06
8.41565e-06
1.47843e-06
8.24979e-06
1.42688e-06
1.37966e-06
8.06255e-06
6.66681e-06
7.47269e-08
7.27264e-06
3.30654e-07
7.59304e-06
4.9236e-07
7.71007e-06
7.20229e-07
7.69094e-06
8.69298e-07
7.59162e-06
9.72962e-07
7.45564e-06
1.0504e-06
7.30987e-06
1.10331e-06
7.15614e-06
1.12805e-06
6.98529e-06
1.12009e-06
6.79114e-06
1.09521e-06
6.58233e-06
1.07987e-06
6.37288e-06
1.0647e-06
6.15532e-06
1.05828e-06
5.91736e-06
1.01593e-06
5.66976e-06
9.83558e-07
5.42219e-06
9.52562e-07
9.23847e-07
5.17818e-06
6.08136e-06
-7.39613e-07
6.05497e-06
-3.63653e-07
5.80989e-06
2.65934e-08
5.50672e-06
3.22079e-07
5.18932e-06
4.88143e-07
4.89677e-06
5.6387e-07
4.64832e-06
5.90777e-07
4.4333e-06
6.0292e-07
4.23933e-06
6.00017e-07
4.04706e-06
5.86497e-07
3.83426e-06
5.81354e-07
3.62261e-06
5.67946e-07
3.41269e-06
5.57623e-07
3.22822e-06
5.36046e-07
3.02764e-06
5.23126e-07
2.82462e-06
5.09682e-07
2.63045e-06
4.88313e-07
4.80856e-07
2.43586e-06
3.9191e-06
2.86219e-06
2.21008e-06
1.86718e-06
1.69704e-06
1.60334e-06
1.53406e-06
1.47357e-06
1.4077e-06
1.32802e-06
1.24551e-06
1.15495e-06
1.06237e-06
9.59554e-07
8.57811e-07
7.59084e-07
6.5732e-07
5.68386e-07
3.42411e-07
8.36367e-07
6.37032e-07
9.56643e-07
9.21253e-07
9.66771e-07
1.34332e-06
8.10076e-07
1.93147e-06
6.33188e-07
2.64846e-06
4.93044e-07
3.47118e-06
3.74779e-07
4.4679e-06
1.85208e-07
5.55931e-06
7.52531e-08
6.74657e-06
-3.96181e-08
7.98965e-06
-1.17828e-07
9.29457e-06
-1.98829e-07
1.06463e-05
-2.58155e-07
1.19971e-05
-2.74213e-07
1.32806e-05
-2.31145e-07
1.44749e-05
-1.7312e-07
1.55986e-05
-1.33682e-07
1.66163e-05
-4.81286e-08
1.74927e-05
6.25713e-08
1.82722e-05
1.22416e-07
1.88724e-05
2.8001e-07
1.92756e-05
4.30518e-07
1.95235e-05
5.3531e-07
1.95712e-05
7.18205e-07
1.93779e-05
8.92358e-07
1.89279e-05
1.09203e-06
1.82169e-05
1.35032e-06
1.71604e-05
1.59288e-06
1.58019e-05
1.83484e-06
1.42708e-05
2.08992e-06
1.2715e-05
2.06661e-06
1.12927e-05
1.76355e-06
1.01113e-05
1.43443e-06
9.13196e-06
1.2328e-06
8.36882e-06
1.03095e-06
7.74847e-06
8.59546e-07
7.09438e-06
8.53654e-07
6.37689e-06
8.95791e-07
5.78384e-06
7.43156e-07
5.34314e-06
5.44114e-07
4.95811e-06
4.54414e-07
4.68878e-06
3.24851e-07
4.61396e-06
1.25189e-07
4.76547e-06
-1.02984e-07
5.03528e-06
-2.16211e-07
5.56635e-06
-4.83536e-07
6.44805e-06
-8.94871e-07
6.45093e-06
-1.03137e-09
6.18631e-06
3.39739e-07
6.10606e-06
1.28503e-07
5.70025e-06
3.99743e-07
5.20868e-06
4.85675e-07
4.83747e-06
4.04666e-07
4.33816e-06
5.63891e-07
3.41776e-06
1.00082e-06
1.9363e-06
1.5966e-06
9.66422e-08
1.99945e-06
-1.68106e-06
1.96308e-06
-3.26766e-06
1.79217e-06
-4.65428e-06
1.61615e-06
-5.83536e-06
1.43589e-06
-6.82158e-06
1.26677e-06
-7.62249e-06
1.10702e-06
-8.25012e-06
9.58696e-07
-8.71369e-06
8.18635e-07
-9.04262e-06
7.06754e-07
-9.25096e-06
6.07489e-07
-9.35634e-06
5.24157e-07
-9.37442e-06
4.5476e-07
-9.33154e-06
4.09924e-07
-9.23204e-06
3.67603e-07
-9.09414e-06
3.41977e-07
-8.92928e-06
3.26205e-07
-8.73769e-06
3.09181e-07
-8.53407e-06
3.05599e-07
-8.32007e-06
3.02532e-07
-8.09665e-06
2.99618e-07
-7.8662e-06
2.98428e-07
-7.62496e-06
2.93004e-07
-7.39988e-06
3.14379e-07
-7.20539e-06
3.49622e-07
-7.01147e-06
3.54496e-07
-6.83574e-06
3.76553e-07
-6.66462e-06
3.83649e-07
-6.48332e-06
3.74747e-07
-6.27622e-06
3.50272e-07
-6.09562e-06
3.76885e-07
-5.92281e-06
3.81832e-07
-5.74802e-06
3.7585e-07
-5.59551e-06
3.92447e-07
-5.47132e-06
4.11683e-07
-5.34775e-06
4.00265e-07
-5.24506e-06
4.06375e-07
-5.15488e-06
4.01563e-07
-5.09721e-06
4.13818e-07
-5.06515e-06
4.16044e-07
-5.05688e-06
4.15454e-07
-5.08153e-06
4.23322e-07
-5.13913e-06
4.29597e-07
-5.22813e-06
4.35796e-07
-5.34428e-06
4.4263e-07
-5.50105e-06
4.68219e-07
-5.7054e-06
5.03295e-07
-5.92681e-06
5.08404e-07
-6.15834e-06
5.09441e-07
-6.3906e-06
5.07102e-07
-6.67566e-06
5.64955e-07
-7.02464e-06
6.42423e-07
-7.49611e-06
7.9074e-07
-7.92327e-06
7.784e-07
-8.23792e-06
6.95218e-07
-8.35336e-06
5.31086e-07
-8.22481e-06
3.38369e-07
-7.82391e-06
1.19104e-07
-7.23083e-06
-2.24775e-08
-6.60232e-06
1.07029e-08
-6.05162e-06
1.63208e-07
-5.50942e-06
2.33114e-07
-4.92637e-06
2.44928e-07
-4.1491e-06
1.07423e-07
-3.27609e-06
6.51451e-08
-2.55222e-06
2.63995e-07
-1.94119e-06
4.11143e-07
-1.27505e-06
3.63244e-07
-4.65521e-07
1.99134e-07
8.36518e-07
-3.31791e-07
2.36618e-06
-5.96011e-07
3.77892e-06
-5.3345e-07
4.93848e-06
-3.48198e-07
5.6796e-06
-3.8122e-08
6.07324e-06
1.36505e-07
6.22024e-06
2.44431e-07
6.4701e-06
2.91473e-08
7.04505e-06
-4.61674e-07
7.25542e-06
-2.14282e-07
6.77179e-06
4.11524e-07
5.69695e-06
8.85787e-07
4.37411e-06
9.85027e-07
2.63946e-06
1.26015e-06
-2.17277e-08
2.08093e-06
-2.44404e-06
1.74489e-06
-8.15291e-07
-2.39311e-06
1.05988e-06
-2.708e-06
-1.73255e-06
2.03704e-06
-2.29415e-06
-2.57784e-07
-1.36745e-06
-1.73058e-06
-1.64508e-06
-4.12834e-07
-1.71188e-06
-5.13791e-07
-1.71449e-06
-4.10763e-07
-2.07817e-06
1.66843e-07
-2.66572e-06
6.46599e-07
-3.38116e-06
1.0584e-06
-4.43166e-06
1.68864e-06
-5.78526e-06
2.29324e-06
-7.42582e-06
2.86455e-06
-8.72139e-06
2.74869e-06
-9.56272e-06
2.48769e-06
-9.5807e-06
1.85026e-06
-9.20387e-06
1.64818e-06
-8.244e-06
1.26384e-06
-7.6384e-06
1.74823e-06
-7.14346e-06
1.94632e-06
-8.26507e-06
3.46691e-06
-8.53385e-06
2.78663e-06
-9.44905e-06
3.45104e-06
-9.62973e-06
2.73208e-06
-4.44059e-06
-2.84184e-06
-4.45973e-07
-1.52666e-06
-1.94467e-06
3.9286e-06
-2.39682e-06
2.66825e-06
-1.83169e-06
1.92612e-06
-8.83204e-07
1.49475e-06
-8.5387e-07
2.26188e-06
-2.07333e-07
1.51166e-06
5.17565e-07
1.34689e-06
7.99881e-07
2.00488e-06
1.54774e-06
1.40706e-06
2.56786e-06
9.99241e-07
3.91603e-06
7.36489e-07
7.37349e-07
5.04226e-06
4.67815e-07
1.48869e-06
1.10226e-06
1.51437e-06
1.74901e-06
1.51581e-06
2.50612e-06
1.22371e-06
3.27514e-06
1.0215e-06
4.09668e-06
8.21493e-07
4.96077e-06
6.48243e-07
5.90484e-06
3.52971e-07
6.91335e-06
1.53875e-07
8.02097e-06
-7.93923e-08
9.1928e-06
-2.40355e-07
1.03628e-05
-3.35095e-07
1.15382e-05
-3.89334e-07
1.27181e-05
-4.09639e-07
1.38842e-05
-3.73501e-07
1.49971e-05
-2.75841e-07
1.60202e-05
-1.70108e-07
1.69911e-05
-6.19861e-08
1.78684e-05
1.22802e-07
1.86501e-05
2.58165e-07
1.93318e-05
4.86953e-07
1.98862e-05
7.29102e-07
2.03049e-05
9.41077e-07
2.06198e-05
1.18284e-06
2.07479e-05
1.49325e-06
2.07629e-05
1.7756e-06
2.05355e-05
2.20956e-06
2.01031e-05
2.59367e-06
1.95133e-05
2.95187e-06
1.8738e-05
3.3198e-06
1.76755e-05
3.58589e-06
1.62538e-05
3.6154e-06
1.44508e-05
3.60247e-06
1.2756e-05
3.3905e-06
1.13893e-05
2.83405e-06
1.02148e-05
2.29915e-06
9.39008e-06
1.88017e-06
8.88877e-06
1.58605e-06
8.33055e-06
1.45856e-06
7.61409e-06
1.36489e-06
7.08428e-06
1.05276e-06
6.7284e-06
7.4052e-07
6.62579e-06
3.13109e-07
6.62149e-06
1.27174e-08
6.58706e-06
-1.31376e-07
7.1037e-06
-1.05493e-06
7.6666e-06
-1.56631e-06
7.7106e-06
-1.46121e-07
6.95196e-06
1.1827e-06
5.81327e-06
1.3776e-06
4.00813e-06
2.12341e-06
1.55592e-06
2.88313e-06
-1.18805e-06
3.21181e-06
-3.81819e-06
3.28464e-06
-6.03718e-06
3.32971e-06
-7.72315e-06
3.41718e-06
-8.95973e-06
3.39355e-06
-1.00434e-05
3.22263e-06
-1.10508e-05
2.99942e-06
-1.1905e-05
2.69468e-06
-1.25982e-05
2.37856e-06
-1.31262e-05
2.0696e-06
-1.34927e-05
1.77332e-06
-1.37139e-05
1.50331e-06
-1.38144e-05
1.26628e-06
-1.38151e-05
1.07638e-06
-1.37245e-05
9.06983e-07
-1.35552e-05
7.6391e-07
-1.33241e-05
6.49245e-07
-1.30451e-05
5.70909e-07
-1.2735e-05
5.10611e-07
-1.23921e-05
4.63683e-07
-1.20314e-05
4.39447e-07
-1.16639e-05
4.24518e-07
-1.12909e-05
4.23131e-07
-1.09058e-05
4.13499e-07
-1.05198e-05
4.13694e-07
-1.01605e-05
4.42805e-07
-9.79892e-06
4.38623e-07
-9.45979e-06
4.85685e-07
-9.1243e-06
5.27722e-07
-8.80226e-06
5.49541e-07
-8.50066e-06
5.96655e-07
-8.19934e-06
6.06605e-07
-7.89755e-06
5.94211e-07
-7.59672e-06
5.66919e-07
-7.32541e-06
6.26406e-07
-7.04511e-06
6.19452e-07
-6.7833e-06
6.22535e-07
-6.53488e-06
6.4717e-07
-6.29334e-06
6.66314e-07
-6.07675e-06
6.67801e-07
-5.88672e-06
6.87826e-07
-5.71607e-06
6.87211e-07
-5.56881e-06
7.04641e-07
-5.45889e-06
7.22868e-07
-5.38825e-06
7.38508e-07
-5.34717e-06
7.51082e-07
-5.40238e-06
8.26416e-07
-5.48553e-06
8.33773e-07
-5.60018e-06
8.5324e-07
-5.74446e-06
9.0908e-07
-5.95959e-06
1.03262e-06
-6.23218e-06
1.101e-06
-6.55496e-06
1.12248e-06
-6.93633e-06
1.1371e-06
-7.36253e-06
1.2335e-06
-7.76013e-06
1.33286e-06
-8.14654e-06
1.53038e-06
-8.48213e-06
1.47787e-06
-8.70832e-06
1.27792e-06
-8.73762e-06
9.48966e-07
-8.484e-06
5.34483e-07
-7.98408e-06
1.06124e-07
-7.25421e-06
-2.75455e-07
-6.37353e-06
-3.62428e-07
-5.49438e-06
-1.04249e-07
-4.7475e-06
2.1213e-07
-4.07632e-06
3.96771e-07
-3.19201e-06
1.11398e-07
-2.11173e-06
-8.19094e-08
-1.20694e-06
3.63426e-07
-7.10129e-07
9.85622e-07
-3.47168e-07
1.09162e-06
3.49997e-07
5.37966e-07
1.69348e-06
-6.89313e-07
3.6119e-06
-1.51168e-06
5.53203e-06
-1.48695e-06
7.19877e-06
-1.11373e-06
8.55231e-06
-4.86135e-07
9.487e-06
1.65548e-08
9.84178e-06
3.70708e-07
9.78805e-06
1.43851e-07
9.18701e-06
-4.14419e-08
8.12891e-06
6.02647e-07
7.37408e-06
9.30624e-07
6.18933e-06
1.88898e-06
3.7042e-06
3.15986e-06
5.11474e-07
3.93008e-06
-2.34758e-06
4.3214e-06
-3.35411e-06
1.99846e-06
-1.93373e-06
-4.71224e-06
4.95004e-08
-5.54391e-06
-9.90154e-07
2.33261e-06
-1.59548e-06
-5.20671e-07
-6.69508e-07
-3.49442e-06
-8.12168e-07
-1.03883e-06
-3.98671e-07
-1.57572e-06
3.63426e-07
-1.65868e-06
6.31554e-07
-3.73072e-07
7.00395e-07
5.64772e-07
8.34979e-07
1.19942e-06
8.62365e-07
2.2332e-06
3.94173e-07
3.65179e-06
-8.53399e-07
5.33813e-06
-2.62284e-06
6.01606e-06
-4.71823e-06
6.32069e-06
-6.76352e-06
5.71227e-06
-8.24667e-06
4.94563e-06
-8.34661e-06
3.3898e-06
-7.77327e-06
3.54423e-06
-7.88832e-06
4.74496e-06
-9.79296e-06
7.83951e-06
-1.03832e-05
6.03448e-06
-1.12106e-05
7.52976e-06
-1.13156e-05
5.07035e-06
-5.05555e-06
-7.75418e-06
1.60819e-06
-5.60033e-06
9.90042e-07
7.08946e-06
-9.17218e-07
6.98301e-06
-2.3752e-07
3.71714e-06
1.53159e-06
2.41436e-06
1.46988e-06
5.02001e-06
1.61084e-06
3.80846e-06
1.56413e-06
3.56674e-06
1.82704e-06
4.51152e-06
2.506e-06
3.25641e-06
3.2485e-06
2.44508e-06
4.75793e-06
1.37754e-06
1.8478e-06
5.4113e-06
3.96107e-07
2.12795e-06
1.15404e-06
1.83355e-06
2.07015e-06
1.6681e-06
3.02489e-06
1.33442e-06
4.00917e-06
1.1177e-06
4.95399e-06
9.66091e-07
5.91322e-06
7.65303e-07
6.83105e-06
4.82792e-07
7.74056e-06
2.58063e-07
8.63622e-06
2.57508e-08
9.54542e-06
-1.30181e-07
1.04709e-05
-2.21396e-07
1.1365e-05
-2.09202e-07
1.22302e-05
-1.83372e-07
1.30781e-05
-1.45034e-07
1.39379e-05
-7.23081e-08
1.47378e-05
5.57419e-08
1.54906e-05
1.74564e-07
1.62603e-05
3.10277e-07
1.68811e-05
5.4628e-07
1.748e-05
7.83281e-07
1.80404e-05
1.036e-06
1.84906e-05
1.28474e-06
1.89324e-05
1.50928e-06
1.93112e-05
1.85889e-06
1.95013e-05
2.23135e-06
1.96549e-05
2.63524e-06
1.96804e-05
3.13411e-06
1.95269e-05
3.5884e-06
1.91896e-05
4.03885e-06
1.87332e-05
4.39309e-06
1.80289e-05
4.64532e-06
1.70902e-05
4.85146e-06
1.5953e-05
4.76754e-06
1.45679e-05
4.46535e-06
1.30405e-05
4.18277e-06
1.14995e-05
3.73167e-06
1.0323e-05
3.02671e-06
9.50881e-06
2.4817e-06
8.69865e-06
2.21465e-06
7.90586e-06
1.78668e-06
7.34738e-06
1.31256e-06
6.95652e-06
9.10061e-07
6.51383e-06
6.11365e-07
6.50511e-06
-2.37088e-07
5.8399e-06
-6.24907e-07
3.47743e-06
6.71898e-07
1.62027e-06
1.7457e-06
-3.28118e-07
3.16142e-06
-2.5712e-06
3.61997e-06
-4.55016e-06
4.1094e-06
-6.14685e-06
4.54068e-06
-7.4995e-06
4.65107e-06
-8.86226e-06
4.73644e-06
-1.01305e-05
4.71251e-06
-1.12003e-05
4.61819e-06
-1.20019e-05
4.34891e-06
-1.26128e-05
4.01013e-06
-1.30485e-05
3.63849e-06
-1.33897e-05
3.26277e-06
-1.36186e-05
2.85938e-06
-1.37523e-05
2.48169e-06
-1.37914e-05
2.11561e-06
-1.37479e-05
1.78581e-06
-1.36362e-05
1.50332e-06
-1.3454e-05
1.26516e-06
-1.32336e-05
1.07777e-06
-1.29525e-05
8.93324e-07
-1.26352e-05
7.57834e-07
-1.22803e-05
6.5656e-07
-1.19087e-05
5.919e-07
-1.15196e-05
5.37756e-07
-1.11331e-05
5.24966e-07
-1.07534e-05
5.2487e-07
-1.03822e-05
5.39026e-07
-1.00018e-05
5.24664e-07
-9.63697e-06
5.43278e-07
-9.28257e-06
5.85031e-07
-8.95078e-06
6.04495e-07
-8.60536e-06
6.38627e-07
-8.30242e-06
7.2348e-07
-8.00551e-06
7.50419e-07
-7.69272e-06
7.83468e-07
-7.41984e-06
8.36673e-07
-7.14528e-06
8.18473e-07
-6.9044e-06
8.15196e-07
-6.64291e-06
8.52938e-07
-6.392e-06
8.53337e-07
-6.17745e-06
8.77422e-07
-5.95316e-06
8.78527e-07
-5.75194e-06
9.09537e-07
-5.55852e-06
9.01573e-07
-5.36535e-06
9.05018e-07
-5.20376e-06
9.18889e-07
-5.07047e-06
9.45291e-07
-4.93641e-06
9.41756e-07
-4.84025e-06
9.7587e-07
-4.84136e-06
1.06581e-06
-4.87546e-06
1.1542e-06
-4.95008e-06
1.18639e-06
-5.10936e-06
1.26653e-06
-5.29238e-06
1.31658e-06
-5.51172e-06
1.46975e-06
-5.77045e-06
1.62927e-06
-6.17062e-06
1.86925e-06
-6.6046e-06
1.93108e-06
-7.0512e-06
1.96889e-06
-7.48725e-06
2.01122e-06
-7.79176e-06
2.1394e-06
-7.99153e-06
2.06369e-06
-8.11965e-06
1.81237e-06
-8.18591e-06
1.45017e-06
-8.11081e-06
9.97809e-07
-7.84243e-06
4.47349e-07
-7.33397e-06
-2.37996e-07
-6.48876e-06
-7.21246e-07
-5.40635e-06
-6.61703e-07
-4.36521e-06
-2.1712e-07
-3.45289e-06
2.46017e-07
-2.50244e-06
5.8639e-08
-1.20236e-06
-4.64263e-07
1.41615e-07
-2.49656e-08
8.29736e-07
1.34144e-06
7.875e-07
2.19046e-06
8.04547e-07
1.45553e-06
1.78521e-06
-7.93416e-07
3.63739e-06
-2.37198e-06
5.54059e-06
-2.34974e-06
7.63642e-06
-2.1644e-06
9.43107e-06
-1.19073e-06
1.05292e-05
-4.6483e-08
1.09827e-05
5.42788e-07
1.0749e-05
4.53979e-07
9.53776e-06
8.57654e-07
8.46916e-06
1.36364e-06
7.50296e-06
1.9348e-06
5.21899e-06
4.17544e-06
2.65773e-06
5.31645e-06
1.65057e-07
5.89314e-06
-1.25065e-06
5.12964e-06
-1.08213e-06
1.13025e-06
-1.73289e-06
-4.89038e-06
-1.41917e-06
-6.58153e-06
-1.54846e-07
2.23027e-07
-2.51245e-07
-1.2651e-06
-4.27592e-07
-4.06821e-06
-9.81072e-07
-1.2218e-06
-7.16555e-07
-2.4098e-06
4.37573e-07
-3.1903e-06
1.25976e-06
-1.4265e-06
1.53623e-06
2.39313e-07
1.69079e-06
1.24379e-06
2.21332e-06
2.18248e-06
2.60336e-06
4.00214e-06
2.32014e-06
6.6952e-06
1.43185e-06
8.30773e-06
7.06945e-08
9.36745e-06
-1.96643e-06
9.65455e-06
-4.33635e-06
9.23794e-06
-6.19112e-06
7.02071e-06
-7.42319e-06
6.71565e-06
-7.70577e-06
7.68248e-06
-8.78564e-06
1.17506e-05
-8.79844e-06
8.17104e-06
-9.41519e-06
1.15814e-05
-9.28077e-06
6.73838e-06
-4.86751e-06
-1.09491e-05
8.4364e-07
-9.27081e-06
2.65275e-06
7.27265e-06
-1.67772e-07
1.24516e-05
-3.86463e-07
6.10532e-06
2.49866e-06
1.74574e-06
3.45243e-06
6.6341e-06
2.89078e-06
6.92075e-06
2.35898e-06
6.46539e-06
3.48834e-06
6.23724e-06
4.13138e-06
5.32657e-06
4.61181e-06
4.53724e-06
6.77492e-06
1.45202e-06
2.7978e-06
7.64817e-06
3.53352e-07
2.7235e-06
1.07055e-06
2.10096e-06
1.9856e-06
1.7324e-06
2.93422e-06
1.37452e-06
3.87425e-06
1.17705e-06
4.78285e-06
1.05239e-06
5.72664e-06
7.93065e-07
6.56343e-06
5.99822e-07
7.33908e-06
4.33144e-07
8.03066e-06
3.22145e-07
8.65638e-06
2.8472e-07
9.21813e-06
2.86693e-07
9.79637e-06
2.96875e-07
1.03838e-05
3.03828e-07
1.09866e-05
2.88461e-07
1.16473e-05
2.68012e-07
1.2311e-05
3.41881e-07
1.29073e-05
4.69361e-07
1.34834e-05
6.078e-07
1.40379e-05
8.49484e-07
1.45883e-05
1.05166e-06
1.51191e-05
1.27612e-06
1.56571e-05
1.46973e-06
1.61202e-05
1.70337e-06
1.6615e-05
1.95764e-06
1.70309e-05
2.37581e-06
1.73323e-05
2.86602e-06
1.75511e-05
3.35373e-06
1.76237e-05
3.87493e-06
1.76949e-05
4.37148e-06
1.76178e-05
4.84312e-06
1.73147e-05
5.15744e-06
1.70347e-05
5.33701e-06
1.65484e-05
5.53061e-06
1.55965e-05
5.60537e-06
1.46087e-05
5.34632e-06
1.34899e-05
5.11851e-06
1.17621e-05
4.85869e-06
1.011e-05
4.05779e-06
8.94644e-06
3.34353e-06
7.90285e-06
2.92219e-06
6.97331e-06
2.48703e-06
6.02973e-06
2.05254e-06
5.2307e-06
1.3632e-06
4.23715e-06
5.73131e-07
1.55819e-06
1.91194e-06
-1.13414e-06
3.36605e-06
-3.15671e-06
3.8131e-06
-4.63583e-06
4.67974e-06
-6.25689e-06
5.26917e-06
-7.68972e-06
5.59929e-06
-8.94871e-06
5.86612e-06
-9.98996e-06
5.7777e-06
-1.0867e-05
5.70828e-06
-1.15322e-05
5.49105e-06
-1.20386e-05
5.26139e-06
-1.24397e-05
4.91013e-06
-1.27564e-05
4.50433e-06
-1.29668e-05
4.05412e-06
-1.30847e-05
3.61675e-06
-1.31389e-05
3.17411e-06
-1.31175e-05
2.74606e-06
-1.30305e-05
2.3422e-06
-1.28747e-05
1.9677e-06
-1.26815e-05
1.66908e-06
-1.24113e-05
1.37698e-06
-1.20989e-05
1.16804e-06
-1.17511e-05
9.68216e-07
-1.14144e-05
8.60128e-07
-1.10614e-05
7.58068e-07
-1.06892e-05
6.88481e-07
-1.03097e-05
6.37627e-07
-9.91731e-06
6.223e-07
-9.52075e-06
6.2614e-07
-9.11603e-06
6.40654e-07
-8.76399e-06
6.85595e-07
-8.40772e-06
7.04523e-07
-8.07065e-06
7.69628e-07
-7.75712e-06
8.14391e-07
-7.43003e-06
8.37616e-07
-7.11671e-06
9.38916e-07
-6.82535e-06
9.87952e-07
-6.55407e-06
1.03843e-06
-6.28004e-06
1.08695e-06
-6.02064e-06
1.08044e-06
-5.79095e-06
1.10203e-06
-5.54998e-06
1.12191e-06
-5.30534e-06
1.11075e-06
-5.1387e-06
1.20273e-06
-4.95808e-06
1.17438e-06
-4.78374e-06
1.19625e-06
-4.62663e-06
1.18622e-06
-4.47503e-06
1.16983e-06
-4.33983e-06
1.17254e-06
-4.18213e-06
1.15392e-06
-4.13137e-06
1.22629e-06
-4.09662e-06
1.23877e-06
-4.0548e-06
1.28865e-06
-4.04043e-06
1.37581e-06
-4.05721e-06
1.42032e-06
-4.09865e-06
1.50728e-06
-4.21706e-06
1.61602e-06
-4.4606e-06
1.88684e-06
-4.80933e-06
2.16328e-06
-5.13991e-06
2.42316e-06
-5.48901e-06
2.57334e-06
-5.82057e-06
2.65739e-06
-6.12267e-06
2.65528e-06
-6.24435e-06
2.57846e-06
-6.35809e-06
2.54314e-06
-6.49106e-06
2.39259e-06
-6.3978e-06
1.79769e-06
-6.07991e-06
1.06121e-06
-5.9429e-06
8.3523e-07
-6.11936e-06
7.23503e-07
-6.17091e-06
1.40899e-07
-5.6222e-06
-5.46096e-07
-4.51796e-06
-7.08383e-07
-3.39219e-06
-1.56802e-07
-2.3879e-06
-5.3213e-08
-1.06871e-06
-8.51406e-07
6.67703e-07
-7.95144e-07
1.91655e-06
1.139e-06
2.16629e-06
3.0011e-06
1.91327e-06
2.56803e-06
2.31048e-06
-4.41291e-07
3.85824e-06
-3.01148e-06
5.76754e-06
-3.22495e-06
7.80142e-06
-3.08578e-06
9.64037e-06
-1.83121e-06
1.07364e-05
-6.01078e-09
1.11519e-05
8.69153e-07
1.05095e-05
1.27672e-06
8.93502e-06