/*--------------------------------*- C++ -*----------------------------------*\
| =========                 |                                                 |
| \\      /  F ield         | OpenFOAM: The Open Source CFD Toolbox           |
|  \\    /   O peration     | Version:  dev                                   |
|   \\  /    A nd           | Web:      http://www.openfoam.org               |
|    \\/     M anipulation  |                                                 |
\*---------------------------------------------------------------------------*/
FoamFile
{
    version     2.0;
    format      ascii;
    class       volScalarField;
    object      pPrime2Mean;
    location    "9.117";
}
// * * * * * * * * * * * * * * * * * * * * * * * * * * * * * * * * * * * * * //

dimensions      [2 -2 -4 0 0 0 0];

internalField   nonuniform List<scalar> 
12225
(
5.03694e+07
4.99044e+07
4.89438e+07
4.75928e+07
4.59392e+07
4.40725e+07
4.20518e+07
3.99491e+07
3.78054e+07
3.56685e+07
3.35763e+07
3.15316e+07
2.96084e+07
2.77375e+07
2.59903e+07
2.44296e+07
2.28678e+07
2.12875e+07
5.02616e+07
4.97966e+07
4.88367e+07
4.74874e+07
4.58353e+07
4.39709e+07
4.19531e+07
3.98531e+07
3.77132e+07
3.5579e+07
3.34915e+07
3.14505e+07
2.95319e+07
2.76679e+07
2.5938e+07
2.43776e+07
2.28687e+07
2.15344e+07
5.00114e+07
4.9547e+07
4.85877e+07
4.72414e+07
4.55937e+07
4.37342e+07
4.17231e+07
3.96293e+07
3.74976e+07
3.53715e+07
3.32924e+07
3.12631e+07
2.93506e+07
2.75038e+07
2.57938e+07
2.42382e+07
2.28032e+07
2.15901e+07
4.95757e+07
4.91142e+07
4.81572e+07
4.6816e+07
4.51764e+07
4.33253e+07
4.13259e+07
3.92426e+07
3.71257e+07
3.5013e+07
3.29498e+07
3.09383e+07
2.9043e+07
2.72156e+07
2.55353e+07
2.40044e+07
2.26182e+07
2.15173e+07
4.89105e+07
4.84492e+07
4.74969e+07
4.61653e+07
4.45374e+07
4.27009e+07
4.07172e+07
3.86533e+07
3.65554e+07
3.44669e+07
3.24239e+07
3.04432e+07
2.85705e+07
2.67792e+07
2.51511e+07
2.36426e+07
2.23617e+07
2.12972e+07
4.79611e+07
4.74973e+07
4.65545e+07
4.52363e+07
4.36264e+07
4.18096e+07
3.98507e+07
3.78123e+07
3.57445e+07
3.36857e+07
3.1677e+07
2.97304e+07
2.7896e+07
2.61512e+07
2.45726e+07
2.31336e+07
2.1907e+07
2.08506e+07
4.66659e+07
4.62008e+07
4.52736e+07
4.39716e+07
4.23878e+07
4.05967e+07
3.86734e+07
3.66684e+07
3.46435e+07
3.26237e+07
3.06633e+07
2.87624e+07
2.69793e+07
2.52923e+07
2.37707e+07
2.23918e+07
2.12236e+07
2.01959e+07
4.52237e+07
4.47601e+07
4.38492e+07
4.25651e+07
4.101e+07
3.92485e+07
3.73637e+07
3.53977e+07
3.34181e+07
3.14445e+07
2.95339e+07
2.76867e+07
2.59551e+07
2.43313e+07
2.28582e+07
2.15425e+07
2.04069e+07
1.94474e+07
4.37086e+07
4.32486e+07
4.23539e+07
4.10895e+07
3.9564e+07
3.7835e+07
3.59896e+07
3.4066e+07
3.21326e+07
3.02085e+07
2.83489e+07
2.65573e+07
2.48795e+07
2.33164e+07
2.18953e+07
2.06358e+07
1.95421e+07
1.86437e+07
4.17681e+07
4.13148e+07
4.04396e+07
3.92028e+07
3.77137e+07
3.60287e+07
3.42321e+07
3.23646e+07
3.04885e+07
2.86292e+07
2.68325e+07
2.51124e+07
2.35007e+07
2.20123e+07
2.06576e+07
1.94657e+07
1.84289e+07
1.75764e+07
3.93191e+07
3.88758e+07
3.80241e+07
3.68241e+07
3.53809e+07
3.37529e+07
3.20184e+07
3.02219e+07
2.84189e+07
2.664e+07
2.49235e+07
2.32895e+07
2.17615e+07
2.03592e+07
1.90876e+07
1.79724e+07
1.70026e+07
1.61963e+07
3.62953e+07
3.58669e+07
3.50433e+07
3.38923e+07
3.25063e+07
3.09516e+07
2.92944e+07
2.75871e+07
2.58746e+07
2.41945e+07
2.25762e+07
2.10452e+07
1.96181e+07
1.83152e+07
1.71401e+07
1.61092e+07
1.5215e+07
1.44619e+07
3.26819e+07
3.22721e+07
3.14849e+07
3.0395e+07
2.90812e+07
2.76155e+07
2.60541e+07
2.44533e+07
2.2851e+07
2.12874e+07
1.97859e+07
1.8374e+07
1.70633e+07
1.58725e+07
1.4804e+07
1.38668e+07
1.30558e+07
1.23678e+07
2.85698e+07
2.81828e+07
2.74423e+07
2.64248e+07
2.51994e+07
2.38371e+07
2.23897e+07
2.0911e+07
1.94368e+07
1.80041e+07
1.66355e+07
1.53542e+07
1.4172e+07
1.31019e+07
1.21469e+07
1.131e+07
1.05878e+07
9.97389e+06
2.42447e+07
2.38841e+07
2.31998e+07
2.2263e+07
2.11377e+07
1.98897e+07
1.85679e+07
1.72215e+07
1.5885e+07
1.45911e+07
1.33614e+07
1.22151e+07
1.11634e+07
1.0215e+07
9.3724e+06
8.63565e+06
8.00154e+06
7.46339e+06
2.02972e+07
1.99653e+07
1.93406e+07
1.84855e+07
1.74617e+07
1.63268e+07
1.51287e+07
1.39105e+07
1.27057e+07
1.15426e+07
1.04417e+07
9.41869e+06
8.48362e+06
7.64249e+06
6.89719e+06
6.24646e+06
5.68712e+06
5.21294e+06
1.77313e+07
1.74249e+07
1.68503e+07
1.60632e+07
1.51217e+07
1.40779e+07
1.29771e+07
1.18583e+07
1.07532e+07
9.68693e+06
8.67844e+06
7.74127e+06
6.88416e+06
6.11188e+06
5.42578e+06
4.82449e+06
4.30503e+06
3.86204e+06
1.78394e+07
1.75449e+07
1.69926e+07
1.62351e+07
1.53283e+07
1.43215e+07
1.32582e+07
1.21754e+07
1.11031e+07
1.00651e+07
9.07906e+06
8.1577e+06
7.30912e+06
6.5378e+06
5.84515e+06
5.23033e+06
4.69084e+06
4.22232e+06
2.0717e+07
2.04181e+07
1.98559e+07
1.90834e+07
1.81572e+07
1.71264e+07
1.60346e+07
1.49184e+07
1.38076e+07
1.27256e+07
1.16902e+07
1.07139e+07
9.80493e+06
8.96817e+06
8.2055e+06
7.51683e+06
6.90033e+06
6.35262e+06
2.52052e+07
2.48933e+07
2.43032e+07
2.34896e+07
2.25119e+07
2.14209e+07
2.02613e+07
1.90706e+07
1.78794e+07
1.67117e+07
1.55856e+07
1.45143e+07
1.35066e+07
1.25678e+07
1.17007e+07
1.09058e+07
1.01822e+07
9.52724e+06
3.02659e+07
2.994e+07
2.93167e+07
2.84536e+07
2.74135e+07
2.62494e+07
2.50077e+07
2.37277e+07
2.24409e+07
2.11723e+07
1.99411e+07
1.8761e+07
1.76416e+07
1.65891e+07
1.56068e+07
1.46961e+07
1.38568e+07
1.30869e+07
3.51811e+07
3.48435e+07
3.41892e+07
3.32791e+07
3.21788e+07
3.09435e+07
2.96217e+07
2.8254e+07
2.68737e+07
2.55066e+07
2.4173e+07
2.28873e+07
2.166e+07
2.04979e+07
1.94053e+07
1.83841e+07
1.74347e+07
1.6556e+07
3.95316e+07
3.91857e+07
3.85059e+07
3.75561e+07
3.64043e+07
3.51073e+07
3.37154e+07
3.22708e+07
3.0808e+07
2.93541e+07
2.793e+07
2.65513e+07
2.5229e+07
2.39707e+07
2.27812e+07
2.16632e+07
2.06175e+07
1.96435e+07
4.31283e+07
4.27773e+07
4.20783e+07
4.10975e+07
3.99046e+07
3.85578e+07
3.71089e+07
3.56014e+07
3.4071e+07
3.25457e+07
3.10472e+07
2.95918e+07
2.81913e+07
2.68538e+07
2.55847e+07
2.4387e+07
2.32622e+07
2.221e+07
4.59375e+07
4.55835e+07
4.48707e+07
4.3867e+07
4.26431e+07
4.12582e+07
3.97654e+07
3.82094e+07
3.66265e+07
3.50457e+07
3.34893e+07
3.19743e+07
3.05129e+07
2.91138e+07
2.77827e+07
2.65232e+07
2.53367e+07
2.42237e+07
4.80163e+07
4.76607e+07
4.69383e+07
4.59184e+07
4.46721e+07
4.32596e+07
4.17347e+07
4.0143e+07
3.85215e+07
3.68998e+07
3.53009e+07
3.37419e+07
3.22357e+07
3.07912e+07
2.94145e+07
2.81094e+07
2.68776e+07
2.57197e+07
4.94656e+07
4.91091e+07
4.838e+07
4.73493e+07
4.60877e+07
4.46563e+07
4.31094e+07
4.14932e+07
3.98451e+07
3.81952e+07
3.65667e+07
3.49773e+07
3.344e+07
3.19641e+07
3.05558e+07
2.9219e+07
2.79559e+07
2.67668e+07
5.04008e+07
5.00433e+07
4.93101e+07
4.82727e+07
4.70013e+07
4.55579e+07
4.39971e+07
4.23652e+07
4.07002e+07
3.90322e+07
3.73848e+07
3.57759e+07
3.42187e+07
3.27225e+07
3.12939e+07
2.99368e+07
2.86535e+07
2.74444e+07
5.093e+07
5.05722e+07
4.98374e+07
4.87969e+07
4.75202e+07
4.60702e+07
4.45015e+07
4.28607e+07
4.11858e+07
3.95074e+07
3.78492e+07
3.62291e+07
3.46604e+07
3.31526e+07
3.17122e+07
3.03434e+07
2.90487e+07
2.78287e+07
5.11522e+07
5.07959e+07
5.00592e+07
4.90169e+07
4.77377e+07
4.62848e+07
4.47128e+07
4.30681e+07
4.1389e+07
3.97062e+07
3.80432e+07
3.64183e+07
3.48446e+07
3.33318e+07
3.18865e+07
3.05128e+07
2.92134e+07
2.79889e+07
6.04876e+07
6.04285e+07
6.02978e+07
6.0092e+07
5.98092e+07
5.94487e+07
5.90106e+07
5.84956e+07
5.79048e+07
5.72398e+07
5.65023e+07
5.56944e+07
5.48186e+07
5.38773e+07
5.28734e+07
5.18097e+07
5.06896e+07
4.95166e+07
4.82942e+07
4.70265e+07
4.57173e+07
4.43708e+07
4.29912e+07
4.15828e+07
4.01502e+07
3.86978e+07
3.72302e+07
3.57518e+07
3.42671e+07
3.27806e+07
3.1297e+07
2.98208e+07
2.83566e+07
2.69091e+07
2.54827e+07
2.40821e+07
2.27118e+07
2.13767e+07
2.00814e+07
1.88307e+07
1.76294e+07
1.64824e+07
1.53946e+07
1.43713e+07
1.34175e+07
1.25383e+07
1.17392e+07
1.10256e+07
1.04027e+07
9.87616e+06
9.45131e+06
9.13364e+06
8.92854e+06
8.84126e+06
8.87692e+06
9.04032e+06
9.33602e+06
9.76828e+06
1.03409e+07
1.10573e+07
1.19201e+07
1.29314e+07
1.40928e+07
1.54049e+07
1.68677e+07
1.84805e+07
2.02414e+07
2.21482e+07
2.41976e+07
2.63859e+07
2.87085e+07
3.116e+07
3.37346e+07
3.64258e+07
3.92268e+07
4.21304e+07
4.5129e+07
4.8215e+07
5.13804e+07
5.46172e+07
5.79175e+07
6.1273e+07
6.46753e+07
6.81159e+07
7.15862e+07
7.50772e+07
7.85798e+07
8.20846e+07
8.55815e+07
8.90601e+07
9.25095e+07
9.59183e+07
9.92744e+07
1.02565e+08
1.05778e+08
1.08901e+08
1.11921e+08
1.14826e+08
1.17604e+08
1.20245e+08
1.2274e+08
1.25079e+08
1.27257e+08
1.29268e+08
1.31108e+08
1.32774e+08
1.34268e+08
1.35591e+08
1.36749e+08
1.37749e+08
1.38602e+08
1.39318e+08
1.39912e+08
1.40397e+08
1.40791e+08
1.4111e+08
1.41375e+08
1.41607e+08
1.41828e+08
1.42067e+08
1.42352e+08
1.42717e+08
1.43198e+08
1.43836e+08
1.44672e+08
1.45756e+08
1.47141e+08
1.48881e+08
1.51039e+08
1.53677e+08
1.56858e+08
1.60644e+08
1.65097e+08
1.70274e+08
1.76228e+08
1.83004e+08
1.90639e+08
1.9916e+08
2.0858e+08
2.18904e+08
2.30126e+08
2.42221e+08
2.55165e+08
2.68913e+08
2.83424e+08
2.98635e+08
3.14498e+08
3.30941e+08
3.479e+08
3.65302e+08
3.83072e+08
4.01126e+08
4.19375e+08
4.37725e+08
4.56054e+08
4.74223e+08
4.92068e+08
5.09419e+08
5.26043e+08
5.41705e+08
5.56107e+08
5.68948e+08
5.79887e+08
5.88601e+08
5.94755e+08
5.98051e+08
5.9823e+08
5.95109e+08
5.88564e+08
5.7862e+08
5.65358e+08
5.49046e+08
5.30001e+08
5.08719e+08
4.85672e+08
4.61385e+08
4.36227e+08
4.10632e+08
3.84813e+08
3.59094e+08
5.94121e+07
5.93564e+07
5.92313e+07
5.90314e+07
5.87551e+07
5.84022e+07
5.79734e+07
5.74698e+07
5.68925e+07
5.62431e+07
5.55231e+07
5.47348e+07
5.38801e+07
5.29615e+07
5.19816e+07
5.09431e+07
4.98492e+07
4.87031e+07
4.75084e+07
4.62688e+07
4.49882e+07
4.36705e+07
4.232e+07
4.09409e+07
3.95375e+07
3.81142e+07
3.66755e+07
3.52256e+07
3.37688e+07
3.23097e+07
3.08527e+07
2.94023e+07
2.79632e+07
2.65397e+07
2.51364e+07
2.37578e+07
2.24084e+07
2.10929e+07
1.9816e+07
1.85824e+07
1.73969e+07
1.62643e+07
1.51897e+07
1.41779e+07
1.32343e+07
1.2364e+07
1.15722e+07
1.08644e+07
1.0246e+07
9.72241e+06
9.29912e+06
8.98155e+06
8.77507e+06
8.68492e+06
8.71621e+06
8.87384e+06
9.16235e+06
9.58598e+06
1.01485e+07
1.08533e+07
1.1703e+07
1.26998e+07
1.38451e+07
1.51395e+07
1.65832e+07
1.81752e+07
1.99139e+07
2.17969e+07
2.38209e+07
2.59823e+07
2.82764e+07
3.06979e+07
3.3241e+07
3.58993e+07
3.8666e+07
4.15338e+07
4.44954e+07
4.7543e+07
5.06689e+07
5.38651e+07
5.71234e+07
6.04358e+07
6.37939e+07
6.71895e+07
7.06138e+07
7.4058e+07
7.7513e+07
8.09694e+07
8.44173e+07
8.78464e+07
9.12459e+07
9.46045e+07
9.79103e+07
1.01151e+08
1.04314e+08
1.07388e+08
1.10359e+08
1.13216e+08
1.15948e+08
1.18545e+08
1.20996e+08
1.23296e+08
1.25435e+08
1.2741e+08
1.29217e+08
1.30854e+08
1.3232e+08
1.33619e+08
1.34755e+08
1.35736e+08
1.36573e+08
1.37276e+08
1.37859e+08
1.38334e+08
1.3872e+08
1.39032e+08
1.39289e+08
1.39513e+08
1.39727e+08
1.39957e+08
1.40231e+08
1.40582e+08
1.41046e+08
1.41662e+08
1.42472e+08
1.43524e+08
1.44869e+08
1.46563e+08
1.48666e+08
1.51239e+08
1.54346e+08
1.58047e+08
1.62404e+08
1.67472e+08
1.73303e+08
1.79943e+08
1.87428e+08
1.95785e+08
2.05028e+08
2.1516e+08
2.26176e+08
2.38054e+08
2.50768e+08
2.64277e+08
2.78539e+08
2.93491e+08
3.09085e+08
3.25257e+08
3.41941e+08
3.59062e+08
3.76551e+08
3.94324e+08
4.12296e+08
4.30374e+08
4.48437e+08
4.6635e+08
4.8395e+08
5.01075e+08
5.17495e+08
5.32975e+08
5.47232e+08
5.59967e+08
5.70843e+08
5.79541e+08
5.85734e+08
5.89133e+08
5.89479e+08
5.86595e+08
5.80351e+08
5.70758e+08
5.57891e+08
5.42005e+08
5.23409e+08
5.02582e+08
4.79984e+08
4.56128e+08
4.31379e+08
4.06166e+08
3.80699e+08
3.55218e+08
5.73457e+07
5.72927e+07
5.71731e+07
5.69816e+07
5.67169e+07
5.63794e+07
5.59702e+07
5.54904e+07
5.49409e+07
5.43229e+07
5.36379e+07
5.28875e+07
5.20738e+07
5.11988e+07
5.02647e+07
4.92741e+07
4.82299e+07
4.71351e+07
4.5993e+07
4.4807e+07
4.35809e+07
4.23185e+07
4.10238e+07
3.97008e+07
3.83536e+07
3.69861e+07
3.56023e+07
3.42066e+07
3.28031e+07
3.13962e+07
2.99902e+07
2.85896e+07
2.71985e+07
2.58215e+07
2.44628e+07
2.31268e+07
2.18179e+07
2.05405e+07
1.92993e+07
1.80989e+07
1.69441e+07
1.58396e+07
1.47903e+07
1.38013e+07
1.28775e+07
1.20243e+07
1.12469e+07
1.05507e+07
9.94099e+06
9.42332e+06
9.00307e+06
8.68569e+06
8.47658e+06
8.38096e+06
8.40393e+06
8.55037e+06
8.82484e+06
9.23156e+06
9.77435e+06
1.04565e+07
1.12806e+07
1.22488e+07
1.33626e+07
1.46226e+07
1.60286e+07
1.75799e+07
1.92748e+07
2.11109e+07
2.30851e+07
2.51935e+07
2.74316e+07
2.97943e+07
3.22756e+07
3.48692e+07
3.75685e+07
4.03663e+07
4.32554e+07
4.62282e+07
4.92769e+07
5.23937e+07
5.55706e+07
5.87995e+07
6.20721e+07
6.53803e+07
6.87155e+07
7.2069e+07
7.54318e+07
7.87946e+07
8.21478e+07
8.54811e+07
8.8784e+07
9.20452e+07
9.52535e+07
9.83969e+07
1.01463e+08
1.0444e+08
1.07316e+08
1.1008e+08
1.12722e+08
1.15231e+08
1.17598e+08
1.19817e+08
1.21882e+08
1.23787e+08
1.25529e+08
1.27106e+08
1.28519e+08
1.2977e+08
1.30864e+08
1.31809e+08
1.32615e+08
1.33292e+08
1.33853e+08
1.3431e+08
1.34679e+08
1.34976e+08
1.3522e+08
1.35429e+08
1.35627e+08
1.35838e+08
1.3609e+08
1.36413e+08
1.36841e+08
1.37413e+08
1.38169e+08
1.39156e+08
1.40422e+08
1.42023e+08
1.44016e+08
1.4646e+08
1.49419e+08
1.52951e+08
1.57115e+08
1.61967e+08
1.67556e+08
1.73926e+08
1.81113e+08
1.89145e+08
1.98036e+08
2.07789e+08
2.18398e+08
2.29845e+08
2.42104e+08
2.55141e+08
2.68907e+08
2.83348e+08
2.98409e+08
3.14041e+08
3.30175e+08
3.4674e+08
3.63665e+08
3.80878e+08
3.98294e+08
4.15821e+08
4.33343e+08
4.50734e+08
4.67833e+08
4.84481e+08
5.00463e+08
5.15548e+08
5.29471e+08
5.41939e+08
5.52632e+08
5.61246e+08
5.67462e+08
5.71007e+08
5.71632e+08
5.69162e+08
5.63465e+08
5.54526e+08
5.4242e+08
5.27372e+08
5.09668e+08
4.89762e+08
4.68082e+08
4.45106e+08
4.21208e+08
3.96789e+08
3.72074e+08
3.47235e+08
5.44505e+07
5.44012e+07
5.42891e+07
5.41098e+07
5.38629e+07
5.35492e+07
5.31696e+07
5.27246e+07
5.22148e+07
5.16414e+07
5.10054e+07
5.0308e+07
4.95508e+07
4.87356e+07
4.78643e+07
4.69393e+07
4.59633e+07
4.49389e+07
4.38693e+07
4.27576e+07
4.16072e+07
4.04217e+07
3.92047e+07
3.79598e+07
3.66903e+07
3.54001e+07
3.40929e+07
3.27727e+07
3.14436e+07
3.01098e+07
2.87753e+07
2.74442e+07
2.61206e+07
2.48085e+07
2.35121e+07
2.22355e+07
2.0983e+07
1.97589e+07
1.85677e+07
1.74139e+07
1.63021e+07
1.5237e+07
1.42234e+07
1.32662e+07
1.23706e+07
1.15416e+07
1.07845e+07
1.01045e+07
9.50721e+06
8.99791e+06
8.58204e+06
8.26503e+06
8.05223e+06
7.94887e+06
7.96001e+06
8.09054e+06
8.34505e+06
8.72772e+06
9.24232e+06
9.89206e+06
1.06797e+07
1.16071e+07
1.26759e+07
1.38866e+07
1.5239e+07
1.67323e+07
1.83649e+07
2.01343e+07
2.20377e+07
2.40711e+07
2.62299e+07
2.85092e+07
3.09033e+07
3.34058e+07
3.60102e+07
3.87097e+07
4.1497e+07
4.43649e+07
4.73056e+07
5.03115e+07
5.33746e+07
5.64871e+07
5.96408e+07
6.28276e+07
6.6039e+07
6.92665e+07
7.25014e+07
7.57345e+07
7.89562e+07
8.21567e+07
8.53254e+07
8.84516e+07
9.15242e+07
9.45316e+07
9.74624e+07
1.00305e+08
1.03048e+08
1.05682e+08
1.08196e+08
1.10581e+08
1.1283e+08
1.14936e+08
1.16895e+08
1.187e+08
1.20349e+08
1.21841e+08
1.23177e+08
1.2436e+08
1.25395e+08
1.26288e+08
1.27049e+08
1.27687e+08
1.28215e+08
1.28645e+08
1.2899e+08
1.29264e+08
1.29486e+08
1.29673e+08
1.29847e+08
1.30031e+08
1.30249e+08
1.30531e+08
1.30907e+08
1.31415e+08
1.32094e+08
1.32987e+08
1.34142e+08
1.35611e+08
1.37448e+08
1.39712e+08
1.4246e+08
1.45754e+08
1.49647e+08
1.54194e+08
1.59442e+08
1.65434e+08
1.72203e+08
1.7978e+08
1.88178e+08
1.97402e+08
2.07443e+08
2.18288e+08
2.29916e+08
2.42293e+08
2.55372e+08
2.69102e+08
2.8343e+08
2.98313e+08
3.13687e+08
3.29485e+08
3.45636e+08
3.62077e+08
3.78725e+08
3.9549e+08
4.12262e+08
4.28925e+08
4.45325e+08
4.61305e+08
4.76668e+08
4.91189e+08
5.04621e+08
5.16688e+08
5.27091e+08
5.35545e+08
5.41746e+08
5.4544e+08
5.46385e+08
5.44414e+08
5.39396e+08
5.31302e+08
5.20192e+08
5.06257e+08
4.89759e+08
4.71113e+08
4.50698e+08
4.2896e+08
4.06259e+08
3.82971e+08
3.59336e+08
3.35503e+08
5.0927e+07
5.0883e+07
5.07811e+07
5.06181e+07
5.03943e+07
5.01104e+07
4.97665e+07
4.93631e+07
4.89008e+07
4.83802e+07
4.78019e+07
4.71669e+07
4.64767e+07
4.57325e+07
4.49362e+07
4.40899e+07
4.31958e+07
4.22563e+07
4.1274e+07
4.02519e+07
3.91931e+07
3.81004e+07
3.69771e+07
3.5826e+07
3.46504e+07
3.34536e+07
3.22394e+07
3.10112e+07
2.9773e+07
2.85284e+07
2.72812e+07
2.60351e+07
2.47938e+07
2.35611e+07
2.23408e+07
2.11368e+07
1.99534e+07
1.87945e+07
1.76645e+07
1.65677e+07
1.55086e+07
1.44918e+07
1.35219e+07
1.26039e+07
1.17427e+07
1.09434e+07
1.02111e+07
9.55113e+06
8.96891e+06
8.46981e+06
8.05922e+06
7.74253e+06
7.52509e+06
7.4121e+06
7.40861e+06
7.51946e+06
7.74917e+06
8.1019e+06
8.58135e+06
9.19078e+06
9.93282e+06
1.08095e+07
1.18222e+07
1.29715e+07
1.42571e+07
1.56783e+07
1.72334e+07
1.892e+07
2.07353e+07
2.26754e+07
2.4736e+07
2.6912e+07
2.91978e+07
3.15875e+07
3.40746e+07
3.66524e+07
3.93139e+07
4.2052e+07
4.48593e+07
4.77282e+07
5.06511e+07
5.36201e+07
5.66274e+07
5.96648e+07
6.27243e+07
6.57972e+07
6.88753e+07
7.19494e+07
7.50102e+07
7.8048e+07
8.10529e+07
8.40144e+07
8.69217e+07
8.97638e+07
9.25296e+07
9.52085e+07
9.77902e+07
1.00265e+08
1.02624e+08
1.04859e+08
1.06962e+08
1.08929e+08
1.10756e+08
1.12438e+08
1.13973e+08
1.1536e+08
1.16601e+08
1.177e+08
1.1866e+08
1.19487e+08
1.20191e+08
1.2078e+08
1.21265e+08
1.21658e+08
1.2197e+08
1.22214e+08
1.22408e+08
1.22566e+08
1.22707e+08
1.22854e+08
1.23029e+08
1.23259e+08
1.23572e+08
1.24002e+08
1.24586e+08
1.25365e+08
1.26383e+08
1.27691e+08
1.29339e+08
1.31383e+08
1.33875e+08
1.36877e+08
1.4044e+08
1.44616e+08
1.4945e+08
1.54983e+08
1.61248e+08
1.68274e+08
1.76076e+08
1.84659e+08
1.94018e+08
2.0414e+08
2.15005e+08
2.26587e+08
2.3884e+08
2.51719e+08
2.65171e+08
2.79158e+08
2.93624e+08
3.08507e+08
3.23737e+08
3.39255e+08
3.54984e+08
3.70838e+08
3.8671e+08
4.02493e+08
4.18046e+08
4.33216e+08
4.47822e+08
4.61653e+08
4.74473e+08
4.86028e+08
4.96052e+08
5.04272e+08
5.10409e+08
5.14222e+08
5.15485e+08
5.14044e+08
5.09773e+08
5.02627e+08
4.92651e+08
4.79998e+08
4.6491e+08
4.47746e+08
4.28842e+08
4.08605e+08
3.87363e+08
3.65469e+08
3.43171e+08
3.20629e+08
4.69982e+07
4.69611e+07
4.68717e+07
4.67279e+07
4.65303e+07
4.6279e+07
4.59742e+07
4.56163e+07
4.52055e+07
4.4742e+07
4.42263e+07
4.36594e+07
4.30421e+07
4.23757e+07
4.16617e+07
4.09017e+07
4.00976e+07
3.92515e+07
3.83656e+07
3.74425e+07
3.64846e+07
3.54943e+07
3.44743e+07
3.34271e+07
3.23556e+07
3.12628e+07
3.0152e+07
2.90266e+07
2.78897e+07
2.67447e+07
2.55949e+07
2.44437e+07
2.32944e+07
2.21504e+07
2.10154e+07
1.9893e+07
1.87871e+07
1.77016e+07
1.66405e+07
1.5608e+07
1.46083e+07
1.36459e+07
1.27254e+07
1.18515e+07
1.10291e+07
1.02631e+07
9.55871e+06
8.92122e+06
8.35593e+06
7.86819e+06
7.46338e+06
7.14686e+06
6.92397e+06
6.79988e+06
6.77957e+06
6.86782e+06
7.06913e+06
7.38761e+06
7.8269e+06
8.39019e+06
9.08007e+06
9.89854e+06
1.08469e+07
1.19258e+07
1.3135e+07
1.44736e+07
1.59401e+07
1.7532e+07
1.92465e+07
2.10799e+07
2.3028e+07
2.50859e+07
2.72481e+07
2.95088e+07
3.18618e+07
3.43007e+07
3.68186e+07
3.94087e+07
4.20638e+07
4.47764e+07
4.75392e+07
5.03446e+07
5.31849e+07
5.60522e+07
5.89387e+07
6.18359e+07
6.47355e+07
6.76289e+07
7.0507e+07
7.33603e+07
7.61793e+07
7.89542e+07
8.16747e+07
8.43302e+07
8.69102e+07
8.94053e+07
9.18057e+07
9.41026e+07
9.62876e+07
9.83534e+07
1.00294e+08
1.02105e+08
1.03783e+08
1.05326e+08
1.06731e+08
1.08e+08
1.09134e+08
1.10135e+08
1.11009e+08
1.1176e+08
1.12396e+08
1.12927e+08
1.1336e+08
1.13708e+08
1.13978e+08
1.14185e+08
1.14343e+08
1.14464e+08
1.14567e+08
1.14669e+08
1.14792e+08
1.14961e+08
1.15201e+08
1.15543e+08
1.16022e+08
1.16673e+08
1.17539e+08
1.18665e+08
1.20101e+08
1.21898e+08
1.24106e+08
1.26782e+08
1.29976e+08
1.33736e+08
1.38108e+08
1.43129e+08
1.48833e+08
1.55248e+08
1.62389e+08
1.70262e+08
1.78866e+08
1.88189e+08
1.98212e+08
2.08915e+08
2.20259e+08
2.32204e+08
2.44696e+08
2.57703e+08
2.71174e+08
2.85054e+08
2.99276e+08
3.13782e+08
3.28502e+08
3.43351e+08
3.58231e+08
3.73042e+08
3.87654e+08
4.01921e+08
4.15675e+08
4.28725e+08
4.40844e+08
4.51802e+08
4.61365e+08
4.69279e+08
4.75291e+08
4.7917e+08
4.80716e+08
4.79791e+08
4.76267e+08
4.70093e+08
4.61293e+08
4.49996e+08
4.36411e+08
4.20847e+08
4.03594e+08
3.85019e+08
3.6541e+08
3.45089e+08
3.2431e+08
3.0326e+08
4.28891e+07
4.28596e+07
4.27837e+07
4.26603e+07
4.24897e+07
4.22721e+07
4.20077e+07
4.16964e+07
4.1338e+07
4.09329e+07
4.04814e+07
3.99841e+07
3.94419e+07
3.88556e+07
3.82263e+07
3.75554e+07
3.68443e+07
3.60949e+07
3.53089e+07
3.44881e+07
3.36346e+07
3.27504e+07
3.18374e+07
3.08981e+07
2.99348e+07
2.89504e+07
2.79477e+07
2.69294e+07
2.58984e+07
2.48575e+07
2.38096e+07
2.27577e+07
2.17049e+07
2.06541e+07
1.96089e+07
1.85724e+07
1.75484e+07
1.65403e+07
1.55519e+07
1.45872e+07
1.36504e+07
1.27455e+07
1.18771e+07
1.10497e+07
1.02683e+07
9.53751e+06
8.86264e+06
8.24881e+06
7.70129e+06
7.22544e+06
6.82656e+06
6.50999e+06
6.28099e+06
6.14473e+06
6.10614e+06
6.16996e+06
6.34062e+06
6.62217e+06
7.0182e+06
7.53182e+06
8.16556e+06
8.92136e+06
9.80049e+06
1.08035e+07
1.19303e+07
1.318e+07
1.45508e+07
1.60406e+07
1.76464e+07
1.93648e+07
2.11915e+07
2.31218e+07
2.51505e+07
2.7272e+07
2.94803e+07
3.1769e+07
3.41318e+07
3.65619e+07
3.90524e+07
4.15962e+07
4.4186e+07
4.68146e+07
4.94744e+07
5.21579e+07
5.48574e+07
5.75647e+07
6.02718e+07
6.29702e+07
6.56512e+07
6.83057e+07
7.09247e+07
7.34988e+07
7.60184e+07
7.84736e+07
8.0855e+07
8.31535e+07
8.53604e+07
8.7468e+07
8.94684e+07
9.13556e+07
9.3124e+07
9.477e+07
9.6291e+07
9.76856e+07
9.89535e+07
1.00095e+08
1.01113e+08
1.02009e+08
1.02789e+08
1.03456e+08
1.04018e+08
1.04482e+08
1.04857e+08
1.05151e+08
1.05374e+08
1.05537e+08
1.05652e+08
1.05731e+08
1.05788e+08
1.05841e+08
1.05907e+08
1.06009e+08
1.0617e+08
1.06419e+08
1.06785e+08
1.07302e+08
1.08006e+08
1.08941e+08
1.10153e+08
1.11689e+08
1.13598e+08
1.15932e+08
1.18738e+08
1.22062e+08
1.25948e+08
1.30432e+08
1.35548e+08
1.41323e+08
1.47773e+08
1.54905e+08
1.62721e+08
1.71212e+08
1.80363e+08
1.90155e+08
2.00556e+08
2.11531e+08
2.23034e+08
2.35031e+08
2.47476e+08
2.60319e+08
2.73499e+08
2.8696e+08
3.00634e+08
3.14439e+08
3.28288e+08
3.42084e+08
3.55709e+08
3.6902e+08
3.81865e+08
3.94071e+08
4.05427e+08
4.15725e+08
4.24753e+08
4.3229e+08
4.38106e+08
4.41984e+08
4.43749e+08
4.4328e+08
4.40451e+08
4.35204e+08
4.27546e+08
4.17595e+08
4.05518e+08
3.91581e+08
3.76026e+08
3.59181e+08
3.41285e+08
3.22638e+08
3.03482e+08
2.84042e+08
3.8813e+07
3.87909e+07
3.87284e+07
3.86251e+07
3.84813e+07
3.82969e+07
3.80717e+07
3.78056e+07
3.74984e+07
3.71505e+07
3.67619e+07
3.6333e+07
3.58643e+07
3.53564e+07
3.48102e+07
3.42267e+07
3.3607e+07
3.29523e+07
3.22641e+07
3.15437e+07
3.07926e+07
3.00124e+07
2.92048e+07
2.83719e+07
2.75157e+07
2.66385e+07
2.57427e+07
2.48305e+07
2.39043e+07
2.29666e+07
2.20199e+07
2.10668e+07
2.01099e+07
1.9152e+07
1.81962e+07
1.72454e+07
1.6303e+07
1.53721e+07
1.44563e+07
1.35594e+07
1.26852e+07
1.18378e+07
1.10215e+07
1.02407e+07
9.50016e+06
8.80467e+06
8.15924e+06
7.569e+06
7.03916e+06
6.57501e+06
6.18182e+06
5.86487e+06
5.62938e+06
5.48043e+06
5.42297e+06
5.46165e+06
5.60086e+06
5.84454e+06
6.19622e+06
6.65896e+06
7.2352e+06
7.9268e+06
8.735e+06
9.66032e+06
1.07026e+07
1.18609e+07
1.31336e+07
1.45184e+07
1.60126e+07
1.76125e+07
1.93143e+07
2.11133e+07
2.30045e+07
2.49824e+07
2.70413e+07
2.9175e+07
3.13775e+07
3.36421e+07
3.59623e+07
3.83312e+07
4.07418e+07
4.31872e+07
4.566e+07
4.81529e+07
5.06584e+07
5.31688e+07
5.5676e+07
5.81722e+07
6.06489e+07
6.30976e+07
6.55097e+07
6.78761e+07
7.01881e+07
7.24369e+07
7.46136e+07
7.67102e+07
7.87188e+07
8.06324e+07
8.24442e+07
8.41491e+07
8.57422e+07
8.72205e+07
8.85818e+07
8.98259e+07
9.09534e+07
9.19651e+07
9.28629e+07
9.36501e+07
9.43308e+07
9.49097e+07
9.53925e+07
9.57859e+07
9.60961e+07
9.63315e+07
9.65013e+07
9.66147e+07
9.66813e+07
9.67126e+07
9.67205e+07
9.67191e+07
9.67245e+07
9.67569e+07
9.68369e+07
9.69888e+07
9.72401e+07
9.76201e+07
9.81622e+07
9.89059e+07
9.98927e+07
1.01168e+08
1.02778e+08
1.04769e+08
1.07185e+08
1.10071e+08
1.1347e+08
1.17417e+08
1.21945e+08
1.2708e+08
1.32839e+08
1.39234e+08
1.46265e+08
1.5393e+08
1.62214e+08
1.71104e+08
1.80573e+08
1.90589e+08
2.01113e+08
2.12116e+08
2.23549e+08
2.35368e+08
2.47516e+08
2.59942e+08
2.72575e+08
2.85344e+08
2.98164e+08
3.10944e+08
3.2357e+08
3.35908e+08
3.47822e+08
3.59152e+08
3.69704e+08
3.79295e+08
3.87731e+08
3.9482e+08
4.00363e+08
4.04158e+08
4.0606e+08
4.05953e+08
4.03723e+08
3.99307e+08
3.92705e+08
3.84017e+08
3.7338e+08
3.61019e+08
3.47134e+08
3.32004e+08
3.15829e+08
2.98881e+08
2.81389e+08
2.63607e+08
3.49571e+07
3.49418e+07
3.48915e+07
3.48069e+07
3.4688e+07
3.45345e+07
3.4346e+07
3.41223e+07
3.38634e+07
3.3569e+07
3.32394e+07
3.28745e+07
3.24747e+07
3.20403e+07
3.1572e+07
3.10704e+07
3.05363e+07
2.99704e+07
2.93738e+07
2.87475e+07
2.80927e+07
2.74105e+07
2.67024e+07
2.59699e+07
2.52146e+07
2.44386e+07
2.36437e+07
2.28317e+07
2.20046e+07
2.11644e+07
2.03134e+07
1.94538e+07
1.85878e+07
1.7718e+07
1.6847e+07
1.59776e+07
1.51125e+07
1.42549e+07
1.34081e+07
1.25755e+07
1.17608e+07
1.0968e+07
1.02012e+07
9.46469e+06
8.76304e+06
8.10102e+06
7.48353e+06
6.91561e+06
6.4024e+06
5.94912e+06
5.561e+06
5.24325e+06
5.00105e+06
4.83946e+06
4.76333e+06
4.77728e+06
4.8856e+06
5.09219e+06
5.40047e+06
5.81338e+06
6.33329e+06
6.96201e+06
7.70067e+06
8.54972e+06
9.50893e+06
1.05774e+07
1.17535e+07
1.30349e+07
1.44189e+07
1.59019e+07
1.74802e+07
1.91492e+07
2.09041e+07
2.27396e+07
2.46501e+07
2.66298e+07
2.86726e+07
3.07723e+07
3.29224e+07
3.51166e+07
3.73481e+07
3.961e+07
4.18955e+07
4.41973e+07
4.65082e+07
4.88208e+07
5.11275e+07
5.34207e+07
5.56923e+07
5.79343e+07
6.01388e+07
6.22972e+07
6.44016e+07
6.64439e+07
6.84163e+07
7.03113e+07
7.21221e+07
7.38425e+07
7.54667e+07
7.69905e+07
7.84097e+07
7.97215e+07
8.09252e+07
8.20206e+07
8.30088e+07
8.38909e+07
8.4669e+07
8.53463e+07
8.59268e+07
8.64149e+07
8.68158e+07
8.71349e+07
8.73773e+07
8.75503e+07
8.76621e+07
8.77212e+07
8.77355e+07
8.77148e+07
8.76695e+07
8.76112e+07
8.75546e+07
8.75167e+07
8.75152e+07
8.75714e+07
8.77098e+07
8.79572e+07
8.83432e+07
8.89035e+07
8.96758e+07
9.07015e+07
9.20229e+07
9.36828e+07
9.57238e+07
9.81888e+07
1.01118e+08
1.04547e+08
1.08508e+08
1.13026e+08
1.18121e+08
1.23806e+08
1.30085e+08
1.36957e+08
1.44412e+08
1.52441e+08
1.6102e+08
1.70121e+08
1.79712e+08
1.89765e+08
2.00237e+08
2.11079e+08
2.2224e+08
2.3367e+08
2.45306e+08
2.57077e+08
2.689e+08
2.80688e+08
2.92332e+08
3.03706e+08
3.1469e+08
3.25133e+08
3.34865e+08
3.43716e+08
3.51516e+08
3.58097e+08
3.63289e+08
3.66914e+08
3.68849e+08
3.68992e+08
3.67236e+08
3.63524e+08
3.57854e+08
3.50303e+08
3.40986e+08
3.30094e+08
3.17787e+08
3.04297e+08
2.89792e+08
2.74508e+08
2.58663e+08
2.42532e+08
3.14729e+07
3.14633e+07
3.14237e+07
3.13556e+07
3.12589e+07
3.1133e+07
3.09776e+07
3.07924e+07
3.05769e+07
3.03309e+07
3.00544e+07
2.97473e+07
2.94096e+07
2.90416e+07
2.86435e+07
2.82156e+07
2.77584e+07
2.72725e+07
2.67583e+07
2.62168e+07
2.56486e+07
2.50548e+07
2.44363e+07
2.37943e+07
2.31302e+07
2.24454e+07
2.17415e+07
2.10199e+07
2.02822e+07
1.95302e+07
1.87656e+07
1.79904e+07
1.72066e+07
1.64163e+07
1.56219e+07
1.48259e+07
1.40308e+07
1.32394e+07
1.24548e+07
1.16804e+07
1.09195e+07
1.01761e+07
9.45404e+06
8.7575e+06
8.09098e+06
7.45912e+06
6.86677e+06
6.31886e+06
5.82046e+06
5.3767e+06
4.99276e+06
4.6738e+06
4.42494e+06
4.25122e+06
4.15743e+06
4.14809e+06
4.22741e+06
4.39919e+06
4.66675e+06
5.03291e+06
5.49995e+06
6.06956e+06
6.74279e+06
7.52001e+06
8.40092e+06
9.38452e+06
1.04692e+07
1.16526e+07
1.2932e+07
1.43038e+07
1.57643e+07
1.73093e+07
1.89338e+07
2.06329e+07
2.24009e+07
2.42324e+07
2.61215e+07
2.8062e+07
3.00478e+07
3.20726e+07
3.41302e+07
3.62139e+07
3.83169e+07
4.04324e+07
4.25535e+07
4.46731e+07
4.67839e+07
4.88787e+07
5.095e+07
5.29902e+07
5.49918e+07
5.69472e+07
5.88489e+07
6.06899e+07
6.24629e+07
6.41615e+07
6.57794e+07
6.73115e+07
6.87531e+07
7.01006e+07
7.13506e+07
7.25011e+07
7.35517e+07
7.45026e+07
7.53552e+07
7.61107e+07
7.67713e+07
7.73401e+07
7.78207e+07
7.82176e+07
7.85352e+07
7.87776e+07
7.89499e+07
7.90583e+07
7.91096e+07
7.91109e+07
7.90698e+07
7.89939e+07
7.88927e+07
7.87762e+07
7.86573e+07
7.85502e+07
7.84701e+07
7.84354e+07
7.84678e+07
7.85915e+07
7.88333e+07
7.92247e+07
7.97995e+07
8.05945e+07
8.16485e+07
8.30022e+07
8.46953e+07
8.67681e+07
8.92597e+07
9.22054e+07
9.56361e+07
9.95781e+07
1.04054e+08
1.09077e+08
1.14654e+08
1.20789e+08
1.27475e+08
1.34704e+08
1.42457e+08
1.50712e+08
1.59439e+08
1.68612e+08
1.78192e+08
1.88128e+08
1.9837e+08
2.08872e+08
2.19574e+08
2.30403e+08
2.41283e+08
2.52123e+08
2.62822e+08
2.73263e+08
2.83333e+08
2.92895e+08
3.01801e+08
3.09896e+08
3.17026e+08
3.23046e+08
3.27819e+08
3.31182e+08
3.33042e+08
3.3331e+08
3.31896e+08
3.28746e+08
3.23859e+08
3.17294e+08
3.09148e+08
2.99578e+08
2.88718e+08
2.76749e+08
2.63817e+08
2.50117e+08
2.35856e+08
2.2132e+08
2.84707e+07
2.84652e+07
2.84343e+07
2.83801e+07
2.83023e+07
2.82002e+07
2.80734e+07
2.79214e+07
2.77437e+07
2.75399e+07
2.73097e+07
2.70529e+07
2.67692e+07
2.64588e+07
2.61215e+07
2.57575e+07
2.5367e+07
2.49501e+07
2.45073e+07
2.4039e+07
2.35457e+07
2.30281e+07
2.24868e+07
2.19229e+07
2.13373e+07
2.07312e+07
2.01056e+07
1.94618e+07
1.88011e+07
1.81249e+07
1.74347e+07
1.67321e+07
1.60189e+07
1.52969e+07
1.45682e+07
1.38352e+07
1.31e+07
1.23655e+07
1.16344e+07
1.09099e+07
1.01953e+07
9.49426e+06
8.81053e+06
8.14826e+06
7.5118e+06
6.90572e+06
6.33476e+06
5.80379e+06
5.3178e+06
4.88185e+06
4.50107e+06
4.18058e+06
3.92544e+06
3.7406e+06
3.63078e+06
3.60041e+06
3.65363e+06
3.79414e+06
4.02513e+06
4.3493e+06
4.76879e+06
5.28517e+06
5.89937e+06
6.61163e+06
7.42156e+06
8.32806e+06
9.32943e+06
1.04234e+07
1.1607e+07
1.28768e+07
1.4229e+07
1.56594e+07
1.71633e+07
1.87357e+07
2.03713e+07
2.20645e+07
2.38097e+07
2.56009e+07
2.74321e+07
2.92973e+07
3.11904e+07
3.31051e+07
3.50351e+07
3.69735e+07
3.89139e+07
4.08495e+07
4.27733e+07
4.46786e+07
4.65583e+07
4.84055e+07
5.02131e+07
5.19742e+07
5.36822e+07
5.53304e+07
5.69126e+07
5.8423e+07
5.98564e+07
6.12084e+07
6.24755e+07
6.36542e+07
6.47424e+07
6.57386e+07
6.66425e+07
6.74547e+07
6.81766e+07
6.88097e+07
6.93561e+07
6.98189e+07