/*--------------------------------*- C++ -*----------------------------------*\
| =========                 |                                                 |
| \\      /  F ield         | OpenFOAM: The Open Source CFD Toolbox           |
|  \\    /   O peration     | Version:  dev                                   |
|   \\  /    A nd           | Web:      http://www.openfoam.org               |
|    \\/     M anipulation  |                                                 |
\*---------------------------------------------------------------------------*/
FoamFile
{
    version     2.0;
    format      ascii;
    class       volScalarField;
    object      rho;
    location    "9.117";
}
// * * * * * * * * * * * * * * * * * * * * * * * * * * * * * * * * * * * * * //

dimensions      [1 -3 0 0 0 0 0];

internalField   nonuniform List<scalar> 
12225
(
1.0184
1.02481
1.02801
1.03109
1.03503
1.0381
1.04114
1.04461
1.04659
1.05101
1.0516
1.05743
1.05633
1.06512
1.06273
1.06856
1.07411
1.07986
1.02281
1.0294
1.03325
1.03885
1.04379
1.05067
1.05346
1.06138
1.06075
1.07105
1.0656
1.08014
1.06931
1.0896
1.07853
1.09204
1.09054
1.09204
1.02213
1.02923
1.03253
1.03904
1.04364
1.0519
1.05527
1.06496
1.06563
1.07687
1.0741
1.08649
1.08153
1.09455
1.08873
1.10101
1.09807
1.10337
1.02238
1.0292
1.03306
1.03783
1.04387
1.04902
1.05564
1.06068
1.06746
1.07189
1.07777
1.0816
1.08654
1.08952
1.09356
1.09738
1.10056
1.10264
1.0243
1.0281
1.03477
1.03625
1.04489
1.04655
1.05571
1.05728
1.06658
1.0685
1.07666
1.07919
1.08552
1.08842
1.09318
1.09741
1.09996
1.10407
1.0266
1.02758
1.03623
1.03584
1.04593
1.04646
1.05655
1.05705
1.06703
1.06812
1.07684
1.07803
1.0857
1.08715
1.09359
1.09606
1.10079
1.10298
1.02851
1.02845
1.03745
1.03659
1.04684
1.04751
1.05751
1.05833
1.06802
1.06945
1.07716
1.07873
1.08597
1.0883
1.09411
1.097
1.10063
1.10239
1.03024
1.02984
1.03929
1.03815
1.04837
1.04891
1.05859
1.05947
1.06848
1.07001
1.07722
1.07915
1.08603
1.08905
1.09425
1.09702
1.09951
1.10128
1.03222
1.0312
1.04049
1.03934
1.04945
1.0502
1.05944
1.06067
1.06887
1.0709
1.07761
1.08015
1.08629
1.08975
1.09385
1.09647
1.09824
1.10004
1.03404
1.03339
1.04234
1.04114
1.05053
1.05147
1.05994
1.06167
1.06901
1.0716
1.07761
1.08079
1.08599
1.08955
1.0927
1.09522
1.09673
1.09859
1.03622
1.03633
1.04412
1.04362
1.05176
1.05342
1.06054
1.063
1.069
1.0721
1.07722
1.08087
1.08521
1.08863
1.09123
1.09356
1.09501
1.09675
1.03957
1.04049
1.0466
1.04706
1.0535
1.05577
1.06131
1.06437
1.06908
1.0726
1.07703
1.08082
1.08439
1.08747
1.08971
1.09168
1.09308
1.09464
1.04386
1.04574
1.04972
1.05104
1.05596
1.05864
1.06302
1.06625
1.06998
1.07343
1.07717
1.08052
1.08342
1.08604
1.08795
1.08962
1.09083
1.09225
1.05024
1.0527
1.05478
1.05632
1.05985
1.0625
1.06586
1.06877
1.0717
1.0747
1.07778
1.08052
1.08282
1.08506
1.0866
1.08805
1.08898
1.09004
1.05905
1.06135
1.06212
1.0635
1.06586
1.06803
1.07044
1.07282
1.075
1.07742
1.07972
1.08185
1.08358
1.08529
1.08643
1.08761
1.0883
1.08895
1.07091
1.07278
1.07253
1.07334
1.07468
1.07622
1.07779
1.07946
1.0809
1.08262
1.08411
1.08563
1.08684
1.088
1.08886
1.0897
1.09017
1.09059
1.08686
1.08789
1.08701
1.08713
1.08761
1.08849
1.08939
1.09024
1.09124
1.09236
1.09313
1.09408
1.09484
1.09546
1.09598
1.09647
1.09674
1.09698
1.10572
1.1063
1.10526
1.10502
1.10506
1.10579
1.10649
1.10677
1.10776
1.1088
1.10903
1.10962
1.11046
1.11063
1.11113
1.1116
1.11189
1.11217
1.12488
1.12542
1.12469
1.12454
1.12468
1.12572
1.1266
1.12672
1.12808
1.12956
1.12952
1.12999
1.13158
1.13164
1.13239
1.13335
1.13377
1.13425
1.14171
1.14267
1.14263
1.14307
1.14379
1.14516
1.14667
1.14715
1.14881
1.15103
1.15146
1.15194
1.15438
1.15495
1.15583
1.15757
1.15819
1.15884
1.15595
1.15733
1.15816
1.15953
1.16109
1.16278
1.165
1.16654
1.16848
1.17101
1.17274
1.17368
1.17618
1.17767
1.17875
1.18074
1.18181
1.18266
1.16761
1.16965
1.17124
1.17332
1.17576
1.17808
1.18092
1.18354
1.18602
1.18842
1.19124
1.19326
1.19544
1.19768
1.1995
1.20109
1.20291
1.20412
1.17662
1.17961
1.18191
1.18456
1.18775
1.19082
1.19429
1.19742
1.20056
1.20357
1.20667
1.20947
1.21223
1.21448
1.21694
1.21867
1.22062
1.2223
1.18366
1.18729
1.18993
1.19305
1.19685
1.20049
1.20441
1.20811
1.2117
1.21532
1.21871
1.22178
1.2251
1.22757
1.23016
1.23246
1.23439
1.23635
1.18872
1.19301
1.19613
1.19977
1.20397
1.20813
1.21231
1.21629
1.22017
1.22385
1.22754
1.23101
1.23434
1.23735
1.24015
1.24253
1.24486
1.24676
1.19229
1.19694
1.20058
1.2044
1.2086
1.21296
1.21742
1.22169
1.22586
1.2298
1.23372
1.23733
1.24091
1.24413
1.24706
1.24979
1.25215
1.25432
1.19507
1.19977
1.20355
1.20759
1.21205
1.21662
1.22142
1.22606
1.23062
1.23494
1.23917
1.24312
1.24694
1.25034
1.25351
1.25633
1.25897
1.26132
1.19652
1.20138
1.20531
1.20965
1.21449
1.21958
1.22491
1.23014
1.23532
1.24017
1.24487
1.2491
1.25312
1.25658
1.25994
1.2628
1.26567
1.26801
1.19775
1.20298
1.20704
1.21163
1.21689
1.22253
1.2282
1.2336
1.23856
1.24292
1.24696
1.25045
1.25375
1.25644
1.25898
1.26082
1.26281
1.26352
1.19777
1.20195
1.20491
1.20817
1.21177
1.21528
1.21846
1.22131
1.22379
1.22599
1.22804
1.22982
1.23148
1.23282
1.23405
1.23504
1.23592
1.23613
1.27295
1.32806
1.33435
1.32059
1.30982
1.30251
1.2968
1.2905
1.28554
1.28086
1.27628
1.27164
1.26858
1.26717
1.26625
1.26561
1.26438
1.26359
1.26426
1.26402
1.26424
1.26613
1.26537
1.26551
1.26791
1.26502
1.26503
1.26795
1.25987
1.25872
1.2716
1.27307
1.26085
1.24869
1.24366
1.24255
1.23962
1.23652
1.23621
1.23344
1.22484
1.21582
1.21046
1.20833
1.21121
1.21625
1.217
1.1994
1.20247
1.20932
1.19812
1.17819
1.16329
1.15478
1.14481
1.13079
1.12592
1.13034
1.13215
1.13195
1.13132
1.13025
1.12899
1.12752
1.12594
1.12423
1.12245
1.12057
1.11864
1.11664
1.11461
1.11253
1.1104
1.10823
1.10604
1.10383
1.10163
1.09941
1.09719
1.09494
1.09269
1.09053
1.08831
1.0862
1.08425
1.08252
1.08055
1.07883
1.07729
1.07568
1.07403
1.07263
1.07119
1.07002
1.06877
1.06796
1.06746
1.06707
1.06684
1.06717
1.06741
1.06687
1.06525
1.06324
1.06146
1.06043
1.06011
1.06072
1.06197
1.06268
1.06375
1.06705
1.07113
1.07487
1.08049
1.08792
1.0925
1.09672
1.10197
1.10907
1.11287
1.11616
1.1171
1.11495
1.11267
1.11149
1.1136
1.11561
1.11583
1.11614
1.10709
1.09006
1.08507
1.08164
1.07304
1.07389
1.07913
1.08237
1.08234
1.08443
1.09066
1.09536
1.10126
1.10352
1.11512
1.12842
1.12138
1.12313
1.12303
1.12255
1.1229
1.12223
1.11931
1.11517
1.10887
1.1052
1.10757
1.11579
1.12592
1.13769
1.13814
1.14198
1.13511
1.17293
1.15607
1.16573
1.15562
1.19973
1.1311
1.12796
1.19416
1.16894
1.1197
1.10241
1.07849
1.101
1.07905
1.05094
1.06538
1.02597
1.25548
1.30983
1.3306
1.31983
1.30646
1.29447
1.28695
1.27664
1.26649
1.25637
1.24886
1.24142
1.23701
1.23805
1.23897
1.24072
1.24343
1.24539
1.24745
1.25018
1.25341
1.25628
1.25866
1.26209
1.26339
1.26468
1.2667
1.26502
1.26411
1.26134
1.25645
1.26265
1.26158
1.2634
1.28958
1.30118
1.29819
1.29651
1.29516
1.29071
1.28031
1.273
1.26713
1.2766
1.28856
1.27837
1.2495
1.21146
1.19804
1.22816
1.22481
1.16605
1.15164
1.15796
1.15564
1.15532
1.15586
1.15635
1.15551
1.1541
1.15238
1.15047
1.14839
1.14632
1.14425
1.14209
1.14002
1.13777
1.13569
1.13356
1.13161
1.12955
1.12764
1.12575
1.12379
1.12187
1.12008
1.11848
1.11694
1.11559
1.11423
1.11303
1.11169
1.11006
1.10868
1.10832
1.10837
1.10707
1.1073
1.10786
1.10811
1.10845
1.10919
1.10954
1.11003
1.1105
1.1112
1.11188
1.11291
1.11465
1.11666
1.11676
1.11125
1.09999
1.08936
1.0855
1.08667
1.08619
1.07849
1.06946
1.06693
1.0688
1.06937
1.06903
1.07597
1.09993
1.12519
1.14412
1.15653
1.16379
1.17367
1.19704
1.21167
1.20912
1.18879
1.15664
1.14956
1.1626
1.16821
1.18515
1.21833
1.23225
1.21045
1.16673
1.13095
1.10066
1.09982
1.11714
1.11384
1.10083
1.09877
1.11369
1.12365
1.16506
1.1665
1.1761
1.17335
1.17076
1.16884
1.16497
1.16032
1.16114
1.16125
1.16478
1.15817
1.15348
1.15266
1.14817
1.17313
1.22241
1.251
1.26759
1.24939
1.31388
1.24478
1.1564
1.17733
1.2435
1.27236
1.24026
1.34413
1.39359
1.3365
1.28263
1.18517
1.30002
1.28603
1.19103
1.2414
1.11769
1.23631
1.26591
1.27726
1.26922
1.26557
1.26422
1.26319
1.25718
1.24872
1.23729
1.23156
1.23097
1.23463
1.24548
1.25531
1.26557
1.27515
1.28115
1.28752
1.29158
1.29377
1.2993
1.30185
1.30115
1.30423
1.30563
1.30115
1.29744
1.29576
1.28796
1.27741
1.2678
1.26151
1.25965
1.24907
1.25902
1.28024
1.28785
1.30692
1.31242
1.29343
1.26871
1.26912
1.31704
1.30478
1.2522
1.17729
1.16345
1.17796
1.17781
1.16745
1.16482
1.16241
1.16321
1.16031
1.15882
1.15607
1.15299
1.14947
1.14564
1.1422
1.13841
1.13492
1.13139
1.12831
1.12505
1.12207
1.11899
1.11602
1.11324
1.11036
1.10771
1.10502
1.10246
1.09972
1.09701
1.09445
1.09204
1.08967
1.08769
1.08562
1.08386
1.08232
1.08018
1.07774
1.07668
1.07685
1.0751
1.07502
1.07634
1.07829
1.08023
1.08427
1.08773
1.09252
1.09691
1.10226
1.10622
1.11023
1.1128
1.11401
1.11748
1.12422
1.12735
1.11398
1.0907
1.0761
1.077
1.07893
1.07121
1.06246
1.05899
1.05333
1.03791
1.02699
1.03819
1.06739
1.10071
1.13473
1.13714
1.12527
1.15965
1.21516
1.22095
1.15862
1.07652
1.05355
1.07613
1.10102
1.13979
1.1973
1.24179
1.23152
1.18815
1.12015
1.10546
1.15494
1.14302
1.11132
1.10737
1.10582
1.13632
1.10798
1.229
1.17205
1.15637
1.18655
1.17222
1.16999
1.17929
1.16653
1.14745
1.14592
1.15833
1.17407
1.17186
1.16994
1.16928
1.16875
1.19948
1.27893
1.33262
1.27326
1.26455
1.26075
1.07452
1.31218
1.08373
1.22112
1.29359
1.27827
1.31777
1.3947
1.39619
1.2701
1.3845
1.4308
1.32819
1.38248
1.22341
1.2228
1.23486
1.237
1.2344
1.23492
1.23788
1.23463
1.22835
1.22104
1.2172
1.22408
1.23699
1.25298
1.27062
1.28536
1.29548
1.30498
1.30753
1.30945
1.31361
1.31796
1.32022
1.3222
1.32259
1.31973
1.3161
1.31452
1.31458
1.30784
1.30152
1.30235
1.2949
1.27599
1.2708
1.26583
1.2515
1.26238
1.2803
1.27355
1.26214
1.25493
1.26423
1.30873
1.31991
1.27118
1.1967
1.15149
1.18156
1.17508
1.16792
1.17228
1.16668
1.16753
1.16366
1.16181
1.15859
1.15452
1.15105
1.14745
1.14346
1.13933
1.1359
1.13228
1.12881
1.12576
1.12297
1.12009
1.11751
1.11468
1.11234
1.10957
1.10709
1.1045
1.10192
1.0993
1.09629
1.09335
1.09024
1.08701
1.08399
1.08047
1.07685
1.0733
1.07018
1.06678
1.06403
1.06106
1.05847
1.0561
1.05386
1.05285
1.05121
1.05148
1.05287
1.05581
1.05753
1.06302
1.07088
1.07959
1.08798
1.09524
1.10323
1.11241
1.11591
1.1162
1.11332
1.09862
1.08323
1.08146
1.08074
1.0721
1.06415
1.07443
1.10011
1.0849
1.03864
1.02546
1.04676
1.08775
1.0964
1.07398
1.0968
1.17226
1.21494
1.15544
1.03953
0.990406
1.00856
1.03954
1.0903
1.15536
1.20798
1.21259
1.17388
1.12905
1.16238
1.18059
1.14596
1.12299
1.10806
1.12781
1.14383
1.07028
1.19073
1.1641
1.13532
1.16244
1.12584
1.10867
1.12643
1.14733
1.12581
1.10304
1.10338
1.13767
1.16398
1.17461
1.17792
1.17649
1.17822
1.23302
1.33348
1.31943
1.24642
1.32027
1.18994
1.3608
1.20787
1.17455
1.32351
1.33837
1.2889
1.35652
1.41244
1.32704
1.43069
1.43475
1.46028
1.37541
1.28509
1.21291
1.21749
1.21647
1.21362
1.20796
1.20364
1.19862
1.19709
1.19792
1.20951
1.22841
1.24247
1.25286
1.2588
1.26642
1.26856
1.27093
1.27153
1.27125
1.27545
1.28559
1.28907
1.28788
1.29007
1.29145
1.29048
1.28355
1.2723
1.2674
1.27673
1.28651
1.28394
1.27574
1.27958
1.27716
1.2471
1.23555
1.22917
1.21306
1.22597
1.25974
1.28864
1.28583
1.26705
1.20644
1.15494
1.17853
1.18285
1.17258
1.17483
1.17392
1.16834
1.16907
1.16193
1.15948
1.15351
1.14931
1.14292
1.1382
1.13382
1.12954
1.12559
1.12209
1.11901
1.11588
1.11352
1.11089
1.10877
1.10647
1.10429
1.10233
1.10018
1.09831
1.09656
1.09509
1.09349
1.09164
1.08974
1.08747
1.08567
1.08348
1.08129
1.07821
1.07506
1.07239
1.06892
1.06517
1.06171
1.05831
1.05449
1.05179
1.04884
1.04689
1.04222
1.04199
1.04018
1.04127
1.04225
1.04345
1.04996
1.05965
1.07265
1.08355
1.0962
1.1123
1.11264
1.11182
1.11103
1.10131
1.08595
1.09297
1.10027
1.06844
1.04997
1.07141
1.08369
1.05222
1.02086
1.03559
1.05106
1.02741
1.04229
1.13637
1.21352
1.15757
1.02614
0.964146
0.977022
1.01506
1.07108
1.13319
1.18338
1.19154
1.15976
1.14304
1.17482
1.15608
1.13906
1.15734
1.12062
1.15476
1.10947
1.0644
1.12551
1.16656
1.11945
1.13846
1.12205
1.09305
1.07916
1.0958
1.11869
1.11051
1.08768
1.08841
1.10914
1.137
1.15528
1.1776
1.17659
1.19293
1.29115
1.36082
1.27788
1.33495
1.35021
1.15316
1.24913
1.19766
1.32389
1.45223
1.33191
1.33613
1.3953
1.36728
1.46521
1.38895
1.54396
1.15416
1.20994
1.20354
1.20312
1.19928
1.19093
1.18428
1.18214
1.18629
1.18921
1.19549
1.20405
1.20154
1.19799
1.20421
1.21728
1.23573
1.25118
1.25709
1.25935
1.26398
1.27005
1.27543
1.27868
1.27975
1.27968
1.2804
1.27885
1.28044
1.27725
1.26742
1.25674
1.24646
1.2426
1.24759
1.26023
1.27034
1.26651
1.27421
1.27505
1.25687
1.23858
1.25723
1.27643
1.24207
1.24007
1.18907
1.1586
1.18922
1.18052
1.17324
1.17738
1.16833
1.1651
1.16037
1.15334
1.14897
1.14115
1.13763
1.13205
1.1281
1.12396
1.1217
1.11878
1.11635
1.11449
1.11184
1.11002
1.10758
1.10518
1.10294
1.10035
1.09764
1.09528
1.09222
1.08982
1.08701
1.08472
1.08249
1.08032
1.07832
1.07676
1.07543
1.07374
1.07323
1.07088
1.0694
1.06817
1.06594
1.0645
1.06216
1.05959
1.05737
1.0538
1.05201
1.04941
1.04741
1.0465
1.03994
1.04431
1.03806
1.03926
1.04025
1.03516
1.05136
1.05737
1.07083
1.08813
1.10136
1.09961
1.11048
1.11895
1.09801
1.09104
1.10883
1.09913
1.06297
1.05376
1.06711
1.0578
1.03457
1.02629
0.992921
0.981665
1.08952
1.20427
1.16019
1.03975
0.973225
0.977028
1.00981
1.06685
1.12235
1.16792
1.17747
1.15246
1.14105
1.15982
1.12796
1.12733
1.17697
1.18513
1.17736
1.10005
1.04505
1.10867
1.11733
1.06639
1.08432
1.10417
1.10556
1.10103
1.10316
1.11158
1.11864
1.10515
1.09905
1.09661
1.09448
1.10293
1.13853
1.15831
1.1686
1.21642
1.36876
1.27662
1.33386
1.36466
1.19781
1.26734
1.17635
1.29791
1.47646
1.2654
1.2817
1.35257
1.39945
1.47794
1.40789
1.48642
0.973834
1.09446
1.19454
1.19154
1.18725
1.17984
1.175
1.17456
1.17944
1.17848
1.1759
1.16953
1.16653
1.17843
1.20178
1.22387
1.24581
1.25994
1.26248
1.25874
1.25748
1.25255
1.24374
1.23252
1.22496
1.22397
1.22494
1.22871
1.23442
1.24116
1.24895
1.25455
1.25671
1.2557
1.25293
1.2483
1.24156
1.23761
1.25726
1.28844
1.29167
1.25261
1.24437
1.23624
1.20966
1.22488
1.17928
1.16653
1.19294
1.17403
1.17136
1.17021
1.16007
1.15716
1.14914
1.14371
1.139
1.13399
1.13058
1.12737
1.12632
1.12397
1.12251
1.12144
1.1194
1.11827
1.11614
1.1144
1.11254
1.11051
1.1081
1.10665
1.10352
1.10197
1.09892
1.09579
1.093
1.08883
1.08593
1.08164
1.07861
1.07474
1.07241
1.06942
1.06691
1.06547
1.0632
1.06252
1.05948
1.06011
1.05709
1.0573
1.053
1.05459
1.0494
1.05231
1.04393
1.04898
1.04431
1.04189
1.04808
1.03827
1.04297
1.04058
1.04162
1.04001
1.04819
1.05014
1.05884
1.07843
1.08255
1.07875
1.0925
1.11263
1.09643
1.0822
1.09591
1.08625
1.0623
1.06448
1.07272
1.06668
1.01859
0.955689
1.02262
1.16106
1.15941
1.06497
0.988543
0.984806
1.00834
1.06933
1.11974
1.16159
1.16922
1.14656
1.13126
1.13316
1.11266
1.11904
1.15716
1.19993
1.16262
1.09519
1.0357
1.06653
1.06892
1.0651
1.0802
1.07854
1.08632
1.0805
1.10264
1.11005
1.10709
1.09076
1.09076
1.09977
1.09915
1.0768
1.0949
1.12387
1.15757
1.14111
1.32833
1.2374
1.32185
1.3294
1.20537
1.29378
1.17093
1.27944
1.42182
1.19792
1.23255
1.31835
1.38795
1.44693
1.40126
1.49538
1.17362
1.19422
1.18546
1.18087
1.17648
1.17112
1.16662
1.16898
1.17432
1.17144
1.16807
1.16414
1.16256
1.16517
1.17465
1.1839
1.19544
1.20447
1.20893
1.21279
1.21894
1.21789
1.20876
1.19566
1.18585
1.18294
1.18098
1.17897
1.17224
1.16856
1.17732
1.1884
1.19379
1.20016
1.20303
1.20338
1.19933
1.1935
1.20817
1.245
1.26587
1.23228
1.20869
1.19384
1.19898
1.21018
1.17112
1.17682
1.18681
1.16413
1.16712
1.15901
1.15205
1.14839
1.14091
1.13724
1.13242
1.13054
1.12872
1.1276
1.12722
1.12674
1.12487
1.12372
1.12105
1.11883
1.11617
1.11359
1.11088
1.10931
1.10539
1.10475
1.10164
1.0995
1.09934
1.09539
1.09536
1.09143
1.08977
1.08641
1.0829
1.08046
1.07657
1.07397
1.07005
1.06733
1.06239
1.06212
1.05721
1.05861
1.05521
1.05685
1.05442
1.05463
1.05222
1.05109
1.05157
1.04569
1.0489
1.04416
1.0412
1.04264
1.046
1.03845
1.04583
1.04315
1.04169
1.0529
1.0422
1.04047
1.05652
1.05418
1.0444
1.06649
1.08544
1.06531
1.06148
1.07836
1.06726
1.03594
1.0292
1.06237
1.05921
0.982203
0.975717
1.09645
1.14499
1.08817
1.00465
0.986135
1.00306
1.07417
1.12395
1.16089
1.16632
1.13846
1.12106
1.11641
1.11406
1.11134
1.12747
1.14095
1.11631
1.06749
1.0348
1.02144
1.03143
1.04353
1.05246
1.05611
1.08413
1.08949
1.09383
1.09483
1.09658
1.08442
1.07087
1.07998
1.10355
1.07824
1.0792
1.08055
1.14925
1.09787
1.28323
1.19736
1.28993
1.32171
1.15713
1.27142
1.24773
1.34974
1.31004
1.18853
1.18553
1.26041
1.40051
1.46186
1.41141
1.60069
1.2895
1.28683
1.17614
1.17081
1.16902
1.17048
1.16522
1.16036
1.16234
1.16216
1.16048
1.15277
1.14694
1.1492
1.16149
1.16805
1.16873
1.16984
1.167
1.16439
1.16868
1.16868
1.16171
1.15661
1.1569
1.16344
1.17262
1.18154
1.18194
1.18018
1.17885
1.17949
1.17618
1.17513
1.1746
1.17333
1.17381
1.17376
1.18165
1.19945
1.20507
1.18278
1.17545
1.1835
1.1987
1.19237
1.16939
1.17997
1.17278
1.15779
1.16004
1.15022
1.14573
1.14021
1.13473
1.13255
1.13066
1.13087
1.13119
1.13219
1.13128
1.13031
1.12759
1.12521
1.12226
1.11935
1.11644
1.11439
1.11019
1.10995
1.10555
1.10333
1.10219
1.09688
1.09778
1.09283
1.0924
1.08918
1.08696
1.08592
1.0825
1.07949
1.07671
1.07567
1.07308
1.07287
1.06826
1.06529
1.06106
1.05459
1.05544
1.04872
1.05404
1.04881
1.05314
1.05346
1.0507
1.05521
1.04793
1.04737
1.0521
1.04541
1.04741
1.04386
1.03764
1.04984
1.04294
1.04012
1.05034
1.04067
1.04193
1.06261
1.04732
1.02593
1.04862
1.05167
1.03486
1.04448
1.06011
1.03865
1.0043
1.02809
1.05737
1.01228
0.959184
1.02521
1.10259
1.09579
1.02412
0.984381
1.00015
1.06957
1.13218
1.15998
1.16784
1.13452
1.11159
1.10555
1.12033
1.10362
1.10312
1.10557
1.09498
1.07785
1.01165
1.0014
1.01685
1.02735
1.0381
1.06623
1.08824
1.09882
1.10813
1.10787
1.09626
1.09337
1.08788
1.06444
1.09452
1.07476
1.08047
1.04169
1.13422
1.06215
1.23685
1.15942
1.24523
1.28688
1.15507
1.27849
1.38731
1.49997
1.2409
1.20326
1.14834
1.21482
1.43294
1.45086
1.45971
1.59461
1.23696
1.21436
1.16664
1.16083
1.15966
1.15994
1.15174
1.15117
1.15681
1.1585
1.16087
1.15834
1.15475
1.15265
1.15651
1.15392
1.14921
1.14943
1.148
1.1462
1.15407
1.17149
1.18555
1.19241
1.18983
1.18144
1.17183
1.17241
1.17862
1.17946
1.17782
1.17739
1.17466
1.17323
1.1724
1.171
1.16931
1.16792
1.17042
1.1728
1.17216
1.17042
1.17923
1.18984
1.19244
1.17887
1.16998
1.17368
1.15944
1.15364
1.15203
1.14338
1.13898
1.13394
1.13211
1.13164
1.13339
1.13572
1.13635
1.13619
1.13383
1.13112
1.12812
1.12546
1.12326
1.12192
1.11849
1.11928
1.11506
1.11351
1.11279
1.10821
1.10868
1.1033
1.10203
1.09826
1.09637
1.09249
1.08988
1.08742
1.08586
1.08232
1.07739
1.07389
1.07038
1.07043
1.0742
1.07208
1.07563
1.06741
1.06646
1.05799
1.0529
1.05522
1.04919
1.056
1.05665
1.05693
1.06124
1.05698
1.05094
1.04939
1.04308
1.051
1.04801
1.04711
1.05482
1.0458
1.04892
1.05456
1.03879
1.04555
1.06269
1.04045
1.03874
1.05341
1.03819
1.02083
1.04154
1.04715
1.0091
1.00257
1.04147
1.03972
0.980546
0.986181
1.05849
1.08735
1.03959
0.983506
1.00347
1.05303
1.14416
1.16108
1.171
1.13662
1.10875
1.09982
1.11169
1.09605
1.10043
1.09177
1.08049
1.06644
1.0176
1.00728
1.02018
1.02052
1.04361
1.08464
1.10642
1.09403
1.08723
1.08628
1.07885
1.06476
1.0951
1.06372
1.0871
1.06284
1.08236
1.0099
1.12031
1.03986
1.19941
1.1286
1.20937
1.25264
1.14934
1.26576
1.48827
1.58481
1.24591
1.21691
1.1935
1.20734
1.44701
1.21785
1.50086
1.40316
1.23604
1.27747
1.15694
1.15054
1.14779
1.14263
1.13207
1.13351
1.13836
1.13798
1.13901
1.13943
1.14105
1.14284
1.14889
1.1513
1.1523
1.16136
1.1649
1.16
1.16059
1.16728
1.16413
1.16185
1.16803
1.1736
1.17244
1.17325
1.17598
1.17664
1.17651
1.17679
1.17473
1.17331
1.1736
1.17244
1.17096
1.17078
1.17092
1.17275
1.17494
1.17986
1.18496
1.18613
1.17987
1.16995
1.16471
1.16104
1.15053
1.14895
1.14325
1.13725
1.13463
1.13109
1.13217
1.13436
1.13709
1.13874
1.13787
1.13553
1.13286
1.13102
1.13027
1.12977
1.12747
1.12882
1.12492
1.1244
1.12368
1.11894
1.11872
1.11544
1.1143
1.11165
1.1071
1.10509
1.104
1.10096
1.09676
1.09141
1.09042
1.09081
1.09027
1.08432
1.07941
1.07061
1.06999
1.07041
1.07248
1.07983
1.07121
1.07564
1.06462
1.06054
1.05784
1.05263
1.05528
1.05996
1.06318
1.07002
1.06708
1.06502
1.05819
1.05171
1.05441
1.04895
1.04959
1.05292
1.04875
1.05816
1.05912
1.04183
1.04914
1.04949
1.03977
1.04849
1.06251
1.0405
1.03344
1.05275
1.03882
1.00347
1.01934
1.04925
1.01142
0.972181
1.01688
1.0712
1.05512
0.985941
1.00224
1.0343
1.14445
1.17052
1.17072
1.14458
1.10957
1.09905
1.10688
1.08806
1.09365
1.08974
1.07544
1.04932
1.01002
0.989861
1.00197
1.00823
1.04563
1.0824
1.09769
1.08434
1.08068
1.06419
1.07121
1.03733
1.08423
1.06282
1.08349
1.04101
1.08174
0.991497
1.10131
1.01395
1.16906
1.10823
1.17756
1.22274
1.13811
1.23102
1.50198
1.5575
1.21806
1.2056
1.24853
1.24566
1.46315
1.07473
1.34688
1.24829
1.2106
1.33838
1.14757
1.14157
1.13882
1.1372
1.13913
1.14194
1.14115
1.13764
1.13484
1.12997
1.12994
1.13208
1.13741
1.1411
1.13989
1.14763
1.15154
1.14872
1.14578
1.15372
1.16006
1.16266
1.16556
1.16734
1.16738
1.16727
1.16864
1.16899
1.17096
1.17317
1.17221
1.17372
1.17426
1.17322
1.17422
1.17537
1.17471
1.17734
1.17795
1.18014
1.17863
1.17514
1.16752
1.16033
1.15616
1.15149
1.14587
1.14242
1.13733
1.13376
1.13202
1.13026
1.13284
1.13675
1.13879
1.13905
1.13779
1.13648
1.13598
1.13514
1.13385
1.13545
1.13215
1.13057
1.12759
1.12369
1.12338
1.11983
1.11658
1.11777
1.11366
1.11709
1.11044
1.11014
1.1094
1.10913
1.10605
1.10146
1.09702
1.09449
1.09615
1.09727
1.09615
1.09362
1.08363
1.08413
1.07445
1.08345
1.07894
1.08476
1.08154
1.07812
1.07499
1.07043
1.07049
1.07143
1.06942
1.07039
1.07429
1.07598
1.07461
1.06429
1.05946
1.06052
1.05686
1.0603
1.05498
1.04984
1.06221
1.06058
1.05632
1.0631
1.0559
1.0395
1.05237
1.05467
1.03488
1.04595
1.06382
1.03207
1.00642
1.04216
1.0411
0.98528
0.989582
1.04859
1.06465
0.995677
0.994515
1.02429
1.12405
1.18971
1.17393
1.14657
1.11233
1.1031
1.10376
1.09574
1.09791
1.08028
1.05659
1.05217
1.00489
0.99865
1.01023
1.02055
1.06669
1.10072
1.09703
1.07538
1.07039
1.04856
1.06119
1.02386
1.07914
1.06381
1.08193
1.02382
1.08037
0.977355
1.08179
0.998572
1.14925
1.08392
1.14944
1.19902
1.12948
1.19975
1.45434
1.47843
1.15594
1.18625
1.3213
1.33854
1.43389
1.11866
1.18646
1.18145
1.21494
1.31241
1.13879
1.13473
1.13574
1.13919
1.13062
1.12231
1.13447
1.13196
1.12728
1.12711
1.12691
1.12825
1.13064
1.13769
1.13538
1.13343
1.13786
1.14364
1.14215
1.14301
1.14798
1.15244
1.15367
1.15888
1.16267
1.16106
1.16312
1.16278
1.16195
1.16317
1.16512
1.16497
1.16656
1.16584
1.16721
1.16823
1.16863
1.17014
1.16929
1.16871
1.16609
1.16143
1.15647
1.15149
1.14879
1.1439
1.14062
1.1371
1.13286
1.12973
1.12851
1.12955
1.13417
1.13756
1.13826
1.13944
1.13946
1.13776
1.13672
1.13834
1.13652
1.13547
1.13299
1.12933
1.12681
1.12164
1.11927
1.1223
1.11345
1.12089
1.11652
1.12065
1.11787
1.11615
1.11418
1.11361
1.1121
1.11103
1.10681
1.10565
1.10124
1.10191
1.09808
1.10047
1.09795
1.09834
1.0938
1.09655
1.0918
1.09429
1.09202
1.08591
1.08985
1.08566
1.07923
1.08184
1.08635
1.09007
1.08939
1.08683
1.08613
1.0824
1.07215
1.06818
1.06256
1.0636
1.06784
1.06067
1.05824
1.06694
1.06154
1.05985
1.07045
1.05618
1.04901
1.06662
1.05484
1.04051
1.06423
1.05988
1.01578
1.03147
1.05516
1.01222
0.983836
1.02877
1.06636
1.01107
0.988409
1.02285
1.09109
1.19561
1.19023
1.14726
1.1142
1.10579
1.10837
1.10107
1.09512
1.07984
1.05527
1.03768
1.00029
1.00191
1.00888
1.02645
1.07006
1.09223
1.08593
1.07225
1.06222
1.03864
1.04467
1.00944
1.0677
1.05699
1.08149
1.01338
1.0746
0.974156
1.0717
0.986781
1.13208
1.06869
1.13766
1.17816
1.12091
1.17322
1.39201
1.36567
1.13156
1.18669
1.32688
1.46827
1.42973
1.16744
1.17228
1.24956
1.242
1.32957
1.13025
1.12743
1.12749
1.1256
1.12021
1.12444
1.13024
1.12639
1.12325
1.12218
1.12159
1.1177
1.11461
1.12172
1.12923
1.13295
1.12863
1.12953
1.13484
1.13544
1.1383
1.14095
1.14184
1.14207
1.14695
1.14779
1.15035
1.1527
1.15526
1.1561
1.15667
1.15899
1.16002
1.1602
1.16059
1.1605
1.15913
1.15832
1.15682
1.15407
1.15179
1.1482
1.14623
1.14389
1.14114
1.13778
1.13539
1.13185
1.12885
1.12689
1.12647
1.12994
1.13353
1.13498
1.13943
1.14102
1.13775
1.13844
1.13888
1.13919
1.13776
1.13726
1.13875
1.134
1.12963
1.13019
1.12229
1.13143
1.12674
1.13107
1.13345
1.13525
1.1365
1.13296
1.13102
1.12799
1.12665
1.12358
1.11885
1.11582
1.11327
1.11239
1.11117
1.1085
1.10447
1.10494
1.10294
1.10436
1.10609
1.10146
1.10977
1.1031
1.10278
1.10268
1.09835
1.09938
1.09773
1.09689
1.10315
1.10105
1.09817
1.09278
1.08745
1.08152
1.0769
1.07039
1.07101
1.0729
1.06617
1.06927
1.07492
1.06336
1.07676
1.08074
1.06014
1.06841
1.07196
1.04682
1.05658
1.0759
1.03821
1.02566
1.05666
1.0377
0.992693
1.01825
1.06405
1.02732
0.984918
1.02265
1.07123
1.17229
1.21094
1.16729
1.13316
1.11436
1.11315
1.10881
1.09539
1.07131
1.05235
1.04345
1.0077
1.00612
1.01704
1.03885
1.08678
1.10505
1.08823
1.07127
1.05813
1.03903
1.04106
1.00564
1.06167
1.04746
1.06952
0.988806
1.06088
0.976899
1.06672
0.977817
1.1213
1.04893
1.12537
1.15957
1.10997
1.15431
1.33163
1.24948
1.13348
1.19501
1.37343
1.48852
1.39471
1.22342
1.20086
1.34045
1.22026
1.36291
1.12226
1.12127
1.12302
1.12514
1.1221
1.12489
1.13356
1.12541
1.11932
1.11507
1.1099
1.11566
1.11608
1.1175
1.11923
1.12446
1.12733
1.12395
1.12318
1.12052
1.12255
1.1256
1.12956
1.13461
1.1387
1.14326
1.14532
1.14566
1.14479
1.14469
1.14412
1.14387
1.14452
1.14549
1.14655
1.14809
1.14887
1.14863
1.1482
1.14664
1.14577
1.14406
1.14115
1.13911
1.13766
1.13541
1.13265
1.12983
1.12745
1.12521
1.1252
1.12789
1.13037
1.13483
1.13889
1.13749
1.13871
1.14175
1.13807
1.13879
1.14338
1.14039
1.13857
1.14199
1.13237
1.13041
1.12463
1.13015
1.13298
1.13843
1.14279
1.14435
1.14657
1.14495
1.14421
1.14254
1.14155
1.13977
1.13664
1.13291
1.12985
1.1286
1.12752
1.12894
1.12704
1.12501
1.12367
1.11626
1.11946
1.11119
1.11823
1.11131
1.11185
1.11181
1.10918
1.11026
1.11741
1.10763
1.11406
1.11069
1.10952
1.10373
1.10029
1.09211
1.08908
1.08494
1.08174
1.08548
1.08356
1.07028
1.0826
1.07264
1.06942
1.09122
1.07558
1.07082
1.08698
1.06986
1.05826
1.08127
1.0643
1.03184
1.05636
1.06079
1.00977
1.0144
1.06123
1.04509
0.993313
1.01292
1.06358
1.14328
1.20385
1.19672
1.17394
1.14281
1.12844
1.11901
1.09386
1.08205
1.05478
1.04408
1.01228
1.0169
1.03326
1.05898
1.0937
1.10718
1.08662
1.0655
1.04739
1.02762
1.0257
1.00031
1.05322
1.02837
1.05021
0.978949
1.06531
0.975862
1.05415
0.967256
1.11277
1.03023
1.11971
1.14555
1.10391
1.15072
1.28645
1.16074
1.13985
1.24885
1.38141
1.34095
1.41101
1.2789
1.23046
1.35844
1.20983
1.34548
1.11499
1.11569
1.11625
1.11546
1.11573
1.12329
1.13012
1.12223
1.1201
1.12403
1.11844
1.11613
1.10868
1.10526
1.10798
1.10841
1.11276
1.11955
1.12358
1.12522
1.12487
1.12308
1.12173
1.12069
1.12047
1.1216
1.12401
1.1277
1.13161
1.13528
1.13816
1.14003
1.14097
1.14096
1.14018
1.13905
1.13789
1.13663
1.1358
1.13516
1.13447
1.13353
1.13298
1.13325
1.1318
1.13104
1.13041
1.12838
1.1261
1.12491
1.12481
1.12704
1.12898
1.13351
1.13581
1.13838
1.14079
1.13931
1.14026
1.14061
1.13802
1.14224
1.14201
1.14277
1.13576
1.13305
1.12572
1.13038
1.13457
1.14143
1.14834
1.14953
1.15032
1.14902
1.14897
1.14818
1.14774
1.14488
1.14351
1.14013
1.14046
1.13994
1.13906
1.13773
1.13735
1.13568
1.13464
1.12977
1.13359
1.12739
1.13016
1.12482
1.1244
1.12518
1.12367
1.11909
1.12579
1.11813
1.12432
1.12364
1.11654
1.11358
1.11095
1.10558
1.09869
1.09211
1.08716
1.08822
1.09942
1.0838
1.08878
1.0933
1.07457
1.09759
1.09628
1.07739
1.09281
1.09116
1.06809
1.08306
1.08648
1.04747
1.0539
1.07818
1.03378
1.01702
1.06062
1.06241
1.01528
1.00291
1.05301
1.12719
1.17337
1.19966
1.21008
1.18213
1.15949
1.13232
1.10642
1.08001
1.0677
1.05082
1.0173
1.02833
1.0461
1.0671
1.08999
1.10162
1.08354
1.0653
1.04498
1.02797
1.01946
1.00294
1.04995
1.02175
1.04987
0.978936
1.05868
0.962637
1.03985
0.967605
1.10115
1.02609
1.13016
1.12637
1.09636
1.1493
1.24917
1.11944
1.17044
1.33129
1.25001
1.21632
1.46061
1.32377
1.24302
1.33639
1.18906
1.34664
1.10933
1.11422
1.11647
1.11529
1.11371
1.10929
1.113
1.12294
1.11416
1.11476
1.1237
1.12104
1.11645
1.11491
1.11169
1.10803
1.10598
1.10574
1.10632
1.10836
1.11106
1.11357
1.11653
1.11911
1.12099
1.12223
1.12285
1.12318
1.12338
1.12365
1.12416
1.12497
1.12611
1.12716
1.12836
1.12947
1.13059
1.1316
1.1324
1.13139
1.13051
1.12916
1.1279
1.12604
1.12449
1.12476
1.1236
1.12342
1.12385
1.12246
1.12261
1.12634
1.12816
1.13211
1.13479
1.13817
1.13815
1.14081
1.14056
1.13769
1.13897
1.14248
1.14193
1.14737
1.14228
1.1363
1.13174
1.13272
1.14169
1.14864
1.15595
1.15541
1.15717
1.15446
1.15397
1.15116
1.15167
1.14748
1.14672
1.14337
1.14473
1.14228
1.1433
1.14307
1.14233
1.13811
1.13591
1.13498
1.13275
1.13056
1.12999
1.13136
1.12755
1.12778
1.12468
1.12542
1.12757
1.12157
1.12186
1.12729
1.11825
1.12165
1.11758
1.11274
1.11157
1.10879
1.10545
1.10134
1.11337
1.09995
1.08851
1.10361
1.08477
1.09634
1.11508
1.09126
1.09468
1.10728
1.08364
1.08459
1.0992
1.06827
1.05357
1.08744
1.05969
1.02342
1.05901
1.07887
1.04178
1.00385
1.0344
1.11748
1.14891
1.17326
1.2226
1.21043
1.18801
1.15261
1.11623
1.09067
1.06563
1.05539
1.03176
1.04234
1.06276
1.08364
1.10833
1.10925
1.08087
1.05971
1.03765
1.02299
1.01578
1.01343
1.05292
1.02043
1.04308
0.962461
1.04154
0.963823
1.02679
0.962084
1.0931
1.03456
1.14438
1.10638
1.09239
1.14465
1.2152
1.12873
1.17053
1.2933
1.22931
1.07511
1.32934
1.31574
1.25728
1.29634
1.17462
1.34492
1.10605
1.11971
1.1256
1.12253
1.1136
1.10984
1.10486
1.10412
1.11027
1.11629
1.12007
1.12182
1.12176
1.12069
1.11861
1.11721
1.11522
1.11325
1.11112
1.10976
1.10907
1.1086
1.10869
1.10942
1.11036
1.11139
1.11288
1.11441
1.11579
1.11746
1.11918
1.12093
1.1226
1.12422
1.12503
1.12526
1.12456
1.12308
1.12142
1.12106
1.12213
1.12256
1.12311
1.12393
1.12327
1.12304
1.12262
1.12275
1.12327
1.12247
1.12396
1.12509
1.1274
1.13104
1.13202
1.1366
1.13643
1.13673
1.13663
1.13709
1.13969
1.14252
1.14552
1.14689
1.14552
1.13846
1.13311
1.13493
1.14298
1.15087
1.15699
1.15754
1.15878
1.15687
1.15664
1.15527
1.1554
1.14964
1.14931
1.14491
1.14562
1.14288
1.14613