/*--------------------------------*- C++ -*----------------------------------*\
| =========                 |                                                 |
| \\      /  F ield         | OpenFOAM: The Open Source CFD Toolbox           |
|  \\    /   O peration     | Version:  dev                                   |
|   \\  /    A nd           | Web:      http://www.openfoam.org               |
|    \\/     M anipulation  |                                                 |
\*---------------------------------------------------------------------------*/
FoamFile
{
    version     2.0;
    format      ascii;
    class       volScalarField;
    object      T;
    location    "9.117";
}
// * * * * * * * * * * * * * * * * * * * * * * * * * * * * * * * * * * * * * //

dimensions      [0 0 0 1 0 0 0];

internalField   nonuniform List<scalar> 
12225
(
288.263
286.661
286.251
286.096
285.832
285.913
286.05
286.133
286.592
286.449
287.304
286.796
288.105
286.857
288.488
288.203
287.821
287.346
287.055
285.424
284.842
283.999
283.474
282.532
282.746
281.644
282.809
281.123
283.569
280.802
284.64
280.444
284.273
282.034
283.493
284.259
287.333
285.569
285.139
284.046
283.61
282.295
282.354
280.787
281.606
279.691
281.412
279.238
281.509
279.226
281.695
279.731
281.549
281.331
287.42
285.746
285.164
284.543
283.712
283.233
282.414
282.074
281.28
281.139
280.606
280.639
280.352
280.627
280.579
280.699
280.954
281.476
287.121
286.313
284.953
285.236
283.69
284.153
282.645
283.226
281.755
282.265
281.125
281.481
280.833
281.092
280.873
280.822
281.209
281.156
286.846
286.835
284.927
285.723
283.775
284.542
282.776
283.639
281.982
282.706
281.414
282.105
281.102
281.722
281.057
281.426
281.191
281.535
286.844
287.124
285.115
286.034
284.039
284.763
283.018
283.788
282.205
282.83
281.798
282.375
281.472
281.842
281.319
281.525
281.521
281.924
286.959
287.342
285.211
286.203
284.214
284.965
283.304
284.05
282.642
283.23
282.32
282.789
281.966
282.135
281.739
281.935
282.176
282.544
287.062
287.62
285.533
286.521
284.558
285.245
283.7
284.344
283.144
283.592
282.804
283.1
282.453
282.486
282.343
282.549
282.937
283.267
287.435
287.89
285.896
286.891
285.119
285.745
284.398
284.898
283.918
284.206
283.585
283.701
283.276
283.259
283.327
283.524
283.946
284.226
288.008
288.247
286.572
287.368
285.925
286.348
285.351
285.645
285.008
285.145
284.742
284.71
284.483
284.472
284.65
284.863
285.262
285.538
288.67
288.661
287.447
287.966
286.977
287.222
286.635
286.753
286.44
286.446
286.203
286.107
286.053
286.098
286.335
286.606
286.982
287.268
289.562
289.291
288.66
288.932
288.345
288.457
288.167
288.216
288.145
288.144
288.055
288.049
288.137
288.266
288.552
288.86
289.251
289.54
290.567
290.133
290.02
290.216
289.989
290.09
290.05
290.159
290.273
290.362
290.416
290.538
290.748
290.938
291.282
291.609
292.034
292.383
291.766
291.397
291.634
291.854
291.924
292.126
292.312
292.532
292.813
293.022
293.245
293.49
293.809
294.1
294.507
294.864
295.311
295.732
293.319
293.033
293.53
293.881
294.198
294.531
294.904
295.273
295.71
296.065
296.459
296.819
297.234
297.623
298.055
298.455
298.918
299.357
295.081
295.043
295.688
296.198
296.706
297.167
297.667
298.203
298.704
299.16
299.693
300.15
300.627
301.106
301.573
302.014
302.475
302.908
297.143
297.212
297.864
298.424
298.994
299.437
299.928
300.551
300.985
301.394
302.004
302.492
302.877
303.415
303.824
304.204
304.598
304.963
299.051
299.074
299.593
300.077
300.563
300.865
301.244
301.845
302.113
302.341
302.957
303.412
303.535
304.036
304.318
304.508
304.81
305.061
300.693
300.573
300.868
301.151
301.438
301.603
301.768
302.215
302.357
302.34
302.776
303.175
303.027
303.34
303.538
303.478
303.678
303.838
302.03
301.786
301.832
301.839
301.87
301.917
301.86
301.993
302.024
301.893
301.952
302.189
302
302.038
302.147
301.993
302.04
302.111
303.055
302.654
302.49
302.296
302.081
301.942
301.7
301.532
301.399
301.279
301.037
300.974
300.844
300.669
300.568
300.49
300.326
300.282
303.92
303.271
302.919
302.566
302.145
301.802
301.386
301.072
300.761
300.473
300.148
299.875
299.587
299.393
299.119
298.992
298.779
298.603
304.516
303.718
303.28
302.801
302.215
301.719
301.184
300.72
300.287
299.841
299.436
299.088
298.655
298.4
298.081
297.806
297.587
297.334
305.003
304.043
303.478
302.865
302.176
301.546
300.939
300.403
299.893
299.428
298.947
298.496
298.054
297.662
297.289
296.986
296.665
296.42
305.368
304.317
303.615
302.952
302.262
301.578
300.901
300.288
299.706
299.175
298.632
298.147
297.64
297.193
296.786
296.397
296.065
295.748
305.543
304.464
303.724
303.004
302.243
301.507
300.743
300.04
299.363
298.739
298.124
297.553
296.992
296.502
296.037
295.626
295.226
294.867
305.745
304.61
303.823
303.024
302.172
301.306
300.413
299.567
298.742
297.994
297.268
296.636
296.028
295.526
295.02
294.6
294.148
293.791
305.761
304.515
303.692
302.831
301.874
300.875
299.906
299.021
298.254
297.623
297.057
296.601
296.163
295.84
295.522
295.337
295.087
295.109
305.907
304.91
304.359
303.828
303.276
302.797
302.428
302.155
301.976
301.856
301.757
301.697
301.639
301.626
301.61
301.619
301.626
301.761
294.963
282.718
281.37
284.275
286.581
288.149
289.369
290.728
291.79
292.783
293.744
294.717
295.316
295.521
295.598
295.594
295.709
295.701
295.326
295.142
294.831
294.111
293.983
293.624
292.716
293.009
292.604
291.501
292.906
292.684
289.198
288.307
290.504
292.704
293.226
292.789
292.745
292.705
291.969
291.782
292.95
294.214
294.577
294.133
292.447
290.232
289.046
292.263
290.472
287.779
289.402
293.216
295.883
296.956
298.424
300.994
301.165
298.877
297.254
296.158
295.173
294.302
293.479
292.709
291.966
291.251
290.548
289.863
289.181
288.505
287.822
287.136
286.445
285.744
285.033
284.305
283.558
282.8
282.026
281.25
280.467
279.659
278.868
278.062
277.226
276.36
275.583
274.78
273.977
273.245
272.577
271.915
271.332
270.755
270.277
269.772
269.272
268.83
268.431
267.974
267.622
267.539
267.799
268.221
268.645
268.929
269.075
269.019
268.829
268.798
268.693
268.043
267.219
266.497
265.346
263.78
262.94
262.209
261.269
259.938
259.416
259.033
259.247
260.252
261.373
262.295
262.474
262.699
263.381
264.098
267.135
272.287
274.614
276.617
280.006
280.971
280.81
281.187
282.408
283.047
282.478
282.306
281.741
281.9
279.7
276.987
279.125
278.912
278.962
278.899
278.425
278.019
278.029
278.228
278.876
278.814
277.228
274.243
270.909
267.335
266.533
264.997
265.928
256.637
259.52
256.323
257.485
246.73
259.778
258.642
242.04
244.833
252.897
254.199
257.21
249.087
251.699
256.282
250.998
259.353
298.596
286.199
281.716
283.99
286.864
289.481
291.127
293.422
295.711
298.022
299.731
301.435
302.404
302.031
301.673
301.096
300.27
299.604
298.889
297.996
296.971
296.013
295.152
294.025
293.372
292.7
291.834
291.793
291.548
291.703
292.32
290.337
290.008
288.985
282.492
279.316
279.267
278.903
278.438
278.603
280.038
280.791
281.208
278.222
274.711
275.941
281.334
289.153
291.39
283.244
282.992
296.188
298.828
296.103
295.591
294.574
293.344
292.126
291.233
290.478
289.8
289.164
288.572
287.973
287.372
286.788
286.177
285.599
284.971
284.342
283.654
282.975
282.242
281.487
280.729
279.944
279.106
278.207
277.279
276.295
275.306
274.275
273.282
272.368
271.413
270.229
268.975
268.088
266.875
265.635
264.53
263.466
262.379
261.457
260.581
259.791
259.029
258.353
257.676
256.919
256.174
255.942
257.066
259.614
262.118
263.072
262.848
263.054
265.052
267.433
268.228
267.936
267.984
268.273
266.779
261.208
255.594
251.635
249.221
247.987
246.241
241.79
239.26
240.218
244.873
252.303
254.506
252.309
251.782
248.907
242.912
241.012
246.309
256.593
265.808
274.264
275.635
272.528
274.495
278.876
280.432
277.677
276.138
266.99
267.372
265.734
266.726
267.521
267.978
268.684
269.379
268.625
267.903
266.286
266.908
267.047
266.284
266.407
259.907
248.71
242.392
238.648
241.508
229.013
240.924
258.252
252.629
237.94
230.904
235.212
214.99
205.34
211.884
218.489
234.065
211.037
211.236
226.18
215.471
238.147
302.302
295.222
292.581
294.411
295.229
295.505
295.703
297.064
299.017
301.718
303.05
303.111
302.118
299.378
296.913
294.361
291.98
290.419
288.773
287.644
286.914
285.432
284.586
284.431
283.43
282.771
283.365
283.769
283.705
284.962
286.822
288.474
289.354
289.194
291.019
288.073
282.627
280.257
275.439
273.529
276.752
281.318
280.377
269.312
270.93
281.356
298.269
300.826
296.124
295.132
296.708
296.341
295.911
294.651
294.317
293.621
293.242
292.944
292.757
292.646
292.433
292.308
292.105
291.91
291.597
291.324
290.97
290.636
290.261
289.821
289.396
288.891
288.38
287.813
287.275
286.709
286.088
285.409
284.704
283.887
283.085
282.201
281.261
280.486
279.802
278.785
277.48
276.707
275.552
274.089
272.532
271.048
269.116
267.415
265.478
263.735
261.858
260.406
259.031
258.076
257.515
256.502
254.815
254.018
257.029
262.526
266.138
265.997
265.629
267.674
270.03
271.081
272.725
276.992
280.162
277.399
270.07
262.163
254.586
254.36
257.391
250.127
239.073
238.366
251.74
271.602
278.222
273.069
267.594
259.213
247.521
239.474
242.382
252.235
268.64
273.306
262.68
266.537
275.257
277.33
278.702
272.187
280.048
253.117
266.098
270.228
263.686
267.097
267.604
265.296
267.806
271.671
271.309
267.579
263.1
262.66
262.147
261.391
260.668
253.258
236.903
226.819
236.779
237.744
237.682
277.664
226.463
272.807
240.463
225.431
225.958
217.119
203.054
200.742
218.451
198.256
189.954
202.915
193.6
217.724
304.295
301.312
300.77
301.379
301.221
300.461
301.205
302.695
304.448
305.342
303.559
300.317
296.388
292.162
288.681
286.283
284.039
283.316
282.72
281.624
280.469
279.745
279.058
278.689
278.979
279.411
279.389
278.996
280.026
280.958
280.325
281.451
285.102
285.718
286.259
288.918
285.786
281.117
281.9
283.714
284.581
281.703
271.325
268.187
277.58
293.935
304.531
295.829
296.493
297.324
295.22
295.63
294.401
294.357
293.794
293.576
293.568
293.411
293.28
293.252
293.258
293.085
292.958
292.787
292.506
292.152
291.81
291.382
291.007
290.488
290.068
289.551
289.045
288.519
287.98
287.525
287.032
286.565
286.118
285.601
285.209
284.841
284.456
283.966
283.564
283.01
282.542
282.012
281.467
280.939
280.14
279.572
278.568
277.345
275.797
274.658
272.632
270.113
267.497
265.077
263.036
260.917
258.611
257.701
257.58
258.24
261.727
265.51
266.036
266.324
268.599
270.752
268.332
262.251
266.131
278.237
282.072
276.615
266.482
264.688
270.569
265.302
248.598
240.261
253.152
282.045
296.736
292.098
284.099
271.593
257.061
246.672
246.626
255.739
266.924
260.271
257.28
266.121
272.619
277.324
273.403
270.499
289.978
261.312
267.884
275.185
269.044
277.968
282.237
277.561
272.078
276.663
281.592
280.619
271.223
264.136
260.796
259.162
258.64
257.513
245.417
226.398
228.208
240.909
226.71
250.405
218.113
244.496
249.78
220.181
215.705
221.916
208.778
198.485
209.156
191.97
189.587
184.713
194.791
207.53
305.032
303.873
304.109
304.799
306.196
307.256
308.502
308.845
308.573
305.549
300.768
297.276
294.716
293.222
291.343
290.723
290.036
289.739
289.625
288.475
285.984
284.973
284.977
284.215
283.614
283.507
284.693
286.843
287.566
285.058
282.46
282.571
283.91
282.555
282.555
288.792
290.884
291.754
294.952
291.149
282.635
275.562
275.387
278.659
291.805
303.944
296.992
294.999
296.659
295.156
294.439
294.885
293.734
294.563
294.203
294.738
294.824
295.471
295.693
295.827
295.934
295.954
295.855
295.642
295.436
295.02
294.663
294.161
293.693
293.179
292.588
292.031
291.378
290.673
289.872
289.086
288.346
287.602
286.942
286.142
285.435
284.725
284.252
283.802
283.239
282.905
282.674
282.404
282.16
282.077
281.755
281.562
281.169
281.583
280.878
280.681
279.786
279.003
278.244
276.163
273.358
269.834
266.966
263.784
259.906
259.804
260.006
260.232
262.592
266.394
264.791
263.151
271.133
276.072
270.72
267.827
276.108
284.884
281.114
277.293
284.024
280.338
257.496
241.476
253.617
286.723
305.826
302.486
291.839
277.273
262.811
252.461
251.604
259.438
264.192
257.993
263.162
268.091
264.815
274.448
267.219
279.015
291.656
276.482
267.272
279.003
274.599
278.733
286.059
289.472
284.601
278.126
279.367
284.301
283.108
276.796
269.015
263.826
257.98
257.448
253.245
233.438
220.894
234.593
223.886
220.277
257.11
236.072
244.693
219.919
198.624
214.615
211.946
200.987
203.1
187.59
196.053
174.908
232.587
220.854
305.294
305.391
306.355
308.481
310.187
310.717
309.591
308.784
307.1
304.848
305.407
306.232
304.562
301.198
296.594
292.813
291.297
290.622
289.387
287.816
286.394
285.44
284.961
284.719
284.284
284.335
283.672
284.051
285.9
287.955
289.927
290.401
288.795
285.431
282.671
283.017
280.778
280.036
283.491
287.043
282.126
277.197
284.14
283.859
295.252
302.225
293.631
294.945
295.913
293.999
295.387
295.308
295.602
296.484
296.687
297.787
297.769
298.294
298.39
298.537
298.18
297.997
297.68
297.206
296.932
296.432
296.084
295.714
295.288
294.938
294.6
294.152
293.869
293.391
293
292.446
291.856
291.232
290.545
289.729
288.837
288.038
286.925
286.306
285.47
284.583
283.988
283.215
282.721
282.334
281.912
281.907
281.496
281.371
281.164
280.742
281.924
280.243
281.503
280.832
280.287
281.459
276.974
275.303
271.783
267.438
264.228
264.668
262.119
260.195
265.231
267.008
262.822
265.271
274.441
276.983
273.685
276.333
282.838
285.425
295.361
299.13
269.885
244.495
254.186
284.136
304.193
303.664
294.465
279.379
266.258
256.636
255.382
261.812
265.329
261.93
270.262
271.335
260.76
259.799
262.328
281.583
297.169
280.728
279.033
292.78
288.169
283.051
282.574
283.429
282.374
279.542
276.937
279.37
279.904
279.477
278.965
275.836
266.319
260.989
257.996
247.268
219.161
234.351
223.665
217.508
247.163
232.29
248.771
224.023
195.219
225.775
220.916
207.408
198.555
186.164
193.664
181.946
276.204
244.708
305.147
305.912
307.006
308.921
310.174
310.263
308.946
309.153
309.776
311.399
312.13
308.902
302.819
297.261
291.922
288.531
287.825
288.54
288.675
289.64
291.504
293.951
295.543
295.546
295.06
293.885
292.237
290.347
288.217
286.596
285.748
285.602
285.833
286.467
287.575
288.03
283.054
275.715
274.506
282.501
283.781
285.029
290.649
286.379
296.749
299.27
291.899
295.822
295.706
295.194
296.956
296.875
298.104
298.672
299.053
299.512
299.548
299.53
298.936
298.683
298.189
297.585
297.236
296.636
296.294
295.841
295.405
295.001
294.683
294.09
293.928
293.321
293.097
292.871
292.531
292.539
292.189
292.194
291.842
291.707
291.142
290.751
290.227
289.417
288.84
287.848
287.521
286.229
285.964
284.869
285.045
283.686
284.223
282.64
284.183
282.169
282.857
283.025
280.938
283.252
281.709
282.154
281.725
282.065
279.808
279.265
276.973
271.956
270.948
271.943
268.568
263.756
267.711
271.307
267.992
270.475
276.715
276.31
274.396
276.176
289.569
309.002
289.163
255.03
255.728
278.816
300.934
302.679
296.229
279.937
267.974
259.031
258.112
264.033
268.435
268.822
274.626
273.905
265.69
256.973
265.966
283.071
300.005
291.886
291.664
293.04
289.114
289.56
287.303
288.482
282.133
279.512
279.363
282.551
281.492
278.11
277.209
281.933
276.327
268.373
259.853
262.944
225.31
241.226
225.198
222.812
245.113
227.128
249.546
226.943
202.57
238.341
229.681
212.86
200.357
190.386
194.883
181.16
229.389
224.5
304.74
305.924
307.063
308.463
309.638
308.992
307.559
308.282
309.129
310.12
310.481
309.712
307.133
304.64
301.6
299.229
298.01
296.937
295.309
295.419
297.494
300.583
302.882
303.422
303.704
303.981
305.466
306.144
303.567
300.42
298.729
296.792
295.717
295.246
295.841
296.867
292.831
283.726
278.583
285.683
290.744
293.824
292.011
288.723
297.729
295.641
292.483
297.486
296.021
297.369
298.43
298.636
299.837
300.04
300.547
300.271
299.974
299.486
298.797
298.132
297.83
297.33
297.227
296.996
296.873
296.72
296.586
296.131
296.292
295.556
295.457
295.081
294.151
294.216
293.204
293.215
292.599
292.415
292.259
291.797
291.717
291.281
291.204
290.798
291.013
289.961
290.203
288.747
288.639
287.197
286.913
285.969
285.79
285.331
284.501
285.479
284.05
284.873
285.273
284.55
283.375
285.233
283.076
283.695
284.033
280.975
283.846
284.33
280.024
280.656
283.32
277.489
272.66
277.844
278.914
274.57
277.519
286.052
288.099
279.252
280.27
302.607
305.037
271.804
260.569
274.501
297.798
303.929
299.357
280.086
268.252
260.353
259.833
266.934
271.824
273.709
275.036
276.468
273.254
270.728
277.379
290.694
300.453
304.869
302.275
299.016
296.578
295.484
287.593
285.745
283.99
282.949
281.532
283.646
286.126
282.584
275.463
280.883
279.664
278.43
261.058
272.58
232.627
248.652
230.168
223.641
254.817
230.709
233.834
214.792
219.67
240.031
238.747
222.713
198.731
188.701
193.828
169.59
209.236
208.842
304.157
305.547
306.018
305.635
307.005
308.28
307.738
307.763
308.18
310.205
311.737
311.066
307.711
305.907
305.647
305.267
305.915
306.5
305.269
305.158
306.866
308.083
307.852
305.95
303.367
300.877
300.558
300.773
300.856
300.421
300.973
300.937
300.749
300.74
300.268
299.92
297.54
292.734
290.962
296.023
297.44
294.965
290.748
291.782
296.979
293.758
294.976
298.195
297.006
298.912
299.442
300.239
301.029
300.94
300.769
300.031
299.261
298.309
297.856
297.41
297.421
297.337
297.394
297.432
297.464
297.252
297.599
296.87
297.241
297.005
296.459
297.018
295.875
296.29
295.457
295.358
294.967
294.233
294.125
293.893
293.584
292.792
292.432
291.407
291.591
291.339
291.453
292.222
290.998
291.918
289.547
290.143
288.162
287.346
287.435
285.613
287.066
286.765
285.09
286.597
285.799
286.569
288.141
284.68
286.488
287.223
284.376
287.006
286.662
281.056
285.152
291.123
284.817
283.953
288.605
285.957
281.765
287.661
297.643
290.881
282.952
295.788
312.529
292.767
272.488
274.438
294.034
306.369
302.029
282.916
267.757
261.888
260.725
269.025
275.224
277.381
274.362
279.17
279.943
279.937
283.218
288.23
307.58
311.112
306.654
303.675
300.539
292.458
286.209
282.945
279.877
279.071
281.061
280.722
281.017
286.033
277.045
281.058
278.59
288.035
263.782
280.954
240.673
256.076
237.769
229.137
254.688
229.04
209.941
192.936
231.649
236.931
246.457
231.14
194.42
190.471
187.788
170.714
218.971
222.243
303.436
304.965
305.278
305.206
307.38
307.529
306.023
305.566
304.928
305.575
306.498
307.023
305.957
306.595
307.798
307.681
308.001
308.412
306.231
301.594
297.923
296.107
296.633
298.607
300.912
300.605
298.85
298.452
298.668
298.558
299.022
299.14
299.09
299.178
299.328
299.39
298.446
297.522
297.355
297.462
294.891
291.889
290.854
293.78
295.571
294.178
297.306
298.304
298.208
299.936
300.556
301.344
301.272
300.834
299.8
298.61
297.864
297.317
297.34
297.453
297.633
297.718
297.674
297.39
297.648
296.774
297.209
296.922
296.392
296.87
295.978
296.629
296.159
296.335
295.979
296.14
295.935
295.675
295.141
295.13
295.488
295.45
295.416
294.398
292.366
291.956
290.019
291.296
290.639
292.076
292.651
291.216
292.151
289.591
288.789
288.152
286.483
287.204
288.489
288.608
290.112
287.733
288.404
288.541
286.343
288.743
287.826
286.227
290.54
288.619
283.893
289.935
290.377
286.25
290.414
295.345
289.452
287.891
298.804
300.872
289.734
290.339
308.13
306.709
286.016
278.635
291.696
308.758
303.037
289.213
266.568
263.131
261.397
269.83
277.149
279.937
277.479
281.972
281.369
284.105
287.534
291.728
306.083
309.491
305.748
305.69
298.835
287.287
281.216
283.803
284.801
284.101
285.009
287.625
278.494
285.512
278.212
283.436
277.324
296.255
266.278
286.128
247.452
262.305
244.119
234.823
255.284
230.852
195.317
182.275
230.354
234.165
237.115
232.625
192.705
227.471
183.092
194.679
219.911
211.962
302.638
304.34
305.083
306.472
309.341
308.956
307.642
307.742
307.457
307.336
306.89
306.394
304.764
304.106
303.815
301.416
300.464
301.688
301.481
299.697
300.444
300.963
299.294
297.789
297.99
297.677
296.866
296.57
296.459
296.233
296.584
296.764
296.5
296.595
296.762
296.59
296.329
295.634
294.836
293.353
291.823
291.247
292.484
294.638
295.618
296.191
298.518
298.535
299.615
300.776
301.039
301.542
300.808
299.771
298.592
297.691
297.444
297.574
297.784
297.771
297.461
297.077
297.159
296.267
296.743
296.311
295.916
296.56
295.992
296.208
295.835
295.838
296.34
296.126
295.644
295.662
295.97
296.578
295.979
294.991
294.235
294.934
295.355
296.859
296.111
295.081
293.616
290.739
292.231
290.205
292.433
292.825
292.892
293.715
292.405
290.598
289.261
287.009
287.454
287.72
289.341
290.943
290.051
291.445
291.169
290.157
291.236
288.565
288.216
292.924
290.781
290.577
293.208
290.669
286.722
292.709
294.662
289.187
293.01
303.393
298.764
290.303
301.266
313.715
300.185
285.138
289.665
310.329
305.638
296.529
268.29
262.647
262.987
269.392
278.296
281.373
279.79
285.034
283.969
285.357
289.481
297
308.761
315.204
311.449
309.447
298.183
287.707
283.185
285.973
286.073
289.476
286.446
294.567
280.606
285.016
278.39
288.575
276.683
300.869
270.058
292.548
253.102
266.328
249.984
239.96
257.1
236.813
193.128
185.15
235.308
236.248
226.628
225.564
190.746
258.226
204.656
219.566
225.358
203.118
301.684
303.294
304.046
304.501
304.004
303.271
303.496
304.446
305.205
306.528
306.542
305.965
304.528
303.544
303.859
301.801
300.765
301.491
302.247
300.146
298.483
297.785
297.007
296.513
296.454
296.426
296.014
295.852
295.272
294.625
294.768
294.28
294.028
294.165
293.785
293.359
293.38
292.571
292.257
291.543
291.731
292.398
294.093
295.688
296.512
297.456
298.641
299.257
300.296
300.93
301.073
301.214
300.193
298.817
297.933
297.504
297.468
297.437
297.185
297.017
296.955
296.131
296.573
296.555
296.891
297.459
297.048
297.481
297.813
296.935
297.451
295.931
297.075
296.501
296.024
295.392
295.488
295.972
296.399
296.295
295.041
293.924
293.398
293.247
295.121
294.166
296.004
292.753
293.207
290.893
291.052
291.316
291.545
292.222
291.694
290.974
291.107
290.481
289.109
288.388
288.532
291.148
292.332
291.918
292.823
291.767
293.135
294.47
290.92
291.237
292.282
290.264
292.092
296.557
292.78
291.98
297.449
294.191
289.126
297.97
305.607
295.144
295.458
312.343
311.203
293.83
289.503
309.744
310.408
301.65
275.156
260.189
263.942
270.509
279.1
281.705
281.809
284.133
283.828
288.7
295.377
296.755
310.815
312.773
309.115
305.805
292.271
282.785
283.119
288.018
288.389
293.267
288.561
297.774
281.248
284.013
278.031
292.588
276.224
304.317
274.1
296.142
256.667
271.479
255.349
244.048
258.365
242.389
199.033
194.745
247.695
240.025
214.157
209.982
194.806
248.161
233.009
232.725
225.511
208.298
300.549
301.654
301.413
300.527
302.831
305.102
301.858
302.556
303.837
303.908
303.984
303.645
303.023
301.166
301.799
302.337
301.177
299.673
300.077
299.863
298.577
297.43
297.118
295.786
294.822
295.226
294.695
294.77
294.961
294.627
294.103
294.106
293.666
293.799
293.401
293.087
292.922
292.474
292.608
292.666
293.226
294.296
295.44
296.586
297.139
298.253
298.945
299.689
300.621
301.253
301.372
300.878
299.429
298.307
297.883
297.328
297.066
297.247
297.246
296.546
296.732
296.708
297.045
297.678
298.001
299.009
299.257
298.039
299.971
297.518
298.2
296.595
296.802
296.709
296.655
296.204
295.982
295.619
296.078
295.7
296.181
295.283
295.581
294.206
294.149
293.318
293.817
292.386
292.975
291.657
291.632
292.683
291.078
291.699
292.982
291.865
290.292
288.982
288.884
289.326
289.307
290.129
292.758
293.717
295.153
294.745
293.447
295.298
295.834
293.257
294.571
294.854
291.718
295.447
297.271
292.149
295.216
299.125
292.293
293.34
306.013
301.334
294.51
307.01
315.991
302.282
291.666
307.7
314.943
304.535
285.701
260.846
262.134
272.077
280.267
282.519
281.986
283.975
285.635
289.768
296.573
301.631
312.822
312.186
309.825
304.213
291.392
284.907
285.826
288.566
290.216
295.582
292.561
301.381
283.594
285.124
277.398
294.776
276.907
304.41
275.842
298.77
259.75
274.527
257.213
247.705
259.648
247.263
207.508
210.521
252.776
239.844
213.302
191.56
195.603
238.175
236.365
220.853
221.632
206.7
299.388
300.171
300.187
300.728
302.214
301.118
299.612
300.678
301.557
301.887
302.088
303.182
304.066
302.183
300.218
299.282
300.474
300.281
298.921
298.809
298.106
297.463
297.279
297.269
296.052
295.884
295.275
294.717
294.108
293.938
293.831
293.28
293.055
293.039
292.969
293.013
293.377
293.597
293.986
294.686
295.263
296.171
296.653
297.227
297.897
298.724
299.291
300.153
300.867
301.301
301.316
300.285
299.223
298.72
297.428
296.876
297.585
297.251
296.976
296.724
296.92
296.86
296.268
297.291
298.205
297.8
299.615
296.891
297.795
296.298
295.297
294.431
293.686
294.159
294.194
294.49
294.321
294.585
295.266
295.487
295.564
295.183
294.88
294.958
295.4
294.645
294.559
293.578
292.531
293.198
290.463
291.711
291.326
290.919
291.673
291.049
291.177
291.132
289.238
289.58
290.156
291.425
292.702
294.174
295.303
296.967
296.651
295.964
297.656
296.607
294.829
297.806
293.845
292.481
297.907
295.347
294.098
300.927
297.939
292.365
302.799
306.407
297.301
302.625
316.343
308.43
295.128
305.662
318.908
307.25
293.428
268.178
259.593
269.261
277.326
281.973
282.253
283.332
286.773
293.157
298.324
300.721
311.199
311.424
307.732
300.837
287.028
281.598
285.101
288.6
291.003
295.035
293.064
301.922
284.58
287.032
279.793
301.301
279.717
302.679
276.301
300.627
261.438
278.879
259.282
251.005
261.536
250.722
216.48
229.795
252.114
238.074
206.098
189.17
200.825
227.8
231.299
206.783
226.778
202.651
298.17
298.472
298.043
297.525
298.378
297.687
295.465
297.663
299.342
300.546
302.012
300.519
300.473
300.159
299.764
298.444
297.765
298.74
299.027
299.822
299.365
298.641
297.686
296.454
295.482
294.403
293.973
293.988
294.319
294.451
294.706
294.878
294.819
294.679
294.509
294.218
294.12
294.278
294.479
294.967
295.273
295.789
296.611
297.205
297.638
298.274
299.041
299.82
300.477
301.092
301.107
300.394
299.732
298.543
297.462
297.803
297.448
296.611
297.52
297.27
296.008
296.703
297.082
296.08
298.463
298.83
300.194
298.527
297.553
295.878
294.474
293.783
292.901
292.977
292.805
292.845
292.689
292.713
293.066
293.556
293.859
293.681
293.444
292.551
292.517
292.524
292.355
293.793
292.462
294.167
291.865
293.26
292.725
292.375
292.742
292.171
290.043
292.386
290.501
291.205
291.352
292.732
293.502
295.563
296.245
297.228
297.949
296.736
297.049
300.521
296.851
299.33
299.946
293.629
297.568
298.583
293.82
298.203
301.204
294.516
298.932
308.14
300.809
299.345
314.337
312.837
298.933
303.426
319.209
313.065
298.154
277.327
263.248
264.621
269.54
276.685
280.031
282.213
288.516
291.442
298.709
301.447
310.595
308.772
303.397
295.466
285.421
281.136
285.488
290.012
293.736
297.956
297.008
302.996
286.297
291.725
284.28
303.586
277.831
302.183
278.817
303.038
262.711
283.141
259.892
253.428
262.339
250.953
223.68
247.073
250.553
227.714
204.99
210.347
198.88
218.538
226.62
205.067
230.089
206.682
296.915
296.766
296.66
296.914
296.897
294.955
293.238
295.376
296.016
295.067
296.631
297.339
299.43
300.455
299.819
299.804
298.742
297.041
296.092
295.781
295.998
296.597
297.087
297.502
297.701
297.55
297.065
296.249
295.389
294.603
294.029
293.723
293.656
293.839
294.22
294.694
295.174
295.68
296.07
296.41
296.76
297.17
297.474
297.557
298.087
298.432
298.739
299.409
300.145
300.582
300.726
300.241
299.831
298.73
298.213
297.623
297.066
297.515
297.321
297.276
297.988
296.912
296.98
296.774
298.58
299.246
301.128
299.789
298.559
296.616
294.662
294.171
293.761
293.861
293.618
293.539
293.347
293.753
293.758
294.262
293.791
293.527
293.345
293.27
292.946
292.959
292.811
293.665
292.284
293.513
292.435
293.486
293.286
292.8
292.94
293.916
291.973
293.8
292.032
292.066
293.795
294.442
295.007
296.306
298.019
299.655
300.843
300.35
297.055
301.087
299.443
297.885
302.754
296.052
296.015
300.839
296.228
296.29
302.339
297.828
296.536
307.276
305.144
297.98
310.516
315.465
302.311
301.575
315.408
319.234
303.955
283.801
272.412
266.132
263.468
269.331
274.244
280.489
286.705
293.335
296.299
300.596
310.009
306.114
300.286
293.678
286.704
282.738
286.362
290.018
294.259
297.596
298.476
301.752
286.699
293.037
283.773
302.901
278.906
305.579
281.934
302.137
264.793
283.538
256.836
257.13
263.561
250.776
230.015
255.934
243.93
213.627
226.748
232.333
192.605
211.875
225.358
209.591
235.583
207.973
295.42
294.161
293.617
293.982
294.46
295.702
294.791
292.265
294.664
294.612
292.378
293.193
294.524
295.06
296.049
297.163
297.856
298.068
298.063
297.671
297.111
296.611
295.998
295.495
295.185
295.051
295.087
295.206
295.368
295.521
295.618
295.643
295.589
295.563
295.5
295.466
295.429
295.42
295.465
295.981
296.462
297.067
297.647
298.38
299.035
299.201
299.744
300.023
300.137
300.728
300.907
300.124
299.846
298.999
298.486
297.782
297.963
297.435
297.659
298.557
298.36
297.568
297.824
296.501
297.893
299.518
300.758
300.504
298.118
296.266
294.327
294.381
293.831
294.393
294.367
294.909
294.576
295.431
295.384
295.989
295.36
295.7
295.133
294.878
294.753
295.525
295.78
295.712
295.996
296.28
296.163
295.552
296.322
296.056
296.69
296.339
295.638
297.1
296.917
295.386
297.678
296.672
297.636
298.809
298.982
299.571
300.294
301.204
297.705
301.061
303.935
299.428
304.26
300.672
295.192
301.214
299.866
296.014
302.044
301.384
296.958
305.145
309.057
299.062
306.526
317.1
306.164
300.2
310.59
322.127
312.43
288.944
280.713
274.476
262.903
265.02
269.508
277.279
285.796
291.952
298.235
300.506
306.71
302.899
296.321
289.774
282.386
281.084
287.24
291.604
296.293
298.896
299.316
298.278
285.494
292.915
285.099
307.501
282.916
304.527
284.87
303.162
266.12
280.556
253.063
261.225
264.005
251.375
236.165
253.632
243.901
220.058
230.823
263.379
212.338
214.042
223.828
217.298
240.062
209.803
293.499
289.964
288.499
289.349
291.742
292.814
294.229
294.529
293.015
291.56
290.712
290.401
290.568
291.002
291.705
292.238
292.931
293.628
294.375
294.928
295.308
295.639
295.826
295.851
295.827
295.788
295.638
295.489
295.389
295.224
295.058
294.893
294.761
294.649
294.756
295.017
295.525
296.242
297.01
297.435
297.481
297.696
297.877
297.987
298.49
298.876
299.313
299.6
299.781
300.311
300.224
300.231
299.921
299.252
299.283
298.357
298.675
298.861
299.143
299.265
298.817
298.301
297.726
297.554
298.077
300.076
301.624
301.241
299.193
297.192
295.654
295.533
295.213
295.672
295.679
295.952
295.821
297.183
297.129
298.113
297.755
298.278
297.233
297.663
297.56
297.056
297.663
297.746
298.738
298.084
299.39
298.882
299.443
298.034