/*--------------------------------*- C++ -*----------------------------------*\
| =========                 |                                                 |
| \\      /  F ield         | OpenFOAM: The Open Source CFD Toolbox           |
|  \\    /   O peration     | Version:  dev                                   |
|   \\  /    A nd           | Web:      http://www.openfoam.org               |
|    \\/     M anipulation  |                                                 |
\*---------------------------------------------------------------------------*/
FoamFile
{
    version     2.0;
    format      ascii;
    class       volVectorField;
    object      U_0;
    location    "9.117";
}
// * * * * * * * * * * * * * * * * * * * * * * * * * * * * * * * * * * * * * //

dimensions      [0 1 -1 0 0 0 0];

internalField   nonuniform List<vector> 
12225
(
(6.93675 0.548615 0)
(4.69145 0.391162 0)
(2.77265 0.235128 0)
(2.28375 0.185323 0)
(1.07527 0.220163 0)
(1.40064 0.190674 0)
(0.0763479 0.249285 0)
(0.660544 0.190276 0)
(-0.836836 0.276037 0)
(0.0923112 0.160721 0)
(-1.72966 0.315519 0)
(-0.302927 0.16837 0)
(-2.92943 0.345651 0)
(-0.723128 0.238723 0)
(-3.67909 0.223517 0)
(-3.32497 0.892382 0)
(-1.53757 0.19528 0)
(-13.8441 3.02615 0)
(9.4536 1.32606 0)
(9.87935 1.37434 0)
(7.30961 1.01641 0)
(7.74084 0.754009 0)
(4.56635 0.691518 0)
(6.60789 0.599537 0)
(2.90275 0.6704 0)
(6.04613 0.541016 0)
(1.61381 0.690877 0)
(5.88667 0.530967 0)
(0.259397 0.729175 0)
(6.33294 0.544567 0)
(-1.40992 0.924593 0)
(7.15701 0.0119132 0)
(-1.89199 2.12315 0)
(5.66762 -1.64361 0)
(2.0931 3.57304 0)
(-5.71082 4.3297 0)
(9.55364 1.27326 0)
(12.3484 1.77312 0)
(9.05868 1.47138 0)
(11.6709 1.28819 0)
(6.83107 1.17862 0)
(10.8333 1.12439 0)
(5.06455 1.11038 0)
(10.2388 1.02865 0)
(3.67989 1.09869 0)
(9.7063 0.929201 0)
(3.13901 1.18806 0)
(9.11653 0.741535 0)
(3.43533 1.51789 0)
(7.65711 -0.0880125 0)
(4.5634 2.88105 0)
(4.74483 -2.00222 0)
(4.20673 6.24219 0)
(6.15246 2.15552 0)
(7.98067 1.33391 0)
(14.0517 2.15922 0)
(8.89724 1.85116 0)
(13.9232 1.72873 0)
(8.22096 1.69303 0)
(13.3028 1.52462 0)
(7.50693 1.67124 0)
(12.5215 1.35246 0)
(6.9951 1.82905 0)
(11.4668 1.01021 0)
(6.76644 2.10861 0)
(10.3802 0.468806 0)
(6.70456 2.84817 0)
(8.79313 -0.787529 0)
(6.83464 4.80918 0)
(7.78354 -2.13724 0)
(5.52689 5.98848 0)
(8.20265 6.02591 0)
(7.50764 1.38782 0)
(13.8563 2.20985 0)
(9.67293 2.1775 0)
(13.4519 1.94331 0)
(9.99309 2.16679 0)
(12.7885 1.79275 0)
(9.93324 2.21519 0)
(11.9831 1.61644 0)
(9.90209 2.42825 0)
(10.993 1.31432 0)
(9.54625 2.78698 0)
(9.95409 0.787743 0)
(9.20662 3.62981 0)
(8.95615 -0.00817451 0)
(8.78482 5.04716 0)
(8.35899 -0.11186 0)
(6.61958 6.11957 0)
(8.94885 2.41871 0)
(8.75618 1.8108 0)
(11.8473 2.34234 0)
(10.6015 2.79999 0)
(11.5636 2.11617 0)
(10.8125 2.79787 0)
(11.1629 1.93969 0)
(10.6959 2.88462 0)
(10.7907 1.7591 0)
(10.6078 3.14756 0)
(10.3522 1.62898 0)
(10.2163 3.5758 0)
(9.90355 1.24286 0)
(9.91728 4.10309 0)
(9.66976 0.986946 0)
(9.17312 4.89394 0)
(9.29141 1.31715 0)
(7.69273 4.7502 0)
(9.32471 4.43617 0)
(9.77503 2.08664 0)
(10.6928 2.42851 0)
(11.2224 3.266 0)
(10.7885 2.40996 0)
(11.1555 3.35325 0)
(10.4926 2.34561 0)
(10.9028 3.46141 0)
(10.227 2.19858 0)
(10.6445 3.70975 0)
(10.0253 2.22153 0)
(10.419 3.97088 0)
(9.85583 2.0015 0)
(10.1043 4.33739 0)
(9.64997 2.09123 0)
(9.31332 4.64067 0)
(9.23705 2.7434 0)
(8.49982 4.44696 0)
(8.87084 5.1862 0)
(10.3457 2.05029 0)
(10.5014 2.67503 0)
(11.0399 3.73163 0)
(10.6068 2.67971 0)
(11.0061 3.78263 0)
(10.4878 2.62668 0)
(10.8642 3.84214 0)
(10.328 2.58201 0)
(10.629 4.01748 0)
(10.3012 2.62097 0)
(10.4576 4.15428 0)
(10.2253 2.62779 0)
(10.0627 4.41272 0)
(9.79432 2.95264 0)
(9.38757 4.55317 0)
(9.42894 3.76796 0)
(9.00819 4.6463 0)
(9.25651 5.3821 0)
(10.3857 2.33929 0)
(10.6619 3.0761 0)
(11.1445 4.13664 0)
(10.7296 3.04947 0)
(10.9685 4.09947 0)
(10.52 3.02823 0)
(10.7854 4.15571 0)
(10.3359 3.04092 0)
(10.56 4.26649 0)
(10.3346 3.15417 0)
(10.3016 4.43211 0)
(10.1866 3.36736 0)
(9.93745 4.55957 0)
(9.76437 3.83325 0)
(9.53015 4.72169 0)
(9.5264 4.59244 0)
(9.37281 4.91867 0)
(9.38405 5.61261 0)
(10.035 2.45482 0)
(10.5077 3.39857 0)
(10.983 4.62701 0)
(10.8039 3.52441 0)
(10.9423 4.59775 0)
(10.7043 3.59532 0)
(10.7747 4.61619 0)
(10.522 3.63407 0)
(10.5324 4.68389 0)
(10.4026 3.79985 0)
(10.2237 4.76527 0)
(10.1693 4.13468 0)
(9.95332 4.84194 0)
(9.86357 4.65732 0)
(9.75471 5.05648 0)
(9.67531 5.19726 0)
(9.62648 5.33784 0)
(9.66798 5.86454 0)
(10.5544 2.65042 0)
(10.8137 3.88234 0)
(10.9699 4.99168 0)
(10.8444 3.97752 0)
(10.8803 5.00333 0)
(10.7532 4.15386 0)
(10.6939 5.00103 0)
(10.5585 4.25125 0)
(10.4643 4.9851 0)
(10.3796 4.44198 0)
(10.1896 5.04113 0)
(10.1687 4.83271 0)
(10.0472 5.20593 0)
(9.9815 5.30332 0)
(9.93238 5.54473 0)
(9.84507 5.72564 0)
(9.87841 5.90119 0)
(9.95921 6.22175 0)
(10.1343 3.01553 0)
(10.5611 4.48536 0)
(10.635 5.29613 0)
(10.6997 4.53411 0)
(10.7495 5.35538 0)
(10.7559 4.80631 0)
(10.7195 5.4074 0)
(10.6288 4.97406 0)
(10.5194 5.38787 0)
(10.3906 5.14247 0)
(10.23 5.49711 0)
(10.1644 5.52849 0)
(10.0795 5.74267 0)
(10.0688 5.90947 0)
(10.0553 6.07978 0)
(9.99713 6.29235 0)
(10.0601 6.48147 0)
(10.2496 6.65066 0)
(10.2355 3.18055 0)
(10.8417 5.16818 0)
(10.8246 5.64263 0)
(10.843 5.14514 0)
(10.7647 5.5754 0)
(10.7046 5.33938 0)
(10.619 5.68757 0)
(10.5414 5.58434 0)
(10.4433 5.83778 0)
(10.3555 5.83375 0)
(10.2604 6.06974 0)
(10.2059 6.17717 0)
(10.1702 6.34337 0)
(10.1681 6.49326 0)
(10.2124 6.63769 0)
(10.2222 6.83367 0)
(10.2334 7.02827 0)
(10.429 7.15414 0)
(10.1741 3.31964 0)
(10.7756 5.78454 0)
(10.8237 6.06972 0)
(10.849 5.88848 0)
(10.7446 6.16612 0)
(10.6714 6.13127 0)
(10.5911 6.32122 0)
(10.5406 6.32589 0)
(10.4819 6.45149 0)
(10.4339 6.50939 0)
(10.3874 6.66513 0)
(10.352 6.79128 0)
(10.3227 6.9522 0)
(10.3445 7.08936 0)
(10.3722 7.2595 0)
(10.4012 7.40971 0)
(10.4141 7.5957 0)
(10.6219 7.70175 0)
(10.0887 3.60996 0)
(10.7784 6.46155 0)
(10.7724 6.53593 0)
(10.7449 6.49448 0)
(10.6669 6.64132 0)
(10.6266 6.6643 0)
(10.5769 6.77508 0)
(10.5512 6.83422 0)
(10.4925 6.96014 0)
(10.4782 7.08182 0)
(10.4348 7.25942 0)
(10.4429 7.40198 0)
(10.4431 7.5729 0)
(10.4976 7.69716 0)
(10.5498 7.82369 0)
(10.6226 7.94467 0)
(10.6584 8.08839 0)
(10.8741 8.15869 0)
(10.2574 3.44735 0)
(10.678 7.11323 0)
(10.6449 7.12983 0)
(10.5977 7.1786 0)
(10.5463 7.29837 0)
(10.5685 7.37287 0)
(10.5323 7.46733 0)
(10.5206 7.53316 0)
(10.4744 7.6122 0)
(10.499 7.69805 0)
(10.4952 7.81714 0)
(10.5646 7.93582 0)
(10.6102 8.06008 0)
(10.697 8.17796 0)
(10.7581 8.29214 0)
(10.8557 8.41254 0)
(10.8679 8.53273 0)
(11.0879 8.59818 0)
(9.87213 3.98903 0)
(10.4081 7.70642 0)
(10.4582 7.57206 0)
(10.4839 7.58383 0)
(10.4637 7.6838 0)
(10.5307 7.75949 0)
(10.539 7.84604 0)
(10.5855 7.92596 0)
(10.5727 7.98726 0)
(10.6351 8.07147 0)
(10.6429 8.19714 0)
(10.6987 8.30935 0)
(10.712 8.42848 0)
(10.7904 8.55867 0)
(10.8145 8.6643 0)
(10.8889 8.75805 0)
(10.9011 8.85302 0)
(11.1316 8.87923 0)
(9.92145 3.99989 0)
(10.2388 7.83701 0)
(10.2712 7.76217 0)
(10.4124 7.80731 0)
(10.5282 7.89932 0)
(10.6858 7.94392 0)
(10.7782 8.00831 0)
(10.8816 8.09213 0)
(10.886 8.1394 0)
(10.9386 8.20095 0)
(10.912 8.3264 0)
(10.911 8.4252 0)
(10.884 8.51433 0)
(10.9211 8.64062 0)
(10.9163 8.72272 0)
(11.0006 8.7775 0)
(11.0107 8.85169 0)
(11.2068 8.82995 0)
(9.80609 4.11452 0)
(10.1361 7.87322 0)
(10.2313 7.68048 0)
(10.3824 7.62588 0)
(10.5157 7.63321 0)
(10.6869 7.6424 0)
(10.8005 7.68766 0)
(10.9338 7.83466 0)
(10.9549 7.94541 0)
(10.9998 8.05713 0)
(10.9913 8.2308 0)
(11.0054 8.34201 0)
(10.9792 8.35855 0)
(11.0149 8.43497 0)
(10.9935 8.45024 0)
(11.0451 8.42984 0)
(11.0447 8.46007 0)
(11.1808 8.39885 0)
(9.83639 3.88047 0)
(10.1418 7.425 0)
(10.2549 7.27745 0)
(10.3992 7.21411 0)
(10.5585 7.20108 0)
(10.7372 7.18432 0)
(10.8323 7.17016 0)
(10.9463 7.27109 0)
(10.9714 7.35507 0)
(11.0215 7.43429 0)
(11.0435 7.5838 0)
(11.1076 7.72407 0)
(11.1151 7.74889 0)
(11.1717 7.83086 0)
(11.1758 7.8564 0)
(11.2192 7.81527 0)
(11.1851 7.83048 0)
(11.2699 7.76862 0)
(9.89703 3.40568 0)
(10.195 6.83551 0)
(10.4669 6.64335 0)
(10.6946 6.48787 0)
(10.8798 6.43132 0)
(11.0779 6.44401 0)
(11.1895 6.4802 0)
(11.3074 6.58507 0)
(11.3862 6.68122 0)
(11.435 6.71611 0)
(11.4128 6.76866 0)
(11.4727 6.87128 0)
(11.4617 6.89778 0)
(11.453 6.93645 0)
(11.4291 6.98354 0)
(11.4259 6.97449 0)
(11.3738 6.98718 0)
(11.4314 6.968 0)
(9.57361 3.10073 0)
(9.95771 5.92971 0)
(10.3906 5.77498 0)
(10.7546 5.68706 0)
(11.0071 5.63432 0)
(11.2356 5.62169 0)
(11.3804 5.62517 0)
(11.5007 5.68322 0)
(11.5945 5.76838 0)
(11.6743 5.84032 0)
(11.6726 5.8892 0)
(11.7032 5.98081 0)
(11.6819 6.04529 0)
(11.6495 6.06099 0)
(11.6313 6.08708 0)
(11.6115 6.10767 0)
(11.5508 6.09784 0)
(11.6146 6.08307 0)
(9.88059 2.67796 0)
(10.2148 5.10525 0)
(10.603 4.85407 0)
(10.938 4.71764 0)
(11.2078 4.67093 0)
(11.4385 4.69825 0)
(11.5947 4.75515 0)
(11.7027 4.82995 0)
(11.7302 4.9049 0)
(11.7646 4.96906 0)
(11.7614 5.00472 0)
(11.7488 5.03614 0)
(11.7362 5.06298 0)
(11.7293 5.07261 0)
(11.6862 5.07894 0)
(11.6887 5.09146 0)
(11.6456 5.09366 0)
(11.6775 5.09148 0)
(9.70751 2.15823 0)
(10.2375 4.1279 0)
(10.8149 3.95539 0)
(11.1988 3.85546 0)
(11.4451 3.80088 0)
(11.6571 3.81213 0)
(11.8142 3.85967 0)
(11.9456 3.95268 0)
(12.0144 4.03873 0)
(12.0564 4.0911 0)
(12.0694 4.137 0)
(12.0696 4.16379 0)
(12.0254 4.14621 0)
(12.0026 4.17397 0)
(11.9455 4.15455 0)
(11.8897 4.1476 0)
(11.8385 4.16597 0)
(11.8189 4.13833 0)
(9.93589 1.67644 0)
(10.338 3.20252 0)
(10.8993 3.05503 0)
(11.288 2.99851 0)
(11.5234 2.96497 0)
(11.7578 2.97415 0)
(11.9459 3.00722 0)
(12.0979 3.08285 0)
(12.1939 3.14546 0)
(12.2464 3.195 0)
(12.2481 3.22167 0)
(12.2415 3.2349 0)
(12.1926 3.24084 0)
(12.1435 3.25436 0)
(12.0643 3.2376 0)
(11.9946 3.24302 0)
(11.9165 3.25536 0)
(11.8881 3.25085 0)
(9.81374 1.21443 0)
(10.3195 2.33307 0)
(11.0416 2.21182 0)
(11.5739 2.18339 0)
(11.8921 2.15915 0)
(12.1344 2.15343 0)
(12.2709 2.18938 0)
(12.3689 2.26973 0)
(12.4013 2.34976 0)
(12.4252 2.40605 0)
(12.4079 2.42864 0)
(12.3793 2.43221 0)
(12.3098 2.42926 0)
(12.2091 2.41414 0)
(12.071 2.40561 0)
(11.9647 2.41511 0)
(11.8094 2.432 0)
(11.6949 2.42881 0)
(9.61439 0.897747 0)
(10.3803 1.48131 0)
(11.1464 1.36654 0)
(11.6367 1.37619 0)
(11.9122 1.39752 0)
(12.0926 1.43206 0)
(12.1479 1.49055 0)
(12.1551 1.56233 0)
(12.0969 1.62027 0)
(12.023 1.6436 0)
(11.9025 1.65343 0)
(11.7755 1.67327 0)
(11.586 1.67279 0)
(11.3947 1.68851 0)
(11.1794 1.71556 0)
(10.9532 1.73136 0)
(10.7017 1.73299 0)
(10.4622 1.7321 0)
(9.51633 0.354764 0)
(10.5398 0.603267 0)
(11.325 0.632122 0)
(11.5895 0.694056 0)
(11.548 0.75658 0)
(11.384 0.830629 0)
(11.1411 0.911809 0)
(10.8943 0.992713 0)
(10.6213 1.05262 0)
(10.3466 1.08607 0)
(10.0366 1.0976 0)
(9.72519 1.11909 0)
(9.36407 1.11657 0)
(9.04549 1.14187 0)
(8.70894 1.15239 0)
(8.33547 1.1654 0)
(7.96543 1.17801 0)
(7.58535 1.20121 0)
(9.97603 -0.27744 0)
(10.2678 -0.212439 0)
(10.1104 -0.0378056 0)
(9.55717 0.160825 0)
(8.93535 0.340195 0)
(8.3679 0.479382 0)
(7.87165 0.571043 0)
(7.4724 0.627487 0)
(7.10571 0.66112 0)
(6.77537 0.676783 0)
(6.4435 0.690054 0)
(6.07774 0.702112 0)
(5.72719 0.71391 0)
(5.4208 0.732106 0)
(5.07849 0.730503 0)
(4.743 0.743747 0)
(4.4243 0.749275 0)
(4.10779 0.750734 0)
(8.2808 -0.348351 0)
(6.16033 -0.150496 0)
(4.69594 0.0827928 0)
(3.7675 0.216784 0)
(3.31003 0.261469 0)
(3.08534 0.265526 0)
(2.93491 0.255942 0)
(2.8239 0.25009 0)
(2.70864 0.247272 0)
(2.59225 0.245914 0)
(2.44296 0.251803 0)
(2.25836 0.25401 0)
(2.09019 0.259774 0)
(1.90713 0.256079 0)
(1.71491 0.259759 0)
(1.52821 0.262546 0)
(1.35483 0.256677 0)
(1.14661 0.278927 0)
(0.137147 0.668264 0)
(0.340613 0.779938 0)
(0.467519 0.733083 0)
(0.693714 0.569877 0)
(1.04569 0.425685 0)
(1.49862 0.303834 0)
(1.988 0.206277 1.13811e-17)
(2.60962 0.0882825 -1.13512e-17)
(3.33294 0.00622419 0)
(4.10643 -0.0575813 -1.12652e-17)
(4.9608 -0.108726 0)
(5.86039 -0.184121 0)
(6.77779 -0.222882 0)
(7.73136 -0.200261 1.10378e-17)
(8.65704 -0.140149 0)
(9.50938 -0.101401 0)
(10.3168 -0.0783882 -1.08041e-17)
(11.0675 -0.00418755 0)
(11.7222 0.0858709 0)
(12.3028 0.152133 0)
(12.805 0.248714 1.04531e-17)
(13.1453 0.361597 0)
(13.3967 0.470278 1.02733e-17)
(13.5196 0.584041 0)
(13.4789 0.724969 0)
(13.3317 0.881535 1.00181e-17)
(12.9193 1.05526 0)
(12.3245 1.19928 -9.82457e-18)
(11.5897 1.42969 0)
(10.5367 1.63302 9.70881e-18)
(9.28339 1.29017 0)
(8.22556 0.639189 0)
(7.4899 0.286712 0)
(6.77695 0.340269 0)
(6.14614 0.501302 0)
(5.72058 0.557848 -9.33357e-18)
(5.29631 0.489612 0)
(4.7622 0.490325 1.8397e-17)
(4.29845 0.559344 0)
(3.99264 0.460648 -1.80883e-17)
(3.72242 0.242678 0)
(3.46985 0.0891611 0)
(3.38019 -0.0106875 1.78803e-17)
(3.47041 -0.0827315 0)
(3.53946 -0.147434 1.74949e-17)
(3.7492 -0.225879 -1.72444e-17)
(4.58579 -0.17438 0)
(4.91292 0.690091 -1.714e-17)
(4.75093 0.95419 -1.68934e-17)
(4.52951 0.626081 0)
(4.53488 0.441784 0)
(4.28527 -0.448219 0)
(3.9195 -1.17636 0)
(3.59251 -1.18655 0)
(3.1753 -0.594404 1.665e-17)
(2.38422 0.401515 0)
(0.956837 1.14104 -1.65361e-17)
(-0.653104 1.19075 0)
(-2.00564 1.0786 0)
(-3.20658 0.99348 1.59085e-17)
(-4.23359 0.907394 0)
(-5.08377 0.820516 -1.55879e-17)
(-5.81202 0.721286 0)
(-6.38014 0.641488 0)
(-6.8254 0.562708 0)
(-7.15418 0.493947 1.50084e-17)
(-7.3826 0.433613 0)
(-7.52442 0.384864 0)
(-7.59121 0.347706 1.46039e-17)
(-7.59737 0.317095 0)
(-7.55602 0.2922 1.43422e-17)
(-7.47258 0.269314 0)
(-7.36224 0.254176 0)
(-7.23019 0.24565 0)
(-7.08504 0.239469 -1.38303e-17)
(-6.92978 0.235318 0)
(-6.76395 0.232106 0)
(-6.59499 0.227132 -1.34517e-17)
(-6.43595 0.22218 -1.33263e-17)
(-6.27894 0.234771 0)
(-6.09712 0.247837 -1.3078e-17)
(-5.9488 0.243041 0)
(-5.82597 0.254333 -2.56644e-17)
(-5.68251 0.26256 0)
(-5.53788 0.254596 -2.5178e-17)
(-5.37832 0.239096 0)
(-5.2491 0.248461 2.47002e-17)
(-5.11945 0.260692 0)
(-4.95818 0.248527 0)
(-4.84714 0.250483 0)
(-4.7386 0.258191 -2.37939e-17)
(-4.63145 0.241899 0)
(-4.54436 0.240897 2.33747e-17)
(-4.47542 0.232577 0)
(-4.42725 0.229248 -2.29783e-17)
(-4.40659 0.221432 -2.27843e-17)
(-4.40259 0.223146 -2.25922e-17)
(-4.47266 0.229194 0)
(-4.51495 0.238211 0)
(-4.55684 0.246127 0)
(-4.66025 0.249264 0)
(-4.77184 0.240178 0)
(-4.95853 0.222079 0)
(-5.19535 0.193009 0)
(-5.43626 0.192266 0)
(-5.66694 0.215189 2.12515e-17)
(-5.9131 0.266845 2.11232e-17)
(-6.20416 0.315262 0)
(-6.56658 0.352118 0)
(-7.00989 0.327556 0)
(-7.39636 0.326397 2.05432e-17)
(-7.58407 0.279388 0)
(-7.5286 0.235519 0)
(-7.28761 0.181755 0)
(-6.78779 0.132985 0)
(-6.11339 0.160167 -1.95228e-17)
(-5.59595 0.18617 0)
(-5.07459 0.169392 0)
(-4.58503 0.146281 1.89612e-17)
(-4.01575 0.11657 -1.87404e-17)
(-3.22486 0.0948249 0)
(-2.49514 0.148984 -1.84281e-17)
(-1.91277 0.244229 0)
(-1.37613 0.281304 1.82698e-17)
(-0.826581 0.232806 0)
(0.107733 0.0574199 0)
(1.45015 -0.0023219 0)
(2.83817 0.0293282 0)
(4.0168 0.0345279 0)
(4.80105 0.175475 -3.55929e-17)
(5.3359 0.256969 -3.57707e-17)
(5.65874 0.203814 0)
(5.77456 -0.0015568 0)
(6.35089 -0.195948 0)
(6.94695 -0.140282 3.64783e-17)
(6.70738 0.0755781 0)
(5.9112 0.343248 0)
(4.85275 0.365574 0)
(3.5181 0.195969 3.57768e-17)
(1.3942 0.526329 -3.55899e-17)
(-1.71677 0.946432 0)
(-2.70013 -0.0846653 0)
(1.35924 -0.371362 -3.48064e-17)
(-0.0324563 0.507493 -3.45788e-17)
(-3.07616 -0.020868 0)
(-1.09617 -0.219363 0)
(-1.40138 0.127327 3.36093e-17)
(-1.50261 0.155707 -3.33655e-17)
(-1.45211 0.157484 0)
(-1.61061 0.274047 0)
(-2.10458 0.377856 -3.26377e-17)
(-2.62378 0.494462 0)
(-3.37025 0.682584 0)
(-4.38065 0.764838 -3.19546e-17)
(-5.89011 0.787381 0)
(-7.40058 0.618559 -3.163e-17)
(-8.71123 0.411943 0)
(-8.91564 0.163937 0)
(-8.96761 0.387084 0)
(-7.84144 0.535979 2.96008e-17)
(-7.50565 0.632744 0)
(-6.02074 0.432825 0)
(-7.4712 1.00523 0)
(-7.67166 0.994661 0)
(-7.61832 1.06704 0)
(-10.3182 1.12854 0)
(-6.96677 -0.129541 2.73144e-17)
(-1.07275 0.490267 2.60381e-17)
(-0.550442 1.18262 0)
(-2.50251 0.700331 0)
(-2.67318 0.876092 0)
(-1.01574 0.877062 -2.52981e-17)
(-1.33464 0.92394 0)
(-0.564797 0.503215 5.19696e-17)
(0.0444836 0.349773 -5.23019e-17)
(-0.124941 0.747912 -5.03553e-17)
(1.48223 0.405276 5.06237e-17)
(1.92505 0.387931 -5.12327e-17)
(3.00715 0.281548 4.99002e-17)
(5.16884 0.0783134 0)
(0.124785 1.64731 0)
(0.533098 1.75945 0)
(0.908568 1.78316 -2.28049e-17)
(1.37099 1.50698 0)
(1.89196 1.20448 2.28962e-17)
(2.43417 0.901443 2.29354e-17)
(3.00488 0.669099 1.14141e-17)
(3.64069 0.333807 1.14942e-17)
(4.33705 0.037412 0)
(5.11092 -0.216847 1.15078e-17)
(5.93747 -0.377049 0)
(6.81412 -0.510304 0)
(7.67224 -0.625435 -2.27677e-17)
(8.46748 -0.684552 -1.13161e-17)
(9.28436 -0.616069 2.23756e-17)
(10.0751 -0.488056 2.21669e-17)
(10.8056 -0.395524 1.10032e-17)
(11.4849 -0.238081 0)
(12.1417 -0.0195573 0)
(12.6924 0.12327 0)
(13.1764 0.35665 1.05092e-17)
(13.6132 0.619172 0)
(13.9362 0.805645 -3.09883e-17)
(14.1537 1.09655 0)
(14.3365 1.43874 0)
(14.4001 1.69567 -1.00389e-17)
(14.3194 2.10312 0)
(14.15 2.55541 9.86787e-18)
(13.8558 2.85266 1.95265e-17)
(13.4087 3.2581 -9.72376e-18)
(12.7938 3.53791 0)
(11.9781 3.43241 0)
(10.8542 3.1194 0)
(9.43082 2.6527 1.86449e-17)
(8.20582 1.95405 1.81029e-17)
(7.30554 1.35088 8.92589e-18)
(6.63132 1.34952 0)
(6.23093 1.48567 -1.75837e-17)
(5.91886 1.08834 0)
(5.44325 0.694302 1.73282e-17)
(5.06567 0.709626 0)
(4.81536 0.581964 0)
(4.69475 0.218338 -1.7117e-17)
(4.66419 -0.194786 0)
(4.437 -0.422441 -4.94363e-17)
(4.75972 -0.944064 1.64803e-17)
(5.54164 -2.08581 0)
(5.52269 -0.993486 1.70417e-17)
(5.92885 -0.306378 1.699e-17)
(4.54809 -0.475066 0)
(3.79638 0.318142 0)
(2.61534 1.53483 0)
(0.114108 2.17649 0)
(-2.25904 2.52157 0)
(-4.09143 2.84947 -1.65079e-17)
(-5.38111 3.03858 -3.26661e-17)
(-6.43507 3.03612 1.61541e-17)
(-7.39995 2.84736 0)
(-8.30273 2.58751 -3.16479e-17)
(-9.0574 2.30665 1.56805e-17)
(-9.65615 2.03326 0)
(-10.1541 1.75262 1.53975e-17)
(-10.5078 1.50571 0)
(-10.7531 1.28105 0)
(-10.9071 1.07671 3.0005e-17)
(-10.9589 0.907948 -1.48627e-17)
(-10.9587 0.76404 2.94794e-17)
(-10.8638 0.642825 -2.92213e-17)
(-10.7362 0.535554 -1.44685e-17)
(-10.5472 0.46947 0)
(-10.3399 0.410696 -1.42058e-17)
(-10.0955 0.372138 0)
(-9.82862 0.35316 0)
(-9.56232 0.332619 0)
(-9.2797 0.317644 -1.37123e-17)
(-8.99369 0.309895 0)
(-8.6982 0.301609 -2.6869e-17)
(-8.41407 0.305002 3.98859e-17)
(-8.13118 0.305501 1.31494e-17)
(-7.8687 0.324945 0)
(-7.6022 0.361128 1.28796e-17)
(-7.36238 0.366503 0)
(-7.12673 0.396194 2.52251e-17)
(-6.89972 0.398114 0)
(-6.66189 0.385907 2.47167e-17)
(-6.39529 0.364705 -4.89729e-17)
(-6.19346 0.416518 -2.41661e-17)
(-5.94003 0.37888 0)
(-5.72947 0.366129 0)
(-5.51491 0.378292 0)
(-5.34511 0.382028 2.31347e-17)
(-5.14762 0.371434 0)
(-4.96864 0.377761 -2.26401e-17)
(-4.82004 0.371519 0)
(-4.69915 0.390733 6.66453e-17)
(-4.59813 0.399166 2.19693e-17)
(-4.52592 0.396155 2.17583e-17)
(-4.55872 0.399435 0)
(-4.56255 0.4392 0)
(-4.57535 0.423381 0)
(-4.68628 0.42413 0)
(-4.78889 0.443878 0)
(-4.98182 0.521817 4.15477e-17)
(-5.25645 0.594033 4.16719e-17)
(-5.60027 0.616059 0)
(-5.9528 0.566481 -2.07975e-17)
(-6.31216 0.594055 -2.06421e-17)
(-6.65153 0.743763 0)
(-7.08284 0.868638 -4.11334e-17)
(-7.53775 0.836009 0)
(-7.84257 0.699765 2.05903e-17)
(-7.94094 0.50004 0)
(-7.8075 0.317471 0)
(-7.50387 0.0806118 -4.03042e-17)
(-6.90588 -0.175051 0)
(-5.98128 -0.157894 1.93468e-17)
(-5.08 -0.0564185 0)
(-4.29596 0.0289729 0)
(-3.70778 0.0617036 1.81543e-17)
(-3.11488 -0.0917863 1.78783e-17)
(-2.18256 -0.120281 0)
(-1.22987 0.071628 -1.7265e-17)
(-0.70262 0.218476 0)
(-0.325749 0.128028 1.69214e-17)
(-0.0886587 -0.101095 3.42116e-17)
(0.747937 -0.557197 0)
(2.35229 -0.832464 0)
(3.89588 -0.777012 0)
(5.44482 -0.516129 0)
(6.68564 -0.225651 3.35487e-17)
(7.45082 -0.146164 9.76678e-17)
(7.91437 -0.000880856 0)
(8.14381 -0.0494458 0)
(8.4507 -0.368188 0)
(7.71689 -0.0683532 -3.47578e-17)
(6.96194 0.516125 0)
(6.53062 0.815774 0)
(4.84667 0.919328 6.9744e-17)
(2.04132 1.49876 3.4915e-17)
(-0.879767 1.97973 3.51892e-17)
(-3.45509 0.830056 0)
(-2.267 -2.79048 0)
(-1.05693 -2.78241 3.42471e-17)
(0.718036 1.47468 -3.28674e-17)
(-2.19704 -0.291569 0)
(-0.42929 -1.70737 0)
(-0.690535 -0.597272 -3.22449e-17)
(-0.620047 -0.689595 9.63834e-17)
(0.0489725 -0.610417 0)
(0.672584 -0.09587 0)
(0.556993 0.296231 3.17239e-17)
(0.755357 0.555941 0)
(0.87124 1.04459 6.22352e-17)
(0.812444 1.45664 -3.07007e-17)
(-0.131631 2.0451 0)
(-1.32227 2.16524 3.04253e-17)
(-3.23169 2.08547 6.02636e-17)
(-4.96226 1.7345 0)
(-7.13073 1.22371 0)
(-6.80828 0.686061 -2.77292e-17)
(-7.51182 1.03492 0)
(-5.38773 1.38476 5.23996e-17)
(-8.10429 2.21519 0)
(-8.0915 1.31616 0)
(-8.4368 2.04769 0)
(-12.2444 1.14812 0)
(-8.07272 -2.4017 -2.71166e-17)
(-0.741708 -1.64284 -2.52282e-17)
(2.79964 1.99437 0)
(-0.633446 1.75951 0)
(-1.71539 0.5417 0)
(1.06773 0.223483 2.13219e-17)
(0.681522 1.12122 0)
(1.54194 0.921729 -4.48909e-17)
(1.2812 1.08114 4.77967e-17)
(0.533026 1.11122 4.2794e-17)
(2.47681 0.886727 4.27206e-17)
(2.04711 0.568276 4.54513e-17)
(3.31506 0.478093 4.31441e-17)
(5.29568 0.726733 0)
(0.0673437 2.59691 0)
(0.497152 2.40531 0)
(1.06245 2.29347 2.37841e-17)
(1.72148 1.8297 2.365e-17)
(2.39483 1.47387 -2.36613e-17)
(3.04382 1.18681 -2.35095e-17)
(3.69687 0.924868 -1.17067e-19)
(4.36057 0.54137 0)
(5.03591 0.158995 0)
(5.72327 -0.222042 0)
(6.39209 -0.498982 0)
(7.03686 -0.654349 0)
(7.65622 -0.663891 6.82141e-17)
(8.18103 -0.655431 0)
(8.71387 -0.628748 -2.20798e-17)
(9.2231 -0.486336 -2.17298e-17)
(9.76187 -0.30161 0)
(10.2088 -0.170932 0)
(10.7167 0.125427 0)
(11.1677 0.40664 0)
(11.5416 0.616672 -2.04403e-17)
(11.9229 0.932991 0)
(12.2482 1.30137 1.99931e-17)
(12.5482 1.58996 0)
(12.8342 1.92931 0)
(13.0415 2.42476 0)
(13.2104 2.91576 3.85574e-17)
(13.341 3.3189 0)
(13.3528 3.85501 -1.90992e-17)
(13.2808 4.41647 3.79773e-17)
(13.1607 4.68016 0)
(12.8891 4.80478 0)
(12.3414 4.99499 0)
(11.6701 4.87073 -1.87849e-17)
(10.9063 4.30962 -1.87611e-17)
(9.76487 3.76113 0)
(8.46683 2.84029 0)
(7.4098 1.90241 3.5233e-17)
(6.72148 1.93147 3.44108e-17)
(6.19263 2.11528 -3.40255e-17)
(5.74581 1.50328 0)
(5.39972 0.952553 0)
(4.99509 0.506862 0)
(4.48264 0.157981 0)
(4.26221 0.00274193 3.26541e-17)
(5.0305 -1.51884 3.37006e-17)
(3.5946 -1.53532 -3.5399e-17)
(1.7947 0.799353 0)
(0.835476 2.93019 0)
(-1.52924 3.35269 0)
(-2.69857 4.06143 0)
(-4.04602 4.41122 3.38228e-17)
(-5.26007 4.46163 0)
(-6.43401 4.38369 0)
(-7.52006 4.42792 3.2915e-17)
(-8.35562 4.43295 3.26306e-17)
(-9.11949 4.25932 0)
(-9.63516 3.96193 -6.42489e-17)
(-10.1091 3.58723 3.18897e-17)
(-10.4197 3.20028 -3.1664e-17)
(-10.7198 2.7926 0)
(-10.8657 2.42954 0)
(-10.9908 2.06826 0)
(-11.0095 1.7519 0)
(-10.9888 1.4874 -3.04878e-17)
(-10.8961 1.2493 -6.05565e-17)
(-10.7712 1.06019 -3.00026e-17)
(-10.6025 0.872133 2.97606e-17)
(-10.3689 0.741856 0)
(-10.1458 0.651988 -5.86212e-17)
(-9.87579 0.588532 -5.81374e-17)
(-9.61054 0.532495 -5.76421e-17)
(-9.31048 0.517239 5.71499e-17)
(-9.03239 0.505151 0)
(-8.74439 0.495852 8.41879e-17)
(-8.46075 0.486153 0)
(-8.16637 0.470684 -2.76466e-17)
(-7.89786 0.506124 -2.72769e-17)
(-7.62535 0.522266 0)
(-7.35451 0.550366 0)
(-7.10658 0.586733 -5.31403e-17)
(-6.87138 0.611926 0)
(-6.6442 0.652033 -5.2089e-17)
(-6.39618 0.678551 0)
(-6.22482 0.677859 5.11243e-17)
(-5.95943 0.676237 1.01053e-16)
(-5.83881 0.745496 0)
(-5.51742 0.690177 0)
(-5.39067 0.679582 0)
(-5.16251 0.685459 4.84248e-17)
(-5.00769 0.697248 0)
(-4.79768 0.685055 4.72476e-17)
(-4.65506 0.687045 0)
(-4.47021 0.671615 0)
(-4.33459 0.664468 -9.05525e-17)
(-4.22001 0.66188 0)
(-4.14338 0.673319 -4.41361e-17)
(-4.08379 0.711309 0)
(-4.08743 0.791074 -4.30775e-17)
(-4.11144 0.822839 0)
(-4.2442 0.847248 0)
(-4.40135 0.842419 0)
(-4.58505 0.891057 -1.23623e-16)
(-4.75311 0.908723 -4.06862e-17)
(-5.11249 0.98074 0)
(-5.58428 1.13103 0)
(-6.10551 1.29471 0)
(-6.54062 1.44306 0)
(-6.86139 1.42669 4.11429e-17)
(-7.13148 1.35819 -8.26052e-17)
(-7.33649 1.19491 -4.12646e-17)
(-7.46787 0.925962 8.25716e-17)
(-7.50338 0.634697 8.24898e-17)
(-7.47886 0.296181 4.14906e-17)
(-7.18708 -0.112328 0)
(-6.52912 -0.211726 8.23916e-17)
(-5.42619 -0.0604142 0)
(-4.28608 0.0949778 -7.68327e-17)
(-3.30975 0.244788 -3.69334e-17)
(-2.56651 0.0244297 0)
(-1.71089 -0.199532 7.38616e-17)
(-0.291806 0.12102 3.55592e-17)
(0.667106 0.671131 0)
(0.808669 0.914566 3.36419e-17)
(0.565181 0.568216 -1.05504e-16)
(1.00693 -0.515978 0)
(2.5466 -1.26646 0)
(4.19056 -1.22279 0)
(5.88451 -1.00692 0)
(7.64155 -0.427912 -6.98986e-17)
(8.40209 0.00827748 -6.61797e-17)
(8.69653 0.259617 0)
(9.03038 0.0460102 0)
(8.91289 0.141948 0)
(7.8054 0.732874 0)
(7.50846 0.498605 0)
(5.80526 1.26773 0)
(3.54239 2.54836 -6.82411e-17)
(1.34257 2.89066 7.03357e-20)
(-0.856196 2.80398 0)
(-1.63679 1.07917 0)
(-0.235988 -2.80934 -6.80634e-17)
(-2.69491 -3.59285 0)
(0.175174 0.988471 6.24122e-17)
(-0.233592 -0.25197 6.52061e-17)
(-0.201936 -2.0164 0)
(-0.715402 -0.542435 0)
(-0.966923 -1.00874 -6.42087e-17)
(-0.230004 -1.13519 -1.27746e-16)
(1.03147 -0.383712 0)
(1.25961 0.260971 0)
(1.50904 0.623803 0)
(1.74231 1.07106 -6.32158e-17)
(2.47776 1.99091 6.19549e-17)
(2.3464 2.86778 0)
(1.97082 3.40722 1.19836e-16)
(0.575895 3.78517 5.93271e-17)
(-0.508486 3.56593 -1.1771e-16)
(-3.04354 3.2906 0)
(-4.04656 2.34415 0)
(-6.63544 2.00322 -1.05133e-16)
(-4.83799 2.39367 -4.99403e-17)
(-7.78469 4.14034 0)
(-6.73416 3.40701 0)
(-7.17718 3.93649 0)
(-11.19 3.31047 0)
(-4.5187 -4.35358 -9.74458e-17)
(-2.8437 -3.38855 0)
(3.62115 3.38849 0)
(0.881605 3.53542 0)
(-1.96283 2.50128 0)
(1.28453 1.40137 0)
(2.03189 2.37872 0)
(3.02564 1.95577 -8.26036e-17)
(1.86714 1.81508 0)
(1.32085 1.87725 0)
(3.8235 1.07725 -1.53754e-16)
(2.51441 1.17668 8.16557e-17)
(4.69464 0.35778 -7.75506e-17)
(6.61492 0.805107 8.68683e-17)
(0.0554743 3.58209 0)
(0.44965 2.86134 -4.88723e-17)
(1.03747 2.37497 0)
(1.71726 1.78299 -2.43439e-17)
(2.37155 1.47095 0)
(3.0057 1.29111 0)
(3.68628 1.01795 2.35201e-17)
(4.32978 0.635188 0)
(4.94636 0.273413 0)
(5.49283 -0.0203861 0)
(5.91914 -0.18317 0)
(6.25312 -0.275906 0)
(6.57202 -0.261879 -8.92502e-17)
(6.86509 -0.198278 -4.3536e-17)
(7.18801 -0.144558 4.27311e-17)
(7.54267 -0.115555 0)
(7.97588 0.0253473 0)
(8.37637 0.206903 0)
(8.76623 0.418581 0)
(9.13019 0.656338 0)
(9.45979 0.906096 -3.98162e-17)
(9.81546 1.16342 -3.94379e-17)
(10.199 1.40138 3.9069e-17)
(10.5154 1.76986 -3.87547e-17)
(10.8923 2.13667 0)
(11.2654 2.49052 0)
(11.5031 3.0632 -3.82448e-17)
(11.7099 3.66479 0)
(11.8896 4.13894 0)
(11.991 4.63009 -3.76349e-17)
(12.0095 5.23351 -3.70743e-17)
(11.9672 5.72761 -3.70239e-17)
(11.9501 5.93238 0)
(11.8103 5.85654 0)
(11.3644 5.74963 3.68151e-17)
(10.7118 5.59383 0)
(9.99556 5.27726 0)
(8.89367 4.62829 -3.5551e-17)
(7.56709 3.47139 3.52545e-17)
(6.64181 2.71619 -3.52229e-17)
(6.10809 2.4064 0)
(5.20329 1.87093 0)
(4.37185 1.3046 -6.58309e-17)
(3.65403 0.97818 0)
(3.58985 -0.494428 -6.69004e-17)
(2.81579 0.362009 -1.05503e-16)
(-0.207785 3.19583 1.08086e-16)
(-1.94355 3.15825 -6.94024e-17)
(-2.65922 4.22175 0)
(-4.45882 4.98979 0)
(-5.2435 5.37532 -6.78918e-17)
(-6.56518 5.88089 -3.38029e-17)
(-7.28257 5.8277 0)
(-8.14959 5.76413 0)
(-8.72756 5.49437 -3.29227e-17)
(-9.19599 5.26512 -6.53324e-17)
(-9.58146 4.90354 0)
(-9.87774 4.49782 6.44388e-17)
(-10.1548 4.06706 -6.39801e-17)
(-10.2729 3.63993 6.35401e-17)
(-10.4046 3.18206 0)
(-10.4401 2.74294 0)
(-10.4445 2.3287 0)
(-10.3717 1.95603 0)
(-10.2547 1.62691 0)
(-10.1147 1.3516 6.06767e-17)
(-9.90489 1.14201 0)
(-9.70877 0.926562 0)
(-9.41077 0.795662 0)
(-9.1668 0.674175 1.17453e-16)
(-8.87827 0.598473 5.81779e-17)
(-8.59011 0.548427 5.76731e-17)
(-8.30744 0.530616 -1.14486e-16)
(-7.9911 0.542661 5.68206e-17)
(-7.70363 0.569692 -5.61819e-17)
(-7.43523 0.557645 0)
(-7.13641 0.548541 5.5231e-17)
(-6.87342 0.590564 0)
(-6.62379 0.625395 0)
(-6.35512 0.69506 0)
(-6.1462 0.722247 1.06969e-16)
(-5.90135 0.732808 -5.31465e-17)
(-5.7097 0.784916 -5.29082e-17)
(-5.44719 0.833275 -1.0455e-16)
(-5.3052 0.825629 -1.55358e-16)
(-5.04318 0.864284 -5.12036e-17)
(-4.95745 0.899639 0)
(-4.65637 0.863234 -1.01073e-16)
(-4.58832 0.880534 0)
(-4.34407 0.854723 -1.48802e-16)
(-4.24835 0.877421 0)
(-4.07267 0.870574 -1.46088e-16)
(-3.97449 0.867196 0)
(-3.84829 0.873224 0)
(-3.76191 0.889399 -4.73594e-17)
(-3.67785 0.91308 0)
(-3.58857 0.926725 4.57685e-17)
(-3.53331 0.976884 9.05098e-17)
(-3.49632 1.04131 4.43033e-17)
(-3.46822 1.07289 8.76361e-17)
(-3.55784 1.12609 -8.63847e-17)
(-3.56241 1.12816 -8.51232e-17)
(-3.68783 1.21779 1.67192e-16)
(-3.92872 1.37094 0)
(-4.27968 1.61428 0)
(-4.55313 1.5962 8.19565e-17)
(-4.96816 1.61196 -8.2473e-17)
(-5.37715 1.85438 0)
(-5.54581 1.88816 0)
(-5.64128 1.69044 8.19036e-17)
(-5.83055 1.43164 0)
(-5.92889 1.18972 3.63276e-19)
(-5.66029 0.884132 3.53016e-19)
(-5.18325 0.402039 7.8926e-17)
(-5.26099 -0.149444 0)
(-5.89278 -0.646839 -8.21807e-17)
(-5.7349 -0.71987 0)
(-4.75959 -0.475929 8.07731e-17)
(-3.51073 -0.0361953 0)
(-2.48107 -0.0874851 0)
(-1.7502 -0.64116 -7.73256e-17)
(-0.1456 -0.373782 -7.5641e-17)
(1.41398 0.710402 0)
(1.83669 1.42716 -6.74363e-17)
(1.6381 1.04056 1.41538e-16)
(1.82747 -0.650174 0)
(2.94337 -2.13588 0)
(4.8634 -2.07844 0)
(6.38023 -1.96433 0)
(8.12689 -1.10611 7.29999e-17)
(8.8931 -0.189133 -1.37716e-16)
(9.11011 0.23334 0)
(9.27 0.253069 0)
(8.48768 0.664097 0)
(7.22126 0.92198 0)
(5.8383 1.6032 0)
(3.7531 3.05162 0)
(2.91857 3.33499 0)
(2.98758 3.85924 6.95189e-17)
(0.620496 3.15181 0)
(0.285188 0.502975 0)
(0.86911 -2.33488 6.75196e-17)
(-1.14419 -3.67766 0)
(-1.13275 -0.582119 0)
(0.7744 -1.07644 -6.56744e-17)
(-0.25631 -2.33261 0)
(-0.0380563 -0.810152 0)
(0.107777 -1.65244 1.33658e-16)
(0.147011 -2.17952 1.34854e-16)
(1.88412 -1.11973 1.31664e-16)
(2.68059 -0.107092 0)
(3.50753 0.654957 1.29754e-16)
(3.2513 1.22337 0)
(3.83893 2.13793 -1.29937e-16)
(3.56056 3.53505 0)
(3.67668 4.2384 -1.21026e-16)
(2.42219 4.70481 -2.10711e-19)
(2.38801 5.12299 1.17154e-16)
(0.332421 5.07708 -1.15874e-16)
(-0.568773 4.04311 1.1479e-16)
(-4.32683 3.75361 2.18304e-16)