/*--------------------------------*- C++ -*----------------------------------*\
| =========                 |                                                 |
| \\      /  F ield         | OpenFOAM: The Open Source CFD Toolbox           |
|  \\    /   O peration     | Version:  dev                                   |
|   \\  /    A nd           | Web:      http://www.openfoam.org               |
|    \\/     M anipulation  |                                                 |
\*---------------------------------------------------------------------------*/
FoamFile
{
    version     2.0;
    format      ascii;
    class       volVectorField;
    object      UMean;
    location    "9.117";
}
// * * * * * * * * * * * * * * * * * * * * * * * * * * * * * * * * * * * * * //

dimensions      [0 1 -1 0 0 0 0];

internalField   nonuniform List<vector> 
12225
(
(7.00365 0.430273 0)
(4.43881 0.192545 0)
(2.55678 0.0311502 0)
(2.511 -0.0166589 0)
(1.38444 0.0193646 0)
(2.26755 -0.0342839 0)
(0.989481 0.0489856 0)
(2.18286 -0.0591837 0)
(0.797477 0.0716639 0)
(2.29211 -0.0978651 0)
(0.688713 0.0993844 0)
(2.74399 -0.13864 0)
(0.948031 0.102614 0)
(3.39705 -0.172115 0)
(3.5304 -0.168467 0)
(4.69458 0.0501116 0)
(14.8407 -2.43382 0)
(7.1173 5.13155 0)
(9.54628 0.981591 0)
(9.54347 0.860867 0)
(6.68672 0.466272 0)
(7.59071 0.214548 0)
(4.09041 0.14031 0)
(6.84366 0.0107988 0)
(2.66485 0.132657 0)
(6.68996 -0.0903566 0)
(1.82239 0.141859 0)
(7.04002 -0.165082 0)
(1.26038 0.123921 0)
(8.12273 -0.414417 0)
(1.38517 0.252516 0)
(9.95528 -1.44206 0)
(3.43543 0.272426 0)
(12.3867 -4.06685 0)
(10.426 -1.92702 0)
(7.77339 0.484332 0)
(9.11837 0.763526 0)
(12.167 0.951387 0)
(8.32924 0.623943 0)
(11.8324 0.443376 0)
(6.22564 0.310289 0)
(11.4136 0.206471 0)
(4.58204 0.221497 0)
(11.3158 -0.0195717 0)
(3.87339 0.192941 0)
(11.3776 -0.277913 0)
(4.34977 0.187282 0)
(11.2544 -0.723301 0)
(5.72792 0.176242 0)
(11.0917 -1.49176 0)
(7.2144 0.0532652 0)
(12.1186 -3.86462 0)
(6.93264 0.350194 0)
(9.35339 -2.3917 0)
(7.21855 0.525003 0)
(13.9934 0.961011 0)
(7.92921 0.609433 0)
(14.2959 0.553833 0)
(7.47376 0.42087 0)
(14.1171 0.271102 0)
(7.17513 0.396665 0)
(13.7393 -0.14514 0)
(7.25617 0.459549 0)
(13.2706 -0.698781 0)
(7.65868 0.576703 0)
(12.8756 -1.42273 0)
(8.26572 0.699485 0)
(12.6526 -2.31305 0)
(9.02133 0.0425494 0)
(11.8902 -3.6358 0)
(8.68431 -1.43197 0)
(8.36555 0.682172 0)
(6.42345 0.570006 0)
(14.0116 0.565887 0)
(8.47321 0.674439 0)
(13.9586 0.284492 0)
(9.1693 0.636671 0)
(13.644 -0.00256835 0)
(9.51721 0.657831 0)
(13.2143 -0.388713 0)
(9.59213 0.734362 0)
(12.8131 -0.871311 0)
(9.44538 0.876897 0)
(12.5824 -1.5213 0)
(9.14899 1.08999 0)
(12.5699 -2.48942 0)
(8.8257 1.13234 0)
(11.6155 -5.02703 0)
(8.54226 1.26721 0)
(8.72185 0.125761 0)
(7.95627 0.616927 0)
(11.8031 0.15233 0)
(9.50536 0.654736 0)
(11.7393 0.0501796 0)
(10.0887 0.693931 0)
(11.6002 -0.165689 0)
(10.3211 0.725852 0)
(11.4758 -0.457532 0)
(10.301 0.783102 0)
(11.3888 -0.853568 0)
(10.0333 0.832287 0)
(11.3542 -1.40009 0)
(9.4929 0.801873 0)
(11.4163 -2.1384 0)
(8.80168 0.727368 0)
(10.9955 -3.92075 0)
(7.73613 1.33683 0)
(9.4889 -0.218948 0)
(9.34466 0.812806 0)
(10.4381 -0.266151 0)
(10.1415 0.930544 0)
(10.5531 -0.304678 0)
(10.3995 1.02007 0)
(10.581 -0.503023 0)
(10.521 1.07558 0)
(10.6244 -0.781293 0)
(10.5645 1.15362 0)
(10.6707 -1.15793 0)
(10.5168 1.23557 0)
(10.6987 -1.63595 0)
(10.3688 1.2619 0)
(10.6864 -2.32733 0)
(10.0561 1.27247 0)
(10.3749 -3.95398 0)
(8.30259 2.01933 0)
(9.69653 -0.953961 0)
(9.84991 0.701306 0)
(10.155 -0.326221 0)
(10.4074 0.855141 0)
(10.3889 -0.350093 0)
(10.5813 0.906992 0)
(10.4697 -0.494191 0)
(10.7026 0.893136 0)
(10.5512 -0.686493 0)
(10.8064 0.873004 0)
(10.6431 -0.935518 0)
(10.8823 0.824438 0)
(10.7347 -1.23299 0)
(10.9099 0.672315 0)
(10.7532 -1.67271 0)
(10.7258 0.520824 0)
(10.4924 -2.47399 0)
(8.89673 0.980495 0)
(9.96367 -0.485554 0)
(10.0866 0.802367 0)
(10.0188 -0.583697 0)
(10.5364 1.02154 0)
(10.3099 -0.604732 0)
(10.6761 1.07515 0)
(10.4393 -0.725193 0)
(10.7785 1.04838 0)
(10.5702 -0.890245 0)
(10.8581 1.00388 0)
(10.7109 -1.11799 0)
(10.8997 0.921432 0)
(10.8314 -1.39512 0)
(10.8751 0.735172 0)
(10.8219 -1.76092 0)
(10.6034 0.50595 0)
(10.5206 -2.06866 0)
(9.35173 0.585452 0)
(10.0231 -0.392362 0)
(10.1399 0.648794 0)
(10.0414 -0.512211 0)
(10.511 0.878246 0)
(10.3327 -0.456779 0)
(10.622 0.869455 0)
(10.4813 -0.493906 0)
(10.6984 0.778511 0)
(10.6284 -0.572406 0)
(10.7346 0.658193 0)
(10.7631 -0.695618 0)
(10.7183 0.495889 0)
(10.8398 -0.845169 0)
(10.6186 0.264448 0)
(10.7652 -1.03215 0)
(10.2828 0.0705201 0)
(10.4793 -1.05264 0)
(9.62416 0.123875 0)
(10.2064 -0.0330224 0)
(10.1416 0.700169 0)
(10.0702 -0.692117 0)
(10.4529 0.902713 0)
(10.2982 -0.619148 0)
(10.5378 0.847808 0)
(10.4299 -0.645716 0)
(10.6035 0.735422 0)
(10.5604 -0.707553 0)
(10.6275 0.586916 0)
(10.6602 -0.791354 0)
(10.6094 0.383254 0)
(10.6811 -0.869252 0)
(10.5272 0.117145 0)
(10.5709 -0.921896 0)
(10.2919 -0.113864 0)
(10.3609 -0.764779 0)
(10.0205 -0.154544 0)
(10.2455 -0.125271 0)
(10.0971 0.468151 0)
(10.1506 -0.495335 0)
(10.3539 0.595951 0)
(10.2933 -0.374826 0)
(10.4205 0.527734 0)
(10.4093 -0.354981 0)
(10.485 0.419072 0)
(10.5239 -0.374358 0)
(10.5133 0.275909 0)
(10.5993 -0.414765 0)
(10.5158 0.0934595 0)
(10.5971 -0.46163 0)
(10.4769 -0.10322 0)
(10.4996 -0.49997 0)
(10.3575 -0.232112 0)
(10.3647 -0.405478 0)
(10.2663 -0.219981 0)
(10.374 -0.11025 0)
(10.0501 0.411087 0)
(10.1753 -0.487404 0)
(10.2549 0.437325 0)
(10.2378 -0.367609 0)
(10.3088 0.36746 0)
(10.3306 -0.345659 0)
(10.3793 0.250942 0)
(10.4246 -0.355336 0)
(10.4227 0.0995455 0)
(10.4823 -0.374858 0)
(10.4463 -0.0796585 0)
(10.4818 -0.403324 0)
(10.4331 -0.24664 0)
(10.4262 -0.431131 0)
(10.3774 -0.339195 0)
(10.3687 -0.392578 0)
(10.3573 -0.32057 0)
(10.4224 -0.276544 0)
(10.0153 0.199706 0)
(10.1907 -0.285883 0)
(10.1932 0.167411 0)
(10.2052 -0.179326 0)
(10.2293 0.13173 0)
(10.2792 -0.171379 0)
(10.3062 0.0472956 0)
(10.3626 -0.197763 0)
(10.366 -0.0586554 0)
(10.4142 -0.23568 0)
(10.4055 -0.175955 0)
(10.4268 -0.286356 0)
(10.4124 -0.27494 0)
(10.4113 -0.33158 0)
(10.3996 -0.324097 0)
(10.4067 -0.337149 0)
(10.411 -0.316013 0)
(10.4699 -0.30482 0)
(9.99667 0.0971686 0)
(10.1445 -0.185904 0)
(10.1463 0.0216963 0)
(10.1501 -0.13363 0)
(10.1622 -0.00858756 0)
(10.2089 -0.14612 0)
(10.241 -0.07692 0)
(10.2919 -0.186685 0)
(10.3111 -0.159353 0)
(10.3486 -0.23791 0)
(10.3576 -0.244735 0)
(10.3792 -0.298253 0)
(10.3806 -0.316234 0)
(10.394 -0.35003 0)
(10.396 -0.360993 0)
(10.4186 -0.380173 0)
(10.4239 -0.381044 0)
(10.479 -0.387235 0)
(9.99372 0.0155616 0)
(10.106 -0.0857657 0)
(10.1089 -0.0442722 0)
(10.1138 -0.0931871 0)
(10.1188 -0.0748325 0)
(10.1675 -0.118878 0)
(10.198 -0.120559 0)
(10.2519 -0.163782 0)
(10.2741 -0.180526 0)
(10.3154 -0.219108 0)
(10.3279 -0.243886 0)
(10.3598 -0.277769 0)
(10.366 -0.301295 0)
(10.394 -0.328964 0)
(10.3996 -0.346964 0)
(10.433 -0.370781 0)
(10.4357 -0.383775 0)
(10.4885 -0.396993 0)
(9.99179 0.00480985 0)
(10.0636 -0.0251212 0)
(10.0567 -0.0348777 0)
(10.0679 -0.0664274 0)
(10.0778 -0.0756761 0)
(10.128 -0.0997231 0)
(10.1573 -0.115906 0)
(10.211 -0.144664 0)
(10.2338 -0.168941 0)
(10.2782 -0.199537 0)
(10.2921 -0.226537 0)
(10.3301 -0.257012 0)
(10.3385 -0.283303 0)
(10.3732 -0.312042 0)
(10.3789 -0.336805 0)
(10.4154 -0.365543 0)
(10.4147 -0.388065 0)
(10.4636 -0.407483 0)
(9.99152 0.0142245 0)
(10.0466 0.0162103 0)
(10.0398 -0.0105303 0)
(10.0575 -0.0376351 0)
(10.0748 -0.0564949 0)
(10.1255 -0.0778165 0)
(10.1554 -0.0988346 0)
(10.2071 -0.123793 0)
(10.2311 -0.148971 0)
(10.2754 -0.176609 0)
(10.2911 -0.203419 0)
(10.3293 -0.232149 0)
(10.3395 -0.259364 0)
(10.3737 -0.288308 0)
(10.3802 -0.315646 0)
(10.4141 -0.345717 0)
(10.4133 -0.371582 0)
(10.4568 -0.3934 0)
(9.99166 0.0329931 0)
(10.0502 0.0497094 0)
(10.0566 0.00999272 0)
(10.0799 -0.0180169 0)
(10.1006 -0.0401859 0)
(10.1506 -0.0614229 0)
(10.1819 -0.0835619 0)
(10.2316 -0.106366 0)
(10.2563 -0.130519 0)
(10.2984 -0.155488 0)
(10.315 -0.181062 0)
(10.3508 -0.207317 0)
(10.3615 -0.233557 0)
(10.3927 -0.26041 0)
(10.3991 -0.287034 0)
(10.4288 -0.31529 0)
(10.4281 -0.341025 0)
(10.4654 -0.362804 0)
(9.98985 0.0407675 0)
(10.0546 0.0527186 0)
(10.0827 -0.00628512 0)
(10.1166 -0.0406241 0)
(10.1419 -0.0640788 0)
(10.1903 -0.082231 0)
(10.2223 -0.102067 0)
(10.269 -0.120984 0)
(10.2935 -0.142733 0)
(10.332 -0.163986 0)
(10.3483 -0.187405 0)
(10.3802 -0.210099 0)
(10.3904 -0.234411 0)
(10.4174 -0.257931 0)
(10.4229 -0.2828 0)
(10.4473 -0.307836 0)
(10.4461 -0.332464 0)
(10.4768 -0.352861 0)
(9.99055 0.0316718 0)
(10.0685 0.0220926 0)
(10.1262 -0.0556815 0)
(10.177 -0.0967048 0)
(10.2126 -0.11974 0)
(10.2609 -0.132705 0)
(10.2938 -0.147746 0)
(10.3361 -0.161631 0)
(10.3601 -0.179816 0)
(10.3941 -0.196908 0)
(10.4103 -0.217356 0)
(10.4377 -0.236242 0)
(10.4478 -0.257997 0)
(10.4702 -0.278063 0)
(10.4754 -0.300748 0)
(10.4946 -0.322371 0)
(10.4939 -0.345224 0)
(10.5187 -0.363503 0)
(9.99118 0.00991117 0)
(10.092 -0.0296763 0)
(10.1869 -0.120814 0)
(10.2595 -0.162753 0)
(10.3093 -0.181114 0)
(10.359 -0.187149 0)
(10.3929 -0.196026 0)
(10.4304 -0.204355 0)
(10.4542 -0.218101 0)
(10.4837 -0.230742 0)
(10.5001 -0.247605 0)
(10.5233 -0.262637 0)
(10.5337 -0.281348 0)
(10.5517 -0.298037 0)
(10.5572 -0.318097 0)
(10.5719 -0.336429 0)
(10.5723 -0.357005 0)
(10.592 -0.373138 0)
(9.99279 -0.0232825 0)
(10.1275 -0.103527 0)
(10.2671 -0.204858 0)
(10.3665 -0.241539 0)
(10.4319 -0.250764 0)
(10.4836 -0.248353 0)
(10.5183 -0.250862 0)
(10.5517 -0.25366 0)
(10.5753 -0.262939 0)
(10.6012 -0.271306 0)
(10.6181 -0.284641 0)
(10.6378 -0.296266 0)
(10.6487 -0.312079 0)
(10.6631 -0.325838 0)
(10.6691 -0.343375 0)
(10.6801 -0.358821 0)
(10.6813 -0.37713 0)
(10.6968 -0.391278 0)
(9.99053 -0.0715717 0)
(10.1744 -0.201131 0)
(10.3679 -0.305427 0)
(10.5001 -0.327837 0)
(10.5806 -0.322542 0)
(10.6344 -0.310173 0)
(10.669 -0.305553 0)
(10.6997 -0.302548 0)
(10.7227 -0.306685 0)
(10.746 -0.31057 0)
(10.7624 -0.319896 0)
(10.7794 -0.328042 0)
(10.7895 -0.340581 0)
(10.8006 -0.351359 0)
(10.8055 -0.365952 0)
(10.8124 -0.378512 0)
(10.8122 -0.394069 0)
(10.8221 -0.406022 0)
(9.99202 -0.136317 0)
(10.2447 -0.322955 0)
(10.5027 -0.418953 0)
(10.6712 -0.417586 0)
(10.7627 -0.394129 0)
(10.8175 -0.371059 0)
(10.8494 -0.358897 0)
(10.8772 -0.350543 0)
(10.896 -0.350061 0)
(10.9148 -0.35046 0)
(10.9253 -0.356354 0)
(10.9355 -0.361486 0)
(10.9374 -0.37079 0)
(10.9393 -0.378654 0)
(10.9339 -0.389851 0)
(10.9291 -0.399437 0)
(10.9163 -0.411361 0)
(10.9115 -0.420506 0)
(9.98982 -0.219864 0)
(10.3369 -0.468093 0)
(10.6737 -0.539707 0)
(10.8758 -0.508197 0)
(10.9698 -0.464823 0)
(11.0135 -0.428033 0)
(11.0286 -0.404783 0)
(11.0353 -0.38836 0)
(11.0291 -0.381396 0)
(11.0194 -0.376945 0)
(10.998 -0.378161 0)
(10.9735 -0.379066 0)
(10.9377 -0.383788 0)
(10.8999 -0.387267 0)
(10.8521 -0.393636 0)
(10.804 -0.39896 0)
(10.746 -0.405279 0)
(10.6943 -0.41005 0)
(9.98341 -0.332049 0)
(10.4677 -0.642292 0)
(10.883 -0.667075 0)
(11.0725 -0.602612 0)
(11.103 -0.537156 0)
(11.0584 -0.483092 0)
(10.9743 -0.444954 0)
(10.8732 -0.416205 0)
(10.7577 -0.39799 0)
(10.635 -0.38325 0)
(10.5035 -0.374866 0)
(10.3665 -0.366306 0)
(10.224 -0.362422 0)
(10.0773 -0.356971 0)
(9.9285 -0.355828 0)
(9.7769 -0.353236 0)
(9.6257 -0.352935 0)
(9.47576 -0.351097 0)
(10.0025 -0.453667 0)
(10.619 -0.818939 0)
(10.9016 -0.752038 0)
(10.7932 -0.623723 0)
(10.4938 -0.512504 0)
(10.1376 -0.429168 0)
(9.77013 -0.373544 0)
(9.4176 -0.334711 0)
(9.07678 -0.30728 0)
(8.75543 -0.284595 0)
(8.44642 -0.267639 0)
(8.15333 -0.251314 0)
(7.87256 -0.240028 0)
(7.60297 -0.227323 0)
(7.34815 -0.221119 0)
(7.09861 -0.211803 0)
(6.87017 -0.210833 0)
(6.64073 -0.204155 0)
(10.0974 -0.750788 0)
(10.0458 -1.01318 0)
(9.42497 -0.801059 0)
(8.51448 -0.572163 0)
(7.65508 -0.378717 0)
(6.92894 -0.244884 0)
(6.32738 -0.167523 0)
(5.83166 -0.126251 0)
(5.40923 -0.104699 0)
(5.04863 -0.092315 0)
(4.72853 -0.0849532 0)
(4.4478 -0.0793414 0)
(4.19138 -0.0758032 0)
(3.96248 -0.0718857 0)
(3.75076 -0.0721244 0)
(3.55558 -0.0690693 0)
(3.38335 -0.0802523 0)
(3.21844 -0.0828454 0)
(8.51676 -0.43605 0)
(6.11026 -0.38088 0)
(4.29836 -0.138044 0)
(3.12392 -0.021385 0)
(2.48115 0.0191319 0)
(2.12052 0.0224749 0)
(1.89627 0.0137193 0)
(1.73495 0.00461972 0)
(1.59891 -0.00156512 0)
(1.47817 -0.00478681 0)
(1.36608 -0.00640184 0)
(1.26392 -0.00671838 0)
(1.16825 -0.00670666 0)
(1.08152 -0.0063883 0)
(0.999486 -0.00665479 0)
(0.919259 -0.00703033 0)
(0.851752 -0.0186005 0)
(0.731263 -0.00613075 0)
(-0.0520859 0.138033 0)
(-0.157097 0.0713492 0)
(-0.206937 0.0162552 0)
(-0.194921 -0.0445236 0)
(-0.117487 -0.0992238 0)
(0.0128715 -0.145234 0)
(0.187082 -0.175745 1.11354e-17)
(0.388965 -0.19367 -1.10604e-17)
(0.607309 -0.198025 0)
(0.829775 -0.192733 -1.09172e-17)
(1.04698 -0.178379 0)
(1.24996 -0.157601 0)
(1.43212 -0.130943 0)
(1.58821 -0.101545 1.06425e-17)
(1.71558 -0.0702523 0)
(1.81148 -0.038127 0)
(1.87504 -0.00593218 -1.04454e-17)
(1.90697 0.0243499 0)
(1.90894 0.0507806 0)
(1.88305 0.0724253 0)
(1.83299 0.0893343 1.01959e-17)
(1.76134 0.100888 0)
(1.67201 0.108789 1.0074e-17)
(1.5667 0.111685 0)
(1.45008 0.109714 0)
(1.32491 0.10793 9.89535e-18)
(1.19145 0.111102 0)
(1.04893 0.116122 -9.77904e-18)
(0.900519 0.121304 0)
(0.746816 0.126311 9.66418e-18)
(0.589345 0.130286 0)
(0.430398 0.132741 0)
(0.272212 0.134021 0)
(0.115141 0.134032 0)
(-0.0404598 0.131234 0)
(-0.192554 0.126487 -9.32957e-18)
(-0.339476 0.120379 0)
(-0.480747 0.113942 1.84405e-17)
(-0.614949 0.107526 0)
(-0.741689 0.100358 -1.82217e-17)
(-0.859452 0.0933396 0)
(-0.968402 0.0865632 0)
(-1.069 0.0788059 1.78886e-17)
(-1.16072 0.0704118 0)
(-1.24421 0.0626556 1.76654e-17)
(-1.31945 0.0553496 -1.75534e-17)
(-1.38599 0.0483551 0)
(-1.44465 0.0422886 -1.73284e-17)
(-1.49656 0.0368257 -1.72153e-17)
(-1.54055 0.0330077 0)
(-1.5771 0.0314954 0)
(-1.60837 0.0318201 0)
(-1.63606 0.032206 0)
(-1.66106 0.0323363 0)
(-1.68463 0.0331329 1.65283e-17)
(-1.70862 0.0343952 0)
(-1.73429 0.0362158 -1.62989e-17)
(-1.76029 0.0379702 0)
(-1.78568 0.0385691 0)
(-1.81058 0.0392461 1.59524e-17)
(-1.83574 0.0410924 0)
(-1.86306 0.0424031 -1.57211e-17)
(-1.89244 0.0441594 0)
(-1.92375 0.0457328 0)
(-1.95651 0.0466387 0)
(-1.99011 0.0478489 1.52557e-17)
(-2.0242 0.0496647 0)
(-2.05904 0.0518592 0)
(-2.09441 0.0542464 1.4906e-17)
(-2.1306 0.0557012 0)
(-2.16459 0.0559206 1.46713e-17)
(-2.1955 0.0562993 0)
(-2.22318 0.0564726 0)
(-2.24661 0.0563045 0)
(-2.26482 0.0557062 -1.42052e-17)
(-2.2771 0.0544881 0)
(-2.28417 0.053789 0)
(-2.28794 0.0537484 -1.38614e-17)
(-2.28884 0.0528018 -1.3748e-17)
(-2.28515 0.0511662 0)
(-2.27508 0.0489207 -1.35228e-17)
(-2.25849 0.04603 0)
(-2.23504 0.0429202 -2.66026e-17)
(-2.20472 0.0395169 0)
(-2.16805 0.0358566 -2.61673e-17)
(-2.12483 0.0327738 0)
(-2.0761 0.0303391 2.57385e-17)
(-2.02268 0.0283415 0)
(-1.96461 0.0268599 0)
(-1.90257 0.0258332 0)
(-1.83806 0.0252174 -2.49016e-17)
(-1.7709 0.0249322 0)
(-1.70267 0.0248864 2.44998e-17)
(-1.63349 0.0255234 0)
(-1.56414 0.0266426 -2.41105e-17)
(-1.49654 0.0292072 -2.39219e-17)
(-1.42979 0.0303569 -2.37376e-17)
(-1.36299 0.0314542 0)
(-1.29799 0.031493 0)
(-1.23353 0.0326719 0)
(-1.16774 0.0333932 0)
(-1.10286 0.0329403 0)
(-1.03288 0.0318123 0)
(-0.964228 0.033274 0)
(-0.893176 0.0328997 0)
(-0.826456 0.0354538 2.22133e-17)
(-0.758984 0.0357917 2.20612e-17)
(-0.696611 0.0402182 0)
(-0.635835 0.0414053 0)
(-0.58045 0.0412068 0)
(-0.513179 0.0384727 2.14805e-17)
(-0.451119 0.0426578 0)
(-0.382706 0.0409428 0)
(-0.318127 0.0438096 0)
(-0.247809 0.0408413 0)
(-0.175641 0.043381 -2.08061e-17)
(-0.101553 0.0450957 0)
(-0.0221262 0.0441192 0)
(0.0621869 0.0454621 2.0429e-17)
(0.150239 0.045186 -2.03075e-17)
(0.241999 0.0443995 0)
(0.338475 0.0482218 -2.00749e-17)
(0.43045 0.0511095 0)
(0.523659 0.0542495 1.98483e-17)
(0.606791 0.0590086 0)
(0.678693 0.0619897 0)
(0.754601 0.0623169 0)
(0.824257 0.0630909 0)
(0.904226 0.060306 0)
(0.977814 0.0609318 -3.83961e-17)
(1.05369 0.0626583 -3.81771e-17)
(1.11309 0.0676945 0)
(1.16364 0.0663259 0)
(1.20847 0.0675246 0)
(1.24673 0.0634054 3.72525e-17)
(1.2953 0.0589105 0)
(1.34555 0.0571461 0)
(1.39111 0.0560161 0)
(1.43984 0.0542144 3.62324e-17)
(1.47684 0.0567909 -3.59641e-17)
(1.52027 0.0526478 0)
(1.55913 0.0527551 0)
(1.60046 0.0531863 -3.51496e-17)
(1.62677 0.0581992 -3.48767e-17)
(1.65718 0.0549439 0)
(1.68513 0.0587602 0)
(1.72443 0.0556946 3.40439e-17)
(1.76085 0.0659548 -3.37645e-17)
(1.76924 0.0713309 0)
(1.78297 0.0707294 0)
(1.80835 0.0710643 -3.29277e-17)
(1.84188 0.0757511 0)
(1.8557 0.0833319 0)
(1.86746 0.0890279 -3.20836e-17)
(1.86725 0.0931075 0)
(1.88192 0.097957 -3.15235e-17)
(1.88446 0.105009 0)
(1.89039 0.109221 0)
(1.87781 0.120843 0)
(1.86477 0.126686 3.04338e-17)
(1.85009 0.133097 0)
(1.81822 0.143061 0)
(1.74566 0.154801 0)
(1.66894 0.154767 0)
(1.60273 0.157113 0)
(1.51244 0.165795 0)
(1.38405 0.172529 2.88922e-17)
(1.26484 0.173913 2.87385e-17)
(1.08001 0.181922 0)
(0.872484 0.184633 0)
(0.62879 0.183586 0)
(0.412841 0.169786 -2.83211e-17)
(0.190549 0.162822 0)
(0.038197 0.146593 5.63475e-17)
(-0.162976 0.144031 -5.62379e-17)
(-0.266105 0.123638 -5.60586e-17)
(-0.427399 0.126784 5.59548e-17)
(-0.462339 0.0966259 -5.5752e-17)
(-0.619913 0.129181 5.57325e-17)
(-0.566811 -0.00413935 0)
(0.0101597 0.248937 0)
(0.0147104 0.191882 0)
(0.049935 0.00733927 -2.27964e-17)
(0.121483 -0.198855 0)
(0.236612 -0.384846 2.23646e-17)
(0.389117 -0.536223 2.22177e-17)
(0.57041 -0.645065 1.10433e-17)
(0.770385 -0.71093 1.09808e-17)
(0.97772 -0.737474 0)
(1.18187 -0.731101 1.08536e-17)
(1.3742 -0.695137 0)
(1.54742 -0.636697 0)
(1.69757 -0.561921 -2.13189e-17)
(1.81993 -0.477348 -1.05942e-17)
(1.91443 -0.385358 2.10544e-17)
(1.97929 -0.290792 2.09209e-17)
(2.01589 -0.198423 1.03949e-17)
(2.02432 -0.11033 0)
(2.007 -0.0272982 0)
(1.96392 0.0474258 0)
(1.89896 0.112862 1.0136e-17)
(1.81217 0.17188 0)
(1.70825 0.224662 -3.00357e-17)
(1.58599 0.267356 0)
(1.44771 0.302178 0)
(1.2939 0.332603 -9.83142e-18)
(1.12808 0.35646 0)
(0.952984 0.373622 9.71513e-18)
(0.772481 0.384558 1.93119e-17)
(0.587452 0.391734 -9.59719e-18)
(0.400698 0.393749 0)
(0.213463 0.389863 0)
(0.0254694 0.382559 0)
(-0.162828 0.375638 1.87306e-17)
(-0.349532 0.367208 1.86162e-17)
(-0.533513 0.355246 9.25115e-18)
(-0.71214 0.340738 0)
(-0.885877 0.323705 -1.82762e-17)
(-1.05082 0.303284 0)
(-1.20918 0.281577 1.80509e-17)
(-1.35931 0.25921 0)
(-1.50297 0.236532 0)
(-1.63857 0.216268 -1.7717e-17)
(-1.76708 0.197243 0)
(-1.89081 0.179271 -5.24876e-17)
(-2.00889 0.160329 1.73861e-17)
(-2.12036 0.141397 0)
(-2.22481 0.124485 1.71659e-17)
(-2.32309 0.106824 1.70556e-17)
(-2.41404 0.0874985 0)
(-2.49597 0.0691531 0)
(-2.57072 0.0549934 0)
(-2.63972 0.045111 0)
(-2.70497 0.0393815 0)
(-2.76615 0.0373701 -1.63737e-17)
(-2.8255 0.036335 -3.25152e-17)
(-2.88332 0.035982 1.61415e-17)
(-2.93667 0.0331014 0)
(-2.98766 0.0290366 -3.18132e-17)
(-3.03645 0.0277137 1.57876e-17)
(-3.08239 0.0287966 0)
(-3.12937 0.0298474 1.55501e-17)
(-3.17417 0.0326865 0)
(-3.21703 0.0342642 0)
(-3.25834 0.0339688 3.03757e-17)
(-3.29875 0.0334766 -1.50675e-17)
(-3.33474 0.0315575 2.98922e-17)
(-3.36829 0.0289244 -2.96509e-17)
(-3.39591 0.0253375 -1.47048e-17)
(-3.42041 0.0205689 0)
(-3.43853 0.0129999 -1.44631e-17)
(-3.44992 0.00278019 0)
(-3.45563 -0.00799084 0)
(-3.45287 -0.0205423 0)
(-3.4409 -0.0348187 -1.39832e-17)
(-3.42064 -0.0488485 0)
(-3.39386 -0.0589781 -2.74955e-17)
(-3.36129 -0.0660853 4.08948e-17)
(-3.32337 -0.0745763 1.35165e-17)
(-3.27914 -0.0855851 0)
(-3.22704 -0.0982262 1.32881e-17)
(-3.16969 -0.110795 0)
(-3.10677 -0.122726 2.61246e-17)
(-3.03872 -0.133618 0)
(-2.96575 -0.144016 2.56817e-17)
(-2.88774 -0.153322 -5.09235e-17)
(-2.80586 -0.162198 -2.52479e-17)
(-2.72165 -0.170195 0)
(-2.63237 -0.177821 0)
(-2.54089 -0.183541 0)
(-2.44713 -0.187755 2.44079e-17)
(-2.35007 -0.191831 0)
(-2.25177 -0.194483 -2.40016e-17)
(-2.15348 -0.194789 0)
(-2.05463 -0.196301 7.08238e-17)
(-1.95596 -0.195545 2.34178e-17)
(-1.85666 -0.196477 2.32318e-17)
(-1.75958 -0.193573 0)
(-1.66486 -0.19309 0)
(-1.56957 -0.194145 0)
(-1.47162 -0.194932 0)
(-1.37491 -0.19731 0)
(-1.27218 -0.201699 4.43238e-17)
(-1.17622 -0.19958 4.39874e-17)
(-1.07631 -0.199814 0)
(-0.98935 -0.193982 -2.16756e-17)
(-0.892688 -0.195369 -2.15237e-17)
(-0.806058 -0.188278 0)
(-0.71131 -0.187159 -4.24441e-17)
(-0.633718 -0.185973 0)
(-0.537801 -0.196427 2.09377e-17)
(-0.452484 -0.19039 0)
(-0.347272 -0.198658 0)
(-0.253129 -0.19531 -4.10578e-17)
(-0.140567 -0.203743 0)
(-0.0370467 -0.203728 2.02725e-17)
(0.0874847 -0.211234 0)
(0.213059 -0.219092 0)
(0.348767 -0.223589 1.98874e-17)
(0.48899 -0.228737 1.97712e-17)
(0.634569 -0.234701 0)
(0.783926 -0.235602 -1.95339e-17)
(0.943898 -0.237073 0)
(1.10336 -0.229278 1.9297e-17)
(1.26915 -0.219503 3.83633e-17)
(1.41718 -0.213146 0)
(1.57464 -0.214122 0)
(1.71964 -0.214062 0)
(1.8794 -0.215406 0)
(2.02568 -0.210282 3.72295e-17)
(2.17993 -0.206967 1.11004e-16)
(2.31531 -0.187556 0)
(2.43957 -0.183259 0)
(2.55763 -0.172859 0)
(2.66439 -0.175334 -3.60798e-17)
(2.7661 -0.179436 0)
(2.86925 -0.179207 0)
(2.96396 -0.177262 7.06155e-17)
(3.05912 -0.176502 3.50338e-17)
(3.13253 -0.170487 3.47644e-17)
(3.22078 -0.179747 0)
(3.28404 -0.173439 0)
(3.35271 -0.175099 3.39204e-17)
(3.39863 -0.164434 -3.36149e-17)
(3.44554 -0.17823 0)
(3.47432 -0.174711 0)
(3.50917 -0.19115 -3.27227e-17)
(3.53717 -0.173165 9.71913e-17)
(3.55199 -0.168993 0)
(3.56273 -0.179805 0)
(3.57419 -0.191511 3.14608e-17)
(3.59489 -0.189534 0)
(3.59081 -0.18298 6.16276e-17)
(3.58911 -0.181313 -3.04726e-17)
(3.5621 -0.185642 0)
(3.55838 -0.19466 2.98463e-17)
(3.5344 -0.191072 5.90574e-17)
(3.52315 -0.192522 0)
(3.47699 -0.185794 0)
(3.45393 -0.19469 -2.85749e-17)
(3.41401 -0.186552 0)
(3.35697 -0.169103 5.58881e-17)
(3.25969 -0.149864 0)
(3.1681 -0.154931 0)
(3.04769 -0.146305 0)
(2.91928 -0.121443 0)
(2.72374 -0.102361 -2.66526e-17)
(2.56463 -0.0752325 -2.64636e-17)
(2.27928 -0.0256737 0)
(2.00526 -0.000988049 0)
(1.67474 0.0231429 0)
(1.37947 0.0190809 2.59585e-17)
(1.04539 0.0237519 0)
(0.837408 0.0145561 -5.16699e-17)
(0.515683 0.0334318 5.16429e-17)
(0.400814 0.00110288 5.14945e-17)
(0.119524 0.0319521 5.14858e-17)
(0.120142 -0.0160089 5.13318e-17)
(-0.176413 0.0786583 5.14968e-17)
(0.0114944 -0.117827 0)
(0.0290798 0.0709129 0)
(0.121295 -0.0388528 0)
(0.228442 -0.242334 2.2913e-17)
(0.340692 -0.469317 2.26644e-17)
(0.475276 -0.693869 -2.25127e-17)
(0.619517 -0.875648 -2.23996e-17)
(0.773798 -1.00413 -1.48237e-21)
(0.925095 -1.0742 0)
(1.07015 -1.0848 0)
(1.19685 -1.04547 0)
(1.30551 -0.965533 0)
(1.39135 -0.856186 0)
(1.45682 -0.725616 6.47085e-17)
(1.4974 -0.585313 0)
(1.51591 -0.440413 -2.13039e-17)
(1.51057 -0.293934 -2.11677e-17)
(1.48427 -0.152516 0)
(1.43558 -0.0190484 0)
(1.36914 0.104774 0)
(1.28468 0.217197 0)
(1.18452 0.316497 -2.05019e-17)
(1.06945 0.39948 0)
(0.944505 0.471806 2.02481e-17)
(0.806936 0.536896 0)
(0.659645 0.591698 0)
(0.503974 0.636535 0)
(0.345375 0.672384 3.95246e-17)
(0.182807 0.699454 0)
(0.0188164 0.718726 -1.95222e-17)
(-0.146174 0.728949 3.87997e-17)
(-0.310415 0.731947 0)
(-0.476949 0.733519 0)
(-0.643621 0.730411 0)
(-0.809113 0.720828 -1.89164e-17)
(-0.970915 0.705569 -1.87956e-17)
(-1.12947 0.684177 0)
(-1.28316 0.657081 0)
(-1.43125 0.62591 3.6859e-17)
(-1.57252 0.592181 3.66195e-17)
(-1.71212 0.557995 -3.63815e-17)
(-1.84678 0.525464 0)
(-1.97974 0.492232 0)
(-2.10702 0.46031 0)
(-2.2307 0.431086 0)
(-2.35005 0.40337 3.52008e-17)
(-2.46353 0.374116 3.4967e-17)
(-2.57155 0.344423 -3.47348e-17)
(-2.67402 0.315695 0)
(-2.77039 0.287548 0)
(-2.86152 0.258947 0)
(-2.94715 0.232389 0)
(-3.03215 0.213851 3.35755e-17)
(-3.11133 0.197213 0)
(-3.18569 0.18353 0)
(-3.25346 0.175251 3.2878e-17)
(-3.31664 0.169623 3.26464e-17)
(-3.37442 0.16234 0)
(-3.4246 0.152678 -6.43598e-17)
(-3.47276 0.145604 3.19486e-17)
(-3.51695 0.13914 -3.17142e-17)
(-3.55531 0.135464 0)
(-3.59079 0.132928 0)
(-3.62021 0.128945 0)
(-3.64475 0.124959 0)
(-3.66677 0.120005 -3.05526e-17)
(-3.68458 0.112876 -6.0646e-17)
(-3.69619 0.10516 -3.00973e-17)
(-3.70412 0.0969129 2.98724e-17)
(-3.70484 0.0854577 0)
(-3.70052 0.072302 -5.88393e-17)
(-3.68822 0.0562478 -5.83909e-17)
(-3.67069 0.0400437 -5.79459e-17)
(-3.64895 0.0221819 5.75042e-17)
(-3.61838 -0.000215074 0)
(-3.58086 -0.0230253 8.49408e-17)
(-3.53745 -0.0425548 0)
(-3.48927 -0.0579745 -2.78773e-17)
(-3.43252 -0.0717072 -2.76644e-17)
(-3.36779 -0.0872882 0)
(-3.29684 -0.104028 0)
(-3.22237 -0.120635 -5.40404e-17)
(-3.1457 -0.135318 0)
(-3.06504 -0.149358 -5.31932e-17)
(-2.98185 -0.162839 0)
(-2.89408 -0.177062 5.23543e-17)
(-2.80285 -0.188321 1.03881e-16)
(-2.70797 -0.197986 0)
(-2.61234 -0.207188 0)
(-2.51366 -0.214757 0)
(-2.41629 -0.221116 5.02911e-17)
(-2.3171 -0.22703 0)
(-2.2146 -0.23182 4.94696e-17)
(-2.1092 -0.235139 0)
(-2.00335 -0.234316 0)
(-1.89502 -0.234342 -9.65064e-17)
(-1.78962 -0.231793 0)
(-1.68217 -0.231203 -4.74621e-17)
(-1.57914 -0.225057 0)
(-1.47169 -0.225895 -4.66945e-17)
(-1.36527 -0.225249 0)
(-1.25632 -0.22447 0)
(-1.14915 -0.228209 0)
(-1.03851 -0.230775 -1.35696e-16)
(-0.938711 -0.222071 -4.48703e-17)
(-0.82915 -0.21906 0)
(-0.73649 -0.208211 0)
(-0.634504 -0.210142 0)
(-0.549759 -0.197261 0)
(-0.445447 -0.193472 4.32355e-17)
(-0.360302 -0.187526 -8.58346e-17)
(-0.253738 -0.204632 -4.26322e-17)
(-0.166993 -0.196872 8.46563e-17)
(-0.0474779 -0.212777 8.40932e-17)
(0.0539427 -0.208926 4.17608e-17)
(0.183522 -0.223728 0)
(0.295837 -0.224296 8.23966e-17)
(0.434237 -0.239997 0)
(0.565799 -0.249439 -8.12869e-17)
(0.713824 -0.25644 -4.03852e-17)
(0.859802 -0.261781 0)
(1.01477 -0.270446 7.97642e-17)
(1.16364 -0.273688 3.9629e-17)
(1.32571 -0.28215 0)
(1.48401 -0.280746 3.90915e-17)
(1.65842 -0.270093 -1.16512e-16)
(1.81768 -0.257831 0)
(1.98254 -0.256622 0)
(2.13433 -0.256024 0)
(2.29453 -0.258941 0)
(2.45041 -0.254056 -7.5152e-17)
(2.60626 -0.250873 -7.4654e-17)
(2.75649 -0.21956 0)
(2.89527 -0.214395 0)
(3.02438 -0.201732 0)
(3.14832 -0.2007 0)
(3.25288 -0.205241 0)
(3.37559 -0.20904 0)
(3.48719 -0.207705 -7.09537e-17)
(3.60312 -0.205569 -1.65107e-20)
(3.69556 -0.196245 0)
(3.80737 -0.209454 0)
(3.89472 -0.196567 -6.8608e-17)
(3.98893 -0.197523 0)
(4.06657 -0.177106 6.74278e-17)
(4.1376 -0.187804 6.68105e-17)
(4.17885 -0.170083 0)
(4.23391 -0.188994 0)
(4.27188 -0.164748 -6.49009e-17)
(4.32256 -0.156217 -1.28513e-16)
(4.34987 -0.160321 0)
(4.38334 -0.172463 0)
(4.4248 -0.163606 0)
(4.43829 -0.149189 -6.16911e-17)
(4.46715 -0.136231 6.10032e-17)
(4.46657 -0.135878 0)
(4.48649 -0.142032 1.19372e-16)
(4.47015 -0.130056 5.9031e-17)
(4.48737 -0.128494 -1.16769e-16)
(4.46511 -0.110176 0)
(4.46472 -0.117203 0)
(4.43462 -0.0957155 -1.1275e-16)
(4.3947 -0.0676203 -5.57157e-17)
(4.31051 -0.0380801 0)
(4.24736 -0.0357555 0)
(4.11422 -0.017228 0)
(4.00449 0.0251665 0)
(3.79128 0.0529126 -1.05587e-16)
(3.62266 0.096555 0)
(3.32386 0.168095 0)
(3.06447 0.192748 0)
(2.71337 0.220338 0)
(2.39908 0.20324 0)
(2.00917 0.187744 0)
(1.77135 0.154535 -1.00635e-16)
(1.36491 0.151859 0)
(1.23571 0.0830544 0)
(0.851014 0.105275 -1.99422e-16)
(0.846905 0.0225656 9.92479e-17)
(0.461035 0.111196 -9.94062e-17)
(0.657417 -0.129258 9.87838e-17)
(0.0206286 -0.0945431 0)
(0.12512 -0.270159 -4.69561e-17)
(0.247959 -0.490987 0)
(0.375954 -0.756555 -2.27966e-17)
(0.502599 -1.00007 0)
(0.618627 -1.18864 0)
(0.723064 -1.30585 2.24446e-17)
(0.80347 -1.3487 0)
(0.866085 -1.31856 0)
(0.905059 -1.23257 0)
(0.9269 -1.1097 0)
(0.929433 -0.960388 0)
(0.917531 -0.793205 -8.66115e-17)
(0.888582 -0.616038 -4.30232e-17)
(0.846059 -0.433299 4.27439e-17)
(0.789675 -0.25227 0)
(0.721466 -0.079624 0)
(0.640053 0.0817262 0)
(0.5489 0.230398 0)
(0.447492 0.363705 0)
(0.338606 0.481244 -4.11501e-17)
(0.220427 0.583131 -4.08977e-17)
(0.0942754 0.673918 4.06486e-17)
(-0.0376858 0.750009 -4.0401e-17)
(-0.173796 0.8128 0)
(-0.312682 0.860874 0)
(-0.453083 0.896856 -3.96581e-17)
(-0.593859 0.921481 0)
(-0.735545 0.935514 0)
(-0.877786 0.944013 -3.89252e-17)
(-1.02061 0.949376 -3.8682e-17)
(-1.16128 0.94695 -3.84376e-17)
(-1.29886 0.937752 0)
(-1.4332 0.922365 0)
(-1.56297 0.900863 3.76938e-17)
(-1.6877 0.871275 0)
(-1.80849 0.835925 0)
(-1.92562 0.796726 -3.69488e-17)
(-2.03977 0.759147 3.66974e-17)
(-2.1524 0.721497 -3.64488e-17)
(-2.25879 0.683169 0)
(-2.36349 0.644181 0)
(-2.46416 0.608123 -7.14198e-17)
(-2.56194 0.57393 0)
(-2.65429 0.535762 -7.0453e-17)
(-2.74302 0.497232 -1.04963e-16)
(-2.82797 0.461135 1.04242e-16)
(-2.90765 0.424674 -6.90146e-17)
(-2.98418 0.387381 0)
(-3.05803 0.351831 0)
(-3.13099 0.323094 -6.7602e-17)
(-3.20125 0.298137 -3.35706e-17)
(-3.26545 0.272159 0)
(-3.32544 0.250657 0)
(-3.38097 0.234898 -3.28784e-17)
(-3.43107 0.217599 -6.5297e-17)
(-3.47498 0.198293 0)
(-3.51292 0.180046 6.4379e-17)
(-3.54698 0.165432 -6.39198e-17)
(-3.57567 0.151786 6.34639e-17)
(-3.59854 0.137991 0)
(-3.61519 0.124852 0)
(-3.62738 0.113848 0)
(-3.63423 0.102886 0)
(-3.63744 0.0930216 0)
(-3.63526 0.0774651 6.07735e-17)
(-3.62875 0.0605 0)
(-3.61557 0.0419801 0)
(-3.59659 0.0210312 0)
(-3.57352 -0.000866582 1.18046e-16)
(-3.54495 -0.0248059 5.85909e-17)
(-3.51168 -0.0488188 5.81574e-17)
(-3.47347 -0.0758633 -1.15456e-16)
(-3.42889 -0.107373 5.73035e-17)
(-3.38093 -0.137552 -5.68841e-17)
(-3.32673 -0.165142 0)
(-3.26762 -0.191098 5.6037e-17)
(-3.19855 -0.217788 0)
(-3.12532 -0.243078 0)
(-3.04644 -0.265031 0)
(-2.96607 -0.285772 1.08718e-16)
(-2.88352 -0.30479 -5.39455e-17)
(-2.79765 -0.323688 -5.3532e-17)
(-2.71052 -0.342427 -1.06269e-16)
(-2.61941 -0.362166 -1.58213e-16)
(-2.52737 -0.377869 -5.23425e-17)
(-2.43063 -0.390655 0)
(-2.33432 -0.402104 -1.03069e-16)
(-2.23649 -0.410241 0)
(-2.13876 -0.416747 -1.52204e-16)
(-2.04027 -0.426824 0)
(-1.94292 -0.433353 -1.49831e-16)
(-1.83941 -0.439747 0)
(-1.73543 -0.440425 0)
(-1.62649 -0.441954 -4.87467e-17)
(-1.51921 -0.43858 0)
(-1.40842 -0.438115 4.79718e-17)
(-1.30263 -0.43335 9.51554e-17)
(-1.18881 -0.435178 4.72032e-17)
(-1.07925 -0.437127 9.3649e-17)