/*--------------------------------*- C++ -*----------------------------------*\
| =========                 |                                                 |
| \\      /  F ield         | OpenFOAM: The Open Source CFD Toolbox           |
|  \\    /   O peration     | Version:  dev                                   |
|   \\  /    A nd           | Web:      http://www.openfoam.org               |
|    \\/     M anipulation  |                                                 |
\*---------------------------------------------------------------------------*/
FoamFile
{
    version     2.0;
    format      ascii;
    class       volSymmTensorField;
    object      UPrime2Mean;
    location    "9.117";
}
// * * * * * * * * * * * * * * * * * * * * * * * * * * * * * * * * * * * * * //

dimensions      [0 2 -2 0 0 0 0];

internalField   nonuniform List<symmTensor> 
12225
(
(0.329276 0.0192727 0 0.0692695 0 0)
(2.98618 0.0796931 0 0.0781912 0 0)
(7.88025 0.112314 0 0.0768944 0 0)
(14.5338 0.148222 0 0.0755688 0 0)
(22.7019 0.13302 0 0.0765152 0 0)
(32.065 0.201085 0 0.0746689 0 0)
(42.3765 0.0960105 0 0.0766109 0 0)
(53.5184 0.200446 0 0.0738488 0 0)
(65.6107 -0.0283145 0 0.0776095 0 0)
(78.2048 0.125795 0 0.0736171 0 0)
(92.9495 -0.30601 0 0.0813094 0 0)
(107.288 -0.115469 0 0.0769884 0 0)
(127.894 -0.671924 0 0.0863093 0 0)
(145.6 -1.27704 0 0.134713 0 0)
(185.902 -1.40917 0 0.116405 0 0)
(198.491 -0.392715 0 2.39276 0 0)
(272.248 -33.5295 0 5.80782 0 0)
(575.714 -52.9008 0 18.8123 0 0)
(0.377423 0.0568141 0 0.689 0 0)
(3.15602 0.252231 0 0.732293 0 0)
(8.41058 0.362118 0 0.714151 0 0)
(15.4724 0.485375 0 0.706644 0 0)
(24.1958 0.453098 0 0.703511 0 0)
(34.4526 0.632834 0 0.683335 0 0)
(45.5194 0.296288 0 0.692139 0 0)
(58.4705 0.609297 0 0.658807 0 0)
(71.4609 -0.134688 0 0.682659 0 0)
(87.1283 0.283324 0 0.646001 0 0)
(102.762 -1.06413 0 0.711274 0 0)
(121.396 -0.764691 0 0.655484 0 0)
(142.815 -2.54163 0 1.06869 0 0)
(166.283 -4.48975 0 1.04662 0 0)
(199.713 -0.927359 0 3.09971 0 0)
(274.327 -9.97718 0 6.60215 0 0)
(280.986 -20.8271 0 8.73707 0 0)
(799.685 -185.143 0 64.6884 0 0)
(0.505088 0.05839 0 2.14069 0 0)
(3.06407 0.424634 0 2.2026 0 0)
(8.46578 0.570514 0 2.15152 0 0)
(14.8516 0.851943 0 2.14301 0 0)
(24.2742 0.864738 0 2.11991 0 0)
(33.1464 1.05324 0 2.0827 0 0)
(45.2667 0.756789 0 2.07846 0 0)
(56.1925 0.88691 0 2.00769 0 0)
(69.6772 0.173225 0 2.05181 0 0)
(83.4301 0.0182484 0 1.95949 0 0)
(98.1701 -1.12151 0 2.12264 0 0)
(115.635 -2.44538 0 2.09453 0 0)
(138.592 -3.59377 0 2.62213 0 0)
(154.841 -7.19546 0 2.83079 0 0)
(210.959 -13.0036 0 6.11712 0 0)
(223.337 -7.89111 0 6.3718 0 0)
(352.936 -62.2428 0 31.0754 0 0)
(534.393 -192.41 0 98.1787 0 0)
(1.03022 0.0923952 0 4.6707 0 0)
(3.55003 0.619589 0 4.76727 0 0)
(9.06946 0.815861 0 4.64305 0 0)
(15.0659 1.15015 0 4.60234 0 0)
(24.6355 1.31324 0 4.55802 0 0)
(32.9808 1.35031 0 4.48374 0 0)
(45.0013 1.26224 0 4.44872 0 0)
(55.1606 0.974403 0 4.35022 0 0)
(68.5916 0.47737 0 4.38193 0 0)
(80.7002 -0.280946 0 4.25827 0 0)
(96.0206 -1.32836 0 4.50746 0 0)
(110.493 -3.33872 0 4.37258 0 0)
(131.452 -4.79072 0 5.30134 0 0)
(152.214 -10.9651 0 5.60698 0 0)
(187.834 -11.4278 0 9.28203 0 0)
(238.334 -28.8499 0 16.8211 0 0)
(291.361 -58.8901 0 32.6694 0 0)
(414.735 -178.238 0 107.771 0 0)
(1.86438 0.365103 0 8.52318 0 0)
(5.0102 0.7204 0 8.7247 0 0)
(9.43623 1.14023 0 8.47348 0 0)
(16.2416 1.29487 0 8.37043 0 0)
(24.646 1.70125 0 8.28074 0 0)
(33.9437 1.50294 0 8.14578 0 0)
(44.8136 1.59884 0 8.04499 0 0)
(55.5154 0.993958 0 7.913 0 0)
(68.4033 0.602342 0 7.85988 0 0)
(80.1084 -0.591839 0 7.76201 0 0)
(95.3535 -1.77578 0 7.96343 0 0)
(108.537 -4.22388 0 7.91065 0 0)
(128.073 -6.87459 0 9.02627 0 0)
(145.193 -12.2833 0 9.26833 0 0)
(173.925 -19.1917 0 14.5845 0 0)
(217.864 -25.9439 0 17.212 0 0)
(233.552 -55.5482 0 46.2734 0 0)
(326.628 -171.68 0 138.598 0 0)
(2.56189 0.75069 0 14.0407 0 0)
(6.3254 0.806986 0 14.3925 0 0)
(9.29711 1.54017 0 13.9627 0 0)
(17.0964 1.59462 0 13.7679 0 0)
(24.135 2.12103 0 13.5931 0 0)
(34.2634 1.93712 0 13.3611 0 0)
(43.9669 1.99213 0 13.1558 0 0)
(55.1641 1.41672 0 12.915 0 0)
(67.3143 0.89673 0 12.778 0 0)
(78.8963 -0.383312 0 12.5769 0 0)
(94.4053 -1.73468 0 12.7767 0 0)
(105.809 -4.30789 0 12.6851 0 0)
(128.085 -7.26195 0 13.9863 0 0)
(137.908 -13.1495 0 14.6649 0 0)
(170.926 -21.829 0 21.2438 0 0)
(191.457 -33.0244 0 24.5977 0 0)
(211.007 -55.8758 0 51.5799 0 0)
(265.636 -145.635 0 130.618 0 0)
(2.24305 0.72184 0 21.5335 0 0)
(5.54192 0.940222 0 22.1494 0 0)
(9.1977 1.76391 0 21.3753 0 0)
(16.3384 2.07732 0 21.1875 0 0)
(23.9708 2.45038 0 20.7888 0 0)
(33.3605 2.543 0 20.5558 0 0)
(43.6074 2.27546 0 20.0872 0 0)
(54.0422 1.92909 0 19.8573 0 0)
(66.4766 0.899481 0 19.439 0 0)
(77.3494 -0.216418 0 19.2864 0 0)
(92.5016 -2.36785 0 19.2258 0 0)
(103.481 -4.81978 0 19.2687 0 0)
(123.616 -8.97495 0 20.477 0 0)
(133.898 -14.2548 0 21.4549 0 0)
(161.499 -24.3918 0 28.5146 0 0)
(169.335 -32.3958 0 32.0513 0 0)
(203.358 -58.9821 0 56.8673 0 0)
(190.208 -108.75 0 114.142 0 0)
(1.42149 0.598715 0 29.7559 0 0)
(4.3179 1.13371 0 30.6413 0 0)
(8.57927 1.92404 0 29.4941 0 0)
(15.2485 2.47246 0 29.3229 0 0)
(23.2023 2.7776 0 28.6776 0 0)
(32.2611 2.96342 0 28.4168 0 0)
(42.413 2.599 0 27.6648 0 0)
(52.7814 2.19184 0 27.3844 0 0)
(64.4172 1.00885 0 26.6603 0 0)
(75.6025 -0.361628 0 26.4953 0 0)
(88.6286 -2.74942 0 26.1112 0 0)
(100.414 -5.73203 0 26.3358 0 0)
(115.517 -10.3167 0 27.0906 0 0)
(128.055 -15.7936 0 28.6048 0 0)
(144.615 -26.4818 0 33.9156 0 0)
(151.991 -33.4464 0 37.4795 0 0)
(180.301 -54.8712 0 53.1813 0 0)
(139.54 -71.274 0 83.688 0 0)
(1.00217 0.521076 0 38.5273 0 0)
(3.77186 1.28672 0 39.7219 0 0)
(8.17334 2.03552 0 38.1843 0 0)
(14.7228 2.77925 0 38.0434 0 0)
(22.6431 3.00552 0 37.1333 0 0)
(31.5805 3.31559 0 36.8585 0 0)
(41.4935 2.80525 0 35.8071 0 0)
(51.7662 2.47348 0 35.489 0 0)
(62.8153 1.03935 0 34.4797 0 0)
(73.8316 -0.280396 0 34.2801 0 0)
(85.6397 -3.04414 0 33.6485 0 0)
(97.0008 -5.90141 0 33.9084 0 0)
(109.314 -10.9446 0 34.4158 0 0)
(121.193 -16.0337 0 36.1351 0 0)
(131.184 -25.5539 0 40.0139 0 0)
(138.113 -33.1941 0 44.7455 0 0)
(149.943 -47.2963 0 52.4619 0 0)
(123.17 -58.7173 0 73.1194 0 0)
(0.607228 0.484358 0 49.7143 0 0)
(3.23003 1.44541 0 51.3028 0 0)
(7.73695 2.18629 0 49.2059 0 0)
(14.1935 3.03572 0 49.1188 0 0)
(21.9854 3.27328 0 47.8293 0 0)
(30.8425 3.57928 0 47.5505 0 0)
(40.4634 3.06489 0 46.0888 0 0)
(50.5964 2.63678 0 45.7206 0 0)
(61.1154 1.16181 0 44.3008 0 0)
(71.7816 -0.292764 0 44.0574 0 0)
(82.6573 -3.14144 0 43.0125 0 0)
(93.1983 -6.03706 0 43.3314 0 0)
(103.831 -11.0906 0 43.3302 0 0)
(113.695 -15.84 0 45.1868 0 0)
(121.295 -24.4972 0 47.6868 0 0)
(125.735 -30.5566 0 51.9576 0 0)
(129.062 -40.6969 0 56.4728 0 0)
(115.983 -48.3657 0 69.0347 0 0)
(0.432643 0.516149 0 63.9091 0 0)
(2.97703 1.62749 0 65.9646 0 0)
(7.46766 2.38346 0 63.2723 0 0)
(13.8419 3.31049 0 63.1611 0 0)
(21.4863 3.56961 0 61.5269 0 0)
(30.1816 3.85922 0 61.113 0 0)
(39.5368 3.35585 0 59.3046 0 0)
(49.3718 2.81801 0 58.7104 0 0)
(59.4367 1.36858 0 56.989 0 0)
(69.5363 -0.268252 0 56.4717 0 0)
(79.626 -2.9827 0 55.1681 0 0)
(89.1576 -6.08167 0 55.2241 0 0)
(98.4687 -10.5522 0 54.8764 0 0)
(106.343 -15.4128 0 56.4242 0 0)
(112.503 -22.1246 0 57.8649 0 0)
(115.037 -28.0373 0 61.5951 0 0)
(115.98 -35.1789 0 64.5569 0 0)
(109.536 -40.7743 0 71.4532 0 0)
(0.35596 0.54062 0 81.4026 0 0)
(2.83059 1.74503 0 84.0888 0 0)
(7.2599 2.55486 0 80.6204 0 0)
(13.5125 3.50137 0 80.5119 0 0)
(20.9831 3.80866 0 78.4251 0 0)
(29.4583 4.03621 0 77.8728 0 0)
(38.5115 3.55967 0 75.5832 0 0)
(47.9767 2.91812 0 74.7591 0 0)
(57.525 1.4796 0 72.5665 0 0)
(67.0131 -0.224271 0 71.7798 0 0)
(76.2205 -2.87343 0 70.0235 0 0)
(84.802 -5.85754 0 69.7645 0 0)
(92.7029 -9.96035 0 68.9277 0 0)
(99.129 -14.287 0 69.8811 0 0)
(103.839 -19.7308 0 70.5216 0 0)
(105.783 -24.6417 0 73.0255 0 0)
(105.937 -29.8038 0 74.9657 0 0)
(101.695 -33.2863 0 78.6192 0 0)
(0.329194 0.569036 0 102.481 0 0)
(2.73546 1.80676 0 105.692 0 0)
(7.06697 2.68285 0 101.665 0 0)
(13.1514 3.583 0 101.197 0 0)
(20.4266 3.93276 0 98.9322 0 0)
(28.6069 4.05369 0 97.8536 0 0)
(37.3356 3.61381 0 95.3385 0 0)
(46.331 2.83212 0 93.8898 0 0)
(55.3544 1.47263 0 91.4527 0 0)
(64.1301 -0.343636 0 90.0021 0 0)
(72.5038 -2.76069 0 87.9746 0 0)
(80.0892 -5.69046 0 87.0005 0 0)
(86.8061 -9.19909 0 85.7876 0 0)
(92.0639 -13.0864 0 85.7944 0 0)
(95.7628 -17.3022 0 85.743 0 0)
(97.3469 -21.3669 0 86.8837 0 0)
(97.449 -25.2093 0 87.9096 0 0)
(94.6468 -27.6629 0 89.5124 0 0)
(0.313611 0.573357 0 126.476 0 0)
(2.64017 1.77409 0 130.407 0 0)
(6.84618 2.66739 0 125.697 0 0)
(12.7272 3.46289 0 124.888 0 0)
(19.7604 3.7907 0 122.357 0 0)
(27.6069 3.80482 0 120.781 0 0)
(35.9438 3.33155 0 117.897 0 0)
(44.4486 2.48504 0 115.865 0 0)
(52.8805 1.1308 0 113.004 0 0)
(60.9693 -0.63169 0 110.913 0 0)
(68.5136 -2.89868 0 108.422 0 0)
(75.2329 -5.52943 0 106.695 0 0)
(80.9671 -8.58327 0 104.926 0 0)
(85.4136 -11.8052 0 103.921 0 0)
(88.457 -15.1664 0 103.088 0 0)
(89.8938 -18.3324 0 102.913 0 0)
(90.1961 -21.25 0 102.925 0 0)
(88.2343 -22.8957 0 103.076 0 0)
(0.299223 0.524949 0 151.893 0 0)
(2.53223 1.58183 0 156.397 0 0)
(6.58204 2.37742 0 151.267 0 0)
(12.2294 2.98764 0 149.829 0 0)
(18.9675 3.21131 0 147.27 0 0)
(26.4427 3.06959 0 144.958 0 0)
(34.339 2.52958 0 141.869 0 0)
(42.3239 1.59806 0 139.063 0 0)
(50.1562 0.269441 0 135.864 0 0)
(57.5712 -1.43453 0 132.987 0 0)
(64.3801 -3.4953 0 130.035 0 0)
(70.3553 -5.83179 0 127.462 0 0)
(75.3664 -8.40746 0 125.058 0 0)
(79.2509 -11.0583 0 123.055 0 0)
(81.9475 -13.695 0 121.341 0 0)
(83.3645 -16.1585 0 120.001 0 0)
(83.9468 -18.3559 0 118.91 0 0)
(82.7405 -19.4012 0 117.798 0 0)
(0.283922 0.394251 0 175.117 0 0)
(2.41381 1.14559 0 180.319 0 0)
(6.28184 1.67052 0 174.71 0 0)
(11.6678 2.00288 0 172.828 0 0)
(18.0721 2.0003 0 170.147 0 0)
(25.1491 1.66382 0 167.296 0 0)
(32.5776 0.983664 0 163.91 0 0)
(40.0426 -0.0247095 0 160.513 0 0)
(47.2967 -1.35835 0 156.896 0 0)
(54.1068 -2.96941 0 153.382 0 0)
(60.295 -4.83681 0 149.894 0 0)
(65.6973 -6.8666 0 146.603 0 0)
(70.2088 -9.01979 0 143.505 0 0)
(73.7565 -11.1666 0 140.65 0 0)
(76.3108 -13.2295 0 138.058 0 0)
(77.8362 -15.1281 0 135.732 0 0)
(78.718 -16.7748 0 133.62 0 0)
(78.1699 -17.3718 0 131.42 0 0)
(0.268708 0.15647 0 190.228 0 0)
(2.29295 0.39121 0 195.904 0 0)
(5.96534 0.489189 0 190.009 0 0)
(11.0722 0.410802 0 187.866 0 0)
(17.1266 0.0744126 0 185.12 0 0)
(23.7958 -0.533656 0 181.95 0 0)
(30.7629 -1.40243 0 178.372 0 0)
(37.7324 -2.5242 0 174.619 0 0)
(44.4684 -3.8733 0 170.707 0 0)
(50.7648 -5.41262 0 166.789 0 0)
(56.4686 -7.09873 0 162.896 0 0)
(61.4585 -8.86649 0 159.117 0 0)
(65.6589 -10.6615 0 155.481 0 0)
(69.0406 -12.4057 0 152.019 0 0)
(71.5963 -14.0234 0 148.753 0 0)
(73.315 -15.4928 0 145.708 0 0)
(74.5096 -16.7284 0 142.816 0 0)
(74.5544 -17.0488 0 139.821 0 0)
(0.259055 -0.142427 0 190.201 0 0)
(2.19543 -0.534133 0 195.834 0 0)
(5.68874 -0.937561 0 190.003 0 0)
(10.5395 -1.49267 0 187.851 0 0)
(16.2783 -2.21294 0 185.148 0 0)
(22.5876 -3.11513 0 181.985 0 0)
(29.1593 -4.18836 0 178.431 0 0)
(35.7209 -5.42688 0 174.682 0 0)
(42.0499 -6.80023 0 170.757 0 0)
(47.9686 -8.27982 0 166.805 0 0)
(53.3411 -9.81886 0 162.831 0 0)
(58.0791 -11.3749 0 158.945 0 0)
(62.1214 -12.895 0 155.133 0 0)
(65.4621 -14.3359 0 151.47 0 0)
(68.0998 -15.6322 0 147.928 0 0)
(70.0401 -16.7913 0 144.59 0 0)
(71.5163 -17.7376 0 141.342 0 0)
(72.0505 -17.9419 0 138.012 0 0)
(0.255886 -0.39629 0 174.383 0 0)
(2.13627 -1.30621 0 179.336 0 0)
(5.49806 -2.12759 0 174.006 0 0)
(10.159 -3.07588 0 172.014 0 0)
(15.6645 -4.10411 0 169.533 0 0)
(21.7097 -5.23301 0 166.644 0 0)
(27.9976 -6.45551 0 163.393 0 0)
(34.2738 -7.76848 0 159.97 0 0)
(40.3282 -9.1435 0 156.365 0 0)
(46.0044 -10.5607 0 152.737 0 0)
(51.1772 -11.9781 0 149.054 0 0)
(55.7783 -13.3692 0 145.448 0 0)
(59.7545 -14.6891 0 141.865 0 0)
(63.1099 -15.9146 0 138.414 0 0)
(65.8423 -16.9944 0 135.03 0 0)
(67.9694 -17.9435 0 131.829 0 0)
(69.6602 -18.7007 0 128.675 0 0)
(70.5573 -18.888 0 125.475 0 0)
(0.257348 -0.545393 0 148.947 0 0)
(2.1085 -1.74725 0 152.906 0 0)
(5.3837 -2.82248 0 148.37 0 0)
(9.9171 -4.00559 0 146.653 0 0)
(15.2659 -5.20895 0 144.532 0 0)
(21.1343 -6.45756 0 142.079 0 0)
(27.2346 -7.74343 0 139.316 0 0)
(33.3248 -9.06841 0 136.411 0 0)
(39.2054 -10.4051 0 133.34 0 0)
(44.7326 -11.7436 0 130.249 0 0)
(49.7911 -13.0457 0 127.093 0 0)
(54.3219 -14.2982 0 123.999 0 0)
(58.2787 -15.4617 0 120.905 0 0)
(61.6669 -16.5273 0 117.917 0 0)
(64.4859 -17.4514 0 114.968 0 0)
(66.7577 -18.2531 0 112.171 0 0)
(68.6074 -18.8818 0 109.399 0 0)
(69.7676 -19.091 0 106.608 0 0)
(0.260226 -0.601102 0 120.044 0 0)
(2.0996 -1.88925 0 123.014 0 0)
(5.3177 -3.06685 0 119.366 0 0)
(9.76577 -4.33945 0 117.973 0 0)
(15.0098 -5.59732 0 116.267 0 0)
(20.7606 -6.86657 0 114.303 0 0)
(26.7371 -8.13694 0 112.091 0 0)
(32.7068 -9.41378 0 109.765 0 0)
(38.477 -10.6717 0 107.301 0 0)
(43.9127 -11.9077 0 104.818 0 0)
(48.9061 -13.0879 0 102.277 0 0)
(53.403 -14.2078 0 99.7784 0 0)
(57.362 -15.2329 0 97.2742 0 0)
(60.7878 -16.1633 0 94.8492 0 0)
(63.6808 -16.962 0 92.4514 0 0)
(66.0659 -17.6485 0 90.1684 0 0)
(68.0377 -18.1819 0 87.9039 0 0)
(69.3965 -18.4172 0 85.6291 0 0)
(0.263154 -0.590339 0 91.8931 0 0)
(2.09923 -1.82947 0 94.0089 0 0)
(5.27993 -2.99574 0 91.2179 0 0)
(9.67117 -4.24571 0 90.1446 0 0)
(14.8447 -5.46554 0 88.8456 0 0)
(20.517 -6.67766 0 87.3512 0 0)
(26.4118 -7.87163 0 85.671 0 0)
(32.3027 -9.05243 0 83.8995 0 0)
(38.0029 -10.1994 0 82.0241 0 0)
(43.3823 -11.3112 0 80.1274 0 0)
(48.3393 -12.3609 0 78.187 0 0)
(52.8217 -13.3468 0 76.2729 0 0)
(56.792 -14.2417 0 74.3552 0 0)
(60.2532 -15.0478 0 72.4922 0 0)
(63.2071 -15.7372 0 70.6512 0 0)
(65.6808 -16.3249 0 68.8915 0 0)
(67.747 -16.7815 0 67.149 0 0)
(69.2586 -17.0308 0 65.3963 0 0)
(0.266254 -0.536522 0 66.9387 0 0)
(2.10309 -1.65027 0 68.3793 0 0)
(5.25866 -2.72968 0 66.3475 0 0)
(9.61218 -3.88212 0 65.5648 0 0)
(14.7384 -5.00127 0 64.6269 0 0)
(20.3584 -6.10301 0 63.5453 0 0)
(26.1998 -7.17931 0 62.3313 0 0)
(32.0396 -8.23207 0 61.046 0 0)
(37.6958 -9.24647 0 59.6873 0 0)
(43.0418 -10.22 0 58.3078 0 0)
(47.9798 -11.1336 0 56.8991 0 0)
(52.4591 -11.9847 0 55.5048 0 0)
(56.4444 -12.7538 0 54.1111 0 0)
(59.9376 -13.4428 0 52.7526 0 0)
(62.9416 -14.0319 0 51.4127 0 0)
(65.4843 -14.5307 0 50.1271 0 0)
(67.623 -14.9205 0 48.8576 0 0)
(69.2525 -15.1682 0 47.5767 0 0)
(0.268062 -0.462687 0 46.2933 0 0)
(2.10749 -1.41534 0 47.2321 0 0)
(5.24682 -2.36282 0 45.8314 0 0)
(9.5754 -3.37377 0 45.2934 0 0)
(14.67 -4.3545 0 44.6524 0 0)
(20.2554 -5.31439 0 43.9088 0 0)
(26.0622 -6.24845 0 43.0749 0 0)
(31.8697 -7.15497 0 42.1878 0 0)
(37.4992 -8.025 0 41.2525 0 0)
(42.8259 -8.85387 0 40.2995 0 0)
(47.7547 -9.62933 0 39.3298 0 0)
(52.2361 -10.3474 0 38.3673 0 0)
(56.2358 -10.9957 0 37.408 0 0)
(59.7551 -11.5736 0 36.4701 0 0)
(62.7971 -12.069 0 35.5471 0 0)
(65.3906 -12.4857 0 34.6581 0 0)
(67.5812 -12.8135 0 33.7834 0 0)
(69.2966 -13.0439 0 32.8974 0 0)
(0.269256 -0.38289 0 30.1605 0 0)
(2.11107 -1.16414 0 30.7448 0 0)
(5.24012 -1.95747 0 29.8346 0 0)
(9.55196 -2.80616 0 29.4875 0 0)
(14.6253 -3.62954 0 29.0755 0 0)
(20.1875 -4.4338 0 28.595 0 0)
(25.9712 -5.21517 0 28.056 0 0)
(31.7566 -5.97065 0 27.4805 0 0)
(37.3673 -6.69371 0 26.8745 0 0)
(42.6794 -7.37961 0 26.2563 0 0)
(47.5999 -8.01979 0 25.6284 0 0)
(52.0786 -8.61013 0 25.0041 0 0)
(56.0838 -9.14265 0 24.3832 0 0)
(59.6153 -9.61546 0 23.7747 0 0)
(62.6769 -10.021 0 23.1767 0 0)
(65.2962 -10.3596 0 22.5991 0 0)
(67.5138 -10.6268 0 22.0322 0 0)
(69.2822 -10.8243 0 21.4567 0 0)
(0.269569 -0.304461 0 18.2131 0 0)
(2.11284 -0.919361 0 18.5574 0 0)
(5.23475 -1.55344 0 18.0067 0 0)
(9.53257 -2.23613 0 17.8007 0 0)
(14.5869 -2.90007 0 17.5577 0 0)
(20.127 -3.54987 0 17.2733 0 0)
(25.8864 -4.18078 0 16.9531 0 0)
(31.6462 -4.78948 0 16.6102 0 0)
(37.2313 -5.36942 0 16.2486 0 0)
(42.5181 -5.91712 0 15.8786 0 0)
(47.4161 -6.42532 0 15.5021 0 0)
(51.8738 -6.89165 0 15.1271 0 0)
(55.8632 -7.30929 0 14.7536 0 0)
(59.3819 -7.67796 0 14.387 0 0)
(62.4383 -7.99185 0 14.0265 0 0)
(65.0549 -8.25154 0 13.6776 0 0)
(67.2757 -8.4562 0 13.3357 0 0)
(69.0716 -8.60657 0 12.9889 0 0)
(0.269196 -0.228174 0 9.88288 0 0)
(2.11057 -0.690941 0 10.0665 0 0)
(5.21753 -1.17815 0 9.76925 0 0)
(9.4891 -1.70771 0 9.66691 0 0)
(14.5132 -2.22196 0 9.54255 0 0)
(20.0199 -2.72223 0 9.39339 0 0)
(25.7424 -3.20419 0 9.22276 0 0)
(31.4643 -3.66534 0 9.03859 0 0)
(37.0102 -4.09995 0 8.84289 0 0)
(42.26 -4.50645 0 8.64194 0 0)
(47.122 -4.87925 0 8.43634 0 0)
(51.5497 -5.21852 0 8.23126 0 0)
(55.5138 -5.51843 0 8.02613 0 0)
(59.0163 -5.78122 0 7.82492 0 0)
(62.0645 -6.00077 0 7.62668 0 0)
(64.6803 -6.18062 0 7.4354 0 0)
(66.9048 -6.32373 0 7.24866 0 0)
(68.7342 -6.42577 0 7.06048 0 0)
(0.268079 -0.154726 0 4.48635 0 0)
(2.08372 -0.497625 0 4.58197 0 0)
(5.15625 -0.851973 0 4.45678 0 0)
(9.3883 -1.22822 0 4.42116 0 0)
(14.3869 -1.58515 0 4.37011 0 0)
(19.8681 -1.92735 0 4.30571 0 0)
(25.564 -2.2522 0 4.22841 0 0)
(31.26 -2.55745 0 4.14195 0 0)
(36.7829 -2.8415 0 4.04894 0 0)
(42.012 -3.10552 0 3.95314 0 0)
(46.8574 -3.34662 0 3.85535 0 0)
(51.2758 -3.56565 0 3.75827 0 0)
(55.2342 -3.75886 0 3.6614 0 0)
(58.7426 -3.92831 0 3.56744 0 0)
(61.7974 -4.06789 0 3.47479 0 0)
(64.432 -4.18293 0 3.38734 0 0)
(66.6537 -4.27342 0 3.3021 0 0)
(68.5112 -4.34346 0 3.21792 0 0)
(0.25517 -0.0881399 0 1.4211 0 0)
(2.06774 -0.313286 0 1.48682 0 0)
(5.20467 -0.525735 0 1.44677 0 0)
(9.49516 -0.734022 0 1.43362 0 0)
(14.5471 -0.924042 0 1.41352 0 0)
(20.0796 -1.10658 0 1.39026 0 0)
(25.8317 -1.28315 0 1.36362 0 0)
(31.5868 -1.45119 0 1.3343 0 0)
(37.1711 -1.60906 0 1.30332 0 0)
(42.4591 -1.75659 0 1.27171 0 0)
(47.364 -1.89227 0 1.2399 0 0)
(51.8346 -2.01611 0 1.2085 0 0)
(55.8427 -2.1261 0 1.17746 0 0)
(59.3908 -2.22288 0 1.1475 0 0)
(62.4788 -2.30238 0 1.11824 0 0)
(65.1447 -2.36859 0 1.09176 0 0)
(67.3661 -2.42119 0 1.06655 0 0)
(69.2156 -2.46067 0 1.0396 0 0)
(0.245861 -0.025316 0 0.141854 0 0)
(2.06557 -0.0977688 0 0.153636 0 0)
(5.18357 -0.165473 0 0.15085 0 0)
(9.44324 -0.230684 0 0.149682 0 0)
(14.4765 -0.293551 0 0.147381 0 0)
(19.9963 -0.353849 0 0.144653 0 0)
(25.7418 -0.412641 0 0.141655 0 0)
(31.4945 -0.469108 0 0.138525 0 0)
(37.086 -0.52243 0 0.135303 0 0)
(42.392 -0.572414 0 0.132052 0 0)
(47.3271 -0.618755 0 0.128795 0 0)
(51.8386 -0.661422 0 0.125594 0 0)
(55.9001 -0.699848 0 0.122452 0 0)
(59.5067 -0.733889 0 0.119428 0 0)
(62.665 -0.762806 0 0.116603 0 0)
(65.4076 -0.78805 0 0.114266 0 0)
(67.7191 -0.806262 0 0.112192 0 0)
(69.6461 -0.815572 0 0.111808 0 0)
(0.0244924 0.0357358 0 0.717785 0 0)
(0.267424 0.099004 0 0.678817 0 0)
(0.785965 0.180775 0 0.671632 0 0)
(1.53977 0.294876 0 0.662379 0 0)
(2.48701 0.423955 0 0.660772 0 0)
(3.60952 0.568835 0 0.657506 0 0)
(4.88539 0.715917 -2.38702e-19 0.65556 -6.49509e-20 1.48027e-37)
(6.31187 0.866835 2.42581e-19 0.651266 6.92735e-20 1.4849e-37)
(7.88224 1.01379 0 0.645259 0 0)
(9.59451 1.16123 2.44756e-19 0.637685 6.86925e-20 1.46272e-37)
(11.4435 1.3053 0 0.629099 0 0)
(13.423 1.44821 0 0.62 0 0)
(15.5267 1.58537 0 0.612039 0 0)
(17.7479 1.7171 -2.77002e-19 0.605571 -5.17542e-20 1.34892e-37)
(20.0808 1.84026 0 0.599358 0 0)
(22.5255 1.95385 0 0.594124 0 0)
(25.0823 2.05374 3.40141e-19 0.589817 3.90428e-20 1.22213e-37)
(27.7498 2.14158 0 0.585361 0 0)
(30.5229 2.22009 0 0.580703 0 0)
(33.3956 2.29156 0 0.576263 0 0)
(36.3522 2.35492 -4.56082e-19 0.572941 -1.95954e-20 1.01873e-37)
(39.3831 2.41079 0 0.569218 0 0)
(42.4746 2.45721 -5.15855e-19 0.566974 -1.0299e-20 9.26121e-38)
(45.6177 2.49413 0 0.568165 0 0)
(48.7962 2.52777 0 0.568886 0 0)
(51.996 2.55081 -6.03981e-19 0.571032 1.19303e-21 7.98436e-38)
(55.2102 2.55298 0 0.572882 0 0)
(58.4431 2.53548 6.57602e-19 0.571394 -6.9293e-21 7.22277e-38)
(61.6887 2.50433 0 0.563551 0 0)
(64.953 2.46136 -7.02384e-19 0.553125 1.05196e-20 6.54578e-38)
(68.2347 2.40928 0 0.539504 0 0)
(71.5211 2.35068 0 0.523638 0 0)
(74.8042 2.28545 0 0.50976 0 0)
(78.0853 2.20939 0 0.498476 0 0)
(81.3586 2.12203 0 0.486887 0 0)
(84.621 2.02656 7.79783e-19 0.475997 -1.40338e-20 4.60416e-38)
(87.8711 1.92275 0 0.464385 0 0)
(91.1096 1.81038 -1.5628e-18 0.448356 2.72188e-20 1.61533e-37)
(94.3351 1.69108 0 0.432758 0 0)
(97.5429 1.56364 1.55279e-18 0.418091 -2.62186e-20 1.4008e-37)
(100.726 1.4306 0 0.402916 0 0)
(103.884 1.28841 0 0.391242 0 0)
(107.006 1.13799 -1.51452e-18 0.378673 2.15472e-20 1.11317e-37)
(110.077 0.985308 0 0.365859 0 0)
(113.08 0.830571 -1.47569e-18 0.355073 1.82226e-20 9.43217e-38)
(116.002 0.672605 1.45317e-18 0.346248 -1.65151e-20 8.66239e-38)
(118.826 0.509 0 0.340104 0 0)
(121.544 0.339037 1.40238e-18 0.335336 -1.25001e-20 7.34441e-38)
(124.14 0.163178 1.37429e-18 0.331273 -1.06861e-20 6.80186e-38)
(126.615 -0.0148438 0 0.327835 0 0)
(128.953 -0.193669 0 0.325739 0 0)
(131.135 -0.376428 0 0.323232 0 0)
(133.14 -0.564132 0 0.321646 0 0)
(134.948 -0.754378 0 0.32291 0 0)
(136.536 -0.944426 -1.17352e-18 0.326934 -4.39683e-21 5.02011e-38)
(137.874 -1.13648 0 0.331507 0 0)
(138.951 -1.33348 1.07934e-18 0.335501 1.14712e-20 4.75183e-38)
(139.77 -1.53616 0 0.340613 0 0)
(140.323 -1.74436 0 0.34742 0 0)
(140.596 -1.94971 -9.11826e-19 0.356772 -2.25437e-20 4.75534e-38)
(140.581 -2.15335 0 0.368747 0 0)
(140.263 -2.35785 7.80574e-19 0.380756 3.12859e-20 4.97275e-38)
(139.649 -2.56124 0 0.391059 0 0)
(138.733 -2.76475 0 0.40386 0 0)
(137.526 -2.96755 0 0.418052 0 0)
(136.04 -3.16326 -4.82167e-19 0.432505 -4.76066e-20 6.03599e-38)
(134.279 -3.35245 0 0.447287 0 0)
(132.255 -3.53533 0 0.460426 0 0)
(129.982 -3.71093 -2.26422e-19 0.474134 -6.11826e-20 7.30486e-38)
(127.48 -3.88438 0 0.489253 0 0)
(124.785 -4.05063 -5.08693e-20 0.504457 -6.98168e-20 8.30313e-38)
(121.91 -4.20444 0 0.519924 0 0)
(118.871 -4.3461 0 0.535922 0 0)
(115.7 -4.4769 0 0.553059 0 0)
(112.418 -4.59833 -3.04709e-19 0.571197 8.31731e-20 1.04544e-37)
(109.045 -4.70761 0 0.589284 0 0)
(105.596 -4.80144 0 0.607236 0 0)
(102.083 -4.88017 -5.63992e-19 0.625315 9.02992e-20 1.2017e-37)
(98.5183 -4.94826 -6.45769e-19 0.644066 9.18361e-20 1.25283e-37)
(94.9301 -5.00531 0 0.66285 0 0)
(91.349 -5.05048 -7.98762e-19 0.682558 9.46079e-20 1.347e-37)
(87.7959 -5.08445 0 0.703759 0 0)
(84.2913 -5.10655 -1.87728e-18 0.725324 1.92538e-19 5.74409e-37)
(80.8495 -5.11577 0 0.747959 0 0)
(77.4883 -5.11048 -2.12238e-18 0.770527 1.93668e-19 6.07532e-37)
(74.226 -5.08889 0 0.793467 0 0)
(71.0767 -5.05425 2.32506e-18 0.819443 -1.93812e-19 6.36489e-37)
(68.0579 -5.00634 0 0.844494 0 0)
(65.1843 -4.93987 0 0.866813 0 0)
(62.4554 -4.85476 0 0.889531 0 0)
(59.8759 -4.7528 -2.58582e-18 0.91455 1.86173e-19 6.79785e-37)
(57.4514 -4.63651 0 0.939165 0 0)
(55.1907 -4.50404 2.64653e-18 0.963379 -1.79923e-19 6.94506e-37)
(53.0957 -4.355 0 0.987073 0 0)
(51.1551 -4.18373 -2.65857e-18 1.01061 1.7364e-19 7.03296e-37)
(49.3643 -3.99605 -2.64958e-18 1.03188 1.70437e-19 7.0678e-37)
(47.7108 -3.79565 -2.63087e-18 1.05307 1.66285e-19 7.09442e-37)
(46.1899 -3.58612 0 1.07545 0 0)
(44.7749 -3.36666 0 1.09858 0 0)
(43.4774 -3.13834 0 1.11816 0 0)
(42.2794 -2.90125 0 1.13797 0 0)
(41.1758 -2.66218 0 1.15774 0 0)
(40.1474 -2.42247 0 1.1768 0 0)
(39.1942 -2.1804 0 1.19191 0 0)
(38.2661 -1.93713 0 1.20789 0 0)
(37.3663 -1.70045 2.02611e-18 1.223 -1.31503e-19 7.07562e-37)
(36.4557 -1.47218 1.91189e-18 1.24028 -1.24217e-19 7.06819e-37)
(35.5629 -1.25324 0 1.25173 0 0)
(34.6486 -1.04273 0 1.26479 0 0)
(33.7274 -0.855985 0 1.27881 0 0)
(32.743 -0.679615 1.35529e-18 1.29187 -1.04858e-19 6.90889e-37)
(31.7993 -0.529818 0 1.29924 0 0)
(30.7893 -0.387808 0 1.30906 0 0)
(29.8334 -0.285447 0 1.31924 0 0)
(28.9095 -0.202432 0 1.33233 0 0)
(28.0837 -0.152266 -4.40647e-19 1.34071 7.56391e-20 6.6608e-37)
(27.3887 -0.125961 0 1.34985 0 0)
(26.8528 -0.134437 0 1.36329 0 0)
(26.5602 -0.176414 -2.23005e-19 1.3709 -6.50949e-20 6.42348e-37)
(26.5092 -0.244999 4.50589e-19 1.38396 6.10201e-20 6.29901e-37)
(26.7562 -0.354694 0 1.40092 0 0)
(27.3543 -0.511013 9.13205e-19 1.41817 6.01172e-20 6.05251e-37)
(28.3681 -0.707444 0 1.43734 0 0)
(29.8599 -0.959411 -1.35423e-18 1.45503 -6.46453e-20 5.7562e-37)
(31.8508 -1.24524 0 1.47778 0 0)
(34.4149 -1.58097 0 1.50479 0 0)
(37.4511 -1.95887 0 1.53751 0 0)
(41.0697 -2.38733 0 1.57178 0 0)
(45.123 -2.8419 0 1.60984 0 0)
(49.6174 -3.34317 4.89701e-18 1.65203 2.04767e-19 1.97171e-36)
(54.4861 -3.88829 5.15167e-18 1.69815 2.30681e-19 1.93687e-36)
(59.7533 -4.46952 0 1.7462 0 0)
(65.2108 -5.07045 0 1.80218 0 0)
(70.8329 -5.69794 0 1.85736 0 0)
(76.4555 -6.30972 -5.69248e-18 1.9183 -3.52245e-19 1.91711e-36)
(81.8644 -6.92458 0 1.98942 0 0)
(87.0113 -7.54534 0 2.06164 0 0)
(91.8439 -8.15981 0 2.13813 0 0)
(96.2851 -8.75284 -5.33208e-18 2.21641 -5.33433e-19 2.07152e-36)
(100.317 -9.31965 5.09782e-18 2.29984 5.82143e-19 2.13293e-36)
(103.726 -9.84185 0 2.39062 0 0)
(106.637 -10.3522 0 2.48348 0 0)
(109.01 -10.806 4.07967e-18 2.57803 7.35179e-19 2.36523e-36)
(110.85 -11.2254 3.65051e-18 2.67141 7.8412e-19 2.45048e-36)
(112.005 -11.5704 0 2.77177 0 0)
(112.582 -11.886 0 2.87168 0 0)
(112.466 -12.1286 -2.05295e-18 2.97569 -9.45644e-19 2.71866e-36)
(111.791 -12.3533 1.423e-18 3.0707 9.89224e-19 2.79741e-36)
(110.601 -12.5075 0 3.16752 0 0)
(108.695 -12.6077 0 3.26819 0 0)
(106.195 -12.6415 -5.21911e-19 3.35909 1.11712e-18 3.06806e-36)
(103.062 -12.6212 0 3.4496 0 0)
(99.5811 -12.5636 0 3.5332 0 0)
(95.5917 -12.4146 -2.54908e-18 3.60568 1.20612e-18 3.30052e-36)
(91.291 -12.1941 0 3.67766 0 0)
(86.6674 -11.8624 -3.83291e-18 3.73918 1.2571e-18 3.44339e-36)
(81.7784 -11.4457 0 3.79492 0 0)
(76.6694 -10.9109 0 3.83404 0 0)
(71.7241 -10.2777 0 3.85814 0 0)
(66.8357 -9.47949 5.87294e-18 3.87689 -1.27773e-18 3.68181e-36)
(62.1686 -8.56164 0 3.88046 0 0)
(57.94 -7.4917 0 3.86832 0 0)
(54.474 -6.30205 0 3.84049 0 0)
(51.6077 -4.92369 0 3.79854 0 0)
(49.5124 -3.46433 0 3.74789 0 0)
(48.7857 -1.90942 0 3.67584 0 0)
(49.6179 -0.285412 6.02084e-18 3.58619 -1.10428e-18 3.72786e-36)
(51.6768 1.42806 5.60489e-18 3.48792 -1.05019e-18 3.70999e-36)
(55.3801 3.12053 0 3.37651 0 0)
(60.6399 4.74759 0 3.25862 0 0)
(67.4519 6.32821 0 3.12919 0 0)
(75.3925 7.80211 -3.0524e-18 2.99951 7.9531e-19 3.38427e-36)
(84.5264 9.10384 0 2.87127 0 0)
(94.0935 10.2921 2.94813e-18 2.73624 -1.35078e-18 1.23654e-35)
(103.992 11.2496 -1.30972e-18 2.60553 1.21804e-18 1.16643e-35)
(113.64 12.0403 3.18539e-19 2.47427 1.10545e-18 1.10216e-35)
(123.305 12.6912 -2.02158e-18 2.3495 -1.01464e-18 1.03364e-35)
(131.434 13.2322 3.67482e-18 2.23049 9.23259e-19 9.76202e-36)
(139.317 13.7095 -5.27915e-18 2.12319 -9.03955e-19 8.99675e-36)
(143.07 14.4022 0 2.06723 0 0)
(0.0183147 0.174234 0 6.09981 0 0)
(0.20277 0.387795 0 6.03828 0 0)
(0.629636 0.609588 1.31903e-19 5.86518 1.75322e-19 6.76454e-37)
(1.32734 0.854058 0 5.74392 0 0)
(2.26961 1.13331 -1.92283e-19 5.68388 -3.53807e-19 9.19961e-37)
(3.44599 1.43797 -1.83477e-19 5.65664 -4.42217e-19 9.73482e-37)
(4.83548 1.7624 -8.01685e-20 5.64124 -2.51975e-19 2.49245e-37)
(6.42382 2.10269 -6.81698e-20 5.62322 -2.70933e-19 2.61477e-37)
(8.20308 2.4517 0 5.59487 0 0)
(10.1713 2.8049 -4.10252e-20 5.55227 -2.69663e-19 2.59562e-37)
(12.3296 3.15347 0 5.50041 0 0)
(14.6763 3.49501 0 5.44082 0 0)
(17.2029 3.82434 9.24314e-20 5.37254 4.24267e-19 9.51545e-37)
(19.9101 4.14102 6.84629e-20 5.30062 1.87048e-19 2.3423e-37)
(22.7873 4.43549 -1.83555e-19 5.22534 -3.26384e-19 8.94008e-37)
(25.8284 4.70771 -2.50026e-19 5.14702 -2.81221e-19 8.66262e-37)
(29.0219 4.95907 -1.70491e-19 5.06257 -1.18383e-19 2.12832e-37)
(32.3616 5.191 0 4.97178 0 0)
(35.8357 5.40185 0 4.87604 0 0)
(39.4356 5.59615 0 4.7733 0 0)
(43.1379 5.77315 -3.86577e-19 4.6683 -3.64881e-20 1.80487e-37)
(46.9336 5.9302 0 4.56371 0 0)
(50.7998 6.05881 1.60953e-18 4.4571 -1.68577e-20 1.55268e-36)
(54.7241 6.16254 0 4.35405 0 0)
(58.69 6.24296 0 4.24882 0 0)
(62.6802 6.30016 7.75299e-19 4.14464 -5.78718e-20 1.56609e-37)
(66.6673 6.33081 0 4.03871 0 0)
(70.6326 6.34423 -9.33666e-19 3.93814 8.19761e-20 1.46114e-37)
(74.5424 6.33417 -1.99516e-18 3.83816 1.81906e-19 5.57574e-37)
(78.3868 6.29554 1.07793e-18 3.73528 -9.89217e-20 1.36745e-37)
(82.1619 6.22542 0 3.62722 0 0)
(85.8678 6.1275 0 3.52161 0 0)
(89.4909 6.00459 0 3.41803 0 0)
(93.0354 5.8579 -2.57867e-18 3.30993 2.23063e-19 4.71889e-37)
(96.4929 5.68199 -2.65696e-18 3.20286 2.20549e-19 4.55717e-37)
(99.876 5.47668 -1.37462e-18 3.10229 1.07685e-19 1.10879e-37)
(103.193 5.2398 0 3.01028 0 0)
(106.437 4.9667 2.83991e-18 2.92202 -2.03064e-19 4.13181e-37)
(109.617 4.65572 0 2.83678 0 0)
(112.726 4.31614 -2.87623e-18 2.75515 1.88285e-19 3.81755e-37)
(115.772 3.94878 0 2.67472 0 0)
(118.75 3.56174 0 2.60246 0 0)
(121.667 3.15868 2.82852e-18 2.53137 -1.53725e-19 3.31762e-37)
(124.509 2.73663 0 2.46604 0 0)
(127.257 2.2885 8.1613e-18 2.40832 -3.92283e-19 2.68468e-36)
(129.91 1.81004 -2.68898e-18 2.36331 1.19015e-19 2.8368e-37)
(132.472 1.30691 0 2.3358 0 0)
(134.958 0.77846 -2.54905e-18 2.31976 9.10485e-20 2.51809e-37)
(137.354 0.217534 -2.4684e-18 2.31375 7.68517e-20 2.3622e-37)
(139.655 -0.36872 0 2.31626 0 0)
(141.838 -0.964901 0 2.32893 0 0)
(143.888 -1.55924 0 2.34259 0 0)
(145.79 -2.14514 0 2.35615 0 0)
(147.507 -2.72401 0 2.3801 0 0)
(149.023 -3.30306 1.88366e-18 2.41288 1.45995e-20 1.72313e-37)
(150.317 -3.89118 3.45165e-18 2.45582 7.12468e-20 6.56767e-37)
(151.373 -4.48261 -1.64471e-18 2.50642 -5.58798e-20 1.60324e-37)
(152.2 -5.09213 0 2.56222 0 0)
(152.772 -5.70271 2.6883e-18 2.62535 1.89905e-19 6.02282e-37)
(153.059 -6.29227 -1.1708e-18 2.69364 -1.13064e-19 1.47064e-37)
(153.09 -6.8766 0 2.77071 0 0)
(152.813 -7.45493 -9.79226e-19 2.86091 -1.48399e-19 1.49674e-37)
(152.241 -8.01159 0 2.9544 0 0)
(151.366 -8.55906 0 3.0558 0 0)
(150.186 -9.08844 -1.04966e-18 3.16196 -3.96603e-19 6.26102e-37)
(148.686 -9.58912 4.23562e-19 3.27279 2.15126e-19 1.63884e-37)
(146.907 -10.0823 -4.90798e-19 3.39304 -4.62075e-19 6.68962e-37)
(144.842 -10.5542 2.13403e-19 3.51745 4.89057e-19 6.92757e-37)
(142.517 -11.0019 1.06534e-20 3.64298 2.54465e-19 1.82835e-37)