/*--------------------------------*- C++ -*----------------------------------*\
| =========                 |                                                 |
| \\      /  F ield         | OpenFOAM: The Open Source CFD Toolbox           |
|  \\    /   O peration     | Version:  dev                                   |
|   \\  /    A nd           | Web:      http://www.openfoam.org               |
|    \\/     M anipulation  |                                                 |
\*---------------------------------------------------------------------------*/
FoamFile
{
    version     2.0;
    format      ascii;
    class       volScalarField;
    object      k;
    location    "9.15";
}
// * * * * * * * * * * * * * * * * * * * * * * * * * * * * * * * * * * * * * //

dimensions      [0 2 -2 0 0 0 0];

internalField   nonuniform List<scalar> 
12225
(
8.23259
8.31586
5.27482
4.93994
4.2113
4.95549
5.35174
5.87381
7.37519
7.109
9.87818
8.40911
12.2283
9.47059
13.6258
9.77487
13.0981
16.643
2.24836
5.91127
5.11694
5.94331
4.46828
5.74585
4.21513
5.91205
4.61659
6.18595
5.45192
6.23196
6.48516
6.09371
7.62315
6.03735
15.3803
19.4867
0.250298
1.88627
2.17933
3.27907
2.77997
3.59809
2.90762
3.55205
3.16031
3.15728
3.68075
2.71905
4.09371
2.37848
4.44107
2.62705
10.7181
17.4371
0.0236304
0.377857
0.561864
0.887221
1.10645
1.24738
1.53672
1.47248
2.0149
1.4939
2.307
1.34107
2.1329
1.14069
2.18976
1.26968
4.6785
9.82661
0.0038444
0.0672057
0.141899
0.221437
0.373806
0.429948
0.619566
0.599433
0.85151
0.641992
0.957084
0.598792
0.94171
0.552648
1.01201
0.677565
1.83223
2.87484
0.00389924
0.0221076
0.0419205
0.0606936
0.113365
0.12748
0.210716
0.194134
0.322126
0.235304
0.380321
0.250659
0.395245
0.262361
0.457954
0.330838
0.77685
0.845577
0.00528855
0.00782064
0.0154603
0.0181521
0.0353017
0.0376198
0.0708363
0.0639449
0.119452
0.0922108
0.152022
0.111407
0.165474
0.134783
0.212436
0.179542
0.339512
0.32807
0.00524216
0.00643335
0.00930658
0.0105843
0.0169265
0.0185972
0.0316098
0.0323656
0.0552043
0.0524675
0.0764807
0.0702839
0.0894089
0.0866793
0.113797
0.11333
0.165373
0.167881
0.0066086
0.00731808
0.00895599
0.0104169
0.013921
0.0165875
0.022245
0.0263361
0.0376651
0.0439547
0.0561325
0.0639008
0.0700863
0.0754608
0.0841343
0.0875037
0.108031
0.112744
0.0102815
0.0110002
0.0105741
0.0126551
0.0146867
0.0192984
0.0223678
0.0295643
0.0364679
0.0484293
0.0560433
0.0677113
0.0700948
0.0759611
0.0805071
0.084553
0.0936156
0.0997484
0.0197516
0.0188544
0.017067
0.0203215
0.0210409
0.0291896
0.0307552
0.0439669
0.047036
0.0655918
0.0695286
0.084402
0.0840759
0.0876043
0.0891822
0.0927231
0.0979718
0.104154
0.0379205
0.0372245
0.0336764
0.0384242
0.0397853
0.0544175
0.058884
0.0802949
0.0853622
0.111269
0.118103
0.135358
0.135595
0.135653
0.133624
0.13342
0.134711
0.140276
0.0872084
0.0804292
0.0762296
0.0817774
0.086507
0.105153
0.115386
0.14751
0.166372
0.193003
0.203723
0.213468
0.214331
0.213542
0.212442
0.211367
0.212125
0.214271
0.163517
0.146835
0.141667
0.143974
0.149295
0.17393
0.198539
0.231917
0.25773
0.282744
0.297308
0.304972
0.309561
0.311928
0.314903
0.316745
0.317428
0.315924
0.288634
0.260605
0.250572
0.2499
0.256561
0.294947
0.355514
0.406684
0.441536
0.464012
0.474719
0.478865
0.479447
0.477857
0.473525
0.466052
0.451427
0.440639
0.496406
0.43219
0.404053
0.391566
0.39444
0.42308
0.482215
0.52789
0.557945
0.574302
0.58079
0.58187
0.580542
0.577004
0.56662
0.551164
0.526718
0.510064
0.616
0.521314
0.475955
0.456392
0.457477
0.482043
0.537873
0.580105
0.606751
0.619641
0.62398
0.62383
0.622159
0.618119
0.604602
0.585796
0.557531
0.53804
0.634085
0.532038
0.48299
0.464548
0.466187
0.49254
0.547717
0.58868
0.614287
0.626227
0.629886
0.629481
0.627745
0.623512
0.609176
0.589675
0.560745
0.540473
0.554227
0.476686
0.444237
0.43389
0.438121
0.469539
0.524091
0.565506
0.592177
0.605327
0.609403
0.609028
0.607284
0.602963
0.588881
0.570384
0.542015
0.521874
0.367172
0.320671
0.315748
0.31777
0.329608
0.371547
0.427782
0.475483
0.508878
0.527931
0.5352
0.536071
0.534764
0.531416
0.520684
0.506709
0.482589
0.4645
0.227576
0.199776
0.192381
0.190908
0.19457
0.214615
0.257287
0.296345
0.327045
0.34898
0.360746
0.364512
0.36501
0.364388
0.362449
0.358757
0.349538
0.336703
0.126824
0.116589
0.115785
0.116642
0.120016
0.131189
0.153798
0.179573
0.203917
0.221434
0.229731
0.232069
0.232019
0.230821
0.226951
0.223168
0.216675
0.210902
0.0651668
0.062911
0.0627069
0.0622665
0.062559
0.0666371
0.0790116
0.0959407
0.112169
0.125996
0.136058
0.14378
0.150057
0.155509
0.159112
0.161413
0.161881
0.161437
0.0305251
0.0317289
0.0314476
0.0317737
0.0344667
0.0399137
0.051628
0.0666149
0.0813127
0.0950144
0.106855
0.117905
0.127795
0.137015
0.144234
0.149887
0.153423
0.155564
0.0123381
0.0129536
0.0165192
0.0224577
0.0317863
0.0417107
0.0563295
0.0733291
0.0895208
0.105088
0.119513
0.134185
0.148393
0.161887
0.172469
0.180935
0.185775
0.188907
0.00248041
0.00705047
0.0181109
0.0418775
0.075883
0.106507
0.136755
0.164831
0.189653
0.21352
0.236189
0.260324
0.28577
0.308818
0.326627
0.339313
0.34562
0.347441
0.00210425
0.0267529
0.100561
0.235004
0.364397
0.458814
0.525494
0.572676
0.61525
0.656423
0.694258
0.730632
0.767319
0.79501
0.809662
0.814997
0.812445
0.805335
0.0259988
0.3371
0.904037
1.29504
1.56832
1.72809
1.80711
1.84817
1.88752
1.91751
1.92989
1.93196
1.92158
1.8913
1.84441
1.79578
1.73224
1.6832
0.574205
3.31961
4.63256
4.85567
4.74332
4.46902
4.1905
3.95908
3.74943
3.56258
3.4014
3.24337
3.08103
2.92702
2.78908
2.65408
2.53259
2.38456
6.60259
9.51393
8.17634
6.32615
5.1769
4.68153
4.52083
4.52061
4.58103
4.66847
4.76142
4.84933
4.92261
4.97847
5.01805
5.04078
5.0251
4.81129
0.113607
0.171962
0.17853
0.178644
0.178165
0.179599
0.186691
0.200207
0.215612
0.231435
0.246214
0.260794
0.275762
0.293289
0.314914
0.338243
0.361902
0.386026
0.411412
0.438772
0.468776
0.502812
0.537831
0.574354
0.614171
0.659655
0.709683
0.763964
0.823956
0.89594
0.977805
1.0713
1.17227
1.28402
1.40702
1.56456
1.73699
1.91272
2.12601
2.35738
2.58598
2.83357
3.08487
3.28409
3.56697
3.74791
3.67232
3.33558
3.19703
3.21956
3.21798
3.16817
3.07373
3.0772
3.18511
3.36601
3.50079
3.57164
3.59971
3.57627
3.4712
3.34608
3.36118
3.47482
3.75825
4.12249
4.59593
5.43143
6.10425
7.06501
7.73804
7.6718
7.28571
6.40757
5.31175
4.73842
4.60969
4.61895
4.72886
4.76519
4.80241
5.02443
5.61731
6.20361
6.66166
6.95703
7.10494
7.13053
7.02669
6.86574
6.74453
6.62584
6.40057
6.09356
5.68316
5.23547
4.8626
4.57583
4.29586
4.00373
3.53431
3.35881
3.07191
2.76769
2.62791
2.38066
2.25655
2.12385
2.05207
2.01133
1.9978
2.03497
2.09857
2.19699
2.35653
2.51079
2.58907
2.62773
2.76249
3.13133
3.41624
3.51771
3.58805
3.67761
3.73705
3.7559
3.79726
3.8946
3.92561
3.96288
4.00349
4.11404
4.19901
4.3531
4.52812
4.82975
5.40217
6.16207
7.04238
7.40182
7.94002
8.55117
9.10942
9.61503
9.69213
9.87169
10.1885
10.4403
10.7418
11.081
11.1053
11.2394
12.4319
13.2257
13.9529
14.4225
14.237
13.6047
13.1466
12.8907
11.7226
10.3341
8.54568
7.2272
6.693
6.25945
5.97676
6.24831
6.93021
8.19499
10.3051
10.3212
9.89646
8.56913
7.57579
7.85423
8.371
9.68342
13.3629
16.7358
0.212736
0.168722
0.150902
0.126129
0.113733
0.108941
0.108434
0.110716
0.113857
0.11653
0.119609
0.123183
0.126716
0.131108
0.137341
0.143922
0.150008
0.155484
0.161045
0.167231
0.174649
0.184399
0.192442
0.198622
0.203012
0.20883
0.214777
0.220605
0.225522
0.231715
0.238097
0.245409
0.252735
0.259008
0.263426
0.273965
0.289339
0.299888
0.324647
0.352506
0.384212
0.46646
0.538425
0.710848
0.873222
1.13547
1.51937
1.73966
1.78943
1.91472
1.94618
1.82085
1.44687
1.22952
1.1293
1.0979
1.10398
1.11286
1.0921
1.00313
0.770437
0.625725
0.589355
0.602976
0.637017
0.670388
0.702245
0.774265
0.858476
1.03617
1.47731
2.31454
3.01512
3.19194
2.9457
2.37632
2.30256
2.50977
3.51404
4.16719
4.36796
4.48118
4.44
4.09962
3.6746
3.2077
2.76813
2.42524
2.17029
2.01494
1.87846
1.76059
1.5798
1.42657
1.29423
1.23221
1.20273
1.17311
1.11338
1.03522
0.988014
0.978158
0.932464
0.922085
0.927794
0.912225
0.925897
0.933408
0.947952
0.950346
0.961647
1.01986
1.05691
1.10143
1.20316
1.32721
1.40145
1.40044
1.39431
1.45277
1.64595
1.77238
1.83008
1.90194
1.95501
1.97253
1.99753
2.09152
2.16709
2.17979
2.18434
2.22418
2.37574
2.48141
2.58917
2.64885
2.81219
3.02021
3.51034
3.87286
3.93461
4.03339
4.2653
4.69925
4.96508
5.0568
5.38521
5.82039
6.24771
6.47608
6.13975
5.38145
5.62653
6.76251
7.36703
8.47579
8.36501
7.78698
7.55039
8.08734
8.12775
7.4609
5.96855
4.88926
4.57917
4.46694
4.64607
4.98078
5.46847
6.00015
7.29509
8.06001
8.13298
7.45185
6.26327
6.05449
6.34125
6.81157
7.89578
10.7461
0.440678
0.175294
0.133835
0.113017
0.096819
0.0878217
0.0855705
0.0857014
0.0865369
0.0888964
0.0937014
0.0998933
0.104764
0.108751
0.115236
0.124084
0.132123
0.139168
0.145185
0.150289
0.155893
0.163074
0.168515
0.170845
0.172199
0.175165
0.180083
0.186351
0.190186
0.192187
0.194208
0.19901
0.205827
0.213748
0.222539
0.229752
0.236601
0.240726
0.242075
0.242053
0.24355
0.24546
0.249189
0.259303
0.279998
0.328501
0.398077
0.562521
0.642144
0.758523
0.878224
1.02416
1.14546
1.15722
1.14349
1.04684
0.838816
0.663012
0.523441
0.427846
0.374691
0.370402
0.400176
0.485912
0.537356
0.561481
0.598067
0.636682
0.649555
0.654197
0.687
0.80029
1.14221
1.38725
1.6227
2.34489
3.19212
3.39344
3.47738
3.30611
2.88537
2.39549
1.98153
1.65261
1.30303
1.05165
0.870696
0.771072
0.715761
0.682967
0.653504
0.623342
0.575013
0.539597
0.528305
0.529303
0.541825
0.54742
0.544137
0.536145
0.52161
0.511653
0.501213
0.502902
0.521827
0.522918
0.548015
0.575968
0.581852
0.570058
0.57308
0.604456
0.620421
0.620869
0.642615
0.731499
0.810442
0.807231
0.781471
0.789254
0.839113
0.928916
0.968051
1.01814
1.06545
1.09103
1.11262
1.1849
1.26165
1.29745
1.36582
1.53912
1.74979
1.85286
1.8606
1.84231
1.8738
2.0583
2.19628
2.35691
2.40777
2.54467
2.71834
2.95636
3.10729
3.13538
3.28682
3.70823
4.28836
4.37462
3.9169
3.23542
3.23183
3.70121
4.09523
5.01426
5.23198
5.03966
4.75192
5.16738
5.72748
5.68501
4.94542
4.17316
4.13416
4.00487
3.96759
4.07626
4.20507
4.69212
5.26822
5.54001
5.68454
5.58687
4.94717
4.91413
5.85265
5.51128
6.58709
6.89019
0.932639
0.221369
0.137662
0.117947
0.103763
0.0902712
0.0852421
0.0851608
0.0862083
0.0917615
0.102561
0.115087
0.125835
0.1302
0.134577
0.139536
0.143733
0.147937
0.149641
0.150001
0.149849
0.148342
0.144145
0.141706
0.141329
0.141677
0.14307
0.14572
0.150392
0.158803
0.172947
0.186078
0.192827
0.201179
0.213602
0.224478
0.232022
0.234373
0.239955
0.243973
0.243479
0.243977
0.245365
0.244349
0.24359
0.245823
0.251184
0.275588
0.303664
0.329209
0.400983
0.451744
0.529562
0.686249
0.869919
0.947383
0.943769
0.865589
0.617219
0.440606
0.379617
0.376816
0.426575
0.520766
0.572707
0.611014
0.656771
0.701664
0.713254
0.70894
0.709973
0.751296
0.916114
1.3042
2.35898
3.13539
3.14324
2.8454
2.24718
1.82403
1.44041
1.1386
0.916845
0.735542
0.580399
0.477051
0.421558
0.3956
0.383086
0.376998
0.373488
0.367858
0.355819
0.348275
0.346656
0.355325
0.374626
0.383893
0.387242
0.400067
0.400203
0.405795
0.388356
0.384823
0.394435
0.398458
0.418563
0.449828
0.475375
0.458743
0.447904
0.464676
0.486757
0.48603
0.478166
0.501059
0.613923
0.634599
0.612882
0.601925
0.617365
0.666766
0.696432
0.722769
0.758202
0.786175
0.800417
0.834404
0.921662
0.966515
1.0251
1.28076
1.54652
1.61538
1.6213
1.6039
1.59773
1.71003
1.92234
1.9224
1.9138
2.07861
2.26413
2.35879
2.39962
2.45048
2.56917
2.78955
3.27059
3.42892
3.12702
2.65892
2.57133
2.65848
2.91236
3.4672
3.7845
3.73899
3.6196
3.80845
4.36603
4.62848
4.35652
3.79034
3.78486
3.51201
3.53364
3.73417
3.64962
3.8135
4.59002
4.68502
4.73634
4.72203
4.33588
4.69508
5.50109
5.14627
6.82592
6.08006
1.45857
0.339214
0.147329
0.132216
0.126597
0.105144
0.0907784
0.0902714
0.0939952
0.11435
0.137417
0.146551
0.149677
0.14659
0.140421
0.139565
0.13956
0.136351
0.132347
0.128911
0.124488
0.119002
0.115273
0.114185
0.114125
0.115
0.117561
0.121565
0.126703
0.13248
0.139241
0.147783
0.156583
0.165932
0.174027
0.18408
0.196859
0.208206
0.218121
0.225096
0.233749
0.24287
0.245383
0.247876
0.254479
0.254939
0.2524
0.253684
0.257256
0.258569
0.268368
0.282861
0.307086
0.339225
0.397741
0.571027
0.73329
0.773102
0.752707
0.604579
0.47815
0.466981
0.54476
0.64005
0.674541
0.702383
0.765031
0.834842
0.879335
0.906853
0.929621
1.00016
1.29869
2.08209
2.64348
2.77672
2.27729
1.66245
1.2191
0.943193
0.747506
0.610678
0.507316
0.419375
0.354592
0.308332
0.288271
0.279559
0.27609
0.275813
0.279356
0.280581
0.279082
0.277296
0.278081
0.286058
0.305608
0.312552
0.313043
0.324803
0.337785
0.367172
0.344595
0.337351
0.335462
0.339445
0.350801
0.367849
0.418779
0.410389
0.388941
0.391869
0.406206
0.430412
0.418688
0.408929
0.43135
0.548864
0.5476
0.530471
0.533297
0.560444
0.591836
0.6021
0.628124
0.668926
0.679292
0.693035
0.754954
0.830309
0.880945
1.05226
1.31051
1.4614
1.53697
1.56635
1.56312
1.57444
1.78524
1.85447
1.79284
1.83756
2.02281
2.10055
2.10746
2.17751
2.32645
2.55623
2.79847
2.90957
2.7311
2.45195
2.40737
2.40353
2.51043
2.75765
3.04512
3.14093
3.25176
3.3415
3.6255
3.88747
3.83204
3.54607
3.51043
3.28948
3.31253
3.58764
3.60183
3.41496
3.74614
4.24712
4.30746
4.32124
4.07298
4.64784
4.88267
5.32736
5.24077
6.23112
2.0023
0.495103
0.162656
0.136294
0.139095
0.121626
0.103944
0.101478
0.116662
0.159089
0.168448
0.149256
0.144027
0.143684
0.136783
0.131325
0.12886
0.125564
0.120715
0.117987
0.11422
0.109313
0.105229
0.103932
0.103663
0.103782
0.105026
0.107974
0.112413
0.117743
0.12384
0.131202
0.139025
0.147643
0.155058
0.164153
0.172126
0.179801
0.189393
0.197939
0.207131
0.217983
0.227835
0.236646
0.243638
0.245484
0.249188
0.254304
0.257992
0.257123
0.256427
0.258582
0.259362
0.260848
0.271216
0.302947
0.381294
0.551662
0.639763
0.644394
0.603295
0.58212
0.615322
0.697804
0.748799
0.803933
0.889208
0.966413
1.02604
1.09873
1.21249
1.40705
1.74175
2.12551
2.21252
1.75005
1.25305
0.945568
0.687233
0.532345
0.450985
0.393101
0.343398
0.299384
0.266812
0.242689
0.233514
0.23016
0.229203
0.231297
0.238237
0.243869
0.24602
0.246091
0.248494
0.253272
0.268479
0.280458
0.280221
0.28378
0.296294
0.315339
0.305962
0.302561
0.297484
0.296188
0.291566
0.272674
0.312025
0.343774
0.334955
0.342454
0.337544
0.336379
0.358203
0.349133
0.352065
0.38462
0.440314
0.432809
0.434198
0.457154
0.502187
0.518301
0.556571
0.610997
0.626631
0.633266
0.651554
0.742441
0.830534
0.928067
1.03037
1.11889
1.34795
1.47865
1.4456
1.42809
1.59293
1.79218
1.76607
1.75384
1.79693
1.80174
1.815
1.94596
2.16125
2.37392
2.6367
2.64801
2.47052
2.33483
2.34135
2.30853
2.34376
2.45344
2.60436
2.8616
3.12245
3.19051
3.30934
3.51099
3.46074
3.50855
3.52723
3.33369
2.9982
3.19908
3.57843
3.31768
3.13269
3.72153
4.05506
4.08589
3.92001
4.40542
4.73936
5.02927
4.00004
5.34877
2.55486
0.694449
0.206118
0.151053
0.151854
0.127482
0.125183
0.137964
0.157191
0.169849
0.168186
0.148743
0.139163
0.136795
0.134723
0.129344
0.127365
0.125161
0.121664
0.118306
0.114724
0.109423
0.104074
0.101888
0.101287
0.101352
0.102348
0.10469
0.108027
0.112455
0.117923
0.124772
0.132665
0.141152
0.148985
0.157898
0.165221
0.17239
0.180647
0.18714
0.192825
0.197299
0.202192
0.206063
0.213402
0.223788
0.234919
0.239423
0.248899
0.255226
0.257966
0.262342
0.263029
0.259464
0.258371
0.262626
0.277615
0.313573
0.423132
0.52758
0.55891
0.579184
0.621015
0.730553
0.831633
0.913533
0.991369
1.05804
1.11412
1.18284
1.30879
1.45272
1.66103
1.66489
1.34534
1.01594
0.743426
0.569468
0.441847
0.36446
0.327671
0.298876
0.270829
0.243781
0.221128
0.210427
0.20613
0.204386
0.204142
0.207736
0.214427
0.223904
0.229535
0.231206
0.234955
0.239794
0.246839
0.258584
0.263542
0.267655
0.28372
0.287911
0.279124
0.271904
0.261001
0.251281
0.246533
0.221614
0.226336
0.260601
0.250012
0.269873
0.293927
0.280048
0.27989
0.292498
0.297313
0.302592
0.337417
0.33933
0.349361
0.368721
0.395786
0.416045
0.462581
0.526923
0.559658
0.573545
0.598483
0.682581
0.830056
0.89175
0.902292
0.935754
1.12957
1.32028
1.28348
1.26887
1.29996
1.62055
1.75796
1.69631
1.61693
1.61442
1.68578
1.8779
2.01243
2.07784
2.3511
2.44721
2.36516
2.30029
2.29023
2.22975
2.24298
2.33519
2.39242
2.70013
2.89202
2.95996
3.07315
3.30124
3.27621
3.75073
3.82443
3.59764
2.93106
2.75779
3.10143
3.0494
2.74156
3.20226
3.84423
3.90648
3.77241
4.1405
4.70881
4.01149
3.61503
4.92929
3.14304
0.757613
0.213361
0.148934
0.154861
0.134964
0.138662
0.173789
0.178016
0.161903
0.15523
0.149445
0.140801
0.138069
0.137715
0.134321
0.133526
0.13399
0.132899
0.130858
0.127784
0.121507
0.113606
0.10737
0.103981
0.103011
0.103109
0.10441
0.106963
0.111306
0.116457
0.123189
0.131448
0.140074
0.148643
0.157941
0.166075
0.174181
0.18298
0.19042
0.194688
0.196928
0.199353
0.200609
0.202395
0.206789
0.211789
0.217622
0.230039
0.243912
0.252409
0.255855
0.264931
0.267613
0.265929
0.267694
0.273462
0.284679
0.303031
0.353667
0.437629
0.502959
0.592999
0.755064
0.862461
0.94702
1.02836
1.09017
1.14356
1.18502
1.24814
1.27334
1.21392
1.03376
0.82157
0.637495
0.506974
0.40025
0.336642
0.295152
0.269563
0.246351
0.224223
0.204977
0.189046
0.182701
0.179559
0.178014
0.178171
0.184072
0.190483
0.194617
0.204648
0.21572
0.223732
0.235823
0.23858
0.240371
0.249073
0.257336
0.277473
0.275516
0.268349
0.246416
0.23714
0.218713
0.225634
0.206933
0.20139
0.223179
0.218101
0.219716
0.254997
0.251738
0.245606
0.265783
0.265149
0.270544
0.289887
0.298667
0.303094
0.313743
0.335154
0.357896
0.385043
0.453889
0.493718
0.542318
0.572126
0.648627
0.803364
0.880931
0.862673
0.903471
1.06964
1.1574
1.16368
1.20965
1.23436
1.3805
1.71096
1.6803
1.57928
1.58096
1.68751
1.84677
1.94011
1.93605
2.09556
2.29193
2.24742
2.19832
2.17158
2.10095
2.15709
2.29573
2.36487
2.74688
2.86253
2.77005
2.72773
2.8461
3.2042
4.16206
4.3975
3.88644
3.01152
2.27751
2.58206
2.57132
2.41526
2.72173
3.62528
3.78248
3.63626
3.85581
4.5677
3.72963
3.4641
4.01689
3.79976
0.807238
0.212327
0.147105
0.145963
0.142756
0.16554
0.176315
0.178189
0.158374
0.15414
0.152378
0.146635
0.146491
0.152891
0.158494
0.162112
0.17142
0.174583
0.175374
0.174405
0.167809
0.153281
0.134038
0.119949
0.112195
0.108682
0.107863
0.108763
0.111729
0.116928
0.124253
0.133594
0.144387
0.156223
0.168541
0.18099
0.19227
0.202413
0.210917
0.21618
0.21929
0.220622
0.219275
0.213628
0.209656
0.206186
0.202141
0.201068
0.215246
0.237808
0.244984
0.262721
0.280824
0.283865
0.286302
0.288236
0.294611
0.299463
0.304833
0.321958
0.366708
0.464654
0.71574
0.858913
0.941794
1.03441
1.08
1.08185
1.05621
1.00062
0.919586
0.823234
0.67901
0.567179
0.458775
0.393534
0.324276
0.27833
0.248048
0.226011
0.20832
0.190685
0.173161
0.165682
0.161816
0.15878
0.157019
0.158518
0.166697
0.175774
0.182279
0.187828
0.199405
0.208839
0.226251
0.232785
0.234456
0.236733
0.234725
0.255759
0.265975
0.264181
0.231224
0.226209
0.204328
0.210365
0.203482
0.193147
0.204342
0.204253
0.204266
0.227528
0.235551
0.230868
0.255782
0.251523
0.256314
0.263831
0.277512
0.278459
0.282048
0.300125
0.33553
0.354981
0.431099
0.477328
0.534703
0.556143
0.582302
0.655676
0.772
0.802517
0.925525
0.990987
0.974233
0.99293
1.14471
1.23084
1.3096
1.64036
1.66656
1.59007
1.57709
1.66196
1.73408
1.77913
1.79667
1.87606
2.05772
2.01232
1.97574
1.9525
1.94889
2.11707
2.27985
2.33444
2.68162
2.9123
2.74125
2.51799
2.70177
3.12415
3.65762
4.07815
3.77854
2.99716
2.07835
2.19289
2.28528
2.26763
2.52306
3.43595
3.64262
3.54008
3.6514
4.10065
3.63152
3.35509
3.5125
4.76386
1.06376
0.232267
0.152235
0.145637
0.154433
0.175541
0.176409
0.172943
0.160496
0.161605
0.163157
0.159647
0.161127
0.169602
0.182625
0.192138
0.201221
0.206098
0.207124
0.206958
0.205363
0.201015
0.191768
0.173663
0.14559
0.124725
0.119678
0.11885
0.119915
0.125829
0.136485
0.151584
0.171108
0.192204
0.213436
0.23348
0.24902
0.264071
0.269624
0.268089
0.267324
0.267735
0.266892
0.261357
0.247582
0.226937
0.204673
0.193369
0.191437
0.207316
0.226702
0.248926
0.27616
0.285656
0.292361
0.302997
0.308594
0.316649
0.316661
0.313841
0.318364
0.356435
0.578061
0.795741
0.897542
0.977674
0.995974
0.952066
0.857449
0.77522
0.684784
0.596594
0.49435
0.432013
0.362685
0.314169
0.269443
0.236999
0.216262
0.202936
0.185289
0.162904
0.152956
0.149665
0.149294
0.147248
0.146367
0.151168
0.161109
0.171671
0.180304
0.186027
0.197356
0.206064
0.217457
0.222962
0.227276
0.218446
0.204181
0.205724
0.230712
0.256098
0.222948
0.225724
0.202189
0.19786
0.205005
0.190188
0.191512
0.20009
0.19797
0.213122
0.228281
0.221214
0.242242
0.243052
0.241648
0.243174
0.264367
0.265487
0.268208
0.303001
0.329242
0.34416
0.416639
0.457738
0.523358
0.528325
0.52643
0.543994
0.600032
0.745908
0.924334
0.935227
0.91099
0.93205
1.08936
1.29666
1.38397
1.49915
1.60055
1.60514
1.59504
1.64424
1.70398
1.72299
1.78633
1.76046
1.71108
1.70884
1.75072
1.7745
1.82165
2.10869
2.22334
2.24733
2.52001
2.81851
2.67644
2.48974
2.74687
3.08443
3.51192
2.94913
3.03871
2.82756
2.02037
2.06707
2.14924
2.19075
2.42801
3.3676
3.49491
3.4722
3.58553
3.6527
3.23929
3.40939
3.4151
5.35567
1.36816
0.318559
0.17074
0.166781
0.185156
0.186523
0.185567
0.179058
0.178103
0.173132
0.16689
0.16533
0.165459
0.172221
0.188324
0.204136
0.213793
0.21808
0.219404
0.219769
0.221276
0.224638
0.224955
0.217776
0.202142
0.164919
0.146094
0.144005
0.146569
0.157055
0.178057
0.205069
0.240091
0.279041
0.31188
0.332895
0.342715
0.345497
0.344674
0.33671
0.309905
0.287643
0.278445
0.277313
0.275936
0.270302
0.248954
0.214291
0.192009
0.183704
0.185613
0.200495
0.233365
0.264161
0.279345
0.309665
0.340107
0.357755
0.360717
0.345444
0.325692
0.328934
0.415332
0.701736
0.854279
0.907894
0.911666
0.841279
0.734352
0.640287
0.544014
0.469776
0.396315
0.342473
0.29618
0.258684
0.236391
0.217011
0.201034
0.182952
0.160545
0.143743
0.138193
0.137134
0.13661
0.139259
0.143587
0.150244
0.160788
0.172904
0.1846
0.19269
0.203242
0.211887
0.218086
0.223615
0.22522
0.21116
0.199673
0.190826
0.186912
0.221188
0.20023
0.208405
0.203671
0.18813
0.199577
0.186432
0.180067
0.198122
0.192556
0.196449
0.216203
0.212358
0.221073
0.233323
0.225924
0.23107
0.274912
0.264446
0.264547
0.312036
0.324619
0.331226
0.346013
0.389447
0.467771
0.488011
0.493115
0.505148
0.548426
0.699481
0.887863
0.889141
0.911985
0.952444
1.05143
1.3736
1.52032
1.50936
1.50213
1.57632
1.59011
1.60623
1.68802
1.733
1.80654
1.67294
1.53634
1.56966
1.57442
1.58957
1.6897
2.08405
2.24049
2.25377
2.50089
2.73612
2.48586
2.5722
2.92171
3.88353
3.57832
2.38168
2.49572
2.45434
1.96967
2.03484
2.05418
2.10211
2.31949
3.31113
3.38366
3.38924
3.58295
3.45067
3.0117
3.42565
3.45868
5.81598
1.49615
0.357166
0.173561
0.177264
0.200229
0.191422
0.197928
0.196395
0.191388
0.17198
0.164198
0.162907
0.162747
0.168864
0.184484
0.204196
0.225453
0.244057
0.247597
0.246274
0.244722
0.249728
0.260675
0.269856
0.271131
0.255426
0.221323
0.212444
0.218549
0.238592
0.283398
0.330606
0.369415
0.389899
0.393924
0.391238
0.381285
0.366323
0.361075
0.35557
0.340453
0.303902
0.271779
0.263
0.265627
0.269879
0.268174
0.251556
0.215592
0.184451
0.168429
0.164515
0.169381
0.208438
0.247025
0.290199
0.343709
0.396849
0.422472
0.417597
0.371435
0.346116
0.360364
0.532828
0.774604
0.867774
0.873266
0.783938
0.639101
0.546159
0.45903
0.388665
0.326186
0.278424
0.249497
0.22995
0.215982
0.199269
0.180934
0.162682
0.144751
0.135767
0.133332
0.132978
0.133014
0.136673
0.144472
0.155617
0.169596
0.189429
0.209909
0.222531
0.232483
0.233677
0.230495
0.232405
0.23006
0.209431
0.198866
0.192206
0.180501
0.189278
0.188466
0.178614
0.191984
0.184369
0.188616
0.186985
0.173603
0.194
0.185337
0.180359
0.195674
0.194249
0.19723
0.214117
0.212288
0.225792
0.284267
0.266064
0.263015
0.296972
0.31403
0.322486
0.321863
0.356092
0.427752
0.44922
0.464485
0.47818
0.529633
0.689414
0.794048
0.846358
0.90883
0.974239
1.03477
1.36055
1.5296
1.63109
1.53712
1.51163
1.50307
1.53207
1.65029
1.7224
1.75776
1.50856
1.37771
1.44076
1.48991
1.52939
1.64814
2.04793
2.2748
2.2943
2.54662
2.65738
2.25682
2.60754
3.65214
4.78342
3.62387
1.97541
2.04438
2.0169
1.92038
1.9874
2.02768
2.06805
2.21283
3.17441
3.30445
3.30901
3.52807
3.35165
2.92592
3.39644
3.51017
6.59286
1.50706
0.322098
0.167565
0.176163
0.193709
0.189288
0.194873
0.194352
0.187574
0.167099
0.161008
0.161449
0.162565
0.167988
0.183363
0.206953
0.240121
0.263125
0.27473
0.281816
0.296287
0.315557
0.334385
0.363518
0.39929
0.422445
0.429871
0.429653
0.43269
0.440373
0.447307
0.45102
0.443059
0.428775
0.415435
0.404168
0.389201
0.365941
0.349076
0.343971
0.338467
0.316008
0.262191
0.218969
0.206808
0.213939
0.234339
0.241378
0.231839
0.198404
0.167832
0.153959
0.152296
0.158372
0.181596
0.220219
0.277421
0.373716
0.457997
0.489244
0.478861
0.4081
0.38246
0.418451
0.632727
0.805749
0.839699
0.786972
0.600745
0.472133
0.393392
0.330235
0.277382
0.241865
0.227738
0.214664
0.198032
0.180791
0.164919
0.152973
0.139675
0.13427
0.132402
0.13201
0.132933
0.139093
0.157198
0.184004
0.207486
0.236089
0.260905
0.271099
0.277087
0.274394
0.267687
0.254937
0.244592
0.223846
0.202714
0.19208
0.185715
0.179963
0.187305
0.175245
0.1795
0.179332
0.175988
0.184127
0.170704
0.178852
0.183715
0.175423
0.186346
0.188886
0.186786
0.200932
0.20516
0.220224
0.264818
0.258594
0.25689
0.261862
0.304519
0.32306
0.314444
0.343706
0.408862
0.430705
0.449506
0.45552
0.512713
0.674736
0.715405
0.764031
0.848114
0.930558
0.963133
1.29574
1.4704
1.71487
1.59659
1.43145
1.3842
1.47318
1.58562
1.63149
1.5694
1.38142
1.33495
1.42096
1.46458
1.54645
1.65577
2.05744
2.29528
2.32201
2.61169
2.50886
2.19503
2.72102
3.63073
4.46738
3.19873
1.80181
1.88449
1.86266
1.91794
1.9941
2.03202
2.06268
2.13157
2.94237
3.22116
3.19205
3.33156
3.1838
2.89533
3.33171
3.46344
7.40292
1.73926
0.344882
0.173363
0.178243
0.192434
0.189856
0.193916
0.192395
0.181416
0.165873
0.161783
0.165306
0.174295
0.181388
0.195251
0.217059
0.241594
0.260023
0.269851
0.278357
0.304781
0.347536
0.384963
0.412698
0.443777
0.477463
0.504309
0.518995
0.527464
0.526774
0.518449
0.493139
0.458825
0.419893
0.377553
0.349488
0.34066
0.323744
0.294241
0.284828
0.28682
0.286966
0.261505
0.20805
0.179219
0.163866
0.162844
0.18195
0.19693
0.194952
0.16883
0.144506
0.13681
0.137087
0.141462
0.1508
0.17027
0.223975
0.397707
0.521892
0.562781
0.546094
0.447937
0.428868
0.506527
0.714155
0.783006
0.766699
0.617743
0.447174
0.350796
0.28718
0.247053
0.226992
0.217354
0.201258
0.182046
0.167019
0.158406
0.151881
0.138501
0.132446
0.131547
0.132349
0.137675
0.156914
0.205029
0.247615
0.266151
0.281179
0.287406
0.289731
0.289392
0.28556
0.279933
0.269596
0.249187
0.234824
0.222337
0.196012
0.193685
0.179282
0.186035
0.175889
0.174963
0.178311
0.169217
0.173298
0.169062
0.169555
0.177213
0.173851
0.182251
0.188746
0.184608
0.194354
0.206099
0.20735
0.223994
0.244021
0.246307
0.241675
0.282794
0.308393
0.303841
0.33235
0.385146
0.412726
0.433761
0.435202
0.48074
0.620162
0.624976
0.659404
0.772706
0.846237
0.891371
1.17996
1.27929
1.63361
1.70066
1.436
1.32407
1.43827
1.47706
1.45788
1.41259
1.35674
1.38178
1.41458
1.49453
1.52372
1.631
2.23526
2.40514
2.40322
2.61375
2.43091
2.21303
2.90448
3.44832
3.43548
2.44028
1.68522
1.86782
1.80635
1.89291
2.04198
2.07448
2.07996
2.11864
2.70803
3.13409
3.05422
3.12462
2.98228
2.89309
3.2313
3.22052
7.88127
2.40634
0.481249
0.196419
0.182394
0.200439
0.208131
0.201642
0.195325
0.182001
0.169899
0.170143
0.175906
0.183329
0.190233
0.198596
0.213581
0.232944
0.246577
0.254898
0.265113
0.287472
0.319942
0.355799
0.391756
0.415091
0.425914
0.425976
0.415588
0.391231
0.36355
0.348553
0.343607
0.33595
0.314973
0.297858
0.286503
0.274179
0.256428
0.240746
0.234333
0.246671
0.257352
0.249074
0.209302
0.179348
0.157953
0.142429
0.13525
0.139525
0.15065
0.151158
0.13576
0.123732
0.121561
0.122112
0.124447
0.132078
0.152905
0.205362
0.432175
0.596725
0.646779
0.606178
0.486796
0.48365
0.609542
0.723958
0.730561
0.639829
0.456469
0.342536
0.271351
0.230657
0.214514
0.204152
0.18608
0.170157
0.161328
0.157982
0.152774
0.139235
0.133484
0.134029
0.139653
0.156948
0.20602
0.255959
0.27569
0.28259
0.291704
0.293132
0.294194
0.290752
0.283669
0.276794
0.267312
0.251317
0.235176
0.225835
0.203569
0.19953
0.180942
0.183801
0.174763
0.173652
0.173626
0.168455
0.169871
0.167773
0.168058
0.174992
0.172922
0.180319
0.187032
0.183672
0.191899
0.202942
0.202411
0.206372
0.227152
0.230036
0.229322
0.267772
0.281037
0.283955
0.315418
0.351152
0.381194
0.402016
0.399165
0.441557
0.546493
0.538519
0.583843
0.691585
0.724687
0.799154
1.06248
1.09069
1.39627
1.7478
1.50935
1.31907
1.40133
1.44187
1.39142
1.36987
1.37515
1.42593
1.49468
1.57568
1.70967
1.94236
2.47425
2.55145
2.45484
2.56693
2.41251
2.29713
3.10462
3.27157
2.78114
2.04611
1.64825
1.91384
1.78974
1.8694
2.15505
2.19543
2.16226
2.15215
2.64584
3.03975
2.92007
2.98528
2.96108
2.92166
3.15655
2.92589
8.01404
2.96131
0.911061
0.294368
0.198393
0.206676
0.227835
0.232883
0.219854
0.192328
0.182054
0.182686
0.183341
0.185226
0.189773
0.195963
0.207189
0.220463
0.227055
0.229986
0.231441
0.228943
0.222062
0.220376
0.228821
0.237131
0.235782
0.230733
0.221207
0.213942
0.218697
0.237788
0.266218
0.283418
0.290929
0.292042
0.288089
0.274443
0.245328
0.228839
0.219373
0.213533
0.22424
0.231632
0.220524
0.191921
0.174307
0.146345
0.128337
0.121516
0.122432
0.123828
0.12094
0.112025
0.108756
0.108162
0.109093
0.113709
0.125373
0.148568
0.215423
0.507256
0.692839
0.727347
0.632111
0.529599
0.544819
0.658523
0.691289
0.654832
0.48303
0.351086
0.275223
0.230044
0.204961
0.189194
0.174335
0.165738
0.16215
0.158826
0.152797
0.140955
0.138101
0.140859
0.155412
0.195859
0.245983
0.272059
0.281951
0.284251
0.290633
0.285435
0.27786
0.270168
0.260377
0.256498
0.248714
0.243377
0.236113
0.22564
0.208197
0.204606
0.186818
0.184842
0.176189
0.173985
0.172631
0.168657
0.170053
0.169472
0.168974
0.174968
0.173615
0.179935
0.186403
0.18404
0.191964
0.199416
0.201441
0.200529
0.218836
0.222772
0.224427
0.252588
0.257148
0.263861
0.293042
0.319599
0.342029
0.363701
0.365691
0.398927
0.476042
0.476502
0.527923
0.621713
0.63596
0.703945
0.878334
0.947671