/*--------------------------------*- C++ -*----------------------------------*\
| =========                 |                                                 |
| \\      /  F ield         | OpenFOAM: The Open Source CFD Toolbox           |
|  \\    /   O peration     | Version:  dev                                   |
|   \\  /    A nd           | Web:      http://www.openfoam.org               |
|    \\/     M anipulation  |                                                 |
\*---------------------------------------------------------------------------*/
FoamFile
{
    version     2.0;
    format      ascii;
    class       volScalarField;
    object      k_0;
    location    "9.15";
}
// * * * * * * * * * * * * * * * * * * * * * * * * * * * * * * * * * * * * * //

dimensions      [0 2 -2 0 0 0 0];

internalField   nonuniform List<scalar> 
12225
(
8.19794
8.37523
5.39673
5.13216
4.48519
5.26447
5.80516
6.32793
8.08059
7.73801
10.9105
9.21996
13.6233
10.4675
15.3254
10.8168
14.89
18.3435
2.19958
5.90636
5.17052
6.03706
4.53355
5.85896
4.27356
6.02213
4.68145
6.28208
5.51568
6.35711
6.57954
6.31435
7.8931
6.43747
16.5694
21.4718
0.234066
1.80845
2.08483
3.177
2.71583
3.51936
2.87832
3.48754
3.13875
3.11547
3.66255
2.69434
4.06625
2.37422
4.42688
2.69703
10.8523
18.2302
0.0209324
0.344946
0.523233
0.82862
1.06442
1.1932
1.49638
1.42556
1.97963
1.44992
2.27309
1.29398
2.09696
1.10304
2.1631
1.24569
4.58435
9.48672
0.00342331
0.0604914
0.129743
0.203537
0.349758
0.405018
0.589725
0.571107
0.818107
0.611957
0.922582
0.567624
0.915812
0.526238
0.992165
0.652637
1.7404
2.65073
0.00347371
0.0206305
0.0381406
0.0552103
0.103545
0.116963
0.1959
0.18075
0.304576
0.220794
0.362458
0.235633
0.380595
0.248782
0.444378
0.315932
0.737308
0.775684
0.00486115
0.00747772
0.0142408
0.0167419
0.0321548
0.03455
0.0651262
0.0592618
0.111638
0.0866042
0.143947
0.105605
0.158298
0.128718
0.203578
0.171299
0.320601
0.304004
0.00505854
0.00643878
0.00898622
0.0103835
0.0161087
0.0180121
0.0297048
0.0310793
0.0524124
0.0507916
0.0738288
0.0688019
0.0867308
0.0846176
0.109664
0.109643
0.157185
0.159328
0.00656869
0.00748617
0.00887925
0.0104246
0.0138315
0.0166574
0.0219654
0.0263874
0.0374538
0.0441108
0.0560566
0.0639762
0.0697076
0.0752517
0.0833378
0.086836
0.106023
0.110445
0.0102969
0.0114702
0.0109329
0.013167
0.01505
0.0199628
0.0228438
0.0306036
0.0372651
0.0496979
0.0570843
0.0686588
0.0708588
0.0764628
0.0811679
0.0852005
0.0940635
0.100165
0.0197344
0.0198363
0.018218
0.0216113
0.0224634
0.0312107
0.0329395
0.0470727
0.0500485
0.0694067
0.0730612
0.0878073
0.0874658
0.0903997
0.0919465
0.0952607
0.100225
0.106426
0.0392838
0.039695
0.036337
0.0413123
0.0433947
0.0586842
0.0640123
0.0860783
0.092389
0.118368
0.125922
0.141919
0.142474
0.14218
0.140493
0.140001
0.141667
0.147249
0.0890519
0.0848055
0.0815648
0.087014
0.0924096
0.11181
0.123341
0.156489
0.176267
0.202124
0.213021
0.221796
0.222763
0.221967
0.2212
0.220163
0.221058
0.222812
0.165366
0.153933
0.149681
0.151716
0.157801
0.184605
0.21149
0.245519
0.271954
0.296354
0.310461
0.317525
0.321958
0.324206
0.327012
0.328463
0.328498
0.326243
0.292135
0.271688
0.261979
0.260788
0.268321
0.310045
0.372114
0.423285
0.457675
0.479105
0.488924
0.492404
0.492517
0.490418
0.485298
0.476752
0.460951
0.449326
0.489995
0.439892
0.413205
0.400794
0.404177
0.435427
0.494537
0.539258
0.568292
0.583637
0.589434
0.590142
0.588514
0.584709
0.573388
0.557176
0.53203
0.514862
0.597024
0.519738
0.47812
0.459736
0.461556
0.488987
0.544942
0.586285
0.612057
0.624217
0.628118
0.627775
0.626002
0.621803
0.607446
0.588245
0.559685
0.539949
0.60899
0.526101
0.481702
0.464774
0.467233
0.496484
0.551551
0.591818
0.616742
0.62816
0.631523
0.630988
0.629203
0.624837
0.609861
0.590195
0.561147
0.540819
0.524184
0.462047
0.43637
0.428211
0.433785
0.468576
0.52279
0.563696
0.589968
0.602879
0.606806
0.606417
0.604719
0.600397
0.586003
0.567663
0.53943
0.519463
0.341389
0.30501
0.303028
0.3056
0.318546
0.362077
0.417788
0.46527
0.49891
0.518288
0.525757
0.526901
0.525853
0.522887
0.51261
0.499358
0.475938
0.458366
0.210642
0.188952
0.183285
0.182092
0.185972
0.206477
0.248109
0.285918
0.315513
0.336771
0.348268
0.352133
0.352965
0.35275
0.351384
0.34834
0.340051
0.327883
0.116543
0.109722
0.109812
0.110899
0.114426
0.125718
0.147432
0.172413
0.196072
0.213027
0.221061
0.223561
0.223872
0.223023
0.219491
0.216154
0.210187
0.205009
0.0599388
0.0587409
0.0587351
0.0583661
0.0588026
0.0630959
0.0755039
0.0919693
0.107713
0.121224
0.131277
0.139244
0.145854
0.151649
0.155627
0.158256
0.159093
0.158966
0.0279723
0.0293571
0.0291838
0.0298489
0.033073
0.0388001
0.0507087
0.0655526
0.0800259
0.0935248
0.105263
0.11629
0.126194
0.135446
0.142714
0.148441
0.152073
0.154319
0.0109723
0.0118861
0.015889
0.0220108
0.0315027
0.0417927
0.0567121
0.073773
0.0899199
0.105483
0.120003
0.134881
0.149327
0.163041
0.17377
0.182353
0.187217
0.19039
0.00217184
0.00697135
0.0187282
0.0443992
0.0801995
0.112023
0.143162
0.17171
0.196817
0.220941
0.243867
0.268299
0.294024
0.317115
0.334819
0.347236
0.353253
0.354719
0.00224815
0.0298937
0.110353
0.25066
0.383469
0.479476
0.546901
0.594199
0.636975
0.678059
0.715557
0.751299
0.787125
0.813624
0.826904
0.830882
0.827412
0.819586
0.0303027
0.366874
0.943432
1.33642
1.61034
1.76909
1.84602
1.88296
1.91839
1.94412
1.95229
1.95056
1.93652
1.90362
1.85478
1.80509
1.74042
1.69318
0.65282
3.42876
4.70003
4.88748
4.75434
4.47186
4.19021
3.96021
3.75193
3.5666
3.40734
3.25139
3.09086
2.93728
2.79977
2.66493
2.5451
2.40917
6.61982
9.59103
8.30374
6.48813
5.33622
4.83993
4.67738
4.67591
4.72942
4.80456
4.87857
4.94208
4.98678
5.01127
5.01954
5.00801
4.96655
4.76649
0.113877
0.172454
0.179036
0.179113
0.178634
0.180044
0.187098
0.200645
0.216166
0.232165
0.247157
0.261973
0.277189
0.294957
0.31687
0.340566
0.364645
0.389237
0.415131
0.443043
0.473636
0.50834
0.544136
0.581478
0.62222
0.668744
0.719894
0.775387
0.836757
0.910344
0.993928
1.08915
1.19196
1.30565
1.4313
1.5917
1.76601
1.94467
2.16044
2.39325
2.62296
2.871
3.11963
3.32235
3.60645
3.7756
3.69412
3.35847
3.23227
3.25438
3.25022
3.19668
3.11098
3.12294
3.24494
3.42507
3.55524
3.62352
3.64841
3.62377
3.51209
3.39013
3.4052
3.51896
3.78987
4.13598
4.60376
5.40583
6.03845
6.97263
7.58558
7.49892
7.1055
6.24749
5.19806
4.66348
4.54766
4.56089
4.68408
4.71963
4.77894
5.08324
5.74807
6.38214
6.87198
7.18712
7.3461
7.37615
7.26323
7.09522
6.96759
6.84089
6.60201
6.27751
5.84617
5.37729
4.98677
4.68651
4.39532
4.09122
3.60362
3.4186
3.12275
2.80685
2.66174
2.40531
2.27708
2.13769
2.06165
2.01894
2.00116
2.03566
2.09597
2.19348
2.34975
2.4955
2.56686
2.60487
2.74526
3.11261
3.37764
3.46681
3.53063
3.61152
3.65907
3.66764
3.70364
3.78629
3.80115
3.82196
3.84752
3.94371
4.01634
4.16094
4.33432
4.63955
5.19044
5.88168
6.63887
6.92141
7.3793
7.90519
8.38507
8.81613
8.91479
9.11502
9.47559
9.77811
10.1392
10.5721
10.7129
10.859
11.912
12.6481
13.3024
13.7012
13.4293
12.7618
12.2659
12.0011
10.9856
9.63105
8.02239
6.89882
6.55856
6.21691
5.89155
6.12409
6.80731
8.08393
10.1263
10.1921
9.854
8.58745
7.65674
7.94943
8.43657
9.72136
13.4928
16.8635
0.214634
0.169188
0.15149
0.126703
0.114187
0.109305
0.108791
0.111078
0.114259
0.116961
0.120037
0.123602
0.127134
0.131531
0.137779
0.144372
0.150473
0.155959
0.161534
0.16775
0.175153
0.184915
0.192985
0.199192
0.203607
0.209451
0.215397
0.221193
0.226092
0.232316
0.238754
0.246233
0.253472
0.259623
0.264135
0.275092
0.290662
0.301606
0.327787
0.356523
0.390523
0.477478
0.55283
0.730057
0.894088
1.16328
1.54642
1.75837
1.80899
1.93619
1.95889
1.81506
1.43354
1.22648
1.13325
1.10592
1.11441
1.12046
1.09518
0.993362
0.76308
0.62485
0.592744
0.607284
0.64076
0.675122
0.709831
0.788284
0.881917
1.05992
1.52892
2.35779
3.03207
3.17227
2.88406
2.36984
2.33302
2.59715
3.65423
4.22078
4.39852
4.50177
4.42557
4.06475
3.63436
3.16715
2.73252
2.39779
2.14966
2.00054
1.86747
1.75399
1.57867
1.43071
1.30201
1.24173
1.212
1.18177
1.12171
1.04271
0.997066
0.985402
0.93981
0.930629
0.935612
0.920491
0.934207
0.941721
0.956532
0.959443
0.971903
1.03212
1.06928
1.11668
1.22271
1.3461
1.41682
1.41424
1.41068
1.47786
1.67783
1.79871
1.85542
1.92711
1.97787
1.99491
2.02285
2.12203
2.19321
2.20289
2.20724
2.25342
2.41334
2.51667
2.62788
2.69349
2.87371
3.09386
3.62339
3.96782
4.01844
4.12789
4.38381
4.82303
5.06928
5.15835
5.5307
5.96167
6.37816
6.58773
6.1876
5.46016
5.81274
7.01276
7.60829
8.70895
8.51659
7.91042
7.69727
8.27989
8.26072
7.46559
5.9397
4.88031
4.5913
4.48664
4.67745
5.02227
5.5275
6.07766
7.43449
8.15298
8.17957
7.44058
6.26317
6.0826
6.34667
6.83248
7.89167
10.8337
0.447546
0.17558
0.134304
0.113441
0.0971767
0.0879989
0.0856792
0.0858294
0.0866589
0.0889654
0.0937003
0.0998667
0.104768
0.108787
0.115244
0.124083
0.132176
0.139268
0.14534
0.150477
0.156113
0.163363
0.168921
0.171322
0.172697
0.175651
0.180567
0.186826
0.190611
0.192545
0.19445
0.199003
0.205784
0.213643
0.2223
0.229428
0.236189
0.240182
0.241391
0.24147
0.243064
0.24523
0.249569
0.260595
0.283894
0.33486
0.40904
0.575786
0.6541
0.773342
0.894375
1.04449
1.15629
1.1648
1.14726
1.03556
0.827783
0.653961
0.516442
0.423752
0.375132
0.372792
0.407199
0.493128
0.54086
0.565425
0.604428
0.642741
0.654885
0.661574
0.697965
0.822596
1.17298
1.40733
1.67652
2.47765
3.2528
3.41736
3.49229
3.27588
2.83708
2.33741
1.93775
1.61482
1.27299
1.03059
0.857082
0.762939
0.711053
0.680386
0.652693
0.623934
0.577278
0.542757
0.532182
0.53325
0.545674
0.551076
0.547883
0.539165
0.524414
0.514063
0.504187
0.506361
0.525258
0.526393
0.552527
0.579672
0.584336
0.572907
0.577093
0.609613
0.624485
0.625563
0.650654
0.743533
0.817124
0.812277
0.787129
0.79737
0.852168
0.942139
0.98109
1.0327
1.07932
1.10436
1.12807
1.20605
1.27854
1.31575
1.39063
1.57098
1.77895
1.8752
1.87927
1.86043
1.9018
2.09084
2.22513
2.4013
2.45367
2.59797
2.7746
3.01641
3.15432
3.1763
3.36391
3.81904
4.37514
4.42849
3.89384
3.24801
3.28791
3.83038
4.22066
5.1772
5.34395
5.10041
4.82305
5.30711
5.82801
5.74093
4.90977
4.1751
4.15533
4.02221
3.97795
4.08702
4.26358
4.74519
5.30755
5.57958
5.71391
5.59917
4.93786
4.90721
5.85959
5.5088
6.43699
6.92255
0.950867
0.221106
0.137875
0.118178
0.103977
0.0904648
0.0853549
0.0852755
0.0862843
0.0916385
0.10228
0.114689
0.125624
0.130134
0.134629
0.139688
0.14389
0.148161
0.149962
0.150365
0.150326
0.149003
0.144885
0.142332
0.141927
0.14224
0.143545
0.146134
0.150701
0.158965
0.173038
0.186179
0.192885
0.201178
0.213575
0.224379
0.231725
0.234096
0.239573
0.243267
0.242713
0.243149
0.244322
0.243228
0.242668
0.245181
0.251425
0.278577
0.306745
0.334172
0.409148
0.46023
0.544213
0.707076
0.88735
0.955144
0.947185
0.850904
0.597895
0.431988
0.379324
0.379302
0.436675
0.528474
0.577944
0.616872
0.664099
0.708255
0.7189
0.71546
0.718694
0.769221
0.95502
1.39394
2.49823
3.17451
3.13666
2.78489
2.17311
1.77531
1.39903
1.10724
0.893521
0.718715
0.570111
0.471064
0.418524
0.394246
0.382686
0.377228
0.374255
0.369107
0.35749
0.350292
0.348907
0.357815
0.37701
0.386161
0.389894
0.402104
0.402098
0.407031
0.389328
0.386288
0.396477
0.400577
0.4217
0.453189
0.476597
0.459116
0.449752
0.468132
0.48926
0.487815
0.480641
0.507994
0.622786
0.636974
0.61443
0.605535
0.623033
0.674234
0.702958
0.729966
0.766198
0.793821
0.80918
0.848221
0.935525
0.977719
1.04372
1.32367
1.57494
1.63054
1.63143
1.60982
1.60439
1.73939
1.92737
1.92139
1.92923
2.13204
2.30276
2.38862
2.42568
2.47605
2.60385
2.84033
3.33502
3.46356
3.10188
2.65237
2.58365
2.69896
2.97121
3.57092
3.86083
3.78106
3.65392
3.8871
4.45302
4.6819
4.34132
3.79391
3.80461
3.51999
3.53317
3.72122
3.63378
3.85684
4.61316
4.69326
4.74657
4.72129
4.31623
4.67756
5.50529
5.05304
6.69719
6.02131
1.49324
0.336503
0.147361
0.132223
0.12668
0.105418
0.0908626
0.0903244
0.0938081
0.113646
0.136894
0.146622
0.149921
0.147162
0.14087
0.139953
0.140086
0.137018
0.133057
0.129652
0.125258
0.119756
0.115867
0.114687
0.114602
0.115428
0.11794
0.121877
0.126969
0.132756
0.139531
0.148085
0.156923
0.166292
0.174476
0.184533
0.197337
0.208736
0.218588
0.225356
0.233874
0.242588
0.24493
0.247449
0.253666
0.253908
0.251506
0.253022
0.256618
0.258409
0.269664
0.284984
0.31081
0.345119
0.408867
0.595573
0.746243
0.777687
0.751853
0.587151
0.47423
0.469394
0.558436
0.647522
0.679556
0.709178
0.775546
0.845902
0.890335
0.919725
0.949841
1.03881
1.38833
2.18327
2.68248
2.74809
2.18975
1.60495
1.176
0.910648
0.725166
0.595888
0.497458
0.413164
0.351315
0.30677
0.287754
0.279611
0.276491
0.276462
0.280308
0.28169
0.280234
0.278576
0.279421
0.287742
0.307181
0.313733
0.314373
0.326789
0.339913
0.367812
0.344547
0.338013
0.336511
0.340954
0.353051
0.372105
0.421453
0.410351
0.389858
0.39365
0.409143
0.432503
0.419323
0.411791
0.438895
0.555116
0.548801
0.533857
0.537929
0.566246
0.597365
0.607635
0.634659
0.673822
0.68363
0.699367
0.768939
0.839249
0.891413
1.08706
1.3434
1.48471
1.54917
1.56984
1.57049
1.59209
1.81293
1.84689
1.78838
1.86579
2.05564
2.1214
2.12587
2.20735
2.35616
2.58664
2.81893
2.92678
2.71534
2.45136
2.41218
2.41261
2.53428
2.81509
3.10236
3.18114
3.27941
3.36926
3.68401
3.92494
3.83412
3.54143
3.50374
3.27239
3.32059
3.58467
3.58343
3.40239
3.7977
4.24743
4.30497
4.31118
4.04749
4.63297
4.86018
5.28789
5.3093
6.07348
2.05816
0.491962
0.162633
0.136357
0.139124
0.121941
0.10402
0.101347
0.115822
0.158706
0.169116
0.15001
0.1445
0.14422
0.137505
0.131931
0.129381
0.126133
0.121255
0.11848
0.114765
0.1099
0.105679
0.104314
0.104028
0.10412
0.105304
0.10819
0.112611
0.117963
0.124045
0.131415
0.139251
0.147918
0.155365
0.164465
0.172528
0.180244
0.18992
0.198632
0.207992
0.218969
0.228797
0.237504
0.24395
0.24559
0.249024
0.253959
0.25722
0.256249
0.255724
0.257984
0.259056
0.261429
0.273719
0.308744
0.398949
0.569487
0.64631
0.648292
0.600338
0.584324
0.626408
0.706992
0.756322
0.812532
0.900325
0.978112
1.03968
1.11725
1.24005
1.44701
1.79082
2.15825
2.17133
1.6784
1.19957
0.910319
0.663792
0.516592
0.441167
0.38684
0.339405
0.297047
0.265584
0.242302
0.233622
0.230526
0.229718
0.231994
0.239127
0.244789
0.246871
0.246983
0.24939
0.254233
0.269489
0.28077
0.280598
0.284497
0.297111
0.315126
0.305873
0.302736
0.298056
0.297032
0.292443
0.275344
0.318923
0.346568
0.337257
0.344352
0.339057
0.338971
0.36053
0.350623
0.355432
0.393044
0.443373
0.436771
0.439161
0.463351
0.508087
0.524925
0.565067
0.616838
0.630172
0.637509
0.658965
0.756567
0.837696
0.940632
1.04985
1.15043
1.37825
1.48292
1.44901
1.44585
1.65449
1.80355
1.75827
1.76002
1.81502
1.81565
1.83143
1.9769
2.19138
2.40988
2.64822
2.64887
2.44669
2.33137
2.34393
2.31291
2.35136
2.48515
2.65241
2.90868
3.16234
3.20512
3.3466
3.53564
3.4624
3.5003
3.50169
3.28895
2.98504
3.20393
3.58346
3.3011
3.17032
3.74644
4.04791
4.07016
3.89049
4.39216
4.7009
5.08599
3.98
5.23645
2.63571
0.690332
0.205799
0.150991
0.15212
0.127747
0.125087
0.137536
0.15674
0.170104
0.168856
0.149827
0.139786
0.13733
0.135347
0.129914
0.127865
0.125678
0.122179
0.118815
0.115264
0.110033
0.104571
0.102255
0.101602
0.101647
0.102583
0.104878
0.108209
0.112607
0.118053
0.124876
0.132725
0.14121
0.149006
0.157891
0.165239
0.172371
0.180575
0.187069
0.192766
0.197334
0.202427
0.206599
0.214521
0.225195
0.235841
0.240148
0.249357
0.255155
0.257846
0.261896
0.262167
0.258606
0.25809
0.263256
0.280574
0.321149
0.440917
0.53739
0.565108
0.585889
0.631845
0.745549
0.843394
0.923901
1.00113
1.06716
1.12435
1.19671
1.32805
1.47571
1.6704
1.6252
1.29505
0.974691
0.716206
0.550526
0.430779
0.357986
0.323548
0.296012
0.268808
0.242462
0.22038
0.210276
0.206255
0.204674
0.204528
0.208373
0.215176
0.224699
0.230109
0.231831
0.235529
0.240256
0.247384
0.259025
0.263702
0.267867
0.28354
0.287311
0.277891
0.271286
0.260611
0.251666
0.246124
0.221324
0.228511
0.26332
0.251495
0.274458
0.294905
0.280933
0.282235
0.293741
0.299552
0.305506
0.340475
0.342324
0.35424
0.373691
0.401056
0.422753
0.471878
0.535149
0.565339
0.57873
0.605294
0.697579
0.835844
0.891688
0.905927
0.947648
1.16207
1.32866
1.28691
1.27724
1.33712
1.67693
1.75943
1.68053
1.61336
1.61795
1.70669
1.89645
2.03092
2.10265
2.38239
2.45394
2.35495
2.30114
2.29084
2.23327
2.25112
2.34646
2.40005
2.73372
2.90734
2.97237
3.0979
3.3194
3.26981
3.69519
3.71094
3.51692
2.86477
2.75802
3.14212
3.07255
2.76901
3.24738
3.8356
3.88549
3.74172
4.12526
4.68481
4.0434
3.55293
4.87124
3.25538
0.753739
0.213348
0.14917
0.154896
0.135158
0.13829
0.17379
0.17867
0.162715
0.155995
0.150234
0.141411
0.138528
0.138201
0.134746
0.133813
0.134248
0.133157
0.131103
0.128103
0.121918
0.114029
0.107813
0.104311
0.103285
0.103387
0.104649
0.107139
0.111438
0.116534
0.123193
0.131397
0.139984
0.148487
0.157679
0.165699
0.173662
0.182332
0.189672
0.193946
0.196201
0.198626
0.199985
0.202068
0.20677
0.212521
0.219187
0.231996
0.245336
0.253109
0.256745
0.265119
0.266758
0.265129
0.2673
0.273952
0.285961
0.306211
0.365181
0.449219
0.514801
0.611164
0.772266
0.874606
0.957476
1.0369
1.0965
1.14932
1.19197
1.25107
1.26127
1.1829
0.998757
0.791664
0.615666
0.493688
0.391257
0.331332
0.291912
0.267135
0.244362
0.222638
0.203786
0.188397
0.182438
0.179442
0.178033
0.178309
0.18449
0.190874
0.195075
0.205239
0.216107
0.224115
0.235578
0.238144
0.24014
0.249254
0.257753
0.276808
0.274456
0.266084
0.245008
0.235803
0.218507
0.225187
0.205097
0.201306
0.22411
0.218387
0.220997
0.25639
0.251413
0.245972
0.265602
0.265781
0.271431
0.290914
0.30064
0.304977
0.316451
0.340208
0.362097
0.392053
0.458933
0.496513
0.546947
0.578381
0.662895
0.812268
0.876192
0.863033
0.914015
1.08507
1.16478
1.17967
1.21957
1.23969
1.44355
1.72119
1.65999
1.56993
1.58613
1.70786
1.85752
1.94849
1.94814
2.13119
2.30016
2.24075
2.20452
2.17504
2.10705
2.1751
2.30342
2.37234
2.78
2.84515
2.73307
2.72265
2.85634
3.21441
4.13626
4.28278
3.78674
2.93028
2.29059
2.61595
2.6016
2.42975
2.76396
3.62221
3.75777
3.60292
3.84247
4.56185
3.72001
3.43303
4.03266
3.95256
0.80519
0.212869
0.147507
0.146469
0.142855
0.165459
0.176765
0.179093
0.159162
0.154778
0.153041
0.147096
0.146769
0.152969
0.158679
0.162112
0.171488
0.17479
0.175617
0.174737
0.168391
0.154105
0.134742
0.120388
0.112544
0.108973
0.108105
0.108959
0.111858
0.116947
0.12413
0.133277
0.143779
0.155279
0.16721
0.179206
0.190129
0.199948
0.208384
0.213702
0.216759
0.217821
0.216108
0.211209
0.208035
0.205208
0.20188
0.202181
0.218878
0.239941
0.246973
0.264941
0.281554
0.28392
0.285926
0.287824
0.29443
0.299336
0.306032
0.327492
0.377767
0.488397
0.742803
0.872514
0.952961
1.04154
1.08163
1.07857
1.04606
0.98493
0.900366
0.800153
0.656867
0.55068
0.446902
0.385299
0.318529
0.274446
0.245444
0.224119
0.206736
0.189203
0.172108
0.165183
0.161537
0.15859
0.156881
0.158591
0.166965
0.175844
0.182267
0.187909
0.199305
0.208693
0.225824
0.232032
0.233425
0.236123
0.235369
0.257301
0.265123
0.261511
0.228475
0.223953
0.202539
0.209681
0.200829
0.192329
0.204294
0.20363
0.204264
0.228725
0.234898
0.230384
0.254994
0.251185
0.255908
0.263869
0.279072
0.279048
0.28252
0.299922
0.338221
0.358332
0.432014
0.476696
0.539349
0.560291
0.589314
0.672543
0.780067
0.811723
0.936689
0.983704
0.976023
1.01364
1.16778
1.2289
1.31265
1.66411
1.65826
1.57841
1.57491
1.67057
1.73025
1.78309
1.79046
1.89409
2.0659
2.01117
1.98988
1.96227
1.95716
2.14066
2.28535
2.34322
2.72444
2.92393
2.70065
2.48149
2.7185
3.12304
3.64792
4.07123
3.72403
2.90307
2.0348
2.19718
2.29132
2.26199
2.52152
3.41652
3.61334
3.50502
3.63165
4.1061
3.63547
3.29635
3.44406
4.98666
1.05711
0.232468
0.152578
0.146271
0.154619
0.176067
0.17724
0.17413
0.161193
0.162164
0.163773
0.160181
0.161421
0.169584
0.182657
0.192335
0.201484
0.206718
0.207834
0.207687
0.206123
0.201725
0.192635
0.174735
0.146764
0.125131
0.119856
0.11893
0.119834
0.125433
0.135654
0.150203
0.168987
0.189239
0.209684
0.229153
0.244065
0.258129
0.263593
0.262828
0.263702
0.265042
0.264282
0.257502
0.242737
0.221965
0.201953
0.192457
0.191716
0.211227
0.230054
0.252771
0.278701
0.286989
0.293979
0.303863
0.308605
0.31573
0.315498
0.313718
0.321167
0.3689
0.615528
0.816147
0.90951
0.982
0.993037
0.93965
0.843247
0.759796
0.668174
0.580206
0.480751
0.421218
0.35443
0.307506
0.265145
0.234383
0.214625
0.201547
0.183598
0.161449
0.152204
0.149268
0.14901
0.147018
0.146286
0.151401
0.161285
0.171623
0.180013
0.1857
0.19683
0.205351
0.216337
0.221522
0.225476
0.216355
0.203167
0.207458
0.234198
0.254468
0.220084
0.223222
0.199011
0.197198
0.202293
0.188595
0.191377
0.198347
0.197501
0.214065
0.227379
0.220723
0.242491
0.242219
0.240833
0.243387
0.263382
0.265049
0.267891
0.299492
0.33075
0.346217
0.417503
0.46042
0.528846
0.5302
0.527362
0.547668
0.618164
0.767748
0.92312
0.924768
0.907527
0.939336
1.11952
1.28743
1.35233
1.49354
1.60339
1.60212
1.59242
1.64856
1.69822
1.71089
1.7607
1.73721
1.71822
1.72594
1.77366
1.7925
1.83608
2.13889
2.21477
2.23736
2.5477
2.82045
2.64616
2.46412
2.75005
3.05226
3.42114
2.98496
3.09372
2.78032
1.9607
2.02581
2.13832
2.18103
2.4168
3.32569
3.45329
3.43786
3.55374
3.64417
3.23896
3.33784
3.34407
5.6284
1.35681
0.318005
0.171011
0.167325
0.185688
0.187128
0.186625
0.180025
0.178996
0.173778
0.167429
0.165826
0.165844
0.172272
0.188195
0.204259
0.214329
0.218751
0.220182
0.220521
0.221906
0.225397
0.225785
0.218607
0.203176
0.165938
0.146055
0.143652
0.145791
0.155552
0.17551
0.201527
0.235657
0.273606
0.306338
0.327775
0.33838
0.342376
0.341546
0.332043
0.304348
0.284953
0.277715
0.27679
0.275076
0.268014
0.242832
0.208715
0.189995
0.183413
0.188195
0.205815
0.239835
0.268374
0.283209
0.314123
0.342989
0.357137
0.358293
0.340452
0.324222
0.331912
0.444249
0.732373
0.866992
0.910481
0.908386
0.825087
0.718925
0.625274
0.530112
0.457593
0.386268
0.333778
0.28968
0.254215
0.233795
0.215192
0.19937
0.180978
0.15855
0.142547
0.137622
0.136753
0.136323
0.139293
0.143686
0.150358
0.160816
0.172567
0.183738
0.191323
0.201536
0.209885
0.216183
0.22121
0.222629
0.208018
0.197043
0.189033
0.186913
0.223265
0.198993
0.209259
0.200272
0.186973
0.197978
0.18376
0.179596
0.196104
0.192041
0.197454
0.216015
0.212514
0.222868
0.232971
0.225607
0.23198
0.269967
0.262224
0.26341
0.307737
0.325081
0.332397
0.347753
0.398771
0.473138
0.490415
0.493414
0.507479
0.557559
0.721385
0.884043
0.888377
0.916319
0.953188
1.06412
1.39599
1.49502
1.47139
1.48228
1.58649
1.59191
1.60451
1.69326
1.72375
1.77363
1.6384
1.54207
1.58426
1.58107
1.5977
1.7098
2.12089
2.22644
2.23738
2.50958
2.70543
2.47914
2.56199
2.8526
3.67542
3.41532
2.37378
2.55715
2.46714
1.91803
1.99112
2.01241
2.08511
2.31022
3.26356
3.3287
3.35448
3.54919
3.42436
2.98074
3.35531
3.3814
6.12634
1.48135
0.353913
0.173586
0.1778
0.20062
0.192097
0.198696
0.19719
0.192266
0.172879
0.164888
0.16362
0.163431
0.169256
0.184618
0.204261
0.225158
0.244483
0.248235
0.246888
0.244985
0.249931
0.260326
0.269659
0.270342
0.254683
0.219491
0.209888
0.215472
0.234576
0.279058
0.326047
0.365257
0.386966
0.392276
0.389969
0.379893
0.36616
0.361221
0.3551
0.337758
0.299296
0.271174
0.265149
0.267944
0.271082
0.267785
0.247519
0.209993
0.181233
0.167634
0.165354
0.172462
0.216626
0.253885
0.29758
0.351206
0.40174
0.421367
0.411979
0.36244
0.344306
0.366812
0.569795
0.794987
0.872464
0.870694
0.76421
0.622305
0.531575
0.446615
0.378174
0.317558
0.271914
0.245432
0.227484
0.213921
0.19713
0.178698
0.160632
0.143319
0.13511
0.133025
0.132726
0.132769
0.136796
0.144616
0.155522
0.169195
0.188123
0.207337
0.218749
0.227348
0.228507
0.225675
0.228017
0.225412
0.205082
0.195381
0.188826
0.178302
0.189711
0.185894
0.177997
0.191267
0.182535
0.18788
0.183498
0.172545
0.192853
0.183141
0.180055
0.195382
0.194303
0.199428
0.214215
0.212412
0.227177
0.279762
0.262739
0.261561
0.296841
0.313696
0.319771
0.32068
0.362617
0.427241
0.450308
0.46364
0.481188
0.538447
0.700921
0.789083
0.861606
0.91864
0.970326
1.03894
1.39989
1.52875
1.56288
1.4853
1.51293
1.50444
1.53061
1.66227
1.71541
1.72451
1.47523
1.37753
1.43178
1.47024
1.51684
1.65705
2.07185
2.26634
2.26991
2.54114
2.62324
2.22891
2.60862
3.57603
4.5356
3.40611
1.93091
2.06058
2.03359
1.87239
1.93673
1.9637
2.03094
2.19469
3.13648
3.2435
3.27348
3.50166
3.33214
2.88738
3.32759
3.46267
6.97364
1.49841
0.321977
0.168334
0.177063
0.194718
0.190356
0.195965
0.195445
0.188713
0.168167
0.161977
0.162418
0.163518
0.16875
0.183801
0.206921
0.239882
0.263181
0.275271
0.282623
0.296912
0.31546
0.333589
0.361895
0.39739
0.420744
0.426877
0.425262
0.427598
0.435173
0.442668
0.448227
0.442305
0.430038
0.417457
0.406301
0.390092
0.366488
0.35166
0.346894
0.339769
0.312867
0.257592
0.218873
0.210838
0.221026
0.23951
0.243398
0.22922
0.194075
0.165122
0.153689
0.152976
0.161711
0.188192
0.229709
0.290809
0.387405
0.464878
0.487963
0.468629
0.396073
0.380981
0.433289
0.665328
0.8169
0.838511
0.769727
0.578417
0.457048
0.382047
0.320961
0.270526
0.237899
0.2255
0.212511
0.195649
0.178489
0.163025
0.151538
0.138671
0.133722
0.132048
0.131676
0.132627
0.13917
0.157627
0.183347
0.205881
0.233384
0.256924
0.266688
0.271965
0.268671
0.260585
0.247905
0.238729
0.216531
0.197144
0.18854
0.181125
0.178459
0.184331
0.17235
0.178239
0.176177
0.175876
0.181796
0.168138
0.179181
0.181079
0.173668
0.18564
0.186348
0.186175
0.200889
0.202737
0.222474
0.26427
0.256358
0.255688
0.264562
0.305372
0.317542
0.312548
0.349157
0.40761
0.428476
0.445149
0.459145
0.524484
0.677086
0.709411
0.788254
0.865088
0.927203
0.979224
1.34633
1.49127
1.66938
1.52023
1.41355
1.38
1.48248
1.5973
1.62942
1.5445
1.35718
1.30953
1.38565
1.44454
1.5482
1.64527
2.06651
2.27565
2.28815
2.60459
2.46626
2.13459
2.69785
3.54855
4.30806
3.07954
1.74901
1.83135
1.83731
1.86301
1.93218
1.9524
2.00991
2.09223
2.91699
3.15566
3.15493
3.31276
3.17794
2.85322
3.27878
3.45155
7.86307
1.72705
0.345176
0.174072
0.179221
0.193827
0.191194
0.195277
0.193806
0.182881
0.167182
0.162941
0.166532
0.175655
0.182625
0.196007
0.217333
0.241729
0.260595
0.271022
0.279634
0.305766
0.34884
0.386868
0.414633
0.445555
0.479235
0.50631
0.521529
0.530754
0.530922
0.522791
0.496432
0.461583
0.424123
0.383566
0.357359
0.348623
0.327909
0.298744
0.290638
0.291833
0.290035
0.256759
0.203561
0.176839
0.164336
0.167372
0.189454
0.200898
0.194754
0.165213
0.14302
0.137093
0.137854
0.143661
0.154852
0.177337
0.243936
0.423382
0.531648
0.560586
0.529449
0.434591
0.427487
0.534277
0.731021
0.784397
0.756907
0.591626
0.429588
0.339509
0.279267
0.242174
0.224354
0.215074
0.198519
0.179461
0.165144
0.157266
0.15071
0.137319
0.131684
0.131039
0.131923
0.137764
0.158121
0.2057
0.246277
0.263735
0.278257
0.283876
0.28568
0.284875
0.280383
0.274269
0.263391
0.243684
0.22924
0.214855
0.191523
0.187886
0.176507
0.182809
0.172203
0.172976
0.175113
0.167193
0.171461
0.166356
0.169
0.174985
0.17166
0.181725
0.185539
0.183072
0.194237
0.202325
0.207996
0.226552
0.243254
0.244907
0.243148
0.284279
0.303328
0.303656
0.337807
0.386355
0.410648
0.430055
0.439594
0.492962
0.619958
0.623641
0.685097
0.790837
0.85142
0.913377
1.22324
1.31262
1.65183
1.64462
1.37753
1.30603
1.4469
1.4751
1.45004
1.39462
1.33719
1.33519
1.36786
1.4737
1.48975
1.58232
2.21462
2.33901
2.3481
2.60375
2.37774
2.14414
2.80382
3.34212
3.41267
2.42574
1.64149
1.76566
1.77147
1.85107
1.95819
1.96809
2.00442
2.04517
2.66743
3.05983
3.01112
3.10267
2.95171
2.84428
3.20256
3.25625
8.39207
2.40202
0.480927
0.19784
0.183503
0.201939
0.210479
0.203629
0.19695
0.183557
0.171374
0.171792
0.177367
0.184613
0.191458
0.19969
0.214519
0.233993
0.248036
0.256752
0.267121
0.28971
0.322765
0.359894
0.396724
0.420795
0.432957
0.434614
0.425579
0.402374
0.376178
0.36171
0.35483
0.344503
0.318902
0.299484
0.286858
0.27435
0.257614
0.242068
0.238279
0.253883
0.261169
0.247946
0.204094
0.175502
0.154995
0.141168
0.136344
0.144081
0.154261
0.152687
0.134108
0.123695
0.12223
0.122935
0.125999
0.135817
0.159932
0.226675
0.469896
0.609175
0.641811
0.579823
0.476625
0.484976
0.634768
0.72924
0.72732
0.614364
0.437122
0.330126
0.263753
0.226444
0.2119
0.201318
0.183174
0.168044
0.16009
0.157073
0.151536
0.137794
0.132638
0.133607
0.139955
0.158218
0.207939
0.255248
0.273452
0.279866
0.288209
0.289068
0.289552
0.285891
0.278958
0.271852
0.262068
0.24546
0.229861
0.220001
0.198315
0.193791
0.177147
0.180098
0.171144
0.170767
0.170961
0.165832
0.167245
0.164898
0.166236
0.172255
0.170507
0.179797
0.183801
0.181705
0.191275
0.199943
0.201034
0.205845
0.22607
0.227175
0.229834
0.268198
0.277948
0.286301
0.3203
0.353227
0.381662
0.399482
0.403952
0.453464
0.54519
0.540838
0.60576
0.701102
0.734859
0.830138
1.09849
1.11635
1.47703
1.6951
1.42647
1.28997
1.39529
1.42512
1.36305
1.35208
1.34381
1.37436
1.45268
1.50277
1.60048
1.81885
2.44836
2.52146
2.40498
2.55598
2.34274
2.21785
2.95805
3.18102
2.75485
1.98801
1.59133
1.78119
1.72848
1.82382
2.04669
2.04359
2.04281
2.0537
2.54261
2.94778
2.87541
2.95619
2.88908
2.86023
3.14364
2.98643
8.53867
2.9616
0.920242
0.297514
0.200067
0.208549
0.229691
0.235209
0.222252
0.194257
0.183642
0.184034
0.184598
0.186406
0.191006
0.197182
0.208433
0.221762
0.228412
0.23147
0.233234
0.231002
0.22496
0.224131
0.23433
0.243283
0.241866
0.236237
0.225409
0.21745
0.221715
0.24092
0.267992
0.283299
0.289602
0.290477
0.286861
0.272283
0.244
0.228149
0.218886
0.215448
0.230593
0.23653
0.218816
0.189733
0.169715
0.142066
0.126544
0.121243
0.12289
0.12401
0.119846
0.110929
0.108386
0.108278
0.109895
0.115612
0.129652
0.155956
0.245371
0.552383
0.702943
0.717574
0.599036
0.521682
0.552964
0.670618
0.691179
0.639021
0.457969
0.337353
0.26731
0.225064
0.201602
0.186229
0.172018
0.164356
0.161182
0.15769
0.15121
0.139557
0.137291
0.140604
0.156713
0.197958
0.246338
0.270637
0.279547
0.28116
0.286719
0.281836
0.27512
0.267842
0.258618
0.254335
0.245915
0.239589
0.230628
0.220013
0.202287
0.199636
0.181611
0.180408
0.171896
0.170655
0.169837
0.165747
0.167023
0.165669
0.166555
0.171888
0.170774
0.178764
0.1829
0.181677
0.190239
0.196393
0.198955
0.1987
0.21689
0.219144
0.224322
0.25216
0.254643
0.264994
0.29691
0.321604
0.343742
0.362799
0.370054
0.407126
0.475971
0.481
0.543753
0.620577
0.638653
0.732786
0.908064
0.94852
1.37284