/*--------------------------------*- C++ -*----------------------------------*\
| =========                 |                                                 |
| \\      /  F ield         | OpenFOAM: The Open Source CFD Toolbox           |
|  \\    /   O peration     | Version:  dev                                   |
|   \\  /    A nd           | Web:      http://www.openfoam.org               |
|    \\/     M anipulation  |                                                 |
\*---------------------------------------------------------------------------*/
FoamFile
{
    version     2.0;
    format      ascii;
    class       volScalarField;
    object      muSgs;
    location    "9.15";
}
// * * * * * * * * * * * * * * * * * * * * * * * * * * * * * * * * * * * * * //

dimensions      [1 -1 -1 0 0 0 0];

internalField   nonuniform List<scalar> 
12225
(
0.000212431
0.000209296
0.000163355
0.000154829
0.000140009
0.000148691
0.000151265
0.000155146
0.000170107
0.000163567
0.000188549
0.000170504
0.000200948
0.000173483
0.000203266
0.00016897
0.000191405
0.000211249
0.000116565
0.000185605
0.000169426
0.000179003
0.000152089
0.000169024
0.000141712
0.000164499
0.000142101
0.000161378
0.000147808
0.000155365
0.000154338
0.000147354
0.000160477
0.000140565
0.000218756
0.000241016
4.08435e-05
0.000110137
0.000116139
0.000139752
0.000126055
0.000140691
0.000123773
0.000134251
0.000123767
0.000121502
0.000128028
0.000108188
0.000129357
9.69778e-05
0.000129209
9.76895e-05
0.000192353
0.000240448
1.31832e-05
5.1786e-05
6.19184e-05
7.63407e-05
8.35214e-05
8.69589e-05
9.4532e-05
9.07102e-05
0.000103902
8.76273e-05
0.000106671
7.97206e-05
9.8273e-05
7.04146e-05
9.54633e-05
7.12199e-05
0.000133777
0.000189682
5.58686e-06
2.29395e-05
3.26906e-05
4.00375e-05
5.10125e-05
5.35834e-05
6.3054e-05
6.07363e-05
7.09385e-05
6.02392e-05
7.21407e-05
5.59295e-05
6.85752e-05
5.14477e-05
6.8164e-05
5.46577e-05
8.79533e-05
0.00010794
5.91455e-06
1.38117e-05
1.86721e-05
2.20058e-05
2.95136e-05
3.0634e-05
3.86523e-05
3.63024e-05
4.58381e-05
3.83158e-05
4.77845e-05
3.79979e-05
4.66709e-05
3.72098e-05
4.81572e-05
4.01103e-05
6.01878e-05
6.1531e-05
7.24065e-06
8.62235e-06
1.19162e-05
1.26409e-05
1.73027e-05
1.74792e-05
2.35368e-05
2.18784e-05
2.93339e-05
2.52239e-05
3.17434e-05
2.65924e-05
3.17274e-05
2.80333e-05
3.44499e-05
3.10462e-05
4.18425e-05
4.02779e-05
6.37498e-06
6.91345e-06
8.17589e-06
8.53391e-06
1.05974e-05
1.08637e-05
1.39e-05
1.37598e-05
1.76364e-05
1.68198e-05
1.99052e-05
1.86681e-05
2.06207e-05
1.9885e-05
2.23001e-05
2.18168e-05
2.58206e-05
2.54687e-05
7.73365e-06
7.96635e-06
8.66866e-06
9.14598e-06
1.03872e-05
1.10848e-05
1.26031e-05
1.34149e-05
1.574e-05
1.66279e-05
1.84164e-05
1.92327e-05
1.97286e-05
2.00481e-05
2.07357e-05
2.07214e-05
2.2548e-05
2.25396e-05
1.0422e-05
1.05587e-05
1.01829e-05
1.08941e-05
1.15268e-05
1.29212e-05
1.36627e-05
1.53573e-05
1.67301e-05
1.88612e-05
1.98775e-05
2.13882e-05
2.13211e-05
2.17348e-05
2.19231e-05
2.19994e-05
2.26767e-05
2.29024e-05
1.56092e-05
1.49458e-05
1.39769e-05
1.49234e-05
1.491e-05
1.71779e-05
1.73082e-05
2.02486e-05
2.05309e-05
2.37075e-05
2.39384e-05
2.58058e-05
2.52213e-05
2.52278e-05
2.49107e-05
2.48945e-05
2.50405e-05
2.52831e-05
2.33791e-05
2.27184e-05
2.12215e-05
2.21941e-05
2.21587e-05
2.53651e-05
2.58767e-05
2.9574e-05
2.98806e-05
3.33902e-05
3.36844e-05
3.53013e-05
3.46038e-05
3.3899e-05
3.29469e-05
3.22228e-05
3.17154e-05
3.16702e-05
3.8335e-05
3.61348e-05
3.45204e-05
3.50313e-05
3.53158e-05
3.81319e-05
3.91463e-05
4.33298e-05
4.50744e-05
4.75314e-05
4.78086e-05
4.79036e-05
4.70027e-05
4.59381e-05
4.48594e-05
4.38184e-05
4.29574e-05
4.22749e-05
5.67929e-05
5.28498e-05
5.09072e-05
5.02893e-05
5.01766e-05
5.30564e-05
5.55206e-05
5.87615e-05
6.06514e-05
6.21881e-05
6.24112e-05
6.18867e-05
6.10421e-05
5.99921e-05
5.89997e-05
5.79255e-05
5.6775e-05
5.54565e-05
8.17092e-05
7.62553e-05
7.33019e-05
7.17269e-05
7.11917e-05
7.4771e-05
8.03858e-05
8.41853e-05
8.58622e-05
8.61632e-05
8.52954e-05
8.38677e-05
8.21339e-05
8.0263e-05
7.8208e-05
7.59528e-05
7.31709e-05
7.07614e-05
0.000116108
0.000106414
0.000100858
9.72696e-05
9.5629e-05
9.69922e-05
0.000101383
0.000103847
0.000104487
0.00010376
0.000102124
0.000100047
9.78008e-05
9.54389e-05
9.25547e-05
8.93439e-05
8.54827e-05
8.23273e-05
0.000140248
0.000126752
0.000118712
0.00011388
0.000111683
0.000112259
0.000116092
0.00011801
0.00011813
0.000116838
0.00011473
0.00011227
0.000109746
0.000107059
0.000103617
9.98133e-05
9.52954e-05
9.16258e-05
0.000143776
0.000129442
0.000120894
0.000116141
0.000113953
0.000114688
0.000118398
0.000120156
0.000120166
0.000118726
0.000116508
0.000114011
0.00011146
0.000108717
0.000105177
0.000101261
9.66365e-05
9.28686e-05
0.000127456
0.000116234
0.000109996
0.000106494
0.000104827
0.000106265
0.000109908
0.00011177
0.000112007
0.000110818
0.000108785
0.000106479
0.00010413
0.000101574
9.82654e-05
9.4629e-05
9.02764e-05
8.67202e-05
9.82731e-05
9.03634e-05
8.79196e-05
8.64143e-05
8.62256e-05
8.96547e-05
9.41829e-05
9.72284e-05
9.85404e-05
9.82365e-05
9.67602e-05
9.48426e-05
9.27952e-05
9.05637e-05
8.779e-05
8.47503e-05
8.09553e-05
7.77608e-05
7.32564e-05
6.75623e-05
6.50203e-05
6.34758e-05
6.28002e-05
6.45931e-05
6.92378e-05
7.27817e-05
7.49186e-05
7.57629e-05
7.53695e-05
7.42098e-05
7.27382e-05
7.11796e-05
6.95591e-05
6.77349e-05
6.54707e-05
6.29122e-05
5.1753e-05
4.88555e-05
4.77507e-05
4.69812e-05
4.67101e-05
4.78347e-05
5.07225e-05
5.3687e-05
5.60512e-05
5.72082e-05
5.70474e-05
5.61591e-05
5.4997e-05
5.37307e-05
5.22029e-05
5.06945e-05
4.89368e-05
4.72741e-05
3.50839e-05
3.39513e-05
3.32503e-05
3.24748e-05
3.1904e-05
3.22702e-05
3.44223e-05
3.71456e-05
3.93491e-05
4.08651e-05
4.15936e-05
4.18786e-05
4.19153e-05
4.17888e-05
4.14203e-05
4.08638e-05
4.00907e-05
3.92247e-05
2.26999e-05
2.2802e-05
2.2271e-05
2.19409e-05
2.23957e-05
2.36163e-05
2.63168e-05
2.92874e-05
3.16997e-05
3.35738e-05
3.48859e-05
3.59034e-05
3.66273e-05
3.715e-05
3.73423e-05
3.72918e-05
3.69637e-05
3.6468e-05
1.36362e-05
1.37688e-05
1.5255e-05
1.74381e-05
2.03362e-05
2.28259e-05
2.59918e-05
2.90592e-05
3.14546e-05
3.33889e-05
3.48899e-05
3.6222e-05
3.73212e-05
3.81915e-05
3.86232e-05
3.87573e-05
3.84784e-05
3.80157e-05
5.77355e-06
9.59547e-06
1.50911e-05
2.2498e-05
2.96889e-05
3.44742e-05
3.82791e-05
4.1175e-05
4.3273e-05
4.49844e-05
4.63512e-05
4.76739e-05
4.89415e-05
4.98518e-05
5.02421e-05
5.01801e-05
4.96278e-05
4.87553e-05
5.02324e-06
1.76508e-05
3.35779e-05
5.03307e-05
6.14395e-05
6.7566e-05
7.08581e-05
7.24819e-05
7.36155e-05
7.45065e-05
7.5085e-05
7.54811e-05
7.58068e-05
7.56212e-05
7.4791e-05
7.35363e-05
7.19486e-05
7.01913e-05
1.66707e-05
5.91589e-05
9.50613e-05
0.000111563
0.000120363
0.00012384
0.000124112
0.000123005
0.000121827
0.000120345
0.000118335
0.000116045
0.000113435
0.000110291
0.000106737
0.000103196
9.93055e-05
9.58987e-05
7.39714e-05
0.000175292
0.00020319
0.000203968
0.000197636
0.000188048
0.000178487
0.000170047
0.000162197
0.000154952
0.00014837
0.000141956
0.000135547
0.000129413
0.000123735
0.000118209
0.000113093
0.000107453
0.000236486
0.000279425
0.000254062
0.00021906
0.00019422
0.000180983
0.000174243
0.000170682
0.000168294
0.000166393
0.000164568
0.000162641
0.000160467
0.000158025
0.000155359
0.000152479
0.000149086
0.000142868
2.78337e-05
3.48461e-05
3.54375e-05
3.54554e-05
3.54994e-05
3.5746e-05
3.65484e-05
3.79785e-05
3.95041e-05
4.10515e-05
4.24458e-05
4.38137e-05
4.51845e-05
4.67449e-05
4.85917e-05
5.05191e-05
5.24322e-05
5.43484e-05
5.63289e-05
5.84139e-05
6.06256e-05
6.30331e-05
6.54411e-05
6.78854e-05
7.04721e-05
7.3321e-05
7.63578e-05
7.95397e-05
8.29093e-05
8.67408e-05
9.0888e-05
9.54636e-05
0.000100363
0.00010556
0.000110896
0.000117369
0.000124106
0.000130659
0.000138266
0.000146095
0.000153495
0.000161184
0.000168657
0.000174293
0.000182264
0.000187035
0.000184567
0.000176465
0.000174006
0.000175636
0.000176405
0.000175849
0.000173984
0.000174349
0.000177457
0.000182843
0.000187643
0.000191048
0.000193148
0.000193577
0.000192067
0.000190167
0.000191718
0.000195997
0.000204776
0.000215338
0.000228165
0.000248719
0.000264476
0.000285728
0.000299683
0.000299926
0.000293646
0.000274718
0.00025102
0.000239455
0.000238371
0.000240153
0.000243038
0.000242748
0.000242892
0.000249574
0.000266686
0.000283382
0.000296045
0.000304323
0.00030923
0.000311461
0.000310808
0.000308736
0.000307377
0.000305872
0.000301743
0.000295437
0.000286334
0.000275852
0.000266796
0.000259603
0.00025218
0.000244096
0.000230095
0.000225112
0.000215801
0.000205744
0.000200846
0.000191461
0.000187318
0.00018179
0.00017913
0.00017735
0.000177337
0.000179653
0.000183044
0.00018798
0.000195203
0.000201817
0.000204871
0.000206216
0.000211885
0.000226498
0.000237346
0.000241535
0.000244589
0.000248189
0.000251152
0.00025313
0.000255596
0.00025992
0.000261424
0.000262938
0.000264596
0.000268634
0.000271563
0.000276494
0.000282309
0.000293046
0.000310801
0.00033351
0.000354039
0.000363
0.000376276
0.000389621
0.000401985
0.000411808
0.000413118
0.000417213
0.000422981
0.000429709
0.00043722
0.000446709
0.000451453
0.000458461
0.00047899
0.000490446
0.000503835
0.000507698
0.000518015
0.000511844
0.000506729
0.000492067
0.000468142
0.000442566
0.000407735
0.000383473
0.000377423
0.000375451
0.000366817
0.000373399
0.000388687
0.000421235
0.000460398
0.000454829
0.000443012
0.000410964
0.000388896
0.000396722
0.000417014
0.000467823
0.000536772
0.000585757
3.82024e-05
3.44579e-05
3.23897e-05
2.96568e-05
2.81554e-05
2.76806e-05
2.77097e-05
2.8097e-05
2.85773e-05
2.8997e-05
2.94734e-05
3.00362e-05
3.06053e-05
3.12668e-05
3.21309e-05
3.30336e-05
3.38837e-05
3.46686e-05
3.54765e-05
3.6347e-05
3.73264e-05
3.85191e-05
3.95042e-05
4.02784e-05
4.08719e-05
4.16101e-05
4.23787e-05
4.31313e-05
4.37677e-05
4.45021e-05
4.52607e-05
4.61554e-05
4.70937e-05
4.79083e-05
4.85154e-05
4.96774e-05
5.12375e-05
5.23803e-05
5.47479e-05
5.72185e-05
6.00039e-05
6.63861e-05
7.14683e-05
8.24173e-05
9.16386e-05
0.000104606
0.000121373
0.00012965
0.00013168
0.000137316
0.000136748
0.000132064
0.000120299
0.000112134
0.000107472
0.000105791
0.000106363
0.000107686
0.000107747
0.00010386
9.17423e-05
8.35878e-05
8.14537e-05
8.28378e-05
8.53642e-05
8.78718e-05
9.02792e-05
9.48621e-05
0.000100364
0.000111351
0.000133133
0.000166539
0.000190721
0.00019718
0.000190852
0.000171913
0.000169731
0.000179136
0.00021376
0.000233592
0.000239851
0.000244186
0.00024466
0.000236269
0.00022457
0.000210678
0.000196521
0.000184741
0.000175483
0.000169726
0.000164361
0.00015944
0.000151229
0.000143923
0.000137429
0.000134619
0.000133532
0.000132201
0.000128789
0.000124188
0.000121494
0.000121742
0.000118441
0.000118952
0.000119483
0.000118119
0.0001203
0.000120414
0.000122234
0.000121459
0.000122353
0.000126957
0.000129645
0.000133347
0.000140779
0.000150606
0.000155697
0.000151925
0.000148741
0.000154197
0.00016761
0.000174888
0.000179752
0.000186482
0.000188943
0.000188845
0.000192048
0.000200136
0.00020514
0.000205053
0.000205398
0.000206483
0.000211995
0.000216715
0.000221735
0.00022478
0.000231486
0.000246814
0.000269409
0.000282305
0.000283461
0.00028458
0.000292997
0.00030703
0.000315939
0.000319288
0.000326968
0.000341951
0.000357624
0.00036762
0.000360841
0.00034014
0.000347508
0.000381204
0.000405519
0.000415239
0.000427329
0.000429294
0.000443535
0.000448307
0.000437391
0.000415252
0.000384749
0.000369333
0.000369023
0.000364352
0.00036343
0.000382835
0.000405121
0.000437966
0.000472835
0.000485697
0.000471742
0.000434261
0.000397655
0.000394198
0.000409247
0.000451001
0.000483903
0.000530451
5.49959e-05
3.52033e-05
3.03416e-05
2.7914e-05
2.59139e-05
2.48237e-05
2.46325e-05
2.47631e-05
2.49631e-05
2.5383e-05
2.61924e-05
2.72508e-05
2.81358e-05
2.88375e-05
2.98204e-05
3.11068e-05
3.2263e-05
3.32427e-05
3.40491e-05
3.46833e-05
3.53469e-05
3.61725e-05
3.68037e-05
3.71167e-05
3.73626e-05
3.78063e-05
3.84986e-05
3.93438e-05
3.99515e-05
4.03859e-05
4.08023e-05
4.14674e-05
4.23485e-05
4.34183e-05
4.45672e-05
4.54612e-05
4.62981e-05
4.69436e-05
4.73289e-05
4.73419e-05
4.7601e-05
4.81746e-05
4.84993e-05
4.97068e-05
5.20462e-05
5.62103e-05
6.2676e-05
7.45241e-05
7.97164e-05
8.78914e-05
9.35551e-05
0.000101976
0.000108375
0.00010725
0.000107265
0.000103882
9.33831e-05
8.3568e-05
7.48162e-05
6.79223e-05
6.41678e-05
6.42695e-05
6.70246e-05
7.42787e-05
7.79646e-05
7.94426e-05
8.23299e-05
8.5636e-05
8.71787e-05
8.81107e-05
9.09439e-05
9.9121e-05
0.000119032
0.000131183
0.000142068
0.000171999
0.000202011
0.000209045
0.000212253
0.000207449
0.000194453
0.000177885
0.000162342
0.000148499
0.000132075
0.000118852
0.000108283
0.00010209
9.85868e-05
9.65572e-05
9.46924e-05
9.26762e-05
8.91024e-05
8.63924e-05
8.55752e-05
8.58831e-05
8.72151e-05
8.80266e-05
8.78871e-05
8.73279e-05
8.60448e-05
8.59072e-05
8.42897e-05
8.52028e-05
8.70359e-05
8.70717e-05
8.95598e-05
9.16563e-05
9.32719e-05
9.19433e-05
9.19948e-05
9.51998e-05
9.64914e-05
9.61684e-05
9.66259e-05
0.000105167
0.000116952
0.000115889
0.000107325
0.000106527
0.00011513
0.000123394
0.000124673
0.000130558
0.0001385
0.000140206
0.000139657
0.000146234
0.000156472
0.000161538
0.000166347
0.000173804
0.000179974
0.000182362
0.000182543
0.000179523
0.000178113
0.000192157
0.00021248
0.000225648
0.000227555
0.000232983
0.000241698
0.000251975
0.000260176
0.000261207
0.00026485
0.000280734
0.000302748
0.000303874
0.000284931
0.000257571
0.000258743
0.00028871
0.000309951
0.000327854
0.000344903
0.000356205
0.000366539
0.000384863
0.000393682
0.000380912
0.000371681
0.000366501
0.000362502
0.000321113
0.000305196
0.000315257
0.000326835
0.000358891
0.000398439
0.000436649
0.000433848
0.000402947
0.000377937
0.000383631
0.000406288
0.000400269
0.000464566
0.000455649
7.95645e-05
3.98742e-05
3.1118e-05
2.86288e-05
2.68826e-05
2.51758e-05
2.45799e-05
2.47331e-05
2.49804e-05
2.58518e-05
2.75395e-05
2.95335e-05
3.11419e-05
3.16569e-05
3.21262e-05
3.27333e-05
3.31623e-05
3.35918e-05
3.37883e-05
3.38489e-05
3.3896e-05
3.38191e-05
3.34756e-05
3.33655e-05
3.3531e-05
3.38073e-05
3.4227e-05
3.47882e-05
3.55919e-05
3.6824e-05
3.86984e-05
4.04173e-05
4.13231e-05
4.23265e-05
4.38316e-05
4.52552e-05
4.6212e-05
4.64832e-05
4.70706e-05
4.76001e-05
4.76828e-05
4.77366e-05
4.78842e-05
4.80456e-05
4.80259e-05
4.81894e-05
4.92363e-05
5.17984e-05
5.44526e-05
5.72538e-05
6.36974e-05
6.788e-05
7.3793e-05
8.491e-05
9.51886e-05
9.85155e-05
9.90672e-05
9.57016e-05
8.11175e-05
6.88229e-05
6.44324e-05
6.45735e-05
6.94159e-05
7.69745e-05
8.02469e-05
8.27564e-05
8.62809e-05
9.00227e-05
9.15891e-05
9.20109e-05
9.27558e-05
9.59863e-05
0.000106228
0.000126868
0.000170989
0.000198041
0.000199621
0.00019109
0.000170605
0.000154195
0.000137553
0.000122664
0.000110291
9.89478e-05
8.80146e-05
7.98806e-05
7.5179e-05
7.29148e-05
7.18892e-05
7.14882e-05
7.13154e-05
7.09159e-05
6.98597e-05
6.92251e-05
6.91448e-05
7.01688e-05
7.21661e-05
7.34298e-05
7.38517e-05
7.53575e-05
7.54862e-05
7.70864e-05
7.4639e-05
7.45366e-05
7.54899e-05
7.60598e-05
7.84543e-05
8.06066e-05
8.40163e-05
8.27274e-05
8.12811e-05
8.3223e-05
8.61093e-05
8.74833e-05
8.49316e-05
8.37797e-05
9.59013e-05
0.000102982
9.95446e-05
9.4723e-05
9.80151e-05
0.000105147
0.00010631
0.000106212
0.000111567
0.000117965
0.000117366
0.000116933
0.00012764
0.00013774
0.000143945
0.000157772
0.00016807
0.000167433
0.00016729
0.000162942
0.000157976
0.000164076
0.000189545
0.000201199
0.000205794
0.000212981
0.00022034
0.000225867
0.000231638
0.000233881
0.000240174
0.000249805
0.000268416
0.000270135
0.000255604
0.000236911
0.000230189
0.000248179
0.00025593
0.000272524
0.000295771
0.000311453
0.000317725
0.000336802
0.000355293
0.000355579
0.000364112
0.000358813
0.00034198
0.000293258
0.000289777
0.000301403
0.000288819
0.00028462
0.000322413
0.000387054
0.000405541
0.000385219
0.000370901
0.00038942
0.000391481
0.000398588
0.000443829
0.000434148
9.87804e-05
4.94454e-05
3.2612e-05
3.07033e-05
2.99738e-05
2.71584e-05
2.52412e-05
2.53365e-05
2.60154e-05
2.8999e-05
3.22183e-05
3.32064e-05
3.31834e-05
3.30895e-05
3.2605e-05
3.23056e-05
3.23456e-05
3.20392e-05
3.15806e-05
3.12902e-05
3.08955e-05
3.03709e-05
3.00946e-05
3.01676e-05
3.03782e-05
3.07042e-05
3.12415e-05
3.19761e-05
3.28671e-05
3.38392e-05
3.49199e-05
3.61704e-05
3.74002e-05
3.86488e-05
3.96616e-05
4.09146e-05
4.25062e-05
4.39577e-05
4.51224e-05
4.58814e-05
4.68135e-05
4.78429e-05
4.81981e-05
4.84765e-05
4.91892e-05
4.93946e-05
4.92559e-05
4.94464e-05
5.00415e-05
5.01641e-05
5.16176e-05
5.3497e-05
5.56383e-05
5.93926e-05
6.5107e-05
7.77091e-05
8.76516e-05
8.99816e-05
8.89982e-05
8.06236e-05
7.22079e-05
7.18906e-05
7.84216e-05
8.47585e-05
8.64492e-05
8.8774e-05
9.34056e-05
9.86013e-05
0.000102291
0.000104577
0.000106497
0.000110924
0.000126785
0.00016104
0.000182189
0.000187735
0.000170938
0.000146531
0.000125557
0.000110552
9.85599e-05
8.91769e-05
8.13077e-05
7.39044e-05
6.79195e-05
6.32742e-05
6.11652e-05
6.02747e-05
6.00006e-05
6.00954e-05
6.06455e-05
6.09251e-05
6.09069e-05
6.0843e-05
6.10751e-05
6.22399e-05
6.42433e-05
6.52425e-05
6.53491e-05
6.67447e-05
6.8364e-05
7.17298e-05
6.94784e-05
6.8911e-05
6.89648e-05
6.913e-05
7.11984e-05
7.19887e-05
7.75517e-05
7.76828e-05
7.49737e-05
7.57532e-05
7.63347e-05
7.93205e-05
8.10538e-05
7.87549e-05
7.83418e-05
9.09481e-05
9.39396e-05
9.09128e-05
9.05336e-05
9.41743e-05
9.83589e-05
9.88765e-05
0.000100443
0.000106589
0.000109362
0.000106335
0.000109691
0.000122763
0.000134258
0.000143897
0.000152436
0.0001584
0.000167076
0.000172653
0.000167746
0.000157939
0.000173742
0.000192619
0.000198587
0.000201432
0.000208867
0.000212002
0.000212388
0.000213421
0.000225646
0.000241072
0.000254425
0.000253937
0.000243945
0.000231704
0.000225079
0.000239151
0.00023151
0.000241482
0.000266571
0.000288121
0.000297246
0.000314487
0.000326849
0.000329015
0.000346847
0.000345653
0.000320997
0.000288822
0.000281751
0.000303003
0.000305393
0.000273349
0.000266077
0.000341097
0.000377253
0.000374748
0.000371152
0.000391853
0.000373422
0.00039409
0.000349716
0.000460316
0.000115247
5.96645e-05
3.4614e-05
3.15692e-05
3.16864e-05
2.91841e-05
2.70902e-05
2.69708e-05
2.90996e-05
3.44118e-05
3.55617e-05
3.3415e-05
3.28224e-05
3.23213e-05
3.14701e-05
3.1088e-05
3.06405e-05
3.03935e-05
2.99699e-05
2.9688e-05
2.93913e-05
2.89241e-05
2.85586e-05
2.85804e-05
2.87424e-05
2.89505e-05
2.93154e-05
2.99005e-05
3.06708e-05
3.15743e-05
3.25599e-05
3.36751e-05
3.48337e-05
3.60375e-05
3.70924e-05
3.83439e-05
3.94034e-05
4.04577e-05
4.17355e-05
4.28827e-05
4.40704e-05
4.53907e-05
4.6583e-05
4.76852e-05
4.86129e-05
4.8968e-05
4.95666e-05
5.01813e-05
5.05842e-05
5.0402e-05
5.06331e-05
5.13447e-05
5.14886e-05
5.16765e-05
5.34086e-05
5.70903e-05
6.41971e-05
7.72401e-05
8.27049e-05
8.28884e-05
8.06648e-05
8.0515e-05
8.33507e-05
8.86714e-05
9.15735e-05
9.54661e-05
0.000100907
0.000106034
0.000110291
0.000114925
0.000121468
0.000131459
0.000146708
0.000162496
0.000166198
0.000148334
0.000125811
0.000109426
9.34031e-05
8.23892e-05
7.59445e-05
7.09178e-05
6.62565e-05
6.18284e-05
5.8364e-05
5.57394e-05
5.4824e-05
5.46227e-05
5.46898e-05
5.50612e-05
5.60141e-05
5.68112e-05
5.73023e-05
5.75402e-05
5.79586e-05
5.90346e-05
6.07268e-05
6.21526e-05
6.22667e-05
6.2734e-05
6.45955e-05
6.6166e-05
6.56205e-05
6.53208e-05
6.50655e-05
6.48828e-05
6.51383e-05
6.2358e-05
6.62247e-05
7.09928e-05
6.88061e-05
7.06209e-05
7.15215e-05
6.95631e-05
7.15213e-05
7.27908e-05
7.2931e-05
7.48953e-05
8.13026e-05
8.1505e-05
8.15427e-05
8.2726e-05
8.71256e-05
9.02372e-05
9.38447e-05
9.96225e-05
0.000104123
0.000103266
0.000100442
0.000110265
0.000125842
0.000137813
0.000139113
0.000138046
0.000149046
0.000164974
0.000176512
0.000166287
0.000160306
0.000179294
0.000194391
0.000198766
0.000196932
0.00019321
0.000195829
0.000200326
0.000213336
0.000224005
0.00024237
0.000245047
0.0002387
0.000229781
0.000223005
0.000235226
0.000218346
0.00022877
0.000249805
0.000277945
0.000283974
0.000303144
0.000313156
0.000322052
0.000337508
0.000344042
0.000325266
0.000305336
0.000266987
0.0002624
0.000307892
0.000285006
0.000243714
0.000299747
0.000352207
0.000365191
0.000372719
0.000383913
0.000374733
0.000360749
0.000328239
0.00043119
0.000129766
7.01161e-05
3.90464e-05
3.36499e-05
3.31742e-05
2.9636e-05
2.95922e-05
3.17628e-05
3.44573e-05
3.52756e-05
3.44366e-05
3.25831e-05
3.16245e-05
3.13459e-05
3.12407e-05
3.07269e-05
3.06941e-05
3.04273e-05
3.01341e-05
2.99369e-05
2.9528e-05
2.90203e-05
2.84554e-05
2.83183e-05
2.84044e-05
2.85839e-05
2.8886e-05
2.93373e-05
2.99239e-05
3.06482e-05
3.1471e-05
3.2505e-05
3.3655e-05
3.482e-05
3.58923e-05
3.70543e-05
3.80468e-05
3.9047e-05
4.01684e-05
4.10751e-05
4.18874e-05
4.25869e-05
4.33442e-05
4.40176e-05
4.50817e-05
4.64581e-05
4.79907e-05
4.87464e-05
4.97599e-05
5.08133e-05
5.13072e-05
5.1937e-05
5.24802e-05
5.18838e-05
5.18662e-05
5.30937e-05
5.51166e-05
5.86408e-05
6.80585e-05
7.56551e-05
7.78867e-05
7.98845e-05
8.31812e-05
9.11001e-05
9.67771e-05
0.000101542
0.000106587
0.000110801
0.000114585
0.00011879
0.000125484
0.000132542
0.000142061
0.000142549
0.00012859
0.000112275
9.65829e-05
8.48821e-05
7.49294e-05
6.80608e-05
6.43789e-05
6.1265e-05
5.81313e-05
5.51158e-05
5.2578e-05
5.15061e-05
5.12221e-05
5.12436e-05
5.14376e-05
5.20184e-05
5.3e-05
5.42646e-05
5.5137e-05
5.5652e-05
5.61163e-05
5.71852e-05
5.83464e-05
5.98472e-05
6.05645e-05
6.11413e-05
6.30909e-05
6.3761e-05
6.27427e-05
6.21831e-05
6.10591e-05
5.97165e-05
5.97991e-05
5.66715e-05
5.61288e-05
6.1651e-05
5.98544e-05
6.05655e-05
6.47567e-05
6.43584e-05
6.30276e-05
6.47954e-05
6.68443e-05
6.64066e-05
6.93968e-05
7.17444e-05
7.27178e-05
7.39419e-05
7.69746e-05
7.98216e-05
8.44283e-05
9.10239e-05
9.58302e-05
9.77479e-05
9.70459e-05
0.000102764
0.000117602
0.000129147
0.000133352
0.000135769
0.000136491
0.000146293
0.000166531
0.000168389
0.000148173
0.000162205
0.000187523
0.000193426
0.000188333
0.000187191
0.000197061
0.000199271
0.000211782
0.000209334
0.000218367
0.00023195
0.000236194
0.000229711
0.000221715
0.000231696
0.000210306
0.000224389
0.00023842
0.000274767
0.000261501
0.0002745
0.000297211
0.000324526
0.00033248
0.000326151
0.000335618
0.000336263
0.000274983
0.000227983
0.00027577
0.000277645
0.000235704
0.000265973
0.000328041
0.000355214
0.000370858
0.000376667
0.000378078
0.000319137
0.000323505
0.000369155
0.000143954
7.32564e-05
3.99642e-05
3.36987e-05
3.3418e-05
3.06324e-05
3.13237e-05
3.55229e-05
3.61169e-05
3.40264e-05
3.31567e-05
3.26847e-05
3.19351e-05
3.16532e-05
3.15526e-05
3.12673e-05
3.1292e-05
3.14132e-05
3.14215e-05
3.1257e-05
3.10555e-05
3.03658e-05
2.95023e-05
2.88397e-05
2.84929e-05
2.85411e-05
2.86854e-05
2.89839e-05
2.94759e-05
3.0169e-05
3.09464e-05
3.19361e-05
3.30615e-05
3.42686e-05
3.5458e-05
3.67047e-05
3.77904e-05
3.8829e-05
3.99409e-05
4.09119e-05
4.15181e-05
4.19171e-05
4.23565e-05
4.26843e-05
4.31183e-05
4.39152e-05
4.48367e-05
4.58103e-05
4.71782e-05
4.90514e-05
5.04712e-05
5.12182e-05
5.29364e-05
5.3401e-05
5.31494e-05
5.39365e-05
5.50971e-05
5.62344e-05
5.81758e-05
6.28674e-05
6.94848e-05
7.41822e-05
8.09505e-05
9.2442e-05
9.8761e-05
0.000103601
0.00010842
0.000112215
0.000115681
0.000118323
0.000122031
0.000123673
0.00012122
0.000112379
0.00010088
8.95566e-05
8.02215e-05
7.13066e-05
6.5188e-05
6.07114e-05
5.76362e-05
5.49135e-05
5.24081e-05
5.03219e-05
4.86081e-05
4.80514e-05
4.78026e-05
4.76738e-05
4.78468e-05
4.8844e-05
4.99622e-05
5.0658e-05
5.19791e-05
5.35511e-05
5.4433e-05
5.612e-05
5.70426e-05
5.75174e-05
5.85691e-05
5.96269e-05
6.17122e-05
6.2256e-05
6.13909e-05
5.92525e-05
5.83017e-05
5.61877e-05
5.67808e-05
5.54522e-05
5.38608e-05
5.6403e-05
5.63883e-05
5.54121e-05
5.97898e-05
5.99557e-05
5.83726e-05
6.07108e-05
6.29328e-05
6.20204e-05
6.31022e-05
6.78229e-05
6.66993e-05
6.62992e-05
7.08619e-05
7.36453e-05
7.54732e-05
8.27554e-05
8.77417e-05
9.45278e-05
9.56568e-05
9.63442e-05
0.000106964
0.000117814
0.000130362
0.000137863
0.000129872
0.000126236
0.000149708
0.000166686
0.000150406
0.000144498
0.00017137
0.000186255
0.000187175
0.000188175
0.000195588
0.0001808
0.000199263
0.000200969
0.000195952
0.000215412
0.000225813
0.000220117
0.000214385
0.000223855
0.000203763
0.000224446
0.000239779
0.000281954
0.000260565
0.000262115
0.000264168
0.000282128
0.00032353
0.000306811
0.000326966
0.000339813
0.000276591
0.000204829
0.000239702
0.000250073
0.000225691
0.000237361
0.00030417
0.000347495
0.000365654
0.000368378
0.000376319
0.000319295
0.000308951
0.000310218
0.000158107
7.58407e-05
3.995e-05
3.29563e-05
3.18736e-05
3.15615e-05
3.43758e-05
3.55198e-05
3.56642e-05
3.33985e-05
3.30207e-05
3.28625e-05
3.22194e-05
3.24757e-05
3.31613e-05
3.39698e-05
3.45735e-05
3.562e-05
3.61301e-05
3.63401e-05
3.6376e-05
3.57894e-05
3.43975e-05
3.22187e-05
3.06619e-05
2.97902e-05
2.94832e-05
2.94951e-05
2.97744e-05
3.0256e-05
3.10768e-05
3.21609e-05
3.34358e-05
3.48825e-05
3.63923e-05
3.79484e-05
3.95055e-05
4.09005e-05
4.21517e-05
4.32212e-05
4.39671e-05
4.44685e-05
4.47944e-05
4.48535e-05
4.44635e-05
4.42107e-05
4.39713e-05
4.36476e-05
4.37024e-05
4.54862e-05
4.84356e-05
4.93636e-05
5.1475e-05
5.38647e-05
5.44448e-05
5.53346e-05
5.63395e-05
5.73508e-05
5.83875e-05
5.91044e-05
6.03612e-05
6.39518e-05
7.19711e-05
9.02569e-05
9.85527e-05
0.000103167
0.000108992
0.000111847
0.000112436
0.000111612
0.000109196
0.000105163
0.000100068
9.14479e-05
8.40483e-05
7.57606e-05
7.00075e-05
6.3222e-05
5.81891e-05
5.46507e-05
5.21024e-05
5.01868e-05
4.83476e-05
4.64208e-05
4.5663e-05
4.52229e-05
4.47833e-05
4.45578e-05
4.48599e-05
4.61772e-05
4.76627e-05
4.87764e-05
4.9608e-05
5.12869e-05
5.24514e-05
5.45623e-05
5.56784e-05
5.62062e-05
5.65372e-05
5.63269e-05
5.85963e-05
6.01011e-05
6.00993e-05
5.71693e-05
5.60623e-05
5.4514e-05
5.40263e-05
5.43475e-05
5.31213e-05
5.38698e-05
5.50552e-05
5.37528e-05
5.61149e-05
5.8018e-05
5.65342e-05
5.85957e-05
6.09082e-05
5.91811e-05
5.9088e-05
6.53806e-05
6.39534e-05
6.18245e-05
6.62107e-05
7.15527e-05
7.24103e-05
7.75847e-05
8.34162e-05
9.40026e-05
9.46177e-05
8.89846e-05
9.25373e-05
0.000104837
0.00012469
0.000136796
0.000123559
0.000112447
0.000128926
0.000154887
0.000154124
0.000140555
0.00015537
0.000179272
0.000189289
0.000186131
0.000188343
0.000168742
0.000178234
0.000187303
0.000176391
0.000188517
0.00019995
0.000200064
0.000199206
0.000214506
0.000200545
0.000224987
0.000240002
0.000276837
0.000269692
0.000270882
0.000257615
0.000279564
0.000334742
0.000297936
0.000299119
0.00031187
0.00027358
0.000201824
0.000217554
0.000232209
0.000223484
0.000223678
0.00028449
0.000337234
0.000361128
0.000363824
0.00035544
0.000328544
0.000311681
0.000298179
0.000176396
8.65683e-05
4.16765e-05
3.31184e-05
3.14955e-05
3.28379e-05
3.5605e-05
3.53846e-05
3.45607e-05
3.36263e-05
3.36876e-05
3.37987e-05
3.39022e-05
3.41799e-05
3.50486e-05
3.66223e-05
3.76712e-05
3.86331e-05
3.90769e-05
3.93685e-05
3.94772e-05
3.95153e-05
3.92825e-05
3.85994e-05
3.68962e-05
3.39364e-05
3.15608e-05
3.09631e-05
3.09464e-05
3.1113e-05
3.19707e-05
3.3377e-05
3.52738e-05
3.76087e-05
4.00178e-05
4.23371e-05
4.44557e-05
4.61061e-05
4.76764e-05
4.83762e-05
4.84756e-05
4.86723e-05
4.90042e-05
4.92499e-05
4.90572e-05
4.80415e-05
4.62752e-05
4.42144e-05
4.3277e-05
4.31763e-05
4.51227e-05
4.72001e-05
4.93098e-05
5.25156e-05
5.37467e-05
5.48296e-05
5.68189e-05
5.80807e-05
5.97984e-05
6.04816e-05
5.9947e-05
5.98139e-05
6.31179e-05
8.09985e-05
9.49735e-05
0.000100814
0.000105739
0.000107399
0.000105723
0.000100744
9.63257e-05
9.09872e-05
8.54108e-05
7.79969e-05
7.30302e-05
6.67361e-05
6.19013e-05
5.7161e-05
5.35949e-05
5.12238e-05
4.97443e-05
4.77086e-05
4.49694e-05
4.37057e-05
4.33285e-05
4.32997e-05
4.2905e-05
4.29027e-05
4.39629e-05
4.56989e-05
4.72696e-05
4.84894e-05
4.93146e-05
5.08856e-05
5.21337e-05
5.37796e-05
5.44564e-05
5.51958e-05
5.44073e-05
5.28358e-05
5.30227e-05
5.60774e-05
5.85029e-05
5.61477e-05
5.51628e-05
5.4459e-05
5.24121e-05
5.3832e-05
5.3411e-05
5.17087e-05
5.38695e-05
5.42043e-05
5.42746e-05
5.72908e-05
5.59959e-05
5.66756e-05
5.94302e-05
5.71439e-05
5.65344e-05
6.25553e-05
6.24501e-05
6.07212e-05
6.53786e-05
7.13799e-05
7.19816e-05
7.49387e-05
8.05698e-05
9.17459e-05
9.18642e-05
8.67615e-05
8.65666e-05
9.3619e-05
0.000118375
0.000131772
0.000123113
0.000117991
0.000127797
0.000145398
0.000155054
0.000149305
0.000144775
0.000165588
0.000184361
0.000184718
0.000186636
0.000173833
0.000176894
0.00018556
0.000171311
0.000166595
0.000179009
0.000182987
0.00018892
0.000207302
0.000199791
0.000221426
0.00023313
0.000268078
0.000260427
0.000261389
0.000274891
0.00032119
0.000353054
0.000308496
0.000259778
0.000272064
0.000269792
0.000203149
0.000211845
0.000223602
0.000224633
0.00021787
0.000274616
0.000326394
0.000359073
0.000364933
0.000328985
0.000319311
0.000322409
0.000304316
0.000186382
9.70345e-05
4.82681e-05
3.4966e-05
3.39018e-05
3.61218e-05
3.64496e-05
3.62107e-05
3.51841e-05
3.52991e-05
3.49921e-05
3.43694e-05
3.44993e-05
3.45917e-05
3.53023e-05
3.68468e-05
3.8482e-05
3.94706e-05
3.98176e-05
4.02824e-05
4.04011e-05
4.07282e-05
4.115e-05
4.14195e-05
4.08322e-05
3.96622e-05
3.59176e-05
3.39702e-05
3.37137e-05
3.40569e-05
3.54093e-05
3.79043e-05
4.09223e-05
4.45461e-05
4.82832e-05
5.1282e-05
5.32086e-05
5.41998e-05
5.4627e-05
5.47546e-05
5.4255e-05
5.2189e-05
5.04133e-05
4.97451e-05
4.98676e-05
5.00565e-05
4.98734e-05
4.8344e-05
4.51947e-05
4.31398e-05
4.23394e-05
4.28018e-05
4.44222e-05
4.83246e-05
5.17223e-05
5.32825e-05
5.66691e-05
5.97246e-05
6.21641e-05
6.40614e-05
6.3311e-05
6.10833e-05
6.07587e-05
6.86204e-05
8.92157e-05
9.8147e-05
0.000101955
0.000102724
9.9371e-05
9.33483e-05
8.76893e-05
8.11516e-05
7.56208e-05
6.93928e-05
6.42799e-05
5.95973e-05
5.57053e-05
5.32826e-05
5.10411e-05
4.89462e-05
4.6597e-05
4.36701e-05
4.1488e-05
4.08192e-05
4.08706e-05
4.10932e-05
4.17213e-05
4.2499e-05
4.37007e-05
4.52827e-05
4.71824e-05
4.88241e-05
4.99207e-05
5.14718e-05
5.27177e-05
5.36954e-05
5.44553e-05
5.46793e-05
5.3132e-05
5.19621e-05
5.12683e-05
5.10352e-05
5.46013e-05
5.34721e-05
5.31663e-05
5.40305e-05
5.19829e-05
5.19293e-05
5.20913e-05
5.06636e-05
5.24355e-05
5.36997e-05