/*--------------------------------*- C++ -*----------------------------------*\
| =========                 |                                                 |
| \\      /  F ield         | OpenFOAM: The Open Source CFD Toolbox           |
|  \\    /   O peration     | Version:  dev                                   |
|   \\  /    A nd           | Web:      http://www.openfoam.org               |
|    \\/     M anipulation  |                                                 |
\*---------------------------------------------------------------------------*/
FoamFile
{
    version     2.0;
    format      ascii;
    class       volScalarField;
    object      p;
    location    "9.15";
}
// * * * * * * * * * * * * * * * * * * * * * * * * * * * * * * * * * * * * * //

dimensions      [1 -1 -2 0 0 0 0];

internalField   nonuniform List<scalar> 
12225
(
96194.4
96123.2
96037.5
95939.7
95827
95710.5
95577.3
95449.9
95301.7
95182.6
95021.4
94902.2
94748.1
94631.2
94471.1
94359.4
94247.4
94046.2
96194
96126.4
96041.6
95944
95832
95714.2
95582.7
95453.7
95305.8
95188.3
95025.3
94907.3
94752.9
94635.6
94476.6
94361.1
94257.1
94071.2
96200
96135.5
96051.8
95954.4
95842.9
95724.3
95593.8
95463.5
95319.9
95193.7
95041.3
94914.5
94769.5
94647.5
94492
94374.6
94275.4
94041.5
96213.8
96152.2
96069.9
95972.6
95861.4
95742.5
95612.6
95481.8
95340.8
95209.6
95063.6
94931.8
94791.9
94664.7
94521.8
94402.4
94303.1
94097.2
96239.7
96179.4
96098
96001
95890.1
95771.1
95641.7
95510.5
95371
95237.2
95094.9
94961.1
94824.4
94695.8
94562.2
94441.1
94331.1
94163.3
96277
96219.8
96138.8
96042.4
95931.6
95812.9
95683.6
95552.2
95413.4
95278.6
95138.6
95005
94870.9
94743
94615.7
94495.5
94379.7
94234.5
96327.1
96275.9
96195.5
96100
95989.4
95870.9
95741.7
95610.4
95472.2
95337.3
95199.3
95066.4
94934.8
94808.2
94684.5
94565.7
94450.3
94324.3
96386.6
96340.2
96261
96166.4
96055.9
95937.6
95808.6
95677.6
95540.3
95405.5
95269.2
95136.5
95007
94881.4
94759.6
94642.6
94530.5
94416.6
96454.7
96410.4
96332.1
96238.4
96128.2
96010.1
95881.5
95750.6
95614.4
95479.7
95344.9
95212.5
95084.3
94959.7
94839.8
94725
94616.2
94510.2
96549.1
96504.3
96427.3
96334.2
96224.9
96106.6
95978.9
95847.7
95712.9
95578.2
95444.8
95313.2
95186.2
95062.9
94945.2
94833
94728
94628.7
96672.7
96629.7
96554.8
96462.1
96353.9
96235.2
96108.7
95977.1
95843.6
95709
95576.6
95446
95320.6
95198.9
95083.8
94974.6
94873.6
94780.1
96843.8
96798.1
96724.4
96631.8
96524.7
96406
96280.4
96148.8
96016.1
95881.9
95750.7
95621.4
95497.4
95377.8
95265.4
95159.7
95062.5
94973.9
97071.8
97021.2
96948.1
96856
96750
96631.8
96506.8
96375.6
96243.4
96110.1
95979.8
95851.9
95729.5
95612.5
95502.8
95400.4
95306.7
95221.9
97366.3
97313.4
97241.1
97150.2
97045.5
96928.4
96803.9
96673.5
96541.7
96409.4
96279.8
96153.6
96032.9
95918.2
95811
95711.7
95621
95539.4
97746.2
97691.3
97620.5
97532.3
97429.6
97314.2
97190.7
97061.3
96929.9
96798.5
96669.7
96544.9
96425.8
96313.2
96208.2
96111.3
96023
95943.8
98213.3
98169
98104.4
98021.2
97921.8
97809
97686.7
97558.5
97427.7
97297.2
97169.3
97045.7
96927.9
96816.9
96713.6
96618.6
96532.1
96454.6
98795.5
98764.9
98710.5
98634.2
98539.4
98429.7
98309.5
98182.7
98053
97923.4
97796.4
97673.7
97556.9
97447.1
97345.1
97251.3
97166.1
97089.7
99453
99438.9
99394.4
99325
99235.1
99129.1
99011.5
98886.6
98758.4
98630
98504
98382.4
98266.6
98157.8
98056.7
97964
97879.6
97804
100099
100084
100043
99977.5
99891.4
99788.5
99673.6
99550.9
99424.5
99297.6
99173.1
99052.8
98938.3
98830.6
98730.6
98638.7
98555.2
98480.2
100627
100625
100590
100529
100446
100346
100234
100114
99989.3
99864.4
99741.6
99622.9
99509.9
99403.5
99304.6
99213.7
99131.1
99056.8
101069
101069
101038
100979
100899
100802
100692
100574
100452
100329
100208
100092
99980
99875.1
99777.4
99687.6
99605.9
99532.3
101429
101423
101393
101336
101258
101163
101055
100940
100820
100700
100581
100465
100355
100252
100155
100067
99985.9
99913
101699
101697
101667
101612
101535
101441
101336
101223
101105
100986
100869
100755
100647
100545
100449
100362
100282
100209
101906
101904
101874
101819
101742
101651
101547
101435
101320
101203
101087
100975
100867
100766
100671
100584
100505
100433
102056
102056
102025
101969
101894
101803
101701
101591
101476
101361
101246
101135
101029
100928
100834
100748
100669
100598
102163
102163
102131
102075
102000
101910
101809
101700
101587
101472
101359
101248
101143
101043
100950
100864
100785
100715
102241
102235
102201
102146
102071
101982
101882
101774
101662
101548
101435
101325
101220
101120
101028
100942
100864
100793
102285
102280
102245
102190
102116
102028
101928
101820
101709
101595
101483
101373
101269
101169
101077
100991
100913
100843
102310
102304
102269
102214
102140
102052
101953
101846
101735
101621
101509
101400
101295
101196
101104
101019
100941
100871
102324
102314
102279
102224
102150
102063
101964
101857
101745
101632
101520
101411
101306
101207
101115
101030
100952
100882
93869.2
93870.1
93871.8
93874.5
93878.2
93882.9
93888.8
93895.8
93904.1
93913.6
93924.5
93936.8
93950.6
93965.9
93982.7
94001.3
94021.7
94043.9
94068
94094.2
94122.7
94153.2
94186
94221
94258.2
94297.6
94339.4
94383.5
94429.9
94478.4
94529
94581.6
94636
94692.4
94750.4
94809.8
94870.5
94932.4
94995.3
95058.9
95123.4
95188.5
95254
95319.9
95385.9
95451.9
95517.4
95581.8
95646.3
95712.5
95778.7
95845
95913.9
95983.5
96053.4
96124.2
96196.4
96270.4
96346.9
96426.2
96508.9
96595.6
96686.4
96780.4
96876.2
96972.7
97070
97168.5
97268.5
97371.4
97478
97586.5
97695.5
97804
97907.4
98008.9
98110.6
98205.2
98288.2
98361
98423
98475.5
98516.3
98541.6
98550.4
98542.1
98516.9
98478.7
98427
98362.6
98283.8
98191
98086.6
97972.2
97846.1
97711.7
97569.4
97418.8
97263.2
97102.5
96940.2
96767.2
96594.8
96419.1
96240.7
96065.7
95889.2
95713.4
95537.3
95360.9
95184.5
95008.5
94833.8
94661.8
94493.8
94331.2
94173.7
94023.4
93884.2
93757
93639.6
93531
93432.1
93342.3
93259.3
93180.7
93104.3
93026.2
92940.4
92842
92725.8
92587
92421.5
92226.9
92000.8
91741.6
91448
91118.6
90747.7
90335.2
89889
89421.5
88943.7
88467
87999.5
87547.4
87113.9
86697.8
86297.3
85909.5
85533
85171.3
84818.9
84463.4
84106.8
83747
83371.7
82973.8
82557.8
82139
81738.3
81348.4
80955.8
80577.4
80216.3
79872.9
79564.9
79290.2
79055.7
78887.4
78802.3
78793.8
78909.1
79177.3
79595
80169.8
80890.2
81724.2
82652.6
83649.6
93860.4
93861.2
93862.8
93865.4
93869
93873.8
93879.7
93886.7
93895
93904.5
93915.4
93927.6
93941.4
93956.6
93973.5
93992
94012.4
94034.6
94058.8
94084.9
94113.2
94143.7
94177.1
94212
94249.2
94288.7
94330.6
94375
94421.6
94470.4
94521.2
94574.1
94629
94685.7
94744.3
94804.2
94865.5
94928
94991.3
95055.6
95120.6
95186.1
95252.1
95318.4
95384.8
95450.9
95516.9
95581.7
95646.5
95714.7
95783.2
95850.8
95918.4
95986.1
96055.3
96127.5
96200.4
96274.4
96350.7
96429.8
96512.6
96598.4
96688.6
96782.3
96877.6
96973.5
97069.8
97166.9
97266.2
97367.7
97472.4
97580.9
97691.2
97800.6
97905.8
98006.1
98105.5
98201
98287.6
98359.3
98418.8
98468.2
98506.5
98530
98538.8
98531.6
98502.6
98465.3
98413.5
98348
98268.4
98175.2
98071.1
97953.2
97828
97693.1
97551.3
97397.3
97239.7
97075.9
96914.7
96740.2
96566
96390.6
96210.4
96034.4
95857
95680
95502.9
95324.5
95147.6
94971.5
94796.3
94624.1
94456.3
94294.5
94137.5
93986.8
93847.9
93722
93605.9
93498.2
93400.3
93311.6
93230
93153
93078
93001.8
92918.6
92823
92709.4
92572.8
92409.9
92218.9
91997
91742.1
91454.4
91133.1
90769.5
90361.4
89918.4
89454.8
88981.9
88510.4
88047.8
87601
87172.4
86760.5
86363.5
85979.1
85604
85245
84897
84541.8
84186.4
83827.7
83454.1
83056.3
82640.3
82224.7
81820.9
81429.6
81044.8
80663.7
80294.8
79949.9
79647.6
79376.9
79139.9
78971.1
78883.5
78862.5
78968.8
79232.4
79645.3
80219.4
80943.6
81776.3
82703
83701.2
93842
93842.8
93844.4
93847.1
93850.7
93855.5
93861.5
93868.6
93876.8
93886.3
93897.1
93909.3
93923
93938.1
93954.9
93973.5
93993.8
94016.1
94040.3
94066.6
94095
94125.6
94158.5
94193.6
94231
94270.7
94312.7
94358
94405
94454.1
94505.5
94559.2
94614.8
94672.4
94732.1
94793
94855.4
94919
94983.4
95049
95115.2
95181.6
95248.9
95316
95383.2
95450.7
95518.1
95585.5
95652.7
95720.6
95788.6
95855.4
95923.5
95994.3
96066.1
96136.6
96208.8
96283.2
96359.4
96437.1
96517.7
96603.6
96693.1
96786.1
96880.5
96974.8
97069.1
97163.6
97260.3
97361.2
97462.9
97571.5
97684.6
97798
97907.5
98013.4
98111.9
98200.3
98279
98347.8
98406.1
98453.4
98489.1
98509
98514.8
98505.5
98479.9
98441.3
98388.7
98322
98240.5
98145.2
98036
97920.3
97793.8
97652.8
97510.2
97356.2
97197.5
97031.4
96865.7
96689.4
96510.8
96333.9
96152.4
95973.5
95794.3
95614.8
95435.6
95254.4
95075.8
94899
94723.3
94550.4
94382.5
94221.8
94066.6
93916.6
93778.5
93654.2
93539.8
93433.6
93337.5
93251.3
93172.4
93098.2
93026.1
92953.5
92875.1
92784.9
92676
92544.4
92387.4
92203.8
91990.1
91743.1
91464.5
91158.1
90813
90416.9
89981.8
89526.2
89062.6
88601.8
88149.7
87714.6
87295.7
86892.4
86501.9
86122.1
85750.2
85394.5
85056.2
84704.7
84356.5
83998
83625.1
83228.4
82817.9
82391.4
81983.1
81597.6
81203.8
80818.5
80442.9
80112
79816.7
79554.4
79315.2
79151.2
79069.3
79024.5
79107.3
79355.3
79757.4
80331.3
81062.5
81889.7
82811.9
83802.3
93814.8
93815.5
93817.1
93819.8
93823.5
93828.4
93834.4
93841.4
93849.7
93859.2
93870
93882.1
93895.7
93910.8
93927.6
93946.1
93966.4
93988.6
94012.8
94039.1
94067.6
94098.3
94131.3
94166.6
94204.4
94244.5
94287.3
94332.5
94380.2
94430.2
94482.5
94537.2
94593.7
94652.1
94715
94776.7
94840.6
94905.8
94972.1
95039.5
95107.5
95175.9
95244.9
95313.7
95382.8
95452
95520.7
95589.6
95658.3
95727
95796.3
95865.1
95935.5
96006.5
96076.5
96148.7
96222.7
96297
96372.6
96450.4
96530.8
96614.6
96702.8
96794.9
96888
96980.2
97072
97163.6
97256.4
97352.5
97454.8
97563.4
97676.4
97792.3
97905.6
98009
98102.4
98187.5
98263.3
98329.3
98385
98430.1
98463.7
98480.8
98484.4
98474.9
98447.7
98408.5
98355.9
98287.4
98202
98103.6
97991.3
97873.5
97742.7
97602.9
97455.6
97298.8
97136
96965.9
96795.1
96616.2
96434.2
96253
96068.9
95885.9
95703.3
95519.6
95338
95153.7
94972.4
94794.8
94618.6
94445.3
94276.8
94116.8
93963.9
93816.7
93679.9
93557
93444.6
93341
93248
93165.6
93090.7
93020.7
92953.3
92885.8
92812.9
92730.3
92630
92506.9
92359
92185.9
91985
91749.8
91479.6
91187.4
90870.3
90500.6
90081.6
89636.9
89186.6
88742.7
88307.5
87892
87489.4
87098.6
86718.1
86344.5
85974.7
85621
85293
84950.1
84614.2
84257.6
83885.6
83491.2
83091.2
82669.1
82247.7
81854.1
81456.9
81077.7
80708
80358.5
80064.2
79812.5
79560.9
79395
79331.4
79281.6
79335.2
79552.9
79937.6
80509.7
81238
82064.5
82982.7
83949.5
93777.8
93779
93781
93783.8
93787.9
93792.8
93798.8
93805.8
93814.1
93823.6
93834.3
93846.4
93859.8
93874.7
93891.4
93909.9
93930.2
93952.4
93976.7
94003
94031.6
94062.5
94095.8
94131.5
94169.7
94210.5
94253.9
94299.9
94348.4
94399.5
94453
94509
94567.3
94627.8
94690.5
94754.8
94820.7
94887.9
94956.9
95027.1
95097.5
95168.4
95239.8
95311
95382.3
95453.7
95524.6
95595.5
95666.4
95737.2
95807.7
95877.9
95949.1
96020.8
96093
96166.7
96240.4
96315.7
96392.5
96470
96549.9
96633.3
96721.1
96811.9
96903.6
96994.4
97084.1
97173.2
97263.1
97355.3
97456.3
97562.6
97673.8
97786.4
97894.7
97995.2
98086.4
98168.5
98241.3
98304.7
98357.9
98400.2
98430.7
98447.1
98449.7
98438.1
98410.4
98369
98312.7
98241
98154.3
98049.8
97938.3
97816.9
97682.7
97538.9
97387.1
97225.7
97057.5
96883.6
96706.5
96523.6
96338.3
96151.3
95962.6
95774.5
95586.8
95397.8
95213
95025.8
94841
94661.6
94484.6
94311.9
94143.9
93984
93833.3
93689.2
93554.7
93433.7
93323.9
93224.5
93136
93058.6
92989.2
92924.8
92863.7
92803.2
92738.1
92664.3
92575.2
92463.8
92328.4
92169.5
91986.9
91770.6
91508.1
91224.9
90938
90608.7
90217.7
89789.8
89355.2
88931.2
88517.1
88129.3
87752.2
87382.8
87020.2
86653.8
86285.2
85935.7
85615.6
85280.5
84956.5
84604.1
84235.4
83844.9
83459.1
83046.1
82613.8
82218.1
81811
81447.7
81074.8
80696.8
80400.5
80173.9
79893.6
79704.3
79649
79618.1
79650.5
79828.4
80188.6
80752.9
81471.9
82290.6
83183
84151.3
93733.7
93735
93737.4
93740.7
93744.3
93749
93754.9
93761.9
93770.1
93779.5
93790.1
93802.1
93815.6
93830.6
93847.1
93865.5
93885.8
93908
93932.4
93958.9
93987.7
94018.9
94052.6
94088.8
94127.7
94169.3
94213.6
94260.6
94310.3
94362.6
94417.5
94475.1
94535.1
94597.5
94662
94728.5
94796.8
94866.7
94938.2
95010.9
95085.2
95159.1
95233.3
95307.4
95381.6
95455.7
95529.4
95603.1
95676.6
95749.3
95821.8
95894.3
95967.1
96040.7
96114.5
96188.5
96263.7
96340.2
96417.4
96496
96576.7
96660
96746.1
96835.4
96927
97018.4
97108.4
97196.9
97285.8
97377.5
97473.2
97574.1
97679
97784.2
97885.8
97981.1
98068.6
98147.5
98217.7
98278.5
98329.2
98368.8
98396.3
98410.4
98411
98397.4
98368
98323.7
98263.9
98188.5
98100.4
97992.6
97877.1
97751.2
97612.6
97463.4
97305.7
97139.9
96965.9
96786.7
96603.3
96415.4
96224.7
96031.4
95836.6
95642.1
95448.8
95254.1
95064.8
94875.2
94687.5
94505.9
94327.2
94153.9
93987.5
93829.1
93679.7
93538.8
93408.5
93290.7
93184.3
93090.5
93008.2
92936.4
92873.4
92816.7
92763.3
92710.9
92655.3
92592.7
92517.2
92421.4
92300
92155.7
91995.4
91808.4
91567.7
91289.5
91025
90740.4
90391.7
89987.7
89569.8
89168.2
88780.2
88427.4
88077.4
87736.2
87408.7
87057.3
86690.1
86344.9
86030.4
85700.9
85386.8
85040.5
84677.6
84290
83922.5
83523
83082.1
82651.5
82259.2
81930.5
81554.4
81142.5
80826.5
80624.3
80334.7
80113.5
80038.6
80032.8
80050.3
80183.8
80513.2
81059.7
81762.3
82551.5
83428.5
84416.2
93680.7
93681.9
93684.1
93687.3
93691.4
93696.6
93702.7
93709.9
93718.2
93727.5
93738
93749.8
93763.2
93778.2
93794.8
93813.2
93833.6
93856
93880.6
93907.4
93936.6
93968.3
94002.6
94039.5
94079.3
94121.8
94167.2
94215.5
94266.6
94320.5
94377.1
94436.5
94498.5
94563
94629.9
94698.9
94770
94842.9
94917.5
94993.7
95070.7
95148.8
95226.2
95303.7
95381.2
95458.5
95535.5
95612.3
95688.6
95764.1
95839.3
95914.3
95989.3
96064.9
96140.6
96216.4
96292.9
96370.6
96449.2
96529
96610.3
96693.2
96778.8
96868.8
96961
97052.8
97142.7
97231.5
97319.8
97408.7
97500.7
97595.7
97692.7
97789.3
97883.1
97972
98054.5
98129.4
98196
98253.6
98301
98337.4
98361.7
98373.1
98370.9
98354
98321.2
98273.1
98210
98130.1
98033.2
97927.9
97809
97678
97534.4
97379.5
97215.8
97043.6
96863.8
96677.8
96488.1
96293.6
96095.5
95895.3
95693.9
95492.6
95293.2
95093.1
94898.5
94706.4
94515.5
94331.8
94153.2
93979.3
93813.8
93657.9
93509.7
93371.8
93247.9
93134.3
93032.5
92945.2
92870.3
92806.3
92750.3
92702
92658.6
92615.7
92570.4
92521.3
92461.9
92385.3
92280.6
92151
92013
91858.3
91652.2
91394.5
91143.7
90898.9
90602
90232.7
89836.3
89459.7
89103.9
88797.7
88478.3
88156.5
87869.6
87550.6
87193.2
86853
86540.4
86214.8
85910.7
85571.6
85216.8
84832.4
84476.9
84095
83666.9
83205.4
82813.8
82522
82169.2
81721.2
81360.4
81140.6
80869.7
80631.9
80524.4
80529
80534.7
80622.5
80915.9
81433.7
82112.2
82861.1
83748.8
84710.4
93620.5
93621.3
93623.7
93627.4
93631.9
93636.9
93643.1
93650.6
93659.1
93668
93678.4
93690.2
93703.8
93718.6
93735.2
93753.7
93774.3
93796.9
93821.8
93849.1
93878.9
93911.4
93946.6
93984.5
94025.3
94069.1
94115.8
94165.5
94218.2
94273.9
94332.4
94393.9
94458.1
94525
94594.6
94666.7
94741
94817.3
94895.5
94975.5
95056.4
95138.2
95219.5
95300.9
95382.1
95463.1
95543.7
95624
95703.4
95782.2
95860.4
95938.3
96016.1
96094
96172.1
96249.9
96328.1
96407.1
96487.1
96568.2
96651.2
96736.2
96823.5
96914.4
97003.5
97094
97183
97270.9
97358.3
97445.5
97533.4
97622.4
97711.9
97800.6
97886.7
97968.8
98045.4
98115.4
98177.6
98231.2
98275.1
98308.1
98329.1
98337.5
98331.6
98310.5
98273.7
98221.8
98155.8
98072.8
97972.4
97861.9
97737.7
97601.2
97452.6
97292.1
97121.8
96942.9
96756.7
96563.2
96366.1
96163.7
95957.8
95749.4
95540.8
95332.1
95126.2
94921
94719.7
94525
94331.9
94145.9
93967.7
93794.5
93629.8
93477.3
93331.6
93197.2
93079.7
92970.5
92875.6
92796.6
92728.6
92673.5
92627.3
92589.5
92556.7
92523.9
92489.9
92456.4
92414.2
92358.1
92273.4
92162.3
92046.6
91920.8
91754.7
91537
91303.3
91089.6
90846.7
90522.7
90154.6
89809.4
89489.8
89223.6
88954.4
88657.5
88397.1
88119.3
87787
87457.1
87147.6
86826
86533.6
86205
85858.5
85484.1
85130.6
84752.7
84329.1
83943.7
83476.4
83175.6
82868.7
82426.7
82014.1
81741.5
81488.7
81250.9
81112.8
81110.8
81102.6
81146.8
81395.6
81876.7
82531.9
83224.2
84104.9
85017.5
93552.5
93553.7
93556.1
93559.2
93563.1
93568.2
93574.3
93581
93588.9
93598.8
93609.8
93622
93635.6
93651.3
93668.6
93687.4
93708.2
93731.3
93756.8
93784.9
93815.6
93849.1
93885.4
93924.6
93966.7
94011.9
94060.2
94111.6
94166.1
94223.7
94284.3
94348.1
94414.8
94484.4
94556.9
94632.3
94710.2
94790.4
94872.8
94956.9
95042.6
95128.3
95214.1
95300
95385.6
95470.7
95555.2
95638.9
95721.9
95804.2
95886.1
95967.4
96048.3
96128.9
96209.3
96289.4
96369.3
96450.1
96531.6
96614.2
96698
96783
96868.8
96955.1
97047.2
97139.7
97227.1
97314.1
97399.8
97484.2
97568
97651.5
97734.3
97815.9
97895.2
97970.8
98041.6
98106.4
98164.1
98213.7
98253.7
98282.8
98299.9
98303.9
98293.2
98267.6
98226.7
98170.7
98100.8
98014
97911.3
97795
97665.3
97522.9
97368.4
97202.5
97026.2
96840.9
96647
96446
96240.8
96030.9
95817.9
95600.2
95384
95167.7
94953.9
94744.2
94536.6
94337.6
94142.6
93953.9
93776.2
93605.7
93442.3
93293.2
93151.4
93022.7
92911.3
92807.1
92720.1
92650.7
92592.1
92545.1
92509.8
92485.8
92464.1
92442.3
92421.1
92404.5
92380
92341.6
92280.4
92196.2
92104
91996.7
91871.6
91710.3
91511.3
91317.4
91119.8
90853.1
90526.9
90216
89936.8
89693.1
89474.9
89228.6
88985.3
88743
88447.4
88143.4
87844.5
87536
87258.3
86945.8
86614.3
86253.5
85910.5
85537.4
85065.3
84617.5
84185.7
83906.5
83628.6
83218.8
82770.3
82456.1
82198.1
81965.6
81801.1
81782.6
81756.1
81758.1
81956
82395.4
83024.8
83641.9
84495.8
85373.5
93479.1
93480.1
93482.4
93485.5
93489.7
93495.3
93501.6
93508.9
93517.1
93526.8
93537.7
93549.9
93563.6
93578.9
93596.1
93615.4
93636.8
93660.5
93686.7
93715.7
93747.5
93782.2
93819.9
93860.6
93904.5
93951.6
94001.8
94055.2
94111.8
94171.5
94234.4
94300.6
94369.9
94442.5
94518.3
94597.2
94679.2
94763.9
94850.7
94939.8
95029.6
95119.9
95210.6
95301.4
95391.7
95481.5
95570.3
95658.1
95745
95831.2
95916.8
96001.6
96085.7
96169.2
96252.4
96335
96417.5
96500.3
96583.6
96667.2
96751.2
96836
96921.4
97008.1
97096.3
97182.6
97271.6
97358.2
97442.2
97523.9
97603.7
97682.3
97759.6
97835.2
97908.4
97978.3
98043.9
98103.9
98157
98201.9
98237.2
98261.9
98274.5
98273.4
98258.1
98227.9
98182.7
98122.2
98047.5
97953.5
97848.2
97728.5
97594.2
97446.9
97287.2
97115.1
96932.3
96740.4
96538.9
96329.6
96115.8
95897.7
95678.5
95452.6
95228.7
95004.9
94783.2
94569.2
94354.8
94150.9
93956.5
93764
93586.5
93418.9
93256.7
93112.2
92976.7
92854.5
92749.1
92652.9
92573.9
92513.3
92466.9
92427.6
92403.7
92393.6
92384.8
92378.1
92372.6
92371.7
92365.5
92343.9
92311.1
92262.1
92196.5
92105.1
92014.9
91911.3
91766.2
91597.3
91424.9
91212.1
90947.1
90679
90444.9
90235.9
90059.4
89871.1
89645.9
89420.4
89165.8
88905.5
88629.3
88345.9
88092.4
87790.3
87480.4
87141.4
86815
86464.9
85961.2
85427.6
85104.2
84800.8
84503.9
84107.2
83634.6
83294.2
83014.1
82786.6
82596.4
82550.6
82504.2
82456.6
82602.4
82997.9
83586.1
84133.4
84959.5
85811.9
93401.8
93403.1
93405.3
93408.6
93413.4
93419.3
93425.6
93432.8
93441.1
93450.6
93461.4
93473.4
93487
93502.3
93519.6
93539.3
93561.8
93585.8
93612.9
93643.1
93676.4
93712.6
93751.9
93794.5
93840.5
93889.8
93942.3
93998.1
94057.1
94119.1
94184.5
94253.3
94325.5
94401.2
94480.5
94563.3
94650.4
94739.4
94831
94924.6
95019.4
95114.8
95210.3
95305.9
95401.1
95495.7
95589.4
95681.8
95773.1
95863.4
95952.7
96041.1
96128.5
96215.2
96301.4
96387
96472.4
96557.8
96643.1
96727.8
96812.2
96896.7
96981.5
97066.8
97152.1
97237.5
97323.1
97406.8
97487.9
97566.4
97642.5
97716.6
97788.9
97859.3
97927.3
97992.3
98053.1
98108.2
98156.3
98196.2
98226.6
98246.7
98254.8
98249.6
98230.2
98195.3
98144.8
98078.7
97996
97903.3
97794.4
97670.4
97532.1
97379.4
97214
97035.8
96845.8
96646.4
96437.7
96221
95998.5
95770.4
95543.1
95310.6
95078.6
94849.7
94620
94401.6
94183.7
93973.7
93780.4
93584.2
93406.6
93243.3
93081.7
92942
92814.1
92698.4
92600.4
92516.4
92444.6
92392.4
92358.5
92329.1
92316.6
92319.7
92326.6
92338.1
92350.4
92366.4
92380.9
92378.9
92374.5
92363.2
92325.5
92267.8
92212
92149.9
92059
91946
91794.5
91613.8
91410.8
91199.2
91013.8
90855.7
90731.8
90593.1
90394.7
90184.6
89975.3
89756.2
89505.9
89253.6
89035.4
88746.8
88458
88142.3
87832.2
87517.8
87064.3
86704.2
86334.2
85879.6
85526.7
85125.8
84621.3
84255.8
83944.9
83718.9
83502
83418.9
83354.1
83242.4
83339.4
83686.2
84194.9
84718.1
85507.7
86327.8
93322.9
93323.9
93326.4
93329.8
93334.3
93339.8
93346.4
93353.9
93362.4
93371.9
93382.5
93394.4
93407.9
93423.3
93440.7
93460.2
93482.2
93508.4
93537.2
93568.9
93603.6
93641.6
93683
93727.8
93776.2
93828
93883.4
93941.9
94003.6
94068.5
94136.6
94208.4
94283.9
94363.1
94446.2
94533.2
94624.2
94718.4
94814.9
94913.4
95013.4
95114
95214.5
95314.8
95415.1
95514.7
95613.3
95710.6
95806.4
95901
95994.3
96086.6
96177.8
96268.1
96357.8
96446.3
96534.4
96622.3
96709.6
96796.2
96881.6
96965.9
97049.7
97133.1
97215.9
97298.4
97380.7
97461.2
97539
97613.8
97686.1
97756.1
97824
97889.9
97953.5
98014.2
98070.3
98120.7
98164
98199.2
98224.8
98240.5
98244
98234.1
98209.9
98170.6
98116.1
98046
97961.6
97863.8
97751
97623.1
97480.4
97322.8
97150.8
96966.3
96769.9
96563.7
96347.4
96123.8
95894
95657.8
95420.2
95182.6
94941.8
94708.1
94473
94248
94030.9
93814.4
93619.5
93425
93245.8
93086.1
92927.5
92792.3
92672.2
92563.5
92472.2
92402.3
92339.2
92295.1
92272.6
92257.3
92258.7
92274.4
92298.6
92329.1
92359.7
92394.2
92429.4
92452.8
92478.1
92501.5
92491.4
92476.5
92462.6
92427
92380.2
92342.8
92248.4
92087.4
91932.4
91780.9
91648.3
91543.1
91482.7
91388.6
91217.1
91044.3
90882.9
90695.4
90469.7
90259.8
90077.7
89819.2
89555.1
89258.9
88972.6
88694.5
88318.6
88018
87639.7
87119.6
86677.8
86269.7
85735.7
85347.3
85004.1
84765
84518
84389.8
84300.4
84118.3
84171.7
84457.4
84869.3
85402.8
86127.1
86896.4
93246.4
93247.4
93249.9
93253.1
93257.3
93262.5
93268.8
93276.2
93284.7
93294.1
93304.8
93316.8
93330.5
93346.3
93364.4
93385
93408.4
93434.7
93464
93496.2
93531.6
93570.7
93613.9
93661
93712.3
93767.5
93826.3
93888.3
93953.4
94021.6
94092.9
94168.2
94247.3
94330.2
94417.3
94508.6
94604.1
94703.4
94805.1
94908.3
95013
95118.5
95224
95329.2
95434.4
95539.2
95642.9
95745.2
95845.8
95944.9
96042.5
96139
96234.5
96328.6
96421.9
96513.6
96603.7
96693.6
96782.9
96871.4
96958.7
97043.8
97126.9
97208.3
97288.3
97367.3
97445.9
97523
97597.5
97668.8
97737.2
97803.3
97867.2
97929.2
97989
98045.6
98097.4
98143
98181.5
98212.3
98234.1
98244.5
98242.8
98227.9
98199.4
98157
98100.2
98026.6
97938.8
97836.6
97719.3
97586.5
97438.8
97277.2
97100.5
96910.5
96707.7
96495.5
96273.9
96042.6
95805.3
95564.5
95317.4
95075.2
94827.2
94586.6
94349.3
94116.4
93899.1
93680.6
93480.6
93291.3
93111.6
92953.2
92802.6
92670.9
92557.7
92458.7
92372.2
92314.5
92263.6
92230
92216.8
92218.9
92236.5
92265.6
92305.6
92355.5
92406.6
92461.9
92517.2
92567.6
92625.7
92679.1
92700.8
92725.3
92754.9
92748.4
92736.5
92757
92743.2
92635.7
92523.3
92428.7
92355.5
92307.5
92299.9
92254.9
92121.9
92002.4
91870.2
91716.7
91541.2
91370.2
91223.3
91016
90775.9
90494.3
90237.5
89989.9
89690.8
89412.2
89029.1
88482.1
87955.1
87534.7
86981.1
86550.2
86193.8
85928.9
85653.6
85465.9
85334.8
85088.1
85101
85310.8
85649
86166.8
86804.9
87500.2
93174.7
93175.8
93178.1
93181.2
93185.3
93190.4
93196.4
93203.5
93211.5
93220.8
93231.4
93243.7
93257.6
93273.6
93292
93312.9
93336.4
93362.9
93392.7
93426.5
93461.7
93501.7
93547
93597.2
93651.9
93710.5
93772.9
93838.6
93907.3
93979.4
94055
94134.6
94218.2
94305.5
94396.9
94492.5
94592.3
94696.4
94803.2
94911.3
95020.5
95130.7
95241
95350.9
95460.7
95570.2
95678.7
95786.3
95892.1
95996.2
96098.8
96199.6
96299.2
96397.1
96493.7
96588.4
96680.7
96772.4
96863.7
96954
97042.8
97129.6
97213.3
97293.2
97370
97445.4
97520.4
97593.9
97664.8
97732.6
97797.8
97860.4
97920.9
97979.4
98035.6
98088.1
98135.3
98176.2
98210.3
98237.1
98254.5
98260.6
98254.7
98235.6
98203.1
98157.5
98100.5
98020.5
97928.8
97822.9
97701.4
97564.3
97412.3
97246.3
97066
96871.9
96664.6
96445.8
96219
95982.4
95737.8
95491.8
95238.5
94990.9
94738.4
94492
94253.1
94016.7
93794.6
93577.4
93374.4
93187.9
93010.9
92852.5
92711.1
92583.5
92476.5
92387.9
92309.1
92260.5
92224
92203.6
92201.3
92220.3
92253.6
92297.6
92353.8
92423.5
92496
92574.1
92650.9
92730
92819.9
92899.5
92959.3
93024.4
93089.3
93123.6
93152.2
93203.2
93253.5
93233.9
93184.2
93148
93139.1
93151.2
93187
93196.4
93131.3
93061.8
92955.3
92839.6
92738.9
92595.3
92479
92324.9
92122.8
91862.5
91641.6
91423.8
91218.6
90936.1
90491
89939.7
89370.3
88926.8
88357.6
87872.1
87511.9
87211.9
86910.9
86650.6
86453
86158.8
86124.1
86253.6
86546.9
87013
87537.6
88136.4
93111.5
93112.7
93114.8
93117.7
93121.7
93126.6
93132.4
93139.2
93146.9
93155.6
93165.7
93177.5
93191.2
93206.8
93224.8
93245
93267.8
93293.5
93322.5
93355.5
93394.8
93438.6
93486.9
93541.2
93599.6
93661.9
93727.8
93797.5
93870.7
93947.3
94027.7
94112.3
94201
94293.4
94389.6
94489.8
94593.7
94701.3
94811.4
94922.7
95035.8
95151.2
95266.9
95381.7
95496.2
95610.3
95723.4
95835.7
95946.7
96055.9
96163.7
96269.4
96373.1
96474.8
96574.5
96672.2
96767
96860.1
96952.8
97044.7
97135.4
97223.2
97307.3
97387.2
97462.2
97534.2
97605.4
97675.3
97742.8
97807.6
97869.7
97929.1
97986.5
98041.9
98094.6
98143.1
98186.1
98222.9
98253.3
98276.1
98289.6
98291.5
98281.2
98258.1
98220.8
98168.6
98100.1
98025.7
97932.5
97824
97699.4
97559
97404.1
97234.7
97051
96853
96642.1
96419.7
96187.5
95946.5
95698.3
95446.5
95189.4
94936.2
94680.8
94430.6
94188.8
93952.4
93726.8
93511.3
93307.5
93121.9
92948.8
92793.4
92658.6
92536.1
92436.5
92355.8
92288.3
92248.6
92226.5
92220.5
92231.7
92265.8
92314.4
92374.3
92448.6
92538
92632.1
92734.7
92834.1
92943.2
93063.3
93167.8
93269.4
93381.3
93475.1
93552.8
93630.3
93714.2
93810.7
93877.6
93906.7
93941.2
94004.4
94076.9
94157.7
94221.6
94237.6
94206.8
94164.9
94070
94034.8
93966.1
93863.3
93747.4
93590.8
93384.1
93200.8
93005.6
92867.8
92545.2
92047.8
91508.3
90925.5
90431.7
89860.5
89333.1
88965.6
88622.4
88282.9
87945.1
87664.2
87334.2
87227.6
87292.7
87561.7
87930.6
88326.1
88805.4
93061.4
93062.4
93064.1
93066.8
93070.4
93074.9
93080.4
93086.6
93093.8
93102.1
93110.4
93121.6
93134.6
93149.6
93166.8
93186.6
93209.3
93235.5
93265.5
93301.2
93342
93388.2
93439.7
93497
93559.1
93625
93694.6
93768.3
93845.7
93926.6
94011.7
94101.1
94194.7
94292.2
94393.7
94498.9
94607.1
94718
94831.2
94945.6
95061.8
95180.8
95301.9
95422.8
95542.8
95661.8
95780
95897
96012.7
96126.6
96239.1
96349.5
96457.1
96562.5
96665.3
96765.8
96863.3
96958.2
97051.4
97143.9
97236.4
97326
97410.4
97490.3
97564.6
97634
97701.6
97768.3
97833.2
97895.3
97954.5
98011.3
98066.1
98118.6
98168
98212.8
98252.1
98285.7
98312.6
98331.6
98341.1
98339.4
98325.4
98298.7
98257.9
98202.9
98133.2
98050.9
97954.1
97842.6
97715.8
97573
97415.5
97243.9
97058.6
96858.7
96645
96420.2
96185.3
95940.3
95690
95434.7
95176.7
94918.4
94661.7
94408.3
94164.5
93928.1
93701.3
93487.7
93283.3
93100.5
92930.8
92780
92650.2
92534.2
92443.7
92371
92316.2
92285.5
92276.6
92285
92311
92358.7
92422.9
92499.6
92593.5
92701.6
92818.7
92945.7
93071
93208.5
93358.3
93489.6
93633.3
93790.2
93917.5
94035.9
94161
94289.2
94431.3
94573.5
94683.1
94806.3
94955.1
95089.5
95215.2
95331.7
95421.9
95443.2
95482.8
95419.5
95450.3
95495.9
95388.2
95302.4
95200.2
95072.7
94911.5
94722.5
94573.5
94226.3
93729.8
93197.2
92615
92057.3
91495.9
90925.4
90551.5
90160.5
89763.1
89344
88990.4
88620.6
88418.5
88420.9
88654.2
88908.3
89169.3
89515.5
93029.4
93029.8
93031.2
93033.2
93036.1
93039.9
93044.6
93050.1
93056.4
93063.7
93072.1
93082.2
93094.2
93108.6
93125.4
93145
93167.8
93194.5
93225.5
93262.2
93306.3
93355.5
93409.9
93470
93535
93603.6
93676
93753.2
93834.2
93918.1
94005.6
94097.9
94195.6
94298.1
94405
94515.3
94628.4
94743.9
94861.8
94981.7
95103.3
95226.7
95351.6
95476.4
95601
95725.4
95848.8
95970.5
96090.7
96209.1
96325.6
96440.3
96552
96660.5
96766.4
96869.8
96969.3
97066
97160.6
97252.5
97345.1
97437.2
97522.7
97602
97676
97744.1
97809
97873.4
97936.3
97996.8
98053.9
98108.3
98160.8
98210.8
98257.2
98298.8
98335.1
98365.6
98389.4
98405.1
98411.2
98406.6
98389.7
98359.4
98315.6
98257.3
98184.4
98097.1
97996.3
97882.4
97754.2
97610.5
97451.4
97279.1
97093.1
96891.8
96677.2
96451
96214.2
95967.8
95715.4
95458.4
95200.7
94939.7
94683.3
94428.6
94184.2
93946.7
93720.3
93508.6
93306.9
93126.6
92960.2
92814.1
92690.5
92582.4
92500.3
92436.9
92396.4
92375.4
92378.3
92400.2
92442
92503
92583
92677.1
92791.9
92917.9
93059
93210.3
93363.6
93526.9
93706.7
93869.5
94052.6
94244.9
94411
94575
94751.4
94926.6
95109.4
95312.1
95508.5
95740.2
95981.9
96183.9
96363.4
96534
96684.2
96786.1
96878.4
96901
97029
97126.5
97022.1
96970.4
96961.7
96879.6
96754.1
96562.3
96362.5
96019.6
95543.9
95001.2
94443.3
93842.5
93286.5
92660.2
92269.1
91815.5
91350.6
90843
90443.2
90028.6
89710.6
89630.6
89792.3
89932.6
90068.6
90278.1
93021.1
93020.7
93021.3
93022.5
93024.4
93027.1
93030.7
93035.4
93041
93047.8
93055.8
93065.4
93077.1
93091.4
93108.2
93128.2
93152.1
93180.2
93213
93251.8
93296.8
93347.7
93403.9
93465.6
93532.3
93602.6
93677.1
93756.4
93840
93926.3
94016.1
94111.1
94212.7
94320.2
94432
94546.7
94663.8
94783.3
94905.6
95031
95158.6
95286.5
95414.6
95543.1
95671.7
95800.6
95928.5
96054.9
96179.6
96301.8
96422.2
96540.7
96656.5
96768.6
96877.3
96983.5
97085.8
97183.9
97279.9
97372.1
97463.1
97555.3
97642.4
97721.4
97795.3
97863.4
97927.6
97990.5
98052.8
98112.7
98168.7
98221.4
98271.7
98319.4
98363.5
98402.9
98436.7
98464.3
98485.3
98498.2
98501.6
98494.6
98475
98442
98394.7
98333.5
98257.7
98167.1
98063.3
97947.4
97818.6
97675.3
97515.8
97343.1
97156.9
96954.9
96740.2
96514.3
96276.8
96030.6
95777.9
95520.9
95262.9
95002.1
94746.7
94492
94248.7
94010.6
93787.3
93575.4
93378.6
93200.8
93040.3
92899.1
92782.6
92683
92608.5
92554.4
92527.3
92516.9
92532.4
92567.4
92624.4
92700.3
92797.6
92910.1
93045.5
93190.2
93354.6
93530
93709.2
93897
94106.6
94306.5
94525.4
94746.1
94947.4
95168.4
95411.9
95635
95845.3
96094.1
96389
96737.4
97067.5
97344.8
97591.7
97820.1
98027.2
98219.8
98355.4
98495.5
98708.9