/*--------------------------------*- C++ -*----------------------------------*\
| =========                 |                                                 |
| \\      /  F ield         | OpenFOAM: The Open Source CFD Toolbox           |
|  \\    /   O peration     | Version:  dev                                   |
|   \\  /    A nd           | Web:      http://www.openfoam.org               |
|    \\/     M anipulation  |                                                 |
\*---------------------------------------------------------------------------*/
FoamFile
{
    version     2.0;
    format      ascii;
    class       volScalarField;
    object      p_0;
    location    "9.15";
}
// * * * * * * * * * * * * * * * * * * * * * * * * * * * * * * * * * * * * * //

dimensions      [1 -1 -2 0 0 0 0];

internalField   nonuniform List<scalar> 
12225
(
97797.1
97719
97626.1
97518.2
97388.8
97246.8
97086
96930.1
96749.3
96581
96391.8
96227.4
96039.4
95881.8
95685
95518.6
95403.6
95090.4
97793.2
97719.3
97627.3
97519.4
97390.5
97248.4
97087.3
96932.4
96750.8
96583
96393.2
96229.8
96040.8
95886.4
95689.9
95532.9
95393.7
95127
97793
97721.8
97630.8
97522.9
97394.5
97252.3
97092.9
96934.6
96756.6
96586.2
96399.5
96234
96045.9
95897.5
95697.7
95545.5
95397.6
95096.5
97796.3
97727.1
97637.2
97529.2
97401.2
97259.2
97100.9
96940.8
96765.2
96593.7
96410.9
96241.2
96060.7
95901.2
95716.2
95561.3
95426.5
95165.4
97801.8
97736.5
97647.5
97539.4
97411.7
97270.2
97112.8
96951.7
96777.6
96605.8
96425.9
96254.8
96079
95914.9
95740.8
95583.7
95453.3
95207.3
97814.3
97751.5
97662.3
97554.5
97427
97286.1
97129.4
96967.9
96794.9
96623.5
96446.1
96275.6
96103.7
95939.2
95772.4
95617.9
95473.1
95267.9
97830.3
97772.3
97682.9
97575.7
97448.4
97308.2
97152.1
96990.9
96819.1
96648.7
96473.9
96304.5
96136.4
95973
95811.2
95659.4
95514.5
95349.6
97854.8
97796.3
97706.9
97600.4
97473.3
97333.7
97178.5
97017.9
96847.8
96678.3
96506.1
96337.4
96172.3
96010.5
95852.9
95703.6
95561.8
95417.6
97882.6
97822.2
97733.1
97627.3
97500.7
97361.6
97207.3
97047.4
96879.1
96710.3
96540.7
96373
96210.1
96050.3
95896.4
95750.3
95612.5
95479.7
97916.6
97856.1
97768
97662.8
97537.4
97398.5
97246
97086.3
96920.6
96752.7
96585.5
96419.5
96259
96102
95952.5
95810
95677.7
95553.5
97959.6
97900.5
97814.8
97710.3
97586.5
97447.9
97297.4
97138.3
96974.9
96808.4
96643.7
96480.2
96322.8
96169.3
96024.4
95886.9
95760.3
95643.8
98015.7
97959.4
97876.8
97773
97650.9
97513.1
97364.6
97206.8
97045.8
96881.5
96719.6
96559.3
96405.3
96256.5
96116.6
95985.2
95864.7
95755.1
98090.4
98036.2
97957.1
97855.1
97735.1
97598.8
97452.2
97296.6
97138
96976.8
96818.2
96662
96512.3
96368.9
96234.7
96109.7
95995.6
95892.9
98187.2
98135.7
98060.8
97961.7
97844.2
97710.2
97565.8
97413.1
97257.4
97100.2
96945.5
96794.4
96649.8
96512.6
96384.7
96266.8
96159.6
96064.1
98310.2
98263
98192.9
98098.1
97983.7
97852.9
97711.3
97562.3
97410.3
97257.8
97108
96962.9
96824.5
96694.3
96573.6
96463.2
96363.8
96276
98458.3
98421
98357.8
98268.7
98158.3
98031.4
97893.6
97748.9
97601.6
97454.8
97311.3
97173.1
97042.3
96920.1
96807.7
96706
96615.4
96536.2
98631.8
98611.9
98558.1
98475.3
98369.8
98247.6
98114.5
97975.3
97834.1
97694.3
97558.5
97428.7
97306.8
97194.1
97091.7
97000.1
96919.6
96850.6
98826.5
98818.5
98772.3
98695.5
98595.4
98478.6
98351.3
98218.7
98084.8
97953.1
97826.2
97706.1
97594.5
97492.5
97401.1
97320.7
97251.6
97193.8
99029.8
99008.3
98962.6
98889.7
98794.6
98683.4
98562.4
98436.6
98310.3
98186.8
98068.8
97958.3
97856.8
97765.3
97684.5
97614.9
97556.7
97509.6
99162.2
99151.9
99111.3
99042.8
98952.4
98846.7
98731.7
98612.5
98493.3
98377.5
98267.7
98165.8
98073.2
97990.9
97919.6
97859.5
97810.8
97773.1
99255.8
99259
99223.8
99159.6
99073.7
98973.1
98863.7
98750.6
98637.9
98528.8
98426.1
98331.6
98246.7
98172.4
98109.1
98057.1
98016.4
97986.8
99331.1
99339
99307.1
99246.4
99164.6
99068.6
98964.2
98856.4
98749.2
98645.9
98549.3
98461
98382.5
98314.7
98258.1
98212.8
98178.7
98155.6
99390.4
99397.7
99367.4
99309.3
99231
99139
99038.9
98935.6
98833
98734.6
98642.8
98559.5
98486.2
98423.6
98372.3
98332.2
98303.4
98285.4
99440.2
99440.1
99409.8
99353.7
99278.2
99189.6
99093.2
98993.5
98894.7
98800.1
98712.1
98632.8
98563.4
98504.9
98457.5
98421.6
98396.7
98382.7
99472.9
99469
99438.5
99383.9
99310.9
99225.2
99131.5
99034.7
98938.8
98847
98762
98685.6
98619.2
98563.7
98519.4
98486.4
98464.6
98453.6
99488.8
99487.2
99457
99403.7
99332.8
99249.2
99157.7
99063.1
98969.2
98879.6
98796.7
98722.4
98658.2
98604.8
98562.7
98531.9
98512.2
98503.3
99499.7
99498.2
99468
99415.9
99346.6
99264.6
99174.7
99081.6
98989.3
98901.2
98819.7
98746.9
98684.1
98632.1
98591.5
98562.2
98544.1
98536.5
99509.5
99504.1
99473.9
99422.8
99354.6
99273.7
99184.9
99092.9
99001.6
98914.4
98833.8
98761.9
98700
98649.1
98609.4
98581.1
98563.9
98557.4
99512.3
99506.2
99476.5
99426
99358.6
99278.4
99190.3
99098.9
99008.1
98921.4
98841.4
98770
98708.7
98658.2
98619.1
98591.4
98574.8
98568.9
99514.5
99509.3
99477.4
99427
99359.8
99279.9
99192.2
99101
99010.5
98924
98844.2
98773
98711.9
98661.7
98622.8
98595.4
98579.2
98573.7
93431.2
93432.8
93436.1
93441.2
93448
93456.6
93467.1
93479.5
93493.9
93510.4
93528.9
93549.5
93572.2
93597.2
93624.3
93653.6
93685.3
93719.4
93755.8
93794.5
93835.6
93879
93924.9
93973.1
94023.5
94076.3
94131.3
94188.5
94247.9
94309.2
94372.3
94437.2
94503.8
94571.9
94641.5
94712.2
94784
94856.7
94930.1
95004.2
95079
95154.4
95230.4
95306.3
95382.7
95459.3
95535.7
95611.4
95687.9
95766.6
95846.1
95926.4
96010.4
96095.9
96182.6
96271.3
96362.5
96456.5
96554.2
96655.6
96761.3
96871.8
96986.9
97105.5
97225.8
97346.7
97468.2
97590.3
97713.4
97838.7
97966
98093.5
98219.7
98342.9
98458
98568.4
98674.2
98772.2
98853.3
98919.4
98972.1
99010.3
99031.2
99030.9
99008.3
98964.1
98901.1
98820.1
98718.9
98599.1
98464.1
98308.5
98136.5
97956.2
97765.1
97563.7
97353
97136
96915.7
96692.9
96474.3
96232.9
96014.4
95788.7
95563.6
95356.1
95148.2
94948.6
94751.5
94559.3
94375.7
94197
94022.7
93852.8
93687.7
93527.5
93371.2
93220.3
93078.5
92946.2
92820.8
92701.9
92590.5
92486.2
92387
92291.5
92198.1
92103.4
92002.1
91889.8
91761.7
91613.5
91440.8
91240
91007
90738.4
90431.1
90081.5
89682
89232.3
88739.8
88217.1
87676.8
87133.4
86599
86084.1
85597.3
85141.4
84716.3
84324.3
83961.9
83631.3
83324.7
83028.9
82738.1
82442.8
82125.1
81768.9
81368.2
80935.4
80485.3
80020.3
79533.9
79027
78517.4
78032
77596.9
77212.5
76883.1
76623.1
76447.3
76353.2
76381.2
76556.9
76874.3
77341.2
77954.2
78694.4
79545.3
80485.8
93434.5
93436.1
93439.4
93444.6
93451.1
93459.5
93469.8
93482.1
93496.3
93512.6
93530.9
93551.3
93573.8
93598.4
93625.3
93654.4
93685.9
93719.6
93755.7
93794.1
93834.9
93878.1
93923.7
93971.6
94021.9
94074.4
94129.2
94186.2
94245.4
94306.7
94369.8
94434.8
94501.4
94569.7
94639.4
94710.3
94782.3
94855.2
94928.8
95003.1
95078.1
95153.4
95229
95305.4
95382
95458.2
95534.7
95610.3
95686.6
95767
95848.2
95929.1
96011.2
96094.2
96179.8
96269.1
96360.3
96453.6
96550.3
96650.7
96755.4
96864.4
96978.1
97095.6
97214.4
97333.8
97453.2
97573
97694.7
97819
97942.8
98069.7
98196.5
98320
98436.2
98541.6
98644.7
98746
98831.2
98897
98945.1
98979
98996.5
98994.4
98971.5
98924.8
98862
98780.2
98678.6
98558.4
98420.8
98265.6
98097.2
97916.5
97724.6
97522.7
97311.9
97094.1
96873
96648
96426.2
96190
95964.3
95745.6
95513.6
95307.4
95098.6
94897.6
94700.4
94508.2
94324.5
94146
93971.7
93802.2
93637.9
93479.6
93324.9
93174.7
93034.2
92904.4
92781.5
92664.6
92555
92452.6
92355.6
92262.3
92170.8
92078.6
91980.1
91870.6
91745
91598.8
91428.2
91230
91000
90734.3
90431.7
90089.2
89695.7
89249.3
88759.3
88240
87703.7
87164.3
86633.6
86122.5
85639.1
85186.4
84765.2
84377.7
84012.7
83683.5
83380.1
83084
82793.5
82499.4
82182.2
81825.8
81425.5
80990.1
80538.8
80079.1
79590.1
79078.7
78563.6
78078.4
77647.3
77265.5
76934.3
76674.1
76496.9
76394.4
76417.9
76592.7
76908.7
77377.2
77994.7
78735.9
79589.2
80523.6
93440.2
93441.8
93444.9
93449.8
93456.4
93464.7
93475
93487.1
93501
93516.9
93534.8
93554.7
93576.8
93601
93627.4
93656.1
93687
93720.3
93755.9
93793.7
93833.9
93876.5
93921.4
93968.8
94018.6
94070.6
94124.9
94181.6
94240.5
94301.6
94364.7
94429.9
94496.7
94565.1
94635.1
94706.3
94778.9
94852.3
94926.3
95001.2
95076.6
95152.1
95228.3
95304.6
95380.7
95457.8
95534.9
95612.3
95690
95769.1
95848.7
95927.9
96009.3
96094.2
96180.8
96267.2
96356.2
96448.5
96543.4
96641
96742.3
96849.4
96960.8
97075.8
97191.9
97307.8
97423.4
97538.8
97655.4
97774.1
97896.7
98023.3
98152
98278.3
98398.4
98514.3
98618.9
98702.8
98777.1
98838.3
98884.5
98915.2
98928.5
98920.9
98896
98850.8
98786.5
98703.3
98601
98480.4
98342.4
98187.9
98019.3
97838
97645
97442.6
97231.6
97012.2
96789.7
96559.6
96341.4
96101
95865.6
95649
95423.6
95212.2
95001.6
94798.1
94601.2
94408.7
94224.1
94045.8
93871.8
93703
93540
93384.3
93233.3
93086.3
92948.9
92822.6
92703.8
92590.1
92484.2
92386
92293.2
92203.8
92116.2
92028.5
91935.5
91831.5
91710.4
91568.5
91402.7
91210
90985.8
90725.4
90429.6
90099.6
89721.9
89284.7
88801.3
88288.7
87760.2
87229.3
86706.7
86204.1
85727.4
85280.4
84862.8
84474.6
84115.8
83789.7
83493.3
83198.7
82911.6
82616.2
82300.1
81943.8
81545.9
81107.2
80649.3
80187.6
79695.9
79178
78657
78177.1
77750.8
77374.5
77041.4
76785.4
76613.2
76495.8
76505
76673.6
76986.1
77459.1
78087.5
78827.8
79681.1
80612.1
93448.9
93450.3
93453.2
93457.7
93464.4
93472.8
93482.8
93494.5
93508.1
93523.5
93540.9
93560.3
93581.8
93605.4
93631.1
93659
93689.1
93721.5
93756.1
93793
93832.3
93873.9
93918
93964.5
94013.5
94065
94118.9
94175.2
94233.8
94294.5
94357.7
94423.2
94490.2
94558.9
94629.3
94701
94774.3
94848.4
94923.2
94998.9
95075
95151.3
95228.3
95305
95382
95459.4
95536.5
95614.1
95691.7
95770
95849.4
95929.1
96011
96094.3
96177.3
96263.5
96352.2
96442
96533.9
96629
96727.6
96830.4
96938.1
97049.7
97161.9
97273.2
97383.7
97493.7
97604.1
97716.1
97836.2
97960.4
98086.8
98213.7
98335
98443.9
98539.6
98622.2
98692.4
98749.3
98792.1
98819.9
98826.8
98818.3
98791.6
98745.4
98679.2
98595.1
98491.9
98370
98231.2
98076.6
97907.8
97725.9
97530.8
97326.8
97114.9
96893.3
96669.3
96429.5
96207.4
95972.6
95737.6
95514.2
95289
95073.8
94860.8
94655
94457.5
94264.1
94078.5
93900.7
93727.7
93560.4
93399.3
93246.7
93100.4
92959
92826.4
92704.6
92590.4
92482.3
92382
92289.7
92203.1
92119.8
92038.3
91956.6
91870
91774
91661.1
91526.7
91367.9
91183.1
90968.4
90716.1
90425.5
90106.7
89753.2
89337.7
88867.1
88363.7
87846.4
87329.4
86819.9
86332.4
85867.7
85428
85017.3
84631.9
84275.6
83950.8
83661.6
83371.7
83091.1
82795.4
82479
82123.9
81730
81294
80826.1
80356.1
79860.6
79343.5
78820.7
78330.1
77903
77532.6
77190.9
76935.4
76779.2
76659.6
76650.5
76805.5
77111.6
77589.9
78220.8
78971
79827
80739.3
93460.5
93461.9
93464.8
93469.4
93475.7
93483.7
93493.2
93504.5
93517.5
93532.4
93549.1
93567.9
93588.4
93611
93635.6
93662.5
93691.4
93722.6
93756.1
93791.9
93830.1
93870.8
93913.9
93959.6
94007.9
94058.7
94112
94167.8
94226.1
94286.7
94349.7
94414.9
94482.1
94551.3
94622
94694.1
94768.9
94843.5
94919.4
94996.2
95073.3
95150.7
95228.4
95306
95383.7
95461.6
95539.1
95617
95695
95773.4
95851.9
95930.8
96011.2
96092.8
96175.8
96260.8
96346.5
96434.5
96524.6
96616
96710.7
96810.1
96913.9
97021
97128.6
97235
97340.1
97444.4
97549.1
97655.6
97769.7
97888
98009.2
98129.5
98242.9
98345.7
98436.2
98514.2
98579.7
98632.1
98671.1
98694.4
98700.3
98689.8
98661.9
98612.2
98542.6
98459
98354.4
98230.8
98090.9
97935.1
97765
97582.8
97384.9
97177.7
96964.9
96737.3
96508.1
96273.7
96043
95807.9
95571.5
95342.9
95115.3
94896.1
94681.4
94472.6
94272.9
94078.7
93891.7
93714.1
93542.4
93377.7
93219.9
93071.1
92930.3
92795.1
92668.4
92552.6
92444.6
92344.1
92251.5
92167.4
92088.8
92013.5
91940.3
91866.7
91788.4
91701.6
91599.5
91475.3
91326.5
91152.4
90952
90713.7
90426.3
90112.9
89785.2
89404.1
88956.3
88466.9
87963
87462.1
86969.4
86504.1
86059.1
85634.4
85233.9
84854.4
84498
84175.3
83890.8
83604.4
83329.2
83034.4
82719.4
82367
81976.4
81546
81068.1
80589.8
80088
79576
79053.5
78540.2
78111.3
77757.4
77394.7
77124.5
76979.4
76874.5
76853.6
76990
77286.7
77767.9
78400.9
79158.2
80000.8
80919.6
93474.9
93476.3
93479.1
93483.7
93489.7
93497.1
93506
93516.6
93528.9
93543.1
93559
93576.7
93596.2
93617.7
93641
93666.4
93694.1
93723.9
93756.1
93790.8
93827.8
93867.4
93909.6
93954.4
94001.8
94052
94104.7
94160.1
94217.9
94278.2
94341
94406.2
94473.6
94543
94614.2
94687.2
94761.8
94837.5
94914.9
94993.3
95071.6
95150.2
95228.9
95307.5
95386.2
95464.7
95543
95621.4
95699.7
95777.6
95855.6
95934
96013.4
96093.9
96175.2
96257.5
96341.6
96427.4
96514.4
96603.4
96695
96789.8
96886.7
96988.5
97092.1
97195.1
97296.4
97396
97495.7
97597.9
97702.2
97811.1
97922.1
98031.4
98134.8
98229.2
98313
98385.4
98445.8
98493.7
98527.9
98547.5
98550.6
98537
98505.8
98455.3
98386.6
98301.7
98194.6
98064.6
97924.1
97767
97594.6
97412.2
97210.7
96998.8
96781
96555.4
96321.3
96085.2
95848.8
95611.5
95372.4
95139.2
94908.8
94684.8
94467.5
94255.2
94053.6
93858.5
93670.7
93493
93322.3
93160.1
93006.4
92862.5
92727.7
92599.7
92480.7
92372.4
92272.2
92181.2
92098.5
92023.5
91954.5
91889.6
91826.4
91762.4
91694
91618.1
91529.2
91418.8
91281.1
91117.6
90934.5
90720
90447.8
90133.6
89823.9
89482.1
89069.8
88599.7
88110.2
87628.4
87156.2
86717.9
86294.2
85891.3
85516.2
85146.7
84788.5
84467.4
84185.3
83900.1
83628.9
83336.2
83018.9
82667.8
82284.6
81847.1
81375.1
80881.9
80375.2
79873.1
79347.5
78816.4
78375.5
78042.8
77670.6
77378.5
77224.8
77140.7
77113.3
77227.7
77511.2
77991.8
78625
79372.7
80208.3
81164.1
93491.1
93492.3
93494.9
93498.9
93504.1
93511.7
93520.3
93530.2
93541.9
93555.2
93569.9
93586.2
93604.3
93624.3
93646.3
93670.4
93696.8
93725.4
93756.4
93789.8
93825.8
93864.3
93905.5
93949.4
93996
94045.4
94097.5
94152.3
94209.8
94269.9
94332.5
94397.6
94465.1
94534.8
94606.6
94680.2
94755.5
94832.1
94909.8
94991.9
95071.1
95150.8
95230.6
95310.3
95390
95469.4
95548.5
95627.4
95705.8
95783.7
95861.4
95939.2
96017.4
96096.5
96176.2
96256.5
96338
96420.9
96505.4
96591.4
96678.9
96766.9
96856.3
96956.4
97056.4
97155
97251.4
97346.5
97440.9
97535.9
97631.7
97729.7
97828.5
97925.1
98016.9
98101.3
98176.8
98242
98296.2
98338.4
98367.5
98382.6
98382.2
98365.3
98331.4
98278.6
98206.4
98112.8
98006.3
97878.6
97735.4
97575.9
97400.5
97213.9
97012.2
96797.8
96576.5
96346.7
96109.4
95868.9
95628.2
95386.9
95145
94907.4
94673.6
94445.1
94224
94008.7
93804.6
93609
93420.6
93243.3
93075.1
92915.6
92766.4
92628
92498.7
92378.4
92270
92170.4
92079.3
91999.1
91928
91864.6
91805.9
91752.4
91701.8
91649.1
91591.4
91528.3
91454.1
91361.2
91237.5
91083.6
90917.1
90728.9
90484.4
90180.6
89880.2
89573.3
89205.9
88764.7
88293.8
87832.2
87384.4
86982.5
86581.6
86193.6
85850.3
85502.5
85149.3
84829.8
84546.8
84261.3
83994.2
83704
83386.9
83026.7
82652.4
82234.1
81760.8
81249.2
80727.6
80254.1
79741.1
79180.3
78709.2
78371.2
78011.8
77707.3
77533.9
77462.9
77430.9
77518.8
77785.6
78261.9
78894.8
79623.9
80479.7
81451.5
93509.7
93510.4
93513.1
93517.5
93523.3
93529.5
93537.7
93546.1
93556.5
93568.2
93581.5
93596.4
93613.2
93631.9
93652.6
93675.3
93700.2
93727.4
93757
93789.2
93824
93861.5
93901.7
93944.6
93990.4
94039.1
94090.6
94144.9
94202
94261.9
94324.4
94389.6
94457.2
94527.3
94599.6
94674
94750.4
94828.6
94907.8
94991.1
95072
95153.3
95234.6
95315.7
95396.6
95477
95556.9
95636.3
95714.8
95792.7
95870
95947.1
96024.2
96101.7
96179.6
96257.4
96336.1
96415.9
96497.1
96579.6
96664
96750.9
96842.6
96929.8
97020.8
97112.4
97202.6
97290.7
97379.1
97466.4
97553.4
97640.4
97726.9
97810.9
97890.6
97964
98029.7
98086.5
98133.5
98169.6
98193.7
98204.3
98199.9
98179
98141.4
98085.4
98010.4
97915.6
97804
97674.4
97529
97367.1
97188.6
96998.7
96795.6
96579.6
96354.4
96119.5
95878.4
95633.7
95389.1
95143.2
94897.8
94655.2
94416.9
94183.8
93958.5
93740.7
93533
93337.2
93149.1
92972.7
92807.5
92651.6
92506.8
92375.4
92252.4
92139.9
92042.5
91952.2
91872.6
91804.8
91745.3
91695.1
91649.4
91609.3
91571.8
91531.5
91486
91437.5
91378.9
91304.5
91197.7
91055.8
90905.8
90741.2
90529.2
90253.4
89962.1
89682.5
89362.9
88960.3
88512.3
88074.7
87654.1
87287.3
86925.2
86553
86231.9
85915.3
85576.2
85261
84977.6
84691.2
84428.8
84142.1
83823.5
83457.5
83085
82664.3
82197.9
81690.4
81144.6
80668.9
80195.5
79634.6
79126.7
78754.5
78411.4
78107.6
77915.1
77845.4
77808.1
77867.5
78118.6
78585
79210
79911.3
80791.3
81720.1
93529.4
93529.6
93532
93535.6
93540
93545.2
93551.4
93560.3
93570.1
93580.9
93593.2
93607.1
93622.5
93639.8
93659.1
93680.4
93703.8
93729.6
93757.9
93788.9
93822.7
93859.2
93898.6
93940.7
93985.7
94033.7
94084.6
94138.5
94195.3
94254.9
94317.3
94382.5
94450.4
94520.9
94594
94669.3
94747.1
94827.3
94908.9
94992.1
95075.3
95158.6
95241.9
95324.8
95407.2
95488.8
95569.5
95649.1
95727.8
95805.6
95882.8
95959.3
96035.3
96111
96186.6
96262
96337.3
96413.7
96491.1
96569.4
96648.9
96729.8
96812.1
96895
96979.9
97065.4
97150.2
97231.8
97311
97389.3
97466.3
97542.3
97616.6
97688.3
97756.1
97818.6
97874.7
97923.2
97963.1
97993.1
98011.4
98016.5
98006.5
97980.6
97937.6
97877.7
97800.4
97703.4
97588.8
97456.8
97308.8
97144.5
96964.3
96771.3
96565.6
96347.5
96119.5
95880.2
95635.8
95387.3
95138.3
94888.3
94639.3
94390.6
94147.4
93909.4
93679.2
93459.1
93248
93050.6
92862.9
92687.2
92525.5
92375.2
92235.2
92110.7
91995.3
91892.7
91805.7
91724.7
91658
91604.2
91558.1
91520.7
91489.8
91465.8
91442.1
91415.1
91383.5
91351.9
91309.5
91250.5
91162.6
91040.9
90908.3
90758.4
90578.6
90347
90077.5
89814.7
89536.4
89183.7
88767.1
88355.1
87966.6
87620
87300.2
86964.3
86656.2
86366.2
86052.7
85752.4
85473.5
85191.5
84934
84651.9
84338.2
83976.8
83604.7
83182.4
82669.4
82155.5
81610.9
81132.5
80690
80151.8
79618
79214.5
78873.2
78575.5
78367.5
78292.9
78247.8
78279.4
78511.7
78964.4
79588
80241.5
81131.4
82033.2
93549
93549.7
93551.6
93554.4
93558.4
93563.6
93569.8
93577.2
93585.6
93595.2
93606.2
93618.6
93632.4
93648.1
93665.7
93685.4
93707.9
93732.3
93759.4
93789.2
93822
93857.6
93896.2
93937.8
93982.4
94030
94080.5
94134.1
94190.7
94250.2
94312.6
94377.8
94445.9
94516.9
94590.8
94667.4
94746.3
94829.7
94912.7
94997.3
95082.5
95167.9
95253.2
95338.1
95422.3
95505.3
95586.9
95667.1
95746.1
95823.9
95900.7
95976.4
96051.1
96125
96198.3
96270.9
96343.1
96415.6
96488.5
96562
96635.8
96710.2
96785.2
96861.4
96938.6
97014.5
97088.9
97163.9
97235.9
97304.9
97371.7
97436.7
97499.5
97559.7
97616.5
97668.9
97716.2
97756.7
97789.2
97811.7
97822.8
97820.8
97804.7
97773.7
97726.8
97663
97583.1
97482.9
97365.7
97230.7
97080.3
96914.3
96732.4
96537.5
96329.8
96108.5
95877.1
95635.8
95387.9
95135.3
94881.2
94626.6
94374.5
94120.6
93872.7
93629.4
93394.8
93172.3
92956.6
92757.3
92571.9
92395.4
92237
92092.3
91957.3
91840.7
91734.9
91643
91566.1
91496.3
91442.6
91402.5
91372.1
91347
91331.8
91324.5
91316.3
91306.1
91291.6
91276.1
91250.5
91205.6
91140.6
91047.4
90935.4
90795
90640.7
90456.1
90228.3
89981.1
89727.5
89424
89055.7
88675.7
88323.5
88003.1
87717.1
87426.7
87130.8
86855.7
86572.1
86299
86033.2
85763.3
85516.5
85236.3
84934.7
84595.8
84213.2
83798
83241.2
82718.1
82200.1
81703.6
81256.8
80732.7
80184.1
79760.8
79408.8
79118.5
78897
78811.6
78758.1
78759.1
78970.2
79409.8
80013
80639
81530.9
82419.1
93570
93570.8
93572.3
93574.6
93578.2
93583.5
93588.8
93595
93602.2
93610.4
93619.9
93630.6
93642.9
93656.9
93672.8
93690.9
93711.3
93734.8
93761
93790.2
93822.3
93857.3
93895.3
93936.4
93980.7
94028.3
94079
94132.6
94189.2
94248.6
94311
94376.5
94445.1
94516.8
94591.9
94670.2
94751.3
94835.2
94920.6
95007.5
95095
95182.6
95269.8
95356.4
95442.2
95526.8
95609.7
95690.9
95770.4
95848.2
95924.4
95999.2
96072.4
96144.5
96215.5
96285.4
96354.7
96423.6
96492.1
96560.1
96627.8
96695.2
96762.8
96830.5
96897.7
96964.6
97031
97096
97158.1
97217.3
97273.8
97327.9
97379.6
97429.1
97475.8
97519.1
97557.5
97589.4
97613.4
97628.3
97632.6
97624.7
97603.5
97568
97517
97448.7
97361.5
97259.4
97140
97004.1
96852.5
96685.4
96502.8
96305.6
96095.4
95871.6
95636.6
95392.4
95141.9
94885.6
94626.2
94365.1
94108.5
93850.6
93598.2
93352
93112.2
92888
92670
92467.4
92284.6
92106.2
91951
91812.5
91681.4
91573.1
91477.8
91396.1
91330.9
91276
91233.7
91207
91192.6
91181.4
91181.8
91191.2
91201.2
91210.4
91215.2
91216.4
91209.7
91181.4
91139.1
91077.2
90987.8
90870.8
90739.7
90589.8
90407.9
90200.5
89962.1
89689.9
89374.1
89037.9
88724.3
88443.9
88198.2
87947.3
87671.3
87407.1
87155.2
86909.6
86659.8
86407.6
86179.6
85901.4
85607.2
85271.7
84899.7
84506.8
83989.3
83491
82955.7
82399.1
81923.3
81402.2
80834.9
80394.9
80025.4
79742.7
79508.9
79406.9
79348
79312.8
79502.9
79920.7
80475.9
81102.3
81998.7
82879
93592.3
93592.7
93594.2
93596.3
93599.2
93603.1
93607.7
93613.1
93619.3
93626.3
93634.3
93643.4
93654
93666.4
93680.8
93697.3
93716.4
93738.4
93764
93792.5
93824
93858.6
93896.3
93937.2
93981.5
94029.4
94080.6
94134.9
94191.9
94251.8
94314.5
94380.4
94449.9
94522.8
94599.1
94678.8
94762
94847.8
94935.4
95024.4
95114.2
95203.9
95293
95381.2
95468.6
95554.7
95638.9
95721.1
95800.9
95878.8
95954.7
96028.7
96100.8
96171.2
96240.2
96307.3
96373.3
96438.4
96502.5
96565.3
96626.7
96687
96746.4
96805.1
96862.8
96919.8
96976.2
97030.7
97082.3
97131
97176.8
97220.3
97261.6
97301.1
97338.5
97372.7
97401.9
97424.8
97440.8
97448.8
97446.6
97432.6
97405.4
97364.1
97307.6
97235.4
97143.6
97040.1
96919.8
96783.3
96631.3
96463.1
96279.4
96080.2
95866.6
95640.9
95403.5
95157.1
94902.9
94643.9
94380.9
94114.8
93851.6
93591
93333
93085
92841.5
92613.8
92397.9
92190.6
92008.5
91832.2
91677.8
91545
91418.3
91317.7
91232.9
91160.8
91106.7
91069
91038.5
91024.4
91025.3
91031.5
91049.3
91075.3
91105.2
91134.6
91158.4
91177.6
91190.2
91184
91165.3
91132.7
91065.6
90980.7
90880
90752.6
90608.1
90461.4
90263.5
90007.9
89734.8
89445.7
89174.4
88936.2
88739.8
88524.9
88270.4
88030.8
87809.2
87584.7
87350.2
87126.9
86918.5
86653.4
86370.8
86038.5
85674.6
85304.8
84840.3
84379.7
83839.5
83218
82683.7
82162.8
81576.7
81126.1
80735.9
80452.6
80205.5
80082.9
80017.6
79942.4
80115.7
80501.5
80995.3
81641.8
82529.4
83393.1
93618.2
93618.1
93619.4
93620.7
93622.9
93625.9
93629.3
93633.5
93638.4
93644.1
93650.8
93658.5
93667.8
93678.9
93692.2
93707.8
93726.1
93747.4
93771.1
93798.2
93828.5
93862.2
93899.4
93940.5
93985.7
94034.5
94086.8
94142.1
94200.1
94260.9
94324.7
94391.8
94462.4
94536.5
94614.2
94695.5
94780.6
94868.9
94958.8
95049.6
95141.2
95233
95323.8
95413.5
95502.5
95590
95675.5
95758.8
95839.2
95917.3
95992.8
96066.2
96137.5
96206.4
96273.4
96337.8
96399.9
96460.9
96520.4
96578.3
96634.3
96687.9
96739
96788.4
96836
96882.4
96928
96971.9
97013
97051
97086.2
97119.2
97150.5
97180.3
97208.5
97233.4
97253.6
97267.9
97275.7
97275.9
97266.6
97245.9
97212.6
97165.6
97104.5
97028.3
96938.2
96832.3
96710.7
96573.1
96419.4
96249.2
96063.3
95863.5
95649.1
95421.7
95182.5
94935
94679.6
94417
94150.6
93882.9
93613.4
93351
93088
92836
92591.7
92358.4
92144.3
91935.4
91750.6
91580.1
91426
91296.6
91178.5
91083.6
91007.9
90947
90901.1
90878.8
90863.2
90863.3
90878.1
90904.5
90941.6
90985
91033.1
91083.2
91127.6
91166.9
91198.3
91215.8
91224.4
91217.7
91175.9
91120.7
91055.6
90951.8
90833.4
90738.2
90607.3
90388
90146.8
89906
89681
89487.4
89335
89160.7
88933.4
88729.5
88527.3
88322.7
88113.1
87915.8
87735.6
87505.5
87230.2
86891
86541.8
86186.2
85738.7
85281.1
84766
84135.9
83540.9
83015.5
82415.7
81945.2
81548
81255.6
80996.3
80844.4
80762.7
80648.4
80806.7
81153.9
81605.5
82252.2
83114.2
83943.5
93647.6
93647.8
93648.5
93649.3
93650.6
93652.6
93654.9
93657.9
93661.4
93665.8
93671.1
93677.6
93685.7
93695.5
93707.4
93721.5
93737.9
93757.1
93779.3
93804.8
93834.3
93867.1
93904.8
93947.1
93993.6
94043.8
94097.4
94154.6
94214.1
94276.4
94341.9
94411.1
94483.8
94559.8
94639.3
94722.4
94809.4
94899.8
94992.3
95085.2
95178.4
95271.8
95364.1
95455.2
95545.2
95633.9
95720.5
95804.9
95886.3
95964.9
96040.7
96113.6
96183.9
96251.2
96315.9
96377.5
96435.7
96492.3
96547.4
96600.3
96650.8
96698.6
96742.7
96782.8
96819.8
96855.2
96890
96923.1
96953.4
96981
97006.1
97029.1
97050.8
97071.4
97090.2
97105.9
97117
97123.2
97123.3
97116.2
97100.1
97073.2
97035
96984
96919.5
96839.6
96747
96638.9
96515.6
96376.7
96221.2
96049.7
95863.2
95663.1
95448.9
95221.8
94982.3
94732.7
94476.5
94212
93942.1
93672.7
93399.6
93134.8
92869
92613.6
92369.4
92133.4
91916.2
91708.9
91521.9
91355.1
91203.8
91075.8
90967.5
90877.4
90809.7
90760.5
90723.8
90713.8
90714.8
90730.9
90760.9
90807.4
90863.3
90925
90991.5
91062.7
91128.7
91190.2
91241.9
91284.6
91320.6
91337.5
91326.7
91302.2
91267.7
91197.7
91107.9
91040.3
90967.2
90816.1
90619.3
90424.3
90248.8
90102.9
89988.2
89859.8
89680.5
89511.2
89321.4
89141.8
88973.6
88785.8
88638.2
88451
88192.6
87842.3
87518.3
87172.7
86774.2
86315.2
85767.9
85137.2
84506.3
83971.1
83358.9
82859
82464.5
82157
81888.2
81697.7
81582.6
81436
81564.9
81877.5
82324.2
82951.2
83736.4
84524.9
93682.3
93682.5
93682.8
93683.2
93683.8
93684.8
93686
93687.8
93690
93692.8
93696.5
93701.5
93707.9
93715.9
93725.9
93737.8
93752
93768.7
93788.6
93812.6
93841.1
93875.4
93915.1
93960.2
94008.9
94061.1
94116.6
94175.4
94237.4
94302.3
94370.5
94442.5
94518.1
94596.8
94678.7
94764.1
94852.7
94944.2
95037.4
95130.9
95225.4
95321.1
95415.7
95508.2
95599.3
95689
95776.4
95861.6
95944
96023.2
96099.5
96172.2
96241.6
96307.4
96369.7
96428.7
96483.2
96534.9
96585.2
96633.2
96678.6
96720
96757.2
96789.5
96816.9
96841.6
96865.3
96887.7
96907.7
96925.3
96940.5
96954
96966.5
96978.1
96987.9
96994.7
96997.4
96995.8
96988.7
96974.6
96951.8
96919.1
96875.7
96820
96750.3
96668.2
96573
96464
96338.8
96198.7
96042.7
95871.2
95685.9
95486.5
95273.3
95046.6
94808
94558.6
94300.8
94035.5
93764.8
93492.8
93218.3
92950.5
92683.6
92426.1
92180.5
91945
91724.7
91519.2
91331.4
91165.7
91018.3
90893.3
90791.6
90706.8
90647.1
90607
90582.1
90583.6
90601
90633.6
90680.8
90745.5
90819.9
90900.3
90986.8
91079.2
91167.4
91252.9
91326
91395.6
91458.8
91498.6
91522.3
91535.7
91526.3
91492.4
91440.8
91398.7
91367.8
91286.8
91149.6
91006.7
90886.7
90789
90713.2
90632
90513.5
90371.8
90219.5
90053.4
89925.8
89779.4
89644.8
89480.7
89255.7
88918.3
88617.9
88283
87942.4
87452.7
86861.3
86236.8
85588.7
85027.8
84411
83888.9
83496.5
83168
82882.3
82649.2
82486.2
82314.9
82402
82682.1
83139.1
83724.4
84408.2
85140.1
93724.8
93724.7
93724.5
93724.3
93724.1
93724.1
93724.3
93724.8
93725.5
93726.7
93728.3
93731.3
93735.8
93741.8
93749.7
93759.8
93772.4
93787.9
93806.9
93831.2
93861.1
93896.6
93937.4
93983.7
94034.4
94088.6
94146.1
94207.2
94271.7
94339.3
94410.5
94485.4
94564
94645.7
94730.8
94818.9
94909.4
95001.8
95095.5
95189.5
95284.3
95380.9
95478.1
95573.5
95666.6
95757.6
95846.3
95932.2
96015.3
96094.9
96171.4
96244
96312.3
96376.7
96436.7
96492.8
96544.4
96591.7
96635.9
96678.3
96719
96755
96785.1
96810.1
96829.2
96843.8
96856.7
96869
96879.5
96887.6
96893.5
96897.9
96901.7
96904.7
96906
96904.3
96899.3
96890.3
96876.1
96855.3
96826.5
96788.7
96740.4
96680.6
96608.2
96523.3
96425.2
96312.7
96185.7
96045
95889.9
95719.8
95536.2
95338.9
95128.3
94903.9
94666.5
94418.7
94161.6
93895.6
93625.7
93352.8
93079.2
92808.4
92541.2
92281.6
92034.8
91799.7
91578
91373.7
91184.7
91021.4
90876.5
90755.3
90658.2
90579.4
90528
90496.4
90483.9
90496.5
90529
90577.9
90642.6
90723.8
90816.7
90916.3
91024
91137
91249
91358.9
91456.9
91553
91644.2
91708.4
91767.5
91820.7
91840.3
91839.3
91825.9
91819.6
91827.5
91809.4
91734.6
91658.1
91604.3
91555.5
91517.7
91482.4
91424.5
91318.2
91226.3
91072.7
90988.1
90919.6
90776
90630.3
90431.4
90164.8
89855.3
89519.2
89183
88677.9
88073.2
87451.4
86794.2
86193
85582.7
85036.2
84649.3
84297.7
83980.9
83702
83492.4
83294.9
83327.4
83580.5
84029.8
84554.1
85141.5
85791.7
93779.8
93778.4
93777.2
93775.9
93774.6
93773.3
93772
93771
93770.2
93769.8
93769.9
93771.1
93773.6
93778.1
93784.4
93793.2
93804.8
93819.7
93838.5
93861.9
93894.6
93931.9
93974.2
94021.7
94073.8
94129.1
94187.8
94251
94317.6
94386.6
94458.7
94535.1
94616.2
94701.3
94790
94881.3
94974.5
95069.3
95165.4
95262.4
95360
95458.2
95556.4
95652.8
95747.6
95840.7
95931
96017.9
96101.5
96181.4
96257.7
96330.1
96397.6
96460.1
96518.1
96571.5
96619.5
96662.9
96702.2
96737.7
96772.6
96804.6
96828.4
96845.8
96857.4
96863.2
96866.5
96869.5
96871.4
96871.2
96868.6
96864.7
96860.3
96855.2
96848.5
96839.1
96826.8
96810.9
96790.1
96763.3
96729.2
96686.9
96634.4
96570.6
96495.2
96407.7
96306.6
96191.1
96063
95923.1
95770.2
95603.1
95421.9
95227.9
95020.8
94799.1
94564.6
94318.9
94063.4
93798.9
93529.5
93257.2
92985.5
92713.1
92447.1
92186.4
91939
91702.3
91480.2
91276.9
91088.9
90926.9
90783.9
90666
90573.7
90501.4
90457.5
90435
90435.9
90459.3
90505
90569.1
90651.4
90748.4
90859.7
90978.7
91109
91241.9
91379
91514.2
91639.9
91761.4
91881.9
91974.5
92068.1
92155.2
92209.6
92245.4
92272.1
92303.1
92345.7
92380.2
92373.9
92381.1
92402.3
92407
92412.5
92423.3
92418
92368.9
92323.5
92221.1
92206.5
92178.5
92024.6
91901.1
91751.3
91526.8
91230.6
90886.7
90520.4
90019.6
89420.2
88788.8
88138.9
87499.2
86900.1
86316.8
85931.9
85549.5
85192.9
84859.3
84620
84391.4
84351
84563
84982.4
85437.1
85939.6
86489.5
93849.4
93846.9
93844.7
93842.1
93839.4
93836.4
93833.3
93830.6
93828.2
93826.5
93825.4
93825.3
93826.7
93830.1
93835.7
93844
93856
93871.7
93891.9
93917.2
93949.5
93987.2
94029.9
94077.7
94130.3
94186.2
94245.8
94309.9
94377.7
94447.9
94521
94598.8
94682.5
94771.4
94863.5
94957.5
95053
95150.1
95248.8
95349.4
95450.9
95551
95649.8
95747.3
95843.4
95937.9
96029.5
96117.7
96202
96281.9
96357.9
96430
96497
96558.3
96614.3
96665.5
96710.7
96750
96785.1
96814.6
96842.2
96868.6
96887.2
96897.3
96902.1
96901
96896.4
96891.3
96886.1
96879.1
96869.3
96857.7
96845.8
96833.2
96819.4
96803.5
96784.6
96762.1
96735.5
96703.3
96664.5
96617.9
96561.9
96495.1
96416.9
96326.6
96223.2
96106.7
95978.9
95840.8
95690.9
95527.9
95350.1
95159.9
94956.6
94737.9
94506.9
94264.9
94011.7
93750.1
93482.6
93211.9
92941.3
92669.6
92404.6
92143.6
91896.3
91657.8
91437.1
91232.3
91047
90885.7
90745.9
90630.6
90543.6
90477.7
90439.9
90426.3
90440.1
90474.3
90533.3
90611.6
90710.3
90824.1
90954.5
91093.8
91246.8
91400.9
91562.9
91724.3
91877.1
92024
92174.5
92301.3