/*--------------------------------*- C++ -*----------------------------------*\
| =========                 |                                                 |
| \\      /  F ield         | OpenFOAM: The Open Source CFD Toolbox           |
|  \\    /   O peration     | Version:  dev                                   |
|   \\  /    A nd           | Web:      http://www.openfoam.org               |
|    \\/     M anipulation  |                                                 |
\*---------------------------------------------------------------------------*/
FoamFile
{
    version     2.0;
    format      ascii;
    class       surfaceScalarField;
    object      phi;
    location    "9.15";
}
// * * * * * * * * * * * * * * * * * * * * * * * * * * * * * * * * * * * * * //

dimensions      [1 0 -1 0 0 0 0];

internalField   nonuniform List<scalar> 
24170
(
2.04902e-06
2.08119e-06
1.10578e-06
1.56246e-06
6.44575e-07
1.04968e-06
4.00597e-07
8.02994e-07
2.34986e-07
6.95226e-07
1.49206e-07
5.82961e-07
-5.21803e-08
6.69381e-07
-2.13022e-08
4.07733e-07
-2.95945e-07
6.85327e-07
-1.50373e-07
2.28919e-07
-5.0526e-07
7.08287e-07
-2.79341e-07
9.69048e-08
-5.92415e-07
6.1536e-07
-1.58308e-07
-1.56377e-07
-2.29844e-07
3.29113e-07
1.27542e-06
-1.27918e-06
1.53153e-06
-2.33848e-08
2.23844e-06
-5.03934e-07
3.72866e-06
2.95947e-06
2.95511e-06
3.01685e-06
2.32577e-06
2.32614e-06
1.85592e-06
1.88752e-06
1.51988e-06
1.61312e-06
1.11409e-06
1.5361e-06
9.64385e-07
1.33144e-06
6.26598e-07
1.22822e-06
5.0438e-07
1.25547e-06
2.12719e-07
9.30405e-07
8.12922e-08
1.22206e-06
7.91627e-08
4.506e-07
-9.92247e-08
1.11677e-06
1.40623e-07
-9.54294e-08
-1.54765e-07
8.98566e-07
1.98395e-07
-1.38722e-06
-2.31705e-07
6.41997e-07
2.08533e-06
1.36716e-07
4.57223e-06
3.51754e-06
4.20712e-06
4.12966e-06
3.84683e-06
3.39585e-06
3.45442e-06
2.95394e-06
3.08796e-06
2.61708e-06
2.69802e-06
2.52643e-06
2.43171e-06
2.15972e-06
2.05485e-06
2.13316e-06
1.86081e-06
1.94013e-06
1.75584e-06
1.48611e-06
1.4719e-06
1.92654e-06
1.66463e-06
6.43549e-07
1.17961e-06
1.95643e-06
1.27662e-06
1.40768e-07
4.89564e-07
1.98745e-06
4.31243e-07
-1.05084e-06
-1.97609e-07
1.52635e-06
1.08322e-06
1.03414e-06
4.83743e-06
4.29407e-06
4.97875e-06
4.80625e-06
4.78859e-06
4.36273e-06
4.65961e-06
3.81982e-06
4.33014e-06
3.64479e-06
4.23571e-06
3.2758e-06
3.81971e-06
3.19116e-06
3.93015e-06
2.59636e-06
3.30412e-06
3.10096e-06
3.51063e-06
1.76924e-06
2.87366e-06
3.0238e-06
2.9747e-06
9.6137e-07
2.39079e-06
2.9274e-06
2.52397e-06
3.6666e-07
2.00239e-06
2.83877e-06
1.59285e-06
-3.38938e-07
3.30687e-07
3.07304e-06
1.31848e-06
3.46165e-07
5.11115e-06
5.19682e-06
5.61943e-06
5.18835e-06
5.2839e-06
5.54667e-06
5.39471e-06
4.51215e-06
4.93978e-06
4.86211e-06
5.08628e-06
3.84267e-06
4.53019e-06
4.41989e-06
4.84253e-06
2.90906e-06
4.12518e-06
4.39833e-06
4.35391e-06
2.07575e-06
3.80307e-06
4.07651e-06
3.64358e-06
1.57816e-06
3.3603e-06
3.62959e-06
3.13327e-06
9.83295e-07
2.91806e-06
3.41056e-06
2.04785e-06
8.59948e-07
1.39973e-06
4.03328e-06
1.54182e-06
1.44174e-06
5.53224e-06
6.38783e-06
5.87544e-06
5.80881e-06
5.52519e-06
6.81918e-06
5.71586e-06
5.19272e-06
5.17878e-06
6.22589e-06
5.2516e-06
4.54587e-06
4.69001e-06
5.71184e-06
4.8966e-06
3.37927e-06
4.42159e-06
5.50352e-06
4.54712e-06
2.53445e-06
4.19558e-06
4.9719e-06
4.07072e-06
2.19722e-06
3.99126e-06
4.16284e-06
3.61669e-06
1.77824e-06
3.374e-06
4.03892e-06
2.6188e-06
1.9725e-06
2.60887e-06
4.374e-06
2.44728e-06
1.99411e-06
6.22989e-06
7.60139e-06
6.2946e-06
6.78466e-06
5.90301e-06
8.20826e-06
6.07987e-06
5.95576e-06
5.69962e-06
7.49821e-06
5.83579e-06
5.24569e-06
5.32143e-06
7.0099e-06
5.27588e-06
4.15441e-06
4.85788e-06
6.60413e-06
4.74779e-06
3.27305e-06
4.65957e-06
5.63964e-06
4.56155e-06
2.82541e-06
4.53222e-06
4.68254e-06
4.01507e-06
2.74688e-06
3.7528e-06
4.71495e-06
3.13262e-06
2.97877e-06
3.30534e-06
4.55394e-06
3.65045e-06
2.42183e-06
4.92583e-06
8.36666e-06
4.98244e-06
7.52328e-06
4.73375e-06
9.21728e-06
4.75256e-06
6.6523e-06
4.56148e-06
8.36855e-06
4.58178e-06
5.85969e-06
4.32421e-06
7.86454e-06
4.10489e-06
4.92944e-06
4.02585e-06
7.20035e-06
3.73694e-06
4.03604e-06
3.82124e-06
5.9924e-06
3.58826e-06
3.4605e-06
3.51486e-06
5.12841e-06
3.11377e-06
3.48939e-06
3.0745e-06
5.06959e-06
2.58421e-06
3.76033e-06
2.71654e-06
4.68545e-06
4.03625e-06
2.57133e-06
5.86924e-06
9.21066e-06
5.82656e-06
8.47142e-06
5.56761e-06
1.03392e-05
5.40497e-06
7.62511e-06
5.25677e-06
9.28346e-06
5.10726e-06
6.72725e-06
5.05818e-06
8.59163e-06
4.77171e-06
5.84322e-06
4.85508e-06
7.69694e-06
4.47079e-06
4.95418e-06
4.55127e-06
6.40428e-06
4.11993e-06
4.34595e-06
4.02418e-06
5.64335e-06
3.56129e-06
4.33655e-06
3.58865e-06
5.39766e-06
3.2799e-06
4.39285e-06
3.40711e-06
4.8524e-06
4.44711e-06
3.26543e-06
6.78298e-06
1.04078e-05
6.59914e-06
9.67553e-06
6.57268e-06
1.13282e-05
6.32411e-06
8.78074e-06
6.28725e-06
1.0176e-05
5.94073e-06
7.87951e-06
5.99163e-06
9.29483e-06
5.58329e-06
6.94953e-06
5.7141e-06
8.21219e-06
5.20342e-06
6.05843e-06
5.2012e-06
6.95629e-06
4.68213e-06
5.36995e-06
4.6465e-06
6.14233e-06
4.18009e-06
5.22886e-06
4.22121e-06
5.7439e-06
3.94406e-06
5.02527e-06
4.00375e-06
5.11527e-06
4.86085e-06
3.88697e-06
8.08248e-06
1.13631e-05
7.78362e-06
1.11021e-05
7.80219e-06
1.23667e-05
7.35504e-06
1.02304e-05
7.33287e-06
1.11397e-05
6.84498e-06
9.25366e-06
6.89872e-06
1.00648e-05
6.36001e-06
8.25384e-06
6.43797e-06
8.837e-06
5.88463e-06
7.26216e-06
5.8527e-06
7.58705e-06
5.29881e-06
6.46873e-06
5.29963e-06
6.64262e-06
4.89993e-06
6.08641e-06
4.97241e-06
6.08769e-06
4.68136e-06
5.69656e-06
4.66772e-06
5.47422e-06
5.23143e-06
4.61573e-06
9.5851e-06
1.26123e-05
8.86165e-06
1.30413e-05
8.79418e-06
1.35716e-05
8.23762e-06
1.18667e-05
8.2553e-06
1.21299e-05
7.74832e-06
1.07095e-05
7.82101e-06
1.0869e-05
7.2925e-06
9.59519e-06
7.3354e-06
9.54093e-06
6.80538e-06
8.48148e-06
6.73217e-06
8.28513e-06
6.21813e-06
7.55648e-06
6.10754e-06
7.27802e-06
5.76737e-06
6.90211e-06
5.67398e-06
6.61351e-06
5.49344e-06
6.26905e-06
5.38569e-06
5.9399e-06
5.60361e-06
5.33941e-06
1.06996e-05
1.41315e-05
1.00436e-05
1.49552e-05
1.00338e-05
1.4759e-05
9.50854e-06
1.35062e-05
9.43779e-06
1.32381e-05
8.92252e-06
1.21992e-05
8.83064e-06
1.18576e-05
8.31544e-06
1.09395e-05
8.16553e-06
1.04493e-05
7.64233e-06
9.69781e-06
7.3922e-06
9.16394e-06
6.94932e-06
8.57199e-06
6.66111e-06
8.08543e-06
6.40189e-06
7.62986e-06
6.23827e-06
7.20026e-06
6.11002e-06
6.78033e-06
5.99966e-06
6.39603e-06
6.01614e-06
5.90467e-06
1.27126e-05
1.55079e-05
1.20201e-05
1.68698e-05
1.17279e-05
1.61957e-05
1.11329e-05
1.51783e-05
1.0845e-05
1.45298e-05
1.03276e-05
1.36499e-05
1.00358e-05
1.30041e-05
9.57584e-06
1.21833e-05
9.25483e-06
1.14797e-05
8.84423e-06
1.07491e-05
8.48446e-06
1.01008e-05
8.11171e-06
9.46612e-06
7.78171e-06
8.88133e-06
7.48443e-06
8.3426e-06
7.22669e-06
7.82871e-06
7.03422e-06
7.30488e-06
6.87208e-06
6.8584e-06
6.42824e-06
6.72976e-06
1.44576e-05
1.67422e-05
1.38817e-05
1.84946e-05
1.34487e-05
1.76119e-05
1.28326e-05
1.67139e-05
1.2316e-05
1.58972e-05
1.17258e-05
1.50181e-05
1.12668e-05
1.41666e-05
1.07948e-05
1.32862e-05
1.03653e-05
1.24698e-05
9.94187e-06
1.16689e-05
9.50608e-06
1.09747e-05
9.06607e-06
1.02889e-05
8.63671e-06
9.64201e-06
8.24899e-06
9.01753e-06
7.91309e-06
8.41326e-06
7.58698e-06
7.84621e-06
7.36617e-06
7.26507e-06
6.77967e-06
7.17662e-06
1.63251e-05
1.80039e-05
1.57856e-05
1.96958e-05
1.537e-05
1.86401e-05
1.48696e-05
1.77766e-05
1.43492e-05
1.69228e-05
1.379e-05
1.60166e-05
1.3245e-05
1.50858e-05
1.26756e-05
1.41657e-05
1.20932e-05
1.33048e-05
1.14681e-05
1.2494e-05
1.08422e-05
1.17521e-05
1.0218e-05
1.10205e-05
9.62893e-06
1.03025e-05
9.07649e-06
9.60948e-06
8.5704e-06
8.93167e-06
8.12612e-06
8.28197e-06
7.69513e-06
7.67154e-06
7.09897e-06
7.34165e-06
1.92633e-05
1.88786e-05
1.84105e-05
2.04898e-05
1.77294e-05
1.92404e-05
1.70806e-05
1.83189e-05
1.64576e-05
1.74013e-05
1.58348e-05
1.64491e-05
1.51857e-05
1.55006e-05
1.44781e-05
1.45994e-05
1.37243e-05
1.37534e-05
1.29226e-05
1.29591e-05
1.21143e-05
1.21992e-05
1.13292e-05
1.14295e-05
1.05907e-05
1.0655e-05
9.89352e-06
9.91211e-06
9.23659e-06
9.19323e-06
8.61473e-06
8.51175e-06
8.0329e-06
7.87018e-06
7.26436e-06
7.49881e-06
1.91953e-05
1.83148e-05
1.86062e-05
2.00413e-05
1.78403e-05
1.89793e-05
1.7019e-05
1.81226e-05
1.61896e-05
1.72118e-05
1.53666e-05
1.6246e-05
1.45464e-05
1.52894e-05
1.37356e-05
1.43809e-05
1.29503e-05
1.35161e-05
1.2158e-05
1.2735e-05
1.13559e-05
1.20019e-05
1.05743e-05
1.12379e-05
9.81874e-06
1.04642e-05
9.09208e-06
9.72177e-06
8.39694e-06
9.00574e-06
7.71652e-06
8.34556e-06
7.05794e-06
7.72384e-06
7.13922e-06
6.42308e-06
1.73358e-05
1.75358e-05
1.65218e-05
1.90741e-05
1.56906e-05
1.80566e-05
1.49282e-05
1.7172e-05
1.4191e-05
1.62699e-05
1.34236e-05
1.5362e-05
1.26155e-05
1.44769e-05
1.17946e-05
1.36207e-05
1.09918e-05
1.27793e-05
1.02143e-05
1.20138e-05
9.45821e-06
1.13099e-05
8.72113e-06
1.05863e-05
7.99075e-06
9.8631e-06
7.27691e-06
9.1618e-06
6.5671e-06
8.50316e-06
5.8634e-06
7.89888e-06
5.18306e-06
7.32008e-06
6.76437e-06
4.54039e-06
1.51301e-05
1.62574e-05
1.43382e-05
1.75914e-05
1.36602e-05
1.65076e-05
1.30685e-05
1.56002e-05
1.24955e-05
1.47375e-05
1.1882e-05
1.39219e-05
1.11923e-05
1.31693e-05
1.04323e-05
1.24495e-05
9.63572e-06
1.17086e-05
8.8452e-06
1.10002e-05
8.07883e-06
1.03471e-05
7.33065e-06
9.68556e-06
6.5789e-06
9.0397e-06
5.83131e-06
8.41211e-06
5.10965e-06
7.80825e-06
4.42642e-06
7.2447e-06
3.78698e-06
6.70465e-06
6.18421e-06
3.19186e-06
1.34716e-05
1.4405e-05
1.28843e-05
1.56196e-05
1.22486e-05
1.46517e-05
1.16249e-05
1.38119e-05
1.10062e-05
1.3016e-05
1.0367e-05
1.22884e-05
9.70655e-06
1.16328e-05
9.03991e-06
1.10001e-05
8.328e-06
1.03794e-05
7.59583e-06
9.77055e-06
6.88913e-06
9.18251e-06
6.20352e-06
8.58864e-06
5.53175e-06
8.0138e-06
4.86501e-06
7.47126e-06
4.22604e-06
6.92741e-06
3.62323e-06
6.41714e-06
3.07108e-06
5.91717e-06
5.43528e-06
2.5666e-06
1.21142e-05
1.23692e-05
1.15137e-05
1.35464e-05
1.08759e-05
1.26961e-05
1.0257e-05
1.19234e-05
9.6472e-06
1.11969e-05
9.03702e-06
1.05508e-05
8.45443e-06
9.95287e-06
7.88839e-06
9.38721e-06
7.2919e-06
8.88034e-06
6.65942e-06
8.39673e-06
6.03699e-06
7.89328e-06
5.41895e-06
7.38651e-06
4.81948e-06
6.88553e-06
4.25137e-06
6.40415e-06
3.70548e-06
5.92914e-06
3.18313e-06
5.48863e-06
2.68364e-06
5.05661e-06
4.64747e-06
2.2013e-06
1.06941e-05
1.0419e-05
1.02809e-05
1.13032e-05
9.86649e-06
1.05342e-05
9.41053e-06
9.89029e-06
8.86834e-06
9.33504e-06
8.28225e-06
8.81667e-06
7.67305e-06
8.32572e-06
7.05663e-06
7.85457e-06
6.46333e-06
7.41331e-06
5.89293e-06
6.99583e-06
5.33799e-06
6.56912e-06
4.78614e-06
6.15233e-06
4.24182e-06
5.73679e-06
3.71655e-06
5.32879e-06
3.20644e-06
4.92956e-06
2.7246e-06
4.5517e-06
2.2585e-06
4.1931e-06
3.85574e-06
1.80877e-06
9.39512e-06
8.45231e-06
9.18026e-06
8.96158e-06
8.96604e-06
8.26744e-06
8.67703e-06
7.78658e-06
8.29084e-06
7.41458e-06
7.80739e-06
7.076e-06
7.23288e-06
6.76028e-06
6.59648e-06
6.43713e-06
5.95217e-06
6.08919e-06
5.33289e-06
5.733e-06
4.73956e-06
5.36893e-06
4.18493e-06
5.00284e-06
3.66886e-06
4.63701e-06
3.18566e-06
4.28553e-06
2.72518e-06
3.95143e-06
2.28697e-06
3.63871e-06
1.86303e-06
3.35149e-06
3.08051e-06
1.45591e-06
8.38943e-06
6.78596e-06
8.11259e-06
6.83225e-06
7.83605e-06
6.21012e-06
7.5004e-06
5.87372e-06
7.09884e-06
5.64985e-06
6.65508e-06
5.43433e-06
6.18003e-06
5.23091e-06
5.68653e-06
5.00634e-06
5.18651e-06
4.74625e-06
4.69817e-06
4.46101e-06
4.22836e-06
4.1611e-06
3.78748e-06
3.84938e-06
3.37739e-06
3.53631e-06
2.98385e-06
3.25251e-06
2.59844e-06
2.9935e-06
2.21539e-06
2.76053e-06
1.83252e-06
2.55345e-06
2.36891e-06
1.4413e-06
7.84375e-06
4.93118e-06
7.55869e-06
4.89314e-06
7.20662e-06
4.40379e-06
6.80865e-06
4.19268e-06
6.38783e-06
4.06964e-06
5.94035e-06
3.95636e-06
5.48899e-06
3.83148e-06
5.06145e-06
3.65828e-06
4.65503e-06
3.45343e-06
4.26544e-06
3.2281e-06
3.87534e-06
3.00595e-06
3.47598e-06
2.78158e-06
3.06515e-06
2.55808e-06
2.64495e-06
2.36145e-06
2.22134e-06
2.1825e-06
1.80779e-06
2.01488e-06
1.40681e-06
1.86897e-06
1.73631e-06
1.02579e-06
7.02827e-06
3.23574e-06
6.95419e-06
2.93332e-06
6.6806e-06
2.70633e-06
6.3123e-06
2.66355e-06
5.9116e-06
2.64456e-06
5.48699e-06
2.62474e-06
5.04268e-06
2.58892e-06
4.58177e-06
2.50189e-06
4.11685e-06
2.37091e-06
3.65379e-06
2.21426e-06
3.19393e-06
2.05997e-06
2.7316e-06
1.90925e-06
2.26261e-06
1.76333e-06
1.78708e-06
1.64378e-06
1.31893e-06
1.52688e-06
8.61192e-07
1.41717e-06
4.20731e-07
1.32096e-06
1.23359e-06
2.98115e-10
6.23914e-06
1.47885e-06
6.21887e-06
1.11283e-06
5.8981e-06
1.24403e-06
5.40323e-06
1.44226e-06
4.84014e-06
1.5571e-06
4.26133e-06
1.61633e-06
3.70119e-06
1.6247e-06
3.15745e-06
1.5842e-06
2.62e-06
1.51e-06
2.08467e-06
1.41466e-06
1.54857e-06
1.32469e-06
1.01301e-06
1.23709e-06
4.77693e-07
1.15438e-06
-3.33957e-08
1.07437e-06
-5.25097e-07
1.00082e-06
-9.94803e-07
9.31135e-07
-1.42809e-06
8.59477e-07
8.04681e-07
-1.83452e-06
5.36091e-06
-2.78937e-08
4.86046e-06
-4.04757e-08
4.09644e-06
4.06305e-07
3.30684e-06
6.8921e-07
2.55847e-06
8.2191e-07
1.88213e-06
8.65789e-07
1.27671e-06
8.5946e-07
7.17434e-07
8.28945e-07
1.85135e-07
7.83999e-07
-3.33826e-07
7.32124e-07
-8.32635e-07
6.79212e-07
-1.31573e-06
6.3354e-07
-1.77859e-06
5.88437e-07
-2.22029e-06
5.45226e-07
-2.63742e-06
5.04492e-07
-3.03027e-06
4.66981e-07
-3.39485e-06
4.22641e-07
3.90673e-07
-3.72857e-06
3.5412e-06
1.99098e-06
9.41536e-07
2.33376e-07
-2.84695e-07
-7.05569e-07
-1.08036e-06
-1.43363e-06
-1.7798e-06
-2.12541e-06
-2.47125e-06
-2.80989e-06
-3.14081e-06
-3.46233e-06
-3.77275e-06
-4.06976e-06
-4.36156e-06
-4.6384e-06
-3.33775e-07
9.01684e-08
-7.07818e-07
1.2244e-07
-1.0308e-06
7.3015e-08
-1.27004e-06
-1.16144e-08
-1.42448e-06
-9.68539e-08
-1.51099e-06
-1.64165e-07
-1.56892e-06
-1.92111e-07
-1.611e-06
-2.05785e-07
-1.63568e-06
-2.20937e-07
-1.63605e-06
-2.4258e-07
-1.60769e-06
-2.68352e-07
-1.55003e-06
-2.94633e-07
-1.46851e-06
-3.15019e-07
-1.38527e-06
-3.12746e-07
-1.31029e-06
-2.99802e-07
-1.22802e-06
-3.02149e-07
-1.12755e-06
-3.15175e-07
-9.99214e-07
-3.37483e-07
-8.43158e-07
-3.59347e-07
-6.65698e-07
-3.74262e-07
-4.77335e-07
-3.7828e-07
-2.82384e-07
-3.77544e-07
-5.78372e-08
-3.99706e-07
2.01728e-07
-4.26956e-07
4.97249e-07
-4.5491e-07
8.2148e-07
-4.75419e-07
1.17048e-06
-4.91952e-07
1.54516e-06
-5.09579e-07
1.94736e-06
-5.29372e-07
2.37984e-06
-5.52192e-07
2.83119e-06
-5.63016e-07
3.28467e-06
-5.54408e-07
3.75737e-06
-5.62525e-07
4.24194e-06
-5.68366e-07
4.74245e-06
-5.79466e-07
5.21378e-06
-5.42524e-07
5.6491e-06
-4.99739e-07
6.08494e-06
-4.9279e-07
6.44385e-06
-4.07676e-07
6.75363e-06
-3.52896e-07
6.97994e-06
-2.63246e-07
7.09457e-06
-1.45018e-07
7.11433e-06
-4.76352e-08
6.94146e-06
1.53558e-07
6.66553e-06
2.64536e-07
6.07212e-06
5.71667e-07
5.19162e-06
8.72433e-07
4.48811e-06
7.29432e-07
4.19145e-06
3.35445e-07
4.16033e-06
7.14138e-08
4.06703e-06
1.41659e-07
4.20654e-06
-7.97197e-08
4.74345e-06
-4.7694e-07
5.15458e-06
-3.53214e-07
5.4711e-06
-2.45574e-07
5.69397e-06
-1.21517e-07
5.81849e-06
1.17818e-08
5.85001e-06
1.2727e-07
5.87679e-06
1.4494e-07
5.82763e-06
2.41575e-07
6.13271e-06
-8.22354e-08
6.82777e-06
-4.51407e-07
8.00898e-06
-9.22912e-07
9.6323e-06
-1.34433e-06
1.13295e-05
-1.39458e-06
1.29761e-05
-1.3203e-06
1.45596e-05
-1.23667e-06
1.57339e-05
-7.9829e-07
1.631e-05
-1.55858e-07
1.6335e-05
4.25529e-07
1.55071e-05
1.32019e-06
1.39662e-05
2.08767e-06
1.25392e-05
1.9563e-06
1.12763e-05
1.80603e-06
1.03545e-05
1.5624e-06
1.06549e-05
3.91803e-07
1.1946e-05
-5.92787e-07
1.34051e-05
-7.92191e-07
1.43562e-05
-3.5283e-07
1.45199e-05
4.13906e-07
1.38713e-05
1.3072e-06
1.25096e-05
2.13206e-06
1.07688e-05
2.55436e-06
9.03282e-06
2.5198e-06
7.46321e-06
2.30265e-06
6.14966e-06
2.00436e-06
5.12691e-06
1.68003e-06
4.39873e-06
1.34879e-06
3.86431e-06
1.10896e-06
3.45577e-06
9.3117e-07
3.10467e-06
8.18416e-07
2.83016e-06
6.74315e-07
2.69041e-06
4.63551e-07
2.68545e-06
2.58344e-07
2.79803e-06
7.27731e-08
2.96695e-06
-5.5359e-08
3.08199e-06
-7.71737e-08
3.11635e-06
-7.05606e-08
3.18046e-06
-1.71432e-07
3.30946e-06
-3.02845e-07
3.65556e-06
-5.75986e-07
3.60473e-06
-2.71515e-07
3.78704e-06
-5.48957e-07
4.04364e-06
-6.87894e-07
4.07489e-06
-5.28692e-07
4.38807e-06
-8.37138e-07
4.5145e-06
-6.92426e-07
4.84242e-06
-9.27268e-07
4.9652e-06
-7.52181e-07
5.19172e-06
-8.70075e-07
5.62397e-06
-1.07761e-06
5.92476e-06
-9.55806e-07
6.21422e-06
-9.49415e-07
6.51976e-06
-9.74712e-07
6.8097e-06
-9.76308e-07
7.06021e-06
-9.66172e-07
7.10384e-06
-7.80347e-07
7.16796e-06
-7.91981e-07
7.53071e-06
-1.0741e-06
7.96968e-06
-1.17335e-06
8.20851e-06
-1.01394e-06
8.36266e-06
-9.59273e-07
8.5512e-06
-1.03215e-06
8.72921e-06
-1.05983e-06
8.87654e-06
-1.0432e-06
9.11045e-06
-1.15207e-06
9.47835e-06
-1.33025e-06
9.88227e-06
-1.42168e-06
1.02738e-05
-1.45793e-06
1.07371e-05
-1.55601e-06
1.1282e-05
-1.66009e-06
1.18304e-05
-1.68209e-06
1.23266e-05
-1.65158e-06
1.26954e-05
-1.54432e-06
1.30169e-05
-1.49591e-06
1.36139e-05
-1.80163e-06
1.45983e-05
-2.24474e-06
1.59181e-05
-2.76901e-06
1.69521e-05
-2.63541e-06
1.79363e-05
-2.62696e-06
1.89307e-05
-2.7855e-06
1.97006e-05
-2.71001e-06
2.00587e-05
-2.46826e-06
1.99468e-05
-2.17159e-06
1.94822e-05
-1.95578e-06
1.90001e-05
-2.12059e-06
1.84855e-05
-2.20042e-06
1.80344e-05
-2.34366e-06
1.7438e-05
-2.27618e-06
1.65714e-05
-2.00226e-06
1.60143e-05
-2.31432e-06
1.66403e-05
-3.64176e-06
1.72692e-05
-3.72321e-06
1.7078e-05
-2.72358e-06
1.68167e-05
-2.57319e-06
1.69498e-05
-2.5708e-06
1.79011e-05
-3.13948e-06
1.88105e-05
-3.25714e-06
1.88495e-05
-2.68969e-06
1.74518e-05
-1.28742e-06
1.64122e-05
-1.5039e-06
1.59955e-05
-2.1814e-06
1.46648e-05
-1.37107e-06
1.25724e-05
-8.96889e-07
1.01454e-05
-9.76964e-07
9.10199e-06
-3.0019e-06
9.35281e-06
-4.86919e-06
9.86919e-06
-5.57807e-06
9.83592e-06
-5.27643e-06
9.46879e-06
-5.30489e-06
8.51291e-06
-4.84854e-06
6.09039e-06
-3.27866e-06
3.51892e-06
-3.18256e-06
1.10563e-06
-3.43213e-06
-1.70706e-06
-3.19262e-06
-4.28909e-06
-3.6713e-06
-5.56278e-06
-5.39372e-06
-6.47822e-06
-6.00886e-06
-9.06029e-06
-4.01265e-06
-3.56777e-06
-1.19222e-05
-3.96376e-07
2.50682e-07
-8.28703e-07
3.09923e-07
-1.14674e-06
1.46682e-07
-1.34549e-06
-5.64057e-08
-1.44328e-06
-2.4421e-07
-1.47887e-06
-3.75362e-07
-1.49294e-06
-4.23725e-07
-1.53218e-06
-4.10735e-07
-1.56901e-06
-4.2611e-07
-1.57192e-06
-4.7957e-07
-1.5414e-06
-5.37586e-07
-1.47527e-06
-5.98719e-07
-1.39223e-06
-6.34087e-07
-1.31735e-06
-6.19804e-07
-1.25514e-06
-5.89731e-07
-1.1986e-06
-5.82268e-07
-1.13807e-06
-5.94725e-07
-1.07437e-06
-6.14944e-07
-9.99543e-07
-6.41605e-07
-9.08972e-07
-6.64352e-07
-7.97962e-07
-6.80075e-07
-6.43328e-07
-7.14083e-07
-4.55917e-07
-7.60718e-07
-2.2299e-07
-8.24786e-07
4.94213e-08
-8.83749e-07
3.4846e-07
-9.22525e-07
6.84044e-07
-9.67379e-07
1.05175e-06
-1.00945e-06
1.45143e-06
-1.05451e-06
1.88764e-06
-1.10747e-06
2.35897e-06
-1.14516e-06
2.85432e-06
-1.14967e-06
3.38701e-06
-1.18535e-06
3.92284e-06
-1.189e-06
4.46423e-06
-1.20077e-06
5.03544e-06
-1.187e-06
5.61108e-06
-1.1407e-06
6.20303e-06
-1.14087e-06
6.80467e-06
-1.06201e-06
7.33337e-06
-9.25812e-07
7.89699e-06
-8.58644e-07
8.40123e-06
-6.85061e-07
8.8139e-06
-4.90555e-07
9.28149e-06
-3.30925e-07
9.58432e-06
-5.9968e-08
9.92754e-06
2.1447e-07
1.03656e-05
4.20655e-07
1.036e-05
7.16005e-07
1.00732e-05
6.54717e-07
9.30773e-06
8.22946e-07
8.2111e-06
1.18344e-06
7.4893e-06
7.33894e-07
6.74581e-06
4.19401e-07
6.14981e-06
3.26202e-07
6.21566e-06
-2.55588e-07
6.51415e-06
-3.46631e-07
6.65113e-06
-3.64217e-09
6.69658e-06
2.47314e-07
6.72887e-06
2.9036e-07
6.71155e-06
4.49021e-07
7.02537e-06
-1.68297e-07
7.54617e-06
-7.33173e-07
8.67071e-06
-1.80577e-06
1.03163e-05
-2.73193e-06
1.212e-05
-2.91628e-06
1.3886e-05
-2.76012e-06
1.55707e-05
-2.58884e-06
1.70091e-05
-1.87758e-06
1.81489e-05
-8.27231e-07
1.89486e-05
1.06486e-07
1.89889e-05
1.69844e-06
1.84905e-05
3.06612e-06
1.73979e-05
3.61404e-06
1.58459e-05
3.98738e-06
1.53831e-05
2.65797e-06
1.57395e-05
6.3102e-07
1.5388e-05
4.25931e-07
1.38491e-05
1.48727e-06
1.12214e-05
2.98039e-06
8.35844e-06
3.9665e-06
5.94166e-06
4.44332e-06
4.17245e-06
4.64447e-06
2.81175e-06
4.64716e-06
1.67409e-06
4.35477e-06
8.4863e-07
3.79575e-06
2.93226e-07
3.1874e-06
-1.83072e-08
2.59182e-06
-2.09418e-07
2.10022e-06
-3.40403e-07
1.75395e-06
-4.30226e-07
1.48232e-06
-4.21385e-07
1.21289e-06
-3.518e-07
9.42562e-07
-1.25739e-07
5.07797e-07
1.95799e-07
1.42138e-07
6.41433e-07
-2.3601e-07
1.06609e-06
-4.13399e-07
1.38092e-06
-4.02846e-07
1.62747e-06
-4.01515e-07
2.00631e-06
-7.04973e-07
2.48374e-06
-9.99858e-07
3.03599e-06
-1.39924e-06
3.09995e-06
-7.00209e-07
3.48123e-06
-1.33779e-06
3.79998e-06
-1.45279e-06
4.10372e-06
-1.37714e-06
4.62484e-06
-1.90626e-06
4.90623e-06
-1.56248e-06
5.45273e-06
-2.091e-06
5.82177e-06
-1.7901e-06
6.05538e-06
-1.80689e-06
6.63161e-06
-2.31249e-06
7.1045e-06
-2.09612e-06
7.53172e-06
-2.04721e-06
8.01481e-06
-2.09588e-06
8.77303e-06
-2.30199e-06
9.55335e-06
-2.3466e-06
9.59813e-06
-1.70319e-06
9.36915e-06
-1.5685e-06
9.78196e-06
-2.25067e-06
1.07243e-05
-2.66046e-06
1.1373e-05
-2.33772e-06
1.16926e-05
-2.05571e-06
1.2121e-05
-2.17272e-06
1.26084e-05
-2.37325e-06
1.29327e-05
-2.41586e-06
1.32063e-05
-2.43773e-06
1.37274e-05
-2.71223e-06
1.43098e-05
-2.92449e-06
1.46065e-05
-2.91257e-06
1.48975e-05
-3.11151e-06
1.52565e-05
-3.31967e-06
1.54616e-05
-3.23344e-06
1.54771e-05
-2.95167e-06
1.56425e-05
-2.92609e-06
1.58371e-05
-2.92087e-06
1.62637e-05
-3.48876e-06
1.75058e-05
-4.52683e-06
1.97654e-05
-6.0327e-06
2.13162e-05
-5.78367e-06
2.19297e-05
-5.19764e-06
2.25746e-05
-5.60386e-06
2.31527e-05
-5.56456e-06
2.34749e-05
-5.172e-06
2.3282e-05
-4.53849e-06
2.26511e-05
-4.04591e-06
2.20596e-05
-4.54205e-06
2.10768e-05
-4.32033e-06
2.01615e-05
-4.48833e-06
1.88971e-05
-4.14453e-06
1.74484e-05
-3.73272e-06
1.66329e-05
-4.72797e-06
1.82016e-05
-8.47772e-06
2.0034e-05
-8.84299e-06
2.05958e-05
-6.41885e-06
2.10592e-05
-6.58779e-06
2.09049e-05
-5.54244e-06
2.14716e-05
-5.91115e-06
2.22438e-05
-6.17682e-06
2.27524e-05
-6.13907e-06
2.1026e-05
-3.23979e-06
1.88155e-05
-2.84432e-06
1.71808e-05
-3.68024e-06
1.50287e-05
-2.13964e-06
1.27476e-05
-2.13585e-06
1.0374e-05
-3.05177e-06
9.4701e-06
-7.04724e-06
1.04513e-05
-1.08101e-05
1.20177e-05
-1.23968e-05
1.30533e-05
-1.19271e-05
1.43181e-05
-1.29236e-05
1.45513e-05
-1.23778e-05
1.21101e-05
-8.52251e-06
8.65879e-06
-7.38461e-06
4.85791e-06
-6.88302e-06
9.91371e-07
-6.51867e-06
-2.25182e-06
-7.96455e-06
-4.83239e-06
-1.06846e-05
-4.99822e-06
-1.40194e-05
-5.46504e-06
-1.17374e-05
-8.01038e-06
-8.54938e-06
-2.34949e-07
2.65743e-07
-6.67527e-07
5.16143e-07
-9.99148e-07
2.50301e-07
-1.21504e-06
-7.28531e-08
-1.31703e-06
-3.77251e-07
-1.31589e-06
-6.12551e-07
-1.29641e-06
-6.78142e-07
-1.33237e-06
-6.08175e-07
-1.40379e-06
-5.85819e-07
-1.45109e-06
-6.62847e-07
-1.43784e-06
-7.84083e-07
-1.39312e-06
-8.7991e-07
-1.39111e-06
-8.69737e-07
-1.43863e-06
-7.97237e-07
-1.51171e-06
-7.34448e-07
-1.61172e-06
-6.94437e-07
-1.73248e-06
-6.77744e-07
-1.85125e-06
-6.90019e-07
-1.94301e-06
-7.32656e-07
-1.98873e-06
-7.90486e-07
-1.96973e-06
-8.61738e-07
-1.89573e-06
-9.4296e-07
-1.7698e-06
-1.03523e-06
-1.61237e-06
-1.12562e-06
-1.43271e-06
-1.20184e-06
-1.20478e-06
-1.28431e-06
-9.61737e-07
-1.33924e-06
-6.7866e-07
-1.41639e-06
-3.70214e-07
-1.48132e-06
-4.93529e-08
-1.54073e-06
2.94548e-07
-1.59593e-06
6.81238e-07
-1.63781e-06
1.09667e-06
-1.6933e-06
1.54609e-06
-1.71977e-06
2.04166e-06
-1.77199e-06
2.58196e-06
-1.80106e-06
3.16501e-06
-1.78933e-06
3.79858e-06
-1.8263e-06
4.4682e-06
-1.7824e-06
5.1306e-06
-1.6411e-06
5.85574e-06
-1.61011e-06
6.58445e-06
-1.43912e-06
7.2876e-06
-1.22474e-06
8.13613e-06
-1.17446e-06
8.82404e-06
-7.66412e-07
9.57277e-06
-5.24211e-07
1.03846e-05
-3.56578e-07
1.09196e-05
1.61923e-07
1.14236e-05
2.14447e-07
1.18374e-05
4.18347e-07
1.22077e-05
8.04219e-07
1.22394e-05
7.99448e-07
1.13861e-05
1.228e-06
1.02691e-05
1.41525e-06
9.07238e-06
1.07007e-06
8.08479e-06
7.67368e-07
7.73757e-06
4.56961e-07
7.72037e-06
4.07561e-07
7.57335e-06
5.88137e-07
7.59124e-06
6.05833e-07
7.84933e-06
-2.16669e-07
8.15887e-06
-8.32828e-07
8.97486e-06
-2.4004e-06
1.02565e-05
-3.79169e-06
1.17426e-05
-4.19291e-06
1.32162e-05
-3.9658e-06
1.4637e-05
-3.64652e-06
1.60134e-05
-2.84355e-06
1.71737e-05
-1.55499e-06
1.7867e-05
-1.28328e-07
1.82186e-05
1.87018e-06
1.82803e-05
3.55925e-06
1.74915e-05
4.8997e-06
1.68377e-05
5.12349e-06
1.63423e-05
3.70842e-06
1.43729e-05
3.22508e-06
1.10369e-05
4.38587e-06
7.52681e-06
5.61084e-06
4.9197e-06
6.20827e-06
3.02547e-06
6.49089e-06
1.62333e-06
6.48525e-06
6.57772e-07
6.24286e-06
4.96744e-08
5.86756e-06
-2.52714e-07
5.24474e-06
-3.61981e-07
4.47041e-06
-3.27066e-07
3.68856e-06
-2.53103e-07
3.02258e-06
-1.55021e-07
2.46882e-06
-2.9282e-08
2.04985e-06
1.11895e-07
1.71205e-06
2.6117e-07
1.38078e-06
4.89296e-07
9.73914e-07
7.48072e-07
4.5215e-07
1.09656e-06
-6.96447e-08
1.48998e-06
-5.59133e-07
1.97664e-06
-8.89533e-07
2.42929e-06
-9.17429e-07
2.77617e-06
-8.85784e-07
3.22507e-06
-1.36174e-06
3.67669e-06
-1.73712e-06
3.99098e-06
-2.03529e-06
4.00517e-06
-1.14506e-06
4.35122e-06
-2.17322e-06
4.63802e-06
-2.23843e-06
4.94749e-06
-2.26129e-06
5.38442e-06
-2.94794e-06
5.58107e-06
-2.40744e-06
6.24809e-06
-3.39253e-06
6.71606e-06
-2.94233e-06
6.8335e-06
-2.68058e-06
7.30687e-06
-3.49784e-06
7.83353e-06
-3.33559e-06
8.1742e-06
-3.16462e-06
8.27207e-06
-3.04524e-06
8.77078e-06
-3.51583e-06
1.01773e-05
-4.0522e-06
1.10774e-05
-3.08282e-06
1.0612e-05
-2.31448e-06
1.01206e-05
-2.98511e-06
1.09027e-05
-4.04731e-06
1.20243e-05
-3.90928e-06
1.2478e-05
-3.36116e-06
1.29484e-05
-3.47601e-06
1.37256e-05
-3.63704e-06
1.43534e-05
-3.71895e-06
1.44325e-05
-3.65685e-06
1.4622e-05
-3.92935e-06
1.55803e-05
-4.47227e-06
1.67057e-05
-4.6707e-06
1.73143e-05
-4.76651e-06
1.73312e-05
-4.72926e-06
1.70052e-05
-4.55321e-06
1.63024e-05
-3.83788e-06
1.57383e-05
-3.68575e-06
1.54289e-05
-3.92348e-06
1.51665e-05
-4.62701e-06
1.61408e-05
-6.50772e-06
1.92635e-05
-9.30018e-06
2.24649e-05
-9.46746e-06
2.3783e-05
-8.10543e-06
2.39517e-05
-7.96074e-06
2.37386e-05
-7.63061e-06
2.34426e-05
-7.25832e-06
2.30342e-05
-6.69144e-06
2.25989e-05
-6.42861e-06
2.25209e-05
-7.67882e-06
2.19822e-05
-7.19622e-06
2.09746e-05
-6.87885e-06
1.9368e-05
-6.02137e-06
1.78669e-05
-5.80428e-06
1.69673e-05
-7.34482e-06
1.77998e-05
-1.26727e-05
1.97941e-05
-1.36294e-05
2.08441e-05
-1.03391e-05
2.22343e-05
-1.15026e-05
2.27512e-05
-9.33659e-06
2.28988e-05
-8.28529e-06
2.31107e-05
-8.41104e-06
2.4188e-05
-9.77508e-06
2.31012e-05
-5.85552e-06
2.06304e-05
-4.51321e-06
1.82472e-05
-4.83856e-06
1.5972e-05
-2.91525e-06
1.4052e-05
-4.30527e-06
1.10306e-05
-5.56218e-06
9.62699e-06
-1.09333e-05
1.05327e-05
-1.64795e-05
1.20882e-05
-1.86762e-05
1.23422e-05
-1.67754e-05
1.44225e-05
-1.90277e-05
1.68316e-05
-1.92493e-05
1.5905e-05
-1.47094e-05
1.21864e-05
-1.2241e-05
7.41407e-06
-1.02008e-05
2.77689e-06
-9.70427e-06
-1.50221e-06
-1.1816e-05
-7.02887e-06
-1.28894e-05
-7.89276e-06
-2.14767e-05
-4.63472e-06
-2.28934e-05
-1.36416e-05
-7.02914e-06
2.5534e-08
4.20634e-08
-2.89581e-07
6.23959e-07
-6.4827e-07
4.00642e-07
-9.32511e-07
-1.0012e-09
-1.08649e-06
-4.40031e-07
-1.15972e-06
-7.54515e-07
-1.18214e-06
-8.69829e-07
-1.24604e-06
-7.57745e-07
-1.33138e-06
-7.11635e-07
-1.38637e-06
-8.23282e-07
-1.49723e-06
-8.97956e-07
-1.76613e-06
-8.30792e-07
-2.06274e-06
-7.71e-07
-2.32096e-06
-7.2361e-07
-2.5982e-06
-6.38897e-07
-2.84398e-06
-6.1965e-07
-3.01271e-06
-6.69337e-07
-3.12409e-06
-7.34637e-07
-3.18156e-06
-8.26568e-07
-3.1896e-06
-9.31e-07
-3.15932e-06
-1.03899e-06
-3.09793e-06
-1.15039e-06
-3.0218e-06
-1.25743e-06
-2.94656e-06
-1.34646e-06
-2.86679e-06
-1.42568e-06
-2.79147e-06
-1.50075e-06
-2.69082e-06
-1.57553e-06
-2.57224e-06
-1.66454e-06
-2.41719e-06
-1.75989e-06
-2.22826e-06
-1.84717e-06
-2.01761e-06
-1.91775e-06
-1.7599e-06
-1.9971e-06
-1.44072e-06
-2.10396e-06
-1.05044e-06
-2.19345e-06
-6.20612e-07
-2.27861e-06
-1.34914e-07
-2.35331e-06
4.55163e-07
-2.43964e-06
1.06816e-06
-2.49742e-06
1.72234e-06
-2.48763e-06
2.47712e-06
-2.4401e-06
3.24925e-06
-2.42415e-06
4.04371e-06
-2.27355e-06
4.96078e-06
-2.1702e-06
5.85528e-06
-2.08673e-06
6.76074e-06
-1.70425e-06
7.75816e-06
-1.52079e-06
8.73138e-06
-1.29572e-06
9.70222e-06
-8.09334e-07
1.05515e-05
-6.03718e-07
1.14101e-05
-3.65369e-07
1.22122e-05
5.83011e-08
1.26236e-05
4.25119e-07
1.30791e-05
8.57871e-07
1.35306e-05
1.02863e-06
1.30618e-05
1.48548e-06
1.2013e-05
1.84041e-06
1.09452e-05
1.66129e-06
1.01958e-05
1.2815e-06
9.80292e-06
1.09328e-06
9.82166e-06
7.41794e-07
9.53698e-06
2.50863e-07
9.52233e-06
-6.08034e-07
9.73251e-06
-2.3924e-06
1.02174e-05
-4.10146e-06
1.10767e-05
-4.87519e-06
1.21454e-05
-4.7987e-06
1.31406e-05
-4.32236e-06
1.40598e-05
-3.39216e-06
1.48163e-05
-1.92117e-06
1.52032e-05
-1.02571e-07
1.53729e-05
2.13868e-06
1.51106e-05
4.24517e-06
1.46707e-05
5.74645e-06
1.4006e-05
6.22824e-06
1.17172e-05
6.49606e-06
8.31784e-06
7.17206e-06
5.43758e-06
7.8331e-06
3.34656e-06
8.26854e-06
1.82124e-06
8.29322e-06
8.49722e-07
8.02115e-06
2.6069e-07
7.62976e-06
-4.67162e-08
7.09446e-06
-1.39984e-07
6.48048e-06
-6.38305e-08
5.67179e-06
8.44599e-08
4.8038e-06
2.35347e-07
3.9886e-06
3.48e-07
3.33126e-06
4.80891e-07
2.71991e-06
6.41777e-07
2.2275e-06
8.11946e-07
1.83002e-06
1.05955e-06
1.37195e-06
1.42238e-06
7.97134e-07
1.76158e-06
2.4589e-07
2.09763e-06
-3.3775e-07
2.45975e-06
-9.1928e-07
2.86931e-06
-1.3655e-06
3.3011e-06
-1.47879e-06
3.6317e-06
-1.42e-06
4.01972e-06
-2.01738e-06
4.74273e-06
-2.81084e-06
5.31212e-06
-2.98796e-06
5.517e-06
-1.83631e-06
5.57001e-06
-2.81032e-06
5.69148e-06
-2.95646e-06
5.88178e-06
-3.10108e-06
6.19219e-06
-3.91911e-06
6.44561e-06
-3.41151e-06
6.90869e-06
-4.5823e-06
7.63574e-06
-4.38382e-06
7.74631e-06
-3.62281e-06
8.05585e-06
-4.61941e-06
8.51838e-06
-4.55279e-06
9.085e-06
-4.41117e-06
9.36991e-06
-4.18052e-06
9.14273e-06
-4.48708e-06
9.59914e-06
-5.39051e-06
1.11569e-05
-4.9034e-06
1.20142e-05
-3.76201e-06
1.15732e-05
-3.84151e-06
1.1468e-05
-5.03028e-06
1.22987e-05
-5.31449e-06
1.2935e-05
-4.77892e-06
1.3154e-05
-4.88284e-06
1.37571e-05
-5.17838e-06
1.48109e-05
-5.25407e-06
1.51852e-05
-4.8749e-06