/*--------------------------------*- C++ -*----------------------------------*\
| =========                 |                                                 |
| \\      /  F ield         | OpenFOAM: The Open Source CFD Toolbox           |
|  \\    /   O peration     | Version:  dev                                   |
|   \\  /    A nd           | Web:      http://www.openfoam.org               |
|    \\/     M anipulation  |                                                 |
\*---------------------------------------------------------------------------*/
FoamFile
{
    version     2.0;
    format      ascii;
    class       surfaceScalarField;
    object      phi_0;
    location    "9.15";
}
// * * * * * * * * * * * * * * * * * * * * * * * * * * * * * * * * * * * * * //

dimensions      [1 0 -1 0 0 0 0];

internalField   nonuniform List<scalar> 
24170
(
1.96144e-06
2.27041e-06
9.5163e-07
1.7247e-06
4.32824e-07
1.20718e-06
1.41846e-07
9.50498e-07
-8.78595e-08
8.59464e-07
-1.87234e-07
6.98107e-07
-4.50501e-07
8.30151e-07
-4.38151e-07
5.21336e-07
-7.41832e-07
8.10886e-07
-6.35195e-07
3.70598e-07
-1.01058e-06
8.25922e-07
-7.99096e-07
2.12299e-07
-1.15165e-06
7.50996e-07
-7.30579e-07
-5.04448e-08
-8.53513e-07
4.75894e-07
6.85176e-07
-1.21e-06
8.19915e-07
1.6883e-07
2.34075e-06
-1.24386e-06
3.65691e-06
3.37703e-06
2.8209e-06
3.35931e-06
2.13419e-06
2.6604e-06
1.6103e-06
2.20874e-06
1.23309e-06
1.93649e-06
7.66891e-07
1.8317e-06
5.7832e-07
1.64799e-06
2.17283e-07
1.47669e-06
-2.37522e-08
1.61368e-06
-1.90482e-07
1.06838e-06
-4.70565e-07
1.60167e-06
-3.92711e-07
6.04445e-07
-6.90933e-07
1.48489e-06
-3.86636e-07
5.23994e-08
-8.09766e-07
1.28342e-06
-5.6549e-07
-1.09861e-06
-1.1425e-06
1.07309e-06
1.64021e-06
-1.47487e-07
4.48536e-06
4.19003e-06
4.06064e-06
4.66028e-06
3.64625e-06
3.9145e-06
3.20529e-06
3.45427e-06
2.79029e-06
3.11762e-06
2.35444e-06
2.99768e-06
2.0578e-06
2.63379e-06
1.62398e-06
2.56212e-06
1.4322e-06
2.42143e-06
1.25511e-06
1.82809e-06
9.66625e-07
2.43574e-06
1.12578e-06
9.61403e-07
6.17112e-07
2.47556e-06
6.78624e-07
4.36169e-07
-2.71417e-07
2.65825e-06
-3.65956e-07
-6.0776e-07
-1.02617e-06
2.09387e-06
1.26723e-06
-3.177e-07
4.72778e-06
5.30019e-06
4.80952e-06
5.53623e-06
4.54879e-06
5.09404e-06
4.37406e-06
4.50779e-06
3.98433e-06
4.34599e-06
3.8557e-06
3.92122e-06
3.38832e-06
3.85517e-06
3.47373e-06
3.18568e-06
2.81427e-06
3.75291e-06
2.98252e-06
2.28974e-06
2.34388e-06
3.67246e-06
2.39202e-06
1.47137e-06
1.81626e-06
3.57512e-06
1.87307e-06
8.66706e-07
1.39906e-06
3.59321e-06
9.85586e-07
2.38873e-07
-2.71307e-07
3.74632e-06
2.41339e-06
-1.04782e-06
4.98889e-06
6.47328e-06
5.41855e-06
6.14756e-06
4.99437e-06
6.52071e-06
5.05315e-06
5.40535e-06
4.52587e-06
5.788e-06
4.63077e-06
4.68096e-06
4.01916e-06
5.29009e-06
4.30234e-06
3.67565e-06
3.54744e-06
5.2376e-06
3.74907e-06
2.77507e-06
3.18253e-06
4.89064e-06
2.98217e-06
2.27945e-06
2.71208e-06
4.41206e-06
2.41852e-06
1.69325e-06
2.24334e-06
4.26822e-06
1.30462e-06
1.64739e-06
6.77897e-07
4.80851e-06
2.75449e-06
7.46138e-07
5.39704e-06
7.93897e-06
5.64418e-06
7.0243e-06
5.20269e-06
8.04968e-06
5.32515e-06
6.31839e-06
4.71384e-06
7.38972e-06
4.73442e-06
5.59887e-06
4.11796e-06
6.79893e-06
4.27682e-06
4.35452e-06
3.76772e-06
6.53985e-06
3.85369e-06
3.43773e-06
3.48864e-06
5.96207e-06
3.34635e-06
3.07821e-06
3.26575e-06
5.10747e-06
2.84693e-06
2.69052e-06
2.62294e-06
5.03335e-06
1.83968e-06
2.93599e-06
1.80361e-06
5.33524e-06
3.7788e-06
1.22281e-06
6.09629e-06
9.55235e-06
6.05116e-06
8.27907e-06
5.56738e-06
9.70538e-06
5.66123e-06
7.33875e-06
5.21328e-06
8.90422e-06
5.28205e-06
6.53893e-06
4.70917e-06
8.32855e-06
4.59694e-06
5.36932e-06
4.15028e-06
7.84395e-06
3.99023e-06
4.40228e-06
3.90376e-06
6.8032e-06
3.7797e-06
3.90677e-06
3.73035e-06
5.82064e-06
3.18514e-06
3.8599e-06
2.93625e-06
5.86495e-06
2.2964e-06
4.12211e-06
2.47386e-06
5.68534e-06
5.00211e-06
1.72587e-06
4.83999e-06
1.06474e-05
4.80156e-06
9.23766e-06
4.47901e-06
1.09176e-05
4.42343e-06
8.23935e-06
4.17784e-06
9.95966e-06
4.13583e-06
7.34496e-06
3.84103e-06
9.35136e-06
3.57781e-06
6.31902e-06
3.48641e-06
8.5842e-06
3.16442e-06
5.33087e-06
3.24388e-06
7.2936e-06
2.97289e-06
4.71257e-06
2.88785e-06
6.40996e-06
2.47332e-06
4.74793e-06
2.45446e-06
6.3301e-06
1.96616e-06
5.0287e-06
2.1055e-06
5.93822e-06
5.40579e-06
2.06445e-06
5.7653e-06
1.18649e-05
5.60167e-06
1.04433e-05
5.26171e-06
1.22626e-05
5.01346e-06
9.4409e-06
4.80419e-06
1.10801e-05
4.58176e-06
8.43041e-06
4.4971e-06
1.02605e-05
4.16202e-06
7.42794e-06
4.22985e-06
9.2443e-06
3.80208e-06
6.44208e-06
3.86749e-06
7.87038e-06
3.39781e-06
5.7864e-06
3.30225e-06
7.07418e-06
2.8312e-06
5.75319e-06
2.87909e-06
6.78666e-06
2.58904e-06
5.78897e-06
2.73004e-06
6.23691e-06
5.90061e-06
2.64501e-06
6.64986e-06
1.33665e-05
6.33877e-06
1.19204e-05
6.22434e-06
1.34913e-05
5.87221e-06
1.08556e-05
5.76634e-06
1.21988e-05
5.33498e-06
9.82621e-06
5.34093e-06
1.11687e-05
4.86642e-06
8.76292e-06
4.96816e-06
9.95274e-06
4.40866e-06
7.76167e-06
4.39035e-06
8.60666e-06
3.84688e-06
7.00244e-06
3.82107e-06
7.73091e-06
3.3594e-06
6.80949e-06
3.41904e-06
7.28162e-06
3.16016e-06
6.56959e-06
3.24198e-06
6.64167e-06
6.41503e-06
3.18529e-06
7.95349e-06
1.4761e-05
7.47671e-06
1.36748e-05
7.37623e-06
1.48058e-05
6.80688e-06
1.25908e-05
6.70461e-06
1.34083e-05
6.12691e-06
1.14593e-05
6.12302e-06
1.21671e-05
5.51793e-06
1.03093e-05
5.558e-06
1.07943e-05
4.96466e-06
9.18754e-06
4.91691e-06
9.43656e-06
4.34901e-06
8.30069e-06
4.3573e-06
8.4094e-06
3.96783e-06
7.84394e-06
4.06116e-06
7.79127e-06
3.79807e-06
7.39863e-06
3.8242e-06
7.14475e-06
6.8962e-06
3.8418e-06
9.37821e-06
1.64835e-05
8.4671e-06
1.59481e-05
8.27551e-06
1.6289e-05
7.59501e-06
1.45134e-05
7.51609e-06
1.46612e-05
6.91419e-06
1.31828e-05
6.91233e-06
1.32225e-05
6.31839e-06
1.18991e-05
6.31127e-06
1.17365e-05
5.74418e-06
1.06383e-05
5.64711e-06
1.03548e-05
5.12657e-06
9.5952e-06
5.01515e-06
9.24779e-06
4.69538e-06
8.84276e-06
4.6268e-06
8.49766e-06
4.49403e-06
8.12763e-06
4.44031e-06
7.7596e-06
7.39462e-06
4.46818e-06
1.0433e-05
1.83951e-05
9.61247e-06
1.81546e-05
9.45355e-06
1.77618e-05
8.78489e-06
1.64429e-05
8.58302e-06
1.60544e-05
7.95918e-06
1.49448e-05
7.76839e-06
1.44815e-05
7.18329e-06
1.3495e-05
6.97076e-06
1.28968e-05
6.41479e-06
1.20849e-05
6.13826e-06
1.14643e-05
5.69796e-06
1.0818e-05
5.41706e-06
1.02615e-05
5.19138e-06
9.75412e-06
5.06525e-06
9.26598e-06
4.99577e-06
8.80099e-06
4.95188e-06
8.36952e-06
7.945e-06
4.93838e-06
1.23986e-05
2.01268e-05
1.15229e-05
2.03356e-05
1.10443e-05
1.94802e-05
1.02831e-05
1.83887e-05
9.83779e-06
1.76235e-05
9.1969e-06
1.6653e-05
8.79339e-06
1.58878e-05
8.25965e-06
1.49755e-05
7.87595e-06
1.41658e-05
7.43648e-06
1.33536e-05
7.05731e-06
1.26199e-05
6.69234e-06
1.19129e-05
6.38015e-06
1.12553e-05
6.1212e-06
1.06506e-05
5.91266e-06
1.00721e-05
5.78775e-06
9.48775e-06
5.70682e-06
8.98261e-06
8.49447e-06
5.65906e-06
1.4036e-05
2.15511e-05
1.32718e-05
2.21537e-05
1.26343e-05
2.112e-05
1.1834e-05
2.01423e-05
1.11445e-05
1.9216e-05
1.04153e-05
1.82332e-05
9.83706e-06
1.72649e-05
9.2801e-06
1.62809e-05
8.7833e-06
1.53615e-05
8.32311e-06
1.4468e-05
7.86908e-06
1.36869e-05
7.43559e-06
1.29184e-05
7.03256e-06
1.21916e-05
6.69238e-06
1.14904e-05
6.42162e-06
1.08125e-05
6.17719e-06
1.0175e-05
6.05351e-06
9.52437e-06
8.9734e-06
5.97161e-06
1.58973e-05
2.30674e-05
1.5111e-05
2.34785e-05
1.44494e-05
2.22843e-05
1.37244e-05
2.13377e-05
1.30027e-05
2.0377e-05
1.22793e-05
1.93614e-05
1.15988e-05
1.83194e-05
1.09277e-05
1.72957e-05
1.02725e-05
1.63349e-05
9.60574e-06
1.5429e-05
8.96754e-06
1.45965e-05
8.35978e-06
1.37762e-05
7.81316e-06
1.29726e-05
7.32518e-06
1.21978e-05
6.90308e-06
1.14412e-05
6.55926e-06
1.07161e-05
6.24079e-06
1.00335e-05
9.38965e-06
6.01262e-06
1.8851e-05
2.39962e-05
1.76886e-05
2.42703e-05
1.66951e-05
2.28865e-05
1.57585e-05
2.18797e-05
1.48836e-05
2.08559e-05
1.40542e-05
1.97957e-05
1.32424e-05
1.87427e-05
1.24183e-05
1.77418e-05
1.15925e-05
1.67988e-05
1.07583e-05
1.59118e-05
9.95434e-06
1.50624e-05
9.20636e-06
1.42054e-05
8.53278e-06
1.33473e-05
7.92438e-06
1.25247e-05
7.37622e-06
1.17295e-05
6.87905e-06
1.09751e-05
6.43625e-06
1.02624e-05
9.58654e-06
6.05246e-06
1.88901e-05
2.34153e-05
1.79246e-05
2.36928e-05
1.68146e-05
2.24631e-05
1.5692e-05
2.15062e-05
1.46058e-05
2.04904e-05
1.35738e-05
1.94257e-05
1.25937e-05
1.83765e-05
1.16732e-05
1.73786e-05
1.08251e-05
1.64267e-05
1.00118e-05
1.55624e-05
9.2256e-06
1.47481e-05
8.49157e-06
1.39056e-05
7.81035e-06
1.30578e-05
7.18078e-06
1.22445e-05
6.60192e-06
1.14602e-05
6.05343e-06
1.07341e-05
5.53962e-06
1.00472e-05
9.3979e-06
5.05964e-06
1.69598e-05
2.20703e-05
1.58709e-05
2.23574e-05
1.47637e-05
2.12109e-05
1.37529e-05
2.02381e-05
1.28011e-05
1.92472e-05
1.18593e-05
1.82582e-05
1.09196e-05
1.72984e-05
1.00091e-05
1.63699e-05
9.15607e-06
1.54579e-05
8.36563e-06
1.46227e-05
7.62852e-06
1.38499e-05
6.93714e-06
1.30602e-05
6.27582e-06
1.22747e-05
5.65119e-06
1.15133e-05
5.04841e-06
1.07957e-05
4.46692e-06
1.01327e-05
3.92071e-06
9.49531e-06
8.88127e-06
3.42102e-06
1.48476e-05
2.03591e-05
1.37854e-05
2.04812e-05
1.28603e-05
1.92769e-05
1.20443e-05
1.82995e-05
1.12774e-05
1.73669e-05
1.05081e-05
1.64875e-05
9.70418e-06
1.56751e-05
8.87105e-06
1.48967e-05
8.03747e-06
1.41e-05
7.24296e-06
1.33366e-05
6.50088e-06
1.26275e-05
5.80026e-06
1.19118e-05
5.11669e-06
1.12151e-05
4.45593e-06
1.05374e-05
3.83744e-06
9.88332e-06
3.27037e-06
9.26924e-06
2.75703e-06
8.67821e-06
8.10709e-06
2.29434e-06
1.32408e-05
1.80389e-05
1.24131e-05
1.81221e-05
1.1546e-05
1.70384e-05
1.07173e-05
1.61393e-05
9.92588e-06
1.52868e-05
9.15149e-06
1.45085e-05
8.3965e-06
1.38038e-05
7.67203e-06
1.31234e-05
6.93434e-06
1.24597e-05
6.20622e-06
1.18091e-05
5.52898e-06
1.11768e-05
4.89267e-06
1.05402e-05
4.2888e-06
9.92404e-06
3.70637e-06
9.33992e-06
3.16425e-06
8.75523e-06
2.66869e-06
8.20338e-06
2.23058e-06
7.66148e-06
7.13792e-06
1.84395e-06
1.18644e-05
1.53811e-05
1.10792e-05
1.56556e-05
1.02492e-05
1.47027e-05
9.46081e-06
1.38797e-05
8.7076e-06
1.31112e-05
7.98504e-06
1.24284e-05
7.32157e-06
1.17941e-05
6.70284e-06
1.11938e-05
6.08294e-06
1.06535e-05
5.45613e-06
1.0136e-05
4.8624e-06
9.5979e-06
4.29113e-06
9.05806e-06
3.75486e-06
8.52434e-06
3.26284e-06
8.00967e-06
2.80343e-06
7.50203e-06
2.37609e-06
7.02795e-06
1.97655e-06
6.56266e-06
6.11968e-06
1.59818e-06
1.04698e-05
1.2997e-05
9.8916e-06
1.30436e-05
9.3146e-06
1.21812e-05
8.71503e-06
1.14975e-05
8.05175e-06
1.09129e-05
7.37007e-06
1.037e-05
6.69017e-06
9.8557e-06
6.02803e-06
9.3609e-06
5.41429e-06
8.89399e-06
4.84715e-06
8.44962e-06
4.31547e-06
7.99641e-06
3.80462e-06
7.5533e-06
3.31662e-06
7.11138e-06
2.8595e-06
6.67683e-06
2.42714e-06
6.2512e-06
2.03026e-06
5.84654e-06
1.65389e-06
5.46138e-06
5.09643e-06
1.2977e-06
9.18731e-06
1.05117e-05
8.8271e-06
1.03592e-05
8.46338e-06
9.59375e-06
8.04158e-06
9.08385e-06
7.54473e-06
8.69085e-06
6.97574e-06
8.33419e-06
6.34266e-06
7.99999e-06
5.67388e-06
7.65769e-06
5.01959e-06
7.28998e-06
4.40932e-06
6.91385e-06
3.84231e-06
6.52974e-06
3.32925e-06
6.14317e-06
2.86716e-06
5.75705e-06
2.44799e-06
5.38538e-06
2.05875e-06
5.03138e-06
1.69716e-06
4.69842e-06
1.35389e-06
4.39059e-06
4.09789e-06
1.02989e-06
8.20301e-06
8.37201e-06
7.79677e-06
7.92005e-06
7.38626e-06
7.25026e-06
6.93124e-06
6.8947e-06
6.43135e-06
6.65518e-06
5.91412e-06
6.42397e-06
5.39035e-06
6.2041e-06
4.87088e-06
5.96345e-06
4.3651e-06
5.68789e-06
3.88825e-06
5.38781e-06
3.4443e-06
5.07369e-06
3.04089e-06
4.748e-06
2.67763e-06
4.42124e-06
2.33889e-06
4.12329e-06
2.01482e-06
3.84993e-06
1.6984e-06
3.60173e-06
1.38635e-06
3.37856e-06
3.17672e-06
1.06879e-06
7.67572e-06
6.19183e-06
7.26917e-06
5.7098e-06
6.80427e-06
5.18294e-06
6.30669e-06
4.96119e-06
5.80465e-06
4.82613e-06
5.29546e-06
4.701e-06
4.8012e-06
4.56409e-06
4.3482e-06
4.37965e-06
3.9323e-06
4.16449e-06
3.5477e-06
3.92933e-06
3.17552e-06
3.69775e-06
2.80532e-06
3.46399e-06
2.43294e-06
3.23141e-06
2.06058e-06
3.02325e-06
1.69142e-06
2.83375e-06
1.3376e-06
2.65457e-06
1.00043e-06
2.49602e-06
2.34956e-06
6.86106e-07
6.86098e-06
4.04117e-06
6.68584e-06
3.50218e-06
6.31002e-06
3.25577e-06
5.85268e-06
3.20842e-06
5.3802e-06
3.1791e-06
4.89964e-06
3.15163e-06
4.41528e-06
3.10783e-06
3.93001e-06
3.01323e-06
3.45576e-06
2.8753e-06
2.99712e-06
2.71204e-06
2.55411e-06
2.55135e-06
2.11957e-06
2.39417e-06
1.68668e-06
2.24306e-06
1.25799e-06
2.1116e-06
8.41737e-07
1.98819e-06
4.40231e-07
1.87034e-06
5.83996e-08
1.76566e-06
1.66834e-06
-3.01667e-07
6.09589e-06
1.98559e-06
5.96946e-06
1.47719e-06
5.55133e-06
1.59554e-06
4.9746e-06
1.79114e-06
4.35132e-06
1.89046e-06
3.7265e-06
1.94534e-06
3.13519e-06
1.94822e-06
2.57431e-06
1.90294e-06
2.03348e-06
1.82405e-06
1.50735e-06
1.72432e-06
9.91424e-07
1.63048e-06
4.86386e-07
1.53818e-06
-6.2778e-09
1.44894e-06
-4.769e-07
1.36802e-06
-9.19582e-07
1.2875e-06
-1.33656e-06
1.21277e-06
-1.71521e-06
1.13646e-06
1.07621e-06
-2.0667e-06
5.22793e-06
2.33831e-07
4.64027e-06
1.35105e-07
3.8e-06
5.71417e-07
2.94865e-06
8.52627e-07
2.15852e-06
9.64036e-07
1.44836e-06
1.011e-06
8.20611e-07
1.00284e-06
2.51029e-07
9.70209e-07
-2.80721e-07
9.2384e-07
-7.89158e-07
8.70621e-07
-1.26737e-06
8.15749e-07
-1.72197e-06
7.68244e-07
-2.15108e-06
7.20812e-07
-2.55144e-06
6.77139e-07
-2.92468e-06
6.33942e-07
-3.27107e-06
5.94834e-07
-3.58771e-06
5.49454e-07
5.17853e-07
-3.875e-06
3.44598e-06
1.8396e-06
7.36477e-07
-1.52297e-08
-5.87535e-07
-1.04668e-06
-1.44875e-06
-1.81889e-06
-2.17129e-06
-2.51334e-06
-2.84739e-06
-3.16699e-06
-3.47326e-06
-3.76386e-06
-4.03999e-06
-4.29939e-06
-4.55044e-06
-4.7829e-06
-3.05686e-07
7.52928e-08
-6.5176e-07
1.0746e-07
-9.47294e-07
5.82421e-08
-1.15938e-06
-2.60005e-08
-1.28628e-06
-1.1134e-07
-1.34465e-06
-1.79158e-07
-1.37374e-06
-2.07663e-07
-1.38638e-06
-2.21925e-07
-1.38123e-06
-2.37487e-07
-1.35145e-06
-2.5945e-07
-1.29258e-06
-2.85648e-07
-1.2039e-06
-3.12463e-07
-1.09061e-06
-3.33673e-07
-9.74781e-07
-3.32312e-07
-8.66555e-07
-3.20191e-07
-7.50473e-07
-3.23262e-07
-6.157e-07
-3.36961e-07
-4.52525e-07
-3.60121e-07
-2.61067e-07
-3.82742e-07
-4.78391e-08
-3.98375e-07
1.774e-07
-4.03853e-07
4.09369e-07
-4.03791e-07
6.69443e-07
-4.24962e-07
9.64664e-07
-4.52959e-07
1.29577e-06
-4.81558e-07
1.65531e-06
-5.02558e-07
2.039e-06
-5.19346e-07
2.44698e-06
-5.36707e-07
2.88079e-06
-5.56173e-07
3.34273e-06
-5.78282e-07
3.82132e-06
-5.87886e-07
4.30103e-06
-5.78309e-07
4.79849e-06
-5.85396e-07
5.30459e-06
-5.89961e-07
5.82168e-06
-5.97664e-07
6.30508e-06
-5.56955e-07
6.7507e-06
-5.13265e-07
7.19205e-06
-5.01794e-07
7.55201e-06
-4.12406e-07
7.86091e-06
-3.56098e-07
8.08064e-06
-2.60593e-07
8.18697e-06
-1.4052e-07
8.19125e-06
-3.6193e-08
8.00238e-06
1.67819e-07
7.70513e-06
2.84849e-07
7.07871e-06
6.02609e-07
6.18342e-06
8.90169e-07
5.49573e-06
7.23861e-07
5.2231e-06
3.24553e-07
5.19856e-06
7.94015e-08
5.11101e-06
1.52994e-07
5.29222e-06
-1.0162e-07
5.8506e-06
-4.78254e-07
6.26233e-06
-3.32306e-07
6.58322e-06
-2.24195e-07
6.81587e-06
-9.9152e-08
6.95641e-06
3.2791e-08
7.01268e-06
1.40859e-07
7.06885e-06
1.53136e-07
7.06658e-06
2.32818e-07
7.44605e-06
-1.1811e-07
8.22677e-06
-5.02517e-07
9.49338e-06
-9.79641e-07
1.1175e-05
-1.37983e-06
1.29017e-05
-1.40929e-06
1.45693e-05
-1.33669e-06
1.61491e-05
-1.23965e-06
1.72799e-05
-7.72443e-07
1.77977e-05
-1.28704e-07
1.77386e-05
4.61468e-07
1.68058e-05
1.36255e-06
1.52095e-05
2.05909e-06
1.37603e-05
1.86794e-06
1.2459e-05
1.72071e-06
1.15647e-05
1.39902e-06
1.1911e-05
1.86928e-07
1.31664e-05
-7.40713e-07
1.44901e-05
-8.77591e-07
1.52537e-05
-4.14269e-07
1.51718e-05
3.98377e-07
1.42698e-05
1.29619e-06
1.26841e-05
2.07274e-06
1.07549e-05
2.43405e-06
8.85663e-06
2.35471e-06
7.12951e-06
2.12006e-06
5.66046e-06
1.81587e-06
4.50699e-06
1.45994e-06
3.64129e-06
1.12797e-06
2.97099e-06
8.83227e-07
2.42421e-06
6.97105e-07
1.94596e-06
5.71748e-07
1.55488e-06
4.29995e-07
1.3202e-06
2.18895e-07
1.21397e-06
2.49438e-08
1.25255e-06
-1.89524e-07
1.3574e-06
-3.28304e-07
1.4108e-06
-3.50835e-07
1.41028e-06
-3.72514e-07
1.45101e-06
-4.90632e-07
1.57335e-06
-6.4811e-07
1.88585e-06
-9.2056e-07
1.84871e-06
-6.23572e-07
2.04545e-06
-9.30142e-07
2.30348e-06
-1.05195e-06
2.38388e-06
-9.24915e-07
2.72214e-06
-1.23534e-06
2.8758e-06
-1.1068e-06
3.23428e-06
-1.35167e-06
3.38883e-06
-1.18784e-06
3.65486e-06
-1.32771e-06
4.12409e-06
-1.53514e-06
4.46028e-06
-1.41718e-06
4.79491e-06
-1.42074e-06
5.15214e-06
-1.44995e-06
5.49537e-06
-1.44717e-06
5.79204e-06
-1.42195e-06
5.89872e-06
-1.23861e-06
6.0594e-06
-1.26504e-06
6.52078e-06
-1.53619e-06
7.03085e-06
-1.60276e-06
7.33042e-06
-1.42537e-06
7.55192e-06
-1.36798e-06
7.80346e-06
-1.43098e-06
8.02777e-06
-1.43804e-06
8.20721e-06
-1.40277e-06
8.45972e-06
-1.49775e-06
8.81997e-06
-1.65415e-06
9.17714e-06
-1.71039e-06
9.49139e-06
-1.71542e-06
9.84647e-06
-1.78062e-06
1.02495e-05
-1.84822e-06
1.06331e-05
-1.83937e-06
1.09486e-05
-1.77683e-06
1.11192e-05
-1.62478e-06
1.12404e-05
-1.5383e-06
1.16457e-05
-1.80248e-06
1.24179e-05
-2.16426e-06
1.34656e-05
-2.53772e-06
1.42333e-05
-2.29484e-06
1.50193e-05
-2.25105e-06
1.58791e-05
-2.34978e-06
1.65663e-05
-2.19311e-06
1.69043e-05
-1.87701e-06
1.68381e-05
-1.51477e-06
1.6485e-05
-1.25128e-06
1.61492e-05
-1.34113e-06
1.57903e-05
-1.34273e-06
1.54887e-05
-1.4064e-06
1.5026e-05
-1.26367e-06
1.43034e-05
-9.54552e-07
1.39525e-05
-1.28876e-06
1.47088e-05
-2.49831e-06
1.53358e-05
-2.41816e-06
1.51519e-05
-1.44149e-06
1.49085e-05
-1.30408e-06
1.49961e-05
-1.31277e-06
1.58377e-05
-1.84965e-06
1.65887e-05
-1.90877e-06
1.64951e-05
-1.27879e-06
1.50921e-05
1.29507e-08
1.40826e-05
-2.55655e-07
1.36186e-05
-8.7306e-07
1.2272e-05
-9.62495e-08
1.02413e-05
3.5954e-07
7.97508e-06
2.49143e-07
7.20371e-06
-1.73733e-06
7.67021e-06
-3.38927e-06
8.4042e-06
-3.95356e-06
8.69147e-06
-3.68638e-06
8.69883e-06
-3.688e-06
8.10862e-06
-3.22362e-06
6.27828e-06
-1.93395e-06
4.44094e-06
-2.0297e-06
2.75747e-06
-2.33032e-06
6.94604e-07
-2.15858e-06
-1.19891e-06
-2.60532e-06
-1.91209e-06
-4.15151e-06
-2.39893e-06
-4.69121e-06
-4.7016e-06
-2.76694e-06
-2.36904e-06
-7.37414e-06
-3.68006e-07
2.20184e-07
-7.72029e-07
2.78845e-07
-1.06308e-06
1.16819e-07
-1.23676e-06
-8.41705e-08
-1.30673e-06
-2.74073e-07
-1.31401e-06
-4.05872e-07
-1.29904e-06
-4.55519e-07
-1.30867e-06
-4.43617e-07
-1.31575e-06
-4.59513e-07
-1.28865e-06
-5.13468e-07
-1.22777e-06
-5.72068e-07
-1.13058e-06
-6.34238e-07
-1.0154e-06
-6.71577e-07
-9.07417e-07
-6.5938e-07
-8.11404e-07
-6.3094e-07
-7.2033e-07
-6.24919e-07
-6.24555e-07
-6.38833e-07
-5.2521e-07
-6.6034e-07
-4.14493e-07
-6.88076e-07
-2.88013e-07
-7.11908e-07
-1.42365e-07
-7.2841e-07
4.67648e-08
-7.636e-07
2.72413e-07
-8.13144e-07
5.42917e-07
-8.78009e-07
8.52249e-07
-9.37661e-07
1.18768e-06
-9.76964e-07
1.55995e-06
-1.02302e-06
1.96104e-06
-1.06267e-06
2.39273e-06
-1.10759e-06
2.86e-06
-1.16016e-06
3.36107e-06
-1.19574e-06
3.8843e-06
-1.19742e-06
4.44249e-06
-1.23067e-06
5.00016e-06
-1.23125e-06
5.56006e-06
-1.23761e-06
6.14613e-06
-1.21735e-06
6.73303e-06
-1.16706e-06
7.33457e-06
-1.1612e-06
7.93996e-06
-1.07313e-06
8.4696e-06
-9.32134e-07
9.03217e-06
-8.56816e-07
9.52834e-06
-6.75331e-07
9.93729e-06
-4.76324e-07
1.03961e-05
-3.08063e-07
1.06828e-05
-2.41974e-08
1.10252e-05
2.48203e-07
1.1443e-05
4.60766e-07
1.14065e-05
7.4748e-07
1.10909e-05
6.84343e-07
1.02787e-05
8.80571e-07
9.17434e-06
1.21326e-06
8.46986e-06
7.29512e-07
7.74069e-06
4.37715e-07
7.18705e-06
3.27587e-07
7.31221e-06
-2.70883e-07
7.62395e-06
-3.08353e-07
7.76913e-06
4.69359e-08
7.83628e-06
2.81457e-07
7.8947e-06
3.1329e-07
7.92941e-06
4.29145e-07
8.30242e-06
-2.21444e-07
8.90517e-06
-8.30858e-07
1.01221e-05
-1.92686e-06
1.18322e-05
-2.80917e-06
1.36667e-05
-2.94548e-06
1.54489e-05
-2.78594e-06
1.71372e-05
-2.60336e-06
1.85661e-05
-1.85343e-06
1.96785e-05
-7.93678e-07
2.03968e-05
1.66198e-07
2.03534e-05
1.75225e-06
1.97686e-05
3.04764e-06
1.85663e-05
3.5407e-06
1.69996e-05
3.7959e-06
1.65813e-05
2.30187e-06
1.68876e-05
3.20286e-07
1.63175e-05
3.33056e-07
1.44922e-05
1.48145e-06
1.16355e-05
2.90723e-06
8.64444e-06
3.82176e-06
6.13856e-06
4.24338e-06
4.2617e-06
4.39384e-06
2.76349e-06
4.34779e-06
1.48977e-06
4.00209e-06
5.23005e-07
3.40728e-06
-1.45679e-07
2.77491e-06
-6.2408e-07
2.18868e-06
-9.70462e-07
1.67981e-06
-1.25437e-06
1.32198e-06
-1.49215e-06
1.0372e-06
-1.61572e-06
7.46047e-07
-1.65272e-06
4.65037e-07
-1.54905e-06
5.51607e-08
-1.30002e-06
-3.47214e-07
-9.2445e-07
-7.54257e-07
-5.27108e-07
-9.84096e-07
-2.28094e-07
-9.81703e-07
-2.15198e-08
-9.86515e-07
3.06659e-07
-1.29994e-06
7.30785e-07
-1.62478e-06
1.23951e-06
-2.04919e-06
1.30528e-06
-1.38249e-06
1.7065e-06
-2.07093e-06
2.04444e-06
-2.19548e-06
2.38293e-06
-2.1221e-06
2.92908e-06
-2.67825e-06
3.23838e-06
-2.36852e-06
3.81591e-06
-2.91306e-06
4.20724e-06
-2.63151e-06
4.49012e-06
-2.69182e-06
5.10777e-06
-3.20196e-06
5.61397e-06
-2.99014e-06
6.08753e-06
-2.96011e-06
6.63479e-06
-3.02672e-06
7.45943e-06
-3.22713e-06
8.26489e-06
-3.22892e-06
8.33844e-06
-2.57854e-06
8.21597e-06
-2.48199e-06
8.76531e-06
-3.15181e-06
9.78488e-06
-3.49159e-06
1.04719e-05
-3.13e-06
1.08513e-05
-2.84882e-06
1.13442e-05
-2.95378e-06
1.18703e-05
-3.12153e-06
1.22159e-05
-3.12221e-06
1.25106e-05
-3.11293e-06
1.30298e-05
-3.35247e-06
1.35513e-05
-3.49901e-06
1.37458e-05
-3.42152e-06
1.39183e-05
-3.5601e-06
1.41319e-05
-3.69552e-06
1.41698e-05
-3.534e-06
1.40176e-05
-3.19619e-06
1.40038e-05
-3.09575e-06
1.40097e-05
-3.00778e-06
1.42842e-05
-3.50463e-06
1.53685e-05
-4.41938e-06
1.73277e-05
-5.6195e-06
1.85045e-05
-5.04877e-06
1.88563e-05
-4.36097e-06
1.93684e-05
-4.67855e-06
1.98835e-05
-4.4897e-06
2.01885e-05
-3.93342e-06
2.0028e-05
-3.14517e-06
1.94997e-05
-2.5514e-06
1.90368e-05
-2.8638e-06
1.81943e-05
-2.47648e-06
1.74245e-05
-2.50604e-06
1.63013e-05
-2.02476e-06
1.50024e-05
-1.56456e-06
1.446e-05
-2.65012e-06
1.62174e-05
-6.17189e-06
1.80147e-05
-6.13065e-06
1.85545e-05
-3.72284e-06
1.89786e-05
-3.81736e-06
1.87301e-05
-2.79823e-06
1.91893e-05
-3.20489e-06
1.98367e-05
-3.41236e-06
2.02063e-05
-3.13448e-06
1.84052e-05
-2.506e-07
1.62284e-05
-3.31947e-08
1.46121e-05
-9.32331e-07
1.24727e-05
5.79584e-07
1.02854e-05
6.21458e-07
8.12622e-06
-3.17906e-07
7.53718e-06
-4.33617e-06
8.72547e-06
-7.7355e-06
1.04798e-05
-9.0147e-06
1.1857e-05
-8.60584e-06
1.34333e-05
-9.39631e-06
1.389e-05
-8.61895e-06
1.20082e-05
-5.28284e-06
9.31811e-06
-4.65575e-06
6.32064e-06
-4.431e-06
3.29575e-06
-4.24576e-06
8.06826e-07
-5.59099e-06
-1.11427e-06
-8.029e-06
-8.22836e-07
-1.11084e-05
-1.13512e-06
-8.86129e-06
-5.56449e-06
-3.92559e-06
-2.0728e-07
2.20073e-07
-6.12809e-07
4.6938e-07
-9.17357e-07
2.04375e-07
-1.10717e-06
-1.1514e-07
-1.18205e-06
-4.22224e-07
-1.15326e-06
-6.58308e-07
-1.1053e-06
-7.25955e-07
-1.11196e-06
-6.57974e-07
-1.15411e-06
-6.36087e-07
-1.17213e-06
-7.13166e-07
-1.12809e-06
-8.35714e-07
-1.05009e-06
-9.34574e-07
-1.01385e-06
-9.27687e-07
-1.02696e-06
-8.57871e-07
-1.06481e-06
-7.97369e-07
-1.12893e-06
-7.59196e-07
-1.21378e-06
-7.44136e-07
-1.29689e-06
-7.57919e-07
-1.35306e-06
-8.02314e-07
-1.36323e-06
-8.61892e-07
-1.30819e-06
-9.34782e-07
-1.1978e-06
-1.01768e-06
-1.03639e-06
-1.11194e-06
-8.42625e-07
-1.20407e-06
-6.26417e-07
-1.28155e-06
-3.62295e-07
-1.36436e-06
-8.57266e-08
-1.41821e-06
2.35257e-07
-1.49722e-06
5.80454e-07
-1.56134e-06
9.35436e-07
-1.61893e-06
1.31045e-06
-1.67111e-06
1.72538e-06
-1.70898e-06
2.16828e-06
-1.76111e-06
2.64489e-06
-1.78417e-06
3.1579e-06
-1.8232e-06
3.7155e-06
-1.84785e-06
4.31264e-06
-1.82867e-06
4.95872e-06
-1.85757e-06
5.63411e-06
-1.80137e-06
6.29852e-06
-1.65242e-06
7.02877e-06
-1.61131e-06
7.75354e-06
-1.426e-06
8.45386e-06
-1.2077e-06
9.29761e-06
-1.14149e-06
9.97625e-06
-7.18989e-07
1.07258e-05
-4.82231e-07
1.15251e-05
-2.95573e-07
1.20379e-05
2.23174e-07
1.25365e-05
2.67287e-07
1.2936e-05
4.97972e-07
1.32906e-05
8.68671e-07
1.32722e-05
8.66107e-07
1.23553e-05
1.31548e-06
1.1226e-05
1.45731e-06
1.00405e-05
1.08508e-06
9.11224e-06
7.8026e-07
8.82782e-06
4.80742e-07
8.83892e-06
4.53612e-07
8.71544e-06
6.26497e-07
8.77734e-06
5.83538e-07
9.09611e-06
-2.89433e-07
9.46701e-06
-9.57885e-07
1.03675e-05
-2.57763e-06
1.17151e-05
-3.91607e-06
1.32309e-05
-4.24278e-06
1.4714e-05
-3.98962e-06
1.6145e-05
-3.6632e-06
1.75268e-05
-2.83069e-06
1.86615e-05
-1.51564e-06
1.92726e-05
-1.59801e-08
1.95935e-05
1.90675e-06
1.95665e-05
3.54873e-06
1.86992e-05
4.79266e-06
1.80246e-05
4.82798e-06
1.73677e-05
3.37633e-06
1.5085e-05
3.05549e-06
1.15547e-05
4.28093e-06
7.99569e-06
5.43859e-06
5.34351e-06
5.94647e-06
3.38143e-06
6.16091e-06
1.89147e-06
6.09975e-06
8.18252e-07
5.80908e-06
8.45172e-08
5.3861e-06
-3.63707e-07
4.7262e-06
-6.34381e-07
3.92077e-06
-7.72186e-07
3.12364e-06
-8.45127e-07
2.43506e-06
-9.05255e-07
1.87061e-06
-9.38673e-07
1.44251e-06
-9.43662e-07
1.08312e-06
-9.2932e-07
7.24279e-07
-8.25443e-07
3.03051e-07
-6.36743e-07
-2.45303e-07
-3.55624e-07
-7.98373e-07
-1.53935e-08
-1.32541e-06
3.55823e-07
-1.65143e-06
7.25932e-07
-1.71703e-06
1.01765e-06
-1.7173e-06
1.43474e-06
-2.22676e-06
1.87697e-06
-2.64553e-06
2.16737e-06
-2.98933e-06
2.18653e-06
-2.12823e-06
2.53976e-06
-3.18581e-06
2.83046e-06
-3.29383e-06
3.18276e-06
-3.34445e-06
3.65147e-06
-4.06107e-06
3.88433e-06
-3.57117e-06
4.58444e-06
-4.58209e-06
5.06961e-06
-4.1444e-06
5.23726e-06
-3.95346e-06
5.76499e-06
-4.78562e-06
6.32994e-06
-4.61998e-06
6.70722e-06
-4.46433e-06
6.86927e-06
-4.37628e-06
7.48161e-06
-4.86089e-06
8.96233e-06
-5.32902e-06
9.84494e-06
-4.30737e-06
9.41558e-06
-3.58173e-06
9.07627e-06
-4.28285e-06
9.99668e-06
-5.26786e-06
1.11648e-05
-5.05382e-06
1.16614e-05
-4.48764e-06
1.22139e-05
-4.57646e-06
1.30415e-05
-4.68133e-06
1.36606e-05
-4.71257e-06
1.37362e-05
-4.60968e-06
1.39633e-05
-4.83753e-06
1.49211e-05
-5.29688e-06
1.59321e-05
-5.39346e-06
1.63502e-05
-5.37548e-06
1.61844e-05
-5.24049e-06
1.56914e-05
-4.94741e-06
1.48293e-05
-4.13422e-06
1.41e-05
-3.89043e-06
1.36046e-05
-3.99947e-06
1.32115e-05
-4.60129e-06
1.41558e-05
-6.40197e-06
1.71142e-05
-8.83873e-06
1.98657e-05
-8.41853e-06
2.07602e-05
-6.74935e-06
2.0713e-05
-6.46908e-06
2.0446e-05
-5.9884e-06
2.01814e-05
-5.41011e-06
1.98513e-05
-4.60261e-06
1.95599e-05
-4.1589e-06
1.95945e-05
-5.0484e-06
1.91471e-05
-4.2468e-06
1.82306e-05
-3.7196e-06
1.67473e-05
-2.71195e-06
1.54082e-05
-2.46182e-06
1.4745e-05
-4.15872e-06
1.58112e-05
-9.22943e-06
1.78245e-05
-9.63571e-06
1.89091e-05
-6.30279e-06
2.02036e-05
-7.23857e-06
2.05751e-05
-5.0347e-06
2.05796e-05
-4.09211e-06
2.07184e-05
-4.2552e-06
2.16257e-05
-5.22916e-06
2.04395e-05
-1.15859e-06
1.80035e-05
-1.16095e-08
1.55957e-05
-4.68564e-07
1.33678e-05
1.29959e-06
1.15388e-05
5.6387e-08
8.79552e-06
-1.26201e-06
7.6961e-06
-6.80098e-06
8.81932e-06
-1.19417e-05
1.05291e-05
-1.36767e-05
1.12385e-05
-1.20981e-05
1.37398e-05
-1.41981e-05
1.61884e-05
-1.38264e-05
1.56394e-05
-9.5065e-06
1.26368e-05
-7.69298e-06
8.71812e-06
-6.25005e-06
5.00826e-06
-6.0703e-06
1.56536e-06
-8.09584e-06
-3.24686e-06
-9.04225e-06
-3.5865e-06
-1.70659e-05
-3.03661e-07
-1.83276e-05
-9.88003e-06
-2.40342e-06
5.06317e-08
-1.6335e-08
-2.38067e-07
5.61872e-07
-5.70213e-07
3.38325e-07
-8.24859e-07
-6.17532e-08
-9.52873e-07
-4.99574e-07
-9.99315e-07
-8.15369e-07
-9.93531e-07
-9.33642e-07
-1.02814e-06
-8.24511e-07
-1.0845e-06
-7.7871e-07
-1.10899e-06
-8.91276e-07
-1.18556e-06
-9.69842e-07
-1.41839e-06
-9.06968e-07
-1.68038e-06
-8.50074e-07
-1.90469e-06
-8.0626e-07
-2.14792e-06
-7.2394e-07
-2.36057e-06
-7.05359e-07
-2.49643e-06
-7.5671e-07
-2.5741e-06
-8.23817e-07
-2.59684e-06
-9.17842e-07
-2.5691e-06
-1.02457e-06
-2.50187e-06
-1.1349e-06
-2.40236e-06
-1.24862e-06
-2.2874e-06
-1.35793e-06
-2.17284e-06
-1.44899e-06
-2.05382e-06
-1.52939e-06
-1.93939e-06
-1.6046e-06
-1.7994e-06
-1.67894e-06
-1.64462e-06
-1.76734e-06
-1.45489e-06
-1.86106e-06
-1.23283e-06
-1.94556e-06
-9.90707e-07
-2.01286e-06
-7.05015e-07
-2.08802e-06
-3.64231e-07
-2.18828e-06
4.12066e-08
-2.26872e-06
5.03597e-07
-2.35409e-06
1.0144e-06
-2.41862e-06
1.62109e-06
-2.49397e-06
2.24604e-06
-2.54184e-06
2.91128e-06
-2.51796e-06
3.67179e-06
-2.45647e-06
4.44529e-06
-2.42742e-06
5.24032e-06
-2.26243e-06
6.15732e-06
-2.15019e-06
7.04807e-06
-2.04631e-06
7.94865e-06
-1.65024e-06
8.94336e-06
-1.46467e-06
9.91253e-06
-1.21768e-06
1.08705e-05
-7.25616e-07
1.17122e-05
-5.23505e-07
1.25734e-05
-2.65764e-07
1.3353e-05
1.6412e-07
1.37408e-05
5.38758e-07
1.42098e-05
9.62094e-07
1.46181e-05
1.13182e-06
1.40601e-05
1.60646e-06
1.2985e-05
1.91964e-06
1.19545e-05
1.69128e-06
1.12609e-05
1.30739e-06
1.09226e-05
1.11463e-06
1.09697e-05
7.33292e-07
1.07055e-05
1.99384e-07
1.07476e-05
-7.50048e-07
1.10218e-05
-2.60259e-06
1.15677e-05
-4.27008e-06
1.24646e-05
-4.9523e-06
1.35468e-05
-4.82209e-06
1.45427e-05
-4.32743e-06
1.54457e-05
-3.36352e-06
1.61683e-05
-1.86304e-06
1.65278e-05
9.4162e-09
1.66328e-05
2.18655e-06
1.63007e-05
4.22482e-06
1.57903e-05
5.61285e-06
1.4944e-05
6.00238e-06
1.24077e-05
6.2779e-06
8.89898e-06
6.95176e-06
6.00886e-06
7.55234e-06
3.89853e-06
7.91003e-06
2.32143e-06
7.85811e-06
1.27511e-06
7.52196e-06
5.88363e-07
7.07862e-06
1.65833e-07
6.49242e-06
-5.4167e-08
5.83756e-06
-1.28129e-07
5.00387e-06
-1.4832e-07
4.11466e-06
-1.54388e-07
3.27355e-06
-2.12998e-07
2.59923e-06
-2.4417e-07
1.96868e-06
-2.12438e-07
1.43776e-06
-1.54748e-07
1.00929e-06
-3.65307e-08
5.42978e-07
1.41763e-07
1.15128e-08
3.5866e-07
-6.28688e-07
5.84186e-07
-1.24795e-06
8.40265e-07
-1.86519e-06
1.18292e-06
-2.34388e-06
1.54841e-06
-2.49388e-06
1.83674e-06
-2.48566e-06
2.2003e-06
-3.13641e-06
2.8996e-06
-3.93848e-06
3.42122e-06
-4.17173e-06
3.61914e-06
-3.07518e-06
3.69342e-06
-4.09533e-06
3.83333e-06
-4.29283e-06
4.06113e-06
-4.49083e-06
4.40814e-06
-5.34152e-06
4.69617e-06
-4.89875e-06
5.2119e-06
-6.10759e-06
5.95782e-06
-5.90485e-06
6.10744e-06
-5.23215e-06
6.4827e-06
-6.26546e-06
7.00148e-06
-6.19865e-06
7.61641e-06
-6.06809e-06
7.93002e-06
-5.85287e-06
7.78313e-06
-6.19787e-06
8.39045e-06
-7.05525e-06
1.00417e-05
-6.47294e-06
1.08805e-05
-5.3171e-06
1.04814e-05
-5.46374e-06
1.05249e-05
-6.62276e-06
1.1465e-05
-6.79864e-06
1.21383e-05
-6.19653e-06
1.24292e-05
-6.27638e-06
1.31256e-05
-6.48616e-06
1.42004e-05
-6.4666e-06
1.45209e-05