/*--------------------------------*- C++ -*----------------------------------*\
| =========                 |                                                 |
| \\      /  F ield         | OpenFOAM: The Open Source CFD Toolbox           |
|  \\    /   O peration     | Version:  dev                                   |
|   \\  /    A nd           | Web:      http://www.openfoam.org               |
|    \\/     M anipulation  |                                                 |
\*---------------------------------------------------------------------------*/
FoamFile
{
    version     2.0;
    format      ascii;
    class       volScalarField;
    object      pMean;
    location    "9.15";
}
// * * * * * * * * * * * * * * * * * * * * * * * * * * * * * * * * * * * * * //

dimensions      [1 -1 -2 0 0 0 0];

internalField   nonuniform List<scalar> 
12225
(
98311.4
98291.7
98277.9
98270.9
98256.6
98247.2
98228.7
98219.2
98197.7
98188.9
98164.2
98157.4
98126.4
98120.1
98079.3
98039.6
97950.4
97584.4
98306.9
98290.6
98277.3
98270.4
98256
98246.6
98228.1
98218.6
98197
98188.5
98163.5
98156.9
98126
98118.2
98077.6
98043.6
97951.3
97790.2
98303.2
98289
98276.3
98269
98254.6
98245.2
98226.6
98217.3
98195.5
98187
98162.7
98154.8
98126.6
98114.8
98079.8
98044.6
97977.2
97888.4
98298.1
98286.1
98274.2
98266.5
98252.2
98242.5
98224.5
98214.6
98193.8
98184.3
98161.3
98151.7
98125.5
98112.6
98080.8
98053
98004.5
97935.7
98291.5
98281.7
98270.7
98262.5
98248.6
98238.3
98221.4
98210.4
98191.4
98180.1
98159.8
98147.2
98125.7
98109.3
98082.7
98058.5
98018.6
97985.9
98283.2
98275.5
98264.7
98256.5
98243
98232.4
98216.3
98204.7
98186.9
98174.8
98156.6
98143
98124.6
98107.7
98086.3
98061
98038.8
98018.4
98272.9
98266.6
98256.2
98247.8
98235.1
98224
98209.2
98196.7
98180.9
98167.4
98152
98136.9
98122.4
98104.8
98090.5
98069.5
98059.2
98044.2
98262.2
98256.5
98246.9
98238.2
98226.5
98214.9
98201.4
98188.2
98174.2
98159.8
98146.7
98131.1
98119.5
98102.2
98093.5
98075.7
98073.9
98059
98251.4
98245.9
98237.1
98228.2
98217.3
98205.6
98193
98179.6
98166.9
98152.3
98140.9
98125.4
98115.7
98099.7
98093.4
98079.2
98078.9
98067
98237.7
98232.3
98224.6
98215.6
98205.7
98193.9
98182.3
98168.9
98157.6
98143
98133.1
98118.1
98109.9
98095.5
98090.6
98078.8
98078
98069.7
98220.8
98215.3
98208.8
98200
98190.9
98179.4
98168.6
98155.7
98145.2
98131.6
98122.2
98109.1
98101
98089.5
98083.9
98075.3
98072.7
98067.5
98200.3
98194.6
98189.3
98180.9
98172.5
98161.5
98151.6
98139.3
98129.7
98117.1
98108.5
98097
98089.4
98080.1
98074.4
98068
98064.4
98060.8
98175.5
98170.2
98165.7
98158.1
98150.2
98140.2
98130.8
98119.9
98110.7
98100
98091.6
98082.3
98075
98067.8
98062.4
98057.5
98053.9
98051.2
98147.3
98142.5
98138.5
98131.9
98124.7
98115.8
98107.1
98097.6
98089.1
98080.1
98072.4
98064.8
98058.4
98052.7
98048
98044.2
98041.3
98039.2
98117.1
98113.4
98109.6
98104.2
98097.7
98090.1
98082.3
98074.2
98066.6
98059.2
98052.4
98046.3
98041
98036.5
98032.8
98029.8
98027.6
98026.1
98089.4
98086.7
98083.3
98078.8
98073.2
98066.7
98059.9
98053
98046.4
98040.2
98034.6
98029.7
98025.4
98021.8
98018.9
98016.8
98015.2
98014.3
98070.8
98068.9
98066.1
98062.2
98057.3
98051.6
98045.6
98039.7
98034
98028.8
98024
98019.8
98016.3
98013.3
98011
98009.4
98008.2
98007.6
98071.1
98069.4
98066.9
98063.1
98058.4
98053.1
98047.5
98041.9
98036.6
98031.6
98027.1
98023.2
98019.8
98017
98014.8
98013.1
98011.9
98011.2
98090.8
98089
98086.1
98082.1
98077.2
98071.7
98065.9
98060.1
98054.5
98049.3
98044.5
98040.2
98036.5
98033.3
98030.6
98028.5
98026.8
98025.5
98121.6
98119.4
98116
98111.5
98106.1
98100
98093.7
98087.3
98081.2
98075.4
98070
98065
98060.6
98056.8
98053.4
98050.6
98048.2
98046.3
98156.4
98153.8
98149.7
98144.5
98138.5
98131.8
98124.9
98117.9
98111
98104.5
98098.4
98092.7
98087.6
98082.9
98078.8
98075.2
98072.1
98069.4
98190.3
98187.2
98182.4
98176.5
98169.8
98162.6
98155
98147.4
98140
98132.8
98126
98119.6
98113.7
98108.4
98103.5
98099.2
98095.4
98092
98220.5
98216.8
98211.3
98204.8
98197.5
98189.8
98181.8
98173.6
98165.6
98157.9
98150.4
98143.5
98137
98131
98125.6
98120.6
98116.1
98112.1
98245.8
98241.4
98235.1
98228
98220.3
98212.2
98203.8
98195.3
98186.9
98178.6
98170.8
98163.3
98156.3
98149.8
98143.9
98138.4
98133.4
98128.9
98266
98260.8
98253.7
98246
98238
98229.7
98221
98212.2
98203.5
98194.9
98186.6
98178.8
98171.4
98164.6
98158.2
98152.3
98147
98142.1
98281.7
98275.4
98267.3
98259.1
98251
98242.5
98233.7
98224.7
98215.7
98206.9
98198.4
98190.3
98182.7
98175.5
98168.9
98162.7
98157
98151.9
98293.5
98285.6
98276.6
98268.1
98259.8
98251.3
98242.4
98233.4
98224.2
98215.3
98206.6
98198.3
98190.5
98183.1
98176.3
98169.9
98164.1
98158.7
98302.2
98292.4
98282.3
98273.6
98265.4
98256.9
98248
98238.9
98229.7
98220.7
98211.9
98203.5
98195.5
98188.1
98181.1
98174.6
98168.7
98163.1
98308.3
98296.2
98285
98276.4
98268.4
98260
98251.2
98242.1
98232.9
98223.8
98214.9
98206.5
98198.4
98190.9
98183.8
98177.3
98171.2
98165.6
98314.2
98298.7
98286.6
98277.8
98269.6
98261.3
98252.5
98243.4
98234.2
98225.1
98216.2
98207.7
98199.6
98192.1
98185
98178.4
98172.4
98166.8
98311.3
98310.9
98310.1
98309
98307.5
98305.7
98303.4
98300.8
98297.8
98294.3
98290.5
98286.2
98281.6
98276.7
98271.5
98266
98260.3
98254.4
98248.3
98242
98235.6
98229
98222.3
98215.5
98208.6
98201.6
98194.6
98187.6
98180.5
98173.4
98166.3
98159.2
98152.2
98145.2
98138.4
98131.6
98125
98118.5
98112.2
98106
98100.1
98094.4
98089
98083.9
98079
98074.6
98070.4
98066.7
98063.4
98060.6
98058.2
98056.3
98054.9
98054.1
98053.8
98054.1
98055.1
98056.7
98059
98061.9
98065.6
98070
98075.1
98080.9
98087.4
98094.7
98102.6
98111.3
98120.6
98130.6
98141.2
98152.4
98164.1
98176.4
98189.2
98202.4
98216
98230
98244.3
98258.9
98273.7
98288.7
98303.9
98319.1
98334.4
98349.6
98364.8
98379.9
98394.8
98409.5
98424
98438.1
98451.9
98465.3
98478.2
98490.6
98502.5
98513.8
98524.6
98534.7
98544.2
98553.1
98561.3
98568.9
98575.9
98582.2
98587.9
98593
98597.7
98601.7
98605.4
98608.6
98611.5
98613.9
98616.1
98618
98619.7
98621.1
98622.4
98623.5
98624.6
98625.6
98626.8
98628.1
98629.7
98631.7
98634.4
98637.8
98642.2
98647.8
98654.9
98663.6
98674.3
98687.2
98702.6
98720.6
98741.4
98765.2
98792
98821.9
98854.9
98890.8
98929.6
98971.1
99015.5
99062.1
99111
99161.7
99214.3
99268.5
99324
99380.4
99437.4
99494.7
99552
99608.6
99663.9
99717.7
99768.6
99816.5
99859.9
99898.3
99930.2
99955.3
99972
99979.5
99976.8
99963.8
99939.7
99905
99859.6
99804.8
99740.8
99670.1
99593
99512.5
99428
99343.3
99256.5
99173.3
98304.3
98304
98303.2
98302
98300.5
98298.6
98296.4
98293.8
98290.8
98287.4
98283.6
98279.5
98275
98270.2
98265.1
98259.8
98254.3
98248.5
98242.6
98236.5
98230.3
98223.9
98217.4
98210.8
98204
98197.2
98190.4
98183.5
98176.5
98169.6
98162.6
98155.7
98148.8
98142
98135.3
98128.7
98122.2
98115.9
98109.7
98103.7
98097.9
98092.3
98087
98081.9
98077.2
98072.8
98068.7
98065.1
98061.8
98059
98056.6
98054.7
98053.3
98052.4
98052.1
98052.4
98053.3
98054.9
98057.1
98059.9
98063.5
98067.8
98072.8
98078.5
98084.9
98092
98099.8
98108.3
98117.4
98127.2
98137.6
98148.6
98160.1
98172.2
98184.8
98197.8
98211.2
98224.9
98239
98253.4
98267.9
98282.7
98297.6
98312.6
98327.6
98342.5
98357.5
98372.3
98386.9
98401.3
98415.4
98429.3
98442.8
98455.8
98468.5
98480.6
98492.2
98503.3
98513.8
98523.7
98533
98541.6
98549.7
98557
98563.8
98570
98575.5
98580.5
98585
98589
98592.6
98595.7
98598.5
98600.9
98603
98604.8
98606.4
98607.8
98609
98610
98611
98612
98613
98614.2
98615.7
98617.5
98619.9
98623.1
98627.2
98632.5
98639.2
98647.4
98657.7
98670
98684.7
98702.1
98722.2
98745.2
98771.2
98800.1
98832.1
98867.1
98904.9
98945.3
98988.5
99033.9
99081.7
99131.3
99182.7
99235.7
99290
99345.3
99401.2
99457.5
99513.7
99569.3
99623.7
99676.7
99726.9
99774.2
99817.2
99855.3
99887.1
99912.3
99929.4
99937.4
99935.6
99923.6
99900.9
99867.6
99823.8
99770.8
99708.6
99639.7
99564.4
99485.6
99402.7
99319.5
99233.7
99148.7
98291.6
98291.3
98290.5
98289.3
98287.7
98285.7
98283.4
98280.8
98277.8
98274.4
98270.7
98266.6
98262.3
98257.7
98252.9
98247.8
98242.6
98237.2
98231.6
98225.9
98220
98214
98207.9
98201.6
98195.3
98188.8
98182.3
98175.7
98169.1
98162.4
98155.7
98149.1
98142.5
98135.9
98129.5
98123.1
98116.8
98110.7
98104.8
98099
98093.4
98088
98082.8
98077.9
98073.3
98069
98065.1
98061.5
98058.3
98055.5
98053.1
98051.2
98049.8
98048.8
98048.5
98048.7
98049.5
98050.9
98053
98055.7
98059.1
98063.1
98067.9
98073.3
98079.5
98086.3
98093.8
98102
98110.8
98120.3
98130.3
98141
98152.2
98163.8
98176
98188.6
98201.5
98214.9
98228.5
98242.4
98256.5
98270.8
98285.2
98299.7
98314.2
98328.6
98343
98357.3
98371.4
98385.3
98398.9
98412.1
98425.1
98437.6
98449.6
98461.2
98472.3
98482.9
98492.8
98502.3
98511.1
98519.3
98526.9
98533.9
98540.4
98546.2
98551.5
98556.2
98560.5
98564.3
98567.6
98570.6
98573.2
98575.5
98577.5
98579.2
98580.7
98581.9
98582.9
98583.8
98584.6
98585.4
98586.2
98587
98588.1
98589.6
98591.5
98594.1
98597.5
98602.1
98608
98615.3
98624.6
98635.8
98649.3
98665.2
98683.9
98705.3
98729.6
98756.7
98786.9
98819.7
98855.4
98893.7
98934.7
98977.8
99023.3
99070.5
99119.6
99170.2
99222.2
99275.1
99328.8
99382.9
99436.9
99490.5
99543.1
99594.3
99643
99688.8
99730.7
99768
99799.4
99824.4
99841.9
99850.7
99850.2
99840
99819.6
99789
99748.3
99698.6
99640
99574.8
99503.1
99427.9
99348.3
99268.4
99185.4
99101.5
98274.2
98273.9
98273.1
98271.9
98270.3
98268.3
98266
98263.3
98260.3
98257
98253.4
98249.5
98245.3
98241
98236.4
98231.7
98226.8
98221.8
98216.6
98211.4
98205.9
98200.4
98194.7
98189
98183.1
98177.1
98171
98164.9
98158.8
98152.6
98146.4
98140.2
98134
98127.8
98121.8
98115.7
98109.8
98104
98098.4
98092.9
98087.5
98082.3
98077.4
98072.7
98068.3
98064.1
98060.3
98056.8
98053.7
98051
98048.6
98046.7
98045.2
98044.2
98043.7
98043.8
98044.5
98045.7
98047.6
98050.1
98053.2
98057
98061.4
98066.5
98072.3
98078.7
98085.8
98093.5
98101.9
98110.9
98120.5
98130.6
98141.3
98152.4
98164
98176
98188.4
98201.1
98214.1
98227.3
98240.8
98254.4
98268.1
98281.9
98295.6
98309.4
98323
98336.6
98349.9
98363
98375.9
98388.4
98400.6
98412.3
98423.6
98434.4
98444.8
98454.6
98463.9
98472.6
98480.8
98488.4
98495.5
98501.9
98507.9
98513.3
98518.1
98522.5
98526.4
98529.9
98533
98535.7
98538.1
98540.2
98542
98543.5
98544.8
98545.8
98546.7
98547.3
98547.9
98548.3
98548.7
98549.1
98549.7
98550.5
98551.8
98553.5
98556.1
98559.6
98564.3
98570.4
98578.2
98587.8
98599.6
98613.7
98630.3
98649.5
98671.4
98696.1
98723.6
98753.7
98786.4
98821.8
98859.7
98899.7
98941.9
98986
99031.9
99079.3
99128.1
99177.9
99228.6
99279.8
99330.9
99381.8
99431.7
99480.5
99527.1
99571
99611.3
99647.3
99677.8
99702.5
99720.2
99729.8
99730.7
99722.5
99704.8
99677.6
99640.7
99595.3
99541.4
99481
99414.1
99343.7
99268.9
99193.4
99114.6
99034.6
98253
98252.7
98252
98250.9
98249.3
98247.4
98245.1
98242.5
98239.6
98236.4
98232.9
98229.2
98225.3
98221.2
98216.9
98212.5
98208
98203.3
98198.6
98193.8
98188.8
98183.8
98178.6
98173.4
98168
98162.6
98157.1
98151.5
98145.9
98140.3
98134.7
98129.1
98123.4
98117.8
98112.2
98106.7
98101.3
98095.9
98090.7
98085.5
98080.6
98075.7
98071.1
98066.6
98062.4
98058.4
98054.8
98051.4
98048.4
98045.7
98043.4
98041.5
98040
98038.9
98038.3
98038.3
98038.7
98039.8
98041.4
98043.6
98046.3
98049.7
98053.8
98058.4
98063.7
98069.6
98076.2
98083.4
98091.2
98099.6
98108.5
98118
98128
98138.5
98149.3
98160.6
98172.2
98184.1
98196.3
98208.7
98221.3
98234.1
98246.9
98259.8
98272.6
98285.5
98298.2
98310.8
98323.2
98335.4
98347.3
98358.9
98370.1
98381
98391.4
98401.3
98410.7
98419.6
98428.1
98436
98443.4
98450.2
98456.6
98462.4
98467.7
98472.5
98476.9
98480.8
98484.3
98487.3
98490.1
98492.5
98494.6
98496.5
98498
98499.2
98500.3
98501
98501.6
98501.9
98502
98502
98502
98501.8
98501.8
98501.9
98502.3
98503.1
98504.5
98506.8
98510.1
98514.6
98520.6
98528.3
98538
98549.8
98563.9
98580.4
98599.5
98621.1
98645.4
98672.2
98701.5
98733.2
98767.4
98803.8
98842.1
98882.4
98924.5
98968.1
99013.1
99059.2
99106.2
99153.8
99201.5
99249
99295.8
99341.5
99385.5
99427
99465.3
99499.7
99529.1
99553.1
99570.7
99581
99583.3
99577.3
99562.5
99539.1
99506.7
99466.2
99417.6
99363
99301.9
99237.5
99168.4
99098.5
99025.3
98950.6
98229.6
98229.4
98228.7
98227.7
98226.3
98224.5
98222.3
98219.9
98217.1
98214.1
98210.8
98207.3
98203.6
98199.8
98195.8
98191.7
98187.5
98183.2
98178.9
98174.5
98170
98165.4
98160.7
98156
98151.2
98146.3
98141.4
98136.5
98131.5
98126.5
98121.4
98116.4
98111.4
98106.3
98101.3
98096.4
98091.5
98086.7
98081.9
98077.2
98072.7
98068.2
98063.9
98059.8
98055.9
98052.2
98048.7
98045.6
98042.6
98040.1
98037.8
98035.9
98034.3
98033.2
98032.5
98032.3
98032.5
98033.3
98034.6
98036.5
98038.9
98041.8
98045.4
98049.5
98054.3
98059.6
98065.6
98072.1
98079.3
98086.9
98095.2
98103.9
98113.1
98122.7
98132.8
98143.2
98153.9
98164.9
98176.1
98187.6
98199.2
98210.9
98222.7
98234.6
98246.4
98258.1
98269.8
98281.3
98292.7
98303.8
98314.6
98325.1
98335.3
98345
98354.4
98363.3
98371.7
98379.6
98387.1
98394.1
98400.6
98406.6
98412.1
98417.2
98421.8
98426
98429.7
98433.1
98436.1
98438.7
98441.1
98443.1
98444.8
98446.3
98447.5
98448.4
98449.1
98449.5
98449.7
98449.6
98449.3
98448.8
98448.2
98447.4
98446.6
98445.8
98445.2
98444.9
98445
98445.9
98447.6
98450.3
98454.4
98459.9
98467.2
98476.4
98487.7
98501.3
98517.2
98535.4
98556.1
98579.2
98604.7
98632.4
98662.5
98694.7
98728.9
98765
98802.9
98842.3
98883.2
98925.2
98968
99011.6
99055.4
99099.2
99142.5
99184.9
99225.7
99264.6
99300.5
99332.9
99360.8
99383.9
99401.2
99411.9
99415.5
99411.7
99399.9
99380.4
99352.5
99317.3
99274.4
99225.9
99171.2
99113.4
99050.9
98987.6
98920.7
98852.6
98205.1
98205
98204.5
98203.5
98202.3
98200.6
98198.7
98196.5
98193.9
98191.1
98188.1
98184.9
98181.5
98177.9
98174.3
98170.5
98166.7
98162.7
98158.8
98154.7
98150.6
98146.5
98142.3
98138
98133.8
98129.4
98125.1
98120.7
98116.3
98111.9
98107.4
98103
98098.5
98094.1
98089.7
98085.3
98081
98076.7
98072.5
98068.3
98064.1
98060.1
98056.2
98052.4
98048.8
98045.4
98042.2
98039.2
98036.4
98033.9
98031.7
98029.8
98028.3
98027.1
98026.2
98025.9
98025.9
98026.4
98027.4
98028.9
98030.9
98033.4
98036.5
98040.1
98044.2
98048.9
98054.2
98060.1
98066.4
98073.3
98080.7
98088.6
98096.9
98105.7
98114.8
98124.2
98134
98144
98154.2
98164.6
98175.1
98185.7
98196.4
98207.1
98217.8
98228.4
98238.9
98249.2
98259.4
98269.3
98278.9
98288.2
98297.2
98305.8
98314
98321.8
98329.2
98336.1
98342.5
98348.6
98354.1
98359.3
98363.9
98368.1
98372
98375.5
98378.5
98381.3
98383.7
98385.8
98387.7
98389.3
98390.5
98391.6
98392.4
98392.9
98393.2
98393.2
98392.9
98392.4
98391.6
98390.5
98389.2
98387.7
98386.1
98384.3
98382.7
98381.1
98379.9
98379.1
98379.1
98380
98381.9
98385.1
98389.8
98396.3
98404.7
98415.1
98427.6
98442.3
98459.2
98478.4
98499.9
98523.5
98549.3
98577.2
98607
98638.7
98672.2
98707.2
98743.7
98781.4
98819.9
98859.3
98899
98938.9
98978.5
99017.2
99054.6
99090.3
99123.6
99153.7
99179.7
99201.5
99218.2
99229.1
99233.8
99232
99223
99207.3
99183.7
99153.8
99116.8
99074.6
99026.6
98975.8
98920.2
98864
98804
98743.2
98181
98180.9
98180.5
98179.7
98178.6
98177.2
98175.5
98173.5
98171.3
98168.8
98166
98163.1
98160
98156.8
98153.5
98150
98146.5
98143
98139.4
98135.7
98132
98128.2
98124.5
98120.7
98116.9
98113.1
98109.2
98105.4
98101.5
98097.6
98093.7
98089.8
98085.9
98082
98078.2
98074.3
98070.5
98066.7
98062.9
98059.2
98055.5
98051.8
98048.3
98044.9
98041.6
98038.4
98035.4
98032.6
98030
98027.6
98025.4
98023.6
98022
98020.7
98019.7
98019.2
98019
98019.3
98019.9
98021.1
98022.6
98024.7
98027.2
98030.3
98033.8
98037.9
98042.5
98047.6
98053.2
98059.3
98065.9
98072.9
98080.3
98088.1
98096.2
98104.7
98113.4
98122.3
98131.5
98140.7
98150.1
98159.6
98169.1
98178.6
98188.1
98197.5
98206.7
98215.8
98224.7
98233.4
98241.7
98249.8
98257.6
98265
98272
98278.7
98284.9
98290.7
98296.1
98301.1
98305.7
98309.9
98313.7
98317.1
98320.2
98322.9
98325.2
98327.3
98329.1
98330.7
98332
98333.1
98333.9
98334.4
98334.7
98334.8
98334.6
98334.1
98333.4
98332.3
98330.9
98329.2
98327.2
98324.9
98322.3
98319.6
98316.8
98313.9
98311.3
98308.9
98307.1
98306
98305.7
98306.6
98308.7
98312.4
98317.8
98325
98334.1
98345.2
98358.4
98373.7
98391.1
98410.6
98432
98455.5
98480.9
98508.4
98537.4
98568
98600
98633.4
98667.5
98702.6
98738.2
98774.1
98809.8
98844.7
98878.6
98910.9
98941.1
98968.7
98992.5
99012.7
99028.4
99039.2
99044.5
99044.4
99037.9
99025.4
99006
98981.1
98949.6
98913.7
98872.3
98828.6
98780.1
98731.3
98678.5
98625.4
98158.1
98158.1
98157.8
98157.2
98156.3
98155.1
98153.6
98151.9
98149.9
98147.7
98145.3
98142.7
98140
98137.1
98134.2
98131.1
98127.9
98124.7
98121.5
98118.2
98114.9
98111.5
98108.2
98104.8
98101.5
98098.1
98094.7
98091.3
98087.9
98084.5
98081
98077.6
98074.2
98070.8
98067.4
98064
98060.6
98057.2
98053.9
98050.5
98047.2
98043.9
98040.7
98037.5
98034.5
98031.6
98028.8
98026.1
98023.6
98021.3
98019.2
98017.3
98015.7
98014.3
98013.2
98012.5
98012.1
98012.1
98012.5
98013.2
98014.4
98016
98018.1
98020.6
98023.5
98027
98030.9
98035.3
98040.1
98045.4
98051.1
98057.2
98063.7
98070.6
98077.8
98085.2
98092.9
98100.8
98108.8
98117
98125.2
98133.6
98141.9
98150.2
98158.4
98166.5
98174.5
98182.3
98190
98197.3
98204.5
98211.3
98217.8
98224
98229.9
98235.3
98240.4
98245.1
98249.4
98253.4
98257
98260.2
98263.1
98265.7
98267.9
98269.9
98271.5
98272.9
98274.1
98275.1
98275.8
98276.3
98276.6
98276.6
98276.3
98275.9
98275.1
98274.1
98272.7
98271.1
98269
98266.6
98263.8
98260.6
98257.1
98253.3
98249.3
98245.2
98241.2
98237.3
98233.7
98230.6
98228.2
98226.7
98226.3
98227.3
98229.7
98233.7
98239.5
98247.1
98256.6
98268.1
98281.6
98297.1
98314.4
98333.7
98354.8
98378
98402.8
98429.1
98456.8
98485.8
98515.7
98546.6
98578
98610
98641.6
98672.7
98702.8
98731.6
98758.6
98783.3
98804.7
98822.9
98837.2
98847.4
98853
98854
98849.4
98839.7
98824
98803.5
98777.1
98747.2
98712.4
98675.5
98634
98592.5
98547.1
98501.8
98137.5
98137.5
98137.3
98136.8
98136.1
98135.1
98133.9
98132.5
98130.8
98129
98126.9
98124.7
98122.3
98119.8
98117.1
98114.4
98111.6
98108.8
98105.9
98103
98100.1
98097.2
98094.2
98091.2
98088.3
98085.3
98082.3
98079.3
98076.3
98073.2
98070.2
98067.2
98064.2
98061.1
98058.1
98055.1
98052.1
98049
98046
98042.9
98039.9
98036.9
98033.9
98031
98028.1
98025.4
98022.7
98020.2
98017.7
98015.5
98013.4
98011.5
98009.8
98008.3
98007.1
98006.2
98005.6
98005.3
98005.4
98005.8
98006.6
98007.8
98009.4
98011.4
98013.8
98016.6
98019.9
98023.6
98027.7
98032.2
98037.1
98042.4
98048
98054
98060.2
98066.7
98073.4
98080.2
98087.2
98094.3
98101.4
98108.6
98115.7
98122.8
98129.8
98136.7
98143.5
98150.1
98156.5
98162.6
98168.5
98174.1
98179.4
98184.4
98189
98193.3
98197.2
98200.8
98204
98206.9
98209.5
98211.8
98213.8
98215.5
98217
98218.1
98219
98219.7
98220.2
98220.5
98220.6
98220.5
98220.1
98219.6
98218.8
98217.7
98216.3
98214.7
98212.7
98210.3
98207.5
98204.4
98200.7
98196.7
98192.2
98187.3
98182.2
98176.9
98171.5
98166.1
98160.8
98155.9
98151.4
98147.7
98144.9
98143.2
98142.8
98143.9
98146.4
98150.7
98156.7
98164.7
98174.4
98186.2
98199.7
98215
98232.1
98251.3
98272
98294.2
98317.7
98342.6
98368.4
98395.3
98422.7
98450.6
98478.2
98505.5
98531.9
98557.1
98580.7
98602.4
98621.1
98636.9
98649.3
98658.5
98663.6
98665.1
98661.8
98654.3
98641.7
98625.2
98603.4
98579
98550.3
98519.8
98485
98450.7
98412.5
98375
98119.6
98119.8
98119.7
98119.3
98118.7
98117.9
98117
98115.8
98114.4
98112.9
98111.1
98109.2
98107.2
98105.1
98102.8
98100.5
98098.1
98095.6
98093.2
98090.6
98088.1
98085.5
98082.9
98080.4
98077.7
98075.1
98072.5
98069.8
98067.1
98064.4
98061.7
98059
98056.3
98053.6
98050.8
98048.1
98045.3
98042.5
98039.7
98036.8
98034
98031.2
98028.4
98025.6
98022.9
98020.2
98017.6
98015.1
98012.7
98010.5
98008.3
98006.4
98004.6
98003
98001.7
98000.6
97999.8
97999.2
97999
97999.1
97999.6
98000.4
98001.5
98003.1
98005
98007.3
98010
98013
98016.5
98020.3
98024.4
98028.9
98033.7
98038.8
98044.2
98049.7
98055.5
98061.3
98067.3
98073.3
98079.4
98085.5
98091.5
98097.5
98103.4
98109.1
98114.7
98120.1
98125.3
98130.2
98134.9
98139.3
98143.4
98147.1
98150.6
98153.7
98156.5
98159
98161.2
98163.1
98164.7
98166
98167.1
98167.9
98168.5
98168.8
98168.9
98168.9
98168.6
98168.2
98167.6
98166.8
98165.8
98164.6
98163.2
98161.5
98159.4
98157.1
98154.3
98151.2
98147.7
98143.7
98139.2
98134.2
98128.8
98122.9
98116.8
98110.2
98103.6
98096.7
98089.9
98083.3
98077
98071.2
98066.2
98062.1
98059.1
98057.4
98057
98058.2
98061.1
98065.7
98072
98080.3
98090.3
98102.1
98115.6
98131
98148
98166.5
98186.2
98207.2
98229.2
98252.1
98275.7
98299.6
98323.3
98346.9
98369.5
98390.9
98411.1
98429.5
98445.3
98458.5
98468.6
98476.1
98480.1
98481.4
98478.7
98472.8
98462.7
98449.5
98431.8
98412.3
98389
98364.4
98335.9
98308.4
98277.1
98247.1
98105
98105.1
98105.1
98104.8
98104.4
98103.9
98103.1
98102.2
98101.1
98099.9
98098.5
98096.9
98095.3
98093.5
98091.6
98089.7
98087.7
98085.6
98083.5
98081.4
98079.2
98077
98074.8
98072.6
98070.3
98068
98065.6
98063.2
98060.8
98058.4
98055.9
98053.5
98050.9
98048.4
98045.9
98043.3
98040.7
98038
98035.3
98032.6
98029.9
98027.2
98024.4
98021.7
98019.1
98016.4
98013.8
98011.3
98008.9
98006.6
98004.4
98002.3
98000.4
97998.7
97997.2
97996
97994.9
97994.2
97993.7
97993.5
97993.7
97994.1
97994.9
97996.1
97997.5
97999.3
98001.5
98004
98006.8
98010
98013.5
98017.3
98021.4
98025.7
98030.2
98034.9
98039.8
98044.8
98049.8
98054.9
98060
98065.1
98070.1
98075
98079.8
98084.4
98088.9
98093.2
98097.2
98101
98104.5
98107.7
98110.7
98113.3
98115.7
98117.7
98119.4
98120.9
98122
98122.8
98123.4
98123.8
98123.9
98123.8
98123.5
98123
98122.3
98121.5
98120.5
98119.3
98117.9
98116.4
98114.7
98112.7
98110.6
98108.1
98105.4
98102.2
98098.7
98094.9
98090.5
98085.7
98080.4
98074.6
98068.2
98061.4
98054.2
98046.6
98038.7
98030.6
98022.3
98014.2
98006.2
97998.7
97991.7
97985.3
97980
97975.8
97972.8
97971.3
97971.4
97973.1
97976.4
97981.6
97988.5
97997.1
98007.4
98019.6
98033.2
98048.4
98064.5
98082
98100.4
98119.6
98139.6
98159.8
98179.7
98199.6
98218.3
98236
98252.5
98267.4
98280.2
98290.5
98298
98303.2
98305.6
98305.8
98303.2
98298.3
98289.9
98279.4
98265.2
98249.8
98231.2
98212
98189.2
98168.1
98143.1
98120.3
98093.5
98093.8
98093.8
98093.6
98093.3
98093
98092.4
98091.8
98090.9
98090
98088.9
98087.7
98086.4
98085
98083.6
98082
98080.4
98078.8
98077.1
98075.3
98073.6
98071.7
98069.9
98067.9
98065.9
98063.9
98061.8
98059.7
98057.5
98055.3
98053
98050.7
98048.3
98045.9
98043.4
98040.9
98038.4
98035.8
98033.2
98030.5
98027.8
98025
98022.3
98019.6
98016.9
98014.2
98011.5
98009
98006.5
98004
98001.7
97999.6
97997.5
97995.7
97994
97992.6
97991.4
97990.4
97989.7
97989.3
97989.2
97989.3
97989.8
97990.6
97991.6
97993
97994.7
97996.8
97999.1
98001.7
98004.6
98007.8
98011.2
98014.9
98018.7
98022.7
98026.7
98030.9
98035.1
98039.4
98043.6
98047.7
98051.8
98055.8
98059.6
98063.2
98066.6
98069.8
98072.8
98075.5
98078
98080.1
98082
98083.6
98084.8
98085.8
98086.5
98086.9
98087
98086.8
98086.4
98085.8
98085
98084
98082.8
98081.4
98079.9
98078.3
98076.4
98074.4
98072.2
98069.9
98067.4
98064.7
98061.8
98058.5
98054.9
98051
98046.8
98042.1
98036.9
98031.3
98025.2
98018.5
98011.3
98003.6
97995.4
97986.8
97977.8
97968.6
97959.1
97949.6
97940.2
97931.1
97922.3
97914.1
97906.8
97900.4
97895.2
97891.4
97889
97888.2
97889
97891.5
97895.7
97901.5
97909
97918.2
97928.8
97940.9
97954
97968.3
97983.4
97999.3
98015.8
98032.4
98048.8
98065.1
98079.9
98093.8
98106.5
98117.8
98127.3
98134.5
98139.2
98142
98142.3
98140.9
98137.6
98132.9
98125.7
98117.1
98105.7
98093.7
98079
98064.6
98047
98031.5
98012.3
97996.3
98085.1
98085.4
98085.5
98085.4
98085.3
98085.1
98084.8
98084.3
98083.8
98083.2
98082.4
98081.6
98080.7
98079.7
98078.7
98077.6
98076.4
98075.2
98073.9
98072.6
98071.1
98069.7
98068.1
98066.5
98064.8
98063
98061.1
98059.2
98057.1
98055.1
98052.9
98050.6
98048.3
98046
98043.5
98041
98038.5
98035.9
98033.2
98030.4
98027.7
98024.8
98022
98019.2
98016.4
98013.6
98010.8
98008.1
98005.5
98002.9
98000.5
97998.2
97996
97994
97992.2
97990.6
97989.2
97988
97987.1
97986.5
97986.1
97986
97986.2
97986.7
97987.5
97988.5
97989.9
97991.5
97993.4
97995.6
97998
98000.7
98003.6
98006.6
98009.8
98013.1
98016.6
98020
98023.5
98027
98030.4
98033.8
98037
98040.1
98043
98045.7
98048.2
98050.5
98052.4
98054.1
98055.6
98056.7
98057.6
98058.2
98058.4
98058.4
98058.1
98057.4
98056.6
98055.4
98054.1
98052.5
98050.8
98048.9
98046.8
98044.5
98042.2
98039.6
98036.9
98034.1
98031
98027.9
98024.6
98021
98017.2
98013.1
98008.7
98004
97998.9
97993.4
97987.4
97981
97974
97966.5
97958.6
97950.1
97941
97931.5
97921.7
97911.5
97901
97890.4
97879.8
97869.3
97859
97849.2
97840.2
97832.1
97825
97819.2
97814.8
97811.8
97810.4
97810.7
97812.6
97816
97821
97827.6
97835.5
97844.8
97855.1
97866.6
97878.7
97891.6
97904.8
97918.1
97931.1
97943.7
97954.9
97965.1
97974
97981.6
97987.5
97991.4
97993.2
97993.5
97991.3
97988
97983.5
97978.3
97971.6
97964.3
97955
97945.7
97934.3
97924
97910.8
97900.5
97886.5
97876.7
98079.1
98079.4
98079.6
98079.7
98079.7
98079.6
98079.5
98079.3
98079.1
98078.8
98078.5
98078.1
98077.7
98077.2
98076.6
98076
98075.3
98074.5
98073.6
98072.7
98071.7
98070.5
98069.3
98068
98066.5
98064.9
98063.2
98061.4
98059.5
98057.5
98055.4
98053.1
98050.8
98048.4
98046
98043.4
98040.7
98038
98035.2
98032.3
98029.4
98026.5
98023.5
98020.5
98017.6
98014.6
98011.7
98008.8
98006
98003.3
98000.7
97998.2
97995.9
97993.7
97991.7
97990
97988.4
97987.1
97986
97985.2
97984.7
97984.4
97984.4
97984.6
97985.1
97985.9
97987
97988.3
97989.9
97991.7
97993.7
97996
97998.4
98001
98003.7
98006.4
98009.3
98012.1
98015
98017.8
98020.6
98023.2
98025.7
98028
98030.1
98032
98033.6
98035
98036.1
98036.9
98037.4
98037.7
98037.6
98037.2
98036.6
98035.6
98034.3
98032.7
98030.9
98028.8
98026.5
98024
98021.4
98018.6
98015.6
98012.5
98009.2
98005.8
98002.2
97998.4
97994.6
97990.5
97986.3
97981.9
97977.2
97972.2
97967
97961.4
97955.5
97949.2
97942.4
97935.2
97927.4
97919.2
97910.5
97901.4
97891.6
97881.4
97870.8
97859.8
97848.5
97837
97825.4
97813.7
97802.3
97791.2
97780.9
97771.4
97762.8
97755.3
97749.2
97744.5
97741.3
97739.6
97739.4
97740.8
97743.6
97747.9
97753.5
97760.3
97768.2
97777.2
97786.7
97796.6
97806.8
97816.8
97826.5
97835.6
97843.3
97849.8
97854.9
97858.8
97861.1
97861.6
97860.3
97858
97853.4
97847.9
97841.8
97835.6
97828.7
97822.2
97814.2
97807
97798.2
97791.4
97782
97776.2
97766.8
97762.6
98074.7
98075
98075.3
98075.5
98075.6
98075.8
98076
98076.2
98076.4
98076.6
98076.7
98076.9
98077
98077.1
98077
98076.9
98076.7
98076.4
98075.9
98075.4
98074.7
98073.9
98072.9
98071.8
98070.6
98069.2
98067.6
98065.9
98064
98062.1
98059.9
98057.7
98055.3
98052.9
98050.3
98047.6
98044.8
98041.9
98039
98035.9
98032.8
98029.7
98026.6
98023.4
98020.2
98017.1
98013.9
98010.9
98007.9
98005
98002.3
97999.6
97997.1
97994.8
97992.7
97990.8
97989.1
97987.7
97986.5
97985.5
97984.8
97984.4
97984.2
97984.2
97984.6
97985.2
97986
97987.1
97988.4
97990
97991.7
97993.6
97995.6
97997.8
98000.1
98002.4
98004.8
98007.2
98009.5
98011.7
98013.9
98015.9
98017.7
98019.3
98020.7
98021.9
98022.8
98023.4
98023.7
98023.7
98023.4
98022.8
98021.8
98020.6
98019
98017.2
98015
98012.6
98009.8
98006.9
98003.7
98000.3
97996.7
97993
97989.2
97985.2
97981
97976.7
97972.2
97967.6
97962.9
97958
97952.8
97947.4
97941.9
97936.1
97930
97923.6
97916.9
97909.7
97902.2
97894.2
97885.8
97876.9
97867.6
97857.8
97847.5
97836.7
97825.5
97813.9
97801.9
97789.6
97777.2
97764.8
97752.4
97740.5
97729.1
97718.4
97708.6
97699.8
97692.3
97686.2
97681.4
97678.1
97676.2
97675.8
97676.8
97679.2
97682.7
97687.3
97693
97699.8
97706.9
97714.1
97721.2
97728.1
97734.7
97740.4
97744.7
97747.8
97749.2
97749.3
97747.9
97744.9
97740.5
97735.3
97728.3
97720.6
97712.6
97705.2
97697.8
97691.4
97684.2
97678.5
97671.8
97667.6
97661.3
97659.6
97654.3
97654.9
98071
98071.2
98071.4
98071.6
98071.8
98072.4
98072.9
98073.7
98074.6
98075.5
98076.4
98077.2
98078
98078.7
98079.3
98079.7
98080
98080.1
98080.1
98079.9
98079.6
98079
98078.3
98077.4
98076.3
98075.1
98073.6
98071.9
98070.1
98068.1
98066
98063.7
98061.2
98058.6
98055.9
98053.1
98050.2
98047.1
98044
98040.8
98037.5
98034.2
98030.8
98027.4
98024.1
98020.7
98017.4
98014.2
98011
98008
98005
98002.3
97999.7
97997.2
97995
97993
97991.2
97989.6
97988.3
97987.2
97986.4
97985.9
97985.5
97985.5
97985.7
97986.1
97986.8
97987.7
97988.9
97990.2
97991.7
97993.4
97995.1
97997
97998.9
98000.9
98002.9
98004.8
98006.6
98008.4
98010
98011.5
98012.7
98013.8
98014.5
98015
98015.3
98015.2
98014.8
98014
98013
98011.6
98009.8
98007.8
98005.5
98002.8
97999.8
97996.6
97993
97989.2
97985.1
97980.9
97976.5
97971.9
97967.2
97962.4
97957.4
97952.2
97946.9
97941.4
97935.8
97930
97923.9
97917.7
97911.2
97904.6
97897.7
97890.5
97883
97875.1
97866.9
97858.2
97849.2
97839.8
97829.9
97819.5
97808.7
97797.5
97785.8
97773.8
97761.2
97748.4
97735.4
97722.4
97709.4
97696.8
97684.7
97673.1
97662.3
97652.5
97643.8
97636.4
97630.2
97625.6
97622.3
97620.4
97619.8
97620.6
97622.2
97625
97628.8
97633.3
97638.3
97642.9
97647.2
97651.1
97654.6
97657.2
97658.4
97658.1
97655.8
97652.2
97647.2
97640.8
97633.1
97624.9
97615.5
97605.7
97595.8
97587.1
97578.8
97572.1
97565.2
97560.7
97555.4
97553.4
97549.7
97551.4
97549.6
97554.6
98066.1
98066.1
98066.2
98066.5
98067.2
98068.5
98069.9
98071.7
98073.4
98075.3
98077
98078.7
98080.3
98081.7
98082.9
98083.8
98084.6
98085.2
98085.5
98085.6
98085.6
98085.3
98084.7
98084
98083
98081.9
98080.4
98078.8
98077
98075
98072.8
98070.4
98067.9
98065.2
98062.4
98059.4
98056.3
98053.1
98049.8
98046.4
98042.9
98039.4
98035.9
98032.3
98028.8
98025.2
98021.8
98018.4
98015.1
98011.9
98008.8
98005.9
98003.2
98000.7
97998.4
97996.2
97994.4
97992.7
97991.3
97990.2
97989.3
97988.7
97988.3
97988.1
97988.3
97988.6
97989.2
97990
97991
97992.1
97993.5
97994.9
97996.5
97998.1
97999.7
98001.3
98002.9
98004.5
98005.9
98007.2
98008.4
98009.4
98010.1
98010.6
98010.8
98010.7
98010.4
98009.6
98008.6
98007.2
98005.4
98003.3
98000.9
97998.1
97995
97991.6
97987.9
97983.9
97979.6
97975
97970.1
97965.1
97959.9
97954.5
97949
97943.4
97937.6
97931.6
97925.4
97919.1
97912.7
97906
97899.2
97892.1
97884.9
97877.4
97869.8
97861.8
97853.6
97845.1
97836.2
97827
97817.4
97807.5
97797.1
97786.4
97775.2
97763.6
97751.6
97739.2
97726.2
97713
97699.6
97686.2
97672.8
97659.8
97647.1