/*--------------------------------*- C++ -*----------------------------------*\
| =========                 |                                                 |
| \\      /  F ield         | OpenFOAM: The Open Source CFD Toolbox           |
|  \\    /   O peration     | Version:  dev                                   |
|   \\  /    A nd           | Web:      http://www.openfoam.org               |
|    \\/     M anipulation  |                                                 |
\*---------------------------------------------------------------------------*/
FoamFile
{
    version     2.0;
    format      ascii;
    class       volScalarField;
    object      pPrime2Mean;
    location    "9.15";
}
// * * * * * * * * * * * * * * * * * * * * * * * * * * * * * * * * * * * * * //

dimensions      [2 -2 -4 0 0 0 0];

internalField   nonuniform List<scalar> 
12225
(
5.03657e+07
4.99005e+07
4.89394e+07
4.75878e+07
4.59335e+07
4.40659e+07
4.20444e+07
3.99409e+07
3.77962e+07
3.56585e+07
3.35655e+07
3.15201e+07
2.95963e+07
2.77249e+07
2.59773e+07
2.44167e+07
2.28547e+07
2.12748e+07
5.02579e+07
4.97927e+07
4.88324e+07
4.74825e+07
4.58296e+07
4.39645e+07
4.19458e+07
3.98448e+07
3.77041e+07
3.55691e+07
3.34807e+07
3.1439e+07
2.95198e+07
2.76553e+07
2.59251e+07
2.43646e+07
2.28557e+07
2.15216e+07
5.00079e+07
4.95433e+07
4.85835e+07
4.72365e+07
4.55882e+07
4.37278e+07
4.17158e+07
3.96212e+07
3.74886e+07
3.53617e+07
3.32817e+07
3.12518e+07
2.93386e+07
2.74914e+07
2.5781e+07
2.42253e+07
2.27902e+07
2.15774e+07
4.95724e+07
4.91107e+07
4.81532e+07
4.68114e+07
4.51711e+07
4.33192e+07
4.13189e+07
3.92347e+07
3.71169e+07
3.50034e+07
3.29394e+07
3.09272e+07
2.90313e+07
2.72034e+07
2.55226e+07
2.39916e+07
2.26051e+07
2.15046e+07
4.89075e+07
4.8446e+07
4.74933e+07
4.6161e+07
4.45325e+07
4.26951e+07
4.07106e+07
3.86458e+07
3.6547e+07
3.44577e+07
3.24139e+07
3.04324e+07
2.85591e+07
2.67672e+07
2.51388e+07
2.363e+07
2.23488e+07
2.12847e+07
4.79586e+07
4.74945e+07
4.65513e+07
4.52325e+07
4.36219e+07
4.18043e+07
3.98445e+07
3.78052e+07
3.57366e+07
3.36769e+07
3.16674e+07
2.97201e+07
2.7885e+07
2.61397e+07
2.45607e+07
2.31214e+07
2.18946e+07
2.08383e+07
4.6664e+07
4.61987e+07
4.5271e+07
4.39684e+07
4.23839e+07
4.0592e+07
3.86678e+07
3.6662e+07
3.46362e+07
3.26155e+07
3.06544e+07
2.87527e+07
2.6969e+07
2.52814e+07
2.37594e+07
2.23802e+07
2.12118e+07
2.01839e+07
4.52224e+07
4.47587e+07
4.38473e+07
4.25626e+07
4.10068e+07
3.92446e+07
3.73589e+07
3.53921e+07
3.34116e+07
3.14371e+07
2.95257e+07
2.76777e+07
2.59455e+07
2.43211e+07
2.28476e+07
2.15316e+07
2.03957e+07
1.9436e+07
4.37081e+07
4.32478e+07
4.23527e+07
4.10878e+07
3.95616e+07
3.78317e+07
3.59855e+07
3.4061e+07
3.21267e+07
3.02018e+07
2.83414e+07
2.65491e+07
2.48706e+07
2.33069e+07
2.18854e+07
2.06255e+07
1.95316e+07
1.8633e+07
4.17685e+07
4.13149e+07
4.04393e+07
3.9202e+07
3.77122e+07
3.60264e+07
3.42289e+07
3.23606e+07
3.04836e+07
2.86235e+07
2.6826e+07
2.51052e+07
2.34928e+07
2.20038e+07
2.06486e+07
1.94563e+07
1.84192e+07
1.75666e+07
3.93206e+07
3.8877e+07
3.80249e+07
3.68244e+07
3.53805e+07
3.37518e+07
3.20164e+07
3.02191e+07
2.84152e+07
2.66354e+07
2.49182e+07
2.32834e+07
2.17548e+07
2.03519e+07
1.90797e+07
1.79642e+07
1.6994e+07
1.61875e+07
3.62981e+07
3.58694e+07
3.50455e+07
3.38939e+07
3.25072e+07
3.09518e+07
2.92938e+07
2.75856e+07
2.58722e+07
2.41914e+07
2.25723e+07
2.10405e+07
1.96128e+07
1.83092e+07
1.71336e+07
1.61024e+07
1.52078e+07
1.44544e+07
3.26862e+07
3.22761e+07
3.14886e+07
3.03982e+07
2.90838e+07
2.76173e+07
2.60551e+07
2.44535e+07
2.28503e+07
2.12859e+07
1.97836e+07
1.83709e+07
1.70596e+07
1.58682e+07
1.47992e+07
1.38615e+07
1.30502e+07
1.23619e+07
2.85758e+07
2.81886e+07
2.74478e+07
2.64297e+07
2.52036e+07
2.38407e+07
2.23924e+07
2.09129e+07
1.94379e+07
1.80044e+07
1.6635e+07
1.53529e+07
1.41701e+07
1.30994e+07
1.21439e+07
1.13066e+07
1.05839e+07
9.96978e+06
2.42524e+07
2.38916e+07
2.32069e+07
2.22696e+07
2.11437e+07
1.9895e+07
1.85724e+07
1.72252e+07
1.58879e+07
1.45932e+07
1.33627e+07
1.22158e+07
1.11634e+07
1.02144e+07
9.37127e+06
8.63407e+06
7.99958e+06
7.46111e+06
2.03064e+07
1.99743e+07
1.93492e+07
1.84936e+07
1.74692e+07
1.63337e+07
1.51348e+07
1.39158e+07
1.27102e+07
1.15463e+07
1.04447e+07
9.42101e+06
8.48529e+06
7.64358e+06
6.89777e+06
6.24658e+06
5.68685e+06
5.21235e+06
1.77414e+07
1.74349e+07
1.68599e+07
1.60723e+07
1.51303e+07
1.40857e+07
1.29842e+07
1.18647e+07
1.07588e+07
9.6918e+06
8.68259e+06
7.74476e+06
6.88702e+06
6.11417e+06
5.42757e+06
4.82583e+06
4.30598e+06
3.86266e+06
1.78495e+07
1.75548e+07
1.70021e+07
1.62441e+07
1.53368e+07
1.43294e+07
1.32654e+07
1.21818e+07
1.11088e+07
1.00701e+07
9.08342e+06
8.16141e+06
7.31223e+06
6.54036e+06
5.84722e+06
5.23196e+06
4.69207e+06
4.22322e+06
2.07259e+07
2.04268e+07
1.98644e+07
1.90914e+07
1.81647e+07
1.71334e+07
1.60409e+07
1.49239e+07
1.38125e+07
1.27298e+07
1.16938e+07
1.07168e+07
9.80727e+06
8.96996e+06
8.2068e+06
7.5177e+06
6.90081e+06
6.35276e+06
2.52124e+07
2.49004e+07
2.431e+07
2.3496e+07
2.25178e+07
2.14262e+07
2.0266e+07
1.90746e+07
1.78827e+07
1.67144e+07
1.55876e+07
1.45157e+07
1.35074e+07
1.25681e+07
1.17005e+07
1.09052e+07
1.01812e+07
9.52591e+06
3.02711e+07
2.9945e+07
2.93214e+07
2.8458e+07
2.74174e+07
2.62527e+07
2.50105e+07
2.37297e+07
2.24423e+07
2.11731e+07
1.99412e+07
1.87605e+07
1.76406e+07
1.65875e+07
1.56047e+07
1.46937e+07
1.38539e+07
1.30837e+07
3.51843e+07
3.48465e+07
3.41919e+07
3.32814e+07
3.21807e+07
3.09448e+07
2.96224e+07
2.82541e+07
2.68731e+07
2.55054e+07
2.41711e+07
2.28848e+07
2.1657e+07
2.04944e+07
1.94013e+07
1.83797e+07
1.74299e+07
1.65509e+07
3.95329e+07
3.91868e+07
3.85067e+07
3.75565e+07
3.64042e+07
3.51067e+07
3.37142e+07
3.2269e+07
3.08055e+07
2.9351e+07
2.79263e+07
2.65469e+07
2.52241e+07
2.39653e+07
2.27754e+07
2.16569e+07
2.06108e+07
1.96365e+07
4.3128e+07
4.27768e+07
4.20775e+07
4.10963e+07
3.99029e+07
3.85555e+07
3.71061e+07
3.5598e+07
3.40669e+07
3.2541e+07
3.10419e+07
2.95859e+07
2.81848e+07
2.68468e+07
2.55772e+07
2.43792e+07
2.32539e+07
2.22014e+07
4.59359e+07
4.55817e+07
4.48686e+07
4.38645e+07
4.26401e+07
4.12547e+07
3.97613e+07
3.82046e+07
3.66211e+07
3.50396e+07
3.34827e+07
3.1967e+07
3.05051e+07
2.91055e+07
2.7774e+07
2.6514e+07
2.53272e+07
2.42138e+07
4.80137e+07
4.76579e+07
4.69352e+07
4.5915e+07
4.46682e+07
4.32551e+07
4.17296e+07
4.01372e+07
3.85151e+07
3.68928e+07
3.52932e+07
3.37337e+07
3.22269e+07
3.07819e+07
2.94048e+07
2.80992e+07
2.68671e+07
2.57088e+07
4.94623e+07
4.91056e+07
4.83762e+07
4.73452e+07
4.60831e+07
4.46511e+07
4.31036e+07
4.14867e+07
3.9838e+07
3.81874e+07
3.65583e+07
3.49684e+07
3.34306e+07
3.19541e+07
3.05453e+07
2.92082e+07
2.79446e+07
2.67553e+07
5.03971e+07
5.00394e+07
4.93058e+07
4.82681e+07
4.69962e+07
4.55522e+07
4.39908e+07
4.23583e+07
4.06926e+07
3.9024e+07
3.7376e+07
3.57665e+07
3.42088e+07
3.27121e+07
3.12829e+07
2.99254e+07
2.86418e+07
2.74324e+07
5.0926e+07
5.0568e+07
4.98329e+07
4.8792e+07
4.75148e+07
4.60642e+07
4.4495e+07
4.28535e+07
4.1178e+07
3.9499e+07
3.78401e+07
3.62194e+07
3.46501e+07
3.31418e+07
3.1701e+07
3.03318e+07
2.90367e+07
2.78164e+07
5.11481e+07
5.07916e+07
5.00546e+07
4.90119e+07
4.77322e+07
4.62788e+07
4.47061e+07
4.30608e+07
4.13811e+07
3.96976e+07
3.8034e+07
3.64085e+07
3.48343e+07
3.3321e+07
3.18752e+07
3.05011e+07
2.92013e+07
2.79765e+07
6.04786e+07
6.04196e+07
6.02889e+07
6.00832e+07
5.98005e+07
5.94402e+07
5.90023e+07
5.84876e+07
5.78972e+07
5.72325e+07
5.64954e+07
5.56881e+07
5.48127e+07
5.3872e+07
5.28686e+07
5.18055e+07
5.0686e+07
4.95134e+07
4.82916e+07
4.70244e+07
4.57157e+07
4.43696e+07
4.29904e+07
4.15823e+07
4.015e+07
3.86979e+07
3.72304e+07
3.57522e+07
3.42675e+07
3.27811e+07
3.12974e+07
2.98211e+07
2.83568e+07
2.69091e+07
2.54825e+07
2.40816e+07
2.2711e+07
2.13756e+07
2.00799e+07
1.88289e+07
1.76272e+07
1.64799e+07
1.53919e+07
1.43683e+07
1.34142e+07
1.25349e+07
1.17357e+07
1.1022e+07
1.03991e+07
9.87267e+06
9.44801e+06
9.1306e+06
8.92585e+06
8.83903e+06
8.87523e+06
9.03928e+06
9.33574e+06
9.76885e+06
1.03425e+07
1.10599e+07
1.19238e+07
1.29364e+07
1.40991e+07
1.54126e+07
1.68769e+07
1.84912e+07
2.02538e+07
2.21623e+07
2.42135e+07
2.64036e+07
2.8728e+07
3.11813e+07
3.37578e+07
3.6451e+07
3.9254e+07
4.21595e+07
4.51601e+07
4.8248e+07
5.14153e+07
5.46541e+07
5.79562e+07
6.13135e+07
6.47175e+07
6.81599e+07
7.16318e+07
7.51244e+07
7.86286e+07
8.21348e+07
8.56331e+07
8.9113e+07
9.25636e+07
9.59735e+07
9.93305e+07
1.02622e+08
1.05836e+08
1.08959e+08
1.1198e+08
1.14885e+08
1.17663e+08
1.20304e+08
1.22799e+08
1.25139e+08
1.27317e+08
1.29327e+08
1.31167e+08
1.32833e+08
1.34327e+08
1.3565e+08
1.36807e+08
1.37807e+08
1.3866e+08
1.39376e+08
1.3997e+08
1.40455e+08
1.40848e+08
1.41167e+08
1.41431e+08
1.41662e+08
1.41883e+08
1.42122e+08
1.42407e+08
1.42772e+08
1.43253e+08
1.43891e+08
1.44729e+08
1.45815e+08
1.47201e+08
1.48944e+08
1.51106e+08
1.53747e+08
1.56932e+08
1.60723e+08
1.65181e+08
1.70364e+08
1.76324e+08
1.83107e+08
1.90749e+08
1.99277e+08
2.08705e+08
2.19036e+08
2.30264e+08
2.42367e+08
2.55317e+08
2.69071e+08
2.83588e+08
2.98804e+08
3.1467e+08
3.31116e+08
3.48077e+08
3.65479e+08
3.83247e+08
4.01299e+08
4.19542e+08
4.37885e+08
4.56205e+08
4.74362e+08
4.92193e+08
5.09528e+08
5.26135e+08
5.41778e+08
5.5616e+08
5.6898e+08
5.79899e+08
5.88593e+08
5.94729e+08
5.98008e+08
5.98172e+08
5.9504e+08
5.88485e+08
5.78534e+08
5.65267e+08
5.48951e+08
5.29905e+08
5.08622e+08
4.85576e+08
4.61292e+08
4.36138e+08
4.10548e+08
3.84734e+08
3.5902e+08
5.9404e+07
5.93483e+07
5.92232e+07
5.90234e+07
5.87472e+07
5.83945e+07
5.79659e+07
5.74626e+07
5.68857e+07
5.62366e+07
5.55171e+07
5.47292e+07
5.3875e+07
5.29569e+07
5.19776e+07
5.09396e+07
4.98462e+07
4.87007e+07
4.75065e+07
4.62673e+07
4.49872e+07
4.36699e+07
4.23197e+07
4.09409e+07
3.95378e+07
3.81147e+07
3.66762e+07
3.52264e+07
3.37697e+07
3.23105e+07
3.08535e+07
2.9403e+07
2.79636e+07
2.65399e+07
2.51364e+07
2.37575e+07
2.24079e+07
2.10921e+07
1.98148e+07
1.85808e+07
1.73949e+07
1.62621e+07
1.51871e+07
1.41751e+07
1.32312e+07
1.23607e+07
1.15688e+07
1.0861e+07
1.02425e+07
9.71906e+06
9.29594e+06
8.97862e+06
8.77248e+06
8.68277e+06
8.7146e+06
8.87286e+06
9.16211e+06
9.58658e+06
1.01501e+07
1.08559e+07
1.17067e+07
1.27047e+07
1.38513e+07
1.51472e+07
1.65923e+07
1.81859e+07
1.99262e+07
2.18108e+07
2.38366e+07
2.59998e+07
2.82957e+07
3.07191e+07
3.32641e+07
3.59243e+07
3.86929e+07
4.15626e+07
4.45262e+07
4.75758e+07
5.07036e+07
5.39016e+07
5.71618e+07
6.04759e+07
6.38359e+07
6.72331e+07
7.06591e+07
7.41049e+07
7.75614e+07
8.10193e+07
8.44686e+07
8.7899e+07
9.12997e+07
9.46594e+07
9.79661e+07
1.01208e+08
1.04372e+08
1.07446e+08
1.10417e+08
1.13275e+08
1.16007e+08
1.18604e+08
1.21055e+08
1.23355e+08
1.25494e+08
1.27469e+08
1.29276e+08
1.30913e+08
1.32379e+08
1.33677e+08
1.34813e+08
1.35794e+08
1.36631e+08
1.37334e+08
1.37916e+08
1.38391e+08
1.38776e+08
1.39088e+08
1.39345e+08
1.39568e+08
1.39782e+08
1.40011e+08
1.40285e+08
1.40636e+08
1.411e+08
1.41717e+08
1.42528e+08
1.43581e+08
1.44928e+08
1.46625e+08
1.48731e+08
1.51308e+08
1.54419e+08
1.58125e+08
1.62487e+08
1.6756e+08
1.73398e+08
1.80044e+08
1.87536e+08
1.959e+08
2.0515e+08
2.1529e+08
2.26313e+08
2.38198e+08
2.50918e+08
2.64433e+08
2.787e+08
2.93657e+08
3.09254e+08
3.2543e+08
3.42115e+08
3.59237e+08
3.76724e+08
3.94494e+08
4.12461e+08
4.30532e+08
4.48586e+08
4.66487e+08
4.84074e+08
5.01183e+08
5.17585e+08
5.33048e+08
5.47285e+08
5.59999e+08
5.70855e+08
5.79534e+08
5.85709e+08
5.89092e+08
5.89423e+08
5.86527e+08
5.80273e+08
5.70673e+08
5.57801e+08
5.41913e+08
5.23314e+08
5.02486e+08
4.79889e+08
4.56036e+08
4.31291e+08
4.06083e+08
3.80621e+08
3.55146e+08
5.73393e+07
5.72862e+07
5.71667e+07
5.69752e+07
5.67106e+07
5.63733e+07
5.59644e+07
5.54848e+07
5.49356e+07
5.4318e+07
5.36334e+07
5.28835e+07
5.20703e+07
5.11957e+07
5.02621e+07
4.92721e+07
4.82283e+07
4.7134e+07
4.59923e+07
4.48067e+07
4.3581e+07
4.2319e+07
4.10246e+07
3.97018e+07
3.83548e+07
3.69874e+07
3.56038e+07
3.42081e+07
3.28046e+07
3.13977e+07
2.99916e+07
2.85908e+07
2.71996e+07
2.58223e+07
2.44634e+07
2.31271e+07
2.18178e+07
2.05401e+07
1.92985e+07
1.80977e+07
1.69425e+07
1.58377e+07
1.47881e+07
1.37987e+07
1.28747e+07
1.20213e+07
1.12438e+07
1.05475e+07
9.93784e+06
9.42023e+06
9.00014e+06
8.68299e+06
8.47419e+06
8.37898e+06
8.40245e+06
8.54951e+06
8.82468e+06
9.23222e+06
9.77592e+06
1.0459e+07
1.12843e+07
1.22537e+07
1.33688e+07
1.46301e+07
1.60375e+07
1.75903e+07
1.92868e+07
2.11245e+07
2.31004e+07
2.52106e+07
2.74505e+07
2.9815e+07
3.22982e+07
3.48937e+07
3.75949e+07
4.03947e+07
4.32857e+07
4.62604e+07
4.9311e+07
5.24297e+07
5.56084e+07
5.8839e+07
6.21134e+07
6.54233e+07
6.87601e+07
7.21152e+07
7.54796e+07
7.88438e+07
8.21984e+07
8.5533e+07
8.88371e+07
9.20994e+07
9.53087e+07
9.84529e+07
1.0152e+08
1.04497e+08
1.07374e+08
1.10138e+08
1.1278e+08
1.15289e+08
1.17657e+08
1.19876e+08
1.2194e+08
1.23845e+08
1.25587e+08
1.27165e+08
1.28577e+08
1.29828e+08
1.30922e+08
1.31867e+08
1.32673e+08
1.33349e+08
1.33909e+08
1.34366e+08
1.34735e+08
1.35031e+08
1.35274e+08
1.35483e+08
1.35681e+08
1.35891e+08
1.36143e+08
1.36466e+08
1.36894e+08
1.37466e+08
1.38224e+08
1.39212e+08
1.4048e+08
1.42083e+08
1.44079e+08
1.46527e+08
1.49489e+08
1.53026e+08
1.57195e+08
1.62052e+08
1.67647e+08
1.74024e+08
1.81217e+08
1.89256e+08
1.98154e+08
2.07914e+08
2.1853e+08
2.29983e+08
2.42249e+08
2.55292e+08
2.69063e+08
2.83509e+08
2.98574e+08
3.14209e+08
3.30344e+08
3.4691e+08
3.63833e+08
3.81044e+08
3.98455e+08
4.15975e+08
4.33488e+08
4.50868e+08
4.67954e+08
4.84587e+08
5.00552e+08
5.15619e+08
5.29523e+08
5.41972e+08
5.52646e+08
5.61241e+08
5.67439e+08
5.70968e+08
5.71579e+08
5.69097e+08
5.6339e+08
5.54444e+08
5.42333e+08
5.27282e+08
5.09576e+08
4.89668e+08
4.67989e+08
4.45016e+08
4.21123e+08
3.96708e+08
3.71999e+08
3.47165e+08
5.44464e+07
5.43971e+07
5.4285e+07
5.41058e+07
5.3859e+07
5.35455e+07
5.31661e+07
5.27213e+07
5.22119e+07
5.16388e+07
5.10031e+07
5.03061e+07
4.95494e+07
4.87345e+07
4.78637e+07
4.69391e+07
4.59635e+07
4.49395e+07
4.38702e+07
4.27588e+07
4.16088e+07
4.04236e+07
3.92068e+07
3.7962e+07
3.66927e+07
3.54026e+07
3.40954e+07
3.27752e+07
3.14461e+07
3.01121e+07
2.87775e+07
2.74462e+07
2.61224e+07
2.481e+07
2.35133e+07
2.22364e+07
2.09835e+07
1.97591e+07
1.85675e+07
1.74133e+07
1.63011e+07
1.52356e+07
1.42216e+07
1.32642e+07
1.23683e+07
1.15391e+07
1.07818e+07
1.01018e+07
9.50445e+06
8.9952e+06
8.57945e+06
8.26263e+06
8.05012e+06
7.94714e+06
7.95875e+06
8.08985e+06
8.34503e+06
8.72847e+06
9.24392e+06
9.89463e+06
1.06833e+07
1.16119e+07
1.26819e+07
1.38938e+07
1.52477e+07
1.67424e+07
1.83765e+07
2.01476e+07
2.20525e+07
2.40876e+07
2.62483e+07
2.85293e+07
3.09252e+07
3.34296e+07
3.6036e+07
3.87373e+07
4.15266e+07
4.43963e+07
4.73389e+07
5.03466e+07
5.34116e+07
5.65258e+07
5.96813e+07
6.28697e+07
6.60828e+07
6.93118e+07
7.25483e+07
7.57828e+07
7.90059e+07
8.22077e+07
8.53777e+07
8.8505e+07
9.15785e+07
9.45868e+07
9.75183e+07
1.00361e+08
1.03105e+08
1.05739e+08
1.08253e+08
1.10639e+08
1.12888e+08
1.14994e+08
1.16952e+08
1.18757e+08
1.20406e+08
1.21898e+08
1.23234e+08
1.24417e+08
1.25452e+08
1.26345e+08
1.27105e+08
1.27743e+08
1.28271e+08
1.287e+08
1.29044e+08
1.29318e+08
1.29539e+08
1.29725e+08
1.29899e+08
1.30082e+08
1.303e+08
1.30582e+08
1.30958e+08
1.31467e+08
1.32146e+08
1.3304e+08
1.34198e+08
1.35669e+08
1.37508e+08
1.39775e+08
1.42527e+08
1.45825e+08
1.49722e+08
1.54275e+08
1.59528e+08
1.65526e+08
1.72302e+08
1.79885e+08
1.8829e+08
1.9752e+08
2.07568e+08
2.1842e+08
2.30054e+08
2.42437e+08
2.55521e+08
2.69256e+08
2.83587e+08
2.98473e+08
3.13849e+08
3.29648e+08
3.45797e+08
3.62236e+08
3.78879e+08
3.95638e+08
4.12403e+08
4.29055e+08
4.45442e+08
4.61408e+08
4.76754e+08
4.91258e+08
5.04674e+08
5.16722e+08
5.27107e+08
5.35543e+08
5.41728e+08
5.45406e+08
5.46337e+08
5.44355e+08
5.39327e+08
5.31225e+08
5.2011e+08
5.06172e+08
4.89672e+08
4.71022e+08
4.50609e+08
4.28874e+08
4.06177e+08
3.82894e+08
3.59264e+08
3.35436e+08
5.09255e+07
5.08816e+07
5.07797e+07
5.06167e+07
5.03931e+07
5.01093e+07
4.97657e+07
4.93625e+07
4.89004e+07
4.83801e+07
4.78021e+07
4.71675e+07
4.64776e+07
4.57338e+07
4.49379e+07
4.40919e+07
4.3198e+07
4.22588e+07
4.12768e+07
4.0255e+07
3.91963e+07
3.81038e+07
3.69806e+07
3.58296e+07
3.4654e+07
3.34573e+07
3.2243e+07
3.10148e+07
2.97765e+07
2.85318e+07
2.72844e+07
2.6038e+07
2.47965e+07
2.35634e+07
2.23427e+07
2.11384e+07
1.99546e+07
1.87954e+07
1.76649e+07
1.65678e+07
1.55083e+07
1.4491e+07
1.35208e+07
1.26025e+07
1.1741e+07
1.09414e+07
1.02089e+07
9.54889e+06
8.96662e+06
8.46754e+06
8.05703e+06
7.7405e+06
7.52331e+06
7.41066e+06
7.4076e+06
7.51897e+06
7.7493e+06
8.10274e+06
8.583e+06
9.19332e+06
9.93636e+06
1.08141e+07
1.1828e+07
1.29784e+07
1.42654e+07
1.5688e+07
1.72445e+07
1.89327e+07
2.07496e+07
2.26913e+07
2.47536e+07
2.69313e+07
2.9219e+07
3.16105e+07
3.40994e+07
3.66791e+07
3.93424e+07
4.20824e+07
4.48915e+07
4.77623e+07
5.06869e+07
5.36576e+07
5.66666e+07
5.97058e+07
6.27669e+07
6.58414e+07
6.89209e+07
7.19965e+07
7.50587e+07
7.80978e+07
8.11039e+07
8.40665e+07
8.69748e+07
8.98177e+07
9.25842e+07
9.52637e+07
9.78459e+07
1.00321e+08
1.0268e+08
1.04915e+08
1.07018e+08
1.08986e+08
1.10813e+08
1.12494e+08
1.14029e+08
1.15416e+08
1.16657e+08
1.17756e+08
1.18715e+08
1.19542e+08
1.20245e+08
1.20834e+08
1.21319e+08
1.21711e+08
1.22022e+08
1.22266e+08
1.22459e+08
1.22616e+08
1.22757e+08
1.22904e+08
1.23078e+08
1.23308e+08
1.2362e+08
1.24051e+08
1.24635e+08
1.25415e+08
1.26435e+08
1.27745e+08
1.29396e+08
1.31442e+08
1.33938e+08
1.36943e+08
1.4051e+08
1.44691e+08
1.4953e+08
1.55068e+08
1.61339e+08
1.68372e+08
1.7618e+08
1.8477e+08
1.94136e+08
2.04264e+08
2.15135e+08
2.26722e+08
2.3898e+08
2.51864e+08
2.65319e+08
2.7931e+08
2.93777e+08
3.08662e+08
3.23891e+08
3.39406e+08
3.55132e+08
3.7098e+08
3.86845e+08
4.02619e+08
4.18159e+08
4.33316e+08
4.47907e+08
4.61722e+08
4.74525e+08
4.86064e+08
4.96071e+08
5.04274e+08
5.10395e+08
5.14194e+08
5.15444e+08
5.13991e+08
5.0971e+08
5.02557e+08
4.92576e+08
4.7992e+08
4.64829e+08
4.47662e+08
4.28758e+08
4.08524e+08
3.87286e+08
3.65396e+08
3.43102e+08
3.20565e+08
4.69996e+07
4.69625e+07
4.68731e+07
4.67294e+07
4.65319e+07
4.62807e+07
4.59762e+07
4.56185e+07
4.52079e+07
4.47446e+07
4.42292e+07
4.36625e+07
4.30455e+07
4.23794e+07
4.16656e+07
4.09058e+07
4.0102e+07
3.9256e+07
3.83703e+07
3.74473e+07
3.64895e+07
3.54994e+07
3.44794e+07
3.34322e+07
3.23606e+07
3.12678e+07
3.01569e+07
2.90313e+07
2.78943e+07
2.67491e+07
2.55991e+07
2.44476e+07
2.32979e+07
2.21536e+07
2.10182e+07
1.98954e+07
1.87891e+07
1.77032e+07
1.66417e+07
1.56088e+07
1.46087e+07
1.36459e+07
1.2725e+07
1.18507e+07
1.1028e+07
1.02617e+07
9.55715e+06
8.91951e+06
8.35414e+06
7.86639e+06
7.46163e+06
7.14525e+06
6.92256e+06
6.79876e+06
6.77883e+06
6.86755e+06
7.06942e+06
7.38855e+06
7.82858e+06
8.3927e+06
9.0835e+06
9.90297e+06
1.08524e+07
1.19325e+07
1.31429e+07
1.44829e+07
1.59507e+07
1.7544e+07
1.926e+07
2.1095e+07
2.30448e+07
2.51043e+07
2.72682e+07
2.95307e+07
3.18855e+07
3.43262e+07
3.68459e+07
3.94378e+07
4.20946e+07
4.48091e+07
4.75736e+07
5.03807e+07
5.32227e+07
5.60917e+07
5.89797e+07
6.18785e+07
6.47796e+07
6.76745e+07
7.05539e+07
7.34085e+07
7.62288e+07
7.90048e+07
8.17263e+07
8.43826e+07
8.69634e+07
8.9459e+07
9.18599e+07
9.41571e+07
9.63424e+07
9.84083e+07
1.00349e+08
1.0216e+08
1.03838e+08
1.05381e+08
1.06786e+08
1.08054e+08
1.09188e+08
1.10189e+08
1.11062e+08
1.11813e+08
1.12449e+08
1.12979e+08
1.13412e+08
1.13759e+08
1.14029e+08
1.14235e+08
1.14392e+08
1.14513e+08
1.14614e+08
1.14716e+08
1.14839e+08
1.15007e+08
1.15247e+08
1.15589e+08
1.16069e+08
1.1672e+08
1.17587e+08
1.18715e+08
1.20153e+08
1.21953e+08
1.24163e+08
1.26842e+08
1.3004e+08
1.33805e+08
1.38181e+08
1.43207e+08
1.48917e+08
1.55338e+08
1.62485e+08
1.70364e+08
1.78974e+08
1.88304e+08
1.98333e+08
2.09041e+08
2.2039e+08
2.32339e+08
2.44836e+08
2.57845e+08
2.71318e+08
2.85199e+08
2.99421e+08
3.13925e+08
3.28642e+08
3.43485e+08
3.58359e+08
3.73161e+08
3.87763e+08
4.02017e+08
4.15758e+08
4.28794e+08
4.40897e+08
4.5184e+08
4.61387e+08
4.69286e+08
4.75283e+08
4.79149e+08
4.80682e+08
4.79746e+08
4.76213e+08
4.70031e+08
4.61226e+08
4.49925e+08
4.36337e+08
4.2077e+08
4.03517e+08
3.84945e+08
3.65338e+08
3.45021e+08
3.24245e+08
3.03199e+08
4.28933e+07
4.28637e+07
4.27879e+07
4.26645e+07
4.2494e+07
4.22766e+07
4.20123e+07
4.17011e+07
4.1343e+07
4.0938e+07
4.04867e+07
3.99896e+07
3.94476e+07
3.88614e+07
3.82323e+07
3.75615e+07
3.68506e+07
3.61013e+07
3.53153e+07
3.44947e+07
3.36412e+07
3.27569e+07
3.18439e+07
3.09045e+07
2.99412e+07
2.89566e+07
2.79537e+07
2.69353e+07
2.5904e+07
2.48628e+07
2.38147e+07
2.27625e+07
2.17093e+07
2.06582e+07
1.96125e+07
1.85757e+07
1.75512e+07
1.65426e+07
1.55538e+07
1.45887e+07
1.36514e+07
1.27461e+07
1.18773e+07
1.10496e+07
1.02677e+07
9.53673e+06
8.86163e+06
8.24763e+06
7.7e+06
7.2241e+06
6.82525e+06
6.50877e+06
6.27994e+06
6.14392e+06
6.10566e+06
6.16989e+06
6.34106e+06
6.62319e+06
7.01989e+06
7.53426e+06
8.16884e+06
8.92556e+06
9.80569e+06
1.08098e+07
1.19377e+07
1.31886e+07
1.45608e+07
1.60519e+07
1.76592e+07
1.9379e+07
2.12072e+07
2.31391e+07
2.51695e+07
2.72926e+07
2.95026e+07
3.17931e+07
3.41577e+07
3.65895e+07
3.90818e+07
4.16272e+07
4.42187e+07
4.6849e+07
4.95105e+07
5.21956e+07
5.48967e+07
5.76056e+07
6.03141e+07
6.3014e+07
6.56963e+07
6.83521e+07
7.09724e+07
7.35475e+07
7.60681e+07
7.85241e+07
8.09062e+07
8.32052e+07
8.54127e+07
8.75206e+07
8.95213e+07
9.14086e+07
9.3177e+07
9.48231e+07
9.63439e+07
9.77384e+07
9.90062e+07
1.00148e+08
1.01165e+08
1.02061e+08
1.0284e+08
1.03507e+08
1.04068e+08
1.04532e+08
1.04907e+08
1.052e+08
1.05422e+08
1.05585e+08
1.05698e+08
1.05777e+08
1.05833e+08
1.05885e+08
1.05951e+08
1.06052e+08
1.06213e+08
1.06462e+08
1.06828e+08
1.07345e+08
1.0805e+08
1.08987e+08
1.102e+08
1.11738e+08
1.1365e+08
1.15986e+08
1.18795e+08
1.22124e+08
1.26013e+08
1.30502e+08
1.35624e+08
1.41404e+08
1.4786e+08
1.54998e+08
1.62819e+08
1.71317e+08
1.80473e+08
1.90271e+08
2.00678e+08
2.11657e+08
2.23164e+08
2.35164e+08
2.47611e+08
2.60455e+08
2.73634e+08
2.87094e+08
3.00765e+08
3.14565e+08
3.28408e+08
3.42197e+08
3.55812e+08
3.69113e+08
3.81946e+08
3.94139e+08
4.05481e+08
4.15765e+08
4.24779e+08
4.32301e+08
4.38104e+08
4.41969e+08
4.43722e+08
4.43243e+08
4.40405e+08
4.3515e+08
4.27487e+08
4.17531e+08
4.05451e+08
3.91511e+08
3.75957e+08
3.59113e+08
3.41219e+08
3.22574e+08
3.03422e+08
2.83985e+08
3.88196e+07
3.87976e+07
3.8735e+07
3.86318e+07
3.8488e+07
3.83037e+07
3.80786e+07
3.78126e+07
3.75056e+07
3.71578e+07
3.67693e+07
3.63405e+07
3.58719e+07
3.53642e+07
3.48181e+07
3.42346e+07
3.36149e+07
3.29603e+07
3.2272e+07
3.15516e+07
3.08004e+07
3.00202e+07
2.92125e+07
2.83795e+07
2.75231e+07
2.66458e+07
2.57497e+07
2.48373e+07
2.39108e+07
2.29729e+07
2.20258e+07
2.10723e+07
2.0115e+07
1.91568e+07
1.82006e+07
1.72494e+07
1.63064e+07
1.53751e+07
1.44589e+07
1.35615e+07
1.26868e+07
1.1839e+07
1.10222e+07
1.02411e+07
9.5002e+06
8.80441e+06
8.15873e+06
7.5683e+06
7.03833e+06
6.5741e+06
6.18091e+06
5.86402e+06
5.62865e+06
5.47991e+06
5.42272e+06
5.46177e+06
5.6014e+06
5.8456e+06
6.19788e+06
6.66129e+06
7.2383e+06
7.93073e+06
8.73984e+06
9.66615e+06
1.07095e+07
1.18689e+07
1.31428e+07
1.45289e+07
1.60244e+07
1.76257e+07
1.93289e+07
2.11295e+07
2.30222e+07
2.50017e+07
2.70622e+07
2.91976e+07
3.14017e+07
3.3668e+07
3.59899e+07
3.83604e+07
4.07727e+07
4.32197e+07
4.56942e+07
4.81887e+07
5.06957e+07
5.32076e+07
5.57163e+07
5.82139e+07
6.0692e+07
6.31419e+07
6.55551e+07
6.79227e+07
7.02356e+07
7.24852e+07
7.46626e+07
7.67597e+07
7.87687e+07
8.06827e+07
8.24948e+07
8.41998e+07
8.5793e+07
8.72712e+07
8.86324e+07
8.98763e+07
9.10036e+07
9.2015e+07
9.29125e+07
9.36993e+07
9.43796e+07
9.4958e+07
9.54403e+07
9.58331e+07
9.61427e+07
9.63774e+07
9.65464e+07
9.66589e+07
9.67247e+07
9.67551e+07
9.67623e+07
9.67601e+07
9.67649e+07
9.67969e+07
9.68764e+07
9.70281e+07
9.72794e+07
9.76597e+07
9.82025e+07
9.89471e+07
9.99353e+07
1.01212e+08
1.02824e+08
1.04817e+08
1.07236e+08
1.10126e+08
1.13528e+08
1.17479e+08
1.22012e+08
1.27152e+08
1.32917e+08
1.39317e+08
1.46355e+08
1.54025e+08
1.62315e+08
1.71211e+08
1.80685e+08
1.90705e+08
2.01233e+08
2.12238e+08
2.23674e+08
2.35494e+08
2.47642e+08
2.60066e+08
2.72697e+08
2.85462e+08
2.98277e+08
3.1105e+08
3.23667e+08
3.35996e+08
3.47899e+08
3.59218e+08
3.69758e+08
3.79336e+08
3.87759e+08
3.94836e+08
4.00366e+08
4.0415e+08
4.0604e+08
4.05923e+08
4.03684e+08
3.99261e+08
3.92653e+08
3.83961e+08
3.7332e+08
3.60958e+08
3.47071e+08
3.31942e+08
3.15769e+08
2.98822e+08
2.81333e+08
2.63554e+08
3.49656e+07
3.49503e+07
3.49001e+07
3.48155e+07
3.46966e+07
3.45431e+07
3.43547e+07
3.41312e+07
3.38723e+07
3.3578e+07
3.32484e+07
3.28836e+07
3.24838e+07
3.20495e+07
3.15812e+07
3.10796e+07
3.05454e+07
2.99795e+07
2.93829e+07
2.87565e+07
2.81016e+07
2.74193e+07
2.6711e+07
2.59783e+07
2.52229e+07
2.44466e+07
2.36514e+07
2.28391e+07
2.20118e+07
2.11713e+07
2.03199e+07
1.94599e+07
1.85935e+07
1.77234e+07
1.68519e+07
1.5982e+07
1.51165e+07
1.42584e+07
1.34111e+07
1.2578e+07
1.17629e+07
1.09697e+07
1.02024e+07
9.46552e+06
8.76352e+06
8.1012e+06
7.48344e+06
6.91532e+06
6.40195e+06
5.94858e+06
5.56043e+06
5.2427e+06
5.00059e+06
4.83916e+06
4.76326e+06
4.77751e+06
4.88621e+06
5.09325e+06
5.40205e+06
5.81555e+06
6.33614e+06
6.96561e+06
7.7051e+06
8.55504e+06
9.51522e+06
1.05847e+07
1.17619e+07
1.30445e+07
1.44297e+07
1.5914e+07
1.74936e+07
1.9164e+07
2.09204e+07
2.27574e+07
2.46694e+07
2.66507e+07
2.86951e+07
3.07964e+07
3.29481e+07
3.51439e+07
3.7377e+07
3.96405e+07
4.19275e+07
4.42309e+07
4.65433e+07
4.88573e+07
5.11655e+07
5.346e+07
5.57329e+07
5.79762e+07
6.01818e+07
6.23413e+07
6.44466e+07
6.64897e+07
6.84627e+07
7.03583e+07
7.21695e+07
7.38902e+07
7.55147e+07
7.70385e+07
7.84577e+07
7.97695e+07
8.09731e+07
8.20683e+07
8.30562e+07
8.3938e+07
8.47157e+07
8.53926e+07
8.59726e+07
8.64602e+07
8.68606e+07
8.7179e+07
8.74208e+07
8.7593e+07
8.7704e+07
8.77622e+07
8.77757e+07
8.77541e+07
8.7708e+07
8.76491e+07
8.75918e+07
8.75533e+07
8.75513e+07
8.76071e+07
8.77454e+07
8.79928e+07
8.83792e+07
8.89402e+07
8.97136e+07
9.07406e+07
9.20635e+07
9.37253e+07
9.57688e+07
9.82366e+07
1.01169e+08
1.04602e+08
1.08567e+08
1.1309e+08
1.18191e+08
1.23881e+08
1.30165e+08
1.37043e+08
1.44504e+08
1.52538e+08
1.61121e+08
1.70227e+08
1.79821e+08
1.89878e+08
2.00352e+08
2.11194e+08
2.22355e+08
2.33784e+08
2.45418e+08
2.57185e+08
2.69004e+08
2.80786e+08
2.92423e+08
3.0379e+08
3.14764e+08
3.25197e+08
3.34917e+08
3.43758e+08
3.51547e+08
3.58116e+08
3.63297e+08
3.6691e+08
3.68835e+08
3.68968e+08
3.67204e+08
3.63484e+08
3.57809e+08
3.50254e+08
3.40933e+08
3.30039e+08
3.17732e+08
3.04242e+08
2.89738e+08
2.74454e+08
2.58611e+08
2.42483e+08
3.14827e+07
3.14731e+07
3.14335e+07
3.13654e+07
3.12687e+07
3.11429e+07
3.09876e+07
3.08023e+07
3.05868e+07
3.03409e+07
3.00644e+07
2.97573e+07
2.94197e+07
2.90516e+07
2.86535e+07
2.82255e+07
2.77683e+07
2.72822e+07
2.6768e+07
2.62263e+07
2.5658e+07
2.5064e+07
2.44453e+07
2.38031e+07
2.31388e+07
2.24538e+07
2.17496e+07
2.10277e+07
2.02897e+07
1.95373e+07
1.87724e+07
1.79969e+07
1.72127e+07
1.6422e+07
1.56271e+07
1.48306e+07
1.4035e+07
1.32432e+07
1.24581e+07
1.16832e+07
1.09219e+07
1.01781e+07
9.45557e+06
8.75865e+06
8.09178e+06
7.45962e+06
6.86699e+06
6.31887e+06
5.8203e+06
5.37643e+06
4.99243e+06
4.67347e+06
4.42467e+06
4.25107e+06
4.15746e+06
4.14837e+06
4.22801e+06
4.40017e+06
4.66819e+06
5.03487e+06
5.5025e+06
6.07278e+06
6.74674e+06
7.52476e+06
8.40654e+06
9.39108e+06
1.04767e+07
1.16613e+07
1.29417e+07
1.43147e+07
1.57765e+07
1.73227e+07
1.89486e+07
2.06491e+07
2.24186e+07
2.42516e+07
2.61421e+07
2.80842e+07
3.00715e+07
3.20978e+07
3.41569e+07
3.62421e+07
3.83467e+07
4.04637e+07
4.25862e+07
4.47072e+07
4.68194e+07
4.89155e+07
5.09881e+07
5.30294e+07
5.50321e+07
5.69885e+07
5.88912e+07
6.07329e+07
6.25066e+07
6.42056e+07
6.5824e+07
6.73563e+07
6.87981e+07
7.01456e+07
7.13957e+07
7.25461e+07
7.35965e+07
7.45472e+07
7.53994e+07
7.61545e+07
7.68147e+07
7.73831e+07
7.78632e+07
7.82595e+07
7.85765e+07
7.88183e+07
7.89899e+07
7.90975e+07
7.91479e+07
7.91484e+07
7.91064e+07
7.90298e+07
7.89279e+07
7.88107e+07
7.86911e+07
7.85834e+07
7.85027e+07
7.84676e+07
7.84997e+07
7.86233e+07
7.88652e+07
7.92571e+07
7.98326e+07
8.06286e+07
8.1684e+07
8.30393e+07
8.47344e+07
8.68098e+07
8.93044e+07
9.22537e+07
9.56885e+07
9.9635e+07
1.04115e+08
1.09143e+08
1.14726e+08
1.20866e+08
1.27557e+08
1.34791e+08
1.42549e+08
1.50807e+08
1.59538e+08
1.68714e+08
1.78295e+08
1.88232e+08
1.98474e+08
2.08975e+08
2.19676e+08
2.30502e+08
2.41378e+08
2.52213e+08
2.62906e+08
2.7334e+08
2.83403e+08
2.92956e+08
3.01852e+08
3.09937e+08
3.17057e+08
3.23067e+08
3.27829e+08
3.31182e+08
3.33033e+08
3.33292e+08
3.31869e+08
3.28713e+08
3.23821e+08
3.17251e+08
3.09102e+08
2.99531e+08
2.88669e+08
2.767e+08
2.63767e+08
2.50068e+08
2.35809e+08
2.21276e+08
2.8481e+07
2.84755e+07
2.84446e+07
2.83904e+07
2.83126e+07
2.82106e+07
2.80838e+07
2.79318e+07
2.77541e+07
2.75503e+07
2.73201e+07
2.70632e+07
2.67795e+07
2.6469e+07
2.61317e+07
2.57676e+07
2.53769e+07
2.496e+07
2.45171e+07
2.40486e+07
2.35552e+07
2.30373e+07
2.24959e+07
2.19317e+07
2.13459e+07
2.07396e+07
2.01137e+07
1.94696e+07
1.88086e+07
1.8132e+07
1.74415e+07
1.67385e+07
1.60249e+07
1.53025e+07
1.45734e+07
1.38399e+07
1.31043e+07
1.23693e+07
1.16378e+07
1.09128e+07
1.01978e+07
9.49632e+06
8.8122e+06
8.14956e+06
7.51276e+06
6.90638e+06
6.33516e+06
5.80398e+06
5.31781e+06
4.88174e+06
4.50089e+06
4.18038e+06
3.92527e+06
3.74051e+06
3.63083e+06
3.60067e+06
3.65415e+06
3.79498e+06
4.02636e+06
4.35097e+06
4.77098e+06
5.28795e+06
5.90279e+06
6.61577e+06
7.42647e+06
8.33381e+06
9.33608e+06
1.0431e+07
1.16156e+07
1.28865e+07
1.42398e+07
1.56714e+07
1.71766e+07
1.87503e+07
2.03872e+07
2.20818e+07
2.38284e+07
2.5621e+07
2.74536e+07
2.93203e+07
3.12149e+07
3.31311e+07
3.50624e+07
3.70023e+07
3.89441e+07
4.0881e+07
4.28061e+07
4.47126e+07
4.65936e+07
4.84419e+07
5.02506e+07
5.20127e+07
5.37215e+07
5.53704e+07
5.69531e+07
5.8464e+07
5.98977e+07
6.125e+07
6.25172e+07
6.3696e+07
6.47842e+07
6.57802e+07
6.66839e+07
6.74957e+07
6.82172e+07
6.885e+07
6.93959e+07
6.98582e+07
7.02402e+07