/*--------------------------------*- C++ -*----------------------------------*\
| =========                 |                                                 |
| \\      /  F ield         | OpenFOAM: The Open Source CFD Toolbox           |
|  \\    /   O peration     | Version:  dev                                   |
|   \\  /    A nd           | Web:      http://www.openfoam.org               |
|    \\/     M anipulation  |                                                 |
\*---------------------------------------------------------------------------*/
FoamFile
{
    version     2.0;
    format      ascii;
    class       volScalarField;
    object      rho_0;
    location    "9.15";
}
// * * * * * * * * * * * * * * * * * * * * * * * * * * * * * * * * * * * * * //

dimensions      [1 -3 0 0 0 0 0];

internalField   nonuniform List<scalar> 
12225
(
1.13164
1.13212
1.13225
1.13168
1.13108
1.12995
1.12873
1.12757
1.12584
1.12491
1.12255
1.12248
1.11943
1.12039
1.11676
1.11798
1.11686
1.1153
1.13139
1.13392
1.13533
1.13581
1.13577
1.13583
1.1345
1.13469
1.13179
1.13284
1.12774
1.13121
1.12393
1.12948
1.12212
1.12662
1.12106
1.11946
1.13133
1.13413
1.13542
1.13667
1.13629
1.13752
1.13593
1.13746
1.13436
1.1367
1.13194
1.13543
1.12891
1.1329
1.12708
1.13039
1.12428
1.12412
1.13158
1.13439
1.13509
1.13651
1.13625
1.13689
1.13622
1.13646
1.13548
1.13463
1.13421
1.13421
1.13122
1.13086
1.12906
1.12864
1.12692
1.12475
1.13193
1.13436
1.13536
1.1359
1.13675
1.13603
1.1364
1.13546
1.13533
1.13288
1.13384
1.13379
1.13098
1.13018
1.12901
1.12889
1.12728
1.12656
1.13279
1.13364
1.13587
1.13529
1.13693
1.13556
1.13719
1.13533
1.13555
1.1332
1.13425
1.13342
1.13114
1.12945
1.12887
1.12873
1.12789
1.12741
1.13353
1.13271
1.13631
1.13519
1.13706
1.1354
1.13691
1.13494
1.13608
1.13443
1.13444
1.13265
1.1314
1.13018
1.12876
1.12907
1.12912
1.12804
1.13389
1.13273
1.13666
1.13525
1.13763
1.13528
1.13695
1.13492
1.1365
1.13432
1.13444
1.1324
1.13163
1.13082
1.12937
1.12968
1.12926
1.12795
1.13392
1.13276
1.13709
1.13512
1.13801
1.13527
1.13743
1.1353
1.13649
1.13398
1.13398
1.13252
1.13186
1.131
1.13046
1.13019
1.1293
1.12751
1.13378
1.13334
1.13758
1.13527
1.13783
1.13548
1.13796
1.13524
1.13617
1.1341
1.1337
1.13235
1.132
1.13108
1.1307
1.1297
1.12917
1.12734
1.13362
1.13386
1.13723
1.13563
1.13781
1.13577
1.13756
1.13577
1.136
1.13349
1.13427
1.13233
1.13141
1.13124
1.1296
1.12964
1.12791
1.12709
1.1336
1.1348
1.13721
1.13631
1.13766
1.13635
1.1371
1.13561
1.13544
1.134
1.13292
1.13166
1.13091
1.13016
1.12928
1.12781
1.12727
1.12562
1.13354
1.13569
1.1372
1.13708
1.13729
1.13663
1.13661
1.13541
1.1348
1.13367
1.13246
1.13111
1.13017
1.12915
1.12802
1.12719
1.12557
1.12471
1.13384
1.13661
1.13743
1.13745
1.1373
1.13696
1.13631
1.13546
1.13439
1.13313
1.1316
1.13052
1.12936
1.12827
1.1269
1.12571
1.12474
1.12376
1.13466
1.13768
1.13817
1.13808
1.13767
1.1372
1.13634
1.13539
1.13404
1.13278
1.13131
1.13016
1.12871
1.12743
1.12616
1.12499
1.12376
1.12254
1.13562
1.1388
1.13919
1.13895
1.13852
1.13779
1.13678
1.13564
1.13416
1.13283
1.13139
1.13001
1.12856
1.12732
1.12584
1.12453
1.12323
1.12191
1.13667
1.14022
1.14055
1.14025
1.13983
1.13897
1.13788
1.13659
1.13529
1.13389
1.1323
1.13092
1.12972
1.12837
1.12696
1.12559
1.12426
1.12309
1.13818
1.1423
1.14266
1.14227
1.14172
1.14082
1.13973
1.13858
1.13758
1.13603
1.13443
1.13336
1.1324
1.13114
1.12997
1.12859
1.12735
1.1264
1.13972
1.1444
1.14478
1.14449
1.14412
1.14332
1.14225
1.14125
1.14062
1.13916
1.13749
1.13676
1.1363
1.13539
1.1345
1.13311
1.13196
1.13121
1.14057
1.14601
1.14664
1.14648
1.14631
1.14565
1.14466
1.14394
1.14379
1.14257
1.14084
1.1405
1.14038
1.13963
1.13927
1.13808
1.13719
1.13661
1.14132
1.1474
1.14825
1.14841
1.14856
1.14792
1.14694
1.14657
1.14664
1.14572
1.14427
1.1441
1.1439
1.14367
1.14396
1.14304
1.14272
1.14219
1.14197
1.14844
1.14941
1.14987
1.1502
1.14979
1.14925
1.14895
1.14892
1.1486
1.14784
1.14761
1.14737
1.14728
1.14758
1.14733
1.14755
1.14719
1.14248
1.14934
1.1505
1.1508
1.15112
1.15137
1.15113
1.15056
1.15052
1.15074
1.15052
1.15031
1.15046
1.15022
1.15065
1.15066
1.15089
1.15126
1.14302
1.15022
1.15153
1.15183
1.15207
1.15217
1.15219
1.15216
1.15209
1.15219
1.15241
1.15258
1.15295
1.15297
1.15319
1.15339
1.1537
1.15412
1.14324
1.15065
1.152
1.15266
1.15315
1.15318
1.15328
1.15343
1.15336
1.15342
1.15368
1.15388
1.15414
1.1544
1.15476
1.15507
1.1555
1.15591
1.143
1.15086
1.1524
1.15307
1.15367
1.15405
1.15419
1.15422
1.15429
1.15435
1.15442
1.15455
1.15488
1.15529
1.15587
1.15643
1.15704
1.15757
1.14336
1.1509
1.15238
1.1532
1.15379
1.15408
1.15427
1.15442
1.15462
1.15484
1.15519
1.15561
1.15617
1.15679
1.15745
1.15811
1.15874
1.15932
1.14344
1.15098
1.15249
1.15334
1.15403
1.15446
1.15479
1.1551
1.15551
1.156
1.15661
1.15724
1.15796
1.15858
1.15921
1.15967
1.16013
1.16046
1.14365
1.15126
1.15277
1.15355
1.1542
1.15474
1.15523
1.15573
1.15623
1.1567
1.15708
1.15734
1.15751
1.15757
1.15759
1.15748
1.15749
1.15726
1.14165
1.14801
1.14908
1.14961
1.14999
1.15014
1.1501
1.14992
1.14967
1.14937
1.14905
1.14872
1.14841
1.14812
1.14788
1.14769
1.14755
1.1475
1.13166
1.14731
1.14097
1.13703
1.13584
1.13504
1.13416
1.13399
1.13255
1.1319
1.13063
1.12993
1.12918
1.12871
1.12828
1.12786
1.12766
1.12777
1.12824
1.12895
1.1296
1.13004
1.1304
1.13075
1.13119
1.13165
1.13226
1.13279
1.133
1.13277
1.13219
1.13219
1.13395
1.13559
1.13564
1.13582
1.13587
1.13562
1.13589
1.1358
1.13539
1.13501
1.13421
1.13208
1.132
1.12909
1.1218
1.12184
1.12608
1.12865
1.12996
1.13134
1.13237
1.13008
1.12674
1.1257
1.1292
1.13445
1.13852
1.14096
1.14533
1.15111
1.15392
1.15631
1.15776
1.15854
1.15867
1.15801
1.15783
1.15884
1.15766
1.15994
1.16096
1.15421
1.15518
1.16299
1.16958
1.17255
1.16793
1.15784
1.1508
1.15297
1.1614
1.16988
1.17477
1.17721
1.17926
1.1812
1.1829
1.18417
1.18496
1.18508
1.18484
1.18434
1.18398
1.1838
1.18341
1.18245
1.18091
1.17951
1.17893
1.17855
1.17704
1.17783
1.17558
1.17322
1.17474
1.17098
1.16974
1.1658
1.16579
1.16626
1.16628
1.16672
1.1659
1.16379
1.1595
1.15485
1.15372
1.1545
1.15427
1.15367
1.1528
1.15148
1.15216
1.1545
1.15539
1.1561
1.15419
1.15157
1.14914
1.14715
1.14414
1.14042
1.13818
1.14035
1.1398
1.14066
1.12841
1.12503
1.12187
1.11532
1.11077
1.10344
1.09862
1.09521
1.08915
1.08949
1.08928
1.09266
1.0999
1.1063
1.09517
1.08479
1.08214
1.07127
1.09845
1.10617
1.10926
1.08418
1.07915
1.08311
1.09371
1.11412
1.13441
1.16088
1.15462
1.14406
1.12613
1.11729
1.08457
1.06772
1.05857
1.05171
1.05479
1.05258
1.0673
1.11005
1.08166
1.05166
1.13519
1.14546
1.13435
1.13197
1.12759
1.12857
1.12833
1.12818
1.12747
1.12678
1.1264
1.12707
1.12825
1.12914
1.12969
1.13055
1.13186
1.13349
1.1357
1.13785
1.13944
1.14035
1.14081
1.14094
1.14117
1.14148
1.14236
1.14317
1.14329
1.1428
1.14261
1.14374
1.14597
1.14753
1.14822
1.14885
1.149
1.14979
1.15094
1.15037
1.15156
1.1521
1.15042
1.15067
1.15018
1.1474
1.14681
1.14074
1.13895
1.14351
1.12511
1.12121
1.14234
1.15012
1.14579
1.14008
1.13963
1.14563
1.15314
1.15581
1.16127
1.16995
1.17057
1.17293
1.17204
1.17233
1.17265
1.16962
1.17212
1.17944
1.17616
1.17193
1.17252
1.17455
1.17915
1.17801
1.17807
1.18725
1.1926
1.19237
1.1919
1.19398
1.19747
1.19892
1.19916
1.19957
1.20009
1.20076
1.20118
1.20115
1.20011
1.1979
1.19485
1.19206
1.19044
1.19048
1.19061
1.18892
1.18434
1.17986
1.17712
1.18081
1.17233
1.17971
1.17674
1.16917
1.17772
1.16996
1.17421
1.16117
1.1593
1.16419
1.164
1.16925
1.17782
1.19558
1.19692
1.16361
1.13974
1.15539
1.17519
1.17722
1.18746
1.20379
1.19761
1.18812
1.19795
1.21576
1.21875
1.2101
1.20683
1.1982
1.18694
1.18399
1.18221
1.18112
1.1783
1.20894
1.21687
1.20837
1.19904
1.1849
1.18239
1.17606
1.1731
1.16975
1.15685
1.16074
1.168
1.17565
1.1815
1.18593
1.18126
1.17932
1.19634
1.14013
1.18311
1.22882
1.28179
1.24404
1.20736
1.19472
1.23569
1.30458
1.33882
1.33194
1.29849
1.31639
1.32423
1.36003
1.3226
1.28632
1.23903
1.18863
1.18407
1.18904
1.20173
1.27493
1.26624
1.18704
1.13571
1.1484
1.12859
1.12571
1.12497
1.1274
1.12927
1.13032
1.12987
1.12945
1.13106
1.13557
1.1408
1.14361
1.14481
1.14677
1.14862
1.14914
1.14837
1.14574
1.14248
1.13912
1.13612
1.13392
1.13292
1.13261
1.13348
1.1347
1.13654
1.13888
1.14059
1.14107
1.14188
1.14487
1.14766
1.14806
1.14815
1.1502
1.15227
1.1485
1.14749
1.15267
1.14755
1.14933
1.15367
1.14662
1.15758
1.15312
1.1514
1.16318
1.14645
1.15432
1.15416
1.13266
1.13742
1.1471
1.14775
1.15155
1.15625
1.15725
1.16449
1.16888
1.16871
1.1712
1.16471
1.15758
1.15925
1.16495
1.17013
1.17449
1.17935
1.18688
1.18813
1.18382
1.18191
1.1867
1.19024
1.19026
1.18968
1.18835
1.18823
1.18868
1.18838
1.18597
1.18357
1.18119
1.17835
1.17616
1.17444
1.17311
1.17165
1.16966
1.16642
1.16299
1.15977
1.15842
1.15822
1.1585
1.1557
1.15239
1.14695
1.15157
1.13735
1.1438
1.14267
1.13788
1.13917
1.1335
1.1435
1.1345
1.12872
1.1336
1.1299
1.12148
1.105
1.12674
1.1852
1.16768
1.09508
1.08243
1.13206
1.14671
1.13152
1.15426
1.19179
1.18526
1.16619
1.18256
1.22198
1.23728
1.23567
1.21067
1.17222
1.15223
1.14746
1.13005
1.11077
1.14527
1.21999
1.24045
1.2307
1.22172
1.22224
1.21734
1.22122
1.21479
1.19833
1.19246
1.19186
1.18026
1.16621
1.1573
1.16294
1.20914
1.22685
1.16995
1.20758
1.26846
1.33775
1.33719
1.29274
1.25425
1.31165
1.39955
1.37929
1.23629
1.17869
1.19857
1.22113
1.26943
1.32474
1.40054
1.36209
1.27222
1.2657
1.28439
1.24336
1.25667
1.33421
1.27352
1.12976
1.15786
1.14162
1.13049
1.12759
1.1281
1.12935
1.13284
1.13312
1.13245
1.13686
1.14687
1.15269
1.14796
1.14177
1.13852
1.13252
1.12675
1.12288
1.11954
1.11765
1.11675
1.11735
1.1192
1.12223
1.12608
1.13051
1.13455
1.13858
1.14235
1.14632
1.15021
1.1512
1.15039
1.15211
1.15634
1.15734
1.15415
1.15104
1.15034
1.14941
1.14546
1.14184
1.14412
1.14117
1.13626
1.14481
1.14531
1.14335
1.15101
1.15593
1.15626
1.15744
1.16546
1.155
1.14242
1.14822
1.15393
1.15406
1.15528
1.16141
1.16442
1.17234
1.17189
1.1609
1.15564
1.1589
1.16616
1.17274
1.17771
1.18234
1.18495
1.18318
1.18043
1.17931
1.18099
1.18483
1.18782
1.18901
1.18856
1.1889
1.18817
1.18617
1.18382
1.18112
1.17805
1.17511
1.17216
1.17
1.16841
1.16665
1.16455
1.16205
1.15944
1.15635
1.15461
1.15209
1.15356
1.15078
1.15083
1.14839
1.16003
1.14353
1.14326
1.13947
1.13838
1.14119
1.12743
1.13946
1.13749
1.12745
1.13008
1.13932
1.15336
1.12252
1.08036
1.11837
1.17489
1.1467
1.0988
1.12292
1.15399
1.13511
1.11139
1.13945
1.1768
1.15287
1.12485
1.16952
1.22597
1.23452
1.2042
1.16376
1.13204
1.12497
1.09603
1.0624
1.0714
1.16808
1.22966
1.25019
1.2345
1.22029
1.22261
1.23828
1.23204
1.23016
1.22227
1.2077
1.18339
1.17013
1.17218
1.15848
1.22457
1.20106
1.17098
1.21787
1.28607
1.32864
1.3648
1.33617
1.29741
1.36808
1.43452
1.35693
1.20318
1.18336
1.19062
1.14849
1.11036
1.15611
1.36082
1.39885
1.32313
1.32644
1.33442
1.235
1.29752
1.26137
1.28945
1.12201
1.16028
1.15692
1.14553
1.1387
1.12808
1.12421
1.1275
1.13039
1.13814
1.14957
1.14367
1.12669
1.13096
1.13491
1.124
1.12126
1.11965
1.11615
1.11646
1.11776
1.11978
1.12337
1.12743
1.13161
1.13541
1.13863
1.14202
1.14577
1.14963
1.15319
1.15547
1.15665
1.15707
1.15539
1.15481
1.15607
1.1584
1.15761
1.15456
1.15188
1.15077
1.14921
1.14594
1.14358
1.14328
1.14175
1.13941
1.14105
1.13733
1.14532
1.15142
1.14584
1.1608
1.16961
1.15991
1.15088
1.14726
1.14676
1.15547
1.15945
1.16428
1.1713
1.16313
1.15219
1.15624
1.16205
1.17054
1.17903
1.18267
1.18541
1.18617
1.18576
1.18557
1.18638
1.18871
1.19083
1.19038
1.18683
1.1839
1.18138
1.17836
1.17449
1.16992
1.16507
1.15975
1.15523
1.1518
1.14946
1.14753
1.14634
1.1448
1.14317
1.14126
1.13962
1.14055
1.13462
1.13505
1.13165
1.13048
1.13114
1.13424
1.12956
1.12827
1.128
1.1203
1.13065
1.11244
1.12047
1.12897
1.11567
1.11899
1.10366
1.11304
1.14834
1.12129
1.0849
1.11682
1.14881
1.1232
1.11382
1.12844
1.14197
1.13257
1.12465
1.15419
1.16683
1.11788
1.10845
1.18361
1.24552
1.20935
1.14489
1.12795
1.15895
1.17713
1.13245
1.06268
1.10991
1.20373
1.24898
1.24153
1.22248
1.2144
1.20956
1.19299
1.21744
1.23555
1.23824
1.20616
1.19322
1.19212
1.16937
1.23837
1.16905
1.16416
1.2233
1.2958
1.31016
1.36093
1.34831
1.30854
1.38757
1.42512
1.32019
1.22088
1.18821
1.22875
1.21808
1.11244
1.04755
1.26364
1.36937
1.34708
1.36904
1.34931
1.24976
1.26906
1.12361
1.3453
1.11774
1.15937
1.16916
1.16063
1.149
1.12761
1.12802
1.13241
1.13528
1.14568
1.1468
1.14071
1.13686
1.1169
1.11007
1.11527
1.10576
1.10693
1.10933
1.10753
1.11036
1.113
1.11608
1.1199
1.12375
1.12727
1.13073
1.13352
1.13556
1.13826
1.14062
1.14213
1.14372
1.1442
1.14513
1.1465
1.14656
1.1478
1.14959
1.15128
1.15248
1.15295
1.15323
1.15416
1.15542
1.15534
1.15651
1.15475
1.15146
1.14536
1.14886
1.15588
1.15279
1.15062
1.16297
1.17137
1.16926
1.16491
1.15417
1.14946
1.15336
1.16795
1.17082
1.16496
1.15781
1.16154
1.16352
1.16908
1.17607
1.17999
1.18299
1.1842
1.18363
1.18262
1.18144
1.18151
1.18019
1.17761
1.17503
1.17348
1.17094
1.16688
1.16217
1.15736
1.15318
1.15069
1.14967
1.14957
1.14907
1.14724
1.14563
1.14413
1.14461
1.14478
1.14316
1.14883
1.14319
1.14045
1.1386
1.13567
1.13999
1.12766
1.13137
1.12826
1.12929
1.12473
1.13384
1.11761
1.10751
1.12653
1.10225
1.11759
1.13382
1.09993
1.09587
1.12564
1.1162
1.09502
1.1096
1.11644
1.11055
1.09536
1.09865
1.11601
1.11591
1.12869
1.15945
1.1351
1.08763
1.1235
1.20916
1.23825
1.17522
1.11677
1.10415
1.17067
1.24778
1.16275
1.072
1.14291
1.23771
1.25479
1.21996
1.19288
1.19967
1.18152
1.19016
1.19089
1.22016
1.22313
1.22687
1.20906
1.17323
1.24044
1.14007
1.16984
1.2386
1.30538
1.27595
1.34465
1.35332
1.3469
1.4174
1.42634
1.33384
1.27668
1.174
1.13465
1.24198
1.17381
1.03625
1.1838
1.32069
1.35163
1.40102
1.35645
1.27364
1.19133
1.19423
1.3784
1.11475
1.151
1.17223
1.17582
1.15199
1.119
1.12318
1.14408
1.1591
1.13808
1.11212
1.11449
1.11445
1.1101
1.11076
1.11092
1.11444
1.11052
1.11131
1.11573
1.11358
1.11657
1.11867
1.12116
1.12393
1.12669
1.12912
1.12993
1.1306
1.13102
1.13017
1.13081
1.13155
1.13101
1.1308
1.12999
1.13022
1.13158
1.13321
1.13456
1.13582
1.13759
1.13968
1.14243
1.14567
1.14878
1.15402
1.15669
1.15403
1.1596
1.16024
1.16082
1.16667
1.15684
1.15632
1.17054
1.17669
1.17306
1.16762
1.15852
1.15566
1.1606
1.16318
1.16979
1.16012
1.15829
1.16339
1.16661
1.1716
1.17451
1.17522
1.17399
1.17268
1.17134
1.17162
1.17332
1.17588
1.17655
1.1747
1.17036
1.16309
1.15471
1.14696
1.14229
1.14021
1.14095
1.14222
1.14326
1.14399
1.14255
1.14153
1.13943
1.13917
1.14127
1.13733
1.14304
1.14482
1.1428
1.14124
1.13888
1.13747
1.13633
1.13165
1.13212
1.13035
1.12277
1.13171
1.12533
1.10008
1.12359
1.10735
1.07721
1.10217
1.11592
1.08961
1.09489
1.11457
1.09311
1.08126
1.10993
1.10415
1.09013
1.09171
1.101
1.10134
1.10982
1.13022
1.13105
1.09424
1.08817
1.13202
1.19317
1.21151
1.19776
1.09588
1.10344
1.26567
1.25247
1.08388
1.08397
1.20325
1.24564
1.23135
1.22185
1.25148
1.19945
1.22383
1.18244
1.16495
1.20997
1.24285
1.21761
1.17847
1.24088
1.12082
1.175
1.23206
1.32393
1.21376
1.26438
1.33842
1.40119
1.42715
1.31091
1.33251
1.35703
1.21572
1.05392
1.20171
1.19861
1.06534
1.12809
1.26506
1.34563
1.42073
1.37116
1.28896
1.17314
1.24985
1.24228
1.1156
1.152
1.17994
1.1865
1.14966
1.12465
1.1304
1.14099
1.14244
1.12464
1.1149
1.11582
1.11926
1.11652
1.11033
1.10995
1.11019
1.10854
1.10938
1.10816
1.11019
1.10929
1.11054
1.11277
1.11315
1.1163
1.1175
1.11809
1.11943
1.11928
1.11845
1.11828
1.11676
1.11728
1.11828
1.11902
1.11957
1.11928
1.11931
1.11994
1.12
1.12033
1.1212
1.1224
1.1249
1.12958
1.13571
1.14055
1.13841
1.1458
1.15459
1.15989
1.17373
1.17274
1.16728
1.17732
1.18484
1.1805
1.17963
1.17515
1.16312
1.15516
1.15813
1.16748
1.16217
1.15975
1.1609
1.16301
1.16649
1.16787
1.16948
1.16936
1.16995
1.17147
1.17564
1.18051
1.18114
1.17692
1.16862
1.15804
1.14641
1.13885
1.1356
1.13661
1.13915
1.14121
1.14082
1.13838
1.13778
1.13851
1.14055
1.1397
1.1361
1.13569
1.12928
1.13016
1.13784
1.13839
1.13445
1.13195
1.12453
1.13423
1.12884
1.13259
1.13216
1.13092
1.12309
1.14008
1.11682
1.10967
1.11676
1.08947
1.09012
1.09598
1.07647
1.07581
1.11092
1.07914
1.06117
1.11793
1.08509
1.06055
1.09309
1.0933
1.07775
1.08778
1.10297
1.12608
1.10123
1.04231
1.04437
1.10154
1.22028
1.2381
1.06451
1.01512
1.20652
1.28263
1.12338
1.03579
1.11844
1.21255
1.24117
1.2401
1.23516
1.09744
1.1827
1.1759
1.10553
1.16695
1.22339
1.19566
1.1714
1.23327
1.1059
1.18502
1.24402
1.34499
1.20851
1.23771
1.25651
1.31063
1.39966
1.16075
1.21741
1.33003
1.20747
1.0286
1.14177
1.17901
1.08511
1.08755
1.20839
1.33854
1.42601
1.38803
1.30137
1.21412
1.22404
1.14035
1.11514
1.15612
1.18316
1.16836
1.13022
1.1274
1.13623
1.13356
1.12816
1.11659
1.11487
1.11195
1.10716
1.11252
1.10801
1.11054
1.11371
1.11185
1.11348
1.11344
1.11367
1.11295
1.11525
1.11306
1.11567
1.1168
1.11902
1.11973
1.12171
1.12068
1.12116
1.1216
1.12056
1.12051
1.11985
1.12023
1.12137
1.12238
1.12334
1.12437
1.12569
1.12633
1.12704
1.12787
1.12865
1.12877
1.12805
1.1269
1.12725
1.13047
1.14128
1.1418
1.14635
1.15584
1.15778
1.16814
1.18066
1.18416
1.19122
1.18963
1.17716
1.16505
1.16205
1.16978
1.16108
1.15742
1.16294
1.16362
1.16468
1.16599
1.16792
1.16924
1.17188
1.17499
1.17709
1.1749
1.16759
1.15727
1.14578
1.13621
1.13127
1.13131
1.13523
1.13957
1.1416
1.13963
1.13501
1.13147
1.1296
1.12969
1.1313
1.13261
1.13048
1.13003
1.12486
1.12005
1.123
1.12524
1.12187
1.11804
1.11015
1.11321
1.11369
1.12704
1.11468
1.13428
1.10498
1.12772
1.12412
1.10684
1.12682
1.09387
1.08178
1.09504
1.07299
1.05727
1.10324
1.0566
1.04138
1.11919
1.08354
1.04072
1.08059
1.09654
1.07346
1.04493
1.06827
1.1299
1.10311
1.01035
0.99425
1.04617
1.21311
1.21455
1.0473
0.972544
1.12063
1.23526
1.15817
1.02166
1.03223
1.18098
1.25356
1.22469
1.19408
1.04589
1.102
1.13745
1.04434
1.07656
1.14767
1.14901
1.14891
1.22577
1.09669
1.19166
1.25132
1.33529
1.24151
1.28392
1.26631
1.3282
1.46437
1.18618
1.1427
1.23838
1.19692
1.0538
1.11652
1.15991
1.10643
1.05889
1.15905
1.3239
1.42617
1.40712
1.29653
1.26554
1.24841
1.15572
1.11194
1.15036
1.18094
1.15511
1.11885
1.12844
1.14369
1.13002
1.1103
1.11729
1.11166
1.10562
1.11703
1.11727
1.11251
1.1161
1.11542
1.1139
1.10923
1.11058
1.11012
1.11143
1.11275
1.11539
1.11642
1.11743
1.11885
1.11659
1.11596
1.11301
1.11248
1.11116
1.11023
1.11008
1.11044
1.11083
1.11124
1.112
1.11265
1.11334
1.11491
1.11711
1.11994
1.12337
1.12668
1.12944
1.13208
1.13465
1.13824
1.13702
1.13792
1.13377
1.12696
1.13593
1.1388
1.1451
1.16174
1.17242
1.18714
1.19454
1.18339
1.16842
1.16244
1.16733
1.16184
1.15754
1.15954
1.16276
1.16648
1.16706
1.16947
1.17114
1.17345
1.17256
1.16967
1.16206
1.15412
1.14704
1.143
1.13965
1.13846
1.13857
1.14034
1.13947
1.13778
1.1343
1.12774
1.12712
1.13235
1.13585
1.13381
1.13064
1.12786
1.12568
1.1244
1.12467
1.12058
1.12108
1.12292
1.12332
1.11808
1.11223
1.09933
1.12562
1.09656
1.13936
1.10203
1.11337
1.1392
1.09479
1.11587
1.11987
1.07943
1.09831
1.08356
1.04842
1.09414
1.04882
1.035
1.09746
1.08414
1.04553
1.06228
1.10517
1.08204
1.02395
1.05196
1.11566
1.10023
1.03399
1.01593
1.05282
1.19079
1.17402
1.08001
1.04672
1.13107
1.18493
1.14485
1.05129
0.991458
1.11189
1.21926
1.20914
1.19154
1.0843
1.10272
1.12794
1.04032
1.03409
1.10941
1.11488
1.14287
1.22391
1.09332
1.18439
1.23645
1.33054
1.21732
1.25984
1.36112
1.50902
1.54571
1.24849
1.15441
1.19775
1.21311
1.07347
1.11286
1.14999
1.13089
1.04633
1.1274
1.30718
1.43042
1.42294
1.2697
1.30204
1.27784
1.19445
1.10891
1.13785
1.16855
1.15195
1.12602
1.13474
1.13666
1.12796
1.11161
1.11407
1.11623
1.11251
1.11778
1.11647
1.11293
1.10672
1.10607
1.10474
1.09921
1.10455
1.10298
1.10411
1.10318
1.10566
1.10376
1.1088
1.10772
1.10913
1.10476
1.10204
1.10276
1.10456
1.10711
1.10973
1.11167
1.11275
1.11342
1.11372
1.11389
1.11374
1.11256
1.11162
1.11072
1.11019
1.1115
1.11473
1.11845
1.12562
1.13008
1.13498
1.1345
1.13637
1.13059
1.13632
1.13852
1.13678
1.14457
1.14741
1.16185
1.18737
1.192
1.17863
1.16333
1.16576
1.16126
1.15419
1.1594
1.1614
1.16532
1.16743
1.17013
1.17034
1.16894
1.16316
1.15469
1.14734
1.14377
1.1404
1.13574
1.12732
1.12116
1.11792
1.11852
1.11839
1.12014
1.12429
1.12639
1.12575
1.12741
1.1251
1.12635
1.12368
1.12029
1.12038
1.11933
1.11968
1.117
1.11382
1.11377
1.11655
1.12271
1.12336
1.10176
1.13048
1.09608
1.12695
1.11953
1.08514
1.12391
1.10426
1.09173
1.1262
1.07074
1.09121
1.10141
1.04885
1.09023
1.0581
1.04442
1.07159
1.08125
1.0545
1.0382
1.10624
1.08299
1.0201
1.0545
1.09593
1.10193
1.06304
1.04404
1.07336
1.16916
1.12861
1.08714
1.11828
1.1628
1.13681
1.09874
1.08224
1.03004
1.09764
1.20241
1.20322
1.1773
1.07903
1.10744
1.10472
1.04222
1.04975
1.12504
1.10105
1.13007
1.2058
1.07862
1.19535
1.23903
1.32679
1.20178
1.23523
1.4311
1.5805
1.53211
1.27271
1.16924
1.18651
1.22788
1.09553
1.12438
1.13626
1.14077
1.03888
1.1011
1.29309
1.43496
1.4318
1.26225
1.33872
1.32555
1.22564
1.10738
1.13148
1.1541
1.13625
1.12059
1.14859
1.14349
1.10995
1.10017
1.11286
1.11667
1.11052
1.11004
1.10877
1.1062
1.10027
1.10406
1.10349
1.10407
1.11017
1.11095
1.11131
1.10782
1.1081
1.10676
1.10812
1.10985
1.11365
1.11463
1.11751
1.11909
1.12149
1.12258
1.1238
1.12475
1.12543
1.12631
1.12697
1.1276
1.12784
1.12706
1.12562
1.12383
1.12173
1.11922
1.11717
1.1148
1.11768
1.11873
1.12527
1.12702
1.13122
1.13298
1.13897
1.14573
1.14526
1.14846
1.14062
1.1331
1.15708
1.18469
1.19086
1.17109
1.16372
1.163
1.1544
1.15665
1.15988
1.16401
1.16623
1.1676
1.16613
1.16168
1.15371
1.14833
1.14493
1.14383
1.13801
1.12735
1.11918
1.12046
1.12616
1.13113
1.13416
1.13264
1.12916
1.1307
1.12771
1.1234
1.11753
1.11669
1.11898
1.12222
1.12788
1.13498
1.12904
1.12661
1.11842
1.1207
1.11463
1.11266
1.12278
1.10706
1.11845
1.11973
1.10524
1.11338
1.09159
1.10779
1.10497
1.05923
1.11606
1.07478
1.06821
1.09813
1.0481
1.08023
1.06634
1.06681
1.04823
1.08191
1.06512
1.01557
1.1007
1.08609
1.03218
1.05562
1.07637
1.10513
1.06704
1.03904
1.08029
1.15135
1.08809
1.08874
1.13378
1.14185
1.10332
1.07186
1.042
1.05876
1.12316
1.20174
1.19288
1.17744
1.09988
1.10052
1.07668
1.03543
1.06484
1.10968
1.06802
1.11956
1.20323
1.05631
1.20408
1.23096
1.31645
1.20023
1.19813
1.42391
1.49673
1.43546
1.2693
1.14683
1.14824
1.24067
1.10679
1.14803
1.1328
1.15205
1.03815
1.07153
1.28478
1.43248
1.42782
1.2974
1.38342
1.36347
1.24311
1.10622
1.13098
1.1527
1.13907
1.1199
1.13076
1.13629
1.11523
1.10706
1.11161
1.10799
1.10136
1.10417
1.11263
1.10919
1.10196
1.10782
1.10812
1.11229
1.11258
1.11393
1.11268
1.11136
1.11299
1.11209
1.11051
1.11178
1.11173
1.11445
1.11587
1.11652
1.11736
1.11746
1.11779
1.11818
1.11873
1.11958
1.12031
1.12164
1.12494
1.12652
1.12593
1.12508
1.12379
1.12286
1.12122
1.11719
1.11571
1.11384
1.11951
1.12606
1.13251
1.13423
1.13438
1.13758
1.13435
1.13913
1.15036
1.13795
1.13215
1.14966
1.18272
1.18089
1.16605
1.16103
1.15356
1.15385
1.15733
1.16142
1.16381
1.16376
1.1596
1.15317
1.14444
1.14336
1.1432
1.13965
1.12739
1.11826
1.11874
1.12499
1.12919
1.12885
1.12742
1.123
1.12196
1.12428
1.12115
1.11983
1.12207
1.13198
1.13561
1.13698
1.13189
1.13938
1.13497
1.13431
1.11656
1.1139
1.12467
1.11479
1.11494
1.12097
1.10126
1.12027
1.10655
1.11148
1.09752
1.08486
1.11035
1.07101
1.10095
1.07752
1.05509
1.08441
1.05535
1.06906
1.05555
1.08724
1.03377
1.07787
1.0765
1.0142
1.08772
1.08439
1.04713
1.06133
1.06589
1.10616
1.07314
1.04161
1.08851
1.13418
1.06081
1.09184
1.11659
1.09958
1.1086
1.07203
0.95165
1.01195
1.14079
1.20478
1.20032
1.19207
1.10859
1.06152
1.04557
1.05294
1.08582
1.08023
1.06536
1.15299
1.17906
1.04981
1.22314
1.23062
1.31998
1.20251
1.18381
1.39382
1.41042
1.32782
1.23198
1.13907
1.13226
1.25673
1.10135
1.1594
1.12886
1.15992
1.04275
1.04307
1.28426
1.41872
1.41634
1.35137
1.43035
1.389
1.25903
1.1036
1.12281
1.14337
1.13961
1.13414
1.12307
1.11449
1.10347
1.10213
1.11767
1.11974
1.11059
1.1053
1.11022
1.11281
1.10855
1.10774
1.10845
1.11128
1.10813
1.11171
1.10919
1.10965
1.11226
1.11378
1.11552
1.11639
1.11631
1.11653
1.11639
1.11733
1.11805
1.11918
1.12106
1.1236
1.1267
1.12982
1.13158
1.13144
1.1342
1.13792
1.13737
1.13481
1.13052
1.12538
1.1276
1.12858
1.1264
1.11854
1.1167
1.11679
1.12407
1.1326
1.13167
1.13649
1.13783
1.12558
1.13373
1.14837
1.15038
1.13278
1.15138
1.1788
1.17435
1.16637
1.15675
1.15365
1.15609
1.15893
1.16079
1.1607
1.15427
1.14653
1.13834
1.13855
1.13645
1.12889
1.11733
1.11684
1.12533
1.13289
1.12967
1.12345
1.12459
1.12243
1.12151
1.12589
1.12289
1.12604
1.12898
1.14271
1.14357
1.14148
1.13378
1.1329
1.12721
1.12832
1.12719
1.1136
1.12442
1.1228
1.11142
1.12544
1.09673
1.12278
1.09717
1.09195
1.09719
1.08708
1.09954
1.07932
1.08992
1.06818
1.0598
1.07455
1.05559
1.06852
1.04006
1.09234
1.0291
1.07208
1.07999
1.03087
1.08288
1.07868
1.05959
1.07164
1.06125
1.09949
1.0705
1.04155
1.09131
1.1158
1.04426
1.09634
1.10444
1.07265
1.12592
1.09086
0.917206
0.941983
1.12392
1.20437
1.21846
1.20742
1.11905
1.05036
1.04403
1.08848
1.09155
1.10314
1.08582
1.16704
1.19326
1.0547
1.19432
1.22555
1.32638
1.22863
1.21117
1.40172
1.35341
1.24371
1.20343
1.15841
1.11989
1.2576
1.11514
1.17312
1.12785
1.16302
1.05123
1.0224
1.28939
1.40057
1.41804
1.3998
1.45198
1.40651
1.28676
1.10181
1.11343
1.13107
1.12741
1.1305
1.12927
1.11727
1.11239
1.105
1.10486
1.11052
1.10937
1.1084
1.10905
1.10534
1.10566
1.10581
1.10752
1.11179
1.1081
1.10866
1.10856
1.10995
1.11208
1.11352
1.11489
1.11588
1.11713
1.11962
1.12278
1.12568
1.12791
1.12875
1.12931
1.131
1.13328
1.13407
1.13299
1.12831
1.12552
1.13028
1.13344
1.13236
1.1276
1.11799
1.11534
1.11932
1.12414
1.12394
1.12422
1.12486
1.11899
1.12807
1.13488
1.12752
1.13561
1.14329
1.13101
1.12618
1.1534
1.15481
1.13645
1.16098
1.17604
1.17277
1.15934
1.15312
1.15444
1.158
1.15836
1.15773
1.15066
1.14175
1.1349
1.13511
1.12956
1.11965
1.11469
1.11946
1.12693
1.13009
1.12494
1.12135
1.12412
1.12664
1.12295
1.12401
1.12689
1.1312
1.13381
1.14376
1.14071
1.13531
1.13325
1.13236
1.13086
1.12606
1.12021
1.11903
1.12692
1.12473
1.11286
1.12693
1.09716
1.11989
1.09637
1.09631
1.08462
1.07844
1.09259
1.07306
1.0777
1.06083
1.06124
1.061
1.05211
1.07321
1.04025
1.09628
1.03325
1.06499
1.07554
1.04057
1.07794
1.07328
1.06412
1.07657
1.05496
1.09649
1.0729
1.04758
1.09323
1.10092
1.04336
1.09961
1.08517
1.06154
1.13554
1.09058
0.930632
0.921953
1.09678
1.19621
1.23468
1.2278
1.13997
1.05909
1.04678
1.0997
1.09193
1.14726
1.09447
1.14854
1.25423
1.08375
1.21184
1.22434
1.35633
1.25061
1.23242
1.33284
1.26173
1.21639
1.20372
1.18431
1.11227
1.25966
1.13819
1.18633
1.13397
1.16189
1.06358
1.01679
1.29331
1.38562
1.43225
1.41841
1.43855
1.41368
1.31229
1.10107
1.10682
1.12039
1.11992
1.11738
1.12258
1.11575
1.10986
1.11641
1.11668
1.1155
1.11229
1.10953
1.11164
1.10704
1.10696
1.10866
1.107
1.10974
1.11114
1.11091
1.10815
1.10537
1.10547
1.10851
1.11279
1.11666
1.11905
1.12122
1.12376
1.12616
1.12795
1.12776
1.12746
1.12891
1.13013
1.12733
1.12376
1.12169
1.11846
1.12306
1.12956
1.13153
1.12827
1.12072
1.1163
1.11679
1.11482
1.11615
1.1155
1.12453
1.12307
1.11518
1.12974
1.13571
1.12281
1.13093
1.14713
1.1304
1.12231
1.16109
1.14818
1.14467
1.1667
1.1771
1.16638
1.15228
1.1508
1.15723
1.1586
1.15603
1.14793
1.13827
1.13128
1.13176
1.12596
1.11634
1.11727
1.12092
1.12649
1.12567
1.12153
1.12767
1.1307
1.12979
1.12511
1.13037
1.14139
1.14177
1.13769
1.13897
1.13696
1.13556
1.1328
1.12908
1.12968
1.12991
1.11812
1.11343
1.11952
1.11166
1.10646
1.11127
1.09025
1.11553
1.08608
1.07969
1.07979
1.07404
1.08069
1.06867
1.06262
1.05273
1.05693
1.05082
1.05425
1.06929
1.04037
1.09468
1.04104
1.06257
1.0701
1.04899
1.07362
1.06938
1.06643
1.07733
1.05315
1.09265
1.06904
1.05412
1.08919
1.08581
1.0547
1.1037
1.05968
1.05831
1.14383
1.08604
0.94176
0.923368
1.07137
1.18317
1.24777
1.24411
1.16208
1.07693
1.05826
1.09759
1.12119
1.15932
1.15498
1.21073
1.29824
1.11383
1.21193
1.24223
1.37124
1.27057
1.24484
1.23924
1.21381
1.23598
1.19922
1.20729
1.13098
1.26121
1.17966
1.20032
1.14356
1.16084
1.07961
1.03411
1.29703
1.38884
1.44493
1.398
1.40091
1.40951
1.34387
1.10113
1.1041
1.11156
1.11826
1.11791
1.12334
1.12487
1.10928
1.10586
1.11104
1.11425
1.11637
1.1145
1.11555
1.11441
1.11368
1.11529
1.11271
1.11233
1.11509
1.11571
1.11216
1.10857
1.10931
1.11302
1.1162
1.11669
1.11426
1.11424
1.11874
1.12194
1.12263
1.12429
1.12726
1.12901
1.12737
1.12365
1.12054
1.12046
1.12018
1.12358
1.1289
1.12982
1.1299
1.127
1.1218
1.12263
1.12085
1.11986
1.11484
1.11579
1.12309
1.11787
1.11535
1.12711
1.13165
1.12322
1.13338
1.14626
1.11619
1.13909
1.16147
1.14691
1.15039
1.17131
1.1733
1.15778
1.14781
1.15206
1.15846
1.15794
1.14806
1.13627
1.12705
1.12704
1.12382
1.11894
1.11891
1.12102
1.12466
1.12494
1.12466
1.13429
1.13507
1.12836
1.12904
1.14139
1.1512
1.13905
1.13203
1.13354
1.13329
1.13928
1.1383
1.13131
1.13447
1.12934
1.12209
1.11815
1.12127
1.10814
1.09903
1.10243
1.08924
1.09443
1.07963
1.07542
1.07704
1.06766
1.06729
1.06587
1.05586
1.05023
1.05538
1.04956
1.06016
1.06414
1.03993
1.08231
1.04269
1.05835
1.06597
1.05027
1.06949
1.06883
1.06966
1.07394
1.05163
1.09268
1.0723
1.06052
1.08865
1.07836
1.06691
1.10465
1.04008
1.05104
1.1397
1.09838
0.974044
0.935239
1.05021
1.17779
1.25605
1.24212
1.17846
1.10902
1.08447
1.10809
1.15278
1.14861
1.22767
1.27695
1.26562
1.13562
1.22858
1.28285
1.33301
1.27819
1.25837
1.23229
1.2258
1.25136
1.20291
1.24458
1.19096
1.28876
1.24609
1.2216
1.15498
1.1657
1.09998
1.0638
1.31108
1.40871
1.44307
1.35714
1.3634
1.40287
1.37244
1.1016
1.10321
1.1071
1.1133
1.11813
1.12302
1.13365
1.12499
1.10933
1.105
1.10545
1.10878
1.10973
1.11046
1.1108
1.11107
1.11288
1.11256
1.11256
1.11352
1.11155
1.10999
1.11003
1.10888
1.1096
1.11403
1.11771
1.1179
1.11834
1.12005
1.11902
1.11638
1.11691
1.11794
1.11785
1.11737
1.12009
1.1228
1.12269
1.1211
1.12025
1.12248
1.12541
1.12575
1.12879
1.12735
1.12405
1.12313
1.12523
1.12217
1.11906
1.12166
1.12192
1.12022
1.12192
1.12645
1.13063
1.12417
1.14239
1.12832
1.11848
1.15598
1.15974
1.14803
1.16006
1.17348
1.16817
1.1519
1.14897
1.15322
1.15813
1.15248
1.13916
1.12544
1.12233
1.12113
1.12223
1.12022
1.12159
1.12427
1.12602
1.12801
1.13745
1.13819
1.13439
1.1389
1.14707
1.14821
1.13335
1.1303
1.13372
1.13254
1.13877
1.13378
1.13054