/*--------------------------------*- C++ -*----------------------------------*\
| =========                 |                                                 |
| \\      /  F ield         | OpenFOAM: The Open Source CFD Toolbox           |
|  \\    /   O peration     | Version:  dev                                   |
|   \\  /    A nd           | Web:      http://www.openfoam.org               |
|    \\/     M anipulation  |                                                 |
\*---------------------------------------------------------------------------*/
FoamFile
{
    version     2.0;
    format      ascii;
    class       volVectorField;
    object      U;
    location    "9.15";
}
// * * * * * * * * * * * * * * * * * * * * * * * * * * * * * * * * * * * * * //

dimensions      [0 1 -1 0 0 0 0];

internalField   nonuniform List<vector> 
12225
(
(6.95176 0.556561 0)
(4.08795 0.381131 0)
(2.13955 0.236185 0)
(1.63645 0.206487 0)
(0.534778 0.20797 0)
(0.950849 0.171899 0)
(-0.355278 0.238509 0)
(0.516664 0.113032 0)
(-1.15528 0.276034 0)
(0.22212 0.0429616 0)
(-1.87613 0.33694 0)
(-0.0133959 -0.0235738 0)
(-2.48033 0.333285 0)
(0.259552 -0.104618 0)
(-2.19909 0.174106 0)
(1.74526 -0.340326 0)
(6.046 0.422343 0)
(3.5495 6.20635 0)
(9.72689 1.58808 0)
(8.90432 1.50326 0)
(6.19183 1.11156 0)
(6.13008 0.873959 0)
(3.20989 0.772529 0)
(4.6943 0.705287 0)
(1.02697 0.728957 0)
(3.96262 0.570399 0)
(-0.988772 0.820698 0)
(3.70086 0.441282 0)
(-2.84642 0.838892 0)
(3.92624 0.291113 0)
(-4.05089 0.812204 0)
(4.41131 -0.223433 0)
(-4.26212 0.651659 0)
(4.23012 -2.15606 0)
(-1.97328 -0.60467 0)
(0.644582 0.434648 0)
(9.82246 1.84021 0)
(11.3452 2.10424 0)
(8.14323 1.79497 0)
(10.2031 1.56614 0)
(5.61697 1.40875 0)
(9.11018 1.42162 0)
(3.10059 1.22603 0)
(8.50373 1.31418 0)
(0.853882 1.16823 0)
(8.15764 1.09815 0)
(-0.140394 1.22069 0)
(7.31605 0.540143 0)
(0.232511 1.26511 0)
(5.44799 0.0867601 0)
(0.250815 1.17825 0)
(2.19282 -0.902514 0)
(0.690991 1.79229 0)
(-2.65208 2.26434 0)
(8.05973 2.11234 0)
(12.9096 2.68918 0)
(8.00781 2.35387 0)
(12.6311 2.21029 0)
(6.78692 2.06166 0)
(11.9191 2.09201 0)
(5.49783 1.91572 0)
(11.1503 1.87994 0)
(4.86513 1.9347 0)
(9.60495 1.30328 0)
(4.64653 2.15877 0)
(7.9087 0.525333 0)
(4.2781 2.31752 0)
(6.41913 -0.0289714 0)
(3.71344 2.61271 0)
(4.99713 -1.26319 0)
(3.01999 2.40493 0)
(-1.93935 1.44268 0)
(7.82092 2.69273 0)
(12.3256 2.94786 0)
(8.93628 3.02314 0)
(11.7743 2.64602 0)
(8.53323 2.7668 0)
(10.8869 2.41597 0)
(8.03737 2.71825 0)
(9.91455 2.021 0)
(7.9357 2.93732 0)
(8.51547 1.55529 0)
(7.48995 2.98686 0)
(7.50979 1.15967 0)
(6.30768 3.16444 0)
(6.88068 0.738064 0)
(5.15454 3.49933 0)
(5.89704 0.596165 0)
(3.05977 4.36934 0)
(1.42028 0.479316 0)
(9.22234 3.21895 0)
(10.2586 3.12263 0)
(9.70334 3.66898 0)
(10.0107 3.06105 0)
(9.40738 3.63502 0)
(9.10402 2.8677 0)
(8.57501 3.60348 0)
(8.25699 2.31356 0)
(8.14357 3.83931 0)
(7.75345 1.82722 0)
(7.53073 3.89075 0)
(7.40363 1.7032 0)
(6.70924 3.70601 0)
(7.17601 1.27478 0)
(5.41346 3.70713 0)
(6.0134 1.4845 0)
(3.87328 4.56829 0)
(3.75436 2.36168 0)
(10.2999 3.99438 0)
(9.20972 3.63714 0)
(10.0968 4.59361 0)
(9.01307 3.44017 0)
(9.73414 4.55689 0)
(8.70686 3.28768 0)
(9.20109 4.60088 0)
(8.02176 2.66438 0)
(8.17289 4.79616 0)
(7.49736 2.26142 0)
(7.28607 4.57226 0)
(7.28739 2.27098 0)
(7.29362 4.02093 0)
(6.799 2.20695 0)
(6.01778 4.2734 0)
(5.58496 2.50709 0)
(4.67811 4.60388 0)
(4.60306 3.76891 0)
(10.3748 4.44926 0)
(9.35389 4.14052 0)
(10.282 5.22934 0)
(9.23607 3.94572 0)
(9.76303 5.1634 0)
(8.99494 3.76341 0)
(9.2523 5.28285 0)
(8.41689 3.39536 0)
(8.18036 5.33955 0)
(7.90297 2.98779 0)
(7.37099 4.90055 0)
(7.70113 2.68534 0)
(7.12045 4.43112 0)
(6.76894 2.97894 0)
(6.08067 4.83379 0)
(5.96709 3.54544 0)
(4.92631 4.98672 0)
(5.40645 4.34255 0)
(10.5001 4.88159 0)
(9.59981 4.5645 0)
(10.2725 5.91542 0)
(9.25337 4.39541 0)
(9.5613 5.81248 0)
(8.7421 4.21014 0)
(9.02234 5.92634 0)
(8.2907 3.94823 0)
(8.42017 5.80869 0)
(8.0365 3.60575 0)
(7.73843 5.18357 0)
(7.59313 3.44195 0)
(7.0198 4.889 0)
(6.56675 3.72825 0)
(6.01902 5.16855 0)
(6.14314 4.27022 0)
(5.51487 5.04514 0)
(5.82547 4.67595 0)
(10.3073 5.43587 0)
(9.58201 5.26467 0)
(10.0605 6.59225 0)
(9.44316 5.19586 0)
(9.54828 6.38083 0)
(8.87494 4.97759 0)
(8.97654 6.34579 0)
(8.4349 4.72948 0)
(8.42037 6.10555 0)
(8.11131 4.42761 0)
(7.66266 5.55535 0)
(7.35906 4.20332 0)
(6.86839 5.37279 0)
(6.53863 4.59922 0)
(6.08113 5.47452 0)
(6.14764 4.87438 0)
(5.78396 5.39639 0)
(5.83506 5.20781 0)
(10.3203 6.11335 0)
(9.89954 5.95148 0)
(10.1162 7.09172 0)
(9.51891 5.89592 0)
(9.44355 6.95437 0)
(8.88043 5.81373 0)
(8.79084 6.86543 0)
(8.35099 5.60993 0)
(8.12138 6.55397 0)
(7.84931 5.3769 0)
(7.41543 6.11423 0)
(7.1087 5.22273 0)
(6.65825 5.8148 0)
(6.48785 5.37536 0)
(6.23932 5.85548 0)
(6.14323 5.55425 0)
(5.94552 5.70582 0)
(5.91622 5.64262 0)
(10.5462 6.66085 0)
(9.89957 6.9534 0)
(9.70822 7.80929 0)
(9.1693 6.93059 0)
(9.02698 7.57343 0)
(8.63535 6.78283 0)
(8.4895 7.37319 0)
(8.19784 6.6038 0)
(7.9453 7.00524 0)
(7.70735 6.31494 0)
(7.36766 6.56995 0)
(7.05165 6.10541 0)
(6.70538 6.28879 0)
(6.45016 6.17454 0)
(6.24419 6.2815 0)
(6.05367 6.1599 0)
(5.89719 6.17 0)
(5.89 6.05095 0)
(9.9997 7.34243 0)
(9.6278 8.07242 0)
(9.40732 8.46664 0)
(9.07931 7.93064 0)
(8.85054 8.21704 0)
(8.51727 7.77846 0)
(8.28437 7.97467 0)
(7.97653 7.56448 0)
(7.68739 7.65229 0)
(7.36334 7.31515 0)
(7.01373 7.26954 0)
(6.67023 7.08046 0)
(6.353 7.02677 0)
(6.05187 6.91139 0)
(5.89098 6.86141 0)
(5.75591 6.74731 0)
(5.61524 6.62983 0)
(5.59459 6.50866 0)
(10.2083 8.26526 0)
(9.88147 9.18814 0)
(9.50924 9.20364 0)
(9.13419 8.92048 0)
(8.75934 8.96362 0)
(8.40892 8.75249 0)
(8.10289 8.76286 0)
(7.80091 8.53852 0)
(7.4942 8.43787 0)
(7.19529 8.22052 0)
(6.90014 8.05492 0)
(6.59564 7.85541 0)
(6.3238 7.70273 0)
(6.077 7.58411 0)
(5.86431 7.43029 0)
(5.67826 7.26062 0)
(5.525 7.13339 0)
(5.45827 6.96754 0)
(9.89991 8.98308 0)
(9.69031 10.1864 0)
(9.36886 10.1249 0)
(8.99125 9.96449 0)
(8.55525 9.87472 0)
(8.15487 9.70094 0)
(7.78553 9.56083 0)
(7.4804 9.35466 0)
(7.18897 9.17585 0)
(6.90881 8.97974 0)
(6.61135 8.79137 0)
(6.32452 8.60202 0)
(6.02862 8.41558 0)
(5.74671 8.2216 0)
(5.50528 8.04168 0)
(5.29049 7.85877 0)
(5.0828 7.6365 0)
(5.00743 7.4135 0)
(9.68216 9.52257 0)
(9.35277 10.9093 0)
(9.05295 10.8241 0)
(8.78455 10.7581 0)
(8.47566 10.6781 0)
(8.1501 10.5237 0)
(7.81455 10.3282 0)
(7.51171 10.0941 0)
(7.18424 9.87338 0)
(6.85534 9.6693 0)
(6.48257 9.47287 0)
(6.12678 9.26522 0)
(5.76761 9.05321 0)
(5.44818 8.82311 0)
(5.13469 8.56911 0)
(4.87508 8.29676 0)
(4.61118 8.02237 0)
(4.43605 7.76102 0)
(9.90473 10.1868 0)
(9.34191 11.5435 0)
(8.91979 11.291 0)
(8.58489 11.203 0)
(8.26814 11.1025 0)
(7.97243 10.9588 0)
(7.65381 10.7771 0)
(7.33927 10.5891 0)
(6.97712 10.4106 0)
(6.60721 10.2252 0)
(6.20652 10.0405 0)
(5.81595 9.81877 0)
(5.43398 9.56035 0)
(5.09262 9.29516 0)
(4.75438 9.00504 0)
(4.45103 8.69832 0)
(4.14847 8.39668 0)
(3.91675 8.08431 0)
(9.67075 10.3582 0)
(9.26017 11.6439 0)
(8.86456 11.3844 0)
(8.45806 11.2953 0)
(8.04804 11.1781 0)
(7.65978 11.0088 0)
(7.2531 10.8211 0)
(6.86949 10.6381 0)
(6.48125 10.4568 0)
(6.11413 10.2958 0)
(5.72977 10.1289 0)
(5.34509 9.89733 0)
(4.97579 9.61729 0)
(4.62257 9.32049 0)
(4.27353 9.00433 0)
(3.95125 8.6928 0)
(3.62334 8.37443 0)
(3.35094 8.065 0)
(9.78683 9.77653 0)
(9.26117 11.1319 0)
(8.75861 11.0344 0)
(8.3015 11.0136 0)
(7.89045 10.9138 0)
(7.49815 10.7382 0)
(7.0619 10.5269 0)
(6.62243 10.3047 0)
(6.18155 10.0692 0)
(5.76147 9.88321 0)
(5.35031 9.71505 0)
(4.94645 9.47599 0)
(4.55534 9.1946 0)
(4.17053 8.91047 0)
(3.78181 8.61509 0)
(3.40601 8.34113 0)
(3.02306 8.06139 0)
(2.70124 7.78191 0)
(9.70205 9.29361 0)
(9.00031 10.5153 0)
(8.53167 10.3162 0)
(8.12353 10.1637 0)
(7.76794 10.0079 0)
(7.41742 9.86229 0)
(7.01891 9.72108 0)
(6.57706 9.56381 0)
(6.09883 9.36446 0)
(5.62654 9.17972 0)
(5.15348 9.01683 0)
(4.69426 8.80124 0)
(4.24324 8.54701 0)
(3.78907 8.28631 0)
(3.34715 8.01891 0)
(2.92554 7.77767 0)
(2.50978 7.51926 0)
(2.17076 7.25283 0)
(9.66226 8.43072 0)
(9.04421 9.47817 0)
(8.61076 9.25695 0)
(8.1704 9.11553 0)
(7.74 8.97217 0)
(7.32245 8.83056 0)
(6.86127 8.71818 0)
(6.40356 8.60627 0)
(5.94232 8.44047 0)
(5.44995 8.26462 0)
(4.94921 8.10589 0)
(4.48292 7.90369 0)
(4.0109 7.68312 0)
(3.5441 7.4636 0)
(3.12351 7.21744 0)
(2.69118 6.97812 0)
(2.2906 6.72225 0)
(1.966 6.46602 0)
(9.67909 7.4134 0)
(9.10275 8.33369 0)
(8.61721 8.10759 0)
(8.11792 7.93807 0)
(7.64079 7.78137 0)
(7.17797 7.66121 0)
(6.70723 7.56072 0)
(6.26433 7.4431 0)
(5.82725 7.33868 0)
(5.35975 7.22189 0)
(4.86168 7.07972 0)
(4.39975 6.89989 0)
(3.92129 6.71194 0)
(3.47147 6.51914 0)
(3.05665 6.28405 0)
(2.63212 6.06418 0)
(2.25684 5.81063 0)
(1.91176 5.56348 0)
(9.58095 6.18769 0)
(9.03573 7.11907 0)
(8.70298 6.94484 0)
(8.32261 6.76692 0)
(7.89494 6.59885 0)
(7.40525 6.47206 0)
(6.87524 6.34865 0)
(6.33331 6.23681 0)
(5.81127 6.15025 0)
(5.30639 6.06851 0)
(4.82584 5.94299 0)
(4.35621 5.80376 0)
(3.8803 5.63005 0)
(3.41978 5.44726 0)
(2.97602 5.26235 0)
(2.5519 5.07056 0)
(2.14088 4.87191 0)
(1.78128 4.68463 0)
(9.39297 5.16896 0)
(8.98297 5.73926 0)
(8.75743 5.53822 0)
(8.54293 5.43312 0)
(8.24399 5.38069 0)
(7.81924 5.3177 0)
(7.28489 5.25304 0)
(6.6773 5.18448 0)
(6.05209 5.09124 0)
(5.43768 4.99164 0)
(4.84672 4.88365 0)
(4.29943 4.76383 0)
(3.7812 4.6381 0)
(3.29795 4.49184 0)
(2.83968 4.31913 0)
(2.41797 4.14813 0)
(2.00444 3.97881 0)
(1.62169 3.81284 0)
(9.4142 4.13443 0)
(8.91069 4.45506 0)
(8.61736 4.26465 0)
(8.33689 4.17926 0)
(7.95672 4.14763 0)
(7.48202 4.15439 0)
(6.9543 4.17442 0)
(6.41977 4.16646 0)
(5.88707 4.12217 0)
(5.34886 4.04826 0)
(4.81217 3.94197 0)
(4.33718 3.80872 0)
(3.87092 3.6512 0)
(3.4384 3.49513 0)
(3.0202 3.34984 0)
(2.60815 3.21334 0)
(2.19462 3.08431 0)
(1.796 2.96863 0)
(9.83953 3.29646 0)
(9.29665 3.31612 0)
(8.96583 3.10405 0)
(8.56967 3.07535 0)
(8.06348 3.09131 0)
(7.51229 3.12737 0)
(6.93696 3.1341 0)
(6.39178 3.12861 0)
(5.8916 3.08771 0)
(5.41229 3.01354 0)
(4.93683 2.92455 0)
(4.46583 2.81606 0)
(3.96957 2.68574 0)
(3.47011 2.57573 0)
(2.94578 2.47178 0)
(2.453 2.37676 0)
(1.94869 2.29943 0)
(1.48147 2.22845 0)
(9.65027 2.15292 0)
(9.51589 2.22237 0)
(9.33383 2.10137 0)
(8.93262 2.0997 0)
(8.37657 2.11964 0)
(7.79195 2.16742 0)
(7.17669 2.19501 0)
(6.5527 2.19689 0)
(5.91595 2.15553 0)
(5.27849 2.0994 0)
(4.64711 2.03553 0)
(4.02202 1.96008 0)
(3.3917 1.88668 0)
(2.74612 1.82106 0)
(2.10182 1.75867 0)
(1.4751 1.69263 0)
(0.866154 1.63444 0)
(0.290215 1.5864 0)
(9.49511 1.37268 0)
(9.53179 1.20073 0)
(9.37621 1.18921 0)
(8.75998 1.22924 0)
(7.86467 1.28468 0)
(6.96026 1.35711 0)
(6.06053 1.41447 0)
(5.21992 1.43987 0)
(4.38682 1.42435 0)
(3.56324 1.38969 0)
(2.74505 1.35112 0)
(1.93102 1.3121 0)
(1.1242 1.26598 0)
(0.325657 1.23523 0)
(-0.434664 1.20232 0)
(-1.16496 1.16887 0)
(-1.84431 1.13587 0)
(-2.484 1.10078 0)
(9.39572 0.135652 0)
(8.80753 0.0148953 0)
(7.78321 0.28274 0)
(6.40591 0.505146 0)
(5.00683 0.678267 0)
(3.76779 0.788141 0)
(2.65276 0.852182 0)
(1.67079 0.872263 0)
(0.735035 0.864811 0)
(-0.151009 0.848679 0)
(-1.02064 0.831211 0)
(-1.86355 0.810422 0)
(-2.67078 0.7921 0)
(-3.43891 0.768013 0)
(-4.16846 0.74078 0)
(-4.8614 0.718009 0)
(-5.50022 0.684217 0)
(-6.10561 0.658445 0)
(8.29055 -0.104652 0)
(5.03071 -0.0423882 0)
(2.67978 0.214354 0)
(1.02689 0.332789 0)
(-0.126762 0.360879 0)
(-1.00488 0.357234 0)
(-1.7654 0.346482 0)
(-2.45945 0.329829 0)
(-3.13522 0.31747 0)
(-3.79651 0.30568 0)
(-4.46711 0.294326 0)
(-5.12873 0.28525 0)
(-5.77614 0.275007 0)
(-6.40554 0.264698 0)
(-7.01543 0.255937 0)
(-7.60436 0.246681 0)
(-8.15874 0.230976 0)
(-8.70899 0.234319 0)
(-0.113648 0.0422184 0)
(-0.414577 0.105427 0)
(-0.69248 0.0881573 0)
(-0.920287 0.0280136 0)
(-1.06763 -0.0376815 0)
(-1.15146 -0.102911 0)
(-1.1996 -0.118642 1.13492e-17)
(-1.24331 -0.144077 -1.12695e-17)
(-1.26977 -0.156181 0)
(-1.28695 -0.173444 -1.11289e-17)
(-1.27538 -0.192249 0)
(-1.24162 -0.206379 0)
(-1.17922 -0.217983 0)
(-1.11597 -0.218637 1.08468e-17)
(-1.05937 -0.212159 0)
(-0.9987 -0.216731 0)
(-0.923114 -0.224758 -1.06293e-17)
(-0.834614 -0.235691 0)
(-0.723008 -0.239923 0)
(-0.588488 -0.239578 0)
(-0.442711 -0.236267 1.03192e-17)
(-0.285994 -0.231315 0)
(-0.122722 -0.244987 1.01707e-17)
(0.06272 -0.26642 0)
(0.285387 -0.282673 0)
(0.535834 -0.291731 9.95332e-18)
(0.803642 -0.293585 0)
(1.09305 -0.301211 -9.80932e-18)
(1.39691 -0.314242 0)
(1.73079 -0.320758 9.67794e-18)
(2.08585 -0.311346 0)
(2.44181 -0.300184 0)
(2.80957 -0.294579 0)
(3.19502 -0.285542 0)
(3.58023 -0.292131 0)
(3.97605 -0.244033 -9.2721e-18)
(4.3405 -0.207846 0)
(4.69294 -0.185741 1.83021e-17)
(5.01346 -0.108216 0)
(5.28868 -0.0609908 -1.80573e-17)
(5.52563 0.0394019 0)
(5.63651 0.0962594 0)
(5.75158 0.190579 1.7727e-17)
(5.66749 0.347657 0)
(5.50629 0.353968 1.75306e-17)
(5.27218 0.725951 -1.74601e-17)
(4.51165 1.0289 0)
(3.76279 0.433944 -1.73621e-17)
(3.51704 -0.436237 -1.71908e-17)
(3.37602 -0.961776 0)
(3.24735 -0.896045 0)
(3.34801 -0.549864 0)
(3.63599 -0.168185 0)
(4.04282 0.108458 0)
(4.37167 0.0735198 1.65451e-17)
(4.57659 -0.0259973 0)
(4.6814 -0.0956241 -1.63075e-17)
(4.71131 -0.0905282 0)
(4.73585 -0.0395724 0)
(4.67152 0.0332282 1.58454e-17)
(4.71267 -0.0679212 0)
(5.11568 -0.239529 -1.55214e-17)
(5.84156 -0.437908 0)
(7.01097 -0.581182 0)
(8.33946 -0.564015 0)
(9.61891 -0.516819 1.50479e-17)
(10.8911 -0.445317 0)
(12.0899 -0.157996 0)
(12.7883 0.144551 1.47748e-17)
(13.1606 0.544348 0)
(12.9354 0.985185 1.45944e-17)
(11.7889 1.10724 0)
(10.5687 0.917927 0)
(9.39767 0.613004 0)
(8.36114 0.324282 -1.43106e-17)
(8.26955 -0.0507688 0)
(8.93629 -0.486282 0)
(9.98976 -0.862578 -1.38504e-17)
(11.0441 -1.22359 -1.38117e-17)
(11.7135 -1.10964 0)
(11.7081 -0.361563 -1.38455e-17)
(10.804 0.565091 0)
(9.3102 1.14855 -2.70895e-17)
(7.76214 1.24282 0)
(6.41422 1.15792 -2.63969e-17)
(5.30646 1.06049 0)
(4.38404 0.923543 2.59154e-17)
(3.67011 0.763278 0)
(3.18197 0.619207 0)
(2.84471 0.494545 0)
(2.52656 0.443056 -2.50207e-17)
(2.29556 0.427602 0)
(2.1098 0.354005 2.46299e-17)
(2.02175 0.289164 0)
(2.06937 0.187165 -2.42525e-17)
(2.20254 0.0935068 -2.40583e-17)
(2.32888 0.0610894 -2.38673e-17)
(2.38268 0.0776897 0)
(2.41182 0.0799779 0)
(2.46666 0.0408228 0)
(2.81506 -0.115435 0)
(2.90608 0.00348905 0)
(2.88887 -0.0777115 0)
(3.2239 -0.151011 0)
(3.16118 -0.102259 0)
(3.36559 -0.197152 2.22975e-17)
(3.49702 -0.148346 2.20779e-17)
(3.75489 -0.230529 0)
(3.96822 -0.178324 0)
(4.09471 -0.213014 0)
(4.37845 -0.269025 2.15002e-17)
(4.6875 -0.212196 0)
(4.93871 -0.204681 0)
(5.16949 -0.195041 0)
(5.46215 -0.199172 0)
(5.72012 -0.225834 -2.0639e-17)
(5.83292 -0.183085 0)
(5.89218 -0.179918 0)
(6.09941 -0.238067 2.03185e-17)
(6.47545 -0.252379 -2.01393e-17)
(6.77968 -0.227189 0)
(6.95854 -0.203903 -1.98361e-17)
(7.12342 -0.207285 0)
(7.3103 -0.237381 1.95714e-17)
(7.42572 -0.278145 0)
(7.59442 -0.282462 0)
(7.84414 -0.341521 0)
(8.16445 -0.442568 0)
(8.47945 -0.49436 0)
(8.88923 -0.464795 -3.7424e-17)
(9.39351 -0.384768 -3.72142e-17)
(9.94225 -0.389064 0)
(10.3511 -0.335412 0)
(10.8268 -0.325519 0)
(11.0717 -0.361577 3.63348e-17)
(11.403 -0.4832 0)
(12.0558 -0.571525 0)
(13.2794 -0.648539 0)
(14.3572 -0.724217 3.51938e-17)
(15.106 -0.748263 -3.49225e-17)
(16.2411 -0.682798 0)
(17.1743 -0.684306 0)
(17.8028 -0.673826 -3.41531e-17)
(18.023 -0.605831 -3.39734e-17)
(17.6669 -0.55515 0)
(17.4974 -0.550644 0)
(17.0944 -0.597818 3.32503e-17)
(16.665 -0.598144 -3.28743e-17)
(16.2995 -0.587791 0)
(15.5636 -0.472773 0)
(14.5451 -0.482283 -3.15395e-17)
(14.571 -0.589224 0)
(15.974 -0.58235 0)
(15.7483 -0.499829 -3.0978e-17)
(15.836 -0.489456 0)
(15.7597 -0.66292 -3.07503e-17)
(16.2865 -0.788041 0)
(16.8581 -0.679812 0)
(17.3688 -0.363106 0)
(17.1355 -0.0819756 2.909e-17)
(15.5128 -0.34604 0)
(15.3872 -0.576885 0)
(14.1956 -0.20757 0)
(12.5239 0.156013 0)
(9.88709 0.306543 0)
(7.85405 -0.0912806 0)
(8.111 -0.519476 2.53604e-17)
(8.70825 -0.671016 2.53294e-17)
(8.97112 -0.630239 0)
(8.9013 -0.697523 0)
(8.80191 -0.734575 0)
(6.94707 -0.569933 -2.62265e-17)
(4.60824 -0.680063 0)
(2.38122 -0.817152 5.28917e-17)
(-0.413492 -0.707221 -5.27107e-17)
(-2.94157 -0.864379 -5.28487e-17)
(-5.23702 -1.06468 5.22325e-17)
(-5.42132 -0.853483 -5.03999e-17)
(-6.90395 -0.487027 5.19204e-17)
(-10.3685 -0.740267 0)
(-0.107939 0.273237 0)
(-0.519146 0.313887 0)
(-0.788709 0.164116 -2.3365e-17)
(-1.01211 -0.05762 0)
(-1.10776 -0.273337 2.31723e-17)
(-1.15336 -0.424724 2.29866e-17)
(-1.15449 -0.5005 1.1412e-17)
(-1.18215 -0.513783 1.13352e-17)
(-1.22309 -0.542197 0)
(-1.24183 -0.588602 1.11882e-17)
(-1.22945 -0.643395 0)
(-1.18847 -0.701759 0)
(-1.12398 -0.733761 -2.18723e-17)
(-1.06172 -0.722796 -1.08523e-17)
(-1.00662 -0.68575 2.15385e-17)
(-0.959277 -0.680925 2.13716e-17)
(-0.910711 -0.709035 1.06007e-17)
(-0.864249 -0.756983 0)
(-0.809263 -0.806669 0)
(-0.739168 -0.837456 0)
(-0.660536 -0.847089 1.02399e-17)
(-0.557083 -0.844679 0)
(-0.422602 -0.868204 -3.02721e-17)
(-0.253512 -0.922965 0)
(-0.0614257 -0.978262 0)
(0.165807 -1.01471 -9.88319e-18)
(0.418165 -1.04553 0)
(0.70211 -1.07453 9.73721e-18)
(1.00274 -1.10133 1.93402e-17)
(1.32845 -1.14367 -9.61132e-18)
(1.67619 -1.17035 0)
(2.07058 -1.15317 0)
(2.4586 -1.1753 0)
(2.89997 -1.1936 1.86447e-17)
(3.30958 -1.2057 1.85119e-17)
(3.72513 -1.14469 9.19158e-18)
(4.24342 -1.07068 0)
(4.62745 -1.0685 -1.81312e-17)
(5.11362 -0.92558 0)
(5.61215 -0.822102 1.78878e-17)
(5.97787 -0.709791 0)
(6.46144 -0.463344 0)
(6.82211 -0.31825 -1.75387e-17)
(7.15189 -0.0355806 0)
(7.52974 0.204152 -5.19308e-17)
(7.71539 0.499096 1.7237e-17)
(8.02005 0.868597 0)
(8.14666 1.11445 1.7107e-17)
(8.3319 1.10243 1.70299e-17)
(7.98236 1.10812 0)
(6.97297 1.2653 0)
(6.33314 0.42986 0)
(5.56899 -0.816036 0)
(5.00763 -0.984179 0)
(4.92449 -0.717657 -1.63111e-17)
(5.14733 -0.286493 -3.2588e-17)
(5.3214 0.104537 1.62036e-17)
(5.29676 0.338984 0)
(5.4117 0.33929 -3.16456e-17)
(5.20065 0.470086 1.56927e-17)
(5.3842 -0.0768234 0)
(5.63133 -0.686017 1.53217e-17)
(6.32388 -1.48005 0)
(7.40984 -2.16033 0)
(8.80296 -2.27229 3.00382e-17)
(10.1798 -2.12013 -1.49263e-17)
(11.464 -2.00518 2.96598e-17)
(12.8297 -1.43118 -2.95576e-17)
(13.7804 -0.455174 -1.46655e-17)
(14.6273 0.233967 0)
(15.1326 1.41366 -1.44235e-17)
(14.8029 2.70829 0)
(14.3995 2.63464 0)
(12.9726 2.63389 0)
(11.841 2.44306 -1.40532e-17)
(12.2502 0.633821 0)
(12.5701 -0.896243 -2.78089e-17)
(11.7618 -0.562776 4.11421e-17)
(9.75655 0.747951 1.35594e-17)
(7.42128 1.91799 0)
(5.41332 2.71676 1.33946e-17)
(3.86037 3.08297 0)
(2.63661 3.12924 2.63231e-17)
(1.68332 2.95546 0)
(0.93479 2.61147 2.59345e-17)
(0.363306 2.1819 -5.1489e-17)
(0.0240987 1.74253 -2.55569e-17)
(-0.192439 1.36988 0)
(-0.331712 1.09854 0)
(-0.391507 0.924164 0)
(-0.449248 0.783518 2.4802e-17)
(-0.431043 0.613524 0)
(-0.329063 0.34217 -2.45191e-17)
(-0.0952549 0.0956653 0)
(0.21394 -0.135926 7.26195e-17)
(0.590702 -0.233723 2.40084e-17)
(0.925794 -0.22442 2.38033e-17)
(1.17035 -0.242675 0)
(1.41659 -0.401182 0)
(1.6383 -0.584281 0)
(2.27558 -0.839452 0)
(2.2595 -0.451011 0)
(2.55299 -0.792907 4.58874e-17)
(2.99477 -0.86499 4.52042e-17)
(3.05207 -0.743637 0)
(3.6116 -1.06398 -2.2422e-17)
(3.61957 -0.891376 -2.20668e-17)
(4.26952 -1.12924 0)
(4.52684 -0.966911 -4.34797e-17)
(4.79071 -1.0612 0)
(5.17543 -1.28202 2.1635e-17)
(5.58968 -1.13555 0)
(6.02918 -1.12162 0)
(6.30049 -1.13227 -4.18546e-17)
(6.75682 -1.1281 0)
(7.40645 -1.07637 2.01415e-17)
(7.75616 -0.83688 0)
(7.76891 -0.905956 0)
(7.92839 -1.23884 2.05861e-17)
(8.57423 -1.30337 2.01871e-17)
(9.21745 -1.1082 0)
(9.51221 -1.01434 -1.94688e-17)
(9.74245 -1.08161 0)
(10.0538 -1.10036 1.87546e-17)
(10.4473 -1.04307 3.74125e-17)
(10.7389 -1.15874 0)
(10.9793 -1.29603 0)
(11.4095 -1.29224 0)
(11.652 -1.2332 0)
(11.983 -1.35442 3.56821e-17)
(12.233 -1.54892 1.0649e-16)
(12.6999 -1.58977 0)
(12.7765 -1.6 0)
(12.9547 -1.50676 0)
(13.0563 -1.39522 -3.50687e-17)
(13.2076 -1.59238 0)
(13.9048 -1.9502 0)
(15.3115 -2.3794 6.67429e-17)
(16.9782 -2.14453 3.27724e-17)
(17.5627 -2.14326 3.26001e-17)
(18.3433 -2.46072 0)
(19.1011 -2.3296 0)
(19.5381 -2.03647 3.21914e-17)
(19.8488 -1.77144 -3.20332e-17)
(19.2613 -1.60301 0)
(19.087 -1.78263 0)
(18.4832 -1.81425 -3.14077e-17)
(17.6708 -1.93042 9.2982e-17)
(16.7185 -1.82694 0)
(15.4123 -1.56012 0)
(14.1092 -1.88967 2.94729e-17)
(14.0875 -3.17182 0)
(16.8607 -3.19898 5.78397e-17)
(16.9432 -2.28734 -2.8716e-17)
(17.8322 -2.13007 0)
(18.5408 -1.97898 2.89876e-17)
(18.2055 -2.30822 5.55289e-17)
(17.7662 -2.41534 0)
(17.8587 -2.11012 0)
(18.2411 -1.1183 -2.54316e-17)
(16.5035 -1.02824 0)
(15.5558 -1.49394 5.19712e-17)
(12.9333 -0.997573 0)
(10.8338 -0.812225 0)
(8.44165 -1.06281 0)
(7.12041 -2.47389 0)
(7.63692 -3.60474 -2.26275e-17)
(8.95987 -3.9278 -2.21058e-17)
(9.59675 -3.66181 0)
(10.2825 -3.61846 0)
(11.9551 -3.41899 0)
(10.7685 -2.31249 2.18219e-17)
(9.06341 -2.13368 0)
(6.00288 -2.25746 -4.68923e-17)
(2.16175 -2.12566 4.7069e-17)
(-0.490648 -2.362 4.69037e-17)
(-3.16322 -3.60058 4.66234e-17)
(-4.98402 -3.98757 4.40549e-17)
(-3.26805 -2.67582 4.46232e-17)
(-5.6748 -2.12657 0)
(0.0144069 0.510757 0)
(-0.388062 0.661513 0)
(-0.666073 0.282597 2.34887e-17)
(-0.904466 -0.115441 2.33759e-17)
(-1.01611 -0.529502 -2.32306e-17)
(-1.04682 -0.806142 -2.30156e-17)
(-1.00735 -0.862679 -5.50741e-21)
(-1.01857 -0.798266 0)
(-1.07094 -0.806987 0)
(-1.13046 -0.910516 0)
(-1.13542 -1.02167 0)
(-1.09833 -1.12617 0)
(-1.07245 -1.17713 6.48977e-17)
(-1.08938 -1.15462 0)
(-1.13729 -1.0967 -2.12599e-17)
(-1.20118 -1.06195 -2.10753e-17)
(-1.28288 -1.04804 0)
(-1.37952 -1.03036 0)
(-1.46374 -1.02593 0)
(-1.52832 -1.03018 0)
(-1.54997 -1.06498 -2.04365e-17)
(-1.5071 -1.13396 0)
(-1.42933 -1.23217 2.02718e-17)
(-1.32462 -1.34732 0)
(-1.18619 -1.43407 0)
(-1.03649 -1.51116 0)
(-0.84303 -1.57728 3.95445e-17)
(-0.630305 -1.64393 0)
(-0.392207 -1.72359 -1.9462e-17)
(-0.151135 -1.80597 3.8579e-17)
(0.107458 -1.85518 0)
(0.430734 -1.85142 0)
(0.707743 -1.87343 0)
(1.0501 -1.86347 -1.86953e-17)
(1.4403 -1.87494 -1.85283e-17)
(1.82777 -1.87865 0)
(2.31004 -1.77916 0)
(2.683 -1.79281 3.62603e-17)
(3.28049 -1.71356 3.59608e-17)
(3.85501 -1.47611 -3.5846e-17)
(4.23139 -1.42556 0)
(4.97424 -1.20579 0)
(5.51196 -0.900819 0)
(5.99768 -0.805754 0)
(6.8344 -0.385926 3.45621e-17)
(7.17904 -0.0625648 3.45562e-17)
(7.89114 0.12286 -3.40096e-17)
(8.47164 0.635741 0)
(8.798 0.506462 0)
(9.28597 0.666659 0)
(9.2942 1.22203 0)
(9.69663 1.03564 3.30217e-17)
(9.58612 1.59482 0)
(8.73578 1.70199 0)
(7.67035 0.265895 3.28936e-17)
(6.71389 -0.432179 3.24098e-17)
(6.28716 -0.149083 0)
(6.06187 0.148511 -6.38103e-17)
(6.15484 0.225573 3.15825e-17)
(5.75012 0.405758 -3.13708e-17)
(6.30746 -0.399449 0)
(6.11295 -0.941071 0)
(6.80528 -2.30998 0)
(7.46701 -3.44972 0)
(8.70949 -3.69032 -3.02257e-17)
(9.90425 -3.52925 -6.04783e-17)
(10.964 -3.195 -3.00267e-17)
(12.0286 -2.4272 2.97033e-17)
(13.025 -1.36757 0)
(13.8804 -0.0925257 -5.82196e-17)
(14.1863 1.58237 -5.76436e-17)
(14.4126 2.80742 -5.69261e-17)
(14.2013 4.00662 5.64871e-17)
(13.169 4.64957 0)
(13.1996 2.46946 8.41574e-17)
(12.5214 0.624769 0)
(9.88447 1.74666 -2.75059e-17)
(6.98182 3.35939 -2.73369e-17)
(4.6865 4.30571 0)
(2.93028 4.74697 0)
(1.68375 4.88039 -5.37653e-17)
(0.797755 4.80664 0)
(0.206081 4.58892 -5.30834e-17)
(-0.157397 4.15743 0)
(-0.341572 3.54211 5.26003e-17)
(-0.375838 2.93985 1.04708e-16)
(-0.314301 2.39864 0)
(-0.266412 1.93807 0)
(-0.155237 1.61898 0)
(-0.0417594 1.37572 5.11734e-17)
(0.0471615 1.10265 0)
(0.18292 0.803508 5.05198e-17)
(0.383519 0.430403 0)
(0.649804 0.0266627 0)
(0.99339 -0.335456 -9.94456e-17)
(1.38795 -0.51034 0)
(1.71613 -0.496844 -4.8937e-17)
(2.00284 -0.465513 0)
(2.34643 -0.769758 -4.82001e-17)
(2.63579 -1.0081 0)
(3.48845 -1.30811 0)
(3.0566 -0.714318 0)
(3.58891 -1.38482 -1.41898e-16)
(3.64668 -1.40857 -4.66475e-17)
(3.74114 -1.33806 0)
(4.46405 -1.80732 0)
(4.29447 -1.44363 0)
(5.03951 -1.9994 0)
(5.37101 -1.6435 4.46689e-17)
(5.62027 -1.6196 -8.91757e-17)
(5.94752 -2.09611 -4.44841e-17)
(6.27721 -1.90642 8.77527e-17)
(6.7988 -1.80635 8.72717e-17)
(6.99735 -1.81355 4.3623e-17)
(7.20699 -2.07428 0)
(7.90235 -2.11894 8.55321e-17)
(8.84136 -1.39627 0)
(9.16983 -1.19037 -8.0894e-17)
(8.89709 -1.9051 -4.28179e-17)
(9.08745 -2.37335 0)
(9.96142 -1.99444 8.17444e-17)
(10.4834 -1.68665 4.00127e-17)
(10.8667 -1.71697 0)
(11.2695 -1.83135 3.91652e-17)
(11.6325 -1.94913 -1.12987e-16)
(12.0004 -1.88254 0)
(12.0632 -2.03531 0)
(12.4689 -2.2351 0)
(13.0446 -2.20215 0)
(13.7303 -2.30406 -6.98487e-17)
(13.8506 -2.35417 -6.93651e-17)
(14.0284 -2.1739 0)
(13.9715 -1.87532 0)
(13.5835 -1.94083 0)
(13.2806 -2.02493 0)
(13.1982 -2.43785 0)
(13.5273 -3.26365 0)
(15.113 -4.21455 -7.07081e-17)
(17.3784 -3.9404 3.64534e-20)
(18.6308 -3.38552 0)
(19.3023 -3.4245 0)
(19.3681 -3.56343 -6.32067e-17)
(18.9801 -3.43722 0)
(18.9637 -3.03451 6.19221e-17)
(18.1694 -2.62944 6.10974e-17)
(18.5521 -2.9712 0)
(18.4462 -2.75823 0)
(18.0572 -2.75406 -6.03812e-17)
(16.8923 -2.52936 -1.19744e-16)
(15.6286 -2.26273 0)
(14.6221 -2.97755 0)
(14.6206 -5.42596 0)
(16.5762 -5.60338 -5.88964e-17)
(16.5556 -3.9183 5.60633e-17)
(17.8925 -4.07511 0)
(19.7624 -3.56076 1.13578e-16)
(19.1627 -3.3387 5.47567e-17)
(18.2832 -3.21258 -1.02951e-16)
(17.7669 -3.14889 0)
(18.5194 -1.78611 0)
(17.1099 -1.54507 -9.72508e-17)
(16.0687 -1.88923 -4.95124e-17)
(12.9214 -1.01201 0)
(10.9987 -1.09221 0)
(9.0279 -1.43242 0)
(8.07324 -3.43055 0)
(8.31809 -5.6011 -1.00069e-16)
(10.0848 -6.27245 0)
(10.2067 -5.84484 0)
(10.4392 -6.12788 0)
(13.0222 -5.78267 0)
(12.3748 -4.04238 0)
(11.6107 -3.53378 0)
(7.90226 -3.23362 -8.78902e-17)
(3.74329 -3.05175 0)
(0.68727 -3.8316 0)
(-2.70927 -4.52348 -1.80347e-16)
(-8.8358 -6.35267 8.96111e-17)
(-3.69037 -5.80964 -8.47994e-17)
(-3.60851 -3.73477 8.93719e-17)
(0.120887 0.330462 0)
(-0.0955832 0.980991 -4.60731e-17)
(-0.360017 0.495414 0)
(-0.650086 -0.109289 -2.32807e-17)
(-0.804252 -0.714232 0)
(-0.897595 -1.19107 0)
(-0.896564 -1.31362 2.27957e-17)
(-0.944273 -1.1442 0)
(-1.00912 -1.05364 0)
(-1.06435 -1.16693 0)
(-1.09873 -1.40439 0)
(-1.23066 -1.5467 0)
(-1.47121 -1.42687 -8.56374e-17)
(-1.69704 -1.1994 -4.26878e-17)
(-1.9051 -1.04091 4.26176e-17)
(-2.12761 -0.943326 0)
(-2.30427 -0.897448 0)
(-2.42634 -0.951043 0)
(-2.50354 -1.07088 0)
(-2.54121 -1.23038 0)
(-2.52408 -1.38946 -4.17647e-17)
(-2.48732 -1.54322 -4.15127e-17)
(-2.43081 -1.68059 4.12078e-17)
(-2.36732 -1.80672 -4.08608e-17)
(-2.302 -1.91239 0)
(-2.24424 -2.01168 0)
(-2.14311 -2.09349 -3.9656e-17)
(-2.05936 -2.16957 0)
(-1.9479 -2.22318 0)
(-1.81711 -2.26292 -3.84695e-17)
(-1.64026 -2.30528 -3.80724e-17)
(-1.45504 -2.3914 -3.7695e-17)
(-1.24717 -2.49132 0)
(-0.95494 -2.53098 0)
(-0.656636 -2.57428 3.69056e-17)
(-0.296471 -2.62643 0)
(0.174797 -2.66511 0)
(0.599572 -2.69287 -3.61374e-17)
(1.10116 -2.61069 3.59934e-17)
(1.67134 -2.50466 -3.57874e-17)
(2.24284 -2.47365 0)
(2.95852 -2.20874 0)
(3.56983 -2.02071 -7.07514e-17)
(4.25861 -1.96447 0)
(5.14486 -1.39748 -6.98905e-17)
(5.69619 -1.16665 -1.0465e-16)
(6.6013 -0.990106 1.03228e-16)
(7.32091 -0.362817 -6.83279e-17)
(8.04473 -0.145392 0)
(8.7586 0.113207 0)
(9.20437 0.573711 -6.64287e-17)
(9.99958 0.809449 -3.29833e-17)
(10.097 1.12778 0)
(10.2712 1.23005 0)
(10.8583 1.83884 -3.23572e-17)
(10.0816 1.98496 -6.50647e-17)
(8.99691 1.07803 0)
(8.26074 0.62587 6.36561e-17)
(7.82984 0.900639 -6.32795e-17)
(7.74239 0.803637 6.2857e-17)
(7.70674 -0.0894822 0)
(7.44268 -0.935986 0)
(7.64289 -2.73251 0)
(7.76197 -4.25157 0)
(8.42994 -4.82268 0)
(9.19202 -4.65189 6.05671e-17)
(9.9332 -4.20118 0)
(10.62 -3.34268 0)
(11.2872 -1.94525 0)
(11.7185 -0.258306 1.16093e-16)
(12.0234 1.696 5.74752e-17)
(11.9981 3.49677 5.69935e-17)
(11.7524 4.67936 -1.13438e-16)
(11.5522 4.62011 5.64969e-17)
(10.3729 4.29297 -5.61991e-17)
(7.75478 4.92703 0)
(5.16484 5.73391 5.52625e-17)
(3.24794 6.26188 0)
(1.85431 6.42864 0)
(0.909903 6.34578 0)
(0.340022 6.08226 1.07545e-16)
(0.0342275 5.70809 -5.34612e-17)
(-0.103497 5.21846 -5.3192e-17)
(-0.12552 4.53848 -1.05925e-16)
(-0.0171893 3.81191 -1.58194e-16)
(0.110065 3.1345 -5.25152e-17)
(0.200204 2.49853 0)
(0.277817 2.00193 -1.03996e-16)
(0.404468 1.65982 0)
(0.547271 1.35372 -1.54145e-16)
(0.730814 1.01497 0)
(0.973869 0.663845 -1.52213e-16)
(1.25908 0.204597 0)
(1.48372 -0.250678 0)
(1.72407 -0.688935 -4.98096e-17)
(2.10562 -1.0275 0)
(2.41388 -1.08692 4.92043e-17)
(2.75831 -1.04204 9.73708e-17)
(3.08751 -1.44916 4.84136e-17)
(3.45922 -1.84433 9.59132e-17)
(4.41791 -1.98584 -9.52715e-17)
(3.99652 -1.1699 -9.34793e-17)
(4.73995 -2.03843 1.8804e-16)
(4.51364 -2.11567 0)
(4.62025 -2.20925 0)
(5.17354 -2.7206 9.19576e-17)
(5.00264 -2.2919 -9.0904e-17)
(5.65034 -3.09754 0)
(6.07715 -2.75489 0)
(6.38235 -2.40377 8.89499e-17)
(6.72557 -3.11025 0)
(6.82979 -2.98009 -1.10217e-19)
(7.37712 -2.78031 -1.092e-19)
(7.72597 -2.5366 8.46946e-17)
(7.93272 -2.96855 0)
(8.04397 -3.65699 -8.90238e-17)
(8.65041 -2.84061 0)
(9.84031 -1.88966 8.06335e-17)
(10.157 -2.32131 0)
(9.76406 -3.39908 0)
(10.105 -3.22652 -8.24234e-17)
(10.8195 -2.80863 -7.94341e-17)
(11.1949 -2.91273 0)
(11.6384 -2.90844 -8.13104e-17)
(12.2697 -2.70124 1.57674e-16)
(12.7431 -2.67154 0)
(12.8345 -2.90015 0)
(13.0279 -3.37216 0)
(13.5069 -3.43285 0)
(14.4568 -3.17905 7.06599e-17)
(14.8819 -2.93388 -1.38794e-16)
(14.691 -3.01016 0)
(14.18 -2.69935 0)
(14.1728 -2.4611 0)
(13.9002 -2.65715 0)
(14.185 -3.21976 0)
(14.0569 -4.68215 0)
(14.8873 -6.78417 0)
(16.613 -6.37997 6.88787e-17)
(19.1 -5.07849 0)
(20.1327 -4.82261 0)
(20.1331 -4.39998 6.25398e-17)
(19.1294 -4.05865 0)
(18.4957 -3.79173 0)
(17.0387 -3.80978 -6.03152e-17)
(17.589 -4.74328 0)
(17.5586 -4.51272 0)
(18.1228 -4.18758 1.18375e-16)
(18.2008 -3.61918 1.18115e-16)
(17.3672 -3.60874 1.19654e-16)
(16.5934 -4.52824 0)
(16.751 -7.51867 1.18452e-16)
(16.725 -8.08481 0)
(16.1774 -5.9126 -1.11349e-16)
(17.835 -6.78871 0)
(20.383 -5.53212 -1.13661e-16)
(19.3183 -4.51846 3.94969e-19)
(18.3508 -4.26701 1.01541e-16)
(17.6131 -5.07156 -9.75467e-17)