/*--------------------------------*- C++ -*----------------------------------*\
| =========                 |                                                 |
| \\      /  F ield         | OpenFOAM: The Open Source CFD Toolbox           |
|  \\    /   O peration     | Version:  dev                                   |
|   \\  /    A nd           | Web:      http://www.openfoam.org               |
|    \\/     M anipulation  |                                                 |
\*---------------------------------------------------------------------------*/
FoamFile
{
    version     2.0;
    format      ascii;
    class       volVectorField;
    object      U_0;
    location    "9.15";
}
// * * * * * * * * * * * * * * * * * * * * * * * * * * * * * * * * * * * * * //

dimensions      [0 1 -1 0 0 0 0];

internalField   nonuniform List<vector> 
12225
(
(6.80092 0.610703 0)
(3.69891 0.424906 0)
(1.58875 0.280226 0)
(0.947928 0.248366 0)
(-0.286062 0.258141 0)
(0.0135615 0.20751 0)
(-1.40635 0.293614 0)
(-0.627576 0.151968 0)
(-2.38553 0.323749 0)
(-1.08064 0.0973087 0)
(-3.29618 0.387932 0)
(-1.42521 0.0264448 0)
(-4.0303 0.396221 0)
(-1.3205 -0.0479946 0)
(-3.9074 0.246126 0)
(0.285748 -0.239588 0)
(4.41962 0.54967 0)
(0.110436 6.83958 0)
(9.5731 1.74045 0)
(8.55468 1.6309 0)
(5.67916 1.24605 0)
(5.53223 1.00958 0)
(2.45056 0.921367 0)
(3.87493 0.835808 0)
(0.0488125 0.887966 0)
(2.95574 0.695248 0)
(-2.14107 0.998918 0)
(2.55722 0.548286 0)
(-4.1951 1.03512 0)
(2.68782 0.411288 0)
(-5.50668 1.03176 0)
(3.01154 -0.0490961 0)
(-5.89031 0.934557 0)
(2.93142 -1.95004 0)
(-3.9642 -0.43098 0)
(-3.41365 -0.0749493 0)
(9.6101 2.11145 0)
(10.989 2.33268 0)
(7.59217 2.02993 0)
(9.62756 1.80691 0)
(4.85498 1.66119 0)
(8.33572 1.66998 0)
(2.15373 1.4903 0)
(7.56263 1.55598 0)
(-0.215775 1.47303 0)
(7.04893 1.28397 0)
(-1.31257 1.57338 0)
(6.05689 0.741305 0)
(-0.967695 1.64956 0)
(4.0116 0.338003 0)
(-1.06853 1.67752 0)
(0.863908 -0.537305 0)
(-1.11164 2.34387 0)
(-6.08333 2.1702 0)
(7.82807 2.5616 0)
(12.5096 3.02513 0)
(7.45201 2.7003 0)
(11.9614 2.55877 0)
(6.02895 2.42953 0)
(11.0313 2.44853 0)
(4.58252 2.29752 0)
(10.0839 2.2344 0)
(3.8364 2.34806 0)
(8.37909 1.63479 0)
(3.53819 2.62191 0)
(6.59016 0.875447 0)
(3.08988 2.83666 0)
(5.00091 0.330271 0)
(2.42962 3.30878 0)
(3.7022 -0.740762 0)
(1.30339 3.13323 0)
(-4.1 2.3177 0)
(7.69996 3.29543 0)
(11.8291 3.3969 0)
(8.41467 3.49991 0)
(10.981 3.10905 0)
(7.78541 3.26465 0)
(9.86426 2.89168 0)
(7.09904 3.23148 0)
(8.73307 2.49837 0)
(6.84771 3.48458 0)
(7.23151 2.02771 0)
(6.29381 3.57112 0)
(6.16237 1.6793 0)
(5.04526 3.789 0)
(5.48365 1.30613 0)
(3.7986 4.27377 0)
(4.56999 1.29982 0)
(1.37118 5.14034 0)
(0.108607 1.68717 0)
(9.13346 3.96184 0)
(9.74251 3.71501 0)
(9.18586 4.29433 0)
(9.21704 3.65998 0)
(8.62763 4.28082 0)
(8.09459 3.4789 0)
(7.59584 4.26012 0)
(7.09879 2.93 0)
(6.98248 4.52314 0)
(6.49358 2.45083 0)
(6.24636 4.61386 0)
(6.08521 2.37726 0)
(5.41875 4.45123 0)
(5.79668 2.0287 0)
(4.05627 4.58821 0)
(4.64041 2.38123 0)
(2.35423 5.42583 0)
(2.50999 3.77175 0)
(10.1713 4.93576 0)
(8.77301 4.38503 0)
(9.56703 5.36485 0)
(8.29455 4.18885 0)
(8.94481 5.34707 0)
(7.78232 4.04986 0)
(8.21328 5.40511 0)
(6.91409 3.44644 0)
(7.01097 5.62857 0)
(6.27538 3.05399 0)
(6.02531 5.43054 0)
(6.0227 3.10075 0)
(5.99327 4.92639 0)
(5.43627 3.15085 0)
(4.68582 5.30183 0)
(4.23468 3.57441 0)
(3.29281 5.68814 0)
(3.35015 5.25849 0)
(10.2373 5.57186 0)
(8.9834 5.02427 0)
(9.74006 6.13632 0)
(8.55254 4.83481 0)
(8.94898 6.0883 0)
(8.07442 4.66978 0)
(8.2257 6.22834 0)
(7.3164 4.3274 0)
(7.03983 6.29669 0)
(6.70728 3.93447 0)
(6.15658 5.87906 0)
(6.44212 3.6781 0)
(5.79492 5.49665 0)
(5.43456 4.08059 0)
(4.75401 5.98714 0)
(4.67391 4.76642 0)
(3.64287 6.22644 0)
(4.24096 5.81923 0)
(10.3508 6.2033 0)
(9.22127 5.58718 0)
(9.70492 6.95169 0)
(8.56717 5.42028 0)
(8.74009 6.86349 0)
(7.81802 5.2546 0)
(7.99854 6.98737 0)
(7.20218 5.00801 0)
(7.29249 6.88001 0)
(6.84132 4.68828 0)
(6.51746 6.29437 0)
(6.30741 4.59048 0)
(5.7107 6.0824 0)
(5.25323 4.97006 0)
(4.73201 6.43208 0)
(4.87869 5.60657 0)
(4.3063 6.41544 0)
(4.66603 6.22226 0)
(10.1304 6.94687 0)
(9.20939 6.43567 0)
(9.50901 7.75366 0)
(8.77158 6.36654 0)
(8.73574 7.5621 0)
(7.96856 6.17502 0)
(7.96297 7.53604 0)
(7.35713 5.94373 0)
(7.26562 7.31208 0)
(6.90641 5.67356 0)
(6.41038 6.81332 0)
(6.08049 5.51285 0)
(5.57965 6.70311 0)
(5.26356 5.98572 0)
(4.84057 6.87459 0)
(4.9173 6.35286 0)
(4.60807 6.92422 0)
(4.71163 6.85641 0)
(10.1955 7.82219 0)
(9.53896 7.28727 0)
(9.55473 8.40889 0)
(8.82122 7.23392 0)
(8.61152 8.29304 0)
(7.95948 7.17668 0)
(7.76765 8.21393 0)
(7.26481 6.99327 0)
(6.96429 7.92264 0)
(6.64735 6.79372 0)
(6.18406 7.5298 0)
(5.85873 6.69675 0)
(5.4086 7.2922 0)
(5.25083 6.91821 0)
(5.03314 7.41622 0)
(4.95471 7.18842 0)
(4.81494 7.38474 0)
(4.85678 7.40697 0)
(10.3676 8.62225 0)
(9.49365 8.48593 0)
(9.12621 9.29857 0)
(8.4722 8.44715 0)
(8.20346 9.07603 0)
(7.72099 8.32188 0)
(7.47882 8.89061 0)
(7.11897 8.16481 0)
(6.80533 8.54809 0)
(6.52064 7.90908 0)
(6.15342 8.16056 0)
(5.81945 7.75396 0)
(5.4784 7.94913 0)
(5.22992 7.89007 0)
(5.0549 8.01693 0)
(4.89996 7.95831 0)
(4.80479 8.01081 0)
(4.87458 7.95141 0)
(9.80661 9.55744 0)
(9.24339 9.78209 0)
(8.86922 10.122 0)
(8.41647 9.62219 0)
(8.05495 9.90219 0)
(7.61898 9.49982 0)
(7.28936 9.68476 0)
(6.90743 9.31166 0)
(6.55933 9.39534 0)
(6.19151 9.09739 0)
(5.81833 9.05968 0)
(5.46455 8.91258 0)
(5.15529 8.87705 0)
(4.87447 8.80201 0)
(4.7483 8.78211 0)
(4.65744 8.71222 0)
(4.57738 8.63756 0)
(4.63458 8.56542 0)
(10.0421 10.6984 0)
(9.50523 11.06 0)
(8.98655 11.0424 0)
(8.47633 10.7971 0)
(7.97208 10.8441 0)
(7.51525 10.6608 0)
(7.11598 10.671 0)
(6.74383 10.4705 0)
(6.38404 10.3753 0)
(6.05074 10.1852 0)
(5.73718 10.037 0)
(5.42955 9.86721 0)
(5.16889 9.74174 0)
(4.94665 9.65694 0)
(4.76824 9.53483 0)
(4.62833 9.40461 0)
(4.5366 9.31502 0)
(4.55041 9.18444 0)
(9.71836 11.5589 0)
(9.30226 12.2009 0)
(8.84852 12.1298 0)
(8.34097 12.0068 0)
(7.78535 11.9335 0)
(7.28136 11.7814 0)
(6.825 11.6489 0)
(6.4524 11.4605 0)
(6.10983 11.2958 0)
(5.79499 11.1231 0)
(5.47802 10.9579 0)
(5.18853 10.7965 0)
(4.90324 10.638 0)
(4.64729 10.4734 0)
(4.4441 10.3251 0)
(4.27958 10.1738 0)
(4.13462 9.98167 0)
(4.13995 9.79143 0)
(9.53947 12.2603 0)
(9.01841 13.0396 0)
(8.57411 12.9558 0)
(8.16993 12.9281 0)
(7.73824 12.8713 0)
(7.30701 12.7383 0)
(6.88481 12.5592 0)
(6.51316 12.3458 0)
(6.1341 12.1471 0)
(5.77144 11.9676 0)
(5.38208 11.7965 0)
(5.02685 11.6148 0)
(4.68412 11.4292 0)
(4.39607 11.2266 0)
(4.12501 11.0005 0)
(3.91876 10.7566 0)
(3.71856 10.513 0)
(3.62298 10.2815 0)
(9.79594 13.0463 0)
(9.07524 13.74 0)
(8.49627 13.4924 0)
(8.01033 13.4431 0)
(7.55876 13.3671 0)
(7.14864 13.2458 0)
(6.73705 13.0863 0)
(6.35133 12.9235 0)
(5.94044 12.7699 0)
(5.54284 12.6106 0)
(5.13339 12.4528 0)
(4.75094 12.2564 0)
(4.39328 12.0235 0)
(4.08856 11.7858 0)
(3.79828 11.5242 0)
(3.55162 11.2475 0)
(3.31532 10.976 0)
(3.16501 10.6922 0)
(9.61111 13.2374 0)
(9.06425 13.8295 0)
(8.48801 13.573 0)
(7.92039 13.5191 0)
(7.3719 13.426 0)
(6.86704 13.2792 0)
(6.36676 13.1152 0)
(5.91364 12.9562 0)
(5.48027 12.7982 0)
(5.0891 12.6642 0)
(4.70001 12.5247 0)
(4.32789 12.3186 0)
(3.9863 12.0656 0)
(3.67211 11.7982 0)
(3.37318 11.5123 0)
(3.10934 11.2331 0)
(2.84846 10.9462 0)
(2.65691 10.6676 0)
(9.7102 12.5301 0)
(9.05383 13.2148 0)
(8.39438 13.1116 0)
(7.7902 13.1131 0)
(7.24939 13.0324 0)
(6.74603 12.8805 0)
(6.22111 12.6964 0)
(5.71591 12.5015 0)
(5.23206 12.2926 0)
(4.78939 12.1357 0)
(4.37448 11.9965 0)
(3.98427 11.7847 0)
(3.62116 11.5325 0)
(3.27565 11.2798 0)
(2.93732 11.0164 0)
(2.62045 10.7761 0)
(2.30524 10.5283 0)
(2.06473 10.2787 0)
(9.64902 11.7981 0)
(8.84134 12.3977 0)
(8.20918 12.1921 0)
(7.65087 12.0618 0)
(7.16243 11.9289 0)
(6.69933 11.8106 0)
(6.21179 11.6999 0)
(5.70621 11.5729 0)
(5.18894 11.4026 0)
(4.6973 11.2482 0)
(4.22288 11.1156 0)
(3.78043 10.9284 0)
(3.35946 10.7043 0)
(2.94698 10.4756 0)
(2.5594 10.239 0)
(2.19942 10.0292 0)
(1.85446 9.80008 0)
(1.59763 9.56171 0)
(9.63249 10.6849 0)
(8.92452 11.1415 0)
(8.32051 10.9123 0)
(7.72274 10.7942 0)
(7.15648 10.6732 0)
(6.62595 10.5581 0)
(6.07782 10.4745 0)
(5.56124 10.3898 0)
(5.06506 10.2531 0)
(4.55705 10.1087 0)
(4.05939 9.97995 0)
(3.61388 9.80579 0)
(3.17471 9.61528 0)
(2.75434 9.4256 0)
(2.39123 9.20714 0)
(2.02235 8.99686 0)
(1.69454 8.76751 0)
(1.44988 8.53813 0)
(9.64015 9.36285 0)
(8.97666 9.77573 0)
(8.33681 9.53773 0)
(7.69053 9.38501 0)
(7.08584 9.24818 0)
(6.51561 9.15326 0)
(5.96238 9.07779 0)
(5.46014 8.9859 0)
(4.98586 8.91054 0)
(4.50317 8.82319 0)
(4.01048 8.70828 0)
(3.56971 8.55623 0)
(3.12576 8.39602 0)
(2.72336 8.22967 0)
(2.36434 8.02131 0)
(2.00396 7.82797 0)
(1.69947 7.59955 0)
(1.43129 7.37845 0)
(9.53417 7.84464 0)
(8.92367 8.33591 0)
(8.43972 8.14259 0)
(7.92038 7.97857 0)
(7.37106 7.832 0)
(6.77876 7.7296 0)
(6.16711 7.63136 0)
(5.56417 7.54656 0)
(5.0036 7.48537 0)
(4.48222 7.42762 0)
(4.00474 7.3265 0)
(3.55379 7.21248 0)
(3.11209 7.06333 0)
(2.69755 6.90531 0)
(2.30936 6.74443 0)
(1.94933 6.57594 0)
(1.60779 6.40094 0)
(1.32451 6.23608 0)
(9.35396 6.53708 0)
(8.87378 6.73128 0)
(8.49647 6.51567 0)
(8.14151 6.42528 0)
(7.7183 6.39308 0)
(7.1897 6.353 0)
(6.57454 6.31313 0)
(5.91151 6.26844 0)
(5.25438 6.19742 0)
(4.62811 6.11938 0)
(4.04294 6.03278 0)
(3.51884 5.93355 0)
(3.03756 5.82832 0)
(2.6027 5.70227 0)
(2.20208 5.54961 0)
(1.8448 5.39901 0)
(1.50131 5.24974 0)
(1.1934 5.10293 0)
(9.37823 5.22713 0)
(8.80819 5.24758 0)
(8.36044 5.04614 0)
(7.93603 4.97254 0)
(7.42924 4.95804 0)
(6.85139 4.98473 0)
(6.24634 5.02358 0)
(5.66106 5.03383 0)
(5.10092 5.00797 0)
(4.55504 4.95192 0)
(4.02875 4.86296 0)
(3.57918 4.74683 0)
(3.14956 4.60602 0)
(2.76402 4.46736 0)
(2.40085 4.34014 0)
(2.05083 4.22133 0)
(1.70506 4.10962 0)
(1.37931 4.01038 0)
(9.81417 4.14494 0)
(9.19804 3.91863 0)
(8.71551 3.70254 0)
(8.18056 3.68762 0)
(7.55385 3.71742 0)
(6.90433 3.76735 0)
(6.25345 3.78749 0)
(5.65574 3.79627 0)
(5.12385 3.7693 0)
(4.63162 3.70937 0)
(4.16061 3.63536 0)
(3.70816 3.54185 0)
(3.24352 3.42703 0)
(2.78666 3.33162 0)
(2.31509 3.24244 0)
(1.88313 3.16149 0)
(1.44549 3.0975 0)
(1.0505 3.03852 0)
(9.60036 2.76481 0)
(9.41075 2.66144 0)
(9.07716 2.53654 0)
(8.53678 2.54589 0)
(7.86016 2.57536 0)
(7.17606 2.63489 0)
(6.48179 2.67386 0)
(5.80078 2.68694 0)
(5.12755 2.6567 0)
(4.47357 2.61208 0)
(3.84399 2.55973 0)
(3.23683 2.49587 0)
(2.63815 2.43495 0)
(2.03695 2.37777 0)
(1.44891 2.3269 0)
(0.884971 2.27115 0)
(0.345042 2.22263 0)
(-0.157402 2.18295 0)
(9.46527 1.76173 0)
(9.42295 1.4845 0)
(9.10133 1.47778 0)
(8.33355 1.52839 0)
(7.31253 1.58951 0)
(6.30851 1.6718 0)
(5.33098 1.73731 0)
(4.43615 1.77051 0)
(3.57019 1.76239 0)
(2.735 1.73521 0)
(1.92349 1.70451 0)
(1.13293 1.67309 0)
(0.361648 1.63408 0)
(-0.387304 1.61038 0)
(-1.08592 1.58428 0)
(-1.75022 1.55791 0)
(-2.35794 1.53211 0)
(-2.92307 1.50265 0)
(9.35897 0.342732 0)
(8.68071 0.180858 0)
(7.48892 0.448376 0)
(5.96544 0.67653 0)
(4.45099 0.845631 0)
(3.12151 0.96213 0)
(1.93571 1.03084 0)
(0.904964 1.05534 0)
(-0.0585708 1.05228 0)
(-0.951136 1.04066 0)
(-1.80949 1.02768 0)
(-2.62563 1.01095 0)
(-3.39331 0.995885 0)
(-4.10953 0.978451 0)
(-4.77697 0.954099 0)
(-5.4025 0.93574 0)
(-5.96861 0.906979 0)
(-6.50085 0.884972 0)
(8.26705 -0.0287153 0)
(4.90211 0.0117431 0)
(2.39038 0.265332 0)
(0.593364 0.387234 0)
(-0.680429 0.4113 0)
(-1.65441 0.410649 0)
(-2.4942 0.401218 0)
(-3.24553 0.385534 0)
(-3.95713 0.374503 0)
(-4.63347 0.364205 0)
(-5.30108 0.354122 0)
(-5.94421 0.346503 0)
(-6.55959 0.337517 0)
(-7.14433 0.329339 0)
(-7.69888 0.321937 0)
(-8.22551 0.314693 0)
(-8.71006 0.300585 0)
(-9.18834 0.308962 0)
(-0.10311 0.0299761 0)
(-0.383615 0.0936006 0)
(-0.640618 0.0763699 0)
(-0.84768 0.0163057 0)
(-0.974138 -0.0495841 0)
(-1.03641 -0.115402 0)
(-1.06223 -0.131456 1.1338e-17)
(-1.08316 -0.15721 -1.12583e-17)
(-1.08615 -0.169629 0)
(-1.07968 -0.187131 -1.11182e-17)
(-1.04391 -0.206275 0)
(-0.985599 -0.220752 0)
(-0.897948 -0.232837 0)
(-0.808849 -0.23408 1.08373e-17)
(-0.725885 -0.228103 0)
(-0.638204 -0.233111 0)
(-0.534958 -0.241495 -1.06208e-17)
(-0.418716 -0.252836 0)
(-0.279131 -0.257316 0)
(-0.114989 -0.257242 0)
(0.060186 -0.25483 1.03121e-17)
(0.245681 -0.250335 0)
(0.43761 -0.263284 1.01643e-17)
(0.651174 -0.285185 0)
(0.902449 -0.301693 0)
(1.18139 -0.310873 9.94782e-18)
(1.47723 -0.312735 0)
(1.79381 -0.320199 -9.80452e-18)
(2.12379 -0.332888 0)
(2.48285 -0.338442 9.67403e-18)
(2.86131 -0.327996 0)
(3.23869 -0.31617 0)
(3.62629 -0.309487 0)
(4.02946 -0.299701 0)
(4.43049 -0.303678 0)
(4.83815 -0.252705 -9.26995e-18)
(5.21158 -0.216082 0)
(5.57144 -0.190513 1.8299e-17)
(5.89431 -0.110681 0)
(6.1709 -0.0611225 -1.80554e-17)
(6.40434 0.0413782 0)
(6.51062 0.0983411 0)
(6.6177 0.198022 1.77277e-17)
(6.51986 0.353199 0)
(6.34958 0.368494 1.75315e-17)
(6.09144 0.754498 -1.74651e-17)
(5.30882 1.02395 0)
(4.56892 0.386766 -1.73603e-17)
(4.34083 -0.482787 -1.71883e-17)
(4.20348 -0.975103 0)
(4.08095 -0.873954 0)
(4.20308 -0.513951 0)
(4.51607 -0.134472 0)
(4.93426 0.122098 0)
(5.26564 0.0690044 1.65501e-17)
(5.47499 -0.0292276 0)
(5.58559 -0.0944425 -1.63066e-17)
(5.62826 -0.0859956 0)
(5.67011 -0.034101 0)
(5.63115 0.0311281 1.58467e-17)
(5.71752 -0.0817869 0)
(6.17901 -0.262102 -1.55235e-17)
(6.97088 -0.461168 0)
(8.19811 -0.593281 0)
(9.55365 -0.569393 0)
(10.8472 -0.523605 1.5058e-17)
(12.1317 -0.4407 0)
(13.3054 -0.14387 0)
(13.9562 0.16217 1.47879e-17)
(14.2769 0.568472 0)
(13.9551 0.983568 1.46087e-17)
(12.7408 1.0684 0)
(11.5109 0.854855 0)
(10.313 0.548242 0)
(9.27821 0.258718 -1.43233e-17)
(9.22277 -0.143523 0)
(9.88528 -0.590146 0)
(10.8747 -0.966004 -1.38708e-17)
(11.8134 -1.29042 -1.38422e-17)
(12.3142 -1.10351 0)
(12.0917 -0.309002 -1.3868e-17)
(10.9766 0.595302 0)
(9.32341 1.12164 -2.70979e-17)
(7.65301 1.17637 0)
(6.19067 1.08021 -2.64142e-17)
(4.96621 0.980489 0)
(3.93351 0.830264 2.59315e-17)
(3.11502 0.671268 0)
(2.51868 0.525565 0)
(2.07389 0.398895 0)
(1.64394 0.343543 -2.50272e-17)
(1.3076 0.327581 0)
(1.04003 0.257503 2.46247e-17)
(0.876518 0.183113 0)
(0.854208 0.0825211 -2.42399e-17)
(0.930473 -0.0129239 -2.40423e-17)
(1.00528 -0.0440572 -2.38475e-17)
(1.02156 -0.0366346 0)
(1.02594 -0.0395158 0)
(1.07387 -0.0884565 0)
(1.38864 -0.244297 0)
(1.4673 -0.125082 0)
(1.47011 -0.217366 0)
(1.80404 -0.282861 0)
(1.7715 -0.245793 0)
(2.01063 -0.340592 2.22531e-17)
(2.16997 -0.295777 2.20335e-17)
(2.45232 -0.381742 0)
(2.6872 -0.333078 0)
(2.84148 -0.373071 0)
(3.16019 -0.42851 2.14542e-17)
(3.49996 -0.371509 0)
(3.78464 -0.365598 0)
(4.05689 -0.35581 0)
(4.39402 -0.359043 0)
(4.69022 -0.381234 -2.05984e-17)
(4.84299 -0.336371 0)
(4.96476 -0.334999 0)
(5.25402 -0.389512 2.02713e-17)
(5.70257 -0.394825 -2.00928e-17)
(6.06209 -0.363107 0)
(6.29592 -0.335573 -1.97925e-17)
(6.51771 -0.334374 0)
(6.75068 -0.359799 1.95299e-17)
(6.89931 -0.394013 0)
(7.09292 -0.390394 0)
(7.3504 -0.444683 0)
(7.64945 -0.53784 0)
(7.91399 -0.576832 0)
(8.24828 -0.531059 -3.7344e-17)
(8.65132 -0.439179 -3.71328e-17)
(9.06922 -0.435566 0)
(9.3298 -0.371202 0)
(9.63957 -0.351821 0)
(9.70426 -0.377865 3.62307e-17)
(9.86828 -0.485533 0)
(10.358 -0.548231 0)
(11.3902 -0.589437 0)
(12.2068 -0.638837 3.5086e-17)
(12.7522 -0.641405 -3.47897e-17)
(13.7524 -0.5586 0)
(14.58 -0.547524 0)
(15.1607 -0.516962 -3.39803e-17)
(15.3678 -0.426127 -3.37857e-17)
(15.0723 -0.358461 0)
(15.0188 -0.334835 0)
(14.7311 -0.361384 3.30164e-17)
(14.4414 -0.340178 -3.2625e-17)
(14.1979 -0.310031 0)
(13.5668 -0.180938 0)
(12.7053 -0.196426 -3.12662e-17)
(12.9416 -0.283084 0)
(14.3802 -0.248316 0)
(14.1059 -0.170945 -3.07485e-17)
(14.1984 -0.166244 0)
(14.0671 -0.339506 -3.04975e-17)
(14.5636 -0.45273 0)
(15.0306 -0.324757 0)
(15.4313 -0.000999405 0)
(15.0545 0.269796 2.8895e-17)
(13.4251 -0.0270276 0)
(13.3114 -0.235346 0)
(12.0758 0.173818 0)
(10.4507 0.510256 0)
(7.93509 0.609284 0)
(6.1519 0.198576 0)
(6.64532 -0.189621 2.50953e-17)
(7.43452 -0.311562 2.50649e-17)
(7.93304 -0.276547 0)
(8.19416 -0.346216 0)
(8.40991 -0.381665 0)
(6.97461 -0.273809 -2.59169e-17)
(5.2535 -0.425286 0)
(3.71321 -0.573942 5.22208e-17)
(1.59754 -0.480254 -5.2026e-17)
(-0.256521 -0.637564 -5.21692e-17)
(-2.03364 -0.806085 5.1577e-17)
(-1.87508 -0.59367 -4.97438e-17)
(-2.9387 -0.232711 5.12071e-17)
(-6.08864 -0.479454 0)
(-0.097061 0.235269 0)
(-0.488062 0.27655 0)
(-0.736439 0.12658 -2.33439e-17)
(-0.940086 -0.0949396 0)
(-1.0151 -0.311032 2.3152e-17)
(-1.03887 -0.463047 2.29672e-17)
(-1.01742 -0.540076 1.14045e-17)
(-1.02182 -0.55442 1.13237e-17)
(-1.03935 -0.583341 0)
(-1.03444 -0.630188 1.11771e-17)
(-0.998063 -0.685661 0)
(-0.932877 -0.745015 0)
(-0.843455 -0.77847 -2.18572e-17)
(-0.755329 -0.769209 -1.08431e-17)
(-0.673683 -0.733558 2.15245e-17)
(-0.599291 -0.729815 2.13583e-17)
(-0.523298 -0.758984 1.05927e-17)
(-0.449267 -0.808136 0)
(-0.366599 -0.858864 0)
(-0.268477 -0.89064 0)
(-0.161081 -0.901675 1.02357e-17)
(-0.026009 -0.900158 0)
(0.136891 -0.924623 -3.02545e-17)
(0.331819 -0.980125 0)
(0.552598 -1.03582 0)
(0.808917 -1.07253 -9.87729e-18)
(1.09024 -1.10376 0)
(1.40197 -1.13034 9.73207e-18)
(1.72873 -1.15627 1.93329e-17)
(2.07994 -1.19741 -9.60737e-18)
(2.45254 -1.22107 0)
(2.86889 -1.20114 0)
(3.27751 -1.22114 0)
(3.73719 -1.2363 1.86401e-17)
(4.16107 -1.24158 1.85085e-17)
(4.5924 -1.17332 9.1897e-18)
(5.11989 -1.09711 0)
(5.5107 -1.08702 -1.8128e-17)
(6.00533 -0.935696 0)
(6.50251 -0.829313 1.78859e-17)
(6.86947 -0.705314 0)
(7.35103 -0.454249 0)
(7.70456 -0.303974 -1.75391e-17)
(8.03433 -0.0126698 0)
(8.39909 0.229591 -5.19382e-17)
(8.58075 0.535394 1.72394e-17)
(8.88054 0.906786 0)
(8.99503 1.14259 1.71137e-17)
(9.16187 1.12398 1.70288e-17)
(8.75687 1.14116 0)
(7.74858 1.26281 0)
(7.11761 0.358105 0)
(6.33744 -0.856125 0)
(5.80785 -0.956387 0)
(5.77284 -0.667766 -1.63196e-17)
(6.02925 -0.233553 -3.26006e-17)
(6.20362 0.146088 1.62056e-17)
(6.18761 0.36254 0)
(6.31198 0.351826 -3.16423e-17)
(6.12808 0.450616 1.56907e-17)
(6.35273 -0.140045 0)
(6.6449 -0.767493 1.53253e-17)
(7.40708 -1.5672 0)
(8.55657 -2.21174 0)
(9.98475 -2.28824 3.00545e-17)
(11.3688 -2.13742 -1.49363e-17)
(12.6662 -2.00705 2.96817e-17)
(14.0248 -1.38905 -2.95797e-17)
(14.9454 -0.424164 -1.46706e-17)
(15.7586 0.2718 0)
(16.1817 1.48705 -1.44466e-17)
(15.799 2.67725 0)
(15.3023 2.51964 0)
(13.7872 2.53611 0)
(12.7341 2.20946 -1.40594e-17)
(13.1713 0.314506 0)
(13.355 -1.0753 -2.78269e-17)
(12.3091 -0.574278 4.11633e-17)
(10.1025 0.762562 1.35768e-17)
(7.6588 1.8783 0)
(5.5851 2.6189 1.34125e-17)
(3.95872 2.93349 0)
(2.6418 2.93942 2.63547e-17)
(1.58341 2.73247 0)
(0.722067 2.36999 2.59711e-17)
(0.0193839 1.93096 -5.15337e-17)
(-0.432487 1.48528 -2.55876e-17)
(-0.74826 1.10761 0)
(-1.0031 0.831038 0)
(-1.17394 0.650808 0)
(-1.34191 0.499959 2.48189e-17)
(-1.42253 0.325141 0)
(-1.41421 0.0438728 -2.45243e-17)
(-1.26098 -0.20712 0)
(-1.01549 -0.442085 7.25911e-17)
(-0.695138 -0.558345 2.40002e-17)
(-0.416577 -0.549635 2.3791e-17)
(-0.215595 -0.578429 0)
(0.00205074 -0.745875 0)
(0.217458 -0.949389 0)
(0.825576 -1.21216 0)
(0.797933 -0.833359 0)
(1.10665 -1.20635 4.58028e-17)
(1.55841 -1.26915 4.51178e-17)
(1.6399 -1.15858 0)
(2.23154 -1.49009 -2.23789e-17)
(2.27571 -1.32801 -2.20232e-17)
(2.94619 -1.57692 0)
(3.22909 -1.42167 -4.3387e-17)
(3.51321 -1.5385 0)
(3.9342 -1.75852 2.15778e-17)
(4.38703 -1.60983 0)
(4.85777 -1.60151 0)
(5.17796 -1.61042 -4.17392e-17)
(5.70109 -1.59459 0)
(6.40807 -1.51916 2.00828e-17)
(6.78215 -1.27728 0)
(6.82265 -1.36891 0)
(7.06372 -1.69525 2.05343e-17)
(7.812 -1.71766 2.01126e-17)
(8.51334 -1.49876 0)
(8.85115 -1.40179 -1.94144e-17)
(9.1417 -1.45393 0)
(9.51185 -1.4442 1.86999e-17)
(9.93607 -1.37093 3.73469e-17)
(10.2371 -1.47849 0)
(10.4915 -1.58824 0)
(10.9081 -1.54691 0)
(11.0949 -1.46245 0)
(11.3394 -1.56238 3.56248e-17)
(11.4892 -1.72772 1.06317e-16)
(11.8231 -1.73935 0)
(11.7435 -1.71873 0)
(11.7742 -1.58091 0)
(11.7095 -1.43509 -3.49639e-17)
(11.7087 -1.60265 0)
(12.2762 -1.90344 0)
(13.5623 -2.21106 6.63564e-17)
(14.9772 -1.87414 3.26448e-17)
(15.3005 -1.84946 3.25029e-17)
(15.9335 -2.11924 0)
(16.5834 -1.90725 0)
(16.9905 -1.55476 3.20415e-17)
(17.2805 -1.23932 -3.18541e-17)
(16.7468 -1.03704 0)
(16.6789 -1.15904 0)
(16.144 -1.12747 -3.12098e-17)
(15.4477 -1.1917 9.22677e-17)
(14.6138 -1.04054 0)
(13.4167 -0.767788 0)
(12.2784 -1.13168 2.92365e-17)
(12.5193 -2.34981 0)
(15.35 -2.23708 5.73896e-17)
(15.3695 -1.32754 -2.84719e-17)
(16.3121 -1.18571 0)
(16.8366 -1.01047 2.8808e-17)
(16.4049 -1.37681 5.49454e-17)
(15.9351 -1.48834 0)
(16.0671 -1.16158 0)
(16.3137 -0.187118 -2.5311e-17)
(14.4817 -0.157192 0)
(13.5024 -0.583573 5.15336e-17)
(10.9063 -0.105357 0)
(8.95591 -0.0191127 0)
(6.72394 -0.364447 0)
(5.60519 -1.72952 0)
(6.30997 -2.74515 -2.23777e-17)
(7.80929 -3.00251 -2.18373e-17)
(8.67556 -2.75614 0)
(9.70712 -2.71107 0)
(11.595 -2.45656 0)
(10.7031 -1.47326 2.16265e-17)
(9.51644 -1.41223 0)
(7.07837 -1.57596 -4.64136e-17)
(3.89407 -1.49118 4.65371e-17)
(1.8845 -1.71849 4.63839e-17)
(-0.286534 -2.90634 4.60865e-17)
(-1.77786 -3.30142 4.35172e-17)
(0.184093 -2.00029 4.40885e-17)
(-1.73422 -1.46783 0)
(0.0254677 0.446347 0)
(-0.357441 0.599116 0)
(-0.614291 0.218631 2.34625e-17)
(-0.832523 -0.179327 2.33588e-17)
(-0.923768 -0.592851 -2.32072e-17)
(-0.933304 -0.870423 -2.29928e-17)
(-0.871818 -0.929011 1.58301e-21)
(-0.860235 -0.866267 0)
(-0.889532 -0.87541 0)
(-0.926147 -0.979338 0)
(-0.908095 -1.09098 0)
(-0.84671 -1.19673 0)
(-0.795162 -1.25068 6.48607e-17)
(-0.785872 -1.23163 0)
(-0.807027 -1.17627 -2.12424e-17)
(-0.843757 -1.14355 -2.1058e-17)
(-0.897998 -1.13185 0)
(-0.966854 -1.11616 0)
(-1.02286 -1.11344 0)
(-1.0585 -1.11898 0)
(-1.05077 -1.15472 -2.04179e-17)
(-0.977341 -1.22482 0)
(-0.868943 -1.32577 2.02546e-17)
(-0.734031 -1.44215 0)
(-0.565817 -1.52954 0)
(-0.386912 -1.60652 0)
(-0.16045 -1.67197 3.95278e-17)
(0.0824433 -1.73747 0)
(0.343928 -1.81589 -1.94525e-17)
(0.610069 -1.89625 3.85679e-17)
(0.894427 -1.9413 0)
(1.24161 -1.93191 0)
(1.53972 -1.94889 0)
(1.90212 -1.93419 -1.86895e-17)
(2.30849 -1.93408 -1.85235e-17)
(2.71106 -1.92979 0)
(3.20389 -1.822 0)
(3.58629 -1.828 3.6256e-17)
(4.19532 -1.73287 3.59605e-17)
(4.76857 -1.4879 -3.585e-17)
(5.15215 -1.42893 0)
(5.89657 -1.19188 0)
(6.42454 -0.884462 0)
(6.91859 -0.776405 0)
(7.73961 -0.341566 3.45655e-17)
(8.08151 -0.022569 3.45506e-17)
(8.79522 0.179854 -3.39988e-17)
(9.35161 0.683427 0)
(9.67603 0.543168 0)
(10.141 0.745241 0)
(10.1554 1.27744 0)
(10.541 1.09537 3.30053e-17)
(10.3659 1.67949 0)
(9.49596 1.67009 0)
(8.42214 0.193528 3.28755e-17)
(7.49763 -0.409906 3.24053e-17)
(7.12354 -0.0862586 0)
(6.93463 0.192838 -6.38018e-17)
(7.03058 0.253504 3.15886e-17)
(6.66253 0.381998 -3.13757e-17)
(7.25074 -0.473057 0)
(7.09156 -1.05492 0)
(7.84922 -2.45659 0)
(8.56716 -3.53816 0)
(9.86353 -3.71867 -3.02632e-17)
(11.0646 -3.54707 -6.05127e-17)
(12.1229 -3.19701 -3.00363e-17)
(13.1879 -2.40651 2.97107e-17)
(14.1735 -1.34286 0)
(14.9689 -0.0475313 -5.82208e-17)
(15.2181 1.61286 -5.7633e-17)
(15.4087 2.79872 -5.69249e-17)
(15.0886 3.96407 5.65353e-17)
(14.0667 4.35542 0)
(14.0808 2.01941 8.42353e-17)
(13.1357 0.449866 0)
(10.2833 1.76826 -2.75162e-17)
(7.33581 3.30579 -2.738e-17)
(5.02335 4.14572 0)
(3.22702 4.52263 0)
(1.92409 4.61292 -5.38195e-17)
(0.96234 4.50268 0)
(0.267151 4.24888 -5.31407e-17)
(-0.212626 3.78221 0)
(-0.515279 3.1429 5.26517e-17)
(-0.680352 2.52892 1.0483e-16)
(-0.746961 1.98416 0)
(-0.820807 1.51337 0)
(-0.831945 1.1893 0)
(-0.839902 0.936551 5.11886e-17)
(-0.868824 0.647016 0)
(-0.845119 0.335273 5.0516e-17)
(-0.733575 -0.0597353 0)
(-0.543469 -0.464034 0)
(-0.290855 -0.844467 -9.94064e-17)
(0.0452702 -1.03381 0)
(0.329302 -1.03449 -4.88877e-17)
(0.570726 -1.01329 0)
(0.877271 -1.33161 -4.81381e-17)
(1.1575 -1.59816 0)
(1.97408 -1.92453 0)
(1.52075 -1.34589 0)
(2.0628 -2.05078 -1.41638e-16)
(2.15299 -2.08511 -4.65687e-17)
(2.26911 -2.02047 0)
(3.02014 -2.51121 0)
(2.88129 -2.17256 0)
(3.65783 -2.74236 0)
(4.022 -2.38714 4.45764e-17)
(4.29315 -2.40529 -8.89828e-17)
(4.65675 -2.88663 -4.43894e-17)
(5.03703 -2.68716 8.75273e-17)
(5.58766 -2.59738 8.70823e-17)
(5.81502 -2.62186 4.35633e-17)
(6.07731 -2.88438 0)
(6.87976 -2.86017 8.50653e-17)
(7.90609 -2.08564 0)
(8.23321 -1.92381 -8.09062e-17)
(7.97374 -2.68651 -4.2845e-17)
(8.2826 -3.09092 0)
(9.26872 -2.6355 8.13624e-17)
(9.83761 -2.31515 3.99223e-17)
(10.2697 -2.33999 0)
(10.7334 -2.41476 3.89578e-17)
(11.1423 -2.47966 -1.12522e-16)
(11.5148 -2.38632 0)
(11.5785 -2.52126 0)
(11.9991 -2.66143 0)
(12.5548 -2.56713 0)
(13.1417 -2.62422 -6.96381e-17)
(13.1317 -2.61955 -6.92659e-17)
(13.1755 -2.37989 0)
(12.94 -2.04929 0)
(12.371 -2.07111 0)
(11.9055 -2.08849 0)
(11.642 -2.45137 0)
(11.8474 -3.20647 0)
(13.3969 -3.95244 -6.99789e-17)
(15.5374 -3.47505 2.08362e-20)
(16.5039 -2.84183 0)
(16.9528 -2.83417 0)
(16.89 -2.89997 -6.29108e-17)
(16.5061 -2.66832 0)
(16.51 -2.15154 6.15654e-17)
(15.8276 -1.68219 6.07045e-17)
(16.3388 -1.90367 0)
(16.2773 -1.57055 0)
(15.9348 -1.49132 -5.99759e-17)
(14.834 -1.2002 -1.18848e-16)
(13.6608 -0.919336 0)
(12.7801 -1.67806 0)
(12.9668 -4.0219 0)
(15.0307 -3.95856 -5.83198e-17)
(15.062 -2.33441 5.55288e-17)
(16.4967 -2.47921 0)
(18.1436 -1.89167 1.12784e-16)
(17.3715 -1.74294 5.40878e-17)
(16.4772 -1.68735 -1.01701e-16)
(16.0342 -1.59195 0)
(16.7192 -0.261324 0)
(15.2204 -0.10831 -9.6707e-17)
(14.0814 -0.405723 -4.91354e-17)
(10.9741 0.381031 0)
(9.2404 0.180192 0)
(7.38638 -0.172294 0)
(6.47333 -2.02853 0)
(6.87597 -4.00343 -9.8912e-17)
(8.80589 -4.56096 0)
(9.18913 -4.246 0)
(9.86838 -4.5134 0)
(12.6838 -4.10274 0)
(12.2636 -2.61073 0)
(11.9429 -2.29474 0)
(8.81072 -2.07378 -8.70093e-17)
(5.31338 -1.98645 0)
(2.88234 -2.7731 0)
(0.150848 -3.38236 -1.78128e-16)
(-5.67632 -5.11214 8.85745e-17)
(-0.241622 -4.59728 -8.36124e-17)
(0.0979437 -2.70644 8.82457e-17)
(0.130661 0.235948 0)
(-0.0675993 0.893805 -4.60397e-17)
(-0.310556 0.406854 0)
(-0.579011 -0.197863 -2.32566e-17)
(-0.711924 -0.801794 0)
(-0.784817 -1.28012 0)
(-0.762286 -1.40622 2.27931e-17)
(-0.787668 -1.23957 0)
(-0.829982 -1.14909 0)
(-0.862336 -1.26149 0)
(-0.872324 -1.5012 0)
(-0.978617 -1.64978 0)
(-1.19298 -1.53534 -8.55703e-17)
(-1.39145 -1.3115 -4.26593e-17)
(-1.57165 -1.15571 4.25909e-17)
(-1.76682 -1.06 0)
(-1.91566 -1.01522 0)
(-2.00951 -1.06978 0)
(-2.05785 -1.19114 0)
(-2.06593 -1.35298 0)
(-2.01868 -1.51465 -4.17415e-17)
(-1.95104 -1.67093 -4.1493e-17)
(-1.86377 -1.81062 4.11919e-17)
(-1.76956 -1.93844 -4.08487e-17)
(-1.67386 -2.04484 0)
(-1.58671 -2.14353 0)
(-1.45635 -2.22335 -3.96409e-17)
(-1.34428 -2.29902 0)
(-1.20697 -2.34951 0)
(-1.05084 -2.38458 -3.84591e-17)
(-0.849032 -2.42153 -3.80712e-17)
(-0.642973 -2.50152 -3.76945e-17)
(-0.415703 -2.59432 0)
(-0.0918142 -2.625 0)
(0.223174 -2.65887 3.69039e-17)
(0.588079 -2.70181 0)
(1.07644 -2.72808 0)
(1.51348 -2.74344 -3.61364e-17)
(2.02804 -2.64556 3.60001e-17)
(2.60478 -2.52657 -3.57932e-17)
(3.18207 -2.47976 0)
(3.90336 -2.1977 0)
(4.51351 -2.00372 -7.07588e-17)
(5.2081 -1.92253 0)
(6.08613 -1.33951 -6.99115e-17)
(6.63774 -1.11569 -1.04643e-16)
(7.53967 -0.912057 1.03192e-16)
(8.24389 -0.278135 -6.83359e-17)
(8.96812 -0.0715604 0)
(9.66171 0.206786 0)
(10.1095 0.666131 -6.64107e-17)
(10.8846 0.900517 -3.29861e-17)
(10.9511 1.21242 0)
(11.1576 1.33231 0)
(11.691 1.94714 -3.24037e-17)
(10.8329 1.99511 -6.50946e-17)
(9.76505 1.05382 0)
(9.07087 0.668388 6.36619e-17)
(8.6871 0.950144 -6.32867e-17)
(8.63637 0.772536 6.28467e-17)
(8.59896 -0.174742 0)
(8.36599 -1.08642 0)
(8.60585 -2.93344 0)
(8.7752 -4.39264 0)
(9.50816 -4.87491 0)
(10.2838 -4.66575 6.0618e-17)
(11.0189 -4.20176 0)
(11.6943 -3.31174 0)
(12.3331 -1.89523 0)
(12.7356 -0.208486 1.16109e-16)
(12.9979 1.74144 5.75103e-17)
(12.9095 3.47621 5.70558e-17)
(12.6304 4.51885 -1.13568e-16)
(12.3499 4.35815 5.65367e-17)
(10.9527 4.10473 -5.62656e-17)
(8.19747 4.78863 0)
(5.59707 5.54432 5.53311e-17)
(3.68014 6.00203 0)
(2.26213 6.10406 0)
(1.27086 5.9694 0)
(0.632693 5.66431 1.07675e-16)
(0.237486 5.25488 -5.35066e-17)
(-0.0145616 4.73119 -5.31895e-17)
(-0.160427 4.02997 -1.06005e-16)
(-0.175338 3.28728 -1.58346e-16)
(-0.188547 2.59478 -5.25878e-17)
(-0.234431 1.94575 0)
(-0.276839 1.43964 -1.04026e-16)
(-0.28003 1.08383 0)
(-0.271565 0.761357 -1.54174e-16)
(-0.209744 0.406954 0)
(-0.0762799 0.0307751 -1.5219e-16)
(0.123498 -0.434652 0)
(0.267594 -0.905104 0)
(0.424768 -1.36798 -4.97217e-17)
(0.746363 -1.71606 0)
(0.996337 -1.8013 4.91743e-17)
(1.29554 -1.78211 9.72209e-17)
(1.58015 -2.21865 4.83672e-17)
(1.94288 -2.6282 9.57139e-17)
(2.89352 -2.80583 -9.5065e-17)
(2.45493 -2.00837 -9.32754e-17)
(3.19028 -2.91541 1.87711e-16)
(2.97928 -3.02104 0)
(3.10894 -3.14104 0)
(3.69193 -3.67211 9.17046e-17)
(3.5555 -3.27452 -9.06896e-17)
(4.2359 -4.10953 0)
(4.70197 -3.75246 0)
(5.0354 -3.45447 8.87816e-17)
(5.40667 -4.18345 0)
(5.56696 -4.03639 -1.55023e-19)
(6.17396 -3.82566 -1.51666e-19)
(6.57714 -3.58529 8.44815e-17)
(6.79443 -4.0642 0)
(6.94334 -4.72985 -8.88654e-17)
(7.71407 -3.79528 0)
(8.9902 -2.81759 8.03244e-17)
(9.28625 -3.3257 0)
(8.93106 -4.39454 0)
(9.41973 -4.10862 -8.20737e-17)
(10.2085 -3.64415 -7.91733e-17)
(10.6257 -3.73593 0)
(11.1293 -3.6832 -8.11008e-17)
(11.8155 -3.41094 1.56783e-16)
(12.2976 -3.34178 0)
(12.3715 -3.55624 0)
(12.5564 -3.97311 0)
(13.0582 -3.91466 0)
(13.9484 -3.55705 7.02303e-17)
(14.2096 -3.26812 -1.38543e-16)
(13.829 -3.28893 0)
(13.1772 -2.89823 0)
(13.0017 -2.58898 0)
(12.552 -2.69538 0)
(12.5907 -3.18756 0)
(12.2433 -4.62908 0)
(13.0341 -6.491 0)
(14.8679 -5.70516 6.79138e-17)
(17.1381 -4.25045 0)
(17.8972 -3.9372 0)
(17.6965 -3.42409 6.23067e-17)
(16.6523 -2.9753 0)
(16.0652 -2.59257 0)
(14.7783 -2.53662 -5.98814e-17)
(15.4829 -3.25684 0)
(15.5533 -2.82358 0)
(16.2038 -2.35427 1.17551e-16)
(16.2717 -1.69339 1.17435e-16)
(15.4327 -1.66514 1.18823e-16)
(14.7591 -2.65863 0)
(15.0316 -5.57273 1.17567e-16)
(15.0904 -5.8091 0)
(14.7287 -3.74074 -1.10256e-16)
(16.4828 -4.47813 0)
(18.7808 -3.11242 -1.12735e-16)