/*--------------------------------*- C++ -*----------------------------------*\
| =========                 |                                                 |
| \\      /  F ield         | OpenFOAM: The Open Source CFD Toolbox           |
|  \\    /   O peration     | Version:  dev                                   |
|   \\  /    A nd           | Web:      http://www.openfoam.org               |
|    \\/     M anipulation  |                                                 |
\*---------------------------------------------------------------------------*/
FoamFile
{
    version     2.0;
    format      ascii;
    class       volSymmTensorField;
    object      UPrime2Mean;
    location    "9.15";
}
// * * * * * * * * * * * * * * * * * * * * * * * * * * * * * * * * * * * * * //

dimensions      [0 2 -2 0 0 0 0];

internalField   nonuniform List<symmTensor> 
12225
(
(0.329415 0.0192668 0 0.0692379 0 0)
(2.98782 0.0796781 0 0.0781571 0 0)
(7.88472 0.112276 0 0.0768611 0 0)
(14.5424 0.14817 0 0.0755375 0 0)
(22.7154 0.132925 0 0.0764847 0 0)
(32.0845 0.200997 0 0.0746405 0 0)
(42.4024 0.0958701 0 0.0765831 0 0)
(53.5518 0.200255 0 0.0738213 0 0)
(65.6515 -0.0285255 0 0.0775849 0 0)
(78.2548 0.12549 0 0.0735917 0 0)
(93.0077 -0.306306 0 0.0812876 0 0)
(107.355 -0.115956 0 0.0769645 0 0)
(127.974 -0.672245 0 0.0862934 0 0)
(145.68 -1.27705 0 0.134686 0 0)
(186.02 -1.4112 0 0.116446 0 0)
(198.597 -0.39104 0 2.39445 0 0)
(272.39 -33.5469 0 5.8099 0 0)
(575.986 -52.9599 0 18.8331 0 0)
(0.377608 0.0567949 0 0.688685 0 0)
(3.15788 0.252194 0 0.73196 0 0)
(8.41545 0.362052 0 0.713829 0 0)
(15.4821 0.485277 0 0.706327 0 0)
(24.2105 0.452848 0 0.703198 0 0)
(34.4752 0.632642 0 0.683033 0 0)
(45.5483 0.295929 0 0.691834 0 0)
(58.5105 0.608802 0 0.658513 0 0)
(71.5073 -0.135253 0 0.682381 0 0)
(87.1903 0.282365 0 0.64572 0 0)
(102.831 -1.06518 0 0.711054 0 0)
(121.483 -0.766232 0 0.655276 0 0)
(142.916 -2.54278 0 1.06885 0 0)
(166.385 -4.49072 0 1.0467 0 0)
(199.862 -0.926048 0 3.10361 0 0)
(274.496 -9.97479 0 6.60895 0 0)
(281.128 -20.8445 0 8.73855 0 0)
(800.164 -185.239 0 64.719 0 0)
(0.505161 0.0583663 0 2.13969 0 0)
(3.06564 0.424551 0 2.20158 0 0)
(8.47025 0.570439 0 2.15054 0 0)
(14.8607 0.851735 0 2.14202 0 0)
(24.2882 0.864345 0 2.11894 0 0)
(33.1681 1.05285 0 2.08175 0 0)
(45.2933 0.756079 0 2.07752 0 0)
(56.2308 0.886039 0 2.00675 0 0)
(69.7193 0.172094 0 2.05093 0 0)
(83.49 0.016512 0 1.95861 0 0)
(98.2336 -1.12355 0 2.12186 0 0)
(115.722 -2.44896 0 2.09392 0 0)
(138.687 -3.5967 0 2.62196 0 0)
(154.951 -7.20013 0 2.83128 0 0)
(211.117 -13.0133 0 6.12419 0 0)
(223.51 -7.88608 0 6.37887 0 0)
(353.21 -62.2847 0 31.088 0 0)
(534.795 -192.602 0 98.2829 0 0)
(1.02996 0.0923731 0 4.66855 0 0)
(3.55126 0.619399 0 4.76507 0 0)
(9.07346 0.815733 0 4.64093 0 0)
(15.0744 1.14978 0 4.60019 0 0)
(24.6492 1.31269 0 4.55594 0 0)
(33.0013 1.34961 0 4.48162 0 0)
(45.0284 1.26108 0 4.44668 0 0)
(55.1969 0.973058 0 4.3482 0 0)
(68.6352 0.475434 0 4.38 0 0)
(80.7557 -0.283361 0 4.25643 0 0)
(96.0835 -1.33171 0 4.50584 0 0)
(110.572 -3.34314 0 4.37106 0 0)
(131.538 -4.79511 0 5.3012 0 0)
(152.337 -10.9761 0 5.60798 0 0)
(187.949 -11.4301 0 9.2883 0 0)
(238.553 -28.8728 0 16.831 0 0)
(291.643 -58.9537 0 32.6866 0 0)
(414.973 -178.356 0 107.84 0 0)
(1.86426 0.365103 0 8.51925 0 0)
(5.01181 0.720332 0 8.72071 0 0)
(9.44108 1.13992 0 8.46961 0 0)
(16.2506 1.29452 0 8.36653 0 0)
(24.6623 1.70056 0 8.27695 0 0)
(33.9647 1.50217 0 8.14191 0 0)
(44.8442 1.59735 0 8.04129 0 0)
(55.5521 0.99237 0 7.90929 0 0)
(68.451 0.599516 0 7.85633 0 0)
(80.1637 -0.595031 0 7.75864 0 0)
(95.4206 -1.78058 0 7.96044 0 0)
(108.614 -4.23004 0 7.908 0 0)
(128.162 -6.88313 0 9.02535 0 0)
(145.297 -12.2922 0 9.2677 0 0)
(174.048 -19.2067 0 14.5906 0 0)
(218.008 -25.9665 0 17.2157 0 0)
(233.776 -55.6034 0 46.2691 0 0)
(326.795 -171.788 0 138.678 0 0)
(2.56353 0.750712 0 14.0343 0 0)
(6.32885 0.807271 0 14.386 0 0)
(9.30596 1.53991 0 13.9563 0 0)
(17.1063 1.59439 0 13.7616 0 0)
(24.1547 2.12039 0 13.587 0 0)
(34.2851 1.93623 0 13.3551 0 0)
(44.0004 1.99053 0 13.15 0 0)
(55.2012 1.41448 0 12.9094 0 0)
(67.3656 0.893325 0 12.7729 0 0)
(78.9521 -0.387745 0 12.5721 0 0)
(94.4784 -1.7404 0 12.7729 0 0)
(105.885 -4.31509 0 12.6817 0 0)
(128.185 -7.26996 0 13.9848 0 0)
(138.007 -13.1609 0 14.6652 0 0)
(171.063 -21.8416 0 21.2502 0 0)
(191.585 -33.0506 0 24.6057 0 0)
(211.145 -55.9264 0 51.5812 0 0)
(265.82 -145.712 0 130.66 0 0)
(2.24664 0.721966 0 21.5237 0 0)
(5.5482 0.941387 0 22.1397 0 0)
(9.20639 1.76365 0 21.3656 0 0)
(16.3505 2.07729 0 21.1779 0 0)
(23.9881 2.44949 0 20.7794 0 0)
(33.3845 2.5422 0 20.5463 0 0)
(43.6383 2.27327 0 20.0782 0 0)
(54.0821 1.92698 0 19.8483 0 0)
(66.5263 0.895118 0 19.4307 0 0)
(77.4078 -0.220457 0 19.278 0 0)
(92.5739 -2.37467 0 19.2185 0 0)
(103.558 -4.82623 0 19.2613 0 0)
(123.716 -8.98538 0 20.4717 0 0)
(133.998 -14.2658 0 21.4505 0 0)
(161.635 -24.4099 0 28.5166 0 0)
(169.476 -32.4181 0 32.0526 0 0)
(203.477 -59.0254 0 56.878 0 0)
(190.375 -108.827 0 114.175 0 0)
(1.4261 0.598955 0 29.7424 0 0)
(4.32551 1.13489 0 30.6276 0 0)
(8.58896 1.92392 0 29.4807 0 0)
(15.2612 2.47235 0 29.3095 0 0)
(23.2213 2.77677 0 28.6644 0 0)
(32.2854 2.9625 0 28.4035 0 0)
(42.4453 2.59685 0 27.6521 0 0)
(52.8215 2.1894 0 27.3716 0 0)
(64.4668 1.00488 0 26.6482 0 0)
(75.6594 -0.366453 0 26.4832 0 0)
(88.6986 -2.75588 0 26.1002 0 0)
(100.488 -5.74022 0 26.325 0 0)
(115.614 -10.3275 0 27.0819 0 0)
(128.148 -15.8069 0 28.5972 0 0)
(144.747 -26.5009 0 33.9135 0 0)
(152.11 -33.4695 0 37.478 0 0)
(180.438 -54.9152 0 53.1957 0 0)
(139.665 -71.3365 0 83.7089 0 0)
(1.00854 0.521492 0 38.5098 0 0)
(3.78098 1.28796 0 39.7038 0 0)
(8.18511 2.03561 0 38.1668 0 0)
(14.7363 2.77931 0 38.0258 0 0)
(22.6663 3.00494 0 37.1161 0 0)
(31.6046 3.31452 0 36.8411 0 0)
(41.5287 2.80298 0 35.7904 0 0)
(51.8038 2.47071 0 35.472 0 0)
(62.8655 1.03493 0 34.4636 0 0)
(73.8846 -0.285575 0 34.2638 0 0)
(85.708 -3.0515 0 33.6334 0 0)
(97.0706 -5.91022 0 33.8933 0 0)
(109.403 -10.9568 0 34.4031 0 0)
(121.282 -16.0487 0 36.1228 0 0)
(131.295 -25.5743 0 40.0074 0 0)
(138.218 -33.2198 0 44.7369 0 0)
(150.073 -47.3384 0 52.4683 0 0)
(123.267 -58.7687 0 73.1291 0 0)
(0.612577 0.484614 0 49.6917 0 0)
(3.23762 1.44584 0 51.2794 0 0)
(7.74554 2.18617 0 49.1836 0 0)
(14.2055 3.03519 0 49.0962 0 0)
(22.003 3.27214 0 47.8073 0 0)
(30.8644 3.57728 0 47.5279 0 0)
(40.4929 3.0622 0 46.0671 0 0)
(50.6315 2.63296 0 45.6986 0 0)
(61.1595 1.15699 0 44.2796 0 0)
(71.8315 -0.299315 0 44.0362 0 0)
(82.7171 -3.14974 0 42.9925 0 0)
(93.2634 -6.04774 0 43.3117 0 0)
(103.908 -11.1044 0 43.313 0 0)
(113.774 -15.8573 0 45.1697 0 0)
(121.387 -24.5193 0 47.6745 0 0)
(125.826 -30.5845 0 51.9445 0 0)
(129.163 -40.7337 0 56.4674 0 0)
(116.06 -48.406 0 69.0325 0 0)
(0.434333 0.516167 0 63.8803 0 0)
(2.98028 1.62709 0 65.9346 0 0)
(7.47273 2.38283 0 63.2437 0 0)
(13.8513 3.30911 0 63.1318 0 0)
(21.5003 3.56779 0 61.4985 0 0)
(30.2013 3.85652 0 61.0839 0 0)
(39.5631 3.35254 0 59.2765 0 0)
(49.4045 2.81348 0 58.6818 0 0)
(59.4774 1.36301 0 56.9617 0 0)
(69.5834 -0.275571 0 56.4441 0 0)
(79.6817 -2.99175 0 55.1422 0 0)
(89.2191 -6.09323 0 55.1983 0 0)
(98.539 -10.5665 0 54.8531 0 0)
(106.418 -15.4305 0 56.401 0 0)
(112.584 -22.1472 0 57.846 0 0)
(115.118 -28.0635 0 61.5757 0 0)
(116.064 -35.2113 0 64.5423 0 0)
(109.611 -40.8113 0 71.4422 0 0)
(0.356474 0.540454 0 81.3664 0 0)
(2.83251 1.74428 0 84.0506 0 0)
(7.26432 2.55379 0 80.5841 0 0)
(13.5208 3.49958 0 80.4748 0 0)
(20.9961 3.80636 0 78.3889 0 0)
(29.477 4.03313 0 77.8359 0 0)
(38.5364 3.55582 0 75.5473 0 0)
(48.0082 2.91312 0 74.7229 0 0)
(57.5635 1.47338 0 72.5315 0 0)
(67.0583 -0.232031 0 71.7447 0 0)
(76.273 -2.88312 0 69.99 0 0)
(84.8604 -5.86941 0 69.7312 0 0)
(92.7681 -9.97505 0 68.8965 0 0)
(99.1982 -14.3045 0 69.8506 0 0)
(103.913 -19.7525 0 70.494 0 0)
(105.858 -24.6663 0 72.9988 0 0)
(106.013 -29.8327 0 74.9416 0 0)
(101.766 -33.3179 0 78.5991 0 0)
(0.329376 0.56886 0 102.436 0 0)
(2.737 1.80585 0 105.644 0 0)
(7.07109 2.68155 0 101.62 0 0)
(13.1593 3.581 0 101.15 0 0)
(20.4392 3.93017 0 98.8869 0 0)
(28.6249 4.05032 0 97.8073 0 0)
(37.3596 3.60959 0 95.2935 0 0)
(46.3613 2.82676 0 93.8443 0 0)
(55.3912 1.46601 0 91.4086 0 0)
(64.1733 -0.351814 0 89.9579 0 0)
(72.5533 -2.7707 0 87.9318 0 0)
(80.1443 -5.70259 0 86.9582 0 0)
(86.8665 -9.21369 0 85.7471 0 0)
(92.1281 -13.1035 0 85.7548 0 0)
(95.8306 -17.3225 0 85.7054 0 0)
(97.4155 -21.3898 0 86.8478 0 0)
(97.5182 -25.235 0 87.8755 0 0)
(94.7137 -27.6908 0 89.4813 0 0)
(0.313753 0.573062 0 126.421 0 0)
(2.6416 1.77294 0 130.349 0 0)
(6.85016 2.66575 0 125.641 0 0)
(12.7349 3.46056 0 124.831 0 0)
(19.7726 3.78771 0 122.3 0 0)
(27.6243 3.80106 0 120.724 0 0)
(35.9669 3.32688 0 117.842 0 0)
(44.4777 2.47932 0 115.809 0 0)
(52.9156 1.1238 0 112.949 0 0)
(61.0102 -0.640144 0 110.859 0 0)
(68.5602 -2.90887 0 108.368 0 0)
(75.2845 -5.54149 0 106.642 0 0)
(81.0232 -8.59748 0 104.875 0 0)
(85.473 -11.8216 0 103.871 0 0)
(88.519 -15.1852 0 103.04 0 0)
(89.9569 -18.3533 0 102.866 0 0)
(90.2594 -21.2729 0 102.879 0 0)
(88.2964 -22.9204 0 103.033 0 0)
(0.299359 0.524539 0 151.828 0 0)
(2.53362 1.58057 0 156.328 0 0)
(6.58589 2.37557 0 151.2 0 0)
(12.2368 2.98513 0 149.761 0 0)
(18.9792 3.2081 0 147.202 0 0)
(26.4594 3.06562 0 144.89 0 0)
(34.361 2.52472 0 141.802 0 0)
(42.3515 1.59219 0 138.996 0 0)
(50.1894 0.26237 0 135.797 0 0)
(57.6097 -1.44297 0 132.921 0 0)
(64.4237 -3.50525 0 129.97 0 0)
(70.4034 -5.84339 0 127.398 0 0)
(75.4183 -8.42084 0 124.995 0 0)
(79.3057 -11.0734 0 122.994 0 0)
(82.0044 -13.712 0 121.28 0 0)
(83.4227 -16.1772 0 119.942 0 0)
(84.0053 -18.3761 0 118.853 0 0)
(82.7984 -19.4229 0 117.742 0 0)
(0.284069 0.393831 0 175.042 0 0)
(2.41518 1.14441 0 180.24 0 0)
(6.28557 1.66876 0 174.633 0 0)
(11.6749 2.00051 0 172.75 0 0)
(18.0834 1.99725 0 170.069 0 0)
(25.165 1.66004 0 167.218 0 0)
(32.5986 0.979043 0 163.832 0 0)
(40.0687 -0.0302705 0 160.436 0 0)
(47.3279 -1.365 0 156.819 0 0)
(54.143 -2.97727 0 153.306 0 0)
(60.3357 -4.84596 0 149.819 0 0)
(65.742 -6.87715 0 146.528 0 0)
(70.2569 -9.03177 0 143.432 0 0)
(73.8073 -11.1801 0 140.577 0 0)
(76.3636 -13.2443 0 137.987 0 0)
(77.8902 -15.1442 0 135.662 0 0)
(78.7724 -16.7919 0 133.55 0 0)
(78.2241 -17.3903 0 131.352 0 0)
(0.268844 0.15613 0 190.147 0 0)
(2.29428 0.390299 0 195.818 0 0)
(5.96897 0.487774 0 189.925 0 0)
(11.0791 0.408853 0 187.782 0 0)
(17.1374 0.0718566 0 185.036 0 0)
(23.8111 -0.536871 0 181.866 0 0)
(30.7829 -1.4064 0 178.287 0 0)
(37.7572 -2.52901 0 174.535 0 0)
(44.4979 -3.87906 0 170.624 0 0)
(50.7988 -5.4194 0 166.706 0 0)
(56.5067 -7.10657 0 162.814 0 0)
(61.5002 -8.87545 0 159.035 0 0)
(65.7038 -10.6716 0 155.399 0 0)
(69.0879 -12.4169 0 151.938 0 0)
(71.6456 -14.0356 0 148.673 0 0)
(73.3656 -15.5059 0 145.629 0 0)
(74.5608 -16.7423 0 142.738 0 0)
(74.6058 -17.0638 0 139.744 0 0)
(0.259194 -0.142619 0 190.12 0 0)
(2.19674 -0.534687 0 195.748 0 0)
(5.69226 -0.938487 0 189.919 0 0)
(10.5461 -1.49403 0 187.767 0 0)
(16.2887 -2.21481 0 185.064 0 0)
(22.6021 -3.11758 0 181.9 0 0)
(29.1782 -4.19147 0 178.347 0 0)
(35.7444 -5.43072 0 174.597 0 0)
(42.0778 -6.80488 0 170.673 0 0)
(48.0007 -8.2853 0 166.721 0 0)
(53.377 -9.8252 0 162.748 0 0)
(58.1184 -11.3821 0 158.863 0 0)
(62.1637 -12.903 0 155.051 0 0)
(65.5067 -14.3447 0 151.388 0 0)
(68.1464 -15.6419 0 147.847 0 0)
(70.0881 -16.8016 0 144.51 0 0)
(71.5652 -17.7484 0 141.262 0 0)
(72.0997 -17.9536 0 137.933 0 0)
(0.256024 -0.39637 0 174.308 0 0)
(2.13754 -1.30638 0 179.257 0 0)
(5.50145 -2.12803 0 173.93 0 0)
(10.1654 -3.07666 0 171.937 0 0)
(15.6744 -4.10532 0 169.456 0 0)
(21.7236 -5.23472 0 166.567 0 0)
(28.0157 -6.45779 0 163.316 0 0)
(34.2962 -7.77141 0 159.893 0 0)
(40.3548 -9.14712 0 156.289 0 0)
(46.0351 -10.565 0 152.661 0 0)
(51.2115 -11.9831 0 148.978 0 0)
(55.8159 -13.3749 0 145.372 0 0)
(59.795 -14.6955 0 141.79 0 0)
(63.1527 -15.9216 0 138.338 0 0)
(65.8871 -17.002 0 134.955 0 0)
(68.0157 -17.9515 0 131.755 0 0)
(69.7075 -18.7092 0 128.601 0 0)
(70.6053 -18.8971 0 125.402 0 0)
(0.257474 -0.545389 0 148.883 0 0)
(2.10973 -1.74724 0 152.838 0 0)
(5.38697 -2.82273 0 148.304 0 0)
(9.92326 -4.00612 0 146.587 0 0)
(15.2755 -5.20984 0 144.466 0 0)
(21.1478 -6.4589 0 142.013 0 0)
(27.2521 -7.74528 0 139.25 0 0)
(33.3465 -9.0708 0 136.345 0 0)
(39.2311 -10.4081 0 133.274 0 0)
(44.7622 -11.7472 0 130.183 0 0)
(49.8244 -13.0499 0 127.028 0 0)
(54.3584 -14.3029 0 123.934 0 0)
(58.318 -15.4669 0 120.84 0 0)
(61.7087 -16.533 0 117.852 0 0)
(64.5296 -17.4576 0 114.904 0 0)
(66.8029 -18.2596 0 112.107 0 0)
(68.6538 -18.8886 0 109.335 0 0)
(69.8148 -19.0982 0 106.545 0 0)
(0.260327 -0.601158 0 119.992 0 0)
(2.10077 -1.88935 0 122.96 0 0)
(5.32088 -3.06718 0 119.313 0 0)
(9.77176 -4.34002 0 117.919 0 0)
(15.0191 -5.5982 0 116.214 0 0)
(20.7737 -6.86783 0 114.25 0 0)
(26.7542 -8.13864 0 112.038 0 0)
(32.7279 -9.41594 0 109.711 0 0)
(38.5022 -10.6744 0 107.248 0 0)
(43.9416 -11.9108 0 104.765 0 0)
(48.9386 -13.0915 0 102.224 0 0)
(53.4387 -14.2118 0 99.7255 0 0)
(57.4005 -15.2375 0 97.2214 0 0)
(60.8288 -16.1682 0 94.7967 0 0)
(63.7238 -16.9672 0 92.3991 0 0)
(66.1105 -17.654 0 90.1163 0 0)
(68.0835 -18.1876 0 87.8521 0 0)
(69.4433 -18.4232 0 85.5776 0 0)
(0.263283 -0.590387 0 91.8526 0 0)
(2.10043 -1.8296 0 93.9669 0 0)
(5.28309 -2.99609 0 91.1769 0 0)
(9.67708 -4.24627 0 90.1036 0 0)
(14.8539 -5.46639 0 88.8046 0 0)
(20.5298 -6.67884 0 87.3101 0 0)
(26.4286 -7.87319 0 85.6299 0 0)
(32.3234 -9.05438 0 83.8584 0 0)
(38.0275 -10.2017 0 81.9831 0 0)
(43.4107 -11.3139 0 80.0865 0 0)
(48.3712 -12.364 0 78.1462 0 0)
(52.8568 -13.3504 0 76.2321 0 0)
(56.8299 -14.2456 0 74.3145 0 0)
(60.2936 -15.052 0 72.4517 0 0)
(63.2496 -15.7417 0 70.6108 0 0)
(65.7249 -16.3295 0 68.8514 0 0)
(67.7924 -16.7862 0 67.1091 0 0)
(69.305 -17.0357 0 65.3566 0 0)
(0.266356 -0.536595 0 66.9089 0 0)
(2.10426 -1.65049 0 68.3485 0 0)
(5.26176 -2.73009 0 66.3175 0 0)
(9.61799 -3.88271 0 65.5348 0 0)
(14.7475 -5.0021 0 64.5969 0 0)
(20.3711 -6.10412 0 63.5152 0 0)
(26.2163 -7.18074 0 62.3013 0 0)
(32.06 -8.23382 0 61.0159 0 0)
(37.7201 -9.24857 0 59.6573 0 0)
(43.0698 -10.2225 0 58.2778 0 0)
(48.0113 -11.1363 0 56.8692 0 0)
(52.4938 -11.9877 0 55.4749 0 0)
(56.4819 -12.7571 0 54.0813 0 0)
(59.9776 -13.4463 0 52.7229 0 0)
(62.9837 -14.0357 0 51.3832 0 0)
(65.5281 -14.5345 0 50.0977 0 0)
(67.6681 -14.9244 0 48.8283 0 0)
(69.2986 -15.1723 0 47.5476 0 0)
(0.268209 -0.462777 0 46.2725 0 0)
(2.10868 -1.41563 0 47.2108 0 0)
(5.24991 -2.36328 0 45.8105 0 0)
(9.58117 -3.37439 0 45.2726 0 0)
(14.679 -4.35531 0 44.6315 0 0)
(20.268 -5.31544 0 43.8879 0 0)
(26.0786 -6.24976 0 43.054 0 0)
(31.89 -7.15654 0 42.1669 0 0)
(37.5233 -8.02685 0 41.2316 0 0)
(42.8536 -8.85597 0 40.2787 0 0)
(47.786 -9.63168 0 39.309 0 0)
(52.2705 -10.3499 0 38.3466 0 0)
(56.2731 -10.9984 0 37.3873 0 0)
(59.7948 -11.5765 0 36.4495 0 0)
(62.8389 -12.0721 0 35.5265 0 0)
(65.4341 -12.4888 0 34.6376 0 0)
(67.6262 -12.8168 0 33.763 0 0)
(69.3426 -13.0472 0 32.8771 0 0)
(0.269373 -0.382996 0 30.1468 0 0)
(2.11222 -1.16445 0 30.7308 0 0)
(5.24317 -1.95794 0 29.821 0 0)
(9.55769 -2.80677 0 29.4738 0 0)
(14.6342 -3.6303 0 29.0618 0 0)
(20.1999 -4.43474 0 28.5814 0 0)
(25.9875 -5.21631 0 28.0423 0 0)
(31.7767 -5.97198 0 27.4668 0 0)
(37.3912 -6.69524 0 26.8609 0 0)
(42.707 -7.38133 0 26.2426 0 0)
(47.631 -8.02169 0 25.6148 0 0)
(52.1129 -8.61219 0 24.9905 0 0)
(56.1209 -9.14485 0 24.3696 0 0)
(59.6548 -9.61777 0 23.7611 0 0)
(62.7185 -10.0234 0 23.1632 0 0)
(65.3396 -10.3621 0 22.5856 0 0)
(67.5586 -10.6293 0 22.0188 0 0)
(69.3281 -10.8269 0 21.4433 0 0)
(0.269694 -0.304525 0 18.2048 0 0)
(2.11398 -0.919627 0 18.5489 0 0)
(5.2378 -1.55384 0 17.9984 0 0)
(9.53827 -2.23663 0 17.7924 0 0)
(14.5957 -2.90069 0 17.5494 0 0)
(20.1394 -3.55062 0 17.2649 0 0)
(25.9025 -4.18166 0 16.9448 0 0)
(31.6662 -4.7905 0 16.6019 0 0)
(37.255 -5.37058 0 16.2402 0 0)
(42.5455 -5.91843 0 15.8703 0 0)
(47.4469 -6.42675 0 15.4938 0 0)
(51.9078 -6.8932 0 15.1188 0 0)
(55.9 -7.31094 0 14.7453 0 0)
(59.4211 -7.67969 0 14.3787 0 0)
(62.4796 -7.99365 0 14.0183 0 0)
(65.098 -8.25339 0 13.6694 0 0)
(67.3201 -8.45808 0 13.3275 0 0)
(69.117 -8.60849 0 12.9808 0 0)
(0.269333 -0.22822 0 9.87837 0 0)
(2.11171 -0.691136 0 10.0618 0 0)
(5.22056 -1.17844 0 9.76473 0 0)
(9.49477 -1.70806 0 9.66238 0 0)
(14.522 -2.22239 0 9.53801 0 0)
(20.0322 -2.72275 0 9.38884 0 0)
(25.7584 -3.2048 0 9.2182 0 0)
(31.4841 -3.66605 0 9.03403 0 0)
(37.0338 -4.10076 0 8.83833 0 0)
(42.2871 -4.50737 0 8.63738 0 0)
(47.1525 -4.88027 0 8.43179 0 0)
(51.5832 -5.21961 0 8.22671 0 0)
(55.5501 -5.51961 0 8.0216 0 0)
(59.0549 -5.78246 0 7.8204 0 0)
(62.1051 -6.00206 0 7.62218 0 0)
(64.7224 -6.18195 0 7.43093 0 0)
(66.9482 -6.32508 0 7.24421 0 0)
(68.7785 -6.42715 0 7.05607 0 0)
(0.268188 -0.154771 0 4.48427 0 0)
(2.08484 -0.497761 0 4.57987 0 0)
(5.15925 -0.852164 0 4.45472 0 0)
(9.3939 -1.22844 0 4.41909 0 0)
(14.3955 -1.58542 0 4.36802 0 0)
(19.8802 -1.92767 0 4.30361 0 0)
(25.5798 -2.25259 0 4.22631 0 0)
(31.2795 -2.55791 0 4.13985 0 0)
(36.8061 -2.84203 0 4.04684 0 0)
(42.0387 -3.10613 0 3.95104 0 0)
(46.8873 -3.3473 0 3.85326 0 0)
(51.3087 -3.56638 0 3.7562 0 0)
(55.2697 -3.75964 0 3.65934 0 0)
(58.7805 -3.92914 0 3.56538 0 0)
(61.8372 -4.06875 0 3.47275 0 0)
(64.4734 -4.1838 0 3.3853 0 0)
(66.6963 -4.27429 0 3.30009 0 0)
(68.5547 -4.34434 0 3.21591 0 0)
(0.255291 -0.0881666 0 1.42043 0 0)
(2.06887 -0.313358 0 1.48614 0 0)
(5.20773 -0.525832 0 1.4461 0 0)
(9.50088 -0.734142 0 1.43295 0 0)
(14.556 -0.924184 0 1.41284 0 0)
(20.092 -1.10676 0 1.38958 0 0)
(25.8478 -1.28337 0 1.36295 0 0)
(31.6067 -1.45147 0 1.33363 0 0)
(37.1949 -1.60939 0 1.30265 0 0)
(42.4865 -1.75695 0 1.27104 0 0)
(47.3947 -1.89267 0 1.23924 0 0)
(51.8685 -2.01654 0 1.20783 0 0)
(55.8794 -2.12656 0 1.1768 0 0)
(59.43 -2.22337 0 1.14684 0 0)
(62.5202 -2.30289 0 1.11758 0 0)
(65.1879 -2.3691 0 1.0911 0 0)
(67.4106 -2.4217 0 1.0659 0 0)
(69.2611 -2.46118 0 1.03895 0 0)
(0.245964 -0.0253197 0 0.141786 0 0)
(2.06669 -0.0977925 0 0.153565 0 0)
(5.1866 -0.165504 0 0.150781 0 0)
(9.44889 -0.230724 0 0.149612 0 0)
(14.4853 -0.293602 0 0.147309 0 0)
(20.0086 -0.353916 0 0.144582 0 0)
(25.7578 -0.412722 0 0.141584 0 0)
(31.5143 -0.469207 0 0.138454 0 0)
(37.1095 -0.522541 0 0.135232 0 0)
(42.4191 -0.572536 0 0.131981 0 0)
(47.3577 -0.618888 0 0.128724 0 0)
(51.8724 -0.661567 0 0.125522 0 0)
(55.9367 -0.700001 0 0.12238 0 0)
(59.5459 -0.734047 0 0.119357 0 0)
(62.7063 -0.76297 0 0.116533 0 0)
(65.4508 -0.788213 0 0.114197 0 0)
(67.7637 -0.806427 0 0.112123 0 0)
(69.6919 -0.815715 0 0.111739 0 0)
(0.0244799 0.0357482 0 0.717109 0 0)
(0.26725 0.0990425 0 0.678208 0 0)
(0.785433 0.18079 0 0.671058 0 0)
(1.53887 0.294767 0 0.661839 0 0)
(2.48587 0.423691 0 0.660234 0 0)
(3.60819 0.568426 0 0.656949 0 0)
(4.88381 0.715442 -2.38492e-19 0.654967 -6.47899e-20 1.47773e-37)
(6.30985 0.866325 2.42514e-19 0.650644 6.90912e-20 1.48224e-37)
(7.87963 1.01325 0 0.644626 0 0)
(9.59117 1.16064 2.44952e-19 0.637053 6.85152e-20 1.46008e-37)
(11.4393 1.30463 0 0.628474 0 0)
(13.4181 1.44745 0 0.619389 0 0)
(15.5209 1.58451 0 0.611444 0 0)
(17.7415 1.71615 -2.77438e-19 0.604987 -5.16664e-20 1.34664e-37)
(20.0738 1.83919 0 0.598787 0 0)
(22.5181 1.95271 0 0.59357 0 0)
(25.0749 2.05252 3.40484e-19 0.589289 3.90417e-20 1.22023e-37)
(27.7426 2.14029 0 0.584849 0 0)
(30.5164 2.21865 0 0.580194 0 0)
(33.3904 2.28987 0 0.575761 0 0)
(36.3488 2.35296 -4.5614e-19 0.572437 -1.96081e-20 1.01726e-37)
(39.3822 2.40869 0 0.568684 0 0)
(42.4765 2.45514 -5.15796e-19 0.566425 -1.03323e-20 9.24723e-38)
(45.6227 2.49218 0 0.567625 0 0)
(48.8045 2.52596 0 0.568389 0 0)
(52.0079 2.54911 -6.03842e-19 0.570565 1.19649e-21 7.97227e-38)
(55.2258 2.55139 0 0.572401 0 0)
(58.4625 2.53407 6.57444e-19 0.570871 -6.92421e-21 7.21176e-38)
(61.712 2.50315 0 0.563001 0 0)
(64.98 2.46049 -7.02185e-19 0.552592 1.04797e-20 6.53559e-38)
(68.265 2.40868 0 0.539023 0 0)
(71.5543 2.35021 0 0.523198 0 0)
(74.8405 2.28492 0 0.509165 0 0)
(78.1249 2.20908 0 0.497788 0 0)
(81.4013 2.12208 0 0.486238 0 0)
(84.6664 2.02684 7.79333e-19 0.475338 -1.40009e-20 4.59649e-38)
(87.9189 1.92317 0 0.463729 0 0)
(91.1598 1.81094 -1.56194e-18 0.447726 2.71529e-20 1.61286e-37)
(94.3875 1.69172 0 0.432174 0 0)
(97.5973 1.56441 1.55208e-18 0.417581 -2.61664e-20 1.39908e-37)
(100.782 1.43148 0 0.40247 0 0)
(103.941 1.28931 0 0.39083 0 0)
(107.066 1.13885 -1.51423e-18 0.378296 2.15802e-20 1.11237e-37)
(110.138 0.986003 0 0.365497 0 0)
(113.144 0.831115 -1.47579e-18 0.354699 1.82895e-20 9.43099e-38)
(116.068 0.672955 1.45336e-18 0.345816 -1.6562e-20 8.66192e-38)
(118.894 0.508865 0 0.339584 0 0)
(121.615 0.338722 1.40263e-18 0.334753 -1.25229e-20 7.34053e-38)
(124.214 0.163373 1.37446e-18 0.3309 -1.06562e-20 6.79429e-38)
(126.692 -0.0144584 0 0.327636 0 0)
(129.033 -0.193776 0 0.325463 0 0)
(131.22 -0.377332 0 0.322764 0 0)
(133.23 -0.565856 0 0.321559 0 0)
(135.043 -0.756656 0 0.323613 0 0)
(136.633 -0.946442 -1.17417e-18 0.327834 -4.39163e-21 5.0154e-38)
(137.972 -1.13765 0 0.331955 0 0)
(139.046 -1.33354 1.07954e-18 0.335674 1.14714e-20 4.75041e-38)
(139.86 -1.53607 0 0.340943 0 0)
(140.408 -1.74492 0 0.347759 0 0)
(140.676 -1.95104 -9.11631e-19 0.357036 -2.24418e-20 4.75123e-38)
(140.658 -2.15538 0 0.368969 0 0)
(140.339 -2.36055 7.80309e-19 0.380991 3.12306e-20 4.96764e-38)
(139.724 -2.56457 0 0.39129 0 0)
(138.809 -2.76857 0 0.404075 0 0)
(137.604 -2.97174 0 0.41831 0 0)
(136.122 -3.16777 -4.82292e-19 0.432858 -4.75576e-20 6.03325e-38)
(134.364 -3.35666 0 0.447435 0 0)
(132.346 -3.53912 0 0.460505 0 0)
(130.076 -3.71463 -2.26552e-19 0.474428 -6.1222e-20 7.30193e-38)
(127.574 -3.8885 0 0.49033 0 0)
(124.876 -4.05435 -5.07332e-20 0.505642 -6.99188e-20 8.30007e-38)
(121.996 -4.20711 0 0.520544 0 0)
(118.951 -4.3484 0 0.536712 0 0)
(115.774 -4.48007 0 0.553966 0 0)
(112.49 -4.60179 -3.04991e-19 0.571955 8.31555e-20 1.04538e-37)
(109.115 -4.71129 0 0.589986 0 0)
(105.665 -4.80523 0 0.607806 0 0)
(102.15 -4.88392 -5.64206e-19 0.625755 9.03149e-20 1.20153e-37)
(98.5845 -4.95174 -6.45996e-19 0.64438 9.18579e-20 1.25261e-37)
(94.9942 -5.00841 0 0.663058 0 0)
(91.4104 -5.0532 -7.98958e-19 0.682711 9.46158e-20 1.34675e-37)
(87.854 -5.0869 0 0.703876 0 0)
(84.3458 -5.10888 -1.87725e-18 0.725435 1.92541e-19 5.74334e-37)
(80.9003 -5.11794 0 0.748067 0 0)
(77.5352 -5.11247 -2.12196e-18 0.770625 1.93691e-19 6.07475e-37)
(74.2686 -5.09058 0 0.793558 0 0)
(71.1151 -5.05566 2.32445e-18 0.819513 -1.9385e-19 6.36441e-37)
(68.0918 -5.0075 0 0.844527 0 0)
(65.2131 -4.94073 0 0.866828 0 0)
(62.4789 -4.85514 0 0.889524 0 0)
(59.8935 -4.75288 -2.58525e-18 0.914529 1.86288e-19 6.79807e-37)
(57.4626 -4.63634 0 0.939131 0 0)
(55.1956 -4.50379 2.64625e-18 0.96339 -1.80023e-19 6.94537e-37)
(53.0952 -4.35498 0 0.987142 0 0)
(51.1504 -4.18399 -2.65839e-18 1.01071 1.73684e-19 7.03404e-37)
(49.3561 -3.99634 -2.64934e-18 1.03202 1.70453e-19 7.06931e-37)
(47.7002 -3.79609 -2.63048e-18 1.05327 1.66294e-19 7.09623e-37)
(46.1786 -3.58681 0 1.07567 0 0)
(44.7645 -3.36737 0 1.09878 0 0)
(43.4685 -3.13897 0 1.11835 0 0)
(42.2715 -2.90153 0 1.13816 0 0)
(41.1688 -2.66229 0 1.15804 0 0)
(40.1421 -2.42258 0 1.17705 0 0)
(39.1879 -2.17996 0 1.19217 0 0)
(38.2607 -1.93666 0 1.20816 0 0)
(37.3582 -1.70009 2.02645e-18 1.22349 -1.31626e-19 7.07477e-37)
(36.4476 -1.47185 1.91249e-18 1.24067 -1.24293e-19 7.0685e-37)
(35.5531 -1.25282 0 1.25235 0 0)
(34.6402 -1.04272 0 1.26538 0 0)
(33.7191 -0.856116 0 1.27941 0 0)
(32.7371 -0.679786 1.35481e-18 1.29203 -1.04656e-19 6.9107e-37)
(31.7943 -0.529468 0 1.29932 0 0)
(30.7832 -0.387185 0 1.30915 0 0)
(29.8264 -0.284303 0 1.31924 0 0)
(28.898 -0.200744 0 1.33249 0 0)
(28.0673 -0.150443 -4.39054e-19 1.34095 7.57646e-20 6.6619e-37)
(27.3669 -0.124363 0 1.35032 0 0)
(26.8295 -0.133684 0 1.36378 0 0)
(26.5396 -0.176565 -2.2316e-19 1.3717 -6.55557e-20 6.4279e-37)
(26.4962 -0.245739 4.50257e-19 1.38445 6.11674e-20 6.30157e-37)
(26.7502 -0.35536 0 1.40136 0 0)
(27.3549 -0.512041 9.13014e-19 1.4188 6.00849e-20 6.05331e-37)
(28.3766 -0.709116 0 1.43788 0 0)
(29.8755 -0.961081 -1.35472e-18 1.45555 -6.45244e-20 5.75643e-37)
(31.8724 -1.24753 0 1.47835 0 0)
(34.4421 -1.58343 0 1.50543 0 0)
(37.4808 -1.96121 0 1.53811 0 0)
(41.0974 -2.3894 0 1.57238 0 0)
(45.145 -2.84363 0 1.61057 0 0)
(49.6298 -3.34545 4.89967e-18 1.65281 2.04776e-19 1.97225e-36)
(54.4927 -3.89127 5.15481e-18 1.69904 2.30578e-19 1.93761e-36)
(59.7534 -4.47316 0 1.74754 0 0)
(65.217 -5.07544 0 1.80322 0 0)
(70.8357 -5.70232 0 1.85847 0 0)
(76.4616 -6.3161 -5.69521e-18 1.91924 -3.52385e-19 1.91768e-36)
(81.872 -6.93102 0 1.99033 0 0)
(87.0283 -7.55269 0 2.06265 0 0)
(91.8717 -8.16729 0 2.139 0 0)
(96.3198 -8.75797 -5.33586e-18 2.21745 -5.33606e-19 2.07262e-36)
(100.337 -9.32358 5.10232e-18 2.30237 5.83387e-19 2.13501e-36)
(103.747 -9.84668 0 2.39181 0 0)
(106.652 -10.3563 0 2.48442 0 0)
(109.024 -10.8105 4.0815e-18 2.57887 7.35583e-19 2.36679e-36)
(110.86 -11.2289 3.65176e-18 2.67221 7.84521e-19 2.45204e-36)
(112.013 -11.5729 0 2.77246 0 0)
(112.579 -11.887 0 2.8724 0 0)
(112.454 -12.129 -2.05325e-18 2.97635 -9.46003e-19 2.71988e-36)
(111.769 -12.3529 1.4236e-18 3.07131 9.89584e-19 2.79865e-36)
(110.57 -12.5065 0 3.16808 0 0)
(108.657 -12.6059 0 3.26866 0 0)
(106.149 -12.6388 -5.21101e-19 3.35954 1.11737e-18 3.06938e-36)
(103.01 -12.6178 0 3.44998 0 0)
(99.5248 -12.5589 0 3.5335 0 0)
(95.5317 -12.4092 -2.54775e-18 3.60593 1.20623e-18 3.30219e-36)
(91.2301 -12.1875 0 3.67786 0 0)
(86.6053 -11.8548 -3.83069e-18 3.7393 1.2572e-18 3.44537e-36)
(81.7187 -11.4369 0 3.79505 0 0)
(76.6117 -10.9011 0 3.83422 0 0)
(71.6687 -10.2672 0 3.85824 0 0)
(66.7887 -9.46902 5.86926e-18 3.87697 -1.27788e-18 3.68247e-36)
(62.1341 -8.55129 0 3.88039 0 0)
(57.9212 -7.48151 0 3.86838 0 0)
(54.4696 -6.29208 0 3.84054 0 0)
(51.6202 -4.9136 0 3.79854 0 0)
(49.5287 -3.45485 0 3.74807 0 0)
(48.8116 -1.90148 0 3.67595 0 0)
(49.6532 -0.278407 6.02009e-18 3.58616 -1.10428e-18 3.72784e-36)
(51.7216 1.43436 5.60423e-18 3.4879 -1.04989e-18 3.71003e-36)
(55.4311 3.12629 0 3.37641 0 0)
(60.6908 4.75274 0 3.25847 0 0)
(67.5024 6.33258 0 3.12885 0 0)
(75.4434 7.8058 -3.05018e-18 2.99911 7.9504e-19 3.38403e-36)
(84.573 9.10755 0 2.87093 0 0)
(94.1296 10.296 2.94425e-18 2.73613 -1.35071e-18 1.23632e-35)
(104.009 11.2532 -1.30723e-18 2.60569 1.21803e-18 1.16635e-35)
(113.639 12.0422 3.20627e-19 2.47413 1.10505e-18 1.10196e-35)
(123.286 12.6918 -2.02558e-18 2.34923 -1.01423e-18 1.03363e-35)
(131.402 13.2323 3.68041e-18 2.23014 9.22971e-19 9.76213e-36)
(139.275 13.7086 -5.28536e-18 2.12281 -9.03498e-19 8.99535e-36)
(143.028 14.4006 0 2.06686 0 0)
(0.0183087 0.174163 0 6.09453 0 0)
(0.202726 0.387668 0 6.03269 0 0)
(0.629523 0.609385 1.3183e-19 5.8601 1.75718e-19 6.76105e-37)
(1.32714 0.853643 0 5.7394 0 0)
(2.26939 1.13266 -1.92759e-19 5.67954 -3.5309e-19 9.18812e-37)
(3.44564 1.43726 -1.84619e-19 5.65222 -4.40794e-19 9.71857e-37)
(4.83469 1.76183 -8.11435e-20 5.63662 -2.51058e-19 2.48801e-37)
(6.42221 2.1023 -6.9505e-20 5.61845 -2.69964e-19 2.61055e-37)
(8.20042 2.45133 0 5.59007 0 0)
(10.1674 2.80445 -4.28132e-20 5.54749 -2.68855e-19 2.59232e-37)
(12.3244 3.15284 0 5.49565 0 0)
(14.6698 3.49417 0 5.4361 0 0)
(17.1953 3.82324 9.58854e-20 5.36793 4.23655e-19 9.50527e-37)
(19.9016 4.13964 7.00238e-20 5.29621 1.86935e-19 2.33991e-37)
(22.7782 4.4336 -1.86289e-19 5.22121 -3.26475e-19 8.93132e-37)
(25.8191 4.70515 -2.5232e-19 5.14319 -2.81576e-19 8.65446e-37)
(29.013 4.95581 -1.71372e-19 5.05898 -1.18694e-19 2.12635e-37)
(32.3537 5.1871 0 4.96837 0 0)
(35.8293 5.3973 0 4.87281 0 0)
(39.4312 5.59096 0 4.77023 0 0)
(43.1361 5.76737 -3.86275e-19 4.66539 -3.70201e-20 1.80284e-37)
(46.9351 5.9238 0 4.56091 0 0)
(50.8054 6.05192 1.6073e-18 4.4544 -1.55011e-20 1.55078e-36)
(54.7345 6.15542 0 4.35146 0 0)
(58.7053 6.2359 0 4.24628 0 0)
(62.7003 6.2935 7.74099e-19 4.14202 -5.7498e-20 1.56378e-37)
(66.6921 6.32497 0 4.03599 0 0)
(70.6616 6.33955 -9.32189e-19 3.9353 8.16162e-20 1.45876e-37)
(74.5753 6.33088 -1.99197e-18 3.83524 1.81194e-19 5.5663e-37)
(78.4233 6.29375 1.07623e-18 3.73243 -9.85706e-20 1.36507e-37)
(82.2015 6.22514 0 3.62456 0 0)
(85.9099 6.1286 0 3.51919 0 0)
(89.5351 6.00658 0 3.41583 0 0)
(93.0808 5.8602 -2.57491e-18 3.30771 2.22541e-19 4.70995e-37)
(96.5388 5.68398 -2.65322e-18 3.2003 2.20113e-19 4.54863e-37)
(99.9227 5.47829 -1.37282e-18 3.09938 1.07513e-19 1.10691e-37)
(103.241 5.24145 0 3.00754 0 0)
(106.485 4.96857 2.83657e-18 2.9195 -2.02954e-19 4.12603e-37)
(109.667 4.65758 0 2.8344 0 0)
(112.777 4.31782 -2.87348e-18 2.75299 1.88437e-19 3.81389e-37)
(115.824 3.95036 0 2.67275 0 0)
(118.805 3.56302 0 2.60069 0 0)
(121.726 3.15967 2.82686e-18 2.52988 -1.54155e-19 3.31552e-37)
(124.571 2.73744 0 2.46466 0 0)
(127.323 2.28963 8.15839e-18 2.40675 -3.93756e-19 2.68343e-36)
(129.979 1.81201 -2.68838e-18 2.36143 1.19308e-19 2.83589e-37)
(132.543 1.30874 0 2.33419 0 0)
(135.031 0.779826 -2.54883e-18 2.3182 9.10517e-20 2.51654e-37)
(137.427 0.218004 -2.4683e-18 2.31176 7.67943e-20 2.36088e-37)
(139.731 -0.370036 0 2.31395 0 0)
(141.919 -0.969699 0 2.32725 0 0)
(143.973 -1.56669 0 2.34227 0 0)
(145.878 -2.15157 0 2.35577 0 0)
(147.597 -2.72868 0 2.37928 0 0)
(149.116 -3.30684 1.88359e-18 2.41201 1.44613e-20 1.7192e-37)
(150.414 -3.8936 3.45168e-18 2.4553 7.10543e-20 6.55205e-37)
(151.47 -4.48392 -1.64473e-18 2.50644 -5.58826e-20 1.59937e-37)
(152.296 -5.09261 0 2.56264 0 0)
(152.865 -5.70297 2.68774e-18 2.62596 1.90262e-19 6.00814e-37)
(153.149 -6.29343 -1.17021e-18 2.69428 -1.13247e-19 1.46704e-37)
(153.175 -6.87968 0 2.77112 0 0)
(152.895 -7.46075 -9.78166e-19 2.86115 -1.48527e-19 1.49345e-37)
(152.319 -8.01982 0 2.95458 0 0)
(151.443 -8.56961 0 3.0557 0 0)
(150.264 -9.10182 -1.0479e-18 3.16289 -3.96528e-19 6.24999e-37)
(148.77 -9.60524 4.2279e-19 3.27494 2.15008e-19 1.63611e-37)
(146.995 -10.0993 -4.89207e-19 3.39451 -4.62087e-19 6.67863e-37)
(144.933 -10.5717 2.12378e-19 3.51922 4.89134e-19 6.9164e-37)
(142.606 -11.0146 1.01001e-20 3.64364 2.54463e-19 1.82563e-37)