/*--------------------------------*- C++ -*----------------------------------*\
| =========                 |                                                 |
| \\      /  F ield         | OpenFOAM: The Open Source CFD Toolbox           |
|  \\    /   O peration     | Version:  dev                                   |
|   \\  /    A nd           | Web:      http://www.openfoam.org               |
|    \\/     M anipulation  |                                                 |
\*---------------------------------------------------------------------------*/
FoamFile
{
    version     2.0;
    format      ascii;
    class       volScalarField;
    object      k;
    location    "9.143";
}
// * * * * * * * * * * * * * * * * * * * * * * * * * * * * * * * * * * * * * //

dimensions      [0 2 -2 0 0 0 0];

internalField   nonuniform List<scalar> 
12225
(
9.09677
13.189
10.7646
13.7119
12.8645
19.6677
19.8352
27.9758
29.4195
37.2691
41.0196
51.8073
54.2959
66.8067
68.9353
114.094
109.421
118.063
1.88481
6.01139
5.34584
6.20141
5.35401
6.42155
6.13932
7.1834
7.462
8.13555
9.11631
9.74461
12.1537
11.3258
11.972
15.675
14.4781
18.1312
0.192969
1.85123
2.16856
3.38589
3.24861
3.71312
3.61955
3.93192
3.89982
4.08709
4.04459
4.28763
4.80753
4.73749
4.28815
3.4829
3.83671
3.94518
0.0238209
0.482863
0.699579
1.26978
1.36408
1.54822
1.65005
1.7473
1.82578
1.8684
1.85008
1.85195
2.16763
2.52199
2.44778
2.2097
2.73416
3.91665
0.00463684
0.10313
0.206765
0.364214
0.529074
0.566181
0.713731
0.724904
0.834258
0.829988
0.913369
0.891791
1.32411
1.43776
1.98737
1.80505
3.12803
3.69286
0.00893755
0.0946199
0.129135
0.245309
0.294247
0.39582
0.423996
0.500984
0.536738
0.685111
0.692848
0.791731
0.917986
1.64284
1.58314
1.57518
1.99827
2.32071
0.0209661
0.0938656
0.121493
0.236246
0.263187
0.340854
0.347627
0.416769
0.48875
0.601219
0.615866
0.675542
0.86857
1.1413
1.16698
1.06744
1.4867
1.25369
0.0260349
0.0546328
0.0811475
0.144486
0.208552
0.207005
0.211562
0.231734
0.348318
0.375011
0.392943
0.393631
0.514248
0.541189
0.542901
0.431005
0.440006
1.22134
0.0278156
0.0487504
0.0660733
0.100388
0.141073
0.149529
0.153879
0.161549
0.218678
0.235993
0.244163
0.241047
0.281825
0.301157
0.325096
0.313171
0.339267
0.533013
0.0446945
0.0695074
0.0776261
0.101187
0.13064
0.140661
0.14826
0.152195
0.178403
0.194919
0.201429
0.206774
0.215258
0.252654
0.26703
0.305662
0.297437
0.403907
0.0910825
0.138853
0.132795
0.138949
0.148961
0.157757
0.160772
0.164874
0.180314
0.1982
0.202996
0.208561
0.213567
0.238426
0.24903
0.273786
0.270855
0.307117
0.21416
0.260989
0.249836
0.253125
0.24138
0.242114
0.230751
0.23034
0.225553
0.233831
0.235849
0.241399
0.241864
0.251241
0.259403
0.278436
0.282152
0.309832
0.462778
0.476331
0.453886
0.447005
0.42104
0.411277
0.38387
0.37704
0.364627
0.363282
0.359683
0.356253
0.337393
0.326899
0.326021
0.331095
0.336131
0.342573
0.793629
0.772395
0.719104
0.692144
0.630626
0.614874
0.57357
0.561659
0.541625
0.538889
0.524028
0.519217
0.499298
0.489278
0.480984
0.480161
0.476553
0.464688
1.43032
1.35803
1.26525
1.19047
1.10408
1.04642
0.968648
0.912555
0.852937
0.811154
0.761654
0.72414
0.682701
0.654741
0.623287
0.604747
0.577211
0.561763
2.2041
2.04926
1.85348
1.65493
1.48291
1.34495
1.219
1.11802
1.02696
0.95403
0.884182
0.829433
0.773424
0.733099
0.689427
0.661245
0.622418
0.601902
2.79018
2.4555
2.11647
1.85946
1.64438
1.46921
1.31996
1.19987
1.09447
1.00949
0.931039
0.869709
0.807896
0.761961
0.712609
0.679368
0.637081
0.614065
2.81735
2.4881
2.15675
1.89372
1.67247
1.49113
1.33796
1.21394
1.106
1.01874
0.938451
0.875411
0.8123
0.765187
0.714744
0.680066
0.636801
0.613271
2.54142
2.28824
2.02948
1.80442
1.6077
1.44198
1.29913
1.18132
1.07727
0.99246
0.915092
0.854416
0.792038
0.745543
0.695871
0.660438
0.617103
0.593968
1.753
1.63642
1.53203
1.42741
1.33037
1.23526
1.13711
1.04893
0.963841
0.891143
0.826224
0.775863
0.718926
0.676728
0.632139
0.598995
0.558328
0.537841
1.13775
1.04553
0.954636
0.894802
0.842673
0.793265
0.745457
0.711203
0.671493
0.633297
0.60265
0.581016
0.539843
0.509555
0.478862
0.453963
0.42271
0.408136
0.659709
0.628703
0.604175
0.586216
0.559548
0.532164
0.502186
0.474751
0.441605
0.408593
0.383556
0.366306
0.344489
0.329698
0.316743
0.306727
0.294546
0.288201
0.352409
0.348772
0.345047
0.339109
0.325574
0.303725
0.290629
0.282984
0.279381
0.276235
0.273238
0.270458
0.265912
0.262348
0.25962
0.257602
0.254006
0.251526
0.168027
0.178167
0.177467
0.175412
0.176954
0.184725
0.197834
0.214833
0.229508
0.240043
0.246208
0.249031
0.249499
0.250488
0.251025
0.250824
0.250297
0.249201
0.06871
0.0760711
0.0840789
0.105565
0.132375
0.159997
0.187452
0.214989
0.238356
0.255848
0.266668
0.272405
0.274889
0.277257
0.279565
0.28056
0.28068
0.280189
0.0197731
0.0364703
0.0616187
0.109886
0.165509
0.220871
0.270237
0.318344
0.358545
0.388584
0.406377
0.414048
0.417423
0.421044
0.423978
0.425417
0.425797
0.424865
0.00698339
0.0495516
0.150078
0.317854
0.478374
0.610549
0.706637
0.783845
0.840568
0.875483
0.889192
0.89056
0.887402
0.887415
0.886251
0.882008
0.877353
0.870135
0.0281372
0.335395
0.90035
1.42814
1.81651
2.06126
2.15671
2.18818
2.18607
2.17039
2.14765
2.10489
2.07318
2.04296
2.01037
1.96705
1.9253
1.88726
0.45155
2.80442
4.1638
4.5241
4.53099
4.39744
4.26711
4.19454
4.10778
4.02311
3.94951
3.87679
3.82526
3.76207
3.70672
3.62345
3.55227
3.45498
7.12626
11.4597
11.1011
9.37333
8.45813
8.35066
8.55872
8.97238
9.46779
9.92292
10.3111
10.6255
10.8546
10.9856
11.0409
10.9782
10.8464
10.5657
0.148652
0.161249
0.170492
0.179053
0.193812
0.215339
0.243016
0.27464
0.310254
0.350896
0.396257
0.447796
0.507101
0.571081
0.644826
0.727779
0.81563
0.919497
1.03235
1.13359
1.23828
1.36628
1.52427
1.68744
1.83301
2.04926
2.29731
2.53997
2.83101
3.14548
3.46157
3.71533
3.97709
4.16883
4.31966
4.57093
4.78477
4.91872
5.06972
5.28233
5.45866
5.60996
5.78307
6.09776
6.62957
7.31899
7.80505
8.06981
8.33814
8.64208
8.91517
9.05674
9.21713
9.44878
9.77435
10.1355
10.5056
10.8887
11.233
11.5395
11.8155
12.0823
12.2866
12.4505
12.57
12.661
12.7488
12.8515
12.9912
13.1492
13.3608
13.6797
14.1022
14.6444
15.3031
16.0978
16.991
17.9451
18.6775
18.9164
18.9521
18.5922
17.6671
16.4365
14.9205
13.2633
11.6299
10.1204
8.73276
7.44936
6.36073
5.51707
4.7651
4.23348
3.87579
3.447
3.22589
2.98539
2.86051
2.71728
2.62305
2.56323
2.53986
2.55065
2.62453
2.89802
3.31291
3.53177
3.58276
3.54922
3.4134
3.27148
2.99553
2.56463
2.0996
1.63621
1.42354
1.53346
1.97264
2.05086
1.94713
1.94883
2.03365
2.79124
5.36714
6.82948
6.84077
5.98089
5.56665
5.57988
6.41652
7.92373
9.8559
12.705
14.8707
15.2107
15.1368
17.5009
18.3321
17.1743
17.7957
15.2153
16.1923
15.1348
14.7089
13.2943
13.3386
12.3089
10.8821
10.0681
9.63156
9.3531
9.28774
9.53428
10.6944
12.1867
12.849
11.9681
10.8135
9.78132
8.97724
9.14571
10.2527
10.9039
10.4769
10.748
10.1048
8.96237
8.58052
9.64894
11.8141
13.6641
16.2162
17.2079
18.6753
20.0874
21.0549
22.2382
23.0689
24.7358
0.774174
0.354736
0.22313
0.193023
0.195512
0.211937
0.240143
0.269357
0.294756
0.321524
0.349517
0.378828
0.412809
0.445686
0.471548
0.510315
0.547024
0.557009
0.582932
0.635508
0.651153
0.651453
0.665426
0.675234
0.675125
0.691468
0.718576
0.739846
0.815498
0.934268
1.07448
1.37309
1.61722
1.69102
1.74392
1.75233
1.57574
1.24926
1.01705
0.865213
0.722562
0.697202
0.700949
0.738859
0.849544
1.10493
1.46726
1.56074
1.56183
1.56332
1.6434
1.75523
1.88155
2.00456
2.26976
2.67599
3.11428
3.45343
3.6753
3.86753
3.96123
4.01142
4.04481
4.07248
4.11362
4.18723
4.30418
4.46529
4.6168
4.76671
4.9696
5.16439
5.37399
5.55311
5.66166
5.71253
5.69295
5.48591
5.17539
4.77342
4.32768
3.86243
3.39658
2.95677
2.54802
2.20702
1.96017
1.7441
1.56461
1.41086
1.30265
1.24458
1.19448
1.16999
1.14953
1.1222
1.14206
1.13793
1.14527
1.13728
1.12299
1.10221
1.10846
1.12189
1.11662
1.22047
1.51198
1.80203
1.95671
2.02083
2.04864
2.14666
2.19404
2.01036
1.64892
1.27331
1.12043
1.14846
1.37924
1.49088
1.62433
2.12844
3.56605
4.7487
5.13091
4.85844
3.52466
3.05651
3.00009
3.28809
3.95862
4.80523
5.93779
7.12558
7.23885
6.69994
6.77252
8.02453
7.69642
7.03745
7.69646
6.78548
8.22497
7.61126
7.6841
7.57175
7.56698
6.57398
6.1276
6.35032
6.5878
6.82209
6.37145
6.2757
6.9905
8.26855
10.0435
10.2008
9.65024
8.9775
7.87371
7.44891
7.96741
8.63256
8.30518
8.22644
7.76669
6.56965
5.46903
5.51356
6.30117
7.51648
8.89718
9.49362
9.79697
10.9639
13.182
14.8505
14.8346
14.9441
2.18548
0.869772
0.437484
0.302917
0.299465
0.331022
0.389384
0.44494
0.473646
0.490112
0.50161
0.508243
0.510335
0.519396
0.524858
0.525454
0.536571
0.550486
0.546318
0.549783
0.568564
0.571573
0.585429
0.589443
0.591611
0.59327
0.581602
0.584802
0.572204
0.562929
0.568887
0.582104
0.618964
0.72371
0.855826
0.873867
0.841592
0.76963
0.693395
0.565682
0.459882
0.444064
0.445573
0.440767
0.430216
0.432217
0.467441
0.569614
0.781642
1.10309
1.44248
1.75624
1.94511
1.99723
2.00745
2.00633
1.92839
1.85226
1.81785
1.78248
1.75599
1.73336
1.73295
1.73983
1.76171
1.80531
1.85371
1.88446
1.92329
1.97639
2.05003
2.12276
2.15339
2.15954
2.10046
1.95676
1.7771
1.55551
1.3618
1.19899
1.06441
0.962241
0.886923
0.827178
0.787052
0.75845
0.738065
0.71882
0.696475
0.671948
0.648956
0.643107
0.639206
0.632997
0.61859
0.613754
0.624506
0.628482
0.63644
0.63755
0.636595
0.626302
0.609188
0.583362
0.568163
0.584405
0.687972
0.881127
0.999097
1.06955
1.13245
1.2011
1.34108
1.5057
1.45968
1.23011
1.03653
1.05517
1.20014
1.37628
1.75976
3.10401
4.1981
4.58243
3.95826
2.61944
2.13175
2.07518
2.11013
2.29495
2.60647
3.0895
3.75145
4.07044
3.99101
3.65287
3.69872
4.2325
3.91127
3.71426
3.95227
3.86692
4.50723
4.26493
4.43288
4.67222
5.04729
4.03023
3.70129
4.06897
4.25668
4.7235
4.24422
3.73665
3.86608
4.32474
5.55922
6.26496
6.17643
6.26708
5.78391
5.09187
5.29561
6.08152
6.01605
6.01435
5.83095
5.19736
4.10243
4.07681
4.39443
5.08693
5.54948
5.59693
5.94496
7.55244
8.6847
8.29139
7.4316
7.08931
4.12641
1.28685
0.725174
0.586807
0.654621
0.710365
0.701089
0.638918
0.588983
0.553269
0.529678
0.51607
0.497004
0.479045
0.472485
0.458489
0.432067
0.418155
0.405113
0.391136
0.386285
0.387069
0.392617
0.402254
0.410109
0.417733
0.430106
0.44092
0.462608
0.493327
0.502752
0.506708
0.496239
0.481607
0.485075
0.498832
0.508532
0.500479
0.467346
0.43667
0.442741
0.48469
0.552285
0.566322
0.571877
0.606227
0.729558
0.965101
1.23612
1.40128
1.45828
1.47491
1.44598
1.29654
1.14614
1.04325
0.96129
0.907665
0.854806
0.825391
0.818076
0.817652
0.823026
0.837186
0.860917
0.877206
0.887854
0.898183
0.912003
0.933352
0.963163
0.977186
0.979616
0.959506
0.900415
0.81996
0.735907
0.676288
0.638231
0.616327
0.606747
0.613495
0.625447
0.638644
0.654993
0.666022
0.66771
0.666675
0.660017
0.64088
0.613781
0.596791
0.588449
0.57706
0.556448
0.534065
0.526656
0.523329
0.530454
0.529854
0.531477
0.530942
0.524892
0.479617
0.451306
0.454276
0.485921
0.581869
0.687878
0.749297
0.802408
0.838825
0.907405
1.05578
1.27494
1.18348
1.04267
1.08791
1.24765
1.48979
2.46138
3.53368
4.02659
3.57727
2.45766
1.87047
1.78418
1.84881
1.84227
1.98428
2.11128
2.45699
2.79236
2.92761
3.10202
3.02637
2.96139
3.22455
3.09732
3.06458
3.10336
2.99623
3.24683
3.10181
3.45293
3.71794
3.97702
3.33336
2.78497
2.95788
3.3352
3.69386
3.50837
2.9121
2.77354
2.85319
3.54669
4.21099
4.26618
4.5342
4.46905
3.9709
4.03996
4.62288
4.75712
4.88488
5.02101
4.56293
3.90105
3.75579
3.79681
4.07205
4.23699
4.32773
4.95295
6.09355
6.07458
5.18343
4.71679
4.25395
6.04488
1.56158
1.00001
1.0812
1.05377
0.883426
0.742873
0.612811
0.496832
0.411209
0.344188
0.304493
0.281897
0.250782
0.23453
0.222671
0.214094
0.213691
0.215043
0.220274
0.230506
0.241415
0.255216
0.264414
0.278788
0.290765
0.300428
0.306669
0.31932
0.33196
0.366186
0.453096
0.464666
0.418774
0.405572
0.39929
0.386667
0.376753
0.380861
0.409996
0.489085
0.615414
0.664413
0.681549
0.727242
0.814381
0.950494
1.04765
1.08161
1.09194
1.03902
0.892056
0.776316
0.697681
0.63928
0.587696
0.541786
0.511069
0.476489
0.463787
0.461942
0.463517
0.471212
0.488421
0.508128
0.515153
0.520505
0.525901
0.531949
0.542179
0.557629
0.563496
0.563116
0.555139
0.536752
0.516616
0.506642
0.503234
0.516768
0.537449
0.563839
0.595371
0.624176
0.652069
0.674712
0.691897
0.69757
0.69845
0.69169
0.669176
0.640088
0.609041
0.591613
0.571439
0.548991
0.522562
0.501314
0.493279
0.496703
0.494688
0.494119
0.500446
0.494877
0.460228
0.427888
0.416273
0.423813
0.460452
0.547732
0.636778
0.695246
0.712464
0.720139
0.780588
0.99678
1.08486
1.0512
1.21629
1.50627
1.96441
2.89371
3.47768
3.34455
2.42369
1.79785
1.58529
1.67654
1.79913
1.78413
1.85868
1.94031
2.11421
2.30388
2.41327
2.74208
2.77691
2.67074
2.78996
2.88804
2.89857
2.75305
2.6133
2.90452
2.57658
2.70433
3.08096
3.228
2.8016
2.43948
2.3945
2.64044
2.89989
2.88694
2.5492
2.33186
2.30384
2.65287
3.15592
3.346
3.56629
3.7828
3.51031
3.5822
3.91776
3.95367
4.05814
4.40873
4.11905
3.93497
3.53463
3.46834
3.76516
3.77784
3.89267
4.5688
5.15676
4.61413
3.80084
3.5377
3.19887
8.44491
2.33286
1.7271
1.48006
1.09309
0.78626
0.49933
0.329741
0.262092
0.236158
0.22224
0.210878
0.198068
0.182849
0.168877
0.162334
0.161387
0.16397
0.169888
0.172359
0.183679
0.197173
0.208777
0.222461
0.239122
0.260336
0.271651
0.276795
0.281464
0.288283
0.304048
0.333329
0.36839
0.39118
0.391586
0.358532
0.340485
0.343165
0.369341
0.477085
0.645738
0.678508
0.670174
0.678012
0.741143
0.811369
0.827579
0.823921
0.754644
0.637961
0.568678
0.515177
0.447661
0.418501
0.392487
0.366954
0.34854
0.3324
0.317435
0.314593
0.314866
0.318594
0.328514
0.345637
0.362299
0.372049
0.377128
0.383146
0.391332
0.402562
0.416918
0.428579
0.435734
0.441593
0.444788
0.452318
0.464129
0.482487
0.509415
0.538824
0.575946
0.621617
0.662266
0.68706
0.698626
0.703681
0.704849
0.699548
0.686584
0.663984
0.639988
0.60639
0.584451
0.553635
0.528135
0.502393
0.480869
0.471068
0.472226
0.475835
0.478622
0.485614
0.484668
0.460936
0.43696
0.420637
0.408426
0.412854
0.441354
0.474809
0.542131
0.608765
0.61982
0.632367
0.752724
0.897476
1.01832
1.34333
1.81328
2.36727
2.94175
3.19779
2.45996
1.88338
1.57017
1.43508
1.46578
1.61798
1.72972
1.85193
1.89572
1.92168
2.0392
2.19735
2.41694
2.42025
2.27545
2.67538
2.802
2.64974
2.55611
2.23947
2.56894
2.19258
2.18494
2.34395
2.57323
2.36644
2.30424
2.18798
2.1655
2.31713
2.43512
2.30789
2.11345
2.09582
2.23829
2.56188
2.93708
3.07176
3.33709
3.28898
3.41254
3.5484
3.49323
3.51148
3.81769
3.73065
3.88878
3.41811
3.30194
3.7006
3.7045
3.77219
4.31012
4.49211
3.72132
3.15074
3.00004
2.67793
11.8145
3.58931
2.40034
1.50674
0.849375
0.387958
0.257243
0.23083
0.222752
0.215787
0.207258
0.196276
0.180835
0.1662
0.154984
0.149802
0.150066
0.151797
0.152628
0.151038
0.153258
0.160393
0.163483
0.163229
0.165905
0.174889
0.188683
0.210692
0.231282
0.258939
0.286772
0.339721
0.376635
0.3859
0.382547
0.351502
0.342109
0.353682
0.418145
0.534632
0.641811
0.667408
0.660186
0.646684
0.649257
0.651422
0.616284
0.526424
0.434628
0.381511
0.34534
0.310248
0.289023
0.278867
0.268302
0.260332
0.255875
0.251009
0.248502
0.248537
0.251159
0.257941
0.269094
0.284067
0.299516
0.312775
0.32055
0.328111
0.340656
0.354472
0.371419
0.387161
0.401586
0.419057
0.434583
0.450083
0.465095
0.487863
0.521795
0.568064
0.625661
0.670468
0.69195
0.700794
0.702731
0.693658
0.661261
0.630017
0.595491
0.579415
0.574173
0.558306
0.532311
0.486524
0.437001
0.412941
0.40985
0.412878
0.409916
0.413947
0.423144
0.442287
0.470857
0.462299
0.428857
0.402506
0.387443
0.374768
0.376161
0.386161
0.41544
0.485098
0.518559
0.53764
0.617576
0.728666
0.908066
1.39403
1.97572
2.52253
2.88874
2.53944
1.92047
1.59851
1.4619
1.37152
1.31092
1.34101
1.49079
1.76554
1.88764
1.88506
1.94475
2.07114
2.18864
2.23165
2.41505
2.77162
2.76293
2.25623
2.15873
2.04103
2.18801
2.04106
2.08036
2.12908
2.19839
2.20024
2.17671
2.04536
2.01701
2.07495
2.2301
2.14633
1.96833
1.90606
2.00364
2.30347
2.69446
2.82843
3.09951
3.09134
3.07388
3.06867
3.0326
3.06701
3.39836
3.4055
3.65564
3.391
3.13134
3.54521
3.62587
3.73058
4.10775
4.03432
3.35302
3.13119
2.85352
2.50512
16.0202
4.71923
2.45205
1.1271
0.383758
0.240165
0.217308
0.21704
0.216738
0.210369
0.198212
0.18367
0.167471
0.155664
0.146913
0.143322
0.14397
0.144759
0.146819
0.146416
0.150212
0.157772
0.159006
0.152614
0.148723
0.153273
0.168744
0.195913
0.219659
0.2515
0.294535
0.334715
0.348732
0.348058
0.319479
0.308477
0.331654
0.396899
0.461456
0.503601
0.583542
0.606482
0.602201
0.568656
0.524713
0.488238
0.424929
0.328081
0.271181
0.248397
0.231042
0.217048
0.212231
0.210064
0.208852
0.208359
0.208579
0.210436
0.211787
0.214338
0.219569
0.228193
0.239723
0.253865
0.269922
0.286256
0.300296
0.311363
0.323027
0.33971
0.358449
0.378453
0.400722
0.420076
0.439185
0.458723
0.482477
0.517837
0.562845
0.617805
0.656103
0.681051
0.691858
0.694817
0.681988
0.643145
0.566719
0.511313
0.477771
0.442098
0.433835
0.427721
0.41823
0.397225
0.350297
0.311921
0.297667
0.295667
0.298343
0.309803
0.328129
0.342765
0.38244
0.431743
0.419595
0.389015
0.376436
0.355712
0.330152
0.32904
0.346187
0.419705
0.473276
0.495589
0.552998
0.623698
0.800636
1.38897
2.00162
2.53083
2.61479
2.01636
1.56413
1.3851
1.3319
1.30936
1.27515
1.2211
1.25793
1.49205
1.68224
1.86551
1.91218
1.95072
1.97331
2.05285
2.48145
2.89463
2.7171
1.71387
1.82672
1.78354
1.97448
2.04805
2.01399
2.04766
2.10518
2.18684
2.08174
1.93827
2.00277
1.98588
2.05577
1.96731
1.90362
1.80424
1.97277
2.22532
2.56901
2.74543
2.9796
2.99702
2.77387
2.65453
2.60979
2.7291
3.06917
3.15646
3.40304
3.32677
3.02302
3.26544
3.48019
3.62652
3.91472
3.79436
3.36479
3.23557
2.73194
2.54143
20.5893
5.09138
2.08111
0.584639
0.266043
0.213567
0.211103
0.212743
0.209729
0.194591
0.17777
0.164815
0.148874
0.140717
0.1363
0.135348
0.136961
0.141359
0.148424
0.152677
0.15595
0.159315
0.157872
0.144839
0.139428
0.143749
0.160318
0.192616
0.221434
0.242908
0.25827
0.260354
0.258642
0.253175
0.259604
0.308849
0.41107
0.439469
0.443437
0.449773
0.489505
0.507894
0.499056
0.450604
0.385474
0.341005
0.293808
0.221178
0.1978
0.186691
0.181565
0.17956
0.179047
0.1791
0.181795
0.18595
0.189141
0.191679
0.194717
0.197993
0.20429
0.213188
0.2233
0.236463
0.251985
0.268789
0.286571
0.301055
0.314547
0.331497
0.352096
0.378447
0.404011
0.429609
0.459688
0.48888
0.516947
0.553288
0.59948
0.634993
0.654695
0.667476
0.666158
0.638369
0.599621
0.527776
0.476747
0.414263
0.394821
0.364447
0.353493
0.341905
0.336105
0.332022
0.306022
0.260394
0.243114
0.243495
0.24116
0.25052
0.268059
0.276477
0.295986
0.336831
0.365387
0.371061
0.374929
0.360016
0.329065
0.322928
0.318978
0.373923
0.449157
0.482008
0.528523
0.57337
0.729696
1.3603
1.98993
2.48589
2.32034
1.66591
1.33033
1.22045
1.21267
1.22743
1.24895
1.17845
1.13751
1.2618
1.36893
1.57816
1.81682
1.90826
1.87906
1.80307
2.03452
2.53316
2.0445
1.70447
1.81485
1.73329
1.94575
2.05352
1.99784
1.90037
2.06655
2.18391
1.9806
1.79202
1.99409
1.98031
1.99001
1.88116
1.84741
1.80897
2.00074
2.12458
2.51361
2.62789
2.76319
2.90253
2.69313
2.4088
2.32857
2.50969
2.86616
2.99565
3.25309
3.31598
2.97796
3.06445
3.26537
3.48622
3.74969
3.69541
3.39249
3.16362
2.61968
2.5601
24.9108
5.1904
1.58307
0.468783
0.243461
0.210915
0.212227
0.214527
0.210638
0.193424
0.176782
0.164611
0.148195
0.139826
0.136406
0.136117
0.138631
0.145092
0.151998
0.15502
0.155719
0.153112
0.14064
0.129727
0.128852
0.130767
0.138936
0.158634
0.180334
0.188243
0.194977
0.201686
0.210841
0.23128
0.286149
0.380811
0.424296
0.423888
0.38623
0.375055
0.381479
0.385771
0.375664
0.332171
0.27813
0.250922
0.216619
0.176742
0.167897
0.164548
0.163661
0.163782
0.166501
0.172002
0.17822
0.183196
0.186269
0.187614
0.189108
0.191979
0.197144
0.204926
0.215948
0.22934
0.24354
0.260356
0.27865
0.294341
0.310755
0.328237
0.35107
0.380888
0.414338
0.451143
0.488474
0.520389
0.546749
0.578252
0.610381
0.629098
0.635968
0.623423
0.597807
0.545332
0.504992
0.431121
0.40012
0.351074
0.32094
0.304224
0.298411
0.282332
0.274165
0.27227
0.26152
0.225874
0.209126
0.204971
0.203734
0.219748
0.246055
0.252929
0.242293
0.259595
0.286847
0.302665
0.338684
0.350576
0.322332
0.315362
0.320661
0.348118
0.422574
0.472155
0.526587
0.559576
0.681572
1.26548
1.93602
2.26238
2.05821
1.45308
1.21041
1.14704
1.17146
1.10565
1.09909
1.07735
1.02937
1.08243
1.16255
1.21343
1.37997
1.68819
1.81819
1.58186
1.56226
1.69413
1.59944
1.91917
1.81072
1.90018
2.05881
2.18933
2.03169
1.88469
2.06048
2.21532
1.93798
1.69384
1.93924
1.97618
1.93855
1.80284
1.77074
1.86989
2.00433
2.05174
2.38057
2.4456
2.53955
2.70647
2.58482
2.23919
2.16372
2.40819
2.78912
2.87515
3.07494
3.31602
2.97189
2.95083
3.0781
3.32287
3.59387
3.51821
3.12794
2.68397
2.35068
2.33382
28.3659
5.24888
1.51148
0.454576
0.250303
0.222946
0.232508
0.236994
0.232376
0.210809
0.19381
0.181313
0.161986
0.149442
0.144651
0.143825
0.145416
0.149603
0.15303
0.153323
0.151683
0.14663
0.136733
0.129758
0.129267
0.130227
0.134459
0.143582
0.153999
0.162987
0.175663
0.190711
0.213817
0.252535
0.323833
0.39038
0.399475
0.371352
0.310101
0.301077
0.301447
0.301345
0.289566
0.256996
0.221348
0.20526
0.181828
0.161116
0.157528
0.156588
0.156947
0.160441
0.166548
0.173478
0.180137
0.185681
0.190076
0.19215
0.192932
0.193473
0.196556
0.20283
0.212413
0.226283
0.241552
0.257941
0.275247
0.293871
0.311242
0.328213
0.349789
0.379512
0.413752
0.45098
0.489225
0.521411
0.547645
0.578747
0.601393
0.608276
0.595957
0.572539
0.537571
0.488989
0.436507
0.385421
0.347305
0.314739
0.285291
0.256542
0.233807
0.211597
0.202762
0.20535
0.20026
0.183696
0.181752
0.18023
0.179821
0.194984
0.222912
0.231737
0.236462
0.230588
0.24169
0.265475
0.292062
0.316916
0.30372
0.292959
0.312059
0.343482
0.393278
0.447089
0.52563
0.559479
0.656926
1.15198
1.79075
2.00542
1.84026
1.32878
1.1385
1.13018
1.16296
1.03544
0.955885
0.966723
0.968595
0.9606
0.991119
0.997415
1.09148
1.23701
1.4525
1.37566
1.31505
1.3461
1.55053
1.92288
1.85967
2.21954
2.34718
2.45006
2.01326
1.84382
1.89632
2.20976
1.80828
1.63073
1.77116
1.89726
1.81947
1.64852
1.6968
1.95479
1.97027
2.04122
2.10858
2.23922
2.33016
2.52387
2.46485
2.14212
2.07908
2.34102
2.78989
2.84413
2.98609
3.3302
2.96115
2.85399
2.90982
3.11085
3.39627
3.25701
2.66511
2.26825
2.05161
1.95978
31.1195
5.41689
1.53109
0.506426
0.30149
0.255941
0.246516
0.245241
0.239529
0.224365
0.211114
0.195861
0.18169
0.164551
0.157602
0.155709
0.155756
0.157936
0.157384
0.15572
0.152391
0.146958
0.138382
0.133081
0.131677
0.132144
0.135398
0.142311
0.150565
0.160144
0.174388
0.193065
0.221523
0.266337
0.332228
0.352796
0.349864
0.317972
0.272476
0.26341
0.261508
0.258266
0.240593
0.206954
0.185899
0.177506
0.164468
0.155664
0.153844
0.153694
0.156657
0.162841
0.171584
0.183343
0.194127
0.202629
0.206764
0.207268
0.205263
0.202241
0.201909
0.203422
0.208155
0.219497
0.235506
0.252277
0.268524
0.289537
0.309461
0.326759
0.346857
0.374306
0.406669
0.440927
0.477808
0.508917
0.534645
0.56339
0.573522
0.556075
0.529737
0.515932
0.473134
0.427885
0.387864
0.338238
0.302392
0.256311
0.22089
0.19964
0.18058
0.17123
0.16543
0.1617
0.166956
0.158531
0.157412
0.158726
0.169167
0.189014
0.209679
0.212077
0.212943
0.213853
0.219664
0.251312
0.280448
0.295716
0.298863
0.292194
0.308495
0.356878
0.390078
0.424804
0.516141
0.562694
0.638089
1.02889
1.62524
1.78405
1.66396
1.275
1.11396
1.12314
1.15936
1.01336
0.856048
0.866453
0.941945
0.91103
0.903342
0.916108
0.915763
0.9444
1.12378
1.21402
1.20787
1.19254
1.53414
2.02576
1.97458
2.43973
2.63542
2.54393
1.99203
1.71056
1.60701
1.9104
1.71963
1.61354
1.62088
1.66163
1.58639
1.52746
1.69706
1.99504
1.8445
2.0194
1.92419
1.98657
2.13092
2.37464
2.33203
2.08354
2.07031
2.27884
2.77473
2.84564
2.97988
3.34876
2.91751
2.70709
2.76664
2.91862
3.19544
2.99124
2.38131
2.06695
1.94496
1.8608
33.6959
5.84215
1.62119
0.619259
0.386511
0.29394
0.251977
0.242718
0.239433
0.233301
0.224534
0.206768
0.193229
0.184036
0.17302
0.168588
0.166041
0.164909
0.16494
0.165128
0.163766
0.158218
0.151311
0.148603
0.148238
0.148388
0.150477
0.154614
0.160445
0.16892
0.182865
0.202603
0.232999
0.277132
0.311791
0.316404
0.312364
0.294235
0.26227
0.248916
0.242194
0.229223
0.203302
0.175377
0.164854
0.160613
0.155835
0.153594
0.153463
0.156881
0.164704
0.176487
0.186269
0.191913
0.199404
0.209207
0.215811
0.216813
0.21603
0.213187
0.209627
0.207709
0.207963
0.215504
0.229984
0.246447
0.261335
0.278282
0.298823
0.317604
0.33346
0.352876
0.376302
0.402207
0.431873
0.459723
0.485713
0.503051
0.515687
0.515006
0.478426
0.441582
0.396792
0.347727
0.325537
0.273663
0.234561
0.202749
0.182388
0.166227
0.15565
0.150041
0.15015
0.147872
0.148007
0.145685
0.146315
0.152331
0.163438
0.176818
0.189481
0.199731
0.205522
0.205583
0.207783
0.227672
0.27567
0.294861
0.296311
0.293413
0.30775
0.370191
0.402786
0.423478
0.503545
0.566427
0.620601
0.905807
1.46579
1.59991
1.52044
1.25615
1.09136
1.11005
1.14761
1.00259
0.771541
0.798196
0.890563
0.883348
0.823082
0.842294
0.819826
0.753903
0.934296
1.0627
1.0837
1.20396
1.82294
2.37971
2.08884
2.44123
2.68253
2.3573
1.8747
1.56093
1.45322
1.56208
1.69855
1.62128
1.56273
1.50422
1.42944
1.47829
1.77872
1.96884
1.73446
1.87284
1.73924
1.71619
1.99709
2.23409
2.198
2.07465
2.10302
2.24277
2.67102
2.81031
2.97107
3.31968
2.85169
2.54011
2.62735
2.7166
2.98334
2.73116
2.14468
1.93116
1.86222
1.78638
36.4079
6.25761
1.67131
0.753646
0.521841
0.373674
0.269388
0.243924
0.247548
0.244959
0.238511
0.221897
0.20599
0.19658
0.184899
0.178981
0.175001
0.173568
0.173065
0.173577
0.176014
0.179064
0.180846
0.182061
0.182371
0.183757
0.186382
0.187757
0.19173
0.199192
0.212555
0.227857
0.247326
0.273955
0.287127
0.287083
0.277942
0.256647
0.242563
0.236732
0.227667
0.206184
0.172395
0.15698
0.153502
0.153409
0.154154
0.156041
0.159197
0.166905
0.177783
0.184673
0.186564
0.187862
0.190226
0.195349
0.202111
0.209214
0.213049
0.211883
0.209106
0.207744
0.207484
0.211492
0.220965
0.236727
0.253602
0.2674
0.282152
0.296961
0.312937
0.324916
0.342669
0.36044
0.387118
0.417407
0.442777
0.444496
0.423275
0.42544
0.41099
0.355887
0.316306
0.266063
0.246484
0.211509
0.195225
0.176739
0.167544
0.156285
0.146569
0.145406
0.140873
0.139106
0.141022
0.141029
0.14128
0.145978
0.163076
0.172284
0.179245
0.192754
0.197692
0.199981
0.205032
0.21776
0.261516
0.300111
0.29437
0.301879
0.322194
0.363046
0.404792
0.421799
0.493379
0.566154
0.600042
0.785967
1.29029
1.44054
1.39332
1.21203
1.05938
1.07759
1.12133
0.978003
0.743324
0.739927
0.813722
0.837769
0.744159
0.775198
0.725588
0.67615
0.814497
0.976417
1.00901
1.29153
2.27595
2.3271
2.19953
2.34104
2.43869
2.28549
1.6928
1.47841
1.32421
1.35071
1.53574
1.60545
1.53313
1.41397
1.33756
1.48922
1.83438
1.80521
1.6493
1.64216
1.52328
1.4982
1.95215
2.17591
2.07912
2.08598
2.18269
2.24283
2.58747
2.7922
2.93646
3.25901
2.79459
2.39415
2.45676
2.49847
2.78883
2.51142
1.97269
1.80473
1.76791
1.71663
38.7069
6.73
1.90146
1.13368
0.863404
0.6439
0.39983
0.287964
0.252786
0.242774
0.234621
0.221774
0.20737
0.198448
0.188876
0.184449
0.181698
0.181396
0.181877
0.183835
0.187727
0.192251
0.196535
0.200504
0.202083
0.203119
0.205107
0.207195
0.20968
0.214059
0.223117
0.232732
0.244487
0.248636
0.245854
0.236419
0.21694
0.208019
0.206074
0.204526
0.197019
0.177294
0.15588
0.149832
0.148679
0.150452
0.156748
0.164621
0.167462
0.169056
0.172233
0.173806
0.169662
0.166436
0.165115
0.165661
0.16924
0.176032
0.18633
0.191418
0.194302
0.196687
0.198013
0.200656
0.208031
0.219934
0.234248
0.245905
0.257272
0.26495
0.273508
0.278063
0.288295
0.302644
0.324094
0.336958
0.357058
0.364839
0.338672
0.317019
0.306069
0.259992
0.243321
0.20678
0.191079
0.181075
0.173967
0.163723
0.157526
0.149576
0.14371
0.140971
0.140374
0.138527
0.138832
0.139826
0.141859
0.145475
0.159775
0.166739
0.171153
0.190828
0.199905
0.197547
0.196989
0.205327
0.2316
0.30069
0.294784
0.303468
0.337925
0.363853
0.405237
0.42192
0.490185
0.565721
0.586597
0.690781
1.10967
1.32135
1.29359
1.15438
1.00931
1.02888
1.05312
0.937331
0.749397
0.707842
0.738806
0.752398
0.707348
0.714779
0.664183
0.595165
0.742478
0.945269
1.01239
1.59097
2.30403
2.25196
2.21914
2.14543
2.37772
1.9791
1.5238
1.43507
1.26735
1.2359
1.31968
1.49397
1.44842
1.3292
1.23928
1.51443
1.81125
1.54964
1.5055
1.43407
1.37301
1.37532
1.95114
2.12159
1.96339
2.06707
2.32268
2.27304
2.51955
2.7522
2.86446
3.15537
2.71611
2.28679
2.26722
2.29955
2.62642
2.39486
1.86216
1.71677
1.72955
1.66482
41.0489
7.43608
2.44731
1.88821
1.59088
1.16714
0.669706
0.361765
0.257627
0.241447
0.235317
0.226252
0.210766
0.19962
0.189421
0.184624
0.181335
0.181148
0.182413
0.185306
0.190228
0.196133
0.201987
0.207572
0.210099
0.210557
0.210642
0.210471
0.210331
0.210789
0.210367
0.207291
0.203577
0.195307
0.185402
0.180202
0.175625
0.174941
0.175557
0.175497
0.171424
0.160748
0.15084
0.148863
0.148639
0.150729
0.15768
0.163349
0.164209
0.16256
0.156636
0.154762
0.155066
0.156947
0.157458
0.157525
0.159974
0.165521
0.172509
0.180299
0.189062
0.192428
0.193561
0.195945
0.201791
0.209344
0.218361
0.226857
0.232128
0.234923
0.240673
0.241725
0.248171
0.262064
0.279926
0.291534
0.298445
0.310494
0.311307
0.274316
0.247198
0.210842
0.186388
0.162366
0.155364
0.150097
0.15369
0.151269
0.155291
0.149615
0.143847
0.141266
0.140666
0.138552
0.14081
0.142987
0.143062
0.147228
0.164737
0.170066
0.166452
0.176744
0.195629
0.192924
0.191098
0.194497
0.213663
0.283701
0.293272
0.297598
0.33726
0.366578
0.403076
0.427659
0.489899
0.568032
0.578991
0.630129
0.925465
1.22759
1.22871
1.12515
0.970782
0.972406
0.976186
0.892415
0.759992
0.688305
0.685431
0.678472
0.649039
0.676486
0.621459
0.556514
0.6982
0.874093
1.04676
1.88181
2.17772
2.25396
1.92375
2.19124
2.17759
1.88695
1.46916
1.43227
1.24975
1.20058
1.2263
1.40586
1.37105
1.28002
1.18608
1.45445
1.60555
1.31554
1.32852
1.28498
1.29895
1.35353
1.93322
2.00913
1.91051
2.05211
2.59314
2.41262
2.4036
2.59131
2.80089
3.06329
2.63126
2.24794
2.11238
2.14911
2.47483
2.30012
1.82253
1.69567
1.70512
1.5896
42.9455
8.28117
3.41143
2.93066
2.65403
1.989
1.19616
0.613492
0.326654
0.253123
0.235884
0.22207
0.205287