/*--------------------------------*- C++ -*----------------------------------*\
| =========                 |                                                 |
| \\      /  F ield         | OpenFOAM: The Open Source CFD Toolbox           |
|  \\    /   O peration     | Version:  dev                                   |
|   \\  /    A nd           | Web:      http://www.openfoam.org               |
|    \\/     M anipulation  |                                                 |
\*---------------------------------------------------------------------------*/
FoamFile
{
    version     2.0;
    format      ascii;
    class       volScalarField;
    object      k_0;
    location    "9.143";
}
// * * * * * * * * * * * * * * * * * * * * * * * * * * * * * * * * * * * * * //

dimensions      [0 2 -2 0 0 0 0];

internalField   nonuniform List<scalar> 
12225
(
9.01895
12.4449
9.7751
12.2418
11.3817
17.516
17.7281
25.4113
26.9197
34.7963
38.9886
49.8778
53.4157
65.739
72.7813
122.558
118.341
141.646
1.80056
5.86378
5.20162
6.04462
5.17436
6.15243
5.83121
6.7487
6.94352
7.48196
8.32355
8.9776
10.7915
9.94884
10.6588
13.7319
12.5028
16.814
0.180978
1.82169
2.16436
3.42299
3.25205
3.7347
3.62803
3.94379
3.90013
4.07745
4.03688
4.42074
4.8177
4.65638
3.95039
3.45836
3.83636
3.46007
0.0231197
0.468621
0.686497
1.24951
1.33884
1.51865
1.63073
1.71982
1.80335
1.81723
1.8147
1.87454
2.25343
2.42428
2.43462
2.23844
3.07712
3.9413
0.00489894
0.102869
0.204815
0.361122
0.518813
0.560669
0.71058
0.722436
0.834112
0.833059
0.908196
0.921089
1.41638
1.52502
1.95749
1.82134
3.32748
3.99048
0.00927002
0.0992463
0.13298
0.254744
0.300214
0.39943
0.426691
0.513119
0.551108
0.692262
0.700388
0.845283
1.00823
1.68315
1.5837
1.60996
2.07341
2.93826
0.0203612
0.0944736
0.123019
0.241687
0.269412
0.334986
0.342504
0.424995
0.507597
0.601544
0.616492
0.710909
0.91029
1.15658
1.13163
1.10258
1.58945
1.36785
0.0252715
0.0534636
0.0805683
0.142235
0.205846
0.200011
0.203892
0.22856
0.356251
0.370899
0.384087
0.392255
0.523547
0.542219
0.527648
0.424177
0.436813
1.40025
0.0292997
0.0507877
0.0685626
0.104353
0.141761
0.149557
0.154251
0.162998
0.224273
0.235064
0.240697
0.239188
0.288762
0.305321
0.324214
0.311446
0.344557
0.611606
0.049659
0.0771011
0.0831032
0.107234
0.134644
0.144
0.150558
0.155841
0.185469
0.19895
0.204249
0.209829
0.220982
0.261923
0.272634
0.303989
0.303978
0.432482
0.102805
0.153774
0.145996
0.151388
0.157746
0.165336
0.16738
0.171734
0.187796
0.203618
0.207384
0.212716
0.218941
0.245597
0.255141
0.275821
0.274198
0.333119
0.239726
0.285096
0.271427
0.274123
0.260448
0.259478
0.245391
0.24422
0.23729
0.244737
0.245649
0.249168
0.248948
0.258259
0.266585
0.283336
0.288466
0.320265
0.501699
0.5124
0.4852
0.475807
0.445406
0.433965
0.403355
0.396322
0.383371
0.380921
0.375395
0.3685
0.34515
0.336283
0.335507
0.340417
0.344082
0.349601
0.854583
0.828236
0.768652
0.735406
0.669591
0.650121
0.604512
0.589931
0.567678
0.561511
0.543019
0.53501
0.51199
0.501538
0.492377
0.490746
0.483167
0.470553
1.52369
1.43669
1.33473
1.24817
1.15339
1.08635
1.00125
0.939114
0.874725
0.828032
0.774621
0.733988
0.690519
0.661095
0.628315
0.608332
0.57935
0.563735
2.30521
2.11796
1.9062
1.69257
1.51103
1.36488
1.23358
1.12841
1.0344
0.95881
0.887144
0.830775
0.773836
0.732809
0.688601
0.659476
0.62045
0.600218
2.84892
2.47597
2.13597
1.87249
1.65204
1.47294
1.32126
1.19934
1.09274
1.00687
0.927923
0.865891
0.80379
0.757663
0.708359
0.674816
0.632918
0.610456
2.8463
2.48575
2.16039
1.89387
1.66985
1.48673
1.33259
1.20793
1.09967
1.01223
0.932082
0.868872
0.805817
0.758809
0.708625
0.673823
0.631183
0.60827
2.52084
2.24543
2.00387
1.78254
1.58867
1.42498
1.28376
1.16714
1.064
0.980005
0.903771
0.843444
0.781449
0.7355
0.686334
0.650969
0.60868
0.586218
1.70816
1.56875
1.47497
1.37779
1.28766
1.19815
1.1052
1.02119
0.93916
0.869145
0.8072
0.758106
0.702049
0.661235
0.617783
0.585072
0.545998
0.526279
1.09528
0.99065
0.908563
0.854047
0.804883
0.757277
0.711911
0.680359
0.642747
0.607614
0.580289
0.558908
0.518493
0.490491
0.461491
0.437451
0.408443
0.394814
0.627226
0.591814
0.573951
0.558504
0.532934
0.506879
0.478716
0.452229
0.420229
0.389597
0.367064
0.350808
0.330876
0.318138
0.306657
0.297626
0.286809
0.281157
0.331337
0.325075
0.323531
0.318323
0.30549
0.285666
0.275513
0.270588
0.269536
0.268491
0.266796
0.264677
0.261
0.258278
0.256209
0.254435
0.251185
0.248838
0.156357
0.164291
0.1642
0.163755
0.168165
0.178922
0.194282
0.212696
0.227782
0.238333
0.244394
0.247108
0.247788
0.249026
0.249654
0.249458
0.248941
0.247664
0.0632744
0.0692043
0.0789344
0.103544
0.131657
0.160369
0.188747
0.216972
0.240738
0.258136
0.268688
0.274145
0.276672
0.279291
0.281646
0.282545
0.282621
0.281986
0.0180321
0.0350956
0.0622687
0.113745
0.173372
0.231939
0.283753
0.333355
0.373571
0.402633
0.418821
0.425125
0.427969
0.431404
0.433852
0.434865
0.434942
0.433361
0.00719007
0.0541946
0.167722
0.347671
0.515296
0.650317
0.746835
0.823047
0.877123
0.907848
0.917571
0.916542
0.911632
0.910838
0.908094
0.902461
0.896597
0.887531
0.0331368
0.381239
0.974427
1.52294
1.91595
2.14666
2.22412
2.2429
2.23107
2.21015
2.18234
2.13618
2.10339
2.07098
2.03523
1.98899
1.94595
1.90324
0.524065
2.94641
4.27012
4.57508
4.55109
4.39943
4.27623
4.20713
4.11851
4.03235
3.95815
3.88678
3.83659
3.77403
3.71849
3.63511
3.56389
3.45779
7.10908
11.1328
10.5766
8.71939
7.78436
7.63525
7.80717
8.1819
8.645
9.0786
9.45681
9.76989
10.0064
10.1546
10.2365
10.199
10.0925
9.83146
0.142579
0.158428
0.168366
0.176786
0.191167
0.212295
0.239582
0.270992
0.306594
0.347311
0.39285
0.444675
0.504412
0.568976
0.643601
0.727561
0.81658
0.922467
1.03722
1.13963
1.24599
1.3764
1.53796
1.70397
1.85164
2.07068
2.32085
2.56633
2.85728
3.16787
3.48449
3.7327
3.97933
4.16614
4.31489
4.55819
4.76722
4.90184
5.04617
5.2496
5.42854
5.59151
5.77352
6.08105
6.59298
7.28008
7.79214
8.0573
8.3077
8.59676
8.87951
9.0154
9.1486
9.33997
9.6255
9.95576
10.2986
10.6499
10.9583
11.2259
11.4562
11.6758
11.8388
11.9608
12.0421
12.0948
12.1386
12.194
12.2805
12.384
12.5327
12.7733
13.11
13.5612
14.1249
14.8169
15.6088
16.4629
17.2051
17.4694
17.5139
17.2445
16.4409
15.342
13.9733
12.4568
10.9502
9.55796
8.28229
7.10041
6.08694
5.30651
4.61112
4.11611
3.79254
3.39808
3.19935
2.98372
2.87386
2.74695
2.66299
2.61488
2.60024
2.61833
2.70482
2.99996
3.4366
3.66344
3.71223
3.67539
3.53384
3.38772
3.09795
2.64708
2.16103
1.67457
1.45577
1.57875
2.03127
2.09909
1.99424
2.00376
2.10895
2.87928
5.44108
6.96874
7.04236
6.21163
5.78273
5.78401
6.60661
8.133
10.0905
12.9792
15.2994
15.7094
15.5857
17.9148
18.8653
17.6776
18.3799
15.7482
16.6737
15.6393
15.2089
13.7005
13.6193
12.5963
11.2028
10.3988
9.97861
9.67694
9.5819
9.92302
11.2234
12.8753
13.6353
12.6847
11.447
10.3512
9.46204
9.66037
10.8566
11.5372
11.0598
11.3238
10.5827
9.33113
8.91896
10.0132
12.1798
14.0888
16.6337
17.6951
19.0881
20.3539
21.2646
22.6392
23.7868
25.5489
0.740755
0.343804
0.218066
0.189394
0.191569
0.206912
0.233782
0.261839
0.286733
0.313184
0.340305
0.369445
0.403627
0.436912
0.463685
0.50374
0.54049
0.550966
0.578456
0.630994
0.646432
0.64704
0.660833
0.671028
0.671327
0.687626
0.715379
0.736902
0.811603
0.9308
1.06765
1.35882
1.61011
1.69087
1.74768
1.76146
1.60512
1.28531
1.04169
0.889141
0.732248
0.699718
0.700482
0.731833
0.82983
1.05965
1.42019
1.53444
1.54294
1.54486
1.61783
1.72726
1.85451
1.96726
2.20012
2.57785
3.00783
3.3515
3.57937
3.77377
3.87722
3.92575
3.95476
3.97633
4.00771
4.06869
4.17108
4.32194
4.46832
4.60545
4.79458
4.97847
5.17658
5.35091
5.4448
5.49013
5.45786
5.24007
4.91432
4.50887
4.061
3.60773
3.16798
2.76149
2.38801
2.07517
1.85141
1.65868
1.49722
1.35705
1.25549
1.20183
1.15649
1.13397
1.11773
1.09226
1.11543
1.114
1.12178
1.11587
1.1024
1.08019
1.08419
1.09742
1.09505
1.19413
1.47728
1.76655
1.92154
1.9889
2.02148
2.12297
2.1767
2.01048
1.65723
1.28024
1.13059
1.16625
1.39316
1.50425
1.65183
2.18486
3.64703
4.80867
5.1651
4.83028
3.48994
3.03572
2.97786
3.25113
3.8806
4.69587
5.78475
6.93234
7.06854
6.51453
6.55704
7.75312
7.51072
6.90089
7.55424
6.7335
8.09909
7.57627
7.65161
7.56449
7.57863
6.62157
6.1797
6.40531
6.64407
6.90171
6.44447
6.35164
7.05987
8.33257
10.1228
10.2957
9.76797
9.12637
8.00657
7.5655
8.08855
8.75501
8.42309
8.34891
7.86956
6.62665
5.51635
5.57082
6.37546
7.60884
8.95463
9.51078
9.82571
11.139
13.3639
14.8684
14.7671
14.8743
2.08521
0.847473
0.424388
0.292256
0.286491
0.31558
0.368457
0.424622
0.456698
0.476155
0.490447
0.499041
0.503132
0.512992
0.518839
0.520168
0.533427
0.547443
0.543896
0.549405
0.568459
0.570945
0.584785
0.587852
0.589624
0.590748
0.578852
0.581724
0.569224
0.560052
0.565668
0.579121
0.615313
0.716479
0.852575
0.874992
0.8479
0.778961
0.704402
0.581378
0.465209
0.444526
0.444776
0.440938
0.429764
0.430694
0.459166
0.548432
0.743465
1.05184
1.3871
1.70504
1.91939
1.99279
2.00327
2.00136
1.9291
1.84429
1.80178
1.7619
1.73396
1.70273
1.69799
1.70104
1.71654
1.7538
1.80045
1.82799
1.85938
1.90268
1.96618
2.03545
2.06798
2.0764
2.02813
1.89349
1.71929
1.50119
1.30557
1.14629
1.01717
0.922703
0.857679
0.807691
0.775878
0.753566
0.737527
0.722205
0.702839
0.680603
0.654773
0.647338
0.643113
0.63672
0.621147
0.613759
0.62377
0.627084
0.63459
0.635427
0.634261
0.623681
0.604197
0.575859
0.560806
0.576316
0.672946
0.86095
0.978369
1.05053
1.11615
1.18127
1.31551
1.48884
1.4599
1.238
1.05009
1.07668
1.22767
1.40633
1.81306
3.19907
4.21885
4.59003
3.88844
2.57568
2.11704
2.07098
2.11798
2.29729
2.57379
3.02157
3.67108
3.96992
3.92719
3.61914
3.64459
4.12603
3.87962
3.7146
3.93342
3.86739
4.4414
4.25663
4.42955
4.66266
5.0288
4.07343
3.72828
4.09958
4.28232
4.71644
4.26118
3.7507
3.87365
4.31182
5.51373
6.21132
6.12838
6.24101
5.78612
5.12148
5.33199
6.10947
6.0424
6.05808
5.88167
5.23006
4.16402
4.15114
4.46923
5.14204
5.56001
5.60521
6.02416
7.68244
8.62591
8.05139
7.22021
6.84174
3.95472
1.2673
0.708639
0.560278
0.616684
0.679626
0.685906
0.630379
0.58382
0.550614
0.52928
0.516638
0.498869
0.484618
0.478977
0.465256
0.439713
0.426149
0.412875
0.398289
0.393223
0.393743
0.398994
0.407655
0.414588
0.42123
0.432312
0.4423
0.462622
0.491167
0.500091
0.503757
0.493463
0.479896
0.483733
0.498201
0.509309
0.502668
0.4724
0.437978
0.441138
0.477284
0.54472
0.561564
0.567164
0.594833
0.703574
0.926056
1.19893
1.37769
1.45138
1.46339
1.442
1.30336
1.15024
1.04711
0.959375
0.902278
0.847205
0.809447
0.79741
0.795024
0.797989
0.808897
0.831066
0.847902
0.856952
0.864925
0.874855
0.890715
0.916374
0.931562
0.935048
0.920609
0.869863
0.79666
0.715985
0.658134
0.624101
0.606664
0.598959
0.610474
0.626964
0.64346
0.662214
0.677941
0.681694
0.681641
0.676491
0.658365
0.629701
0.609841
0.600375
0.588694
0.567895
0.542975
0.533549
0.528595
0.535868
0.534442
0.535877
0.535698
0.528464
0.481876
0.451244
0.453248
0.481703
0.572163
0.678629
0.743073
0.798982
0.834856
0.896887
1.03856
1.26232
1.18496
1.05721
1.11312
1.28459
1.54407
2.56342
3.56045
4.016
3.43964
2.39366
1.84488
1.77543
1.85725
1.86422
2.00537
2.11275
2.41816
2.76276
2.88459
3.07503
3.0674
2.98963
3.19446
3.13233
3.12903
3.13066
3.0252
3.23944
3.10704
3.4718
3.75602
3.95738
3.35396
2.8111
2.97889
3.36855
3.68947
3.5042
2.92771
2.7858
2.86872
3.53291
4.16786
4.2425
4.50959
4.46252
4.00272
4.10683
4.66276
4.77522
4.90957
5.0667
4.58886
3.98287
3.82341
3.85289
4.1362
4.27697
4.38126
5.07598
6.12945
5.96067
5.02238
4.58951
4.10814
5.82277
1.52531
0.961393
1.03003
1.03503
0.874458
0.742716
0.618314
0.510016
0.424423
0.356279
0.316334
0.292153
0.258703
0.242768
0.229926
0.220302
0.219045
0.219133
0.224446
0.233976
0.244256
0.257533
0.266433
0.280423
0.291805
0.301179
0.307227
0.319814
0.332214
0.366323
0.4499
0.46116
0.417661
0.403987
0.398039
0.387019
0.376548
0.379081
0.404562
0.476734
0.601253
0.657032
0.673088
0.712677
0.793067
0.924977
1.03841
1.07041
1.081
1.03936
0.904951
0.78272
0.698532
0.638777
0.587066
0.539532
0.507659
0.472505
0.453812
0.450033
0.450438
0.455694
0.470077
0.490979
0.49932
0.504185
0.508684
0.51326
0.521106
0.53475
0.543515
0.544003
0.539201
0.525318
0.508473
0.500534
0.497939
0.51253
0.53505
0.563354
0.597598
0.629798
0.662352
0.686893
0.706101
0.71377
0.715209
0.709614
0.687475
0.657387
0.623619
0.604209
0.582306
0.559433
0.531829
0.508577
0.49824
0.501985
0.500518
0.500103
0.507537
0.502287
0.466912
0.431413
0.417557
0.423537
0.456414
0.541556
0.630855
0.689694
0.707728
0.715356
0.769458
0.977479
1.07486
1.05997
1.25008
1.57033
2.05791
2.93661
3.48727
3.21636
2.34077
1.7754
1.57196
1.64874
1.78995
1.79535
1.88398
1.96505
2.10754
2.29518
2.4073
2.72486
2.81136
2.7067
2.78469
2.94753
2.97338
2.77802
2.6303
2.90995
2.57644
2.70378
3.08886
3.22478
2.79528
2.46745
2.41913
2.6583
2.88827
2.87508
2.56525
2.34589
2.33462
2.66535
3.13692
3.35901
3.56879
3.7834
3.55008
3.67544
3.97703
3.97877
4.0795
4.4285
4.14378
4.00769
3.5875
3.53187
3.85181
3.84697
3.97376
4.67452
5.15702
4.51247
3.73552
3.47831
3.12174
8.13196
2.24594
1.64294
1.46063
1.0921
0.802061
0.524429
0.346441
0.26753
0.237953
0.222462
0.210834
0.198351
0.183234
0.169414
0.163122
0.162208
0.165061
0.171269
0.174256
0.186303
0.199706
0.211473
0.225145
0.241821
0.262679
0.273549
0.27799
0.282087
0.288481
0.303893
0.332277
0.36651
0.388976
0.389877
0.358713
0.339208
0.340581
0.36285
0.458554
0.630892
0.673132
0.666641
0.669906
0.723661
0.801684
0.821556
0.819585
0.762794
0.646527
0.569252
0.517777
0.448662
0.41582
0.390098
0.364423
0.345558
0.330135
0.313367
0.308463
0.308163
0.310554
0.318483
0.334082
0.35104
0.362518
0.367961
0.373334
0.380904
0.391214
0.405279
0.418266
0.427167
0.435301
0.440697
0.449617
0.461873
0.48017
0.507591
0.538388
0.577976
0.627541
0.671752
0.697804
0.710948
0.716042
0.717493
0.711862
0.698491
0.675453
0.651955
0.61751
0.593985
0.560125
0.532654
0.50666
0.484908
0.473289
0.472142
0.474925
0.47748
0.486763
0.490954
0.468375
0.440437
0.419981
0.40711
0.409469
0.433553
0.464119
0.531275
0.600296
0.612057
0.623965
0.735579
0.87741
1.01394
1.37172
1.86359
2.42382
2.96278
3.11131
2.35989
1.8478
1.57866
1.43834
1.44255
1.56407
1.69546
1.85933
1.93088
1.9478
2.05233
2.20447
2.41289
2.43744
2.29667
2.72179
2.88402
2.69928
2.55522
2.24917
2.55023
2.19504
2.20226
2.34562
2.56439
2.37472
2.32828
2.20928
2.19203
2.32326
2.43975
2.32626
2.13363
2.12696
2.26074
2.56865
2.97098
3.10202
3.348
3.33747
3.48795
3.58502
3.51087
3.52473
3.8326
3.75502
3.94115
3.46916
3.36285
3.78148
3.77385
3.85429
4.38551
4.48424
3.67937
3.18233
3.00207
2.66661
11.3443
3.45275
2.37561
1.51172
0.890298
0.418216
0.264421
0.232174
0.222041
0.214668
0.206572
0.195898
0.180856
0.166307
0.15505
0.149945
0.150163
0.151925
0.153071
0.151344
0.153346
0.160328
0.163746
0.163869
0.167101
0.176348
0.189574
0.210993
0.231126
0.25822
0.285413
0.337647
0.374864
0.38463
0.381964
0.351571
0.340165
0.349682
0.408905
0.518815
0.629982
0.662197
0.657391
0.642216
0.643026
0.646142
0.620525
0.536255
0.440899
0.383133
0.345792
0.309735
0.286468
0.275605
0.265202
0.25694
0.252415
0.24798
0.244731
0.24449
0.24625
0.251905
0.261863
0.275918
0.291401
0.305819
0.314874
0.322096
0.333727
0.347244
0.364198
0.381033
0.396619
0.415092
0.432044
0.448683
0.464325
0.486999
0.521222
0.569609
0.628939
0.675968
0.700642
0.710656
0.713292
0.703708
0.666245
0.630872
0.593701
0.573447
0.568277
0.555133
0.530014
0.485222
0.432288
0.404511
0.400937
0.405304
0.402413
0.406519
0.414359
0.430466
0.465331
0.466439
0.432686
0.402321
0.387674
0.373291
0.369536
0.377434
0.404965
0.476626
0.513696
0.534644
0.609527
0.711506
0.892204
1.40978
2.00053
2.54009
2.87281
2.42729
1.85076
1.57294
1.46128
1.3836
1.31162
1.31358
1.42675
1.70459
1.89592
1.92068
1.97349
2.08055
2.17084
2.21953
2.44493
2.88199
2.85555
2.25121
2.1364
2.0371
2.17616
2.06685
2.10703
2.15179
2.22498
2.23614
2.206
2.06042
2.04967
2.09951
2.24171
2.16437
1.99394
1.93908
2.03831
2.328
2.74589
2.88308
3.11897
3.14265
3.1137
3.06538
3.02353
3.08056
3.41768
3.42997
3.67564
3.43859
3.18844
3.59274
3.67601
3.79849
4.15244
4.03436
3.38659
3.18978
2.86576
2.55599
15.3701
4.61308
2.46104
1.19224
0.410395
0.246349
0.218357
0.216874
0.216273
0.210416
0.199366
0.185258
0.169162
0.156843
0.147674
0.143754
0.144109
0.1444
0.145953
0.145621
0.149491
0.157127
0.158383
0.152468
0.148481
0.152541
0.167427
0.194307
0.217715
0.249217
0.291792
0.33298
0.348622
0.348191
0.320438
0.307145
0.327291
0.391229
0.456759
0.494699
0.572425
0.601512
0.599067
0.568857
0.524889
0.489444
0.433129
0.339175
0.273379
0.247915
0.230463
0.21506
0.209452
0.207084
0.205964
0.205528
0.205704
0.20754
0.208901
0.211083
0.215655
0.223404
0.233915
0.247198
0.2628
0.279395
0.294676
0.306519
0.317578
0.333558
0.352339
0.373066
0.396236
0.416828
0.437498
0.458494
0.483529
0.519008
0.564104
0.619639
0.659705
0.686156
0.698485
0.701663
0.687874
0.646858
0.570038
0.509525
0.474498
0.435594
0.425344
0.418842
0.410504
0.392149
0.345934
0.305857
0.289393
0.287437
0.289493
0.300258
0.320031
0.332768
0.365523
0.417719
0.418098
0.389537
0.377746
0.357086
0.328943
0.326628
0.341459
0.413719
0.470813
0.496668
0.551824
0.615085
0.787724
1.39909
2.01286
2.53898
2.54224
1.92471
1.51365
1.36019
1.31882
1.3081
1.28293
1.21724
1.21496
1.4178
1.60195
1.85834
1.94377
1.9794
1.98057
2.01344
2.45324
2.97105
2.75303
1.71301
1.83504
1.8004
1.99559
2.07475
2.04718
2.05718
2.14821
2.23705
2.11386
1.94985
2.02929
2.01781
2.07747
1.99177
1.93184
1.84481
2.0109
2.24416
2.6396
2.80132
2.98622
3.03729
2.80468
2.64526
2.59563
2.761
3.10008
3.19163
3.43299
3.38498
3.07535
3.29674
3.50778
3.67076
3.93905
3.80498
3.40813
3.26415
2.75433
2.60936
19.8171
5.01326
2.15522
0.614081
0.272736
0.214177
0.210422
0.212014
0.20927
0.194968
0.178178
0.164917
0.149145
0.141015
0.136219
0.135045
0.136581
0.14078
0.147522
0.151736
0.155575
0.159312
0.158518
0.146096
0.139851
0.14341
0.158874
0.190102
0.218715
0.240311
0.257771
0.260715
0.259214
0.252949
0.257285
0.300301
0.405372
0.439764
0.442786
0.445939
0.481005
0.503192
0.497466
0.454222
0.389072
0.343167
0.301382
0.226939
0.198268
0.185957
0.180006
0.177836
0.177336
0.17739
0.179818
0.183934
0.187311
0.189745
0.19259
0.19546
0.20104
0.209338
0.218858
0.231185
0.246017
0.262473
0.280605
0.295945
0.309769
0.326151
0.346194
0.372621
0.399545
0.426901
0.459016
0.490485
0.518416
0.554117
0.600874
0.637995
0.657943
0.671048
0.668411
0.63823
0.599927
0.527373
0.476812
0.411654
0.390077
0.360054
0.347549
0.335168
0.328749
0.325774
0.301993
0.2563
0.237524
0.237115
0.235328
0.24409
0.262679
0.271643
0.287262
0.323118
0.348696
0.361012
0.37163
0.359012
0.327917
0.32104
0.318904
0.372406
0.447371
0.482991
0.531048
0.572499
0.72182
1.35829
1.99252
2.45356
2.2524
1.60449
1.30434
1.20891
1.20873
1.20839
1.23519
1.1752
1.10734
1.19831
1.29859
1.47627
1.76017
1.9332
1.90602
1.77577
1.91761
2.3971
1.95006
1.70634
1.83094
1.77164
1.98577
2.08624
2.04885
1.92781
2.12044
2.25337
2.02575
1.80861
2.01145
2.00715
2.01639
1.90836
1.8739
1.85329
2.02744
2.14679
2.57606
2.65417
2.75093
2.91292
2.70971
2.40107
2.3297
2.5615
2.92634
3.04207
3.28435
3.3813
3.02635
3.09354
3.28049
3.51227
3.76011
3.68632
3.39247
3.11979
2.64239
2.60505
24.1416
5.10034
1.60907
0.473328
0.24328
0.210113
0.210631
0.212846
0.209193
0.192704
0.176044
0.163924
0.147659
0.139343
0.135789
0.135429
0.137816
0.144256
0.151614
0.155102
0.155986
0.153948
0.142011
0.129816
0.128548
0.130197
0.138018
0.157436
0.179707
0.187993
0.194831
0.201364
0.209744
0.22764
0.27886
0.372271
0.424912
0.425965
0.388722
0.372701
0.377202
0.382125
0.374739
0.335695
0.281158
0.252548
0.222068
0.178465
0.167519
0.163583
0.162525
0.162573
0.164886
0.170059
0.176338
0.181669
0.18537
0.186832
0.188015
0.190279
0.194832
0.201836
0.212014
0.224931
0.238724
0.254991
0.273315
0.289785
0.306492
0.323543
0.345328
0.374757
0.408561
0.446225
0.48543
0.519582
0.547287
0.579349
0.61237
0.631848
0.638847
0.625266
0.599772
0.547161
0.50533
0.431399
0.398602
0.350689
0.317822
0.299543
0.292102
0.274884
0.26566
0.263698
0.25503
0.220853
0.205878
0.200545
0.199895
0.216529
0.240288
0.248086
0.238998
0.25276
0.277813
0.293662
0.327624
0.343068
0.318735
0.31142
0.319551
0.349005
0.420969
0.470556
0.529209
0.562695
0.677985
1.24892
1.91334
2.19007
1.99524
1.41782
1.20227
1.15106
1.17708
1.09008
1.05114
1.04775
1.01199
1.03845
1.10498
1.14062
1.28588
1.58776
1.80663
1.5537
1.4969
1.60459
1.57229
1.9208
1.83106
1.94892
2.12938
2.30022
2.08616
1.91336
2.10303
2.28539
1.97797
1.71862
1.92828
1.99124
1.95927
1.81526
1.7928
1.92046
2.01107
2.09523
2.38893
2.44252
2.51691
2.69922
2.58088
2.23898
2.18603
2.47093
2.86802
2.93398
3.11838
3.38429
3.01197
2.97402
3.08895
3.32663
3.58433
3.46762
2.98999
2.57601
2.32179
2.27958
27.7315
5.13113
1.51528
0.451764
0.24676
0.219966
0.229426
0.234157
0.230289
0.209052
0.191707
0.179509
0.160073
0.147915
0.143192
0.142409
0.144019
0.148339
0.152314
0.152995
0.151749
0.147036
0.137157
0.129435
0.128663
0.129489
0.133521
0.142566
0.153226
0.162302
0.174789
0.18917
0.210954
0.247437
0.315178
0.388696
0.400669
0.377817
0.312057
0.298904
0.298719
0.298752
0.289101
0.259149
0.222578
0.205769
0.184695
0.16135
0.156921
0.155765
0.155934
0.15879
0.164488
0.171639
0.178733
0.184701
0.189383
0.191671
0.192428
0.192673
0.194898
0.200267
0.208738
0.221754
0.236698
0.252851
0.269875
0.289181
0.307238
0.324222
0.344822
0.373587
0.407795
0.445327
0.485062
0.519349
0.547188
0.579091
0.602524
0.609404
0.596207
0.574775
0.539045
0.490889
0.437413
0.386208
0.34612
0.311966
0.280977
0.250596
0.226414
0.204001
0.194848
0.195943
0.192983
0.178479
0.177501
0.1766
0.177569
0.193883
0.221123
0.225988
0.231787
0.226637
0.237785
0.264489
0.289356
0.309982
0.301166
0.293544
0.311687
0.346371
0.395494
0.444658
0.526876
0.563102
0.655254
1.13118
1.75215
1.93856
1.78727
1.31702
1.14079
1.13771
1.16908
1.03153
0.917941
0.932775
0.958995
0.943409
0.955742
0.958994
1.02775
1.14341
1.34468
1.34352
1.29543
1.31479
1.53716
1.93407
1.91469
2.28696
2.47412
2.57223
2.08744
1.86209
1.876
2.22633
1.82644
1.66086
1.74681
1.85943
1.7959
1.6509
1.72815
1.98193
1.94735
2.08719
2.09826
2.20112
2.30516
2.51519
2.44788
2.15704
2.13099
2.40215
2.86369
2.91004
3.05014
3.39835
2.98446
2.85726
2.91388
3.10154
3.36926
3.17659
2.55491
2.21389
2.04784
1.9475
30.6641
5.25319
1.5275
0.49399
0.291703
0.251343
0.245888
0.245106
0.239071
0.222638
0.209022
0.19436
0.180214
0.162974
0.156195
0.154403
0.154653
0.157366
0.157132
0.155621
0.152427
0.147136
0.138412
0.132576
0.130973
0.131309
0.134364
0.141247
0.149599
0.159069
0.172972
0.191
0.218318
0.260762
0.327788
0.352485
0.351071
0.322917
0.273831
0.262025
0.259397
0.256419
0.240831
0.208561
0.185536
0.176914
0.164892
0.155225
0.153231
0.152965
0.155384
0.161181
0.169841
0.181663
0.192702
0.201241
0.206082
0.206748
0.205233
0.202176
0.201226
0.201884
0.205575
0.215495
0.230593
0.247459
0.263372
0.283595
0.304622
0.322507
0.341809
0.36801
0.399526
0.433076
0.470257
0.502663
0.529534
0.559599
0.572218
0.556347
0.529299
0.51492
0.471874
0.425521
0.38655
0.335201
0.298313
0.250876
0.215223
0.193543
0.175544
0.166738
0.16194
0.157558
0.162361
0.155853
0.154769
0.156919
0.167888
0.186662
0.20671
0.210035
0.209207
0.210818
0.217615
0.250955
0.282892
0.295517
0.297302
0.293494
0.310083
0.360961
0.394231
0.427103
0.516209
0.567425
0.636556
1.00174
1.58322
1.72389
1.61928
1.27739
1.11807
1.12671
1.16139
1.01003
0.826395
0.836841
0.928671
0.907647
0.884395
0.888805
0.881108
0.885462
1.05294
1.1813
1.19846
1.19842
1.54
2.09913
2.0369
2.46321
2.75442
2.5943
2.03458
1.71953
1.59062
1.84512
1.73931
1.64715
1.61476
1.62804
1.55912
1.5345
1.73536
1.9925
1.81479
2.02905
1.90379
1.91819
2.12931
2.36921
2.30751
2.12415
2.15246
2.34297
2.81032
2.90361
3.04591
3.40399
2.92496
2.69126
2.76424
2.89667
3.15957
2.89375
2.29335
2.03915
1.95712
1.87391
33.4489
5.638
1.61469
0.602254
0.370897
0.285824
0.250265
0.243323
0.239591
0.231742
0.222574
0.205197
0.192014
0.18238
0.171912
0.167765
0.165487
0.164519
0.164606
0.164825
0.163466
0.157772
0.150327
0.146899
0.146316
0.146466
0.148568
0.152964
0.158969
0.16743
0.181133
0.200363
0.229827
0.272677
0.310068
0.316042
0.312806
0.295753
0.263208
0.248347
0.241219
0.228754
0.203883
0.175663
0.164072
0.159492
0.1551
0.152925
0.15273
0.155961
0.16341
0.174747
0.18452
0.189838
0.196398
0.205389
0.212907
0.214536
0.214113
0.2116
0.2081
0.206007
0.205898
0.212049
0.225352
0.241934
0.257188
0.27339
0.293061
0.312009
0.327774
0.345598
0.36757
0.392366
0.421917
0.451007
0.479077
0.495019
0.507901
0.51108
0.476856
0.436841
0.391698
0.340783
0.319479
0.267699
0.229392
0.198289
0.179567
0.163612
0.153738
0.148595
0.148287
0.146375
0.146246
0.144798
0.145407
0.151663
0.164035
0.174674
0.186513
0.198553
0.203951
0.204247
0.206937
0.226084
0.278329
0.29849
0.296587
0.296269
0.3141
0.369236
0.405714
0.426696
0.505141
0.570609
0.618493
0.874977
1.41953
1.54821
1.47902
1.25475
1.08821
1.10575
1.14473
0.995278
0.758575
0.775133
0.863286
0.883435
0.803501
0.81317
0.793766
0.720842
0.889127
1.04429
1.07683
1.22299
1.91477
2.3782
2.16795
2.45162
2.72045
2.36731
1.86167
1.56705
1.42654
1.51229
1.68294
1.65117
1.57433
1.49579
1.42076
1.49094
1.81013
1.92675
1.71402
1.82846
1.69047
1.65116
2.03555
2.24878
2.18243
2.13595
2.21056
2.31415
2.69085
2.85276
3.02125
3.34246
2.85175
2.52126
2.60626
2.67758
2.94625
2.63858
2.07572
1.91288
1.87081
1.79387
36.4659
6.03487
1.65825
0.719207
0.490095
0.351209
0.261054
0.242292
0.246797
0.244552
0.237903
0.221148
0.205065
0.195757
0.183709
0.177776
0.173869
0.172459
0.171988
0.172467
0.174572
0.177234
0.178671
0.179712
0.180078
0.181476
0.184218
0.185873
0.189954
0.197592
0.211112
0.226631
0.245839
0.272118
0.286765
0.286978
0.278372
0.256866
0.241562
0.235579
0.2268
0.206347
0.173173
0.156384
0.152392
0.152191
0.153098
0.155491
0.158835
0.165815
0.175912
0.183183
0.184946
0.185413
0.18623
0.18988
0.196056
0.203489
0.209016
0.208615
0.206451
0.205236
0.204887
0.207799
0.215981
0.231073
0.248485
0.26212
0.276403
0.290547
0.306436
0.317561
0.334311
0.351114
0.377285
0.406223
0.434527
0.438255
0.412523
0.412484
0.402325
0.347416
0.309439
0.258757
0.238793
0.206471
0.191907
0.174879
0.166102
0.155386
0.145967
0.144718
0.140502
0.13892
0.140663
0.140959
0.141449
0.146179
0.163451
0.171509
0.177721
0.193339
0.197619
0.199275
0.203844
0.214679
0.257049
0.303651
0.295813
0.303688
0.333075
0.365169
0.405905
0.425702
0.497371
0.57021
0.598678
0.756276
1.23855
1.39973
1.35867
1.1946
1.04565
1.06322
1.10537
0.960675
0.744024
0.724998
0.781373
0.813453
0.727058
0.749396
0.702208
0.652802
0.78796
0.973111
1.01471
1.33189
2.25648
2.31908
2.27122
2.32978
2.42693
2.22288
1.66917
1.48668
1.32657
1.32528
1.50164
1.62914
1.5484
1.41218
1.33053
1.5032
1.83081
1.72583
1.61472
1.58476
1.47341
1.45794
2.02157
2.20091
2.07456
2.15552
2.31643
2.31461
2.60532
2.81971
2.9639
3.26371
2.78709
2.38662
2.41733
2.45625
2.76049
2.45096
1.92914
1.79608
1.78337
1.71884
39.1853
6.47208
1.85148
1.05267
0.787957
0.587774
0.370857
0.278797
0.251634
0.243161
0.235037
0.221646
0.207277
0.198591
0.18896
0.184472
0.181541
0.181134
0.181459
0.183125
0.18672
0.191045
0.195093
0.198973
0.200728
0.201958
0.204224
0.206565
0.209292
0.213764
0.222832
0.232515
0.244532
0.248849
0.246101
0.236878
0.217097
0.206911
0.204377
0.202511
0.195655
0.177182
0.155351
0.149029
0.147757
0.149229
0.15542
0.163906
0.167241
0.168601
0.17064
0.171725
0.167432
0.16407
0.162671
0.162936
0.165757
0.171332
0.180956
0.187047
0.191063
0.193754
0.195145
0.19759
0.204111
0.214852
0.228344
0.239866
0.250718
0.25777
0.26581
0.26952
0.278698
0.292863
0.314507
0.326275
0.344827
0.355695
0.333376
0.307732
0.295468
0.250313
0.234667
0.199978
0.18454
0.176542
0.170828
0.161896
0.156771
0.149328
0.143637
0.140838
0.140433
0.138825
0.139277
0.140603
0.142628
0.146351
0.160181
0.16636
0.169714
0.189974
0.201002
0.197624
0.195279
0.201631
0.226838
0.30084
0.296841
0.304017
0.343098
0.368426
0.40591
0.426637
0.495916
0.570387
0.587545
0.669326
1.05422
1.291
1.26955
1.14033
0.994324
1.00845
1.0265
0.915596
0.754012
0.697157
0.711947
0.719854
0.690216
0.696389
0.650135
0.580623
0.726698
0.94558
1.02445
1.64449
2.25973
2.29903
2.21833
2.16141
2.35202
1.9651
1.53309
1.46997
1.29299
1.24787
1.3025
1.47962
1.44725
1.33621
1.23956
1.5054
1.75048
1.4674
1.44454
1.37907
1.34326
1.37295
2.02283
2.12234
1.96872
2.13882
2.50352
2.38919
2.52079
2.73571
2.87946
3.14509
2.69893
2.30229
2.23174
2.27048
2.60972
2.35646
1.84606
1.72823
1.7493
1.65285
42.0098
7.11029
2.34043
1.75735
1.45521
1.06293
0.608207
0.339238
0.252558
0.240819
0.235205
0.226058
0.210704
0.199857
0.189708
0.184952
0.181573
0.181303
0.182362
0.184951
0.189523
0.195137
0.20077
0.20616
0.208756
0.209295
0.209582
0.209795
0.21004
0.210916
0.210888
0.208023
0.204236
0.195951
0.185576
0.180067
0.175143
0.174067
0.174411
0.174195
0.170455
0.160432
0.15017
0.148064
0.147813
0.149705
0.156408
0.162546
0.163457
0.161618
0.155359
0.153047
0.153317
0.15527
0.155889
0.156025
0.158176
0.163399
0.170326
0.178236
0.187495
0.191242
0.192439
0.19449
0.199514
0.20625
0.214225
0.221941
0.226646
0.228702
0.23433
0.235567
0.24147
0.255433
0.273907
0.28801
0.294686
0.304381
0.308135
0.270954
0.241519
0.204833
0.178917
0.156079
0.149977
0.145689
0.150177
0.149758
0.154133
0.149548
0.143869
0.141405
0.14085
0.139107
0.141174
0.144226
0.144222
0.148653
0.165603
0.171157
0.166262
0.174119
0.193515
0.191132
0.189913
0.192885
0.210709
0.277586
0.292949
0.295974
0.33985
0.370648
0.402685
0.431
0.494973
0.573109
0.580948
0.619562
0.872567
1.19148
1.2104
1.11594
0.964606
0.955293
0.954502
0.875438
0.760944
0.675582
0.663557
0.647696
0.625997
0.659801
0.608034
0.548367
0.691863
0.859105
1.07201
1.85698
2.08564
2.22733
1.84573
2.18636
2.12864
1.94142
1.49647
1.45951
1.26648
1.21758
1.22293
1.38675
1.37403
1.29637
1.20117
1.39294
1.4967
1.25384
1.25985
1.23536
1.29112
1.40028
1.98595
1.99119
1.92375
2.1667
2.822
2.52585
2.37904
2.52483
2.79879
3.02954
2.60036
2.28013
2.10944
2.13321
2.46688
2.27982
1.82228
1.71957
1.70799
1.55764
44.6185
7.87277
3.22298
2.78546
2.50884
1.8692
1.12112
0.571667
0.314672
0.25145
0.236596
0.22304
0.206161