/*--------------------------------*- C++ -*----------------------------------*\
| =========                 |                                                 |
| \\      /  F ield         | OpenFOAM: The Open Source CFD Toolbox           |
|  \\    /   O peration     | Version:  dev                                   |
|   \\  /    A nd           | Web:      http://www.openfoam.org               |
|    \\/     M anipulation  |                                                 |
\*---------------------------------------------------------------------------*/
FoamFile
{
    version     2.0;
    format      ascii;
    class       volScalarField;
    object      muSgs;
    location    "9.143";
}
// * * * * * * * * * * * * * * * * * * * * * * * * * * * * * * * * * * * * * //

dimensions      [1 -1 -1 0 0 0 0];

internalField   nonuniform List<scalar> 
12225
(
0.000211542
0.00024884
0.000220147
0.000243683
0.000231471
0.000280934
0.000276727
0.000322806
0.000324786
0.000359093
0.000369989
0.000408283
0.000410675
0.000447259
0.000447828
0.000563051
0.000546038
0.000555496
0.000100989
0.00017602
0.000162822
0.000172328
0.000157189
0.000169251
0.000162276
0.000172684
0.000172571
0.000177073
0.000184217
0.000186767
0.000205208
0.000194237
0.000197317
0.000220478
0.000209702
0.000232042
3.39134e-05
0.000102531
0.0001089
0.000133762
0.000128751
0.000135317
0.000131246
0.000134439
0.00013166
0.000132131
0.00012957
0.000130562
0.000136405
0.000132424
0.000124418
0.000109931
0.000114106
0.000114308
1.25173e-05
5.49592e-05
6.50139e-05
8.59159e-05
8.77237e-05
9.16195e-05
9.32428e-05
9.39186e-05
9.48101e-05
9.38206e-05
9.21313e-05
9.02897e-05
9.64688e-05
0.0001016
9.90385e-05
9.18712e-05
0.000101079
0.000119336
5.80703e-06
2.66587e-05
3.71706e-05
4.82743e-05
5.73862e-05
5.81484e-05
6.44049e-05
6.35321e-05
6.72574e-05
6.56907e-05
6.79895e-05
6.59803e-05
7.91965e-05
8.07685e-05
9.37834e-05
8.73036e-05
0.00011368
0.000121564
8.47482e-06
2.6835e-05
3.08625e-05
4.16279e-05
4.49622e-05
5.10844e-05
5.21302e-05
5.55058e-05
5.66498e-05
6.27946e-05
6.22476e-05
6.51913e-05
6.93644e-05
9.09748e-05
8.79769e-05
8.57036e-05
9.53058e-05
0.000101089
1.36428e-05
2.80826e-05
3.14476e-05
4.29658e-05
4.47008e-05
4.98456e-05
4.95501e-05
5.32097e-05
5.68317e-05
6.18393e-05
6.15381e-05
6.32583e-05
7.08788e-05
7.9751e-05
7.92472e-05
7.41935e-05
8.60936e-05
7.77762e-05
1.34516e-05
1.89366e-05
2.27147e-05
2.97248e-05
3.5186e-05
3.43271e-05
3.41413e-05
3.50892e-05
4.24225e-05
4.3112e-05
4.34417e-05
4.26283e-05
4.81096e-05
4.84263e-05
4.77631e-05
4.16598e-05
4.13037e-05
6.77749e-05
1.50371e-05
1.93281e-05
2.21711e-05
2.67765e-05
3.12781e-05
3.14986e-05
3.1474e-05
3.16399e-05
3.63275e-05
3.6911e-05
3.6986e-05
3.59896e-05
3.84382e-05
3.89532e-05
3.98745e-05
3.83593e-05
3.92425e-05
4.82852e-05
2.06181e-05
2.49458e-05
2.59926e-05
2.90447e-05
3.2522e-05
3.30228e-05
3.34068e-05
3.32017e-05
3.54373e-05
3.62422e-05
3.62792e-05
3.60285e-05
3.62521e-05
3.85743e-05
3.89964e-05
4.09074e-05
3.96893e-05
4.53395e-05
3.18352e-05
3.81537e-05
3.67706e-05
3.67999e-05
3.75391e-05
3.78092e-05
3.76168e-05
3.7361e-05
3.84738e-05
3.94883e-05
3.93344e-05
3.91262e-05
3.89832e-05
4.04815e-05
4.06313e-05
4.18146e-05
4.08131e-05
4.26541e-05
5.28152e-05
5.66393e-05
5.455e-05
5.3755e-05
5.16501e-05
5.0682e-05
4.87041e-05
4.77476e-05
4.64749e-05
4.6363e-05
4.58004e-05
4.54722e-05
4.47758e-05
4.48521e-05
4.4753e-05
4.54883e-05
4.49353e-05
4.62211e-05
8.40121e-05
8.29238e-05
7.95655e-05
7.73594e-05
7.37746e-05
7.14921e-05
6.79006e-05
6.60484e-05
6.38029e-05
6.24506e-05
6.1063e-05
5.96629e-05
5.70576e-05
5.51752e-05
5.40961e-05
5.35074e-05
5.28978e-05
5.2419e-05
0.000119236
0.000114554
0.000108456
0.000104293
9.77212e-05
9.46305e-05
8.9766e-05
8.71586e-05
8.40219e-05
8.22206e-05
7.96269e-05
7.78043e-05
7.49341e-05
7.28366e-05
7.08801e-05
6.9509e-05
6.7945e-05
6.58443e-05
0.000173642
0.000164909
0.000156006
0.000148348
0.000140125
0.000133794
0.000126294
0.000120249
0.000114068
0.000109146
0.000103805
9.93201e-05
9.46397e-05
9.09645e-05
8.70971e-05
8.41946e-05
8.0703e-05
7.81177e-05
0.000234309
0.000220227
0.000205083
0.000189925
0.000176263
0.000164569
0.000153602
0.000144262
0.000135622
0.00012822
0.000121084
0.000115029
0.000108957
0.000104084
9.90268e-05
9.51535e-05
9.05653e-05
8.73563e-05
0.000287026
0.000262489
0.000238558
0.000219095
0.000201905
0.000186996
0.000173686
0.000162367
0.000152041
0.000143152
0.000134804
0.000127749
0.000120752
0.000115038
0.000109107
0.000104498
9.92404e-05
9.55376e-05
0.000292843
0.000268334
0.000244547
0.000224465
0.000206652
0.000191157
0.000177428
0.000165677
0.000154998
0.000145809
0.000137211
0.000129888
0.00012269
0.000116775
0.000110646
0.000105847
0.000100429
9.66285e-05
0.000264883
0.00024524
0.000226089
0.000208831
0.000193141
0.000179221
0.000166694
0.000155784
0.000145812
0.000137221
0.000129158
0.000122273
0.000115439
0.000109819
0.000103997
9.93575e-05
9.41857e-05
9.05647e-05
0.000209235
0.000197371
0.000187026
0.000176954
0.000167396
0.00015804
0.00014863
0.000139896
0.000131484
0.000123987
0.000116947
0.000111011
0.000104824
9.97453e-05
9.44864e-05
9.02186e-05
8.54046e-05
8.21182e-05
0.000160107
0.000149955
0.000140439
0.000133316
0.000126756
0.000120523
0.000114553
0.000109652
0.000104502
9.95455e-05
9.50756e-05
9.14736e-05
8.65567e-05
8.2432e-05
7.83354e-05
7.48294e-05
7.07305e-05
6.81117e-05
0.000115637
0.000110376
0.000106098
0.000102535
9.82149e-05
9.38496e-05
8.93726e-05
8.52091e-05
8.06103e-05
7.60504e-05
7.21892e-05
6.91825e-05
6.58403e-05
6.30733e-05
6.0623e-05
5.85045e-05
5.61192e-05
5.44459e-05
8.01129e-05
7.79543e-05
7.60119e-05
7.39536e-05
7.10925e-05
6.73193e-05
6.45778e-05
6.24732e-05
6.08196e-05
5.92852e-05
5.78903e-05
5.6531e-05
5.49253e-05
5.34507e-05
5.21354e-05
5.0874e-05
4.94861e-05
4.83036e-05
5.23617e-05
5.27959e-05
5.16639e-05
5.03654e-05
4.96491e-05
4.98098e-05
5.05808e-05
5.16365e-05
5.22427e-05
5.23962e-05
5.21424e-05
5.14442e-05
5.04407e-05
4.95649e-05
4.8637e-05
4.76164e-05
4.66436e-05
4.5622e-05
3.16785e-05
3.26386e-05
3.36659e-05
3.70174e-05
4.06544e-05
4.38521e-05
4.65875e-05
4.89242e-05
5.04796e-05
5.13007e-05
5.14007e-05
5.09115e-05
5.0126e-05
4.93836e-05
4.85955e-05
4.77304e-05
4.68225e-05
4.58354e-05
1.60638e-05
2.13689e-05
2.7248e-05
3.57197e-05
4.30156e-05
4.87338e-05
5.28768e-05
5.63084e-05
5.86063e-05
5.98252e-05
6.00128e-05
5.94036e-05
5.84658e-05
5.75794e-05
5.66543e-05
5.56252e-05
5.45635e-05
5.34213e-05
9.01817e-06
2.35317e-05
4.01804e-05
5.73958e-05
6.91064e-05
7.66067e-05
8.08472e-05
8.35165e-05
8.48288e-05
8.49119e-05
8.39361e-05
8.23853e-05
8.06518e-05
7.90876e-05
7.74942e-05
7.57907e-05
7.41036e-05
7.23356e-05
1.71033e-05
5.78581e-05
9.30044e-05
0.00011497
0.000127249
0.000133007
0.000133488
0.000131914
0.000129356
0.000126442
0.000123382
0.0001198
0.000116603
0.000113497
0.000110389
0.000107038
0.000103799
0.000100707
6.46999e-05
0.000157989
0.000188877
0.000193256
0.000189818
0.0001835
0.00017736
0.000172518
0.000167477
0.000162557
0.000157934
0.000153401
0.00014936
0.000145156
0.000141186
0.000136758
0.000132665
0.000128128
0.000242629
0.000301564
0.000290967
0.000262161
0.000244188
0.000237875
0.000236068
0.000236899
0.000238484
0.000239237
0.000238943
0.000237638
0.000235294
0.000231875
0.000227698
0.000222396
0.000216512
0.000209284
3.62536e-05
3.87791e-05
4.006e-05
4.12421e-05
4.30155e-05
4.54725e-05
4.83914e-05
5.15255e-05
5.48143e-05
5.83284e-05
6.2009e-05
6.59422e-05
7.02053e-05
7.45472e-05
7.9273e-05
8.43076e-05
8.9351e-05
9.50141e-05
0.000100892
0.000105922
0.000110924
0.000116822
0.000123635
0.000130188
0.000135924
0.000144186
0.000152839
0.000161266
0.000171245
0.000181131
0.000190908
0.000196762
0.000200805
0.000205428
0.000210917
0.000218336
0.000224408
0.000228459
0.000232844
0.000238523
0.000243105
0.000246683
0.000250226
0.000256192
0.000265843
0.000277592
0.000285228
0.000289226
0.000293194
0.000297491
0.000301185
0.000302788
0.000304968
0.000308827
0.00031464
0.000320795
0.000326545
0.0003322
0.000337341
0.000342049
0.000346508
0.00035097
0.000354564
0.000357603
0.000360007
0.000362026
0.000364041
0.000366285
0.000369137
0.000372353
0.000376395
0.000382116
0.000389324
0.000398224
0.000408803
0.000421441
0.000435627
0.000450438
0.000461894
0.000466221
0.000467253
0.000462851
0.000451078
0.000434958
0.000414501
0.000391244
0.000367202
0.000343743
0.000320797
0.000298033
0.000277242
0.000260061
0.000243315
0.000230691
0.000221924
0.00021063
0.000205204
0.000198313
0.000194901
0.000190844
0.000188487
0.000187168
0.000187701
0.000189146
0.000192234
0.000202713
0.000218174
0.000226613
0.000228639
0.000227657
0.000225133
0.000223841
0.000217752
0.000205199
0.000187447
0.000167293
0.000159437
0.000167282
0.000187343
0.00018758
0.000183369
0.000182743
0.000183091
0.000211116
0.000293967
0.000337084
0.000337963
0.000316667
0.000308647
0.000311407
0.000334823
0.000371338
0.000411858
0.000459752
0.000496242
0.000505766
0.000504833
0.000536426
0.000552156
0.00053431
0.000539689
0.000502994
0.000513593
0.000504352
0.000495908
0.000475972
0.000476109
0.000462821
0.00043536
0.000417913
0.000408496
0.000403213
0.000403435
0.000410091
0.000435169
0.000465748
0.00048085
0.000468582
0.000450235
0.000433979
0.000420461
0.000428567
0.000457184
0.000471597
0.000467599
0.000475839
0.000464721
0.000441948
0.000434511
0.000471528
0.000516053
0.000549673
0.00059161
0.000611129
0.000645261
0.000664293
0.000675361
0.000690963
0.000708635
0.00074009
8.19683e-05
5.7605e-05
4.61775e-05
4.31412e-05
4.35151e-05
4.53611e-05
4.8327e-05
5.1209e-05
5.35692e-05
5.59168e-05
5.8259e-05
6.05996e-05
6.32281e-05
6.56916e-05
6.75452e-05
7.0346e-05
7.28777e-05
7.33862e-05
7.53629e-05
7.8928e-05
7.94425e-05
7.9817e-05
8.11862e-05
8.15062e-05
8.17409e-05
8.31066e-05
8.4646e-05
8.61596e-05
9.07583e-05
9.68978e-05
0.000104465
0.000119983
0.000131435
0.00013465
0.000137378
0.000138085
0.000130489
0.000116077
0.000105615
9.83791e-05
9.05242e-05
8.92984e-05
8.95879e-05
9.19016e-05
9.89375e-05
0.000113246
0.000129589
0.000132233
0.000132554
0.000134217
0.000138146
0.000140484
0.000141258
0.000143509
0.000153703
0.000168279
0.000180992
0.000189414
0.000195284
0.000200806
0.000204072
0.000206746
0.000209339
0.000211887
0.000214673
0.000218075
0.000222316
0.000227396
0.000231985
0.000236489
0.000242678
0.000249299
0.000256348
0.000261853
0.000264241
0.000264035
0.000261682
0.000254942
0.000245841
0.000234535
0.000222159
0.000209001
0.000195499
0.000182315
0.000169579
0.000158418
0.000150095
0.000142516
0.000136039
0.000130345
0.00012641
0.000124734
0.000123174
0.00012253
0.00012175
0.000120735
0.000122397
0.000122314
0.000123174
0.000123705
0.000123359
0.000122721
0.000124335
0.000125951
0.000124938
0.000130319
0.000148071
0.000163735
0.00017097
0.000177852
0.000183235
0.000188362
0.000192566
0.000190919
0.000178822
0.000161136
0.000153639
0.000154196
0.000166495
0.000173774
0.000183279
0.000202265
0.000249975
0.00028593
0.000298849
0.000285473
0.000241391
0.00023172
0.000235221
0.00025189
0.000278852
0.000304577
0.000334564
0.000359997
0.000361966
0.000352952
0.000355692
0.000380196
0.000377909
0.000359294
0.000369391
0.000349114
0.00037738
0.000373575
0.000378026
0.000379636
0.000379337
0.000354634
0.000345099
0.000352664
0.000354463
0.000356527
0.000342755
0.0003393
0.000363064
0.000400983
0.00044552
0.00045412
0.000443904
0.000435362
0.000420162
0.000412205
0.000436662
0.000461921
0.000463824
0.000460178
0.000455975
0.000431305
0.000394393
0.000410991
0.000432553
0.000453349
0.00047408
0.000498414
0.000514425
0.000521205
0.000556297
0.000589323
0.000606365
0.000611288
0.00013541
8.8024e-05
6.376e-05
5.35553e-05
5.33241e-05
5.6045e-05
6.08164e-05
6.50877e-05
6.7275e-05
6.8556e-05
6.95118e-05
7.00525e-05
7.02208e-05
7.10907e-05
7.14944e-05
7.15928e-05
7.27956e-05
7.35171e-05
7.32154e-05
7.40476e-05
7.50422e-05
7.54741e-05
7.68109e-05
7.67026e-05
7.71863e-05
7.74351e-05
7.63571e-05
7.66739e-05
7.58623e-05
7.54671e-05
7.63432e-05
7.64291e-05
7.85548e-05
8.71954e-05
9.63671e-05
9.66904e-05
9.4814e-05
9.17376e-05
8.77174e-05
7.87201e-05
7.05493e-05
6.97515e-05
7.00082e-05
6.90174e-05
6.77914e-05
6.82421e-05
7.1658e-05
7.94376e-05
9.2696e-05
0.000109384
0.000124148
0.000136071
0.000142085
0.000143036
0.000143292
0.000143669
0.000141571
0.000139733
0.000139573
0.000139281
0.000139345
0.000139494
0.000140356
0.000141361
0.000142759
0.000144855
0.000147134
0.000148963
0.00015157
0.000155054
0.000159179
0.00016257
0.000163295
0.000162155
0.000157991
0.000150516
0.000141857
0.000131783
0.000123032
0.000115596
0.000109225
0.000104209
0.000100484
9.75289e-05
9.56371e-05
9.43834e-05
9.35526e-05
9.27901e-05
9.17694e-05
9.0601e-05
8.94834e-05
8.96223e-05
9.0027e-05
9.01878e-05
8.94203e-05
8.90348e-05
8.99555e-05
9.07702e-05
9.17984e-05
9.23383e-05
9.24306e-05
9.19439e-05
9.09242e-05
8.88145e-05
8.70412e-05
8.78565e-05
9.71246e-05
0.000113664
0.000122307
0.000127546
0.000134125
0.00013849
0.000147255
0.000162446
0.000168898
0.000160903
0.000147587
0.000144465
0.000152567
0.000165667
0.000186192
0.000238256
0.000270257
0.000282332
0.000258631
0.000205099
0.000189389
0.000193148
0.000198531
0.000213124
0.000227568
0.000247007
0.00027341
0.000279433
0.000272503
0.000265236
0.000264279
0.000279642
0.000272613
0.000261169
0.000267505
0.000255699
0.000287304
0.000264586
0.000285423
0.000295549
0.000307099
0.000260125
0.000250979
0.000277643
0.000291287
0.000302275
0.000276884
0.000251714
0.000257956
0.000280695
0.00032856
0.00036014
0.000362082
0.000366251
0.000365154
0.000340754
0.000347248
0.000385959
0.000409382
0.00040581
0.000415212
0.000403992
0.000371897
0.000374995
0.000379382
0.000384979
0.000392333
0.000410654
0.000415667
0.000439512
0.000462873
0.000463618
0.000452812
0.000435937
0.000184523
0.000105078
8.01456e-05
7.2691e-05
7.69197e-05
8.01119e-05
7.96156e-05
7.60634e-05
7.31791e-05
7.10966e-05
6.97574e-05
6.91216e-05
6.78367e-05
6.6857e-05
6.68473e-05
6.5989e-05
6.44003e-05
6.33786e-05
6.27778e-05
6.18203e-05
6.1423e-05
6.21382e-05
6.21945e-05
6.34424e-05
6.43268e-05
6.45604e-05
6.6075e-05
6.64718e-05
6.88415e-05
7.12178e-05
7.08924e-05
7.21718e-05
7.23572e-05
7.02658e-05
7.03174e-05
7.25128e-05
7.41453e-05
7.41099e-05
7.1854e-05
6.91633e-05
6.95845e-05
7.29846e-05
7.73623e-05
7.78469e-05
7.81265e-05
8.03207e-05
8.79886e-05
0.000101241
0.000114064
0.00012056
0.000122278
0.000122398
0.000120871
0.000114575
0.000108146
0.000103683
0.000100096
9.77908e-05
9.53019e-05
9.39945e-05
9.39208e-05
9.42087e-05
9.48887e-05
9.60865e-05
9.76903e-05
9.87195e-05
9.94085e-05
0.000100219
0.000101429
0.000103123
0.000105152
0.00010602
0.000105879
0.000104265
0.00010047
9.55332e-05
9.04431e-05
8.6961e-05
8.49756e-05
8.40432e-05
8.37628e-05
8.44719e-05
8.54706e-05
8.64945e-05
8.76968e-05
8.85928e-05
8.8875e-05
8.90342e-05
8.88314e-05
8.78082e-05
8.62151e-05
8.53431e-05
8.50995e-05
8.45832e-05
8.3321e-05
8.14496e-05
8.10241e-05
8.16799e-05
8.32182e-05
8.36385e-05
8.41557e-05
8.44022e-05
8.43006e-05
8.01226e-05
7.69665e-05
7.73709e-05
8.11075e-05
9.18272e-05
0.00010235
0.000108075
0.000114156
0.000116964
0.000119279
0.00012993
0.000152032
0.000156286
0.000149741
0.000149466
0.000156455
0.000169475
0.000214609
0.000251457
0.000265718
0.000248375
0.000200611
0.000173586
0.000174754
0.000179736
0.000183781
0.000198848
0.000206774
0.000221492
0.00023655
0.000240084
0.000242507
0.000236331
0.000227969
0.000247751
0.000234996
0.000225931
0.000236635
0.000205151
0.000249932
0.000211759
0.0002389
0.000256564
0.000280589
0.000238808
0.000206828
0.00021643
0.000243985
0.000272684
0.000266451
0.000231065
0.000219481
0.000221177
0.000254351
0.000292832
0.000302494
0.000311784
0.000321755
0.000301918
0.000293739
0.000321646
0.000355503
0.000361103
0.000389375
0.000383724
0.000382471
0.000355413
0.000353249
0.00034847
0.000356264
0.000373817
0.00037699
0.000398136
0.000399404
0.000384266
0.000367961
0.000344935
0.000221835
0.000114409
9.22385e-05
9.61183e-05
9.49861e-05
8.70999e-05
8.01656e-05
7.30515e-05
6.59955e-05
6.02863e-05
5.52987e-05
5.2209e-05
5.04535e-05
4.77401e-05
4.65965e-05
4.55046e-05
4.47913e-05
4.52057e-05
4.53227e-05
4.59859e-05
4.73016e-05
4.82919e-05
4.98335e-05
5.09515e-05
5.228e-05
5.34833e-05
5.43948e-05
5.56708e-05
5.63716e-05
5.71749e-05
6.13853e-05
6.75504e-05
6.73291e-05
6.46953e-05
6.4566e-05
6.44028e-05
6.41842e-05
6.30646e-05
6.2988e-05
6.6498e-05
7.40389e-05
8.16554e-05
8.33642e-05
8.4993e-05
8.77697e-05
9.25252e-05
9.9706e-05
0.000104216
0.00010548
0.000105714
0.000102888
9.52626e-05
8.90332e-05
8.47262e-05
8.14187e-05
7.83579e-05
7.54896e-05
7.33808e-05
7.07714e-05
6.97374e-05
6.95744e-05
6.97799e-05
7.05723e-05
7.20922e-05
7.37111e-05
7.43166e-05
7.48026e-05
7.54191e-05
7.62206e-05
7.73139e-05
7.86202e-05
7.91038e-05
7.9161e-05
7.87065e-05
7.74965e-05
7.61643e-05
7.56302e-05
7.5594e-05
7.67673e-05
7.83542e-05
8.02019e-05
8.23602e-05
8.43424e-05
8.62778e-05
8.79729e-05
8.94523e-05
9.02317e-05
9.07019e-05
9.06435e-05
8.95061e-05
8.78675e-05
8.61572e-05
8.54342e-05
8.43368e-05
8.35433e-05
8.17032e-05
8.00885e-05
7.9603e-05
7.9029e-05
7.91481e-05
7.94768e-05
8.04392e-05
8.09855e-05
7.95967e-05
7.66521e-05
7.49371e-05
7.57471e-05
8.03708e-05
8.92554e-05
9.72318e-05
0.000104197
0.000108662
0.00010917
0.000111479
0.00012965
0.000146332
0.000148518
0.000155264
0.000169232
0.000191145
0.000230339
0.000250687
0.000244252
0.000204733
0.000172072
0.000161207
0.000167219
0.000172463
0.000175304
0.000188407
0.000198653
0.000204094
0.000210783
0.000216867
0.000224218
0.000215348
0.00020671
0.000236111
0.000222327
0.000209549
0.000231027
0.000189363
0.000236341
0.000199391
0.00020266
0.000212716
0.000243938
0.000232647
0.000209538
0.000198466
0.000206568
0.000231829
0.000240993
0.000218269
0.000204973
0.000198499
0.000214651
0.000249354
0.000268563
0.000276141
0.000293856
0.000284775
0.000271061
0.000285785
0.000311442
0.000316695
0.000355512
0.000363259
0.000389568
0.000336682
0.000343822
0.000347095
0.00034815
0.000356664
0.000357457
0.000371461
0.000355573
0.000328244
0.000306675
0.000305796
0.000260238
0.000138328
0.000119435
0.000110798
9.57486e-05
8.16746e-05
6.55352e-05
5.357e-05
4.79956e-05
4.57837e-05
4.46295e-05
4.36524e-05
4.26206e-05
4.12844e-05
3.99817e-05
3.95062e-05
3.97031e-05
4.02579e-05
4.08007e-05
4.11361e-05
4.24834e-05
4.38108e-05
4.54138e-05
4.68859e-05
4.85462e-05
5.06616e-05
5.16734e-05
5.26525e-05
5.30069e-05
5.36423e-05
5.52328e-05
5.82905e-05
6.12373e-05
6.32072e-05
6.34152e-05
6.06931e-05
5.9062e-05
5.92077e-05
6.26784e-05
7.17848e-05
8.27074e-05
8.37878e-05
8.3879e-05
8.47798e-05
8.78497e-05
9.15149e-05
9.20689e-05
9.17011e-05
8.77618e-05
8.06216e-05
7.61397e-05
7.26064e-05
6.79177e-05
6.59008e-05
6.40003e-05
6.20821e-05
6.06673e-05
5.92985e-05
5.79516e-05
5.7693e-05
5.77543e-05
5.82509e-05
5.93951e-05
6.11467e-05
6.27088e-05
6.35404e-05
6.39508e-05
6.45167e-05
6.53497e-05
6.64584e-05
6.77955e-05
6.88672e-05
6.95838e-05
7.02465e-05
7.07266e-05
7.14625e-05
7.23897e-05
7.37587e-05
7.57311e-05
7.77957e-05
8.0429e-05
8.37263e-05
8.6628e-05
8.85e-05
8.96494e-05
9.04799e-05
9.11318e-05
9.14187e-05
9.10941e-05
9.00853e-05
8.86883e-05
8.65502e-05
8.5294e-05
8.27491e-05
8.12976e-05
8.03752e-05
7.95181e-05
8.0669e-05
8.08152e-05
8.09297e-05
8.06733e-05
8.0239e-05
8.05368e-05
8.08477e-05
7.9435e-05
7.73967e-05
7.62073e-05
7.74097e-05
7.96338e-05
8.10333e-05
8.61421e-05
9.37266e-05
9.9252e-05
0.000101101
0.000111368
0.000129765
0.000143339
0.000162525
0.000185192
0.000208017
0.00023151
0.000241502
0.000210992
0.000181451
0.000162355
0.000154557
0.000156126
0.000161731
0.000166143
0.000181357
0.000194646
0.000195628
0.000196504
0.000206188
0.000214272
0.000201071
0.000189095
0.000227796
0.000219844
0.000199981
0.000221105
0.000188351
0.000219328
0.000191283
0.00018691
0.000183303
0.000209536
0.000216394
0.000204687
0.000191789
0.000184606
0.000201889
0.000220481
0.000207198
0.000198128
0.000189675
0.000193177
0.000222352
0.00025205
0.000254023
0.000275447
0.000273757
0.000255205
0.000262896
0.000282937
0.000285144
0.00031923
0.000339797
0.00038323
0.000336124
0.000337733
0.000351753
0.000352659
0.000349067
0.000343904
0.000349621
0.000317686
0.000293379
0.000282335
0.000284188
0.000305336
0.000169673
0.000139259
0.000111059
8.41998e-05
5.73313e-05
4.69206e-05
4.46004e-05
4.39321e-05
4.33391e-05
4.2706e-05
4.18442e-05
4.04964e-05
3.92661e-05
3.83387e-05
3.79737e-05
3.82061e-05
3.85246e-05
3.84026e-05
3.79316e-05
3.83125e-05
3.93306e-05
3.97481e-05
3.981e-05
4.0121e-05
4.1207e-05
4.30772e-05
4.55304e-05
4.74956e-05
5.05463e-05
5.36833e-05
5.87236e-05
6.20828e-05
6.30407e-05
6.1883e-05
5.94698e-05
5.89898e-05
6.1045e-05
6.70377e-05
7.51533e-05
8.20043e-05
8.28844e-05
8.24741e-05
8.17346e-05
8.14971e-05
8.1531e-05
7.9079e-05
7.29971e-05
6.64089e-05
6.21953e-05
5.92522e-05
5.62734e-05
5.44234e-05
5.35611e-05
5.26262e-05
5.19463e-05
5.15862e-05
5.11355e-05
5.0933e-05
5.09918e-05
5.13265e-05
5.21381e-05
5.34168e-05
5.50792e-05
5.67582e-05
5.81372e-05
5.8912e-05
5.96354e-05
6.0843e-05
6.22266e-05
6.38816e-05
6.53951e-05
6.6781e-05
6.84469e-05
6.98472e-05
7.1079e-05
7.21527e-05
7.37558e-05
7.61517e-05
7.94894e-05
8.36916e-05
8.69841e-05
8.86434e-05
8.9411e-05
8.97225e-05
8.93585e-05
8.75479e-05
8.61878e-05
8.43079e-05
8.39672e-05
8.39588e-05
8.27518e-05
8.09795e-05
7.69281e-05
7.25943e-05
7.09411e-05
7.05844e-05
7.14899e-05
7.19523e-05
7.297e-05
7.60728e-05
7.82557e-05
7.95816e-05
7.90319e-05
7.58493e-05
7.33603e-05
7.23245e-05
7.2155e-05
7.25859e-05
7.23893e-05
7.46263e-05
8.13588e-05
8.79811e-05
9.22679e-05
9.92253e-05
0.000113244
0.000132212
0.000164064
0.000192751
0.000213697
0.000228921
0.000215675
0.000186211
0.00016665
0.000156042
0.000149559
0.00014761
0.000149262
0.00015392
0.000170362
0.000183881
0.000189938
0.000193334
0.000199533
0.000198544
0.000192009
0.000206236
0.000243951
0.000223628
0.00018405
0.00019748
0.000182909
0.00020649
0.000193942
0.000188907
0.000184577
0.000200867
0.000214751
0.000197657
0.000186898
0.000178832
0.000189908
0.000207691
0.000195711
0.000192611
0.000179817
0.000182401
0.000213769
0.000237581
0.000239451
0.000268028
0.000262551
0.000233447
0.000238377
0.00025783
0.000260673
0.000293055
0.000319039
0.00036596
0.000342987
0.000325342
0.000344467
0.000353435
0.000344083
0.000334747
0.00033468
0.000305244
0.000305035
0.000293306
0.000277477
0.000352984
0.000193009
0.000140024
9.58331e-05
5.64043e-05
4.47698e-05
4.25627e-05
4.25678e-05
4.27526e-05
4.23989e-05
4.15449e-05
4.04681e-05
3.9181e-05
3.82028e-05
3.73895e-05
3.72217e-05
3.74048e-05
3.74309e-05
3.76043e-05
3.74267e-05
3.79382e-05
3.90094e-05
3.93226e-05
3.86911e-05
3.83462e-05
3.87751e-05
4.0215e-05
4.30954e-05
4.56543e-05
4.90839e-05
5.37941e-05
5.78657e-05
5.89259e-05
5.84608e-05
5.66062e-05
5.62624e-05
5.86313e-05
6.5068e-05
6.95655e-05
7.24229e-05
7.7839e-05
7.90303e-05
7.88863e-05
7.6249e-05
7.29912e-05
7.04226e-05
6.53211e-05
5.73222e-05
5.23532e-05
5.02374e-05
4.86123e-05
4.72182e-05
4.67435e-05
4.65773e-05
4.64903e-05
4.6494e-05
4.65852e-05
4.68665e-05
4.71144e-05
4.74873e-05
4.81523e-05
4.91879e-05
5.05318e-05
5.21314e-05
5.388e-05
5.56002e-05
5.70464e-05
5.81809e-05
5.93263e-05
6.09219e-05
6.274e-05
6.47202e-05
6.68771e-05
6.86251e-05
7.01726e-05
7.16568e-05
7.33582e-05
7.5828e-05
7.90169e-05
8.30024e-05
8.59619e-05
8.80762e-05
8.91577e-05
8.95847e-05
8.88032e-05
8.644e-05
8.10022e-05
7.76895e-05
7.55618e-05
7.3539e-05
7.38398e-05
7.34896e-05
7.36886e-05
7.11823e-05
6.67038e-05
6.22376e-05
6.12662e-05
6.15718e-05
6.2529e-05
6.25882e-05
6.39872e-05
6.77386e-05
7.28875e-05
7.81235e-05
7.69825e-05
7.39899e-05
7.29259e-05
7.0766e-05
6.82547e-05
6.67858e-05
6.73604e-05
7.51359e-05
8.4073e-05
8.8954e-05
9.29152e-05
0.000102122
0.000122167
0.00016301
0.000194039
0.000213044
0.000216644
0.000190653
0.000165315
0.000152584
0.000147273
0.000144986
0.000145013
0.000144468
0.000144703
0.000155566
0.000167244
0.000179695
0.000186156
0.000193078
0.000189562
0.00018189
0.000201989
0.000229805
0.000210983
0.000159986
0.00018216
0.000162247
0.00019398
0.000194941
0.000183235
0.000184262
0.000199297
0.000215952
0.000188345
0.000180529
0.000177892
0.000184483
0.000196485
0.000186394
0.000191978
0.000176447
0.000185049
0.000214243
0.000225503
0.000230811
0.000263448
0.000258355
0.00022249
0.000223632
0.000239201
0.000242744
0.000272097
0.000302671
0.000348995
0.000343381
0.000315868
0.000329448
0.000348459
0.000335179
0.000327358
0.000328578
0.000312362
0.000321522
0.000295206
0.000284433
0.000397463
0.000199189
0.000128326
6.86538e-05
4.66043e-05
4.17772e-05
4.14954e-05
4.18461e-05
4.20533e-05
4.10417e-05
3.97455e-05
3.88788e-05
3.751e-05
3.69094e-05
3.65508e-05
3.645e-05
3.67781e-05
3.74274e-05
3.83181e-05
3.88472e-05
3.94038e-05
3.98095e-05
3.95353e-05
3.81231e-05
3.78145e-05
3.82973e-05
3.98151e-05
4.32309e-05
4.62741e-05
4.83249e-05
4.97737e-05
4.9988e-05
5.01373e-05
5.04788e-05
5.1846e-05
5.63788e-05
6.56699e-05
6.78267e-05
6.78239e-05
6.90991e-05
7.17951e-05
7.27397e-05
7.17497e-05
6.76614e-05
6.2598e-05
5.88361e-05
5.42606e-05
4.71307e-05
4.48887e-05
4.38089e-05
4.33298e-05
4.31207e-05
4.30924e-05
4.31681e-05
4.35525e-05
4.41216e-05
4.45493e-05
4.4876e-05
4.52774e-05
4.57377e-05
4.65621e-05
4.76524e-05
4.88294e-05
5.03208e-05
5.20575e-05
5.38601e-05
5.56809e-05
5.71155e-05
5.84596e-05
6.01926e-05
6.23209e-05
6.49647e-05
6.73454e-05
6.94818e-05
7.17837e-05
7.38298e-05
7.56418e-05
7.80951e-05
8.14128e-05
8.41493e-05
8.5982e-05
8.73624e-05
8.77067e-05
8.6237e-05
8.35126e-05
7.89267e-05
7.49272e-05
7.01136e-05
6.91665e-05
6.63318e-05
6.62479e-05
6.441e-05
6.51435e-05
6.44737e-05
6.27544e-05
5.71333e-05
5.51505e-05
5.54905e-05
5.55089e-05
5.79729e-05
5.91851e-05
5.92736e-05
6.16799e-05
6.74697e-05
7.18149e-05
7.27375e-05
7.37263e-05
7.25485e-05
6.9651e-05
6.83823e-05
6.54879e-05
6.91995e-05
7.99518e-05
8.71562e-05
9.04934e-05
9.67825e-05
0.000115835
0.000161018
0.000194242
0.000210715
0.000201564
0.000171512
0.000151315
0.000142078
0.000140268
0.000138798
0.000139341
0.000138029
0.000138896
0.000144162
0.000150062
0.000161852
0.000172857
0.000181548
0.000191239
0.000174266
0.000181203
0.000194153
0.000175478
0.000171494
0.000185504
0.000166117
0.000189082
0.000192795
0.000179867
0.000175702
0.000188961
0.0002054
0.000177929
0.000171776
0.000177697
0.000184075
0.000191728
0.000181761
0.000188307
0.00017812
0.000190902
0.000211389
0.000217536
0.000220458
0.000253016
0.000252711
0.000222879
0.000218866
0.0002291
0.000231384
0.000258082
0.000290311
0.000339143
0.000345317
0.00031235
0.000319367
0.000338886
0.00032519
0.00032215
0.000328041
0.00031512
0.000312191
0.000279728
0.000281148
0.000434072
0.000199653
0.000111197
6.11485e-05
4.43346e-05
4.1264e-05
4.14201e-05
4.18938e-05
4.18586e-05
4.04629e-05
3.91451e-05
3.83212e-05
3.68541e-05
3.61647e-05
3.60284e-05
3.61162e-05
3.65956e-05
3.74945e-05
3.84067e-05
3.89365e-05
3.92582e-05
3.89511e-05
3.71251e-05
3.55607e-05
3.5537e-05
3.58521e-05
3.69354e-05
3.94765e-05
4.19713e-05
4.24014e-05
4.29063e-05
4.41515e-05
4.60929e-05
4.8896e-05
5.42571e-05
6.27398e-05
6.65499e-05
6.55949e-05
6.30902e-05
6.26958e-05
6.29754e-05
6.31033e-05
6.14982e-05
5.74167e-05
5.28085e-05
5.02067e-05
4.63889e-05
4.19753e-05
4.12172e-05
4.0984e-05
4.0954e-05
4.10177e-05
4.14308e-05
4.21908e-05
4.30062e-05
4.36582e-05
4.40892e-05
4.43131e-05
4.44918e-05
4.47685e-05
4.53272e-05
4.62794e-05
4.76756e-05
4.92895e-05
5.09056e-05
5.27829e-05
5.47813e-05
5.645e-05
5.81751e-05
6.00064e-05
6.2333e-05
6.51613e-05
6.8148e-05
7.12505e-05
7.41188e-05
7.62273e-05
7.78135e-05
7.9823e-05
8.2033e-05
8.34864e-05
8.43085e-05
8.39658e-05
8.24865e-05
7.93784e-05
7.65125e-05
7.10288e-05
6.95651e-05
6.47183e-05
6.33767e-05
6.13617e-05
6.18207e-05
5.93181e-05
5.87095e-05
5.77069e-05
5.73209e-05
5.31908e-05
5.05479e-05
5.12589e-05
5.0799e-05
5.33103e-05
5.77563e-05
5.88703e-05
5.65814e-05
5.8402e-05
6.29559e-05
6.54314e-05
6.93851e-05
7.1006e-05
6.84333e-05
6.80033e-05
6.79492e-05
6.76155e-05
7.64888e-05
8.56708e-05
9.03328e-05
9.56699e-05
0.000112136
0.000155568
0.000192601
0.000202742
0.000188871
0.000158886
0.000144657
0.000140587
0.000140382
0.000129822
0.00012783
0.000127538
0.000130564
0.000134819
0.000136923
0.000139043
0.00014811
0.000167484
0.000179182
0.000157663
0.000160615
0.000166289
0.00016304
0.000186847
0.000181961
0.000181213
0.000199325
0.000197854
0.000187266
0.000180127
0.000186082
0.000195099
0.000177578
0.000168645
0.00017714
0.000182521
0.000186002
0.000177102
0.000183838
0.000183522
0.000194608
0.000207947
0.000207139
0.000209607
0.000243739
0.000240979
0.000220751
0.000217612
0.000225799
0.000226644
0.000250022
0.000278354
0.000324892
0.000344274
0.000312298
0.000315174
0.000330227
0.000314754
0.000317058
0.000320481
0.000296604
0.000274157
0.00025149
0.000255052
0.000459864
0.000199378
0.000107967
5.97204e-05
4.45277e-05
4.20325e-05
4.29157e-05
4.33334e-05
4.30174e-05
4.11476e-05
3.97321e-05
3.88787e-05
3.72774e-05
3.63647e-05
3.63305e-05
3.66066e-05
3.71333e-05
3.7838e-05
3.84888e-05
3.86175e-05
3.83036e-05
3.77239e-05
3.67912e-05
3.61745e-05
3.61018e-05
3.59581e-05
3.62266e-05
3.72207e-05
3.83593e-05
3.92716e-05
4.1068e-05
4.35338e-05
4.66644e-05
5.08562e-05
5.76798e-05
6.35142e-05
6.33913e-05
6.04481e-05
5.59261e-05
5.50096e-05
5.49499e-05
5.50007e-05
5.33654e-05
4.99942e-05
4.67472e-05
4.53199e-05
4.26259e-05
4.02376e-05
4.00539e-05
4.00961e-05
4.02085e-05
4.06697e-05
4.13796e-05
4.21106e-05
4.27551e-05
4.33076e-05
4.38215e-05
4.41589e-05
4.43948e-05
4.45618e-05
4.49544e-05
4.57429e-05
4.69244e-05
4.85475e-05
5.03401e-05
5.21998e-05
5.41605e-05
5.63061e-05
5.82807e-05
6.01607e-05
6.24431e-05
6.53672e-05
6.85382e-05
7.16737e-05
7.45461e-05
7.67387e-05
7.83914e-05
8.03935e-05
8.18709e-05
8.24652e-05
8.18018e-05
8.0717e-05
7.86281e-05
7.52905e-05
7.22429e-05
6.71914e-05
6.53874e-05
6.15821e-05
5.93034e-05
5.60512e-05
5.37353e-05
5.10195e-05
5.06872e-05
5.03806e-05
4.95251e-05
4.86884e-05
4.75167e-05
4.74262e-05
4.79973e-05
4.96262e-05
5.34214e-05
5.62653e-05
5.68034e-05
5.50638e-05
5.69114e-05
6.06342e-05
6.37994e-05
6.76215e-05
6.75221e-05