/*--------------------------------*- C++ -*----------------------------------*\
| =========                 |                                                 |
| \\      /  F ield         | OpenFOAM: The Open Source CFD Toolbox           |
|  \\    /   O peration     | Version:  dev                                   |
|   \\  /    A nd           | Web:      http://www.openfoam.org               |
|    \\/     M anipulation  |                                                 |
\*---------------------------------------------------------------------------*/
FoamFile
{
    version     2.0;
    format      ascii;
    class       volScalarField;
    object      p;
    location    "9.143";
}
// * * * * * * * * * * * * * * * * * * * * * * * * * * * * * * * * * * * * * //

dimensions      [1 -1 -2 0 0 0 0];

internalField   nonuniform List<scalar> 
12225
(
88306.9
88288.1
88323.5
88413.1
88543.2
88716.1
88922.5
89165.5
89436.4
89736.3
90059.3
90410.4
90761.2
91138.2
91533.9
91922.6
92409
92675.7
88310.4
88294
88330
88419.5
88549.3
88721.8
88928
89170.7
89441.5
89740.8
90063.9
90414.8
90765.7
91142.8
91536.9
91955
92393.8
92909.9
88324.6
88310.1
88347.1
88436.2
88565.2
88737.2
88942.7
89184.9
89455.1
89753.4
90076.3
90426.9
90778.7
91144.5
91555.2
91977.7
92454.1
92984.2
88352.1
88339.6
88377.8
88466.3
88594.3
88765.6
88970.3
89211.6
89480.6
89778.3
90098.6
90450.9
90798.3
91171.3
91573.5
91993.1
92522.8
92946.6
88397.5
88386.6
88426
88513.3
88640.7
88810.6
89014.8
89254.1
89522.7
89817.3
90137
90486.1
90833.9
91201.6
91597.9
92039.2
92491.8
92899.8
88466.6
88456.3
88496.2
88581.6
88708.6
88876.8
89080.3
89317
89584.6
89876.4
90194.5
90538.5
90886.1
91258.7
91640.3
92055.5
92493.2
92847.6
88564.5
88554.4
88593.3
88677.3
88803.3
88969.7
89171.4
89405.3
89671.2
89960.1
90273.1
90609.5
90957.7
91320.7
91694.2
92078.5
92458.8
92829
88674.4
88666.6
88704.6
88788.2
88912.4
89076.8
89275.8
89508.4
89769
90055.2
90364
90694.1
91035.4
91390.4
91759.9
92120.8
92500.8
92882.8
88791.2
88787.9
88825.4
88908.6
89031.1
89193.2
89389.6
89619.7
89876.3
90159.1
90462.2
90785.9
91123.9
91468.1
91827.8
92182.2
92566.8
92917.8
88952.2
88949.4
88986.5
89069
89189.4
89349.2
89542
89768.2
90020.2
90297.9
90595.6
90911
91241.2
91576.7
91932
92275.8
92637.1
92954.5
89167.9
89165.9
89202.6
89283.7
89401.4
89557.5
89745.9
89966.6
90213.4
90484
90773.2
91079.6
91399.8
91727.1
92064.1
92395.5
92722.6
93041.5
89460.1
89455.4
89491.7
89569.7
89684.3
89835
90018.4
90230.9
90471.2
90730.5
91011.1
91304.9
91613
91923.9
92241.3
92555.6
92861.3
93157
89844.8
89840.8
89875.9
89950.1
90059.9
90204.3
90379.3
90583.4
90811.9
91060.5
91327
91606
91895.7
92189.8
92486.7
92777.1
93060.3
93334.4
90363.1
90351.7
90384.1
90453
90556.5
90691.3
90856.6
91048.2
91263.3
91496.1
91745.1
92006.2
92274.9
92547.4
92817.9
93085.2
93344.2
93593.3
91023.1
91019.2
91049.5
91112
91206.4
91329.9
91481.6
91657.3
91854.3
92067.6
92295.8
92532.9
92776.4
93021.8
93265.5
93504.6
93736
93958.8
91885.9
91883.5
91909.6
91964.2
92047
92156.3
92290.1
92445.6
92619.5
92808.7
93009.3
93217.7
93430.6
93644.6
93856.7
94064.3
94264.8
94457.5
92990.7
92981.2
93000.8
93045.3
93113.9
93204.8
93316.7
93446.6
93592.2
93750
93917.4
94090.9
94267.4
94444.4
94619.5
94790.3
94954.5
95111.9
94241.7
94232.5
94247.1
94281.3
94334.1
94404.5
94491.1
94592.3
94705.4
94828.2
94958.5
95093.6
95230.4
95367
95501.7
95632.7
95757.9
95877.1
95442.9
95430.8
95441.5
95466.7
95505
95555.7
95618.3
95691.6
95773.9
95863.4
95958.6
96056.9
96156.4
96255.4
96352.3
96445.8
96534.4
96618.6
96463.4
96460.1
96469.4
96486.9
96512.6
96546.5
96588.5
96637.8
96693.5
96754.6
96819.3
96886.1
96953.6
97020.5
97085.3
97147.3
97205.3
97258.9
97316.2
97314.5
97322.2
97333.4
97348.6
97368.7
97393.7
97423.3
97457.1
97494.2
97533.6
97574.3
97615.3
97655.4
97693.8
97729.8
97762.2
97790.9
97993.3
98000.3
98007.9
98014.1
98020.9
98029.8
98041.1
98054.8
98071
98088.9
98107.9
98127.8
98147.4
98165.8
98182.8
98197.7
98209.8
98218.7
98526.7
98536
98542.7
98545.1
98545.6
98545.7
98546.4
98547.9
98550.4
98553.3
98556.7
98560.1
98562.7
98564.2
98564.4
98562.8
98558.9
98552.1
98927.1
98941.8
98947.9
98947.3
98943.2
98937.1
98929.8
98922
98913.9
98905.7
98897.3
98888
98877.8
98866.5
98853.9
98839.7
98823.6
98805.1
99226.9
99240.6
99245.4
99242.6
99235.3
99224.8
99211.9
99197.2
99181.4
99165.1
99147.9
99129.4
99109.7
99088.9
99067
99043.6
99018.5
98991.3
99439.7
99452.4
99455.9
99451.6
99442.1
99428.6
99411.8
99392.5
99371.4
99349.2
99325.7
99300.6
99274.3
99246.9
99218.3
99188.3
99156.8
99123.3
99582.8
99595
99597.4
99592.3
99581.7
99566.3
99547
99524.7
99500.1
99473.9
99446.1
99416.7
99385.9
99354.1
99320.9
99286.3
99250.3
99212.6
99675.2
99684.6
99685.8
99680.6
99669.5
99653.1
99632.4
99608.3
99581.6
99552.8
99522.3
99490.2
99456.7
99422
99385.8
99348.3
99309.4
99268.9
99729.7
99734.1
99734.4
99729.4
99718.4
99701.7
99680.4
99655.3
99627.3
99597.2
99565.1
99531.5
99496.4
99459.9
99422
99382.8
99342.2
99300
99752.2
99754.6
99754.5
99749.6
99738.7
99721.9
99700.3
99674.8
99646.3
99615.5
99582.8
99548.5
99512.7
99475.4
99436.8
99396.8
99355.5
99312.6
111648
111644
111634
111618
111595
111566
111529
111485
111433
111373
111304
111226
111139
111043
110938
110822
110697
110561
110415
110258
110089
109910
109719
109517
109305
109081
108846
108600
108342
108072
107791
107497
107193
106879
106555
106218
105870
105513
105146
104769
104384
103992
103592
103187
102777
102363
101946
101527
101105
100683
100260
99838.1
99419.4
99003.3
98588.8
98175.3
97763.4
97354.2
96948.6
96547.7
96152
95761.5
95376.7
94998.5
94628.1
94266.7
93915.4
93575.2
93247
92931.5
92629.4
92341.6
92068.8
91811.9
91571.9
91349.4
91144.7
90957.8
90788.9
90638.7
90507.1
90394
90300.1
90225.8
90170.1
90132.1
90110.8
90105.5
90115.1
90137.6
90171
90214.4
90266.7
90325.9
90390.8
90459.2
90530
90601.8
90673.7
90745.4
90816.8
90887.8
90958.6
91029.8
91101.4
91175.2
91251.7
91334.9
91427.2
91527.9
91638.9
91763.4
91900.7
92050.1
92213.7
92392.7
92585.8
92799.9
93021.7
93241.4
93448.1
93633.8
93781.2
93874.1
93903.1
93858.3
93737.1
93546.1
93286.7
92960.7
92571.7
92117.7
91598.6
91026.9
90402.2
89735.9
89039.1
88329.8
87613.9
86899.2
86214.1
85570.1
84960.9
84392.2
83872.1
83409.6
83006.3
82675.7
82424.4
82253
82156.7
82128.3
82148.4
82214.1
82319.1
82450.6
82580.1
82709.9
82840.4
82975.8
83119.1
83277.9
83459.3
83660
83886.1
84165.9
84497.5
84888.1
85342.5
85861.3
86410.9
86946.8
87449.4
87916.6
88350.8
88742.5
89082.7
89377.6
89639.3
89884.8
111470
111466
111457
111442
111421
111393
111358
111315
111265
111207
111141
111066
110982
110889
110786
110674
110552
110419
110276
110123
109956
109781
109595
109396
109187
108967
108736
108493
108239
107974
107699
107411
107110
106800
106478
106144
105800
105447
105084
104710
104329
103940
103545
103144
102738
102328
101915
101498
101081
100662
100240
99818.8
99403.3
98993.4
98584.7
98175
97765.9
97359.1
96956.3
96558.4
96165.5
95777.7
95395.9
95020.5
94652.8
94294.3
93946.1
93608.6
93282.6
92969.6
92670
92384.2
92113.5
91858.9
91620.9
91399.9
91196.8
91011.7
90844.7
90696.4
90566.6
90455.8
90364.2
90292
90238.6
90203.1
90184.2
90180.9
90192.1
90216.3
90251.3
90295.8
90349.3
90409.2
90474.2
90543
90614
90686
90757.9
90829.8
90901.4
90972.8
91044.2
91116.4
91189.2
91263.5
91339.2
91422.5
91514.7
91615.8
91728.1
91854.7
91993.4
92142.1
92305
92483.7
92674.8
92890.4
93111.6
93329.6
93537.3
93722.6
93865.4
93952.2
93976.3
93930.8
93813.1
93625.8
93366.6
93038.8
92648
92193.3
91674.1
91103.7
90482.4
89819.2
89125.8
88415.7
87701.1
86991.7
86305.9
85667.2
85053.9
84488.4
83967.4
83504.4
83097
82764.3
82514.2
82342.3
82244.7
82210.3
82226.7
82291
82390.4
82524.9
82647.5
82775.3
82905.5
83042.3
83185.3
83344.5
83528.1
83729
83953.1
84231.7
84560.9
84948.4
85401.1
85925.1
86477.2
87017.2
87523.2
87995.4
88439
88833.4
89169.4
89459
89717.8
89958.5
111121
111118
111110
111097
111077
111051
111019
110980
110934
110880
110818
110749
110670
110583
110486
110380
110263
110137
110000
109852
109694
109525
109345
109155
108953
108741
108517
108282
108037
107780
107511
107231
106942
106639
106324
105997
105662
105316
104958
104591
104216
103835
103446
103051
102652
102250
101842
101435
101025
100614
100202
99792.2
99384
98978
98573.1
98169.5
97768.2
97368.8
96972
96579.5
96192.2
95810.2
95434.1
95064.6
94703.1
94351.3
94009.8
93678.8
93359.3
93052.3
92757.7
92476.5
92210.1
91959.6
91726
91509.2
91309.6
91127.4
90963.5
90818.2
90691.8
90584.6
90497
90428.6
90379
90347.6
90332.9
90333.2
90347.6
90374.9
90412.7
90459.6
90514.7
90575.9
90641.3
90710.5
90781.5
90853.6
90925.8
90998.2
91070.2
91142.1
91214.2
91286.8
91360.7
91436.4
91514.4
91599.2
91693.1
91797.4
91911.7
92039.5
92179.8
92331
92494.8
92671.5
92864.9
93077.5
93295.1
93511
93717.3
93895.4
94027.2
94104.7
94122.3
94076.3
93965.4
93786.6
93531
93202.5
92809.6
92355.5
91835.4
91264.7
90649.6
89993
89309.9
88594
87881.3
87188
86499.1
85868.4
85245.2
84682.7
84165
83701
83283.3
82941.4
82693.8
82525.7
82423.5
82378
82384.1
82446.7
82547.4
82667
82787.6
82912.4
83041.2
83178.5
83323.9
83485.2
83673.1
83873.6
84098.3
84378.3
84705.1
85085.6
85536.5
86069
86621.4
87166.9
87682.1
88170.8
88629.4
89023.4
89351.9
89634
89889.5
90121.3
110619
110616
110609
110597
110580
110558
110529
110494
110453
110404
110349
110285
110214
110134
110045
109947
109838
109721
109592
109454
109305
109146
108976
108796
108605
108403
108191
107969
107735
107490
107235
106968
106688
106397
106096
105783
105459
105122
104775
104419
104055
103683
103304
102920
102532
102140
101744
101346
100947
100547
100147
99748.5
99350.9
98954.4
98558.6
98163.6
97770.1
97378.6
96990.8
96607.8
96230.1
95857.8
95491.5
95132.2
94780.8
94438.6
94106.2
93784.1
93473.5
93175
92888.4
92614.9
92355.6
92111.6
91883.7
91672.4
91478.3
91301.3
91142.2
91002
90881
90779.5
90697.7
90635.4
90592
90566.2
90556.7
90561.9
90580.5
90611.2
90652.1
90701.7
90758.8
90821.5
90887.3
90956.1
91026.8
91099.2
91172.8
91246.2
91319.1
91391.6
91463.8
91536.1
91610.8
91690
91772.4
91862.3
91959.4
92069.1
92186.4
92315.4
92454.8
92607.5
92774.6
92951.7
93144.3
93353.8
93567.3
93777.6
93974.6
94139.5
94258.2
94324.8
94336
94293.1
94193.2
94026
93779.5
93453.4
93057.6
92602.6
92083.9
91512.8
90901.7
90254.8
89586.5
88866.6
88154.1
87481.8
86791.4
86164.3
85534.8
84961.2
84451.4
83991.2
83562.1
83200.2
82948.2
82788.3
82687
82627.2
82619.5
82676.4
82783.9
82885.5
82998.6
83118.2
83245.7
83383.2
83533.1
83696.9
83887.8
84089.6
84318.8
84603.1
84929.7
85302.8
85755.8
86292.2
86843.3
87396.5
87929.7
88445.4
88919
89311.5
89630.7
89903.5
90155.2
90375.1
109980
109978
109973
109963
109950
109931
109907
109877
109841
109799
109750
109694
109631
109560
109481
109392
109294
109187
109069
108942
108805
108658
108501
108333
108155
107966
107768
107560
107340
107113
106873
106622
106360
106087
105800
105501
105190
104869
104539
104199
103848
103488
103123
102753
102378
101999
101618
101234
100849
100463
100077
99690.5
99304.6
98919.1
98534.6
98151.6
97770.2
97391
97015.6
96645.4
96280.4
95921
95567.6
95220.5
94881.3
94551.1
94230.6
93920.2
93620.7
93332.7
93056.7
92793.4
92543.5
92308.1
92088.3
91884.8
91698.4
91529.4
91377.8
91244.8
91131.1
91036.8
90962.5
90907.7
90871.4
90853
90850.1
90861
90884.7
90919.7
90963.9
91016.4
91075.6
91140.4
91208.1
91277.5
91348.3
91420.8
91494.6
91568.7
91642.2
91715.9
91789.8
91863.1
91940.9
92024.8
92112
92206.9
92307.8
92426.2
92549.1
92679.1
92815.7
92966.7
93135.8
93315.6
93508.5
93715
93921.9
94121.4
94304.8
94453.3
94558.1
94614.1
94621.3
94583.5
94493
94334.1
94100.4
93784.8
93390.3
92933.5
92417.6
91847.7
91235.8
90598.9
89945.6
89231.8
88515.9
87866
87182.5
86544.6
85917.2
85325.7
84817
84362.5
83931
83548.7
83287
83125
83023.9
82957.2
82943.6
82988.2
83075.6
83171.4
83278.2
83391.8
83518.9
83656.1
83809.5
83976
84167.5
84370.8
84606.5
84899.7
85229.4
85599.8
86056.1
86589.2
87142.6
87708.2
88268.2
88816.5
89301.5
89692.2
90003.7
90266.9
90510
90718.8
109224
109223
109220
109214
109204
109189
109169
109143
109113
109078
109038
108991
108938
108877
108809
108732
108645
108550
108446
108333
108210
108079
107937
107785
107621
107448
107265
107071
106869
106659
106438
106207
105963
105708
105439
105159
104868
104567
104254
103928
103594
103254
102906
102553
102195
101832
101467
101099
100730
100359
99987.9
99616.4
99245
98874
98504.1
98135.7
97769.1
97405.3
97045.3
96690.5
96340.8
95996.6
95658.4
95326.3
95001.9
94686.2
94379.9
94083.3
93796.9
93521.8
93258.5
93007.5
92769.7
92545.8
92336.9
92143.8
91967
91807.5
91665.3
91540.9
91435.2
91348.9
91283.7
91238.3
91211
91201.7
91207.5
91226
91255.9
91296
91344.1
91399.6
91461.2
91528
91598
91670
91743.3
91817.2
91891.9
91967
92039.9
92114.2
92190.6
92266.9
92346.4
92434.8
92525.9
92622.5
92732.3
92854.5
92983.2
93115.8
93253.6
93403.4
93573.4
93755
93947.3
94149.9
94349.7
94537.4
94704.6
94837.5
94930.1
94978.1
94985.5
94950.5
94863.4
94708.4
94485.6
94186.1
93801.8
93344.9
92834.2
92269.2
91660
91030.7
90381.2
89687
88972
88334.3
87666.8
87020.9
86395.4
85784.8
85268.3
84808.8
84382
83987.2
83722.4
83543.2
83432.4
83359.2
83340.9
83375.4
83440.7
83527.9
83624.5
83733.2
83859.9
83995.7
84149.9
84318.3
84507.1
84714
84957.5
85261.8
85598.6
85973.6
86431.6
86959.6
87518.8
88105.1
88697.5
89277.9
89771.2
90163.1
90471
90724.3
90954.1
91148.6
108371
108372
108371
108367
108359
108346
108330
108310
108286
108259
108228
108191
108149
108100
108043
107979
107906
107826
107738
107642
107538
107424
107300
107166
107021
106865
106698
106522
106337
106145
105943
105731
105508
105273
105026
104768
104498
104215
103919
103613
103301
102981
102653
102320
101980
101637
101290
100940
100589
100236
99881.8
99526.9
99172.1
98818.3
98465.6
98114.6
97766
97420.1
97077.7
96740.1
96408.2
96081.7
95760.8
95446
95138.7
94839.6
94549.5
94268.9
93998.1
93738.1
93489.8
93253.1
93029.1
92818.9
92623.3
92442.7
92277.5
92128.5
91996.5
91882.6
91787.8
91712.4
91657.5
91622.9
91606.7
91607.1
91622.2
91649.2
91686.2
91732.5
91785.2
91844.2
91907.4
91975.4
92046.5
92120.7
92196.6
92272
92349.4
92429.3
92499.8
92580.4
92661.9
92736.7
92819.3
92908.7
93003.7
93105.4
93218.7
93343.2
93476.8
93615.1
93757.2
93909.2
94079.2
94260.2
94451.1
94649.5
94841.4
95016.8
95170.7
95288.6
95370.5
95414.1
95424.3
95391.7
95304.8
95151.7
94935.1
94648.5
94279.9
93831.9
93327.3
92770.9
92165.5
91552.2
90912.1
90240.1
89537.2
88898.9
88243
87598.4
86974.2
86352.3
85817.4
85337.4
84911
84508.2
84241
84038.2
83914.7
83832
83810.2
83831.9
83877.8
83955.3
84037.4
84140.7
84269.8
84401.9
84551.8
84723.3
84908.9
85118.9
85372
85687
86034.3
86419.1
86878.1
87404
87978.5
88588.2
89213.2
89821.9
90323.8
90723.9
91035.1
91280.5
91482.4
91663.4
107441
107444
107445
107442
107435
107426
107414
107400
107384
107364
107341
107313
107281
107242
107198
107147
107091
107029
106960
106884
106799
106705
106601
106488
106363
106228
106081
105926
105762
105588
105405
105213
105010
104796
104571
104333
104082
103817
103542
103260
102971
102673
102366
102054
101736
101413
101087
100758
100427
100094
99758.6
99422.3
99086.3
98751.8
98418.9
98087.7
97758.7
97432.6
97109.9
96791.7
96479.1
96172
95870.5
95575.3
95287.1
95006.6
94734.6
94471.8
94218.7
93975.8
93744
93524
93315.9
93121.1
92940.5
92774.1
92622.7
92486.9
92367.5
92266.2
92184.3
92122.5
92080.6
92057.6
92052.1
92062.4
92085.6
92121.4
92165.4
92218.2
92277.3
92341.2
92408.4
92479.1
92551.3
92625.8
92703.9
92780.7
92858.9
92938.1
93017.1
93099
93185.9
93270.5
93355.9
93446.8
93545.2
93650.7
93765.3
93891.3
94028.7
94173.9
94322
94476.4
94644.7
94823.1
95010.6
95204.1
95388.5
95553.7
95695.5
95799.3
95871
95911.8
95922.4
95895.2
95809.6
95658.8
95444.9
95165.4
94812.2
94382
93890.1
93343.7
92741.4
92140.4
91533
90885.4
90197.3
89557.7
88918.3
88272
87648.9
87028.5
86472.5
85965.2
85518.2
85118.7
84831.3
84605.3
84472.5
84378.1
84349
84353.7
84385.2
84453.4
84518
84613.5
84748.6
84873.4
85015.1
85189.2
85376.4
85586
85851.4
86177.7
86539.3
86935
87397.1
87930.1
88523.4
89152.5
89808.6
90442.3
90955.2
91369.3
91686.2
91923
92101.6
92268.1
106456
106461
106462
106461
106459
106454
106448
106440
106429
106415
106398
106378
106354
106327
106295
106260
106220
106176
106125
106068
106003
105929
105846
105753
105650
105538
105417
105286
105145
104993
104832
104661
104480
104287
104080
103860
103628
103386
103134
102875
102607
102331
102048
101759
101465
101165
100861
100555
100245
99932
99617.4
99302.4
98987.7
98674.3
98362.2
98051.7
97743.9
97439.4
97138.4
96841.4
96549.5
96263.5
95983.3
95709.1
95441.5
95181.4
94929.3
94686.2
94452.6
94228.7
94015.3
93813.3
93623.3
93445.9
93281.7
93131.1
92995.1
92874.7
92771
92685.1
92618.4
92571.4
92543.3
92533.3
92538.3
92558.9
92590.5
92634.4
92686.9
92745.9
92811.1
92879.2
92950.8
93025.2
93101.6
93177.7
93257.2
93335.9
93417.5
93498.9
93583.6
93666.7
93755.5
93848.4
93942.2
94039.1
94143.4
94253.3
94367.9
94494.5
94634
94783.6
94937.3
95096.7
95263.3
95438
95621.6
95809.1
95987.6
96141.9
96269.9
96361.8
96426.6
96466.2
96475.8
96449.4
96367.9
96219.3
96008
95732.6
95392.2
94982.8
94514.1
93984.9
93397
92798.8
92218.8
91599.8
90935.4
90298.1
89665.3
89030.9
88416.1
87790.6
87212.3
86684.2
86222.4
85808.9
85489.3
85245
85102.3
85000.5
84955.7
84944.6
84967.6
85023.4
85072.4
85160.4
85291.5
85407.3
85542.5
85717.2
85909.7
86117.5
86398.2
86738.7
87118.3
87522.2
87990.2
88538.7
89146.9
89793.4
90478
91133.9
91660.9
92090.5
92415.4
92647.1
92805.8
92947
105439
105444
105448
105450
105451
105451
105449
105445
105440
105432
105422
105411
105397
105382
105364
105344
105320
105291
105258
105218
105172
105118
105056
104985
104905
104815
104717
104609
104492
104365
104228
104080
103919
103744
103556
103358
103148
102929
102701
102465
102220
101968
101709
101444
101173
100896
100615
100331
100043
99752.7
99460.2
99167.2
98874.7
98583.1
98293.1
98005.6
97720.9
97439
97160.5
96886.2
96616.6
96352.7
96094.6
95842.4
95596.8
95358.4
95127.8
94905.7
94692.7
94489.4
94296.2
94114.1
93943.6
93784.9
93639
93506.3
93387.6
93284.1
93197.9
93129.1
93078.6
93047.6
93033.5
93036.7
93053.3
93084
93126.8
93178.5
93240.2
93306.4
93377.7
93450.4
93525.4
93602.4
93681.2
93759.1
93845.1
93916.6
94007.1
94094.8
94187
94278.1
94368.9
94464.4
94565
94671.1
94782.9
94898.5
95014.6
95142.2
95288
95440.1
95596.3
95760.8
95927.3
96098.8
96280
96461.2
96631.6
96776.3
96893.9
96970.2
97032.5
97075.4
97083.8
97054
96977.2
96831.8
96624.3
96350.8
96016.8
95625.9
95184.8
94684.1
94118.9
93537.5
92961.9
92366.7
91749.3
91128
90497.4
89853.2
89246.2
88629.5
88019.6
87475.2
87004.3
86578.2
86222.3
85963.3
85807.1
85697.8
85632.8
85610.7
85631.1
85669.8
85710.9
85790.6
85896.9
86002.9
86132.5
86317
86514.9
86721.2
87014.9
87372.4
87770.9
88182.4
88658.9
89226.4
89844.5
90506.4
91218.6
91893.6
92436.6
92881.7
93215.9
93443.9
93575.4
93683.2
104410
104415
104421
104426
104431
104436
104440
104442
104443
104443
104441
104437
104432
104426
104419
104412
104402
104389
104372
104351
104324
104290
104250
104200
104142
104074
103998
103913
103819
103716
103601
103473
103332
103178
103013
102837
102652
102458
102256
102043
101821
101592
101356
101114
100866
100612
100353
100091
99824.9
99556.8
99287.3
99017.3
98747.7
98479.4
98213.1
97948.9
97687.3
97428.6
97173.3
96922.3
96676.1
96435.1
96199.9
95970.8
95747.9
95532.1
95324.1
95124.2
94933.2
94751.8
94580.3
94419.4
94269.7
94131.7
94005.7
93892.4
93793.3
93708.7
93641
93590.6
93556.2
93541.6
93543.1
93558.6
93588.8
93629.4
93683.1
93743.8
93812.5
93884.8
93960.9
94038.6
94118.2
94199.8
94285.1
94356.1
94452.4
94534.7
94626.4
94718.1
94811.5
94911.3
95011.7
95113.4
95220.2
95334.4
95454.6
95578.2
95703.3
95832.3
95981.5
96139.1
96294.9
96460.2
96628.1
96798.7
96977.5
97154.2
97314
97450.6
97557.1
97634.4
97691.8
97733.1
97739.9
97705.4
97625.8
97487.5
97285.7
97018.9
96690.6
96316.4
95896.7
95420.7
94892.6
94339.1
93771.6
93198.1
92620.4
92036.4
91420.4
90768.7
90138.8
89523.8
88900.9
88332.2
87853.3
87421.1
87044.2
86768.4
86595.5
86475.8
86393.7
86361
86376.1
86395.6
86429.7
86492.2
86570.6
86660.3
86784
86994
87198
87403
87711.5
88083.1
88495.1
88911.9
89403.1
89987.2
90616.7
91292.8
92029.9
92719.3
93277.9
93736.9
94074.7
94289.9
94395.9
94482.1
103387
103393
103401
103409
103419
103430
103441
103452
103461
103469
103476
103480
103484
103486
103488
103490
103491
103491
103488
103482
103472
103456
103434
103405
103369
103326
103273
103212
103140
103058
102963
102855
102735
102604
102461
102309
102149
101980
101800
101611
101412
101205
100991
100771
100545
100313
100076
99834.8
99591.2
99346
99100.1
98853.9
98608.1
98363.6
98120.9
97880.1
97641.6
97406.2
97174.5
96946.7
96723.7
96505.9
96294
96088.7
95889.7
95697.2
95512.5
95336
95168.1
95009.4
94860.3
94721.6
94593.8
94477.6
94373.4
94281.6
94203.8
94140.3
94092.2
94061.4
94045.5
94045.3
94063.1
94091.4
94134
94186
94246.5
94315.4
94388.3
94465.8
94545.3
94626.5
94710.5
94795.5
94891.3
94972.3
95069.4
95163.8
95261.3
95362.4
95459.3
95560.2
95668.7
95779.2
95894.3
96015.7
96143.5
96277.2
96415
96551.1
96700.7
96864.6
97023.5
97187.9
97357.4
97529
97705.4
97878.1
98028.5
98158.2
98260.7
98336.3
98392.4
98432.7
98433.4
98390.3
98302.7
98169.6
97978.9
97721.2
97409.6
97052.9
96647.8
96200.4
95706.2
95177.6
94639.4
94097.3
93551.7
93004.3
92399.4
91772.8
91126.9
90489.8
89877.2
89296.1
88791.6
88349.1
87955.1
87664
87473.7
87336.8
87237
87193.3
87195.3
87195.9
87219.2
87259
87320.7
87385.5
87509.7
87749
87955.1
88174.5
88502
88876.4
89287.5
89707.3
90217.4
90817
91464.8
92155.3
92909.7
93605.6
94179.4
94642.3
94969
95163.7
95262.4
95333
102384
102393
102403
102415
102428
102444
102461
102479
102496
102514
102532
102549
102565
102579
102593
102605
102616
102626
102634
102640
102642
102641
102635
102624
102607
102584
102552
102511
102460
102397
102323
102236
102138
102029
101909
101780
101644
101497
101339
101171
100994
100808
100615
100416
100211
100001
99785.2
99566
99344.7
99122.4
98900
98677.5
98455.4
98234.6
98015.3
97797.6
97581.9
97369.2
97160
96955.4
96755.8
96561.1
96372.6
96191
96016
95847.8
95687.2
95534.6
95390.6
95255.7
95129.8
95014
94908.8
94814.8
94733
94663.6
94607.9
94566.8
94538.5
94525.4
94529.9
94544.6
94574
94615.7
94667.6
94730.3
94797.4
94872.9
94952.7
95034.8
95122.5
95210.3
95300.8
95394
95493.7
95589.3
95689.5
95792.1
95895.6
96004.6
96113.2
96222.5
96337.6
96454.2
96576.7
96706.4
96840.2
96982.1
97128.1
97277
97431.1
97597.5
97767.4
97933.1
98105.4
98278.9
98453.7
98621.2
98767.1
98890.1
98990.7
99065.3
99120.1
99158.7
99148.5
99098.2
99010.8
98875.7
98696.6
98452.1
98163.1
97825.9
97436.3
97021.6
96556.7
96055.6
95555.2
95048.2
94538.6
93981.9
93401.1
92788.7
92172.1
91531.1
90924.4
90357.6
89845.7
89394
89010.8
88693.3
88463.2
88287.7
88160.2
88104.1
88085.7
88076.6
88083.9
88108.4
88154.5
88195.7
88328.2
88582.8
88791.3
89048.7
89381.7
89743.7
90142.8
90574.3
91101.6
91719.9
92389
93093.8
93852.5
94548.2
95135.5
95590.5
95902
96082.8
96192
96248
101412
101422
101435
101450
101467
101488
101511
101536
101563
101591
101620
101649
101678
101706
101732
101758
101782
101804
101824
101841
101856
101867
101873
101876
101873
101864
101849
101824
101791
101747
101692
101626
101549
101461
101365
101259
101142
101016
100877
100729
100571
100406
100233
100054
99869.7
99680
99485.6
99287.8
99088.5
98888.9
98689.3
98489.7
98290.2
98091.7
97894.7
97699.2
97505.8
97315.5
97128.7
96946.2
96769.2
96597.6
96432.1
96273.7
96122.3
95977.9
95841
95712.3
95592
95480.9
95378.5
95286.1
95203.9
95132.3
95072.8
95024.8
94990
94970
94962.4
94965.9
94986
95018
95059.5
95113.5
95175.6
95247.9
95325.8
95408.8
95498.7
95588.8
95682.9
95780
95880.1
95982.8
96088.5
96195
96302.8
96413
96524.5
96637.5
96753.5
96871.5
96995.3
97121.9
97252.6
97392.1
97536.2
97685.4
97839.7
98004.8
98168.8
98334.3
98510.1
98681.7
98857.3
99034.5
99209.9
99371.4
99518.3
99638
99733.6
99808.4
99860.7
99891.3
99874.8
99818.7
99735.7
99608.1
99432
99211.7
98938.1
98619.9
98254.9
97861.5
97436.3
96971
96509.9
96033.7
95545.3
94981.1
94425
93834
93237.7
92623.4
92062.9
91523.1
91046.9
90597.5
90240.6
89893.3
89599.3
89360.3
89191.5
89103.9
89064.3
89051.5
89019.5
89050.3
89070.5
89091.1
89240.9
89486.3
89727.3
90012.6
90326.3
90658
91046.4
91503.7
92056.4
92698.9
93388.4
94104.5
94857.9
95549.9
96140.8
96585.1
96883.2
97065.6
97195.3
97237.5
100480
100489
100504
100523
100546
100572
100602
100635
100671
100708
100747
100788
100829
100870
100911
100951
100989
101025
101059
101089
101116
101139
101157
101171
101180
101183
101180
101169
101150
101122
101084
101036
100978
100910
100833
100746
100648
100539
100419
100289
100151
100004
99851.1
99691.5
99526.1
99355.9
99181.8
99004.8
98826.5
98648.2
98469.9
98291.1
98112.1
97933.7
97756.8
97581.9
97409.8
97241.3
97076.7
96916.6
96762
96613.2
96470.4
96334.4
96205.5
96083.9
95970.1
95864.4
95766.7
95678.4
95598.9
95528.5
95468.1
95417.7
95380.1
95353.2
95337.7
95336.4
95349.9
95374.4
95409.2
95456.9
95513.8
95581.8
95657.4
95738.6
95829
95921.9
96021.8
96121.8
96225.2
96330.6
96438.5
96548.7
96661.4
96774.7
96891
97008.3
97128.8
97252.1
97377.4
97502.3
97631.1
97768.2
97911.6
98061.5
98219
98377.1
98539.5
98715.4
98893.5
99064.1
99242.2
99424.2
99602.1
99781.7
99960
100118
100268
100386
100477
100546
100595
100614
100595
100541
100459
100344
100171
99970.4
99717.2
99421
99087.2
98729.4
98334.9
97907.8
97488.2
97052.8
96565.8
96042.9
95493.1
94952.4
94373.3
93815.7
93326.7
92823.2
92392.4
91957.6
91613.1
91244.3
90893.3
90584.7
90357.3
90205.8
90143.9
90106
90019
90059.5
90054.8
90050
90237.3
90467.7
90758.5
91038.8
91323
91619.1
92004.2
92491.5
93084.1
93748.3
94458.7
95184.9
95924.5
96607.9
97196.6
97615.6
97912.2
98110.3
98246
98269
99589.9
99600.6
99618.2
99641.2
99669.3
99701.8
99738.4
99779.1
99822.8
99868.9
99917.6
99968.5
100021
100074
100128
100181
100233
100284
100333
100378
100420
100457
100488
100515
100535
100549
100557
100557
100550
100534
100510
100476
100433
100381
100319
100247
100165
100073
99970.3
99858.1
99737.5
99609.3
99474
99332.2
99184.7
99032.7
98877.4
98719.7
98560.8
98401.3
98241.3
98080.7
97920.1
97760.4
97602.6
97447.5
97295.9
97148
97004.7
96866.3
96733.3
96606.1
96485
96370.7
96263.6
96164
96072
95988.5
95913
95846.3
95788.2
95739.1
95699.9
95669.1
95650.3
95644.2
95649.9
95667.8
95698.8
95744.2
95797.9
95861.7
95933.1
96013.4
96105.6
96191
96294.4
96397.4
96505.9
96614.3
96727.5
96842
96959.6
97079.4
97199.9
97321.1
97445.3
97572.2
97698.1
97828.3
97963.7
98102.5
98242.1
98387.8
98542.6
98701
98867.2
99038.4
99210.5
99390.2
99578.7
99761.1
99944.2
100140
100326
100505
100686
100849
100997
101115
101207
101265
101307
101321
101299
101250
101178
101065
100911
100718
100503
100220
99927.2
99614
99243.5
98863
98482.1
98080.7
97589.7
97119.5
96607.9
96108.3
95588.2
95125.5
94684.7
94229
93800.6
93392.6
93030.7
92665.3
92294.1
91936.7
91646
91419.1
91303
91210
91084.6
91107.9
91098.6
91084.8
91314.3
91541.8
91843.2
92117.4
92379.1
92645.8
93034.6
93550.8
94180
94864.8
95598.6
96328.1
97048.2
97717.7
98300.6
98690.7
98991.7
99200
99317.8
99318.4
98746.2
98757.2
98776.8
98802.7
98835.6
98874.7
98918.2
98967.3
99021
99077.7
99136.5
99197.5
99260.2
99324.5
99389.5
99454.9
99520
99584.2
99646.8
99706.9
99763.6
99815.8
99862.4
99902.8
99936.3
99962.5
99981.2
99992.2
99995.3
99990.2
99976.5
99954.1
99922.7
99882.4
99832.9
99774.3
99704.4
99625.4
99537.3
99440.7
99336.1
99224.1
99105
98979.6
98848.5
98713.2
98574.8
98434.3
98292.2
98149.2
98005.4
97861.4
97717.9
97575.9
97436.7
97300.9
97168.8
97040.5
96916.7
96797.9
96684.9
96577.5
96476.1
96381.8
96295
96215.7
96144.2
96081.5
96026.2
95980.4
95942.8
95912.5
95893.7
95883.3
95881.8
95892.9
95917.3
95956.2
96005.9
96067.7
96139.6
96215.8
96303.5
96395.1
96496
96597.3
96708.1
96819.6
96937.2
97055
97176.1
97300.7
97427.3
97555.6
97684.2
97816.7
97949
98087.4
98225
98362.8
98504.2
98652.9
98807.2
98962.4
99126
99294.2
99468.7
99651.2
99835.2
100023
100220
100418
100606
100809
101009
101191
101373
101546
101691
101812
101909
101960
101992
102006
101988
101942
101882
101781
101647
101468
101288
101013
100761
100479
100144
99817.1
99465.1
99078.6
98626.6
98180.8
97730.6
97300.4
96854.3
96468.5
96065.4
95662.9
95220.5
94826.2
94444.1
94097.2
93735.6
93356.2
93014.4
92728.5
92518.8
92364.8
92215.6
92206.8
92207.4
92233.4
92465.2
92699.2
92956.8
93248.4
93499.6
93744.1
94134.8
94677.8
95333.3
96051
96804.2
97527.3
98233.2
98882.6
99439.2
99839
100116
100318
100415
100382
97948.3
97958.1
97976.7
98003.2
98037.3
98084.1
98139.4
98201.7
98268.7
98338.7
98409.9
98482.4
98556.1
98630.8
98706
98782.1
98858.2
98933.8
99008.6
99081.4
99151.2
99216.8
99277.1
99331.1
99377.9
99417
99447.4
99469.6
99483.1
99488
99484.1
99471.3
99449.5
99418.8
99379.1
99330
99271.2
99203.4
99127.3
99043.2
98951.7
98853.1
98747.9
98636.8
98520.3
98399.6
98276
98150.1
98022.6
97894
97764.8
97635.9
97508.3
97382.6
97260.1
97141.6
97026.9
96916.3
96810.3
96709.5
96614.2
96524.8
96441.5
96365.3
96296.2
96235.3
96182.2
96138.6
96102.1
96074
96056.2
96044.3
96041.6
96049.6
96067.2
96096.8
96137.3
96190.5
96261.6
96335.6
96422.4
96513.4
96613.3
96717.7
96829.6
96943.8
97063.6
97185.4
97310.6
97439.1
97568.6
97703.1
97837.1
97973.8
98111.8
98252.8
98392.5
98536.4
98685.2
98833.6
98986.3
99143.3
99308.5
99477.6
99650.4
99829.5
100017
100208
100402
100599
100807
101018
101219
101422
101632
101828
102009
102189
102338
102464
102564
102622
102650
102660
102651
102611
102555
102469
102357
102202
102031
101792
101566
101325
101026
100750
100426
100035
99660.5
99245.6
98865.1
98512.6
98157
97797.9
97438
97083
96689.4
96294.3
95903.6
95561.2
95205.2
94814.9
94432
94117
93790.7
93592.9
93414.8
93382.8
93394
93486.3
93680.8
93906.9
94119.8
94432.5
94691.7
94940.7
95327.1
95879.8
96555.8
97301.6
98057
98783.8
99477.1
100096
100609
101025
101275
101459
101527
101450
97314.2
97319.6
97332.6
97362.4
97401.7
97460.3
97529.7
97605.5
97684.6
97766.3
97848.8
97931.5
98014.2
98097.4
98181.1
98265.3
98349.9
98434
98517.5
98599.2
98677.6
98751.8
98820.5
98883
98938.7
98987.2
99024.4
99055.5
99077.7
99090.8
99094.8
99089.7
99075.4
99052
99019.8
98977.5