/*--------------------------------*- C++ -*----------------------------------*\
| =========                 |                                                 |
| \\      /  F ield         | OpenFOAM: The Open Source CFD Toolbox           |
|  \\    /   O peration     | Version:  dev                                   |
|   \\  /    A nd           | Web:      http://www.openfoam.org               |
|    \\/     M anipulation  |                                                 |
\*---------------------------------------------------------------------------*/
FoamFile
{
    version     2.0;
    format      ascii;
    class       volScalarField;
    object      p_0;
    location    "9.143";
}
// * * * * * * * * * * * * * * * * * * * * * * * * * * * * * * * * * * * * * //

dimensions      [1 -1 -2 0 0 0 0];

internalField   nonuniform List<scalar> 
12225
(
92302
92221.8
92172.9
92153.7
92153.1
92177.4
92222.5
92296.1
92393.6
92519.5
92671.7
92853.4
93038.7
93258.9
93492.1
93714.4
94009.3
94012.3
92302.2
92224.7
92176.6
92157.4
92156.6
92180.5
92225.5
92298.8
92396.3
92521.7
92673.9
92855.8
93040.7
93259.8
93492.3
93752.1
94012.7
94356.4
92309
92234.2
92187.5
92168
92166.6
92190.2
92234.8
92307.8
92404.9
92529.3
92681.7
92863.8
93049.4
93250.3
93507.3
93770.5
94097.2
94520.8
92326.5
92252.5
92207.5
92187.7
92185.7
92209
92253
92325.6
92421.9
92546.2
92696.3
92880.5
93063.8
93285.1
93521.1
93805
94190.8
94472.8
92354.4
92282.4
92239.3
92218.6
92216.5
92239
92283.1
92354.4
92450.9
92573
92723.4
92905.7
93091.4
93310.8
93561.1
93857.4
94175.5
94462.6
92393.7
92327.5
92285.7
92263.8
92261.9
92283.5
92327.7
92397.5
92493.9
92614.2
92764.3
92942.3
93130.2
93352.7
93596.3
93876.5
94177.8
94417.4
92455.9
92391.7
92349.7
92327.2
92325
92346
92389.7
92458.2
92554.1
92672.3
92818.7
92991.9
93183.4
93399.7
93637.9
93896.8
94168.8
94398.7
92526.8
92465.4
92423
92400.9
92397.9
92418.1
92460.7
92529.2
92621.2
92738.7
92882.2
93051.4
93238.5
93451.2
93687.3
93927.9
94220.7
94461.2
92604.7
92545
92502.4
92480.7
92477
92496.4
92538
92605.5
92695.2
92811
92950.4
93115.9
93302.2
93505.4
93734.8
93972
94253.9
94501.8
92707.7
92649.9
92607.6
92586.4
92582
92601
92640.8
92706.4
92793.9
92907.2
93043.3
93202.8
93384
93581.2
93808.2
94036
94296.7
94521.9
92846.5
92790.1
92748.4
92727.2
92722.2
92739.8
92777.7
92840.5
92925.7
93034.8
93165.4
93319
93493.5
93684.7
93895.3
94111.1
94336.8
94558.9
93026.6
92975.5
92935.5
92913.4
92907.8
92922.9
92959.1
93017.3
93099.6
93201.1
93327.1
93471.4
93637.3
93814.7
94008.7
94209.3
94411.8
94613.2
93272.9
93220.8
93181.6
93158.3
93151.4
93164
93196.1
93250.3
93325.4
93421.1
93537.3
93671.1
93822.6
93987
94163.1
94341.9
94523.7
94705.2
93596.4
93542.1
93502.5
93477.1
93468.2
93476.4
93504.2
93551.7
93619.3
93704.8
93809
93930.3
94065.5
94212.2
94365.4
94524.4
94683.8
94842.1
94015.2
93955.8
93914.2
93886.2
93873.7
93876.9
93898.3
93936.9
93993.8
94066.8
94157.2
94260.6
94376.5
94501.2
94632.1
94766.5
94901.2
95035.6
94529.5
94472.1
94429.8
94399.7
94382.9
94379.9
94392.1
94419.6
94462.5
94520.3
94591.4
94674.3
94766.9
94867
94972.1
95080
95188
95295.7
95148.8
95096.2
95056.5
95025.2
95003.6
94992.6
94993.7
95007
95032.8
95070.2
95119
95177.2
95243.2
95315.3
95391.8
95470.2
95548.7
95626.9
95801.2
95767
95734.4
95703.5
95677.2
95657.3
95645.7
95643.1
95649.7
95665.4
95690.2
95722.5
95760.9
95804.2
95851.1
95900.2
95949.2
95998.3
96397.6
96376
96349.2
96318.8
96288.1
96259.8
96236.3
96218.8
96207.9
96204
96207
96215.8
96229.7
96247.9
96269.1
96292.3
96315.9
96340.3
96893.2
96876.9
96853.8
96822.9
96788.2
96752.9
96719.5
96689.5
96664.1
96643.9
96628.8
96618.6
96612.7
96610.4
96610.9
96613.6
96617.1
96621.2
97280.9
97276.3
97255.9
97224.1
97186
97145.1
97103.7
97063.8
97026.8
96993.4
96963.9
96938.6
96916.9
96898.3
96882.6
96868.9
96856.3
96844.7
97593.6
97590.6
97569.9
97536.5
97495.3
97449.6
97401.9
97354.2
97308.1
97264.4
97223.8
97186.9
97152.9
97121.6
97093.1
97066.7
97042
97018.4
97833.7
97829.9
97808.4
97773.6
97730
97680.6
97628.1
97574.5
97521.5
97470
97421.2
97375.1
97331.6
97290.8
97252.7
97216.8
97182.6
97149.7
98015.5
98006.7
97984.8
97949.1
97903.7
97851.8
97795.7
97737.7
97679.6
97622.7
97567.6
97514.6
97464.2
97416.4
97371.1
97328.1
97287
97247.2
98136.6
98132.4
98111.1
98075.2
98028.9
97975.3
97916.7
97855.6
97793.8
97732.9
97673.3
97615.5
97560.1
97507.2
97456.7
97408.6
97362.5
97317.9
98221.9
98219.1
98198.4
98162.6
98115.8
98061.2
98001.1
97937.9
97873.6
97809.8
97747.2
97686
97627.1
97570.7
97516.7
97465
97415.3
97367.4
98275.9
98275.6
98255.5
98220
98173.4
98118.2
98057.2
97992.8
97927
97861.2
97796.5
97733.2
97672.1
97613.4
97557
97502.7
97450.6
97400.3
98309
98309.7
98289.9
98255.1
98208.8
98153.5
98092.2
98027.2
97960.4
97893.5
97827.4
97762.9
97700.4
97640.2
97582.1
97526.2
97472.5
97420.7
98325.9
98327.3
98307.8
98273.8
98228
98173
98111.7
98046.3
97979
97911.4
97844.6
97779.3
97716
97654.8
97595.8
97539
97484.4
97431.7
98333.5
98334.2
98314.9
98281.3
98235.7
98180.9
98119.6
98054
97986.5
97918.6
97851.4
97785.8
97722.1
97660.5
97601.1
97543.9
97488.9
97435.7
108742
108739
108732
108720
108704
108683
108657
108624
108586
108541
108489
108430
108364
108291
108210
108121
108024
107919
107805
107683
107551
107411
107261
107103
106936
106759
106574
106379
106175
105962
105739
105507
105267
105020
104764
104500
104228
103950
103665
103375
103079
102779
102476
102169
101860
101550
101240
100931
100623
100317
100013
99713
99417.7
99127.3
98841.5
98559.4
98280.9
98006.6
97737.3
97474.2
97217.7
96967.6
96724
96487.4
96258.6
96038.2
95826.8
95625.1
95433.5
95252.2
95081.6
94921.9
94773.5
94636.7
94511.9
94399.2
94298.7
94210.6
94134.6
94071.4
94020.8
93982.4
93957.3
93945.8
93947.2
93960.6
93985.2
94020.4
94065.2
94117.9
94176.8
94241.1
94310.3
94383
94458.6
94535.5
94613.4
94691.4
94768.9
94845.7
94921.6
94996.5
95070.8
95145.3
95220.4
95299
95379.4
95467
95567.5
95676.7
95796.2
95931.5
96082.9
96251.7
96440.1
96649.7
96881.3
97142.3
97422.8
97705.6
97977.2
98225.7
98428.2
98564.8
98622.5
98589.7
98463.5
98252.6
97959
97585.2
97134.4
96603
95994.2
95324.3
94596.7
93828.2
93031.5
92229.6
91429.3
90633.9
89883.3
89179.2
88522.3
87909.1
87353.7
86868
86453
86122.8
85885.3
85748.7
85707.3
85753.9
85869.5
86045.1
86268.9
86517.8
86776.9
87034.3
87288.2
87539.3
87780.7
88017.4
88251.2
88474.7
88687.6
88922.2
89182.5
89483.3
89844.4
90292.2
90805.3
91346.6
91888.4
92416.8
92921.9
93377.5
93753.2
94042.1
94242.6
94358.6
108624
108622
108616
108605
108590
108570
108545
108514
108476
108433
108383
108326
108262
108191
108112
108025
107930
107827
107715
107595
107466
107328
107181
107025
106860
106686
106503
106311
106110
105899
105681
105453
105215
104970
104716
104454
104183
103908
103625
103336
103042
102744
102443
102139
101832
101525
101217
100910
100603
100299
99995.9
99695.6
99401.4
99114.3
98831.7
98551.8
98274.7
98001.1
97732.9
97471.3
97216.2
96967.3
96725.3
96490.3
96263
96044.5
95835.2
95635.1
95444.8
95265.1
95096.3
94938.2
94791.4
94656.7
94533.6
94422.2
94322.9
94236
94161.7
94100.2
94051.6
94015.9
93993.6
93984.8
93989.2
94005.9
94033.9
94072
94119.3
94174.7
94236.1
94302.5
94373.8
94448.2
94524.7
94603
94682
94761
94839.2
94916.8
94993.7
95069.7
95145.4
95221.5
95298.8
95380.3
95454.6
95546.9
95647.4
95757.3
95879.5
96018.1
96172.3
96341.5
96529.3
96738.9
96973.4
97235
97513.2
97793.6
98066
98312.7
98508.3
98636.4
98687.2
98652.5
98530.4
98324.6
98031.8
97656.2
97203.1
96671.9
96063.8
95396
94673.7
93910.6
93120.7
92319.5
91522.7
90735.7
89984.5
89289.9
88628
88021.8
87467.9
86983.8
86565.1
86233.7
85998.5
85861.2
85816.4
85856.2
85966.1
86137.6
86356.1
86601.4
86855.6
87110.1
87363.3
87615.5
87856.8
88095.3
88333.6
88558.3
88770.8
89007.8
89266.7
89565
89924.9
90381.4
90897.8
91442.7
91985
92517
93030.5
93484.6
93850.5
94130.6
94325.4
94432.8
108395
108393
108388
108379
108365
108346
108323
108294
108259
108219
108172
108118
108057
107990
107915
107832
107741
107642
107535
107419
107295
107161
107019
106868
106708
106539
106361
106175
105979
105774
105560
105337
105106
104866
104617
104358
104093
103822
103543
103257
102966
102673
102375
102073
101770
101467
101164
100860
100559
100259
99961.6
99667.4
99377.4
99091.8
98809.8
98531.9
98258.8
97989.9
97725.1
97466.3
97214.1
96968.3
96729.3
96497.6
96273.8
96059
95853.7
95657.6
95471.5
95296.2
95131.3
94976.9
94833.5
94701.8
94582.2
94474.3
94378.2
94294.2
94223
94165
94120.3
94089.2
94071.8
94068.1
94077.6
94099.9
94133.7
94177.1
94229.3
94289.4
94355.3
94425.8
94500.6
94578
94656.8
94737.3
94817.9
94898.5
94978.6
95058.3
95137
95215
95292.8
95370.3
95449.9
95532.4
95613.9
95707
95811
95925.4
96051.6
96193
96350.2
96523.7
96715.5
96927
97163.1
97424.3
97697.8
97974.3
98242.1
98477.7
98658.6
98773.5
98814.7
98778.6
98664.7
98468.6
98180.5
97804.7
97349.5
96820
96213.8
95548
94835.3
94083.6
93310.8
92507
91716.4
90953.1
90199.7
89519.1
88849.6
88249.6
87704.4
87225.1
86797.3
86455.3
86224.3
86092.4
86043.4
86068.8
86164
86325.2
86537.8
86772.9
87021.2
87270.4
87521.9
87774.7
88017.9
88260.4
88506.1
88733.4
88951.9
89197.5
89459.3
89753.3
90114.7
90586.2
91102.3
91649.8
92197.2
92743.4
93266.1
93707.9
94057.1
94323.6
94508.6
94599.6
108062
108060
108056
108048
108036
108020
107998
107972
107940
107903
107860
107811
107755
107692
107622
107545
107460
107367
107266
107156
107038
106911
106776
106632
106479
106318
106148
105969
105782
105585
105380
105166
104941
104708
104468
104219
103961
103695
103422
103142
102858
102569
102276
101981
101684
101386
101088
100791
100495
100201
99910.1
99622.3
99338
99057.6
98780.7
98507.3
98237.6
97972.1
97711.8
97457.9
97210.8
96970.3
96736.8
96511.1
96293.5
96084.7
95884.9
95694.2
95513.8
95344.2
95184.6
95035.5
94897.5
94771
94656.1
94553.1
94462.2
94383.3
94317.1
94264.6
94226
94201.4
94191.2
94195.1
94212.6
94242.6
94283.7
94334.4
94393.3
94459.3
94530.9
94606.7
94685.8
94767.4
94849.4
94932
95014.7
95097.8
95181.2
95263.8
95345.4
95426.4
95506.8
95585.5
95668.9
95757.1
95844.2
95942.6
96053.7
96175.2
96307.2
96452.5
96610.9
96787.6
96986.1
97202.1
97440
97699.9
97968.2
98236.1
98488.8
98707
98869.3
98968.4
99000.1
98966.3
98863.6
98679.2
98401.8
98030.7
97574.1
97044.7
96443.6
95782.6
95077.9
94342
93593.9
92793.7
92008.2
91274.8
90527.6
89851.4
89185
88577.2
88045
87578.4
87145.7
86782.4
86545.2
86423
86377
86387.6
86465.3
86610.7
86814.7
87035.7
87273.4
87514
87763.6
88015.6
88262
88509.1
88760.1
88992.6
89224.2
89485
89757.4
90049.9
90421.6
90901.1
91417.3
91968.9
92530.1
93098
93621.4
94045.7
94373.1
94619.9
94790.8
94861.9
107635
107634
107631
107625
107615
107601
107582
107559
107531
107498
107459
107415
107365
107309
107245
107175
107097
107011
106917
106815
106705
106587
106461
106325
106181
106029
105868
105698
105521
105336
105141
104937
104725
104504
104273
104033
103784
103527
103264
102995
102719
102437
102150
101863
101574
101284
100993
100703
100416
100129
99845.1
99564.1
99286
99010.8
98739.5
98472.1
98208.9
97949.9
97696.2
97449.2
97208.9
96975.7
96749.6
96530.8
96320.3
96118.7
95926
95742.8
95569.5
95406.6
95254.1
95112.1
94980.8
94860.7
94752.3
94655.8
94571.8
94500.4
94441.5
94396.4
94365.7
94349.5
94348.4
94361.6
94388.4
94428.3
94478.9
94538.1
94605.1
94678.6
94756.6
94838.3
94922.8
95009.4
95096.4
95183
95269.4
95356.2
95442.4
95528.1
95612.5
95696.8
95781.5
95864.6
95954.7
96048.8
96144.6
96249.3
96367.5
96497.8
96637.4
96788.1
96948.4
97126.8
97330.7
97553.3
97794.4
98052.5
98313.2
98567.3
98801
98996.4
99139.4
99223.1
99248
99217.7
99122.6
98945
98680.2
98322.7
97872.8
97344.9
96750.7
96098.2
95399.9
94680.7
93956.7
93175.4
92394.7
91691.5
90965.8
90283.1
89625.5
89009.5
88483.5
88027.7
87600.9
87225.1
86981
86855.8
86807.7
86807
86872.7
87003.8
87182.2
87387.9
87612.2
87842
88090.3
88338.8
88586.6
88837.8
89090.5
89328.7
89576.7
89860.9
90151.5
90453.8
90839.5
91318.5
91843.1
92403.5
92985.1
93574.5
94087.9
94491.7
94795
95016.2
95167.1
95220.2
107125
107125
107124
107119
107112
107100
107084
107064
107040
107012
106980
106942
106899
106850
106795
106733
106663
106586
106501
106410
106310
106202
106086
105961
105827
105685
105534
105374
105208
105034
104852
104662
104463
104253
104034
103806
103569
103325
103073
102813
102546
102275
102000
101723
101443
101161
100880
100599
100320
100041
99765.1
99491.5
99220.7
98953.1
98689.1
98429
98173.3
97922.3
97676.9
97438.4
97206.4
96981.5
96764
96553.8
96352
96159
95975.2
95800.5
95635.3
95480.5
95336.4
95202.9
95080.1
94968.5
94868.7
94780.8
94705.1
94642.3
94592.5
94556.3
94534.5
94527.6
94537
94561.6
94599.7
94650.9
94712.7
94782.6
94859
94941
95026.4
95114.7
95205
95296.8
95388.8
95481.2
95573.5
95665.6
95756.5
95847
95935.2
96024.1
96115.1
96199.1
96297.2
96397.9
96501.8
96614
96739.1
96876.6
97024.3
97181.1
97348.4
97531.6
97740.3
97967.3
98210.3
98466.5
98719.1
98958.4
99170.8
99344
99469.3
99540.4
99562.7
99532.3
99439
99264.5
99008.6
98667.4
98232.7
97713.7
97132.5
96492.9
95806.6
95106.5
94397.2
93650.4
92880.7
92196.6
91497.7
90825.5
90176.8
89555.4
89031.4
88577.1
88156.8
87783.4
87539.3
87394.4
87334.6
87321.6
87378.3
87493.8
87645.7
87832.2
88036.5
88256.4
88501.6
88743
88988.8
89241.6
89490.7
89737.8
90005.1
90317
90632.9
90958.1
91358.3
91838.6
92375.9
92953.7
93558.5
94163.3
94659.2
95042.4
95323.5
95520.3
95644
95666.5
106545
106546
106547
106543
106537
106527
106514
106498
106479
106457
106431
106401
106366
106326
106280
106227
106168
106102
106029
105949
105862
105767
105663
105551
105429
105298
105158
105009
104854
104693
104523
104346
104159
103964
103758
103544
103320
103088
102846
102597
102345
102087
101823
101557
101288
101018
100747
100476
100206
99937.5
99670.3
99405
99142.5
98883.7
98628.5
98377.4
98131
97889.6
97653.4
97423.7
97201.5
96986.4
96778.3
96577.7
96385.5
96202.2
96028.2
95863.4
95708
95562.7
95428.5
95304.8
95191.8
95090.3
95000.8
94923
94857.3
94803.8
94763.6
94737.8
94727.3
94732.3
94753.5
94790.9
94842.1
94905.3
94978.4
95059.4
95145.7
95237.3
95331.4
95427.3
95523.9
95620.9
95717.1
95814.6
95912.6
96009.3
96104.8
96202.4
96295.4
96394.8
96492.4
96586.3
96685.6
96791.5
96903.7
97023.9
97156.1
97300.3
97456.7
97623.3
97799.4
97989.8
98201.7
98429.9
98674.3
98928.4
99171.6
99395.6
99589.6
99741.4
99849.5
99912
99933.4
99902.9
99808.9
99638.1
99388.4
99057.9
98640
98138.1
97576.1
96957.6
96284.7
95612.7
94925.8
94216.6
93474.5
92801.2
92123.4
91466.6
90837.8
90223.6
89691.8
89229.4
88814.3
88447.2
88197.4
88025.2
87954.5
87928.3
87978
88073.4
88200.4
88368.1
88547.3
88755.8
88998
89227.7
89465.9
89720.8
89965.1
90220.4
90510.5
90850.4
91197.5
91553.6
91970
92459.6
93015.8
93613.3
94240.5
94852
95329.2
95698.2
95964.6
96138.4
96213.1
96195.7
105908
105910
105911
105908
105903
105896
105886
105874
105860
105844
105824
105801
105773
105741
105704
105662
105615
105562
105503
105438
105365
105284
105195
105097
104990
104873
104747
104613
104472
104322
104165
104000
103826
103643
103452
103250
103039
102818
102588
102354
102115
101871
101621
101367
101111
100853
100594
100334
100075
99817.3
99560
99304.4
99051.5
98802.7
98558
98317.4
98081.1
97849.9
97624
97404.5
97192.4
96987.6
96790.1
96600.4
96418.9
96246.1
96082.5
95928.4
95784
95649.7
95526
95413.5
95311.8
95221.7
95143.5
95077
95022.6
94980.7
94952
94938
94940.2
94959.2
94994.7
95045.3
95109
95184.4
95267.8
95359.5
95455.5
95555.9
95659.7
95764.1
95869.7
95974.3
96076.1
96178.4
96281.7
96386
96483.2
96587.6
96687.4
96791.3
96899.9
97007.7
97115.7
97228.4
97349.3
97477.2
97615.1
97765.8
97929.3
98105.4
98291.9
98489.1
98702.5
98930.4
99173.9
99424.3
99659.5
99867.9
100044
100177
100270
100325
100343
100314
100218
100050
99809.1
99487.5
99086.9
98607.3
98067.1
97474.6
96825.3
96174.6
95530.4
94852.9
94149.2
93499.6
92857.4
92205.1
91596.3
91003.1
90462.6
89986.9
89565.2
89204.9
88934.8
88737.4
88664.2
88625.1
88664.2
88736.3
88843.2
88995.8
89146.1
89337.6
89577.5
89789.8
90015.6
90272.4
90520.8
90779
91094.9
91462.5
91845.6
92234.5
92672.4
93182.7
93760.5
94372.3
95018
95629
96090.4
96449.9
96699.2
96840.1
96864.8
96809.7
105224
105228
105229
105228
105226
105222
105217
105210
105201
105189
105175
105158
105138
105114
105087
105055
105020
104981
104935
104884
104825
104759
104684
104601
104509
104409
104300
104184
104058
103923
103780
103628
103469
103299
103119
102928
102729
102521
102306
102085
101860
101629
101393
101154
100911
100666
100420
100173
99926.6
99679.6
99433.4
99189.2
98947.9
98710.2
98476.2
98246.1
98020.7
97800.8
97586.5
97378
97176.5
96982.8
96796.8
96618.5
96448.3
96287
96134.6
95992.1
95859.6
95737.1
95625.2
95524.4
95435.3
95357.8
95291.9
95237.6
95195.5
95166.4
95151.3
95151.2
95167.6
95201.1
95250.5
95314.9
95390.5
95477.7
95572.3
95673.7
95781.4
95890.1
96002.5
96113.9
96227
96339.4
96447.3
96559.6
96665.8
96776.5
96885.6
96997.3
97108.2
97214.5
97326.2
97444.1
97565.3
97689.5
97821.4
97959.4
98102.4
98260.3
98431.9
98613.6
98807.8
99015.1
99231.5
99459.4
99701.4
99945.9
100174
100367
100524
100642
100727
100777
100788
100752
100654
100487
100256
99946
99563.3
99111.3
98603.5
98039.1
97424.3
96793
96193.3
95557.6
94893.8
94271.4
93654.6
93036
92452.2
91868
91323.1
90840.6
90413.1
90043.5
89743.5
89536.3
89449.1
89408
89429.1
89483
89577.9
89713.1
89836.4
90010
90231.4
90423.9
90639.5
90895.2
91152.4
91415.2
91758.9
92155.3
92577.2
92995.7
93461.1
94002.1
94596.8
95220.5
95879.2
96483.9
96932.6
97280
97505.2
97605.9
97585.8
97487.7
104511
104515
104517
104519
104520
104520
104518
104515
104511
104505
104497
104487
104475
104461
104444
104425
104401
104373
104340
104301
104256
104204
104144
104076
104000
103915
103823
103722
103612
103494
103367
103231
103085
102927
102758
102581
102396
102203
102003
101797
101584
101368
101147
100922
100693
100462
100229
99995.3
99760.7
99526
99291.8
99059.5
98830.1
98603.7
98381.2
98163.4
97950.4
97742.3
97539.7
97343
97153.1
96970.7
96796.2
96629.6
96471.2
96321.6
96181.4
96050.8
95930.4
95820.4
95721.1
95633.2
95557.1
95492.7
95440.2
95399.6
95371.2
95355.8
95355.4
95370.1
95400.7
95449
95511.7
95588.9
95677.1
95773.9
95881.3
95992
96111
96229.4
96349.5
96469.7
96588.5
96708.1
96818.8
96939.7
97055
97170.9
97289.5
97407.8
97531.2
97653.2
97770.7
97891.6
98020.8
98157.7
98301.1
98450.6
98601.9
98766.4
98952.2
99141.4
99338.5
99554.2
99775.8
100005
100246
100484
100703
100885
101026
101132
101209
101264
101262
101215
101119
100954
100728
100430
100060
99636.9
99169.5
98646
98065.2
97472.9
96893.8
96304.4
95706
95113.7
94513.5
93911.7
93358.8
92795.3
92246.3
91766.7
91348.6
90969.3
90646.1
90429.5
90325.9
90273.8
90272
90315.9
90408.8
90519.5
90624.5
90778.6
90955.3
91126.6
91333
91597.5
91862.5
92133.9
92501.2
92926.2
93385
93832.2
94330.4
94906
95513.4
96146.5
96814.5
97407.8
97845.9
98176.9
98375.7
98441.6
98372.3
98226.6
103779
103783
103787
103791
103795
103799
103802
103804
103805
103805
103803
103799
103794
103788
103780
103771
103758
103742
103722
103697
103666
103628
103584
103532
103471
103402
103325
103239
103146
103044
102933
102810
102677
102532
102378
102216
102045
101869
101685
101494
101297
101094
100887
100675
100461
100243
100023
99800.9
99578.4
99356.3
99135.1
98915.5
98698.5
98485
98275.5
98070
97869
97672.9
97482.1
97297.6
97119.8
96949.2
96786.5
96632
96485.5
96347.9
96219.8
96101.3
95993.3
95896
95809.8
95735.2
95672.6
95622.1
95583.7
95557.5
95544.4
95544.3
95559.2
95589.8
95634.3
95696.2
95773.3
95861.3
95962.9
96068.6
96185.4
96307.5
96431.8
96558.6
96684.5
96812.4
96938.6
97067.7
97188.3
97314.1
97442.2
97565.4
97694
97819
97943.4
98076.6
98210.2
98342
98479.3
98626.4
98780.8
98943.1
99111.6
99283
99475.8
99678.8
99877.4
100095
100322
100553
100794
101027
101235
101411
101544
101643
101713
101758
101751
101696
101594
101437
101217
100933
100579
100185
99751.3
99266.9
98738.5
98192.1
97636.2
97088.1
96546.5
96012.9
95445.2
94860.1
94295
93755.9
93232.8
92749.4
92357
91982.5
91662.2
91431.2
91303.6
91231.5
91208.8
91244.1
91330.9
91412.3
91498.8
91622.4
91752.6
91894
92090.6
92381.5
92654
92935.7
93327.3
93772.7
94258.6
94733.1
95273.1
95879.7
96503.6
97144.2
97815.5
98392
98821
99131.7
99300.6
99328.5
99217
99038.3
103041
103045
103052
103059
103067
103076
103086
103094
103102
103108
103112
103115
103116
103117
103116
103114
103111
103104
103095
103082
103064
103040
103009
102971
102927
102874
102814
102745
102668
102580
102482
102373
102254
102124
101985
101838
101684
101523
101354
101179
100996
100807
100612
100414
100213
100008
99800.1
99590.6
99380.7
99171.4
98963.5
98757.6
98554.1
98353.7
98157.1
97964.3
97775.6
97591.7
97413.1
97240.1
97073.7
96914.6
96763.6
96621.5
96487.7
96362.4
96246.7
96140.9
96045.6
95961
95887.6
95826.1
95776.8
95740.1
95716.4
95705.3
95707.9
95724.2
95754.3
95800.7
95861.1
95934.2
96024.2
96122.7
96233.6
96351.7
96473.2
96603.4
96734
96865.3
97000.3
97131.7
97266.5
97403.5
97538.2
97669.6
97808.4
97943.2
98080.2
98220.2
98351.9
98486.6
98630.6
98775.9
98925.3
99082.1
99245.7
99419.2
99604.1
99790
99986.4
100201
100409
100628
100857
101091
101329
101559
101757
101927
102060
102154
102215
102253
102235
102173
102064
101914
101708
101437
101114
100751
100344
99905.4
99426.1
98917.5
98410
97915.9
97428
96948.4
96410.1
95883.1
95322.4
94792.1
94319.1
93852
93462.2
93096.3
92786.9
92540.9
92385.1
92283.5
92236.8
92261.3
92328.2
92379.7
92444.3
92527.5
92625.5
92729.6
92923.4
93242.5
93518.1
93827
94241.9
94690.9
95185.1
95687.9
96274.3
96911.5
97560.5
98208
98872.3
99425.1
99846.3
100126
100254
100241
100107
99896.7
102306
102312
102321
102331
102343
102356
102370
102385
102400
102414
102428
102441
102452
102461
102469
102474
102479
102481
102480
102475
102467
102454
102435
102411
102381
102343
102298
102243
102179
102106
102021
101926
101821
101706
101582
101451
101313
101167
101013
100850
100681
100505
100324
100138
99949.3
99757.4
99562.3
99365.5
99168.5
98972.5
98778.3
98586.1
98396
98208.9
98025.2
97844.9
97668.2
97495.9
97328.7
97167.4
97012.7
96864.8
96725
96594.6
96473
96360.4
96257.3
96164.3
96081.9
96010.6
95950.2
95901.7
95865.4
95841.9
95831.8
95835
95852.6
95885.2
95929.8
95988.2
96064.4
96149.8
96247.4
96357.2
96474.2
96601
96730.9
96866
97009.4
97138.2
97287.3
97428.5
97572.8
97716.9
97862.6
98004.5
98148.5
98293.3
98435.7
98583.5
98731.8
98877.6
99030.6
99185.3
99344.9
99512.4
99684.1
99864.6
100057
100260
100466
100682
100908
101133
101368
101603
101839
102063
102258
102419
102551
102642
102697
102727
102697
102632
102535
102382
102191
101941
101653
101321
100942
100555
100122
99656
99204.5
98763.1
98334.3
97852.5
97369.3
96872.8
96392.8
95906.4
95471.3
95053.1
94670.4
94324.3
94035.5
93772.5
93573.3
93431
93350.7
93354.1
93388
93419.1
93458.4
93504.9
93573.8
93650
93847
94175.3
94458.4
94810
95228.4
95664.6
96154.4
96697.2
97326.5
97998.9
98674.8
99328.1
99971.4
100497
100909
101148
101236
101192
101048
100804
101581
101588
101599
101612
101627
101645
101664
101685
101707
101730
101753
101775
101796
101816
101834
101850
101864
101875
101884
101888
101889
101885
101876
101862
101843
101816
101782
101740
101688
101627
101556
101475
101384
101284
101176
101060
100936
100803
100662
100512
100355
100191
100023
99849.8
99673.5
99494.1
99311.8
99127.7
98943.8
98761.4
98580.8
98401.7
98224.3
98049.5
97877.7
97709
97544
97383.6
97227.9
97077.9
96934.8
96798.5
96670
96550.6
96440.5
96339.5
96248.3
96167.3
96097
96038.3
95990.5
95954.7
95931.3
95920.5
95923.5
95939.3
95969.8
96016.5
96076.4
96146.3
96231.6
96331
96438.5
96558.2
96684.3
96816.5
96958.5
97096.4
97247
97392.2
97543.8
97693.7
97844.9
97997
98149.5
98301.6
98453.5
98606.5
98758.8
98910.8
99066.8
99222.2
99384.1
99551.2
99720.7
99899.2
100085
100273
100470
100690
100911
101127
101360
101595
101835
102074
102309
102526
102724
102880
103002
103090
103142
103163
103132
103067
102980
102841
102658
102440
102177
101876
101534
101183
100809
100396
100002
99609.4
99208.6
98737.1
98313.6
97876.4
97460.2
97044.7
96674.2
96310.7
95969.8
95653.7
95395.9
95125.8
94872.3
94682.5
94559.9
94514.4
94513.4
94532.7
94520.8
94559.2
94591.5
94649.8
94855.8
95164.8
95488.1
95858.6
96258.4
96663.9
97149.5
97743.7
98423.8
99133
99833.2
100490
101103
101602
101996
102196
102251
102191
102042
101766
100871
100879
100892
100908
100928
100951
100976
101004
101034
101064
101095
101126
101157
101188
101217
101244
101269
101291
101309
101324
101334
101339
101340
101334
101323
101305
101280
101247
101206
101156
101096
101028
100950
100864
100769
100666
100554
100433
100303
100166
100021
99869.8
99713.9
99553.3
99388.9
99221.4
99051.6
98880.5
98709.5
98539.8
98371.6
98204.3
98038.1
97873.8
97712.2
97554
97400.1
97251
97107.3
96969.2
96837.9
96713.8
96596.9
96488.7
96389.5
96299.7
96219.9
96150.6
96091.7
96044.4
96008.5
95984
95971.9
95972.4
95988
96016.9
96058.6
96116.1
96189.7
96275.5
96370.7
96479.4
96597.8
96726.6
96864.5
96998.9
97148.9
97298.4
97452.6
97606.6
97762.7
97918.5
98075.3
98233
98391.6
98549.1
98708.6
98867.6
99028.3
99190.5
99356.5
99520.9
99686.5
99862.2
100044
100233
100433
100633
100836
101063
101302
101527
101759
102003
102246
102486
102724
102938
103138
103294
103409
103486
103537
103549
103522
103463
103380
103261
103091
102894
102663
102398
102103
101804
101473
101115
100777
100443
100051
99658.1
99273.7
98930.3
98560.3
98217
97935.7
97628.4
97356.3
97082.7
96847.3
96564.2
96278.9
96036.3
95858.8
95735.2
95700.2
95693.6
95614.7
95658
95660.1
95698.6
95931.2
96212.7
96583.5
96940
97316.6
97691.7
98178.1
98818.9
99557.6
100294
101019
101681
102258
102730
103099
103252
103290
103225
103053
102741
100178
100187
100203
100224
100249
100278
100309
100344
100380
100418
100457
100497
100538
100578
100617
100655
100691
100724
100754
100779
100801
100816
100826
100830
100827
100817
100799
100775
100742
100700
100651
100592
100525
100449
100365
100273
100171
100061
99942.2
99815.9
99683
99544.2
99400.2
99251.3
99098.3
98942.3
98784.4
98625.4
98466.4
98307.9
98150.1
97992.8
97836.6
97682.2
97530.7
97383
97239.9
97101.7
96969.1
96842.6
96722.7
96609.7
96504.2
96407.1
96319
96240.3
96171.5
96113.5
96065.9
96029.6
96004.3
95990.6
95989.7
95999.7
96024.2
96064.7
96119.1
96187.7
96269.9
96367.3
96475.5
96592.5
96719
96851.5
96995.4
97140.2
97293.2
97447.1
97605.8
97763.1
97924.6
98086.2
98249.9
98414.8
98579.6
98743.8
98909.5
99078.1
99243.1
99409.3
99581.5
99759.3
99935.4
100117
100309
100504
100710
100924
101138
101366
101612
101852
102084
102338
102588
102826
103065
103285
103482
103641
103760
103826
103872
103883
103858
103806
103736
103629
103485
103297
103116
102880
102640
102398
102101
101803
101521
101225
100850
100546
100242
99966
99676.4
99445
99224.7
98987.4
98727.7
98509.7
98267.6
97993
97718
97449.7
97212.4
97007.9
96910.3
96862.6
96739.1
96764.7
96760.5
96795.8
97051.7
97315.7
97684.5
98039
98401.4
98761.6
99254.2
99929.6
100707
101469
102217
102880
103423
103866
104204
104320
104343
104266
104053
103707
99504.4
99514.1
99532.3
99556.6
99587.1
99622.2
99660.4
99702.4
99747.4
99794.1
99842
99890.7
99940
99988.2
100037
100084
100131
100174
100215
100252
100285
100312
100333
100347
100353
100352
100343
100325
100300
100266
100224
100173
100113
100046
99970
99885.7
99793
99692.1
99583.5
99467.7
99345.4
99217.4
99084.2
98946.1
98803.9
98658.7
98511.6
98363.5
98214.8
98066.1
97917.6
97769.7
97623
97478.6
97337.7
97201
97068.7
96941.1
96818.6
96702.3
96592.5
96489.5
96393.7
96306.4
96228.2
96159.4
96100.5
96052.5
96014.4
95988.4
95973.2
95968
95976.9
95997.7
96030.1
96077.5
96140.4
96220.2
96312.1
96413.5
96534.7
96655.7
96789.3
96927.2
97075.4
97225.1
97382.4
97539.7
97702.5
97865
98029.6
98197.3
98365.5
98534.5
98703
98875
99044.4
99219.6
99394.8
99567
99741.4
99923.7
100111
100300
100497
100700
100912
101134
101359
101592
101843
102097
102334
102586
102846
103087
103321
103549
103743
103908
104036
104105
104144
104160
104143
104096
104035
103948
103831
103674
103532
103315
103127
102922
102673
102437
102190
101913
101622
101372
101156
100967
100763
100623
100460
100294
100018
99843.8
99593.5
99341.7
99099.9
98839.2
98564.9
98303.1
98119.7
98034.7
97882
97883.1
97885.1
97952.6
98184.5
98445.8
98762.2
99146.7
99501.4
99867
100365
101062
101853
102647
103408
104064
104591
105004
105287
105413
105393
105296
105052
104659
98847
98856.6
98875.5
98902.1
98935.1
98978.4
99027.4
99081.8
99138.8
99197.1
99255.3
99313.5
99371.4
99428.9
99485.6
99541.5
99596
99648.7
99699.3
99746.5
99789.5
99827.3
99858.6
99882.7
99898.8
99906.8
99906.1
99896.7
99878.4
99851.4
99815.7
99771.5
99718.9
99657.8
99588.6
99511.2
99425.8
99332.6
99232.2
99125
99011.7
98892.7
98768.7
98640.1
98507.6
98372.1
98234.6
98095.8
97956.1
97816
97675.9
97536.7
97399.5
97264.6
97133.3
97006.5
96883.9
96765.8
96652.8
96545.6
96444.5
96350.1
96263
96184.1
96113.8
96053.2
96002.6
95963.6
95934.3
95915.7
95910.4
95914.3
95929.9
95959.4
96001.1
96056.3
96125.4
96207.9
96312.1
96420.3
96542.8
96671
96808.4
96952.4
97104.2
97259.8
97419.8
97582.2
97746.4
97914.2
98080.9
98252.7
98423.2
98595.2
98767.8
98942.1
99114.3
99288.4
99468.4
99646.4
99826.9
100013
100206
100405
100607
100817
101038
101264
101495
101732
101988
102252
102500
102745
103006
103259
103488
103718
103914
104083
104220
104307
104349
104365
104361
104324
104267
104197
104110
103988
103866
103690
103540
103377
103178
102993
102778
102506
102332
102142
102009
101903
101813
101716
101604
101481
101282
101105
100864
100630
100412
100171
99882.9
99597.6
99326.8
99228.3
99036.9
99023.1
99029.5
99133.5
99313.3
99559.3
99839.5
100249
100601
101018
101522
102210
102994
103811
104558
105215
105740
106117
106337
106475
106426
106300
106024
105578
98304.9
98313.2
98328.9
98361
98400.6
98455.9
98518.7
98585.7
98654
98722.7
98790.4
98856.8
98922
98986
99049.2
99111.5
99172.6
99231.9
99289.2
99343.4
99393.2
99437.8
99475.9
99506.9
99527.5
99542.6
99548.3
99545.1
99532.9
99511.6
99481.1
99442.3
99394.9
99338.9
99274.7
99202.3
99122
99034
98939.3
98838
98730.9
98618.3
98500.8
98378.7
98252.7
98124
97993.3
97861
97727.6
97593.8
97460.3
97328.1
97197.8
97070.3
96946.3
96826.6
96711.1
96599.6
96492.9
96391.8
96296.9
96208.7
96127.9
96055.7
95992.4
95939
95895.1
95862.3
95841.8
95829.3
95829.7