/*--------------------------------*- C++ -*----------------------------------*\
| =========                 |                                                 |
| \\      /  F ield         | OpenFOAM: The Open Source CFD Toolbox           |
|  \\    /   O peration     | Version:  dev                                   |
|   \\  /    A nd           | Web:      http://www.openfoam.org               |
|    \\/     M anipulation  |                                                 |
\*---------------------------------------------------------------------------*/
FoamFile
{
    version     2.0;
    format      ascii;
    class       surfaceScalarField;
    object      phi_0;
    location    "9.143";
}
// * * * * * * * * * * * * * * * * * * * * * * * * * * * * * * * * * * * * * //

dimensions      [1 0 -1 0 0 0 0];

internalField   nonuniform List<scalar> 
24170
(
2.96782e-06
2.43036e-06
2.84601e-06
1.97811e-06
3.14264e-06
1.45255e-06
3.68416e-06
1.10145e-06
4.13399e-06
1.07536e-06
4.69301e-06
8.58394e-07
5.00775e-06
9.87033e-07
5.50117e-06
7.05049e-07
5.69631e-06
8.95165e-07
6.10872e-06
5.84798e-07
6.31957e-06
6.90804e-07
6.7702e-06
3.67133e-07
6.66355e-06
8.43834e-07
7.34624e-06
-9.39108e-09
7.63636e-06
3.02848e-07
8.08377e-06
8.11556e-08
1.1786e-05
-3.21532e-06
-2.31825e-06
1.45505e-05
4.68095e-06
3.53196e-06
4.97823e-06
3.64932e-06
5.31053e-06
3.00483e-06
5.76503e-06
2.41809e-06
6.21003e-06
2.281e-06
6.80637e-06
1.78601e-06
7.15667e-06
2.0386e-06
7.86092e-06
1.28287e-06
8.08344e-06
1.83572e-06
8.80531e-06
9.24958e-07
9.17039e-06
1.2776e-06
9.75935e-06
6.37986e-07
1.02712e-05
1.10981e-06
1.04577e-05
5.16741e-07
1.21928e-05
-8.22519e-07
1.46173e-05
-1.77598e-06
1.41806e-05
-2.22068e-06
-9.59437e-06
2.19014e-05
5.49211e-06
4.3699e-06
6.32126e-06
4.99508e-06
7.01366e-06
4.39607e-06
7.69499e-06
3.69261e-06
8.19522e-06
3.60694e-06
8.91569e-06
2.75012e-06
9.26871e-06
3.24018e-06
1.01515e-05
1.82114e-06
1.03133e-05
2.96486e-06
1.13607e-05
1.05341e-06
1.14877e-05
2.21019e-06
1.2693e-05
3.89605e-07
1.26398e-05
2.02491e-06
1.35989e-05
3.31351e-07
1.47044e-05
-1.23007e-06
1.57105e-05
-2.1416e-06
1.90748e-05
-4.9847e-06
-1.05053e-05
2.04022e-05
5.96327e-06
5.56981e-06
7.32125e-06
6.02834e-06
8.28496e-06
5.72544e-06
9.3141e-06
4.81062e-06
9.95938e-06
4.96924e-06
1.09492e-05
3.61148e-06
1.14859e-05
4.40768e-06
1.2392e-05
2.47585e-06
1.28219e-05
3.96025e-06
1.37556e-05
1.40527e-06
1.41084e-05
3.03287e-06
1.54339e-05
1.26565e-07
1.59272e-05
2.46583e-06
1.7419e-05
-3.10899e-07
1.65926e-05
3.49467e-07
1.75814e-05
-2.4502e-06
1.92166e-05
-5.94172e-06
-1.11031e-05
2.0322e-05
6.33058e-06
7.07747e-06
8.11149e-06
6.87621e-06
9.30937e-06
7.04152e-06
1.06332e-05
5.84085e-06
1.14448e-05
6.36089e-06
1.2303e-05
4.78674e-06
1.31622e-05
5.4171e-06
1.38449e-05
3.5045e-06
1.47606e-05
4.60481e-06
1.48636e-05
2.72268e-06
1.50514e-05
4.15158e-06
1.60091e-05
3.30891e-07
1.76205e-05
1.87575e-06
1.81301e-05
1.14699e-07
1.74238e-05
1.87829e-06
1.84758e-05
-2.74432e-06
1.73548e-05
-4.08983e-06
-1.02727e-05
1.70834e-05
6.92312e-06
8.9246e-06
8.61095e-06
8.06783e-06
9.96618e-06
8.43391e-06
1.14129e-05
6.97977e-06
1.22626e-05
7.92475e-06
1.30477e-05
6.22869e-06
1.41403e-05
6.36907e-06
1.48051e-05
4.71648e-06
1.54945e-05
5.63798e-06
1.54317e-05
4.34519e-06
1.60517e-05
4.92921e-06
1.63567e-05
1.31199e-06
1.68415e-05
2.55381e-06
1.63717e-05
1.59819e-06
1.70683e-05
2.06196e-06
1.82054e-05
-3.06185e-06
1.46187e-05
2.95991e-07
-1.36439e-05
1.86346e-05
7.41436e-06
1.0878e-05
9.10464e-06
9.51539e-06
1.05049e-05
1.00365e-05
1.17475e-05
8.5654e-06
1.26739e-05
9.62953e-06
1.37703e-05
7.55078e-06
1.51693e-05
7.19682e-06
1.58168e-05
6.13047e-06
1.60251e-05
7.30804e-06
1.71066e-05
4.93648e-06
1.81445e-05
5.41219e-06
1.75291e-05
3.34488e-06
1.68747e-05
4.47872e-06
1.82197e-05
1.35017e-06
1.94571e-05
1.78518e-06
1.97926e-05
-2.51875e-06
1.82906e-05
2.64311e-06
-1.36968e-05
1.91204e-05
6.0925e-06
1.22193e-05
7.39605e-06
1.06288e-05
8.1439e-06
1.16159e-05
9.0222e-06
9.86828e-06
9.88487e-06
1.07899e-05
1.09703e-05
8.3212e-06
1.16423e-05
8.25215e-06
1.22173e-05
7.14789e-06
1.27234e-05
8.23621e-06
1.33803e-05
5.56376e-06
1.39628e-05
6.00501e-06
1.4564e-05
3.82193e-06
1.45899e-05
5.42521e-06
1.47836e-05
2.01653e-06
1.49753e-05
2.34756e-06
1.5955e-05
-2.83738e-06
1.69964e-05
2.24451e-06
-7.35046e-06
1.1243e-05
7.09131e-06
1.3994e-05
8.58576e-06
1.1922e-05
9.47021e-06
1.34196e-05
1.06718e-05
1.11696e-05
1.20182e-05
1.17663e-05
1.31724e-05
9.30861e-06
1.37165e-05
9.70523e-06
1.42917e-05
8.40266e-06
1.54211e-05
8.74918e-06
1.61387e-05
6.32253e-06
1.68221e-05
6.66962e-06
1.73797e-05
4.50265e-06
1.80359e-05
5.88624e-06
1.83932e-05
2.6494e-06
1.88015e-05
2.82501e-06
1.84286e-05
-1.68327e-06
1.97003e-05
1.69056e-06
-1.92757e-06
1.49231e-05
8.48236e-06
1.53787e-05
9.94032e-06
1.36657e-05
1.13673e-05
1.50662e-05
1.27546e-05
1.26458e-05
1.41908e-05
1.29946e-05
1.51827e-05
1.07816e-05
1.60364e-05
1.11393e-05
1.69545e-05
9.5741e-06
1.79135e-05
9.66159e-06
1.87784e-05
7.15201e-06
1.93986e-05
7.59574e-06
1.98278e-05
5.48863e-06
2.06741e-05
6.32225e-06
2.08265e-05
3.62752e-06
2.10657e-05
3.58483e-06
1.9592e-05
6.99534e-07
2.02356e-05
1.85874e-06
-1.84342e-07
1.92259e-05
9.84191e-06
1.7141e-05
1.14058e-05
1.57584e-05
1.32277e-05
1.6734e-05
1.47804e-05
1.43576e-05
1.62853e-05
1.45204e-05
1.73641e-05
1.25124e-05
1.85179e-05
1.258e-05
1.96174e-05
1.08372e-05
2.062e-05
1.07802e-05
2.12696e-05
8.43045e-06
2.20221e-05
8.60627e-06
2.25982e-05
6.51116e-06
2.34067e-05
6.95891e-06
2.34273e-05
4.88204e-06
2.36152e-05
4.52754e-06
2.28843e-05
2.4424e-06
2.31285e-05
2.52938e-06
1.51412e-06
2.22825e-05
1.13687e-05
1.91301e-05
1.31592e-05
1.81e-05
1.54498e-05
1.83745e-05
1.71224e-05
1.63682e-05
1.88862e-05
1.61689e-05
2.00899e-05
1.4476e-05
2.14645e-05
1.41121e-05
2.24631e-05
1.24889e-05
2.37805e-05
1.18427e-05
2.4342e-05
1.0036e-05
2.53351e-05
9.58005e-06
2.55868e-05
8.0376e-06
2.67084e-05
7.44699e-06
2.67363e-05
6.27774e-06
2.71022e-05
5.4191e-06
2.6515e-05
4.1575e-06
2.65338e-05
3.53312e-06
3.0498e-06
2.59195e-05
1.30854e-05
2.13072e-05
1.52032e-05
2.05914e-05
1.76532e-05
2.02952e-05
1.96057e-05
1.8509e-05
2.15351e-05
1.80299e-05
2.32049e-05
1.63157e-05
2.47284e-05
1.58018e-05
2.60936e-05
1.40443e-05
2.72113e-05
1.33538e-05
2.80884e-05
1.15508e-05
2.90009e-05
1.08302e-05
2.95783e-05
9.40936e-06
3.00277e-05
8.74989e-06
3.03389e-05
7.5232e-06
3.05403e-05
6.60241e-06
3.02654e-05
5.67129e-06
3.00059e-05
4.90858e-06
4.28797e-06
2.97733e-05
1.54191e-05
2.33889e-05
1.78209e-05
2.32146e-05
2.05091e-05
2.23693e-05
2.25157e-05
2.09605e-05
2.48277e-05
1.98434e-05
2.65466e-05
1.84069e-05
2.85352e-05
1.72908e-05
2.98615e-05
1.58744e-05
3.13623e-05
1.47038e-05
3.21882e-05
1.3308e-05
3.3121e-05
1.22215e-05
3.35807e-05
1.10339e-05
3.42096e-05
9.98507e-06
3.44326e-05
8.95463e-06
3.45153e-05
7.99291e-06
3.44189e-05
7.08183e-06
3.42316e-05
6.27159e-06
5.62748e-06
3.39466e-05
1.75375e-05
2.55188e-05
2.02646e-05
2.58031e-05
2.31441e-05
2.45287e-05
2.57174e-05
2.30972e-05
2.81593e-05
2.17584e-05
3.03813e-05
2.01915e-05
3.22989e-05
1.90188e-05
3.39653e-05
1.7516e-05
3.54263e-05
1.62279e-05
3.65597e-05
1.4861e-05
3.75218e-05
1.36575e-05
3.81976e-05
1.24927e-05
3.8699e-05
1.13829e-05
3.90439e-05
1.02956e-05
3.92049e-05
9.32673e-06
3.91796e-05
8.43001e-06
3.89666e-05
7.65658e-06
6.95992e-06
3.86742e-05
2.04153e-05
2.78157e-05
2.34305e-05
2.81392e-05
2.66739e-05
2.63638e-05
2.96325e-05
2.48791e-05
3.23917e-05
2.33737e-05
3.47415e-05
2.18394e-05
3.69081e-05
2.04831e-05
3.86779e-05
1.90316e-05
4.02292e-05
1.76225e-05
4.14444e-05
1.62689e-05
4.24036e-05
1.50207e-05
4.31611e-05
1.37853e-05
4.37185e-05
1.26377e-05
4.4022e-05
1.15864e-05
4.4168e-05
1.05751e-05
4.4138e-05
9.67724e-06
4.39819e-05
8.86866e-06
8.1083e-06
4.37477e-05
2.34778e-05
2.90302e-05
2.71538e-05
2.94211e-05
3.0627e-05
2.76022e-05
3.38402e-05
2.60449e-05
3.6732e-05
2.4496e-05
3.92744e-05
2.29426e-05
4.15721e-05
2.1482e-05
4.35615e-05
1.99964e-05
4.52463e-05
1.85473e-05
4.66325e-05
1.71759e-05
4.77441e-05
1.59118e-05
4.85806e-05
1.4686e-05
4.92105e-05
1.35146e-05
4.96257e-05
1.24584e-05
4.98374e-05
1.14548e-05
4.99238e-05
1.05105e-05
4.98543e-05
9.69964e-06
8.93268e-06
4.96617e-05
2.40435e-05
2.88215e-05
2.75777e-05
2.93476e-05
3.09058e-05
2.75585e-05
3.38793e-05
2.60974e-05
3.65342e-05
2.45883e-05
3.88761e-05
2.30678e-05
4.09904e-05
2.1563e-05
4.28585e-05
2.00452e-05
4.44823e-05
1.8571e-05
4.58572e-05
1.72077e-05
4.69515e-05
1.59873e-05
4.77872e-05
1.48093e-05
4.8399e-05
1.36848e-05
4.87987e-05
1.26635e-05
4.90253e-05
1.16866e-05
4.90825e-05
1.07861e-05
4.89678e-05
1.00309e-05
9.23087e-06
4.87943e-05
2.08246e-05
2.75123e-05
2.38991e-05
2.79661e-05
2.68849e-05
2.61658e-05
2.96402e-05
2.47869e-05
3.20602e-05
2.34403e-05
3.41673e-05
2.20527e-05
3.59893e-05
2.06568e-05
3.75093e-05
1.92635e-05
3.88072e-05
1.78527e-05
3.99153e-05
1.65201e-05
4.0765e-05
1.53879e-05
4.14247e-05
1.42764e-05
4.19399e-05
1.3197e-05
4.22575e-05
1.22613e-05
4.24283e-05
1.13479e-05
4.2501e-05
1.04805e-05
4.24578e-05
9.76612e-06
9.13277e-06
4.21998e-05
1.87057e-05
2.58634e-05
2.10644e-05
2.59833e-05
2.34658e-05
2.41225e-05
2.57966e-05
2.27372e-05
2.79119e-05
2.14985e-05
2.98091e-05
2.02308e-05
3.14808e-05
1.89613e-05
3.28474e-05
1.77734e-05
3.39245e-05
1.65675e-05
3.47994e-05
1.53257e-05
3.54759e-05
1.42847e-05
3.59847e-05
1.33013e-05
3.63993e-05
1.22755e-05
3.66897e-05
1.13904e-05
3.68335e-05
1.05879e-05
3.68836e-05
9.78468e-06
3.68326e-05
9.11929e-06
8.57933e-06
3.66833e-05
1.61587e-05
2.29286e-05
1.8561e-05
2.30605e-05
2.06987e-05
2.14836e-05
2.26176e-05
2.02836e-05
2.43912e-05
1.91449e-05
2.59973e-05
1.80026e-05
2.74048e-05
1.68796e-05
2.86107e-05
1.58532e-05
2.96023e-05
1.4824e-05
3.03638e-05
1.37396e-05
3.10207e-05
1.27616e-05
3.15666e-05
1.19076e-05
3.19418e-05
1.10243e-05
3.21828e-05
1.02285e-05
3.2314e-05
9.54432e-06
3.23192e-05
8.84333e-06
3.22663e-05
8.22164e-06
7.7286e-06
3.21975e-05
1.44734e-05
1.9859e-05
1.64325e-05
2.00105e-05
1.82351e-05
1.86238e-05
1.99158e-05
1.75502e-05
2.15008e-05
1.64976e-05
2.28994e-05
1.55313e-05
2.40941e-05
1.46065e-05
2.5123e-05
1.37382e-05
2.59902e-05
1.28492e-05
2.66375e-05
1.19592e-05
2.71868e-05
1.10949e-05
2.7679e-05
1.03199e-05
2.79798e-05
9.59496e-06
2.817e-05
8.91398e-06
2.8323e-05
8.29725e-06
2.83338e-05
7.72248e-06
2.82806e-05
7.19767e-06
6.74638e-06
2.8227e-05
1.27705e-05
1.66606e-05
1.47083e-05
1.66552e-05
1.64163e-05
1.55448e-05
1.79259e-05
1.46903e-05
1.92597e-05
1.38278e-05
2.04515e-05
1.30252e-05
2.15156e-05
1.22385e-05
2.24325e-05
1.15069e-05
2.3184e-05
1.07846e-05
2.37804e-05
1.00904e-05
2.426e-05
9.38002e-06
2.46223e-05
8.70868e-06
2.48576e-05
8.10777e-06
2.50146e-05
7.54717e-06
2.50982e-05
7.02294e-06
2.51188e-05
6.53034e-06
2.51025e-05
6.0992e-06
5.72658e-06
2.50389e-05
1.14857e-05
1.34508e-05
1.31364e-05
1.3435e-05
1.46294e-05
1.25334e-05
1.59681e-05
1.18716e-05
1.71219e-05
1.12293e-05
1.81275e-05
1.05989e-05
1.90004e-05
9.94819e-06
1.97725e-05
9.32057e-06
2.04327e-05
8.75141e-06
2.10192e-05
8.19431e-06
2.14889e-05
7.61716e-06
2.1797e-05
7.09785e-06
2.20011e-05
6.63751e-06
2.21509e-05
6.17315e-06
2.22244e-05
5.74448e-06
2.22487e-05
5.34934e-06
2.22416e-05
4.99599e-06
4.69779e-06
2.21886e-05
1.03376e-05
1.06005e-05
1.18605e-05
1.03097e-05
1.32061e-05
9.64311e-06
1.43745e-05
9.19815e-06
1.53794e-05
8.74973e-06
1.62588e-05
8.27498e-06
1.70013e-05
7.78417e-06
1.76532e-05
7.27201e-06
1.8242e-05
6.80835e-06
1.87679e-05
6.3541e-06
1.91435e-05
5.94162e-06
1.94075e-05
5.55902e-06
1.96066e-05
5.21276e-06
1.97278e-05
4.85958e-06
1.97929e-05
4.52356e-06
1.98043e-05
4.23017e-06
1.97658e-05
3.95709e-06
3.70674e-06
1.97187e-05
9.42766e-06
7.8494e-06
1.07608e-05
7.41897e-06
1.19259e-05
6.97594e-06
1.29706e-05
6.69179e-06
1.38809e-05
6.41019e-06
1.46596e-05
6.09878e-06
1.53194e-05
5.76039e-06
1.58734e-05
5.38543e-06
1.63332e-05
5.04709e-06
1.67065e-05
4.71405e-06
1.69824e-05
4.43252e-06
1.71697e-05
4.17111e-06
1.73217e-05
3.89908e-06
1.74218e-05
3.63701e-06
1.74724e-05
3.38644e-06
1.74865e-05
3.16815e-06
1.7463e-05
2.97036e-06
2.77871e-06
1.74168e-05
8.30893e-06
5.2552e-06
9.56617e-06
4.69806e-06
1.06478e-05
4.48175e-06
1.15902e-05
4.37555e-06
1.23829e-05
4.27772e-06
1.30359e-05
4.13805e-06
1.35715e-05
3.94754e-06
1.39928e-05
3.71801e-06
1.43181e-05
3.50938e-06
1.45471e-05
3.3069e-06
1.47143e-05
3.12077e-06
1.48293e-05
2.94602e-06
1.48985e-05
2.7555e-06
1.49297e-05
2.56653e-06
1.49114e-05
2.4008e-06
1.48633e-05
2.24877e-06
1.47936e-05
2.10796e-06
1.9713e-06
1.47046e-05
7.44506e-06
2.72824e-06
8.51796e-06
2.27835e-06
9.34473e-06
2.35335e-06
9.98424e-06
2.47057e-06
1.04841e-05
2.54377e-06
1.08706e-05
2.54806e-06
1.11677e-05
2.47762e-06
1.13903e-05
2.35341e-06
1.15413e-05
2.24703e-06
1.1649e-05
2.11876e-06
1.17189e-05
2.00114e-06
1.17578e-05
1.88914e-06
1.17568e-05
1.77072e-06
1.17176e-05
1.65254e-06
1.16576e-05
1.54061e-06
1.15691e-05
1.45009e-06
1.14704e-05
1.35224e-06
1.25774e-06
1.13623e-05
6.66615e-06
5.33914e-07
7.13686e-06
5.84855e-07
7.36112e-06
9.46682e-07
7.51696e-06
1.16464e-06
7.66493e-06
1.274e-06
7.81658e-06
1.30221e-06
7.96716e-06
1.26034e-06
8.08692e-06
1.19435e-06
8.1917e-06
1.13016e-06
8.26887e-06
1.05685e-06
8.32864e-06
9.84702e-07
8.36632e-06
9.23803e-07
8.37485e-06
8.64133e-07
8.3546e-06
8.05312e-07
8.31144e-06
7.47272e-07
8.25407e-06
7.0235e-07
8.18581e-06
6.45786e-07
6.02638e-07
8.09829e-06
4.50372e-06
3.99009e-06
3.86965e-06
3.99626e-06
4.25936e-06
4.57662e-06
4.87764e-06
5.13816e-06
5.36028e-06
5.53543e-06
5.66552e-06
5.76246e-06
5.828e-06
5.86345e-06
5.86976e-06
5.85989e-06
5.82193e-06
5.7713e-06
-3.96788e-07
-1.45316e-06
-8.84947e-07
-1.42147e-06
-1.33303e-06
-1.4791e-06
-1.68079e-06
-1.59122e-06
-1.93455e-06
-1.69256e-06
-2.10598e-06
-1.78028e-06
-2.21763e-06
-1.84249e-06
-2.2911e-06
-1.88148e-06
-2.35404e-06
-1.89036e-06
-2.41406e-06
-1.88999e-06
-2.46976e-06
-1.88981e-06
-2.52361e-06
-1.88603e-06
-2.57687e-06
-1.8804e-06
-2.63432e-06
-1.86913e-06
-2.71273e-06
-1.83988e-06
-2.78706e-06
-1.83566e-06
-2.88245e-06
-1.80451e-06
-3.0436e-06
-1.72592e-06
-3.15668e-06
-1.76393e-06
-3.29917e-06
-1.72134e-06
-3.62043e-06
-1.52236e-06
-3.9206e-06
-1.52795e-06
-4.20269e-06
-1.52632e-06
-4.6398e-06
-1.34513e-06
-5.05977e-06
-1.34506e-06
-5.50379e-06
-1.29613e-06
-6.105e-06
-1.11174e-06
-6.74562e-06
-1.06e-06
-7.52088e-06
-8.98463e-07
-8.52171e-06
-6.40931e-07
-9.65952e-06
-4.33829e-07
-1.08952e-05
-1.97397e-07
-1.22605e-05
-2.64801e-08
-1.35755e-05
-1.57319e-07
-1.46059e-05
-4.59804e-07
-1.5531e-05
-5.01872e-07
-1.64371e-05
-4.55178e-07
-1.70932e-05
-6.47564e-07
-1.75446e-05
-7.95776e-07
-1.79191e-05
-8.06615e-07
-1.81134e-05
-9.03822e-07
-1.80566e-05
-1.05842e-06
-1.78404e-05
-1.11139e-06
-1.76653e-05
-9.5711e-07
-1.77116e-05
-6.22672e-07
-1.8114e-05
-1.71301e-07
-1.88482e-05
2.28392e-07
-1.96226e-05
3.38592e-07
-2.02425e-05
2.79845e-07
-2.06986e-05
2.14087e-07
-2.1089e-05
2.39104e-07
-2.13957e-05
2.40524e-07
-2.15802e-05
1.9232e-07
-2.16729e-05
1.69135e-07
-2.18043e-05
3.00879e-07
-2.19661e-05
4.62808e-07
-2.21428e-05
6.17454e-07
-2.24167e-05
8.3621e-07
-2.27413e-05
9.96604e-07
-2.31677e-05
1.20855e-06
-2.36291e-05
1.35834e-06
-2.41094e-05
1.50319e-06
-2.45867e-05
1.63575e-06
-2.50201e-05
1.73374e-06
-2.54008e-05
1.82664e-06
-2.57295e-05
1.92097e-06
-2.60104e-05
2.02115e-06
-2.62787e-05
2.15663e-06
-2.65526e-05
2.30768e-06
-2.68287e-05
2.45564e-06
-2.7143e-05
2.63851e-06
-2.74968e-05
2.82562e-06
-2.78979e-05
3.02567e-06
-2.83448e-05
3.21848e-06
-2.88223e-05
3.37755e-06
-2.9369e-05
3.55602e-06
-2.99789e-05
3.72974e-06
-3.06216e-05
3.89336e-06
-3.11864e-05
3.97501e-06
-3.15952e-05
3.9858e-06
-3.18059e-05
3.93538e-06
-3.17663e-05
3.80365e-06
-3.14657e-05
3.63605e-06
-3.08828e-05
3.4272e-06
-3.00112e-05
3.19326e-06
-2.88533e-05
2.94838e-06
-2.75065e-05
2.79532e-06
-2.59979e-05
2.67072e-06
-2.4368e-05
2.58838e-06
-2.26329e-05
2.52942e-06
-2.08303e-05
2.51783e-06
-1.90506e-05
2.61053e-06
-1.73242e-05
2.74067e-06
-1.5733e-05
2.94214e-06
-1.42544e-05
3.09473e-06
-1.27325e-05
3.08271e-06
-1.14134e-05
3.34639e-06
-1.01291e-05
3.43451e-06
-9.01736e-06
3.64299e-06
-7.96854e-06
3.74645e-06
-6.97232e-06
3.84206e-06
-5.94074e-06
3.84094e-06
-4.99275e-06
3.98662e-06
-4.04727e-06
4.05873e-06
-2.73975e-06
3.72005e-06
-1.52955e-06
3.84373e-06
-9.4078e-07
4.56034e-06
-7.73999e-07
5.07441e-06
-8.82868e-07
5.39051e-06
-1.10431e-06
5.58662e-06
-1.25232e-06
5.62045e-06
-1.2439e-06
5.54843e-06
-1.31427e-06
5.74099e-06
-1.38007e-06
5.93185e-06
-1.45611e-06
6.10339e-06
-1.67262e-06
6.38296e-06
-1.08382e-06
5.71109e-06
7.51363e-07
4.4951e-06
1.51838e-06
5.54666e-06
1.19904e-06
6.67786e-06
1.14829e-06
6.52169e-06
1.48252e-06
6.03582e-06
1.2059e-06
6.49006e-06
-5.19396e-07
7.94233e-06
-3.47032e-06
9.24703e-06
-6.04254e-06
8.85665e-06
-6.56311e-06
6.80762e-06
-5.3377e-06
5.10804e-06
-4.15734e-06
5.24038e-06
-4.27274e-06
6.67878e-06
-5.80935e-06
8.19717e-06
-7.49999e-06
8.32385e-06
-9.27859e-06
8.40456e-06
-1.11685e-05
8.32919e-06
-1.21923e-05
7.23564e-06
-1.27523e-05
6.77841e-06
-1.25986e-05
6.16693e-06
-1.39968e-05
7.58108e-06
-1.47013e-05
6.85905e-06
-1.36799e-05
5.17183e-06
-1.44553e-05
6.86727e-06
-1.21814e-05
3.83295e-06
-1.32039e-05
7.03762e-06
-1.27471e-05
5.6433e-06
-1.28276e-05
6.24498e-06
-1.26731e-05
6.09691e-06
-1.28735e-05
6.45521e-06
-1.25134e-05
5.97265e-06
-1.10121e-05
4.95273e-06
-1.00119e-05
5.53767e-06
-8.87876e-06
5.42847e-06
-8.37874e-06
6.11696e-06
-7.61468e-06
5.96062e-06
-5.986e-06
5.24691e-06
-4.88119e-06
5.98637e-06
-4.54573e-06
7.00628e-06
-4.78847e-06
7.83823e-06
-5.01674e-06
8.11598e-06
-4.82376e-06
7.97275e-06
-4.10022e-06
7.78454e-06
-3.18331e-06
7.95709e-06
-1.75371e-06
7.69675e-06
-1.61137e-07
7.80672e-06
7.96829e-07
8.59734e-06
1.66428e-06
8.87259e-06
3.04122e-06
8.27048e-06
4.19857e-06
8.46361e-06
5.43203e-06
8.29421e-06
7.66404e-06
7.05237e-06
1.00815e-05
6.86422e-06
1.13652e-05
7.617e-06
1.27483e-05
7.27744e-06
1.39384e-05
7.46545e-06
1.48111e-05
8.23737e-06
1.58278e-05
8.32398e-06
1.69441e-05
7.96259e-06
1.75245e-05
8.49005e-06
1.72868e-05
9.41343e-06
1.67923e-05
9.85529e-06
9.26746e-06
1.66114e-05
-1.77421e-07
-3.05042e-06
-4.40044e-07
-2.99532e-06
-8.00518e-07
-3.00254e-06
-1.12945e-06
-3.16476e-06
-1.32076e-06
-3.40773e-06
-1.33619e-06
-3.67023e-06
-1.23045e-06
-3.85401e-06
-1.04707e-06
-3.97145e-06
-8.30106e-07
-4.01533e-06
-5.96568e-07
-4.03216e-06
-3.50929e-07
-4.04478e-06
-1.28715e-07
-4.01482e-06
7.60415e-08
-3.98643e-06
2.71615e-07
-3.9653e-06
3.95458e-07
-3.85517e-06
4.70962e-07
-3.79372e-06
5.25325e-07
-3.7407e-06
4.47419e-07
-3.50737e-06
3.18528e-07
-3.47827e-06
1.86938e-07
-3.4306e-06
-9.25877e-08
-3.05451e-06
-4.11628e-07
-3.00607e-06
-8.58221e-07
-2.86224e-06
-1.41005e-06
-2.54249e-06
-1.98601e-06
-2.50422e-06
-2.6869e-06
-2.30115e-06
-3.36061e-06
-2.10899e-06
-4.03107e-06
-2.03834e-06
-4.7845e-06
-1.74854e-06
-5.44682e-06
-1.55493e-06
-6.10641e-06
-1.37645e-06
-6.91485e-06
-9.76679e-07
-7.77919e-06
-6.7369e-07
-8.72326e-06
-6.81575e-07
-1.01451e-05
-4.7896e-07
-1.1857e-05
-1.40161e-07
-1.31974e-05
-3.79822e-07
-1.41268e-05
-1.00359e-06
-1.49718e-05
-1.27031e-06
-1.58059e-05
-1.23283e-06
-1.63174e-05
-1.54645e-06
-1.6241e-05
-2.17058e-06
-1.57948e-05
-2.47584e-06
-1.54313e-05
-2.17542e-06
-1.53067e-05
-1.55957e-06
-1.53432e-05
-7.93269e-07
-1.55145e-05
-5.61671e-08
-1.59247e-05
3.29512e-07
-1.65361e-05
3.82172e-07
-1.71519e-05
3.74064e-07
-1.76231e-05
5.75205e-07
-1.79983e-05
8.9304e-07
-1.86432e-05
1.25849e-06
-1.97817e-05
1.52717e-06
-2.12672e-05
1.84804e-06
-2.27571e-05
2.18807e-06
-2.41182e-05
2.50484e-06
-2.5355e-05
2.7261e-06
-2.65479e-05
2.87594e-06
-2.76331e-05
3.04915e-06
-2.86343e-05
3.19196e-06
-2.9553e-05
3.33259e-06
-3.03804e-05
3.48199e-06
-3.11399e-05
3.65809e-06
-3.18311e-05
3.85811e-06
-3.24569e-05
4.07892e-06
-3.30616e-05
4.35545e-06
-3.36438e-05
4.66617e-06
-3.42033e-05
4.98478e-06
-3.47872e-05
5.31406e-06
-3.54353e-05
5.66629e-06
-3.61456e-05
6.02027e-06
-3.6853e-05
6.39943e-06
-3.7453e-05
6.75865e-06
-3.79355e-05
7.09875e-06
-3.82619e-05
7.34785e-06
-3.84708e-05
7.53276e-06
-3.85232e-05
7.61354e-06
-3.84163e-05
7.59865e-06
-3.80877e-05
7.4411e-06
-3.7567e-05
7.24752e-06
-3.68087e-05
6.92453e-06
-3.5794e-05
6.52847e-06
-3.45369e-05
6.08828e-06
-3.30202e-05
5.60818e-06
-3.13833e-05
5.27363e-06
-2.95892e-05
5.00386e-06
-2.77385e-05
4.87275e-06
-2.5803e-05
4.75615e-06
-2.38286e-05
4.72263e-06
-2.18441e-05
4.77471e-06
-1.99587e-05
5.05601e-06
-1.81648e-05
5.39203e-06
-1.64515e-05
5.78376e-06
-1.48312e-05
6.07688e-06
-1.32533e-05
6.10386e-06
-1.16552e-05
6.3834e-06
-1.01869e-05
6.63993e-06
-8.91904e-06
7.05282e-06
-7.72152e-06
7.27909e-06
-6.62905e-06
7.5231e-06
-5.6137e-06
7.61293e-06
-4.71878e-06
7.91792e-06
-3.82049e-06
8.04704e-06
-2.53871e-06
7.32231e-06
-1.02495e-06
7.17361e-06
2.83062e-07
8.24576e-06
1.0265e-06
9.53527e-06
1.52481e-06
1.01938e-05
1.99229e-06
1.05915e-05
2.21013e-06
1.1058e-05
1.98166e-06
1.14146e-05
1.26587e-06
1.21473e-05
6.2207e-07
1.25973e-05
3.70214e-07
1.2837e-05
1.34536e-07
1.34459e-05
5.54633e-07
1.20929e-05
2.12639e-06
9.47525e-06
3.38634e-06
1.08408e-05
4.19778e-06
1.27168e-05
4.29276e-06
1.32216e-05
2.46821e-06
1.42418e-05
-1.08581e-06
1.63579e-05
-5.2268e-06
1.85833e-05
-8.41819e-06
1.89399e-05
-9.7455e-06
1.64037e-05
-9.05584e-06
1.22594e-05
-8.3158e-06
1.06462e-05
-7.82582e-06
1.12404e-05
-7.56365e-06
1.32576e-05
-8.09564e-06
1.57893e-05
-9.05478e-06
1.63642e-05
-1.01709e-05
1.66628e-05
-1.22561e-05
1.7366e-05
-1.39579e-05
1.54597e-05
-1.45079e-05
1.38602e-05
-1.43944e-05
1.27107e-05
-1.60262e-05
1.56983e-05
-1.65453e-05
1.38491e-05
-1.4767e-05
9.93663e-06
-1.40005e-05
1.25235e-05
-1.19899e-05
8.0016e-06
-1.30231e-05
1.43584e-05
-1.25133e-05
1.09188e-05
-1.20099e-05
1.19967e-05
-1.17722e-05
1.22587e-05
-1.21528e-05
1.33605e-05
-1.11137e-05
1.10857e-05
-8.91998e-06
9.03834e-06
-7.10418e-06
1.04412e-05
-6.11913e-06
1.13885e-05
-5.86473e-06
1.27659e-05
-5.13794e-06
1.1977e-05
-2.95645e-06
9.71311e-06
-2.5744e-07
1.01721e-05
2.12469e-06
1.19354e-05
2.48293e-06
1.52318e-05
2.05081e-06
1.68036e-05
1.73375e-06
1.68416e-05
1.64405e-06
1.67126e-05
2.26337e-06
1.68042e-05
3.86819e-06
1.56637e-05
5.52878e-06
1.59948e-05
6.19071e-06
1.83454e-05
6.93584e-06
1.92158e-05
7.56254e-06
1.84564e-05
8.1667e-06
1.91459e-05
8.59723e-06
1.9242e-05
1.05861e-05
1.63204e-05
1.31086e-05
1.54258e-05
1.40039e-05
1.69686e-05
1.38627e-05
1.67852e-05
1.36943e-05
1.72558e-05
1.44847e-05
1.81596e-05
1.55019e-05
1.74953e-05
1.51659e-05
1.75183e-05
1.36283e-05
1.95204e-05
1.20873e-05
2.1186e-05
1.14387e-05
2.10995e-05
1.93198e-05
1.13626e-05
-1.49996e-07
-4.57185e-06
-5.13923e-08
-4.7689e-06
-1.07282e-07
-4.66767e-06
-2.2767e-07
-4.79029e-06
-2.55633e-07
-5.12762e-06
-1.53398e-07
-5.51527e-06
1.1534e-07
-5.86291e-06
5.20714e-07
-6.11709e-06
9.80346e-07
-6.22142e-06
1.47126e-06
-6.27748e-06
1.99302e-06
-6.33036e-06
2.49706e-06
-6.29611e-06
2.97244e-06
-6.23357e-06
3.45216e-06
-6.22606e-06
3.84297e-06
-6.04592e-06
4.17333e-06
-5.90983e-06
4.43901e-06
-5.80701e-06
4.59862e-06
-5.47159e-06
4.69161e-06
-5.34862e-06
4.59167e-06
-5.10359e-06
4.47343e-06
-4.71008e-06
4.28754e-06
-4.57365e-06
3.82258e-06
-4.12473e-06
3.29152e-06
-3.73684e-06
2.52813e-06
-3.43343e-06
1.56016e-06
-2.99401e-06
5.20821e-07
-2.71117e-06
-7.26661e-07
-2.38521e-06
-1.85369e-06
-2.1955e-06
-3.10188e-06
-1.85965e-06
-4.29196e-06
-1.66432e-06
-5.05199e-06
-1.63328e-06
-5.9373e-06
-1.26786e-06
-7.09787e-06
-1.03625e-06
-8.07853e-06
-8.77091e-07
-8.69982e-06
-7.90356e-07
-9.43361e-06
-9.505e-07
-1.05032e-05
-1.24401e-06
-1.14274e-05
-1.51691e-06
-1.22932e-05
-1.38178e-06
-1.32089e-05
-1.63947e-06
-1.37284e-05
-2.64826e-06
-1.37521e-05
-3.2696e-06
-1.37515e-05
-2.85021e-06
-1.41204e-05
-1.874e-06
-1.47643e-05
-8.81277e-07
-1.54346e-05
-6.89082e-08
-1.62506e-05
6.3609e-07
-1.73587e-05
1.15871e-06
-1.87761e-05
1.59018e-06
-2.04112e-05
2.10637e-06
-2.2172e-05
2.65463e-06
-2.39917e-05
3.20586e-06
-2.58287e-05
3.54946e-06
-2.75071e-05
3.70543e-06
-2.89248e-05
3.79858e-06
-3.01084e-05
3.92932e-06
-3.11247e-05
4.05681e-06
-3.20608e-05
4.23531e-06
-3.28695e-05
4.40843e-06
-3.36468e-05
4.64677e-06
-3.44004e-05
4.91269e-06
-3.51145e-05
5.18814e-06
-3.57591e-05
5.47175e-06
-3.63129e-05
5.76663e-06
-3.68299e-05
6.11424e-06
-3.73357e-05
6.49292e-06
-3.78425e-05
6.86089e-06
-3.83811e-05
7.25454e-06
-3.89402e-05
7.71605e-06
-3.94265e-05
8.22287e-06
-3.98095e-05
8.79884e-06
-4.00125e-05
9.34749e-06
-4.00277e-05
9.81383e-06
-3.9866e-05
1.01817e-05
-3.96129e-05
1.0446e-05
-3.92657e-05
1.05579e-05
-3.88832e-05
1.05742e-05
-3.8431e-05
1.04733e-05
-3.78624e-05
1.02528e-05
-3.70705e-05
9.94082e-06
-3.6077e-05
9.5251e-06
-3.48639e-05
9.00253e-06
-3.34372e-05
8.43839e-06
-3.18462e-05
7.87911e-06
-3.00529e-05
7.43441e-06
-2.81574e-05
7.14255e-06
-2.61661e-05
6.98522e-06
-2.4105e-05
6.8575e-06
-2.20591e-05
6.8884e-06
-2.01015e-05
7.06494e-06
-1.8273e-05
7.49082e-06
-1.64793e-05
7.8982e-06
-1.47774e-05
8.45938e-06
-1.32308e-05
8.99867e-06
-1.18124e-05
9.16131e-06
-1.03465e-05
9.36028e-06
-9.00895e-06
9.80383e-06
-7.73907e-06
1.03683e-05
-6.53608e-06
1.07098e-05
-5.40108e-06
1.10661e-05
-4.49519e-06
1.1415e-05
-3.91006e-06
1.20668e-05
-3.37293e-06
1.22187e-05
-2.66017e-06
1.13025e-05
-1.60633e-06
1.08148e-05
-4.84525e-07
1.18598e-05
4.14089e-07
1.36647e-05
1.14555e-06
1.47317e-05
1.92943e-06
1.51032e-05
2.81956e-06
1.55929e-05
3.50228e-06
1.6181e-05
3.56129e-06
1.74004e-05
3.17112e-06
1.83466e-05
2.55494e-06
1.9352e-05
1.83132e-06
2.06373e-05
1.85718e-06
1.86026e-05
2.73348e-06
1.49003e-05
4.11362e-06
1.57199e-05
4.48795e-06
1.85678e-05
2.5717e-06
2.10759e-05
-1.05359e-06
2.38265e-05
-5.13935e-06
2.67208e-05
-8.45789e-06
2.82459e-05
-1.0304e-05
2.68428e-05
-1.09318e-05
2.29401e-05
-1.13841e-05
1.87484e-05
-1.21343e-05
1.74307e-05
-1.18108e-05
1.7068e-05
-1.12184e-05
1.92686e-05
-1.11293e-05
2.25628e-05
-1.18825e-05
2.39095e-05
-1.24631e-05
2.42368e-05
-1.34118e-05
2.54545e-05
-1.47221e-05
2.3327e-05
-1.50862e-05
2.04622e-05
-1.47423e-05
1.8447e-05
-1.6302e-05
2.37349e-05
-1.62998e-05
1.99344e-05
-1.45443e-05
1.41547e-05
-1.24409e-05
1.69711e-05
-1.14322e-05
1.21453e-05
-1.15851e-05
2.13343e-05
-1.0471e-05
1.49009e-05
-9.36144e-06
1.61824e-05
-8.71172e-06
1.74391e-05
-1.00753e-05
2.1571e-05
-9.72303e-06
1.67508e-05
-7.5432e-06
1.20793e-05
-4.66624e-06
1.30217e-05
-2.7354e-06
1.57939e-05
-3.27213e-06
2.04334e-05
-3.74564e-06
1.97111e-05
-2.56513e-06
1.52205e-05
-1.66784e-07
1.4264e-05
3.19571e-06
1.52307e-05
5.19238e-06
2.04429e-05
5.80075e-06
2.42946e-05
6.21296e-06
2.50347e-05
6.03888e-06
2.56285e-05
6.28143e-06
2.58932e-05
7.8402e-06
2.32625e-05
9.65049e-06
2.29625e-05
1.05075e-05
2.6989e-05
1.1193e-05
2.92271e-05
1.14166e-05
2.8711e-05
1.18063e-05
3.03839e-05
1.20462e-05
3.07977e-05
1.41554e-05
2.67487e-05
1.51282e-05
2.51224e-05
1.48284e-05
2.72126e-05
1.38468e-05
2.722e-05
1.36903e-05
2.80901e-05
1.46117e-05
2.86458e-05
1.41976e-05
2.74337e-05
1.25391e-05
2.84207e-05
1.02518e-05
3.21586e-05
8.85794e-06
3.40322e-05
9.02181e-06
3.17903e-05
2.97529e-05
8.82181e-06
-4.37909e-07
-5.70307e-06
-5.51455e-07
-6.20169e-06
-4.94657e-07
-6.26328e-06
-2.718e-07
-6.54149e-06
1.33271e-07
-7.05587e-06
6.46159e-07
-7.55173e-06
1.19664e-06
-7.94502e-06
1.77434e-06
-8.23245e-06
2.35474e-06
-8.34648e-06
2.92389e-06
-8.402e-06
3.49068e-06
-8.45378e-06
4.05451e-06
-8.43434e-06
4.5487e-06
-8.3157e-06
5.03355e-06
-8.28473e-06
5.54023e-06
-8.16633e-06
5.90265e-06
-7.8888e-06
6.16244e-06
-7.68255e-06
6.371e-06
-7.33065e-06
6.47147e-06
-7.08262e-06
6.47258e-06
-6.73712e-06
6.50744e-06
-6.36457e-06
6.36875e-06
-6.04698e-06
6.18423e-06
-5.54256e-06
5.9746e-06
-5.10408e-06
5.46549e-06
-4.51113e-06
4.89463e-06
-3.97595e-06
4.09304e-06
-3.4469e-06
2.93393e-06
-2.7533e-06
1.67246e-06
-2.4137e-06
2.85512e-07
-1.93103e-06
-1.31342e-06
-1.50052e-06
-2.97469e-06
-1.40031e-06
-4.27e-06
-1.32189e-06
-5.47488e-06
-1.0952e-06
-6.67887e-06
-9.77121e-07
-7.60927e-06
-1.1945e-06
-8.65336e-06
-1.19089e-06
-9.87068e-06
-1.22842e-06
-1.09586e-05
-1.50824e-06
-1.14518e-05
-1.89554e-06
-1.16433e-05
-2.46089e-06
-1.23104e-05
-2.87481e-06
-1.33838e-05
-2.92397e-06
-1.46504e-05
-2.28744e-06
-1.60103e-05
-1.18688e-06
-1.74312e-05
-5.39439e-08
-1.89522e-05
9.16075e-07
-2.04691e-05
1.71112e-06
-2.20607e-05
2.46681e-06
-2.37789e-05
3.14162e-06
-2.55186e-05
3.75491e-06
-2.70839e-05
4.19677e-06
-2.83809e-05
4.51721e-06
-2.94934e-05
4.69806e-06
-3.05763e-05
4.8711e-06
-3.16828e-05
5.05869e-06
-3.27128e-05
5.20107e-06
-3.36636e-05
5.36627e-06
-3.44825e-05
5.53522e-06
-3.52062e-05
5.71955e-06
-3.58273e-05
5.96031e-06
-3.63827e-05
6.26015e-06
-3.68758e-05
6.56892e-06
-3.7313e-05
6.93184e-06
-3.77124e-05
7.36637e-06
-3.80379e-05
7.80843e-06
-3.83097e-05
8.25125e-06
-3.86046e-05
8.71043e-06
-3.89676e-05
9.2388e-06
-3.93176e-05
9.80056e-06
-3.95759e-05
1.03864e-05
-3.9651e-05
1.10011e-05
-3.95411e-05
1.16145e-05
-3.93014e-05
1.2178e-05
-3.89965e-05
1.26521e-05
-3.8656e-05
1.29997e-05
-3.82974e-05
1.31723e-05
-3.79298e-05
1.32354e-05
-3.75322e-05
1.31783e-05
-3.70048e-05
1.29623e-05
-3.62793e-05
1.26134e-05
-3.53032e-05
1.20805e-05
-3.40926e-05
1.14303e-05
-3.26093e-05
1.06853e-05
-3.0958e-05
1.00265e-05
-2.91126e-05
9.4519e-06
-2.7138e-05
9.09471e-06
-2.50291e-05
8.86078e-06
-2.28939e-05
8.76267e-06
-2.07448e-05
8.82848e-06
-1.87658e-05
9.21526e-06
-1.6927e-05
9.81762e-06
-1.51715e-05
1.0351e-05
-1.34758e-05
1.10004e-05
-1.18811e-05
1.17531e-05
-1.04513e-05
1.21329e-05
-9.0498e-06
1.23174e-05
-7.76821e-06
1.28793e-05
-6.42302e-06
1.33557e-05
-5.26715e-06
1.39382e-05
-4.13417e-06
1.43757e-05
-3.07312e-06
1.48457e-05
-2.41267e-06
1.60213e-05
-1.96351e-06
1.65962e-05
-1.65121e-06
1.58523e-05
-1.29986e-06
1.52903e-05
-7.74901e-07
1.61157e-05
-1.00649e-07
1.78054e-05
5.84548e-07
1.90349e-05
1.29189e-06
1.9478e-05
2.14383e-06
1.99847e-05
3.15966e-06
2.07093e-05
4.24524e-06
2.18259e-05
4.74895e-06
2.30041e-05
4.20744e-06
2.51529e-05
3.49957e-06
2.73628e-05
3.23331e-06
2.52734e-05
3.19439e-06
2.11932e-05
3.3279e-06
2.1692e-05
2.0629e-06
2.56756e-05
-8.21161e-07
2.97901e-05
-4.34849e-06
3.35591e-05
-7.42892e-06
3.62958e-05
-9.37601e-06
3.6529e-05