/*--------------------------------*- C++ -*----------------------------------*\
| =========                 |                                                 |
| \\      /  F ield         | OpenFOAM: The Open Source CFD Toolbox           |
|  \\    /   O peration     | Version:  dev                                   |
|   \\  /    A nd           | Web:      http://www.openfoam.org               |
|    \\/     M anipulation  |                                                 |
\*---------------------------------------------------------------------------*/
FoamFile
{
    version     2.0;
    format      ascii;
    class       volScalarField;
    object      pMean;
    location    "9.143";
}
// * * * * * * * * * * * * * * * * * * * * * * * * * * * * * * * * * * * * * //

dimensions      [1 -1 -2 0 0 0 0];

internalField   nonuniform List<scalar> 
12225
(
98311.8
98292
98278.3
98271.3
98257
98247.6
98229.1
98219.5
98198
98189.3
98164.6
98157.7
98126.7
98120.4
98079.6
98039.9
97950.7
97584.6
98307.3
98290.9
98277.7
98270.8
98256.4
98247
98228.4
98219
98197.3
98188.9
98163.9
98157.2
98126.4
98118.5
98077.9
98043.9
97951.6
97790.4
98303.6
98289.4
98276.7
98269.4
98255
98245.5
98226.9
98217.6
98195.9
98187.4
98163
98155.1
98126.9
98115.1
98080.2
98044.9
97977.4
97888.6
98298.5
98286.5
98274.6
98266.9
98252.6
98242.8
98224.8
98215
98194.1
98184.7
98161.7
98152
98125.8
98112.9
98081.1
98053.3
98004.8
97935.9
98291.8
98282.1
98271
98262.9
98249
98238.7
98221.8
98210.8
98191.7
98180.4
98160.2
98147.5
98126
98109.7
98083
98058.8
98018.9
97986.2
98283.6
98275.9
98265.1
98256.9
98243.4
98232.8
98216.7
98205.1
98187.3
98175.1
98156.9
98143.3
98124.9
98108
98086.6
98061.3
98039.1
98018.7
98273.3
98267
98256.6
98248.1
98235.5
98224.4
98209.6
98197
98181.3
98167.7
98152.3
98137.3
98122.7
98105.1
98090.8
98069.8
98059.5
98044.5
98262.6
98256.9
98247.2
98238.5
98226.8
98215.3
98201.7
98188.5
98174.5
98160.2
98147
98131.4
98119.9
98102.5
98093.8
98076
98074.2
98059.3
98251.7
98246.3
98237.5
98228.6
98217.7
98205.9
98193.4
98179.9
98167.3
98152.7
98141.2
98125.7
98116
98100
98093.7
98079.5
98079.2
98067.3
98238.1
98232.7
98225
98215.9
98206
98194.2
98182.7
98169.2
98157.9
98143.3
98133.4
98118.5
98110.3
98095.9
98090.9
98079.1
98078.3
98070
98221.2
98215.7
98209.2
98200.4
98191.2
98179.8
98169
98156
98145.5
98131.9
98122.5
98109.4
98101.4
98089.8
98084.2
98075.6
98073
98067.8
98200.6
98194.9
98189.7
98181.2
98172.9
98161.8
98151.9
98139.6
98130
98117.5
98108.8
98097.3
98089.7
98080.5
98074.7
98068.3
98064.7
98061.1
98175.8
98170.5
98166
98158.5
98150.5
98140.5
98131.1
98120.3
98111
98100.3
98091.9
98082.6
98075.3
98068.1
98062.7
98057.8
98054.2
98051.5
98147.6
98142.8
98138.8
98132.3
98125
98116.1
98107.5
98097.9
98089.4
98080.4
98072.7
98065.1
98058.7
98053
98048.3
98044.5
98041.5
98039.4
98117.5
98113.7
98109.9
98104.5
98098
98090.4
98082.6
98074.5
98066.9
98059.5
98052.7
98046.6
98041.3
98036.8
98033
98030.1
98027.9
98026.4
98089.8
98087
98083.6
98079.1
98073.5
98067
98060.2
98053.3
98046.7
98040.5
98034.9
98030
98025.7
98022.1
98019.2
98017.1
98015.5
98014.6
98071.2
98069.2
98066.4
98062.5
98057.6
98051.9
98045.9
98040
98034.3
98029.1
98024.3
98020.1
98016.6
98013.6
98011.3
98009.6
98008.5
98007.9
98071.4
98069.7
98067.2
98063.4
98058.7
98053.4
98047.8
98042.2
98036.9
98031.9
98027.4
98023.5
98020.1
98017.3
98015.1
98013.4
98012.2
98011.5
98091.1
98089.3
98086.4
98082.5
98077.5
98072
98066.2
98060.4
98054.8
98049.6
98044.8
98040.5
98036.8
98033.6
98030.9
98028.7
98027.1
98025.8
98121.9
98119.7
98116.3
98111.8
98106.4
98100.3
98094
98087.7
98081.5
98075.7
98070.3
98065.3
98060.9
98057.1
98053.7
98050.9
98048.5
98046.5
98156.7
98154.1
98150.1
98144.9
98138.8
98132.1
98125.2
98118.2
98111.4
98104.8
98098.7
98093
98087.9
98083.2
98079.1
98075.5
98072.4
98069.7
98190.6
98187.5
98182.7
98176.9
98170.2
98162.9
98155.4
98147.8
98140.3
98133.1
98126.3
98119.9
98114
98108.7
98103.9
98099.5
98095.7
98092.3
98220.8
98217.2
98211.7
98205.1
98197.9
98190.1
98182.1
98174
98166
98158.2
98150.8
98143.8
98137.3
98131.3
98125.9
98120.9
98116.4
98112.4
98246.2
98241.8
98235.5
98228.4
98220.7
98212.6
98204.2
98195.7
98187.2
98179
98171.1
98163.6
98156.6
98150.2
98144.2
98138.7
98133.7
98129.2
98266.4
98261.2
98254.1
98246.4
98238.4
98230
98221.4
98212.6
98203.8
98195.2
98187
98179.2
98171.8
98164.9
98158.5
98152.7
98147.3
98142.4
98282.1
98275.7
98267.7
98259.5
98251.3
98242.9
98234.1
98225.1
98216.1
98207.3
98198.8
98190.7
98183
98175.8
98169.2
98163
98157.4
98152.2
98293.9
98286
98276.9
98268.4
98260.2
98251.7
98242.8
98233.7
98224.6
98215.6
98207
98198.7
98190.8
98183.5
98176.6
98170.3
98164.4
98159
98302.6
98292.8
98282.7
98274
98265.8
98257.3
98248.4
98239.3
98230.1
98221.1
98212.3
98203.9
98195.9
98188.4
98181.4
98175
98169
98163.4
98308.7
98296.6
98285.4
98276.8
98268.7
98260.4
98251.6
98242.5
98233.3
98224.2
98215.3
98206.8
98198.8
98191.2
98184.2
98177.6
98171.6
98165.9
98314.6
98299.1
98287
98278.2
98270
98261.6
98252.9
98243.8
98234.6
98225.4
98216.6
98208.1
98200
98192.4
98185.3
98178.8
98172.7
98167.1
98311.6
98311.3
98310.5
98309.3
98307.8
98306
98303.8
98301.1
98298.1
98294.7
98290.8
98286.5
98281.9
98277
98271.8
98266.3
98260.6
98254.7
98248.6
98242.3
98235.9
98229.3
98222.6
98215.8
98208.9
98201.9
98194.9
98187.8
98180.8
98173.7
98166.6
98159.5
98152.5
98145.5
98138.7
98131.9
98125.2
98118.8
98112.4
98106.3
98100.4
98094.7
98089.3
98084.1
98079.3
98074.8
98070.7
98067
98063.7
98060.9
98058.5
98056.6
98055.2
98054.3
98054.1
98054.4
98055.4
98057
98059.3
98062.2
98065.9
98070.3
98075.4
98081.2
98087.8
98095
98103
98111.6
98121
98130.9
98141.5
98152.7
98164.5
98176.8
98189.6
98202.8
98216.4
98230.4
98244.7
98259.3
98274.2
98289.2
98304.3
98319.6
98334.8
98350.1
98365.3
98380.4
98395.3
98410
98424.5
98438.6
98452.4
98465.7
98478.6
98491.1
98503
98514.3
98525.1
98535.2
98544.7
98553.6
98561.8
98569.4
98576.3
98582.6
98588.4
98593.5
98598.1
98602.2
98605.9
98609
98611.9
98614.4
98616.6
98618.4
98620.1
98621.5
98622.8
98623.9
98625
98626
98627.2
98628.5
98630.1
98632.1
98634.7
98638.2
98642.6
98648.2
98655.3
98664
98674.7
98687.6
98702.9
98721
98741.8
98765.6
98792.4
98822.2
98855.2
98891.1
98930
98971.5
99015.8
99062.4
99111.4
99162.1
99214.7
99268.9
99324.3
99380.7
99437.7
99495
99552.2
99608.8
99664.2
99717.9
99768.9
99816.7
99860.2
99898.5
99930.4
99955.5
99972.2
99979.7
99977
99963.9
99939.8
99905.2
99859.7
99804.9
99741
99670.2
99593.2
99512.7
99428.2
99343.5
99256.7
99173.6
98304.7
98304.3
98303.5
98302.4
98300.8
98299
98296.7
98294.1
98291.1
98287.7
98283.9
98279.8
98275.3
98270.5
98265.4
98260.1
98254.6
98248.8
98242.9
98236.8
98230.6
98224.2
98217.7
98211
98204.3
98197.5
98190.7
98183.7
98176.8
98169.9
98162.9
98156
98149.1
98142.3
98135.6
98129
98122.5
98116.1
98110
98103.9
98098.1
98092.6
98087.2
98082.2
98077.5
98073.1
98069
98065.4
98062.1
98059.3
98056.9
98055
98053.6
98052.7
98052.4
98052.7
98053.6
98055.2
98057.4
98060.3
98063.8
98068.1
98073.1
98078.8
98085.2
98092.3
98100.1
98108.6
98117.8
98127.6
98138
98149
98160.5
98172.6
98185.2
98198.2
98211.6
98225.4
98239.4
98253.8
98268.4
98283.1
98298
98313
98328
98343
98357.9
98372.7
98387.3
98401.8
98415.9
98429.8
98443.2
98456.3
98468.9
98481.1
98492.7
98503.8
98514.3
98524.2
98533.4
98542.1
98550.1
98557.5
98564.3
98570.4
98576
98581
98585.5
98589.5
98593
98596.1
98598.9
98601.3
98603.4
98605.3
98606.9
98608.2
98609.4
98610.4
98611.4
98612.4
98613.4
98614.6
98616.1
98617.9
98620.3
98623.5
98627.6
98632.8
98639.5
98647.8
98658
98670.4
98685.1
98702.4
98722.6
98745.6
98771.5
98800.5
98832.5
98867.4
98905.2
98945.7
98988.9
99034.3
99082.1
99131.6
99183.1
99236.1
99290.4
99345.6
99401.5
99457.8
99513.9
99569.5
99624
99676.9
99727.2
99774.4
99817.4
99855.5
99887.4
99912.5
99929.6
99937.6
99935.8
99923.8
99901
99867.8
99824
99770.9
99708.8
99639.8
99564.6
99485.8
99402.9
99319.7
99234
99149
98292
98291.6
98290.8
98289.6
98288
98286.1
98283.8
98281.1
98278.1
98274.7
98271
98266.9
98262.6
98258
98253.2
98248.1
98242.9
98237.5
98231.9
98226.2
98220.3
98214.3
98208.2
98201.9
98195.6
98189.1
98182.6
98176
98169.3
98162.7
98156
98149.4
98142.8
98136.2
98129.8
98123.4
98117.1
98111
98105
98099.3
98093.7
98088.3
98083.1
98078.2
98073.6
98069.3
98065.4
98061.8
98058.6
98055.8
98053.4
98051.5
98050.1
98049.1
98048.8
98049
98049.8
98051.2
98053.3
98056
98059.4
98063.5
98068.2
98073.7
98079.8
98086.6
98094.2
98102.4
98111.2
98120.7
98130.7
98141.4
98152.6
98164.2
98176.4
98189
98202
98215.3
98228.9
98242.8
98257
98271.3
98285.7
98300.1
98314.6
98329.1
98343.5
98357.8
98371.8
98385.7
98399.3
98412.6
98425.5
98438
98450.1
98461.7
98472.8
98483.3
98493.3
98502.7
98511.5
98519.7
98527.4
98534.4
98540.8
98546.6
98551.9
98556.7
98560.9
98564.7
98568.1
98571
98573.6
98575.9
98577.9
98579.6
98581.1
98582.3
98583.3
98584.2
98585
98585.8
98586.6
98587.4
98588.5
98589.9
98591.9
98594.5
98597.9
98602.5
98608.4
98615.7
98624.9
98636.1
98649.6
98665.6
98684.3
98705.7
98730
98757.1
98787.2
98820.1
98855.8
98894.1
98935.1
98978.2
99023.6
99070.8
99119.9
99170.6
99222.5
99275.4
99329.1
99383.2
99437.2
99490.8
99543.4
99594.5
99643.2
99689.1
99731
99768.3
99799.6
99824.7
99842.1
99850.9
99850.4
99840.3
99819.8
99789.2
99748.5
99698.8
99640.2
99575
99503.4
99428.1
99348.6
99268.6
99185.7
99101.8
98274.5
98274.2
98273.4
98272.2
98270.6
98268.6
98266.3
98263.6
98260.6
98257.3
98253.7
98249.8
98245.6
98241.3
98236.7
98232
98227.1
98222.1
98216.9
98211.7
98206.2
98200.7
98195
98189.2
98183.4
98177.4
98171.3
98165.2
98159
98152.9
98146.7
98140.5
98134.3
98128.1
98122
98116
98110.1
98104.3
98098.7
98093.1
98087.8
98082.6
98077.7
98073
98068.5
98064.4
98060.6
98057.1
98054
98051.2
98048.9
98047
98045.5
98044.5
98044
98044.1
98044.8
98046
98047.9
98050.4
98053.5
98057.3
98061.7
98066.8
98072.6
98079
98086.1
98093.9
98102.3
98111.3
98120.9
98131
98141.7
98152.8
98164.4
98176.4
98188.8
98201.5
98214.5
98227.8
98241.2
98254.8
98268.5
98282.3
98296.1
98309.8
98323.5
98337
98350.4
98363.5
98376.3
98388.8
98401
98412.8
98424.1
98434.9
98445.2
98455
98464.3
98473.1
98481.2
98488.9
98495.9
98502.4
98508.3
98513.7
98518.6
98523
98526.9
98530.3
98533.4
98536.1
98538.6
98540.6
98542.4
98544
98545.2
98546.2
98547.1
98547.8
98548.3
98548.7
98549.1
98549.5
98550.1
98550.9
98552.2
98553.9
98556.5
98560
98564.7
98570.8
98578.6
98588.2
98600
98614.1
98630.7
98649.9
98671.8
98696.5
98723.9
98754.1
98786.8
98822.2
98860.1
98900.1
98942.3
98986.4
99032.2
99079.7
99128.5
99178.3
99228.9
99280.1
99331.2
99382.1
99432
99480.7
99527.3
99571.2
99611.5
99647.6
99678.1
99702.8
99720.4
99730
99730.9
99722.8
99705
99677.8
99640.9
99595.6
99541.6
99481.2
99414.4
99344
99269.2
99193.7
99115
99034.9
98253.3
98253
98252.3
98251.2
98249.6
98247.7
98245.4
98242.8
98239.9
98236.7
98233.2
98229.5
98225.6
98221.4
98217.2
98212.8
98208.2
98203.6
98198.9
98194
98189.1
98184.1
98178.9
98173.6
98168.3
98162.9
98157.4
98151.8
98146.2
98140.6
98135
98129.3
98123.7
98118.1
98112.5
98107
98101.5
98096.2
98091
98085.8
98080.8
98076
98071.3
98066.9
98062.7
98058.7
98055.1
98051.7
98048.7
98046
98043.7
98041.8
98040.3
98039.2
98038.6
98038.6
98039
98040.1
98041.7
98043.9
98046.7
98050
98054.1
98058.7
98064
98070
98076.6
98083.8
98091.6
98100
98108.9
98118.4
98128.4
98138.9
98149.8
98161
98172.6
98184.6
98196.8
98209.2
98221.8
98234.5
98247.3
98260.2
98273.1
98285.9
98298.7
98311.3
98323.7
98335.9
98347.8
98359.4
98370.6
98381.4
98391.8
98401.7
98411.1
98420.1
98428.5
98436.4
98443.8
98450.7
98457
98462.8
98468.1
98472.9
98477.3
98481.2
98484.7
98487.8
98490.5
98492.9
98495
98496.9
98498.4
98499.7
98500.7
98501.4
98502
98502.3
98502.5
98502.4
98502.4
98502.2
98502.2
98502.3
98502.7
98503.5
98504.9
98507.2
98510.5
98515
98521
98528.7
98538.4
98550.2
98564.3
98580.8
98599.9
98621.5
98645.8
98672.6
98701.9
98733.6
98767.8
98804.2
98842.5
98882.8
98924.8
98968.5
99013.5
99059.6
99106.6
99154.2
99201.8
99249.3
99296.1
99341.8
99385.8
99427.3
99465.6
99500
99529.3
99553.4
99571
99581.3
99583.5
99577.6
99562.8
99539.4
99506.9
99466.5
99417.9
99363.3
99302.2
99237.7
99168.7
99098.9
99025.6
98951
98229.9
98229.7
98229
98228
98226.6
98224.8
98222.6
98220.2
98217.4
98214.4
98211.1
98207.6
98203.9
98200
98196.1
98192
98187.8
98183.5
98179.2
98174.8
98170.3
98165.7
98161
98156.3
98151.5
98146.6
98141.7
98136.8
98131.8
98126.8
98121.7
98116.7
98111.6
98106.6
98101.6
98096.7
98091.8
98086.9
98082.2
98077.5
98073
98068.5
98064.2
98060.1
98056.2
98052.5
98049
98045.8
98042.9
98040.3
98038.1
98036.2
98034.6
98033.5
98032.8
98032.6
98032.8
98033.6
98034.9
98036.8
98039.2
98042.2
98045.7
98049.9
98054.6
98060
98065.9
98072.5
98079.6
98087.3
98095.5
98104.3
98113.5
98123.1
98133.2
98143.6
98154.3
98165.3
98176.6
98188
98199.6
98211.4
98223.2
98235
98246.8
98258.6
98270.3
98281.8
98293.1
98304.2
98315.1
98325.6
98335.7
98345.5
98354.8
98363.7
98372.1
98380.1
98387.5
98394.5
98401.1
98407.1
98412.6
98417.6
98422.2
98426.4
98430.1
98433.5
98436.5
98439.1
98441.5
98443.5
98445.2
98446.7
98447.9
98448.8
98449.5
98449.9
98450.1
98450
98449.7
98449.2
98448.6
98447.8
98447
98446.2
98445.7
98445.3
98445.5
98446.3
98448
98450.8
98454.8
98460.3
98467.6
98476.8
98488.1
98501.7
98517.6
98535.8
98556.5
98579.6
98605.1
98632.8
98662.9
98695.1
98729.3
98765.4
98803.2
98842.7
98883.6
98925.5
98968.4
99012
99055.8
99099.5
99142.9
99185.2
99226.1
99264.9
99300.8
99333.2
99361.1
99384.2
99401.5
99412.2
99415.8
99412
99400.2
99380.7
99352.8
99317.6
99274.7
99226.3
99171.5
99113.8
99051.3
98988
98921.1
98853
98205.4
98205.3
98204.7
98203.8
98202.5
98200.9
98199
98196.7
98194.2
98191.4
98188.4
98185.2
98181.8
98178.2
98174.5
98170.8
98166.9
98163
98159
98155
98150.9
98146.8
98142.6
98138.3
98134
98129.7
98125.4
98121
98116.6
98112.2
98107.7
98103.3
98098.8
98094.4
98090
98085.6
98081.3
98077
98072.7
98068.5
98064.4
98060.4
98056.5
98052.7
98049.1
98045.7
98042.4
98039.5
98036.7
98034.2
98032
98030.1
98028.6
98027.3
98026.5
98026.1
98026.2
98026.7
98027.7
98029.2
98031.2
98033.7
98036.8
98040.4
98044.5
98049.3
98054.6
98060.4
98066.8
98073.7
98081.1
98089
98097.3
98106.1
98115.2
98124.7
98134.4
98144.4
98154.6
98165
98175.6
98186.2
98196.9
98207.6
98218.2
98228.8
98239.3
98249.7
98259.8
98269.7
98279.4
98288.7
98297.7
98306.3
98314.5
98322.3
98329.6
98336.5
98342.9
98349
98354.6
98359.7
98364.3
98368.6
98372.4
98375.9
98378.9
98381.7
98384.1
98386.2
98388.1
98389.7
98391
98392
98392.8
98393.3
98393.6
98393.6
98393.3
98392.8
98392
98390.9
98389.6
98388.1
98386.5
98384.8
98383.1
98381.5
98380.3
98379.5
98379.5
98380.4
98382.3
98385.5
98390.2
98396.7
98405.1
98415.5
98428
98442.7
98459.7
98478.8
98500.3
98523.9
98549.7
98577.6
98607.4
98639.2
98672.6
98707.6
98744.1
98781.8
98820.3
98859.7
98899.3
98939.3
98978.8
99017.5
99054.9
99090.7
99123.9
99154
99180
99201.9
99218.6
99229.5
99234.1
99232.4
99223.4
99207.6
99184.1
99154.2
99117.1
99075
99026.9
98976.2
98920.6
98864.4
98804.4
98743.7
98181.2
98181.2
98180.8
98180
98178.9
98177.5
98175.8
98173.8
98171.5
98169
98166.3
98163.4
98160.3
98157.1
98153.8
98150.3
98146.8
98143.2
98139.6
98136
98132.3
98128.5
98124.8
98121
98117.2
98113.3
98109.5
98105.6
98101.8
98097.9
98094
98090.1
98086.2
98082.3
98078.4
98074.6
98070.8
98067
98063.2
98059.4
98055.7
98052.1
98048.6
98045.1
98041.8
98038.7
98035.7
98032.9
98030.3
98027.9
98025.7
98023.8
98022.2
98021
98020
98019.5
98019.3
98019.6
98020.2
98021.4
98022.9
98025
98027.6
98030.6
98034.2
98038.2
98042.9
98048
98053.6
98059.7
98066.2
98073.3
98080.7
98088.5
98096.6
98105.1
98113.8
98122.8
98131.9
98141.2
98150.6
98160.1
98169.6
98179.1
98188.5
98197.9
98207.2
98216.2
98225.1
98233.8
98242.2
98250.3
98258
98265.4
98272.5
98279.1
98285.3
98291.1
98296.5
98301.5
98306.1
98310.3
98314.1
98317.5
98320.6
98323.3
98325.7
98327.7
98329.5
98331.1
98332.4
98333.5
98334.3
98334.8
98335.1
98335.2
98335
98334.5
98333.8
98332.7
98331.3
98329.6
98327.6
98325.3
98322.7
98320
98317.2
98314.3
98311.7
98309.3
98307.5
98306.5
98306.1
98307
98309.1
98312.9
98318.2
98325.4
98334.5
98345.6
98358.8
98374.1
98391.5
98411
98432.5
98456
98481.4
98508.8
98537.8
98568.4
98600.5
98633.8
98668
98703
98738.6
98774.6
98810.2
98845.1
98878.9
98911.3
98941.5
98969.1
98992.8
99013.1
99028.8
99039.6
99044.9
99044.8
99038.3
99025.8
99006.4
98981.5
98950
98914.1
98872.7
98829
98780.5
98731.7
98679
98625.8
98158.4
98158.4
98158.1
98157.5
98156.5
98155.3
98153.9
98152.2
98150.2
98148
98145.6
98143
98140.3
98137.4
98134.4
98131.3
98128.2
98125
98121.7
98118.4
98115.1
98111.8
98108.5
98105.1
98101.7
98098.4
98095
98091.6
98088.2
98084.7
98081.3
98077.9
98074.5
98071.1
98067.7
98064.3
98060.9
98057.5
98054.1
98050.8
98047.5
98044.2
98040.9
98037.8
98034.8
98031.8
98029
98026.4
98023.9
98021.6
98019.5
98017.6
98016
98014.6
98013.5
98012.8
98012.4
98012.4
98012.8
98013.5
98014.7
98016.3
98018.4
98020.9
98023.9
98027.3
98031.2
98035.6
98040.5
98045.8
98051.5
98057.6
98064.1
98071
98078.2
98085.6
98093.3
98101.2
98109.3
98117.4
98125.7
98134
98142.3
98150.6
98158.8
98167
98175
98182.8
98190.4
98197.8
98204.9
98211.7
98218.3
98224.5
98230.3
98235.7
98240.8
98245.5
98249.8
98253.8
98257.4
98260.6
98263.5
98266.1
98268.4
98270.3
98271.9
98273.3
98274.5
98275.5
98276.2
98276.7
98277
98277
98276.7
98276.3
98275.5
98274.5
98273.1
98271.5
98269.4
98267
98264.2
98261.1
98257.5
98253.7
98249.7
98245.6
98241.6
98237.7
98234.1
98231.1
98228.6
98227.1
98226.7
98227.7
98230.1
98234.2
98239.9
98247.5
98257
98268.5
98282.1
98297.6
98314.9
98334.1
98355.3
98378.5
98403.2
98429.5
98457.2
98486.2
98516.1
98547
98578.5
98610.4
98642
98673.1
98703.2
98732.1
98759
98783.8
98805.1
98823.3
98837.6
98847.8
98853.4
98854.4
98849.8
98840.1
98824.4
98803.9
98777.6
98747.6
98712.8
98675.9
98634.5
98593
98547.6
98502.3
98137.7
98137.8
98137.6
98137.1
98136.4
98135.4
98134.2
98132.8
98131.1
98129.2
98127.2
98124.9
98122.5
98120
98117.4
98114.7
98111.9
98109.1
98106.2
98103.3
98100.4
98097.4
98094.5
98091.5
98088.5
98085.6
98082.6
98079.6
98076.5
98073.5
98070.5
98067.5
98064.4
98061.4
98058.4
98055.4
98052.3
98049.3
98046.2
98043.2
98040.1
98037.1
98034.2
98031.2
98028.4
98025.6
98023
98020.4
98018
98015.7
98013.6
98011.7
98010
98008.6
98007.4
98006.5
98005.9
98005.6
98005.7
98006.1
98006.9
98008.1
98009.7
98011.7
98014.1
98016.9
98020.2
98023.9
98028.1
98032.6
98037.5
98042.8
98048.4
98054.4
98060.6
98067.1
98073.8
98080.6
98087.6
98094.7
98101.8
98109
98116.2
98123.3
98130.3
98137.2
98143.9
98150.5
98156.9
98163
98168.9
98174.5
98179.8
98184.8
98189.4
98193.7
98197.6
98201.2
98204.4
98207.3
98209.9
98212.2
98214.2
98215.9
98217.3
98218.5
98219.4
98220.1
98220.6
98220.9
98221
98220.9
98220.5
98220
98219.2
98218.1
98216.7
98215.1
98213.1
98210.7
98207.9
98204.8
98201.1
98197.1
98192.6
98187.7
98182.6
98177.3
98171.9
98166.5
98161.2
98156.3
98151.8
98148.1
98145.3
98143.6
98143.3
98144.3
98146.8
98151.1
98157.2
98165.1
98174.9
98186.6
98200.1
98215.5
98232.6
98251.8
98272.5
98294.7
98318.2
98343.1
98368.9
98395.8
98423.2
98451.1
98478.7
98506
98532.4
98557.5
98581.1
98602.8
98621.6
98637.4
98649.8
98658.9
98664.1
98665.6
98662.3
98654.7
98642.2
98625.6
98603.9
98579.5
98550.7
98520.3
98485.5
98451.2
98413
98375.5
98119.9
98120.1
98119.9
98119.5
98119
98118.2
98117.2
98116.1
98114.7
98113.1
98111.4
98109.5
98107.5
98105.4
98103.1
98100.8
98098.4
98095.9
98093.4
98090.9
98088.4
98085.8
98083.2
98080.6
98078
98075.4
98072.7
98070.1
98067.4
98064.7
98062
98059.3
98056.6
98053.8
98051.1
98048.3
98045.5
98042.8
98039.9
98037.1
98034.3
98031.4
98028.6
98025.9
98023.1
98020.5
98017.9
98015.4
98013
98010.7
98008.6
98006.6
98004.9
98003.3
98002
98000.9
98000
97999.5
97999.3
97999.4
97999.9
98000.7
98001.8
98003.4
98005.3
98007.6
98010.3
98013.4
98016.8
98020.6
98024.8
98029.3
98034.1
98039.2
98044.6
98050.1
98055.9
98061.8
98067.7
98073.8
98079.9
98085.9
98092
98098
98103.8
98109.6
98115.1
98120.5
98125.7
98130.6
98135.3
98139.7
98143.8
98147.6
98151
98154.2
98157
98159.4
98161.6
98163.5
98165.1
98166.4
98167.5
98168.3
98168.9
98169.2
98169.3
98169.3
98169
98168.6
98168
98167.2
98166.2
98165
98163.6
98161.9
98159.8
98157.4
98154.7
98151.6
98148.1
98144.1
98139.6
98134.7
98129.2
98123.4
98117.2
98110.7
98104
98097.2
98090.3
98083.7
98077.4
98071.7
98066.7
98062.5
98059.5
98057.8
98057.4
98058.7
98061.5
98066.2
98072.5
98080.8
98090.8
98102.6
98116.1
98131.5
98148.5
98167.1
98186.7
98207.7
98229.7
98252.6
98276.3
98300.2
98323.9
98347.4
98370
98391.4
98411.5
98430
98445.8
98459
98469.1
98476.6
98480.6
98481.9
98479.3
98473.3
98463.2
98450
98432.3
98412.8
98389.5
98364.9
98336.5
98309
98277.6
98247.6
98105.2
98105.4
98105.4
98105.1
98104.7
98104.1
98103.4
98102.5
98101.4
98100.1
98098.7
98097.2
98095.5
98093.8
98091.9
98090
98088
98085.9
98083.8
98081.7
98079.5
98077.3
98075.1
98072.8
98070.5
98068.2
98065.9
98063.5
98061.1
98058.7
98056.2
98053.7
98051.2
98048.7
98046.1
98043.6
98040.9
98038.3
98035.6
98032.9
98030.2
98027.4
98024.7
98022
98019.3
98016.7
98014.1
98011.6
98009.2
98006.9
98004.7
98002.6
98000.7
97999
97997.5
97996.3
97995.2
97994.5
97994
97993.8
97994
97994.4
97995.2
97996.4
97997.8
97999.7
98001.8
98004.3
98007.2
98010.4
98013.9
98017.7
98021.8
98026.1
98030.6
98035.3
98040.2
98045.2
98050.2
98055.3
98060.4
98065.5
98070.5
98075.4
98080.2
98084.9
98089.3
98093.6
98097.6
98101.4
98104.9
98108.2
98111.1
98113.7
98116.1
98118.1
98119.8
98121.2
98122.4
98123.2
98123.8
98124.2
98124.3
98124.2
98123.9
98123.4
98122.7
98121.9
98120.9
98119.7
98118.3
98116.8
98115
98113.1
98111
98108.5
98105.7
98102.6
98099.1
98095.3
98090.9
98086.1
98080.8
98075
98068.6
98061.8
98054.6
98047
98039.1
98031
98022.8
98014.6
98006.6
97999.1
97992.1
97985.8
97980.5
97976.3
97973.3
97971.8
97971.9
97973.6
97976.9
97982.1
97989
97997.6
98008
98020.1
98033.7
98048.9
98065.1
98082.6
98101
98120.2
98140.2
98160.3
98180.3
98200.2
98218.9
98236.5
98253
98267.9
98280.7
98291
98298.5
98303.8
98306.1
98306.4
98303.8
98298.8
98290.5
98279.9
98265.7
98250.3
98231.7
98212.5
98189.8
98168.6
98143.6
98120.8
98093.8
98094
98094.1
98093.9
98093.6
98093.2
98092.7
98092
98091.2
98090.2
98089.2
98088
98086.7
98085.3
98083.8
98082.3
98080.7
98079.1
98077.4
98075.6
98073.8
98072
98070.1
98068.2
98066.2
98064.2
98062.1
98059.9
98057.8
98055.5
98053.2
98050.9
98048.6
98046.1
98043.7
98041.2
98038.6
98036.1
98033.4
98030.7
98028
98025.3
98022.6
98019.8
98017.1
98014.4
98011.8
98009.2
98006.7
98004.3
98002
97999.8
97997.8
97996
97994.3
97992.9
97991.7
97990.7
97990
97989.6
97989.5
97989.6
97990.1
97990.9
97992
97993.4
97995.1
97997.1
97999.5
98002.1
98005
98008.2
98011.6
98015.3
98019.1
98023.1
98027.2
98031.3
98035.5
98039.8
98044
98048.2
98052.2
98056.2
98060
98063.6
98067.1
98070.3
98073.2
98075.9
98078.4
98080.5
98082.4
98084
98085.2
98086.2
98086.9
98087.2
98087.3
98087.2
98086.8
98086.2
98085.4
98084.4
98083.2
98081.8
98080.3
98078.6
98076.8
98074.8
98072.6
98070.3
98067.8
98065.1
98062.1
98058.9
98055.3
98051.4
98047.1
98042.5
98037.3
98031.7
98025.6
98018.9
98011.7
98004
97995.8
97987.2
97978.2
97969
97959.6
97950.1
97940.6
97931.5
97922.8
97914.6
97907.2
97900.9
97895.7
97891.9
97889.5
97888.7
97889.5
97892
97896.2
97902.1
97909.6
97918.7
97929.4
97941.5
97954.6
97968.9
97984
97999.9
98016.4
98033
98049.4
98065.6
98080.5
98094.4
98107.1
98118.4
98127.9
98135
98139.7
98142.6
98142.8
98141.4
98138.2
98133.5
98126.2
98117.7
98106.3
98094.3
98079.6
98065.2
98047.6
98032.1
98012.9
97996.9
98085.4
98085.6
98085.7
98085.7
98085.6
98085.4
98085
98084.6
98084.1
98083.4
98082.7
98081.9
98081
98080
98079
98077.9
98076.7
98075.5
98074.2
98072.8
98071.4
98070
98068.4
98066.8
98065.1
98063.3
98061.4
98059.4
98057.4
98055.3
98053.1
98050.9
98048.6
98046.2
98043.8
98041.3
98038.7
98036.1
98033.4
98030.7
98027.9
98025.1
98022.3
98019.4
98016.6
98013.8
98011.1
98008.4
98005.7
98003.2
98000.8
97998.4
97996.3
97994.3
97992.5
97990.8
97989.5
97988.3
97987.4
97986.8
97986.4
97986.3
97986.5
97987
97987.8
97988.9
97990.2
97991.9
97993.8
97996
97998.4
98001.1
98004
98007
98010.2
98013.6
98017
98020.4
98023.9
98027.4
98030.8
98034.2
98037.4
98040.5
98043.4
98046.1
98048.6
98050.9
98052.9
98054.6
98056
98057.1
98058
98058.6
98058.8
98058.8
98058.5
98057.8
98056.9
98055.8
98054.4
98052.9
98051.2
98049.2
98047.1
98044.9
98042.5
98040
98037.3
98034.4
98031.4
98028.3
98024.9
98021.4
98017.6
98013.5
98009.1
98004.4
97999.3
97993.8
97987.8
97981.4
97974.4
97966.9
97959
97950.5
97941.4
97932
97922.1
97911.9
97901.5
97890.9
97880.2
97869.7
97859.5
97849.7
97840.7
97832.6
97825.5
97819.7
97815.3
97812.3
97811
97811.3
97813.1
97816.6
97821.5
97828.1
97836.1
97845.4
97855.8
97867.2
97879.4
97892.2
97905.5
97918.8
97931.8
97944.3
97955.5
97965.7
97974.6
97982.2
97988.1
97992
97993.7
97994.1
97991.9
97988.6
97984.1
97978.9
97972.2
97964.9
97955.6
97946.3
97934.9
97924.6
97911.4
97901.1
97887.1
97877.3
98079.4
98079.7
98079.9
98079.9
98079.9
98079.9
98079.8
98079.6
98079.4
98079.1
98078.8
98078.4
98078
98077.5
98076.9
98076.3
98075.6
98074.8
98073.9
98073
98072
98070.8
98069.6
98068.2
98066.8
98065.2
98063.5
98061.7
98059.8
98057.7
98055.6
98053.4
98051.1
98048.7
98046.2
98043.6
98041
98038.2
98035.4
98032.6
98029.7
98026.7
98023.8
98020.8
98017.8
98014.8
98011.9
98009
98006.3
98003.5
98000.9
97998.5
97996.1
97994
97992
97990.3
97988.7
97987.4
97986.3
97985.5
97985
97984.7
97984.7
97984.9
97985.5
97986.3
97987.3
97988.7
97990.3
97992.1
97994.1
97996.4
97998.8
98001.4
98004.1
98006.8
98009.7
98012.5
98015.4
98018.2
98021
98023.6
98026.1
98028.4
98030.5
98032.4
98034.1
98035.4
98036.5
98037.3
98037.8
98038.1
98038
98037.6
98036.9
98036
98034.7
98033.1
98031.3
98029.2
98026.9
98024.4
98021.7
98018.9
98016
98012.8
98009.6
98006.1
98002.5
97998.8
97994.9
97990.9
97986.7
97982.2
97977.6
97972.6
97967.4
97961.8
97955.9
97949.6
97942.8
97935.6
97927.8
97919.6
97910.9
97901.8
97892
97881.8
97871.2
97860.2
97848.9
97837.4
97825.8
97814.2
97802.7
97791.7
97781.3
97771.9
97763.3
97755.8
97749.7
97745
97741.8
97740.2
97740
97741.4
97744.2
97748.5
97754.1
97760.9
97768.8
97777.9
97787.4
97797.3
97807.4
97817.4
97827.2
97836.2
97843.9
97850.5
97855.6
97859.5
97861.7
97862.2
97860.9
97858.6
97854
97848.5
97842.4
97836.2
97829.4
97822.8
97814.8
97807.6
97798.9
97792
97782.6
97776.8
97767.4
97763.1
98075
98075.3
98075.6
98075.7
98075.9
98076.1
98076.2
98076.4
98076.6
98076.8
98077
98077.2
98077.3
98077.4
98077.3
98077.2
98077
98076.7
98076.2
98075.7
98075
98074.2
98073.2
98072.1
98070.9
98069.5
98067.9
98066.2
98064.3
98062.3
98060.2
98058
98055.6
98053.1
98050.5
98047.8
98045
98042.2
98039.2
98036.2
98033.1
98030
98026.8
98023.6
98020.5
98017.3
98014.2
98011.1
98008.2
98005.3
98002.5
97999.9
97997.4
97995.1
97993
97991.1
97989.4
97988
97986.8
97985.8
97985.1
97984.7
97984.5
97984.6
97984.9
97985.5
97986.4
97987.5
97988.8
97990.3
97992.1
97994
97996
97998.2
98000.5
98002.8
98005.2
98007.6
98009.9
98012.2
98014.3
98016.3
98018.1
98019.8
98021.2
98022.3
98023.2
98023.8
98024.1
98024.1
98023.8
98023.2
98022.2
98021
98019.4
98017.6
98015.4
98013
98010.2
98007.2
98004
98000.6
97997.1
97993.4
97989.6
97985.5
97981.4
97977.1
97972.6
97968
97963.2
97958.3
97953.2
97947.8
97942.2
97936.4
97930.4
97924
97917.2
97910.1
97902.6
97894.6
97886.2
97877.3
97868
97858.2
97847.9
97837.1
97825.9
97814.3
97802.3
97790.1
97777.7
97765.2
97752.9
97740.9
97729.5
97718.9
97709.1
97700.4
97692.9
97686.8
97682
97678.7
97676.8
97676.4
97677.4
97679.8
97683.3
97688
97693.7
97700.5
97707.6
97714.7
97721.9
97728.7
97735.4
97741.1
97745.4
97748.5
97749.9
97750
97748.6
97745.6
97741.1
97735.9
97728.9
97721.2
97713.2
97705.8
97698.4
97692
97684.8
97679.2
97672.4
97668.3
97662
97660.3
97654.9
97655.5
98071.3
98071.5
98071.7
98071.8
98072.1
98072.6
98073.2
98074
98074.9
98075.8
98076.6
98077.5
98078.3
98079
98079.6
98080
98080.3
98080.4
98080.4
98080.2
98079.9
98079.3
98078.6
98077.7
98076.6
98075.3
98073.9
98072.2
98070.4
98068.4
98066.2
98063.9
98061.5
98058.9
98056.2
98053.4
98050.4
98047.4
98044.2
98041
98037.7
98034.4
98031.1
98027.7
98024.3
98021
98017.7
98014.4
98011.3
98008.2
98005.3
98002.5
97999.9
97997.5
97995.3
97993.3
97991.5
97989.9
97988.6
97987.5
97986.7
97986.2
97985.9
97985.8
97986
97986.5
97987.2
97988.1
97989.2
97990.6
97992.1
97993.7
97995.5
97997.4
97999.3
98001.3
98003.3
98005.2
98007
98008.8
98010.4
98011.9
98013.1
98014.2
98014.9
98015.5
98015.7
98015.6
98015.2
98014.4
98013.4
98012
98010.2
98008.2
98005.8
98003.2
98000.2
97996.9
97993.4
97989.5
97985.5
97981.3
97976.9
97972.3
97967.6
97962.7
97957.7
97952.6
97947.2
97941.8
97936.1
97930.3
97924.3
97918
97911.6
97905
97898.1
97890.9
97883.4
97875.5
97867.3
97858.6
97849.6
97840.2
97830.3
97819.9
97809.1
97797.9
97786.2
97774.2
97761.7
97748.8
97735.8
97722.8
97709.9
97697.3
97685.1
97673.6
97662.8
97653
97644.4
97637
97630.8
97626.2
97622.9
97621
97620.5
97621.2
97622.9
97625.6
97629.4
97634
97638.9
97643.6
97647.9
97651.8
97655.3
97657.9
97659.1
97658.8
97656.5
97652.9
97647.9
97641.5
97633.8
97625.6
97616.1
97606.3
97596.5
97587.7
97579.4
97572.7
97565.9
97561.3
97556.1
97554.1
97550.3
97552
97550.3
97555.2
98066.4
98066.4
98066.4
98066.8
98067.5
98068.8
98070.2
98072
98073.7
98075.6
98077.3
98079
98080.6
98082
98083.2
98084.1
98084.9
98085.5
98085.8
98085.9
98085.9
98085.6
98085
98084.3
98083.3
98082.1
98080.7
98079.1
98077.3
98075.3
98073.1
98070.7
98068.2
98065.5
98062.6
98059.7
98056.6
98053.3
98050
98046.6
98043.2
98039.7
98036.1
98032.6
98029
98025.5
98022
98018.6
98015.3
98012.1
98009.1
98006.2
98003.5
98001
97998.6
97996.5
97994.7
97993
97991.6
97990.5
97989.6
97989
97988.6
97988.5
97988.6
97988.9
97989.5
97990.3
97991.3
97992.5
97993.8
97995.3
97996.8
97998.4
98000.1
98001.7
98003.3
98004.9
98006.3
98007.7
98008.8
98009.8
98010.5
98011
98011.2
98011.2
98010.8
98010.1
98009
98007.6
98005.8
98003.7
98001.3
97998.5
97995.4
97992
97988.2
97984.2
97979.9
97975.3
97970.5
97965.5
97960.3
97954.9
97949.4
97943.7
97937.9
97931.9
97925.8
97919.5
97913
97906.4
97899.5
97892.5
97885.2
97877.8
97870.1
97862.2
97854
97845.5
97836.6
97827.3
97817.8
97807.9
97797.5
97786.8
97775.6
97764
97752
97739.6
97726.7
97713.4
97700
97686.6
97673.3
97660.3
97647.6
97635.4
97623.8