/*--------------------------------*- C++ -*----------------------------------*\
| =========                 |                                                 |
| \\      /  F ield         | OpenFOAM: The Open Source CFD Toolbox           |
|  \\    /   O peration     | Version:  dev                                   |
|   \\  /    A nd           | Web:      http://www.openfoam.org               |
|    \\/     M anipulation  |                                                 |
\*---------------------------------------------------------------------------*/
FoamFile
{
    version     2.0;
    format      ascii;
    class       volScalarField;
    object      pPrime2Mean;
    location    "9.143";
}
// * * * * * * * * * * * * * * * * * * * * * * * * * * * * * * * * * * * * * //

dimensions      [2 -2 -4 0 0 0 0];

internalField   nonuniform List<scalar> 
12225
(
5.03786e+07
4.99133e+07
4.89522e+07
4.76004e+07
4.59459e+07
4.40782e+07
4.20564e+07
3.99527e+07
3.78077e+07
3.56698e+07
3.35764e+07
3.15307e+07
2.96066e+07
2.77349e+07
2.59869e+07
2.4426e+07
2.28638e+07
2.12837e+07
5.02708e+07
4.98055e+07
4.88451e+07
4.74951e+07
4.5842e+07
4.39767e+07
4.19578e+07
3.98566e+07
3.77156e+07
3.55803e+07
3.34916e+07
3.14496e+07
2.95301e+07
2.76653e+07
2.59347e+07
2.43739e+07
2.28648e+07
2.15304e+07
5.00207e+07
4.9556e+07
4.85961e+07
4.7249e+07
4.56005e+07
4.37399e+07
4.17278e+07
3.96328e+07
3.75e+07
3.53728e+07
3.32926e+07
3.12623e+07
2.93488e+07
2.75012e+07
2.57905e+07
2.42346e+07
2.27992e+07
2.15861e+07
4.9585e+07
4.91232e+07
4.81657e+07
4.68238e+07
4.51833e+07
4.33312e+07
4.13306e+07
3.92462e+07
3.71282e+07
3.50144e+07
3.29501e+07
3.09376e+07
2.90414e+07
2.72131e+07
2.5532e+07
2.40007e+07
2.2614e+07
2.15131e+07
4.89199e+07
4.84584e+07
4.75055e+07
4.61731e+07
4.45444e+07
4.27069e+07
4.07221e+07
3.86571e+07
3.6558e+07
3.44684e+07
3.24244e+07
3.04426e+07
2.8569e+07
2.67768e+07
2.5148e+07
2.3639e+07
2.23576e+07
2.12932e+07
4.79707e+07
4.75066e+07
4.65633e+07
4.52443e+07
4.36335e+07
4.18158e+07
3.98558e+07
3.78163e+07
3.57474e+07
3.36874e+07
3.16776e+07
2.973e+07
2.78947e+07
2.6149e+07
2.45697e+07
2.31302e+07
2.19031e+07
2.08466e+07
4.66757e+07
4.62103e+07
4.52825e+07
4.39799e+07
4.23952e+07
4.06031e+07
3.86787e+07
3.66726e+07
3.46466e+07
3.26256e+07
3.06642e+07
2.87623e+07
2.69782e+07
2.52904e+07
2.37681e+07
2.23887e+07
2.122e+07
2.01919e+07
4.52336e+07
4.47699e+07
4.38584e+07
4.25736e+07
4.10177e+07
3.92552e+07
3.73693e+07
3.54022e+07
3.34215e+07
3.14467e+07
2.95351e+07
2.76869e+07
2.59544e+07
2.43297e+07
2.28559e+07
2.15397e+07
2.04036e+07
1.94436e+07
4.37188e+07
4.32585e+07
4.23633e+07
4.10982e+07
3.95719e+07
3.78419e+07
3.59954e+07
3.40707e+07
3.21362e+07
3.0211e+07
2.83504e+07
2.65578e+07
2.48791e+07
2.33151e+07
2.18934e+07
2.06332e+07
1.95391e+07
1.86403e+07
4.17786e+07
4.1325e+07
4.04493e+07
3.92118e+07
3.77219e+07
3.60359e+07
3.42383e+07
3.23697e+07
3.04925e+07
2.86322e+07
2.68344e+07
2.51133e+07
2.35007e+07
2.20115e+07
2.06561e+07
1.94636e+07
1.84263e+07
1.75734e+07
3.933e+07
3.88864e+07
3.80342e+07
3.68335e+07
3.53894e+07
3.37606e+07
3.2025e+07
3.02275e+07
2.84234e+07
2.66434e+07
2.49259e+07
2.32909e+07
2.1762e+07
2.03589e+07
1.90866e+07
1.79708e+07
1.70005e+07
1.61938e+07
3.63065e+07
3.58778e+07
3.50538e+07
3.39021e+07
3.25153e+07
3.09597e+07
2.93015e+07
2.75931e+07
2.58795e+07
2.41984e+07
2.25792e+07
2.10472e+07
1.96192e+07
1.83155e+07
1.71397e+07
1.61083e+07
1.52136e+07
1.44601e+07
3.26935e+07
3.22835e+07
3.14958e+07
3.04053e+07
2.90907e+07
2.76241e+07
2.60617e+07
2.44599e+07
2.28565e+07
2.1292e+07
1.97895e+07
1.83766e+07
1.70651e+07
1.58736e+07
1.48043e+07
1.38665e+07
1.30551e+07
1.23667e+07
2.85819e+07
2.81947e+07
2.74538e+07
2.64356e+07
2.52094e+07
2.38463e+07
2.23979e+07
2.09182e+07
1.9443e+07
1.80093e+07
1.66397e+07
1.53575e+07
1.41746e+07
1.31037e+07
1.2148e+07
1.13106e+07
1.05878e+07
9.97358e+06
2.42573e+07
2.38965e+07
2.32117e+07
2.22743e+07
2.11483e+07
1.98994e+07
1.85766e+07
1.72293e+07
1.58918e+07
1.45969e+07
1.33663e+07
1.22192e+07
1.11667e+07
1.02175e+07
9.37431e+06
8.63701e+06
8.00243e+06
7.46388e+06
2.03103e+07
1.99781e+07
1.93529e+07
1.84973e+07
1.74727e+07
1.6337e+07
1.5138e+07
1.39188e+07
1.27131e+07
1.1549e+07
1.04472e+07
9.42341e+06
8.48757e+06
7.64573e+06
6.89982e+06
6.24854e+06
5.68873e+06
5.21416e+06
1.77447e+07
1.74381e+07
1.68631e+07
1.60753e+07
1.51332e+07
1.40885e+07
1.29868e+07
1.18671e+07
1.0761e+07
9.69385e+06
8.68448e+06
7.7465e+06
6.88863e+06
6.11565e+06
5.42894e+06
4.82711e+06
4.30718e+06
3.86378e+06
1.78531e+07
1.75584e+07
1.70056e+07
1.62475e+07
1.534e+07
1.43323e+07
1.32681e+07
1.21844e+07
1.11112e+07
1.00722e+07
9.08536e+06
8.16318e+06
7.31383e+06
6.54181e+06
5.84854e+06
5.23316e+06
4.69317e+06
4.22423e+06
2.07308e+07
2.04316e+07
1.9869e+07
1.90959e+07
1.81689e+07
1.71373e+07
1.60446e+07
1.49274e+07
1.38157e+07
1.27328e+07
1.16965e+07
1.07193e+07
9.80957e+06
8.97208e+06
8.20874e+06
7.51948e+06
6.90246e+06
6.3543e+06
2.52189e+07
2.49068e+07
2.43163e+07
2.3502e+07
2.25235e+07
2.14317e+07
2.02712e+07
1.90795e+07
1.78873e+07
1.67186e+07
1.55916e+07
1.45194e+07
1.35108e+07
1.25713e+07
1.17035e+07
1.0908e+07
1.01838e+07
9.52838e+06
3.02794e+07
2.99532e+07
2.93295e+07
2.84658e+07
2.74249e+07
2.62599e+07
2.50173e+07
2.37362e+07
2.24484e+07
2.11788e+07
1.99466e+07
1.87656e+07
1.76454e+07
1.6592e+07
1.5609e+07
1.46977e+07
1.38577e+07
1.30873e+07
3.51943e+07
3.48565e+07
3.42017e+07
3.32909e+07
3.21898e+07
3.09536e+07
2.96308e+07
2.82621e+07
2.68807e+07
2.55126e+07
2.41779e+07
2.28913e+07
2.16631e+07
2.05002e+07
1.94068e+07
1.83849e+07
1.74349e+07
1.65556e+07
3.95445e+07
3.91983e+07
3.8518e+07
3.75675e+07
3.64149e+07
3.51169e+07
3.3724e+07
3.22784e+07
3.08145e+07
2.93595e+07
2.79344e+07
2.65547e+07
2.52314e+07
2.39723e+07
2.2782e+07
2.16633e+07
2.06169e+07
1.96423e+07
4.31409e+07
4.27896e+07
4.20901e+07
4.11086e+07
3.99148e+07
3.8567e+07
3.71171e+07
3.56085e+07
3.4077e+07
3.25506e+07
3.10511e+07
2.95946e+07
2.81931e+07
2.68547e+07
2.55848e+07
2.43864e+07
2.32609e+07
2.22081e+07
4.59498e+07
4.55955e+07
4.48822e+07
4.38778e+07
4.2653e+07
4.12671e+07
3.97733e+07
3.82161e+07
3.66321e+07
3.50502e+07
3.34927e+07
3.19766e+07
3.05143e+07
2.91143e+07
2.77823e+07
2.6522e+07
2.53349e+07
2.42212e+07
4.80283e+07
4.76725e+07
4.69495e+07
4.5929e+07
4.46818e+07
4.32682e+07
4.17422e+07
4.01494e+07
3.85268e+07
3.6904e+07
3.53039e+07
3.37439e+07
3.22367e+07
3.07913e+07
2.94137e+07
2.81078e+07
2.68753e+07
2.57168e+07
4.94775e+07
4.91207e+07
4.83911e+07
4.73597e+07
4.60972e+07
4.46647e+07
4.31168e+07
4.14994e+07
3.98501e+07
3.81991e+07
3.65695e+07
3.4979e+07
3.34408e+07
3.19639e+07
3.05547e+07
2.92172e+07
2.79533e+07
2.67636e+07
5.04126e+07
5.00548e+07
4.9321e+07
4.82829e+07
4.70106e+07
4.55661e+07
4.40042e+07
4.23713e+07
4.0705e+07
3.90359e+07
3.73874e+07
3.57775e+07
3.42192e+07
3.27221e+07
3.12926e+07
2.99347e+07
2.86507e+07
2.7441e+07
5.09417e+07
5.05836e+07
4.98483e+07
4.88071e+07
4.75294e+07
4.60784e+07
4.45086e+07
4.28667e+07
4.11906e+07
3.95111e+07
3.78517e+07
3.62305e+07
3.46608e+07
3.3152e+07
3.17108e+07
3.03412e+07
2.90458e+07
2.78251e+07
5.11639e+07
5.08073e+07
5.007e+07
4.9027e+07
4.77469e+07
4.6293e+07
4.47199e+07
4.3074e+07
4.13938e+07
3.97097e+07
3.80457e+07
3.64196e+07
3.4845e+07
3.33313e+07
3.1885e+07
3.05106e+07
2.92104e+07
2.79853e+07
6.04964e+07
6.04373e+07
6.03066e+07
6.01008e+07
5.9818e+07
5.94575e+07
5.90195e+07
5.85046e+07
5.79139e+07
5.72489e+07
5.65116e+07
5.57039e+07
5.48282e+07
5.38871e+07
5.28833e+07
5.18198e+07
5.06998e+07
4.95269e+07
4.83046e+07
4.70369e+07
4.57277e+07
4.43812e+07
4.30014e+07
4.15929e+07
4.016e+07
3.87074e+07
3.72395e+07
3.57607e+07
3.42756e+07
3.27887e+07
3.13046e+07
2.98278e+07
2.83631e+07
2.69149e+07
2.54879e+07
2.40866e+07
2.27156e+07
2.13798e+07
2.00838e+07
1.88325e+07
1.76305e+07
1.64829e+07
1.53946e+07
1.43707e+07
1.34165e+07
1.2537e+07
1.17376e+07
1.10237e+07
1.04008e+07
9.8742e+06
9.44945e+06
9.13199e+06
8.92721e+06
8.84039e+06
8.87661e+06
9.04071e+06
9.33725e+06
9.77047e+06
1.03442e+07
1.10618e+07
1.19259e+07
1.29387e+07
1.41017e+07
1.54155e+07
1.68801e+07
1.84947e+07
2.02576e+07
2.21665e+07
2.42181e+07
2.64086e+07
2.87334e+07
3.11872e+07
3.37642e+07
3.64578e+07
3.92612e+07
4.21672e+07
4.51683e+07
4.82566e+07
5.14244e+07
5.46636e+07
5.79662e+07
6.13239e+07
6.47283e+07
6.81711e+07
7.16433e+07
7.51363e+07
7.86408e+07
8.21474e+07
8.56459e+07
8.91261e+07
9.25769e+07
9.59869e+07
9.9344e+07
1.02636e+08
1.0585e+08
1.08973e+08
1.11993e+08
1.14898e+08
1.17676e+08
1.20316e+08
1.22811e+08
1.2515e+08
1.27327e+08
1.29337e+08
1.31176e+08
1.32841e+08
1.34333e+08
1.35655e+08
1.36811e+08
1.3781e+08
1.38661e+08
1.39375e+08
1.39968e+08
1.40451e+08
1.40842e+08
1.41159e+08
1.41421e+08
1.4165e+08
1.4187e+08
1.42106e+08
1.42389e+08
1.42753e+08
1.43233e+08
1.43869e+08
1.44705e+08
1.45789e+08
1.47174e+08
1.48916e+08
1.51076e+08
1.53717e+08
1.56901e+08
1.60691e+08
1.65149e+08
1.70331e+08
1.76291e+08
1.83072e+08
1.90713e+08
1.9924e+08
2.08666e+08
2.18996e+08
2.30223e+08
2.42323e+08
2.5527e+08
2.69022e+08
2.83535e+08
2.98748e+08
3.1461e+08
3.31051e+08
3.48007e+08
3.65404e+08
3.83167e+08
4.01212e+08
4.19449e+08
4.37785e+08
4.56099e+08
4.7425e+08
4.92076e+08
5.09406e+08
5.26009e+08
5.41649e+08
5.56027e+08
5.68845e+08
5.79762e+08
5.88454e+08
5.94588e+08
5.97866e+08
5.98027e+08
5.94892e+08
5.88334e+08
5.7838e+08
5.65111e+08
5.48795e+08
5.2975e+08
5.08469e+08
4.85427e+08
4.61148e+08
4.36e+08
4.10418e+08
3.84613e+08
3.5891e+08
5.94213e+07
5.93656e+07
5.92404e+07
5.90406e+07
5.87642e+07
5.84114e+07
5.79827e+07
5.74791e+07
5.6902e+07
5.62526e+07
5.55329e+07
5.47446e+07
5.38901e+07
5.29717e+07
5.19919e+07
5.09536e+07
4.98598e+07
4.87138e+07
4.75191e+07
4.62795e+07
4.49989e+07
4.36812e+07
4.23305e+07
4.09512e+07
3.95476e+07
3.81241e+07
3.6685e+07
3.52347e+07
3.37776e+07
3.2318e+07
3.08605e+07
2.94095e+07
2.79697e+07
2.65456e+07
2.51417e+07
2.37624e+07
2.24124e+07
2.10962e+07
1.98186e+07
1.85843e+07
1.73982e+07
1.6265e+07
1.51898e+07
1.41775e+07
1.32335e+07
1.23627e+07
1.15707e+07
1.08627e+07
1.02441e+07
9.72056e+06
9.29736e+06
8.97999e+06
8.77382e+06
8.68411e+06
8.71596e+06
8.87427e+06
9.1636e+06
9.58817e+06
1.01518e+07
1.08578e+07
1.17088e+07
1.2707e+07
1.38539e+07
1.515e+07
1.65954e+07
1.81893e+07
1.993e+07
2.1815e+07
2.38412e+07
2.60047e+07
2.83011e+07
3.07249e+07
3.32704e+07
3.5931e+07
3.87e+07
4.15703e+07
4.45342e+07
4.75843e+07
5.07125e+07
5.3911e+07
5.71716e+07
6.04862e+07
6.38465e+07
6.72441e+07
7.06705e+07
7.41166e+07
7.75734e+07
8.10316e+07
8.44812e+07
8.79118e+07
9.13127e+07
9.46725e+07
9.79793e+07
1.01221e+08
1.04385e+08
1.07459e+08
1.1043e+08
1.13287e+08
1.16019e+08
1.18616e+08
1.21067e+08
1.23366e+08
1.25505e+08
1.27479e+08
1.29285e+08
1.3092e+08
1.32385e+08
1.33682e+08
1.34817e+08
1.35797e+08
1.36632e+08
1.37333e+08
1.37914e+08
1.38388e+08
1.38771e+08
1.3908e+08
1.39335e+08
1.39557e+08
1.39769e+08
1.39996e+08
1.40268e+08
1.40617e+08
1.4108e+08
1.41695e+08
1.42504e+08
1.43556e+08
1.44902e+08
1.46598e+08
1.48702e+08
1.51278e+08
1.54389e+08
1.58094e+08
1.62455e+08
1.67528e+08
1.73365e+08
1.8001e+08
1.87501e+08
1.95864e+08
2.05112e+08
2.1525e+08
2.26272e+08
2.38154e+08
2.50872e+08
2.64385e+08
2.78648e+08
2.93602e+08
3.09195e+08
3.25366e+08
3.42046e+08
3.59163e+08
3.76644e+08
3.94409e+08
4.12369e+08
4.30434e+08
4.48482e+08
4.66378e+08
4.83959e+08
5.01063e+08
5.17462e+08
5.3292e+08
5.47155e+08
5.59866e+08
5.7072e+08
5.79397e+08
5.85571e+08
5.88952e+08
5.89281e+08
5.86382e+08
5.80125e+08
5.70522e+08
5.57648e+08
5.41759e+08
5.23161e+08
5.02335e+08
4.79743e+08
4.55894e+08
4.31156e+08
4.05955e+08
3.80502e+08
3.55036e+08
5.73557e+07
5.73027e+07
5.71831e+07
5.69916e+07
5.67269e+07
5.63894e+07
5.59803e+07
5.55006e+07
5.49512e+07
5.43333e+07
5.36484e+07
5.28983e+07
5.20847e+07
5.12098e+07
5.02758e+07
4.92854e+07
4.82412e+07
4.71465e+07
4.60044e+07
4.48184e+07
4.35922e+07
4.23297e+07
4.10349e+07
3.97117e+07
3.83642e+07
3.69964e+07
3.56123e+07
3.42162e+07
3.28122e+07
3.14048e+07
2.99983e+07
2.85971e+07
2.72055e+07
2.58278e+07
2.44685e+07
2.31318e+07
2.18222e+07
2.05441e+07
1.93022e+07
1.81012e+07
1.69457e+07
1.58406e+07
1.47907e+07
1.38011e+07
1.28769e+07
1.20233e+07
1.12456e+07
1.05492e+07
9.93938e+06
9.42168e+06
9.00151e+06
8.68431e+06
8.47548e+06
8.38027e+06
8.40377e+06
8.55087e+06
8.82612e+06
9.23376e+06
9.77759e+06
1.04609e+07
1.12863e+07
1.22559e+07
1.33712e+07
1.46328e+07
1.60406e+07
1.75937e+07
1.92905e+07
2.11286e+07
2.31048e+07
2.52154e+07
2.74558e+07
2.98207e+07
3.23043e+07
3.49002e+07
3.76019e+07
4.04021e+07
4.32935e+07
4.62687e+07
4.93197e+07
5.24388e+07
5.56179e+07
5.8849e+07
6.21238e+07
6.5434e+07
6.87712e+07
7.21266e+07
7.54913e+07
7.88558e+07
8.22106e+07
8.55455e+07
8.88497e+07
9.21122e+07
9.53215e+07
9.84657e+07
1.01533e+08
1.0451e+08
1.07386e+08
1.10151e+08
1.12792e+08
1.153e+08
1.17668e+08
1.19886e+08
1.2195e+08
1.23854e+08
1.25595e+08
1.27172e+08
1.28583e+08
1.29833e+08
1.30926e+08
1.31869e+08
1.32674e+08
1.33348e+08
1.33907e+08
1.34362e+08
1.3473e+08
1.35024e+08
1.35265e+08
1.35472e+08
1.35668e+08
1.35877e+08
1.36126e+08
1.36448e+08
1.36875e+08
1.37445e+08
1.38201e+08
1.39188e+08
1.40455e+08
1.42057e+08
1.44051e+08
1.46499e+08
1.4946e+08
1.52996e+08
1.57165e+08
1.62021e+08
1.67615e+08
1.73991e+08
1.81183e+08
1.89221e+08
1.98117e+08
2.07876e+08
2.1849e+08
2.29941e+08
2.42205e+08
2.55245e+08
2.69013e+08
2.83455e+08
2.98516e+08
3.14147e+08
3.30278e+08
3.46838e+08
3.63756e+08
3.80961e+08
3.98366e+08
4.1588e+08
4.33387e+08
4.50762e+08
4.67843e+08
4.84472e+08
5.00433e+08
5.15496e+08
5.29398e+08
5.41844e+08
5.52516e+08
5.6111e+08
5.67306e+08
5.70833e+08
5.71442e+08
5.68958e+08
5.63247e+08
5.54299e+08
5.42186e+08
5.27134e+08
5.09428e+08
4.89524e+08
4.67848e+08
4.44879e+08
4.20991e+08
3.96584e+08
3.71883e+08
3.47058e+08
5.44617e+07
5.44124e+07
5.43003e+07
5.4121e+07
5.38741e+07
5.35605e+07
5.31809e+07
5.27359e+07
5.22263e+07
5.1653e+07
5.10171e+07
5.03198e+07
4.95628e+07
4.87476e+07
4.78764e+07
4.69515e+07
4.59756e+07
4.49512e+07
4.38815e+07
4.27697e+07
4.16193e+07
4.04337e+07
3.92165e+07
3.79713e+07
3.67015e+07
3.5411e+07
3.41034e+07
3.27828e+07
3.14533e+07
3.01189e+07
2.87838e+07
2.74522e+07
2.61279e+07
2.48152e+07
2.35182e+07
2.22409e+07
2.09876e+07
1.97629e+07
1.8571e+07
1.74165e+07
1.63041e+07
1.52384e+07
1.42241e+07
1.32665e+07
1.23704e+07
1.1541e+07
1.07835e+07
1.01034e+07
9.50594e+06
8.99659e+06
8.58076e+06
8.26389e+06
8.05136e+06
7.94836e+06
7.96e+06
8.09115e+06
8.3464e+06
8.72994e+06
9.24553e+06
9.89639e+06
1.06852e+07
1.16141e+07
1.26843e+07
1.38965e+07
1.52506e+07
1.67457e+07
1.83801e+07
2.01515e+07
2.20568e+07
2.40923e+07
2.62533e+07
2.85348e+07
3.09311e+07
3.34359e+07
3.60427e+07
3.87445e+07
4.15341e+07
4.44043e+07
4.73473e+07
5.03554e+07
5.34208e+07
5.65354e+07
5.96912e+07
6.28801e+07
6.60934e+07
6.93228e+07
7.25595e+07
7.57943e+07
7.90177e+07
8.22196e+07
8.53897e+07
8.85171e+07
9.15907e+07
9.4599e+07
9.75304e+07
1.00373e+08
1.03117e+08
1.05751e+08
1.08264e+08
1.1065e+08
1.12898e+08
1.15004e+08
1.16961e+08
1.18765e+08
1.20414e+08
1.21905e+08
1.2324e+08
1.24422e+08
1.25455e+08
1.26347e+08
1.27106e+08
1.27743e+08
1.28269e+08
1.28696e+08
1.29039e+08
1.29311e+08
1.29531e+08
1.29715e+08
1.29887e+08
1.30069e+08
1.30285e+08
1.30565e+08
1.3094e+08
1.31447e+08
1.32125e+08
1.33018e+08
1.34174e+08
1.35644e+08
1.37482e+08
1.39748e+08
1.42499e+08
1.45796e+08
1.49694e+08
1.54245e+08
1.59498e+08
1.65495e+08
1.7227e+08
1.79852e+08
1.88255e+08
1.97483e+08
2.0753e+08
2.1838e+08
2.30011e+08
2.42392e+08
2.55472e+08
2.69204e+08
2.83532e+08
2.98413e+08
3.13785e+08
3.29579e+08
3.45723e+08
3.62156e+08
3.78795e+08
3.95548e+08
4.12307e+08
4.28954e+08
4.45337e+08
4.61299e+08
4.76642e+08
4.91142e+08
5.04555e+08
5.16601e+08
5.26984e+08
5.35419e+08
5.41602e+08
5.45278e+08
5.46207e+08
5.44223e+08
5.39192e+08
5.31088e+08
5.19971e+08
5.06031e+08
4.89532e+08
4.70885e+08
4.50475e+08
4.28743e+08
4.06052e+08
3.82776e+08
3.59153e+08
3.35334e+08
5.09395e+07
5.08955e+07
5.07936e+07
5.06306e+07
5.04069e+07
5.0123e+07
4.97792e+07
4.93758e+07
4.89136e+07
4.83931e+07
4.78149e+07
4.718e+07
4.64898e+07
4.57457e+07
4.49495e+07
4.41032e+07
4.32091e+07
4.22695e+07
4.12872e+07
4.0265e+07
3.9206e+07
3.81131e+07
3.69895e+07
3.58381e+07
3.46622e+07
3.34651e+07
3.22504e+07
3.10218e+07
2.97831e+07
2.8538e+07
2.72903e+07
2.60436e+07
2.48017e+07
2.35683e+07
2.23473e+07
2.11426e+07
1.99585e+07
1.8799e+07
1.76683e+07
1.65708e+07
1.55111e+07
1.44936e+07
1.35232e+07
1.26046e+07
1.1743e+07
1.09432e+07
1.02106e+07
9.55041e+06
8.96803e+06
8.46885e+06
8.05827e+06
7.74169e+06
7.52447e+06
7.41182e+06
7.40878e+06
7.52019e+06
7.75059e+06
8.10413e+06
8.58452e+06
9.195e+06
9.93821e+06
1.08162e+07
1.18302e+07
1.2981e+07
1.42683e+07
1.56911e+07
1.7248e+07
1.89365e+07
2.07537e+07
2.26958e+07
2.47584e+07
2.69366e+07
2.92246e+07
3.16165e+07
3.41058e+07
3.66859e+07
3.93497e+07
4.209e+07
4.48996e+07
4.77707e+07
5.06957e+07
5.36668e+07
5.66761e+07
5.97156e+07
6.2777e+07
6.58518e+07
6.89316e+07
7.20075e+07
7.50698e+07
7.81091e+07
8.11154e+07
8.4078e+07
8.69864e+07
8.98293e+07
9.25957e+07
9.52751e+07
9.7857e+07
1.00332e+08
1.02691e+08
1.04925e+08
1.07028e+08
1.08995e+08
1.10821e+08
1.12502e+08
1.14036e+08
1.15422e+08
1.16662e+08
1.1776e+08
1.18718e+08
1.19544e+08
1.20246e+08
1.20834e+08
1.21317e+08
1.21708e+08
1.22018e+08
1.2226e+08
1.22451e+08
1.22607e+08
1.22746e+08
1.22891e+08
1.23064e+08
1.23292e+08
1.23603e+08
1.24032e+08
1.24616e+08
1.25395e+08
1.26413e+08
1.27722e+08
1.29372e+08
1.31417e+08
1.33912e+08
1.36917e+08
1.40484e+08
1.44663e+08
1.49502e+08
1.55039e+08
1.61309e+08
1.6834e+08
1.76147e+08
1.84735e+08
1.94099e+08
2.04226e+08
2.15094e+08
2.26679e+08
2.38934e+08
2.51815e+08
2.65267e+08
2.79253e+08
2.93716e+08
3.08596e+08
3.23821e+08
3.39332e+08
3.55052e+08
3.70895e+08
3.86755e+08
4.02524e+08
4.18061e+08
4.33214e+08
4.47802e+08
4.61614e+08
4.74414e+08
4.85951e+08
4.95956e+08
5.04157e+08
5.10277e+08
5.14074e+08
5.15322e+08
5.13868e+08
5.09584e+08
5.02429e+08
4.92446e+08
4.79789e+08
4.64698e+08
4.47534e+08
4.28633e+08
4.08402e+08
3.87169e+08
3.65285e+08
3.42998e+08
3.20469e+08
4.7012e+07
4.6975e+07
4.68856e+07
4.67418e+07
4.65441e+07
4.62929e+07
4.59882e+07
4.56304e+07
4.52197e+07
4.47562e+07
4.42406e+07
4.36737e+07
4.30564e+07
4.23901e+07
4.16761e+07
4.0916e+07
4.01119e+07
3.92657e+07
3.83797e+07
3.74564e+07
3.64982e+07
3.55077e+07
3.44874e+07
3.34399e+07
3.2368e+07
3.12749e+07
3.01637e+07
2.90377e+07
2.79004e+07
2.67549e+07
2.56045e+07
2.44527e+07
2.33027e+07
2.21581e+07
2.10224e+07
1.98993e+07
1.87928e+07
1.77066e+07
1.66448e+07
1.56116e+07
1.46113e+07
1.36483e+07
1.27272e+07
1.18527e+07
1.10298e+07
1.02634e+07
9.55871e+06
8.92095e+06
8.35547e+06
7.86763e+06
7.4628e+06
7.14636e+06
6.92365e+06
6.79984e+06
6.77993e+06
6.86869e+06
7.07063e+06
7.38986e+06
7.83001e+06
8.39427e+06
9.08524e+06
9.90491e+06
1.08546e+07
1.19349e+07
1.31456e+07
1.44858e+07
1.59539e+07
1.75476e+07
1.92639e+07
2.10993e+07
2.30494e+07
2.51093e+07
2.72736e+07
2.95364e+07
3.18916e+07
3.43327e+07
3.68528e+07
3.9445e+07
4.21023e+07
4.48171e+07
4.7582e+07
5.03894e+07
5.32317e+07
5.6101e+07
5.89894e+07
6.18884e+07
6.47897e+07
6.76848e+07
7.05644e+07
7.34192e+07
7.62395e+07
7.90156e+07
8.17371e+07
8.43933e+07
8.69741e+07
8.94695e+07
9.18702e+07
9.41672e+07
9.63521e+07
9.84176e+07
1.00358e+08
1.02168e+08
1.03846e+08
1.05388e+08
1.06792e+08
1.0806e+08
1.09192e+08
1.10193e+08
1.11065e+08
1.11814e+08
1.12449e+08
1.12978e+08
1.1341e+08
1.13756e+08
1.14024e+08
1.14229e+08
1.14385e+08
1.14504e+08
1.14604e+08
1.14705e+08
1.14826e+08
1.14993e+08
1.15232e+08
1.15573e+08
1.16051e+08
1.16702e+08
1.17567e+08
1.18695e+08
1.20132e+08
1.2193e+08
1.2414e+08
1.26819e+08
1.30016e+08
1.3378e+08
1.38155e+08
1.4318e+08
1.48889e+08
1.55308e+08
1.62454e+08
1.70331e+08
1.7894e+08
1.88267e+08
1.98295e+08
2.09e+08
2.20347e+08
2.32293e+08
2.44786e+08
2.57792e+08
2.71261e+08
2.85138e+08
2.99355e+08
3.13855e+08
3.28567e+08
3.43406e+08
3.58276e+08
3.73074e+08
3.87672e+08
4.01923e+08
4.1566e+08
4.28694e+08
4.40794e+08
4.51736e+08
4.61281e+08
4.69178e+08
4.75174e+08
4.79038e+08
4.80569e+08
4.79631e+08
4.76096e+08
4.69913e+08
4.61106e+08
4.49804e+08
4.36216e+08
4.20652e+08
4.03401e+08
3.84832e+08
3.65229e+08
3.44918e+08
3.24149e+08
3.0311e+08
4.29042e+07
4.28747e+07
4.27988e+07
4.26754e+07
4.25048e+07
4.22873e+07
4.20229e+07
4.17116e+07
4.13533e+07
4.09482e+07
4.04967e+07
3.99995e+07
3.94573e+07
3.88709e+07
3.82416e+07
3.75706e+07
3.68594e+07
3.61098e+07
3.53236e+07
3.45027e+07
3.36489e+07
3.27644e+07
3.18511e+07
3.09114e+07
2.99478e+07
2.8963e+07
2.79598e+07
2.6941e+07
2.59095e+07
2.4868e+07
2.38196e+07
2.27671e+07
2.17136e+07
2.06623e+07
1.96163e+07
1.85792e+07
1.75545e+07
1.65457e+07
1.55567e+07
1.45914e+07
1.36538e+07
1.27483e+07
1.18793e+07
1.10515e+07
1.02695e+07
9.53833e+06
8.8631e+06
8.24898e+06
7.70125e+06
7.22526e+06
6.82634e+06
6.50981e+06
6.28096e+06
6.14493e+06
6.10668e+06
6.17096e+06
6.34219e+06
6.62441e+06
7.02121e+06
7.53573e+06
8.17047e+06
8.92738e+06
9.80771e+06
1.08121e+07
1.19402e+07
1.31914e+07
1.45638e+07
1.60553e+07
1.76628e+07
1.9383e+07
2.12115e+07
2.31438e+07
2.51745e+07
2.72981e+07
2.95084e+07
3.17993e+07
3.41642e+07
3.65964e+07
3.9089e+07
4.16348e+07
4.42266e+07
4.68572e+07
4.9519e+07
5.22044e+07
5.49057e+07
5.76149e+07
6.03236e+07
6.30237e+07
6.57062e+07
6.83621e+07
7.09824e+07
7.35576e+07
7.60781e+07
7.85341e+07
8.09161e+07
8.3215e+07
8.54222e+07
8.75298e+07
8.95302e+07
9.14171e+07
9.3185e+07
9.48306e+07
9.63508e+07
9.77447e+07
9.90117e+07
1.00153e+08
1.01169e+08
1.02064e+08
1.02842e+08
1.03508e+08
1.04069e+08
1.04532e+08
1.04905e+08
1.05197e+08
1.05418e+08
1.05579e+08
1.05692e+08
1.05769e+08
1.05824e+08
1.05875e+08
1.05939e+08
1.06039e+08
1.06199e+08
1.06447e+08
1.06812e+08
1.07328e+08
1.08033e+08
1.08968e+08
1.10181e+08
1.11718e+08
1.13629e+08
1.15965e+08
1.18774e+08
1.22101e+08
1.2599e+08
1.30478e+08
1.35598e+08
1.41377e+08
1.47831e+08
1.54968e+08
1.62788e+08
1.71283e+08
1.80438e+08
1.90233e+08
2.00637e+08
2.11614e+08
2.23117e+08
2.35114e+08
2.47558e+08
2.60398e+08
2.73574e+08
2.8703e+08
3.00697e+08
3.14493e+08
3.28332e+08
3.42117e+08
3.55729e+08
3.69027e+08
3.81856e+08
3.94048e+08
4.05387e+08
4.15669e+08
4.24681e+08
4.32202e+08
4.38003e+08
4.41867e+08
4.43619e+08
4.43138e+08
4.40298e+08
4.35042e+08
4.27378e+08
4.17421e+08
4.05341e+08
3.91403e+08
3.7585e+08
3.59009e+08
3.41119e+08
3.2248e+08
3.03334e+08
2.83904e+08
3.88291e+07
3.8807e+07
3.87445e+07
3.86412e+07
3.84974e+07
3.8313e+07
3.80878e+07
3.78217e+07
3.75146e+07
3.71667e+07
3.67781e+07
3.63492e+07
3.58804e+07
3.53725e+07
3.48262e+07
3.42425e+07
3.36226e+07
3.29678e+07
3.22794e+07
3.15587e+07
3.08073e+07
3.00268e+07
2.92189e+07
2.83857e+07
2.7529e+07
2.66514e+07
2.57551e+07
2.48425e+07
2.39158e+07
2.29775e+07
2.20303e+07
2.10765e+07
2.0119e+07
1.91605e+07
1.82041e+07
1.72526e+07
1.63095e+07
1.53779e+07
1.44615e+07
1.35639e+07
1.26891e+07
1.18411e+07
1.10242e+07
1.02429e+07
9.50185e+06
8.80592e+06
8.16012e+06
7.56958e+06
7.0395e+06
6.57519e+06
6.18193e+06
5.86499e+06
5.6296e+06
5.48085e+06
5.42367e+06
5.46275e+06
5.60245e+06
5.84673e+06
6.19911e+06
6.66266e+06
7.23981e+06
7.93243e+06
8.74173e+06
9.66825e+06
1.07118e+07
1.18715e+07
1.31457e+07
1.45321e+07
1.60278e+07
1.76295e+07
1.9333e+07
2.11339e+07
2.30269e+07
2.50068e+07
2.70676e+07
2.92034e+07
3.14079e+07
3.36745e+07
3.59967e+07
3.83676e+07
4.07802e+07
4.32275e+07
4.57022e+07
4.81969e+07
5.07042e+07
5.32163e+07
5.57252e+07
5.8223e+07
6.07011e+07
6.31512e+07
6.55645e+07
6.7932e+07
7.02449e+07
7.24944e+07
7.46717e+07
7.67687e+07
7.87775e+07
8.06912e+07
8.25029e+07
8.42075e+07
8.58002e+07
8.72779e+07
8.86386e+07
8.98819e+07
9.10085e+07
9.20192e+07
9.29159e+07
9.37019e+07
9.43814e+07
9.49589e+07
9.54404e+07
9.58322e+07
9.61409e+07
9.63745e+07
9.65425e+07
9.6654e+07
9.67187e+07
9.67481e+07
9.67541e+07
9.67509e+07
9.67546e+07
9.67855e+07
9.6864e+07
9.70147e+07
9.72651e+07
9.76446e+07
9.81866e+07
9.89305e+07
9.9918e+07
1.01194e+08
1.02805e+08
1.04798e+08
1.07216e+08
1.10105e+08
1.13507e+08
1.17457e+08
1.21989e+08
1.27128e+08
1.32892e+08
1.3929e+08
1.46325e+08
1.53994e+08
1.62282e+08
1.71176e+08
1.80647e+08
1.90665e+08
2.0119e+08
2.12193e+08
2.23626e+08
2.35442e+08
2.47587e+08
2.60008e+08
2.72636e+08
2.85397e+08
2.98208e+08
3.10978e+08
3.23592e+08
3.35918e+08
3.47818e+08
3.59135e+08
3.69673e+08
3.79249e+08
3.8767e+08
3.94746e+08
4.00274e+08
4.04057e+08
4.05946e+08
4.05828e+08
4.03588e+08
3.99163e+08
3.92555e+08
3.83862e+08
3.73221e+08
3.60859e+08
3.46975e+08
3.31849e+08
3.15679e+08
2.98737e+08
2.81253e+08
2.63481e+08
3.49738e+07
3.49585e+07
3.49082e+07
3.48236e+07
3.47047e+07
3.45512e+07
3.43627e+07
3.4139e+07
3.38801e+07
3.35857e+07
3.3256e+07
3.28911e+07
3.24912e+07
3.20567e+07
3.15883e+07
3.10865e+07
3.05522e+07
2.99862e+07
2.93893e+07
2.87628e+07
2.81077e+07
2.74251e+07
2.67167e+07
2.59838e+07
2.52281e+07
2.44517e+07
2.36563e+07
2.28438e+07
2.20162e+07
2.11755e+07
2.0324e+07
1.94637e+07
1.85972e+07
1.77268e+07
1.68551e+07
1.5985e+07
1.51193e+07
1.42611e+07
1.34136e+07
1.25803e+07
1.17651e+07
1.09717e+07
1.02043e+07
9.46722e+06
8.76508e+06
8.10263e+06
7.48476e+06
6.91652e+06
6.40306e+06
5.94961e+06
5.56139e+06
5.24362e+06
5.00148e+06
4.84004e+06
4.76415e+06
4.77843e+06
4.88718e+06
5.09429e+06
5.40319e+06
5.81682e+06
6.33755e+06
6.96719e+06
7.70685e+06
8.557e+06
9.5174e+06
1.05871e+07
1.17646e+07
1.30475e+07
1.44329e+07
1.59175e+07
1.74974e+07
1.91682e+07
2.09249e+07
2.27622e+07
2.46746e+07
2.66561e+07
2.87008e+07
3.08025e+07
3.29545e+07
3.51506e+07
3.7384e+07
3.96478e+07
4.19351e+07
4.42386e+07
4.65512e+07
4.88655e+07
5.11738e+07
5.34685e+07
5.57415e+07
5.79849e+07
6.01905e+07
6.235e+07
6.44552e+07
6.64982e+07
6.84712e+07
7.03665e+07
7.21775e+07
7.38979e+07
7.5522e+07
7.70455e+07
7.84642e+07
7.97755e+07
8.09786e+07
8.20732e+07
8.30605e+07
8.39416e+07
8.47187e+07
8.53949e+07
8.59741e+07
8.64609e+07
8.68605e+07
8.71781e+07
8.7419e+07
8.75903e+07
8.77004e+07
8.77576e+07
8.77702e+07
8.77477e+07
8.77006e+07
8.76407e+07
8.75825e+07
8.75431e+07
8.75402e+07
8.75952e+07
8.77327e+07
8.79794e+07
8.83651e+07
8.89255e+07
8.96982e+07
9.07246e+07
9.2047e+07
9.37084e+07
9.57512e+07
9.82185e+07
1.0115e+08
1.04582e+08
1.08547e+08
1.13068e+08
1.18167e+08
1.23856e+08
1.30139e+08
1.37015e+08
1.44473e+08
1.52506e+08
1.61087e+08
1.7019e+08
1.79783e+08
1.89837e+08
2.00308e+08
2.11148e+08
2.22306e+08
2.33733e+08
2.45363e+08
2.57127e+08
2.68943e+08
2.80722e+08
2.92356e+08
3.03719e+08
3.14692e+08
3.25122e+08
3.34841e+08
3.43679e+08
3.51466e+08
3.58034e+08
3.63214e+08
3.66826e+08
3.6875e+08
3.68882e+08
3.67117e+08
3.63396e+08
3.5772e+08
3.50164e+08
3.40844e+08
3.29951e+08
3.17645e+08
3.04158e+08
2.89657e+08
2.74378e+08
2.5854e+08
2.42417e+08
3.14898e+07
3.14801e+07
3.14405e+07
3.13725e+07
3.12757e+07
3.11499e+07
3.09945e+07
3.08092e+07
3.05936e+07
3.03477e+07
3.00711e+07
2.97639e+07
2.94261e+07
2.9058e+07
2.86597e+07
2.82317e+07
2.77743e+07
2.72881e+07
2.67737e+07
2.62319e+07
2.56635e+07
2.50693e+07
2.44504e+07
2.38081e+07
2.31436e+07
2.24584e+07
2.1754e+07
2.10319e+07
2.02938e+07
1.95412e+07
1.87761e+07
1.80004e+07
1.7216e+07
1.64251e+07
1.56301e+07
1.48334e+07
1.40377e+07
1.32457e+07
1.24605e+07
1.16854e+07
1.0924e+07
1.018e+07
9.45733e+06
8.76028e+06
8.09328e+06
7.46099e+06
6.86826e+06
6.32003e+06
5.82137e+06
5.37742e+06
4.99336e+06
4.67435e+06
4.42552e+06
4.2519e+06
4.1583e+06
4.14923e+06
4.22892e+06
4.40115e+06
4.66925e+06
5.03604e+06
5.50381e+06
6.07424e+06
6.74838e+06
7.5266e+06
8.40858e+06
9.39335e+06
1.04793e+07
1.1664e+07
1.29448e+07
1.43181e+07
1.57801e+07
1.73266e+07
1.89529e+07
2.06536e+07
2.24234e+07
2.42567e+07
2.61476e+07
2.80899e+07
3.00775e+07
3.21042e+07
3.41635e+07
3.6249e+07
3.83538e+07
4.0471e+07
4.25937e+07
4.47149e+07
4.68272e+07
4.89235e+07
5.09961e+07
5.30375e+07
5.50402e+07
5.69966e+07
5.88992e+07
6.07408e+07
6.25144e+07
6.42132e+07
6.58313e+07
6.73634e+07
6.88048e+07
7.01519e+07
7.14016e+07
7.25515e+07
7.36014e+07
7.45516e+07
7.54032e+07
7.61577e+07
7.68173e+07
7.7385e+07
7.78644e+07
7.826e+07
7.85762e+07
7.88172e+07
7.89881e+07
7.90949e+07
7.91445e+07
7.91442e+07
7.91014e+07
7.90239e+07
7.89212e+07
7.88032e+07
7.86827e+07
7.85742e+07
7.84928e+07
7.84569e+07
7.84883e+07
7.86113e+07
7.88527e+07
7.92439e+07
7.98189e+07
8.06144e+07
8.16693e+07
8.30241e+07
8.47187e+07
8.67936e+07
8.92875e+07
9.2236e+07
9.56698e+07
9.96152e+07
1.04094e+08
1.09121e+08
1.14702e+08
1.20841e+08
1.27529e+08
1.34762e+08
1.42518e+08
1.50774e+08
1.59503e+08
1.68677e+08
1.78256e+08
1.88191e+08
1.98431e+08
2.0893e+08
2.19628e+08
2.30451e+08
2.41324e+08
2.52156e+08
2.62846e+08
2.73278e+08
2.83338e+08
2.92889e+08
3.01784e+08
3.09867e+08
3.16985e+08
3.22993e+08
3.27754e+08
3.31106e+08
3.32956e+08
3.33215e+08
3.31791e+08
3.28634e+08
3.23741e+08
3.17171e+08
3.09022e+08
2.99451e+08
2.88591e+08
2.76624e+08
2.63696e+08
2.5e+08
2.35745e+08
2.21217e+08
2.84872e+07
2.84817e+07
2.84508e+07
2.83966e+07
2.83188e+07
2.82167e+07
2.80899e+07
2.79379e+07
2.77601e+07
2.75563e+07
2.7326e+07
2.7069e+07
2.67853e+07
2.64747e+07
2.61373e+07
2.57731e+07
2.53823e+07
2.49653e+07
2.45222e+07
2.40537e+07
2.35601e+07
2.30421e+07
2.25005e+07
2.19362e+07
2.13503e+07
2.07438e+07
2.01178e+07
1.94735e+07
1.88124e+07
1.81357e+07
1.7445e+07
1.67419e+07
1.6028e+07
1.53055e+07
1.45763e+07
1.38426e+07
1.31069e+07
1.23717e+07
1.16401e+07
1.0915e+07
1.01998e+07
9.49817e+06
8.81392e+06
8.15115e+06
7.51423e+06
6.90772e+06
6.33639e+06
5.80511e+06
5.31886e+06
4.88271e+06
4.50179e+06
4.18123e+06
3.92608e+06
3.74131e+06
3.63163e+06
3.60148e+06
3.65501e+06
3.7959e+06
4.02736e+06
4.35208e+06
4.77221e+06
5.28932e+06
5.90433e+06
6.61749e+06
7.42839e+06
8.33594e+06
9.33845e+06
1.04336e+07
1.16185e+07
1.28896e+07
1.42432e+07
1.56751e+07
1.71806e+07
1.87546e+07
2.03918e+07
2.20867e+07
2.38336e+07
2.56265e+07
2.74594e+07
2.93263e+07
3.12212e+07
3.31376e+07
3.50692e+07
3.70093e+07
3.89512e+07
4.08883e+07
4.28135e+07
4.47202e+07
4.66012e+07
4.84495e+07
5.02582e+07
5.20203e+07
5.3729e+07
5.53778e+07
5.69604e+07
5.84711e+07
5.99046e+07
6.12566e+07
6.25234e+07
6.37018e+07
6.47896e+07
6.57851e+07
6.66883e+07
6.74996e+07
6.82206e+07
6.88528e+07
6.93981e+07
6.98598e+07