/*--------------------------------*- C++ -*----------------------------------*\
| =========                 |                                                 |
| \\      /  F ield         | OpenFOAM: The Open Source CFD Toolbox           |
|  \\    /   O peration     | Version:  dev                                   |
|   \\  /    A nd           | Web:      http://www.openfoam.org               |
|    \\/     M anipulation  |                                                 |
\*---------------------------------------------------------------------------*/
FoamFile
{
    version     2.0;
    format      ascii;
    class       volScalarField;
    object      rho;
    location    "9.143";
}
// * * * * * * * * * * * * * * * * * * * * * * * * * * * * * * * * * * * * * //

dimensions      [1 -3 0 0 0 0 0];

internalField   nonuniform List<scalar> 
12225
(
1.05941
1.05628
1.05568
1.0567
1.05761
1.05952
1.06064
1.06326
1.06469
1.0674
1.0699
1.07219
1.07516
1.07736
1.08382
1.08103
1.09256
1.09207
1.05798
1.05382
1.055
1.05806
1.06008
1.0637
1.06453
1.06881
1.06957
1.07271
1.07596
1.07684
1.08125
1.08202
1.09112
1.08745
1.09837
1.10843
1.05729
1.05328
1.05491
1.05834
1.06141
1.06492
1.0677
1.07094
1.0748
1.07535
1.08186
1.0806
1.08813
1.08607
1.09463
1.09528
1.1055
1.11461
1.05761
1.05263
1.05582
1.05698
1.06269
1.06325
1.06975
1.06865
1.0771
1.07533
1.08304
1.0827
1.09128
1.08746
1.09816
1.09424
1.10459
1.11205
1.05892
1.05201
1.05728
1.05589
1.06288
1.06255
1.06979
1.06869
1.07632
1.07566
1.08312
1.08567
1.09147
1.09023
1.09891
1.09551
1.10594
1.11087
1.05991
1.05272
1.05771
1.05642
1.0633
1.06306
1.06974
1.06943
1.07621
1.07764
1.08415
1.08403
1.09323
1.09388
1.09979
1.0962
1.10459
1.10958
1.06077
1.05321
1.05802
1.05798
1.06432
1.06436
1.06927
1.07028
1.07734
1.07872
1.08247
1.08432
1.09354
1.0955
1.0987
1.09768
1.10153
1.10597
1.06199
1.05331
1.05804
1.059
1.06489
1.06425
1.06859
1.07098
1.07787
1.07743
1.08245
1.08311
1.09148
1.09303
1.09853
1.09751
1.09912
1.10482
1.06341
1.05374
1.05964
1.05962
1.06565
1.06384
1.06946
1.07087
1.07855
1.07664
1.08247
1.08192
1.09068
1.09125
1.09729
1.09766
1.1011
1.10316
1.06501
1.05455
1.06117
1.05998
1.06607
1.0647
1.07072
1.07193
1.0785
1.07697
1.08235
1.08273
1.08976
1.09236
1.0963
1.09703
1.1012
1.10175
1.06653
1.05656
1.06267
1.06112
1.06696
1.06575
1.07197
1.073
1.07836
1.07742
1.08231
1.08399
1.08928
1.0926
1.09514
1.09702
1.09869
1.10054
1.06838
1.05924
1.06417
1.06328
1.06775
1.0677
1.07263
1.07419
1.07835
1.0783
1.08249
1.08419
1.08853
1.09187
1.09427
1.09567
1.09734
1.09933
1.07039
1.06284
1.06622
1.06612
1.06917
1.06991
1.07348
1.07531
1.07804
1.07891
1.08204
1.08419
1.08737
1.09024
1.09241
1.09429
1.0958
1.09778
1.07408
1.06754
1.06906
1.06944
1.07141
1.07238
1.07493
1.07644
1.07848
1.07983
1.08233
1.08433
1.08689
1.08921
1.09107
1.09294
1.09447
1.09621
1.07877
1.07309
1.07338
1.07393
1.07503
1.07608
1.07749
1.07875
1.08026
1.08176
1.0836
1.0852
1.08692
1.08875
1.09045
1.09219
1.09364
1.09516
1.08572
1.08012
1.07941
1.07968
1.08035
1.08096
1.08159
1.08255
1.08375
1.08494
1.08617
1.08731
1.08852
1.09005
1.09146
1.09294
1.09427
1.09544
1.09446
1.08891
1.08791
1.08792
1.08807
1.08807
1.08818
1.08894
1.08965
1.09025
1.09107
1.09184
1.09285
1.09414
1.09516
1.09637
1.09736
1.09819
1.10494
1.09956
1.09849
1.09819
1.09799
1.09781
1.09786
1.09841
1.09876
1.09916
1.09988
1.10022
1.10108
1.10203
1.10265
1.10366
1.10444
1.10514
1.11488
1.11021
1.10919
1.10891
1.10891
1.10889
1.10899
1.10924
1.10962
1.11035
1.1108
1.1107
1.11157
1.11237
1.11281
1.11379
1.11475
1.11507
1.12342
1.1194
1.11885
1.1193
1.11936
1.11932
1.11976
1.11997
1.12072
1.12172
1.12144
1.12114
1.12244
1.12352
1.12386
1.12509
1.12588
1.1257
1.1305
1.12727
1.12761
1.1284
1.12833
1.12852
1.12928
1.12948
1.13062
1.13184
1.13099
1.13104
1.13317
1.13366
1.1342
1.13567
1.13535
1.13558
1.13603
1.13364
1.1345
1.13599
1.13669
1.1367
1.13727
1.13815
1.13939
1.14054
1.14042
1.14139
1.14319
1.1425
1.14342
1.14443
1.14331
1.14446
1.14086
1.13888
1.13947
1.14131
1.14279
1.14346
1.14443
1.1451
1.14506
1.14563
1.14796
1.14996
1.15001
1.14992
1.15072
1.15049
1.15021
1.15148
1.1441
1.14335
1.14413
1.145
1.14693
1.14937
1.15106
1.15086
1.14973
1.15075
1.15403
1.15542
1.15513
1.15616
1.15665
1.15616
1.15708
1.15759
1.14678
1.14604
1.14757
1.1493
1.15039
1.15194
1.15391
1.15483
1.15494
1.15623
1.1581
1.15831
1.15866
1.16002
1.1602
1.16095
1.16208
1.16203
1.14848
1.1481
1.14947
1.15162
1.1533
1.15436
1.15565
1.15721
1.15828
1.15914
1.16046
1.16142
1.16191
1.16282
1.16366
1.16408
1.16486
1.16524
1.14943
1.14915
1.1507
1.15272
1.15464
1.15631
1.15768
1.15886
1.16007
1.16125
1.16248
1.16361
1.16465
1.16558
1.16638
1.16704
1.16764
1.16807
1.15059
1.1506
1.1521
1.15409
1.15594
1.1576
1.15918
1.16067
1.16217
1.16356
1.16491
1.16605
1.16713
1.16799
1.16876
1.16928
1.16974
1.16989
1.15112
1.15114
1.15269
1.15477
1.15671
1.15844
1.16006
1.16155
1.16292
1.16407
1.16496
1.16561
1.16606
1.16624
1.16633
1.16619
1.16609
1.16548
1.15124
1.1516
1.15218
1.15302
1.15387
1.15455
1.15508
1.15542
1.15563
1.15571
1.15567
1.15554
1.15533
1.15504
1.15469
1.15431
1.15386
1.15334
1.2928
1.32291
1.3242
1.32544
1.32392
1.32292
1.32042
1.31772
1.31413
1.31013
1.3059
1.30164
1.29751
1.29359
1.28986
1.28657
1.28335
1.28066
1.27877
1.27655
1.27446
1.27319
1.2711
1.26754
1.26518
1.26474
1.26164
1.26147
1.26425
1.26408
1.26547
1.25444
1.23294
1.22756
1.23373
1.2371
1.23833
1.23896
1.23936
1.23934
1.23815
1.23491
1.22937
1.22142
1.21121
1.19943
1.18921
1.18173
1.17433
1.16626
1.15841
1.15136
1.14546
1.14161
1.13953
1.13692
1.13273
1.12792
1.12372
1.12023
1.11757
1.11547
1.11357
1.1118
1.11005
1.10838
1.10683
1.10533
1.10408
1.10313
1.1024
1.1022
1.10221
1.1025
1.10333
1.10518
1.10811
1.11106
1.11291
1.11238
1.10996
1.10628
1.10221
1.09812
1.09459
1.09207
1.09084
1.09092
1.09227
1.09497
1.09856
1.10271
1.10636
1.1091
1.11133
1.11467
1.11877
1.12012
1.12084
1.12227
1.12436
1.12566
1.13025
1.13273
1.13112
1.13132
1.13502
1.13801
1.1362
1.13288
1.13862
1.15255
1.16784
1.18546
1.19289
1.20204
1.22416
1.23346
1.21395
1.18819
1.18817
1.17975
1.15333
1.13145
1.13248
1.14747
1.14581
1.1445
1.15256
1.15776
1.15711
1.15113
1.14112
1.11836
1.11222
1.11727
1.11439
1.09777
1.10057
1.09685
1.08496
1.09016
1.07566
1.08917
1.08296
1.08993
1.08506
1.09461
1.09171
1.08616
1.08214
1.08062
1.0817
1.08193
1.08074
1.08027
1.08289
1.09011
1.09862
1.11009
1.11929
1.12694
1.13206
1.12898
1.13862
1.14061
1.14549
1.15332
1.15549
1.17902
1.16276
1.14828
1.13121
1.13111
1.14311
1.13148
1.12039
1.1122
1.11676
1.12318
1.28083
1.32491
1.33427
1.33535
1.33346
1.33022
1.32653
1.3224
1.3176
1.31207
1.30639
1.30051
1.29516
1.29035
1.2852
1.28199
1.27815
1.27087
1.27115
1.27042
1.25869
1.25978
1.26329
1.25449
1.25368
1.25494
1.24934
1.24877
1.24842
1.2408
1.24291
1.25827
1.26554
1.26336
1.26471
1.26363
1.25475
1.2491
1.2551
1.26303
1.26722
1.26806
1.26426
1.25871
1.25923
1.25936
1.24614
1.22853
1.22672
1.23713
1.23754
1.21343
1.1743
1.15175
1.15518
1.16068
1.15312
1.14196
1.13725
1.13598
1.13672
1.14039
1.14589
1.15185
1.15708
1.16098
1.16329
1.16415
1.16392
1.16366
1.16542
1.17034
1.17565
1.17727
1.17249
1.16232
1.14996
1.13735
1.12528
1.11397
1.10438
1.09599
1.08948
1.08522
1.08364
1.084
1.08608
1.08953
1.0943
1.1004
1.10684
1.11356
1.11865
1.12058
1.1195
1.11981
1.12152
1.11901
1.11948
1.12446
1.12463
1.12552
1.1333
1.13732
1.12705
1.12072
1.14025
1.15112
1.14966
1.17291
1.19621
1.19731
1.20674
1.24576
1.28414
1.31247
1.32967
1.31379
1.29024
1.29102
1.30025
1.24947
1.18912
1.17486
1.17749
1.15217
1.14014
1.17151
1.19648
1.21995
1.2269
1.21244
1.19426
1.16932
1.16278
1.1748
1.17383
1.14903
1.16253
1.15222
1.1292
1.13304
1.10897
1.13763
1.14215
1.15191
1.1478
1.14769
1.15323
1.1541
1.13539
1.11879
1.10956
1.10335
1.11524
1.1291
1.13484
1.14433
1.14659
1.16241
1.1943
1.20104
1.22655
1.24281
1.26853
1.26085
1.282
1.31463
1.3137
1.35947
1.33451
1.27691
1.22379
1.24196
1.25824
1.20164
1.16635
1.16081
1.19165
1.19355
1.25934
1.29294
1.31572
1.32328
1.32031
1.31508
1.31098
1.30777
1.30535
1.30293
1.30113
1.29794
1.29368
1.29353
1.28941
1.28578
1.28909
1.28066
1.27564
1.28142
1.2724
1.27175
1.27426
1.26355
1.26462
1.26237
1.2527
1.24994
1.24577
1.24496
1.24831
1.23102
1.22261
1.25056
1.2664
1.25297
1.24753
1.25771
1.26246
1.24989
1.23792
1.2411
1.23914
1.22387
1.21247
1.21338
1.22083
1.22165
1.21263
1.20027
1.18708
1.17498
1.16172
1.15006
1.14513
1.14442
1.14623
1.15031
1.15574
1.16062
1.16578
1.17051
1.17376
1.1757
1.1758
1.17446
1.17316
1.17391
1.17822
1.18487
1.19019
1.1904
1.18306
1.16906
1.15095
1.13213
1.11577
1.10408
1.09784
1.09551
1.09484
1.09484
1.09585
1.09759
1.09962
1.1017
1.10319
1.10497
1.10642
1.10831
1.11007
1.11305
1.11768
1.12134
1.12086
1.11663
1.11465
1.11741
1.1192
1.12102
1.11921
1.11866
1.11793
1.11217
1.10076
1.09187
1.10879
1.14277
1.15096
1.15621
1.17769
1.17685
1.18032
1.22479
1.2891
1.33338
1.32799
1.28414
1.26746
1.28101
1.26907
1.21876
1.18487
1.18093
1.1602
1.12735
1.15022
1.18511
1.20412
1.23551
1.23394
1.22626
1.22785
1.20089
1.17894
1.19564
1.18017
1.16369
1.17639
1.15287
1.14114
1.09929
1.1405
1.07637
1.13539
1.14161
1.13776
1.07516
1.07914
1.13507
1.16073
1.13995
1.09821
1.06079
1.0655
1.09289
1.1249
1.158
1.16904
1.1704
1.21102
1.20086
1.19641
1.23721
1.31552
1.30038
1.3473
1.38443
1.43029
1.44251
1.40158
1.31809
1.28236
1.3327
1.30515
1.22088
1.19563
1.22215
1.25727
1.23581
1.2489
1.2689
1.28455
1.29045
1.28816
1.28322
1.27901
1.27537
1.27332
1.27175
1.27066
1.27094
1.26641
1.2667
1.27066
1.26874
1.27088
1.26676
1.27018
1.26837
1.26353
1.27234
1.25991
1.26513
1.26585
1.25427
1.26055
1.24797
1.25727
1.25501
1.23307
1.24593
1.25772
1.23535
1.22742
1.24371
1.25503
1.25996
1.25967
1.24989
1.2444
1.24301
1.22992
1.21785
1.21195
1.20588
1.19991
1.19614
1.18655
1.17374
1.16285
1.15332
1.14621
1.14336
1.1438
1.14535
1.14785
1.15001
1.15082
1.15102
1.1512
1.15098
1.15146
1.15205
1.15099
1.14824
1.1453
1.14398
1.14499
1.14672
1.14705
1.1442
1.1373
1.12772
1.11788
1.11004
1.10545
1.10493
1.1076
1.11091
1.11207
1.11147
1.10999
1.10781
1.10531
1.10353
1.10187
1.10093
1.10018
1.09987
1.09975
1.10026
1.10113
1.10145
1.10119
1.09507
1.09328
1.1019
1.11133
1.11382
1.11524
1.11532
1.11662
1.10653
1.09212
1.09061
1.10175
1.1361
1.16077
1.1705
1.19079
1.18935
1.16231
1.16989
1.2416
1.32039
1.34339
1.30845
1.27477
1.25954
1.23683
1.20555
1.18953
1.17583
1.14208
1.12911
1.16012
1.16838
1.19294
1.23971
1.24575
1.23303
1.23131
1.21661
1.19005
1.17043
1.13772
1.18118
1.13954
1.09796
1.13918
1.00197
1.16896
1.01015
1.07677
1.11095
1.1711
1.08534
1.02522
1.03778
1.09836
1.16288
1.16239
1.10304
1.07034
1.06022
1.09026
1.14848
1.17513
1.17136
1.21396
1.20486
1.1587
1.18258
1.28468
1.28394
1.36156
1.40342
1.50844
1.42442
1.40399
1.33351
1.33268
1.37963
1.29684
1.23124
1.23357
1.28116
1.28242
1.26232
1.24051
1.25418
1.25894
1.25708
1.25376
1.25106
1.2511
1.25068
1.25029
1.25086
1.24957
1.24975
1.25065
1.25011
1.25717
1.25542
1.25569
1.26392
1.25864
1.25725
1.25963
1.25208
1.2521
1.2532
1.24778
1.24544
1.24165
1.25326
1.23918
1.22825
1.25106
1.23322
1.20943
1.21976
1.23255
1.23464
1.24591
1.23575
1.2232
1.2402
1.25977
1.23418
1.20834
1.21204
1.20738
1.19851
1.19124
1.18179
1.17302
1.16591
1.15917
1.15421
1.15227
1.1526
1.15301
1.15327
1.1531
1.15003
1.14464
1.13925
1.13486
1.1323
1.13179
1.13165
1.13044
1.12798
1.12556
1.12507
1.12661
1.128
1.12713
1.12423
1.12152
1.11917
1.11681
1.11493
1.11409
1.11347
1.112
1.10911
1.10456
1.10005
1.09645
1.0936
1.09246
1.0932
1.09448
1.09574
1.09662
1.09718
1.09755
1.09953
1.1025
1.10363
1.1116
1.1105
1.10763
1.10611
1.09066
1.09084
1.09232
1.09486
1.10476
1.12219
1.11702
1.10347
1.10175
1.1178
1.13439
1.14231
1.16766
1.19891
1.19414
1.16736
1.19747
1.29127
1.327
1.28547
1.25494
1.23713
1.22431
1.2115
1.19975
1.1775
1.14535
1.13901
1.14518
1.13647
1.15631
1.21366
1.24844
1.22483
1.20791
1.21042
1.17029
1.11338
1.08631
1.21018
1.11649
1.0471
1.18083
0.990304
1.16872
1.0436
1.03214
1.01183
1.13009
1.15333
1.10977
1.05769
1.04513
1.11581
1.15897
1.11366
1.09015
1.0589
1.06386
1.12967
1.17808
1.1698
1.20508
1.2087
1.13551
1.14138
1.23453
1.23543
1.32666
1.39833
1.5298
1.39092
1.42977
1.38132
1.3792
1.38793
1.2803
1.24874
1.26007
1.27801
1.23416
1.29051
1.23123
1.24064
1.24041
1.23852
1.24088
1.24351
1.24751
1.25031
1.25192
1.25352
1.25503
1.25562
1.26038
1.26606
1.2712
1.27651
1.28198
1.28495
1.27478
1.27141
1.26735
1.25689
1.26159
1.25725
1.25108
1.24677
1.24043
1.24763
1.2411
1.23658
1.23535
1.2407
1.23541
1.23302
1.23201
1.22788
1.22176
1.21563
1.23603
1.2411
1.22473
1.20609
1.21057
1.21215
1.19709
1.18762
1.17886
1.17258
1.16844
1.16329
1.1595
1.15759
1.15753
1.15753
1.15671
1.15634
1.15538
1.15233
1.14835
1.14435
1.14106
1.14011
1.14081
1.14099
1.13892
1.13483
1.13049
1.12756
1.12618
1.12527
1.12406
1.12228
1.12071
1.11996
1.11967
1.11798
1.11413
1.10955
1.10488
1.0998
1.09599
1.09444
1.0933
1.09283
1.09406
1.09646
1.09968
1.10353
1.10617
1.10859
1.10789
1.10696
1.10741
1.10012
1.10287
1.11416
1.12288
1.14704
1.14385
1.13728
1.12657
1.10868
1.11015
1.13895
1.1455
1.13376
1.12913
1.13699
1.1275
1.10249
1.09319
1.11874
1.17021
1.17623
1.18368
1.25895
1.30124
1.28038
1.25163
1.22643
1.22045
1.21711
1.20844
1.18386
1.15637
1.14776
1.1435
1.12383
1.11299
1.17037
1.23756
1.23143
1.19694
1.20603
1.19123
1.11354
1.0766
1.19231
1.12084
1.04516
1.17284
1.06405
1.15325
1.0853
1.05904
0.999643
1.08723
1.16723
1.11543
1.06925
1.03136
1.08706
1.15451
1.11107
1.10686
1.06085
1.04233
1.11805
1.1801
1.15949
1.20266
1.2004
1.09534
1.10326
1.19316
1.19581
1.28017
1.37442
1.51382
1.41209
1.43941
1.41201
1.41082
1.37989
1.26818
1.25927
1.2536
1.25459
1.23382
1.31079
1.22134
1.22684
1.22682
1.23039
1.23791
1.24264
1.24438
1.24415
1.24301
1.24134
1.24359
1.24758
1.25333
1.26304
1.27243
1.27729
1.27933
1.27799
1.26588
1.25238
1.25123
1.25106
1.24782
1.24623
1.24131
1.23727
1.24077
1.23659
1.22678
1.22946
1.23633
1.2381
1.23868
1.23816
1.21637
1.21511
1.21737
1.23458
1.24245
1.22742
1.21803
1.20296
1.19926
1.19658
1.18651
1.18083
1.17334
1.16775
1.16503
1.16047
1.15791
1.15613
1.15436
1.1525
1.15039
1.14872
1.14661
1.14352
1.1407
1.13793
1.13541
1.13412
1.13362
1.1337
1.13375
1.13245
1.12959
1.12627
1.1238
1.12282
1.12216
1.12125
1.12036
1.12022
1.11865
1.11474
1.10932
1.10338
1.09776
1.09444
1.0942
1.09481
1.09448
1.09321
1.09175
1.09067
1.09069
1.0963
1.09928
1.10614
1.10729
1.10301
1.10168
1.091
1.08263
1.08468
1.07964
1.08579
1.09307
1.09941
1.12983
1.13301
1.11296
1.11173
1.10408
1.09857
1.10024
1.11235
1.11321
1.0921
1.08185
1.08788
1.13409
1.1642
1.16431
1.2193
1.27101
1.26879
1.24802
1.22053
1.21782
1.21974
1.20704
1.18021
1.15182
1.13608
1.1432
1.13927
1.11066
1.12599
1.17162
1.20717
1.20589
1.20214
1.15994
1.10737
1.13975
1.2545
1.14816
1.04241
1.13987
1.08238
1.17648
1.1405
1.09692
1.05616
1.12761
1.20132
1.10823
1.0777
1.03523
1.08057
1.13642
1.08825
1.11499
1.0546
1.04022
1.13357
1.16136
1.13902
1.21429
1.18749
1.0557
1.07572
1.16694
1.16971
1.2456
1.35065
1.49098
1.44667
1.42386
1.41274
1.42918
1.36775
1.26445
1.27201
1.26894
1.3085
1.31426
1.32325
1.21251
1.21708
1.22049
1.22757
1.2337
1.23332
1.22816
1.22459
1.2263
1.22995
1.23708
1.24727
1.26007
1.26974
1.27456
1.27998
1.27874
1.27153
1.26384
1.25506
1.25151
1.2511
1.25172
1.25262
1.25306
1.24364
1.22486
1.2138
1.21002
1.21142
1.22245
1.22911
1.22182
1.20901
1.21753
1.22712
1.2289
1.24223
1.2273
1.21873
1.21251
1.20326
1.20105
1.1904
1.18208
1.17812
1.16721
1.16156
1.16275
1.16168
1.16144
1.15982
1.15702
1.15475
1.15186
1.14925
1.14685
1.14464
1.14299
1.14114
1.13925
1.13755
1.13619
1.13506
1.13373
1.13209
1.1301
1.12797
1.12529
1.1229
1.12187
1.12237
1.12318
1.12178
1.11796
1.11317
1.10736
1.10106
1.09674
1.09583
1.0975
1.09991
1.1009
1.10003
1.09688
1.0957
1.09008
1.09693
1.09994
1.10906
1.12033
1.11914
1.13098
1.11723
1.11109
1.09491
1.0996
1.10508
1.11346
1.09003
1.07919
1.11405
1.13105
1.13717
1.13287
1.12705
1.12549
1.11978
1.11735
1.09152
1.06975
1.08011
1.13437
1.16904
1.15217
1.18849
1.25076
1.26293
1.24821
1.2148
1.21137
1.21003
1.18741
1.16086
1.13891
1.12718
1.13873
1.15555
1.1367
1.11847
1.1288
1.14804
1.17096
1.19862
1.16632
1.09374
1.10124
1.15637
1.09234
1.03965
1.143
1.02708
1.16343
1.14442
1.08138
1.07512
1.1433
1.21173
1.07984
1.06935
1.03344
1.07298
1.11977
1.08257
1.13006
1.06363
1.06355
1.15587
1.12891
1.11439
1.21731
1.18676
1.05917
1.08504
1.16703
1.15473
1.21696
1.33095
1.47369
1.46224
1.40695
1.40783
1.43824
1.35134
1.26666
1.2877
1.29625
1.3568
1.35189
1.3467
1.20432
1.20928
1.21412
1.22104
1.22427
1.22044
1.21483
1.21593
1.22623
1.2379
1.24969
1.26497
1.27946
1.29026
1.29356
1.28984
1.28909
1.28661
1.28085
1.2757
1.27571
1.27057
1.263
1.26692
1.27621
1.26836
1.24414
1.22799
1.22152
1.2136
1.20789
1.2039
1.20715
1.22402
1.23707
1.22892
1.23633
1.23059
1.22065
1.23041
1.22107
1.21021
1.19998
1.18666
1.18277
1.17776
1.16602
1.16317
1.16733
1.16851
1.16779
1.1645
1.16129
1.15906
1.15659
1.15446
1.15171
1.1484
1.14556
1.14357
1.14208
1.14016
1.13757
1.13524
1.13369
1.13173
1.12916
1.12611
1.1237
1.12312
1.12439
1.12662
1.12643
1.12311
1.11783
1.11099
1.1031
1.09705
1.09492
1.09584
1.09894
1.10204
1.10368
1.10475
1.1001
1.10441
1.09936
1.09982
1.10757
1.10179
1.11352
1.09709
1.11532
1.10685
1.11837
1.10008
1.09528
1.09746
1.09941
1.12277
1.10439
1.08542
1.08798
1.11188
1.13251
1.13446
1.14013
1.1411
1.14209
1.12814
1.08346
1.05391
1.10735
1.16143
1.14783
1.17474
1.24223
1.26058
1.25318
1.21234
1.19643
1.19758
1.17849
1.15154
1.13682
1.11451
1.10561
1.12385
1.14739
1.12709
1.12277
1.12424
1.11548
1.13951
1.20579
1.11813
1.09104
1.04435
1.04735
1.11751
1.16778
1.06671
1.14239
1.13031
1.06579
1.06416
1.09409
1.1533
1.04584
1.05821
1.03456
1.07211
1.11056
1.07956
1.12519
1.07231
1.08949
1.1672
1.10096
1.08795
1.21403
1.17958
1.07681
1.11477
1.18333
1.1478
1.19446
1.31042
1.46472
1.47288
1.40177
1.4088
1.44401
1.33719
1.27365
1.3027
1.30235
1.33232
1.30817
1.32628
1.19573
1.20048
1.20625
1.21454
1.21746
1.213
1.20941
1.21225
1.21792
1.22412
1.23425
1.2476
1.25996
1.26825
1.27458
1.27441
1.27494
1.27223
1.26863
1.26894
1.27194
1.2681
1.25656
1.24871
1.2476
1.24491
1.23978
1.23563
1.22772
1.20961
1.19838
1.20813
1.22915
1.2405
1.23309
1.2316
1.23322
1.21177
1.21664
1.22254
1.21328
1.20466
1.18547
1.17284
1.17468
1.17162
1.16096
1.15887
1.1634
1.16439
1.16257
1.15984
1.15781
1.15595
1.15348
1.15089
1.14857
1.14621
1.14225
1.13673
1.13176
1.12941
1.12944
1.1291
1.12767
1.12692
1.1266
1.12561
1.12503
1.12519
1.12625
1.1264
1.12556
1.12388
1.11967
1.1118
1.10341
1.09685
1.09337
1.09229
1.0933
1.09598
1.09572
1.10022
1.09827
1.09967
1.11414
1.10278
1.12563
1.11557
1.13095
1.11185
1.11293
1.094
1.10504
1.09964
1.08238
1.10494
1.09464
1.10239
1.12489
1.12711
1.1031
1.09632
1.12051
1.12995
1.12895
1.13178
1.13378
1.13526
1.12122
1.06727
1.0922
1.15349
1.14789
1.17546
1.2443
1.26271
1.25977
1.22273
1.19034
1.18789
1.18112
1.17535
1.15758
1.09834
1.08121
1.08607
1.1338
1.13803
1.11168
1.10144
1.09669
1.11766
1.14852
1.08002
1.10362
1.09377
1.1002
1.14742
1.14678
1.11137
1.17074
1.12342
1.10035
1.09549
1.079
1.08766
1.05519
1.0686
1.04579
1.06418
1.0916
1.0745
1.12201
1.08668
1.10964
1.1684
1.07724
1.07226
1.21993
1.16484
1.08864
1.1496
1.20989
1.14773
1.17303
1.2825
1.44325
1.46842
1.40296
1.41682
1.44928
1.32571
1.2804
1.30433
1.27661
1.27025
1.24158
1.26015
1.18712
1.19213
1.19862
1.20456
1.20594
1.20179
1.19718
1.19299
1.19165
1.1924
1.19646
1.20605
1.21898
1.23355
1.2481
1.25663
1.26313
1.26438
1.26705
1.26549
1.25742
1.255
1.26293
1.27011
1.26539
1.25118
1.23607
1.22457
1.21422
1.204
1.20845
1.22503
1.2357
1.23474
1.23225
1.23143
1.21063
1.19307
1.20361
1.19722
1.19093
1.18799
1.1717
1.16102
1.16562
1.16932
1.16438
1.16352
1.16718
1.16777
1.16556
1.16191
1.15622
1.14883
1.14062
1.13398
1.1301
1.12866
1.12841
1.1271
1.12413
1.12207
1.12085
1.1196
1.11972
1.11967
1.12069
1.12364
1.12619
1.12813
1.1303
1.13201
1.13281
1.13076
1.12526
1.11816
1.1107
1.10421
1.09933
1.09724
1.09582
1.09939
1.10143
1.10204
1.11536
1.10021
1.12404
1.10825
1.11715
1.10969
1.11057
1.10464
1.1173
1.09978
1.09105
1.11615
1.09141
1.09023
1.10089
1.08943
1.09314
1.12541
1.121
1.09674
1.1035
1.11805
1.11785
1.13363
1.15245
1.13466
1.12255
1.07851
1.07659
1.1421
1.15159
1.18138
1.24943
1.26576
1.26353
1.24592
1.20163
1.19206
1.19639
1.19851
1.17047
1.0977
1.07771
1.07706
1.11609
1.13923
1.10503
1.09816
1.09052
1.12109
1.13878
1.1112
1.09372
1.08634
1.10209
1.11951
1.10934
1.07591
1.14073
1.05601
1.09127
1.09499
1.11108
1.08314
1.12896
1.12726
1.08833
1.07138
1.0804
1.07059
1.11633
1.09421
1.12382
1.17073
1.0555
1.07486
1.22796
1.15406
1.10177
1.18397
1.23477
1.15094
1.16067
1.26708
1.43337
1.46819
1.40814
1.42944
1.45107
1.31342
1.28918
1.30023
1.24894
1.23716
1.24772
1.26621
1.17866
1.18297
1.18458
1.18638
1.19458
1.19985
1.19456
1.18751
1.19039
1.19364
1.19544
1.20049
1.20654
1.21413
1.22206
1.23036
1.23995
1.24276
1.248
1.25726
1.26555
1.27401
1.28063
1.27948
1.27113
1.25932
1.24649
1.23121
1.22066
1.21709
1.22167
1.22638
1.22667
1.22802
1.22776
1.21489
1.18898
1.18399
1.19335
1.1843
1.18352
1.18441
1.17308
1.16198
1.16384
1.1707
1.1694
1.16572
1.16448
1.16323
1.16111
1.15774
1.15283
1.14749
1.14307
1.13974
1.13508
1.12782
1.12038
1.11656
1.11745
1.11947
1.12161
1.12376
1.12413
1.12342
1.12359
1.12466
1.12584
1.12718
1.12924
1.13239
1.13425
1.13395
1.13226
1.12932
1.12569
1.12346
1.11803
1.12132
1.12282
1.11876
1.12859
1.12061
1.139
1.12616
1.12546
1.12356
1.10787
1.11259
1.09186
1.08665
1.08448
1.09739
1.07978
1.09338
1.10405
1.10164
1.12225
1.12194
1.09345
1.10301
1.11357
1.10433
1.10332
1.10889
1.09893
1.11384
1.16345
1.1654
1.13892
1.1118
1.09028
1.13927
1.15391
1.18328
1.25263
1.27306
1.26097
1.26596
1.23481
1.21462
1.20778
1.21921
1.17333
1.09853
1.0709
1.07901
1.10226
1.13395
1.093
1.09271
1.08354
1.09647
1.12803
1.09589
1.09302
1.09313
1.09079
1.12063
1.07003
1.10561
1.03909
1.00712
1.11765
1.10327
1.18359
1.14337
1.2385
1.22075
1.1549
1.09898
1.08945
1.09012
1.13211
1.10787
1.13647
1.17832
1.0454
1.08408
1.22952
1.147
1.11437
1.2048
1.24842
1.14565
1.14354
1.24771
1.41901
1.46246
1.41295
1.44017
1.45259
1.30485
1.29713
1.29848
1.2371
1.24037
1.28211
1.30136
1.16984
1.17246
1.17385
1.17996
1.18956
1.18997
1.18057
1.1794
1.18706
1.18622
1.18179
1.17999
1.17917
1.17876
1.18215
1.18806
1.19593
1.20194
1.21175
1.2214
1.22768
1.23667
1.24501
1.25249
1.26143
1.26104
1.25531
1.24772
1.24095
1.2361
1.23378
1.23156
1.23004
1.22842
1.21991
1.19857
1.17786
1.18121
1.19167
1.18608
1.18376
1.18247
1.17774
1.1692
1.16641
1.17066
1.16999
1.1643
1.15976
1.15748
1.15556
1.15255
1.14837
1.14536
1.14479
1.14345
1.13836
1.13087
1.12338
1.11619
1.11149
1.11287
1.11822
1.12468
1.13054
1.13319
1.13522
1.13766
1.13946
1.14128
1.1427
1.14343
1.14484
1.14549
1.14571
1.1449
1.14342
1.14382
1.13122
1.13491
1.14693
1.12938
1.12938
1.12519
1.11928
1.12169
1.10131
1.10875
1.08507
1.09627
1.08689
1.09354
1.09376
1.09386
1.09496
1.10096
1.09972
1.08907
1.09293
1.11977
1.12253
1.11749
1.12038
1.1082
1.10894
1.12289
1.10928
1.10611
1.15419
1.18178
1.14498
1.12091
1.11526
1.15968
1.16954
1.18834
1.24972
1.2787
1.26473
1.26691
1.26196
1.2449
1.21477
1.22321
1.16021
1.10574
1.07047
1.07437
1.09012
1.10954
1.08719
1.09125
1.08069
1.12199
1.13062
1.09876
1.07492
1.10346
1.14159
1.13321
1.06241
1.08451
1.01393
1.07475
1.2109
1.21385
1.29675
1.27784
1.34655
1.31368
1.24093
1.16723
1.13577
1.13041
1.16183
1.11452
1.15354
1.16579
1.03378
1.09606
1.22436
1.14428
1.13278
1.20747
1.23462
1.13129
1.12139
1.23067
1.41076
1.46309
1.42016
1.4488
1.45823
1.30404
1.30612
1.29683
1.22921
1.24901
1.30097
1.31756
1.16184
1.16571
1.17155
1.17484
1.17435
1.1738
1.17478
1.17514
1.17
1.16709
1.16867
1.1682
1.16707
1.16424
1.16338
1.16154
1.16183
1.16495
1.16906
1.17555
1.18363
1.19593
1.20819
1.21959
1.23126
1.2376
1.24195
1.24161
1.23979
1.23577
1.23193
1.22721
1.22233
1.21605
1.20469
1.18822
1.17706
1.18272
1.1901
1.18691
1.18102
1.17333
1.16881
1.16559
1.16408
1.16599
1.16486
1.15896
1.15225
1.14728
1.14496
1.14457
1.14466
1.14633
1.14865
1.14901
1.14593
1.14088
1.13354
1.12316
1.11106
1.10349
1.10418
1.10927
1.1153
1.12003
1.12391
1.12834
1.13255
1.13666
1.14051
1.14431
1.1464
1.14642
1.14309
1.13672
1.13784
1.13533
1.12207
1.11414
1.12038
1.11612
1.10376
1.10345
1.09102
1.09719
1.08611
1.0937
1.08894
1.08427
1.09052
1.08936
1.09377
1.10972
1.10328
1.10823
1.12057
1.12873
1.11436
1.10368
1.10859
1.10057
1.12364
1.12948
1.11976
1.12732
1.1138
1.09364
1.13806
1.19533
1.15976
1.10293
1.10714
1.16111
1.18488
1.19707
1.24608
1.27926
1.2746
1.26258
1.2672
1.25551
1.21295
1.21399
1.13709
1.10345
1.09065
1.07887
1.0858
1.09517
1.10097
1.10097
1.07575
1.13055
1.13818
1.10326
1.11238
1.12923
1.1413
1.09408
1.06191
1.04696
1.09292
1.21989
1.29176
1.32448
1.31847
1.33742
1.34252
1.3296
1.29591
1.25047
1.20459
1.18893
1.18951
1.10499
1.17114
1.12958
1.02664
1.12504
1.21365
1.15815
1.14264
1.18795
1.21606
1.13425
1.11531
1.2235
1.40386
1.46313
1.42584
1.45937
1.46197
1.30328
1.31656
1.29382
1.23603
1.26306
1.30139
1.3274
1.15484
1.16031
1.16525
1.16587
1.16844
1.17571
1.17885
1.1717
1.16675
1.16912
1.17287
1.17064
1.16708
1.1656
1.1641
1.16102
1.15829
1.15753
1.15616
1.15645
1.15959
1.16515
1.17302
1.18346
1.19632
1.2052
1.21315
1.21775
1.22068
1.21893
1.21818
1.21521
1.21102
1.20583
1.19807
1.19029
1.18769
1.19202
1.19354
1.18682
1.17427
1.1617
1.15756
1.1574
1.15616
1.1552
1.15387
1.14947
1.14268
1.1387
1.1411
1.14645
1.15311
1.16067
1.16569
1.16806
1.16917
1.16804
1.16011
1.14722
1.13499
1.12435
1.11743
1.11556
1.11528
1.11478
1.11414
1.1129
1.1123
1.11372
1.11464
1.11539
1.11551
1.11821
1.11297
1.10063
1.10268
1.10396
1.1094
1.10366
1.09063
1.10312
1.10715
1.11252
1.10725
1.11111
1.10973
1.11295
1.11039
1.11484
1.11533
1.11867
1.11251
1.11075
1.10834
1.11141
1.11165
1.1074
1.11641
1.12634
1.14036
1.11073
1.11072
1.12866
1.12439
1.13547
1.13881
1.1015
1.11081
1.17853
1.17875
1.11349
1.1188
1.17358
1.19777
1.20482
1.24806
1.27745
1.28431
1.26606
1.25984
1.24321
1.20055
1.19794
1.13187
1.10319
1.10684
1.09527
1.08707
1.09893
1.11177
1.10297
1.08066
1.13018
1.15251
1.11015
1.10784
1.15447
1.15063
1.05106
1.03817
1.09416
1.16354
1.27501
1.30617
1.34569
1.3098
1.31535
1.29173
1.30717
1.31375
1.29687
1.25021
1.23572
1.19945
1.08996
1.1761
1.10801
1.0316
1.18489
1.21692
1.17375
1.14428
1.16901
1.20559
1.14269
1.10959
1.22533
1.40432
1.46609
1.43191
1.47152
1.46347
1.30928
1.32753
1.30802
1.24811
1.27508
1.29246
1.32169
1.1482
1.15424
1.15873
1.16205
1.16039
1.1563
1.15646
1.1586
1.15884
1.15782
1.16174
1.16546
1.16755
1.16759
1.1668
1.16779
1.16672
1.16398
1.16138
1.15773
1.15405
1.15112
1.15086
1.15319
1.15917
1.16661
1.17502
1.18383
1.18935
1.19297
1.19636
1.19658
1.1975
1.19847
1.19958
1.20127
1.20411
1.2061
1.20345
1.19397
1.17858
1.16115
1.15093
1.14759
1.14584
1.14365
1.14127
1.13807
1.13651
1.14054
1.14753
1.15439
1.15993
1.16026
1.15766
1.15635
1.15635
1.15571
1.15036
1.13987
1.13332
1.12707
1.11907
1.11336
1.10867
1.10526
1.10259
1.10198
1.10163
1.10196
1.1068
1.10947
1.10696
1.10905
1.11058
1.1149
1.11421
1.1112
1.11328
1.13005
1.13154
1.14022
1.13192
1.1427
1.14338
1.14281
1.13582
1.13687
1.13045
1.12028
1.13131
1.12314
1.12591
1.13593
1.12886
1.11893
1.13207
1.13084
1.10979
1.09752
1.12841
1.12968
1.12531
1.13896
1.12868
1.13073
1.14761
1.12184
1.11207
1.17197
1.19815
1.12719
1.11147
1.17485
1.20731
1.20768
1.25044
1.27687
1.29195
1.27783
1.2588
1.22579
1.19084
1.18189
1.12704
1.10171
1.11183
1.10515
1.08986
1.09405
1.10941
1.11064
1.08106
1.16217
1.15786
1.12683
1.14616
1.16542
1.1242
1.03454
1.0892
1.17198
1.25746
1.29684
1.28605
1.3166
1.33659
1.34188
1.31055
1.30862
1.32852
1.32245
1.28529
1.26834
1.20907
1.0919
1.17589
1.11667
1.05001
1.25432
1.23934
1.1814
1.15459
1.14888
1.20338
1.17101
1.12345
1.23595
1.41124
1.47448
1.43922
1.4952
1.47173
1.32285
1.3325
1.33244
1.27214
1.28639
1.28417
1.31684
1.14215
1.14871
1.15202
1.15356
1.15093
1.15052
1.15546
1.16175
1.15851
1.15286
1.154
1.15802
1.1608
1.16352
1.16575
1.16773
1.16917
1.17069
1.17135
1.16993
1.1674
1.16309
1.15813
1.15285
1.14772
1.1464
1.14581
1.14959
1.1533
1.15806
1.16384
1.16756
1.17197
1.17578
1.18052
1.18652
1.19229
1.19655
1.19612
1.18994
1.17825
1.1651
1.15436
1.14679
1.14064
1.13573
1.13267
1.13229
1.13506
1.13983
1.14651
1.15154
1.15104
1.14534
1.13726
1.13137
1.13188
1.13217
1.12922
1.12437
1.12213
1.11898
1.11487
1.11188
1.11126
1.11186
1.11312
1.11545
1.1186
1.12338
1.12236
1.12069
1.12643
1.12318
1.11236
1.11724
1.12548
1.139
1.13286
1.14067
1.13662
1.14333
1.15129
1.14807
1.14957
1.13504
1.14006
1.12029
1.12871
1.11296
1.11444
1.11712
1.11319
1.11321
1.11804
1.12118
1.12322
1.14508
1.14932
1.1248
1.13522
1.13584
1.1281
1.14536
1.14297
1.13874
1.14833
1.12509
1.11747
1.17267
1.20799
1.15476
1.10735
1.16563
1.21429
1.20732
1.24466
1.27933
1.2938
1.29438
1.27457
1.2228
1.19187
1.17746
1.13119
1.10508
1.11372
1.1163
1.09658
1.08877
1.1134
1.10712
1.10694
1.17602
1.17281
1.1366
1.17015
1.18323
1.08152
1.05953
1.15952
1.23756
1.28294
1.29172
1.29871
1.3404
1.3583
1.38603
1.35285
1.32043
1.33405
1.32614
1.30624
1.27365
1.21653
1.10754
1.17299
1.14349
1.0807
1.29868
1.26039
1.17573
1.17151
1.14038
1.21663
1.21947
1.15764
1.25835
1.41779
1.48321
1.4425
1.52364
1.49111
1.34589
1.34239
1.33575
1.29513
1.30126
1.27458
1.31965
1.13709
1.14454
1.14599
1.14857
1.1503
1.15129
1.14535
1.14772
1.15649
1.15098
1.14421
1.14782
1.15253
1.15607
1.15951
1.16216
1.16502
1.16794
1.17046
1.17293
1.17426
1.1747
1.17347
1.16949
1.16486
1.15895
1.15363
1.14924
1.14596
1.14403
1.14314
1.14338
1.14591
1.14979
1.15477
1.16032
1.1655
1.17053
1.17358
1.17348
1.16816
1.15946
1.15086
1.14434
1.13873
1.13359
1.13033
1.13086
1.1353
1.14186
1.14557
1.14444
1.13987
1.13056
1.12157
1.11887
1.11975
1.1231
1.12733
1.12777
1.12856
1.13091
1.13029
1.12813
1.13033
1.1304
1.13188
1.12927
1.1243
1.1288
1.12733
1.11798
1.1119
1.11414
1.11965
1.12639
1.12235
1.13349
1.13638
1.13702
1.14715
1.13569
1.14839
1.14413
1.15853
1.14827
1.14608
1.13273
1.13105
1.11972
1.12646
1.12718