/*--------------------------------*- C++ -*----------------------------------*\
| =========                 |                                                 |
| \\      /  F ield         | OpenFOAM: The Open Source CFD Toolbox           |
|  \\    /   O peration     | Version:  dev                                   |
|   \\  /    A nd           | Web:      http://www.openfoam.org               |
|    \\/     M anipulation  |                                                 |
\*---------------------------------------------------------------------------*/
FoamFile
{
    version     2.0;
    format      ascii;
    class       volScalarField;
    object      rho_0;
    location    "9.143";
}
// * * * * * * * * * * * * * * * * * * * * * * * * * * * * * * * * * * * * * //

dimensions      [1 -3 0 0 0 0 0];

internalField   nonuniform List<scalar> 
12225
(
1.09587
1.09001
1.08857
1.08881
1.08854
1.08942
1.08913
1.09051
1.09039
1.09181
1.09278
1.09371
1.09525
1.09635
1.10118
1.09707
1.10779
1.10632
1.09247
1.08581
1.08673
1.08903
1.09003
1.09241
1.09191
1.09479
1.09397
1.09582
1.09741
1.09688
1.1
1.09986
1.10694
1.10252
1.11396
1.12194
1.09167
1.0853
1.08672
1.08934
1.09146
1.09369
1.09522
1.09704
1.09934
1.09853
1.10349
1.10082
1.10697
1.1035
1.11101
1.11069
1.12102
1.12593
1.092
1.08457
1.08756
1.08785
1.09265
1.09193
1.09711
1.09465
1.10169
1.0983
1.1048
1.10311
1.10981
1.10505
1.11422
1.10907
1.12029
1.12442
1.09317
1.08386
1.08884
1.08659
1.0927
1.09113
1.097
1.09453
1.10073
1.09866
1.10512
1.10598
1.10985
1.10781
1.11484
1.11058
1.12132
1.12312
1.09395
1.08436
1.089
1.08701
1.09294
1.09144
1.09676
1.09512
1.10067
1.10062
1.10546
1.10436
1.11234
1.11111
1.11524
1.111
1.11967
1.12258
1.09446
1.08449
1.08907
1.08835
1.09365
1.09232
1.09595
1.09591
1.10159
1.10107
1.10346
1.10471
1.11255
1.11246
1.11403
1.11217
1.11598
1.12016
1.09539
1.08419
1.08888
1.08903
1.09379
1.09173
1.09512
1.09639
1.10158
1.0994
1.10325
1.10297
1.1101
1.11008
1.11407
1.11156
1.1136
1.11869
1.09651
1.08431
1.09023
1.08921
1.09411
1.09105
1.09579
1.09595
1.10185
1.0983
1.10294
1.10149
1.10904
1.10811
1.11297
1.11201
1.11493
1.11611
1.09744
1.08469
1.0912
1.08903
1.09411
1.0916
1.09664
1.09651
1.10129
1.09832
1.10254
1.10192
1.10788
1.10894
1.11146
1.11138
1.11466
1.11433
1.0983
1.08613
1.09197
1.08957
1.09436
1.0921
1.09724
1.09688
1.10055
1.09829
1.10212
1.10264
1.10683
1.10867
1.10991
1.11079
1.11162
1.11295
1.09913
1.08797
1.09256
1.09089
1.0943
1.09325
1.09699
1.09722
1.09977
1.0985
1.10153
1.10204
1.10534
1.10732
1.10841
1.10884
1.1098
1.11112
1.09991
1.09046
1.09342
1.09255
1.09457
1.09431
1.09666
1.09716
1.09842
1.09813
1.10008
1.10106
1.10315
1.10479
1.10584
1.10677
1.10751
1.10879
1.10198
1.09358
1.09467
1.09431
1.09528
1.09524
1.09659
1.09682
1.09757
1.09776
1.09909
1.09993
1.10139
1.10257
1.10343
1.1044
1.10514
1.10617
1.10457
1.09705
1.09689
1.0967
1.09688
1.09691
1.09716
1.09726
1.09758
1.09794
1.0986
1.09906
1.09973
1.10057
1.10135
1.10222
1.10289
1.10371
1.1086
1.10122
1.10011
1.09969
1.09948
1.09909
1.09866
1.09858
1.09867
1.09874
1.09886
1.09894
1.0992
1.09983
1.10036
1.10103
1.10159
1.10205
1.11317
1.10619
1.10489
1.10427
1.1036
1.10269
1.1019
1.1017
1.10136
1.10095
1.10079
1.10061
1.10077
1.1012
1.1014
1.10187
1.10212
1.10232
1.11858
1.11219
1.1109
1.11006
1.10918
1.10824
1.10752
1.1072
1.10663
1.10618
1.10599
1.10548
1.10561
1.10574
1.10566
1.10604
1.10617
1.10633
1.12337
1.1181
1.11694
1.11626
1.1157
1.11502
1.11443
1.11393
1.11358
1.11354
1.11311
1.11231
1.11258
1.11268
1.11252
1.113
1.11335
1.1132
1.12748
1.12303
1.12244
1.12254
1.12207
1.12148
1.12133
1.1209
1.12107
1.12129
1.12018
1.11944
1.1203
1.12068
1.12054
1.12133
1.12146
1.12095
1.13062
1.12725
1.12757
1.12802
1.1275
1.12724
1.12744
1.12712
1.12776
1.1282
1.1267
1.12655
1.12818
1.12795
1.12819
1.1291
1.12822
1.12832
1.13309
1.13062
1.13141
1.13261
1.1329
1.13247
1.13261
1.13303
1.13372
1.13422
1.13372
1.13444
1.1355
1.13432
1.13504
1.13539
1.13403
1.13512
1.13548
1.13344
1.13396
1.13551
1.13662
1.13694
1.13749
1.13756
1.13698
1.13732
1.13943
1.14075
1.14015
1.13985
1.14027
1.13959
1.13932
1.14038
1.13689
1.13605
1.1367
1.13733
1.139
1.14107
1.14219
1.14137
1.13995
1.14095
1.1438
1.14442
1.14379
1.14461
1.14462
1.14399
1.14483
1.14503
1.13806
1.13731
1.13875
1.14023
1.14098
1.14217
1.1437
1.14415
1.14397
1.14501
1.14634
1.14607
1.14625
1.14729
1.14718
1.14784
1.14866
1.14843
1.13867
1.13833
1.13962
1.14153
1.14286
1.14356
1.1445
1.14567
1.14635
1.14686
1.14782
1.14842
1.14862
1.14931
1.14987
1.15008
1.15068
1.15087
1.13887
1.13869
1.14016
1.14195
1.14355
1.14486
1.14585
1.14666
1.14752
1.14836
1.14926
1.15007
1.15083
1.15148
1.15204
1.15249
1.15292
1.1532
1.13957
1.13968
1.1411
1.14287
1.1444
1.14572
1.14693
1.14807
1.14921
1.15025
1.15125
1.15207
1.15286
1.15344
1.15397
1.15428
1.15455
1.15454
1.13977
1.13995
1.14142
1.14327
1.14489
1.14627
1.14752
1.14864
1.14964
1.15041
1.15095
1.15128
1.15142
1.15135
1.1512
1.15087
1.1506
1.14988
1.13973
1.14022
1.14065
1.14125
1.1418
1.14214
1.14231
1.14229
1.14214
1.14188
1.14152
1.1411
1.14063
1.14011
1.13957
1.13902
1.13844
1.13787
1.26924
1.29881
1.30006
1.30133
1.2999
1.299
1.29665
1.29411
1.29071
1.28691
1.2829
1.27886
1.27496
1.27127
1.26779
1.26473
1.26177
1.25937
1.25773
1.25578
1.25404
1.25307
1.2513
1.24813
1.24607
1.24599
1.24328
1.24335
1.24651
1.24674
1.24895
1.23944
1.21842
1.21226
1.21832
1.22241
1.22438
1.22566
1.2267
1.22743
1.22715
1.22495
1.22054
1.21377
1.20475
1.19395
1.18443
1.17769
1.17127
1.16419
1.15724
1.15102
1.14583
1.14264
1.14148
1.14014
1.13726
1.13357
1.13038
1.12788
1.12626
1.12528
1.12458
1.12404
1.12354
1.1231
1.12278
1.12249
1.1224
1.12262
1.12301
1.12395
1.12512
1.12649
1.12821
1.13077
1.13445
1.13835
1.14139
1.14208
1.14069
1.13777
1.13424
1.1305
1.12717
1.12474
1.12355
1.1237
1.12513
1.12798
1.1318
1.1363
1.14036
1.14342
1.14575
1.14913
1.1535
1.15503
1.15577
1.15725
1.15939
1.16066
1.16541
1.16811
1.16636
1.16643
1.17043
1.17368
1.17186
1.16879
1.17489
1.18908
1.20485
1.22357
1.2319
1.24175
1.26461
1.27415
1.25462
1.22907
1.22969
1.22066
1.19324
1.1713
1.17278
1.18766
1.18588
1.18465
1.193
1.19872
1.19822
1.19155
1.18088
1.15645
1.1485
1.15301
1.15003
1.13207
1.13416
1.13003
1.11713
1.12192
1.1066
1.12024
1.11408
1.12131
1.11631
1.12616
1.1238
1.11865
1.11483
1.1138
1.11568
1.1169
1.117
1.11784
1.1218
1.13043
1.14017
1.15316
1.16398
1.17263
1.17875
1.17603
1.18614
1.18731
1.1918
1.19906
1.19995
1.22337
1.2051
1.1891
1.17149
1.17294
1.18554
1.17231
1.16086
1.15294
1.15814
1.16324
1.25816
1.30171
1.31064
1.31166
1.30989
1.30685
1.30332
1.29935
1.29469
1.2893
1.28376
1.27806
1.27293
1.26827
1.26337
1.26042
1.25669
1.24983
1.25049
1.2498
1.23854
1.24005
1.24376
1.23539
1.23492
1.23657
1.23141
1.2312
1.23137
1.22412
1.22616
1.24176
1.24981
1.24816
1.24988
1.24975
1.24179
1.23599
1.24172
1.25032
1.25565
1.25777
1.2552
1.25033
1.25135
1.25306
1.24186
1.22462
1.222
1.23305
1.23666
1.21649
1.17861
1.15403
1.15602
1.16334
1.15858
1.14851
1.14404
1.14337
1.14476
1.14908
1.15553
1.16279
1.16958
1.17515
1.17917
1.18171
1.18305
1.18397
1.18643
1.19212
1.19895
1.20291
1.2006
1.19215
1.18063
1.16841
1.15663
1.14552
1.13608
1.12779
1.12122
1.11676
1.11502
1.11539
1.11756
1.12119
1.12615
1.13257
1.13941
1.14667
1.1525
1.15511
1.15419
1.15426
1.15606
1.15361
1.15383
1.15896
1.15921
1.1599
1.16768
1.17191
1.16135
1.15444
1.17451
1.18653
1.18541
1.2095
1.23373
1.23442
1.2439
1.28485
1.32602
1.35643
1.37346
1.35598
1.33239
1.33501
1.34397
1.29059
1.2297
1.21652
1.21916
1.19195
1.17924
1.21131
1.23739
1.26266
1.27043
1.25548
1.23701
1.21033
1.20079
1.21227
1.21128
1.18491
1.19777
1.18716
1.163
1.16508
1.14118
1.16694
1.17358
1.18387
1.18028
1.1782
1.18434
1.18741
1.16991
1.15333
1.14354
1.13705
1.15038
1.16639
1.17442
1.1864
1.18998
1.20701
1.24183
1.2488
1.27534
1.29393
1.32248
1.31301
1.33612
1.36907
1.36737
1.41214
1.38305
1.32086
1.26831
1.29093
1.30433
1.24286
1.20843
1.20604
1.23837
1.23739
1.23784
1.2717
1.29406
1.30147
1.29865
1.29366
1.28976
1.28672
1.28439
1.28202
1.28024
1.27701
1.27298
1.27287
1.2686
1.26536
1.26858
1.26011
1.25571
1.26163
1.25262
1.25248
1.25526
1.24466
1.24632
1.24436
1.235
1.23291
1.22907
1.22865
1.23269
1.21602
1.20734
1.23507
1.25213
1.23979
1.23422
1.24447
1.25062
1.23961
1.22779
1.2312
1.23108
1.21723
1.20576
1.20626
1.21426
1.21682
1.20955
1.19847
1.18624
1.17525
1.16328
1.15212
1.14704
1.14644
1.14871
1.15349
1.15994
1.166
1.17232
1.17841
1.18317
1.1867
1.18843
1.18845
1.18798
1.18905
1.19362
1.20125
1.20865
1.21177
1.20745
1.19589
1.17933
1.16111
1.14458
1.13232
1.12568
1.12358
1.12357
1.12422
1.12575
1.128
1.13051
1.13314
1.13508
1.13721
1.13894
1.14103
1.14288
1.14578
1.15053
1.15466
1.15472
1.15034
1.14788
1.15084
1.15301
1.15495
1.15321
1.1526
1.15178
1.14559
1.13379
1.12455
1.14135
1.17705
1.1866
1.19171
1.21376
1.2128
1.21508
1.25963
1.32731
1.3752
1.37025
1.32482
1.30776
1.32114
1.30746
1.25724
1.22524
1.22171
1.19915
1.16517
1.18863
1.22345
1.24304
1.27682
1.27625
1.26769
1.26989
1.24301
1.21712
1.23148
1.21445
1.19948
1.20954
1.18487
1.17558
1.12624
1.17557
1.10222
1.16199
1.1707
1.172
1.10508
1.10499
1.16211
1.19223
1.17576
1.1349
1.09465
1.09847
1.12682
1.16168
1.19925
1.21267
1.21451
1.25789
1.24654
1.23994
1.28393
1.3676
1.35092
1.40302
1.44076
1.48992
1.49322
1.44857
1.3623
1.33166
1.38488
1.34831
1.26221
1.24155
1.2729
1.30528
1.28084
1.22856
1.24915
1.26506
1.27126
1.2692
1.26442
1.26026
1.25669
1.25471
1.25315
1.25219
1.25237
1.24778
1.24847
1.25206
1.2502
1.25247
1.24805
1.25184
1.25004
1.24562
1.25453
1.24223
1.24807
1.2485
1.23745
1.24401
1.23168
1.24171
1.23931
1.21793
1.23127
1.24357
1.22195
1.21395
1.23013
1.24199
1.24772
1.24865
1.2397
1.23427
1.23412
1.22269
1.21091
1.2054
1.20014
1.19473
1.19193
1.18399
1.17235
1.16221
1.15336
1.14659
1.14395
1.14482
1.14703
1.15036
1.15362
1.15554
1.1567
1.15781
1.15847
1.1598
1.16165
1.16219
1.16087
1.15883
1.15796
1.15945
1.16215
1.164
1.16314
1.15842
1.15068
1.14209
1.13499
1.13078
1.13044
1.13354
1.13785
1.14022
1.14054
1.13975
1.13813
1.13598
1.13452
1.13316
1.13248
1.13198
1.13186
1.13185
1.13246
1.13347
1.13386
1.13428
1.12831
1.12589
1.13424
1.14337
1.14606
1.14767
1.14786
1.14977
1.14088
1.12632
1.12424
1.13467
1.16898
1.19466
1.20478
1.22593
1.22621
1.19857
1.20355
1.27574
1.35937
1.38493
1.349
1.31431
1.29739
1.27455
1.2456
1.23135
1.21663
1.18118
1.16791
1.19773
1.2038
1.22737
1.27705
1.28762
1.27339
1.26941
1.25654
1.22772
1.20285
1.16584
1.21878
1.17249
1.12525
1.177
1.02642
1.20305
1.04034
1.10004
1.13365
1.2026
1.123
1.05738
1.06466
1.12492
1.19547
1.20098
1.14
1.10616
1.09436
1.12518
1.18834
1.21856
1.21519
1.25988
1.25007
1.19914
1.22506
1.33106
1.32996
1.41407
1.45968
1.56815
1.46868
1.45267
1.38235
1.38609
1.42916
1.33674
1.27541
1.2827
1.33038
1.32397
1.3088
1.22179
1.2361
1.24138
1.23993
1.23659
1.23372
1.23351
1.23287
1.23239
1.23286
1.23152
1.23183
1.23238
1.23194
1.23897
1.23683
1.23751
1.24546
1.24058
1.23976
1.24217
1.23537
1.23549
1.23691
1.2318
1.22973
1.22685
1.23819
1.224
1.21427
1.23726
1.21943
1.19639
1.20679
1.21985
1.22216
1.23417
1.22544
1.21247
1.2284
1.25038
1.22807
1.20154
1.20455
1.20136
1.19345
1.18701
1.17849
1.17039
1.16402
1.15804
1.15354
1.15196
1.1529
1.15418
1.15538
1.15653
1.15508
1.151
1.14645
1.14261
1.14047
1.14061
1.1416
1.1418
1.1406
1.13896
1.13885
1.141
1.14366
1.14445
1.14292
1.14133
1.1403
1.13932
1.13852
1.13846
1.13857
1.13785
1.13571
1.13183
1.1278
1.12461
1.12209
1.12119
1.12233
1.12423
1.12617
1.12764
1.1287
1.12926
1.1313
1.13459
1.13533
1.14373
1.14399
1.14169
1.14155
1.1253
1.12468
1.12563
1.12712
1.13706
1.15732
1.15339
1.13889
1.13628
1.15129
1.1661
1.17178
1.19571
1.22914
1.22981
1.20332
1.23116
1.32733
1.36476
1.32353
1.29311
1.27426
1.26273
1.2527
1.24216
1.21894
1.18618
1.17885
1.18252
1.17107
1.18602
1.24394
1.28665
1.26523
1.2437
1.24799
1.20981
1.14645
1.11247
1.2451
1.15308
1.07438
1.21784
1.02281
1.19967
1.08096
1.06224
1.03466
1.15454
1.19206
1.14681
1.09087
1.07361
1.145
1.19406
1.14886
1.12772
1.09437
1.09847
1.16946
1.22168
1.21229
1.25067
1.25273
1.17289
1.18188
1.27732
1.27806
1.37465
1.45385
1.58574
1.43836
1.48297
1.43495
1.43382
1.43353
1.32009
1.29524
1.30665
1.31987
1.27395
1.33994
1.21445
1.22467
1.22469
1.22266
1.22455
1.22681
1.23073
1.2335
1.23518
1.23697
1.23831
1.23885
1.24353
1.24872
1.25379
1.25889
1.26437
1.26759
1.25789
1.25542
1.25166
1.24133
1.24646
1.24233
1.23645
1.23246
1.22637
1.23407
1.22765
1.22341
1.22256
1.22822
1.22333
1.22124
1.22056
1.21697
1.21145
1.20488
1.225
1.2321
1.21802
1.1989
1.20235
1.20591
1.19249
1.18332
1.17495
1.16892
1.16546
1.16108
1.15779
1.15627
1.15673
1.15758
1.1576
1.15804
1.15826
1.15656
1.15378
1.15078
1.14814
1.14765
1.14915
1.15073
1.1504
1.14782
1.14442
1.14199
1.14113
1.14105
1.14096
1.14035
1.13974
1.13989
1.14072
1.14035
1.13751
1.1335
1.12936
1.12481
1.12146
1.12054
1.12013
1.1201
1.12162
1.12434
1.12793
1.13258
1.1359
1.13925
1.13916
1.13812
1.13889
1.1309
1.13218
1.14365
1.1522
1.17748
1.17631
1.17014
1.16153
1.14354
1.14282
1.17077
1.17722
1.16584
1.16152
1.16941
1.15872
1.1311
1.11937
1.14398
1.20034
1.21103
1.21705
1.29129
1.33617
1.31826
1.29014
1.26361
1.25859
1.25723
1.24873
1.22346
1.19536
1.18487
1.1813
1.16246
1.14469
1.19569
1.26537
1.26815
1.23445
1.24205
1.22842
1.1495
1.11044
1.22968
1.15951
1.07542
1.20225
1.09972
1.18692
1.12541
1.09548
1.0322
1.1188
1.20584
1.14806
1.1028
1.06288
1.11906
1.18881
1.14424
1.14513
1.09607
1.07839
1.16139
1.22121
1.19949
1.2506
1.24178
1.12919
1.1433
1.23612
1.23836
1.32652
1.42907
1.56821
1.46755
1.49023
1.46467
1.46507
1.42313
1.30961
1.30682
1.29954
1.30301
1.28728
1.35906
1.20664
1.21295
1.21278
1.21592
1.22318
1.22799
1.23028
1.23046
1.22933
1.22764
1.22965
1.23312
1.23849
1.24802
1.25735
1.26212
1.26454
1.26373
1.25176
1.23884
1.23785
1.23746
1.23454
1.23298
1.2281
1.22439
1.22849
1.22502
1.21524
1.21782
1.22474
1.22675
1.22759
1.22783
1.20654
1.2051
1.20697
1.22408
1.23362
1.22004
1.21144
1.19668
1.19267
1.19096
1.18179
1.17659
1.1697
1.16421
1.16211
1.15832
1.15623
1.15507
1.15397
1.15285
1.15145
1.1505
1.14934
1.14722
1.14532
1.14349
1.14176
1.1411
1.14126
1.14212
1.14331
1.14349
1.14204
1.13975
1.13789
1.13751
1.13778
1.138
1.13814
1.13902
1.13864
1.13587
1.13137
1.12606
1.12082
1.11778
1.11814
1.11975
1.12045
1.11991
1.11875
1.11791
1.11747
1.12354
1.127
1.13476
1.1375
1.13352
1.13334
1.12253
1.11333
1.11361
1.10829
1.11326
1.12145
1.12655
1.15701
1.1646
1.14584
1.1432
1.13476
1.12973
1.1318
1.14295
1.1443
1.1226
1.1111
1.11651
1.16477
1.19799
1.19597
1.24916
1.30472
1.30567
1.28618
1.25704
1.25424
1.25671
1.24229
1.21508
1.18685
1.1697
1.17845
1.17966
1.1498
1.15527
1.19345
1.23174
1.23786
1.23775
1.1952
1.13836
1.16874
1.28236
1.18098
1.07274
1.16992
1.10956
1.20961
1.17904
1.13102
1.09241
1.16536
1.24102
1.13852
1.11084
1.06815
1.11419
1.16933
1.12163
1.15462
1.09099
1.08116
1.18095
1.19702
1.17712
1.26365
1.22845
1.0926
1.12054
1.21345
1.21326
1.29194
1.40562
1.54684
1.50436
1.47195
1.46459
1.48325
1.40959
1.30852
1.32194
1.32042
1.36718
1.37252
1.36872
1.19996
1.2052
1.20831
1.21514
1.22146
1.2216
1.21702
1.21348
1.21442
1.21716
1.22369
1.23316
1.24538
1.25493
1.26019
1.26618
1.26514
1.25816
1.25043
1.24161
1.2383
1.23828
1.23919
1.24002
1.24028
1.23168
1.21428
1.20361
1.19969
1.20092
1.21187
1.21921
1.21287
1.19972
1.20764
1.21771
1.21949
1.2338
1.22035
1.21194
1.20633
1.19733
1.19571
1.18602
1.17777
1.17466
1.16447
1.15818
1.15949
1.15929
1.15979
1.1591
1.15703
1.15548
1.15335
1.15142
1.14973
1.14819
1.14729
1.14632
1.1453
1.14438
1.14374
1.14337
1.14291
1.14221
1.1412
1.14008
1.13837
1.13672
1.13635
1.13773
1.13979
1.13969
1.13689
1.13289
1.12777
1.12193
1.11794
1.11742
1.11974
1.12316
1.12528
1.12556
1.12274
1.1225
1.11659
1.1232
1.12697
1.1356
1.14847
1.14676
1.16063
1.14744
1.14295
1.12507
1.12953
1.13518
1.14352
1.12166
1.10673
1.1399
1.15874
1.16746
1.16627
1.16131
1.16026
1.15371
1.15129
1.12559
1.1002
1.10745
1.16423
1.20215
1.18376
1.21919
1.28542
1.29981
1.28666
1.2508
1.24458
1.24349
1.22044
1.19383
1.17324
1.15888
1.16724
1.18726
1.17672
1.15385
1.15691
1.17081
1.19162
1.22355
1.20829
1.12856
1.12706
1.16552
1.11549
1.07573
1.17974
1.0568
1.19149
1.177
1.11201
1.1076
1.17305
1.24104
1.10806
1.10188
1.06729
1.10753
1.15365
1.1186
1.1696
1.1026
1.10897
1.20294
1.16182
1.15156
1.2658
1.22804
1.10266
1.13755
1.21838
1.19914
1.263
1.38582
1.53225
1.51978
1.45687
1.46213
1.4925
1.39274
1.31363
1.33929
1.34656
1.40472
1.39361
1.38676
1.19406
1.19968
1.20433
1.21109
1.21449
1.21099
1.20535
1.20597
1.21585
1.22718
1.23862
1.25354
1.268
1.27895
1.28229
1.27908
1.27836
1.27579
1.26999
1.26455
1.26439
1.25956
1.25264
1.2569
1.2664
1.25905
1.2351
1.21891
1.2127
1.20532
1.19986
1.1956
1.198
1.21453
1.2288
1.2211
1.22864
1.22405
1.2136
1.22367
1.21601
1.20579
1.19608
1.18267
1.17864
1.17488
1.16352
1.15961
1.16378
1.16599
1.16627
1.16384
1.16115
1.15946
1.15763
1.15618
1.15425
1.15167
1.14931
1.14771
1.14676
1.14566
1.14395
1.14233
1.14152
1.14053
1.13902
1.13689
1.13517
1.13518
1.13713
1.14039
1.1416
1.1397
1.13562
1.12956
1.12202
1.11597
1.11389
1.11505
1.1187
1.12277
1.12523
1.12774
1.12359
1.12855
1.12539
1.12476
1.13449
1.12787
1.14072
1.12301
1.14075
1.13191
1.145
1.12798
1.12099
1.12496
1.12549
1.15194
1.13698
1.11523
1.11393
1.1367
1.16044
1.16407
1.1699
1.17221
1.17402
1.16254
1.11799
1.0819
1.13394
1.19218
1.1797
1.20789
1.27842
1.29737
1.2916
1.25022
1.22869
1.22961
1.2139
1.19045
1.17539
1.14369
1.12967
1.14532
1.1795
1.16375
1.15322
1.15068
1.13786
1.15943
1.23501
1.14886
1.12386
1.07026
1.07885
1.15793
1.2008
1.107
1.17644
1.16114
1.10196
1.09994
1.12253
1.17419
1.07944
1.09469
1.07156
1.1077
1.14432
1.11641
1.16372
1.11346
1.1364
1.21161
1.13374
1.12658
1.2641
1.21864
1.12304
1.17274
1.23871
1.19329
1.23996
1.36361
1.52368
1.53005
1.45527
1.46699
1.49904
1.37926
1.32287
1.35257
1.34336
1.36273
1.33564
1.35433
1.18787
1.19327
1.19884
1.20713
1.21021
1.20588
1.20219
1.20531
1.21183
1.21878
1.22929
1.24288
1.25525
1.26319
1.26876
1.26785
1.26794
1.2651
1.26099
1.26096
1.26449
1.26096
1.2489
1.24073
1.2401
1.23783
1.23258
1.22852
1.2213
1.2036
1.19147
1.19994
1.22079
1.23338
1.22677
1.22502
1.2279
1.20652
1.20997
1.21672
1.20868
1.20136
1.18289
1.1689
1.17022
1.16885
1.15883
1.15573
1.16021
1.16221
1.16121
1.15901
1.15733
1.15585
1.15376
1.15149
1.14961
1.14803
1.1451
1.14037
1.13564
1.13334
1.1338
1.13433
1.13373
1.13367
1.13429
1.1345
1.13497
1.13597
1.13793
1.13908
1.13933
1.13889
1.13605
1.12926
1.12145
1.11505
1.1115
1.11051
1.11161
1.1151
1.11553
1.12069
1.12074
1.12085
1.13822
1.12605
1.14956
1.13996
1.15514
1.1372
1.13825
1.11851
1.12759
1.1267
1.10754
1.13013
1.12108
1.12558
1.15015
1.15827
1.1336
1.12191
1.14495
1.15574
1.15394
1.15916
1.16424
1.16487
1.15365
1.09821
1.11832
1.18255
1.17979
1.21003
1.28107
1.29905
1.29668
1.26418
1.22673
1.22198
1.21916
1.21857
1.19721
1.12788
1.10811
1.10957
1.15929
1.1719
1.1404
1.1286
1.12336
1.14548
1.1704
1.10988
1.13372
1.12979
1.13677
1.17855
1.17009
1.14268
1.20134
1.14582
1.13784
1.13452
1.1187
1.11743
1.10354
1.1164
1.09039
1.10263
1.12617
1.11292
1.16212
1.12942
1.15691
1.21183
1.11021
1.11609
1.27223
1.20322
1.13655
1.21074
1.26723
1.19384
1.21863
1.33589
1.50299
1.52633
1.46003
1.47892
1.50463
1.36811
1.33133
1.35081
1.31095
1.2989
1.27677
1.29294
1.18161
1.18727
1.19404
1.20048
1.20146
1.19659
1.19212
1.18877
1.18774
1.18871
1.19328
1.20328
1.21641
1.23076
1.24506
1.25297
1.25888
1.25979
1.26196
1.2601
1.25178
1.24848
1.25537
1.26256
1.25887
1.24556
1.23085
1.21963
1.20943
1.19864
1.20199
1.21826
1.2297
1.22943
1.22703
1.22728
1.20762
1.1885
1.19841
1.19305
1.18674
1.18489
1.16974
1.15774
1.16122
1.16614
1.16227
1.16097
1.16458
1.16594
1.16451
1.16159
1.15661
1.14983
1.14195
1.13533
1.13131
1.12972
1.12967
1.12913
1.12705
1.12563
1.12504
1.1244
1.12515
1.12567
1.12706
1.13064
1.13413
1.13694
1.13996
1.1428
1.14496
1.14434
1.1402
1.13436
1.1279
1.12224
1.11739
1.11603
1.11497
1.11838
1.12188
1.12181
1.13765
1.12173
1.14516
1.13075
1.13712
1.13124
1.12944
1.12458
1.13733
1.12311
1.11157
1.13898
1.11723
1.11382
1.12809
1.11616
1.1147
1.14765
1.14702
1.12279
1.12727
1.14154
1.14018
1.15816
1.18414
1.16621
1.1513
1.11069
1.10505
1.17079
1.18289
1.21473
1.28473
1.30148
1.29731
1.28761
1.2446
1.23151
1.23445
1.23947
1.20428
1.12806
1.10526
1.10506
1.13946
1.16803
1.13142
1.12612
1.11669
1.14645
1.1661
1.1435
1.12179
1.11569
1.13105
1.14784
1.12905
1.10594
1.1508
1.07415
1.12864
1.13354
1.16342
1.13266
1.19401
1.18999
1.14393
1.11757
1.12142
1.11489
1.1612
1.13846
1.17196
1.21499
1.09028
1.12383
1.27887
1.19398
1.15199
1.24422
1.28981
1.1953
1.20575
1.32149
1.49508
1.52771
1.46794
1.49393
1.50664
1.35688
1.3417
1.34591
1.28517
1.27675
1.29835
1.31394
1.17547
1.18058
1.18261
1.18441
1.19186
1.19669
1.19184
1.18461
1.18669
1.19002
1.19245
1.19827
1.20523
1.21376
1.22231
1.23053
1.23995
1.24241
1.24682
1.25516
1.26253
1.27027
1.27699
1.27625
1.26778
1.25578
1.24299
1.22774
1.21685
1.21271
1.21702
1.22204
1.22254
1.22392
1.22435
1.21287
1.18672
1.17994
1.18955
1.18123
1.17996
1.18168
1.17172
1.16005
1.16052
1.16769
1.16756
1.16404
1.16259
1.16156
1.1599
1.15711
1.15276
1.14791
1.14398
1.14129
1.13739
1.13059
1.12296
1.11848
1.11906
1.1215
1.12445
1.12777
1.1294
1.12955
1.13029
1.13186
1.13362
1.13554
1.13808
1.14184
1.1447
1.14558
1.14527
1.14366
1.14117
1.14028
1.13441
1.13838
1.14186
1.13635
1.14664
1.13868
1.15626
1.14563
1.14179
1.14236
1.12425
1.13086
1.10969
1.1056
1.1025
1.11745
1.10109
1.11318
1.12657
1.12363
1.14356
1.14765
1.11967
1.12521
1.1368
1.12912
1.12784
1.13359
1.12197
1.13532
1.18999
1.19807
1.16687
1.14204
1.12248
1.17083
1.18589
1.21506
1.28472
1.30732
1.29316
1.3013
1.27891
1.25731
1.24197
1.25415
1.199
1.12805
1.09742
1.10565
1.12448
1.15563
1.11784
1.11919
1.10881
1.12463
1.15572
1.12218
1.11886
1.12518
1.12691
1.1539
1.0927
1.13866
1.05531
1.0448
1.17051
1.1609
1.24959
1.2154
1.31279
1.29205
1.22074
1.15802
1.14293
1.1444
1.18444
1.15265
1.18692
1.2186
1.08154
1.13634
1.27708
1.18928
1.16707
1.25914
1.29572
1.18648
1.18595
1.3017
1.48168
1.52398
1.47529
1.50587
1.50982
1.3512
1.35092
1.34433
1.27676
1.28749
1.33446
1.34946
1.16882
1.17204
1.17308
1.17903
1.18927
1.19024
1.18043
1.17838
1.18653
1.18648
1.18217
1.18071
1.18038
1.18056
1.18423
1.19047
1.19872
1.20439
1.21383
1.22347
1.22946
1.23781
1.24558
1.25216
1.26032
1.25967
1.25364
1.24572
1.2387
1.23368
1.23132
1.2291
1.22753
1.22615
1.21845
1.19771
1.17601
1.17789
1.18872
1.18394
1.1814
1.18011
1.17606
1.16779
1.16422
1.16824
1.16838
1.16311
1.15835
1.15591
1.15422
1.15171
1.14797
1.14522
1.14506
1.14453
1.14036
1.13356
1.1265
1.11921
1.11347
1.11368
1.11873
1.12561
1.13253
1.13636
1.13919
1.14241
1.14505
1.1477
1.14995
1.15134
1.15337
1.15476
1.15552
1.15499
1.15447
1.15597
1.14318
1.14548
1.15914
1.14264
1.141
1.13819
1.13015
1.13481
1.11389
1.12252
1.10004
1.11047
1.104
1.11137
1.11274
1.11353
1.11615
1.12175
1.12085
1.11171
1.11231
1.13798
1.14491
1.13767
1.14261
1.13285
1.13294
1.14739
1.13318
1.12597
1.17456
1.20995
1.17038
1.14126
1.14221
1.18983
1.20176
1.21924
1.27847
1.30947
1.29728
1.29542
1.29733
1.28137
1.24315
1.24883
1.17763
1.13213
1.10098
1.10019
1.11229
1.12759
1.11509
1.11895
1.10414
1.15392
1.1605
1.12786
1.10579
1.1374
1.17862
1.15708
1.09128
1.1066
1.05813
1.14169
1.27429
1.29008
1.35957
1.35265
1.40715
1.37599
1.30928
1.23933
1.20243
1.19417
1.21719
1.15523
1.20598
1.19694
1.07108
1.15502
1.2691
1.19219
1.18546
1.25252
1.27599
1.17495
1.16648
1.28806
1.47588
1.52732
1.48434
1.51652
1.51666
1.35273
1.36138
1.34251
1.27318
1.29867
1.34724
1.36067
1.16275
1.16687
1.17237
1.17609
1.17617
1.17506
1.17507
1.17585
1.17168
1.16857
1.16955
1.16913
1.16827
1.16552
1.16495
1.16362
1.16431
1.16753
1.17196
1.17858
1.18629
1.19824
1.21019
1.22109
1.23237
1.23831
1.24219
1.24153
1.23944
1.23526
1.23125
1.22642
1.22145
1.21526
1.20416
1.18771
1.17582
1.1807
1.18826
1.18563
1.1798
1.17179
1.16703
1.1639
1.16219
1.16393
1.16329
1.15789
1.15118
1.14601
1.14367
1.14356
1.1441
1.14624
1.1491
1.15022
1.14808
1.14399
1.13743
1.12751
1.11524
1.10645
1.10573
1.11006
1.11588
1.12077
1.12477
1.1292
1.13354
1.13799
1.14221
1.14653
1.14915
1.15016
1.14723
1.14006
1.14182
1.14057
1.12983
1.12115
1.12554
1.125
1.11344
1.11446
1.10245
1.10913
1.10003
1.10766
1.10525
1.1004
1.10804
1.10701
1.11131
1.12757
1.12094
1.12612
1.13919
1.14806
1.13445
1.12218
1.12896
1.11816
1.14124
1.15127
1.14092
1.14839
1.13711
1.11323
1.15359
1.21675
1.18476
1.12158
1.13033
1.18823
1.21459
1.22578
1.27327
1.30617
1.30568
1.28965
1.29262
1.27877
1.23384
1.23214
1.15414
1.12598
1.12214
1.1073
1.10858
1.11669
1.12957
1.12729
1.09908
1.15647
1.16838
1.13116
1.14432
1.16524
1.17103
1.106
1.08689
1.08115
1.1516
1.28732
1.34469
1.38726
1.36507
1.38846
1.38052
1.37523
1.35584
1.32157
1.27341
1.2561
1.24153
1.14245
1.22141
1.16054
1.06892
1.19727
1.26108
1.21025
1.1917
1.22758
1.25961
1.18468
1.16453
1.28572
1.47144
1.52921
1.49122
1.52994
1.52028
1.35484
1.37272
1.34435
1.28533
1.31351
1.34219
1.36666
1.15754
1.16325
1.16824
1.16884
1.17157
1.17909
1.18211
1.17484
1.16952
1.17163
1.17522
1.1728
1.16903
1.16729
1.16583
1.1626
1.15985
1.15935
1.15826
1.15882
1.16218
1.16807
1.17603
1.18627
1.19899
1.20761
1.21517
1.21933
1.22197
1.21989
1.21879
1.21563
1.21124
1.20595
1.19815
1.19022
1.1873
1.1914
1.19313
1.18683
1.17434
1.16117
1.15628
1.1559
1.15465
1.15354
1.1523
1.14829
1.14172
1.13768
1.14002
1.14552
1.15239
1.16011
1.16529
1.16791
1.16949
1.16924
1.16231
1.14993
1.13824
1.12774
1.12003
1.11726
1.11632
1.11543
1.11455
1.11317
1.11229
1.11356
1.11487
1.11587
1.11581
1.11926
1.1156
1.10447
1.10625
1.10784
1.11531
1.11292
1.09944
1.11296
1.11814
1.12508
1.12145
1.12518
1.12466
1.12787
1.1256
1.13011
1.13155
1.13468
1.12878
1.12684
1.12483
1.12659
1.12721
1.12234
1.13091
1.1408
1.15833
1.13017
1.12733
1.14666
1.14233
1.15307
1.16024
1.12233
1.12621
1.19541
1.20288
1.13527
1.13933
1.19795
1.22377
1.22935
1.27317
1.30142
1.31192
1.29383
1.28162
1.25752
1.21721
1.21176
1.15026
1.12361
1.13215
1.12229
1.10898
1.11924
1.13452
1.12651
1.10363
1.15976
1.18037
1.13894
1.13879
1.18665
1.17374
1.06852
1.07229
1.14873
1.22609
1.32243
1.34427
1.38643
1.35939
1.36478
1.33648
1.3523
1.36831
1.35854
1.31448
1.29891
1.24867
1.1317
1.22293
1.15073
1.08131
1.26823
1.27218
1.22325
1.19406
1.20804
1.25375
1.2015
1.16565
1.2929
1.47537
1.53538
1.49863
1.54708
1.52445
1.36596
1.38265
1.36529
1.30165
1.32448
1.33055
1.35811
1.15255
1.15885
1.16343
1.16666
1.16537
1.16183
1.16178
1.16298
1.16306
1.16247
1.16644
1.16969
1.17132
1.17105
1.16995
1.17057
1.16928
1.16639
1.16367
1.16009
1.1566
1.15394
1.15391
1.15642
1.16257
1.16988
1.17806
1.18657
1.1918
1.19497
1.19799
1.19787
1.19839
1.19905
1.19993
1.20147
1.20422
1.20623
1.2038
1.19464
1.1795
1.16185
1.15091
1.14696
1.14491
1.14254
1.14007
1.13694
1.13545
1.13948
1.14653
1.15344
1.15897
1.1591
1.15599
1.15412
1.15396
1.15354
1.1489
1.13897
1.1329
1.12732
1.11965
1.11386
1.1092
1.10596
1.1035
1.10327
1.10342
1.10411
1.10896
1.11201
1.11038
1.11211
1.11329
1.11969
1.12025
1.11857
1.11941
1.13771
1.14085
1.14954
1.14197
1.15239
1.15417
1.15256
1.14649
1.14584
1.14082
1.12906
1.14058
1.13264
1.13611
1.14666
1.14051
1.13134
1.14519
1.14732
1.12558
1.10989
1.14104
1.14606
1.14132
1.15511
1.14485
1.14553
1.16286
1.13868
1.12949
1.18923
1.21797
1.14821
1.12605
1.19256
1.22938
1.22754
1.27018
1.29859
1.31448
1.30506
1.28305
1.24034
1.2085
1.19603
1.14497
1.12072
1.13145
1.12838
1.11069
1.10988
1.12912
1.1306
1.10681
1.19264
1.18361
1.15419
1.18085
1.19462
1.1343
1.06374
1.14032
1.22941
1.31165
1.33637
1.32588
1.35993
1.39048
1.40372
1.37098
1.35907
1.3805
1.37648
1.34614
1.32262
1.25855
1.1421
1.22125
1.17183
1.10768
1.33342
1.2964
1.22436
1.20778
1.19048
1.25778
1.24252
1.19278
1.31103
1.48406
1.54609
1.50584
1.57552
1.53881
1.38523
1.38751
1.38601
1.32756
1.33563
1.3215
1.35519
1.14792
1.15463
1.15813
1.15964
1.15665
1.15611
1.16166
1.16762
1.16363
1.1583
1.16004
1.16395
1.16646
1.16886
1.17073
1.1725
1.17359
1.17468
1.17501
1.17323
1.17043
1.16596
1.16099
1.15589
1.15091
1.14971
1.14909
1.15276
1.15625
1.16066
1.16612
1.16949
1.17351
1.17694
1.18128
1.18693
1.19247
1.19661
1.19626
1.19031
1.17885
1.16577
1.15483
1.14693
1.14048
1.13529
1.132
1.13153
1.13432
1.13903
1.14552
1.15037
1.14971
1.14378
1.13534
1.12898
1.12918
1.12967
1.12738
1.12315
1.12131
1.11883
1.1153
1.11253
1.11238
1.11329
1.11497
1.11725
1.12008
1.12554
1.12445
1.12171
1.12732
1.12499
1.11458
1.11928
1.12733
1.14279
1.13733
1.14396
1.14095
1.14647
1.15654
1.15251
1.15547
1.14054
1.1463
1.12562
1.13486
1.11929
1.12082
1.12472
1.11996
1.12019
1.12579
1.1306
1.13071
1.15377
1.16095
1.13708
1.14702
1.14759
1.13982
1.15808
1.1551
1.15027
1.16038
1.13754
1.13163
1.18568
1.22093
1.17461
1.12303
1.17928
1.23238
1.22514
1.25811
1.29702
1.31003
1.31702
1.30042
1.24343
1.21295
1.19557
1.15155
1.12524
1.12937
1.13643
1.11739
1.10552
1.13616
1.1256
1.13502
1.20321
1.19397
1.16391
1.19625
1.1983
1.09708
1.10114
1.21135
1.2922
1.31545
1.32867
1.34724
1.3951
1.40715
1.44497
1.41088
1.36794
1.37955
1.37432
1.3636
1.31841
1.26496
1.16586
1.21862
1.20591
1.1438
1.3592
1.30655
1.21327
1.2233
1.19026
1.27237
1.29737
1.23953
1.34671
1.49546
1.55912
1.51097
1.60099
1.5654
1.41535
1.39774
1.38664
1.34544
1.35019
1.31815
1.36399
1.14408
1.15159
1.15333
1.15595
1.15757
1.15819
1.15253
1.15564
1.16349
1.15729
1.15103
1.15499
1.15958
1.16285
1.16608
1.1686
1.17129
1.17393
1.17615
1.17823
1.17902
1.179
1.17733
1.173
1.16811
1.16215
1.15681
1.15243
1.14911
1.14704
1.14596
1.1459
1.14809
1.1516
1.1562
1.16136
1.16618
1.17086
1.17368
1.17353
1.16833
1.15975
1.15112
1.14448
1.13877
1.13356
1.13021
1.13063
1.13489
1.14129
1.14473
1.14324
1.13855
1.12906
1.11966
1.11684
1.11767
1.12108
1.12587
1.12725
1.12855
1.13105
1.13072
1.1289
1.13055
1.12946
1.13081
1.128
1.1224
1.12581
1.12537
1.11643
1.10988
1.11365
1.11964
1.12708
1.12327
1.1334
1.13855
1.13826
1.14825
1.13745
1.14966
1.14701
1.1618
1.15258
1.15016
1.13797
1.13583
1.12633
1.13184
1.13359
1.1277
1.13592