/*--------------------------------*- C++ -*----------------------------------*\
| =========                 |                                                 |
| \\      /  F ield         | OpenFOAM: The Open Source CFD Toolbox           |
|  \\    /   O peration     | Version:  dev                                   |
|   \\  /    A nd           | Web:      http://www.openfoam.org               |
|    \\/     M anipulation  |                                                 |
\*---------------------------------------------------------------------------*/
FoamFile
{
    version     2.0;
    format      ascii;
    class       volVectorField;
    object      U;
    location    "9.143";
}
// * * * * * * * * * * * * * * * * * * * * * * * * * * * * * * * * * * * * * //

dimensions      [0 1 -1 0 0 0 0];

internalField   nonuniform List<vector> 
12225
(
(8.05787 0.673209 0)
(7.87478 0.4757 0)
(7.8617 0.30432 0)
(9.38371 0.240335 0)
(9.85962 0.304232 0)
(11.7189 0.24498 0)
(11.9126 0.330646 0)
(13.316 0.254181 0)
(13.4882 0.332771 0)
(14.3086 0.251584 0)
(14.5013 0.325533 0)
(15.3915 0.183302 0)
(15.513 0.371376 0)
(15.6071 0.490421 0)
(17.3961 -0.677111 0)
(16.4145 2.885 0)
(24.5826 -4.87475 0)
(19.0201 0.161128 0)
(10.4406 1.53522 0)
(13.1804 1.63535 0)
(12.39 1.25884 0)
(15.0904 0.918822 0)
(13.531 0.883328 0)
(17.4143 0.672829 0)
(15.5476 0.857985 0)
(19.3258 0.554809 0)
(17.8938 0.836208 0)
(20.6391 0.473328 0)
(20.2017 0.677099 0)
(22.855 0.156801 0)
(21.1448 1.00715 0)
(27.3679 -0.434761 0)
(18.2634 1.20263 0)
(37.435 -2.47437 0)
(26.9703 -3.41924 0)
(30.3813 1.34626 0)
(10.1349 1.739 0)
(15.6436 2.13998 0)
(13.9516 1.88524 0)
(19.0514 1.57776 0)
(15.737 1.57046 0)
(21.7085 1.21908 0)
(17.7503 1.51955 0)
(23.5705 0.8237 0)
(20.505 1.50094 0)
(24.4563 0.529004 0)
(24.1173 1.13344 0)
(25.14 0.456884 0)
(28.0191 0.625618 0)
(25.995 1.38491 0)
(30.9216 -2.03685 0)
(30.5016 -3.1622 0)
(28.4683 3.11043 0)
(45.8281 -19.3724 0)
(8.4813 1.92749 0)
(17.5676 2.76301 0)
(13.6703 2.47732 0)
(21.702 2.16242 0)
(16.6454 2.24492 0)
(24.835 1.58616 0)
(19.3599 2.2717 0)
(27.4508 0.952223 0)
(21.8712 2.3065 0)
(29.4419 0.381592 0)
(24.5465 1.71695 0)
(31.1908 -0.558085 0)
(27.2863 2.06256 0)
(35.337 -0.0459329 0)
(31.8432 -1.0164 0)
(31.7382 -0.245075 0)
(34.238 -8.93185 0)
(27.2807 -9.08348 0)
(6.58114 2.58944 0)
(18.7686 2.84679 0)
(12.9465 3.13993 0)
(23.0516 2.47295 0)
(16.964 3.06848 0)
(26.4675 1.9357 0)
(19.0188 2.92036 0)
(29.7087 1.3287 0)
(20.7759 2.88248 0)
(32.8823 0.763045 0)
(21.4057 2.78964 0)
(32.1623 -0.477565 0)
(22.8554 1.63549 0)
(39.4638 -1.28383 0)
(24.6137 1.5607 0)
(36.4976 -2.47675 0)
(24.773 -3.32051 0)
(29.5143 -10.7473 0)
(7.66529 2.92524 0)
(17.4006 3.31422 0)
(13.146 3.44395 0)
(21.8103 2.99035 0)
(17.4469 3.42206 0)
(24.8686 2.77585 0)
(19.1822 3.13791 0)
(28.0893 2.18674 0)
(21.1243 2.60481 0)
(30.0329 2.0007 0)
(20.8985 3.27702 0)
(30.1623 0.0757181 0)
(21.3537 0.264924 0)
(33.011 0.15902 0)
(17.7234 1.66185 0)
(35.6246 -2.6469 0)
(20.1257 -1.8104 0)
(24.1701 -12.3612 0)
(9.18711 4.04004 0)
(14.6976 3.58055 0)
(14.1507 4.30869 0)
(19.2464 3.37693 0)
(17.3534 4.54297 0)
(22.0012 3.39752 0)
(19.8046 3.73986 0)
(26.0277 2.62072 0)
(21.7215 3.86621 0)
(25.5805 2.62922 0)
(24.5518 3.45599 0)
(28.7675 0.874421 0)
(22.3811 2.6909 0)
(25.4585 0.799891 0)
(25.0097 2.35579 0)
(30.2609 -4.00938 0)
(25.9557 6.1022 0)
(24.5935 -14.9695 0)
(11.3239 4.32355 0)
(13.1417 4.32364 0)
(16.6885 4.67196 0)
(16.59 4.23062 0)
(19.2449 4.99956 0)
(19.7291 4.02866 0)
(22.782 3.78728 0)
(22.5625 3.40314 0)
(24.0988 4.50128 0)
(24.169 2.96422 0)
(25.903 3.31333 0)
(26.4891 2.26907 0)
(27.2383 3.26763 0)
(26.1717 0.666552 0)
(27.7815 1.02969 0)
(25.4061 -3.38948 0)
(32.371 3.1255 0)
(29.3527 -7.84897 0)
(11.7603 5.17051 0)
(12.6556 4.42156 0)
(17.0693 5.80782 0)
(15.9635 4.59276 0)
(20.2727 5.77076 0)
(20.2972 4.00528 0)
(23.8019 4.76571 0)
(22.1332 3.72343 0)
(24.4647 5.3178 0)
(25.6906 3.09053 0)
(26.3227 4.34284 0)
(28.0091 1.48071 0)
(27.1774 4.63997 0)
(29.6214 1.04542 0)
(28.5919 3.40782 0)
(29.3756 -3.98732 0)
(28.3565 1.60411 0)
(30.878 -3.79653 0)
(11.6305 5.58913 0)
(13.4385 5.32881 0)
(16.3364 6.38281 0)
(17.506 5.5489 0)
(19.9157 5.89585 0)
(21.4167 5.04893 0)
(22.4556 5.21263 0)
(23.526 5.02184 0)
(24.1949 4.86289 0)
(26.091 3.95458 0)
(26.2316 3.87829 0)
(27.6776 3.31219 0)
(26.6615 3.49461 0)
(29.1856 2.29652 0)
(27.7528 1.74626 0)
(28.7341 -0.903368 0)
(24.7208 0.575181 0)
(26.9734 0.190205 0)
(11.4596 6.21254 0)
(13.5437 5.91719 0)
(15.8953 7.30997 0)
(17.8099 5.84422 0)
(19.5414 6.86519 0)
(21.1373 5.26737 0)
(21.9663 6.44721 0)
(23.28 4.83711 0)
(24.3911 6.30304 0)
(25.1959 3.61363 0)
(25.9279 5.35992 0)
(26.2599 2.68863 0)
(27.2116 5.06589 0)
(27.2115 1.80082 0)
(27.6631 3.20075 0)
(26.7301 0.353388 0)
(26.5527 1.39313 0)
(26.4608 -0.15767 0)
(11.3293 6.73405 0)
(13.4006 6.97622 0)
(15.8634 7.75327 0)
(17.5553 7.06795 0)
(19.6065 7.22743 0)
(20.6605 6.87785 0)
(22.1062 6.6183 0)
(22.8333 6.48095 0)
(24.1228 5.79901 0)
(24.8834 5.60711 0)
(25.5069 5.09089 0)
(25.9756 4.74208 0)
(26.2347 4.07941 0)
(27.055 4.11608 0)
(26.9543 3.38535 0)
(26.9229 2.38844 0)
(26.4232 1.9731 0)
(26.0789 2.12437 0)
(10.9559 7.5858 0)
(13.4739 7.9266 0)
(15.4554 8.64205 0)
(17.3672 7.61843 0)
(19.0413 8.26374 0)
(20.4634 7.19824 0)
(21.7965 7.92654 0)
(22.8633 6.65132 0)
(23.8866 7.29451 0)
(24.5587 5.69505 0)
(25.2167 6.14765 0)
(25.7548 4.97197 0)
(26.0269 5.33047 0)
(26.1883 4.26673 0)
(26.3571 3.93908 0)
(26.3569 3.34682 0)
(25.9913 3.03536 0)
(25.7063 2.68131 0)
(11.0211 8.10974 0)
(13.59 9.10151 0)
(15.5267 9.34768 0)
(17.1539 9.0636 0)
(18.7519 8.91308 0)
(20.1589 8.65679 0)
(21.4737 8.31819 0)
(22.6442 8.01701 0)
(23.5102 7.56577 0)
(24.4287 7.17241 0)
(24.8919 6.80368 0)
(25.2921 6.3218 0)
(25.5647 5.91176 0)
(25.7686 5.5205 0)
(25.8639 5.1031 0)
(25.757 4.59057 0)
(25.5734 4.14968 0)
(25.4671 3.86484 0)
(10.7834 8.92799 0)
(13.2257 10.1324 0)
(15.0256 10.2375 0)
(16.7338 9.92382 0)
(18.2931 9.9301 0)
(19.7171 9.39826 0)
(21.0223 9.28768 0)
(22.0806 8.75004 0)
(23.0028 8.5365 0)
(23.7706 8.00808 0)
(24.3318 7.64023 0)
(24.8002 7.23365 0)
(25.0887 6.84803 0)
(25.267 6.43752 0)
(25.3849 5.98755 0)
(25.4143 5.56241 0)
(25.2753 5.25745 0)
(25.1694 4.94911 0)
(10.8429 9.63371 0)
(13.0632 11.3871 0)
(14.7993 11.1867 0)
(16.486 11.0106 0)
(18.0325 10.7627 0)
(19.4263 10.4754 0)
(20.6237 10.1475 0)
(21.6894 9.78193 0)
(22.5484 9.38193 0)
(23.2728 8.96086 0)
(23.7917 8.60796 0)
(24.2246 8.21804 0)
(24.5102 7.84758 0)
(24.7116 7.49317 0)
(24.7971 7.13083 0)
(24.8021 6.76433 0)
(24.7101 6.45217 0)
(24.6767 6.13939 0)
(10.7198 10.4959 0)
(12.8826 12.214 0)
(14.5287 11.8803 0)
(16.1374 11.607 0)
(17.5795 11.3614 0)
(18.8885 11.0826 0)
(20.0185 10.8422 0)
(21.0315 10.5105 0)
(21.8747 10.1563 0)
(22.6075 9.80174 0)
(23.1438 9.45607 0)
(23.5811 9.08333 0)
(23.9037 8.7055 0)
(24.1446 8.34586 0)
(24.241 8.00463 0)
(24.3241 7.66807 0)
(24.3037 7.38512 0)
(24.3301 7.09751 0)
(10.9217 10.7449 0)
(12.9036 12.651 0)
(14.5082 12.3684 0)
(16.0382 12.1454 0)
(17.3583 11.8812 0)
(18.5599 11.5667 0)
(19.6092 11.2518 0)
(20.5524 10.9004 0)
(21.3719 10.5286 0)
(22.1158 10.1733 0)
(22.6772 9.85262 0)
(23.1159 9.51894 0)
(23.4506 9.16879 0)
(23.7142 8.83345 0)
(23.8409 8.51408 0)
(23.9071 8.17942 0)
(23.8986 7.91884 0)
(23.9413 7.64605 0)
(10.5949 10.5422 0)
(12.5183 12.3534 0)
(14.1374 12.0575 0)
(15.7062 11.8855 0)
(17.0993 11.6922 0)
(18.3329 11.4399 0)
(19.402 11.1218 0)
(20.318 10.7692 0)
(21.07 10.3833 0)
(21.7491 10.0058 0)
(22.2607 9.71789 0)
(22.6811 9.41444 0)
(22.9778 9.10211 0)
(23.2282 8.82617 0)
(23.36 8.55013 0)
(23.4395 8.2592 0)
(23.4639 8.05154 0)
(23.4711 7.80589 0)
(10.8563 9.96444 0)
(12.4272 11.7339 0)
(13.8916 11.3384 0)
(15.3668 11.1116 0)
(16.7284 10.9606 0)
(17.9695 10.7608 0)
(19.0668 10.4973 0)
(20.0373 10.2076 0)
(20.7789 9.88536 0)
(21.3804 9.534 0)
(21.8742 9.29591 0)
(22.2597 9.03911 0)
(22.51 8.69235 0)
(22.7451 8.42476 0)
(22.8949 8.173 0)
(22.9596 7.87238 0)
(22.9739 7.67304 0)
(23.022 7.45743 0)
(10.4122 9.40829 0)
(12.197 10.6805 0)
(13.7672 10.2498 0)
(15.2044 10.0194 0)
(16.4851 9.85804 0)
(17.6725 9.64941 0)
(18.7118 9.40407 0)
(19.6281 9.19876 0)
(20.3873 8.95863 0)
(21.0008 8.64421 0)
(21.5105 8.43674 0)
(21.9452 8.24981 0)
(22.246 7.93628 0)
(22.4839 7.67297 0)
(22.6318 7.49727 0)
(22.6959 7.23936 0)
(22.7025 7.0594 0)
(22.7418 6.89705 0)
(10.4657 8.19435 0)
(12.1416 9.46363 0)
(13.6471 9.10643 0)
(15.0189 8.89323 0)
(16.3147 8.7035 0)
(17.5179 8.51472 0)
(18.522 8.311 0)
(19.3887 8.12628 0)
(20.1265 7.91294 0)
(20.7318 7.62279 0)
(21.1912 7.38591 0)
(21.5988 7.21826 0)
(21.9365 6.99924 0)
(22.1511 6.77505 0)
(22.2901 6.62522 0)
(22.4039 6.44394 0)
(22.3758 6.25969 0)
(22.3983 6.10686 0)
(10.3187 6.86376 0)
(12.1074 7.91719 0)
(13.7565 7.65868 0)
(15.2058 7.47659 0)
(16.4702 7.26812 0)
(17.5887 7.12483 0)
(18.5777 6.99708 0)
(19.4666 6.88721 0)
(20.223 6.72824 0)
(20.8219 6.55262 0)
(21.263 6.31681 0)
(21.6285 6.1128 0)
(21.9337 5.95236 0)
(22.1341 5.81007 0)
(22.2563 5.64357 0)
(22.3505 5.51476 0)
(22.3751 5.39879 0)
(22.3904 5.23999 0)
(10.4527 5.78303 0)
(12.1154 6.56236 0)
(13.7555 6.32647 0)
(15.2307 6.2071 0)
(16.4892 6.07364 0)
(17.5323 5.9326 0)
(18.4482 5.77011 0)
(19.2938 5.64895 0)
(20.0351 5.54944 0)
(20.641 5.43871 0)
(21.1267 5.25772 0)
(21.5417 5.10787 0)
(21.8203 4.97409 0)
(22.0076 4.82775 0)
(22.1634 4.71082 0)
(22.2369 4.56632 0)
(22.2621 4.45723 0)
(22.3069 4.3515 0)
(10.5029 4.46824 0)
(12.2348 5.0382 0)
(13.9495 4.86623 0)
(15.4097 4.79491 0)
(16.6423 4.73318 0)
(17.6805 4.6656 0)
(18.5805 4.5657 0)
(19.349 4.44027 0)
(20.0516 4.34812 0)
(20.668 4.23997 0)
(21.1681 4.1213 0)
(21.5591 4.00872 0)
(21.8548 3.94698 0)
(22.0521 3.84289 0)
(22.1796 3.74391 0)
(22.2397 3.67105 0)
(22.248 3.57432 0)
(22.2572 3.48002 0)
(10.7398 3.5542 0)
(12.4761 3.79969 0)
(14.1805 3.64137 0)
(15.6171 3.61984 0)
(16.8649 3.59689 0)
(17.9153 3.54112 0)
(18.8275 3.47127 0)
(19.578 3.36364 0)
(20.231 3.27075 0)
(20.7468 3.17399 0)
(21.1525 3.11543 0)
(21.4589 3.06984 0)
(21.7184 3.01371 0)
(21.9006 2.95512 0)
(22.0123 2.8748 0)
(22.0772 2.80554 0)
(22.1007 2.74237 0)
(22.1001 2.67798 0)
(10.5046 2.24764 0)
(12.3969 2.41973 0)
(14.1907 2.40181 0)
(15.6924 2.43594 0)
(16.9304 2.43574 0)
(17.9438 2.44045 0)
(18.8008 2.42429 0)
(19.4806 2.36394 0)
(20.0291 2.31847 0)
(20.4157 2.26805 0)
(20.708 2.23122 0)
(20.9164 2.21347 0)
(21.0806 2.16813 0)
(21.148 2.10715 0)
(21.1789 2.05485 0)
(21.1693 2.01165 0)
(21.1122 1.9593 0)
(21.0412 1.92818 0)
(10.4486 1.57087 0)
(12.442 1.37667 0)
(14.1539 1.35589 0)
(15.3722 1.40519 0)
(16.2813 1.45945 0)
(16.9855 1.51013 0)
(17.5494 1.54714 0)
(17.9609 1.53446 0)
(18.2681 1.52943 0)
(18.4902 1.51883 0)
(18.6463 1.5142 0)
(18.739 1.50642 0)
(18.7969 1.48339 0)
(18.7671 1.44635 0)
(18.7069 1.42011 0)
(18.603 1.39993 0)
(18.4803 1.37205 0)
(18.3312 1.34798 0)
(10.667 0.243702 0)
(12.162 0.193298 0)
(12.975 0.385893 0)
(13.312 0.575027 0)
(13.5827 0.75934 0)
(13.8671 0.87198 0)
(14.1639 0.933694 0)
(14.4084 0.939432 0)
(14.632 0.948545 0)
(14.8122 0.93596 0)
(14.9434 0.92187 0)
(15.0474 0.909612 0)
(15.1066 0.889319 0)
(15.1168 0.870749 0)
(15.0915 0.846591 0)
(15.0261 0.838876 0)
(14.9462 0.809769 0)
(14.8261 0.780634 0)
(8.91506 -0.125449 0)
(8.06135 0.00830505 0)
(7.65352 0.243146 0)
(7.72652 0.348212 0)
(8.194 0.389363 0)
(8.8132 0.379916 0)
(9.46223 0.358552 0)
(10.0478 0.341919 0)
(10.5413 0.332832 0)
(10.9403 0.322224 0)
(11.2561 0.313534 0)
(11.5037 0.307115 0)
(11.6864 0.301434 0)
(11.8136 0.29537 0)
(11.8837 0.286754 0)
(11.9093 0.285144 0)
(11.9235 0.266349 0)
(11.8308 0.281461 0)
(-0.0893337 -0.580194 0)
(-0.363085 -0.579398 0)
(-0.619665 -0.560127 0)
(-0.815794 -0.630871 0)
(-0.937183 -0.690661 0)
(-1.00185 -0.746846 0)
(-1.00361 -0.779228 1.16148e-17)
(-0.979354 -0.795106 -1.15484e-17)
(-0.940983 -0.793815 0)
(-0.890691 -0.786812 -1.14333e-17)
(-0.82506 -0.785675 0)
(-0.77024 -0.7865 0)
(-0.703861 -0.786747 0)
(-0.653571 -0.784837 1.12084e-17)
(-0.601884 -0.775475 0)
(-0.531292 -0.771538 0)
(-0.481668 -0.780158 -1.1015e-17)
(-0.489602 -0.752253 0)
(-0.451128 -0.727245 0)
(-0.43965 -0.652873 0)
(-0.524495 -0.564373 1.07092e-17)
(-0.619311 -0.608596 0)
(-0.71151 -0.599842 1.05445e-17)
(-0.895813 -0.483806 0)
(-1.09861 -0.460826 0)
(-1.28007 -0.403441 1.03048e-17)
(-1.58183 -0.280246 0)
(-1.92514 -0.180914 -1.01342e-17)
(-2.30511 0.0207017 0)
(-2.90956 0.189002 9.91572e-18)
(-3.6013 0.331029 0)
(-4.35686 0.565358 0)
(-5.43335 0.429469 0)
(-6.44712 -0.102282 0)
(-7.08452 -0.46984 0)
(-7.69026 -0.47665 -9.53131e-18)
(-8.29125 -0.346729 0)
(-8.75048 -0.260802 1.86361e-17)
(-9.05803 -0.178843 0)
(-9.31239 -0.142599 -1.82331e-17)
(-9.47028 -0.202966 0)
(-9.43836 -0.287377 0)
(-9.28769 -0.29411 1.77803e-17)
(-9.17641 -0.141992 0)
(-9.21063 0.100221 1.76389e-17)
(-9.52446 0.292368 -1.76064e-17)
(-10.1495 0.368832 0)
(-10.8754 0.378094 -1.74644e-17)
(-11.4964 0.380778 -1.73738e-17)
(-11.9784 0.351556 0)
(-12.4081 0.295894 0)
(-12.7926 0.224171 0)
(-13.0707 0.170936 0)
(-13.2641 0.118913 0)
(-13.4347 0.0391247 1.67132e-17)
(-13.6072 -0.0850421 0)
(-13.846 -0.117445 -1.64266e-17)
(-14.1585 -0.0155781 0)
(-14.5571 0.154463 0)
(-14.9988 0.35248 1.60462e-17)
(-15.4451 0.537481 0)
(-15.9333 0.65056 -1.57521e-17)
(-16.4313 0.729726 0)
(-16.9162 0.765478 0)
(-17.3644 0.788375 0)
(-17.7735 0.806836 1.51596e-17)
(-18.1569 0.822214 0)
(-18.5118 0.861796 0)
(-18.8637 0.9105 1.47323e-17)
(-19.2403 0.952152 0)
(-19.624 1.03272 1.44473e-17)
(-20.0447 1.12158 0)
(-20.4964 1.19286 0)
(-20.9936 1.24444 0)
(-21.5105 1.31852 -1.38627e-17)
(-22.05 1.43955 0)
(-22.6359 1.57758 0)
(-23.2279 1.72032 -1.33793e-17)
(-23.8541 1.78367 -1.32351e-17)
(-24.3749 1.81041 0)
(-24.7653 1.77618 -1.30423e-17)
(-25.0599 1.71335 0)
(-25.1291 1.65157 -2.58563e-17)
(-24.9489 1.53805 0)
(-24.5247 1.42275 -2.56674e-17)
(-23.8564 1.28875 0)
(-22.9769 1.17817 2.54205e-17)
(-21.9161 1.1066 0)
(-20.7058 1.03684 0)
(-19.3463 0.966024 0)
(-17.9473 0.918479 -2.46355e-17)
(-16.5604 0.913606 0)
(-15.1616 0.908566 2.41742e-17)
(-13.8639 0.979601 0)
(-12.6944 1.06914 -2.37856e-17)
(-11.4511 1.01048 -2.35782e-17)
(-10.3144 1.11467 -2.33543e-17)
(-9.26426 1.11955 0)
(-8.33298 1.17047 0)
(-7.45259 1.18413 0)
(-6.63703 1.18831 0)
(-5.78704 1.17348 0)
(-4.95168 1.20991 0)
(-4.28078 1.21647 0)
(-3.39568 1.13651 0)
(-2.30008 1.23386 2.19065e-17)
(-1.58065 1.50842 2.17024e-17)
(-1.36737 1.62523 0)
(-1.47223 1.63776 0)
(-1.70951 1.624 0)
(-1.97814 1.5205 2.11581e-17)
(-2.06497 1.38738 0)
(-2.10949 1.37532 0)
(-2.23172 1.42297 0)
(-2.2273 1.57498 0)
(-2.60612 1.77286 -1.95775e-17)
(-2.73771 1.49843 0)
(-1.64648 1.1273 0)
(-0.394598 1.46123 1.91145e-17)
(-0.415301 2.00539 -1.94375e-17)
(-0.614397 1.88795 0)
(-0.128784 1.41329 -1.93928e-17)
(0.477357 1.27024 0)
(0.375135 1.66962 1.99766e-17)
(-1.3937 2.35254 0)
(-3.63914 2.59412 0)
(-4.48201 2.24245 0)
(-3.3463 1.53739 0)
(-1.69305 1.2676 0)
(-0.780349 1.65008 -3.71207e-17)
(-1.01258 2.00101 -3.67383e-17)
(-2.26568 2.02677 0)
(-3.33823 2.18346 0)
(-4.79461 1.99428 0)
(-6.23152 1.57675 3.63254e-17)
(-6.3825 1.56874 0)
(-6.15429 1.36142 0)
(-7.08225 1.6528 0)
(-8.34666 1.46041 3.47225e-17)
(-7.78554 1.11101 -3.43693e-17)
(-9.05307 1.50439 0)
(-7.26624 0.723719 0)
(-8.05807 1.57115 -3.36742e-17)
(-8.42366 1.18226 -3.28467e-17)
(-8.32979 1.43336 0)
(-8.54265 1.31034 0)
(-9.6046 1.47117 3.18585e-17)
(-9.96299 1.44252 -3.1272e-17)
(-9.33218 1.00346 0)
(-8.77922 1.24563 0)
(-8.17589 1.35266 -3.08646e-17)
(-7.98337 1.46489 0)
(-8.1476 1.47682 0)
(-6.95602 1.51717 -3.02746e-17)
(-5.65459 1.64822 0)
(-5.08775 1.61161 -2.9961e-17)
(-5.17896 1.61422 0)
(-5.4798 1.55292 0)
(-5.46174 1.42686 0)
(-4.96762 1.43691 2.86184e-17)
(-4.3507 1.56089 0)
(-3.37403 1.52285 0)
(-1.86357 1.60101 0)
(-0.743763 1.73691 0)
(-0.312768 1.73961 0)
(0.965134 1.60524 0)
(1.72239 1.66028 2.70866e-17)
(2.50931 1.64029 2.68888e-17)
(3.39105 1.34458 0)
(5.30284 1.416 0)
(6.87096 1.50917 0)
(8.02726 1.23343 -2.69866e-17)
(9.8373 1.17165 0)
(10.2858 1.32506 5.46797e-17)
(11.5512 1.4645 -5.40305e-17)
(13.283 1.19833 -5.44932e-17)
(14.46 1.20221 5.4896e-17)
(14.948 1.36461 -5.51198e-17)
(14.4549 1.58556 5.47052e-17)
(14.779 1.5126 0)
(-0.0347323 -1.84815 0)
(-0.114173 -1.65373 0)
(-0.266077 -1.83046 -2.36371e-17)
(-0.442394 -2.07625 0)
(-0.55009 -2.28757 2.33073e-17)
(-0.531542 -2.46705 2.31873e-17)
(-0.403809 -2.59723 1.15105e-17)
(-0.207529 -2.66031 1.15098e-17)
(0.0301117 -2.67634 0)
(0.282734 -2.67829 1.14198e-17)
(0.559197 -2.68089 0)
(0.823186 -2.66457 0)
(1.0859 -2.64291 -2.25395e-17)
(1.34718 -2.61024 -1.12434e-17)
(1.55397 -2.55117 2.23455e-17)
(1.74032 -2.52186 2.22156e-17)
(1.93754 -2.41244 1.10703e-17)
(1.97888 -2.23414 0)
(2.10415 -2.34929 0)
(2.11074 -2.2902 0)
(1.97279 -1.88263 1.08203e-17)
(2.015 -1.86784 0)
(1.79118 -1.83865 -3.18494e-17)
(1.44693 -1.51952 0)
(1.27758 -1.57275 0)
(0.841121 -1.51645 -1.04098e-17)
(0.404658 -1.2038 0)
(0.0888359 -1.18596 1.02658e-17)
(-0.397771 -1.00946 2.03122e-17)
(-0.857286 -0.575686 -1.0133e-17)
(-1.20982 -0.281742 0)
(-1.66214 0.0511556 0)
(-2.26534 0.498991 0)
(-2.69921 0.562728 1.90906e-17)
(-3.39157 0.253969 1.88766e-17)
(-4.73815 0.232505 9.35991e-18)
(-5.8566 0.153579 0)
(-6.48191 -0.431253 -1.85565e-17)
(-7.02487 -0.905296 0)
(-7.58336 -1.04797 1.79746e-17)
(-7.95165 -1.27366 0)
(-7.9641 -1.57554 0)
(-7.67955 -1.66018 -1.73791e-17)
(-7.41857 -1.3966 0)
(-7.30617 -0.857244 -5.11618e-17)
(-7.24774 -0.0455294 1.68617e-17)
(-7.36612 0.683129 0)
(-7.78708 0.817478 1.68901e-17)
(-8.3317 0.553731 1.6727e-17)
(-8.75391 0.413974 0)
(-9.13515 0.481635 0)
(-9.62928 0.514734 0)
(-10.4666 0.419804 0)
(-11.5273 0.458339 0)
(-12.6121 0.820179 -1.65794e-17)
(-13.7232 1.28628 -3.26082e-17)
(-14.9128 1.6486 1.62154e-17)
(-16.1986 1.91895 0)
(-17.3582 2.07506 -3.21446e-17)
(-18.308 2.20654 1.59121e-17)
(-19.127 2.2893 0)
(-19.8945 2.3557 1.54942e-17)
(-20.52 2.4196 0)
(-21.1201 2.49215 0)
(-21.6852 2.57467 2.95446e-17)
(-22.1959 2.67933 -1.4554e-17)
(-22.713 2.82437 2.87448e-17)
(-23.2601 3.01358 -2.84119e-17)
(-23.8439 3.1809 -1.40482e-17)
(-24.3979 3.34636 0)
(-24.934 3.52194 -1.37404e-17)
(-25.5215 3.67455 0)
(-26.0874 3.86355 0)
(-26.6729 4.06008 0)
(-27.3081 4.26527 -1.31315e-17)
(-28.0047 4.43319 0)
(-28.6468 4.5495 -2.6254e-17)
(-29.219 4.60441 3.94511e-17)
(-29.6665 4.58416 1.3168e-17)
(-29.9101 4.48788 0)
(-29.9813 4.29453 1.31968e-17)
(-29.8022 4.05168 0)
(-29.3679 3.76033 2.63436e-17)
(-28.635 3.41841 0)
(-27.6538 3.07838 2.61053e-17)
(-26.4383 2.74663 -5.18917e-17)
(-25.0719 2.51835 -2.56887e-17)
(-23.5979 2.3503 0)
(-22.0526 2.19297 0)
(-20.4077 2.09583 0)
(-18.7947 2.06795 2.45575e-17)
(-17.2906 2.17114 0)
(-15.7467 2.31784 -2.39921e-17)
(-14.3405 2.50406 0)
(-13.185 2.63635 7.11063e-17)
(-11.8512 2.58266 2.35339e-17)
(-10.7664 2.84765 2.33568e-17)
(-9.36452 2.89178 0)
(-8.45699 3.08041 0)
(-7.31676 3.14243 0)
(-6.48649 3.18335 0)
(-5.5426 3.10891 0)
(-4.76889 3.17577 4.46883e-17)
(-4.09849 3.16056 4.42677e-17)
(-3.30281 2.77774 0)
(-2.12064 2.80564 -2.21687e-17)
(-0.852675 3.33019 -2.16619e-17)
(-0.0823435 3.84885 0)
(0.180902 4.20982 -4.2527e-17)
(0.480413 4.31518 0)
(0.705917 4.31572 2.02451e-17)
(0.658762 4.21148 0)
(0.0650441 4.30322 0)
(-0.605775 4.28731 -3.82416e-17)
(-0.759058 4.24051 0)
(-1.21095 4.39992 1.79515e-17)
(-1.30876 3.54429 0)
(-0.562443 2.54302 0)
(0.602527 3.43604 1.80682e-17)
(1.27921 4.29664 1.79179e-17)
(2.02839 4.17964 0)
(2.07957 4.15583 -1.8383e-17)
(0.253693 4.99153 0)
(-2.75651 6.43689 1.92997e-17)
(-5.65035 7.09813 3.82094e-17)
(-7.19596 6.37046 0)
(-6.64237 4.44659 0)
(-5.12934 2.93329 0)
(-4.34193 3.24068 0)
(-3.32353 4.34772 3.53364e-17)
(-3.03504 5.42426 1.0437e-16)
(-3.52935 5.58168 0)
(-4.12655 5.58732 0)
(-4.92832 5.69532 0)
(-7.44134 4.8938 -3.49316e-17)
(-7.75418 4.24577 0)
(-7.17814 3.7862 0)
(-8.54885 4.99398 6.79735e-17)
(-9.94001 4.22915 3.31818e-17)
(-8.3062 2.78899 3.292e-17)
(-9.80128 4.04755 0)
(-5.72069 1.8849 0)
(-8.60173 4.53616 3.28485e-17)
(-7.35035 2.73185 -3.17409e-17)
(-8.31268 3.09923 0)
(-6.69373 3.03576 0)
(-9.18962 3.3439 -3.02688e-17)
(-8.73178 2.8562 9.00354e-17)
(-7.56734 2.07345 0)
(-6.35253 2.45883 0)
(-5.31098 2.92836 2.95314e-17)
(-5.4807 3.01872 0)
(-6.21552 2.9158 5.97306e-17)
(-4.48579 2.63813 -2.99023e-17)
(-2.29493 3.0116 0)
(0.281 3.69573 2.88111e-17)
(1.45931 4.29188 5.70731e-17)
(0.994414 4.56493 0)
(0.620593 4.52001 0)
(0.309717 4.19358 -2.74349e-17)
(0.300023 3.99718 0)
(1.12979 3.68282 5.2733e-17)
(2.67911 3.53476 0)
(3.66024 3.95933 0)
(3.67937 4.20074 0)
(4.85537 3.8933 0)
(4.66674 4.02962 -2.43021e-17)
(5.11766 3.88864 -2.36833e-17)
(4.95938 3.28351 0)
(6.69189 2.83217 0)
(8.47635 3.11088 0)
(9.00761 3.08769 2.4417e-17)
(9.67016 3.4268 0)
(8.79348 3.66454 -5.01105e-17)
(10.5895 3.43112 4.94331e-17)
(12.0856 3.24378 5.16889e-17)
(12.2064 3.91255 5.32608e-17)
(10.6674 4.63079 5.31647e-17)
(9.0537 4.60297 5.17763e-17)
(9.97055 4.15532 0)
(-0.115319 -3.55863 0)
(0.00411817 -3.44971 0)
(0.109283 -3.16752 2.39479e-17)
(0.087498 -3.31715 2.35572e-17)
(0.108192 -3.76483 -2.35256e-17)
(0.221407 -4.26441 -2.34396e-17)
(0.441778 -4.67605 -8.69119e-20)
(0.782445 -4.92732 0)
(1.17581 -5.0037 0)
(1.60541 -5.0235 0)
(2.05821 -5.02868 0)
(2.53759 -4.95253 0)
(2.97887 -4.88789 6.75055e-17)
(3.44226 -4.85105 0)
(3.8669 -4.60526 -2.22662e-17)
(4.19726 -4.46611 -2.21439e-17)
(4.64291 -4.41551 0)
(4.74785 -3.97745 0)
(5.04263 -3.81462 0)
(5.2955 -3.70889 0)
(5.01902 -3.15032 -2.14478e-17)
(5.26237 -3.05327 0)
(5.12288 -2.69325 2.10408e-17)
(4.75758 -2.16572 0)
(4.5622 -2.04116 0)
(3.94168 -1.54068 0)
(3.37439 -1.42428 4.11727e-17)
(2.62645 -1.3152 0)
(1.85593 -0.826262 -2.03645e-17)
(1.02106 -0.850332 4.02741e-17)
(0.182268 -0.774172 0)
(-0.362746 -0.137097 0)
(-1.01039 0.0620833 0)
(-1.60641 -0.227565 -1.93093e-17)
(-2.27983 0.46029 -1.88751e-17)
(-2.86167 1.17614 0)
(-3.19062 0.447936 0)
(-3.74382 -0.490639 3.67949e-17)
(-4.369 -0.511236 3.62777e-17)
(-5.03781 -0.323795 -3.62625e-17)
(-5.79213 -0.952747 0)
(-6.19703 -2.17001 0)
(-6.22384 -2.70233 0)
(-6.30742 -2.18252 0)
(-6.63137 -1.40028 3.54496e-17)
(-7.05805 -0.627545 3.50015e-17)
(-7.48106 0.145641 -3.43987e-17)
(-7.99685 0.776851 0)
(-8.7986 1.00848 0)
(-9.93723 1.10356 0)
(-11.3024 1.40197 0)
(-12.84 2.06326 3.373e-17)
(-14.5008 2.83661 0)
(-16.2188 3.33124 0)
(-17.7539 3.52558 3.34642e-17)
(-18.9981 3.62983 3.31179e-17)
(-19.9156 3.69191 0)
(-20.692 3.74968 -6.44401e-17)
(-21.4392 3.80552 3.17057e-17)
(-22.06 3.90139 -3.12182e-17)
(-22.6328 3.98708 0)
(-23.2068 4.09155 0)
(-23.7625 4.1956 0)
(-24.3376 4.31096 0)
(-24.8875 4.46058 -2.91343e-17)
(-25.4277 4.6433 -5.77426e-17)
(-25.9203 4.8672 -2.85726e-17)
(-26.4082 5.09435 2.82552e-17)
(-26.8621 5.30028 0)
(-27.2179 5.54588 -5.48822e-17)
(-27.624 5.82243 -5.40571e-17)
(-28.0551 6.15837 -5.3473e-17)
(-28.5552 6.50292 5.32426e-17)
(-29.1035 6.83807 0)
(-29.6068 7.11422 8.04353e-17)
(-30.083 7.32496 0)
(-30.4445 7.43585 -2.72163e-17)
(-30.6689 7.42168 -2.71862e-17)
(-30.6672 7.28121 0)
(-30.4502 7.0099 0)
(-30.031 6.64154 -5.35648e-17)
(-29.4171 6.19199 0)
(-28.595 5.68424 -5.26776e-17)
(-27.585 5.14742 0)
(-26.4139 4.6496 5.17155e-17)
(-25.0543 4.20749 1.02388e-16)
(-23.6094 3.89247 0)
(-22.1048 3.7048 0)
(-20.5763 3.5291 0)
(-18.9368 3.45337 4.95759e-17)
(-17.3991 3.44778 0)
(-16.0051 3.66237 4.87454e-17)
(-14.5454 3.89222 0)
(-13.1313 4.19956 0)
(-11.9644 4.44763 -9.49127e-17)
(-10.728 4.46878 0)
(-9.78561 4.65798 -4.72095e-17)
(-8.35605 4.75287 0)
(-7.50774 5.02771 -4.64577e-17)
(-6.37803 5.14101 0)
(-5.60246 5.36564 0)
(-4.65248 5.44685 0)
(-4.15208 5.67389 -1.36179e-16)
(-3.73287 5.68756 -4.52961e-17)
(-3.23711 4.98696 0)
(-2.61044 4.74319 0)
(-1.59449 5.44652 0)
(-0.608651 6.24784 0)
(-0.166238 6.62279 4.25105e-17)
(0.294752 6.79059 -8.43799e-17)
(0.874554 7.01273 -4.10965e-17)
(1.63836 7.32856 8.20256e-17)
(1.61919 7.78744 8.13839e-17)
(1.24925 7.6446 3.89284e-17)
(0.934454 7.32202 0)
(-0.00699349 7.64194 7.0983e-17)
(-0.0889545 6.75625 0)
(-0.00438817 5.14186 -7.30316e-17)
(0.883919 5.71907 -3.67381e-17)
(2.18242 6.79909 0)
(2.06785 7.45252 7.28664e-17)
(0.217296 8.84816 3.76309e-17)
(-2.87821 10.7719 0)
(-5.88353 11.9305 3.85115e-17)
(-7.92657 11.8035 -1.16592e-16)
(-8.38195 10.0356 0)
(-7.6382 7.38382 0)
(-7.89739 6.25502 0)
(-7.58949 6.42848 0)
(-6.11723 7.23613 -7.00955e-17)
(-5.37398 8.59181 -6.92835e-17)
(-5.40708 8.74925 0)
(-6.12469 9.02527 0)
(-5.8393 9.69827 0)
(-7.89585 8.42211 0)
(-8.46263 7.13233 0)
(-7.09226 6.54435 0)
(-9.0256 8.14729 -6.72324e-17)
(-10.518 6.39247 1.693e-19)
(-7.20502 4.19105 0)
(-9.60759 5.4643 0)
(-4.35156 3.21864 -6.75961e-17)
(-7.94582 7.30213 0)
(-5.72492 5.17581 6.70897e-17)
(-6.9121 5.41022 6.29979e-17)
(-4.05263 5.48123 0)
(-6.87299 6.32211 0)
(-8.63194 5.09727 -6.41655e-17)
(-7.32291 3.65892 -1.27091e-16)
(-4.76349 4.13397 0)
(-2.54673 4.93653 0)
(-2.43233 5.99816 0)
(-4.54884 5.74613 -6.03673e-17)
(-3.79465 4.93582 6.21706e-17)
(-2.47421 4.7793 0)
(0.488239 5.4811 1.19697e-16)
(3.52387 6.6994 5.79306e-17)
(4.11391 7.51892 -1.11685e-16)
(4.19565 7.52743 0)
(4.31981 7.45886 0)
(3.87592 7.15197 -1.05328e-16)
(4.25846 6.58302 -5.27983e-17)
(6.05758 6.58203 0)
(6.9816 7.19655 0)
(6.78304 7.05473 0)
(7.61343 6.82919 0)
(7.08351 6.85465 -9.28811e-17)
(7.33595 6.8326 0)
(6.99824 5.52509 0)
(8.52096 4.79558 0)
(9.3996 5.43119 0)
(8.97903 5.88149 0)
(8.85974 6.06522 0)
(8.11248 5.82904 -9.39084e-17)
(10.4603 5.55333 0)
(10.3404 6.00305 0)
(8.8454 7.21915 -2.0804e-16)
(6.88303 7.79107 1.01543e-16)
(6.66221 7.23909 -9.82469e-17)
(7.74008 6.90272 9.99603e-17)
(-0.205697 -4.78944 0)
(-0.331696 -5.34615 -4.94672e-17)
(-0.284222 -5.10503 0)
(-0.123092 -5.18044 -2.4132e-17)
(0.196966 -5.67201 0)
(0.613722 -6.27008 0)
(1.10631 -6.82502 2.35633e-17)
(1.60303 -7.25309 0)
(2.11291 -7.44061 0)
(2.6151 -7.51958 0)
(3.10278 -7.60907 0)
(3.59314 -7.53911 0)
(4.09749 -7.41625 -9.16097e-17)
(4.48105 -7.39722 -4.5322e-17)
(4.97608 -7.1123 4.48248e-17)
(5.37501 -6.83809 0)
(5.73257 -6.55366 0)
(5.97115 -6.06053 0)
(6.16918 -5.85735 0)
(6.41842 -5.32185 0)
(6.35948 -4.91766 -4.28959e-17)
(6.60521 -4.61165 -4.22374e-17)
(6.53667 -3.82259 4.22872e-17)
(6.4658 -3.43532 -4.17339e-17)
(6.48518 -2.74813 0)
(6.04721 -2.21605 0)
(5.78653 -1.65175 -4.09199e-17)
(5.14189 -0.91597 0)
(4.34266 -1.04727 0)
(3.51525 -0.194674 -3.99665e-17)
(2.50471 0.123303 -4.01604e-17)
(1.21922 -0.692458 -3.93562e-17)
(0.29851 -0.0641458 0)
(-0.387027 0.774076 0)
(-1.47444 0.332301 3.8805e-17)
(-2.07282 -0.459813 0)
(-2.56809 -0.202779 0)
(-3.36997 -0.0279326 -3.67464e-17)
(-4.14578 -0.592548 3.6228e-17)
(-4.78188 -0.69192 -3.61363e-17)
(-4.85563 -0.956888 0)
(-4.92048 -2.04824 0)
(-5.8304 -2.75548 -7.12394e-17)
(-6.93359 -2.24086 0)
(-7.92683 -0.895676 -7.07457e-17)
(-9.00326 0.481013 -1.0553e-16)
(-10.1832 1.40829 1.04879e-16)
(-11.3654 2.08404 -6.93225e-17)
(-12.6253 2.76095 0)
(-14.1393 3.45798 0)
(-15.7313 4.12999 -6.89195e-17)
(-17.2095 4.59641 -3.43788e-17)
(-18.465 4.8572 0)
(-19.4779 4.90378 0)
(-20.3999 4.8924 -3.35388e-17)
(-21.2709 4.939 -6.62435e-17)
(-22.0939 4.96089 0)
(-22.8959 4.97948 6.45262e-17)
(-23.6298 5.05621 -6.37797e-17)
(-24.2644 5.15646 6.30708e-17)
(-24.8342 5.33558 0)
(-25.3576 5.52052 0)
(-25.8489 5.72091 0)
(-26.2896 5.95032 0)
(-26.707 6.21416 0)
(-27.1187 6.51214 5.91396e-17)
(-27.5233 6.78349 0)
(-27.9588 7.03857 0)
(-28.3264 7.34341 0)
(-28.6534 7.71811 1.13645e-16)
(-29.008 8.11765 5.61702e-17)
(-29.3155 8.56097 5.57222e-17)
(-29.5844 8.98603 -1.11066e-16)
(-29.8015 9.34906 5.5501e-17)
(-29.983 9.57846 -5.53487e-17)
(-30.0763 9.68488 0)
(-30.0726 9.63803 5.4962e-17)
(-29.978 9.46043 0)
(-29.7705 9.19016 0)
(-29.4469 8.80216 0)
(-29.0253 8.35442 1.05684e-16)
(-28.4579 7.8098 -5.25039e-17)
(-27.7215 7.17526 -5.22931e-17)
(-26.7747 6.53984 -1.03725e-16)
(-25.6584 5.9088 -1.54647e-16)
(-24.3516 5.41689 -5.11644e-17)
(-22.9134 5.077 0)
(-21.3973 4.8306 -1.01443e-16)
(-19.8041 4.67117 0)
(-18.1782 4.64504 -1.50165e-16)
(-16.6011 4.80851 0)
(-15.1722 5.13101 -1.48225e-16)
(-13.7093 5.40093 0)
(-12.3276 5.78836 0)
(-11.0501 6.23931 -4.86597e-17)
(-9.93659 6.45025 0)
(-8.80795 6.58988 4.81366e-17)
(-7.69597 6.73383 9.52651e-17)
(-6.55309 6.9799 4.68044e-17)
(-5.48593 7.15577 9.31314e-17)
(-4.59889 7.31604 -9.24619e-17)
(-3.63221 7.51333 -9.19101e-17)
(-2.91754 7.98927 1.82229e-16)
(-2.56668 8.17617 0)
(-2.20339 7.60058 0)
(-2.1026 7.02317 9.18283e-17)
(-1.71985 7.41885 -9.04065e-17)
(-1.15187 8.33971 0)
(-0.615642 8.79329 0)
(-0.265637 8.73151 8.33856e-17)
(0.212249 8.67871 0)
(1.16419 9.06634 2.81556e-19)
(1.75856 10.2311 2.84588e-19)
(2.36983 10.8041 8.2006e-17)
(2.17419 10.9139 0)
(1.11936 10.9001 -7.17004e-17)
(1.08424 9.28362 0)
(0.77781 7.15609 7.1666e-17)
(0.873898 7.61573 0)
(1.32822 9.76686 0)
(-0.0634832 11.737 -7.47295e-17)
(-2.51941 13.8928 -7.64318e-17)
(-5.28596 15.6866 0)
(-7.36954 16.4411 -7.72338e-17)
(-8.38775 15.588 1.58324e-16)
(-8.27351 13.0066 0)
(-8.30505 10.4258 0)
(-9.52809 9.28734 0)
(-9.08258 8.4487 0)
(-8.26732 9.4097 6.9909e-17)
(-7.11313 11.3402 -1.38035e-16)
(-7.3609 12.0897 0)
(-8.26148 11.9969 0)
(-6.46321 12.5691 0)
(-8.07909 11.3775 0)
(-9.5827 9.71584 0)
(-6.44626 8.82063 0)
(-7.43589 11.6971 0)
(-10.073 9.3515 6.8448e-17)
(-4.88006 5.98439 0)
(-7.85287 7.46065 0)
(-4.71684 6.03041 7.42093e-17)
(-7.2762 9.74781 0)
(-6.25187 6.20853 0)
(-6.91426 7.01308 -6.64906e-17)
(-3.00384 7.23722 0)
(-2.69187 9.22423 0)
(-5.33192 7.1742 1.27853e-16)
(-6.11824 4.68985 1.33737e-16)
(-4.55255 5.01763 1.3156e-16)
(-1.85409 6.00555 0)
(0.924738 8.04855 1.15573e-16)
(-0.511 7.79729 0)
(-0.557104 6.52498 -1.20288e-16)
(-0.95596 6.29043 0)
(0.285097 6.53792 -1.23477e-16)
(3.94106 8.43762 3.53441e-19)
(5.4604 9.93453 1.12748e-16)
(5.51427 10.1798 -1.09939e-16)
(6.66875 10.5217 1.09765e-16)
(6.13871 10.1954 2.10618e-16)
(5.12643 8.92128 0)
(7.45136 8.88555 0)
(9.02489 10.3392 0)
(9.1725 10.42 0)
(9.77741 9.96251 0)
(9.17064 9.8736 9.19753e-17)
(8.88334 9.86688 0)
(8.82706 7.71459 8.31503e-17)