/*--------------------------------*- C++ -*----------------------------------*\
| =========                 |                                                 |
| \\      /  F ield         | OpenFOAM: The Open Source CFD Toolbox           |
|  \\    /   O peration     | Version:  dev                                   |
|   \\  /    A nd           | Web:      http://www.openfoam.org               |
|    \\/     M anipulation  |                                                 |
\*---------------------------------------------------------------------------*/
FoamFile
{
    version     2.0;
    format      ascii;
    class       volVectorField;
    object      U_0;
    location    "9.143";
}
// * * * * * * * * * * * * * * * * * * * * * * * * * * * * * * * * * * * * * //

dimensions      [0 1 -1 0 0 0 0];

internalField   nonuniform List<vector> 
12225
(
(8.17576 0.770487 0)
(8.11271 0.546645 0)
(8.35498 0.3707 0)
(10.2165 0.306577 0)
(10.988 0.363121 0)
(13.2447 0.298717 0)
(13.7336 0.382161 0)
(15.5628 0.298961 0)
(16.0425 0.379414 0)
(17.2706 0.284203 0)
(17.8682 0.353355 0)
(19.1102 0.223674 0)
(19.523 0.43275 0)
(20.0714 0.439557 0)
(22.5241 -0.586197 0)
(22.5831 3.16448 0)
(30.6884 -5.89481 0)
(26.8351 1.42851 0)
(10.5501 1.84513 0)
(13.3739 1.89582 0)
(12.7689 1.5073 0)
(15.6989 1.16303 0)
(14.3951 1.11474 0)
(18.5414 0.899957 0)
(16.9194 1.07229 0)
(21.0301 0.756627 0)
(19.8112 1.03322 0)
(22.9579 0.627233 0)
(22.8676 0.818714 0)
(25.624 0.358809 0)
(24.6894 1.0916 0)
(30.3074 -0.450023 0)
(23.6567 1.0958 0)
(43.0555 -2.77728 0)
(30.0541 -2.44932 0)
(40.3359 -0.798151 0)
(10.2199 2.27034 0)
(15.8444 2.61289 0)
(14.3393 2.3505 0)
(19.6895 2.04007 0)
(16.6377 2.00795 0)
(22.8385 1.65253 0)
(19.1397 1.91695 0)
(25.2906 1.2196 0)
(22.3573 1.86625 0)
(26.8703 0.841349 0)
(26.5395 1.45931 0)
(28.1992 0.741866 0)
(30.9345 1.04392 0)
(29.585 1.12792 0)
(35.159 -2.40342 0)
(34.3933 -1.88145 0)
(37.11 0.260212 0)
(51.006 -22.2115 0)
(8.52077 2.75824 0)
(17.7663 3.47051 0)
(14.0566 3.17982 0)
(22.3421 2.85068 0)
(17.5732 2.90649 0)
(25.9737 2.25227 0)
(20.8065 2.87344 0)
(29.1374 1.57728 0)
(23.8021 2.84795 0)
(31.7356 0.868414 0)
(27.0023 2.13882 0)
(34.0743 0.0470896 0)
(30.6598 2.57916 0)
(39.0742 -0.111362 0)
(34.605 -0.757618 0)
(36.5064 -1.46242 0)
(38.4501 -9.94193 0)
(35.2108 -9.19542 0)
(6.73122 3.70705 0)
(18.8405 3.81345 0)
(13.3914 4.09499 0)
(23.5943 3.42026 0)
(17.9186 3.97331 0)
(27.3968 2.85027 0)
(20.512 3.75043 0)
(31.1783 2.20037 0)
(22.8567 3.62525 0)
(34.7561 1.55901 0)
(23.4753 3.3871 0)
(34.7709 0.0590515 0)
(26.8567 2.12389 0)
(42.5317 -0.598304 0)
(27.4291 1.81172 0)
(40.245 -3.08336 0)
(28.459 -5.86564 0)
(34.5629 -12.7283 0)
(7.91813 4.42192 0)
(17.2874 4.57032 0)
(13.6572 4.68217 0)
(22.1999 4.2145 0)
(18.3232 4.64307 0)
(25.6058 3.95218 0)
(20.6881 4.23083 0)
(29.4356 3.26631 0)
(23.0336 3.6937 0)
(31.6162 3.14057 0)
(23.3157 3.95176 0)
(32.5531 0.563335 0)
(24.4633 1.22484 0)
(35.3042 1.17539 0)
(21.7399 1.71687 0)
(39.5784 -3.1525 0)
(21.7466 -3.8433 0)
(29.7204 -13.9026 0)
(9.47989 5.87165 0)
(14.5765 5.15281 0)
(14.7605 5.84805 0)
(19.4795 4.94891 0)
(18.2732 6.07675 0)
(22.7469 4.82129 0)
(21.4752 5.09098 0)
(27.2414 4.07602 0)
(23.4468 5.25709 0)
(27.5541 3.87364 0)
(27.3153 4.39593 0)
(30.7046 1.93033 0)
(24.8 3.79489 0)
(28.705 1.61754 0)
(29.1814 2.29965 0)
(33.8651 -3.06787 0)
(28.2312 3.84582 0)
(27.5585 -18.7639 0)
(11.5539 6.44507 0)
(13.1949 6.15912 0)
(17.1706 6.53697 0)
(16.9077 6.08524 0)
(20.2426 6.7827 0)
(20.7586 5.65781 0)
(24.289 5.45944 0)
(23.8047 5.16942 0)
(26.0213 6.05989 0)
(26.2347 4.34539 0)
(28.3778 4.68178 0)
(28.9939 3.59517 0)
(29.973 4.29287 0)
(29.1786 1.34974 0)
(30.7951 1.339 0)
(29.6368 -2.25592 0)
(36.1545 2.5029 0)
(28.8925 -10.0999 0)
(11.8265 7.59441 0)
(12.8646 6.5392 0)
(17.3158 7.94737 0)
(16.604 6.68741 0)
(21.177 7.7453 0)
(21.5071 5.9416 0)
(24.9482 6.73236 0)
(23.58 5.72713 0)
(26.4122 7.01552 0)
(27.8096 4.74644 0)
(28.7029 5.77366 0)
(30.4745 3.11711 0)
(29.9529 5.95361 0)
(32.6556 2.09293 0)
(31.5018 3.60826 0)
(32.5273 -3.26284 0)
(31.7911 2.20292 0)
(32.8946 -4.97949 0)
(11.7195 8.33778 0)
(13.6462 7.76856 0)
(16.587 8.78788 0)
(18.2 7.89153 0)
(20.6858 8.18077 0)
(22.4451 7.30266 0)
(23.5444 7.48512 0)
(25.0448 7.15343 0)
(25.9803 6.82857 0)
(28.0639 5.83616 0)
(28.4106 5.72048 0)
(29.9138 5.0548 0)
(29.3764 4.95299 0)
(31.9702 3.51421 0)
(30.5019 2.54378 0)
(31.2998 0.0638809 0)
(27.5769 1.4408 0)
(30.3818 -0.354814 0)
(11.5388 9.3649 0)
(13.6744 8.70685 0)
(16.2117 10.015 0)
(18.3629 8.53337 0)
(20.2872 9.47882 0)
(22.0387 7.88903 0)
(23.1312 8.96244 0)
(24.7126 7.3179 0)
(26.0544 8.53815 0)
(27.0191 5.83617 0)
(27.9602 7.42365 0)
(28.5514 4.73474 0)
(29.7012 6.79758 0)
(29.7933 3.29366 0)
(30.2814 4.48453 0)
(29.3911 1.39686 0)
(29.458 2.2766 0)
(29.0361 0.437403 0)
(11.3839 10.3309 0)
(13.5351 10.1406 0)
(16.1685 10.8266 0)
(18.0733 10.1158 0)
(20.3016 10.2287 0)
(21.5536 9.82411 0)
(23.2378 9.48347 0)
(24.195 9.2318 0)
(25.7165 8.40698 0)
(26.6453 8.16741 0)
(27.463 7.44811 0)
(28.1266 6.99 0)
(28.6022 6.13964 0)
(29.5442 6.03467 0)
(29.4545 4.86842 0)
(29.4725 3.76748 0)
(28.964 3.2588 0)
(28.6249 3.00323 0)
(11.0298 11.6559 0)
(13.6169 11.4879 0)
(15.7426 12.0969 0)
(17.851 11.0711 0)
(19.6873 11.6377 0)
(21.3436 10.5304 0)
(22.873 11.1442 0)
(24.1775 9.77113 0)
(25.3627 10.2664 0)
(26.2359 8.52842 0)
(27.0814 8.88457 0)
(27.7691 7.54332 0)
(28.1679 7.72917 0)
(28.4505 6.37191 0)
(28.7085 5.91398 0)
(28.6887 5.10733 0)
(28.3437 4.60886 0)
(28.0766 4.02405 0)
(11.0862 12.6342 0)
(13.6886 13.0691 0)
(15.7771 13.2196 0)
(17.5751 12.9211 0)
(19.3605 12.6799 0)
(20.9669 12.3667 0)
(22.4846 11.8921 0)
(23.8377 11.5152 0)
(24.8888 10.8938 0)
(25.9717 10.4279 0)
(26.5684 9.85835 0)
(27.1236 9.24198 0)
(27.5241 8.62998 0)
(27.8236 8.06662 0)
(27.9636 7.40995 0)
(27.8843 6.69723 0)
(27.7392 6.08164 0)
(27.616 5.61322 0)
(10.8532 13.8679 0)
(13.2995 14.4837 0)
(15.2341 14.4973 0)
(17.1165 14.1496 0)
(18.8471 14.0761 0)
(20.4548 13.461 0)
(21.9283 13.2554 0)
(23.1506 12.5943 0)
(24.2382 12.2546 0)
(25.1472 11.5685 0)
(25.852 11.0604 0)
(26.44 10.4808 0)
(26.8236 9.91131 0)
(27.0823 9.29635 0)
(27.2555 8.65249 0)
(27.2984 8.05273 0)
(27.1697 7.56589 0)
(27.0444 7.07213 0)
(10.9034 15.0372 0)
(13.1372 16.064 0)
(14.9952 15.7611 0)
(16.8273 15.5484 0)
(18.5203 15.2207 0)
(20.0604 14.8635 0)
(21.4031 14.4235 0)
(22.6146 13.9443 0)
(23.6091 13.3969 0)
(24.4574 12.8428 0)
(25.088 12.3291 0)
(25.6208 11.7664 0)
(25.9874 11.2165 0)
(26.2497 10.6752 0)
(26.3697 10.1235 0)
(26.3903 9.57444 0)
(26.3181 9.0768 0)
(26.2726 8.58255 0)
(10.7796 16.1147 0)
(12.942 17.0533 0)
(14.6966 16.6421 0)
(16.4188 16.3373 0)
(17.9718 16.0327 0)
(19.3966 15.6749 0)
(20.6461 15.332 0)
(21.7763 14.8718 0)
(22.7333 14.3812 0)
(23.5681 13.8795 0)
(24.1944 13.3711 0)
(24.7099 12.8258 0)
(25.0959 12.2706 0)
(25.3782 11.7316 0)
(25.5036 11.2102 0)
(25.5989 10.6981 0)
(25.5856 10.2373 0)
(25.5955 9.77045 0)
(10.9892 16.3737 0)
(12.9612 17.4798 0)
(14.6441 17.1292 0)
(16.2529 16.884 0)
(17.6547 16.5618 0)
(18.9443 16.1672 0)
(20.0851 15.7459 0)
(21.1171 15.27 0)
(22.023 14.7627 0)
(22.8425 14.2654 0)
(23.4641 13.7914 0)
(23.9546 13.292 0)
(24.3301 12.7724 0)
(24.6177 12.2684 0)
(24.7554 11.7755 0)
(24.8201 11.2749 0)
(24.8145 10.8489 0)
(24.8337 10.4043 0)
(10.6532 15.9242 0)
(12.5669 16.965 0)
(14.2424 16.6063 0)
(15.8623 16.4137 0)
(17.3089 16.1689 0)
(18.6006 15.8392 0)
(19.7307 15.4208 0)
(20.7037 14.9521 0)
(21.5107 14.4387 0)
(22.2364 13.9313 0)
(22.7861 13.5048 0)
(23.2373 13.0466 0)
(23.5572 12.5764 0)
(23.8208 12.1441 0)
(23.9539 11.7055 0)
(24.0275 11.2618 0)
(24.0435 10.8984 0)
(24.0197 10.4894 0)
(10.9116 14.9809 0)
(12.4907 15.9893 0)
(13.9826 15.5304 0)
(15.4775 15.2858 0)
(16.8627 15.0886 0)
(18.1354 14.8158 0)
(19.2674 14.4614 0)
(20.2667 14.0702 0)
(21.0342 13.6307 0)
(21.6634 13.1607 0)
(22.1823 12.7994 0)
(22.5827 12.3939 0)
(22.8482 11.8973 0)
(23.0919 11.491 0)
(23.2341 11.0905 0)
(23.284 10.6499 0)
(23.289 10.3148 0)
(23.3064 9.95142 0)
(10.4907 13.8758 0)
(12.2861 14.4789 0)
(13.8545 14.0087 0)
(15.2798 13.7648 0)
(16.5627 13.5578 0)
(17.7604 13.2821 0)
(18.8089 12.9608 0)
(19.7351 12.668 0)
(20.5066 12.3165 0)
(21.1334 11.8916 0)
(21.6568 11.5766 0)
(22.0981 11.2546 0)
(22.4006 10.8039 0)
(22.6328 10.4254 0)
(22.7657 10.1205 0)
(22.8111 9.73425 0)
(22.8019 9.4382 0)
(22.8108 9.14156 0)
(10.5736 12.0912 0)
(12.2516 12.782 0)
(13.7295 12.3876 0)
(15.0795 12.158 0)
(16.3667 11.9263 0)
(17.5588 11.6856 0)
(18.5538 11.4184 0)
(19.4191 11.1542 0)
(20.1559 10.8422 0)
(20.7558 10.4547 0)
(21.2139 10.1225 0)
(21.6225 9.84205 0)
(21.9486 9.50655 0)
(22.1452 9.18142 0)
(22.2731 8.91909 0)
(22.3613 8.62364 0)
(22.3095 8.33416 0)
(22.3128 8.06739 0)
(10.4314 10.1995 0)
(12.232 10.7407 0)
(13.8466 10.4494 0)
(15.2584 10.2504 0)
(16.4904 10.0115 0)
(17.5813 9.82896 0)
(18.5546 9.64616 0)
(19.4329 9.4676 0)
(20.1747 9.23172 0)
(20.756 8.97186 0)
(21.1865 8.64153 0)
(21.5444 8.34678 0)
(21.8317 8.09856 0)
(22.0116 7.86056 0)
(22.1189 7.59771 0)
(22.1904 7.37988 0)
(22.1912 7.1656 0)
(22.1797 6.91296 0)
(10.5886 8.54006 0)
(12.2487 8.8991 0)
(13.8413 8.63758 0)
(15.2654 8.51072 0)
(16.4778 8.35331 0)
(17.4828 8.17308 0)
(18.3737 7.96348 0)
(19.1987 7.79107 0)
(19.9202 7.63288 0)
(20.5082 7.44693 0)
(20.9801 7.18808 0)
(21.3745 6.96508 0)
(21.6276 6.75409 0)
(21.7981 6.52788 0)
(21.9337 6.33151 0)
(21.9797 6.10996 0)
(21.9845 5.92441 0)
(21.9981 5.73817 0)
(10.6256 6.70013 0)
(12.3839 6.9157 0)
(14.0417 6.72264 0)
(15.4392 6.64616 0)
(16.6209 6.56896 0)
(17.6175 6.47287 0)
(18.4826 6.33371 0)
(19.2223 6.16441 0)
(19.9044 6.02267 0)
(20.4972 5.85538 0)
(20.9689 5.67878 0)
(21.3308 5.51163 0)
(21.6012 5.38701 0)
(21.7738 5.2151 0)
(21.8754 5.05579 0)
(21.9088 4.91913 0)
(21.893 4.75535 0)
(21.8724 4.6019 0)
(10.857 5.26866 0)
(12.6181 5.24318 0)
(14.2604 5.07711 0)
(15.6357 5.05526 0)
(16.831 5.01885 0)
(17.8335 4.9415 0)
(18.7025 4.84263 0)
(19.4152 4.70104 0)
(20.0336 4.57091 0)
(20.5126 4.4344 0)
(20.8837 4.33441 0)
(21.1619 4.24224 0)
(21.3979 4.13512 0)
(21.5531 4.02461 0)
(21.639 3.8928 0)
(21.6789 3.77397 0)
(21.6753 3.6607 0)
(21.6443 3.54872 0)
(10.6169 3.49463 0)
(12.5379 3.47735 0)
(14.265 3.45325 0)
(15.6962 3.48702 0)
(16.8658 3.48062 0)
(17.8173 3.4734 0)
(18.6181 3.43698 0)
(19.2476 3.35382 0)
(19.7496 3.28292 0)
(20.0952 3.20204 0)
(20.3538 3.13322 0)
(20.5342 3.07972 0)
(20.6708 2.99471 0)
(20.7101 2.89554 0)
(20.7167 2.80722 0)
(20.6796 2.72568 0)
(20.5951 2.63625 0)
(20.4956 2.57271 0)
(10.5777 2.41377 0)
(12.5749 2.07721 0)
(14.1964 2.05855 0)
(15.317 2.11464 0)
(16.1391 2.17027 0)
(16.7696 2.21524 0)
(17.2708 2.23942 0)
(17.6302 2.21072 0)
(17.8958 2.1878 0)
(18.0855 2.15581 0)
(18.2134 2.12787 0)
(18.2826 2.09455 0)
(18.3162 2.04462 0)
(18.2621 1.98111 0)
(18.1802 1.92963 0)
(18.0536 1.88293 0)
(17.9083 1.82821 0)
(17.738 1.78011 0)
(10.771 0.700132 0)
(12.2432 0.596617 0)
(12.9377 0.792491 0)
(13.1693 0.986697 0)
(13.3628 1.17124 0)
(13.5884 1.27805 0)
(13.8383 1.33005 0)
(14.046 1.32499 0)
(14.241 1.32243 0)
(14.397 1.29598 0)
(14.5079 1.26804 0)
(14.5939 1.24113 0)
(14.6339 1.20548 0)
(14.6256 1.17122 0)
(14.5814 1.13216 0)
(14.4966 1.10858 0)
(14.3955 1.06206 0)
(14.2557 1.01904 0)
(9.00408 0.0148455 0)
(8.15729 0.147499 0)
(7.6742 0.381277 0)
(7.68885 0.484243 0)
(8.11768 0.523327 0)
(8.70983 0.510862 0)
(9.33878 0.486215 0)
(9.90791 0.466454 0)
(10.3871 0.453477 0)
(10.7726 0.438377 0)
(11.0751 0.424905 0)
(11.3083 0.413455 0)
(11.4745 0.402383 0)
(11.5826 0.390615 0)
(11.6309 0.376684 0)
(11.6337 0.368926 0)
(11.6174 0.344916 0)
(11.4968 0.351102 0)
(-0.114295 -1.06684 0)
(-0.450089 -1.05338 0)
(-0.777382 -1.02761 0)
(-1.04838 -1.09189 0)
(-1.24942 -1.1468 0)
(-1.39867 -1.19812 0)
(-1.48983 -1.226 1.15808e-17)
(-1.55905 -1.23739 -1.15144e-17)
(-1.61778 -1.23174 0)
(-1.667 -1.21983 -1.13993e-17)
(-1.70306 -1.21331 0)
(-1.75245 -1.20881 0)
(-1.79208 -1.20348 0)
(-1.85058 -1.19532 1.11753e-17)
(-1.90885 -1.17987 0)
(-1.9483 -1.16908 0)
(-2.01068 -1.17201 -1.09829e-17)
(-2.12965 -1.13957 0)
(-2.20292 -1.10567 0)
(-2.30493 -1.02192 0)
(-2.4988 -0.929878 1.06782e-17)
(-2.70322 -0.962725 0)
(-2.90466 -0.947778 1.05143e-17)
(-3.19457 -0.826135 0)
(-3.50537 -0.791467 0)
(-3.78572 -0.727925 1.02761e-17)
(-4.186 -0.599685 0)
(-4.62743 -0.493983 -1.01082e-17)
(-5.09137 -0.284221 0)
(-5.78229 -0.103343 9.89077e-18)
(-6.55904 0.0488554 0)
(-7.40024 0.313161 0)
(-8.58253 0.234551 0)
(-9.71775 -0.271224 0)
(-10.4624 -0.666361 0)
(-11.1463 -0.704915 -9.51627e-18)
(-11.8222 -0.574914 0)
(-12.369 -0.471753 1.86053e-17)
(-12.7581 -0.370545 0)
(-13.0801 -0.311006 -1.82053e-17)
(-13.3096 -0.349763 0)
(-13.3514 -0.426799 0)
(-13.2549 -0.444491 1.77459e-17)
(-13.1682 -0.305993 0)
(-13.1981 -0.0590545 1.75992e-17)
(-13.4867 0.156036 -1.7568e-17)
(-14.0862 0.261516 0)
(-14.8097 0.283881 -1.74386e-17)
(-15.4501 0.301767 -1.73508e-17)
(-15.945 0.288517 0)
(-16.3659 0.241105 0)
(-16.7296 0.169332 0)
(-16.9796 0.120379 0)
(-17.1316 0.0880715 0)
(-17.2518 0.035042 1.67306e-17)
(-17.3697 -0.0805531 0)
(-17.547 -0.127846 -1.64459e-17)
(-17.7903 -0.0406168 0)
(-18.1116 0.126669 0)
(-18.4758 0.333043 1.60827e-17)
(-18.8398 0.537295 0)
(-19.2431 0.671757 -1.58006e-17)
(-19.6565 0.770643 0)
(-20.0537 0.823188 0)
(-20.4088 0.857693 0)
(-20.7156 0.88794 1.5224e-17)
(-20.9881 0.912868 0)
(-21.224 0.959362 0)
(-21.4474 1.01727 1.48086e-17)
(-21.6901 1.06593 0)
(-21.9351 1.15249 1.45321e-17)
(-22.2108 1.25243 0)
(-22.5127 1.33958 0)
(-22.8578 1.40411 0)
(-23.2227 1.48168 -1.39627e-17)
(-23.6071 1.60409 0)
(-24.0405 1.74692 0)
(-24.4829 1.90608 -1.34951e-17)
(-24.9715 1.99033 -1.33495e-17)
(-25.3734 2.03454 0)
(-25.6466 2.01586 -1.31511e-17)
(-25.8318 1.96075 0)
(-25.8033 1.90852 -2.60755e-17)
(-25.5264 1.80408 0)
(-25.0067 1.69466 -2.58982e-17)
(-24.2412 1.5651 0)
(-23.2599 1.45419 2.56685e-17)
(-22.0942 1.38407 0)
(-20.7847 1.3194 0)
(-19.3285 1.25274 0)
(-17.8307 1.20629 -2.49019e-17)
(-16.3529 1.205 0)
(-14.8701 1.20295 2.44337e-17)
(-13.4956 1.27607 0)
(-12.2783 1.37754 -2.40413e-17)
(-10.9992 1.32158 -2.38353e-17)
(-9.8317 1.42887 -2.36078e-17)
(-8.75505 1.44006 0)
(-7.81037 1.49602 0)
(-6.91826 1.5148 0)
(-6.09881 1.52314 0)
(-5.24422 1.5097 0)
(-4.40084 1.55076 0)
(-3.72265 1.5639 0)
(-2.82333 1.48273 0)
(-1.69617 1.58306 2.21444e-17)
(-0.926232 1.86067 2.1932e-17)
(-0.645154 1.99455 0)
(-0.682725 2.01744 0)
(-0.847966 2.01127 0)
(-1.03547 1.91462 2.13667e-17)
(-1.04741 1.78618 0)
(-1.03189 1.77988 0)
(-1.09496 1.82094 0)
(-1.00571 1.96742 0)
(-1.30448 2.16664 -1.97653e-17)
(-1.3581 1.86538 0)
(-0.188329 1.47792 0)
(1.108 1.83496 1.93203e-17)
(1.0656 2.39535 -1.96411e-17)
(0.758699 2.27189 0)
(1.03627 1.79817 -1.96162e-17)
(1.29698 1.67007 0)
(0.729288 2.09475 2.02176e-17)
(-1.53045 2.77671 0)
(-4.24539 2.98827 0)
(-5.5669 2.61004 0)
(-4.88773 1.88804 0)
(-3.62518 1.60222 0)
(-3.05617 1.99208 -3.7565e-17)
(-3.6251 2.37805 -3.7154e-17)
(-5.24124 2.41457 0)
(-6.65609 2.58466 0)
(-8.44953 2.44217 0)
(-10.2464 2.01415 3.67255e-17)
(-10.6358 1.99462 0)
(-10.4585 1.78237 0)
(-11.4111 2.12167 0)
(-12.7381 1.94916 3.50581e-17)
(-12.0215 1.56481 -3.46833e-17)
(-13.1776 2.01629 0)
(-11.074 1.19402 0)
(-11.5916 2.07964 -3.39871e-17)
(-11.6443 1.68719 -3.31506e-17)
(-11.2507 1.94068 0)
(-10.9985 1.82157 0)
(-11.693 1.97457 3.21433e-17)
(-11.639 1.94304 -3.15582e-17)
(-10.5494 1.48707 0)
(-9.5013 1.72006 0)
(-8.4407 1.83235 -3.11562e-17)
(-7.87042 1.9286 0)
(-7.78297 1.91846 0)
(-6.34834 1.93739 -3.06132e-17)
(-4.80954 2.0541 0)
(-4.09079 2.04028 -3.03047e-17)
(-4.13024 2.03335 0)
(-4.43945 1.96661 0)
(-4.44241 1.83093 0)
(-3.97105 1.83186 2.89918e-17)
(-3.3512 1.94759 0)
(-2.33437 1.90339 0)
(-0.765874 1.99206 0)
(0.40806 2.14654 0)
(0.930694 2.14495 0)
(2.37768 2.00495 0)
(3.29664 2.05713 2.7408e-17)
(4.30467 2.01271 2.72012e-17)
(5.48266 1.69376 0)
(7.64403 1.78846 0)
(9.35362 1.89874 0)
(10.51 1.63698 -2.73335e-17)
(12.2301 1.61183 0)
(12.5025 1.80022 5.53013e-17)
(13.6356 1.95111 -5.46546e-17)
(15.1411 1.68229 -5.51934e-17)
(15.9789 1.69364 5.55992e-17)
(16.0986 1.85422 -5.57751e-17)
(15.3395 2.0441 5.52772e-17)
(15.5598 1.92593 0)
(-0.0513534 -3.29534 0)
(-0.19428 -3.03827 0)
(-0.42023 -3.20637 -2.35704e-17)
(-0.674313 -3.44118 0)
(-0.863692 -3.63647 2.32423e-17)
(-0.930691 -3.79816 2.31214e-17)
(-0.892135 -3.91136 1.14863e-17)
(-0.790483 -3.95908 1.14684e-17)
(-0.651338 -3.96271 0)
(-0.500632 -3.95243 1.13801e-17)
(-0.329027 -3.94191 0)
(-0.173514 -3.91356 0)
(-0.019175 -3.87772 -2.24811e-17)
(0.129753 -3.82794 -1.12076e-17)
(0.221235 -3.75632 2.22898e-17)
(0.296293 -3.71002 2.21602e-17)
(0.375445 -3.58027 1.10369e-17)
(0.300998 -3.39285 0)
(0.32018 -3.48768 0)
(0.203412 -3.40534 0)
(-0.0538096 -2.98827 1.0801e-17)
(-0.109559 -2.94536 0)
(-0.434823 -2.89409 -3.17655e-17)
(-0.893276 -2.5562 0)
(-1.1624 -2.57964 0)
(-1.68825 -2.50578 -1.03785e-17)
(-2.22943 -2.16313 0)
(-2.63538 -2.11323 1.02357e-17)
(-3.208 -1.91889 2.02598e-17)
(-3.77356 -1.45701 -1.01038e-17)
(-4.21059 -1.12482 0)
(-4.71082 -0.754922 0)
(-5.37836 -0.250036 0)
(-5.88948 -0.117656 1.90486e-17)
(-6.61664 -0.401621 1.88385e-17)
(-8.0127 -0.408224 9.33416e-18)
(-9.25131 -0.415397 0)
(-9.99635 -0.93368 -1.85184e-17)
(-10.5983 -1.40834 0)
(-11.1991 -1.54468 1.79543e-17)
(-11.6335 -1.72503 0)
(-11.7293 -1.99467 0)
(-11.5041 -2.08928 -1.73434e-17)
(-11.2541 -1.85614 0)
(-11.1185 -1.33905 -5.11036e-17)
(-11.0228 -0.517777 1.68322e-17)
(-11.1253 0.283531 0)
(-11.5421 0.527576 1.68594e-17)
(-12.0607 0.32177 1.67278e-17)
(-12.4402 0.190495 0)
(-12.7755 0.276039 0)
(-13.233 0.353922 0)
(-14.0516 0.291623 0)
(-15.0875 0.318893 0)
(-16.1105 0.664489 -1.66126e-17)
(-17.1477 1.15494 -3.2658e-17)
(-18.2779 1.5669 1.622e-17)
(-19.5232 1.89115 0)
(-20.6491 2.09095 -3.21912e-17)
(-21.5561 2.25871 1.59447e-17)
(-22.3093 2.37582 0)
(-23.0044 2.47168 1.55579e-17)
(-23.5466 2.56206 0)
(-24.0439 2.65979 0)
(-24.5033 2.76687 2.96876e-17)
(-24.8993 2.8946 -1.4629e-17)
(-25.2914 3.06193 2.88814e-17)
(-25.71 3.28033 -2.85452e-17)
(-26.1693 3.48257 -1.41199e-17)
(-26.6011 3.68072 0)
(-27.0017 3.89037 -1.3826e-17)
(-27.4453 4.07122 0)
(-27.867 4.28324 0)
(-28.3017 4.50752 0)
(-28.7849 4.74838 -1.31916e-17)
(-29.3472 4.96048 0)
(-29.8728 5.12215 -2.63743e-17)
(-30.3356 5.22149 3.96558e-17)
(-30.6838 5.24607 1.32468e-17)
(-30.829 5.19401 0)
(-30.8032 5.03943 1.3289e-17)
(-30.5327 4.82784 0)
(-30.0097 4.56565 2.65567e-17)
(-29.1864 4.24363 0)
(-28.1078 3.91481 2.6354e-17)
(-26.7858 3.5843 -5.23912e-17)
(-25.3052 3.35355 -2.59597e-17)
(-23.7148 3.19432 0)
(-22.0629 3.04492 0)
(-20.3161 2.95194 0)
(-18.5985 2.92377 2.48415e-17)
(-17.0066 3.03224 0)
(-15.3879 3.19291 -2.42607e-17)
(-13.9025 3.40139 0)
(-12.6998 3.5651 7.1855e-17)
(-11.3339 3.51773 2.37947e-17)
(-10.2349 3.78711 2.3617e-17)
(-8.80751 3.84897 0)
(-7.88286 4.05327 0)
(-6.73399 4.12931 0)
(-5.89509 4.18965 0)
(-4.94481 4.12722 0)
(-4.17153 4.20593 4.52014e-17)
(-3.50223 4.20495 4.4774e-17)
(-2.7017 3.82032 0)
(-1.51732 3.85171 -2.24354e-17)
(-0.214398 4.39073 -2.1918e-17)
(0.631487 4.94549 0)
(0.96525 5.33414 -4.29759e-17)
(1.33144 5.44209 0)
(1.64162 5.45086 2.04512e-17)
(1.70078 5.3831 0)
(1.17976 5.50955 0)
(0.556323 5.46564 -3.8649e-17)
(0.449499 5.37975 0)
(0.0365302 5.52489 1.81148e-17)
(0.0214393 4.62312 0)
(0.836352 3.58175 0)
(2.03078 4.5102 1.82758e-17)
(2.6954 5.38096 1.81111e-17)
(3.29686 5.273 0)
(3.06178 5.34405 -1.86251e-17)
(0.837328 6.27679 0)
(-2.59419 7.71559 1.95217e-17)
(-5.88476 8.32206 3.86741e-17)
(-7.85685 7.55908 0)
(-7.76696 5.57784 0)
(-6.69319 3.98907 0)
(-6.30843 4.23231 0)
(-5.62108 5.32419 3.57753e-17)
(-5.6285 6.47419 1.05548e-16)
(-6.44414 6.69181 0)
(-7.38555 6.72955 0)
(-8.37168 6.95806 0)
(-11.1518 6.19084 -3.53153e-17)
(-11.7389 5.50929 0)
(-11.168 5.00546 0)
(-12.5713 6.33597 6.86383e-17)
(-14.0418 5.64365 3.35147e-17)
(-12.231 4.13419 3.32191e-17)
(-13.7059 5.49081 0)
(-9.25624 3.26956 0)
(-11.888 6.05265 3.3147e-17)
(-10.2837 4.24858 -3.21459e-17)
(-10.962 4.57732 0)
(-8.84071 4.52686 0)
(-10.9531 4.85313 -3.05577e-17)
(-10.2476 4.2939 9.11013e-17)
(-8.63136 3.44513 0)
(-6.90687 3.83125 0)
(-5.39176 4.33419 2.98077e-17)
(-5.17426 4.43491 0)
(-5.71579 4.26281 6.04461e-17)
(-3.79696 3.90718 -3.031e-17)
(-1.39993 4.23033 0)
(1.34028 4.88037 2.92004e-17)
(2.63556 5.49939 5.7835e-17)
(2.21424 5.7756 0)
(1.85633 5.71601 0)
(1.53048 5.38073 -2.781e-17)
(1.47568 5.14798 0)
(2.32917 4.81263 5.34819e-17)
(3.91577 4.69042 0)
(4.90271 5.15235 0)
(4.97754 5.36271 0)
(6.27494 5.07784 0)
(6.1642 5.19946 -2.45489e-17)
(6.75919 4.98335 -2.39185e-17)
(6.8511 4.30599 0)
(8.7719 3.88908 0)
(10.6141 4.23773 0)
(11.1057 4.31555 2.47599e-17)
(11.6463 4.75721 0)
(10.6262 5.02234 -5.05574e-17)
(12.3281 4.82402 5.00279e-17)
(13.4861 4.73803 5.24444e-17)
(13.1324 5.4549 5.39543e-17)
(11.2021 6.09558 5.36735e-17)
(9.46095 5.91653 5.22165e-17)
(10.2678 5.37989 0)
(-0.12762 -5.95692 0)
(-0.0583643 -5.72585 0)
(-0.0186735 -5.4086 2.38404e-17)
(-0.119155 -5.53878 2.34818e-17)
(-0.186104 -5.9669 -2.34208e-17)
(-0.164272 -6.44339 -2.33338e-17)
(-0.036693 -6.8281 -5.84911e-20)
(0.211141 -7.05053 0)
(0.510227 -7.10168 0)
(0.844415 -7.09734 0)
(1.20095 -7.07382 0)
(1.58018 -6.9748 0)
(1.9178 -6.889 6.72788e-17)
(2.28303 -6.81558 0)
(2.59437 -6.54798 -2.21851e-17)
(2.81396 -6.38956 -2.20618e-17)
(3.15311 -6.30019 0)
(3.13616 -5.84433 0)
(3.32493 -5.66377 0)
(3.46502 -5.52095 0)
(3.06845 -4.9297 -2.13825e-17)
(3.20767 -4.80501 0)
(2.9603 -4.40978 2.09729e-17)
(2.47371 -3.85365 0)
(2.17683 -3.70069 0)
(1.45782 -3.15832 0)
(0.781422 -3.00963 4.10894e-17)
(-0.0510413 -2.86287 0)
(-0.91056 -2.31265 -2.03057e-17)
(-1.83381 -2.28536 4.0193e-17)
(-2.74876 -2.16534 0)
(-3.40492 -1.47666 0)
(-4.15585 -1.20137 0)
(-4.77827 -1.43894 -1.92777e-17)
(-5.49567 -0.719228 -1.88249e-17)
(-6.19589 0.120434 0)
(-6.60732 -0.472365 0)
(-7.19576 -1.39574 3.67543e-17)
(-7.87166 -1.43032 3.62082e-17)
(-8.61092 -1.16694 -3.61663e-17)
(-9.4512 -1.65513 0)
(-9.9409 -2.81237 0)
(-10.0183 -3.41376 0)
(-10.1198 -2.96174 0)
(-10.4398 -2.17338 3.53779e-17)
(-10.8505 -1.359 3.49868e-17)
(-11.2287 -0.526143 -3.43975e-17)
(-11.6884 0.2051 0)
(-12.4417 0.53584 0)
(-13.5294 0.684174 0)
(-14.8481 0.992971 0)
(-16.3311 1.66505 3.36887e-17)
(-17.9374 2.50189 0)
(-19.623 3.09787 0)
(-21.1566 3.37619 3.3485e-17)
(-22.4151 3.54 3.31818e-17)
(-23.3289 3.65393 0)
(-24.0536 3.75802 -6.46495e-17)
(-24.7312 3.85348 3.18297e-17)
(-25.278 3.98886 -3.13499e-17)
(-25.7559 4.11965 0)
(-26.2298 4.27007 0)
(-26.6839 4.42218 0)
(-27.155 4.58312 0)
(-27.6004 4.77763 -2.92764e-17)
(-28.0367 5.00514 -5.80034e-17)
(-28.4254 5.27676 -2.87362e-17)
(-28.8025 5.55942 2.84498e-17)
(-29.1454 5.81742 0)
(-29.371 6.1064 -5.53313e-17)
(-29.6307 6.41881 -5.44835e-17)
(-29.9116 6.79642 -5.38342e-17)
(-30.2586 7.19568 5.35261e-17)
(-30.6705 7.59758 0)
(-31.0499 7.94854 8.07485e-17)
(-31.4071 8.23865 0)
(-31.6595 8.43117 -2.73198e-17)
(-31.7816 8.49313 -2.73687e-17)
(-31.6808 8.42154 0)
(-31.3589 8.20696 0)
(-30.8302 7.88728 -5.39979e-17)
(-30.1077 7.47835 0)
(-29.1784 7.00164 -5.31294e-17)
(-28.0563 6.48335 0)
(-26.7771 5.99293 5.21868e-17)
(-25.3051 5.55364 1.03374e-16)
(-23.7413 5.23769 0)
(-22.1199 5.06405 0)
(-20.486 4.90855 0)
(-18.745 4.84868 5.00775e-17)
(-17.0999 4.85507 0)
(-15.6232 5.08823 4.92746e-17)
(-14.1038 5.33968 0)
(-12.6264 5.67501 0)
(-11.4058 5.97014 -9.59575e-17)
(-10.1373 6.02283 0)
(-9.17896 6.22029 -4.77465e-17)
(-7.74728 6.32802 0)
(-6.86883 6.62414 -4.6973e-17)
(-5.7359 6.76145 0)
(-4.94702 7.01078 0)
(-3.98661 7.12062 0)
(-3.4695 7.38762 -1.37719e-16)
(-3.04934 7.44012 -4.58329e-17)
(-2.55377 6.75574 0)
(-1.94979 6.51442 0)
(-0.942293 7.2369 0)
(0.0709119 8.05662 0)
(0.582214 8.46471 4.29665e-17)
(1.10855 8.66079 -8.52847e-17)
(1.76236 8.87931 -4.15539e-17)
(2.646 9.24626 8.29315e-17)
(2.74852 9.77799 8.23872e-17)
(2.48589 9.62571 3.94652e-17)
(2.18519 9.26092 0)
(1.26701 9.52173 7.17768e-17)
(1.28631 8.55727 0)
(1.4268 6.90494 -7.3899e-17)
(2.30675 7.51109 -3.71943e-17)
(3.50522 8.64687 0)
(3.11256 9.4081 7.39771e-17)
(0.918285 10.9457 3.81844e-17)
(-2.50149 12.909 0)
(-5.77939 13.9926 3.89778e-17)
(-8.10757 13.789 -1.18211e-16)
(-8.93777 11.9734 0)
(-8.62631 9.22775 0)
(-9.38744 8.02171 0)
(-9.57471 8.09763 0)
(-8.5027 8.85665 -7.10425e-17)
(-8.04949 10.3181 -7.01421e-17)
(-8.38812 10.5981 0)
(-9.45074 10.8568 0)
(-9.27469 11.6927 0)
(-11.4871 10.5639 0)
(-12.3806 9.21321 0)
(-11.0036 8.58147 0)
(-12.8098 10.4559 -6.79171e-17)
(-14.5215 8.77187 1.75991e-19)
(-11.0096 6.49132 0)
(-13.3002 7.82908 0)
(-8.03079 5.60361 -6.85996e-17)
(-11.0846 9.73307 0)
(-8.87068 7.71569 6.80677e-17)
(-9.57617 7.83273 6.39675e-17)
(-6.26003 7.94026 0)
(-8.37114 8.91804 0)
(-10.0161 7.65424 -6.4853e-17)
(-8.428 6.02405 -1.29107e-16)
(-5.37939 6.39507 0)
(-2.68395 7.17942 0)
(-2.0252 8.324 0)
(-3.85083 8.04548 -6.09209e-17)
(-2.95338 7.14978 6.29209e-17)
(-1.57354 6.95134 0)
(1.41505 7.46642 1.21631e-16)
(4.58158 8.70014 5.88729e-17)
(5.25225 9.50977 -1.13293e-16)
(5.35716 9.492 0)
(5.58339 9.46363 0)
(5.08865 9.10179 -1.06887e-16)
(5.45003 8.48912 -5.36439e-17)
(7.35482 8.56864 0)
(8.28318 9.242 0)
(8.13119 9.0204 0)
(9.06681 8.86704 0)
(8.58241 8.85838 -9.3987e-17)
(8.94478 8.7194 0)
(8.84274 7.23631 0)
(10.4659 6.62775 0)
(11.3279 7.39843 0)
(10.904 7.98385 0)
(10.725 8.26972 0)
(9.93188 8.0571 -9.48547e-17)
(12.0977 7.93476 0)
(11.4728 8.59499 0)
(9.54812 9.80694 -2.10262e-16)
(7.46179 10.1444 1.02275e-16)
(7.26673 9.38855 -9.91967e-17)
(8.05413 8.96905 1.00956e-16)
(-0.221794 -8.08826 0)
(-0.382821 -8.49271 -4.93252e-17)
(-0.384781 -8.18395 0)
(-0.297286 -8.20478 -2.40034e-17)
(-0.0676379 -8.65239 0)
(0.252895 -9.2194 0)
(0.647666 -9.75109 2.35116e-17)
(1.05478 -10.1552 0)
(1.47832 -10.3181 0)
(1.89772 -10.3721 0)
(2.29992 -10.43 0)
(2.71247 -10.319 0)
(3.12456 -10.1788 -9.12429e-17)
(3.42158 -10.1169 -4.51656e-17)
(3.83258 -9.77016 4.46891e-17)
(4.12474 -9.47478 0)
(4.3952 -9.14357 0)
(4.51765 -8.62202 0)
(4.62045 -8.37717 0)
(4.77249 -7.79644 0)
(4.58482 -7.36492 -4.27916e-17)
(4.75291 -6.98718 -4.21325e-17)
(4.54918 -6.16302 4.21923e-17)
(4.37023 -5.7219 -4.16308e-17)
(4.28011 -4.98638 0)
(3.7031 -4.42501 0)
(3.35728 -3.7933 -4.07853e-17)
(2.57857 -3.03219 0)
(1.69881 -3.09476 0)
(0.793922 -2.16 -3.98439e-17)
(-0.339454 -1.78445 -4.00897e-17)
(-1.68408 -2.51842 -3.92881e-17)
(-2.66487 -1.81846 0)
(-3.46179 -0.891279 0)
(-4.64981 -1.20176 3.87449e-17)
(-5.31302 -1.92174 0)
(-5.84908 -1.61942 0)
(-6.69707 -1.32957 -3.66662e-17)
(-7.53782 -1.80218 3.61759e-17)
(-8.28894 -1.83633 -3.60828e-17)
(-8.46476 -1.9643 0)
(-8.52007 -2.97902 0)
(-9.39434 -3.75636 -7.1053e-17)
(-10.5079 -3.33765 0)
(-11.5095 -2.00816 -7.06393e-17)
(-12.5825 -0.544661 -1.0537e-16)
(-13.7613 0.510308 1.0476e-16)
(-14.9298 1.27947 -6.92504e-17)
(-16.1552 2.02571 0)
(-17.6271 2.78968 0)
(-19.1945 3.5569 -6.88204e-17)
(-20.6713 4.14219 -3.43436e-17)
(-21.9401 4.52294 0)
(-22.9388 4.66937 0)
(-23.8102 4.72181 -3.35894e-17)
(-24.6211 4.82515 -6.63684e-17)
(-25.3773 4.91132 0)
(-26.1117 4.98357 6.47087e-17)
(-26.7853 5.11309 -6.39528e-17)
(-27.3576 5.26428 6.32669e-17)
(-27.858 5.49786 0)
(-28.3051 5.74988 0)
(-28.7132 6.0173 0)
(-29.0624 6.31083 0)
(-29.3761 6.63899 0)
(-29.6794 7.01161 5.94665e-17)
(-29.9682 7.36636 0)
(-30.2874 7.69334 0)
(-30.541 8.0547 0)
(-30.7389 8.48339 1.14571e-16)
(-30.9628 8.94189 5.66576e-17)
(-31.1465 9.45199 5.61819e-17)
(-31.2896 9.96191 -1.11843e-16)
(-31.3718 10.4276 5.58255e-17)
(-31.4168 10.7682 -5.57212e-17)
(-31.3778 10.982 0)
(-31.243 11.0368 5.53801e-17)
(-31.0198 10.9421 0)
(-30.6909 10.7433 0)
(-30.2469 10.4155 0)
(-29.7094 10.0251 1.06588e-16)
(-29.0349 9.53858 -5.29229e-17)
(-28.1972 8.94947 -5.2659e-17)
(-27.1464 8.34849 -1.04582e-16)
(-25.9258 7.73573 -1.56025e-16)
(-24.5131 7.2471 -5.16702e-17)
(-22.9622 6.92138 0)
(-21.3352 6.69814 -1.02387e-16)
(-19.6325 6.5624 0)
(-17.9027 6.55238 -1.51674e-16)
(-16.2194 6.7391 0)
(-14.7059 7.1036 -1.49783e-16)
(-13.1779 7.41124 0)
(-11.7465 7.82986 0)
(-10.4239 8.33001 -4.91123e-17)
(-9.27571 8.60035 0)
(-8.1254 8.76649 4.86808e-17)
(-7.02891 8.92334 9.6329e-17)
(-5.88337 9.18242 4.73929e-17)
(-4.82411 9.40016 9.42368e-17)
(-3.93128 9.58322 -9.35523e-17)
(-2.96647 9.80385 -9.2989e-17)
(-2.21063 10.3351 1.84328e-16)
(-1.81283 10.5812 0)
(-1.42193 10.0598 0)
(-1.3431 9.51456 9.27524e-17)
(-0.976311 9.94215 -9.13994e-17)
(-0.415842 10.8658 0)
(0.175321 11.3227 0)
(0.597712 11.296 8.44091e-17)
(1.13334 11.2259 0)
(2.13416 11.6254 2.53366e-19)
(2.84988 12.863 2.58844e-19)
(3.62707 13.5225 8.30673e-17)
(3.45973 13.6478 0)
(2.44809 13.4915 -7.26407e-17)
(2.4676 11.7372 0)
(2.16689 9.60857 7.25695e-17)
(2.18948 10.1513 0)
(2.44538 12.4283 0)
(0.778441 14.5442 -7.58479e-17)
(-1.93826 16.7673 -7.73821e-17)
(-4.90994 18.5043 0)
(-7.13683 19.1474 -7.81819e-17)
(-8.3556 18.2386 1.60353e-16)
(-8.56214 15.6432 0)
(-9.01878 13.0256 0)
(-10.8162 11.8554 0)
(-10.9545 10.8415 0)
(-10.6326 11.665 7.10971e-17)
(-9.77473 13.676 -1.39729e-16)
(-10.2915 14.6625 0)
(-11.5503 14.5305 0)
(-9.94511 15.2121 0)
(-11.4651 14.3565 0)
(-13.4742 12.6265 0)
(-10.5585 11.6117 0)
(-11.0138 14.7985 0)
(-14.0993 12.6593 6.92411e-17)
(-8.7477 9.25193 0)
(-11.2694 10.8101 0)
(-8.63499 9.5287 7.53314e-17)
(-10.2123 13.1596 0)
(-9.55169 9.8901 0)
(-9.72662 10.3333 -6.76651e-17)
(-5.52917 10.5392 0)
(-4.24885 12.686 0)
(-6.35792 10.7799 1.28463e-16)
(-6.90547 8.12522 1.348e-16)
(-5.06361 8.28313 1.33571e-16)
(-2.09615 9.13831 0)
(1.22214 11.1927 1.17288e-16)
(0.204046 10.9576 0)
(0.389449 9.60276 -1.21659e-16)
(0.0631724 9.30993 0)
(1.21288 9.36978 -1.25324e-16)
(4.92981 11.2486 4.11716e-19)
(6.48783 12.7188 1.1448e-16)
(6.49937 12.8861 -1.11556e-16)
(7.8452 13.2981 1.11462e-16)
(7.25406 12.9465 2.13967e-16)
(6.1754 11.5623 0)
(8.68393 11.6273 0)
(10.3304 13.2093 0)
(10.5484 13.1953 0)
(11.2836 12.8465 0)
(10.6977 12.743 9.33295e-17)
(10.4942 12.5377 0)
(10.6031 10.1848 8.41914e-17)
(10.3559 10.378 -9.0048e-17)
(10.6474 11.3478 0)
(9.94014 11.563 0)