/*--------------------------------*- C++ -*----------------------------------*\
| =========                 |                                                 |
| \\      /  F ield         | OpenFOAM: The Open Source CFD Toolbox           |
|  \\    /   O peration     | Version:  dev                                   |
|   \\  /    A nd           | Web:      http://www.openfoam.org               |
|    \\/     M anipulation  |                                                 |
\*---------------------------------------------------------------------------*/
FoamFile
{
    version     2.0;
    format      ascii;
    class       volVectorField;
    object      UMean;
    location    "9.143";
}
// * * * * * * * * * * * * * * * * * * * * * * * * * * * * * * * * * * * * * //

dimensions      [0 1 -1 0 0 0 0];

internalField   nonuniform List<vector> 
12225
(
(7.00369 0.430275 0)
(4.43882 0.192555 0)
(2.5567 0.0311626 0)
(2.51083 -0.0166617 0)
(1.38437 0.0193789 0)
(2.26728 -0.0342873 0)
(0.98948 0.0489968 0)
(2.18248 -0.0591841 0)
(0.797519 0.0716658 0)
(2.29165 -0.0978587 0)
(0.688851 0.0993685 0)
(2.74359 -0.138643 0)
(0.948429 0.102596 0)
(3.39727 -0.172132 0)
(3.53265 -0.168598 0)
(4.697 0.0499753 0)
(14.8494 -2.43465 0)
(7.12109 5.13453 0)
(9.54626 0.981594 0)
(9.54342 0.860892 0)
(6.68668 0.466306 0)
(7.59034 0.214547 0)
(4.09023 0.140339 0)
(6.84302 0.0107793 0)
(2.6648 0.132701 0)
(6.68903 -0.0903696 0)
(1.82253 0.141892 0)
(7.03878 -0.165117 0)
(1.26077 0.12393 0)
(8.12133 -0.414511 0)
(1.38538 0.252354 0)
(9.95562 -1.44266 0)
(3.43588 0.271314 0)
(12.3912 -4.06907 0)
(10.4321 -1.92896 0)
(7.77802 0.486633 0)
(9.11845 0.763498 0)
(12.1669 0.951411 0)
(8.32939 0.624004 0)
(11.8321 0.443416 0)
(6.22561 0.310357 0)
(11.4131 0.206421 0)
(4.58229 0.221604 0)
(11.315 -0.0196416 0)
(3.87414 0.19308 0)
(11.3763 -0.277993 0)
(4.35104 0.187327 0)
(11.2523 -0.723157 0)
(5.7296 0.17573 0)
(11.0899 -1.4917 0)
(7.21613 0.0518469 0)
(12.119 -3.86728 0)
(6.93213 0.350046 0)
(9.35472 -2.3899 0)
(7.21886 0.524952 0)
(13.9932 0.961068 0)
(7.92942 0.609486 0)
(14.2956 0.553889 0)
(7.4738 0.420947 0)
(14.1168 0.271016 0)
(7.17518 0.396785 0)
(13.7389 -0.145291 0)
(7.25633 0.459727 0)
(13.2702 -0.699008 0)
(7.65931 0.57684 0)
(12.8754 -1.42301 0)
(8.2675 0.699148 0)
(12.6521 -2.31347 0)
(9.02519 0.0402212 0)
(11.8882 -3.6367 0)
(8.68638 -1.43436 0)
(8.36365 0.682755 0)
(6.42339 0.569988 0)
(14.0118 0.565994 0)
(8.473 0.674523 0)
(13.9589 0.284573 0)
(9.16884 0.636771 0)
(13.6444 -0.00259965 0)
(9.51657 0.657959 0)
(13.2149 -0.388827 0)
(9.59135 0.734507 0)
(12.8141 -0.871525 0)
(9.44469 0.876978 0)
(12.5841 -1.5217 0)
(9.14883 1.0898 0)
(12.5725 -2.49043 0)
(8.82639 1.13123 0)
(11.6182 -5.0286 0)
(8.54165 1.26503 0)
(8.72201 0.131563 0)
(7.95588 0.616779 0)
(11.8038 0.152507 0)
(9.50476 0.654673 0)
(11.7401 0.0503305 0)
(10.088 0.69386 0)
(11.6011 -0.165581 0)
(10.3203 0.725762 0)
(11.4769 -0.457469 0)
(10.3 0.782896 0)
(11.3903 -0.853557 0)
(10.032 0.831788 0)
(11.3562 -1.40016 0)
(9.4909 0.800824 0)
(11.4193 -2.1386 0)
(8.7984 0.724979 0)
(10.9992 -3.9212 0)
(7.73141 1.33489 0)
(9.48931 -0.215876 0)
(9.34381 0.812687 0)
(10.4391 -0.265932 0)
(10.1406 0.93051 0)
(10.554 -0.304501 0)
(10.3986 1.02 0)
(10.5821 -0.502855 0)
(10.5201 1.0755 0)
(10.6256 -0.781119 0)
(10.5634 1.15347 0)
(10.672 -1.15771 0)
(10.5152 1.23519 0)
(10.7001 -1.63572 0)
(10.3664 1.26114 0)
(10.6883 -2.32751 0)
(10.0522 1.27102 0)
(10.3759 -3.95548 0)
(8.29765 2.0196 0)
(9.69715 -0.951229 0)
(9.84889 0.701082 0)
(10.1563 -0.325942 0)
(10.4065 0.854974 0)
(10.39 -0.349814 0)
(10.5803 0.906767 0)
(10.4707 -0.493879 0)
(10.7017 0.892855 0)
(10.552 -0.686155 0)
(10.8055 0.872594 0)
(10.6439 -0.935163 0)
(10.8812 0.823727 0)
(10.7353 -1.2327 0)
(10.9084 0.671191 0)
(10.7536 -1.67277 0)
(10.7236 0.519538 0)
(10.492 -2.47486 0)
(8.89316 0.981285 0)
(9.96342 -0.484006 0)
(10.0856 0.802254 0)
(10.0199 -0.583391 0)
(10.5355 1.02144 0)
(10.3108 -0.60447 0)
(10.6752 1.075 0)
(10.4401 -0.724943 0)
(10.7777 1.04822 0)
(10.5709 -0.890044 0)
(10.8575 1.00368 0)
(10.7115 -1.11786 0)
(10.8991 0.921174 0)
(10.8319 -1.39514 0)
(10.8745 0.73484 0)
(10.8222 -1.76137 0)
(10.6028 0.505747 0)
(10.5205 -2.06972 0)
(9.34974 0.586573 0)
(10.0232 -0.39174 0)
(10.1391 0.648628 0)
(10.0423 -0.511944 0)
(10.5103 0.878013 0)
(10.3334 -0.456488 0)
(10.6214 0.869216 0)
(10.482 -0.493617 0)
(10.6979 0.778251 0)
(10.629 -0.57213 0)
(10.7343 0.657889 0)
(10.7637 -0.695387 0)
(10.718 0.495545 0)
(10.8404 -0.845115 0)
(10.6184 0.264031 0)
(10.7656 -1.03251 0)
(10.2824 0.0701912 0)
(10.4793 -1.0534 0)
(9.62291 0.124175 0)
(10.2067 -0.0329398 0)
(10.141 0.700023 0)
(10.0707 -0.691917 0)
(10.4526 0.902546 0)
(10.2986 -0.618944 0)
(10.5375 0.84768 0)
(10.4303 -0.645559 0)
(10.6033 0.735321 0)
(10.5607 -0.707455 0)
(10.6273 0.586822 0)
(10.6605 -0.791374 0)
(10.6092 0.38318 0)
(10.6814 -0.869485 0)
(10.5269 0.117068 0)
(10.571 -0.922441 0)
(10.2914 -0.113781 0)
(10.3608 -0.765446 0)
(10.0196 -0.154055 0)
(10.2454 -0.125325 0)
(10.0968 0.468058 0)
(10.1508 -0.495156 0)
(10.3536 0.595822 0)
(10.2934 -0.374672 0)
(10.4203 0.527605 0)
(10.4094 -0.354844 0)
(10.4848 0.418944 0)
(10.5239 -0.374259 0)
(10.5131 0.275772 0)
(10.5994 -0.414752 0)
(10.5157 0.0933262 0)
(10.5971 -0.461771 0)
(10.4767 -0.103357 0)
(10.4995 -0.500278 0)
(10.3571 -0.232193 0)
(10.3645 -0.405757 0)
(10.2658 -0.21987 0)
(10.3738 -0.110235 0)
(10.0501 0.411041 0)
(10.1755 -0.487301 0)
(10.2549 0.437266 0)
(10.2379 -0.367542 0)
(10.3088 0.367434 0)
(10.3307 -0.345615 0)
(10.3793 0.250932 0)
(10.4247 -0.355348 0)
(10.4227 0.0995324 0)
(10.4824 -0.374962 0)
(10.4463 -0.0796813 0)
(10.4818 -0.403515 0)
(10.433 -0.2467 0)
(10.4261 -0.431378 0)
(10.3772 -0.339247 0)
(10.3686 -0.392736 0)
(10.3571 -0.320571 0)
(10.4223 -0.276549 0)
(10.0153 0.199686 0)
(10.1907 -0.285847 0)
(10.1932 0.167403 0)
(10.2052 -0.17933 0)
(10.2293 0.131735 0)
(10.2792 -0.171394 0)
(10.3062 0.0472989 0)
(10.3626 -0.197812 0)
(10.366 -0.0586713 0)
(10.4142 -0.235775 0)
(10.4055 -0.176018 0)
(10.4267 -0.286489 0)
(10.4124 -0.275036 0)
(10.4112 -0.331719 0)
(10.3995 -0.324181 0)
(10.4065 -0.337242 0)
(10.4108 -0.316055 0)
(10.4697 -0.304856 0)
(9.99662 0.0971747 0)
(10.1445 -0.185872 0)
(10.1463 0.0217232 0)
(10.1501 -0.133648 0)
(10.1622 -0.0085657 0)
(10.2089 -0.146147 0)
(10.241 -0.076905 0)
(10.2919 -0.186727 0)
(10.311 -0.159364 0)
(10.3486 -0.237974 0)
(10.3575 -0.24479 0)
(10.3791 -0.298335 0)
(10.3805 -0.316307 0)
(10.3939 -0.35011 0)
(10.3959 -0.361051 0)
(10.4185 -0.380223 0)
(10.4238 -0.381075 0)
(10.4789 -0.387264 0)
(9.99367 0.0155555 0)
(10.106 -0.0857714 0)
(10.1089 -0.0442647 0)
(10.1138 -0.0932178 0)
(10.1188 -0.0748336 0)
(10.1675 -0.118907 0)
(10.198 -0.120569 0)
(10.2519 -0.163818 0)
(10.2741 -0.180556 0)
(10.3154 -0.21916 0)
(10.3279 -0.243937 0)
(10.3598 -0.277836 0)
(10.3659 -0.301357 0)
(10.394 -0.329029 0)
(10.3996 -0.347018 0)
(10.4329 -0.370828 0)
(10.4356 -0.383814 0)
(10.4884 -0.397035 0)
(9.99177 0.00480246 0)
(10.0636 -0.0251095 0)
(10.0567 -0.0348584 0)
(10.0679 -0.0664173 0)
(10.0779 -0.0756544 0)
(10.128 -0.0997134 0)
(10.1573 -0.115894 0)
(10.211 -0.144669 0)
(10.2338 -0.168947 0)
(10.2782 -0.199558 0)
(10.2921 -0.226558 0)
(10.3301 -0.257043 0)
(10.3385 -0.283332 0)
(10.3732 -0.312073 0)
(10.3789 -0.336828 0)
(10.4153 -0.365565 0)
(10.4147 -0.388082 0)
(10.4635 -0.407503 0)
(9.99163 0.014216 0)
(10.0467 0.0162207 0)
(10.0399 -0.0105169 0)
(10.0576 -0.0376275 0)
(10.0749 -0.0564808 0)
(10.1256 -0.0778088 0)
(10.1555 -0.0988242 0)
(10.2072 -0.123791 0)
(10.2312 -0.148967 0)
(10.2755 -0.176612 0)
(10.2912 -0.20342 0)
(10.3293 -0.232158 0)
(10.3395 -0.259371 0)
(10.3738 -0.288322 0)
(10.3802 -0.315654 0)
(10.4142 -0.345727 0)
(10.4133 -0.371587 0)
(10.4568 -0.393408 0)
(9.99169 0.0329851 0)
(10.0502 0.0497105 0)
(10.0566 0.00999566 0)
(10.0799 -0.0180186 0)
(10.1007 -0.0401825 0)
(10.1507 -0.0614295 0)
(10.1819 -0.0835665 0)
(10.2316 -0.106373 0)
(10.2563 -0.130519 0)
(10.2985 -0.155487 0)
(10.3151 -0.181057 0)
(10.3508 -0.207312 0)
(10.3615 -0.233551 0)
(10.3927 -0.260407 0)
(10.3991 -0.287029 0)
(10.4288 -0.315288 0)
(10.4282 -0.341023 0)
(10.4654 -0.362805 0)
(9.9899 0.040765 0)
(10.0547 0.0527281 0)
(10.0828 -0.00627048 0)
(10.1167 -0.0406053 0)
(10.142 -0.0640545 0)
(10.1904 -0.0822115 0)
(10.2224 -0.102048 0)
(10.2691 -0.120968 0)
(10.2936 -0.142713 0)
(10.3321 -0.163965 0)
(10.3484 -0.187383 0)
(10.3802 -0.210075 0)
(10.3905 -0.234384 0)
(10.4175 -0.257904 0)
(10.4229 -0.282773 0)
(10.4474 -0.30781 0)
(10.4462 -0.332442 0)
(10.4769 -0.35284 0)
(9.99052 0.0316255 0)
(10.0685 0.0220698 0)
(10.1262 -0.0556911 0)
(10.177 -0.0967081 0)
(10.2126 -0.119737 0)
(10.261 -0.132704 0)
(10.2938 -0.147744 0)
(10.3361 -0.161631 0)
(10.3602 -0.179812 0)
(10.3941 -0.196901 0)
(10.4104 -0.217346 0)
(10.4378 -0.236232 0)
(10.4479 -0.257978 0)
(10.4702 -0.278044 0)
(10.4754 -0.300725 0)
(10.4947 -0.32235 0)
(10.494 -0.345203 0)
(10.5188 -0.363486 0)
(9.99116 0.00991404 0)
(10.092 -0.0296585 0)
(10.187 -0.12079 0)
(10.2595 -0.162729 0)
(10.3093 -0.18109 0)
(10.359 -0.187129 0)
(10.3929 -0.196011 0)
(10.4305 -0.204348 0)
(10.4542 -0.218092 0)
(10.4837 -0.23073 0)
(10.5002 -0.247587 0)
(10.5233 -0.262617 0)
(10.5338 -0.281324 0)
(10.5518 -0.298011 0)
(10.5573 -0.318066 0)
(10.572 -0.336403 0)
(10.5724 -0.356982 0)
(10.5921 -0.37312 0)
(9.9928 -0.0233362 0)
(10.1275 -0.103562 0)
(10.2671 -0.204882 0)
(10.3665 -0.241553 0)
(10.432 -0.250774 0)
(10.4836 -0.248362 0)
(10.5184 -0.250875 0)
(10.5518 -0.253675 0)
(10.5754 -0.262955 0)
(10.6012 -0.271316 0)
(10.6182 -0.284645 0)
(10.6379 -0.296264 0)
(10.6487 -0.312075 0)
(10.6632 -0.325832 0)
(10.6692 -0.343366 0)
(10.6802 -0.358815 0)
(10.6814 -0.37713 0)
(10.6969 -0.391277 0)
(9.99047 -0.0715629 0)
(10.1744 -0.201125 0)
(10.3679 -0.305426 0)
(10.5001 -0.327831 0)
(10.5805 -0.322538 0)
(10.6344 -0.310172 0)
(10.669 -0.305554 0)
(10.6997 -0.302547 0)
(10.7227 -0.306685 0)
(10.7461 -0.310565 0)
(10.7625 -0.319887 0)
(10.7795 -0.328032 0)
(10.7896 -0.340568 0)
(10.8007 -0.351346 0)
(10.8056 -0.365938 0)
(10.8125 -0.378497 0)
(10.8123 -0.394056 0)
(10.8223 -0.406008 0)
(9.99201 -0.136344 0)
(10.2447 -0.322976 0)
(10.5027 -0.418977 0)
(10.6712 -0.417605 0)
(10.7627 -0.394152 0)
(10.8175 -0.371086 0)
(10.8494 -0.358921 0)
(10.8772 -0.350565 0)
(10.8961 -0.350077 0)
(10.9149 -0.350474 0)
(10.9254 -0.35636 0)
(10.9356 -0.361494 0)
(10.9375 -0.370794 0)
(10.9394 -0.378658 0)
(10.934 -0.389854 0)
(10.9292 -0.399439 0)
(10.9165 -0.411361 0)
(10.9116 -0.42051 0)
(9.98975 -0.219899 0)
(10.3369 -0.468107 0)
(10.6737 -0.539718 0)
(10.8758 -0.508206 0)
(10.9697 -0.464839 0)
(11.0135 -0.428049 0)
(11.0286 -0.404797 0)
(11.0352 -0.38837 0)
(11.0291 -0.381404 0)
(11.0194 -0.376955 0)
(10.998 -0.378165 0)
(10.9735 -0.379073 0)
(10.9377 -0.383793 0)
(10.8999 -0.387273 0)
(10.8522 -0.393638 0)
(10.8041 -0.398962 0)
(10.7461 -0.405281 0)
(10.6945 -0.410055 0)
(9.98331 -0.332063 0)
(10.4676 -0.6423 0)
(10.8829 -0.66709 0)
(11.0725 -0.602629 0)
(11.103 -0.537185 0)
(11.0583 -0.483113 0)
(10.9743 -0.444975 0)
(10.8732 -0.416216 0)
(10.7577 -0.398005 0)
(10.635 -0.383267 0)
(10.5035 -0.374884 0)
(10.3666 -0.366325 0)
(10.2241 -0.362442 0)
(10.0774 -0.356991 0)
(9.92858 -0.355844 0)
(9.777 -0.353251 0)
(9.62582 -0.352952 0)
(9.47589 -0.351115 0)
(10.0025 -0.453653 0)
(10.619 -0.818945 0)
(10.9017 -0.752067 0)
(10.7933 -0.623753 0)
(10.4938 -0.512542 0)
(10.1376 -0.429193 0)
(9.77011 -0.373566 0)
(9.41758 -0.334725 0)
(9.07675 -0.307296 0)
(8.75539 -0.284612 0)
(8.44638 -0.267656 0)
(8.15327 -0.251332 0)
(7.87251 -0.240041 0)
(7.60291 -0.227338 0)
(7.3481 -0.221132 0)
(7.09855 -0.21182 0)
(6.87012 -0.210848 0)
(6.64068 -0.204171 0)
(10.0974 -0.750786 0)
(10.0459 -1.0132 0)
(9.42495 -0.801091 0)
(8.51442 -0.572185 0)
(7.65496 -0.378727 0)
(6.92879 -0.24488 0)
(6.3272 -0.16752 0)
(5.83146 -0.126253 0)
(5.40902 -0.104707 0)
(5.04841 -0.0923255 0)
(4.72831 -0.0849654 0)
(4.44757 -0.0793527 0)
(4.19116 -0.0758095 0)
(3.96226 -0.07189 0)
(3.75055 -0.072134 0)
(3.55538 -0.0690814 0)
(3.38316 -0.0802671 0)
(3.21826 -0.0828617 0)
(8.51677 -0.436065 0)
(6.11027 -0.380895 0)
(4.29833 -0.138058 0)
(3.12385 -0.0213928 0)
(2.48106 0.0191289 0)
(2.12044 0.0224681 0)
(1.8962 0.0137085 0)
(1.73488 0.00461048 0)
(1.59884 -0.00157247 0)
(1.47809 -0.00479314 0)
(1.36599 -0.00640616 0)
(1.26383 -0.00671971 0)
(1.16817 -0.00670709 0)
(1.08144 -0.00638879 0)
(0.99941 -0.00665722 0)
(0.919177 -0.0070339 0)
(0.851679 -0.0186126 0)
(0.731147 -0.00614016 0)
(-0.0520498 0.137985 0)
(-0.157071 0.0714585 0)
(-0.206979 0.0163431 0)
(-0.195013 -0.0445135 0)
(-0.117605 -0.0992478 0)
(0.0127365 -0.145275 0)
(0.18693 -0.175801 1.11354e-17)
(0.388798 -0.193736 -1.10604e-17)
(0.607133 -0.198105 0)
(0.829607 -0.192818 -1.09172e-17)
(1.04684 -0.17846 0)
(1.24987 -0.157676 0)
(1.43212 -0.131022 0)
(1.58832 -0.101642 1.06426e-17)
(1.71582 -0.0703691 0)
(1.81184 -0.038272 0)
(1.87549 -0.00609036 -1.04455e-17)
(1.9075 0.0242112 0)
(1.90955 0.0507064 0)
(1.88369 0.0724461 0)
(1.83362 0.089414 1.01961e-17)
(1.76194 0.100959 0)
(1.67256 0.108829 1.00742e-17)
(1.5672 0.111722 0)
(1.45049 0.109807 0)
(1.32517 0.108131 9.89548e-18)
(1.1915 0.111406 0)
(1.04873 0.116503 -9.77916e-18)
(0.90004 0.121718 0)
(0.746032 0.12672 9.66429e-18)
(0.58826 0.130673 0)
(0.429002 0.133077 0)
(0.270523 0.134177 0)
(0.113315 0.133917 0)
(-0.0423184 0.131025 0)
(-0.194325 0.126365 -9.32961e-18)
(-0.341062 0.120285 0)
(-0.48212 0.1138 1.84405e-17)
(-0.616056 0.107308 0)
(-0.742453 0.100077 -1.82216e-17)
(-0.859849 0.093041 0)
(-0.968409 0.0862776 0)
(-1.06858 0.0785458 1.78884e-17)
(-1.1599 0.0702084 0)
(-1.24299 0.0625297 1.76652e-17)
(-1.31793 0.0553075 -1.75532e-17)
(-1.3842 0.0483117 0)
(-1.44264 0.0422537 -1.73282e-17)
(-1.49432 0.0369159 -1.72152e-17)
(-1.53825 0.0332275 0)
(-1.57456 0.0316279 0)
(-1.60516 0.0315975 0)
(-1.63219 0.0316755 0)
(-1.65662 0.0316261 0)
(-1.67987 0.0324662 1.65281e-17)
(-1.70376 0.0339916 0)
(-1.72963 0.0362194 -1.62989e-17)
(-1.75623 0.0382718 0)
(-1.78236 0.0389229 0)
(-1.80799 0.039576 1.59524e-17)
(-1.83384 0.0413894 0)
(-1.8618 0.0426339 -1.57211e-17)
(-1.89173 0.0443002 0)
(-1.92347 0.0457949 0)
(-1.95657 0.0466669 0)
(-1.99044 0.0478768 1.52555e-17)
(-2.02475 0.049702 0)
(-2.05974 0.051916 0)
(-2.0952 0.0543144 1.49058e-17)
(-2.13144 0.0557821 0)
(-2.16547 0.0560313 1.46711e-17)
(-2.19643 0.0564244 0)
(-2.2242 0.056626 0)
(-2.24775 0.0564749 0)
(-2.26612 0.0558851 -1.4205e-17)
(-2.2786 0.0546679 0)
(-2.28586 0.0539526 0)
(-2.28981 0.0538894 -1.38612e-17)
(-2.29089 0.0529311 -1.37477e-17)
(-2.28737 0.05128 0)
(-2.27744 0.0490151 -1.35225e-17)
(-2.26095 0.0460782 0)
(-2.23751 0.0429018 -2.6602e-17)
(-2.2071 0.0394449 0)
(-2.17026 0.0357426 -2.61665e-17)
(-2.12682 0.0326632 0)
(-2.07784 0.0302468 2.57377e-17)
(-2.0242 0.0282766 0)
(-1.966 0.0268446 0)
(-1.90388 0.0258818 0)
(-1.83939 0.0252943 -2.49006e-17)
(-1.77225 0.0250413 0)
(-1.70411 0.0249997 2.44988e-17)
(-1.63499 0.0255824 0)
(-1.56558 0.0266191 -2.41095e-17)
(-1.49783 0.0291291 -2.39209e-17)
(-1.43089 0.0302637 -2.37366e-17)
(-1.36379 0.0313185 0)
(-1.29851 0.0314255 0)
(-1.23392 0.0326255 0)
(-1.16813 0.033401 0)
(-1.10328 0.0330185 0)
(-1.03351 0.0319168 0)
(-0.964824 0.0332558 0)
(-0.89404 0.0329117 0)
(-0.827169 0.0352841 2.22128e-17)
(-0.76004 0.0357955 2.20605e-17)
(-0.697984 0.0401736 0)
(-0.637569 0.0414254 0)
(-0.582101 0.0410831 0)
(-0.514745 0.0384551 2.14801e-17)
(-0.452621 0.0426043 0)
(-0.383742 0.0408072 0)
(-0.318927 0.0437513 0)
(-0.248179 0.0407004 0)
(-0.17536 0.0431424 -2.0806e-17)
(-0.100283 0.0446656 0)
(-0.0196985 0.0437094 0)
(0.0653755 0.045106 2.04291e-17)
(0.154034 0.0451038 -2.03076e-17)
(0.245729 0.0443812 0)
(0.341963 0.0483142 -2.00749e-17)
(0.433276 0.0513844 0)
(0.525566 0.0546524 1.98484e-17)
(0.607652 0.0593641 0)
(0.678842 0.062335 0)
(0.753967 0.062589 0)
(0.823319 0.0632696 0)
(0.903105 0.0603439 0)
(0.977172 0.0608422 -3.83964e-17)
(1.05335 0.0624456 -3.81773e-17)
(1.11397 0.0672505 0)
(1.16494 0.0663577 0)
(1.21008 0.0677021 0)
(1.247 0.0636424 3.72528e-17)
(1.29526 0.0587529 0)
(1.34536 0.0569836 0)
(1.39084 0.0558984 0)
(1.43932 0.0540791 3.62324e-17)
(1.47637 0.0567317 -3.59643e-17)
(1.51967 0.0526189 0)
(1.55912 0.052689 0)
(1.60053 0.053262 -3.51496e-17)
(1.62687 0.0582645 -3.48766e-17)
(1.65698 0.0549892 0)
(1.68584 0.0586937 0)
(1.72501 0.0557582 3.40435e-17)
(1.76159 0.0659921 -3.37641e-17)
(1.76987 0.07141 0)
(1.78346 0.0707962 0)
(1.80871 0.0711367 -3.29274e-17)
(1.84188 0.0758887 0)
(1.85531 0.0834281 0)
(1.86668 0.089172 -3.20833e-17)
(1.86578 0.0932888 0)
(1.8799 0.0981283 -3.15232e-17)
(1.88167 0.105105 0)
(1.88732 0.109168 0)
(1.8744 0.120728 0)
(1.86104 0.126585 3.04339e-17)
(1.84606 0.133095 0)
(1.81423 0.142921 0)
(1.74242 0.154544 0)
(1.6657 0.154578 0)
(1.60046 0.15688 0)
(1.51067 0.165762 0)
(1.38263 0.172532 2.88934e-17)
(1.26357 0.173866 2.87394e-17)
(1.07935 0.181812 0)
(0.872911 0.184424 0)
(0.630053 0.183463 0)
(0.413854 0.169757 -2.83222e-17)
(0.191899 0.162703 0)
(0.0399313 0.146524 5.63492e-17)
(-0.160294 0.143884 -5.62395e-17)
(-0.263268 0.12363 -5.60603e-17)
(-0.424678 0.126688 5.59563e-17)
(-0.459914 0.0965616 -5.5754e-17)
(-0.617749 0.129118 5.57339e-17)
(-0.565805 -0.0040259 0)
(0.0101366 0.248873 0)
(0.0145785 0.191987 0)
(0.0497202 0.00750987 -2.27962e-17)
(0.121117 -0.198731 0)
(0.23611 -0.384753 2.23649e-17)
(0.388481 -0.536118 2.22182e-17)
(0.569682 -0.644937 1.10437e-17)
(0.769592 -0.710819 1.09813e-17)
(0.976928 -0.737391 0)
(1.18113 -0.731086 1.08542e-17)
(1.37355 -0.695221 0)
(1.5469 -0.636885 0)
(1.69718 -0.562211 -2.13201e-17)
(1.81966 -0.477699 -1.05949e-17)
(1.91429 -0.385675 2.10556e-17)
(1.97927 -0.291023 2.09221e-17)
(2.01594 -0.198604 1.03955e-17)
(2.02441 -0.110481 0)
(2.0071 -0.0274084 0)
(1.96401 0.047371 0)
(1.89901 0.112871 1.01365e-17)
(1.81217 0.171976 0)
(1.70817 0.224837 -3.0037e-17)
(1.58583 0.267603 0)
(1.44749 0.302505 0)
(1.29366 0.33302 -9.83177e-18)
(1.12783 0.356928 0)
(0.952741 0.374142 9.71543e-18)
(0.772225 0.385132 1.93125e-17)
(0.587173 0.392333 -9.59745e-18)
(0.400366 0.394365 0)
(0.213064 0.390505 0)
(0.0249606 0.383148 0)
(-0.163466 0.376087 1.87309e-17)
(-0.350434 0.367391 1.86165e-17)
(-0.534628 0.355033 9.25124e-18)
(-0.713306 0.34021 0)
(-0.887004 0.323113 -1.82761e-17)
(-1.05179 0.302607 0)
(-1.20995 0.280777 1.80507e-17)
(-1.35987 0.258376 0)
(-1.5032 0.235634 0)
(-1.63838 0.215296 -1.77166e-17)
(-1.76636 0.196261 0)
(-1.88958 0.178371 -5.24867e-17)
(-2.00712 0.159642 1.73858e-17)
(-2.11807 0.140752 0)
(-2.22204 0.123879 1.71656e-17)
(-2.31986 0.10628 1.70554e-17)
(-2.4103 0.0867649 0)
(-2.49153 0.0678416 0)
(-2.56566 0.0532995 0)
(-2.63459 0.043824 0)
(-2.70023 0.0389509 0)
(-2.76203 0.0375417 -1.63737e-17)
(-2.82193 0.0370359 -3.25152e-17)
(-2.88028 0.0370986 1.61414e-17)
(-2.93421 0.0345074 0)
(-2.98582 0.030561 -3.1813e-17)
(-3.03525 0.0292244 1.57874e-17)
(-3.08184 0.0301897 0)
(-3.12941 0.0310978 1.55499e-17)
(-3.17478 0.0337695 0)
(-3.21814 0.0351668 0)
(-3.25985 0.0346963 3.03752e-17)
(-3.30058 0.0340339 -1.50673e-17)
(-3.33677 0.0319384 2.98917e-17)
(-3.3704 0.02914 -2.96504e-17)
(-3.39804 0.0254109 -1.47046e-17)
(-3.42248 0.0205571 0)
(-3.44054 0.0129734 -1.44628e-17)
(-3.45187 0.00278377 0)
(-3.4575 -0.00791089 0)
(-3.45474 -0.0203844 0)
(-3.4428 -0.0345725 -1.39828e-17)
(-3.42264 -0.0485553 0)
(-3.39599 -0.0586828 -2.74947e-17)
(-3.36354 -0.0658115 4.08937e-17)
(-3.32574 -0.0743093 1.35161e-17)
(-3.28168 -0.0853478 0)
(-3.22972 -0.0980456 1.32876e-17)
(-3.17248 -0.110721 0)
(-3.10961 -0.122782 2.61237e-17)
(-3.04158 -0.133816 0)
(-2.96854 -0.14432 2.56806e-17)
(-2.89039 -0.153696 -5.09213e-17)
(-2.8083 -0.162587 -2.52467e-17)
(-2.72383 -0.170517 0)
(-2.63438 -0.178022 0)
(-2.54275 -0.183616 0)
(-2.44896 -0.187797 2.44063e-17)
(-2.35186 -0.19182 0)
(-2.25358 -0.194509 -2.40001e-17)
(-2.15532 -0.19488 0)
(-2.05651 -0.196466 7.08191e-17)
(-1.95775 -0.195818 2.34163e-17)
(-1.8584 -0.19684 2.32303e-17)
(-1.76112 -0.194072 0)
(-1.66624 -0.193404 0)
(-1.5708 -0.194258 0)
(-1.4729 -0.1949 0)
(-1.37598 -0.197302 0)
(-1.27347 -0.201501 4.43209e-17)
(-1.17734 -0.199571 4.39849e-17)
(-1.07789 -0.199604 0)
(-0.990798 -0.193836 -2.16748e-17)
(-0.894892 -0.194669 -2.15227e-17)
(-0.808262 -0.187914 0)
(-0.713998 -0.18688 -4.24428e-17)
(-0.635982 -0.186193 0)
(-0.539909 -0.196524 2.09373e-17)
(-0.454321 -0.190769 0)
(-0.348877 -0.199192 0)
(-0.254454 -0.195706 -4.10573e-17)
(-0.141421 -0.204514 0)
(-0.037403 -0.20471 2.02722e-17)
(0.0879256 -0.212606 0)
(0.214295 -0.220142 0)
(0.35027 -0.224471 1.98872e-17)
(0.490885 -0.228953 1.97709e-17)
(0.636175 -0.234454 0)
(0.785444 -0.235031 -1.95336e-17)
(0.944875 -0.23619 0)
(1.10394 -0.228145 1.92968e-17)
(1.26869 -0.218643 3.83635e-17)
(1.41654 -0.212372 0)
(1.57345 -0.21363 0)
(1.71868 -0.213896 0)
(1.87858 -0.215676 0)
(2.02582 -0.210881 3.72312e-17)
(2.18071 -0.207674 1.11009e-16)
(2.31754 -0.18875 0)
(2.44193 -0.183531 0)
(2.56164 -0.172572 0)
(2.66673 -0.174363 -3.60803e-17)
(2.76916 -0.179135 0)
(2.87035 -0.178778 0)
(2.96543 -0.176936 7.06161e-17)
(3.05873 -0.176206 3.50339e-17)
(3.13271 -0.170413 3.47651e-17)
(3.2202 -0.179956 0)
(3.2845 -0.173876 0)
(3.35245 -0.175135 3.39209e-17)
(3.39919 -0.164461 -3.3615e-17)
(3.44519 -0.178528 0)
(3.47538 -0.175273 0)
(3.50972 -0.191123 -3.2722e-17)
(3.53826 -0.173305 9.71895e-17)
(3.55289 -0.168843 0)
(3.5636 -0.179691 0)
(3.57488 -0.191269 3.14605e-17)
(3.59541 -0.189152 0)
(3.59097 -0.182674 6.16274e-17)
(3.58895 -0.180787 -3.04725e-17)
(3.5614 -0.185161 0)
(3.55726 -0.194143 2.98464e-17)
(3.5326 -0.190562 5.9058e-17)
(3.52091 -0.192158 0)
(3.47392 -0.185342 0)
(3.44973 -0.194285 -2.85755e-17)
(3.40938 -0.186362 0)
(3.35199 -0.169416 5.58906e-17)
(3.25498 -0.150052 0)
(3.16287 -0.155051 0)
(3.04378 -0.146922 0)
(2.91549 -0.121805 0)
(2.7212 -0.102586 -2.66547e-17)
(2.56223 -0.0756588 -2.64655e-17)
(2.27784 -0.0264142 0)
(2.00553 -0.00175864 0)
(1.67633 0.0229141 0)
(1.38084 0.0191125 2.59606e-17)
(1.04752 0.0233692 0)
(0.840211 0.014104 -5.16732e-17)
(0.520203 0.032821 5.1646e-17)
(0.405708 0.00112736 5.1498e-17)
(0.124423 0.0320567 5.14886e-17)
(0.124108 -0.015708 5.13363e-17)
(-0.173031 0.0791809 5.14994e-17)
(0.0129504 -0.116937 0)
(0.0290487 0.0711836 0)
(0.12112 -0.0383337 0)
(0.228151 -0.241761 2.29131e-17)
(0.340226 -0.468767 2.26646e-17)
(0.474638 -0.693385 -2.25131e-17)
(0.618701 -0.875253 -2.24004e-17)
(0.772876 -1.00387 -1.48151e-21)
(0.924162 -1.07414 0)
(1.06932 -1.08494 0)
(1.19616 -1.0458 0)
(1.30502 -0.965957 0)
(1.39108 -0.856632 0)
(1.45674 -0.726089 6.47129e-17)
(1.49747 -0.585841 0)
(1.51611 -0.440948 -2.13052e-17)
(1.51085 -0.294394 -2.11689e-17)
(1.48456 -0.152861 0)
(1.43583 -0.0192191 0)
(1.36928 0.104779 0)
(1.2847 0.217356 0)
(1.1844 0.31674 -2.05026e-17)
(1.06924 0.399765 0)
(0.944228 0.472093 2.02486e-17)
(0.806653 0.537148 0)
(0.659382 0.591951 0)
(0.503774 0.636816 0)
(0.345221 0.672707 3.95251e-17)
(0.182717 0.69985 0)
(0.0187589 0.719198 -1.95223e-17)
(-0.146194 0.72948 3.87999e-17)
(-0.3104 0.732517 0)
(-0.476862 0.734112 0)
(-0.64351 0.730948 0)
(-0.808971 0.721304 -1.89165e-17)
(-0.970811 0.70594 -1.87957e-17)
(-1.12944 0.684355 0)
(-1.28327 0.656977 0)
(-1.43151 0.62542 3.6859e-17)
(-1.57275 0.59137 3.66194e-17)
(-1.71223 0.557026 -3.63812e-17)
(-1.84664 0.524306 0)
(-1.97923 0.490799 0)
(-2.10617 0.458652 0)
(-2.2294 0.429323 0)
(-2.34839 0.401692 3.52007e-17)
(-2.46137 0.37248 3.4967e-17)
(-2.56921 0.342869 -3.4735e-17)
(-2.67149 0.31434 0)
(-2.76769 0.286439 0)
(-2.8586 0.257444 0)
(-2.9442 0.230642 0)
(-3.02983 0.212881 3.35757e-17)
(-3.10955 0.197021 0)
(-3.18422 0.183851 0)
(-3.25237 0.176068 3.28781e-17)
(-3.31582 0.170889 3.26465e-17)
(-3.37388 0.16398 0)
(-3.42429 0.154581 -6.43598e-17)
(-3.47274 0.147675 3.19486e-17)
(-3.51721 0.141206 -3.17142e-17)
(-3.55591 0.137413 0)
(-3.59166 0.134698 0)
(-3.62138 0.130511 0)
(-3.64618 0.126273 0)
(-3.66843 0.121031 -3.05526e-17)
(-3.68638 0.113609 -6.06461e-17)
(-3.69808 0.105627 -3.00974e-17)
(-3.70604 0.0971362 2.98726e-17)
(-3.70683 0.0855024 0)
(-3.70251 0.0722392 -5.88395e-17)
(-3.69021 0.0561555 -5.8391e-17)
(-3.67263 0.0399911 -5.79459e-17)
(-3.6508 0.0222079 5.7504e-17)
(-3.62017 -5.80513e-05 0)
(-3.58259 -0.0227171 8.49403e-17)
(-3.53918 -0.042171 0)
(-3.49102 -0.0575953 -2.78773e-17)
(-3.43429 -0.0713334 -2.76644e-17)
(-3.3696 -0.0868662 0)
(-3.29876 -0.103593 0)
(-3.22443 -0.120253 -5.40406e-17)
(-3.14789 -0.135076 0)
(-3.06735 -0.14929 -5.31936e-17)
(-2.98425 -0.162945 0)
(-2.89658 -0.177342 5.23549e-17)
(-2.80535 -0.188742 1.03882e-16)
(-2.71039 -0.198515 0)
(-2.61454 -0.207688 0)
(-2.51566 -0.215131 0)
(-2.41808 -0.221213 5.02902e-17)
(-2.3188 -0.227044 0)
(-2.21622 -0.23171 4.94681e-17)
(-2.11087 -0.234976 0)
(-2.00504 -0.234223 0)
(-1.89689 -0.234399 -9.65035e-17)
(-1.79144 -0.232049 0)
(-1.6841 -0.231581 -4.7461e-17)
(-1.58087 -0.225643 0)
(-1.47344 -0.226301 -4.66935e-17)
(-1.36677 -0.225441 0)
(-1.25793 -0.224518 0)
(-1.15047 -0.228292 0)
(-1.04019 -0.230488 -1.3569e-16)
(-0.940214 -0.22197 -4.48687e-17)
(-0.831364 -0.218562 0)
(-0.73845 -0.20792 0)
(-0.636956 -0.209216 0)
(-0.551714 -0.196972 0)
(-0.447793 -0.193277 4.3234e-17)
(-0.362149 -0.188165 -8.58329e-17)
(-0.255476 -0.204994 -4.26313e-17)
(-0.168735 -0.197303 8.46546e-17)
(-0.0495197 -0.213471 8.40919e-17)
(0.0519334 -0.209532 4.176e-17)
(0.181631 -0.224718 0)
(0.294055 -0.225559 8.23949e-17)
(0.432626 -0.241808 0)
(0.564426 -0.25079 -8.12847e-17)
(0.712555 -0.257408 -4.03844e-17)
(0.858547 -0.261926 0)
(1.01317 -0.270236 7.97629e-17)
(1.16219 -0.273174 3.96283e-17)
(1.32431 -0.281215 0)
(1.4831 -0.279171 3.90901e-17)
(1.65698 -0.268892 -1.16509e-16)
(1.81662 -0.256808 0)
(1.98111 -0.256087 0)
(2.13324 -0.256048 0)
(2.29371 -0.259682 0)
(2.45059 -0.255395 -7.51559e-17)
(2.60706 -0.252423 -7.46571e-17)
(2.7589 -0.221544 0)
(2.89733 -0.215199 0)
(3.02904 -0.201644 0)
(3.15095 -0.199703 0)
(3.25788 -0.204829 0)
(3.37751 -0.208152 0)
(3.49057 -0.206961 -7.09521e-17)
(3.60354 -0.204924 -1.65148e-20)
(3.69765 -0.196275 0)
(3.80817 -0.20968 0)
(3.89691 -0.197132 -6.8607e-17)
(3.98985 -0.197444 0)
(4.06887 -0.177043 6.74267e-17)
(4.13853 -0.187942 6.68089e-17)
(4.1805 -0.170752 0)
(4.23495 -0.188871 0)
(4.27346 -0.164978 -6.49007e-17)
(4.3239 -0.156 -1.28512e-16)
(4.35148 -0.160177 0)
(4.38456 -0.172167 0)
(4.42601 -0.163091 0)
(4.43929 -0.14878 -6.16925e-17)
(4.46778 -0.135558 6.10047e-17)
(4.46696 -0.135118 0)
(4.48642 -0.141265 1.19375e-16)
(4.46981 -0.129266 5.90338e-17)
(4.48658 -0.127835 -1.16774e-16)
(4.46377 -0.109229 0)
(4.46206 -0.116546 0)
(4.43161 -0.0951555 -1.12756e-16)
(4.39044 -0.0675765 -5.57216e-17)
(4.30579 -0.0381713 0)
(4.24212 -0.0361983 0)
(4.10979 -0.0184367 0)
(4.00012 0.0243925 0)
(3.78843 0.0523012 -1.05598e-16)
(3.61988 0.0960409 0)
(3.32176 0.166927 0)
(3.06356 0.191345 0)
(2.71443 0.219691 0)
(2.40001 0.203164 0)
(2.01097 0.186973 0)
(1.77412 0.153588 -1.00646e-16)
(1.36935 0.150672 0)
(1.24048 0.0830875 0)
(0.85591 0.105622 -1.99441e-16)
(0.850393 0.0233074 9.92605e-17)
(0.464302 0.112115 -9.94134e-17)
(0.659616 -0.127785 9.87935e-17)
(0.0206335 -0.0941734 0)
(0.125114 -0.269517 -4.69562e-17)
(0.247893 -0.490232 0)
(0.375796 -0.755747 -2.27968e-17)
(0.502336 -0.999285 0)
(0.618267 -1.18796 0)
(0.7227 -1.30549 2.24457e-17)
(0.803186 -1.34877 0)
(0.865971 -1.31897 0)
(0.905159 -1.2333 0)
(0.927215 -1.11066 0)
(0.929986 -0.961435 0)
(0.918267 -0.794253 -8.66168e-17)
(0.889403 -0.616964 -4.30256e-17)
(0.846879 -0.434005 4.27461e-17)
(0.790428 -0.25272 0)
(0.722102 -0.0798156 0)
(0.64057 0.0817775 0)
(0.549303 0.230637 0)
(0.447807 0.364069 0)
(0.338861 0.481655 -4.11508e-17)
(0.220658 0.583518 -4.08981e-17)
(0.0945206 0.674219 4.0649e-17)
(-0.0374037 0.750213 -4.04013e-17)
(-0.173451 0.812974 0)
(-0.312254 0.861073 0)
(-0.452586 0.897113 -3.9658e-17)
(-0.593279 0.921802 0)
(-0.734898 0.935887 0)
(-0.877064 0.944436 -3.89247e-17)
(-1.01982 0.949811 -3.86814e-17)
(-1.16044 0.9474 -3.84369e-17)
(-1.298 0.938204 0)
(-1.43233 0.922809 0)
(-1.56208 0.901219 3.76932e-17)
(-1.68682 0.871476 0)
(-1.8076 0.835855 0)
(-1.92476 0.796316 -3.69486e-17)
(-2.03889 0.758273 3.6697e-17)
(-2.15142 0.720176 -3.64484e-17)
(-2.25748 0.681481 0)
(-2.3619 0.642161 0)
(-2.46229 0.605881 -7.14196e-17)
(-2.55989 0.571713 0)
(-2.65213 0.533701 -7.04537e-17)
(-2.7409 0.495699 -1.04963e-16)
(-2.82603 0.459901 1.04242e-16)
(-2.90588 0.423606 -6.90147e-17)
(-2.98253 0.386349 0)
(-3.05658 0.350712 0)
(-3.13018 0.322525 -6.76023e-17)
(-3.201 0.298016 -3.35707e-17)
(-3.26545 0.272426 0)
(-3.32572 0.25133 0)
(-3.38137 0.235949 -3.28787e-17)
(-3.43157 0.219053 -6.52975e-17)
(-3.47554 0.200056 0)
(-3.51352 0.182086 6.43797e-17)
(-3.54764 0.16765 -6.39205e-17)
(-3.57636 0.154004 6.34648e-17)
(-3.59931 0.140081 0)
(-3.61601 0.126803 0)
(-3.6283 0.115611 0)
(-3.63525 0.104369 0)
(-3.63853 0.0941592 0)
(-3.6364 0.0782496 6.07747e-17)
(-3.62991 0.0610165 0)
(-3.61678 0.0422944 0)
(-3.59787 0.0212275 0)
(-3.57489 -0.000774912 1.18047e-16)
(-3.54639 -0.0248026 5.85914e-17)
(-3.51315 -0.0488504 5.81578e-17)
(-3.47489 -0.0758678 -1.15457e-16)
(-3.43023 -0.10727 5.73035e-17)
(-3.38218 -0.137312 -5.6884e-17)
(-3.32789 -0.164836 0)
(-3.26873 -0.190837 5.60371e-17)
(-3.19966 -0.217523 0)
(-3.12641 -0.24267 0)
(-3.04756 -0.264535 0)
(-2.96724 -0.285283 1.08718e-16)
(-2.88479 -0.304479 -5.39459e-17)
(-2.79906 -0.323548 -5.35326e-17)
(-2.7121 -0.342445 -1.0627e-16)
(-2.62117 -0.362425 -1.58216e-16)
(-2.52925 -0.378363 -5.23433e-17)
(-2.43253 -0.391403 0)
(-2.3361 -0.402897 -1.0307e-16)
(-2.23813 -0.410916 0)
(-2.14021 -0.41709 -1.52203e-16)
(-2.04159 -0.426992 0)
(-1.94409 -0.433373 -1.49829e-16)
(-1.84055 -0.439671 0)
(-1.73651 -0.440362 0)
(-1.62779 -0.441964 -4.87461e-17)
(-1.52049 -0.438832 0)
(-1.40991 -0.43852 4.79718e-17)
(-1.30402 -0.43403 9.51554e-17)
(-1.19032 -0.435691 4.72031e-17)
(-1.08054 -0.437428 9.36486e-17)
(-0.962269 -0.437899 -9.28915e-17)