/*--------------------------------*- C++ -*----------------------------------*\
| =========                 |                                                 |
| \\      /  F ield         | OpenFOAM: The Open Source CFD Toolbox           |
|  \\    /   O peration     | Version:  dev                                   |
|   \\  /    A nd           | Web:      http://www.openfoam.org               |
|    \\/     M anipulation  |                                                 |
\*---------------------------------------------------------------------------*/
FoamFile
{
    version     2.0;
    format      ascii;
    class       volSymmTensorField;
    object      UPrime2Mean;
    location    "9.143";
}
// * * * * * * * * * * * * * * * * * * * * * * * * * * * * * * * * * * * * * //

dimensions      [0 2 -2 0 0 0 0];

internalField   nonuniform List<symmTensor> 
12225
(
(0.32947 0.0192666 0 0.0692606 0 0)
(2.98836 0.0796777 0 0.0781836 0 0)
(7.88616 0.112269 0 0.0768875 0 0)
(14.5451 0.148173 0 0.0755637 0 0)
(22.7195 0.13291 0 0.0765102 0 0)
(32.0903 0.201 0 0.0746675 0 0)
(42.4101 0.0958511 0 0.0766081 0 0)
(53.5614 0.200249 0 0.0738479 0 0)
(65.6635 -0.028542 0 0.0776088 0 0)
(78.2688 0.125466 0 0.0736184 0 0)
(93.0249 -0.306321 0 0.0813089 0 0)
(107.375 -0.116025 0 0.0769924 0 0)
(127.998 -0.672204 0 0.0863077 0 0)
(145.706 -1.27746 0 0.134737 0 0)
(186.056 -1.41138 0 0.116477 0 0)
(198.631 -0.390921 0 2.39519 0 0)
(272.444 -33.5549 0 5.81161 0 0)
(576.08 -52.974 0 18.8394 0 0)
(0.377667 0.0567877 0 0.688914 0 0)
(3.15844 0.252193 0 0.732204 0 0)
(8.41703 0.362037 0 0.71407 0 0)
(15.4849 0.485287 0 0.706565 0 0)
(24.215 0.452801 0 0.703433 0 0)
(34.4817 0.632668 0 0.683268 0 0)
(45.5567 0.295825 0 0.692062 0 0)
(58.5217 0.608804 0 0.658744 0 0)
(71.521 -0.135384 0 0.682594 0 0)
(87.207 0.282279 0 0.645951 0 0)
(102.851 -1.06535 0 0.711252 0 0)
(121.506 -0.766635 0 0.655487 0 0)
(142.944 -2.54307 0 1.06913 0 0)
(166.417 -4.49193 0 1.04697 0 0)
(199.895 -0.925 0 3.10454 0 0)
(274.553 -9.97561 0 6.61139 0 0)
(281.167 -20.8463 0 8.73984 0 0)
(800.319 -185.284 0 64.7373 0 0)
(0.505265 0.0583379 0 2.1404 0 0)
(3.06617 0.424557 0 2.20232 0 0)
(8.47188 0.570394 0 2.15126 0 0)
(14.8633 0.851748 0 2.14273 0 0)
(24.2927 0.864295 0 2.11966 0 0)
(33.1742 1.05288 0 2.08245 0 0)
(45.3014 0.755967 0 2.07822 0 0)
(56.2415 0.886015 0 2.00742 0 0)
(69.7321 0.1719 0 2.05159 0 0)
(83.506 0.0162686 0 1.95921 0 0)
(98.2524 -1.1238 0 2.12245 0 0)
(115.744 -2.44993 0 2.09449 0 0)
(138.716 -3.59721 0 2.62253 0 0)
(154.98 -7.20111 0 2.83195 0 0)
(211.164 -13.018 0 6.12612 0 0)
(223.544 -7.88396 0 6.38046 0 0)
(353.294 -62.3008 0 31.0954 0 0)
(534.936 -192.666 0 98.3223 0 0)
(1.03018 0.0923128 0 4.6701 0 0)
(3.55189 0.619412 0 4.76665 0 0)
(9.07519 0.815669 0 4.64248 0 0)
(15.077 1.14974 0 4.60172 0 0)
(24.6537 1.31264 0 4.55747 0 0)
(33.0072 1.34955 0 4.48311 0 0)
(45.0366 1.261 0 4.44817 0 0)
(55.2071 0.972925 0 4.34962 0 0)
(68.648 0.475243 0 4.38146 0 0)
(80.7709 -0.283766 0 4.25776 0 0)
(96.1019 -1.33214 0 4.50725 0 0)
(110.593 -3.34433 0 4.37237 0 0)
(131.565 -4.79589 0 5.30259 0 0)
(152.368 -10.9786 0 5.6097 0 0)
(187.991 -11.4319 0 9.28987 0 0)
(238.605 -28.8792 0 16.8375 0 0)
(291.721 -58.9749 0 32.694 0 0)
(415.063 -178.39 0 107.858 0 0)
(1.8638 0.364985 0 8.52209 0 0)
(5.01087 0.720089 0 8.72358 0 0)
(9.44203 1.13984 0 8.47243 0 0)
(16.2517 1.29432 0 8.3693 0 0)
(24.6661 1.7005 0 8.27973 0 0)
(33.9689 1.50196 0 8.14463 0 0)
(44.8519 1.59723 0 8.044 0 0)
(55.5605 0.99211 0 7.91194 0 0)
(68.4631 0.599221 0 7.85896 0 0)
(80.1772 -0.595493 0 7.76118 0 0)
(95.4377 -1.78128 0 7.96304 0 0)
(108.633 -4.23109 0 7.91047 0 0)
(128.186 -6.88522 0 9.02803 0 0)
(145.325 -12.2942 0 9.27036 0 0)
(174.084 -19.2109 0 14.5942 0 0)
(218.059 -25.9707 0 17.2203 0 0)
(233.83 -55.6174 0 46.2804 0 0)
(326.867 -171.827 0 138.714 0 0)
(2.56255 0.750658 0 14.039 0 0)
(6.32787 0.80696 0 14.3908 0 0)
(9.30707 1.53977 0 13.9609 0 0)
(17.1078 1.59407 0 13.7662 0 0)
(24.1586 2.12023 0 13.5915 0 0)
(34.2902 1.93588 0 13.3595 0 0)
(44.008 1.99029 0 13.1544 0 0)
(55.211 1.41399 0 12.9137 0 0)
(67.3778 0.89284 0 12.7771 0 0)
(78.9669 -0.388452 0 12.5763 0 0)
(94.4959 -1.74118 0 12.777 0 0)
(105.906 -4.3164 0 12.6858 0 0)
(128.21 -7.27244 0 13.9889 0 0)
(138.035 -13.1635 0 14.6697 0 0)
(171.099 -21.8468 0 21.2563 0 0)
(191.631 -33.0586 0 24.6125 0 0)
(211.185 -55.9403 0 51.5954 0 0)
(265.885 -145.745 0 130.694 0 0)
(2.24674 0.72201 0 21.5309 0 0)
(5.54912 0.94136 0 22.147 0 0)
(9.20793 1.76348 0 21.3727 0 0)
(16.3534 2.07716 0 21.1849 0 0)
(23.9924 2.44925 0 20.7863 0 0)
(33.3908 2.54199 0 20.5531 0 0)
(43.6461 2.27287 0 20.0849 0 0)
(54.0926 1.92659 0 19.855 0 0)
(66.5388 0.894485 0 19.4372 0 0)
(77.4227 -0.221099 0 19.2844 0 0)
(92.5921 -2.37579 0 19.2248 0 0)
(103.579 -4.82758 0 19.2675 0 0)
(123.742 -8.98805 0 20.4782 0 0)
(134.025 -14.2688 0 21.4569 0 0)
(161.673 -24.4154 0 28.5254 0 0)
(169.515 -32.4255 0 32.0609 0 0)
(203.519 -59.0376 0 56.8935 0 0)
(190.428 -108.862 0 114.216 0 0)
(1.4265 0.598975 0 29.7522 0 0)
(4.32635 1.13491 0 30.6378 0 0)
(8.59067 1.92376 0 29.4904 0 0)
(15.2641 2.47227 0 29.3193 0 0)
(23.2256 2.77652 0 28.6739 0 0)
(32.2914 2.96229 0 28.413 0 0)
(42.4532 2.59642 0 27.6612 0 0)
(52.8314 2.1889 0 27.3808 0 0)
(64.4789 1.00417 0 26.657 0 0)
(75.6738 -0.367382 0 26.4921 0 0)
(88.7158 -2.75737 0 26.1088 0 0)
(100.508 -5.7421 0 26.3338 0 0)
(115.638 -10.3304 0 27.0907 0 0)
(128.174 -15.8108 0 28.6063 0 0)
(144.779 -26.5077 0 33.9242 0 0)
(152.142 -33.477 0 37.4886 0 0)
(180.48 -54.9292 0 53.2132 0 0)
(139.696 -71.3584 0 83.738 0 0)
(1.0085 0.521568 0 38.5226 0 0)
(3.78117 1.28787 0 39.717 0 0)
(8.18646 2.03547 0 38.1795 0 0)
(14.7387 2.77912 0 38.0384 0 0)
(22.6702 3.00466 0 37.1285 0 0)
(31.6102 3.31418 0 36.8534 0 0)
(41.5361 2.80248 0 35.8024 0 0)
(51.8133 2.47009 0 35.4839 0 0)
(62.8769 1.03403 0 34.4752 0 0)
(73.8986 -0.286698 0 34.2753 0 0)
(85.7242 -3.05321 0 33.6447 0 0)
(97.0897 -5.91237 0 33.9046 0 0)
(109.425 -10.9599 0 34.4143 0 0)
(121.307 -16.0529 0 36.1343 0 0)
(131.322 -25.5806 0 40.02 0 0)
(138.247 -33.228 0 44.75 0 0)
(150.109 -47.3507 0 52.4846 0 0)
(123.288 -58.7824 0 73.1514 0 0)
(0.612696 0.484608 0 49.7082 0 0)
(3.23821 1.44568 0 51.2964 0 0)
(7.74692 2.18593 0 49.1999 0 0)
(14.2081 3.03492 0 49.1125 0 0)
(22.007 3.27172 0 47.8232 0 0)
(30.8701 3.57686 0 47.5439 0 0)
(40.5004 3.06149 0 46.0825 0 0)
(50.6409 2.63226 0 45.714 0 0)
(61.171 1.15582 0 44.2945 0 0)
(71.8451 -0.300583 0 44.0511 0 0)
(82.7329 -3.15178 0 43.0069 0 0)
(93.2815 -6.05002 0 43.3263 0 0)
(103.928 -11.108 0 43.3272 0 0)
(113.797 -15.8616 0 45.1844 0 0)
(121.411 -24.5257 0 47.6898 0 0)
(125.852 -30.5921 0 51.9606 0 0)
(129.19 -40.7437 0 56.4843 0 0)
(116.082 -48.4176 0 69.053 0 0)
(0.434448 0.516119 0 63.9014 0 0)
(2.98081 1.62697 0 65.9564 0 0)
(7.47412 2.38256 0 63.2647 0 0)
(13.8539 3.30885 0 63.1528 0 0)
(21.5042 3.56731 0 61.519 0 0)
(30.2068 3.85603 0 61.1043 0 0)
(39.5704 3.35177 0 59.2964 0 0)
(49.4137 2.81261 0 58.7015 0 0)
(59.4886 1.36178 0 56.9809 0 0)
(69.5965 -0.277091 0 56.4631 0 0)
(79.6969 -2.99382 0 55.1607 0 0)
(89.2362 -6.09584 0 55.2168 0 0)
(98.5584 -10.57 0 54.8713 0 0)
(106.439 -15.435 0 56.4195 0 0)
(112.607 -22.1532 0 57.8646 0 0)
(115.141 -28.0707 0 61.5951 0 0)
(116.087 -35.22 0 64.5622 0 0)
(109.632 -40.8214 0 71.4635 0 0)
(0.356545 0.540388 0 81.3933 0 0)
(2.83304 1.74414 0 84.0784 0 0)
(7.26567 2.55349 0 80.6108 0 0)
(13.5233 3.49925 0 80.5015 0 0)
(21 3.80582 0 78.415 0 0)
(29.4825 4.03252 0 77.8619 0 0)
(38.5436 3.55492 0 75.5726 0 0)
(48.0171 2.91209 0 74.748 0 0)
(57.5743 1.47196 0 72.5559 0 0)
(67.071 -0.233721 0 71.7689 0 0)
(76.2875 -2.88536 0 70.0136 0 0)
(84.8767 -5.87215 0 69.7547 0 0)
(92.7861 -9.97866 0 68.9196 0 0)
(99.2178 -14.3089 0 69.8738 0 0)
(103.934 -19.758 0 70.5171 0 0)
(105.879 -24.6729 0 73.0222 0 0)
(106.034 -29.8403 0 74.9651 0 0)
(101.786 -33.326 0 78.623 0 0)
(0.329419 0.568772 0 102.47 0 0)
(2.7375 1.80567 0 105.679 0 0)
(7.07237 2.68116 0 101.653 0 0)
(13.1617 3.58052 0 101.184 0 0)
(20.443 3.92948 0 98.9197 0 0)
(28.6302 4.04947 0 97.84 0 0)
(37.3666 3.60851 0 95.3253 0 0)
(46.37 2.82545 0 93.8758 0 0)
(55.4016 1.4644 0 91.4393 0 0)
(64.1854 -0.353814 0 89.9882 0 0)
(72.5671 -2.77313 0 87.9615 0 0)
(80.1596 -5.70558 0 86.9875 0 0)
(86.8833 -9.2173 0 85.7759 0 0)
(92.146 -13.1079 0 85.7834 0 0)
(95.8493 -17.3277 0 85.7338 0 0)
(97.4345 -21.3958 0 86.8761 0 0)
(97.5371 -25.2417 0 87.9038 0 0)
(94.732 -27.6978 0 89.5094 0 0)
(0.313811 0.572934 0 126.463 0 0)
(2.64208 1.77268 0 130.392 0 0)
(6.85142 2.66526 0 125.682 0 0)
(12.7372 3.45989 0 124.872 0 0)
(19.7762 3.78681 0 122.341 0 0)
(27.6294 3.79995 0 120.764 0 0)
(35.9735 3.3255 0 117.881 0 0)
(44.4859 2.47768 0 115.848 0 0)
(52.9254 1.12183 0 112.987 0 0)
(61.0217 -0.642474 0 110.896 0 0)
(68.5731 -2.91162 0 108.405 0 0)
(75.2988 -5.54473 0 106.678 0 0)
(81.0387 -8.60127 0 104.91 0 0)
(85.4894 -11.826 0 103.906 0 0)
(88.536 -15.1902 0 103.074 0 0)
(89.9742 -18.3589 0 102.9 0 0)
(90.2767 -21.279 0 102.913 0 0)
(88.3132 -22.9265 0 103.066 0 0)
(0.299401 0.524416 0 151.877 0 0)
(2.53406 1.58021 0 156.379 0 0)
(6.58708 2.37492 0 151.249 0 0)
(12.2391 2.98422 0 149.811 0 0)
(18.9827 3.20691 0 147.251 0 0)
(26.4642 3.06414 0 144.939 0 0)
(34.3674 2.52294 0 141.849 0 0)
(42.3593 1.59009 0 139.042 0 0)
(50.1988 0.259935 0 135.843 0 0)
(57.6205 -1.44577 0 132.966 0 0)
(64.4358 -3.50844 0 130.014 0 0)
(70.4167 -5.847 0 127.441 0 0)
(75.4325 -8.42489 0 125.038 0 0)
(79.3207 -11.0779 0 123.035 0 0)
(82.02 -13.7169 0 121.321 0 0)
(83.4385 -16.1825 0 119.982 0 0)
(84.0212 -18.3818 0 118.892 0 0)
(82.8139 -19.4285 0 117.781 0 0)
(0.284113 0.393645 0 175.099 0 0)
(2.4156 1.14384 0 180.299 0 0)
(6.2867 1.66779 0 174.69 0 0)
(11.677 1.99917 0 172.807 0 0)
(18.0867 1.99553 0 170.125 0 0)
(25.1696 1.65795 0 167.274 0 0)
(32.6046 0.976592 0 163.887 0 0)
(40.0761 -0.0330743 0 160.49 0 0)
(47.3367 -1.36816 0 156.872 0 0)
(54.153 -2.98078 0 153.358 0 0)
(60.347 -4.84983 0 149.87 0 0)
(65.7543 -6.88138 0 146.578 0 0)
(70.27 -9.03636 0 143.48 0 0)
(73.821 -11.185 0 140.625 0 0)
(76.3778 -13.2495 0 138.034 0 0)
(77.9046 -15.1497 0 135.708 0 0)
(78.7869 -16.7977 0 133.596 0 0)
(78.2384 -17.3959 0 131.397 0 0)
(0.268883 0.155848 0 190.209 0 0)
(2.29469 0.389414 0 195.882 0 0)
(5.97004 0.486352 0 189.987 0 0)
(11.0811 0.406914 0 187.844 0 0)
(17.1405 0.0694239 0 185.097 0 0)
(23.8154 -0.539767 0 181.926 0 0)
(30.7885 -1.40972 0 178.347 0 0)
(37.764 -2.53273 0 174.594 0 0)
(44.506 -3.88315 0 170.681 0 0)
(50.8081 -5.42384 0 166.762 0 0)
(56.5171 -7.11135 0 162.869 0 0)
(61.5115 -8.88053 0 159.089 0 0)
(65.7158 -10.6769 0 155.453 0 0)
(69.1005 -12.4225 0 151.99 0 0)
(71.6586 -14.0414 0 148.724 0 0)
(73.3788 -15.5119 0 145.679 0 0)
(74.5742 -16.7484 0 142.787 0 0)
(74.6189 -17.0698 0 139.792 0 0)
(0.259243 -0.142994 0 190.182 0 0)
(2.19715 -0.535875 0 195.813 0 0)
(5.6933 -0.940356 0 189.981 0 0)
(10.5481 -1.49655 0 187.829 0 0)
(16.2916 -2.21794 0 185.125 0 0)
(22.6062 -3.12125 0 181.961 0 0)
(29.1835 -4.19563 0 178.406 0 0)
(35.7509 -5.43533 0 174.656 0 0)
(42.0854 -6.80988 0 170.731 0 0)
(48.0094 -8.29065 0 166.778 0 0)
(53.3867 -9.83086 0 162.803 0 0)
(58.1288 -11.388 0 158.917 0 0)
(62.1748 -12.9092 0 155.104 0 0)
(65.5184 -14.3511 0 151.44 0 0)
(68.1585 -15.6484 0 147.898 0 0)
(70.1004 -16.8082 0 144.56 0 0)
(71.5776 -17.7551 0 141.311 0 0)
(72.112 -17.9601 0 137.981 0 0)
(0.256068 -0.396814 0 174.365 0 0)
(2.13794 -1.30779 0 179.316 0 0)
(5.50246 -2.13021 0 173.987 0 0)
(10.1672 -3.07958 0 171.994 0 0)
(15.6772 -4.1089 0 169.512 0 0)
(21.7275 -5.23889 0 166.622 0 0)
(28.0208 -6.46248 0 163.371 0 0)
(34.3024 -7.77655 0 159.947 0 0)
(40.3621 -9.15266 0 156.341 0 0)
(46.0433 -10.5709 0 152.712 0 0)
(51.2207 -11.9893 0 149.028 0 0)
(55.8259 -13.3813 0 145.422 0 0)
(59.8055 -14.7021 0 141.838 0 0)
(63.1638 -15.9284 0 138.386 0 0)
(65.8985 -17.0088 0 135.002 0 0)
(68.0273 -17.9585 0 131.801 0 0)
(69.7192 -18.7162 0 128.646 0 0)
(70.617 -18.9039 0 125.446 0 0)
(0.257519 -0.545857 0 148.931 0 0)
(2.11013 -1.74869 0 152.889 0 0)
(5.38798 -2.82499 0 148.353 0 0)
(9.9251 -4.00915 0 146.635 0 0)
(15.2783 -5.21355 0 144.514 0 0)
(21.1516 -6.46319 0 142.061 0 0)
(27.2571 -7.75008 0 139.296 0 0)
(33.3526 -9.07604 0 136.391 0 0)
(39.2382 -10.4137 0 133.319 0 0)
(44.7702 -11.7532 0 130.227 0 0)
(49.8333 -13.0561 0 127.071 0 0)
(54.368 -14.3093 0 123.976 0 0)
(58.3281 -15.4735 0 120.881 0 0)
(61.7193 -16.5398 0 117.893 0 0)
(64.5406 -17.4644 0 114.944 0 0)
(66.8141 -18.2665 0 112.146 0 0)
(68.6651 -18.8955 0 109.374 0 0)
(69.826 -19.105 0 106.583 0 0)
(0.260382 -0.601603 0 120.031 0 0)
(2.10119 -1.89071 0 123 0 0)
(5.3219 -3.06932 0 119.352 0 0)
(9.7736 -4.3429 0 117.958 0 0)
(15.0219 -5.60174 0 116.253 0 0)
(20.7775 -6.87194 0 114.288 0 0)
(26.7591 -8.14323 0 112.075 0 0)
(32.7339 -9.42096 0 109.748 0 0)
(38.5091 -10.6797 0 107.284 0 0)
(43.9494 -11.9165 0 104.8 0 0)
(48.9473 -13.0974 0 102.259 0 0)
(53.448 -14.2179 0 99.7597 0 0)
(57.4104 -15.2437 0 97.255 0 0)
(60.8391 -16.1746 0 94.8296 0 0)
(63.7345 -16.9737 0 92.4314 0 0)
(66.1213 -17.6605 0 90.1479 0 0)
(68.0945 -18.1941 0 87.883 0 0)
(69.4542 -18.4296 0 85.6079 0 0)
(0.263334 -0.590788 0 91.8829 0 0)
(2.10085 -1.83082 0 93.9979 0 0)
(5.28412 -2.99801 0 91.2071 0 0)
(9.67892 -4.24888 0 90.1335 0 0)
(14.8567 -5.46959 0 88.8341 0 0)
(20.5336 -6.68256 0 87.3393 0 0)
(26.4335 -7.87735 0 85.6586 0 0)
(32.3293 -9.05893 0 83.8867 0 0)
(38.0344 -10.2066 0 82.0109 0 0)
(43.4184 -11.3191 0 80.1138 0 0)
(48.3797 -12.3694 0 78.1729 0 0)
(52.866 -13.3559 0 76.2584 0 0)
(56.8396 -14.2512 0 74.3403 0 0)
(60.3037 -15.0578 0 72.4769 0 0)
(63.26 -15.7475 0 70.6355 0 0)
(65.7356 -16.3354 0 68.8756 0 0)
(67.8031 -16.7921 0 67.1328 0 0)
(69.3158 -17.0416 0 65.3798 0 0)
(0.266403 -0.53695 0 66.931 0 0)
(2.10469 -1.65153 0 68.3712 0 0)
(5.26279 -2.73175 0 66.3395 0 0)
(9.61984 -3.88497 0 65.5566 0 0)
(14.7503 -5.00489 0 64.6184 0 0)
(20.3749 -6.10737 0 63.5365 0 0)
(26.2211 -7.18438 0 62.3222 0 0)
(32.0659 -8.2378 0 61.0365 0 0)
(37.7269 -9.25283 0 59.6776 0 0)
(43.0774 -10.2269 0 58.2977 0 0)
(48.0197 -11.141 0 56.8887 0 0)
(52.5029 -11.9925 0 55.494 0 0)
(56.4915 -12.7621 0 54.1001 0 0)
(59.9876 -13.4513 0 52.7413 0 0)
(62.994 -14.0408 0 51.4012 0 0)
(65.5386 -14.5397 0 50.1153 0 0)
(67.6787 -14.9296 0 48.8456 0 0)
(69.3092 -15.1774 0 47.5645 0 0)
(0.268255 -0.463044 0 46.2878 0 0)
(2.10911 -1.41648 0 47.2264 0 0)
(5.25094 -2.36465 0 45.8257 0 0)
(9.58302 -3.37628 0 45.2877 0 0)
(14.6818 -4.35766 0 44.6464 0 0)
(20.2718 -5.31818 0 43.9026 0 0)
(26.0834 -6.25284 0 43.0685 0 0)
(31.8958 -7.15991 0 42.1812 0 0)
(37.53 -8.03045 0 41.2456 0 0)
(42.8612 -8.85978 0 40.2925 0 0)
(47.7943 -9.63564 0 39.3225 0 0)
(52.2794 -10.354 0 38.3598 0 0)
(56.2826 -11.0026 0 37.4003 0 0)
(59.8047 -11.5808 0 36.4622 0 0)
(62.8491 -12.0764 0 35.539 0 0)
(65.4445 -12.4932 0 34.6499 0 0)
(67.6367 -12.8212 0 33.7749 0 0)
(69.3531 -13.0515 0 32.8888 0 0)
(0.269427 -0.383217 0 30.1568 0 0)
(2.11266 -1.16513 0 30.741 0 0)
(5.24421 -1.95906 0 29.8309 0 0)
(9.55955 -2.8083 0 29.4837 0 0)
(14.637 -3.63221 0 29.0715 0 0)
(20.2037 -4.43697 0 28.5909 0 0)
(25.9923 -5.21882 0 28.0517 0 0)
(31.7825 -5.97473 0 27.4761 0 0)
(37.398 -6.69819 0 26.87 0 0)
(42.7146 -7.38444 0 26.2516 0 0)
(47.6393 -8.02495 0 25.6236 0 0)
(52.1218 -8.61555 0 24.9992 0 0)
(56.1303 -9.1483 0 24.3781 0 0)
(59.6646 -9.6213 0 23.7695 0 0)
(62.7286 -10.027 0 23.1714 0 0)
(65.3499 -10.3657 0 22.5936 0 0)
(67.569 -10.6329 0 22.0266 0 0)
(69.3385 -10.8305 0 21.451 0 0)
(0.26975 -0.304704 0 18.2109 0 0)
(2.11443 -0.920161 0 18.555 0 0)
(5.23883 -1.55471 0 18.0044 0 0)
(9.54012 -2.23783 0 17.7984 0 0)
(14.5985 -2.90218 0 17.5553 0 0)
(20.1432 -3.55237 0 17.2707 0 0)
(25.9073 -4.18364 0 16.9505 0 0)
(31.672 -4.79267 0 16.6076 0 0)
(37.2617 -5.37292 0 16.2458 0 0)
(42.553 -5.9209 0 15.8757 0 0)
(47.4552 -6.42934 0 15.4991 0 0)
(51.9167 -6.89587 0 15.124 0 0)
(55.9094 -7.31369 0 14.7505 0 0)
(59.4309 -7.68249 0 14.3837 0 0)
(62.4897 -7.99648 0 14.0232 0 0)
(65.1082 -8.25625 0 13.6743 0 0)
(67.3305 -8.46095 0 13.3323 0 0)
(69.1274 -8.61135 0 12.9855 0 0)
(0.269394 -0.228352 0 9.88167 0 0)
(2.11216 -0.69153 0 10.0652 0 0)
(5.2216 -1.17909 0 9.76798 0 0)
(9.49661 -1.70896 0 9.6656 0 0)
(14.5248 -2.22352 0 9.5412 0 0)
(20.036 -2.72407 0 9.392 0 0)
(25.7632 -3.20629 0 9.22132 0 0)
(31.4899 -3.66769 0 9.03709 0 0)
(37.0404 -4.10252 0 8.84134 0 0)
(42.2946 -4.50923 0 8.64035 0 0)
(47.1607 -4.88221 0 8.4347 0 0)
(51.5921 -5.22162 0 8.22957 0 0)
(55.5594 -5.52167 0 8.0244 0 0)
(59.0647 -5.78455 0 7.82315 0 0)
(62.1152 -6.00417 0 7.62487 0 0)
(64.7328 -6.18407 0 7.43357 0 0)
(66.9587 -6.32721 0 7.2468 0 0)
(68.789 -6.42927 0 7.0586 0 0)
(0.268248 -0.154858 0 4.48579 0 0)
(2.08529 -0.498036 0 4.58139 0 0)
(5.16028 -0.852618 0 4.4562 0 0)
(9.39573 -1.22907 0 4.42056 0 0)
(14.3983 -1.5862 0 4.36948 0 0)
(19.884 -1.92859 0 4.30506 0 0)
(25.5845 -2.25363 0 4.22774 0 0)
(31.2852 -2.55904 0 4.14125 0 0)
(36.8128 -2.84324 0 4.04822 0 0)
(42.0462 -3.10741 0 3.9524 0 0)
(46.8956 -3.34862 0 3.85459 0 0)
(51.3176 -3.56775 0 3.7575 0 0)
(55.2791 -3.76103 0 3.66061 0 0)
(58.7903 -3.93055 0 3.56664 0 0)
(61.8474 -4.07018 0 3.47397 0 0)
(64.4838 -4.18523 0 3.38651 0 0)
(66.7068 -4.27572 0 3.30126 0 0)
(68.5653 -4.34577 0 3.21706 0 0)
(0.25534 -0.0882175 0 1.42091 0 0)
(2.06931 -0.313523 0 1.48663 0 0)
(5.20876 -0.526101 0 1.44658 0 0)
(9.50271 -0.734507 0 1.43343 0 0)
(14.5587 -0.924634 0 1.41331 0 0)
(20.0957 -1.10729 0 1.39004 0 0)
(25.8526 -1.28396 0 1.36341 0 0)
(31.6125 -1.45211 0 1.33407 0 0)
(37.2016 -1.61007 0 1.30309 0 0)
(42.4941 -1.75767 0 1.27148 0 0)
(47.4031 -1.89342 0 1.23966 0 0)
(51.8775 -2.01732 0 1.20825 0 0)
(55.889 -2.12735 0 1.1772 0 0)
(59.4399 -2.22418 0 1.14724 0 0)
(62.5304 -2.3037 0 1.11797 0 0)
(65.1983 -2.36991 0 1.09149 0 0)
(67.4212 -2.42252 0 1.06628 0 0)
(69.2718 -2.462 0 1.03932 0 0)
(0.246015 -0.025336 0 0.141835 0 0)
(2.06713 -0.0978443 0 0.153615 0 0)
(5.18764 -0.16559 0 0.15083 0 0)
(9.45073 -0.230843 0 0.149661 0 0)
(14.488 -0.29375 0 0.147358 0 0)
(20.0124 -0.354088 0 0.14463 0 0)
(25.7626 -0.412917 0 0.141632 0 0)
(31.5201 -0.469421 0 0.138501 0 0)
(37.1163 -0.522769 0 0.135278 0 0)
(42.4267 -0.572777 0 0.132026 0 0)
(47.3661 -0.61914 0 0.128769 0 0)
(51.8814 -0.661828 0 0.125567 0 0)
(55.9462 -0.70027 0 0.122424 0 0)
(59.5559 -0.73432 0 0.1194 0 0)
(62.7166 -0.763245 0 0.116575 0 0)
(65.4613 -0.788493 0 0.114238 0 0)
(67.7744 -0.80671 0 0.112164 0 0)
(69.7026 -0.815995 0 0.111779 0 0)
(0.0244873 0.0357647 0 0.717402 0 0)
(0.26732 0.0991126 0 0.678457 0 0)
(0.785616 0.180942 0 0.671283 0 0)
(1.53919 0.295008 0 0.662064 0 0)
(2.48631 0.424019 0 0.660467 0 0)
(3.6088 0.568811 0 0.657201 0 0)
(4.88473 0.715841 -2.384e-19 0.655237 -6.48524e-20 1.47822e-37)
(6.31125 0.866723 2.4239e-19 0.650925 6.915e-20 1.48273e-37)
(7.88167 1.01366 0 0.644906 0 0)
(9.59398 1.16108 2.44787e-19 0.637323 6.85615e-20 1.46053e-37)
(11.443 1.30511 0 0.628735 0 0)
(13.4227 1.448 0 0.619639 0 0)
(15.5264 1.58512 0 0.611683 0 0)
(17.7479 1.71682 -2.77314e-19 0.605216 -5.16767e-20 1.34703e-37)
(20.0811 1.83993 0 0.599004 0 0)
(22.5263 1.95353 0 0.593779 0 0)
(25.0839 2.05344 3.40493e-19 0.589487 3.90262e-20 1.22055e-37)
(27.7523 2.14128 0 0.585037 0 0)
(30.5266 2.21973 0 0.580374 0 0)
(33.401 2.29103 0 0.575937 0 0)
(36.3597 2.3542 -4.56411e-19 0.572613 -1.95731e-20 1.01758e-37)
(39.3931 2.40998 0 0.568867 0 0)
(42.4874 2.45646 -5.16176e-19 0.566614 -1.02967e-20 9.2504e-38)
(45.6334 2.49348 0 0.567822 0 0)
(48.8149 2.52723 0 0.568594 0 0)
(52.018 2.55032 -6.04332e-19 0.570778 1.22749e-21 7.97547e-38)
(55.2356 2.55253 0 0.572617 0 0)
(58.472 2.53512 6.57967e-19 0.571087 -6.95131e-21 7.21495e-38)
(61.7212 2.50409 0 0.56321 0 0)
(64.989 2.4613 -7.02703e-19 0.552789 1.05024e-20 6.53873e-38)
(68.274 2.40936 0 0.539206 0 0)
(71.5635 2.35071 0 0.523357 0 0)
(74.8499 2.28528 0 0.509295 0 0)
(78.1349 2.20934 0 0.497915 0 0)
(81.412 2.12224 0 0.486385 0 0)
(84.6782 2.02684 7.79754e-19 0.475496 -1.40091e-20 4.5989e-38)
(87.932 1.92299 0 0.463883 0 0)
(91.1745 1.81056 -1.56266e-18 0.44786 2.71659e-20 1.61369e-37)
(94.4043 1.69117 0 0.432287 0 0)
(97.6163 1.56371 1.55269e-18 0.417668 -2.61799e-20 1.39972e-37)
(100.804 1.43069 0 0.402528 0 0)
(103.966 1.28847 0 0.390858 0 0)
(107.093 1.13802 -1.51469e-18 0.378291 2.15886e-20 1.11265e-37)
(110.168 0.985285 0 0.365471 0 0)
(113.176 0.830543 -1.47615e-18 0.354648 1.82823e-20 9.43198e-38)
(116.101 0.672616 1.45367e-18 0.345769 -1.6545e-20 8.66229e-38)
(118.929 0.508864 0 0.339626 0 0)
(121.651 0.338894 1.40281e-18 0.334833 -1.25186e-20 7.34076e-38)
(124.25 0.16352 1.37458e-18 0.33093 -1.06513e-20 6.79466e-38)
(126.727 -0.0143498 0 0.327677 0 0)
(129.068 -0.193666 0 0.325554 0 0)
(131.254 -0.377252 0 0.322878 0 0)
(133.263 -0.565894 0 0.321672 0 0)
(135.075 -0.756842 0 0.323722 0 0)
(136.664 -0.946739 -1.1743e-18 0.327943 -4.402e-21 5.01617e-38)
(138.002 -1.13804 0 0.332057 0 0)
(139.076 -1.3341 1.07965e-18 0.335748 1.1467e-20 4.75141e-38)
(139.89 -1.53677 0 0.340964 0 0)
(140.439 -1.74563 0 0.347754 0 0)
(140.707 -1.9516 -9.119e-19 0.357072 -2.24658e-20 4.75191e-38)
(140.69 -2.15581 0 0.369051 0 0)
(140.37 -2.36092 7.80496e-19 0.381058 3.12461e-20 4.96887e-38)
(139.754 -2.56484 0 0.391351 0 0)
(138.837 -2.76869 0 0.404141 0 0)
(137.629 -2.97169 0 0.41831 0 0)
(136.143 -3.16745 -4.82167e-19 0.432716 -4.76082e-20 6.03461e-38)
(134.381 -3.35663 0 0.44744 0 0)
(132.357 -3.53943 0 0.460519 0 0)
(130.083 -3.7149 -2.26427e-19 0.474178 -6.11994e-20 7.30464e-38)
(127.58 -3.88814 0 0.489257 0 0)
(124.885 -4.05408 -5.08585e-20 0.504439 -6.98445e-20 8.30301e-38)
(122.007 -4.20758 0 0.519899 0 0)
(118.966 -4.34889 0 0.535905 0 0)
(115.79 -4.47943 0 0.553052 0 0)
(112.503 -4.60061 -3.04824e-19 0.571199 8.32105e-20 1.0454e-37)
(109.124 -4.7097 0 0.589293 0 0)
(105.67 -4.80352 0 0.607263 0 0)
(102.15 -4.88229 -5.64228e-19 0.625375 9.03459e-20 1.20175e-37)
(98.5795 -4.95042 -6.46079e-19 0.64417 9.18906e-20 1.2529e-37)
(94.9854 -5.00753 0 0.662991 0 0)
(91.3985 -5.05274 -7.99235e-19 0.682727 9.46667e-20 1.34713e-37)
(87.8399 -5.08676 0 0.703921 0 0)
(84.33 -5.10893 -1.87826e-18 0.725493 1.92645e-19 5.74521e-37)
(80.8832 -5.11812 0 0.748149 0 0)
(77.5172 -5.11276 -2.12326e-18 0.770736 1.93767e-19 6.07676e-37)
(74.2503 -5.09099 0 0.793691 0 0)
(71.0967 -5.05616 2.3259e-18 0.819667 -1.93906e-19 6.36647e-37)
(68.0738 -5.00807 0 0.844693 0 0)
(65.1957 -4.94133 0 0.867006 0 0)
(62.4625 -4.85579 0 0.88971 0 0)
(59.8782 -4.75353 -2.58674e-18 0.914725 1.8631e-19 6.80004e-37)
(57.4487 -4.63698 0 0.939331 0 0)
(55.1831 -4.50439 2.64763e-18 0.963596 -1.80029e-19 6.94725e-37)
(53.0845 -4.35553 0 0.987351 0 0)
(51.1415 -4.18446 -2.65957e-18 1.01092 1.73676e-19 7.03581e-37)
(49.349 -3.99675 -2.65037e-18 1.03223 1.70438e-19 7.07104e-37)
(47.6951 -3.79638 -2.63135e-18 1.05348 1.66271e-19 7.09793e-37)
(46.1752 -3.58695 0 1.07588 0 0)
(44.7628 -3.36737 0 1.09899 0 0)
(43.4681 -3.13877 0 1.11855 0 0)
(42.2724 -2.90119 0 1.13835 0 0)
(41.1707 -2.66174 0 1.15824 0 0)
(40.1449 -2.42187 0 1.17724 0 0)
(39.1915 -2.17911 0 1.19234 0 0)
(38.2649 -1.93562 0 1.20833 0 0)
(37.3626 -1.69883 2.02589e-18 1.22364 -1.31584e-19 7.07616e-37)
(36.4519 -1.47045 1.91176e-18 1.24083 -1.24252e-19 7.06978e-37)
(35.5572 -1.25132 0 1.25249 0 0)
(34.6441 -1.04116 0 1.26551 0 0)
(33.7229 -0.854463 0 1.27952 0 0)
(32.7409 -0.678066 1.35374e-18 1.29212 -1.04637e-19 6.91205e-37)
(31.7982 -0.527652 0 1.29938 0 0)
(30.7872 -0.38528 0 1.30919 0 0)
(29.8306 -0.282321 0 1.31927 0 0)
(28.9024 -0.198723 0 1.3325 0 0)
(28.0721 -0.148437 -4.38378e-19 1.34094 7.57416e-20 6.66263e-37)
(27.3722 -0.122361 0 1.35028 0 0)
(26.8354 -0.131671 0 1.36372 0 0)
(26.5459 -0.174561 -2.2331e-19 1.37164 -6.55632e-20 6.42567e-37)
(26.5029 -0.243857 4.50269e-19 1.38436 6.11378e-20 6.29972e-37)
(26.7575 -0.353602 0 1.40124 0 0)
(27.3629 -0.510339 9.12983e-19 1.41866 6.00546e-20 6.05238e-37)
(28.385 -0.70743 0 1.43771 0 0)
(29.8842 -0.959422 -1.3546e-18 1.45533 -6.45223e-20 5.7553e-37)
(31.8812 -1.24595 0 1.47811 0 0)
(34.451 -1.58195 0 1.50516 0 0)
(37.4896 -1.95997 0 1.53787 0 0)
(41.1066 -2.3885 0 1.57211 0 0)
(45.155 -2.84286 0 1.61025 0 0)
(49.6405 -3.34451 4.89979e-18 1.6525 2.04731e-19 1.97227e-36)
(54.5029 -3.89022 5.15491e-18 1.69876 2.30556e-19 1.93765e-36)
(59.7621 -4.4721 0 1.74725 0 0)
(65.2239 -5.07442 0 1.80291 0 0)
(70.8404 -5.7013 0 1.85816 0 0)
(76.4642 -6.31495 -5.69501e-18 1.91891 -3.52333e-19 1.91761e-36)
(81.8712 -6.92935 0 1.98994 0 0)
(87.0191 -7.55009 0 2.06219 0 0)
(91.8523 -8.16445 0 2.13872 0 0)
(96.2966 -8.75737 -5.33416e-18 2.21709 -5.3366e-19 2.07234e-36)
(100.33 -9.32384 5.1008e-18 2.30052 5.82451e-19 2.13437e-36)
(103.739 -9.84522 0 2.39127 0 0)
(106.644 -10.3543 0 2.48406 0 0)
(109.014 -10.808 4.08137e-18 2.57857 7.3551e-19 2.36654e-36)
(110.849 -11.2265 3.65193e-18 2.67193 7.84426e-19 2.45182e-36)
(112 -11.5703 0 2.77221 0 0)
(112.564 -11.8843 0 2.87209 0 0)
(112.44 -12.1262 -2.05363e-18 2.97602 -9.45857e-19 2.71957e-36)
(111.756 -12.3498 1.42415e-18 3.07097 9.89446e-19 2.79831e-36)
(110.556 -12.5031 0 3.16771 0 0)
(108.642 -12.6023 0 3.26828 0 0)
(106.134 -12.6351 -5.20164e-19 3.35913 1.11721e-18 3.06903e-36)
(102.995 -12.6141 0 3.44955 0 0)
(99.5094 -12.5552 0 3.53308 0 0)
(95.5184 -12.4058 -2.54634e-18 3.6055 1.20606e-18 3.30171e-36)
(91.2191 -12.1844 0 3.67745 0 0)
(86.5986 -11.852 -3.82974e-18 3.73885 1.25701e-18 3.44455e-36)
(81.7144 -11.4343 0 3.79449 0 0)
(76.6089 -10.8986 0 3.83359 0 0)
(71.6686 -10.2649 0 3.8576 0 0)
(66.7911 -9.46711 5.86806e-18 3.87633 -1.27765e-18 3.6823e-36)
(62.1397 -8.54966 0 3.87978 0 0)
(57.9297 -7.48012 0 3.86775 0 0)
(54.4806 -6.29076 0 3.83981 0 0)
(51.6327 -4.91221 0 3.79772 0 0)
(49.5419 -3.4534 0 3.74719 0 0)
(48.8255 -1.89991 0 3.67503 0 0)
(49.6684 -0.27677 6.01965e-18 3.5852 -1.10406e-18 3.72715e-36)
(51.7373 1.43605 5.60389e-18 3.48693 -1.04963e-18 3.70949e-36)
(55.4482 3.12787 0 3.37542 0 0)
(60.7094 4.7541 0 3.25754 0 0)
(67.521 6.3335 0 3.128 0 0)
(75.4624 7.80603 -3.0493e-18 2.99831 7.94756e-19 3.38352e-36)
(84.5902 9.10692 0 2.87016 0 0)
(94.1444 10.2946 2.94253e-18 2.73527 -1.35027e-18 1.23614e-35)
(104.022 11.2511 -1.30649e-18 2.60471 1.2175e-18 1.16605e-35)
(113.647 12.04 3.20798e-19 2.47335 1.10452e-18 1.10173e-35)
(123.289 12.6892 -2.02529e-18 2.34854 -1.01382e-18 1.03322e-35)
(131.393 13.229 3.67793e-18 2.22957 9.22441e-19 9.75828e-36)
(139.255 13.7045 -5.28335e-18 2.12227 -9.03023e-19 8.99331e-36)
(142.997 14.3961 0 2.06635 0 0)
(0.0183148 0.17425 0 6.09686 0 0)
(0.202745 0.387949 0 6.03494 0 0)
(0.629586 0.609843 1.31779e-19 5.86222 1.75903e-19 6.76407e-37)
(1.32729 0.854286 0 5.74145 0 0)
(2.26965 1.13348 -1.92416e-19 5.6816 -3.53548e-19 9.19145e-37)
(3.44615 1.43814 -1.84064e-19 5.65439 -4.41339e-19 9.72155e-37)
(4.83568 1.76265 -8.07662e-20 5.63893 -2.51336e-19 2.48862e-37)
(6.42391 2.10308 -6.90679e-20 5.62082 -2.70217e-19 2.61108e-37)
(8.20297 2.45215 0 5.5924 0 0)
(10.1708 2.80538 -4.23388e-20 5.54973 -2.69022e-19 2.59271e-37)
(12.3288 3.15395 0 5.49781 0 0)
(14.6752 3.49546 0 5.43817 0 0)
(17.2016 3.82474 9.51584e-20 5.36991 4.23697e-19 9.50637e-37)
(19.9089 4.14133 6.97418e-20 5.29808 1.86897e-19 2.34018e-37)
(22.7864 4.43551 -1.85911e-19 5.22295 -3.26289e-19 8.93218e-37)
(25.8282 4.70733 -2.52168e-19 5.14481 -2.81291e-19 8.6552e-37)
(29.0229 4.95827 -1.71429e-19 5.06047 -1.18503e-19 2.12653e-37)
(32.3642 5.18984 0 4.96971 0 0)
(35.8402 5.40032 0 4.87401 0 0)
(39.4424 5.59429 0 4.77131 0 0)
(43.1474 5.77095 -3.86914e-19 4.66637 -3.67355e-20 1.8032e-37)
(46.9462 5.92762 0 4.56184 0 0)
(50.8163 6.05592 1.60999e-18 4.45529 -1.633e-20 1.55123e-36)
(54.7449 6.1595 0 4.3523 0 0)
(58.7152 6.23999 0 4.2471 0 0)
(62.7096 6.29758 7.75252e-19 4.14282 -5.7734e-20 1.56441e-37)
(66.7006 6.32895 0 4.03675 0 0)
(70.6693 6.34337 -9.33435e-19 3.93605 8.18154e-20 1.45944e-37)
(74.5822 6.3345 -1.9945e-18 3.83598 1.81561e-19 5.56904e-37)
(78.4293 6.29705 1.07752e-18 3.73313 -9.87363e-20 1.36578e-37)
(82.2067 6.22806 0 3.62524 0 0)
(85.9143 6.13106 0 3.51986 0 0)
(89.5389 6.00851 0 3.41649 0 0)
(93.0842 5.86153 -2.57734e-18 3.30836 2.22747e-19 4.71278e-37)
(96.5419 5.68473 -2.65558e-18 3.20097 2.20294e-19 4.55142e-37)
(99.9259 5.47847 -1.37397e-18 3.10008 1.07592e-19 1.1076e-37)
(103.245 5.24107 0 3.00827 0 0)
(106.49 4.96763 2.83871e-18 2.92027 -2.03073e-19 4.12855e-37)
(109.673 4.65612 0 2.83518 0 0)
(112.784 4.31583 -2.87541e-18 2.7537 1.8852e-19 3.81622e-37)
(115.834 3.94785 0 2.67335 0 0)
(118.817 3.56005 0 2.60112 0 0)
(121.74 3.15638 2.82829e-18 2.53008 -1.54111e-19 3.31714e-37)
(124.587 2.73395 0 2.46462 0 0)
(127.341 2.28617 8.1616e-18 2.40649 -3.93326e-19 2.68442e-36)
(130 1.80876 -2.68926e-18 2.36103 1.1913e-19 2.83678e-37)
(132.566 1.30595 0 2.3338 0 0)
(135.056 0.777828 -2.54932e-18 2.31796 9.08634e-20 2.51706e-37)
(137.455 0.216971 -2.46858e-18 2.3117 7.66333e-20 2.3613e-37)
(139.76 -0.370177 0 2.31404 0 0)
(141.95 -0.969104 0 2.32748 0 0)
(144.003 -1.56567 0 2.34257 0 0)
(145.907 -2.15039 0 2.35618 0 0)
(147.623 -2.72758 0 2.37982 0 0)
(149.14 -3.30626 1.8833e-18 2.41261 1.45658e-20 1.71971e-37)
(150.436 -3.89397 3.45109e-18 2.45593 7.12222e-20 6.55428e-37)
(151.492 -4.48545 -1.64439e-18 2.50709 -5.59373e-20 1.59997e-37)
(152.318 -5.09531 0 2.56328 0 0)
(152.888 -5.70665 2.68705e-18 2.62645 1.90238e-19 6.0108e-37)
(153.173 -6.29744 -1.17003e-18 2.69458 -1.13249e-19 1.46777e-37)
(153.201 -6.8831 0 2.77133 0 0)
(152.922 -7.46276 -9.78232e-19 2.86122 -1.48621e-19 1.49428e-37)
(152.347 -8.02067 0 2.95447 0 0)
(151.47 -8.56925 0 3.05572 0 0)
(150.289 -9.09948 -1.04758e-18 3.16183 -3.96945e-19 6.25282e-37)
(148.788 -9.60084 4.22639e-19 3.27265 2.15252e-19 1.63687e-37)
(147.009 -10.0944 -4.89134e-19 3.39295 -4.62237e-19 6.68177e-37)
(144.943 -10.5666 2.12038e-19 3.51749 4.89138e-19 6.9198e-37)
(142.618 -11.0143 1.01286e-20 3.64317 2.54481e-19 1.82644e-37)
(140.02 -11.4353 0 3.77378 0 0)