/*--------------------------------*- C++ -*----------------------------------*\
| =========                 |                                                 |
| \\      /  F ield         | OpenFOAM: The Open Source CFD Toolbox           |
|  \\    /   O peration     | Version:  dev                                   |
|   \\  /    A nd           | Web:      http://www.openfoam.org               |
|    \\/     M anipulation  |                                                 |
\*---------------------------------------------------------------------------*/
FoamFile
{
    version     2.0;
    format      ascii;
    class       volScalarField;
    object      k_0;
    location    "9.159";
}
// * * * * * * * * * * * * * * * * * * * * * * * * * * * * * * * * * * * * * //

dimensions      [0 2 -2 0 0 0 0];

internalField   nonuniform List<scalar> 
12225
(
8.06383
7.85638
4.40364
4.03492
3.52716
4.15942
5.21589
5.58991
7.96739
7.61779
11.3436
9.43304
14.3872
10.0957
14.5616
13.4619
18.8049
20.2077
1.85934
6.03274
5.09586
6.09543
4.33587
5.79112
4.24377
5.78357
4.86127
6.15654
5.82762
6.66376
7.07531
6.43104
8.47269
8.62292
21.5166
19.9303
0.18454
2.02085
2.32502
3.49312
2.95965
3.72769
3.04561
3.72586
3.21696
3.50768
3.4684
2.9352
3.68246
2.46529
4.15791
4.85082
17.7815
20.5987
0.0134147
0.363318
0.648245
0.923258
1.2348
1.29858
1.62929
1.51495
1.99713
1.51288
2.19738
1.29171
2.01323
1.16887
2.23284
2.90787
15.3779
22.1474
0.00201669
0.051669
0.150247
0.233471
0.41206
0.450157
0.641772
0.62416
0.83312
0.68552
0.976769
0.621992
1.01755
0.615535
1.31001
1.86561
11.8406
23.0409
0.00763003
0.017674
0.0464457
0.0634086
0.121436
0.124104
0.198757
0.187784
0.286029
0.230155
0.371131
0.237165
0.437576
0.261074
0.677095
0.937197
5.17432
13.4505
0.00402006
0.00401622
0.0115592
0.0121717
0.0289709
0.026916
0.0548954
0.0465451
0.0881613
0.0660043
0.129475
0.0858563
0.172581
0.112649
0.281248
0.361122
1.70898
3.1306
0.000727136
0.000889422
0.00306813
0.00284124
0.00745987
0.00672666
0.0159364
0.0132059
0.02743
0.0207977
0.0447287
0.031852
0.0663632
0.0495431
0.115589
0.151327
0.549716
0.638596
0.000301836
0.000395
0.0010224
0.00105456
0.00230707
0.00237437
0.0052271
0.00486477
0.00910173
0.00807477
0.0157656
0.0135487
0.025624
0.0235664
0.0469397
0.0620502
0.181433
0.175805
0.000330071
0.000434194
0.000577866
0.000780192
0.00112921
0.00141204
0.00230513
0.00256001
0.00377753
0.00418756
0.00638625
0.00719924
0.0108201
0.0130836
0.0198138
0.0263795
0.060026
0.0593309
0.000519367
0.000637661
0.000675312
0.000838903
0.000880249
0.00114312
0.0014561
0.00201301
0.00231863
0.00328832
0.0040193
0.00579606
0.00713903
0.0100742
0.01261
0.0163078
0.0258993
0.0282378
0.00102075
0.00100002
0.000909094
0.00105386
0.000995817
0.00116143
0.00130797
0.00184758
0.00213922
0.0032556
0.00388862
0.00588489
0.00704067
0.00985678
0.0120521
0.0152477
0.0191989
0.0220357
0.00140535
0.00137361
0.00115562
0.00116813
0.00104606
0.00115692
0.0012729
0.00186219
0.00235064
0.00370067
0.00470237
0.00717713
0.00881039
0.0117147
0.0140753
0.0171291
0.019872
0.0225001
0.00237899
0.0020024
0.0015654
0.00134939
0.00115943
0.00119187
0.00130934
0.00182017
0.00268406
0.00470533
0.0081127
0.0123235
0.016474
0.0205234
0.0238093
0.0266214
0.028483
0.0300928
0.00330219
0.00267202
0.00206686
0.00157209
0.00135678
0.0013542
0.00152706
0.00215571
0.00371315
0.0075924
0.0138827
0.0209792
0.0280223
0.0340426
0.0394127
0.0436048
0.0465521
0.0485561
0.00527284
0.00399696
0.00279371
0.00189829
0.00164321
0.00168543
0.0021064
0.00349087
0.00740216
0.0163788
0.0261005
0.0353114
0.0436036
0.0503771
0.0559316
0.0599948
0.062717
0.0647496
0.0065378
0.00487504
0.00345024
0.00230327
0.00192281
0.00191686
0.0023224
0.00386843
0.00849653
0.0192309
0.0305793
0.0409737
0.0499953
0.0572576
0.0629376
0.066876
0.0695351
0.0714163
0.00654176
0.00499622
0.00342039
0.00219763
0.00178545
0.00176788
0.00214582
0.00353213
0.00746208
0.0174665
0.0292484
0.0400621
0.0493691
0.05687
0.0626705
0.0666999
0.0693303
0.071253
0.00551968
0.00441403
0.00303281
0.00193211
0.00155114
0.00153143
0.00177874
0.00271906
0.00532418
0.0129923
0.0244187
0.0348928
0.04384
0.0511531
0.0567472
0.0608075
0.0633612
0.0654165
0.0037714
0.00295367
0.00216757
0.00149291
0.00123033
0.00122211
0.00140359
0.00213882
0.00432869
0.00993701
0.0167758
0.023757
0.0302639
0.035966
0.0404772
0.0442185
0.0465411
0.04875
0.00238028
0.00201813
0.00153252
0.00110987
0.000961691
0.000961224
0.00109533
0.00156443
0.00279633
0.00587891
0.00991776
0.0141699
0.0181719
0.0217858
0.0245905
0.0269935
0.0286412
0.0301204
0.0013965
0.00123682
0.00105951
0.000829185
0.000738505
0.000735178
0.000797349
0.0010338
0.0016435
0.00326111
0.00602018
0.00884662
0.0113341
0.0135926
0.0151775
0.0163096
0.0168334
0.0173203
0.000808126
0.000839715
0.000806222
0.000740007
0.000691681
0.000692795
0.000738097
0.000889889
0.00127518
0.00230858
0.00384841
0.00559383
0.00712793
0.00833419
0.00909828
0.00984864
0.0104574
0.0113316
0.000424558
0.000461501
0.000510067
0.000599353
0.000705547
0.000915775
0.00124876
0.00156518
0.00195717
0.00286437
0.00418229
0.00576624
0.00745925
0.00863997
0.00953697
0.0103954
0.0113451
0.0125815
0.000170959
0.000285462
0.000569188
0.00120774
0.00230545
0.00460912
0.00704178
0.00912992
0.0106547
0.0128104
0.0158786
0.0197241
0.0243124
0.0276879
0.0307671
0.0336856
0.0365336
0.0393937
8.9578e-05
0.00088808
0.00436287
0.0119262
0.0255754
0.0447303
0.0619731
0.0753819
0.0856699
0.0957673
0.107326
0.120612
0.134091
0.144211
0.151598
0.158532
0.162614
0.167015
0.000587466
0.0176277
0.0750394
0.154666
0.252952
0.343097
0.417599
0.467131
0.496882
0.516495
0.532627
0.550552
0.568165
0.579464
0.585105
0.587312
0.583668
0.578396
0.0212996
0.320676
0.909383
1.26022
1.51984
1.67132
1.76833
1.80829
1.81759
1.80955
1.79252
1.76483
1.73518
1.69518
1.64996
1.60718
1.54816
1.49639
0.62852
3.30342
4.52359
4.72082
4.61982
4.41975
4.1992
4.00278
3.84657
3.6981
3.56775
3.43247
3.31133
3.1797
3.05744
2.92857
2.80745
2.60402
6.46842
8.72958
7.2509
5.5738
4.69435
4.40916
4.42296
4.58378
4.84738
5.13041
5.40705
5.65545
5.87412
6.0555
6.19834
6.27068
6.26088
5.85033
0.0618059
0.0634905
0.0622261
0.0639965
0.0692005
0.0799733
0.0941496
0.112796
0.137467
0.168705
0.206586
0.251764
0.304008
0.363448
0.428665
0.501719
0.583602
0.663036
0.749593
0.83814
0.92388
1.02413
1.15223
1.30861
1.46328
1.57293
1.63227
1.66197
1.69336
1.76721
1.87733
1.99691
2.12288
2.34305
2.72143
3.2025
3.71359
4.19627
4.63407
5.024
5.35579
5.62337
5.83708
6.00422
6.12295
6.20399
6.23542
6.2312
6.19648
6.1295
6.04945
5.96954
5.87016
5.76245
5.66546
5.57433
5.48188
5.38104
5.28067
5.17961
5.09314
5.00944
4.92889
4.85439
4.77342
4.69771
4.61747
4.55903
4.50475
4.44565
4.40212
4.36017
4.33584
4.30916
4.28816
4.26794
4.25054
4.2368
4.23865
4.26492
4.30789
4.33656
4.32692
4.27597
4.24548
4.27466
4.36322
4.46335
4.47328
4.42122
4.34624
4.2966
4.22212
4.11126
4.02217
3.97044
3.94473
3.89243
3.76752
3.54053
3.31523
3.13269
2.9415
2.67291
2.43005
2.29753
2.27891
2.3358
2.44357
2.46364
2.38914
2.26772
2.39851
2.6996
2.90101
3.04532
2.94256
2.45564
2.00251
1.66631
1.54573
1.57291
2.21566
2.50049
2.33036
1.74034
1.87963
2.08283
2.02207
1.88092
1.95379
2.13712
2.36591
2.77102
3.27908
3.95447
4.83172
6.04314
7.55221
8.98482
9.90933
10.3172
10.4164
10.4192
10.4091
10.5047
10.7677
10.9897
11.1003
11.2597
11.6445
12.404
13.716
14.755
15.0826
15.0282
14.7691
13.8122
13.345
12.4735
10.7008
10.3995
11.9233
16.6047
17.6816
13.4425
9.19207
7.35111
6.56639
6.43326
6.42253
6.80783
7.93371
10.0963
13.6576
17.7724
17.8866
14.3516
10.1998
9.27503
0.205536
0.14991
0.109767
0.0893877
0.0780815
0.0723401
0.0691236
0.0676824
0.0674298
0.0676991
0.0692684
0.0730866
0.0795032
0.0876031
0.0972145
0.108432
0.123312
0.134939
0.146451
0.161991
0.18199
0.214388
0.260156
0.301091
0.336503
0.392407
0.452246
0.522677
0.649216
1.0159
1.54716
1.96586
2.25579
2.50236
2.8061
3.09291
3.23237
3.2598
3.2
3.06544
2.88152
2.67748
2.48142
2.29503
2.11317
1.93726
1.7747
1.62556
1.5015
1.38081
1.29607
1.23676
1.18229
1.13253
1.09512
1.05504
1.02129
0.97878
0.948317
0.928232
0.916247
0.893351
0.870507
0.85548
0.834729
0.81446
0.794606
0.785693
0.774993
0.758479
0.750523
0.742822
0.743302
0.743719
0.746344
0.749958
0.755472
0.75928
0.766827
0.787064
0.857823
0.926819
0.949986
0.947665
0.918041
0.91309
0.946351
1.07602
1.19844
1.2469
1.266
1.31675
1.37308
1.37328
1.3447
1.34014
1.37699
1.53317
1.68568
1.73988
1.70435
1.5946
1.53683
1.4065
1.05383
0.878968
0.864515
0.980702
1.20441
1.53719
1.84862
2.09147
2.12329
1.99038
1.84645
1.66934
1.32751
1.15495
1.11099
1.12153
1.1448
1.32763
1.5339
1.52417
1.34073
1.33046
1.39493
1.48629
1.55912
1.59614
1.5328
1.51182
1.50449
1.51836
1.57296
1.62023
1.73237
1.89632
2.23288
2.69183
3.23609
3.7552
4.17152
4.45244
4.70866
4.96083
5.13786
5.18183
5.16919
5.13216
5.14145
5.25604
5.62553
6.05419
6.15614
6.04977
5.99453
5.79894
5.90627
6.42312
6.58069
7.58495
10.9344
11.7434
7.07598
5.36367
5.48535
6.64389
6.66583
6.2056
5.37855
5.30311
5.38738
6.17406
7.11327
9.52911
14.7532
16.3418
12.2761
8.03571
0.451326
0.264081
0.183956
0.148303
0.123033
0.107009
0.0927854
0.0788246
0.0678117
0.0603514
0.0552617
0.0526697
0.0523541
0.0527559
0.0541607
0.0570418
0.0613019
0.071121
0.0918588
0.111773
0.135128
0.195333
0.269993
0.32011
0.385633
0.577507
0.935117
1.19364
1.37489
1.54642
1.7385
1.88855
1.93968
1.92226
1.75605
1.59305
1.4255
1.23815
1.05789
0.890516
0.738411
0.621462
0.528959
0.454425
0.391401
0.346421
0.311133
0.281022
0.263622
0.249033
0.239811
0.234013
0.229261
0.226038
0.222935
0.217627
0.211717
0.207945
0.206776
0.206908
0.208503
0.209711
0.210096
0.211353
0.213638
0.214379
0.214966
0.216611
0.21768
0.217662
0.217799
0.217675
0.217672
0.217342
0.217318
0.218508
0.219583
0.218822
0.217915
0.221153
0.240161
0.272995
0.290819
0.29279
0.284273
0.276369
0.280414
0.303057
0.372063
0.416132
0.430715
0.456276
0.507189
0.52405
0.517845
0.515174
0.528835
0.590251
0.697697
0.902426
1.03148
1.04816
1.04513
0.988057
0.761361
0.605744
0.627377
0.879382
1.17177
1.57187
1.78123
1.75537
1.44606
1.28753
1.21168
1.0423
0.927309
0.912717
0.982438
1.10736
1.14201
1.17271
1.19733
1.14302
1.14713
1.3991
1.53508
1.49219
1.42049
1.55092
1.48132
1.45715
1.38793
1.33612
1.31789
1.31017
1.29206
1.28813
1.33017
1.44793
1.65208
1.89523
2.14706
2.38816
2.61457
2.94745
3.27562
3.39759
3.40418
3.32874
3.29064
3.36534
3.60955
3.80475
3.88811
3.94681
4.11534
4.09362
4.19697
4.7732
5.76702
7.23691
7.89158
6.51287
4.7282
4.26705
4.34201
5.48702
7.11575
6.40074
5.05653
4.36298
4.21662
4.25809
4.09393
4.36692
5.57675
9.59319
10.8761
8.54411
0.789203
0.404062
0.275055
0.226338
0.194168
0.158434
0.128676
0.104124
0.0818931
0.0654997
0.0562481
0.0521011
0.0515564
0.0521066
0.0544029
0.0615237
0.0761087
0.108508
0.176145
0.235399
0.31156
0.47497
0.631193
0.7519
0.868725
0.992115
1.1151
1.2184
1.31869
1.34898
1.30909
1.20215
1.05202
0.89679
0.741113
0.622851
0.514966
0.409336
0.327263
0.268562
0.228354
0.20163
0.183891
0.17312
0.166997
0.163436
0.161316
0.160741
0.161717
0.162636
0.163955
0.165422
0.166509
0.166909
0.16621
0.163865
0.159904
0.156093
0.153804
0.152882
0.152719
0.152769
0.153235
0.154941
0.158312
0.160444
0.162961
0.165404
0.166773
0.16728
0.168151
0.169823
0.170658
0.170169
0.168315
0.165647
0.163101
0.159842
0.15409
0.149407
0.149291
0.155509
0.164036
0.166662
0.164447
0.160954
0.162177
0.170874
0.201841
0.225952
0.232483
0.240636
0.266229
0.286343
0.286297
0.283844
0.290424
0.320498
0.354314
0.421804
0.554035
0.609438
0.696248
0.717459
0.657308
0.523705
0.56421
0.926034
1.29427
1.54707
1.53173
1.16007
0.982154
0.905978
0.823741
0.763315
0.750936
0.76639
0.899405
1.11541
1.2525
1.26548
1.17765
1.06394
1.1201
1.47949
1.9076
1.76239
1.36198
1.3715
1.41494
1.49093
1.42817
1.33994
1.2661
1.25446
1.23147
1.18764
1.176
1.19305
1.26766
1.39943
1.54329
1.67327
1.81136
1.98616
2.26443
2.51562
2.57535
2.52486
2.49077
2.57734
2.87173
3.07062
3.13345
3.26405
3.47823
3.44512
3.44786
3.71964
5.11012
6.53093
6.68949
5.6743
5.6549
4.75982
4.12669
3.34763
4.08238
5.72731
4.8029
4.2188
3.74481
3.43829
3.01
2.92847
3.22583
4.4875
7.79734
8.1658
1.23308
0.594771
0.394122
0.307471
0.230811
0.175226
0.137182
0.110301
0.0885789
0.07152
0.0606003
0.0574333
0.0578145
0.0617939
0.0768115
0.116849
0.180342
0.304903
0.429432
0.506693
0.574179
0.651673
0.724713
0.798892
0.874887
0.959772
0.991823
0.990728
0.938887
0.822385
0.688918
0.585884
0.479519
0.386728
0.311713
0.25549
0.215522
0.1816
0.16022
0.148266
0.143208
0.141741
0.14168
0.143025
0.144818
0.146982
0.148838
0.151015
0.153952
0.156637
0.159643
0.162171
0.164081
0.165291
0.165481
0.164469
0.161644
0.157317
0.152927
0.149147
0.145795
0.144436
0.144077
0.144545
0.146607
0.149211
0.152212
0.154553
0.155756
0.15625
0.156967
0.15938
0.161998
0.162828
0.162535
0.159841
0.154429
0.151229
0.147768
0.141054
0.133843
0.130974
0.13123
0.131885
0.130848
0.130424
0.133914
0.151308
0.175041
0.185166
0.184266
0.184293
0.192356
0.211858
0.213479
0.2105
0.211983
0.222208
0.232549
0.254535
0.322887
0.350935
0.386561
0.459121
0.4598
0.425318
0.491106
0.971337
1.35197
1.48705
1.29035
0.858645
0.729776
0.659036
0.602712
0.574849
0.559865
0.56031
0.665023
0.929144
1.27688
1.498
1.2557
1.05376
1.14479
1.25746
1.75658
1.69354
1.33699
1.07455
1.11665
1.33013
1.3756
1.31925
1.20095
1.1877
1.17424
1.13934
1.10897
1.11204
1.15687
1.28573
1.40132
1.46553
1.54452
1.69791
1.86169
1.96861
2.02559
2.04446
2.07651
2.11902
2.39442
2.75043
2.87669
3.02591
3.16376
3.13938
3.09785
3.18439
4.34974
5.72532
6.06165
5.8087
6.26092
5.51686
4.11338
3.00628
3.15528
4.01204
4.71428
4.35953
3.49865
2.75748
2.49768
2.40615
2.47458
2.88615
4.84253
6.52107
1.79064
0.865945
0.566238
0.364264
0.243506
0.177779
0.137177
0.110127
0.0885664
0.0768373
0.071167
0.0706456
0.0768634
0.100106
0.167677
0.289575
0.385171
0.455488
0.494768
0.536673
0.587709
0.643512
0.698486
0.734952
0.745769
0.731905
0.666902
0.585398
0.522095
0.443548
0.356313
0.283061
0.232195
0.19487
0.168623
0.149492
0.13907
0.133593
0.131715
0.131279
0.131645
0.133516
0.134824
0.135613
0.135803
0.135781
0.135582
0.135709
0.136534
0.138839
0.14323
0.149369
0.154746
0.158578
0.160614
0.161227
0.1607
0.157743
0.153007
0.147613
0.141544
0.138277
0.137069
0.136926
0.137595
0.140149
0.144135
0.146806
0.147511
0.147216
0.145817
0.144584
0.145798
0.148971
0.150603
0.150884
0.1477
0.144658
0.14387
0.141349
0.13244
0.124275
0.120966
0.12031
0.119802
0.119724
0.123818
0.145767
0.167627
0.17267
0.169691
0.166364
0.168257
0.180576
0.184861
0.182539
0.179766
0.17783
0.18016
0.19583
0.2316
0.246179
0.269912
0.335074
0.353457
0.346403
0.438802
1.00571
1.34209
1.357
1.12004
0.742115
0.604591
0.534133
0.507871
0.488395
0.462974
0.456867
0.485065
0.600791
0.954705
1.4674
1.61531
1.2003
1.31417
1.19968
1.06741
1.11029
1.13562
0.847822
0.784463
0.88711
1.11702
1.09056
1.01389
0.994225
1.00865
1.01387
1.00537
1.01782
1.07723
1.23922
1.36256
1.41175
1.44271
1.55142
1.71945
1.76438
1.73872
1.83939
1.92074
1.94242
1.99604
2.467
2.7495
2.92578
2.99135
2.98606
2.99163
3.05454
4.00344
4.76605
5.24844
5.50464
5.8144
5.44195
4.00042
2.98919
2.90409
3.33556
4.61783
4.27394
3.0761
2.28036
2.22157
2.24118
2.24296
2.43771
3.12782
5.03811
2.46976
1.25397
0.694785
0.382616
0.236883
0.169972
0.133525
0.110651
0.0930837
0.0865066
0.0864833
0.0937973
0.124784
0.216232
0.296831
0.353975
0.416923
0.464244
0.489267
0.523116
0.549903
0.559789
0.561339
0.542435
0.500469
0.460095
0.407693
0.345348
0.294634
0.249234
0.198859
0.165647
0.14683
0.134455
0.127736
0.125383
0.12498
0.12563
0.126778
0.12771
0.128231
0.12802
0.125635
0.120819
0.114625
0.110128
0.108182
0.10701
0.106641
0.107593
0.110353
0.115105
0.121488
0.13128
0.140681
0.14537
0.145916
0.144769
0.142673
0.138879
0.135486
0.131424
0.127964
0.126249
0.126016
0.126651
0.129252
0.132989
0.136402
0.136879
0.136463
0.133724
0.130078
0.130009
0.133257
0.135876
0.135538
0.132249
0.131151
0.132538
0.131616
0.123611
0.117204
0.114918
0.114619
0.114899
0.11662
0.127941
0.142497
0.149726
0.154378
0.156994
0.159794
0.16372
0.165285
0.162346
0.156891
0.157126
0.161986
0.17887
0.195991
0.207868
0.240607
0.278341
0.283981
0.292559
0.414873
1.01255
1.29565
1.21586
1.01963
0.702919
0.534196
0.478186
0.460283
0.44524
0.415795
0.40798
0.406507
0.433682
0.527743
0.994073
1.63037
1.68438
1.52749
1.2706
0.75008
0.657541
0.744823
0.738921
0.660023
0.650022
0.801708
0.844062
0.817752
0.794802
0.829467
0.874403
0.908813
0.93982
0.985739
1.13154
1.32207
1.37646
1.38389
1.38031
1.4203
1.54923
1.59793
1.7508
1.84311
1.83406
1.82924
2.07858
2.62195
2.86443
2.88232
2.89627
2.93324
3.18233
3.48613
3.99812
4.73372
5.16842
5.01933
4.49003
3.78598
3.11068
2.86104
2.74829
3.45467
3.35082
2.5151
2.0526
2.05608
2.18892
2.19108
2.32377
2.57309
3.88406
3.25561
1.66489
0.741013
0.35118
0.194315
0.145299
0.12618
0.109754
0.0945463
0.0886827
0.0929509
0.122173
0.215919
0.291075
0.327483
0.359316
0.408334
0.442249
0.45408
0.456337
0.447614
0.428683
0.405931
0.374102
0.330728
0.288666
0.251654
0.216226
0.183023
0.159755
0.137819
0.12581
0.120405
0.118692
0.118587
0.120568
0.12264
0.123717
0.124125
0.123802
0.121785
0.117186
0.110971
0.105192
0.100838
0.098878
0.0980064
0.0977355
0.0986648
0.100122
0.101882
0.104163
0.107315
0.112188
0.119052
0.129185
0.135585
0.137636
0.137113
0.13597
0.134957
0.132348
0.128762
0.126514
0.125589
0.125699
0.126725
0.128529
0.132629
0.135084
0.134751
0.132429
0.126453
0.121832
0.119388
0.121433
0.126672
0.126337
0.120811
0.119188
0.120988
0.120762
0.115094
0.108833
0.105421
0.104533
0.104254
0.104478
0.108186
0.116373
0.128589
0.140434
0.147363
0.149405
0.148419
0.141161
0.142259
0.149584
0.158603
0.172927
0.184061
0.197618
0.236375
0.251233
0.251009
0.268114
0.417927
0.999747
1.2163
1.12458
0.953639
0.688466
0.498014
0.442868
0.423632
0.403771
0.379107
0.367718
0.367958
0.378676
0.404458
0.476015
1.04618
1.73851
1.18779
1.04609
0.669785
0.536166
0.538276
0.648757
0.641122
0.58026
0.593564
0.729731
0.701148
0.672036
0.713029
0.780864
0.848054
0.86889
0.92386
1.00969
1.18449
1.24363
1.22801
1.18048
1.1316
1.19296
1.44661
1.64852
1.70636
1.68693
1.67487
1.73469
2.33332
2.78785
2.81195
2.82401
2.89683
3.45507
3.30398
3.45644
4.05068
3.96008
3.65415
4.07213
3.87546
3.39121
2.88956
2.38727
2.37339
2.55244
2.22835
1.93694
1.96837
2.17542
2.18095
2.31071
2.43701
3.17937
4.11385
1.91352
0.690958
0.256379
0.155705
0.133309
0.122241
0.10726
0.0938399
0.0906765
0.104056
0.17133
0.269552
0.311235
0.334004
0.356653
0.36925
0.372696
0.371315
0.359974
0.34088
0.319762
0.291466
0.259757
0.225532
0.193019
0.169732
0.1525
0.135017
0.124691
0.1168
0.113925
0.113373
0.114636
0.117607
0.120584
0.122542
0.123305
0.123433
0.121949
0.117941
0.111763
0.103672
0.0974715
0.0946821
0.0934925
0.0932676
0.0949621
0.0974753
0.0997605
0.101797
0.103595
0.105634
0.108827
0.112268
0.118312
0.128871
0.135109
0.135807
0.135222
0.135361
0.136527
0.138342
0.137339
0.13454
0.132263
0.130244
0.129009
0.13024
0.134523
0.135752
0.134231
0.129089
0.122574
0.116953
0.113967
0.114003
0.115127
0.114231
0.110549
0.110414
0.110848
0.109991
0.103997
0.0978115
0.0939521
0.0926401
0.0928137
0.095077
0.103233
0.115819
0.121802
0.123186
0.123911
0.125189
0.127962
0.137588
0.152005
0.160178
0.170624
0.179921
0.199458
0.232006
0.233667
0.235637
0.26198
0.471922
1.00945
1.1109
1.02246
0.882371
0.676197
0.482762
0.424782
0.40506
0.377221
0.36046
0.344034
0.345776
0.357359
0.361088
0.359061
0.545218
0.967566
0.52348
0.518558
0.519161
0.47245
0.460849
0.555629
0.595408
0.544677
0.511845
0.594986
0.659726
0.634749
0.641696
0.714163
0.750061
0.753694
0.785433
0.87107
0.98294
1.05741
1.05762
1.03219
1.00572
1.0113
1.29051
1.55096
1.56159
1.56012
1.55651
1.57128
1.90159
2.60889
2.74115
2.76427
2.86692
3.37713
3.23406
3.36491
3.31086
3.38786
3.30621
4.02721
4.0869
3.47597
2.88012
2.23846
2.03324
2.27505
2.07661
1.87653
1.91882
2.17696
2.16498
2.30776
2.40907
2.90566
4.9596
1.97684
0.524243
0.194518
0.142321
0.130691
0.12176
0.107112
0.0975561
0.100228
0.136592
0.233488
0.283645
0.3076
0.326437
0.335071
0.332875
0.31944
0.301445
0.284338
0.261807
0.238274
0.213485
0.188215
0.161868
0.142085
0.130095
0.122801
0.115499
0.111751
0.110275
0.110063
0.111742
0.114739
0.118984
0.122126
0.123301
0.123555
0.122572
0.118342
0.10756
0.0970921
0.0918443
0.089574
0.0888877
0.0892373
0.0910214
0.0944709
0.0985558
0.104226
0.107752
0.110176
0.111738
0.1123
0.113175
0.114726
0.11952
0.129542
0.135725
0.136396
0.136101
0.137515
0.143139
0.151108
0.154691
0.153545
0.147483
0.138515
0.13102
0.128812
0.131442
0.132481
0.131005
0.126528
0.121171
0.114567
0.11154
0.110559
0.108141
0.106096
0.105564
0.1048
0.101897
0.0951943
0.0911193
0.0888081
0.0878179
0.0877963
0.0895445
0.0971077
0.10219
0.103139
0.106965
0.113022
0.117171
0.123509
0.140944
0.162412
0.168373
0.172187
0.181366
0.214743
0.230022
0.224757
0.229659
0.2766
0.594343
1.00494
1.05227
0.954371
0.838364
0.650547
0.466122
0.405488
0.379249
0.34757
0.327792
0.320998
0.321114
0.340655
0.337165
0.323223
0.397728
0.459432
0.387995
0.424736
0.410322
0.376095
0.413254
0.483928
0.512622
0.483056
0.476921
0.552106
0.661398
0.636536
0.619832
0.661623
0.694759
0.700544
0.698363
0.760211
0.816445
0.86786
0.881343
0.901905
0.9226
0.917301
1.00398
1.28334
1.3332
1.38777
1.40424
1.42453
1.59395
2.34016
2.59099
2.63669
2.78127
3.02048
3.34129
3.70193
3.19319
3.35078
3.16028
4.00087
3.79302
3.2515
2.70088
2.07327
1.82572
2.06719
2.01347
1.86289
1.87801
2.16994
2.14697
2.24919
2.38565
2.8175
5.74215
1.96442
0.436643
0.172533
0.140564
0.134425
0.128683
0.119229
0.117808
0.133897
0.194035
0.254712
0.279003
0.285312
0.286174
0.284486
0.281307
0.265648
0.240286
0.220499
0.19927
0.177659
0.161547
0.145763
0.128809
0.119311
0.114109
0.111353
0.109226
0.108475
0.108425
0.109506
0.112187
0.117479
0.121903
0.1237
0.124257
0.123719
0.120109
0.107804
0.0947947
0.0894488
0.0876794
0.0873575
0.0875975
0.0886659
0.0914727
0.0958199
0.100835
0.106671
0.109105
0.110884
0.112755
0.114115
0.116915
0.11868
0.118779
0.123539
0.132375
0.138039
0.139414
0.14
0.143586
0.153251
0.160359
0.162858
0.161887
0.156373
0.139801
0.126455
0.120486
0.121262
0.122969
0.122625
0.120866
0.115394
0.110903
0.108682
0.105732
0.102464
0.101188
0.100393
0.0978068
0.0917459
0.0877872
0.0853041
0.0842679
0.0844827
0.0858687
0.0896994
0.0911237
0.0947463
0.102149
0.109559
0.114509
0.121779
0.142374
0.165364
0.173255
0.17952
0.2028
0.237933
0.235332
0.222223
0.230446
0.328892
0.72299
0.982083
1.00527
0.902248
0.787977
0.614225
0.439096
0.376116
0.34835
0.317676
0.30617
0.30528
0.303501
0.309433
0.300686
0.306758
0.316758
0.345807
0.335421
0.359303
0.369374
0.357654
0.399624
0.441049
0.476549
0.463958
0.471799
0.55244
0.689098
0.661061
0.608202
0.617853
0.644382
0.667606
0.663715
0.679084
0.720322
0.748636
0.753227
0.76075
0.818711
0.813574
0.816183
0.931401
1.11462
1.24142
1.27362
1.28625
1.3636
1.99156
2.40074
2.45882
2.51691
2.8196
3.31594
4.04505
3.19323
3.36731
3.11159
3.08199
2.60965
2.60263
2.47707
1.90032
1.67076
2.00928
2.0028
1.86625
1.84355
2.12803
2.14142
2.12434
2.30126
2.77013
6.48144
1.93762
0.384189
0.165803
0.146438
0.148881
0.148549
0.145026
0.147289
0.167332
0.212514
0.250383
0.260762
0.259714
0.25425
0.240689
0.229128
0.215889
0.191148
0.171377
0.155456
0.139085
0.129238
0.121097
0.112713
0.109379
0.108169
0.107761
0.107679
0.107832
0.108357
0.10997
0.114274
0.120308
0.12321
0.124377
0.124524
0.122328
0.113402
0.0987907
0.091508
0.08853
0.0877687
0.0879391
0.0886897
0.0907149
0.0956452
0.102046
0.10643
0.108766
0.108538
0.106728
0.104549
0.10498
0.111648
0.121611
0.127155
0.125594
0.127967
0.13416
0.141989
0.147349
0.151002
0.154206
0.159306
0.162278
0.162459
0.158871
0.144309
0.128135
0.11483
0.107637
0.106709
0.108586
0.109711
0.109331
0.10621
0.104003
0.101606
0.0977927
0.0959284
0.0952319
0.0935394
0.0892968
0.0856604
0.0830372
0.081984
0.0819777
0.0821335
0.0834696
0.0866934
0.0921826
0.100998
0.106993
0.111131
0.120018
0.143692
0.16679
0.177662
0.194719
0.232798
0.244849
0.235795
0.222146
0.243424
0.456091
0.843624
0.95028
0.937332
0.811286
0.703146
0.559175
0.411315
0.350782
0.326859
0.306737
0.301275
0.298328
0.296613
0.299619
0.287981
0.291352
0.282323
0.299816
0.312303
0.31503
0.333562
0.351656
0.397034
0.42466
0.45204
0.455054
0.479317
0.567939
0.689425
0.668919
0.589558
0.570914
0.567909
0.60684
0.62377
0.618306
0.646422
0.681232
0.682165
0.677303
0.742652
0.747497
0.736353
0.768674
0.986243
1.13315
1.15801
1.16743
1.2078
1.61656
2.21776
2.30326
2.25941
2.31362
2.82093
2.81786
2.86018
3.37993
3.13771
2.45181
2.15785
2.46108
2.26971
1.75944
1.64529
2.02094
2.03288
1.88064
1.81021
2.03202
2.13338
2.08276
2.23197
2.65018
7.26191
1.94131
0.361311
0.163843
0.150754
0.156787
0.158806
0.157038
0.159553
0.179118
0.212113
0.230792
0.234525
0.237532
0.235974
0.222936
0.20414
0.188153
0.166713
0.147667
0.132943
0.120735
0.11519
0.11122
0.108277
0.107678
0.107838
0.107827
0.108055
0.108654
0.109551
0.111934
0.115813
0.120745
0.122973
0.123574
0.122908
0.119135
0.10971
0.0981665
0.0926058
0.0912194
0.0917955
0.0932757
0.0958648
0.100577
0.108419
0.114356
0.116121
0.114742
0.112907
0.108572
0.104033
0.10243
0.103629
0.113604
0.13261
0.139019
0.135257
0.131567
0.1358
0.146712
0.153958
0.156564
0.15768
0.156654
0.155139
0.151726
0.140858
0.12593
0.113194
0.103206
0.0993026
0.0987858
0.0972551
0.0957887
0.0931501
0.0919018
0.0917043
0.0890778
0.0869819
0.0868998
0.0871856
0.0861807
0.0831964
0.080572
0.0796227
0.0792748
0.0796878
0.0809064
0.0856855
0.0914772
0.0999058
0.102611
0.108505
0.121673
0.153142
0.177067
0.19146
0.218918
0.240112
0.24367
0.230552
0.224495
0.27144
0.613894
0.892824
0.915398
0.848951
0.696509
0.612169
0.514175
0.389897
0.334806
0.317451
0.305614
0.300008
0.297031
0.294181
0.296235
0.281003
0.264467
0.267757
0.279458
0.291591
0.292431
0.321442
0.350875
0.389865
0.413627
0.434332
0.448344
0.477559
0.545276
0.622458
0.61708
0.570862
0.555511
0.53588
0.56265
0.581279
0.56439
0.572999
0.623783
0.641871
0.638126
0.690979
0.692161
0.678329
0.706284
0.874697
1.02465
1.04585
1.05735
1.10469
1.3555
1.99612
2.12208
2.07356
1.94723
2.29699
2.14937
2.55779
3.40301
2.90579
2.18146
2.00311
2.32586
1.91946
1.60931
1.65983
2.11307
2.08845
1.87417
1.73248
1.9011
2.10612
2.06007
2.15266
2.39404
8.11607
2.00567
0.357485
0.16435
0.152888
0.158722
0.160623
0.159166
0.161787
0.179933
0.19467
0.198404
0.207547
0.216432
0.216724
0.20567
0.185471
0.164041
0.145376
0.132001
0.121716
0.113559
0.110089
0.10859
0.10755
0.107879
0.10976
0.110381
0.111274
0.112174
0.112784
0.113684
0.115468
0.119784
0.122003
0.122286
0.121598
0.118842
0.110403
0.101573
0.10006
0.102306
0.106851
0.113677
0.119597
0.125899
0.129402
0.129718
0.128541
0.121974
0.115832
0.114897
0.113473
0.1088
0.104863
0.106289
0.125229
0.144329
0.14653
0.138578
0.130141
0.13247
0.142809
0.149366
0.150132
0.149383
0.145836
0.13758
0.128045
0.117126
0.107394
0.0988476
0.0953112
0.0947619
0.0936466
0.0915549
0.0873355
0.0823755
0.0794837
0.0769079
0.0756231
0.0756338
0.0772809
0.0793385
0.079384
0.0783786
0.0775585
0.0767952
0.0771765
0.0790957
0.0855877
0.0906738
0.0969131
0.100717
0.108633
0.13305
0.174563
0.202918
0.218563
0.230277
0.238117
0.234566
0.223533
0.228723
0.317531
0.714439
0.90757
0.894676
0.747689
0.593492
0.536539
0.471473
0.367744
0.318602
0.307415
0.309024
0.300898
0.299062
0.292512
0.288209
0.262653
0.249661
0.255531
0.265907
0.273677
0.281471
0.31804
0.355989
0.385051
0.402455
0.424066
0.431339
0.439384
0.460751
0.478816
0.54555
0.56908
0.556276
0.533578
0.565358
0.578477
0.558501
0.560309
0.57391
0.608334
0.629498
0.66239
0.669418
0.670112
0.698214
0.800103
0.915789
0.93788
0.981745
1.05449
1.23989
1.61331
1.90336
1.88271
1.80986
1.94198
1.89729
2.18675
3.18726
2.51771
1.92077
1.88303
2.03486
1.78755
1.59464
1.70403
2.15224
2.0865
1.81066
1.59585
1.75357
2.06852
2.0488
2.10997
2.23742
9.08768
2.1571
0.371175
0.165416
0.153266
0.15776
0.159161
0.158065
0.160617
0.17374
0.178259
0.178803
0.183031
0.194741
0.198418
0.191421
0.173565
0.152067
0.131676
0.117825
0.109592
0.104972
0.103382
0.103317
0.10485
0.106786
0.110352
0.114771
0.114875
0.115031
0.115102
0.115225
0.11572
0.117367
0.120248
0.121243
0.121112
0.120212
0.116055
0.114308
0.11565
0.119504
0.123064
0.128107
0.13247
0.136333
0.138159
0.138101
0.137261
0.134463
0.126521
0.119509
0.118254
0.117533
0.111329
0.106587
0.111498
0.138942
0.146383
0.140261
0.125067
0.120229
0.121592
0.12714
0.129679
0.12962
0.127349
0.118488
0.111994
0.105526
0.100752
0.0968869
0.0934265
0.0920305
0.0907769
0.0886508
0.0852382
0.0795085
0.0754777
0.0731113
0.0721564
0.072121
0.0725006
0.0731193
0.0735432
0.0747578
0.0749517
0.0749691
0.0755539
0.0785022
0.0857644
0.0894936
0.095176
0.0997502
0.112552
0.152082
0.19511
0.22108
0.231197
0.235204
0.232983
0.227799
0.223241
0.239632
0.398211
0.779849
0.894118
0.852828
0.648461
0.513823
0.469869
0.412621
0.342012
0.304319
0.302933
0.310225
0.29644
0.287218
0.281536
0.270747
0.246832
0.243679
0.249994
0.253121
0.264657
0.280009
0.32451
0.351936
0.374246
0.382166
0.39534
0.399929
0.404302
0.419895
0.433165
0.528455
0.573988
0.553164
0.547435
0.59063
0.582785
0.565462
0.563102
0.561696
0.598658
0.632898
0.650397
0.65298
0.67172
0.710915
0.783068
0.83847
0.863843
0.961792
1.04349
1.22358
1.27259
1.77335
1.70489
1.74406
1.83322
1.7354
2.02356
2.78201
2.02145
1.79087
1.79069
1.6864
1.63982
1.57904
1.78448
2.13189
2.08738
1.70868
1.51147
1.65343
2.03056
2.0417
2.08913
2.18842
10.3577
2.51768
0.441774
0.170057
0.149687
0.151826
0.154052
0.153515
0.151408
0.155792
0.163149
0.169448
0.1714
0.178595
0.181922
0.179058
0.168781
0.15106
0.129546
0.114054
0.104713
0.100063
0.0985521
0.0986123
0.100051
0.103432
0.109042
0.114653
0.119779
0.119755
0.119066
0.118003
0.117293
0.117528
0.118809
0.120048
0.121324
0.121933
0.121844
0.122305
0.123692
0.126257
0.127831
0.130533
0.13301
0.136225
0.136962
0.135916
0.134732
0.134606
0.131144
0.121165
0.117371
0.116992
0.11271
0.105576
0.104089
0.121452
0.140776
0.138619
0.120774
0.111739
0.111289