/*--------------------------------*- C++ -*----------------------------------*\
| =========                 |                                                 |
| \\      /  F ield         | OpenFOAM: The Open Source CFD Toolbox           |
|  \\    /   O peration     | Version:  dev                                   |
|   \\  /    A nd           | Web:      http://www.openfoam.org               |
|    \\/     M anipulation  |                                                 |
\*---------------------------------------------------------------------------*/
FoamFile
{
    version     2.0;
    format      ascii;
    class       volScalarField;
    object      muSgs;
    location    "9.159";
}
// * * * * * * * * * * * * * * * * * * * * * * * * * * * * * * * * * * * * * //

dimensions      [1 -1 -1 0 0 0 0];

internalField   nonuniform List<scalar> 
12225
(
0.00021837
0.000210325
0.000153284
0.000142865
0.000129403
0.000137761
0.000149554
0.000151601
0.000175468
0.000167911
0.000198263
0.000178053
0.000210824
0.000179378
0.000202021
0.000210086
0.000251899
0.000245386
0.000108158
0.000192557
0.000174051
0.000185928
0.000153613
0.000173016
0.000144783
0.000165094
0.000147728
0.000162385
0.000154282
0.000160357
0.000161455
0.000148776
0.000166524
0.000161814
0.000247479
0.000242226
3.51243e-05
0.00011701
0.000123419
0.000148217
0.000133897
0.000146543
0.000130088
0.000140032
0.000127694
0.000129575
0.00012639
0.000112599
0.000123031
9.80328e-05
0.000121598
0.000126575
0.000233046
0.000254742
9.74694e-06
5.16386e-05
6.82243e-05
7.97427e-05
9.05791e-05
9.06211e-05
9.95765e-05
9.3646e-05
0.000105287
8.95598e-05
0.000105065
7.93257e-05
9.51079e-05
7.16435e-05
9.33726e-05
0.000103068
0.000227787
0.000277355
3.99574e-06
2.02367e-05
3.43278e-05
4.19329e-05
5.47659e-05
5.58833e-05
6.52993e-05
6.28715e-05
7.09643e-05
6.2993e-05
7.30846e-05
5.7609e-05
7.0732e-05
5.44698e-05
7.52361e-05
8.67695e-05
0.000211592
0.000298813
8.33356e-06
1.26659e-05
2.00031e-05
2.2949e-05
3.10888e-05
3.08053e-05
3.79654e-05
3.6179e-05
4.34576e-05
3.82953e-05
4.71308e-05
3.73398e-05
4.85923e-05
3.73256e-05
5.68107e-05
6.40993e-05
0.000148159
0.000237186
6.33227e-06
6.3283e-06
1.042e-05
1.05342e-05
1.58257e-05
1.50127e-05
2.08466e-05
1.88809e-05
2.52228e-05
2.14864e-05
2.91104e-05
2.34735e-05
3.19374e-05
2.55574e-05
3.85428e-05
4.21731e-05
9.05268e-05
0.000118924
2.42379e-06
2.61986e-06
4.74338e-06
4.50536e-06
7.07878e-06
6.61573e-06
9.89672e-06
8.85859e-06
1.23888e-05
1.0604e-05
1.50655e-05
1.25461e-05
1.74598e-05
1.48405e-05
2.1787e-05
2.40411e-05
4.53632e-05
4.73513e-05
1.73794e-06
1.9291e-06
2.97854e-06
2.98941e-06
4.27871e-06
4.27283e-06
6.1556e-06
5.83488e-06
7.74626e-06
7.16091e-06
9.69343e-06
8.84435e-06
1.17644e-05
1.10819e-05
1.50528e-05
1.67477e-05
2.82197e-05
2.71077e-05
1.99374e-06
2.19403e-06
2.46129e-06
2.78418e-06
3.27516e-06
3.5564e-06
4.45913e-06
4.59661e-06
5.44965e-06
5.60533e-06
6.74747e-06
7.01365e-06
8.36275e-06
8.97461e-06
1.07396e-05
1.20007e-05
1.76351e-05
1.72385e-05
2.77881e-06
2.87823e-06
2.90733e-06
3.14203e-06
3.16676e-06
3.48154e-06
3.85071e-06
4.41426e-06
4.66105e-06
5.39473e-06
5.86191e-06
6.85499e-06
7.46522e-06
8.63029e-06
9.44757e-06
1.0445e-05
1.27697e-05
1.30952e-05
4.14379e-06
3.90578e-06
3.6554e-06
3.80946e-06
3.6546e-06
3.81114e-06
3.97653e-06
4.58152e-06
4.85186e-06
5.80627e-06
6.24465e-06
7.47028e-06
8.02733e-06
9.25251e-06
1.0021e-05
1.09961e-05
1.2085e-05
1.26809e-05
5.26002e-06
4.94373e-06
4.45079e-06
4.34284e-06
4.04056e-06
4.11673e-06
4.23742e-06
4.9626e-06
5.48575e-06
6.71308e-06
7.45521e-06
8.98933e-06
9.78247e-06
1.10177e-05
1.1809e-05
1.27134e-05
1.33782e-05
1.39172e-05
7.38229e-06
6.48524e-06
5.59955e-06
5.07107e-06
4.59188e-06
4.53066e-06
4.63787e-06
5.30135e-06
6.31142e-06
8.15852e-06
1.05409e-05
1.27429e-05
1.44509e-05
1.57948e-05
1.6652e-05
1.72273e-05
1.74367e-05
1.75271e-05
9.46502e-06
8.1264e-06
6.96072e-06
5.92741e-06
5.36674e-06
5.23139e-06
5.41663e-06
6.26939e-06
8.05572e-06
1.12743e-05
1.49496e-05
1.79926e-05
2.03532e-05
2.19567e-05
2.31109e-05
2.37887e-05
2.40458e-05
2.40353e-05
1.2955e-05
1.07792e-05
8.77407e-06
7.06455e-06
6.39397e-06
6.31426e-06
6.84596e-06
8.55781e-06
1.21368e-05
1.7757e-05
2.2044e-05
2.51255e-05
2.73356e-05
2.87554e-05
2.96419e-05
3.00379e-05
3.00405e-05
2.9867e-05
1.55808e-05
1.28334e-05
1.05082e-05
8.40604e-06
7.47475e-06
7.27574e-06
7.76185e-06
9.71167e-06
1.39936e-05
2.07038e-05
2.56799e-05
2.91412e-05
3.15259e-05
3.30201e-05
3.38828e-05
3.41741e-05
3.40916e-05
3.38045e-05
1.58122e-05
1.30569e-05
1.05501e-05
8.28175e-06
7.25418e-06
7.0282e-06
7.50343e-06
9.337e-06
1.32024e-05
1.98202e-05
2.52617e-05
2.90066e-05
3.15374e-05
3.31396e-05
3.40437e-05
3.43652e-05
3.42808e-05
3.39999e-05
1.35274e-05
1.1598e-05
9.39211e-06
7.33211e-06
6.38234e-06
6.18049e-06
6.47064e-06
7.76008e-06
1.05645e-05
1.61074e-05
2.17637e-05
2.55287e-05
2.80306e-05
2.96485e-05
3.05572e-05
3.09621e-05
3.0916e-05
3.07384e-05
1.05687e-05
8.9822e-06
7.48344e-06
6.07388e-06
5.37152e-06
5.22626e-06
5.44624e-06
6.5187e-06
9.00753e-06
1.33516e-05
1.7032e-05
1.98588e-05
2.19525e-05
2.34251e-05
2.43196e-05
2.48721e-05
2.49631e-05
2.49977e-05
7.94089e-06
7.01032e-06
5.97083e-06
4.96402e-06
4.49473e-06
4.38418e-06
4.54758e-06
5.27218e-06
6.84196e-06
9.68143e-06
1.23584e-05
1.44805e-05
1.6059e-05
1.72128e-05
1.78942e-05
1.83393e-05
1.84762e-05
1.85324e-05
5.7946e-06
5.16632e-06
4.66983e-06
4.05789e-06
3.74107e-06
3.64764e-06
3.69802e-06
4.08342e-06
4.99153e-06
6.82346e-06
9.09223e-06
1.0804e-05
1.19721e-05
1.28285e-05
1.32582e-05
1.34437e-05
1.33556e-05
1.32526e-05
4.14246e-06
4.00227e-06
3.82542e-06
3.59938e-06
3.41416e-06
3.35042e-06
3.38787e-06
3.62722e-06
4.21562e-06
5.50193e-06
6.94978e-06
8.20142e-06
9.0663e-06
9.59753e-06
9.81376e-06
9.98929e-06
1.00699e-05
1.02541e-05
2.80863e-06
2.80166e-06
2.89637e-06
3.08681e-06
3.29891e-06
3.71447e-06
4.26397e-06
4.67576e-06
5.08689e-06
5.94869e-06
6.98915e-06
8.00267e-06
8.90129e-06
9.376e-06
9.64299e-06
9.85029e-06
1.00672e-05
1.03651e-05
1.70109e-06
2.10134e-06
2.96025e-06
4.28332e-06
5.83435e-06
8.01265e-06
9.67068e-06
1.07545e-05
1.13482e-05
1.21137e-05
1.31241e-05
1.42471e-05
1.54288e-05
1.60883e-05
1.6568e-05
1.69394e-05
1.72315e-05
1.74834e-05
1.2374e-06
3.73485e-06
8.04244e-06
1.2798e-05
1.80939e-05
2.31908e-05
2.66246e-05
2.86612e-05
2.98217e-05
3.07598e-05
3.17642e-05
3.28648e-05
3.38485e-05
3.43082e-05
3.43848e-05
3.43707e-05
3.40316e-05
3.37197e-05
3.06716e-06
1.54872e-05
3.06594e-05
4.2421e-05
5.25683e-05
5.96072e-05
6.41716e-05
6.62893e-05
6.67987e-05
6.65511e-05
6.60422e-05
6.56179e-05
6.51586e-05
6.43317e-05
6.32059e-05
6.192e-05
6.03636e-05
5.87599e-05
1.65861e-05
5.97338e-05
9.74384e-05
0.000112294
0.000120498
0.000123264
0.000123684
0.000122056
0.000119495
0.00011658
0.00011345
0.000110075
0.000106734
0.000103162
9.95413e-05
9.6075e-05
9.22351e-05
8.86542e-05
8.017e-05
0.000176357
0.000201791
0.000201353
0.000194634
0.000186196
0.00017758
0.000169674
0.000162763
0.000156092
0.000149969
0.000143906
0.000138287
0.00013259
0.000127218
0.000121843
0.000116717
0.00010974
0.000237406
0.00026785
0.000237833
0.000202801
0.000181628
0.000172159
0.000168736
0.000168192
0.000169335
0.000170518
0.000171317
0.000171443
0.000170959
0.000169829
0.000168097
0.000165325
0.000161467
0.000152258
2.00458e-05
2.0747e-05
2.07987e-05
2.12682e-05
2.2248e-05
2.40182e-05
2.61454e-05
2.87008e-05
3.17639e-05
3.52712e-05
3.91174e-05
4.32737e-05
4.76463e-05
5.21903e-05
5.67828e-05
6.15228e-05
6.64218e-05
7.09225e-05
7.55484e-05
8.00581e-05
8.42779e-05
8.89168e-05
9.44185e-05
0.000100672
0.00010656
0.000110718
0.000112984
0.000114192
0.000115529
0.000118375
0.000122531
0.00012687
0.000130748
0.000136791
0.000147234
0.000160516
0.000174252
0.000186666
0.000197443
0.000206716
0.000214519
0.00022092
0.000226215
0.000230571
0.000233985
0.000236602
0.000238275
0.000239274
0.000239625
0.000239345
0.000238808
0.000238261
0.000237306
0.000236184
0.000235238
0.000234388
0.000233486
0.00023239
0.000231303
0.000230192
0.000229395
0.000228664
0.000228012
0.000227487
0.000226794
0.000226226
0.000225549
0.000225428
0.000225412
0.000225253
0.000225529
0.000225866
0.000226729
0.00022755
0.00022855
0.000229598
0.000230742
0.000232006
0.000233709
0.000236085
0.000239106
0.000241712
0.000243107
0.000243129
0.00024348
0.000245547
0.000249472
0.000254102
0.000256067
0.000256186
0.000255432
0.000255424
0.000254792
0.000252916
0.000251417
0.000251161
0.000251645
0.000251536
0.000249263
0.000242888
0.000235665
0.00023029
0.000225136
0.000216713
0.000208186
0.000203596
0.000203758
0.000206529
0.000211117
0.00021052
0.000206874
0.000200707
0.000204002
0.000216928
0.000225245
0.000231235
0.000229624
0.000211172
0.000191117
0.000174882
0.000168601
0.000169913
0.000200979
0.000217163
0.000214752
0.00018588
0.000190972
0.000204401
0.000205478
0.000198745
0.000203407
0.000213993
0.000224888
0.000243199
0.000264604
0.00029133
0.000322601
0.000361208
0.000403306
0.000440099
0.000464122
0.000477033
0.000483122
0.000487528
0.000492117
0.000498737
0.000509183
0.000520638
0.000529949
0.000540938
0.000557398
0.0005823
0.000619208
0.000649959
0.000666327
0.000674375
0.000673063
0.000664798
0.000662168
0.000629187
0.000579519
0.000567879
0.000581903
0.000670635
0.000698194
0.000631715
0.000544875
0.00047774
0.000460729
0.000460994
0.000455678
0.000476677
0.000512825
0.000566511
0.000646487
0.000719766
0.000718834
0.000648491
0.00058687
0.000568369
3.66223e-05
3.19787e-05
2.78154e-05
2.5389e-05
2.39165e-05
2.31538e-05
2.27385e-05
2.25926e-05
2.26341e-05
2.27406e-05
2.30678e-05
2.37731e-05
2.48765e-05
2.61842e-05
2.76627e-05
2.9306e-05
3.1332e-05
3.29042e-05
3.44014e-05
3.62953e-05
3.86396e-05
4.21006e-05
4.64281e-05
4.97785e-05
5.27111e-05
5.73055e-05
6.16528e-05
6.61758e-05
7.31647e-05
9.05444e-05
0.000111428
0.000126131
0.000135827
0.0001437
0.000152615
0.000160524
0.000164356
0.000165761
0.000164751
0.000161728
0.000157309
0.000152246
0.000147155
0.000142071
0.000136809
0.000131449
0.000126271
0.000121407
0.000117228
0.000113017
0.000110137
0.000108182
0.000106316
0.00010462
0.000103413
0.000102012
0.000100855
9.92315e-05
9.82155e-05
9.77023e-05
9.75888e-05
9.68726e-05
9.61404e-05
9.58035e-05
9.51212e-05
9.44323e-05
9.37487e-05
9.37059e-05
9.35437e-05
9.29818e-05
9.29414e-05
9.29042e-05
9.34273e-05
9.39372e-05
9.45954e-05
9.5352e-05
9.62397e-05
9.70467e-05
9.80765e-05
9.99294e-05
0.000105002
0.000110491
0.000112985
0.000113493
0.000111902
0.000111518
0.000113791
0.000121849
0.000130434
0.000134516
0.000136595
0.000139875
0.000143818
0.000145259
0.00014456
0.000144917
0.000147156
0.000155615
0.000164951
0.000170119
0.000170935
0.000165644
0.000162513
0.000157455
0.000139711
0.000128782
0.000127748
0.000134505
0.000147061
0.000164443
0.000180379
0.000193119
0.000195774
0.000191049
0.000185741
0.000177988
0.000158279
0.000146582
0.000144151
0.000146574
0.000148903
0.000160445
0.000174682
0.000177214
0.000167885
0.000166174
0.000174543
0.000180322
0.0001823
0.000192215
0.000189366
0.000189632
0.000187677
0.00018524
0.000186597
0.000188529
0.000195158
0.000205869
0.000225375
0.000249565
0.000274905
0.000296828
0.000312221
0.000322841
0.000335623
0.000349846
0.000359759
0.000366091
0.000371903
0.000377838
0.000385965
0.000398911
0.000418431
0.000436453
0.000446338
0.000449452
0.000449505
0.000458517
0.000476563
0.000472805
0.000475518
0.000494935
0.000559966
0.000586184
0.000485696
0.0004434
0.000434668
0.000462183
0.000511274
0.000492916
0.000465549
0.000476469
0.000458076
0.000455118
0.000480181
0.000538327
0.00069472
0.000714902
0.000647068
0.000593076
5.40667e-05
4.19839e-05
3.55023e-05
3.22106e-05
2.96134e-05
2.78313e-05
2.60618e-05
2.41389e-05
2.24819e-05
2.1328e-05
2.04984e-05
2.01267e-05
2.01888e-05
2.03668e-05
2.07079e-05
2.13619e-05
2.23483e-05
2.42956e-05
2.77548e-05
3.06021e-05
3.37594e-05
4.05827e-05
4.76466e-05
5.17923e-05
5.66858e-05
6.9071e-05
8.73057e-05
9.83067e-05
0.000105509
0.000111977
0.000118813
0.000123507
0.00012489
0.000124214
0.000118878
0.000113807
0.000107889
0.000100666
9.33519e-05
8.59246e-05
7.85658e-05
7.24255e-05
6.70959e-05
6.24096e-05
5.81247e-05
5.50216e-05
5.24444e-05
5.01905e-05
4.89521e-05
4.78788e-05
4.73006e-05
4.70121e-05
4.68094e-05
4.67611e-05
4.66945e-05
4.63906e-05
4.60195e-05
4.58968e-05
4.60479e-05
4.63296e-05
4.6774e-05
4.71794e-05
4.75088e-05
4.79278e-05
4.84711e-05
4.8833e-05
4.91823e-05
4.96273e-05
5.00057e-05
5.02544e-05
5.05e-05
5.07093e-05
5.09424e-05
5.11222e-05
5.12973e-05
5.16098e-05
5.19212e-05
5.20448e-05
5.20989e-05
5.2602e-05
5.48975e-05
5.91903e-05
6.18766e-05
6.25824e-05
6.16564e-05
6.03324e-05
6.07169e-05
6.3307e-05
7.12618e-05
7.69336e-05
7.85971e-05
8.11952e-05
8.6834e-05
8.94913e-05
8.88401e-05
8.86001e-05
9.00966e-05
9.56216e-05
0.000104377
0.000119639
0.000131493
0.000134906
0.000135062
0.000132118
0.000117569
0.000104427
0.000105447
0.000122946
0.000143184
0.000167379
0.000179314
0.000178772
0.000163841
0.000154885
0.000150515
0.00013856
0.00012957
0.000129318
0.000137669
0.000148659
0.000151474
0.000153384
0.000154361
0.00015133
0.000150443
0.00016964
0.000189271
0.000176691
0.000157554
0.000175853
0.000180255
0.000181789
0.000179618
0.000173011
0.000168215
0.000164449
0.000162185
0.000162502
0.000168566
0.000180509
0.000197617
0.000214901
0.000229914
0.000242234
0.000252761
0.000268267
0.000288188
0.000300633
0.000304593
0.000304118
0.000306081
0.000316966
0.000340728
0.000362052
0.000373733
0.000380392
0.000394561
0.000399667
0.000408233
0.000416571
0.000446475
0.000485767
0.000486007
0.000445933
0.000413445
0.000406748
0.000399887
0.000431467
0.000494272
0.000482871
0.00045029
0.000441823
0.000404944
0.000373094
0.000344718
0.000342119
0.000407243
0.000539239
0.000582925
0.000567967
7.12926e-05
5.15877e-05
4.3037e-05
3.93794e-05
3.67572e-05
3.34175e-05
3.03017e-05
2.74355e-05
2.44956e-05
2.20341e-05
2.05386e-05
1.99486e-05
2.00045e-05
2.021e-05
2.08363e-05
2.25152e-05
2.52834e-05
3.02456e-05
3.84033e-05
4.4012e-05
5.04006e-05
6.16847e-05
7.06953e-05
7.72851e-05
8.31889e-05
8.89123e-05
9.41584e-05
9.82997e-05
0.000101805
0.00010262
0.000100966
9.66085e-05
9.03522e-05
8.36427e-05
7.64649e-05
7.0606e-05
6.44572e-05
5.77143e-05
5.19933e-05
4.74365e-05
4.40612e-05
4.16727e-05
4.00468e-05
3.91044e-05
3.8681e-05
3.85072e-05
3.85055e-05
3.86992e-05
3.90354e-05
3.93786e-05
3.97678e-05
4.01683e-05
4.0534e-05
4.07979e-05
4.09322e-05
4.08814e-05
4.06091e-05
4.03524e-05
4.02918e-05
4.04013e-05
4.06018e-05
4.08353e-05
4.1145e-05
4.16213e-05
4.23234e-05
4.28625e-05
4.34629e-05
4.40422e-05
4.44739e-05
4.47678e-05
4.50969e-05
4.55218e-05
4.58524e-05
4.59888e-05
4.59024e-05
4.56434e-05
4.53626e-05
4.50776e-05
4.44248e-05
4.38008e-05
4.37981e-05
4.48102e-05
4.64354e-05
4.73384e-05
4.73844e-05
4.6755e-05
4.66321e-05
4.7884e-05
5.26726e-05
5.65881e-05
5.70641e-05
5.77966e-05
6.13664e-05
6.48882e-05
6.46992e-05
6.40355e-05
6.5076e-05
6.86744e-05
7.2382e-05
7.93503e-05
9.39964e-05
0.000100396
0.000108788
0.000112428
0.00010811
9.66289e-05
0.000100311
0.000126366
0.000151309
0.000166182
0.000165222
0.00014401
0.000130813
0.000124779
0.000120829
0.000117777
0.000116585
0.000119318
0.00012979
0.00014457
0.000157527
0.000163428
0.000154459
0.000144522
0.000148395
0.000171954
0.000195193
0.000182868
0.000155943
0.000153337
0.000163497
0.000171182
0.000172788
0.000168384
0.000163806
0.000161602
0.000158561
0.000153384
0.00015363
0.000158843
0.000169511
0.000184853
0.00019805
0.000205536
0.000213714
0.000225835
0.000241717
0.000257477
0.000264285
0.000264159
0.000263308
0.000267237
0.00029011
0.00032296
0.000343756
0.000355117
0.00037058
0.000360513
0.000357034
0.000375566
0.000422634
0.000464091
0.000479386
0.000449649
0.000468845
0.000478367
0.000435073
0.000359238
0.000361577
0.000442528
0.000445148
0.000428429
0.000361936
0.000324185
0.000292154
0.000279101
0.000296344
0.000362032
0.000482876
0.000513974
8.89766e-05
6.23798e-05
5.13529e-05
4.57296e-05
3.98928e-05
3.50304e-05
3.12193e-05
2.8187e-05
2.5389e-05
2.29137e-05
2.12646e-05
2.09521e-05
2.12801e-05
2.22538e-05
2.50601e-05
3.10707e-05
3.85881e-05
4.94145e-05
5.76251e-05
6.20996e-05
6.61384e-05
7.05275e-05
7.46496e-05
7.85887e-05
8.23446e-05
8.59515e-05
8.69761e-05
8.69708e-05
8.44603e-05
7.89514e-05
7.24954e-05
6.73116e-05
6.12123e-05
5.53761e-05
5.00831e-05
4.56853e-05
4.21928e-05
3.89132e-05
3.67981e-05
3.56523e-05
3.52576e-05
3.5251e-05
3.54174e-05
3.57621e-05
3.61708e-05
3.66287e-05
3.7047e-05
3.75163e-05
3.80912e-05
3.8632e-05
3.92217e-05
3.97547e-05
4.0218e-05
4.05855e-05
4.08236e-05
4.09147e-05
4.07618e-05
4.04184e-05
4.0043e-05
3.97348e-05
3.94816e-05
3.94985e-05
3.96634e-05
3.99488e-05
4.04706e-05
4.10585e-05
4.17025e-05
4.22896e-05
4.27345e-05
4.30442e-05
4.33763e-05
4.39198e-05
4.45439e-05
4.49581e-05
4.51983e-05
4.50404e-05
4.43665e-05
4.40009e-05
4.36545e-05
4.28331e-05
4.18115e-05
4.13759e-05
4.15298e-05
4.1771e-05
4.18772e-05
4.21345e-05
4.27834e-05
4.55078e-05
4.9509e-05
5.11379e-05
5.06814e-05
5.03813e-05
5.13968e-05
5.42242e-05
5.47665e-05
5.45886e-05
5.52865e-05
5.71334e-05
5.81701e-05
6.07374e-05
6.98235e-05
7.36433e-05
7.80085e-05
8.81339e-05
8.89446e-05
8.61843e-05
9.2448e-05
0.000128614
0.000154157
0.000161858
0.000151272
0.000122768
0.000110923
0.00010548
0.000104391
0.000102287
9.86118e-05
9.87227e-05
0.000106683
0.000127589
0.000155235
0.000174234
0.00016472
0.00014274
0.000152544
0.000159489
0.000179092
0.000178557
0.000165321
0.000144235
0.000142745
0.000155901
0.000161654
0.000158542
0.000152686
0.000153396
0.000154784
0.000151189
0.000148444
0.000150077
0.00015744
0.000172032
0.000186726
0.000194073
0.000198899
0.000209194
0.000221618
0.000230936
0.000237674
0.000241767
0.000245771
0.000244541
0.000251788
0.000290731
0.000325777
0.000345701
0.000356182
0.000340902
0.000336511
0.000365354
0.00040345
0.000432197
0.000439535
0.0004475
0.000452799
0.000489814
0.000436327
0.000352225
0.000338389
0.000355722
0.000443861
0.000426105
0.000348676
0.000283835
0.000263948
0.000265865
0.00026733
0.000293654
0.00037412
0.000440987
0.000107197
7.51184e-05
6.13094e-05
4.95965e-05
4.09179e-05
3.53175e-05
3.13323e-05
2.82973e-05
2.548e-05
2.3813e-05
2.31215e-05
2.3337e-05
2.46285e-05
2.84802e-05
3.6902e-05
4.77663e-05
5.44026e-05
5.82632e-05
6.03255e-05
6.29442e-05
6.61849e-05
6.95398e-05
7.24833e-05
7.41659e-05
7.46838e-05
7.39552e-05
7.05342e-05
6.63704e-05
6.29767e-05
5.81854e-05
5.2395e-05
4.71129e-05
4.30215e-05
3.96318e-05
3.70301e-05
3.50135e-05
3.3921e-05
3.34362e-05
3.33373e-05
3.3434e-05
3.36724e-05
3.40964e-05
3.44603e-05
3.4753e-05
3.49799e-05
3.51707e-05
3.53572e-05
3.55725e-05
3.58981e-05
3.64399e-05
3.72521e-05
3.82747e-05
3.92148e-05
3.99535e-05
4.04216e-05
4.07121e-05
4.08565e-05
4.06729e-05
4.02647e-05
3.97303e-05
3.90757e-05
3.87831e-05
3.87726e-05
3.8913e-05
3.91901e-05
3.97481e-05
4.05246e-05
4.11547e-05
4.15172e-05
4.17173e-05
4.17472e-05
4.17272e-05
4.20328e-05
4.27559e-05
4.33524e-05
4.37353e-05
4.36074e-05
4.33078e-05
4.35281e-05
4.34334e-05
4.22288e-05
4.08683e-05
4.02858e-05
4.0148e-05
4.00259e-05
4.01976e-05
4.10816e-05
4.44539e-05
4.80251e-05
4.88175e-05
4.8468e-05
4.80017e-05
4.82912e-05
4.97658e-05
5.07615e-05
5.10161e-05
5.07676e-05
5.10699e-05
5.21043e-05
5.46093e-05
5.97904e-05
6.10564e-05
6.39908e-05
7.34971e-05
7.6743e-05
7.68969e-05
8.63484e-05
0.000130444
0.000154201
0.000154246
0.000141089
0.000114547
0.000100639
9.53674e-05
9.64963e-05
9.34042e-05
8.98881e-05
8.99581e-05
9.2303e-05
0.000101961
0.000128132
0.000164421
0.000183054
0.000158151
0.000169188
0.000159442
0.000131413
0.000139899
0.000145713
0.000130057
0.000121444
0.000127052
0.000149204
0.000148532
0.000141728
0.000138432
0.000143278
0.000144657
0.000144666
0.000144535
0.000150529
0.000163613
0.000175651
0.0001846
0.000188461
0.000194566
0.000205319
0.000214865
0.000226492
0.000237942
0.00024087
0.000237444
0.000229496
0.000258832
0.000308113
0.000340295
0.000347193
0.000331464
0.000325475
0.000382772
0.000401544
0.00040302
0.000416408
0.000458559
0.000418118
0.00043545
0.000408471
0.000379059
0.000344588
0.000317261
0.000389523
0.000380712
0.000312596
0.000256871
0.000245607
0.000259726
0.000272568
0.000283151
0.000311683
0.00038288
0.00012601
9.00856e-05
6.76631e-05
5.07838e-05
4.04663e-05
3.46201e-05
3.10096e-05
2.84807e-05
2.62019e-05
2.5321e-05
2.55621e-05
2.69421e-05
3.14731e-05
4.10045e-05
4.7154e-05
5.1093e-05
5.53323e-05
5.80451e-05
5.97058e-05
6.1958e-05
6.33839e-05
6.41348e-05
6.4352e-05
6.33394e-05
6.09549e-05
5.85181e-05
5.51689e-05
5.10248e-05
4.75245e-05
4.38905e-05
3.93518e-05
3.62062e-05
3.43121e-05
3.29336e-05
3.22611e-05
3.2123e-05
3.22273e-05
3.25108e-05
3.28694e-05
3.32321e-05
3.35153e-05
3.36915e-05
3.35556e-05
3.30721e-05
3.23912e-05
3.19735e-05
3.18783e-05
3.18685e-05
3.19947e-05
3.23304e-05
3.29241e-05
3.38082e-05
3.49247e-05
3.65226e-05
3.80642e-05
3.89185e-05
3.9231e-05
3.9271e-05
3.92015e-05
3.89221e-05
3.8662e-05
3.8239e-05
3.78628e-05
3.77255e-05
3.77869e-05
3.80139e-05
3.85268e-05
3.92392e-05
4.00119e-05
4.03813e-05
4.0574e-05
4.04164e-05
3.99259e-05
3.98907e-05
4.04239e-05
4.11488e-05
4.1355e-05
4.09248e-05
4.08746e-05
4.15069e-05
4.18843e-05
4.09225e-05
3.98005e-05
3.93232e-05
3.92447e-05
3.94285e-05
3.99296e-05
4.16571e-05
4.40152e-05
4.54174e-05
4.64811e-05
4.68695e-05
4.70173e-05
4.73121e-05
4.78663e-05
4.83709e-05
4.75652e-05
4.73336e-05
4.85992e-05
5.2067e-05
5.5633e-05
5.72392e-05
6.14019e-05
6.7331e-05
6.82474e-05
6.98539e-05
8.28007e-05
0.000130333
0.000151888
0.000148134
0.000135744
0.000112167
9.45048e-05
9.0691e-05
9.19475e-05
8.8232e-05
8.57252e-05
8.47468e-05
8.38193e-05
8.6236e-05
9.43819e-05
0.000129184
0.00017625
0.000190529
0.000173415
0.000162732
0.000118936
0.000104755
0.000114706
0.000118585
0.000113085
0.000106031
0.000119017
0.000131386
0.000130488
0.000123398
0.000127885
0.000133034
0.000137096
0.000139308
0.000144541
0.000156452
0.00016752
0.000172249
0.000173823
0.000172265
0.000173162
0.000183878
0.000206715
0.000230635
0.000236145
0.00023161
0.000220907
0.000225954
0.000282338
0.00033118
0.000340887
0.00032795
0.000317158
0.000391072
0.000378835
0.000387771
0.000388982
0.000418037
0.000389588
0.000404835
0.000406149
0.000391478
0.000354232
0.000299272
0.000305361
0.000310822
0.000278074
0.000247411
0.000240907
0.000261225
0.000281272
0.000292825
0.000300195
0.000341192
0.000145021
0.000103664
6.99512e-05
4.88556e-05
3.6891e-05
3.22735e-05
3.03633e-05
2.84456e-05
2.64072e-05
2.56489e-05
2.64914e-05
3.0875e-05
4.08931e-05
4.65189e-05
4.88637e-05
5.09574e-05
5.41048e-05
5.61387e-05
5.68458e-05
5.71849e-05
5.6704e-05
5.57135e-05
5.43428e-05
5.22199e-05
4.92805e-05
4.6361e-05
4.36238e-05
4.06791e-05
3.7636e-05
3.52769e-05
3.28979e-05
3.16334e-05
3.11251e-05
3.1054e-05
3.11837e-05
3.16627e-05
3.21352e-05
3.24905e-05
3.27307e-05
3.28752e-05
3.27381e-05
3.22121e-05
3.14633e-05
3.07623e-05
3.02595e-05
3.00917e-05
3.00805e-05
3.01763e-05
3.04665e-05
3.08578e-05
3.12989e-05
3.18455e-05
3.25336e-05
3.34827e-05
3.47021e-05
3.63792e-05
3.75226e-05
3.80107e-05
3.8118e-05
3.81809e-05
3.82909e-05
3.81605e-05
3.78192e-05
3.7624e-05
3.75531e-05
3.76589e-05
3.79387e-05
3.83607e-05
3.91425e-05
3.9941e-05
4.02529e-05
4.0275e-05
3.96664e-05
3.90856e-05
3.86393e-05
3.89631e-05
4.00798e-05
4.02636e-05
3.92463e-05
3.90166e-05
3.97838e-05
4.03045e-05
3.96078e-05
3.83619e-05
3.75012e-05
3.73935e-05
3.77122e-05
3.81408e-05
3.88111e-05
4.02969e-05
4.24696e-05
4.4338e-05
4.52756e-05
4.52128e-05
4.5156e-05
4.49206e-05
4.56735e-05
4.68997e-05
4.8509e-05
5.10388e-05
5.35204e-05
5.5992e-05
6.12966e-05
6.39494e-05
6.402e-05
6.64884e-05
8.2259e-05
0.000129368
0.000147184
0.00014347
0.000132349
0.000110727
9.10095e-05
8.7632e-05
8.77872e-05
8.36404e-05
8.14735e-05
7.92023e-05
7.92137e-05
8.05802e-05
8.30321e-05
8.91441e-05
0.000132076
0.000182796
0.000134033
0.000131119
0.000118186
9.80459e-05
9.97563e-05
0.000111806
0.000116821
0.000105154
0.000102474
0.000116619
0.000118952
0.000112524
0.000115202
0.000125045
0.000131865
0.000132661
0.000135936
0.000146224
0.000158274
0.000161331
0.000160952
0.000156144
0.000153354
0.000152692
0.000180576
0.000211064
0.000218992
0.000219896
0.000215494
0.000207596
0.000245797
0.00031315
0.00033558
0.000326635
0.00031975
0.000363461
0.000374938
0.00037916
0.000355119
0.000353605
0.000340824
0.000403238
0.00041529
0.000417944
0.000346033
0.000274756
0.000259904
0.000265148
0.000256717
0.000240548
0.000236925
0.000267918
0.000288862
0.000301276
0.000306584
0.000321292
0.000163575
0.000111004
6.77667e-05
4.18384e-05
3.32308e-05
3.10567e-05
2.99334e-05
2.81597e-05
2.63612e-05
2.59417e-05
2.81927e-05
3.6649e-05
4.50178e-05
4.72437e-05
4.87806e-05
5.02943e-05
5.08321e-05
5.13684e-05
5.13713e-05
5.07612e-05
4.96222e-05
4.82592e-05
4.62605e-05
4.39264e-05
4.11214e-05
3.82644e-05
3.60793e-05
3.42368e-05
3.23265e-05
3.12005e-05
3.03839e-05
3.02018e-05
3.02765e-05
3.06364e-05
3.12266e-05
3.18235e-05
3.22315e-05
3.24943e-05
3.2651e-05
3.25407e-05
3.2087e-05
3.13168e-05
3.02637e-05
2.95235e-05
2.92674e-05
2.92328e-05
2.93576e-05
2.98231e-05
3.03844e-05
3.09444e-05
3.14674e-05
3.19489e-05
3.24687e-05
3.31297e-05
3.38899e-05
3.49649e-05
3.6721e-05
3.78612e-05
3.81167e-05
3.81095e-05
3.82651e-05
3.86541e-05
3.91938e-05
3.93225e-05
3.90789e-05
3.87863e-05
3.85396e-05
3.83707e-05
3.85397e-05
3.93849e-05
3.99895e-05
4.01088e-05
3.98168e-05
3.92223e-05
3.84635e-05
3.78408e-05
3.79275e-05
3.84921e-05
3.83553e-05
3.76738e-05
3.77739e-05
3.84287e-05
3.85774e-05
3.7783e-05
3.64621e-05
3.55656e-05
3.5429e-05
3.58574e-05
3.65362e-05
3.80166e-05
4.01757e-05
4.09052e-05
4.09153e-05
4.11563e-05
4.19681e-05
4.32472e-05
4.51734e-05
4.8043e-05
4.97881e-05
5.16466e-05
5.34176e-05
5.67628e-05
6.13337e-05
6.16473e-05
6.22016e-05
6.56722e-05
8.64486e-05
0.000130856
0.000140794
0.00013759
0.000128156
0.000109759
9.02241e-05
8.62639e-05
8.55604e-05
8.11701e-05
7.90906e-05
7.68429e-05
7.73543e-05
7.85807e-05
7.86035e-05
7.8836e-05
9.63366e-05
0.000123368
9.7379e-05
9.61143e-05
9.4869e-05
9.15801e-05
9.22889e-05
9.82157e-05
0.000102722
9.83214e-05
9.55025e-05
0.000104857
0.000118201
0.000115199
0.000111352
0.000118594
0.000124099
0.000124295
0.000122292
0.00013147
0.000143186
0.000148002
0.000149312
0.000147184
0.000148278
0.00014456
0.000158112
0.000188903
0.000199181
0.000205071
0.000205787
0.000201036
0.000212497
0.000285711
0.000326156
0.00032479
0.000325207
0.000329291
0.000377475
0.000415588
0.000338775
0.000378994
0.000332668
0.000417567
0.000405553
0.000386656
0.000320445
0.000255485
0.000234606
0.0002425
0.000250225
0.000248131
0.000240191
0.000270522
0.000290495
0.000297841
0.000309068
0.000314004
0.000180165
0.000113014
5.92444e-05
3.67468e-05
3.17857e-05
3.06665e-05
2.97574e-05
2.8057e-05
2.69597e-05
2.75035e-05
3.26716e-05
4.23184e-05
4.54522e-05
4.65376e-05
4.81287e-05
4.86018e-05
4.81293e-05
4.74493e-05
4.62616e-05
4.50572e-05
4.34534e-05
4.16084e-05
3.95502e-05
3.72744e-05
3.47283e-05
3.27623e-05
3.16103e-05
3.08818e-05
3.00875e-05
2.97538e-05
2.96873e-05
2.97954e-05
3.01837e-05
3.07751e-05
3.14998e-05
3.20416e-05
3.23166e-05
3.24589e-05
3.24402e-05
3.19205e-05
3.04971e-05
2.91599e-05
2.85895e-05
2.84351e-05
2.85112e-05
2.87342e-05
2.91801e-05
2.98886e-05
3.06947e-05
3.17684e-05
3.24812e-05
3.30072e-05
3.34458e-05
3.37028e-05
3.40453e-05
3.44318e-05
3.53441e-05
3.70371e-05
3.83273e-05
3.86145e-05
3.86073e-05
3.88925e-05
3.98754e-05
4.12623e-05
4.21239e-05
4.22742e-05
4.16878e-05
4.04903e-05
3.92223e-05
3.86637e-05
3.91256e-05
3.94992e-05
3.94969e-05
3.92421e-05
3.89928e-05
3.80698e-05
3.74396e-05
3.74868e-05
3.73361e-05
3.69672e-05
3.67792e-05
3.70972e-05
3.67882e-05
3.58767e-05
3.50824e-05
3.47202e-05
3.46759e-05
3.49388e-05
3.54141e-05
3.66326e-05
3.73246e-05
3.72195e-05
3.79141e-05
3.93943e-05
4.07145e-05
4.24118e-05
4.53936e-05
4.9604e-05
5.14371e-05
5.23115e-05
5.38619e-05
5.92477e-05
6.13825e-05
6.0673e-05
6.17529e-05
6.72095e-05
9.71381e-05
0.000131675
0.000137513
0.000133864
0.000126059
0.000108036
8.88531e-05
8.42261e-05
8.25368e-05
7.76201e-05
7.45029e-05
7.40629e-05
7.39252e-05
7.55236e-05
7.49839e-05
7.49148e-05
8.31399e-05
8.93226e-05
8.44106e-05
8.9104e-05
8.54028e-05
8.02307e-05
8.5229e-05
9.30589e-05
9.8007e-05
9.64607e-05
9.53053e-05
0.000102893
0.000114633
0.000112596
0.000108507
0.000112605
0.000118762
0.000121971
0.000118669
0.000119242
0.000128805
0.000133856
0.000135853
0.000136408
0.000142128
0.000141713
0.000136369
0.000156573
0.00017209
0.000186704
0.000191089
0.000192371
0.000193195
0.000252339
0.000305521
0.000317552
0.000319288
0.000324108
0.000374688
0.000429766
0.000382067
0.000406904
0.00033769
0.000350891
0.000325505
0.000332481
0.000290475
0.000240064
0.000218594
0.000233153
0.000250386
0.000252877
0.000242372
0.000270986
0.000291028
0.000286961
0.000303273
0.000307209
0.000194098
0.000112831
5.4333e-05
3.47312e-05
3.15349e-05
3.11444e-05
3.07429e-05
2.98378e-05
2.99254e-05
3.21404e-05
3.86732e-05
4.34561e-05
4.415e-05
4.42475e-05
4.46811e-05
4.46276e-05
4.43197e-05
4.33058e-05
4.12797e-05
3.97058e-05
3.80262e-05
3.61081e-05
3.46559e-05
3.30574e-05
3.12488e-05
3.02904e-05
2.97418e-05
2.94319e-05
2.91997e-05
2.91938e-05
2.93379e-05
2.96798e-05
3.02679e-05
3.11524e-05
3.18385e-05
3.21917e-05
3.2394e-05
3.24346e-05
3.20249e-05
3.03763e-05
2.87171e-05
2.8148e-05
2.80482e-05
2.81412e-05
2.83199e-05
2.86476e-05
2.92375e-05
3.00486e-05
3.09354e-05
3.19308e-05
3.2464e-05
3.28667e-05
3.33601e-05
3.38061e-05
3.45213e-05
3.5064e-05
3.51779e-05
3.59353e-05
3.73821e-05
3.86042e-05
3.91028e-05
3.92925e-05
3.97889e-05
4.1234e-05
4.24211e-05
4.30665e-05
4.32473e-05
4.28074e-05
4.08833e-05
3.88283e-05
3.76656e-05
3.77759e-05
3.81671e-05
3.81314e-05
3.81591e-05
3.78294e-05
3.72824e-05
3.69704e-05
3.68682e-05
3.64749e-05
3.60889e-05
3.62258e-05
3.60084e-05
3.52888e-05
3.43822e-05
3.38598e-05
3.38279e-05
3.42418e-05
3.47344e-05
3.53669e-05
3.54467e-05
3.58231e-05
3.72193e-05
3.89339e-05
4.03486e-05
4.21943e-05
4.56404e-05
5.01065e-05
5.23236e-05
5.37677e-05
5.72676e-05
6.27543e-05
6.23061e-05
6.05566e-05
6.197e-05
7.26323e-05
0.000108403
0.000130785