/*--------------------------------*- C++ -*----------------------------------*\
| =========                 |                                                 |
| \\      /  F ield         | OpenFOAM: The Open Source CFD Toolbox           |
|  \\    /   O peration     | Version:  dev                                   |
|   \\  /    A nd           | Web:      http://www.openfoam.org               |
|    \\/     M anipulation  |                                                 |
\*---------------------------------------------------------------------------*/
FoamFile
{
    version     2.0;
    format      ascii;
    class       volScalarField;
    object      p;
    location    "9.159";
}
// * * * * * * * * * * * * * * * * * * * * * * * * * * * * * * * * * * * * * //

dimensions      [1 -1 -2 0 0 0 0];

internalField   nonuniform List<scalar> 
12225
(
100978
100932
100849
100734
100582
100405
100198
99975
99725.1
99471
99182.9
98915.4
98563.8
98331.1
97976.5
97607.5
97145.3
96573.2
100977
100935
100852
100737
100585
100408
100200
99977.7
99727.9
99473.4
99186.3
98916.4
98573.2
98328.3
97975.8
97601.7
97155.3
96704.1
100981
100941
100859
100743
100591
100413
100206
99983.1
99734.5
99478.4
99195.1
98918.3
98597.1
98321.9
97981.3
97606.4
97179.8
96753.1
100987
100951
100869
100753
100600
100423
100216
99993
99745.7
99488.7
99209.6
98928.7
98620.3
98327.9
97994.7
97626.6
97218.1
96834.6
100999
100966
100884
100768
100615
100438
100232
100008
99762.3
99505.3
99229.5
98947.4
98647.3
98347.7
98021.1
97664.2
97270.6
96978.6
101023
100988
100905
100788
100636
100458
100253
100030
99785.6
99529.1
99256
98975.2
98680.7
98381.1
98064.2
97730.3
97389.2
97068.3
101056
101018
100934
100817
100665
100487
100283
100060
99817.7
99561.6
99292.3
99013.4
98724.8
98428.5
98123.9
97809.9
97502.9
97189.2
101090
101051
100967
100849
100698
100519
100317
100094
99853.6
99598.8
99332.7
99056.5
98773.2
98482.3
98187.1
97886.4
97594.5
97297.8
101127
101087
101003
100883
100733
100555
100353
100131
99892.1
99638.8
99375.6
99102.6
98823.8
98538.8
98251.7
97962.9
97682.2
97402
101175
101134
101050
100930
100780
100601
100401
100179
99942.7
99691.5
99431.5
99162.4
98888.8
98610.5
98332.5
98055
97784.9
97521.1
101238
101195
101112
100992
100842
100663
100464
100244
100009
99760.5
99504
99239.7
98972
98701.4
98432.5
98166.2
97907.1
97657.5
101317
101275
101193
101073
100923
100745
100546
100328
100095
99850.4
99597.8
99338.9
99077.6
98815.2
98555.7
98300.4
98052.7
97815.1
101414
101379
101298
101178
101029
100852
100654
100438
100208
99966.5
99718.3
99465.3
99210.9
98957
98706.6
98462
98225.2
97998.3
101541
101514
101434
101316
101167
100991
100794
100580
100352
100115
99871.6
99624.7
99377.3
99131.7
98890.3
98655.4
98428.4
98211.1
101716
101688
101611
101493
101344
101169
100973
100761
100536
100303
100064
99823
99582.4
99344.4
99111.1
98884.6
98666.1
98456.7
101944
101914
101835
101718
101569
101394
101199
100988
100765
100535
100301
100065
99830.1
99598.6
99372.1
99152.3
98940.4
98737.2
102242
102200
102117
101997
101847
101671
101476
101265
101044
100816
100584
100352
100122
99895.1
99673.5
99458.5
99251.1
99052
102555
102516
102430
102307
102154
101977
101779
101568
101346
101119
100888
100658
100430
100205
99985.8
99773
99567.6
99370.2
102841
102807
102719
102594
102438
102257
102057
101844
101621
101393
101162
100931
100703
100479
100260
100047
99841.7
99644.2
103088
103051
102961
102832
102673
102489
102287
102072
101847
101617
101385
101153
100924
100699
100479
100265
100059
99860.7
103308
103254
103158
103025
102862
102676
102471
102254
102027
101796
101562
101329
101099
100872
100651
100436
100229
100029
103466
103410
103311
103175
103010
102822
102615
102396
102168
101935
101700
101466
101234
101006
100783
100567
100359
100158
103578
103526
103428
103291
103124
102933
102725
102504
102275
102041
101805
101569
101336
101107
100883
100666
100456
100254
103663
103614
103515
103377
103208
103016
102807
102585
102355
102119
101882
101646
101412
101182
100957
100739
100529
100326
103727
103678
103579
103440
103270
103077
102867
102644
102412
102176
101939
101701
101467
101236
101011
100792
100581
100377
103775
103725
103624
103484
103313
103120
102909
102685
102453
102217
101978
101740
101505
101274
101049
100830
100618
100414
103808
103756
103655
103514
103343
103149
102937
102713
102480
102244
102005
101767
101531
101300
101074
100855
100642
100438
103827
103777
103674
103533
103361
103167
102955
102730
102498
102261
102022
101783
101548
101316
101090
100870
100658
100453
103842
103789
103685
103543
103372
103177
102965
102740
102507
102270
102031
101792
101557
101325
101099
100879
100667
100462
103848
103795
103690
103548
103376
103181
102969
102744
102511
102274
102035
101796
101561
101329
101103
100883
100671
100466
91688.7
91689.7
91691.6
91694.4
91698.2
91703
91708.9
91715.8
91723.9
91733.3
91743.9
91756
91769.5
91784.5
91801.2
91819.7
91840.1
91862.6
91887.3
91914.3
91944
91976.6
92012.4
92051.5
92094.1
92141
92192.4
92248.7
92309.6
92375.2
92445.7
92521.9
92604.4
92694.1
92792
92897.8
93011.4
93133.1
93262.9
93401.3
93548.6
93705.2
93871.4
94047.5
94233.7
94430.1
94636.8
94853.7
95080.6
95317.3
95563.3
95818.4
96081.7
96352.7
96631.1
96916.1
97206.8
97502.3
97801.6
98103.5
98407
98711.1
99017.6
99320.5
99620.5
99916.8
100208
100494
100773
101044
101306
101559
101801
102032
102253
102461
102658
102843
103017
103179
103329
103468
103597
103714
103822
103920
104008
104085
104154
104215
104267
104312
104349
104378
104399
104413
104419
104416
104405
104385
104357
104321
104278
104228
104172
104112
104047
103974
103892
103803
103712
103620
103529
103440
103350
103263
103180
103105
103038
102977
102925
102884
102858
102849
102859
102888
102929
102992
103079
103178
103294
103435
103596
103780
103988
104221
104474
104745
105027
105314
105599
105878
106149
106408
106653
106878
107079
107254
107406
107541
107666
107777
107860
107900
107902
107896
107906
107961
108041
108150
108327
108552
108797
109052
109335
109494
109702
109893
110061
110220
110156
110146
110239
110311
110294
110179
110012
109908
109888
109940
91693.8
91694.8
91696.7
91699.4
91703.2
91707.9
91713.6
91720.4
91728.3
91737.5
91747.9
91759.7
91773
91787.8
91804.2
91822.4
91842.5
91864.6
91889
91915.7
91944.9
91977.1
92012.4
92051
92093.3
92139.9
92191.3
92247.6
92308.6
92374.7
92445.2
92520.9
92602.6
92691.3
92788
92893.2
93006.6
93128.4
93258.4
93396.9
93544.3
93701.1
93867.4
94043.7
94230.1
94426.8
94633.6
94850.5
95077.6
95314.5
95560.8
95816
96079.4
96350.7
96629.4
96914.5
97205.1
97500.6
97799.8
98101.8
98405.5
98710
99014.8
99318.8
99619
99915.4
100207
100493
100772
101043
101305
101557
101800
102031
102252
102460
102657
102842
103016
103178
103328
103467
103595
103713
103821
103919
104006
104084
104153
104213
104266
104310
104347
104375
104396
104410
104415
104412
104401
104381
104351
104313
104270
104220
104162
104101
104035
103962
103879
103791
103701
103610
103519
103430
103340
103253
103170
103097
103031
102971
102921
102880
102856
102846
102856
102886
102934
102995
103079
103180
103299
103441
103604
103788
103998
104233
104488
104762
105048
105341
105632
105917
106194
106459
106711
106944
107153
107336
107496
107641
107777
107901
107999
108053
108064
108069
108091
108165
108265
108372
108552
108785
109031
109285
109586
109704
109898
110079
110267
110425
110343
110307
110378
110430
110401
110276
110101
109980
109947
109989
91704.3
91705.3
91707.2
91709.9
91713.5
91718
91723.4
91729.9
91737.5
91746.3
91756.3
91767.7
91780.5
91794.8
91810.7
91828.2
91847.7
91869.3
91892.9
91918.7
91946.9
91978.1
92012.7
92050.7
92093
92139.9
92191
92245.4
92304.3
92368.4
92438.7
92515.3
92598
92687.2
92783.3
92887.3
92999.8
93120.7
93250.3
93388.6
93536.1
93693
93859.5
94036
94222.8
94419.7
94626.8
94844.1
95071.5
95308.6
95555.2
95810.6
96074.4
96346
96624.8
96909.9
97200.6
97496.1
97795.4
98097.7
98401.4
98705.7
99009.6
99315.7
99615.4
99911.6
100203
100489
100768
101039
101302
101554
101797
102029
102249
102458
102655
102840
103013
103175
103325
103464
103593
103711
103818
103915
104003
104080
104149
104209
104262
104306
104342
104370
104389
104402
104407
104403
104390
104368
104338
104300
104254
104202
104142
104079
104013
103941
103859
103771
103681
103589
103499
103409
103319
103234
103149
103078
103014
102957
102911
102875
102851
102836
102848
102881
102940
102998
103077
103181
103304
103451
103617
103803
104014
104253
104513
104790
105084
105386
105689
105988
106278
106557
106823
107071
107297
107498
107674
107838
107996
108147
108282
108367
108403
108431
108479
108593
108735
108833
109010
109251
109492
109740
110068
110135
110280
110440
110635
110811
110718
110643
110661
110655
110588
110435
110256
110113
110057
110085
91720.7
91721.6
91723.4
91726
91729.4
91733.5
91738.6
91744.7
91751.8
91760.2
91769.7
91780.5
91792.6
91806.2
91821.4
91838.2
91856.9
91877.4
91899.9
91924.7
91952
91981.9
92015
92051.5
92092.1
92137.1
92186.7
92241.7
92301.1
92365
92434.1
92509.5
92591.3
92680
92775.8
92879.4
92991.1
93111.4
93240.4
93378.6
93526
93682.9
93849.5
94026.2
94213.2
94410.3
94617.7
94835.2
95062.8
95300.2
95547.1
95802.8
96066.9
96338.9
96617.9
96903.2
97194.2
97489.9
97789.3
98091.6
98395.4
98699.8
99004.3
99309.2
99609.1
99905.5
100197
100483
100762
101033
101296
101549
101792
102024
102245
102454
102651
102836
103009
103170
103321
103460
103588
103706
103813
103910
103997
104074
104143
104203
104255
104299
104334
104361
104379
104390
104394
104388
104374
104351
104319
104278
104231
104177
104116
104052
103985
103912
103831
103743
103651
103559
103469
103379
103286
103200
103117
103046
102985
102934
102893
102863
102841
102819
102832
102866
102935
102999
103072
103175
103304
103458
103630
103818
104033
104279
104544
104827
105129
105444
105763
106081
106392
106691
106978
107251
107503
107731
107929
108115
108303
108491
108676
108821
108903
108966
109054
109209
109390
109500
109676
109929
110180
110410
110758
110814
110883
110974
111123
111333
111243
111128
111036
110954
110834
110636
110444
110293
110205
110208
91743.9
91744.7
91746.3
91748.6
91751.7
91755.5
91760.1
91765.7
91772.3
91780.1
91789
91799.2
91810.6
91823.4
91837.7
91853.6
91871.2
91890.6
91911.6
91934.8
91960.6
91989.5
92021.9
92058
92097.8
92141.2
92188.9
92241.4
92299.1
92361.8
92429.9
92504.1
92584.9
92672.8
92768.1
92871.1
92982.3
93102
93230.5
93368.2
93515.3
93672
93838.6
94015.3
94202.2
94399.5
94607
94824.7
95052.5
95290.1
95537.1
95793.1
96057.6
96330
96609.4
96895.2
97186.4
97482.3
97781.8
98084.1
98388.2
98692.6
98998.1
99300.9
99600.9
99897.3
100189
100475
100754
101025
101288
101541
101784
102016
102237
102446
102644
102829
103002
103164
103314
103453
103581
103698
103805
103901
103988
104066
104135
104195
104246
104288
104323
104349
104366
104374
104376
104369
104352
104327
104293
104250
104202
104146
104084
104018
103949
103874
103792
103704
103611
103518
103427
103338
103242
103154
103074
103005
102947
102899
102863
102838
102825
102799
102813
102844
102911
102987
103063
103164
103297
103458
103637
103829
104049
104304
104580
104871
105181
105511
105848
106186
106522
106847
107161
107466
107753
108017
108244
108460
108687
108913
109148
109369
109527
109643
109780
109970
110184
110342
110528
110778
111047
111255
111589
111687
111708
111676
111744
111939
111898
111717
111490
111309
111130
110887
110658
110499
110381
110342
91775.1
91775.8
91777.2
91779.2
91781.8
91785.1
91789.2
91794.2
91800.3
91807.4
91815.6
91825.1
91835.7
91847.7
91861.1
91875.9
91892.1
91909.9
91929.4
91951.4
91975.9
92003.4
92034.2
92068.3
92106.1
92147.9
92193.8
92244.4
92300
92361.2
92428.1
92501.2
92581
92667.8
92762.1
92864.2
92974.4
93093.3
93221.1
93358.1
93504.7
93661.1
93827.5
94004.2
94191.1
94388.3
94595.8
94813.5
95041.3
95278.9
95526
95782.3
96047.2
96319.8
96599.7
96885.8
97177.3
97473.2
97772.6
98075.3
98381.3
98685.2
98989.2
99291.6
99591.4
99887.5
100179
100464
100743
101014
101277
101530
101773
102005
102226
102436
102633
102818
102992
103153
103304
103442
103570
103688
103794
103890
103977
104055
104124
104184
104234
104275
104308
104333
104349
104355
104354
104345
104325
104297
104260
104216
104165
104108
104044
103976
103904
103827
103744
103654
103560
103465
103373
103283
103189
103102
103022
102953
102896
102850
102817
102798
102799
102779
102795
102819
102876
102961
103042
103147
103280
103447
103636
103835
104060
104324
104613
104916
105237
105579
105935
106293
106652
107005
107348
107687
108012
108324
108606
108861
109128
109395
109669
109968
110229
110421
110611
110836
111091
111363
111550
111763
112031
112245
112481
112601
112629
112527
112496
112581
112556
112328
111989
111703
111454
111174
110912
110724
110573
110481
91815.9
91816.5
91817.6
91819.1
91821.1
91823.8
91827.4
91831.9
91837.3
91843.7
91851.1
91859.6
91869.2
91879.9
91891.9
91905.2
91920.2
91936.6
91954.8
91975.2
91997.9
92023.3
92051.9
92083.9
92119.5
92159.2
92203.2
92251.9
92305.8
92365.2
92430.6
92502.2
92580.5
92666
92758.8
92859.5
92968.5
93086.4
93213.4
93349.8
93496.1
93652.3
93818.4
93994.8
94181.6
94378.5
94585.7
94803.1
95030.5
95267.8
95514.8
95771
96035.8
96308.3
96588.5
96875.1
97167
97462.9
97761.6
98068.4
98371.7
98675.5
98979.2
99281.3
99580.8
99876.4
100167
100452
100730
101001
101263
101516
101759
101991
102212
102421
102619
102804
102978
103139
103289
103428
103556
103673
103780
103876
103962
104040
104109
104168
104217
104257
104289
104313
104327
104331
104327
104315
104293
104263
104224
104176
104122
104062
103996
103926
103851
103771
103686
103594
103498
103401
103308
103218
103125
103040
102956
102888
102832
102788
102756
102740
102756
102749
102762
102789
102831
102916
103003
103116
103250
103420
103616
103830
104064
104336
104637
104950
105285
105641
106016
106395
106769
107146
107515
107884
108242
108598
108960
109284
109595
109903
110215
110575
110950
111249
111499
111765
112058
112501
112672
112857
113091
113276
113438
113556
113604
113471
113356
113292
113168
112920
112496
112118
111798
111481
111198
110970
110769
110629
91868.1
91868.3
91869.2
91870.1
91871.6
91873.7
91876.6
91880.4
91885
91890.5
91896.9
91904.1
91912.4
91921.6
91931.8
91943.5
91956.7
91971.4
91988.1
92006.3
92026.8
92050.2
92076.6
92106.3
92139.6
92177
92218.9
92265.7
92317.6
92375
92438.4
92508.2
92584.6
92668.2
92759.4
92858.8
92966.8
93083.7
93209.9
93345.8
93491.6
93647.1
93812.8
93988.7
94174.8
94371.1
94577.7
94794.4
95021.1
95257.7
95504
95759.7
96024.2
96296.9
96577.3
96864.2
97156.4
97452.5
97751.1
98057.9
98360.4
98664
98967.3
99269
99568
99863
100153
100438
100715
100984
101246
101498
101740
101972
102193
102403
102600
102785
102959
103120
103270
103409
103537
103654
103761
103857
103943
104020
104088
104146
104195
104235
104265
104287
104300
104303
104296
104280
104255
104223
104181
104130
104072
104009
103941
103867
103789
103706
103618
103524
103426
103327
103233
103142
103049
102963
102879
102811
102755
102710
102680
102665
102685
102689
102690
102729
102772
102849
102947
103066
103207
103374
103572
103798
104047
104325
104636
104961
105311
105683
106074
106477
106867
107263
107656
108050
108441
108828
109260
109667
110038
110400
110767
111163
111632
112062
112396
112713
113041
113556
113806
113984
114143
114244
114433
114605
114643
114476
114240
114007
113764
113471
112983
112528
112149
111801
111491
111221
110960
110759
91934.2
91933.4
91933.8
91934.3
91935.3
91936.7
91938.7
91941.5
91944.9
91949.1
91954.1
91959.9
91966.6
91974
91982.3
91991.9
92002.7
92014.8
92028.6
92044.7
92063.3
92084.5
92108.7
92136.1
92167.3
92202.7
92242.5
92287
92336.7
92391.8
92452.8
92520.4
92594.9
92676.6
92766.2
92864.3
92971.1
93086.9
93212.2
93347.1
93491.7
93646.4
93811.2
93986.2
94171.4
94366.9
94572.6
94788.7
95014.7
95250.5
95495.9
95751
96015.1
96287.5
96567.7
96854.2
97146.1
97442.6
97742.1
98044.5
98347.4
98650.6
98953.3
99254.4
99552.7
99846.8
100136
100420
100696
100965
101226
101477
101718
101949
102170
102379
102576
102761
102934
103095
103245
103384
103512
103629
103735
103831
103917
103994
104062
104120
104168
104207
104236
104256
104267
104268
104259
104240
104212
104176
104131
104077
104015
103949
103879
103801
103719
103632
103541
103445
103344
103243
103147
103053
102960
102871
102789
102720
102662
102614
102587
102572
102584
102595
102594
102636
102684
102755
102861
102980
103130
103297
103497
103734
104002
104288
104605
104945
105306
105693
106096
106521
106932
107349
107769
108189
108618
109026
109490
109969
110412
110838
111279
111722
112243
112803
113250
113625
114017
114475
114908
115184
115156
115232
115384
115675
115609
115375
114994
114612
114297
113940
113422
112914
112481
112109
111757
111436
111119
110849
92014.6
92014.3
92014.1
92014
92014.1
92014.5
92015.3
92016.7
92018.7
92021.3
92024.6
92028.7
92033.3
92038.4
92044.4
92051.8
92060.4
92070.7
92081.5
92094.8
92110.7
92129.4
92151
92176.1
92204.9
92237.8
92275.1
92317.2
92364.4
92417.1
92475.9
92541.1
92613.3
92693
92780.7
92877.1
92982.2
93096.5
93220.4
93354.1
93497.7
93651.3
93815
93988.9
94173
94367.6
94572.4
94787.3
95012.2
95246.8
95491.5
95745.8
96009.1
96280.9
96559.9
96845.3
97136.3
97432.5
97730.9
98031.7
98333.9
98636.2
98937.9
99238.1
99535.3
99828.4
100116
100398
100674
100941
101201
101451
101692
101922
102141
102349
102546
102730
102903
103064
103214
103353
103480
103597
103703
103799
103885
103961
104029
104086
104134
104172
104200
104219
104229
104227
104216
104195
104164
104123
104075
104018
103952
103883
103809
103727
103640
103550
103456
103356
103253
103149
103049
102952
102856
102764
102681
102607
102547
102498
102469
102454
102456
102469
102477
102514
102562
102627
102740
102860
103013
103186
103395
103642
103922
104215
104538
104889
105261
105662
106073
106514
106946
107379
107830
108277
108746
109181
109654
110179
110693
111186
111697
112211
112765
113419
114000
114457
114914
115352
115888
116329
116206
116246
116239
116435
116293
116070
115605
115129
114737
114328
113799
113257
112772
112370
111970
111577
111214
110880
92112.8
92112.3
92111.6
92110.9
92110.1
92109.3
92108.6
92108.4
92108.6
92109.4
92110.8
92112.6
92114.4
92116.7
92120.1
92124.3
92129.6
92135.9
92145.6
92156.9
92170.3
92186.3
92205.2
92227.6
92253.7
92283.9
92318.6
92358.1
92402.6
92452.6
92508.6
92571.2
92640.9
92718.4
92804
92898.3
93001.5
93114.2
93236.6
93368.9
93511.1
93663.3
93825.7
93998.1
94180.8
94373.8
94576.9
94790.1
95013.2
95246.5
95489.9
95743
96005
96275.6
96553.9
96838.9
97128.9
97423
97720.1
98019.1
98319.6
98620.7
98921
99219.7
99515.5
99807.3
100094
100374
100647
100913
101171
101420
101659
101888
102106
102313
102508
102692
102864
103025
103174
103313
103440
103556
103663
103759
103844
103920
103987
104044
104091
104128
104156
104174
104181
104178
104164
104140
104107
104063
104010
103950
103883
103810
103732
103646
103554
103459
103360
103257
103151
103043
102940
102837
102735
102640
102551
102473
102407
102358
102323
102304
102299
102308
102318
102351
102405
102469
102580
102706
102860
103040
103259
103513
103795
104095
104423
104782
105163
105579
105999
106445
106898
107345
107819
108291
108790
109266
109760
110307
110874
111431
112001
112591
113179
113880
114582
115154
115665
116157
116692
117050
117192
117138
117066
117005
116808
116626
116105
115572
115093
114637
114088
113524
112992
112547
112114
111641
111232
110825
92230.7
92229.8
92228.7
92227.1
92225.2
92223.1
92220.8
92218.8
92216.9
92215.4
92214.1
92212.9
92211.9
92211.5
92212
92213.4
92216
92219.8
92225.5
92233.3
92243.6
92256.5
92272.5
92291.9
92315.1
92342.5
92374.2
92410.7
92452.4
92499.7
92553.2
92613.3
92680.5
92755.4
92838.4
92930
93030.9
93141.5
93261.9
93392.3
93532.8
93683.5
93844.2
94014.9
94195.7
94386.6
94587.4
94798.6
95020
95251.6
95493.3
95745.3
96005.1
96272.9
96552.8
96834.4
97122.4
97414.9
97710.4
98007.6
98305.5
98604.1
98902.2
99198.7
99492.5
99782.3
100067
100345
100617
100880
101135
101383
101620
101847
102064
102269
102463
102646
102817
102977
103125
103264
103390
103506
103612
103708
103794
103870
103936
103992
104039
104075
104102
104118
104124
104119
104102
104075
104038
103992
103937
103875
103805
103729
103646
103555
103458
103358
103254
103148
103037
102924
102815
102706
102598
102496
102401
102317
102246
102191
102149
102122
102110
102109
102124
102149
102201
102271
102373
102503
102660
102849
103073
103330
103610
103914
104248
104613
105004
105433
105864
106310
106777
107242
107729
108222
108740
109257
109782
110348
110943
111557
112176
112830
113464
114182
114955
115641
116234
116744
117299
117543
117853
117808
117652
117456
117233
116985
116408
115853
115331
114831
114263
113696
113118
112619
112153
111618
111146
110672
92369.9
92368.5
92366.7
92364.2
92361
92357.4
92353.3
92349.1
92344.6
92340.1
92335.7
92331.2
92327.1
92323.5
92320.7
92318.8
92318.1
92319
92321.3
92325.6
92332.3
92341.7
92354.4
92370.7
92390.6
92414.9
92443.6
92477.2
92515.9
92560.3
92610.6
92667.5
92731.6
92803.4
92883.4
92972.2
93070.7
93179
93297.3
93425.6
93564.2
93712.9
93871.7
94040.3
94219
94407.7
94606.6
94815.6
95034.7
95263.8
95502.1
95755.5
96012.6
96278
96551.9
96832
97117.8
97407.8
97700.6
97995.6
98291.1
98586.8
98881.8
99175.2
99466.2
99753.2
100035
100311
100580
100841
101094
101338
101574
101799
102013
102217
102409
102590
102760
102919
103066
103203
103330
103445
103551
103646
103732
103808
103873
103929
103975
104011
104037
104052
104056
104049
104030
104000
103960
103910
103853
103790
103718
103638
103551
103455
103353
103247
103137
103025
102909
102790
102673
102557
102441
102330
102228
102138
102059
101991
101940
101903
101882
101873
101885
101906
101951
102024
102123
102257
102418
102608
102827
103083
103362
103671
104012
104378
104775
105213
105651
106100
106573
107051
107550
108061
108590
109136
109691
110275
110887
111545
112202
112905
113592
114323
115096
115882
116557
117111
117681
117969
118229
118205
117941
117672
117439
117089
116545
115988
115430
114881
114310
113734
113114
112571
112063
111479
110952
110430
92532.2
92530.3
92527.6
92523.8
92519.1
92513.5
92507.2
92500.2
92492.8
92484.9
92476.8
92468.7
92461
92453.9
92447.5
92442
92437.6
92435
92433.3
92433.8
92436.8
92442.6
92451.7
92464.5
92481.1
92502.1
92527.6
92557.9
92593.4
92634.6
92681.9
92735.7
92796.5
92865
92941.7
93027.9
93123.5
93228.9
93344.4
93470.1
93606.2
93752.5
93908.9
94075.1
94251.4
94437.8
94634.3
94841.2
95058.1
95284.9
95521.6
95768.2
96023.4
96286.2
96556
96832.6
97115.7
97403.3
97692.8
97983.7
98275.6
98568.1
98859.9
99149.9
99437.2
99720.7
99998.9
100271
100537
100795
101045
101287
101519
101741
101953
102154
102344
102523
102691
102849
102995
103131
103257
103372
103476
103571
103656
103732
103797
103853
103898
103933
103958
103973
103976
103967
103946
103913
103871
103820
103760
103695
103619
103535
103443
103343
103235
103122
103005
102886
102764
102638
102512
102386
102260
102140
102028
101926
101834
101757
101694
101646
101615
101600
101600
101616
101659
101730
101825
101960
102124
102308
102528
102789
103064
103378
103717
104074
104481
104917
105357
105812
106285
106768
107279
107801
108329
108896
109482
110083
110708
111389
112076
112810
113534
114291
115018
115892
116584
117244
117790
118086
118341
118285
117963
117689
117433
117002
116550
116000
115403
114788
114218
113622
112965
112387
111833
111214
110661
110088
92720
92717.3
92713.4
92707.9
92701.1
92693.1
92683.8
92673.5
92662.6
92651
92638.9
92626.7
92614.8
92603.5
92592.9
92583.1
92574.4
92567
92562.7
92559.2
92558.1
92560
92565.3
92574.3
92587.3
92604.6
92626.6
92653.6
92685.9
92723.8
92767.8
92818.5
92876.4
92941.5
93015
93097.8
93190
93292
93404.1
93526.6
93659.5
93802.9
93956.4
94119.8
94293.4
94477.4
94671.2
94875.2
95089.7
95313.9
95547.4
95789.6
96040.9
96300.2
96565.9
96838.1
97116.8
97400.6
97686.6
97973.5
98260.9
98548.7
98836.3
99122.2
99405.3
99684.5
99958.7
100227
100488
100742
100988
101226
101454
101673
101882
102080
102267
102444
102610
102766
102910
103045
103169
103283
103387
103481
103565
103640
103705
103760
103805
103839
103863
103877
103880
103870
103848
103814
103770
103717
103656
103587
103508
103419
103321
103214
103100
102980
102856
102729
102597
102462
102326
102189
102052
101920
101795
101679
101574
101484
101409
101349
101304
101277
101268
101281
101316
101382
101475
101606
101765
101951
102177
102434
102711
103025
103350
103698
104117
104540
104978
105443
105909
106399
106913
107439
107963
108543
109152
109765
110402
111083
111799
112539
113288
114057
114765
115660
116348
117107
117573
117922
118171
118055
117750
117520
117206
116755
116353
115796
115196
114512
113964
113355
112671
112055
111461
110816
110247
109631
92935.9
92932.1
92926.6
92918.8
92909.2
92898
92885.2
92870.9
92855.5
92839.5
92823
92806.2
92789.6
92773.5
92758.1
92743.4
92729.9
92717.8
92707.2
92700.1
92695.5
92693.7
92695
92700
92709
92722.5
92740.7
92764.1
92792.8
92827.3
92867.8
92914.8
92968.5
93030.6
93101.6
93181.5
93270.4
93369.1
93477.6
93596.5
93726
93866.1
94016.2
94176.6
94346.9
94527.3
94718.4
94918.9
95129.8
95351
95581
95819
96065.6
96320.4
96580.8
96847.2
97121.2
97400.9
97682.1
97963.3
98245.7
98529
98811.7
99092.5
99369.9
99643.3
99912.5
100176
100433
100682
100923
101156
101379
101594
101798
101993
102177
102351
102514
102668
102811
102943
103066
103179
103281
103374
103458
103532
103596
103651
103694
103729
103752
103765
103766
103756
103734
103700
103654
103600
103536
103463
103379
103284
103181
103068
102945
102817
102685
102549
102407
102262
102113
101964
101812
101666
101529
101398
101278
101172
101079
101005
100947
100907
100887
100892
100921
100980
101071
101194
101348
101541
101766
102006
102281
102592
102906
103259
103673
104074
104518
104988
105441
105938
106442
106972
107500
108080
108698
109318
109956
110628
111370
112096
112869
113594
114346
115154
115899
116670
117100
117526
117712
117590
117342
117134
116782
116364
115977
115401
114794
114041
113531
112915
112216
111561
110943
110281
109687
109067
93183.4
93178.1
93170.7
93159.9
93146.3
93130.7
93113.3
93094.2
93073.4
93051.8
93029.8
93007.6
92985.5
92964
92943.4
92923.8
92905.5
92888.7
92873.6
92860.7
92850.6
92843.6
92840.2
92840.8
92845.7
92855.3
92869.8
92889.6
92914.8
92945.9
92983.2
93027.5
93078.2
93137.2
93204.8
93281.1
93366.7
93461.9
93566.7
93681.8
93807.6
93943.9
94090.2
94246.8
94413.4
94589.5
94776.5
94973.4
95179.9
95397.1
95623.6
95857.3
96098.7
96348.2
96603
96863
97130
97403
97679.1
97955.2
98231.4
98508.4
98785
99059.8
99331.2
99598.4
99860.8
100118
100369
100612
100847
101074
101293
101502
101702
101892
102072
102243
102403
102553
102694
102824
102944
103056
103157
103249
103331
103404
103468
103521
103564
103597
103621
103633
103633
103623
103600
103566
103519
103463
103396
103318
103228
103129
103019
102898
102768
102631
102489
102342
102189
102032
101871
101707
101540
101378
101225
101078
100941
100818
100710
100621
100548
100495
100461
100452
100475
100527
100613
100730
100881
101068
101280
101515
101790
102094
102399
102755
103146
103537
103989
104445
104885
105382
105876
106409
106940
107510
108119
108740
109369
110040
110780
111488
112268
112931
113731
114426
115242
115951
116444
116846
116989
116923
116709
116509
116190
115806
115399
114814
114190
113425
112936
112289
111585
110901
110276
109606
108991
108369
93467
93458.8
93448.1
93433.4
93414.7
93393.3
93369.7
93344.2
93317.2
93288.9
93260.2
93231.3
93202.7
93174.8
93148
93122.5
93098.6
93076.7
93056.8
93039
93023.8
93011.7
93002.9
92998.2
92998
93002.8
93012.8
93028.4
93049.9
93077.9
93111.3
93152.8
93201.5
93257.9
93322.4
93395.7
93477.9
93569.5
93670.7
93781.8
93903.4
94035.1
94177.1
94329.2
94491.5
94663.2
94845.6
95038.1
95239.3
95451.1
95673
95902.3
96138.2
96381.3
96629.8
96883.3
97143.7
97409.5
97677.5
97946.2
98216.3
98486.9
98756.2
99023.2
99286.8
99546.8
99802.2
100052
100296
100532
100761
100981
101194
101397
101592
101777
101952
102118
102274
102420
102557
102684
102802
102910
103011
103101
103182
103253
103316
103369
103411
103443
103465
103477
103477
103466
103443
103407
103360
103301
103231
103148
103053
102948
102831
102702
102563
102417
102264
102104
101939
101768
101593
101414
101232
101053
100880
100715
100562
100423
100299
100192
100102
100031
99981.7
99963.5
99978.5
100021
100097
100207
100353
100532
100735
100974
101246
101539
101829
102185
102553
102944
103382
103809
104252
104743
105225
105753
106274
106831
107423
108030
108650
109319
110025
110722
111469
112109
112916
113563
114383
115016
115562
115897
116052
116044
115877
115695
115429
115052
114618
114033
113405
112662
112154
111484
110772
110088
109437
108775
108146
107511
93739.1
93728.2
93714.1
93694.3
93669.9
93641.9
93611.1
93578.3
93544.2
93509.2
93473.8
93438.7
93403.9
93370
93337.2
93305.9
93276.4
93249.2
93224.5
93202.3
93183
93166.8
93154
93145.2
93140.8
93141.2
93147.2
93159.4
93176
93200.8
93232.4
93271.2
93317.5
93371.6
93433.6
93504.2
93583.5
93672.1
93770.1
93877.8
93995.7
94123.5
94261.5
94409.7
94567.9
94735.5
94913.7
95102.2
95299.2
95506
95722.4
95945.8
96175.4
96412.3
96655.5
96903.9
97157.5
97415.9
97677
97939.2
98202.2
98465.7
98727.8
98987.6
99244.3
99496.8
99744.8
99987.2
100224
100453
100676
100890
101096
101294
101483
101663
101833
101994
102145
102287
102419
102544
102658
102763
102861
102949
103028
103098
103160
103211
103252
103282
103304
103315
103315
103303
103279
103242
103192
103130
103056
102970
102870
102759
102635
102497
102349
102194
102030
101858
101680
101496
101305
101111
100915
100719
100529
100346
100176
100020
99878.8
99753.1
99644.7
99558.9
99496.7
99468.4
99470.7
99503.5
99570.1
99667.6
99803.7
99980.2
100180
100408
100672
100950
101250
101579
101939
102312
102725
103142
103594
104069
104530
105040
105548
106090
106663
107245
107856
108511
109161
109849
110544
111183
111955
112614
113370
113946
114483
114786
114959
115014
114898
114737
114497
114108
113654
113092
112469
111747
111169
110510
109789
109123
108443
107782
107137
106491
93968
93955.2
93938
93913.7
93884.2
93850.4
93813
93773.4
93732.6
93691.4
93650.3
93609.6
93569.9
93531.3
93494
93458.4
93424.6
93392.9
93363.9
93337.7
93314.7
93295.1
93279.2
93267.1
93259.6
93256.6
93259.4
93268.3