/*--------------------------------*- C++ -*----------------------------------*\
| =========                 |                                                 |
| \\      /  F ield         | OpenFOAM: The Open Source CFD Toolbox           |
|  \\    /   O peration     | Version:  dev                                   |
|   \\  /    A nd           | Web:      http://www.openfoam.org               |
|    \\/     M anipulation  |                                                 |
\*---------------------------------------------------------------------------*/
FoamFile
{
    version     2.0;
    format      ascii;
    class       volScalarField;
    object      p_0;
    location    "9.159";
}
// * * * * * * * * * * * * * * * * * * * * * * * * * * * * * * * * * * * * * //

dimensions      [1 -1 -2 0 0 0 0];

internalField   nonuniform List<scalar> 
12225
(
99663.1
99625.9
99559
99467.7
99345
99201.6
99032.5
98849.6
98645.2
98436.9
98197.5
97977.5
97709.3
97493.4
97168.5
96884.3
96496.2
96005.1
99662.1
99628.7
99562.7
99472
99349.1
99205.2
99036.2
98853.4
98649.3
98441.3
98200.4
97982.3
97711.8
97493.6
97170
96883.5
96508.5
96082.1
99667.1
99636.1
99570.6
99479.4
99356.7
99212.5
99043.9
98861.8
98655.5
98451.6
98206.5
97994.2
97718.6
97496.7
97181.8
96895.4
96542.4
96145.5
99676.8
99648.4
99583.7
99492.2
99369.7
99226
99058.1
98874.9
98671.7
98464.2
98228.7
98004.6
97744.4
97503.5
97203.3
96926.6
96594.1
96227.2
99695.1
99667.5
99603.5
99512
99389.7
99246.7
99079
98896.8
98695.7
98486.3
98258
98028
97778.4
97529.4
97241.9
96978.2
96662.7
96357.2
99719.2
99696.3
99631.4
99539.8
99418.3
99275.7
99108.8
98927.5
98727.2
98518.8
98292.4
98064.3
97820.9
97573
97305
97048.1
96779.4
96461.7
99756.6
99734
99669.9
99578.4
99458
99315.6
99150.4
98969.4
98772.2
98564.1
98344
98115.6
97878.1
97634.5
97383.7
97135.1
96903.2
96543.5
99800.4
99777.5
99714.1
99622.5
99503.3
99361.1
99197.5
99017.3
98822.4
98615.8
98399.8
98173.8
97941.8
97703.3
97461.7
97216.8
96992.5
96682.6
99850.5
99824.7
99762.1
99670.4
99552.3
99410.5
99248.4
99069.3
98876.5
98671.7
98458.5
98236
98008.6
97775.8
97541.8
97303.4
97073.9
96812.3
99914.5
99887.8
99826
99734.4
99617.4
99476.2
99315.8
99138.1
98947.9
98745.3
98535.6
98317.3
98095.1
97869
97642.9
97414.6
97193.3
96961.6
100000
99972.1
99910.7
99819.5
99703.5
99563.4
99405.3
99229.1
99041.5
98842.2
98636.5
98423.2
98207.1
97988.4
97770.9
97552.8
97342
97131
100112
100084
100023
99932.3
99817.2
99678.5
99522
99348.7
99164
98968.7
98767.5
98560.2
98351.1
98140.4
97931.5
97724.6
97524.2
97328.8
100270
100233
100171
100081
99966.4
99829.6
99675.1
99504.9
99323.7
99133.1
98936.9
98736.3
98534.5
98332.5
98132.4
97936.6
97746.6
97563.2
100462
100425
100363
100274
100161
100026
99874.1
99707.4
99530
99344.5
99154
98960.4
98766.1
98572.6
98381.9
98195.9
98015.6
97842.2
100691
100670
100612
100524
100413
100280
100130
99966.8
99793.6
99613.4
99428.8
99242
99055.1
98869.8
98687.7
98510.2
98338.5
98173.3
100994
100982
100928
100842
100732
100601
100454
100294
100125
99949.2
99770.3
99589.8
99409.7
99231.6
99056.8
98886.5
98721.6
98562.8
101391
101376
101322
101237
101128
100998
100853
100695
100530
100359
100185
100009
99834.9
99662.4
99493.2
99328.3
99168.4
99014.2
101854
101821
101762
101676
101566
101437
101293
101138
100975
100806
100636
100464
100293
100124
99957.6
99795.7
99638.5
99486.6
102264
102231
102170
102083
101973
101843
101700
101545
101383
101217
101047
100877
100708
100540
100375
100214
100058
99906.4
102595
102571
102510
102422
102311
102182
102038
101884
101723
101557
101388
101218
101049
100881
100717
100556
100399
100247
102886
102849
102785
102696
102584
102455
102311
102157
101996
101830
101661
101491
101322
101154
100989
100827
100670
100517
103101
103067
103002
102911
102799
102669
102525
102372
102210
102044
101875
101704
101535
101367
101201
101039
100881
100727
103262
103234
103169
103077
102964
102834
102690
102536
102374
102208
102038
101868
101697
101529
101363
101200
101041
100887
103391
103361
103294
103201
103087
102957
102813
102659
102497
102330
102160
101989
101819
101650
101483
101320
101160
101005
103486
103454
103386
103291
103177
103047
102903
102748
102586
102419
102249
102078
101907
101738
101571
101407
101247
101091
103557
103521
103450
103355
103241
103110
102966
102811
102649
102482
102312
102140
101969
101800
101632
101468
101308
101152
103605
103566
103494
103398
103283
103153
103008
102854
102692
102524
102354
102182
102011
101841
101674
101510
101349
101193
103635
103595
103521
103425
103310
103179
103035
102880
102718
102551
102380
102209
102037
101867
101700
101535
101375
101218
103658
103612
103537
103440
103325
103194
103050
102895
102733
102565
102395
102224
102052
101882
101714
101550
101389
101233
103670
103620
103543
103447
103332
103200
103056
102901
102739
102572
102401
102230
102058
101888
101721
101556
101396
101239
90382.4
90385.4
90391.6
90400.9
90413.5
90429.4
90448.6
90471.3
90497.5
90527.2
90560.5
90597.4
90638.1
90682.4
90730.4
90782.2
90837.8
90897.2
90960.4
91027.4
91098.4
91173.5
91252.5
91335.4
91422.2
91513.4
91609.6
91710.5
91815.2
91923.8
92036.2
92153
92274.6
92402.2
92540
92682.8
92829.4
92982.6
93142.2
93308.2
93480.6
93659.6
93845.4
94038.1
94237.8
94444.5
94658.2
94878.7
95105.9
95339.6
95579.2
95824.6
96075.3
96331
96590.6
96853.7
97119.7
97388.2
97658.5
97928.7
98198.7
98468
98735.8
99001
99262.8
99520.3
99772.5
100019
100258
100489
100711
100924
101127
101319
101501
101671
101830
101977
102113
102238
102352
102455
102548
102630
102703
102767
102822
102868
102906
102936
102960
102978
102988
102992
102990
102982
102966
102943
102912
102872
102823
102764
102696
102618
102530
102432
102324
102201
102062
101911
101751
101584
101412
101236
101055
100874
100695
100521
100352
100187
100029
99880.7
99749
99634.9
99539.2
99462.9
99400.1
99357
99336.3
99325.8
99328.3
99348.6
99385.7
99441.4
99517.5
99615.1
99729.9
99860.7
100002
100147
100292
100433
100566
100686
100787
100861
100899
100899
100862
100794
100700
100576
100412
100198
99942.4
99668.2
99392.9
99134.5
98880.9
98651.2
98479.6
98355.2
98270.8
98219.5
98203.8
98145.7
98184.8
98293.6
98446.9
98636.2
98737.2
98946.8
99309.4
99691.4
100024
100302
100549
100867
101259
101712
90394.7
90397.7
90403.8
90413.1
90425.5
90441.1
90460.1
90482.5
90508.3
90537.7
90570.7
90607.2
90647.4
90691.3
90738.9
90790.2
90845.2
90904.1
90966.7
91033.1
91103.3
91177.7
91256.1
91338.2
91423.7
91514
91609.9
91712.5
91816.9
91925.4
92036.9
92152.8
92274
92401.3
92535.6
92676.6
92823.8
92977.3
93136.9
93302.8
93475.1
93654
93839.7
94032.4
94232.1
94438.9
94652.6
94873.1
95100.3
95334
95573.8
95819.2
96069.9
96325.3
96585
96848.2
97114.3
97382.6
97652.4
97922.8
98192.7
98462.1
98729.9
98995.2
99257
99514.5
99766.8
100013
100252
100483
100706
100919
101122
101314
101496
101666
101825
101972
102109
102234
102347
102451
102543
102626
102699
102763
102818
102863
102901
102931
102955
102972
102982
102985
102982
102973
102956
102932
102900
102859
102807
102746
102677
102598
102507
102408
102299
102175
102035
101885
101726
101560
101389
101212
101031
100851
100673
100502
100336
100175
100020
99874.9
99744.9
99630.9
99538.1
99465.9
99409.9
99368.1
99348.2
99342.8
99348.9
99373.5
99413.7
99472.5
99552.2
99654.4
99774.3
99910.6
100058
100211
100363
100510
100650
100779
100888
100971
101018
101027
100998
100939
100855
100743
100591
100385
100132
99861.6
99591.6
99346
99103.5
98870.1
98701.2
98584.2
98501.6
98455.4
98460.8
98362.9
98402.1
98509.6
98680.1
98872.3
98962.9
99144.2
99491.9
99863.2
100178
100441
100677
100977
101357
101796
90419.6
90422.5
90428.5
90437.6
90449.7
90465
90483.5
90505.3
90530.5
90559.3
90591.5
90627.4
90666.8
90709.8
90756.6
90806.8
90860.7
90918.7
90980.1
91044.9
91113.4
91186.3
91263.5
91344.2
91430
91521.7
91615.1
91712.6
91814.1
91920
92031.5
92148.5
92270.7
92398.1
92531.1
92670.4
92816.2
92968.6
93127.3
93292.5
93464.4
93643
93828.4
94020.9
94220.6
94427.3
94640.9
94861.4
95088.7
95322.3
95562.1
95807.6
96058.3
96313.4
96573
96836.2
97102.2
97370.2
97639.4
97910.6
98180.7
98449.8
98717.4
98982.7
99244.6
99502.2
99754.5
100001
100240
100471
100694
100907
101111
101303
101485
101656
101815
101962
102099
102224
102338
102441
102534
102617
102690
102753
102808
102853
102890
102920
102943
102959
102968
102970
102965
102954
102936
102909
102874
102830
102777
102713
102640
102557
102463
102361
102250
102126
101987
101837
101678
101512
101341
101163
100984
100806
100632
100465
100303
100148
100000
99862.5
99736.6
99621.5
99534.6
99469.8
99429.3
99389.3
99369.2
99372
99387.9
99422.2
99469.5
99533.4
99619.3
99729.7
99858.5
100005
100165
100332
100500
100663
100819
100963
101090
101191
101258
101284
101272
101232
101170
101085
100963
100776
100533
100271
100014
99796.3
99581.1
99331.6
99159.8
99052.1
98965.9
98920.6
98968
98821.6
98833.7
98937.2
99130.9
99342.4
99417.6
99570.7
99874.5
100188
100468
100696
100917
101190
101548
101974
90456.8
90459.6
90465.4
90474.2
90485.9
90500.6
90518.4
90539.5
90564
90591.9
90623.3
90658.1
90696.5
90738.4
90784
90833
90885.6
90941.8
91001.1
91063.8
91130.5
91201.5
91275.9
91353.8
91435.8
91521.8
91615.1
91712.9
91814.4
91919.8
92029.7
92145
92265.6
92391.8
92523.8
92661.9
92806.4
92957.4
93115
93279.4
93450.5
93628.5
93813.5
94005.6
94204.9
94411.2
94624.5
94844.8
95071.7
95305.2
95544.9
95790.2
96040.8
96296.2
96555.8
96818.8
97084.6
97352.4
97622.1
97892.6
98162.5
98431.6
98699.1
98964.3
99226.1
99483.7
99736.1
99982.5
100222
100453
100676
100890
101094
101287
101469
101640
101799
101947
102084
102209
102323
102427
102520
102603
102675
102739
102793
102838
102875
102904
102926
102941
102948
102948
102940
102926
102905
102875
102836
102789
102731
102662
102586
102499
102402
102297
102183
102057
101918
101767
101607
101441
101270
101093
100916
100742
100570
100408
100253
100107
99970.2
99842.3
99726.2
99607
99527
99469.4
99450.1
99417.8
99398.1
99407.7
99437.5
99486.5
99546.6
99619.3
99715.2
99837.6
99978.2
100137
100313
100502
100694
100883
101064
101233
101385
101515
101611
101666
101675
101657
101625
101578
101506
101364
101143
100895
100658
100468
100281
100023
99845.8
99754.5
99681.7
99634.1
99699.9
99563.3
99515.7
99585.4
99762.7
100012
100080
100201
100412
100649
100868
101040
101240
101494
101822
102221
90506.6
90509.3
90514.8
90523.1
90534.3
90548.3
90565.4
90585.7
90609.2
90636.3
90666.5
90700.1
90737.3
90778.1
90822.2
90869.5
90920.2
90974.1
91030.8
91090.7
91154.1
91221.4
91294.3
91371
91451.5
91536
91625.2
91719.2
91817.8
91921
92029
92142.1
92260.9
92385.5
92516.1
92652.9
92795.9
92945.5
93101.7
93264.8
93434.7
93611.6
93795.8
93987.1
94185.7
94391.4
94604.2
94824
95050.5
95283.6
95523
95768.1
96018.7
96274.3
96533.9
96796.9
97062.6
97330.5
97600
97869.9
98139.5
98408.4
98675.7
98940.7
99202.3
99459.8
99712.1
99958.4
100198
100429
100653
100866
101070
101264
101447
101619
101779
101927
102064
102189
102304
102408
102501
102584
102657
102720
102774
102819
102856
102884
102904
102916
102922
102920
102909
102891
102866
102832
102788
102735
102672
102599
102518
102427
102325
102216
102098
101969
101828
101676
101516
101350
101180
101005
100829
100657
100491
100335
100188
100052
99926.6
99809.4
99722.7
99587.7
99520
99465.1
99466
99450
99438.9
99453.2
99496.1
99561.8
99638
99722.9
99832.8
99974.1
100132
100307
100501
100715
100936
101157
101372
101573
101760
101928
102065
102159
102195
102206
102211
102202
102184
102113
101941
101717
101503
101335
101172
100930
100754
100670
100626
100572
100668
100575
100482
100455
100588
100852
100951
101009
101087
101225
101373
101481
101634
101872
102167
102527
90569.9
90572.3
90577.4
90585.2
90595.6
90608.8
90625
90644.5
90667.1
90692.9
90721.9
90754.3
90790
90829
90871.3
90916.4
90964.5
91015.4
91069.2
91126.6
91187.9
91253.5
91321.9
91394.8
91472
91553.6
91639.4
91730
91825.4
91925.8
92031.4
92142.4
92259
92381.6
92510.1
92644.8
92785.8
92933.4
93087.9
93249.3
93417.7
93593.4
93776.4
93966.8
94164.4
94369.3
94581.3
94800.4
95026.2
95258.7
95497.5
95742.4
95993
96248.7
96508.4
96771.3
97037
97304.6
97573.6
97843.3
98112.8
98381.4
98648.5
98913.1
99174.5
99431.6
99683.6
99929.5
100169
100400
100624
100838
101042
101236
101419
101591
101752
101901
102039
102165
102280
102384
102477
102560
102633
102696
102750
102795
102832
102859
102877
102888
102890
102885
102872
102849
102819
102780
102730
102671
102602
102524
102437
102340
102234
102119
101997
101865
101722
101568
101407
101240
101072
100902
100725
100559
100400
100250
100111
99984.5
99869.6
99763
99697.4
99590.8
99528.7
99478.7
99469.6
99480.6
99485.7
99512.4
99564.9
99648.7
99745.1
99845.5
99970.6
100134
100317
100512
100727
100966
101219
101472
101726
101968
102194
102407
102591
102742
102829
102874
102918
102948
102975
102985
102897
102715
102526
102376
102250
102073
101891
101780
101759
101724
101787
101736
101649
101548
101609
101815
101942
101932
101879
101900
101966
102017
102115
102318
102575
102890
90647.4
90649.3
90654.3
90661.2
90670.7
90683
90698.3
90716.7
90738.2
90762.7
90790.2
90820.9
90854.6
90891.3
90930.7
90973
91018.2
91066.1
91117
91171.1
91228.9
91290.4
91355.7
91425.1
91498.8
91576.8
91659.3
91746.5
91838.6
91936
92038.7
92146.9
92260.8
92380.6
92506.3
92638.3
92776.8
92922.3
93074.8
93234.4
93401.5
93575.9
93757.5
93946.6
94143.1
94346.8
94557.6
94775.6
95000.4
95232
95469.9
95714.2
95964.3
96219.8
96479.2
96741.9
97008.1
97275.5
97544.2
97813.5
98082.8
98351.3
98618.1
98882.5
99143.4
99400.1
99651.6
99897.1
100136
100367
100590
100804
101009
101203
101387
101560
101721
101870
102008
102135
102251
102355
102450
102533
102606
102669
102722
102767
102803
102829
102846
102854
102854
102845
102828
102801
102765
102720
102665
102600
102525
102439
102345
102242
102130
102010
101883
101746
101601
101445
101282
101115
100950
100785
100611
100450
100296
100153
100024
99907.4
99805
99717.7
99662.9
99585
99534.7
99497.8
99480.6
99506.8
99530.7
99577.3
99641.3
99740.9
99860.3
99987.1
100132
100315
100525
100744
100985
101250
101536
101823
102107
102389
102656
102912
103143
103358
103537
103646
103730
103796
103857
103941
103967
103858
103698
103569
103481
103450
103232
103088
103067
103049
103056
103026
102973
102840
102833
102922
102978
102923
102755
102662
102640
102633
102690
102842
103040
103298
90740.7
90741.6
90745.7
90752
90760.8
90772.2
90786.4
90803.5
90823.5
90846.1
90871.7
90900.1
90931.4
90965.2
91001.4
91040.3
91082.1
91126.7
91173.7
91224.4
91278.5
91336.3
91398
91463.6
91533.3
91607.5
91686.3
91770
91858.7
91952.5
92051.7
92156.4
92266.9
92383.3
92505.9
92635.1
92771.3
92914.5
93064.9
93222.7
93388
93560.7
93740.7
93928.3
94123.2
94325.3
94534.7
94751.2
94974.5
95204.9
95441.9
95685
95934.2
96188.7
96448.1
96711
96976.8
97244.1
97512.4
97781.3
98050.2
98318.4
98584.9
98848.9
99109.4
99365.5
99616.5
99861.5
100100
100330
100553
100767
100971
101166
101350
101523
101685
101835
101974
102101
102217
102322
102417
102501
102574
102637
102690
102734
102769
102794
102809
102815
102812
102800
102779
102748
102706
102654
102592
102521
102440
102346
102244
102134
102017
101891
101757
101616
101468
101310
101146
100980
100818
100655
100489
100331
100183
100049
99929.1
99822.9
99733.7
99661.4
99622.8
99559.2
99514
99504.2
99499
99530.4
99577.6
99645.2
99728.2
99836.5
99972.8
100129
100301
100503
100741
100988
101258
101553
101873
102201
102511
102825
103129
103427
103704
103972
104252
104459
104601
104716
104820
104951
105093
105101
104991
104890
104829
104920
104715
104544
104493
104423
104484
104495
104477
104322
104227
104159
104077
103964
103689
103488
103389
103329
103344
103439
103559
103742
90849.7
90850.4
90853.8
90859.3
90867.1
90877.4
90890.1
90905.4
90923.3
90943.9
90967
90992.8
91021.3
91051.7
91084.3
91119.5
91157.5
91196.7
91240.2
91287.2
91337.5
91391.4
91449
91510.6
91576.5
91646.9
91722
91801.7
91886.4
91976.1
92071.2
92172.1
92278.8
92391.7
92511.2
92637.6
92771.1
92911.9
93059.7
93215.3
93378.3
93549
93727.2
93912.8
94105.8
94306.2
94513.8
94728.8
94950.9
95179.9
95416
95657.8
95905.4
96157.9
96419.6
96680.6
96944.9
97211.7
97479.7
97748.1
98016.4
98283.9
98549.8
98813.2
99073
99328.3
99578.5
99823
100061
100291
100513
100727
100931
101125
101309
101483
101645
101795
101935
102063
102180
102286
102381
102465
102539
102602
102655
102698
102732
102756
102769
102773
102767
102752
102727
102690
102642
102584
102515
102436
102347
102247
102136
102020
101897
101765
101625
101479
101327
101168
101003
100838
100678
100518
100359
100207
100065
99938.5
99828.4
99732.2
99655.8
99594.2
99562.3
99525.6
99486.6
99494.9
99508.9
99548.3
99617.5
99699.2
99805.6
99927
100079
100263
100472
100696
100957
101236
101535
101860
102210
102582
102927
103275
103619
103958
104287
104591
104941
105253
105480
105661
105836
106008
106237
106391
106370
106304
106281
106368
106319
106179
105992
105902
106019
106176
106121
105896
105647
105403
105214
105009
104654
104360
104193
104089
104047
104078
104115
104207
90976.6
90976.6
90979.3
90984.1
90990.7
90999.3
91010.1
91023.2
91038.7
91056.7
91077.1
91099.9
91124.6
91150.8
91179.3
91210.4
91243.1
91279.8
91319.5
91362.2
91408.2
91457.8
91511.2
91568.6
91630.2
91696.3
91766.9
91842.4
91922.7
92008.3
92099.3
92196
92298.8
92408
92523.9
92647.1
92777.6
92914.8
93060.3
93213.3
93374
93542.4
93718.4
93901.9
94092.9
94291.5
94497.4
94710.5
94930.9
95158.6
95393
95633.5
95880
96133.1
96390
96650.5
96913.9
97179.6
97447
97714.7
97982.4
98249
98514
98776.6
99035.7
99290.3
99539.4
99782.7
100019
100249
100471
100684
100888
101082
101266
101439
101601
101753
101892
102021
102139
102245
102341
102425
102499
102563
102615
102658
102691
102714
102726
102728
102719
102700
102670
102628
102575
102510
102435
102348
102251
102143
102026
101903
101773
101634
101488
101338
101183
101022
100857
100692
100534
100379
100223
100077
99943.9
99820.8
99720.5
99634.7
99569.6
99520.6
99493.3
99476
99459.4
99477.5
99504.8
99551.7
99643.4
99739
99864.7
100006
100182
100393
100634
100885
101167
101478
101808
102165
102536
102946
103335
103716
104106
104490
104879
105218
105597
105991
106322
106589
106846
107086
107373
107671
107786
107776
107803
107859
107973
108030
107633
107556
107584
107778
107646
107395
107013
106623
106333
106042
105634
105270
105032
104884
104770
104711
104671
104675
91121.2
91121.7
91123.8
91127.4
91132.6
91139.3
91147.9
91158.6
91171.4
91186.4
91203.6
91222.7
91243.1
91265
91289.1
91315.6
91344.9
91377.1
91412.3
91450.5
91491.9
91536.9
91585.7
91638.4
91695.5
91757
91823.1
91894
91969.7
92050.6
92137
92229.2
92327.9
92433.2
92545.4
92664.9
92791.5
92926.1
93068.5
93218.8
93376.9
93542.8
93716.4
93897.5
94086.2
94282.4
94486
94696.9
94915
95140.4
95372.8
95611.8
95857.6
96108.6
96364.1
96623.4
96886
97150.6
97416.7
97683
97949.3
98214.9
98478.7
98740.2
98998.2
99251.9
99500.2
99742.1
99977.5
100206
100427
100639
100842
101036
101220
101393
101555
101706
101846
101975
102093
102201
102297
102382
102456
102520
102572
102615
102647
102668
102678
102678
102667
102644
102610
102563
102504
102433
102350
102256
102151
102037
101914
101785
101648
101503
101351
101196
101037
100875
100709
100546
100390
100237
100086
99943.5
99816.4
99701.1
99606.5
99531.5
99474
99435.4
99415.4
99411.1
99411.8
99440
99488.5
99547.1
99652.7
99769
99910.8
100076
100278
100515
100778
101054
101358
101697
102057
102451
102846
103280
103715
104131
104564
104992
105439
105832
106234
106681
107107
107471
107814
108142
108479
108885
109168
109264
109336
109432
109609
109710
109451
109307
109252
109268
109053
108839
108357
107849
107435
107072
106612
106187
105881
105676
105496
105324
105205
105112
91286.2
91286.5
91287.8
91290.2
91293.8
91298.7
91304.9
91312.9
91322.8
91334.3
91347.6
91362.4
91378.4
91396.2
91416.2
91438.2
91462.6
91489.7
91519.8
91553
91589.5
91629.7
91673.5
91721.4
91773.6
91830.1
91891.3
91957.2
92028.2
92104.6
92186.6
92274.6
92368.9
92469.9
92578.2
92694.7
92816.5
92947.1
93086
93233.1
93388.4
93551.6
93722.6
93901.2
94087.2
94280.6
94481.5
94689.7
94905.5
95128.6
95359.3
95596.7
95839.9
96088.7
96342.7
96600.6
96861.9
97125.4
97390.1
97655
97919.1
98182.7
98444.8
98704.6
98961.2
99213.4
99460.4
99701.2
99935.4
100162
100381
100593
100795
100988
101171
101344
101506
101657
101798
101927
102045
102153
102249
102334
102409
102473
102526
102568
102599
102619
102628
102625
102611
102585
102547
102495
102429
102351
102262
102161
102051
101931
101803
101667
101524
101373
101215
101055
100893
100730
100565
100402
100248
100096
99948.1
99810.2
99687.2
99580
99491.3
99423
99372.8
99340.6
99328
99330.5
99350.6
99386.1
99449.6
99527.5
99638.4
99773.5
99933.1
100125
100350
100608
100889
101187
101516
101880
102269
102701
103130
103579
104051
104509
104979
105445
105939
106397
106844
107328
107823
108283
108712
109135
109530
110008
110448
110687
110839
110965
111193
111212
111186
111034
110910
110725
110444
110197
109581
108995
108495
108073
107558
107092
106711
106432
106193
105911
105698
105479
91472.1
91471.8
91472.3
91473.4
91475.4
91478.1
91482
91487
91493.3
91500.9
91509.8
91519.8
91531.3
91544.4
91559.3
91576.6
91596.2
91618.4
91643.3
91671.2
91702.4
91737.3
91776
91818.8
91865.8
91917.3
91973.6
92034.7
92100.8
92172.2
92249.3
92332.3
92421.7
92517.8
92620.9
92730.8
92850.7
92978.2
93113.8
93257.8
93410
93570.4
93738.5
93914.4
94097.6
94288.2
94486.3
94692
94905.2
95126
95353.9
95588.9
95830.2
96076.5
96327.8
96583.7
96843.2
97104.7
97367.1
97630.2
97892.5
98153.8
98413.5
98671
98925.5
99175.8
99420.9
99660
99892.5
100118
100336
100545
100747
100939
101121
101293
101454
101605
101746
101875
101993
102101
102198
102284
102358
102422
102476
102518
102548
102567
102574
102569
102553
102524
102481
102424
102353
102269
102173
102066
101950
101826
101693
101552
101403
101246
101084
100919
100754
100589
100424
100263
100108
99956.9
99811.1
99676.7
99558.4
99457.2
99372.9
99306.8
99261
99233.2
99227
99236.3
99270.5
99315.5
99385.3
99480.8
99601.9
99755.7
99935.9
100145
100382
100658
100955
101279
101636
102022
102436
102899
103360
103827
104327
104823
105331
105835
106363
106879
107380
107904
108448
108997
109505
110022
110497
111027
111564
111965
112237
112397
112680
112708
112747
112632
112378
112039
111718
111357
110666
110034
109474
109004
108445
107942
107483
107130
106825
106437
106116
105780
91680
91678.9
91678.3
91678
91678
91678.4
91679.3
91681
91683.4
91686.5
91690.6
91695.8
91702.5
91710.8
91720.8
91732.8
91747
91763.7
91783.2
91805.7
91831.4
91860.8
91894.1
91931.5
91973.2
92019.6
92070.6
92126.5
92187.6
92254.1
92326.2
92404.4
92489.1
92580.5
92679.2
92785.3
92900.1
93023.1
93154.6
93294.8
93443.5
93600.7
93765.5
93938.2
94118.4
94306.1
94501.4
94704.6
94915.3
95133.2
95358.3
95590.1
95828.7
96072.5
96320.6
96573.4
96830.8
97090.7
97350.6
97610.3
97869.7
98128.6
98386
98641
98892.9
99140.7
99383.2
99620.1
99850.4
100074
100290
100498
100697
100888
101069
101240
101400
101550
101691
101820
101938
102046
102143
102229
102304
102368
102421
102463
102493
102511
102516
102510
102492
102460
102413
102352
102276
102187
102085
101973
101852
101724
101586
101439
101285
101123
100956
100788
100620
100453
100288
100126
99970
99819.2
99674.8
99543.8
99427.4
99326.8
99242.8
99180.3
99137.2
99113.3
99110.9
99129.3
99166.3
99219.9
99301
99408.8
99540
99709.7
99907.4
100126
100379
100676
100988
101339
101718
102116
102558
103039
103522
104013
104532
105057
105604
106144
106691
107255
107816
108386
108971
109591
110172
110774
111332
111927
112481
113060
113426
113698
114014
114056
114125
114007
113612
113186
112828
112328
111668
111020
110390
109850
109251
108704
108169
107744
107364
106881
106463
106012
91911.5
91909.6
91907.7
91905.2
91902.8
91900.3
91897.8
91895.5
91893.6
91892.2
91891.2
91891.2
91892.5
91895.5
91900.3
91906.9
91915.7
91926.8
91940.6
91957.3
91977.4
92001.1
92028.7
92060.5
92096.8
92137.7
92183.5
92234.3
92290.4
92351.9
92419.1
92492.4
92572.2
92659
92753.8
92854.7
92964.4
93082.7
93209.7
93345.4
93490
93643.5
93804.7
93973.7
94150.6
94335.5
94528.2
94728.4
94936.6
95151.9
95373.9
95602.3
95837.5
96078.5
96323.3
96572.5
96826.4
97083.4
97340.8
97597.4
97853.4
98108.8
98363.1
98615.2
98864.1
99109
99348.8
99582.7
99810.4
100031
100244
100450
100647
100836
101015
101184
101344
101493
101632
101761
101880
101987
102084
102171
102245
102309
102362
102404
102433
102450
102454
102447
102426
102392
102342
102278
102198
102104
101999
101883
101758
101625
101482
101330
101170
101004
100832
100660
100490
100321
100155
99991.2
99833.4
99681.3
99537.1
99405.4
99289.1
99186.4
99103.4
99043.2
99000.9
98978.9
98977.1
98997.8
99039.5
99102.2
99188.5
99303.6
99445
99623.6
99830.4
100064
100339
100648
100979
101353
101740
102146
102623
103111
103608
104128
104661
105208
105785
106356
106917
107520
108139
108754
109382
110044
110698
111368
112000
112671
113219
113947
114360
114804
115078
115161
115274
115071
114601
114179
113740
113135
112519
111857
111195
110568
109952
109364
108756
108252
107792
107226
106714
106166
92168.5
92165.5
92161.9
92157.1
92151.5
92145.6
92139.1
92132.3
92125.3
92118.7
92112.6
92107.1
92102.8
92100
92099.1
92099.8
92102.6
92107.9
92115.7
92126.6
92140.7
92158.6
92180.4
92206.5
92237.1
92272.5
92312.9
92358.5
92409.4
92465.8
92527.9
92596.2
92671
92751.7
92839.1
92937.8
93043.9
93158.1
93280.7
93411.9
93552.1
93701.2
93858.5
94024.1
94197.4
94378.7
94568.4
94765.3
94970
95182.8
95401.9
95626.5
95857.8
96095.2
96335.8
96580.4
96830.7
97084.9
97338.8
97591
97843.3
98095.5
98346.5
98594.9
98839.6
99080.3
99316.7
99547.7
99772
99989.6
100200
100402
100596
100782
100959
101127
101285
101433
101571
101699
101817
101924
102021
102107
102182
102246
102298
102339
102368
102385
102388
102379
102357
102320
102268
102201
102118
102022
101913
101794
101665
101527
101379
101222
101057
100886
100710
100535
100362
100191
100023
99857.1
99696.2
99541.6
99394.2
99259.2
99142.8
99038.6
98954.9
98891.2
98844.9
98821.4
98820.7
98842.1
98885.1
98952.1
99042.2
99160.9
99312.8
99496.1
99709.4
99963.1
100254
100560
100905
101291
101685
102115
102610
103093
103609
104158
104694
105267
105856
106453
107038
107670
108335
108995
109658
110343
111075
111785
112496
113193
113795
114552
115059
115634
115851
116052
116142
115850
115385
114980
114439
113806
113220
112525
111839
111096
110510
109890
109219
108631
108088
107457
106855
106253
92454.4
92449.9
92444.3
92436.5
92426.9
92416.4
92405
92392.9
92380.2
92367.4
92355.3
92343.8
92333.4
92324.4
92317.3
92312.5
92309.1
92308.3
92309.8
92314.2
92322
92333.5
92349.2
92369.3
92394.1
92424
92459
92499.4
92545.2
92597.1
92652.8
92716.8
92787
92864.1
92948.6
93041.3
93142.4
93252
93369.8
93496.4
93632.2
93776.9
93929.9
94091.3
94260.8
94437.7
94623.6
94817.2
95018
95227.5
95443.8
95664.9
95891.8
96125.1
96361.3
96600.6
96845.3
97094.6
97345.1
97593.7
97841.4
98088.9
98335.6
98579.8
98820.4
99056.6
99288.1
99514.7
99735
99948.5
100155
100353
100545
100727
100902
101067
101222
101369
101506
101633
101750
101856
101952
102038
102113
102176
102228
102269
102298
102313
102315
102305
102282
102243
102189
102120
102036
101937
101826
101704
101571
101427
101274
101113
100944
100768
100589
100410
100234
100060
99888.5
99719.7
99555.9
99397.3
99244.9
99106.8
98986.3
98880.1
98791.3
98723.3
98672.8
98647.5
98645.3
98664.8
98703.7
98766.7
98861.2
98982.9
99141
99328.6
99550.5
99811.2
100100
100413
100772
101160
101565
102017
102505
102990
103535
104093
104626
105219
105815
106437
107050
107704
108396
109092
109778
110492
111285
112022
112806
113476
114179
114863
115523
116136
116400
116667
116696
116386
115926
115517
114941
114326
113744
113020
112292
111449
110916
110244
109523
108863
108237
107560
106895
106259
92773.4
92766.6
92758
92746.6
92732.4
92716.3
92698.8
92680
92660.5
92640.7
92621.2
92602.5
92584.8
92568.7
92554.4
92542.3
92533.4
92527.2
92522.3
92520.5
92521.9
92526.9
92535.8
92548.9
92567
92590.5
92618.6
92652.8
92693.3
92740.3
92793.4
92853.1
92919.6
92993
93073.6
93162.1
93258.6
93363.6
93477
93599.1
93730.1
93869.9
94018.3
94175.1
94340.4
94513
94694.5
94884.2
95080.4
95285.2
95498.1
95716
95938.6
96166.7
96397.9
96632.2
96872.1
97115.8
97359.9
97603.2
97846.7
98090
98331.3
98569.9
98804.7
99035.9
99262.5
99483.7
99699.4
99908.1
100110
100304
100492
100671
100842
101004
101157
101301
101436
101560
101676
101781
101876
101961
102036
102098
102150
102190
102219
102234
102234
102223
102199
102159
102103
102033
101947
101846
101733
101607
101471
101324
101166
101001
100827
100647
100465
100282
100102
99923.5
99747.5
99574.5
99406.7
99244.4
99087.1
98943.8
98815.2
98702.9
98609.7
98536.8
98481.6
98450
98441.1
98452.8
98485.9
98548.9
98643.9
98765.3
98921.8
99111.2
99338.4
99600.3
99889.7
100218
100586
100969
101382
101840
102317
102819
103372
103913
104460
105068
105667
106307
106936
107606
108312
109025
109729
110485
111303
112068
112881
113534
114327
114958
115739
116334
116707
116937
116944
116659
116205
115794
115244
114641
114046
113297
112530
111641
111146
110409
109643
108926
108228
107516
106817
106138
93073.7
93064.5
93052.6
93036.6
93016.9
92994.3
92969.7
92943.7
92917.2
92890.5
92864.2
92838.8
92814.6
92791.9
92771
92752.1
92735.8
92722.3
92713.7
92708.4
92705.9
92705.5
92709.1
92716.5
92728.9
92745.9
92768.1
92798.3
92834.6
92877.3
92926.5
92982.6
93045.4
93115.4
93192.9
93278.2
93371.4
93473
93582.7
93700.9
93828.1
93963.7
94108
94261
94422.3
94591.1
94768.9
94955.1
95147.7
95348.4
95556.8
95770
95987.7
96210.9
96438.3
96669
96903.5
97141.5
97380.6
97619.3
97857.8
98096
98332.2
98565.6
98795.7
99021.5
99243
99459.1
99669.7
99874.1
100072
100262
100445
100621
100788
100948
101098
101239
101371
101493
101606
101710
101803
101886
101960
102022
102073
102112
102141
102155
102155
102142
102117
102076
102020
101948
101861
101758
101643
101514
101374
101224
101063
100893
100716
100532
100345
100160
99975.2
99791.7
99610.8
99433.3
99258.9
99092.4
98931.5
98781.1
98645
98524.5
98425.9
98343.7
98280.5
98240.1
98222.6
98227.9
98254.9
98315.2
98403
98521.8
98676.8
98862.4
99086.9
99352.1
99647.8
99978.3
100342
100723
101147
101598
102067
102570
103105
103644
104220
104829
105420
106064
106698
107378
108091
108804
109530