/*--------------------------------*- C++ -*----------------------------------*\
| =========                 |                                                 |
| \\      /  F ield         | OpenFOAM: The Open Source CFD Toolbox           |
|  \\    /   O peration     | Version:  dev                                   |
|   \\  /    A nd           | Web:      http://www.openfoam.org               |
|    \\/     M anipulation  |                                                 |
\*---------------------------------------------------------------------------*/
FoamFile
{
    version     2.0;
    format      ascii;
    class       surfaceScalarField;
    object      phi;
    location    "9.159";
}
// * * * * * * * * * * * * * * * * * * * * * * * * * * * * * * * * * * * * * //

dimensions      [1 0 -1 0 0 0 0];

internalField   nonuniform List<scalar> 
24170
(
1.97186e-06
1.04506e-06
9.23469e-07
4.80493e-07
4.10929e-07
-2.20383e-08
1.3048e-07
-2.23426e-07
-6.18484e-08
-2.80296e-07
-1.08529e-07
-3.9629e-07
-2.26829e-07
-2.95999e-07
-1.38305e-07
-4.74474e-07
-2.12842e-07
-2.83788e-07
7.58604e-08
-6.19317e-07
4.33049e-08
-2.73374e-07
5.76326e-07
-8.12113e-07
8.34593e-07
-5.02893e-07
1.77325e-06
-1.16796e-06
2.54631e-06
-9.94e-07
5.93438e-06
-3.56655e-06
8.69741e-06
-2.92135e-06
-6.92532e-07
9.36321e-06
3.69362e-06
7.40035e-07
2.76718e-06
8.13375e-07
2.01674e-06
1.60508e-07
1.43987e-06
-1.82855e-07
1.04938e-06
-3.95205e-07
6.63702e-07
-4.83611e-07
4.44972e-07
-5.19641e-07
2.44884e-07
-6.86185e-07
1.09919e-07
-5.30755e-07
1.44306e-07
-1.00598e-06
1.88454e-07
-6.4477e-07
5.42129e-07
-1.46324e-06
1.11805e-06
-1.34346e-06
1.99009e-06
-2.28779e-06
2.94315e-06
-2.18303e-06
5.28141e-06
-6.11238e-06
5.30502e-06
-3.10121e-06
-1.22292e-06
5.745e-06
4.46458e-06
-3.35497e-08
4.03034e-06
5.94495e-07
3.54302e-06
2.17674e-08
3.05673e-06
-2.87354e-07
2.61722e-06
-5.13163e-07
2.24017e-06
-6.27611e-07
1.97335e-06
-7.41056e-07
1.66009e-06
-8.25902e-07
1.63703e-06
-9.30649e-07
1.52806e-06
-1.28323e-06
1.75604e-06
-1.23666e-06
2.01658e-06
-2.04724e-06
2.07157e-06
-1.69819e-06
2.77448e-06
-3.25786e-06
3.03018e-06
-2.68553e-06
4.05712e-06
-7.33794e-06
4.08366e-06
-3.30385e-06
3.8614e-08
2.67114e-06
4.72984e-06
-6.87688e-07
4.87745e-06
-2.71823e-07
4.55877e-06
-3.49045e-07
4.40006e-06
-7.77892e-07
3.95967e-06
-6.85836e-07
3.8237e-06
-1.0641e-06
3.46687e-06
-9.20688e-07
3.42015e-06
-1.27718e-06
3.18463e-06
-1.15903e-06
3.24318e-06
-1.76774e-06
3.06054e-06
-1.45021e-06
3.24579e-06
-2.59109e-06
3.10386e-06
-1.88455e-06
3.43614e-06
-3.89064e-06
3.27955e-06
-2.80693e-06
3.69923e-06
-7.94278e-06
3.8239e-06
-3.59116e-06
1.82361e-07
3.49659e-06
5.02031e-06
-1.04919e-06
5.51226e-06
-1.55352e-06
5.06586e-06
-6.60476e-07
5.13949e-06
-1.56506e-06
4.59758e-06
-8.16201e-07
4.66228e-06
-1.75675e-06
4.22424e-06
-1.07091e-06
4.38288e-06
-1.98177e-06
4.02512e-06
-1.30787e-06
4.19332e-06
-2.40373e-06
3.85734e-06
-1.54533e-06
3.91043e-06
-3.03927e-06
3.66406e-06
-1.99807e-06
3.64807e-06
-4.20837e-06
3.28148e-06
-2.75602e-06
2.86747e-06
-7.78157e-06
2.62714e-06
-3.53662e-06
-1.03382e-06
3.66121e-06
5.41314e-06
-1.44719e-06
5.53522e-06
-2.54217e-06
5.00919e-06
-9.63967e-07
5.14353e-06
-2.48298e-06
4.6948e-06
-1.10252e-06
4.77916e-06
-2.52925e-06
4.34684e-06
-1.28133e-06
4.52342e-06
-2.75617e-06
4.20566e-06
-1.54421e-06
4.45333e-06
-3.16341e-06
4.21197e-06
-1.7759e-06
4.35753e-06
-3.61722e-06
4.23155e-06
-2.26494e-06
4.45644e-06
-4.7912e-06
4.19252e-06
-2.82276e-06
2.9521e-06
-6.85086e-06
1.93457e-06
-2.74913e-06
-3.68699e-06
4.40907e-06
6.38757e-06
-2.21009e-06
6.31542e-06
-3.41772e-06
5.73384e-06
-1.28629e-06
5.73558e-06
-3.34045e-06
5.2934e-06
-1.46275e-06
5.29422e-06
-3.2801e-06
4.84717e-06
-1.53352e-06
4.91506e-06
-3.4744e-06
4.64415e-06
-1.87561e-06
4.84434e-06
-3.91977e-06
4.71531e-06
-2.15563e-06
4.88045e-06
-4.25176e-06
4.86814e-06
-2.67629e-06
4.88549e-06
-5.19361e-06
4.79208e-06
-3.06933e-06
3.62153e-06
-5.99262e-06
3.20027e-06
-2.57857e-06
-5.16799e-06
4.42392e-06
4.98181e-06
-2.99197e-06
4.81728e-06
-3.98558e-06
4.42537e-06
-1.59256e-06
4.35941e-06
-3.93431e-06
4.10544e-06
-1.82795e-06
4.0512e-06
-3.80346e-06
3.87186e-06
-1.89268e-06
3.75923e-06
-3.86159e-06
3.70922e-06
-2.2886e-06
3.64346e-06
-4.28081e-06
3.72466e-06
-2.62659e-06
3.71998e-06
-4.6055e-06
3.79544e-06
-3.07637e-06
3.60809e-06
-5.29945e-06
3.65359e-06
-3.37529e-06
3.07083e-06
-5.64096e-06
3.41219e-06
-3.11714e-06
-5.39998e-06
3.4432e-06
5.63185e-06
-3.65039e-06
5.4907e-06
-4.68934e-06
5.18052e-06
-2.08663e-06
4.94127e-06
-4.45463e-06
4.80225e-06
-2.40041e-06
4.57991e-06
-4.24528e-06
4.53502e-06
-2.46614e-06
4.35398e-06
-4.25386e-06
4.36513e-06
-2.82985e-06
4.18679e-06
-4.59123e-06
4.26679e-06
-3.15328e-06
4.13606e-06
-4.88281e-06
4.19858e-06
-3.5102e-06
3.91748e-06
-5.35338e-06
4.03592e-06
-3.79359e-06
3.58661e-06
-5.45966e-06
4.05111e-06
-3.81971e-06
-5.33581e-06
3.76315e-06
6.88791e-06
-4.38836e-06
6.43295e-06
-5.20313e-06
6.21308e-06
-2.78862e-06
5.71546e-06
-4.82741e-06
5.55497e-06
-3.05381e-06
5.17983e-06
-4.62847e-06
5.17211e-06
-3.16402e-06
4.92178e-06
-4.65717e-06
5.00667e-06
-3.51773e-06
4.77693e-06
-4.916e-06
4.92968e-06
-3.81368e-06
4.73732e-06
-5.15203e-06
4.87318e-06
-4.06582e-06
4.56131e-06
-5.42109e-06
4.76307e-06
-4.33572e-06
4.40791e-06
-5.40821e-06
4.73311e-06
-4.4184e-06
-5.21478e-06
4.36477e-06
7.81829e-06
-5.09276e-06
7.23852e-06
-5.72642e-06
7.16398e-06
-3.76435e-06
6.7012e-06
-5.35475e-06
6.6458e-06
-3.92272e-06
6.17858e-06
-5.0223e-06
6.12793e-06
-3.91167e-06
5.70683e-06
-4.97438e-06
5.69572e-06
-4.18634e-06
5.33907e-06
-5.18415e-06
5.4107e-06
-4.45562e-06
5.15587e-06
-5.41451e-06
5.26883e-06
-4.64746e-06
4.95728e-06
-5.53297e-06
5.15551e-06
-4.91447e-06
4.92172e-06
-5.51191e-06
5.19614e-06
-4.99794e-06
-5.30957e-06
5.01794e-06
9.11745e-06
-6.19974e-06
8.42518e-06
-6.27511e-06
8.24358e-06
-4.76501e-06
7.57307e-06
-5.79824e-06
7.45992e-06
-4.84929e-06
6.99073e-06
-5.51832e-06
7.00503e-06
-4.82019e-06
6.60826e-06
-5.40348e-06
6.60245e-06
-4.93807e-06
6.20865e-06
-5.48354e-06
6.2263e-06
-5.10531e-06
5.8959e-06
-5.65576e-06
5.9515e-06
-5.21723e-06
5.66009e-06
-5.70516e-06
5.78122e-06
-5.45186e-06
5.57548e-06
-5.67425e-06
5.79693e-06
-5.54745e-06
-5.57949e-06
5.77458e-06
1.05152e-05
-7.15334e-06
9.61636e-06
-6.75088e-06
9.36069e-06
-5.82524e-06
8.65126e-06
-6.32637e-06
8.46711e-06
-5.81829e-06
7.93287e-06
-6.05204e-06
7.81183e-06
-5.68545e-06
7.37957e-06
-5.87747e-06
7.2794e-06
-5.66738e-06
6.91814e-06
-5.8784e-06
6.88574e-06
-5.75816e-06
6.61248e-06
-5.99972e-06
6.69296e-06
-5.84929e-06
6.54635e-06
-6.05211e-06
6.58714e-06
-5.93273e-06
6.51057e-06
-5.98593e-06
6.54536e-06
-5.92414e-06
-5.86507e-06
6.53003e-06
1.21147e-05
-8.22961e-06
1.14013e-05
-7.53325e-06
1.09737e-05
-6.83261e-06
1.01069e-05
-6.80849e-06
9.59201e-06
-6.55733e-06
8.96134e-06
-6.57843e-06
8.65493e-06
-6.44248e-06
8.25892e-06
-6.45386e-06
8.06844e-06
-6.36143e-06
7.78763e-06
-6.39759e-06
7.66214e-06
-6.35393e-06
7.44419e-06
-6.42605e-06
7.41149e-06
-6.38736e-06
7.26928e-06
-6.41571e-06
7.25562e-06
-6.36418e-06
7.21131e-06
-6.33013e-06
7.22541e-06
-6.274e-06
-6.17298e-06
7.24138e-06
1.42259e-05
-9.48833e-06
1.31995e-05
-8.10586e-06
1.2412e-05
-7.56833e-06
1.16425e-05
-7.46662e-06
1.11178e-05
-7.35449e-06
1.0605e-05
-7.28102e-06
1.02137e-05
-7.16089e-06
9.80173e-06
-7.04851e-06
9.45293e-06
-6.92003e-06
9.09166e-06
-6.8478e-06
8.79279e-06
-6.77701e-06
8.47587e-06
-6.74603e-06
8.23018e-06
-6.69854e-06
8.00346e-06
-6.67176e-06
7.84321e-06
-6.62065e-06
7.70972e-06
-6.55338e-06
7.61027e-06
-6.47476e-06
-6.37863e-06
7.56473e-06
1.63806e-05
-1.00224e-05
1.52634e-05
-8.64833e-06
1.43621e-05
-8.22717e-06
1.34822e-05
-8.03708e-06
1.26508e-05
-7.85566e-06
1.18425e-05
-7.68826e-06
1.11243e-05
-7.54152e-06
1.05203e-05
-7.42974e-06
1.0051e-05
-7.32504e-06
9.66904e-06
-7.23443e-06
9.36635e-06
-7.14279e-06
9.10745e-06
-7.06184e-06
8.87716e-06
-6.95627e-06
8.67209e-06
-6.87416e-06
8.48012e-06
-6.76396e-06
8.31797e-06
-6.66113e-06
8.18165e-06
-6.551e-06
-6.45537e-06
8.0972e-06
1.95996e-05
-1.0343e-05
1.83401e-05
-9.01163e-06
1.70999e-05
-8.4925e-06
1.58369e-05
-8.15736e-06
1.46318e-05
-7.9048e-06
1.35531e-05
-7.73559e-06
1.2641e-05
-7.62815e-06
1.18763e-05
-7.53937e-06
1.12449e-05
-7.44647e-06
1.07106e-05
-7.33797e-06
1.02612e-05
-7.22171e-06
9.87533e-06
-7.10426e-06
9.56896e-06
-6.98541e-06
9.28916e-06
-6.84563e-06
9.09318e-06
-6.74326e-06
8.95136e-06
-6.62705e-06
8.83904e-06
-6.48796e-06
-6.36474e-06
8.75146e-06
1.8964e-05
-1.00962e-05
1.76942e-05
-8.99251e-06
1.64391e-05
-8.39804e-06
1.51963e-05
-7.96496e-06
1.40956e-05
-7.73539e-06
1.31999e-05
-7.65083e-06
1.24734e-05
-7.59323e-06
1.18422e-05
-7.48242e-06
1.12539e-05
-7.31896e-06
1.06988e-05
-7.13675e-06
1.01606e-05
-6.9368e-06
9.68902e-06
-6.79327e-06
9.28332e-06
-6.6563e-06
8.96212e-06
-6.5263e-06
8.67757e-06
-6.39326e-06
8.47379e-06
-6.29956e-06
8.34296e-06
-6.18251e-06
-6.04565e-06
8.24148e-06
1.69048e-05
-9.64146e-06
1.55617e-05
-8.44498e-06
1.42965e-05
-7.8677e-06
1.32308e-05
-7.5481e-06
1.23182e-05
-7.37271e-06
1.15274e-05
-7.30995e-06
1.08198e-05
-7.23648e-06
1.01886e-05
-7.10469e-06
9.62694e-06
-6.91677e-06
9.12384e-06
-6.70469e-06
8.70693e-06
-6.50961e-06
8.33057e-06
-6.3322e-06
8.01544e-06
-6.19045e-06
7.76515e-06
-6.06585e-06
7.57059e-06
-5.93751e-06
7.39211e-06
-5.81568e-06
7.2428e-06
-5.69094e-06
-5.56235e-06
7.13296e-06
1.50473e-05
-8.66983e-06
1.37304e-05
-7.62173e-06
1.27037e-05
-7.277e-06
1.1852e-05
-7.06135e-06
1.107e-05
-6.87312e-06
1.03123e-05
-6.75152e-06
9.58966e-06
-6.62875e-06
8.93564e-06
-6.48329e-06
8.37331e-06
-6.30826e-06
7.89433e-06
-6.10632e-06
7.49301e-06
-5.92156e-06
7.14987e-06
-5.7422e-06
6.86405e-06
-5.60509e-06
6.62543e-06
-5.48136e-06
6.43322e-06
-5.36033e-06
6.29389e-06
-5.25782e-06
6.17811e-06
-5.12983e-06
-5.01275e-06
6.09553e-06
1.38577e-05
-7.55093e-06
1.25857e-05
-6.63235e-06
1.15002e-05
-6.42297e-06
1.05894e-05
-6.32276e-06
9.81118e-06
-6.19579e-06
9.11508e-06
-6.08508e-06
8.49e-06
-5.96245e-06
7.94245e-06
-5.82484e-06
7.46457e-06
-5.65344e-06
7.06209e-06
-5.46527e-06
6.70378e-06
-5.26903e-06
6.39444e-06
-5.08897e-06
6.10826e-06
-4.93183e-06
5.85621e-06
-4.80572e-06
5.64893e-06
-4.69825e-06
5.45856e-06
-4.58817e-06
5.32676e-06
-4.49874e-06
-4.40023e-06
5.2283e-06
1.22018e-05
-6.4553e-06
1.12714e-05
-5.8419e-06
1.04854e-05
-5.73285e-06
9.73182e-06
-5.61558e-06
8.99855e-06
-5.44793e-06
8.30463e-06
-5.31369e-06
7.68319e-06
-5.20238e-06
7.12204e-06
-5.06545e-06
6.6311e-06
-4.90887e-06
6.21108e-06
-4.73985e-06
5.8485e-06
-4.55477e-06
5.54677e-06
-4.39431e-06
5.30073e-06
-4.25722e-06
5.09864e-06
-4.14503e-06
4.93605e-06
-4.05224e-06
4.80775e-06
-3.95686e-06
4.72354e-06
-3.8969e-06
-3.80595e-06
4.65729e-06
1.05499e-05
-5.5866e-06
9.80087e-06
-5.13396e-06
9.16137e-06
-5.10155e-06
8.55289e-06
-4.97375e-06
7.98642e-06
-4.79683e-06
7.44351e-06
-4.63157e-06
6.90754e-06
-4.47375e-06
6.40264e-06
-4.31598e-06
5.94949e-06
-4.16293e-06
5.56652e-06
-4.02038e-06
5.26944e-06
-3.88166e-06
5.03567e-06
-3.75031e-06
4.85655e-06
-3.63813e-06
4.70772e-06
-3.53156e-06
4.58622e-06
-3.44616e-06
4.47922e-06
-3.35008e-06
4.3817e-06
-3.28854e-06
-3.20731e-06
4.30143e-06
9.56999e-06
-4.64561e-06
8.887e-06
-4.4305e-06
8.26368e-06
-4.43233e-06
7.67263e-06
-4.30176e-06
7.12507e-06
-4.12482e-06
6.61095e-06
-3.94605e-06
6.12858e-06
-3.77299e-06
5.6881e-06
-3.61261e-06
5.29953e-06
-3.46917e-06
4.97277e-06
-3.35055e-06
4.7192e-06
-3.25117e-06
4.53281e-06
-3.15764e-06
4.39625e-06
-3.07043e-06
4.30157e-06
-2.98515e-06
4.22738e-06
-2.90399e-06
4.16961e-06
-2.81216e-06
4.10542e-06
-2.73576e-06
-2.65709e-06
4.0488e-06
8.72415e-06
-4.01685e-06
8.18489e-06
-3.83509e-06
7.66472e-06
-3.83656e-06
7.1526e-06
-3.6857e-06
6.66223e-06
-3.49159e-06
6.20077e-06
-3.30037e-06
5.77522e-06
-3.1221e-06
5.37616e-06
-2.94903e-06
5.01271e-06
-2.80525e-06
4.68106e-06
-2.68545e-06
4.38702e-06
-2.59464e-06
4.1448e-06
-2.52761e-06
3.96254e-06
-2.47898e-06
3.81881e-06
-2.41477e-06
3.71083e-06
-2.35559e-06
3.64014e-06
-2.291e-06
3.58221e-06
-2.2208e-06
-2.15808e-06
3.54404e-06
7.79116e-06
-3.12214e-06
7.392e-06
-3.36327e-06
6.96141e-06
-3.31788e-06
6.46645e-06
-3.07791e-06
5.99076e-06
-2.86938e-06
5.5452e-06
-2.67158e-06
5.13837e-06
-2.49555e-06
4.77653e-06
-2.33288e-06
4.45658e-06
-2.19897e-06
4.18509e-06
-2.09905e-06
3.96167e-06
-2.03103e-06
3.78435e-06
-1.98829e-06
3.64147e-06
-1.95575e-06
3.52806e-06
-1.90602e-06
3.43323e-06
-1.85382e-06
3.35502e-06
-1.79737e-06
3.28296e-06
-1.7279e-06
-1.66445e-06
3.21301e-06
6.97384e-06
-2.5255e-06
6.84195e-06
-3.15107e-06
6.47126e-06
-2.85556e-06
5.95899e-06
-2.45295e-06
5.42875e-06
-2.19668e-06
4.94617e-06
-2.01431e-06
4.54487e-06
-1.88731e-06
4.21166e-06
-1.76207e-06
3.92894e-06
-1.65039e-06
3.67986e-06
-1.55873e-06
3.45025e-06
-1.48797e-06
3.23833e-06
-1.4437e-06
3.03786e-06
-1.40668e-06
2.85658e-06
-1.36325e-06
2.6979e-06
-1.32382e-06
2.56091e-06
-1.28192e-06
2.44547e-06
-1.22952e-06
-1.18378e-06
2.35003e-06
6.41409e-06
-2.21411e-06
6.00087e-06
-2.65713e-06
5.45559e-06
-2.22058e-06
4.90625e-06
-1.79615e-06
4.34551e-06
-1.50217e-06
3.80261e-06
-1.30892e-06
3.29878e-06
-1.19237e-06
2.84996e-06
-1.09496e-06
2.46038e-06
-1.01758e-06
2.12424e-06
-9.56976e-07
1.83082e-06
-9.09411e-07
1.55888e-06
-8.6952e-07
1.32074e-06
-8.52362e-07
1.10395e-06
-8.18996e-07
9.19984e-07
-8.03937e-07
7.59923e-07
-7.79719e-07
6.35553e-07
-7.59103e-07
-7.27967e-07
5.27664e-07
5.53396e-06
-1.69978e-06
4.68405e-06
-1.73208e-06
3.73163e-06
-1.1843e-06
2.88201e-06
-8.46738e-07
2.12179e-06
-6.1895e-07
1.46838e-06
-5.0726e-07
9.00617e-07
-4.50935e-07
4.26006e-07
-4.22513e-07
3.33951e-08
-4.04968e-07
-2.98268e-07
-3.85497e-07
-5.73688e-07
-3.76851e-07
-8.07244e-07
-3.6387e-07
-1.01359e-06
-3.61579e-07
-1.18218e-06
-3.56039e-07
-1.33985e-06
-3.44377e-07
-1.46845e-06
-3.43767e-07
-1.56365e-06
-3.53135e-07
-3.48543e-07
-1.6308e-06
3.56631e-06
1.862e-06
7.20378e-07
-6.29282e-08
-5.93811e-07
-9.87936e-07
-1.30139e-06
-1.56353e-06
-1.78713e-06
-1.97239e-06
-2.13238e-06
-2.26494e-06
-2.38312e-06
-2.48587e-06
-2.56924e-06
-2.64627e-06
-2.72881e-06
-2.80426e-06
-2.51116e-07
-4.85646e-07
-4.67417e-07
-5.45519e-07
-6.71236e-07
-5.68794e-07
-8.6986e-07
-5.79116e-07
-1.069e-06
-5.80138e-07
-1.26572e-06
-5.8154e-07
-1.45885e-06
-5.82098e-07
-1.64975e-06
-5.79423e-07
-1.84022e-06
-5.73038e-07
-2.03664e-06
-5.58537e-07
-2.23859e-06
-5.42866e-07
-2.44048e-06
-5.31197e-07
-2.6374e-06
-5.22838e-07
-2.82918e-06
-5.12979e-07
-3.01366e-06
-5.03448e-07
-3.18868e-06
-4.94048e-07
-3.37053e-06
-4.68716e-07
-3.51348e-06
-4.89679e-07
-3.61593e-06
-5.09764e-07
-3.71272e-06
-4.93253e-07
-3.80978e-06
-4.68122e-07
-3.89471e-06
-4.522e-07
-3.98572e-06
-4.17492e-07
-4.12473e-06
-3.42463e-07
-4.33387e-06
-2.48947e-07
-4.54258e-06
-2.2493e-07
-4.58529e-06
-3.62622e-07
-4.43942e-06
-5.2094e-07
-4.22677e-06
-5.56146e-07
-4.03419e-06
-5.09134e-07
-3.87111e-06
-4.5755e-07
-3.75039e-06
-3.84886e-07
-3.75913e-06
-2.18777e-07
-4.03815e-06
7.84945e-08
-4.69306e-06
4.69488e-07
-5.61001e-06
7.38028e-07
-6.63522e-06
8.57493e-07
-7.65038e-06
8.68438e-07
-8.60132e-06
8.28172e-07
-9.44775e-06
7.4492e-07
-1.01706e-05
6.38703e-07
-1.07585e-05
5.19283e-07
-1.12177e-05
4.05172e-07
-1.15541e-05
2.95809e-07
-1.177e-05
1.86678e-07
-1.18778e-05
8.80325e-08
-1.18785e-05
-1.16129e-08
-1.17761e-05
-1.09184e-07
-1.15725e-05
-2.07154e-07
-1.12665e-05
-3.0837e-07
-1.0873e-05
-3.96777e-07
-1.04191e-05
-4.6007e-07
-9.90427e-06
-5.25941e-07
-9.35339e-06
-5.69242e-07
-8.76048e-06
-6.20118e-07
-8.12677e-06
-6.7208e-07
-7.45419e-06
-7.24343e-07
-6.74747e-06
-7.73427e-07
-6.02657e-06
-8.0399e-07
-5.28048e-06
-8.48531e-07
-4.51983e-06
-8.84092e-07
-3.75058e-06
-9.14801e-07
-2.98221e-06
-9.40366e-07
-2.20682e-06
-9.72332e-07
-1.41759e-06
-1.01202e-06
-6.18644e-07
-1.04865e-06
1.962e-07
-1.09251e-06
1.00388e-06
-1.11422e-06
1.80232e-06
-1.13479e-06
2.61097e-06
-1.17549e-06
3.40622e-06
-1.1932e-06
4.19812e-06
-1.22145e-06
4.95617e-06
-1.22018e-06
5.69211e-06
-1.23157e-06
6.39796e-06
-1.23545e-06
7.07577e-06
-1.24214e-06
7.72691e-06
-1.25092e-06
8.3609e-06
-1.27009e-06
8.99095e-06
-1.30279e-06
9.59982e-06
-1.31927e-06
1.01186e-05
-1.27102e-06
1.05308e-05
-1.21121e-06
1.08841e-05
-1.20001e-06
1.12219e-05
-1.23027e-06
1.16525e-05
-1.36257e-06
1.21505e-05
-1.46387e-06
1.2544e-05
-1.39552e-06
1.27673e-05
-1.26461e-06
1.28424e-05
-1.15688e-06
1.28878e-05
-1.16472e-06
1.29344e-05
-1.20306e-06
1.29666e-05
-1.22294e-06
1.29267e-05
-1.18e-06
1.29028e-05
-1.23057e-06
1.29241e-05
-1.30666e-06
1.29968e-05
-1.38982e-06
1.30792e-05
-1.42604e-06
1.30476e-05
-1.33225e-06
1.28468e-05
-1.19316e-06
1.25948e-05
-1.18011e-06
1.21355e-05
-9.92533e-07
1.16472e-05
-9.62944e-07
1.11092e-05
-9.20629e-07
1.05088e-05
-8.95268e-07
1.0288e-05
-1.35502e-06
1.09305e-05
-2.34198e-06
1.22494e-05
-3.13985e-06
1.35745e-05
-3.24902e-06
1.42283e-05
-2.67637e-06
1.42523e-05
-2.09812e-06
1.38037e-05
-1.647e-06
1.24221e-05
-7.84576e-07
1.01835e-05
2.18999e-08
7.68174e-06
1.77205e-07
5.41732e-06
-2.45464e-07
3.62181e-06
-8.73291e-07
2.74301e-06
-1.95968e-06
2.85954e-06
-3.12757e-06
3.39809e-06
-3.71758e-06
3.69332e-06
-3.65618e-06
3.50223e-06
-3.35035e-06
2.36677e-06
-2.56901e-06
5.3838e-07
-2.04785e-06
-8.96743e-07
-2.68273e-06
-7.63055e-07
-4.49356e-06
-1.25446e-07
-5.14599e-06
-1.10714e-06
-3.74283e-06
-1.36391e-06
-4.69577e-06
2.64104e-07
-6.74662e-06
1.47404e-06
-6.64608e-06
2.39791e-06
-6.5804e-06
3.50518e-06
-7.01832e-06
4.41726e-06
-7.02072e-06
5.43343e-06
-7.2845e-06
6.38251e-06
-7.39354e-06
7.44012e-06
-7.70971e-06
8.38833e-06
-7.85421e-06
9.3458e-06
-8.16466e-06
1.00047e-05
-8.17565e-06
1.02685e-05
-8.05077e-06
1.02223e-05
-7.9791e-06
1.01175e-05
-8.16485e-06
1.01034e-05
-8.49631e-06
1.04222e-05
-9.10061e-06
1.11398e-05
-9.85476e-06
1.21457e-05
-1.05407e-05
1.325e-05
-1.10187e-05
1.44825e-05
-1.15839e-05
1.57952e-05
-1.21805e-05
1.72442e-05
-1.29039e-05
1.9123e-05
-1.39997e-05
2.14609e-05
-1.5221e-05
2.40009e-05
-1.61733e-05
2.61086e-05
-1.63233e-05
2.7491e-05
-1.61971e-05
2.842e-05
-1.65393e-05
2.86447e-05
-1.63677e-05
2.91097e-05
-1.75859e-05
2.75932e-05
-1.70815e-05
2.43308e-05
-1.56186e-05
2.19926e-05
-1.69871e-05
1.93064e-05
-1.73781e-05
1.44009e-05
-1.51459e-05
7.31516e-06
-1.33274e-05
3.4091e-06
-1.77513e-05
1.01032e-06
-2.04403e-05
1.39927e-06
-2.3618e-05
5.50947e-07
-2.17922e-05
-5.57924e-07
-2.26186e-05
-8.86879e-07
-2.35073e-05
-4.8442e-06
-1.97469e-05
-8.40163e-06
-2.01347e-05
-6.84479e-06
-2.41699e-05
-3.57088e-06
-2.43103e-05
-1.21829e-06
-2.25528e-05
-1.98066e-06
-1.83147e-05
-6.25153e-06
-1.41838e-05
-1.07054e-05
-1.31283e-05
-1.42517e-05
-1.38646e-05
-1.37986e-05
-1.73604e-05
-2.78324e-07
-9.3889e-07
-5.10284e-07
-1.0721e-06
-6.88735e-07
-1.15974e-06
-8.36055e-07
-1.20701e-06
-9.76234e-07
-1.21854e-06
-1.11908e-06
-1.21839e-06
-1.26791e-06
-1.21225e-06
-1.42594e-06
-1.19811e-06
-1.59007e-06
-1.18154e-06
-1.74688e-06
-1.16834e-06
-1.92358e-06
-1.12471e-06
-2.1048e-06
-1.09932e-06
-2.27379e-06
-1.09205e-06
-2.44163e-06
-1.06982e-06
-2.60724e-06
-1.04681e-06
-2.75894e-06
-1.0348e-06
-2.89829e-06
-1.00727e-06
-2.97885e-06
-1.06888e-06
-3.02298e-06
-1.10173e-06
-3.0988e-06
-1.02965e-06
-3.22571e-06
-9.28155e-07
-3.29117e-06
-9.43223e-07
-3.22423e-06
-1.0054e-06
-3.09205e-06
-9.69247e-07
-3.00132e-06
-8.18063e-07
-3.05044e-06
-6.2191e-07
-3.27753e-06
-5.3772e-07
-3.70768e-06
-4.40848e-07
-4.37307e-06
-1.90375e-07
-5.33971e-06
1.72605e-07
-6.66838e-06
5.71854e-07
-8.22605e-06
8.75296e-07
-9.77335e-06
1.05909e-06
-1.11385e-05
1.21102e-06
-1.2223e-05
1.35351e-06
-1.31245e-05
1.45852e-06
-1.38926e-05
1.45946e-06
-1.45674e-05
1.40019e-06
-1.51355e-05
1.276e-06
-1.55949e-05
1.10378e-06
-1.59447e-05
9.04004e-07
-1.61906e-05
6.96162e-07
-1.63261e-05
4.87816e-07
-1.63509e-05
2.8133e-07
-1.62548e-05
6.4501e-08
-1.60707e-05
-1.12228e-07
-1.57883e-05
-3.02448e-07
-1.54097e-05
-4.90565e-07
-1.49483e-05
-6.68951e-07
-1.44391e-05
-8.17115e-07
-1.38478e-05
-9.88688e-07
-1.32124e-05
-1.09992e-06
-1.25232e-05
-1.22451e-06
-1.17671e-05
-1.3408e-06
-1.09844e-05
-1.42673e-06
-1.01728e-05
-1.51865e-06
-9.32746e-06
-1.61821e-06
-8.43918e-06
-1.72665e-06
-7.51239e-06
-1.81397e-06
-6.61481e-06
-1.84926e-06
-5.74762e-06
-1.87635e-06
-4.85648e-06
-1.95364e-06
-3.92943e-06
-2.03971e-06
-2.98958e-06
-2.11099e-06
-2.05351e-06
-2.17355e-06
-1.10255e-06
-2.25284e-06
-1.51265e-07
-2.32576e-06
8.00837e-07
-2.37703e-06
1.74238e-06
-2.41696e-06
2.67976e-06
-2.48436e-06
3.59738e-06
-2.51285e-06
4.4907e-06
-2.54678e-06
5.34505e-06
-2.53765e-06
6.17501e-06
-2.5572e-06
6.96471e-06
-2.55206e-06
7.69277e-06
-2.5288e-06
8.3922e-06
-2.5405e-06
9.07609e-06
-2.57612e-06
9.79014e-06
-2.66873e-06
1.0555e-05
-2.75582e-06
1.12961e-05
-2.70531e-06
1.19341e-05
-2.59167e-06
1.24294e-05
-2.51209e-06
1.2781e-05
-2.48532e-06
1.32554e-05
-2.79566e-06
1.39554e-05
-3.11071e-06
1.46771e-05
-3.04488e-06
1.52836e-05
-2.81538e-06
1.56097e-05
-2.48736e-06
1.57374e-05
-2.36595e-06
1.59158e-05
-2.51049e-06
1.6051e-05
-2.54336e-06
1.60734e-05
-2.40654e-06
1.59976e-05
-2.40096e-06
1.60115e-05
-2.61346e-06
1.61048e-05
-2.79839e-06
1.60915e-05
-2.75612e-06
1.58808e-05
-2.48283e-06
1.55555e-05
-2.22221e-06
1.50511e-05
-2.03188e-06
1.45116e-05
-1.93342e-06
1.41994e-05
-2.25807e-06
1.3745e-05
-2.04223e-06
1.30474e-05
-1.67814e-06
1.27e-05
-2.49217e-06
1.29816e-05
-4.26731e-06
1.3891e-05
-5.88223e-06
1.46689e-05
-6.03267e-06
1.4441e-05
-4.59516e-06
1.33037e-05
-3.12026e-06
1.14233e-05
-1.91428e-06
9.03233e-06
-5.9633e-07
6.89772e-06
-1.44763e-07
5.12172e-06
-4.75639e-07
3.30841e-06
-1.02337e-06
1.90374e-06
-2.23946e-06
1.2662e-06
-4.22892e-06
1.0357e-06
-5.94674e-06
1.07565e-06
-7.03336e-06
1.00207e-06
-7.07511e-06
6.24357e-07
-6.64105e-06
-5.42113e-07
-5.23995e-06
-1.84251e-06
-4.78192e-06
-2.60794e-06
-6.1613e-06
-1.86871e-06
-9.53145e-06
-9.54132e-07
-1.06072e-05
-1.54588e-06
-8.17318e-06
-1.27886e-06
-9.88161e-06
7.46561e-07
-1.32201e-05
2.79824e-06
-1.37979e-05
4.0444e-06
-1.34705e-05
5.44339e-06
-1.43844e-05
6.48525e-06
-1.43913e-05
7.34521e-06
-1.45589e-05
8.15122e-06
-1.46369e-05
9.07688e-06
-1.50616e-05
1.00696e-05
-1.53646e-05
1.15627e-05
-1.63706e-05
1.3389e-05
-1.7139e-05
1.52083e-05
-1.7576e-05
1.63995e-05
-1.74529e-05
1.67771e-05
-1.73149e-05
1.66595e-05
-1.74763e-05
1.64939e-05
-1.81792e-05
1.65292e-05
-1.93227e-05
1.68779e-05
-2.07092e-05
1.75154e-05
-2.19561e-05
1.82692e-05
-2.31222e-05
1.90122e-05
-2.41734e-05
2.00678e-05
-2.57464e-05
2.17905e-05
-2.81752e-05
2.43023e-05
-3.11545e-05
2.7298e-05
-3.3904e-05
2.95237e-05
-3.44542e-05
3.07148e-05
-3.42107e-05
3.11867e-05
-3.48316e-05
3.04972e-05
-3.41337e-05
3.07063e-05
-3.70541e-05
2.94997e-05
-3.73543e-05
2.48334e-05
-3.28807e-05
1.98406e-05
-3.36569e-05
1.41404e-05
-3.32744e-05
6.69878e-06
-2.85199e-05
-3.68691e-07
-2.74603e-05
-1.88634e-06
-3.95325e-05
-3.8318e-06
-4.33029e-05
-3.5837e-06
-4.81174e-05
-1.50795e-06
-4.80523e-05
1.45762e-06
-5.01307e-05
2.18897e-06
-4.87166e-05
-1.48952e-06
-4.18276e-05
-3.63518e-06
-4.47553e-05
-1.95015e-06
-5.00129e-05
1.34577e-06
-4.87293e-05
5.13224e-06
-4.56966e-05
7.39748e-06
-3.85813e-05
4.08244e-06
-2.96598e-05
-2.74197e-06
-2.43136e-05
-8.65943e-06
-2.53729e-05
-2.88261e-05
-1.23187e-05
-3.13145e-07
-1.34252e-06
-5.74353e-07
-1.54681e-06
-7.41238e-07
-1.73342e-06
-8.28273e-07
-1.86355e-06
-8.96185e-07
-1.89764e-06
-9.77268e-07
-1.8868e-06
-1.08528e-06
-1.85477e-06
-1.23617e-06
-1.79788e-06
-1.4196e-06
-1.74729e-06
-1.59879e-06
-1.73428e-06
-1.79018e-06
-1.67266e-06
-1.98784e-06
-1.63681e-06
-2.17691e-06
-1.63004e-06
-2.33302e-06
-1.62522e-06
-2.4452e-06
-1.63388e-06
-2.56614e-06
-1.60932e-06
-2.74602e-06
-1.50901e-06
-2.89735e-06
-1.56823e-06
-2.89048e-06
-1.72211e-06
-2.8134e-06
-1.68979e-06
-2.80268e-06
-1.49636e-06
-2.9497e-06
-1.32128e-06
-3.29282e-06
-1.15821e-06
-3.8201e-06
-9.06924e-07
-4.52074e-06
-5.41781e-07
-5.44916e-06
-8.46739e-08
-6.76851e-06
4.06899e-07
-8.32258e-06
7.53713e-07
-9.84941e-06
9.97826e-07
-1.12405e-05
1.25031e-06
-1.24624e-05
1.51036e-06
-1.35354e-05
1.69956e-06
-1.45173e-05
1.81879e-06
-1.53742e-05
1.86097e-06
-1.60657e-05
1.84717e-06
-1.65892e-05
1.7987e-06
-1.69962e-05
1.70355e-06
-1.72654e-05
1.5269e-06
-1.74264e-05
1.31404e-06
-1.74923e-05
1.06394e-06
-1.7482e-05
8.04768e-07
-1.74044e-05
5.44469e-07
-1.72497e-05
2.7248e-07
-1.70273e-05
1.18188e-08
-1.67461e-05
-2.56139e-07
-1.63758e-05
-5.16438e-07
-1.5937e-05
-7.68452e-07
-1.544e-05
-1.01e-06
-1.49045e-05
-1.22312e-06
-1.4289e-05
-1.45254e-06
-1.36367e-05
-1.66293e-06
-1.29078e-05
-1.85347e-06
-1.21246e-05
-2.0397e-06
-1.13349e-05
-2.17152e-06
-1.05013e-05
-2.31147e-06
-9.6336e-06
-2.45021e-06
-8.73851e-06
-2.59109e-06
-7.88306e-06
-2.67615e-06
-7.04536e-06
-2.76344e-06
-6.18667e-06
-2.83719e-06
-5.29449e-06
-2.91962e-06
-4.38338e-06
-3.03954e-06
-3.45797e-06
-3.16401e-06
-2.54953e-06
-3.24735e-06
-1.62445e-06
-3.35317e-06
-6.83269e-07
-3.4768e-06
2.80629e-07
-3.60202e-06
1.24087e-06
-3.67971e-06
2.20051e-06
-3.75015e-06
3.14699e-06
-3.83679e-06
4.07613e-06
-3.88093e-06
4.97502e-06
-3.91564e-06
5.83819e-06
-3.90175e-06
6.65489e-06
-3.90926e-06
7.42671e-06
-3.89181e-06
8.14736e-06
-3.84793e-06
8.81433e-06
-3.83464e-06
9.42516e-06
-3.84429e-06
9.99371e-06
-3.92673e-06
1.05978e-05
-4.06852e-06
1.1307e-05
-4.11722e-06
1.20877e-05
-4.09087e-06
1.28385e-05
-4.04514e-06
1.33692e-05
-3.92302e-06
1.38061e-05
-4.26989e-06
1.43532e-05
-4.70387e-06
1.50646e-05
-4.70295e-06
1.57105e-05
-4.3056e-06
1.60266e-05
-3.67383e-06
1.6041e-05
-3.42649e-06
1.62101e-05
-3.80074e-06
1.6669e-05
-4.05399e-06
1.70963e-05
-3.90004e-06
1.7097e-05
-3.65198e-06
1.70669e-05
-3.928e-06
1.73796e-05
-4.37656e-06
1.78269e-05
-4.41495e-06
1.81447e-05
-4.04602e-06
1.85921e-05
-3.9833e-06
1.87501e-05
-3.44737e-06
1.81176e-05
-2.56833e-06
1.70789e-05
-2.71424e-06
1.62519e-05
-2.87269e-06
1.57384e-05
-2.84635e-06
1.51455e-05
-3.5569e-06
1.47928e-05
-5.5991e-06
1.42105e-05
-7.11601e-06
1.32961e-05
-6.981e-06
1.20186e-05
-5.23216e-06
1.01753e-05
-3.31315e-06
7.90295e-06
-1.79541e-06
5.93566e-06
-8.71028e-07
4.61427e-06
-1.17475e-06
3.4476e-06
-1.78954e-06
1.88521e-06
-2.10658e-06
6.58837e-07
-3.78977e-06
-4.45169e-07
-5.99294e-06
-1.07373e-06
-8.40947e-06
-9.6061e-07
-1.04341e-05
-4.58241e-07
-1.09697e-05
2.69966e-08
-1.07839e-05
-5.62461e-07
-8.58008e-06
-1.83677e-06
-7.51003e-06
-3.31433e-06
-8.72679e-06
-3.54425e-06
-1.34034e-05
-2.70805e-06
-1.59414e-05
-3.52946e-07
-1.49925e-05
1.16194e-06
-1.57385e-05
2.10345e-06
-1.83015e-05
4.256e-06
-1.97826e-05
5.95576e-06
-1.96828e-05
7.6862e-06
-2.09123e-05
8.8421e-06
-2.10176e-05
9.43195e-06
-2.10953e-05
9.81575e-06
-2.12648e-05
1.0154e-05
-2.16743e-05
1.03929e-05
-2.18014e-05
1.10383e-05
-2.30013e-05
1.23584e-05
-2.44858e-05
1.42732e-05
-2.59285e-05
1.63138e-05
-2.6684e-05
1.78782e-05
-2.69615e-05
1.88077e-05
-2.72254e-05
1.93326e-05
-2.78852e-05
1.96772e-05
-2.90147e-05
1.99655e-05
-3.0557e-05
2.04911e-05
-3.23945e-05
2.11767e-05
-3.4239e-05
2.18295e-05
-3.57573e-05
2.24039e-05
-3.75613e-05
2.31072e-05
-4.02701e-05
2.47021e-05
-4.4216e-05
2.78603e-05
-4.93266e-05
3.08081e-05
-5.19178e-05
3.1821e-05
-5.18666e-05
3.14562e-05
-5.22442e-05
2.9152e-05
-5.0689e-05
2.81958e-05
-5.47381e-05
2.81051e-05
-5.63917e-05
2.31555e-05
-4.96258e-05
1.66184e-05
-4.86209e-05
1.03919e-05
-4.81575e-05
4.16544e-06
-4.41954e-05
8.63879e-08
-4.54201e-05
-2.28918e-07
-6.20795e-05
-2.89794e-06
-6.7089e-05
-4.63034e-06
-7.40215e-05
-4.1398e-06
-7.52315e-05
1.46708e-06
-7.78869e-05
7.10303e-06
-7.64411e-05
4.52212e-06
-6.34078e-05
1.81649e-06
-6.66462e-05
2.82815e-06
-7.20204e-05
5.50576e-06
-7.07116e-05
7.62699e-06
-6.51273e-05
9.88182e-06
-5.67577e-05
9.70996e-06
-4.52997e-05
4.4307e-06
-3.63246e-05
-2.80727e-06
-3.42639e-05
-3.94346e-05
-7.50517e-06
-3.21781e-07
-1.72304e-06
-5.86434e-07
-2.00232e-06
-7.33722e-07
-2.3114e-06
-7.78621e-07
-2.54928e-06
-7.92768e-07
-2.61853e-06
-8.36793e-07
-2.58149e-06
-9.16884e-07
-2.51492e-06
-1.06755e-06
-2.38723e-06
-1.28364e-06
-2.26783e-06
-1.55664e-06
-2.19077e-06
-1.83259e-06
-2.12372e-06
-2.10823e-06
-2.08822e-06
-2.34978e-06
-2.1078e-06
-2.60838e-06
-2.07554e-06
-2.87447e-06
-2.06909e-06
-2.98239e-06
-2.17681e-06
-3.00047e-06
-2.11981e-06
-3.13557e-06
-2.02001e-06
-3.46737e-06
-1.93773e-06
-3.94167e-06
-1.73527e-06
-4.61338e-06
-1.32269e-06
-5.54568e-06
-8.67616e-07
-6.70708e-06
-4.7274e-07
-8.00672e-06
-7.25965e-08
-9.31021e-06
3.25328e-07
-1.05453e-05
7.41499e-07
-1.1639e-05
1.12664e-06
-1.26999e-05
1.47728e-06
-1.37402e-05
1.7283e-06
-1.46768e-05
1.9045e-06
-1.54595e-05
2.03172e-06
-1.61255e-05
2.11478e-06
-1.66802e-05
2.12214e-06
-1.71349e-05
2.07047e-06
-1.74935e-05
1.97444e-06
-1.77547e-05
1.84564e-06
-1.79018e-05
1.66124e-06
-1.79632e-05
1.41638e-06
-1.79508e-05
1.15242e-06
-1.78679e-05
8.55034e-07
-1.77224e-05
5.54407e-07
-1.75112e-05
2.5052e-07
-1.72447e-05
-6.29921e-08
-1.69255e-05
-3.68267e-07
-1.65528e-05
-6.82427e-07
-1.61313e-05
-9.82025e-07
-1.5675e-05
-1.26641e-06
-1.51476e-05
-1.57291e-06
-1.45487e-05
-1.85236e-06
-1.39015e-05
-2.13195e-06
-1.3213e-05
-2.3836e-06
-1.24704e-05
-2.63338e-06
-1.16699e-05
-2.88425e-06
-1.08251e-05
-3.06776e-06
-9.95804e-06
-3.24264e-06
-9.09857e-06
-3.38453e-06
-8.28798e-06
-3.48809e-06
-7.48195e-06
-3.58502e-06
-6.67091e-06
-3.69306e-06
-5.84754e-06
-3.79606e-06
-5.01879e-06
-3.90424e-06
-4.19796e-06
-4.03833e-06
-3.37444e-06
-4.18887e-06
-2.52804e-06
-4.32132e-06
-1.64459e-06
-4.4898e-06
-7.51623e-07
-4.64932e-06
1.62561e-07
-4.82254e-06
1.11526e-06
-4.96934e-06
2.08148e-06
-5.0867e-06
3.03416e-06
-5.19316e-06
3.98243e-06
-5.26908e-06
4.93227e-06
-5.34151e-06
5.88588e-06
-5.36699e-06
6.77648e-06
-5.35361e-06
7.61825e-06
-5.33361e-06
8.40813e-06
-5.27739e-06
9.15217e-06
-5.24733e-06
9.86856e-06
-5.25597e-06
1.04925e-05
-5.27828e-06
1.0989e-05
-5.33215e-06
1.15049e-05
-5.41541e-06
1.20996e-05
-5.45868e-06
1.28289e-05
-5.55285e-06
1.36507e-05
-5.5608e-06
1.4286e-05
-5.85539e-06
1.48192e-05
-6.35144e-06
1.53771e-05
-6.37614e-06
1.58503e-05
-5.7437e-06
1.61246e-05
-4.87573e-06
1.60782e-05
-4.52105e-06
1.60764e-05
-5.05921e-06
1.64862e-05
-5.56028e-06
1.71559e-05
-5.52995e-06
1.7443e-05
-5.07301e-06