/*--------------------------------*- C++ -*----------------------------------*\
| =========                 |                                                 |
| \\      /  F ield         | OpenFOAM: The Open Source CFD Toolbox           |
|  \\    /   O peration     | Version:  dev                                   |
|   \\  /    A nd           | Web:      http://www.openfoam.org               |
|    \\/     M anipulation  |                                                 |
\*---------------------------------------------------------------------------*/
FoamFile
{
    version     2.0;
    format      ascii;
    class       surfaceScalarField;
    object      phi_0;
    location    "9.159";
}
// * * * * * * * * * * * * * * * * * * * * * * * * * * * * * * * * * * * * * //

dimensions      [1 0 -1 0 0 0 0];

internalField   nonuniform List<scalar> 
24170
(
1.87686e-06
1.14984e-06
7.528e-07
6.0331e-07
1.62228e-07
9.99007e-08
-1.93821e-07
-1.06422e-07
-4.65876e-07
-1.60256e-07
-5.85847e-07
-2.85172e-07
-7.7464e-07
-1.86583e-07
-7.58462e-07
-3.63508e-07
-9.01446e-07
-1.7632e-07
-6.76585e-07
-5.16786e-07
-7.81632e-07
-1.58328e-07
-2.86849e-07
-7.36122e-07
-2.24325e-07
-2.77968e-07
7.45675e-07
-1.1715e-06
1.56545e-06
-9.95845e-07
4.92297e-06
-3.5015e-06
7.20636e-06
-2.40135e-06
6.13326e-07
6.56768e-06
3.58051e-06
9.7263e-07
2.56655e-06
1.06843e-06
1.73537e-06
4.05847e-07
1.07746e-06
5.46501e-08
6.13668e-07
-1.62238e-07
1.46151e-07
-2.52359e-07
-1.5763e-07
-2.86418e-07
-4.21358e-07
-4.72784e-07
-6.4669e-07
-2.94145e-07
-6.78438e-07
-7.99037e-07
-7.49885e-07
-3.69415e-07
-4.44294e-07
-1.30277e-06
-1.19331e-07
-8.35173e-07
7.83726e-07
-2.29399e-06
1.60936e-06
-2.01125e-06
3.66984e-06
-5.7421e-06
3.438e-06
-2.29657e-06
5.12277e-07
3.44208e-06
4.34078e-06
2.64262e-07
3.80053e-06
1.00356e-06
3.22042e-06
4.0588e-07
2.6444e-06
8.28478e-08
2.12069e-06
-1.5271e-07
1.65839e-06
-2.69022e-07
1.31725e-06
-3.90693e-07
9.10119e-07
-4.76491e-07
8.108e-07
-5.72731e-07
6.24523e-07
-9.5925e-07
7.52016e-07
-8.07509e-07
9.0171e-07
-1.74135e-06
9.39063e-07
-1.12747e-06
1.43807e-06
-3.02803e-06
1.55328e-06
-2.32674e-06
2.3108e-06
-6.67959e-06
2.19151e-06
-2.32931e-06
1.77315e-06
7.74563e-07
4.59584e-06
-1.98925e-07
4.62135e-06
3.1114e-07
4.19585e-06
1.91791e-07
3.93403e-06
-2.57923e-07
3.39857e-06
-1.83226e-07
3.17096e-06
-5.68492e-07
2.72387e-06
-4.34311e-07
2.58868e-06
-7.92399e-07
2.27415e-06
-6.74054e-07
2.21937e-06
-1.28412e-06
1.99251e-06
-9.23598e-07
2.0309e-06
-2.09595e-06
1.8801e-06
-1.2632e-06
1.99157e-06
-3.39165e-06
1.6478e-06
-2.20552e-06
1.86479e-06
-7.06092e-06
1.81656e-06
-2.44601e-06
2.28068e-06
1.14019e-06
4.87066e-06
-3.29843e-07
5.23243e-06
-7.84429e-07
4.66451e-06
5.55603e-08
4.62472e-06
-8.81005e-07
3.978e-06
-1.58309e-07
3.94265e-06
-1.11244e-06
3.40719e-06
-4.37903e-07
3.47161e-06
-1.35233e-06
3.02182e-06
-6.80891e-07
3.0874e-06
-1.76756e-06
2.67592e-06
-8.89559e-07
2.60408e-06
-2.37012e-06
2.29437e-06
-1.26608e-06
2.09293e-06
-3.46874e-06
1.5179e-06
-1.887e-06
9.50252e-07
-6.71888e-06
-2.58254e-08
-1.671e-06
7.04217e-07
1.34957e-06
5.24318e-06
-5.09551e-07
5.22578e-06
-1.57609e-06
4.57579e-06
-6.8094e-08
4.58806e-06
-1.62164e-06
4.02177e-06
-2.73733e-07
3.99225e-06
-1.7187e-06
3.45389e-06
-4.90051e-07
3.52684e-06
-1.96862e-06
3.11024e-06
-7.64011e-07
3.25101e-06
-2.36536e-06
2.92103e-06
-9.72033e-07
2.94756e-06
-2.77437e-06
2.7294e-06
-1.38778e-06
2.79829e-06
-3.8427e-06
2.3839e-06
-1.75301e-06
1.03841e-06
-5.64625e-06
1.50329e-07
-1.01505e-06
-1.6606e-06
2.31362e-06
6.1964e-06
-1.15928e-06
5.96971e-06
-2.23695e-06
5.2512e-06
-1.95786e-07
5.12085e-06
-2.2894e-06
4.5504e-06
-4.49758e-07
4.42625e-06
-2.28988e-06
3.86345e-06
-5.72158e-07
3.81993e-06
-2.52108e-06
3.44213e-06
-9.32367e-07
3.53597e-06
-2.95768e-06
3.30036e-06
-1.18724e-06
3.35547e-06
-3.24036e-06
3.23519e-06
-1.6357e-06
3.13439e-06
-4.07395e-06
2.91335e-06
-1.83043e-06
1.66933e-06
-4.67617e-06
1.36154e-06
-9.58554e-07
-3.21029e-06
2.69297e-06
4.83361e-06
-1.76105e-06
4.54701e-06
-2.63963e-06
4.04935e-06
-3.54217e-07
3.88231e-06
-2.7404e-06
3.52994e-06
-6.75512e-07
3.37908e-06
-2.67667e-06
3.10906e-06
-8.00588e-07
2.90891e-06
-2.78083e-06
2.77621e-06
-1.22108e-06
2.63211e-06
-3.19779e-06
2.63389e-06
-1.53658e-06
2.55464e-06
-3.47621e-06
2.54946e-06
-1.91406e-06
2.28669e-06
-4.06548e-06
2.25951e-06
-2.02823e-06
1.59817e-06
-4.21278e-06
1.95975e-06
-1.50272e-06
-3.45989e-06
2.02685e-06
5.44993e-06
-2.30762e-06
5.17863e-06
-3.16813e-06
4.74334e-06
-6.78384e-07
4.38567e-06
-3.09731e-06
4.13334e-06
-1.09064e-06
3.80234e-06
-2.96645e-06
3.6523e-06
-1.22532e-06
3.3712e-06
-3.02868e-06
3.28565e-06
-1.62029e-06
3.01873e-06
-3.37281e-06
3.01045e-06
-1.9278e-06
2.79946e-06
-3.62558e-06
2.77684e-06
-2.2171e-06
2.41947e-06
-4.00028e-06
2.47602e-06
-2.34101e-06
1.95548e-06
-3.92164e-06
2.42419e-06
-2.16948e-06
-3.45442e-06
2.21561e-06
6.66327e-06
-2.89243e-06
6.06215e-06
-3.49103e-06
5.69778e-06
-1.19033e-06
5.06447e-06
-3.28793e-06
4.77347e-06
-1.56799e-06
4.27579e-06
-3.18206e-06
4.14987e-06
-1.75941e-06
3.78766e-06
-3.27362e-06
3.7647e-06
-2.15244e-06
3.43656e-06
-3.54968e-06
3.49339e-06
-2.44129e-06
3.21315e-06
-3.75579e-06
3.26165e-06
-2.63588e-06
2.87526e-06
-3.94581e-06
3.02093e-06
-2.77929e-06
2.61878e-06
-3.78399e-06
2.93492e-06
-2.70776e-06
-3.37907e-06
2.64251e-06
7.55709e-06
-3.41075e-06
6.81425e-06
-3.81247e-06
6.57408e-06
-1.95831e-06
5.95316e-06
-3.61288e-06
5.7424e-06
-2.23742e-06
5.13041e-06
-3.38722e-06
4.94081e-06
-2.32451e-06
4.39314e-06
-3.41814e-06
4.26276e-06
-2.65377e-06
3.79829e-06
-3.6592e-06
3.7693e-06
-2.93011e-06
3.42398e-06
-3.87492e-06
3.45096e-06
-3.0804e-06
3.06467e-06
-3.93295e-06
3.21794e-06
-3.26134e-06
2.94199e-06
-3.80369e-06
3.21716e-06
-3.23385e-06
-3.48278e-06
3.08926e-06
8.82798e-06
-4.36079e-06
7.93254e-06
-4.13548e-06
7.55473e-06
-2.73336e-06
6.70551e-06
-3.84234e-06
6.42021e-06
-2.95499e-06
5.78777e-06
-3.6828e-06
5.64439e-06
-3.03673e-06
5.10238e-06
-3.66048e-06
4.96118e-06
-3.22591e-06
4.44631e-06
-3.7902e-06
4.35465e-06
-3.42046e-06
3.92791e-06
-3.96896e-06
3.89734e-06
-3.51403e-06
3.53661e-06
-3.98549e-06
3.61173e-06
-3.70106e-06
3.3808e-06
-3.89406e-06
3.60121e-06
-3.73375e-06
-3.74327e-06
3.61436e-06
1.01881e-05
-5.14818e-06
9.04786e-06
-4.38349e-06
8.56691e-06
-3.56114e-06
7.64832e-06
-4.14483e-06
7.266e-06
-3.70529e-06
6.5453e-06
-4.00785e-06
6.24866e-06
-3.70106e-06
5.65584e-06
-3.94496e-06
5.40814e-06
-3.77432e-06
4.91599e-06
-4.01662e-06
4.76676e-06
-3.91552e-06
4.39178e-06
-4.16827e-06
4.38796e-06
-4.01856e-06
4.17529e-06
-4.22178e-06
4.17328e-06
-4.09357e-06
4.07678e-06
-4.14185e-06
4.11601e-06
-4.07205e-06
-4.01667e-06
4.12979e-06
1.17839e-05
-5.99077e-06
1.07592e-05
-4.91788e-06
1.0055e-05
-4.32555e-06
8.94023e-06
-4.39772e-06
8.19912e-06
-4.2296e-06
7.35819e-06
-4.33089e-06
6.8565e-06
-4.26415e-06
6.28196e-06
-4.33827e-06
5.93127e-06
-4.29734e-06
5.5084e-06
-4.37742e-06
5.26109e-06
-4.36773e-06
4.94133e-06
-4.46771e-06
4.82759e-06
-4.44848e-06
4.62453e-06
-4.49477e-06
4.5744e-06
-4.4569e-06
4.51498e-06
-4.43963e-06
4.53724e-06
-4.39973e-06
-4.32133e-06
4.58024e-06
1.38692e-05
-6.98793e-06
1.24671e-05
-5.22697e-06
1.13611e-05
-4.83761e-06
1.0305e-05
-4.84749e-06
9.51746e-06
-4.83155e-06
8.76169e-06
-4.84862e-06
8.14995e-06
-4.81057e-06
7.53909e-06
-4.77296e-06
7.01566e-06
-4.7107e-06
6.50251e-06
-4.69701e-06
6.07568e-06
-4.67663e-06
5.65343e-06
-4.69023e-06
5.32649e-06
-4.6817e-06
5.04101e-06
-4.69166e-06
4.84653e-06
-4.67509e-06
4.70043e-06
-4.6438e-06
4.60993e-06
-4.60194e-06
-4.54499e-06
4.59108e-06
1.59454e-05
-7.24443e-06
1.44234e-05
-5.54948e-06
1.31524e-05
-5.31406e-06
1.19352e-05
-5.25373e-06
1.07987e-05
-5.1865e-06
9.71639e-06
-5.12483e-06
8.75497e-06
-5.0748e-06
7.9365e-06
-5.05043e-06
7.27981e-06
-5.02445e-06
6.73633e-06
-5.00514e-06
6.29782e-06
-4.97844e-06
5.92805e-06
-4.95757e-06
5.61159e-06
-4.90763e-06
5.34423e-06
-4.87952e-06
5.11349e-06
-4.82139e-06
4.93397e-06
-4.77079e-06
4.80083e-06
-4.71333e-06
-4.67155e-06
4.73857e-06
1.90124e-05
-7.57906e-06
1.73376e-05
-5.8416e-06
1.56816e-05
-5.50425e-06
1.40343e-05
-5.31203e-06
1.24815e-05
-5.18854e-06
1.10923e-05
-5.13667e-06
9.90554e-06
-5.13546e-06
8.90111e-06
-5.14336e-06
8.06336e-06
-5.13968e-06
7.35459e-06
-5.11393e-06
6.76046e-06
-5.075e-06
6.25829e-06
-5.03052e-06
5.86248e-06
-4.98073e-06
5.51669e-06
-4.90668e-06
5.27824e-06
-4.86934e-06
5.11484e-06
-4.81635e-06
4.99905e-06
-4.73905e-06
-4.67816e-06
4.92469e-06
1.83793e-05
-7.45094e-06
1.66736e-05
-5.92955e-06
1.50059e-05
-5.49359e-06
1.33825e-05
-5.20292e-06
1.19369e-05
-5.10635e-06
1.0733e-05
-5.14107e-06
9.7343e-06
-5.1906e-06
8.86649e-06
-5.17864e-06
8.07554e-06
-5.10843e-06
7.3503e-06
-5.01478e-06
6.67109e-06
-4.89782e-06
6.08642e-06
-4.83454e-06
5.59284e-06
-4.77326e-06
5.20715e-06
-4.71543e-06
4.87781e-06
-4.65181e-06
4.64891e-06
-4.62676e-06
4.51001e-06
-4.57579e-06
-4.50298e-06
4.41457e-06
1.64126e-05
-7.17813e-06
1.46415e-05
-5.57185e-06
1.30058e-05
-5.15746e-06
1.16047e-05
-4.97537e-06
1.03874e-05
-4.9268e-06
9.32529e-06
-4.97872e-06
8.38107e-06
-5.00924e-06
7.5464e-06
-4.97385e-06
6.81084e-06
-4.87668e-06
6.16093e-06
-4.75153e-06
5.62255e-06
-4.639e-06
5.14627e-06
-4.5403e-06
4.7524e-06
-4.4743e-06
4.44256e-06
-4.42194e-06
4.20623e-06
-4.363e-06
4.00074e-06
-4.30808e-06
3.83896e-06
-4.24868e-06
-4.18288e-06
3.72921e-06
1.45976e-05
-6.23292e-06
1.28966e-05
-4.98696e-06
1.15412e-05
-4.82387e-06
1.03914e-05
-4.73655e-06
9.3386e-06
-4.66419e-06
8.34076e-06
-4.6492e-06
7.40937e-06
-4.62398e-06
6.5764e-06
-4.56925e-06
5.86175e-06
-4.47929e-06
5.25385e-06
-4.35839e-06
4.74516e-06
-4.25133e-06
4.31407e-06
-4.14599e-06
3.95816e-06
-4.08022e-06
3.66596e-06
-4.02481e-06
3.43509e-06
-3.96913e-06
3.27073e-06
-3.9293e-06
3.1415e-06
-3.86201e-06
-3.80221e-06
3.05546e-06
1.33579e-05
-5.54891e-06
1.18018e-05
-4.34265e-06
1.04357e-05
-4.27286e-06
9.26747e-06
-4.28287e-06
8.25502e-06
-4.25676e-06
7.34978e-06
-4.23994e-06
6.54139e-06
-4.20381e-06
5.83545e-06
-4.14754e-06
5.22249e-06
-4.05293e-06
4.70557e-06
-3.93776e-06
4.25154e-06
-3.81176e-06
3.86336e-06
-3.69869e-06
3.51345e-06
-3.60586e-06
3.21174e-06
-3.54162e-06
2.9671e-06
-3.49316e-06
2.75296e-06
-3.43964e-06
2.60716e-06
-3.4045e-06
-3.357e-06
2.50352e-06
1.17578e-05
-4.83063e-06
1.05768e-05
-3.90071e-06
9.53503e-06
-3.88917e-06
8.54562e-06
-3.86201e-06
7.60107e-06
-3.78203e-06
6.72102e-06
-3.73084e-06
5.93791e-06
-3.69581e-06
5.2369e-06
-3.6296e-06
4.62649e-06
-3.54013e-06
4.10517e-06
-3.43486e-06
3.65734e-06
-3.31086e-06
3.28491e-06
-3.20877e-06
2.98129e-06
-3.12781e-06
2.73363e-06
-3.06953e-06
2.53649e-06
-3.02819e-06
2.38533e-06
-2.98394e-06
2.28666e-06
-2.96951e-06
-2.92308e-06
2.21422e-06
1.0188e-05
-4.1971e-06
9.18802e-06
-3.502e-06
8.31488e-06
-3.55515e-06
7.49564e-06
-3.50177e-06
6.74111e-06
-3.39838e-06
6.0311e-06
-3.30314e-06
5.34936e-06
-3.21077e-06
4.71898e-06
-3.11408e-06
4.15872e-06
-3.01866e-06
3.68519e-06
-2.9306e-06
3.31166e-06
-2.84339e-06
3.01434e-06
-2.76142e-06
2.78299e-06
-2.6965e-06
2.59253e-06
-2.63538e-06
2.4399e-06
-2.59381e-06
2.31044e-06
-2.5397e-06
2.19977e-06
-2.51822e-06
-2.47482e-06
2.11314e-06
9.24795e-06
-3.49906e-06
8.33395e-06
-3.08905e-06
7.49818e-06
-3.16754e-06
6.71994e-06
-3.09986e-06
6.00671e-06
-2.98285e-06
5.34564e-06
-2.86091e-06
4.73438e-06
-2.74196e-06
4.18252e-06
-2.63263e-06
3.69856e-06
-2.53715e-06
3.29117e-06
-2.46398e-06
2.97028e-06
-2.40753e-06
2.72801e-06
-2.35467e-06
2.54604e-06
-2.30653e-06
2.41518e-06
-2.25806e-06
2.31328e-06
-2.21223e-06
2.23572e-06
-2.15449e-06
2.15852e-06
-2.11047e-06
-2.06335e-06
2.09595e-06
8.44666e-06
-3.0773e-06
7.69166e-06
-2.75975e-06
6.979e-06
-2.83249e-06
6.2987e-06
-2.73392e-06
5.66053e-06
-2.58791e-06
5.06875e-06
-2.442e-06
4.52915e-06
-2.30755e-06
4.03121e-06
-2.17602e-06
3.58261e-06
-2.06996e-06
3.1788e-06
-1.9868e-06
2.82425e-06
-1.93025e-06
2.53208e-06
-1.89574e-06
2.30926e-06
-1.87781e-06
2.13347e-06
-1.84288e-06
2.00091e-06
-1.81156e-06
1.91213e-06
-1.77375e-06
1.84444e-06
-1.72988e-06
-1.69164e-06
1.80115e-06
7.52905e-06
-2.42247e-06
6.9503e-06
-2.54947e-06
6.3468e-06
-2.5538e-06
5.70141e-06
-2.35596e-06
5.09523e-06
-2.18556e-06
4.53544e-06
-2.02279e-06
4.02836e-06
-1.87999e-06
3.57904e-06
-1.74876e-06
3.18382e-06
-1.64432e-06
2.84818e-06
-1.57246e-06
2.57092e-06
-1.53062e-06
2.34864e-06
-1.51218e-06
2.16951e-06
-1.50318e-06
2.02783e-06
-1.476e-06
1.91121e-06
-1.44435e-06
1.81758e-06
-1.4081e-06
1.73557e-06
-1.35846e-06
-1.31411e-06
1.66168e-06
6.75069e-06
-2.08643e-06
6.45339e-06
-2.57301e-06
5.92386e-06
-2.30616e-06
5.27534e-06
-1.93794e-06
4.63022e-06
-1.71405e-06
4.04879e-06
-1.55863e-06
3.56133e-06
-1.45561e-06
3.15243e-06
-1.35194e-06
2.80389e-06
-1.26084e-06
2.49838e-06
-1.18887e-06
2.22147e-06
-1.13672e-06
1.96976e-06
-1.10902e-06
1.73736e-06
-1.08904e-06
1.53153e-06
-1.06218e-06
1.35304e-06
-1.03545e-06
1.20244e-06
-1.00817e-06
1.07727e-06
-9.68624e-07
-9.3709e-07
9.77012e-07
6.21826e-06
-1.87448e-06
5.65191e-06
-2.28793e-06
4.9756e-06
-1.87641e-06
4.31229e-06
-1.47539e-06
3.65103e-06
-1.20276e-06
3.01952e-06
-1.02667e-06
2.43808e-06
-9.25473e-07
1.92124e-06
-8.4114e-07
1.47272e-06
-7.76448e-07
1.08565e-06
-7.27612e-07
7.48562e-07
-6.90727e-07
4.40673e-07
-6.61819e-07
1.72382e-07
-6.54499e-07
-7.07427e-08
-6.29476e-07
-2.71202e-07
-6.25536e-07
-4.4491e-07
-6.08322e-07
-5.78653e-07
-5.95176e-07
-5.72514e-07
-6.92899e-07
5.35975e-06
-1.57957e-06
4.38605e-06
-1.5636e-06
3.31916e-06
-1.02652e-06
2.36893e-06
-7.00436e-07
1.518e-06
-4.82342e-07
7.83373e-07
-3.77753e-07
1.42661e-07
-3.27602e-07
-3.95784e-07
-3.05348e-07
-8.44154e-07
-2.93429e-07
-1.2243e-06
-2.78743e-07
-1.54065e-06
-2.74939e-07
-1.80921e-06
-2.66711e-07
-2.0445e-06
-2.68755e-07
-2.23563e-06
-2.67195e-07
-2.41275e-06
-2.59518e-07
-2.55555e-06
-2.61851e-07
-2.66103e-06
-2.74004e-07
-2.72534e-07
-2.73601e-06
3.42178e-06
1.59483e-06
3.41804e-07
-5.40401e-07
-1.16139e-06
-1.63631e-06
-2.02109e-06
-2.34604e-06
-2.6246e-06
-2.85701e-06
-3.05721e-06
-3.22392e-06
-3.37035e-06
-3.49575e-06
-3.59682e-06
-3.68611e-06
-3.77601e-06
-3.85477e-06
-2.08155e-07
-4.39938e-07
-3.82833e-07
-4.96854e-07
-5.44482e-07
-5.19194e-07
-7.00863e-07
-5.29015e-07
-8.57522e-07
-5.3022e-07
-1.01149e-06
-5.32104e-07
-1.1615e-06
-5.33415e-07
-1.30879e-06
-5.31788e-07
-1.45514e-06
-5.26645e-07
-1.60704e-06
-5.13428e-07
-1.7639e-06
-4.99307e-07
-1.9203e-06
-4.89156e-07
-2.07146e-06
-4.82289e-07
-2.21706e-06
-4.74181e-07
-2.35503e-06
-4.66485e-07
-2.48299e-06
-4.59263e-07
-2.61714e-06
-4.35846e-07
-2.71221e-06
-4.57962e-07
-2.76566e-06
-4.80396e-07
-2.81109e-06
-4.67438e-07
-2.85444e-06
-4.46149e-07
-2.88437e-06
-4.33353e-07
-2.91886e-06
-4.01596e-07
-2.99841e-06
-3.29717e-07
-3.14263e-06
-2.40703e-07
-3.2849e-06
-2.1777e-07
-3.26214e-06
-3.55712e-07
-3.05379e-06
-5.13261e-07
-2.77684e-06
-5.51137e-07
-2.51499e-06
-5.07328e-07
-2.27205e-06
-4.63147e-07
-2.06533e-06
-3.96979e-07
-1.98596e-06
-2.36419e-07
-2.17332e-06
5.75055e-08
-2.73409e-06
4.47057e-07
-3.55048e-06
7.15963e-07
-4.47296e-06
8.40056e-07
-5.38685e-06
8.53678e-07
-6.23864e-06
8.15858e-07
-6.98766e-06
7.34207e-07
-7.61397e-06
6.28816e-07
-8.10564e-06
5.09388e-07
-8.4686e-06
3.94362e-07
-8.70929e-06
2.8404e-07
-8.83067e-06
1.74349e-07
-8.84606e-06
7.56298e-08
-8.75629e-06
-2.4886e-08
-8.56644e-06
-1.22918e-07
-8.27917e-06
-2.21167e-07
-7.8942e-06
-3.2274e-07
-7.42694e-06
-4.11961e-07
-6.90661e-06
-4.75273e-07
-6.33412e-06
-5.40901e-07
-5.72993e-06
-5.8441e-07
-5.09412e-06
-6.34736e-07
-4.42847e-06
-6.86057e-07
-3.73507e-06
-7.37696e-07
-3.01897e-06
-7.87234e-07
-2.30103e-06
-8.18834e-07
-1.56989e-06
-8.62957e-07
-8.36584e-07
-8.97803e-07
-1.09266e-07
-9.26048e-07
6.16397e-07
-9.59929e-07
1.3308e-06
-9.85269e-07
2.0462e-06
-1.02369e-06
2.75952e-06
-1.0596e-06
3.47729e-06
-1.10235e-06
4.17675e-06
-1.12268e-06
4.85746e-06
-1.14286e-06
5.53939e-06
-1.18243e-06
6.20029e-06
-1.19905e-06
6.85141e-06
-1.22608e-06
7.46368e-06
-1.22385e-06
8.0504e-06
-1.23467e-06
8.60505e-06
-1.23795e-06
9.13191e-06
-1.24495e-06
9.63363e-06
-1.25413e-06
1.01213e-05
-1.27415e-06
1.06076e-05
-1.30607e-06
1.1072e-05
-1.31811e-06
1.14475e-05
-1.26702e-06
1.17233e-05
-1.20978e-06
1.19496e-05
-1.20288e-06
1.21731e-05
-1.24004e-06
1.24953e-05
-1.37234e-06
1.28767e-05
-1.46001e-06
1.31493e-05
-1.3831e-06
1.32595e-05
-1.25604e-06
1.32348e-05
-1.15836e-06
1.31939e-05
-1.17719e-06
1.31583e-05
-1.21841e-06
1.31058e-05
-1.2356e-06
1.29847e-05
-1.19815e-06
1.28893e-05
-1.26193e-06
1.28413e-05
-1.34476e-06
1.28378e-05
-1.42685e-06
1.28342e-05
-1.45978e-06
1.27124e-05
-1.37017e-06
1.24256e-05
-1.24568e-06
1.20872e-05
-1.24169e-06
1.1551e-05
-1.07152e-06
1.09897e-05
-1.0554e-06
1.03812e-05
-1.02828e-06
9.73478e-06
-1.03979e-06
9.49541e-06
-1.53702e-06
1.01138e-05
-2.52156e-06
1.13611e-05
-3.26912e-06
1.25704e-05
-3.3288e-06
1.3119e-05
-2.7556e-06
1.30728e-05
-2.20146e-06
1.25695e-05
-1.75927e-06
1.11546e-05
-9.04355e-07
8.92375e-06
-1.23761e-07
6.47881e-06
1.23199e-09
4.29968e-06
-4.2039e-07
2.59648e-06
-1.02508e-06
1.80348e-06
-2.06942e-06
1.98829e-06
-3.17646e-06
2.57585e-06
-3.70991e-06
2.93459e-06
-3.62426e-06
2.82689e-06
-3.29749e-06
1.82363e-06
-2.53065e-06
1.63609e-07
-2.00383e-06
-1.09355e-06
-2.60288e-06
-8.5124e-07
-4.29174e-06
-1.08508e-07
-4.89164e-06
-9.3085e-07
-3.49342e-06
-1.04684e-06
-4.37635e-06
6.38203e-07
-6.30471e-06
1.92138e-06
-6.15432e-06
2.96403e-06
-6.07214e-06
4.16786e-06
-6.42999e-06
5.19245e-06
-6.39579e-06
6.3279e-06
-6.62117e-06
7.40034e-06
-6.69123e-06
8.55301e-06
-6.93821e-06
9.57233e-06
-7.01761e-06
1.05441e-05
-7.22664e-06
1.11637e-05
-7.12692e-06
1.13537e-05
-6.89496e-06
1.12315e-05
-6.73999e-06
1.10554e-05
-6.84172e-06
1.09636e-05
-7.071e-06
1.11796e-05
-7.5411e-06
1.17547e-05
-8.11979e-06
1.25722e-05
-8.59339e-06
1.34649e-05
-8.86091e-06
1.44964e-05
-9.22634e-06
1.56421e-05
-9.62488e-06
1.69497e-05
-1.0121e-05
1.86553e-05
-1.09145e-05
2.07283e-05
-1.17474e-05
2.28823e-05
-1.22587e-05
2.46252e-05
-1.21253e-05
2.58099e-05
-1.18662e-05
2.66618e-05
-1.19948e-05
2.69793e-05
-1.17048e-05
2.73883e-05
-1.24062e-05
2.58549e-05
-1.14823e-05
2.30124e-05
-1.03121e-05
2.11032e-05
-1.15291e-05
1.86551e-05
-1.16029e-05
1.40987e-05
-9.52804e-06
7.62442e-06
-7.84585e-06
3.64934e-06
-1.12112e-05
1.714e-06
-1.41523e-05
2.19999e-06
-1.69288e-05
1.31075e-06
-1.52355e-05
-9.06861e-08
-1.56233e-05
-7.77866e-07
-1.653e-05
-4.2458e-06
-1.36739e-05
-7.19302e-06
-1.43648e-05
-5.81282e-06
-1.81586e-05
-3.06952e-06
-1.86317e-05
-1.1818e-06
-1.73834e-05
-2.05499e-06
-1.39751e-05
-5.87168e-06
-1.07147e-05
-9.70637e-06
-1.0288e-05
-1.27337e-05
-1.12227e-05
-1.12846e-05
-1.55091e-05
-2.34439e-07
-8.47879e-07
-4.24861e-07
-9.73988e-07
-5.62823e-07
-1.0585e-06
-6.69688e-07
-1.10403e-06
-7.69387e-07
-1.11559e-06
-8.71137e-07
-1.11657e-06
-9.78017e-07
-1.11218e-06
-1.09303e-06
-1.10041e-06
-1.21328e-06
-1.08637e-06
-1.32563e-06
-1.07567e-06
-1.45734e-06
-1.03483e-06
-1.59315e-06
-1.01213e-06
-1.71643e-06
-1.00764e-06
-1.83843e-06
-9.88499e-07
-1.95828e-06
-9.6845e-07
-2.06335e-06
-9.6062e-07
-2.15452e-06
-9.37266e-07
-2.18692e-06
-1.00141e-06
-2.18303e-06
-1.03859e-06
-2.20833e-06
-9.73599e-07
-2.28163e-06
-8.80191e-07
-2.29237e-06
-9.01842e-07
-2.16966e-06
-9.71358e-07
-1.977e-06
-9.43023e-07
-1.81668e-06
-7.99578e-07
-1.79427e-06
-6.06012e-07
-1.95032e-06
-5.29137e-07
-2.30583e-06
-4.49309e-07
-2.89298e-06
-2.12015e-07
-3.78033e-06
1.55122e-07
-5.01437e-06
5.49097e-07
-6.47477e-06
8.48704e-07
-7.92849e-06
1.03091e-06
-9.20563e-06
1.1838e-06
-1.02055e-05
1.32818e-06
-1.10228e-05
1.4364e-06
-1.1702e-05
1.43916e-06
-1.22871e-05
1.38153e-06
-1.2764e-05
1.25876e-06
-1.31308e-05
1.08741e-06
-1.33862e-05
8.87089e-07
-1.35372e-05
6.78377e-07
-1.35786e-05
4.68775e-07
-1.35097e-05
2.60449e-07
-1.33192e-05
4.02397e-08
-1.30432e-05
-1.36234e-07
-1.26714e-05
-3.27526e-07
-1.22057e-05
-5.17306e-07
-1.16602e-05
-6.96982e-07
-1.10721e-05
-8.45253e-07
-1.04072e-05
-1.01854e-06
-9.70526e-06
-1.12941e-06
-8.95624e-06
-1.25451e-06
-8.14859e-06
-1.37078e-06
-7.324e-06
-1.45593e-06
-6.48107e-06
-1.54707e-06
-5.6139e-06
-1.64688e-06
-4.71342e-06
-1.75716e-06
-3.78673e-06
-1.84548e-06
-2.90345e-06
-1.87834e-06
-2.06274e-06
-1.90381e-06
-1.20675e-06
-1.98211e-06
-3.30713e-07
-2.07235e-06
5.42391e-07
-2.13194e-06
1.40319e-06
-2.1963e-06
2.26805e-06
-2.27504e-06
3.12183e-06
-2.34551e-06
3.96529e-06
-2.39413e-06
4.78768e-06
-2.43268e-06
5.59655e-06
-2.49748e-06
6.3774e-06
-2.52287e-06
7.12735e-06
-2.55369e-06
7.83388e-06
-2.54302e-06
8.51212e-06
-2.5611e-06
9.14708e-06
-2.55343e-06
9.72048e-06
-2.53048e-06
1.02683e-05
-2.5443e-06
1.08059e-05
-2.5835e-06
1.13804e-05
-2.6778e-06
1.20073e-05
-2.75608e-06
1.26068e-05
-2.6953e-06
1.31003e-05
-2.58106e-06
1.34532e-05
-2.50763e-06
1.36824e-05
-2.50389e-06
1.40569e-05
-2.82583e-06
1.46542e-05
-3.11297e-06
1.52565e-05
-3.0186e-06
1.57363e-05
-2.78716e-06
1.59482e-05
-2.48209e-06
1.59858e-05
-2.39311e-06
1.6079e-05
-2.54401e-06
1.61181e-05
-2.56305e-06
1.60448e-05
-2.4331e-06
1.5892e-05
-2.46315e-06
1.58417e-05
-2.69792e-06
1.58523e-05
-2.86888e-06
1.57385e-05
-2.8132e-06
1.54308e-05
-2.55429e-06
1.50081e-05
-2.31713e-06
1.44136e-05
-2.16166e-06
1.3814e-05
-2.1238e-06
1.3451e-05
-2.46786e-06
1.29248e-05
-2.24582e-06
1.21636e-05
-1.94463e-06
1.17932e-05
-2.85819e-06
1.20537e-05
-4.63859e-06
1.29072e-05
-6.16187e-06
1.35828e-05
-6.20791e-06
1.32495e-05
-4.75114e-06
1.20496e-05
-3.33272e-06
1.01488e-05
-2.17546e-06
7.78642e-06
-9.0576e-07
5.70981e-06
-4.91267e-07
3.992e-06
-8.29867e-07
2.25248e-06
-1.37185e-06
9.2847e-07
-2.52436e-06
3.95069e-07
-4.45175e-06
2.45703e-07
-6.05371e-06
3.53951e-07
-7.04347e-06
3.41125e-07
-7.01877e-06
4.263e-08
-6.53686e-06
-1.01474e-06
-5.14347e-06
-2.16527e-06
-4.68011e-06
-2.73707e-06
-6.0208e-06
-1.87145e-06
-9.15953e-06
-8.49252e-07
-1.01101e-05
-1.38607e-06
-7.57105e-06
-1.03171e-06
-9.22605e-06
1.08441e-06
-1.2438e-05
3.18675e-06
-1.28709e-05
4.52682e-06
-1.24841e-05
5.99656e-06
-1.32377e-05
7.13336e-06
-1.31647e-05
8.11733e-06
-1.3275e-05
9.05796e-06
-1.32839e-05
1.00959e-05
-1.35914e-05
1.11998e-05
-1.38013e-05
1.27566e-05
-1.46364e-05
1.45584e-05
-1.5162e-05
1.62513e-05
-1.53117e-05
1.7256e-05
-1.49343e-05
1.74508e-05
-1.45912e-05
1.71848e-05
-1.4559e-05
1.68857e-05
-1.50217e-05
1.67771e-05
-1.58589e-05
1.6957e-05
-1.68652e-05
1.73943e-05
-1.76778e-05
1.79421e-05
-1.84015e-05
1.85301e-05
-1.9067e-05
1.94784e-05
-2.02218e-05
2.1087e-05
-2.20924e-05
2.33585e-05
-2.42723e-05
2.5874e-05
-2.59452e-05
2.76183e-05
-2.56965e-05
2.85795e-05
-2.51049e-05
2.89879e-05
-2.52793e-05
2.85286e-05
-2.43606e-05
2.8799e-05
-2.62682e-05
2.74243e-05
-2.5464e-05
2.3222e-05
-2.17006e-05
1.89057e-05
-2.2549e-05
1.3721e-05
-2.18148e-05
6.88524e-06
-1.7449e-05
4.59871e-07
-1.6436e-05
-1.17293e-06
-2.61711e-05
-2.88146e-06
-3.00564e-05
-2.43322e-06
-3.45997e-05
-4.27759e-07
-3.45331e-05
1.93803e-06
-3.59117e-05
1.80681e-06
-3.44231e-05
-1.46462e-06
-2.93478e-05
-3.05998e-06
-3.26502e-05
-1.5603e-06
-3.79226e-05
1.27484e-06
-3.77256e-05
4.67066e-06
-3.59011e-05
6.63759e-06
-3.02192e-05
3.63119e-06
-2.27877e-05
-2.4325e-06
-1.88364e-05
-7.60758e-06
-2.04911e-05
-2.38815e-05
-1.07988e-05
-2.68384e-07
-1.2072e-06
-4.88872e-07
-1.4e-06
-6.17117e-07
-1.58069e-06
-6.66773e-07
-1.70697e-06
-6.97025e-07
-1.74069e-06
-7.39157e-07
-1.7319e-06
-8.06631e-07
-1.70298e-06
-9.15101e-07
-1.65019e-06
-1.05442e-06
-1.60381e-06
-1.18884e-06
-1.59435e-06
-1.33492e-06
-1.53648e-06
-1.48644e-06
-1.50408e-06
-1.62975e-06
-1.50027e-06
-1.7407e-06
-1.49946e-06
-1.80709e-06
-1.5123e-06
-1.88126e-06
-1.49183e-06
-2.01424e-06
-1.39632e-06
-2.11913e-06
-1.46113e-06
-2.06516e-06
-1.62424e-06
-1.93634e-06
-1.60503e-06
-1.86659e-06
-1.42708e-06
-1.94825e-06
-1.26701e-06
-2.22121e-06
-1.11839e-06
-2.67287e-06
-8.83464e-07
-3.29175e-06
-5.37623e-07
-4.146e-06
-7.76773e-08
-5.38873e-06
4.0987e-07
-6.86051e-06
7.36927e-07
-8.31113e-06
9.75453e-07
-9.61934e-06
1.22659e-06
-1.07649e-05
1.48858e-06
-1.17651e-05
1.67741e-06
-1.26743e-05
1.79702e-06
-1.34546e-05
1.83983e-06
-1.40642e-05
1.82547e-06
-1.45019e-05
1.77756e-06
-1.48235e-05
1.6854e-06
-1.50059e-05
1.50966e-06
-1.50774e-05
1.29637e-06
-1.5051e-05
1.04504e-06
-1.49464e-05
7.83459e-07
-1.47731e-05
5.20669e-07
-1.45214e-05
2.45301e-07
-1.42033e-05
-1.72858e-08
-1.38284e-05
-2.87479e-07
-1.33644e-05
-5.49625e-07
-1.28341e-05
-8.03595e-07
-1.22483e-05
-1.04772e-06
-1.16281e-05
-1.26253e-06
-1.09321e-05
-1.49256e-06
-1.02064e-05
-1.70406e-06
-9.41046e-06
-1.89495e-06
-8.56768e-06
-2.08088e-06
-7.7264e-06
-2.21251e-06
-6.85017e-06
-2.35153e-06
-5.94884e-06
-2.49033e-06
-5.02971e-06
-2.63184e-06
-4.16331e-06
-2.71692e-06
-3.32869e-06
-2.80269e-06
-2.48461e-06
-2.87749e-06
-1.61767e-06
-2.95929e-06
-7.45348e-07
-3.078e-06
1.2024e-07
-3.19829e-06
9.76471e-07
-3.28636e-06
1.83217e-06
-3.38921e-06
2.69023e-06
-3.51026e-06
3.5587e-06
-3.63245e-06
4.41115e-06
-3.7061e-06
5.25237e-06
-3.77364e-06
6.07097e-06
-3.85691e-06
6.86323e-06
-3.89645e-06
7.61799e-06
-3.9258e-06
8.33091e-06
-3.90829e-06
8.99373e-06
-3.9142e-06
9.60906e-06
-3.89301e-06
1.01721e-05
-3.84816e-06
1.06829e-05
-3.83676e-06
1.11401e-05
-3.84988e-06
1.15636e-05
-3.93853e-06
1.20384e-05
-4.07925e-06
1.26263e-05
-4.11735e-06
1.32802e-05
-4.08371e-06
1.38885e-05
-4.03331e-06
1.42744e-05
-3.93677e-06
1.45903e-05
-4.30963e-06
1.50374e-05
-4.7127e-06
1.56469e-05
-4.66452e-06
1.61715e-05
-4.24901e-06
1.63597e-05
-3.64921e-06
1.62825e-05
-3.47262e-06
1.63944e-05
-3.87128e-06
1.67756e-05
-4.08972e-06
1.7085e-05
-3.92232e-06
1.69773e-05
-3.7241e-06
1.6891e-05
-4.05809e-06
1.71515e-05
-4.49471e-06
1.75073e-05
-4.49691e-06
1.7727e-05
-4.14926e-06
1.80668e-05
-4.10298e-06
1.80751e-05
-3.57133e-06
1.73011e-05
-2.78935e-06
1.61928e-05
-3.03578e-06
1.53193e-05
-3.20146e-06
1.47526e-05
-3.22708e-06
1.41203e-05
-4.05247e-06
1.37295e-05
-6.11206e-06
1.3096e-05
-7.52564e-06
1.21398e-05
-7.29277e-06
1.0822e-05
-5.5331e-06
8.95935e-06
-3.68492e-06
6.71045e-06
-2.24172e-06
4.78902e-06
-1.37293e-06
3.51619e-06
-1.68883e-06
2.38734e-06
-2.28584e-06
8.99689e-07
-2.59331e-06
-2.15897e-07
-4.21037e-06
-1.24691e-06
-6.29687e-06
-1.80464e-06
-8.57846e-06
-1.62693e-06
-1.04775e-05
-1.07601e-06
-1.08886e-05
-5.5641e-07
-1.05909e-05
-1.06137e-06
-8.39953e-06
-2.18721e-06
-7.35362e-06
-3.43324e-06
-8.58043e-06
-3.51881e-06
-1.28929e-05
-2.54201e-06
-1.52551e-05
-2.28999e-07
-1.40265e-05
1.2197e-06
-1.46592e-05
2.33912e-06
-1.72388e-05
4.64934e-06
-1.85646e-05
6.44742e-06
-1.83379e-05
8.20063e-06
-1.93186e-05
9.409e-06
-1.93246e-05
1.01034e-05
-1.93345e-05
1.06228e-05
-1.93911e-05
1.10693e-05
-1.95943e-05
1.1444e-05
-1.96035e-05
1.22409e-05
-2.06417e-05
1.36677e-05
-2.18461e-05
1.5582e-05
-2.28847e-05
1.74972e-05
-2.31955e-05
1.88481e-05
-2.30522e-05
1.95588e-05
-2.29419e-05
1.98805e-05
-2.32319e-05
1.99899e-05
-2.39132e-05
2.00286e-05
-2.49282e-05
2.03337e-05
-2.61924e-05
2.07999e-05
-2.73988e-05
2.1291e-05
-2.83611e-05
2.1748e-05
-2.95763e-05
2.23882e-05
-3.15996e-05
2.39283e-05
-3.46989e-05
2.67031e-05
-3.83666e-05
2.90534e-05
-3.93402e-05
2.97225e-05
-3.83544e-05
2.93429e-05
-3.80801e-05
2.74659e-05
-3.62229e-05
2.67884e-05
-3.91665e-05
2.62236e-05
-3.9192e-05
2.15639e-05
-3.2915e-05
1.58192e-05
-3.23643e-05
1.01411e-05
-3.15343e-05
4.42593e-06
-2.75031e-05
5.7453e-07
-2.84478e-05
-2.67929e-07
-4.22731e-05
-2.88304e-06
-4.65671e-05
-4.17652e-06
-5.31867e-05
-2.88663e-06
-5.53705e-05
2.35244e-06
-5.7583e-05
6.45773e-06
-5.52776e-05
3.80519e-06
-4.48976e-05
1.30311e-06
-4.89971e-05
2.4653e-06
-5.54218e-05
4.89639e-06
-5.53698e-05
6.8422e-06
-5.15669e-05
9.09579e-06
-4.50705e-05
8.94547e-06
-3.55712e-05
4.1225e-06
-2.83101e-05
-2.31971e-06
-2.75787e-05
-3.29618e-05
-6.46567e-06
-2.78093e-07
-1.54109e-06
-5.04554e-07
-1.80355e-06
-6.16185e-07
-2.10342e-06
-6.26076e-07
-2.33564e-06
-6.04373e-07
-2.40444e-06
-6.10462e-07
-2.37088e-06
-6.50019e-07
-2.30964e-06
-7.5822e-07
-2.18774e-06
-9.29673e-07
-2.075e-06
-1.1571e-06
-2.00287e-06
-1.38654e-06
-1.94017e-06
-1.61437e-06
-1.9087e-06
-1.80796e-06
-1.93224e-06
-2.01962e-06
-1.90363e-06
-2.23951e-06
-1.89994e-06
-2.30183e-06
-2.01365e-06
-2.2733e-06
-1.96874e-06
-2.35644e-06
-1.88465e-06
-2.6296e-06
-1.82121e-06
-3.0389e-06
-1.6397e-06
-3.64435e-06
-1.24531e-06
-4.50087e-06
-8.07182e-07
-5.58755e-06
-4.23919e-07
-6.81166e-06
-4.08994e-08
-8.0462e-06
3.42513e-07
-9.20385e-06
7.53273e-07
-1.02249e-05
1.13598e-06
-1.12268e-05
1.47903e-06
-1.22071e-05
1.72407e-06
-1.308e-05
1.89643e-06
-1.37936e-05
2.02273e-06
-1.43871e-05
2.10644e-06
-1.48647e-05
2.1142e-06
-1.52386e-05
2.06218e-06
-1.55134e-05
1.96454e-06
-1.56889e-05
1.83554e-06
-1.57487e-05
1.65331e-06
-1.57204e-05
1.40842e-06
-1.56167e-05
1.1421e-06
-1.54406e-05
8.41179e-07
-1.52002e-05
5.35874e-07
-1.48943e-05
2.28285e-07
-1.45329e-05
-8.88747e-08
-1.4116e-05
-3.99522e-07
-1.36468e-05
-7.16659e-07
-1.31299e-05
-1.01974e-06
-1.25804e-05
-1.3062e-06
-1.19637e-05
-1.61592e-06
-1.12793e-05
-1.89824e-06
-1.0551e-05
-2.17927e-06
-9.78845e-06
-2.43176e-06
-8.9791e-06
-2.68143e-06
-8.11851e-06
-2.933e-06
-7.22194e-06
-3.11646e-06
-6.31166e-06
-3.29004e-06
-5.42034e-06
-3.43127e-06
-4.58997e-06
-3.53487e-06
-3.77477e-06
-3.63178e-06
-2.96454e-06
-3.74085e-06
-2.15581e-06
-3.84457e-06
-1.35404e-06
-3.95197e-06
-5.71213e-07
-4.08551e-06
2.01397e-07
-4.23077e-06
9.90723e-07
-4.37208e-06
1.8043e-06
-4.53728e-06
2.61536e-06
-4.69405e-06
3.43645e-06
-4.865e-06
4.28465e-06
-5.00782e-06
5.13482e-06
-5.12103e-06
5.96198e-06
-5.22405e-06
6.77692e-06
-5.29611e-06
7.58677e-06
-5.36293e-06
8.39141e-06
-5.38039e-06
9.12579e-06
-5.36272e-06
9.80794e-06
-5.33827e-06
1.04364e-05
-5.27875e-06
1.10225e-05
-5.25022e-06
1.15821e-05
-5.25966e-06
1.2046e-05
-5.28168e-06
1.23949e-05
-5.34204e-06
1.27869e-05
-5.42835e-06
1.32724e-05
-5.47043e-06
1.3893e-05
-5.55765e-06
1.45857e-05
-5.57667e-06
1.50852e-05
-5.9009e-06
1.55029e-05
-6.37543e-06
1.59521e-05
-6.32794e-06
1.63086e-05
-5.65572e-06
1.64525e-05
-4.82628e-06
1.62904e-05
-4.56818e-06
1.62299e-05
-5.16189e-06
1.6596e-05
-5.62603e-06
1.71643e-05
-5.54775e-06
1.73117e-05
-5.12855e-06
1.71128e-05
-5.32277e-06
1.73027e-05