/*--------------------------------*- C++ -*----------------------------------*\
| =========                 |                                                 |
| \\      /  F ield         | OpenFOAM: The Open Source CFD Toolbox           |
|  \\    /   O peration     | Version:  dev                                   |
|   \\  /    A nd           | Web:      http://www.openfoam.org               |
|    \\/     M anipulation  |                                                 |
\*---------------------------------------------------------------------------*/
FoamFile
{
    version     2.0;
    format      ascii;
    class       volScalarField;
    object      pMean;
    location    "9.159";
}
// * * * * * * * * * * * * * * * * * * * * * * * * * * * * * * * * * * * * * //

dimensions      [1 -1 -2 0 0 0 0];

internalField   nonuniform List<scalar> 
12225
(
98310.1
98290.3
98276.6
98269.5
98255.3
98245.9
98227.4
98217.8
98196.3
98187.6
98162.9
98156.1
98125.1
98118.8
98078
98038.3
97949.2
97583.3
98305.6
98289.2
98276
98269
98254.7
98245.3
98226.7
98217.3
98195.6
98187.2
98162.2
98155.5
98124.7
98116.9
98076.3
98042.4
97950.1
97789
98301.8
98287.6
98275
98267.6
98253.3
98243.8
98225.2
98215.9
98194.2
98185.7
98161.4
98153.5
98125.3
98113.5
98078.6
98043.3
97975.9
97887.1
98296.7
98284.7
98272.9
98265.2
98250.9
98241.1
98223.1
98213.3
98192.5
98183
98160
98150.4
98124.2
98111.3
98079.5
98051.7
98003.2
97934.4
98290.1
98280.3
98269.3
98261.2
98247.3
98237
98220.1
98209.1
98190
98178.7
98158.5
98145.9
98124.4
98108
98081.4
98057.2
98017.4
97984.7
98281.9
98274.2
98263.4
98255.1
98241.7
98231.1
98215
98203.4
98185.6
98173.5
98155.3
98141.7
98123.3
98106.4
98085
98059.7
98037.6
98017.1
98271.6
98265.3
98254.9
98246.4
98233.8
98222.7
98207.9
98195.3
98179.6
98166.1
98150.7
98135.6
98121.1
98103.5
98089.2
98068.2
98057.9
98043
98260.9
98255.2
98245.5
98236.9
98225.1
98213.6
98200
98186.8
98172.9
98158.5
98145.4
98129.8
98118.2
98100.9
98092.2
98074.4
98072.7
98057.7
98250
98244.6
98235.8
98226.9
98216
98204.3
98191.7
98178.2
98165.6
98151
98139.6
98124.1
98114.4
98098.4
98092.1
98077.9
98077.7
98065.7
98236.4
98231
98223.3
98214.3
98204.4
98192.6
98181
98167.6
98156.3
98141.7
98131.8
98116.9
98108.7
98094.3
98089.3
98077.5
98076.7
98068.5
98219.5
98214
98207.5
98198.7
98189.6
98178.1
98167.4
98154.4
98143.9
98130.3
98120.9
98107.8
98099.8
98088.3
98082.6
98074.1
98071.4
98066.2
98199
98193.3
98188
98179.6
98171.2
98160.2
98150.3
98138
98128.4
98115.9
98107.2
98095.7
98088.2
98078.9
98073.2
98066.8
98063.2
98059.6
98174.2
98168.9
98164.4
98156.9
98148.9
98139
98129.5
98118.7
98109.4
98098.8
98090.3
98081
98073.8
98066.6
98061.1
98056.3
98052.7
98049.9
98146
98141.2
98137.2
98130.7
98123.4
98114.5
98105.9
98096.4
98087.9
98078.9
98071.2
98063.6
98057.2
98051.5
98046.8
98043
98040
98037.9
98115.9
98112.2
98108.4
98103
98096.5
98088.9
98081.1
98073
98065.4
98057.9
98051.2
98045.1
98039.8
98035.3
98031.5
98028.6
98026.4
98024.9
98088.2
98085.5
98082.1
98077.6
98072
98065.5
98058.7
98051.8
98045.2
98039.1
98033.4
98028.5
98024.2
98020.6
98017.7
98015.6
98014
98013.1
98069.7
98067.7
98064.9
98061
98056.1
98050.4
98044.5
98038.5
98032.8
98027.6
98022.8
98018.6
98015.1
98012.2
98009.9
98008.2
98007
98006.4
98069.9
98068.2
98065.7
98061.9
98057.2
98051.9
98046.3
98040.7
98035.4
98030.5
98026
98022
98018.7
98015.9
98013.6
98011.9
98010.7
98010
98089.6
98087.8
98084.9
98081
98076
98070.5
98064.7
98058.9
98053.3
98048.1
98043.3
98039
98035.3
98032.1
98029.4
98027.3
98025.6
98024.3
98120.4
98118.2
98114.8
98110.3
98104.9
98098.8
98092.5
98086.1
98080
98074.2
98068.8
98063.8
98059.4
98055.6
98052.2
98049.4
98047
98045.1
98155.1
98152.6
98148.5
98143.3
98137.2
98130.6
98123.6
98116.6
98109.8
98103.3
98097.2
98091.5
98086.3
98081.7
98077.6
98074
98070.9
98068.2
98189
98185.9
98181.1
98175.3
98168.6
98161.3
98153.8
98146.2
98138.7
98131.5
98124.7
98118.4
98112.5
98107.1
98102.3
98098
98094.1
98090.7
98219.2
98215.5
98210
98203.5
98196.3
98188.5
98180.5
98172.4
98164.4
98156.6
98149.2
98142.2
98135.7
98129.8
98124.3
98119.4
98114.9
98110.9
98244.5
98240.2
98233.8
98226.7
98219
98210.9
98202.5
98194
98185.6
98177.4
98169.5
98162
98155
98148.6
98142.6
98137.1
98132.2
98127.6
98264.7
98259.5
98252.4
98244.7
98236.7
98228.4
98219.7
98210.9
98202.2
98193.6
98185.4
98177.5
98170.2
98163.3
98156.9
98151.1
98145.7
98140.8
98280.4
98274
98266
98257.8
98249.6
98241.2
98232.4
98223.4
98214.4
98205.6
98197.1
98189
98181.4
98174.2
98167.6
98161.4
98155.8
98150.6
98292.1
98284.3
98275.2
98266.7
98258.5
98250
98241.1
98232
98222.9
98214
98205.3
98197
98189.2
98181.9
98175
98168.7
98162.8
98157.4
98300.9
98291
98281
98272.3
98264.1
98255.6
98246.7
98237.6
98228.4
98219.4
98210.6
98202.2
98194.3
98186.8
98179.8
98173.4
98167.4
98161.8
98307
98294.8
98283.7
98275.1
98267
98258.7
98249.9
98240.8
98231.6
98222.5
98213.6
98205.2
98197.1
98189.6
98182.6
98176
98170
98164.3
98312.9
98297.4
98285.3
98276.5
98268.3
98259.9
98251.2
98242.1
98232.9
98223.8
98214.9
98206.4
98198.3
98190.8
98183.7
98177.1
98171.1
98165.5
98309.9
98309.6
98308.8
98307.6
98306.1
98304.3
98302.1
98299.5
98296.4
98293
98289.1
98284.9
98280.3
98275.3
98270.1
98264.6
98258.9
98253
98246.9
98240.7
98234.2
98227.7
98221
98214.2
98207.3
98200.3
98193.3
98186.2
98179.2
98172.1
98165
98157.9
98150.9
98143.9
98137.1
98130.3
98123.7
98117.2
98110.9
98104.8
98098.8
98093.2
98087.7
98082.6
98077.8
98073.3
98069.2
98065.5
98062.2
98059.3
98057
98055.1
98053.7
98052.8
98052.6
98052.9
98053.9
98055.5
98057.8
98060.7
98064.4
98068.8
98073.8
98079.7
98086.2
98093.5
98101.4
98110.1
98119.4
98129.3
98139.9
98151.1
98162.9
98175.1
98187.9
98201.1
98214.8
98228.7
98243
98257.6
98272.4
98287.4
98302.6
98317.8
98333.1
98348.3
98363.5
98378.6
98393.5
98408.2
98422.6
98436.8
98450.5
98463.9
98476.8
98489.2
98501.1
98512.5
98523.2
98533.3
98542.9
98551.7
98560
98567.5
98574.5
98580.8
98586.5
98591.7
98596.3
98600.4
98604.1
98607.2
98610.1
98612.6
98614.8
98616.7
98618.4
98619.8
98621
98622.2
98623.2
98624.3
98625.5
98626.8
98628.4
98630.4
98633.1
98636.5
98640.9
98646.5
98653.6
98662.3
98673
98685.9
98701.3
98719.3
98740.1
98763.9
98790.7
98820.5
98853.5
98889.4
98928.3
98969.8
99014.2
99060.7
99109.7
99160.4
99213
99267.2
99322.7
99379.1
99436.1
99493.5
99550.7
99607.3
99662.7
99716.5
99767.5
99815.4
99858.9
99897.3
99929.3
99954.3
99971.1
99978.7
99976.1
99963.1
99939
99904.4
99859
99804.3
99740.4
99669.7
99592.7
99512.2
99427.6
99342.9
99256
99172.8
98303
98302.6
98301.8
98300.7
98299.1
98297.3
98295
98292.4
98289.4
98286
98282.3
98278.1
98273.6
98268.8
98263.8
98258.5
98252.9
98247.2
98241.3
98235.2
98229
98222.6
98216.1
98209.4
98202.7
98195.9
98189
98182.1
98175.2
98168.3
98161.3
98154.4
98147.5
98140.8
98134
98127.4
98120.9
98114.6
98108.4
98102.4
98096.6
98091
98085.7
98080.7
98075.9
98071.5
98067.5
98063.8
98060.6
98057.7
98055.4
98053.4
98052
98051.2
98050.9
98051.2
98052.1
98053.6
98055.8
98058.7
98062.3
98066.6
98071.5
98077.2
98083.6
98090.7
98098.5
98107
98116.2
98126
98136.4
98147.3
98158.9
98171
98183.5
98196.5
98209.9
98223.7
98237.7
98252.1
98266.6
98281.4
98296.3
98311.2
98326.2
98341.2
98356.1
98370.9
98385.5
98399.9
98414.1
98427.9
98441.4
98454.5
98467.1
98479.2
98490.9
98501.9
98512.4
98522.3
98531.6
98540.2
98548.3
98555.7
98562.4
98568.6
98574.2
98579.2
98583.7
98587.7
98591.2
98594.3
98597.1
98599.6
98601.7
98603.5
98605.1
98606.5
98607.7
98608.7
98609.7
98610.7
98611.7
98612.9
98614.4
98616.2
98618.6
98621.8
98625.9
98631.2
98637.9
98646.1
98656.4
98668.7
98683.4
98700.8
98720.9
98743.9
98769.8
98798.8
98830.8
98865.7
98903.5
98944
98987.2
99032.6
99080.4
99130
99181.4
99234.4
99288.7
99344
99399.9
99456.2
99512.4
99568.1
99622.5
99675.5
99725.8
99773.1
99816.1
99854.2
99886.2
99911.4
99928.5
99936.6
99934.8
99922.9
99900.2
99867
99823.3
99770.3
99708.1
99639.2
99564
99485.2
99402.3
99319.1
99233.2
99148.2
98290.3
98289.9
98289.1
98287.9
98286.3
98284.4
98282.1
98279.4
98276.4
98273
98269.3
98265.3
98261
98256.4
98251.5
98246.5
98241.3
98235.9
98230.3
98224.6
98218.7
98212.7
98206.6
98200.3
98194
98187.5
98181
98174.4
98167.7
98161.1
98154.4
98147.8
98141.2
98134.7
98128.2
98121.8
98115.6
98109.5
98103.5
98097.7
98092.1
98086.7
98081.6
98076.7
98072.1
98067.8
98063.9
98060.3
98057.1
98054.3
98051.9
98050
98048.6
98047.6
98047.2
98047.4
98048.3
98049.7
98051.7
98054.5
98057.9
98061.9
98066.7
98072.1
98078.2
98085.1
98092.6
98100.8
98109.6
98119.1
98129.1
98139.7
98150.9
98162.6
98174.7
98187.3
98200.3
98213.6
98227.2
98241.1
98255.2
98269.5
98283.9
98298.4
98312.9
98327.3
98341.7
98356
98370.1
98383.9
98397.5
98410.8
98423.7
98436.2
98448.3
98459.9
98470.9
98481.5
98491.5
98500.9
98509.7
98517.9
98525.5
98532.5
98539
98544.8
98550.1
98554.9
98559.1
98562.9
98566.3
98569.2
98571.9
98574.2
98576.2
98577.9
98579.3
98580.6
98581.6
98582.5
98583.3
98584.1
98584.9
98585.7
98586.8
98588.3
98590.2
98592.8
98596.3
98600.8
98606.7
98614
98623.3
98634.5
98648
98663.9
98682.6
98704
98728.3
98755.4
98785.5
98818.4
98854.1
98892.4
98933.4
98976.5
99022
99069.2
99118.3
99168.9
99220.9
99273.8
99327.5
99381.6
99435.7
99489.3
99541.9
99593.1
99641.8
99687.7
99729.7
99767
99798.4
99823.5
99841
99849.8
99849.4
99839.3
99818.9
99788.4
99747.7
99698.1
99639.5
99574.3
99502.7
99427.4
99347.9
99267.9
99184.9
99101
98272.8
98272.5
98271.7
98270.6
98269
98267
98264.6
98262
98259
98255.6
98252
98248.1
98244
98239.7
98235.1
98230.4
98225.5
98220.5
98215.3
98210
98204.6
98199.1
98193.4
98187.6
98181.8
98175.8
98169.7
98163.6
98157.5
98151.3
98145.1
98138.9
98132.7
98126.6
98120.5
98114.5
98108.6
98102.8
98097.1
98091.6
98086.2
98081.1
98076.1
98071.4
98067
98062.9
98059.1
98055.6
98052.5
98049.7
98047.4
98045.5
98044
98043
98042.5
98042.6
98043.3
98044.5
98046.4
98048.9
98052
98055.8
98060.2
98065.3
98071.1
98077.5
98084.6
98092.3
98100.7
98109.7
98119.3
98129.4
98140
98151.2
98162.8
98174.8
98187.1
98199.8
98212.8
98226.1
98239.5
98253.1
98266.8
98280.6
98294.3
98308.1
98321.7
98335.2
98348.6
98361.7
98374.5
98387
98399.2
98411
98422.3
98433.1
98443.4
98453.2
98462.5
98471.3
98479.4
98487
98494.1
98500.6
98506.5
98511.9
98516.8
98521.2
98525.1
98528.6
98531.7
98534.4
98536.8
98538.9
98540.7
98542.2
98543.5
98544.5
98545.4
98546
98546.6
98547
98547.4
98547.8
98548.4
98549.2
98550.5
98552.3
98554.8
98558.3
98563.1
98569.1
98576.9
98586.5
98598.3
98612.4
98629
98648.2
98670.1
98694.8
98722.2
98752.4
98785.1
98820.5
98858.4
98898.4
98940.6
98984.7
99030.6
99078
99126.8
99176.6
99227.3
99278.5
99329.7
99380.5
99430.5
99479.3
99525.9
99569.8
99610.1
99646.2
99676.8
99701.5
99719.2
99728.9
99729.8
99721.7
99704.1
99676.9
99640.1
99594.7
99540.8
99480.5
99413.6
99343.2
99268.4
99192.9
99114.1
99034
98251.7
98251.4
98250.7
98249.5
98248
98246.1
98243.8
98241.2
98238.3
98235.1
98231.6
98227.9
98223.9
98219.8
98215.6
98211.2
98206.6
98202
98197.3
98192.4
98187.5
98182.5
98177.3
98172.1
98166.7
98161.3
98155.8
98150.2
98144.7
98139
98133.4
98127.8
98122.1
98116.5
98110.9
98105.4
98100
98094.6
98089.4
98084.3
98079.3
98074.4
98069.8
98065.3
98061.1
98057.2
98053.5
98050.2
98047.2
98044.5
98042.2
98040.3
98038.8
98037.7
98037.1
98037
98037.5
98038.6
98040.2
98042.4
98045.1
98048.5
98052.5
98057.2
98062.5
98068.4
98075
98082.2
98090
98098.4
98107.3
98116.8
98126.8
98137.2
98148.1
98159.4
98171
98182.9
98195.1
98207.5
98220.1
98232.8
98245.6
98258.5
98271.4
98284.2
98296.9
98309.5
98321.9
98334.1
98346
98357.6
98368.8
98379.6
98390
98399.9
98409.4
98418.3
98426.7
98434.6
98442
98448.9
98455.2
98461
98466.4
98471.2
98475.5
98479.4
98482.9
98486
98488.8
98491.2
98493.3
98495.2
98496.7
98497.9
98499
98499.7
98500.3
98500.6
98500.8
98500.8
98500.7
98500.6
98500.5
98500.6
98501
98501.8
98503.2
98505.5
98508.8
98513.3
98519.3
98527
98536.7
98548.5
98562.6
98579.1
98598.2
98619.8
98644.1
98670.9
98700.2
98731.9
98766.1
98802.5
98840.8
98881.1
98923.2
98966.8
99011.8
99057.9
99104.9
99152.5
99200.2
99247.7
99294.5
99340.3
99384.3
99425.8
99464.1
99498.5
99528
99552.1
99569.7
99580
99582.3
99576.5
99561.7
99538.4
99506
99465.6
99417
99362.4
99301.3
99236.9
99167.9
99098
99024.7
98950.1
98228.3
98228.1
98227.4
98226.4
98224.9
98223.1
98221
98218.6
98215.8
98212.8
98209.5
98206
98202.3
98198.5
98194.5
98190.4
98186.2
98181.9
98177.6
98173.2
98168.7
98164.1
98159.4
98154.7
98149.9
98145
98140.1
98135.2
98130.2
98125.2
98120.2
98115.1
98110.1
98105
98100
98095.1
98090.2
98085.4
98080.6
98076
98071.4
98067
98062.7
98058.6
98054.6
98050.9
98047.5
98044.3
98041.4
98038.8
98036.6
98034.7
98033.1
98032
98031.3
98031.1
98031.3
98032.1
98033.4
98035.3
98037.7
98040.6
98044.2
98048.3
98053.1
98058.4
98064.4
98070.9
98078.1
98085.7
98093.9
98102.7
98111.9
98121.5
98131.5
98141.9
98152.6
98163.6
98174.9
98186.3
98197.9
98209.7
98221.5
98233.3
98245.1
98256.9
98268.5
98280.1
98291.4
98302.5
98313.3
98323.8
98334
98343.7
98353.1
98361.9
98370.3
98378.3
98385.8
98392.8
98399.3
98405.3
98410.8
98415.9
98420.5
98424.7
98428.4
98431.8
98434.8
98437.4
98439.8
98441.8
98443.5
98445
98446.2
98447.1
98447.8
98448.2
98448.4
98448.3
98448
98447.5
98446.9
98446.1
98445.3
98444.6
98444
98443.6
98443.8
98444.6
98446.3
98449.1
98453.1
98458.6
98465.9
98475.1
98486.4
98500
98515.9
98534.1
98554.9
98577.9
98603.4
98631.1
98661.2
98693.4
98727.6
98763.7
98801.6
98841
98881.9
98923.9
98966.7
99010.3
99054.1
99097.9
99141.3
99183.6
99224.5
99263.4
99299.3
99331.7
99359.6
99382.8
99400.2
99410.9
99414.5
99410.8
99399.1
99379.6
99351.7
99316.6
99273.7
99225.3
99170.6
99112.8
99050.3
98987
98920.1
98852
98203.8
98203.7
98203.2
98202.2
98201
98199.3
98197.4
98195.2
98192.6
98189.8
98186.8
98183.6
98180.2
98176.6
98173
98169.2
98165.4
98161.4
98157.5
98153.4
98149.3
98145.2
98141
98136.8
98132.5
98128.1
98123.8
98119.4
98115
98110.6
98106.2
98101.7
98097.3
98092.8
98088.4
98084.1
98079.7
98075.4
98071.2
98067
98062.9
98058.8
98054.9
98051.2
98047.6
98044.2
98040.9
98037.9
98035.2
98032.7
98030.5
98028.6
98027
98025.8
98025
98024.6
98024.7
98025.2
98026.2
98027.7
98029.7
98032.2
98035.3
98038.9
98043
98047.7
98053
98058.9
98065.2
98072.1
98079.5
98087.4
98095.7
98104.5
98113.6
98123
98132.7
98142.7
98153
98163.3
98173.9
98184.5
98195.2
98205.9
98216.5
98227.1
98237.6
98247.9
98258.1
98268
98277.6
98286.9
98295.9
98304.5
98312.7
98320.5
98327.8
98334.7
98341.2
98347.2
98352.8
98357.9
98362.6
98366.8
98370.7
98374.1
98377.2
98380
98382.4
98384.5
98386.4
98388
98389.3
98390.3
98391.1
98391.6
98391.9
98391.9
98391.6
98391.1
98390.3
98389.3
98388
98386.4
98384.8
98383.1
98381.4
98379.9
98378.6
98377.9
98377.8
98378.8
98380.6
98383.8
98388.6
98395.1
98403.4
98413.9
98426.3
98441
98458
98477.1
98498.6
98522.2
98548
98575.9
98605.7
98637.5
98670.9
98705.9
98742.4
98780.1
98818.6
98858
98897.7
98937.6
98977.2
99015.9
99053.4
99089.1
99122.4
99152.5
99178.5
99200.4
99217.1
99228.1
99232.7
99231.1
99222.1
99206.4
99182.9
99153
99116
99073.9
99025.9
98975.1
98919.6
98863.3
98803.4
98742.5
98179.7
98179.6
98179.2
98178.4
98177.3
98175.9
98174.2
98172.2
98170
98167.5
98164.7
98161.8
98158.7
98155.5
98152.2
98148.8
98145.3
98141.7
98138.1
98134.4
98130.7
98127
98123.2
98119.4
98115.6
98111.8
98107.9
98104.1
98100.2
98096.3
98092.4
98088.5
98084.6
98080.7
98076.9
98073
98069.2
98065.4
98061.6
98057.9
98054.2
98050.6
98047
98043.6
98040.3
98037.1
98034.2
98031.4
98028.7
98026.4
98024.2
98022.3
98020.7
98019.5
98018.5
98018
98017.8
98018.1
98018.7
98019.9
98021.4
98023.5
98026
98029.1
98032.7
98036.7
98041.3
98046.4
98052
98058.1
98064.7
98071.7
98079.1
98086.9
98095
98103.4
98112.2
98121.1
98130.2
98139.5
98148.9
98158.4
98167.9
98177.4
98186.8
98196.2
98205.4
98214.5
98223.4
98232.1
98240.5
98248.6
98256.3
98263.7
98270.7
98277.4
98283.6
98289.4
98294.8
98299.8
98304.4
98308.6
98312.4
98315.8
98318.9
98321.6
98324
98326
98327.8
98329.4
98330.7
98331.8
98332.6
98333.2
98333.5
98333.5
98333.3
98332.9
98332.1
98331.1
98329.7
98328
98326
98323.6
98321.1
98318.3
98315.5
98312.7
98310
98307.7
98305.9
98304.8
98304.5
98305.3
98307.5
98311.2
98316.5
98323.8
98332.8
98343.9
98357.1
98372.4
98389.9
98409.3
98430.8
98454.3
98479.7
98507.1
98536.1
98566.7
98598.8
98632.1
98666.2
98701.3
98736.9
98772.8
98808.5
98843.5
98877.3
98909.7
98939.9
98967.5
98991.3
99011.5
99027.3
99038.1
99043.5
99043.4
99036.9
99024.5
99005.1
98980.2
98948.7
98912.8
98871.5
98827.8
98779.4
98730.5
98677.8
98624.6
98156.8
98156.9
98156.5
98155.9
98155
98153.8
98152.3
98150.6
98148.6
98146.5
98144.1
98141.5
98138.7
98135.9
98132.9
98129.8
98126.7
98123.4
98120.2
98116.9
98113.6
98110.3
98106.9
98103.6
98100.2
98096.8
98093.4
98090
98086.6
98083.2
98079.8
98076.3
98072.9
98069.5
98066.1
98062.7
98059.3
98056
98052.6
98049.2
98045.9
98042.6
98039.4
98036.3
98033.2
98030.3
98027.5
98024.9
98022.4
98020.1
98018
98016.1
98014.5
98013.1
98012
98011.3
98010.9
98010.9
98011.3
98012
98013.2
98014.8
98016.9
98019.4
98022.3
98025.8
98029.7
98034.1
98038.9
98044.2
98049.9
98056
98062.5
98069.4
98076.5
98084
98091.7
98099.6
98107.6
98115.8
98124
98132.3
98140.6
98148.9
98157.1
98165.3
98173.3
98181.1
98188.7
98196.1
98203.2
98210
98216.6
98222.7
98228.6
98234
98239.1
98243.8
98248.1
98252.1
98255.7
98258.9
98261.8
98264.4
98266.7
98268.6
98270.3
98271.7
98272.8
98273.8
98274.5
98275
98275.3
98275.3
98275.1
98274.6
98273.9
98272.8
98271.5
98269.8
98267.8
98265.4
98262.6
98259.4
98255.9
98252.1
98248.1
98244
98240
98236.1
98232.5
98229.4
98227
98225.5
98225.1
98226
98228.5
98232.5
98238.2
98245.9
98255.3
98266.9
98280.4
98295.9
98313.2
98332.5
98353.6
98376.8
98401.5
98427.8
98455.5
98484.5
98514.4
98545.3
98576.8
98608.7
98640.3
98671.4
98701.5
98730.4
98757.4
98782.1
98803.5
98821.7
98836
98846.3
98851.9
98852.9
98848.3
98838.7
98823
98802.5
98776.2
98746.3
98711.5
98674.6
98633.2
98591.7
98546.3
98501
98136.2
98136.3
98136.1
98135.6
98134.8
98133.9
98132.7
98131.2
98129.6
98127.7
98125.6
98123.4
98121
98118.5
98115.9
98113.2
98110.4
98107.5
98104.7
98101.8
98098.8
98095.9
98092.9
98090
98087
98084
98081
98078
98075
98072
98068.9
98065.9
98062.9
98059.8
98056.8
98053.8
98050.8
98047.7
98044.7
98041.6
98038.6
98035.6
98032.6
98029.7
98026.9
98024.1
98021.5
98018.9
98016.5
98014.2
98012.1
98010.2
98008.5
98007.1
98005.9
98005
98004.4
98004.1
98004.2
98004.6
98005.4
98006.6
98008.2
98010.2
98012.6
98015.4
98018.7
98022.4
98026.5
98031
98035.9
98041.2
98046.8
98052.8
98059
98065.5
98072.1
98079
98086
98093
98100.2
98107.3
98114.5
98121.6
98128.6
98135.5
98142.3
98148.8
98155.2
98161.3
98167.2
98172.8
98178.1
98183.1
98187.7
98192
98195.9
98199.5
98202.7
98205.6
98208.2
98210.5
98212.5
98214.2
98215.7
98216.8
98217.8
98218.5
98218.9
98219.2
98219.3
98219.2
98218.9
98218.3
98217.5
98216.5
98215.1
98213.4
98211.4
98209.1
98206.3
98203.2
98199.5
98195.5
98191
98186.1
98181
98175.7
98170.3
98164.9
98159.6
98154.6
98150.2
98146.5
98143.7
98142
98141.6
98142.7
98145.2
98149.5
98155.5
98163.4
98173.2
98184.9
98198.4
98213.8
98230.9
98250.1
98270.7
98293
98316.5
98341.3
98367.2
98394
98421.5
98449.3
98476.9
98504.2
98530.6
98555.8
98579.4
98601.2
98619.9
98635.7
98648.2
98657.3
98662.5
98664
98660.7
98653.2
98640.6
98624.1
98602.4
98578
98549.3
98518.8
98484.1
98449.8
98411.6
98374.1
98118.4
98118.5
98118.4
98118
98117.4
98116.7
98115.7
98114.5
98113.2
98111.6
98109.9
98108
98106
98103.8
98101.6
98099.2
98096.8
98094.4
98091.9
98089.4
98086.8
98084.3
98081.7
98079.1
98076.5
98073.8
98071.2
98068.5
98065.8
98063.1
98060.4
98057.7
98055
98052.3
98049.5
98046.8
98044
98041.2
98038.4
98035.6
98032.7
98029.9
98027.1
98024.3
98021.6
98019
98016.4
98013.9
98011.5
98009.2
98007.1
98005.1
98003.4
98001.8
98000.5
97999.4
97998.6
97998
97997.8
97997.9
97998.4
97999.2
98000.4
98001.9
98003.8
98006.1
98008.8
98011.8
98015.3
98019.1
98023.3
98027.7
98032.5
98037.6
98043
98048.5
98054.3
98060.1
98066.1
98072.1
98078.2
98084.3
98090.3
98096.3
98102.2
98107.9
98113.5
98118.9
98124
98128.9
98133.6
98138
98142.1
98145.9
98149.3
98152.5
98155.3
98157.7
98159.9
98161.8
98163.4
98164.7
98165.8
98166.6
98167.2
98167.5
98167.7
98167.6
98167.4
98167
98166.4
98165.6
98164.6
98163.4
98162
98160.2
98158.2
98155.8
98153.1
98150
98146.4
98142.5
98138
98133
98127.6
98121.7
98115.6
98109
98102.4
98095.5
98088.7
98082.1
98075.8
98070
98065
98060.9
98057.9
98056.2
98055.8
98057
98059.8
98064.5
98070.8
98079.1
98089.1
98100.9
98114.4
98129.8
98146.8
98165.3
98184.9
98205.9
98227.9
98250.8
98274.5
98298.4
98322.1
98345.6
98368.2
98389.6
98409.8
98428.2
98444.1
98457.3
98467.5
98474.9
98479
98480.2
98477.6
98471.7
98461.6
98448.4
98430.7
98411.2
98388
98363.4
98334.9
98307.5
98276.1
98246.1
98103.7
98103.9
98103.8
98103.6
98103.2
98102.6
98101.9
98100.9
98099.9
98098.6
98097.2
98095.7
98094
98092.2
98090.4
98088.4
98086.4
98084.4
98082.3
98080.1
98077.9
98075.7
98073.5
98071.3
98069
98066.7
98064.3
98061.9
98059.5
98057.1
98054.6
98052.2
98049.6
98047.1
98044.6
98042
98039.4
98036.7
98034.1
98031.3
98028.6
98025.9
98023.2
98020.5
98017.8
98015.2
98012.6
98010.1
98007.7
98005.4
98003.2
98001.1
97999.2
97997.5
97996
97994.8
97993.7
97993
97992.5
97992.4
97992.5
97993
97993.8
97994.9
97996.3
97998.2
98000.3
98002.8
98005.7
98008.8
98012.3
98016.1
98020.2
98024.5
98029
98033.7
98038.6
98043.6
98048.6
98053.7
98058.8
98063.9
98068.9
98073.8
98078.6
98083.2
98087.7
98091.9
98096
98099.7
98103.3
98106.5
98109.4
98112.1
98114.4
98116.4
98118.2
98119.6
98120.7
98121.5
98122.1
98122.5
98122.7
98122.6
98122.3
98121.8
98121.1
98120.2
98119.2
98118
98116.7
98115.1
98113.4
98111.5
98109.4
98106.9
98104.1
98101
98097.5
98093.7
98089.3
98084.5
98079.2
98073.4
98067
98060.2
98053
98045.4
98037.5
98029.4
98021.1
98013
98005
97997.5
97990.5
97984.2
97978.8
97974.6
97971.6
97970.2
97970.2
97971.9
97975.2
97980.4
97987.3
97995.9
98006.2
98018.3
98031.9
98047.1
98063.3
98080.8
98099.2
98118.4
98138.4
98158.5
98178.5
98198.3
98217
98234.7
98251.2
98266.1
98279
98289.2
98296.8
98302.1
98304.4
98304.7
98302.1
98297.1
98288.8
98278.2
98264
98248.7
98230.1
98210.9
98188.2
98167
98142
98119.2
98092.3
98092.5
98092.5
98092.4
98092.1
98091.7
98091.2
98090.5
98089.7
98088.7
98087.6
98086.5
98085.2
98083.8
98082.3
98080.8
98079.2
98077.5
98075.8
98074.1
98072.3
98070.5
98068.6
98066.7
98064.7
98062.6
98060.5
98058.4
98056.2
98054
98051.7
98049.4
98047
98044.6
98042.1
98039.6
98037.1
98034.5
98031.9
98029.2
98026.5
98023.7
98021
98018.3
98015.6
98012.9
98010.3
98007.7
98005.2
98002.8
98000.5
97998.3
97996.3
97994.5
97992.8
97991.4
97990.2
97989.2
97988.5
97988.1
97988
97988.1
97988.6
97989.4
97990.5
97991.9
97993.6
97995.6
97997.9
98000.6
98003.5
98006.7
98010.1
98013.7
98017.5
98021.5
98025.6
98029.7
98033.9
98038.2
98042.4
98046.5
98050.6
98054.5
98058.4
98062
98065.4
98068.6
98071.6
98074.3
98076.7
98078.9
98080.7
98082.3
98083.6
98084.5
98085.2
98085.6
98085.7
98085.5
98085.1
98084.5
98083.7
98082.7
98081.5
98080.2
98078.7
98077
98075.2
98073.2
98071
98068.7
98066.2
98063.5
98060.5
98057.3
98053.7
98049.8
98045.5
98040.9
98035.7
98030.1
98024
98017.3
98010.1
98002.4
97994.2
97985.6
97976.6
97967.4
97957.9
97948.5
97939
97929.9
97921.1
97913
97905.6
97899.2
97894
97890.2
97887.8
97887
97887.8
97890.3
97894.5
97900.3
97907.8
97917
97927.6
97939.7
97952.8
97967.1
97982.1
97998
98014.6
98031.2
98047.6
98063.8
98078.7
98092.5
98105.3
98116.6
98126.1
98133.3
98138
98140.9
98141.1
98139.7
98136.4
98131.7
98124.5
98115.9
98104.5
98092.5
98077.8
98063.4
98045.9
98030.4
98011.2
97995.2
98083.8
98084.1
98084.2
98084.2
98084
98083.8
98083.5
98083.1
98082.6
98081.9
98081.2
98080.4
98079.5
98078.5
98077.4
98076.3
98075.2
98073.9
98072.6
98071.3
98069.9
98068.4
98066.9
98065.2
98063.5
98061.7
98059.8
98057.9
98055.9
98053.8
98051.6
98049.3
98047
98044.7
98042.2
98039.7
98037.2
98034.5
98031.9
98029.1
98026.4
98023.6
98020.7
98017.9
98015.1
98012.3
98009.6
98006.9
98004.2
98001.7
97999.3
97996.9
97994.8
97992.8
97991
97989.4
97988
97986.8
97985.9
97985.3
97984.9
97984.9
97985.1
97985.5
97986.3
97987.4
97988.7
97990.4
97992.3
97994.5
97996.9
97999.5
98002.4
98005.5
98008.7
98012
98015.4
98018.8
98022.3
98025.8
98029.2
98032.6
98035.8
98038.9
98041.8
98044.5
98047
98049.2
98051.2
98052.9
98054.3
98055.5
98056.3
98056.9
98057.2
98057.1
98056.8
98056.2
98055.3
98054.1
98052.8
98051.3
98049.5
98047.6
98045.5
98043.3
98040.9
98038.4
98035.7
98032.8
98029.8
98026.7
98023.3
98019.8
98016
98011.9
98007.5
98002.8
97997.7
97992.2
97986.2
97979.8
97972.8
97965.3
97957.4
97948.9
97939.9
97930.4
97920.5
97910.3
97899.9
97889.2
97878.6
97868.1
97857.8
97848.1
97839
97830.9
97823.9
97818.1
97813.6
97810.6
97809.3
97809.6
97811.4
97814.8
97819.8
97826.4
97834.3
97843.6
97853.9
97865.4
97877.5
97890.4
97903.6
97916.9
97929.9
97942.4
97953.7
97963.8
97972.7
97980.3
97986.3
97990.2
97992
97992.4
97990.2
97986.8
97982.3
97977.1
97970.3
97963.1
97953.8
97944.5
97933
97922.8
97909.6
97899.3
97885.3
97875.5
98077.9
98078.1
98078.3
98078.4
98078.4
98078.4
98078.2
98078.1
98077.9
98077.6
98077.3
98076.9
98076.4
98075.9
98075.4
98074.7
98074
98073.2
98072.4
98071.4
98070.4
98069.3
98068
98066.7
98065.2
98063.6
98061.9
98060.1
98058.2
98056.2
98054.1
98051.8
98049.5
98047.1
98044.6
98042.1
98039.4
98036.7
98033.9
98031
98028.1
98025.2
98022.2
98019.3
98016.3
98013.3
98010.4
98007.5
98004.7
98002
97999.4
97997
97994.7
97992.5
97990.5
97988.8
97987.2
97985.9
97984.9
97984
97983.5
97983.2
97983.2
97983.4
97984
97984.8
97985.8
97987.2
97988.7
97990.5
97992.6
97994.8
97997.2
97999.8
98002.5
98005.3
98008.1
98011
98013.8
98016.6
98019.4
98022
98024.5
98026.8
98028.9
98030.8
98032.4
98033.8
98034.9
98035.7
98036.2
98036.4
98036.3
98036
98035.3
98034.3
98033
98031.5
98029.6
98027.5
98025.2
98022.8
98020.1
98017.3
98014.3
98011.2
98007.9
98004.5
98000.9
97997.2
97993.3
97989.3
97985.1
97980.6
97976
97971
97965.8
97960.2
97954.3
97948
97941.2
97934
97926.2
97918
97909.4
97900.2
97890.4
97880.2
97869.6
97858.6
97847.3
97835.8
97824.2
97812.6
97801.1
97790.1
97779.7
97770.2
97761.6
97754.1
97748
97743.3
97740.1
97738.4
97738.3
97739.6
97742.4
97746.7
97752.3
97759.1
97767
97776
97785.5
97795.4
97805.6
97815.6
97825.3
97834.4
97842
97848.6
97853.7
97857.6
97859.9
97860.4
97859.1
97856.8
97852.2
97846.7
97840.5
97834.3
97827.5
97820.9
97812.9
97805.7
97797
97790.1
97780.7
97775
97765.6
97761.3
98073.5
98073.8
98074
98074.2
98074.3
98074.5
98074.7
98074.9
98075.1
98075.3
98075.5
98075.7
98075.8
98075.8
98075.8
98075.7
98075.4
98075.1
98074.7
98074.1
98073.4
98072.6
98071.6
98070.5
98069.3
98067.9
98066.3
98064.6
98062.7
98060.7
98058.6
98056.4
98054
98051.5
98049
98046.3
98043.5
98040.6
98037.6
98034.6
98031.5
98028.4
98025.3
98022.1
98018.9
98015.8
98012.7
98009.6
98006.7
98003.8
98001
97998.4
97995.9
97993.6
97991.5
97989.6
97987.9
97986.5
97985.3
97984.3
97983.6
97983.2
97983
97983.1
97983.4
97984
97984.9
97985.9
97987.3
97988.8
97990.5
97992.4
97994.5
97996.7
97998.9
98001.3
98003.6
98006
98008.3
98010.6
98012.7
98014.7
98016.5
98018.1
98019.5
98020.7
98021.6
98022.2
98022.5
98022.5
98022.1
98021.5
98020.6
98019.3
98017.8
98015.9
98013.8
98011.3
98008.6
98005.6
98002.4
97999
97995.5
97991.8
97987.9
97983.9
97979.8
97975.5
97971
97966.4
97961.7
97956.7
97951.6
97946.2
97940.7
97934.9
97928.8
97922.4
97915.7
97908.5
97901
97893
97884.6
97875.7
97866.4
97856.6
97846.3
97835.5
97824.3
97812.7
97800.7
97788.5
97776.1
97763.6
97751.2
97739.3
97727.9
97717.3
97707.4
97698.7
97691.2
97685
97680.2
97676.9
97675
97674.6
97675.6
97678
97681.5
97686.1
97691.9
97698.6
97705.7
97712.9
97720
97726.9
97733.5
97739.2
97743.5
97746.6
97748
97748.1
97746.7
97743.7
97739.3
97734.1
97727.1
97719.4
97711.4
97703.9
97696.5
97690.1
97682.9
97677.2
97670.5
97666.3
97660
97658.3
97653
97653.7
98069.7
98069.9
98070.1
98070.3
98070.6
98071.1
98071.7
98072.5
98073.3
98074.2
98075.1
98076
98076.8
98077.5
98078
98078.5
98078.7
98078.9
98078.8
98078.6
98078.3
98077.7
98077
98076.1
98075
98073.8
98072.3
98070.6
98068.8
98066.8
98064.6
98062.3
98059.9
98057.3
98054.6
98051.8
98048.8
98045.8
98042.7
98039.5
98036.2
98032.9
98029.5
98026.1
98022.8
98019.4
98016.1
98012.9
98009.8
98006.7
98003.8
98001
97998.4
97996
97993.8
97991.8
97990
97988.4
97987.1
97986.1
97985.2
97984.7
97984.4
97984.3
97984.5
97985
97985.7
97986.6
97987.7
97989
97990.6
97992.2
97994
97995.8
97997.8
97999.7
98001.7
98003.6
98005.5
98007.2
98008.8
98010.3
98011.5
98012.5
98013.3
98013.8
98014
98013.9
98013.5
98012.8
98011.7
98010.3
98008.6
98006.5
98004.2
98001.5
97998.5
97995.3
97991.7
97987.9
97983.9
97979.6
97975.2
97970.7
97966
97961.1
97956.1
97951
97945.6
97940.2
97934.6
97928.7
97922.7
97916.5
97910
97903.4
97896.5
97889.3
97881.8
97874
97865.7
97857
97848
97838.6
97828.7
97818.4
97807.5
97796.3
97784.6
97772.6
97760.1
97747.2
97734.2
97721.2
97708.2
97695.6
97683.5
97671.9
97661.1
97651.3
97642.6
97635.2
97629.1
97624.4
97621.1
97619.2
97618.7
97619.4
97621
97623.8
97627.6
97632.2
97637.1
97641.7
97646
97649.9
97653.4
97656
97657.2
97656.9
97654.6
97651
97646
97639.6
97631.9
97623.7
97614.3
97604.4
97594.6
97585.8
97577.5
97570.8
97563.9
97559.4
97554.1
97552.1
97548.3
97550.1
97548.3
97553.3
98064.8
98064.9
98064.9
98065.2
98065.9
98067.3
98068.6
98070.4
98072.2
98074
98075.8
98077.5
98079
98080.4
98081.6
98082.6
98083.3
98083.9
98084.2
98084.4
98084.3
98084
98083.4
98082.7
98081.7
98080.5
98079.1
98077.5
98075.7
98073.7
98071.5
98069.1
98066.6
98063.9
98061.1
98058.1
98055
98051.8
98048.5
98045.1
98041.6
98038.1
98034.6
98031
98027.5
98024
98020.5
98017.1
98013.8
98010.6
98007.6
98004.7
98002
97999.5
97997.1
97995
97993.2
97991.5
97990.2
97989
97988.1
97987.5
97987.1
97987
97987.1
97987.4
97988
97988.8
97989.8
97991
97992.3
97993.8
97995.3
97996.9
97998.5
98000.2
98001.8
98003.3
98004.7
98006.1
98007.2
98008.2
98008.9
98009.4
98009.6
98009.5
98009.1
98008.4
98007.4
98005.9
98004.2
98002.1
97999.6
97996.9
97993.7
97990.3
97986.6
97982.6
97978.3
97973.7
97968.9
97963.9
97958.6
97953.3
97947.8
97942.1
97936.3
97930.3
97924.2
97917.9
97911.4
97904.8
97897.9
97890.9
97883.7
97876.2
97868.5
97860.6
97852.4
97843.9
97835
97825.8
97816.2
97806.3
97796
97785.2
97774
97762.4
97750.4
97738
97725.1
97711.8
97698.4
97685
97671.6
97658.6
97645.9