/*--------------------------------*- C++ -*----------------------------------*\
| =========                 |                                                 |
| \\      /  F ield         | OpenFOAM: The Open Source CFD Toolbox           |
|  \\    /   O peration     | Version:  dev                                   |
|   \\  /    A nd           | Web:      http://www.openfoam.org               |
|    \\/     M anipulation  |                                                 |
\*---------------------------------------------------------------------------*/
FoamFile
{
    version     2.0;
    format      ascii;
    class       volScalarField;
    object      pPrime2Mean;
    location    "9.159";
}
// * * * * * * * * * * * * * * * * * * * * * * * * * * * * * * * * * * * * * //

dimensions      [2 -2 -4 0 0 0 0];

internalField   nonuniform List<scalar> 
12225
(
5.03368e+07
4.98717e+07
4.89109e+07
4.75598e+07
4.59061e+07
4.40394e+07
4.20186e+07
3.9916e+07
3.77723e+07
3.56355e+07
3.35435e+07
3.14991e+07
2.95763e+07
2.77059e+07
2.59593e+07
2.43995e+07
2.28386e+07
2.12597e+07
5.02291e+07
4.9764e+07
4.8804e+07
4.74546e+07
4.58023e+07
4.39379e+07
4.19201e+07
3.982e+07
3.76802e+07
3.55461e+07
3.34588e+07
3.14181e+07
2.94999e+07
2.76364e+07
2.59072e+07
2.43475e+07
2.28395e+07
2.15063e+07
4.99792e+07
4.95147e+07
4.85553e+07
4.72088e+07
4.55611e+07
4.37015e+07
4.16903e+07
3.95965e+07
3.74649e+07
3.53389e+07
3.326e+07
3.1231e+07
2.93188e+07
2.74725e+07
2.57631e+07
2.42083e+07
2.27741e+07
2.15621e+07
4.9544e+07
4.90824e+07
4.81253e+07
4.67841e+07
4.51444e+07
4.32932e+07
4.12937e+07
3.92104e+07
3.70935e+07
3.4981e+07
3.29179e+07
3.09067e+07
2.90117e+07
2.71848e+07
2.5505e+07
2.39748e+07
2.25892e+07
2.14894e+07
4.88797e+07
4.84183e+07
4.74659e+07
4.61341e+07
4.45062e+07
4.26696e+07
4.06858e+07
3.86219e+07
3.6524e+07
3.44356e+07
3.23928e+07
3.04123e+07
2.85399e+07
2.6749e+07
2.51214e+07
2.36135e+07
2.23332e+07
2.12697e+07
4.79315e+07
4.74675e+07
4.65247e+07
4.52063e+07
4.35963e+07
4.17794e+07
3.98204e+07
3.7782e+07
3.57143e+07
3.36555e+07
3.16469e+07
2.97005e+07
2.78664e+07
2.6122e+07
2.45438e+07
2.31054e+07
2.18793e+07
2.08237e+07
4.66379e+07
4.61727e+07
4.52453e+07
4.39433e+07
4.23593e+07
4.05681e+07
3.86447e+07
3.66397e+07
3.46148e+07
3.25949e+07
3.06347e+07
2.87339e+07
2.69511e+07
2.52644e+07
2.37432e+07
2.23648e+07
2.1197e+07
2.01699e+07
4.51974e+07
4.47338e+07
4.38227e+07
4.25385e+07
4.09833e+07
3.92217e+07
3.73367e+07
3.53707e+07
3.33911e+07
3.14174e+07
2.95069e+07
2.76598e+07
2.59284e+07
2.43048e+07
2.28321e+07
2.15168e+07
2.03816e+07
1.94225e+07
4.36842e+07
4.32241e+07
4.23292e+07
4.10648e+07
3.95391e+07
3.781e+07
3.59644e+07
3.40407e+07
3.21072e+07
3.01831e+07
2.83235e+07
2.6532e+07
2.48544e+07
2.32915e+07
2.18707e+07
2.06115e+07
1.95182e+07
1.86202e+07
4.17461e+07
4.12927e+07
4.04173e+07
3.91804e+07
3.76912e+07
3.6006e+07
3.42092e+07
3.23416e+07
3.04654e+07
2.86061e+07
2.68093e+07
2.50893e+07
2.34777e+07
2.19894e+07
2.06349e+07
1.94432e+07
1.84067e+07
1.75546e+07
3.93e+07
3.88566e+07
3.80048e+07
3.68047e+07
3.53612e+07
3.37331e+07
3.19984e+07
3.02017e+07
2.83986e+07
2.66195e+07
2.4903e+07
2.32689e+07
2.1741e+07
2.03388e+07
1.90673e+07
1.79523e+07
1.69827e+07
1.61766e+07
3.62798e+07
3.58513e+07
3.50276e+07
3.38765e+07
3.24902e+07
3.09353e+07
2.92779e+07
2.75703e+07
2.58576e+07
2.41774e+07
2.2559e+07
2.10279e+07
1.96007e+07
1.82978e+07
1.71227e+07
1.6092e+07
1.51979e+07
1.4445e+07
3.26706e+07
3.22607e+07
3.14734e+07
3.03833e+07
2.90694e+07
2.76034e+07
2.60417e+07
2.44406e+07
2.2838e+07
2.12742e+07
1.97725e+07
1.83604e+07
1.70496e+07
1.58587e+07
1.47901e+07
1.38529e+07
1.3042e+07
1.23541e+07
2.85633e+07
2.81762e+07
2.74357e+07
2.64179e+07
2.51922e+07
2.38297e+07
2.23819e+07
2.09028e+07
1.94283e+07
1.79953e+07
1.66264e+07
1.53448e+07
1.41624e+07
1.30921e+07
1.2137e+07
1.13001e+07
1.05777e+07
9.96386e+06
2.42432e+07
2.38825e+07
2.3198e+07
2.2261e+07
2.11354e+07
1.9887e+07
1.85648e+07
1.7218e+07
1.58811e+07
1.45868e+07
1.33567e+07
1.22101e+07
1.11581e+07
1.02094e+07
9.36665e+06
8.62973e+06
7.99549e+06
7.45724e+06
2.03001e+07
1.99681e+07
1.93432e+07
1.84878e+07
1.74637e+07
1.63284e+07
1.51298e+07
1.39111e+07
1.27059e+07
1.15424e+07
1.0441e+07
9.41768e+06
8.48225e+06
7.6408e+06
6.89524e+06
6.24427e+06
5.68473e+06
5.21039e+06
1.7737e+07
1.74305e+07
1.68557e+07
1.60683e+07
1.51265e+07
1.40822e+07
1.29809e+07
1.18617e+07
1.07561e+07
9.68943e+06
8.6805e+06
7.74293e+06
6.88545e+06
6.11283e+06
5.42643e+06
4.82489e+06
4.3052e+06
3.86201e+06
1.78449e+07
1.75503e+07
1.69978e+07
1.624e+07
1.53329e+07
1.43257e+07
1.3262e+07
1.21788e+07
1.11061e+07
1.00677e+07
9.08127e+06
8.15956e+06
7.31065e+06
6.53903e+06
5.84612e+06
5.23107e+06
4.69136e+06
4.22268e+06
2.07191e+07
2.04201e+07
1.98578e+07
1.90851e+07
1.81586e+07
1.71276e+07
1.60355e+07
1.49189e+07
1.38078e+07
1.27256e+07
1.16899e+07
1.07133e+07
9.8041e+06
8.96713e+06
8.20427e+06
7.51545e+06
6.89881e+06
6.351e+06
2.5202e+07
2.48901e+07
2.43e+07
2.34863e+07
2.25084e+07
2.14173e+07
2.02575e+07
1.90666e+07
1.78752e+07
1.67073e+07
1.5581e+07
1.45096e+07
1.35017e+07
1.25629e+07
1.16956e+07
1.09007e+07
1.01771e+07
9.52209e+06
3.02568e+07
2.99309e+07
2.93075e+07
2.84445e+07
2.74043e+07
2.62401e+07
2.49984e+07
2.37182e+07
2.24314e+07
2.11628e+07
1.99315e+07
1.87514e+07
1.7632e+07
1.65794e+07
1.55972e+07
1.46866e+07
1.38473e+07
1.30775e+07
3.51662e+07
3.48286e+07
3.41743e+07
3.32642e+07
3.21639e+07
3.09287e+07
2.96069e+07
2.82392e+07
2.68589e+07
2.54919e+07
2.41583e+07
2.28727e+07
2.16455e+07
2.04836e+07
1.93911e+07
1.837e+07
1.74208e+07
1.65422e+07
3.95114e+07
3.91655e+07
3.84858e+07
3.7536e+07
3.63843e+07
3.50874e+07
3.36956e+07
3.22511e+07
3.07884e+07
2.93347e+07
2.79108e+07
2.65321e+07
2.521e+07
2.39519e+07
2.27627e+07
2.16449e+07
2.05995e+07
1.96258e+07
4.31038e+07
4.27527e+07
4.20538e+07
4.10731e+07
3.98803e+07
3.85336e+07
3.70849e+07
3.55776e+07
3.40474e+07
3.25223e+07
3.1024e+07
2.95688e+07
2.81685e+07
2.68313e+07
2.55625e+07
2.43652e+07
2.32407e+07
2.21888e+07
4.59095e+07
4.55555e+07
4.48427e+07
4.38392e+07
4.26154e+07
4.12307e+07
3.97381e+07
3.81823e+07
3.65996e+07
3.50191e+07
3.3463e+07
3.19482e+07
3.04872e+07
2.90884e+07
2.77577e+07
2.64985e+07
2.53124e+07
2.41998e+07
4.79857e+07
4.76301e+07
4.69077e+07
4.5888e+07
4.46419e+07
4.32295e+07
4.17049e+07
4.01134e+07
3.84922e+07
3.68708e+07
3.52722e+07
3.37136e+07
3.22077e+07
3.07636e+07
2.93873e+07
2.80826e+07
2.68512e+07
2.56937e+07
4.94332e+07
4.90767e+07
4.83477e+07
4.73171e+07
4.60557e+07
4.46245e+07
4.30779e+07
4.14619e+07
3.98141e+07
3.81645e+07
3.65364e+07
3.49474e+07
3.34105e+07
3.1935e+07
3.0527e+07
2.91907e+07
2.7928e+07
2.67394e+07
5.03672e+07
5.00097e+07
4.92765e+07
4.82393e+07
4.69681e+07
4.55249e+07
4.39643e+07
4.23328e+07
4.0668e+07
3.90004e+07
3.73534e+07
3.57449e+07
3.41881e+07
3.26923e+07
3.12641e+07
2.99075e+07
2.86246e+07
2.74161e+07
5.08958e+07
5.05379e+07
4.98032e+07
4.87629e+07
4.74863e+07
4.60365e+07
4.44682e+07
4.28276e+07
4.11531e+07
3.9475e+07
3.78172e+07
3.61974e+07
3.46291e+07
3.31218e+07
3.16818e+07
3.03136e+07
2.90193e+07
2.77998e+07
5.11177e+07
5.07614e+07
5.00247e+07
4.89826e+07
4.77035e+07
4.62509e+07
4.46791e+07
4.30348e+07
4.1356e+07
3.96735e+07
3.80109e+07
3.63864e+07
3.48132e+07
3.33008e+07
3.18559e+07
3.04827e+07
2.91838e+07
2.79598e+07
6.04567e+07
6.03976e+07
6.0267e+07
6.00613e+07
5.97788e+07
5.94186e+07
5.89809e+07
5.84664e+07
5.78762e+07
5.72118e+07
5.6475e+07
5.5668e+07
5.4793e+07
5.38526e+07
5.28496e+07
5.1787e+07
5.06679e+07
4.94959e+07
4.82746e+07
4.70079e+07
4.56998e+07
4.43543e+07
4.29757e+07
4.15683e+07
4.01366e+07
3.86851e+07
3.72184e+07
3.57408e+07
3.42569e+07
3.27711e+07
3.12882e+07
2.98126e+07
2.83489e+07
2.69018e+07
2.54759e+07
2.40757e+07
2.27057e+07
2.13709e+07
2.00758e+07
1.88253e+07
1.76241e+07
1.64773e+07
1.53896e+07
1.43664e+07
1.34127e+07
1.25337e+07
1.17347e+07
1.10211e+07
1.03985e+07
9.87207e+06
9.44743e+06
9.13001e+06
8.92519e+06
8.83824e+06
8.87427e+06
9.03809e+06
9.33427e+06
9.76707e+06
1.03403e+07
1.10573e+07
1.19208e+07
1.29329e+07
1.4095e+07
1.5408e+07
1.68717e+07
1.84853e+07
2.02472e+07
2.21549e+07
2.42053e+07
2.63946e+07
2.87181e+07
3.11706e+07
3.37461e+07
3.64383e+07
3.92402e+07
4.21447e+07
4.51443e+07
4.8231e+07
5.13972e+07
5.46348e+07
5.79358e+07
6.12919e+07
6.46948e+07
6.8136e+07
7.16067e+07
7.50982e+07
7.86013e+07
8.21065e+07
8.56037e+07
8.90827e+07
9.25324e+07
9.59414e+07
9.92977e+07
1.02589e+08
1.05802e+08
1.08925e+08
1.11945e+08
1.14849e+08
1.17627e+08
1.20268e+08
1.22763e+08
1.25103e+08
1.27281e+08
1.29292e+08
1.31132e+08
1.32799e+08
1.34292e+08
1.35616e+08
1.36774e+08
1.37775e+08
1.38628e+08
1.39345e+08
1.39939e+08
1.40425e+08
1.40819e+08
1.41139e+08
1.41404e+08
1.41635e+08
1.41858e+08
1.42097e+08
1.42383e+08
1.42749e+08
1.43231e+08
1.4387e+08
1.44708e+08
1.45794e+08
1.4718e+08
1.48924e+08
1.51085e+08
1.53726e+08
1.56911e+08
1.60701e+08
1.65158e+08
1.7034e+08
1.76299e+08
1.8308e+08
1.90721e+08
1.99247e+08
2.08674e+08
2.19004e+08
2.30231e+08
2.42333e+08
2.55282e+08
2.69036e+08
2.83553e+08
2.9877e+08
3.14638e+08
3.31085e+08
3.48049e+08
3.65454e+08
3.83227e+08
4.01283e+08
4.19533e+08
4.37882e+08
4.5621e+08
4.74375e+08
4.92215e+08
5.09559e+08
5.26177e+08
5.41833e+08
5.56227e+08
5.6906e+08
5.79992e+08
5.88701e+08
5.94851e+08
5.98146e+08
5.98326e+08
5.95208e+08
5.88668e+08
5.78731e+08
5.65478e+08
5.49173e+08
5.30135e+08
5.08859e+08
4.85817e+08
4.61536e+08
4.36381e+08
4.10789e+08
3.84968e+08
3.59246e+08
5.93826e+07
5.9327e+07
5.92019e+07
5.90022e+07
5.87261e+07
5.83735e+07
5.79451e+07
5.7442e+07
5.68653e+07
5.62165e+07
5.54973e+07
5.47097e+07
5.38558e+07
5.29381e+07
5.19591e+07
5.09216e+07
4.98287e+07
4.86836e+07
4.74899e+07
4.62513e+07
4.49717e+07
4.3655e+07
4.23054e+07
4.09272e+07
3.95247e+07
3.81024e+07
3.66645e+07
3.52153e+07
3.37593e+07
3.23008e+07
3.08444e+07
2.93946e+07
2.79559e+07
2.65329e+07
2.513e+07
2.37518e+07
2.24027e+07
2.10875e+07
1.98107e+07
1.85773e+07
1.73919e+07
1.62595e+07
1.51849e+07
1.41733e+07
1.32297e+07
1.23595e+07
1.15679e+07
1.08602e+07
1.02419e+07
9.71848e+06
9.29539e+06
8.97805e+06
8.77184e+06
8.68201e+06
8.71367e+06
8.87171e+06
9.16069e+06
9.58485e+06
1.0148e+07
1.08534e+07
1.17038e+07
1.27013e+07
1.38473e+07
1.51426e+07
1.65871e+07
1.818e+07
1.99197e+07
2.18036e+07
2.38286e+07
2.5991e+07
2.8286e+07
3.07085e+07
3.32526e+07
3.59118e+07
3.86794e+07
4.15482e+07
4.45106e+07
4.75592e+07
5.06859e+07
5.38827e+07
5.71418e+07
6.04548e+07
6.38136e+07
6.72097e+07
7.06345e+07
7.40792e+07
7.75347e+07
8.09915e+07
8.44398e+07
8.78693e+07
9.12691e+07
9.4628e+07
9.7934e+07
1.01175e+08
1.04338e+08
1.07412e+08
1.10383e+08
1.1324e+08
1.15972e+08
1.18569e+08
1.21021e+08
1.2332e+08
1.2546e+08
1.27435e+08
1.29242e+08
1.30879e+08
1.32345e+08
1.33644e+08
1.34781e+08
1.35763e+08
1.366e+08
1.37303e+08
1.37886e+08
1.38362e+08
1.38748e+08
1.3906e+08
1.39318e+08
1.39542e+08
1.39757e+08
1.39987e+08
1.40261e+08
1.40613e+08
1.41078e+08
1.41695e+08
1.42507e+08
1.43561e+08
1.44908e+08
1.46605e+08
1.48711e+08
1.51287e+08
1.54398e+08
1.58103e+08
1.62464e+08
1.67537e+08
1.73373e+08
1.80018e+08
1.87509e+08
1.95871e+08
2.0512e+08
2.15258e+08
2.2628e+08
2.38164e+08
2.50884e+08
2.64399e+08
2.78666e+08
2.93624e+08
3.09222e+08
3.25399e+08
3.42086e+08
3.59211e+08
3.76703e+08
3.94478e+08
4.12451e+08
4.30529e+08
4.4859e+08
4.66499e+08
4.84095e+08
5.01212e+08
5.17626e+08
5.33099e+08
5.47349e+08
5.60077e+08
5.70946e+08
5.79639e+08
5.85828e+08
5.89225e+08
5.89572e+08
5.86691e+08
5.80452e+08
5.70866e+08
5.58008e+08
5.4213e+08
5.2354e+08
5.02718e+08
4.80126e+08
4.56275e+08
4.31531e+08
4.06321e+08
3.80853e+08
3.55369e+08
5.73192e+07
5.72662e+07
5.71467e+07
5.69553e+07
5.66908e+07
5.63536e+07
5.59448e+07
5.54654e+07
5.49165e+07
5.42991e+07
5.36147e+07
5.28651e+07
5.20522e+07
5.1178e+07
5.02447e+07
4.92551e+07
4.82117e+07
4.71178e+07
4.59766e+07
4.47916e+07
4.35664e+07
4.23049e+07
4.1011e+07
3.96889e+07
3.83424e+07
3.69757e+07
3.55927e+07
3.41976e+07
3.27948e+07
3.13885e+07
2.9983e+07
2.85829e+07
2.71923e+07
2.58156e+07
2.44573e+07
2.31216e+07
2.18129e+07
2.05357e+07
1.92947e+07
1.80944e+07
1.69397e+07
1.58353e+07
1.47861e+07
1.3797e+07
1.28733e+07
1.20202e+07
1.12429e+07
1.05468e+07
9.93723e+06
9.4197e+06
8.99964e+06
8.68247e+06
8.4736e+06
8.37828e+06
8.40159e+06
8.54842e+06
8.82334e+06
9.23058e+06
9.77392e+06
1.04566e+07
1.12814e+07
1.22504e+07
1.3365e+07
1.46257e+07
1.60326e+07
1.75847e+07
1.92805e+07
2.11176e+07
2.30927e+07
2.52021e+07
2.74412e+07
2.98048e+07
3.22871e+07
3.48817e+07
3.7582e+07
4.03808e+07
4.32707e+07
4.62444e+07
4.9294e+07
5.24116e+07
5.55892e+07
5.88187e+07
6.2092e+07
6.54008e+07
6.87366e+07
7.20906e+07
7.54539e+07
7.88172e+07
8.21708e+07
8.55046e+07
8.88078e+07
9.20694e+07
9.52779e+07
9.84215e+07
1.01488e+08
1.04465e+08
1.07341e+08
1.10105e+08
1.12747e+08
1.15256e+08
1.17623e+08
1.19843e+08
1.21907e+08
1.23812e+08
1.25555e+08
1.27132e+08
1.28545e+08
1.29796e+08
1.30891e+08
1.31837e+08
1.32643e+08
1.3332e+08
1.33881e+08
1.34339e+08
1.34708e+08
1.35005e+08
1.35249e+08
1.35458e+08
1.35657e+08
1.35868e+08
1.36121e+08
1.36444e+08
1.36874e+08
1.37446e+08
1.38204e+08
1.39192e+08
1.40461e+08
1.42064e+08
1.4406e+08
1.46507e+08
1.49469e+08
1.53005e+08
1.57174e+08
1.6203e+08
1.67623e+08
1.73998e+08
1.81191e+08
1.89228e+08
1.98125e+08
2.07883e+08
2.18498e+08
2.29951e+08
2.42216e+08
2.55258e+08
2.6903e+08
2.83476e+08
2.98542e+08
3.14178e+08
3.30316e+08
3.46884e+08
3.63812e+08
3.81027e+08
3.98443e+08
4.1597e+08
4.3349e+08
4.50877e+08
4.67971e+08
4.84612e+08
5.00587e+08
5.15665e+08
5.29582e+08
5.42043e+08
5.5273e+08
5.61339e+08
5.67551e+08
5.71094e+08
5.71719e+08
5.69252e+08
5.63559e+08
5.54628e+08
5.42531e+08
5.27491e+08
5.09793e+08
4.89893e+08
4.68218e+08
4.45249e+08
4.21355e+08
3.96939e+08
3.72225e+08
3.47383e+08
5.4428e+07
5.43787e+07
5.42667e+07
5.40876e+07
5.38408e+07
5.35274e+07
5.31482e+07
5.27036e+07
5.21943e+07
5.16214e+07
5.0986e+07
5.02893e+07
4.95328e+07
4.87182e+07
4.78477e+07
4.69235e+07
4.59482e+07
4.49247e+07
4.38558e+07
4.27448e+07
4.15953e+07
4.04105e+07
3.91943e+07
3.795e+07
3.66812e+07
3.53917e+07
3.40851e+07
3.27655e+07
3.1437e+07
3.01036e+07
2.87695e+07
2.74388e+07
2.61156e+07
2.48038e+07
2.35077e+07
2.22313e+07
2.09789e+07
1.9755e+07
1.85639e+07
1.74102e+07
1.62985e+07
1.52334e+07
1.42198e+07
1.32626e+07
1.2367e+07
1.15381e+07
1.0781e+07
1.01012e+07
9.50392e+06
8.99474e+06
8.57902e+06
8.26218e+06
8.04961e+06
7.94651e+06
7.95797e+06
8.08887e+06
8.3438e+06
8.72695e+06
9.24208e+06
9.89241e+06
1.06806e+07
1.16088e+07
1.26783e+07
1.38898e+07
1.5243e+07
1.67372e+07
1.83706e+07
2.0141e+07
2.20453e+07
2.40797e+07
2.62395e+07
2.85198e+07
3.09149e+07
3.34184e+07
3.60238e+07
3.87242e+07
4.15125e+07
4.43812e+07
4.73229e+07
5.03295e+07
5.33934e+07
5.65067e+07
5.96611e+07
6.28485e+07
6.60606e+07
6.92886e+07
7.25241e+07
7.57577e+07
7.898e+07
8.21809e+07
8.53501e+07
8.84767e+07
9.15496e+07
9.45573e+07
9.74884e+07
1.00331e+08
1.03074e+08
1.05708e+08
1.08222e+08
1.10608e+08
1.12857e+08
1.14963e+08
1.16921e+08
1.18726e+08
1.20376e+08
1.21868e+08
1.23205e+08
1.24388e+08
1.25423e+08
1.26317e+08
1.27078e+08
1.27716e+08
1.28245e+08
1.28674e+08
1.29019e+08
1.29294e+08
1.29516e+08
1.29703e+08
1.29877e+08
1.30061e+08
1.3028e+08
1.30562e+08
1.30939e+08
1.31448e+08
1.32128e+08
1.33023e+08
1.3418e+08
1.35651e+08
1.3749e+08
1.39757e+08
1.42508e+08
1.45805e+08
1.49702e+08
1.54253e+08
1.59506e+08
1.65502e+08
1.72277e+08
1.79859e+08
1.88262e+08
1.97491e+08
2.07538e+08
2.18389e+08
2.30022e+08
2.42405e+08
2.55488e+08
2.69224e+08
2.83556e+08
2.98443e+08
3.13821e+08
3.29622e+08
3.45775e+08
3.62217e+08
3.78866e+08
3.95631e+08
4.12402e+08
4.29061e+08
4.45455e+08
4.61429e+08
4.76784e+08
4.91298e+08
5.04724e+08
5.16784e+08
5.27181e+08
5.35631e+08
5.41829e+08
5.45521e+08
5.46466e+08
5.44498e+08
5.39484e+08
5.31396e+08
5.20295e+08
5.06368e+08
4.89878e+08
4.71236e+08
4.50828e+08
4.29096e+08
4.064e+08
3.83116e+08
3.59481e+08
3.35647e+08
5.09093e+07
5.08653e+07
5.07634e+07
5.06006e+07
5.0377e+07
5.00933e+07
4.97498e+07
4.93467e+07
4.88848e+07
4.83646e+07
4.77869e+07
4.71525e+07
4.64628e+07
4.57192e+07
4.49236e+07
4.40779e+07
4.31844e+07
4.22455e+07
4.12639e+07
4.02424e+07
3.91842e+07
3.80921e+07
3.69693e+07
3.58188e+07
3.46437e+07
3.34475e+07
3.22337e+07
3.1006e+07
2.97682e+07
2.8524e+07
2.72772e+07
2.60314e+07
2.47903e+07
2.35578e+07
2.23376e+07
2.11338e+07
1.99505e+07
1.87917e+07
1.76617e+07
1.6565e+07
1.55059e+07
1.4489e+07
1.35191e+07
1.26011e+07
1.17399e+07
1.09405e+07
1.02082e+07
9.54834e+06
8.96618e+06
8.46716e+06
8.05669e+06
7.74014e+06
7.52289e+06
7.41013e+06
7.40693e+06
7.5181e+06
7.74821e+06
8.10138e+06
8.58134e+06
9.19131e+06
9.93397e+06
1.08113e+07
1.18247e+07
1.29747e+07
1.42612e+07
1.56832e+07
1.72391e+07
1.89267e+07
2.07429e+07
2.2684e+07
2.47455e+07
2.69225e+07
2.92094e+07
3.16e+07
3.40881e+07
3.66669e+07
3.93294e+07
4.20684e+07
4.48767e+07
4.77464e+07
5.06701e+07
5.36399e+07
5.66479e+07
5.96862e+07
6.27463e+07
6.58199e+07
6.88986e+07
7.19733e+07
7.50347e+07
7.80731e+07
8.10785e+07
8.40405e+07
8.69482e+07
8.97906e+07
9.25568e+07
9.52359e+07
9.78179e+07
1.00293e+08
1.02652e+08
1.04887e+08
1.0699e+08
1.08958e+08
1.10785e+08
1.12467e+08
1.14001e+08
1.15389e+08
1.1663e+08
1.17729e+08
1.18689e+08
1.19517e+08
1.2022e+08
1.2081e+08
1.21296e+08
1.21688e+08
1.22e+08
1.22245e+08
1.22438e+08
1.22596e+08
1.22737e+08
1.22885e+08
1.2306e+08
1.2329e+08
1.23603e+08
1.24034e+08
1.24619e+08
1.25399e+08
1.26419e+08
1.27729e+08
1.2938e+08
1.31426e+08
1.33921e+08
1.36926e+08
1.40492e+08
1.44671e+08
1.49509e+08
1.55047e+08
1.61316e+08
1.68347e+08
1.76154e+08
1.84742e+08
1.94107e+08
2.04234e+08
2.15104e+08
2.26691e+08
2.38949e+08
2.51833e+08
2.65289e+08
2.79281e+08
2.9375e+08
3.08636e+08
3.23868e+08
3.39386e+08
3.55116e+08
3.70969e+08
3.8684e+08
4.0262e+08
4.18167e+08
4.33332e+08
4.4793e+08
4.61754e+08
4.74566e+08
4.86116e+08
4.96134e+08
5.0435e+08
5.10484e+08
5.14296e+08
5.1556e+08
5.14121e+08
5.09853e+08
5.02714e+08
4.92746e+08
4.80102e+08
4.65021e+08
4.47862e+08
4.28965e+08
4.08735e+08
3.87498e+08
3.65606e+08
3.43309e+08
3.20766e+08
4.69855e+07
4.69485e+07
4.68592e+07
4.67155e+07
4.6518e+07
4.62669e+07
4.59624e+07
4.56048e+07
4.51944e+07
4.47312e+07
4.4216e+07
4.36494e+07
4.30326e+07
4.23667e+07
4.16531e+07
4.08936e+07
4.009e+07
3.92444e+07
3.8359e+07
3.74363e+07
3.64788e+07
3.5489e+07
3.44694e+07
3.34227e+07
3.23515e+07
3.12591e+07
3.01487e+07
2.90236e+07
2.7887e+07
2.67423e+07
2.55927e+07
2.44417e+07
2.32925e+07
2.21486e+07
2.10137e+07
1.98914e+07
1.87855e+07
1.77e+07
1.66389e+07
1.56063e+07
1.46066e+07
1.36441e+07
1.27235e+07
1.18495e+07
1.1027e+07
1.0261e+07
9.55658e+06
8.91908e+06
8.35381e+06
7.86612e+06
7.46138e+06
7.14497e+06
6.92223e+06
6.79833e+06
6.77827e+06
6.86682e+06
7.06848e+06
7.38737e+06
7.82712e+06
8.39092e+06
9.08137e+06
9.90046e+06
1.08495e+07
1.19291e+07
1.31391e+07
1.44785e+07
1.59458e+07
1.75386e+07
1.9254e+07
2.10883e+07
2.30374e+07
2.50963e+07
2.72595e+07
2.95212e+07
3.18752e+07
3.43151e+07
3.68341e+07
3.94251e+07
4.20811e+07
4.47946e+07
4.75583e+07
5.03646e+07
5.32057e+07
5.60738e+07
5.8961e+07
6.18589e+07
6.47593e+07
6.76534e+07
7.05321e+07
7.33861e+07
7.62057e+07
7.89811e+07
8.17022e+07
8.43581e+07
8.69385e+07
8.94339e+07
9.18346e+07
9.41317e+07
9.63169e+07
9.83829e+07
1.00323e+08
1.02135e+08
1.03813e+08
1.05356e+08
1.06762e+08
1.0803e+08
1.09164e+08
1.10166e+08
1.11039e+08
1.1179e+08
1.12427e+08
1.12957e+08
1.13391e+08
1.13738e+08
1.14009e+08
1.14216e+08
1.14373e+08
1.14495e+08
1.14597e+08
1.14699e+08
1.14823e+08
1.14992e+08
1.15232e+08
1.15575e+08
1.16054e+08
1.16706e+08
1.17573e+08
1.18702e+08
1.20139e+08
1.21938e+08
1.24148e+08
1.26827e+08
1.30023e+08
1.33787e+08
1.38163e+08
1.43187e+08
1.48896e+08
1.55315e+08
1.62461e+08
1.70339e+08
1.78947e+08
1.88276e+08
1.98304e+08
2.09012e+08
2.20361e+08
2.3231e+08
2.44806e+08
2.57817e+08
2.71291e+08
2.85174e+08
2.99397e+08
3.13904e+08
3.28624e+08
3.43472e+08
3.58351e+08
3.73158e+08
3.87766e+08
4.02027e+08
4.15775e+08
4.28819e+08
4.4093e+08
4.51883e+08
4.6144e+08
4.6935e+08
4.7536e+08
4.79238e+08
4.80784e+08
4.79861e+08
4.76341e+08
4.70173e+08
4.6138e+08
4.50091e+08
4.36514e+08
4.20956e+08
4.03709e+08
3.85142e+08
3.65536e+08
3.45219e+08
3.2444e+08
3.0339e+08
4.28815e+07
4.2852e+07
4.27761e+07
4.26528e+07
4.24823e+07
4.2265e+07
4.20007e+07
4.16897e+07
4.13316e+07
4.09267e+07
4.04755e+07
3.99786e+07
3.94367e+07
3.88507e+07
3.82217e+07
3.75511e+07
3.68404e+07
3.60913e+07
3.53056e+07
3.44852e+07
3.3632e+07
3.2748e+07
3.18354e+07
3.08963e+07
2.99333e+07
2.89492e+07
2.79466e+07
2.69285e+07
2.58977e+07
2.48569e+07
2.38092e+07
2.27574e+07
2.17046e+07
2.06539e+07
1.96086e+07
1.85721e+07
1.7548e+07
1.65398e+07
1.55514e+07
1.45866e+07
1.36496e+07
1.27446e+07
1.1876e+07
1.10486e+07
1.0267e+07
9.53614e+06
8.86119e+06
8.24731e+06
7.69977e+06
7.22392e+06
6.82509e+06
6.50859e+06
6.27971e+06
6.14361e+06
6.10523e+06
6.1693e+06
6.34028e+06
6.62219e+06
7.01863e+06
7.53272e+06
8.16699e+06
8.92336e+06
9.80311e+06
1.08068e+07
1.19343e+07
1.31847e+07
1.45564e+07
1.6047e+07
1.76537e+07
1.9373e+07
2.12006e+07
2.31319e+07
2.51617e+07
2.72841e+07
2.94934e+07
3.17832e+07
3.4147e+07
3.65781e+07
3.90696e+07
4.16143e+07
4.4205e+07
4.68345e+07
4.94952e+07
5.21795e+07
5.48798e+07
5.7588e+07
6.02958e+07
6.2995e+07
6.56768e+07
6.8332e+07
7.09517e+07
7.35264e+07
7.60465e+07
7.85023e+07
8.08841e+07
8.31829e+07
8.53902e+07
8.74981e+07
8.94988e+07
9.13862e+07
9.31547e+07
9.48009e+07
9.6322e+07
9.77167e+07
9.89847e+07
1.00127e+08
1.01144e+08
1.02041e+08
1.0282e+08
1.03487e+08
1.04049e+08
1.04514e+08
1.04888e+08
1.05182e+08
1.05405e+08
1.05568e+08
1.05683e+08
1.05761e+08
1.05819e+08
1.05871e+08
1.05937e+08
1.06039e+08
1.062e+08
1.06449e+08
1.06816e+08
1.07333e+08
1.08038e+08
1.08975e+08
1.10188e+08
1.11726e+08
1.13637e+08
1.15973e+08
1.18781e+08
1.22108e+08
1.25997e+08
1.30484e+08
1.35605e+08
1.41384e+08
1.47838e+08
1.54975e+08
1.62795e+08
1.71292e+08
1.80447e+08
1.90244e+08
2.0065e+08
2.11629e+08
2.23136e+08
2.35136e+08
2.47584e+08
2.60429e+08
2.7361e+08
2.87072e+08
3.00746e+08
3.14549e+08
3.28396e+08
3.4219e+08
3.55811e+08
3.69118e+08
3.81957e+08
3.94157e+08
4.05507e+08
4.158e+08
4.24823e+08
4.32356e+08
4.38169e+08
4.42046e+08
4.43811e+08
4.43345e+08
4.40519e+08
4.35277e+08
4.27626e+08
4.17682e+08
4.05612e+08
3.91681e+08
3.76133e+08
3.59294e+08
3.41403e+08
3.22758e+08
3.03604e+08
2.84163e+08
3.881e+07
3.87879e+07
3.87254e+07
3.86222e+07
3.84784e+07
3.82942e+07
3.80691e+07
3.78032e+07
3.74962e+07
3.71484e+07
3.676e+07
3.63314e+07
3.58629e+07
3.53552e+07
3.48092e+07
3.42259e+07
3.36064e+07
3.29519e+07
3.22639e+07
3.15437e+07
3.07927e+07
3.00127e+07
2.92053e+07
2.83726e+07
2.75165e+07
2.66394e+07
2.57437e+07
2.48316e+07
2.39055e+07
2.29678e+07
2.20211e+07
2.10679e+07
2.0111e+07
1.91531e+07
1.81972e+07
1.72463e+07
1.63037e+07
1.53727e+07
1.44568e+07
1.35597e+07
1.26853e+07
1.18377e+07
1.10212e+07
1.02403e+07
9.49959e+06
8.80396e+06
8.15842e+06
7.56809e+06
7.03819e+06
6.57401e+06
6.18083e+06
5.86393e+06
5.62851e+06
5.4797e+06
5.4224e+06
5.46131e+06
5.60078e+06
5.84477e+06
6.19683e+06
6.65998e+06
7.2367e+06
7.92883e+06
8.7376e+06
9.66355e+06
1.07065e+07
1.18655e+07
1.3139e+07
1.45246e+07
1.60196e+07
1.76204e+07
1.93231e+07
2.11231e+07
2.30152e+07
2.49941e+07
2.7054e+07
2.91888e+07
3.13923e+07
3.36579e+07
3.5979e+07
3.83489e+07
4.07605e+07
4.32068e+07
4.56806e+07
4.81743e+07
5.06807e+07
5.31919e+07
5.57e+07
5.81971e+07
6.06746e+07
6.3124e+07
6.55368e+07
6.7904e+07
7.02166e+07
7.24659e+07
7.46432e+07
7.67402e+07
7.87491e+07
8.06631e+07
8.24752e+07
8.41803e+07
8.57736e+07
8.7252e+07
8.86134e+07
8.98576e+07
9.09851e+07
9.19969e+07
9.28946e+07
9.36818e+07
9.43625e+07
9.49413e+07
9.5424e+07
9.58173e+07
9.61274e+07
9.63625e+07
9.6532e+07
9.66451e+07
9.67113e+07
9.67423e+07
9.67499e+07
9.67483e+07
9.67535e+07
9.6786e+07
9.68658e+07
9.70178e+07
9.72693e+07
9.76498e+07
9.81926e+07
9.89372e+07
9.99252e+07
1.01202e+08
1.02813e+08
1.04805e+08
1.07224e+08
1.10113e+08
1.13514e+08
1.17464e+08
1.21996e+08
1.27135e+08
1.32899e+08
1.39297e+08
1.46333e+08
1.54002e+08
1.62291e+08
1.71186e+08
1.80659e+08
1.90679e+08
2.01207e+08
2.12212e+08
2.23648e+08
2.35469e+08
2.47618e+08
2.60044e+08
2.72677e+08
2.85445e+08
2.98262e+08
3.1104e+08
3.23662e+08
3.35996e+08
3.47906e+08
3.59231e+08
3.69778e+08
3.79364e+08
3.87796e+08
3.94882e+08
4.00421e+08
4.04215e+08
4.06117e+08
4.06012e+08
4.03785e+08
3.99373e+08
3.92777e+08
3.84096e+08
3.73465e+08
3.6111e+08
3.47232e+08
3.32108e+08
3.15937e+08
2.98991e+08
2.81501e+08
2.63719e+08
3.49578e+07
3.49425e+07
3.48923e+07
3.48077e+07
3.46889e+07
3.45354e+07
3.4347e+07
3.41235e+07
3.38646e+07
3.35704e+07
3.32408e+07
3.28761e+07
3.24764e+07
3.20421e+07
3.15739e+07
3.10725e+07
3.05384e+07
2.99726e+07
2.93761e+07
2.87499e+07
2.80952e+07
2.74131e+07
2.6705e+07
2.59725e+07
2.52173e+07
2.44413e+07
2.36463e+07
2.28343e+07
2.20072e+07
2.1167e+07
2.03159e+07
1.94562e+07
1.85901e+07
1.77202e+07
1.68491e+07
1.59794e+07
1.51142e+07
1.42564e+07
1.34094e+07
1.25765e+07
1.17616e+07
1.09686e+07
1.02016e+07
9.46487e+06
8.76304e+06
8.10085e+06
7.48322e+06
6.91519e+06
6.40189e+06
5.94856e+06
5.56042e+06
5.24269e+06
5.00053e+06
4.83904e+06
4.76304e+06
4.77717e+06
4.88572e+06
5.09258e+06
5.40118e+06
5.81446e+06
6.33479e+06
6.96399e+06
7.70317e+06
8.55279e+06
9.51262e+06
1.05817e+07
1.17585e+07
1.30407e+07
1.44255e+07
1.59093e+07
1.74885e+07
1.91584e+07
2.09142e+07
2.27507e+07
2.46622e+07
2.66429e+07
2.86867e+07
3.07874e+07
3.29385e+07
3.51337e+07
3.73662e+07
3.96291e+07
4.19155e+07
4.42182e+07
4.653e+07
4.88435e+07
5.11511e+07
5.34451e+07
5.57176e+07
5.79605e+07
6.01657e+07
6.23249e+07
6.44299e+07
6.64729e+07
6.84458e+07
7.03413e+07
7.21525e+07
7.38732e+07
7.54977e+07
7.70216e+07
7.8441e+07
7.97529e+07
8.09567e+07
8.20522e+07
8.30404e+07
8.39225e+07
8.47006e+07
8.53778e+07
8.59582e+07
8.64461e+07
8.68469e+07
8.71658e+07
8.7408e+07
8.75806e+07
8.76921e+07
8.77507e+07
8.77646e+07
8.77436e+07
8.76979e+07
8.76394e+07
8.75825e+07
8.75444e+07
8.75427e+07
8.75988e+07
8.77372e+07
8.79848e+07
8.83712e+07
8.89322e+07
8.97054e+07
9.0732e+07
9.20546e+07
9.37159e+07
9.57586e+07
9.82257e+07
1.01157e+08
1.04589e+08
1.08553e+08
1.13075e+08
1.18174e+08
1.23863e+08
1.30146e+08
1.37023e+08
1.44482e+08
1.52515e+08
1.61098e+08
1.70203e+08
1.79797e+08
1.89853e+08
2.00327e+08
2.1117e+08
2.22332e+08
2.33762e+08
2.45397e+08
2.57166e+08
2.68988e+08
2.80774e+08
2.92415e+08
3.03786e+08
3.14766e+08
3.25205e+08
3.34932e+08
3.4378e+08
3.51576e+08
3.58154e+08
3.63344e+08
3.66967e+08
3.68902e+08
3.69045e+08
3.67292e+08
3.63583e+08
3.57918e+08
3.50373e+08
3.41062e+08
3.30176e+08
3.17876e+08
3.04392e+08
2.89891e+08
2.74609e+08
2.58765e+08
2.42634e+08
3.14764e+07
3.14668e+07
3.14272e+07
3.13592e+07
3.12625e+07
3.11367e+07
3.09813e+07
3.07961e+07
3.05806e+07
3.03348e+07
3.00583e+07
2.97512e+07
2.94136e+07
2.90456e+07
2.86475e+07
2.82196e+07
2.77625e+07
2.72765e+07
2.67624e+07
2.62209e+07
2.56527e+07
2.50588e+07
2.44403e+07
2.37983e+07
2.31341e+07
2.24493e+07
2.17453e+07
2.10236e+07
2.02858e+07
1.95337e+07
1.8769e+07
1.79937e+07
1.72097e+07
1.64193e+07
1.56247e+07
1.48284e+07
1.4033e+07
1.32414e+07
1.24566e+07
1.16819e+07
1.09209e+07
1.01772e+07
9.45488e+06
8.75812e+06
8.09139e+06
7.45935e+06
6.86684e+06
6.3188e+06
5.82029e+06
5.37645e+06
4.99247e+06
4.6735e+06
4.42468e+06
4.25102e+06
4.15733e+06
4.14813e+06
4.22763e+06
4.39964e+06
4.66747e+06
5.03395e+06
5.50136e+06
6.07139e+06
6.74508e+06
7.52281e+06
8.40428e+06
9.38848e+06
1.04738e+07
1.16579e+07
1.2938e+07
1.43106e+07
1.57719e+07
1.73177e+07
1.89432e+07
2.06431e+07
2.24122e+07
2.42447e+07
2.61347e+07
2.80762e+07
3.00629e+07
3.20888e+07
3.41473e+07
3.6232e+07
3.8336e+07
4.04524e+07
4.25745e+07
4.46949e+07
4.68067e+07
4.89024e+07
5.09746e+07
5.30155e+07
5.5018e+07
5.69741e+07
5.88766e+07
6.07182e+07
6.24918e+07
6.41908e+07
6.58091e+07
6.73415e+07
6.87834e+07
7.0131e+07
7.13812e+07
7.25318e+07
7.35825e+07
7.45334e+07
7.53859e+07
7.61414e+07
7.68019e+07
7.73706e+07
7.78511e+07
7.82477e+07
7.85651e+07
7.88073e+07
7.89793e+07
7.90873e+07
7.91381e+07
7.9139e+07
7.90975e+07
7.90212e+07
7.89197e+07
7.88029e+07
7.86837e+07
7.85763e+07
7.84959e+07
7.8461e+07
7.84932e+07
7.86169e+07
7.88589e+07
7.92507e+07
7.98261e+07
8.06218e+07
8.16768e+07
8.30317e+07
8.47262e+07
8.68008e+07
8.92946e+07
9.22429e+07
9.56766e+07
9.96219e+07
1.04101e+08
1.09128e+08
1.14709e+08
1.20848e+08
1.27538e+08
1.34771e+08
1.42528e+08
1.50786e+08
1.59516e+08
1.68691e+08
1.78272e+08
1.88209e+08
1.98452e+08
2.08954e+08
2.19655e+08
2.30483e+08
2.41362e+08
2.52199e+08
2.62896e+08
2.73334e+08
2.83402e+08
2.92961e+08
3.01863e+08
3.09955e+08
3.17082e+08
3.23099e+08
3.27869e+08
3.31231e+08
3.3309e+08
3.33359e+08
3.31946e+08
3.288e+08
3.23917e+08
3.17356e+08
3.09216e+08
2.99652e+08
2.88798e+08
2.76834e+08
2.63905e+08
2.50208e+08
2.35948e+08
2.21413e+08
2.84758e+07
2.84704e+07
2.84394e+07
2.83852e+07
2.83075e+07
2.82054e+07
2.80787e+07
2.79267e+07
2.77489e+07
2.75451e+07
2.73149e+07
2.70581e+07
2.67744e+07
2.6464e+07
2.61267e+07
2.57626e+07
2.5372e+07
2.49552e+07
2.45123e+07
2.4044e+07
2.35506e+07
2.30329e+07
2.24915e+07
2.19275e+07
2.13419e+07
2.07357e+07
2.011e+07
1.94661e+07
1.88052e+07
1.81289e+07
1.74385e+07
1.67358e+07
1.60223e+07
1.53001e+07
1.45713e+07
1.38379e+07
1.31026e+07
1.23678e+07
1.16365e+07
1.09117e+07
1.01969e+07
9.49555e+06
8.81159e+06
8.14909e+06
7.51243e+06
6.90615e+06
6.33503e+06
5.80393e+06
5.31782e+06
4.88179e+06
4.50095e+06
4.18044e+06
3.9253e+06
3.7405e+06
3.63075e+06
3.60049e+06
3.65386e+06
3.79455e+06
4.02576e+06
4.3502e+06
4.77001e+06
5.28674e+06
5.90134e+06
6.61405e+06
7.42447e+06
8.3315e+06
9.33345e+06
1.0428e+07
1.16123e+07
1.28828e+07
1.42357e+07
1.56669e+07
1.71717e+07
1.87449e+07
2.03814e+07
2.20756e+07
2.38217e+07
2.56138e+07
2.7446e+07
2.93121e+07
3.12062e+07
3.31219e+07
3.50528e+07
3.69922e+07
3.89335e+07
4.087e+07
4.27948e+07
4.47009e+07
4.65816e+07
4.84295e+07
5.0238e+07
5.19999e+07
5.37086e+07
5.53574e+07
5.69401e+07
5.8451e+07
5.98847e+07
6.12371e+07
6.25044e+07
6.36833e+07
6.47716e+07
6.57679e+07
6.66718e+07
6.74839e+07
6.82057e+07
6.88387e+07
6.93849e+07
6.98476e+07
7.02299e+07
7.05358e+07