/*--------------------------------*- C++ -*----------------------------------*\
| =========                 |                                                 |
| \\      /  F ield         | OpenFOAM: The Open Source CFD Toolbox           |
|  \\    /   O peration     | Version:  dev                                   |
|   \\  /    A nd           | Web:      http://www.openfoam.org               |
|    \\/     M anipulation  |                                                 |
\*---------------------------------------------------------------------------*/
FoamFile
{
    version     2.0;
    format      ascii;
    class       volScalarField;
    object      rho;
    location    "9.159";
}
// * * * * * * * * * * * * * * * * * * * * * * * * * * * * * * * * * * * * * //

dimensions      [1 -3 0 0 0 0 0];

internalField   nonuniform List<scalar> 
12225
(
1.15715
1.15684
1.15639
1.15509
1.15398
1.15213
1.15078
1.14853
1.14697
1.14436
1.14251
1.13956
1.13717
1.13401
1.13243
1.12584
1.12939
1.12015
1.1564
1.1579
1.15839
1.15684
1.15591
1.15366
1.15248
1.14968
1.14852
1.14511
1.14404
1.1399
1.13889
1.13414
1.13423
1.12888
1.13338
1.12991
1.15671
1.15836
1.15922
1.15744
1.15706
1.15415
1.15383
1.14984
1.14993
1.14495
1.14513
1.13997
1.13922
1.13602
1.13487
1.13615
1.13265
1.13382
1.15725
1.1581
1.15987
1.15697
1.15803
1.1537
1.15484
1.14928
1.15077
1.1445
1.1456
1.13968
1.13984
1.1346
1.13266
1.12745
1.13099
1.1369
1.15782
1.15788
1.16044
1.15651
1.15816
1.15337
1.15492
1.14892
1.15085
1.14448
1.14564
1.14004
1.13984
1.13517
1.13162
1.12414
1.12696
1.13872
1.1578
1.15873
1.16029
1.15731
1.15781
1.15438
1.15465
1.15006
1.15101
1.14535
1.14639
1.14064
1.14141
1.13561
1.13715
1.12954
1.12948
1.13227
1.15745
1.15918
1.15978
1.15854
1.15739
1.15546
1.15423
1.15173
1.15053
1.14697
1.14611
1.14263
1.14125
1.13778
1.1379
1.13409
1.13323
1.12924
1.15771
1.15939
1.16012
1.15886
1.15774
1.15564
1.15459
1.15196
1.15064
1.14736
1.14603
1.14312
1.14086
1.1382
1.13648
1.13378
1.1323
1.12897
1.15793
1.1598
1.16016
1.15925
1.15784
1.15617
1.15473
1.15249
1.15092
1.1481
1.14624
1.14353
1.14129
1.13865
1.13615
1.13383
1.13143
1.1295
1.15822
1.16018
1.16046
1.15972
1.15795
1.15664
1.15518
1.15286
1.15121
1.14856
1.14663
1.14363
1.14191
1.13905
1.13635
1.13426
1.13159
1.13019
1.1589
1.1609
1.16095
1.16023
1.15831
1.15736
1.15511
1.15348
1.15155
1.1491
1.14691
1.14415
1.14255
1.13971
1.13726
1.13501
1.13288
1.13089
1.15964
1.16125
1.16156
1.16075
1.15897
1.1579
1.15586
1.15435
1.15176
1.14995
1.14762
1.14485
1.14326
1.14058
1.13837
1.13572
1.13407
1.1319
1.16036
1.16189
1.16236
1.16118
1.15986
1.15848
1.15657
1.15497
1.15267
1.15098
1.1483
1.14612
1.14404
1.14174
1.13969
1.13694
1.13542
1.13293
1.16139
1.1631
1.16352
1.16229
1.16115
1.1594
1.15787
1.15605
1.15398
1.15218
1.14968
1.14751
1.14514
1.14319
1.14067
1.13834
1.13665
1.13443
1.16265
1.16431
1.1647
1.16367
1.16255
1.16079
1.15927
1.15726
1.15542
1.15331
1.15118
1.14903
1.14666
1.14475
1.14241
1.14045
1.1382
1.13635
1.16482
1.16603
1.16619
1.16533
1.16417
1.1627
1.16112
1.15918
1.15728
1.15506
1.15303
1.15072
1.14861
1.14647
1.14432
1.14246
1.14033
1.13862
1.1673
1.16819
1.16837
1.16753
1.16631
1.16488
1.16317
1.1613
1.15925
1.15722
1.1551
1.15295
1.15088
1.14865
1.14673
1.14465
1.14273
1.14083
1.17
1.17077
1.171
1.17011
1.1688
1.16724
1.16559
1.16369
1.16174
1.15978
1.15742
1.15552
1.15324
1.15128
1.14917
1.14718
1.14542
1.14345
1.1723
1.17315
1.17344
1.1723
1.17091
1.16947
1.16783
1.16587
1.16405
1.16189
1.1599
1.15788
1.15567
1.15383
1.15161
1.14992
1.14777
1.14599
1.17475
1.17489
1.17529
1.1742
1.17299
1.17152
1.16964
1.16785
1.16582
1.16376
1.16183
1.15966
1.15779
1.15561
1.15366
1.15165
1.14968
1.14788
1.17651
1.17632
1.17689
1.17584
1.17465
1.17315
1.17131
1.16937
1.1672
1.16525
1.16309
1.16117
1.15921
1.15721
1.15537
1.1534
1.15154
1.14971
1.17786
1.17782
1.17821
1.17716
1.17568
1.17415
1.17238
1.17041
1.16851
1.16637
1.16441
1.16238
1.16039
1.15849
1.15648
1.15467
1.15277
1.15102
1.17862
1.17906
1.1792
1.17805
1.17657
1.175
1.17321
1.17139
1.16954
1.16752
1.16562
1.16351
1.16159
1.15951
1.15755
1.15563
1.15376
1.15199
1.1795
1.17958
1.17968
1.17866
1.17739
1.17571
1.1741
1.17219
1.17023
1.16829
1.16617
1.1642
1.16211
1.16011
1.15819
1.15624
1.15448
1.15269
1.17999
1.17997
1.18029
1.17916
1.17772
1.17627
1.17456
1.17276
1.1708
1.1687
1.16666
1.16454
1.16254
1.16057
1.15866
1.15683
1.15503
1.15333
1.1807
1.18051
1.18059
1.17939
1.17803
1.17646
1.17482
1.17301
1.17112
1.16915
1.16709
1.16503
1.16296
1.16095
1.159
1.15712
1.15532
1.1536
1.18091
1.1808
1.18095
1.1798
1.17843
1.17689
1.17516
1.1733
1.17133
1.16929
1.16723
1.16516
1.16311
1.16111
1.15916
1.1573
1.15552
1.15383
1.18097
1.18089
1.18118
1.18
1.17856
1.17697
1.17523
1.17334
1.17134
1.16927
1.1672
1.16514
1.16313
1.16118
1.15932
1.15752
1.15581
1.15418
1.18106
1.18072
1.18093
1.17976
1.17832
1.1767
1.1749
1.17297
1.17096
1.16892
1.1669
1.16491
1.16298
1.1611
1.15927
1.15747
1.15574
1.15406
1.18222
1.18061
1.18017
1.17884
1.17735
1.17573
1.17397
1.17212
1.17021
1.16828
1.16635
1.16444
1.16254
1.16067
1.15884
1.15705
1.15533
1.15371
1.10129
1.12211
1.13308
1.13889
1.14166
1.14273
1.14286
1.14244
1.14155
1.14032
1.13898
1.13755
1.13603
1.1344
1.13275
1.13075
1.12839
1.12701
1.12587
1.12497
1.12422
1.12268
1.12015
1.1173
1.11536
1.11478
1.11396
1.11217
1.10975
1.1072
1.10644
1.10638
1.1022
1.09368
1.08716
1.08701
1.09075
1.09467
1.09764
1.09979
1.10177
1.10379
1.10582
1.10781
1.10978
1.11175
1.11375
1.11576
1.11779
1.11986
1.12195
1.12406
1.12621
1.12838
1.13055
1.13271
1.13485
1.13699
1.13913
1.14127
1.14345
1.14567
1.14791
1.15009
1.1522
1.15428
1.15636
1.15852
1.16059
1.16253
1.16458
1.16667
1.169
1.17132
1.17371
1.17622
1.17881
1.1815
1.18427
1.18723
1.19029
1.19306
1.19517
1.19664
1.19755
1.19852
1.19997
1.20166
1.2035
1.20535
1.20754
1.2095
1.21173
1.21426
1.21641
1.21868
1.22018
1.22248
1.22494
1.22635
1.22728
1.23077
1.23746
1.24625
1.25482
1.25952
1.25709
1.25067
1.24013
1.22521
1.21725
1.21336
1.20919
1.21798
1.22111
1.22274
1.23272
1.23448
1.23029
1.22772
1.22494
1.21931
1.21651
1.23216
1.25677
1.2501
1.23462
1.25064
1.26475
1.26292
1.2656
1.26792
1.26299
1.25859
1.25584
1.25642
1.25661
1.25573
1.2501
1.24454
1.24238
1.24436
1.248
1.25348
1.25992
1.26547
1.27059
1.27857
1.28749
1.29748
1.30741
1.31545
1.31854
1.31864
1.3241
1.33193
1.33143
1.35251
1.36377
1.33674
1.33827
1.33621
1.30134
1.29769
1.31647
1.3527
1.38159
1.33722
1.3568
1.36669
1.36272
1.37516
1.3597
1.33699
1.32524
1.30178
1.29375
1.29331
1.36351
1.3704
1.10153
1.12613
1.1405
1.14907
1.15423
1.15713
1.1588
1.15997
1.16073
1.16097
1.16089
1.16095
1.16097
1.16042
1.15997
1.15941
1.1587
1.15935
1.15816
1.15664
1.15637
1.15455
1.15142
1.14455
1.14263
1.14605
1.1426
1.1343
1.11851
1.10172
1.09739
1.10076
1.10421
1.10523
1.10535
1.10552
1.10684
1.10829
1.1092
1.11019
1.11107
1.1124
1.11355
1.11484
1.11609
1.11729
1.11863
1.11994
1.12139
1.12298
1.12459
1.12633
1.12819
1.13
1.13171
1.13336
1.13496
1.13657
1.13831
1.14008
1.142
1.14397
1.14586
1.14763
1.14925
1.15079
1.15246
1.15427
1.15585
1.15716
1.15865
1.16021
1.16237
1.16433
1.16639
1.16878
1.17125
1.17414
1.17722
1.18127
1.18777
1.19542
1.20074
1.20245
1.19916
1.19623
1.19914
1.20517
1.21309
1.2189
1.2239
1.22617
1.22812
1.23453
1.23608
1.23852
1.23999
1.24291
1.24733
1.25669
1.26657
1.26278
1.25791
1.26483
1.28571
1.30354
1.30374
1.29362
1.27273
1.25439
1.24723
1.24619
1.24663
1.25021
1.25898
1.26596
1.25793
1.24314
1.24033
1.24891
1.25239
1.2534
1.2674
1.2858
1.28674
1.26784
1.30068
1.29593
1.27136
1.31726
1.32185
1.32802
1.31568
1.29141
1.27568
1.26742
1.26986
1.28053
1.29515
1.30712
1.31224
1.31199
1.30388
1.29901
1.30808
1.32005
1.32554
1.33687
1.35513
1.37781
1.40215
1.42996
1.44892
1.45462
1.4684
1.48232
1.48192
1.52513
1.56625
1.48999
1.46003
1.41344
1.33994
1.35456
1.43017
1.47392
1.41935
1.35341
1.46889
1.47036
1.50809
1.56215
1.48285
1.37868
1.36843
1.34255
1.3885
1.33609
1.38874
1.55388
1.09666
1.11458
1.12428
1.13074
1.13634
1.1406
1.14382
1.14679
1.14976
1.15263
1.15391
1.15595
1.15875
1.15998
1.15914
1.1603
1.1653
1.16857
1.16763
1.16248
1.16074
1.15675
1.1515
1.14625
1.1366
1.12541
1.11728
1.11303
1.11047
1.10809
1.10626
1.10372
1.10043
1.09779
1.09643
1.09641
1.09669
1.09716
1.09777
1.09856
1.09956
1.10061
1.10184
1.10312
1.10435
1.10613
1.10788
1.10977
1.11156
1.11341
1.11551
1.11751
1.11955
1.12186
1.12417
1.12663
1.1291
1.13167
1.13433
1.13678
1.13919
1.14185
1.1447
1.14719
1.14965
1.15201
1.15442
1.15619
1.15789
1.15959
1.16073
1.16169
1.16304
1.16415
1.16467
1.16525
1.16555
1.16643
1.16732
1.16831
1.17216
1.18036
1.1878
1.19126
1.18458
1.17363
1.17079
1.17867
1.19702
1.21001
1.20895
1.21198
1.22359
1.23223
1.22463
1.22091
1.22435
1.23313
1.2379
1.24091
1.26057
1.27354
1.27
1.26639
1.26641
1.26881
1.26602
1.25744
1.25718
1.26062
1.25841
1.25704
1.26003
1.26127
1.25985
1.24678
1.23187
1.23446
1.25902
1.27276
1.27042
1.26911
1.26289
1.26438
1.24425
1.25779
1.32285
1.25251
1.15261
1.22423
1.27809
1.29087
1.30231
1.27697
1.2499
1.22156
1.20958
1.21119
1.23555
1.27096
1.30561
1.32792
1.33516
1.3322
1.32729
1.32839
1.34192
1.36035
1.36853
1.37504
1.38932
1.41922
1.46221
1.50587
1.53643
1.54671
1.56263
1.57505
1.58342
1.53275
1.47963
1.42369
1.36396
1.36296
1.42613
1.48218
1.45886
1.44447
1.41511
1.41569
1.49826
1.57969
1.47128
1.35526
1.28671
1.24787
1.33398
1.35478
1.33727
1.45417
1.09325
1.10706
1.11405
1.11919
1.12442
1.12919
1.13302
1.13672
1.14006
1.14367
1.14635
1.15138
1.15596
1.15658
1.15993
1.1678
1.16805
1.15985
1.1518
1.14115
1.1335
1.12466
1.11881
1.11838
1.11647
1.11327
1.10982
1.1051
1.10024
1.09599
1.09176
1.08883
1.08763
1.08904
1.09104
1.09411
1.09697
1.0997
1.1029
1.10521
1.10769
1.10938
1.11099
1.11263
1.11477
1.11681
1.11877
1.12139
1.12314
1.12535
1.12742
1.1293
1.13159
1.13358
1.13577
1.13849
1.14058
1.143
1.14566
1.1482
1.15073
1.15331
1.15632
1.15911
1.16185
1.1646
1.16743
1.1698
1.17205
1.17388
1.17539
1.17613
1.17698
1.17775
1.17734
1.17597
1.17419
1.17398
1.17383
1.17381
1.17267
1.17608
1.18157
1.18874
1.19253
1.18595
1.17537
1.17621
1.19293
1.20184
1.18879
1.18063
1.19223
1.20646
1.19714
1.18537
1.18941
1.19617
1.19677
1.20885
1.23956
1.25369
1.26265
1.27407
1.26169
1.26171
1.27419
1.26576
1.26001
1.25603
1.24785
1.23845
1.22405
1.2126
1.22783
1.23974
1.23312
1.24545
1.24511
1.23687
1.2609
1.2907
1.27058
1.24941
1.23914
1.24985
1.23129
1.19512
1.16417
1.1486
1.19685
1.20628
1.23635
1.23995
1.24176
1.22713
1.21153
1.19057
1.19606
1.22432
1.26665
1.3098
1.33424
1.33157
1.32842
1.33745
1.34827
1.35843
1.36657
1.37103
1.37198
1.37149
1.40202
1.48763
1.55824
1.57835
1.59257
1.54255
1.51346
1.55704
1.50406
1.43885
1.45577
1.44469
1.45972
1.6182
1.61625
1.51587
1.40581
1.40914
1.50967
1.54157
1.3938
1.31449
1.26517
1.23468
1.25757
1.33306
1.33203
1.35736
1.09095
1.10257
1.10958
1.11643
1.12254
1.12844
1.13292
1.13671
1.13872
1.13875
1.14206
1.14971
1.15787
1.16138
1.15702
1.14972
1.14359
1.13352
1.12037
1.11158
1.10885
1.10644
1.10722
1.10667
1.10378
1.09887
1.09383
1.09092
1.0887
1.08821
1.08856
1.0917
1.09573
1.10025
1.10393
1.10642
1.10841
1.10954
1.11033
1.1107
1.111
1.11146
1.11269
1.11368
1.11532
1.11718
1.11891
1.12062
1.12268
1.12465
1.12675
1.12887
1.13091
1.13301
1.13485
1.13681
1.13839
1.14001
1.14156
1.14323
1.14528
1.14723
1.14957
1.15187
1.1545
1.15681
1.15892
1.16179
1.16514
1.16765
1.17014
1.17212
1.17432
1.1773
1.17985
1.17983
1.17855
1.1775
1.17643
1.17609
1.1763
1.17633
1.17685
1.17622
1.17959
1.18618
1.18702
1.18912
1.19355
1.19034
1.1783
1.1688
1.16919
1.16887
1.16912
1.16881
1.17718
1.18776
1.1798
1.18149
1.20702
1.20957
1.22198
1.2563
1.25526
1.25368
1.26677
1.26344
1.25521
1.24529
1.23635
1.22685
1.20372
1.20198
1.23941
1.24049
1.20997
1.20972
1.19934
1.20698
1.23807
1.26581
1.29599
1.23502
1.25324
1.26133
1.20145
1.21
1.24618
1.22822
1.19801
1.18539
1.19177
1.18676
1.1966
1.20471
1.21794
1.20342
1.19501
1.20239
1.23543
1.27341
1.31313
1.3298
1.32841
1.32922
1.33689
1.3555
1.38281
1.39326
1.39295
1.36849
1.34344
1.42317
1.54003
1.59053
1.59933
1.52514
1.49249
1.60895
1.55747
1.44241
1.40363
1.42705
1.37037
1.57254
1.62823
1.53739
1.46201
1.37455
1.51159
1.50789
1.39397
1.29639
1.25127
1.28249
1.27944
1.31306
1.33312
1.31961
1.08946
1.09934
1.10621
1.11553
1.12387
1.13087
1.13764
1.14235
1.14237
1.14006
1.14326
1.15165
1.15309
1.15049
1.14445
1.13505
1.12483
1.109
1.09978
1.09761
1.09875
1.09968
1.09705
1.09348
1.09095
1.08934
1.08851
1.08927
1.09093
1.09445
1.09852
1.10253
1.10528
1.10606
1.10571
1.10422
1.10292
1.10267
1.10225
1.10288
1.10462
1.10651
1.1093
1.11221
1.11529
1.11817
1.12129
1.12395
1.12685
1.12976
1.13234
1.13463
1.13733
1.13965
1.1413
1.14301
1.14468
1.14606
1.14803
1.14966
1.15089
1.15214
1.15349
1.15467
1.1561
1.15801
1.15966
1.16169
1.16424
1.16697
1.16911
1.17063
1.17162
1.1741
1.17851
1.18236
1.18546
1.18641
1.19085
1.19164
1.19034
1.18793
1.18596
1.1821
1.17723
1.17991
1.18592
1.18588
1.18224
1.17483
1.17075
1.16966
1.16821
1.16113
1.16219
1.16976
1.16909
1.18132
1.19746
1.20776
1.21153
1.1925
1.19396
1.22983
1.23601
1.24291
1.26196
1.2626
1.25729
1.24062
1.23435
1.22923
1.19822
1.2055
1.24706
1.22713
1.2098
1.21608
1.21213
1.21181
1.20902
1.22044
1.27527
1.25673
1.2878
1.27866
1.16357
1.21297
1.21641
1.2351
1.21306
1.20794
1.23587
1.2413
1.22365
1.20273
1.22749
1.2304
1.22957
1.21517
1.22892
1.2425
1.25849
1.29059
1.30151
1.29846
1.29547
1.32327
1.40659
1.44165
1.41828
1.38314
1.3243
1.35903
1.49603
1.59139
1.601
1.52114
1.47852
1.70508
1.61156
1.48308
1.43577
1.52053
1.35107
1.44647
1.55651
1.64824
1.52956
1.34774
1.3762
1.38825
1.35087
1.28934
1.23802
1.29383
1.35943
1.35547
1.35465
1.31162
1.08823
1.09651
1.10506
1.11822
1.12992
1.13609
1.14197
1.14727
1.14542
1.14166
1.14614
1.1479
1.14398
1.13273
1.11795
1.10905
1.1045
1.09685
1.09609
1.09587
1.09171
1.09254
1.09191
1.09196
1.09151
1.08965
1.09059
1.09328
1.09769
1.10157
1.10346
1.10378
1.1036
1.10157
1.0999
1.09984
1.10089
1.10346
1.10658
1.11081
1.1147
1.11864
1.12254
1.12571
1.12845
1.13071
1.13265
1.13394
1.13562
1.13747
1.13902
1.14117
1.14359
1.14615
1.14894
1.15113
1.15352
1.15541
1.15762
1.16019
1.1618
1.16247
1.16255
1.16226
1.16132
1.16144
1.16206
1.1636
1.16592
1.16954
1.17259
1.17453
1.17445
1.17302
1.17205
1.17461
1.17578
1.17302
1.17427
1.18135
1.18828
1.18994
1.18751
1.18364
1.17985
1.1803
1.18488
1.18558
1.18241
1.18272
1.18344
1.17679
1.16547
1.1549
1.15775
1.17466
1.17229
1.16331
1.17624
1.19963
1.21768
1.21358
1.21163
1.22765
1.22416
1.23134
1.25145
1.25701
1.25955
1.25342
1.24691
1.23506
1.19472
1.21041
1.24736
1.21294
1.21573
1.21043
1.19748
1.19344
1.19372
1.21079
1.23915
1.28974
1.24224
1.27318
1.21502
1.15706
1.20026
1.20972
1.20623
1.1505
1.18128
1.24404
1.25748
1.20755
1.21314
1.2219
1.22928
1.22305
1.23172
1.25169
1.23014
1.22931
1.2325
1.22557
1.22635
1.23151
1.33852
1.43027
1.42344
1.39381
1.32953
1.30581
1.4232
1.56843
1.6024
1.53296
1.46762
1.68281
1.60033
1.56116
1.42466
1.4632
1.41039
1.4967
1.57606
1.65134
1.57399
1.40259
1.3282
1.33273
1.33826
1.30667
1.26611
1.32112
1.41834
1.42621
1.4051
1.33255
1.08783
1.09696
1.11109
1.12858
1.14214
1.14652
1.15005
1.15074
1.146
1.14186
1.14194
1.14142
1.13598
1.1204
1.10976
1.10089
1.0929
1.08906
1.08655
1.08751
1.08612
1.08759
1.08732
1.0868
1.08863
1.09202
1.09693
1.1011
1.10268
1.1019
1.10219
1.10109
1.10027
1.10017
1.10085
1.10402
1.10745
1.1114
1.11435
1.11739
1.11946
1.12049
1.12128
1.12165
1.12129
1.12101
1.12103
1.12126
1.1217
1.12304
1.12456
1.12717
1.13023
1.13344
1.13735
1.1404
1.14321
1.14504
1.14652
1.14906
1.15211
1.1543
1.1551
1.15486
1.15331
1.15225
1.15245
1.15363
1.15577
1.16281
1.16893
1.17444
1.17917
1.18063
1.17774
1.17856
1.18136
1.18146
1.17221
1.1724
1.18208
1.19153
1.19052
1.18435
1.17578
1.17509
1.18376
1.19384
1.19437
1.19283
1.19104
1.18269
1.17167
1.15659
1.15366
1.17036
1.18371
1.18279
1.18535
1.19
1.20442
1.21652
1.21789
1.22181
1.21731
1.22678
1.24447
1.25183
1.25958
1.26085
1.25731
1.23103
1.18864
1.21387
1.23995
1.20678
1.20908
1.19035
1.18516
1.1848
1.1848
1.19135
1.20865
1.24026
1.1434
1.18325
1.27324
1.1911
1.21144
1.21762
1.25686
1.19665
1.17259
1.19524
1.22187
1.183
1.17994
1.21348
1.22681
1.22078
1.20805
1.23853
1.2425
1.22836
1.22465
1.20606
1.21553
1.19357
1.24572
1.34233
1.37476
1.3871
1.36193
1.30027
1.34845
1.51783
1.60141
1.55241
1.49665
1.51816
1.60975
1.60058
1.43183
1.44939
1.4238
1.53541
1.58029
1.70283
1.52902
1.358
1.31746
1.27247
1.30621
1.3096
1.2752
1.36244
1.4642
1.47163
1.46192
1.36778
1.08847
1.10056
1.12026
1.13738
1.14601
1.14823
1.1505
1.15241
1.14733
1.14058
1.14001
1.14324
1.12984
1.10505
1.09873
1.09353
1.08504
1.08852
1.08748
1.0888
1.09052
1.09222
1.09433
1.0983
1.1008
1.10241
1.10234
1.09989
1.0994
1.09895
1.09962
1.10038
1.10101
1.10312
1.10576
1.10929
1.11138
1.11349
1.1147
1.11499
1.11567
1.11611
1.11643
1.11731
1.11825
1.11921
1.12047
1.12242
1.12422
1.12719
1.12983
1.1323
1.13539
1.13783
1.14172
1.14518
1.149
1.15146
1.15172
1.15012
1.15019
1.15221
1.15385
1.15436
1.15395
1.15205
1.15095
1.1496
1.14753
1.15054
1.15674
1.16185
1.16915
1.17737
1.17947
1.17484
1.17507
1.18332
1.17894
1.17343
1.17414
1.18785
1.19101
1.19227
1.1836
1.17609
1.17767
1.18787
1.19393
1.19253
1.18428
1.17084
1.16052
1.1575
1.16823
1.18572
1.19361
1.19904
1.20685
1.20879
1.21531
1.22911
1.22512
1.21885
1.21975
1.2274
1.23818
1.2501
1.25857
1.26798
1.26623
1.23142
1.19559
1.21954
1.23516
1.21072
1.20289
1.19192
1.19277
1.18548
1.18047
1.19031
1.19959
1.19323
1.22896
1.21028
1.18308
1.18867
1.203
1.16429
1.15959
1.15496
1.16521
1.19013
1.23742
1.22822
1.18965
1.20616
1.22756
1.22685
1.19052
1.20222
1.23813
1.23413
1.23794
1.2208
1.23916
1.21227
1.18686
1.25126
1.31434
1.35536
1.35733
1.31921
1.30482
1.45163
1.58712
1.56982
1.54062
1.4369
1.63485
1.75
1.46686
1.61192
1.43914
1.60147
1.53328
1.57653
1.4336
1.31031
1.27932
1.23594
1.31587
1.36801
1.31318
1.37984
1.48223
1.46236
1.48056
1.37929
1.09005
1.10597
1.12892
1.14138
1.14154
1.14329
1.14517
1.14781
1.1468
1.14293
1.14605
1.14167
1.11772
1.09718
1.09848
1.0938
1.0841
1.08853
1.08889
1.08863
1.09105
1.09188
1.09368
1.09531
1.09663
1.09775
1.10016
1.10165
1.10267
1.10292
1.10279
1.10339
1.10453
1.10676
1.10854
1.11033
1.11125
1.11139
1.11235
1.11316
1.11445
1.11637
1.11824
1.12045
1.12289
1.12488
1.12592
1.12706
1.12784
1.13004
1.13271
1.13429
1.13708
1.13841
1.14087
1.14295
1.14626
1.15141
1.15794
1.15937
1.15723
1.15569
1.15731
1.15949
1.16253
1.16369
1.16456
1.16326
1.16147
1.15584
1.15537
1.15591
1.15572
1.16183
1.17337
1.17524
1.17044
1.17361
1.17755
1.17503
1.16841
1.17777
1.17804
1.18405
1.18059
1.17961
1.18179
1.18764
1.18982
1.18105
1.16869
1.15557
1.15151
1.15658
1.16882
1.18388
1.1884
1.19897
1.21134
1.21537
1.21984
1.23444
1.2264
1.21929
1.22609
1.22684
1.235
1.25248
1.26142
1.27629
1.27797
1.2356
1.19789
1.21841
1.23188
1.2069
1.18901
1.18816
1.18313
1.16959
1.16582
1.18272
1.20188
1.20507
1.21784
1.21935
1.18262
1.15452
1.16345
1.17904
1.19584
1.20176
1.19268
1.19678
1.19207
1.19031
1.17476
1.1903
1.21992
1.23996
1.20913
1.17151
1.2144
1.22968
1.23899
1.22291
1.24121
1.24508
1.18022
1.18888
1.24906
1.31907
1.33527
1.33282
1.28637
1.37673
1.54051
1.5836
1.55576
1.52648
1.61507
1.69268
1.66661
1.72976
1.48263
1.39248
1.36776
1.47165
1.37681
1.29969
1.26297
1.23671
1.33095
1.3985
1.34231
1.39106
1.49218
1.4416
1.46474
1.36681
1.09158
1.10934
1.13196
1.14029
1.13775
1.14266
1.14838
1.1513
1.15422
1.15117
1.147
1.1304
1.09873
1.08702
1.09253
1.0909
1.08672
1.09096
1.09011
1.09035
1.0951
1.09684
1.09952
1.10127
1.10268
1.10367
1.10252
1.1001
1.0976
1.09675
1.09835
1.1011
1.10443
1.10667
1.10788
1.10896
1.1099
1.11059
1.11224
1.11401
1.116
1.11832
1.12021
1.1218
1.12303
1.12422
1.12424
1.12362
1.12265
1.12331
1.12605
1.12798
1.13221
1.13575
1.13963
1.14272
1.14283
1.14217
1.14566
1.15261
1.15649
1.15471
1.15196
1.15188
1.15324
1.15627
1.16022
1.16139
1.16574
1.16546
1.1628
1.16231
1.16045
1.1547
1.15634
1.1654
1.16881
1.16773
1.17559
1.17905
1.17145
1.17592
1.17721
1.18576
1.17793
1.17339
1.17659
1.18552
1.19017
1.18358
1.17299
1.1587
1.15382
1.15907
1.17015
1.18626
1.18999
1.20187
1.2167
1.2244
1.22947
1.23818
1.22692
1.22095
1.22853
1.22542
1.23489
1.25352
1.26371
1.27512
1.27559
1.23136
1.1931
1.21566
1.22634
1.19739
1.18303
1.18437
1.17999
1.1703
1.17183
1.18379
1.1964
1.21193
1.18155
1.15898
1.18221
1.20623
1.19573
1.17236
1.1692
1.1808
1.19222
1.20257
1.21104
1.21567
1.18912
1.17544
1.18751
1.21516
1.23643
1.17739
1.19538
1.22653
1.2429
1.21967
1.20996
1.25446
1.22359
1.20384
1.22289
1.29052
1.31432
1.33977
1.29216
1.3181
1.47254
1.57096
1.57056
1.56082
1.62386
1.47242
1.74067
1.76622
1.56056
1.40831
1.40331
1.42878
1.33986
1.2954
1.28216
1.25708
1.36216
1.4479
1.36439
1.39174
1.50516
1.45222
1.44767
1.32763
1.09281
1.11112
1.13401
1.14096
1.13576
1.14094
1.14935
1.15017
1.14816
1.14693
1.1389
1.12259
1.09827
1.09014
1.09156
1.08742
1.08567
1.09299
1.09372
1.09626
1.09894
1.09816
1.09886
1.09904
1.09817
1.09836
1.09967
1.10164
1.10511
1.10702
1.10901
1.11015
1.11021
1.11021
1.11035
1.10945
1.10992
1.11104
1.11311
1.11573
1.1183
1.12049
1.12113
1.12089
1.12022
1.12024
1.12052
1.1221
1.1238
1.12483
1.12851
1.13088
1.13355
1.13677
1.14027
1.14784
1.15333
1.15396
1.1485
1.14695
1.15051
1.15555
1.15468
1.15376
1.15136
1.15027
1.15124
1.15255
1.15324
1.15679
1.16218
1.16117
1.16614
1.16857
1.16087
1.15834
1.16274
1.16041
1.16407
1.17154
1.16873
1.17049
1.17073
1.18499
1.18089
1.17659
1.17343
1.17801
1.18483
1.18831
1.17999
1.16548
1.15466
1.15822
1.16936
1.18977
1.20078
1.21088
1.21797
1.22218
1.23092
1.24107
1.22813
1.22249
1.22725
1.22622
1.23864
1.25645
1.25587
1.264
1.26926
1.22678
1.19312
1.22311
1.21584
1.19285
1.18906
1.18986
1.18727
1.17446
1.1689
1.18593
1.20682
1.20269
1.21132
1.21125
1.1709
1.15197
1.15458
1.1672
1.19222
1.18951
1.19476
1.17827
1.15932
1.18431
1.19026
1.18566
1.20036
1.20225
1.23663
1.18899
1.18481
1.21329
1.23941
1.23277
1.19476
1.23771
1.22984
1.21454
1.20714
1.2645
1.2937
1.32982
1.30747
1.29359
1.39197
1.52278
1.56162
1.57593
1.58941
1.49439
1.69966
1.74003
1.45277
1.36201
1.38426
1.32193
1.27149
1.2723
1.29846
1.26948
1.37643
1.48114
1.38887
1.38868
1.49442
1.45682
1.40984
1.28081
1.09335
1.11088
1.1326
1.13772
1.13197
1.13707
1.14606
1.15075
1.14217
1.12923
1.12253
1.10694
1.09279
1.0919
1.09556
1.09218
1.08955
1.09309
1.09096
1.09386
1.09922
1.10116
1.10328
1.10452
1.10537
1.10524
1.10561
1.10361
1.10221
1.10128
1.10131
1.10195
1.10269
1.10359
1.10472
1.10593
1.10839
1.1102
1.11336
1.1174
1.12035
1.12248
1.12371
1.12439
1.12346
1.12316
1.12326
1.12355
1.12664
1.12863
1.1322
1.13667
1.13808
1.13868
1.13575
1.13799
1.14419
1.15321
1.15678
1.15261
1.14624
1.14572
1.14766
1.15072
1.15317
1.15533
1.15433
1.15621
1.15712
1.15476
1.15889
1.16424
1.16118
1.16747
1.17091
1.164
1.16559
1.16464
1.16132
1.16842
1.17016
1.16804
1.16552
1.18025
1.17706
1.17489
1.16867
1.17505
1.18634
1.19222
1.17543
1.15718
1.14955
1.16262
1.17854
1.1999
1.21439
1.22744
1.22973
1.2256
1.23319
1.23983
1.22722
1.22242
1.22416
1.22873
1.24715
1.25493
1.2456
1.25063
1.25532
1.22132
1.1963
1.22039
1.20827
1.20767
1.19524
1.17774
1.17623
1.17092
1.16626
1.18625
1.1971
1.21145
1.17965
1.1634
1.16593
1.18553
1.18819
1.18056
1.18445
1.17491
1.18496
1.19655
1.19306
1.21335
1.21207
1.19127
1.2122
1.18729
1.20928
1.18642
1.17513
1.19706
1.22132
1.23223
1.17787
1.21918
1.23055
1.2249
1.2025
1.24116
1.27174
1.3096
1.31971
1.2907
1.32164
1.45804
1.51706
1.59296
1.57445
1.53994
1.67818
1.67591
1.40134
1.34031
1.35739
1.24719
1.29762
1.332
1.34872
1.28078
1.41199
1.5134
1.41369
1.402
1.48186
1.4579
1.38379
1.26123
1.09439
1.11228
1.13424
1.13725
1.12853
1.13253
1.13609
1.13462
1.13447
1.12631
1.11545
1.10526
1.09094
1.08925
1.09326
1.09255
1.09435
1.10154
1.1016
1.10106
1.10239
1.10094
1.10061
1.09886
1.0988
1.0983
1.09974
1.10172
1.10475
1.1076
1.10821
1.10781
1.10864
1.10893
1.10934
1.11071
1.11081
1.11136
1.11434
1.11724
1.11987
1.12216
1.12258
1.12291
1.1231
1.12251
1.12391
1.12406
1.12529
1.12657
1.12647
1.13216
1.13692
1.14081
1.13926
1.13725
1.13995
1.14516
1.15161
1.1559
1.15571
1.15078
1.1473
1.14579
1.1476
1.15033
1.15395
1.15521
1.15829
1.16432
1.15915
1.16666
1.16717
1.16577
1.17129
1.16525
1.16508
1.16878
1.16001
1.16133
1.16974
1.17036
1.16439
1.17484
1.18017
1.18023
1.17029
1.17246
1.18281
1.1906
1.17072
1.15339
1.15363
1.16897
1.18397
1.20351
1.21228
1.22058
1.22332
1.2241
1.23618
1.23812
1.224
1.22097
1.22004
1.23165
1.25465
1.25164
1.23518
1.2388
1.24208
1.21064
1.19666
1.21564
1.21492
1.20563
1.17348
1.16084
1.17954
1.17528
1.17049
1.18876
1.20421
1.19893
1.18445
1.19259
1.16585
1.15381
1.15949
1.17404
1.18448
1.18688
1.19502
1.17266
1.17935
1.20836
1.21092
1.1996
1.23736
1.19809
1.20468
1.20194
1.17875
1.19308
1.20657
1.23015
1.17154
1.20095
1.21829
1.22642
1.20986
1.22473
1.25835
1.2936
1.3164
1.28082
1.28223
1.40006
1.4476
1.60381
1.52082
1.49091
1.65416
1.56403
1.324
1.34295
1.32902
1.22312
1.31033
1.3521
1.40502
1.29418
1.44807
1.54381
1.43277
1.40929
1.46533
1.45741
1.36539
1.26999
1.09513
1.11162
1.13404
1.13981
1.12597
1.12484
1.13209
1.12767
1.11499
1.11331
1.10995
1.1062
1.0966
1.09264
1.09328
1.09143
1.09028
1.09633
1.09927
1.10174
1.10728
1.10779
1.10905
1.10784
1.10673
1.10486
1.10356
1.10255
1.10156
1.1009
1.10221
1.10357
1.10523
1.1064
1.10872
1.10881
1.10672
1.10621
1.10696
1.10912
1.11127
1.11268
1.11452
1.11586
1.11875
1.11991
1.12153
1.12301
1.12305
1.12638
1.12427
1.12543
1.13109
1.13907
1.14261
1.14022
1.13962
1.14506
1.15156
1.15324
1.15459
1.1544
1.15673
1.15443
1.15608
1.15457
1.15282
1.15551
1.151
1.15816
1.15988
1.16185
1.16576
1.16214
1.16664
1.16435
1.16056
1.16953
1.1667
1.16074
1.16665
1.16859
1.16146
1.16197
1.17537
1.17574
1.17002
1.16806
1.18007
1.18929
1.16584
1.15052
1.15654
1.17469
1.19282
1.20915
1.21602
1.21902
1.21768
1.21921
1.23485
1.23124
1.21628
1.21716
1.21897
1.23703
1.2592
1.24327
1.2238
1.22959
1.22033
1.20614
1.19613
1.21822
1.21306
1.18285
1.1471
1.15973
1.19219
1.1764
1.16494
1.18434
1.19391
1.19902
1.1755
1.16757
1.15467
1.17292
1.17329
1.16623
1.16298
1.17463
1.20222
1.19098
1.19219
1.19414
1.18387
1.18621
1.22185
1.17943
1.19406
1.20488
1.17744
1.19696
1.19223
1.21187
1.17112
1.20629
1.22141
1.23097
1.2181
1.21328
1.25636
1.27673
1.31516
1.25345
1.29611
1.3259
1.40719
1.5841
1.44041
1.50373
1.62409
1.45345
1.30599
1.33578
1.28712
1.23312
1.35467
1.37851
1.41894
1.28898
1.48097
1.57023
1.45915
1.43036
1.45964
1.45067
1.35926
1.33518
1.09489
1.10683
1.12629
1.13929
1.13038
1.12249
1.12378
1.12628
1.11762
1.10408
1.10461
1.10327
1.09999
1.09731
1.09797
1.09854
1.09745
1.10101
1.10241
1.09857
1.10076
1.1003
1.09942
1.09972
1.10047
1.10211
1.10461
1.10721
1.10924
1.10983
1.11033
1.11005
1.10991
1.11048
1.11035
1.10797
1.10662
1.10573
1.10456
1.10625
1.11015
1.11169
1.11289
1.11265
1.1123
1.11395
1.11319
1.11615
1.11673
1.12129
1.12194
1.11869
1.11925
1.12715
1.13555
1.14062
1.14166
1.14309
1.14995
1.15482
1.15873
1.15467
1.1543
1.15401
1.15221
1.16033
1.1598
1.16141
1.16134
1.15749
1.15956
1.15755
1.16428
1.16263
1.16264
1.16502
1.15823
1.16036
1.16342
1.16051
1.16728
1.17139
1.1657
1.16139
1.18003
1.17532
1.17301
1.16395
1.18144
1.19204
1.16703
1.14987
1.15677
1.17689
1.20006
1.21355
1.22362
1.22534
1.22517
1.22378
1.23212
1.22115
1.20977
1.21809
1.22019
1.24178
1.25346
1.2226
1.21276
1.2104
1.20042
1.19632
1.19348
1.21143
1.19898
1.1809
1.15387
1.17906
1.18681
1.16235
1.1601
1.18567
1.19503
1.19333
1.16561
1.17154
1.14027
1.15217
1.15799
1.18401
1.2117
1.20474
1.19152
1.19372
1.20168
1.1784
1.17981
1.19907
1.20816
1.1666
1.19581
1.20075
1.16983
1.19552
1.17914
1.19736
1.17476
1.21658
1.22595
1.22838
1.21289
1.21888
1.26263
1.27138
1.31974
1.20945
1.31836
1.24041
1.41159
1.50719
1.4151
1.51762
1.54321
1.40968
1.30558
1.30975
1.27521
1.26707
1.39729
1.42366
1.44587
1.2969
1.49201
1.58174
1.4702
1.44454
1.45626
1.45026
1.4001
1.43706
1.09595
1.10674
1.1268
1.14406
1.13454
1.12059
1.11755
1.11711
1.11715
1.10666
1.10207
1.10099
1.0993
1.09646
1.0959
1.09653
1.09766
1.10196
1.11036
1.11039
1.11075
1.11025
1.10667
1.10306
1.0989
1.09684
1.09702
1.09859
1.10063
1.10337
1.10599
1.10734
1.10854
1.10964
1.10891
1.10986
1.1096
1.10756
1.10766
1.11039
1.11502
1.11771
1.11672
1.11702
1.11041
1.11009
1.11275
1.11915
1.1202
1.12323
1.12805
1.12542
1.12026
1.12445
1.13289
1.13574
1.1389
1.14261
1.15098
1.15329
1.15618
1.15806
1.15502
1.15554
1.14974
1.14732
1.15163
1.15177
1.15911
1.15708
1.1608
1.15663
1.15763
1.15969
1.15658
1.16115
1.15952
1.15858
1.16341
1.15961
1.15886
1.16621
1.166
1.15875
1.17396
1.17109
1.17504
1.1632
1.17989
1.1857
1.16538
1.14958
1.15922
1.17739
1.19879
1.20926
1.22408
1.22628
1.23055
1.22597
1.22665
1.21194
1.20513
1.22133
1.22989
1.24777
1.2477
1.21266
1.20644
1.19617
1.18647
1.18597
1.18787
1.20409
1.19577
1.19855
1.16863
1.17748
1.18072
1.16301
1.16513
1.18823
1.19431
1.18476
1.15517
1.1624
1.13716
1.17058
1.1576
1.15781
1.17662
1.18623
1.19364
1.20949
1.21449
1.18672
1.18981
1.18868
1.18239
1.17647
1.21198
1.19338
1.17215
1.20056
1.18012
1.20224
1.18606
1.23432
1.2305
1.21596
1.20701
1.23949
1.2612
1.27941
1.2994
1.17861
1.32158
1.2086
1.41905
1.42481
1.4465
1.48127
1.45949
1.38959
1.28896
1.26392
1.27149
1.28736
1.39926
1.41861
1.43523
1.32248
1.49929
1.59583
1.49085
1.45901
1.45676
1.46306
1.46482
1.5228
1.09733
1.10437
1.11593
1.13369
1.14094
1.13097
1.12219
1.11573
1.11472
1.11172
1.10596
1.10564
1.10488
1.10252
1.10013
1.09751
1.09468
1.09267
1.09885
1.10352
1.10712
1.11156
1.11292
1.11244
1.11051
1.10824
1.10602
1.1051
1.1053
1.10627
1.10731
1.10844
1.10927
1.11023
1.11021
1.10916
1.10854
1.10814
1.10737
1.10895
1.10896
1.11158
1.10912
1.11655
1.11743
1.11248
1.10891
1.11164
1.11682
1.12642
1.13696
1.13679
1.12872
1.12445
1.13254
1.14021
1.14353
1.14194
1.14835
1.15556
1.16153
1.15926
1.15727
1.15261
1.15565
1.15457
1.15527
1.15173
1.15414
1.15404
1.15374
1.15761
1.15584
1.16151
1.15926
1.15927
1.16002
1.15466
1.15936
1.16081
1.15556
1.16321
1.16814
1.15771
1.16509
1.17012
1.17119
1.15987
1.17197
1.18213
1.1688
1.14761