/*--------------------------------*- C++ -*----------------------------------*\
| =========                 |                                                 |
| \\      /  F ield         | OpenFOAM: The Open Source CFD Toolbox           |
|  \\    /   O peration     | Version:  dev                                   |
|   \\  /    A nd           | Web:      http://www.openfoam.org               |
|    \\/     M anipulation  |                                                 |
\*---------------------------------------------------------------------------*/
FoamFile
{
    version     2.0;
    format      ascii;
    class       volScalarField;
    object      rho_0;
    location    "9.159";
}
// * * * * * * * * * * * * * * * * * * * * * * * * * * * * * * * * * * * * * //

dimensions      [1 -3 0 0 0 0 0];

internalField   nonuniform List<scalar> 
12225
(
1.14507
1.14557
1.14535
1.14426
1.14342
1.14184
1.1408
1.13888
1.13769
1.13549
1.13403
1.13151
1.12979
1.12684
1.12541
1.11991
1.12407
1.11915
1.14483
1.1472
1.14773
1.14636
1.14565
1.14368
1.1428
1.14032
1.13953
1.13651
1.13581
1.13208
1.13166
1.12709
1.12741
1.12244
1.12846
1.12663
1.1452
1.14767
1.14856
1.14696
1.1468
1.14418
1.14414
1.1405
1.14092
1.13638
1.13685
1.13223
1.13185
1.12913
1.12838
1.13053
1.12751
1.12902
1.14576
1.14743
1.14922
1.14652
1.14779
1.14375
1.14517
1.13998
1.1418
1.13595
1.13739
1.13193
1.13249
1.12766
1.12606
1.12277
1.12649
1.13179
1.14636
1.14724
1.14982
1.1461
1.14797
1.14347
1.1453
1.13966
1.14195
1.13596
1.13752
1.13231
1.13254
1.12818
1.12482
1.11833
1.12219
1.13384
1.14638
1.14813
1.14973
1.14693
1.14769
1.14455
1.14511
1.14086
1.14217
1.13689
1.13833
1.13296
1.13418
1.12878
1.13062
1.12308
1.1243
1.12791
1.14604
1.14866
1.14933
1.14825
1.14736
1.14572
1.1448
1.14263
1.14179
1.13862
1.13819
1.13506
1.13417
1.1311
1.13175
1.1282
1.12814
1.12408
1.14641
1.14896
1.14977
1.14868
1.14781
1.14601
1.14528
1.14299
1.14203
1.13914
1.13825
1.13571
1.1339
1.13168
1.13045
1.12822
1.12726
1.12376
1.14673
1.14946
1.14992
1.14919
1.14804
1.14666
1.14554
1.14365
1.14245
1.14001
1.13858
1.13628
1.13445
1.13225
1.13022
1.12832
1.12635
1.12451
1.14711
1.14999
1.15036
1.14981
1.14832
1.14731
1.14617
1.1442
1.14293
1.14066
1.13915
1.13658
1.13526
1.13281
1.13057
1.12889
1.12663
1.12548
1.14799
1.1509
1.15105
1.15052
1.14889
1.14824
1.14633
1.14506
1.14351
1.14144
1.13967
1.13734
1.13616
1.13372
1.1317
1.12988
1.12812
1.12645
1.14901
1.15154
1.15194
1.15133
1.14983
1.14908
1.14737
1.14622
1.14403
1.14262
1.1407
1.13836
1.13721
1.13493
1.13312
1.1309
1.12963
1.12781
1.15022
1.15256
1.1531
1.15213
1.15109
1.15004
1.14848
1.14725
1.14535
1.14406
1.1418
1.14005
1.13841
1.13653
1.13488
1.13255
1.13142
1.12928
1.1518
1.15427
1.15475
1.15372
1.15288
1.15146
1.15029
1.14885
1.14719
1.14581
1.14373
1.14199
1.14008
1.13854
1.13643
1.13451
1.13322
1.13134
1.15347
1.15609
1.15656
1.15574
1.15492
1.1535
1.15235
1.15073
1.14931
1.14765
1.14594
1.14424
1.14231
1.14083
1.13891
1.13733
1.13549
1.134
1.1562
1.15854
1.15884
1.15822
1.15737
1.15623
1.15504
1.15351
1.15205
1.15027
1.14869
1.14684
1.14517
1.14347
1.14174
1.14029
1.13854
1.13719
1.15946
1.16163
1.16199
1.1614
1.16051
1.15945
1.15814
1.15671
1.1551
1.15353
1.15189
1.15019
1.14858
1.14679
1.1453
1.14363
1.1421
1.14056
1.16341
1.16531
1.16571
1.16509
1.16413
1.16296
1.16173
1.16029
1.15881
1.15733
1.15545
1.15402
1.15221
1.1507
1.14903
1.14745
1.14608
1.14448
1.16671
1.16872
1.16917
1.16831
1.16729
1.16626
1.16507
1.16359
1.16226
1.1606
1.1591
1.15757
1.15584
1.15446
1.15268
1.1514
1.14966
1.14825
1.16978
1.17127
1.17186
1.17107
1.17025
1.16921
1.1678
1.16651
1.16499
1.16344
1.16202
1.16036
1.15897
1.15726
1.15576
1.15417
1.1526
1.15117
1.17208
1.17334
1.17414
1.1734
1.17263
1.17158
1.17023
1.1688
1.16715
1.16573
1.16409
1.16269
1.16122
1.1597
1.15831
1.15677
1.15532
1.15386
1.1739
1.17536
1.176
1.17528
1.17422
1.17316
1.17189
1.17045
1.16908
1.16748
1.16606
1.16455
1.16305
1.16165
1.16009
1.15872
1.15723
1.15586
1.17509
1.17704
1.1774
1.17659
1.17554
1.17446
1.17318
1.17191
1.1706
1.16912
1.16777
1.16617
1.16476
1.16318
1.16168
1.16021
1.15874
1.15736
1.1763
1.1779
1.17821
1.17754
1.17669
1.1755
1.17442
1.17305
1.17165
1.17027
1.16869
1.16725
1.16568
1.16416
1.16271
1.16121
1.15986
1.15845
1.17703
1.17853
1.17907
1.17826
1.17727
1.17633
1.17514
1.17389
1.17249
1.17095
1.16945
1.16787
1.16638
1.16491
1.16347
1.16208
1.1607
1.15939
1.17789
1.17922
1.17952
1.17865
1.17775
1.17668
1.17558
1.17433
1.173
1.17158
1.17007
1.16855
1.167
1.16549
1.16401
1.16257
1.16119
1.15986
1.17827
1.17965
1.17999
1.17918
1.17826
1.17723
1.17604
1.17474
1.17333
1.17186
1.17035
1.16881
1.16729
1.16578
1.16431
1.16289
1.16153
1.16022
1.1784
1.17982
1.1803
1.17945
1.17847
1.17739
1.1762
1.17486
1.17343
1.17193
1.1704
1.16888
1.1674
1.16594
1.16455
1.1632
1.16191
1.16067
1.17852
1.17968
1.1801
1.17927
1.17827
1.17716
1.17591
1.17454
1.1731
1.17162
1.17015
1.16871
1.1673
1.16591
1.16455
1.16321
1.16189
1.1606
1.1793
1.17899
1.17885
1.17793
1.17695
1.17586
1.17466
1.17338
1.17206
1.1707
1.16934
1.16797
1.16661
1.16525
1.16391
1.16258
1.16129
1.16009
1.08998
1.11049
1.12138
1.1272
1.13002
1.13119
1.13145
1.13118
1.13047
1.12944
1.12834
1.12714
1.1259
1.12455
1.1232
1.12154
1.1195
1.11843
1.11764
1.1171
1.11675
1.11563
1.11353
1.1111
1.10953
1.10933
1.10891
1.10754
1.10557
1.10341
1.10299
1.10333
1.09961
1.09144
1.08516
1.08515
1.08908
1.09327
1.09655
1.09895
1.10114
1.10335
1.10555
1.10769
1.10978
1.11185
1.11391
1.11596
1.118
1.12005
1.1221
1.12413
1.12619
1.12824
1.13026
1.13224
1.13419
1.13611
1.13801
1.13989
1.1418
1.14374
1.14566
1.14754
1.14935
1.15111
1.15288
1.15471
1.15646
1.15809
1.15982
1.16161
1.16363
1.16564
1.16773
1.16994
1.17224
1.17463
1.17711
1.17977
1.1825
1.18491
1.18664
1.18778
1.18841
1.18916
1.19036
1.19178
1.19333
1.19493
1.19686
1.19858
1.20062
1.20291
1.20485
1.20689
1.20821
1.21038
1.21262
1.21374
1.21455
1.21808
1.22473
1.23324
1.2412
1.245
1.24171
1.23461
1.22345
1.20829
1.2003
1.19603
1.19165
1.19981
1.20179
1.20248
1.21148
1.21227
1.20716
1.20357
1.1998
1.19333
1.18962
1.20389
1.22718
1.21987
1.20325
1.21808
1.23141
1.22787
1.2295
1.23054
1.22472
1.21967
1.21617
1.21579
1.21475
1.21235
1.20521
1.19844
1.19531
1.1963
1.19901
1.2034
1.20833
1.2122
1.21581
1.22203
1.22879
1.23628
1.24331
1.24798
1.24786
1.24571
1.24882
1.25328
1.25085
1.26769
1.27218
1.24444
1.24443
1.23918
1.2049
1.20018
1.21367
1.24477
1.27234
1.23118
1.24608
1.25588
1.25307
1.26585
1.25542
1.24
1.23212
1.21387
1.20881
1.21228
1.28317
1.29229
1.0903
1.11457
1.12885
1.13742
1.14261
1.14558
1.14734
1.14863
1.14953
1.14993
1.15006
1.15032
1.15057
1.15029
1.15014
1.14989
1.14945
1.15041
1.14961
1.14848
1.14861
1.14726
1.14464
1.13817
1.13657
1.14046
1.13758
1.12993
1.1148
1.09828
1.09389
1.09735
1.10117
1.10267
1.10322
1.10366
1.10519
1.10693
1.10813
1.10936
1.11045
1.11196
1.1133
1.11474
1.11613
1.11743
1.11884
1.12019
1.12164
1.12321
1.12477
1.12643
1.12819
1.12989
1.13146
1.13293
1.13433
1.1357
1.1372
1.1387
1.14034
1.14202
1.14361
1.14506
1.14637
1.14758
1.14893
1.15042
1.15168
1.15267
1.15385
1.15512
1.15699
1.15865
1.16044
1.16256
1.16477
1.16741
1.17027
1.1742
1.18056
1.18779
1.19247
1.19346
1.18977
1.18706
1.19021
1.19614
1.20358
1.20886
1.21343
1.21528
1.21713
1.22323
1.22444
1.22674
1.22801
1.23082
1.23533
1.24467
1.25354
1.2488
1.24427
1.25196
1.2728
1.28943
1.28824
1.27691
1.25509
1.23681
1.22986
1.22855
1.22842
1.23125
1.23903
1.24498
1.23625
1.22069
1.21647
1.22377
1.22632
1.22644
1.23937
1.25664
1.25756
1.23731
1.26725
1.26351
1.24239
1.28424
1.28568
1.29011
1.27584
1.25143
1.23595
1.22811
1.23032
1.24008
1.2524
1.26128
1.26339
1.26073
1.25126
1.24613
1.25469
1.26499
1.26841
1.27778
1.29422
1.31467
1.33609
1.35931
1.37201
1.37258
1.38263
1.39223
1.38963
1.42957
1.45983
1.38214
1.3543
1.30846
1.23956
1.25296
1.31907
1.35643
1.30519
1.23998
1.35381
1.35595
1.38839
1.43808
1.37074
1.2807
1.2787
1.25911
1.30148
1.25278
1.308
1.46713
1.08567
1.10337
1.11308
1.11957
1.1252
1.12952
1.1328
1.13584
1.13892
1.14193
1.14337
1.14554
1.14854
1.15006
1.14946
1.15076
1.15603
1.15978
1.15939
1.15473
1.1534
1.14989
1.14507
1.14027
1.13119
1.12048
1.11263
1.10864
1.1064
1.10438
1.10297
1.1009
1.09797
1.09556
1.09435
1.09453
1.09508
1.09581
1.09668
1.09769
1.09889
1.10012
1.10151
1.10294
1.10425
1.10608
1.10789
1.10981
1.11162
1.11342
1.11546
1.1174
1.11932
1.12148
1.12364
1.12591
1.12817
1.13052
1.13293
1.13513
1.13727
1.13963
1.14218
1.14434
1.14648
1.14851
1.15059
1.15202
1.15339
1.15476
1.15556
1.15622
1.15728
1.15807
1.15831
1.15863
1.15871
1.15935
1.16
1.1609
1.16488
1.17299
1.17986
1.18219
1.17443
1.16358
1.16177
1.17061
1.18871
1.20019
1.19861
1.2023
1.21376
1.22086
1.2126
1.20963
1.21352
1.22203
1.22628
1.22977
1.2493
1.26044
1.25569
1.25199
1.25228
1.25451
1.25078
1.24194
1.24134
1.24398
1.24104
1.23917
1.24155
1.24204
1.23965
1.22588
1.2105
1.21165
1.23502
1.24833
1.24443
1.24152
1.2351
1.23663
1.21643
1.22752
1.29303
1.22393
1.12587
1.19968
1.24918
1.26031
1.26765
1.2396
1.21107
1.18299
1.17192
1.17518
1.1995
1.2326
1.26296
1.28034
1.28379
1.27929
1.27397
1.27447
1.28663
1.30279
1.30889
1.31446
1.32867
1.35865
1.39751
1.43002
1.45072
1.4562
1.46767
1.48173
1.48743
1.42519
1.37405
1.32046
1.25799
1.25691
1.31592
1.35628
1.32827
1.31842
1.31077
1.3116
1.38526
1.46463
1.37302
1.265
1.20607
1.17417
1.26033
1.27429
1.2622
1.38257
1.0825
1.0961
1.10309
1.10823
1.11348
1.11828
1.12216
1.12595
1.12942
1.13321
1.13601
1.14112
1.14587
1.14672
1.15026
1.15856
1.1595
1.15193
1.14447
1.13426
1.12696
1.11845
1.11271
1.11247
1.11098
1.10819
1.10524
1.10103
1.09656
1.09271
1.08879
1.08603
1.08487
1.08639
1.08859
1.09189
1.09508
1.09805
1.10154
1.10413
1.10687
1.10883
1.1106
1.11233
1.11454
1.11668
1.11865
1.12131
1.12309
1.12524
1.12728
1.12907
1.13123
1.13311
1.1351
1.13766
1.13958
1.14177
1.1442
1.14651
1.14877
1.15107
1.1538
1.15627
1.15871
1.16114
1.16366
1.1657
1.16758
1.16907
1.1702
1.17059
1.1711
1.17147
1.17064
1.16893
1.16693
1.16654
1.16614
1.16582
1.16463
1.16822
1.17371
1.18056
1.18312
1.17517
1.1648
1.1671
1.18413
1.19116
1.17725
1.17066
1.1834
1.19609
1.185
1.174
1.17881
1.185
1.18604
1.19968
1.2297
1.24211
1.25033
1.25963
1.24643
1.24753
1.25875
1.249
1.24322
1.23885
1.23008
1.22016
1.20548
1.19367
1.2077
1.2186
1.21171
1.22335
1.22358
1.21463
1.23611
1.26366
1.24189
1.22206
1.20984
1.21967
1.20602
1.16576
1.12783
1.11742
1.16914
1.17925
1.20809
1.20901
1.20711
1.18911
1.17113
1.15154
1.15966
1.1892
1.22979
1.26886
1.28743
1.28137
1.27764
1.28596
1.29551
1.30347
1.30788
1.30971
1.30959
1.31345
1.3516
1.42903
1.4812
1.49045
1.49815
1.45293
1.429
1.45086
1.39423
1.33769
1.35231
1.3369
1.3622
1.49028
1.47441
1.3908
1.29344
1.31016
1.39698
1.43502
1.30059
1.22972
1.18395
1.15112
1.18566
1.25889
1.25756
1.29235
1.08048
1.09188
1.09885
1.10562
1.11169
1.11759
1.12207
1.12596
1.12818
1.12845
1.13183
1.1395
1.14791
1.1519
1.14816
1.14149
1.13593
1.12654
1.11379
1.10496
1.10224
1.09989
1.10087
1.10085
1.0986
1.09424
1.08946
1.08675
1.08475
1.08449
1.08495
1.08817
1.09243
1.09728
1.10143
1.10433
1.10669
1.10818
1.10926
1.1099
1.11041
1.11097
1.11232
1.11341
1.11508
1.11702
1.1188
1.12052
1.12254
1.12447
1.1265
1.12853
1.13045
1.13241
1.13411
1.13591
1.1373
1.13871
1.14002
1.14143
1.14324
1.14492
1.14699
1.14902
1.15138
1.1534
1.15523
1.15781
1.16084
1.163
1.16516
1.16681
1.16874
1.17136
1.17338
1.17279
1.17105
1.16969
1.16824
1.16767
1.16765
1.16756
1.16796
1.16748
1.17116
1.17707
1.17701
1.17916
1.18342
1.17925
1.16654
1.15755
1.15854
1.15833
1.15816
1.15785
1.16679
1.17575
1.16669
1.17051
1.19603
1.19791
1.2121
1.24436
1.24042
1.23925
1.25154
1.24652
1.23771
1.22755
1.21821
1.20811
1.18491
1.18259
1.21846
1.2193
1.18874
1.18806
1.17729
1.18351
1.21474
1.24209
1.26776
1.20648
1.22138
1.22944
1.17715
1.17914
1.21138
1.18897
1.16386
1.15211
1.15753
1.15203
1.16285
1.17054
1.17852
1.16103
1.15343
1.16476
1.19933
1.23791
1.27533
1.28585
1.28181
1.28316
1.29162
1.30714
1.32384
1.32795
1.32653
1.30382
1.29381
1.38056
1.47821
1.50813
1.5075
1.43578
1.41128
1.49551
1.44018
1.33709
1.30709
1.31597
1.29147
1.48966
1.51724
1.40273
1.33471
1.28726
1.42573
1.42237
1.30208
1.2118
1.17473
1.19515
1.19189
1.23634
1.25867
1.25439
1.0793
1.08897
1.09577
1.10491
1.11311
1.12013
1.12693
1.13173
1.13202
1.12993
1.13312
1.14176
1.14378
1.14186
1.13647
1.12756
1.11801
1.10259
1.09305
1.0906
1.09183
1.09329
1.09129
1.08807
1.08576
1.08438
1.08376
1.08471
1.08654
1.09022
1.09459
1.099
1.10232
1.10364
1.10376
1.10264
1.1015
1.10143
1.10119
1.10185
1.10368
1.10565
1.10849
1.11148
1.11465
1.11759
1.12076
1.12345
1.12633
1.12921
1.13178
1.13396
1.13652
1.13874
1.1402
1.14171
1.14316
1.14429
1.14598
1.14732
1.14826
1.14926
1.15035
1.15129
1.1525
1.15416
1.15554
1.1573
1.15958
1.16195
1.16373
1.16492
1.16571
1.16814
1.17242
1.17585
1.17848
1.17928
1.18334
1.18332
1.18137
1.17863
1.1764
1.17225
1.16772
1.17088
1.17629
1.1755
1.17137
1.16357
1.15935
1.15817
1.15651
1.1497
1.15134
1.15802
1.15789
1.17154
1.18641
1.19488
1.19656
1.17749
1.18262
1.21831
1.22204
1.22909
1.24692
1.24551
1.23898
1.22202
1.2157
1.20979
1.17887
1.18563
1.22569
1.20606
1.18738
1.19306
1.18865
1.18828
1.18652
1.19732
1.25016
1.22618
1.25927
1.24596
1.1338
1.18964
1.19004
1.20489
1.1803
1.18093
1.2047
1.20073
1.18186
1.16746
1.19214
1.19098
1.18735
1.17457
1.19054
1.20481
1.22648
1.25861
1.267
1.2642
1.26296
1.29468
1.36333
1.37967
1.35265
1.31625
1.26819
1.32406
1.45308
1.51912
1.5124
1.4311
1.40519
1.59874
1.4976
1.36692
1.33899
1.41156
1.25015
1.36266
1.45932
1.51299
1.39679
1.24695
1.31342
1.32217
1.26868
1.20199
1.15832
1.21199
1.26299
1.2675
1.2759
1.24406
1.07842
1.08643
1.09472
1.10759
1.11911
1.1254
1.13142
1.13696
1.13546
1.13182
1.13642
1.13869
1.13548
1.12512
1.11074
1.10178
1.09749
1.08986
1.08894
1.08921
1.08529
1.08618
1.08591
1.08626
1.08635
1.08477
1.08572
1.08846
1.09308
1.09745
1.09995
1.10072
1.10104
1.09946
1.09792
1.09793
1.09903
1.10168
1.10488
1.10925
1.11334
1.11744
1.12154
1.12494
1.12787
1.13029
1.13238
1.13375
1.13544
1.1373
1.13881
1.14085
1.14315
1.14555
1.14814
1.15012
1.15226
1.15392
1.15589
1.15812
1.1594
1.15974
1.15953
1.15895
1.1578
1.15772
1.1581
1.15939
1.16145
1.16461
1.16715
1.16854
1.1679
1.1662
1.16535
1.16778
1.16843
1.16549
1.16742
1.17446
1.18039
1.18089
1.17791
1.17385
1.17022
1.17098
1.17512
1.17472
1.17118
1.1713
1.17124
1.16387
1.1525
1.14305
1.14759
1.1633
1.15837
1.15097
1.16623
1.18939
1.20462
1.19814
1.19735
1.21346
1.20914
1.21716
1.2364
1.24009
1.24132
1.23431
1.22726
1.21466
1.17484
1.19018
1.22585
1.19149
1.19316
1.1886
1.17545
1.171
1.17053
1.18709
1.21659
1.26239
1.22727
1.25139
1.17267
1.13125
1.17253
1.18068
1.1686
1.12103
1.16044
1.21828
1.22156
1.17454
1.18431
1.18834
1.19286
1.18558
1.19745
1.213
1.19241
1.19729
1.20137
1.19652
1.1962
1.21294
1.32302
1.39435
1.3719
1.33184
1.26478
1.26661
1.39814
1.51411
1.5196
1.44167
1.39075
1.62281
1.49843
1.44258
1.3321
1.38089
1.30323
1.38742
1.47022
1.52761
1.46287
1.30337
1.25389
1.27246
1.26345
1.22112
1.18369
1.23526
1.32443
1.33385
1.32076
1.26103
1.07837
1.08707
1.10074
1.11799
1.13161
1.13617
1.1399
1.1409
1.13648
1.13251
1.13279
1.13259
1.12808
1.11324
1.10261
1.09394
1.08605
1.08218
1.07965
1.08083
1.07967
1.08136
1.08156
1.08123
1.08308
1.08655
1.09168
1.09638
1.09867
1.09827
1.09889
1.09822
1.09762
1.09773
1.09844
1.10165
1.10525
1.10947
1.11269
1.11601
1.11842
1.11972
1.12074
1.12132
1.12112
1.1209
1.12095
1.12116
1.12155
1.12278
1.12417
1.12664
1.12956
1.13263
1.13636
1.13922
1.14179
1.1434
1.1447
1.14707
1.14991
1.15176
1.1522
1.15161
1.14974
1.14848
1.14848
1.14953
1.15171
1.15858
1.16421
1.16923
1.17318
1.17367
1.17039
1.17148
1.17395
1.17275
1.1636
1.16499
1.175
1.18301
1.18069
1.17371
1.16552
1.16592
1.17496
1.18379
1.18302
1.18119
1.17906
1.17018
1.1585
1.14355
1.14222
1.15948
1.17064
1.16823
1.17131
1.17724
1.19193
1.20203
1.20263
1.20635
1.20166
1.21188
1.22886
1.23465
1.24129
1.24138
1.23662
1.20969
1.16818
1.19315
1.21822
1.18442
1.18681
1.16824
1.16183
1.16124
1.16119
1.16773
1.18573
1.2191
1.11781
1.16439
1.24735
1.15781
1.18303
1.1956
1.23139
1.16389
1.14584
1.17266
1.19037
1.14695
1.15225
1.18381
1.19283
1.18514
1.17968
1.20985
1.20411
1.19053
1.18618
1.16957
1.17562
1.16191
1.23774
1.33077
1.34462
1.3405
1.29963
1.2479
1.32805
1.48491
1.52974
1.46425
1.40614
1.48753
1.51387
1.46834
1.33557
1.33541
1.3306
1.41572
1.49269
1.61062
1.45858
1.29263
1.24752
1.22003
1.23541
1.2189
1.1937
1.27903
1.3767
1.3905
1.38007
1.29756
1.07934
1.09086
1.11009
1.12727
1.13634
1.13869
1.14105
1.14311
1.13827
1.13164
1.13095
1.13482
1.123
1.09842
1.09154
1.08673
1.07806
1.08134
1.08066
1.08206
1.08402
1.08597
1.08819
1.09243
1.09541
1.0975
1.09806
1.09594
1.09559
1.09535
1.09622
1.09729
1.09811
1.10035
1.10314
1.10695
1.10937
1.11177
1.11333
1.11386
1.1147
1.11532
1.11573
1.11665
1.11762
1.11857
1.11978
1.12168
1.1234
1.12626
1.12881
1.13118
1.13414
1.13647
1.14024
1.14355
1.14714
1.14926
1.14908
1.14724
1.14723
1.1491
1.15039
1.15046
1.14951
1.14717
1.14573
1.14416
1.1421
1.14563
1.1519
1.157
1.16434
1.17178
1.17235
1.16742
1.16833
1.17583
1.16997
1.16474
1.16693
1.18034
1.18245
1.18222
1.17266
1.16561
1.16827
1.17853
1.18349
1.18133
1.17262
1.15909
1.1489
1.1461
1.15717
1.17409
1.1811
1.18556
1.1924
1.19407
1.20139
1.21371
1.20838
1.20246
1.20346
1.21134
1.22182
1.23249
1.23999
1.24814
1.24456
1.20921
1.17447
1.19835
1.21297
1.18789
1.1809
1.16872
1.16914
1.16269
1.15784
1.16619
1.17459
1.1707
1.19345
1.17874
1.16661
1.16733
1.18123
1.14092
1.13871
1.12623
1.13595
1.16443
1.21255
1.19442
1.15973
1.17991
1.19689
1.19023
1.15866
1.18207
1.20941
1.19986
1.20082
1.18376
1.1986
1.16726
1.1686
1.2482
1.3006
1.32436
1.31219
1.26331
1.27874
1.43736
1.5356
1.48938
1.45009
1.37043
1.56137
1.6248
1.33574
1.46404
1.34416
1.5524
1.50396
1.53748
1.38449
1.24923
1.22051
1.17976
1.24202
1.27131
1.22703
1.30467
1.404
1.3977
1.41171
1.31814
1.0813
1.09659
1.11925
1.132
1.1326
1.13427
1.13608
1.13881
1.13788
1.13402
1.13739
1.13443
1.11172
1.09039
1.09117
1.08726
1.07731
1.08142
1.0823
1.08215
1.08477
1.08589
1.08791
1.08983
1.09145
1.09276
1.09542
1.0973
1.0987
1.09933
1.09947
1.10027
1.10158
1.10402
1.10607
1.10814
1.10942
1.10977
1.11089
1.11185
1.11321
1.11522
1.11716
1.11943
1.12194
1.12403
1.12515
1.12635
1.12713
1.12929
1.13193
1.13343
1.13606
1.13721
1.13947
1.14137
1.14461
1.14966
1.15581
1.15657
1.15396
1.15233
1.15388
1.15582
1.15844
1.159
1.15922
1.1574
1.15484
1.14917
1.14908
1.14962
1.14989
1.15691
1.1679
1.16803
1.16296
1.16671
1.16937
1.16571
1.16004
1.16987
1.16974
1.17486
1.17078
1.16979
1.17202
1.17758
1.17861
1.16901
1.15634
1.14367
1.14025
1.14565
1.15815
1.17227
1.17635
1.18661
1.19763
1.20044
1.20535
1.21867
1.20909
1.20262
1.20913
1.20975
1.21809
1.23452
1.24242
1.25617
1.25558
1.21262
1.17648
1.19711
1.20947
1.18448
1.1672
1.16534
1.16051
1.14724
1.14275
1.15897
1.17719
1.17778
1.19786
1.19945
1.15591
1.12605
1.13928
1.15301
1.16924
1.17045
1.16128
1.16761
1.16734
1.16284
1.14747
1.16913
1.1987
1.21056
1.17057
1.14847
1.19389
1.20121
1.20694
1.19269
1.21506
1.20138
1.14197
1.17228
1.24022
1.29807
1.3032
1.28285
1.25189
1.37277
1.51544
1.51793
1.47854
1.43189
1.54892
1.67278
1.51789
1.59775
1.36199
1.37003
1.33746
1.43498
1.32669
1.2332
1.19663
1.17089
1.25571
1.30696
1.26188
1.32326
1.41901
1.37976
1.4073
1.31897
1.08324
1.10044
1.12291
1.13149
1.12916
1.13386
1.13943
1.1425
1.14567
1.14289
1.13955
1.1245
1.09309
1.07999
1.08521
1.08423
1.07992
1.0842
1.0838
1.08393
1.08881
1.09091
1.09384
1.09592
1.09763
1.09906
1.09842
1.09637
1.09407
1.09322
1.09485
1.09773
1.10134
1.10395
1.10547
1.10679
1.10797
1.10882
1.11059
1.11248
1.11456
1.11701
1.11906
1.1208
1.12218
1.12351
1.12365
1.12305
1.12198
1.1225
1.12509
1.12687
1.13096
1.1343
1.13796
1.1406
1.1404
1.13972
1.14357
1.15039
1.15363
1.15119
1.14829
1.14814
1.14956
1.1525
1.15609
1.15684
1.16068
1.15931
1.15606
1.15542
1.15277
1.14724
1.1504
1.15939
1.16154
1.16083
1.16855
1.17033
1.16249
1.16763
1.16883
1.17604
1.16735
1.1635
1.16751
1.17621
1.17925
1.17077
1.1593
1.14536
1.14197
1.14803
1.15946
1.17415
1.17682
1.18915
1.20339
1.2098
1.21422
1.22145
1.20912
1.20393
1.21114
1.20764
1.21737
1.23513
1.24432
1.25464
1.2529
1.20812
1.17152
1.19387
1.20412
1.17506
1.16008
1.16093
1.15607
1.14628
1.14785
1.15941
1.17135
1.18694
1.15702
1.13568
1.16037
1.18204
1.17184
1.149
1.1453
1.15807
1.16702
1.18108
1.19175
1.1898
1.15972
1.15151
1.16716
1.19618
1.20283
1.14823
1.17731
1.20448
1.21502
1.19014
1.1939
1.22672
1.18258
1.1727
1.20926
1.2753
1.29125
1.3013
1.25111
1.31094
1.47142
1.53191
1.50766
1.48715
1.56092
1.46411
1.66378
1.67304
1.48227
1.35343
1.3383
1.40676
1.30847
1.24285
1.21131
1.19093
1.29156
1.35801
1.28871
1.33314
1.44135
1.38983
1.40129
1.29368
1.08491
1.10274
1.12552
1.1327
1.12763
1.13258
1.14096
1.142
1.14038
1.13963
1.1323
1.1169
1.09239
1.08333
1.08479
1.08102
1.07885
1.0862
1.08738
1.09001
1.09311
1.09269
1.09356
1.09409
1.09347
1.09376
1.09523
1.09733
1.10107
1.10334
1.10561
1.10709
1.10744
1.10766
1.10809
1.10741
1.10796
1.10917
1.11132
1.11404
1.11673
1.11912
1.11998
1.11987
1.11928
1.11933
1.11957
1.12107
1.12262
1.12348
1.127
1.12915
1.13179
1.13499
1.13862
1.14607
1.15101
1.15082
1.14512
1.14399
1.14788
1.15249
1.15097
1.14955
1.14678
1.14553
1.14657
1.14752
1.14823
1.1518
1.15624
1.15463
1.15954
1.16029
1.15216
1.15102
1.1552
1.15267
1.15726
1.16376
1.15993
1.16212
1.16301
1.17621
1.17057
1.16608
1.16383
1.16878
1.17467
1.1761
1.16688
1.15236
1.14273
1.14683
1.15834
1.17772
1.1867
1.19613
1.20321
1.20773
1.21609
1.22422
1.20999
1.20503
1.20968
1.20811
1.22039
1.23716
1.23591
1.24362
1.24681
1.20355
1.17132
1.20099
1.19368
1.16917
1.16518
1.16728
1.16426
1.15106
1.14648
1.16235
1.18288
1.1787
1.1878
1.18625
1.14923
1.13183
1.13312
1.14395
1.16706
1.16773
1.17252
1.15548
1.14029
1.16268
1.16337
1.16108
1.17514
1.18619
1.21648
1.16319
1.16837
1.19859
1.22068
1.2056
1.18067
1.22248
1.20221
1.18563
1.19243
1.25495
1.27916
1.30633
1.26772
1.27636
1.40506
1.51271
1.52487
1.51526
1.54136
1.42986
1.65995
1.68112
1.42883
1.32931
1.34267
1.32495
1.23465
1.21146
1.22534
1.21118
1.31085
1.40112
1.31636
1.3329
1.44323
1.40147
1.37339
1.25132
1.08587
1.10292
1.12455
1.12999
1.12434
1.12919
1.13826
1.14346
1.13545
1.12273
1.11635
1.10118
1.08657
1.08505
1.08893
1.08601
1.08321
1.08692
1.08502
1.0877
1.09329
1.09562
1.09799
1.09953
1.1007
1.10083
1.10154
1.09987
1.09865
1.09787
1.09804
1.09887
1.09982
1.10092
1.10225
1.10359
1.10622
1.10819
1.1114
1.11559
1.11874
1.12104
1.12242
1.12323
1.12235
1.12205
1.12209
1.12233
1.12536
1.12728
1.13092
1.13509
1.13629
1.13671
1.13388
1.13649
1.14268
1.15117
1.15363
1.14874
1.14241
1.14234
1.14424
1.14708
1.14896
1.15045
1.14898
1.15064
1.15092
1.14833
1.15319
1.1573
1.15441
1.1609
1.1625
1.15566
1.15759
1.15581
1.15366
1.16104
1.16123
1.15886
1.15754
1.172
1.16694
1.16419
1.15883
1.16607
1.17662
1.18008
1.16249
1.14491
1.13828
1.15158
1.16729
1.18799
1.20143
1.21319
1.21413
1.2102
1.21773
1.22282
1.20918
1.20472
1.20666
1.21074
1.22813
1.23478
1.22529
1.23026
1.2334
1.19873
1.17449
1.19873
1.18563
1.18385
1.17344
1.15777
1.15446
1.14816
1.14373
1.16333
1.17472
1.18868
1.16064
1.14395
1.14559
1.16415
1.1656
1.15762
1.16392
1.15448
1.16479
1.17708
1.16953
1.18864
1.18643
1.16861
1.18585
1.16932
1.19529
1.1639
1.15932
1.18525
1.21047
1.21197
1.16617
1.21162
1.21387
1.20176
1.18563
1.23528
1.26312
1.29725
1.2908
1.27106
1.33524
1.46595
1.51288
1.54424
1.54383
1.49687
1.64429
1.65596
1.38911
1.30322
1.32754
1.24263
1.24478
1.25777
1.26307
1.22716
1.34476
1.4401
1.34788
1.34889
1.43992
1.40965
1.35066
1.22692
1.0873
1.10473
1.12656
1.12979
1.12136
1.12535
1.12905
1.12789
1.1281
1.12015
1.10945
1.09943
1.08494
1.08273
1.08684
1.08635
1.08793
1.09533
1.09592
1.09552
1.09707
1.0959
1.09579
1.09423
1.09433
1.09397
1.09551
1.09766
1.10088
1.10406
1.10503
1.10483
1.10584
1.10634
1.1069
1.10845
1.10879
1.10943
1.11253
1.11563
1.11844
1.12093
1.12148
1.12188
1.12203
1.1214
1.12273
1.12282
1.12412
1.12529
1.12539
1.13115
1.13557
1.13885
1.13673
1.13488
1.13789
1.14312
1.14909
1.15264
1.1515
1.14619
1.14248
1.14121
1.14291
1.14571
1.14904
1.14996
1.15333
1.15797
1.15289
1.16055
1.15991
1.15929
1.16409
1.1573
1.1578
1.16001
1.15111
1.15411
1.1618
1.16115
1.15604
1.16774
1.17089
1.16969
1.1598
1.16353
1.17369
1.17892
1.15795
1.14154
1.14243
1.15782
1.17241
1.19135
1.19944
1.20753
1.20941
1.20978
1.22072
1.22099
1.20634
1.20333
1.20258
1.21385
1.23525
1.23106
1.21486
1.21853
1.22094
1.18871
1.17531
1.19411
1.1922
1.18475
1.15553
1.14129
1.15596
1.15249
1.1491
1.16758
1.18291
1.17897
1.16411
1.17071
1.14686
1.13611
1.14294
1.15794
1.17019
1.16845
1.17273
1.15579
1.16241
1.19426
1.19792
1.18424
1.21789
1.18256
1.19208
1.18171
1.16376
1.18066
1.20019
1.21832
1.15971
1.19365
1.20799
1.21031
1.19287
1.2214
1.25173
1.28877
1.29897
1.2713
1.28102
1.4215
1.46133
1.5757
1.51999
1.47268
1.6327
1.57608
1.31803
1.3098
1.31421
1.2002
1.25938
1.29724
1.33329
1.25164
1.38559
1.47799
1.37241
1.35975
1.4296
1.41757
1.33489
1.22133
1.08849
1.1047
1.12708
1.13281
1.11913
1.11802
1.12543
1.12149
1.10901
1.10725
1.10383
1.10028
1.0907
1.08654
1.08728
1.08564
1.08434
1.09037
1.09359
1.09612
1.10191
1.10277
1.1043
1.10337
1.1025
1.10083
1.0997
1.09887
1.09806
1.09752
1.09897
1.10053
1.10238
1.10373
1.10627
1.10665
1.10476
1.10436
1.10529
1.10759
1.10986
1.11141
1.11332
1.11475
1.11773
1.11889
1.12062
1.12199
1.12206
1.12515
1.12294
1.1246
1.13051
1.13806
1.14061
1.13753
1.13706
1.14274
1.14883
1.15003
1.15079
1.15034
1.15207
1.1494
1.15103
1.14869
1.14721
1.14948
1.14524
1.15308
1.15377
1.15632
1.15913
1.15546
1.16013
1.15657
1.1538
1.16254
1.15785
1.15266
1.15879
1.15949
1.15227
1.15483
1.16676
1.16615
1.15961
1.15941
1.17101
1.17738
1.15287
1.13925
1.14635
1.16423
1.1809
1.19646
1.20181
1.20442
1.20274
1.20489
1.21967
1.21444
1.1992
1.19985
1.20172
1.21929
1.23977
1.2231
1.20392
1.20983
1.20039
1.18523
1.1755
1.19729
1.19191
1.1627
1.12819
1.13767
1.17017
1.15687
1.14614
1.16473
1.17525
1.17956
1.15883
1.152
1.14125
1.15563
1.15575
1.14689
1.14154
1.15522
1.18626
1.17114
1.17281
1.18578
1.17625
1.17357
1.21314
1.17261
1.18493
1.1925
1.16836
1.18704
1.18957
1.2086
1.16171
1.19708
1.21236
1.22113
1.20773
1.20984
1.25027
1.27662
1.30268
1.26186
1.28068
1.365
1.41662
1.58891
1.44954
1.48066
1.62527
1.46494
1.28618
1.31909
1.27792
1.19521
1.29719
1.32067
1.36442
1.25773
1.43238
1.51718
1.40771
1.38427
1.42767
1.4181
1.32105
1.26571
1.08863
1.10033
1.11969
1.13246
1.12372
1.11615
1.11755
1.12023
1.11181
1.09831
1.09862
1.09743
1.09419
1.0915
1.09218
1.09292
1.09186
1.09548
1.09724
1.09354
1.09578
1.09559
1.09487
1.09531
1.09622
1.09801
1.10068
1.10349
1.10575
1.10656
1.10726
1.10716
1.10718
1.10791
1.10796
1.10575
1.10451
1.10377
1.10272
1.10447
1.10841
1.11
1.11134
1.11118
1.1112
1.11293
1.11215
1.11491
1.11545
1.11997
1.12
1.11691
1.11833
1.12651
1.13433
1.13866
1.13918
1.14073
1.14733
1.15181
1.155
1.15039
1.1503
1.14949
1.14844
1.15633
1.15478
1.15632
1.15484
1.15166
1.15337
1.15197
1.15859
1.15595
1.15658
1.15773
1.15074
1.15394
1.15584
1.15292
1.16033
1.16301
1.15627
1.15388
1.17186
1.16596
1.16245
1.15531
1.17303
1.18084
1.15391
1.13866
1.14709
1.16757
1.18929
1.20187
1.20983
1.21054
1.20927
1.20845
1.21665
1.20482
1.19349
1.20095
1.20261
1.2238
1.23389
1.20306
1.19339
1.19147
1.18149
1.17691
1.17392
1.19171
1.17903
1.15825
1.1318
1.15738
1.1679
1.14443
1.14134
1.1663
1.17601
1.17674
1.15162
1.1552
1.12725
1.13687
1.14597
1.17087
1.1934
1.1873
1.17971
1.17666
1.18398
1.16894
1.16853
1.18826
1.20559
1.15888
1.1849
1.19406
1.16411
1.18891
1.17713
1.1947
1.16701
1.20787
1.22037
1.22739
1.21163
1.21237
1.26074
1.27116
1.31675
1.22913
1.30809
1.2801
1.41748
1.54054
1.40639
1.51585
1.57038
1.40748
1.29225
1.31695
1.26347
1.2298
1.35966
1.38118
1.4069
1.26156
1.45988
1.54096
1.42834
1.40643
1.42952
1.41991
1.3473
1.36027
1.08998
1.10052
1.12065
1.13788
1.12829
1.11444
1.11152
1.11128
1.11148
1.10099
1.09638
1.09528
1.09371
1.09095
1.09044
1.09118
1.09234
1.09661
1.10521
1.10553
1.10605
1.10577
1.10241
1.09898
1.09496
1.09299
1.09329
1.09503
1.09723
1.10016
1.10296
1.10449
1.10586
1.10711
1.10653
1.10762
1.10747
1.10554
1.10579
1.10868
1.1135
1.11616
1.1153
1.11524
1.1086
1.10879
1.11177
1.11811
1.11877
1.12154
1.12545
1.12219
1.11779
1.12319
1.13135
1.1336
1.13648
1.14046
1.14853
1.15018
1.15266
1.15389
1.1507
1.15116
1.14467
1.14326
1.14729
1.14779
1.15446
1.15181
1.15532
1.15038
1.15221
1.15317
1.1503
1.15486
1.1522
1.15211
1.15633
1.15182
1.15253
1.15921
1.15719
1.15136
1.16732
1.16273
1.16566
1.15476
1.17245
1.17561
1.1529
1.1392
1.15013
1.16855
1.18876
1.1986
1.2114
1.21234
1.21535
1.21081
1.21118
1.19558
1.18929
1.20473
1.21207
1.2294
1.22836
1.19315
1.18755
1.17784
1.16817
1.16772
1.16921
1.18586
1.17529
1.17574
1.14673
1.15836
1.16262
1.14565
1.14793
1.17246
1.18068
1.17271
1.14209
1.14884
1.12662
1.15699
1.14495
1.14635
1.16715
1.1762
1.17937
1.1925
1.20194
1.17528
1.17812
1.18554
1.18219
1.16705
1.20714
1.19537
1.1681
1.19678
1.17809
1.19978
1.18383
1.23291
1.23199
1.22506
1.21202
1.23456
1.26951
1.28202
1.31553
1.19734
1.329
1.22602
1.43104
1.46188
1.43902
1.50681
1.49615
1.39065
1.28375
1.28104
1.25862
1.25967
1.37908
1.39336
1.41461
1.27962
1.48145
1.56824
1.45756
1.4301
1.43384
1.43168
1.41038
1.46061
1.09156
1.09828
1.10964
1.12759
1.1348
1.12493
1.11644
1.11014
1.10935
1.10633
1.10055
1.10018
1.09949
1.09721
1.09492
1.09244
1.08977
1.0878
1.09407
1.09892
1.10265
1.10725
1.10879
1.10846
1.10666
1.10452
1.10242
1.10166
1.10203
1.10318
1.1044
1.10569
1.10667
1.10776
1.10782
1.10686
1.10635
1.10601
1.1054
1.10709
1.10731
1.10986
1.10786
1.1154
1.11525
1.11002
1.10667
1.10997
1.1156
1.12562
1.13565
1.13458
1.12599
1.12244
1.13096
1.13833
1.14104
1.13956
1.14624
1.15326
1.15834
1.15565
1.1532
1.14886
1.15172
1.15001
1.15063
1.14672
1.14985
1.14869
1.14926
1.15194
1.15073
1.15606
1.15289
1.15345
1.15302
1.148
1.1534
1.15337
1.14896
1.15727
1.16019
1.15002
1.15909
1.16191
1.16253
1.15137
1.1654
1.17251
1.15631
1.13762
1.14913
1.16771
1.18961