/*--------------------------------*- C++ -*----------------------------------*\
| =========                 |                                                 |
| \\      /  F ield         | OpenFOAM: The Open Source CFD Toolbox           |
|  \\    /   O peration     | Version:  dev                                   |
|   \\  /    A nd           | Web:      http://www.openfoam.org               |
|    \\/     M anipulation  |                                                 |
\*---------------------------------------------------------------------------*/
FoamFile
{
    version     2.0;
    format      ascii;
    class       volScalarField;
    object      T;
    location    "9.159";
}
// * * * * * * * * * * * * * * * * * * * * * * * * * * * * * * * * * * * * * //

dimensions      [0 0 0 1 0 0 0];

internalField   nonuniform List<scalar> 
12225
(
303.321
303.263
303.131
303.126
302.96
302.911
302.64
302.559
302.214
302.13
301.744
301.709
301.269
301.394
300.727
301.347
298.978
299.668
303.511
302.991
302.616
302.674
302.461
302.517
302.202
302.266
301.813
301.94
301.35
301.623
300.842
301.351
300.248
300.518
297.956
297.483
303.443
302.89
302.418
302.536
302.178
302.404
301.865
302.24
301.463
301.997
301.089
301.61
300.828
300.833
300.094
298.61
298.223
296.606
303.32
302.987
302.28
302.689
301.953
302.553
301.634
302.416
301.276
302.146
301.009
301.719
300.735
301.227
300.721
300.977
298.778
296.052
303.205
303.093
302.178
302.852
301.964
302.685
301.657
302.558
301.307
302.202
301.06
301.679
300.817
301.138
301.08
301.979
300.009
296.018
303.282
302.936
302.28
302.706
302.119
302.48
301.793
302.323
301.335
302.045
300.943
301.606
300.505
301.123
299.746
300.739
299.705
297.982
303.474
302.906
302.497
302.47
302.314
302.283
301.993
301.976
301.559
301.717
301.129
301.197
300.681
300.692
299.731
299.776
299.062
299.153
303.506
302.953
302.509
302.483
302.323
302.336
302.001
302.018
301.637
301.728
301.27
301.198
300.931
300.746
300.299
300.093
299.588
299.559
303.562
302.952
302.605
302.485
302.401
302.303
302.074
301.99
301.681
301.654
301.346
301.23
300.973
300.799
300.583
300.313
300.089
299.74
303.63
302.993
302.669
302.501
302.513
302.32
302.098
302.038
301.756
301.694
301.412
301.385
301.008
300.914
300.778
300.481
300.36
299.922
303.638
302.988
302.726
302.554
302.605
302.319
302.306
302.07
301.868
301.76
301.558
301.484
301.09
301.017
300.843
300.623
300.393
300.155
303.684
303.136
302.81
302.66
302.677
302.422
302.36
302.097
302.074
301.808
301.656
301.601
301.226
301.133
300.926
300.848
300.526
300.371
303.786
303.28
302.914
302.865
302.762
302.593
302.497
302.266
302.173
301.889
301.843
301.65
301.426
301.259
301.039
301.017
300.695
300.661
303.896
303.366
303.02
302.988
302.837
302.769
302.578
302.41
302.267
302.023
301.943
301.768
301.64
301.409
301.338
301.237
300.992
300.916
304.088
303.573
303.239
303.158
303.003
302.938
302.75
302.638
302.443
302.292
302.132
301.967
301.862
301.644
301.551
301.381
301.307
301.157
304.204
303.798
303.521
303.395
303.252
303.116
302.943
302.817
302.645
302.534
302.361
302.254
302.1
301.963
301.842
301.665
301.582
301.415
304.444
304.086
303.793
303.656
303.527
303.376
303.237
303.093
302.967
302.813
302.672
302.537
302.384
302.286
302.12
302.016
301.892
301.789
304.671
304.355
304.04
303.907
303.792
303.67
303.511
303.375
303.22
303.051
302.978
302.784
302.693
302.531
302.422
302.303
302.144
302.065
304.922
304.6
304.265
304.19
304.087
303.924
303.758
303.631
303.441
303.322
303.15
302.988
302.879
302.688
302.608
302.412
302.354
302.225
305.018
304.873
304.503
304.402
304.245
304.082
303.969
303.794
303.652
303.505
303.316
303.188
302.989
302.883
302.731
302.616
302.512
302.385
305.21
305.102
304.668
304.548
304.374
304.211
304.082
303.94
303.831
303.65
303.516
303.321
303.142
302.984
302.803
302.672
302.534
302.411
305.327
305.172
304.78
304.65
304.546
304.385
304.232
304.093
303.909
303.772
303.581
303.411
303.238
303.05
302.909
302.733
302.603
302.455
305.461
305.195
304.868
304.761
304.652
304.494
304.343
304.158
303.959
303.789
303.578
303.426
303.231
303.086
302.928
302.778
302.639
302.494
305.482
305.317
305.001
304.856
304.689
304.557
304.354
304.193
304.018
303.821
303.667
303.475
303.32
303.156
302.985
302.839
302.668
302.525
305.545
305.408
305.03
304.913
304.784
304.589
304.412
304.218
304.04
303.884
303.707
303.552
303.372
303.197
303.022
302.844
302.68
302.513
305.502
305.405
305.087
304.984
304.832
304.667
304.468
304.274
304.078
303.888
303.715
303.542
303.379
303.212
303.047
302.881
302.715
302.552
305.545
305.42
305.084
304.965
304.815
304.641
304.463
304.283
304.105
303.93
303.756
303.587
303.417
303.248
303.079
302.908
302.736
302.565
305.584
305.457
305.081
304.969
304.837
304.673
304.497
304.323
304.152
303.985
303.814
303.642
303.46
303.277
303.088
302.898
302.708
302.52
305.604
305.537
305.177
305.062
304.929
304.775
304.613
304.45
304.281
304.106
303.921
303.727
303.527
303.326
303.127
302.937
302.752
302.577
305.325
305.584
305.39
305.315
305.192
305.039
304.868
304.682
304.487
304.283
304.074
303.863
303.654
303.449
303.25
303.058
302.872
302.68
289.384
284.018
281.274
279.847
279.181
278.935
278.92
279.044
279.287
279.617
279.976
280.367
280.781
281.231
281.693
282.247
282.902
283.318
283.679
283.991
284.271
284.763
285.518
286.367
286.999
287.292
287.665
288.304
289.124
289.995
290.416
290.672
292.034
294.595
296.673
297.053
296.395
295.72
295.331
295.193
295.126
295.08
295.061
295.082
295.143
295.232
295.349
295.491
295.659
295.848
296.06
296.292
296.538
296.803
297.09
297.399
297.727
298.071
298.425
298.784
299.137
299.479
299.824
300.171
300.525
300.877
301.211
301.508
301.805
302.111
302.363
302.572
302.691
302.777
302.814
302.784
302.699
302.554
302.356
302.077
301.738
301.442
301.286
301.256
301.341
301.379
301.27
301.071
300.809
300.521
300.129
299.773
299.326
298.784
298.318
297.801
297.451
296.886
296.255
295.86
295.555
294.617
292.903
290.699
288.558
287.313
287.691
288.964
291.188
294.482
296.147
296.834
297.597
295.195
294.185
293.544
290.933
290.309
291.105
291.541
292.057
293.287
293.888
290.132
284.477
286.076
289.78
286.242
283.287
283.97
283.688
283.554
285.104
286.608
287.811
288.324
288.979
289.932
292.023
294.131
295.438
295.748
295.638
295.065
294.232
293.561
292.929
291.575
289.965
288.093
286.238
284.781
284.334
284.418
283.25
281.571
281.701
277.452
275.365
281.216
281.355
282.374
290.595
292.094
288.676
281.354
275.993
285.647
281.956
280.318
280.972
278.405
281.807
286.781
289.28
294.188
295.563
295.383
280.124
278.849
289.338
283.019
279.459
277.383
276.156
275.476
275.098
274.84
274.683
274.656
274.704
274.726
274.762
274.936
275.092
275.278
275.507
275.42
275.775
276.218
276.37
276.902
277.763
279.548
280.144
279.45
280.452
282.675
286.855
291.435
292.808
292.151
291.495
291.507
291.778
292.063
292.071
292.071
292.238
292.414
292.641
292.782
292.998
293.209
293.461
293.758
294.049
294.379
294.703
295.019
295.358
295.687
296.012
296.371
296.78
297.223
297.694
298.177
298.634
299.091
299.513
299.922
300.352
300.808
301.292
301.785
302.228
302.614
303.039
303.509
303.906
304.254
304.414
304.592
304.711
304.709
304.649
304.449
304.163
303.596
302.374
300.845
299.885
299.798
300.932
301.954
301.475
300.191
298.428
297.176
296.114
295.692
295.326
293.871
293.561
293.021
292.69
291.994
290.927
288.704
286.372
287.127
288.117
286.403
281.597
277.581
277.364
279.338
283.697
287.599
289.001
288.986
288.632
287.556
285.307
283.494
285.076
288.26
288.73
286.58
285.645
285.302
282.081
278.019
277.844
282.068
275.072
276.246
281.816
272.262
271.627
270.739
273.708
279.348
283.362
285.854
286.003
284.364
281.923
280.119
279.796
280.605
283.087
284.862
283.553
281.595
280.977
279.071
275.723
271.549
267.172
262.278
259.083
258.195
255.798
253.409
253.526
246.514
240.263
252.811
258.426
267.518
282.831
280.43
266.335
258.708
269.129
282.708
260.926
261.039
254.319
245.439
258.729
278.411
280.423
285.504
275.616
286.113
275.185
246.032
290.657
285.985
283.524
281.914
280.535
279.499
278.73
278.029
277.333
276.667
276.391
275.939
275.309
275.061
275.307
275.085
273.962
273.26
273.552
274.84
275.335
276.381
277.745
279.133
281.63
284.575
286.806
288.071
288.918
289.741
290.44
291.35
292.483
293.47
294.136
294.473
294.753
295.011
295.256
295.481
295.68
295.894
296.087
296.3
296.559
296.701
296.882
297.056
297.288
297.535
297.744
298.004
298.279
298.508
298.756
298.983
299.226
299.452
299.669
299.947
300.238
300.465
300.639
300.914
301.177
301.454
301.702
302.099
302.495
302.862
303.352
303.857
304.229
304.632
305.154
305.625
306.133
306.454
306.736
306.957
306.395
304.676
303.142
302.607
304.627
307.758
308.765
306.929
302.422
299.349
299.762
299.14
296.406
294.405
296.286
297.225
296.405
294.283
293.112
292.342
287.699
284.664
285.333
286.003
285.834
285.121
285.567
287.315
287.15
286.123
286.378
286.435
285.505
284.978
285.052
287.801
291.046
290.235
284.396
281.171
281.564
281.756
283.077
282.7
287.31
284.307
270.481
285.829
310.842
292.952
280.941
278.556
276.552
282.547
289.253
296.643
300.327
300.725
295.623
288.213
281.372
277.426
276.675
278.019
279.743
280.161
277.923
274.669
273.476
272.593
270.187
264.866
257.4
250.132
245.238
243.672
241.295
239.644
238.689
246.803
256.079
266.729
279.023
279.861
268.263
258.277
262.749
265.753
271.746
272.068
256.857
243.452
261.432
283.798
298.738
307.609
287.285
282.508
286.062
263.133
291.614
287.979
286.178
284.872
283.559
282.372
281.434
280.535
279.736
278.879
278.255
277.071
276.011
275.904
275.152
273.348
273.346
275.34
277.333
279.996
281.968
284.278
285.866
286.089
286.706
287.671
288.72
290.126
291.596
292.927
294.283
295.316
295.903
295.803
295.566
295.066
294.652
294.299
293.852
293.673
293.478
293.521
293.618
293.737
293.756
293.833
293.963
293.951
294.198
294.353
294.572
294.869
295.085
295.399
295.686
295.849
296.193
296.465
296.687
296.944
297.209
297.463
297.602
297.802
297.995
298.178
298.323
298.568
298.823
299.159
299.553
300.11
300.611
301.099
301.856
302.826
303.868
304.469
305.021
305.505
306.247
305.769
304.728
303.233
302.582
304.545
307.544
307.554
303.442
301.368
304.826
307.062
304.179
300.668
303.06
306.102
305.074
303.333
303.14
300.046
292.521
289.11
286.93
284.211
286.833
286.651
283.66
285.348
286.426
287.091
288.718
290.65
293.812
296.33
292.391
289.341
290.66
287.586
287.495
289.265
283.64
277.01
281.338
286.042
288.45
286.07
290.578
299.559
307.742
312.225
300.011
298.112
291.344
291.025
291.203
295.369
299.935
306.042
305.515
299.356
290.228
281.51
277.163
278.5
279.912
278.732
277.145
275.655
274.515
274.096
274.382
274.957
269.428
254.262
242.921
239.966
238.014
246.082
251.228
244.441
253.459
265.556
263.069
265.64
263.734
238.025
238.462
254.461
274.75
274.62
256.125
250.565
276.902
293.392
304.5
311.462
305.261
287.581
287.573
282.213
292.302
289.224
287.402
285.646
284.1
282.627
281.525
280.604
280.127
280.144
279.359
277.531
275.608
274.815
275.894
277.693
279.234
281.775
285.149
287.476
288.264
288.983
288.881
289.137
290.019
291.454
292.947
293.897
294.681
295.014
295.136
294.523
293.697
292.767
292.092
291.758
291.583
291.66
291.855
292.19
292.569
292.94
293.136
293.427
293.577
293.701
293.894
294.119
294.285
294.505
294.716
294.952
295.232
295.521
295.898
296.26
296.739
297.219
297.729
298.214
298.601
299.018
299.331
299.648
299.868
300.16
300.488
300.601
300.569
300.732
300.871
301.113
301.267
301.192
301.192
301.813
302.722
303.539
304.326
304.893
305.282
305.685
305.927
306.439
305.877
304.462
304.501
304.19
303.262
304.255
307.514
310.139
310.139
310.3
310.285
310.394
308.19
305.423
307.434
306.921
300.332
299.576
296.395
288.147
288.212
288.392
285.223
285.768
287.414
289.459
291.292
293.282
298.656
298.832
289.535
289.037
296.098
295.961
298.355
296.329
288.786
282.388
275.777
289.32
285.149
283.408
297.727
295.843
287.465
291.954
299.701
303.363
302.261
304.1
302.237
300.939
298.459
302.9
305.933
305.008
297.8
289.843
281.962
279.277
280.391
281.019
280.154
276.983
272.083
270.584
271.208
276.631
282.395
267.116
247.204
239.608
238.585
250.625
256.607
238.375
246.669
266.949
274.988
270.983
283.038
246.867
238.468
252.487
265.666
283.063
257.306
257.52
277.998
298.44
308.702
300.53
300.626
292.505
287.798
290.642
292.803
290.174
288.376
285.972
283.858
282.111
280.444
279.304
279.319
279.906
279.147
277.142
276.829
277.488
278.994
281.35
283.958
288.065
290.542
291.187
290.961
290.803
291.597
292.658
293.459
294.024
294.395
294.351
294.08
293.328
292.454
291.619
291.147
291.213
291.603
292.317
293.008
293.451
293.964
294.229
294.226
294.214
293.997
293.779
293.55
293.407
293.234
293.214
293.163
293.139
293.227
293.421
293.535
293.768
294.197
294.628
295.08
295.623
296.023
296.519
297.127
297.719
298.288
298.892
299.425
299.82
300.265
300.597
300.768
300.874
301.104
301.463
301.93
301.981
301.501
301.134
300.926
301.23
300.612
300.884
301.652
302.67
303.548
304.882
306.46
306.048
304.751
304.99
306.131
308.239
309.459
309.872
310.354
312.321
312.083
310.084
310.258
307.018
302.823
300.159
299.12
303.763
303.244
294.238
292.588
290.772
286.186
285.83
286.806
290.41
291.619
292.564
299.868
297.799
287.612
292.037
295.99
294.264
295.059
295.006
295.594
292.77
280.188
284.266
277.452
279.499
307.315
295.043
294.441
290.279
295.933
297.67
291.473
290.755
295.589
301.494
296.231
296.385
297.492
301.996
299.626
297.352
294.565
288.188
286.687
288.268
289.805
284.538
268.378
262.467
267.446
274.91
287.844
281.255
256.104
241.177
240.141
253.263
261.165
227.017
240.594
261.934
271.215
256.586
289.377
270.579
251.512
237.299
255.641
290.35
284.282
281.243
288.154
301.133
312.917
298.668
283.584
283.932
283.714
292.779
293.265
291.051
288.804
285.409
282.459
280.933
279.497
278.221
278.687
279.624
278.552
278.151
279.134
281.94
285.703
288.039
289.272
291.341
291.601
291.725
292.907
292.767
293.026
293.116
293.348
293.976
293.864
293.296
292.287
291.445
291.152
291.293
291.587
292.394
293.133
293.466
293.53
293.217
292.79
292.101
291.539
290.998
290.501
290.226
290.098
290.125
290.263
290.598
290.865
291.118
291.475
291.705
291.893
292.068
292.206
292.515
292.79
293.201
293.538
293.808
294.307
295.046
295.933
296.911
298.048
298.901
299.613
300.067
300.297
300.17
300.167
300.42
301.161
302.217
303.121
303.08
303.364
304.625
304.814
303.462
302.132
302.116
303.111
304.445
305.738
305.901
304.973
305.02
306.042
306.134
306.091
307.942
311.028
313.946
313.215
308.72
309.332
311.68
308.193
302.095
297.504
298.372
298.698
294.632
295.283
293.364
288.442
286.945
286.132
287.276
288.508
291.004
300.559
296.403
287.366
295.275
294.356
295.452
298.486
299.366
299.205
294.938
288.233
276.908
287.533
280.619
294.171
309.163
298.289
296.28
297.525
312.45
304.886
290.099
287.649
300.323
299.801
298.544
297.699
300.226
299.17
295.451
301.684
302.953
303.212
305.972
306.79
306.512
282.946
265.584
267.617
274.075
288.14
294.332
270.971
246.541
241.858
253.418
265.393
232.371
244.719
251.27
275.918
269.088
279.564
263.717
250.543
238.841
250.325
280.755
296.156
294.504
292.185
298.242
306.92
293.304
272.507
270.449
274.015
288.567
293.538
291.096
287.398
282.946
279.592
278.529
277.683
277.527
278.689
279.716
279.716
279.866
281.232
285.171
287.938
290.295
292.458
293.535
294.269
294.065
294.509
294.185
294.344
294.578
294.191
293.395
292.214
291.255
291.001
291.39
291.513
292.023
292.484
292.774
292.881
292.353
291.787
291.115
290.739
290.369
290.285
290.502
290.809
291.26
291.928
292.611
293.246
293.859
294.445
294.827
295.188
295.293
295.308
295.307
295.15
295.235
295.397
295.823
296.347
296.62
296.747
297.1
297.807
298.777
300.079
301.244
302.068
302.616
302.89
301.86
301.056
300.392
299.902
300.212
301.602
302.01
301.874
302.394
305.295
305.723
303.66
301.658
302.287
304.206
306.738
307.203
305.205
302.852
302.915
303.477
304.076
306.34
309.312
313.41
314.242
309.769
306.254
306.446
305.712
304.421
300.658
297.522
297.02
295.889
296.788
294.288
289.885
287.951
285.937
285.391
285.923
291.748
301.878
295.342
288.87
296.56
295.754
300.211
301.362
301.318
301.233
299.533
295.303
287.789
312.169
301.771
280.558
300.134
295.373
294.216
285.42
300.266
307.014
301.85
295.982
306.524
308.236
300.649
298.37
300.904
305.201
298.821
298.956
303.52
305.553
311.401
310.091
316.922
304.86
283.973
278.212
276.647
282.694
297.16
287.75
256.622
243.954
252.364
262.528
259.988
245.736
247.53
277.088
273.975
279.358
259.442
252.158
233.672
259.696
291.805
300.142
309.955
300.65
298.664
305.687
285.226
264.667
262.693
263.818
281.464
293.577
290.349
285.245
280.953
278.84
278.305
277.762
277.311
278.55
280.209
280.364
279.59
282.926
289.298
290.989
292.402
294.723
293.821
294.146
293.842
293.436
293.048
292.559
291.589
291.025
290.712
290.855
291.643
291.93
292.224
292.238
292.252
292.32
292.017
291.601
290.98
290.768
290.578
290.653
290.998
291.273
291.639
292.068
292.383
292.712
293.067
293.378
293.537
293.766
293.719
293.786
293.928
293.939
294.139
293.992
293.971
293.879
294.146
294.982
296.307
297.204
297.597
298.086
298.862
299.866
301.249
302.409
303.622
305.007
305.022
304.168
303.583
302.407
300.976
301.092
302.895
303.418
301.848
303.478
305.382
305.641
302.519
302.09
302.111
304.638
306.867
306.709
304.301
302.951
303.478
305.732
309.358
312.195
313.07
310.228
305.655
303.607
302.178
300.143
299.557
297.822
294.325
295.106
296.437
296.017
293.952
291.163
288.145
285.955
283.569
283.685
291.419
299.87
293.715
289.737
295.332
297.019
299.549
299.166
300.865
302.063
299.521
297.24
298.856
290.167
294.766
301.68
300.471
297.198
307.434
309.132
310.874
308.735
302.963
292.138
295.133
305.628
302.425
298.174
299.445
309.76
307.974
300.194
302.34
302.589
308.035
304.673
312.601
320.655
305.481
291.993
284.247
284.964
294.364
299.001
270.101
248.022
251.585
257.238
276.915
244.305
228.779
272.873
248.48
278.678
251.062
262.077
254.372
278.811
304.032
310.54
320.437
299.603
286.892
297.725
282.406
262.071
264.868
260.869
279.343
293.407
289.183
283.303
280.21
280.171
279.745
279.287
278.65
278.901
279.852
279.1
280.185
286.203
291.576
291.25
292.521
295.166
293.997
293.934
294.046
293.444
293.282
292.867
292.511
292.251
292.056
291.533
291.274
291.152
291.253
291.471
291.518
291.445
291.107
290.916
290.75
290.836
291.157
291.292
291.499
291.61
291.586
291.608
291.571
291.509
291.594
291.956
292.324
292.815
292.967
293.026
293.397
293.482
293.97
294.187
294.519
294.551
294.127
293.363
293.904
295.356
296.657
297.15
297.489
297.601
298.179
298.817
299.993
301.279
303.553
304.455
305.069
305.842
304.92
302.572
302.703
304.53
304.255
303.744
304.873
307.046
305.016
305.321
304.114
305.321
305.857
305.544
304.263
303.901
306.327
309.71
313.34
314.532
313.208
309.956
306.009
304.811
302.064
298.889
297.785
296.553
292.885
294.62
296.141
294.288
293.878
291.691
287.37
285.073
281.481
280.829
290.168
299.014
293.7
290.215
295.958
300.167
300.167
301.265
304.611
305.507
301.098
296.305
295.558
292.479
292.224
301.44
308.972
306.941
303.234
299.422
298.446
301.324
301.011
303.016
304.321
309.302
306.291
299.914
296.193
304.924
316.024
306.101
303.519
302.504
307.754
304.528
304.798
322.94
322.125
308.033
292.983
290.76
292.635
304.698
286.351
257.219
251.224
256.738
262.66
249.407
238.878
242.357
233.59
272.51
290.64
295.532
274.142
291.852
307.897
315.77
321.326
297.194
281.49
292.019
280.779
260.821
269.025
263.912
281.973
293.308
288.613
282.842
280.773
281.398
280.187
278.789
278.08
277.378
278.116
279.132
283.237
291.405
294.553
293.076
293.528
294.675
293.549
293.808
293.779
292.55
292.136
291.483
291.091
290.801
290.634
291.048
291.814
292.619
293.002
292.753
292.22
291.558
291.212
291.161
291.173
291.25
291.423
291.372
291.322
291.246
291.115
291.126
291.25
291.495
291.784
292.406
293.228
294.172
294.72
294.754
295.031
294.733
294.642
294.488
294.558
295.413
296.478
296.476
295.59
295.502
296.862
298.477
299.4
299.94
300.029
299.866
300.404
300.096
300.961
302.421
303.295
304.496
306.702
306.923
305.153
304.843
305.672
304.137
303.717
306.132
305.377
305.419
303.557
305.888
307.357
306.775
304.687
303.69
305.549
308.446
312.364
313.767
312.398
309.464
305.252
304.254
301.177
297.411
295.414
294.048
291.813
294.299
295.532
293.486
293.987
291.474
286.877
284.292
281.47
281.074
290.866
299.893
294.034
291.186
297.949
301.306
300.735
301.656
304.01
303.507
300.387
297.206
293.423
300.997
306.956
301.084
295.273
298.187
304.506
305.787
303.314
301.045
299.189
297.907
297.629
305.233
309.846
307.814
301.999
297.984
314.243
310.832
304.205
301.524
308.612
312.52
302.755
311.795
318.491
315.14
300.126
296.199
292.101
304.447
300.303
270.465
254.785
255.981
258.674
249.779
276.313
234.014
230.523
260.742
288.782
289.323
283.721
301.198
310.107
312.011
316.974
291.121
272.528
287.855
281.085
258.903
267.209
267.068
290.149
293.355
288.517
282.69
280.963
282.244
280.957
278.893
278.688
279.17
279.465
281.432
285.517
291.837
294.011
293.63
294.753
295.235
293.271
293.093
292.44
291.758
292.007
291.872
291.885
292.189
292.226
291.978
291.571
290.786
290.432
290.079
289.97
290.164
290.4
290.623
291.145
291.338
291.39
291.224
290.946
290.716
290.615
290.945
291.539
292.274
292.861
293.409
293.651
293.89
294.338
294.122
294.28
294.384
294.37
294.319
293.23
292.702
293.424
295.714
297.013
296.995
296.597
297.719
298.848
300.358
301.52
302.125
302.621
303.258
303.117
302.477
303.48
302.893
302.939
305.597
306.883
306.3
307.462
307.007
305.523
306.698
306.647
306.962
303.608
304.973
306.372
307.451
306.479
304.91
304.181
306.464
310.387
313.375
312.462
309.503
304.178
301.339
298.748
296.905
295.751
293.495
290.921
293.789
294.929
293.549
293.54
290.324
285.929
285.775
283.643
282.165
291.617
299.525
291.871
293.308
298.662
299.338
298.892
299.337
302.436
303.752
299.31
294.096
295.101
293.042
293.13
303.387
308.583
308.194
305.25
299.298
300.536
299.865
304.819
310.642
304.977
304.428
306.68
304.057
304.818
297.556
310.783
313.25
307.228
302.12
305.139
316.351
306.827
310.275
315.803
319.452
306.648
301.39
294.913
301.639
306.804
287.053
263.957
258.714
257.489
256.518
273.397
241.013
235.332
281.491
299.749
294.37
307.597
318.223
316.505
308.728
314.407
288.544
266.815
283.095
281.885
260.856
266.31
274.02
300.34
293.652
289.014
283.466
282.181
283.607
282.323
280.095
278.94
281.023
284.228
285.913
289.925
293.667
293.893
292.902
293.803
294.511
293.56
294.141
293.375
291.966
291.479
290.961
290.684
290.524
290.634
290.628
291.26
291.751
292.139
292.289
292.298
292.305
292.293
292.246
292.205
291.866
291.728
291.27
290.615
290.281
290.189
290.363
290.71
291.502
292.165
292.755
293.325
293.195
293.386
293.19
292.814
293.235
293.89
295.487
295.762
295.028
293.593
293.568
295.52
298.057
299.088
299.478
299.568
299.807
300.111
301.219
301.56
302.129
303.533
303.21
302.548
304.047
303.08
302.826
305.232
305.388
306.177
307.563
306.166
306.148
307.112
308.154
304.648
305.785
306.633
308.519
307.067
304.339
303
307.464
312.421
314.571
311.082
306.891
301.408
297.756
294.506
293.845
294.695
292.72
290.973
293.76
294.687
294.018
292.656
288.048
285.968
287.804
286.334
284.944
292.54
298.317
292.096
294.692
294.519
297.286
301.439
301.59
302.761
303.816
298.586
295.821
292.292
300.206
304.462
303.935
299.126
298.743
301.07
300.553
303.555
301.621
299.445
301.131
296.985
298.274
304.553
300.432
308.016
303.674
310.841
315.226
310.84
306.084
304.815
320.444
311.145
309.838
312.925
320.521
312.381
306.663
299.665
299.177
307.871
302.698
276.253
267.051
255.539
259.799
266.273
244.876
245.159
292.538
305.162
300.725
326.321
312.182
302.671
297.478
311.769
281.393
261.215
278.113
279.088
262.856
265.783
278.693
304.337
293.888
289.156
283.549
282.787
284.956
283.933
283.025
283.37
283.385
285.412
288.167
290.797
294.59
295.025
293.922
294.097
293.598
291.673
291.651
291.796
291.454
291.858
291.973
292.477
292.546
292.746
292.445
292.013
291.324
290.704
290.692
290.966
290.94
291.078
291.21
291.122
291.394
291.58
291.159
290.795
290.534
290.396
290.771
291.199
291.697
292.427
292.671
293.272
293.62
293.987
294.742
294.018
293.568
293.368
294.589
295.957
296.118
295.643
294.862
294.641
295.568
297.719
299.506
300.779
301.175
301.318
301.209
301.701
301.696
300.904
302.996
301.766
302.324
303.349
302.55
304.716
305.33
304.894
307.704
307.827
306.045
306.289
308.235
305.833
304.76
305.023
307.868
307.522
305.022
303.189
308.471
313.212
313.221
309.156
305.247
300.267
298.034
295.914
295.133
294.798
291.75
291.109
294.254
294.744
294.706
291.645
285.999
286.373
289.862
288.68
287.575
294.681
297.758
292.75
292.563
294.472
302.207
305.192
300.084
300.942
301.988
297.208
293.303
294.55
298.152
296.163
303.083
306.464
305.245
301.864
299.683
299.618
298.215
304.673
303.757
297.368
297.714
301.555
293.497
304.381
303.986
305.994
313.409
311.052
309.046
304.598
321.402
315.171
312.357
311.991
318.058
316.129
309.578
303.115
299.778
310.158
311.789
287.719
279.93
254.097
269.21
275.302
248.667
262.873
309.686
304.605
307.128
332.495
309.167
298.201
285.494
308.293
274.16
255.817
274.05
277.19
265.275
265.239
281.708
301.302
294.285
289.911
284.169
282.713
286.166
286.43
284.566
285.651
288.864
289.266
290.103
291.048
293.556
294.585
294.38
294.846
295.13
293.48
292.679
292.013
290.547
290.42
290.106
290.452
290.783
291.332
291.743
292.096
292.46
292.755
292.546
292.345
292.089
291.982
291.603
291.84
292.679
293.136
293.288
293.101
292.949
293.027
293.021
293.178
292.961
293.227
293.404
293.65
294.303
294.127
295.398
295.843
295.135
293.859
293.756
295.201
296.208
295.66
294.857
295.292
295.811
296.725
296.993
298.446
298.87
300.101
301.383
301.489
303.46
302.345
302.636
302.834
302.497
304.094
303.543
304.73
306.289
304.463
305.697
307.732
306.606
306.496
308.749
308.957
305.74
305.922
307.668
308.408
305.46
303.252
309.484
313.709
312.151
307.369
302.702
298.587
296.837
296.009
296.212
295.687
291.772
292.432
295.802
295.333
294.615
290.015
284.594
287.904
292.134
290.396
292.226
295.275
297.35
291.568
292.414
299.495
308.453
304.744
296.14
299.852
302.575
297.446
294.928
293.593
299.44
301.512
304.987
300.439
300.619
302.828
304.15
301.685
295.413
298.951
299.455
299.882
303.436
303.857
296.187
308.085
305.588
304.184
312.65
308.971
311.694
308.155
320.429
312.758
310.623
309.939
315.033
318.235
309.305
306.384
299.412
316.282
307.77
303.204
287.387
256.959
283.715
272.575
252.908
282.322
313.387
305.8
316.513
329.1
298.542
291.974
282.186
308.792
267.474
250.922
268.393
272.301
265.423
265.518
281.92
285.4
295.036
291.84
286.782
283.485
285.69
287.663
287.293
286.611
288.786
292.277
292.084
292.386
293.206
293.87
293.646
293.447
293.694
292.706
292.301
293.3
292.704
292.819
293.057
292.994
292.823
292.43
291.825
291.213
290.77
290.724
290.719
290.94
291.146
291.19
291.447
292.322
292.959
293.505
294.157
294.081
293.453
293.484
293.637
294.202
294.827
294.953
295.752
295.591
296.095
295.575
296.116
297.717
298.332
297.029
295.628
295.126
295.69
296.172
295.256
294.857
294.709
296.598
297.544
298.463
299.769
298.488
299.431
299.805
300.591
302.339
302.523
303.746
302.658
303.729
304.338
304.298
306.635
306.593
306.273
307.5
306.143
305.461
307.318
308.798
304.221
305.715
306.565
309.173
304.784
302.234
308.841
313.554
311.752
306.462
300.549
297.179
294.668
294.158
294.071
294.25
292.079
294.493
297.022
294.724
293.923
288.495
285.469
292.31
294.303
294.483
296.524
297.116
297.391
292.555
295.154
299.242
305.839
298.918
296.615
302.54
302.85
296.101
293.615
293.916
300.846
299.34
307.634
304.635
303.377
297.072
290.724
292.959
296.868
297.018
295.848
302.61
303.172
299.325
298.267
310.085
303.799
303.912
313.292
308.003
313.769
310.534
318.068
308.794
308.183
309.329
315.108
315.476
306.589
306.461
297.269
326.457
301.473
322.683
285.387
269.062
287.628
269.174
265.128
289.941
312.401
310.854
318.313
319.213
288.5
281.751
275.962
305.645
264.486
248.128
265.301
268.438
264.804
264.312
272.307
263.802
295.536
292.638
287.404
283.035
285.368
288.872
289.605
289.66
289.583
292.26
293.408
293.628
294.009
294.701
294.787
294.555
294.196
292.994
290.729
290.682
290.555
290.664
291.593
292.55
293.673
294.255
294.254
293.894
293.431
292.8
292.222
292.005
291.849
291.744
292.149
292.138
292.474
293.311
293.613
293.251
292.427
292.145
292.862
293.269
295.536
296.174
296.05
294.969
295.331
295.209
294.643
296.054
298.167
297.828
296.39
296.441
296.435
296.303
294.983
295.222
295.315
295.667
297.277
297.971
300.293
301.737
301.399
302.14
300.979
302.237
301.972
303.743
304.139
304.223
305.644
305.009
305.978
306.738
305.942
307.397
308.016
306.463
306.878
309.13
305.428
306.447
305.662
308.989
304.807
303.47
308.888
313.235
310.7
305.942
300.482
297.851
294.18
293.554
292.404
293.335
292.984
296.315
297.732
293.501
291.145
286.64
286.292
294.171
295.279
297.386
299.372
299.036
298.086
293.596
295.156
294.002
301.073
298.378
297.154
301.313
300.44
294.34
292.63
294.832
302.281
300.373
307.112
298.497
302.104
302.401
298.013
296.144
294.926
291.736
291.321
299.028
299.143
300.469
303.219
305.897
298.23
304.208
311.023
305.101
311.841
307.646
313.396
302.75
305.409
310.834
314.954
308.58
305.307
302.887
300.314
333.045
299.121
329.08
282.275
282.864
279.809
274.183
278.615
292.464
314.722
320.405
317.628
312.673
286.659
281.315
276.548
298.113
261.823
244.575
260.155
264.204
263.12
260.396
258.623
247.357
296.063
294.149
291.069
286.463
284.587
287.028
289.202
290.796
290.975
291.673
293.101
293.096
293.208
293.746
294.299
294.921
295.608
296.082
294.355
293.052
292.054
290.847
290.465
290.576
291.08
291.691
292.308
292.6
292.615
292.445
292.277
292.109
292.043
291.966
292.174
292.68
293.101
293.495
294.017
293.946
294.326
294.043
295.14
293.648
293.924
295.766
297.292
297.163
296.41
294.538
292.487
293.232
296.054
297.929
296.563
295.342
295.275
296.496
295.651
294.616
293.909
295.296
296.614
298.619
298.624
299.688
300.273
301.951
302.053
302.791
303.559
303.206
304.31
303.435
304.606
305.159
305.486
307.402
306.624
306.679
308.485
306.837
305.892
308.974
307.315
306.262
306.223
309.425
306.417
303.938
307.53
313.303
310.777