/*--------------------------------*- C++ -*----------------------------------*\
| =========                 |                                                 |
| \\      /  F ield         | OpenFOAM: The Open Source CFD Toolbox           |
|  \\    /   O peration     | Version:  dev                                   |
|   \\  /    A nd           | Web:      http://www.openfoam.org               |
|    \\/     M anipulation  |                                                 |
\*---------------------------------------------------------------------------*/
FoamFile
{
    version     2.0;
    format      ascii;
    class       volVectorField;
    object      U;
    location    "9.159";
}
// * * * * * * * * * * * * * * * * * * * * * * * * * * * * * * * * * * * * * //

dimensions      [0 1 -1 0 0 0 0];

internalField   nonuniform List<vector> 
12225
(
(6.8375 0.270094 0)
(3.62549 0.0529778 0)
(1.44011 -0.109664 0)
(0.913907 -0.141194 0)
(-0.316893 -0.130242 0)
(0.178331 -0.190132 0)
(-0.984293 -0.12471 0)
(0.00189871 -0.225412 0)
(-1.09743 -0.131633 0)
(0.467049 -0.325603 0)
(-0.709618 -0.114318 0)
(1.96421 -0.458814 0)
(0.352728 -0.159646 0)
(4.96547 -0.573137 0)
(4.49397 -0.484793 0)
(10.8241 -1.85495 0)
(23.8676 -2.47603 0)
(23.557 1.91169 0)
(9.60566 0.651272 0)
(8.47554 0.534861 0)
(5.30322 0.123961 0)
(5.12608 -0.12145 0)
(1.93575 -0.221939 0)
(3.37251 -0.330775 0)
(-0.110723 -0.280961 0)
(2.4963 -0.459275 0)
(-1.53426 -0.275516 0)
(2.55306 -0.680788 0)
(-2.45019 -0.347222 0)
(4.31095 -1.02605 0)
(-2.49308 -0.843784 0)
(8.59171 -1.88284 0)
(1.21564 -1.81743 0)
(14.5772 -6.5115 0)
(12.6524 -3.46448 0)
(14.9233 -1.72677 0)
(9.19635 0.292164 0)
(10.9867 0.47024 0)
(7.22865 0.116667 0)
(9.20865 -0.0988073 0)
(4.43817 -0.284427 0)
(7.72055 -0.338937 0)
(2.29237 -0.466069 0)
(6.8434 -0.512531 0)
(0.644917 -0.587906 0)
(7.00049 -0.862249 0)
(-0.0345084 -0.856058 0)
(8.20742 -1.48255 0)
(0.753919 -1.51535 0)
(9.22434 -2.58115 0)
(3.01578 -2.43833 0)
(11.2081 -6.30285 0)
(7.79841 -3.20081 0)
(11.4863 -1.99768 0)
(7.45955 -0.344664 0)
(12.6975 0.145136 0)
(7.33768 -0.0712672 0)
(11.7575 -0.248296 0)
(6.12695 -0.366592 0)
(10.5346 -0.502494 0)
(4.95684 -0.559962 0)
(9.73393 -0.713622 0)
(4.09565 -0.761563 0)
(9.49259 -1.22303 0)
(3.69 -1.06529 0)
(9.35512 -2.18876 0)
(3.66202 -1.53878 0)
(9.8032 -3.63075 0)
(4.11808 -2.97759 0)
(9.65162 -8.11081 0)
(5.58575 -4.07061 0)
(12.4811 2.25909 0)
(7.45475 -0.454823 0)
(12.0585 -0.488541 0)
(8.31 -0.311552 0)
(10.984 -0.704077 0)
(7.89288 -0.498625 0)
(9.71739 -0.928737 0)
(7.34182 -0.721453 0)
(8.95247 -1.15347 0)
(7.0517 -0.982679 0)
(8.55565 -1.59821 0)
(6.86773 -1.25398 0)
(8.06569 -2.37391 0)
(6.4041 -1.73072 0)
(8.0584 -3.62198 0)
(5.46121 -2.66768 0)
(7.16251 -8.87835 0)
(3.02338 -4.05935 0)
(8.74998 -0.107677 0)
(9.11217 -0.652691 0)
(9.60349 -1.27631 0)
(8.7132 -0.503193 0)
(8.65986 -1.27533 0)
(8.38577 -0.579753 0)
(7.94715 -1.48147 0)
(7.86358 -0.810943 0)
(7.34595 -1.76919 0)
(7.61117 -1.06833 0)
(7.16274 -2.25375 0)
(7.67742 -1.40308 0)
(7.02899 -2.89658 0)
(7.65429 -1.96323 0)
(7.30386 -4.27367 0)
(7.62655 -2.47075 0)
(7.20059 -6.66558 0)
(3.17949 -2.85043 0)
(4.03935 -3.1967 0)
(10.1249 -0.961858 0)
(9.526 -1.68403 0)
(9.35851 -0.66537 0)
(8.65021 -1.84349 0)
(8.63219 -0.84061 0)
(7.98634 -1.9673 0)
(7.99803 -0.946954 0)
(7.2182 -2.30217 0)
(7.67393 -1.22671 0)
(6.93598 -2.888 0)
(7.83357 -1.52204 0)
(6.96088 -3.46678 0)
(8.14781 -2.08627 0)
(7.12871 -4.84188 0)
(7.96544 -2.90907 0)
(6.87926 -6.94574 0)
(5.23584 -2.7131 0)
(3.96019 -5.26749 0)
(10.3845 -1.43688 0)
(9.22393 -2.13564 0)
(9.24134 -0.835337 0)
(8.46591 -2.25135 0)
(8.46428 -1.01366 0)
(7.88213 -2.39102 0)
(7.92967 -1.18633 0)
(7.29525 -2.70386 0)
(7.60678 -1.60159 0)
(7.00723 -3.26238 0)
(7.54985 -2.00113 0)
(7.1415 -3.79918 0)
(7.70847 -2.59538 0)
(7.26899 -4.90759 0)
(7.33948 -3.1771 0)
(6.95377 -5.79258 0)
(6.08267 -3.15714 0)
(6.18519 -5.95981 0)
(9.99117 -1.78227 0)
(8.96538 -2.4633 0)
(9.18835 -1.04602 0)
(8.35019 -2.64935 0)
(8.38695 -1.3527 0)
(7.70134 -2.71157 0)
(7.8686 -1.46092 0)
(7.29431 -2.94001 0)
(7.60504 -1.89095 0)
(7.01765 -3.4995 0)
(7.40408 -2.37454 0)
(6.93453 -4.10917 0)
(7.25804 -3.00494 0)
(6.90281 -5.02487 0)
(6.69878 -3.57343 0)
(6.80117 -5.64113 0)
(6.13193 -3.66552 0)
(6.69769 -5.98879 0)
(10.3873 -2.21043 0)
(9.37321 -2.8924 0)
(9.25222 -1.458 0)
(8.51222 -2.8251 0)
(8.20886 -1.72329 0)
(7.62911 -3.00076 0)
(7.5697 -1.99795 0)
(7.17385 -3.29353 0)
(7.33129 -2.44441 0)
(6.97259 -3.80535 0)
(7.17604 -2.90387 0)
(6.9617 -4.31454 0)
(7.03569 -3.44973 0)
(6.98537 -5.01521 0)
(6.66947 -4.05655 0)
(6.9087 -5.49976 0)
(6.35889 -4.52667 0)
(6.81693 -5.87946 0)
(10.0063 -2.52145 0)
(9.16078 -3.03433 0)
(8.97973 -1.86521 0)
(8.50591 -3.12182 0)
(8.31593 -2.23067 0)
(7.87946 -3.18912 0)
(7.69059 -2.44962 0)
(7.25348 -3.46937 0)
(7.17445 -2.92331 0)
(6.75426 -3.9928 0)
(6.7988 -3.45999 0)
(6.48718 -4.57681 0)
(6.52323 -3.96235 0)
(6.48083 -5.17169 0)
(6.21424 -4.59232 0)
(6.39937 -5.57907 0)
(6.16069 -5.0775 0)
(6.45547 -5.87879 0)
(9.81103 -3.12682 0)
(9.31578 -3.4747 0)
(8.86014 -2.57704 0)
(8.34796 -3.43429 0)
(7.93651 -2.82211 0)
(7.63387 -3.5288 0)
(7.43831 -3.07632 0)
(7.213 -3.78402 0)
(7.06108 -3.50429 0)
(6.79291 -4.25005 0)
(6.67071 -3.98108 0)
(6.42194 -4.77336 0)
(6.31881 -4.46881 0)
(6.2801 -5.2371 0)
(6.07406 -5.09491 0)
(6.15011 -5.71788 0)
(6.04081 -5.66052 0)
(6.2528 -6.15636 0)
(9.79168 -3.66841 0)
(9.14286 -3.64227 0)
(8.61277 -3.1158 0)
(8.15077 -3.70974 0)
(7.7401 -3.46737 0)
(7.43351 -3.87002 0)
(7.14948 -3.69702 0)
(6.89248 -4.0808 0)
(6.67263 -4.01971 0)
(6.44948 -4.44963 0)
(6.29962 -4.47548 0)
(6.14452 -5.00123 0)
(6.11976 -4.98665 0)
(6.08602 -5.50622 0)
(6.02073 -5.58163 0)
(6.03932 -5.95969 0)
(5.98252 -6.13534 0)
(6.03764 -6.42996 0)
(9.61469 -4.14453 0)
(9.19248 -4.02682 0)
(8.74568 -3.78813 0)
(8.19229 -4.02117 0)
(7.60869 -3.96865 0)
(7.16699 -4.17984 0)
(6.81394 -4.22205 0)
(6.54945 -4.46461 0)
(6.32891 -4.59172 0)
(6.16022 -4.86944 0)
(6.00929 -5.05128 0)
(5.88535 -5.37561 0)
(5.81354 -5.54847 0)
(5.75705 -5.87399 0)
(5.72411 -6.0405 0)
(5.69858 -6.31857 0)
(5.68147 -6.52158 0)
(5.70045 -6.71789 0)
(9.89804 -4.88258 0)
(9.10594 -4.40081 0)
(8.54585 -4.20752 0)
(7.99279 -4.33675 0)
(7.53397 -4.44299 0)
(7.18094 -4.61055 0)
(6.88952 -4.7421 0)
(6.63712 -4.89673 0)
(6.39333 -5.03033 0)
(6.16731 -5.22563 0)
(5.94996 -5.41475 0)
(5.76678 -5.66401 0)
(5.58112 -5.89316 0)
(5.44052 -6.14915 0)
(5.33773 -6.37809 0)
(5.24539 -6.61182 0)
(5.15087 -6.83147 0)
(5.10984 -7.01239 0)
(9.80933 -5.33807 0)
(8.95888 -4.73439 0)
(8.4316 -4.66901 0)
(7.93829 -4.7891 0)
(7.43198 -4.91301 0)
(6.92812 -5.04355 0)
(6.49727 -5.15507 0)
(6.11824 -5.27536 0)
(5.83089 -5.38871 0)
(5.60446 -5.53619 0)
(5.41812 -5.68978 0)
(5.27577 -5.88258 0)
(5.1458 -6.07373 0)
(5.03927 -6.28095 0)
(4.9367 -6.483 0)
(4.86337 -6.68596 0)
(4.76239 -6.8952 0)
(4.6835 -7.11143 0)
(10.0211 -5.46691 0)
(9.20562 -4.88932 0)
(8.61926 -4.86069 0)
(8.0205 -4.92111 0)
(7.38972 -4.97969 0)
(6.81444 -5.06245 0)
(6.33382 -5.19085 0)
(5.93801 -5.36662 0)
(5.61062 -5.56125 0)
(5.33848 -5.76192 0)
(5.11281 -5.95542 0)
(4.91623 -6.14125 0)
(4.75992 -6.31092 0)
(4.63387 -6.47235 0)
(4.52627 -6.61121 0)
(4.45306 -6.77286 0)
(4.38857 -6.9314 0)
(4.34744 -7.0869 0)
(9.52865 -5.44502 0)
(8.80314 -5.09915 0)
(8.20511 -4.96649 0)
(7.58059 -4.90763 0)
(6.97694 -4.94504 0)
(6.50672 -5.0739 0)
(6.13258 -5.23592 0)
(5.82454 -5.38904 0)
(5.54256 -5.52171 0)
(5.28131 -5.63709 0)
(5.02381 -5.75669 0)
(4.78994 -5.88349 0)
(4.58561 -6.0381 0)
(4.42348 -6.20034 0)
(4.28727 -6.38248 0)
(4.16905 -6.55695 0)
(4.09777 -6.72054 0)
(4.04017 -6.87527 0)
(9.69099 -5.43271 0)
(8.70867 -4.91136 0)
(7.99982 -4.7189 0)
(7.36751 -4.67111 0)
(6.82284 -4.74626 0)
(6.38364 -4.92138 0)
(5.99187 -5.11418 0)
(5.63865 -5.25942 0)
(5.3318 -5.35292 0)
(5.05349 -5.43425 0)
(4.80883 -5.51227 0)
(4.61589 -5.60753 0)
(4.43223 -5.71705 0)
(4.29012 -5.84191 0)
(4.17784 -5.97994 0)
(4.08901 -6.11567 0)
(3.9993 -6.26522 0)
(3.92898 -6.39567 0)
(9.6907 -4.97455 0)
(8.60902 -4.45728 0)
(7.93162 -4.37469 0)
(7.36254 -4.41464 0)
(6.88092 -4.50744 0)
(6.42752 -4.64671 0)
(5.98803 -4.76616 0)
(5.57834 -4.86426 0)
(5.22237 -4.93592 0)
(4.91286 -4.97632 0)
(4.66369 -5.04226 0)
(4.44756 -5.12085 0)
(4.26948 -5.22279 0)
(4.12193 -5.34738 0)
(3.9889 -5.45926 0)
(3.90324 -5.59185 0)
(3.82953 -5.69202 0)
(3.77068 -5.79596 0)
(9.89359 -4.2935 0)
(8.90029 -3.95907 0)
(8.11901 -3.99327 0)
(7.41134 -4.0559 0)
(6.8514 -4.10422 0)
(6.37975 -4.19415 0)
(5.93482 -4.29236 0)
(5.55707 -4.37992 0)
(5.21899 -4.45317 0)
(4.9252 -4.50409 0)
(4.68617 -4.55602 0)
(4.4711 -4.60285 0)
(4.27816 -4.67826 0)
(4.09506 -4.76003 0)
(3.94394 -4.86239 0)
(3.81155 -4.97821 0)
(3.71092 -5.0957 0)
(3.63818 -5.19266 0)
(9.78765 -3.79813 0)
(8.8336 -3.42992 0)
(8.21979 -3.4382 0)
(7.63519 -3.5626 0)
(7.0788 -3.66785 0)
(6.54318 -3.76711 0)
(6.05805 -3.8571 0)
(5.62296 -3.92186 0)
(5.22631 -3.9591 0)
(4.89632 -3.99013 0)
(4.60167 -3.99285 0)
(4.36114 -4.02255 0)
(4.1606 -4.05664 0)
(3.99367 -4.11179 0)
(3.85947 -4.18698 0)
(3.7479 -4.27274 0)
(3.6853 -4.36472 0)
(3.62761 -4.44989 0)
(9.54935 -3.22449 0)
(8.57855 -3.07925 0)
(8.00514 -3.16429 0)
(7.49143 -3.18735 0)
(7.01306 -3.18075 0)
(6.56367 -3.20971 0)
(6.1232 -3.27245 0)
(5.67495 -3.32292 0)
(5.27531 -3.35687 0)
(4.90865 -3.37919 0)
(4.63989 -3.39296 0)
(4.42136 -3.42437 0)
(4.26159 -3.46658 0)
(4.12929 -3.53304 0)
(4.0074 -3.62001 0)
(3.91543 -3.7071 0)
(3.83402 -3.80592 0)
(3.76752 -3.8855 0)
(9.63437 -2.70136 0)
(8.73157 -2.62432 0)
(8.1307 -2.74691 0)
(7.56213 -2.81753 0)
(7.05094 -2.85929 0)
(6.56317 -2.86823 0)
(6.10099 -2.85199 0)
(5.66105 -2.84852 0)
(5.26203 -2.85535 0)
(4.91664 -2.88038 0)
(4.65173 -2.91588 0)
(4.45154 -2.94077 0)
(4.32026 -2.98365 0)
(4.21124 -2.9991 0)
(4.14067 -3.0355 0)
(4.072 -3.06096 0)
(4.02154 -3.10654 0)
(3.95975 -3.1495 0)
(9.79538 -2.35318 0)
(8.94615 -2.29808 0)
(8.42049 -2.36802 0)
(7.9197 -2.37123 0)
(7.41024 -2.33858 0)
(6.91479 -2.32445 0)
(6.44144 -2.32592 0)
(6.0004 -2.32781 0)
(5.59045 -2.33186 0)
(5.21828 -2.34655 0)
(4.89035 -2.37168 0)
(4.61369 -2.41815 0)
(4.39594 -2.46877 0)
(4.22375 -2.51565 0)
(4.08885 -2.55711 0)
(3.98841 -2.5898 0)
(3.92775 -2.62724 0)
(3.89245 -2.65591 0)
(9.74099 -1.872 0)
(8.97871 -1.96784 0)
(8.57579 -2.08053 0)
(8.08672 -2.09047 0)
(7.53315 -2.06413 0)
(6.97073 -2.01544 0)
(6.44635 -1.95737 0)
(5.98215 -1.90604 0)
(5.56847 -1.86394 0)
(5.22378 -1.84716 0)
(4.92665 -1.86308 0)
(4.70851 -1.89586 0)
(4.52184 -1.94497 0)
(4.37663 -1.97562 0)
(4.25288 -2.01421 0)
(4.14564 -2.03547 0)
(4.05417 -2.05583 0)
(3.96929 -2.08427 0)
(9.53913 -1.50506 0)
(9.21014 -1.80946 0)
(8.99726 -1.77807 0)
(8.45582 -1.6611 0)
(7.74332 -1.57772 0)
(7.02259 -1.52822 0)
(6.41417 -1.49827 0)
(5.91766 -1.46659 0)
(5.52003 -1.4434 0)
(5.17232 -1.43816 0)
(4.85879 -1.45107 0)
(4.57105 -1.48303 0)
(4.29212 -1.51843 0)
(4.02914 -1.54501 0)
(3.8051 -1.5628 0)
(3.60593 -1.58043 0)
(3.44109 -1.57582 0)
(3.30386 -1.57813 0)
(9.88124 -1.26072 0)
(9.28239 -1.66058 0)
(8.69384 -1.49714 0)
(7.92442 -1.29722 0)
(7.06555 -1.18405 0)
(6.20504 -1.12993 0)
(5.39062 -1.10602 0)
(4.66797 -1.07387 0)
(4.0377 -1.04336 0)
(3.48717 -1.01618 0)
(3.01499 -0.998689 0)
(2.59284 -0.993679 0)
(2.21266 -1.00554 0)
(1.86349 -1.00779 0)
(1.57012 -1.0241 0)
(1.30654 -1.03636 0)
(1.09506 -1.0418 0)
(0.910025 -1.04457 0)
(9.80824 -1.09791 0)
(8.6025 -1.39501 0)
(7.18485 -1.15532 0)
(5.65684 -0.926708 0)
(4.26418 -0.738211 0)
(3.03648 -0.619067 0)
(1.98634 -0.556762 0)
(1.11381 -0.526302 0)
(0.377142 -0.511871 0)
(-0.227469 -0.50286 0)
(-0.736734 -0.507214 0)
(-1.16565 -0.510328 0)
(-1.54464 -0.525022 0)
(-1.88217 -0.531518 0)
(-2.15804 -0.541997 0)
(-2.39759 -0.551946 0)
(-2.58699 -0.574959 0)
(-2.74627 -0.584457 0)
(8.2948 -0.604294 0)
(4.81544 -0.500357 0)
(2.26824 -0.246707 0)
(0.494921 -0.144061 0)
(-0.673917 -0.10206 0)
(-1.53009 -0.0954849 0)
(-2.19243 -0.104372 0)
(-2.74206 -0.120671 0)
(-3.20775 -0.128824 0)
(-3.59918 -0.13279 0)
(-3.93381 -0.13829 0)
(-4.21866 -0.140134 0)
(-4.46754 -0.146663 0)
(-4.68542 -0.15146 0)
(-4.86587 -0.151435 0)
(-5.02759 -0.164246 0)
(-5.1725 -0.179271 0)
(-5.33116 -0.181267 0)
(-0.114017 -0.428638 0)
(-0.290004 -0.460586 0)
(-0.443333 -0.461698 0)
(-0.595121 -0.456215 0)
(-0.747017 -0.448733 0)
(-0.898314 -0.443596 0)
(-1.0469 -0.438873 1.10746e-17)
(-1.19443 -0.431479 -1.09975e-17)
(-1.34119 -0.419661 0)
(-1.49155 -0.406517 -1.08568e-17)
(-1.64821 -0.393175 0)
(-1.80731 -0.380758 0)
(-1.96432 -0.37288 0)
(-2.11979 -0.365465 1.05962e-17)
(-2.27231 -0.360355 0)
(-2.41263 -0.359209 0)
(-2.56222 -0.355572 -1.04208e-17)
(-2.70069 -0.363778 0)
(-2.79608 -0.361338 0)
(-2.87336 -0.350013 0)
(-2.95285 -0.348762 1.01613e-17)
(-3.02334 -0.357862 0)
(-3.0922 -0.351885 1.00528e-17)
(-3.19106 -0.30655 0)
(-3.34293 -0.172335 0)
(-3.52495 0.000365385 9.88988e-18)
(-3.64666 0.0773724 0)
(-3.60791 0.107585 -9.77925e-18)
(-3.44757 -0.0126585 0)
(-3.29638 -0.362193 9.69226e-18)
(-3.17956 -0.847144 0)
(-3.08962 -1.278 0)
(-3.01735 -1.37978 0)
(-3.08077 -0.98175 0)
(-3.4911 -0.327485 0)
(-4.17854 0.201732 -9.49017e-18)
(-4.99385 0.501312 0)
(-5.84732 0.622763 1.86113e-17)
(-6.65139 0.646872 0)
(-7.38127 0.605726 -1.83023e-17)
(-8.01621 0.536331 0)
(-8.55162 0.468665 0)
(-8.95512 0.400859 1.78974e-17)
(-9.26849 0.324639 0)
(-9.49906 0.250374 1.76466e-17)
(-9.61616 0.186738 -1.75264e-17)
(-9.63681 0.133402 0)
(-9.58074 0.0724006 -1.72949e-17)
(-9.43702 0.0144346 -1.71832e-17)
(-9.21189 -0.0491982 0)
(-8.91953 -0.0997226 0)
(-8.5695 -0.141907 0)
(-8.17846 -0.186339 0)
(-7.73836 -0.224886 0)
(-7.2464 -0.250281 1.65572e-17)
(-6.74704 -0.267303 0)
(-6.21424 -0.282778 -1.63635e-17)
(-5.65594 -0.309638 0)
(-5.07305 -0.325271 0)
(-4.48009 -0.350662 1.60836e-17)
(-3.87101 -0.372392 0)
(-3.26598 -0.383464 -1.58997e-17)
(-2.64771 -0.388039 0)
(-2.01837 -0.406658 0)
(-1.40467 -0.423342 0)
(-0.763509 -0.432748 1.55399e-17)
(-0.113914 -0.455293 0)
(0.526806 -0.463055 0)
(1.1631 -0.469983 1.52701e-17)
(1.79765 -0.48299 0)
(2.43297 -0.488961 1.50902e-17)
(3.05507 -0.501352 0)
(3.661 -0.497443 0)
(4.24699 -0.497985 0)
(4.80683 -0.494977 -1.47054e-17)
(5.33979 -0.488893 0)
(5.84945 -0.485723 0)
(6.33815 -0.483295 -1.4396e-17)
(6.81704 -0.485413 -1.42891e-17)
(7.28637 -0.484195 0)
(7.70097 -0.474885 -1.40673e-17)
(8.04584 -0.46746 0)
(8.33029 -0.47325 -2.77155e-17)
(8.57407 -0.475534 0)
(8.86957 -0.490541 -2.7351e-17)
(9.23572 -0.491593 0)
(9.58227 -0.473522 2.69759e-17)
(9.8132 -0.450303 0)
(9.9486 -0.434874 0)
(9.99067 -0.456918 0)
(9.97235 -0.476213 -2.61596e-17)
(9.98216 -0.491825 0)
(9.99679 -0.493233 2.57426e-17)
(9.97121 -0.507251 0)
(9.90939 -0.515807 -2.53164e-17)
(9.98676 -0.526493 -2.51042e-17)
(10.0829 -0.557299 -2.4907e-17)
(10.0248 -0.579891 0)
(9.97325 -0.48863 0)
(9.82026 -0.358521 0)
(9.44015 -0.209544 0)
(9.14112 -0.267813 0)
(8.71929 -0.408433 0)
(8.08381 -0.469977 0)
(7.7074 -0.600033 0)
(7.88037 -0.845973 2.26854e-17)
(8.70125 -1.01623 2.257e-17)
(9.82589 -1.02647 0)
(10.7774 -0.981378 0)
(11.2071 -0.917961 0)
(11.0727 -0.846289 2.26336e-17)
(10.5489 -0.663932 0)
(9.15425 -0.208275 0)
(6.89233 0.12079 0)
(5.03291 -0.0672715 0)
(3.37117 -0.281323 -2.17265e-17)
(2.17391 -0.563284 0)
(2.05595 -0.992983 0)
(2.4218 -1.26769 2.11694e-17)
(2.86317 -1.30489 -2.10778e-17)
(2.88492 -1.31305 0)
(2.58988 -1.1346 -2.09465e-17)
(1.17183 -0.640291 0)
(-0.333143 -0.542799 2.04545e-17)
(-1.21081 -0.997153 0)
(0.183182 -1.35272 0)
(-0.440385 -1.11592 0)
(-1.37969 -1.15695 0)
(-0.548119 -1.70886 0)
(0.959875 -1.69554 -3.86313e-17)
(1.28458 -1.73867 -3.83598e-17)
(2.49085 -1.8088 0)
(3.07936 -1.79162 0)
(3.97468 -1.83546 0)
(4.76875 -1.84874 3.79544e-17)
(5.5722 -1.9071 0)
(6.35722 -1.8612 0)
(7.23574 -1.87078 0)
(7.94809 -1.80032 3.75266e-17)
(8.35077 -1.77626 -3.75563e-17)
(8.4004 -1.90772 0)
(8.3088 -2.09005 0)
(8.20768 -2.31272 -3.70697e-17)
(8.30903 -2.44135 -3.67843e-17)
(8.70421 -2.50144 0)
(9.38226 -2.62623 0)
(10.1574 -2.81089 3.59127e-17)
(11.0331 -2.90164 -3.55521e-17)
(11.9708 -2.88675 0)
(12.9863 -2.92264 0)
(14.2647 -3.09371 -3.43615e-17)
(15.8352 -3.31699 0)
(17.7493 -3.50504 0)
(19.6025 -3.57812 -3.36183e-17)
(20.8344 -3.49979 0)
(21.7578 -3.50431 -3.29572e-17)
(22.2389 -3.51526 0)
(22.1422 -3.63464 0)
(22.0707 -3.318 0)
(20.4172 -3.1711 3.23505e-17)
(17.789 -3.55187 0)
(16.7111 -3.90795 0)
(14.3538 -3.70704 0)
(8.83636 -2.78711 0)
(3.52809 -2.86082 0)
(1.08885 -3.35714 0)
(0.794156 -4.44234 3.06448e-17)
(1.56174 -4.03639 3.15489e-17)
(-0.638214 -4.12355 0)
(0.0495189 -4.37575 0)
(-1.98563 -3.51262 0)
(-5.85679 -3.529 -3.00207e-17)
(-6.41297 -4.49669 0)
(-4.08953 -4.34828 6.07499e-17)
(-1.5558 -3.63563 -6.07335e-17)
(-0.588038 -2.92282 -6.12001e-17)
(-3.1736 -2.60535 6.10269e-17)
(-7.30744 -2.81103 -6.05875e-17)
(-9.97331 -2.53238 5.71107e-17)
(-12.2958 -2.23479 0)
(-0.129136 -1.2449 0)
(-0.321033 -1.37043 0)
(-0.474322 -1.41525 -2.2851e-17)
(-0.588135 -1.4242 0)
(-0.687372 -1.41445 2.22587e-17)
(-0.791809 -1.40665 2.20434e-17)
(-0.899065 -1.39743 1.09276e-17)
(-1.01361 -1.38062 1.08363e-17)
(-1.13554 -1.35071 0)
(-1.25776 -1.30934 1.06719e-17)
(-1.38273 -1.26791 0)
(-1.52375 -1.23326 0)
(-1.65658 -1.20799 -2.08878e-17)
(-1.78152 -1.17594 -1.0373e-17)
(-1.91075 -1.14337 2.06061e-17)
(-2.03269 -1.10274 2.04679e-17)
(-2.14999 -1.02273 1.01666e-17)
(-2.24042 -1.06627 0)
(-2.27837 -1.11082 0)
(-2.31631 -1.05262 0)
(-2.40455 -0.958871 9.90078e-18)
(-2.49965 -0.885377 0)
(-2.50735 -0.778781 -2.9406e-17)
(-2.44456 -0.651787 0)
(-2.37253 -0.550371 0)
(-2.3042 -0.668025 -9.64368e-18)
(-2.44 -1.12985 0)
(-2.72444 -1.53864 9.60765e-18)
(-3.11067 -1.44162 1.93492e-17)
(-3.7805 -0.918441 -9.75369e-18)
(-4.81726 -0.275629 0)
(-6.09242 0.314621 0)
(-7.36457 0.811019 0)
(-8.49004 1.2067 1.89306e-17)
(-9.47155 1.50081 1.8807e-17)
(-10.2865 1.65074 9.34385e-18)
(-10.9706 1.65046 0)
(-11.5533 1.5737 -1.84193e-17)
(-12.0474 1.44751 0)
(-12.4661 1.27332 1.81807e-17)
(-12.7876 1.06833 0)
(-13.0119 0.841048 0)
(-13.1595 0.620781 -1.78385e-17)
(-13.2262 0.418714 0)
(-13.1877 0.224372 -5.28543e-17)
(-13.0662 0.0492547 1.7514e-17)
(-12.8955 -0.132859 0)
(-12.6433 -0.311708 1.7308e-17)
(-12.2877 -0.480057 1.72066e-17)
(-11.8742 -0.63426 0)
(-11.3978 -0.770981 0)
(-10.8817 -0.875728 0)
(-10.3346 -0.967091 0)
(-9.74316 -1.04986 0)
(-9.10415 -1.11295 -1.66147e-17)
(-8.46054 -1.19024 -3.30458e-17)
(-7.78674 -1.2636 1.64343e-17)
(-7.09253 -1.34832 0)
(-6.38135 -1.39637 -3.25144e-17)
(-5.68165 -1.42827 1.61684e-17)
(-4.94432 -1.44549 0)
(-4.1962 -1.49518 1.59899e-17)
(-3.45754 -1.53301 0)
(-2.72473 -1.57463 0)
(-1.97183 -1.60839 3.14634e-17)
(-1.20174 -1.6535 -1.56492e-17)
(-0.434628 -1.70224 3.11277e-17)
(0.318113 -1.71486 -3.09527e-17)
(1.0724 -1.73047 -1.53919e-17)
(1.82037 -1.77831 0)
(2.55607 -1.78878 -1.52248e-17)
(3.27911 -1.80962 0)
(3.95783 -1.79435 0)
(4.6234 -1.79585 0)
(5.26467 -1.78724 -1.48511e-17)
(5.8495 -1.77738 0)
(6.39848 -1.78043 -2.92932e-17)
(6.92993 -1.79083 4.36123e-17)
(7.45305 -1.82038 1.44251e-17)
(8.00371 -1.82064 0)
(8.5446 -1.72263 1.41441e-17)
(9.042 -1.60996 0)
(9.47247 -1.56305 2.76777e-17)
(9.7601 -1.58782 0)
(10.0938 -1.77155 2.74074e-17)
(10.5822 -1.91303 -5.46237e-17)
(11.1456 -1.80248 -2.70805e-17)
(11.6602 -1.60569 0)
(11.9178 -1.43355 0)
(11.9858 -1.37803 0)
(12.0677 -1.42151 2.58867e-17)
(12.1962 -1.41241 0)
(12.2458 -1.32414 -2.54712e-17)
(12.1693 -1.3697 0)
(12.1074 -1.45729 7.49466e-17)
(12.1713 -1.52897 2.47697e-17)
(12.2433 -1.52316 2.4575e-17)
(12.0991 -1.31379 0)
(11.893 -1.15175 0)
(11.4458 -1.29066 0)
(10.8928 -1.26258 0)
(10.7512 -1.19261 0)
(10.5194 -0.909295 4.64756e-17)
(9.99917 -0.722724 4.58848e-17)
(9.38905 -1.28557 0)
(9.21933 -2.30935 -2.19584e-17)
(9.81631 -3.23426 -2.1804e-17)
(10.5366 -3.42248 0)
(11.0718 -2.73718 -4.40221e-17)
(10.6794 -1.99485 0)
(9.54127 -1.34803 2.21151e-17)
(7.84714 -0.374109 0)
(5.98097 0.196898 0)
(4.53427 0.0936271 -4.3179e-17)
(3.18483 -0.30848 0)
(1.73189 -0.87613 2.10295e-17)
(1.04672 -1.95466 0)
(0.82765 -2.95854 0)
(0.75271 -3.37833 2.10303e-17)
(0.814342 -3.23689 2.07512e-17)
(0.655036 -2.80121 0)
(0.282568 -2.032 -2.04012e-17)
(-1.07084 -1.80417 0)
(-1.72677 -2.56609 1.96319e-17)
(-2.43233 -4.14517 3.8997e-17)
(-0.26794 -4.59138 0)
(-1.19024 -3.10222 0)
(-1.2741 -4.10097 0)
(-0.515481 -5.77249 0)
(1.70783 -5.42615 3.70432e-17)
(2.44512 -5.33188 1.10272e-16)
(3.69758 -5.68313 0)
(4.53819 -5.71183 0)
(5.38725 -5.93331 0)
(6.10504 -6.04123 -3.74378e-17)
(6.92337 -6.3086 0)
(7.55815 -6.38907 0)
(8.51785 -6.61023 7.37296e-17)
(9.73778 -6.6223 3.63397e-17)
(11.1481 -6.41152 3.58797e-17)
(12.277 -6.13962 0)
(12.9098 -6.06378 0)
(13.069 -6.12721 3.56463e-17)
(12.9981 -6.51765 -3.57042e-17)
(12.8346 -7.11244 0)
(12.9034 -7.54423 0)
(13.2027 -7.684 -3.45625e-17)
(13.6558 -7.94367 1.02503e-16)
(13.9905 -8.28823 0)
(14.4121 -8.69416 0)
(15.2248 -9.26765 3.21541e-17)
(16.3896 -9.85228 0)
(18.3816 -10.3472 6.189e-17)
(20.2498 -10.3246 -3.0779e-17)
(21.1418 -10.1091 0)
(21.6896 -10.1796 2.97967e-17)
(21.7947 -9.95823 5.94857e-17)
(20.5337 -10.3978 0)
(20.4888 -9.97278 0)
(19.5025 -9.28786 -2.91946e-17)
(15.6398 -10.0432 0)
(13.1609 -10.1205 6.12749e-17)
(8.54348 -8.85102 0)
(1.47824 -7.97678 0)
(-1.53549 -10.9962 0)
(-1.91031 -12.2901 0)
(-3.24265 -13.6208 -2.99621e-17)
(-2.34416 -12.9656 -3.13259e-17)
(0.286949 -12.2905 0)
(2.58186 -12.6905 0)
(-0.359181 -10.7202 0)
(-2.00302 -10.7537 2.6497e-17)
(-2.67481 -12.9377 0)
(-0.102626 -13.6872 -5.90809e-17)
(2.48178 -12.9388 5.89623e-17)
(5.60738 -10.5379 5.95158e-17)
(5.61649 -7.54935 5.71946e-17)
(1.00754 -6.81143 5.8848e-17)
(-5.14581 -7.22207 5.62848e-17)
(-7.49431 -6.85864 0)
(-0.13857 -1.99244 0)
(-0.367626 -2.22908 0)
(-0.532699 -2.40586 2.31688e-17)
(-0.615167 -2.497 2.28777e-17)
(-0.664445 -2.494 -2.26002e-17)
(-0.715922 -2.46026 -2.23556e-17)
(-0.780952 -2.41575 3.02029e-21)
(-0.874917 -2.35437 0)
(-1.00579 -2.29977 0)
(-1.14702 -2.23994 0)
(-1.27465 -2.15154 0)
(-1.43245 -2.08258 0)
(-1.58074 -2.06091 6.27996e-17)
(-1.71416 -2.00181 0)
(-1.80806 -1.95023 -2.06267e-17)
(-1.91036 -1.94077 -2.04603e-17)
(-1.97283 -1.91568 0)
(-2.13283 -2.00177 0)
(-2.21986 -2.00833 0)
(-2.17529 -1.84493 0)
(-2.12387 -1.67136 -1.97286e-17)
(-2.13276 -1.79934 0)
(-2.36016 -2.01976 1.96016e-17)
(-2.71346 -2.01381 0)
(-3.15808 -1.58087 0)
(-3.81279 -0.898913 0)
(-4.82062 -0.232 3.92615e-17)
(-6.08702 0.353829 0)
(-7.3257 0.869215 -1.94803e-17)
(-8.49037 1.3051 3.8779e-17)
(-9.58062 1.65921 0)
(-10.5669 1.91089 0)
(-11.4624 2.10296 0)
(-12.2405 2.2092 -1.90723e-17)
(-12.8867 2.26355 -1.89822e-17)
(-13.4154 2.25982 0)
(-13.7807 2.17022 0)
(-14.046 1.99606 3.72844e-17)
(-14.2216 1.75234 3.70567e-17)
(-14.3041 1.46384 -3.68284e-17)
(-14.3317 1.15647 0)
(-14.2899 0.851943 0)
(-14.1948 0.550147 0)
(-14.0585 0.262834 0)
(-13.8308 -0.023859 3.56971e-17)
(-13.5492 -0.306602 3.5461e-17)
(-13.2217 -0.585841 -3.52335e-17)
(-12.828 -0.833176 0)
(-12.38 -1.06193 0)
(-11.889 -1.27475 0)
(-11.3451 -1.4732 0)
(-10.7501 -1.64236 3.41388e-17)
(-10.1526 -1.7987 0)
(-9.48871 -1.90975 0)
(-8.79204 -2.02814 3.3508e-17)
(-8.09621 -2.15289 3.33003e-17)
(-7.40439 -2.27299 0)
(-6.726 -2.36416 -6.57707e-17)
(-6.00115 -2.43129 3.26808e-17)
(-5.27198 -2.4731 -3.24819e-17)
(-4.56535 -2.50117 0)
(-3.84843 -2.57385 0)
(-3.08793 -2.66911 0)
(-2.35672 -2.71703 0)
(-1.61414 -2.76683 -3.14963e-17)
(-0.865233 -2.83766 -6.26105e-17)
(-0.0944929 -2.90715 -3.11157e-17)
(0.660953 -2.9515 3.09413e-17)
(1.41999 -2.97688 0)
(2.17706 -3.02511 -6.1184e-17)
(2.92016 -3.02993 -6.08618e-17)
(3.64602 -3.03597 -6.05448e-17)
(4.34291 -2.98728 6.02033e-17)
(5.00992 -2.97945 0)
(5.63763 -2.93368 8.93467e-17)
(6.22991 -2.87421 0)
(6.78156 -2.84668 -2.94701e-17)
(7.28009 -2.85435 -2.93021e-17)
(7.76277 -2.9387 0)
(8.1803 -3.04255 0)
(8.64656 -2.99258 -5.73962e-17)
(9.18772 -2.86063 0)
(9.78679 -2.72618 -5.60146e-17)
(10.2783 -2.62553 0)
(10.7174 -2.93203 5.55585e-17)
(11.1687 -3.27129 1.11505e-16)
(11.6486 -3.23606 0)
(12.1999 -2.97565 0)
(12.4624 -2.55791 0)
(12.3797 -2.37645 5.27463e-17)
(12.4081 -2.51281 0)
(12.6284 -2.55006 5.1994e-17)
(12.926 -2.41333 0)
(13.0626 -2.2823 0)
(13.0773 -2.49543 -1.00977e-16)
(13.1591 -2.71541 0)
(13.5488 -2.58985 -4.98077e-17)
(13.6849 -2.38301 0)
(13.9652 -2.18185 -4.85891e-17)
(14.32 -1.66495 0)
(13.8671 -1.34833 0)
(13.0834 -1.82971 0)
(12.3555 -1.90692 -1.38174e-16)
(11.9411 -1.73005 -4.58703e-17)
(11.4415 -2.22556 0)
(11.1641 -3.52314 0)
(11.0612 -4.59173 0)
(10.3469 -4.48026 0)
(9.60106 -3.32481 4.4554e-17)
(8.52925 -2.15806 -8.81766e-17)
(6.77161 -1.24533 -4.38521e-17)
(5.06297 -0.442834 8.71451e-17)
(3.89497 -0.401382 8.63291e-17)
(3.14037 -0.795344 4.28297e-17)
(1.95097 -0.980484 0)
(0.841023 -1.81509 8.54394e-17)
(0.0678884 -3.17951 0)
(-0.843545 -4.29563 -8.51137e-17)
(-0.891934 -5.12189 -4.14476e-17)
(-0.749419 -5.24517 0)
(-0.0403605 -5.02395 8.10362e-17)
(0.141583 -4.04797 4.03072e-17)
(-1.00669 -3.70507 0)
(-2.13469 -4.56881 3.99233e-17)
(-3.20775 -6.78968 -1.20989e-16)
(-2.16698 -7.47315 0)
(-1.55814 -5.66071 0)
(0.903558 -6.8943 0)
(0.960114 -9.63208 0)
(2.70835 -9.64964 -7.95791e-17)
(3.97647 -8.99605 -7.58952e-17)
(5.36497 -9.40603 0)
(6.43082 -9.36323 0)
(7.21465 -9.50923 0)
(7.78273 -9.66941 0)
(8.33886 -9.98742 0)
(8.58185 -10.1561 0)
(8.85181 -10.7924 -7.79464e-17)
(9.47527 -11.1325 2.9317e-20)
(10.5724 -11.3123 0)
(11.9342 -11.0471 0)
(13.2225 -10.6927 -7.02842e-17)
(14.1027 -10.6673 0)
(14.6636 -10.9185 6.96132e-17)
(15.0918 -11.2385 6.97085e-17)
(15.2759 -11.826 0)
(15.2089 -12.5901 0)
(15.5714 -13.0495 -6.71666e-17)
(16.0921 -13.2775 -1.33296e-16)
(16.4219 -13.7695 0)
(16.8573 -14.7661 0)
(17.1239 -15.9607 0)
(18.4336 -16.9648 -6.10965e-17)
(20.2625 -16.8943 5.91759e-17)
(21.0985 -16.3632 0)
(21.3552 -16.377 1.14916e-16)
(20.2423 -15.6943 5.69016e-17)
(18.6208 -16.6976 -1.11788e-16)
(18.5481 -16.6147 0)
(18.4406 -15.0369 0)
(13.8704 -15.4658 -1.17995e-16)
(10.1361 -15.8757 -6.07589e-17)
(5.55882 -14.3673 0)
(0.657085 -14.1734 0)
(0.116402 -19.1005 0)
(-0.878671 -19.8688 0)
(-3.12009 -22.6749 -1.17996e-16)
(-3.4351 -23.4118 0)
(-2.36029 -23.9138 0)
(5.55366 -22.3579 0)
(3.50228 -17.9297 0)
(2.28058 -18.2773 0)
(0.805604 -21.5284 0)
(3.91234 -22.3457 -1.20441e-16)
(5.53958 -21.5387 0)
(7.46237 -18.9361 0)
(8.92752 -13.6318 -2.37622e-16)
(7.06372 -10.6485 1.16315e-16)
(0.438653 -10.703 -1.16695e-16)
(-4.63028 -11.4431 1.06536e-16)
(-0.142429 -2.66909 0)
(-0.383829 -3.00504 -4.73716e-17)
(-0.544154 -3.38695 0)
(-0.601144 -3.64585 -2.31045e-17)
(-0.61061 -3.68084 0)
(-0.625683 -3.60033 0)
(-0.666759 -3.48209 2.23521e-17)
(-0.753749 -3.30795 0)
(-0.884078 -3.14519 0)
(-1.08219 -3.07812 0)
(-1.28925 -2.96336 0)
(-1.4972 -2.86449 0)
(-1.71086 -2.81872 -8.39454e-17)
(-1.86222 -2.83376 -4.16536e-17)
(-2.07354 -2.86349 4.12369e-17)
(-2.28053 -2.73583 0)
(-2.2273 -2.43103 0)
(-2.29173 -2.50693 0)
(-2.49921 -2.85164 0)
(-2.84104 -2.96556 0)
(-3.30029 -2.49857 -4.03767e-17)
(-3.9689 -1.7871 -4.03987e-17)
(-4.88533 -1.15965 4.03198e-17)
(-5.89296 -0.577569 -4.00511e-17)
(-6.92769 0.0226701 0)
(-7.91114 0.657481 0)
(-8.90587 1.18606 -3.9519e-17)
(-9.85155 1.62034 0)
(-10.7522 1.99696 0)
(-11.628 2.32787 -3.92174e-17)
(-12.3999 2.58178 -3.9116e-17)
(-13.0333 2.71895 -3.89782e-17)
(-13.5407 2.75578 0)
(-13.9414 2.71498 0)
(-14.2452 2.60773 3.8209e-17)
(-14.473 2.4605 0)
(-14.5968 2.25235 0)
(-14.6573 1.9487 -3.72593e-17)
(-14.649 1.62077 3.69345e-17)
(-14.5826 1.25912 -3.66521e-17)
(-14.476 0.891444 0)
(-14.3281 0.533776 0)
(-14.1413 0.17849 -7.17516e-17)
(-13.8896 -0.164851 0)
(-13.5759 -0.517429 -7.07711e-17)
(-13.2383 -0.857822 -1.05433e-16)
(-12.853 -1.18183 1.04731e-16)
(-12.4258 -1.49937 -6.93194e-17)
(-11.9591 -1.77016 0)
(-11.4358 -2.04371 0)
(-10.8718 -2.29679 -6.79976e-17)
(-10.2968 -2.52938 -3.37955e-17)
(-9.65605 -2.75063 0)
(-8.97394 -2.92256 0)
(-8.29693 -3.07204 -3.31772e-17)
(-7.6317 -3.19659 -6.59192e-17)
(-6.93516 -3.304 0)
(-6.23874 -3.37559 6.51383e-17)
(-5.59195 -3.45721 -6.47259e-17)
(-4.95571 -3.51879 6.43286e-17)
(-4.26342 -3.59512 0)
(-3.61528 -3.67578 0)
(-2.93601 -3.7826 0)
(-2.30322 -3.85972 0)
(-1.58851 -3.95862 0)
(-0.882797 -4.05164 6.19491e-17)
(-0.174457 -4.13957 0)
(0.55105 -4.21346 0)
(1.30333 -4.27102 0)
(2.06523 -4.32569 1.20901e-16)
(2.80521 -4.33824 6.01161e-17)
(3.53124 -4.33617 5.98147e-17)
(4.29501 -4.2865 -1.19004e-16)
(5.01656 -4.24661 5.91902e-17)
(5.71067 -4.20509 -5.89393e-17)
(6.33763 -4.1497 0)
(6.96632 -4.11489 5.85278e-17)
(7.52401 -4.07756 0)
(8.10578 -4.06818 0)
(8.54244 -4.15242 0)
(8.89522 -4.23153 1.14799e-16)
(9.29886 -4.21608 -5.6913e-17)
(9.75459 -4.16475 -5.63263e-17)
(10.3678 -4.01735 -1.11346e-16)
(10.9908 -4.27517 -1.65575e-16)
(11.4469 -4.66577 -5.51976e-17)
(11.9453 -4.67888 0)
(12.393 -4.19224 -1.09927e-16)
(12.5473 -3.43414 0)
(12.5457 -3.13427 -1.59416e-16)
(12.6046 -3.57113 0)
(12.7794 -3.88166 -1.60224e-16)
(13.1983 -3.65128 0)
(13.5356 -3.36769 0)
(13.6422 -3.55598 -5.16617e-17)
(13.7741 -4.02232 0)
(14.0595 -4.08086 5.1296e-17)
(14.4161 -3.65137 1.01312e-16)
(15.0124 -3.60943 5.02838e-17)
(15.5365 -3.32398 9.87861e-17)
(15.3977 -2.42668 -9.56505e-17)
(15.2523 -2.06635 -9.39365e-17)
(14.8923 -2.19893 1.85244e-16)
(14.3566 -2.18475 0)
(13.957 -2.57503 0)
(13.2311 -3.92839 9.07529e-17)
(12.2875 -4.83479 -8.9227e-17)
(10.9168 -4.66273 0)
(9.41165 -3.53409 0)
(7.80847 -2.15717 8.8526e-17)
(5.69394 -1.09592 0)
(4.10774 -0.673918 -3.04256e-20)
(3.13967 -1.16753 -3.07344e-20)
(1.82355 -1.45775 8.90996e-17)
(0.424521 -1.68166 0)
(-0.346217 -3.01141 -8.59643e-17)
(-1.13777 -4.52598 0)
(-1.49192 -6.29649 8.43636e-17)
(-1.31156 -7.68647 0)
(-1.33334 -8.00601 0)
(-0.445129 -7.76123 -8.16143e-17)
(0.438461 -5.99462 -7.92142e-17)
(0.443586 -5.26052 0)
(-1.81064 -5.63859 -8.08201e-17)
(-2.45785 -9.05145 1.62047e-16)
(-1.77955 -10.8363 0)
(-1.01593 -10.8915 0)
(3.34596 -11.3264 0)
(3.71683 -12.8227 0)
(4.26587 -13.8577 8.5066e-17)
(4.60631 -13.176 -1.62163e-16)
(6.7812 -13.719 0)
(7.91067 -13.2829 0)