/*--------------------------------*- C++ -*----------------------------------*\
| =========                 |                                                 |
| \\      /  F ield         | OpenFOAM: The Open Source CFD Toolbox           |
|  \\    /   O peration     | Version:  dev                                   |
|   \\  /    A nd           | Web:      http://www.openfoam.org               |
|    \\/     M anipulation  |                                                 |
\*---------------------------------------------------------------------------*/
FoamFile
{
    version     2.0;
    format      ascii;
    class       volVectorField;
    object      U_0;
    location    "9.159";
}
// * * * * * * * * * * * * * * * * * * * * * * * * * * * * * * * * * * * * * //

dimensions      [0 1 -1 0 0 0 0];

internalField   nonuniform List<vector> 
12225
(
(6.72724 0.301313 0)
(3.29826 0.091494 0)
(0.876662 -0.0688195 0)
(0.120825 -0.101007 0)
(-1.3324 -0.0888736 0)
(-1.05227 -0.151844 0)
(-2.42209 -0.0847345 0)
(-1.63849 -0.184398 0)
(-2.92458 -0.088231 0)
(-1.5745 -0.287181 0)
(-2.89365 -0.0678579 0)
(-0.527719 -0.432624 0)
(-2.09989 -0.0609059 0)
(2.28891 -0.579661 0)
(1.50168 -0.500596 0)
(8.05182 -1.80049 0)
(21.1635 -1.95726 0)
(17.4556 2.62482 0)
(9.49955 0.744454 0)
(8.15504 0.647741 0)
(4.74687 0.239004 0)
(4.36183 -0.00708014 0)
(0.945003 -0.105613 0)
(2.18865 -0.217675 0)
(-1.51334 -0.159263 0)
(0.909638 -0.341104 0)
(-3.33922 -0.145681 0)
(0.543574 -0.558138 0)
(-4.67076 -0.189948 0)
(1.80805 -0.923221 0)
(-5.08563 -0.505615 0)
(5.79363 -1.89662 0)
(-2.061 -1.75964 0)
(10.9921 -6.28116 0)
(8.41996 -2.76809 0)
(9.18371 0.319851 0)
(9.0965 0.447496 0)
(10.6744 0.663552 0)
(6.66364 0.306365 0)
(8.45281 0.0895528 0)
(3.43728 -0.0942699 0)
(6.55829 -0.143469 0)
(0.885506 -0.262601 0)
(5.28899 -0.309712 0)
(-1.14325 -0.367613 0)
(5.03197 -0.650626 0)
(-2.197 -0.573869 0)
(5.79186 -1.28287 0)
(-1.79678 -1.03587 0)
(6.44929 -2.47412 0)
(-0.320998 -2.17241 0)
(7.84114 -5.81041 0)
(3.56068 -2.29359 0)
(6.56878 -0.416672 0)
(7.35061 -0.128566 0)
(12.4033 0.432391 0)
(6.76444 0.205617 0)
(11.0036 0.027193 0)
(5.11457 -0.0900424 0)
(9.36601 -0.217084 0)
(3.54715 -0.26732 0)
(8.17391 -0.416303 0)
(2.30809 -0.437485 0)
(7.54869 -0.910946 0)
(1.51229 -0.664957 0)
(7.02513 -1.85568 0)
(1.09748 -1.00227 0)
(7.09675 -3.31259 0)
(0.815128 -2.52535 0)
(6.32356 -7.24089 0)
(1.66319 -2.90979 0)
(6.87331 4.77764 0)
(7.31387 -0.127349 0)
(11.7759 -0.102571 0)
(7.74076 0.0561288 0)
(10.2241 -0.335794 0)
(6.89087 -0.127502 0)
(8.54126 -0.550049 0)
(5.95327 -0.333501 0)
(7.39392 -0.751962 0)
(5.28992 -0.563331 0)
(6.63281 -1.1618 0)
(4.72267 -0.768503 0)
(5.77431 -1.88351 0)
(3.87268 -1.11324 0)
(5.36607 -3.06123 0)
(2.26435 -1.94483 0)
(3.80822 -7.99005 0)
(-0.526389 -2.45422 0)
(2.98318 2.00706 0)
(8.97872 -0.209074 0)
(9.29156 -0.787164 0)
(8.15367 -0.0336182 0)
(7.9013 -0.804195 0)
(7.40814 -0.104243 0)
(6.77071 -1.00191 0)
(6.48901 -0.315328 0)
(5.79165 -1.2615 0)
(5.87073 -0.537146 0)
(5.25313 -1.69466 0)
(5.57383 -0.803198 0)
(4.75577 -2.25405 0)
(5.18291 -1.24528 0)
(4.63084 -3.48189 0)
(4.66189 -1.49688 0)
(4.01368 -5.5524 0)
(-0.216625 -0.792802 0)
(-0.0829639 -1.19188 0)
(10.0143 -0.41844 0)
(9.19692 -1.08594 0)
(8.79932 -0.0840941 0)
(7.88233 -1.26561 0)
(7.65651 -0.250098 0)
(6.80879 -1.37322 0)
(6.62374 -0.336399 0)
(5.66508 -1.67928 0)
(5.94321 -0.573712 0)
(5.03657 -2.20157 0)
(5.76049 -0.783344 0)
(4.71239 -2.68015 0)
(5.72933 -1.22692 0)
(4.51331 -3.89147 0)
(5.18589 -1.77958 0)
(3.9494 -5.6517 0)
(2.00328 -0.894918 0)
(1.11526 -3.17137 0)
(10.2953 -0.824897 0)
(8.8866 -1.43002 0)
(8.6829 -0.147597 0)
(7.69928 -1.5713 0)
(7.49278 -0.321333 0)
(6.71468 -1.69473 0)
(6.56588 -0.473134 0)
(5.75077 -1.9765 0)
(5.88822 -0.843103 0)
(5.11949 -2.46641 0)
(5.5045 -1.15284 0)
(4.93068 -2.88894 0)
(5.34238 -1.60719 0)
(4.73191 -3.81926 0)
(4.6587 -1.91555 0)
(4.16006 -4.42153 0)
(3.0744 -1.51478 0)
(3.36935 -3.79387 0)
(9.87257 -1.08231 0)
(8.62832 -1.66293 0)
(8.63402 -0.268821 0)
(7.57971 -1.88015 0)
(7.41741 -0.565324 0)
(6.53893 -1.91901 0)
(6.51752 -0.649994 0)
(5.76464 -2.11377 0)
(5.90231 -1.03241 0)
(5.14864 -2.60314 0)
(5.38158 -1.42476 0)
(4.75566 -3.09502 0)
(4.93568 -1.90767 0)
(4.4332 -3.82537 0)
(4.10548 -2.21007 0)
(4.10998 -4.12379 0)
(3.30575 -1.96262 0)
(4.00429 -3.87686 0)
(10.2589 -1.45897 0)
(9.02355 -1.9913 0)
(8.69181 -0.572266 0)
(7.73565 -1.94981 0)
(7.23613 -0.833206 0)
(6.46496 -2.10627 0)
(6.22593 -1.0807 0)
(5.65676 -2.35889 0)
(5.64861 -1.47476 0)
(5.1324 -2.7966 0)
(5.18969 -1.8381 0)
(4.82897 -3.18535 0)
(4.77279 -2.23445 0)
(4.59503 -3.70182 0)
(4.1725 -2.59221 0)
(4.33787 -3.89311 0)
(3.70585 -2.73557 0)
(4.24632 -3.82092 0)
(9.86804 -1.66399 0)
(8.81787 -2.02444 0)
(8.42788 -0.868645 0)
(7.74562 -2.12978 0)
(7.35543 -1.22118 0)
(6.72545 -2.17427 0)
(6.35399 -1.41379 0)
(5.74421 -2.41644 0)
(5.50611 -1.83392 0)
(4.93646 -2.86464 0)
(4.84413 -2.27353 0)
(4.40285 -3.32548 0)
(4.32344 -2.62421 0)
(4.17904 -3.74137 0)
(3.82022 -3.02819 0)
(3.95287 -3.88361 0)
(3.66653 -3.22949 0)
(4 -3.84804 0)
(9.69193 -2.18929 0)
(8.97835 -2.34514 0)
(8.30498 -1.45355 0)
(7.58637 -2.31349 0)
(6.98169 -1.6855 0)
(6.49692 -2.38508 0)
(6.12288 -1.91282 0)
(5.73057 -2.6004 0)
(5.42137 -2.28576 0)
(5.00932 -2.99245 0)
(4.75726 -2.66765 0)
(4.38715 -3.39825 0)
(4.18354 -3.0092 0)
(4.05613 -3.69306 0)
(3.77753 -3.43789 0)
(3.80931 -3.94527 0)
(3.67891 -3.75938 0)
(3.91966 -4.12615 0)
(9.66981 -2.64381 0)
(8.81059 -2.38446 0)
(8.06188 -1.86527 0)
(7.39448 -2.45778 0)
(6.79221 -2.19839 0)
(6.30514 -2.5908 0)
(5.84869 -2.39765 0)
(5.43275 -2.76061 0)
(5.0645 -2.66585 0)
(4.70834 -3.05897 0)
(4.43704 -3.03268 0)
(4.17648 -3.50027 0)
(4.06143 -3.41048 0)
(3.95279 -3.8532 0)
(3.82992 -3.83521 0)
(3.8128 -4.11811 0)
(3.7427 -4.19075 0)
(3.82389 -4.38925 0)
(9.51116 -3.01595 0)
(8.8874 -2.63849 0)
(8.20333 -2.39908 0)
(7.4368 -2.62804 0)
(6.66218 -2.56363 0)
(6.04432 -2.76448 0)
(5.52636 -2.78941 0)
(5.10974 -3.01145 0)
(4.75024 -3.10822 0)
(4.45749 -3.35057 0)
(4.19613 -3.48632 0)
(3.97825 -3.75852 0)
(3.82893 -3.86782 0)
(3.71149 -4.12772 0)
(3.63384 -4.21846 0)
(3.58223 -4.42104 0)
(3.55714 -4.54536 0)
(3.59928 -4.66824 0)
(9.81228 -3.62042 0)
(8.80576 -2.86406 0)
(8.01221 -2.68332 0)
(7.24953 -2.81268 0)
(6.60178 -2.91055 0)
(6.07402 -3.06756 0)
(5.62177 -3.18419 0)
(5.22295 -3.31976 0)
(4.84802 -3.42904 0)
(4.50628 -3.59419 0)
(4.18884 -3.74624 0)
(3.92107 -3.95278 0)
(3.6664 -4.13198 0)
(3.47366 -4.33541 0)
(3.33403 -4.50668 0)
(3.22014 -4.68412 0)
(3.11871 -4.84589 0)
(3.0991 -4.97239 0)
(9.69819 -3.93981 0)
(8.65756 -3.06707 0)
(7.90283 -3.02964 0)
(7.20008 -3.15307 0)
(6.50379 -3.27331 0)
(5.82851 -3.39736 0)
(5.24375 -3.49867 0)
(4.72755 -3.6042 0)
(4.31949 -3.69816 0)
(3.98691 -3.82152 0)
(3.70958 -3.94654 0)
(3.4907 -4.10677 0)
(3.29855 -4.26204 0)
(3.14404 -4.43115 0)
(3.00757 -4.5937 0)
(2.91358 -4.75822 0)
(2.80293 -4.93 0)
(2.7391 -5.11126 0)
(9.89381 -3.99218 0)
(8.8754 -3.14052 0)
(8.07903 -3.14815 0)
(7.2773 -3.21725 0)
(6.46151 -3.27867 0)
(5.71954 -3.36188 0)
(5.08986 -3.48681 0)
(4.56202 -3.65459 0)
(4.11944 -3.83651 0)
(3.74834 -4.02102 0)
(3.43882 -4.19499 0)
(3.17288 -4.35895 0)
(2.96107 -4.50492 0)
(2.79173 -4.64143 0)
(2.65299 -4.75567 0)
(2.55949 -4.89358 0)
(2.48417 -5.03006 0)
(2.45167 -5.16585 0)
(9.39514 -4.01276 0)
(8.46738 -3.36613 0)
(7.65574 -3.25573 0)
(6.83364 -3.21008 0)
(6.05019 -3.25742 0)
(5.41768 -3.39113 0)
(4.89828 -3.55296 0)
(4.46201 -3.70241 0)
(4.06855 -3.82927 0)
(3.71197 -3.93713 0)
(3.37363 -4.04719 0)
(3.07344 -4.16369 0)
(2.81547 -4.30635 0)
(2.61195 -4.45652 0)
(2.44446 -4.6262 0)
(2.305 -4.78888 0)
(2.22179 -4.94201 0)
(2.16784 -5.08763 0)
(9.56978 -4.07296 0)
(8.3685 -3.25811 0)
(7.43945 -3.09014 0)
(6.61056 -3.05774 0)
(5.88818 -3.14558 0)
(5.28873 -3.32869 0)
(4.75461 -3.52431 0)
(4.27747 -3.66898 0)
(3.86376 -3.76113 0)
(3.49351 -3.8402 0)
(3.17146 -3.91537 0)
(2.91392 -4.00713 0)
(2.67694 -4.11252 0)
(2.49331 -4.2336 0)
(2.34905 -4.36794 0)
(2.23766 -4.50107 0)
(2.13288 -4.64827 0)
(2.06171 -4.77738 0)
(9.54934 -3.67279 0)
(8.25979 -2.924 0)
(7.36022 -2.87861 0)
(6.59588 -2.93498 0)
(5.93761 -3.04057 0)
(5.32465 -3.18875 0)
(4.74431 -3.31316 0)
(4.2125 -3.41441 0)
(3.75136 -3.48735 0)
(3.35185 -3.52885 0)
(3.0265 -3.59608 0)
(2.74647 -3.67547 0)
(2.51629 -3.77845 0)
(2.32673 -3.90361 0)
(2.16172 -4.01657 0)
(2.05288 -4.15043 0)
(1.96333 -4.25255 0)
(1.90042 -4.35945 0)
(9.71682 -3.11985 0)
(8.50184 -2.59266 0)
(7.52015 -2.66135 0)
(6.62519 -2.73718 0)
(5.89506 -2.79661 0)
(5.26821 -2.89607 0)
(4.68528 -3.00058 0)
(4.18697 -3.09254 0)
(3.7443 -3.16902 0)
(3.36124 -3.22287 0)
(3.04629 -3.27794 0)
(2.76757 -3.3282 0)
(2.52195 -3.40738 0)
(2.29629 -3.49295 0)
(2.11233 -3.59933 0)
(1.95548 -3.71955 0)
(1.83776 -3.84113 0)
(1.7588 -3.94276 0)
(9.61298 -2.83981 0)
(8.43559 -2.25221 0)
(7.62118 -2.28289 0)
(6.84369 -2.42002 0)
(6.113 -2.53432 0)
(5.42193 -2.64125 0)
(4.80004 -2.73694 0)
(4.24562 -2.80596 0)
(3.74583 -2.84731 0)
(3.32734 -2.88208 0)
(2.9573 -2.88899 0)
(2.65329 -2.92307 0)
(2.39974 -2.96163 0)
(2.18959 -3.02145 0)
(2.02097 -3.10137 0)
(1.88392 -3.19219 0)
(1.80341 -3.2896 0)
(1.73693 -3.38025 0)
(9.39491 -2.42266 0)
(8.192 -2.08891 0)
(7.40696 -2.1828 0)
(6.69839 -2.21222 0)
(6.04603 -2.21475 0)
(5.44102 -2.25292 0)
(4.86233 -2.32258 0)
(4.29403 -2.37806 0)
(3.79081 -2.4162 0)
(3.33562 -2.44238 0)
(2.99164 -2.46012 0)
(2.70903 -2.49593 0)
(2.49587 -2.54268 0)
(2.31921 -2.61411 0)
(2.16235 -2.70617 0)
(2.0436 -2.79864 0)
(1.94307 -2.9031 0)
(1.86668 -2.9882 0)
(9.46939 -2.02877 0)
(8.34239 -1.80036 0)
(7.52159 -1.93581 0)
(6.75722 -2.01292 0)
(6.07388 -2.06089 0)
(5.43233 -2.07492 0)
(4.83411 -2.06415 0)
(4.27457 -2.06615 0)
(3.77217 -2.07782 0)
(3.33823 -2.10724 0)
(2.99833 -2.14634 0)
(2.7352 -2.1749 0)
(2.55134 -2.22142 0)
(2.39906 -2.24099 0)
(2.2937 -2.28213 0)
(2.19834 -2.31286 0)
(2.12865 -2.36359 0)
(2.05506 -2.412 0)
(9.64488 -1.8013 0)
(8.55745 -1.62628 0)
(7.80897 -1.71112 0)
(7.10976 -1.72087 0)
(6.42714 -1.69446 0)
(5.77868 -1.68647 0)
(5.16982 -1.69301 0)
(4.60989 -1.6994 0)
(4.09653 -1.70792 0)
(3.63522 -1.72657 0)
(3.23193 -1.75542 0)
(2.89181 -1.80513 0)
(2.62161 -1.85903 0)
(2.40622 -1.90927 0)
(2.23705 -1.95413 0)
(2.11086 -1.99062 0)
(2.03169 -2.03226 0)
(1.98454 -2.06513 0)
(9.56233 -1.43782 0)
(8.58572 -1.4456 0)
(7.95976 -1.57241 0)
(7.27123 -1.58759 0)
(6.54567 -1.56486 0)
(5.83196 -1.51953 0)
(5.17394 -1.46545 0)
(4.59201 -1.41822 0)
(4.07575 -1.3802 0)
(3.64266 -1.36719 0)
(3.27018 -1.38635 0)
(2.98844 -1.42177 0)
(2.74864 -1.4738 0)
(2.5605 -1.5074 0)
(2.40237 -1.54862 0)
(2.26904 -1.57277 0)
(2.15909 -1.59715 0)
(2.06268 -1.62931 0)
(9.37177 -1.20189 0)
(8.82728 -1.42387 0)
(8.38448 -1.39811 0)
(7.63853 -1.28796 0)
(6.75374 -1.21058 0)
(5.88479 -1.16542 0)
(5.14712 -1.13877 0)
(4.5366 -1.10987 0)
(4.03883 -1.08939 0)
(3.60397 -1.08692 0)
(3.21597 -1.10246 0)
(2.86535 -1.13613 0)
(2.53391 -1.17393 0)
(2.22923 -1.20316 0)
(1.97203 -1.22176 0)
(1.74715 -1.2417 0)
(1.56381 -1.23924 0)
(1.41535 -1.24476 0)
(9.72463 -1.05377 0)
(8.89076 -1.39875 0)
(8.08534 -1.23716 0)
(7.12681 -1.04383 0)
(6.10098 -0.937551 0)
(5.09208 -0.887692 0)
(4.14743 -0.866653 0)
(3.31045 -0.836116 0)
(2.58031 -0.807279 0)
(1.94305 -0.781639 0)
(1.39697 -0.765415 0)
(0.911515 -0.761592 0)
(0.478272 -0.774864 0)
(0.0867813 -0.778366 0)
(-0.240402 -0.795783 0)
(-0.531711 -0.809074 0)
(-0.762951 -0.815135 0)
(-0.961603 -0.819629 0)
(9.64602 -0.982295 0)
(8.22466 -1.24679 0)
(6.59843 -1.00993 0)
(4.88407 -0.785748 0)
(3.32348 -0.600964 0)
(1.94497 -0.48427 0)
(0.760743 -0.423117 0)
(-0.230098 -0.393072 0)
(-1.07071 -0.379116 0)
(-1.76557 -0.370497 0)
(-2.35188 -0.375153 0)
(-2.84664 -0.379031 0)
(-3.28033 -0.394066 0)
(-3.66304 -0.400397 0)
(-3.97494 -0.412567 0)
(-4.2434 -0.421667 0)
(-4.45357 -0.444236 0)
(-4.62948 -0.454929 0)
(8.16116 -0.574615 0)
(4.44285 -0.458316 0)
(1.66264 -0.204145 0)
(-0.316594 -0.101027 0)
(-1.66998 -0.0588673 0)
(-2.6911 -0.052788 0)
(-3.49955 -0.0617578 0)
(-4.17767 -0.0784885 0)
(-4.75609 -0.086959 0)
(-5.24523 -0.0910584 0)
(-5.66321 -0.0966305 0)
(-6.01909 -0.0985489 0)
(-6.32725 -0.104916 0)
(-6.59358 -0.109663 0)
(-6.81252 -0.109393 0)
(-7.00295 -0.121279 0)
(-7.16636 -0.135894 0)
(-7.33565 -0.135438 0)
(-0.0973902 -0.392765 0)
(-0.241931 -0.423881 0)
(-0.364098 -0.425245 0)
(-0.484835 -0.419998 0)
(-0.6053 -0.413026 0)
(-0.724681 -0.408503 0)
(-0.840882 -0.404547 1.1032e-17)
(-0.955496 -0.398085 -1.09556e-17)
(-1.06875 -0.387304 0)
(-1.18504 -0.375256 -1.08164e-17)
(-1.30707 -0.363121 0)
(-1.4309 -0.351878 0)
(-1.55219 -0.345236 0)
(-1.67144 -0.339147 1.05596e-17)
(-1.7872 -0.335395 0)
(-1.88988 -0.335872 0)
(-2.00077 -0.333974 -1.03875e-17)
(-2.10072 -0.34355 0)
(-2.15697 -0.342722 0)
(-2.19315 -0.33343 0)
(-2.2293 -0.334523 1.01332e-17)
(-2.25422 -0.346119 0)
(-2.27577 -0.343103 1.00266e-17)
(-2.32539 -0.302138 0)
(-2.4246 -0.172222 0)
(-2.5512 0.000548353 9.86763e-18)
(-2.61838 0.0810392 0)
(-2.52608 0.118143 -9.75943e-18)
(-2.30978 0.000709947 0)
(-2.09967 -0.34988 9.6743e-18)
(-1.92075 -0.842823 0)
(-1.76246 -1.28544 0)
(-1.61025 -1.39552 0)
(-1.57759 -0.999336 0)
(-1.89879 -0.346943 0)
(-2.51396 0.182253 -9.47959e-18)
(-3.25598 0.485302 0)
(-4.03057 0.610363 1.85944e-17)
(-4.75586 0.637168 0)
(-5.40739 0.597461 -1.82868e-17)
(-5.96455 0.528019 0)
(-6.42347 0.459917 0)
(-6.75042 0.392074 1.78853e-17)
(-6.98673 0.315706 0)
(-7.14225 0.241026 1.76358e-17)
(-7.18605 0.176811 -1.7516e-17)
(-7.13426 0.123149 0)
(-7.00862 0.061933 -1.72851e-17)
(-6.7988 0.00427857 -1.71736e-17)
(-6.51111 -0.059308 0)
(-6.16089 -0.110082 0)
(-5.75824 -0.152052 0)
(-5.31953 -0.196335 0)
(-4.83909 -0.23549 0)
(-4.31357 -0.260718 1.65462e-17)
(-3.78803 -0.277395 0)
(-3.23722 -0.292315 -1.63515e-17)
(-2.66914 -0.319331 0)
(-2.08773 -0.33545 0)
(-1.50627 -0.360409 1.60703e-17)
(-0.916492 -0.381879 0)
(-0.32992 -0.391725 -1.58849e-17)
(0.252969 -0.400646 0)
(0.826973 -0.416102 0)
(1.38375 -0.432081 0)
(1.96081 -0.441175 1.55214e-17)
(2.53751 -0.46342 0)
(3.09635 -0.470555 0)
(3.64352 -0.477265 1.52488e-17)
(4.18248 -0.48975 0)
(4.71586 -0.495424 1.50667e-17)
(5.23051 -0.507237 0)
(5.72473 -0.502711 0)
(6.19604 -0.502975 0)
(6.63915 -0.499504 -1.46767e-17)
(7.05494 -0.493167 0)
(7.44833 -0.489999 0)
(7.82294 -0.487758 -1.43631e-17)
(8.19088 -0.489888 -1.42548e-17)
(8.54969 -0.488254 0)
(8.85344 -0.479229 -1.40306e-17)
(9.09148 -0.472911 0)
(9.27535 -0.478915 -2.76408e-17)
(9.4287 -0.481093 0)
(9.64358 -0.494959 -2.72726e-17)
(9.92733 -0.493675 0)
(10.1837 -0.476221 2.68915e-17)
(10.3253 -0.455363 0)
(10.381 -0.442892 0)
(10.3517 -0.467284 0)
(10.269 -0.487381 -2.60693e-17)
(10.2163 -0.503477 0)
(10.1681 -0.505917 2.56487e-17)
(10.0821 -0.5223 0)
(9.9677 -0.53348 -2.5221e-17)
(9.99467 -0.546114 -2.50083e-17)
(10.0265 -0.579357 -2.48102e-17)
(9.89964 -0.601138 0)
(9.78419 -0.50357 0)
(9.55966 -0.371632 0)
(9.114 -0.237132 0)
(8.75786 -0.314836 0)
(8.27197 -0.460433 0)
(7.58704 -0.524572 0)
(7.19265 -0.662142 0)
(7.36203 -0.906586 2.25841e-17)
(8.16292 -1.06374 2.24753e-17)
(9.23255 -1.06797 0)
(10.1049 -1.03089 0)
(10.4594 -0.971197 0)
(10.2715 -0.89604 2.2523e-17)
(9.70018 -0.703576 0)
(8.25901 -0.24446 0)
(6.00415 0.0695411 0)
(4.18623 -0.129482 0)
(2.57043 -0.337344 -2.15795e-17)
(1.43116 -0.610398 0)
(1.37415 -1.02509 0)
(1.7926 -1.28677 2.10088e-17)
(2.2832 -1.31893 -2.09139e-17)
(2.36138 -1.32167 0)
(2.14049 -1.14338 -2.07735e-17)
(0.821691 -0.641915 0)
(-0.571196 -0.537377 2.02735e-17)
(-1.33829 -0.964016 0)
(0.145869 -1.3094 0)
(-0.374694 -1.07227 0)
(-1.20615 -1.09613 0)
(-0.275565 -1.62325 0)
(1.30461 -1.60645 -3.82307e-17)
(1.72763 -1.6449 -3.7948e-17)
(3.04996 -1.6965 0)
(3.74696 -1.67144 0)
(4.76874 -1.70479 0)
(5.69214 -1.70864 3.74826e-17)
(6.61092 -1.74917 0)
(7.50034 -1.68652 0)
(8.45619 -1.67556 0)
(9.1967 -1.58463 3.70381e-17)
(9.57612 -1.54787 -3.7062e-17)
(9.57397 -1.66855 0)
(9.42386 -1.83284 0)
(9.26383 -2.03173 -3.65188e-17)
(9.30098 -2.12145 -3.6213e-17)
(9.6182 -2.13877 0)
(10.1915 -2.2294 0)
(10.8392 -2.3831 3.52975e-17)
(11.5891 -2.43015 -3.49155e-17)
(12.4284 -2.37033 0)
(13.3839 -2.36728 0)
(14.6187 -2.4931 -3.36842e-17)
(16.1242 -2.65769 0)
(17.9016 -2.77676 0)
(19.5578 -2.79956 -3.28931e-17)
(20.6574 -2.69447 0)
(21.5591 -2.67144 -3.21707e-17)
(22.0906 -2.6586 0)
(22.1003 -2.68987 0)
(22.0321 -2.31227 0)
(20.4091 -2.21032 3.14562e-17)
(18.0591 -2.58332 0)
(17.1991 -2.89415 0)
(14.8579 -2.65551 0)
(9.43122 -1.73617 0)
(4.06312 -1.68208 0)
(1.58237 -2.30505 0)
(1.51602 -3.40821 2.95472e-17)
(2.32087 -3.01671 3.04181e-17)
(-0.0451959 -3.06326 0)
(0.293463 -3.30411 0)
(-1.8787 -2.56328 0)
(-5.47822 -2.66891 -2.91055e-17)
(-5.89608 -3.62765 0)
(-3.73452 -3.51181 5.89031e-17)
(-1.444 -2.85809 -5.89734e-17)
(-0.72602 -2.27432 -5.95019e-17)
(-3.29142 -2.08317 5.94696e-17)
(-7.13202 -2.39243 -5.91388e-17)
(-9.4723 -2.1672 5.57907e-17)
(-11.5775 -1.88717 0)
(-0.111956 -1.1378 0)
(-0.27295 -1.2599 0)
(-0.395541 -1.30476 -2.27614e-17)
(-0.479656 -1.31427 0)
(-0.549346 -1.3061 2.21715e-17)
(-0.623465 -1.3005 2.19578e-17)
(-0.69975 -1.29391 1.08869e-17)
(-0.78254 -1.2802 1.07942e-17)
(-0.871848 -1.25352 0)
(-0.96101 -1.21538 1.06318e-17)
(-1.05244 -1.17763 0)
(-1.15929 -1.14655 0)
(-1.25768 -1.1249 -2.08166e-17)
(-1.34749 -1.09691 -1.03376e-17)
(-1.44152 -1.0686 2.05394e-17)
(-1.52774 -1.0329 2.04036e-17)
(-1.60833 -0.956458 1.01353e-17)
(-1.66168 -1.00247 0)
(-1.66135 -1.05285 0)
(-1.65961 -1.00308 0)
(-1.70614 -0.917494 9.87546e-18)
(-1.75708 -0.849418 0)
(-1.71905 -0.746627 -2.93307e-17)
(-1.60562 -0.624535 0)
(-1.47894 -0.526928 0)
(-1.35091 -0.646172 -9.62186e-18)
(-1.41827 -1.11457 0)
(-1.63723 -1.53697 9.58619e-18)
(-1.95279 -1.45588 1.93054e-17)
(-2.54729 -0.947212 -9.73347e-18)
(-3.51655 -0.312256 0)
(-4.71858 0.274461 0)
(-5.91454 0.770912 0)
(-6.96549 1.1692 1.89064e-17)
(-7.87818 1.46397 1.87831e-17)
(-8.62586 1.61826 9.33311e-18)
(-9.23925 1.62379 0)
(-9.7484 1.5493 -1.84019e-17)
(-10.1666 1.42473 0)
(-10.5088 1.25233 1.81652e-17)
(-10.7537 1.04873 0)
(-10.9004 0.82114 0)
(-10.9701 0.598202 -1.78264e-17)
(-10.9612 0.394085 0)
(-10.8474 0.198525 -5.28202e-17)
(-10.6501 0.0230622 1.75034e-17)
(-10.4064 -0.158541 0)
(-10.0855 -0.337683 1.72981e-17)
(-9.66288 -0.506694 1.7197e-17)
(-9.18563 -0.661871 0)
(-8.65036 -0.799557 0)
(-8.0806 -0.905127 0)
(-7.48586 -0.996123 0)
(-6.85369 -1.07904 0)
(-6.17998 -1.14133 -1.66046e-17)
(-5.50947 -1.21776 -3.30229e-17)
(-4.81707 -1.29065 1.64233e-17)
(-4.11229 -1.37644 0)
(-3.40007 -1.42601 -3.2489e-17)
(-2.70978 -1.4566 1.61543e-17)
(-1.99056 -1.47304 0)
(-1.26655 -1.52221 1.59765e-17)
(-0.56019 -1.56653 0)
(0.12479 -1.59926 0)
(0.818354 -1.63364 3.14291e-17)
(1.52464 -1.67848 -1.56322e-17)
(2.2191 -1.72583 3.10899e-17)
(2.89031 -1.7368 -3.09129e-17)
(3.5558 -1.75239 -1.5372e-17)
(4.20802 -1.79901 0)
(4.84128 -1.80785 -1.52025e-17)
(5.45562 -1.8271 0)
(6.02046 -1.81081 0)
(6.57046 -1.81163 0)
(7.09265 -1.80223 -1.48206e-17)
(7.5565 -1.79297 0)
(7.98651 -1.7969 -2.92262e-17)
(8.40191 -1.80832 4.35066e-17)
(8.81415 -1.83646 1.4388e-17)
(9.25718 -1.82934 0)
(9.68714 -1.72604 1.40998e-17)
(10.0733 -1.61701 0)
(10.393 -1.57846 2.75951e-17)
(10.5822 -1.61636 0)
(10.8406 -1.80317 2.73331e-17)
(11.2577 -1.92508 -5.44448e-17)
(11.7383 -1.79761 -2.69779e-17)
(12.1557 -1.60291 0)
(12.3169 -1.44466 0)
(12.3112 -1.40402 0)
(12.3342 -1.45118 2.57874e-17)
(12.3974 -1.43709 0)
(12.3718 -1.35668 -2.53705e-17)
(12.2286 -1.42019 0)
(12.1186 -1.51485 7.46475e-17)
(12.1334 -1.5844 2.46691e-17)
(12.1318 -1.57106 2.44738e-17)
(11.9121 -1.36424 0)
(11.63 -1.23028 0)
(11.1005 -1.39008 0)
(10.5041 -1.36378 0)
(10.3297 -1.292 0)
(10.0384 -1.01546 4.62718e-17)
(9.45516 -0.874863 4.56396e-17)
(8.81566 -1.48832 0)
(8.64766 -2.51669 -2.18442e-17)
(9.23299 -3.40205 -2.17039e-17)
(9.91599 -3.53819 0)
(10.3672 -2.83776 -4.38498e-17)
(9.88056 -2.11325 0)
(8.6885 -1.4731 2.19958e-17)
(6.9716 -0.508338 0)
(5.11848 0.0363649 0)
(3.698 -0.0837971 -4.29008e-17)
(2.38131 -0.48414 0)
(0.971325 -1.03024 2.08879e-17)
(0.337325 -2.09189 0)
(0.185699 -3.0613 0)
(0.162063 -3.44714 2.08756e-17)
(0.276187 -3.27946 2.06005e-17)
(0.15852 -2.81941 0)
(-0.144437 -2.04168 -2.02349e-17)
(-1.40331 -1.80121 0)
(-1.94162 -2.54979 1.94541e-17)
(-2.53151 -4.06121 3.86037e-17)
(-0.234307 -4.48235 0)
(-1.10513 -2.96579 0)
(-1.16145 -3.93345 0)
(-0.283585 -5.534 0)
(2.02584 -5.16249 3.65632e-17)
(2.84203 -5.06648 1.08993e-16)
(4.19434 -5.37042 0)
(5.12923 -5.37615 0)
(6.10411 -5.57563 0)
(6.96034 -5.65699 -3.69596e-17)
(7.90172 -5.88128 0)
(8.64772 -5.92053 0)
(9.71228 -6.08011 7.2584e-17)
(10.9952 -6.01787 3.5804e-17)
(12.4048 -5.72774 3.53424e-17)
(13.4623 -5.40105 0)
(13.9882 -5.27771 0)
(14.0449 -5.28081 3.51608e-17)
(13.8695 -5.60371 -3.52271e-17)
(13.59 -6.11185 0)
(13.548 -6.41848 0)
(13.7369 -6.42492 -3.39757e-17)
(14.0533 -6.58688 1.00732e-16)
(14.2637 -6.85518 0)
(14.6231 -7.16727 0)
(15.4044 -7.60607 3.14653e-17)
(16.5588 -8.01279 0)
(18.4517 -8.28793 6.06672e-17)
(20.0837 -8.11518 -3.0197e-17)
(20.8127 -7.85791 0)
(21.3415 -7.85184 2.91345e-17)
(21.5092 -7.57395 5.80778e-17)
(20.396 -7.83779 0)
(20.409 -7.25485 0)
(19.3474 -6.61979 -2.84899e-17)
(15.7323 -7.33745 0)
(13.529 -7.19317 5.95381e-17)
(8.99 -5.84791 0)
(2.08735 -5.05672 0)
(-1.13907 -7.80149 0)
(-1.59442 -9.39496 0)
(-2.59977 -10.6026 -2.89344e-17)
(-1.53239 -9.82057 -3.0347e-17)
(1.05722 -9.20858 0)
(2.61285 -9.67661 0)
(-0.539147 -8.12806 0)
(-1.92772 -8.3917 2.57075e-17)
(-2.3953 -10.4936 0)
(0.0173612 -11.3253 -5.72378e-17)
(2.44715 -10.7931 5.70172e-17)
(5.42499 -8.67311 5.75857e-17)
(5.37666 -6.097 5.56816e-17)
(0.967118 -5.62962 5.74398e-17)
(-4.82435 -6.21438 5.50297e-17)
(-6.91684 -5.98564 0)
(-0.120602 -1.81398 0)
(-0.318804 -2.04207 0)
(-0.453874 -2.2166 2.30718e-17)
(-0.507676 -2.30701 2.27857e-17)
(-0.528741 -2.30642 -2.25054e-17)
(-0.55118 -2.27705 -2.22626e-17)
(-0.585998 -2.23774 7.10717e-21)
(-0.648622 -2.18255 0)
(-0.747258 -2.13404 0)
(-0.855456 -2.07945 0)
(-0.949139 -1.99692 0)
(-1.07331 -1.9336 0)
(-1.18791 -1.91795 6.25831e-17)
(-1.28738 -1.86441 0)
(-1.34613 -1.81759 -2.0557e-17)
(-1.41334 -1.81573 -2.03959e-17)
(-1.44129 -1.79972 0)
(-1.56655 -1.89287 0)
(-1.61862 -1.9067 0)
(-1.53261 -1.75232 0)
(-1.43496 -1.59089 -1.9669e-17)
(-1.39013 -1.73155 0)
(-1.56163 -1.96862 1.95456e-17)
(-1.85484 -1.98193 0)
(-2.22889 -1.56751 0)
(-2.81666 -0.902001 0)
(-3.76151 -0.248389 3.91684e-17)
(-4.9605 0.32328 0)
(-6.13318 0.829846 -1.94414e-17)
(-7.23198 1.2606 3.87068e-17)
(-8.25755 1.61721 0)
(-9.17919 1.87391 0)
(-10.0081 2.07053 0)
(-10.7203 2.17986 -1.90417e-17)
(-11.2973 2.2325 -1.89566e-17)
(-11.7567 2.22812 0)
(-12.05 2.14082 0)
(-12.2405 1.96862 3.72474e-17)
(-12.3416 1.72594 3.70224e-17)
(-12.347 1.43693 -3.6797e-17)
(-12.2962 1.12704 0)
(-12.1759 0.819447 0)
(-12.0002 0.514513 0)
(-11.7855 0.224904 0)
(-11.4816 -0.0625648 3.5678e-17)
(-11.1243 -0.346337 3.54423e-17)
(-10.7234 -0.627563 -3.52158e-17)
(-10.2592 -0.87708 0)
(-9.74277 -1.10734 0)
(-9.1874 -1.32098 0)
(-8.58544 -1.5201 0)
(-7.93643 -1.68969 3.4123e-17)
(-7.29096 -1.84607 0)
(-6.58766 -1.95651 0)
(-5.85745 -2.07345 3.34915e-17)
(-5.13524 -2.19787 3.32864e-17)
(-4.42576 -2.31859 0)
(-3.73954 -2.41125 -6.57324e-17)
(-3.0138 -2.47836 3.26637e-17)
(-2.29381 -2.51988 -3.24641e-17)
(-1.60884 -2.54702 0)
(-0.92049 -2.61984 0)
(-0.185022 -2.71541 0)
(0.499776 -2.76036 0)
(1.17406 -2.81021 -3.14703e-17)
(1.86054 -2.88015 -6.25488e-17)
(2.55955 -2.94776 -3.10867e-17)
(3.23495 -2.98959 3.09107e-17)
(3.90602 -3.01351 0)
(4.56759 -3.05966 -6.11092e-17)
(5.20968 -3.06157 -6.07834e-17)
(5.82878 -3.06442 -6.04605e-17)
(6.41237 -3.01421 6.01127e-17)
(6.96334 -3.00521 0)
(7.4732 -2.95593 8.91973e-17)
(7.94635 -2.89665 0)
(8.37781 -2.8721 -2.94081e-17)
(8.75835 -2.88551 -2.92411e-17)
(9.1247 -2.97463 0)
(9.4351 -3.07038 0)
(9.80331 -3.00645 -5.72168e-17)
(10.2466 -2.86901 0)
(10.7427 -2.73697 -5.58296e-17)
(11.1278 -2.66417 0)
(11.4776 -2.99309 5.54448e-17)
(11.8523 -3.30853 1.11239e-16)
(12.2546 -3.23934 0)
(12.7112 -2.96656 0)
(12.8611 -2.56681 0)
(12.6971 -2.42342 5.25297e-17)
(12.6818 -2.57023 0)
(12.8536 -2.59124 5.1742e-17)
(13.0753 -2.45424 0)
(13.1293 -2.35694 0)
(13.085 -2.60119 -1.00607e-16)
(13.133 -2.80615 0)
(13.4638 -2.66463 -4.9549e-17)
(13.5242 -2.47224 0)
(13.7482 -2.26799 -4.83408e-17)
(13.9949 -1.76473 0)
(13.4217 -1.52947 0)
(12.5713 -2.05321 0)
(11.8128 -2.11096 -1.37606e-16)
(11.3586 -1.96988 -4.56799e-17)
(10.8091 -2.54419 0)
(10.5049 -3.86127 0)
(10.3618 -4.87403 0)
(9.60477 -4.69092 0)
(8.83026 -3.51231 4.43228e-17)
(7.71305 -2.37537 -8.76873e-17)
(5.93271 -1.49364 -4.36194e-17)
(4.23132 -0.712926 8.66227e-17)
(3.0828 -0.683786 8.5776e-17)
(2.34398 -1.07678 4.25608e-17)
(1.18004 -1.25992 0)
(0.0949385 -2.07045 8.48388e-17)
(-0.622612 -3.4043 0)
(-1.46335 -4.46328 -8.45042e-17)
(-1.45986 -5.2261 -4.11432e-17)
(-1.25848 -5.29802 0)
(-0.51101 -5.03865 8.03749e-17)
(-0.282817 -4.0614 3.99922e-17)
(-1.38348 -3.70438 0)
(-2.36133 -4.57713 3.9536e-17)
(-3.32054 -6.68541 -1.19739e-16)
(-2.11434 -7.30634 0)
(-1.48017 -5.3747 0)
(0.915885 -6.57598 0)
(1.09398 -9.28578 0)
(3.03185 -9.20344 -7.81814e-17)
(4.42982 -8.54518 -7.46633e-17)
(5.87377 -8.88279 0)
(7.01143 -8.81666 0)
(7.90325 -8.94002 0)
(8.6204 -9.05895 0)
(9.30955 -9.29675 0)
(9.65915 -9.41137 0)
(10.0493 -9.96084 -7.65922e-17)
(10.7828 -10.1804 9.52493e-20)
(11.9494 -10.2228 0)
(13.3048 -9.83509 0)
(14.5217 -9.39373 -6.92465e-17)
(15.2835 -9.28935 0)
(15.7309 -9.41777 6.85942e-17)
(16.0212 -9.58729 6.87034e-17)
(16.0041 -10.0183 0)
(15.7591 -10.6046 0)
(15.9965 -10.8681 -6.59287e-17)
(16.4012 -10.9338 -1.3091e-16)
(16.6458 -11.2794 0)
(16.9963 -12.0969 0)
(17.2384 -13.0265 0)
(18.5498 -13.6442 -5.9422e-17)
(20.1905 -13.3084 5.77447e-17)
(20.8318 -12.7181 0)
(21.0164 -12.6176 1.12382e-16)
(20.0486 -11.9011 5.56165e-17)
(18.5857 -12.5969 -1.08642e-16)
(18.5787 -12.116 0)
(18.2304 -10.6582 0)
(13.8722 -11.0561 -1.14831e-16)
(10.4145 -11.1813 -5.89894e-17)
(5.98916 -9.47217 0)
(1.2206 -9.28696 0)
(0.104697 -13.7955 0)
(-1.18545 -14.9147 0)
(-3.24412 -17.8307 -1.15307e-16)
(-3.12983 -18.6059 0)
(-1.24422 -18.675 0)
(5.90519 -17.0038 0)
(3.16215 -13.5822 0)
(2.04957 -14.4047 0)
(0.669808 -17.6125 0)
(3.75831 -18.5379 -1.16525e-16)
(5.22801 -18.0301 0)
(7.22629 -15.802 0)
(8.77774 -11.1513 -2.29678e-16)
(6.91621 -8.733 1.13448e-16)
(0.53573 -9.10577 -1.13808e-16)
(-4.14786 -10.0114 1.03762e-16)
(-0.124442 -2.41707 0)
(-0.336677 -2.73788 -4.71891e-17)
(-0.468703 -3.11474 0)
(-0.498587 -3.37124 -2.30092e-17)
(-0.480824 -3.40926 0)
(-0.467324 -3.33572 0)
(-0.478301 -3.22596 2.22739e-17)
(-0.533446 -3.06109 0)
(-0.631311 -2.90802 0)
(-0.796097 -2.84912 0)
(-0.968942 -2.74221 0)
(-1.1438 -2.65062 0)
(-1.32326 -2.61069 -8.36605e-17)
(-1.43833 -2.6337 -4.15214e-17)
(-1.61556 -2.67374 4.11116e-17)
(-1.79251 -2.55341 0)
(-1.70318 -2.25336 0)
(-1.72495 -2.33879 0)
(-1.88509 -2.70251 0)
(-2.17206 -2.84458 0)
(-2.57364 -2.40658 -4.02442e-17)
(-3.18272 -1.71869 -4.02684e-17)
(-4.04208 -1.11015 4.02052e-17)
(-4.99112 -0.545863 -3.99483e-17)
(-5.96806 0.0345505 0)
(-6.89181 0.653667 0)
(-7.82458 1.17596 -3.94224e-17)
(-8.71295 1.60691 0)
(-9.55641 1.97889 0)
(-10.3742 2.30624 -3.91286e-17)
(-11.087 2.55927 -3.90343e-17)
(-11.6587 2.69725 -3.89059e-17)
(-12.1021 2.73414 0)
(-12.4381 2.69379 0)
(-12.6737 2.586 3.81693e-17)
(-12.8332 2.4381 0)
(-12.8869 2.23276 0)
(-12.8746 1.9293 -3.72312e-17)
(-12.7938 1.59824 3.6906e-17)
(-12.6516 1.23318 -3.66238e-17)
(-12.4683 0.859947 0)
(-12.2422 0.496802 0)
(-11.9783 0.137019 -7.17016e-17)
(-11.6506 -0.20898 0)
(-11.2598 -0.564053 -7.0732e-17)
(-10.8462 -0.907716 -1.05379e-16)
(-10.3874 -1.23401 1.04685e-16)
(-9.89019 -1.55497 -6.92866e-17)
(-9.35553 -1.82843 0)
(-8.76943 -2.10233 0)
(-8.14574 -2.35669 -6.79651e-17)
(-7.51736 -2.58907 -3.37834e-17)
(-6.83108 -2.81015 0)
(-6.10751 -2.98273 0)
(-5.39659 -3.13153 -3.31643e-17)
(-4.70734 -3.25629 -6.58828e-17)
(-3.99406 -3.36479 0)
(-3.28857 -3.43678 6.51049e-17)
(-2.64223 -3.51823 -6.46807e-17)
(-2.01693 -3.58085 6.42799e-17)
(-1.34525 -3.65636 0)
(-0.723164 -3.73628 0)
(-0.0732831 -3.83895 0)
(0.512545 -3.9236 0)
(1.16509 -4.02019 0)
(1.80764 -4.11129 6.1884e-17)
(2.44522 -4.19723 0)
(3.09226 -4.26856 0)
(3.75903 -4.32419 0)
(4.42828 -4.37636 1.20738e-16)
(5.06946 -4.38494 6.00371e-17)
(5.69444 -4.378 5.9733e-17)
(6.3506 -4.32422 -1.18825e-16)
(6.95819 -4.28398 5.90965e-17)
(7.53572 -4.24049 -5.88545e-17)
(8.0458 -4.18429 0)
(8.55667 -4.14995 5.84301e-17)
(8.99798 -4.11313 0)
(9.46134 -4.11058 0)
(9.77668 -4.20163 0)
(10.0272 -4.27461 1.14514e-16)
(10.3388 -4.25015 -5.67382e-17)
(10.7104 -4.18795 -5.61261e-17)
(11.2375 -4.05677 -1.10952e-16)
(11.7623 -4.34562 -1.65116e-16)
(12.137 -4.71916 -5.5097e-17)
(12.5631 -4.6826 0)
(12.9109 -4.16341 -1.09483e-16)
(12.9545 -3.43113 0)
(12.8649 -3.21 -1.58881e-16)
(12.8646 -3.68253 0)
(12.9996 -3.9509 -1.59506e-16)
(13.3617 -3.69395 0)
(13.6062 -3.45707 0)
(13.6327 -3.70694 -5.14714e-17)
(13.7177 -4.17084 0)
(13.9567 -4.1862 5.10337e-17)
(14.2621 -3.76939 1.00793e-16)
(14.7962 -3.75311 5.00033e-17)
(15.2158 -3.45068 9.80522e-17)
(14.9845 -2.59025 -9.49561e-17)
(14.7675 -2.31428 -9.33476e-17)
(14.3282 -2.48164 1.84156e-16)
(13.7431 -2.49883 0)
(13.2828 -2.97815 0)
(12.4982 -4.36513 9.02315e-17)
(11.5168 -5.21343 -8.87533e-17)
(10.1008 -4.97966 0)
(8.57364 -3.83182 0)
(6.94973 -2.4836 8.80764e-17)
(4.83307 -1.46165 0)
(3.26819 -1.06901 -7.03744e-20)
(2.31117 -1.57042 -6.99918e-20)
(1.0004 -1.8514 8.84994e-17)
(-0.367628 -2.06289 0)
(-1.09967 -3.35889 -8.5389e-17)
(-1.84091 -4.82039 0)
(-2.14611 -6.51936 8.36994e-17)
(-1.87322 -7.85423 0)
(-1.81199 -8.10145 0)
(-0.845057 -7.77854 -8.08881e-17)
(0.0652102 -5.99762 -7.85263e-17)
(0.00562425 -5.27406 0)
(-2.09863 -5.66145 -8.00342e-17)
(-2.72439 -8.8893 1.60603e-16)
(-1.86916 -10.6194 0)
(-1.00466 -10.437 0)
(3.33529 -10.8162 0)
(3.75045 -12.4495 0)
(4.46327 -13.3778 8.41714e-17)