/*--------------------------------*- C++ -*----------------------------------*\
| =========                 |                                                 |
| \\      /  F ield         | OpenFOAM: The Open Source CFD Toolbox           |
|  \\    /   O peration     | Version:  dev                                   |
|   \\  /    A nd           | Web:      http://www.openfoam.org               |
|    \\/     M anipulation  |                                                 |
\*---------------------------------------------------------------------------*/
FoamFile
{
    version     2.0;
    format      ascii;
    class       volVectorField;
    object      UMean;
    location    "9.159";
}
// * * * * * * * * * * * * * * * * * * * * * * * * * * * * * * * * * * * * * //

dimensions      [0 1 -1 0 0 0 0];

internalField   nonuniform List<vector> 
12225
(
(7.00356 0.430264 0)
(4.43871 0.192546 0)
(2.55674 0.0311584 0)
(2.51078 -0.0166541 0)
(1.38443 0.0193654 0)
(2.26723 -0.0342747 0)
(0.98949 0.0489819 0)
(2.18244 -0.0591663 0)
(0.797424 0.0716489 0)
(2.29163 -0.0978389 0)
(0.688603 0.0993586 0)
(2.7435 -0.138635 0)
(0.947784 0.1026 0)
(3.39722 -0.172147 0)
(3.53033 -0.16845 0)
(4.69638 0.0499791 0)
(14.8426 -2.4336 0)
(7.11866 5.13327 0)
(9.54626 0.981574 0)
(9.54324 0.860848 0)
(6.68677 0.466282 0)
(7.59026 0.214539 0)
(4.09059 0.140328 0)
(6.84294 0.0108147 0)
(2.66517 0.132664 0)
(6.68896 -0.0903139 0)
(1.82269 0.141851 0)
(7.03871 -0.165039 0)
(1.26059 0.123897 0)
(8.12119 -0.414345 0)
(1.38462 0.252321 0)
(9.95499 -1.44212 0)
(3.43362 0.271838 0)
(12.3895 -4.06785 0)
(10.4259 -1.92724 0)
(7.77581 0.484139 0)
(9.1185 0.763558 0)
(12.1666 0.951395 0)
(8.32956 0.623997 0)
(11.8319 0.443378 0)
(6.22614 0.310343 0)
(11.4128 0.206466 0)
(4.58298 0.22155 0)
(11.3147 -0.0195081 0)
(3.87453 0.192997 0)
(11.376 -0.277786 0)
(4.35079 0.187266 0)
(11.2522 -0.722946 0)
(5.72876 0.175842 0)
(11.0895 -1.49137 0)
(7.2149 0.0524212 0)
(12.1161 -3.86588 0)
(6.93299 0.35093 0)
(9.35278 -2.39148 0)
(7.21914 0.524987 0)
(13.9928 0.960964 0)
(7.92998 0.609517 0)
(14.2951 0.553794 0)
(7.47461 0.420971 0)
(14.1162 0.271026 0)
(7.17606 0.396761 0)
(13.7382 -0.14511 0)
(7.25706 0.459671 0)
(13.2694 -0.698656 0)
(7.65966 0.576827 0)
(12.8744 -1.4226 0)
(8.26719 0.699424 0)
(12.6508 -2.31319 0)
(9.02409 0.042077 0)
(11.8869 -3.63732 0)
(8.68684 -1.43172 0)
(8.36377 0.681018 0)
(6.42438 0.570107 0)
(14.0105 0.565867 0)
(8.47384 0.674577 0)
(13.9576 0.284483 0)
(9.16968 0.636788 0)
(13.6429 -0.00257831 0)
(9.51743 0.657926 0)
(13.2134 -0.388648 0)
(9.59234 0.734429 0)
(12.8124 -0.871172 0)
(9.44588 0.876916 0)
(12.582 -1.52119 0)
(9.15009 1.08993 0)
(12.5699 -2.48979 0)
(8.82778 1.13234 0)
(11.6162 -5.02771 0)
(8.54255 1.26699 0)
(8.72191 0.126851 0)
(7.957 0.616953 0)
(11.8025 0.152367 0)
(9.50544 0.65484 0)
(11.7388 0.0501928 0)
(10.0885 0.693994 0)
(11.5998 -0.165676 0)
(10.3207 0.725904 0)
(11.4757 -0.457513 0)
(10.3006 0.783081 0)
(11.389 -0.853534 0)
(10.0329 0.832113 0)
(11.3549 -1.40002 0)
(9.49258 0.801387 0)
(11.4178 -2.13837 0)
(8.80102 0.726091 0)
(10.9983 -3.92001 0)
(7.73338 1.33585 0)
(9.4892 -0.21807 0)
(9.34448 0.812768 0)
(10.4385 -0.265941 0)
(10.141 0.930631 0)
(10.5535 -0.304551 0)
(10.3989 1.02007 0)
(10.5816 -0.502874 0)
(10.5204 1.07556 0)
(10.6251 -0.781093 0)
(10.5637 1.15352 0)
(10.6715 -1.15755 0)
(10.5158 1.23527 0)
(10.6998 -1.63538 0)
(10.3673 1.26125 0)
(10.688 -2.32684 0)
(10.0534 1.27116 0)
(10.376 -3.95339 0)
(8.29943 2.01872 0)
(9.69712 -0.952209 0)
(9.84923 0.701233 0)
(10.1559 -0.325944 0)
(10.4067 0.855203 0)
(10.3898 -0.349904 0)
(10.5804 0.906971 0)
(10.4706 -0.49397 0)
(10.7017 0.89306 0)
(10.552 -0.68622 0)
(10.8054 0.872782 0)
(10.6438 -0.935109 0)
(10.8811 0.823913 0)
(10.7354 -1.23253 0)
(10.9081 0.671424 0)
(10.7538 -1.6723 0)
(10.7232 0.5197 0)
(10.4924 -2.47333 0)
(8.89426 0.980439 0)
(9.9639 -0.483891 0)
(10.0857 0.802328 0)
(10.0197 -0.583355 0)
(10.5355 1.02159 0)
(10.3106 -0.604463 0)
(10.6751 1.07509 0)
(10.44 -0.72489 0)
(10.7775 1.04827 0)
(10.5708 -0.889905 0)
(10.8572 1.00369 0)
(10.7113 -1.11758 0)
(10.8988 0.92114 0)
(10.8317 -1.3947 0)
(10.874 0.734811 0)
(10.8221 -1.76055 0)
(10.6023 0.505726 0)
(10.5205 -2.06828 0)
(9.35047 0.586141 0)
(10.0234 -0.391531 0)
(10.1391 0.648695 0)
(10.0423 -0.511885 0)
(10.5102 0.878148 0)
(10.3335 -0.456455 0)
(10.6213 0.869288 0)
(10.482 -0.493584 0)
(10.6978 0.77831 0)
(10.629 -0.572051 0)
(10.7341 0.657941 0)
(10.7635 -0.695233 0)
(10.7179 0.495598 0)
(10.8402 -0.844843 0)
(10.6182 0.264135 0)
(10.7654 -1.03194 0)
(10.2824 0.0702671 0)
(10.4794 -1.05253 0)
(9.62364 0.123957 0)
(10.2069 -0.0328181 0)
(10.141 0.700066 0)
(10.0707 -0.691787 0)
(10.4524 0.902611 0)
(10.2985 -0.618804 0)
(10.5374 0.847691 0)
(10.4302 -0.645398 0)
(10.6032 0.735317 0)
(10.5606 -0.707234 0)
(10.6272 0.586813 0)
(10.6603 -0.79107 0)
(10.6091 0.383201 0)
(10.6811 -0.869093 0)
(10.5269 0.117182 0)
(10.5709 -0.921882 0)
(10.2915 -0.113638 0)
(10.3609 -0.764847 0)
(10.02 -0.154015 0)
(10.2455 -0.125244 0)
(10.0968 0.468035 0)
(10.1509 -0.494974 0)
(10.3536 0.595811 0)
(10.2934 -0.374481 0)
(10.4203 0.527571 0)
(10.4093 -0.354643 0)
(10.4848 0.418911 0)
(10.5239 -0.37403 0)
(10.5131 0.275769 0)
(10.5993 -0.414487 0)
(10.5156 0.0933804 0)
(10.597 -0.461465 0)
(10.4766 -0.103216 0)
(10.4995 -0.49991 0)
(10.3571 -0.232005 0)
(10.3646 -0.405427 0)
(10.266 -0.21972 0)
(10.3738 -0.110148 0)
(10.05 0.411044 0)
(10.1754 -0.487073 0)
(10.2548 0.437262 0)
(10.2378 -0.367317 0)
(10.3087 0.367415 0)
(10.3306 -0.345383 0)
(10.3792 0.250915 0)
(10.4245 -0.355098 0)
(10.4225 0.0995628 0)
(10.4822 -0.374697 0)
(10.4462 -0.0795869 0)
(10.4817 -0.403233 0)
(10.4329 -0.246527 0)
(10.426 -0.43107 0)
(10.3772 -0.339029 0)
(10.3685 -0.392466 0)
(10.357 -0.320368 0)
(10.4222 -0.276363 0)
(10.0153 0.199661 0)
(10.1907 -0.285621 0)
(10.1932 0.167381 0)
(10.2051 -0.179131 0)
(10.2293 0.131728 0)
(10.2791 -0.171196 0)
(10.3061 0.0473182 0)
(10.3625 -0.197619 0)
(10.3659 -0.0585979 0)
(10.4141 -0.235579 0)
(10.4054 -0.175882 0)
(10.4266 -0.286273 0)
(10.4123 -0.274843 0)
(10.4111 -0.331487 0)
(10.3994 -0.323959 0)
(10.4065 -0.337014 0)
(10.4108 -0.315844 0)
(10.4696 -0.304648 0)
(9.99665 0.0971703 0)
(10.1444 -0.18569 0)
(10.1463 0.021761 0)
(10.1501 -0.133494 0)
(10.1622 -0.0085111 0)
(10.2089 -0.145988 0)
(10.241 -0.0768266 0)
(10.2919 -0.186567 0)
(10.311 -0.159247 0)
(10.3485 -0.237798 0)
(10.3574 -0.244629 0)
(10.379 -0.298136 0)
(10.3804 -0.316106 0)
(10.3938 -0.349888 0)
(10.3958 -0.360828 0)
(10.4184 -0.379989 0)
(10.4237 -0.380843 0)
(10.4787 -0.387025 0)
(9.99363 0.0155402 0)
(10.1059 -0.0856802 0)
(10.1088 -0.0442187 0)
(10.1137 -0.0931311 0)
(10.1187 -0.0747757 0)
(10.1674 -0.118814 0)
(10.1979 -0.120487 0)
(10.2517 -0.163706 0)
(10.2739 -0.180441 0)
(10.3152 -0.219024 0)
(10.3277 -0.243789 0)
(10.3596 -0.27767 0)
(10.3657 -0.301179 0)
(10.3937 -0.328838 0)
(10.3993 -0.346818 0)
(10.4326 -0.370619 0)
(10.4354 -0.383599 0)
(10.4881 -0.396812 0)
(9.99177 0.0047974 0)
(10.0636 -0.0250868 0)
(10.0567 -0.0348371 0)
(10.0678 -0.0663854 0)
(10.0778 -0.0756298 0)
(10.1279 -0.0996757 0)
(10.1572 -0.115848 0)
(10.2109 -0.144604 0)
(10.2336 -0.16887 0)
(10.278 -0.199463 0)
(10.2919 -0.226448 0)
(10.3299 -0.256914 0)
(10.3383 -0.283188 0)
(10.3729 -0.311913 0)
(10.3786 -0.336656 0)
(10.415 -0.365379 0)
(10.4144 -0.387886 0)
(10.4632 -0.407296 0)
(9.99158 0.0141538 0)
(10.0466 0.01614 0)
(10.0398 -0.0105791 0)
(10.0576 -0.0376764 0)
(10.0748 -0.0565216 0)
(10.1254 -0.0778353 0)
(10.1554 -0.0988359 0)
(10.2071 -0.123784 0)
(10.2311 -0.148943 0)
(10.2753 -0.176572 0)
(10.291 -0.203365 0)
(10.3291 -0.232085 0)
(10.3393 -0.259284 0)
(10.3735 -0.28822 0)
(10.38 -0.315538 0)
(10.4139 -0.345596 0)
(10.4131 -0.371445 0)
(10.4565 -0.393253 0)
(9.99171 0.0328932 0)
(10.0502 0.0495715 0)
(10.0566 0.00988327 0)
(10.0799 -0.0181163 0)
(10.1007 -0.0402662 0)
(10.1506 -0.0614964 0)
(10.1819 -0.0836147 0)
(10.2315 -0.106402 0)
(10.2562 -0.130529 0)
(10.2984 -0.155481 0)
(10.315 -0.181035 0)
(10.3507 -0.207275 0)
(10.3614 -0.2335 0)
(10.3925 -0.260344 0)
(10.399 -0.286953 0)
(10.4287 -0.3152 0)
(10.428 -0.340922 0)
(10.4652 -0.362689 0)
(9.98987 0.0406399 0)
(10.0546 0.0525358 0)
(10.0827 -0.0064281 0)
(10.1166 -0.0407433 0)
(10.1419 -0.0641734 0)
(10.1903 -0.0823091 0)
(10.2223 -0.102121 0)
(10.2689 -0.12102 0)
(10.2934 -0.142744 0)
(10.3319 -0.163978 0)
(10.3482 -0.18738 0)
(10.3801 -0.210058 0)
(10.3903 -0.234354 0)
(10.4173 -0.257864 0)
(10.4227 -0.28272 0)
(10.4472 -0.307745 0)
(10.446 -0.332366 0)
(10.4767 -0.352748 0)
(9.9905 0.0315331 0)
(10.0684 0.021895 0)
(10.1261 -0.0558322 0)
(10.1769 -0.0968308 0)
(10.2125 -0.11984 0)
(10.2608 -0.132788 0)
(10.2937 -0.147803 0)
(10.336 -0.161672 0)
(10.36 -0.17983 0)
(10.394 -0.196906 0)
(10.4102 -0.217335 0)
(10.4376 -0.236208 0)
(10.4478 -0.257942 0)
(10.4701 -0.277998 0)
(10.4753 -0.300667 0)
(10.4945 -0.322281 0)
(10.4939 -0.345123 0)
(10.5186 -0.363394 0)
(9.99117 0.00981297 0)
(10.0919 -0.0298326 0)
(10.1869 -0.120934 0)
(10.2594 -0.162852 0)
(10.3092 -0.181188 0)
(10.3589 -0.187204 0)
(10.3928 -0.196061 0)
(10.4304 -0.204378 0)
(10.4541 -0.218102 0)
(10.4836 -0.230728 0)
(10.5001 -0.247573 0)
(10.5232 -0.262591 0)
(10.5337 -0.281285 0)
(10.5516 -0.297961 0)
(10.5572 -0.318005 0)
(10.5718 -0.336333 0)
(10.5723 -0.3569 0)
(10.592 -0.373027 0)
(9.99282 -0.0234353 0)
(10.1275 -0.103722 0)
(10.267 -0.20501 0)
(10.3664 -0.241655 0)
(10.4319 -0.250848 0)
(10.4835 -0.248411 0)
(10.5183 -0.250903 0)
(10.5517 -0.253687 0)
(10.5753 -0.262952 0)
(10.6011 -0.271299 0)
(10.6181 -0.284616 0)
(10.6378 -0.296224 0)
(10.6486 -0.312023 0)
(10.6631 -0.325768 0)
(10.6691 -0.34329 0)
(10.6801 -0.35873 0)
(10.6814 -0.377034 0)
(10.6968 -0.391169 0)
(9.99044 -0.0716234 0)
(10.1743 -0.20125 0)
(10.3677 -0.305524 0)
(10.5 -0.327907 0)
(10.5804 -0.322583 0)
(10.6343 -0.310191 0)
(10.6689 -0.305555 0)
(10.6996 -0.302536 0)
(10.7225 -0.306661 0)
(10.7459 -0.310528 0)
(10.7623 -0.319836 0)
(10.7793 -0.32797 0)
(10.7894 -0.340491 0)
(10.8005 -0.351259 0)
(10.8054 -0.36584 0)
(10.8123 -0.378391 0)
(10.8121 -0.393941 0)
(10.8221 -0.405884 0)
(9.99202 -0.136401 0)
(10.2447 -0.323084 0)
(10.5026 -0.419063 0)
(10.6711 -0.417663 0)
(10.7626 -0.394176 0)
(10.8174 -0.371087 0)
(10.8493 -0.358905 0)
(10.8771 -0.350538 0)
(10.8959 -0.350037 0)
(10.9148 -0.350421 0)
(10.9252 -0.356293 0)
(10.9355 -0.361418 0)
(10.9374 -0.370706 0)
(10.9393 -0.378562 0)
(10.9339 -0.389748 0)
(10.9291 -0.399325 0)
(10.9164 -0.411238 0)
(10.9116 -0.420381 0)
(9.98972 -0.219952 0)
(10.3368 -0.468192 0)
(10.6735 -0.539781 0)
(10.8756 -0.50823 0)
(10.9696 -0.464826 0)
(11.0133 -0.428016 0)
(11.0284 -0.404748 0)
(11.0351 -0.38831 0)
(11.029 -0.381332 0)
(11.0194 -0.376874 0)
(10.9979 -0.378075 0)
(10.9735 -0.378977 0)
(10.9377 -0.383693 0)
(10.9 -0.387166 0)
(10.8523 -0.393527 0)
(10.8043 -0.398847 0)
(10.7463 -0.405164 0)
(10.6947 -0.409935 0)
(9.98331 -0.3321 0)
(10.4675 -0.642363 0)
(10.8828 -0.667129 0)
(11.0723 -0.602628 0)
(11.1029 -0.537161 0)
(11.0583 -0.483079 0)
(10.9743 -0.44493 0)
(10.8732 -0.416163 0)
(10.7578 -0.397941 0)
(10.6351 -0.3832 0)
(10.5037 -0.374811 0)
(10.3668 -0.366251 0)
(10.2244 -0.362366 0)
(10.0778 -0.356913 0)
(9.92907 -0.355766 0)
(9.77756 -0.353174 0)
(9.62646 -0.352875 0)
(9.47661 -0.351039 0)
(10.0025 -0.453671 0)
(10.619 -0.818973 0)
(10.9016 -0.752054 0)
(10.7932 -0.62371 0)
(10.4938 -0.512499 0)
(10.1377 -0.429153 0)
(9.77026 -0.373523 0)
(9.4178 -0.334678 0)
(9.07707 -0.307246 0)
(8.7558 -0.284563 0)
(8.44689 -0.267608 0)
(8.15387 -0.251288 0)
(7.87321 -0.240001 0)
(7.6037 -0.227302 0)
(7.34898 -0.2211 0)
(7.09951 -0.211794 0)
(6.87116 -0.210824 0)
(6.6418 -0.204152 0)
(10.0974 -0.750796 0)
(10.0458 -1.01321 0)
(9.42488 -0.801067 0)
(8.51445 -0.572157 0)
(7.65508 -0.378711 0)
(6.929 -0.244876 0)
(6.3275 -0.167512 0)
(5.83185 -0.126242 0)
(5.40949 -0.104694 0)
(5.04897 -0.0923132 0)
(4.72894 -0.0849546 0)
(4.44826 -0.0793436 0)
(4.19191 -0.0758031 0)
(3.96306 -0.071888 0)
(3.7514 -0.0721345 0)
(3.55626 -0.0690835 0)
(3.38408 -0.0802675 0)
(3.21919 -0.0828632 0)
(8.51673 -0.436071 0)
(6.11019 -0.380891 0)
(4.2983 -0.138049 0)
(3.12391 -0.0213877 0)
(2.48117 0.0191329 0)
(2.12057 0.022473 0)
(1.89636 0.0137165 0)
(1.73508 0.00461598 0)
(1.59908 -0.00156816 0)
(1.47836 -0.00479098 0)
(1.3663 -0.00640421 0)
(1.26416 -0.00671789 0)
(1.16851 -0.0067068 0)
(1.0818 -0.00638905 0)
(0.999785 -0.00665757 0)
(0.919562 -0.00703321 0)
(0.852067 -0.0186086 0)
(0.731562 -0.00613292 0)
(-0.0520227 0.137938 0)
(-0.157097 0.0715553 0)
(-0.207147 0.0165501 0)
(-0.19538 -0.0442532 0)
(-0.118216 -0.0989564 0)
(0.0118599 -0.144981 0)
(0.185799 -0.175529 1.11357e-17)
(0.387434 -0.193505 -1.10607e-17)
(0.605571 -0.197918 0)
(0.827878 -0.192679 -1.09176e-17)
(1.04499 -0.178363 0)
(1.24791 -0.157624 0)
(1.4301 -0.131014 0)
(1.58628 -0.101679 1.0643e-17)
(1.71383 -0.0704493 0)
(1.80996 -0.0384013 0)
(1.87377 -0.00627926 -1.04459e-17)
(1.90599 0.0239585 0)
(1.90828 0.050414 0)
(1.88271 0.0721442 0)
(1.83298 0.0891182 1.01964e-17)
(1.76165 0.100671 0)
(1.67261 0.10853 1.00745e-17)
(1.56757 0.111423 0)
(1.45115 0.109533 0)
(1.32609 0.107897 9.89576e-18)
(1.19263 0.111211 0)
(1.05001 0.116343 -9.77942e-18)
(0.901406 0.121586 0)
(0.747424 0.126641 9.66452e-18)
(0.589614 0.130675 0)
(0.430245 0.13319 0)
(0.271591 0.134412 0)
(0.114143 0.134233 0)
(-0.0417616 0.131354 0)
(-0.194035 0.126676 -9.32974e-18)
(-0.34102 0.120562 0)
(-0.482303 0.114051 1.84407e-17)
(-0.616445 0.107554 0)
(-0.743032 0.100326 -1.82217e-17)
(-0.8606 0.0932976 0)
(-0.969321 0.0865399 0)
(-1.06963 0.0788022 1.78884e-17)
(-1.16106 0.0704516 0)
(-1.24425 0.0627371 1.76652e-17)
(-1.31927 0.0554834 -1.75532e-17)
(-1.38561 0.0483707 0)
(-1.44399 0.0420838 -1.73282e-17)
(-1.4955 0.0365891 -1.72151e-17)
(-1.53918 0.0328528 0)
(-1.57522 0.0312735 0)
(-1.60554 0.031297 0)
(-1.63226 0.0314648 0)
(-1.65635 0.0314983 0)
(-1.67924 0.0323875 1.65281e-17)
(-1.7028 0.0339445 0)
(-1.72841 0.0361838 -1.62989e-17)
(-1.75484 0.0382674 0)
(-1.78085 0.0389007 0)
(-1.80643 0.0394812 1.59525e-17)
(-1.83223 0.041209 0)
(-1.85996 0.0423913 -1.57211e-17)
(-1.88964 0.0440284 0)
(-1.92097 0.0454747 0)
(-1.95346 0.046232 0)
(-1.98649 0.0473572 1.52555e-17)
(-2.02003 0.0493146 0)
(-2.05415 0.0515822 0)
(-2.08897 0.0539729 1.49058e-17)
(-2.12476 0.0553033 0)
(-2.15875 0.0555451 1.46712e-17)
(-2.18983 0.056228 0)
(-2.21812 0.0568041 0)
(-2.24247 0.0568155 0)
(-2.2616 0.0562349 -1.42052e-17)
(-2.2749 0.0550309 0)
(-2.28294 0.0542683 0)
(-2.28758 0.0541645 -1.38614e-17)
(-2.28923 0.053158 -1.37479e-17)
(-2.2862 0.0514734 0)
(-2.27667 0.0491727 -1.35227e-17)
(-2.26055 0.0462174 0)
(-2.23742 0.0430341 -2.66025e-17)
(-2.2073 0.0395723 0)
(-2.17072 0.0358718 -2.61671e-17)
(-2.12753 0.0327856 0)
(-2.07879 0.030353 2.57383e-17)
(-2.02535 0.0283673 0)
(-1.96733 0.0269252 0)
(-1.90536 0.0259495 0)
(-1.841 0.0253567 -2.49012e-17)
(-1.77399 0.0250843 0)
(-1.70596 0.0250392 2.44995e-17)
(-1.63694 0.0256177 0)
(-1.56761 0.0266365 -2.41101e-17)
(-1.49992 0.0291299 -2.39216e-17)
(-1.43307 0.030293 -2.37372e-17)
(-1.36604 0.0313524 0)
(-1.3008 0.0313759 0)
(-1.23619 0.0325632 0)
(-1.1705 0.0334016 0)
(-1.10573 0.0330213 0)
(-1.03598 0.031885 0)
(-0.96722 0.033168 0)
(-0.89629 0.0327819 0)
(-0.829126 0.035162 2.22135e-17)
(-0.761581 0.0356251 2.20613e-17)
(-0.699066 0.0400035 0)
(-0.638388 0.0413479 0)
(-0.582565 0.0409878 0)
(-0.514813 0.0383647 2.14807e-17)
(-0.452283 0.0425823 0)
(-0.383616 0.0408964 0)
(-0.318755 0.0437416 0)
(-0.247961 0.0407285 0)
(-0.175015 0.0430655 -2.08063e-17)
(-0.099726 0.0445556 0)
(-0.0185348 0.0435025 0)
(0.0669098 0.0449553 2.04291e-17)
(0.155991 0.0448199 -2.03075e-17)
(0.248535 0.0441392 0)
(0.344916 0.0480099 -2.00748e-17)
(0.437359 0.0509431 0)
(0.530025 0.0547645 1.98483e-17)
(0.611202 0.0594531 0)
(0.682597 0.0623939 0)
(0.757614 0.0626468 0)
(0.826946 0.063416 0)
(0.906468 0.0605031 0)
(0.980209 0.0610411 -3.8396e-17)
(1.05589 0.062536 -3.8177e-17)
(1.11626 0.0672787 0)
(1.16703 0.0663711 0)
(1.21194 0.0677364 0)
(1.24856 0.0636933 3.72526e-17)
(1.29622 0.0588909 0)
(1.3453 0.0572514 0)
(1.38992 0.0561117 0)
(1.43824 0.053876 3.62324e-17)
(1.47713 0.0560562 -3.59644e-17)
(1.52138 0.0527519 0)
(1.55987 0.0527824 0)
(1.60108 0.0532246 -3.51495e-17)
(1.62725 0.0582654 -3.48765e-17)
(1.65706 0.0549517 0)
(1.68577 0.0586656 0)
(1.72512 0.0556944 3.40431e-17)
(1.76203 0.0659753 -3.37636e-17)
(1.7703 0.0713798 0)
(1.78409 0.0707871 0)
(1.80916 0.0711665 -3.29268e-17)
(1.8424 0.0758816 0)
(1.85577 0.0834701 0)
(1.86667 0.089163 -3.20827e-17)
(1.86574 0.0932891 0)
(1.88008 0.0981048 -3.15223e-17)
(1.88245 0.105097 0)
(1.88839 0.10922 0)
(1.87557 0.120811 0)
(1.86192 0.126733 3.04332e-17)
(1.84608 0.133161 0)
(1.81405 0.142947 0)
(1.74145 0.154636 0)
(1.66444 0.154732 0)
(1.59825 0.157217 0)
(1.50753 0.165951 0)
(1.38089 0.17232 2.88923e-17)
(1.26337 0.173702 2.8738e-17)
(1.08034 0.181799 0)
(0.874745 0.184581 0)
(0.631552 0.183773 0)
(0.415425 0.169996 -2.83206e-17)
(0.193059 0.162995 0)
(0.0404436 0.146682 5.63458e-17)
(-0.158956 0.143856 -5.62362e-17)
(-0.261082 0.123786 -5.6057e-17)
(-0.422941 0.126789 5.59526e-17)
(-0.456871 0.0964956 -5.57498e-17)
(-0.613771 0.129498 5.57304e-17)
(-0.563689 -0.00357773 0)
(0.0100979 0.249029 0)
(0.0143504 0.192398 0)
(0.0492765 0.00811781 -2.27967e-17)
(0.120416 -0.197982 0)
(0.235135 -0.383899 2.23657e-17)
(0.387238 -0.535236 2.22191e-17)
(0.568232 -0.644108 1.10442e-17)
(0.767973 -0.710084 1.09818e-17)
(0.975192 -0.736752 0)
(1.17929 -0.730542 1.08547e-17)
(1.37166 -0.694764 0)
(1.54498 -0.636533 0)
(1.69527 -0.561988 -2.1321e-17)
(1.8178 -0.477648 -1.05953e-17)
(1.91252 -0.385823 2.10565e-17)
(1.97762 -0.291337 2.0923e-17)
(2.01445 -0.199031 1.03959e-17)
(2.02313 -0.110995 0)
(2.00609 -0.0280343 0)
(1.96331 0.0465828 0)
(1.89861 0.111979 1.01369e-17)
(1.81205 0.171094 0)
(1.70826 0.224017 -3.00381e-17)
(1.58607 0.266878 0)
(1.44782 0.301889 0)
(1.29403 0.332519 -9.8321e-18)
(1.12819 0.356575 0)
(0.953065 0.373982 9.71571e-18)
(0.77247 0.385154 1.9313e-17)
(0.587321 0.392508 -9.59771e-18)
(0.400421 0.394665 0)
(0.213051 0.390911 0)
(0.0248971 0.383626 0)
(-0.163557 0.376614 1.87313e-17)
(-0.350532 0.367937 1.86168e-17)
(-0.53472 0.355578 9.25137e-18)
(-0.713405 0.340726 0)
(-0.887109 0.323578 -1.82764e-17)
(-1.05187 0.303013 0)
(-1.20999 0.281113 1.80509e-17)
(-1.35985 0.258638 0)
(-1.50304 0.235844 0)
(-1.63806 0.21543 -1.77167e-17)
(-1.76583 0.196341 0)
(-1.88878 0.178399 -5.24866e-17)
(-2.00604 0.159616 1.73857e-17)
(-2.11669 0.140683 0)
(-2.22036 0.123736 1.71655e-17)
(-2.31795 0.10605 1.70553e-17)
(-2.4082 0.0864227 0)
(-2.48921 0.0674164 0)
(-2.5631 0.0528004 0)
(-2.63175 0.0431774 0)
(-2.69709 0.0381163 0)
(-2.75848 0.0366661 -1.63737e-17)
(-2.81801 0.0362815 -3.25151e-17)
(-2.87593 0.0365331 1.61414e-17)
(-2.92962 0.0341727 0)
(-2.98089 0.0303496 -3.18129e-17)
(-3.03012 0.0291488 1.57874e-17)
(-3.07666 0.0300481 0)
(-3.12399 0.0306811 1.55499e-17)
(-3.16926 0.0331326 0)
(-3.21224 0.0342409 0)
(-3.25346 0.0333016 3.03751e-17)
(-3.29348 0.0323544 -1.50673e-17)
(-3.32911 0.0302667 2.98918e-17)
(-3.36231 0.0274465 -2.96505e-17)
(-3.39022 0.0244541 -1.47047e-17)
(-3.41514 0.0206154 0)
(-3.43403 0.0135815 -1.4463e-17)
(-3.44593 0.00374902 0)
(-3.45221 -0.00668879 0)
(-3.45009 -0.0190445 0)
(-3.43882 -0.0331764 -1.39831e-17)
(-3.41935 -0.0471859 0)
(-3.39334 -0.0574121 -2.74954e-17)
(-3.36151 -0.0646981 4.08946e-17)
(-3.32426 -0.0733812 1.35164e-17)
(-3.28073 -0.0845802 0)
(-3.22921 -0.0974024 1.3288e-17)
(-3.17239 -0.110169 0)
(-3.10989 -0.122296 2.61245e-17)
(-3.04221 -0.133372 0)
(-2.96945 -0.143926 2.56815e-17)
(-2.89157 -0.15334 -5.09231e-17)
(-2.80973 -0.162266 -2.52476e-17)
(-2.72548 -0.170242 0)
(-2.63625 -0.177772 0)
(-2.54479 -0.183393 0)
(-2.45115 -0.187594 2.44073e-17)
(-2.3542 -0.191627 0)
(-2.25605 -0.194324 -2.40011e-17)
(-2.1579 -0.194715 0)
(-2.0592 -0.196308 7.08226e-17)
(-1.96051 -0.195671 2.34175e-17)
(-1.86119 -0.19671 2.32316e-17)
(-1.76395 -0.19401 0)
(-1.66919 -0.193337 0)
(-1.57386 -0.194072 0)
(-1.47593 -0.194781 0)
(-1.37905 -0.197193 0)
(-1.27647 -0.201517 4.43237e-17)
(-1.18028 -0.199652 4.39876e-17)
(-1.08064 -0.19988 0)
(-0.993149 -0.194357 -2.16763e-17)
(-0.896836 -0.195279 -2.15242e-17)
(-0.809796 -0.188419 0)
(-0.715297 -0.187276 -4.24457e-17)
(-0.636664 -0.186832 0)
(-0.539955 -0.197092 2.09386e-17)
(-0.45366 -0.190993 0)
(-0.348149 -0.199054 0)
(-0.253449 -0.195943 -4.10591e-17)
(-0.140034 -0.204581 0)
(-0.0356708 -0.205052 2.02729e-17)
(0.0899381 -0.213073 0)
(0.217094 -0.220861 0)
(0.353472 -0.22491 1.98874e-17)
(0.494602 -0.229745 1.9771e-17)
(0.640757 -0.235101 0)
(0.790386 -0.235622 -1.95335e-17)
(0.950293 -0.237181 0)
(1.10982 -0.227715 1.92968e-17)
(1.27341 -0.218369 3.83631e-17)
(1.42162 -0.21245 0)
(1.57873 -0.21374 0)
(1.72401 -0.213773 0)
(1.88374 -0.215499 0)
(2.03088 -0.21046 3.72301e-17)
(2.18539 -0.207284 1.11006e-16)
(2.32177 -0.188469 0)
(2.44576 -0.183268 0)
(2.5649 -0.172215 0)
(2.66945 -0.173808 -3.60797e-17)
(2.77116 -0.178264 0)
(2.87132 -0.177878 0)
(2.96567 -0.176452 7.06156e-17)
(3.05883 -0.176918 3.50339e-17)
(3.13411 -0.172359 3.47653e-17)
(3.22212 -0.17971 0)
(3.28591 -0.173444 0)
(3.35315 -0.174902 3.39203e-17)
(3.40002 -0.164127 -3.36142e-17)
(3.44513 -0.178298 0)
(3.47507 -0.175248 0)
(3.50925 -0.191445 -3.27212e-17)
(3.53837 -0.173526 9.71864e-17)
(3.55284 -0.169018 0)
(3.56386 -0.179814 0)
(3.57491 -0.191244 3.1459e-17)
(3.59544 -0.189261 0)
(3.59085 -0.182408 6.16245e-17)
(3.58802 -0.180565 -3.04709e-17)
(3.5602 -0.185261 0)
(3.55655 -0.194636 2.98441e-17)
(3.53266 -0.191103 5.90532e-17)
(3.52171 -0.192495 0)
(3.4753 -0.185426 0)
(3.45141 -0.193824 -2.85734e-17)
(3.40983 -0.185878 0)
(3.35195 -0.168964 5.58864e-17)
(3.25344 -0.149496 0)
(3.16081 -0.15464 0)
(3.04059 -0.14634 0)
(2.91175 -0.122178 0)
(2.71922 -0.104079 -2.66527e-17)
(2.56145 -0.0770424 -2.6463e-17)
(2.27892 -0.0275629 0)
(2.00778 -0.00228722 0)
(1.67829 0.0226498 0)
(1.38306 0.0188751 2.59579e-17)
(1.04914 0.023522 0)
(0.841283 0.0138112 -5.16684e-17)
(0.522198 0.0319426 5.16421e-17)
(0.408613 0.0007873 5.14931e-17)
(0.127009 0.0315422 5.14832e-17)
(0.128067 -0.0167648 5.13309e-17)
(-0.167789 0.0794133 5.14937e-17)
(0.017185 -0.115724 0)
(0.0290278 0.0717344 0)
(0.120857 -0.0373604 0)
(0.22765 -0.240523 2.29136e-17)
(0.339457 -0.467356 2.26652e-17)
(0.473638 -0.69191 -2.25137e-17)
(0.617555 -0.873901 -2.24011e-17)
(0.771685 -1.00272 -1.47999e-21)
(0.922952 -1.07323 0)
(1.06814 -1.08422 0)
(1.195 -1.04526 0)
(1.30388 -0.9656 0)
(1.38994 -0.856497 0)
(1.45563 -0.726131 6.47138e-17)
(1.49642 -0.586064 0)
(1.51515 -0.441349 -2.13054e-17)
(1.51002 -0.294969 -2.11692e-17)
(1.48392 -0.153664 0)
(1.43544 -0.0203075 0)
(1.36912 0.103466 0)
(1.28468 0.215987 0)
(1.18441 0.315484 -2.05029e-17)
(1.06921 0.398701 0)
(0.944108 0.471232 2.02489e-17)
(0.806424 0.536494 0)
(0.659036 0.591507 0)
(0.503307 0.636561 0)
(0.344651 0.672621 3.95255e-17)
(0.182073 0.6999 0)
(0.0180697 0.719353 -1.95225e-17)
(-0.146897 0.72972 3.88002e-17)
(-0.311104 0.732834 0)
(-0.477539 0.734483 0)
(-0.64415 0.731351 0)
(-0.809541 0.721719 -1.89167e-17)
(-0.97129 0.70633 -1.87959e-17)
(-1.12981 0.684709 0)
(-1.2835 0.657293 0)
(-1.43159 0.625665 3.68593e-17)
(-1.57265 0.591532 3.66196e-17)
(-1.71191 0.557096 -3.63815e-17)
(-1.84609 0.524255 0)
(-1.97837 0.49065 0)
(-2.10498 0.458375 0)
(-2.22785 0.428894 0)
(-2.34639 0.401154 3.52007e-17)
(-2.45896 0.371847 3.49671e-17)
(-2.56637 0.342117 -3.47351e-17)
(-2.66821 0.3135 0)
(-2.76401 0.28556 0)
(-2.85457 0.256477 0)
(-2.93982 0.229609 0)
(-3.02514 0.21182 3.35757e-17)
(-3.10454 0.195984 0)
(-3.17902 0.182783 0)
(-3.24698 0.17497 3.28781e-17)
(-3.31036 0.169819 3.26465e-17)
(-3.36823 0.163031 0)
(-3.41855 0.153868 -6.43598e-17)
(-3.46666 0.146992 3.19485e-17)
(-3.51103 0.140792 -3.17141e-17)
(-3.54937 0.13691 0)
(-3.58493 0.134014 0)
(-3.61454 0.129637 0)
(-3.6392 0.124863 0)
(-3.66124 0.119179 -3.05522e-17)
(-3.67918 0.111393 -6.06457e-17)
(-3.69146 0.104049 -3.00974e-17)
(-3.70027 0.0969291 2.98725e-17)
(-3.7017 0.0857952 0)
(-3.69768 0.0730374 -5.88396e-17)
(-3.68582 0.0572849 -5.83912e-17)
(-3.66845 0.0414456 -5.79463e-17)
(-3.64703 0.0239302 5.75044e-17)
(-3.61672 0.00182759 0)
(-3.57958 -0.0207398 8.49411e-17)
(-3.53656 -0.04023 0)
(-3.48886 -0.0557493 -2.78776e-17)
(-3.43257 -0.0696731 -2.76648e-17)
(-3.36834 -0.0853753 0)
(-3.29794 -0.10229 0)
(-3.22404 -0.119089 -5.40415e-17)
(-3.14787 -0.134043 0)
(-3.0677 -0.148348 -5.31947e-17)
(-2.9849 -0.162111 0)
(-2.89749 -0.176596 5.2356e-17)
(-2.80649 -0.188081 1.03884e-16)
(-2.71176 -0.197923 0)
(-2.6161 -0.207181 0)
(-2.5174 -0.214689 0)
(-2.41994 -0.220841 5.02915e-17)
(-2.3208 -0.226723 0)
(-2.21829 -0.231436 4.94696e-17)
(-2.11303 -0.234728 0)
(-2.00728 -0.23402 0)
(-1.89923 -0.234237 -9.65074e-17)
(-1.79386 -0.231932 0)
(-1.68653 -0.231467 -4.74632e-17)
(-1.58347 -0.225451 0)
(-1.47619 -0.226171 -4.66959e-17)
(-1.3696 -0.225324 0)
(-1.2607 -0.224529 0)
(-1.15331 -0.228283 0)
(-1.0429 -0.230682 -1.35698e-16)
(-0.942879 -0.222295 -4.48714e-17)
(-0.833771 -0.219192 0)
(-0.74069 -0.20878 0)
(-0.639005 -0.210136 0)
(-0.553357 -0.197758 0)
(-0.44931 -0.193988 4.32367e-17)
(-0.363184 -0.189378 -8.58381e-17)
(-0.255963 -0.206184 -4.26338e-17)
(-0.168466 -0.198066 8.46589e-17)
(-0.048626 -0.21347 8.40952e-17)
(0.0532133 -0.210204 4.17618e-17)
(0.183553 -0.225154 0)
(0.296518 -0.226241 8.23979e-17)
(0.435323 -0.242647 0)
(0.567672 -0.252051 -8.12866e-17)
(0.716249 -0.258208 -4.0385e-17)
(0.862631 -0.263236 0)
(1.01797 -0.271384 7.97629e-17)
(1.16757 -0.273909 3.96283e-17)
(1.32979 -0.28242 0)
(1.48849 -0.278327 3.909e-17)
(1.66106 -0.268282 -1.16508e-16)
(1.82116 -0.25703 0)
(1.98592 -0.256353 0)
(2.13834 -0.255708 0)
(2.29886 -0.259377 0)
(2.45566 -0.254853 -7.5153e-17)
(2.61201 -0.251848 -7.46544e-17)
(2.76344 -0.22099 0)
(2.90139 -0.214582 0)
(3.03255 -0.200855 0)
(3.15407 -0.198859 0)
(3.2606 -0.203622 0)
(3.37983 -0.206841 0)
(3.49236 -0.206135 -7.09507e-17)
(3.60476 -0.205755 -1.65157e-20)
(3.69963 -0.198368 0)
(3.80892 -0.20915 0)
(3.89887 -0.196429 -6.86056e-17)
(3.99053 -0.197271 0)
(4.07026 -0.176541 6.74237e-17)
(4.13879 -0.187408 6.6806e-17)
(4.18063 -0.170553 0)
(4.23449 -0.189204 0)
(4.27318 -0.165221 -6.48988e-17)
(4.32312 -0.156144 -1.28508e-16)
(4.35086 -0.160329 0)
(4.38363 -0.172022 0)
(4.42539 -0.163181 0)
(4.43825 -0.148266 -6.1688e-17)
(4.46614 -0.135123 6.10005e-17)
(4.46475 -0.135344 0)
(4.48474 -0.142111 1.19366e-16)
(4.46843 -0.130241 5.90293e-17)
(4.48602 -0.12859 -1.16764e-16)
(4.46371 -0.109791 0)
(4.46353 -0.116168 0)
(4.43202 -0.0943991 -1.12743e-16)
(4.39061 -0.0668039 -5.5715e-17)
(4.30455 -0.0372229 0)
(4.24074 -0.0355306 0)
(4.10788 -0.0173977 0)
(3.99778 0.0240294 0)
(3.78753 0.0502787 -1.05591e-16)
(3.6195 0.0942619 0)
(3.32331 0.16527 0)
(3.06622 0.190838 0)
(2.7169 0.21984 0)
(2.4025 0.203321 0)
(2.01241 0.187582 0)
(1.77505 0.153399 -1.00639e-16)
(1.37053 0.149582 0)
(1.24237 0.0828085 0)
(0.85721 0.105109 -1.99429e-16)
(0.85308 0.0217164 9.92524e-17)
(0.468171 0.11225 -9.9403e-17)
(0.664214 -0.126181 9.87825e-17)
(0.0206425 -0.0933164 0)
(0.124874 -0.268001 -4.69567e-17)
(0.247415 -0.488455 0)
(0.375122 -0.753869 -2.27974e-17)
(0.501601 -0.997554 0)
(0.617558 -1.18657 0)
(0.722128 -1.30444 2.24465e-17)
(0.802715 -1.34801 0)
(0.865569 -1.31839 0)
(0.904751 -1.23281 0)
(0.926778 -1.1102 0)
(0.9295 -0.961095 0)
(0.917798 -0.794137 -8.6618e-17)
(0.888968 -0.61713 -4.30262e-17)
(0.846546 -0.434479 4.27468e-17)
(0.790249 -0.253566 0)
(0.722051 -0.0810404 0)
(0.640513 0.0804447 0)
(0.5491 0.229445 0)
(0.447368 0.363046 0)
(0.338181 0.480839 -4.11513e-17)
(0.219759 0.582908 -4.08986e-17)
(0.0934317 0.673767 4.06494e-17)
(-0.0386371 0.74989 -4.04018e-17)
(-0.174779 0.81276 0)
(-0.313634 0.860964 0)
(-0.453973 0.897097 -3.96585e-17)
(-0.594634 0.921866 0)
(-0.736188 0.936023 0)
(-0.878263 0.944625 -3.89252e-17)
(-1.02089 0.950061 -3.86818e-17)
(-1.16138 0.947679 -3.84373e-17)
(-1.29881 0.93847 0)
(-1.43298 0.92306 0)
(-1.56256 0.901441 3.76936e-17)
(-1.68715 0.871634 0)
(-1.80774 0.835919 0)
(-1.92471 0.796271 -3.69488e-17)
(-2.03861 0.758096 3.66973e-17)
(-2.15089 0.719829 -3.64486e-17)
(-2.25666 0.680957 0)
(-2.36074 0.641474 0)
(-2.46075 0.604987 -7.142e-17)
(-2.55792 0.570621 0)
(-2.64969 0.532487 -7.0454e-17)
(-2.73801 0.494356 -1.04964e-16)
(-2.82264 0.458481 1.04243e-16)
(-2.90202 0.422182 -6.90149e-17)
(-2.97821 0.38494 0)
(-3.05189 0.349271 0)
(-3.1252 0.321117 -6.76026e-17)
(-3.19585 0.29664 -3.35709e-17)
(-3.26016 0.271045 0)
(-3.32032 0.249916 0)
(-3.37585 0.234593 -3.28788e-17)
(-3.42601 0.217862 -6.52978e-17)
(-3.46985 0.199011 0)
(-3.50779 0.181175 6.43797e-17)
(-3.54167 0.166764 -6.39204e-17)
(-3.57042 0.153216 6.34645e-17)
(-3.59304 0.139132 0)
(-3.60989 0.125964 0)
(-3.62216 0.114639 0)
(-3.62932 0.103061 0)
(-3.63287 0.0925648 0)
(-3.63164 0.0773602 6.07743e-17)
(-3.62608 0.0608609 0)
(-3.6133 0.0425247 0)
(-3.59475 0.0218601 0)
(-3.57188 0.000250348 1.18047e-16)
(-3.54356 -0.0234623 5.85915e-17)
(-3.51038 -0.047169 5.8158e-17)
(-3.47234 -0.0739254 -1.15457e-16)
(-3.42784 -0.105101 5.73038e-17)
(-3.38007 -0.13503 -5.68845e-17)
(-3.32601 -0.162526 0)
(-3.26721 -0.1886 5.60377e-17)
(-3.19846 -0.215424 0)
(-3.12564 -0.240758 0)
(-3.04715 -0.262838 0)
(-2.96722 -0.283776 1.08719e-16)
(-2.88507 -0.303141 -5.39464e-17)
(-2.79966 -0.322343 -5.35331e-17)
(-2.7129 -0.341386 -1.06271e-16)
(-2.62222 -0.361473 -1.58217e-16)
(-2.53045 -0.377501 -5.23439e-17)
(-2.43394 -0.390637 0)
(-2.33767 -0.402222 -1.03071e-16)
(-2.23989 -0.410328 0)
(-2.14209 -0.416593 -1.52206e-16)
(-2.04361 -0.426566 0)
(-1.94616 -0.433016 -1.49832e-16)
(-1.84264 -0.439332 0)
(-1.73863 -0.44003 0)
(-1.62994 -0.441668 -4.87476e-17)
(-1.52271 -0.438593 0)
(-1.41218 -0.438275 4.79736e-17)
(-1.30651 -0.433666 9.51589e-17)
(-1.19285 -0.435496 4.7205e-17)
(-1.08312 -0.437257 9.36523e-17)
(-0.964726 -0.437888 -9.28954e-17)