/*--------------------------------*- C++ -*----------------------------------*\
| =========                 |                                                 |
| \\      /  F ield         | OpenFOAM: The Open Source CFD Toolbox           |
|  \\    /   O peration     | Version:  dev                                   |
|   \\  /    A nd           | Web:      http://www.openfoam.org               |
|    \\/     M anipulation  |                                                 |
\*---------------------------------------------------------------------------*/
FoamFile
{
    version     2.0;
    format      ascii;
    class       volSymmTensorField;
    object      UPrime2Mean;
    location    "9.159";
}
// * * * * * * * * * * * * * * * * * * * * * * * * * * * * * * * * * * * * * //

dimensions      [0 2 -2 0 0 0 0];

internalField   nonuniform List<symmTensor> 
12225
(
(0.329326 0.0192563 0 0.069186 0 0)
(2.98703 0.0796279 0 0.0780979 0 0)
(7.88267 0.1122 0 0.076803 0 0)
(14.5387 0.148056 0 0.07548 0 0)
(22.7096 0.132814 0 0.0764277 0 0)
(32.0762 0.200836 0 0.0745845 0 0)
(42.3915 0.0957288 0 0.0765278 0 0)
(53.5378 0.200087 0 0.0737679 0 0)
(65.6343 -0.0286898 0 0.0775321 0 0)
(78.2341 0.125292 0 0.0735413 0 0)
(92.983 -0.306443 0 0.0812365 0 0)
(107.327 -0.116056 0 0.0769183 0 0)
(127.94 -0.672438 0 0.0862468 0 0)
(145.641 -1.27689 0 0.134625 0 0)
(185.97 -1.41143 0 0.116393 0 0)
(198.545 -0.393114 0 2.39328 0 0)
(272.336 -33.5378 0 5.80804 0 0)
(575.867 -52.9419 0 18.8235 0 0)
(0.377501 0.0567555 0 0.68816 0 0)
(3.15706 0.252032 0 0.731401 0 0)
(8.41322 0.361808 0 0.713286 0 0)
(15.478 0.484924 0 0.705789 0 0)
(24.2042 0.452484 0 0.702667 0 0)
(34.4661 0.632143 0 0.682515 0 0)
(45.5363 0.295502 0 0.691323 0 0)
(58.4948 0.608247 0 0.658024 0 0)
(71.4881 -0.135689 0 0.681893 0 0)
(87.1662 0.281853 0 0.645262 0 0)
(102.802 -1.06551 0 0.710583 0 0)
(121.448 -0.766469 0 0.65485 0 0)
(142.876 -2.54321 0 1.06829 0 0)
(166.337 -4.48996 0 1.04621 0 0)
(199.81 -0.929135 0 3.10245 0 0)
(274.399 -9.9743 0 6.60514 0 0)
(281.069 -20.839 0 8.73694 0 0)
(799.956 -185.185 0 64.6976 0 0)
(0.505006 0.0583311 0 2.13805 0 0)
(3.0648 0.424267 0 2.1999 0 0)
(8.46792 0.570052 0 2.14889 0 0)
(14.8567 0.851123 0 2.14038 0 0)
(24.2817 0.863668 0 2.11733 0 0)
(33.1592 1.052 0 2.08017 0 0)
(45.2813 0.75525 0 2.07597 0 0)
(56.2155 0.885064 0 2.00527 0 0)
(69.7007 0.171227 0 2.04945 0 0)
(83.4667 0.0157226 0 1.9572 0 0)
(98.207 -1.1243 0 2.12045 0 0)
(115.688 -2.44906 0 2.09254 0 0)
(138.648 -3.59702 0 2.62049 0 0)
(154.906 -7.1999 0 2.82968 0 0)
(211.053 -13.0091 0 6.12067 0 0)
(223.447 -7.89093 0 6.37593 0 0)
(353.082 -62.2646 0 31.0814 0 0)
(534.61 -192.517 0 98.2377 0 0)
(1.02944 0.0923341 0 4.66497 0 0)
(3.55013 0.618998 0 4.76143 0 0)
(9.07073 0.815198 0 4.63738 0 0)
(15.0704 1.14896 0 4.59668 0 0)
(24.6424 1.31168 0 4.55248 0 0)
(32.9925 1.34847 0 4.47823 0 0)
(45.0162 1.2598 0 4.44334 0 0)
(55.182 0.971717 0 4.34495 0 0)
(68.6169 0.474123 0 4.37682 0 0)
(80.7334 -0.284563 0 4.25336 0 0)
(96.0585 -1.3328 0 4.50282 0 0)
(110.541 -3.3436 0 4.36811 0 0)
(131.504 -4.79559 0 5.29824 0 0)
(152.29 -10.9741 0 5.6044 0 0)
(187.899 -11.4305 0 9.28543 0 0)
(238.475 -28.8661 0 16.8209 0 0)
(291.537 -58.9237 0 32.6772 0 0)
(414.876 -178.325 0 107.834 0 0)
(1.86342 0.364868 0 8.51273 0 0)
(5.0101 0.719835 0 8.71403 0 0)
(9.43799 1.13913 0 8.46314 0 0)
(16.2462 1.29356 0 8.36014 0 0)
(24.6552 1.69922 0 8.27067 0 0)
(33.9557 1.50075 0 8.13573 0 0)
(44.8319 1.5957 0 8.03526 0 0)
(55.5374 0.990659 0 7.90339 0 0)
(68.4324 0.597829 0 7.8506 0 0)
(80.1422 -0.596731 0 7.75304 0 0)
(95.3949 -1.78193 0 7.95499 0 0)
(108.584 -4.23119 0 7.90263 0 0)
(128.128 -6.8832 0 9.02 0 0)
(145.258 -12.2917 0 9.26215 0 0)
(174.002 -19.2044 0 14.5853 0 0)
(217.938 -25.961 0 17.2064 0 0)
(233.72 -55.5845 0 46.259 0 0)
(326.699 -171.743 0 138.653 0 0)
(2.56241 0.750248 0 14.0235 0 0)
(6.32603 0.806761 0 14.375 0 0)
(9.30292 1.53886 0 13.9457 0 0)
(17.1011 1.59327 0 13.7511 0 0)
(24.1477 2.11874 0 13.5767 0 0)
(34.2756 1.93454 0 13.3449 0 0)
(43.9881 1.98851 0 13.1402 0 0)
(55.1863 1.41245 0 12.8997 0 0)
(67.3467 0.891171 0 12.7636 0 0)
(78.9308 -0.389806 0 12.5629 0 0)
(94.4513 -1.7423 0 12.7641 0 0)
(105.857 -4.31674 0 12.6729 0 0)
(128.146 -7.27067 0 13.9763 0 0)
(137.972 -13.1609 0 14.6563 0 0)
(171.01 -21.8392 0 21.2401 0 0)
(191.522 -33.0459 0 24.5933 0 0)
(211.107 -55.918 0 51.559 0 0)
(265.712 -145.654 0 130.614 0 0)
(2.24525 0.721384 0 21.5072 0 0)
(5.54525 0.940748 0 22.1227 0 0)
(9.20318 1.76239 0 21.3493 0 0)
(16.3452 2.07581 0 21.1617 0 0)
(23.981 2.44755 0 20.7636 0 0)
(33.375 2.54004 0 20.5307 0 0)
(43.6259 2.27089 0 20.0631 0 0)
(54.0673 1.92445 0 19.8334 0 0)
(66.5074 0.892599 0 19.4165 0 0)
(77.3867 -0.222936 0 19.264 0 0)
(92.5469 -2.3769 0 19.2052 0 0)
(103.53 -4.82809 0 19.2481 0 0)
(123.677 -8.98656 0 20.4589 0 0)
(133.962 -14.2656 0 21.4375 0 0)
(161.581 -24.4067 0 28.5009 0 0)
(169.423 -32.4138 0 32.0387 0 0)
(203.418 -59.0124 0 56.8477 0 0)
(190.297 -108.777 0 114.117 0 0)
(1.42511 0.598514 0 29.7196 0 0)
(4.32346 1.13412 0 30.6042 0 0)
(8.58614 1.92257 0 29.4582 0 0)
(15.2566 2.47058 0 29.2871 0 0)
(23.2147 2.7746 0 28.6427 0 0)
(32.2766 2.95999 0 28.3819 0 0)
(42.4337 2.59417 0 27.6313 0 0)
(52.8073 2.18655 0 27.3511 0 0)
(64.4491 1.00209 0 26.6286 0 0)
(75.639 -0.369089 0 26.4639 0 0)
(88.6739 -2.75823 0 26.0818 0 0)
(100.46 -5.74188 0 26.3069 0 0)
(115.58 -10.3285 0 27.0644 0 0)
(128.112 -15.8062 0 28.5798 0 0)
(144.702 -26.4973 0 33.8942 0 0)
(152.065 -33.4645 0 37.4601 0 0)
(180.375 -54.8988 0 53.1666 0 0)
(139.628 -71.317 0 83.6738 0 0)
(1.00786 0.521132 0 38.4803 0 0)
(3.77947 1.28711 0 39.6735 0 0)
(8.18262 2.03422 0 38.1377 0 0)
(14.7322 2.77734 0 37.9968 0 0)
(22.6601 3.00265 0 37.0879 0 0)
(31.5962 3.31174 0 36.8132 0 0)
(41.5176 2.80014 0 35.7635 0 0)
(51.7902 2.46756 0 35.4455 0 0)
(62.8487 1.03201 0 34.4383 0 0)
(73.8649 -0.288522 0 34.2389 0 0)
(85.6848 -3.05385 0 33.6096 0 0)
(97.0444 -5.91214 0 33.87 0 0)
(109.373 -10.9575 0 34.3804 0 0)
(121.248 -16.0483 0 36.1007 0 0)
(131.258 -25.5709 0 39.9841 0 0)
(138.178 -33.2147 0 44.7149 0 0)
(150.028 -47.3282 0 52.443 0 0)
(123.241 -58.7567 0 73.0984 0 0)
(0.612254 0.484306 0 49.6537 0 0)
(3.23655 1.4449 0 51.2401 0 0)
(7.7434 2.1847 0 49.1461 0 0)
(14.2018 3.03307 0 49.0587 0 0)
(21.9972 3.26967 0 47.771 0 0)
(30.8564 3.57432 0 47.4919 0 0)
(40.4824 3.05915 0 46.0324 0 0)
(50.6184 2.62962 0 45.6644 0 0)
(61.1436 1.15385 0 44.2469 0 0)
(71.8126 -0.30243 0 44.0041 0 0)
(82.6952 -3.15226 0 42.9618 0 0)
(93.2385 -6.04983 0 43.2818 0 0)
(103.879 -11.1051 0 43.284 0 0)
(113.744 -15.8572 0 45.1414 0 0)
(121.354 -24.5163 0 47.6461 0 0)
(125.792 -30.5806 0 51.917 0 0)
(129.128 -40.7262 0 56.4393 0 0)
(116.033 -48.3965 0 69.0018 0 0)
(0.434166 0.515853 0 63.8314 0 0)
(2.97944 1.62605 0 65.8842 0 0)
(7.4708 2.38127 0 63.1955 0 0)
(13.8478 3.30683 0 63.0837 0 0)
(21.4948 3.56516 0 61.4518 0 0)
(30.1936 3.85337 0 61.0377 0 0)
(39.553 3.3493 0 59.232 0 0)
(49.3918 2.80995 0 58.638 0 0)
(59.4621 1.35964 0 56.9196 0 0)
(69.5653 -0.278854 0 56.403 0 0)
(79.6608 -2.99449 0 55.1026 0 0)
(89.1954 -6.09545 0 55.1599 0 0)
(98.5126 -10.5676 0 54.8159 0 0)
(106.389 -15.4306 0 56.3649 0 0)
(112.554 -22.1453 0 57.8105 0 0)
(115.088 -28.0602 0 61.541 0 0)
(116.033 -35.2058 0 64.5085 0 0)
(109.583 -40.8043 0 71.4076 0 0)
(0.356367 0.540121 0 81.3042 0 0)
(2.83176 1.74316 0 83.9864 0 0)
(7.2625 2.55216 0 80.5226 0 0)
(13.5174 3.49722 0 80.4134 0 0)
(20.9909 3.80362 0 78.3294 0 0)
(29.4696 4.02991 0 77.7769 0 0)
(38.5267 3.55246 0 75.4905 0 0)
(47.996 2.90955 0 74.667 0 0)
(57.5488 1.46995 0 72.4777 0 0)
(67.0409 -0.235346 0 71.6923 0 0)
(76.2531 -2.88592 0 69.9396 0 0)
(84.838 -5.87172 0 69.6822 0 0)
(92.7434 -9.97634 0 68.8493 0 0)
(99.1718 -14.3049 0 69.8047 0 0)
(103.886 -19.7513 0 70.4495 0 0)
(105.83 -24.664 0 72.9554 0 0)
(105.985 -29.8289 0 74.8996 0 0)
(101.74 -33.3134 0 78.5578 0 0)
(0.329286 0.568532 0 102.358 0 0)
(2.7363 1.80473 0 105.563 0 0)
(7.06935 2.67989 0 101.542 0 0)
(13.156 3.57866 0 101.073 0 0)
(20.4342 3.92745 0 98.8118 0 0)
(28.6178 4.04718 0 97.7333 0 0)
(37.3503 3.60631 0 95.2217 0 0)
(46.3496 2.82335 0 93.7741 0 0)
(55.3771 1.46272 0 91.3407 0 0)
(64.1568 -0.354905 0 89.8919 0 0)
(72.5345 -2.77334 0 87.8683 0 0)
(80.1234 -5.70468 0 86.8965 0 0)
(86.8437 -9.21497 0 85.6876 0 0)
(92.1038 -13.1039 0 85.6972 0 0)
(95.8051 -17.3218 0 85.6498 0 0)
(97.3898 -21.3881 0 86.7936 0 0)
(97.4925 -25.2322 0 87.8233 0 0)
(94.6888 -27.6875 0 89.4304 0 0)
(0.313691 0.572738 0 126.325 0 0)
(2.64095 1.7719 0 130.249 0 0)
(6.8485 2.6642 0 125.545 0 0)
(12.7318 3.45845 0 124.736 0 0)
(19.7678 3.78524 0 122.208 0 0)
(27.6175 3.79829 0 120.633 0 0)
(35.958 3.32401 0 117.753 0 0)
(44.4666 2.47641 0 115.722 0 0)
(52.9022 1.12105 0 112.865 0 0)
(60.9948 -0.642657 0 110.777 0 0)
(68.5426 -2.91094 0 108.289 0 0)
(75.265 -5.54305 0 106.566 0 0)
(81.0021 -8.59833 0 104.801 0 0)
(85.4507 -11.8217 0 103.8 0 0)
(88.4958 -15.1845 0 102.971 0 0)
(89.9334 -18.3518 0 102.799 0 0)
(90.2359 -21.2706 0 102.815 0 0)
(88.2733 -22.9178 0 102.97 0 0)
(0.299297 0.524285 0 151.712 0 0)
(2.53301 1.57975 0 156.208 0 0)
(6.58432 2.37437 0 151.084 0 0)
(12.2339 2.98356 0 149.647 0 0)
(18.9746 3.20631 0 147.091 0 0)
(26.453 3.0637 0 144.781 0 0)
(34.3526 2.5228 0 141.695 0 0)
(42.341 1.59037 0 138.892 0 0)
(50.1769 0.260756 0 135.696 0 0)
(57.5953 -1.44428 0 132.823 0 0)
(64.4074 -3.50613 0 129.875 0 0)
(70.3854 -5.84377 0 127.306 0 0)
(75.3989 -8.42061 0 124.906 0 0)
(79.2852 -11.0726 0 122.908 0 0)
(81.9832 -13.7105 0 121.197 0 0)
(83.4011 -16.175 0 119.861 0 0)
(83.9836 -18.3734 0 118.775 0 0)
(82.7769 -19.4201 0 117.667 0 0)
(0.284009 0.393738 0 174.908 0 0)
(2.41462 1.14406 0 180.102 0 0)
(6.28412 1.66829 0 174.5 0 0)
(11.6722 1.99994 0 172.619 0 0)
(18.0792 1.99668 0 169.94 0 0)
(25.159 1.65956 0 167.092 0 0)
(32.5908 0.978736 0 163.709 0 0)
(40.059 -0.0303338 0 160.316 0 0)
(47.3164 -1.36474 0 156.702 0 0)
(54.1296 -2.97662 0 153.192 0 0)
(60.3207 -4.84485 0 149.709 0 0)
(65.7255 -6.87554 0 146.422 0 0)
(70.2391 -9.02962 0 143.329 0 0)
(73.7885 -11.1774 0 140.478 0 0)
(76.344 -13.2411 0 137.891 0 0)
(77.8702 -15.1404 0 135.569 0 0)
(78.7522 -16.7878 0 133.46 0 0)
(78.204 -17.3862 0 131.266 0 0)
(0.268788 0.156253 0 190.002 0 0)
(2.29377 0.390674 0 195.668 0 0)
(5.96762 0.48842 0 189.78 0 0)
(11.0766 0.409791 0 187.639 0 0)
(17.1335 0.073126 0 184.895 0 0)
(23.8056 -0.535226 0 181.728 0 0)
(30.7757 -1.40434 0 178.153 0 0)
(37.7482 -2.5265 0 174.404 0 0)
(44.4872 -3.87607 0 170.496 0 0)
(50.7865 -5.41591 0 166.582 0 0)
(56.4929 -7.10256 0 162.694 0 0)
(61.485 -8.87092 0 158.919 0 0)
(65.6874 -10.6665 0 155.287 0 0)
(69.0706 -12.4114 0 151.829 0 0)
(71.6274 -14.0296 0 148.568 0 0)
(73.3469 -15.4996 0 145.528 0 0)
(74.5419 -16.7356 0 142.639 0 0)
(74.5868 -17.0573 0 139.649 0 0)
(0.259142 -0.142224 0 189.975 0 0)
(2.19628 -0.533492 0 195.599 0 0)
(5.69101 -0.936562 0 189.774 0 0)
(10.5438 -1.49138 0 187.624 0 0)
(16.285 -2.21146 0 184.923 0 0)
(22.597 -3.11352 0 181.762 0 0)
(29.1715 -4.18674 0 178.212 0 0)
(35.7361 -5.42533 0 174.466 0 0)
(42.0679 -6.79885 0 170.545 0 0)
(47.9892 -8.27866 0 166.597 0 0)
(53.3641 -9.81798 0 162.627 0 0)
(58.1042 -11.3743 0 158.746 0 0)
(62.1483 -12.8948 0 154.938 0 0)
(65.4904 -14.336 0 151.279 0 0)
(68.1294 -15.6328 0 147.741 0 0)
(70.0705 -16.7921 0 144.407 0 0)
(71.5471 -17.7388 0 141.163 0 0)
(72.0815 -17.9441 0 137.837 0 0)
(0.255966 -0.395769 0 174.175 0 0)
(2.13707 -1.30453 0 179.121 0 0)
(5.50025 -2.1251 0 173.797 0 0)
(10.1632 -3.07266 0 171.806 0 0)
(15.6709 -4.10032 0 169.327 0 0)
(21.7187 -5.22879 0 166.441 0 0)
(28.0093 -6.45099 0 163.193 0 0)
(34.2883 -7.76379 0 159.773 0 0)
(40.3454 -9.13874 0 156.171 0 0)
(46.0241 -10.5559 0 152.547 0 0)
(51.1992 -11.9734 0 148.867 0 0)
(55.8024 -13.3647 0 145.264 0 0)
(59.7803 -14.6847 0 141.686 0 0)
(63.1371 -15.9105 0 138.238 0 0)
(65.8707 -16.9905 0 134.858 0 0)
(67.9986 -17.9397 0 131.661 0 0)
(69.6899 -18.6972 0 128.509 0 0)
(70.5875 -18.8853 0 125.314 0 0)
(0.257414 -0.544679 0 148.769 0 0)
(2.10926 -1.74506 0 152.721 0 0)
(5.38579 -2.81927 0 148.191 0 0)
(9.92106 -4.0014 0 146.475 0 0)
(15.2721 -5.20397 0 144.356 0 0)
(21.143 -6.45196 0 141.905 0 0)
(27.2459 -7.73736 0 139.144 0 0)
(33.3388 -9.06199 0 136.242 0 0)
(39.222 -10.3985 0 133.174 0 0)
(44.7516 -11.7369 0 130.086 0 0)
(49.8124 -13.0389 0 126.933 0 0)
(54.3452 -14.2914 0 123.842 0 0)
(58.3037 -15.4549 0 120.751 0 0)
(61.6934 -16.5206 0 117.766 0 0)
(64.5135 -17.4449 0 114.821 0 0)
(66.7862 -18.2466 0 112.026 0 0)
(68.6365 -18.8755 0 109.257 0 0)
(69.7972 -19.0852 0 106.469 0 0)
(0.260264 -0.600434 0 119.9 0 0)
(2.10028 -1.88711 0 122.866 0 0)
(5.31968 -3.0636 0 119.222 0 0)
(9.76957 -4.33512 0 117.829 0 0)
(15.0157 -5.59211 0 116.125 0 0)
(20.769 -6.86064 0 114.163 0 0)
(26.7481 -8.13046 0 111.953 0 0)
(32.7203 -9.40686 0 109.628 0 0)
(38.4931 -10.6645 0 107.167 0 0)
(43.9311 -11.9002 0 104.686 0 0)
(48.9268 -13.0803 0 102.147 0 0)
(53.4257 -14.2001 0 99.6514 0 0)
(57.3863 -15.2253 0 97.1497 0 0)
(60.8137 -16.1557 0 94.7271 0 0)
(63.7079 -16.9544 0 92.3318 0 0)
(66.0939 -17.6409 0 90.0511 0 0)
(68.0663 -18.1743 0 87.789 0 0)
(69.4258 -18.41 0 85.5166 0 0)
(0.263215 -0.589694 0 91.7823 0 0)
(2.09992 -1.8275 0 93.895 0 0)
(5.28188 -2.9927 0 91.1072 0 0)
(9.67487 -4.24161 0 90.0348 0 0)
(14.8505 -5.46057 0 88.7369 0 0)
(20.5251 -6.67196 0 87.2437 0 0)
(26.4225 -7.86535 0 85.5649 0 0)
(32.3159 -9.04569 0 83.795 0 0)
(38.0185 -10.1923 0 81.9213 0 0)
(43.4003 -11.3038 0 80.0264 0 0)
(48.3595 -12.3533 0 78.0877 0 0)
(52.8439 -13.3392 0 76.1754 0 0)
(56.8159 -14.234 0 74.2596 0 0)
(60.2785 -15.0401 0 72.3984 0 0)
(63.2337 -15.7295 0 70.5592 0 0)
(65.7084 -16.3171 0 68.8013 0 0)
(67.7752 -16.7737 0 67.0606 0 0)
(69.2875 -17.0232 0 65.3098 0 0)
(0.266289 -0.535982 0 66.8577 0 0)
(2.10374 -1.64862 0 68.2962 0 0)
(5.26054 -2.72706 0 66.2668 0 0)
(9.61578 -3.87852 0 65.4847 0 0)
(14.7441 -4.99686 0 64.5476 0 0)
(20.3663 -6.09791 0 63.4669 0 0)
(26.2102 -7.17366 0 62.254 0 0)
(32.0525 -8.22597 0 60.9697 0 0)
(37.7111 -9.24002 0 59.6123 0 0)
(43.0594 -10.2133 0 58.234 0 0)
(47.9996 -11.1267 0 56.8267 0 0)
(52.4809 -11.9776 0 55.4336 0 0)
(56.4679 -12.7466 0 54.0412 0 0)
(59.9626 -13.4355 0 52.684 0 0)
(62.9678 -14.0246 0 51.3455 0 0)
(65.5115 -14.5233 0 50.0612 0 0)
(67.6509 -14.9131 0 48.793 0 0)
(69.281 -15.1609 0 47.5134 0 0)
(0.268149 -0.462244 0 46.237 0 0)
(2.10815 -1.41403 0 47.1746 0 0)
(5.24868 -2.36067 0 45.7755 0 0)
(9.57895 -3.37078 0 45.238 0 0)
(14.6756 -4.35078 0 44.5974 0 0)
(20.2633 -5.31007 0 43.8545 0 0)
(26.0725 -6.24364 0 43.0213 0 0)
(31.8824 -7.14974 0 42.135 0 0)
(37.5143 -8.01945 0 41.2005 0 0)
(42.8433 -8.84805 0 40.2484 0 0)
(47.7743 -9.62329 0 39.2795 0 0)
(52.2575 -10.3412 0 38.318 0 0)
(56.259 -10.9893 0 37.3596 0 0)
(59.7798 -11.5672 0 36.4226 0 0)
(62.823 -12.0625 0 35.5004 0 0)
(65.4175 -12.4791 0 34.6124 0 0)
(67.6089 -12.8069 0 33.7385 0 0)
(69.3249 -13.0373 0 32.8534 0 0)
(0.269296 -0.382554 0 30.1236 0 0)
(2.11167 -1.16314 0 30.7073 0 0)
(5.24191 -1.95579 0 29.7981 0 0)
(9.55544 -2.80378 0 29.4513 0 0)
(14.6308 -3.62655 0 29.0396 0 0)
(20.1952 -4.43029 0 28.5596 0 0)
(25.9813 -5.21122 0 28.021 0 0)
(31.7691 -5.96632 0 27.446 0 0)
(37.3822 -6.68907 0 26.8406 0 0)
(42.6966 -7.37472 0 26.2229 0 0)
(47.6193 -8.01471 0 25.5956 0 0)
(52.0999 -8.60487 0 24.9719 0 0)
(56.1068 -9.13726 0 24.3516 0 0)
(59.6397 -9.60997 0 23.7436 0 0)
(62.7026 -10.0155 0 23.1462 0 0)
(65.3229 -10.354 0 22.5691 0 0)
(67.5413 -10.6211 0 22.0028 0 0)
(69.3103 -10.8186 0 21.4278 0 0)
(0.269609 -0.304181 0 18.1909 0 0)
(2.11342 -0.9186 0 18.5347 0 0)
(5.23653 -1.55214 0 17.9846 0 0)
(9.53602 -2.23427 0 17.7788 0 0)
(14.5923 -2.89771 0 17.536 0 0)
(20.1347 -3.54707 0 17.2518 0 0)
(25.8964 -4.1776 0 16.9319 0 0)
(31.6586 -4.78598 0 16.5893 0 0)
(37.246 -5.36566 0 16.228 0 0)
(42.5351 -5.91315 0 15.8584 0 0)
(47.4352 -6.42117 0 15.4822 0 0)
(51.8949 -6.88735 0 15.1075 0 0)
(55.8859 -7.30488 0 14.7344 0 0)
(59.406 -7.67345 0 14.3681 0 0)
(62.4637 -7.98728 0 14.008 0 0)
(65.0812 -8.24691 0 13.6594 0 0)
(67.3027 -8.45154 0 13.3178 0 0)
(69.0992 -8.60192 0 12.9714 0 0)
(0.26926 -0.227961 0 9.87079 0 0)
(2.11115 -0.690372 0 10.0541 0 0)
(5.21929 -1.17717 0 9.75725 0 0)
(9.49252 -1.70629 0 9.65499 0 0)
(14.5186 -2.22014 0 9.53072 0 0)
(20.0275 -2.72006 0 9.38169 0 0)
(25.7523 -3.20171 0 9.2112 0 0)
(31.4766 -3.66262 0 9.02718 0 0)
(37.0248 -4.09702 0 8.83165 0 0)
(42.2767 -4.50336 0 8.63088 0 0)
(47.1408 -4.87603 0 8.42546 0 0)
(51.5703 -5.21518 0 8.22057 0 0)
(55.536 -5.51502 0 8.01564 0 0)
(59.0398 -5.77775 0 7.81462 0 0)
(62.0892 -5.99725 0 7.61657 0 0)
(64.7057 -6.17707 0 7.42549 0 0)
(66.9309 -6.32016 0 7.23895 0 0)
(68.7606 -6.42221 0 7.05096 0 0)
(0.26811 -0.154597 0 4.48083 0 0)
(2.08429 -0.497221 0 4.57636 0 0)
(5.15802 -0.851269 0 4.45131 0 0)
(9.39171 -1.22719 0 4.41571 0 0)
(14.3922 -1.58383 0 4.36469 0 0)
(19.8756 -1.92579 0 4.30033 0 0)
(25.5738 -2.25044 0 4.2231 0 0)
(31.2721 -2.55552 0 4.13671 0 0)
(36.7972 -2.83944 0 4.04378 0 0)
(42.0284 -3.10337 0 3.94807 0 0)
(46.8758 -3.34438 0 3.85037 0 0)
(51.2959 -3.56334 0 3.75339 0 0)
(55.2558 -3.7565 0 3.65662 0 0)
(58.7655 -3.92592 0 3.56275 0 0)
(61.8214 -4.06548 0 3.47019 0 0)
(64.4568 -4.18049 0 3.38283 0 0)
(66.679 -4.27095 0 3.29769 0 0)
(68.5369 -4.34099 0 3.21358 0 0)
(0.255221 -0.0880673 0 1.41933 0 0)
(2.06835 -0.313035 0 1.485 0 0)
(5.2065 -0.5253 0 1.445 0 0)
(9.49866 -0.733402 0 1.43186 0 0)
(14.5526 -0.923264 0 1.41177 0 0)
(20.0872 -1.10568 0 1.38852 0 0)
(25.8417 -1.28214 0 1.36191 0 0)
(31.5991 -1.45011 0 1.33262 0 0)
(37.1858 -1.60791 0 1.30166 0 0)
(42.476 -1.75538 0 1.27009 0 0)
(47.3829 -1.89101 0 1.23831 0 0)
(51.8555 -2.01482 0 1.20693 0 0)
(55.8652 -2.12478 0 1.17592 0 0)
(59.4147 -2.22155 0 1.14599 0 0)
(62.5039 -2.30103 0 1.11676 0 0)
(65.1708 -2.36722 0 1.09031 0 0)
(67.3928 -2.41981 0 1.06512 0 0)
(69.2427 -2.45927 0 1.0382 0 0)
(0.245908 -0.0252912 0 0.141679 0 0)
(2.06616 -0.0976911 0 0.153448 0 0)
(5.18534 -0.165333 0 0.150666 0 0)
(9.44663 -0.230485 0 0.149497 0 0)
(14.4818 -0.293304 0 0.147197 0 0)
(20.0038 -0.353565 0 0.144472 0 0)
(25.7515 -0.412322 0 0.141476 0 0)
(31.5065 -0.468766 0 0.138349 0 0)
(37.1003 -0.52206 0 0.135129 0 0)
(42.4084 -0.572023 0 0.131881 0 0)
(47.3456 -0.618346 0 0.128627 0 0)
(51.8589 -0.661003 0 0.125428 0 0)
(55.922 -0.699418 0 0.122289 0 0)
(59.53 -0.733447 0 0.119268 0 0)
(62.6895 -0.762357 0 0.116446 0 0)
(65.4331 -0.78759 0 0.114112 0 0)
(67.7453 -0.805797 0 0.112041 0 0)
(69.6729 -0.815084 0 0.111659 0 0)
(0.0244736 0.0357359 0 0.716657 0 0)
(0.267148 0.0990228 0 0.677771 0 0)
(0.78509 0.180762 0 0.670619 0 0)
(1.53817 0.294706 0 0.661405 0 0)
(2.48471 0.423579 0 0.659802 0 0)
(3.60653 0.568236 0 0.656525 0 0)
(4.88166 0.715157 -2.38371e-19 0.654549 -6.47033e-20 1.47719e-37)
(6.30723 0.865933 2.4244e-19 0.650233 6.89965e-20 1.48171e-37)
(7.87657 1.01275 0 0.64422 0 0)
(9.58772 1.16004 2.44984e-19 0.636649 6.84207e-20 1.45956e-37)
(11.4355 1.30393 0 0.628073 0 0)
(13.414 1.44666 0 0.618991 0 0)
(15.5165 1.58364 0 0.611049 0 0)
(17.7367 1.7152 -2.7764e-19 0.604595 -5.15975e-20 1.3462e-37)
(20.0686 1.83818 0 0.598397 0 0)
(22.5124 1.95167 0 0.59318 0 0)
(25.0685 2.05149 3.407e-19 0.588899 3.90036e-20 1.21984e-37)
(27.7355 2.13928 0 0.584463 0 0)
(30.5084 2.21765 0 0.579815 0 0)
(33.3814 2.28883 0 0.575386 0 0)
(36.3387 2.35188 -4.56246e-19 0.572063 -1.96036e-20 1.01697e-37)
(39.3707 2.40757 0 0.568311 0 0)
(42.4638 2.45403 -5.1582e-19 0.56606 -1.03467e-20 9.24485e-38)
(45.6087 2.49107 0 0.56727 0 0)
(48.7893 2.52482 0 0.56804 0 0)
(51.9915 2.54788 -6.03759e-19 0.570217 1.16832e-21 7.97087e-38)
(55.2085 2.55005 0 0.572054 0 0)
(58.4443 2.53262 6.57325e-19 0.570539 -6.89897e-21 7.21114e-38)
(61.693 2.50159 0 0.562697 0 0)
(64.9602 2.45886 -7.02043e-19 0.552322 1.04623e-20 6.53481e-38)
(68.2445 2.40703 0 0.538782 0 0)
(71.5332 2.34858 0 0.522966 0 0)
(74.8188 2.28334 0 0.508927 0 0)
(78.1027 2.20755 0 0.497547 0 0)
(81.3786 2.12058 0 0.486005 0 0)
(84.6434 2.02536 7.79252e-19 0.475111 -1.40328e-20 4.59483e-38)
(87.8956 1.92172 0 0.463506 0 0)
(91.1362 1.80955 -1.5618e-18 0.447506 2.71929e-20 1.61208e-37)
(94.3637 1.69043 0 0.431953 0 0)
(97.5731 1.56324 1.55191e-18 0.417359 -2.61851e-20 1.3983e-37)
(100.757 1.43047 0 0.402248 0 0)
(103.916 1.28849 0 0.390609 0 0)
(107.039 1.13822 -1.51401e-18 0.378081 2.15804e-20 1.11168e-37)
(110.111 0.985601 0 0.3653 0 0)
(113.115 0.830912 -1.47552e-18 0.354517 1.82859e-20 9.42494e-38)
(116.037 0.672984 1.45306e-18 0.345677 -1.65618e-20 8.65637e-38)
(118.862 0.509024 0 0.339473 0 0)
(121.582 0.338921 1.40231e-18 0.334576 -1.25186e-20 7.33576e-38)
(124.179 0.163664 1.37413e-18 0.33076 -1.06455e-20 6.78965e-38)
(126.655 -0.0140559 0 0.327583 0 0)
(128.995 -0.193265 0 0.325428 0 0)
(131.18 -0.376687 0 0.322687 0 0)
(133.188 -0.565097 0 0.321433 0 0)
(135.001 -0.755793 0 0.323463 0 0)
(136.59 -0.945488 -1.17392e-18 0.327675 -4.39208e-21 5.0119e-38)
(137.927 -1.13662 0 0.331786 0 0)
(139.001 -1.33247 1.07934e-18 0.335498 1.1471e-20 4.74713e-38)
(139.814 -1.53494 0 0.340761 0 0)
(140.362 -1.74375 0 0.347569 0 0)
(140.629 -1.94984 -9.11552e-19 0.356841 -2.24361e-20 4.74813e-38)
(140.611 -2.15416 0 0.368769 0 0)
(140.292 -2.35931 7.80336e-19 0.380786 3.12191e-20 4.965e-38)
(139.677 -2.56333 0 0.391088 0 0)
(138.763 -2.76735 0 0.403881 0 0)
(137.559 -2.97055 0 0.418121 0 0)
(136.078 -3.16663 -4.82539e-19 0.432667 -4.75249e-20 6.03035e-38)
(134.322 -3.35558 0 0.44724 0 0)
(132.306 -3.5381 0 0.460307 0 0)
(130.04 -3.71359 -2.26935e-19 0.474219 -6.11865e-20 7.2983e-38)
(127.541 -3.88734 0 0.490115 0 0)
(124.847 -4.05292 -5.11417e-20 0.505443 -6.98898e-20 8.29606e-38)
(121.97 -4.2053 0 0.520379 0 0)
(118.927 -4.3463 0 0.53658 0 0)
(115.751 -4.47777 0 0.553855 0 0)
(112.468 -4.59952 -3.04872e-19 0.571841 8.31192e-20 1.04493e-37)
(109.093 -4.7092 0 0.589834 0 0)
(105.644 -4.80344 0 0.607607 0 0)
(102.131 -4.88243 -5.64209e-19 0.625548 9.02638e-20 1.20107e-37)
(98.5672 -4.95056 -6.46014e-19 0.644203 9.18089e-20 1.25214e-37)
(94.9799 -5.00753 0 0.662904 0 0)
(91.399 -5.05254 -7.99057e-19 0.682538 9.45862e-20 1.34632e-37)
(87.8454 -5.08623 0 0.703649 0 0)
(84.3395 -5.10806 -1.87768e-18 0.725179 1.92494e-19 5.74191e-37)
(80.8958 -5.11696 0 0.747809 0 0)
(77.5322 -5.11137 -2.12253e-18 0.770368 1.9363e-19 6.07354e-37)
(74.2668 -5.08949 0 0.793303 0 0)
(71.1144 -5.05465 2.32507e-18 0.819237 -1.9378e-19 6.36348e-37)
(68.0923 -5.0066 0 0.844238 0 0)
(65.2149 -4.93995 0 0.866542 0 0)
(62.4821 -4.85449 0 0.889229 0 0)
(59.8979 -4.75238 -2.58577e-18 0.914233 1.86202e-19 6.7971e-37)
(57.4684 -4.63601 0 0.938821 0 0)
(55.2027 -4.50359 2.64666e-18 0.963077 -1.79929e-19 6.94445e-37)
(53.1035 -4.35496 0 0.98683 0 0)
(51.1599 -4.18415 -2.65865e-18 1.0104 1.73586e-19 7.0332e-37)
(49.3666 -3.99659 -2.6495e-18 1.0317 1.70359e-19 7.06848e-37)
(47.7115 -3.79636 -2.6305e-18 1.05294 1.66178e-19 7.09524e-37)
(46.1905 -3.58719 0 1.07532 0 0)
(44.7769 -3.36801 0 1.09839 0 0)
(43.4812 -3.13957 0 1.11794 0 0)
(42.2837 -2.90213 0 1.13785 0 0)
(41.1812 -2.66309 0 1.15769 0 0)
(40.1545 -2.42339 0 1.17676 0 0)
(39.2003 -2.1811 0 1.19186 0 0)
(38.2726 -1.93751 0 1.20788 0 0)
(37.3691 -1.70095 2.02511e-18 1.22325 -1.31516e-19 7.07494e-37)
(36.4566 -1.47257 1.91122e-18 1.24038 -1.24255e-19 7.06897e-37)
(35.5598 -1.25357 0 1.25205 0 0)
(34.6443 -1.04324 0 1.26513 0 0)
(33.7189 -0.85666 0 1.27922 0 0)
(32.7346 -0.680768 1.35421e-18 1.29168 -1.04644e-19 6.91079e-37)
(31.7906 -0.530544 0 1.29886 0 0)
(30.7799 -0.388163 0 1.30876 0 0)
(29.8221 -0.285484 0 1.31892 0 0)
(28.8952 -0.202169 0 1.33209 0 0)
(28.0651 -0.151621 -4.38674e-19 1.34056 7.5769e-20 6.66079e-37)
(27.3654 -0.125515 0 1.34993 0 0)
(26.8266 -0.134654 0 1.36342 0 0)
(26.5373 -0.177386 -2.22696e-19 1.37132 -6.5564e-20 6.42658e-37)
(26.4928 -0.245936 4.49637e-19 1.3842 6.12579e-20 6.30021e-37)
(26.7444 -0.355746 0 1.40118 0 0)
(27.3497 -0.511916 9.11973e-19 1.41884 6.01778e-20 6.0519e-37)
(28.3665 -0.709514 0 1.43816 0 0)
(29.8656 -0.961351 -1.35323e-18 1.45524 -6.44243e-20 5.7552e-37)
(31.8633 -1.24804 0 1.47803 0 0)
(34.4302 -1.58324 0 1.50507 0 0)
(37.4665 -1.96088 0 1.53777 0 0)
(41.0814 -2.38907 0 1.57204 0 0)
(45.1274 -2.84299 0 1.61026 0 0)
(49.6096 -3.34471 4.89709e-18 1.6525 2.0468e-19 1.97179e-36)
(54.4706 -3.89033 5.15228e-18 1.69875 2.30451e-19 1.93722e-36)
(59.729 -4.47211 0 1.74726 0 0)
(65.191 -5.07437 0 1.80294 0 0)
(70.8086 -5.7012 0 1.8582 0 0)
(76.4341 -6.315 -5.69333e-18 1.91898 -3.52251e-19 1.9173e-36)
(81.8443 -6.92995 0 1.99007 0 0)
(87.0008 -7.55171 0 2.06241 0 0)
(91.8447 -8.16647 0 2.13877 0 0)
(96.2938 -8.75731 -5.33443e-18 2.21723 -5.33471e-19 2.0722e-36)
(100.312 -9.32325 5.10102e-18 2.30218 5.83257e-19 2.13458e-36)
(103.724 -9.84664 0 2.39164 0 0)
(106.632 -10.3566 0 2.48429 0 0)
(109.007 -10.8111 4.08063e-18 2.57877 7.35479e-19 2.36628e-36)
(110.847 -11.2299 3.65094e-18 2.67214 7.84428e-19 2.4515e-36)
(112.004 -11.574 0 2.77241 0 0)
(112.574 -11.8885 0 2.87234 0 0)
(112.453 -12.1308 -2.05282e-18 2.97642 -9.45917e-19 2.71932e-36)
(111.772 -12.3553 1.42319e-18 3.07144 9.89533e-19 2.79804e-36)
(110.579 -12.5095 0 3.16827 0 0)
(108.671 -12.6095 0 3.26895 0 0)
(106.171 -12.6431 -5.21692e-19 3.35989 1.11735e-18 3.06869e-36)
(103.039 -12.6227 0 3.4504 0 0)
(99.5598 -12.5642 0 3.53395 0 0)
(95.5739 -12.4149 -2.54849e-18 3.60642 1.20629e-18 3.30175e-36)
(91.2763 -12.1933 0 3.6784 0 0)
(86.6526 -11.8608 -3.83165e-18 3.73992 1.25734e-18 3.445e-36)
(81.7673 -11.4434 0 3.79586 0 0)
(76.662 -10.9083 0 3.83523 0 0)
(71.7202 -10.2749 0 3.85934 0 0)
(66.8408 -9.47711 5.87083e-18 3.87808 -1.27818e-18 3.68187e-36)
(62.1849 -8.55973 0 3.88156 0 0)
(57.967 -7.48998 0 3.86956 0 0)
(54.5117 -6.30091 0 3.8418 0 0)
(51.6587 -4.92317 0 3.80001 0 0)
(49.572 -3.46594 0 3.74969 0 0)
(48.8654 -1.91248 0 3.67781 0 0)
(49.6868 -0.286382 6.01703e-18 3.58844 -1.10547e-18 3.73067e-36)
(51.7341 1.42652 5.60712e-18 3.49053 -1.05144e-18 3.71263e-36)
(55.4327 3.1177 0 3.37847 0 0)
(60.6849 4.74488 0 3.2603 0 0)
(67.4887 6.32563 0 3.13053 0 0)
(75.419 7.79998 -3.05521e-18 3.00079 7.95641e-19 3.38596e-36)
(84.5406 9.10233 0 2.87275 0 0)
(94.09 10.2918 2.95485e-18 2.73781 -1.3513e-18 1.23731e-35)
(103.957 11.2499 -1.31279e-18 2.60744 1.21852e-18 1.16709e-35)
(113.584 12.0394 3.19316e-19 2.47555 1.10586e-18 1.10269e-35)
(123.23 12.6901 -2.02311e-18 2.35055 -1.01531e-18 1.03455e-35)
(131.351 13.2315 3.68309e-18 2.23127 9.23005e-19 9.77809e-36)
(139.244 13.7104 -5.29547e-18 2.12373 -9.04865e-19 9.01217e-36)
(143.008 14.4033 0 2.06774 0 0)
(0.0183049 0.174092 0 6.09061 0 0)
(0.202672 0.387549 0 6.02876 0 0)
(0.629315 0.609225 1.31832e-19 5.85627 1.75573e-19 6.75808e-37)
(1.32665 0.853421 0 5.73568 0 0)
(2.2685 1.13233 -1.92883e-19 5.67592 -3.5261e-19 9.18391e-37)
(3.44428 1.43676 -1.84838e-19 5.64869 -4.40177e-19 9.7136e-37)
(4.83282 1.7611 -8.13148e-20 5.63318 -2.507e-19 2.48664e-37)
(6.41983 2.1013 -6.97272e-20 5.61509 -2.69584e-19 2.609e-37)
(8.19749 2.45007 0 5.58675 0 0)
(10.1639 2.80292 -4.31246e-20 5.54421 -2.68489e-19 2.59061e-37)
(12.3203 3.15106 0 5.49241 0 0)
(14.665 3.49217 0 5.43287 0 0)
(17.1896 3.82109 9.66288e-20 5.3647 4.23092e-19 9.49859e-37)
(19.895 4.1374 7.0394e-20 5.29293 1.86691e-19 2.33826e-37)
(22.7707 4.43137 -1.86997e-19 5.21788 -3.26081e-19 8.92476e-37)
(25.8106 4.70292 -2.52927e-19 5.13987 -2.81258e-19 8.64785e-37)
(29.0034 4.95349 -1.71623e-19 5.05573 -1.18558e-19 2.12471e-37)
(32.3428 5.18465 0 4.9652 0 0)
(35.8169 5.39483 0 4.86968 0 0)
(39.4172 5.5886 0 4.76717 0 0)
(43.1204 5.76509 -3.86405e-19 4.66244 -3.69939e-20 1.8015e-37)
(46.9179 5.92142 0 4.55805 0 0)
(50.787 6.04931 1.60748e-18 4.45166 -1.54939e-20 1.54974e-36)
(54.7151 6.15244 0 4.34885 0 0)
(58.6853 6.23246 0 4.24383 0 0)
(62.6799 6.28959 7.7405e-19 4.13974 -5.74909e-20 1.56283e-37)
(66.6715 6.32059 0 4.03387 0 0)
(70.641 6.3347 -9.32032e-19 3.93334 8.16363e-20 1.45783e-37)
(74.555 6.32557 -1.99161e-18 3.83346 1.81271e-19 5.56284e-37)
(78.4035 6.288 1.07603e-18 3.73083 -9.86229e-20 1.36423e-37)
(82.1823 6.21905 0 3.62315 0 0)
(85.8913 6.12228 0 3.51793 0 0)
(89.517 6.00018 0 3.41468 0 0)
(93.063 5.85388 -2.57435e-18 3.30662 2.22626e-19 4.70668e-37)
(96.5212 5.67793 -2.65262e-18 3.19924 2.20176e-19 4.54543e-37)
(99.905 5.47262 -1.37249e-18 3.09829 1.07534e-19 1.10613e-37)
(103.223 5.23627 0 3.00641 0 0)
(106.467 4.96397 2.83588e-18 2.91834 -2.02954e-19 4.12306e-37)
(109.647 4.65361 0 2.83321 0 0)
(112.756 4.31452 -2.87276e-18 2.75176 1.88398e-19 3.81111e-37)
(115.802 3.94777 0 2.67153 0 0)
(118.781 3.56116 0 2.59945 0 0)
(121.7 3.15852 2.82613e-18 2.52866 -1.54076e-19 3.31306e-37)
(124.543 2.73702 0 2.46348 0 0)
(127.293 2.28995 8.15613e-18 2.40561 -3.93452e-19 2.68138e-36)
(129.947 1.813 -2.68761e-18 2.36035 1.19203e-19 2.83372e-37)
(132.509 1.31042 0 2.33318 0 0)
(134.994 0.782097 -2.54804e-18 2.31725 9.09519e-20 2.51457e-37)
(137.388 0.220733 -2.46747e-18 2.31082 7.67058e-20 2.35901e-37)
(139.689 -0.366972 0 2.31305 0 0)
(141.875 -0.966268 0 2.3264 0 0)
(143.927 -1.56307 0 2.34137 0 0)
(145.829 -2.14823 0 2.35479 0 0)
(147.545 -2.72572 0 2.37839 0 0)
(149.062 -3.30403 1.88297e-18 2.41125 1.44916e-20 1.71778e-37)
(150.359 -3.8906 3.45052e-18 2.45456 7.10801e-20 6.54658e-37)
(151.414 -4.48069 -1.64418e-18 2.50563 -5.58862e-20 1.59805e-37)
(152.239 -5.08898 0 2.56171 0 0)
(152.808 -5.69908 2.687e-18 2.62495 1.90239e-19 6.0032e-37)
(153.092 -6.28925 -1.16994e-18 2.69323 -1.13229e-19 1.46584e-37)
(153.117 -6.87543 0 2.76998 0 0)
(152.837 -7.45656 -9.78179e-19 2.85992 -1.48492e-19 1.49239e-37)
(152.262 -8.01589 0 2.95333 0 0)
(151.387 -8.56613 0 3.05455 0 0)
(150.21 -9.09888 -1.04861e-18 3.16188 -3.96272e-19 6.24581e-37)
(148.719 -9.60288 4.23151e-19 3.27403 2.14879e-19 1.635e-37)
(146.947 -10.0976 -4.89929e-19 3.39366 -4.61848e-19 6.67417e-37)
(144.89 -10.5706 2.13042e-19 3.51841 4.88928e-19 6.91204e-37)
(142.568 -11.0138 1.03641e-20 3.64278 2.54379e-19 1.82458e-37)