/*--------------------------------*- C++ -*----------------------------------*\
| =========                 |                                                 |
| \\      /  F ield         | OpenFOAM: The Open Source CFD Toolbox           |
|  \\    /   O peration     | Version:  dev                                   |
|   \\  /    A nd           | Web:      http://www.openfoam.org               |
|    \\/     M anipulation  |                                                 |
\*---------------------------------------------------------------------------*/
FoamFile
{
    version     2.0;
    format      ascii;
    class       volScalarField;
    object      k;
    location    "9.139";
}
// * * * * * * * * * * * * * * * * * * * * * * * * * * * * * * * * * * * * * //

dimensions      [0 2 -2 0 0 0 0];

internalField   nonuniform List<scalar> 
12225
(
7.95461
7.90895
4.65736
4.48958
4.63071
5.58807
7.70546
7.78242
10.9353
10.7518
14.2097
12.9805
16.9555
14.5325
17.3502
20.3856
33.9088
43.153
1.847
6.16137
5.2784
6.495
4.62238
6.58018
5.43601
7.33225
6.86545
7.86089
8.2169
8.80509
9.81569
8.283
11.3625
13.132
34.8427
34.9292
0.19435
2.22002
2.53268
4.13573
2.98207
4.55305
3.14305
4.2221
3.86121
4.00603
3.95391
3.81055
5.27559
3.59036
5.25359
10.0336
28.1398
32.9431
0.0234428
0.595309
0.773675
1.46913
1.4079
1.87561
1.75911
1.56363
2.27121
1.67027
1.7687
1.40477
2.26115
1.62342
2.56886
5.02033
24.1915
39.6822
0.00257223
0.0942683
0.202578
0.389333
0.81347
0.807916
1.10721
0.82753
1.35332
1.13159
1.05088
0.803782
1.15028
1.16405
2.06269
3.98696
21.327
39.7361
0.0128573
0.133858
0.166562
0.301825
0.364062
0.6047
0.715695
0.492729
0.726959
0.726417
0.75858
0.596637
0.840106
1.08832
1.47629
4.76094
22.8764
41.6658
0.00950782
0.108957
0.118761
0.145577
0.187498
0.263336
0.295211
0.182969
0.329171
0.338358
0.420079
0.373503
0.579188
0.530536
1.17688
3.40266
14.026
32.8302
0.0033054
0.0220163
0.0393274
0.0433868
0.075826
0.0896075
0.126717
0.0779478
0.145008
0.143532
0.191363
0.185125
0.370697
0.296927
0.54279
1.61775
6.06875
10.246
0.00135926
0.0101305
0.0168637
0.0187269
0.0364171
0.0411336
0.0559367
0.0471371
0.0681117
0.0762835
0.100142
0.116796
0.201561
0.172131
0.301974
0.672925
2.41017
2.49168
0.00150692
0.00768704
0.0120011
0.0152134
0.0229354
0.027898
0.0343083
0.0487231
0.0569947
0.0616042
0.0797808
0.0854211
0.114417
0.142763
0.194451
0.322189
0.785711
0.697285
0.00319512
0.0115581
0.014452
0.019713
0.023297
0.0273664
0.036813
0.0448518
0.0525644
0.059655
0.0731561
0.0761386
0.0858173
0.107563
0.130108
0.176476
0.284853
0.266532
0.0125675
0.0211463
0.023378
0.0297253
0.0297709
0.0331178
0.0370777
0.0446196
0.0529847
0.0628234
0.0696594
0.0779811
0.0806892
0.0888023
0.0989918
0.119412
0.149077
0.151118
0.0402062
0.041744
0.0399059
0.0428074
0.0412937
0.0441718
0.0438817
0.0492498
0.0584777
0.0679103
0.0730308
0.0809968
0.0835741
0.0877356
0.0943732
0.107199
0.120816
0.127189
0.0868542
0.0838964
0.0738999
0.0698762
0.0634363
0.0643991
0.0629064
0.0684353
0.0779572
0.0867137
0.090527
0.095843
0.0977085
0.098806
0.103965
0.114723
0.125682
0.131656
0.134836
0.127032
0.120169
0.119759
0.116102
0.116911
0.116761
0.122494
0.135282
0.146658
0.154443
0.158825
0.160101
0.161713
0.166226
0.172619
0.178498
0.18104
0.23828
0.22543
0.204892
0.186588
0.176341
0.173305
0.171741
0.173229
0.179554
0.190966
0.200788
0.208252
0.212654
0.215828
0.218575
0.220636
0.2223
0.222442
0.32683
0.289808
0.247945
0.218252
0.203308
0.19747
0.195433
0.195464
0.198352
0.208
0.218637
0.226989
0.232524
0.235754
0.237435
0.238225
0.238488
0.238008
0.324288
0.293754
0.252455
0.222081
0.206516
0.20013
0.198006
0.197743
0.199977
0.209167
0.220001
0.228642
0.23468
0.238075
0.239641
0.240139
0.240213
0.239737
0.283075
0.265009
0.232992
0.207686
0.194631
0.189338
0.187819
0.187819
0.19049
0.199799
0.210518
0.21958
0.226117
0.230034
0.231818
0.232306
0.232391
0.232001
0.186655
0.18016
0.16248
0.151244
0.146641
0.145433
0.145686
0.147629
0.154153
0.164647
0.175519
0.186266
0.194866
0.200852
0.204078
0.20528
0.205769
0.205811
0.122543
0.115098
0.101768
0.0943915
0.0912905
0.0901351
0.0900531
0.0904645
0.092767
0.0999216
0.109141
0.118398
0.126557
0.132813
0.137284
0.139173
0.139898
0.140574
0.0650813
0.0636548
0.0584384
0.0552624
0.0537142
0.0525334
0.0520119
0.0522679
0.054849
0.0592694
0.0639533
0.0700227
0.0752658
0.079702
0.0827749
0.0846179
0.0854308
0.0865166
0.0336637
0.034863
0.0331128
0.0311674
0.0294288
0.0290589
0.0297692
0.0319114
0.0352654
0.0397574
0.0443337
0.0501889
0.0545089
0.0586162
0.0611174
0.0632389
0.0643021
0.065665
0.0162851
0.0163973
0.0155416
0.0155206
0.0163078
0.0189145
0.0228978
0.0267396
0.0314258
0.0374138
0.0431451
0.0496524
0.0541306
0.058252
0.0605288
0.0626408
0.0636736
0.0651174
0.00623513
0.00694861
0.00804334
0.0111608
0.0152052
0.0225615
0.0309676
0.0382573
0.0471614
0.0570917
0.0667619
0.0763919
0.0824352
0.0867356
0.0883472
0.0896792
0.0902692
0.0909649
0.000960694
0.00393652
0.0107967
0.0261757
0.0467782
0.0783103
0.107572
0.130415
0.155146
0.176984
0.195872
0.211148
0.218953
0.221456
0.220766
0.219071
0.217759
0.216509
0.00122354
0.0212151
0.0859381
0.191729
0.29942
0.407384
0.492121
0.55074
0.598826
0.630101
0.649721
0.658677
0.656829
0.64991
0.641266
0.632964
0.626436
0.622994
0.0196267
0.304529
0.873706
1.24782
1.51947
1.71261
1.83041
1.8945
1.91646
1.90805
1.87855
1.83289
1.78407
1.73948
1.70316
1.66449
1.62949
1.5906
0.526384
3.08803
4.48248
4.79496
4.74576
4.59541
4.40126
4.22429
4.07894
3.94006
3.80756
3.67508
3.5526
3.43304
3.32176
3.19645
3.07267
2.84306
6.71923
9.01895
7.4355
5.70943
4.86799
4.67163
4.7497
4.99342
5.32772
5.6702
5.99318
6.27944
6.51098
6.68115
6.80224
6.86129
6.79951
6.31211
0.0872565
0.162889
0.210575
0.261148
0.305736
0.331309
0.366373
0.392436
0.420275
0.459025
0.511202
0.567863
0.64786
0.791818
0.918069
1.02374
1.25444
1.43662
1.60929
1.89367
2.09501
2.32607
2.55576
2.70868
2.82939
2.83419
2.71719
2.54439
2.52928
2.6019
2.6678
2.72043
2.86913
3.11071
3.42288
3.63699
3.6554
3.66299
3.75065
4.04956
4.45983
4.88592
5.27774
5.57439
5.80513
6.02002
6.24089
6.4571
6.66273
6.85633
7.04242
7.21521
7.3817
7.53925
7.69681
7.83136
7.95068
8.07687
8.18536
8.27296
8.35846
8.4319
8.4803
8.49768
8.50812
8.49171
8.41947
8.30153
8.15838
8.00748
7.83796
7.6176
7.36162
7.0663
6.77023
6.48211
6.19754
5.91848
5.62859
5.34386
5.04472
4.7227
4.39852
4.10032
3.82949
3.58948
3.4038
3.30725
3.29842
3.31722
3.29304
3.29071
3.27394
3.24092
3.1671
3.13757
3.15099
3.20033
3.34363
3.49121
3.51433
3.49629
3.45739
3.3625
3.29043
3.22885
2.93571
2.5069
2.35574
2.3704
2.42776
2.42712
2.38096
2.3266
2.18905
2.05398
2.07511
2.58654
4.02545
5.98344
6.78763
6.75941
6.08334
5.12405
4.80136
4.89452
5.51972
5.62155
5.30789
5.16848
5.38329
6.28991
8.40459
10.3965
11.1727
11.1121
11.0875
11.1613
12.4614
16.7756
20.103
21.7603
22.4073
22.1498
21.5788
21.9572
22.4444
21.6389
20.7317
19.9933
19.0532
18.8604
17.9615
16.6895
15.3208
12.9793
10.2497
8.8169
7.32665
6.29739
5.7215
6.35524
9.44701
14.8616
15.4818
13.4749
10.8173
10.485
10.6415
11.4727
13.3831
15.2461
16.5584
17.5826
18.4004
19.2607
20.6953
23.2087
27.076
31.6804
0.245471
0.211072
0.297953
0.375278
0.365588
0.333592
0.280439
0.235397
0.210341
0.202052
0.203979
0.205454
0.207481
0.216152
0.219789
0.22147
0.228694
0.240422
0.252889
0.293759
0.346915
0.415909
0.587504
0.70086
0.907958
1.16298
1.26259
1.27
1.2503
1.15557
0.942482
0.809062
0.754571
0.76417
0.869164
0.909253
0.917873
0.928892
0.972036
1.28486
2.01689
2.44079
2.67638
2.83453
2.88542
2.84298
2.71707
2.61484
2.54807
2.50947
2.49488
2.48477
2.47782
2.47859
2.50179
2.5285
2.55928
2.6127
2.68344
2.77646
2.87953
2.94344
2.98152
2.97066
2.91232
2.7596
2.61144
2.50605
2.40576
2.27264
2.12961
1.95839
1.78768
1.63461
1.53764
1.46471
1.39581
1.32733
1.24588
1.16901
1.08191
0.974197
0.878027
0.814185
0.762399
0.724615
0.717738
0.742586
0.829322
0.934032
0.964567
1.01289
1.04724
1.05676
1.03745
1.00862
1.00748
1.02403
1.09407
1.29948
1.4345
1.5385
1.6455
1.61403
1.57183
1.7569
1.7765
1.42631
1.33195
1.44827
1.64646
1.80853
1.94953
2.07599
2.09229
2.11213
2.3675
3.11609
3.97608
4.07958
3.66629
2.80928
2.37388
2.2544
2.35277
2.7833
2.95291
2.68616
2.29517
2.2872
2.39767
2.40481
2.44835
2.99012
4.02285
4.30237
4.23862
4.12707
4.55321
4.91168
5.36639
5.62099
6.04143
6.26931
6.17082
6.12357
6.35329
6.65024
6.61737
6.59451
6.51356
6.53282
6.78085
6.83477
6.76485
6.26844
5.25859
4.72808
4.38849
4.21594
4.53258
6.43837
8.9329
9.20492
7.41172
8.48046
10.2393
8.63524
7.54422
6.74735
6.40452
6.47287
6.96141
7.81103
8.36429
9.10747
10.1665
11.3992
11.6493
11.3109
0.57472
0.390444
0.517409
0.486664
0.388881
0.273441
0.204615
0.181378
0.178516
0.18189
0.1953
0.210499
0.215251
0.216284
0.214135
0.205691
0.198834
0.190744
0.178171
0.174514
0.174914
0.17931
0.196175
0.234386
0.316238
0.384549
0.522853
0.667414
0.712038
0.68533
0.562752
0.483864
0.485101
0.589065
0.704142
0.853749
1.22794
1.44041
1.50945
1.57617
1.58857
1.46578
1.31505
1.17933
1.05688
0.945924
0.868399
0.814625
0.776821
0.75196
0.733646
0.71246
0.691647
0.67684
0.670621
0.670187
0.68103
0.710908
0.764015
0.818402
0.848854
0.855641
0.842069
0.775598
0.666598
0.600127
0.567139
0.548024
0.529469
0.500044
0.46169
0.419496
0.382998
0.363047
0.355904
0.353111
0.350164
0.345095
0.337186
0.330156
0.320647
0.30279
0.284468
0.273821
0.268452
0.267427
0.27581
0.310328
0.379709
0.433874
0.453796
0.481123
0.498394
0.503114
0.49406
0.475814
0.473285
0.477142
0.498701
0.583188
0.646422
0.709417
0.806753
0.786887
0.770981
0.95889
1.05885
0.981679
1.16835
1.44045
1.65095
1.8194
1.88543
1.90963
1.95159
2.09113
2.47193
2.8032
2.76131
2.21147
1.71185
1.46049
1.38791
1.44706
1.66414
1.77917
1.76596
1.50829
1.37292
1.46638
1.83956
1.94091
1.90295
1.95817
2.33748
2.8273
3.12606
3.31604
3.8114
4.15805
3.88074
3.55572
3.44471
3.4801
3.44458
3.5379
3.65971
4.03803
4.23255
4.23155
4.11137
4.15638
4.23042
4.31688
4.52339
4.55256
4.22173
3.8304
3.63094
3.92938
4.63435
6.70793
7.29801
6.14912
6.02262
6.03045
6.19299
8.13144
6.43874
4.93035
4.11839
3.99407
4.24029
4.98032
5.9493
6.77708
7.3188
7.19845
6.2422
5.18662
1.21102
0.866877
0.698708
0.470298
0.27495
0.199468
0.176866
0.179418
0.196997
0.225528
0.23832
0.241754
0.238864
0.226794
0.214279
0.19926
0.183531
0.171683
0.158934
0.148779
0.145581
0.145975
0.147413
0.153841
0.171298
0.222564
0.30828
0.369371
0.397138
0.430868
0.480013
0.51778
0.587008
1.07138
1.40735
1.39268
1.32686
1.28725
1.14203
0.940914
0.751831
0.607033
0.503497
0.421435
0.363224
0.323898
0.300876
0.286905
0.27711
0.269881
0.26432
0.257396
0.250944
0.24695
0.245979
0.247358
0.253876
0.26823
0.292085
0.317912
0.330919
0.334976
0.331071
0.302765
0.253944
0.231867
0.22448
0.222485
0.221854
0.219679
0.213399
0.207966
0.206295
0.207723
0.213418
0.221545
0.225492
0.227758
0.227755
0.227363
0.224971
0.220545
0.211865
0.205363
0.201857
0.201039
0.205032
0.222229
0.265983
0.312967
0.332036
0.346025
0.353714
0.355084
0.348738
0.348162
0.356833
0.361434
0.366655
0.394686
0.409149
0.431312
0.478174
0.477847
0.509429
0.694557
0.734534
0.83034
1.22011
1.58221
1.83197
1.84717
1.79139
1.75724
1.8067
2.02848
2.23642
2.21869
1.8753
1.41305
1.20945
1.14734
1.17239
1.32043
1.54947
1.62602
1.60178
1.28278
1.13894
1.17222
1.52907
1.88072
1.88996
1.84166
1.98964
2.68287
3.09719
3.26316
2.71317
2.97905
3.0888
2.81532
2.63859
2.58668
2.54549
2.85032
3.08277
3.24021
3.39375
3.33406
3.17235
3.28509
3.26627
3.28718
3.43548
3.59943
3.58195
3.38386
3.26669
3.98552
4.64937
6.22447
7.32205
6.26807
6.1773
5.32941
4.84611
6.51583
6.2528
4.39982
3.46059
3.39314
3.6443
4.21861
5.11134
5.51905
5.32194
4.37345
3.30091
2.87141
2.04918
1.25183
0.675898
0.321157
0.211223
0.18765
0.195586
0.22074
0.238151
0.243604
0.242584
0.236384
0.218772
0.197541
0.177712
0.160068
0.145502
0.135154
0.127797
0.124754
0.124855
0.128872
0.139252
0.145357
0.154022
0.172971
0.228127
0.323918
0.400493
0.443317
0.557125
1.02165
1.31755
1.34876
1.29491
1.08758
0.873809
0.681368
0.511811
0.390256
0.301378
0.241172
0.205578
0.182374
0.168364
0.160245
0.155721
0.153139
0.151562
0.149931
0.148132
0.14676
0.146087
0.146013
0.14667
0.14911
0.154501
0.163069
0.173414
0.183892
0.191767
0.194507
0.194245
0.188739
0.176557
0.172276
0.170876
0.171296
0.173672
0.178083
0.180584
0.182007
0.184805
0.191113
0.201747
0.211332
0.216069
0.21861
0.217953
0.215049
0.206954
0.200182
0.195144
0.191426
0.18931
0.188362
0.189371
0.195822
0.214259
0.252133
0.269861
0.277528
0.284479
0.290479
0.29897
0.320536
0.343892
0.341752
0.323552
0.320088
0.326172
0.350146
0.38163
0.395318
0.458865
0.552745
0.603473
0.849398
1.48838
1.9241
1.98847
1.7853
1.53694
1.49364
1.55971
1.74235
1.77799
1.67551
1.39355
1.12041
1.02065
0.993166
1.09399
1.22196
1.39609
1.57181
1.69698
1.38142
1.098
0.988626
1.17871
1.71433
1.94444
1.91105
2.11422
2.78639
3.35324
2.97088
2.01281
1.9356
2.21308
2.28154
2.43797
2.41393
2.34298
2.67636
3.04489
3.02238
3.05219
2.94423
2.7764
2.85115
2.87884
2.92365
3.03659
3.15977
3.34858
3.26429
3.25811
4.5035
4.74784
5.16734
6.50089
6.30147
5.68009
4.70365
4.45845
5.24466
6.02844
4.2043
3.29636
3.29027
3.51015
3.92136
4.41376
4.46632
4.03624
2.87336
2.34726
2.14805
2.95433
1.44458
0.531431
0.260831
0.207332
0.217531
0.244127
0.24607
0.243123
0.240526
0.237016
0.227953
0.206813
0.186074
0.164017
0.14451
0.131438
0.123822
0.120939
0.120879
0.12181
0.127375
0.138267
0.147291
0.159576
0.186333
0.251364
0.324202
0.469423
0.773242
1.09241
1.21397
1.20705
1.01309
0.772875
0.552623
0.404762
0.301386
0.229408
0.184002
0.157605
0.142847
0.136144
0.133996
0.134529
0.135978
0.136736
0.137238
0.137601
0.137722
0.137213
0.135372
0.133235
0.132885
0.133273
0.134715
0.138229
0.143376
0.148958
0.15547
0.162363
0.167275
0.169111
0.169243
0.166484
0.164527
0.16455
0.1659
0.168729
0.173689
0.179662
0.183485
0.188021
0.193637
0.202731
0.21182
0.216436
0.217434
0.216858
0.213962
0.20521
0.195799
0.191294
0.188463
0.187481
0.186501
0.185705
0.186716
0.191882
0.203569
0.209183
0.215706
0.231439
0.260243
0.286313
0.325035
0.343802
0.329694
0.292363
0.290085
0.302778
0.343057
0.370398
0.391601
0.448952
0.481796
0.572675
1.04788
1.85691
2.08274
1.93709
1.44965
1.30194
1.29087
1.34684
1.42079
1.42807
1.35963
1.17284
0.974147
0.895724
0.875315
0.905243
0.89143
0.976539
1.23868
1.53329
1.52198
1.20699
0.9292
0.958326
1.31518
2.0575
2.14618
2.32336
3.28355
3.43091
2.71689
1.81094
1.67316
1.96505
2.12113
2.49603
2.51016
2.36378
2.60748
3.04233
2.98002
2.93891
2.86239
2.67739
2.59225
2.67224
2.79784
2.92034
2.99369
3.22887
3.27924
3.63382
4.61348
4.80793
4.7571
5.67159
6.27525
5.56785
4.84849
4.29348
4.76496
5.41275
4.1068
3.26993
3.28136
3.43297
3.66007
3.77061
3.71313
3.19478
2.33304
2.06068
1.95297
3.84706
1.55615
0.484824
0.259812
0.252947
0.272124
0.268436
0.25657
0.254025
0.257553
0.256965
0.245092
0.216943
0.189933
0.162664
0.141897
0.129619
0.123159
0.120127
0.11996
0.121766
0.130303
0.141408
0.153792
0.174778
0.217847
0.327465
0.569691
0.840623
0.999496
1.06204
0.998159
0.741937
0.51648
0.37688
0.276872
0.208928
0.168656
0.145187
0.133032
0.127231
0.124892
0.124472
0.125385
0.128935
0.132409
0.135609
0.139512
0.143428
0.147331
0.149817
0.15057
0.150197
0.148305
0.146096
0.145796
0.146335
0.14849
0.151563
0.156629
0.162689
0.16847
0.171049
0.171769
0.172024
0.172194
0.172721
0.173308
0.17425
0.176645
0.182094
0.19059
0.197303
0.201924
0.206311
0.211864
0.214102
0.2142
0.213878
0.212571
0.209356
0.202173
0.198022
0.193262
0.191265
0.192386
0.190501
0.186551
0.185656
0.187712
0.188721
0.192615
0.208477
0.247893
0.284768
0.307452
0.295068
0.26751
0.270206
0.283949
0.323756
0.382185
0.424373
0.45604
0.475369
0.502871
0.678977
1.41006
1.97373
2.06477
1.57103
1.1766
1.13266
1.18658
1.26676
1.28402
1.27962
1.2182
1.04976
0.879372
0.818356
0.794447
0.76534
0.729891
0.780929
0.785958
0.865133
1.28795
1.34293
0.981934
0.890812
1.08389
2.26105
2.34511
2.49322
3.36307
2.97534
2.20199
1.60368
1.52932
1.89708
2.09292
2.6341
2.82889
2.57287
2.62046
2.86673
2.9382
2.90173
2.9391
2.776
2.49462
2.54487
2.74652
2.80436
3.01428
3.08526
3.24736
3.84466
5.46341
5.3415
4.87357
5.50981
6.30581
5.78618
5.00515
4.2691
4.2326
5.11175
4.10475
3.28595
3.2906
3.31434
3.34905
3.36138
3.20835
2.63586
2.10794
1.96542
1.91388
4.76054
1.74381
0.516217
0.320406
0.329564
0.328663
0.313056
0.297348
0.296282
0.302017
0.298468
0.271705
0.246434
0.218534
0.181229
0.152913
0.136547
0.128549
0.125286
0.125105
0.129342
0.142048
0.158755
0.190275
0.278146
0.44532
0.637416
0.794119
0.883385
0.900202
0.741646
0.530097
0.385134
0.279801
0.20947
0.168508
0.142472
0.128117
0.119324
0.114671
0.112454
0.111788
0.111833
0.113042
0.116075
0.120043
0.124735
0.129922
0.135472
0.141809
0.147335
0.152822
0.159126
0.167572
0.175232
0.180572
0.183356
0.183267
0.178407
0.175045
0.174775
0.17583
0.177702
0.179389
0.179934
0.179203
0.178722
0.179157
0.180542
0.184173
0.189108
0.194471
0.198443
0.202594
0.206047
0.209421
0.211448
0.212572
0.213136
0.214752
0.217268
0.218217
0.219073
0.215111
0.204792
0.201999
0.203208
0.198443
0.18819
0.184786
0.182043
0.1825
0.188672
0.211602
0.239141
0.241922
0.243624
0.251772
0.272984
0.333972
0.431238
0.516351
0.587008
0.619712
0.617798
0.673588
0.977912
1.62876
1.9257
1.80649
1.14892
0.999374
1.00038
1.11969
1.17303
1.19108
1.16598
1.08495
0.890076
0.769974
0.733763
0.722059
0.696363
0.678682
0.728261
0.639724
0.628325
0.77417
1.15626
1.03004
0.858846
0.982981
2.29345
2.46287
2.66466
2.81846
2.11966
1.79198
1.31407
1.42817
1.86125
2.2408
2.61979
2.84914
2.63909
2.6487
2.72841
2.82737
2.87442
2.9796
3.04863
2.49846
2.50354
2.72211
2.69274
3.01804
3.06322
3.07357
3.69884
5.87468
6.3219
5.83087
6.596
7.12148
5.81067
4.62455
4.23794
4.04497
4.84462
4.10026
3.3354
3.25017
3.10431
3.03551
2.99816
2.79158
2.26485
1.99275
1.94068
1.93018
5.70314
2.07885
0.640039
0.455847
0.455538
0.448741
0.416435
0.380955
0.355166
0.347006
0.33776
0.308358
0.291785
0.269856
0.2253
0.186532
0.162681
0.149773
0.146932
0.1518
0.174276
0.215364
0.288324
0.397025
0.518816
0.6278
0.713788
0.755491
0.711647
0.549947
0.399473
0.293447
0.222948
0.177424
0.145567
0.127759
0.11803
0.111478
0.107178
0.105082
0.104204
0.103987
0.104117
0.104954
0.106862
0.109378
0.112462
0.115698
0.119011
0.123432
0.130293
0.139086
0.148301
0.157719
0.167612
0.175123
0.180844
0.183556
0.183727
0.182639
0.182649
0.182642
0.181739
0.179298
0.177897
0.177702
0.178208
0.180586
0.183476
0.188001
0.192861
0.197322
0.200642
0.203942
0.205856
0.20889
0.211797
0.213851
0.21471
0.216693
0.219583
0.222305
0.226035
0.230958
0.228869
0.215099
0.210055
0.211644
0.204836
0.189888
0.18162
0.178493
0.17906
0.183067
0.193202
0.208197
0.232047
0.267493
0.327289
0.469847
0.592005
0.647973
0.679318
0.697775
0.727705
0.823811
1.13058
1.62395
1.77573
1.44404
0.952085
0.888542
0.932419
1.04257
1.06295
1.07341
1.03694
0.930385
0.73386
0.664159
0.653963
0.641001
0.645941
0.653418
0.699224
0.590691
0.558562
0.60526
0.653109
0.936042
0.837484
0.896118
1.96264
2.78204
3.04107
2.71953
1.80124
1.424
1.15469
1.35374
1.85063
2.47508
2.41036
2.46107
2.45428
2.56919
2.65131
2.75467
2.85911
2.82918
3.07088
2.51798
2.55078
2.6175
2.57497
2.89303
3.05053
3.00475
3.14842
5.61183
6.45351
6.1716
6.81047
7.03802
5.2595
4.32778
4.08444
3.83736
4.62807
4.0714
3.34898
3.15123
2.84167
2.71527
2.63335
2.40321
2.02918
1.94099
1.93756
2.00321
6.66752
2.51186
0.896194
0.712517
0.717567
0.706357
0.643908
0.537233
0.455935
0.41659
0.400633
0.371497
0.350859
0.329753
0.288638
0.255203
0.227884
0.218677
0.225863
0.260004
0.317057
0.382578
0.445314
0.515708
0.577771
0.620394
0.629346
0.541044
0.410822
0.314003
0.238647
0.185944
0.150749
0.131147
0.118649
0.111567
0.107454
0.104268
0.10241
0.101584
0.101393
0.101395
0.10175
0.102714
0.104243
0.106443
0.10946
0.112569
0.115096
0.11754
0.120992
0.126673
0.133702
0.143428
0.151866
0.157318
0.161264
0.164079
0.164823
0.165478
0.168008
0.170643
0.173801
0.176272
0.177648
0.180368
0.183495
0.189652
0.198397
0.207782
0.214416
0.218505
0.220644
0.220643
0.221408
0.221615
0.221504
0.222984
0.222196
0.220645
0.217786
0.21794
0.21903
0.227305
0.231383
0.226373
0.215978
0.215359
0.216439
0.209152
0.18833
0.178635
0.17542
0.174635
0.180306
0.199902
0.230094
0.302209
0.421592
0.579816
0.654017
0.684874
0.700998
0.723078
0.768521
0.880513
1.22341
1.53694
1.54629
1.11764
0.822409
0.780608
0.816609
0.914394
0.933387
0.940244
0.914655
0.814633
0.65978
0.600285
0.595144
0.600009
0.622873
0.620321
0.605148
0.578922
0.555058
0.559458
0.526039
0.618665
0.767416
0.781421
1.08138
2.7993
2.97089
2.56783
1.59952
1.17238
1.07749
1.17662
1.76889
2.29847
2.07139
2.01736
2.21184
2.45342
2.48784
2.65304
2.84242
2.5727
2.70627
2.43266
2.74507
2.57532
2.52368
2.53441
2.8343
2.91766
2.9793
4.16596
6.37577
5.66013
4.63688
3.90827
3.34629
3.6348
3.79774
3.65357
4.43419
4.02089
3.33353
3.00966
2.58198
2.41885
2.33573
2.11762
1.94696
1.93258
1.91707
2.04197
7.6304
2.85247
1.21244
1.22032
1.20436
1.04527
0.902934
0.75157
0.597412
0.479134
0.438743
0.442721
0.449319
0.42043
0.349616
0.317048
0.303812
0.298358
0.311102
0.358094
0.402232
0.442886
0.48022
0.518983
0.535487
0.49909
0.403917
0.326472
0.25282
0.196515
0.159772
0.135653
0.120975
0.113961
0.109459
0.105861
0.103367
0.101985
0.101363
0.101153
0.101261
0.101646
0.102397
0.103514
0.104889
0.106683
0.109113
0.111983
0.115106
0.118644
0.12156
0.125387
0.131563
0.139641
0.148982
0.158037
0.159134
0.156048
0.153312
0.153437
0.155343
0.161692
0.170433
0.178938
0.187828
0.198402
0.208786
0.222963
0.243617
0.260166
0.270235
0.270086
0.267832
0.257565
0.253188
0.244132
0.235979
0.234013
0.233732
0.231567
0.222275
0.214635
0.20678
0.201814
0.206991
0.214873
0.214123
0.213723
0.215031
0.21515
0.203558
0.183996
0.175452
0.172718
0.176872
0.198516
0.232096
0.312938
0.461825
0.620274
0.682697
0.695961
0.704057
0.735054
0.804292
0.938687
1.27147
1.42454
1.31144
0.871349
0.716733
0.682605
0.694885
0.758985
0.772051
0.772561
0.764309
0.703243
0.621315
0.577427
0.564535
0.583757
0.605357
0.568076
0.529412
0.575087
0.572796
0.565709
0.511948
0.502042
0.61597
0.673037
0.802384
1.74874
1.90051
1.8292
1.32069
1.08599
1.05913
1.06777
1.43205
1.53926
1.49028
1.76284
2.28919
2.7382
2.54352
2.62111
2.66429
2.30005
2.11736
2.28633
2.793
2.54188
2.50674
2.24974
2.23901
2.66801
2.76453
2.83226
5.24007
5.0093
3.9188
3.46236
3.13079
3.28414
3.51758
3.55795
4.28748
3.92546
3.28184
2.86987
2.36527
2.19531
2.12667
1.95153
1.9283
1.95468
1.85732
2.0221
8.6028
3.32205
1.99292
1.96552
1.58402
1.18611
0.986475
0.836062
0.650642
0.505162
0.449014
0.457977
0.516882
0.499612
0.405066
0.363708
0.346748
0.342572
0.361943
0.393163
0.418599
0.44531
0.458534
0.446976
0.391538
0.326803
0.26577
0.21254
0.172438
0.14161
0.124584
0.114956
0.109508
0.106204
0.103858
0.102298
0.101474
0.101011
0.100867
0.101084
0.101875
0.103216
0.104859
0.106671
0.108615
0.110511
0.11238
0.114683
0.116912
0.121286
0.128797
0.135243
0.138116
0.140685
0.15093
0.162798
0.173511
0.174593
0.16436
0.158311
0.161329
0.167435
0.176852
0.190059
0.211119
0.245843
0.276108
0.297971
0.3134
0.317985
0.312123
0.301377
0.291491
0.273937
0.262057
0.249282
0.238517
0.234408
0.2353
0.2355
0.231308
0.220591
0.207851
0.197009
0.18834
0.18371
0.189171
0.199818
0.207397
0.209285
0.205163
0.190681
0.17973
0.174115
0.175147
0.195101
0.229369
0.311528
0.473513
0.636344
0.699128
0.698956
0.696374
0.742122
0.854988
1.01284
1.26279
1.34685
1.09548
0.738209
0.64596
0.618695
0.614039
0.646731
0.665683
0.661697
0.659972
0.64187
0.604871
0.578449
0.561694
0.555587
0.586883
0.556563
0.506497
0.52445
0.56392
0.561334
0.516825
0.498358
0.525172
0.544898
0.684497
1.12113
1.28285
1.33954
1.19098
1.05908
1.07256
1.10823
1.27536
1.2459
1.1817
1.54087
2.79676
3.20665
2.79528
2.63798
2.20265
1.95473
1.90474
2.24741
2.7294
2.51683
2.4192
2.21236
2.07047
2.27018
2.3298
2.59647
3.00513
3.51394
3.47665
3.26941
3.02798
3.21317
3.38049
3.52147
4.14365
3.74507
3.19783
2.73985
2.27804
2.08807
1.94262
1.85834
1.91759
2.02202
1.83725
1.91239
9.59311
4.29379
3.31382
2.45281
1.69657
1.24235
0.994813
0.78935
0.618031
0.476539
0.431062
0.449219
0.564213
0.568452
0.453962
0.387194
0.363727
0.362406
0.378922
0.3958
0.407305
0.402986
0.371042
0.317742
0.272258
0.226983
0.187412
0.154177
0.132988
0.11853
0.111351
0.107646
0.105515
0.10395
0.102922
0.102419
0.102207
0.101835
0.101854
0.102605
0.104603
0.106928
0.109842
0.115877
0.122347
0.125116
0.126524
0.127398
0.129422
0.132795
0.13806
0.141692
0.145053
0.151325
0.157271
0.171769
0.194379
0.207955
0.209336
0.189722
0.178286
0.181164
0.199664
0.239907
0.281582
0.310591
0.331
0.342336
0.346188
0.342173
0.329073
0.318624
0.303269
0.283153
0.264452
0.248173
0.237726
0.233208
0.232952
0.234727
0.237833
0.236059
0.222423
0.201068
0.186999
0.176284
0.171587
0.173022
0.183107
0.194722
0.197181
0.191979
0.186533
0.180528
0.175021
0.181287
0.215746
0.289774
0.472215
0.639117
0.705045
0.69985
0.69163
0.752311
0.919523
1.06782
1.20171
1.2308
0.975241
0.663742
0.592478
0.565885
0.554194
0.565645
0.594549
0.610768
0.620728
0.62268
0.600921
0.590722
0.57351
0.526112
0.542887
0.555909
0.506801
0.471334
0.498618
0.506102
0.524431
0.513663
0.496351
0.504816
0.588333
0.958134
1.18493
1.22616
1.13281
1.05114
1.11022
1.27524
1.31234
1.21954
1.12084
1.31118
2.78578
3.08149
2.73304
2.47206
1.93859
1.86385
1.90531
2.38679
2.74049
2.51406
2.35287
2.22832
2.06212
2.10205
1.98469
2.26612
2.47181
2.54519
3.14439
3.13649
2.95641
3.14698
3.27472
3.51611
3.8565
3.46102
3.05635
2.60677
2.22061
2.07006
1.88797
1.82137
1.88993
2.03234
1.85038
1.88858
10.4508
6.32937
4.30185
2.51286
1.61374
1.21661
0.935917
0.62371
0.486151
0.424108
0.429369
0.515877
0.607146
0.540655
0.411978
0.368019
0.356103
0.356838
0.371642
0.374641
0.356198
0.31639
0.281301
0.240218
0.203729
0.171151
0.144313
0.124964
0.113717
0.107237
0.104303
0.102777
0.10194
0.101695
0.101823
0.102068
0.102384
0.103185
0.105073
0.109613
0.115993
0.121285
0.1265
0.132526
0.138206
0.146272
0.152457
0.154842
0.155148
0.155397
0.155361
0.155869
0.15719
0.156981
0.158726
0.168296
0.182248
0.224763
0.261521
0.269389
0.243702
0.224801
0.232622
0.28088
0.321571
0.342288
0.353719
0.359246
0.356986
0.345875
0.33591
0.332078
0.319313
0.301326
0.272947
0.246747
0.22849
0.222194
0.222596
0.225206
0.236263
0.242467
0.245546
0.230576
0.197435
0.175592
0.16684
0.161587
0.162271
0.163966
0.172556
0.179166
0.185208
0.187336
0.179032
0.17629
0.197517
0.250778
0.440949
0.631787
0.705177
0.703429
0.692694
0.766917
0.989998
1.09191
1.0951
1.11678
0.898187
0.620031
0.54819
0.522699
0.514117
0.522858
0.540739
0.584302
0.599571
0.607929
0.597939
0.588753
0.571577
0.52016
0.500649
0.537296
0.521296
0.475917
0.482242
0.484197
0.527725
0.513092
0.47865
0.48736
0.544239
0.887237
1.13037
1.14199
1.09561
1.06497
1.18833
1.35716
1.35179
1.21048
1.09503
1.09157
1.82412
2.14687
2.15799
2.01153
1.87015
1.83275
2.00095
2.82218
2.82494
2.46338
2.23353
2.35592
2.1438
1.98396
1.84218
2.00431
2.05623
2.20615
3.00468
3.01997
2.85768
3.09419
3.22004
3.53718
3.51245
3.1114
2.90445
2.50712
2.16205
2.06493
1.84944
1.80066
1.84557
2.00577
1.87414
1.86146
11.2375
8.3238
4.46563
2.10238
1.28703
0.931973
0.640473
0.429117
0.386774
0.394007
0.427065
0.546826
0.601826
0.536392
0.407274
0.358139
0.341099
0.336935
0.33641
0.317845
0.285129
0.253568
0.220884
0.190037
0.162666
0.139156
0.12178
0.11094
0.105324
0.10226
0.100771
0.10014
0.0998667
0.100028
0.100533
0.10096
0.10153
0.102838
0.106321
0.113051
0.121538
0.131598
0.140335
0.146673
0.150775
0.158118
0.164186
0.176546
0.185417
0.189748
0.190743
0.187499
0.182356
0.179182
0.17478
0.172136
0.17761
0.200622
0.24696
0.312117
0.335574
0.329279
0.321829
0.331601
0.354942
0.363329
0.360977
0.354018
0.340401
0.332924
0.339753
0.359477
0.380204
0.38058
0.350032
0.287935
0.238215
0.210669
0.201774
0.21006
0.226344
0.237739
0.246823
0.246551
0.232599
0.192093
0.167099
0.155876
0.154015
0.153558
0.148756
0.152626
0.16894
0.184918
0.180796
0.174067
0.188975
0.226005
0.364996
0.595479
0.696022
0.705633
0.694557
0.769727
1.00368
1.11693
1.05281
0.915902
0.788243
0.586182
0.521668
0.500601
0.4863
0.485236
0.497252
0.550324
0.563875
0.553932
0.557586
0.555771
0.532914
0.521523
0.496647
0.508446
0.519406
0.514091
0.492688
0.477141
0.489948
0.494038
0.46932
0.480996
0.533337
0.837388
1.05484
1.10363
1.08749
1.11172
1.23315
1.32461
1.27414
1.1663
1.10258
1.09432
1.21429
1.55008
1.74527
1.83813
1.85305
1.84525
2.31557
3.10809
2.73892
2.13147
2.1041
2.50354
2.28107
1.8588
1.74801
1.82432
1.74242
1.97979
2.82519
2.7969
2.73638
3.01649
3.21194
3.51642
3.2318
2.8559
2.79853
2.38923
2.08668
2.04547
1.78722
1.76795
1.77762
1.82813
1.84524
1.79541
12.3147
9.11729
3.87991
1.69093
0.932362
0.58543
0.445735
0.345815
0.34699
0.380283
0.441826
0.575949
0.606567
0.538356
0.402645
0.346019
0.314457
0.303369
0.289823
0.265584
0.236878
0.211214
0.182354
0.158692
0.13851
0.121532
0.110689
0.105147
0.102421
0.100925
0.0999138
0.0993983
0.0992113
0.0992874
0.0995153
0.100245
0.101164
0.102844
0.107674
0.117205
0.127649
0.138464
0.145777
0.155425
0.168125
0.179685
0.189881
0.198211
0.210953
0.224678
0.23708
0.245528
0.245045
0.23253
0.218275
0.207776
0.20163
0.205831
0.240569
0.290533
0.341475
0.36865
0.392345
0.409944
0.41102
0.399832
0.365956
0.333868
0.31365
0.31165
0.329436
0.363124
0.401502
0.429794
0.441404
0.411768
0.310817
0.222301
0.185132
0.175958
0.198989
0.220985
0.236129
0.240823
0.237655
0.218293
0.182184
0.156949
0.148614
0.149404
0.143126
0.136498
0.139404
0.159615
0.170912
0.167648
0.176032
0.214554
0.279183
0.513816
0.667319
0.705021
0.694163
0.759848
0.982472
1.11546
1.08116
0.865653
0.662281
0.562237
0.515827
0.497362
0.476213
0.467591
0.477852
0.509841
0.507953
0.488032
0.49233
0.49814
0.481475
0.511587
0.509032
0.506127
0.515474
0.537619
0.532896
0.48048
0.465654
0.487514
0.462775
0.476106
0.528558
0.742281
0.988101
1.08691
1.10804
1.145
1.2306
1.17133
1.0913
1.14178
1.15409
1.14885
1.23262
1.54317
1.76462
1.853
1.88062
1.96868
2.55183
3.08139
2.4112
1.91085
2.02453
2.48049
2.26785
1.7518
1.71593
1.73845
1.57781
1.94872