/*--------------------------------*- C++ -*----------------------------------*\
| =========                 |                                                 |
| \\      /  F ield         | OpenFOAM: The Open Source CFD Toolbox           |
|  \\    /   O peration     | Version:  dev                                   |
|   \\  /    A nd           | Web:      http://www.openfoam.org               |
|    \\/     M anipulation  |                                                 |
\*---------------------------------------------------------------------------*/
FoamFile
{
    version     2.0;
    format      ascii;
    class       volScalarField;
    object      k_0;
    location    "9.139";
}
// * * * * * * * * * * * * * * * * * * * * * * * * * * * * * * * * * * * * * //

dimensions      [0 2 -2 0 0 0 0];

internalField   nonuniform List<scalar> 
12225
(
7.83625
7.84812
4.69525
4.60126
4.92238
5.89392
8.39462
8.39959
12.1266
11.8854
16.041
14.5275
19.5472
16.2561
20.0499
19.7804
30.1171
42.3854
1.90322
6.26025
5.32766
6.59722
4.68614
6.72793
5.57674
7.52136
7.08341
8.12925
8.54039
9.25827
10.3491
8.87523
12.3772
14.6904
39.8161
36.7064
0.208854
2.22835
2.53322
4.14227
2.95979
4.57692
3.13347
4.25183
3.88045
4.04183
3.99862
3.91201
5.43543
3.79631
5.94676
11.7821
32.0592
36.9649
0.0248556
0.595105
0.769572
1.46102
1.40252
1.87014
1.75001
1.56938
2.30076
1.6557
1.79258
1.42044
2.35044
1.63912
2.791
5.79554
28.0737
44.3646
0.00287092
0.0957529
0.206375
0.394546
0.807971
0.803879
1.11421
0.819238
1.37014
1.12314
1.05493
0.80462
1.17868
1.16978
2.15465
4.07336
24.5196
44.0089
0.013665
0.13295
0.166854
0.297724
0.36311
0.598997
0.704916
0.479281
0.736205
0.725486
0.763674
0.596758
0.864733
1.08401
1.50685
4.75557
23.3052
45.2337
0.0104667
0.106288
0.116655
0.144941
0.189026
0.258781
0.291046
0.179458
0.334266
0.340374
0.42414
0.377772
0.589655
0.543587
1.21419
3.3687
13.182
30.5496
0.00377493
0.0226139
0.0388435
0.0437119
0.0766855
0.0902422
0.12459
0.0767083
0.14688
0.14435
0.194402
0.187524
0.376985
0.304632
0.577403
1.70462
5.66303
9.33496
0.00158838
0.010192
0.0167249
0.0187392
0.0369278
0.0413194
0.0556061
0.0463095
0.0692416
0.0768035
0.101286
0.118681
0.203285
0.171567
0.314403
0.701009
2.25015
2.38726
0.00169658
0.00786101
0.0120971
0.0153564
0.0231226
0.0279833
0.0345906
0.048982
0.0569061
0.0617853
0.0801206
0.0859188
0.115701
0.14392
0.196589
0.330979
0.753349
0.691821
0.00343765
0.0116652
0.0145939
0.0197901
0.0233103
0.0275603
0.0368416
0.0449729
0.0527678
0.0600416
0.0728571
0.0762199
0.0861744
0.108501
0.130604
0.179469
0.28088
0.266146
0.013127
0.0212694
0.0235814
0.0297784
0.0297323
0.0332911
0.037163
0.0448002
0.0532747
0.0630025
0.0697885
0.0780134
0.0806065
0.0890796
0.0993999
0.120342
0.149127
0.15127
0.0417868
0.0415748
0.0397939
0.0427315
0.0411143
0.0441435
0.0437454
0.0495438
0.0587404
0.0679941
0.0731214
0.0809738
0.0835578
0.0878113
0.0946039
0.107627
0.121032
0.127238
0.0905534
0.0830021
0.0734341
0.0693086
0.0631295
0.0641645
0.0625979
0.068616
0.0780331
0.0865317
0.0902792
0.0955022
0.097329
0.098425
0.103941
0.114784
0.125678
0.131461
0.140075
0.125843
0.119739
0.119277
0.115598
0.116543
0.116397
0.122598
0.135408
0.146553
0.154197
0.158424
0.159696
0.161337
0.166039
0.172485
0.178342
0.180833
0.247388
0.223198
0.203476
0.185423
0.175688
0.172888
0.171409
0.17304
0.17978
0.191219
0.20095
0.208305
0.212643
0.215804
0.218571
0.220645
0.222339
0.222507
0.342524
0.285839
0.245959
0.216935
0.202652
0.197174
0.1953
0.19538
0.198567
0.208561
0.219118
0.227401
0.232871
0.236058
0.237739
0.238555
0.23886
0.238406
0.34057
0.289874
0.250418
0.22072
0.205822
0.199826
0.197894
0.197701
0.200203
0.209803
0.220586
0.229202
0.235195
0.238558
0.240126
0.240646
0.240769
0.240328
0.29811
0.262306
0.231389
0.206629
0.194149
0.18922
0.1879
0.188008
0.19097
0.200626
0.21134
0.220392
0.22689
0.230777
0.232565
0.233089
0.233235
0.232892
0.196441
0.17863
0.161504
0.150709
0.146457
0.145456
0.145858
0.148052
0.154965
0.165592
0.176588
0.187401
0.196024
0.202025
0.205262
0.20652
0.207092
0.207208
0.129248
0.11393
0.101183
0.0941459
0.0912775
0.0902749
0.0902958
0.0908345
0.0933618
0.100831
0.110149
0.119492
0.127696
0.133989
0.138469
0.140418
0.141228
0.141977
0.0687417
0.0631786
0.0581803
0.0551514
0.0537021
0.0525932
0.052178
0.0525175
0.0553215
0.0598149
0.0646238
0.0707671
0.0760606
0.08053
0.0836231
0.0854835
0.0863389
0.0874649
0.0353761
0.0347643
0.0329823
0.0311189
0.0294653
0.0291331
0.0298474
0.0320239
0.0353803
0.0398686
0.0444498
0.0503101
0.0546157
0.0587202
0.0612222
0.0633411
0.0644171
0.0657887
0.0171324
0.0163177
0.0155582
0.0155096
0.0162971
0.0189548
0.0228964
0.0267134
0.0314155
0.0373991
0.0431184
0.0495927
0.0540264
0.058131
0.0603942
0.0625137
0.0635536
0.0650241
0.00661925
0.00695373
0.00806678
0.0111918
0.0151857
0.0224702
0.0307071
0.037883
0.0466996
0.0565149
0.0660714
0.0755527
0.0814686
0.0857243
0.0873159
0.0886862
0.0892924
0.0900411
0.00103825
0.00402934
0.0108119
0.0259312
0.0462285
0.0773919
0.10606
0.128583
0.153071
0.174672
0.193357
0.208381
0.216018
0.218484
0.217729
0.216175
0.214909
0.213782
0.00125402
0.0208748
0.0844735
0.188848
0.295895
0.40314
0.486968
0.545032
0.592729
0.623772
0.643268
0.652144
0.650373
0.643514
0.635093
0.627049
0.620696
0.617687
0.0180966
0.299925
0.860126
1.22701
1.49547
1.69222
1.8147
1.88308
1.90523
1.89698
1.86759
1.82271
1.77478
1.73121
1.69597
1.65828
1.62428
1.58806
0.475447
3.10386
4.49653
4.81332
4.77101
4.61995
4.42458
4.24475
4.10038
3.9621
3.82957
3.69644
3.57303
3.45252
3.34047
3.2138
3.09088
2.87369
6.73744
9.17341
7.62371
5.92181
5.0775
4.88327
4.96728
5.218
5.56131
5.91162
6.24034
6.53057
6.76328
6.93114
7.04676
7.10588
7.04715
6.57973
0.0875811
0.163089
0.211189
0.262033
0.307017
0.332836
0.368387
0.394998
0.423565
0.463077
0.516039
0.573689
0.656653
0.802881
0.927937
1.0376
1.27314
1.45242
1.63092
1.91913
2.12171
2.35984
2.59176
2.74752
2.8696
2.87241
2.75187
2.58649
2.5764
2.65436
2.7218
2.78031
2.93984
3.19308
3.50973
3.71897
3.73894
3.75486
3.85562
4.17976
4.60247
5.03949
5.43762
5.74405
5.98878
6.21926
6.45426
6.68223
6.8981
7.10113
7.29591
7.4768
7.65189
7.81757
7.9821
8.12261
8.24747
8.37861
8.4905
8.58075
8.66882
8.74425
8.79254
8.8095
8.81857
8.79955
8.72146
8.59604
8.44469
8.28557
8.10614
7.87379
7.60417
7.29309
6.97989
6.67458
6.37287
6.07658
5.76906
5.46589
5.1476
4.80553
4.46138
4.14266
3.85108
3.59016
3.38215
3.26362
3.23381
3.23338
3.19593
3.17896
3.14826
3.10317
3.02081
2.98192
2.98274
3.02137
3.14967
3.27245
3.29285
3.27753
3.2523
3.19055
3.13544
3.0754
2.79876
2.40707
2.26977
2.27724
2.32471
2.31974
2.27642
2.23512
2.12066
2.0154
2.06177
2.60625
4.07264
6.05986
6.87908
6.86906
6.19297
5.19609
4.86186
4.94472
5.5914
5.69064
5.32055
5.09844
5.30646
6.17036
8.18518
10.0703
10.807
10.8148
10.8515
11.0047
12.3589
16.5598
19.4863
20.9875
21.5811
21.3263
20.9049
21.3667
21.7334
20.8874
20.0498
19.3057
18.3631
18.0461
16.9783
15.622
14.1623
11.8286
9.35628
7.99225
6.65819
5.70107
5.25065
5.86351
9.16342
14.948
15.6205
13.1894
10.3492
10.1605
10.4486
11.3258
13.093
14.7841
15.9551
16.7808
17.3936
17.9912
19.0034
20.8274
23.7797
27.3657
0.248579
0.212302
0.299402
0.37666
0.366942
0.334739
0.281327
0.236111
0.210803
0.202544
0.204252
0.20558
0.207708
0.216633
0.220239
0.222172
0.230221
0.242406
0.255668
0.297706
0.349167
0.419339
0.590227
0.702592
0.914215
1.16442
1.26145
1.26958
1.25026
1.15032
0.939591
0.810124
0.759495
0.771876
0.879203
0.914412
0.923756
0.935239
0.985622
1.33681
2.07131
2.48181
2.7118
2.86367
2.90877
2.86258
2.73542
2.63498
2.57114
2.5354
2.52324
2.51583
2.51062
2.51262
2.53718
2.56496
2.59674
2.65147
2.72327
2.81757
2.92168
2.98557
3.02335
3.01223
2.95307
2.79822
2.64838
2.54191
2.44074
2.30588
2.16139
1.9884
1.81577
1.66101
1.56282
1.48884
1.4186
1.34846
1.26531
1.18666
1.09687
0.986462
0.889285
0.825062
0.772582
0.735596
0.729827
0.758515
0.850852
0.95329
0.982394
1.0317
1.06462
1.07201
1.04834
1.02197
1.02296
1.04388
1.12721
1.34043
1.46658
1.56794
1.66622
1.62371
1.58781
1.79086
1.78747
1.40656
1.32934
1.45437
1.64953
1.80993
1.95237
2.07472
2.0837
2.09997
2.35488
3.0942
3.96854
4.10733
3.73656
2.8758
2.40915
2.27986
2.36752
2.81756
2.99803
2.72127
2.29798
2.26713
2.35452
2.35334
2.42834
3.10532
4.1387
4.37027
4.26456
4.12147
4.43774
4.75477
5.35052
5.67796
6.14102
6.35114
6.23484
6.19044
6.4785
6.72565
6.64538
6.61748
6.5357
6.56321
6.85034
6.87519
6.74819
6.14502
5.09775
4.58897
4.27103
4.04546
4.36359
6.26722
8.88743
9.22358
7.27571
8.27291
9.72436
8.17262
7.38155
6.69348
6.40276
6.48953
6.99915
7.84876
8.33699
9.00494
10.0532
11.4603
11.8797
11.6431
0.585785
0.393274
0.519776
0.489095
0.389978
0.274333
0.205214
0.181658
0.178744
0.181934
0.195367
0.21026
0.214984
0.216131
0.214038
0.205527
0.198829
0.190628
0.17829
0.175002
0.175371
0.18021
0.197564
0.237732
0.318784
0.388293
0.53035
0.67251
0.711979
0.683612
0.557113
0.484693
0.487754
0.598017
0.710652
0.87525
1.25285
1.4513
1.51632
1.58931
1.59506
1.46887
1.31696
1.1799
1.0565
0.945378
0.868455
0.815633
0.778944
0.755022
0.737631
0.71727
0.69698
0.682503
0.676486
0.676304
0.687262
0.717341
0.770837
0.825437
0.855939
0.862532
0.848982
0.782498
0.672724
0.605923
0.57273
0.553551
0.534973
0.505492
0.466907
0.424274
0.387278
0.367276
0.360042
0.356995
0.353902
0.348531
0.340239
0.33278
0.322527
0.303903
0.28558
0.275322
0.270307
0.269636
0.279419
0.317562
0.38722
0.439181
0.458277
0.486047
0.502902
0.506967
0.49575
0.477754
0.475707
0.480243
0.506123
0.598293
0.659505
0.72609
0.819919
0.791107
0.778328
0.988422
1.07038
0.979956
1.18564
1.44638
1.65001
1.81637
1.88043
1.90435
1.94412
2.079
2.45352
2.79779
2.78363
2.2569
1.74277
1.46674
1.38848
1.4336
1.64124
1.76189
1.75104
1.50139
1.37077
1.45343
1.79835
1.86074
1.83473
1.94881
2.38354
2.82475
3.09212
3.26282
3.74597
3.96778
3.76721
3.52771
3.46714
3.5442
3.511
3.55023
3.67436
4.10808
4.2497
4.23681
4.10489
4.12048
4.2577
4.35926
4.54797
4.54574
4.11659
3.71255
3.5536
3.76182
4.53787
6.59875
7.08087
5.89992
5.71275
5.91568
6.19425
7.5899
6.10936
4.81322
4.06846
3.92607
4.14957
4.88382
5.8288
6.70185
7.38417
7.41106
6.65962
5.48556
1.24154
0.873365
0.701241
0.471774
0.27618
0.199896
0.177124
0.179529
0.196928
0.225432
0.238467
0.241755
0.238841
0.226573
0.214165
0.199006
0.18344
0.171612
0.158781
0.148867
0.145926
0.146283
0.147996
0.154637
0.172454
0.226583
0.311422
0.371037
0.398649
0.434055
0.482132
0.519491
0.59934
1.1063
1.41084
1.39233
1.33459
1.29437
1.14347
0.93798
0.751369
0.605261
0.501715
0.419966
0.362095
0.323186
0.30055
0.286968
0.277581
0.270708
0.265442
0.258779
0.25249
0.248574
0.247697
0.249143
0.255705
0.270115
0.294114
0.320075
0.333031
0.337001
0.333064
0.304731
0.255706
0.233481
0.225967
0.223869
0.223159
0.220862
0.21443
0.208857
0.207024
0.20823
0.213747
0.221651
0.22543
0.227402
0.227353
0.226894
0.224559
0.220041
0.211296
0.204954
0.201768
0.201345
0.206136
0.225301
0.270877
0.315953
0.33367
0.347426
0.354531
0.355175
0.347711
0.346305
0.354219
0.358578
0.36609
0.39816
0.412719
0.438092
0.483113
0.478973
0.517115
0.715712
0.741609
0.838537
1.24104
1.58097
1.81742
1.83931
1.78698
1.75396
1.801
2.01606
2.23314
2.22811
1.90098
1.42995
1.21156
1.14538
1.1606
1.29713
1.51689
1.58449
1.54228
1.24575
1.1323
1.17065
1.52013
1.81644
1.81463
1.78873
1.96948
2.67034
3.01581
3.16582
2.76485
3.06012
3.08344
2.77664
2.58049
2.54588
2.54285
2.80285
2.96739
3.22587
3.37911
3.31101
3.13889
3.19668
3.20188
3.24307
3.41636
3.56335
3.49309
3.25463
3.13772
3.72952
4.54216
6.21759
7.13643
5.92251
5.75673
5.29734
4.76392
6.32051
5.87255
4.22719
3.35609
3.24917
3.47594
4.07222
5.00745
5.54392
5.46344
4.66365
3.52338
2.97831
2.11226
1.25947
0.677881
0.322342
0.211516
0.187832
0.195306
0.220512
0.238511
0.244034
0.243038
0.236829
0.218979
0.19776
0.177951
0.160267
0.145718
0.135357
0.128054
0.125221
0.125325
0.129745
0.139991
0.146005
0.154917
0.174426
0.231966
0.328108
0.402313
0.445772
0.573438
1.04479
1.31999
1.35266
1.30076
1.08808
0.871696
0.678399
0.510801
0.389038
0.300519
0.240485
0.205123
0.182223
0.168374
0.160361
0.155921
0.153431
0.151939
0.150414
0.148695
0.147352
0.146699
0.146642
0.147298
0.149758
0.155193
0.163832
0.174269
0.184813
0.192661
0.195279
0.194935
0.18937
0.177101
0.172849
0.171398
0.171673
0.173887
0.178193
0.180511
0.181902
0.184654
0.190883
0.201324
0.210673
0.21509
0.217324
0.216554
0.213484
0.205371
0.198842
0.193906
0.190317
0.188433
0.187957
0.189589
0.197082
0.217662
0.255386
0.272006
0.279119
0.285129
0.289925
0.297623
0.318181
0.338918
0.336041
0.319697
0.318826
0.326464
0.351065
0.380527
0.393812
0.469181
0.562088
0.606977
0.874793
1.49545
1.90693
1.9759
1.77596
1.53638
1.49335
1.55636
1.74182
1.78354
1.68681
1.40502
1.12197
1.01983
0.992646
1.08752
1.21179
1.39249
1.54155
1.62884
1.30768
1.06732
0.99456
1.20941
1.72233
1.87189
1.84571
2.09125
2.7046
3.13799
2.814
1.96453
1.95644
2.24315
2.26815
2.31518
2.27989
2.27888
2.65003
2.89793
2.94808
2.9853
2.86042
2.71723
2.77557
2.78142
2.81049
2.91137
3.11438
3.25197
3.10835
3.07103
4.08014
4.5963
5.23757
6.35333
5.93078
5.24253
4.36937
4.34729
5.16952
5.71519
4.02648
3.16265
3.1206
3.34257
3.78909
4.38662
4.52104
4.18919
3.04599
2.38476
2.13895
3.06063
1.45332
0.532161
0.2611
0.207382
0.216914
0.243655
0.246119
0.243536
0.241064
0.23747
0.228191
0.206829
0.186095
0.164035
0.144613
0.131641
0.124126
0.121356
0.1213
0.12228
0.128145
0.138864
0.147775
0.160414
0.188406
0.254311
0.327
0.481781
0.789962
1.10087
1.21915
1.21056
1.00923
0.768901
0.552391
0.403789
0.300607
0.22907
0.183889
0.157737
0.143106
0.136424
0.134309
0.134951
0.136464
0.137258
0.137743
0.138061
0.13812
0.137566
0.135724
0.133593
0.13327
0.133668
0.135102
0.138614
0.143765
0.149376
0.155913
0.162807
0.167668
0.16934
0.169304
0.166485
0.164568
0.164636
0.166006
0.168816
0.173719
0.179537
0.183145
0.187431
0.193051
0.202187
0.211096
0.215342
0.216196
0.215467
0.212242
0.203118
0.193869
0.189525
0.18691
0.185891
0.184941
0.18472
0.186471
0.192695
0.204502
0.210059
0.2171
0.233552
0.260866
0.285417
0.321854
0.337905
0.323497
0.288638
0.28788
0.30189
0.341641
0.366955
0.39028
0.450621
0.481645
0.578899
1.08097
1.86242
2.06942
1.92859
1.4564
1.30482
1.28997
1.34066
1.42
1.42763
1.36052
1.17222
0.97138
0.894401
0.874491
0.907841
0.911166
1.00658
1.26453
1.53736
1.45961
1.1197
0.897045
0.953871
1.38406
1.98491
2.0737
2.27263
3.10146
3.23813
2.59145
1.75934
1.67208
1.94857
2.09028
2.32305
2.30117
2.27743
2.58996
2.91588
2.86875
2.82863
2.7084
2.55917
2.54608
2.59674
2.67569
2.77836
2.85007
3.16554
3.17283
3.3814
4.25218
4.54225
4.61008
5.5359
5.8442
5.16013
4.46227
4.14529
4.76911
5.20907
3.90729
3.12668
3.11577
3.29212
3.57387
3.76662
3.75789
3.31933
2.37024
2.03064
1.8948
4.00566
1.56652
0.485154
0.259784
0.251954
0.271121
0.26804
0.256553
0.254241
0.257757
0.25706
0.245136
0.216784
0.189837
0.162724
0.142105
0.129907
0.123503
0.120582
0.120439
0.122257
0.130986
0.142149
0.154695
0.176193
0.220303
0.334631
0.58345
0.850321
1.00355
1.06694
0.994981
0.7378
0.515271
0.375375
0.276448
0.208783
0.168612
0.14529
0.133217
0.12747
0.125141
0.124772
0.125702
0.129295
0.132837
0.136077
0.140007
0.14395
0.147868
0.150349
0.151019
0.15049
0.148477
0.146093
0.145685
0.146178
0.14838
0.151616
0.156804
0.162898
0.168656
0.171178
0.171738
0.171899
0.17204
0.172565
0.173146
0.174109
0.176537
0.182013
0.190359
0.196982
0.201458
0.20585
0.211219
0.21333
0.213283
0.212818
0.211099
0.207168
0.199453
0.195206
0.190759
0.189217
0.189883
0.187645
0.184824
0.184795
0.187498
0.188562
0.193061
0.210676
0.249767
0.283853
0.304658
0.292323
0.265197
0.267653
0.281261
0.319883
0.374589
0.414266
0.446127
0.468076
0.496116
0.688089
1.43267
1.97818
2.05552
1.57777
1.18321
1.13456
1.1807
1.26031
1.27812
1.27493
1.21501
1.05151
0.879215
0.816
0.789789
0.764914
0.731565
0.788277
0.823137
0.940515
1.31319
1.27396
0.920383
0.876642
1.12579
2.1823
2.26361
2.4114
3.28888
2.95031
2.15388
1.58894
1.53149
1.87392
2.03704
2.48736
2.56628
2.43974
2.57547
2.82833
2.83726
2.77569
2.73332
2.56159
2.42451
2.48791
2.63351
2.70976
2.83113
3.00645
3.2085
3.80839
5.07319
4.78996
4.55935
5.15495
5.76943
5.37406
4.71371
4.10571
4.19487
4.94424
3.91259
3.14193
3.14755
3.22053
3.30347
3.35289
3.24999
2.72404
2.08999
1.90423
1.83137
4.98221
1.75472
0.515164
0.31891
0.327766
0.327068
0.311722
0.296422
0.295998
0.302173
0.298589
0.271722
0.24616
0.218064
0.180964
0.15296
0.136803
0.128893
0.125679
0.125636
0.130012
0.142944
0.160038
0.192369
0.284344
0.454371
0.645581
0.79676
0.888501
0.902615
0.736652
0.527924
0.383684
0.279548
0.209201
0.168351
0.142528
0.128251
0.119515
0.114887
0.112685
0.112049
0.112128
0.113362
0.116435
0.120462
0.12521
0.130449
0.136059
0.142439
0.147933
0.153394
0.159679
0.168094
0.17572
0.180941
0.183515
0.183292
0.178232
0.174865
0.174602
0.175707
0.177662
0.179493
0.18008
0.179361
0.178867
0.17924
0.180566
0.184156
0.188973
0.19425
0.19814
0.202216
0.205656
0.208903
0.210705
0.211667
0.212226
0.213743
0.215802
0.216201
0.216161
0.210371
0.200805
0.199223
0.199941
0.193882
0.185433
0.183335
0.180958
0.1817
0.189257
0.215271
0.24212
0.243474
0.242332
0.249972
0.270606
0.32734
0.417551
0.501204
0.572165
0.604597
0.601746
0.665275
0.994219
1.6436
1.92454
1.80885
1.15638
1.00173
0.999479
1.11367
1.16762
1.18387
1.16193
1.08555
0.900074
0.773413
0.730704
0.716336
0.691179
0.670242
0.70763
0.638334
0.654697
0.838113
1.17437
0.979861
0.841344
1.00689
2.29906
2.36129
2.50582
2.7428
2.15698
1.75775
1.32732
1.45275
1.85529
2.10318
2.50834
2.69517
2.52541
2.60519
2.71007
2.75627
2.76071
2.82535
2.7295
2.38594
2.41484
2.62233
2.63422
2.88141
2.90978
3.04159
3.81866
5.85928
5.76052
5.26927
6.00824
6.45965
5.45116
4.49145
4.10588
3.99613
4.72015
3.92721
3.19442
3.14176
3.06921
3.01946
3.00773
2.84422
2.315
1.9509
1.86172
1.83339
5.99585
2.09189
0.637059
0.452886
0.451899
0.444682
0.412368
0.378254
0.354056
0.346997
0.337934
0.308121
0.291511
0.269563
0.225051
0.186389
0.162872
0.15009
0.147425
0.152452
0.175565
0.217846
0.292258
0.402499
0.522807
0.630466
0.715538
0.759751
0.708307
0.5462
0.398379
0.292683
0.22227
0.177215
0.145641
0.127844
0.118223
0.111749
0.107479
0.105387
0.104519
0.104318
0.104456
0.105286
0.107183
0.109709
0.112808
0.116064
0.119427
0.123899
0.130828
0.139632
0.148898
0.158374
0.168345
0.175856
0.181461
0.183962
0.184017
0.182837
0.182862
0.182852
0.181876
0.179458
0.178057
0.177848
0.178355
0.180714
0.183375
0.187642
0.192227
0.196529
0.199743
0.202904
0.204767
0.20772
0.21063
0.212471
0.21346
0.215643
0.218958
0.221645
0.225549
0.229606
0.225628
0.211061
0.2075
0.208418
0.199039
0.186097
0.179579
0.177164
0.178306
0.18359
0.194122
0.207971
0.231492
0.265123
0.322844
0.45982
0.581821
0.638442
0.671502
0.691106
0.720599
0.823202
1.13974
1.63342
1.77993
1.4508
0.955081
0.889996
0.931424
1.04378
1.06363
1.07161
1.03639
0.935065
0.741638
0.665567
0.650939
0.638882
0.637385
0.640909
0.683139
0.57909
0.556015
0.630773
0.74101
0.937533
0.817727
0.919319
2.14393
2.66098
2.89755
2.59372
1.76571
1.40711
1.14908
1.41952
1.86773
2.37391
2.36927
2.47924
2.43103
2.57738
2.66486
2.71178
2.75955
2.78137
2.8652
2.40971
2.42439
2.53331
2.54077
2.87271
2.93357
2.91979
3.26446
5.97069
6.21478
5.94637
6.83154
7.02803
5.38391
4.32909
4.03702
3.82177
4.54441
3.92352
3.23344
3.08585
2.85298
2.72854
2.65979
2.45742
2.03839
1.87262
1.85616
1.89035
7.03939
2.53394
0.893409
0.706392
0.709809
0.699202
0.636527
0.531849
0.452666
0.416252
0.401019
0.370656
0.350186
0.329465
0.288908
0.255744
0.228669
0.21941
0.226662
0.2612
0.318824
0.384831
0.447439
0.517344
0.578419
0.624176
0.629422
0.538691
0.410148
0.31295
0.238201
0.185793
0.150702
0.131224
0.118887
0.111824
0.107733
0.104572
0.102708
0.101875
0.101695
0.101714
0.102072
0.10304
0.104565
0.10675
0.109747
0.112837
0.115372
0.117872
0.121414
0.127187
0.134178
0.143769
0.152032
0.157373
0.161497
0.164562
0.165481
0.166264
0.16895
0.171503
0.174494
0.176697
0.177937
0.180481
0.183396
0.189254
0.19735
0.206021
0.211998
0.215724
0.217532
0.21745
0.217862
0.218143
0.218446
0.219846
0.219072
0.217945
0.216054
0.217279
0.21979
0.228768
0.231175
0.224333
0.214531
0.214234
0.214386
0.202981
0.18385
0.176526
0.174189
0.173846
0.180147
0.199679
0.231038
0.303384
0.419283
0.575495
0.647547
0.679512
0.69658
0.717619
0.763661
0.879634
1.22787
1.54295
1.55454
1.12349
0.823007
0.78289
0.820612
0.92172
0.939926
0.944642
0.917364
0.818036
0.658972
0.599287
0.594229
0.594438
0.613129
0.614787
0.608896
0.562449
0.536731
0.547104
0.532553
0.694028
0.764669
0.794785
1.34373
2.86394
2.98043
2.53631
1.58243
1.17756
1.06573
1.27477
1.85312
2.35244
2.144
2.08238
2.15154
2.36327
2.47262
2.63574
2.76117
2.58754
2.73574
2.3908
2.55883
2.47111
2.43893
2.63847
2.87616
2.88953
2.98472
5.01487
6.50303
5.70717
5.21028
4.69851
3.79358
3.84201
3.78891
3.60779
4.37659
3.90665
3.23512
2.97938
2.61712
2.44389
2.35767
2.14771
1.90286
1.85575
1.8511
1.9502
8.08852
2.88446
1.20871
1.21197
1.1963
1.04252
0.899941
0.746967
0.593973
0.478077
0.439963
0.44366
0.448577
0.420247
0.350465
0.317898
0.304818
0.299435
0.311842
0.358719
0.40302
0.443796
0.480943
0.520316
0.537433
0.498016
0.402838
0.325789
0.252868
0.196332
0.159657
0.135773
0.121115
0.114099
0.109669
0.106117
0.10364
0.102255
0.101639
0.101439
0.101539
0.101908
0.102647
0.103756
0.10514
0.10696
0.10941
0.112263
0.115329
0.118783
0.121725
0.125743
0.132103
0.140288
0.149318
0.157559
0.158325
0.155528
0.153371
0.15364
0.155621
0.162382
0.171166
0.179491
0.187976
0.197851
0.207522
0.221207
0.241239
0.256929
0.266226
0.266139
0.263498
0.253555
0.249516
0.240731
0.233293
0.231651
0.230888
0.227599
0.218367
0.211407
0.204426
0.20164
0.210306
0.217005
0.214177
0.213605
0.214526
0.213542
0.197901
0.179696
0.172701
0.170911
0.17661
0.199451
0.234713
0.319166
0.467186
0.620021
0.67809
0.691698
0.700656
0.730631
0.797785
0.935196
1.27675
1.42752
1.31812
0.874572
0.716657
0.684505
0.699244
0.767671
0.781341
0.781943
0.772451
0.707704
0.616516
0.567945
0.556736
0.576762
0.594548
0.562386
0.53292
0.561356
0.551999
0.54563
0.499107
0.507773
0.64389
0.695413
0.842179
2.05602
2.19667
1.99865
1.34312
1.06733
1.02409
1.06327
1.57319
1.75484
1.68527
1.87554
2.16532
2.46208
2.41026
2.56521
2.69449
2.35311
2.30551
2.28628
2.64886
2.46075
2.43633
2.23961
2.42141
2.74981
2.82454
3.13853
6.08597
5.29364
3.98041
3.43616
3.11513
3.28906
3.50904
3.52078
4.24249
3.85968
3.21189
2.86128
2.38823
2.21615
2.14698
1.95336
1.86927
1.86723
1.80871
1.95048
9.15488
3.35808
1.9882
1.9549
1.57923
1.1851
0.988942
0.8361
0.649333
0.504432
0.450377
0.460309
0.518623
0.500834
0.40642
0.364806
0.347634
0.343401
0.36247
0.393409
0.419049
0.445835
0.460265
0.446167
0.390711
0.326835
0.266098
0.212603
0.172676
0.141891
0.124799
0.115212
0.109775
0.106497
0.10419
0.10263
0.101796
0.101327
0.101192
0.101389
0.10214
0.103439
0.105038
0.106808
0.108695
0.110556
0.112429
0.114766
0.117013
0.121425
0.128881
0.135193
0.138147
0.140999
0.151641
0.163207
0.172551
0.172574
0.162307
0.15798
0.161701
0.167912
0.177322
0.190237
0.211086
0.245485
0.274799
0.295915
0.310697
0.314749
0.30894
0.297946
0.287896
0.270447
0.259415
0.246794
0.236415
0.232657
0.233303
0.233124
0.226696
0.215714
0.203711
0.19341
0.185839
0.184183
0.192274
0.202128
0.209006
0.209853
0.203117
0.186835
0.175936
0.171496
0.174362
0.198044
0.233706
0.320315
0.482751
0.640643
0.69574
0.694831
0.692666
0.739324
0.846319
1.00595
1.26562
1.35046
1.0972
0.73693
0.64413
0.618323
0.616024
0.651955
0.670155
0.666087
0.660077
0.635793
0.595491
0.565291
0.54843
0.55164
0.57995
0.542968
0.498382
0.533304
0.55238
0.547529
0.498675
0.487832
0.53165
0.55769
0.718643
1.20563
1.32318
1.35076
1.16173
1.03724
1.0324
1.05665
1.26733
1.27554
1.24594
1.68796
2.62678
3.0068
2.66085
2.57485
2.31102
2.02374
1.92003
2.21267
2.62844
2.44609
2.39188
2.14953
2.06267
2.37744
2.48412
2.66399
3.73788
4.19395
3.61119
3.27193
3.00867
3.18206
3.33955
3.46993
4.14357
3.74333
3.16079
2.7508
2.27125
2.05404
1.94789
1.83572
1.85962
1.9269
1.77747
1.87116
10.2412
4.33344
3.29997
2.45264
1.69892
1.24352
0.996128
0.792828
0.619595
0.477857
0.433466
0.452274
0.567366
0.569216
0.454384
0.387822
0.363837
0.362389
0.378885
0.395832
0.40851
0.402699
0.371061
0.31829
0.272498
0.227346
0.187817
0.154477
0.133232
0.118849
0.111636
0.107921
0.105817
0.104289
0.103263
0.102737
0.102522
0.102155
0.102182
0.102928
0.104929
0.107226
0.110024
0.115883
0.122238
0.124838
0.126095
0.126993
0.129045
0.132502
0.137871
0.141506
0.144906
0.151328
0.157697
0.173344
0.196095
0.20739
0.205461
0.185826
0.176968
0.181171
0.201066
0.241117
0.282127
0.310728
0.330668
0.341331
0.344763
0.340628
0.326311
0.314888
0.29897
0.278317
0.260645
0.245581
0.236274
0.231886
0.231828
0.233331
0.235256
0.230662
0.214581
0.195441
0.183085
0.173349
0.170118
0.174651
0.18644
0.197772
0.198614
0.191004
0.184539
0.176607
0.172581
0.183935
0.222129
0.303812
0.484797
0.645605
0.703279
0.694847
0.686889
0.749609
0.907501
1.06241
1.20619
1.23553
0.972339
0.660299
0.591133
0.56565
0.555786
0.568323
0.596259
0.607641
0.615223
0.614443
0.590352
0.578025
0.558483
0.522738
0.547536
0.543514
0.493669
0.46523
0.504293
0.506178
0.505262
0.497013
0.495355
0.506242
0.620994
0.994936
1.17928
1.21745
1.11049
1.02906
1.0685
1.17266
1.25544
1.19184
1.13054
1.4921
2.88273
3.10513
2.73362
2.49406
1.94902
1.85376
1.87047
2.25739
2.61994
2.4732
2.3477
2.13959
2.00915
2.1265
2.07664
2.3558
2.68179
2.81392
3.21796
3.15569
2.94586
3.1147
3.2456
3.46413
3.92282
3.52877
3.05021
2.62667
2.21749
2.02006
1.85703
1.78423
1.84597
1.96172
1.78204
1.83228
11.1589
6.40891
4.30204
2.51592
1.62372
1.22115
0.937755
0.628607
0.491412
0.427198
0.431458
0.516764
0.608757
0.544892
0.414906
0.369541
0.356651
0.356923
0.372053
0.375105
0.356291
0.316942
0.281692
0.240977
0.204348
0.171719
0.144795
0.125391
0.114106
0.107575
0.10461
0.10309
0.102241
0.101981
0.1021
0.102326
0.10264
0.103426
0.105291
0.109808
0.116162
0.121372
0.126508
0.132515
0.138175
0.146136
0.152114
0.154127
0.154152
0.154253
0.15425
0.154825
0.156184
0.156417
0.158809
0.169024
0.183719
0.229311
0.263387
0.266187
0.237022
0.221818
0.232433
0.283359
0.322811
0.34292
0.354159
0.359426
0.35687
0.345032
0.333481
0.3273
0.312082
0.291688
0.263714
0.240657
0.225331
0.222486
0.223082
0.225955
0.235634
0.240631
0.241063
0.220116
0.189396
0.171576
0.164185
0.160493
0.161849
0.166405
0.176618
0.181995
0.185889
0.185999
0.175366
0.174994
0.201673
0.264764
0.463173
0.642401
0.70492
0.69841
0.688149
0.767143
0.981621
1.08192
1.10174
1.12682
0.893212
0.615433
0.54806
0.523489
0.515377
0.524438
0.54324
0.581115
0.595568
0.604815
0.59105
0.581458
0.563549
0.511232
0.499271
0.535649
0.508835
0.461758
0.473166
0.481915
0.517494
0.50375
0.475804
0.48354
0.552726
0.91423
1.1263
1.13418
1.07874
1.03898
1.13926
1.31974
1.31139
1.17781
1.07934
1.14871
2.31088
2.55394
2.41794
2.14444
1.84545
1.80392
1.89945
2.58753
2.7773
2.48161
2.26143
2.20751
2.02758
2.00538
1.89199
2.08498
2.22392
2.39414
3.09673
3.07253
2.87777
3.07825
3.19531
3.49486
3.6007
3.21457
2.90513
2.53613
2.16923
2.02327
1.82925
1.76776
1.81963
1.96775
1.831
1.8293
11.9514
8.45308
4.47367
2.10843
1.30138
0.942414
0.646666
0.433959
0.390446
0.396059
0.428419
0.548492
0.603762
0.540284
0.409819
0.359444
0.341638
0.337005
0.336109
0.317868
0.285492
0.254133
0.221414
0.190681
0.163314
0.139724
0.122259
0.111366
0.105728
0.102673
0.101157
0.100539
0.100258
0.10041
0.100889
0.101327
0.101883
0.103135
0.106516
0.113128
0.121524
0.131629
0.140464
0.146762
0.150709
0.157955
0.163835
0.176063
0.18454
0.188284
0.188715
0.184962
0.179803
0.176583
0.172864
0.171399
0.177916
0.202631
0.251793
0.316637
0.336057
0.325724
0.318456
0.330774
0.354922
0.363204
0.36126
0.355178
0.342317
0.33447
0.340024
0.356817
0.370905
0.364046
0.326072
0.269163
0.227898
0.207165
0.204269
0.213872
0.228922
0.238944
0.245853
0.243487
0.222485
0.183152
0.163054
0.15381
0.153174
0.151865
0.149841
0.156573
0.173903
0.186365
0.179446
0.173095
0.19235
0.233022
0.394026
0.615047
0.699778
0.70191
0.690024
0.773082
1.00605
1.1041
1.04306
0.922675
0.794182
0.581579
0.518013
0.497045
0.485566
0.485828
0.497999
0.551192
0.566961
0.561793
0.563223
0.560121
0.541374
0.512564
0.488669
0.504699
0.510895
0.490591
0.475172
0.470266
0.494029
0.486849
0.465872
0.477007
0.536569
0.874386
1.07375
1.09362
1.06893
1.08704
1.21431
1.32506
1.29808
1.15455
1.07322
1.07987
1.32729
1.65334
1.7851
1.8225
1.81581
1.79513
2.14502
3.02388
2.77091
2.2803
2.12896
2.38742
2.16398
1.88714
1.76837
1.87776
1.86444
2.06867
2.96136
2.91676
2.77945
3.03543
3.17856
3.5023
3.29642
2.91415
2.8008
2.44932
2.1094
2.0266
1.79347
1.7544
1.78152
1.89686
1.83166
1.81144
13.0204
9.33635
3.89523
1.69584
0.940626
0.593723
0.450893
0.347968
0.347986
0.381958
0.442455
0.577026
0.608076
0.541758
0.405085
0.348037
0.315091
0.303709
0.290211
0.26611
0.237491
0.211919
0.183016
0.159263
0.139103
0.122095
0.111176
0.105592
0.102858
0.101356
0.10034
0.0998203
0.0996241
0.0997006
0.0999231
0.100661
0.101573
0.103201
0.10795
0.117458
0.12791
0.138774
0.14603
0.155331
0.167838
0.179571
0.189691
0.197869
0.210357
0.223499
0.235443
0.242503
0.240683
0.227345
0.212798
0.203298
0.198973
0.204838
0.242648
0.293974
0.345234
0.370912
0.393426
0.409273
0.409486
0.396899
0.363437
0.332923
0.31394
0.312963
0.333112
0.365816
0.403054
0.42805
0.433676
0.385848
0.282322
0.210726
0.181794
0.181103
0.20767
0.226791
0.239214
0.2414
0.235469
0.209798
0.174573
0.153487
0.147275
0.148006
0.140974
0.137606
0.143397
0.167486
0.173929
0.168562
0.179817
0.21962
0.301287
0.547503
0.679649
0.703703
0.690775
0.766368
0.992607
1.11113
1.06186
0.851875
0.657798
0.55511
0.509573
0.492082
0.473542
0.467504
0.478264
0.514615
0.515877
0.497568
0.50162
0.504052
0.485169
0.506786
0.495211
0.499355
0.507978
0.518584
0.507302
0.471613
0.464639
0.480663
0.460883
0.474197
0.5287
0.800602
1.00696
1.07816
1.09401
1.1254
1.22432
1.22792
1.1511
1.12504
1.10687
1.10348
1.21314
1.5345
1.72637
1.80586
1.82923
1.88442
2.52213
3.09398
2.60486
1.95809
2.06971
2.45507
2.21337
1.76717
1.72588
1.7596
1.64769