/*--------------------------------*- C++ -*----------------------------------*\
| =========                 |                                                 |
| \\      /  F ield         | OpenFOAM: The Open Source CFD Toolbox           |
|  \\    /   O peration     | Version:  dev                                   |
|   \\  /    A nd           | Web:      http://www.openfoam.org               |
|    \\/     M anipulation  |                                                 |
\*---------------------------------------------------------------------------*/
FoamFile
{
    version     2.0;
    format      ascii;
    class       volScalarField;
    object      p;
    location    "9.139";
}
// * * * * * * * * * * * * * * * * * * * * * * * * * * * * * * * * * * * * * //

dimensions      [1 -1 -2 0 0 0 0];

internalField   nonuniform List<scalar> 
12225
(
96453.7
96385.2
96292.9
96173.4
96010.9
95837.7
95626.3
95426.8
95188.3
94956.6
94698.7
94460.3
94170.6
93941.5
93642.3
93293.6
92862.7
92415.9
96456.6
96392.1
96300.5
96180.5
96020.2
95846.2
95634.5
95435.4
95197.1
94965
94707.8
94467.7
94183.9
93944.3
93643.4
93290.2
92873.3
92450.7
96470.3
96408.8
96318
96197.7
96039.1
95863.4
95656
95451.7
95217.2
94983.5
94729.9
94485.7
94209.9
93959.4
93658.9
93303.5
92938
92540.3
96494.1
96437.7
96348.5
96228
96070.5
95894
95690.3
95482.3
95251
95016.5
94766.6
94519.2
94249.9
93992.4
93693.8
93353.3
92984.7
92629.1
96534.8
96483.1
96395.2
96275.1
96119
95942
95741.4
95531.2
95303.2
95068
94826.2
94574.4
94315.3
94054.6
93761.3
93417.7
93032.1
92772.6
96594.1
96549.7
96462.7
96343.5
96188.1
96012
95813.8
95600.7
95375.9
95145.6
94904.3
94655.6
94402.3
94147.4
93863.7
93538.5
93193.4
92983.1
96681.8
96642.6
96556.3
96438
96284.3
96108.6
95912.1
95701.3
95477.6
95249.5
95009.8
94767.8
94520
94268
94001.4
93732.1
93446.9
93196.1
96789.4
96748.6
96663.4
96546.1
96394.1
96219.5
96023.8
95816.9
95595.4
95367.3
95131.8
94894
94650.3
94405.9
94164
93921.1
93684.1
93373.7
96903.6
96863.5
96779.8
96663.4
96513.1
96339.2
96145.4
95936.6
95720.6
95494.9
95263.7
95028.9
94789.5
94552.2
94315.1
94089.5
93876.3
93578.7
97055.1
97016.6
96935
96819
96671
96498.9
96307.6
96101.8
95887.3
95664.2
95437.5
95207.5
94975
94744
94514.3
94281.7
94094.8
93845
97261
97221.2
97141.5
97026.8
96881
96711
96522.5
96320.9
96108.2
95888.6
95666.7
95442.5
95216.7
94994.2
94774.2
94555.3
94369.6
94153.6
97536.1
97492.8
97415.8
97302.5
97159.6
96991.8
96806.9
96607.6
96399.7
96184.9
95968.5
95749.3
95532.1
95317.5
95107.9
94903.1
94714.2
94523.2
97894.2
97853.1
97778.3
97667.6
97527.5
97363.1
97181.7
96987
96783.3
96574.2
96363.3
96151.5
95941.4
95735
95534.4
95339.8
95155.2
94977.7
98358.1
98325.7
98254.5
98146.8
98010.2
97849.9
97673
97483.1
97284.9
97081.5
96876.4
96671.5
96469
96270.5
96077.5
95890.9
95713
95543.8
98968.4
98942.6
98875.3
98771.4
98638.8
98483.1
98310.9
98126.4
97934
97736.8
97537.9
97339.4
97143.3
96951.2
96764.5
96584.2
96411.6
96247.1
99771.3
99741.4
99674.8
99573.8
99445.4
99294.9
99128.2
98949.6
98763.2
98571.9
98378.5
98185.4
97994.3
97806.7
97624
97446.9
97276.5
97113.3
100764
100745
100682
100584
100460
100315
100154
99981
99800
99613.7
99424.7
99235.2
99046.9
98861.2
98679.3
98502
98330.2
98164.4
101918
101885
101820
101725
101606
101465
101309
101142
100965
100782
100595
100407
100219
100032
99847
99665.7
99488.5
99316
102977
102953
102893
102802
102686
102551
102399
102235
102061
101880
101694
101505
101314
101124
100934
100747
100562
100381
103866
103853
103798
103712
103601
103470
103322
103160
102988
102808
102621
102431
102237
102043
101848
101654
101462
101273
104609
104591
104539
104457
104350
104222
104077
103917
103747
103567
103379
103187
102990
102791
102592
102392
102194
101998
105200
105178
105128
105048
104944
104820
104677
104519
104349
104169
103981
103786
103587
103385
103181
102977
102774
102572
105643
105629
105582
105505
105404
105282
105141
104985
104815
104635
104446
104250
104048
103843
103635
103427
103221
103015
105981
105969
105924
105850
105751
105630
105491
105335
105166
104986
104796
104599
104396
104188
103978
103767
103557
103349
106228
106219
106175
106102
106004
105885
105747
105592
105423
105243
105053
104855
104651
104442
104231
104018
103805
103593
106405
106397
106353
106281
106184
106065
105928
105773
105605
105425
105235
105036
104832
104623
104410
104196
103980
103764
106528
106518
106474
106401
106305
106187
106050
105896
105728
105548
105357
105159
104954
104744
104530
104314
104096
103879
106608
106596
106551
106478
106383
106265
106127
105974
105806
105625
105435
105237
105031
104820
104605
104388
104170
103952
106654
106640
106593
106521
106426
106308
106171
106017
105849
105669
105479
105280
105074
104863
104648
104430
104211
103993
106679
106659
106611
106538
106442
106326
106189
106035
105867
105687
105497
105298
105092
104881
104665
104448
104229
104011
89151
89154.9
89163.3
89176.3
89194.1
89217
89243.8
89274.8
89310.4
89350.4
89395
89444.2
89498.3
89557.2
89621
89690.1
89764.5
89844.3
89929.9
90021.3
90118.3
90221.2
90329.8
90443.8
90563.8
90688.5
90817.8
90953
91093.2
91238.2
91389.1
91545.7
91707.6
91874.4
92045.1
92217.6
92394.4
92575.7
92759.8
92944
93127.9
93312.2
93497.3
93683.9
93871.7
94060.4
94249.4
94438.3
94626.7
94814
94999.7
95183.5
95365.2
95544.3
95720.5
95893.4
96062.8
96228.5
96390.2
96547.9
96701.4
96850.7
96995.6
97136.3
97272.8
97405.6
97534.7
97660.2
97782.5
97902
98019.2
98134.5
98247.9
98359.7
98470.3
98579.7
98688.2
98795.7
98902
99006.8
99109.6
99209.7
99306.3
99398.4
99485
99564.8
99636.3
99697.4
99747
99783.6
99807.1
99815.4
99806.1
99777.3
99727.7
99656.3
99561.1
99440.7
99294.4
99123
98927.3
98709.9
98474.5
98222.7
97958.7
97687.4
97407.3
97117.1
96824.3
96540
96268.2
96006.2
95755.5
95520.4
95304.8
95114.8
94952.4
94819.5
94713.8
94635.7
94589.1
94573.3
94586.8
94630.6
94706.4
94819.2
94975.1
95178.3
95426.1
95697.1
95988.5
96321.4
96662.7
97044.8
97497.4
98023.2
98619.3
99263.7
99960.9
100607
101191
101781
102402
103034
103675
104317
104916
105462
105988
106470
106900
107269
107536
107740
107893
107989
108074
108179
108254
108331
108318
108304
108173
107934
107679
107373
107073
106554
105779
105008
104330
103771
103281
102834
102430
102068
101748
101482
101301
101235
89137.5
89140.8
89149.1
89162.4
89180.2
89202.5
89229.2
89260.2
89295.7
89335.7
89380.3
89429.5
89483.4
89542.2
89605.9
89674.8
89749.1
89828.8
89914.3
90005.6
90102.4
90205.3
90313.8
90427.7
90547.6
90672.4
90801.8
90937.1
91078.4
91224.6
91375.2
91530.9
91692.1
91861
92035.3
92209.5
92382.2
92560.6
92745.7
92932.7
93118.2
93302.1
93486.4
93672.7
93861.1
94050.6
94240.5
94430.3
94619.5
94807.5
94993.9
95178.4
95360.7
95540.7
95718
95892
96062.4
96229.1
96392
96551.1
96706
96856.5
97003.1
97144.8
97282.5
97417.2
97548.5
97675.8
97799.7
97920.9
98039.9
98157.1
98272.5
98386.2
98498.7
98610.1
98720.6
98830.1
98938.3
99045.1
99149.8
99251.7
99350
99443.8
99532.2
99614
99687.6
99751.4
99803.9
99843.6
99870
99880.9
99874
99847.6
99800.6
99731.7
99638.9
99520.8
99377
99207.6
99013
98796
98562
98313.1
98049.6
97778.2
97501.3
97214.3
96921.7
96637.5
96366.5
96104.4
95852.9
95617.4
95402
95213.2
95053.3
94923.4
94818.5
94741.6
94695.7
94680.7
94694.4
94739.6
94818.7
94934.6
95090.8
95289.5
95530.5
95803
96102.2
96434.1
96779.7
97165.9
97622.8
98154.8
98757.2
99408.6
100112
100761
101336
101923
102552
103187
103828
104480
105081
105622
106155
106643
107078
107456
107719
107926
108083
108175
108260
108374
108447
108540
108512
108502
108370
108115
107854
107531
107210
106742
105976
105176
104486
103926
103432
102976
102562
102191
101862
101588
101395
101308
89111.1
89115
89123.3
89136.2
89153.5
89175.3
89201.6
89232.4
89267.7
89307.5
89351.9
89400.9
89454.4
89512.7
89576.1
89644.6
89718.7
89798.3
89883.6
89975
90072
90174.9
90283.7
90397.1
90516.4
90642.6
90774.1
90909.9
91051.2
91198.4
91351.1
91508
91669.8
91837.1
92009.2
92185.2
92363.3
92541.8
92721.1
92903.8
93089.1
93275.4
93462.7
93651.3
93841.3
94031.8
94222.9
94414.2
94605
94794.8
94982.3
95167.6
95351.1
95533.5
95713.1
95889.3
96061.9
96230.7
96395.9
96557.4
96714.7
96867.3
97018.3
97162.4
97302.7
97440.1
97576.9
97706.6
97833.4
97958
98080.6
98201.3
98320.2
98437.7
98554
98669.3
98783.6
98896.8
99008.6
99118.9
99226.9
99332
99433.4
99530.6
99622.5
99708
99786
99855.4
99914
99960.6
99993.6
100011
100010
99988.7
99946.6
99882.2
99793.6
99679
99539.5
99375.6
99185.7
98971.3
98739.5
98493.4
98233.3
97965.2
97691.6
97407.3
97119.3
96839.7
96568.6
96304.9
96050.3
95812.9
95597.9
95410.7
95255.1
95127.3
95025.8
94951.8
94905.2
94888.3
94902.7
94953.4
95038.2
95159.1
95314.2
95501.3
95734.9
96011.2
96320.2
96653.2
97006.3
97404.5
97873.9
98420.1
99038.7
99695.8
100377
101031
101608
102204
102853
103494
104132
104804
105411
105946
106496
106994
107439
107834
108095
108309
108477
108562
108646
108777
108849
108990
108914
108896
108769
108476
108231
107846
107471
107114
106356
105526
104823
104260
103751
103268
102830
102437
102088
101797
101581
101464
89073.6
89077.6
89085.9
89098.5
89115.4
89136.8
89162.7
89193
89227.8
89267.2
89311
89359.2
89411.9
89469.5
89532.3
89600.3
89673.9
89753.8
89839.4
89931
90028.6
90132
90241.9
90357.2
90476.5
90600.8
90732.2
90871.2
91014.7
91161.5
91313.1
91471.4
91638.2
91809.4
91979.4
92148.6
92322.4
92503.4
92684
92867.5
93053.4
93241.1
93430.5
93621.2
93813
94005.4
94198.5
94391.4
94583.5
94775.2
94965.3
95153.6
95340
95524.8
95706.9
95885.5
96061.2
96233.2
96401.8
96566.8
96727.9
96885.2
97038.7
97187.6
97333.1
97475.7
97615.1
97750
97882.1
98011.7
98139.2
98265.1
98389.5
98512.6
98634.6
98755.5
98875.4
98994
99111.1
99226.4
99339.4
99449.5
99555.9
99658
99755
99845.8
99929.9
100007
100074
100129
100170
100196
100203
100190
100156
100097
100014
99904.6
99768.8
99610.3
99429
99222.9
98996.8
98756.8
98502.8
98239.2
97969.5
97689.9
97407.9
97132
96862.1
96599.3
96345.3
96110.1
95893.3
95710.2
95556.6
95430.6
95331.3
95257.8
95209.9
95192.2
95213.2
95271.3
95357.3
95481.3
95635.8
95816.4
96048.4
96324.5
96642.3
96981.6
97342.2
97755.2
98243.5
98818.6
99457.8
100080
100704
101365
101973
102602
103289
103942
104574
105260
105881
106417
106988
107496
107942
108354
108633
108868
109056
109144
109216
109344
109416
109649
109510
109457
109380
109089
108876
108432
107915
107604
106892
106053
105334
104757
104219
103699
103223
102798
102420
102101
101852
101701
89026
89030.1
89038.3
89050.6
89067.3
89088.3
89113.7
89143.5
89177.6
89216.2
89259.1
89306.4
89357.9
89414.4
89476.3
89543.9
89617.4
89697.1
89782.8
89874.8
89972.9
90076
90185.4
90302.2
90425.3
90552.5
90684.3
90821.3
90964.2
91113.9
91271.1
91433
91595.4
91760.5
91929.1
92100.3
92275
92453.7
92635.6
92820.5
93008
93197.9
93389.7
93583
93777.4
93972.7
94168.4
94364.1
94558.8
94752.6
94944.5
95137.9
95327.4
95514.9
95699.8
95882.1
96061.5
96237.6
96410.2
96579.7
96745.7
96908
97066.7
97221.5
97372.7
97520.8
97665.7
97807
97945.4
98081.6
98215.9
98348.8
98480.4
98610.9
98740.4
98868.9
98996.2
99122.2
99246.5
99368.9
99489
99606.3
99720
99829
99932.8
100030
100121
100205
100281
100346
100397
100431
100447
100444
100419
100370
100296
100193
100063
99909.1
99734.3
99538.3
99321.2
99087.7
98841.8
98587.5
98324.4
98053.3
97781.2
97511.5
97245.6
96988.1
96732.7
96499.4
96284.9
96103.3
95951.4
95826.3
95727
95652.6
95606.2
95593.2
95622.4
95682.2
95771.8
95903.2
96059.9
96239.5
96466.5
96737.8
97057.8
97402.2
97785.8
98215.5
98730.4
99339.5
99958.4
100526
101126
101783
102431
103105
103839
104509
105128
105810
106467
107016
107597
108119
108547
108951
109284
109551
109770
109894
109955
110037
110111
110307
110262
110155
110163
109926
109634
109187
108591
108189
107567
106723
105991
105384
104807
104246
103725
103258
102844
102488
102200
102011
88970.6
88974.7
88982.8
88995
89011.5
89032.1
89057
89086.1
89119.6
89157.6
89199.8
89246.1
89296.8
89352.7
89414.2
89481.6
89554.8
89634.1
89719.5
89811.2
89909.6
90014.4
90124.8
90241.1
90362.7
90489.6
90622.9
90762.8
90908.8
91060.1
91215.1
91373.5
91534.8
91699.4
91867.7
92039.7
92215.5
92395.2
92578.3
92764.8
92954.3
93146.7
93341.1
93537.2
93734.6
93933.1
94131.6
94330.7
94529.2
94726
94921.6
95120.2
95312.8
95503.7
95692.7
95879.3
96063.3
96244.4
96422.3
96597.2
96769
96937.2
97101.9
97263.5
97421.6
97576.5
97728.2
97876.9
98023.2
98167.6
98310.5
98452.2
98592.6
98732
98870.3
99007.8
99144.1
99279
99412.4
99543.8
99672.8
99799
99921.7
100040
100153
100260
100358
100449
100532
100606
100667
100711
100739
100748
100735
100698
100634
100538
100414
100269
100102
99914.2
99707.6
99482.9
99243.9
98997.9
98745.6
98489
98228.6
97966.5
97706.2
97452.5
97208.6
96975.5
96761.7
96577.6
96423.1
96298.1
96199.4
96127.7
96084.1
96074.4
96102.3
96163.8
96264.4
96402.8
96568.3
96759.3
96978.7
97246.3
97563.6
97914.8
98327.6
98778.4
99317.7
99917.3
100503
101065
101686
102325
102993
103712
104479
105166
105774
106419
107112
107708
108293
108847
109264
109617
110012
110314
110554
110748
110828
110854
110974
110950
111056
110977
110985
110824
110468
110032
109411
108918
108342
107512
106759
106111
105490
104886
104316
103800
103343
102945
102615
102382
88910.7
88914.7
88922.8
88934.9
88951.1
88971.4
88995.9
89024.5
89057.4
89094.8
89136.7
89182.6
89233
89288.7
89350.4
89418.3
89492.2
89571.9
89656.9
89747.8
89844.9
89948
90057.4
90173.4
90295.8
90424.5
90558.8
90698.5
90843.2
90994.1
91147
91303.9
91464.6
91629.4
91798.3
91971.3
92148.3
92329.4
92514.4
92703
92894.8
93089.5
93286.6
93485.6
93685.7
93887.2
94089.6
94295.2
94498.1
94699.3
94899.5
95098.9
95296.5
95492.5
95686.5
95878.4
96067.7
96254.3
96438.3
96619.5
96797.6
96972.7
97144.7
97313.6
97479.3
97642.1
97802.4
97960.3
98116.2
98270.6
98423.7
98575.5
98726.2
98875.8
99024.5
99172.3
99318.9
99463.9
99607.4
99749
99888.1
100024
100157
100285
100408
100526
100636
100735
100825
100906
100976
101032
101072
101095
101095
101069
101013
100924
100809
100677
100526
100352
100156
99942.2
99712.9
99474.7
99235
98991.7
98740.5
98485
98227
97977.3
97738.6
97512.9
97306.6
97121.2
96962.3
96835.6
96736.2
96669.3
96628.6
96618.3
96642.4
96708.3
96814.5
96946
97117.9
97338.3
97575
97841.4
98156.8
98518.9
98944.7
99412.4
99960.6
100520
101105
101705
102307
102936
103620
104400
105168
105858
106487
107080
107764
108429
109032
109618
110087
110375
110787
111133
111374
111633
111776
111779
111905
111713
111958
111924
111884
111761
111386
110945
110340
109764
109178
108385
107606
106906
106237
105593
104974
104405
103898
103455
103082
102801
88850.3
88854.1
88862.1
88874.1
88890.1
88910.2
88934.4
88962.7
88995.2
89032.1
89073.7
89119.5
89169.7
89225
89286.4
89354
89427.7
89508.3
89593.3
89683.2
89778.9
89880.7
89988.4
90103.4
90227.6
90358.2
90490.5
90628.4
90771.4
90919.4
91071.6
91228
91388.8
91554
91723.7
91897.9
92076.7
92259.7
92446.9
92637.8
92832.1
93029.3
93229
93432.7
93637.7
93842.3
94047.9
94254.6
94461.4
94667.4
94872.7
95077.4
95280.9
95482.8
95682.8
95880.4
96075.4
96268
96458.4
96646.7
96832.3
97015.1
97195.3
97372.8
97547.8
97720.4
97890.7
98059
98225.7
98391.2
98555.6
98718.9
98881.2
99042.7
99203.2
99362.7
99521
99677.6
99832.2
99984.8
100135
100281
100424
100562
100694
100822
100943
101056
101156
101245
101324
101389
101439
101472
101483
101470
101429
101357
101257
101142
101007
100846
100663
100459
100241
100014
99784.5
99548
99300.6
99049.1
98792.2
98545.5
98310.7
98092.7
97894.5
97712.1
97552.8
97423.6
97322.2
97254.3
97212.6
97201.2
97226.2
97294.1
97401.1
97526.2
97701.4
97936.1
98206.1
98492.6
98804.3
99177.3
99612.1
100097
100630
101176
101764
102369
102945
103595
104304
105120
105856
106524
107196
107807
108443
109147
109772
110349
110896
111180
111570
111938
112205
112494
112719
112755
112848
112801
112988
112960
112915
112788
112361
111873
111282
110654
110048
109294
108491
107732
107012
106332
105669
105047
104486
103994
103577
103243
88793.5
88797.1
88805
88816.9
88832.9
88852.8
88876.7
88904.8
88937
88973.5
89014.7
89060.3
89110.3
89165.3
89226
89292.6
89365.4
89444.3
89528.3
89617.8
89713.4
89815.1
89922.9
90037.2
90158
90284.9
90416.7
90553.6
90695.5
90842.3
90993.7
91149.9
91310.8
91476.8
91647.7
91823.5
92004.2
92189.4
92378.9
92572.1
92768.7
92968.4
93170.6
93374.5
93585.4
93793.4
94002.7
94213.1
94424.2
94635.1
94845.7
95055.8
95265.1
95473
95679.4
95883.9
96086.5
96286.9
96485.1
96681.3
96875.1
97066.5
97255.9
97443.3
97628.7
97811.9
97993.3
98173
98351.5
98528.9
98705.5
98881.1
99055.9
99230.2
99403.5
99575.8
99746.7
99916.1
100083
100248
100409
100568
100721
100870
101014
101149
101278
101402
101517
101618
101704
101777
101836
101878
101901
101902
101882
101832
101753
101654
101530
101381
101210
101021
100816
100601
100375
100141
99896.2
99646.7
99394.2
99151.6
98922.9
98708.8
98512.7
98331.9
98173
98037.6
97929
97851.8
97808.3
97799.7
97829.8
97898.4
98007.3
98141.9
98317.9
98538.7
98823.3
99146.1
99476.4
99859.6
100307
100818
101329
101876
102444
103029
103620
104302
105046
105824
106527
107161
107850
108533
109181
109867
110503
111025
111595
111943
112352
112672
112989
113281
113585
113703
113786
113817
113905
113862
113803
113673
113255
112781
112230
111570
110922
110191
109368
108549
107778
107063
106360
105689
105073
104533
104069
103682
88745
88748.6
88756.4
88768.1
88783.9
88803.6
88827.3
88854.9
88886.8
88922.9
88963.4
89008.5
89058.2
89112.7
89172.5
89238
89309.3
89386.4
89469.3
89557.9
89652.4
89752.9
89859.4
89972.2
90091
90215.7
90345.8
90481
90621.2
90766.5
90917
91072.7
91234.1
91400.9
91573.3
91750.8
91933.3
92120.4
92311.9
92507.1
92705.9
92907.7
93113.1
93322
93532.7
93744.7
93958.1
94172.6
94388.3
94604.5
94820.8
95036.8
95252
95466.2
95679.3
95891.3
96101.8
96310.7
96518
96723.4
96926.8
97128.2
97327.8
97525.8
97722
97916.6
98109.6
98301.3
98491.7
98681.1
98869.9
99058
99245.7
99432.8
99619.2
99804.6
99988.9
100172
100352
100531
100705
100876
101042
101203
101358
101506
101645
101775
101899
102013
102112
102195
102265
102316
102348
102359
102354
102328
102269
102183
102072
101937
101781
101608
101417
101209
100986
100752
100513
100265
100015
99776.8
99552.6
99340.2
99141.1
98957.8
98797.1
98654
98538.5
98453.8
98413.3
98411.4
98446.5
98517.6
98626.3
98773.3
98945.9
99152.3
99413.2
99755.8
100134
100529
100987
101521
102042
102564
103106
103706
104339
105009
105765
106490
107172
107800
108477
109219
109885
110546
111154
111650
112158
112617
113060
113330
113674
113953
114294
114555
114666
114733
114738
114632
114546
114389
114017
113613
113116
112424
111750
111038
110198
109316
108494
107745
107008
106295
105631
105050
104532
104098
88709.6
88712.8
88720.3
88731.6
88746.8
88766.3
88789.5
88816.7
88848
88883.5
88923.2
88967.4
89016.7
89070.5
89129.2
89193.4
89263.3
89338.6
89419.9
89506.9
89599.5
89698.1
89802.8
89913.5
90029.9
90152
90279.5
90412.4
90550.7
90694.7
90844.6
91000.5
91162.4
91330
91503.3
91682.1
91866.2
92055.1
92248.4
92445.6
92646.6
92850.9
93059.8
93270.7
93484.1
93699.8
93917.2
94136.1
94356.2
94577.5
94799.9
95022.6
95244.7
95465.7
95685.3
95904.3
96122.9
96341.1
96558.1
96773.6
96987.5
97199.9
97410.7
97620
97827.5
98033.2
98237.2
98440
98641.8
98843.1
99044
99244.8
99445.4
99645.4
99845
100044
100242
100438
100633
100825
101014
101198
101378
101553
101719
101879
102031
102172
102301
102421
102531
102626
102706
102768
102811
102832
102839
102833
102791
102717
102621
102501
102360
102200
102020
101818
101601
101366
101130
100884
100633
100398
100176
99964.9
99760.9
99572.6
99407.3
99259
99142.9
99056.4
99018.9
99016.6
99049.8
99120
99227.8
99381.9
99561
99775.5
100013
100341
100751
101167
101638
102180
102714
103233
103745
104353
105019
105676
106407
107102
107757
108419
109136
109883
110520
111148
111674
112189
112605
113166
113565
113874
114228
114514
114835
115224
115398
115558
115572
115411
115317
115111
114759
114380
113888
113180
112499
111803
110943
109997
109124
108346
107582
106838
106134
105526
104944
104453
88691.6
88694.2
88701.2
88711.8
88726.2
88744.7
88767
88793.2
88823.6
88858.5
88897.8
88941.6
88990
89042.6
89099.8
89162.3
89230
89303.4
89382.5
89467.2
89557.7
89654
89756.1
89864
89977.6
90096.7
90221.5
90352
90488.5
90631.2
90780.4
90936
91097.8
91265.9
91440.1
91620.2
91805.7
91995.9
92190.6
92389.6
92592.6
92799
93010
93223.7
93440.3
93659.6
93881.3
94105
94330.1
94556.7
94784.5
95013.5
95242.9
95471.7
95699.4
95926
96152.7
96379.7
96606.3
96832.3
97057.4
97281.2
97503.3
97723.4
97941.3
98157.1
98371.3
98584.7
98797.9
99011.5
99225.4
99440
99654.6
99868.5
100082
100294
100506
100715
100923
101128
101330
101528
101720
101908
102089
102261
102425
102578
102718
102843
102958
103060
103147
103221
103279
103313
103326
103334
103309
103245
103162
103056
102927
102777
102608
102412
102201
101972
101727
101483
101225
100994
100770
100556
100349
100158
99986.5
99835.6
99720.2
99631
99591.8
99580.4
99609.6
99673.2
99771.5
99922.8
100125
100356
100620
100928
101319
101754
102233
102777
103318
103846
104362
104937
105617
106287
106972
107634
108268
108958
109743
110449
111052
111652
112109
112625
112993
113571
113898
114262
114640
114988
115265
115698
115924
116165
116230
116088
115952
115720
115415
115044
114537
113825
113134
112448
111562
110558
109643
108837
108053
107286
106549
105922
105278
104723
88696.6
88698.6
88705.5
88715
88727.7
88744.2
88764.4
88788.4
88816.7
88849.7
88887.3
88929.3
88976.5
89028.8
89085.2
89146.4
89212.2
89283.3
89359.8
89441.9
89529.6
89622.9
89722
89826.7
89936.9
90053
90175
90303.2
90438
90579.4
90727.7
90882.6
91044.4
91212.8
91387.4
91567.7
91753.3
91944.2
92140
92340.3
92544.8
92753.6
92967.1
93183.6
93403.4
93626.4
93852.2
94080.6
94311.1
94543.4
94777.5
95012.9
95249
95485.2
95721.1
95957
96193.1
96428.4
96664.2
96900.4
97136.3
97371.1
97603.7
97833.5
98060.7
98286.1
98510.6
98735.6
98961.6
99189
99417.6
99646.8
99876.4
100105
100333
100560
100784
101006
101225
101442
101655
101863
102067
102263
102454
102638
102813
102977
103129
103265
103385
103493
103586
103666
103734
103780
103797
103809
103804
103751
103679
103585
103464
103322
103161
102972
102762
102547
102297
102044
101779
101543
101311
101093
100884
100690
100515
100365
100250
100153
100112
100092
100116
100179
100271
100404
100613
100858
101139
101456
101826
102265
102740
103280
103818
104333
104868
105448
106146
106821
107459
108084
108701
109367
110145
110814
111394
111967
112426
112901
113292
113823
114143
114495
114897
115323
115604
115997
116258
116503
116610
116547
116389
116123
115868
115514
114998
114306
113616
112938
112017
110969
110028
109205
108400
107615
106860
106211
105526
104926
88730.6
88732.3
88738
88745.8
88756.1
88770.5
88788.9
88811.2
88837.3
88867.8
88902.6
88940.7
88986
89034.7
89088.5
89147.3
89211.1
89280.1
89354.2
89433.6
89518.3
89608.5
89704.2
89805.4
89912.4
90025.3
90144.5
90270.3
90402.9
90542.6
90689.4
90843.4
91004.4
91172.1
91346.3
91526.2
91711.9
91903.2
92099.9
92301.2
92507.9
92718.8
92933.6
93152.2
93374.9
93601.4
93831.6
94064.8
94300.6
94538.7
94778.9
95020.8
95263.8
95507.8
95752.3
95997.2
96242.2
96487.4
96733.3
96979
97224.4
97468.7
97710.8
97949.9
98186.6
98422.5
98658.8
98896.6
99136
99376.6
99618.5
99861.5
100106
100349
100592
100832
101069
101304
101534
101761
101985
102203
102416
102621
102817
103005
103186
103358
103519
103666
103794
103909
104007
104087
104155
104212
104239
104248
104257
104218
104153
104067
103957
103819
103660
103483
103265
103054
102816
102551
102283
102037
101793
101568
101352
101154
100974
100823
100706
100610
100563
100542
100551
100617
100716
100847
101031
101282
101565
101891
102263
102690
103166
103684
104201
104706
105243
105852
106552
107204
107812
108427
109032
109640
110341
110983
111537
112075
112547
112975
113415
113896
114254
114580
115003
115463
115775
116104
116414
116627
116729
116763
116633
116371
116133
115762
115257
114604
113922
113247
112275
111205
110247
109429
108611
107821
107046
106367
105678
105046
88799.4
88800.7
88804.7
88810
88817.9
88829.7
88845.3
88865.3
88888.7
88916.9
88950.5
88988.8
89028.6
89073
89122.2
89176.5
89236.1
89301.2
89371.5
89447.3
89528.5
89615.1
89707.1
89804.7
89908.2
90017.8
90134
90257.1
90387.4
90524.9
90669.6
90821.7
90981
91147
91319.4
91498
91683.2
91874.6
92071.5
92273.2
92480.2
92692.6
92909.6
93131.4
93357.3
93587.3
93821.2
94058.7
94299.7
94543.5
94790.1
95038.8
95289.2
95540.8
95793.4
96046.8
96300.9
96555.6
96810.6
97066.1
97321.4
97575.1
97826.1
98074.7
98321.9
98569
98817.2
99066
99315.2
99565.1
99817.4
100073
100330
100589
100847
101102
101352
101598
101840
102077
102310
102536
102756
102969
103172
103364
103545
103718
103881
104035
104170
104290
104395
104479
104542
104601
104637
104642
104654
104629
104568
104487
104383
104251
104091
103916
103709
103481
103252
102992
102722
102456
102203
101971
101745
101541
101357
101204
101081
100981
100927
100906
100905
100963
101064
101202
101375
101614
101904
102234
102598
103018
103483
103974
104475
104983
105514
106120
106776
107388
107983
108598
109199
109780
110395
110998
111523
112033
112502
112891
113353
113800
114162
114502
114933
115372
115707
115996
116353
116568
116630
116741
116631
116400
116166
115780
115309
114705
114026
113335
112310
111252
110278
109468
108656
107877
107070
106338
105696
105021
88909.9
88910
88911.8
88914.3
88919.5
88927.6
88938.7
88954
88972.3
88995.6
89023.3
89055.7
89093.5
89135.8
89182.1
89233.1
89289
89350.1
89416.3
89487.9
89565
89647.5
89735.5
89829.1
89928.7
90034.7
90147.5
90267.4
90394.6
90529.2
90671.3
90820.8
90977.7
91141.4
91311.8
91488.6
91671.9
91861.4
92057.3
92259.7
92467.1
92680.2
92898.8
93122.4
93351
93584.7
93822.3
94063.7
94309.2
94558.3
94810.8
95066.2
95324
95583.6
95844.6
96106.5
96369.3
96632.9
96897.5
97162.4
97426.7
97689.7
97950.2
98208.8
98466.8
98724.8
98982.7
99238.8
99493.8
99749.4
100009
100273
100544
100818
101092
101361
101625
101882
102134
102381
102621
102854
103077
103294
103501
103698
103882
104054
104213
104366
104505
104625
104732
104822
104885
104936
104975
104980
104979
104966
104909
104830
104727
104598
104441
104258
104063
103831
103596
103341
103070
102795
102531
102287
102056
101849
101662
101502
101371
101263
101195
101168
101170
101213
101307
101447
101628
101852
102134
102460
102803
103209
103660
104134
104628
105122
105652
106236
106828
107407
107993
108598
109176
109736
110317
110879
111369
111847
112290
112663
113114
113526
113864
114207
114609
115004
115372
115668
116055
116295
116345
116488
116379
116192
115956
115570
115142
114584
113906
113175
112104
111094
110109
109303
108514
107743
106935
106165
105563
104864
89070.6
89068.7
89067.2
89065.6
89066.1
89068.5
89073.2
89081.8
89094.2
89111.6
89131.9
89160.4
89194.2
89232.5
89275.2
89322.2
89373.9
89430.6
89492.4
89559.5
89631.9
89709.8
89793.2
89882.5
89977.9
90079.9
90188.8
90305
90428.5
90559.6
90698.2
90844.3
90998.2
91159.4
91327.6
91502
91683.1
91871
92066.1
92267.4
92474.6
92688
92906.8
93131.5
93362.5
93598
93837.6
94082.1
94331.8
94585.8
94843.4
95104.5
95369.1
95636.3
95905.1
96175.1
96446.5
96718.7
96992.1
97266.7
97540.8
97813
98083
98351.9
98620.2
98887.2
99152.5
99414.3
99673.3
99932.8
100196
100469
100750
101038
101325
101608
101882
102149
102409
102665
102911
103151
103378
103594
103800
103997
104180
104352
104509
104652
104789
104908
105010
105098
105164
105203
105239
105245
105226
105214
105163
105081
104976
104846
104693
104504
104301
104078
103835
103580
103310
103033
102761
102504
102268
102053
101858
101687
101549
101437
101357
101321
101321
101357
101437
101572
101759
101978
102238
102547
102882
103263
103697
104153
104639
105111
105625
106182
106725
107290
107865
108442
108971
109498
110034
110553
111017
111455
111869
112254
112672
113037
113365
113700
114036
114382
114788
115116
115522
115781
115865
115993
115881
115752
115499
115133
114746
114217
113556
112760
111658
110718
109738
108949
108182
107408
106643
105893
105287
104601
89290.7
89286.7
89281.2
89273.7
89268.3
89263.8
89260.5
89260.6
89264.4
89273.6
89289.6
89311.9
89339.6
89372.2
89409.3
89450.8
89497
89548.2
89604.6
89666.4
89733.5
89806.2
89884.5
89968.7
90059.4
90156.8
90261.4
90373.4
90492.7
90619.5
90754.5
90895.5
91046.1
91203.8
91368.8
91541.2
91720.7
91907.2
92100
92299.6
92506.6
92720.3
92939.2
93164.3
93396.5
93633.2
93873.9
94121
94373.5
94630
94890.4
95155.2
95425.2
95699
95974.7
96251.9
96531.1
96811.9
97093.8
97377.3
97660.9
97942.6
98222.7
98501.5
98778.8
99054.7
99327.2
99595.3
99860.4
100126
100396
100676
100965
101261
101555
101845
102125
102398
102661
102920
103170
103411
103643
103860
104063
104255
104433
104598
104752
104887
105013
105126
105222
105300
105363
105394
105416
105421
105391
105362
105314
105229
105118
104983
104827
104643
104426
104198
103951
103694
103426
103149
102873
102607
102359
102133
101924
101745
101600
101485
101400
101355
101342
101376
101439
101562
101748
101962
102202
102488
102817
103182
103583
104017
104483
104940
105428
105950
106464
107003
107557
108086
108564
109061
109548
110018
110452
110851
111264
111662
112036
112342
112651
112997
113263
113563
113994
114339
114747
115010
115155
115258
115150
115073
114796
114468
114115
113580
112947
112103
110987
110119
109170
108418
107670
106890
106164
105468
104869
104212
89533.3
89526.3
89515.9
89502.3
89491.3
89479.5
89468
89461
89458.9
89461.3
89469.4
89484.2
89504.8
89530.8
89561.3
89596.7
89637
89682.5
89733.3
89789.7
89851.6
89919.2
89992.6
90072
90158.1
90251.2
90351.6
90459.3
90574.6
90696
90827.4
90966.2
91112.9
91267.3
91429.4
91599.1
91776.5
91962
92152.5
92351.3
92557.2
92769.8
92988.4
93213.9
93445.9
93682.6
93924.4
94172.8
94426.5
94684.5
94947.5
95215.2
95487.4
95763.6
96043.3
96325.7
96610.6
96897.9
97186.8
97477.1
97768.2
98057.8
98346
98633.3
98919
99202.6
99482.6
99758.3
100031
100303
100579
100864
101157
101455
101752
102042
102323
102597
102863
103120
103370
103608
103837
104052
104253
104439
104612
104767
104914
105042
105155
105258
105344
105410
105462
105488
105491
105490
105455
105401
105345
105257
105141
105000
104837
104653
104436
104197
103944
103681
103410
103133
102856
102585
102327
102095
101876
101689
101534
101412
101324
101259
101244
101275
101329
101438
101609
101812
102036
102300
102614
102961
103331
103746
104187