/*--------------------------------*- C++ -*----------------------------------*\
| =========                 |                                                 |
| \\      /  F ield         | OpenFOAM: The Open Source CFD Toolbox           |
|  \\    /   O peration     | Version:  dev                                   |
|   \\  /    A nd           | Web:      http://www.openfoam.org               |
|    \\/     M anipulation  |                                                 |
\*---------------------------------------------------------------------------*/
FoamFile
{
    version     2.0;
    format      ascii;
    class       volScalarField;
    object      p_0;
    location    "9.139";
}
// * * * * * * * * * * * * * * * * * * * * * * * * * * * * * * * * * * * * * //

dimensions      [1 -1 -2 0 0 0 0];

internalField   nonuniform List<scalar> 
12225
(
96021.9
95957.6
95846.6
95704.3
95519.9
95319.9
95091.7
94865.4
94619.2
94378.3
94116
93874.4
93601
93348.8
93066.5
92753.6
92384.7
91927.9
96025.7
95964.2
95854.3
95711
95527.4
95327.7
95099.3
94873
94627
94387.5
94123.3
93883.6
93609.3
93353.2
93066.8
92754.5
92405.5
91958.4
96041.6
95980.3
95871.4
95727.3
95544.6
95344.1
95118.1
94890.8
94644.2
94408.7
94140.5
93906.2
93629.4
93369.9
93079.1
92772.9
92468.8
92036.2
96071.8
96008.4
95900.5
95755.8
95574
95373.4
95149.9
94921.6
94678.2
94437.9
94178.6
93936.3
93666.8
93406.5
93109.5
92829.5
92499.6
92095.2
96114.6
96052.1
95945
95800.2
95619.7
95419.2
95198.3
94969.4
94728.9
94486.6
94235
93987.7
93725.8
93471.3
93178.4
92897.4
92566.9
92238.3
96175.3
96116
96009.1
95865.1
95685.3
95485.9
95267.5
95036.8
94799.5
94559.5
94312.2
94066.4
93806.9
93570.5
93288.5
93004.8
92695.7
92415.8
96260.4
96204.5
96097.9
95954.9
95776.8
95578.3
95361.8
95133.9
94897.7
94660.7
94416.8
94179.6
93926.3
93685
93434.2
93181
92905
92650
96359.1
96304.5
96199.2
96057.9
95881.6
95684.4
95468.9
95244.8
95011.4
94775.5
94535.9
94301.1
94057
93816.9
93583.8
93363.5
93112.4
92818
96464.3
96412.7
96309.4
96169.7
95995.2
95799.4
95585.9
95363.2
95133.4
94899.6
94664.4
94431.9
94194.1
93960.9
93740
93524
93301.8
93004.7
96604
96556.7
96456.4
96318.1
96146.1
95952.6
95742.3
95521.9
95295.1
95064.4
94833.6
94604.9
94375.6
94148.5
93938.8
93721.4
93521.8
93257.8
96790.1
96749
96652.4
96516.1
96347.2
96156.4
95949.8
95733.5
95509.9
95283.2
95057.5
94833.1
94612.8
94393.3
94193.1
93976.4
93795.4
93568.8
97046.5
97005.8
96913.2
96779.4
96614.4
96426.9
96224.8
96012.4
95794
95572.8
95352.9
95133.5
94922
94710.5
94512.3
94310.2
94137
93948.2
97388.5
97348.5
97258.9
97128.6
96968.1
96785.2
96588.2
96381.1
96168.7
95954.2
95740.4
95528.7
95324.2
95121.8
94929.7
94742.8
94569.8
94403.3
97842.5
97801.1
97714.2
97588.2
97433.3
97256.5
97065.9
96865.5
96660.2
96453.1
96246.8
96043.6
95846.1
95653.3
95468.8
95292.1
95125.9
94969.8
98423.1
98390
98308.5
98188.7
98040.8
97871.6
97688.7
97496.5
97299.6
97100.9
96903.3
96708.8
96519.3
96335.2
96158.4
95989.8
95830.6
95681
99179.6
99151.3
99075.3
98962.8
98823.5
98663.8
98490.7
98308.4
98121.4
97932.4
97744.2
97558.6
97377.2
97201.1
97031.4
96869.1
96715
96569.4
100152
100119
100046
99942.1
99813.1
99665.1
99503.7
99333.3
99157.7
98979.5
98801.3
98624.8
98451.5
98282.3
98118.2
97960.1
97808.7
97664.6
101238
101216
101151
101056
100938
100803
100655
100498
100334
100168
99999.4
99831.4
99665.1
99501.4
99341.1
99185
99034.1
98888.8
102297
102262
102200
102115
102009
101886
101751
101606
101455
101298
101139
100978
100817
100657
100499
100343
100191
100043
103153
103140
103090
103015
102920
102810
102687
102553
102411
102263
102111
101956
101799
101642
101485
101328
101174
101023
103875
103861
103819
103754
103670
103570
103457
103332
103199
103059
102913
102762
102609
102453
102296
102139
101983
101830
104435
104433
104399
104342
104267
104176
104071
103955
103829
103695
103554
103407
103256
103102
102945
102788
102630
102474
104875
104876
104849
104799
104731
104647
104549
104439
104318
104189
104052
103908
103759
103606
103450
103291
103132
102973
105202
105211
105188
105143
105080
105002
104909
104804
104688
104563
104429
104287
104140
103987
103831
103672
103512
103352
105446
105456
105436
105395
105336
105262
105174
105072
104960
104837
104705
104565
104419
104267
104111
103952
103791
103629
105624
105631
105612
105573
105517
105446
105361
105262
105152
105031
104901
104763
104617
104466
104310
104150
103989
103826
105744
105750
105730
105693
105640
105571
105487
105391
105282
105163
105034
104896
104751
104600
104444
104284
104122
103959
105823
105825
105805
105769
105717
105649
105567
105472
105364
105246
105117
104980
104836
104685
104529
104369
104207
104044
105867
105864
105846
105811
105760
105693
105612
105517
105410
105292
105164
105027
104883
104732
104576
104417
104255
104091
105891
105883
105863
105828
105778
105711
105630
105536
105429
105311
105184
105047
104903
104752
104596
104437
104274
104111
89129.8
89134.2
89143.2
89157.2
89178.1
89202.1
89231
89264.5
89302.9
89346.1
89394.2
89447.3
89505.6
89569
89637.5
89711.7
89791.4
89876.7
89968.1
90065.4
90168.7
90278
90393
90513.6
90640.3
90771.7
90907.6
91049.3
91195.8
91346.8
91503.1
91665
91831.4
92002.2
92176
92350.8
92528.1
92709.4
92892.4
93074.3
93254.8
93434.5
93613.9
93793.2
93972.7
94151.5
94329.3
94505.5
94679.7
94851.7
95020.7
95186.6
95348.8
95507.3
95661.5
95811.3
95956.5
96097.1
96233
96364.1
96490.3
96611.7
96728.2
96840
96947.4
97051
97151
97247.8
97341.8
97433.3
97522.7
97610.5
97696.8
97781.8
97865.6
97948.2
98029.7
98109.8
98188.1
98264.2
98337.2
98406.1
98470
98527.5
98577.1
98617.1
98645.7
98660.5
98660
98642.3
98606.9
98551.7
98474.3
98373
98246.4
98094.2
97915.6
97710.1
97478.3
97221.9
96942
96642.2
96327.1
95998.9
95663.8
95326.6
94986.5
94642.3
94300.9
93976.8
93674.4
93389.4
93121.9
92873.6
92646.8
92446
92272
92125.7
92004
91906.1
91834
91786.7
91761.9
91758.8
91777.6
91820.6
91891.6
91994
92124.9
92266.6
92416.2
92592.5
92771.8
92979.4
93239.3
93553
93919.1
94321.2
94761.4
95163.8
95521.5
95885.8
96275.4
96678.3
97094.7
97516
97911.3
98277.5
98630.6
98953.5
99236.5
99469.5
99621.2
99714.9
99757.5
99746.4
99714.7
99682.9
99617.8
99528.7
99361.1
99179.3
98903.9
98528.1
98111.6
97710.7
97290.5
96748
96090.3
95463.6
94952.1
94585.4
94327.7
94148.4
94038.5
93991
94003.1
94082.1
94247
94514.5
89118
89122.3
89131.6
89145.9
89165.3
89189.4
89218.2
89251.8
89290.1
89333.3
89381.5
89434.6
89492.7
89556
89624.5
89698.4
89778.1
89863.3
89954.6
90051.8
90154.9
90264.3
90379.3
90499.8
90626.4
90757.9
90893.9
91035.7
91183.3
91335.5
91491.9
91652.7
91818.4
91990.7
92167.6
92343.3
92517.4
92696.1
92879.8
93064.1
93246
93425.2
93603.6
93782.8
93962.6
94142.2
94320.6
94497.4
94672.2
94844.6
95014.2
95180.5
95343.3
95502.3
95657.3
95808
95954
96095.4
96232.3
96364.5
96491.9
96614.4
96732
96844.9
96953.7
97058.8
97160.3
97258.6
97354
97447.1
97538.2
97627.6
97715.6
97802.2
97887.7
97972
98055.2
98136.9
98216.8
98294.4
98368.9
98439.2
98504.4
98563.1
98613.9
98655.4
98685.6
98702.6
98704.4
98689
98655.7
98602.3
98526.8
98427.1
98302.4
98152.2
97975.5
97772.1
97542.6
97287.7
97008.6
96708.9
96395.2
96069.8
95733.9
95396.2
95059.6
94717.8
94375.9
94051.5
93750.3
93465.7
93197.7
92948.9
92721.9
92521.9
92353.5
92207.9
92087.4
91989
91916.8
91870.5
91846.2
91844.5
91865.9
91911.3
91982.4
92081.9
92208.5
92351.8
92507.8
92683.9
92867.1
93078.7
93342.7
93661.8
94034.1
94443.5
94891.8
95298.5
95650
96013.8
96410.1
96816.5
97236
97668.5
98066.7
98430.9
98791.8
99121.4
99410.8
99651.4
99800.5
99895.6
99940
99923.8
99891.1
99865.9
99798.6
99719.3
99540.6
99364
99090.4
98681.2
98277.1
97852
97439.9
96945.3
96253.2
95616.4
95097.3
94732.7
94474.5
94290.5
94174.3
94120.1
94124.9
94195.8
94349.2
94600.3
89095.8
89100.2
89109.4
89123.3
89142.2
89165.8
89194.3
89227.6
89265.8
89308.9
89356.8
89409.8
89467.5
89530.3
89598.5
89672.1
89751.6
89836.7
89928
90025.5
90128.8
90238.3
90353.7
90473.6
90599.7
90732.6
90870.6
91012.9
91160.4
91313.5
91471.7
91633.6
91799.7
91970.8
92145.4
92322.7
92501.5
92679.5
92857.5
93037.6
93219.1
93400.7
93582.1
93763.2
93944
94124.2
94303.3
94481
94656.7
94830.1
95000.7
95168.2
95332.2
95492.6
95649
95801.2
95948.9
96092.2
96231
96365.3
96494.9
96619.7
96739.7
96854.9
96966.4
97074.4
97178.8
97279.9
97378.3
97474.4
97568.5
97661.1
97752.2
97842.1
97930.8
98018.4
98104.8
98189.7
98272.6
98352.9
98430
98502.8
98570.3
98631.4
98684.7
98728.8
98762.3
98783.4
98789.9
98779.8
98751.4
98702.6
98631.4
98535.7
98414.6
98267.9
98094.9
97894.8
97669.5
97419.5
97143.9
96845.4
96532.5
96209.6
95877.1
95541.7
95206.9
94867.6
94530.5
94211.2
93910.1
93623.5
93353.3
93101.2
92874.3
92675.1
92508.2
92366.3
92248.6
92152.4
92081.2
92034.3
92010.8
92013.6
92039.9
92089.7
92160
92252
92373
92520.3
92685.7
92863.7
93053.5
93276.3
93552
93883.8
94270.8
94689.1
95128.8
95545.5
95900.5
96272.4
96685.7
97099.5
97523.3
97977.6
98384
98747.2
99126.4
99468.2
99771.4
100029
100174
100274
100324
100298
100263
100251
100182
100134
99917.1
99738.9
99460.8
99005.8
98620.1
98141.4
97714.4
97318.9
96601.7
95941.3
95414.1
95053.2
94788.4
94587.1
94453.2
94382.1
94369.9
94423.2
94554.3
94780.5
89063.6
89068.1
89077.1
89090.7
89109.1
89132.3
89160.4
89193.3
89231.1
89273.7
89321.1
89373.2
89430.2
89492.3
89559.9
89633.1
89712.2
89797.8
89889.4
89987.2
90091.3
90201.5
90318.1
90440.1
90566.1
90697.2
90835.1
90980.4
91129.9
91282.6
91439.9
91603.3
91773.6
91947.9
92120.5
92291.5
92465.8
92644
92823.8
93004.7
93186.6
93369.1
93551.9
93734.5
93916.7
94098.2
94278.6
94457.4
94634.3
94809.4
94981.7
95150.9
95316.8
95479.1
95637.6
95792
95942.1
96087.8
96229.3
96366.3
96498.9
96626.9
96750.5
96870.1
96985.6
97097.5
97206
97311.2
97413.9
97514.4
97612.9
97710
97805.8
97900.5
97994.2
98086.7
98177.8
98267.2
98354.3
98438.8
98519.8
98596.5
98667.7
98732.4
98789.5
98837.3
98875.1
98901.6
98914.2
98910.7
98888.5
98846.2
98781.3
98692.1
98576.8
98435.4
98267.3
98071.4
97849.2
97604.1
97335.9
97043.8
96735.2
96417.4
96089.6
95757.5
95425.7
95090.7
94759.5
94444.3
94144.2
93857.8
93588.6
93331.5
93107.6
92911.3
92745.2
92604.6
92487
92394.8
92324.2
92277.3
92259.1
92268.6
92296.7
92350.1
92421
92507.8
92628.5
92778
92953.1
93138.6
93335
93571.9
93865.3
94222.5
94630.2
95028.8
95429.6
95861.5
96245.8
96647.9
97095.6
97523.8
97950
98427.8
98851.3
99220.4
99623.8
99978.5
100292
100574
100731
100846
100908
100874
100824
100812
100741
100774
100486
100286
100036
99574.2
99230.5
98682.8
98157.8
97829.3
97129.8
96436.2
95907.2
95545.6
95264.1
95034.6
94871.4
94773.5
94735
94761.1
94860.8
95057.8
89022.3
89026.7
89035.6
89049.1
89067.2
89090
89117.6
89150
89187.1
89228.9
89275.5
89326.7
89382.5
89443.5
89510.4
89583.3
89662.5
89748.2
89840.2
89938.7
90043.3
90153
90269.3
90392.9
90522.5
90656.4
90794.7
90938
91086.9
91242
91404.2
91570.3
91736.7
91904.8
92075.9
92248.4
92423
92600.5
92780.4
92962.2
93145
93329.2
93513.7
93698.3
93882.4
94065.8
94248.2
94429.1
94608.1
94784.7
94958.8
95130
95298
95462.8
95623.9
95781.1
95934.4
96083.5
96228.3
96369
96505.5
96637.9
96766.3
96890.6
97011.1
97128.1
97241.9
97352.6
97460.8
97567
97671.4
97774.6
97876.7
97977.8
98078
98177
98274.5
98370.1
98463.3
98553.5
98640.3
98722.6
98799.4
98869.1
98931.1
98983.8
99026.4
99058.3
99077.7
99081.4
99065.9
99030.5
98972.8
98891.3
98784
98650.5
98489.8
98300
98082.3
97840.4
97577.6
97294.1
96993.1
96680.5
96359.4
96035.3
95709.8
95381.5
95059.4
94751.1
94453.5
94167.1
93899.6
93647.3
93420.7
93227.1
93062.7
92923
92807.3
92715.2
92646.6
92603.9
92593.7
92606.1
92637.6
92697.8
92772.1
92857.8
92977.1
93125.7
93306.1
93499.4
93715.7
93968.7
94287
94677.4
95077.1
95437
95821.7
96260.1
96685.9
97132.5
97629
98079.7
98503.2
98995.6
99458.3
99840.4
100262
100635
100941
101235
101436
101579
101668
101648
101575
101527
101444
101498
101241
100987
100811
100396
99994.2
99444.4
98819.6
98458.8
97830.3
97097.5
96564.4
96191.3
95884.6
95621.3
95419.8
95285.6
95212.6
95202.6
95264.6
95427.4
88973.6
88978
88986.8
89000.1
89018
89040.5
89067.6
89099.3
89135.7
89177
89222.8
89273.1
89328.2
89388.7
89455.4
89528.5
89607.6
89693.2
89785.4
89884
89988.6
90100.2
90217.5
90340.5
90468.8
90602.2
90741.9
90888.1
91040.1
91196.5
91356.3
91518.9
91683.9
91851.2
92021.4
92194.2
92369.7
92547.9
92728.5
92910.8
93094.4
93282.5
93468.4
93654.6
93840.9
94026.7
94211.5
94394.8
94576.2
94755.4
94932.1
95106.1
95277
95444.7
95609.1
95769.8
95926.9
96080
96229.2
96374.4
96515.8
96653.3
96787
96917.1
97043.6
97166.7
97286.7
97404
97519
97632.4
97744.4
97855.3
97965.2
98074
98181.9
98288.7
98393.9
98497.1
98598
98695.7
98789.6
98879
98962.9
99039.9
99108.8
99168
99215.9
99251.9
99276.6
99287.8
99280.4
99253.1
99204.5
99133
99036
98912.4
98760.1
98576.4
98365
98129.7
97872.6
97596.6
97304.7
96998.7
96683.2
96367.4
96051.3
95735
95424.3
95125.2
94827.4
94550.4
94287.7
94037.6
93810.4
93613.4
93448.2
93312.3
93199.6
93110.7
93045.4
93006.7
92997.6
93012.5
93054
93122.9
93208.1
93302.3
93416.2
93564.6
93747
93949
94194.2
94469
94812.1
95206.9
95587.3
95942.9
96353.7
96786.1
97241.9
97735.1
98276.8
98755.1
99173.9
99652.4
100172
100596
101029
101436
101731
102002
102267
102443
102559
102588
102508
102401
102333
102228
102093
101841
101685
101345
100888
100346
99682.8
99228.5
98677.5
97914.5
97369.9
96975.4
96637
96336.2
96089.4
95909.7
95794.7
95742.7
95763.9
95886.2
88920
88924.3
88933.1
88946.3
88963.9
88986.1
89012.8
89044.1
89079.9
89120.7
89166.3
89216.3
89271.2
89331.8
89398.9
89472.6
89552.7
89638.7
89730.3
89828.1
89932.5
90042.7
90159.2
90282
90410.9
90545.8
90686.7
90833.1
90984
91138.7
91296.7
91457.7
91621.8
91789
91959.4
92132.7
92309.1
92488.3
92670.1
92854.3
93040.2
93227.9
93416.1
93604.7
93793.5
93981.9
94169.5
94355.8
94540.3
94722.7
94902.7
95080
95254.3
95425.7
95593.9
95758.9
95920.3
96078.2
96232.4
96383
96529.9
96673.3
96813.2
96949.8
97083
97213.2
97340.8
97466.2
97589.6
97711.8
97832.9
97952.8
98071.7
98189.7
98306.7
98422.5
98536.7
98648.5
98758
98864.3
98966.5
99064
99155.6
99240.4
99317.3
99385.7
99442
99484.4
99512.9
99529.2
99529.9
99511.8
99473.6
99413.2
99327.3
99213.7
99069.8
98892.7
98688.3
98464.5
98219.9
97954.2
97671.2
97374.5
97067.8
96759.3
96453.4
96148.9
95847.8
95552.4
95264.7
94991.5
94733.2
94490.9
94270.8
94074.7
93906.3
93769.3
93658.7
93575.7
93514.6
93477.4
93466.6
93486.8
93536.1
93603.3
93698.4
93819.3
93947.4
94096.8
94282.8
94498.6
94761.8
95055.6
95415.4
95785.6
96174.3
96567.8
96980.2
97412.5
97894.3
98451.6
99017.4
99519.7
99957.6
100394
100938
101437
101899
102357
102688
102902
103209
103432
103554
103646
103599
103447
103384
103069
103077
102866
102674
102387
101918
101383
100718
100178
99626.4
98877.7
98309.5
97883.2
97507.3
97167.6
96872.1
96638.7
96474.1
96375.7
96353.5
96428.7
88864.7
88868.9
88877.6
88890.6
88908.1
88930.1
88956.5
88987.4
89022.9
89063.4
89108.9
89159
89213.9
89274.5
89341.6
89415.4
89495.7
89581.9
89673.5
89771.2
89874.5
89984.1
90100
90222.2
90351
90485.8
90625.9
90770.8
90920.1
91073.2
91229.9
91390.1
91553.8
91721
91891.8
92066.1
92243.6
92424.4
92607.9
92793.7
92981.6
93170.8
93360.8
93551.5
93742.5
93933.3
94123.4
94312.5
94500.1
94686
94869.7
95051.3
95230.3
95406.5
95579.7
95749.5
95915.8
96078.6
96238.3
96395
96548.4
96698.6
96845.7
96989.8
97131.2
97270
97406.6
97541.2
97674.3
97806.4
97937.6
98067.8
98197.2
98325.8
98453.3
98579.5
98703.9
98825.9
98944.9
99060.5
99171.7
99278
99377.9
99470.6
99554.6
99630.2
99696.2
99749.4
99786.3
99807.8
99814.8
99804.7
99775.1
99723.7
99648.7
99547.5
99417.2
99253.5
99060.5
98849.4
98618.6
98365.8
98093.7
97807.1
97511.1
97211.8
96914.9
96619.4
96325.6
96033.1
95751
95481.2
95228.3
94995
94784.2
94593
94426.3
94289.4
94179.4
94098.9
94039.2
94002.8
93994.4
94019.4
94072.8
94136.7
94237.4
94380.4
94542.9
94709.1
94896.4
95128.1
95406.6
95717.4
96075.9
96442
96845.5
97262.5
97660.6
98121.8
98635.7
99253.3
99814.9
100319
100806
101247
101766
102332
102837
103324
103743
103934
104234
104503
104644
104779
104798
104640
104543
104275
104284
104088
103877
103596
103084
102514
101849
101248
100679
99951.8
99361.8
98894.8
98476.4
98098.2
97752.8
97461.5
97239
97088.2
97019.4
97039.2
88810.9
88814.9
88823.4
88836.4
88853.8
88875.6
88901.8
88932.5
88967.9
89008.2
89053.5
89103.8
89158.9
89219.4
89285.9
89358.9
89438.3
89523.8
89615.2
89711.8
89815
89924.3
90039.6
90161
90289.4
90422.9
90561.1
90704.2
90851.8
91003.5
91159.2
91318.9
91482.5
91650.2
91821.9
91997.4
92176.4
92358.8
92544
92731.5
92921
93112.1
93303.5
93495.9
93688.7
93881.7
94074.5
94266.6
94457.7
94647.3
94835.2
95021.1
95204.9
95386.1
95564.7
95740.3
95912.9
96082.5
96249
96412.7
96573.4
96731.1
96886.4
97039.2
97189.9
97338.3
97484.8
97629.8
97773.5
97916.5
98058.7
98200.2
98341
98481.3
98620.4
98758.1
98894
99027.3
99157.3
99283.4
99404.6
99520.5
99629.3
99731.3
99824
99905.7
99978.2
100041
100090
100121
100134
100130
100108
100065
100001
99913.7
99802.3
99658.7
99482.8
99285
99065
98823.5
98563.6
98290.2
98006
97716.8
97425.8
97136.7
96847.7
96561.7
96285.2
96021.7
95776.7
95550.5
95345.4
95158.9
94995.6
94857
94743.6
94658.2
94598.8
94566.6
94565.5
94594.6
94654.1
94727
94832.7
94974.5
95164
95370.1
95571.4
95818.4
96116.7
96456.3
96803.5
97184.7
97589.4
97999.8
98408.7
98919.6
99482.4
100101
100654
101142
101666
102181
102712
103297
103844
104310
104799
105034
105345
105597
105785
105944
106048
105930
105811
105617
105544
105340
105121
104845
104314
103727
103077
102432
101821
101111
100501
99986.3
99520.7
99102.2
98706.4
98356
98068.8
97860.6
97740.7
97699.7
88761.8
88765.8
88774.3
88787.1
88804.4
88826.1
88852.1
88882.7
88918
88958
89003.1
89053.2
89108.4
89168.8
89234.9
89307
89384.9
89468.7
89559.9
89656.2
89758.6
89866.8
89981
90101.3
90227.5
90359.2
90495.8
90637.2
90783
90933.2
91087.8
91247
91410.8
91579.2
91751.9
91928.7
92109.1
92292.9
92479.4
92668.3
92859
93051
93245
93439.6
93634.8
93830.2
94025.7
94220.8
94415.5
94609.2
94801.6
94992.2
95180.9
95367.4
95551.6
95733.6
95913.1
96090.1
96264.6
96436.5
96605.7
96772.4
96936.9
97099.4
97259.8
97418.5
97575.7
97731.7
97886.6
98040.7
98194.4
98347.6
98500.4
98652.6
98804
98953.9
99101.9
99247.5
99389.7
99527.7
99660.2
99787.4
99907
100018
100121
100214
100293
100361
100419
100461
100485
100489
100477
100443
100387
100310
100215
100093
99934.7
99750.5
99543.4
99315.8
99070.9
98812.9
98541.9
98261.5
97976.2
97691.8
97410.8
97131.3
96860.7
96604.1
96366.8
96145.9
95943
95758.5
95597.5
95455.5
95338.1
95248.1
95193.6
95171
95179.2
95215.2
95279.8
95368.1
95475.2
95607.7
95790.2
96029.6
96280.5
96545.7
96861.2
97235.8
97598.1
97971.7
98371.3
98804.6
99256.4
99780.9
100386
100977
101532
102025
102558
103153
103725
104314
104880
105325
105811
106147
106514
106705
106928
107085
107263
107264
107156
106982
106810
106550
106313
106020
105510
104972
104367
103673
103019
102329
101701
101130
100611
100148
99701.8
99291.8
98940.2
98675
98496.5
98396.5
88721.5
88725.2
88733.5
88746
88763
88784.6
88810.6
88841
88876
88915.8
88960.3
89010.1
89065.2
89125.5
89191.2
89262.6
89339.7
89422.8
89512
89606.8
89707.4
89813.9
89926.5
90044.9
90168.9
90298.1
90432.3
90571.4
90715.4
90864.3
91018.3
91177.5
91341.8
91510.9
91684.3
91862.1
92043.8
92228.8
92416.7
92606.9
92799
92992.9
93188.4
93385.1
93582.7
93780.9
93979.3
94177.7
94375.8
94573.7
94771
94967.2
95161.6
95353.7
95543.5
95731.7
95918.5
96103.7
96286.9
96467.8
96646.5
96823.2
96997.8
97170.6
97341.5
97510.6
97678.3
97844.8
98010.6
98176.1
98341.4
98506.7
98671.9
98836.4
99000.2
99162.5
99323.5
99481.8
99636.9
99787.9
99933.4
100073
100205
100328
100441
100544
100635
100711
100773
100821
100856
100872
100869
100846
100801
100733
100650
100549
100408
100237
100045
99833.9
99605
99361.3
99104
98832.4
98556.2
98273.7
97999.1
97726.1
97461
97212.3
96983
96767.9
96565.2
96380.8
96220.1
96076.4
95960.5
95872.2
95825.2
95809
95821.9
95863.7
95934.3
96038.1
96151.9
96291.9
96452.1
96697.9
97000.7
97295
97634.3
98032.8
98421.4
98799.2
99181.8
99649.2
100156
100679
101291
101873
102426
102972
103549
104186
104762
105345
105868
106337
106763
107225
107597
107803
108041
108189
108387
108547
108498
108394
108179
107842
107603
107256
106748
106248
105657
104925
104247
103579
102933
102296
101715
101207
100710
100243
99832.1
99521
99268.3
99098.2
88694.3
88697.5
88705.4
88717.4
88733.8
88754.9
88780.3
88810.1
88844.8
88884.4
88929
88978.6
89033.3
89092.9
89157.5
89227.5
89303.2
89384.6
89471.8
89564.8
89663.5
89768.1
89878.4
89994.3
90115.6
90242.1
90373.8
90510.7
90653
90800.7
90954.2
91113.2
91277.6
91447.4
91620.4
91799.6
91982.6
92168.7
92357.6
92549
92742.4
92937.8
93134.9
93333.6
93533.7
93734.9
93936.8
94139.1
94341.2
94543.3
94745.3
94946.9
95147.5
95346.4
95543.2
95738.1
95932
96125.2
96317.2
96507.7
96696.8
96883.9
97068.9
97252
97432.9
97611.9
97789.4
97966.4
98143.1
98320.5
98498.4
98676.9
98855.6
99033.5
99210.8
99386.3
99560
99731.1
99898.9
100062
100220
100372
100516
100652
100778
100893
100995
101083
101153
101206
101246
101269
101275
101265
101235
101178
101104
101021
100897
100738
100563
100367
100153
99923.3
99679.7
99417.3
99152.7
98879.8
98599.2
98332.8
98072.9
97832.2
97606.9
97396
97195.7
97013
96851.4
96708.8
96597.2
96513
96471
96452.4
96467.8
96509.5
96578
96690.6
96833.8
96995.9
97180.1
97413.7
97725.3
98054.1
98418.2
98837.1
99252.8
99658.7
100045
100501
101050
101597
102189
102760
103314
103931
104609
105248
105809
106381
106835
107331
107700
108241
108561
108833
109104
109292
109459
109722
109746
109752
109573
109208
108934
108542
108047
107553
106948
106181
105479
104830
104161
103451
102807
102246
101702
101184
100716
100367
100028
99769.3
88685.3
88688
88695.7
88707
88722.1
88741.6
88765.6
88793.9
88827
88865.2
88908.7
88956.9
89010.7
89069.7
89133.7
89202.9
89277.1
89356.7
89441.9
89532.8
89629.2
89731.3
89839
89951.9
90070.3
90193.9
90323.1
90458
90598.7
90745.5
90898.3
91056.9
91221.1
91390.7
91565.3
91744.3
91927.2
92113.7
92303.3
92495.6
92690.6
92887.6
93086.7
93287.7
93490.5
93694.7
93900
94106.2
94313
94520
94727.2
94934.4
95141.1
95346.7
95550.8
95753.8
95956.3
96157.4
96357.9
96557.9
96756.8
96954.4
97149.8
97342.4
97532.6
97721.1
97908.7
98097
98286.1
98476.8
98668.9
98861.8
99055.2
99247.9
99439.3
99628.9
99815.5
99998.7
100178
100353
100522
100685
100840
100985
101122
101248
101362
101462
101545
101607
101653
101683
101695
101693
101676
101633
101564
101492
101391
101245
101083
100903
100702
100485
100257
100006
99747.1
99503.1
99205.3
98938.7
98682.8
98444.7
98219.8
98011.6
97815.3
97636.3
97475.8
97338.7
97231.9
97148.3
97114.4
97090
97107.6
97153.9
97219.9
97323.6
97491.5
97679.8
97895.6
98141.5
98444.6
98798.8
99177.9
99617.5
100055
100473
100896
101361
101950
102529
103092
103640
104194
104837
105582
106221
106774
107337
107781
108266
108638
109183
109478
109775
110096
110377
110528
110802
110871
110936
110829
110506
110185
109739
109287
108808
108178
107391
106675
106046
105346
104562
103859
103247
102651
102083
101572
101184
100758
100419
88700.2
88702.4
88709.3
88719.1
88732.2
88750.1
88772.6
88799.8
88831.4
88868
88909.1
88954.3
89005.8
89062
89123.6
89190.8
89263.5
89341.5
89424.8
89513.4
89607.4
89706.8
89811.5
89921.5
90036.9
90157.9
90284.6
90417.4
90556.5
90701.8
90853.5
91011.3
91174.8
91344
91518.3
91697.1
91880
92066.9
92257.5
92450.9
92646.9
92845.6
93046.4
93249.4
93454.6
93661.9
93871
94081.4
94292.9
94505
94717.7
94930.7
95143.5
95356.1
95568.3
95779.9
95990.6
96200.7
96410.8
96620.3
96828.7
97035.5
97240.2
97442.2
97642
97840.9
98040.1
98240.7
98443.1
98647.1
98852.8
99059.9
99268.1
99476.3
99682.7
99886.3
100086
100282
100473
100659
100840
101012
101178
101332
101475
101607
101729
101839
101933
102009
102063
102101
102120
102120
102108
102079
102020
101951
101872
101743
101594
101428
101242
101035
100819
100588
100315
100097
99829.2
99539.7
99283.4
99040.8
98814.6
98607.5
98411.6
98235.1
98077
97946.7
97847.3
97767.8
97733.6
97714.4
97725.3
97784
97864.3
97967.7
98125.4
98338.2
98571.4
98838
99153.3
99517.8
99917.8
100364
100805
101230
101683
102197
102826
103419
103965
104511
105066
105674
106399
107042
107593
108140
108603
109057
109485
110012
110354
110643
111016
111385
111560
111783
111893
111953
111886
111657
111343
110869
110448
109959
109307
108521
107808
107197
106449
105597
104840
104192
103542
102935
102383
101949
101456
101046
88744.5
88746.4
88751.8
88759.4
88770.4
88786
88806.3
88831.7
88861.6
88897.1
88938.3
88981.5
89028.6
89081
89138.9
89202.3
89271.2
89345.9
89426
89511.6
89602.6
89698.9
89800.4
89907.3
90019.7
90137.9
90262.2
90392.8
90530
90673.6
90823.6
90979.8
91142.1
91309.8
91482.6
91660
91842.4
92029.3
92220.2
92413.5
92610.3
92810.9
93014.3
93220.2
93428.5
93639
93851.6
94066.1
94282.2
94499.7
94718.2
94937.5
95157.2
95377.1
95596.7
95816.2
96035.9
96255.5
96474.4
96693.4
96911.9
97128.5
97342.4
97554.1
97764.3
97974.4
98185.3
98397.1
98609.9
98824.4
99041.8
99262.4
99485.8
99709.8
99932.7
100151
100365
100574
100777
100974
101165
101347
101521
101685
101836
101974
102098
102211
102312
102399
102463
102509
102538
102543
102529
102510
102464
102394
102330
102221
102082
101927
101754
101561
101351
101142
100881
100636
100408
100129
99865.7
99613.9
99383.9
99174.8
98976.6
98800.9
98646.2
98520.1
98427.6
98349.7
98316.5
98306.2
98309.6
98372.8
98469.5
98590.7
98739.2
98957.2
99216.9
99503.1
99829.3
100208
100621
101062
101505
101957
102430
102974
103598
104177
104725
105295
105872
106452
107106
107735
108281
108818
109296
109718
110199
110716
111109
111433
111857
112266
112466
112629
112787
112841
112758
112629
112341
111881
111483
110966
110312
109553
108844
108239
107430
106530
105716
105039
104349
103719
103104
102588
102086
101585
88825
88826.1
88829.6
88834.8
88843.3
88855.5
88871.5
88892.5
88917.7
88948.9
88981
89022.4
89068.8
89119.9
89175.8
89236.5
89302.3
89373.5
89450.1
89532.1
89619.6
89712.4
89810.5
89914
90023.2
90138.4
90259.9
90388
90522.7
90663.9
90811.8
90966.1
91126.4
91292.2
91463.1
91639.1
91819.6
92004.6
92193.9
92388.5
92586.9
92788.5
92993.5
93201.6
93412.8
93626.9
93843.3
94061.5
94282.1
94504.8
94729.1
94954.9
95181.7
95409.4
95637.3
95865.1
96093.1
96321.7
96550.6
96778.9
97006.6
97233.1
97457.1
97679.3
97900.8
98121.9
98342.6
98562.9
98783
99004.8
99231.2
99463.3
99701.3
99942.3
100183
100418
100646
100868
101083
101291
101491
101682
101861
102032
102190
102336
102465
102581
102681
102772
102845
102896
102933
102949
102938
102917
102881
102813
102749
102662
102533
102389
102226
102046
101844
101640
101415
101150
100932
100670
100410
100152
99916.4
99703.4
99506.2
99334.5
99184.5
99062
98966.2
98888.2
98850.7
98845.6
98856.5
98911.2
99015.2
99153.5
99321.1
99535.8
99812.4
100117
100438
100827
101248
101688
102145
102613
103112
103668
104250
104805
105364
105958
106548
107123
107740
108344
108871
109395
109871
110283
110791
111297
111704
112073
112517
112934
113168
113310
113510
113583
113475
113417
113141
112719
112343
111803
111167
110454
109755
109134
108246
107332
106455
105740
105028
104381
103711
103097
102604
102018
88951.5
88950.8
88951.5
88953.1
88957.5
88964.5
88974.6
88988.6
89006.3
89028.4
89059.7
89097.1
89140.8
89189.1
89241.6
89298.9
89361.1
89428.5
89501.2
89579.3
89662.8
89751.7
89846
89945.9
90051.5
90163.4
90281.8
90406.8
90538.6
90677.1
90822.1
90973.7
91131.6
91295.3
91464.5
91638.8
91817.8
92001.7
92190.8
92384.7
92582.8
92785.1
92990.8
93200.2
93413.9
93630.2
93849
94070.8
94295.7
94523.4
94753.1
94984.9
95218.8
95453.9
95689.8
95926.1
96162.9
96400.1
96638.3
96877.1
97115
97351
97585.3
97818.6
98051.3
98282.4
98511.9
98738.9
98964.4
99192
99425.1
99667.1
99918.4
100175
100432
100682
100924
101157
101383
101603
101812
102013
102198
102372
102533
102683
102816
102936
103037
103124
103202
103258
103295
103318
103314
103288
103258
103195
103121
103051
102936
102799
102644
102472
102284
102075
101869
101627
101389
101147
100894
100638
100399
100180
99983.3
99816.2
99665.5
99538.5
99443
99366.2
99322.1
99319.8
99340.6
99390.9
99491.1
99642.8
99837
100060
100333
100647
100973
101358
101788
102227
102699
103171
103685
104241
104782
105336
105911
106515
107083
107643
108233
108814
109325
109821
110283
110720
111229
111707
112130
112517
112928
113328
113626
113803
114039
114138
114038
114004
113729
113367
112993
112447
111847
111193
110529
109841
108866
107956
107037
106279
105552
104875
104200
103530
102990
102370
89132.8
89130.6
89127.9
89124.4
89123.4
89124.1
89126.5
89133.1
89144.2
89162.1
89185.9
89216.9
89254.2
89297
89344.5
89396.8
89454.1
89516.7
89584.8
89658.2
89737.2
89821.6
89911.6
90007.1
90108.4
90216.6
90331.7
90453.4
90581.8
90717
90858.9
91007.4
91162.2
91323.3
91490.1
91662.6
91840.5
92023.6
92211.6
92404.2
92602.3
92805.4
93011.7
93222.1
93437.6
93655.8
93876.2
94100.9
94329.1
94560
94793.2
95029.5
95269.5
95512
95755.2
95999.2
96244.5
96490.8
96738
96986.5
97235
97481.4
97726.4
97970.6
98213.4
98454.7
98693.5
98928.2
99161.5
99396.9
99638.6
99890.9
100153
100421
100688
100949
101200
101443
101675
101903
102120
102327
102522
102699
102861
103011
103144
103263
103368
103450
103524
103582
103620
103641
103642
103613
103581
103525
103443
103372
103274
103143
102993
102827
102647
102449
102234
102006
101771
101536
101295
101048
100809
100586
100387
100213
100056
99925.6
99830.7
99757.3
99711.6
99711.6
99733.6
99791.3
99881.7
100039
100254
100489
100758
101072
101410
101798
102221
102656
103132
103611
104122
104662
105181
105733
106319
106905
107435
107980
108534
109085
109583
110051
110523
111001
111485
111911
112334
112752
113097
113456
113841
114072
114339
114452
114404
114367
114083
113788
113395
112874
112321
111710
111123
110318
109271
108360
107435
106647
105905
105184
104517
103842
103234
102618
89340.8
89335.6
89328.6
89319.6
89313.9
89308.3
89303.5
89303.7
89308.4
89318.5
89335.1
89359.1
89389.6
89426
89467.5
89514.1
89566.1
89623.5
89686.6
89755.3
89829.8
89910
89995.8
90086
90184
90288.9
90400.6
90518.9
90644.1
90776.2
90915.1
91060.6
91212.8
91371.3
91536
91706.6
91883
92064.9
92252.1
92444.7
92642.5
92845
93051.5
93262.9
93479
93697.9
93919.9
94146.7
94377.2
94610.3
94846.9
95086.6
95329.6
95575.6
95823.9
96074
96325.9
96579.6
96834.5
97090.8