/*--------------------------------*- C++ -*----------------------------------*\
| =========                 |                                                 |
| \\      /  F ield         | OpenFOAM: The Open Source CFD Toolbox           |
|  \\    /   O peration     | Version:  dev                                   |
|   \\  /    A nd           | Web:      http://www.openfoam.org               |
|    \\/     M anipulation  |                                                 |
\*---------------------------------------------------------------------------*/
FoamFile
{
    version     2.0;
    format      ascii;
    class       surfaceScalarField;
    object      phi;
    location    "9.139";
}
// * * * * * * * * * * * * * * * * * * * * * * * * * * * * * * * * * * * * * //

dimensions      [1 0 -1 0 0 0 0];

internalField   nonuniform List<scalar> 
24170
(
2.07369e-06
1.03016e-06
1.11268e-06
6.71614e-07
6.57378e-07
1.66004e-07
4.06814e-07
-3.92377e-08
2.63102e-07
-1.46371e-07
2.66408e-07
-2.96899e-07
3.61357e-08
-5.91522e-08
2.02098e-07
-4.59114e-07
2.49267e-08
-1.06473e-07
2.09725e-07
-4.61896e-07
1.36791e-07
-1.94593e-07
5.79347e-07
-7.0136e-07
8.08567e-07
-4.7003e-07
1.67964e-06
-1.11039e-06
2.64457e-06
-1.18581e-06
6.47214e-06
-4.02739e-06
9.40897e-06
-3.11606e-06
4.4107e-06
4.85347e-06
3.71258e-06
8.03291e-07
2.86643e-06
1.20682e-06
2.1614e-06
5.55761e-07
1.54031e-06
2.63425e-07
1.18688e-06
-1.13493e-07
8.23263e-07
-2.57779e-07
5.91022e-07
-1.48621e-07
4.71162e-07
-6.66054e-07
1.304e-07
-8.44957e-08
2.08149e-07
-8.50422e-07
8.42512e-08
-3.75118e-07
4.11145e-07
-1.32281e-06
4.40796e-07
-7.79012e-07
1.25727e-06
-2.20229e-06
2.85689e-06
-3.04429e-06
4.91501e-06
-6.32229e-06
3.87538e-06
-2.28683e-06
5.87093e-06
2.22667e-06
4.58651e-06
8.09278e-08
4.13517e-06
1.31633e-06
3.74645e-06
5.96528e-07
3.12372e-06
5.34212e-07
2.70692e-06
-5.13432e-08
2.1119e-06
-2.08176e-08
2.00561e-06
-3.98819e-07
1.9491e-06
-9.69225e-07
1.62338e-06
-1.12892e-07
1.68241e-06
-1.24956e-06
1.57636e-06
-6.07199e-07
1.92401e-06
-1.99459e-06
1.45047e-06
-6.17795e-07
1.94241e-06
-2.99884e-06
2.33457e-06
-3.72632e-06
2.44626e-06
-6.68994e-06
1.58607e-06
-1.64751e-06
7.28635e-06
-4.94257e-08
4.99115e-06
-5.15448e-07
4.76793e-06
1.16311e-06
4.60782e-06
3.73417e-07
4.21249e-06
5.41143e-07
3.90011e-06
-1.3037e-07
3.57256e-06
-8.79778e-08
3.26498e-06
-4.84929e-07
3.44018e-06
-1.53933e-06
3.02201e-06
-8.42641e-08
3.0538e-06
-1.65884e-06
2.94518e-06
-8.67351e-07
3.53417e-06
-2.94144e-06
3.23051e-06
-6.57936e-07
3.74413e-06
-3.84742e-06
3.30938e-06
-3.6143e-06
3.82411e-06
-7.49033e-06
3.29431e-06
-1.36992e-06
8.59971e-06
1.72758e-06
5.17017e-06
-8.8065e-07
5.76775e-06
1.49844e-07
5.45735e-06
2.62295e-07
5.28052e-06
2.90653e-07
5.10653e-06
-3.88556e-07
4.96316e-06
-3.79064e-07
4.07324e-06
-2.84865e-08
4.40102e-06
-2.30014e-06
4.10176e-06
-2.1268e-07
3.43204e-06
-1.40713e-06
3.26432e-06
-1.10733e-06
3.51699e-06
-3.58706e-06
3.33539e-06
-8.55913e-07
3.10581e-06
-3.9822e-06
3.4569e-06
-4.31374e-06
4.07488e-06
-8.41971e-06
3.43192e-06
-1.00047e-06
9.89312e-06
1.87211e-06
5.79205e-06
-1.20201e-06
6.12293e-06
-6.37169e-07
5.47738e-06
4.46082e-07
6.31533e-06
-1.01893e-06
6.17276e-06
-7.24546e-07
5.60462e-06
-2.89459e-07
4.72688e-06
3.70601e-07
5.13592e-06
-3.18521e-06
4.3779e-06
7.93473e-08
3.55534e-06
-1.04394e-06
3.10364e-06
-1.10522e-06
2.94083e-06
-3.85679e-06
2.99913e-06
-1.33615e-06
1.95874e-06
-3.33559e-06
1.152e-06
-3.88353e-06
3.07637e-07
-7.91223e-06
-1.07609e-06
7.38228e-08
7.1908e-06
1.30452e-06
6.07642e-06
-1.35283e-06
6.1468e-06
-1.20955e-06
5.7882e-06
2.95302e-07
6.10106e-06
-1.8521e-06
5.16232e-06
-3.06849e-07
5.51185e-06
-1.16551e-06
5.16963e-06
1.83982e-07
4.54888e-06
-3.08956e-06
4.70168e-06
-5.88451e-07
4.67549e-06
-1.52169e-06
3.93909e-06
-8.58613e-07
3.15814e-06
-3.54142e-06
2.33517e-06
-9.71853e-07
2.1127e-06
-3.54743e-06
9.2692e-07
-3.10724e-06
-1.20758e-06
-6.15504e-06
-3.0478e-06
1.55154e-06
2.11436e-06
1.67539e-06
4.55873e-06
-1.31123e-06
4.63832e-06
-1.68282e-06
4.58159e-06
-4.69544e-08
4.30704e-06
-1.98272e-06
3.97169e-06
-3.75385e-07
4.10445e-06
-1.70583e-06
3.86402e-06
1.04295e-08
3.68045e-06
-3.31816e-06
4.00595e-06
-1.31779e-06
4.03888e-06
-1.94506e-06
3.9165e-06
-1.11482e-06
3.37032e-06
-3.35727e-06
2.47847e-06
-4.33727e-07
2.28146e-06
-3.68822e-06
1.85499e-06
-3.00302e-06
-1.08111e-07
-4.4893e-06
-5.54123e-07
1.70279e-06
-6.66463e-07
1.94244e-06
5.82105e-06
-1.66579e-06
5.5856e-06
-1.9034e-06
5.31656e-06
-2.44739e-07
5.36736e-06
-2.50321e-06
4.92921e-06
-4.07112e-07
4.69078e-06
-1.93935e-06
4.69828e-06
-4.77821e-07
4.66876e-06
-3.76641e-06
4.69794e-06
-1.81481e-06
4.62441e-06
-2.32508e-06
4.51615e-06
-1.44676e-06
3.82762e-06
-3.09249e-06
3.53043e-06
-5.47853e-07
3.08074e-06
-3.63416e-06
2.22678e-06
-2.51697e-06
9.82059e-07
-3.59527e-06
1.41306e-06
9.30601e-07
-1.78606e-06
2.19113e-06
6.66402e-06
-2.2198e-06
6.59028e-06
-2.35954e-06
6.38988e-06
-5.87712e-07
6.22007e-06
-2.88e-06
5.99842e-06
-7.31742e-07
5.89481e-06
-2.38488e-06
5.9403e-06
-1.07911e-06
5.03923e-06
-3.41526e-06
4.97419e-06
-2.28582e-06
5.10978e-06
-2.98761e-06
4.9382e-06
-1.79153e-06
4.41863e-06
-3.0667e-06
4.42608e-06
-1.02817e-06
3.40939e-06
-3.07572e-06
2.61022e-06
-2.14297e-06
1.74826e-06
-3.13285e-06
2.72024e-06
-4.34038e-07
-1.93187e-06
2.46833e-06
7.80057e-06
-2.8835e-06
7.53047e-06
-2.70946e-06
7.44892e-06
-1.13384e-06
7.06092e-06
-3.12602e-06
7.0312e-06
-1.33798e-06
6.84168e-06
-2.83356e-06
6.51556e-06
-1.39069e-06
5.69492e-06
-3.22687e-06
5.39953e-06
-2.61067e-06
5.17244e-06
-3.36749e-06
5.07167e-06
-2.28297e-06
4.697e-06
-3.25935e-06
4.74413e-06
-1.6203e-06
3.81598e-06
-2.67407e-06
3.0597e-06
-1.87957e-06
2.20646e-06
-2.75292e-06
2.93198e-06
-1.6086e-06
-2.18509e-06
2.73726e-06
9.19888e-06
-3.83288e-06
8.99883e-06
-3.23016e-06
8.79656e-06
-1.65529e-06
8.20256e-06
-3.26218e-06
8.01497e-06
-1.88681e-06
7.51233e-06
-3.06779e-06
7.37845e-06
-1.98871e-06
6.71015e-06
-3.28452e-06
6.25129e-06
-2.86606e-06
5.59731e-06
-3.40896e-06
5.39433e-06
-2.75669e-06
4.77523e-06
-3.2907e-06
4.87401e-06
-2.34249e-06
4.33381e-06
-2.73462e-06
4.11253e-06
-2.23297e-06
3.51309e-06
-2.70806e-06
3.80474e-06
-2.41586e-06
-2.53532e-06
3.65967e-06
1.09515e-05
-4.69898e-06
1.04225e-05
-3.53071e-06
1.02116e-05
-2.27633e-06
9.43742e-06
-3.32619e-06
9.12611e-06
-2.41964e-06
8.47624e-06
-3.26322e-06
8.23919e-06
-2.58871e-06
7.58986e-06
-3.46319e-06
7.19215e-06
-3.28325e-06
6.59523e-06
-3.60529e-06
6.2854e-06
-3.21508e-06
5.64984e-06
-3.39523e-06
5.48799e-06
-2.89082e-06
5.07356e-06
-3.00163e-06
5.0264e-06
-2.83988e-06
4.68812e-06
-2.9959e-06
4.64882e-06
-2.96798e-06
-2.97939e-06
4.53415e-06
1.24988e-05
-5.56385e-06
1.15973e-05
-3.57519e-06
1.1344e-05
-2.97616e-06
1.07027e-05
-3.64199e-06
1.04941e-05
-3.17057e-06
9.82699e-06
-3.5576e-06
9.50902e-06
-3.22019e-06
8.82238e-06
-3.70992e-06
8.31812e-06
-3.6964e-06
7.67259e-06
-3.85297e-06
7.30404e-06
-3.70838e-06
6.7535e-06
-3.67496e-06
6.49297e-06
-3.42838e-06
6.12842e-06
-3.40146e-06
5.9152e-06
-3.35793e-06
5.59225e-06
-3.36933e-06
5.32987e-06
-3.36424e-06
-3.30667e-06
5.03556e-06
1.49314e-05
-7.13671e-06
1.40845e-05
-3.7977e-06
1.34891e-05
-3.45893e-06
1.25249e-05
-3.75871e-06
1.19889e-05
-3.71234e-06
1.12578e-05
-3.90181e-06
1.07712e-05
-3.79282e-06
1.00526e-05
-4.0298e-06
9.46307e-06
-4.12523e-06
8.80911e-06
-4.18778e-06
8.28634e-06
-4.13687e-06
7.80985e-06
-4.11238e-06
7.48729e-06
-3.98141e-06
7.18537e-06
-3.93505e-06
6.90199e-06
-3.87114e-06
6.56261e-06
-3.78613e-06
6.20196e-06
-3.71753e-06
-3.63349e-06
5.8565e-06
1.67417e-05
-7.95599e-06
1.58265e-05
-4.08767e-06
1.50864e-05
-3.92406e-06
1.42357e-05
-4.10578e-06
1.35836e-05
-4.2449e-06
1.28702e-05
-4.36201e-06
1.22996e-05
-4.3723e-06
1.16427e-05
-4.49621e-06
1.0966e-05
-4.54601e-06
1.02485e-05
-4.52969e-06
9.6215e-06
-4.52479e-06
9.02299e-06
-4.4856e-06
8.49648e-06
-4.38022e-06
8.03222e-06
-4.34858e-06
7.60496e-06
-4.27638e-06
7.23328e-06
-4.19931e-06
6.92051e-06
-4.14232e-06
-4.02696e-06
6.62287e-06
1.89902e-05
-8.43829e-06
1.8162e-05
-4.55208e-06
1.73187e-05
-4.38031e-06
1.64429e-05
-4.51574e-06
1.55742e-05
-4.63818e-06
1.46936e-05
-4.71857e-06
1.38612e-05
-4.74038e-06
1.30088e-05
-4.8065e-06
1.21712e-05
-4.83199e-06
1.13947e-05
-4.82609e-06
1.06746e-05
-4.82464e-06
9.99331e-06
-4.77249e-06
9.39664e-06
-4.69592e-06
8.83417e-06
-4.64337e-06
8.33527e-06
-4.58162e-06
7.88328e-06
-4.49723e-06
7.46682e-06
-4.42364e-06
-4.30997e-06
7.10299e-06
1.98194e-05
-8.3816e-06
1.86488e-05
-4.56442e-06
1.76163e-05
-4.51603e-06
1.65915e-05
-4.6348e-06
1.55658e-05
-4.71993e-06
1.45763e-05
-4.79863e-06
1.36436e-05
-4.83203e-06
1.27497e-05
-4.88887e-06
1.19112e-05
-4.91854e-06
1.11521e-05
-4.936e-06
1.04728e-05
-4.95805e-06
9.86451e-06
-4.9201e-06
9.33381e-06
-4.86317e-06
8.8499e-06
-4.80174e-06
8.39689e-06
-4.71684e-06
8.00623e-06
-4.6418e-06
7.64252e-06
-4.54549e-06
-4.43804e-06
7.33309e-06
1.76245e-05
-7.77345e-06
1.65178e-05
-4.34241e-06
1.54612e-05
-4.34547e-06
1.44144e-05
-4.45084e-06
1.34057e-05
-4.52747e-06
1.2463e-05
-4.62964e-06
1.16035e-05
-4.69863e-06
1.08307e-05
-4.78791e-06
1.01305e-05
-4.8352e-06
9.49456e-06
-4.86147e-06
8.90796e-06
-4.87886e-06
8.37767e-06
-4.84344e-06
7.90442e-06
-4.79216e-06
7.43456e-06
-4.68436e-06
7.05247e-06
-4.63966e-06
6.70503e-06
-4.55449e-06
6.38611e-06
-4.44492e-06
-4.33544e-06
6.10474e-06
1.55331e-05
-7.37095e-06
1.45731e-05
-4.06011e-06
1.36768e-05
-4.11602e-06
1.28233e-05
-4.23596e-06
1.2027e-05
-4.31324e-06
1.12576e-05
-4.39829e-06
1.05382e-05
-4.46629e-06
9.87289e-06
-4.55352e-06
9.2385e-06
-4.57867e-06
8.6244e-06
-4.56796e-06
8.0409e-06
-4.56434e-06
7.49097e-06
-4.51225e-06
6.98694e-06
-4.46012e-06
6.55923e-06
-4.38398e-06
6.13917e-06
-4.30738e-06
5.79021e-06
-4.25534e-06
5.50337e-06
-4.17425e-06
-4.05265e-06
5.23599e-06
1.35881e-05
-6.55402e-06
1.27484e-05
-3.74176e-06
1.19043e-05
-3.76996e-06
1.11148e-05
-3.91197e-06
1.04011e-05
-4.00812e-06
9.73828e-06
-4.09702e-06
9.12894e-06
-4.16363e-06
8.55431e-06
-4.2296e-06
8.00693e-06
-4.23159e-06
7.48376e-06
-4.18555e-06
6.98492e-06
-4.15966e-06
6.50817e-06
-4.08363e-06
6.06107e-06
-4.01629e-06
5.6811e-06
-3.97032e-06
5.30491e-06
-3.86147e-06
4.99178e-06
-3.84183e-06
4.72924e-06
-3.78511e-06
-3.67615e-06
4.50706e-06
1.23577e-05
-5.61952e-06
1.15038e-05
-3.29948e-06
1.0779e-05
-3.41168e-06
1.01131e-05
-3.57831e-06
9.47664e-06
-3.65658e-06
8.86047e-06
-3.71154e-06
8.26245e-06
-3.74412e-06
7.66983e-06
-3.76001e-06
7.11301e-06
-3.75064e-06
6.61251e-06
-3.70376e-06
6.15969e-06
-3.67989e-06
5.76997e-06
-3.62755e-06
5.42096e-06
-3.55624e-06
5.10541e-06
-3.51363e-06
4.84787e-06
-3.42958e-06
4.56715e-06
-3.3616e-06
4.32781e-06
-3.32549e-06
-3.21967e-06
4.11393e-06
1.08233e-05
-4.73329e-06
1.01416e-05
-2.9383e-06
9.55017e-06
-3.09147e-06
8.97965e-06
-3.2474e-06
8.38625e-06
-3.26252e-06
7.7866e-06
-3.24827e-06
7.20867e-06
-3.25749e-06
6.64117e-06
-3.22973e-06
6.12205e-06
-3.22004e-06
5.68416e-06
-3.209e-06
5.30721e-06
-3.19698e-06
5.00981e-06
-3.19134e-06
4.77105e-06
-3.13874e-06
4.55696e-06
-3.09009e-06
4.37881e-06
-3.01789e-06
4.21017e-06
-2.93326e-06
4.03448e-06
-2.87608e-06
-2.77248e-06
3.87678e-06
9.49594e-06
-3.95629e-06
8.90884e-06
-2.60121e-06
8.43918e-06
-2.8316e-06
7.97389e-06
-2.9605e-06
7.47134e-06
-2.89644e-06
6.96443e-06
-2.81519e-06
6.43832e-06
-2.76429e-06
5.91996e-06
-2.69745e-06
5.47586e-06
-2.70694e-06
5.0998e-06
-2.72992e-06
4.7827e-06
-2.73141e-06
4.51988e-06
-2.74473e-06
4.29459e-06
-2.70151e-06
4.08518e-06
-2.63535e-06
3.89573e-06
-2.56495e-06
3.71824e-06
-2.46957e-06
3.5414e-06
-2.40014e-06
-2.30995e-06
3.38802e-06
8.62888e-06
-3.24047e-06
8.2731e-06
-2.44248e-06
7.85187e-06
-2.57746e-06
7.33153e-06
-2.57381e-06
6.81852e-06
-2.47452e-06
6.36246e-06
-2.40026e-06
5.92324e-06
-2.32209e-06
5.52267e-06
-2.25156e-06
5.16744e-06
-2.25645e-06
4.82728e-06
-2.25957e-06
4.52089e-06
-2.2581e-06
4.23877e-06
-2.25904e-06
3.98072e-06
-2.21797e-06
3.75168e-06
-2.15163e-06
3.55395e-06
-2.09457e-06
3.38039e-06
-2.00935e-06
3.23955e-06
-1.95604e-06
-1.87819e-06
3.11767e-06
7.80385e-06
-2.62217e-06
7.45132e-06
-2.24984e-06
7.06085e-06
-2.32115e-06
6.58819e-06
-2.20313e-06
6.13676e-06
-2.08437e-06
5.72981e-06
-2.01292e-06
5.36671e-06
-1.93556e-06
5.05075e-06
-1.87131e-06
4.75097e-06
-1.85328e-06
4.45124e-06
-1.81909e-06
4.15989e-06
-1.79424e-06
3.87488e-06
-1.77123e-06
3.6083e-06
-1.72414e-06
3.3737e-06
-1.66969e-06
3.18035e-06
-1.63538e-06
3.02027e-06
-1.57104e-06
2.8869e-06
-1.53117e-06
-1.46775e-06
2.7766e-06
6.841e-06
-2.39996e-06
6.71884e-06
-2.26176e-06
6.40389e-06
-2.11804e-06
5.9952e-06
-1.87603e-06
5.56925e-06
-1.70253e-06
5.14746e-06
-1.59639e-06
4.75375e-06
-1.50903e-06
4.39183e-06
-1.43917e-06
4.0418e-06
-1.39726e-06
3.70641e-06
-1.34509e-06
3.38571e-06
-1.30534e-06
3.08067e-06
-1.27188e-06
2.80818e-06
-1.23529e-06
2.57873e-06
-1.20499e-06
2.36465e-06
-1.17044e-06
2.19224e-06
-1.13505e-06
2.04673e-06
-1.11149e-06
-1.0774e-06
1.93876e-06
6.12548e-06
-2.0388e-06
5.93643e-06
-2.18732e-06
5.53577e-06
-1.81317e-06
5.04486e-06
-1.45351e-06
4.51829e-06
-1.21041e-06
3.98139e-06
-1.05857e-06
3.46488e-06
-9.56185e-07
2.99154e-06
-8.95654e-07
2.54778e-06
-8.51405e-07
2.14425e-06
-8.10067e-07
1.77636e-06
-7.79617e-07
1.44088e-06
-7.55458e-07
1.14475e-06
-7.38214e-07
8.77081e-07
-7.1932e-07
6.44506e-07
-7.0541e-07
4.42878e-07
-6.89372e-07
2.6553e-07
-6.80868e-07
-6.61454e-07
1.09997e-07
5.51384e-06
-1.72495e-06
4.72181e-06
-1.49756e-06
3.81499e-06
-9.87904e-07
2.96802e-06
-6.635e-07
2.20445e-06
-4.73679e-07
1.52459e-06
-3.7373e-07
9.33929e-07
-3.29001e-07
4.15905e-07
-3.1076e-07
-3.2153e-08
-3.07739e-07
-4.14764e-07
-3.05471e-07
-7.45031e-07
-3.03689e-07
-1.03161e-06
-3.02485e-07
-1.28321e-06
-3.02355e-07
-1.50302e-06
-3.00162e-07
-1.69614e-06
-3.00319e-07
-1.86246e-06
-3.00786e-07
-1.99896e-06
-3.13786e-07
-3.17096e-07
-2.10677e-06
3.46109e-06
1.80874e-06
6.96033e-07
-5.98947e-08
-5.92688e-07
-9.94715e-07
-1.32175e-06
-1.60173e-06
-1.85161e-06
-2.07424e-06
-2.2725e-06
-2.44955e-06
-2.609e-06
-2.75125e-06
-2.88092e-06
-3.00053e-06
-3.12474e-06
-3.24516e-06
-4.41923e-07
4.08494e-07
-8.49214e-07
3.68824e-07
-9.60855e-07
7.47848e-08
-7.80113e-07
-2.17617e-07
-3.95623e-07
-4.18492e-07
1.30925e-07
-5.59917e-07
7.48814e-07
-6.49915e-07
1.38143e-06
-6.63267e-07
2.01191e-06
-6.58078e-07
2.64391e-06
-6.58027e-07
3.22476e-06
-6.06323e-07
3.77986e-06
-5.75175e-07
4.37051e-06
-6.06947e-07
4.86891e-06
-5.1355e-07
5.27258e-06
-4.1639e-07
5.67129e-06
-4.04528e-07
5.9141e-06
-2.43135e-07
6.05696e-06
-1.4222e-07
6.14191e-06
-7.4304e-08
6.02387e-06
1.31736e-07
5.79901e-06
2.41999e-07
5.4733e-06
3.55299e-07
4.91406e-06
5.91595e-07
4.32029e-06
6.33856e-07
3.61668e-06
7.52936e-07
2.61575e-06
1.05212e-06
1.76644e-06
9.083e-07
1.2583e-06
5.75549e-07
8.38141e-07
4.9596e-07
5.14073e-07
4.06936e-07
5.02301e-07
1.00169e-07
7.17681e-07
-1.22826e-07
1.01282e-06
-2.00207e-07
1.38169e-06
-2.74558e-07
1.63732e-06
-1.49711e-07
1.70523e-06
5.48069e-08
2.03131e-06
-1.99012e-07
2.72288e-06
-5.9105e-07
3.44648e-06
-6.46769e-07
4.01277e-06
-4.8352e-07
4.44973e-06
-3.42126e-07
4.77059e-06
-2.22182e-07
4.87026e-06
-2.10597e-09
4.72067e-06
2.50887e-07
4.40257e-06
4.26762e-07
4.06021e-06
4.53682e-07
3.77643e-06
3.91427e-07
3.57648e-06
3.00416e-07
3.45613e-06
2.11884e-07
3.39703e-06
1.40453e-07
3.37936e-06
8.73971e-08
3.40952e-06
2.63007e-08
3.47436e-06
-2.31783e-08
3.55871e-06
-5.91354e-08
3.64494e-06
-7.90588e-08
3.74292e-06
-1.10406e-07
3.84881e-06
-1.39512e-07
3.94734e-06
-1.54861e-07
4.0302e-06
-1.63371e-07
4.09127e-06
-1.67407e-07
4.1138e-06
-1.56245e-07
4.10444e-06
-1.53376e-07
4.0439e-06
-1.32524e-07
3.96336e-06
-1.44193e-07
3.84845e-06
-1.41992e-07
3.7424e-06
-1.8354e-07
3.65398e-06
-2.3488e-07
3.56817e-06
-2.72373e-07
3.49216e-06
-3.18472e-07
3.4321e-06
-3.71069e-07
3.40418e-06
-4.39516e-07
3.43489e-06
-5.33747e-07
3.53425e-06
-6.37657e-07
3.71043e-06
-7.49796e-07
3.92504e-06
-8.23751e-07
4.16982e-06
-8.89439e-07
4.44008e-06
-9.49622e-07
4.73085e-06
-1.004e-06
5.06793e-06
-1.08424e-06
5.42979e-06
-1.14327e-06
5.84723e-06
-1.23305e-06
6.35787e-06
-1.35985e-06
6.9946e-06
-1.51888e-06
7.7336e-06
-1.65643e-06
8.56613e-06
-1.79158e-06
9.58873e-06
-2.01895e-06
1.0787e-05
-2.22569e-06
1.1903e-05
-2.20671e-06
1.28153e-05
-2.08868e-06
1.33612e-05
-1.81316e-06
1.39017e-05
-1.89336e-06
1.43919e-05
-1.92223e-06
1.48202e-05
-1.93681e-06
1.51664e-05
-1.9205e-06
1.55729e-05
-2.08209e-06
1.60618e-05
-2.3102e-06
1.65567e-05
-2.45131e-06
1.70477e-05
-2.61111e-06
1.73448e-05
-2.56907e-06
1.72718e-05
-2.26939e-06
1.68851e-05
-2.0444e-06
1.63488e-05
-2.03645e-06
1.54779e-05
-1.85372e-06
1.44064e-05
-1.84748e-06
1.36632e-05
-2.32054e-06
1.29156e-05
-2.27257e-06
1.20437e-05
-2.11592e-06
1.18933e-05
-3.14231e-06
1.22962e-05
-4.24694e-06
1.24623e-05
-4.22727e-06
1.2401e-05
-3.84961e-06
1.21872e-05
-3.60494e-06
1.15775e-05
-3.13084e-06
1.04762e-05
-2.60395e-06
8.89417e-06
-2.19925e-06
6.98982e-06
-1.90102e-06
5.01631e-06
-1.88135e-06
3.03925e-06
-1.93203e-06
1.13001e-06
-2.05454e-06
-6.73226e-07
-2.25101e-06
-2.08522e-06
-2.70251e-06
-2.54055e-06
-3.72519e-06
-2.06273e-06
-4.73264e-06
-1.13233e-06
-5.30556e-06
-3.59425e-07
-5.31338e-06
-3.21792e-07
-4.74229e-06
-6.51751e-07
-4.51578e-06
1.54445e-07
-5.74359e-06
3.63271e-06
-8.51778e-06
7.46943e-06
-9.13894e-06
9.47984e-06
-7.65044e-06
1.35516e-05
-9.69594e-06
1.55636e-05
-7.90797e-06
1.485e-05
-5.74911e-06
1.32019e-05
-5.20703e-06
1.17998e-05
-5.7474e-06
1.15514e-05
-7.33079e-06
1.17314e-05
-8.31505e-06
1.54627e-05
-1.22628e-05
1.84439e-05
-1.19237e-05
1.92497e-05
-1.01671e-05
1.89867e-05
-9.55106e-06
1.83717e-05
-9.5554e-06
1.76016e-05
-9.774e-06
1.73649e-05
-1.07786e-05
1.77019e-05
-1.1846e-05
1.77166e-05
-1.19148e-05
1.73205e-05
-1.19429e-05
1.7244e-05
-1.28294e-05
1.7109e-05
-1.31303e-05
1.7459e-05
-1.40484e-05
1.84372e-05
-1.50783e-05
1.88072e-05
-1.47403e-05
1.9294e-05
-1.51742e-05
2.00038e-05
-1.56725e-05
1.969e-05
-1.51533e-05
1.86737e-05
-1.50307e-05
1.80958e-05
-1.60636e-05
1.6953e-05
-1.56986e-05
1.68172e-05
-1.75335e-05
1.45619e-05
-1.57863e-05
1.48035e-05
-1.8067e-05
1.13059e-05
-1.35612e-05
3.53359e-06
-9.39465e-06
6.21119e-07
-1.52063e-05
1.94449e-06
-1.97785e-05
4.04942e-06
-2.09195e-05
3.50024e-06
-1.88894e-05
2.25341e-07
-1.61268e-05
-5.2514e-06
-1.39401e-05
-1.03167e-05
-1.43219e-05
-1.3417e-05
-1.59774e-05
-1.51686e-05
-1.66056e-05
-1.66129e-05
-1.60553e-05
-1.78695e-05
-1.54704e-05
-1.89852e-05
-1.48522e-05
-2.05045e-05
-1.36934e-05
-2.26812e-05
-1.23035e-05
-2.53983e-05
-1.11182e-05
-1.17189e-05
-2.69745e-05
-1.0169e-07
4.77024e-07
-2.3556e-07
4.59848e-07
-1.54813e-07
-4.65161e-08
1.46146e-07
-5.56395e-07
5.98537e-07
-9.06479e-07
1.10293e-06
-1.09855e-06
1.6287e-06
-1.2075e-06
2.15812e-06
-1.2254e-06
2.67076e-06
-1.20034e-06
3.21432e-06
-1.22216e-06
3.80296e-06
-1.22629e-06
4.35482e-06
-1.15243e-06
4.90595e-06
-1.16787e-06
5.47502e-06
-1.11236e-06
5.9722e-06
-9.24122e-07
6.39216e-06
-8.31423e-07
6.7422e-06
-6.1387e-07
6.99468e-06
-3.90494e-07
7.15212e-06
-2.3982e-07
7.19802e-06
9.03146e-08
7.13377e-06
3.3077e-07
6.9795e-06
5.11688e-07
6.73349e-06
8.63923e-07
6.37861e-06
1.04066e-06
6.01254e-06
1.14996e-06
5.79746e-06
1.31118e-06
5.41623e-06
1.37105e-06
4.63573e-06
1.43706e-06
4.00375e-06
1.19263e-06
3.82998e-06
6.47968e-07
3.64918e-06
3.90441e-07
3.22103e-06
4.53712e-07
2.96116e-06
2.17016e-07
3.46861e-06
-6.64427e-07
4.4999e-06
-1.17647e-06
5.44473e-06
-8.78636e-07
5.99912e-06
-5.45406e-07
6.01623e-06
-3.86654e-07
5.3511e-06
2.33941e-08
4.21258e-06
6.01306e-07
2.92511e-06
9.7788e-07
1.74594e-06
1.05084e-06
8.82439e-07
9.73365e-07
3.53339e-07
8.95477e-07
6.66654e-08
8.28287e-07
-9.00112e-08
7.2181e-07
-2.04108e-07
6.11443e-07
-2.8987e-07
4.84855e-07
-3.46749e-07
3.58611e-07
-3.79834e-07
2.53153e-07
-3.7298e-07
1.48679e-07
-3.41137e-07
4.94256e-08
-2.90851e-07
-3.30969e-08
-2.08241e-07
-1.17961e-07
-9.58628e-08
-1.86043e-07
1.42793e-08
-2.35305e-07
9.33177e-08
-2.55191e-07
1.42097e-07
-2.6383e-07
1.33928e-07
-2.40512e-07
5.64081e-08
-2.01765e-07
-6.68289e-08
-1.72688e-07
-2.26609e-07
-1.62615e-07
-3.71416e-07
-1.87871e-07
-5.01116e-07
-2.46789e-07
-5.64868e-07
-3.43684e-07
-5.56807e-07
-4.92436e-07
-5.24438e-07
-6.05208e-07
-4.85597e-07
-6.85396e-07
-4.22846e-07
-7.90839e-07
-3.18648e-07
-9.19608e-07
-1.3803e-07
-1.09859e-06
1.31068e-07
-1.31467e-06
4.87908e-07
-1.53882e-06
9.12165e-07
-1.7509e-06
1.33815e-06
-1.86041e-06
1.75722e-06
-1.95226e-06
2.17856e-06
-2.04558e-06
2.63473e-06
-2.16403e-06
3.14738e-06
-2.33053e-06
3.75991e-06
-2.52222e-06
4.4244e-06
-2.69849e-06
5.14306e-06
-2.90898e-06
5.93146e-06
-3.15406e-06
6.78257e-06
-3.37088e-06
7.70041e-06
-3.61147e-06
8.7723e-06
-4.00635e-06
1.00953e-05
-4.4195e-06
1.14385e-05
-4.43273e-06
1.26575e-05
-4.22731e-06
1.34735e-05
-3.68948e-06
1.4176e-05
-3.85262e-06
1.48684e-05
-3.99796e-06
1.54529e-05
-4.0266e-06
1.59768e-05
-4.07733e-06
1.66249e-05
-4.50414e-06
1.73321e-05
-4.95075e-06
1.80034e-05
-5.1714e-06
1.87252e-05
-5.4803e-06
1.92604e-05
-5.42078e-06
1.93433e-05
-4.7935e-06
1.91576e-05
-4.42069e-06
1.85322e-05
-4.30019e-06
1.74952e-05
-3.72384e-06
1.68568e-05
-3.97962e-06
1.66045e-05
-5.3109e-06
1.54695e-05
-4.67636e-06
1.43009e-05
-4.02417e-06
1.41899e-05
-6.10983e-06
1.37583e-05
-7.80489e-06
1.2843e-05
-7.82992e-06
1.20908e-05
-7.32218e-06
1.11722e-05
-6.67055e-06
9.83329e-06
-5.76106e-06
8.28686e-06
-4.85384e-06
6.41452e-06
-4.18056e-06
4.08425e-06
-3.55439e-06
1.25714e-06
-3.07462e-06
-1.62743e-06
-3.12461e-06
-4.18494e-06
-3.6655e-06
-5.81074e-06
-4.82355e-06
-6.07348e-06
-6.54362e-06
-5.56447e-06
-8.31682e-06
-4.68038e-06
-9.85791e-06
-3.78954e-06
-1.06829e-05
-3.23835e-06
-1.04523e-05
-2.86234e-06
-9.80747e-06
-2.23299e-06
-9.90005e-06
-4.24828e-07
-1.2348e-05
3.05823e-06
-1.71315e-05
7.02754e-06
-1.84969e-05
9.60479e-06
-1.60403e-05
1.33868e-05
-1.94173e-05
1.61221e-05
-1.60109e-05
1.72814e-05
-1.28028e-05
1.68666e-05
-1.16062e-05
1.58708e-05
-1.22022e-05
1.51343e-05
-1.4589e-05
1.39937e-05
-1.61471e-05
1.84651e-05
-2.44259e-05
2.3675e-05
-2.46719e-05
2.56314e-05
-2.09673e-05
2.57891e-05
-1.98257e-05
2.54661e-05
-2.00684e-05
2.43771e-05
-1.99805e-05
2.37046e-05
-2.19148e-05
2.45285e-05
-2.48166e-05
2.47711e-05
-2.4758e-05
2.38034e-05
-2.43577e-05
2.33602e-05
-2.64951e-05
2.29963e-05
-2.73853e-05
2.34447e-05
-2.96331e-05
2.48344e-05
-3.20631e-05
2.48003e-05
-3.08846e-05
2.46591e-05
-3.17892e-05
2.43908e-05
-3.22506e-05
2.29575e-05
-3.12027e-05
2.12797e-05
-3.1543e-05
2.0431e-05
-3.4039e-05
1.80392e-05
-3.25089e-05
1.76606e-05
-3.79344e-05
1.33164e-05
-3.24423e-05
1.0399e-05
-3.37505e-05
4.79284e-06
-2.54548e-05
-2.6319e-06
-2.0199e-05
-4.93799e-06
-3.48238e-05
-2.54417e-06
-4.35994e-05
3.86707e-06
-4.61968e-05
6.04936e-06
-4.1245e-05
1.74187e-06
-3.32673e-05
-4.81937e-06
-2.98658e-05
-1.02454e-05
-3.19291e-05
-1.27979e-05
-3.5759e-05
-1.42347e-05
-3.59409e-05
-1.60698e-05
-3.33678e-05
-1.81035e-05
-3.12172e-05
-2.05676e-05
-2.90649e-05
-2.35884e-05
-2.64136e-05
-2.72854e-05
-2.3558e-05
-3.10587e-05
-2.17965e-05
-2.34135e-05
-3.35462e-05
5.95348e-08
3.87258e-07
2.17627e-07
2.58607e-07
5.40516e-07
-4.09534e-07
9.35373e-07
-9.87881e-07
1.29785e-06
-1.30256e-06
1.62568e-06
-1.45854e-06
1.90799e-06
-1.51848e-06
2.19889e-06
-1.54176e-06
2.5605e-06
-1.59284e-06
2.98588e-06
-1.668e-06
3.5316e-06
-1.78664e-06
4.1388e-06
-1.80207e-06
4.72122e-06
-1.75935e-06
5.32733e-06
-1.72603e-06
5.86789e-06
-1.49901e-06
6.28531e-06
-1.23919e-06
6.67894e-06
-1.03691e-06
6.93558e-06
-6.55723e-07
7.04374e-06
-3.27198e-07
7.09193e-06
1.86154e-09
6.98329e-06
4.63099e-07
6.80369e-06
7.22302e-07
6.68268e-06
9.62465e-07
6.41592e-06
1.38179e-06
5.99851e-06
1.66289e-06
5.68613e-06
1.62925e-06
5.35125e-06
1.72987e-06
5.04976e-06
1.85758e-06
4.81319e-06
1.55649e-06
4.37386e-06
1.15447e-06
3.818e-06
9.99482e-07
3.88914e-06
4.87111e-07
4.44345e-06
-1.68992e-07
4.67054e-06
-7.00761e-07
4.46252e-06
-8.67669e-07
3.7919e-06
-2.00732e-07
2.45018e-06
8.20304e-07
7.51021e-07
1.3867e-06
-6.55127e-07
1.52143e-06
-1.51329e-06
1.55578e-06
-1.96912e-06
1.53884e-06
-2.23476e-06
1.42641e-06
-2.41935e-06
1.26832e-06
-2.51574e-06
1.10045e-06
-2.51993e-06
9.37622e-07
-2.48035e-06
7.827e-07
-2.42447e-06
6.49927e-07
-2.37737e-06
5.25123e-07
-2.33261e-06
3.92843e-07
-2.27981e-06
2.6954e-07
-2.22791e-06
1.55752e-07
-2.17093e-06
3.97946e-08
-2.09488e-06
-7.58956e-08
-2.00947e-06
-1.87652e-07
-1.91393e-06
-2.85133e-07
-1.80353e-06
-3.69851e-07
-1.69134e-06
-4.13465e-07
-1.59581e-06
-4.28482e-07
-1.53761e-06
-3.92067e-07
-1.53874e-06
-3.19625e-07
-1.60616e-06
-2.51454e-07
-1.71052e-06
-2.3341e-07
-1.84454e-06
-2.63119e-07
-1.88776e-06
-4.45543e-07
-1.77692e-06
-7.28251e-07
-1.53612e-06
-1.03648e-06
-1.28342e-06
-1.19476e-06
-1.03048e-06
-1.30617e-06
-8.09885e-07
-1.41208e-06
-5.09024e-07
-1.65326e-06
-1.34837e-07
-1.93774e-06
2.943e-07
-2.24194e-06
7.4745e-07
-2.52459e-06
1.20785e-06
-2.77907e-06
1.67226e-06
-2.93008e-06
2.14035e-06
-3.06405e-06
2.58427e-06
-3.16944e-06
3.07378e-06
-3.36455e-06
3.65481e-06
-3.65094e-06
4.30956e-06
-3.94917e-06
5.04037e-06
-4.24717e-06
5.72825e-06
-4.4658e-06
6.3639e-06
-4.69573e-06
7.00039e-06
-4.92902e-06
7.63744e-06
-5.19813e-06
8.27248e-06
-5.60479e-06
9.15381e-06
-6.22475e-06
1.02566e-05
-6.40928e-06
1.15769e-05
-6.37281e-06
1.27587e-05
-5.77421e-06
1.37752e-05
-5.92529e-06
1.48366e-05
-6.17048e-06
1.58152e-05
-6.19323e-06
1.66392e-05
-6.30301e-06
1.73927e-05
-6.94593e-06
1.82236e-05
-7.62782e-06
1.90506e-05
-7.94599e-06
1.98214e-05
-8.27043e-06
2.05917e-05
-8.1322e-06
2.12251e-05
-7.27515e-06
2.15892e-05
-6.81714e-06
2.11726e-05
-6.51198e-06
1.99318e-05
-5.47813e-06
1.91293e-05
-6.06713e-06
1.83801e-05
-7.71602e-06
1.68094e-05
-6.51067e-06
1.56496e-05
-5.92429e-06
1.46797e-05
-8.41449e-06
1.26832e-05
-9.75693e-06
1.10044e-05
-1.00768e-05
9.75257e-06
-9.80567e-06
8.31821e-06
-8.97049e-06
6.84465e-06
-8.16333e-06
5.14388e-06
-7.15457e-06
3.07986e-06
-6.22151e-06
6.55664e-07
-5.28607e-06
-2.09875e-06
-4.44202e-06
-4.6453e-06
-4.74489e-06
-6.33337e-06
-6.09131e-06
-6.80144e-06
-8.34681e-06
-6.26331e-06
-1.10855e-05
-5.41704e-06
-1.34186e-05
-4.89883e-06
-1.51163e-05
-4.37826e-06
-1.5918e-05
-3.48081e-06
-1.59605e-05
-2.30228e-06
-1.55916e-05
-9.18412e-07
-1.58611e-05
9.66873e-07
-1.91503e-05
2.65577e-06
-2.43913e-05
5.45796e-06
-2.6943e-05
9.05672e-06
-2.56806e-05
1.22183e-05
-2.94015e-05
1.42094e-05
-2.41858e-05
1.54032e-05
-1.98145e-05
1.57036e-05
-1.84137e-05
1.50661e-05
-1.91169e-05
1.41993e-05
-2.15999e-05
1.1951e-05
-2.24538e-05
1.4787e-05
-3.38805e-05
2.20516e-05
-3.61551e-05
2.61977e-05
-3.08663e-05
2.70856e-05
-2.91669e-05
2.76568e-05
-3.05418e-05
2.68588e-05
-3.02318e-05
2.44733e-05
-3.15618e-05
2.56192e-05
-3.70103e-05
2.72383e-05
-3.78217e-05
2.56408e-05
-3.6069e-05
2.44219e-05
-3.87491e-05
2.33305e-05
-4.02834e-05
2.3375e-05
-4.34443e-05
2.60356e-05
-4.79119e-05
2.68311e-05
-4.69123e-05
2.7266e-05
-4.87003e-05
2.78141e-05
-4.93449e-05
2.58418e-05
-4.75853e-05
2.30226e-05
-4.75132e-05
2.2323e-05
-5.02871e-05
1.93328e-05
-4.7124e-05
1.97102e-05
-5.73704e-05
1.2458e-05
-4.66516e-05
7.36203e-06
-4.60463e-05
1.90762e-06
-4.04455e-05
-1.83069e-06
-3.86287e-05
-2.59263e-06
-5.96705e-05
-4.98474e-06
-6.84204e-05
-5.19859e-07
-7.36515e-05
7.20815e-06
-6.67562e-05
4.34488e-06
-5.14061e-05
-2.17035e-06
-4.67736e-05
-7.93646e-06
-5.03419e-05
-1.04057e-05
-5.55516e-05
-1.21467e-05
-5.44581e-05
-1.48263e-05
-4.95107e-05
-1.83767e-05
-4.5052e-05
-2.23072e-05
-4.13941e-05
-2.62752e-05
-3.78252e-05
-3.01739e-05
-3.44283e-05
-3.34794e-05
-3.31304e-05
-3.5523e-05
-3.59932e-05
1.14916e-07
2.45596e-07
4.32955e-07
-9.92211e-08
7.85297e-07
-8.00187e-07
1.04297e-06
-1.28184e-06
1.17051e-06
-1.46402e-06
1.2469e-06
-1.56587e-06
1.39362e-06
-1.6943e-06
1.66215e-06
-1.83586e-06
2.08828e-06
-2.04116e-06
2.63718e-06
-2.24902e-06
3.25267e-06
-2.43011e-06
3.9546e-06
-2.52711e-06
4.6004e-06
-2.42914e-06
5.12535e-06
-2.25892e-06
5.64576e-06
-2.05382e-06
6.10696e-06
-1.69219e-06
6.46088e-06
-1.3888e-06
6.63091e-06
-8.70715e-07
6.7418e-06
-4.16264e-07
6.74268e-06
-1.87976e-08
6.52834e-06
6.38911e-07
6.1953e-06
1.11274e-06
5.82963e-06
1.34369e-06
5.41641e-06
1.7434e-06
5.0813e-06
2.06142e-06
4.88339e-06
2.00749e-06
4.7103e-06
2.00767e-06
4.40599e-06
2.14455e-06
3.88478e-06
2.09484e-06
3.55215e-06
1.63717e-06
3.91906e-06
8.69813e-07
4.4816e-06
1.29034e-07
4.27239e-06
6.96862e-08
2.65869e-06
8.72256e-07
3.80518e-07
1.45896e-06
-1.46602e-06
1.73725e-06
-2.53926e-06
1.98583e-06
-3.17825e-06
2.12001e-06
-3.63145e-06
2.07725e-06
-3.90693e-06
1.93822e-06
-3.99996e-06
1.73992e-06
-3.98571e-06
1.51993e-06
-3.88783e-06
1.27619e-06
-3.73541e-06
1.05102e-06
-3.55938e-06
8.59917e-07
-3.36485e-06
6.80552e-07
-3.15213e-06
5.22697e-07
-2.94607e-06
3.96834e-07
-2.75047e-06
2.67075e-07
-2.56361e-06
1.44266e-07
-2.38244e-06
2.69085e-08
-2.19989e-06
-1.01136e-07
-2.02694e-06
-2.20478e-07
-1.87691e-06
-3.26113e-07
-1.76408e-06
-4.06065e-07
-1.69314e-06
-4.70689e-07
-1.62658e-06
-5.33792e-07
-1.55041e-06
-5.83481e-07
-1.4262e-06
-6.21006e-07
-1.25548e-06
-6.21585e-07
-1.10585e-06
-5.60165e-07
-1.03065e-06
-4.96924e-07
-1.03673e-06
-4.758e-07
-1.10886e-06
-6.21427e-07
-1.14649e-06
-9.69003e-07
-1.10263e-06
-1.38961e-06
-9.08565e-07
-1.72815e-06
-6.14052e-07
-1.96776e-06
-2.19886e-07
-2.20334e-06
1.24594e-07
-2.42908e-06
4.79992e-07
-2.76195e-06
8.51082e-07
-3.11902e-06
1.25406e-06
-3.46896e-06
1.72166e-06
-3.8247e-06
2.2231e-06
-4.0507e-06
2.77254e-06
-4.27785e-06
3.34208e-06
-4.45138e-06
3.97903e-06
-4.76251e-06
4.60623e-06
-5.08597e-06
5.3072e-06
-5.49188e-06
6.03589e-06
-5.85453e-06
6.75198e-06
-6.11096e-06
7.39348e-06
-6.34992e-06
7.87481e-06
-6.50066e-06
8.25339e-06
-6.71044e-06
8.46456e-06
-6.98302e-06
8.77154e-06
-7.68989e-06
9.44853e-06
-8.1717e-06
1.05024e-05
-8.44846e-06
1.16783e-05
-8.02923e-06
1.27712e-05
-8.19782e-06
1.39518e-05
-8.52719e-06
1.51188e-05
-8.55128e-06
1.62191e-05
-8.73335e-06
1.70508e-05
-9.37728e-06
1.78522e-05
-1.01955e-05
1.88059e-05
-1.07631e-05
1.96185e-05
-1.11107e-05
2.03405e-05
-1.10565e-05
2.12922e-05
-1.02833e-05
2.2249e-05
-9.52937e-06
2.21528e-05
-8.58115e-06
2.153e-05
-7.60286e-06