/*--------------------------------*- C++ -*----------------------------------*\
| =========                 |                                                 |
| \\      /  F ield         | OpenFOAM: The Open Source CFD Toolbox           |
|  \\    /   O peration     | Version:  dev                                   |
|   \\  /    A nd           | Web:      http://www.openfoam.org               |
|    \\/     M anipulation  |                                                 |
\*---------------------------------------------------------------------------*/
FoamFile
{
    version     2.0;
    format      ascii;
    class       surfaceScalarField;
    object      phi_0;
    location    "9.139";
}
// * * * * * * * * * * * * * * * * * * * * * * * * * * * * * * * * * * * * * //

dimensions      [1 0 -1 0 0 0 0];

internalField   nonuniform List<scalar> 
24170
(
1.96142e-06
1.33635e-06
9.11332e-07
9.9728e-07
3.65292e-07
4.871e-07
6.06033e-08
2.38734e-07
-2.02306e-07
1.95988e-07
-2.37138e-07
-3.45659e-08
-5.406e-07
2.37286e-07
-4.32445e-07
-1.72849e-07
-6.61098e-07
1.6872e-07
-5.33307e-07
-1.88771e-07
-6.58089e-07
7.14981e-08
-2.45941e-07
-4.63898e-07
-1.59375e-07
-1.30635e-07
7.62344e-07
-9.67878e-07
1.84711e-06
-1.13147e-06
5.7867e-06
-3.98566e-06
8.16149e-06
-2.40801e-06
5.79159e-06
2.34149e-06
3.58481e-06
1.47331e-06
2.64338e-06
1.88637e-06
1.84925e-06
1.21755e-06
1.12255e-06
8.93221e-07
7.05113e-07
5.38307e-07
2.66786e-07
3.25346e-07
-1.124e-07
5.38919e-07
-2.07632e-07
-1.53355e-07
-6.31773e-07
5.18977e-07
-6.00957e-07
-2.95691e-07
-8.15373e-07
2.15973e-07
-5.48796e-07
-7.99878e-07
-5.8845e-07
-1.54575e-07
1.45382e-07
-1.76798e-06
1.60764e-06
-2.66155e-06
3.38184e-06
-5.83639e-06
1.81339e-06
-8.88617e-07
7.92336e-06
-3.66983e-07
4.44938e-06
1.10346e-06
3.88707e-06
2.38957e-06
3.39831e-06
1.63351e-06
2.6716e-06
1.53864e-06
2.18236e-06
9.42978e-07
1.49004e-06
9.29986e-07
1.34695e-06
5.93884e-07
1.19205e-06
-8.24925e-08
7.98426e-07
8.30223e-07
8.17015e-07
-4.00452e-07
6.14255e-07
3.41057e-07
8.93204e-07
-1.15634e-06
2.82623e-07
3.85533e-07
6.40429e-07
-2.19901e-06
8.69255e-07
-2.962e-06
5.08543e-07
-5.54735e-06
1.18876e-07
-5.55612e-07
9.67311e-06
-1.69372e-06
4.83864e-06
9.70662e-07
4.48845e-06
2.67136e-06
4.21097e-06
1.82833e-06
3.70784e-06
1.94994e-06
3.30802e-06
1.24781e-06
2.88975e-06
1.24982e-06
2.52639e-06
8.59317e-07
2.6053e-06
-2.5715e-07
2.13435e-06
1.2076e-06
2.07803e-06
-4.39253e-07
1.93283e-06
3.94927e-07
2.39574e-06
-1.70037e-06
2.05689e-06
6.4511e-07
2.35599e-06
-2.57769e-06
1.58242e-06
-2.26119e-06
1.96349e-06
-6.01014e-06
1.7145e-06
-3.77854e-07
1.1398e-05
-7.88141e-08
5.01068e-06
1.03819e-06
5.45956e-06
2.14153e-06
4.99821e-06
2.1956e-06
4.7246e-06
2.12066e-06
4.4502e-06
1.41374e-06
4.18457e-06
1.40485e-06
3.2325e-06
1.70157e-06
3.49582e-06
-6.28621e-07
3.11852e-06
1.47868e-06
2.36687e-06
2.06713e-07
2.14555e-06
5.11557e-07
2.31109e-06
-1.95385e-06
2.05718e-06
8.09704e-07
1.68818e-06
-2.29846e-06
1.75465e-06
-2.40583e-06
2.09203e-06
-6.43671e-06
2.91815e-07
1.34723e-06
1.21607e-05
-5.64706e-07
5.60791e-06
1.29925e-06
5.75841e-06
1.89702e-06
4.98905e-06
2.85919e-06
5.7178e-06
1.27237e-06
5.40478e-06
1.60072e-06
4.72614e-06
1.95901e-06
3.81429e-06
2.48822e-06
4.13298e-06
-1.06992e-06
3.27456e-06
2.21975e-06
2.38394e-06
9.79783e-07
1.87699e-06
9.00827e-07
1.651e-06
-1.83025e-06
1.60835e-06
7.54658e-07
4.79507e-07
-1.27202e-06
-4.11734e-07
-1.60499e-06
-1.60147e-06
-5.33273e-06
-3.52293e-06
3.19603e-06
8.97872e-06
-3.91532e-07
5.86141e-06
1.85658e-06
5.77119e-06
1.87755e-06
5.27292e-06
3.23276e-06
5.39637e-06
1.00902e-06
4.32345e-06
2.5344e-06
4.59064e-06
1.55096e-06
4.14487e-06
2.79085e-06
3.42491e-06
-4.92281e-07
3.53426e-06
1.97209e-06
3.41694e-06
9.60056e-07
2.60417e-06
1.58166e-06
1.75335e-06
-1.09812e-06
8.43223e-07
1.55122e-06
5.39001e-07
-1.08122e-06
-7.36571e-07
-4.38772e-07
-2.84395e-06
-3.32609e-06
-4.64627e-06
4.90813e-06
4.48987e-06
-2.24063e-07
4.40657e-06
2.27975e-06
4.36489e-06
1.82732e-06
4.16933e-06
3.32216e-06
3.77099e-06
1.2932e-06
3.355e-06
2.83797e-06
3.38765e-06
1.40389e-06
3.06955e-06
2.99023e-06
2.83426e-06
-3.75756e-07
3.10718e-06
1.58266e-06
3.07045e-06
8.87504e-07
2.89351e-06
1.65564e-06
2.27192e-06
-5.72859e-07
1.35954e-06
2.36952e-06
1.11939e-06
-9.3308e-07
6.19982e-07
-2.74318e-08
-1.20109e-06
-1.5899e-06
-1.18281e-06
4.81083e-06
2.47655e-06
7.75348e-07
5.65133e-06
2.39916e-06
5.25495e-06
2.11016e-06
4.84388e-06
3.59939e-06
4.76609e-06
1.23119e-06
4.20868e-06
3.25661e-06
3.87165e-06
1.59942e-06
3.79715e-06
2.91687e-06
3.68953e-06
-4.14182e-07
3.63428e-06
1.49997e-06
3.49979e-06
8.9476e-07
3.32391e-06
1.70776e-06
2.57618e-06
5.53179e-08
2.26426e-06
2.56697e-06
1.75412e-06
-5.37961e-07
9.23131e-07
6.965e-07
-2.94774e-07
-4.73331e-07
3.9415e-07
4.02398e-06
1.82828e-06
9.79051e-07
6.47165e-06
2.47906e-06
6.21204e-06
2.22401e-06
5.84258e-06
3.80002e-06
5.50832e-06
1.39064e-06
5.16753e-06
3.42394e-06
4.95528e-06
1.6349e-06
4.8717e-06
2.81856e-06
3.87293e-06
4.10284e-07
3.75022e-06
1.46093e-06
3.81469e-06
6.71999e-07
3.56645e-06
1.7975e-06
2.99676e-06
4.75815e-07
2.97074e-06
2.45674e-06
1.89052e-06
4.02441e-07
1.07682e-06
1.37683e-06
1.4658e-07
3.34925e-07
1.15907e-06
2.88785e-06
1.73984e-06
1.16233e-06
7.58247e-06
2.50041e-06
7.09272e-06
2.52209e-06
6.81339e-06
3.86583e-06
6.2433e-06
1.74086e-06
6.06966e-06
3.37693e-06
5.7299e-06
1.75193e-06
5.2764e-06
3.05188e-06
4.36611e-06
1.1081e-06
3.99782e-06
1.62325e-06
3.68446e-06
7.83602e-07
3.52349e-06
1.76402e-06
3.08168e-06
7.31554e-07
3.0932e-06
2.28135e-06
2.12269e-06
1.19861e-06
1.39334e-06
1.93855e-06
5.08876e-07
1.06989e-06
1.23204e-06
2.0132e-06
1.6082e-06
1.24534e-06
8.95323e-06
2.20332e-06
8.50078e-06
2.71826e-06
8.06367e-06
4.02747e-06
7.26579e-06
2.25711e-06
6.90012e-06
3.45799e-06
6.24028e-06
2.12904e-06
5.97645e-06
3.03988e-06
5.20175e-06
1.61255e-06
4.64937e-06
1.91179e-06
3.91775e-06
1.26191e-06
3.65085e-06
1.7907e-06
2.97207e-06
1.17696e-06
3.03639e-06
2.00405e-06
2.47318e-06
1.5471e-06
2.25847e-06
1.94744e-06
1.70998e-06
1.4286e-06
1.96244e-06
1.57456e-06
1.45112e-06
1.95566e-06
1.06487e-05
2.05001e-06
9.8397e-06
3.18021e-06
9.36655e-06
4.13601e-06
8.36022e-06
2.89318e-06
7.85291e-06
3.59457e-06
7.03344e-06
2.58246e-06
6.64879e-06
3.06717e-06
5.87345e-06
2.03995e-06
5.37766e-06
2.06983e-06
4.70228e-06
1.61507e-06
4.32324e-06
1.86271e-06
3.63879e-06
1.56477e-06
3.44263e-06
1.92657e-06
3.01293e-06
1.70519e-06
2.96173e-06
1.73845e-06
2.66116e-06
1.48372e-06
2.62274e-06
1.3823e-06
1.27064e-06
2.59047e-06
1.21727e-05
2.01406e-06
1.09458e-05
3.92979e-06
1.03988e-05
4.18671e-06
9.49565e-06
3.30028e-06
9.05574e-06
3.54376e-06
8.19444e-06
2.96054e-06
7.70715e-06
3.08606e-06
6.88029e-06
2.41641e-06
6.26334e-06
2.25131e-06
5.53159e-06
1.92986e-06
5.09499e-06
1.90356e-06
4.49872e-06
1.78286e-06
4.20161e-06
1.86305e-06
3.82172e-06
1.73692e-06
3.60422e-06
1.6251e-06
3.30729e-06
1.46867e-06
3.07672e-06
1.32179e-06
1.23209e-06
2.84472e-06
1.4614e-05
1.32645e-06
1.33586e-05
4.52336e-06
1.24119e-05
4.45154e-06
1.11503e-05
3.88709e-06
1.03564e-05
3.67821e-06
9.41019e-06
3.26335e-06
8.73587e-06
3.14137e-06
7.86504e-06
2.6941e-06
7.1515e-06
2.39247e-06
6.40174e-06
2.13244e-06
5.80238e-06
1.98521e-06
5.27347e-06
1.81876e-06
4.91246e-06
1.75495e-06
4.59293e-06
1.61208e-06
4.30604e-06
1.49e-06
3.98664e-06
1.39144e-06
3.66228e-06
1.27657e-06
1.17724e-06
3.37268e-06
1.63112e-05
1.10302e-06
1.49932e-05
4.88947e-06
1.38756e-05
4.61412e-06
1.26993e-05
4.13349e-06
1.17602e-05
3.72e-06
1.08041e-05
3.35122e-06
1.00233e-05
3.09205e-06
9.19176e-06
2.73215e-06
8.36979e-06
2.45208e-06
7.53826e-06
2.24114e-06
6.82283e-06
2.01955e-06
6.15872e-06
1.83713e-06
5.58417e-06
1.72027e-06
5.09186e-06
1.53179e-06
4.65523e-06
1.38722e-06
4.29445e-06
1.24842e-06
4.01086e-06
1.092e-06
9.96211e-07
3.75686e-06
1.8561e-05
1.14841e-06
1.7252e-05
4.83281e-06
1.59843e-05
4.53532e-06
1.47413e-05
4.08209e-06
1.35493e-05
3.67302e-06
1.23922e-05
3.32262e-06
1.1321e-05
3.03805e-06
1.02656e-05
2.71691e-06
9.25933e-06
2.44104e-06
8.3467e-06
2.19832e-06
7.51532e-06
1.95337e-06
6.74686e-06
1.7613e-06
6.08486e-06
1.59392e-06
5.47659e-06
1.40499e-06
4.94877e-06
1.22715e-06
4.48545e-06
1.07501e-06
4.07351e-06
9.15734e-07
7.99403e-07
3.72888e-06
1.92794e-05
1.00506e-06
1.7732e-05
4.71443e-06
1.63188e-05
4.32407e-06
1.49481e-05
3.90298e-06
1.36141e-05
3.53648e-06
1.23578e-05
3.18821e-06
1.11903e-05
2.89218e-06
1.00913e-05
2.57671e-06
9.07763e-06
2.29256e-06
8.16859e-06
2.02177e-06
7.36056e-06
1.74749e-06
6.64455e-06
1.53483e-06
6.02353e-06
1.34229e-06
5.46628e-06
1.15529e-06
4.95745e-06
9.93015e-07
4.52425e-06
8.2416e-07
4.1335e-06
6.80959e-07
5.51998e-07
3.81306e-06
1.71606e-05
9.97997e-07
1.57379e-05
4.41259e-06
1.43633e-05
4.03288e-06
1.30275e-05
3.65563e-06
1.17591e-05
3.31801e-06
1.0587e-05
2.96364e-06
9.51857e-06
2.64567e-06
8.55982e-06
2.30992e-06
7.6926e-06
2.01919e-06
6.90561e-06
1.74874e-06
6.18567e-06
1.48756e-06
5.53714e-06
1.28001e-06
4.9597e-06
1.08972e-06
4.39567e-06
9.60199e-07
3.93671e-06
7.60199e-07
3.5252e-06
6.07339e-07
3.15401e-06
4.85289e-07
3.65143e-07
2.83232e-06
1.52202e-05
8.3123e-07
1.39431e-05
3.99571e-06
1.27644e-05
3.57094e-06
1.16608e-05
3.2018e-06
1.06378e-05
2.88983e-06
9.6611e-06
2.57636e-06
8.75068e-06
2.2801e-06
7.91253e-06
1.96863e-06
7.11674e-06
1.71867e-06
6.35409e-06
1.50356e-06
5.63689e-06
1.2809e-06
4.96345e-06
1.10628e-06
4.35027e-06
9.32793e-07
3.82463e-06
7.87936e-07
3.31186e-06
6.42974e-07
2.88552e-06
4.68864e-07
2.53816e-06
3.29208e-07
2.48933e-07
2.20848e-06
1.32911e-05
7.4653e-07
1.22259e-05
3.42247e-06
1.11425e-05
3.07613e-06
1.01388e-05
2.7163e-06
9.22515e-06
2.41499e-06
8.37294e-06
2.12375e-06
7.58967e-06
1.85585e-06
6.85094e-06
1.59173e-06
6.15045e-06
1.38787e-06
5.485e-06
1.23134e-06
4.85403e-06
1.05367e-06
4.25535e-06
9.24834e-07
3.69589e-06
7.88795e-07
3.21826e-06
6.32122e-07
2.74711e-06
5.48692e-07
2.34788e-06
3.66403e-07
2.01711e-06
2.18103e-07
1.38064e-07
1.74055e-06
1.20835e-05
5.78013e-07
1.10618e-05
2.89265e-06
1.01377e-05
2.52051e-06
9.28624e-06
2.17394e-06
8.47017e-06
1.91994e-06
7.68141e-06
1.69131e-06
6.92547e-06
1.48719e-06
6.1786e-06
1.29796e-06
5.48154e-06
1.13247e-06
4.84786e-06
1.00114e-06
4.26741e-06
8.47365e-07
3.76151e-06
7.20437e-07
3.30076e-06
6.12228e-07
2.88591e-06
4.77684e-07
2.54169e-06
3.88227e-07
2.17513e-06
2.90014e-07
1.85921e-06
1.4722e-07
6.28842e-08
1.5998e-06
1.06157e-05
5.52745e-07
9.77516e-06
2.29208e-06
9.00767e-06
1.92155e-06
8.26914e-06
1.61524e-06
7.51449e-06
1.45236e-06
6.76167e-06
1.32143e-06
6.04106e-06
1.16885e-06
5.33419e-06
1.0482e-06
4.6864e-06
9.10879e-07
4.12599e-06
7.70774e-07
3.62812e-06
6.31063e-07
3.21941e-06
4.85707e-07
2.87348e-06
3.84451e-07
2.56016e-06
2.814e-07
2.29583e-06
2.03421e-07
2.05333e-06
1.42306e-07
1.80437e-06
5.72611e-08
-6.49273e-09
1.58534e-06
9.33181e-06
3.79458e-07
8.60615e-06
1.69943e-06
7.98179e-06
1.28798e-06
7.36358e-06
1.03575e-06
6.71763e-06
9.81302e-07
6.07399e-06
9.42497e-07
5.41653e-06
8.74288e-07
4.77544e-06
8.18317e-07
4.21277e-06
6.85991e-07
3.72337e-06
5.41063e-07
3.29429e-06
4.14446e-07
2.92433e-06
2.77824e-07
2.59819e-06
1.94568e-07
2.29275e-06
1.32433e-07
2.02036e-06
7.75159e-08
1.77666e-06
4.08136e-08
1.53261e-06
5.5114e-09
-3.02666e-08
1.30555e-06
8.50104e-06
2.28927e-07
8.01582e-06
9.83638e-07
7.45084e-06
7.01183e-07
6.79415e-06
6.03601e-07
6.15679e-06
6.07326e-07
5.58098e-06
5.84707e-07
5.02414e-06
5.67475e-07
4.51395e-06
5.41335e-07
4.04966e-06
4.3761e-07
3.60368e-06
3.38579e-07
3.19621e-06
2.41649e-07
2.81441e-06
1.41808e-07
2.46356e-06
8.30553e-08
2.1524e-06
3.93774e-08
1.8771e-06
-1.04839e-09
1.62602e-06
-1.36402e-08
1.42436e-06
-5.19552e-08
-5.9731e-08
1.23443e-06
7.68822e-06
6.821e-08
7.21978e-06
3.60574e-07
6.70622e-06
1.70452e-07
6.1156e-06
2.11669e-07
5.55399e-06
2.55171e-07
5.04047e-06
2.52254e-07
4.57226e-06
2.587e-07
4.15536e-06
2.49676e-07
3.75618e-06
1.92835e-07
3.35986e-06
1.54108e-07
2.97642e-06
1.04512e-07
2.60278e-06
5.06039e-08
2.2577e-06
1.68938e-08
1.94118e-06
-5.09473e-09
1.67228e-06
-4.64014e-08
1.44299e-06
-5.4314e-08
1.24471e-06
-8.28282e-08
-8.63015e-08
1.07945e-06
6.75095e-06
-4.95601e-07
6.5176e-06
-3.94073e-07
6.09081e-06
-3.44133e-07
5.57643e-06
-1.58272e-07
5.05098e-06
-4.19579e-08
4.53392e-06
9.24305e-09
4.04597e-06
4.87196e-08
3.59318e-06
6.56413e-08
3.15433e-06
5.4493e-08
2.73325e-06
5.48994e-08
2.32993e-06
4.14776e-08
1.94683e-06
1.85279e-08
1.598e-06
-1.32566e-09
1.29771e-06
-2.65554e-08
1.01397e-06
-4.19868e-08
7.78042e-07
-5.8027e-08
5.75104e-07
-8.2722e-08
-9.81756e-08
4.18085e-07
6.03285e-06
-8.16437e-07
5.75324e-06
-1.00433e-06
5.25816e-06
-6.9459e-07
4.67679e-06
-3.70685e-07
4.06095e-06
-1.63707e-07
3.43844e-06
-4.94327e-08
2.84058e-06
2.14971e-08
2.28755e-06
4.88165e-08
1.76548e-06
6.00917e-08
1.28626e-06
6.86981e-08
8.45457e-07
6.54101e-08
4.38229e-07
5.48196e-08
7.25558e-08
3.67771e-08
-2.62142e-07
2.13693e-08
-5.54992e-07
2.27676e-09
-8.13464e-07
-1.24331e-08
-1.04298e-06
-3.29481e-08
-4.47849e-08
-1.24558e-06
5.42616e-06
-1.09178e-06
4.56215e-06
-9.33009e-07
3.57658e-06
-4.63515e-07
2.65588e-06
-1.5854e-07
1.81552e-06
1.80801e-08
1.06212e-06
9.58538e-08
3.98757e-07
1.26972e-07
-1.91441e-07
1.3051e-07
-7.10404e-07
1.18326e-07
-1.16191e-06
1.05274e-07
-1.55929e-06
9.14754e-08
-1.91124e-06
7.67035e-08
-2.22627e-06
6.06792e-08
-2.50672e-06
4.7223e-08
-2.75697e-06
3.21478e-08
-2.97633e-06
1.84351e-08
-3.15971e-06
-8.36932e-09
-2.52742e-08
-3.31099e-06
3.38265e-06
1.67934e-06
4.93473e-07
-3.36477e-07
-9.40097e-07
-1.41793e-06
-1.81772e-06
-2.16828e-06
-2.487e-06
-2.77653e-06
-3.03961e-06
-3.27927e-06
-3.49885e-06
-3.69788e-06
-3.88009e-06
-4.04624e-06
-4.21173e-06
-4.36851e-06
-3.52343e-07
3.57544e-07
-6.66539e-07
3.14914e-07
-6.82148e-07
1.74284e-08
-4.04367e-07
-2.74748e-07
7.45058e-08
-4.75773e-07
6.97872e-07
-6.19139e-07
1.41189e-06
-7.08625e-07
2.13978e-06
-7.21552e-07
2.86586e-06
-7.17006e-07
3.59123e-06
-7.15835e-07
4.2629e-06
-6.62925e-07
4.91281e-06
-6.36153e-07
5.59503e-06
-6.65819e-07
6.17828e-06
-5.67837e-07
6.67209e-06
-4.77695e-07
7.15805e-06
-4.6329e-07
7.4822e-06
-2.98041e-07
7.71199e-06
-2.05209e-07
7.87782e-06
-1.31604e-07
7.83593e-06
7.56323e-08
7.69103e-06
1.79744e-07
7.43664e-06
3.00889e-07
6.94967e-06
5.3184e-07
6.43316e-06
5.66454e-07
5.78851e-06
7.00074e-07
4.85331e-06
9.85762e-07
4.09539e-06
8.11058e-07
3.66394e-06
4.89757e-07
3.30819e-06
4.22005e-07
3.06097e-06
3.2125e-07
3.12942e-06
9.98141e-09
3.41611e-06
-2.08614e-07
3.7697e-06
-2.80899e-07
4.17131e-06
-3.37075e-07
4.4254e-06
-1.79717e-07
4.52731e-06
-1.03604e-08
4.90779e-06
-2.93233e-07
5.62954e-06
-6.86736e-07
6.33366e-06
-7.09289e-07
6.86724e-06
-5.32922e-07
7.28191e-06
-3.98966e-07
7.57559e-06
-2.7552e-07
7.63658e-06
-4.60205e-08
7.4483e-06
2.08072e-07
7.10025e-06
3.77355e-07
6.73398e-06
3.97882e-07
6.42509e-06
3.34324e-07
6.19457e-06
2.45802e-07
6.03689e-06
1.6152e-07
5.93338e-06
9.51572e-08
5.86529e-06
4.70759e-08
5.84114e-06
-1.03683e-08
5.84865e-06
-5.62701e-08
5.87094e-06
-8.59197e-08
5.89005e-06
-9.80173e-08
5.91816e-06
-1.22687e-07
5.95278e-06
-1.45427e-07
5.97903e-06
-1.53683e-07
5.98856e-06
-1.53816e-07
5.97569e-06
-1.48738e-07
5.92404e-06
-1.27472e-07
5.84183e-06
-1.14914e-07
5.70969e-06
-8.28073e-08
5.56313e-06
-8.60216e-08
5.38768e-06
-7.42282e-08
5.22474e-06
-1.01828e-07
5.08245e-06
-1.37224e-07
4.94778e-06
-1.6089e-07
4.82854e-06
-1.93687e-07
4.73066e-06
-2.3237e-07
4.66945e-06
-2.85569e-07
4.66976e-06
-3.62657e-07
4.74188e-06
-4.49882e-07
4.89266e-06
-5.44473e-07
5.08252e-06
-6.00406e-07
5.30206e-06
-6.47797e-07
5.54555e-06
-6.89424e-07
5.80706e-06
-7.25309e-07
6.11092e-06
-7.86909e-07
6.43313e-06
-8.26422e-07
6.80412e-06
-8.9804e-07
7.26064e-06
-1.00726e-06
7.83413e-06
-1.14825e-06
8.49962e-06
-1.26699e-06
9.249e-06
-1.38441e-06
1.01736e-05
-1.58949e-06
1.12452e-05
-1.75983e-06
1.22053e-05
-1.7031e-06
1.2936e-05
-1.55035e-06
1.3302e-05
-1.2617e-06
1.36579e-05
-1.32375e-06
1.39447e-05
-1.3198e-06
1.41574e-05
-1.30574e-06
1.42846e-05
-1.26958e-06
1.44675e-05
-1.40724e-06
1.47218e-05
-1.59824e-06
1.49769e-05
-1.70391e-06
1.52222e-05
-1.82006e-06
1.52693e-05
-1.72695e-06
1.49641e-05
-1.40603e-06
1.43856e-05
-1.1822e-06
1.36995e-05
-1.16693e-06
1.27153e-05
-9.69857e-07
1.15891e-05
-9.53274e-07
1.08288e-05
-1.39402e-06
1.00607e-05
-1.31788e-06
9.17557e-06
-1.15652e-06
9.06852e-06
-2.14756e-06
9.59455e-06
-3.17105e-06
9.90966e-06
-3.0882e-06
9.97088e-06
-2.69501e-06
9.88385e-06
-2.45509e-06
9.42187e-06
-1.9991e-06
8.49773e-06
-1.48831e-06
7.152e-06
-1.0949e-06
5.51323e-06
-7.93461e-07
3.82367e-06
-7.49122e-07
2.11475e-06
-7.53609e-07
4.7688e-07
-8.44947e-07
-1.06053e-06
-9.93356e-07
-2.23801e-06
-1.38621e-06
-2.49496e-06
-2.33689e-06
-1.83041e-06
-3.29424e-06
-7.04484e-07
-3.82622e-06
2.91537e-07
-3.7998e-06
5.83795e-07
-3.19851e-06
5.32772e-07
-2.94829e-06
1.59387e-06
-4.13318e-06
5.22004e-06
-6.76616e-06
9.12526e-06
-7.2345e-06
1.13422e-05
-5.81815e-06
1.54099e-05
-7.62984e-06
1.74183e-05
-5.78182e-06
1.69065e-05
-3.75741e-06
1.56449e-05
-3.31121e-06
1.46755e-05
-3.81624e-06
1.47653e-05
-5.21631e-06
1.52813e-05
-6.10404e-06
1.87209e-05
-9.43255e-06
2.11299e-05
-8.78459e-06
2.17474e-05
-7.3193e-06
2.15208e-05
-6.84377e-06
2.09098e-05
-6.74626e-06
2.01946e-05
-6.95159e-06
1.99763e-05
-7.85522e-06
2.00318e-05
-8.54311e-06
1.97352e-05
-8.50248e-06
1.92184e-05
-8.62062e-06
1.89024e-05
-9.26436e-06
1.84687e-05
-9.39531e-06
1.84593e-05
-1.01089e-05
1.88662e-05
-1.07907e-05
1.88533e-05
-1.05105e-05
1.90149e-05
-1.08553e-05
1.93618e-05
-1.11905e-05
1.89265e-05
-1.07562e-05
1.79467e-05
-1.06554e-05
1.72219e-05
-1.13714e-05
1.60639e-05
-1.11059e-05
1.55137e-05
-1.2333e-05
1.33236e-05
-1.10489e-05
1.30873e-05
-1.29744e-05
9.24575e-06
-8.86377e-06
1.89211e-06
-5.42999e-06
-1.02671e-06
-1.04097e-05
-2.07568e-07
-1.44924e-05
1.35331e-06
-1.55463e-05
2.15889e-07
-1.3234e-05
-2.99998e-06
-1.10603e-05
-7.68883e-06
-9.54395e-06
-1.19092e-05
-9.95124e-06
-1.45167e-05
-1.13305e-05
-1.59578e-05
-1.20055e-05
-1.71016e-05
-1.17514e-05
-1.80868e-05
-1.14369e-05
-1.89168e-05
-1.11194e-05
-2.00731e-05
-1.02973e-05
-2.17741e-05
-9.24449e-06
-2.39598e-05
-8.30853e-06
-8.96015e-06
-2.51321e-05
-6.53178e-09
3.72003e-07
-4.63123e-08
3.53371e-07
1.27502e-07
-1.56207e-07
5.23771e-07
-6.67201e-07
1.07246e-06
-1.01823e-06
1.67157e-06
-1.21096e-06
2.2927e-06
-1.3203e-06
2.9162e-06
-1.3379e-06
3.52313e-06
-1.3138e-06
4.16392e-06
-1.33732e-06
4.84359e-06
-1.33854e-06
5.48452e-06
-1.26601e-06
6.13079e-06
-1.28571e-06
6.78727e-06
-1.22386e-06
7.37114e-06
-1.038e-06
7.87935e-06
-9.48201e-07
8.31278e-06
-7.25369e-07
8.65163e-06
-5.09703e-07
8.88806e-06
-3.52955e-07
9.01049e-06
-1.60593e-08
9.02978e-06
2.10896e-07
8.94733e-06
4.00504e-07
8.77486e-06
7.53863e-07
8.50454e-06
9.13052e-07
8.21976e-06
1.02142e-06
8.07135e-06
1.18506e-06
7.73933e-06
1.24353e-06
7.02603e-06
1.29308e-06
6.4809e-06
1.01697e-06
6.36853e-06
4.83834e-07
6.23215e-06
2.6615e-07
5.8756e-06
3.28584e-07
5.74046e-06
4.06123e-08
6.34996e-06
-8.5573e-07
7.38091e-06
-1.3143e-06
8.27525e-06
-9.70384e-07
8.85661e-06
-6.49058e-07
8.86646e-06
-4.93167e-07
8.11428e-06
-7.78468e-08
6.89632e-06
4.89312e-07
5.57831e-06
8.47779e-07
4.40659e-06
9.11621e-07
3.56089e-06
8.40157e-07
3.04168e-06
7.7134e-07
2.74999e-06
7.10426e-07
2.57619e-06
6.06839e-07
2.43479e-06
5.02456e-07
2.31444e-06
3.83065e-07
2.21632e-06
2.65646e-07
2.13542e-06
1.7027e-07
2.09121e-06
7.23512e-08
2.06799e-06
-1.95645e-08
2.06153e-06
-9.64147e-08
2.08274e-06
-1.68668e-07
2.13078e-06
-2.23086e-07
2.17283e-06
-2.58006e-07
2.18001e-06
-2.62949e-07
2.15469e-06
-2.56671e-07
2.0716e-06
-2.17651e-07
1.91866e-06
-1.61536e-07
1.72307e-06
-1.15698e-07
1.49726e-06
-8.99692e-08
1.28383e-06
-8.70298e-08
1.09013e-06
-1.26652e-07
9.67262e-07
-2.03294e-07
9.24425e-07
-3.29628e-07
9.00845e-07
-4.03758e-07
8.93541e-07
-4.62535e-07
9.16361e-07
-5.43467e-07
9.83201e-07
-6.43102e-07
1.12913e-06
-7.91111e-07
1.36813e-06
-9.75967e-07
1.69752e-06
-1.16737e-06
2.09585e-06
-1.34459e-06
2.49605e-06
-1.41806e-06
2.88885e-06
-1.47427e-06
3.28306e-06
-1.53272e-06
3.7096e-06
-1.61631e-06
4.1878e-06
-1.74734e-06
4.7603e-06
-1.90412e-06
5.37602e-06
-2.04572e-06
6.03823e-06
-2.22361e-06
6.76193e-06
-2.43482e-06
7.53872e-06
-2.61617e-06
8.37289e-06
-2.82414e-06
9.35373e-06
-3.1811e-06
1.05642e-05
-3.52524e-06
1.1761e-05
-3.45823e-06
1.2796e-05
-3.17376e-06
1.34193e-05
-2.59669e-06
1.39256e-05
-2.72276e-06
1.44053e-05
-2.79662e-06
1.47652e-05
-2.7627e-06
1.50706e-05
-2.7725e-06
1.54971e-05
-3.14896e-06
1.59635e-05
-3.51479e-06
1.63894e-05
-3.66816e-06
1.68598e-05
-3.90313e-06
1.71277e-05
-3.73915e-06
1.6961e-05
-3.05866e-06
1.65621e-05
-2.67261e-06
1.57816e-05
-2.50904e-06
1.46595e-05
-1.93448e-06
1.39661e-05
-2.2148e-06
1.36671e-05
-3.41742e-06
1.25236e-05
-2.68336e-06
1.13575e-05
-2.08839e-06
1.12722e-05
-4.14265e-06
1.09698e-05
-5.65133e-06
1.02352e-05
-5.52563e-06
9.62411e-06
-4.99515e-06
8.842e-06
-4.36742e-06
7.67572e-06
-3.4917e-06
6.33577e-06
-2.63346e-06
4.72706e-06
-1.97335e-06
2.69219e-06
-1.33323e-06
1.53905e-07
-7.86949e-07
-2.40917e-06
-7.85622e-07
-4.69347e-06
-1.23632e-06
-6.0878e-06
-2.26345e-06
-6.15916e-06
-3.87786e-06
-5.47939e-06
-5.5647e-06
-4.39929e-06
-7.02482e-06
-3.29066e-06
-7.76148e-06
-2.52338e-06
-7.44899e-06
-1.92683e-06
-6.73037e-06
-1.07186e-06
-6.78827e-06
9.47317e-07
-9.18813e-06
4.65477e-06
-1.37356e-05
8.7582e-06
-1.47665e-05
1.1446e-05
-1.23467e-05
1.52631e-05
-1.53214e-05
1.80564e-05
-1.18533e-05
1.93738e-05
-8.80492e-06
1.92283e-05
-7.68081e-06
1.85756e-05
-8.18229e-06
1.81478e-05
-1.02072e-05
1.75416e-05
-1.17941e-05
2.19093e-05
-1.92672e-05
2.62856e-05
-1.86638e-05
2.78049e-05
-1.5297e-05
2.79098e-05
-1.43627e-05
2.74704e-05
-1.42817e-05
2.63957e-05
-1.41805e-05
2.59014e-05
-1.60804e-05
2.63954e-05
-1.8119e-05
2.61655e-05
-1.77133e-05
2.51441e-05
-1.75648e-05
2.45242e-05
-1.92181e-05
2.39344e-05
-1.97596e-05
2.40554e-05
-2.15814e-05
2.4723e-05
-2.31873e-05
2.42561e-05
-2.20695e-05
2.3777e-05
-2.27333e-05
2.31088e-05
-2.28526e-05
2.16976e-05
-2.2027e-05
2.02105e-05
-2.24186e-05
1.91983e-05
-2.42554e-05
1.69211e-05
-2.3011e-05
1.60407e-05
-2.68135e-05
1.20137e-05
-2.2643e-05
8.86807e-06
-2.39152e-05
3.11373e-06
-1.61539e-05
-3.99378e-06
-1.18392e-05
-6.37961e-06
-2.41325e-05
-4.07108e-06
-3.25699e-05
1.52279e-06
-3.50996e-05
2.29133e-06
-2.9326e-05
-1.72888e-06
-2.2964e-05
-7.35631e-06
-2.05238e-05
-1.18444e-05
-2.24031e-05
-1.391e-05
-2.57018e-05
-1.50105e-05
-2.62295e-05
-1.6442e-05
-2.45197e-05
-1.80441e-05
-2.31386e-05
-2.00537e-05
-2.16966e-05
-2.2555e-05
-1.97555e-05
-2.56818e-05
-1.75207e-05
-2.89147e-05
-1.61325e-05
-1.77876e-05
-3.09984e-05
1.49391e-07
2.37101e-07
4.02015e-07
1.03315e-07
8.19341e-07
-5.68368e-07
1.3104e-06
-1.14863e-06
1.76901e-06
-1.46373e-06
2.1921e-06
-1.6202e-06
2.56981e-06
-1.6808e-06
2.95574e-06
-1.70471e-06
3.40988e-06
-1.75727e-06
3.93129e-06
-1.83496e-06
4.57331e-06
-1.95364e-06
5.26621e-06
-1.96749e-06
5.94302e-06
-1.92911e-06
6.64241e-06
-1.89339e-06
7.26512e-06
-1.66247e-06
7.7763e-06
-1.41011e-06
8.25256e-06
-1.20393e-06
8.58838e-06
-8.19502e-07
8.78349e-06
-4.95196e-07
8.90065e-06
-1.57805e-07
8.87042e-06
3.0069e-07
8.77758e-06
5.49087e-07
8.71356e-06
8.04881e-07
8.51697e-06
1.23224e-06
8.19973e-06
1.48243e-06
7.96136e-06
1.42725e-06
7.6804e-06
1.54768e-06
7.46333e-06
1.66824e-06
7.30253e-06
1.34234e-06
6.91146e-06
9.36053e-07
6.42443e-06
7.79442e-07
6.60136e-06
2.53884e-07
7.23264e-06
-3.8301e-07
7.48287e-06
-8.9185e-07
7.25107e-06
-1.03867e-06
6.52422e-06
-3.38996e-07
5.13175e-06
6.77344e-07
3.43315e-06
1.20817e-06
2.05371e-06
1.32657e-06
1.21993e-06
1.35746e-06
7.74276e-07
1.34004e-06
5.05547e-07
1.23064e-06
3.11574e-07
1.08223e-06
2.01815e-07
9.24482e-07
1.80745e-07
7.68659e-07
1.94392e-07
6.23006e-07
2.18129e-07
5.00237e-07
2.28609e-07
3.84736e-07
2.36596e-07
2.59664e-07
2.52623e-07
1.45143e-07
2.55134e-07
4.79629e-08
2.51472e-07
-5.14333e-08
2.5771e-07
-1.52312e-07
2.74191e-07
-2.49382e-07
3.0337e-07
-3.31533e-07
3.50075e-07
-3.99742e-07
3.9801e-07
-4.2289e-07
4.2789e-07
-4.16946e-07
4.17266e-07
-3.57397e-07
3.45273e-07
-2.60714e-07
2.0406e-07
-1.65922e-07
1.95325e-08
-1.15629e-07
-1.73789e-07
-1.22992e-07
-2.74662e-07
-2.74077e-07
-2.23472e-07
-5.18253e-07
-4.41791e-08
-7.8578e-07
1.76648e-07
-9.15915e-07
3.90828e-07
-9.85676e-07
5.68413e-07
-1.04865e-06
8.30302e-07
-1.24891e-06
1.1711e-06
-1.49093e-06
1.56959e-06
-1.74864e-06
1.99436e-06
-1.98161e-06
2.42772e-06
-2.18264e-06
2.86588e-06
-2.2802e-06
3.3054e-06
-2.36094e-06
3.71883e-06
-2.41567e-06
4.17592e-06
-2.56085e-06
4.72194e-06
-2.79701e-06
5.33256e-06
-3.04144e-06
6.00851e-06
-3.28509e-06
6.63217e-06
-3.45178e-06
7.19789e-06
-3.63023e-06
7.75874e-06
-3.81357e-06
8.31068e-06
-4.03586e-06
8.86128e-06
-4.39587e-06
9.6541e-06
-4.93206e-06
1.06426e-05
-5.00862e-06
1.18118e-05
-4.85379e-06
1.28091e-05
-4.18777e-06
1.36313e-05
-4.28944e-06
1.44797e-05
-4.43525e-06
1.52212e-05
-4.36728e-06
1.58044e-05
-4.41651e-06
1.63264e-05
-4.99124e-06
1.6918e-05
-5.55905e-06
1.74934e-05
-5.77111e-06
1.80257e-05
-5.99754e-06
1.85579e-05
-5.73492e-06
1.89321e-05
-4.80842e-06
1.90206e-05
-4.30232e-06
1.83862e-05
-3.8891e-06
1.70518e-05
-2.85736e-06
1.61868e-05
-3.48248e-06
1.53858e-05
-4.93492e-06
1.38352e-05
-3.59062e-06
1.26782e-05
-3.08694e-06
1.17271e-05
-5.50129e-06
9.89939e-06
-6.63756e-06
8.42451e-06
-6.81929e-06
7.3322e-06
-6.48687e-06
6.05249e-06
-5.6367e-06
4.7719e-06
-4.82118e-06
3.30582e-06
-3.81225e-06
1.52154e-06
-2.89741e-06
-6.00873e-07
-1.92209e-06
-3.04951e-06
-1.02701e-06
-5.3204e-06
-1.22297e-06
-6.78679e-06
-2.42375e-06
-7.09743e-06
-4.51787e-06
-6.39437e-06
-7.11572e-06
-5.33756e-06
-9.33044e-06
-4.5636e-06
-1.08868e-05
-3.85225e-06
-1.15336e-05
-2.80424e-06
-1.14484e-05
-1.47852e-06
-1.09951e-05
4.03787e-08
-1.12244e-05
2.18013e-06
-1.44753e-05
4.24459e-06
-1.94621e-05
7.322e-06
-2.15612e-05
1.10195e-05
-2.01231e-05
1.41894e-05
-2.32384e-05
1.62843e-05
-1.79909e-05
1.77338e-05
-1.38883e-05
1.8337e-05
-1.25413e-05
1.8047e-05
-1.2959e-05
1.73602e-05
-1.49378e-05
1.5423e-05
-1.64458e-05
1.86123e-05
-2.71957e-05
2.53194e-05
-2.79152e-05
2.88428e-05
-2.28002e-05
2.95448e-05
-2.13346e-05
2.97785e-05
-2.20071e-05
2.87463e-05
-2.149e-05
2.67651e-05
-2.31597e-05
2.77273e-05
-2.75709e-05
2.86437e-05
-2.74011e-05
2.70151e-05
-2.60113e-05
2.56566e-05
-2.82391e-05
2.44669e-05
-2.9313e-05
2.44292e-05
-3.21477e-05
2.6239e-05
-3.54327e-05
2.64414e-05
-3.40255e-05
2.64384e-05
-3.52846e-05
2.63189e-05
-3.52735e-05
2.42776e-05
-3.36538e-05
2.18195e-05
-3.38612e-05
2.10206e-05
-3.6231e-05
1.82825e-05
-3.35483e-05
1.76066e-05
-4.14414e-05
1.08752e-05
-3.22263e-05
5.76014e-06
-3.21576e-05
4.9193e-07
-2.61776e-05
-3.73716e-06
-2.39672e-05
-5.42977e-06
-4.20502e-05
-7.12622e-06
-5.12344e-05
-2.48405e-06
-5.65136e-05
3.56537e-06
-4.92374e-05
5.75637e-07
-3.59668e-05
-5.05043e-06
-3.25182e-05
-9.78111e-06
-3.57767e-05
-1.17524e-05
-4.0481e-05
-1.31243e-05
-4.0128e-05
-1.52814e-05
-3.656e-05
-1.82414e-05
-3.33801e-05
-2.16017e-05
-3.07858e-05
-2.5055e-05
-2.81347e-05
-2.85015e-05
-2.54452e-05
-3.13869e-05
-2.45487e-05
-2.70149e-05
-3.35505e-05
2.061e-07
5.47809e-08
6.16298e-07
-2.95144e-07
1.06268e-06
-1.001e-06
1.41581e-06
-1.48498e-06
1.63874e-06
-1.66776e-06
1.80959e-06
-1.77007e-06
2.05014e-06
-1.89968e-06
2.41236e-06
-2.04213e-06
2.93353e-06
-2.25035e-06
3.57514e-06
-2.46097e-06
4.28545e-06
-2.64393e-06
5.08136e-06
-2.7406e-06
5.81637e-06
-2.64227e-06
6.43476e-06
-2.47346e-06
7.04875e-06
-2.2699e-06
7.60339e-06
-1.90491e-06
8.04451e-06
-1.60219e-06
8.29018e-06
-1.07997e-06
8.48761e-06
-6.27911e-07
8.55486e-06
-2.25568e-07
8.40078e-06
4.36107e-07
8.16362e-06
8.89368e-07
7.86913e-06
1.11802e-06
7.49487e-06
1.53129e-06
7.24528e-06
1.84058e-06
7.16958e-06
1.77785e-06
7.08421e-06
1.7759e-06
6.80877e-06
1.90083e-06
6.3326e-06
1.82874e-06
6.11883e-06
1.35532e-06
6.63335e-06
5.98249e-07
7.26563e-06
-1.30729e-07
6.97842e-06
-1.33737e-07
5.26465e-06
6.81614e-07
2.97808e-06
1.22458e-06
1.18429e-06
1.49294e-06
1.64473e-07
1.74313e-06
-4.35982e-07
1.86097e-06
-8.69043e-07
1.8186e-06
-1.13151e-06
1.68156e-06
-1.21742e-06
1.48599e-06
-1.20484e-06
1.27422e-06
-1.11223e-06
1.04029e-06
-9.70208e-07
8.26878e-07
-8.1312e-07
6.48678e-07
-6.44143e-07
4.82962e-07
-4.62763e-07
3.38695e-07
-2.949e-07
2.26554e-07
-1.44622e-07
1.09588e-07
8.05523e-09
-1.80984e-08
1.40748e-07
-1.06564e-07
2.62353e-07
-2.07727e-07
3.70011e-07
-3.08709e-07
4.53482e-07
-3.96567e-07
4.99574e-07
-4.56895e-07
5.02918e-07
-4.98147e-07
5.05607e-07
-5.37226e-07
5.18397e-07
-5.58952e-07
5.81515e-07
-5.68839e-07
6.89614e-07
-5.38189e-07
7.73584e-07
-4.42005e-07
7.84565e-07
-3.42922e-07
7.07649e-07
-2.84902e-07
5.6425e-07
-3.89799e-07
4.64487e-07
-6.94676e-07
4.61073e-07
-1.07024e-06
6.08464e-07
-1.35992e-06
8.61135e-07
-1.54569e-06
1.21631e-06
-1.7271e-06
1.52175e-06
-1.89685e-06
1.8415e-06
-2.17244e-06
2.18284e-06
-2.46884e-06
2.5596e-06
-2.75263e-06
3.00226e-06
-3.03701e-06
3.47705e-06
-3.19077e-06
3.99648e-06
-3.34615e-06
4.53218e-06
-3.45091e-06
5.12973e-06
-3.69196e-06
5.71464e-06
-3.94687e-06
6.3696e-06
-4.28116e-06
7.04284e-06
-4.56649e-06
7.68721e-06
-4.74467e-06
8.24553e-06
-4.9103e-06
8.63762e-06
-4.99298e-06
8.91869e-06
-5.13816e-06
9.03928e-06
-5.36155e-06
9.27249e-06
-5.99771e-06
9.86972e-06
-6.36936e-06
1.08092e-05
-6.50676e-06
1.18167e-05
-5.98404e-06
1.27236e-05
-6.08191e-06
1.37019e-05
-6.29675e-06
1.46455e-05
-6.21287e-06
1.54936e-05
-6.31405e-06
1.60728e-05
-6.86801e-06
1.66312e-05
-7.54301e-06
1.73181e-05
-7.94742e-06
1.78674e-05
-8.16391e-06
1.8387e-05
-7.98078e-06
1.91416e-05
-7.11014e-06
1.98244e-05
-6.28778e-06
1.94781e-05
-5.24633e-06
1.87544e-05
-4.27947e-06
1.8592e-05
-5.17318e-06
1.72972e-05
-5.67391e-06
1.4881e-05
-3.77808e-06
1.36383e-05
-4.14446e-06
1.22565e-05
-6.44841e-06
9.88813e-06
-7.16981e-06
7.72626e-06
-7.56903e-06
5.7023e-06
-7.17588e-06
3.6413e-06
-6.29526e-06
1.74394e-06
-5.76318e-06
-2.41573e-09
-4.89847e-06
-2.04502e-06
-3.69273e-06
-4.14183e-06
-2.63832e-06
-5.93991e-06
-1.99452e-06
-7.13554e-06
-2.75399e-06
-7.39434e-06
-4.81048e-06
-6.73527e-06
-7.8551e-06