/*--------------------------------*- C++ -*----------------------------------*\
| =========                 |                                                 |
| \\      /  F ield         | OpenFOAM: The Open Source CFD Toolbox           |
|  \\    /   O peration     | Version:  dev                                   |
|   \\  /    A nd           | Web:      http://www.openfoam.org               |
|    \\/     M anipulation  |                                                 |
\*---------------------------------------------------------------------------*/
FoamFile
{
    version     2.0;
    format      ascii;
    class       volScalarField;
    object      pMean;
    location    "9.139";
}
// * * * * * * * * * * * * * * * * * * * * * * * * * * * * * * * * * * * * * //

dimensions      [1 -1 -2 0 0 0 0];

internalField   nonuniform List<scalar> 
12225
(
98312.3
98292.5
98278.7
98271.7
98257.4
98248
98229.6
98220
98198.5
98189.7
98165
98158.2
98127.2
98120.9
98080.1
98040.4
97951.2
97585.2
98307.7
98291.4
98278.2
98271.2
98256.8
98247.5
98228.9
98219.4
98197.8
98189.3
98164.3
98157.7
98126.8
98119
98078.4
98044.5
97952.1
97791
98304
98289.8
98277.2
98269.8
98255.4
98246
98227.4
98218.1
98196.4
98187.8
98163.5
98155.6
98127.4
98115.6
98080.7
98045.4
97978
97889.2
98298.9
98286.9
98275
98267.3
98253
98243.3
98225.3
98215.4
98194.6
98185.2
98162.1
98152.5
98126.3
98113.4
98081.6
98053.8
98005.3
97936.5
98292.3
98282.5
98271.5
98263.3
98249.4
98239.1
98222.3
98211.2
98192.2
98180.9
98160.6
98148
98126.5
98110.2
98083.5
98059.3
98019.4
97986.7
98284
98276.3
98265.6
98257.3
98243.8
98233.2
98217.1
98205.5
98187.8
98175.6
98157.4
98143.8
98125.4
98108.5
98087.1
98061.8
98039.6
98019.2
98273.7
98267.4
98257.1
98248.6
98236
98224.8
98210
98197.5
98181.7
98168.2
98152.8
98137.7
98123.2
98105.6
98091.3
98070.3
98060
98045.1
98263
98257.3
98247.7
98239
98227.3
98215.7
98202.2
98189
98175
98160.6
98147.5
98131.9
98120.3
98103
98094.3
98076.5
98074.7
98059.8
98252.2
98246.7
98237.9
98229
98218.1
98206.4
98193.8
98180.4
98167.7
98153.1
98141.7
98126.2
98116.5
98100.5
98094.2
98080
98079.7
98067.8
98238.5
98233.1
98225.4
98216.4
98206.5
98194.7
98183.1
98169.7
98158.4
98143.8
98133.9
98118.9
98110.7
98096.3
98091.4
98079.6
98078.8
98070.5
98221.6
98216.1
98209.6
98200.8
98191.7
98180.2
98169.4
98156.5
98146
98132.4
98123
98109.9
98101.8
98090.3
98084.7
98076.1
98073.5
98068.3
98201.1
98195.4
98190.1
98181.7
98173.3
98162.2
98152.4
98140.1
98130.5
98117.9
98109.3
98097.8
98090.2
98080.9
98075.2
98068.8
98065.2
98061.6
98176.3
98171
98166.4
98158.9
98151
98141
98131.6
98120.7
98111.5
98100.8
98092.4
98083.1
98075.8
98068.6
98063.2
98058.3
98054.7
98052
98148.1
98143.2
98139.3
98132.7
98125.5
98116.6
98107.9
98098.4
98089.9
98080.9
98073.2
98065.6
98059.2
98053.5
98048.8
98045
98042
98039.9
98117.9
98114.2
98110.4
98105
98098.5
98090.9
98083.1
98075
98067.3
98059.9
98053.2
98047.1
98041.8
98037.2
98033.5
98030.6
98028.4
98026.9
98090.2
98087.4
98084.1
98079.5
98073.9
98067.4
98060.6
98053.8
98047.2
98041
98035.4
98030.4
98026.1
98022.6
98019.7
98017.5
98016
98015
98071.6
98069.6
98066.9
98063
98058
98052.3
98046.4
98040.5
98034.8
98029.5
98024.8
98020.6
98017
98014.1
98011.8
98010.1
98009
98008.4
98071.8
98070.2
98067.6
98063.9
98059.2
98053.8
98048.2
98042.7
98037.3
98032.4
98027.9
98024
98020.6
98017.8
98015.6
98013.9
98012.7
98011.9
98091.6
98089.7
98086.9
98082.9
98078
98072.4
98066.6
98060.8
98055.3
98050
98045.3
98041
98037.2
98034
98031.4
98029.2
98027.5
98026.3
98122.4
98120.2
98116.8
98112.3
98106.9
98100.8
98094.5
98088.1
98082
98076.1
98070.7
98065.8
98061.4
98057.5
98054.2
98051.4
98049
98047
98157.2
98154.6
98150.5
98145.3
98139.3
98132.6
98125.7
98118.7
98111.8
98105.3
98099.2
98093.5
98088.4
98083.7
98079.6
98076
98072.9
98070.2
98191.1
98188
98183.2
98177.3
98170.7
98163.4
98155.9
98148.3
98140.8
98133.6
98126.8
98120.4
98114.5
98109.2
98104.3
98100
98096.2
98092.8
98221.3
98217.7
98212.1
98205.6
98198.4
98190.6
98182.6
98174.5
98166.4
98158.7
98151.3
98144.3
98137.8
98131.8
98126.4
98121.4
98116.9
98112.9
98246.6
98242.3
98236
98228.8
98221.2
98213.1
98204.7
98196.1
98187.7
98179.5
98171.6
98164.1
98157.1
98150.6
98144.7
98139.2
98134.2
98129.7
98266.9
98261.7
98254.5
98246.9
98238.9
98230.5
98221.9
98213.1
98204.3
98195.7
98187.5
98179.6
98172.3
98165.4
98159
98153.2
98147.8
98142.9
98282.6
98276.2
98268.1
98260
98251.8
98243.3
98234.5
98225.6
98216.6
98207.8
98199.3
98191.1
98183.5
98176.3
98169.7
98163.5
98157.9
98152.7
98294.3
98286.5
98277.4
98268.9
98260.7
98252.1
98243.3
98234.2
98225.1
98216.1
98207.5
98199.2
98191.3
98184
98177.1
98170.8
98164.9
98159.5
98303.1
98293.2
98283.2
98274.5
98266.3
98257.8
98248.9
98239.8
98230.6
98221.5
98212.8
98204.4
98196.4
98188.9
98181.9
98175.5
98169.5
98163.9
98309.2
98297
98285.9
98277.3
98269.2
98260.9
98252.1
98243
98233.8
98224.6
98215.8
98207.3
98199.3
98191.7
98184.7
98178.1
98172.1
98166.5
98315.1
98299.6
98287.5
98278.6
98270.5
98262.1
98253.4
98244.3
98235.1
98225.9
98217.1
98208.5
98200.5
98192.9
98185.8
98179.3
98173.2
98167.6
98312.1
98311.7
98311
98309.8
98308.3
98306.5
98304.2
98301.6
98298.6
98295.1
98291.3
98287
98282.4
98277.5
98272.3
98266.8
98261.1
98255.2
98249.1
98242.8
98236.4
98229.8
98223.1
98216.3
98209.4
98202.4
98195.4
98188.3
98181.2
98174.1
98167
98160
98153
98146
98139.1
98132.4
98125.7
98119.2
98112.9
98106.8
98100.9
98095.2
98089.8
98084.6
98079.8
98075.3
98071.2
98067.5
98064.2
98061.4
98059
98057.1
98055.7
98054.8
98054.6
98054.9
98055.9
98057.5
98059.8
98062.7
98066.4
98070.8
98075.9
98081.7
98088.3
98095.5
98103.5
98112.1
98121.5
98131.4
98142
98153.2
98165
98177.3
98190
98203.3
98216.9
98230.9
98245.2
98259.8
98274.6
98289.6
98304.8
98320
98335.3
98350.5
98365.7
98380.8
98395.7
98410.4
98424.8
98439
98452.7
98466.1
98479
98491.4
98503.3
98514.6
98525.4
98535.5
98545
98553.9
98562.1
98569.7
98576.6
98582.9
98588.7
98593.8
98598.4
98602.5
98606.1
98609.3
98612.2
98614.6
98616.8
98618.7
98620.4
98621.8
98623
98624.1
98625.2
98626.3
98627.4
98628.7
98630.3
98632.3
98635
98638.4
98642.8
98648.4
98655.5
98664.2
98674.9
98687.8
98703.2
98721.2
98742
98765.8
98792.6
98822.4
98855.4
98891.3
98930.1
98971.6
99015.9
99062.5
99111.4
99162.1
99214.7
99268.9
99324.4
99380.7
99437.7
99495
99552.2
99608.8
99664.2
99717.9
99768.8
99816.7
99860.1
99898.4
99930.4
99955.4
99972.1
99979.6
99976.9
99963.9
99939.8
99905.1
99859.7
99804.9
99741
99670.3
99593.3
99512.8
99428.3
99343.7
99256.9
99173.8
98305.1
98304.8
98304
98302.8
98301.3
98299.4
98297.2
98294.6
98291.6
98288.2
98284.4
98280.3
98275.8
98271
98265.9
98260.6
98255.1
98249.3
98243.4
98237.3
98231.1
98224.7
98218.2
98211.5
98204.8
98198
98191.1
98184.2
98177.3
98170.3
98163.4
98156.5
98149.6
98142.8
98136.1
98129.5
98123
98116.6
98110.4
98104.4
98098.6
98093.1
98087.7
98082.7
98078
98073.6
98069.5
98065.9
98062.6
98059.8
98057.4
98055.5
98054.1
98053.2
98052.9
98053.2
98054.1
98055.7
98057.9
98060.8
98064.3
98068.6
98073.6
98079.3
98085.7
98092.8
98100.6
98109.1
98118.3
98128
98138.5
98149.4
98161
98173.1
98185.6
98198.6
98212
98225.8
98239.9
98254.2
98268.8
98283.6
98298.5
98313.4
98328.4
98343.4
98358.3
98373.1
98387.7
98402.2
98416.3
98430.1
98443.6
98456.7
98469.3
98481.4
98493.1
98504.1
98514.6
98524.5
98533.8
98542.4
98550.4
98557.8
98564.6
98570.7
98576.3
98581.3
98585.8
98589.8
98593.3
98596.4
98599.2
98601.6
98603.7
98605.5
98607.1
98608.5
98609.7
98610.7
98611.7
98612.7
98613.7
98614.9
98616.3
98618.2
98620.6
98623.7
98627.8
98633.1
98639.8
98648
98658.3
98670.6
98685.3
98702.7
98722.8
98745.7
98771.7
98800.6
98832.7
98867.6
98905.3
98945.8
98989
99034.4
99082.2
99131.7
99183.1
99236.1
99290.4
99345.6
99401.5
99457.8
99513.9
99569.5
99624
99676.9
99727.1
99774.4
99817.4
99855.4
99887.3
99912.5
99929.5
99937.6
99935.7
99923.8
99901
99867.8
99824
99770.9
99708.8
99639.9
99564.7
99485.9
99403
99319.9
99234.1
99149.2
98292.4
98292.1
98291.3
98290.1
98288.5
98286.5
98284.2
98281.6
98278.5
98275.2
98271.5
98267.4
98263.1
98258.5
98253.7
98248.6
98243.4
98238
98232.4
98226.7
98220.8
98214.8
98208.7
98202.4
98196.1
98189.6
98183.1
98176.5
98169.8
98163.2
98156.5
98149.9
98143.3
98136.7
98130.2
98123.9
98117.6
98111.5
98105.5
98099.7
98094.1
98088.8
98083.6
98078.7
98074.1
98069.8
98065.9
98062.3
98059.1
98056.3
98053.9
98052
98050.6
98049.6
98049.3
98049.5
98050.3
98051.7
98053.8
98056.5
98059.9
98064
98068.7
98074.2
98080.3
98087.1
98094.7
98102.8
98111.7
98121.1
98131.2
98141.8
98153
98164.7
98176.9
98189.4
98202.4
98215.7
98229.4
98243.3
98257.4
98271.7
98286.1
98300.6
98315.1
98329.5
98343.9
98358.2
98372.2
98386.1
98399.7
98413
98425.9
98438.4
98450.5
98462
98473.1
98483.7
98493.6
98503.1
98511.9
98520.1
98527.7
98534.7
98541.1
98547
98552.2
98557
98561.2
98565
98568.4
98571.3
98573.9
98576.2
98578.2
98579.9
98581.3
98582.6
98583.6
98584.5
98585.3
98586
98586.8
98587.7
98588.8
98590.2
98592.2
98594.7
98598.2
98602.7
98608.6
98616
98625.2
98636.4
98649.9
98665.8
98684.5
98705.9
98730.2
98757.3
98787.4
98820.3
98855.9
98894.2
98935.2
98978.3
99023.7
99070.9
99120
99170.6
99222.6
99275.5
99329.1
99383.2
99437.2
99490.8
99543.4
99594.5
99643.2
99689
99731
99768.2
99799.6
99824.6
99842.1
99850.9
99850.4
99840.2
99819.7
99789.2
99748.5
99698.8
99640.2
99575.1
99503.4
99428.2
99348.7
99268.8
99185.9
99102
98275
98274.7
98273.9
98272.7
98271.1
98269.1
98266.8
98264.1
98261.1
98257.8
98254.2
98250.3
98246.1
98241.8
98237.2
98232.5
98227.6
98222.6
98217.4
98212.1
98206.7
98201.2
98195.5
98189.7
98183.8
98177.9
98171.8
98165.7
98159.5
98153.3
98147.1
98140.9
98134.8
98128.6
98122.5
98116.5
98110.6
98104.8
98099.2
98093.6
98088.3
98083.1
98078.2
98073.5
98069
98064.9
98061.1
98057.6
98054.5
98051.7
98049.4
98047.5
98046
98045
98044.5
98044.6
98045.3
98046.5
98048.4
98050.9
98054
98057.8
98062.2
98067.3
98073.1
98079.5
98086.6
98094.4
98102.8
98111.8
98121.3
98131.5
98142.1
98153.3
98164.9
98176.9
98189.3
98202
98215
98228.2
98241.7
98255.3
98269
98282.7
98296.5
98310.2
98323.9
98337.4
98350.8
98363.9
98376.7
98389.2
98401.4
98413.1
98424.4
98435.3
98445.6
98455.4
98464.7
98473.4
98481.6
98489.2
98496.2
98502.7
98508.6
98514
98518.9
98523.3
98527.2
98530.6
98533.7
98536.4
98538.8
98540.9
98542.7
98544.2
98545.5
98546.5
98547.4
98548
98548.6
98549
98549.4
98549.8
98550.3
98551.2
98552.4
98554.2
98556.8
98560.3
98565
98571.1
98578.8
98588.5
98600.2
98614.3
98630.9
98650.1
98672
98696.6
98724.1
98754.2
98787
98822.3
98860.2
98900.2
98942.4
98986.4
99032.3
99079.7
99128.5
99178.3
99229
99280.1
99331.2
99382.1
99432
99480.7
99527.3
99571.2
99611.5
99647.5
99678.1
99702.8
99720.4
99730
99730.9
99722.8
99705
99677.8
99641
99595.6
99541.6
99481.3
99414.5
99344.1
99269.3
99193.8
99115.1
99035.1
98253.8
98253.5
98252.8
98251.7
98250.1
98248.2
98245.9
98243.3
98240.4
98237.2
98233.7
98230
98226
98221.9
98217.7
98213.3
98208.7
98204.1
98199.4
98194.5
98189.6
98184.5
98179.4
98174.1
98168.8
98163.4
98157.9
98152.3
98146.7
98141.1
98135.5
98129.8
98124.2
98118.6
98113
98107.5
98102
98096.7
98091.4
98086.3
98081.3
98076.5
98071.8
98067.4
98063.2
98059.2
98055.5
98052.2
98049.2
98046.5
98044.2
98042.3
98040.8
98039.7
98039.1
98039.1
98039.5
98040.6
98042.2
98044.4
98047.2
98050.5
98054.6
98059.2
98064.5
98070.5
98077
98084.2
98092
98100.4
98109.4
98118.9
98128.9
98139.3
98150.2
98161.5
98173.1
98185
98197.2
98209.6
98222.2
98235
98247.8
98260.7
98273.5
98286.3
98299.1
98311.7
98324.1
98336.3
98348.2
98359.7
98371
98381.8
98392.2
98402.1
98411.5
98420.4
98428.9
98436.8
98444.1
98451
98457.3
98463.1
98468.5
98473.3
98477.6
98481.5
98485
98488.1
98490.8
98493.2
98495.3
98497.2
98498.7
98499.9
98501
98501.7
98502.3
98502.6
98502.7
98502.7
98502.7
98502.5
98502.5
98502.6
98503
98503.8
98505.2
98507.4
98510.7
98515.3
98521.3
98529
98538.6
98550.4
98564.5
98581.1
98600.1
98621.7
98646
98672.8
98702
98733.8
98768
98804.3
98842.6
98882.9
98924.9
98968.5
99013.6
99059.6
99106.6
99154.2
99201.8
99249.3
99296.1
99341.8
99385.8
99427.3
99465.6
99500
99529.3
99553.4
99571
99581.3
99583.5
99577.6
99562.8
99539.4
99507
99466.5
99418
99363.4
99302.3
99237.9
99168.9
99099
99025.8
98951.2
98230.4
98230.2
98229.5
98228.5
98227
98225.2
98223.1
98220.7
98217.9
98214.9
98211.6
98208.1
98204.4
98200.5
98196.5
98192.5
98188.3
98184
98179.7
98175.2
98170.7
98166.2
98161.5
98156.8
98152
98147.1
98142.2
98137.2
98132.3
98127.2
98122.2
98117.2
98112.1
98107.1
98102.1
98097.2
98092.3
98087.4
98082.7
98078
98073.4
98069
98064.7
98060.6
98056.7
98053
98049.5
98046.3
98043.4
98040.8
98038.6
98036.7
98035.1
98034
98033.3
98033.1
98033.3
98034.1
98035.4
98037.3
98039.7
98042.6
98046.2
98050.4
98055.1
98060.5
98066.4
98073
98080.1
98087.8
98096
98104.7
98113.9
98123.6
98133.6
98144
98154.8
98165.8
98177
98188.5
98200.1
98211.8
98223.6
98235.4
98247.3
98259
98270.7
98282.2
98293.5
98304.6
98315.4
98325.9
98336.1
98345.9
98355.2
98364.1
98372.5
98380.4
98387.9
98394.9
98401.4
98407.4
98412.9
98418
98422.6
98426.7
98430.5
98433.8
98436.8
98439.4
98441.8
98443.8
98445.5
98447
98448.2
98449.1
98449.8
98450.2
98450.4
98450.3
98450
98449.5
98448.9
98448.1
98447.3
98446.5
98446
98445.6
98445.7
98446.6
98448.3
98451
98455
98460.6
98467.8
98477.1
98488.4
98501.9
98517.8
98536
98556.7
98579.8
98605.3
98633
98663.1
98695.3
98729.4
98765.5
98803.4
98842.8
98883.6
98925.6
98968.5
99012.1
99055.8
99099.6
99142.9
99185.2
99226.1
99264.9
99300.8
99333.2
99361.1
99384.2
99401.6
99412.3
99415.8
99412.1
99400.3
99380.7
99352.8
99317.7
99274.8
99226.4
99171.7
99113.9
99051.4
98988.1
98921.3
98853.3
98205.9
98205.8
98205.2
98204.3
98203
98201.4
98199.5
98197.2
98194.7
98191.9
98188.9
98185.6
98182.2
98178.7
98175
98171.3
98167.4
98163.5
98159.5
98155.5
98151.4
98147.2
98143.1
98138.8
98134.5
98130.2
98125.9
98121.5
98117.1
98112.7
98108.2
98103.8
98099.3
98094.9
98090.5
98086.1
98081.8
98077.5
98073.2
98069
98064.9
98060.9
98057
98053.2
98049.6
98046.2
98042.9
98040
98037.2
98034.7
98032.5
98030.6
98029.1
98027.8
98027
98026.6
98026.7
98027.2
98028.2
98029.7
98031.7
98034.2
98037.3
98040.9
98045
98049.8
98055.1
98060.9
98067.3
98074.2
98081.6
98089.5
98097.8
98106.6
98115.7
98125.1
98134.9
98144.9
98155.1
98165.5
98176
98186.6
98197.3
98208
98218.7
98229.3
98239.7
98250.1
98260.2
98270.1
98279.8
98289.1
98298.1
98306.7
98314.9
98322.6
98330
98336.9
98343.3
98349.3
98354.9
98360
98364.7
98368.9
98372.7
98376.2
98379.3
98382
98384.4
98386.6
98388.4
98390
98391.3
98392.3
98393.1
98393.6
98393.9
98393.9
98393.6
98393.1
98392.3
98391.2
98389.9
98388.4
98386.8
98385.1
98383.4
98381.8
98380.6
98379.8
98379.8
98380.7
98382.6
98385.8
98390.5
98397
98405.4
98415.8
98428.3
98442.9
98459.9
98479
98500.5
98524.1
98549.9
98577.7
98607.5
98639.3
98672.7
98707.7
98744.2
98781.9
98820.4
98859.7
98899.4
98939.3
98978.9
99017.6
99055
99090.7
99124
99154.1
99180.1
99202
99218.7
99229.6
99234.2
99232.4
99223.5
99207.7
99184.2
99154.3
99117.3
99075.1
99027.1
98976.3
98920.8
98864.6
98804.7
98743.9
98181.7
98181.6
98181.2
98180.4
98179.4
98178
98176.3
98174.3
98172
98169.5
98166.8
98163.9
98160.8
98157.6
98154.2
98150.8
98147.3
98143.7
98140.1
98136.4
98132.7
98129
98125.2
98121.5
98117.7
98113.8
98110
98106.1
98102.3
98098.4
98094.5
98090.6
98086.7
98082.8
98078.9
98075.1
98071.2
98067.4
98063.7
98059.9
98056.2
98052.6
98049.1
98045.6
98042.3
98039.2
98036.2
98033.4
98030.7
98028.4
98026.2
98024.3
98022.7
98021.5
98020.5
98020
98019.8
98020.1
98020.7
98021.9
98023.4
98025.5
98028
98031.1
98034.7
98038.7
98043.3
98048.5
98054.1
98060.2
98066.7
98073.7
98081.1
98088.9
98097.1
98105.6
98114.3
98123.2
98132.4
98141.6
98151
98160.5
98170
98179.5
98189
98198.3
98207.6
98216.7
98225.5
98234.2
98242.6
98250.7
98258.4
98265.8
98272.8
98279.5
98285.7
98291.5
98296.9
98301.9
98306.5
98310.7
98314.5
98317.9
98320.9
98323.6
98326
98328.1
98329.9
98331.4
98332.8
98333.8
98334.6
98335.2
98335.5
98335.5
98335.3
98334.9
98334.1
98333
98331.6
98330
98328
98325.6
98323.1
98320.3
98317.5
98314.7
98312
98309.6
98307.8
98306.8
98306.4
98307.3
98309.4
98313.1
98318.5
98325.7
98334.8
98345.9
98359
98374.3
98391.8
98411.2
98432.7
98456.1
98481.5
98509
98538
98568.6
98600.6
98633.9
98668.1
98703.2
98738.7
98774.7
98810.3
98845.2
98879
98911.4
98941.6
98969.2
98992.9
99013.2
99028.9
99039.7
99045
99044.9
99038.4
99025.9
99006.5
98981.6
98950.1
98914.2
98872.9
98829.2
98780.7
98731.9
98679.2
98626.1
98158.9
98158.9
98158.6
98157.9
98157
98155.8
98154.4
98152.6
98150.7
98148.5
98146.1
98143.5
98140.8
98137.9
98134.9
98131.8
98128.7
98125.5
98122.2
98118.9
98115.6
98112.3
98108.9
98105.6
98102.2
98098.9
98095.5
98092.1
98088.7
98085.2
98081.8
98078.4
98075
98071.5
98068.1
98064.8
98061.4
98058
98054.6
98051.3
98047.9
98044.7
98041.4
98038.3
98035.2
98032.3
98029.5
98026.9
98024.4
98022.1
98020
98018.1
98016.5
98015.1
98014
98013.3
98012.9
98012.9
98013.3
98014
98015.2
98016.8
98018.9
98021.4
98024.3
98027.8
98031.7
98036.1
98041
98046.3
98052
98058.1
98064.6
98071.5
98078.6
98086.1
98093.8
98101.7
98109.7
98117.9
98126.1
98134.4
98142.8
98151
98159.3
98167.4
98175.4
98183.2
98190.8
98198.2
98205.3
98212.1
98218.7
98224.8
98230.7
98236.1
98241.2
98245.9
98250.2
98254.1
98257.7
98261
98263.9
98266.5
98268.7
98270.6
98272.3
98273.7
98274.8
98275.8
98276.5
98277
98277.3
98277.3
98277.1
98276.6
98275.9
98274.8
98273.5
98271.8
98269.8
98267.4
98264.6
98261.4
98257.9
98254.1
98250.1
98246
98242
98238
98234.4
98231.4
98228.9
98227.4
98227.1
98228
98230.4
98234.5
98240.2
98247.8
98257.3
98268.8
98282.3
98297.8
98315.1
98334.3
98355.5
98378.7
98403.4
98429.7
98457.4
98486.4
98516.3
98547.2
98578.6
98610.6
98642.2
98673.2
98703.4
98732.2
98759.1
98783.9
98805.2
98823.4
98837.7
98848
98853.6
98854.6
98849.9
98840.2
98824.5
98804.1
98777.7
98747.8
98713
98676.1
98634.7
98593.2
98547.9
98502.6
98138.2
98138.3
98138.1
98137.6
98136.8
98135.9
98134.7
98133.2
98131.6
98129.7
98127.7
98125.4
98123
98120.5
98117.9
98115.2
98112.4
98109.6
98106.7
98103.8
98100.9
98097.9
98095
98092
98089
98086.1
98083.1
98080.1
98077
98074
98071
98067.9
98064.9
98061.9
98058.9
98055.8
98052.8
98049.8
98046.7
98043.7
98040.6
98037.6
98034.7
98031.7
98028.9
98026.1
98023.5
98020.9
98018.5
98016.2
98014.1
98012.2
98010.5
98009.1
98007.9
98007
98006.4
98006.1
98006.2
98006.6
98007.4
98008.6
98010.2
98012.2
98014.6
98017.4
98020.7
98024.4
98028.5
98033.1
98038
98043.3
98048.9
98054.8
98061.1
98067.6
98074.2
98081.1
98088.1
98095.2
98102.3
98109.5
98116.6
98123.7
98130.7
98137.6
98144.4
98150.9
98157.3
98163.4
98169.3
98174.9
98180.2
98185.2
98189.8
98194.1
98198
98201.6
98204.8
98207.7
98210.3
98212.6
98214.6
98216.3
98217.7
98218.9
98219.8
98220.5
98220.9
98221.2
98221.3
98221.2
98220.9
98220.3
98219.5
98218.5
98217.1
98215.4
98213.4
98211.1
98208.3
98205.1
98201.5
98197.5
98193
98188.1
98183
98177.7
98172.3
98166.9
98161.5
98156.6
98152.2
98148.5
98145.6
98144
98143.6
98144.6
98147.1
98151.4
98157.5
98165.4
98175.2
98186.9
98200.4
98215.7
98232.8
98252
98272.7
98294.9
98318.4
98343.3
98369.1
98395.9
98423.4
98451.3
98478.9
98506.1
98532.5
98557.7
98581.3
98603
98621.7
98637.5
98650
98659.1
98664.3
98665.7
98662.5
98654.9
98642.3
98625.8
98604.1
98579.7
98551
98520.5
98485.8
98451.5
98413.3
98375.8
98120.4
98120.5
98120.4
98120
98119.4
98118.7
98117.7
98116.5
98115.2
98113.6
98111.9
98110
98108
98105.8
98103.6
98101.3
98098.9
98096.4
98093.9
98091.4
98088.8
98086.3
98083.7
98081.1
98078.5
98075.9
98073.2
98070.6
98067.9
98065.2
98062.5
98059.8
98057
98054.3
98051.6
98048.8
98046
98043.2
98040.4
98037.6
98034.8
98031.9
98029.1
98026.4
98023.6
98021
98018.4
98015.9
98013.5
98011.2
98009.1
98007.1
98005.4
98003.8
98002.5
98001.4
98000.5
98000
97999.8
97999.9
98000.4
98001.2
98002.3
98003.9
98005.8
98008.1
98010.8
98013.9
98017.3
98021.1
98025.3
98029.8
98034.6
98039.7
98045.1
98050.6
98056.4
98062.2
98068.2
98074.2
98080.3
98086.4
98092.4
98098.4
98104.3
98110
98115.6
98120.9
98126.1
98131
98135.7
98140.1
98144.2
98147.9
98151.4
98154.5
98157.3
98159.8
98162
98163.8
98165.4
98166.8
98167.8
98168.7
98169.2
98169.6
98169.7
98169.6
98169.4
98169
98168.4
98167.6
98166.6
98165.4
98163.9
98162.2
98160.2
98157.8
98155.1
98152
98148.4
98144.5
98140
98135
98129.6
98123.7
98117.6
98111
98104.4
98097.5
98090.7
98084.1
98077.8
98072
98067
98062.8
98059.9
98058.1
98057.7
98059
98061.8
98066.4
98072.8
98081.1
98091
98102.8
98116.3
98131.8
98148.8
98167.3
98186.9
98207.9
98229.9
98252.8
98276.4
98300.3
98324
98347.6
98370.2
98391.6
98411.7
98430.2
98446
98459.2
98469.4
98476.8
98480.8
98482.1
98479.5
98473.6
98463.4
98450.2
98432.5
98413.1
98389.8
98365.2
98336.7
98309.3
98277.9
98248
98105.7
98105.9
98105.8
98105.6
98105.2
98104.6
98103.9
98103
98101.9
98100.6
98099.2
98097.7
98096
98094.3
98092.4
98090.5
98088.4
98086.4
98084.3
98082.1
98080
98077.8
98075.6
98073.3
98071
98068.7
98066.4
98064
98061.6
98059.1
98056.7
98054.2
98051.7
98049.2
98046.6
98044
98041.4
98038.8
98036.1
98033.4
98030.7
98027.9
98025.2
98022.5
98019.8
98017.2
98014.6
98012.1
98009.7
98007.4
98005.2
98003.1
98001.2
97999.5
97998
97996.8
97995.7
97995
97994.5
97994.3
97994.5
97994.9
97995.7
97996.9
97998.3
98000.2
98002.3
98004.8
98007.7
98010.9
98014.4
98018.2
98022.2
98026.6
98031.1
98035.8
98040.7
98045.7
98050.7
98055.8
98060.9
98066
98071
98075.9
98080.7
98085.3
98089.8
98094
98098
98101.8
98105.3
98108.6
98111.5
98114.1
98116.5
98118.5
98120.2
98121.6
98122.8
98123.6
98124.2
98124.5
98124.7
98124.6
98124.3
98123.8
98123.1
98122.2
98121.2
98120
98118.7
98117.1
98115.4
98113.5
98111.4
98108.9
98106.1
98103
98099.5
98095.7
98091.3
98086.5
98081.2
98075.4
98069
98062.2
98055
98047.4
98039.5
98031.4
98023.1
98015
98007
97999.5
97992.5
97986.2
97980.8
97976.6
97973.6
97972.2
97972.2
97973.9
97977.2
97982.4
97989.3
97997.9
98008.2
98020.4
98034
98049.2
98065.3
98082.8
98101.2
98120.4
98140.4
98160.6
98180.5
98200.4
98219.1
98236.7
98253.2
98268.1
98281
98291.2
98298.8
98304
98306.4
98306.6
98304
98299.1
98290.8
98280.2
98266
98250.6
98232
98212.8
98190.1
98168.9
98144
98121.2
98094.3
98094.5
98094.5
98094.4
98094.1
98093.7
98093.2
98092.5
98091.7
98090.7
98089.7
98088.5
98087.2
98085.8
98084.3
98082.8
98081.2
98079.6
98077.9
98076.1
98074.3
98072.5
98070.6
98068.7
98066.7
98064.7
98062.6
98060.4
98058.2
98056
98053.7
98051.4
98049
98046.6
98044.2
98041.7
98039.1
98036.5
98033.9
98031.2
98028.5
98025.8
98023
98020.3
98017.6
98014.9
98012.3
98009.7
98007.2
98004.8
98002.5
98000.3
97998.3
97996.5
97994.8
97993.4
97992.2
97991.2
97990.5
97990.1
97989.9
97990.1
97990.6
97991.4
97992.5
97993.9
97995.6
97997.6
98000
98002.6
98005.5
98008.7
98012.1
98015.8
98019.6
98023.5
98027.6
98031.8
98036
98040.3
98044.5
98048.6
98052.7
98056.6
98060.4
98064.1
98067.5
98070.7
98073.7
98076.4
98078.8
98080.9
98082.8
98084.4
98085.6
98086.6
98087.3
98087.6
98087.7
98087.6
98087.2
98086.6
98085.8
98084.8
98083.6
98082.2
98080.7
98079
98077.2
98075.2
98073
98070.7
98068.2
98065.5
98062.5
98059.3
98055.7
98051.8
98047.6
98042.9
98037.7
98032.1
98026
98019.3
98012.1
98004.4
97996.2
97987.6
97978.6
97969.4
97960
97950.5
97941
97931.9
97923.2
97915
97907.6
97901.2
97896.1
97892.3
97889.9
97889
97889.8
97892.4
97896.5
97902.4
97909.9
97919.1
97929.7
97941.8
97954.9
97969.2
97984.2
98000.2
98016.7
98033.3
98049.7
98065.9
98080.8
98094.6
98107.3
98118.6
98128.1
98135.3
98140
98142.9
98143.1
98141.7
98138.5
98133.8
98126.5
98118
98106.6
98094.6
98079.9
98065.5
98047.9
98032.4
98013.3
97997.2
98085.9
98086.1
98086.2
98086.2
98086
98085.8
98085.5
98085.1
98084.6
98083.9
98083.2
98082.4
98081.5
98080.5
98079.5
98078.4
98077.2
98076
98074.7
98073.3
98071.9
98070.4
98068.9
98067.3
98065.6
98063.8
98061.9
98059.9
98057.9
98055.8
98053.6
98051.4
98049.1
98046.7
98044.3
98041.8
98039.2
98036.6
98033.9
98031.2
98028.4
98025.6
98022.8
98020
98017.1
98014.3
98011.6
98008.9
98006.2
98003.7
98001.3
97998.9
97996.8
97994.8
97993
97991.3
97990
97988.8
97987.9
97987.3
97986.9
97986.8
97987
97987.5
97988.3
97989.4
97990.7
97992.4
97994.3
97996.5
97998.9
98001.6
98004.5
98007.5
98010.7
98014
98017.5
98020.9
98024.4
98027.9
98031.3
98034.7
98037.9
98041
98043.9
98046.6
98049.1
98051.3
98053.3
98055
98056.4
98057.6
98058.4
98059
98059.2
98059.2
98058.8
98058.2
98057.3
98056.2
98054.8
98053.3
98051.5
98049.6
98047.5
98045.3
98042.9
98040.4
98037.7
98034.8
98031.8
98028.7
98025.3
98021.8
98018
98013.9
98009.5
98004.8
97999.7
97994.2
97988.2
97981.8
97974.8
97967.4
97959.4
97950.9
97941.9
97932.4
97922.5
97912.3
97901.9
97891.3
97880.6
97870.1
97859.9
97850.1
97841.1
97833
97825.9
97820.1
97815.7
97812.7
97811.3
97811.6
97813.5
97816.9
97821.9
97828.5
97836.4
97845.7
97856.1
97867.6
97879.7
97892.5
97905.8
97919
97932
97944.6
97955.8
97966
97974.9
97982.5
97988.4
97992.3
97994.1
97994.5
97992.3
97988.9
97984.4
97979.2
97972.5
97965.2
97955.9
97946.6
97935.2
97924.9
97911.8
97901.5
97887.5
97877.7
98079.9
98080.2
98080.4
98080.4
98080.4
98080.4
98080.3
98080.1
98079.9
98079.6
98079.3
98078.9
98078.5
98078
98077.4
98076.8
98076.1
98075.3
98074.4
98073.5
98072.4
98071.3
98070.1
98068.7
98067.3
98065.7
98064
98062.2
98060.3
98058.2
98056.1
98053.9
98051.6
98049.2
98046.7
98044.1
98041.5
98038.7
98035.9
98033.1
98030.2
98027.2
98024.3
98021.3
98018.3
98015.3
98012.4
98009.6
98006.8
98004.1
98001.5
97999
97996.7
97994.5
97992.5
97990.8
97989.2
97987.9
97986.8
97986
97985.5
97985.2
97985.2
97985.4
97986
97986.8
97987.8
97989.2
97990.7
97992.6
97994.6
97996.9
97999.3
98001.9
98004.6
98007.3
98010.2
98013
98015.9
98018.7
98021.5
98024.1
98026.6
98028.9
98031
98032.9
98034.5
98035.9
98037
98037.8
98038.3
98038.5
98038.4
98038
98037.4
98036.4
98035.1
98033.5
98031.7
98029.6
98027.3
98024.8
98022.1
98019.3
98016.4
98013.2
98010
98006.5
98002.9
97999.2
97995.3
97991.3
97987.1
97982.7
97978
97973
97967.8
97962.2
97956.3
97950
97943.3
97936
97928.3
97920.1
97911.4
97902.2
97892.5
97882.3
97871.6
97860.7
97849.4
97837.9
97826.2
97814.6
97803.1
97792.1
97781.8
97772.3
97763.7
97756.2
97750.1
97745.4
97742.2
97740.6
97740.4
97741.8
97744.6
97748.9
97754.5
97761.3
97769.2
97778.2
97787.7
97797.6
97807.7
97817.8
97827.5
97836.5
97844.2
97850.8
97855.9
97859.8
97862.1
97862.5
97861.2
97858.9
97854.3
97848.9
97842.7
97836.5
97829.7
97823.1
97815.2
97808
97799.2
97792.3
97783
97777.2
97767.8
97763.5
98075.5
98075.8
98076.1
98076.2
98076.4
98076.6
98076.7
98076.9
98077.1
98077.3
98077.5
98077.7
98077.8
98077.9
98077.8
98077.7
98077.5
98077.2
98076.7
98076.2
98075.5
98074.7
98073.7
98072.6
98071.4
98069.9
98068.4
98066.7
98064.8
98062.8
98060.7
98058.5
98056.1
98053.6
98051
98048.3
98045.5
98042.7
98039.7
98036.7
98033.6
98030.5
98027.3
98024.1
98021
98017.8
98014.7
98011.6
98008.7
98005.8
98003
98000.4
97997.9
97995.6
97993.5
97991.6
97989.9
97988.5
97987.3
97986.3
97985.6
97985.2
97985
97985.1
97985.4
97986
97986.9
97988
97989.3
97990.8
97992.6
97994.5
97996.5
97998.7
98001
98003.3
98005.7
98008.1
98010.4
98012.6
98014.8
98016.8
98018.6
98020.2
98021.6
98022.8
98023.7
98024.2
98024.5
98024.5
98024.2
98023.6
98022.6
98021.4
98019.8
98018
98015.8
98013.4
98010.6
98007.6
98004.4
98001.1
97997.5
97993.8
97990
97986
97981.8
97977.5
97973
97968.4
97963.7
97958.7
97953.6
97948.2
97942.7
97936.9
97930.8
97924.4
97917.7
97910.6
97903.1
97895.1
97886.6
97877.8
97868.5
97858.7
97848.4
97837.6
97826.3
97814.8
97802.8
97790.5
97778.1
97765.7
97753.3
97741.4
97730
97719.4
97709.5
97700.8
97693.3
97687.2
97682.4
97679.1
97677.2
97676.8
97677.8
97680.2
97683.7
97688.4
97694.1
97700.9
97708
97715.1
97722.2
97729.1
97735.7
97741.4
97745.8
97748.9
97750.2
97750.4
97748.9
97746
97741.5
97736.3
97729.3
97721.6
97713.6
97706.2
97698.8
97692.4
97685.2
97679.6
97672.8
97668.7
97662.4
97660.7
97655.3
97655.9
98071.8
98072
98072.2
98072.3
98072.6
98073.1
98073.7
98074.5
98075.3
98076.3
98077.1
98078
98078.8
98079.5
98080.1
98080.5
98080.8
98080.9
98080.9
98080.7
98080.4
98079.8
98079.1
98078.2
98077.1
98075.8
98074.4
98072.7
98070.9
98068.9
98066.7
98064.4
98062
98059.4
98056.7
98053.9
98050.9
98047.9
98044.7
98041.5
98038.2
98034.9
98031.6
98028.2
98024.8
98021.5
98018.2
98014.9
98011.8
98008.7
98005.8
98003.1
98000.5
97998
97995.8
97993.8
97992
97990.4
97989.1
97988
97987.2
97986.7
97986.4
97986.3
97986.5
97987
97987.7
97988.6
97989.7
97991.1
97992.6
97994.2
97996
97997.9
97999.8
98001.8
98003.8
98005.7
98007.5
98009.3
98010.9
98012.4
98013.6
98014.6
98015.4
98015.9
98016.1
98016
98015.6
98014.9
98013.8
98012.4
98010.7
98008.6
98006.3
98003.6
98000.6
97997.3
97993.8
97990
97985.9
97981.7
97977.3
97972.7
97968
97963.2
97958.1
97953
97947.7
97942.2
97936.6
97930.7
97924.7
97918.5
97912.1
97905.4
97898.5
97891.3
97883.8
97876
97867.7
97859.1
97850.1
97840.6
97830.8
97820.4
97809.6
97798.4
97786.7
97774.7
97762.1
97749.3
97736.3
97723.3
97710.3
97697.7
97685.6
97674.1
97663.2
97653.5
97644.8
97637.5
97631.3
97626.6
97623.3
97621.5
97620.9
97621.7
97623.3
97626.1
97629.9
97634.4
97639.4
97644
97648.3
97652.2
97655.7
97658.3
97659.5
97659.2
97656.9
97653.3
97648.2
97641.9
97634.2
97626
97616.6
97606.7
97596.9
97588.1
97579.8
97573.1
97566.3
97561.7
97556.5
97554.5
97550.7
97552.5
97550.7
97555.6
98066.9
98066.9
98066.9
98067.3
98068
98069.3
98070.7
98072.5
98074.2
98076.1
98077.8
98079.5
98081.1
98082.5
98083.6
98084.6
98085.4
98086
98086.3
98086.4
98086.3
98086
98085.5
98084.8
98083.8
98082.6
98081.2
98079.6
98077.8
98075.8
98073.6
98071.2
98068.7
98066
98063.1
98060.2
98057.1
98053.8
98050.5
98047.1
98043.7
98040.2
98036.6
98033.1
98029.5
98026
98022.5
98019.1
98015.8
98012.7
98009.6
98006.7
98004
98001.5
97999.2
97997
97995.2
97993.5
97992.2
97991
97990.1
97989.5
97989.1
97989
97989.1
97989.5
97990
97990.8
97991.8
97993
97994.4
97995.8
97997.3
97999
98000.6
98002.2
98003.9
98005.4
98006.8
98008.2
98009.3
98010.3
98011
98011.5
98011.7
98011.6
98011.2
98010.5
98009.4
98008
98006.3
98004.2
98001.7
97998.9
97995.8
97992.4
97988.7
97984.7
97980.3
97975.7
97970.9
97965.9
97960.7
97955.3
97949.8
97944.1
97938.3
97932.4
97926.2
97919.9
97913.5
97906.8
97900
97892.9
97885.7
97878.3
97870.6
97862.7
97854.5
97845.9
97837.1
97827.8
97818.3
97808.4
97798
97787.3
97776.1
97764.5
97752.5
97740.1
97727.2
97714
97700.5
97687.1
97673.8