/*--------------------------------*- C++ -*----------------------------------*\
| =========                 |                                                 |
| \\      /  F ield         | OpenFOAM: The Open Source CFD Toolbox           |
|  \\    /   O peration     | Version:  dev                                   |
|   \\  /    A nd           | Web:      http://www.openfoam.org               |
|    \\/     M anipulation  |                                                 |
\*---------------------------------------------------------------------------*/
FoamFile
{
    version     2.0;
    format      ascii;
    class       volScalarField;
    object      pPrime2Mean;
    location    "9.139";
}
// * * * * * * * * * * * * * * * * * * * * * * * * * * * * * * * * * * * * * //

dimensions      [2 -2 -4 0 0 0 0];

internalField   nonuniform List<scalar> 
12225
(
5.03783e+07
4.99131e+07
4.8952e+07
4.76004e+07
4.59462e+07
4.40787e+07
4.20571e+07
3.99536e+07
3.78089e+07
3.56712e+07
3.35781e+07
3.15326e+07
2.96087e+07
2.77372e+07
2.59893e+07
2.44285e+07
2.28665e+07
2.12871e+07
5.02705e+07
4.98052e+07
4.8845e+07
4.74951e+07
4.58422e+07
4.39771e+07
4.19584e+07
3.98575e+07
3.77168e+07
3.55817e+07
3.34933e+07
3.14515e+07
2.95322e+07
2.76675e+07
2.59371e+07
2.43764e+07
2.28674e+07
2.15333e+07
5.00203e+07
4.95557e+07
4.8596e+07
4.72491e+07
4.56007e+07
4.37404e+07
4.17284e+07
3.96338e+07
3.75012e+07
3.53742e+07
3.32942e+07
3.12641e+07
2.93509e+07
2.75034e+07
2.57929e+07
2.4237e+07
2.28018e+07
2.15887e+07
4.95846e+07
4.9123e+07
4.81655e+07
4.68238e+07
4.51835e+07
4.33316e+07
4.13313e+07
3.92471e+07
3.71293e+07
3.50158e+07
3.29517e+07
3.09394e+07
2.90434e+07
2.72153e+07
2.55344e+07
2.40031e+07
2.26166e+07
2.15157e+07
4.89195e+07
4.8458e+07
4.75053e+07
4.61731e+07
4.45446e+07
4.27073e+07
4.07228e+07
3.8658e+07
3.65591e+07
3.44698e+07
3.24259e+07
3.04444e+07
2.8571e+07
2.67789e+07
2.51503e+07
2.36413e+07
2.236e+07
2.12956e+07
4.79703e+07
4.75062e+07
4.6563e+07
4.52442e+07
4.36336e+07
4.18161e+07
3.98563e+07
3.78171e+07
3.57484e+07
3.36887e+07
3.16791e+07
2.97318e+07
2.78966e+07
2.61511e+07
2.45719e+07
2.31325e+07
2.19055e+07
2.0849e+07
4.66752e+07
4.62099e+07
4.52822e+07
4.39797e+07
4.23952e+07
4.06033e+07
3.86792e+07
3.66733e+07
3.46476e+07
3.26268e+07
3.06656e+07
2.87639e+07
2.69801e+07
2.52924e+07
2.37702e+07
2.23909e+07
2.12222e+07
2.01943e+07
4.52331e+07
4.47693e+07
4.3858e+07
4.25733e+07
4.10176e+07
3.92553e+07
3.73697e+07
3.54029e+07
3.34224e+07
3.14479e+07
2.95365e+07
2.76884e+07
2.59561e+07
2.43316e+07
2.28579e+07
2.15418e+07
2.04058e+07
1.94459e+07
4.37182e+07
4.32579e+07
4.23628e+07
4.10979e+07
3.95718e+07
3.7842e+07
3.59957e+07
3.40713e+07
3.2137e+07
3.0212e+07
2.83516e+07
2.65592e+07
2.48807e+07
2.33169e+07
2.18953e+07
2.06352e+07
1.95412e+07
1.86425e+07
4.17779e+07
4.13244e+07
4.04487e+07
3.92114e+07
3.77217e+07
3.60359e+07
3.42385e+07
3.23702e+07
3.04931e+07
2.86331e+07
2.68355e+07
2.51147e+07
2.35022e+07
2.20132e+07
2.06579e+07
1.94655e+07
1.84282e+07
1.75754e+07
3.93291e+07
3.88856e+07
3.80335e+07
3.6833e+07
3.53891e+07
3.37604e+07
3.2025e+07
3.02277e+07
2.84239e+07
2.66441e+07
2.49269e+07
2.3292e+07
2.17634e+07
2.03604e+07
1.90882e+07
1.79726e+07
1.70022e+07
1.61956e+07
3.63056e+07
3.5877e+07
3.5053e+07
3.39015e+07
3.25148e+07
3.09594e+07
2.93014e+07
2.75932e+07
2.58799e+07
2.4199e+07
2.25799e+07
2.10481e+07
1.96203e+07
1.83167e+07
1.71411e+07
1.61098e+07
1.52151e+07
1.44617e+07
3.26924e+07
3.22824e+07
3.14949e+07
3.04045e+07
2.90901e+07
2.76236e+07
2.60614e+07
2.44598e+07
2.28567e+07
2.12923e+07
1.979e+07
1.83773e+07
1.70659e+07
1.58746e+07
1.48054e+07
1.38678e+07
1.30564e+07
1.23681e+07
2.85807e+07
2.81935e+07
2.74527e+07
2.64346e+07
2.52086e+07
2.38456e+07
2.23974e+07
2.09179e+07
1.94429e+07
1.80094e+07
1.664e+07
1.53579e+07
1.41751e+07
1.31044e+07
1.21489e+07
1.13115e+07
1.05888e+07
9.97464e+06
2.4256e+07
2.38952e+07
2.32105e+07
2.22732e+07
2.11473e+07
1.98986e+07
1.85759e+07
1.72288e+07
1.58914e+07
1.45968e+07
1.33663e+07
1.22194e+07
1.1167e+07
1.02179e+07
9.37483e+06
8.63762e+06
8.00311e+06
7.46462e+06
2.03089e+07
1.99768e+07
1.93517e+07
1.84961e+07
1.74716e+07
1.6336e+07
1.51371e+07
1.39181e+07
1.27125e+07
1.15486e+07
1.0447e+07
9.42329e+06
8.48756e+06
7.64584e+06
6.90002e+06
6.24882e+06
5.68908e+06
5.21457e+06
1.77433e+07
1.74368e+07
1.68618e+07
1.60741e+07
1.5132e+07
1.40874e+07
1.29859e+07
1.18663e+07
1.07603e+07
9.69328e+06
8.68402e+06
7.74614e+06
6.88837e+06
6.11548e+06
5.42885e+06
4.82709e+06
4.30722e+06
3.86388e+06
1.78519e+07
1.75572e+07
1.70045e+07
1.62464e+07
1.53389e+07
1.43314e+07
1.32672e+07
1.21836e+07
1.11104e+07
1.00716e+07
9.08478e+06
8.16268e+06
7.31341e+06
6.54146e+06
5.84825e+06
5.23293e+06
4.693e+06
4.22411e+06
2.07299e+07
2.04307e+07
1.98681e+07
1.9095e+07
1.81681e+07
1.71365e+07
1.60438e+07
1.49267e+07
1.3815e+07
1.27322e+07
1.16959e+07
1.07188e+07
9.8091e+06
8.97166e+06
8.20838e+06
7.51917e+06
6.90219e+06
6.35407e+06
2.52183e+07
2.49062e+07
2.43157e+07
2.35014e+07
2.25229e+07
2.14311e+07
2.02706e+07
1.90789e+07
1.78868e+07
1.67181e+07
1.55912e+07
1.4519e+07
1.35104e+07
1.2571e+07
1.17032e+07
1.09077e+07
1.01836e+07
9.52817e+06
3.02792e+07
2.9953e+07
2.93292e+07
2.84655e+07
2.74246e+07
2.62595e+07
2.50169e+07
2.37358e+07
2.2448e+07
2.11785e+07
1.99463e+07
1.87653e+07
1.76451e+07
1.65918e+07
1.56088e+07
1.46975e+07
1.38575e+07
1.30872e+07
3.51944e+07
3.48565e+07
3.42017e+07
3.32909e+07
3.21898e+07
3.09536e+07
2.96307e+07
2.8262e+07
2.68806e+07
2.55125e+07
2.41778e+07
2.28912e+07
2.1663e+07
2.05001e+07
1.94068e+07
1.83849e+07
1.74349e+07
1.65556e+07
3.95449e+07
3.91986e+07
3.85184e+07
3.75678e+07
3.64151e+07
3.51171e+07
3.37242e+07
3.22785e+07
3.08146e+07
2.93596e+07
2.79345e+07
2.65547e+07
2.52315e+07
2.39723e+07
2.27821e+07
2.16634e+07
2.0617e+07
1.96425e+07
4.31415e+07
4.27902e+07
4.20906e+07
4.11091e+07
3.99153e+07
3.85674e+07
3.71175e+07
3.56089e+07
3.40773e+07
3.25509e+07
3.10513e+07
2.95949e+07
2.81934e+07
2.6855e+07
2.55851e+07
2.43867e+07
2.32612e+07
2.22084e+07
4.59506e+07
4.55964e+07
4.4883e+07
4.38785e+07
4.26536e+07
4.12677e+07
3.97738e+07
3.82166e+07
3.66325e+07
3.50506e+07
3.34931e+07
3.1977e+07
3.05146e+07
2.91146e+07
2.77827e+07
2.65224e+07
2.53353e+07
2.42216e+07
4.80293e+07
4.76734e+07
4.69504e+07
4.59298e+07
4.46826e+07
4.32689e+07
4.17429e+07
4.015e+07
3.85273e+07
3.69045e+07
3.53044e+07
3.37444e+07
3.22372e+07
3.07918e+07
2.94142e+07
2.81083e+07
2.68758e+07
2.57173e+07
4.94786e+07
4.91218e+07
4.83921e+07
4.73606e+07
4.60981e+07
4.46655e+07
4.31175e+07
4.15001e+07
3.98508e+07
3.81997e+07
3.65701e+07
3.49796e+07
3.34413e+07
3.19645e+07
3.05553e+07
2.92177e+07
2.79539e+07
2.67642e+07
5.04137e+07
5.00559e+07
4.93221e+07
4.82839e+07
4.70116e+07
4.5567e+07
4.40051e+07
4.2372e+07
4.07058e+07
3.90366e+07
3.73881e+07
3.57781e+07
3.42198e+07
3.27227e+07
3.12932e+07
2.99353e+07
2.86513e+07
2.74416e+07
5.09429e+07
5.05848e+07
4.98494e+07
4.88081e+07
4.75304e+07
4.60793e+07
4.45095e+07
4.28675e+07
4.11914e+07
3.95118e+07
3.78524e+07
3.62311e+07
3.46614e+07
3.31527e+07
3.17114e+07
3.03419e+07
2.90464e+07
2.78258e+07
5.11651e+07
5.08085e+07
5.00712e+07
4.90281e+07
4.77479e+07
4.62939e+07
4.47207e+07
4.30748e+07
4.13945e+07
3.97105e+07
3.80464e+07
3.64203e+07
3.48456e+07
3.33319e+07
3.18857e+07
3.05112e+07
2.92111e+07
2.7986e+07
6.04895e+07
6.04304e+07
6.02997e+07
6.00939e+07
5.98111e+07
5.94506e+07
5.90125e+07
5.84975e+07
5.79068e+07
5.72418e+07
5.65044e+07
5.56967e+07
5.48209e+07
5.38798e+07
5.28759e+07
5.18123e+07
5.06923e+07
4.95193e+07
4.8297e+07
4.70293e+07
4.57201e+07
4.43736e+07
4.29939e+07
4.15854e+07
4.01526e+07
3.87e+07
3.72322e+07
3.57536e+07
3.42686e+07
3.27818e+07
3.12979e+07
2.98214e+07
2.83568e+07
2.69089e+07
2.54822e+07
2.40812e+07
2.27106e+07
2.13751e+07
2.00794e+07
1.88284e+07
1.76268e+07
1.64795e+07
1.53916e+07
1.4368e+07
1.34141e+07
1.2535e+07
1.17359e+07
1.10223e+07
1.03997e+07
9.87344e+06
9.44898e+06
9.1318e+06
8.92728e+06
8.84069e+06
8.87714e+06
9.04144e+06
9.33816e+06
9.77154e+06
1.03454e+07
1.10631e+07
1.19273e+07
1.29402e+07
1.41032e+07
1.5417e+07
1.68817e+07
1.84963e+07
2.02592e+07
2.2168e+07
2.42195e+07
2.641e+07
2.87347e+07
3.11884e+07
3.37653e+07
3.64588e+07
3.92621e+07
4.21679e+07
4.51689e+07
4.82571e+07
5.14247e+07
5.46638e+07
5.79662e+07
6.13238e+07
6.47281e+07
6.81708e+07
7.1643e+07
7.51358e+07
7.86402e+07
8.21467e+07
8.56452e+07
8.91253e+07
9.2576e+07
9.59859e+07
9.93429e+07
1.02634e+08
1.05848e+08
1.08971e+08
1.11991e+08
1.14895e+08
1.17673e+08
1.20314e+08
1.22807e+08
1.25146e+08
1.27323e+08
1.29332e+08
1.3117e+08
1.32834e+08
1.34326e+08
1.35646e+08
1.36802e+08
1.37799e+08
1.38649e+08
1.39362e+08
1.39954e+08
1.40436e+08
1.40827e+08
1.41143e+08
1.41405e+08
1.41633e+08
1.41852e+08
1.42088e+08
1.42372e+08
1.42735e+08
1.43214e+08
1.43851e+08
1.44687e+08
1.45771e+08
1.47155e+08
1.48897e+08
1.51056e+08
1.53695e+08
1.56879e+08
1.60668e+08
1.65124e+08
1.70304e+08
1.76262e+08
1.83042e+08
1.90681e+08
1.99206e+08
2.0863e+08
2.18958e+08
2.30182e+08
2.4228e+08
2.55225e+08
2.68974e+08
2.83485e+08
2.98695e+08
3.14556e+08
3.30994e+08
3.47949e+08
3.65343e+08
3.83105e+08
4.01149e+08
4.19385e+08
4.3772e+08
4.56033e+08
4.74183e+08
4.92008e+08
5.09337e+08
5.25939e+08
5.41578e+08
5.55956e+08
5.68773e+08
5.79689e+08
5.88381e+08
5.94514e+08
5.97791e+08
5.97953e+08
5.94819e+08
5.88263e+08
5.78313e+08
5.65048e+08
5.48736e+08
5.29697e+08
5.08423e+08
4.85387e+08
4.61114e+08
4.35972e+08
4.10394e+08
3.84593e+08
3.58893e+08
5.94144e+07
5.93587e+07
5.92335e+07
5.90336e+07
5.87573e+07
5.84044e+07
5.79756e+07
5.7472e+07
5.68949e+07
5.62455e+07
5.55257e+07
5.47374e+07
5.38828e+07
5.29643e+07
5.19845e+07
5.09461e+07
4.98522e+07
4.87062e+07
4.75115e+07
4.62719e+07
4.49913e+07
4.36736e+07
4.2323e+07
4.09437e+07
3.95401e+07
3.81167e+07
3.66778e+07
3.52276e+07
3.37706e+07
3.23112e+07
3.08538e+07
2.94031e+07
2.79636e+07
2.65397e+07
2.5136e+07
2.37571e+07
2.24073e+07
2.10915e+07
1.98142e+07
1.85803e+07
1.73944e+07
1.62616e+07
1.51867e+07
1.41748e+07
1.32311e+07
1.23607e+07
1.1569e+07
1.08613e+07
1.02431e+07
9.71978e+06
9.29687e+06
8.97977e+06
8.77386e+06
8.68438e+06
8.71646e+06
8.87497e+06
9.16448e+06
9.58921e+06
1.01529e+07
1.0859e+07
1.17102e+07
1.27085e+07
1.38554e+07
1.51515e+07
1.6597e+07
1.81908e+07
1.99315e+07
2.18164e+07
2.38426e+07
2.60061e+07
2.83023e+07
3.0726e+07
3.32714e+07
3.59319e+07
3.87008e+07
4.15709e+07
4.45348e+07
4.75847e+07
5.07128e+07
5.39111e+07
5.71716e+07
6.04861e+07
6.38463e+07
6.72438e+07
7.067e+07
7.41161e+07
7.75729e+07
8.10309e+07
8.44804e+07
8.7911e+07
9.13118e+07
9.46715e+07
9.79782e+07
1.0122e+08
1.04384e+08
1.07457e+08
1.10429e+08
1.13285e+08
1.16017e+08
1.18613e+08
1.21064e+08
1.23362e+08
1.255e+08
1.27474e+08
1.29279e+08
1.30913e+08
1.32377e+08
1.33674e+08
1.34807e+08
1.35786e+08
1.3662e+08
1.3732e+08
1.379e+08
1.38373e+08
1.38755e+08
1.39064e+08
1.39319e+08
1.3954e+08
1.39751e+08
1.39978e+08
1.4025e+08
1.406e+08
1.41062e+08
1.41677e+08
1.42486e+08
1.43538e+08
1.44883e+08
1.46579e+08
1.48683e+08
1.51258e+08
1.54367e+08
1.58071e+08
1.62431e+08
1.67502e+08
1.73337e+08
1.79981e+08
1.87469e+08
1.9583e+08
2.05077e+08
2.15213e+08
2.26232e+08
2.38112e+08
2.50827e+08
2.64338e+08
2.78599e+08
2.9355e+08
3.09141e+08
3.2531e+08
3.41988e+08
3.59103e+08
3.76583e+08
3.94346e+08
4.12306e+08
4.3037e+08
4.48417e+08
4.66311e+08
4.83892e+08
5.00995e+08
5.17393e+08
5.32851e+08
5.47084e+08
5.59795e+08
5.70648e+08
5.79325e+08
5.85498e+08
5.88878e+08
5.89208e+08
5.8631e+08
5.80056e+08
5.70456e+08
5.57586e+08
5.41701e+08
5.23108e+08
5.0229e+08
4.79704e+08
4.55861e+08
4.31127e+08
4.05931e+08
3.80482e+08
3.5502e+08
5.73487e+07
5.72956e+07
5.7176e+07
5.69845e+07
5.67198e+07
5.63823e+07
5.59732e+07
5.54934e+07
5.4944e+07
5.4326e+07
5.36411e+07
5.28909e+07
5.20773e+07
5.12023e+07
5.02683e+07
4.92778e+07
4.82337e+07
4.71389e+07
4.59968e+07
4.48108e+07
4.35846e+07
4.23221e+07
4.10273e+07
3.97042e+07
3.83568e+07
3.6989e+07
3.56051e+07
3.42091e+07
3.28053e+07
3.13981e+07
2.99918e+07
2.85907e+07
2.71993e+07
2.58219e+07
2.44629e+07
2.31265e+07
2.18172e+07
2.05394e+07
1.92978e+07
1.80971e+07
1.6942e+07
1.58372e+07
1.47877e+07
1.37984e+07
1.28745e+07
1.20212e+07
1.12439e+07
1.05478e+07
9.93829e+06
9.42088e+06
9.00099e+06
8.68405e+06
8.47548e+06
8.3805e+06
8.40421e+06
8.5515e+06
8.82693e+06
9.23473e+06
9.77869e+06
1.04621e+07
1.12876e+07
1.22573e+07
1.33727e+07
1.46343e+07
1.6042e+07
1.75951e+07
1.92919e+07
2.113e+07
2.31062e+07
2.52167e+07
2.7457e+07
2.98217e+07
3.23052e+07
3.49011e+07
3.76026e+07
4.04027e+07
4.3294e+07
4.6269e+07
4.932e+07
5.24389e+07
5.56179e+07
5.88488e+07
6.21235e+07
6.54336e+07
6.87707e+07
7.2126e+07
7.54906e+07
7.88551e+07
8.22098e+07
8.55446e+07
8.88487e+07
9.21111e+07
9.53203e+07
9.84644e+07
1.01531e+08
1.04508e+08
1.07385e+08
1.10149e+08
1.1279e+08
1.15298e+08
1.17664e+08
1.19883e+08
1.21946e+08
1.23849e+08
1.2559e+08
1.27165e+08
1.28576e+08
1.29824e+08
1.30916e+08
1.31859e+08
1.32662e+08
1.33336e+08
1.33894e+08
1.34349e+08
1.34715e+08
1.35009e+08
1.35249e+08
1.35456e+08
1.35651e+08
1.3586e+08
1.3611e+08
1.36431e+08
1.36858e+08
1.37428e+08
1.38184e+08
1.3917e+08
1.40437e+08
1.42039e+08
1.44032e+08
1.46479e+08
1.49439e+08
1.52974e+08
1.57141e+08
1.61996e+08
1.67588e+08
1.73962e+08
1.81153e+08
1.89188e+08
1.98083e+08
2.07839e+08
2.18451e+08
2.299e+08
2.42161e+08
2.55199e+08
2.68965e+08
2.83404e+08
2.98464e+08
3.14092e+08
3.30221e+08
3.4678e+08
3.63696e+08
3.809e+08
3.98304e+08
4.15817e+08
4.33324e+08
4.50697e+08
4.67778e+08
4.84406e+08
5.00366e+08
5.15429e+08
5.29329e+08
5.41775e+08
5.52446e+08
5.61039e+08
5.67235e+08
5.70762e+08
5.71371e+08
5.68888e+08
5.6318e+08
5.54235e+08
5.42125e+08
5.27077e+08
5.09377e+08
4.8948e+08
4.6781e+08
4.44847e+08
4.20964e+08
3.96561e+08
3.71863e+08
3.47042e+08
5.44545e+07
5.44052e+07
5.42931e+07
5.41138e+07
5.38669e+07
5.35532e+07
5.31736e+07
5.27287e+07
5.2219e+07
5.16456e+07
5.10097e+07
5.03124e+07
4.95553e+07
4.87401e+07
4.78689e+07
4.69439e+07
4.59679e+07
4.49436e+07
4.38739e+07
4.27621e+07
4.16117e+07
4.04261e+07
3.92089e+07
3.79638e+07
3.66941e+07
3.54037e+07
3.40962e+07
3.27758e+07
3.14464e+07
3.01122e+07
2.87773e+07
2.74459e+07
2.61219e+07
2.48095e+07
2.35127e+07
2.22356e+07
2.09827e+07
1.97583e+07
1.85667e+07
1.74126e+07
1.63004e+07
1.5235e+07
1.42211e+07
1.32638e+07
1.2368e+07
1.1539e+07
1.07818e+07
1.0102e+07
9.50481e+06
8.99574e+06
8.58019e+06
8.26358e+06
8.05128e+06
7.94852e+06
7.96036e+06
8.0917e+06
8.34712e+06
8.73081e+06
9.24652e+06
9.89749e+06
1.06864e+07
1.16153e+07
1.26856e+07
1.38978e+07
1.5252e+07
1.6747e+07
1.83814e+07
2.01528e+07
2.20581e+07
2.40935e+07
2.62544e+07
2.85358e+07
3.0932e+07
3.34367e+07
3.60433e+07
3.8745e+07
4.15345e+07
4.44045e+07
4.73474e+07
5.03554e+07
5.34206e+07
5.65352e+07
5.96909e+07
6.28796e+07
6.60929e+07
6.93222e+07
7.25588e+07
7.57935e+07
7.90168e+07
8.22187e+07
8.53887e+07
8.8516e+07
9.15895e+07
9.45977e+07
9.7529e+07
1.00372e+08
1.03115e+08
1.05749e+08
1.08262e+08
1.10647e+08
1.12895e+08
1.15e+08
1.16957e+08
1.1876e+08
1.20408e+08
1.21899e+08
1.23233e+08
1.24414e+08
1.25447e+08
1.26337e+08
1.27095e+08
1.27731e+08
1.28257e+08
1.28683e+08
1.29025e+08
1.29297e+08
1.29516e+08
1.297e+08
1.29871e+08
1.30053e+08
1.30269e+08
1.30549e+08
1.30924e+08
1.31431e+08
1.32109e+08
1.33001e+08
1.34157e+08
1.35626e+08
1.37464e+08
1.39729e+08
1.42479e+08
1.45775e+08
1.49671e+08
1.54221e+08
1.59472e+08
1.65467e+08
1.72241e+08
1.79821e+08
1.88222e+08
1.97448e+08
2.07493e+08
2.1834e+08
2.29969e+08
2.42348e+08
2.55426e+08
2.69155e+08
2.83481e+08
2.98361e+08
3.1373e+08
3.29522e+08
3.45665e+08
3.62098e+08
3.78735e+08
3.95487e+08
4.12245e+08
4.28892e+08
4.45275e+08
4.61236e+08
4.76578e+08
4.91078e+08
5.0449e+08
5.16535e+08
5.26918e+08
5.35352e+08
5.41534e+08
5.4521e+08
5.4614e+08
5.44156e+08
5.39128e+08
5.31027e+08
5.19913e+08
5.05978e+08
4.89483e+08
4.70844e+08
4.50439e+08
4.28713e+08
4.06025e+08
3.82753e+08
3.59134e+08
3.35319e+08
5.09322e+07
5.08882e+07
5.07863e+07
5.06233e+07
5.03995e+07
5.01156e+07
4.97718e+07
4.93684e+07
4.89062e+07
4.83856e+07
4.78074e+07
4.71725e+07
4.64823e+07
4.57381e+07
4.49419e+07
4.40956e+07
4.32014e+07
4.22619e+07
4.12796e+07
4.02574e+07
3.91984e+07
3.81056e+07
3.6982e+07
3.58307e+07
3.46549e+07
3.34579e+07
3.22433e+07
3.10149e+07
2.97764e+07
2.85315e+07
2.72839e+07
2.60374e+07
2.47957e+07
2.35626e+07
2.23419e+07
2.11375e+07
1.99537e+07
1.87944e+07
1.76641e+07
1.65669e+07
1.55075e+07
1.44903e+07
1.35202e+07
1.2602e+07
1.17406e+07
1.09412e+07
1.02088e+07
9.54896e+06
8.96686e+06
8.46796e+06
8.05765e+06
7.74131e+06
7.52432e+06
7.41189e+06
7.40904e+06
7.52063e+06
7.7512e+06
8.10488e+06
8.58539e+06
9.19597e+06
9.93926e+06
1.08173e+07
1.18314e+07
1.29822e+07
1.42695e+07
1.56923e+07
1.72491e+07
1.89376e+07
2.07548e+07
2.26968e+07
2.47594e+07
2.69374e+07
2.92253e+07
3.16171e+07
3.41063e+07
3.66863e+07
3.93499e+07
4.20902e+07
4.48996e+07
4.77706e+07
5.06954e+07
5.36665e+07
5.66757e+07
5.97151e+07
6.27764e+07
6.58511e+07
6.89308e+07
7.20066e+07
7.50689e+07
7.81081e+07
8.11143e+07
8.40768e+07
8.69851e+07
8.98279e+07
9.25942e+07
9.52734e+07
9.78552e+07
1.0033e+08
1.02688e+08
1.04922e+08
1.07025e+08
1.08991e+08
1.10817e+08
1.12498e+08
1.14031e+08
1.15416e+08
1.16656e+08
1.17752e+08
1.1871e+08
1.19535e+08
1.20236e+08
1.20823e+08
1.21306e+08
1.21696e+08
1.22005e+08
1.22247e+08
1.22437e+08
1.22593e+08
1.22731e+08
1.22876e+08
1.2305e+08
1.23277e+08
1.23589e+08
1.24017e+08
1.24601e+08
1.25379e+08
1.26398e+08
1.27706e+08
1.29355e+08
1.314e+08
1.33894e+08
1.36898e+08
1.40463e+08
1.44641e+08
1.49478e+08
1.55014e+08
1.61282e+08
1.68311e+08
1.76116e+08
1.84702e+08
1.94064e+08
2.04188e+08
2.15054e+08
2.26637e+08
2.3889e+08
2.51769e+08
2.65218e+08
2.79203e+08
2.93664e+08
3.08543e+08
3.23765e+08
3.39275e+08
3.54995e+08
3.70837e+08
3.86697e+08
4.02465e+08
4.18001e+08
4.33154e+08
4.47741e+08
4.61553e+08
4.74353e+08
4.85889e+08
4.95893e+08
5.04094e+08
5.10214e+08
5.1401e+08
5.15259e+08
5.13806e+08
5.09524e+08
5.02372e+08
4.92392e+08
4.79739e+08
4.64653e+08
4.47495e+08
4.28599e+08
4.08373e+08
3.87144e+08
3.65264e+08
3.4298e+08
3.20454e+08
4.70046e+07
4.69676e+07
4.68781e+07
4.67344e+07
4.65367e+07
4.62855e+07
4.59808e+07
4.56229e+07
4.52122e+07
4.47487e+07
4.4233e+07
4.36661e+07
4.30488e+07
4.23825e+07
4.16684e+07
4.09084e+07
4.01043e+07
3.9258e+07
3.83721e+07
3.74488e+07
3.64907e+07
3.55003e+07
3.448e+07
3.34326e+07
3.23608e+07
3.12678e+07
3.01567e+07
2.90309e+07
2.78938e+07
2.67484e+07
2.55983e+07
2.44467e+07
2.3297e+07
2.21526e+07
2.10171e+07
1.98944e+07
1.87881e+07
1.77022e+07
1.66407e+07
1.56078e+07
1.46078e+07
1.36451e+07
1.27243e+07
1.18501e+07
1.10275e+07
1.02614e+07
9.55697e+06
8.91949e+06
8.35428e+06
7.8667e+06
7.46212e+06
7.14591e+06
6.92342e+06
6.79981e+06
6.78009e+06
6.86902e+06
7.07112e+06
7.39047e+06
7.83074e+06
8.3951e+06
9.08615e+06
9.90588e+06
1.08556e+07
1.19359e+07
1.31466e+07
1.44869e+07
1.59549e+07
1.75486e+07
1.92649e+07
2.11001e+07
2.30502e+07
2.511e+07
2.72742e+07
2.95369e+07
3.1892e+07
3.43329e+07
3.6853e+07
3.94451e+07
4.21022e+07
4.48169e+07
4.75817e+07
5.0389e+07
5.32312e+07
5.61004e+07
5.89887e+07
6.18876e+07
6.47889e+07
6.76839e+07
7.05634e+07
7.34181e+07
7.62384e+07
7.90143e+07
8.17358e+07
8.43919e+07
8.69725e+07
8.94678e+07
9.18683e+07
9.41651e+07
9.63497e+07
9.8415e+07
1.00355e+08
1.02165e+08
1.03842e+08
1.05383e+08
1.06787e+08
1.08054e+08
1.09186e+08
1.10186e+08
1.11057e+08
1.11806e+08
1.1244e+08
1.12968e+08
1.134e+08
1.13744e+08
1.14013e+08
1.14217e+08
1.14372e+08
1.14491e+08
1.14591e+08
1.14691e+08
1.14813e+08
1.14979e+08
1.15218e+08
1.15559e+08
1.16037e+08
1.16687e+08
1.17553e+08
1.1868e+08
1.20116e+08
1.21914e+08
1.24123e+08
1.268e+08
1.29996e+08
1.33759e+08
1.38133e+08
1.43157e+08
1.48864e+08
1.55281e+08
1.62425e+08
1.70301e+08
1.78907e+08
1.88232e+08
1.98257e+08
2.08961e+08
2.20305e+08
2.32249e+08
2.4474e+08
2.57744e+08
2.71212e+08
2.85087e+08
2.99303e+08
3.13802e+08
3.28513e+08
3.43352e+08
3.58221e+08
3.73018e+08
3.87616e+08
4.01867e+08
4.15604e+08
4.28637e+08
4.40737e+08
4.51678e+08
4.61223e+08
4.69119e+08
4.75115e+08
4.78979e+08
4.80511e+08
4.79574e+08
4.76041e+08
4.6986e+08
4.61056e+08
4.49758e+08
4.36175e+08
4.20616e+08
4.0337e+08
3.84805e+08
3.65206e+08
3.44898e+08
3.24132e+08
3.03097e+08
4.28967e+07
4.28672e+07
4.27913e+07
4.26679e+07
4.24973e+07
4.22798e+07
4.20154e+07
4.17041e+07
4.13458e+07
4.09407e+07
4.04892e+07
3.9992e+07
3.94497e+07
3.88633e+07
3.8234e+07
3.7563e+07
3.68519e+07
3.61023e+07
3.53161e+07
3.44953e+07
3.36416e+07
3.27571e+07
3.18439e+07
3.09043e+07
2.99408e+07
2.89561e+07
2.79531e+07
2.69344e+07
2.59031e+07
2.48618e+07
2.38136e+07
2.27614e+07
2.17081e+07
2.0657e+07
1.96113e+07
1.85744e+07
1.755e+07
1.65414e+07
1.55527e+07
1.45876e+07
1.36504e+07
1.27452e+07
1.18765e+07
1.10489e+07
1.02672e+07
9.53634e+06
8.86137e+06
8.24752e+06
7.70004e+06
7.2243e+06
6.82561e+06
6.5093e+06
6.28065e+06
6.14481e+06
6.10674e+06
6.17117e+06
6.34254e+06
6.62489e+06
7.02181e+06
7.53641e+06
8.17123e+06
8.9282e+06
9.80858e+06
1.08129e+07
1.19411e+07
1.31923e+07
1.45647e+07
1.60561e+07
1.76636e+07
1.93837e+07
2.12122e+07
2.31444e+07
2.5175e+07
2.72984e+07
2.95087e+07
3.17994e+07
3.41642e+07
3.65963e+07
3.90888e+07
4.16345e+07
4.42263e+07
4.68567e+07
4.95184e+07
5.22037e+07
5.4905e+07
5.7614e+07
6.03227e+07
6.30227e+07
6.57051e+07
6.8361e+07
7.09812e+07
7.35563e+07
7.60767e+07
7.85327e+07
8.09145e+07
8.32133e+07
8.54203e+07
8.75278e+07
8.95279e+07
9.14145e+07
9.31822e+07
9.48274e+07
9.63472e+07
9.77406e+07
9.90071e+07
1.00147e+08
1.01163e+08
1.02058e+08
1.02835e+08
1.035e+08
1.0406e+08
1.04523e+08
1.04895e+08
1.05187e+08
1.05408e+08
1.05568e+08
1.05681e+08
1.05757e+08
1.05812e+08
1.05863e+08
1.05927e+08
1.06027e+08
1.06187e+08
1.06434e+08
1.068e+08
1.07315e+08
1.08019e+08
1.08955e+08
1.10166e+08
1.11703e+08
1.13613e+08
1.15948e+08
1.18756e+08
1.22082e+08
1.2597e+08
1.30456e+08
1.35575e+08
1.41353e+08
1.47805e+08
1.5494e+08
1.62757e+08
1.71251e+08
1.80403e+08
1.90197e+08
2.00598e+08
2.11573e+08
2.23074e+08
2.3507e+08
2.47512e+08
2.60351e+08
2.73525e+08
2.8698e+08
3.00646e+08
3.14442e+08
3.28281e+08
3.42065e+08
3.55677e+08
3.68974e+08
3.81804e+08
3.93995e+08
4.05335e+08
4.15616e+08
4.24628e+08
4.32149e+08
4.3795e+08
4.41813e+08
4.43565e+08
4.43085e+08
4.40248e+08
4.34994e+08
4.27332e+08
4.17379e+08
4.05304e+08
3.9137e+08
3.75822e+08
3.58985e+08
3.41098e+08
3.22462e+08
3.03319e+08
2.83892e+08
3.88217e+07
3.87996e+07
3.8737e+07
3.86337e+07
3.84899e+07
3.83055e+07
3.80804e+07
3.78143e+07
3.75072e+07
3.71592e+07
3.67706e+07
3.63417e+07
3.58729e+07
3.5365e+07
3.48187e+07
3.42351e+07
3.36152e+07
3.29604e+07
3.2272e+07
3.15514e+07
3.08001e+07
3.00197e+07
2.92119e+07
2.83788e+07
2.75223e+07
2.66448e+07
2.57487e+07
2.48361e+07
2.39096e+07
2.29716e+07
2.20245e+07
2.1071e+07
2.01137e+07
1.91555e+07
1.81992e+07
1.7248e+07
1.63051e+07
1.53739e+07
1.44577e+07
1.35604e+07
1.26858e+07
1.18381e+07
1.10215e+07
1.02404e+07
9.49965e+06
8.80398e+06
8.15844e+06
7.56814e+06
7.0383e+06
6.57421e+06
6.18117e+06
5.86443e+06
5.62922e+06
5.48065e+06
5.42364e+06
5.46286e+06
5.60269e+06
5.84709e+06
6.19958e+06
6.66321e+06
7.24043e+06
7.9331e+06
8.74245e+06
9.669e+06
1.07126e+07
1.18722e+07
1.31464e+07
1.45328e+07
1.60285e+07
1.76301e+07
1.93336e+07
2.11343e+07
2.30273e+07
2.50071e+07
2.70678e+07
2.92035e+07
3.14078e+07
3.36744e+07
3.59964e+07
3.83672e+07
4.07797e+07
4.32269e+07
4.57016e+07
4.81962e+07
5.07034e+07
5.32154e+07
5.57242e+07
5.82219e+07
6.07001e+07
6.315e+07
6.55633e+07
6.79307e+07
7.02436e+07
7.2493e+07
7.46702e+07
7.6767e+07
7.87757e+07
8.06892e+07
8.25007e+07
8.42051e+07
8.57976e+07
8.72749e+07
8.86353e+07
8.98781e+07
9.10043e+07
9.20146e+07
9.29108e+07
9.36963e+07
9.43752e+07
9.49522e+07
9.54331e+07
9.58244e+07
9.61325e+07
9.63657e+07
9.65332e+07
9.66444e+07
9.67087e+07
9.67378e+07
9.67437e+07
9.67403e+07
9.67439e+07
9.67748e+07
9.68531e+07
9.70037e+07
9.72539e+07
9.76331e+07
9.81747e+07
9.89182e+07
9.99051e+07
1.01181e+08
1.02791e+08
1.04783e+08
1.07201e+08
1.10089e+08
1.13489e+08
1.17438e+08
1.21968e+08
1.27106e+08
1.32868e+08
1.39264e+08
1.46298e+08
1.53965e+08
1.6225e+08
1.71142e+08
1.80611e+08
1.90627e+08
2.0115e+08
2.12151e+08
2.23583e+08
2.35398e+08
2.47542e+08
2.59962e+08
2.72589e+08
2.8535e+08
2.9816e+08
3.1093e+08
3.23544e+08
3.3587e+08
3.4777e+08
3.59086e+08
3.69625e+08
3.79201e+08
3.87622e+08
3.94697e+08
4.00226e+08
4.04008e+08
4.05898e+08
4.0578e+08
4.03542e+08
3.99119e+08
3.92514e+08
3.83824e+08
3.73187e+08
3.6083e+08
3.46949e+08
3.31826e+08
3.1566e+08
2.98721e+08
2.8124e+08
2.6347e+08
3.49664e+07
3.49512e+07
3.49009e+07
3.48163e+07
3.46974e+07
3.45438e+07
3.43554e+07
3.41317e+07
3.38727e+07
3.35784e+07
3.32487e+07
3.28838e+07
3.24839e+07
3.20494e+07
3.1581e+07
3.10793e+07
3.0545e+07
2.9979e+07
2.93822e+07
2.87558e+07
2.81007e+07
2.74183e+07
2.671e+07
2.59772e+07
2.52217e+07
2.44454e+07
2.36501e+07
2.28378e+07
2.20104e+07
2.11699e+07
2.03185e+07
1.94585e+07
1.85921e+07
1.7722e+07
1.68506e+07
1.59807e+07
1.51152e+07
1.42572e+07
1.341e+07
1.2577e+07
1.1762e+07
1.09688e+07
1.02017e+07
9.46488e+06
8.76299e+06
8.10078e+06
7.48314e+06
6.91513e+06
6.40189e+06
5.94864e+06
5.56062e+06
5.24303e+06
5.00106e+06
4.83978e+06
4.76404e+06
4.77846e+06
4.88733e+06
5.09455e+06
5.40354e+06
5.81725e+06
6.33805e+06
6.96774e+06
7.70744e+06
8.55762e+06
9.51803e+06
1.05878e+07
1.17652e+07
1.30481e+07
1.44335e+07
1.59181e+07
1.74979e+07
1.91686e+07
2.09252e+07
2.27624e+07
2.46747e+07
2.66561e+07
2.87008e+07
3.08023e+07
3.29543e+07
3.51502e+07
3.73835e+07
3.96472e+07
4.19344e+07
4.42379e+07
4.65505e+07
4.88647e+07
5.11729e+07
5.34675e+07
5.57405e+07
5.79838e+07
6.01893e+07
6.23487e+07
6.44539e+07
6.64968e+07
6.84696e+07
7.03649e+07
7.21758e+07
7.38961e+07
7.552e+07
7.70432e+07
7.84618e+07
7.97728e+07
8.09755e+07
8.20698e+07
8.30567e+07
8.39374e+07
8.47141e+07
8.53898e+07
8.59686e+07
8.64549e+07
8.6854e+07
8.71712e+07
8.74116e+07
8.75826e+07
8.76923e+07
8.77492e+07
8.77615e+07
8.77388e+07
8.76915e+07
8.76315e+07
8.75731e+07
8.75336e+07
8.75306e+07
8.75854e+07
8.77227e+07
8.79691e+07
8.83545e+07
8.89144e+07
8.96866e+07
9.07125e+07
9.20343e+07
9.3695e+07
9.5737e+07
9.82033e+07
1.01134e+08
1.04565e+08
1.08528e+08
1.13048e+08
1.18146e+08
1.23833e+08
1.30114e+08
1.36988e+08
1.44445e+08
1.52475e+08
1.61054e+08
1.70156e+08
1.79746e+08
1.89798e+08
2.00268e+08
2.11107e+08
2.22265e+08
2.3369e+08
2.4532e+08
2.57084e+08
2.68899e+08
2.80678e+08
2.92312e+08
3.03676e+08
3.14648e+08
3.25078e+08
3.34797e+08
3.43636e+08
3.51423e+08
3.57991e+08
3.6317e+08
3.66783e+08
3.68707e+08
3.68839e+08
3.67076e+08
3.63358e+08
3.57683e+08
3.50131e+08
3.40814e+08
3.29925e+08
3.17622e+08
3.04138e+08
2.8964e+08
2.74364e+08
2.58528e+08
2.42408e+08
3.14827e+07
3.14731e+07
3.14335e+07
3.13654e+07
3.12686e+07
3.11428e+07
3.09874e+07
3.08021e+07
3.05866e+07
3.03406e+07
3.0064e+07
2.97569e+07
2.94191e+07
2.9051e+07
2.86528e+07
2.82248e+07
2.77674e+07
2.72813e+07
2.6767e+07
2.62253e+07
2.56569e+07
2.50628e+07
2.44441e+07
2.38018e+07
2.31375e+07
2.24524e+07
2.17482e+07
2.10263e+07
2.02883e+07
1.95359e+07
1.8771e+07
1.79955e+07
1.72113e+07
1.64206e+07
1.56258e+07
1.48294e+07
1.40338e+07
1.32421e+07
1.24571e+07
1.16823e+07
1.09211e+07
1.01773e+07
9.45492e+06
8.7581e+06
8.09132e+06
7.45926e+06
6.86673e+06
6.31871e+06
5.82025e+06
5.37648e+06
4.9926e+06
4.67376e+06
4.42509e+06
4.25162e+06
4.15815e+06
4.1492e+06
4.229e+06
4.40133e+06
4.66952e+06
5.03639e+06
5.50421e+06
6.0747e+06
6.74887e+06
7.52712e+06
8.40912e+06
9.39389e+06
1.04798e+07
1.16645e+07
1.29452e+07
1.43185e+07
1.57805e+07
1.7327e+07
1.89531e+07
2.06538e+07
2.24235e+07
2.42567e+07
2.61475e+07
2.80897e+07
3.00772e+07
3.21038e+07
3.41631e+07
3.62485e+07
3.83532e+07
4.04703e+07
4.2593e+07
4.47141e+07
4.68263e+07
4.89225e+07
5.09951e+07
5.30365e+07
5.50391e+07
5.69954e+07
5.8898e+07
6.07395e+07
6.25129e+07
6.42117e+07
6.58297e+07
6.73616e+07
6.88029e+07
7.01498e+07
7.13993e+07
7.2549e+07
7.35987e+07
7.45485e+07
7.53998e+07
7.6154e+07
7.68132e+07
7.73805e+07
7.78596e+07
7.82548e+07
7.85706e+07
7.88113e+07
7.89818e+07
7.90882e+07
7.91376e+07
7.9137e+07
7.90939e+07
7.90162e+07
7.89133e+07
7.87951e+07
7.86745e+07
7.85659e+07
7.84843e+07
7.84482e+07
7.84794e+07
7.86021e+07
7.88432e+07
7.92341e+07
7.98087e+07
8.06037e+07
8.1658e+07
8.30123e+07
8.47062e+07
8.67802e+07
8.92733e+07
9.22207e+07
9.56534e+07
9.95974e+07
1.04075e+08
1.091e+08
1.1468e+08
1.20817e+08
1.27503e+08
1.34734e+08
1.42488e+08
1.50743e+08
1.5947e+08
1.68643e+08
1.7822e+08
1.88155e+08
1.98394e+08
2.08892e+08
2.19589e+08
2.30412e+08
2.41285e+08
2.52117e+08
2.62807e+08
2.73238e+08
2.83299e+08
2.9285e+08
3.01744e+08
3.09828e+08
3.16946e+08
3.22954e+08
3.27715e+08
3.31068e+08
3.32918e+08
3.33177e+08
3.31755e+08
3.286e+08
3.23709e+08
3.17142e+08
3.08996e+08
2.99429e+08
2.88571e+08
2.76607e+08
2.63681e+08
2.49988e+08
2.35735e+08
2.21209e+08
2.84805e+07
2.8475e+07
2.84441e+07
2.83899e+07
2.83121e+07
2.821e+07
2.80832e+07
2.79312e+07
2.77534e+07
2.75496e+07
2.73193e+07
2.70624e+07
2.67787e+07
2.64681e+07
2.61307e+07
2.57666e+07
2.53759e+07
2.49589e+07
2.4516e+07
2.40475e+07
2.3554e+07
2.30361e+07
2.24946e+07
2.19305e+07
2.13447e+07
2.07383e+07
2.01124e+07
1.94683e+07
1.88073e+07
1.81308e+07
1.74403e+07
1.67373e+07
1.60237e+07
1.53014e+07
1.45724e+07
1.38389e+07
1.31034e+07
1.23685e+07
1.1637e+07
1.09121e+07
1.01972e+07
9.49576e+06
8.81172e+06
8.14916e+06
7.51244e+06
6.90614e+06
6.335e+06
5.8039e+06
5.31782e+06
4.88184e+06
4.50108e+06
4.18067e+06
3.92567e+06
3.74103e+06
3.63147e+06
3.60143e+06
3.65506e+06
3.79604e+06
4.02758e+06
4.35237e+06
4.77256e+06
5.28971e+06
5.90476e+06
6.61794e+06
7.42886e+06
8.33642e+06
9.33892e+06
1.04341e+07
1.16189e+07
1.289e+07
1.42436e+07
1.56754e+07
1.71808e+07
1.87547e+07
2.03919e+07
2.20867e+07
2.38335e+07
2.56263e+07
2.74591e+07
2.9326e+07
3.12208e+07
3.31371e+07
3.50686e+07
3.70087e+07
3.89505e+07
4.08875e+07
4.28127e+07
4.47193e+07
4.66003e+07
4.84486e+07
5.02572e+07
5.20192e+07
5.37278e+07
5.53766e+07
5.69591e+07
5.84697e+07
5.9903e+07
6.12549e+07
6.25216e+07
6.36999e+07
6.47875e+07
6.57828e+07
6.66858e+07
6.74969e+07
6.82176e+07
6.88495e+07
6.93945e+07
6.98559e+07
7.02369e+07
7.05415e+07
7.07735e+07