/*--------------------------------*- C++ -*----------------------------------*\
| =========                 |                                                 |
| \\      /  F ield         | OpenFOAM: The Open Source CFD Toolbox           |
|  \\    /   O peration     | Version:  dev                                   |
|   \\  /    A nd           | Web:      http://www.openfoam.org               |
|    \\/     M anipulation  |                                                 |
\*---------------------------------------------------------------------------*/
FoamFile
{
    version     2.0;
    format      ascii;
    class       volScalarField;
    object      rho;
    location    "9.139";
}
// * * * * * * * * * * * * * * * * * * * * * * * * * * * * * * * * * * * * * //

dimensions      [1 -3 0 0 0 0 0];

internalField   nonuniform List<scalar> 
12225
(
1.11674
1.11729
1.11682
1.11571
1.11445
1.11285
1.11113
1.10949
1.10735
1.10554
1.10321
1.10115
1.09858
1.09696
1.09469
1.09187
1.08947
1.08257
1.11652
1.11946
1.11989
1.11902
1.11777
1.11659
1.1145
1.11348
1.11058
1.10941
1.10669
1.10445
1.10149
1.10004
1.09833
1.09568
1.09244
1.0855
1.1166
1.12023
1.12078
1.12017
1.11905
1.11811
1.11636
1.11542
1.11272
1.11127
1.10997
1.10721
1.10399
1.102
1.10049
1.09703
1.09431
1.08685
1.11689
1.12037
1.12138
1.12046
1.11991
1.11834
1.11755
1.11575
1.11427
1.11154
1.11117
1.1087
1.1066
1.10402
1.10209
1.09748
1.09438
1.08763
1.11784
1.12059
1.1216
1.12082
1.12041
1.11841
1.11801
1.11606
1.11462
1.11261
1.11123
1.10919
1.1077
1.10562
1.10277
1.10008
1.095
1.08928
1.11823
1.12066
1.12213
1.12181
1.12039
1.11852
1.11805
1.11563
1.11474
1.11425
1.11189
1.10958
1.10827
1.10632
1.10255
1.10089
1.09705
1.09305
1.11924
1.12061
1.12346
1.1215
1.12116
1.12036
1.11923
1.11664
1.11561
1.11382
1.11174
1.11053
1.11062
1.10753
1.10323
1.10181
1.09963
1.09595
1.12052
1.12236
1.1243
1.12246
1.12214
1.12252
1.12141
1.11759
1.11526
1.11228
1.11208
1.11039
1.11075
1.10673
1.10505
1.1024
1.1014
1.09821
1.1207
1.12414
1.12512
1.12317
1.12318
1.12288
1.12234
1.11806
1.11506
1.11353
1.11372
1.11162
1.11119
1.10754
1.10598
1.10387
1.10359
1.09997
1.12188
1.12515
1.12641
1.12394
1.12413
1.12323
1.12231
1.11878
1.11782
1.11769
1.11577
1.11265
1.11209
1.11047
1.10783
1.10599
1.10476
1.10174
1.12412
1.12622
1.12778
1.12583
1.12578
1.12413
1.12309
1.12118
1.1205
1.11892
1.1167
1.11482
1.11471
1.11346
1.11049
1.10767
1.10576
1.10354
1.1265
1.12827
1.12959
1.12841
1.12812
1.12596
1.12524
1.12372
1.12216
1.12013
1.11868
1.11736
1.11709
1.11645
1.11418
1.11086
1.10769
1.10563
1.12923
1.13097
1.13229
1.13128
1.13091
1.12889
1.12782
1.12633
1.1247
1.12254
1.12129
1.12035
1.11972
1.119
1.11693
1.11399
1.1108
1.10856
1.13297
1.13498
1.13587
1.13467
1.13418
1.13231
1.13051
1.12922
1.12797
1.126
1.12468
1.12401
1.12294
1.12144
1.11943
1.11686
1.11433
1.11265
1.13741
1.1398
1.14056
1.1394
1.13863
1.13703
1.13516
1.13406
1.13279
1.13059
1.12912
1.12809
1.12656
1.12497
1.12338
1.12116
1.11922
1.11771
1.14419
1.14628
1.14664
1.14523
1.1445
1.14308
1.14143
1.14054
1.13903
1.13665
1.13531
1.13389
1.13205
1.1306
1.12905
1.12684
1.1254
1.12365
1.15238
1.15443
1.15467
1.15332
1.15245
1.15082
1.1493
1.14825
1.1464
1.14436
1.14324
1.14149
1.13971
1.13834
1.13655
1.1346
1.13333
1.13125
1.16194
1.16365
1.16385
1.16273
1.16166
1.16023
1.15891
1.1574
1.15564
1.15408
1.15265
1.15076
1.14925
1.14762
1.14577
1.14417
1.14255
1.14056
1.17087
1.17233
1.17285
1.1717
1.17037
1.1698
1.16814
1.16644
1.16526
1.1637
1.16222
1.16069
1.15904
1.15716
1.15546
1.15364
1.1518
1.15008
1.17822
1.17964
1.18083
1.17928
1.1782
1.17855
1.17608
1.17527
1.1738
1.17166
1.17092
1.16904
1.16743
1.16581
1.16409
1.1622
1.16065
1.15866
1.18469
1.18598
1.18727
1.18583
1.18537
1.18531
1.18254
1.18284
1.18017
1.17867
1.17853
1.17582
1.17521
1.17315
1.17166
1.16991
1.16843
1.16634
1.18978
1.19034
1.19115
1.19189
1.1912
1.19004
1.18878
1.18832
1.18572
1.1847
1.18417
1.18198
1.18098
1.17946
1.17766
1.17602
1.17492
1.17223
1.19369
1.19415
1.19498
1.19755
1.19496
1.1937
1.19442
1.19166
1.19135
1.18967
1.1887
1.18773
1.18516
1.1852
1.18195
1.18137
1.17961
1.1769
1.19599
1.19715
1.19868
1.20014
1.19705
1.19693
1.19827
1.19423
1.19508
1.19417
1.19131
1.19182
1.18926
1.18786
1.18674
1.18457
1.18313
1.18164
1.19794
1.19987
1.20166
1.20152
1.20036
1.20011
1.1998
1.19739
1.19716
1.1967
1.19366
1.19455
1.19215
1.19003
1.19047
1.18633
1.18657
1.18419
1.19909
1.20141
1.20302
1.20283
1.20256
1.20197
1.20088
1.20012
1.19899
1.19764
1.19669
1.19536
1.19394
1.19263
1.19112
1.18937
1.18793
1.18617
1.19998
1.20252
1.20386
1.20387
1.20352
1.2029
1.20217
1.20109
1.19999
1.19894
1.19772
1.19654
1.19531
1.19388
1.19248
1.19094
1.18933
1.18777
1.20093
1.20326
1.20469
1.20453
1.20417
1.20357
1.20283
1.20194
1.20103
1.20001
1.19891
1.19769
1.19638
1.19493
1.19343
1.19184
1.19023
1.18858
1.20098
1.20341
1.205
1.20482
1.20438
1.20375
1.20303
1.20222
1.20128
1.20016
1.1989
1.19747
1.19595
1.19431
1.19264
1.1909
1.18918
1.1874
1.20248
1.20258
1.20308
1.20256
1.20197
1.20123
1.20035
1.1993
1.19811
1.19679
1.19535
1.19382
1.19223
1.19056
1.18886
1.18713
1.1854
1.18382
1.0896
1.10865
1.10496
1.10628
1.10794
1.10939
1.11073
1.11178
1.11269
1.11402
1.11415
1.11405
1.11502
1.1155
1.1148
1.11439
1.11555
1.11478
1.11482
1.11603
1.11469
1.11555
1.11629
1.11559
1.11653
1.11565
1.11326
1.11087
1.1095
1.11044
1.11329
1.1169
1.12043
1.12227
1.12347
1.1264
1.13231
1.1338
1.12599
1.11603
1.10923
1.10476
1.10066
1.0975
1.09681
1.09822
1.10041
1.10265
1.1048
1.10689
1.1089
1.11089
1.11288
1.11489
1.11688
1.11894
1.12111
1.12332
1.12559
1.12788
1.13005
1.13215
1.13402
1.13599
1.138
1.14054
1.1437
1.14715
1.15041
1.15333
1.15592
1.15856
1.16123
1.16393
1.16646
1.16862
1.17059
1.1726
1.1748
1.177
1.17901
1.18082
1.18254
1.18461
1.18696
1.18855
1.19144
1.1972
1.20049
1.20271
1.20446
1.20547
1.20772
1.2107
1.21771
1.2216
1.22344
1.22402
1.21952
1.21555
1.21698
1.21862
1.21914
1.21492
1.20696
1.20595
1.22518
1.25904
1.27038
1.2375
1.19985
1.17949
1.16291
1.15724
1.15217
1.14864
1.14933
1.1499
1.14899
1.14487
1.15099
1.1584
1.15947
1.16125
1.16621
1.17015
1.17147
1.16928
1.16228
1.16499
1.17261
1.1585
1.17784
1.18309
1.18158
1.18578
1.20061
1.21543
1.22732
1.22786
1.23124
1.23505
1.23774
1.24659
1.2573
1.26721
1.27466
1.28627
1.29733
1.29872
1.30915
1.31348
1.31695
1.32446
1.33416
1.35187
1.36286
1.37234
1.37152
1.39535
1.39488
1.37346
1.31695
1.27911
1.28436
1.31515
1.31979
1.31099
1.301
1.29845
1.29648
1.28873
1.27045
1.24896
1.23413
1.22216
1.21222
1.20348
1.19715
1.19588
1.08354
1.10212
1.09878
1.10053
1.10563
1.10986
1.11313
1.11621
1.1158
1.11851
1.12034
1.11571
1.11891
1.11771
1.11349
1.11825
1.11382
1.11424
1.11631
1.11205
1.11781
1.11808
1.11479
1.12362
1.12675
1.12153
1.12678
1.13685
1.13849
1.13112
1.1329
1.15165
1.17789
1.20086
1.18952
1.14806
1.15036
1.19081
1.18731
1.14526
1.11504
1.1044
1.10253
1.10353
1.10567
1.10838
1.1113
1.11436
1.1175
1.12069
1.12391
1.12729
1.1308
1.13441
1.13809
1.14196
1.14595
1.14995
1.1537
1.15689
1.15959
1.16236
1.16564
1.17005
1.1748
1.17986
1.18469
1.18875
1.19154
1.19303
1.19342
1.19323
1.19264
1.19238
1.19256
1.19256
1.19242
1.19229
1.19204
1.19095
1.1879
1.18332
1.17907
1.17825
1.17882
1.17587
1.18047
1.19924
1.21541
1.24389
1.25648
1.26547
1.27423
1.28215
1.29114
1.29384
1.29228
1.29202
1.29053
1.2835
1.28756
1.28906
1.27139
1.2856
1.31045
1.28196
1.27317
1.3501
1.39954
1.33115
1.23956
1.21157
1.17805
1.15728
1.18906
1.18693
1.18899
1.18014
1.17563
1.2022
1.18129
1.16577
1.15902
1.1649
1.18433
1.19972
1.19619
1.16154
1.13881
1.1565
1.16666
1.12332
1.14449
1.19203
1.22536
1.23715
1.25997
1.29553
1.2573
1.25993
1.28729
1.31307
1.31721
1.3269
1.34195
1.35594
1.36587
1.39188
1.41974
1.42536
1.44501
1.44782
1.45329
1.46244
1.46489
1.50216
1.53715
1.55511
1.54383
1.59135
1.55584
1.40022
1.25816
1.30838
1.40615
1.36412
1.34759
1.40805
1.42429
1.45721
1.47804
1.46526
1.41895
1.36247
1.31951
1.288
1.26514
1.24926
1.24239
1.24865
1.07403
1.08565
1.08618
1.09303
1.1013
1.10664
1.10854
1.11167
1.10967
1.10553
1.111
1.10533
1.09663
1.10675
1.09771
1.09839
1.10396
1.09322
1.10452
1.10009
1.09184
1.1076
1.09787
1.09458
1.12326
1.13031
1.11345
1.11849
1.14411
1.15523
1.14561
1.13959
1.1563
1.18899
1.19783
1.17215
1.1421
1.12403
1.11207
1.10412
1.1014
1.10136
1.10257
1.10458
1.10704
1.10985
1.11326
1.117
1.12081
1.12467
1.12838
1.13192
1.13544
1.13935
1.14394
1.14924
1.1552
1.1613
1.16661
1.16994
1.17105
1.17074
1.16999
1.16996
1.17169
1.17533
1.17995
1.18263
1.18235
1.17977
1.1758
1.17129
1.16694
1.16425
1.16322
1.16122
1.15747
1.15309
1.14927
1.146
1.14134
1.13514
1.12807
1.1244
1.12296
1.11966
1.12434
1.13935
1.16077
1.19894
1.21589
1.23468
1.25413
1.27662
1.28103
1.27069
1.25979
1.24858
1.24271
1.25561
1.28123
1.2991
1.28532
1.27703
1.28969
1.27311
1.27177
1.32492
1.31735
1.23792
1.19869
1.18914
1.1869
1.21158
1.22955
1.21035
1.19709
1.20344
1.19628
1.17694
1.15965
1.13266
1.14348
1.16543
1.15816
1.15535
1.14987
1.13597
1.15961
1.16988
1.17138
1.16197
1.12272
1.16475
1.2205
1.25428
1.29598
1.32218
1.13021
1.12578
1.22533
1.30376
1.32685
1.34987
1.36495
1.35052
1.37352
1.43765
1.4486
1.45648
1.46683
1.46648
1.50318
1.52573
1.52526
1.57623
1.58096
1.56169
1.58255
1.65077
1.5774
1.37023
1.37516
1.42301
1.62652
1.5354
1.33439
1.38223
1.45578
1.54531
1.58917
1.54901
1.477
1.40595
1.34549
1.30464
1.27785
1.25934
1.25578
1.27113
1.06774
1.07693
1.08713
1.0991
1.10512
1.10568
1.10396
1.10098
1.09953
1.10003
1.09697
1.09843
1.09392
1.09729
1.09788
1.09602
1.11397
1.10647
1.10611
1.11707
1.09833
1.10059
1.1144
1.08786
1.06855
1.10317
1.14153
1.13454
1.11094
1.11418
1.15346
1.20371
1.20806
1.16579
1.12895
1.11081
1.10094
1.09544
1.09229
1.09089
1.0912
1.09197
1.09336
1.095
1.09691
1.09939
1.10239
1.10586
1.10983
1.1138
1.11739
1.12038
1.12278
1.12498
1.12747
1.1312
1.13655
1.14354
1.15184
1.15975
1.16586
1.16937
1.16936
1.16527
1.15836
1.15254
1.15173
1.15476
1.15738
1.1573
1.15578
1.15509
1.15586
1.15828
1.16118
1.16243
1.16152
1.15868
1.15559
1.1532
1.15358
1.15538
1.15587
1.15195
1.14758
1.14436
1.14307
1.14616
1.16076
1.17838
1.18524
1.19315
1.20666
1.22389
1.22435
1.2132
1.20706
1.20555
1.19928
1.19542
1.21815
1.25866
1.25262
1.24736
1.28962
1.2811
1.25064
1.3058
1.30599
1.23104
1.19991
1.20526
1.23559
1.24767
1.24289
1.23914
1.22165
1.21033
1.18832
1.16497
1.15958
1.17694
1.21723
1.20016
1.18696
1.17327
1.14636
1.15669
1.18747
1.18221
1.2009
1.19555
1.16574
1.17982
1.2271
1.30063
1.27983
1.19764
1.0695
1.01956
1.13291
1.25596
1.29479
1.35446
1.38215
1.29671
1.35263
1.46348
1.42014
1.43565
1.40678
1.37544
1.48799
1.52765
1.52709
1.64256
1.62767
1.50458
1.53592
1.57684
1.63163
1.35968
1.52241
1.65562
1.71132
1.766
1.55248
1.33194
1.46427
1.59255
1.63224
1.54625
1.46293
1.40479
1.34713
1.30376
1.27623
1.26236
1.27055
1.2931
1.06557
1.07842
1.095
1.10017
1.09746
1.09355
1.09218
1.09213
1.09215
1.09991
1.10191
1.09377
1.09228
1.09816
1.11004
1.12081
1.13339
1.12999
1.13186
1.14376
1.11731
1.10615
1.14304
1.15084
1.12204
1.09913
1.09232
1.10434
1.13768
1.17778
1.18618
1.15923
1.12761
1.10511
1.09428
1.0896
1.08752
1.08684
1.08744
1.08827
1.08928
1.0903
1.09078
1.09149
1.09203
1.09268
1.0938
1.09526
1.09734
1.09994
1.10298
1.10687
1.11103
1.11542
1.12001
1.12467
1.12961
1.13502
1.14137
1.14886
1.15694
1.16465
1.17016
1.17112
1.16653
1.15854
1.15025
1.14524
1.14397
1.14539
1.14785
1.14928
1.14947
1.15117
1.15459
1.15732
1.15885
1.16027
1.16218
1.16102
1.16115
1.16143
1.16565
1.16937
1.16767
1.16265
1.15284
1.14601
1.14698
1.1626
1.17175
1.17495
1.18561
1.19345
1.19793
1.20018
1.2073
1.21118
1.21456
1.2136
1.21334
1.22254
1.21495
1.21602
1.23322
1.21076
1.22497
1.30494
1.27489
1.21368
1.21452
1.24558
1.26231
1.24952
1.25072
1.23181
1.20678
1.19776
1.18005
1.16875
1.17407
1.20708
1.19221
1.16869
1.20724
1.2171
1.20864
1.20488
1.15991
1.17099
1.17398
1.16751
1.19262
1.21193
1.2659
1.28157
1.15817
1.12223
1.19865
1.10297
1.14365
1.24424
1.2574
1.33498
1.40738
1.23739
1.3168
1.47785
1.39524
1.4323
1.38616
1.28605
1.44449
1.48088
1.48597
1.6497
1.66906
1.50494
1.59695
1.21773
1.61055
1.38561
1.42525
1.72522
1.45059
1.54294
1.65167
1.3732
1.4546
1.61683
1.64178
1.52388
1.44023
1.39758
1.34704
1.30247
1.27662
1.27056
1.28881
1.30997
1.0657
1.08381
1.09706
1.09125
1.08846
1.0868
1.08741
1.08945
1.09477
1.09924
1.09295
1.08813
1.09418
1.10821
1.1295
1.14154
1.14558
1.15015
1.15138
1.14822
1.13398
1.12012
1.10702
1.09055
1.08894
1.10785
1.13633
1.15866
1.16334
1.15182
1.13045
1.10996
1.09809
1.09178
1.0892
1.08804
1.088
1.08874
1.08982
1.09179
1.09384
1.09578
1.09751
1.0989
1.09953
1.09928
1.09865
1.09813
1.09813
1.09872
1.09971
1.10098
1.10299
1.10617
1.11056
1.11601
1.12213
1.12771
1.13199
1.1361
1.14081
1.14593
1.15084
1.15302
1.15039
1.14467
1.13798
1.13361
1.13367
1.13797
1.14419
1.14835
1.14846
1.14808
1.14904
1.15101
1.1517
1.15245
1.15433
1.15651
1.15829
1.15716
1.1563
1.16201
1.16678
1.17966
1.17671
1.16248
1.14322
1.13577
1.14394
1.14696
1.16469
1.18164
1.20096
1.2032
1.19252
1.17669
1.17561
1.19314
1.20773
1.2105
1.21643
1.24147
1.24097
1.20693
1.2588
1.31884
1.26079
1.21569
1.23026
1.2444
1.2401
1.25495
1.27628
1.24107
1.20403
1.18206
1.16777
1.17106
1.1811
1.19133
1.14865
1.15459
1.19044
1.17902
1.18673
1.24234
1.22347
1.22259
1.21461
1.23948
1.22225
1.24134
1.27137
1.15755
1.12402
1.21976
1.24342
1.17193
1.19401
1.28303
1.23419
1.29666
1.45103
1.21511
1.23094
1.44722
1.38467
1.4336
1.45395
1.3099
1.42329
1.4515
1.42778
1.6044
1.6746
1.55837
1.70505
1.12162
1.47059
1.44545
1.3241
1.52757
1.44462
1.58045
1.6301
1.42746
1.44775
1.63363
1.64041
1.50426
1.4249
1.3962
1.35755
1.31581
1.29343
1.29786
1.32767
1.34469
1.06644
1.08621
1.09073
1.08236
1.08334
1.08174
1.08179
1.08146
1.0854
1.09463
1.09097
1.08625
1.09906
1.11471
1.13276
1.14091
1.131
1.11552
1.10427
1.09525
1.0909
1.09223
1.10092
1.11638
1.13474
1.14857
1.15099
1.14605
1.13467
1.11963
1.10546
1.0945
1.08791
1.08404
1.08133
1.08088
1.08192
1.08463
1.08888
1.09371
1.09916
1.10399
1.10847
1.11194
1.11412
1.11486
1.11416
1.1121
1.10906
1.10585
1.10308
1.10126
1.10129
1.10332
1.10791
1.11309
1.11723
1.11996
1.12155
1.12218
1.12257
1.12259
1.12245
1.12366
1.12642
1.1308
1.13583
1.14015
1.14423
1.14851
1.15214
1.15479
1.15688
1.1609
1.1643
1.16627
1.16711
1.16778
1.16731
1.16639
1.16596
1.16301
1.15739
1.15381
1.14787
1.15345
1.16758
1.17992
1.17368
1.15101
1.14639
1.14713
1.16181
1.16603
1.16502
1.14377
1.1353
1.14882
1.17253
1.20627
1.24067
1.25783
1.26108
1.2648
1.26282
1.25931
1.31469
1.31697
1.24367
1.21549
1.21712
1.20517
1.1928
1.22377
1.24569
1.22465
1.20514
1.17898
1.17262
1.16897
1.17508
1.17841
1.15397
1.15869
1.1552
1.13098
1.13875
1.19148
1.23553
1.24147
1.22758
1.24415
1.23419
1.23558
1.21328
1.14414
1.15826
1.2581
1.17706
1.16344
1.19775
1.30432
1.20135
1.22665
1.44142
1.26617
1.15561
1.3595
1.3525
1.37401
1.47182
1.39757
1.41165
1.43712
1.41137
1.52811
1.6415
1.63372
1.61363
1.48615
1.55535
1.54488
1.42489
1.50048
1.41909
1.49158
1.65165
1.44761
1.44039
1.6454
1.63925
1.48728
1.41333
1.39824
1.37692
1.34161
1.31318
1.31667
1.35112
1.36103
1.06575
1.08331
1.08637
1.08423
1.08245
1.07683
1.07273
1.07174
1.07551
1.08709
1.09077
1.08353
1.09212
1.11104
1.13226
1.1418
1.13826
1.12452
1.1164
1.11461
1.12171
1.13096
1.13777
1.14489
1.1474
1.14329
1.13196
1.11853
1.10437
1.09229
1.08292
1.07732
1.07376
1.07372
1.07628
1.08137
1.08873
1.09695
1.10581
1.11393
1.12094
1.12656
1.13089
1.13408
1.13623
1.13709
1.13722
1.13677
1.13563
1.13419
1.13256
1.13009
1.1266
1.12078
1.11349
1.10655
1.10366
1.10685
1.11315
1.11815
1.12161
1.12562
1.12946
1.13428
1.13951
1.14299
1.14558
1.14868
1.15304
1.15798
1.1618
1.16402
1.16481
1.16705
1.17011
1.17219
1.17582
1.17796
1.18176
1.18076
1.18106
1.17944
1.17537
1.17216
1.16519
1.14583
1.14232
1.15478
1.17243
1.16827
1.15584
1.14347
1.13931
1.1265
1.12672
1.12499
1.14162
1.19568
1.26002
1.27996
1.27495
1.26806
1.26774
1.2773
1.29239
1.31392
1.33078
1.29334
1.22474
1.20925
1.2052
1.19961
1.20477
1.22848
1.22475
1.21499
1.21166
1.1809
1.17203
1.14003
1.14053
1.15169
1.14366
1.13509
1.12213
1.13241
1.13909
1.13037
1.18627
1.24884
1.22774
1.2365
1.2295
1.27638
1.1752
1.19643
1.2016
1.19233
1.17289
1.1944
1.2593
1.26986
1.15603
1.17465
1.34256
1.33849
1.22314
1.33113
1.338
1.29602
1.37183
1.43498
1.4206
1.37917
1.38914
1.45865
1.56121
1.64576
1.59064
1.70018
1.63449
1.59436
1.5499
1.55733
1.47028
1.49534
1.60403
1.44284
1.4298
1.6457
1.63234
1.47308
1.40351
1.39609
1.38875
1.36408
1.33298
1.33347
1.36845
1.36399
1.06446
1.08101
1.08747
1.08364
1.0735
1.06615
1.06299
1.06318
1.06431
1.07487
1.08567
1.08438
1.08958
1.10102
1.11632
1.12733
1.13698
1.13363
1.13433
1.13889
1.13796
1.13375
1.12913
1.12383
1.1186
1.11108
1.10327
1.09439
1.08656
1.07981
1.07487
1.07316
1.07527
1.08088
1.08916
1.09802
1.10642
1.11414
1.11989
1.12414
1.12686
1.1286
1.13005
1.13142
1.13302
1.13508
1.13673
1.13761
1.13777
1.13773
1.13856
1.14029
1.142
1.14272
1.14191
1.13902
1.13388
1.12915
1.127
1.12697
1.12714
1.12999
1.13626
1.14243
1.14652
1.15001
1.15521
1.15995
1.16307
1.16412
1.1625
1.16241
1.16283
1.16309
1.16496
1.16316
1.16636
1.16667
1.17138
1.17327
1.17784
1.18053
1.1817
1.17942
1.18864
1.18561
1.17407
1.16299
1.17012
1.17666
1.1723
1.1617
1.15934
1.15918
1.15868
1.13967
1.1394
1.20433
1.27613
1.27329
1.25963
1.2597
1.27118
1.28975
1.30889
1.3243
1.31742
1.26725
1.22362
1.21404
1.21567
1.21596
1.2191
1.23277
1.21188
1.20388
1.19669
1.15637
1.13496
1.09769
1.1113
1.13924
1.13511
1.12595
1.10901
1.15055
1.15202
1.11285
1.09647
1.17532
1.22837
1.24154
1.22568
1.27292
1.23914
1.19061
1.18008
1.20425
1.26673
1.23224
1.30344
1.22124
1.14171
1.20432
1.29514
1.3385
1.29981
1.3663
1.35197
1.29194
1.2661
1.41763
1.43996
1.35363
1.36409
1.3892
1.46154
1.62339
1.58686
1.63797
1.5154
1.45855
1.44093
1.44477
1.40228
1.46211
1.62857
1.47711
1.43929
1.64819
1.62595
1.46178
1.39131
1.38391
1.38645
1.36899
1.34177
1.34434
1.37374
1.35839
1.06241
1.07623
1.08241
1.07292
1.06271
1.05862
1.05987
1.06516
1.06516
1.06766
1.07828
1.0807
1.08331
1.09522
1.10657
1.11382
1.12084
1.12267
1.12236
1.12208
1.11976
1.11583
1.11276
1.10869
1.10282
1.09506
1.0859
1.07649
1.06936
1.0646
1.06599
1.07198
1.08172
1.0916
1.09997
1.10722
1.11305
1.11815
1.12119
1.12301
1.12351
1.12361
1.12291
1.1226
1.12219
1.12264
1.12475
1.12778
1.13034
1.1311
1.12956
1.12801
1.12989
1.13576
1.14323
1.15002
1.15494
1.15629
1.15462
1.15241
1.15085
1.15049
1.15259
1.15613
1.15924
1.16232
1.16426
1.16427
1.16127
1.1594
1.15698
1.15636
1.15373
1.14838
1.14912
1.14489
1.14663
1.14533
1.151
1.15279
1.16205
1.16482
1.17833
1.17976
1.17946
1.18837
1.19921
1.18755
1.16706
1.16677
1.17935
1.1849
1.18773
1.18304
1.1656
1.14279
1.12743
1.19724
1.27392
1.25703
1.25178
1.26322
1.27573
1.28397
1.30338
1.30862
1.30412
1.24752
1.21787
1.21273
1.20966
1.20997
1.20815
1.21762
1.18948
1.18337
1.16732
1.13079
1.12145
1.10631
1.12958
1.15643
1.14467
1.13543
1.11288
1.14677
1.15348
1.13687
1.07298
1.0927
1.18567
1.22573
1.24519
1.26982
1.24853
1.17983
1.14656
1.2363
1.335
1.26772
1.28346
1.22417
1.14454
1.23465
1.34628
1.36346
1.30743
1.3714
1.30103
1.29416
1.2034
1.39427
1.36595
1.34908
1.35023
1.34786
1.35613
1.5608
1.55274
1.6574
1.55454
1.50125
1.48853
1.43463
1.40801
1.46275
1.56571
1.43666
1.43847
1.64999
1.61768
1.45196
1.38029
1.36707
1.37583
1.36483
1.35253
1.36956
1.37642
1.34894
1.05934
1.06697
1.06487
1.05552
1.05529
1.05904
1.0642
1.07168
1.07276
1.07096
1.0768
1.08674
1.08244
1.0894
1.09515
1.10352
1.10635
1.10658
1.10517
1.10328
1.09872
1.09797
1.09528
1.09002
1.0837
1.07694
1.07081
1.06773
1.06852
1.07344
1.08207
1.09134
1.0989
1.10496
1.11149
1.1185
1.12368
1.12597
1.12648
1.12604
1.12496
1.12368
1.12243
1.12142
1.12047
1.11924
1.11787
1.11804
1.121
1.12592
1.12974
1.12791
1.11933
1.11198
1.11661
1.13005
1.14478
1.15524
1.16288
1.16706
1.16888
1.17085
1.17273
1.17164
1.1684
1.1649
1.15873
1.15565
1.15036
1.14819
1.14344
1.1426
1.14023
1.13708
1.13814
1.13605
1.13639
1.13371
1.13649
1.13414
1.1441
1.14709
1.15697
1.16995
1.18287
1.18202
1.19426
1.21126
1.20215
1.18002
1.17045
1.17242
1.16366
1.16634
1.1835
1.19121
1.15186
1.1915
1.27546
1.25854
1.25639
1.26645
1.27569
1.27588
1.28993
1.29925
1.29454
1.25288
1.20283
1.20112
1.20539
1.20662
1.19775
1.20304
1.17723
1.1715
1.14542
1.12256
1.12769
1.12684
1.14072
1.14575
1.12696
1.1085
1.09136
1.10936
1.15345
1.17096
1.17013
1.12793
1.14915
1.2145
1.262
1.28369
1.24382
1.21804
1.21511
1.24283
1.3072
1.29397
1.25897
1.22207
1.14729
1.22922
1.40736
1.41431
1.35578
1.37802
1.26029
1.27623
1.19625
1.36174
1.25445
1.3154
1.33637
1.37421
1.32324
1.46533
1.49491
1.62097
1.61127
1.63424
1.55263
1.50384
1.49619
1.49261
1.56298
1.46187
1.45582
1.65733
1.61144
1.44571
1.37182
1.35255
1.36604
1.36655
1.36762
1.39774
1.37182
1.31872
1.05727
1.06127
1.05829
1.06052
1.06396
1.06502
1.06321
1.06417
1.0604
1.06613
1.06082
1.07172
1.07637
1.0844
1.08924
1.09598
1.09446
1.09685
1.09271
1.09019
1.08823
1.08482
1.08138
1.07454
1.06948
1.0642
1.06176
1.06329
1.06763
1.0758
1.08503
1.09333
1.10185
1.11148
1.12033
1.12355
1.1215
1.11747
1.1145
1.11087
1.1072
1.10426
1.10283
1.10306
1.10401
1.10485
1.10442
1.10264
1.10123
1.10289
1.10964
1.11776
1.12045
1.11318
1.1044
1.10703
1.12467
1.14147
1.15022
1.15454
1.16182
1.16464
1.16285
1.15787
1.14982
1.14261
1.13579
1.13458
1.13363
1.13819
1.1424
1.15155
1.15572
1.16064
1.16109
1.1659
1.1622
1.15654
1.152
1.14759
1.14434
1.14055
1.1478
1.14093
1.15447
1.17152
1.17991
1.19357
1.21154
1.22057
1.20141
1.19713
1.1861
1.19006
1.20856
1.21098
1.15888
1.16466
1.26894
1.26471
1.25918
1.27
1.27437
1.2734
1.28168
1.29566
1.2818
1.2679
1.20437
1.19064
1.20541
1.19095
1.16591
1.16148
1.14789
1.14884
1.12581
1.11985
1.12662
1.12541
1.12828
1.12583
1.10609
1.08779
1.07246
1.05505
1.11814
1.15383
1.21235
1.1864
1.13148
1.19911
1.24544
1.26533
1.23502
1.19439
1.25462
1.28381
1.31009
1.32522
1.27864
1.24028
1.17908
1.20191
1.37523
1.37864
1.34525
1.3573
1.29497
1.28161
1.24929
1.31958
1.2379
1.30454
1.33578
1.43118
1.38779
1.41517
1.43425
1.52592
1.54088
1.6186
1.4893
1.47175
1.52243
1.51233
1.53461
1.46117
1.47683
1.668
1.60232
1.44202
1.36999
1.34638
1.35992
1.37351
1.38681
1.40609
1.36547
1.30423
1.05599
1.05844
1.05909
1.05905
1.05712
1.05637
1.05418
1.05909
1.05422
1.06088
1.07137
1.06484
1.06976
1.07905
1.08569
1.09088
1.08945
1.0882
1.08752
1.08383
1.08151
1.07849
1.07407
1.06899
1.06671
1.0653
1.06825
1.07419
1.08218
1.09162
1.10034
1.10791
1.11604
1.12107
1.12084
1.1168
1.11419
1.11345
1.11145
1.10734
1.1038
1.10084
1.09872
1.09716
1.09642
1.09641
1.09771
1.09963
1.1018
1.10344
1.10553
1.10636
1.10642
1.10765
1.10995
1.10749
1.10202
1.10913
1.13345
1.15325
1.15522
1.1497
1.14463
1.13435
1.12822
1.12712
1.13178
1.14241
1.15792
1.17361
1.18519
1.19555
1.19992
1.20655
1.2078
1.20907
1.20612
1.19947
1.18859
1.17901
1.17692
1.16486
1.16672
1.16126
1.14626
1.14417
1.14917
1.1669
1.18032
1.20528
1.20795
1.21367
1.20987
1.19
1.17645
1.20365
1.18125
1.13475
1.24703
1.27284
1.26049
1.2711
1.28074
1.27004
1.27044
1.30149
1.25877
1.25332
1.23002
1.20228
1.21063
1.17217
1.14723
1.14033
1.12941
1.12871
1.1151
1.12103
1.12646
1.12394
1.12108
1.13208
1.09929
1.09336
1.10969
1.0952
1.09511
1.13547
1.16601
1.18504
1.14483
1.19152
1.24864
1.25231
1.20605
1.16102
1.21989
1.31615
1.33744
1.33736
1.30166
1.29256
1.2498
1.20099
1.27215
1.29143
1.2841
1.2886
1.27648
1.2397
1.26917
1.27882
1.27513
1.33364
1.3591
1.46728
1.46778
1.40824
1.43086
1.44926
1.45311
1.58017
1.45514
1.47994
1.54614
1.50563
1.51237
1.48186
1.51002
1.68198
1.59001
1.44394
1.37773
1.35673
1.3675
1.38973
1.41092
1.40826
1.37835
1.32228
1.05588
1.05778
1.05753
1.05633
1.05724
1.06236
1.06535
1.06562
1.07185
1.06301
1.07176
1.08494
1.07921
1.07856
1.08636
1.08397
1.08639
1.08332
1.07989
1.07916
1.07478
1.07235
1.06727
1.06329
1.06237
1.06294
1.06839
1.07676
1.0864
1.09673
1.10637
1.11508
1.12182
1.12403
1.12248
1.11961
1.11828
1.11606
1.11181
1.10545
1.09808
1.08955
1.08425
1.08285
1.08572
1.08933
1.09109
1.0922
1.09308
1.09442
1.0966
1.10045
1.10411
1.10641
1.1085
1.11307
1.11679
1.11301
1.10832
1.1189
1.13739
1.1391
1.1302
1.12606
1.12937
1.14163
1.16095
1.17732
1.19254
1.19998
1.20285
1.20709
1.21216
1.21476
1.223
1.22435
1.2258
1.22239
1.22078
1.21128
1.19897
1.19045
1.18238
1.18801
1.1832
1.16994
1.14417
1.14438
1.15104
1.1832
1.2009
1.21189
1.22625
1.20939
1.17161
1.19968
1.21872
1.14031
1.21401
1.27683
1.26397
1.2669
1.28395
1.27812
1.25488
1.29785
1.27254
1.19704
1.22167
1.22294
1.22493
1.1727
1.14922
1.13175
1.11815
1.11735
1.11002
1.11635
1.11757
1.12118
1.10864
1.12834
1.09607
1.07821
1.10011
1.13182
1.12624
1.13639
1.18013
1.21224
1.17993
1.19739
1.27114
1.24775
1.19735
1.18937
1.24806
1.33235
1.29404
1.27358
1.27673
1.30732
1.30013
1.24963
1.22489
1.23243
1.24646
1.24977
1.24809
1.22137
1.27707
1.25467
1.28822
1.37672
1.39486
1.47944
1.50798
1.42218
1.46407
1.44931
1.40313
1.53393
1.42449
1.50505
1.56144
1.48877
1.50472
1.51696
1.55466
1.69664
1.57347
1.44941
1.38689
1.36835
1.38938
1.42785
1.43044
1.3828
1.39473
1.33084
1.05646
1.05799
1.05806
1.05995
1.06112
1.06367
1.06159
1.06715
1.06918
1.07273
1.06937
1.06717
1.07085
1.07453
1.08521
1.08183
1.08283
1.08344
1.07745
1.07551
1.07071
1.06743
1.06321
1.06121
1.06251
1.06673
1.07411
1.08329
1.09256
1.10086
1.10777
1.11367
1.11721
1.11784
1.11751
1.12022
1.12387
1.12275
1.1192
1.11662
1.11679
1.1179
1.1154
1.10991
1.106
1.10355
1.10296
1.10475
1.10457
1.10501
1.10394
1.10161
1.1001
1.10416
1.10633
1.102
1.10495
1.11742
1.12102
1.11254
1.11573
1.1251
1.12372
1.1273
1.14221
1.16196
1.17923
1.18563
1.18511
1.18204
1.17996
1.18084
1.18628
1.19486
1.2042
1.21781
1.22384
1.22926
1.22642
1.22979
1.21766
1.20564
1.18711
1.18553
1.18558
1.19613
1.17902
1.16041
1.14225
1.15445
1.18488
1.19536
1.22217
1.24346
1.21579
1.19632
1.227
1.16494
1.17221
1.27118
1.26418
1.26691
1.27736
1.28366
1.25854
1.25181
1.3162
1.20223
1.18953
1.22756
1.23711
1.1901
1.16219
1.13652
1.13234
1.13349
1.13136
1.13443
1.12385
1.12609
1.1029
1.11843
1.12824
1.08627
1.08936
1.11442
1.16627
1.1529
1.1779
1.24465
1.19913
1.21497
1.25978
1.23188
1.206
1.19815
1.27218
1.3478
1.25795
1.23422
1.26203
1.29376
1.29877
1.29556
1.26737
1.24973
1.25081
1.25096
1.26432
1.26816
1.31377
1.26603
1.29649
1.414
1.40753
1.44785
1.50037
1.43652
1.48746
1.47744
1.40846
1.52211
1.40053
1.51551
1.54945
1.46918
1.51535
1.56709
1.61742
1.70419
1.55689
1.46093
1.39613
1.3653
1.39942
1.44645
1.43343
1.33477
1.37518
1.31794
1.05756
1.0589
1.0594
1.05993
1.0606
1.06342
1.06375
1.07136
1.08112
1.07884
1.0854
1.07996
1.07599
1.07554
1.08386
1.08225
1.07972
1.08015
1.07774
1.07527
1.0708
1.06708
1.0636
1.0636
1.06669
1.0734
1.08245
1.09224
1.10214
1.11114
1.11897
1.12465
1.12783
1.12774
1.12736
1.12752
1.12688
1.12715
1.13039
1.13144
1.1327
1.13649
1.13498
1.13677
1.14199
1.13991
1.13265
1.12749
1.1237
1.12175
1.1197
1.11733
1.11382
1.10869
1.11158
1.11352
1.10747
1.10713
1.12235
1.12292
1.11281
1.11339
1.11944
1.13256
1.15182
1.16947
1.17898
1.17454
1.16548
1.15885
1.15528
1.15639
1.1568
1.17006
1.17456
1.19814
1.21168
1.22543
1.23193
1.24159
1.23721
1.24125
1.21937
1.19806
1.18127
1.18063
1.18868
1.18365
1.16718
1.14395
1.17531
1.19106
1.19726
1.22293
1.23275
1.18749
1.22339
1.20048
1.13909
1.24252
1.26954
1.2669
1.27339
1.2783
1.27859
1.22351
1.27847
1.25736
1.19946
1.23388
1.2463
1.21251
1.18263
1.15347
1.16097
1.16983
1.15829
1.15112
1.13752
1.1422
1.10757
1.09763
1.14257
1.10488
1.0825
1.10943
1.18725
1.20256
1.17676
1.2381
1.22164
1.19046
1.26374
1.25786
1.22451
1.19466
1.25385
1.3139
1.22939
1.24348
1.29338
1.31541
1.28816
1.29686
1.30614
1.29156
1.29256
1.28006
1.29408
1.32132
1.3505
1.2851
1.29762
1.40708
1.36538
1.36904
1.46625
1.4522
1.51427
1.50299
1.4453
1.52999
1.39471
1.54745
1.5291
1.45673
1.54027
1.62255
1.69955
1.70582
1.53538
1.45228
1.40365
1.35999
1.39832
1.43706
1.43445
1.33658
1.33353
1.33274
1.05899
1.06033
1.06065
1.06316
1.0671
1.06987
1.07513
1.07843
1.08254
1.07745
1.08325
1.08253
1.07869
1.07691
1.08224
1.08106
1.07814
1.07528
1.07452
1.07303
1.06979
1.06701
1.06457
1.0653
1.06859
1.07495
1.08342
1.09245
1.10095
1.10913
1.11722
1.12489
1.12983
1.13176
1.13046
1.12833
1.12785
1.13104
1.13399
1.13223
1.13702
1.14074
1.13882
1.14889
1.15238
1.14602
1.14962
1.15765
1.15968
1.15858
1.15601
1.1482
1.14077
1.1296
1.11718
1.11382
1.11304
1.10545
1.11127
1.12534
1.1243
1.11417
1.11696
1.13456
1.15383
1.17116
1.17377
1.16402
1.15616
1.15105
1.15055
1.15841
1.15583
1.15666
1.15499
1.16802
1.18523
1.20516
1.20542
1.21954
1.22376
1.23253
1.25044
1.23132
1.21536
1.19716
1.18721
1.18137
1.19781
1.15794
1.15887
1.19236
1.20342
1.20777
1.24067
1.20077
1.20895
1.22972
1.15115
1.1972
1.2677
1.26796
1.27037
1.2709
1.28085
1.25549
1.21351
1.23847
1.20699
1.22154
1.23997
1.22499
1.2005
1.17757
1.17906
1.17813
1.15649
1.1498
1.12807
1.14341
1.11796
1.09135
1.1403
1.14964
1.11675
1.12518
1.19239
1.21986
1.18025
1.23676
1.2494
1.20863
1.26071
1.27062
1.2387
1.20988
1.25564
1.28235
1.21762
1.2522
1.30173
1.30799
1.28198
1.29446
1.29643
1.27518
1.29365
1.28894
1.31999
1.3684
1.37225
1.29096
1.28868
1.40508
1.3347
1.29911
1.42522
1.46004
1.53429
1.51257
1.48827
1.53977
1.38675
1.56106
1.49074
1.45069
1.57328
1.66793
1.74812
1.68318
1.50491
1.42296
1.40414
1.35442
1.39572
1.41056
1.41313
1.35795
1.30207
1.34641
1.061
1.0624
1.06362
1.06719
1.07452
1.0828
1.08551
1.08248
1.07633
1.07399
1.08024
1.08058
1.07896
1.07989
1.083
1.08174
1.08096
1.07739
1.07511
1.07334
1.07112
1.0694
1.06803
1.06919
1.0728
1.07888
1.08626
1.09388
1.10122
1.10779
1.11302
1.11863
1.12351
1.12746
1.12934
1.13309
1.1345
1.1335
1.13301
1.13768
1.14667
1.14484
1.13905
1.15115
1.15563
1.14548
1.1514
1.16259
1.16223
1.15771
1.1595
1.17041
1.179
1.1746
1.16147
1.14448
1.13243
1.12418
1.11609
1.11971
1.125
1.12299
1.12232
1.12942
1.1499
1.16907
1.17029
1.16503
1.1544
1.15345
1.16149
1.17313
1.18425
1.18467
1.16887
1.17482
1.18853
1.20904
1.22402
1.20726
1.22091
1.20926
1.22466
1.23507
1.22777
1.21209
1.21376
1.17833
1.19337
1.18948
1.16556
1.18249
1.19611
1.19556
1.22872
1.22206