/*--------------------------------*- C++ -*----------------------------------*\
| =========                 |                                                 |
| \\      /  F ield         | OpenFOAM: The Open Source CFD Toolbox           |
|  \\    /   O peration     | Version:  dev                                   |
|   \\  /    A nd           | Web:      http://www.openfoam.org               |
|    \\/     M anipulation  |                                                 |
\*---------------------------------------------------------------------------*/
FoamFile
{
    version     2.0;
    format      ascii;
    class       volVectorField;
    object      U;
    location    "9.139";
}
// * * * * * * * * * * * * * * * * * * * * * * * * * * * * * * * * * * * * * //

dimensions      [0 1 -1 0 0 0 0];

internalField   nonuniform List<vector> 
12225
(
(7.05477 0.264518 0)
(4.21519 0.117886 0)
(2.09111 -0.0468707 0)
(1.70412 -0.0733953 0)
(0.537195 -0.0707567 0)
(1.27156 -0.164161 0)
(-0.122936 -0.0300453 0)
(0.903086 -0.224005 0)
(-0.173206 -0.0657385 0)
(0.809857 -0.24426 0)
(-0.106458 -0.0907446 0)
(1.74293 -0.393808 0)
(0.960216 -0.198583 0)
(4.08676 -0.471622 0)
(5.52187 -0.538179 0)
(9.78711 -2.23498 0)
(29.6957 -4.15043 0)
(22.9751 3.68192 0)
(9.71895 0.671766 0)
(8.89728 0.738768 0)
(5.88195 0.30716 0)
(5.66887 0.0721733 0)
(2.16597 -0.0907848 0)
(4.19387 -0.234616 0)
(-0.194054 -0.0561557 0)
(3.34427 -0.45002 0)
(-1.16358 -0.0478654 0)
(2.35888 -0.506485 0)
(-1.83823 -0.243046 0)
(3.16515 -0.94562 0)
(-1.73483 -0.662748 0)
(4.96146 -2.09417 0)
(1.57908 -2.40308 0)
(13.5158 -7.38992 0)
(12.3133 -2.58111 0)
(8.2037 8.23401 0)
(9.63126 0.337188 0)
(11.4802 0.708502 0)
(7.99679 0.402299 0)
(10.0019 0.290824 0)
(4.29674 -0.00540913 0)
(8.69654 -0.091598 0)
(1.09561 -0.200836 0)
(8.30264 -0.539022 0)
(0.707057 -0.160049 0)
(6.91443 -0.837886 0)
(0.992956 -0.415122 0)
(6.89426 -1.3159 0)
(2.09153 -0.724294 0)
(5.30493 -2.28739 0)
(3.8794 -3.81675 0)
(7.27066 -6.28196 0)
(4.88236 -1.23555 0)
(2.55147 4.78971 0)
(8.1352 -0.236345 0)
(13.5146 0.842233 0)
(7.00472 0.283536 0)
(12.9143 0.364242 0)
(4.66499 -0.139714 0)
(12.2738 0.0194028 0)
(2.65531 -0.340192 0)
(11.3907 -0.938092 0)
(3.32959 0.0235332 0)
(9.8172 -1.29062 0)
(2.99879 -0.739049 0)
(9.78734 -2.44041 0)
(5.18314 -0.628997 0)
(9.31894 -3.59859 0)
(6.6499 -3.80382 0)
(7.47176 -6.89409 0)
(8.99081 -2.92949 0)
(6.83194 9.47235 0)
(5.79307 -0.385438 0)
(14.8512 0.407926 0)
(7.75225 0.202159 0)
(13.6189 0.343543 0)
(6.41859 0.0854692 0)
(13.6584 -0.223738 0)
(5.19161 -0.269126 0)
(10.753 -1.40131 0)
(6.13026 0.0204456 0)
(9.8182 -1.51128 0)
(3.38764 -0.508455 0)
(9.34106 -2.90692 0)
(4.32983 -0.270885 0)
(9.22273 -3.96363 0)
(2.78312 -3.56011 0)
(10.5816 -10.0713 0)
(4.9479 -0.861724 0)
(10.758 12.9219 0)
(7.92014 -0.713821 0)
(12.8419 -0.195186 0)
(8.64665 0.109534 0)
(10.9145 0.0069711 0)
(10.6137 -0.733314 0)
(11.5022 -0.205158 0)
(7.82756 0.307962 0)
(8.9649 -2.29959 0)
(8.8581 -0.565645 0)
(6.83053 -0.62932 0)
(5.49111 -1.5044 0)
(5.79254 -3.41789 0)
(4.25872 -1.33585 0)
(6.46783 -3.30494 0)
(0.276336 -5.1078 0)
(3.38563 -8.26786 0)
(-2.64273 -1.43243 0)
(3.91522 11.6226 0)
(9.96459 -0.618181 0)
(9.03669 -0.608944 0)
(10.2331 0.406685 0)
(8.62243 -1.44465 0)
(10.208 -0.157737 0)
(6.58101 -0.345158 0)
(10.5565 0.112295 0)
(6.19512 -2.335 0)
(8.03601 0.620755 0)
(7.24134 -1.12341 0)
(7.43235 -0.533957 0)
(5.52937 -3.41489 0)
(4.26721 -0.941613 0)
(3.57368 -3.53671 0)
(2.93205 -2.42592 0)
(0.66932 -7.44926 0)
(-5.64318 3.50653 0)
(-6.19627 3.31215 0)
(10.9462 -0.844126 0)
(6.90611 -0.918931 0)
(11.5886 -0.0711935 0)
(7.53879 -1.04339 0)
(9.48587 -0.256358 0)
(6.98832 -1.1288 0)
(9.30902 -0.0245504 0)
(6.70132 -2.18338 0)
(8.15025 -1.09082 0)
(8.34611 -1.47196 0)
(8.08785 -0.806384 0)
(8.2268 -3.06302 0)
(5.50314 -1.0118 0)
(4.46409 -3.41025 0)
(4.83505 -3.3561 0)
(3.22984 -5.28357 0)
(-3.51848 1.53908 0)
(-1.01017 -0.0802895 0)
(11.0974 -0.762662 0)
(8.62063 -1.16418 0)
(10.6021 0.00551392 0)
(8.26546 -1.59531 0)
(10.0484 -0.268088 0)
(7.28726 -1.35787 0)
(8.90941 0.0887933 0)
(7.40172 -3.08047 0)
(8.93345 -1.15089 0)
(7.48576 -1.79965 0)
(8.75831 -1.09159 0)
(7.24803 -3.06264 0)
(6.16708 0.0309461 0)
(6.20323 -3.8431 0)
(4.89505 -2.82026 0)
(3.08483 -4.70097 0)
(1.0845 1.04271 0)
(2.81437 -1.71411 0)
(10.7046 -1.22782 0)
(8.80577 -1.19119 0)
(10.8666 -0.323362 0)
(8.26584 -1.7189 0)
(10.1956 -0.38207 0)
(7.59153 -1.36047 0)
(10.042 -0.887239 0)
(7.50927 -2.42588 0)
(7.61836 -1.76242 0)
(7.09094 -2.08153 0)
(8.36645 -1.49908 0)
(6.51457 -2.35978 0)
(6.92237 -0.887138 0)
(6.08694 -3.23215 0)
(4.56168 -2.49623 0)
(2.92918 -3.23535 0)
(2.75023 0.174373 0)
(4.13067 -2.27573 0)
(10.2076 -1.34243 0)
(9.44157 -1.68119 0)
(9.95421 -0.524486 0)
(8.98989 -2.0137 0)
(9.07112 -0.664285 0)
(8.71421 -1.97991 0)
(8.8949 -0.741703 0)
(7.60115 -2.62983 0)
(6.97847 -1.88918 0)
(6.64456 -2.82566 0)
(6.83138 -1.70315 0)
(5.92136 -3.08784 0)
(6.2205 -1.22503 0)
(5.82232 -2.68196 0)
(4.42413 -2.00538 0)
(3.28422 -3.11271 0)
(3.00627 -1.44733 0)
(3.81926 -2.4053 0)
(9.58836 -1.95898 0)
(10.359 -1.64781 0)
(9.62737 -0.913981 0)
(9.29588 -2.0834 0)
(8.76981 -1.17183 0)
(8.4553 -2.05837 0)
(8.16052 -1.33757 0)
(7.7161 -2.39145 0)
(7.03029 -2.2089 0)
(6.48041 -2.70352 0)
(6.04196 -2.23136 0)
(5.53846 -2.82116 0)
(5.22094 -1.92373 0)
(5.20163 -2.59853 0)
(4.62377 -1.9472 0)
(4.10114 -2.75613 0)
(3.85551 -2.41009 0)
(4.08361 -2.85453 0)
(10.0076 -2.40468 0)
(10.1258 -2.12008 0)
(9.64884 -1.26128 0)
(9.17087 -2.08931 0)
(8.58402 -1.45355 0)
(8.19821 -2.24357 0)
(7.78955 -1.64333 0)
(7.42972 -2.53027 0)
(6.89637 -2.35616 0)
(6.45599 -2.86007 0)
(6.02866 -2.60213 0)
(5.56242 -2.97847 0)
(5.12831 -2.49972 0)
(4.97437 -2.76018 0)
(4.72384 -2.66987 0)
(4.56355 -3.06059 0)
(4.35893 -3.04716 0)
(4.31226 -3.26999 0)
(9.96807 -2.89298 0)
(9.64278 -2.12377 0)
(9.13207 -1.68074 0)
(8.74667 -2.29149 0)
(8.42572 -1.93035 0)
(8.09585 -2.38546 0)
(7.70296 -2.19857 0)
(7.34038 -2.77213 0)
(6.84754 -2.80427 0)
(6.38637 -3.08796 0)
(5.986 -3.01985 0)
(5.62072 -3.14121 0)
(5.268 -2.96464 0)
(5.08198 -3.08218 0)
(4.83259 -3.16209 0)
(4.64422 -3.35952 0)
(4.39495 -3.47779 0)
(4.19469 -3.63384 0)
(10.2187 -3.56405 0)
(9.942 -2.17242 0)
(9.42474 -2.06145 0)
(8.80843 -2.39718 0)
(8.28161 -2.36512 0)
(7.87411 -2.60952 0)
(7.49042 -2.54427 0)
(7.08758 -2.87508 0)
(6.64001 -3.03383 0)
(6.20353 -3.2336 0)
(5.82864 -3.31459 0)
(5.47101 -3.45183 0)
(5.19253 -3.45085 0)
(5.0124 -3.55541 0)
(4.82634 -3.64706 0)
(4.6439 -3.73313 0)
(4.36106 -3.84181 0)
(4.13465 -3.92239 0)
(9.9101 -4.26778 0)
(9.43651 -2.28695 0)
(9.00502 -2.23422 0)
(8.47503 -2.44988 0)
(8.01037 -2.62621 0)
(7.61607 -2.83083 0)
(7.25096 -2.95384 0)
(6.92028 -3.19047 0)
(6.55257 -3.38305 0)
(6.1505 -3.53364 0)
(5.77332 -3.68759 0)
(5.41516 -3.82651 0)
(5.07595 -3.88388 0)
(4.815 -4.00328 0)
(4.57122 -4.10037 0)
(4.34599 -4.18504 0)
(4.117 -4.28819 0)
(3.96117 -4.33475 0)
(9.62323 -4.47719 0)
(9.14987 -2.4735 0)
(8.75043 -2.47739 0)
(8.29749 -2.67751 0)
(7.83928 -2.88389 0)
(7.40506 -3.0755 0)
(6.99192 -3.22716 0)
(6.60407 -3.42183 0)
(6.18401 -3.5837 0)
(5.79817 -3.71694 0)
(5.44903 -3.8562 0)
(5.11972 -3.9781 0)
(4.79679 -4.07307 0)
(4.52232 -4.21129 0)
(4.25502 -4.34341 0)
(4.02866 -4.46815 0)
(3.80625 -4.59884 0)
(3.61024 -4.67397 0)
(9.97285 -4.60978 0)
(9.23729 -2.5865 0)
(8.73599 -2.62167 0)
(8.24025 -2.82214 0)
(7.71781 -3.01106 0)
(7.22176 -3.17634 0)
(6.76615 -3.31373 0)
(6.34962 -3.48872 0)
(5.92334 -3.6573 0)
(5.56107 -3.82323 0)
(5.21792 -4.00371 0)
(4.93285 -4.14091 0)
(4.6672 -4.26085 0)
(4.41729 -4.37626 0)
(4.19389 -4.47625 0)
(4.00863 -4.59608 0)
(3.80549 -4.71328 0)
(3.64264 -4.80385 0)
(9.91334 -4.34281 0)
(9.16016 -2.43081 0)
(8.58313 -2.51571 0)
(8.02103 -2.67557 0)
(7.43446 -2.8354 0)
(6.90002 -3.03148 0)
(6.42381 -3.21161 0)
(5.99584 -3.4076 0)
(5.6077 -3.58942 0)
(5.26639 -3.7701 0)
(4.93375 -3.96089 0)
(4.66126 -4.11785 0)
(4.39869 -4.28128 0)
(4.1512 -4.40924 0)
(3.9126 -4.51782 0)
(3.7305 -4.63495 0)
(3.54637 -4.72271 0)
(3.39462 -4.80303 0)
(9.86457 -4.00749 0)
(9.00187 -2.28378 0)
(8.46664 -2.39606 0)
(7.94217 -2.56649 0)
(7.41577 -2.71924 0)
(6.9403 -2.88555 0)
(6.49426 -3.05449 0)
(6.08252 -3.256 0)
(5.71634 -3.433 0)
(5.34439 -3.60258 0)
(4.9888 -3.76576 0)
(4.67361 -3.89917 0)
(4.35144 -4.02869 0)
(4.08578 -4.14254 0)
(3.82856 -4.23408 0)
(3.60016 -4.3305 0)
(3.41181 -4.42085 0)
(3.25343 -4.50155 0)
(9.59152 -3.67752 0)
(8.82908 -2.05437 0)
(8.27196 -2.16624 0)
(7.70672 -2.33178 0)
(7.17795 -2.49127 0)
(6.71505 -2.65963 0)
(6.28067 -2.83642 0)
(5.89485 -3.01803 0)
(5.5314 -3.16225 0)
(5.16849 -3.27925 0)
(4.84315 -3.41329 0)
(4.52617 -3.5203 0)
(4.21285 -3.63835 0)
(3.96138 -3.77416 0)
(3.69569 -3.88479 0)
(3.48057 -4.00138 0)
(3.28406 -4.11022 0)
(3.11876 -4.17014 0)
(9.86725 -3.2294 0)
(8.90171 -1.86294 0)
(8.36411 -1.98473 0)
(7.83948 -2.17863 0)
(7.332 -2.33582 0)
(6.86302 -2.49551 0)
(6.40124 -2.64332 0)
(5.9547 -2.79101 0)
(5.51653 -2.91236 0)
(5.11894 -2.99274 0)
(4.77723 -3.09053 0)
(4.46638 -3.15412 0)
(4.20249 -3.21913 0)
(3.96473 -3.31867 0)
(3.74614 -3.3908 0)
(3.56306 -3.50837 0)
(3.36483 -3.60441 0)
(3.1935 -3.68286 0)
(9.67309 -2.70128 0)
(8.77128 -1.67417 0)
(8.25389 -1.78845 0)
(7.78995 -1.94448 0)
(7.30606 -2.06664 0)
(6.79018 -2.17745 0)
(6.29933 -2.27668 0)
(5.80369 -2.36849 0)
(5.32673 -2.46171 0)
(4.93431 -2.54403 0)
(4.59119 -2.65204 0)
(4.32761 -2.7567 0)
(4.11087 -2.83255 0)
(3.91667 -2.9293 0)
(3.76998 -2.99745 0)
(3.62818 -3.07406 0)
(3.49531 -3.17016 0)
(3.35531 -3.21964 0)
(9.53844 -2.24394 0)
(8.61041 -1.4359 0)
(8.13014 -1.62834 0)
(7.74141 -1.79549 0)
(7.30151 -1.8656 0)
(6.8067 -1.91023 0)
(6.33119 -1.9923 0)
(5.80177 -2.05792 0)
(5.33094 -2.14226 0)
(4.96558 -2.24422 0)
(4.61802 -2.33149 0)
(4.38408 -2.43651 0)
(4.15557 -2.50458 0)
(3.94375 -2.56282 0)
(3.78038 -2.6214 0)
(3.58255 -2.64634 0)
(3.42932 -2.71147 0)
(3.29973 -2.72539 0)
(9.6042 -1.89626 0)
(8.86979 -1.32464 0)
(8.50072 -1.50278 0)
(8.03899 -1.62902 0)
(7.48268 -1.63759 0)
(6.96803 -1.63585 0)
(6.49397 -1.6375 0)
(6.02356 -1.64682 0)
(5.63324 -1.73172 0)
(5.27133 -1.83345 0)
(4.91653 -1.93629 0)
(4.62996 -2.03877 0)
(4.3414 -2.10276 0)
(4.0824 -2.14502 0)
(3.86546 -2.17361 0)
(3.66226 -2.1989 0)
(3.4927 -2.20916 0)
(3.37797 -2.21917 0)
(9.78588 -1.52429 0)
(8.91418 -1.28189 0)
(8.57231 -1.38474 0)
(8.10521 -1.3909 0)
(7.55694 -1.37822 0)
(7.03566 -1.39936 0)
(6.55626 -1.41869 0)
(6.15482 -1.44229 0)
(5.79816 -1.50213 0)
(5.44701 -1.55483 0)
(5.09373 -1.60519 0)
(4.76078 -1.66638 0)
(4.43107 -1.70331 0)
(4.13632 -1.72815 0)
(3.87369 -1.7586 0)
(3.67117 -1.74995 0)
(3.50251 -1.7721 0)
(3.37293 -1.76816 0)
(9.45904 -1.25665 0)
(8.91046 -1.15355 0)
(8.72178 -1.23114 0)
(8.28199 -1.19993 0)
(7.7212 -1.17289 0)
(7.12431 -1.17366 0)
(6.56419 -1.1674 0)
(6.05925 -1.16463 0)
(5.59081 -1.18785 0)
(5.13796 -1.20366 0)
(4.70319 -1.22919 0)
(4.28775 -1.26004 0)
(3.90355 -1.28586 0)
(3.55876 -1.30226 0)
(3.27056 -1.31288 0)
(3.03104 -1.3217 0)
(2.82657 -1.34807 0)
(2.6673 -1.35543 0)
(9.41925 -1.17714 0)
(8.91398 -1.23748 0)
(8.58888 -1.12725 0)
(7.9516 -0.99634 0)
(7.16314 -0.91932 0)
(6.33299 -0.885841 0)
(5.52916 -0.862319 0)
(4.78712 -0.851145 0)
(4.10086 -0.85008 0)
(3.47329 -0.841712 0)
(2.90043 -0.840997 0)
(2.37561 -0.850191 0)
(1.91526 -0.85953 0)
(1.49462 -0.870028 0)
(1.13429 -0.888107 0)
(0.808457 -0.900953 0)
(0.539366 -0.915872 0)
(0.283595 -0.926897 0)
(9.79223 -1.07488 0)
(8.51363 -1.18473 0)
(7.16613 -0.975472 0)
(5.68702 -0.773377 0)
(4.3079 -0.600155 0)
(3.08288 -0.491421 0)
(2.01088 -0.430987 0)
(1.08607 -0.404748 0)
(0.283537 -0.396018 0)
(-0.400943 -0.395123 0)
(-0.995816 -0.402115 0)
(-1.509 -0.412651 0)
(-1.95635 -0.426534 0)
(-2.35229 -0.437453 0)
(-2.69497 -0.45209 0)
(-3.00117 -0.462158 0)
(-3.24954 -0.490255 0)
(-3.47373 -0.50494 0)
(8.05291 -0.585077 0)
(4.63652 -0.446517 0)
(2.19047 -0.191519 0)
(0.480021 -0.0802364 0)
(-0.681861 -0.0367599 0)
(-1.52946 -0.0431689 0)
(-2.20311 -0.0597624 0)
(-2.76732 -0.0742191 0)
(-3.26537 -0.0861645 0)
(-3.71266 -0.0943738 0)
(-4.1122 -0.101374 0)
(-4.46731 -0.107679 0)
(-4.78793 -0.113842 0)
(-5.07649 -0.119424 0)
(-5.33688 -0.126546 0)
(-5.57666 -0.137175 0)
(-5.79246 -0.159568 0)
(-6.0287 -0.165424 0)
(-0.148048 0.440545 0)
(-0.574654 0.304175 0)
(-0.78539 0.0684238 0)
(-0.742258 -0.174886 0)
(-0.491341 -0.344612 0)
(-0.106595 -0.454968 0)
(0.364814 -0.525299 1.10308e-17)
(0.865794 -0.526789 -1.09432e-17)
(1.37018 -0.525393 0)
(1.87648 -0.492341 -1.07701e-17)
(2.37378 -0.436102 0)
(2.8187 -0.422267 0)
(3.2787 -0.407576 0)
(3.73463 -0.335298 1.04628e-17)
(4.08691 -0.246161 0)
(4.41887 -0.175437 0)
(4.69399 -0.120921 -1.02515e-17)
(4.83551 0.0280237 0)
(4.96072 0.118819 0)
(4.93749 0.178204 0)
(4.79203 0.366789 9.99353e-18)
(4.61566 0.436949 0)
(4.22038 0.555792 9.85379e-18)
(3.78712 0.730073 0)
(3.28935 0.745145 0)
(2.50178 0.808452 9.68399e-18)
(1.75783 0.761692 0)
(1.23248 0.390133 -9.61733e-18)
(0.844267 0.0192612 0)
(0.556578 -0.122022 9.5138e-18)
(0.432264 -0.124238 0)
(0.510053 -0.0811754 0)
(0.726155 -0.0614712 0)
(1.01934 -0.0589953 0)
(1.25722 0.00147897 0)
(1.35061 0.147241 -9.07212e-18)
(1.49719 0.149583 0)
(1.92307 0.0764371 1.78379e-17)
(2.54361 -0.169201 0)
(3.08153 -0.647231 -1.793e-17)
(3.47917 -1.12353 0)
(3.82581 -1.25592 0)
(4.0859 -0.911351 1.78844e-17)
(4.09234 -0.319897 0)
(3.84596 0.147688 1.77589e-17)
(3.53289 0.34092 -1.76443e-17)
(3.27127 0.339719 0)
(3.07167 0.262709 -1.73935e-17)
(2.94179 0.179265 -1.72708e-17)
(2.85902 0.106769 0)
(2.8276 0.0513147 0)
(2.83956 0.0121358 0)
(2.8642 -0.0225478 0)
(2.89503 -0.0482425 0)
(2.97191 -0.0597045 1.65644e-17)
(3.07436 -0.0611447 0)
(3.15886 -0.0911164 -1.63312e-17)
(3.24044 -0.102539 0)
(3.31332 -0.110876 0)
(3.36084 -0.124294 1.59789e-17)
(3.39946 -0.13126 0)
(3.38227 -0.145662 -1.57501e-17)
(3.34163 -0.134501 0)
(3.26913 -0.151092 0)
(3.18171 -0.131853 0)
(3.08773 -0.104899 1.53012e-17)
(3.00044 -0.0837567 0)
(2.92179 -0.0951721 0)
(2.84113 -0.114387 1.49251e-17)
(2.77362 -0.137977 0)
(2.74807 -0.149872 1.46927e-17)
(2.74363 -0.163585 0)
(2.78006 -0.189041 0)
(2.86887 -0.231115 0)
(3.01267 -0.271242 -1.42457e-17)
(3.19122 -0.306185 0)
(3.38344 -0.331192 0)
(3.59773 -0.353188 -1.39396e-17)
(3.83138 -0.385198 -1.38372e-17)
(4.08769 -0.395167 0)
(4.38105 -0.41659 -1.36362e-17)
(4.76168 -0.459673 0)
(5.20423 -0.533101 -2.68909e-17)
(5.7198 -0.584961 0)
(6.32236 -0.644355 -2.64902e-17)
(7.03914 -0.725511 0)
(7.92625 -0.796754 2.60845e-17)
(8.82129 -0.78609 0)
(9.60883 -0.745995 0)
(10.1746 -0.659634 0)
(10.5664 -0.716009 -2.51747e-17)
(10.9746 -0.715164 0)
(11.2998 -0.724589 2.47784e-17)
(11.5633 -0.687913 0)
(11.8432 -0.722241 -2.42377e-17)
(12.1804 -0.781348 -2.39902e-17)
(12.5169 -0.823318 -2.37786e-17)
(12.8962 -0.852885 0)
(13.3502 -0.817987 0)
(13.4842 -0.754461 0)
(13.2439 -0.68056 0)
(12.944 -0.682767 0)
(12.3813 -0.680281 0)
(11.5742 -0.509986 0)
(11.099 -0.61139 0)
(10.6266 -0.714957 2.23503e-17)
(9.50129 -0.70834 2.17911e-17)
(8.8541 -0.997977 0)
(9.1051 -1.40604 0)
(9.64298 -1.54101 0)
(9.98644 -1.47444 2.14801e-17)
(10.0491 -1.30012 0)
(9.92037 -1.24762 0)
(9.30457 -1.12885 0)
(8.15796 -0.734214 0)
(6.75455 -0.629751 -2.14563e-17)
(5.09162 -0.678851 0)
(3.44 -0.865551 0)
(1.7269 -0.881054 2.09178e-17)
(0.104741 -0.647384 -2.08224e-17)
(-1.34581 -0.70327 0)
(-2.24894 -0.854447 -2.02962e-17)
(-2.10798 -1.16729 0)
(-1.33934 -1.4594 2.00219e-17)
(-0.524048 -1.57684 0)
(-0.091642 -1.41743 0)
(-0.462239 -1.2293 0)
(-0.56509 -1.43791 0)
(1.14914 -2.24927 0)
(5.07958 -2.47742 -3.89023e-17)
(7.04775 -2.13646 -3.8538e-17)
(9.57531 -2.71875 0)
(12.7435 -1.89678 0)
(13.1554 -1.18656 0)
(11.8624 -1.29599 3.78516e-17)
(10.3708 -1.66752 0)
(9.73727 -2.17615 0)
(9.36886 -2.34138 0)
(11.1309 -3.0255 3.64939e-17)
(14.0779 -2.84996 -3.6457e-17)
(15.5911 -2.48495 0)
(15.8124 -2.33846 0)
(15.3839 -2.36714 -3.6137e-17)
(14.6473 -2.48978 -3.58949e-17)
(14.0563 -2.64964 0)
(14.1744 -2.80071 0)
(14.3156 -2.87787 3.51405e-17)
(13.7649 -2.85437 -3.48113e-17)
(13.6903 -2.91902 0)
(13.6222 -2.9497 0)
(13.617 -3.1449 -3.41213e-17)
(14.1998 -3.34195 0)
(14.4792 -3.25683 0)
(14.9091 -3.33946 -3.34443e-17)
(15.2432 -3.4853 0)
(15.403 -3.17773 -3.25092e-17)
(14.4622 -3.03612 0)
(14.1932 -3.22555 0)
(13.0849 -3.13681 0)
(12.7651 -3.53288 3.10023e-17)
(11.5856 -3.03173 0)
(11.0896 -3.76704 0)
(11.9411 -3.74983 0)
(5.54666 -2.2705 0)
(0.333171 -2.4519 0)
(0.644461 -3.21592 0)
(2.74346 -3.33621 3.10524e-17)
(3.46532 -3.59007 3.09774e-17)
(1.78985 -3.27401 0)
(-2.2894 -2.7715 0)
(-6.90358 -2.7221 0)
(-10.115 -2.9924 -2.99099e-17)
(-12.0179 -3.20984 0)
(-13.6853 -3.17811 6.02687e-17)
(-15.0807 -3.14092 -6.03052e-17)
(-16.2124 -3.06976 -6.02308e-17)
(-17.4596 -2.8895 6.00761e-17)
(-19.1843 -2.61057 -5.98864e-17)
(-21.567 -2.31867 5.9624e-17)
(-23.6402 -2.42344 0)
(0.0204963 0.906379 0)
(-0.194728 0.872443 0)
(-0.197573 0.176657 -2.29475e-17)
(-0.0262535 -0.570441 0)
(0.310288 -1.10552 2.24781e-17)
(0.694259 -1.41956 2.2238e-17)
(1.10668 -1.62214 1.10083e-17)
(1.52053 -1.63881 1.09089e-17)
(1.9626 -1.62415 0)
(2.34596 -1.64154 1.07391e-17)
(2.81219 -1.51345 0)
(3.30291 -1.4149 0)
(3.69946 -1.52043 -2.10348e-17)
(4.16494 -1.25617 -1.04623e-17)
(4.63075 -1.05052 2.08595e-17)
(4.9824 -1.08446 2.06356e-17)
(5.29738 -0.63448 1.02952e-17)
(5.56806 -0.45853 0)
(5.74825 -0.360793 0)
(5.83444 0.186986 0)
(5.80497 0.289909 9.99452e-18)
(5.73995 0.540752 0)
(5.54809 1.10039 -2.96982e-17)
(5.29816 1.00833 0)
(4.94562 1.32263 0)
(4.6835 2.07435 -9.65967e-18)
(4.61192 1.66609 0)
(4.05116 1.08863 9.41863e-18)
(3.34992 1.31952 1.87012e-17)
(3.14107 1.24499 -9.36257e-18)
(3.04321 0.372623 0)
(2.60655 -0.329142 0)
(2.28339 -0.568325 0)
(2.39726 -0.695313 1.72633e-17)
(3.04281 -0.319713 1.73355e-17)
(3.94256 0.00764145 8.93435e-18)
(4.4916 -0.780802 0)
(4.72277 -1.72436 -1.70392e-17)
(4.64224 -1.48159 0)
(3.91808 -0.439636 1.75351e-17)
(2.80095 0.412058 0)
(1.80856 0.793355 0)
(1.0531 0.916973 -1.79096e-17)
(0.52929 0.948021 0)
(0.213411 0.892488 -5.30229e-17)
(0.0296358 0.766026 1.75451e-17)
(-0.0716542 0.620874 0)
(-0.142644 0.47688 1.72788e-17)
(-0.195275 0.341949 1.71447e-17)
(-0.243869 0.229077 0)
(-0.251265 0.149667 0)
(-0.240472 0.0509855 0)
(-0.197969 -0.0193713 0)
(-0.138188 -0.0797257 0)
(-0.0579191 -0.124617 -1.63308e-17)
(-0.0146916 -0.178431 -3.2383e-17)
(0.0554628 -0.217022 1.60519e-17)
(0.16287 -0.236543 0)
(0.19968 -0.232858 -3.15561e-17)
(0.166643 -0.214295 1.56522e-17)
(0.0765144 -0.184972 0)
(-0.0462738 -0.159483 1.54113e-17)
(-0.209478 -0.133951 0)
(-0.357194 -0.133892 0)
(-0.373075 -0.15462 3.00148e-17)
(-0.384938 -0.256997 -1.4861e-17)
(-0.371818 -0.367978 2.94487e-17)
(-0.345472 -0.423026 -2.91899e-17)
(-0.342169 -0.487204 -1.44779e-17)
(-0.294977 -0.555278 0)
(-0.143547 -0.658266 -1.42976e-17)
(0.0213913 -0.818161 0)
(0.256574 -0.980533 0)
(0.560587 -1.14072 0)
(0.876967 -1.22513 -1.40076e-17)
(1.19553 -1.29452 0)
(1.50815 -1.35476 -2.76961e-17)
(1.82795 -1.42481 4.13096e-17)
(2.22664 -1.51957 1.36907e-17)
(2.66639 -1.61621 0)
(3.1479 -1.73327 1.35844e-17)
(3.69506 -1.89876 0)
(4.30144 -2.07192 2.70623e-17)
(4.94998 -2.21999 0)
(5.65534 -2.36734 2.67556e-17)
(6.46148 -2.6225 -5.33651e-17)
(7.35919 -2.82548 -2.63947e-17)
(8.35724 -2.72262 0)
(9.22416 -2.50901 0)
(9.86355 -2.11502 0)
(10.2694 -2.17989 2.4186e-17)
(10.7525 -2.20519 0)
(11.1292 -2.19425 -2.35394e-17)
(11.42 -2.18554 0)
(11.7879 -2.36498 6.87964e-17)
(12.3114 -2.58629 2.27063e-17)
(12.8322 -2.72434 2.25656e-17)
(13.3688 -2.88056 0)
(13.9721 -2.81918 0)
(14.2526 -2.44354 0)
(14.1151 -2.20621 0)
(13.9976 -2.13196 0)
(13.4996 -1.87574 4.37199e-17)
(12.4595 -1.98461 4.28246e-17)
(12.2636 -2.56605 0)
(12.2458 -2.44852 -2.10836e-17)
(10.8357 -2.10523 -2.1006e-17)
(9.92514 -3.00109 0)
(9.6383 -3.95064 -3.76095e-17)
(9.6094 -4.03795 0)
(9.64584 -3.83247 2.08959e-17)
(9.28567 -3.68982 0)
(8.59658 -3.09105 0)
(7.55662 -2.49252 -4.34461e-17)
(5.97825 -2.23635 0)
(4.35936 -1.91563 2.07882e-17)
(2.29798 -1.78889 0)
(-0.18981 -1.62124 0)
(-2.55089 -1.78577 2.05507e-17)
(-4.48778 -2.19332 1.98788e-17)
(-5.21608 -2.73038 0)
(-5.04618 -3.91017 -2.02971e-17)
(-4.46128 -4.84796 0)
(-3.43632 -5.24945 2.009e-17)
(-2.80068 -4.97927 3.92312e-17)
(-2.46671 -4.31029 0)
(-2.28032 -4.21081 0)
(-1.50544 -5.57941 0)
(0.950297 -8.2529 0)
(4.49113 -8.67983 3.93118e-17)
(7.13099 -6.99307 1.16713e-16)
(9.85683 -9.17674 0)
(13.0363 -7.47353 0)
(14.3196 -5.43425 0)
(14.2217 -4.58035 -3.66405e-17)
(13.1819 -4.76024 0)
(12.4132 -5.77501 0)
(11.0762 -6.34662 6.96058e-17)
(12.3052 -9.61551 3.5858e-17)
(17.1101 -9.36744 3.56006e-17)
(19.6198 -7.87466 0)
(20.0267 -7.33457 0)
(19.8497 -7.23861 3.41861e-17)
(19.2409 -7.17353 -3.41052e-17)
(18.0272 -7.79071 0)
(18.0403 -8.47906 0)
(18.8222 -8.33745 -3.30063e-17)
(17.7258 -8.14648 9.7305e-17)
(17.0369 -8.64585 0)
(16.7139 -8.74522 0)
(16.4535 -9.13738 3.11008e-17)
(17.4368 -9.69458 0)
(17.582 -9.35528 6.17065e-17)
(17.5889 -9.45038 -3.06387e-17)
(17.3347 -9.58095 0)
(16.4547 -9.09505 2.94038e-17)
(14.4464 -8.82822 5.73614e-17)
(14.4968 -9.23713 0)
(12.5102 -9.02903 0)
(11.9607 -9.72963 -2.72818e-17)
(10.5006 -9.00407 0)
(9.06434 -10.7816 6.13457e-17)
(7.60454 -7.86841 0)
(-0.47534 -5.58883 0)
(-4.0013 -9.82161 0)
(-4.15656 -12.5533 0)
(1.24615 -12.9207 -3.05027e-17)
(4.86412 -10.9062 -2.88966e-17)
(3.35538 -9.10203 0)
(-1.52865 -7.78495 0)
(-6.02059 -8.07692 0)
(-8.63344 -9.06535 2.64839e-17)
(-10.0798 -9.48707 0)
(-11.8428 -9.24747 -5.5584e-17)
(-13.9197 -9.00771 5.67297e-17)
(-16.0731 -8.60624 5.74765e-17)
(-18.6605 -7.95661 5.80905e-17)
(-21.8731 -7.10484 5.80517e-17)
(-25.5124 -6.42447 5.80337e-17)
(-28.3065 -6.78061 0)
(0.0282886 0.791505 0)
(0.0474565 0.750721 0)
(0.30319 -0.301347 2.31991e-17)
(0.62054 -1.28094 2.28827e-17)
(0.929324 -1.92839 -2.2565e-17)
(1.20092 -2.24495 -2.23063e-17)
(1.45041 -2.37328 -8.24667e-21)
(1.6487 -2.35101 0)
(1.94113 -2.26061 0)
(2.2351 -2.26952 0)
(2.60963 -2.38548 0)
(3.13645 -2.23318 0)
(3.58866 -2.16125 6.4373e-17)
(4.06195 -2.21761 0)
(4.62612 -1.82072 -2.11639e-17)
(4.92151 -1.4983 -2.10113e-17)
(5.29143 -1.26881 0)
(5.65396 -0.758631 0)
(5.68337 -0.422764 0)
(5.82976 0.0449785 0)
(5.86963 0.628585 -2.0485e-17)
(5.57694 0.846885 0)
(5.54465 1.26899 2.01278e-17)
(5.44817 1.82931 0)
(4.98199 1.74778 0)
(4.68319 1.54796 0)
(4.55215 2.2505 3.87177e-17)
(4.13478 2.94337 0)
(3.86271 1.85031 -1.86258e-17)
(3.7257 0.393917 3.66825e-17)
(3.21554 0.638606 0)
(2.83065 1.58279 0)
(3.18935 1.13946 0)
(3.56397 -1.07438 -1.74408e-17)
(3.62605 -2.74764 -1.72183e-17)
(3.49694 -2.19311 0)
(2.54891 -0.357357 0)
(1.18404 0.961391 3.60841e-17)
(0.0291488 1.55423 3.62799e-17)
(-0.865906 1.78348 -3.63524e-17)
(-1.43663 1.80869 0)
(-1.74517 1.66861 0)
(-1.89347 1.46561 0)
(-2.00282 1.29411 0)
(-2.03759 1.12852 3.53766e-17)
(-2.01233 0.96306 3.51063e-17)
(-1.95084 0.804497 -3.48275e-17)
(-1.90129 0.640203 0)
(-1.85997 0.470029 0)
(-1.81681 0.338844 0)
(-1.80091 0.190696 0)
(-1.75874 0.0465632 3.34113e-17)
(-1.66161 -0.0806857 0)
(-1.58629 -0.187003 0)
(-1.51134 -0.275439 3.25644e-17)
(-1.41869 -0.347892 3.22506e-17)
(-1.31884 -0.348515 0)
(-1.2281 -0.333711 -6.31718e-17)
(-1.15636 -0.280034 3.12753e-17)
(-1.13041 -0.213468 -3.10205e-17)
(-1.1727 -0.16344 0)
(-1.27674 -0.159806 0)
(-1.37868 -0.226024 0)
(-1.45944 -0.349824 0)
(-1.41821 -0.534171 -3.01638e-17)
(-1.28867 -0.711955 -5.98378e-17)
(-1.08205 -0.790477 -2.96326e-17)
(-0.881535 -0.871919 2.94035e-17)
(-0.719778 -1.00717 0)
(-0.485592 -1.18703 -5.83297e-17)
(-0.214991 -1.41069 -5.82072e-17)
(0.103416 -1.64705 -5.81122e-17)
(0.444157 -1.8921 5.80092e-17)
(0.807237 -2.09825 0)
(1.14827 -2.19556 8.63111e-17)
(1.52142 -2.27277 0)
(1.88486 -2.36071 -2.86213e-17)
(2.21364 -2.48689 -2.85234e-17)
(2.67194 -2.67492 0)
(3.17792 -2.87163 0)
(3.78512 -3.07152 -5.67174e-17)
(4.35854 -3.27561 0)
(4.94432 -3.50808 -5.67424e-17)
(5.44865 -3.70935 0)
(6.03175 -3.92923 5.63425e-17)
(6.59914 -4.30805 1.12285e-16)
(7.21502 -4.71881 0)
(7.99875 -4.6493 0)
(8.76521 -4.37101 0)
(9.63159 -3.67337 5.11459e-17)
(10.1437 -3.71432 0)
(10.8692 -3.80311 4.90381e-17)
(11.4393 -3.74604 0)
(11.8992 -3.73754 0)
(12.4163 -4.11934 -9.26047e-17)
(13.1485 -4.51984 0)
(13.9033 -4.66473 -4.64568e-17)
(14.6659 -4.9076 0)
(15.4011 -4.78288 -4.63491e-17)
(15.7501 -4.12239 0)
(15.8168 -3.79387 0)
(15.8429 -3.682 0)
(15.1796 -3.16259 -1.30026e-16)
(14.2687 -3.44034 -4.31529e-17)
(14.0761 -4.36941 0)
(13.3655 -3.68702 0)
(11.8373 -3.18368 0)
(11.1466 -4.62737 0)
(10.0109 -5.53704 3.99756e-17)
(8.95832 -5.91858 -8.45151e-17)
(8.36611 -5.82569 -4.3107e-17)
(7.27978 -5.23585 8.6319e-17)
(6.11474 -4.77481 8.57193e-17)
(4.80986 -3.99412 4.15095e-17)
(3.20543 -3.25234 0)
(1.62442 -2.76879 8.19058e-17)
(-0.450388 -2.32288 0)
(-2.78051 -2.48452 -8.10314e-17)
(-4.77142 -2.95691 -4.03365e-17)
(-5.90898 -3.9666 0)
(-5.72185 -5.67014 8.23043e-17)
(-5.08787 -6.96174 4.17852e-17)
(-4.34742 -7.94785 0)
(-3.98507 -8.25357 4.03665e-17)
(-3.31968 -8.01238 -1.20683e-16)
(-2.3672 -7.72789 0)
(-1.56449 -7.94295 0)
(-0.046838 -10.0259 0)
(1.91613 -13.0878 0)
(2.7676 -13.9648 -7.81442e-17)
(6.42565 -12.3257 -7.76162e-17)
(8.9609 -14.6171 0)
(11.7856 -12.2015 0)
(12.886 -9.44142 0)
(12.8554 -8.24281 0)
(12.4326 -8.39118 0)
(11.4664 -9.35474 0)
(10.2733 -9.51445 -6.81082e-17)
(10.4462 -16.7742 2.34998e-19)
(16.3167 -17.149 0)
(20.534 -13.527 0)
(21.0051 -12.066 -6.9251e-17)
(20.9517 -12.1301 0)
(21.0064 -11.7494 6.69318e-17)
(19.2356 -12.505 6.65319e-17)
(18.3847 -14.2755 0)
(20.1281 -13.9567 0)
(19.1502 -12.9394 -6.28764e-17)
(17.5941 -13.83 -1.25116e-16)
(17.0051 -14.116 0)
(15.9847 -15.0777 0)
(17.4082 -16.2758 0)
(18.2786 -15.2414 -5.95541e-17)
(18.5384 -15.4656 5.85282e-17)
(18.6628 -15.5416 0)
(18.131 -14.3514 1.12939e-16)
(15.4296 -14.3474 5.62895e-17)
(15.674 -15.4168 -1.12604e-16)
(13.1184 -14.2092 0)
(13.0133 -16.5402 0)
(10.8688 -14.0059 -1.10263e-16)
(7.71414 -15.9124 -6.25757e-17)
(3.67508 -13.3849 0)
(-1.15217 -11.0049 0)
(-1.31529 -15.8988 0)
(-3.02914 -21.1084 0)
(-3.86465 -24.8369 -1.24934e-16)
(4.56741 -19.948 0)
(5.1305 -15.0627 0)
(0.508048 -12.8343 0)
(-3.92476 -13.4084 0)
(-6.44528 -15.2099 0)
(-8.05789 -15.624 0)
(-10.0681 -14.9395 -1.08289e-16)
(-13.1321 -14.2881 0)
(-16.7167 -13.4815 0)
(-20.553 -12.352 -2.30035e-16)
(-24.2907 -11.0284 1.15761e-16)
(-27.6886 -10.2776 -1.14909e-16)
(-29.9668 -10.8951 1.1286e-16)
(-0.00952415 0.570527 0)
(0.181721 0.146945 -4.70467e-17)
(0.52327 -1.11917 0)
(0.780982 -2.02356 -2.27574e-17)
(0.921128 -2.46262 0)
(0.988757 -2.61312 0)
(1.05888 -2.63182 2.21842e-17)
(1.22467 -2.68697 0)
(1.51419 -2.88773 0)
(1.91723 -3.08591 0)
(2.40673 -3.30503 0)
(2.90537 -3.48398 0)
(3.52574 -3.43748 -8.601e-17)
(3.96552 -3.21382 -4.25774e-17)
(4.38431 -2.8549 4.22829e-17)
(4.78362 -2.40846 0)
(5.082 -1.93226 0)
(5.37677 -1.24437 0)
(5.3969 -0.625073 0)
(5.47828 -0.0905398 0)
(5.55764 0.682107 -4.07046e-17)
(5.14884 1.24187 -4.03636e-17)
(4.8704 1.52453 3.96261e-17)
(4.77783 2.28562 -4.03582e-17)
(4.35415 3.11684 0)
(3.94587 2.91854 0)
(3.8719 2.26105 -3.77853e-17)
(3.7959 2.10198 0)
(3.42815 2.49503 0)
(2.81702 2.79915 -3.80469e-17)
(2.63798 1.82604 -3.6526e-17)
(3.21272 -0.442036 -3.48082e-17)
(3.79619 -1.46893 0)
(2.91135 -0.415694 0)
(1.01255 0.858339 3.64848e-17)
(-0.527536 1.6613 0)
(-1.66797 2.21782 0)
(-2.39269 2.41087 -3.70377e-17)
(-2.81961 2.39736 3.69252e-17)
(-3.09621 2.31153 -3.67934e-17)
(-3.24891 2.14021 0)
(-3.27843 1.91187 0)
(-3.21162 1.63425 -7.23949e-17)
(-3.12241 1.35762 0)
(-2.98863 1.12321 -7.14597e-17)
(-2.80785 0.896604 -1.06435e-16)
(-2.6212 0.714189 1.05621e-16)
(-2.46727 0.551874 -6.9839e-17)
(-2.28596 0.406373 0)
(-2.1389 0.274684 0)
(-2.02288 0.152801 -6.80912e-17)
(-1.84638 0.0291503 -3.37904e-17)
(-1.66312 -0.10239 0)
(-1.50396 -0.238169 0)
(-1.39935 -0.349846 -3.30724e-17)
(-1.31688 -0.449378 -6.55891e-17)
(-1.26594 -0.524084 0)
(-1.21412 -0.551328 6.42171e-17)
(-1.12825 -0.519098 -6.34263e-17)
(-1.00761 -0.440817 6.26641e-17)
(-0.867238 -0.361902 0)
(-0.76961 -0.305753 0)
(-0.76277 -0.312477 0)
(-0.794472 -0.540821 0)
(-0.839752 -0.916907 0)
(-0.857067 -1.31149 6.10739e-17)
(-0.783973 -1.53474 0)
(-0.593321 -1.62235 0)
(-0.324833 -1.71223 0)
(-0.0402699 -1.91926 1.19047e-16)
(0.286662 -2.22788 5.92556e-17)
(0.58281 -2.53933 5.89648e-17)
(0.862509 -2.80348 -1.17247e-16)
(1.23585 -3.04443 5.82032e-17)
(1.56509 -3.19647 -5.76837e-17)
(1.99318 -3.34546 0)
(2.42097 -3.43968 5.70258e-17)
(2.88321 -3.64966 0)
(3.41736 -3.95177 0)
(3.9123 -4.26827 0)
(4.53619 -4.53516 1.1236e-16)
(5.13076 -4.68335 -5.58168e-17)
(5.71935 -4.88379 -5.5566e-17)
(6.11465 -5.06575 -1.10731e-16)
(6.53679 -5.27795 -1.65693e-16)
(6.7475 -5.61084 -5.50058e-17)
(6.99049 -6.18159 0)
(7.27127 -6.36938 -1.08667e-16)
(7.87829 -6.30549 0)
(8.79864 -5.65744 -1.56433e-16)
(9.57667 -5.67316 0)
(10.4663 -5.75911 -1.52524e-16)
(11.2123 -5.64452 0)
(12.0095 -5.59391 0)
(12.7469 -6.07773 -4.87236e-17)
(13.4935 -6.72635 0)
(14.2256 -7.05787 4.84939e-17)
(15.0783 -7.27554 9.66376e-17)
(15.6811 -7.22311 4.80796e-17)
(16.4448 -6.4708 9.58902e-17)
(16.9253 -5.8486 -9.32116e-17)
(16.9926 -5.22048 -8.94903e-17)
(16.4519 -4.26978 1.78249e-16)
(16.2786 -4.73871 0)
(15.9757 -5.82827 0)
(14.1379 -4.91178 8.5003e-17)
(12.8614 -4.6843 -8.62215e-17)
(11.9087 -6.03516 0)
(10.2146 -6.70085 0)
(8.83867 -7.43539 8.50016e-17)
(7.33542 -7.5314 0)
(5.45207 -6.8008 3.01745e-19)
(3.55588 -5.97241 2.92092e-19)
(2.07382 -5.26162 8.11244e-17)
(0.457264 -4.65132 0)
(-1.41357 -3.97032 -7.9987e-17)
(-3.23183 -3.43831 0)
(-4.90627 -3.6562 8.0571e-17)
(-5.82352 -4.84331 0)
(-5.82024 -6.76322 0)
(-5.23663 -8.66152 -8.24129e-17)
(-4.64487 -10.3049 -8.10688e-17)
(-4.52894 -11.0396 0)
(-4.27452 -11.3958 -7.81124e-17)
(-2.52253 -11.8444 1.5758e-16)
(-0.617705 -11.7432 0)
(1.09985 -11.9329 0)
(2.50115 -13.9382 0)
(2.12758 -16.5693 0)
(2.55857 -18.5396 7.72948e-17)
(4.71307 -17.904 -1.52282e-16)
(6.99137 -19.9053 0)
(10.1946 -17.0095 0)
(11.1228 -13.7424 0)