/*--------------------------------*- C++ -*----------------------------------*\
| =========                 |                                                 |
| \\      /  F ield         | OpenFOAM: The Open Source CFD Toolbox           |
|  \\    /   O peration     | Version:  dev                                   |
|   \\  /    A nd           | Web:      http://www.openfoam.org               |
|    \\/     M anipulation  |                                                 |
\*---------------------------------------------------------------------------*/
FoamFile
{
    version     2.0;
    format      ascii;
    class       volVectorField;
    object      U_0;
    location    "9.139";
}
// * * * * * * * * * * * * * * * * * * * * * * * * * * * * * * * * * * * * * //

dimensions      [0 1 -1 0 0 0 0];

internalField   nonuniform List<vector> 
12225
(
(6.91564 0.3554 0)
(3.77396 0.216593 0)
(1.39677 0.0537792 0)
(0.747023 0.0190441 0)
(-0.650945 0.0447822 0)
(-0.127863 -0.0567785 0)
(-1.69297 0.079715 0)
(-0.830441 -0.115393 0)
(-2.0849 0.0487837 0)
(-1.26009 -0.132366 0)
(-2.29578 0.0243985 0)
(-0.636825 -0.292025 0)
(-1.47335 -0.0443701 0)
(1.545 -0.408115 0)
(2.71729 -0.54388 0)
(7.84833 -2.2644 0)
(28.4339 -3.39039 0)
(15.3555 6.09951 0)
(9.56133 0.94297 0)
(8.46557 1.03612 0)
(5.19481 0.608968 0)
(4.75432 0.366207 0)
(1.00055 0.243033 0)
(2.84412 0.0761107 0)
(-1.74995 0.301298 0)
(1.66037 -0.140441 0)
(-3.07869 0.306035 0)
(0.325649 -0.157745 0)
(-4.0699 0.131726 0)
(0.790225 -0.5967 0)
(-4.34889 -0.188099 0)
(2.24404 -1.83615 0)
(-1.65521 -2.19871 0)
(10.2434 -6.99213 0)
(7.95521 -1.31294 0)
(1.08233 9.99865 0)
(9.47364 0.816028 0)
(11.0691 1.22399 0)
(7.29094 0.92463 0)
(9.11954 0.815188 0)
(3.12461 0.543028 0)
(7.41826 0.444087 0)
(-0.431711 0.407264 0)
(6.68485 -0.0018513 0)
(-1.1523 0.446264 0)
(4.93898 -0.255244 0)
(-1.11593 0.241204 0)
(4.55582 -0.699576 0)
(-0.365297 0.0210012 0)
(2.49341 -1.66696 0)
(0.456274 -3.21729 0)
(4.09044 -5.58731 0)
(0.435262 -0.0204091 0)
(-1.67345 6.72139 0)
(7.95575 0.475757 0)
(13.1081 1.60927 0)
(6.27286 1.04281 0)
(12.0147 1.13528 0)
(3.48591 0.653467 0)
(10.9825 0.814594 0)
(1.11664 0.504264 0)
(9.75268 -0.120235 0)
(1.49418 0.912998 0)
(7.84138 -0.44839 0)
(0.887833 0.232915 0)
(7.51178 -1.51783 0)
(2.73691 0.444119 0)
(6.57261 -2.61155 0)
(3.4714 -2.76567 0)
(3.65047 -5.36521 0)
(5.05387 -1.82088 0)
(2.67388 13.2406 0)
(5.62677 0.577595 0)
(14.4378 1.43211 0)
(7.0379 1.24143 0)
(12.6267 1.38915 0)
(5.3336 1.13977 0)
(12.2823 0.847434 0)
(3.62138 0.852824 0)
(9.08804 -0.296328 0)
(4.35016 1.1801 0)
(7.81715 -0.334006 0)
(1.27382 0.762188 0)
(7.14153 -1.62296 0)
(1.87696 1.14252 0)
(6.61354 -2.52975 0)
(-0.255878 -1.93077 0)
(7.23682 -8.2307 0)
(1.07221 1.11975 0)
(4.40609 16.0976 0)
(7.80338 0.532649 0)
(12.3343 1.13879 0)
(7.94753 1.45422 0)
(9.96447 1.30583 0)
(9.54784 0.628763 0)
(9.964 1.21632 0)
(6.33698 1.69877 0)
(7.31624 -0.893937 0)
(7.04478 0.9663 0)
(4.79512 0.890303 0)
(3.43819 0.029494 0)
(3.58477 -1.77186 0)
(1.91669 0.413967 0)
(3.98 -1.47874 0)
(-2.75984 -2.94074 0)
(0.659424 -5.92827 0)
(-6.13167 1.40181 0)
(-3.69031 13.2247 0)
(9.82146 1.00055 0)
(8.53236 1.0455 0)
(9.62388 2.03056 0)
(7.65794 0.19676 0)
(9.00707 1.58778 0)
(5.17984 1.36443 0)
(9.08837 1.80634 0)
(4.46214 -0.535687 0)
(6.25001 2.47567 0)
(5.32768 0.703763 0)
(5.40423 1.3761 0)
(3.30799 -1.42677 0)
(1.97975 1.21183 0)
(1.10525 -1.36009 0)
(0.321539 0.207595 0)
(-1.91209 -4.67362 0)
(-8.29153 7.40987 0)
(-9.841 5.57125 0)
(10.7672 1.07295 0)
(6.50777 1.01197 0)
(10.9523 1.86116 0)
(6.5645 0.915677 0)
(8.34999 1.74451 0)
(5.68199 0.879976 0)
(7.7766 2.00799 0)
(5.04346 -0.130548 0)
(6.42576 1.03985 0)
(6.44234 0.714809 0)
(6.10133 1.41885 0)
(6.04693 -0.749297 0)
(3.24805 1.47544 0)
(2.1277 -0.876926 0)
(2.46673 -0.527656 0)
(0.820121 -2.27224 0)
(-5.96373 5.05643 0)
(-2.44243 3.14376 0)
(10.9319 1.39641 0)
(8.23842 1.04009 0)
(9.91483 2.21231 0)
(7.3688 0.627441 0)
(8.93147 2.02008 0)
(5.95992 0.947882 0)
(7.45452 2.37513 0)
(5.78595 -0.745668 0)
(7.17499 1.3119 0)
(5.58122 0.679857 0)
(6.78143 1.43699 0)
(5.08248 -0.416113 0)
(4.00237 2.78713 0)
(3.93593 -1.02431 0)
(2.58445 0.216979 0)
(0.790378 -1.65573 0)
(-1.26575 4.45874 0)
(0.926382 2.21794 0)
(10.5476 1.24372 0)
(8.43591 1.32591 0)
(10.1918 2.18372 0)
(7.36842 0.827724 0)
(9.0527 2.21433 0)
(6.32105 1.24218 0)
(8.58574 1.73905 0)
(5.84284 0.282507 0)
(5.84296 1.00139 0)
(5.25762 0.729204 0)
(6.37571 1.38268 0)
(4.42697 0.621797 0)
(4.79247 2.15702 0)
(3.86959 -0.0516021 0)
(2.26955 0.875904 0)
(0.738831 0.14696 0)
(0.442801 3.68229 0)
(2.05312 1.91775 0)
(10.0541 1.49639 0)
(9.08162 1.18456 0)
(9.2768 2.33853 0)
(8.10921 0.884078 0)
(7.94374 2.26927 0)
(7.45442 0.990041 0)
(7.39292 2.27191 0)
(5.98768 0.422939 0)
(5.24956 1.23497 0)
(4.83301 0.36022 0)
(4.8799 1.55051 0)
(3.92159 0.250122 0)
(4.12811 2.20731 0)
(3.69768 0.867609 0)
(2.25151 1.69035 0)
(1.20194 0.731525 0)
(0.8564 2.36791 0)
(1.74063 1.87306 0)
(9.46297 1.24545 0)
(9.99902 1.61793 0)
(8.97178 2.32972 0)
(8.42245 1.20575 0)
(7.67506 2.15324 0)
(7.18634 1.31211 0)
(6.71881 2.06455 0)
(6.15058 1.0624 0)
(5.34742 1.31262 0)
(4.70751 0.895829 0)
(4.17251 1.42263 0)
(3.61279 0.927362 0)
(3.22821 1.88546 0)
(3.17693 1.32783 0)
(2.58388 2.06825 0)
(2.10288 1.42056 0)
(1.86032 1.77245 0)
(2.12766 1.58624 0)
(9.8788 1.17645 0)
(9.74438 1.56632 0)
(9.01415 2.41088 0)
(8.30375 1.61928 0)
(7.51739 2.28723 0)
(6.9601 1.54987 0)
(6.39848 2.18896 0)
(5.9077 1.35424 0)
(5.2649 1.59405 0)
(4.73927 1.16101 0)
(4.23612 1.47834 0)
(3.71331 1.18803 0)
(3.23668 1.72707 0)
(3.05143 1.55735 0)
(2.79112 1.71647 0)
(2.63979 1.44467 0)
(2.45128 1.5173 0)
(2.46391 1.42483 0)
(9.84728 1.09758 0)
(9.28471 2.00184 0)
(8.52839 2.41966 0)
(7.92102 1.85263 0)
(7.40272 2.24876 0)
(6.89922 1.84803 0)
(6.35869 2.07583 0)
(5.86817 1.56062 0)
(5.27066 1.58819 0)
(4.72577 1.37415 0)
(4.25935 1.50018 0)
(3.84446 1.44868 0)
(3.45703 1.68073 0)
(3.24591 1.63559 0)
(2.98534 1.62078 0)
(2.80009 1.50454 0)
(2.56956 1.45041 0)
(2.43132 1.36433 0)
(10.1436 0.888664 0)
(9.61804 2.40265 0)
(8.847 2.47482 0)
(8.00683 2.18066 0)
(7.29028 2.2487 0)
(6.7191 2.05892 0)
(6.1942 2.17083 0)
(5.67156 1.89329 0)
(5.12619 1.79081 0)
(4.6099 1.6547 0)
(4.17212 1.628 0)
(3.76646 1.54618 0)
(3.45348 1.59894 0)
(3.24916 1.54793 0)
(3.05317 1.50754 0)
(2.87182 1.47536 0)
(2.60414 1.41091 0)
(2.43617 1.36944 0)
(9.79673 0.571984 0)
(9.10794 2.69099 0)
(8.44963 2.69248 0)
(7.71264 2.5093 0)
(7.06887 2.37044 0)
(6.51736 2.21737 0)
(6.01698 2.14267 0)
(5.57178 1.95697 0)
(5.10672 1.8187 0)
(4.62423 1.72495 0)
(4.18431 1.61789 0)
(3.77692 1.52598 0)
(3.39996 1.51113 0)
(3.11337 1.42876 0)
(2.85503 1.36532 0)
(2.62519 1.31147 0)
(2.40505 1.22942 0)
(2.29602 1.1996 0)
(9.52745 0.638212 0)
(8.8633 2.7681 0)
(8.23626 2.71325 0)
(7.58515 2.543 0)
(6.95342 2.37676 0)
(6.36701 2.23553 0)
(5.82283 2.13295 0)
(5.32187 1.98616 0)
(4.80474 1.87439 0)
(4.33925 1.78767 0)
(3.9252 1.68591 0)
(3.54225 1.60046 0)
(3.17708 1.53509 0)
(2.87032 1.41925 0)
(2.57987 1.30562 0)
(2.33987 1.19284 0)
(2.11293 1.06484 0)
(1.94571 0.989061 0)
(9.85204 0.542233 0)
(8.93489 2.70407 0)
(8.24496 2.61836 0)
(7.56838 2.44965 0)
(6.88311 2.30311 0)
(6.24356 2.18481 0)
(5.66244 2.09285 0)
(5.13435 1.96224 0)
(4.61118 1.83639 0)
(4.16593 1.70708 0)
(3.75081 1.55725 0)
(3.40414 1.44723 0)
(3.08627 1.34506 0)
(2.79193 1.24186 0)
(2.53219 1.1476 0)
(2.31927 1.02475 0)
(2.09599 0.89873 0)
(1.94295 0.793733 0)
(9.79397 0.56079 0)
(8.87964 2.6425 0)
(8.12365 2.52699 0)
(7.39243 2.40666 0)
(6.65282 2.29049 0)
(5.9827 2.13604 0)
(5.38326 2.00124 0)
(4.84354 1.84706 0)
(4.35632 1.7013 0)
(3.92416 1.55229 0)
(3.51043 1.38651 0)
(3.16614 1.24784 0)
(2.83869 1.09542 0)
(2.53295 0.972925 0)
(2.24377 0.861687 0)
(2.01902 0.735202 0)
(1.79961 0.631651 0)
(1.63764 0.529377 0)
(9.78486 0.542223 0)
(8.7734 2.41565 0)
(8.05271 2.27736 0)
(7.36124 2.14963 0)
(6.68695 2.04026 0)
(6.07763 1.91183 0)
(5.50583 1.78818 0)
(4.98073 1.6221 0)
(4.50931 1.4792 0)
(4.03806 1.33992 0)
(3.59428 1.19467 0)
(3.19659 1.07661 0)
(2.79967 0.953349 0)
(2.46726 0.83822 0)
(2.14786 0.740479 0)
(1.86383 0.631706 0)
(1.63014 0.520899 0)
(1.44548 0.418908 0)
(9.49816 0.46809 0)
(8.615 2.18119 0)
(7.8903 2.04075 0)
(7.16671 1.91372 0)
(6.49487 1.79304 0)
(5.89724 1.66108 0)
(5.33486 1.52695 0)
(4.83243 1.37514 0)
(4.35593 1.26565 0)
(3.88902 1.17251 0)
(3.4688 1.05083 0)
(3.06007 0.958422 0)
(2.66526 0.839985 0)
(2.33808 0.701858 0)
(2.00336 0.581354 0)
(1.72352 0.451868 0)
(1.47354 0.324348 0)
(1.2738 0.24269 0)
(9.7718 0.359646 0)
(8.6967 1.8402 0)
(8.01045 1.70088 0)
(7.33508 1.53762 0)
(6.68601 1.4178 0)
(6.0796 1.29489 0)
(5.48872 1.18209 0)
(4.92036 1.0637 0)
(4.36511 0.972644 0)
(3.86073 0.910951 0)
(3.41741 0.824503 0)
(3.00982 0.770418 0)
(2.65697 0.704746 0)
(2.33553 0.600388 0)
(2.04285 0.51782 0)
(1.79089 0.386077 0)
(1.53038 0.273792 0)
(1.31591 0.177823 0)
(9.59106 0.332694 0)
(8.59555 1.48124 0)
(7.92518 1.35936 0)
(7.31244 1.22745 0)
(6.68405 1.14291 0)
(6.03054 1.06539 0)
(5.41183 0.992507 0)
(4.79038 0.930891 0)
(4.19692 0.857192 0)
(3.69427 0.791431 0)
(3.2446 0.693312 0)
(2.88036 0.5934 0)
(2.5661 0.520698 0)
(2.28342 0.415291 0)
(2.0529 0.341556 0)
(1.84099 0.247578 0)
(1.64289 0.138605 0)
(1.4485 0.0769991 0)
(9.47057 0.308248 0)
(8.45546 1.19024 0)
(7.82719 0.988011 0)
(7.28871 0.844485 0)
(6.70256 0.80865 0)
(6.07167 0.789368 0)
(5.46618 0.727882 0)
(4.80877 0.689807 0)
(4.22228 0.618641 0)
(3.74338 0.529749 0)
(3.28375 0.455093 0)
(2.94546 0.352182 0)
(2.61312 0.28807 0)
(2.30512 0.226686 0)
(2.05437 0.163025 0)
(1.7811 0.131072 0)
(1.5622 0.0472375 0)
(1.36817 0.0137014 0)
(9.54365 0.166616 0)
(8.73734 0.798512 0)
(8.21073 0.60956 0)
(7.59412 0.505009 0)
(6.89578 0.522277 0)
(6.24847 0.545022 0)
(5.64345 0.562631 0)
(5.04717 0.571488 0)
(4.53795 0.497616 0)
(4.0582 0.406336 0)
(3.58828 0.314449 0)
(3.1943 0.213788 0)
(2.79862 0.155054 0)
(2.44268 0.11766 0)
(2.14043 0.0835035 0)
(1.84754 0.0542494 0)
(1.60393 0.0217738 0)
(1.41941 -0.0126915 0)
(9.72727 0.0844016 0)
(8.77792 0.372438 0)
(8.28443 0.26179 0)
(7.66703 0.270463 0)
(6.98045 0.299601 0)
(6.32574 0.29365 0)
(5.71542 0.289843 0)
(5.18777 0.278885 0)
(4.70761 0.229534 0)
(4.23554 0.186534 0)
(3.76667 0.142859 0)
(3.32246 0.0861441 0)
(2.8897 0.0535363 0)
(2.49615 0.0284597 0)
(2.13663 -0.00717948 0)
(1.84428 -0.0098698 0)
(1.59296 -0.0452675 0)
(1.39078 -0.0595598 0)
(9.42417 -0.0415032 0)
(8.78306 0.0732512 0)
(8.43978 -0.0160286 0)
(7.84926 0.026464 0)
(7.14844 0.0676186 0)
(6.41633 0.0771326 0)
(5.72494 0.0916519 0)
(5.09158 0.104094 0)
(4.49867 0.0889802 0)
(3.92517 0.0798311 0)
(3.37415 0.0598762 0)
(2.84792 0.0335019 0)
(2.35735 0.0092702 0)
(1.91085 -0.0135191 0)
(1.52616 -0.032358 0)
(1.19469 -0.0488329 0)
(0.90663 -0.0831605 0)
(0.674038 -0.099064 0)
(9.35876 -0.363367 0)
(8.77822 -0.409547 0)
(8.30493 -0.302861 0)
(7.52294 -0.166236 0)
(6.59436 -0.0798167 0)
(5.6267 -0.040394 0)
(4.69179 -0.0103636 0)
(3.82379 0.00706084 0)
(3.01451 0.0130062 0)
(2.26748 0.0254821 0)
(1.57974 0.0291531 0)
(0.943402 0.0220157 0)
(0.374575 0.0119878 0)
(-0.151 -0.000328561 0)
(-0.608924 -0.0231193 0)
(-1.02524 -0.0408294 0)
(-1.37795 -0.0609685 0)
(-1.70984 -0.0776443 0)
(9.74183 -0.609485 0)
(8.37001 -0.716894 0)
(6.8838 -0.508677 0)
(5.26596 -0.30623 0)
(3.75061 -0.136624 0)
(2.3912 -0.0171006 0)
(1.18917 0.0508806 0)
(0.137407 0.0814065 0)
(-0.788471 0.0931893 0)
(-1.59292 0.0964488 0)
(-2.30436 0.0906952 0)
(-2.93072 0.0798706 0)
(-3.48759 0.0653732 0)
(-3.98918 0.0542025 0)
(-4.43167 0.0401276 0)
(-4.83191 0.029527 0)
(-5.16489 0.00201498 0)
(-5.46696 -0.0149772 0)
(7.9964 -0.435229 0)
(4.4948 -0.298434 0)
(1.89822 -0.0442616 0)
(0.0351754 0.0679177 0)
(-1.27177 0.10566 0)
(-2.26248 0.10767 0)
(-3.07941 0.0929275 0)
(-3.78106 0.0795777 0)
(-4.41217 0.0688106 0)
(-4.98875 0.0614578 0)
(-5.5135 0.054967 0)
(-5.98943 0.0488334 0)
(-6.42622 0.0425771 0)
(-6.82546 0.0369218 0)
(-7.1892 0.0300888 0)
(-7.52346 0.0212026 0)
(-7.82261 0.00239812 0)
(-8.13381 0.000146081 0)
(-0.11133 0.395311 0)
(-0.465605 0.257737 0)
(-0.600608 0.0211663 0)
(-0.477387 -0.221482 0)
(-0.14679 -0.391975 0)
(0.310997 -0.502898 0)
(0.855492 -0.572205 1.10293e-17)
(1.432 -0.573155 -1.09418e-17)
(2.01191 -0.571352 0)
(2.59335 -0.536648 -1.07689e-17)
(3.1636 -0.48143 0)
(3.68222 -0.469438 0)
(4.21753 -0.452226 0)
(4.74277 -0.378388 1.04623e-17)
(5.16494 -0.290193 0)
(5.5699 -0.22121 0)
(5.90971 -0.164546 -1.02511e-17)
(6.12028 -0.0136413 0)
(6.31371 0.0719693 0)
(6.34919 0.135924 0)
(6.2711 0.325395 9.99433e-18)
(6.15318 0.391496 0)
(5.81347 0.516836 9.85458e-18)
(5.44695 0.685323 0)
(4.99759 0.695522 0)
(4.26044 0.761639 9.68599e-18)
(3.59146 0.697528 0)
(3.13781 0.31335 -9.61952e-18)
(2.80843 -0.0463834 0)
(2.57937 -0.173249 9.51531e-18)
(2.51429 -0.172594 0)
(2.64635 -0.131462 0)
(2.90977 -0.114684 0)
(3.23673 -0.102768 0)
(3.48195 -0.0253024 0)
(3.58275 0.123479 -9.07382e-18)
(3.75631 0.105496 0)
(4.21741 0.0184679 1.78517e-17)
(4.86077 -0.245628 0)
(5.3964 -0.735273 -1.79488e-17)
(5.78642 -1.19771 0)
(6.12759 -1.29387 0)
(6.37145 -0.912751 1.78974e-17)
(6.34898 -0.311567 0)
(6.07436 0.140233 1.7766e-17)
(5.74009 0.314657 -1.7649e-17)
(5.45779 0.30464 0)
(5.2337 0.227168 -1.73963e-17)
(5.07401 0.1468 -1.72731e-17)
(4.95537 0.0777842 0)
(4.88373 0.0256459 0)
(4.85159 -0.0106418 0)
(4.82791 -0.0428767 0)
(4.80781 -0.0648397 0)
(4.83176 -0.0714437 1.65609e-17)
(4.87812 -0.0691682 0)
(4.90409 -0.0962056 -1.63251e-17)
(4.92643 -0.103267 0)
(4.93884 -0.107131 0)
(4.92556 -0.115511 1.59682e-17)
(4.90316 -0.117427 0)
(4.82478 -0.126559 -1.57361e-17)
(4.72475 -0.109424 0)
(4.59582 -0.121755 0)
(4.45632 -0.0964128 0)
(4.314 -0.062312 1.52798e-17)
(4.18033 -0.0342441 0)
(4.058 -0.040512 0)
(3.93821 -0.0542225 1.4898e-17)
(3.83701 -0.0717926 0)
(3.78252 -0.0765994 1.46624e-17)
(3.75169 -0.0830997 0)
(3.76419 -0.102038 0)
(3.83134 -0.137403 0)
(3.95501 -0.170527 -1.42088e-17)
(4.11397 -0.198078 0)
(4.28605 -0.215586 0)
(4.47899 -0.230637 -1.38981e-17)
(4.6885 -0.255544 -1.37942e-17)
(4.9164 -0.258354 0)
(5.17764 -0.273563 -1.35904e-17)
(5.52159 -0.311325 0)
(5.92034 -0.378813 -2.67925e-17)
(6.38476 -0.424044 0)
(6.92915 -0.478006 -2.63854e-17)
(7.5819 -0.55159 0)
(8.38931 -0.61059 2.5969e-17)
(9.18015 -0.587807 0)
(9.84305 -0.536432 0)
(10.2731 -0.446822 0)
(10.5327 -0.497579 -2.50589e-17)
(10.7984 -0.48544 0)
(10.9641 -0.485354 2.4652e-17)
(11.0649 -0.442079 0)
(11.1858 -0.472633 -2.40966e-17)
(11.3572 -0.522085 -2.38497e-17)
(11.5204 -0.553539 -2.36355e-17)
(11.7282 -0.569717 0)
(11.9952 -0.520725 0)
(11.9302 -0.450406 0)
(11.5261 -0.377097 0)
(11.0961 -0.381467 0)
(10.4196 -0.367167 0)
(9.53854 -0.186564 0)
(9.02426 -0.292618 0)
(8.50752 -0.394607 2.21383e-17)
(7.37841 -0.384876 2.15558e-17)
(6.80921 -0.676066 0)
(7.16301 -1.0751 0)
(7.76709 -1.19085 0)
(8.15675 -1.10392 2.12913e-17)
(8.28364 -0.92283 0)
(8.2339 -0.876224 0)
(7.72528 -0.752482 0)
(6.72374 -0.355041 0)
(5.50322 -0.257223 -2.12192e-17)
(4.04569 -0.297038 0)
(2.60031 -0.475348 0)
(1.08208 -0.483363 2.06749e-17)
(-0.343664 -0.238704 -2.05812e-17)
(-1.60124 -0.290338 0)
(-2.336 -0.427198 -2.00479e-17)
(-2.03079 -0.727231 0)
(-1.08418 -1.01169 1.97683e-17)
(-0.0730671 -1.12471 0)
(0.567878 -0.962681 0)
(0.417058 -0.773527 0)
(0.549628 -0.98069 0)
(2.49861 -1.7586 0)
(6.59601 -1.9579 -3.83227e-17)
(8.70997 -1.64822 -3.79647e-17)
(11.4693 -2.14938 0)
(14.6828 -1.30631 0)
(15.1568 -0.655402 0)
(14.1161 -0.809325 3.72343e-17)
(12.9795 -1.17399 0)
(12.631 -1.64055 0)
(12.5626 -1.77862 0)
(14.452 -2.34441 3.58112e-17)
(17.1169 -2.12336 -3.57677e-17)
(18.3606 -1.82784 0)
(18.5553 -1.71439 0)
(18.1517 -1.73092 -3.54074e-17)
(17.4166 -1.85483 -3.51423e-17)
(16.8613 -1.99882 0)
(16.8939 -2.09248 0)
(16.7698 -2.16083 3.43676e-17)
(16.0333 -2.15649 -3.40341e-17)
(15.8277 -2.18315 0)
(15.5488 -2.19306 0)
(15.3011 -2.36964 -3.33472e-17)
(15.5274 -2.5116 0)
(15.4401 -2.44205 0)
(15.6155 -2.52483 -3.26398e-17)
(15.7001 -2.64361 0)
(15.662 -2.35261 -3.16898e-17)
(14.688 -2.23953 0)
(14.3497 -2.39441 0)
(13.1547 -2.32352 0)
(12.6438 -2.65448 3.02018e-17)
(11.2692 -2.22046 0)
(10.625 -2.90438 0)
(10.9785 -2.91178 0)
(4.20612 -1.50095 0)
(-1.0281 -1.59952 0)
(-0.661519 -2.35085 0)
(1.00658 -2.49325 3.01007e-17)
(0.875699 -2.65763 3.00672e-17)
(-1.15813 -2.40918 0)
(-4.92329 -2.02519 0)
(-9.06017 -1.99459 0)
(-11.9109 -2.22775 -2.90734e-17)
(-13.598 -2.44676 0)
(-15.0765 -2.45045 5.86215e-17)
(-16.2728 -2.45261 -5.87045e-17)
(-17.1883 -2.42807 -5.86878e-17)
(-18.1651 -2.30296 5.85964e-17)
(-19.5285 -2.0779 -5.84772e-17)
(-21.5079 -1.82916 5.83033e-17)
(-23.2231 -1.93466 0)
(0.0528907 0.768726 0)
(-0.0890061 0.734801 0)
(-0.00919868 0.0359344 -2.29456e-17)
(0.239646 -0.711047 0)
(0.651424 -1.24597 2.24749e-17)
(1.10983 -1.55999 2.22349e-17)
(1.59639 -1.76046 1.10069e-17)
(2.08514 -1.77481 1.09075e-17)
(2.60158 -1.76204 0)
(3.05901 -1.77615 1.07366e-17)
(3.60161 -1.64319 0)
(4.16484 -1.55591 0)
(4.63134 -1.65609 -2.10309e-17)
(5.17461 -1.37896 -1.0464e-17)
(5.71138 -1.19289 2.08585e-17)
(6.12738 -1.21575 2.06355e-17)
(6.51784 -0.756639 1.02976e-17)
(6.85568 -0.603731 0)
(7.10015 -0.48328 0)
(7.25229 0.0639892 0)
(7.28048 0.148839 9.99427e-18)
(7.27809 0.429322 0)
(7.14794 0.969479 -2.97005e-17)
(6.94614 0.862119 0)
(6.6537 1.22231 0)
(6.47294 1.93676 -9.66188e-18)
(6.4342 1.46796 0)
(5.88605 0.935877 9.4179e-18)
(5.25876 1.18922 1.87099e-17)
(5.13426 1.06642 -9.36718e-18)
(5.06058 0.17311 0)
(4.6275 -0.493171 0)
(4.34366 -0.707075 0)
(4.51031 -0.80078 1.7268e-17)
(5.22798 -0.387046 1.73748e-17)
(6.18513 -0.119536 8.95163e-18)
(6.70232 -0.984867 0)
(6.8737 -1.87776 -1.70244e-17)
(6.77494 -1.54697 0)
(6.05538 -0.489368 1.759e-17)
(4.95032 0.324976 0)
(3.97671 0.678469 0)
(3.23958 0.797745 -1.79191e-17)
(2.72726 0.831564 0)
(2.40991 0.778648 -5.30425e-17)
(2.21246 0.65545 1.75508e-17)
(2.08888 0.517035 0)
(1.98914 0.381372 1.72833e-17)
(1.90155 0.255498 1.71485e-17)
(1.81225 0.152236 0)
(1.76054 0.0797301 0)
(1.72406 -0.0131573 0)
(1.7178 -0.0760763 0)
(1.72663 -0.125076 0)
(1.7508 -0.157967 -1.63288e-17)
(1.7342 -0.200198 -3.23754e-17)
(1.74467 -0.227173 1.60473e-17)
(1.79239 -0.234797 0)
(1.76825 -0.218243 -3.15404e-17)
(1.67383 -0.18572 1.56422e-17)
(1.52295 -0.142691 0)
(1.34193 -0.104411 1.53992e-17)
(1.11962 -0.0593189 0)
(0.915377 -0.0471214 0)
(0.851503 -0.0543352 2.99777e-17)
(0.794861 -0.14103 -1.48416e-17)
(0.76158 -0.227561 2.94045e-17)
(0.743491 -0.267029 -2.91425e-17)
(0.709276 -0.315057 -1.44536e-17)
(0.726093 -0.365092 0)
(0.85267 -0.448697 -1.42697e-17)
(0.994268 -0.588927 0)
(1.2084 -0.730885 0)
(1.4932 -0.869602 0)
(1.79094 -0.932395 -1.39695e-17)
(2.09131 -0.98057 0)
(2.38505 -1.01975 -2.76151e-17)
(2.68549 -1.06945 4.11836e-17)
(3.06276 -1.14415 1.36479e-17)
(3.47714 -1.22081 0)
(3.92888 -1.31881 1.35391e-17)
(4.44163 -1.46535 0)
(5.00637 -1.61792 2.69611e-17)
(5.60466 -1.74636 0)
(6.25224 -1.87705 2.66438e-17)
(6.99542 -2.10896 -5.31143e-17)
(7.81689 -2.27247 -2.62507e-17)
(8.71291 -2.13427 0)
(9.45332 -1.88903 0)
(9.95074 -1.49605 0)
(10.2268 -1.55336 2.40521e-17)
(10.572 -1.54986 0)
(10.7932 -1.51623 -2.34077e-17)
(10.9318 -1.49526 0)
(11.1571 -1.66173 6.83861e-17)
(11.5252 -1.85398 2.2575e-17)
(11.875 -1.96394 2.24284e-17)
(12.2444 -2.08551 0)
(12.6683 -1.97459 0)
(12.7482 -1.56882 0)
(12.4539 -1.33515 0)
(12.2114 -1.25376 0)
(11.5722 -0.985834 4.33692e-17)
(10.4954 -1.11633 4.23981e-17)
(10.326 -1.68134 0)
(10.2208 -1.50578 -2.09226e-17)
(8.75448 -1.16974 -2.07749e-17)
(7.97199 -2.12073 0)
(7.82465 -3.04669 -3.7239e-17)
(7.83176 -3.03052 0)
(7.8489 -2.74381 2.07248e-17)
(7.5365 -2.58451 0)
(6.90184 -1.96515 0)
(5.96021 -1.37544 -4.29861e-17)
(4.58733 -1.16402 0)
(3.16748 -0.835854 2.05669e-17)
(1.3206 -0.688967 0)
(-0.966362 -0.489774 0)
(-3.13275 -0.623394 2.03178e-17)
(-4.8861 -1.02731 1.96494e-17)
(-5.46727 -1.50243 0)
(-5.14527 -2.63819 -2.00283e-17)
(-4.39786 -3.555 0)
(-3.17207 -3.94241 1.98386e-17)
(-2.34295 -3.67378 3.87268e-17)
(-1.83164 -2.99354 0)
(-1.45382 -2.87751 0)
(-0.454885 -4.21159 0)
(2.25868 -6.78824 0)
(6.09074 -7.11939 3.87557e-17)
(8.83099 -5.51091 1.1513e-16)
(11.8146 -7.50338 0)
(15.0514 -5.72459 0)
(16.3677 -3.80835 0)
(16.4362 -3.06355 -3.59886e-17)
(15.6631 -3.26376 0)
(15.1053 -4.20978 0)
(14.0137 -4.84767 6.84493e-17)
(15.6837 -7.7549 3.50383e-17)
(20.1686 -7.23687 3.47136e-17)
(22.1641 -5.95278 0)
(22.4748 -5.54826 0)
(22.3124 -5.38683 3.351e-17)
(21.6226 -5.35761 -3.3402e-17)
(20.4712 -5.99062 0)
(20.5072 -6.46557 0)
(20.9327 -6.2744 -3.22726e-17)
(19.5854 -6.21068 9.51542e-17)
(18.8329 -6.62715 0)
(18.3425 -6.65067 0)
(17.9284 -6.9795 3.0413e-17)
(18.5591 -7.36275 0)
(18.2872 -7.07884 6.03678e-17)
(18.0427 -7.15712 -2.99778e-17)
(17.5037 -7.22224 0)
(16.4062 -6.85731 2.86873e-17)
(14.4885 -6.66353 5.59519e-17)
(14.4878 -6.96658 0)
(12.447 -6.8101 0)
(11.7236 -7.26564 -2.66452e-17)
(10.0982 -6.81412 0)
(8.54731 -8.27347 5.98212e-17)
(6.59028 -5.16752 0)
(-1.7988 -3.31138 0)
(-5.38323 -7.38992 0)
(-5.62803 -10.0205 0)
(-0.0938963 -10.3114 -2.95243e-17)
(2.54607 -8.20653 -2.80275e-17)
(0.535945 -6.72684 0)
(-3.98882 -5.72092 0)
(-7.95793 -6.05982 0)
(-10.2309 -6.94402 2.58045e-17)
(-11.4792 -7.37011 0)
(-13.0416 -7.22341 -5.4085e-17)
(-14.863 -7.08739 5.52138e-17)
(-16.7199 -6.81135 5.59825e-17)
(-18.9616 -6.3136 5.66664e-17)
(-21.7831 -5.60953 5.66622e-17)
(-25.0507 -5.03467 5.67763e-17)
(-27.53 -5.42236 0)
(0.0641795 0.566173 0)
(0.158408 0.524712 0)
(0.492227 -0.532348 2.31957e-17)
(0.88507 -1.51162 2.28792e-17)
(1.26894 -2.15672 -2.25597e-17)
(1.61589 -2.47101 -2.23013e-17)
(1.94051 -2.59824 -7.16762e-21)
(2.21368 -2.57284 0)
(2.5829 -2.48295 0)
(2.9527 -2.49807 0)
(3.40312 -2.60664 0)
(4.00851 -2.44939 0)
(4.53511 -2.39344 6.43575e-17)
(5.08197 -2.43796 0)
(5.72346 -2.03061 -2.117e-17)
(6.08418 -1.72419 -2.10042e-17)
(6.5312 -1.48568 0)
(6.96301 -0.973625 0)
(7.04479 -0.638789 0)
(7.27308 -0.155432 0)
(7.36885 0.413725 -2.04817e-17)
(7.12325 0.628945 0)
(7.17864 1.0754 2.01451e-17)
(7.12116 1.6134 0)
(6.67691 1.49694 0)
(6.45705 1.33518 0)
(6.39694 2.08626 3.87452e-17)
(6.01737 2.69695 0)
(5.77905 1.51163 -1.86111e-17)
(5.66852 0.132282 3.67002e-17)
(5.21092 0.488305 0)
(4.91891 1.40262 0)
(5.32349 0.837108 0)
(5.66701 -1.42781 -1.74234e-17)
(5.73463 -2.98597 -1.72312e-17)
(5.62278 -2.28972 0)
(4.66324 -0.432342 0)
(3.32282 0.819217 3.61282e-17)
(2.2195 1.35415 3.6315e-17)
(1.36376 1.55775 -3.63825e-17)
(0.807871 1.57614 0)
(0.500215 1.4447 0)
(0.348584 1.25812 0)
(0.232854 1.10181 0)
(0.185276 0.947409 3.53927e-17)
(0.191868 0.791929 3.51214e-17)
(0.229619 0.644451 -3.4841e-17)
(0.24851 0.490711 0)
(0.253445 0.331136 0)
(0.251343 0.213063 0)
(0.216991 0.078114 0)
(0.211319 -0.0519588 3.34148e-17)
(0.264668 -0.164357 0)
(0.291776 -0.253609 0)
(0.308856 -0.325134 3.25598e-17)
(0.339946 -0.380423 3.22447e-17)
(0.377067 -0.361743 0)
(0.40615 -0.327807 -6.31451e-17)
(0.418231 -0.254209 3.12613e-17)
(0.385376 -0.167104 -3.10041e-17)
(0.284988 -0.0958597 0)
(0.13448 -0.06929 0)
(-0.0202163 -0.111368 0)
(-0.15938 -0.209248 0)
(-0.161959 -0.365101 -3.01308e-17)
(-0.0665152 -0.513608 -5.97558e-17)
(0.0925561 -0.562918 -2.95894e-17)
(0.240925 -0.617282 2.93567e-17)
(0.370502 -0.723704 0)
(0.579385 -0.872407 -5.82153e-17)
(0.82768 -1.06348 -5.80848e-17)
(1.12541 -1.2658 -5.79821e-17)
(1.44767 -1.47541 5.78715e-17)
(1.7922 -1.64383 0)
(2.11528 -1.70371 8.60891e-17)
(2.47099 -1.74429 0)
(2.81585 -1.79682 -2.85369e-17)
(3.12546 -1.88762 -2.84448e-17)
(3.56307 -2.04026 0)
(4.04452 -2.20121 0)
(4.61953 -2.3662 -5.6536e-17)
(5.15354 -2.53709 0)
(5.69211 -2.73424 -5.65551e-17)
(6.14333 -2.9021 0)
(6.66513 -3.09386 5.61257e-17)
(7.16644 -3.44079 1.11822e-16)
(7.71243 -3.79209 0)
(8.40972 -3.65763 0)
(9.06695 -3.32029 0)
(9.79273 -2.62458 5.07697e-17)
(10.1659 -2.66199 0)
(10.7502 -2.71145 4.8674e-17)
(11.1567 -2.62301 0)
(11.4589 -2.61078 0)
(11.8274 -2.96714 -9.20299e-17)
(12.3994 -3.29824 0)
(12.9745 -3.38492 -4.61504e-17)
(13.5517 -3.56758 0)
(14.0981 -3.35935 -4.59434e-17)
(14.2592 -2.67875 0)
(14.1804 -2.37429 0)
(14.0716 -2.24452 0)
(13.2685 -1.71322 -1.29062e-16)
(12.296 -2.01418 -4.2775e-17)
(12.08 -2.86503 0)
(11.3046 -2.08756 0)
(9.76324 -1.64156 0)
(9.15386 -3.14717 0)
(8.06248 -3.95923 3.96295e-17)
(7.0255 -4.1607 -8.37672e-17)
(6.49562 -3.98191 -4.26962e-17)
(5.49271 -3.38855 8.5413e-17)
(4.44706 -2.94449 8.4831e-17)
(3.31743 -2.21511 4.10807e-17)
(1.90626 -1.5114 0)
(0.514085 -0.990943 8.1014e-17)
(-1.36132 -0.50582 0)
(-3.48881 -0.647962 -8.01054e-17)
(-5.31354 -1.06013 -3.98735e-17)
(-6.33233 -1.96436 0)
(-6.02156 -3.5947 8.12363e-17)
(-5.22531 -4.81851 4.13122e-17)
(-4.26552 -5.79352 0)
(-3.68729 -6.09793 3.98954e-17)
(-2.87019 -5.80116 -1.19198e-16)
(-1.76934 -5.47136 0)
(-0.827085 -5.66983 0)
(0.879559 -7.73662 0)
(3.15349 -10.7851 0)
(4.36444 -11.4925 -7.71029e-17)
(8.25551 -9.8307 -7.66613e-17)
(10.9835 -11.9281 0)
(13.9474 -9.32271 0)
(15.1103 -6.72864 0)
(15.2522 -5.69859 0)
(15.0712 -5.85948 0)
(14.2474 -6.74268 0)
(13.0954 -7.19686 -6.69979e-17)
(14.0691 -13.7589 2.19916e-19)
(20.0108 -13.3221 0)
(23.4187 -10.1842 0)
(23.6043 -9.10494 -6.7425e-17)
(23.5733 -9.05497 0)
(23.387 -8.74937 6.55059e-17)
(21.5916 -9.66108 6.51953e-17)
(21.015 -10.9723 0)
(22.3385 -10.4858 0)
(20.9492 -9.81386 -6.1416e-17)
(19.3939 -10.5811 -1.22158e-16)
(18.6385 -10.7724 0)
(17.5545 -11.647 0)
(18.7196 -12.4682 0)
(19.088 -11.5366 -5.80622e-17)
(19.0712 -11.7505 5.71531e-17)
(18.8672 -11.6704 0)
(17.9965 -10.7247 1.10372e-16)
(15.3974 -10.8515 5.49902e-17)
(15.5706 -11.6729 -1.09324e-16)
(13.105 -10.6672 0)
(12.623 -12.5551 0)
(10.2107 -10.374 -1.07964e-16)
(6.93067 -11.876 -6.08866e-17)
(2.47945 -9.32027 0)
(-2.59236 -7.19573 0)
(-3.22249 -12.0372 0)
(-5.32185 -17.3782 0)
(-5.50267 -20.6875 -1.22808e-16)
(2.62146 -15.2224 0)
(2.27881 -11.1795 0)
(-1.96745 -9.49154 0)
(-5.81342 -10.1508 0)
(-7.99223 -11.7605 0)
(-9.42816 -12.1839 0)
(-11.2415 -11.6827 -1.05213e-16)
(-14.0009 -11.2213 0)
(-17.2337 -10.6221 0)
(-20.7345 -9.71573 -2.24087e-16)
(-24.1943 -8.58077 1.12983e-16)
(-27.3605 -7.95847 -1.12429e-16)
(-29.3874 -8.67014 1.10804e-16)
(0.0266369 0.266962 0)
(0.293556 -0.160973 -4.70403e-17)
(0.710591 -1.42922 0)
(1.04243 -2.32984 -2.27519e-17)
(1.25764 -2.76652 0)
(1.40113 -2.91571 0)
(1.54759 -2.93399 2.21812e-17)
(1.78967 -2.99032 0)
(2.15651 -3.19173 0)
(2.63559 -3.38924 0)
(3.20136 -3.61115 0)
(3.77816 -3.78612 0)
(4.47667 -3.73659 -8.60077e-17)
(4.98349 -3.51121 -4.25701e-17)
(5.48254 -3.14909 4.22958e-17)
(5.95569 -2.70437 0)
(6.31225 -2.21532 0)
(6.67925 -1.52337 0)
(6.76016 -0.913447 0)
(6.90503 -0.364796 0)
(7.04919 0.408328 -4.07441e-17)
(6.6896 0.941731 -4.03437e-17)
(6.4799 1.2427 3.96489e-17)
(6.46985 2.03748 -4.0431e-17)
(6.11103 2.82424 0)
(5.73682 2.56627 0)
(5.69793 1.92709 -3.77605e-17)
(5.68142 1.81833 0)
(5.36994 2.23089 0)
(4.81202 2.47421 -3.80025e-17)
(4.67891 1.41289 -3.64403e-17)
(5.2792 -0.832241 -3.4763e-17)
(5.8482 -1.70457 0)
(4.92805 -0.57409 0)
(3.0695 0.634644 3.65427e-17)
(1.61142 1.38885 0)
(0.545666 1.92419 0)
(-0.13729 2.10372 -3.70636e-17)
(-0.548859 2.09035 3.69514e-17)
(-0.805213 2.00726 -3.68172e-17)
(-0.949371 1.84007 0)
(-0.97769 1.62252 0)
(-0.915423 1.35997 -7.24338e-17)
(-0.836025 1.09941 0)
(-0.717369 0.880711 -7.14945e-17)
(-0.556006 0.670807 -1.06483e-16)
(-0.395843 0.505028 1.05665e-16)
(-0.276054 0.359037 -6.98649e-17)
(-0.130793 0.228084 0)
(-0.0244695 0.11128 0)
(0.0454682 0.00563779 -6.81021e-17)
(0.175061 -0.0915772 -3.37943e-17)
(0.312948 -0.202234 0)
(0.423785 -0.319027 0)
(0.472265 -0.410871 -3.30686e-17)
(0.49642 -0.488035 -6.55713e-17)
(0.486425 -0.537607 0)
(0.475579 -0.538166 6.41919e-17)
(0.499375 -0.478739 -6.33898e-17)
(0.557517 -0.372305 6.2622e-17)
(0.637882 -0.263834 0)
(0.679852 -0.175286 0)
(0.634034 -0.154785 0)
(0.557183 -0.34631 0)
(0.47587 -0.682433 0)
(0.423517 -1.0348 6.09993e-17)
(0.453904 -1.22199 0)
(0.601267 -1.26599 0)
(0.834477 -1.31373 0)
(1.08948 -1.47898 1.18811e-16)
(1.39177 -1.74425 5.91363e-17)
(1.6642 -2.00874 5.88386e-17)
(1.92348 -2.2237 -1.16969e-16)
(2.27617 -2.41407 5.80517e-17)
(2.58439 -2.51699 -5.75394e-17)
(2.99165 -2.61618 0)
(3.39881 -2.66278 5.68809e-17)
(3.8376 -2.82579 0)
(4.34553 -3.08139 0)
(4.81039 -3.34751 0)
(5.40079 -3.56352 1.12025e-16)
(5.94935 -3.66643 -5.56412e-17)
(6.48118 -3.8267 -5.53873e-17)
(6.81512 -3.96586 -1.10422e-16)
(7.16786 -4.13834 -1.65224e-16)
(7.30466 -4.44059 -5.48475e-17)
(7.48056 -4.95212 0)
(7.6982 -5.05425 -1.0813e-16)
(8.23029 -4.9032 0)
(9.03893 -4.21465 -1.55484e-16)
(9.67863 -4.20595 0)
(10.4237 -4.22871 -1.51481e-16)
(11.0089 -4.06638 0)
(11.6407 -4.00348 0)
(12.2039 -4.45782 -4.83759e-17)
(12.7712 -5.01731 0)
(13.3221 -5.25631 4.81823e-17)
(13.9725 -5.40459 9.59686e-17)
(14.4004 -5.25285 4.77678e-17)
(14.9997 -4.43306 9.50087e-17)
(15.3099 -3.81969 -9.20809e-17)
(15.2356 -3.19371 -8.85291e-17)
(14.5775 -2.24765 1.76769e-16)
(14.3305 -2.76818 0)
(13.9627 -3.8155 0)
(12.0713 -2.77941 8.42765e-17)
(10.7813 -2.55162 -8.52837e-17)
(9.91599 -3.96593 0)
(8.27804 -4.53388 0)
(6.90655 -5.06666 8.43372e-17)
(5.48298 -5.06293 0)
(3.72002 -4.31698 2.44602e-19)
(1.98945 -3.55224 2.38382e-19)
(0.664416 -2.86229 8.02456e-17)
(-0.774373 -2.25279 0)
(-2.4409 -1.55256 -7.91291e-17)
(-4.08468 -0.96219 0)
(-5.59977 -1.10134 7.9647e-17)
(-6.39439 -2.16365 0)
(-6.28847 -3.95648 0)
(-5.56172 -5.79729 -8.15205e-17)
(-4.74007 -7.45562 -8.03288e-17)
(-4.35682 -8.24279 0)
(-3.96636 -8.46657 -7.71394e-17)
(-2.06687 -8.80262 1.55859e-16)
(0.0418301 -8.62266 0)
(1.8533 -8.73536 0)
(3.31101 -10.8726 0)
(3.24215 -13.5556 0)
(3.9938 -15.2893 7.6179e-17)
(6.4783 -14.563 -1.49941e-16)
(8.97 -16.2725 0)
(12.3967 -13.1894 0)
(13.4562 -10.0688 0)
(13.4698 -8.67401 0)
(12.7699 -8.24389 0)
(11.6237 -9.17437 0)
(13.2347 -10.9253 0)
(15.2351 -20.5432 8.53088e-17)
(19.3015 -21.6745 0)
(23.1526 -15.476 0)
(23.5398 -13.1077 6.9611e-17)
(23.3625 -13.243 0)
(24.0589 -12.2567 0)