/*--------------------------------*- C++ -*----------------------------------*\
| =========                 |                                                 |
| \\      /  F ield         | OpenFOAM: The Open Source CFD Toolbox           |
|  \\    /   O peration     | Version:  dev                                   |
|   \\  /    A nd           | Web:      http://www.openfoam.org               |
|    \\/     M anipulation  |                                                 |
\*---------------------------------------------------------------------------*/
FoamFile
{
    version     2.0;
    format      ascii;
    class       volVectorField;
    object      UMean;
    location    "9.139";
}
// * * * * * * * * * * * * * * * * * * * * * * * * * * * * * * * * * * * * * //

dimensions      [0 1 -1 0 0 0 0];

internalField   nonuniform List<vector> 
12225
(
(7.00367 0.430274 0)
(4.43879 0.192554 0)
(2.55668 0.0311617 0)
(2.51078 -0.0166607 0)
(1.38431 0.0193756 0)
(2.26722 -0.0342839 0)
(0.989364 0.0489938 0)
(2.18242 -0.0591825 0)
(0.797313 0.0716686 0)
(2.29161 -0.0978583 0)
(0.688538 0.0993816 0)
(2.74349 -0.138638 0)
(0.947996 0.102617 0)
(3.39694 -0.172131 0)
(3.53174 -0.168495 0)
(4.69597 0.049947 0)
(14.8469 -2.43414 0)
(7.11871 5.13403 0)
(9.54627 0.981588 0)
(9.5434 0.860888 0)
(6.68668 0.466303 0)
(7.59029 0.214551 0)
(4.09022 0.140336 0)
(6.84299 0.0107883 0)
(2.66471 0.132691 0)
(6.68908 -0.0903509 0)
(1.82222 0.14188 0)
(7.03898 -0.165098 0)
(1.26024 0.123936 0)
(8.12164 -0.4145 0)
(1.3849 0.25244 0)
(9.95539 -1.44256 0)
(3.43557 0.271659 0)
(12.3894 -4.06866 0)
(10.4308 -1.92812 0)
(7.77563 0.485868 0)
(9.11846 0.763499 0)
(12.1669 0.951413 0)
(8.32943 0.624003 0)
(11.832 0.443419 0)
(6.22562 0.310347 0)
(11.413 0.20644 0)
(4.58218 0.221575 0)
(11.315 -0.0195809 0)
(3.87366 0.193032 0)
(11.3765 -0.277932 0)
(4.35015 0.187312 0)
(11.2528 -0.723216 0)
(5.72837 0.175941 0)
(11.0904 -1.49187 0)
(7.21487 0.0525371 0)
(12.1184 -3.86698 0)
(6.93237 0.350581 0)
(9.35339 -2.39002 0)
(7.21891 0.524959 0)
(13.993 0.961048 0)
(7.92957 0.609491 0)
(14.2954 0.553894 0)
(7.47396 0.420937 0)
(14.1166 0.271064 0)
(7.17527 0.396748 0)
(13.7387 -0.145167 0)
(7.25627 0.459672 0)
(13.2698 -0.698838 0)
(7.65891 0.576808 0)
(12.8749 -1.42286 0)
(8.26654 0.699302 0)
(12.6516 -2.31343 0)
(9.02323 0.0411904 0)
(11.8878 -3.63704 0)
(8.68446 -1.43274 0)
(8.36377 0.682103 0)
(6.42377 0.569976 0)
(14.0114 0.565982 0)
(8.47325 0.674502 0)
(13.9584 0.284575 0)
(9.16909 0.636727 0)
(13.6439 -0.00255897 0)
(9.51686 0.657897 0)
(13.2143 -0.388739 0)
(9.5918 0.734455 0)
(12.8133 -0.871397 0)
(9.44527 0.876956 0)
(12.583 -1.52151 0)
(9.14932 1.0899 0)
(12.571 -2.4901 0)
(8.82663 1.13183 0)
(11.6168 -5.02838 0)
(8.54112 1.26609 0)
(8.72238 0.129257 0)
(7.95607 0.616806 0)
(11.8037 0.152506 0)
(9.50487 0.654733 0)
(11.7399 0.0503047 0)
(10.0881 0.693893 0)
(11.6009 -0.16559 0)
(10.3204 0.725812 0)
(11.4767 -0.457513 0)
(10.3004 0.783027 0)
(11.3899 -0.853619 0)
(10.0327 0.832022 0)
(11.3558 -1.40019 0)
(9.4922 0.801211 0)
(11.4184 -2.13853 0)
(8.80049 0.725758 0)
(10.998 -3.92064 0)
(7.73284 1.3356 0)
(9.48902 -0.217317 0)
(9.34361 0.812628 0)
(10.4394 -0.26591 0)
(10.1405 0.930482 0)
(10.5543 -0.304505 0)
(10.3985 1.01997 0)
(10.5823 -0.502851 0)
(10.5201 1.07547 0)
(10.6257 -0.78116 0)
(10.5634 1.15352 0)
(10.6722 -1.15776 0)
(10.5153 1.23533 0)
(10.7004 -1.63578 0)
(10.3667 1.26142 0)
(10.6884 -2.32742 0)
(10.053 1.27146 0)
(10.3761 -3.95428 0)
(8.29877 2.01938 0)
(9.69689 -0.95173 0)
(9.8486 0.701096 0)
(10.1565 -0.325972 0)
(10.4063 0.854999 0)
(10.3902 -0.34986 0)
(10.5801 0.906793 0)
(10.4709 -0.493921 0)
(10.7015 0.89291 0)
(10.5523 -0.686239 0)
(10.8052 0.872715 0)
(10.6441 -0.935214 0)
(10.8809 0.823891 0)
(10.7356 -1.23276 0)
(10.9079 0.671478 0)
(10.7541 -1.67268 0)
(10.723 0.519872 0)
(10.4926 -2.47412 0)
(8.89357 0.981005 0)
(9.96384 -0.48395 0)
(10.0854 0.80221 0)
(10.0201 -0.583394 0)
(10.5353 1.02138 0)
(10.3109 -0.604456 0)
(10.6749 1.07495 0)
(10.4402 -0.724908 0)
(10.7774 1.04816 0)
(10.571 -0.89003 0)
(10.8572 1.00367 0)
(10.7115 -1.11779 0)
(10.8988 0.921136 0)
(10.8319 -1.395 0)
(10.8741 0.734828 0)
(10.8222 -1.76099 0)
(10.6022 0.505797 0)
(10.5206 -2.06896 0)
(9.34999 0.586477 0)
(10.0235 -0.391371 0)
(10.1389 0.648648 0)
(10.0425 -0.511985 0)
(10.5101 0.878008 0)
(10.3335 -0.456536 0)
(10.6213 0.869236 0)
(10.4819 -0.493677 0)
(10.6978 0.778284 0)
(10.629 -0.572207 0)
(10.7341 0.657972 0)
(10.7635 -0.695431 0)
(10.7179 0.49565 0)
(10.8402 -0.845091 0)
(10.6182 0.264185 0)
(10.7653 -1.03231 0)
(10.2823 0.0703978 0)
(10.4792 -1.05301 0)
(9.62324 0.124312 0)
(10.2067 -0.0329038 0)
(10.1409 0.699995 0)
(10.0707 -0.691909 0)
(10.4524 0.902473 0)
(10.2985 -0.618914 0)
(10.5373 0.847622 0)
(10.4302 -0.645512 0)
(10.6031 0.735273 0)
(10.5606 -0.707392 0)
(10.6271 0.586791 0)
(10.6604 -0.791246 0)
(10.609 0.383153 0)
(10.6812 -0.869271 0)
(10.5268 0.117075 0)
(10.5709 -0.922077 0)
(10.2914 -0.113767 0)
(10.3608 -0.765017 0)
(10.0197 -0.154176 0)
(10.2455 -0.125158 0)
(10.0968 0.468066 0)
(10.1509 -0.495182 0)
(10.3536 0.595793 0)
(10.2934 -0.374703 0)
(10.4202 0.527601 0)
(10.4093 -0.354877 0)
(10.4847 0.418961 0)
(10.5239 -0.374291 0)
(10.513 0.27581 0)
(10.5993 -0.414761 0)
(10.5156 0.0933951 0)
(10.597 -0.461733 0)
(10.4766 -0.103246 0)
(10.4995 -0.500175 0)
(10.3571 -0.23205 0)
(10.3645 -0.405657 0)
(10.2659 -0.219774 0)
(10.3738 -0.11021 0)
(10.0501 0.411018 0)
(10.1755 -0.487281 0)
(10.2548 0.437226 0)
(10.2379 -0.36752 0)
(10.3087 0.367401 0)
(10.3306 -0.345586 0)
(10.3792 0.250902 0)
(10.4246 -0.3553 0)
(10.4226 0.0995111 0)
(10.4823 -0.374878 0)
(10.4462 -0.0796728 0)
(10.4818 -0.403403 0)
(10.4329 -0.246651 0)
(10.4261 -0.431234 0)
(10.3772 -0.339171 0)
(10.3686 -0.392612 0)
(10.3571 -0.320501 0)
(10.4223 -0.276486 0)
(10.0153 0.199667 0)
(10.1907 -0.285854 0)
(10.1932 0.167377 0)
(10.2051 -0.179343 0)
(10.2292 0.131718 0)
(10.2791 -0.171404 0)
(10.3061 0.0472945 0)
(10.3625 -0.197809 0)
(10.3659 -0.0586621 0)
(10.4141 -0.23575 0)
(10.4054 -0.175977 0)
(10.4267 -0.286444 0)
(10.4123 -0.274971 0)
(10.4112 -0.331655 0)
(10.3995 -0.324111 0)
(10.4066 -0.337181 0)
(10.4109 -0.316003 0)
(10.4698 -0.304823 0)
(9.99662 0.0971593 0)
(10.1444 -0.185874 0)
(10.1463 0.0217056 0)
(10.15 -0.133659 0)
(10.1621 -0.008584 0)
(10.2089 -0.146152 0)
(10.2409 -0.0769141 0)
(10.2919 -0.186718 0)
(10.3109 -0.159364 0)
(10.3485 -0.23795 0)
(10.3575 -0.244769 0)
(10.379 -0.298302 0)
(10.3805 -0.31627 0)
(10.3938 -0.350067 0)
(10.3959 -0.361011 0)
(10.4185 -0.380185 0)
(10.4238 -0.381046 0)
(10.4789 -0.387247 0)
(9.99367 0.0155458 0)
(10.106 -0.0857778 0)
(10.1088 -0.0442755 0)
(10.1138 -0.0932321 0)
(10.1188 -0.0748447 0)
(10.1674 -0.118919 0)
(10.198 -0.120574 0)
(10.2518 -0.16382 0)
(10.274 -0.180552 0)
(10.3153 -0.219151 0)
(10.3278 -0.243923 0)
(10.3597 -0.277817 0)
(10.3659 -0.301335 0)
(10.3939 -0.329007 0)
(10.3995 -0.346997 0)
(10.4329 -0.370811 0)
(10.4356 -0.383803 0)
(10.4884 -0.397036 0)
(9.99179 0.00479913 0)
(10.0636 -0.0251119 0)
(10.0567 -0.0348686 0)
(10.0678 -0.0664303 0)
(10.0778 -0.0756696 0)
(10.128 -0.0997284 0)
(10.1573 -0.11591 0)
(10.211 -0.144682 0)
(10.2337 -0.168959 0)
(10.2782 -0.199566 0)
(10.292 -0.226565 0)
(10.33 -0.257047 0)
(10.3384 -0.283338 0)
(10.3731 -0.312082 0)
(10.3788 -0.336842 0)
(10.4153 -0.365583 0)
(10.4147 -0.388106 0)
(10.4635 -0.40754 0)
(9.99158 0.0142051 0)
(10.0467 0.0162147 0)
(10.0399 -0.0105282 0)
(10.0576 -0.0376394 0)
(10.0748 -0.0564922 0)
(10.1255 -0.0778192 0)
(10.1554 -0.0988344 0)
(10.2071 -0.123801 0)
(10.2311 -0.148977 0)
(10.2753 -0.176623 0)
(10.2911 -0.203432 0)
(10.3292 -0.23217 0)
(10.3394 -0.259385 0)
(10.3737 -0.28834 0)
(10.3801 -0.315676 0)
(10.4141 -0.345755 0)
(10.4133 -0.371622 0)
(10.4567 -0.393457 0)
(9.99166 0.0329613 0)
(10.0502 0.0496977 0)
(10.0566 0.00997713 0)
(10.0799 -0.0180398 0)
(10.1006 -0.0402065 0)
(10.1506 -0.0614534 0)
(10.1818 -0.0835907 0)
(10.2315 -0.106398 0)
(10.2562 -0.130546 0)
(10.2984 -0.155518 0)
(10.315 -0.18109 0)
(10.3507 -0.207346 0)
(10.3614 -0.233588 0)
(10.3926 -0.260446 0)
(10.399 -0.287074 0)
(10.4287 -0.315339 0)
(10.4281 -0.34108 0)
(10.4653 -0.362874 0)
(9.98988 0.0407527 0)
(10.0547 0.052725 0)
(10.0828 -0.00627945 0)
(10.1167 -0.0406186 0)
(10.1419 -0.0640734 0)
(10.1903 -0.0822318 0)
(10.2223 -0.102072 0)
(10.269 -0.120993 0)
(10.2935 -0.142742 0)
(10.332 -0.163995 0)
(10.3483 -0.187415 0)
(10.3801 -0.210108 0)
(10.3904 -0.23442 0)
(10.4173 -0.257946 0)
(10.4228 -0.282821 0)
(10.4473 -0.307865 0)
(10.4461 -0.332505 0)
(10.4768 -0.352916 0)
(9.99051 0.0316251 0)
(10.0685 0.022073 0)
(10.1261 -0.0556959 0)
(10.1769 -0.0967191 0)
(10.2125 -0.119755 0)
(10.2609 -0.132726 0)
(10.2937 -0.147773 0)
(10.3361 -0.161664 0)
(10.3601 -0.179849 0)
(10.3941 -0.19694 0)
(10.4103 -0.217389 0)
(10.4377 -0.236277 0)
(10.4478 -0.258028 0)
(10.4701 -0.278102 0)
(10.4753 -0.30079 0)
(10.4946 -0.322421 0)
(10.4939 -0.345282 0)
(10.5187 -0.363576 0)
(9.99117 0.00990599 0)
(10.092 -0.0296589 0)
(10.187 -0.120796 0)
(10.2595 -0.162738 0)
(10.3093 -0.181104 0)
(10.359 -0.187147 0)
(10.3929 -0.196034 0)
(10.4304 -0.204375 0)
(10.4542 -0.218122 0)
(10.4836 -0.230763 0)
(10.5001 -0.247624 0)
(10.5232 -0.262659 0)
(10.5337 -0.281372 0)
(10.5517 -0.298066 0)
(10.5572 -0.318131 0)
(10.5718 -0.336474 0)
(10.5723 -0.357061 0)
(10.592 -0.37321 0)
(9.99278 -0.0233309 0)
(10.1275 -0.103551 0)
(10.2671 -0.204877 0)
(10.3665 -0.241555 0)
(10.4319 -0.250781 0)
(10.4835 -0.248377 0)
(10.5183 -0.250894 0)
(10.5517 -0.253702 0)
(10.5753 -0.262986 0)
(10.6012 -0.271352 0)
(10.6181 -0.284685 0)
(10.6378 -0.296313 0)
(10.6486 -0.312131 0)
(10.6631 -0.325895 0)
(10.6691 -0.343437 0)
(10.6801 -0.358894 0)
(10.6813 -0.377213 0)
(10.6968 -0.391372 0)
(9.99046 -0.0715696 0)
(10.1744 -0.201128 0)
(10.3679 -0.305434 0)
(10.5001 -0.327844 0)
(10.5805 -0.322553 0)
(10.6343 -0.310189 0)
(10.6689 -0.305575 0)
(10.6997 -0.302573 0)
(10.7226 -0.306717 0)
(10.746 -0.310604 0)
(10.7624 -0.319932 0)
(10.7794 -0.328083 0)
(10.7895 -0.340624 0)
(10.8006 -0.351407 0)
(10.8055 -0.366007 0)
(10.8124 -0.378575 0)
(10.8122 -0.39414 0)
(10.8222 -0.406102 0)
(9.99201 -0.136334 0)
(10.2447 -0.322969 0)
(10.5027 -0.418974 0)
(10.6712 -0.417606 0)
(10.7627 -0.394156 0)
(10.8175 -0.371094 0)
(10.8494 -0.358934 0)
(10.8771 -0.350585 0)
(10.896 -0.350106 0)
(10.9148 -0.350512 0)
(10.9253 -0.356407 0)
(10.9355 -0.361547 0)
(10.9374 -0.370855 0)
(10.9393 -0.378724 0)
(10.9339 -0.389928 0)
(10.9291 -0.39952 0)
(10.9163 -0.411449 0)
(10.9115 -0.420608 0)
(9.98975 -0.219897 0)
(10.3369 -0.468106 0)
(10.6737 -0.539718 0)
(10.8757 -0.508208 0)
(10.9697 -0.464843 0)
(11.0134 -0.428057 0)
(11.0285 -0.40481 0)
(11.0352 -0.388388 0)
(11.029 -0.38143 0)
(11.0194 -0.376985 0)
(10.9979 -0.378205 0)
(10.9734 -0.379119 0)
(10.9376 -0.383848 0)
(10.8998 -0.387333 0)
(10.8521 -0.393705 0)
(10.804 -0.399035 0)
(10.746 -0.405362 0)
(10.6943 -0.410146 0)
(9.9833 -0.332056 0)
(10.4676 -0.642296 0)
(10.8829 -0.667092 0)
(11.0724 -0.602636 0)
(11.1029 -0.537194 0)
(11.0583 -0.483126 0)
(10.9742 -0.444991 0)
(10.8731 -0.416237 0)
(10.7576 -0.398029 0)
(10.6349 -0.383294 0)
(10.5034 -0.374918 0)
(10.3664 -0.366366 0)
(10.2239 -0.362488 0)
(10.0772 -0.357043 0)
(9.92835 -0.3559 0)
(9.77673 -0.353313 0)
(9.62552 -0.35302 0)
(9.47555 -0.351189 0)
(10.0025 -0.453659 0)
(10.619 -0.818945 0)
(10.9016 -0.752069 0)
(10.7932 -0.623756 0)
(10.4937 -0.512548 0)
(10.1376 -0.429203 0)
(9.77002 -0.373579 0)
(9.41747 -0.334738 0)
(9.07662 -0.307311 0)
(8.75523 -0.28463 0)
(8.4462 -0.267677 0)
(8.15305 -0.251358 0)
(7.87225 -0.24007 0)
(7.60262 -0.227369 0)
(7.34776 -0.221165 0)
(7.09818 -0.211855 0)
(6.8697 -0.210887 0)
(6.64022 -0.204212 0)
(10.0974 -0.750783 0)
(10.0458 -1.01319 0)
(9.42491 -0.80109 0)
(8.51437 -0.572185 0)
(7.6549 -0.378727 0)
(6.92871 -0.244884 0)
(6.32711 -0.167525 0)
(5.83135 -0.126256 0)
(5.40888 -0.104712 0)
(5.04825 -0.0923326 0)
(4.72813 -0.0849738 0)
(4.44735 -0.0793634 0)
(4.19091 -0.0758201 0)
(3.96199 -0.071902 0)
(3.75024 -0.072146 0)
(3.55504 -0.0690945 0)
(3.38279 -0.0802806 0)
(3.21786 -0.0828754 0)
(8.51677 -0.43606 0)
(6.11026 -0.380894 0)
(4.29831 -0.138059 0)
(3.12381 -0.0213933 0)
(2.48101 0.0191294 0)
(2.12038 0.0224683 0)
(1.89612 0.0137093 0)
(1.73479 0.00461109 0)
(1.59874 -0.0015726 0)
(1.47798 -0.00479376 0)
(1.36587 -0.00640703 0)
(1.2637 -0.00672119 0)
(1.16801 -0.00670853 0)
(1.08127 -0.00639043 0)
(0.99923 -0.00665865 0)
(0.918983 -0.0070356 0)
(0.851469 -0.0186134 0)
(0.730923 -0.00614247 0)
(-0.0520121 0.137885 0)
(-0.156917 0.0713789 0)
(-0.206741 0.0162797 0)
(-0.194733 -0.0445371 0)
(-0.11732 -0.0992444 0)
(0.0130189 -0.145258 0)
(0.1872 -0.175775 1.11353e-17)
(0.389059 -0.193706 -1.10603e-17)
(0.607375 -0.198065 0)
(0.829818 -0.192766 -1.09172e-17)
(1.047 -0.17839 0)
(1.24995 -0.157585 0)
(1.43209 -0.130908 0)
(1.58817 -0.10151 1.06426e-17)
(1.71552 -0.0702247 0)
(1.81138 -0.038125 0)
(1.87487 -0.0059462 -1.04454e-17)
(1.90673 0.0243409 0)
(1.90863 0.0508158 0)
(1.88264 0.0725303 0)
(1.83248 0.0894643 1.01961e-17)
(1.76072 0.100971 0)
(1.67131 0.108794 1.00742e-17)
(1.56596 0.111637 0)
(1.4493 0.109669 0)
(1.32408 0.107944 9.89549e-18)
(1.19056 0.111181 0)
(1.04796 0.11627 -9.77917e-18)
(0.899473 0.121509 0)
(0.745666 0.12656 9.66429e-18)
(0.588072 0.130579 0)
(0.428955 0.133051 0)
(0.270563 0.134217 0)
(0.113381 0.134004 0)
(-0.042285 0.131124 0)
(-0.194362 0.126443 -9.32966e-18)
(-0.341201 0.120332 0)
(-0.482389 0.113828 1.84407e-17)
(-0.616481 0.107333 0)
(-0.743039 0.100116 -1.82217e-17)
(-0.860591 0.0931126 0)
(-0.969292 0.0863761 0)
(-1.06958 0.0786527 1.78885e-17)
(-1.16098 0.07029 0)
(-1.24411 0.0625674 1.76652e-17)
(-1.31904 0.0553089 -1.75532e-17)
(-1.38526 0.0482956 0)
(-1.44364 0.0422395 -1.73282e-17)
(-1.49526 0.0369073 -1.72152e-17)
(-1.53911 0.0332241 0)
(-1.57537 0.0316262 0)
(-1.60593 0.0316018 0)
(-1.63291 0.0316925 0)
(-1.6573 0.0316612 0)
(-1.6805 0.0325167 1.65281e-17)
(-1.70433 0.0340502 0)
(-1.73014 0.0362762 -1.62988e-17)
(-1.75666 0.038314 0)
(-1.78269 0.0389477 0)
(-1.80821 0.0395724 1.59524e-17)
(-1.83394 0.0413603 0)
(-1.86175 0.0425879 -1.57211e-17)
(-1.89155 0.0442389 0)
(-1.92315 0.04573 0)
(-1.95612 0.0465976 0)
(-1.98986 0.0478019 1.52555e-17)
(-2.02405 0.0496283 0)
(-2.05892 0.0518432 0)
(-2.09427 0.0542443 1.49058e-17)
(-2.1304 0.0557122 0)
(-2.16433 0.0559589 1.46711e-17)
(-2.19518 0.0563496 0)
(-2.22283 0.0565485 0)
(-2.24626 0.0563921 0)
(-2.26452 0.0557992 -1.4205e-17)
(-2.27688 0.0545793 0)
(-2.28403 0.0538632 0)
(-2.28788 0.0538016 -1.38612e-17)
(-2.28887 0.0528473 -1.37478e-17)
(-2.28527 0.0512029 0)
(-2.27529 0.0489479 -1.35225e-17)
(-2.25878 0.046029 0)
(-2.23535 0.0428697 -2.6602e-17)
(-2.20498 0.0394306 0)
(-2.16821 0.0357459 -2.61666e-17)
(-2.12488 0.0326843 0)
(-2.07603 0.0302787 2.57377e-17)
(-2.02253 0.0283106 0)
(-1.96447 0.0268789 0)
(-1.90248 0.0259193 0)
(-1.83811 0.0253404 -2.49006e-17)
(-1.77112 0.0250849 0)
(-1.70311 0.0250478 2.44988e-17)
(-1.63412 0.0256354 0)
(-1.56487 0.0266834 -2.41095e-17)
(-1.49734 0.029227 -2.39209e-17)
(-1.43067 0.0303849 -2.37366e-17)
(-1.36392 0.0314594 0)
(-1.29899 0.0315311 0)
(-1.23468 0.0327163 0)
(-1.16914 0.0334776 0)
(-1.10451 0.0330726 0)
(-1.03491 0.0319413 0)
(-0.966306 0.033251 0)
(-0.895533 0.0328729 0)
(-0.828623 0.0352214 2.22127e-17)
(-0.761384 0.0357248 2.20605e-17)
(-0.699161 0.0401197 0)
(-0.638615 0.0414121 0)
(-0.5831 0.0411127 0)
(-0.51575 0.0385027 2.14804e-17)
(-0.453656 0.0426389 0)
(-0.384792 0.0407998 0)
(-0.319975 0.0437185 0)
(-0.249148 0.0406579 0)
(-0.176254 0.043148 -2.08061e-17)
(-0.101235 0.0447283 0)
(-0.0206966 0.0437656 0)
(0.0645569 0.045035 2.04291e-17)
(0.153684 0.0449719 -2.03075e-17)
(0.24586 0.0442858 0)
(0.342646 0.0481618 -2.00748e-17)
(0.434588 0.0511923 0)
(0.527466 0.0544445 1.98483e-17)
(0.610154 0.0591391 0)
(0.681815 0.0621453 0)
(0.757201 0.062473 0)
(0.826508 0.063263 0)
(0.90592 0.0604594 0)
(0.979369 0.061025 -3.83966e-17)
(1.05477 0.062722 -3.81776e-17)
(1.11436 0.0676532 0)
(1.1643 0.0664538 0)
(1.2093 0.0674117 0)
(1.24705 0.063389 3.72528e-17)
(1.29598 0.0586696 0)
(1.34627 0.0570373 0)
(1.3919 0.0558929 0)
(1.44068 0.0540517 3.62323e-17)
(1.47771 0.0567563 -3.59642e-17)
(1.52067 0.052675 0)
(1.55974 0.0527119 0)
(1.60117 0.0531625 -3.51494e-17)
(1.62722 0.0582785 -3.48766e-17)
(1.65704 0.0549756 0)
(1.68534 0.0587562 0)
(1.72428 0.0557371 3.40436e-17)
(1.76056 0.0659818 -3.37642e-17)
(1.76874 0.071378 0)
(1.7822 0.0707652 0)
(1.80749 0.0710878 -3.29274e-17)
(1.84067 0.0758581 0)
(1.85421 0.0833954 0)
(1.86561 0.0891542 -3.20834e-17)
(1.86488 0.09328 0)
(1.87904 0.0981419 -3.15234e-17)
(1.88095 0.105105 0)
(1.88663 0.10918 0)
(1.87379 0.120724 0)
(1.86046 0.126595 3.04342e-17)
(1.84546 0.133074 0)
(1.81367 0.142914 0)
(1.74164 0.15459 0)
(1.665 0.154534 0)
(1.60039 0.156718 0)
(1.5112 0.165569 0)
(1.38335 0.172436 2.88935e-17)
(1.26429 0.173804 2.87396e-17)
(1.08017 0.181813 0)
(0.873159 0.184483 0)
(0.630081 0.183445 0)
(0.414251 0.169736 -2.83221e-17)
(0.192537 0.162656 0)
(0.040896 0.146479 5.63492e-17)
(-0.159535 0.143924 -5.62396e-17)
(-0.262875 0.123698 -5.60602e-17)
(-0.424454 0.126743 5.5956e-17)
(-0.459599 0.0965848 -5.57535e-17)
(-0.617083 0.129108 5.57334e-17)
(-0.564767 -0.0040442 0)
(0.0101181 0.248623 0)
(0.0146497 0.191687 0)
(0.0498725 0.00733919 -2.2796e-17)
(0.121313 -0.198772 0)
(0.236315 -0.384718 2.23647e-17)
(0.388685 -0.536062 2.2218e-17)
(0.569879 -0.644875 1.10436e-17)
(0.769781 -0.710749 1.09812e-17)
(0.977087 -0.737287 0)
(1.18124 -0.730931 1.08541e-17)
(1.37357 -0.694997 0)
(1.5468 -0.636589 0)
(1.69693 -0.56184 -2.13199e-17)
(1.81924 -0.477265 -1.05947e-17)
(1.91368 -0.385199 2.10554e-17)
(1.97847 -0.290524 2.09219e-17)
(2.01494 -0.198107 1.03954e-17)
(2.02322 -0.110009 0)
(2.00574 -0.0269738 0)
(1.96249 0.0477401 0)
(1.89736 0.113162 1.01364e-17)
(1.81041 0.172186 0)
(1.70634 0.224948 -3.00368e-17)
(1.58396 0.267612 0)
(1.4456 0.302416 0)
(1.29178 0.332819 -9.83175e-18)
(1.12598 0.356631 0)
(0.95094 0.373782 9.71544e-18)
(0.770505 0.384723 1.93125e-17)
(0.58555 0.391904 -9.59748e-18)
(0.39885 0.393972 0)
(0.211671 0.3902 0)
(0.0236911 0.382961 0)
(-0.164628 0.376042 1.87311e-17)
(-0.351526 0.367493 1.86167e-17)
(-0.535721 0.355258 9.25135e-18)
(-0.714471 0.340557 0)
(-0.88827 0.323572 -1.82764e-17)
(-1.05318 0.303122 0)
(-1.21144 0.281271 1.8051e-17)
(-1.36142 0.258793 0)
(-1.50477 0.235947 0)
(-1.63994 0.215507 -1.77168e-17)
(-1.76788 0.196364 0)
(-1.89105 0.17837 -5.24871e-17)
(-2.00851 0.159556 1.73859e-17)
(-2.11937 0.140608 0)
(-2.22322 0.123716 1.71656e-17)
(-2.32092 0.106115 1.70554e-17)
(-2.41123 0.0866075 0)
(-2.49231 0.0676925 0)
(-2.56628 0.0531565 0)
(-2.63501 0.0436766 0)
(-2.70044 0.0387832 0)
(-2.762 0.0373446 -1.63737e-17)
(-2.82166 0.0367992 -3.25153e-17)
(-2.87976 0.0368278 1.61415e-17)
(-2.93344 0.0342067 0)
(-2.98484 0.0302438 -3.1813e-17)
(-3.03407 0.0288991 1.57875e-17)
(-3.08048 0.0298668 0)
(-3.1279 0.030785 1.55499e-17)
(-3.17312 0.0334703 0)
(-3.21635 0.0348849 0)
(-3.25795 0.0344301 3.03753e-17)
(-3.29857 0.0337804 -1.50673e-17)
(-3.33466 0.0316996 2.98917e-17)
(-3.3682 0.0289119 -2.96504e-17)
(-3.39575 0.0251938 -1.47046e-17)
(-3.42012 0.0203464 0)
(-3.43809 0.0127677 -1.44628e-17)
(-3.44934 0.00258031 0)
(-3.4549 -0.00811229 0)
(-3.45207 -0.0205855 0)
(-3.44006 -0.0347713 -1.39829e-17)
(-3.41983 -0.0487472 0)
(-3.39311 -0.0588607 -2.74948e-17)
(-3.36062 -0.0659655 4.08937e-17)
(-3.32279 -0.0744337 1.35161e-17)
(-3.27872 -0.0854358 0)
(-3.22678 -0.0980901 1.32876e-17)
(-3.16959 -0.110715 0)
(-3.1068 -0.122727 2.61236e-17)
(-3.03888 -0.133705 0)
(-2.96599 -0.144162 2.56805e-17)
(-2.88802 -0.153492 -5.09211e-17)
(-2.80615 -0.162363 -2.52466e-17)
(-2.72191 -0.170296 0)
(-2.63269 -0.177809 0)
(-2.54128 -0.183414 0)
(-2.44768 -0.187577 2.44063e-17)
(-2.3508 -0.191616 0)
(-2.2527 -0.1943 -2.40001e-17)
(-2.15463 -0.194655 0)
(-2.05599 -0.196198 7.0819e-17)
(-1.95748 -0.195454 2.34162e-17)
(-1.8584 -0.196404 2.32301e-17)
(-1.76151 -0.19356 0)
(-1.66702 -0.192972 0)
(-1.57196 -0.193887 0)
(-1.47436 -0.194584 0)
(-1.37771 -0.197026 0)
(-1.27542 -0.201333 4.43208e-17)
(-1.17943 -0.199505 4.39849e-17)
(-1.08006 -0.199612 0)
(-0.993049 -0.193923 -2.16749e-17)
(-0.897102 -0.194843 -2.15228e-17)
(-0.810333 -0.188131 0)
(-0.715933 -0.187039 -4.24434e-17)
(-0.637783 -0.186272 0)
(-0.541577 -0.196552 2.09379e-17)
(-0.455884 -0.190765 0)
(-0.350304 -0.199195 0)
(-0.255777 -0.195744 -4.10582e-17)
(-0.142561 -0.204599 0)
(-0.0383148 -0.204736 2.02725e-17)
(0.0871943 -0.212572 0)
(0.213936 -0.220324 0)
(0.350461 -0.224943 1.98872e-17)
(0.491755 -0.229577 1.97708e-17)
(0.637846 -0.23517 0)
(0.787868 -0.235779 -1.95335e-17)
(0.94801 -0.236924 0)
(1.10771 -0.228838 1.92968e-17)
(1.27294 -0.219215 3.83634e-17)
(1.42107 -0.212725 0)
(1.57804 -0.213696 0)
(1.72305 -0.213598 0)
(1.8825 -0.215052 0)
(2.02911 -0.210075 3.72311e-17)
(2.18311 -0.206706 1.11009e-16)
(2.31906 -0.187528 0)
(2.44255 -0.18284 0)
(2.56148 -0.172836 0)
(2.66687 -0.175004 -3.60803e-17)
(2.76989 -0.179709 0)
(2.87147 -0.179041 0)
(2.96705 -0.177275 7.0616e-17)
(3.06101 -0.176409 3.50335e-17)
(3.13471 -0.170228 3.47646e-17)
(3.22168 -0.179614 0)
(3.28536 -0.173619 0)
(3.35334 -0.17502 3.39202e-17)
(3.39933 -0.164004 -3.36145e-17)
(3.44514 -0.178132 0)
(3.47432 -0.174748 0)
(3.50858 -0.190886 -3.27219e-17)
(3.53643 -0.173016 9.71895e-17)
(3.55091 -0.16874 0)
(3.5613 -0.179614 0)
(3.57254 -0.19132 3.14604e-17)
(3.59296 -0.189216 0)
(3.5886 -0.182785 6.16274e-17)
(3.58652 -0.180911 -3.04727e-17)
(3.55919 -0.18534 0)
(3.55513 -0.194291 2.98466e-17)
(3.53084 -0.190731 5.90586e-17)
(3.5193 -0.192265 0)
(3.47261 -0.185461 0)
(3.44864 -0.194346 -2.85762e-17)
(3.40843 -0.186449 0)
(3.35117 -0.16937 5.58919e-17)
(3.25426 -0.150073 0)
(3.1626 -0.155439 0)
(3.04435 -0.147485 0)
(2.9166 -0.122149 0)
(2.72247 -0.102674 -2.66551e-17)
(2.56354 -0.075713 -2.64659e-17)
(2.27925 -0.0262489 0)
(2.00603 -0.00142322 0)
(1.67664 0.0227596 0)
(1.38183 0.0188311 2.59607e-17)
(1.04888 0.0231129 0)
(0.841827 0.0140276 -5.16736e-17)
(0.521329 0.0330592 5.16464e-17)
(0.406543 0.00131007 5.14975e-17)
(0.125277 0.032074 5.14875e-17)
(0.125565 -0.0159362 5.13348e-17)
(-0.170658 0.078812 5.1498e-17)
(0.0161716 -0.117215 0)
(0.0290147 0.0710015 0)
(0.121081 -0.038738 0)
(0.228124 -0.242071 2.2913e-17)
(0.340218 -0.46888 2.26644e-17)
(0.474646 -0.693362 -2.25129e-17)
(0.618721 -0.875176 -2.24002e-17)
(0.772898 -1.00377 -1.48167e-21)
(0.924148 -1.074 0)
(1.06922 -1.08471 0)
(1.19593 -1.04545 0)
(1.30462 -0.965452 0)
(1.39047 -0.855988 0)
(1.45591 -0.725326 6.47122e-17)
(1.4964 -0.584989 0)
(1.5148 -0.440044 -2.1305e-17)
(1.50931 -0.293476 -2.11687e-17)
(1.4828 -0.151963 0)
(1.43387 -0.0183782 0)
(1.36715 0.105536 0)
(1.28242 0.218002 0)
(1.18199 0.317251 -2.05025e-17)
(1.06674 0.400131 0)
(0.941677 0.472303 2.02485e-17)
(0.804064 0.537199 0)
(0.656791 0.591854 0)
(0.501211 0.63659 0)
(0.342704 0.672363 3.95251e-17)
(0.180258 0.699396 0)
(0.0163752 0.718682 -1.95224e-17)
(-0.148497 0.728975 3.88001e-17)
(-0.312619 0.732045 0)
(-0.478992 0.733676 0)
(-0.645568 0.730606 0)
(-0.810969 0.721132 -1.89167e-17)
(-0.972757 0.705976 -1.8796e-17)
(-1.13133 0.68458 0)
(-1.28509 0.657322 0)
(-1.43321 0.6258 3.68595e-17)
(-1.57431 0.591718 3.66198e-17)
(-1.71364 0.557315 -3.63815e-17)
(-1.84792 0.524526 0)
(-1.98037 0.490949 0)
(-2.10718 0.458715 0)
(-2.23028 0.429283 0)
(-2.34915 0.401545 3.52007e-17)
(-2.462 0.372236 3.4967e-17)
(-2.5697 0.342554 -3.47351e-17)
(-2.6718 0.313986 0)
(-2.76782 0.286061 0)
(-2.85852 0.257039 0)
(-2.94388 0.230198 0)
(-3.02927 0.212392 3.35758e-17)
(-3.10874 0.196484 0)
(-3.18317 0.183275 0)
(-3.2511 0.175477 3.28782e-17)
(-3.31435 0.170297 3.26466e-17)
(-3.37223 0.163402 0)
(-3.42248 0.154021 -6.43599e-17)
(-3.4708 0.147138 3.19486e-17)
(-3.51515 0.140697 -3.17142e-17)
(-3.55374 0.136933 0)
(-3.5894 0.134247 0)
(-3.61905 0.13009 0)
(-3.64379 0.125876 0)
(-3.66597 0.120662 -3.05526e-17)
(-3.68387 0.113258 -6.06461e-17)
(-3.69551 0.105296 -3.00974e-17)
(-3.70342 0.09682 2.98725e-17)
(-3.70415 0.0852006 0)
(-3.69979 0.0719457 -5.88394e-17)
(-3.68744 0.0558707 -5.83908e-17)
(-3.6698 0.0397088 -5.79458e-17)
(-3.64793 0.0219284 5.75038e-17)
(-3.61724 -0.000336162 0)
(-3.57962 -0.0229897 8.494e-17)
(-3.53616 -0.0424285 0)
(-3.48796 -0.0578276 -2.78771e-17)
(-3.4312 -0.0715278 -2.76642e-17)
(-3.36649 -0.0870134 0)
(-3.29566 -0.10368 0)
(-3.22135 -0.120271 -5.404e-17)
(-3.14485 -0.135013 0)
(-3.06439 -0.149141 -5.3193e-17)
(-2.9814 -0.162704 0)
(-2.89387 -0.177014 5.23543e-17)
(-2.80283 -0.188334 1.03881e-16)
(-2.70809 -0.198058 0)
(-2.61251 -0.20722 0)
(-2.5139 -0.214673 0)
(-2.41661 -0.220786 5.029e-17)
(-2.31758 -0.226599 0)
(-2.2153 -0.2313 4.9468e-17)
(-2.11017 -0.23459 0)
(-2.00461 -0.233833 0)
(-1.89663 -0.233962 -9.65031e-17)
(-1.79142 -0.231472 0)
(-1.68429 -0.230872 -4.74604e-17)
(-1.5814 -0.224768 0)
(-1.47428 -0.225497 -4.66927e-17)
(-1.36799 -0.224753 0)
(-1.25946 -0.223942 0)
(-1.15227 -0.2278 0)
(-1.04219 -0.230156 -1.35689e-16)
(-0.942389 -0.221785 -4.48685e-17)
(-0.833682 -0.218478 0)
(-0.740885 -0.207983 0)
(-0.639391 -0.209456 0)
(-0.554089 -0.197267 0)
(-0.450085 -0.193533 4.32348e-17)
(-0.364302 -0.188373 -8.58346e-17)
(-0.257459 -0.205166 -4.26323e-17)
(-0.170533 -0.197481 8.46565e-17)
(-0.0510229 -0.21369 8.40938e-17)
(0.0507158 -0.209817 4.17609e-17)
(0.180769 -0.225095 0)
(0.29359 -0.225865 8.23963e-17)
(0.432701 -0.242132 0)
(0.565177 -0.25143 -8.12855e-17)
(0.713916 -0.258436 -4.03846e-17)
(0.860593 -0.263133 0)
(1.01597 -0.271485 7.97631e-17)
(1.16557 -0.27441 3.96284e-17)
(1.32826 -0.282394 0)
(1.48748 -0.280213 3.90901e-17)
(1.66161 -0.269664 -1.16509e-16)
(1.82137 -0.257236 0)
(1.98581 -0.256088 0)
(2.13779 -0.255552 0)
(2.29803 -0.258739 0)
(2.4545 -0.254139 -7.51555e-17)
(2.61026 -0.250905 -7.46568e-17)
(2.76138 -0.219797 0)
(2.89918 -0.214052 0)
(3.03011 -0.201789 0)
(3.15174 -0.200463 0)
(3.25892 -0.205637 0)
(3.37865 -0.208604 0)
(3.49204 -0.20771 -7.09525e-17)
(3.60578 -0.205217 -1.65105e-20)
(3.69923 -0.195708 0)
(3.80927 -0.208916 0)
(3.89706 -0.196494 -6.86068e-17)
(3.98999 -0.197236 0)
(4.06806 -0.176359 6.74257e-17)
(4.13784 -0.187364 6.68085e-17)
(4.17902 -0.169986 0)
(4.23349 -0.188506 0)
(4.27142 -0.164496 -6.49002e-17)
(4.3217 -0.155805 -1.28511e-16)
(4.34899 -0.160015 0)
(4.38199 -0.17221 0)
(4.42335 -0.163142 0)
(4.43668 -0.148885 -6.16925e-17)
(4.46502 -0.135694 6.1005e-17)
(4.46436 -0.135361 0)
(4.48377 -0.141501 1.19377e-16)
(4.46749 -0.129593 5.90347e-17)
(4.4844 -0.128076 -1.16777e-16)
(4.46194 -0.109541 0)
(4.46049 -0.116702 0)
(4.43036 -0.0953675 -1.1276e-16)
(4.38957 -0.0677344 -5.5723e-17)
(4.30539 -0.0384712 0)
(4.24231 -0.0369422 0)
(4.11084 -0.0192432 0)
(4.00147 0.0239244 0)
(3.79001 0.0521723 -1.05601e-16)
(3.62162 0.0959282 0)
(3.32348 0.167281 0)
(3.06461 0.191871 0)
(2.71476 0.219415 0)
(2.40117 0.202684 0)
(2.01245 0.186672 0)
(1.77571 0.153607 -1.00648e-16)
(1.37053 0.151054 0)
(1.24181 0.0832266 0)
(0.857672 0.105384 -1.99435e-16)
(0.85318 0.0226309 9.92569e-17)
(0.46806 0.111316 -9.94105e-17)
(0.664044 -0.128352 9.87911e-17)
(0.0206213 -0.0942306 0)
(0.125057 -0.269794 -4.6956e-17)
(0.247782 -0.49046 0)
(0.37566 -0.75583 -2.27967e-17)
(0.502205 -0.999273 0)
(0.618128 -1.18789 0)
(0.722502 -1.30532 2.24455e-17)
(0.802847 -1.34843 0)
(0.865435 -1.3184 0)
(0.904376 -1.23251 0)
(0.926162 -1.10965 0)
(0.928647 -0.96025 0)
(0.916647 -0.792935 -8.6616e-17)
(0.887511 -0.615568 -4.30252e-17)
(0.844738 -0.432582 4.27457e-17)
(0.788064 -0.251319 0)
(0.719539 -0.0784795 0)
(0.637839 0.0830071 0)
(0.546426 0.231728 0)
(0.444818 0.364991 0)
(0.335783 0.482389 -4.11507e-17)
(0.217519 0.584045 -4.0898e-17)
(0.0913592 0.674538 4.06489e-17)
(-0.0405687 0.750324 -4.04012e-17)
(-0.176591 0.812871 0)
(-0.315339 0.860789 0)
(-0.455594 0.896686 -3.9658e-17)
(-0.596192 0.921272 0)
(-0.737713 0.935284 0)
(-0.879765 0.943782 -3.89248e-17)
(-1.0224 0.949182 -3.86816e-17)
(-1.16292 0.946881 -3.84372e-17)
(-1.3004 0.937848 0)
(-1.43461 0.922603 0)
(-1.56418 0.901125 3.76937e-17)
(-1.6887 0.871459 0)
(-1.80924 0.835878 0)
(-1.92615 0.796364 -3.69489e-17)
(-2.04003 0.758331 3.66973e-17)
(-2.15236 0.720201 -3.64485e-17)
(-2.25823 0.681435 0)
(-2.36244 0.642047 0)
(-2.46261 0.605706 -7.14197e-17)
(-2.56003 0.571458 0)
(-2.65212 0.533322 -7.04538e-17)
(-2.74073 0.495196 -1.04963e-16)
(-2.82569 0.459302 1.04242e-16)
(-2.90535 0.42294 -6.90148e-17)
(-2.98181 0.385628 0)
(-3.05566 0.34995 0)
(-3.12906 0.321731 -6.76025e-17)
(-3.1997 0.297202 -3.35708e-17)
(-3.26397 0.271604 0)
(-3.32409 0.250516 0)
(-3.37962 0.235157 -3.28787e-17)
(-3.42972 0.218292 -6.52975e-17)
(-3.47359 0.199327 0)
(-3.51149 0.181397 6.43796e-17)
(-3.54553 0.167002 -6.39205e-17)
(-3.57419 0.153399 6.34647e-17)
(-3.59708 0.139519 0)
(-3.61373 0.126281 0)
(-3.62597 0.115131 0)
(-3.63288 0.103925 0)
(-3.63612 0.0937461 0)
(-3.63395 0.0778616 6.07746e-17)
(-3.62743 0.0606422 0)
(-3.61426 0.0419335 0)
(-3.59531 0.0208779 0)
(-3.57229 -0.00111577 1.18047e-16)
(-3.54375 -0.0251385 5.85913e-17)
(-3.51047 -0.0491846 5.81576e-17)
(-3.47216 -0.0762004 -1.15457e-16)
(-3.42746 -0.1076 5.73033e-17)
(-3.37937 -0.137632 -5.68838e-17)
(-3.32504 -0.165135 0)
(-3.26584 -0.191104 5.60369e-17)
(-3.19675 -0.21774 0)
(-3.12348 -0.242827 0)
(-3.04464 -0.264611 0)
(-2.96433 -0.285273 1.08718e-16)
(-2.88192 -0.304362 -5.39455e-17)
(-2.79624 -0.323315 -5.35321e-17)
(-2.70937 -0.342086 -1.06269e-16)
(-2.61854 -0.361943 -1.58214e-16)
(-2.52676 -0.377755 -5.23427e-17)
(-2.43022 -0.390704 0)
(-2.33402 -0.402148 -1.03069e-16)
(-2.23631 -0.410161 0)
(-2.1387 -0.416361 -1.52202e-16)
(-2.04036 -0.426266 0)
(-1.94316 -0.432686 -1.49828e-16)
(-1.8399 -0.439048 0)
(-1.73617 -0.439749 0)
(-1.6277 -0.441349 -4.87457e-17)
(-1.52067 -0.43806 0)
(-1.41032 -0.437591 4.79712e-17)
(-1.30475 -0.432908 9.51544e-17)
(-1.19131 -0.434592 4.72026e-17)
(-1.0818 -0.436421 9.36476e-17)
(-0.963794 -0.437034 -9.28908e-17)