/*--------------------------------*- C++ -*----------------------------------*\
| =========                 |                                                 |
| \\      /  F ield         | OpenFOAM: The Open Source CFD Toolbox           |
|  \\    /   O peration     | Version:  dev                                   |
|   \\  /    A nd           | Web:      http://www.openfoam.org               |
|    \\/     M anipulation  |                                                 |
\*---------------------------------------------------------------------------*/
FoamFile
{
    version     2.0;
    format      ascii;
    class       volSymmTensorField;
    object      UPrime2Mean;
    location    "9.139";
}
// * * * * * * * * * * * * * * * * * * * * * * * * * * * * * * * * * * * * * //

dimensions      [0 2 -2 0 0 0 0];

internalField   nonuniform List<symmTensor> 
12225
(
(0.329433 0.0192637 0 0.0692637 0 0)
(2.98797 0.0796633 0 0.0781868 0 0)
(7.88512 0.11225 0 0.0768905 0 0)
(14.5431 0.148148 0 0.0755676 0 0)
(22.7164 0.132891 0 0.076512 0 0)
(32.0858 0.200979 0 0.0746708 0 0)
(42.4039 0.0958449 0 0.0766095 0 0)
(53.5533 0.200252 0 0.0738505 0 0)
(65.6532 -0.0285139 0 0.0776092 0 0)
(78.2562 0.125512 0 0.0736201 0 0)
(93.0093 -0.306236 0 0.0813074 0 0)
(107.357 -0.115909 0 0.0769938 0 0)
(127.975 -0.672057 0 0.0863026 0 0)
(145.681 -1.27736 0 0.134735 0 0)
(186.024 -1.41095 0 0.116479 0 0)
(198.592 -0.39298 0 2.39456 0 0)
(272.404 -33.5468 0 5.81007 0 0)
(575.975 -52.9545 0 18.831 0 0)
(0.377628 0.0567791 0 0.688945 0 0)
(3.15803 0.252147 0 0.732235 0 0)
(8.41594 0.361969 0 0.714098 0 0)
(15.4828 0.485204 0 0.706597 0 0)
(24.2117 0.452724 0 0.703456 0 0)
(34.4768 0.632586 0 0.683302 0 0)
(45.5502 0.295801 0 0.692076 0 0)
(58.5128 0.608791 0 0.658775 0 0)
(71.5097 -0.135306 0 0.682601 0 0)
(87.193 0.282438 0 0.64597 0 0)
(102.833 -1.06506 0 0.711251 0 0)
(121.486 -0.766213 0 0.655486 0 0)
(142.915 -2.54244 0 1.06906 0 0)
(166.389 -4.49143 0 1.04708 0 0)
(199.857 -0.924701 0 3.10408 0 0)
(274.5 -9.97548 0 6.61021 0 0)
(281.13 -20.8418 0 8.73855 0 0)
(800.144 -185.234 0 64.7176 0 0)
(0.505238 0.0583176 0 2.1405 0 0)
(3.06583 0.424483 0 2.20242 0 0)
(8.47096 0.57029 0 2.15135 0 0)
(14.8614 0.851611 0 2.14283 0 0)
(24.2897 0.864165 0 2.11974 0 0)
(33.1697 1.05274 0 2.08254 0 0)
(45.2955 0.755919 0 2.07828 0 0)
(56.2332 0.885996 0 2.00752 0 0)
(69.7216 0.17203 0 2.05162 0 0)
(83.4923 0.0164884 0 1.95929 0 0)
(98.2351 -1.12328 0 2.12247 0 0)
(115.722 -2.44884 0 2.0945 0 0)
(138.687 -3.59588 0 2.62246 0 0)
(154.95 -7.19911 0 2.83154 0 0)
(211.11 -13.0126 0 6.12495 0 0)
(223.499 -7.88483 0 6.38032 0 0)
(353.173 -62.2753 0 31.0898 0 0)
(534.802 -192.6 0 98.2938 0 0)
(1.03031 0.0922997 0 4.67029 0 0)
(3.55172 0.619315 0 4.76686 0 0)
(9.07446 0.815518 0 4.64267 0 0)
(15.0752 1.14955 0 4.60192 0 0)
(24.6509 1.31247 0 4.55765 0 0)
(33.0027 1.34938 0 4.4833 0 0)
(45.0308 1.26094 0 4.44833 0 0)
(55.1989 0.972952 0 4.34978 0 0)
(68.6381 0.475462 0 4.38156 0 0)
(80.7579 -0.283407 0 4.25788 0 0)
(96.0872 -1.33131 0 4.50726 0 0)
(110.574 -3.34291 0 4.37238 0 0)
(131.542 -4.79393 0 5.30236 0 0)
(152.332 -10.974 0 5.60905 0 0)
(187.958 -11.428 0 9.2884 0 0)
(238.544 -28.8651 0 16.8299 0 0)
(291.638 -58.9458 0 32.6866 0 0)
(414.99 -178.361 0 107.844 0 0)
(1.86401 0.364964 0 8.52244 0 0)
(5.01084 0.720033 0 8.72397 0 0)
(9.44144 1.13965 0 8.47278 0 0)
(16.2499 1.29409 0 8.36966 0 0)
(24.6634 1.7003 0 8.28007 0 0)
(33.9643 1.50178 0 8.14497 0 0)
(44.8459 1.59719 0 8.04432 0 0)
(55.5524 0.992207 0 7.91221 0 0)
(68.4527 0.599629 0 7.85923 0 0)
(80.164 -0.59489 0 7.76137 0 0)
(95.4226 -1.78017 0 7.96314 0 0)
(108.614 -4.22911 0 7.91035 0 0)
(128.166 -6.88235 0 9.0277 0 0)
(145.297 -12.2897 0 9.26948 0 0)
(174.058 -19.2051 0 14.5919 0 0)
(218.011 -25.9567 0 17.2137 0 0)
(233.801 -55.5915 0 46.2722 0 0)
(326.806 -171.793 0 138.69 0 0)
(2.56327 0.750597 0 14.0395 0 0)
(6.32847 0.80696 0 14.3914 0 0)
(9.30643 1.53949 0 13.9615 0 0)
(17.1065 1.59388 0 13.7668 0 0)
(24.1555 2.11996 0 13.592 0 0)
(34.2859 1.9357 0 13.3601 0 0)
(44.0017 1.99003 0 13.1549 0 0)
(55.2033 1.41417 0 12.9141 0 0)
(67.3664 0.893126 0 12.7775 0 0)
(78.9548 -0.387857 0 12.5766 0 0)
(94.4777 -1.74049 0 12.7771 0 0)
(105.889 -4.31446 0 12.6856 0 0)
(128.18 -7.26972 0 13.9881 0 0)
(138.013 -13.1596 0 14.6686 0 0)
(171.056 -21.8421 0 21.2522 0 0)
(191.586 -33.0474 0 24.6046 0 0)
(211.171 -55.9256 0 51.5826 0 0)
(265.794 -145.704 0 130.666 0 0)
(2.2472 0.721913 0 21.5318 0 0)
(5.54918 0.941172 0 22.148 0 0)
(9.20728 1.76314 0 21.3735 0 0)
(16.3517 2.07688 0 21.1858 0 0)
(23.9895 2.44885 0 20.7871 0 0)
(33.3867 2.54163 0 20.554 0 0)
(43.6403 2.27258 0 20.0856 0 0)
(54.0849 1.92669 0 19.8557 0 0)
(66.5289 0.894614 0 19.4378 0 0)
(77.4104 -0.220262 0 19.2849 0 0)
(92.5762 -2.37484 0 19.225 0 0)
(103.561 -4.82525 0 19.2676 0 0)
(123.717 -8.98538 0 20.4774 0 0)
(134.003 -14.2649 0 21.4558 0 0)
(161.629 -24.4087 0 28.5196 0 0)
(169.475 -32.4202 0 32.0547 0 0)
(203.485 -59.0274 0 56.8731 0 0)
(190.359 -108.809 0 114.179 0 0)
(1.42654 0.598933 0 29.7535 0 0)
(4.32612 1.13463 0 30.6391 0 0)
(8.58984 1.9234 0 29.4916 0 0)
(15.2623 2.47184 0 29.3205 0 0)
(23.2228 2.77603 0 28.6751 0 0)
(32.287 2.96191 0 28.4142 0 0)
(42.4473 2.59615 0 27.6623 0 0)
(52.8232 2.18912 0 27.3818 0 0)
(64.4692 1.00462 0 26.6577 0 0)
(75.6609 -0.366203 0 26.4928 0 0)
(88.7012 -2.7558 0 26.1091 0 0)
(100.489 -5.73915 0 26.334 0 0)
(115.617 -10.3269 0 27.0899 0 0)
(128.147 -15.8054 0 28.6052 0 0)
(144.749 -26.4995 0 33.9192 0 0)
(152.109 -33.4697 0 37.4834 0 0)
(180.425 -54.9125 0 53.1942 0 0)
(139.669 -71.3312 0 83.7176 0 0)
(1.00859 0.521493 0 38.5242 0 0)
(3.78109 1.28755 0 39.7187 0 0)
(8.18559 2.03501 0 38.1811 0 0)
(14.737 2.77857 0 38.04 0 0)
(22.6673 3.00416 0 37.13 0 0)
(31.606 3.31367 0 36.855 0 0)
(41.5302 2.80223 0 35.8038 0 0)
(51.8056 2.47015 0 35.4851 0 0)
(62.8675 1.03464 0 34.4763 0 0)
(73.8867 -0.285872 0 34.2764 0 0)
(85.7104 -3.05137 0 33.6453 0 0)
(97.0727 -5.90982 0 33.9051 0 0)
(109.407 -10.9559 0 34.4138 0 0)
(121.283 -16.0478 0 36.1333 0 0)
(131.299 -25.5728 0 40.0157 0 0)
(138.22 -33.2177 0 44.7447 0 0)
(150.072 -47.3364 0 52.4753 0 0)
(123.27 -58.7702 0 73.1407 0 0)
(0.612598 0.484539 0 49.7102 0 0)
(3.23786 1.44533 0 51.2985 0 0)
(7.74592 2.18546 0 49.2019 0 0)
(14.2063 3.03429 0 49.1145 0 0)
(22.004 3.27116 0 47.8251 0 0)
(30.8659 3.57627 0 47.5458 0 0)
(40.4946 3.06122 0 46.0843 0 0)
(50.6334 2.63214 0 45.7157 0 0)
(61.162 1.15628 0 44.296 0 0)
(71.834 -0.299661 0 44.0525 0 0)
(82.7198 -3.14988 0 43.008 0 0)
(93.2663 -6.04732 0 43.327 0 0)
(103.911 -11.1038 0 43.3271 0 0)
(113.778 -15.8561 0 45.1835 0 0)
(121.39 -24.5178 0 47.6867 0 0)
(125.831 -30.5827 0 51.9566 0 0)
(129.17 -40.7325 0 56.4791 0 0)
(116.062 -48.4035 0 69.0427 0 0)
(0.434422 0.516028 0 63.904 0 0)
(2.98051 1.62659 0 65.9591 0 0)
(7.47322 2.38204 0 63.2672 0 0)
(13.8522 3.30818 0 63.1554 0 0)
(21.5015 3.56663 0 61.5214 0 0)
(30.2028 3.85542 0 61.1069 0 0)
(39.5649 3.35132 0 59.2988 0 0)
(49.4067 2.81249 0 58.7039 0 0)
(59.48 1.36209 0 56.9829 0 0)
(69.5861 -0.276097 0 56.465 0 0)
(79.6847 -2.99206 0 55.1621 0 0)
(89.2223 -6.093 0 55.2178 0 0)
(98.5425 -10.5661 0 54.8715 0 0)
(106.421 -15.4296 0 56.4188 0 0)
(112.588 -22.1459 0 57.8624 0 0)
(115.123 -28.0619 0 61.5916 0 0)
(116.069 -35.2088 0 64.5574 0 0)
(109.615 -40.8081 0 71.4557 0 0)
(0.356493 0.540284 0 81.3964 0 0)
(2.83269 1.74375 0 84.0818 0 0)
(7.26479 2.55292 0 80.614 0 0)
(13.5216 3.49852 0 80.5047 0 0)
(20.9974 3.80507 0 78.4182 0 0)
(29.4786 4.03179 0 77.865 0 0)
(38.5384 3.55442 0 75.5757 0 0)
(48.0105 2.9119 0 74.7509 0 0)
(57.5662 1.47228 0 72.5586 0 0)
(67.0612 -0.232846 0 71.7713 0 0)
(76.2762 -2.8836 0 70.0157 0 0)
(84.8639 -5.86952 0 69.7561 0 0)
(92.7719 -9.97479 0 68.9206 0 0)
(99.2023 -14.3039 0 69.8736 0 0)
(103.918 -19.7513 0 70.5161 0 0)
(105.862 -24.6649 0 73.0196 0 0)
(106.018 -29.8309 0 74.9621 0 0)
(101.772 -33.3158 0 78.6174 0 0)
(0.329383 0.56865 0 102.474 0 0)
(2.73719 1.80522 0 105.683 0 0)
(7.07154 2.68052 0 101.657 0 0)
(13.1601 3.57969 0 101.188 0 0)
(20.4404 3.92862 0 98.9236 0 0)
(28.6265 4.04864 0 97.8439 0 0)
(37.3617 3.60787 0 95.3291 0 0)
(46.3638 2.82514 0 93.8795 0 0)
(55.3941 1.46455 0 91.4427 0 0)
(64.1764 -0.35304 0 89.9915 0 0)
(72.5568 -2.77153 0 87.9643 0 0)
(80.1481 -5.7031 0 86.9898 0 0)
(86.8707 -9.21379 0 85.7775 0 0)
(92.1326 -13.1032 0 85.7842 0 0)
(95.8353 -17.3218 0 85.7337 0 0)
(97.4205 -21.3888 0 86.8749 0 0)
(97.5234 -25.2335 0 87.9016 0 0)
(94.7189 -27.6886 0 89.5056 0 0)
(0.313778 0.572787 0 126.467 0 0)
(2.64179 1.77221 0 130.397 0 0)
(6.85065 2.66453 0 125.687 0 0)
(12.7357 3.45897 0 124.877 0 0)
(19.7739 3.78582 0 122.346 0 0)
(27.626 3.79898 0 120.769 0 0)
(35.9691 3.32473 0 117.886 0 0)
(44.4803 2.4772 0 115.852 0 0)
(52.9186 1.12182 0 112.991 0 0)
(61.0136 -0.641936 0 110.9 0 0)
(68.5639 -2.91031 0 108.408 0 0)
(75.2886 -5.54263 0 106.681 0 0)
(81.0277 -8.59821 0 104.913 0 0)
(85.4778 -11.822 0 103.908 0 0)
(88.5241 -15.1851 0 103.075 0 0)
(89.9622 -18.3529 0 102.9 0 0)
(90.265 -21.2721 0 102.912 0 0)
(88.3021 -22.919 0 103.064 0 0)
(0.299377 0.524266 0 151.883 0 0)
(2.5338 1.57971 0 156.385 0 0)
(6.58637 2.37413 0 151.255 0 0)
(12.2377 2.9832 0 149.816 0 0)
(18.9806 3.20579 0 147.257 0 0)
(26.4612 3.06303 0 144.944 0 0)
(34.3634 2.52198 0 141.855 0 0)
(42.3543 1.58941 0 139.048 0 0)
(50.1927 0.259671 0 135.848 0 0)
(57.6135 -1.44551 0 132.971 0 0)
(64.4279 -3.50752 0 130.018 0 0)
(70.408 -5.84536 0 127.445 0 0)
(75.4232 -8.42244 0 125.041 0 0)
(79.311 -11.0747 0 123.038 0 0)
(82.01 -13.7128 0 121.324 0 0)
(83.4285 -16.1777 0 119.984 0 0)
(84.0114 -18.3762 0 118.893 0 0)
(82.8046 -19.4223 0 117.781 0 0)
(0.284085 0.393476 0 175.105 0 0)
(2.41537 1.14326 0 180.306 0 0)
(6.28609 1.66689 0 174.697 0 0)
(11.6758 1.99801 0 172.814 0 0)
(18.0849 1.99425 0 170.132 0 0)
(25.167 1.65665 0 167.28 0 0)
(32.6012 0.975412 0 163.893 0 0)
(40.0718 -0.0340175 0 160.496 0 0)
(47.3315 -1.36873 0 156.878 0 0)
(54.147 -2.98089 0 153.364 0 0)
(60.3403 -4.84938 0 149.875 0 0)
(65.747 -6.8803 0 146.583 0 0)
(70.2623 -9.03461 0 143.485 0 0)
(73.813 -11.1826 0 140.629 0 0)
(76.3696 -13.2464 0 138.038 0 0)
(77.8965 -15.1459 0 135.711 0 0)
(78.779 -16.7934 0 133.598 0 0)
(78.2307 -17.391 0 131.399 0 0)
(0.268867 0.155625 0 190.216 0 0)
(2.2945 0.388728 0 195.889 0 0)
(5.96952 0.48532 0 189.994 0 0)
(11.0801 0.405601 0 187.851 0 0)
(17.1389 0.0679456 0 185.105 0 0)
(23.8132 -0.541294 0 181.934 0 0)
(30.7856 -1.41118 0 178.354 0 0)
(37.7604 -2.534 0 174.601 0 0)
(44.5017 -3.88412 0 170.688 0 0)
(50.8031 -5.42442 0 166.769 0 0)
(56.5116 -7.11146 0 162.876 0 0)
(61.5056 -8.88013 0 159.095 0 0)
(65.7095 -10.676 0 155.458 0 0)
(69.094 -12.421 0 151.996 0 0)
(71.652 -14.0393 0 148.729 0 0)
(73.3722 -15.5094 0 145.684 0 0)
(74.5678 -16.7454 0 142.791 0 0)
(74.6127 -17.0663 0 139.795 0 0)
(0.25922 -0.143237 0 190.188 0 0)
(2.19698 -0.536621 0 195.82 0 0)
(5.69286 -0.941485 0 189.988 0 0)
(10.5472 -1.49799 0 187.836 0 0)
(16.2903 -2.21957 0 185.132 0 0)
(22.6044 -3.12296 0 181.968 0 0)
(29.1812 -4.1973 0 178.414 0 0)
(35.7479 -5.43686 0 174.663 0 0)
(42.0819 -6.81116 0 170.738 0 0)
(48.0054 -8.29162 0 166.785 0 0)
(53.3823 -9.83145 0 162.81 0 0)
(58.1241 -11.3882 0 158.924 0 0)
(62.1698 -12.9089 0 155.11 0 0)
(65.5132 -14.3503 0 151.446 0 0)
(68.1532 -15.6472 0 147.904 0 0)
(70.0951 -16.8066 0 144.565 0 0)
(71.5724 -17.7531 0 141.316 0 0)
(72.1069 -17.9577 0 137.986 0 0)
(0.256052 -0.397019 0 174.372 0 0)
(2.1378 -1.30851 0 179.323 0 0)
(5.50211 -2.13133 0 173.993 0 0)
(10.1666 -3.08101 0 172.001 0 0)
(15.6762 -4.11054 0 169.519 0 0)
(21.7261 -5.24063 0 166.629 0 0)
(28.0189 -6.46421 0 163.378 0 0)
(34.3 -7.77817 0 159.954 0 0)
(40.3593 -9.15408 0 156.348 0 0)
(46.0401 -10.5721 0 152.719 0 0)
(51.2171 -11.9901 0 149.035 0 0)
(55.822 -13.3818 0 145.428 0 0)
(59.8014 -14.7022 0 141.844 0 0)
(63.1595 -15.9282 0 138.392 0 0)
(65.8942 -17.0082 0 135.008 0 0)
(68.0229 -17.9575 0 131.806 0 0)
(69.7149 -18.7149 0 128.651 0 0)
(70.6127 -18.9023 0 125.451 0 0)
(0.257512 -0.546086 0 148.937 0 0)
(2.11003 -1.7494 0 152.894 0 0)
(5.38769 -2.82603 0 148.358 0 0)
(9.92455 -4.01048 0 146.641 0 0)
(15.2775 -5.21507 0 144.52 0 0)
(21.1504 -6.46482 0 142.066 0 0)
(27.2555 -7.75172 0 139.302 0 0)
(33.3506 -9.0776 0 136.397 0 0)
(39.2358 -10.4151 0 133.325 0 0)
(44.7675 -11.7543 0 130.233 0 0)
(49.8302 -13.057 0 127.076 0 0)
(54.3647 -14.31 0 123.981 0 0)
(58.3247 -15.4739 0 120.887 0 0)
(61.7157 -16.5398 0 117.898 0 0)
(64.5368 -17.4641 0 114.949 0 0)
(66.8104 -18.2659 0 112.151 0 0)
(68.6614 -18.8947 0 109.378 0 0)
(69.8223 -19.1039 0 106.587 0 0)
(0.260383 -0.601793 0 120.036 0 0)
(2.10112 -1.89134 0 123.005 0 0)
(5.32167 -3.07025 0 119.357 0 0)
(9.77315 -4.34409 0 117.963 0 0)
(15.0212 -5.60311 0 116.257 0 0)
(20.7765 -6.8734 0 114.293 0 0)
(26.7578 -8.1447 0 112.08 0 0)
(32.7322 -9.42237 0 109.753 0 0)
(38.5071 -10.681 0 107.289 0 0)
(43.9471 -11.9176 0 104.805 0 0)
(48.9447 -13.0983 0 102.263 0 0)
(53.4452 -14.2186 0 99.7642 0 0)
(57.4073 -15.2441 0 97.2594 0 0)
(60.8359 -16.1747 0 94.8339 0 0)
(63.7312 -16.9735 0 92.4356 0 0)
(66.118 -17.6601 0 90.152 0 0)
(68.0912 -18.1935 0 87.8871 0 0)
(69.4509 -18.4288 0 85.6118 0 0)
(0.263326 -0.590936 0 91.8865 0 0)
(2.10078 -1.83136 0 94.0017 0 0)
(5.28391 -2.99882 0 91.2107 0 0)
(9.67852 -4.24991 0 90.1371 0 0)
(14.856 -5.47078 0 88.8378 0 0)
(20.5327 -6.68383 0 87.343 0 0)
(26.4323 -7.87863 0 85.6623 0 0)
(32.3278 -9.06016 0 83.8903 0 0)
(38.0326 -10.2077 0 82.0145 0 0)
(43.4164 -11.32 0 80.1174 0 0)
(48.3774 -12.3702 0 78.1765 0 0)
(52.8635 -13.3565 0 76.2619 0 0)
(56.8369 -14.2516 0 74.3437 0 0)
(60.3008 -15.058 0 72.4803 0 0)
(63.257 -15.7475 0 70.6389 0 0)
(65.7325 -16.3351 0 68.8789 0 0)
(67.8001 -16.7917 0 67.136 0 0)
(69.3127 -17.0409 0 65.3829 0 0)
(0.266403 -0.537091 0 66.9337 0 0)
(2.10463 -1.65197 0 68.3739 0 0)
(5.26261 -2.73243 0 66.3422 0 0)
(9.61949 -3.88584 0 65.5593 0 0)
(14.7497 -5.00589 0 64.6211 0 0)
(20.3741 -6.10844 0 63.5392 0 0)
(26.2201 -7.18546 0 62.3249 0 0)
(32.0646 -8.23885 0 61.0392 0 0)
(37.7254 -9.25379 0 59.6802 0 0)
(43.0756 -10.2278 0 58.3004 0 0)
(48.0176 -11.1417 0 56.8914 0 0)
(52.5006 -11.9931 0 55.4967 0 0)
(56.489 -12.7624 0 54.1026 0 0)
(59.985 -13.4515 0 52.7438 0 0)
(62.9912 -14.0408 0 51.4037 0 0)
(65.5358 -14.5395 0 50.1178 0 0)
(67.6758 -14.9293 0 48.848 0 0)
(69.3063 -15.1769 0 47.5669 0 0)
(0.268257 -0.463146 0 46.2897 0 0)
(2.10906 -1.41682 0 47.2283 0 0)
(5.25079 -2.36519 0 45.8276 0 0)
(9.58271 -3.37698 0 45.2895 0 0)
(14.6813 -4.35846 0 44.6483 0 0)
(20.2711 -5.31905 0 43.9045 0 0)
(26.0825 -6.25371 0 43.0704 0 0)
(31.8946 -7.16075 0 42.1831 0 0)
(37.5286 -8.03123 0 41.2475 0 0)
(42.8596 -8.86046 0 40.2943 0 0)
(47.7924 -9.63621 0 39.3243 0 0)
(52.2773 -10.3545 0 38.3616 0 0)
(56.2803 -11.0029 0 37.4021 0 0)
(59.8023 -11.581 0 36.464 0 0)
(62.8465 -12.0764 0 35.5407 0 0)
(65.4418 -12.4931 0 34.6516 0 0)
(67.6339 -12.8209 0 33.7767 0 0)
(69.3503 -13.0512 0 32.8905 0 0)
(0.269417 -0.383302 0 30.158 0 0)
(2.1126 -1.1654 0 30.7423 0 0)
(5.24405 -1.95947 0 29.8321 0 0)
(9.55925 -2.80884 0 29.4849 0 0)
(14.6365 -3.63284 0 29.0728 0 0)
(20.2031 -4.43766 0 28.5922 0 0)
(25.9914 -5.21952 0 28.053 0 0)
(31.7814 -5.97541 0 27.4773 0 0)
(37.3966 -6.69882 0 26.8712 0 0)
(42.713 -7.385 0 26.2528 0 0)
(47.6375 -8.0254 0 25.6248 0 0)
(52.1198 -8.61591 0 25.0004 0 0)
(56.1281 -9.14855 0 24.3793 0 0)
(59.6623 -9.62143 0 23.7707 0 0)
(62.7262 -10.027 0 23.1725 0 0)
(65.3474 -10.3656 0 22.5948 0 0)
(67.5664 -10.6327 0 22.0278 0 0)
(69.3358 -10.8302 0 21.4521 0 0)
(0.269742 -0.304776 0 18.2116 0 0)
(2.11437 -0.920367 0 18.5558 0 0)
(5.23868 -1.55503 0 18.0051 0 0)
(9.53984 -2.23825 0 17.7991 0 0)
(14.5981 -2.90267 0 17.556 0 0)
(20.1426 -3.5529 0 17.2715 0 0)
(25.9065 -4.18419 0 16.9513 0 0)
(31.6709 -4.7932 0 16.6083 0 0)
(37.2605 -5.37341 0 16.2465 0 0)
(42.5515 -5.92133 0 15.8765 0 0)
(47.4535 -6.4297 0 15.4999 0 0)
(51.9148 -6.89616 0 15.1248 0 0)
(55.9073 -7.31389 0 14.7512 0 0)
(59.4286 -7.68261 0 14.3845 0 0)
(62.4873 -7.99652 0 14.024 0 0)
(65.1058 -8.25621 0 13.675 0 0)
(67.3279 -8.46084 0 13.333 0 0)
(69.1248 -8.61117 0 12.9861 0 0)
(0.269389 -0.228405 0 9.88208 0 0)
(2.11211 -0.691679 0 10.0656 0 0)
(5.22146 -1.17932 0 9.76839 0 0)
(9.49636 -1.70927 0 9.66601 0 0)
(14.5244 -2.22388 0 9.54161 0 0)
(20.0354 -2.72447 0 9.39241 0 0)
(25.7624 -3.2067 0 9.22173 0 0)
(31.4889 -3.66809 0 9.03751 0 0)
(37.0392 -4.1029 0 8.84176 0 0)
(42.2932 -4.50956 0 8.64076 0 0)
(47.1591 -4.88249 0 8.43511 0 0)
(51.5903 -5.22184 0 8.22998 0 0)
(55.5575 -5.52183 0 8.02481 0 0)
(59.0626 -5.78465 0 7.82355 0 0)
(62.113 -6.00421 0 7.62527 0 0)
(64.7304 -6.18405 0 7.43396 0 0)
(66.9563 -6.32714 0 7.24718 0 0)
(68.7865 -6.42914 0 7.05898 0 0)
(0.268243 -0.15489 0 4.48598 0 0)
(2.08525 -0.498136 0 4.58158 0 0)
(5.16016 -0.852778 0 4.45638 0 0)
(9.3955 -1.22928 0 4.42075 0 0)
(14.3979 -1.58645 0 4.36967 0 0)
(19.8834 -1.92886 0 4.30525 0 0)
(25.5838 -2.25391 0 4.22793 0 0)
(31.2843 -2.55931 0 4.14144 0 0)
(36.8117 -2.84349 0 4.04841 0 0)
(42.0449 -3.10763 0 3.95259 0 0)
(46.894 -3.34881 0 3.85478 0 0)
(51.3159 -3.5679 0 3.75769 0 0)
(55.2772 -3.76114 0 3.6608 0 0)
(58.7883 -3.93061 0 3.56682 0 0)
(61.8452 -4.07019 0 3.47415 0 0)
(64.4815 -4.18521 0 3.38668 0 0)
(66.7045 -4.27567 0 3.30143 0 0)
(68.5629 -4.34567 0 3.21723 0 0)
(0.255341 -0.0882326 0 1.42097 0 0)
(2.06926 -0.31358 0 1.48669 0 0)
(5.20863 -0.526195 0 1.44664 0 0)
(9.50247 -0.734629 0 1.43349 0 0)
(14.5584 -0.924777 0 1.41337 0 0)
(20.0952 -1.10744 0 1.3901 0 0)
(25.8519 -1.28412 0 1.36347 0 0)
(31.6116 -1.45226 0 1.33414 0 0)
(37.2004 -1.61021 0 1.30315 0 0)
(42.4927 -1.75779 0 1.27154 0 0)
(47.4015 -1.89352 0 1.23972 0 0)
(51.8758 -2.0174 0 1.20831 0 0)
(55.887 -2.12741 0 1.17726 0 0)
(59.4378 -2.22421 0 1.1473 0 0)
(62.5282 -2.3037 0 1.11803 0 0)
(65.196 -2.36989 0 1.09155 0 0)
(67.4188 -2.42248 0 1.06633 0 0)
(69.2693 -2.46194 0 1.03938 0 0)
(0.246015 -0.0253402 0 0.141842 0 0)
(2.06708 -0.0978615 0 0.153621 0 0)
(5.18751 -0.16562 0 0.150836 0 0)
(9.45049 -0.230882 0 0.149667 0 0)
(14.4877 -0.293794 0 0.147365 0 0)
(20.0118 -0.354136 0 0.144637 0 0)
(25.7619 -0.412964 0 0.141638 0 0)
(31.5191 -0.469466 0 0.138507 0 0)
(37.1151 -0.52281 0 0.135285 0 0)
(42.4253 -0.572812 0 0.132033 0 0)
(47.3645 -0.619169 0 0.128776 0 0)
(51.8796 -0.66185 0 0.125573 0 0)
(55.9443 -0.700285 0 0.12243 0 0)
(59.5538 -0.734327 0 0.119406 0 0)
(62.7144 -0.763243 0 0.116581 0 0)
(65.4591 -0.788484 0 0.114244 0 0)
(67.7721 -0.806695 0 0.11217 0 0)
(69.7002 -0.815974 0 0.111785 0 0)
(0.0244867 0.0357721 0 0.717451 0 0)
(0.267312 0.099127 0 0.678515 0 0)
(0.785642 0.180945 0 0.671348 0 0)
(1.53933 0.29499 0 0.662132 0 0)
(2.48664 0.423992 0 0.660532 0 0)
(3.60934 0.568799 0 0.657259 0 0)
(4.88548 0.715855 -2.38423e-19 0.65529 -6.4861e-20 1.47851e-37)
(6.31216 0.866767 2.42411e-19 0.650976 6.91611e-20 1.48302e-37)
(7.88275 1.01372 0 0.644956 0 0)
(9.59522 1.16116 2.44798e-19 0.637374 6.85725e-20 1.46083e-37)
(11.4444 1.30521 0 0.628784 0 0)
(13.4242 1.44809 0 0.619684 0 0)
(15.5281 1.58523 0 0.611721 0 0)
(17.7498 1.71696 -2.77322e-19 0.605247 -5.16754e-20 1.34729e-37)
(20.083 1.84011 0 0.59903 0 0)
(22.5281 1.95374 0 0.593804 0 0)
(25.0855 2.05367 3.40527e-19 0.589515 3.90223e-20 1.22079e-37)
(27.7537 2.14152 0 0.585072 0 0)
(30.5276 2.21994 0 0.580416 0 0)
(33.4017 2.29119 0 0.575987 0 0)
(36.3601 2.35428 -4.56439e-19 0.57267 -1.9572e-20 1.01778e-37)
(39.3933 2.40995 0 0.568923 0 0)
(42.4874 2.45629 -5.16183e-19 0.566665 -1.02946e-20 9.25219e-38)
(45.6335 2.49319 0 0.567859 0 0)
(48.8152 2.52681 0 0.568605 0 0)
(52.0185 2.54983 -6.04311e-19 0.570762 1.23516e-21 7.97688e-38)
(55.2363 2.55202 0 0.572581 0 0)
(58.4729 2.53463 6.57946e-19 0.571051 -6.96243e-21 7.21604e-38)
(61.7222 2.50365 0 0.563188 0 0)
(64.9898 2.46092 -7.02704e-19 0.552786 1.05156e-20 6.53957e-38)
(68.2744 2.40903 0 0.539233 0 0)
(71.5634 2.35043 0 0.523418 0 0)
(74.8492 2.28502 0 0.509384 0 0)
(78.1334 2.20902 0 0.498009 0 0)
(81.4097 2.12183 0 0.48647 0 0)
(84.675 2.02634 7.7978e-19 0.475581 -1.40067e-20 4.59929e-38)
(87.9279 1.92244 0 0.463975 0 0)
(91.1694 1.80998 -1.56263e-18 0.447955 2.71652e-20 1.61353e-37)
(94.398 1.69058 0 0.432376 0 0)
(97.6088 1.56314 1.55255e-18 0.417732 -2.6185e-20 1.39938e-37)
(100.795 1.43019 0 0.402551 0 0)
(103.956 1.28805 0 0.390848 0 0)
(107.081 1.13763 -1.51454e-18 0.378274 2.16017e-20 1.11242e-37)
(110.155 0.984849 0 0.365468 0 0)
(113.162 0.830045 -1.47605e-18 0.354665 1.82923e-20 9.43079e-38)
(116.087 0.672085 1.45361e-18 0.345806 -1.6552e-20 8.6617e-38)
(118.914 0.508333 0 0.339684 0 0)
(121.635 0.338377 1.4028e-18 0.334909 -1.25184e-20 7.34104e-38)
(124.234 0.162996 1.37458e-18 0.331016 -1.06494e-20 6.79517e-38)
(126.711 -0.0148953 0 0.327767 0 0)
(129.051 -0.194226 0 0.325646 0 0)
(131.236 -0.377789 0 0.322971 0 0)
(133.245 -0.56637 0 0.321765 0 0)
(135.057 -0.757239 0 0.32381 0 0)
(136.647 -0.947092 -1.1742e-18 0.328022 -4.39804e-21 5.01726e-38)
(137.984 -1.13839 0 0.332127 0 0)
(139.059 -1.33448 1.07954e-18 0.335811 1.14632e-20 4.75257e-38)
(139.873 -1.5372 0 0.341031 0 0)
(140.422 -1.74609 0 0.347826 0 0)
(140.691 -1.95209 -9.11757e-19 0.35715 -2.24647e-20 4.753e-38)
(140.674 -2.15629 0 0.369134 0 0)
(140.355 -2.36136 7.80325e-19 0.381144 3.12476e-20 4.96999e-38)
(139.739 -2.56523 0 0.391437 0 0)
(138.823 -2.76901 0 0.40423 0 0)
(137.616 -2.97194 0 0.418399 0 0)
(136.13 -3.16765 -4.81991e-19 0.432804 -4.76092e-20 6.03582e-38)
(134.369 -3.35677 0 0.44753 0 0)
(132.345 -3.53953 0 0.460608 0 0)
(130.072 -3.71496 -2.26259e-19 0.474267 -6.12005e-20 7.30597e-38)
(127.569 -3.88816 0 0.489344 0 0)
(124.874 -4.05407 -5.06832e-20 0.504524 -6.98458e-20 8.30442e-38)
(121.997 -4.20754 0 0.519982 0 0)
(118.955 -4.34883 0 0.535985 0 0)
(115.78 -4.47932 0 0.553128 0 0)
(112.493 -4.60047 -3.05007e-19 0.571273 8.32101e-20 1.04556e-37)
(109.114 -4.70952 0 0.589362 0 0)
(105.66 -4.80329 0 0.607328 0 0)
(102.14 -4.88202 -5.64364e-19 0.625434 9.03395e-20 1.20189e-37)
(98.5693 -4.95011 -6.46184e-19 0.644225 9.18815e-20 1.25303e-37)
(94.9749 -5.00719 0 0.663042 0 0)
(91.3879 -5.0524 -7.99273e-19 0.682778 9.46547e-20 1.34725e-37)
(87.8291 -5.08647 0 0.703977 0 0)
(84.3192 -5.1087 -1.87824e-18 0.72555 1.92624e-19 5.74568e-37)
(80.8727 -5.11797 0 0.748209 0 0)
(77.5073 -5.11269 -2.12321e-18 0.770798 1.93754e-19 6.07729e-37)
(74.2411 -5.09099 0 0.793753 0 0)
(71.0884 -5.05623 2.32589e-18 0.819731 -1.93898e-19 6.36707e-37)
(68.0664 -5.00816 0 0.844758 0 0)
(65.1893 -4.94144 0 0.86707 0 0)
(62.457 -4.85592 0 0.889771 0 0)
(59.8736 -4.75363 -2.58688e-18 0.914782 1.86294e-19 6.80074e-37)
(57.4449 -4.63706 0 0.939387 0 0)
(55.1802 -4.50444 2.64774e-18 0.963648 -1.80007e-19 6.94789e-37)
(53.0822 -4.35557 0 0.987397 0 0)
(51.1399 -4.18443 -2.65962e-18 1.01097 1.73655e-19 7.03631e-37)
(49.3481 -3.99665 -2.6504e-18 1.03225 1.70416e-19 7.07149e-37)
(47.6945 -3.79613 -2.63132e-18 1.05348 1.66249e-19 7.09838e-37)
(46.1745 -3.5865 0 1.07587 0 0)
(44.7613 -3.36673 0 1.099 0 0)
(43.4654 -3.13802 0 1.11856 0 0)
(42.2684 -2.90036 0 1.13836 0 0)
(41.1655 -2.66087 0 1.15824 0 0)
(40.1388 -2.42102 0 1.17725 0 0)
(39.1852 -2.17828 0 1.19234 0 0)
(38.2587 -1.93481 0 1.20832 0 0)
(37.3569 -1.69807 2.02498e-18 1.22362 -1.31564e-19 7.07696e-37)
(36.4474 -1.46971 1.91086e-18 1.2408 -1.24244e-19 7.0705e-37)
(35.5543 -1.25053 0 1.25245 0 0)
(34.6429 -1.04024 0 1.26545 0 0)
(33.723 -0.853425 0 1.27945 0 0)
(32.7419 -0.676971 1.35368e-18 1.29206 -1.04666e-19 6.90984e-37)
(31.8 -0.526631 0 1.29933 0 0)
(30.7899 -0.384447 0 1.30914 0 0)
(29.8345 -0.281652 0 1.31921 0 0)
(28.9078 -0.198205 0 1.33242 0 0)
(28.0788 -0.14789 -4.38021e-19 1.34082 7.57486e-20 6.66155e-37)
(27.3793 -0.121705 0 1.35015 0 0)
(26.8422 -0.131077 0 1.36358 0 0)
(26.5526 -0.174177 -2.23333e-19 1.37144 -6.55665e-20 6.4252e-37)
(26.5094 -0.243197 4.50168e-19 1.38407 6.11812e-20 6.29952e-37)
(26.7624 -0.35269 0 1.40096 0 0)
(27.3652 -0.509243 9.12615e-19 1.41831 6.01486e-20 6.05209e-37)
(28.3834 -0.706107 0 1.43737 0 0)
(29.8777 -0.957965 -1.35392e-18 1.45499 -6.45795e-20 5.75522e-37)
(31.8684 -1.24415 0 1.47774 0 0)
(34.4316 -1.57998 0 1.50483 0 0)
(37.465 -1.95825 0 1.53761 0 0)
(41.0805 -2.38745 0 1.5719 0 0)
(45.1314 -2.84248 0 1.60998 0 0)
(49.6214 -3.34426 4.89904e-18 1.6522 2.04729e-19 1.97208e-36)
(54.4889 -3.89011 5.15405e-18 1.69834 2.30675e-19 1.93732e-36)
(59.7522 -4.47156 0 1.74645 0 0)
(65.2121 -5.07317 0 1.80241 0 0)
(70.8276 -5.70017 0 1.85765 0 0)
(76.4508 -6.31284 -5.69398e-18 1.91855 -3.52402e-19 1.91756e-36)
(81.8537 -6.92693 0 1.98974 0 0)
(86.9994 -7.54828 0 2.06197 0 0)
(91.8303 -8.16257 0 2.13847 0 0)
(96.2709 -8.75533 -5.33197e-18 2.21679 -5.33663e-19 2.07204e-36)
(100.303 -9.32204 5.09811e-18 2.30023 5.82349e-19 2.13386e-36)
(103.713 -9.84377 0 2.39098 0 0)
(106.621 -10.353 0 2.48375 0 0)
(108.989 -10.8062 4.07917e-18 2.57828 7.35393e-19 2.36597e-36)
(110.826 -11.2252 3.65011e-18 2.67165 7.84239e-19 2.45127e-36)
(111.978 -11.5688 0 2.77191 0 0)
(112.548 -11.8836 0 2.87182 0 0)
(112.425 -12.1253 -2.05273e-18 2.97577 -9.45712e-19 2.71923e-36)
(111.745 -12.3491 1.42336e-18 3.07072 9.89307e-19 2.79796e-36)
(110.548 -12.5024 0 3.16747 0 0)
(108.636 -12.6017 0 3.26804 0 0)
(106.131 -12.6345 -5.20514e-19 3.35888 1.11708e-18 3.06873e-36)
(102.995 -12.6135 0 3.44929 0 0)
(99.511 -12.5546 0 3.53279 0 0)
(95.5218 -12.4052 -2.54626e-18 3.6052 1.20591e-18 3.30146e-36)
(91.2241 -12.1837 0 3.67713 0 0)
(86.605 -11.8513 -3.82942e-18 3.73851 1.25687e-18 3.44429e-36)
(81.7217 -11.4336 0 3.79416 0 0)
(76.6169 -10.8979 0 3.83324 0 0)
(71.6769 -10.2642 0 3.85726 0 0)
(66.7996 -9.46634 5.86746e-18 3.87595 -1.27749e-18 3.68205e-36)
(62.1481 -8.54907 0 3.87945 0 0)
(57.9381 -7.47958 0 3.86738 0 0)
(54.4882 -6.29014 0 3.8394 0 0)
(51.6396 -4.91177 0 3.79736 0 0)
(49.5461 -3.45261 0 3.74673 0 0)
(48.827 -1.89946 0 3.67459 0 0)
(49.6705 -0.276994 6.01807e-18 3.58487 -1.1039e-18 3.7271e-36)
(51.7385 1.43532 5.60202e-18 3.48656 -1.04953e-18 3.70949e-36)
(55.4484 3.12678 0 3.37506 0 0)
(60.7086 4.75267 0 3.25717 0 0)
(67.5157 6.33149 0 3.12776 0 0)
(75.4535 7.80349 -3.04805e-18 2.9981 7.94716e-19 3.38352e-36)
(84.5765 9.10409 0 2.86996 0 0)
(94.1252 10.2913 2.94111e-18 2.73495 -1.35017e-18 1.2362e-35)
(104.002 11.2472 -1.3046e-18 2.60428 1.21734e-18 1.16605e-35)
(113.63 12.0362 3.22097e-19 2.47294 1.10444e-18 1.10167e-35)
(123.275 12.6859 -2.02565e-18 2.3482 -1.01382e-18 1.03314e-35)
(131.382 13.2262 3.67679e-18 2.2293 9.22518e-19 9.75726e-36)
(139.243 13.7021 -5.28064e-18 2.12204 -9.03117e-19 8.99263e-36)
(142.982 14.3939 0 2.06613 0 0)
(0.0183153 0.174253 0 6.09729 0 0)
(0.202762 0.387986 0 6.03539 0 0)
(0.629636 0.609844 1.31732e-19 5.86277 1.7598e-19 6.76501e-37)
(1.32744 0.854206 0 5.74202 0 0)
(2.26997 1.13335 -1.92342e-19 5.68212 -3.53591e-19 9.19329e-37)
(3.44668 1.43802 -1.83978e-19 5.65485 -4.41413e-19 9.72378e-37)
(4.83644 1.76257 -8.0713e-20 5.63935 -2.5139e-19 2.48923e-37)
(6.42492 2.10301 -6.89942e-20 5.62123 -2.70284e-19 2.61171e-37)
(8.20427 2.45208 0 5.59282 0 0)
(10.1725 2.8053 -4.22368e-20 5.55016 -2.69076e-19 2.59327e-37)
(12.3308 3.15388 0 5.4982 0 0)
(14.6775 3.49542 0 5.4385 0 0)
(17.2042 3.82479 9.50573e-20 5.37015 4.23628e-19 9.50794e-37)
(19.9117 4.14153 6.97306e-20 5.29821 1.86831e-19 2.34053e-37)
(22.7892 4.43589 -1.85998e-19 5.22301 -3.26109e-19 8.9335e-37)
(25.8309 4.7079 -2.52363e-19 5.14481 -2.81084e-19 8.6565e-37)
(29.0253 4.95901 -1.71577e-19 5.06046 -1.18393e-19 2.12685e-37)
(32.3661 5.19066 0 4.96973 0 0)
(35.8416 5.40115 0 4.87408 0 0)
(39.4432 5.59499 0 4.77145 0 0)
(43.1477 5.77143 -3.8719e-19 4.66659 -3.6659e-20 1.80357e-37)
(46.9462 5.92782 0 4.56212 0 0)
(50.816 6.05573 1.61079e-18 4.45558 -1.64931e-20 1.55158e-36)
(54.7446 6.15886 0 4.3526 0 0)
(58.715 6.23894 0 4.24736 0 0)
(62.7097 6.29606 7.75445e-19 4.14297 -5.77817e-20 1.56483e-37)
(66.701 6.32701 0 4.03681 0 0)
(70.6702 6.34117 -9.33575e-19 3.93606 8.18756e-20 1.45985e-37)
(74.5836 6.33212 -1.99474e-18 3.83597 1.81695e-19 5.5706e-37)
(78.4313 6.29462 1.07763e-18 3.73317 -9.88112e-20 1.36616e-37)
(82.2092 6.22572 0 3.62538 0 0)
(85.9174 6.12895 0 3.52012 0 0)
(89.5424 6.00671 0 3.41683 0 0)
(93.088 5.86011 -2.57757e-18 3.30875 2.2281e-19 4.71344e-37)
(96.5457 5.68367 -2.65572e-18 3.20135 2.20283e-19 4.55156e-37)
(99.9292 5.47768 -1.374e-18 3.10041 1.07552e-19 1.10755e-37)
(103.247 5.24059 0 3.00849 0 0)
(106.491 4.9675 2.83851e-18 2.92031 -2.0282e-19 4.12776e-37)
(109.672 4.65624 0 2.83507 0 0)
(112.783 4.31597 -2.87488e-18 2.75356 1.88168e-19 3.8149e-37)
(115.831 3.94787 0 2.67323 0 0)
(118.812 3.55988 0 2.60106 0 0)
(121.734 3.15601 2.82777e-18 2.5301 -1.53834e-19 3.31604e-37)
(124.58 2.73331 0 2.46472 0 0)
(127.333 2.2852 8.16042e-18 2.40671 -3.92828e-19 2.68379e-36)
(129.99 1.80747 -2.68897e-18 2.36135 1.19019e-19 2.83627e-37)
(132.556 1.30444 0 2.3342 0 0)
(135.046 0.776233 -2.54925e-18 2.31842 9.08116e-20 2.51695e-37)
(137.444 0.215313 -2.4686e-18 2.31219 7.65894e-20 2.36134e-37)
(139.749 -0.371868 0 2.31456 0 0)
(141.938 -0.970794 0 2.32801 0 0)
(143.992 -1.56732 0 2.34309 0 0)
(145.896 -2.15199 0 2.35667 0 0)
(147.613 -2.72917 0 2.38028 0 0)
(149.131 -3.30781 1.8835e-18 2.41305 1.45489e-20 1.72039e-37)
(150.428 -3.8954 3.45145e-18 2.45636 7.11982e-20 6.55683e-37)
(151.484 -4.48671 -1.64456e-18 2.5075 -5.59317e-20 1.60057e-37)
(152.309 -5.09635 0 2.56369 0 0)
(152.879 -5.70746 2.68737e-18 2.62686 1.90257e-19 6.0129e-37)
(153.164 -6.29803 -1.17017e-18 2.69499 -1.13263e-19 1.46827e-37)
(153.191 -6.8835 0 2.77177 0 0)
(152.911 -7.46301 -9.78292e-19 2.86169 -1.48643e-19 1.49474e-37)
(152.336 -8.02078 0 2.95498 0 0)
(151.459 -8.56927 0 3.05625 0 0)
(150.277 -9.0994 -1.0475e-18 3.16238 -3.97003e-19 6.25462e-37)
(148.776 -9.60069 4.22556e-19 3.27322 2.15284e-19 1.63731e-37)
(146.997 -10.0942 -4.889e-19 3.39354 -4.62303e-19 6.6835e-37)
(144.931 -10.5663 2.11732e-19 3.51808 4.89206e-19 6.92147e-37)