/*--------------------------------*- C++ -*----------------------------------*\
| =========                 |                                                 |
| \\      /  F ield         | OpenFOAM: The Open Source CFD Toolbox           |
|  \\    /   O peration     | Version:  dev                                   |
|   \\  /    A nd           | Web:      http://www.openfoam.org               |
|    \\/     M anipulation  |                                                 |
\*---------------------------------------------------------------------------*/
FoamFile
{
    version     2.0;
    format      ascii;
    class       volScalarField;
    object      k;
    location    "9.148";
}
// * * * * * * * * * * * * * * * * * * * * * * * * * * * * * * * * * * * * * //

dimensions      [0 2 -2 0 0 0 0];

internalField   nonuniform List<scalar> 
12225
(
8.23045
8.47116
5.02073
4.61929
3.55394
4.25091
4.15825
4.83711
5.26265
5.82428
6.51127
7.15116
7.82073
9.0015
8.98112
13.3954
16.8995
27.4213
1.43247
5.75087
5.12091
5.85327
4.53898
5.36133
4.35729
5.22416
4.59417
5.2437
5.01862
5.30557
5.61588
5.11566
5.76762
4.73846
8.57729
12.6965
0.138115
1.72582
2.2252
3.31122
3.10318
3.43437
3.18437
3.21451
3.24961
2.98946
3.19622
2.66957
3.30559
2.44095
3.10794
2.19571
5.44522
11.2599
0.0152559
0.260446
0.627077
0.889721
1.22444
1.24972
1.45771
1.32541
1.60499
1.35405
1.56734
1.20666
1.54485
1.15017
1.47497
1.1067
2.36933
8.79973
0.00552582
0.0528868
0.17366
0.253576
0.440179
0.478616
0.615352
0.575315
0.685985
0.618761
0.706005
0.565418
0.699674
0.563679
0.727136
0.595351
1.31815
2.86782
0.00706409
0.0193591
0.0569533
0.081622
0.163697
0.181794
0.261106
0.239171
0.301269
0.284928
0.337246
0.276359
0.337421
0.292471
0.3789
0.343686
0.624211
1.19193
0.0138129
0.0190265
0.0352067
0.0456675
0.0787931
0.0860683
0.121268
0.114734
0.145176
0.141472
0.167825
0.143887
0.171267
0.155642
0.192801
0.183054
0.303631
0.404558
0.0196407
0.0256781
0.0344355
0.0418007
0.0582157
0.0637498
0.078331
0.0794148
0.0928792
0.093479
0.103174
0.0967029
0.105487
0.100154
0.114371
0.112875
0.157494
0.171117
0.0286554
0.0435587
0.0445007
0.0496437
0.0572652
0.0621054
0.071379
0.0739284
0.0825635
0.0846437
0.088449
0.0861042
0.0868704
0.0832904
0.0875752
0.0874702
0.103019
0.106989
0.0516014
0.0742283
0.0704824
0.0747007
0.0704405
0.0716922
0.0742478
0.0775519
0.0821209
0.0843286
0.0866101
0.0848116
0.0820293
0.0778062
0.0775714
0.0765145
0.0803828
0.0825525
0.103965
0.128632
0.122451
0.126722
0.111123
0.106376
0.0972327
0.0972919
0.095498
0.0935066
0.0907808
0.0866892
0.0811018
0.0770019
0.0747792
0.0732207
0.0736898
0.0740803
0.231387
0.231036
0.217446
0.215151
0.192345
0.179475
0.156284
0.150252
0.138923
0.125363
0.109936
0.0991481
0.0880131
0.0816112
0.0768486
0.0741513
0.0729679
0.071979
0.446653
0.409029
0.377169
0.354173
0.308784
0.279328
0.24828
0.228781
0.202013
0.180695
0.155407
0.132158
0.112702
0.10008
0.0895056
0.083391
0.0779969
0.0746794
0.744579
0.659125
0.611896
0.552614
0.477071
0.41852
0.367026
0.326467
0.289713
0.255724
0.223754
0.19583
0.169122
0.146698
0.12546
0.110118
0.0954884
0.0853235
1.2359
1.07858
1.02177
0.911854
0.800082
0.700817
0.611399
0.531243
0.45673
0.388977
0.328762
0.27665
0.231436
0.194506
0.16265
0.138022
0.116832
0.1009
1.91652
1.65856
1.47772
1.23996
1.04324
0.882413
0.747789
0.632889
0.533082
0.4467
0.372339
0.309215
0.255529
0.212079
0.175287
0.146531
0.122285
0.104179
2.24303
1.90274
1.64118
1.35417
1.12747
0.945381
0.79481
0.667235
0.557672
0.464225
0.384638
0.317795
0.261503
0.216083
0.177921
0.14794
0.122779
0.104
2.25511
1.91098
1.64894
1.35886
1.12985
0.946084
0.794167
0.665506
0.55519
0.46094
0.381187
0.314439
0.258583
0.213646
0.175991
0.146112
0.12111
0.10223
1.87162
1.67418
1.50941
1.25679
1.05435
0.889582
0.751298
0.632342
0.528902
0.439966
0.364595
0.301629
0.248528
0.205795
0.169808
0.141082
0.117048
0.0986459
1.30132
1.18743
1.10159
0.957065
0.831308
0.722893
0.62532
0.535842
0.453605
0.379126
0.315388
0.262036
0.216313
0.179416
0.14825
0.12357
0.103029
0.0876203
0.751358
0.703035
0.648799
0.556603
0.487544
0.434039
0.384315
0.338527
0.293832
0.245319
0.204039
0.170889
0.142779
0.122105
0.105523
0.0931378
0.0820413
0.0737358
0.424684
0.405328
0.390048
0.351857
0.319835
0.287862
0.252599
0.215186
0.179074
0.155428
0.138939
0.125878
0.114433
0.10504
0.095473
0.0870995
0.0785383
0.0720225
0.221551
0.225741
0.223479
0.209876
0.185179
0.162552
0.152604
0.143895
0.135492
0.129791
0.124386
0.117788
0.110967
0.104701
0.0974803
0.0911452
0.0842359
0.0788621
0.113372
0.11839
0.114473
0.107863
0.112323
0.121039
0.127731
0.128899
0.128699
0.129133
0.129494
0.12908
0.127344
0.124374
0.120237
0.116254
0.111569
0.107663
0.0418981
0.0477089
0.0598901
0.0779366
0.0983709
0.122142
0.141056
0.152904
0.161854
0.171148
0.181634
0.191455
0.198236
0.199458
0.198736
0.196314
0.192351
0.188619
0.0131655
0.0275055
0.0555808
0.102433
0.161778
0.220564
0.266331
0.297648
0.322582
0.34735
0.371677
0.39192
0.403433
0.403247
0.400919
0.395238
0.387051
0.379404
0.00746076
0.0619558
0.194645
0.365837
0.53195
0.66859
0.753665
0.803763
0.840943
0.873485
0.896662
0.908496
0.902086
0.885773
0.868437
0.843963
0.822589
0.802971
0.0613735
0.473062
1.14605
1.67597
1.99028
2.13275
2.15884
2.12192
2.10841
2.09819
2.06836
2.0122
1.93946
1.86815
1.8057
1.73772
1.68529
1.61509
0.860793
3.28387
4.56205
4.72013
4.58688
4.37857
4.1448
3.97447
3.81654
3.67461
3.54837
3.43192
3.33853
3.24957
3.17059
3.08394
2.9846
2.73346
6.42526
8.55837
7.08939
5.31454
4.44075
4.18719
4.23043
4.43033
4.73323
5.07796
5.42997
5.76114
6.06015
6.32572
6.56028
6.70361
6.69249
6.26984
0.081499
0.170084
0.198541
0.223786
0.233101
0.237046
0.239668
0.240168
0.23964
0.238207
0.239415
0.244719
0.254082
0.267714
0.286048
0.30856
0.336153
0.371167
0.415428
0.466207
0.520745
0.582248
0.659981
0.755988
0.855687
0.972418
1.14192
1.32594
1.50967
1.74162
2.00307
2.27664
2.60591
2.97874
3.37444
3.78465
4.23239
4.65176
5.06173
5.48162
5.81115
6.01128
5.97793
5.52301
4.39129
3.70982
3.37886
3.14447
2.94251
2.89378
3.00879
3.16844
3.27369
3.37814
3.51016
3.65283
3.70983
3.68961
3.6349
3.61313
3.60653
3.58099
3.53741
3.52652
3.54623
3.77053
4.20785
5.00167
5.54914
5.85345
5.80824
5.33797
5.11965
5.18785
5.36881
5.61551
6.11819
6.56699
6.9396
7.25274
7.48447
7.65576
7.75996
7.81426
7.814
7.78012
7.68297
7.51328
7.28541
7.00774
6.6966
6.33201
5.92126
5.48996
5.05758
4.66871
4.27837
3.88147
3.55681
3.26489
2.96644
2.7834
2.57072
2.40128
2.27067
2.16204
2.09053
2.05237
2.05296
2.03334
2.00192
2.03267
2.16256
2.26118
2.21182
2.1823
2.30555
2.47759
2.49919
2.4895
2.52822
2.48622
2.40815
2.45907
2.69658
3.06035
3.57278
4.26306
5.09319
5.77095
6.26295
6.42121
6.379
6.33105
6.46408
7.10723
7.93987
8.27184
8.42836
8.6302
9.20364
9.73295
10.5904
11.1132
11.3418
11.2532
11.0388
11.7574
13.3295
15.0819
15.7799
15.8694
15.567
14.5551
12.054
11.315
12.1369
12.237
11.699
10.3247
9.05196
9.00746
9.37312
9.35111
8.97233
7.88808
6.36433
4.91306
4.48191
4.97257
5.85016
7.29811
10.0568
11.2935
11.0071
10.6285
12.0897
15.6191
22.285
29.4878
0.387546
0.165182
0.158758
0.17734
0.18149
0.182184
0.181933
0.179605
0.169624
0.154147
0.148223
0.146663
0.148018
0.152786
0.160651
0.166573
0.171185
0.176168
0.182355
0.190363
0.198043
0.202658
0.20581
0.212232
0.218272
0.223343
0.234175
0.245883
0.256891
0.273305
0.283181
0.294715
0.318044
0.336144
0.36101
0.428215
0.485247
0.583272
0.748204
0.890268
1.21672
1.49939
2.01254
2.60988
2.73315
2.73804
2.69985
2.44577
1.87329
1.51392
1.37912
1.33878
1.38189
1.40278
1.35952
1.27313
1.18102
1.07555
0.943478
0.911126
0.93636
0.927304
0.840259
0.784072
0.85799
1.03343
1.10683
1.13996
1.25257
1.50481
1.73724
2.22794
3.4795
4.33235
4.74483
5.01608
4.99298
4.65876
4.21421
3.75737
3.35733
3.00258
2.71783
2.48581
2.31074
2.14055
1.96871
1.81023
1.65733
1.52803
1.41725
1.30541
1.21467
1.12421
1.05148
0.997867
0.936885
0.890734
0.867168
0.857681
0.846735
0.845425
0.833022
0.830309
0.825367
0.820985
0.820938
0.825523
0.853012
0.883882
0.88181
0.888958
0.944701
1.06118
1.08493
1.0866
1.12219
1.20234
1.28151
1.35909
1.43706
1.47968
1.53334
1.55558
1.5626
1.61559
1.85687
2.2592
2.5383
2.63888
2.74482
2.84473
2.84616
2.79208
2.83823
3.27719
4.17898
4.33344
3.97953
3.74783
4.10557
4.36671
4.58654
4.9681
5.12695
5.06926
4.54619
4.50534
4.71844
5.11669
5.51647
5.84154
6.06751
6.04143
5.3095
5.20222
5.40119
5.46163
5.41389
5.26417
5.05408
5.21612
5.35621
5.34258
5.31061
5.12162
4.65665
4.09392
4.13905
4.48525
4.65481
4.87906
5.20911
6.53318
8.17475
7.79543
6.93127
6.72912
7.80792
8.61375
1.11129
0.245744
0.132779
0.136364
0.160628
0.179173
0.182113
0.174505
0.153537
0.133766
0.12555
0.12404
0.126844
0.134623
0.143208
0.147525
0.151336
0.155518
0.159532
0.163337
0.16668
0.169148
0.171892
0.177465
0.18582
0.192895
0.200632
0.209741
0.215351
0.215419
0.214322
0.212673
0.209401
0.20443
0.199123
0.196415
0.196556
0.198561
0.209532
0.224965
0.259703
0.320401
0.403934
0.603337
0.799422
1.03153
1.37004
1.57572
1.63969
1.61821
1.41981
1.14023
0.978791
0.826268
0.650233
0.505094
0.414347
0.361883
0.345009
0.352481
0.417017
0.438716
0.45124
0.532527
0.729091
1.11314
1.28425
1.41753
1.78308
2.23177
2.73909
3.23907
3.38898
3.11759
2.72361
2.26319
1.89376
1.5416
1.26864
1.04857
0.893509
0.777491
0.69977
0.646307
0.613088
0.576777
0.544356
0.51977
0.500912
0.491113
0.485539
0.479326
0.479673
0.473483
0.469362
0.47111
0.477575
0.475891
0.476437
0.485389
0.501714
0.522559
0.526504
0.54839
0.555761
0.553919
0.554732
0.552825
0.559885
0.586245
0.582742
0.560557
0.580629
0.676269
0.702496
0.687044
0.708834
0.762295
0.83202
0.905353
0.97687
1.02874
1.19911
1.28581
1.31953
1.32382
1.36842
1.65884
2.00726
2.03187
1.92192
1.82374
1.80098
1.8017
1.89746
2.42113
3.07464
3.10126
2.87349
2.72569
2.91866
3.21445
3.32302
3.48676
3.45871
3.34965
3.01719
2.95379
3.24342
3.42769
3.38319
3.66807
4.02616
4.10407
3.86409
4.13679
4.77896
4.39063
4.1832
4.02267
4.21045
4.5611
4.54616
4.46971
4.56774
4.59182
4.49357
4.03759
4.11168
4.43367
4.46629
4.44188
4.67749
6.45871
9.15265
10.445
7.89253
5.08752
4.42363
4.3389
2.39106
0.52215
0.147319
0.126719
0.159315
0.197749
0.203734
0.178267
0.148008
0.130118
0.123561
0.123461
0.129483
0.139775
0.145575
0.149052
0.154824
0.163506
0.17016
0.174351
0.177236
0.182857
0.194665
0.207719
0.218176
0.225042
0.229595
0.231745
0.231878
0.229847
0.224126
0.220216
0.21338
0.204585
0.196974
0.187886
0.179392
0.172206
0.168258
0.166386
0.167204
0.172272
0.183902
0.217228
0.26647
0.353307
0.542475
0.656718
0.884522
1.14411
1.24218
1.23979
1.12103
0.868438
0.641292
0.467963
0.355756
0.295172
0.275986
0.280469
0.31283
0.32473
0.386903
0.583576
1.08242
1.38626
1.46939
1.57399
1.87679
2.10834
2.23435
2.03988
1.74756
1.43427
1.13128
0.85516
0.691185
0.563438
0.482333
0.429805
0.395452
0.374619
0.362562
0.354229
0.34878
0.343256
0.341105
0.341771
0.346874
0.349431
0.351417
0.347638
0.34635
0.34789
0.351761
0.358165
0.367659
0.360219
0.360127
0.364334
0.379001
0.405185
0.409955
0.433087
0.456192
0.455856
0.460198
0.461336
0.461937
0.472347
0.483651
0.462404
0.449162
0.506249
0.571976
0.557311
0.554557
0.596421
0.685981
0.727124
0.761743
0.839247
0.994296
1.11651
1.23906
1.28565
1.22407
1.20704
1.41201
1.69162
1.6772
1.53914
1.44925
1.44395
1.55018
2.04645
2.53356
2.74016
2.73317
2.62424
2.60035
2.74922
2.98953
3.06085
2.99631
2.80198
2.56279
2.49919
2.78616
2.85676
2.74197
3.10573
3.313
3.35258
3.42751
3.93718
4.53122
4.15082
3.99845
3.629
3.94419
4.32418
4.19759
3.93658
4.01349
4.22496
4.25446
3.95635
3.96881
4.28192
4.28677
4.13371
4.51056
6.34045
7.62412
10.7454
11.4182
5.2852
3.54053
3.03533
3.87545
0.961037
0.192517
0.132821
0.178671
0.236767
0.21548
0.172883
0.141786
0.129666
0.125943
0.131843
0.14395
0.154809
0.162513
0.173363
0.187838
0.201279
0.209547
0.214229
0.218715
0.227541
0.23097
0.231104
0.231515
0.232985
0.234085
0.233429
0.231876
0.230904
0.225713
0.220604
0.214922
0.203348
0.194357
0.184881
0.172996
0.164037
0.158206
0.152914
0.151571
0.151987
0.15291
0.156169
0.165046
0.183119
0.225308
0.321066
0.399469
0.498496
0.750708
0.95461
1.004
0.976089
0.800317
0.575616
0.419354
0.338092
0.307662
0.306956
0.310935
0.335369
0.433528
0.786762
1.21584
1.40433
1.47178
1.50231
1.49823
1.43793
1.28926
1.0154
0.823429
0.628535
0.506489
0.408899
0.365795
0.338495
0.325279
0.318338
0.313539
0.310542
0.307545
0.305071
0.301448
0.295501
0.294906
0.2937
0.301626
0.303377
0.300188
0.293708
0.28518
0.287996
0.29598
0.300201
0.300005
0.283628
0.279701
0.27665
0.279438
0.299587
0.315441
0.320689
0.354434
0.38466
0.396691
0.404784
0.41326
0.413936
0.426993
0.422815
0.394302
0.405163
0.499481
0.510225
0.486979
0.513521
0.626851
0.649184
0.656267
0.72956
0.895291
0.974692
1.16702
1.25633
1.16873
1.06046
1.0811
1.28287
1.51954
1.44174
1.31764
1.29073
1.37853
1.69005
2.18109
2.74826
2.80444
2.69575
2.49942
2.47607
2.75844
2.77811
2.73532
2.51605
2.32967
2.28075
2.54951
2.5409
2.51004
2.98593
2.98363
2.98834
3.26502
4.12324
4.2085
4.05391
4.10145
3.57462
3.80408
4.05555
3.84822
3.36015
3.35588
3.69899
3.90965
3.77326
3.77323
4.08483
4.07807
3.72352
4.265
4.88248
4.40201
5.9327
10.4688
6.71123
3.39381
2.63797
5.42265
1.35577
0.256508
0.164774
0.240269
0.245846
0.201182
0.152808
0.137063
0.131978
0.139142
0.153553
0.169738
0.189721
0.211143
0.240845
0.257744
0.260197
0.257256
0.252038
0.246915
0.239635
0.232033
0.226807
0.22257
0.217768
0.212128
0.208118
0.204451
0.204327
0.202993
0.197153
0.195712
0.191959
0.185146
0.175401
0.166219
0.159895
0.154696
0.151248
0.150497
0.150416
0.15034
0.151836
0.155479
0.159627
0.166289
0.190225
0.219231
0.262333
0.324537
0.47096
0.704086
0.79795
0.791866
0.728783
0.589643
0.470267
0.391588
0.391653
0.394495
0.398523
0.488057
0.948562
1.28309
1.3651
1.29809
1.09641
0.979239
0.846756
0.691103
0.54471
0.433417
0.357599
0.323191
0.30733
0.30297
0.30167
0.299707
0.298103
0.296316
0.294097
0.290274
0.287691
0.283841
0.275277
0.273047
0.267378
0.2644
0.262249
0.249388
0.241249
0.235011
0.233736
0.235768
0.237089
0.231485
0.227678
0.22866
0.216786
0.213382
0.213596
0.248652
0.255891
0.268106
0.295273
0.334925
0.337883
0.349852
0.369596
0.367379
0.374732
0.366282
0.355265
0.414567
0.48112
0.451216
0.4449
0.541462
0.603137
0.611648
0.641283
0.705503
0.843237
1.15409
1.14594
1.05179
1
0.996176
1.06751
1.35997
1.33151
1.2405
1.20826
1.26235
1.45221
2.07721
3.05864
3.17725
2.78413
2.42846
2.24391
2.38181
2.41174
2.37787
2.27143
2.14968
2.11354
2.31707
2.34415
2.43199
2.88065
2.75899
2.75403
3.18694
4.09778
3.6971
3.98181
4.60883
3.75549
3.6298
3.61491
3.48151
3.00106
2.92195
3.12873
3.57295
3.60682
3.62737
3.90194
3.83532
3.585
3.72246
4.20527
3.8311
3.63318
5.09997
7.66534
3.45471
2.50842
6.95431
1.7177
0.328019
0.24471
0.260594
0.224817
0.166585
0.144633
0.13937
0.144539
0.163732
0.187363
0.224662
0.275845
0.298107
0.302539
0.303504
0.300015
0.286864
0.27096
0.256948
0.239555
0.22067
0.204802
0.193364
0.183244
0.174287
0.168502
0.166111
0.165794
0.166794
0.166604
0.165805
0.165409
0.163226
0.157662
0.152055
0.149733
0.151033
0.152462
0.154986
0.158775
0.160268
0.16074
0.16114
0.162146
0.163898
0.172239
0.181325
0.188258
0.204158
0.235854
0.314616
0.508028
0.620706
0.643059
0.634761
0.557781
0.478742
0.449377
0.420265
0.421575
0.55063
1.08588
1.29926
1.23987
0.981714
0.770734
0.654045
0.536741
0.418886
0.349361
0.303997
0.288919
0.287493
0.289137
0.290738
0.291089
0.285459
0.277571
0.267709
0.259043
0.251988
0.25059
0.249982
0.250329
0.24894
0.246151
0.242841
0.239628
0.229184
0.217008
0.210307
0.207115
0.202372
0.204306
0.200073
0.205885
0.206296
0.195598
0.192395
0.186917
0.197942
0.209314
0.230817
0.245423
0.278345
0.304454
0.295942
0.31431
0.329677
0.323199
0.324733
0.320898
0.331599
0.404043
0.403151
0.388127
0.401438
0.50241
0.579178
0.588455
0.548357
0.661495
1.06117
1.05394
0.941893
0.98682
0.980018
0.982494
1.07317
1.10401
1.1401
1.13173
1.17181
1.42568
2.23268
3.3408
3.47892
2.77409
2.30258
2.10623
2.00669
1.98909
1.94636
1.98218
2.05748
2.06178
2.14241
2.25439
2.41304
2.50602
2.49571
2.54613
3.09912
3.67492
2.85619
3.83124
4.68048
4.30238
3.47475
2.86489
2.87475
2.7219
2.5613
2.77012
3.24517
3.49068
3.52226
3.70003
3.62316
3.52861
3.54461
4.05144
3.52142
3.09528
4.0753
6.87071
3.56674
2.45604
8.41472
2.11333
0.43773
0.278458
0.246318
0.183273
0.155722
0.145623
0.149339
0.176526
0.211551
0.271309
0.325295
0.342322
0.351886
0.359619
0.359335
0.34849
0.328205
0.303158
0.276416
0.247995
0.220256
0.201191
0.187012
0.175805
0.16519
0.158477
0.155882
0.155207
0.155505
0.155818
0.15583
0.155928
0.154954
0.150422
0.146118
0.144907
0.146378
0.149242
0.153555
0.158844
0.163545
0.169854
0.180162
0.19097
0.198723
0.200818
0.196315
0.19249
0.191338
0.189567
0.198598
0.231596
0.341196
0.470049
0.522412
0.53398
0.520048
0.465229
0.424357
0.434111
0.65155
1.16858
1.27631
1.10694
0.760514
0.598697
0.481896
0.386827
0.308695
0.27792
0.270881
0.273441
0.279566
0.28143
0.275954
0.258046
0.237003
0.218747
0.210471
0.209446
0.210445
0.216161
0.219751
0.222051
0.222943
0.224814
0.229174
0.227716
0.220276
0.204265
0.187897
0.180398
0.166397
0.162828
0.16968
0.192153
0.193972
0.188165
0.183233
0.179134
0.179799
0.178682
0.185991
0.221041
0.225972
0.249064
0.263698
0.25689
0.282518
0.297402
0.296158
0.29936
0.301835
0.324714
0.338894
0.340863
0.348042
0.380933
0.481744
0.486259
0.495572
0.641378
0.876283
0.891194
0.873564
0.977151
0.985544
0.924021
0.851109
0.99993
1.03354
1.0342
1.12845
1.56774
2.95694
3.22015
2.80773
2.32025
2.08809
2.06868
1.83467
1.73346
1.71715
1.87386
2.02051
2.03678
2.06209
2.16991
2.39537
2.28892
2.39475
2.50059
2.93023
3.05681
2.62335
3.22502
3.48326
4.47885
3.54727
2.67883
2.55294
2.39675
2.4552
2.63489
3.014
3.38623
3.43241
3.51952
3.48381
3.45498
3.38206
3.69283
3.31202
2.8118
3.03368
5.02617
3.68903
2.42792
9.74454
2.54495
0.520408
0.278229
0.20759
0.166942
0.153234
0.151938
0.171642
0.225174
0.30179
0.349203
0.371033
0.379226
0.380295
0.37749
0.369617
0.365208
0.361492
0.356229
0.340217
0.309394
0.269008
0.228776
0.198058
0.179373
0.165319
0.157558
0.154249
0.15315
0.152984
0.153306
0.153343
0.153607
0.153923
0.152531
0.152084
0.152193
0.151111
0.151391
0.154061
0.159338
0.171018
0.189806
0.205072
0.217252
0.225269
0.226427
0.223798
0.219476
0.204335
0.191549
0.189215
0.188503
0.197235
0.24087
0.352432
0.43378
0.461489
0.447076
0.424375
0.458521
0.783472
1.18778
1.22495
0.985017
0.639575
0.490137
0.381421
0.302647
0.262759
0.25489
0.261055
0.268347
0.271145
0.261945
0.236176
0.207786
0.197963
0.195041
0.194829
0.198427
0.203799
0.209184
0.212959
0.213801
0.213489
0.2075
0.208738
0.206707
0.203256
0.193709
0.167542
0.154898
0.149448
0.144922
0.15298
0.177711
0.185912
0.185088
0.17575
0.177578
0.17606
0.170041
0.169875
0.187667
0.206877
0.209785
0.229243
0.230838
0.231502
0.260925
0.269968
0.269544
0.277027
0.295305
0.304708
0.311828
0.31839
0.336294
0.372293
0.435833
0.478126
0.636256
0.62309
0.661371
0.780331
0.951662
0.974765
0.835401
0.804476
0.999721
0.98218
0.987009
1.13765
1.85627
3.19088
2.57599
1.63897
1.62016
1.93375
1.98289
1.73376
1.62413
1.64892
1.88413
2.02469
2.03675
2.02461
2.0482
2.29675
2.2841
2.48611
2.59515
2.69209
2.69453
2.62427
2.91804
2.79562
4.0947
3.48787
2.56221
2.49112
2.334
2.40214
2.57276
2.91041
3.28157
3.29528
3.34924
3.32276
3.35141
3.1861
3.21755
3.04368
2.65316
2.75614
4.58847
3.6642
2.40026
10.8461
2.87642
0.54737
0.254677
0.182777
0.149855
0.146256
0.174209
0.222119
0.302578
0.352926
0.365584
0.371248
0.381017
0.384408
0.378362
0.370173
0.368764
0.369723
0.374524
0.37525
0.373432
0.354766
0.303323
0.243348
0.206568
0.181538
0.166243
0.159017
0.155623
0.154211
0.153586
0.153278
0.153324
0.154946
0.157526
0.160435
0.1664
0.174238
0.17996
0.183882
0.186919
0.197577
0.217674
0.232463
0.237367
0.242348
0.244308
0.244391
0.244267
0.228761
0.20997
0.198823
0.188053
0.182944
0.185093
0.208382
0.297192
0.358468
0.380076
0.409856
0.509772
0.877748
1.13955
1.14009
0.891104
0.551043
0.407087
0.311606
0.260007
0.244439
0.24843
0.258428
0.26177
0.256495
0.231793
0.206689
0.195304
0.191528
0.19164
0.193034
0.196429
0.202558
0.206125
0.207847
0.205939
0.204688
0.18954
0.174338
0.163712
0.160733
0.160611
0.144787
0.130244
0.129706
0.136739
0.144018
0.158527
0.174595
0.182835
0.173284
0.176661
0.176289
0.167508
0.16357
0.164739
0.18285
0.194974
0.205052
0.216724
0.216757
0.223405
0.246429
0.246155
0.251602
0.262985
0.268179
0.280509
0.300884
0.308602
0.320893
0.412961
0.474106
0.560273
0.535728
0.601474
0.756423
0.847856
0.839496
0.719838
0.780789
1.03483
0.92901
0.965826
1.20737
1.91156
2.79137
1.89457
1.53552
1.55993
1.86366
1.7965
1.55017
1.5025
1.62234
1.97966
2.0474
2.016
1.9484
1.93615
2.26956
2.41162
3.10744
3.00633
2.4964
2.57994
2.72567
2.93655
2.83193
2.91161
2.82394
2.36653
2.43977
2.37089
2.34998
2.54381
2.69045
3.1951
3.05947
3.02671
3.06723
3.1749
2.91274
2.50819
2.60958
2.40817
2.59868
4.15099
3.54448
2.36359
11.753
3.24695
0.561198
0.213384
0.156184
0.148206
0.168474
0.215531
0.26832
0.329215
0.358524
0.370224
0.374086
0.37399
0.360297
0.345779
0.336269
0.332414
0.342085
0.364726
0.376198
0.382737
0.383188
0.371102
0.331703
0.268058
0.223014
0.189765
0.173877
0.165974
0.161877
0.159019
0.155255
0.152886
0.152455
0.153465
0.157826
0.166778
0.181072
0.201155
0.223794
0.246058
0.264407
0.287058
0.305893
0.311171
0.318105
0.324691
0.318538
0.31292
0.299352
0.267527
0.229455
0.20112
0.185899
0.18058
0.185888
0.224752
0.274357
0.326915
0.405338
0.598038
0.903833
1.03032
1.02371
0.810482
0.482331
0.339154
0.269864
0.242481
0.239038
0.249116
0.25782
0.255144
0.237609
0.211036
0.200048
0.1936
0.192549
0.19619
0.199055
0.197098
0.199126
0.197805
0.192225
0.182756
0.174834
0.160053
0.140459
0.135883
0.139922
0.138587
0.134904
0.126552
0.122606
0.132457
0.133447
0.144192
0.162221
0.176549
0.174351
0.17405
0.17525
0.167215
0.157373
0.157479
0.163332
0.181494
0.193053
0.20208
0.204914
0.20985
0.227858
0.2287
0.232106
0.247032
0.247058
0.255031
0.295807
0.296945
0.310382
0.389484
0.472056
0.494223
0.494101
0.564201
0.710945
0.695449
0.659071
0.655255
0.767946
1.02207
0.90999
0.960146
1.2291
2.03185
2.56528
1.71835
1.51056
1.52652
1.65156
1.42985
1.40102
1.48441
1.66856
1.9624
1.90263
1.81054
1.75321
1.78458
2.26962
2.83051
4.4732
3.79335
2.50865
2.60166
3.06084
3.10376
2.85214
2.60883
2.36597
2.09603
2.32843
2.44523
2.23905
2.47482
2.5106
3.01344
2.96689
2.61795
2.65988
2.83654
2.57843
2.23648
2.14777
2.14074
2.38071
3.74184
3.26703
2.30765
12.2672
3.33785
0.528676
0.189374
0.150883
0.149499
0.168282
0.211225
0.277751
0.326796
0.347678
0.354655
0.353524
0.331176
0.278905
0.255755
0.248538
0.24935
0.272554
0.304878
0.337124
0.370742
0.387677
0.392178
0.389123
0.367378
0.322549
0.250128
0.206231
0.184414
0.173913
0.168806
0.164067
0.157201
0.153076
0.152249
0.153556
0.159337
0.175762
0.200622
0.229517
0.263897
0.298505
0.320955
0.340405
0.35759
0.372384
0.390749
0.414188
0.434662
0.438692
0.414435
0.356809
0.2845
0.225931
0.195272
0.189971
0.207977
0.245236
0.313407
0.455514
0.634607
0.840755
0.938872
0.929367
0.709861
0.411231
0.294777
0.24884
0.234677
0.240486
0.254906
0.256737
0.243338
0.219376
0.205722
0.199199
0.197085
0.201688
0.205485
0.202918
0.193749
0.185987
0.177108
0.162137
0.147497
0.13375
0.124525
0.124048
0.128843
0.135421
0.134744
0.129705
0.125785
0.117256
0.121775
0.126971
0.128511
0.15304
0.167222
0.173218
0.175263
0.167755
0.162529
0.152543
0.149285
0.154887
0.169024
0.176899
0.187376
0.191271
0.198204
0.219641
0.222654
0.223704
0.240423
0.243038
0.244533
0.288672
0.292196
0.31205
0.346251
0.43791
0.47688
0.455446
0.502218
0.588509
0.570574
0.570183
0.616186
0.758688
0.888818
0.903623
0.941841
1.23143
2.09208
2.46438
1.66953
1.4997
1.45655
1.22322
1.19378
1.40287
1.4806
1.66152
1.70885
1.55524
1.47754
1.44686
1.57998
2.31207
3.31447
5.2968
4.43337
2.63562
2.78109
3.46379
3.35473
2.84186
2.50298
2.28497
1.92646
2.12522
2.4092
2.05163
2.21457
2.49196
2.84265
2.97783
2.5624
2.35968
2.42216
2.34857
2.20377
2.0091
2.01578
2.28159
3.53997
2.94753
2.24234
12.7132
3.78177
0.566962
0.181317
0.14251
0.146176
0.167751
0.215527
0.276635
0.315575
0.328051
0.329581
0.312037
0.27099
0.233558
0.22151
0.218568
0.221689
0.2419
0.275067
0.303731
0.333522
0.375032
0.396792
0.401231
0.402124
0.405226
0.396702
0.302872
0.231218
0.196246
0.180689
0.174028
0.167754
0.158479
0.153929
0.152839
0.153937
0.161212
0.184119
0.221816
0.264231
0.300644
0.321379
0.340027
0.360072
0.377217
0.402162
0.446443
0.482063
0.51845
0.532372
0.52252
0.485424
0.380588
0.271167
0.226311
0.220317
0.242233
0.324386
0.50002
0.639065
0.776035
0.84916
0.832764
0.606821
0.354594
0.26619
0.237582
0.234104
0.247845
0.25645
0.249809
0.230769
0.215496
0.205864
0.204278
0.205388
0.207754
0.207441
0.202888
0.191251
0.174898
0.16007
0.142688
0.131589
0.12022
0.115352
0.119104
0.128027
0.132854
0.133542
0.127487
0.122257
0.112828
0.108305
0.114765
0.122469
0.134801
0.162607
0.163904
0.168572
0.162061
0.149585
0.148283
0.144728
0.147505
0.159607
0.164247
0.17283
0.184976
0.189573
0.209868
0.219627
0.219023
0.229944
0.241725
0.244639
0.265986
0.28802
0.310786
0.304676
0.381059
0.450225
0.427632
0.429457
0.462767
0.488816
0.543282
0.575741
0.73996
0.681534
0.888393
0.928877
1.23067
2.11468
2.3274
1.66697
1.39074
1.21158
1.10256
1.19561
1.41903
1.47746
1.55761
1.50866
1.37038
1.2806
1.31292
1.51699
2.29673
3.31591
4.68874
4.22188
2.98983
3.42341
3.94466
3.46268
2.74193
2.27526
2.10213
1.83798
1.88673
2.20574
2.02646
1.91196
2.48588
2.51692
3.08206
2.58517
2.28141
2.21455
2.2068
2.14249
1.95001
1.96683
2.23566
3.29661
2.73984
2.19318
12.7504
4.1999
0.680787
0.193015
0.135561
0.140862
0.164187
0.195697
0.251472
0.290951
0.301944
0.296573
0.281431
0.25615
0.228067
0.215277
0.212987
0.216944
0.237618
0.279536
0.309366
0.327544
0.357015
0.398151
0.408884
0.410098
0.416624
0.459762
0.480972
0.367159
0.259012
0.205969
0.184128
0.17521
0.16735
0.157529
0.153368
0.152662
0.155026
0.165994
0.201148
0.257222
0.297769
0.317669
0.330834
0.348672
0.368906
0.405081
0.457686
0.495523
0.53894
0.566888
0.574878
0.563652
0.536118
0.441881
0.313219
0.268974
0.271363
0.331309
0.511566
0.645503
0.748353
0.783758
0.751995
0.523624
0.317572
0.249048
0.231053
0.238533
0.254433
0.252997
0.244844
0.227256
0.216051
0.212034
0.212809
0.20951
0.208701
0.204446
0.196131
0.187535
0.165225
0.138227
0.123613
0.116319
0.109508
0.109853
0.117539
0.128079
0.127897
0.130903
0.127882
0.118117
0.10949
0.106505
0.10518
0.115681
0.124377
0.14846
0.156701
0.14829
0.146844
0.142782
0.141615
0.142526
0.145489
0.155753
0.161678
0.166703
0.182121
0.188384
0.197182
0.216953
0.217944
0.219662
0.243809
0.24442
0.250821
0.283271
0.303163
0.296229
0.315593
0.397682
0.402842
0.400657
0.413831
0.453826
0.534688
0.539765
0.643126
0.610751
0.885067
0.943296
1.21742
2.09752
2.3104
1.67526
1.20069
1.05809
1.09718
1.21837
1.44684
1.45749
1.49551
1.50602
1.35903
1.27974
1.27436
1.4955
2.18171
3.18805
2.94779
3.38941
3.66468
4.82264
4.35185
3.36635
2.57564
2.00697
1.84252
1.70574
1.68278
1.90277
2.00344
1.87912
2.32266
2.22406
2.97549
2.52011
2.1811
2.06362
2.07448
2.09031
1.93516
1.94916
2.19182
3.09343
2.57787
2.13222
12.6684
4.24094
0.685739
0.185781
0.136229
0.138629
0.150749
0.169246
0.210992
0.247951
0.27568
0.279237
0.270902
0.255046
0.23577
0.220631
0.220171
0.227823
0.261259
0.352754
0.388533
0.378538
0.364912
0.397843
0.411553
0.41829
0.416753
0.456339
0.539833
0.564884
0.427916
0.274666
0.208096
0.184523
0.176292
0.168901
0.158732
0.154583
0.153915
0.158688
0.17845
0.234157
0.282905
0.305206
0.316182
0.329623
0.353527
0.396189
0.453891
0.489138
0.519341
0.563134
0.583023
0.582819
0.568219
0.538338
0.451465
0.348629
0.322224
0.34793
0.505723
0.657473
0.736133
0.751681
0.697772
0.447407
0.285682
0.235833
0.229999
0.241916
0.256898
0.251161
0.243071
0.228076
0.224465
0.22173
0.21718
0.213818
0.21023
0.202798
0.182227
0.16818
0.140828
0.118532
0.108098
0.104796
0.103532
0.105733
0.116933
0.12443
0.122782
0.122882
0.127238
0.12153
0.108594
0.105269
0.1024
0.105654
0.118528
0.126449
0.140401
0.140127
0.141544
0.14103
0.140403
0.141572
0.145238
0.153319
0.160316
0.165428
0.18022
0.187198
0.194738
0.213586
0.215646
0.219696
0.242545
0.243071
0.250426
0.276748
0.292635
0.290462
0.29854
0.347564
0.36712
0.383804
0.376669
0.431954
0.528135
0.496991
0.532893
0.592176
0.897651
0.963665
1.18586
2.05971
2.28795
1.62414
1.12274
1.04554
1.09844
1.31855
1.43178
1.38009
1.49323
1.52173
1.41979
1.30882
1.26068
1.40397
1.92753
3.10571
2.48954
3.17166
4.7176
5.52065
4.37739
2.8887
2.18562
1.63434
1.56815
1.55408
1.44904
1.56914
1.75973
1.89091
2.03971
2.22054
2.47921
2.25168
2.12088
1.8507
1.93466
2.01874
1.93345
1.93833
2.139
2.98667
2.44723
2.05599
12.4462
4.94244
0.828523
0.206084
0.143261
0.139949
0.151508
0.17395
0.215985
0.24985
0.278247
0.282537
0.274443
0.260668
0.245027
0.233276
0.240943
0.255202
0.32618
0.509151
0.568735
0.517608
0.458346
0.433956
0.445476
0.440657
0.432842
0.435134
0.538895
0.612571
0.609221
0.438431
0.256078
0.197849
0.184349
0.181382
0.173797
0.16351
0.157543
0.155866
0.1605
0.185202
0.242311
0.277237
0.294879
0.306632
0.328701
0.365762
0.427888
0.468036
0.487799
0.514508
0.551761
0.566774
0.565117
0.54929
0.505759
0.410931
0.365554
0.377054
0.506075
0.66761
0.72916
0.730751
0.637409
0.376696
0.260004
0.225144
0.230131
0.248529
0.255943
0.249611
0.243529
0.237133
0.237173
0.226375
0.217044
0.215631
0.212772
0.20294
0.177033
0.157431
0.132644
0.116052
0.10705
0.103684
0.102515
0.10418
0.112769
0.111709
0.112345
0.1176
0.123809
0.123239
0.110697
0.102641
0.0988155
0.0971018
0.104204
0.120256
0.132983
0.136938
0.139989
0.140125
0.139513
0.141277
0.145003
0.150974
0.160304
0.164862
0.177481
0.187058
0.194212
0.208595
0.214929
0.220037
0.239093
0.241231
0.24966
0.267502
0.279262
0.284966
0.290999
0.325652
0.346351
0.358763
0.358725
0.415932
0.509528
0.471495
0.525669
0.583922
0.954353
0.96149
1.13735
1.9869
2.25173
1.50981
1.11187
1.04481
1.11355
1.34783
1.27144
1.23166
1.51212
1.58947
1.58105
1.38715
1.266
1.30249
1.62575
2.77605
2.68315
3.24039
4.87754
4.92465