/*--------------------------------*- C++ -*----------------------------------*\
| =========                 |                                                 |
| \\      /  F ield         | OpenFOAM: The Open Source CFD Toolbox           |
|  \\    /   O peration     | Version:  dev                                   |
|   \\  /    A nd           | Web:      http://www.openfoam.org               |
|    \\/     M anipulation  |                                                 |
\*---------------------------------------------------------------------------*/
FoamFile
{
    version     2.0;
    format      ascii;
    class       volScalarField;
    object      muSgs;
    location    "9.148";
}
// * * * * * * * * * * * * * * * * * * * * * * * * * * * * * * * * * * * * * //

dimensions      [1 -1 -1 0 0 0 0];

internalField   nonuniform List<scalar> 
12225
(
0.000225109
0.000224088
0.000169194
0.000159016
0.000136663
0.000146333
0.000141715
0.000149568
0.000152686
0.000157107
0.000162517
0.000166513
0.00017031
0.00017855
0.000174401
0.000207959
0.000228692
0.000282926
9.85973e-05
0.000194207
0.000179988
0.000188661
0.000162934
0.000173403
0.000153189
0.000164086
0.000150686
0.00015735
0.000150688
0.000151325
0.000152376
0.000141976
0.000147484
0.000130518
0.000171793
0.000203913
3.21528e-05
0.00011174
0.000124666
0.000149051
0.000141628
0.00014584
0.000137794
0.000135347
0.000133443
0.000125016
0.00012669
0.000113011
0.000123097
0.000103296
0.000113946
9.35626e-05
0.000143881
0.000202311
1.12289e-05
4.55652e-05
6.95255e-05
8.10794e-05
9.3443e-05
9.23004e-05
9.79155e-05
9.12381e-05
9.85009e-05
8.8332e-05
9.32358e-05
7.98672e-05
8.84997e-05
7.44704e-05
8.26002e-05
6.9723e-05
9.97277e-05
0.000187991
7.10126e-06
2.15583e-05
3.84428e-05
4.54418e-05
5.88265e-05
5.99537e-05
6.6798e-05
6.31381e-05
6.76041e-05
6.26719e-05
6.57e-05
5.74093e-05
6.25917e-05
5.47646e-05
6.10139e-05
5.3837e-05
7.84163e-05
0.000112706
8.43365e-06
1.36973e-05
2.3122e-05
2.70735e-05
3.76509e-05
3.88318e-05
4.57113e-05
4.2756e-05
4.70002e-05
4.46981e-05
4.76943e-05
4.21678e-05
4.56067e-05
4.14946e-05
4.62292e-05
4.297e-05
5.67538e-05
7.6444e-05
1.23876e-05
1.42633e-05
1.90811e-05
2.12681e-05
2.742e-05
2.80531e-05
3.27012e-05
3.10765e-05
3.42426e-05
3.30907e-05
3.53148e-05
3.193e-05
3.40956e-05
3.17925e-05
3.4598e-05
3.29032e-05
4.15005e-05
4.68024e-05
1.30553e-05
1.46448e-05
1.66802e-05
1.79807e-05
2.08358e-05
2.13382e-05
2.32054e-05
2.28438e-05
2.42117e-05
2.37621e-05
2.44452e-05
2.31143e-05
2.36282e-05
2.25199e-05
2.35394e-05
2.28259e-05
2.63902e-05
2.69042e-05
1.70371e-05
2.06036e-05
2.04742e-05
2.11595e-05
2.23146e-05
2.2745e-05
2.39064e-05
2.38027e-05
2.46416e-05
2.43969e-05
2.44144e-05
2.35434e-05
2.31339e-05
2.21635e-05
2.22275e-05
2.17005e-05
2.30515e-05
2.2969e-05
2.47009e-05
2.90486e-05
2.78273e-05
2.80281e-05
2.67177e-05
2.63752e-05
2.63124e-05
2.63085e-05
2.65098e-05
2.62717e-05
2.60667e-05
2.52157e-05
2.42661e-05
2.31175e-05
2.25718e-05
2.19195e-05
2.19745e-05
2.17777e-05
3.78694e-05
4.1292e-05
3.95995e-05
3.94254e-05
3.6223e-05
3.46801e-05
3.24895e-05
3.17925e-05
3.08422e-05
2.98545e-05
2.87925e-05
2.75058e-05
2.60206e-05
2.48013e-05
2.39043e-05
2.31203e-05
2.27043e-05
2.22483e-05
6.1033e-05
5.97867e-05
5.69688e-05
5.54731e-05
5.14233e-05
4.8613e-05
4.44243e-05
4.26153e-05
4.01139e-05
3.72809e-05
3.41566e-05
3.17168e-05
2.92264e-05
2.75145e-05
2.61212e-05
2.509e-05
2.43397e-05
2.36402e-05
9.16137e-05
8.59418e-05
8.09846e-05
7.68219e-05
7.02731e-05
6.54168e-05
6.03701e-05
5.67036e-05
5.21392e-05
4.82388e-05
4.37549e-05
3.94559e-05
3.56379e-05
3.28369e-05
3.03636e-05
2.86686e-05
2.71208e-05
2.5944e-05
0.000127826
0.000117867
0.000111321
0.000103554
9.4203e-05
8.63538e-05
7.91267e-05
7.30178e-05
6.72847e-05
6.18283e-05
5.65567e-05
5.17447e-05
4.70171e-05
4.28182e-05
3.87263e-05
3.54752e-05
3.22974e-05
2.98598e-05
0.000177993
0.00016286
0.000155271
0.000143551
0.000131582
0.000120492
0.000110078
0.000100366
9.10035e-05
8.21251e-05
7.38197e-05
6.62149e-05
5.92118e-05
5.30786e-05
4.74606e-05
4.27502e-05
3.84618e-05
3.49522e-05
0.00023961
0.000218095
0.00020155
0.000180616
0.000162038
0.00014574
0.00013117
0.000117992
0.000105875
9.47588e-05
8.45812e-05
7.5362e-05
6.69782e-05
5.96627e-05
5.30314e-05
4.74101e-05
4.23538e-05
3.82282e-05
0.000280263
0.000252241
0.000229275
0.000203662
0.000181716
0.000162688
0.000145815
0.000130589
0.000116696
0.000104069
9.25876e-05
8.22723e-05
7.29689e-05
6.48426e-05
5.75236e-05
5.12934e-05
4.56913e-05
4.11249e-05
0.000282821
0.000254209
0.00023108
0.000205094
0.000182846
0.000163554
0.000146446
0.000131018
0.000116974
0.000104154
9.25425e-05
8.21776e-05
7.28777e-05
6.47448e-05
5.74446e-05
5.11896e-05
4.55752e-05
4.09545e-05
0.000243385
0.000224603
0.000208707
0.000186233
0.00016679
0.000149768
0.000134503
0.000120596
0.000107833
9.61119e-05
8.54514e-05
7.5992e-05
6.74787e-05
6.00057e-05
5.32786e-05
4.75039e-05
4.23053e-05
3.79871e-05
0.000191641
0.000178595
0.000168391
0.000153507
0.000139909
0.000127557
0.000115939
0.000104883
9.43705e-05
8.4341e-05
7.51216e-05
6.69321e-05
5.95033e-05
5.29696e-05
4.70657e-05
4.20282e-05
3.75072e-05
3.38272e-05
0.000137528
0.000129756
0.000122065
0.000110592
0.000101234
9.33982e-05
8.58961e-05
7.87701e-05
7.17902e-05
6.41666e-05
5.71402e-05
5.10883e-05
4.57017e-05
4.13249e-05
3.75677e-05
3.45162e-05
3.16446e-05
2.93322e-05
9.75872e-05
9.29917e-05
8.93656e-05
8.30501e-05
7.74476e-05
7.18755e-05
6.58282e-05
5.93736e-05
5.29712e-05
4.82824e-05
4.45891e-05
4.14675e-05
3.86765e-05
3.62338e-05
3.37913e-05
3.15564e-05
2.92885e-05
2.74244e-05
6.65631e-05
6.55171e-05
6.38719e-05
6.05852e-05
5.56757e-05
5.10223e-05
4.8358e-05
4.59037e-05
4.35393e-05
4.16764e-05
3.98938e-05
3.79431e-05
3.6013e-05
3.42006e-05
3.22553e-05
3.05023e-05
2.86711e-05
2.71273e-05
4.49364e-05
4.47929e-05
4.31612e-05
4.10163e-05
4.09589e-05
4.15873e-05
4.1787e-05
4.10578e-05
4.01048e-05
3.92699e-05
3.84583e-05
3.75439e-05
3.64675e-05
3.52332e-05
3.38595e-05
3.25545e-05
3.11829e-05
2.99576e-05
2.57864e-05
2.6839e-05
2.94734e-05
3.29205e-05
3.6199e-05
3.94595e-05
4.14788e-05
4.22436e-05
4.24983e-05
4.27186e-05
4.30313e-05
4.32013e-05
4.29767e-05
4.21486e-05
4.11391e-05
3.99715e-05
3.86897e-05
3.74616e-05
1.3643e-05
1.92366e-05
2.68055e-05
3.56325e-05
4.38276e-05
5.00707e-05
5.38235e-05
5.56459e-05
5.66474e-05
5.74864e-05
5.81415e-05
5.83673e-05
5.79031e-05
5.65984e-05
5.51799e-05
5.35702e-05
5.18318e-05
5.01784e-05
9.69402e-06
2.72529e-05
4.73523e-05
6.35675e-05
7.50292e-05
8.23106e-05
8.54899e-05
8.63472e-05
8.63716e-05
8.60731e-05
8.52721e-05
8.39234e-05
8.17614e-05
7.92114e-05
7.66802e-05
7.39054e-05
7.13375e-05
6.89118e-05
2.62533e-05
7.10916e-05
0.000108471
0.000128447
0.000137013
0.000138796
0.000136622
0.000132486
0.000129152
0.000125978
0.000122289
0.000117916
0.000113166
0.000108568
0.000104339
0.000100057
9.63294e-05
9.21996e-05
9.27809e-05
0.000176789
0.000204277
0.000203478
0.00019635
0.000187732
0.000178688
0.00017113
0.00016397
0.000157285
0.000151075
0.000145213
0.000139985
0.00013499
0.000130345
0.000125678
0.000120894
0.000113145
0.00023986
0.000269791
0.000240441
0.000203709
0.000182178
0.000173028
0.000170072
0.000170162
0.000171937
0.000174079
0.000175954
0.000177156
0.000177609
0.000177389
0.000176612
0.000174558
0.000170554
0.000161461
2.43764e-05
3.59041e-05
3.87783e-05
4.13164e-05
4.20838e-05
4.24672e-05
4.27189e-05
4.28468e-05
4.2909e-05
4.29153e-05
4.31704e-05
4.37844e-05
4.47573e-05
4.60811e-05
4.7771e-05
4.97624e-05
5.20866e-05
5.48915e-05
5.82664e-05
6.19795e-05
6.57703e-05
6.97902e-05
7.45787e-05
8.01276e-05
8.5556e-05
9.15973e-05
9.97873e-05
0.000107991
0.000115571
0.000124639
0.000134406
0.00014385
0.000154342
0.000166069
0.000177644
0.000188531
0.000200712
0.000211161
0.000220608
0.000231466
0.00023827
0.000242274
0.000244673
0.000236164
0.000209687
0.000192917
0.000185242
0.000180027
0.000175215
0.000174553
0.000178724
0.000184301
0.000188377
0.000192195
0.000196247
0.000199899
0.000201024
0.000201121
0.000201919
0.000203697
0.000204996
0.000205777
0.000205949
0.000207693
0.000210834
0.000219283
0.00023226
0.000253652
0.000267984
0.000276751
0.000276927
0.000264596
0.000260275
0.000265693
0.000268911
0.000272163
0.000286991
0.000302533
0.000315295
0.000325787
0.000333933
0.000340492
0.000345471
0.000349338
0.000352006
0.000353912
0.000354342
0.000352987
0.000350161
0.000346053
0.000341054
0.000334534
0.000326373
0.000316945
0.00030665
0.000296785
0.000285887
0.000274204
0.000264761
0.000255836
0.000245853
0.000239659
0.000231876
0.0002255
0.000220814
0.000216569
0.000214102
0.000213022
0.000214159
0.000214298
0.000213428
0.00021572
0.000223743
0.000230275
0.000228809
0.000227866
0.000235058
0.000245246
0.000247927
0.000249101
0.000253605
0.000254581
0.000251851
0.000253786
0.000266363
0.000285744
0.000310111
0.000340887
0.000378283
0.000407057
0.000423626
0.000430354
0.000433379
0.000436367
0.000441583
0.000458767
0.000483196
0.000495744
0.000506199
0.00052269
0.000546044
0.000563781
0.000588491
0.000608458
0.000620963
0.000626878
0.000632797
0.000664994
0.000711372
0.000759887
0.000784783
0.000801484
0.000806135
0.000795666
0.000752909
0.000758443
0.000784157
0.000779715
0.000772026
0.000735831
0.0007068
0.000717281
0.000738134
0.000740948
0.000729136
0.000684079
0.000615855
0.000542389
0.000526055
0.000549631
0.000588404
0.000660926
0.000761285
0.000823781
0.000808627
0.000768503
0.000794833
0.000877483
0.0010232
0.00115534
5.32428e-05
3.60739e-05
3.52052e-05
3.69753e-05
3.71683e-05
3.69674e-05
3.67815e-05
3.65483e-05
3.55931e-05
3.40415e-05
3.35127e-05
3.34558e-05
3.37192e-05
3.43673e-05
3.53456e-05
3.61027e-05
3.67139e-05
3.73656e-05
3.81655e-05
3.92296e-05
4.0292e-05
4.10008e-05
4.15423e-05
4.24177e-05
4.32125e-05
4.39345e-05
4.53603e-05
4.67422e-05
4.78119e-05
4.96492e-05
5.09276e-05
5.19076e-05
5.42227e-05
5.63517e-05
5.84978e-05
6.39913e-05
6.86795e-05
7.536e-05
8.57793e-05
9.39981e-05
0.000109787
0.00012256
0.000141858
0.000161524
0.000166364
0.000165844
0.000165626
0.000160079
0.000141345
0.000127822
0.000122942
0.000122366
0.000124969
0.000125863
0.000123995
0.000120331
0.000116274
0.000111362
0.000105131
0.00010403
0.00010574
0.000106095
0.000100833
9.7815e-05
0.000104247
0.000115547
0.000119794
0.000121512
0.000128426
0.000143154
0.000153401
0.000171977
0.000216579
0.000244882
0.000258744
0.000268731
0.000270976
0.00026388
0.000252629
0.000239913
0.00022795
0.000216758
0.000207389
0.000199519
0.000193488
0.00018718
0.000180366
0.000173806
0.000167261
0.00016173
0.000157014
0.000151937
0.000147722
0.000143112
0.000139359
0.000136604
0.000132739
0.00013034
0.000129722
0.000130238
0.000130593
0.000131607
0.00013141
0.000131802
0.000133006
0.000133098
0.00013436
0.000134768
0.000138235
0.000142986
0.000143678
0.000142837
0.000147851
0.000159965
0.000164603
0.000164272
0.000166396
0.000175054
0.000183686
0.000188219
0.000194529
0.000206518
0.000211863
0.000203027
0.000197088
0.000201184
0.000218393
0.000243774
0.000264581
0.000281944
0.000302196
0.000317009
0.000320033
0.000319116
0.000320025
0.000330657
0.000363477
0.000369965
0.000360207
0.000359312
0.000386155
0.000398766
0.000408623
0.00043005
0.000441003
0.000442795
0.000424323
0.000424252
0.000442392
0.000466557
0.000488892
0.000518198
0.000540741
0.000564298
0.000567042
0.000569611
0.0005793
0.000581992
0.000592172
0.00059814
0.000606925
0.000628022
0.000643352
0.000647101
0.000645051
0.000628897
0.000599348
0.000565601
0.000584544
0.000603846
0.000609261
0.000638035
0.000647466
0.000736342
0.000754615
0.000768575
0.000705474
0.000671682
0.000693307
0.000702734
8.91228e-05
4.38264e-05
3.26152e-05
3.29598e-05
3.53557e-05
3.67467e-05
3.67027e-05
3.58805e-05
3.37857e-05
3.17136e-05
3.08869e-05
3.08121e-05
3.12296e-05
3.22809e-05
3.34433e-05
3.41188e-05
3.4785e-05
3.54895e-05
3.61913e-05
3.691e-05
3.75781e-05
3.81109e-05
3.86089e-05
3.94112e-05
4.05364e-05
4.14717e-05
4.24601e-05
4.36267e-05
4.43643e-05
4.45385e-05
4.46629e-05
4.45984e-05
4.45767e-05
4.45036e-05
4.39416e-05
4.38515e-05
4.43649e-05
4.46926e-05
4.62697e-05
4.83084e-05
5.19949e-05
5.81788e-05
6.52509e-05
7.96681e-05
9.17998e-05
0.000103334
0.000118868
0.000127715
0.000130171
0.000130781
0.000124984
0.000113444
0.000105544
9.71411e-05
8.63196e-05
7.59009e-05
6.89171e-05
6.48521e-05
6.37004e-05
6.46494e-05
7.02094e-05
7.29284e-05
7.44272e-05
8.10608e-05
9.5905e-05
0.000118983
0.000127794
0.000135093
0.000152819
0.000172334
0.000192224
0.000210699
0.000217321
0.000209371
0.000196443
0.000179772
0.000164915
0.000149232
0.000135793
0.000123933
0.000114911
0.000107754
0.000102774
9.93444e-05
9.73222e-05
9.49575e-05
9.27744e-05
9.11501e-05
8.99264e-05
8.95074e-05
8.94985e-05
8.95076e-05
9.01596e-05
9.01534e-05
9.02772e-05
9.10665e-05
9.20528e-05
9.26805e-05
9.29879e-05
9.45561e-05
9.65907e-05
9.93369e-05
0.000100252
0.000102447
0.000104365
0.000104325
0.000105653
0.000105305
0.000106098
0.000110761
0.000112643
0.000108665
0.000108687
0.000120963
0.000129921
0.000127996
0.000126049
0.000135038
0.000148205
0.000151218
0.000154418
0.000171492
0.000189646
0.000184163
0.000177474
0.000173967
0.0001745
0.000190888
0.000215122
0.000228132
0.000242047
0.000255466
0.000266494
0.000269575
0.000270159
0.000289551
0.000313229
0.000312868
0.00030543
0.00030142
0.000316636
0.000334161
0.000352479
0.000366741
0.000368304
0.000361298
0.000338489
0.000325859
0.000353815
0.000375962
0.000381552
0.000410144
0.000444357
0.000474673
0.00048458
0.000495191
0.000516591
0.000514243
0.000523235
0.000535584
0.000553008
0.000570183
0.000575726
0.000589313
0.000605972
0.000612672
0.000606506
0.000586744
0.00059678
0.000614258
0.000619259
0.000614677
0.000636802
0.000676485
0.000634625
0.00083696
0.000766391
0.000641914
0.000587409
0.000561265
0.000129571
6.31191e-05
3.43896e-05
3.21137e-05
3.55787e-05
3.87588e-05
3.88752e-05
3.63202e-05
3.32611e-05
3.14059e-05
3.07659e-05
3.07913e-05
3.15345e-05
3.29495e-05
3.39625e-05
3.46889e-05
3.56555e-05
3.68642e-05
3.78017e-05
3.84263e-05
3.88582e-05
3.95432e-05
4.08594e-05
4.22996e-05
4.34937e-05
4.42807e-05
4.48318e-05
4.5234e-05
4.54781e-05
4.54182e-05
4.49853e-05
4.4785e-05
4.42951e-05
4.34876e-05
4.2726e-05
4.21355e-05
4.15248e-05
4.07743e-05
4.09385e-05
4.13262e-05
4.16114e-05
4.28812e-05
4.47059e-05
4.84836e-05
5.39416e-05
6.21297e-05
7.62433e-05
8.33456e-05
9.674e-05
0.000109737
0.000114877
0.000116948
0.000112803
9.94454e-05
8.51675e-05
7.26359e-05
6.39784e-05
5.88826e-05
5.71161e-05
5.77414e-05
6.1497e-05
6.30983e-05
6.90138e-05
8.53078e-05
0.000117358
0.000134358
0.000139277
0.000143847
0.000157808
0.000167716
0.000173246
0.000165999
0.000153984
0.000139912
0.000124817
0.000108982
9.84509e-05
8.93928e-05
8.32053e-05
7.91202e-05
7.64505e-05
7.49434e-05
7.42625e-05
7.38752e-05
7.38492e-05
7.37953e-05
7.41293e-05
7.47285e-05
7.57701e-05
7.65243e-05
7.71426e-05
7.72621e-05
7.75663e-05
7.83196e-05
7.90004e-05
8.01515e-05
8.15375e-05
8.13446e-05
8.15811e-05
8.26316e-05
8.45659e-05
8.77944e-05
8.88041e-05
9.1082e-05
9.45439e-05
9.47726e-05
9.56494e-05
9.63328e-05
9.63495e-05
9.74471e-05
0.000100334
9.91164e-05
9.43658e-05
9.9299e-05
0.000113817
0.000114497
0.00010723
0.000113808
0.00013261
0.00013314
0.000132854
0.000149956
0.000168372
0.000175653
0.000183661
0.000183567
0.000176311
0.000171406
0.000181628
0.000200272
0.000214275
0.000226925
0.000237446
0.000243209
0.000245834
0.000266698
0.000285799
0.000298761
0.000300063
0.000293589
0.000286792
0.000295142
0.00032648
0.000334824
0.000339754
0.000332519
0.000311335
0.000295734
0.000319212
0.000334497
0.000340544
0.000371509
0.000399611
0.000424411
0.000448594
0.000484614
0.000484032
0.000486519
0.000493282
0.00049622
0.000508668
0.00051623
0.000508109
0.000510866
0.000536268
0.000579216
0.000586612
0.000585808
0.000576146
0.000585929
0.000593635
0.000557197
0.000592224
0.000573567
0.000538525
0.000767495
0.000818348
0.000666721
0.000550016
0.000500121
0.000164119
8.47208e-05
3.91009e-05
3.28052e-05
3.74068e-05
4.20783e-05
3.98032e-05
3.56986e-05
3.2512e-05
3.12484e-05
3.08386e-05
3.16219e-05
3.33067e-05
3.50728e-05
3.64727e-05
3.78683e-05
3.93755e-05
4.07351e-05
4.16171e-05
4.21531e-05
4.27441e-05
4.37922e-05
4.43421e-05
4.45279e-05
4.4758e-05
4.5093e-05
4.54211e-05
4.55894e-05
4.56967e-05
4.57158e-05
4.53089e-05
4.50265e-05
4.45396e-05
4.33995e-05
4.24665e-05
4.143e-05
4.01914e-05
3.92245e-05
3.88026e-05
3.86549e-05
3.8906e-05
3.94907e-05
4.02381e-05
4.1084e-05
4.25672e-05
4.48848e-05
4.96016e-05
5.91352e-05
6.55148e-05
7.26516e-05
8.93727e-05
0.000100816
0.000104346
0.000105087
9.59146e-05
8.13181e-05
6.96713e-05
6.39218e-05
6.10993e-05
6.01531e-05
6.12756e-05
6.39436e-05
7.23539e-05
9.8347e-05
0.000124121
0.000133424
0.000137526
0.000139357
0.000139199
0.000136617
0.000129808
0.00011577
0.000104947
9.24947e-05
8.36544e-05
7.56847e-05
7.20622e-05
6.96933e-05
6.87141e-05
6.83322e-05
6.81674e-05
6.81727e-05
6.81928e-05
6.82563e-05
6.82551e-05
6.79804e-05
6.83355e-05
6.86068e-05
6.98871e-05
7.05508e-05
7.0497e-05
7.02644e-05
6.95844e-05
7.03745e-05
7.16397e-05
7.26068e-05
7.28969e-05
7.13898e-05
7.09673e-05
7.10166e-05
7.16764e-05
7.48857e-05
7.74805e-05
7.77238e-05
8.22295e-05
8.64877e-05
8.81439e-05
8.90939e-05
9.07626e-05
9.1349e-05
9.21953e-05
9.38882e-05
9.16587e-05
8.93562e-05
0.000102657
0.000108591
0.000101872
0.000101224
0.000119324
0.000124313
0.000124205
0.000135587
0.000153645
0.000161164
0.00017886
0.000186437
0.000183257
0.000174555
0.000168033
0.000175209
0.000196328
0.00021059
0.000219321
0.0002251
0.000228465
0.000241327
0.000265713
0.000300404
0.000305295
0.000302498
0.000291894
0.000276098
0.000300782
0.000307127
0.000313571
0.000306983
0.00029231
0.000280494
0.000299386
0.000310176
0.000326294
0.000356006
0.000373309
0.00039817
0.000431462
0.000469277
0.000432849
0.000471613
0.000478825
0.000472365
0.000465994
0.000467655
0.00046662
0.000448836
0.000451886
0.000510649
0.000546074
0.00056458
0.000545779
0.000548284
0.000554287
0.000506331
0.000536071
0.000483377
0.000488246
0.000572963
0.000666675
0.000729234
0.000534873
0.000466153
0.000193374
9.96799e-05
4.46261e-05
3.58643e-05
4.23813e-05
4.23183e-05
3.82905e-05
3.35429e-05
3.19283e-05
3.14441e-05
3.25191e-05
3.46794e-05
3.71194e-05
3.95632e-05
4.13947e-05
4.37753e-05
4.53836e-05
4.60313e-05
4.61654e-05
4.59768e-05
4.5706e-05
4.51597e-05
4.45529e-05
4.4112e-05
4.37981e-05
4.34544e-05
4.30998e-05
4.29128e-05
4.28409e-05
4.31198e-05
4.32083e-05
4.29055e-05
4.29616e-05
4.26027e-05
4.20259e-05
4.08134e-05
3.9649e-05
3.90494e-05
3.84487e-05
3.81059e-05
3.84725e-05
3.89419e-05
3.92879e-05
3.9934e-05
4.09666e-05
4.19678e-05
4.30103e-05
4.58575e-05
4.9172e-05
5.3597e-05
5.92465e-05
7.09908e-05
8.72713e-05
9.3131e-05
9.31484e-05
9.15685e-05
8.29488e-05
7.50043e-05
6.90312e-05
6.81076e-05
6.88307e-05
7.01441e-05
7.70899e-05
0.000108583
0.000127962
0.00013108
0.000127515
0.00011723
0.00011106
0.00010418
9.49152e-05
8.51201e-05
7.66462e-05
7.01439e-05
6.69963e-05
6.56e-05
6.52951e-05
6.52723e-05
6.52489e-05
6.52527e-05
6.53242e-05
6.54303e-05
6.53647e-05
6.55081e-05
6.54465e-05
6.48951e-05
6.49676e-05
6.4797e-05
6.47539e-05
6.50164e-05
6.37185e-05
6.31315e-05
6.27087e-05
6.28915e-05
6.33807e-05
6.41222e-05
6.34702e-05
6.36004e-05
6.3783e-05
6.26516e-05
6.19941e-05
6.26586e-05
6.78356e-05
6.92003e-05
7.08914e-05
7.4507e-05
8.0032e-05
8.09327e-05
8.17499e-05
8.5109e-05
8.53455e-05
8.52598e-05
8.61651e-05
8.4634e-05
9.10191e-05
0.000100779
9.98334e-05
9.5737e-05
0.000105275
0.000115145
0.00011809
0.000123901
0.000132385
0.000146246
0.000171073
0.000173653
0.000174009
0.000169589
0.000161129
0.000159681
0.000179151
0.000192742
0.000203173
0.000212907
0.000213169
0.000221743
0.000256713
0.000301303
0.000315097
0.000296662
0.000285474
0.000268255
0.000273457
0.000278204
0.000283842
0.000283617
0.000277099
0.00026861
0.000279497
0.000296783
0.000326599
0.000337734
0.000349307
0.000380823
0.000415573
0.000445963
0.000370867
0.000446276
0.00046964
0.000463038
0.000418622
0.000395844
0.000408781
0.000414418
0.000406382
0.000436019
0.000496886
0.000537151
0.000521238
0.000517894
0.000515702
0.00048472
0.000481513
0.000462576
0.000494088
0.000472542
0.000460263
0.000736397
0.000528102
0.000444547
0.000218139
0.000111014
4.95248e-05
4.25371e-05
4.33477e-05
4.02841e-05
3.48604e-05
3.2651e-05
3.22461e-05
3.31829e-05
3.59141e-05
3.88723e-05
4.22523e-05
4.61991e-05
4.82817e-05
4.94633e-05
4.9879e-05
4.94906e-05
4.82974e-05
4.68858e-05
4.56578e-05
4.41484e-05
4.24603e-05
4.10777e-05
4.01072e-05
3.92586e-05
3.85083e-05
3.80977e-05
3.81305e-05
3.8432e-05
3.88226e-05
3.90256e-05
3.92089e-05
3.93514e-05
3.9339e-05
3.88491e-05
3.813e-05
3.80003e-05
3.84011e-05
3.86239e-05
3.91023e-05
3.99367e-05
4.03942e-05
4.08004e-05
4.13126e-05
4.19383e-05
4.25236e-05
4.34436e-05
4.48051e-05
4.59106e-05
4.75229e-05
5.03974e-05
5.83593e-05
7.44971e-05
8.21926e-05
8.46787e-05
8.38227e-05
7.93233e-05
7.56166e-05
7.29242e-05
7.0142e-05
7.18371e-05
8.2451e-05
0.000116171
0.000128031
0.000123751
0.000109687
9.80224e-05
9.13768e-05
8.38554e-05
7.46367e-05
6.85334e-05
6.41376e-05
6.26312e-05
6.2492e-05
6.27388e-05
6.27868e-05
6.28344e-05
6.23094e-05
6.16235e-05
6.08224e-05
6.02406e-05
5.98047e-05
6.01154e-05
6.03918e-05
6.08727e-05
6.10264e-05
6.12166e-05
6.12182e-05
6.13522e-05
6.01749e-05
5.88727e-05
5.82692e-05
5.82039e-05
5.78422e-05
5.87924e-05
5.8437e-05
5.96297e-05
5.99138e-05
5.89552e-05
5.84909e-05
5.8412e-05
6.00146e-05
6.20665e-05
6.55246e-05
6.8048e-05
7.18552e-05
7.62766e-05
7.58049e-05
7.69365e-05
8.00102e-05
7.97822e-05
7.94453e-05
7.92179e-05
8.13658e-05
8.91703e-05
9.11099e-05
8.91528e-05
8.96605e-05
0.000102572
0.000109772
0.000113262
0.000113748
0.000124334
0.00014888
0.000154457
0.000159198
0.000161163
0.00015271
0.000148074
0.000154337
0.00017106
0.000187681
0.000197695
0.000201031
0.000223539
0.000273392
0.000292013
0.000292796
0.000284218
0.000269074
0.000249303
0.000244237
0.000245591
0.000250255
0.000257949
0.000266426
0.000263606
0.000263843
0.000289458
0.000319217
0.000307675
0.00031976
0.000351246
0.000395489
0.00040149
0.000309307
0.00040028
0.000428524
0.000470775
0.000393328
0.000334661
0.000340001
0.000365721
0.000373138
0.000387304
0.000443233
0.000509465
0.000500503
0.000490125
0.000483174
0.0004698
0.00047345
0.000464173
0.000460669
0.000440931
0.000456308
0.000635085
0.000522422
0.000429074
0.000239093
0.000121834
5.61442e-05
4.46056e-05
4.19397e-05
3.63558e-05
3.36861e-05
3.27935e-05
3.36382e-05
3.73575e-05
4.13252e-05
4.63264e-05
5.05092e-05
5.22282e-05
5.25909e-05
5.23952e-05
5.24302e-05
5.20074e-05
5.06695e-05
4.89557e-05
4.70839e-05
4.49123e-05
4.25623e-05
4.0918e-05
3.95971e-05
3.85511e-05
3.75162e-05
3.69153e-05
3.68269e-05
3.7028e-05
3.7368e-05
3.76815e-05
3.79481e-05
3.82357e-05
3.83417e-05
3.81603e-05
3.79911e-05
3.8072e-05
3.85482e-05
3.92459e-05
4.00444e-05
4.09262e-05
4.16425e-05
4.25902e-05
4.40147e-05
4.56647e-05
4.69815e-05
4.71589e-05
4.66812e-05
4.62617e-05
4.6558e-05
4.63596e-05
4.70746e-05
5.05302e-05
6.07709e-05
7.20482e-05
7.63251e-05
7.70124e-05
7.73891e-05
7.36346e-05
7.03158e-05
7.23592e-05
8.93534e-05
0.000120082
0.000125898
0.000116075
9.64816e-05
8.71345e-05
7.91794e-05
7.12368e-05
6.35685e-05
6.04558e-05
5.97537e-05
6.01251e-05
6.07117e-05
6.08196e-05
6.00137e-05
5.80929e-05
5.58741e-05
5.40444e-05
5.34475e-05
5.37847e-05
5.43494e-05
5.54988e-05
5.62299e-05
5.66144e-05
5.67683e-05
5.72427e-05
5.79853e-05
5.8605e-05
5.78475e-05
5.61352e-05
5.44626e-05
5.37264e-05
5.19049e-05
5.16601e-05
5.29262e-05
5.66356e-05
5.71333e-05
5.67363e-05
5.62431e-05
5.62928e-05
5.66152e-05
5.71173e-05
5.81423e-05
6.40648e-05
6.50158e-05
6.74172e-05
7.08568e-05
7.01886e-05
7.2568e-05
7.56004e-05
7.61382e-05
7.55742e-05
7.69709e-05
7.91811e-05
8.21464e-05
8.23498e-05
8.31364e-05
8.82662e-05
9.60513e-05
9.92058e-05
0.000107483
0.000117672
0.000123443
0.000129753
0.000145073
0.000153605
0.000147896
0.000137058
0.000138228
0.000161136
0.00017259
0.000182563
0.000190667
0.000235798
0.000300138
0.00026303
0.000232312
0.000233851
0.000246013
0.000238144
0.000226599
0.000224314
0.000231047
0.00024339
0.000259643
0.000261581
0.000258102
0.00027935
0.000304548
0.000290204
0.000312428
0.000338613
0.000373504
0.000354329
0.000301337
0.000337696
0.000358713
0.000443384
0.000395285
0.000337028
0.000326779
0.000322913
0.000350123
0.000364058
0.000395674
0.000477299
0.000486486
0.00046799
0.000458665
0.000453081
0.000471313
0.000461604
0.000446306
0.000417816
0.000382191
0.000503087
0.000515725
0.000416861
0.000256624
0.000132668
6.04814e-05
4.42804e-05
3.84443e-05
3.47658e-05
3.36873e-05
3.41247e-05
3.6786e-05
4.20035e-05
4.77814e-05
5.06847e-05
5.239e-05
5.38122e-05
5.45634e-05
5.43264e-05
5.3605e-05
5.35413e-05
5.36575e-05
5.34807e-05
5.24406e-05
5.01629e-05
4.6885e-05
4.34416e-05
4.0522e-05
3.86843e-05
3.72674e-05
3.65185e-05
3.63259e-05
3.64496e-05
3.67623e-05
3.71673e-05
3.7498e-05
3.78765e-05
3.82556e-05
3.83246e-05
3.86426e-05
3.90445e-05
3.91541e-05
3.93804e-05
3.98365e-05
4.06449e-05
4.21847e-05
4.46066e-05
4.65936e-05
4.83791e-05
4.95613e-05
4.98409e-05
4.99728e-05
4.97579e-05
4.89105e-05
4.73689e-05
4.67456e-05
4.70608e-05
4.73979e-05
5.21155e-05
6.3134e-05
6.94523e-05
7.27723e-05
7.22433e-05
7.05149e-05
7.43801e-05
9.77347e-05
0.000120652
0.000122908
0.000109376
8.87687e-05
7.92321e-05
7.02181e-05
6.24056e-05
5.81799e-05
5.76588e-05
5.84601e-05
5.91004e-05
5.90831e-05
5.77993e-05
5.48033e-05
5.1748e-05
5.10445e-05
5.12516e-05
5.17073e-05
5.25796e-05
5.37332e-05
5.48511e-05
5.57978e-05
5.62218e-05
5.61898e-05
5.57091e-05
5.57319e-05
5.61222e-05
5.57477e-05
5.47179e-05
5.14525e-05
4.98704e-05
4.93458e-05
4.88494e-05
5.02364e-05
5.44349e-05
5.54838e-05
5.58691e-05
5.46107e-05
5.55479e-05
5.55342e-05
5.49676e-05
5.56525e-05
5.79642e-05
6.15662e-05
6.20456e-05
6.43747e-05
6.56259e-05
6.56623e-05
6.92655e-05
7.15231e-05
7.13859e-05
7.28549e-05
7.48604e-05
7.71569e-05
7.72408e-05
7.90449e-05
8.21576e-05
8.23093e-05
9.23706e-05
0.000104592
0.000113822
0.000104599
0.000110849
0.000130738
0.00014301
0.000140854
0.00012716
0.000136977
0.000155808
0.000163415
0.00017549
0.000184939
0.000245102
0.000276469
0.000235667
0.000188254
0.000197178
0.000225417
0.000219407
0.000212683
0.000213219
0.000224551
0.000242395
0.000255708
0.000256996
0.000255048
0.000267788
0.000289464
0.000283233
0.000316993
0.000338458
0.000351152
0.000329212
0.000316785
0.000323745
0.000342226
0.000392479
0.00037602
0.000333069
0.000333827
0.000318164
0.000323405
0.000349367
0.000365019
0.000437061
0.000468343
0.000453437
0.00043949
0.000434785
0.000451482
0.000429299
0.000418503
0.000407463
0.000344174
0.000468652
0.00049532
0.00040407
0.000270358
0.000140545
6.17826e-05
4.24145e-05
3.6301e-05
3.314e-05
3.31548e-05
3.69446e-05
4.20588e-05
4.82151e-05
5.13646e-05
5.29212e-05
5.35479e-05
5.32718e-05
5.34839e-05
5.40599e-05
5.37054e-05
5.34311e-05
5.369e-05
5.42709e-05
5.46478e-05
5.46031e-05
5.34993e-05
4.98474e-05
4.48248e-05
4.15301e-05
3.90629e-05
3.7458e-05
3.67448e-05
3.64928e-05
3.65574e-05
3.67795e-05
3.70714e-05
3.73417e-05
3.78427e-05
3.84595e-05
3.90166e-05
4.00295e-05
4.12825e-05
4.21891e-05
4.28767e-05
4.34033e-05
4.47951e-05
4.71796e-05
4.89249e-05
4.97453e-05
5.05483e-05
5.1214e-05
5.17502e-05
5.20741e-05
5.1253e-05
4.90446e-05
4.81407e-05
4.79547e-05
4.66961e-05
4.69428e-05
4.96032e-05
5.83626e-05
6.47856e-05
6.68425e-05
6.9371e-05
7.83045e-05
0.000103072
0.000117633
0.000117921
0.000104041
8.27182e-05
7.2147e-05
6.29183e-05
5.73021e-05
5.60283e-05
5.67224e-05
5.74937e-05
5.72341e-05
5.63692e-05
5.36042e-05
5.10572e-05
5.02773e-05
5.05014e-05
5.10171e-05
5.13863e-05
5.18486e-05
5.28516e-05
5.35123e-05
5.40428e-05
5.43148e-05
5.44583e-05
5.3262e-05
5.12194e-05
5.02897e-05
4.99151e-05
4.99251e-05
4.76771e-05
4.56279e-05
4.55045e-05
4.71245e-05
4.84706e-05
5.1098e-05
5.34453e-05
5.47321e-05
5.43538e-05
5.46102e-05
5.54166e-05
5.43335e-05
5.41189e-05
5.45799e-05
5.69681e-05
5.91383e-05
6.08648e-05
6.24391e-05
6.30619e-05
6.37526e-05
6.69668e-05
6.7721e-05
6.87764e-05
6.96391e-05
7.14807e-05
7.19683e-05
7.60067e-05
7.75999e-05
7.5986e-05
8.86744e-05
0.000100697
0.000105295
0.000102016
0.000112288
0.000128045
0.000131266
0.000127175
0.000118168
0.000135207
0.000149817
0.000156917
0.000167948
0.000186866
0.000229353
0.000241866
0.000197472
0.000196414
0.000205517
0.000215496
0.000201899
0.000197482
0.000206717
0.000228134
0.000250771
0.000252497
0.000250897
0.000249498
0.000255406
0.000277652
0.000289652
0.000339759
0.000349197
0.000332151
0.000313656
0.000324329
0.000333693
0.000344735
0.000331513
0.000330058
0.000308511
0.000322967
0.00032449
0.000301618
0.000330134
0.000338432
0.000394963
0.000431168
0.00042875
0.000418791
0.000417755
0.000426397
0.000360804
0.000358777
0.000373389
0.000336036
0.000434875
0.000469073
0.000389401
0.000281158
0.000148899
6.23258e-05
3.88132e-05
3.35908e-05
3.31907e-05
3.60991e-05
4.10057e-05
4.50499e-05
4.91547e-05
5.14266e-05
5.2882e-05
5.30579e-05
5.29328e-05
5.23638e-05
5.12955e-05
5.08407e-05
5.11865e-05
5.19537e-05
5.3876e-05
5.51177e-05
5.55785e-05
5.60247e-05
5.54115e-05
5.25751e-05
4.75946e-05
4.35285e-05
4.02509e-05
3.85645e-05
3.76984e-05
3.73114e-05
3.71623e-05
3.702e-05
3.70669e-05
3.73117e-05
3.77488e-05
3.85564e-05
3.98354e-05
4.1754e-05
4.42781e-05
4.69307e-05
4.94546e-05
5.14937e-05
5.38516e-05
5.58433e-05
5.65283e-05
5.73409e-05
5.83353e-05
5.81181e-05
5.79939e-05
5.76911e-05
5.46625e-05
5.14572e-05
4.90729e-05
4.69497e-05
4.66865e-05
4.69428e-05
5.12216e-05
5.69671e-05
6.19189e-05
6.90925e-05
8.46495e-05
0.000103965
0.00011134
0.000111333
9.89735e-05
7.70786e-05
6.52285e-05
5.79383e-05
5.52282e-05
5.54133e-05
5.6207e-05
5.65498e-05
5.58435e-05
5.43171e-05
5.16204e-05
5.08284e-05
5.04667e-05
5.07312e-05
5.13863e-05
5.1698e-05
5.14214e-05
5.19786e-05
5.19676e-05
5.14587e-05
5.04371e-05
4.91853e-05
4.76333e-05
4.50133e-05
4.4827e-05
4.59002e-05
4.58687e-05
4.51688e-05
4.4509e-05
4.37535e-05
4.56965e-05
4.65437e-05
4.83666e-05
5.19883e-05
5.34173e-05
5.43585e-05
5.46667e-05
5.45435e-05
5.41627e-05
5.27357e-05
5.26793e-05
5.40085e-05