/*--------------------------------*- C++ -*----------------------------------*\
| =========                 |                                                 |
| \\      /  F ield         | OpenFOAM: The Open Source CFD Toolbox           |
|  \\    /   O peration     | Version:  dev                                   |
|   \\  /    A nd           | Web:      http://www.openfoam.org               |
|    \\/     M anipulation  |                                                 |
\*---------------------------------------------------------------------------*/
FoamFile
{
    version     2.0;
    format      ascii;
    class       volScalarField;
    object      p;
    location    "9.148";
}
// * * * * * * * * * * * * * * * * * * * * * * * * * * * * * * * * * * * * * //

dimensions      [1 -1 -2 0 0 0 0];

internalField   nonuniform List<scalar> 
12225
(
103632
103634
103625
103600
103547
103470
103361
103228
103063
102875
102655
102416
102145
101857
101532
101193
100733
100123
103628
103637
103627
103603
103548
103471
103362
103229
103064
102876
102656
102417
102146
101858
101533
101189
100744
100281
103631
103643
103633
103608
103552
103475
103365
103232
103066
102878
102658
102419
102148
101860
101536
101190
100773
100364
103637
103652
103642
103616
103559
103481
103370
103236
103070
102881
102662
102423
102153
101865
101544
101198
100809
100431
103650
103665
103655
103627
103569
103489
103377
103242
103075
102885
102668
102428
102161
101873
101561
101220
100860
100483
103666
103682
103672
103642
103582
103500
103387
103250
103083
102892
102675
102435
102172
101886
101582
101252
100919
100566
103686
103704
103694
103660
103600
103514
103401
103260
103093
102900
102684
102444
102185
101903
101608
101292
100980
100665
103710
103728
103718
103681
103620
103530
103415
103271
103104
102909
102694
102454
102197
101921
101633
101331
101035
100742
103737
103754
103743
103703
103640
103547
103430
103283
103114
102919
102704
102465
102210
101938
101658
101367
101082
100805
103776
103788
103776
103732
103666
103569
103448
103298
103127
102930
102714
102477
102225
101958
101684
101405
101130
100865
103827
103833
103817
103768
103697
103596
103471
103318
103143
102944
102726
102490
102240
101979
101711
101443
101177
100921
103891
103889
103867
103814
103736
103630
103498
103341
103161
102959
102739
102504
102256
101999
101737
101476
101219
100971
103969
103960
103929
103869
103783
103669
103529
103366
103180
102974
102751
102514
102267
102013
101756
101501
101251
101009
104055
104042
104002
103934
103836
103712
103563
103390
103196
102984
102756
102516
102268
102017
101763
101512
101266
101028
104157
104137
104085
104003
103893
103756
103594
103409
103204
102982
102747
102502
102251
101998
101745
101496
101252
101016
104261
104236
104171
104074
103946
103792
103613
103412
103193
102959
102713
102460
102203
101945
101690
101439
101195
100959
104353
104324
104247
104131
103983
103807
103606
103385
103147
102897
102637
102372
102106
101841
101580
101324
101077
100838
104426
104386
104292
104156
103985
103784
103559
103315
103056
102786
102511
102232
101954
101679
101410
101148
100895
100652
104462
104409
104301
104146
103952
103729
103481
103215
102936
102649
102358
102066
101777
101493
101215
100947
100688
100440
104480
104413
104287
104114
103902
103659
103392
103109
102814
102512
102208
101905
101606
101314
101029
100755
100491
100239
104488
104403
104262
104074
103846
103587
103306
103008
102701
102388
102073
101761
101454
101155
100865
100586
100318
100062
104484
104386
104234
104032
103792
103521
103228
102920
102603
102281
101959
101640
101327
101022
100728
100445
100174
99915.7
104475
104368
104206
103995
103745
103465
103164
102848
102524
102195
101867
101543
101225
100916
100618
100332
100059
99799.2
104461
104351
104182
103964
103707
103421
103114
102792
102462
102129
101796
101468
101147
100835
100535
100246
99971.4
99709.7
104454
104338
104163
103941
103679
103389
103077
102751
102417
102080
101744
101413
101089
100775
100473
100183
99906.5
99643.6
104448
104329
104151
103924
103660
103366
103051
102722
102385
102046
101707
101374
101048
100733
100429
100138
99860.5
99596.7
104448
104324
104143
103914
103647
103351
103034
102703
102364
102023
101682
101348
101021
100704
100400
100108
99829.6
99565.1
104449
104322
104139
103908
103640
103343
103024
102692
102352
102008
101667
101331
101004
100686
100381
100089
99810.3
99545.4
104455
104323
104137
103905
103636
103338
103019
102686
102345
102001
101659
101323
100994
100677
100371
100079
99799.8
99534.7
104461
104325
104138
103905
103635
103337
103017
102684
102342
101998
101656
101319
100991
100673
100368
100075
99795.8
99530.5
97517.2
97519.8
97524.9
97532.7
97543.5
97557.4
97574.7
97595.4
97619.7
97647.3
97678.4
97712.9
97750.9
97792.5
97837.5
97886
97937.8
97992.8
98050.8
98112.1
98176.9
98245
98316.4
98391
98468.7
98549.4
98633.2
98719.8
98809.4
98901.6
98996.9
99095.2
99196.5
99301.2
99409.4
99520.7
99634.8
99752.1
99872.3
99995.9
100123
100252
100385
100519
100654
100793
100934
101078
101228
101383
101542
101703
101869
102041
102216
102397
102582
102774
102974
103182
103398
103622
103855
104094
104343
104605
104866
105133
105411
105706
106016
106341
106679
107031
107396
107776
108171
108583
109009
109449
109903
110371
110854
111349
111857
112378
112909
113449
113996
114548
115103
115660
116215
116764
117303
117830
118341
118832
119301
119747
120168
120560
120922
121253
121553
121822
122060
122270
122455
122617
122759
122887
123007
123125
123244
123366
123499
123652
123825
124020
124246
124506
124787
125082
125404
125755
126156
126624
127140
127709
128336
129013
129729
130413
131040
131602
132131
132681
133289
133972
134729
135587
136480
137432
138442
139499
140613
141825
143081
144405
145802
147269
148781
150302
151781
153174
154379
155559
156778
157923
158973
159926
160825
161657
162376
162927
163242
163239
162810
161919
160640
159031
156910
154863
152855
151121
149417
147242
145250
143028
97500.1
97502.8
97508.2
97516.3
97527.4
97541.5
97559
97580.1
97604.6
97632.6
97664
97698.8
97737.1
97778.8
97824
97872.8
97925
97980.5
98038.6
98100.1
98164.7
98233
98304.6
98379.2
98457
98537.6
98621.2
98707.9
98797.2
98889.1
98984.2
99082.1
99182.6
99286.4
99393.6
99504.4
99619.5
99736.7
99855.5
99978
100104
100233
100365
100498
100633
100771
100914
101060
101207
101357
101518
101680
101846
102015
102188
102366
102551
102742
102941
103149
103363
103584
103822
104056
104299
104554
104813
105078
105357
105652
105964
106290
106631
106982
107341
107718
108113
108522
108944
109380
109830
110294
110772
111264
111767
112283
112809
113344
113885
114431
114980
115531
116079
116621
117154
117673
118177
118661
119123
119562
119975
120361
120716
121041
121335
121597
121830
122034
122212
122370
122508
122629
122742
122856
122973
123088
123211
123358
123529
123716
123931
124190
124470
124754
125079
125417
125805
126254
126751
127302
127915
128590
129329
130015
130635
131187
131701
132237
132831
133500
134245
135087
135978
136926
137929
138973
140062
141239
142474
143785
145168
146607
148093
149598
151052
152376
153524
154704
155919
157060
158064
158969
159851
160691
161419
161997
162339
162373
161950
161075
159836
158245
156161
154081
152109
150484
148840
146770
144826
142627
97467.6
97470.5
97476.3
97485
97496.6
97511.3
97529.2
97550.8
97575.9
97604.5
97636.4
97671.7
97710.3
97752.3
97798
97847.2
97899.9
97955.8
98014.1
98075.6
98140.6
98209
98280.9
98355.9
98433.8
98514.6
98598.2
98684.5
98773.4
98864.9
98959.3
99056.3
99155.8
99258.4
99363.9
99472.1
99583.4
99699.6
99820.6
99942.5
100068
100196
100327
100460
100596
100735
100876
101019
101165
101316
101471
101628
101790
101961
102131
102307
102487
102676
102874
103080
103294
103514
103744
103979
104219
104466
104720
104984
105263
105556
105865
106187
106522
106871
107232
107605
107993
108395
108810
109239
109682
110139
110608
111091
111586
112093
112609
113133
113664
114199
114737
115274
115810
116339
116859
117365
117856
118327
118776
119201
119601
119973
120316
120628
120911
121161
121383
121576
121744
121889
122018
122131
122230
122329
122437
122544
122649
122777
122939
123113
123310
123553
123825
124115
124434
124771
125143
125564
126025
126516
127083
127739
128448
129169
129781
130324
130824
131343
131914
132565
133281
134083
134960
135889
136880
137907
138963
140098
141274
142543
143893
145264
146688
148138
149518
150737
151783
152944
154122
155232
156147
156976
157825
158657
159382
160002
160398
160499
160084
159248
158082
156534
154547
152511
150751
149159
147541
145735
143876
141753
97422.4
97425.6
97431.6
97440.8
97453
97468.4
97487
97509.1
97534.6
97563.7
97596.1
97632
97671.1
97713.7
97759.4
97808.3
97860.3
97916.4
97977.7
98040.4
98106.1
98175
98247.2
98322.4
98400.4
98481.2
98564.7
98650.6
98739.1
98830.1
98924.1
99020.4
99119.1
99220.6
99324.7
99431.9
99542.3
99655.3
99771.1
99892.7
100017
100143
100273
100405
100540
100677
100818
100959
101104
101251
101401
101555
101714
101877
102042
102211
102392
102579
102774
102978
103188
103405
103631
103867
104101
104344
104593
104856
105132
105421
105725
106041
106371
106712
107065
107431
107811
108203
108609
109028
109461
109907
110365
110836
111318
111811
112313
112822
113338
113856
114377
114897
115415
115926
116428
116915
117387
117840
118270
118677
119058
119414
119739
120034
120301
120536
120742
120921
121074
121205
121317
121419
121509
121587
121671
121763
121855
121953
122085
122245
122424
122633
122878
123158
123471
123809
124171
124572
124999
125429
125921
126513
127180
127875
128503
129042
129530
130018
130560
131209
131909
132666
133492
134380
135345
136351
137384
138461
139569
140771
142056
143317
144640
146012
147298
148392
149333
150456
151554
152607
153435
154208
155032
155834
156494
157083
157526
157708
157351
156586
155514
154091
152259
150488
149005
147320
145662
144074
142354
140365
97367.8
97370.7
97376.9
97386.4
97399.2
97415.3
97434.6
97457.4
97483.5
97513.2
97546.2
97582.7
97622.5
97665.5
97711.9
97761.8
97815.1
97871.8
97931.7
97996.1
98062.2
98131
98203.3
98278.7
98356.9
98437.7
98520.9
98606.6
98694.4
98784.6
98878.8
98974
99071.7
99172.2
99275.5
99382.1
99491.2
99602.4
99716.1
99833.3
99953.7
100077
100204
100334
100467
100602
100740
100879
101021
101165
101311
101460
101613
101770
101932
102100
102273
102455
102646
102847
103051
103266
103487
103714
103946
104186
104434
104691
104961
105243
105538
105846
106166
106498
106842
107199
107567
107949
108342
108749
109168
109600
110044
110499
110965
111440
111924
112414
112909
113407
113906
114404
114898
115386
115865
116329
116777
117207
117614
117997
118355
118689
118994
119268
119515
119731
119919
120079
120214
120329
120424
120506
120582
120646
120703
120770
120853
120927
121015
121145
121300
121474
121684
121922
122190
122507
122864
123236
123643
124045
124474
124993
125587
126232
126862
127397
127861
128290
128783
129442
130138
130888
131663
132494
133404
134361
135362
136388
137415
138535
139720
140848
142041
143317
144507
145488
146348
147376
148388
149393
150178
150909
151681
152445
153038
153495
153911
154167
153937
153291
152340
151121
149509
148081
146695
145013
143412
141905
140332
138511
97305.9
97308.9
97315.2
97325.1
97338.4
97355.1
97375.1
97398.4
97425.1
97455.1
97488.5
97525.4
97565.9
97609.9
97657.2
97707.3
97760.4
97816.7
97876.5
97940.1
98007
98077.1
98150
98225.6
98303.9
98384.6
98467.5
98552.6
98639.9
98729.5
98821.8
98916.3
99013.1
99112
99213.4
99322.2
99429.3
99538.6
99650.9
99765.6
99882.6
100003
100126
100251
100379
100511
100644
100779
100917
101057
101200
101345
101492
101644
101799
101960
102129
102306
102492
102685
102884
103092
103309
103531
103758
103993
104234
104485
104747
105021
105306
105604
105913
106233
106565
106909
107265
107632
108012
108404
108808
109224
109651
110089
110536
110990
111452
111920
112391
112865
113337
113808
114276
114736
115188
115626
116046
116448
116828
117185
117516
117823
118104
118354
118577
118771
118935
119076
119191
119285
119362
119424
119475
119523
119563
119599
119657
119719
119779
119864
119973
120115
120293
120477
120675
120947
121284
121627
121994
122379
122786
123242
123752
124320
124936
125460
125891
126267
126680
127328
128024
128745
129502
130295
131147
132037
132977
133941
134883
135891
136931
137952
139008
140144
141258
142195
143070
143900
144849
145772
146586
147333
147991
148608
149151
149492
149785
150070
150011
149524
148711
147690
146397
145202
143722
142232
140806
139382
137931
136295
97240.4
97243.6
97250
97260.1
97273.8
97290.8
97311.1
97334.6
97361.6
97392
97425.9
97463.3
97504
97547.8
97594.8
97645.5
97699.6
97756.8
97817.2
97881
97947.4
98017.1
98089.8
98165.1
98243.2
98323.6
98406.2
98490.8
98577.4
98666.3
98757.4
98850.8
98946.4
99044.5
99145.3
99249.4
99355.4
99463.3
99573.6
99686.5
99800.4
99916
100034
100154
100275
100400
100529
100661
100794
100929
101067
101208
101350
101497
101647
101802
101964
102132
102309
102495
102687
102885
103099
103316
103535
103762
103994
104237
104490
104754
105028
105313
105610
105917
106235
106565
106907
107260
107624
108000
108388
108786
109195
109612
110038
110471
110908
111350
111794
112242
112686
113127
113565
113995
114415
114821
115210
115581
115930
116256
116559
116836
117089
117314
117510
117680
117820
117936
118031
118103
118158
118201
118233
118256
118277
118292
118315
118352
118398
118447
118506
118612
118757
118891
119037
119250
119536
119843
120172
120525
120918
121312
121739
122229
122779
123276
123659
124058
124450
125034
125687
126354
127084
127849
128644
129452
130306
131190
132051
132914
133792
134721
135662
136646
137690
138618
139590
140264
141160
141899
142740
143555
144149
144546
144923
145220
145374
145603
145714
145410
144743
143903
142913
141807
140424
139080
137779
136619
135248
133806
97175.1
97178.5
97185
97195.2
97208.7
97225.6
97245.7
97269.2
97296
97326.3
97360.2
97397.8
97438.8
97483.3
97530.8
97581.1
97634.5
97691.2
97751
97813.2
97880.4
97950.8
98023.5
98099.1
98176.9
98257
98339.2
98423.3
98509.2
98597.2
98687.2
98779.2
98873.4
98969.8
99068.4
99169.5
99273
99378.6
99486
99595.2
99705.8
99817.5
99930.6
100045
100160
100280
100401
100525
100650
100779
100912
101048
101186
101328
101472
101621
101775
101936
102104
102281
102463
102653
102855
103065
103276
103492
103716
103948
104191
104443
104705
104977
105260
105554
105858
106174
106500
106837
107186
107545
107915
108293
108681
109076
109479
109888
110300
110716
111131
111550
111965
112374
112779
113177
113562
113935
114290
114628
114943
115235
115506
115752
115973
116170
116338
116479
116595
116685
116754
116807
116841
116860
116873
116878
116874
116870
116871
116873
116895
116919
116945
117013
117116
117220
117360
117520
117716
117964
118249
118565
118915
119233
119594
120034
120488
120887
121247
121738
122223
122703
123232
123828
124503
125224
125956
126677
127420
128198
128975
129702
130446
131245
132054
132926
133916
134855
135854
136534
137324
137921
138664
139454
140058
140386
140533
140776
140865
140945
141167
141064
140550
139852
139059
138042
136839
135699
134465
133689
132371
131117
97114
97117.5
97124
97134
97147.1
97163.5
97183
97206
97232.5
97262.7
97296.2
97332.7
97372.3
97415.7
97463.5
97514.6
97568.4
97625.1
97684.8
97747.8
97814.2
97883.5
97955.8
98030.8
98108.1
98187.5
98268.9
98352.1
98437
98523.6
98612
98702.3
98794.6
98888.8
98985.1
99083.3
99183.3
99285.2
99388.7
99493.5
99599.4
99706.1
99813.7
99922.1
100031
100143
100256
100372
100489
100608
100732
100861
100994
101133
101271
101413
101561
101714
101873
102039
102211
102392
102580
102781
102981
103187
103399
103621
103852
104091
104340
104598
104867
105147
105437
105737
106048
106369
106700
107040
107389
107745
108110
108482
108860
109244
109630
110019
110407
110794
111179
111555
111925
112288
112638
112977
113299
113603
113885
114143
114380
114592
114780
114944
115084
115197
115285
115352
115397
115423
115440
115439
115425
115412
115387
115359
115339
115315
115306
115307
115313
115338
115391
115483
115619
115749
115863
116042
116271
116532
116799
117061
117368
117748
118134
118451
118830
119337
119849
120298
120716
121231
121831
122474
123119
123749
124384
125049
125722
126337
126980
127621
128236
129029
129999
130930
131860
132604
133231
133883
134490
135109
135675
136086
136154
136275
136377
136282
136486
136569
136215
135638
134981
134037
133044
132150
131176
130578
129385
128292
97062.1
97065.6
97071.9
97081.3
97093.8
97109.4
97128.2
97150.3
97175.9
97204.8
97236.5
97271.4
97310.3
97352.7
97398.7
97449.1
97503.7
97561.1
97620.3
97682.8
97748.3
97817
97888.3
97962.2
98038.6
98117
98197.5
98279.6
98363.1
98448
98534.4
98622.3
98712
98803.3
98896.4
98991.1
99087.1
99184.4
99283.1
99382.7
99483.1
99584
99685.2
99786.9
99889
99992.1
100097
100203
100311
100421
100535
100653
100773
100898
101034
101173
101315
101461
101612
101769
101931
102100
102277
102462
102651
102846
103047
103257
103475
103700
103936
104181
104435
104700
104975
105260
105554
105857
106169
106488
106816
107149
107491
107838
108191
108548
108905
109265
109624
109979
110333
110678
111013
111341
111658
111961
112250
112521
112771
112995
113197
113376
113530
113660
113768
113854
113918
113959
113983
113988
113979
113961
113926
113888
113845
113793
113753
113709
113664
113645
113633
113610
113622
113695
113783
113877
113955
114095
114266
114451
114637
114850
115103
115432
115759
116054
116457
116894
117275
117717
118147
118601
119106
119622
120148
120692
121254
121822
122374
122896
123470
123925
124363
125083
126024
126967
127770
128480
129001
129713
130277
130780
131233
131684
131875
131873
131977
131763
131835
132014
131802
131336
130836
130041
129273
128560
127874
127337
126360
125396
97024.5
97027.9
97033.7
97042.3
97053.9
97068.3
97085.9
97106.5
97130
97156.3
97185.4
97217.8
97253.9
97294.1
97338.5
97387.3
97441.2
97500.1
97557.3
97618.3
97682.9
97750.8
97821.2
97894.1
97969.4
98046.7
98125.8
98206.5
98288.4
98371.3
98455.2
98540.2
98626.5
98714.2
98803.2
98893.4
98984.7
99077
99170.1
99263.7
99357.7
99451.7
99545.7
99639.5
99733.6
99828.4
99924
100021
100119
100219
100322
100429
100538
100653
100775
100904
101038
101178
101321
101469
101621
101777
101942
102113
102290
102473
102662
102859
103063
103276
103497
103727
103967
104216
104477
104746
105022
105306
105597
105896
106203
106514
106834
107158
107484
107813
108143
108471
108799
109123
109444
109759
110063
110356
110640
110910
111162
111397
111613
111804
111971
112115
112237
112334
112413
112471
112512
112534
112536
112523
112493
112452
112399
112338
112276
112203
112140
112080
112004
111958
111929
111869
111847
111881
111911
111953
112012
112125
112241
112353
112469
112655
112851
113130
113404
113707
114084
114498
114753
115147
115582
115973
116358
116713
117141
117621
118112
118589
119018
119484
119950
120257
120600
121242
122112
123061
123748
124379
124917
125464
126003
126515
126900
127317
127710
127679
127714
127462
127361
127522
127410
127047
126701
126146
125620
125060
124553
124108
123331
122486
97007.9
97011
97016.2
97023.5
97033.2
97045.8
97061.5
97080.1
97100.9
97124
97149.6
97177.9
97209.3
97244.4
97284.2
97328.5
97377
97428.6
97489
97552.3
97618.4
97686.9
97757.5
97829.8
97903.8
97979.5
98056.6
98134.9
98214.4
98294.8
98375.8
98457.6
98539.9
98622.8
98706.7
98791.5
98877
98963.2
99049.9
99136.7
99223.3
99309.6
99395.2
99480.4
99565.7
99651.5
99737.8
99824.7
99912.7
100002
100094
100189
100285
100388
100498
100615
100739
100868
101002
101141
101281
101425
101577
101736
101900
102070
102246
102430
102621
102819
103026
103241
103466
103701
103944
104196
104454
104719
104990
105268
105554
105844
106138
106438
106739
107041
107345
107645
107944
108238
108528
108812
109086
109347
109594
109831
110048
110245
110426
110583
110717
110827
110917
110988
111039
111074
111091
111092
111078
111047
111000
110940
110867
110785
110705
110615
110523
110449
110353
110274
110219
110147
110089
110075
110076
110072
110096
110164
110227
110288
110346
110507
110645
110873
111095
111385
111714
112088
112356
112701
113105
113401
113649
113874
114224
114619
115013
115398
115740
116141
116498
116751
117087
117621
118382
119210
119799
120384
120908
121300
121801
122309
122685
123073
123605
123669
123612
123416
123162
123240
123197
122954
122696
122396
122097
121671
121322
120957
120331
119608
97017.1
97019.8
97024.2
97030.4
97038.6
97049.2
97062.4
97078.1
97095.6
97114.9
97136.3
97159.9
97186.1
97215.8
97249.8
97288.5
97332.2
97381.6
97438.1
97500
97565.7
97633.9
97704
97774.8
97846.3
97919.2
97993.3
98068.5
98144.3
98220.7
98297.7
98375.1
98452.6
98530.4
98608.5
98686.8
98765.2
98844
98922.8
99001.5
99079.7
99157.4
99234.2
99310.3
99386
99461.9
99537.9
99614.2
99691.5
99770
99850
99932
100017
100106
100202
100306
100418
100535
100661
100788
100916
101049
101187
101333
101484
101641
101804
101974
102151
102334
102525
102726
102935
103153
103378
103612
103852
104098
104351
104608
104872
105141
105412
105687
105964
106240
106517
106791
107062
107328
107589
107844
108087
108318
108532
108733
108919
109081
109229
109352
109455
109538
109600
109648
109676
109687
109684
109663
109630
109581
109514
109438
109350
109249
109148
109046
108930
108832
108726
108620
108531
108452
108367
108310
108281
108245
108229
108247
108262
108286
108313
108410
108497
108673
108854
109100
109406
109692
109992
110304
110638
110873
111004
111154
111412
111689
111995
112304
112587
112912
113198
113491
113883
114261
114890
115476
115985
116500
116933
117317
117808
118255
118632
119018
119524
119755
119679
119610
119319
119306
119312
119202
118979
118875
118743
118414
118183
117909
117400
116793
97057.8
97059.7
97063
97068
97073.4
97082.2
97093.4
97106.4
97120.5
97135.7
97152.8
97171.8
97192.9
97217.1
97246
97279.9
97319.4
97365.9
97418.4
97476.4
97538.2
97602.3
97668.3
97734.9
97801.5
97869.4
97938.9
98009.7
98081
98152.3
98223.6
98295.1
98366.8
98438.4
98509.7
98580.7
98651.2
98721.4
98791.3
98860.6
98929.3
98997.3
99064.4
99130.6
99196
99261.1
99326.2
99391.4
99456.9
99522.7
99589.6
99658.6
99730.1
99806
99887.9
99979.7
100080
100185
100296
100411
100529
100650
100776
100908
101046
101189
101338
101495
101656
101824
102000
102185
102378
102578
102786
103001
103224
103452
103687
103925
104169
104417
104667
104920
105175
105427
105677
105925
106168
106407
106639
106866
107078
107278
107466
107632
107788
107924
108041
108137
108211
108270
108310
108333
108343
108330
108307
108268
108210
108142
108056
107961
107860
107746
107623
107508
107378
107253
107132
107011
106892
106794
106690
106599
106534
106470
106424
106394
106371
106362
106360
106387
106419
106537
106700
106902
107174
107383
107644
107906
108169
108366
108452
108534
108685
108862
109095
109341
109569
109827
110108
110457
110896
111118
111583
111989
112423
112839
113220
113615
114064
114472
114840
115240
115600
115942
115953
115961
115808
115748
115782
115789
115590
115594
115556
115310
115177
114975
114566
114063
97134.1
97135.3
97137.2
97140
97144
97149.7
97157.4
97166.9
97177.7
97189.6
97202.6
97217
97233.3
97252.6
97275.9
97304.4
97338.4
97380.3
97427.2
97479.1
97534.3
97591.5
97650.3
97710.1
97770.7
97832.3
97895.2
97959.7
98025.2
98090.2
98154.6
98218.8
98283.1
98347.2
98410.7
98473.6
98535.4
98596.2
98656.2
98715.3
98773.4
98830.7
98887
98942.1
98996.3
99049.6
99102.7
99155.3
99207.4
99259.5
99312.6
99368
99425.9
99489.1
99558.8
99637.2
99723.1
99816.1
99914.1
100017
100123
100232
100346
100465
100589
100718
100853
100994
101141
101294
101455
101623
101799
101983
102174
102373
102578
102789
103006
103227
103453
103682
103913
104144
104374
104603
104828
105050
105268
105482
105689
105887
106074
106244
106404
106547
106673
106786
106877
106949
107003
107038
107056
107056
107042
107011
106965
106910
106832
106744
106642
106527
106409
106284
106147
106013
105873
105727
105589
105454
105317
105194
105071
104953
104858
104765
104691
104620
104568
104529
104491
104445
104425
104487
104646
104808
105009
105180
105341
105546
105744
105884
105962
106003
106066
106161
106306
106507
106704
106929
107222
107534
107929
108171
108461
108780
109112
109463
109866
110313
110683
111057
111393
111766
112022
112350
112468
112456
112517
112478
112519
112613
112464
112518
112530
112357
112318
112169
111841
111444
97249.3
97251.4
97251.3
97251.9
97253.2
97255.6
97259.5
97264.7
97271.1
97278.5
97286.8
97296.3
97307.5
97321.5
97339.4
97362
97391
97423.9
97462.1
97504.9
97550.8
97598.9
97648.8
97700.6
97753.9
97807.8
97862.5
97919
97977.1
98035.1
98091.8
98147.5
98202.6
98257.6
98312.2
98365.8
98418.2
98469.1
98518.5
98566.4
98613
98658.5
98702.9
98746.2
98788.2
98828.8
98868.3
98907.1
98945.1
98983.1
99021.6
99060.9
99103.9
99153.2
99210
99276
99350.5
99433.9
99517.8
99607.6
99701.2
99798.1
99899.3
100006
100115
100231
100352
100478
100610
100748
100893
101045
101205
101373
101548
101730
101919
102113
102313
102519
102727
102939
103152
103362
103570
103777
103981
104180
104375
104566
104751
104925
105087
105235
105367
105486
105587
105674
105741
105791
105824
105839
105836
105816
105781
105733
105667
105593
105499
105392
105278
105149
105015
104874
104725
104576
104423
104263
104112
103959
103808
103663
103521
103381
103260
103143
103040
102935
102859
102789
102705
102602
102535
102553
102687
102804
102944
103078
103170
103277
103408
103497
103565
103578
103569
103586
103638
103820
104020
104237
104511
104753
105045
105348
105592
105796
106057
106453
106919
107422
107718
108046
108324
108604
108809
109063
109209
109207
109397
109407
109451
109594
109523
109616
109664
109558
109600
109505
109239
108949
97408
97407.6
97406.1
97403.7
97401.2
97399.2
97397.8
97397.3
97397.8
97399.4
97401.8
97405.2
97410.6
97418.3
97429.7
97445.4
97464.1
97487.5
97515.6
97547.1
97581.6
97618.8
97658.9
97702.5
97748.2
97794.4
97840.5
97887.6
97936.1
97985.2
98033
98079.4
98124.8
98169.7
98214.3
98257.8
98299.9
98340.1
98378.4
98414.7
98449.2
98482.1
98513.5
98543.8
98572.8
98600.3
98626.5
98651.5
98675.3
98698.5
98721.2
98744.2
98771
98804.7
98847.4
98900.2
98961.4
99028.4
99105.5
99184.3
99266
99351.6
99440.4
99531.9
99628.7
99730.8
99838.4
99950
100067
100190
100320
100457
100601
100753
100912
101079
101252
101432
101617
101807
101999
102194
102390
102583
102773
102961
103146
103326
103500
103668
103830
103982
104122
104250
104360
104452
104531
104592
104636
104667
104681
104677
104655
104621
104569
104505
104423
104328
104218
104096
103970
103831
103685
103529
103367
103204
103039
102866
102705
102534
102370
102209
102049
101890
101746
101609
101478
101345
101246
101143
101013
100875
100776
100754
100832
100908
101003
101063
101124
101162
101229
101290
101326
101291
101218
101167
101145
101321
101516
101744
101968
102191
102357
102641
102901
103003
103342
103858
104378
104842
105099
105384
105591
105756
105894
106078
106189
106282
106480
106509
106569
106730
106736
106877
106959
106922
107033
106987
106775
106585
97608.3
97605.7
97601.7
97595.5
97588.2
97580
97571.5
97563.7
97556.8
97550.4
97545
97540.6
97537.8
97536.8
97538.8
97544.1
97553
97565.1
97581.1
97599.4
97620.1
97644
97673.5
97709
97747.6
97786.4
97823.9
97860.6
97897.9
97936.1
97974.2
98011.4
98047.8
98082.8
98116.7
98149.2
98180.1
98208.7
98235
98259.4
98281.5
98301.4
98319.4
98336
98351.3
98365.5
98377.9
98388.6
98398.2
98407
98414.9
98423.3
98435.1
98453.3
98481.6
98520.3
98568.7
98624.8
98687.8
98754.1
98824.1
98897.9
98973.2
99052.5
99135.2
99223.7
99317.1
99414.5
99517.2
99625.9
99741.3
99862.3
99990.4
100127
100271
100423
100583
100749
100922
101098
101275
101457
101638
101816
101991
102163
102330
102491
102645
102793
102934
103067
103188
103293
103382
103454
103511
103552
103579
103593
103591
103571
103535
103487
103418
103337
103239
103125
103003
102868
102727
102577
102417
102250
102075
101900
101724
101541
101368
101184
101008
100833
100658
100485
100317
100163
100007
99852.5
99727
99591.3
99434.1
99277.3
99163.6
99095.6
99102
99130.4
99195.8
99191.1
99185.5
99191.8
99222.5
99258.7
99233.6
99148.7
99041.1
98944.9
98905
99057
99196.7
99419.4
99592.1
99790.8
99900.9
100026
100306
100539
101031
101560
102020
102402
102686
102953
103103
103189
103256
103374
103444
103621
103786
103797
103901
104062
104120
104311
104420
104460
104622
104615
104453
104345
97810.7
97806.3
97799.3
97789.3
97776.4
97761.9
97746.6
97731.2
97716.4
97702
97688.5
97676
97664.8
97655.4
97647.9
97643
97641
97641.9
97645.1
97650
97657.3
97669.9
97691.1
97719.4
97750.7
97781.8
97811.7
97840.8
97869.5
97898.4
97927.8
97956.8
97984
98009.4
98033.4
98056.1
98076.9
98095.1
98110.6
98123.7
98134.5
98143.1
98149.5
98153.9
98156.9
98158.9
98159.6
98158.6
98156.3
98153.1
98149.3
98146
98145.7
98151.7
98167.7
98193.6
98229.5
98274.2
98324.1
98380
98438.5
98499
98563.3
98630.6
98702
98778.5
98858.8
98943.8
99034.3
99130.7
99233.3
99341.1
99455.1
99577.1
99706.9
99847
99994.2
100150
100313
100478
100645
100815
100984
101149
101311
101468
101622
101769
101909
102041
102166
102280
102383
102470
102541
102598
102637
102661
102676
102676
102661
102628
102580
102516
102434
102334
102223
102095
101959
101816
101661
101495
101320
101141
100955
100767
100581
100389
100207
100014
99825
99640.2
99450.2
99265.6
99079.5
98907.4
98731.5
98557.5
98408.4
98243.1
98066.4
97913.7
97787.6
97669.9
97606.7
97589.1
97613
97581.8
97500.3
97464.1
97462.3
97463.6
97391.2
97280.8
97169
97068.5
97051.7
97121.1
97187.3
97331.9
97459.2
97659.2
97775.6
97765.3
98106.8
98557.2
99064.3
99455.3
99830.7
100162
100474
100732
100853
100921
100940
100984
101032
101241
101356
101342
101500
101641
101731
101949
102068
102188
102377
102390
102268
102222
97983.7
97977.3
97967.7
97954.5
97937.5
97917.8
97896.4
97874.3
97852.8
97831.7
97811.3
97792.1
97774.1
97757.6
97742.5
97729.5
97718.7
97709.8
97701.4
97695.9
97693.4
97697
97709.8
97731.2
97756.9
97782.8
97807.6
97831.1
97853.4
97875.5
97897.2
97917
97934.8
97951.1
97966.6
97981.1
97993.7
98003.3
98009.7
98013.2
98014.2
98013.3
98010.3
98005.1
97998.1
97989.9
97980.9
97970.6
97958.9
97946.3
97933.5
97921.3
97911.8
97908.5
97914.7
97930.3
97955.8
97990
98030.9
98075
98122.4
98171.6
98225.3
98282.6
98344.7
98411
98480.4
98555.2
98635.4
98721.3
98813.6
98910.2
99012.7
99122.8
99241.2