/*--------------------------------*- C++ -*----------------------------------*\
| =========                 |                                                 |
| \\      /  F ield         | OpenFOAM: The Open Source CFD Toolbox           |
|  \\    /   O peration     | Version:  dev                                   |
|   \\  /    A nd           | Web:      http://www.openfoam.org               |
|    \\/     M anipulation  |                                                 |
\*---------------------------------------------------------------------------*/
FoamFile
{
    version     2.0;
    format      ascii;
    class       volScalarField;
    object      p_0;
    location    "9.148";
}
// * * * * * * * * * * * * * * * * * * * * * * * * * * * * * * * * * * * * * //

dimensions      [1 -1 -2 0 0 0 0];

internalField   nonuniform List<scalar> 
12225
(
100243
100246
100242
100228
100192
100136
100054
99951.2
99819.4
99668.9
99489.4
99294.8
99073.1
98831.3
98559.8
98273.1
97880.4
97378.6
100248
100254
100249
100236
100199
100143
100061
99957.8
99825.9
99675.1
99496
99301
99079.1
98837.5
98565.6
98274.2
97896.2
97500.3
100266
100272
100267
100252
100215
100159
100076
99972.7
99840.6
99689.3
99510.4
99315.2
99092.8
98851.9
98580.9
98287.7
97931.9
97581.5
100294
100302
100297
100281
100242
100186
100102
99998.6
99866
99714
99535.6
99340
99118.1
98878.2
98609.5
98317.3
97985.7
97668.2
100338
100347
100341
100325
100285
100227
100143
100038
99905
99751.9
99574.3
99377.8
99158.1
98918.9
98657.7
98370.9
98064.6
97753
100399
100411
100405
100387
100345
100286
100201
100094
99961
99806.5
99629.5
99432.5
99215.6
98978.7
98725
98449.1
98167.5
97872.8
100483
100498
100492
100471
100429
100367
100281
100171
100038
99881.6
99705.2
99507.9
99294
99060.7
98814.9
98551.9
98290
98023.5
100586
100597
100590
100567
100524
100458
100371
100258
100124
99966.6
99790.4
99593
99381.3
99152.3
98913.5
98662.1
98414.5
98167.9
100695
100703
100696
100670
100626
100557
100468
100352
100217
100058
99881.5
99684.6
99474.3
99249.3
99016.6
98775
98537.7
98305.4
100838
100844
100836
100807
100760
100688
100595
100476
100338
100178
100000
99804.2
99595.2
99374
99147.2
98915.1
98686.6
98466.2
101026
101029
101020
100986
100935
100859
100762
100639
100497
100335
100155
99958.8
99751.1
99533.4
99311.2
99087.6
98867.1
98654.9
101267
101272
101259
101221
101164
101083
100979
100852
100704
100538
100355
100158
99950.3
99735.2
99516.6
99298.9
99085
98878.5
101586
101589
101571
101527
101462
101373
101260
101126
100972
100799
100611
100411
100202
99987.7
99770.9
99556.4
99346.3
99143.3
102004
102000
101972
101920
101843
101743
101620
101475
101311
101129
100934
100728
100515
100299
100081
99866.5
99657.1
99454.4
102535
102522
102482
102417
102326
102211
102072
101912
101734
101539
101332
101117
100896
100673
100452
100233
100021
99814.9
103195
103169
103115
103032
102922
102785
102626
102445
102247
102034
101811
101581
101348
101114
100883
100656
100436
100223
103984
103950
103878
103771
103634
103469
103281
103073
102848
102610
102365
102115
101863
101613
101366
101126
100892
100667
104845
104791
104694
104558
104388
104190
103968
103726
103470
103203
102930
102655
102380
102109
101843
101584
101334
101094
105594
105538
105420
105256
105055
104824
104569
104295
104008
103712
103412
103112
102814
102521
102236
101959
101693
101437
106229
106145
106005
105816
105589
105330
105046
104744
104430
104109
103786
103464
103146
102835
102532
102240
101959
101689
106702
106618
106462
106254
106005
105723
105416
105091
104756
104414
104071
103731
103396
103070
102753
102448
102154
101874
107082
106983
106814
106590
106323
106022
105697
105355
105002
104644
104285
103931
103583
103244
102916
102600
102297
102007
107363
107258
107079
106842
106561
106247
105908
105552
105185
104815
104444
104078
103720
103371
103034
102710
102400
102104
107581
107462
107274
107029
106738
106413
106064
105697
105321
104940
104560
104186
103819
103464
103120
102790
102474
102173
107735
107609
107415
107163
106866
106534
106177
105802
105418
105030
104644
104263
103891
103530
103181
102847
102527
102221
107837
107712
107514
107259
106957
106620
106257
105877
105487
105094
104702
104317
103941
103576
103224
102886
102563
102255
107908
107781
107582
107324
107019
106678
106311
105927
105533
105136
104742
104354
103974
103607
103253
102913
102588
102277
107952
107826
107626
107366
107059
106715
106346
105959
105563
105164
104767
104377
103996
103627
103271
102930
102603
102292
107976
107852
107651
107389
107081
106737
106366
105977
105580
105179
104781
104390
104008
103638
103282
102939
102612
102300
107990
107865
107662
107400
107091
106746
106374
105985
105587
105186
104788
104396
104014
103643
103286
102944
102617
102304
98194.2
98196.3
98200.4
98206.5
98214.8
98225.7
98239.6
98256.6
98275.4
98297
98321.6
98349
98379.1
98412
98447.6
98485.8
98526.7
98570.2
98616.2
98664.2
98715.1
98768.2
98823.5
98880.9
98940.4
99001.7
99065
99130.2
99197
99265.6
99336
99408.4
99482.6
99559
99637.6
99718.5
99802.1
99888.1
99975.5
100065
100157
100251
100346
100442
100538
100635
100735
100837
100947
101059
101173
101289
101408
101529
101655
101784
101918
102057
102203
102357
102515
102680
102851
103027
103212
103405
103600
103799
104009
104233
104473
104728
104997
105279
105574
105885
106214
106557
106915
107286
107672
108070
108482
108906
109341
109786
110240
110701
111166
111633
112101
112566
113025
113476
113913
114334
114737
115119
115478
115813
116124
116409
116667
116901
117108
117292
117454
117597
117723
117836
117940
118041
118143
118250
118366
118496
118651
118830
119036
119277
119560
119886
120251
120651
121091
121573
122114
122766
123440
124166
124958
125806
126712
127602
128476
129305
130089
130877
131702
132572
133453
134476
135416
136393
137404
138447
139540
140703
141878
143080
144335
145661
147030
148421
149811
151146
152307
153368
154445
155424
156314
157068
157668
158096
158343
158365
158127
157581
156691
155429
153834
152011
149999
147995
146069
144336
142604
140625
138759
136877
98137.1
98139.6
98144.1
98150.5
98159
98170
98184
98201.1
98220.7
98243.4
98268.9
98297
98327.6
98360.9
98397
98435.8
98477.3
98521.3
98567.7
98616.6
98667.9
98721.6
98777.5
98835.5
98895.5
98957.4
99021.3
99087
99154.4
99223.4
99294.4
99367.2
99441.7
99518.4
99597.2
99678.2
99761.7
99847.9
99937.2
100027
100119
100213
100309
100406
100502
100602
100706
100813
100918
101026
101141
101258
101378
101500
101624
101753
101887
102027
102174
102329
102490
102654
102824
102999
103181
103370
103565
103764
103976
104203
104447
104705
104978
105261
105554
105860
106196
106537
106893
107262
107646
108042
108452
108874
109307
109750
110201
110658
111120
111583
112047
112508
112964
113410
113843
114260
114658
115035
115390
115720
116026
116307
116560
116790
116993
117172
117330
117468
117590
117699
117799
117893
117990
118093
118205
118329
118474
118647
118849
119081
119353
119674
120035
120427
120855
121324
121850
122471
123135
123837
124616
125468
126365
127251
128119
128941
129702
130468
131273
132122
132992
133983
134922
135894
136896
137924
138987
140108
141267
142462
143708
145014
146363
147739
149103
150373
151491
152553
153635
154610
155468
156192
156791
157242
157520
157587
157394
156893
156023
154789
153231
151436
149438
147411
145510
143888
142227
140280
138465
136598
98024.9
98027.9
98033.1
98040.5
98049.9
98061.6
98076.2
98094.1
98115.3
98139.5
98166.7
98195.7
98226.9
98260.8
98298
98337.9
98380.3
98425.3
98472.6
98522.3
98574.5
98629.2
98686.2
98745.4
98806.6
98869.7
98934.7
99001.5
99069.9
99139.9
99211.8
99285.5
99360.7
99438.1
99517.5
99599
99682.9
99769
99857.3
99949.3
100044
100140
100237
100337
100437
100539
100643
100748
100856
100968
101080
101195
101313
101437
101564
101693
101827
101967
102116
102273
102436
102600
102770
102946
103127
103313
103506
103708
103924
104154
104398
104656
104930
105215
105512
105823
106150
106489
106843
107209
107589
107983
108388
108806
109234
109672
110117
110569
111025
111481
111938
112391
112838
113276
113701
114109
114499
114868
115213
115535
115832
116104
116349
116570
116765
116936
117085
117215
117327
117428
117520
117605
117689
117781
117884
117997
118125
118282
118473
118689
118941
119244
119591
119974
120393
120846
121343
121914
122563
123203
123931
124757
125642
126523
127362
128176
128908
129646
130413
131229
132068
132988
133919
134872
135858
136865
137884
138942
140056
141222
142445
143702
144998
146327
147617
148779
149810
150869
151935
152890
153677
154349
154951
155439
155766
155920
155819
155408
154575
153401
151922
150180
148230
146221
144449
142929
141389
139505
137807
135999
97863.5
97866.6
97872.4
97880.6
97891
97903.9
97919.7
97938.5
97961.3
97985.6
98012.7
98043.6
98077.9
98114.3
98153
98194.1
98237.7
98283.9
98332.6
98383.8
98437.5
98493.8
98552.5
98613.4
98676.3
98741.2
98808
98876.5
98946.5
99018.2
99091.8
99167
99243.9
99322.6
99403.2
99486
99571.3
99658.5
99747.8
99840.4
99935.4
100033
100133
100235
100337
100442
100548
100655
100765
100876
100989
101105
101226
101348
101472
101602
101738
101880
102030
102189
102351
102518
102689
102868
103050
103239
103430
103637
103856
104088
104333
104592
104864
105148
105444
105754
106077
106414
106763
107126
107501
107890
108290
108701
109122
109553
109990
110433
110880
111327
111773
112215
112650
113077
113490
113886
114264
114621
114954
115263
115548
115808
116041
116249
116434
116593
116730
116848
116949
117037
117115
117189
117260
117334
117420
117517
117626
117756
117922
118119
118346
118617
118933
119294
119697
120132
120603
121130
121740
122317
122970
123731
124571
125427
126245
127022
127731
128430
129146
129933
130735
131593
132470
133380
134334
135313
136295
137298
138340
139450
140625
141798
143010
144271
145467
146501
147427
148470
149486
150405
151120
151756
152368
152887
153239
153459
153470
153182
152429
151348
149983
148349
146499
144658
143090
141537
140051
138332
136755
135051
97658.7
97661.8
97667.8
97676.6
97688.2
97702.7
97720.1
97740
97763.2
97790.2
97820.3
97853.4
97889.5
97926.5
97966.2
98008.6
98053.9
98101.8
98152.2
98205.3
98261.1
98319.4
98380.2
98443.4
98508.6
98575.8
98644.8
98715.6
98787.3
98861.4
98937.3
99014.9
99094
99175
99258.1
99343.2
99430.5
99519.6
99610.6
99704.1
99800
99897.9
99998.1
100101
100207
100314
100423
100533
100645
100758
100872
100989
101108
101231
101358
101489
101626
101770
101922
102080
102243
102412
102586
102765
102949
103143
103341
103549
103768
104000
104245
104503
104773
105055
105350
105657
105976
106309
106653
107011
107381
107762
108155
108559
108971
109392
109819
110250
110685
111119
111551
111979
112400
112811
113209
113590
113952
114294
114611
114905
115173
115419
115638
115829
115999
116144
116268
116370
116457
116530
116592
116649
116705
116761
116824
116899
116990
117092
117220
117387
117585
117818
118093
118408
118767
119168
119614
120102
120644
121184
121769
122451
123217
124023
124803
125540
126209
126846
127500
128243
129032
129842
130660
131512
132411
133338
134280
135229
136189
137226
138326
139389
140494
141674
142774
143687
144515
145507
146456
147355
148031
148646
149261
149810
150173
150392
150484
150335
149725
148777
147561
146086
144411
142811
141338
139770
138324
136806
135341
133770
97418.1
97421.3
97427.6
97437.1
97450.2
97466.6
97485.8
97507.9
97532.9
97560.9
97591.6
97624.6
97660.1
97700.3
97743.8
97787.2
97834
97883.7
97936.3
97991.7
98049.8
98110.7
98174
98239.6
98307.4
98377
98448.4
98521.4
98596
98672.4
98750.8
98831
98912.9
98996.7
99082.9
99171.6
99262
99354
99448.1
99544.2
99641.6
99741
99842.7
99946.4
100052
100161
100272
100385
100499
100615
100732
100850
100971
101095
101222
101353
101492
101637
101791
101949
102113
102284
102462
102644
102832
103026
103226
103436
103657
103889
104132
104388
104655
104935
105227
105530
105845
106172
106511
106862
107225
107599
107984
108378
108780
109190
109604
110022
110441
110861
111276
111687
112090
112482
112863
113226
113570
113893
114193
114467
114717
114943
115145
115318
115470
115598
115703
115790
115858
115914
115959
115996
116031
116068
116109
116158
116223
116301
116396
116520
116675
116868
117100
117358
117647
117993
118404
118843
119320
119825
120362
120970
121646
122376
123104
123790
124402
124976
125540
126237
126994
127760
128544
129347
130185
131043
131925
132810
133683
134624
135608
136571
137570
138635
139655
140511
141315
142172
143051
143921
144619
145255
145826
146338
146723
146929
147034
147011
146593
145813
144760
143481
142027
140614
139133
137646
136305
135020
133622
132209
97150.2
97153.7
97160.5
97171
97185.5
97203.1
97223.7
97247.1
97273.3
97302.5
97334
97368
97404.8
97444.8
97487.1
97534.9
97585
97637.6
97692.7
97750.6
97811.4
97874.8
97940.9
98009.2
98079.7
98152
98226.1
98301.7
98379
98458.1
98539.1
98622
98706.8
98793.7
98882.9
98974.7
99068.6
99163.4
99260.1
99362.7
99461.6
99562.5
99665.5
99770.3
99877.1
99986.4
100099
100213
100329
100447
100569
100690
100812
100938
101068
101202
101341
101486
101639
101798
101963
102135
102315
102500
102690
102886
103087
103298
103519
103750
103993
104246
104511
104787
105074
105373
105683
106004
106336
106680
107035
107401
107776
108160
108550
108947
109347
109750
110153
110555
110952
111342
111726
112098
112457
112799
113121
113424
113701
113955
114184
114388
114569
114723
114854
114963
115047
115115
115164
115200
115226
115244
115257
115271
115289
115311
115344
115393
115461
115544
115648
115796
115984
116184
116406
116684
117039
117428
117844
118297
118793
119330
119912
120552
121201
121821
122366
122907
123420
124044
124742
125444
126187
126953
127732
128510
129309
130117
130908
131726
132572
133447
134357
135297
136252
137095
137952
138685
139502
140270
141005
141715
142258
142648
142984
143214
143297
143347
143139
142550
141657
140593
139335
138067
136614
135240
134021
133001
131652
130418
96863.7
96867.7
96875.1
96886.4
96901.5
96919.8
96941.2
96965.5
96992.3
97021.4
97053.3
97088.8
97128.2
97171.4
97217.4
97266.1
97316.9
97371.4
97429.1
97489.7
97553.1
97619.3
97688
97759.2
97832.4
97907.6
97984.5
98063
98143.1
98225
98308.8
98394.7
98482.4
98572.2
98664.1
98758.3
98855
98953.4
99053.4
99155.4
99258.2
99362
99467
99574.3
99682.2
99792.2
99905.1
100020
100137
100255
100376
100503
100631
100761
100894
101030
101171
101317
101469
101629
101794
101967
102147
102334
102525
102721
102923
103134
103355
103585
103825
104075
104337
104609
104891
105185
105489
105804
106129
106465
106812
107167
107531
107903
108281
108664
109048
109435
109819
110203
110581
110950
111311
111660
111995
112314
112612
112891
113145
113374
113580
113761
113918
114052
114159
114246
114310
114354
114383
114398
114403
114399
114392
114383
114374
114371
114376
114390
114426
114474
114534
114635
114773
114926
115108
115323
115593
115916
116272
116664
117105
117558
118056
118612
119158
119670
120173
120732
121268
121805
122382
123003
123683
124403
125118
125811
126508
127221
127931
128630
129353
130118
130925
131769
132679
133527
134416
135133
135875
136541
137243
137963
138538
138888
139099
139340
139425
139473
139451
139070
138339
137426
136364
135168
133879
132634
131511
130737
129537
128441
96567.8
96572.3
96580.2
96591.9
96607.1
96625.4
96646.8
96671.1
96698.2
96728.2
96761.6
96798.7
96838.7
96882
96929.9
96981.7
97036
97092.9
97152.9
97216
97281.9
97350.6
97422
97495.9
97572
97650.1
97730
97811.4
97894.4
97979
98065.4
98153.8
98244.2
98336.6
98431.2
98527.8
98626.3
98726.8
98829
98932.8
99037.7
99143.8
99250.7
99358.9
99468.3
99579.3
99693
99808.1
99925.1
100044
100167
100294
100424
100558
100695
100835
100979
101127
101281
101440
101606
101778
101958
102144
102335
102531
102733
102944
103164
103392
103629
103877
104134
104402
104679
104966
105264
105571
105888
106215
106552
106896
107248
107606
107970
108337
108705
109074
109440
109802
110161
110507
110843
111169
111479
111773
112046
112300
112529
112734
112914
113070
113201
113309
113394
113456
113497
113519
113526
113518
113502
113477
113445
113414
113380
113348
113328
113308
113308
113322
113345
113399
113483
113599
113752
113922
114108
114350
114637
114958
115317
115693
116118
116589
117049
117477
117938
118476
119012
119509
119974
120505
121105
121745
122380
122989
123588
124198
124817
125419
126040
126674
127329
128102
129002
129854
130708
131451
132093
132784
133416
134039
134629
135051
135209
135406
135532
135523
135602
135431
134858
134074
133152
132023
130915
129878
128909
128316
127295
126317
96271.9
96276.7
96284.7
96296.2
96310.8
96328.4
96349.1
96372.6
96399.7
96430.8
96465.6
96503.9
96545.8
96591
96639.5
96692.2
96748.5
96807.8
96870
96935.6
97004.2
97075.7
97149.8
97226.4
97305.4
97386.5
97469.5
97554
97640
97727.3
97816.1
97906.6
97999.2
98093.8
98190.4
98289
98389.4
98491.4
98595.2
98700.5
98807
98914.5
99022.9
99131.9
99242.1
99353.5
99466.8
99581.7
99698.8
99818
99940.5
100067
100197
100332
100472
100615
100763
100914
101070
101231
101397
101568
101746
101931
102122
102317
102519
102728
102946
103171
103406
103650
103903
104164
104435
104716
105006
105305
105614
105931
106256
106587
106925
107269
107616
107967
108317
108667
109014
109355
109691
110015
110326
110626
110911
111179
111427
111655
111859
112038
112191
112320
112425
112505
112564
112602
112620
112620
112605
112575
112535
112489
112433
112377
112320
112259
112212
112164
112125
112107
112098
112100
112134
112213
112317
112440
112567
112747
112963
113198
113460
113786
114133
114521
114908
115303
115740
116191
116623
117084
117522
117984
118491
119013
119541
120067
120595
121118
121635
122164
122698
123187
123692
124396
125292
126172
126941
127647
128231
128953
129574
130120
130662
131155
131401
131533
131687
131618
131692
131678
131253
130588
129815
128785
127873
127027
126251
125801
124952
124082
95985.7
95990.6
95998.4
96009.4
96023.4
96040.5
96060.7
96083.9
96110.6
96141.2
96175.3
96212.7
96254.1
96300.2
96350.5
96404.9
96461.8
96521.8
96586.2
96654.2
96725.6
96800
96876.8
96956.2
97037.9
97121.8
97207.7
97295.3
97384.4
97474.6
97566
97658.6
97752.9
97849.1
97947.2
98047.1
98148.9
98252.2
98357.1
98463.3
98570.5
98678.6
98787.4
98896.6
99006.9
99118.5
99231.5
99345.9
99462
99581
99702.4
99827.3
99955.7
100089
100229
100374
100524
100679
100837
101000
101166
101336
101512
101696
101886
102080
102280
102487
102702
102924
103155
103394
103641
103897
104161
104436
104718
105008
105306
105612
105925
106242
106566
106895
107224
107557
107889
108217
108543
108862
109175
109477
109765
110039
110297
110540
110760
110960
111137
111288
111415
111515
111593
111647
111679
111693
111688
111667
111630
111581
111519
111449
111371
111290
111208
111122
111046
110973
110897
110845
110807
110761
110751
110785
110828
110889
110975
111108
111257
111411
111586
111862
112135
112455
112779
113162
113549
113939
114256
114663
115089
115479
115872
116257
116686
117141
117603
118049
118455
118941
119386
119717
120153
120781
121642
122548
123238
123878
124475
125096
125710
126273
126768
127283
127698
127814
127940
127838
127833
127885
127584
127031
126409
125567
124858
124179
123580
123186
122535
121772
95721.5
95726.3
95733.7
95743.6
95756.3
95772.4
95791.9
95814.8
95841.1
95870.4
95902.8
95938.3
95977.4
96020.7
96068.4
96121.1
96178.8
96240
96306.7
96377.7
96452.5
96530.4
96610.7
96693
96777.3
96863.6
96951.7
97041.5
97132.9
97225.6
97319.4
97414.2
97510
97607
97705.6
97806
97908
98011.8
98117
98223.4
98330.6
98438.5
98546.8
98655.5
98765.1
98876.2
98988.7
99102.3
99217.6
99334.8
99455.5
99577.8
99703.8
99835.3
99973
100117
100268
100424
100584
100747
100913
101081
101255
101442
101628
101820
102017
102222
102433
102651
102877
103110
103351
103600
103857
104126
104398
104678
104965
105258
105557
105861
106169
106482
106794
107107
107420
107728
108032
108329
108618
108897
109161
109410
109641
109856
110050
110219
110369
110491
110590
110662
110711
110740
110749
110738
110712
110670
110614
110545
110462
110370
110269
110164
110059
109949
109843
109746
109641
109550
109482
109404
109349
109333
109331
109335
109374
109454
109538
109631
109743
109942
110155
110418
110683
111026
111351
111694
112005
112352
112732
113040
113301
113552
113934
114293
114671
115043
115365
115790
116143
116419
116794
117358
118153
118985
119609
120221
120804
121299
121901
122480
122968
123494
124048
124233
124311
124237
124130
124170
123968
123528
123024
122420
121900
121358
120915
120584
120075
119419
95488.2
95492.8
95499.6
95508.8
95520.8
95536
95554.8
95576.8
95601.5
95628.6
95658.5
95691.1
95726.7
95766.2
95810.6
95859.6
95915.8
95979.7
96048
96121.3
96198.8
96279.6
96362.9
96447.4
96533.1
96620.5
96709.8
96800.8
96893.1
96986.8
97081.7
97177.6
97274.3
97371.9
97470.5
97570.3
97671.4
97774
97878
97983.3
98089.5
98196.4
98303.7
98411.5
98520
98629.6
98740.3
98852.5
98966.4
99082.2
99200.1
99319.9
99442.9
99571.3
99706.1
99848.1
99997.2
100153
100313
100476
100642
100810
100983
101163
101348
101537
101731
101932
102139
102351
102571
102798
103032
103273
103522
103781
104043
104313
104588
104868
105154
105444
105735
106030
106326
106620
106912
107200
107482
107757
108023
108278
108518
108742
108947
109132
109299
109439
109559
109653
109724
109771
109795
109801
109787
109754
109707
109643
109567
109477
109373
109262
109140
109012
108883
108753
108618
108495
108365
108244
108137
108036
107944
107881
107837
107799
107786
107809
107836
107878
107943
108065
108213
108419
108636
108910
109196
109474
109782
110090
110409
110657
110815
110971
111265
111523
111825
112128
112405
112750
113038
113339
113727
114176
114864
115531
116095
116661
117180
117645
118241
118792
119284
119824
120404
120715
120801
120805
120668
120659
120533
120216
119787
119394
119029
118585
118266
118009
117613
117051
95297.3
95301.6
95307.5
95315.6
95326.2
95340.3
95358.4
95379.4
95402.5
95427.4
95454.8
95485
95517.8
95554.3
95596.1
95644.1
95699.1
95761.4
95829.4
95902.8
95980.3
96060.8
96143.8
96228.2
96313.3
96400
96488.9
96579.8
96672.2
96765.4
96859.7
96955.1
97051.5
97148.8
97246.6
97345.1
97444.4
97544.8
97646.3
97749
97852.7
97957.4
98062.8
98168.6
98274.9
98382.1
98490.5
98600.4
98711.6
98823.8
98937.9
99054.6
99172.6
99298.2
99429.8
99568.7
99714.7
99867.7
100027
100189
100354
100521
100692
100869
101050
101234
101424
101620
101821
102027
102239
102458
102684
102916
103155
103403
103655
103914
104177
104444
104716
104992
105267
105545
105824
106099
106370
106637
106897
107150
107392
107624
107839
108037
108218
108375
108514
108630
108722
108789
108834
108856
108859
108842
108807
108752
108683
108600
108501
108390
108264
108131
107993
107846
107693
107542
107386
107233
107080
106936
106794
106667
106545
106439
106354
106279
106223
106192
106172
106169
106193
106238
106313
106462
106650
106868
107112
107323
107575
107837
108093
108296
108407
108505
108683
108860
109091
109340
109573
109848
110127
110467
110888
111206
111753
112288
112789
113272
113741
114211
114771
115301
115786
116338
116843
117255
117423
117483
117441
117408
117328
117130
116758
116505
116246
115884
115667
115474
115163
114689
95156.9
95160.7
95165.5
95172.4
95181.8
95194.3
95210.3
95229.4
95250.8
95273.9
95298.9
95326.6
95357.3
95391.5
95430.3
95475.2
95528.7
95588.9
95654.6
95725.7
95800.7
95878.2
95957.9
96039.4
96122.7
96207.6
96294.4
96383.5
96474.4
96566.1
96658.3
96751.5
96845.9
96941.2
97037.1
97133.5
97230.3
97327.5
97425.5
97524.5
97624.4
97725.4
97827.1
97929.5
98032.2
98135.7
98240.3
98346
98452.3
98559.6
98668.7
98779.5
98894.3
99015.7
99143.6
99279.7
99422.8
99573.5
99729.9
99889.4
100052
100217
100385
100557
100733
100913
101097
101287
101480
101678
101882
102092
102308
102532
102761
102997
103238
103485
103736
103990
104248
104509
104770
105031
105290
105546
105797
106042
106281
106512
106732
106939
107132
107304
107460
107594
107707
107799
107867
107910
107933
107932
107912
107871
107814
107739
107648
107546
107424
107292
107148
106993
106835
106671
106500
106328
106153
105974
105800
105634
105468
105312
105162
105021
104899
104789
104695
104616
104558
104517
104494
104462
104472
104563
104731
104904
105089
105257
105420
105613
105815
105961
106060
106123
106211
106313
106461
106676
106886
107124
107415
107734
108146
108428
108858
109291
109698
110116
110594
111106
111587
112096
112544
113075
113514
113941
114189
114261
114371
114364
114310
114212
113906
113737
113549
113261
113142
112989
112746
112357
95073.6
95077.3
95081
95086.7
95094.3
95104
95116.8
95132.6
95151.3
95172.5
95194.8
95220.5
95249.3
95281.7
95319.2
95362.6
95410.7
95465.2
95525
95591
95660.5
95732.9
95807.7
95884.9
95964.6
96045.9
96129
96214.8
96303
96392.5
96481.8
96571.4
96661.7
96753
96845.4
96938.3
97031.4
97124.7
97218.3
97312.3
97407
97502.7
97599.5
97697.1
97795.1
97893.2
97991.9
98091.2
98191.1
98292.4
98395.3
98499.3
98607.7
98723.1
98845.9
98979.1
99119.7
99271.1
99423.8
99578.7
99737.7
99898.7
100062
100229
100400
100574
100751
100933
101118
101308
101502
101702
101908
102122
102340
102565
102795
103029
103268
103509
103754
103999
104246
104489
104729
104966
105197
105422
105639
105849
106049
106234
106404
106555
106685
106796
106885
106952
106996
107018
107018
106997
106953
106892
106813
106719
106607
106485
106344
106192
106032
105859
105682
105499
105311
105120
104927
104729
104537
104348
104161
103979
103803
103633
103481
103338
103211
103093
103004
102926
102850
102749
102709
102746
102884
103010
103142
103280
103358
103472
103620
103713
103801
103837
103851
103878
103942
104143
104360
104593
104871
105155
105480
105832
106205
106489
106817
107269
107805
108366
108771
109230
109616
110054
110460
110842
111097
111203
111415
111453
111424
111400
111173
111068
110940
110717
110681
110576
110377
110075
95055.8
95057.4
95060
95063.3
95067.9
95074.3
95082.9
95094.3
95108.5
95125.4
95144.6
95166.4
95191.6
95220.4
95253.6
95291.9
95334.9
95383.2
95437.9
95495.9
95557.7
95622.9
95691.6
95764.2
95840
95917.3
95995.8
96076.5
96159.9
96245.1
96330.3
96415.3
96500.7
96586.8
96673.9
96761.7
96849.8
96938
97026.3
97114.6
97203.2
97292.3
97382.2
97473.1
97564.8
97656.8
97749
97841.7
97934.8
98028.5
98123.1
98219
98319.5
98427.6
98544.9
98673
98810.6
98955.8
99104.9
99258
99412.6
99568.4
99726.7
99888.2
100052
100218
100387
100561
100737
100917
101102
101291
101486
101688
101895
102108
102326
102548
102775
103003
103234
103466
103697
103924
104147
104365
104578
104784
104981
105169
105347
105512
105659
105790
105898
105985
106051
106093
106113
106115
106093
106052
105989
105911
105813
105701
105570
105426
105267
105096
104921
104735
104542
104341
104135
103928
103718
103505
103297
103086
102881
102678
102479
102284
102105
101938
101778
101628
101511
101396
101266
101131
101041
101034
101116
101203
101299
101356
101412
101464
101544
101621
101676
101669
101620
101582
101582
101776
101994
102243
102484
102747
102971
103299
103673
103852
104230
104792
105370
105901
106268
106670
106984
107295
107636
107962
108179
108373
108598
108645
108651
108676
108528
108495
108422
108263
108300
108243
108076
107861
95108.6
95108.5
95108.7
95108.6
95108.9
95110.1
95112.5
95118.2
95126.4
95136.8
95149.7
95165.5
95184.4
95207
95234
95265.3
95300.9
95340.6
95389.3
95436.9
95488.4
95544
95605.5
95673.6
95745.6
95819.1
95893.1
95967.2
96044.1
96122.4
96201.7
96282
96362.7
96443.3
96524.1
96605.4
96686.9
96768.3
96849.8
96931.6
97013.3
97094.9
97176.9
97259.7
97343.7
97428.5
97513.3
97598
97683.1
97768.9
97855.4
97943.6
98036.3
98136.1
98246.2
98367.3
98498.5
98637.8
98782
98930.1
99079.2
99228.7
99380.7
99535.3
99690.8
99848.1
100009
100173
100340
100509
100684
100862
101043
101233
101429
101629
101835
102046
102261
102477
102694
102912
103129
103341
103548
103750
103945
104132
104309
104477
104634
104779
104906
105014
105102
105166
105210
105230
105231
105215
105176
105116
105037
104942
104825
104693
104545
104379
104205
104019
103828
103627
103417
103201
102979
102757
102533
102307
102085
101856
101634
101415
101196
100984
100778
100589
100403
100225
100079
99930.6
99760.8
99611.6
99497
99433.5
99450.9
99497.3
99573.6
99550.5
99554
99570.1
99619.1
99676.9
99680.6
99627.6
99545.8
99466.6
99456.2
99634.6
99805.1
100042
100252
100487
100651
100824
101215
101502
102012
102579
103099
103558
103943
104308
104563
104782
105031
105293
105477
105744
105944
105965
106024
106075
105990
106032
105998
105919
106016
105994
105855
105710
95214.9
95212.8
95210
95206
95201.4
95197.3
95194.7
95192.8
95193.8
95197.2
95203.3
95212.3
95224.3
95240
95259.4
95282.8
95310.4
95342
95378.8
95416.5
95457.7
95504.9
95561.1
95624.9
95692.6
95761.3
95830.5
95899.9
95970.4
96042.3
96116
96191.2
96266.3
96340.9
96415.5
96490.4
96565.4
96640
96714.2
96788.6
96863.2
96937.7
97012.3
97087.2
97163
97240
97317.8
97395.6
97473.5
97552.1
97631.7
97713.2
97798.9
97891.5
97994.7
98108.3
98231.9
98364.3
98501.9
98643
98785.4
98928.3
99072.9
99219.7
99367.3
99516.3
99668.7
99823.4
99979.9
100140
100304
100470
100641
100818
101002
101190
101386
101586
101791
101997
102203
102410
102614
102812
103005
103192
103372
103544
103705
103856
103995
104120
104229
104318
104386
104433
104457
104460
104446
104414
104360
104285
104192
104080
103947
103795
103632
103450
103261
103064
102856
102637
102411
102181
101944
101709
101472
101234
101001
100760
100523
100292
100055
99828.7
99603
99393.9
99186.3
98985.9
98814.5
98633
98443.8
98291.8
98159.4
98046.2
97996.9
98001
98031.1
98000.9
97932.2
97903.4
97921.9
97949.3
97915
97836.8
97751.6
97677.1
97692.3
97795.9
97895.3
98069.9
98240.6
98470.4
98638.1
98682.5
99085.9
99562.6
100097
100539
100980
101389
101786
102129
102350
102534
102699
102880
103049
103343
103499
103492
103605
103656
103623
103714
103697
103713
103844
103833
103718
103618
95329
95324.7
95318.8
95311.5
95302.7
95293.6
95285.1
95277.9
95273.1
95270.6
95270.9
95274.1
95280.4
95290.1
95303.1
95320
95340.5
95364.4
95390.9
95420.1
95453.5
95494
95544.4
95603.9
95668.1
95733.4
95799
95864.6
95930.5
95997.5
96065.9
96134.4
96202.7
96270.9
96339.5
96408.8
96478.3
96546.9
96614.8
96682.1
96749.6
96817.7
96886
96954.4
97023.2
97093.1
97164.3
97236.3
97308.3
97380.9
97454.9
97531
97610.9
97697.8
97795
97901.7
98018.4
98143.6
98273.8
98407.5
98543
98678.9
98816.3
98955.7
99096.2
99237.8
99382.2
99528.3