/*--------------------------------*- C++ -*----------------------------------*\
| =========                 |                                                 |
| \\      /  F ield         | OpenFOAM: The Open Source CFD Toolbox           |
|  \\    /   O peration     | Version:  dev                                   |
|   \\  /    A nd           | Web:      http://www.openfoam.org               |
|    \\/     M anipulation  |                                                 |
\*---------------------------------------------------------------------------*/
FoamFile
{
    version     2.0;
    format      ascii;
    class       surfaceScalarField;
    object      phi;
    location    "9.148";
}
// * * * * * * * * * * * * * * * * * * * * * * * * * * * * * * * * * * * * * //

dimensions      [1 0 -1 0 0 0 0];

internalField   nonuniform List<scalar> 
24170
(
2.22422e-06
-1.20265e-07
1.39693e-06
-6.77621e-07
1.0701e-06
-1.10716e-06
9.95802e-07
-1.29228e-06
1.02275e-06
-1.325e-06
1.12357e-06
-1.33333e-06
1.20491e-06
-1.25006e-06
1.40608e-06
-1.30827e-06
1.52579e-06
-1.16841e-06
1.80057e-06
-1.26686e-06
2.00714e-06
-1.1447e-06
2.38411e-06
-1.26396e-06
2.75402e-06
-1.20665e-06
3.4258e-06
-1.46336e-06
3.95349e-06
-1.27632e-06
6.34661e-06
-3.09811e-06
8.92558e-06
-3.25659e-06
-4.32178e-06
1.26598e-05
3.93008e-06
-1.57506e-06
3.32847e-06
-1.69484e-06
2.83659e-06
-2.16997e-06
2.56398e-06
-2.50315e-06
2.39043e-06
-2.56637e-06
2.29535e-06
-2.57967e-06
2.24667e-06
-2.47708e-06
2.28605e-06
-2.55446e-06
2.35761e-06
-2.38548e-06
2.50167e-06
-2.49339e-06
2.73502e-06
-2.40411e-06
2.97851e-06
-2.47637e-06
3.48104e-06
-2.6245e-06
3.98737e-06
-2.83685e-06
4.83497e-06
-2.94237e-06
6.83964e-06
-5.88106e-06
8.04427e-06
-5.19029e-06
-5.5772e-06
8.63306e-06
4.72491e-06
-3.61777e-06
4.81711e-06
-3.56184e-06
4.56012e-06
-3.6206e-06
4.38292e-06
-3.95163e-06
4.15123e-06
-3.88742e-06
4.12028e-06
-4.01745e-06
3.99213e-06
-3.74876e-06
4.08872e-06
-3.97411e-06
4.07218e-06
-3.62657e-06
4.2908e-06
-3.89901e-06
4.34091e-06
-3.58225e-06
4.89059e-06
-4.09287e-06
4.89562e-06
-3.63691e-06
5.68925e-06
-4.58344e-06
5.66589e-06
-3.82099e-06
6.78766e-06
-7.85512e-06
8.0621e-06
-7.2619e-06
-7.97279e-06
9.71284e-06
5.05173e-06
-5.7362e-06
5.69665e-06
-6.14843e-06
5.67283e-06
-5.46801e-06
5.81522e-06
-5.87149e-06
5.60664e-06
-5.37733e-06
5.81697e-06
-5.8318e-06
5.57944e-06
-5.03925e-06
5.89226e-06
-5.73332e-06
5.74835e-06
-4.8559e-06
6.01861e-06
-5.46285e-06
5.92096e-06
-4.71286e-06
6.47601e-06
-5.81153e-06
6.45701e-06
-4.72341e-06
7.21091e-06
-6.3752e-06
7.36134e-06
-4.96318e-06
7.99892e-06
-9.43269e-06
8.25008e-06
-8.39449e-06
-1.1511e-05
1.09938e-05
5.38375e-06
-7.82551e-06
5.85319e-06
-8.7361e-06
5.84122e-06
-7.49796e-06
6.36826e-06
-8.33902e-06
6.16341e-06
-7.02226e-06
6.53516e-06
-7.95556e-06
6.19856e-06
-6.36657e-06
6.65115e-06
-7.76374e-06
6.65179e-06
-6.35168e-06
7.00471e-06
-7.22727e-06
6.84714e-06
-5.89094e-06
7.4217e-06
-7.64995e-06
7.61765e-06
-6.11893e-06
8.11617e-06
-8.00632e-06
8.39091e-06
-6.30562e-06
8.55314e-06
-1.06157e-05
7.89134e-06
-8.70871e-06
-1.35998e-05
9.10884e-06
6.10363e-06
-1.01522e-05
6.24384e-06
-1.11761e-05
6.27539e-06
-9.74096e-06
6.94764e-06
-1.11193e-05
6.61022e-06
-8.68581e-06
6.78697e-06
-1.00309e-05
6.64884e-06
-8.03389e-06
7.17203e-06
-9.99779e-06
7.26344e-06
-8.05788e-06
7.56769e-06
-9.06114e-06
7.61206e-06
-7.38271e-06
8.11766e-06
-9.52617e-06
8.50118e-06
-7.79132e-06
8.81772e-06
-9.54958e-06
9.33717e-06
-7.97793e-06
9.11865e-06
-1.14764e-05
8.81401e-06
-9.43219e-06
-1.34443e-05
7.68701e-06
6.63151e-06
-1.27255e-05
7.09446e-06
-1.41194e-05
6.93763e-06
-1.19659e-05
7.48748e-06
-1.3939e-05
7.33883e-06
-1.06961e-05
7.44635e-06
-1.2179e-05
7.64582e-06
-1.01713e-05
8.03418e-06
-1.22246e-05
8.00018e-06
-9.76039e-06
8.20936e-06
-1.09102e-05
8.61103e-06
-9.33891e-06
8.88922e-06
-1.12711e-05
9.33832e-06
-9.61934e-06
9.63291e-06
-1.11513e-05
1.00434e-05
-9.62991e-06
9.53927e-06
-1.21301e-05
9.64417e-06
-1.06214e-05
-1.31433e-05
8.29789e-06
5.26116e-06
-1.47688e-05
5.646e-06
-1.63883e-05
5.56184e-06
-1.36925e-05
5.61819e-06
-1.57176e-05
5.62389e-06
-1.23422e-05
5.7768e-06
-1.3885e-05
5.99081e-06
-1.18531e-05
6.03491e-06
-1.36627e-05
6.19754e-06
-1.12407e-05
6.36673e-06
-1.23196e-05
6.76628e-06
-1.09126e-05
6.85884e-06
-1.24737e-05
7.1509e-06
-1.09528e-05
7.24989e-06
-1.22338e-05
7.63697e-06
-1.0954e-05
7.29231e-06
-1.26679e-05
7.40531e-06
-1.1559e-05
-1.31331e-05
6.60851e-06
6.11754e-06
-1.70247e-05
6.39602e-06
-1.88002e-05
6.50465e-06
-1.58492e-05
6.44853e-06
-1.76082e-05
6.60489e-06
-1.43484e-05
6.68968e-06
-1.5722e-05
6.8991e-06
-1.37194e-05
6.80481e-06
-1.51386e-05
7.22727e-06
-1.31456e-05
7.52738e-06
-1.40163e-05
7.98578e-06
-1.26919e-05
7.96366e-06
-1.37025e-05
8.27811e-06
-1.24423e-05
8.30318e-06
-1.33665e-05
8.65494e-06
-1.23552e-05
8.33043e-06
-1.33371e-05
8.47111e-06
-1.26305e-05
-1.32928e-05
7.74531e-06
7.04979e-06
-1.96604e-05
7.34028e-06
-2.14753e-05
7.59551e-06
-1.83952e-05
7.60088e-06
-1.97925e-05
7.98432e-06
-1.67974e-05
7.95535e-06
-1.76469e-05
8.16023e-06
-1.5772e-05
8.02855e-06
-1.67532e-05
8.43442e-06
-1.52009e-05
8.55044e-06
-1.56892e-05
8.91542e-06
-1.45281e-05
8.85575e-06
-1.50314e-05
9.17495e-06
-1.40673e-05
9.13553e-06
-1.45576e-05
9.42246e-06
-1.38034e-05
9.16483e-06
-1.41751e-05
9.23304e-06
-1.37314e-05
-1.38531e-05
8.81792e-06
8.61481e-06
-2.25623e-05
8.53835e-06
-2.40295e-05
8.82663e-06
-2.11996e-05
8.67635e-06
-2.20404e-05
9.13674e-06
-1.9525e-05
9.13185e-06
-1.97888e-05
9.49937e-06
-1.81637e-05
9.41416e-06
-1.85797e-05
9.7768e-06
-1.7367e-05
9.71474e-06
-1.73302e-05
9.94984e-06
-1.63679e-05
9.89085e-06
-1.64878e-05
1.01504e-05
-1.57483e-05
1.01166e-05
-1.58573e-05
1.03186e-05
-1.52685e-05
1.01608e-05
-1.52009e-05
1.025e-05
-1.49362e-05
-1.48132e-05
1.01517e-05
9.91397e-06
-2.60042e-05
9.89167e-06
-2.68494e-05
1.02929e-05
-2.43034e-05
1.00502e-05
-2.437e-05
1.04609e-05
-2.23602e-05
1.0394e-05
-2.20175e-05
1.08129e-05
-2.07426e-05
1.08474e-05
-2.06537e-05
1.12676e-05
-1.97046e-05
1.13138e-05
-1.91845e-05
1.16282e-05
-1.83827e-05
1.16227e-05
-1.80859e-05
1.18188e-05
-1.74556e-05
1.17634e-05
-1.72174e-05
1.1921e-05
-1.6755e-05
1.18975e-05
-1.64352e-05
1.18755e-05
-1.60916e-05
-1.57794e-05
1.17311e-05
1.14146e-05
-2.95603e-05
1.14109e-05
-2.98037e-05
1.18344e-05
-2.75265e-05
1.16401e-05
-2.68345e-05
1.20567e-05
-2.52772e-05
1.21484e-05
-2.44717e-05
1.25507e-05
-2.33647e-05
1.2634e-05
-2.28297e-05
1.28643e-05
-2.18987e-05
1.29232e-05
-2.10913e-05
1.31266e-05
-2.03228e-05
1.3171e-05
-1.97652e-05
1.33367e-05
-1.9157e-05
1.34061e-05
-1.87336e-05
1.34602e-05
-1.81629e-05
1.34462e-05
-1.76909e-05
1.33808e-05
-1.72216e-05
-1.67711e-05
1.32454e-05
1.36819e-05
-3.27959e-05
1.35066e-05
-3.25301e-05
1.38586e-05
-3.0618e-05
1.38894e-05
-2.94598e-05
1.42679e-05
-2.80896e-05
1.44602e-05
-2.69549e-05
1.47736e-05
-2.58248e-05
1.49457e-05
-2.50167e-05
1.51148e-05
-2.39563e-05
1.52356e-05
-2.29858e-05
1.53845e-05
-2.21355e-05
1.54261e-05
-2.13712e-05
1.54643e-05
-2.06616e-05
1.53704e-05
-2.00149e-05
1.5338e-05
-1.94223e-05
1.52214e-05
-1.87858e-05
1.50519e-05
-1.81845e-05
-1.75928e-05
1.48064e-05
1.56033e-05
-3.5854e-05
1.5857e-05
-3.53392e-05
1.62847e-05
-3.34563e-05
1.64903e-05
-3.19386e-05
1.6721e-05
-3.04449e-05
1.68996e-05
-2.91205e-05
1.71218e-05
-2.79005e-05
1.72784e-05
-2.69026e-05
1.74118e-05
-2.57065e-05
1.75388e-05
-2.46273e-05
1.76496e-05
-2.36648e-05
1.77182e-05
-2.27679e-05
1.77505e-05
-2.1938e-05
1.77035e-05
-2.11327e-05
1.75826e-05
-2.039e-05
1.74591e-05
-1.96818e-05
1.73107e-05
-1.89937e-05
-1.82597e-05
1.70814e-05
1.78881e-05
-3.79818e-05
1.81944e-05
-3.7416e-05
1.84525e-05
-3.53761e-05
1.87016e-05
-3.37423e-05
1.89735e-05
-3.21606e-05
1.9237e-05
-3.07222e-05
1.95218e-05
-2.94233e-05
1.97489e-05
-2.82717e-05
1.99814e-05
-2.69995e-05
2.01936e-05
-2.5826e-05
2.03319e-05
-2.47213e-05
2.03866e-05
-2.36776e-05
2.03557e-05
-2.27055e-05
2.02622e-05
-2.1782e-05
2.01097e-05
-2.09291e-05
1.99103e-05
-2.01264e-05
1.96686e-05
-1.93519e-05
-1.85561e-05
1.94026e-05
2.10685e-05
-3.86142e-05
2.14178e-05
-3.81111e-05
2.17508e-05
-3.60148e-05
2.21179e-05
-3.43804e-05
2.25333e-05
-3.28082e-05
2.29366e-05
-3.13215e-05
2.32663e-05
-2.99162e-05
2.34709e-05
-2.86079e-05
2.36826e-05
-2.73219e-05
2.38292e-05
-2.60624e-05
2.38781e-05
-2.48377e-05
2.38528e-05
-2.37047e-05
2.37379e-05
-2.26367e-05
2.35807e-05
-2.16586e-05
2.33499e-05
-2.07195e-05
2.31e-05
-1.98914e-05
2.28125e-05
-1.90726e-05
-1.82571e-05
2.25107e-05
2.14439e-05
-3.76374e-05
2.19156e-05
-3.70263e-05
2.23093e-05
-3.49199e-05
2.26432e-05
-3.33055e-05
2.29753e-05
-3.17972e-05
2.33062e-05
-3.03728e-05
2.35226e-05
-2.89105e-05
2.37117e-05
-2.76321e-05
2.38324e-05
-2.63431e-05
2.38906e-05
-2.50829e-05
2.39089e-05
-2.38597e-05
2.39115e-05
-2.27565e-05
2.39337e-05
-2.17701e-05
2.38797e-05
-2.07657e-05
2.37798e-05
-1.98179e-05
2.35882e-05
-1.89407e-05
2.3328e-05
-1.80927e-05
-1.72653e-05
2.30163e-05
1.94031e-05
-3.52194e-05
1.97078e-05
-3.44282e-05
2.01212e-05
-3.25609e-05
2.05295e-05
-3.10995e-05
2.0917e-05
-2.97142e-05
2.12172e-05
-2.83432e-05
2.14857e-05
-2.69808e-05
2.16509e-05
-2.57169e-05
2.17907e-05
-2.45277e-05
2.18881e-05
-2.33555e-05
2.19619e-05
-2.22066e-05
2.20115e-05
-2.11608e-05
2.20182e-05
-2.02387e-05
2.19598e-05
-1.92703e-05
2.18347e-05
-1.83294e-05
2.16509e-05
-1.74703e-05
2.14006e-05
-1.66262e-05
-1.58347e-05
2.11217e-05
1.69918e-05
-3.15186e-05
1.74247e-05
-3.11586e-05
1.80262e-05
-2.96397e-05
1.86453e-05
-2.83962e-05
1.91648e-05
-2.70975e-05
1.94523e-05
-2.56783e-05
1.96938e-05
-2.44477e-05
1.98105e-05
-2.32122e-05
1.98413e-05
-2.2095e-05
1.98623e-05
-2.10854e-05
1.98758e-05
-2.00684e-05
1.98681e-05
-1.9105e-05
1.97883e-05
-1.82374e-05
1.96562e-05
-1.73478e-05
1.949e-05
-1.64784e-05
1.92791e-05
-1.5674e-05
1.90487e-05
-1.48988e-05
-1.41721e-05
1.88039e-05
1.5541e-05
-2.77209e-05
1.59849e-05
-2.75244e-05
1.65469e-05
-2.63113e-05
1.70084e-05
-2.5188e-05
1.72737e-05
-2.3898e-05
1.74804e-05
-2.26305e-05
1.76406e-05
-2.15568e-05
1.7789e-05
-2.04846e-05
1.79104e-05
-1.95026e-05
1.79664e-05
-1.86159e-05
1.79831e-05
-1.7731e-05
1.79639e-05
-1.68537e-05
1.78784e-05
-1.60448e-05
1.77589e-05
-1.52592e-05
1.76285e-05
-1.45021e-05
1.74632e-05
-1.37805e-05
1.72731e-05
-1.30881e-05
-1.24392e-05
1.70742e-05
1.41382e-05
-2.4057e-05
1.46323e-05
-2.38435e-05
1.50393e-05
-2.27292e-05
1.53349e-05
-2.17231e-05
1.55865e-05
-2.06018e-05
1.58363e-05
-1.95416e-05
1.60131e-05
-1.86085e-05
1.61413e-05
-1.76788e-05
1.62411e-05
-1.68289e-05
1.62448e-05
-1.6023e-05
1.61692e-05
-1.52441e-05
1.61323e-05
-1.45481e-05
1.60719e-05
-1.38421e-05
1.59952e-05
-1.31708e-05
1.59072e-05
-1.25217e-05
1.57852e-05
-1.18875e-05
1.56578e-05
-1.13022e-05
-1.07278e-05
1.55064e-05
1.26383e-05
-2.01434e-05
1.29934e-05
-2.01211e-05
1.33252e-05
-1.91559e-05
1.35543e-05
-1.82669e-05
1.37921e-05
-1.73682e-05
1.40965e-05
-1.65741e-05
1.43437e-05
-1.57833e-05
1.45268e-05
-1.49875e-05
1.46499e-05
-1.42471e-05
1.4704e-05
-1.35297e-05
1.4699e-05
-1.28634e-05
1.46505e-05
-1.22775e-05
1.45685e-05
-1.16713e-05
1.4462e-05
-1.11068e-05
1.43331e-05
-1.05491e-05
1.41839e-05
-1.00046e-05
1.40211e-05
-9.51341e-06
-9.01594e-06
1.38402e-05
1.1025e-05
-1.65791e-05
1.15614e-05
-1.67771e-05
1.20713e-05
-1.59536e-05
1.24437e-05
-1.51321e-05
1.27204e-05
-1.43412e-05
1.2965e-05
-1.37089e-05
1.31563e-05
-1.30473e-05
1.32882e-05
-1.23764e-05
1.33625e-05
-1.17539e-05
1.34155e-05
-1.11693e-05
1.34506e-05
-1.06336e-05
1.3412e-05
-1.01185e-05
1.33613e-05
-9.63161e-06
1.32729e-05
-9.15693e-06
1.31626e-05
-8.6934e-06
1.30463e-05
-8.24554e-06
1.29043e-05
-7.8275e-06
-7.41757e-06
1.27595e-05
1.01543e-05
-1.31595e-05
1.04304e-05
-1.34423e-05
1.07818e-05
-1.28492e-05
1.11591e-05
-1.22416e-05
1.15289e-05
-1.16286e-05
1.17891e-05
-1.10678e-05
1.19573e-05
-1.04863e-05
1.20552e-05
-9.91105e-06
1.20949e-05
-9.3947e-06
1.21057e-05
-8.93373e-06
1.20991e-05
-8.51806e-06
1.20689e-05
-8.11148e-06
1.20168e-05
-7.72647e-06
1.1916e-05
-7.31754e-06
1.17924e-05
-6.94072e-06
1.16559e-05
-6.57979e-06
1.15072e-05
-6.24118e-06
-5.92394e-06
1.13647e-05
9.09968e-06
-1.03548e-05
9.57268e-06
-1.06034e-05
9.9994e-06
-1.0103e-05
1.03113e-05
-9.55078e-06
1.05582e-05
-9.04118e-06
1.0743e-05
-8.58398e-06
1.08833e-05
-8.11858e-06
1.09849e-05
-7.65887e-06
1.10472e-05
-7.24951e-06
1.10582e-05
-6.87695e-06
1.10245e-05
-6.54849e-06
1.09352e-05
-6.20736e-06
1.08141e-05
-5.90382e-06
1.065e-05
-5.55782e-06
1.04793e-05
-5.27197e-06
1.03111e-05
-5.00607e-06
1.01513e-05
-4.76099e-06
-4.49283e-06
9.96136e-06
8.02771e-06
-7.69974e-06
8.59386e-06
-8.1632e-06
9.03413e-06
-7.66033e-06
9.32542e-06
-7.11182e-06
9.49338e-06
-6.63099e-06
9.57969e-06
-6.2427e-06
9.62167e-06
-5.88004e-06
9.63963e-06
-5.53781e-06
9.63004e-06
-5.23528e-06
9.58443e-06
-4.95245e-06
9.45454e-06
-4.65798e-06
9.31355e-06
-4.41692e-06
9.10876e-06
-4.15264e-06
8.9216e-06
-3.92039e-06
8.7408e-06
-3.73019e-06
8.53318e-06
-3.52039e-06
8.34219e-06
-3.36944e-06
-3.18813e-06
8.16601e-06
7.21586e-06
-5.25611e-06
7.6222e-06
-5.8607e-06
7.87595e-06
-5.31366e-06
7.99398e-06
-4.76659e-06
7.97725e-06
-4.28771e-06
7.86351e-06
-3.93762e-06
7.7148e-06
-3.67244e-06
7.55593e-06
-3.44768e-06
7.37407e-06
-3.24344e-06
7.17287e-06
-3.05558e-06
6.97996e-06
-2.8764e-06
6.75771e-06
-2.70596e-06
6.55543e-06
-2.55494e-06
6.35805e-06
-2.41447e-06
6.14904e-06
-2.29352e-06
5.96174e-06
-2.18058e-06
5.75705e-06
-2.08219e-06
-1.97655e-06
5.56309e-06
6.33198e-06
-3.23586e-06
6.14977e-06
-3.25359e-06
5.81216e-06
-2.64468e-06
5.49402e-06
-2.23832e-06
5.21835e-06
-1.92386e-06
4.97823e-06
-1.73052e-06
4.75863e-06
-1.60449e-06
4.55642e-06
-1.51163e-06
4.36718e-06
-1.42947e-06
4.18753e-06
-1.35419e-06
4.01748e-06
-1.28118e-06
3.8558e-06
-1.20926e-06
3.6997e-06
-1.14765e-06
3.54757e-06
-1.08906e-06
3.39374e-06
-1.03872e-06
3.24219e-06
-9.95182e-07
3.10109e-06
-9.69516e-07
-9.33725e-07
2.97202e-06
4.26478e-06
3.15022e-06
2.56104e-06
2.27472e-06
2.19685e-06
2.20583e-06
2.23634e-06
2.25883e-06
2.26754e-06
2.26112e-06
2.24304e-06
2.21791e-06
2.1809e-06
2.13415e-06
2.0743e-06
1.99907e-06
1.8949e-06
1.77559e-06
-7.2537e-07
1.16129e-06
-1.51803e-06
1.24907e-06
-2.23571e-06
1.17481e-06
-2.84916e-06
1.07357e-06
-3.33547e-06
9.47045e-07
-3.65675e-06
7.77589e-07
-3.81132e-06
6.08219e-07
-3.80844e-06
4.48306e-07
-3.74565e-06
3.8599e-07
-3.65011e-06
3.51235e-07
-3.55052e-06
3.4647e-07
-3.44215e-06
3.36802e-07
-3.3336e-06
3.35132e-07
-3.19453e-06
3.02944e-07
-3.01341e-06
2.5816e-07
-2.79342e-06
2.16086e-07
-2.53408e-06
1.72859e-07
-2.21466e-06
1.08041e-07
-1.83585e-06
4.3344e-08
-1.41357e-06
-5.43112e-09
-9.77729e-07
-2.38116e-08
-5.22552e-07
-4.94734e-08
-2.93053e-08
-9.48499e-08
4.79453e-07
-1.18355e-07
1.01515e-06
-1.54158e-07
1.58907e-06
-2.00691e-07
2.17392e-06
-2.21099e-07
2.7595e-06
-2.35492e-07
3.33053e-06
-2.33962e-07
3.84917e-06
-1.9059e-07
4.34162e-06
-1.77366e-07
4.7979e-06
-1.61145e-07
5.18556e-06
-1.04177e-07
5.50737e-06
-4.72469e-08
5.717e-06
3.70126e-08
5.78666e-06
1.60004e-07
5.73245e-06
2.73855e-07
5.52156e-06
3.9601e-07
5.10716e-06
5.87132e-07
4.51777e-06
7.45334e-07
3.67017e-06
9.56655e-07
2.60947e-06
1.16234e-06
1.24254e-06
1.45805e-06
-4.52207e-07
1.746e-06
-1.95312e-06
1.52609e-06
-2.93977e-06
9.73654e-07
-3.67595e-06
6.86374e-07
-4.1644e-06
4.07639e-07
-4.20854e-06
-6.28729e-08
-4.25136e-06
-9.30443e-08
-4.49253e-06
7.03142e-08
-4.8723e-06
1.71035e-07
-5.26025e-06
1.42946e-07
-5.67365e-06
1.38297e-07
-6.16845e-06
1.96282e-07
-6.67408e-06
1.77587e-07
-7.07147e-06
9.21856e-09
-7.27293e-06
-2.81245e-07
-7.07523e-06
-7.58224e-07
-6.60659e-06
-1.06072e-06
-6.15391e-06
-1.0769e-06
-5.49292e-06
-1.33854e-06
-4.59115e-06
-1.63514e-06
-3.66074e-06
-1.72426e-06
-1.95798e-06
-2.55755e-06
5.25299e-07
-3.39673e-06
2.79349e-06
-3.24422e-06
4.05031e-06
-2.29367e-06
4.63432e-06
-1.68433e-06
4.58848e-06
-1.1233e-06
3.93754e-06
-5.91197e-07
3.4782e-06
-8.4502e-07
3.51302e-06
-1.37658e-06
3.75395e-06
-1.6655e-06
3.52864e-06
-1.31436e-06
2.42031e-06
-4.61658e-07
8.45377e-07
-1.05948e-08
-7.67966e-07
-4.7126e-08
-2.18699e-06
-3.22828e-07
-3.33633e-06
-6.62565e-07
-4.22923e-06
-9.82513e-07
-4.89654e-06
-1.26911e-06
-5.38091e-06
-1.51391e-06
-5.69485e-06
-1.74438e-06
-5.88039e-06
-1.93209e-06
-5.94755e-06
-2.10846e-06
-5.90525e-06
-2.27503e-06
-5.74775e-06
-2.44833e-06
-5.4876e-06
-2.61249e-06
-5.14743e-06
-2.75929e-06
-4.71564e-06
-2.92166e-06
-4.16709e-06
-3.11163e-06
-3.46761e-06
-3.33701e-06
-2.6351e-06
-3.54614e-06
-1.72956e-06
-3.69971e-06
-8.56587e-07
-3.75181e-06
1.65343e-07
-3.98378e-06
1.24186e-06
-4.13397e-06
2.25692e-06
-4.17513e-06
3.22603e-06
-4.23916e-06
4.19786e-06
-4.3576e-06
4.93834e-06
-4.24236e-06
5.63984e-06
-4.31118e-06
6.46837e-06
-4.54008e-06
7.04821e-06
-4.41527e-06
7.63892e-06
-4.52627e-06
7.99689e-06
-4.40202e-06
8.41083e-06
-4.53403e-06
8.64792e-06
-4.44225e-06
8.51001e-06
-4.17201e-06
8.17447e-06
-4.04782e-06
8.11758e-06
-4.33493e-06
8.1105e-06
-4.40918e-06
7.70691e-06
-4.0864e-06
6.68467e-06
-3.52659e-06
5.67327e-06
-3.52714e-06
5.06725e-06
-3.89207e-06
4.20756e-06
-3.63171e-06
2.88763e-06
-3.15545e-06
1.48452e-06
-2.99673e-06
1.58782e-07
-3.00488e-06
-1.57844e-06
-2.57266e-06
-3.33261e-06
-2.41955e-06
-4.63251e-06
-2.61313e-06
-5.59077e-06
-2.7216e-06
-6.70715e-06
-2.36011e-06
-7.62476e-06
-2.33278e-06
-7.66218e-06
-2.91139e-06
-7.43868e-06
-2.931e-06
-7.86765e-06
-1.99197e-06
-9.24716e-06
-7.5139e-07
-1.12241e-05
1.0891e-07
-1.31087e-05
3.26981e-07
-1.42023e-05
-8.46355e-08
-1.42307e-05
-6.31758e-07
-1.37634e-05
-6.61018e-07
-1.38259e-05
1.97143e-07
-1.42985e-05
9.07992e-07
-1.39975e-05
4.02912e-07
-1.24072e-05
-5.31143e-07
-1.16254e-05
6.51428e-07
-9.90189e-06
1.31474e-07
-8.95252e-06
9.99658e-07
-8.77015e-06
1.87369e-06
-9.26132e-06
2.65763e-06
-1.01417e-05
3.12636e-06
-9.20603e-06
1.404e-06
-4.71482e-06
-2.01944e-06
-8.12808e-07
-1.40388e-06
6.54253e-07
1.0133e-06
8.15286e-07
2.31603e-06
8.13957e-07
2.51691e-06
5.19295e-07
2.8359e-06
-1.1701e-06
4.35183e-06
-1.78522e-06
3.47183e-06
2.58931e-06
-1.47303e-06
6.15517e-06
-6.28043e-07
5.77064e-06
3.37594e-06
6.65873e-06
2.06118e-06
6.57526e-06
3.03788e-06
8.58873e-06
7.97889e-07
1.26048e-05
-1.56919e-06
1.68494e-05
-2.31824e-06
1.9904e-05
-1.76916e-06
2.23366e-05
-1.98356e-06
2.35639e-05
-1.6976e-06
2.33305e-05
-1.18131e-06
2.10735e-05
-1.90623e-09
1.91937e-05
-1.57416e-06
1.72528e-05
-2.77681e-06
1.29988e-05
-1.17463e-06
8.03469e-06
-1.32577e-06
2.39699e-06
-7.78529e-07
1.21565e-06
-5.99802e-06
3.79137e-06
-9.87214e-06
5.12866e-06
-9.46168e-06
5.92852e-06
-9.32686e-06
5.7078e-07
-2.52574e-06
-4.65749e-06
-2.67953e-06
-3.96462e-06
-8.33615e-06
-4.71971e-07
2.03329e-06
-1.11083e-06
2.32513e-06
-1.71952e-06
2.24567e-06
-2.26312e-06
2.0798e-06
-2.7092e-06
1.8505e-06
-3.00614e-06
1.51721e-06
-3.13086e-06
1.1598e-06
-3.10797e-06
8.42819e-07
-3.04145e-06
7.32675e-07
-2.98059e-06
7.01831e-07
-2.93531e-06
7.12672e-07
-2.89838e-06
7.11653e-07
-2.84328e-06
6.90307e-07
-2.74648e-06
6.14762e-07
-2.58197e-06
4.99992e-07
-2.3726e-06
4.09928e-07
-2.12384e-06
3.23695e-07
-1.83975e-06
2.18688e-07
-1.51434e-06
1.06099e-07
-1.12926e-06
-8.28563e-09
-6.86889e-07
-8.72408e-08
-2.23639e-07
-1.37981e-07
2.58059e-07
-2.07751e-07
7.76935e-07
-2.7541e-07
1.31111e-06
-3.35006e-07
1.87029e-06
-4.12375e-07
2.46539e-06
-4.74807e-07
3.07408e-06
-5.22273e-07
3.70045e-06
-5.50626e-07
4.32812e-06
-5.056e-07
4.90177e-06
-4.66014e-07
5.46657e-06
-4.63501e-07
6.0391e-06
-3.96285e-07
6.54469e-06
-2.95581e-07
6.96698e-06
-1.66238e-07
7.27909e-06
7.28962e-08
7.55363e-06
1.94541e-07
7.75868e-06
3.53437e-07
7.85796e-06
6.52565e-07
7.85366e-06
8.72719e-07
7.72177e-06
1.19453e-06
7.42387e-06
1.55688e-06
7.11469e-06
1.80895e-06
6.69275e-06
2.20805e-06
5.86788e-06
2.36669e-06
4.46813e-06
2.34136e-06
2.68048e-06
2.44584e-06
9.42921e-07
2.08211e-06
-6.64229e-07
1.42613e-06
-1.77905e-06
8.71037e-07
-2.39208e-06
4.93904e-07
-2.91383e-06
4.72073e-07
-3.66963e-06
6.56226e-07
-4.54091e-06
7.37177e-07
-5.22678e-06
5.65793e-07
-5.55232e-06
1.40736e-07
-5.61061e-06
-3.39938e-07
-5.56042e-06
-8.00768e-07
-4.97927e-06
-1.86856e-06
-4.29213e-06
-2.30965e-06
-3.64976e-06
-2.32152e-06
-2.62952e-06
-3.01434e-06
-1.85644e-06
-3.12717e-06
-9.19016e-07
-3.44343e-06
7.84574e-07
-5.0982e-06
2.40247e-06
-5.90101e-06
3.64163e-06
-5.4365e-06
4.31492e-06
-3.98365e-06
4.56271e-06
-2.98288e-06
4.40955e-06
-2.1087e-06
3.95337e-06
-1.39518e-06
2.58225e-06
-7.7486e-07
2.05307e-07
-3.31865e-07
-2.82816e-06
-3.99433e-08
-5.53823e-06
-9.6807e-08
-7.39921e-06
-1.65235e-07
-8.70363e-06
-3.08168e-07
-9.64277e-06
-7.60905e-07
-1.04147e-05
-1.25377e-06
-1.09867e-05
-1.84084e-06
-1.13196e-05
-2.44957e-06
-1.15025e-05
-2.94e-06
-1.14969e-05
-3.42606e-06
-1.13714e-05
-3.82851e-06
-1.11525e-05
-4.15598e-06
-1.08152e-05
-4.49597e-06
-1.035e-05
-4.84022e-06
-9.80079e-06
-5.15345e-06
-9.20297e-06
-5.42686e-06
-8.55813e-06
-5.68522e-06
-7.82788e-06
-5.99249e-06
-6.91193e-06
-6.42552e-06
-5.78414e-06
-6.92035e-06
-4.52369e-06
-7.32506e-06
-3.22676e-06
-7.58402e-06
-2.07039e-06
-7.57525e-06
-7.7887e-07
-8.01502e-06
5.07131e-07
-8.25987e-06
1.70541e-06
-8.28804e-06
2.87948e-06
-8.42502e-06
4.02061e-06
-8.60047e-06
5.04391e-06
-8.48779e-06
5.92676e-06
-8.52588e-06
6.96434e-06
-8.96157e-06
7.79013e-06
-8.76691e-06
8.54644e-06
-8.89119e-06
9.09731e-06
-8.70676e-06
9.59365e-06
-8.8355e-06
1.01586e-05
-8.80423e-06
1.03417e-05
-8.32895e-06
1.00225e-05
-7.96744e-06
9.92823e-06
-8.4222e-06
1.03117e-05
-8.75139e-06
1.03221e-05
-8.16909e-06
9.18892e-06
-6.83603e-06
8.086e-06
-6.92716e-06
7.91633e-06
-7.96573e-06
7.64463e-06
-7.63879e-06
6.48142e-06
-6.4979e-06
5.1503e-06
-6.04226e-06
4.29477e-06
-6.25457e-06
2.6976e-06
-5.28472e-06
1.24398e-07
-4.16366e-06
-2.20363e-06
-4.11555e-06
-4.12714e-06
-4.26082e-06
-5.89132e-06
-3.85989e-06
-7.01535e-06
-4.23563e-06
-5.96579e-06
-6.58465e-06
-3.84271e-06
-7.43246e-06
-2.73372e-06
-5.41521e-06
-3.08077e-06
-2.60808e-06
-4.78442e-06
-8.0092e-08
-7.45133e-06
1.45152e-06
-9.42962e-06
7.35074e-07
-1.0419e-05
-1.32323e-07
-1.11636e-05
2.15306e-07
-1.27627e-05
2.17484e-06
-1.41207e-05
2.80057e-06
-1.44658e-05
1.46872e-06
-1.35811e-05
-4.02299e-07
-1.19869e-05
5.86936e-07
-9.01877e-06
-7.84639e-07
-7.47401e-06
1.59502e-06
-7.33691e-06
4.03717e-06
-8.24257e-06
6.01944e-06
-9.24621e-06
6.65235e-06
-8.52095e-06
3.23893e-06
-4.21656e-06
-3.66566e-06
1.35793e-06
-4.26851e-06
4.55339e-06
5.40099e-07
5.14443e-06
4.49618e-06
5.06773e-06
5.50878e-06
3.7563e-06
7.17e-06
5.62064e-07
1.08929e-05
-9.68041e-07
8.52936e-06
3.84434e-06
-2.99094e-06
9.22677e-06
-2.51603e-06
9.56044e-06
6.64688e-06
1.05194e-05
4.78114e-06
1.01829e-05
7.16384e-06
1.23478e-05
2.18279e-06
1.72337e-05
-3.26962e-06
2.23016e-05
-4.73112e-06
2.54311e-05
-3.11617e-06
2.69547e-05
-2.8511e-06
2.67589e-05
-1.89575e-06
2.51365e-05
-8.40156e-07
2.21835e-05
8.80707e-07
2.0305e-05
-3.20767e-06
1.77659e-05
-5.25905e-06
1.2906e-05
-2.03078e-06
7.22908e-06
-2.33326e-06
7.12713e-07
-1.25906e-06
-6.66106e-07
-1.17443e-05
3.17561e-06
-1.86681e-05
7.09745e-06
-2.13019e-05
8.08507e-06
-1.97418e-05
1.31353e-06
-4.61616e-06
-5.19798e-06
-4.79975e-06
-6.91192e-06
-1.03964e-05
-1.34251e-07
2.50529e-06
-5.07979e-07
3.05284e-06
-9.6038e-07
3.09791e-06
-1.40188e-06
2.94935e-06
-1.79048e-06
2.66789e-06
-2.0727e-06
2.20496e-06
-2.20844e-06
1.67816e-06
-2.24518e-06
1.24735e-06
-2.27859e-06
1.12886e-06
-2.37535e-06
1.16302e-06
-2.51427e-06
1.22013e-06
-2.65482e-06
1.22228e-06
-2.73622e-06
1.13777e-06
-2.6986e-06
9.39026e-07
-2.58235e-06
7.43267e-07
-2.41253e-06
5.95573e-07
-2.20776e-06
4.70958e-07
-1.98518e-06
3.44621e-07
-1.77284e-06
2.37491e-07
-1.53707e-06
9.50269e-08
-1.27221e-06
-1.57823e-08
-9.92639e-07
-8.3643e-08
-7.14078e-07
-1.57445e-07
-3.75969e-07
-2.91304e-07
2.64831e-08
-4.22127e-07
4.66489e-07
-5.45102e-07
9.54998e-07
-6.63764e-07
1.52008e-06
-7.96941e-07
2.13051e-06
-8.83841e-07
2.73488e-06
-8.41878e-07
3.31663e-06
-7.92717e-07
3.89474e-06
-7.98455e-07
4.46217e-06
-7.16602e-07
4.97862e-06
-5.90213e-07
5.39323e-06
-3.91502e-07
5.79811e-06
-1.31525e-07
6.15222e-06
1.90487e-08
6.47038e-06
1.82356e-07
6.85083e-06
4.17334e-07
7.15873e-06
6.75121e-07
7.45008e-06
9.96998e-07
7.67968e-06
1.39972e-06
7.81899e-06
1.69658e-06
7.90819e-06
2.13493e-06
7.73781e-06
2.49924e-06
7.2716e-06
2.7382e-06
6.67024e-06
2.97814e-06
5.59214e-06
3.04498e-06
3.8869e-06
3.00186e-06
1.89357e-06
2.72405e-06
1.25102e-07
2.06891e-06
-1.09363e-06
1.45699e-06
-1.98938e-06
1.28881e-06
-2.88506e-06
1.33452e-06
-3.79843e-06
1.15479e-06
-4.54307e-06
5.21771e-07
-5.06032e-06
-2.42556e-07
-5.11423e-06
-1.22102e-06
-4.75811e-06
-2.7375e-06
-4.16886e-06
-3.43418e-06
-2.90219e-06
-4.19577e-06
-1.50432e-06
-5.08225e-06
-6.57779e-07
-4.6878e-06
3.65415e-07
-5.24228e-06
1.01402e-06
-6.56823e-06
5.95062e-07
-6.36969e-06
-1.5918e-07
-5.63718e-06
-1.0855e-06
-4.05661e-06
-2.35076e-06
-2.77001e-06
-3.89726e-06
-1.66161e-06
-5.65793e-06
-8.07661e-07
-7.46984e-06
-2.09354e-07
-9.00323e-06
-8.80883e-08
-1.02079e-05
-1.62227e-07
-1.12788e-05
-4.04332e-07
-1.19988e-05
-8.68671e-07
-1.2384e-05
-1.38746e-06
-1.25797e-05
-2.07648e-06
-1.25866e-05
-2.80891e-06
-1.24776e-05
-3.56681e-06
-1.22751e-05
-4.32542e-06
-1.19621e-05
-4.9815e-06
-1.16274e-05
-5.54256e-06
-1.12311e-05
-6.05781e-06
-1.07558e-05
-6.51776e-06
-1.01929e-05
-6.99938e-06
-9.5585e-06
-7.47137e-06
-8.88762e-06
-7.8757e-06
-8.20716e-06
-8.21282e-06
-7.51825e-06
-8.53558e-06
-6.69985e-06
-9.02553e-06
-5.73245e-06
-9.66962e-06
-4.49675e-06
-1.04894e-05
-3.23529e-06
-1.09884e-05
-2.03297e-06
-1.12409e-05
-8.49867e-07
-1.12866e-05
4.74911e-07
-1.19467e-05
1.72649e-06
-1.22139e-05
2.82699e-06
-1.21501e-05
3.90963e-06
-1.23537e-05
5.05096e-06
-1.26516e-05
6.12418e-06
-1.25483e-05
6.90036e-06
-1.24036e-05
8.02628e-06
-1.32067e-05
8.8813e-06
-1.28566e-05
9.62045e-06
-1.29393e-05
1.01964e-05
-1.26812e-05
1.04923e-05
-1.26779e-05
1.08725e-05
-1.26418e-05
1.13862e-05
-1.22232e-05
1.12105e-05
-1.15292e-05
1.04759e-05
-1.17159e-05
1.05955e-05
-1.24182e-05
1.14631e-05
-1.21436e-05
1.08137e-05
-9.97421e-06
9.00325e-06
-9.42471e-06
8.40045e-06
-1.10733e-05
8.68861e-06
-1.13796e-05
7.63721e-06
-9.5677e-06
5.94046e-06
-8.51056e-06
5.47718e-06
-9.4132e-06
4.68575e-06
-8.25962e-06
2.06766e-06
-5.63313e-06
-9.20699e-07
-4.95601e-06
-3.36543e-06
-5.28708e-06
-5.88034e-06
-4.46767e-06
-8.11754e-06
-4.83242e-06
-7.74852e-06
-9.6177e-06
-5.33627e-06
-1.21698e-05
-2.94078e-06
-9.87921e-06
-1.9137e-06
-5.64609e-06
-2.80941e-06
-1.10362e-06
-4.43626e-06
1.49337e-06
-7.09105e-06
2.23313e-06
-8.87996e-06
1.17873e-06
-1.03001e-05
1.82435e-06
-1.17169e-05
3.99861e-06
-1.28352e-05
4.43659e-06
-1.36989e-05
3.07089e-06
-1.45989e-05
1.52095e-06
-1.39393e-05
1.24926e-06
-1.06005e-05
-2.5218e-06
-8.33952e-06
1.08651e-06
-6.87428e-06
4.62337e-06
-6.46972e-06
7.86792e-06
-6.09729e-06
8.65761e-06
-5.85092e-06
5.34531e-06
-4.66341e-06
-2.62961e-06
-3.06217e-07
-6.31868e-06
3.47724e-06
-8.94928e-07
4.62953e-06
5.73992e-06
5.82819e-06
6.82618e-06
4.96921e-06
1.07313e-05
2.1752e-06
1.6597e-05
1.30812e-07
1.33961e-05
1.60467e-06
-1.6954e-06
6.47335e-06
-4.32892e-06
8.45646e-06
7.76937e-06
1.09901e-05
5.58334e-06
1.13178e-05
1.00943e-05
1.33253e-05
2.99259e-06
1.8414e-05
-5.4332e-06
2.41821e-05
-7.40919e-06
2.80724e-05
-4.52025e-06
2.99066e-05
-3.32286e-06
2.95918e-05
-1.55462e-06
2.78702e-05
-2.08856e-08
2.5233e-05
1.56453e-06
2.34499e-05
-4.84251e-06
2.04498e-05
-6.64595e-06
1.56174e-05
-2.59193e-06
9.93616e-06
-2.78204e-06
2.35171e-06
-2.99048e-07
-3.14094e-06
-1.11163e-05
-2.30055e-06
-2.3081e-05
5.95916e-06
-3.46226e-05
1.21594e-05
-3.14464e-05
6.15221e-06
-7.63734e-06
-5.45382e-07
-7.50601e-06
-1.02243e-05
-6.13221e-06
-7.46944e-08
2.84897e-06
-2.49547e-07
3.49157e-06
-5.51968e-07
3.69855e-06
-9.01603e-07
3.62919e-06
-1.21428e-06
3.31313e-06
-1.40363e-06
2.71212e-06
-1.51234e-06
2.09093e-06
-1.66471e-06
1.69396e-06
-1.85697e-06
1.61181e-06
-2.15958e-06
1.75572e-06
-2.48902e-06
1.84192e-06
-2.70915e-06
1.73984e-06
-2.7957e-06
1.51935e-06
-2.83476e-06
1.26581e-06
-2.86804e-06
1.06291e-06
-2.8997e-06
9.1296e-07
-2.92439e-06
7.80625e-07
-2.9169e-06
6.20812e-07
-2.86302e-06
4.6315e-07
-2.83173e-06
3.40793e-07
-2.77302e-06
2.00865e-07
-2.66162e-06
7.67524e-08
-2.50388e-06
-5.04319e-08
-2.27696e-06
-2.62404e-07
-1.95065e-06
-4.99941e-07
-1.5408e-06
-7.13971e-07
-1.08193e-06
-8.92685e-07
-5.51145e-07
-1.10817e-06
4.35255e-08
-1.26909e-06
6.21552e-07
-1.22123e-06
1.19127e-06
-1.17452e-06
1.76032e-06
-1.19182e-06
2.28372e-06
-1.07661e-06
2.77139e-06
-9.31377e-07
3.21733e-06
-6.98055e-07
3.61104e-06
-3.87705e-07
3.95361e-06
-2.14817e-07
4.30469e-06
-6.49903e-08
4.64408e-06
1.9339e-07
5.01061e-06
3.8059e-07
5.41723e-06
6.43087e-07
5.85692e-06
1.0095e-06
6.25174e-06
1.29193e-06
6.66782e-06
1.68092e-06
7.04679e-06
2.07499e-06
7.23331e-06
2.4477e-06
7.12692e-06
2.93076e-06
6.77001e-06
3.25591e-06
6.2316e-06
3.37808e-06
5.35622e-06
3.39502e-06
3.86712e-06
3.35283e-06
2.01307e-06
3.07e-06
5.44435e-07
2.4639e-06
-4.8272e-07
2.04618e-06
-1.28202e-06
1.61459e-06
-2.00565e-06
8.68036e-07
-2.66909e-06
-9.55796e-09
-3.09257e-06
-1.27431e-06
-3.74533e-06
-2.60055e-06
-3.72089e-06
-3.99382e-06
-2.7626e-06
-5.76763e-06
-2.51108e-06
-5.96885e-06
-2.34386e-06
-5.50839e-06
-2.10733e-06
-6.21146e-06
-3.0811e-06
-6.40358e-06
-4.59392e-06
-5.70742e-06
-6.03314e-06
-5.0916e-06
-7.24514e-06
-3.76793e-06
-8.53524e-06
-2.45121e-06
-9.72189e-06
-1.48783e-06
-1.08806e-05
-7.13337e-07
-1.17398e-05
-4.58463e-07
-1.24737e-05
-5.12852e-07
-1.29842e-05
-8.72898e-07
-1.33079e-05
-1.35882e-06
-1.34319e-05
-2.07395e-06
-1.33518e-05
-2.85608e-06
-1.31353e-05
-3.73843e-06
-1.27946e-05
-4.65667e-06
-1.23628e-05
-5.56355e-06
-1.18749e-05
-6.42546e-06
-1.13667e-05
-7.14619e-06
-1.08442e-05
-7.76229e-06
-1.03075e-05
-8.33481e-06
-9.72635e-06
-8.88941e-06
-9.12475e-06
-9.43852e-06
-8.45743e-06
-1.00246e-05
-7.76e-06
-1.05039e-05
-6.99649e-06
-1.09525e-05
-6.22255e-06
-1.13396e-05
-5.2898e-06
-1.20367e-05
-4.29449e-06
-1.28109e-05
-3.14227e-06
-1.38388e-05
-1.92863e-06
-1.44631e-05
-7.52722e-07
-1.47324e-05
4.45044e-07
-1.48733e-05
1.82726e-06
-1.57933e-05
2.95043e-06
-1.5883e-05
4.0164e-06
-1.58264e-05