/*--------------------------------*- C++ -*----------------------------------*\
| =========                 |                                                 |
| \\      /  F ield         | OpenFOAM: The Open Source CFD Toolbox           |
|  \\    /   O peration     | Version:  dev                                   |
|   \\  /    A nd           | Web:      http://www.openfoam.org               |
|    \\/     M anipulation  |                                                 |
\*---------------------------------------------------------------------------*/
FoamFile
{
    version     2.0;
    format      ascii;
    class       surfaceScalarField;
    object      phi_0;
    location    "9.148";
}
// * * * * * * * * * * * * * * * * * * * * * * * * * * * * * * * * * * * * * //

dimensions      [1 0 -1 0 0 0 0];

internalField   nonuniform List<scalar> 
24170
(
2.18773e-06
-7.9018e-09
1.34113e-06
-4.43861e-07
9.8145e-07
-8.85826e-07
8.51739e-07
-1.07085e-06
8.2296e-07
-1.12649e-06
8.54351e-07
-1.14203e-06
8.65925e-07
-1.07792e-06
9.88047e-07
-1.14288e-06
1.02546e-06
-1.01357e-06
1.22072e-06
-1.12466e-06
1.33301e-06
-9.9994e-07
1.62691e-06
-1.13253e-06
1.90402e-06
-1.0728e-06
2.47889e-06
-1.32896e-06
2.98733e-06
-1.21744e-06
5.30889e-06
-2.98817e-06
7.40915e-06
-2.72856e-06
-2.82856e-06
9.70855e-06
3.8463e-06
-1.24095e-06
3.20198e-06
-1.20473e-06
2.66549e-06
-1.71389e-06
2.33657e-06
-2.05829e-06
2.10398e-06
-2.16475e-06
1.92835e-06
-2.18707e-06
1.80282e-06
-2.12772e-06
1.74548e-06
-2.20966e-06
1.72745e-06
-2.07253e-06
1.77007e-06
-2.1929e-06
1.90459e-06
-2.11453e-06
2.02993e-06
-2.18582e-06
2.42616e-06
-2.34989e-06
2.79805e-06
-2.53646e-06
3.57353e-06
-2.77831e-06
5.32764e-06
-5.48776e-06
6.12925e-06
-4.22008e-06
-3.69699e-06
6.37858e-06
4.65199e-06
-3.10412e-06
4.66845e-06
-2.76435e-06
4.34597e-06
-2.89023e-06
4.09403e-06
-3.25074e-06
3.7929e-06
-3.2601e-06
3.67149e-06
-3.40416e-06
3.46121e-06
-3.209e-06
3.44728e-06
-3.43013e-06
3.33797e-06
-3.14726e-06
3.4384e-06
-3.42017e-06
3.38778e-06
-3.14256e-06
3.79567e-06
-3.6172e-06
3.68817e-06
-3.21369e-06
4.30175e-06
-4.06874e-06
4.14952e-06
-3.49265e-06
5.11103e-06
-7.2653e-06
6.19997e-06
-6.06788e-06
-5.38297e-06
7.17432e-06
4.99412e-06
-4.95458e-06
5.55928e-06
-5.02196e-06
5.46251e-06
-4.43948e-06
5.50296e-06
-4.87338e-06
5.21906e-06
-4.50683e-06
5.32001e-06
-4.96973e-06
4.99674e-06
-4.29849e-06
5.18597e-06
-4.9715e-06
4.92962e-06
-4.18639e-06
5.07033e-06
-4.79173e-06
4.87393e-06
-4.12364e-06
5.28086e-06
-5.14426e-06
5.1295e-06
-4.12981e-06
5.71692e-06
-5.65934e-06
5.67824e-06
-4.40979e-06
6.10856e-06
-8.59717e-06
6.35974e-06
-7.15843e-06
-8.48674e-06
8.70038e-06
5.3108e-06
-6.88606e-06
5.71975e-06
-7.28306e-06
5.64437e-06
-6.16651e-06
6.05427e-06
-7.01564e-06
5.76848e-06
-5.89352e-06
6.02484e-06
-6.83045e-06
5.59001e-06
-5.4063e-06
5.91711e-06
-6.77775e-06
5.78736e-06
-5.47164e-06
5.99438e-06
-6.34553e-06
5.72478e-06
-5.13782e-06
6.15467e-06
-6.79495e-06
6.19368e-06
-5.33194e-06
6.53319e-06
-7.09666e-06
6.6035e-06
-5.51542e-06
6.56893e-06
-9.55172e-06
5.86542e-06
-7.38922e-06
-1.07509e-05
7.29296e-06
6.00884e-06
-8.99314e-06
6.07831e-06
-9.3723e-06
6.05531e-06
-8.10529e-06
6.60527e-06
-9.45622e-06
6.15834e-06
-7.26368e-06
6.23214e-06
-8.65105e-06
5.97239e-06
-6.82811e-06
6.36304e-06
-8.77913e-06
6.32006e-06
-6.9641e-06
6.47937e-06
-7.9715e-06
6.38002e-06
-6.43577e-06
6.74867e-06
-8.49294e-06
6.96358e-06
-6.80338e-06
7.12739e-06
-8.45675e-06
7.44597e-06
-6.95594e-06
7.06607e-06
-1.02249e-05
6.62157e-06
-7.94423e-06
-1.10941e-05
6.02813e-06
6.54122e-06
-1.12782e-05
6.89279e-06
-1.19167e-05
6.66049e-06
-9.99931e-06
7.12157e-06
-1.19668e-05
6.83557e-06
-8.9503e-06
6.82556e-06
-1.05299e-05
6.8863e-06
-8.70588e-06
7.13453e-06
-1.07692e-05
6.95132e-06
-8.44191e-06
7.02212e-06
-9.62549e-06
7.25302e-06
-8.17736e-06
7.39669e-06
-1.0069e-05
7.68492e-06
-8.44499e-06
7.83352e-06
-9.89105e-06
8.04408e-06
-8.38334e-06
7.43913e-06
-1.07535e-05
7.45989e-06
-9.02802e-06
-1.1163e-05
6.51258e-06
5.19896e-06
-1.31525e-05
5.50008e-06
-1.38965e-05
5.32744e-06
-1.14556e-05
5.32257e-06
-1.35288e-05
5.23653e-06
-1.03749e-05
5.29388e-06
-1.20355e-05
5.40301e-06
-1.02012e-05
5.35504e-06
-1.20518e-05
5.38711e-06
-9.74369e-06
5.43982e-06
-1.08845e-05
5.70702e-06
-9.59492e-06
5.70071e-06
-1.11549e-05
5.87836e-06
-9.65239e-06
5.89179e-06
-1.08801e-05
6.14503e-06
-9.56449e-06
5.73148e-06
-1.12105e-05
5.82152e-06
-9.93161e-06
-1.13342e-05
5.21975e-06
6.04962e-06
-1.51524e-05
6.23983e-06
-1.60039e-05
6.23623e-06
-1.33102e-05
6.08883e-06
-1.5167e-05
6.12931e-06
-1.21336e-05
6.10901e-06
-1.36634e-05
6.19303e-06
-1.18626e-05
6.00099e-06
-1.33708e-05
6.2905e-06
-1.14741e-05
6.46614e-06
-1.243e-05
6.77569e-06
-1.12099e-05
6.64195e-06
-1.22633e-05
6.83258e-06
-1.10148e-05
6.77222e-06
-1.19275e-05
7.01713e-06
-1.08596e-05
6.62767e-06
-1.18131e-05
6.74786e-06
-1.09796e-05
-1.16025e-05
6.13683e-06
6.95146e-06
-1.75674e-05
7.15238e-06
-1.8372e-05
7.28666e-06
-1.55471e-05
7.18907e-06
-1.70908e-05
7.42612e-06
-1.43111e-05
7.2667e-06
-1.53628e-05
7.3121e-06
-1.3687e-05
7.05599e-06
-1.4814e-05
7.32802e-06
-1.33678e-05
7.32845e-06
-1.39752e-05
7.54911e-06
-1.29017e-05
7.36445e-06
-1.34747e-05
7.55397e-06
-1.25231e-05
7.41683e-06
-1.30365e-05
7.61486e-06
-1.22347e-05
7.29836e-06
-1.26071e-05
7.35032e-06
-1.2076e-05
-1.22115e-05
6.97548e-06
8.46816e-06
-2.02554e-05
8.29718e-06
-2.06262e-05
8.44847e-06
-1.80439e-05
8.19377e-06
-1.90962e-05
8.50304e-06
-1.67845e-05
8.34966e-06
-1.72843e-05
8.52967e-06
-1.58471e-05
8.279e-06
-1.64535e-05
8.47314e-06
-1.53645e-05
8.25952e-06
-1.54799e-05
8.3345e-06
-1.4609e-05
8.13574e-06
-1.48255e-05
8.2659e-06
-1.41131e-05
8.12402e-06
-1.42695e-05
8.24129e-06
-1.36548e-05
8.02236e-06
-1.36095e-05
8.10443e-06
-1.33091e-05
-1.32129e-05
8.01815e-06
9.76997e-06
-2.34901e-05
9.6077e-06
-2.31358e-05
9.83757e-06
-2.08472e-05
9.45295e-06
-2.11893e-05
9.69158e-06
-1.93899e-05
9.45007e-06
-1.93123e-05
9.67605e-06
-1.82354e-05
9.51936e-06
-1.83604e-05
9.75159e-06
-1.75592e-05
9.61362e-06
-1.72111e-05
9.74868e-06
-1.65161e-05
9.57867e-06
-1.63361e-05
9.63701e-06
-1.57604e-05
9.46754e-06
-1.55926e-05
9.54774e-06
-1.51407e-05
9.46671e-06
-1.48571e-05
9.4385e-06
-1.45245e-05
-1.42529e-05
9.30655e-06
1.12051e-05
-2.70605e-05
1.10464e-05
-2.58444e-05
1.1276e-05
-2.38274e-05
1.08917e-05
-2.34487e-05
1.11075e-05
-2.21265e-05
1.09824e-05
-2.16017e-05
1.11673e-05
-2.07194e-05
1.10299e-05
-2.04163e-05
1.10568e-05
-1.96683e-05
1.09158e-05
-1.90483e-05
1.09409e-05
-1.84147e-05
1.08192e-05
-1.79872e-05
1.08474e-05
-1.74611e-05
1.07996e-05
-1.71224e-05
1.07832e-05
-1.66035e-05
1.07222e-05
-1.61856e-05
1.06496e-05
-1.57587e-05
-1.53617e-05
1.0529e-05
1.34142e-05
-3.03254e-05
1.30274e-05
-2.84121e-05
1.31528e-05
-2.6778e-05
1.29458e-05
-2.59508e-05
1.30937e-05
-2.48536e-05
1.30387e-05
-2.40116e-05
1.31088e-05
-2.3134e-05
1.30294e-05
-2.25683e-05
1.29644e-05
-2.17195e-05
1.28587e-05
-2.09477e-05
1.28079e-05
-2.02577e-05
1.26698e-05
-1.96376e-05
1.25664e-05
-1.90395e-05
1.23563e-05
-1.84936e-05
1.22484e-05
-1.79816e-05
1.20867e-05
-1.74168e-05
1.19019e-05
-1.68766e-05
-1.63502e-05
1.16652e-05
1.53188e-05
-3.36045e-05
1.52951e-05
-3.12232e-05
1.54386e-05
-2.96277e-05
1.53492e-05
-2.84465e-05
1.52994e-05
-2.72602e-05
1.51879e-05
-2.62387e-05
1.51241e-05
-2.52908e-05
1.49944e-05
-2.45445e-05
1.48594e-05
-2.35774e-05
1.47369e-05
-2.27067e-05
1.46302e-05
-2.19225e-05
1.45092e-05
-2.11813e-05
1.43887e-05
-2.04811e-05
1.42199e-05
-1.97887e-05
1.40124e-05
-1.91428e-05
1.38361e-05
-1.85213e-05
1.36653e-05
-1.79053e-05
-1.72402e-05
1.34348e-05
1.75257e-05
-3.61866e-05
1.74684e-05
-3.35443e-05
1.73725e-05
-3.17832e-05
1.72594e-05
-3.04724e-05
1.71738e-05
-2.92036e-05
1.70823e-05
-2.80728e-05
1.70262e-05
-2.70587e-05
1.6928e-05
-2.61664e-05
1.68595e-05
-2.51279e-05
1.67992e-05
-2.41635e-05
1.67025e-05
-2.32444e-05
1.65598e-05
-2.23627e-05
1.63719e-05
-2.15285e-05
1.61596e-05
-2.07249e-05
1.59248e-05
-1.99749e-05
1.56735e-05
-1.92609e-05
1.541e-05
-1.8562e-05
-1.78341e-05
1.5147e-05
2.0644e-05
-3.73134e-05
2.04555e-05
-3.47137e-05
2.03012e-05
-3.28948e-05
2.02108e-05
-3.15738e-05
2.01872e-05
-3.03028e-05
2.01663e-05
-2.91109e-05
2.00957e-05
-2.79844e-05
1.99338e-05
-2.69325e-05
1.98181e-05
-2.58723e-05
1.96776e-05
-2.48111e-05
1.94793e-05
-2.37621e-05
1.92459e-05
-2.27817e-05
1.89619e-05
-2.18415e-05
1.86757e-05
-2.09764e-05
1.83551e-05
-2.01372e-05
1.80518e-05
-1.93939e-05
1.77421e-05
-1.86451e-05
-1.78888e-05
1.7443e-05
2.09646e-05
-3.7013e-05
2.08328e-05
-3.42832e-05
2.06647e-05
-3.24161e-05
2.04829e-05
-3.10887e-05
2.03392e-05
-2.98574e-05
2.02289e-05
-2.8702e-05
2.0038e-05
-2.7492e-05
1.98617e-05
-2.64477e-05
1.96619e-05
-2.53619e-05
1.94455e-05
-2.42767e-05
1.9232e-05
-2.32094e-05
1.90434e-05
-2.22424e-05
1.89157e-05
-2.13661e-05
1.87496e-05
-2.04557e-05
1.85706e-05
-1.9593e-05
1.83309e-05
-1.87879e-05
1.80519e-05
-1.79992e-05
-1.72188e-05
1.77446e-05
1.89713e-05
-3.50133e-05
1.86652e-05
-3.22582e-05
1.85189e-05
-3.06256e-05
1.84143e-05
-2.94197e-05
1.83366e-05
-2.82814e-05
1.82202e-05
-2.71504e-05
1.81236e-05
-2.6013e-05
1.79693e-05
-2.49557e-05
1.78369e-05
-2.39456e-05
1.77068e-05
-2.292e-05
1.7593e-05
-2.1901e-05
1.74916e-05
-2.09734e-05
1.73863e-05
-2.01448e-05
1.72511e-05
-1.92503e-05
1.7076e-05
-1.83768e-05
1.68658e-05
-1.75737e-05
1.66088e-05
-1.67727e-05
-1.60144e-05
1.63387e-05
1.65054e-05
-3.16643e-05
1.63873e-05
-2.95219e-05
1.64694e-05
-2.8202e-05
1.66199e-05
-2.71839e-05
1.67171e-05
-2.6097e-05
1.66283e-05
-2.48797e-05
1.65429e-05
-2.38374e-05
1.63749e-05
-2.27742e-05
1.61627e-05
-2.18085e-05
1.59911e-05
-2.09254e-05
1.5852e-05
-2.00125e-05
1.57212e-05
-1.91453e-05
1.55524e-05
-1.83572e-05
1.53617e-05
-1.75236e-05
1.5159e-05
-1.6703e-05
1.49326e-05
-1.59396e-05
1.47044e-05
-1.51941e-05
-1.44897e-05
1.44745e-05
1.50331e-05
-2.80461e-05
1.49701e-05
-2.63108e-05
1.50598e-05
-2.52785e-05
1.50946e-05
-2.43484e-05
1.49779e-05
-2.32339e-05
1.48489e-05
-2.21304e-05
1.47211e-05
-2.12092e-05
1.46208e-05
-2.02744e-05
1.45283e-05
-1.94158e-05
1.44137e-05
-1.86358e-05
1.43036e-05
-1.78362e-05
1.41811e-05
-1.70302e-05
1.40174e-05
-1.62849e-05
1.38486e-05
-1.55448e-05
1.36889e-05
-1.48224e-05
1.35136e-05
-1.41291e-05
1.33288e-05
-1.34554e-05
-1.28202e-05
1.31457e-05
1.36727e-05
-2.45526e-05
1.37056e-05
-2.29573e-05
1.36772e-05
-2.19994e-05
1.35812e-05
-2.11545e-05
1.3484e-05
-2.01711e-05
1.34257e-05
-1.92378e-05
1.33367e-05
-1.84261e-05
1.32409e-05
-1.76079e-05
1.3153e-05
-1.68601e-05
1.30029e-05
-1.61415e-05
1.28133e-05
-1.54345e-05
1.26942e-05
-1.47962e-05
1.25721e-05
-1.41367e-05
1.24584e-05
-1.35025e-05
1.23531e-05
-1.288e-05
1.22306e-05
-1.2266e-05
1.2116e-05
-1.16933e-05
-1.11242e-05
1.19853e-05
1.22081e-05
-2.06962e-05
1.21453e-05
-1.94755e-05
1.20652e-05
-1.86285e-05
1.19287e-05
-1.78761e-05
1.18542e-05
-1.70926e-05
1.18907e-05
-1.63994e-05
1.19041e-05
-1.57025e-05
1.18886e-05
-1.49947e-05
1.18472e-05
-1.43368e-05
1.1765e-05
-1.36887e-05
1.16535e-05
-1.30809e-05
1.15305e-05
-1.2544e-05
1.13958e-05
-1.19722e-05
1.12583e-05
-1.14362e-05
1.11165e-05
-1.08993e-05
1.09675e-05
-1.03701e-05
1.08182e-05
-9.88917e-06
-9.39411e-06
1.06595e-05
1.06254e-05
-1.70333e-05
1.07864e-05
-1.63157e-05
1.09337e-05
-1.55752e-05
1.09706e-05
-1.48523e-05
1.09568e-05
-1.41541e-05
1.09578e-05
-1.36078e-05
1.09425e-05
-1.30234e-05
1.09002e-05
-1.24234e-05
1.08322e-05
-1.18665e-05
1.07721e-05
-1.13371e-05
1.07181e-05
-1.08465e-05
1.06135e-05
-1.03695e-05
1.05195e-05
-9.9103e-06
1.04057e-05
-9.45645e-06
1.02851e-05
-9.00802e-06
1.01701e-05
-8.57089e-06
1.00384e-05
-8.16001e-06
-7.75102e-06
9.91179e-06
9.76557e-06
-1.35881e-05
9.70349e-06
-1.31149e-05
9.74054e-06
-1.25854e-05
9.83361e-06
-1.20494e-05
9.95135e-06
-1.15034e-05
9.99112e-06
-1.10069e-05
9.96997e-06
-1.04852e-05
9.90859e-06
-9.96645e-06
9.81821e-06
-9.50253e-06
9.7287e-06
-9.0873e-06
9.64802e-06
-8.7086e-06
9.56395e-06
-8.3304e-06
9.4774e-06
-7.96687e-06
9.35778e-06
-7.57343e-06
9.22895e-06
-7.20787e-06
9.09821e-06
-6.85456e-06
8.96247e-06
-6.52004e-06
-6.20248e-06
8.83982e-06
8.78578e-06
-1.06482e-05
8.93649e-06
-1.03549e-05
9.06846e-06
-9.90915e-06
9.12171e-06
-9.41584e-06
9.14651e-06
-8.95999e-06
9.14016e-06
-8.55143e-06
9.11611e-06
-8.12894e-06
9.07912e-06
-7.71008e-06
9.02761e-06
-7.34033e-06
8.94826e-06
-7.00268e-06
8.84823e-06
-6.70383e-06
8.71225e-06
-6.38414e-06
8.56153e-06
-6.09698e-06
8.38129e-06
-5.76132e-06
8.20641e-06
-5.48397e-06
8.04368e-06
-5.22351e-06
7.89712e-06
-4.98128e-06
-4.71216e-06
7.72616e-06
7.74017e-06
-7.95134e-06
8.04066e-06
-7.99453e-06
8.22534e-06
-7.52598e-06
8.28593e-06
-7.01988e-06
8.25381e-06
-6.58012e-06
8.17033e-06
-6.22908e-06
8.06999e-06
-5.89704e-06
7.96997e-06
-5.58265e-06
7.8642e-06
-5.30702e-06
7.74185e-06
-5.04764e-06
7.55213e-06
-4.7724e-06
7.36928e-06
-4.54717e-06
7.1361e-06
-4.29287e-06
6.93411e-06
-4.0682e-06
6.74922e-06
-3.88414e-06
6.54535e-06
-3.67764e-06
6.36508e-06
-3.52871e-06
-3.3474e-06
6.20587e-06
6.95346e-06
-5.37519e-06
7.1394e-06
-5.7711e-06
7.18074e-06
-5.24253e-06
7.10011e-06
-4.71603e-06
6.90286e-06
-4.25823e-06
6.63095e-06
-3.9304e-06
6.34888e-06
-3.68479e-06
6.08003e-06
-3.47745e-06
5.80852e-06
-3.28934e-06
5.5358e-06
-3.11518e-06
5.28821e-06
-2.94752e-06
5.0254e-06
-2.78604e-06
4.7965e-06
-2.64135e-06
4.58408e-06
-2.50562e-06
4.36909e-06
-2.38853e-06
4.18295e-06
-2.27759e-06
3.98682e-06
-2.18138e-06
-2.07598e-06
3.80576e-06
6.1155e-06
-3.30351e-06
5.7225e-06
-3.21433e-06
5.17926e-06
-2.61003e-06
4.67197e-06
-2.20996e-06
4.2264e-06
-1.90222e-06
3.83706e-06
-1.71835e-06
3.49014e-06
-1.60154e-06
3.18232e-06
-1.51734e-06
2.90745e-06
-1.44327e-06
2.66035e-06
-1.37496e-06
2.43897e-06
-1.30776e-06
2.24022e-06
-1.24045e-06
2.05977e-06
-1.18244e-06
1.89384e-06
-1.12661e-06
1.7347e-06
-1.07876e-06
1.58505e-06
-1.03697e-06
1.45157e-06
-1.01352e-06
-9.79767e-07
1.33547e-06
4.03662e-06
2.70627e-06
1.91837e-06
1.45779e-06
1.23103e-06
1.11275e-06
1.03641e-06
9.71069e-07
9.09075e-07
8.47449e-07
7.88067e-07
7.33879e-07
6.78372e-07
6.21992e-07
5.59282e-07
4.86632e-07
3.88305e-07
2.76933e-07
-6.70225e-07
1.02447e-06
-1.41207e-06
1.11365e-06
-2.07925e-06
1.03938e-06
-2.64272e-06
9.38263e-07
-3.07804e-06
8.10491e-07
-3.34626e-06
6.39003e-07
-3.44567e-06
4.66339e-07
-3.39047e-06
3.0762e-07
-3.27079e-06
2.40815e-07
-3.11665e-06
2.04559e-07
-2.95917e-06
2.00255e-07
-2.79344e-06
1.90792e-07
-2.62881e-06
1.90086e-07
-2.43528e-06
1.59181e-07
-2.20165e-06
1.16151e-07
-1.93058e-06
7.52461e-08
-1.6233e-06
3.48415e-08
-1.25895e-06
-2.75069e-08
-8.29613e-07
-9.86216e-08
-3.56988e-07
-1.47617e-07
1.2692e-07
-1.65722e-07
6.27899e-07
-1.90934e-07
1.16546e-06
-2.36124e-07
1.71642e-06
-2.59047e-07
2.29376e-06
-2.95407e-07
2.90877e-06
-3.41713e-07
3.53194e-06
-3.61106e-07
4.15204e-06
-3.74829e-07
4.75529e-06
-3.7211e-07
5.30667e-06
-3.29038e-07
5.83128e-06
-3.17389e-07
6.31699e-06
-3.01466e-07
6.73695e-06
-2.46622e-07
7.08999e-06
-1.89539e-07
7.32013e-06
-9.95726e-08
7.40739e-06
2.67249e-08
7.37222e-06
1.36229e-07
7.17155e-06
2.59801e-07
6.77675e-06
4.44599e-07
6.20584e-06
5.99055e-07
5.36911e-06
8.09742e-07
4.33166e-06
1.01351e-06
2.98563e-06
1.31243e-06
1.30113e-06
1.59425e-06
-1.79994e-07
1.36054e-06
-1.13487e-06
8.05015e-07
-1.84465e-06
5.26565e-07
-2.2834e-06
2.22156e-07
-2.28824e-06
-2.42594e-07
-2.28801e-06
-2.79301e-07
-2.50672e-06
-9.70987e-08
-2.84448e-06
-1.9345e-08
-3.18231e-06
-5.84185e-08
-3.55278e-06
-5.92958e-08
-4.00128e-06
-9.2114e-09
-4.45901e-06
-3.21392e-08
-4.80051e-06
-2.02847e-07
-4.93444e-06
-4.89215e-07
-4.66756e-06
-9.60013e-07
-4.13476e-06
-1.26418e-06
-3.61782e-06
-1.2867e-06
-2.88701e-06
-1.55434e-06
-1.92985e-06
-1.82842e-06
-9.14264e-07
-1.94085e-06
8.73214e-07
-2.77899e-06
3.44305e-06
-3.63205e-06
5.77453e-06
-3.46716e-06
7.109e-06
-2.53145e-06
7.79611e-06
-1.945e-06
7.86211e-06
-1.39537e-06
7.33268e-06
-8.90676e-07
7.02587e-06
-1.17786e-06
7.24657e-06
-1.721e-06
7.62791e-06
-1.9956e-06
7.47203e-06
-1.62909e-06
6.45843e-06
-7.79067e-07
5.02375e-06
-3.40467e-07
3.57221e-06
-4.12096e-07
2.30381e-06
-7.11013e-07
1.29163e-06
-1.07133e-06
5.22637e-07
-1.41155e-06
-3.51047e-08
-1.71885e-06
-4.16478e-07
-1.99284e-06
-6.42601e-07
-2.24903e-06
-7.5711e-07
-2.46507e-06
-7.72404e-07
-2.67191e-06
-6.99918e-07
-2.87129e-06
-5.34061e-07
-3.08156e-06
-2.86889e-07
-3.28665e-06
2.18859e-08
-3.48003e-06
3.96238e-07
-3.68625e-06
8.55763e-07
-3.9192e-06
1.42867e-06
-4.1865e-06
2.09949e-06
-4.44292e-06
2.81226e-06
-4.64943e-06
3.47247e-06
-4.76586e-06
4.25416e-06
-5.04901e-06
5.07143e-06
-5.25499e-06
5.81658e-06
-5.36358e-06
6.50251e-06
-5.49465e-06
7.17365e-06
-5.67542e-06
7.61325e-06
-5.63155e-06
8.02618e-06
-5.77694e-06
8.55382e-06
-6.05373e-06
8.84731e-06
-6.00403e-06
9.17066e-06
-6.18265e-06
9.28687e-06
-6.13116e-06
9.49233e-06
-6.33261e-06
9.54191e-06
-6.30554e-06
9.2553e-06
-6.11903e-06
8.83299e-06
-6.08686e-06
8.74359e-06
-6.44866e-06
8.72905e-06
-6.59282e-06
8.33691e-06
-6.34817e-06
7.38459e-06
-5.89885e-06
6.51498e-06
-6.01003e-06
6.08597e-06
-6.46307e-06
5.4099e-06
-6.29151e-06
4.29646e-06
-5.92704e-06
3.17517e-06
-5.92125e-06
2.16111e-06
-6.06847e-06
6.40754e-07
-5.72543e-06
-9.4165e-07
-5.67015e-06
-1.95619e-06
-6.02129e-06
-2.63298e-06
-6.18169e-06
-3.38082e-06
-6.03532e-06
-3.87901e-06
-6.21714e-06
-3.58904e-06
-7.01812e-06
-3.05589e-06
-7.25695e-06
-3.13156e-06
-6.6748e-06
-4.17662e-06
-5.72904e-06
-5.92559e-06
-4.99317e-06
-7.94293e-06
-4.67649e-06
-9.36293e-06
-5.11766e-06
-9.81442e-06
-5.79463e-06
-9.6052e-06
-6.04443e-06
-9.58056e-06
-5.53684e-06
-9.80009e-06
-5.09042e-06
-9.18922e-06
-5.81421e-06
-7.29581e-06
-7.00689e-06
-6.17939e-06
-6.08664e-06
-4.32722e-06
-6.88319e-06
-3.16393e-06
-6.16736e-06
-2.75765e-06
-5.49564e-06
-3.0497e-06
-4.92058e-06
-3.71213e-06
-4.72165e-06
-2.4961e-06
-6.83997e-06
2.3273e-06
-1.07028e-05
6.42391e-06
-1.03587e-05
8.08157e-06
-8.30022e-06
8.48399e-06
-7.42552e-06
8.63653e-06
-7.72238e-06
8.36352e-06
-7.85754e-06
6.43762e-06
-6.75377e-06
5.16077e-06
-8.16286e-06
8.83283e-06
-1.39101e-05
1.20314e-05
-1.38543e-05
1.15468e-05
-1.02692e-05
1.20387e-05
-1.17108e-05
1.13516e-05
-1.10052e-05
1.28124e-05
-1.39622e-05
1.63444e-05
-1.6904e-05
1.99689e-05
-1.78286e-05
2.21791e-05
-1.72329e-05
2.35673e-05
-1.73141e-05
2.34885e-05
-1.66679e-05
2.16925e-05
-1.57665e-05
1.76129e-05
-1.41706e-05
1.38506e-05
-1.55884e-05
1.0438e-05
-1.64434e-05
5.10741e-06
-1.44064e-05
-4.52268e-07
-1.43231e-05
-6.56981e-06
-1.32982e-05
-7.51353e-06
-1.86985e-05
-3.82571e-06
-2.20887e-05
-2.53086e-06
-1.9639e-05
-1.84275e-06
-1.84311e-05
-7.53992e-06
-1.08455e-05
-1.31833e-05
-1.00738e-05
-1.08639e-05
-1.71175e-05
-4.12683e-07
1.76209e-06
-9.93826e-07
2.05124e-06
-1.55149e-06
1.97492e-06
-2.04445e-06
1.80968e-06
-2.43971e-06
1.57953e-06
-2.68323e-06
1.24301e-06
-2.75158e-06
8.80687e-07
-2.67319e-06
5.65751e-07
-2.54717e-06
4.47097e-07
-2.42803e-06
4.15187e-07
-2.32642e-06
4.27392e-07
-2.23549e-06
4.28084e-07
-2.12573e-06
4.06938e-07
-1.97472e-06
3.32913e-07
-1.75578e-06
2.19309e-07
-1.49442e-06
1.3243e-07
-1.19759e-06
5.22497e-08
-8.73141e-07
-4.33192e-08
-4.96821e-07
-1.73118e-07
-6.11159e-08
-2.87556e-07
4.29151e-07
-3.6564e-07
9.38527e-07
-4.16811e-07
1.46487e-06
-4.86714e-07
2.02633e-06
-5.53769e-07
2.60049e-06
-6.13108e-07
3.20061e-06
-6.90101e-07
3.83557e-06
-7.51797e-07
4.47736e-06
-7.98691e-07
5.13618e-06
-8.25e-07
5.79837e-06
-7.79444e-07
6.39986e-06
-7.4305e-07
6.99243e-06
-7.41629e-07
7.59919e-06
-6.76402e-07
8.13215e-06
-5.76798e-07
8.5817e-06
-4.46098e-07
8.92883e-06
-2.07293e-07
9.21526e-06
-7.3137e-08
9.42923e-06
8.71301e-08
9.54946e-06
3.63703e-07
9.56559e-06
5.72241e-07
9.45067e-06
8.99005e-07
9.16674e-06
1.25726e-06
8.87077e-06
1.5078e-06
8.46216e-06
1.90788e-06
7.63531e-06
2.0596e-06
6.23237e-06
2.03294e-06
4.47728e-06
2.12622e-06
2.76567e-06
1.73864e-06
1.18977e-06
1.07809e-06
1.11168e-07
5.09738e-07
-4.08381e-07
9.61077e-08
-8.84143e-07
9.19873e-08
-1.60106e-06
2.59035e-07
-2.43743e-06
3.42615e-07
-3.07438e-06
1.53771e-07
-3.34687e-06
-2.76307e-07
-3.34007e-06
-7.70974e-07
-3.21948e-06
-1.22852e-06
-2.56976e-06
-2.28395e-06
-1.81905e-06
-2.72542e-06
-1.13785e-06
-2.72239e-06
-1.09385e-07
-3.39984e-06
7.56216e-07
-3.57024e-06
1.78959e-06
-3.88758e-06
3.59944e-06
-5.552e-06
5.31149e-06
-6.37965e-06
6.64349e-06
-5.91693e-06
7.42094e-06
-4.48247e-06
7.80507e-06
-3.51456e-06
7.78009e-06
-2.66998e-06
7.40342e-06
-1.98347e-06
6.11911e-06
-1.38956e-06
3.8822e-06
-9.82315e-07
1.02245e-06
-7.1391e-07
-1.51357e-06
-7.7242e-07
-3.20054e-06
-8.48712e-07
-4.34776e-06
-1.02976e-06
-5.1505e-06
-1.51394e-06
-5.7976e-06
-2.04024e-06
-6.25458e-06
-2.66369e-06
-6.48125e-06
-3.31134e-06
-6.56631e-06
-3.84422e-06
-6.47598e-06
-4.38026e-06
-6.27656e-06
-4.83673e-06
-5.99994e-06
-5.22237e-06
-5.62488e-06
-5.62355e-06
-5.14196e-06
-6.03287e-06
-4.59402e-06
-6.41802e-06
-4.01598e-06
-6.76924e-06
-3.41142e-06
-7.10982e-06
-2.74768e-06
-7.50119e-06
-1.93012e-06
-8.01845e-06
-9.42703e-07
-8.59147e-06
1.47848e-07
-9.09178e-06
1.24737e-06
-9.45437e-06
2.18295e-06
-9.57144e-06
3.22547e-06
-1.01036e-05
4.24634e-06
-1.04535e-05
5.17636e-06
-1.06122e-05
6.06714e-06
-1.08751e-05
6.90676e-06
-1.11663e-05
7.62069e-06
-1.11913e-05
8.21204e-06
-1.1384e-05
8.94842e-06
-1.1903e-05
9.47626e-06
-1.18527e-05
9.96186e-06
-1.21121e-05
1.02604e-05
-1.20753e-05
1.05549e-05
-1.23379e-05
1.09425e-05
-1.2431e-05
1.09507e-05
-1.21297e-05
1.0514e-05
-1.19688e-05
1.04094e-05
-1.2555e-05
1.0813e-05
-1.29896e-05
1.07982e-05
-1.25824e-05
9.68156e-06
-1.1541e-05
8.72799e-06
-1.18688e-05
8.78554e-06
-1.3049e-05
8.67832e-06
-1.29068e-05
7.65771e-06
-1.20413e-05
6.61314e-06
-1.18733e-05
6.11185e-06
-1.23021e-05
4.7108e-06
-1.16441e-05
2.28114e-06
-1.08363e-05
1.53675e-07
-1.08843e-05
-1.31873e-06
-1.11524e-05
-2.64633e-06
-1.09345e-05
-3.30943e-06
-1.16066e-05
-1.95746e-06
-1.42005e-05
3.38916e-07
-1.53823e-05
1.86743e-06
-1.43237e-05
1.82343e-06
-1.24192e-05
7.71474e-08
-1.04472e-05
-2.48304e-06
-9.43442e-06
-4.78498e-06
-9.98395e-06
-6.15145e-06
-1.11251e-05
-7.10219e-06
-1.10649e-05
-8.56939e-06
-9.51705e-06
-9.66188e-06
-9.25703e-06
-9.67065e-06
-1.10285e-05
-8.42429e-06
-1.33804e-05
-6.50305e-06
-1.29218e-05
-3.35419e-06
-1.48998e-05
-1.67796e-06
-1.29489e-05
-1.3689e-06
-1.10097e-05
-2.15351e-06
-9.43605e-06
-3.03149e-06
-9.23814e-06
-2.04975e-06
-1.32925e-05
2.79108e-06
-2.08263e-05
8.65269e-06
-2.20609e-05
1.19326e-05
-1.80854e-05
1.26445e-05
-1.50776e-05
1.26474e-05
-1.52393e-05
1.13639e-05
-1.4747e-05
7.91713e-06
-1.22252e-05
5.68613e-06
-1.60521e-05
9.91371e-06
-2.87967e-05
1.5165e-05
-2.95752e-05
1.52621e-05
-2.15186e-05
1.57289e-05
-2.4146e-05
1.46045e-05
-2.26887e-05
1.62273e-05
-2.91808e-05
2.06948e-05
-3.55393e-05
2.51427e-05
-3.74279e-05
2.73395e-05
-3.60959e-05
2.78491e-05
-3.58549e-05
2.6396e-05
-3.42387e-05
2.33507e-05
-3.24683e-05
1.8511e-05
-2.99851e-05
1.47827e-05
-3.3803e-05
1.08821e-05
-3.51362e-05
4.90955e-06
-3.11002e-05
-1.19126e-06
-3.09945e-05
-8.41612e-06
-2.87014e-05
-9.07359e-06
-3.84933e-05
-3.72041e-06
-4.16139e-05
-5.87236e-07
-4.24137e-05
6.71476e-07
-4.02781e-05
-6.77545e-06
-2.28982e-05
-1.36065e-05
-2.15064e-05
-2.22139e-05
-1.91069e-05
-7.34438e-08
2.11072e-06
-3.82964e-07
2.64903e-06
-7.78635e-07
2.69645e-06
-1.16855e-06
2.54911e-06
-1.506e-06
2.2666e-06
-1.73352e-06
1.79986e-06
-1.81073e-06
1.26752e-06
-1.78669e-06
8.38081e-07
-1.75993e-06
7.11081e-07
-1.79899e-06
7.44415e-07
-1.8869e-06
8.06614e-07
-1.97757e-06
8.10592e-07
-2.00656e-06
7.25026e-07
-1.9119e-06
5.2385e-07
-1.74232e-06
3.32108e-07
-1.51978e-06
1.87747e-07
-1.26832e-06
7.46847e-08
-1.00608e-06
-3.62149e-08
-7.46332e-07
-1.69326e-07
-4.5869e-07
-3.1673e-07
-1.43622e-07
-4.26443e-07
1.82414e-07
-4.93532e-07
5.04239e-07
-5.66279e-07
8.84393e-07
-6.99108e-07
1.32643e-06
-8.28854e-07
1.80363e-06
-9.50967e-07
2.32932e-06
-1.06902e-06
2.92946e-06
-1.20138e-06
3.57168e-06
-1.28607e-06
4.20736e-06
-1.24289e-06
4.81683e-06
-1.19559e-06
5.42191e-06
-1.20218e-06
6.01773e-06
-1.11992e-06
6.55599e-06
-9.95731e-07
6.98851e-06
-7.96501e-07
7.42073e-06
-5.40696e-07
7.81481e-06
-3.96944e-07
8.17568e-06
-2.37264e-07
8.56334e-06
1.34609e-08
8.88999e-06
2.3553e-07
9.20088e-06
5.56706e-07
9.44496e-06
9.5101e-07
9.59105e-06
1.24372e-06
9.68631e-06
1.68424e-06
9.51652e-06
2.03691e-06
9.05194e-06
2.27206e-06
8.45981e-06
2.50242e-06
7.38107e-06
2.55714e-06
5.6955e-06
2.49884e-06
3.75736e-06
2.18832e-06
2.03502e-06
1.50958e-06
8.70613e-07
8.88385e-07
1.60773e-08
7.03819e-07
-8.12121e-07
7.24144e-07
-1.66968e-06
5.30529e-07
-2.38032e-06
-8.21497e-08
-2.82221e-06
-8.96131e-07
-2.8015e-06
-1.86866e-06
-2.35551e-06
-3.38494e-06
-1.69554e-06
-4.07453e-06
-3.68671e-07
-4.80884e-06
1.12837e-06
-5.70936e-06
2.03795e-06
-5.34821e-06
3.12218e-06
-5.89437e-06
3.87943e-06
-7.27523e-06
3.56358e-06
-7.11552e-06
2.92746e-06
-6.39938e-06
2.12411e-06
-4.83115e-06
9.89852e-07
-3.58505e-06
-4.27263e-07
-2.50831e-06
-2.04914e-06
-1.69633e-06
-3.72807e-06
-1.12515e-06
-5.13024e-06
-1.05281e-06
-6.22723e-06
-1.14242e-06
-7.17933e-06
-1.40936e-06
-7.77143e-06
-1.90422e-06
-8.04561e-06
-2.46397e-06
-8.13566e-06
-3.19486e-06
-8.04226e-06
-3.97342e-06
-7.83907e-06
-4.78324e-06
-7.54902e-06
-5.59946e-06
-7.15419e-06
-6.32185e-06
-6.74768e-06
-6.95746e-06
-6.28959e-06
-7.55427e-06
-5.76705e-06
-8.10093e-06
-5.17257e-06
-8.67652e-06
-4.52624e-06
-9.24785e-06
-3.86171e-06
-9.76446e-06
-3.2122e-06
-1.02147e-05
-2.57213e-06
-1.06615e-05
-1.82942e-06
-1.1269e-05
-9.62643e-07
-1.20367e-05
1.38261e-07
-1.29699e-05
1.22998e-06
-1.36049e-05
2.24026e-06
-1.40055e-05
3.20861e-06
-1.42294e-05
4.28386e-06
-1.50139e-05
5.27259e-06
-1.54481e-05
6.10737e-06
-1.55718e-05
6.92018e-06
-1.59576e-05
7.77779e-06
-1.64089e-05
8.546e-06
-1.64749e-05
9.03873e-06
-1.65619e-05
9.88189e-06
-1.74768e-05
1.04312e-05
-1.73056e-05
1.0904e-05
-1.75903e-05
1.12227e-05
-1.75313e-05
1.1303e-05
-1.77339e-05
1.15351e-05
-1.78713e-05
1.1906e-05
-1.76658e-05
1.15675e-05
-1.72617e-05
1.07903e-05
-1.76886e-05
1.10314e-05
-1.84993e-05
1.19332e-05
-1.838e-05
1.1177e-05
-1.66886e-05
9.43221e-06
-1.65653e-05
9.15381e-06
-1.83737e-05
9.66948e-06
-1.89545e-05
8.68257e-06
-1.76444e-05
7.25382e-06
-1.69925e-05
7.19244e-06
-1.81154e-05
6.60465e-06
-1.74482e-05
4.13195e-06
-1.54441e-05
1.41074e-06
-1.51333e-05
-7.59094e-07
-1.56405e-05
-2.90535e-06
-1.50381e-05
-4.75422e-06
-1.56611e-05
-4.05519e-06
-2.05285e-05
-1.3412e-06
-2.33968e-05
1.48933e-06
-2.21269e-05
2.97307e-06
-1.92763e-05
2.26103e-06
-1.60093e-05
1.90904e-07
-1.43289e-05
-2.60675e-06
-1.4183e-05
-4.77415e-06
-1.53434e-05
-6.3837e-06
-1.5096e-05
-7.7386e-06
-1.32952e-05
-8.70311e-06
-1.33382e-05
-9.24749e-06
-1.53876e-05
-9.83154e-06
-1.73834e-05
-8.7739e-06
-1.80848e-05
-5.09376e-06
-2.25483e-05
-2.68227e-06
-2.00072e-05
-1.06213e-06
-1.73354e-05
-6.60184e-07
-1.4804e-05
-4.61306e-07
-1.4586e-05
-2.34579e-07
-1.85725e-05
1.81422e-06
-2.74651e-05
6.80228e-06
-3.18703e-05
1.0812e-05
-2.76535e-05
1.19716e-05
-2.25812e-05
1.32061e-05
-2.32137e-05
1.22881e-05
-2.12225e-05
9.02154e-06
-1.71924e-05
6.21885e-06
-2.24074e-05
7.2837e-06
-3.94629e-05
1.2745e-05
-4.2994e-05
1.42842e-05
-3.21671e-05
1.6231e-05
-3.59001e-05
1.53814e-05
-3.31293e-05
1.69115e-05
-4.18819e-05
2.18227e-05
-5.06659e-05
2.70721e-05
-5.28178e-05
2.9986e-05
-5.09746e-05
3.09025e-05
-5.10856e-05
2.92652e-05
-4.95615e-05
2.61239e-05
-4.73037e-05
2.13223e-05
-4.48345e-05
1.78549e-05
-5.0261e-05
1.36333e-05
-5.0879e-05
7.57321e-06
-4.58303e-05
1.5071e-06
-4.43091e-05
-6.75752e-06
-4.01149e-05
-1.03138e-05
-4.66497e-05
-8.09149e-06
-5.20524e-05
-1.32705e-06
-6.31991e-05
4.32546e-06
-6.13906e-05
-2.01746e-06
-3.66144e-05
-9.0439e-06
-3.44808e-05
-3.48234e-05
-1.49795e-05
-2.05313e-08
2.35213e-06
-1.27402e-07
2.97296e-06
-3.6779e-07
3.18106e-06
-6.61588e-07
3.11189e-06
-9.18579e-07
2.79256e-06
-1.0491e-06
2.1869e-06
-1.09775e-06
1.56233e-06
-1.18644e-06
1.16553e-06
-1.32559e-06
1.0847e-06
-1.57149e-06
1.22455e-06
-1.84134e-06
1.31262e-06
-2.00714e-06
1.21457e-06
-2.04522e-06
9.96268e-07
-2.03494e-06
7.38446e-07
-2.02116e-06
5.39406e-07
-2.00432e-06
3.89602e-07
-1.97059e-06
2.58037e-07
-1.88879e-06
9.7137e-08
-1.80745e-06
-3.88586e-08
-1.73281e-06
-1.82772e-07
-1.62698e-06
-3.27365e-07
-1.46986e-06
-4.5156e-07
-1.27087e-06
-5.74808e-07
-1.00428e-06
-7.84759e-07
-6.39761e-07
-1.02106e-06
-1.94384e-07
-1.23418e-06
2.98373e-07
-1.41158e-06
8.63175e-07
-1.62659e-06
1.49006e-06
-1.78683e-06
2.09809e-06
-1.73868e-06
2.69386e-06
-1.69018e-06
3.28771e-06
-1.70853e-06
3.83397e-06
-1.59338e-06
4.34308e-06
-1.45195e-06
4.81224e-06
-1.21602e-06
5.23057e-06
-9.07384e-07
5.59191e-06
-7.42281e-07
5.96797e-06
-5.97092e-07
6.36134e-06
-3.45545e-07
6.74348e-06
-1.69246e-07
7.16954e-06
8.59842e-08
7.63519e-06
4.34199e-07
8.04041e-06
7.02998e-07
8.46459e-06
1.08865e-06
8.85646e-06
1.46519e-06
9.03412e-06
1.83905e-06
8.92074e-06
2.30533e-06
8.57165e-06
2.6129e-06
8.04711e-06
2.71432e-06
7.1796e-06
2.71311e-06
5.71769e-06
2.65146e-06
3.92714e-06
2.33216e-06
2.52001e-06
1.69151e-06
1.52478e-06
1.25627e-06
7.61316e-07
8.02505e-07
1.31962e-07
2.5439e-08
-4.69138e-07
-8.56626e-07
-8.24617e-07
-2.13507e-06
-1.40475e-06
-3.47136e-06
-1.30751e-06
-4.85096e-06
-2.60773e-07
-6.61735e-06
7.52062e-08
-6.83447e-06
3.05347e-07
-6.38043e-06
6.70519e-07
-7.128e-06
-1.67452e-07
-7.38149e-06
-1.55988e-06
-6.7193e-06
-2.88723e-06
-6.13351e-06
-3.97893e-06
-4.83863e-06
-5.15148e-06
-3.55213e-06
-6.22003e-06
-2.6248e-06
-7.27022e-06
-1.88788e-06
-8.02117e-06
-1.66973e-06
-8.65746e-06
-1.76865e-06
-9.06095e-06
-2.1626e-06
-9.27684e-06
-2.6869e-06
-9.29672e-06
-3.44416e-06
-9.11947e-06
-4.27707e-06
-8.81079e-06
-5.21425e-06
-8.38151e-06
-6.19488e-06
-7.86468e-06
-7.17367e-06
-7.29809e-06
-8.1166e-06
-6.71757e-06
-8.92888e-06
-6.13471e-06
-9.64449e-06
-5.54783e-06
-1.03253e-05
-4.93089e-06
-1.09936e-05
-4.30367e-06
-1.16729e-05
-3.63095e-06
-1.23907e-05
-2.94681e-06
-1.30219e-05
-2.22357e-06
-1.36176e-05
-1.51697e-06
-1.41671e-05
-6.69329e-07
-1.50251e-05
2.14188e-07
-1.59643e-05
1.24275e-06
-1.71585e-05
2.29903e-06
-1.79623e-05
3.28049e-06
-1.84115e-05
4.25846e-06
-1.87699e-05
5.38461e-06