/*--------------------------------*- C++ -*----------------------------------*\
| =========                 |                                                 |
| \\      /  F ield         | OpenFOAM: The Open Source CFD Toolbox           |
|  \\    /   O peration     | Version:  dev                                   |
|   \\  /    A nd           | Web:      http://www.openfoam.org               |
|    \\/     M anipulation  |                                                 |
\*---------------------------------------------------------------------------*/
FoamFile
{
    version     2.0;
    format      ascii;
    class       volScalarField;
    object      pMean;
    location    "9.148";
}
// * * * * * * * * * * * * * * * * * * * * * * * * * * * * * * * * * * * * * //

dimensions      [1 -1 -2 0 0 0 0];

internalField   nonuniform List<scalar> 
12225
(
98311.3
98291.5
98277.8
98270.8
98256.5
98247.1
98228.6
98219.1
98197.6
98188.8
98164.1
98157.3
98126.3
98120
98079.2
98039.5
97950.3
97584.2
98306.8
98290.5
98277.2
98270.3
98255.9
98246.5
98228
98218.5
98196.9
98188.4
98163.4
98156.7
98125.9
98118
98077.4
98043.5
97951.2
97790
98303.1
98288.9
98276.2
98268.9
98254.5
98245
98226.5
98217.1
98195.4
98186.9
98162.6
98154.7
98126.5
98114.6
98079.7
98044.4
97977
97888.2
98298
98286
98274.1
98266.4
98252.1
98242.4
98224.4
98214.5
98193.7
98184.2
98161.2
98151.6
98125.4
98112.4
98080.7
98052.9
98004.4
97935.5
98291.3
98281.6
98270.5
98262.4
98248.5
98238.2
98221.3
98210.3
98191.2
98179.9
98159.7
98147.1
98125.6
98109.2
98082.6
98058.4
98018.5
97985.8
98283.1
98275.4
98264.6
98256.4
98242.9
98232.3
98216.2
98204.6
98186.8
98174.7
98156.5
98142.9
98124.5
98107.5
98086.2
98060.9
98038.7
98018.3
98272.8
98266.5
98256.1
98247.7
98235
98223.9
98209.1
98196.5
98180.8
98167.3
98151.9
98136.8
98122.2
98104.7
98090.4
98069.4
98059
98044.1
98262.1
98256.4
98246.8
98238.1
98226.4
98214.8
98201.3
98188
98174.1
98159.7
98146.6
98130.9
98119.4
98102.1
98093.3
98075.5
98073.8
98058.9
98251.3
98245.8
98237
98228.1
98217.2
98205.5
98192.9
98179.4
98166.8
98152.2
98140.8
98125.3
98115.5
98099.6
98093.3
98079.1
98078.8
98066.9
98237.6
98232.2
98224.5
98215.5
98205.5
98193.8
98182.2
98168.7
98157.4
98142.9
98132.9
98118
98109.8
98095.4
98090.4
98078.7
98077.9
98069.6
98220.7
98215.2
98208.7
98199.9
98190.8
98179.3
98168.5
98155.6
98145.1
98131.5
98122.1
98109
98100.9
98089.4
98083.8
98075.2
98072.5
98067.4
98200.2
98194.5
98189.2
98180.8
98172.4
98161.3
98151.5
98139.2
98129.6
98117
98108.3
98096.9
98089.3
98080
98074.3
98067.9
98064.3
98060.7
98175.4
98170.1
98165.6
98158
98150.1
98140.1
98130.7
98119.8
98110.6
98099.9
98091.5
98082.2
98074.9
98067.7
98062.3
98057.4
98053.8
98051.1
98147.2
98142.4
98138.4
98131.8
98124.6
98115.7
98107
98097.5
98089
98080
98072.3
98064.7
98058.3
98052.6
98047.9
98044.1
98041.1
98039
98117
98113.3
98109.5
98104.1
98097.6
98090
98082.2
98074.1
98066.5
98059
98052.3
98046.2
98040.9
98036.4
98032.6
98029.7
98027.5
98026
98089.3
98086.6
98083.2
98078.7
98073.1
98066.6
98059.8
98052.9
98046.3
98040.1
98034.5
98029.6
98025.3
98021.7
98018.8
98016.7
98015.1
98014.2
98070.7
98068.8
98066
98062.1
98057.2
98051.5
98045.5
98039.6
98033.9
98028.7
98023.9
98019.7
98016.2
98013.2
98010.9
98009.3
98008.1
98007.5
98071
98069.3
98066.8
98063
98058.3
98053
98047.4
98041.8
98036.5
98031.5
98027.1
98023.1
98019.7
98016.9
98014.7
98013
98011.8
98011.1
98090.7
98088.9
98086
98082.1
98077.1
98071.6
98065.8
98060
98054.4
98049.2
98044.4
98040.1
98036.4
98033.2
98030.5
98028.4
98026.7
98025.4
98121.5
98119.3
98115.9
98111.4
98106
98099.9
98093.6
98087.3
98081.1
98075.3
98069.9
98065
98060.6
98056.7
98053.3
98050.5
98048.1
98046.2
98156.3
98153.7
98149.7
98144.5
98138.4
98131.7
98124.8
98117.8
98111
98104.4
98098.3
98092.6
98087.5
98082.9
98078.7
98075.1
98072
98069.3
98190.2
98187.1
98182.3
98176.5
98169.8
98162.5
98155
98147.4
98139.9
98132.7
98125.9
98119.5
98113.7
98108.3
98103.5
98099.1
98095.3
98091.9
98220.4
98216.8
98211.2
98204.7
98197.5
98189.7
98181.7
98173.6
98165.6
98157.8
98150.4
98143.4
98136.9
98130.9
98125.5
98120.5
98116.1
98112
98245.7
98241.4
98235.1
98228
98220.3
98212.2
98203.8
98195.3
98186.8
98178.6
98170.7
98163.2
98156.2
98149.8
98143.8
98138.3
98133.3
98128.8
98266
98260.8
98253.6
98246
98238
98229.6
98221
98212.2
98203.4
98194.8
98186.6
98178.8
98171.4
98164.5
98158.1
98152.3
98146.9
98142
98281.7
98275.3
98267.2
98259.1
98250.9
98242.4
98233.6
98224.7
98215.7
98206.9
98198.4
98190.3
98182.6
98175.4
98168.8
98162.6
98157
98151.8
98293.4
98285.6
98276.5
98268
98259.8
98251.2
98242.4
98233.3
98224.2
98215.2
98206.6
98198.3
98190.4
98183.1
98176.2
98169.9
98164
98158.6
98302.2
98292.3
98282.3
98273.6
98265.4
98256.9
98248
98238.9
98229.7
98220.6
98211.9
98203.5
98195.5
98188
98181
98174.6
98168.6
98163.1
98308.2
98296.1
98285
98276.4
98268.3
98260
98251.2
98242.1
98232.9
98223.8
98214.9
98206.4
98198.4
98190.8
98183.8
98177.2
98171.2
98165.6
98314.2
98298.7
98286.6
98277.7
98269.6
98261.2
98252.5
98243.4
98234.2
98225
98216.2
98207.7
98199.6
98192
98184.9
98178.4
98172.3
98166.7
98311.2
98310.8
98310
98308.9
98307.4
98305.5
98303.3
98300.7
98297.7
98294.2
98290.4
98286.1
98281.5
98276.6
98271.4
98265.9
98260.2
98254.3
98248.2
98241.9
98235.5
98228.9
98222.2
98215.4
98208.5
98201.5
98194.5
98187.4
98180.3
98173.2
98166.2
98159.1
98152.1
98145.1
98138.2
98131.5
98124.8
98118.3
98112
98105.9
98100
98094.3
98088.9
98083.7
98078.9
98074.4
98070.3
98066.6
98063.3
98060.5
98058.1
98056.2
98054.8
98053.9
98053.7
98054
98055
98056.6
98058.8
98061.8
98065.5
98069.9
98074.9
98080.8
98087.3
98094.6
98102.5
98111.2
98120.5
98130.5
98141.1
98152.3
98164
98176.3
98189.1
98202.3
98215.9
98229.9
98244.2
98258.8
98273.6
98288.7
98303.8
98319
98334.3
98349.6
98364.8
98379.9
98394.8
98409.5
98423.9
98438.1
98451.8
98465.2
98478.1
98490.5
98502.4
98513.8
98524.5
98534.7
98544.2
98553
98561.3
98568.8
98575.8
98582.1
98587.8
98593
98597.6
98601.7
98605.3
98608.5
98611.4
98613.9
98616.1
98617.9
98619.6
98621
98622.3
98623.4
98624.5
98625.5
98626.7
98628
98629.6
98631.6
98634.3
98637.7
98642.1
98647.8
98654.9
98663.6
98674.3
98687.2
98702.5
98720.6
98741.4
98765.2
98792
98821.8
98854.9
98890.8
98929.6
98971.2
99015.5
99062.1
99111.1
99161.8
99214.4
99268.6
99324
99380.4
99437.4
99494.8
99552
99608.6
99664
99717.7
99768.7
99816.5
99860
99898.3
99930.2
99955.3
99972
99979.4
99976.8
99963.7
99939.6
99904.9
99859.5
99804.7
99740.7
99670
99593
99512.5
99427.9
99343.2
99256.4
99173.3
98304.2
98303.9
98303.1
98301.9
98300.4
98298.5
98296.3
98293.7
98290.7
98287.3
98283.5
98279.3
98274.9
98270.1
98265
98259.7
98254.2
98248.4
98242.5
98236.4
98230.2
98223.8
98217.3
98210.6
98203.9
98197.1
98190.2
98183.3
98176.4
98169.4
98162.5
98155.6
98148.7
98141.9
98135.2
98128.6
98122.1
98115.7
98109.5
98103.5
98097.7
98092.2
98086.8
98081.8
98077.1
98072.7
98068.6
98065
98061.7
98058.8
98056.5
98054.5
98053.1
98052.3
98052
98052.3
98053.2
98054.7
98056.9
98059.8
98063.4
98067.7
98072.7
98078.3
98084.7
98091.9
98099.7
98108.2
98117.3
98127.1
98137.5
98148.5
98160
98172.1
98184.7
98197.7
98211.1
98224.8
98238.9
98253.3
98267.9
98282.6
98297.5
98312.5
98327.5
98342.5
98357.4
98372.2
98386.8
98401.2
98415.4
98429.2
98442.7
98455.8
98468.4
98480.5
98492.2
98503.2
98513.7
98523.6
98532.9
98541.6
98549.6
98557
98563.7
98569.9
98575.5
98580.5
98585
98588.9
98592.5
98595.6
98598.4
98600.8
98602.9
98604.8
98606.4
98607.7
98608.9
98610
98611
98611.9
98613
98614.2
98615.6
98617.4
98619.9
98623
98627.1
98632.4
98639.1
98647.4
98657.6
98669.9
98684.7
98702
98722.2
98745.2
98771.1
98800.1
98832.1
98867.1
98904.9
98945.3
98988.5
99034
99081.8
99131.3
99182.8
99235.8
99290.1
99345.3
99401.2
99457.5
99513.7
99569.3
99623.8
99676.7
99727
99774.2
99817.2
99855.3
99887.1
99912.3
99929.4
99937.4
99935.5
99923.6
99900.8
99867.6
99823.8
99770.7
99708.5
99639.6
99564.3
99485.5
99402.6
99319.4
99233.6
99148.7
98291.5
98291.2
98290.4
98289.2
98287.6
98285.6
98283.3
98280.7
98277.6
98274.3
98270.5
98266.5
98262.2
98257.6
98252.8
98247.7
98242.5
98237.1
98231.5
98225.8
98219.9
98213.9
98207.8
98201.5
98195.2
98188.7
98182.2
98175.6
98168.9
98162.3
98155.6
98149
98142.4
98135.8
98129.3
98123
98116.7
98110.6
98104.6
98098.8
98093.2
98087.9
98082.7
98077.8
98073.2
98068.9
98065
98061.4
98058.2
98055.4
98053
98051.1
98049.7
98048.7
98048.3
98048.5
98049.3
98050.8
98052.8
98055.6
98059
98063
98067.8
98073.2
98079.4
98086.2
98093.7
98101.9
98110.7
98120.2
98130.3
98140.9
98152.1
98163.8
98175.9
98188.5
98201.5
98214.8
98228.4
98242.3
98256.4
98270.7
98285.1
98299.6
98314.1
98328.6
98343
98357.2
98371.3
98385.2
98398.8
98412.1
98425
98437.5
98449.6
98461.2
98472.2
98482.8
98492.8
98502.2
98511
98519.2
98526.8
98533.8
98540.3
98546.1
98551.4
98556.2
98560.4
98564.2
98567.6
98570.5
98573.1
98575.4
98577.4
98579.1
98580.6
98581.8
98582.9
98583.8
98584.6
98585.3
98586.1
98587
98588.1
98589.5
98591.4
98594
98597.5
98602
98607.9
98615.3
98624.5
98635.7
98649.2
98665.2
98683.9
98705.3
98729.6
98756.7
98786.8
98819.7
98855.4
98893.7
98934.7
98977.9
99023.3
99070.5
99119.6
99170.3
99222.2
99275.1
99328.8
99382.9
99437
99490.6
99543.1
99594.3
99643
99688.8
99730.8
99768
99799.4
99824.5
99841.9
99850.7
99850.2
99840
99819.5
99789
99748.3
99698.6
99639.9
99574.7
99503.1
99427.8
99348.3
99268.3
99185.4
99101.5
98274
98273.7
98273
98271.8
98270.2
98268.2
98265.9
98263.2
98260.2
98256.9
98253.3
98249.4
98245.2
98240.9
98236.3
98231.6
98226.7
98221.7
98216.5
98211.2
98205.8
98200.3
98194.6
98188.8
98182.9
98177
98170.9
98164.8
98158.6
98152.4
98146.2
98140
98133.9
98127.7
98121.6
98115.6
98109.7
98103.9
98098.3
98092.7
98087.4
98082.2
98077.3
98072.6
98068.1
98064
98060.2
98056.7
98053.6
98050.8
98048.5
98046.6
98045.1
98044.1
98043.6
98043.7
98044.4
98045.6
98047.5
98050
98053.1
98056.9
98061.3
98066.4
98072.2
98078.6
98085.7
98093.4
98101.8
98110.8
98120.4
98130.5
98141.2
98152.3
98163.9
98175.9
98188.3
98201
98214
98227.2
98240.7
98254.3
98268
98281.8
98295.6
98309.3
98323
98336.5
98349.8
98363
98375.8
98388.3
98400.5
98412.3
98423.6
98434.4
98444.7
98454.5
98463.8
98472.6
98480.7
98488.3
98495.4
98501.9
98507.8
98513.2
98518.1
98522.4
98526.4
98529.8
98532.9
98535.6
98538.1
98540.1
98541.9
98543.5
98544.7
98545.8
98546.6
98547.3
98547.8
98548.2
98548.6
98549
98549.6
98550.4
98551.7
98553.5
98556
98559.6
98564.3
98570.4
98578.2
98587.8
98599.6
98613.7
98630.2
98649.5
98671.4
98696.1
98723.5
98753.7
98786.4
98821.8
98859.7
98899.8
98942
98986
99031.9
99079.4
99128.2
99178
99228.6
99279.8
99331
99381.8
99431.8
99480.5
99527.1
99571
99611.3
99647.3
99677.8
99702.5
99720.2
99729.8
99730.7
99722.5
99704.8
99677.6
99640.7
99595.3
99541.3
99480.9
99414.1
99343.7
99268.9
99193.4
99114.6
99034.6
98252.9
98252.6
98251.9
98250.8
98249.2
98247.3
98245
98242.4
98239.5
98236.3
98232.8
98229.1
98225.1
98221
98216.8
98212.4
98207.8
98203.2
98198.5
98193.6
98188.7
98183.6
98178.5
98173.2
98167.9
98162.5
98157
98151.4
98145.8
98140.2
98134.6
98128.9
98123.3
98117.7
98112.1
98106.6
98101.1
98095.8
98090.5
98085.4
98080.4
98075.6
98070.9
98066.5
98062.3
98058.3
98054.6
98051.3
98048.3
98045.6
98043.3
98041.4
98039.8
98038.8
98038.2
98038.1
98038.6
98039.7
98041.3
98043.4
98046.2
98049.6
98053.6
98058.3
98063.6
98069.5
98076.1
98083.3
98091.1
98099.5
98108.4
98117.9
98127.9
98138.4
98149.3
98160.5
98172.1
98184.1
98196.2
98208.7
98221.3
98234
98246.8
98259.7
98272.6
98285.4
98298.2
98310.8
98323.2
98335.4
98347.3
98358.9
98370.1
98380.9
98391.3
98401.2
98410.6
98419.6
98428
98435.9
98443.3
98450.1
98456.5
98462.3
98467.6
98472.4
98476.8
98480.7
98484.2
98487.3
98490
98492.4
98494.5
98496.4
98497.9
98499.2
98500.2
98500.9
98501.5
98501.8
98502
98502
98501.9
98501.8
98501.7
98501.8
98502.2
98503
98504.4
98506.7
98510
98514.5
98520.5
98528.3
98537.9
98549.7
98563.8
98580.4
98599.5
98621.1
98645.4
98672.2
98701.5
98733.2
98767.5
98803.8
98842.2
98882.5
98924.5
98968.1
99013.2
99059.3
99106.3
99153.9
99201.5
99249
99295.8
99341.6
99385.5
99427.1
99465.3
99499.7
99529.1
99553.1
99570.8
99581
99583.3
99577.3
99562.5
99539.1
99506.6
99466.2
99417.6
99363
99301.9
99237.4
99168.4
99098.5
99025.2
98950.6
98229.5
98229.3
98228.6
98227.6
98226.1
98224.3
98222.2
98219.8
98217
98214
98210.7
98207.2
98203.5
98199.6
98195.7
98191.6
98187.4
98183.1
98178.8
98174.3
98169.8
98165.3
98160.6
98155.9
98151.1
98146.2
98141.3
98136.3
98131.4
98126.3
98121.3
98116.3
98111.2
98106.2
98101.2
98096.3
98091.4
98086.5
98081.8
98077.1
98072.5
98068.1
98063.8
98059.7
98055.8
98052.1
98048.6
98045.4
98042.5
98039.9
98037.7
98035.7
98034.2
98033.1
98032.4
98032.1
98032.4
98033.2
98034.5
98036.3
98038.7
98041.7
98045.3
98049.4
98054.2
98059.5
98065.5
98072
98079.2
98086.9
98095.1
98103.8
98113
98122.6
98132.7
98143.1
98153.8
98164.8
98176.1
98187.5
98199.1
98210.9
98222.7
98234.5
98246.3
98258.1
98269.8
98281.3
98292.6
98303.7
98314.6
98325.1
98335.2
98345
98354.3
98363.2
98371.6
98379.6
98387
98394.1
98400.6
98406.6
98412.1
98417.1
98421.7
98425.9
98429.7
98433
98436
98438.6
98441
98443
98444.7
98446.2
98447.4
98448.3
98449
98449.4
98449.6
98449.5
98449.2
98448.7
98448.1
98447.3
98446.5
98445.8
98445.2
98444.8
98445
98445.8
98447.5
98450.3
98454.3
98459.9
98467.1
98476.4
98487.7
98501.3
98517.2
98535.4
98556.1
98579.2
98604.7
98632.4
98662.5
98694.8
98729
98765.1
98802.9
98842.3
98883.2
98925.2
98968.1
99011.7
99055.5
99099.3
99142.6
99184.9
99225.8
99264.6
99300.5
99332.9
99360.8
99383.9
99401.3
99411.9
99415.5
99411.7
99399.9
99380.4
99352.5
99317.3
99274.4
99225.9
99171.2
99113.4
99050.9
98987.6
98920.7
98852.6
98205
98204.9
98204.3
98203.4
98202.1
98200.5
98198.6
98196.3
98193.8
98191
98188
98184.7
98181.3
98177.8
98174.1
98170.4
98166.5
98162.6
98158.6
98154.6
98150.5
98146.3
98142.1
98137.9
98133.6
98129.3
98125
98120.6
98116.2
98111.8
98107.3
98102.9
98098.4
98094
98089.6
98085.2
98080.9
98076.6
98072.3
98068.1
98064
98060
98056.1
98052.3
98048.7
98045.3
98042
98039.1
98036.3
98033.8
98031.6
98029.7
98028.1
98026.9
98026.1
98025.7
98025.8
98026.3
98027.3
98028.8
98030.8
98033.3
98036.3
98040
98044.1
98048.8
98054.1
98060
98066.4
98073.3
98080.7
98088.5
98096.9
98105.6
98114.7
98124.2
98133.9
98143.9
98154.1
98164.5
98175.1
98185.7
98196.4
98207.1
98217.7
98228.3
98238.8
98249.2
98259.3
98269.2
98278.9
98288.2
98297.2
98305.8
98314
98321.8
98329.1
98336
98342.5
98348.5
98354.1
98359.2
98363.9
98368.1
98371.9
98375.4
98378.5
98381.2
98383.6
98385.8
98387.6
98389.2
98390.5
98391.5
98392.3
98392.8
98393.1
98393.1
98392.8
98392.3
98391.5
98390.4
98389.1
98387.6
98386
98384.3
98382.6
98381
98379.8
98379.1
98379
98379.9
98381.8
98385.1
98389.8
98396.3
98404.7
98415.1
98427.6
98442.3
98459.2
98478.4
98499.9
98523.5
98549.3
98577.2
98607
98638.8
98672.2
98707.2
98743.7
98781.5
98820
98859.3
98899
98938.9
98978.5
99017.2
99054.7
99090.4
99123.6
99153.7
99179.7
99201.6
99218.3
99229.2
99233.8
99232.1
99223.1
99207.3
99183.8
99153.9
99116.8
99074.6
99026.6
98975.8
98920.2
98864
98804.1
98743.3
98180.8
98180.8
98180.3
98179.6
98178.5
98177.1
98175.4
98173.4
98171.1
98168.6
98165.9
98163
98159.9
98156.7
98153.3
98149.9
98146.4
98142.8
98139.2
98135.5
98131.8
98128.1
98124.3
98120.6
98116.8
98112.9
98109.1
98105.2
98101.4
98097.5
98093.6
98089.7
98085.8
98081.9
98078
98074.2
98070.4
98066.5
98062.8
98059
98055.3
98051.7
98048.2
98044.7
98041.4
98038.3
98035.3
98032.5
98029.9
98027.5
98025.3
98023.4
98021.8
98020.6
98019.6
98019.1
98018.9
98019.1
98019.8
98020.9
98022.5
98024.6
98027.1
98030.2
98033.7
98037.8
98042.4
98047.5
98053.1
98059.2
98065.8
98072.8
98080.2
98088
98096.1
98104.6
98113.3
98122.3
98131.4
98140.7
98150.1
98159.6
98169.1
98178.6
98188
98197.4
98206.7
98215.8
98224.6
98233.3
98241.7
98249.8
98257.6
98265
98272
98278.6
98284.8
98290.6
98296
98301
98305.7
98309.8
98313.6
98317
98320.1
98322.8
98325.2
98327.3
98329.1
98330.6
98331.9
98333
98333.8
98334.4
98334.7
98334.7
98334.5
98334.1
98333.3
98332.2
98330.8
98329.2
98327.1
98324.8
98322.2
98319.5
98316.7
98313.9
98311.2
98308.8
98307
98306
98305.7
98306.5
98308.7
98312.4
98317.8
98325
98334.1
98345.2
98358.3
98373.7
98391.1
98410.6
98432.1
98455.6
98481
98508.4
98537.4
98568
98600.1
98633.5
98667.6
98702.7
98738.3
98774.2
98809.9
98844.8
98878.6
98911
98941.2
98968.8
98992.5
99012.7
99028.4
99039.2
99044.6
99044.5
99037.9
99025.5
99006.1
98981.1
98949.6
98913.7
98872.4
98828.6
98780.1
98731.3
98678.6
98625.4
98158
98158
98157.7
98157
98156.1
98154.9
98153.5
98151.8
98149.8
98147.6
98145.2
98142.6
98139.9
98137
98134
98130.9
98127.8
98124.6
98121.3
98118
98114.7
98111.4
98108
98104.7
98101.3
98098
98094.6
98091.2
98087.8
98084.3
98080.9
98077.5
98074.1
98070.7
98067.3
98063.9
98060.5
98057.1
98053.7
98050.4
98047.1
98043.8
98040.6
98037.4
98034.4
98031.4
98028.6
98026
98023.5
98021.2
98019.1
98017.2
98015.5
98014.2
98013.1
98012.4
98012
98012
98012.3
98013.1
98014.3
98015.9
98017.9
98020.4
98023.4
98026.9
98030.8
98035.2
98040
98045.3
98051
98057.1
98063.6
98070.5
98077.7
98085.1
98092.8
98100.7
98108.8
98116.9
98125.2
98133.5
98141.8
98150.1
98158.3
98166.5
98174.5
98182.3
98189.9
98197.3
98204.4
98211.3
98217.8
98224
98229.8
98235.3
98240.3
98245
98249.4
98253.3
98256.9
98260.2
98263.1
98265.6
98267.9
98269.8
98271.5
98272.9
98274
98275
98275.7
98276.2
98276.5
98276.5
98276.3
98275.8
98275
98274
98272.7
98271
98269
98266.6
98263.8
98260.6
98257.1
98253.2
98249.3
98245.2
98241.1
98237.2
98233.6
98230.6
98228.1
98226.7
98226.3
98227.2
98229.7
98233.7
98239.4
98247.1
98256.6
98268.1
98281.6
98297.1
98314.5
98333.7
98354.9
98378.1
98402.8
98429.1
98456.8
98485.8
98515.7
98546.6
98578.1
98610.1
98641.7
98672.7
98702.9
98731.7
98758.7
98783.4
98804.8
98822.9
98837.2
98847.5
98853.1
98854
98849.4
98839.7
98824
98803.6
98777.2
98747.2
98712.4
98675.5
98634.1
98592.6
98547.1
98501.9
98137.3
98137.4
98137.2
98136.7
98136
98135
98133.8
98132.4
98130.7
98128.8
98126.8
98124.5
98122.1
98119.6
98117
98114.3
98111.5
98108.7
98105.8
98102.9
98100
98097
98094.1
98091.1
98088.1
98085.2
98082.2
98079.2
98076.1
98073.1
98070.1
98067.1
98064
98061
98058
98054.9
98051.9
98048.9
98045.8
98042.8
98039.8
98036.7
98033.8
98030.8
98028
98025.2
98022.6
98020
98017.6
98015.3
98013.2
98011.3
98009.6
98008.2
98007
98006.1
98005.5
98005.2
98005.2
98005.7
98006.5
98007.7
98009.2
98011.2
98013.7
98016.5
98019.8
98023.5
98027.6
98032.1
98037
98042.3
98047.9
98053.9
98060.1
98066.6
98073.3
98080.1
98087.1
98094.2
98101.3
98108.5
98115.7
98122.8
98129.8
98136.7
98143.5
98150
98156.4
98162.6
98168.4
98174
98179.3
98184.3
98188.9
98193.2
98197.1
98200.7
98204
98206.9
98209.5
98211.8
98213.8
98215.5
98216.9
98218.1
98219
98219.7
98220.1
98220.4
98220.5
98220.4
98220.1
98219.5
98218.7
98217.6
98216.3
98214.6
98212.6
98210.2
98207.5
98204.3
98200.7
98196.6
98192.1
98187.2
98182.1
98176.8
98171.4
98166
98160.7
98155.8
98151.4
98147.7
98144.8
98143.2
98142.8
98143.8
98146.4
98150.7
98156.7
98164.7
98174.4
98186.2
98199.7
98215
98232.2
98251.3
98272
98294.3
98317.8
98342.6
98368.5
98395.3
98422.8
98450.7
98478.3
98505.6
98532
98557.1
98580.7
98602.5
98621.2
98637
98649.4
98658.5
98663.7
98665.2
98661.9
98654.3
98641.8
98625.2
98603.5
98579.1
98550.3
98519.8
98485.1
98450.8
98412.5
98375.1
98119.5
98119.6
98119.5
98119.1
98118.6
98117.8
98116.8
98115.6
98114.3
98112.7
98111
98109.1
98107.1
98104.9
98102.7
98100.4
98098
98095.5
98093
98090.5
98087.9
98085.4
98082.8
98080.2
98077.6
98075
98072.3
98069.7
98067
98064.3
98061.6
98058.9
98056.2
98053.4
98050.7
98047.9
98045.1
98042.4
98039.5
98036.7
98033.9
98031
98028.2
98025.5
98022.7
98020.1
98017.5
98015
98012.6
98010.3
98008.2
98006.2
98004.5
98002.9
98001.5
98000.5
97999.6
97999.1
97998.9
97999
97999.5
98000.3
98001.4
98003
98004.9
98007.2
98009.9
98012.9
98016.4
98020.2
98024.3
98028.8
98033.7
98038.7
98044.1
98049.7
98055.4
98061.3
98067.2
98073.3
98079.4
98085.5
98091.5
98097.5
98103.3
98109.1
98114.7
98120
98125.2
98130.1
98134.8
98139.2
98143.3
98147.1
98150.6
98153.7
98156.5
98159
98161.2
98163
98164.6
98166
98167
98167.8
98168.4
98168.8
98168.9
98168.8
98168.6
98168.2
98167.5
98166.7
98165.7
98164.6
98163.1
98161.4
98159.4
98157
98154.2
98151.1
98147.6
98143.6
98139.1
98134.2
98128.8
98122.9
98116.7
98110.2
98103.5
98096.7
98089.8
98083.2
98076.9
98071.2
98066.2
98062
98059.1
98057.3
98056.9
98058.2
98061
98065.7
98072
98080.3
98090.3
98102.1
98115.6
98131.1
98148.1
98166.6
98186.2
98207.2
98229.2
98252.1
98275.8
98299.7
98323.4
98347
98369.6
98391
98411.1
98429.6
98445.4
98458.6
98468.7
98476.2
98480.2
98481.4
98478.8
98472.9
98462.8
98449.6
98431.9
98412.4
98389.1
98364.5
98336
98308.5
98277.1
98247.2
98104.8
98105
98104.9
98104.7
98104.3
98103.7
98103
98102.1
98101
98099.7
98098.3
98096.8
98095.1
98093.4
98091.5
98089.6
98087.5
98085.5
98083.4
98081.2
98079.1
98076.9
98074.7
98072.4
98070.1
98067.8
98065.5
98063.1
98060.7
98058.2
98055.8
98053.3
98050.8
98048.3
98045.7
98043.2
98040.5
98037.9
98035.2
98032.5
98029.8
98027
98024.3
98021.6
98018.9
98016.3
98013.7
98011.2
98008.8
98006.5
98004.3
98002.2
98000.3
97998.6
97997.1
97995.8
97994.8
97994.1
97993.6
97993.4
97993.6
97994
97994.8
97995.9
97997.4
97999.2
98001.4
98003.9
98006.7
98009.9
98013.4
98017.2
98021.3
98025.6
98030.1
98034.9
98039.7
98044.7
98049.8
98054.8
98059.9
98065
98070
98074.9
98079.7
98084.4
98088.9
98093.1
98097.2
98100.9
98104.5
98107.7
98110.6
98113.3
98115.6
98117.7
98119.4
98120.8
98121.9
98122.8
98123.4
98123.7
98123.9
98123.8
98123.5
98123
98122.3
98121.4
98120.4
98119.2
98117.8
98116.3
98114.6
98112.7
98110.5
98108.1
98105.3
98102.2
98098.7
98094.8
98090.5
98085.7
98080.3
98074.5
98068.2
98061.3
98054.1
98046.5
98038.6
98030.5
98022.3
98014.1
98006.2
97998.6
97991.6
97985.3
97980
97975.8
97972.8
97971.3
97971.4
97973.1
97976.4
97981.6
97988.5
97997.1
98007.5
98019.6
98033.2
98048.4
98064.6
98082.1
98100.5
98119.7
98139.7
98159.9
98179.8
98199.7
98218.4
98236.1
98252.6
98267.5
98280.3
98290.5
98298.1
98303.3
98305.7
98305.9
98303.3
98298.4
98290
98279.5
98265.3
98249.9
98231.3
98212.1
98189.3
98168.1
98143.1
98120.3
98093.4
98093.6
98093.6
98093.5
98093.2
98092.8
98092.3
98091.6
98090.8
98089.8
98088.8
98087.6
98086.3
98084.9
98083.4
98081.9
98080.3
98078.7
98077
98075.2
98073.4
98071.6
98069.7
98067.8
98065.8
98063.8
98061.7
98059.5
98057.4
98055.1
98052.8
98050.5
98048.2
98045.7
98043.3
98040.8
98038.3
98035.7
98033
98030.3
98027.6
98024.9
98022.2
98019.4
98016.7
98014
98011.4
98008.8
98006.3
98003.9
98001.6
97999.4
97997.4
97995.6
97993.9
97992.5
97991.2
97990.3
97989.6
97989.2
97989
97989.2
97989.7
97990.4
97991.5
97992.9
97994.7
97996.7
97999
98001.6
98004.6
98007.7
98011.2
98014.8
98018.6
98022.6
98026.7
98030.9
98035.1
98039.3
98043.5
98047.7
98051.8
98055.7
98059.5
98063.2
98066.6
98069.8
98072.8
98075.5
98077.9
98080.1
98081.9
98083.5
98084.8
98085.8
98086.4
98086.8
98086.9
98086.7
98086.3
98085.8
98085
98084
98082.8
98081.4
98079.9
98078.2
98076.3
98074.3
98072.2
98069.9
98067.4
98064.6
98061.7
98058.4
98054.9
98051
98046.7
98042
98036.9
98031.2
98025.1
98018.4
98011.2
98003.5
97995.3
97986.7
97977.7
97968.5
97959.1
97949.6
97940.2
97931
97922.3
97914.1
97906.7
97900.4
97895.2
97891.4
97889
97888.2
97889
97891.5
97895.7
97901.5
97909
97918.2
97928.9
97941
97954
97968.3
97983.4
97999.3
98015.9
98032.5
98048.9
98065.1
98080
98093.9
98106.6
98117.9
98127.4
98134.6
98139.3
98142.1
98142.4
98141
98137.7
98133
98125.8
98117.2
98105.8
98093.8
98079.1
98064.7
98047.1
98031.6
98012.4
97996.4
98085
98085.2
98085.3
98085.3
98085.1
98084.9
98084.6
98084.2
98083.7
98083
98082.3
98081.5
98080.6
98079.6
98078.5
98077.4
98076.3
98075.1
98073.8
98072.4
98071
98069.5
98068
98066.4
98064.7
98062.9
98061
98059
98057
98054.9
98052.7
98050.5
98048.2
98045.8
98043.4
98040.9
98038.3
98035.7
98033
98030.3
98027.5
98024.7
98021.9
98019.1
98016.2
98013.4
98010.7
98008
98005.3
98002.8
98000.4
97998
97995.9
97993.9
97992
97990.4
97989.1
97987.9
97987
97986.4
97986
97985.9
97986.1
97986.6
97987.4
97988.4
97989.8
97991.4
97993.4
97995.5
97998
98000.6
98003.5
98006.6
98009.8
98013.1
98016.5
98020
98023.5
98026.9
98030.4
98033.7
98037
98040
98043
98045.7
98048.2
98050.4
98052.4
98054.1
98055.5
98056.7
98057.6
98058.1
98058.4
98058.3
98058
98057.4
98056.5
98055.4
98054
98052.5
98050.7
98048.8
98046.7
98044.5
98042.1
98039.6
98036.8
98034
98031
98027.8
98024.5
98020.9
98017.1
98013
98008.6
98003.9
97998.8
97993.3
97987.3
97980.9
97973.9
97966.5
97958.5
97950
97941
97931.5
97921.6
97911.4
97901
97890.4
97879.7
97869.2
97859
97849.2
97840.2
97832.1
97825
97819.2
97814.8
97811.8
97810.4
97810.7
97812.6
97816
97821
97827.6
97835.6
97844.8
97855.2
97866.7
97878.8
97891.7
97904.9
97918.2
97931.2
97943.8
97955
97965.2
97974.1
97981.7
97987.6
97991.5
97993.3
97993.6
97991.4
97988.1
97983.6
97978.4
97971.7
97964.4
97955.1
97945.8
97934.4
97924.1
97910.9
97900.6
97886.6
97876.8
98079
98079.2
98079.4
98079.5
98079.5
98079.5
98079.4
98079.2
98079
98078.7
98078.4
98078
98077.6
98077.1
98076.5
98075.8
98075.1
98074.4
98073.5
98072.6
98071.5
98070.4
98069.2
98067.8
98066.4
98064.8
98063.1
98061.3
98059.4
98057.3
98055.2
98053
98050.7
98048.3
98045.8
98043.2
98040.6
98037.9
98035.1
98032.2
98029.3
98026.3
98023.4
98020.4
98017.4
98014.5
98011.5
98008.7
98005.9
98003.2
98000.6
97998.1
97995.7
97993.6
97991.6
97989.9
97988.3
97987
97985.9
97985.1
97984.6
97984.3
97984.3
97984.5
97985
97985.8
97986.9
97988.2
97989.8
97991.6
97993.7
97995.9
97998.3
98000.9
98003.6
98006.4
98009.2
98012.1
98015
98017.8
98020.5
98023.2
98025.6
98028
98030.1
98032
98033.6
98035
98036.1
98036.9
98037.4
98037.6
98037.6
98037.2
98036.5
98035.5
98034.3
98032.7
98030.8
98028.8
98026.5
98024
98021.3
98018.5
98015.5
98012.4
98009.1
98005.7
98002.1
97998.4
97994.5
97990.5
97986.3
97981.8
97977.1
97972.2
97966.9
97961.3
97955.4
97949.1
97942.4
97935.1
97927.4
97919.1
97910.5
97901.3
97891.6
97881.3
97870.7
97859.7
97848.5
97836.9
97825.3
97813.7
97802.2
97791.2
97780.8
97771.3
97762.7
97755.3
97749.2
97744.5
97741.3
97739.6
97739.4
97740.8
97743.6
97747.9
97753.5
97760.3
97768.3
97777.3
97786.8
97796.7
97806.9
97816.9
97826.6
97835.7
97843.4
97849.9
97855
97858.9
97861.2
97861.7
97860.4
97858.1
97853.5
97848
97841.9
97835.7
97828.9
97822.3
97814.3
97807.1
97798.4
97791.5
97782.1
97776.3
97766.9
97762.6
98074.6
98074.9
98075.1
98075.3
98075.5
98075.6
98075.8
98076
98076.2
98076.4
98076.6
98076.8
98076.9
98076.9
98076.9
98076.8
98076.6
98076.2
98075.8
98075.2
98074.6
98073.8
98072.8
98071.7
98070.5
98069
98067.5
98065.8
98063.9
98061.9
98059.8
98057.6
98055.2
98052.7
98050.1
98047.4
98044.7
98041.8
98038.8
98035.8
98032.7
98029.6
98026.4
98023.2
98020.1
98016.9
98013.8
98010.7
98007.8
98004.9
98002.1
97999.5
97997
97994.7
97992.6
97990.7
97989
97987.6
97986.4
97985.4
97984.7
97984.3
97984.1
97984.1
97984.5
97985.1
97985.9
97987
97988.3
97989.9
97991.6
97993.5
97995.6
97997.8
98000
98002.4
98004.7
98007.1
98009.4
98011.7
98013.8
98015.8
98017.7
98019.3
98020.7
98021.9
98022.8
98023.4
98023.7
98023.7
98023.3
98022.7
98021.8
98020.6
98019
98017.1
98015
98012.5
98009.8
98006.8
98003.6
98000.2
97996.7
97993
97989.1
97985.1
97981
97976.7
97972.2
97967.6
97962.8
97957.9
97952.7
97947.4
97941.8
97936
97929.9
97923.5
97916.8
97909.7
97902.1
97894.1
97885.7
97876.9
97867.6
97857.7
97847.4
97836.6
97825.4
97813.8
97801.8
97789.6
97777.2
97764.7
97752.4
97740.4
97729
97718.4
97708.6
97699.8
97692.3
97686.2
97681.4
97678.1
97676.2
97675.8
97676.8
97679.2
97682.7
97687.4
97693.1
97699.9
97707
97714.2
97721.3
97728.2
97734.8
97740.5
97744.8
97747.9
97749.3
97749.4
97748
97745
97740.6
97735.4
97728.4
97720.7
97712.7
97705.3
97697.9
97691.5
97684.3
97678.7
97671.9
97667.8
97661.5
97659.7
97654.4
97655
98070.8
98071
98071.2
98071.4
98071.7
98072.2
98072.8
98073.6
98074.4
98075.3
98076.2
98077.1
98077.9
98078.6
98079.2
98079.6
98079.9
98080
98080
98079.8
98079.4
98078.9
98078.2
98077.3
98076.2
98074.9
98073.5
98071.8
98070
98068
98065.8
98063.5
98061.1
98058.5
98055.8
98053
98050
98047
98043.9
98040.6
98037.4
98034
98030.7
98027.3
98023.9
98020.6
98017.3
98014
98010.9
98007.8
98004.9
98002.2
97999.5
97997.1
97994.9
97992.9
97991.1
97989.5
97988.2
97987.1
97986.3
97985.8
97985.4
97985.4
97985.6
97986.1
97986.7
97987.7
97988.8
97990.1
97991.6
97993.3
97995.1
97996.9
97998.9
98000.8
98002.8
98004.7
98006.6
98008.4
98010
98011.4
98012.7
98013.7
98014.5
98015
98015.2
98015.1
98014.7
98014
98012.9
98011.5
98009.8
98007.8
98005.4
98002.7
97999.8
97996.5
97992.9
97989.1
97985.1
97980.9
97976.4
97971.9
97967.2
97962.3
97957.3
97952.1
97946.8
97941.3
97935.7
97929.9
97923.9
97917.6
97911.2
97904.5
97897.6
97890.4
97882.9
97875.1
97866.8
97858.2
97849.1
97839.7
97829.8
97819.5
97808.7
97797.4
97785.8
97773.7
97761.2
97748.4
97735.4
97722.3
97709.4
97696.8
97684.6
97673.1
97662.2
97652.4
97643.8
97636.4
97630.2
97625.6
97622.3
97620.4
97619.9
97620.6
97622.3
97625
97628.8
97633.4
97638.4
97643
97647.3
97651.2
97654.7
97657.3
97658.5
97658.2
97655.9
97652.3
97647.2
97640.9
97633.2
97625
97615.6
97605.8
97595.9
97587.2
97578.9
97572.2
97565.4
97560.8
97555.5
97553.6
97549.8
97551.5
97549.7
97554.7
98066
98066
98066
98066.3
98067.1
98068.4
98069.8
98071.5
98073.3
98075.2
98076.9
98078.6
98080.1
98081.5
98082.7
98083.7
98084.5
98085
98085.4
98085.5
98085.4
98085.1
98084.6
98083.9
98082.9
98081.7
98080.3
98078.7
98076.9
98074.9
98072.7
98070.3
98067.8
98065.1
98062.2
98059.3
98056.2
98053
98049.6
98046.2
98042.8
98039.3
98035.7
98032.2
98028.6
98025.1
98021.6
98018.2
98014.9
98011.8
98008.7
98005.8
98003.1
98000.6
97998.2
97996.1
97994.3
97992.6
97991.2
97990.1
97989.2
97988.6
97988.2
97988
97988.2
97988.5
97989.1
97989.9
97990.9
97992.1
97993.4
97994.9
97996.4
97998
97999.6
98001.3
98002.9
98004.4
98005.9
98007.2
98008.4
98009.3
98010.1
98010.6
98010.8
98010.7
98010.3
98009.6
98008.6
98007.2
98005.4
98003.3
98000.9
97998.1
97995
97991.5
97987.8
97983.8
97979.5
97974.9
97970.1
97965.1
97959.9
97954.5
97949
97943.3
97937.5
97931.5
97925.4
97919.1
97912.6
97906
97899.1
97892.1
97884.8
97877.4
97869.7
97861.8
97853.6
97845
97836.1
97826.9
97817.4
97807.4
97797.1
97786.3
97775.1
97763.5
97751.5
97739.1
97726.2
97713
97699.6