/*--------------------------------*- C++ -*----------------------------------*\
| =========                 |                                                 |
| \\      /  F ield         | OpenFOAM: The Open Source CFD Toolbox           |
|  \\    /   O peration     | Version:  dev                                   |
|   \\  /    A nd           | Web:      http://www.openfoam.org               |
|    \\/     M anipulation  |                                                 |
\*---------------------------------------------------------------------------*/
FoamFile
{
    version     2.0;
    format      ascii;
    class       volScalarField;
    object      pPrime2Mean;
    location    "9.148";
}
// * * * * * * * * * * * * * * * * * * * * * * * * * * * * * * * * * * * * * //

dimensions      [2 -2 -4 0 0 0 0];

internalField   nonuniform List<scalar> 
12225
(
5.03686e+07
4.99033e+07
4.89423e+07
4.75907e+07
4.59364e+07
4.40689e+07
4.20473e+07
3.99438e+07
3.77992e+07
3.56615e+07
3.35684e+07
3.1523e+07
2.95992e+07
2.77278e+07
2.59801e+07
2.44194e+07
2.28574e+07
2.12775e+07
5.02608e+07
4.97956e+07
4.88353e+07
4.74854e+07
4.58325e+07
4.39674e+07
4.19487e+07
3.98478e+07
3.7707e+07
3.5572e+07
3.34836e+07
3.14419e+07
2.95227e+07
2.76581e+07
2.59279e+07
2.43673e+07
2.28584e+07
2.15243e+07
5.00108e+07
4.95461e+07
4.85863e+07
4.72394e+07
4.55911e+07
4.37307e+07
4.17188e+07
3.96241e+07
3.74915e+07
3.53645e+07
3.32846e+07
3.12546e+07
2.93414e+07
2.74942e+07
2.57837e+07
2.4228e+07
2.27929e+07
2.158e+07
4.95752e+07
4.91135e+07
4.8156e+07
4.68143e+07
4.5174e+07
4.3322e+07
4.13217e+07
3.92376e+07
3.71198e+07
3.50063e+07
3.29422e+07
3.093e+07
2.90341e+07
2.72061e+07
2.55253e+07
2.39942e+07
2.26078e+07
2.15072e+07
4.89103e+07
4.84488e+07
4.7496e+07
4.61638e+07
4.45353e+07
4.26979e+07
4.07134e+07
3.86486e+07
3.65498e+07
3.44605e+07
3.24167e+07
3.04352e+07
2.85618e+07
2.67699e+07
2.51414e+07
2.36326e+07
2.23514e+07
2.12873e+07
4.79613e+07
4.74972e+07
4.6554e+07
4.52352e+07
4.36246e+07
4.1807e+07
3.98472e+07
3.7808e+07
3.57393e+07
3.36797e+07
3.16701e+07
2.97228e+07
2.78877e+07
2.61423e+07
2.45633e+07
2.3124e+07
2.18971e+07
2.08408e+07
4.66666e+07
4.62013e+07
4.52736e+07
4.39711e+07
4.23866e+07
4.05947e+07
3.86705e+07
3.66647e+07
3.46389e+07
3.26182e+07
3.0657e+07
2.87553e+07
2.69715e+07
2.5284e+07
2.37619e+07
2.23827e+07
2.12142e+07
2.01863e+07
4.52249e+07
4.47612e+07
4.38498e+07
4.25651e+07
4.10094e+07
3.92471e+07
3.73614e+07
3.53946e+07
3.34141e+07
3.14396e+07
2.95282e+07
2.76802e+07
2.5948e+07
2.43235e+07
2.285e+07
2.15339e+07
2.0398e+07
1.94383e+07
4.37105e+07
4.32502e+07
4.23551e+07
4.10902e+07
3.9564e+07
3.78342e+07
3.59879e+07
3.40634e+07
3.21292e+07
3.02042e+07
2.83438e+07
2.65514e+07
2.4873e+07
2.33092e+07
2.18877e+07
2.06278e+07
1.95338e+07
1.86352e+07
4.17708e+07
4.13172e+07
4.04415e+07
3.92042e+07
3.77145e+07
3.60286e+07
3.42312e+07
3.23629e+07
3.04859e+07
2.86258e+07
2.68282e+07
2.51074e+07
2.3495e+07
2.2006e+07
2.06508e+07
1.94584e+07
1.84213e+07
1.75686e+07
3.93227e+07
3.88791e+07
3.8027e+07
3.68265e+07
3.53826e+07
3.37539e+07
3.20185e+07
3.02212e+07
2.84173e+07
2.66375e+07
2.49202e+07
2.32854e+07
2.17568e+07
2.03539e+07
1.90817e+07
1.79661e+07
1.69959e+07
1.61894e+07
3.63e+07
3.58714e+07
3.50474e+07
3.38959e+07
3.25092e+07
3.09537e+07
2.92957e+07
2.75875e+07
2.58741e+07
2.41932e+07
2.25741e+07
2.10424e+07
1.96146e+07
1.8311e+07
1.71354e+07
1.61041e+07
1.52095e+07
1.44561e+07
3.26878e+07
3.22778e+07
3.14903e+07
3.03998e+07
2.90854e+07
2.7619e+07
2.60567e+07
2.44551e+07
2.28519e+07
2.12875e+07
1.97852e+07
1.83725e+07
1.70611e+07
1.58698e+07
1.48007e+07
1.3863e+07
1.30517e+07
1.23634e+07
2.85772e+07
2.819e+07
2.74492e+07
2.64311e+07
2.5205e+07
2.38421e+07
2.23938e+07
2.09143e+07
1.94393e+07
1.80058e+07
1.66363e+07
1.53542e+07
1.41714e+07
1.31006e+07
1.21451e+07
1.13078e+07
1.05851e+07
9.97095e+06
2.42536e+07
2.38928e+07
2.32081e+07
2.22708e+07
2.11449e+07
1.98961e+07
1.85735e+07
1.72263e+07
1.58889e+07
1.45942e+07
1.33637e+07
1.22168e+07
1.11644e+07
1.02153e+07
9.37219e+06
8.63497e+06
8.00047e+06
7.46198e+06
2.03074e+07
1.99754e+07
1.93502e+07
1.84946e+07
1.74702e+07
1.63346e+07
1.51357e+07
1.39166e+07
1.27111e+07
1.15471e+07
1.04455e+07
9.42176e+06
8.48601e+06
7.64427e+06
6.89844e+06
6.24723e+06
5.68748e+06
5.21296e+06
1.77424e+07
1.74358e+07
1.68609e+07
1.60732e+07
1.51312e+07
1.40866e+07
1.2985e+07
1.18655e+07
1.07595e+07
9.69249e+06
8.68324e+06
7.74537e+06
6.8876e+06
6.11471e+06
5.42808e+06
4.82632e+06
4.30644e+06
3.86309e+06
1.78506e+07
1.7556e+07
1.70033e+07
1.62452e+07
1.53379e+07
1.43304e+07
1.32663e+07
1.21827e+07
1.11097e+07
1.00709e+07
9.08414e+06
8.16208e+06
7.31285e+06
6.54094e+06
5.84776e+06
5.23246e+06
4.69255e+06
4.22367e+06
2.07275e+07
2.04284e+07
1.98659e+07
1.90929e+07
1.81661e+07
1.71347e+07
1.60421e+07
1.49251e+07
1.38136e+07
1.27309e+07
1.16947e+07
1.07177e+07
9.80813e+06
8.97078e+06
8.20757e+06
7.51842e+06
6.90149e+06
6.35341e+06
2.52144e+07
2.49024e+07
2.4312e+07
2.34979e+07
2.25196e+07
2.1428e+07
2.02677e+07
1.90762e+07
1.78843e+07
1.67158e+07
1.5589e+07
1.4517e+07
1.35086e+07
1.25693e+07
1.17016e+07
1.09063e+07
1.01822e+07
9.52688e+06
3.02737e+07
2.99476e+07
2.93239e+07
2.84604e+07
2.74197e+07
2.6255e+07
2.50126e+07
2.37318e+07
2.24442e+07
2.1175e+07
1.9943e+07
1.87622e+07
1.76422e+07
1.65891e+07
1.56062e+07
1.46951e+07
1.38553e+07
1.30851e+07
3.51873e+07
3.48495e+07
3.41949e+07
3.32843e+07
3.21835e+07
3.09475e+07
2.9625e+07
2.82566e+07
2.68755e+07
2.55077e+07
2.41733e+07
2.28869e+07
2.1659e+07
2.04964e+07
1.94032e+07
1.83815e+07
1.74317e+07
1.65526e+07
3.95363e+07
3.91902e+07
3.85101e+07
3.75598e+07
3.64075e+07
3.51098e+07
3.37172e+07
3.22719e+07
3.08083e+07
2.93537e+07
2.79289e+07
2.65494e+07
2.52265e+07
2.39676e+07
2.27776e+07
2.16591e+07
2.06129e+07
1.96386e+07
4.31318e+07
4.27805e+07
4.20812e+07
4.10999e+07
3.99064e+07
3.8559e+07
3.71094e+07
3.56012e+07
3.407e+07
3.2544e+07
3.10448e+07
2.95887e+07
2.81875e+07
2.68494e+07
2.55797e+07
2.43816e+07
2.32563e+07
2.22037e+07
4.594e+07
4.55858e+07
4.48726e+07
4.38685e+07
4.26439e+07
4.12584e+07
3.97649e+07
3.82081e+07
3.66245e+07
3.50429e+07
3.34858e+07
3.19701e+07
3.0508e+07
2.91083e+07
2.77767e+07
2.65167e+07
2.53298e+07
2.42164e+07
4.8018e+07
4.76622e+07
4.69394e+07
4.59191e+07
4.46722e+07
4.3259e+07
4.17334e+07
4.01409e+07
3.85187e+07
3.68962e+07
3.52965e+07
3.37369e+07
3.223e+07
3.0785e+07
2.94077e+07
2.81021e+07
2.68699e+07
2.57115e+07
4.94667e+07
4.911e+07
4.83806e+07
4.73494e+07
4.60872e+07
4.46551e+07
4.31075e+07
4.14905e+07
3.98417e+07
3.8191e+07
3.65618e+07
3.49717e+07
3.34338e+07
3.19573e+07
3.05484e+07
2.92112e+07
2.79476e+07
2.67581e+07
5.04016e+07
5.00439e+07
4.93103e+07
4.82724e+07
4.70005e+07
4.55563e+07
4.39948e+07
4.23622e+07
4.06964e+07
3.90276e+07
3.73795e+07
3.577e+07
3.42121e+07
3.27153e+07
3.12861e+07
2.99285e+07
2.86448e+07
2.74354e+07
5.09306e+07
5.05726e+07
4.98374e+07
4.87964e+07
4.75191e+07
4.60684e+07
4.44991e+07
4.28575e+07
4.11818e+07
3.95027e+07
3.78437e+07
3.62229e+07
3.46535e+07
3.31451e+07
3.17042e+07
3.03349e+07
2.90398e+07
2.78194e+07
5.11527e+07
5.07962e+07
5.00591e+07
4.90164e+07
4.77365e+07
4.6283e+07
4.47102e+07
4.30648e+07
4.13849e+07
3.97013e+07
3.80376e+07
3.6412e+07
3.48377e+07
3.33243e+07
3.18784e+07
3.05042e+07
2.92044e+07
2.79795e+07
6.04848e+07
6.04257e+07
6.0295e+07
6.00893e+07
5.98066e+07
5.94462e+07
5.90083e+07
5.84935e+07
5.7903e+07
5.72383e+07
5.65011e+07
5.56937e+07
5.48183e+07
5.38774e+07
5.28739e+07
5.18107e+07
5.0691e+07
4.95184e+07
4.82964e+07
4.70291e+07
4.57202e+07
4.4374e+07
4.29946e+07
4.15864e+07
4.01539e+07
3.87016e+07
3.72341e+07
3.57556e+07
3.42708e+07
3.27842e+07
3.13004e+07
2.9824e+07
2.83595e+07
2.69116e+07
2.54848e+07
2.40838e+07
2.27131e+07
2.13775e+07
2.00817e+07
1.88305e+07
1.76287e+07
1.64812e+07
1.53931e+07
1.43693e+07
1.34151e+07
1.25357e+07
1.17364e+07
1.10225e+07
1.03996e+07
9.87304e+06
9.44828e+06
9.13078e+06
8.92595e+06
8.83905e+06
8.87519e+06
9.03919e+06
9.33559e+06
9.76867e+06
1.03423e+07
1.10596e+07
1.19236e+07
1.29361e+07
1.40988e+07
1.54124e+07
1.68767e+07
1.8491e+07
2.02537e+07
2.21622e+07
2.42134e+07
2.64036e+07
2.8728e+07
3.11815e+07
3.3758e+07
3.64513e+07
3.92543e+07
4.21599e+07
4.51606e+07
4.82485e+07
5.14159e+07
5.46547e+07
5.79568e+07
6.13141e+07
6.47182e+07
6.81606e+07
7.16325e+07
7.51251e+07
7.86292e+07
8.21354e+07
8.56336e+07
8.91135e+07
9.2564e+07
9.59738e+07
9.93307e+07
1.02622e+08
1.05836e+08
1.08959e+08
1.11979e+08
1.14884e+08
1.17662e+08
1.20303e+08
1.22798e+08
1.25137e+08
1.27315e+08
1.29325e+08
1.31165e+08
1.32831e+08
1.34324e+08
1.35647e+08
1.36805e+08
1.37804e+08
1.38657e+08
1.39372e+08
1.39966e+08
1.40451e+08
1.40844e+08
1.41163e+08
1.41427e+08
1.41657e+08
1.41878e+08
1.42116e+08
1.42401e+08
1.42766e+08
1.43248e+08
1.43885e+08
1.44723e+08
1.45808e+08
1.47194e+08
1.48938e+08
1.51099e+08
1.5374e+08
1.56925e+08
1.60716e+08
1.65174e+08
1.70357e+08
1.76317e+08
1.831e+08
1.90741e+08
1.99269e+08
2.08697e+08
2.19028e+08
2.30257e+08
2.4236e+08
2.55309e+08
2.69064e+08
2.8358e+08
2.98796e+08
3.14662e+08
3.31107e+08
3.48067e+08
3.65468e+08
3.83235e+08
4.01285e+08
4.19526e+08
4.37866e+08
4.56184e+08
4.74337e+08
4.92165e+08
5.09497e+08
5.261e+08
5.41741e+08
5.56119e+08
5.68936e+08
5.79852e+08
5.88544e+08
5.94676e+08
5.97953e+08
5.98114e+08
5.94978e+08
5.8842e+08
5.78467e+08
5.65198e+08
5.48882e+08
5.29837e+08
5.08555e+08
4.85511e+08
4.6123e+08
4.36079e+08
4.10493e+08
3.84683e+08
3.58973e+08
5.94099e+07
5.93543e+07
5.92292e+07
5.90293e+07
5.87531e+07
5.84004e+07
5.79718e+07
5.74683e+07
5.68914e+07
5.62422e+07
5.55227e+07
5.47347e+07
5.38804e+07
5.29622e+07
5.19827e+07
5.09447e+07
4.98512e+07
4.87055e+07
4.75112e+07
4.62719e+07
4.49916e+07
4.36742e+07
4.23239e+07
4.09449e+07
3.95416e+07
3.81185e+07
3.66797e+07
3.52298e+07
3.37729e+07
3.23136e+07
3.08564e+07
2.94058e+07
2.79663e+07
2.65424e+07
2.51387e+07
2.37597e+07
2.24099e+07
2.10939e+07
1.98165e+07
1.85824e+07
1.73964e+07
1.62634e+07
1.51883e+07
1.41761e+07
1.32321e+07
1.23615e+07
1.15695e+07
1.08615e+07
1.0243e+07
9.71942e+06
9.29621e+06
8.9788e+06
8.77259e+06
8.6828e+06
8.71457e+06
8.87277e+06
9.16198e+06
9.58641e+06
1.01499e+07
1.08556e+07
1.17065e+07
1.27045e+07
1.38511e+07
1.5147e+07
1.65921e+07
1.81857e+07
1.99261e+07
2.18107e+07
2.38366e+07
2.59998e+07
2.82958e+07
3.07192e+07
3.32643e+07
3.59246e+07
3.86932e+07
4.15631e+07
4.45267e+07
4.75763e+07
5.07042e+07
5.39022e+07
5.71624e+07
6.04766e+07
6.38366e+07
6.72338e+07
7.06598e+07
7.41056e+07
7.75621e+07
8.10199e+07
8.44691e+07
8.78995e+07
9.13001e+07
9.46597e+07
9.79663e+07
1.01208e+08
1.04372e+08
1.07445e+08
1.10417e+08
1.13274e+08
1.16006e+08
1.18603e+08
1.21054e+08
1.23353e+08
1.25493e+08
1.27468e+08
1.29274e+08
1.30911e+08
1.32376e+08
1.33674e+08
1.3481e+08
1.35791e+08
1.36628e+08
1.3733e+08
1.37912e+08
1.38388e+08
1.38772e+08
1.39083e+08
1.3934e+08
1.39564e+08
1.39777e+08
1.40006e+08
1.40279e+08
1.4063e+08
1.41094e+08
1.41711e+08
1.42522e+08
1.43575e+08
1.44922e+08
1.46619e+08
1.48724e+08
1.51301e+08
1.54412e+08
1.58118e+08
1.6248e+08
1.67553e+08
1.73391e+08
1.80037e+08
1.87529e+08
1.95892e+08
2.05143e+08
2.15282e+08
2.26305e+08
2.38191e+08
2.50911e+08
2.64426e+08
2.78693e+08
2.9365e+08
3.09246e+08
3.25421e+08
3.42105e+08
3.59226e+08
3.76712e+08
3.94481e+08
4.12445e+08
4.30514e+08
4.48565e+08
4.66464e+08
4.84047e+08
5.01153e+08
5.17552e+08
5.33011e+08
5.47245e+08
5.59956e+08
5.70809e+08
5.79486e+08
5.85658e+08
5.89038e+08
5.89366e+08
5.86467e+08
5.80211e+08
5.70608e+08
5.57734e+08
5.41845e+08
5.23247e+08
5.0242e+08
4.79826e+08
4.55975e+08
4.31234e+08
4.06029e+08
3.80571e+08
3.55099e+08
5.7345e+07
5.72919e+07
5.71724e+07
5.69809e+07
5.67163e+07
5.63789e+07
5.59699e+07
5.54903e+07
5.49411e+07
5.43234e+07
5.36387e+07
5.28888e+07
5.20754e+07
5.12008e+07
5.02671e+07
4.92769e+07
4.8233e+07
4.71386e+07
4.59968e+07
4.48111e+07
4.35853e+07
4.23231e+07
4.10285e+07
3.97057e+07
3.83585e+07
3.6991e+07
3.56072e+07
3.42114e+07
3.28078e+07
3.14007e+07
2.99945e+07
2.85935e+07
2.72021e+07
2.58247e+07
2.44656e+07
2.31292e+07
2.18198e+07
2.05419e+07
1.93002e+07
1.80993e+07
1.6944e+07
1.5839e+07
1.47893e+07
1.37998e+07
1.28756e+07
1.20221e+07
1.12444e+07
1.05481e+07
9.93829e+06
9.42059e+06
9.0004e+06
8.68317e+06
8.4743e+06
8.37902e+06
8.40244e+06
8.54944e+06
8.82457e+06
9.23207e+06
9.77575e+06
1.04588e+07
1.12841e+07
1.22535e+07
1.33686e+07
1.46299e+07
1.60374e+07
1.75902e+07
1.92867e+07
2.11245e+07
2.31004e+07
2.52107e+07
2.74507e+07
2.98152e+07
3.22985e+07
3.48941e+07
3.75953e+07
4.03952e+07
4.32862e+07
4.6261e+07
4.93117e+07
5.24304e+07
5.56091e+07
5.88398e+07
6.21142e+07
6.54241e+07
6.87609e+07
7.21159e+07
7.54803e+07
7.88445e+07
8.2199e+07
8.55336e+07
8.88376e+07
9.20998e+07
9.53089e+07
9.8453e+07
1.0152e+08
1.04497e+08
1.07374e+08
1.10138e+08
1.12779e+08
1.15288e+08
1.17656e+08
1.19875e+08
1.21939e+08
1.23843e+08
1.25585e+08
1.27162e+08
1.28575e+08
1.29825e+08
1.30919e+08
1.31864e+08
1.3267e+08
1.33346e+08
1.33906e+08
1.34362e+08
1.34731e+08
1.35027e+08
1.3527e+08
1.35478e+08
1.35676e+08
1.35886e+08
1.36137e+08
1.3646e+08
1.36889e+08
1.37461e+08
1.38217e+08
1.39205e+08
1.40474e+08
1.42077e+08
1.44072e+08
1.4652e+08
1.49482e+08
1.53019e+08
1.57189e+08
1.62045e+08
1.6764e+08
1.74016e+08
1.8121e+08
1.89249e+08
1.98147e+08
2.07907e+08
2.18523e+08
2.29976e+08
2.42243e+08
2.55285e+08
2.69056e+08
2.83501e+08
2.98566e+08
3.142e+08
3.30335e+08
3.46899e+08
3.63822e+08
3.81031e+08
3.9844e+08
4.15958e+08
4.33468e+08
4.50845e+08
4.67929e+08
4.84558e+08
5.00521e+08
5.15584e+08
5.29486e+08
5.41932e+08
5.52603e+08
5.61196e+08
5.67391e+08
5.70917e+08
5.71525e+08
5.69041e+08
5.6333e+08
5.54382e+08
5.42269e+08
5.27217e+08
5.09511e+08
4.89605e+08
4.67927e+08
4.44957e+08
4.21066e+08
3.96655e+08
3.71949e+08
3.47119e+08
5.44517e+07
5.44024e+07
5.42903e+07
5.41111e+07
5.38643e+07
5.35507e+07
5.31712e+07
5.27264e+07
5.2217e+07
5.16438e+07
5.10081e+07
5.0311e+07
4.95542e+07
4.87393e+07
4.78683e+07
4.69437e+07
4.59679e+07
4.49438e+07
4.38744e+07
4.27629e+07
4.16128e+07
4.04274e+07
3.92105e+07
3.79656e+07
3.66962e+07
3.54059e+07
3.40986e+07
3.27783e+07
3.1449e+07
3.01149e+07
2.87801e+07
2.74487e+07
2.61247e+07
2.48123e+07
2.35155e+07
2.22384e+07
2.09853e+07
1.97608e+07
1.85691e+07
1.74148e+07
1.63024e+07
1.52368e+07
1.42227e+07
1.32652e+07
1.23692e+07
1.15398e+07
1.07824e+07
1.01023e+07
9.5049e+06
8.99555e+06
8.57972e+06
8.26282e+06
8.05024e+06
7.94719e+06
7.95875e+06
8.08981e+06
8.34495e+06
8.72836e+06
9.24379e+06
9.89449e+06
1.06831e+07
1.16118e+07
1.26818e+07
1.38937e+07
1.52476e+07
1.67424e+07
1.83765e+07
2.01476e+07
2.20527e+07
2.40878e+07
2.62485e+07
2.85297e+07
3.09256e+07
3.34301e+07
3.60365e+07
3.87379e+07
4.15272e+07
4.4397e+07
4.73397e+07
5.03474e+07
5.34124e+07
5.65267e+07
5.96821e+07
6.28706e+07
6.60836e+07
6.93127e+07
7.25491e+07
7.57836e+07
7.90066e+07
8.22084e+07
8.53782e+07
8.85054e+07
9.15789e+07
9.4587e+07
9.75184e+07
1.00361e+08
1.03105e+08
1.05739e+08
1.08253e+08
1.10638e+08
1.12887e+08
1.14993e+08
1.16951e+08
1.18755e+08
1.20404e+08
1.21896e+08
1.23232e+08
1.24415e+08
1.25449e+08
1.26342e+08
1.27102e+08
1.2774e+08
1.28267e+08
1.28696e+08
1.2904e+08
1.29314e+08
1.29535e+08
1.29721e+08
1.29894e+08
1.30077e+08
1.30295e+08
1.30576e+08
1.30953e+08
1.31461e+08
1.3214e+08
1.33034e+08
1.34191e+08
1.35662e+08
1.37502e+08
1.39769e+08
1.4252e+08
1.45818e+08
1.49716e+08
1.54268e+08
1.59521e+08
1.65519e+08
1.72295e+08
1.79879e+08
1.88283e+08
1.97513e+08
2.07562e+08
2.18414e+08
2.30047e+08
2.42431e+08
2.55514e+08
2.69249e+08
2.8358e+08
2.98465e+08
3.1384e+08
3.29638e+08
3.45786e+08
3.62223e+08
3.78865e+08
3.95622e+08
4.12384e+08
4.29034e+08
4.45419e+08
4.61382e+08
4.76726e+08
4.91227e+08
5.04639e+08
5.16685e+08
5.27067e+08
5.35502e+08
5.41684e+08
5.45359e+08
5.46287e+08
5.44302e+08
5.39271e+08
5.31167e+08
5.2005e+08
5.0611e+08
4.8961e+08
4.70962e+08
4.5055e+08
4.28817e+08
4.06123e+08
3.82843e+08
3.59216e+08
3.35391e+08
5.09304e+07
5.08864e+07
5.07845e+07
5.06216e+07
5.03979e+07
5.01141e+07
4.97704e+07
4.93672e+07
4.89051e+07
4.83847e+07
4.78067e+07
4.7172e+07
4.6482e+07
4.57381e+07
4.49421e+07
4.40961e+07
4.32021e+07
4.22628e+07
4.12807e+07
4.02588e+07
3.92e+07
3.81074e+07
3.6984e+07
3.58329e+07
3.46573e+07
3.34604e+07
3.2246e+07
3.10177e+07
2.97792e+07
2.85344e+07
2.72869e+07
2.60404e+07
2.47987e+07
2.35655e+07
2.23447e+07
2.11403e+07
1.99563e+07
1.8797e+07
1.76664e+07
1.65691e+07
1.55095e+07
1.44922e+07
1.35218e+07
1.26034e+07
1.17418e+07
1.09421e+07
1.02095e+07
9.54941e+06
8.96705e+06
8.46788e+06
8.0573e+06
7.7407e+06
7.52345e+06
7.41074e+06
7.40763e+06
7.51896e+06
7.74926e+06
8.10268e+06
8.58293e+06
9.19324e+06
9.93628e+06
1.08141e+07
1.18279e+07
1.29784e+07
1.42655e+07
1.56881e+07
1.72446e+07
1.89329e+07
2.07498e+07
2.26916e+07
2.4754e+07
2.69318e+07
2.92195e+07
3.1611e+07
3.41e+07
3.66798e+07
3.93432e+07
4.20832e+07
4.48924e+07
4.77632e+07
5.06878e+07
5.36586e+07
5.66676e+07
5.97068e+07
6.27679e+07
6.58424e+07
6.89219e+07
7.19974e+07
7.50595e+07
7.80986e+07
8.11046e+07
8.40671e+07
8.69753e+07
8.98181e+07
9.25845e+07
9.52638e+07
9.78459e+07
1.00321e+08
1.0268e+08
1.04914e+08
1.07018e+08
1.08985e+08
1.10811e+08
1.12493e+08
1.14027e+08
1.15414e+08
1.16655e+08
1.17753e+08
1.18713e+08
1.19539e+08
1.20242e+08
1.20831e+08
1.21316e+08
1.21708e+08
1.22019e+08
1.22263e+08
1.22455e+08
1.22612e+08
1.22752e+08
1.22899e+08
1.23074e+08
1.23302e+08
1.23615e+08
1.24045e+08
1.2463e+08
1.25409e+08
1.26429e+08
1.27739e+08
1.2939e+08
1.31436e+08
1.33932e+08
1.36937e+08
1.40504e+08
1.44684e+08
1.49524e+08
1.55062e+08
1.61333e+08
1.68366e+08
1.76174e+08
1.84763e+08
1.94129e+08
2.04258e+08
2.15129e+08
2.26716e+08
2.38974e+08
2.51858e+08
2.65313e+08
2.79303e+08
2.9377e+08
3.08653e+08
3.23881e+08
3.39395e+08
3.55119e+08
3.70965e+08
3.86828e+08
4.026e+08
4.18138e+08
4.33293e+08
4.47881e+08
4.61694e+08
4.74494e+08
4.86031e+08
4.96035e+08
5.04236e+08
5.10355e+08
5.14151e+08
5.15398e+08
5.13944e+08
5.0966e+08
5.02504e+08
4.92521e+08
4.79863e+08
4.64771e+08
4.47605e+08
4.28703e+08
4.08471e+08
3.87235e+08
3.65348e+08
3.43056e+08
3.20522e+08
4.70039e+07
4.69669e+07
4.68775e+07
4.67338e+07
4.65362e+07
4.6285e+07
4.59804e+07
4.56227e+07
4.52121e+07
4.47488e+07
4.42333e+07
4.36665e+07
4.30495e+07
4.23833e+07
4.16694e+07
4.09096e+07
4.01057e+07
3.92596e+07
3.83738e+07
3.74508e+07
3.64929e+07
3.55026e+07
3.44825e+07
3.34352e+07
3.23636e+07
3.12706e+07
3.01596e+07
2.90339e+07
2.78968e+07
2.67515e+07
2.56013e+07
2.44497e+07
2.33e+07
2.21555e+07
2.102e+07
1.98971e+07
1.87907e+07
1.77047e+07
1.66431e+07
1.561e+07
1.46098e+07
1.36469e+07
1.27259e+07
1.18516e+07
1.10287e+07
1.02624e+07
9.55773e+06
8.92001e+06
8.35456e+06
7.86673e+06
7.46191e+06
7.14546e+06
6.92272e+06
6.79886e+06
6.77889e+06
6.86758e+06
7.06943e+06
7.38854e+06
7.82857e+06
8.39269e+06
9.08349e+06
9.90298e+06
1.08525e+07
1.19325e+07
1.3143e+07
1.4483e+07
1.59509e+07
1.75443e+07
1.92604e+07
2.10954e+07
2.30452e+07
2.51048e+07
2.72688e+07
2.95314e+07
3.18862e+07
3.4327e+07
3.68468e+07
3.94387e+07
4.20956e+07
4.48101e+07
4.75747e+07
5.03818e+07
5.32238e+07
5.60928e+07
5.89809e+07
6.18796e+07
6.47807e+07
6.76755e+07
7.05549e+07
7.34095e+07
7.62296e+07
7.90055e+07
8.17269e+07
8.43831e+07
8.69638e+07
8.94592e+07
9.18599e+07
9.4157e+07
9.63421e+07
9.84078e+07
1.00348e+08
1.02159e+08
1.03837e+08
1.05379e+08
1.06784e+08
1.08053e+08
1.09186e+08
1.10187e+08
1.1106e+08
1.1181e+08
1.12446e+08
1.12976e+08
1.13409e+08
1.13755e+08
1.14025e+08
1.14231e+08
1.14388e+08
1.14509e+08
1.1461e+08
1.14712e+08
1.14834e+08
1.15002e+08
1.15242e+08
1.15584e+08
1.16063e+08
1.16715e+08
1.17582e+08
1.1871e+08
1.20148e+08
1.21947e+08
1.24157e+08
1.26836e+08
1.30034e+08
1.33799e+08
1.38175e+08
1.43201e+08
1.48911e+08
1.55332e+08
1.62479e+08
1.70358e+08
1.78968e+08
1.88298e+08
1.98328e+08
2.09036e+08
2.20385e+08
2.32334e+08
2.4483e+08
2.57839e+08
2.71311e+08
2.85191e+08
2.99412e+08
3.13915e+08
3.2863e+08
3.43472e+08
3.58345e+08
3.73144e+08
3.87744e+08
4.01997e+08
4.15735e+08
4.28769e+08
4.4087e+08
4.51811e+08
4.61355e+08
4.69252e+08
4.75247e+08
4.7911e+08
4.80641e+08
4.79703e+08
4.76167e+08
4.69984e+08
4.61176e+08
4.49873e+08
4.36284e+08
4.20718e+08
4.03466e+08
3.84895e+08
3.6529e+08
3.44975e+08
3.24202e+08
3.03159e+08
4.28971e+07
4.28676e+07
4.27917e+07
4.26684e+07
4.24978e+07
4.22804e+07
4.20161e+07
4.17049e+07
4.13467e+07
4.09417e+07
4.04903e+07
3.99932e+07
3.94511e+07
3.88649e+07
3.82357e+07
3.75649e+07
3.68539e+07
3.61045e+07
3.53185e+07
3.44977e+07
3.36442e+07
3.27598e+07
3.18467e+07
3.09072e+07
2.99438e+07
2.89592e+07
2.79562e+07
2.69376e+07
2.59062e+07
2.4865e+07
2.38167e+07
2.27645e+07
2.17111e+07
2.06599e+07
1.96141e+07
1.85772e+07
1.75526e+07
1.6544e+07
1.55551e+07
1.45899e+07
1.36524e+07
1.2747e+07
1.18781e+07
1.10504e+07
1.02685e+07
9.53736e+06
8.86218e+06
8.2481e+06
7.70041e+06
7.22444e+06
6.82553e+06
6.50899e+06
6.28012e+06
6.14405e+06
6.10576e+06
6.16997e+06
6.34112e+06
6.62324e+06
7.01993e+06
7.53432e+06
8.16891e+06
8.92566e+06
9.80581e+06
1.081e+07
1.19379e+07
1.31889e+07
1.45611e+07
1.60523e+07
1.76596e+07
1.93795e+07
2.12078e+07
2.31398e+07
2.51702e+07
2.72935e+07
2.95035e+07
3.17941e+07
3.41587e+07
3.65906e+07
3.90829e+07
4.16284e+07
4.42199e+07
4.68502e+07
4.95118e+07
5.21969e+07
5.48979e+07
5.76068e+07
6.03153e+07
6.30152e+07
6.56974e+07
6.83532e+07
7.09733e+07
7.35484e+07
7.60688e+07
7.85248e+07
8.09067e+07
8.32056e+07
8.54129e+07
8.75206e+07
8.95212e+07
9.14083e+07
9.31765e+07
9.48224e+07
9.6343e+07
9.77373e+07
9.90048e+07
1.00146e+08
1.01163e+08
1.02059e+08
1.02838e+08
1.03504e+08
1.04066e+08
1.0453e+08
1.04904e+08
1.05197e+08
1.05419e+08
1.05581e+08
1.05695e+08
1.05773e+08
1.05829e+08
1.05881e+08
1.05946e+08
1.06047e+08
1.06208e+08
1.06457e+08
1.06823e+08
1.0734e+08
1.08045e+08
1.08982e+08
1.10195e+08
1.11733e+08
1.13644e+08
1.15981e+08
1.1879e+08
1.22118e+08
1.26008e+08
1.30497e+08
1.35618e+08
1.41399e+08
1.47854e+08
1.54993e+08
1.62814e+08
1.71312e+08
1.80469e+08
1.90267e+08
2.00673e+08
2.11652e+08
2.23158e+08
2.35158e+08
2.47604e+08
2.60448e+08
2.73626e+08
2.87085e+08
3.00755e+08
3.14554e+08
3.28395e+08
3.42182e+08
3.55796e+08
3.69095e+08
3.81926e+08
3.94118e+08
4.05458e+08
4.15739e+08
4.24751e+08
4.32271e+08
4.38072e+08
4.41935e+08
4.43686e+08
4.43205e+08
4.40364e+08
4.35108e+08
4.27442e+08
4.17485e+08
4.05404e+08
3.91464e+08
3.75909e+08
3.59067e+08
3.41174e+08
3.22532e+08
3.03381e+08
2.83947e+08
3.8823e+07
3.88009e+07
3.87384e+07
3.86351e+07
3.84914e+07
3.8307e+07
3.80819e+07
3.78159e+07
3.75089e+07
3.7161e+07
3.67725e+07
3.63437e+07
3.58751e+07
3.53672e+07
3.48211e+07
3.42375e+07
3.36178e+07
3.29631e+07
3.22748e+07
3.15543e+07
3.08031e+07
3.00227e+07
2.9215e+07
2.83819e+07
2.75255e+07
2.6648e+07
2.57519e+07
2.48394e+07
2.39129e+07
2.29748e+07
2.20277e+07
2.10741e+07
2.01167e+07
1.91584e+07
1.82021e+07
1.72508e+07
1.63077e+07
1.53763e+07
1.446e+07
1.35625e+07
1.26878e+07
1.18399e+07
1.10231e+07
1.02418e+07
9.50087e+06
8.805e+06
8.15926e+06
7.56876e+06
7.03872e+06
6.57444e+06
6.18119e+06
5.86426e+06
5.62885e+06
5.48008e+06
5.42286e+06
5.46188e+06
5.60151e+06
5.8457e+06
6.19799e+06
6.66141e+06
7.23844e+06
7.9309e+06
8.74005e+06
9.6664e+06
1.07098e+07
1.18692e+07
1.31432e+07
1.45294e+07
1.60249e+07
1.76263e+07
1.93296e+07
2.11302e+07
2.3023e+07
2.50026e+07
2.70632e+07
2.91987e+07
3.14029e+07
3.36692e+07
3.59911e+07
3.83617e+07
4.0774e+07
4.32211e+07
4.56956e+07
4.819e+07
5.0697e+07
5.32089e+07
5.57176e+07
5.82152e+07
6.06932e+07
6.31431e+07
6.55563e+07
6.79237e+07
7.02365e+07
7.2486e+07
7.46633e+07
7.67603e+07
7.87691e+07
8.0683e+07
8.24949e+07
8.41997e+07
8.57927e+07
8.72707e+07
8.86317e+07
8.98754e+07
9.10024e+07
9.20137e+07
9.29109e+07
9.36975e+07
9.43776e+07
9.49558e+07
9.54379e+07
9.58305e+07
9.61399e+07
9.63744e+07
9.65431e+07
9.66555e+07
9.67211e+07
9.67514e+07
9.67583e+07
9.67561e+07
9.67607e+07
9.67925e+07
9.68719e+07
9.70235e+07
9.72747e+07
9.7655e+07
9.81976e+07
9.89423e+07
9.99304e+07
1.01207e+08
1.02819e+08
1.04812e+08
1.07231e+08
1.10121e+08
1.13523e+08
1.17474e+08
1.22007e+08
1.27148e+08
1.32913e+08
1.39313e+08
1.4635e+08
1.54021e+08
1.62311e+08
1.71207e+08
1.8068e+08
1.90701e+08
2.01228e+08
2.12233e+08
2.23669e+08
2.35488e+08
2.47635e+08
2.60058e+08
2.72689e+08
2.85453e+08
2.98266e+08
3.11037e+08
3.23653e+08
3.35981e+08
3.47882e+08
3.59199e+08
3.69738e+08
3.79314e+08
3.87735e+08
3.9481e+08
4.00338e+08
4.0412e+08
4.06008e+08
4.05889e+08
4.03649e+08
3.99223e+08
3.92614e+08
3.8392e+08
3.73278e+08
3.60914e+08
3.47029e+08
3.319e+08
3.15728e+08
2.98783e+08
2.81296e+08
2.63519e+08
3.49685e+07
3.49533e+07
3.4903e+07
3.48184e+07
3.46995e+07
3.4546e+07
3.43576e+07
3.4134e+07
3.38751e+07
3.35808e+07
3.32512e+07
3.28863e+07
3.24865e+07
3.20522e+07
3.15838e+07
3.10822e+07
3.0548e+07
2.9982e+07
2.93853e+07
2.87589e+07
2.81039e+07
2.74216e+07
2.67132e+07
2.59804e+07
2.5225e+07
2.44486e+07
2.36534e+07
2.2841e+07
2.20136e+07
2.1173e+07
2.03216e+07
1.94615e+07
1.85951e+07
1.77248e+07
1.68533e+07
1.59833e+07
1.51177e+07
1.42595e+07
1.34122e+07
1.2579e+07
1.17638e+07
1.09705e+07
1.02032e+07
9.46622e+06
8.76415e+06
8.10176e+06
7.48395e+06
6.91576e+06
6.40234e+06
5.94892e+06
5.56072e+06
5.24296e+06
5.00081e+06
4.83936e+06
4.76344e+06
4.77767e+06
4.88636e+06
5.0934e+06
5.40221e+06
5.81573e+06
6.33635e+06
6.96585e+06
7.70537e+06
8.55536e+06
9.51559e+06
1.05851e+07
1.17624e+07
1.30451e+07
1.44303e+07
1.59147e+07
1.74944e+07
1.91649e+07
2.09213e+07
2.27584e+07
2.46705e+07
2.66518e+07
2.86963e+07
3.07977e+07
3.29495e+07
3.51453e+07
3.73784e+07
3.9642e+07
4.1929e+07
4.42323e+07
4.65447e+07
4.88588e+07
5.11669e+07
5.34614e+07
5.57343e+07
5.79775e+07
6.01831e+07
6.23424e+07
6.44476e+07
6.64907e+07
6.84636e+07
7.0359e+07
7.21701e+07
7.38906e+07
7.55149e+07
7.70386e+07
7.84576e+07
7.97691e+07
8.09725e+07
8.20675e+07
8.30552e+07
8.39368e+07
8.47144e+07
8.53911e+07
8.59708e+07
8.64582e+07
8.68584e+07
8.71766e+07
8.74182e+07
8.75902e+07
8.7701e+07
8.7759e+07
8.77723e+07
8.77506e+07
8.77043e+07
8.76452e+07
8.75878e+07
8.75492e+07
8.75471e+07
8.76028e+07
8.7741e+07
8.79883e+07
8.83747e+07
8.89357e+07
8.9709e+07
9.0736e+07
9.20589e+07
9.37208e+07
9.57643e+07
9.82321e+07
1.01164e+08
1.04598e+08
1.08563e+08
1.13086e+08
1.18187e+08
1.23877e+08
1.30161e+08
1.37039e+08
1.445e+08
1.52534e+08
1.61117e+08
1.70223e+08
1.79817e+08
1.89873e+08
2.00347e+08
2.11189e+08
2.2235e+08
2.33778e+08
2.45411e+08
2.57177e+08
2.68995e+08
2.80775e+08
2.92411e+08
3.03776e+08
3.14749e+08
3.25181e+08
3.349e+08
3.43739e+08
3.51525e+08
3.58093e+08
3.63272e+08
3.66884e+08
3.68807e+08
3.68938e+08
3.67173e+08
3.63451e+08
3.57774e+08
3.50217e+08
3.40895e+08
3.30001e+08
3.17693e+08
3.04204e+08
2.89701e+08
2.74419e+08
2.58577e+08
2.42451e+08
3.14853e+07
3.14756e+07
3.14361e+07
3.1368e+07
3.12713e+07
3.11454e+07
3.09901e+07
3.08048e+07
3.05893e+07
3.03434e+07
3.00669e+07
2.97598e+07
2.94221e+07
2.9054e+07
2.86558e+07
2.82278e+07
2.77705e+07
2.72845e+07
2.67702e+07
2.62285e+07
2.56601e+07
2.50661e+07
2.44473e+07
2.38051e+07
2.31407e+07
2.24556e+07
2.17514e+07
2.10294e+07
2.02913e+07
1.95389e+07
1.8774e+07
1.79983e+07
1.7214e+07
1.64233e+07
1.56284e+07
1.48318e+07
1.40361e+07
1.32442e+07
1.24591e+07
1.16841e+07
1.09228e+07
1.01789e+07
9.4563e+06
8.75931e+06
8.09238e+06
7.46016e+06
6.86749e+06
6.31931e+06
5.82069e+06
5.37678e+06
4.99274e+06
4.67374e+06
4.42492e+06
4.2513e+06
4.15767e+06
4.14857e+06
4.2282e+06
4.40037e+06
4.6684e+06
5.0351e+06
5.50275e+06
6.07307e+06
6.74707e+06
7.52514e+06
8.40698e+06
9.39157e+06
1.04773e+07
1.16619e+07
1.29424e+07
1.43155e+07
1.57773e+07
1.73237e+07
1.89496e+07
2.06502e+07
2.24198e+07
2.42528e+07
2.61434e+07
2.80855e+07
3.00729e+07
3.20993e+07
3.41584e+07
3.62437e+07
3.83482e+07
4.04652e+07
4.25878e+07
4.47088e+07
4.68209e+07
4.8917e+07
5.09896e+07
5.30308e+07
5.50335e+07
5.69898e+07
5.88924e+07
6.0734e+07
6.25075e+07
6.42065e+07
6.58247e+07
6.73569e+07
6.87985e+07
7.01458e+07
7.13957e+07
7.25459e+07
7.35962e+07
7.45466e+07
7.53986e+07
7.61536e+07
7.68136e+07
7.73817e+07
7.78616e+07
7.82577e+07
7.85745e+07
7.88161e+07
7.89875e+07
7.90949e+07
7.91451e+07
7.91454e+07
7.91033e+07
7.90264e+07
7.89244e+07
7.88071e+07
7.86873e+07
7.85795e+07
7.84987e+07
7.84635e+07
7.84955e+07
7.86191e+07
7.8861e+07
7.92528e+07
7.98284e+07
8.06244e+07
8.16798e+07
8.30351e+07
8.47303e+07
8.68057e+07
8.93004e+07
9.22498e+07
9.56846e+07
9.96311e+07
1.04111e+08
1.0914e+08
1.14722e+08
1.20863e+08
1.27553e+08
1.34787e+08
1.42545e+08
1.50804e+08
1.59535e+08
1.6871e+08
1.78291e+08
1.88228e+08
1.9847e+08
2.0897e+08
2.19669e+08
2.30495e+08
2.4137e+08
2.52204e+08
2.62895e+08
2.73328e+08
2.8339e+08
2.92942e+08
3.01837e+08
3.0992e+08
3.17038e+08
3.23047e+08
3.27807e+08
3.31159e+08
3.33008e+08
3.33266e+08
3.31842e+08
3.28684e+08
3.2379e+08
3.17219e+08
3.09068e+08
2.99496e+08
2.88634e+08
2.76666e+08
2.63734e+08
2.50036e+08
2.35778e+08
2.21247e+08
2.84833e+07
2.84778e+07
2.84469e+07
2.83927e+07
2.83149e+07
2.82129e+07
2.80861e+07
2.79341e+07
2.77563e+07
2.75525e+07
2.73223e+07
2.70654e+07
2.67817e+07
2.64712e+07
2.61338e+07
2.57697e+07
2.5379e+07
2.4962e+07
2.45191e+07
2.40506e+07
2.35571e+07
2.30392e+07
2.24977e+07
2.19335e+07
2.13476e+07
2.07412e+07
2.01153e+07
1.94712e+07
1.88101e+07
1.81335e+07
1.74429e+07
1.67399e+07
1.60262e+07
1.53037e+07
1.45746e+07
1.3841e+07
1.31054e+07
1.23703e+07
1.16387e+07
1.09137e+07
1.01986e+07
9.49708e+06
8.8129e+06
8.15021e+06
7.51336e+06
6.90692e+06
6.33565e+06
5.80442e+06
5.31821e+06
4.8821e+06
4.50121e+06
4.18067e+06
3.92553e+06
3.74076e+06
3.63107e+06
3.60089e+06
3.65438e+06
3.79521e+06
4.0266e+06
4.35124e+06
4.77128e+06
5.28827e+06
5.90316e+06
6.61619e+06
7.42694e+06
8.33434e+06
9.33667e+06
1.04316e+07
1.16163e+07
1.28873e+07
1.42407e+07
1.56724e+07
1.71776e+07
1.87514e+07
2.03884e+07
2.20831e+07
2.38297e+07
2.56224e+07
2.74551e+07
2.93218e+07
3.12164e+07
3.31327e+07
3.5064e+07
3.70039e+07
3.89457e+07
4.08826e+07
4.28077e+07
4.47142e+07
4.65952e+07
4.84434e+07
5.0252e+07
5.20141e+07
5.37228e+07
5.53716e+07
5.69542e+07
5.8465e+07
5.98986e+07
6.12507e+07
6.25177e+07
6.36963e+07
6.47843e+07
6.57802e+07
6.66837e+07
6.74953e+07
6.82166e+07
6.88492e+07
6.93949e+07
6.9857e+07
7.02388e+07