/*--------------------------------*- C++ -*----------------------------------*\
| =========                 |                                                 |
| \\      /  F ield         | OpenFOAM: The Open Source CFD Toolbox           |
|  \\    /   O peration     | Version:  dev                                   |
|   \\  /    A nd           | Web:      http://www.openfoam.org               |
|    \\/     M anipulation  |                                                 |
\*---------------------------------------------------------------------------*/
FoamFile
{
    version     2.0;
    format      ascii;
    class       volScalarField;
    object      rho;
    location    "9.148";
}
// * * * * * * * * * * * * * * * * * * * * * * * * * * * * * * * * * * * * * //

dimensions      [1 -3 0 0 0 0 0];

internalField   nonuniform List<scalar> 
12225
(
1.18521
1.1869
1.18801
1.18803
1.18801
1.18709
1.1863
1.18477
1.18342
1.18133
1.17955
1.17697
1.17482
1.1717
1.16936
1.16525
1.16436
1.15413
1.18485
1.18875
1.19156
1.1923
1.1934
1.1927
1.19283
1.19091
1.19025
1.18733
1.18622
1.18243
1.18111
1.1768
1.175
1.17084
1.16904
1.16402
1.18486
1.18886
1.19217
1.19253
1.1946
1.19341
1.19511
1.19244
1.19337
1.18965
1.18995
1.18539
1.18423
1.18024
1.17756
1.17405
1.1701
1.16771
1.18553
1.18829
1.19257
1.19163
1.19477
1.19223
1.19518
1.19199
1.19352
1.18926
1.19078
1.18648
1.18587
1.18031
1.17988
1.17344
1.17073
1.16873
1.1862
1.188
1.19315
1.1912
1.19452
1.19156
1.19494
1.19217
1.19307
1.18855
1.19047
1.18634
1.18669
1.1806
1.18194
1.17631
1.17518
1.16871
1.18641
1.18794
1.19322
1.19111
1.19376
1.19238
1.19532
1.19225
1.19179
1.18947
1.19064
1.18682
1.1856
1.18249
1.18129
1.17663
1.1769
1.1708
1.18665
1.18815
1.19254
1.19114
1.1932
1.19208
1.19478
1.19135
1.19104
1.18995
1.18999
1.18592
1.18463
1.1826
1.18012
1.17552
1.17494
1.17157
1.18669
1.18818
1.1927
1.19098
1.19353
1.1921
1.19363
1.19103
1.1913
1.18943
1.1887
1.18489
1.1836
1.18156
1.17955
1.17507
1.17381
1.17169
1.18706
1.18833
1.19236
1.19073
1.19327
1.19198
1.1927
1.1909
1.19065
1.18823
1.18718
1.18421
1.18232
1.18064
1.17851
1.17497
1.17376
1.17129
1.18744
1.1883
1.19225
1.19049
1.19271
1.19113
1.19171
1.18989
1.18916
1.18691
1.18596
1.18322
1.18166
1.17968
1.17733
1.17489
1.17281
1.17056
1.18749
1.18803
1.19179
1.1904
1.19201
1.19045
1.19053
1.18863
1.18785
1.18592
1.18469
1.182
1.17986
1.17789
1.17577
1.17292
1.17179
1.16881
1.18776
1.18838
1.19125
1.19016
1.19089
1.18947
1.18884
1.18704
1.18597
1.18419
1.18244
1.17998
1.17783
1.17523
1.17345
1.17107
1.16881
1.16654
1.18813
1.18869
1.1905
1.1894
1.18923
1.18792
1.18676
1.18513
1.18357
1.18167
1.17955
1.17718
1.17511
1.17267
1.17022
1.16827
1.16631
1.16369
1.18879
1.18905
1.18955
1.18838
1.18749
1.18613
1.18451
1.18284
1.18087
1.17876
1.17646
1.17424
1.17177
1.16938
1.16721
1.16477
1.16223
1.16013
1.1896
1.18914
1.18881
1.1874
1.18587
1.18418
1.18209
1.18007
1.17774
1.17541
1.1729
1.17051
1.16797
1.16559
1.16319
1.16082
1.15852
1.15621
1.19068
1.18899
1.18806
1.1862
1.18409
1.18184
1.17927
1.17682
1.17428
1.17176
1.1692
1.1667
1.16413
1.16171
1.15919
1.1568
1.15454
1.15227
1.19191
1.18871
1.18736
1.18503
1.18264
1.1801
1.17731
1.17447
1.17163
1.16879
1.1659
1.16324
1.16076
1.1581
1.15553
1.15325
1.15088
1.14868
1.19276
1.18862
1.18711
1.18454
1.182
1.17921
1.17617
1.17316
1.17037
1.16724
1.16395
1.16145
1.15922
1.15633
1.15367
1.15152
1.14928
1.14724
1.1937
1.18872
1.18728
1.18494
1.1825
1.17979
1.17668
1.17367
1.17113
1.16805
1.16429
1.16181
1.15994
1.15687
1.15408
1.15216
1.1497
1.14768
1.19425
1.18909
1.18799
1.18581
1.18352
1.18095
1.17787
1.17479
1.17253
1.16984
1.16594
1.16317
1.16156
1.15876
1.156
1.15396
1.15104
1.14888
1.19495
1.18953
1.18885
1.18685
1.18472
1.18229
1.17933
1.17605
1.17416
1.17222
1.16817
1.16477
1.1634
1.16099
1.15872
1.15651
1.153
1.15054
1.19489
1.1895
1.18929
1.18764
1.18557
1.18366
1.1811
1.17796
1.17577
1.17402
1.17037
1.16706
1.16516
1.1628
1.16088
1.15839
1.15554
1.15315
1.1955
1.18975
1.18974
1.1885
1.1867
1.18464
1.18266
1.17993
1.17709
1.17491
1.1725
1.16957
1.16724
1.1647
1.16185
1.15965
1.15721
1.15489
1.19532
1.19
1.19012
1.18911
1.1876
1.18551
1.18347
1.18138
1.17863
1.17589
1.17366
1.17123
1.16897
1.16635
1.16347
1.16106
1.15863
1.15645
1.19541
1.19
1.19038
1.18955
1.18824
1.18635
1.18435
1.18237
1.17996
1.17717
1.17476
1.17242
1.1698
1.1673
1.16492
1.16227
1.15994
1.15753
1.19537
1.1901
1.19064
1.18987
1.18854
1.18685
1.18494
1.18269
1.18033
1.17809
1.17558
1.17294
1.1705
1.16796
1.16551
1.16309
1.16061
1.15822
1.19539
1.19021
1.19076
1.19001
1.1888
1.18725
1.18535
1.1832
1.18091
1.17848
1.17606
1.17358
1.17103
1.16849
1.16591
1.16337
1.16087
1.15839
1.19585
1.19041
1.19097
1.19024
1.18906
1.18757
1.18581
1.18376
1.18151
1.17907
1.17651
1.17385
1.17113
1.16837
1.16563
1.16292
1.16029
1.15779
1.19558
1.19038
1.19101
1.19034
1.18921
1.18771
1.18586
1.18367
1.18122
1.17851
1.17567
1.17273
1.16982
1.16696
1.16425
1.16167
1.15929
1.15708
1.19858
1.19218
1.19142
1.18985
1.18806
1.18599
1.18364
1.18107
1.17835
1.17555
1.17272
1.1699
1.16715
1.16447
1.1619
1.15944
1.15714
1.15507
1.17397
1.19259
1.18784
1.18772
1.18105
1.17755
1.17375
1.17177
1.1705
1.16992
1.16964
1.1691
1.1686
1.16789
1.16703
1.16626
1.16533
1.1645
1.16417
1.16476
1.16527
1.16514
1.16525
1.16555
1.16555
1.16635
1.16833
1.16915
1.1684
1.16897
1.17122
1.17157
1.17072
1.17399
1.17567
1.17396
1.17763
1.17755
1.17515
1.18061
1.17615
1.17165
1.18233
1.18306
1.17385
1.17082
1.17383
1.17835
1.18136
1.18257
1.18327
1.18485
1.18722
1.18821
1.18603
1.18011
1.17345
1.17309
1.18241
1.19222
1.1967
1.20132
1.20548
1.2133
1.22393
1.23023
1.22916
1.22696
1.2264
1.22887
1.23014
1.2218
1.22294
1.23587
1.22533
1.20841
1.21656
1.23358
1.24631
1.25535
1.2623
1.26824
1.27374
1.27911
1.28449
1.28983
1.29509
1.30018
1.30532
1.31084
1.31708
1.32406
1.33128
1.3381
1.34428
1.34956
1.35343
1.35828
1.36544
1.37251
1.37906
1.38317
1.38784
1.39181
1.39686
1.39932
1.40216
1.40331
1.40592
1.40892
1.40948
1.40912
1.41229
1.41678
1.4187
1.4177
1.41815
1.42265
1.42729
1.43215
1.44212
1.4551
1.45789
1.44909
1.44768
1.45308
1.45482
1.4593
1.47679
1.4881
1.48184
1.48196
1.49253
1.5037
1.50115
1.48261
1.47273
1.47567
1.48804
1.51366
1.52643
1.52776
1.52403
1.53342
1.54427
1.56025
1.58528
1.60924
1.61178
1.61362
1.62421
1.64903
1.66952
1.69897
1.76124
1.82566
1.81701
1.79389
1.81113
1.832
1.87375
1.90054
1.91157
1.91542
1.91858
1.91409
1.91279
1.91172
1.93562
1.91442
1.88402
1.88922
1.84842
1.88205
1.86595
1.79952
1.74012
1.68535
1.64061
1.60589
1.17588
1.21588
1.20596
1.19404
1.18215
1.16925
1.15995
1.15582
1.15405
1.15362
1.15397
1.15392
1.15348
1.15297
1.15221
1.1516
1.15104
1.15061
1.15096
1.15372
1.15757
1.16024
1.16233
1.16452
1.1656
1.16733
1.17278
1.17515
1.17178
1.17548
1.18028
1.17499
1.1773
1.18587
1.18363
1.1846
1.19007
1.18681
1.18849
1.18969
1.18435
1.18678
1.18144
1.17709
1.1805
1.17158
1.17412
1.18806
1.1944
1.19726
1.20225
1.21022
1.21224
1.20751
1.20411
1.20327
1.20295
1.20306
1.20838
1.2125
1.21145
1.21716
1.21098
1.21185
1.23033
1.23823
1.23611
1.23119
1.23706
1.25368
1.24598
1.2292
1.23439
1.24647
1.25413
1.26245
1.27153
1.27746
1.28145
1.28437
1.28655
1.28919
1.29203
1.29526
1.29836
1.30054
1.30229
1.30423
1.30727
1.31196
1.31805
1.32443
1.33039
1.33519
1.33984
1.34361
1.34287
1.34777
1.35492
1.3632
1.37111
1.37819
1.38169
1.38343
1.39557
1.39559
1.40417
1.39985
1.40784
1.42583
1.42966
1.41089
1.412
1.43665
1.45723
1.44841
1.43895
1.45771
1.47674
1.46456
1.46723
1.53007
1.53694
1.45753
1.40715
1.40808
1.42116
1.43352
1.46313
1.52425
1.59676
1.6401
1.65005
1.65589
1.64181
1.57366
1.52704
1.52152
1.54099
1.57898
1.61624
1.61328
1.60801
1.62098
1.63122
1.64202
1.65643
1.65851
1.68471
1.70094
1.7113
1.7573
1.79378
1.87025
1.99861
2.02212
2.01218
2.00426
2.04213
2.08557
2.15328
2.18671
2.20403
2.21312
2.2062
2.18382
2.17624
2.18389
2.23814
2.21456
2.18699
2.23055
2.18432
2.21182
2.02058
2.10142
2.03979
1.96546
1.87806
1.80727
1.16236
1.21108
1.22165
1.21379
1.1953
1.172
1.15688
1.15116
1.1514
1.1537
1.15561
1.1556
1.15404
1.15372
1.15468
1.15645
1.15988
1.16313
1.16688
1.17187
1.17679
1.18047
1.18204
1.18323
1.18505
1.18567
1.18602
1.18757
1.18753
1.18773
1.18981
1.18842
1.1928
1.20092
1.19716
1.19861
1.20788
1.20632
1.21142
1.2163
1.21408
1.21869
1.213
1.2075
1.20446
1.18932
1.18291
1.1809
1.17572
1.18484
1.20458
1.21574
1.21649
1.21432
1.21208
1.205
1.20376
1.20783
1.21078
1.21146
1.20533
1.21638
1.21974
1.2186
1.22786
1.22854
1.2242
1.22748
1.23375
1.23928
1.24342
1.24898
1.25505
1.2563
1.25674
1.2573
1.25654
1.25589
1.25541
1.25594
1.25717
1.25944
1.26183
1.26483
1.26785
1.27103
1.27388
1.27647
1.27845
1.28075
1.28357
1.28761
1.29212
1.29604
1.2991
1.30361
1.30436
1.31114
1.31031
1.31562
1.31745
1.32316
1.32587
1.32315
1.33449
1.33173
1.34321
1.33663
1.33374
1.35619
1.37878
1.35167
1.32399
1.36086
1.42939
1.41928
1.37152
1.41223
1.47872
1.44166
1.41264
1.52379
1.55574
1.45421
1.37889
1.34509
1.32276
1.31
1.33777
1.40553
1.52841
1.65071
1.72728
1.74134
1.69511
1.60325
1.53417
1.52099
1.5377
1.55321
1.5718
1.57569
1.62958
1.65006
1.65863
1.64822
1.62198
1.57325
1.62514
1.67465
1.70544
1.75522
1.80956
1.90875
2.00209
1.97135
1.9076
1.97516
2.05273
2.13627
2.14958
2.12309
2.14087
2.20351
2.23473
2.24686
2.24183
2.28128
2.29259
2.26581
2.2693
2.25216
2.26715
2.04371
1.60595
1.97696
2.0766
2.16024
2.11399
2.03379
1.15207
1.19658
1.22291
1.22682
1.20778
1.17668
1.15852
1.15291
1.1545
1.15842
1.16031
1.15752
1.15337
1.15571
1.16304
1.16973
1.17544
1.1783
1.18013
1.18085
1.18009
1.17803
1.17549
1.17382
1.17344
1.17208
1.17062
1.17141
1.17316
1.17256
1.1719
1.17278
1.17416
1.17306
1.17037
1.17756
1.18341
1.18178
1.1961
1.20987
1.21091
1.225
1.23169
1.22467
1.22585
1.22185
1.20577
1.19373
1.18966
1.18237
1.18368
1.20192
1.21488
1.21256
1.20421
1.19804
1.20601
1.21427
1.21382
1.21299
1.21895
1.22326
1.22145
1.22507
1.23315
1.24315
1.24732
1.24037
1.24182
1.24087
1.2408
1.23995
1.23838
1.23774
1.239
1.23997
1.24165
1.24439
1.24754
1.25237
1.25724
1.26191
1.26671
1.27047
1.27552
1.28041
1.28585
1.29056
1.29446
1.29812
1.30047
1.3051
1.30822
1.31353
1.31318
1.31589
1.31679
1.32269
1.32224
1.32704
1.32709
1.32803
1.33099
1.32373
1.33433
1.33359
1.3351
1.33851
1.33343
1.32926
1.34808
1.35746
1.30698
1.29118
1.38775
1.40964
1.3191
1.34558
1.45716
1.41636
1.37633
1.47521
1.51683
1.48846
1.47256
1.44023
1.41309
1.37899
1.34667
1.35229
1.4484
1.5961
1.71563
1.75489
1.70654
1.60621
1.54207
1.54515
1.54897
1.54182
1.50828
1.50485
1.59134
1.60786
1.64388
1.65857
1.61873
1.55224
1.58195
1.63206
1.69078
1.72783
1.79396
1.88825
1.96791
1.97755
1.83559
1.9219
1.97943
2.08386
2.04288
1.97416
1.96632
2.03543
2.10981
2.21448
2.2284
2.3009
2.2528
2.19928
2.22049
2.11629
2.1471
1.74887
1.49313
1.78736
1.84353
2.20137
2.21255
2.16671
1.14621
1.18386
1.21632
1.22411
1.19909
1.16746
1.15339
1.15068
1.153
1.15461
1.152
1.15034
1.15536
1.16892
1.18212
1.18403
1.17849
1.17351
1.17079
1.1686
1.16854
1.16951
1.17114
1.17148
1.17225
1.17306
1.17458
1.17634
1.17881
1.17754
1.17617
1.17806
1.1764
1.17424
1.17107
1.16721
1.16639
1.16483
1.16916
1.18047
1.18914
1.20107
1.21576
1.22394
1.22917
1.2261
1.21719
1.21132
1.19886
1.18589
1.18458
1.18079
1.18749
1.20863
1.21398
1.20933
1.20964
1.23168
1.22981
1.2079
1.21826
1.21983
1.20975
1.21635
1.23058
1.22654
1.23064
1.22998
1.22598
1.22394
1.22389
1.22569
1.22957
1.23606
1.24104
1.24532
1.2493
1.25168
1.25457
1.25679
1.25897
1.26078
1.26294
1.26488
1.26808
1.27126
1.27482
1.27813
1.28038
1.28442
1.28585
1.29127
1.29335
1.29722
1.2982
1.30203
1.30324
1.3082
1.30515
1.30882
1.30997
1.31736
1.32387
1.31271
1.31663
1.32486
1.32517
1.32158
1.32803
1.33109
1.31835
1.34471
1.35493
1.29877
1.33944
1.39725
1.33732
1.28978
1.37162
1.3996
1.38628
1.43062
1.45868
1.46166
1.47767
1.47971
1.50314
1.49824
1.42383
1.35852
1.39423
1.53043
1.66193
1.71792
1.6818
1.59934
1.54519
1.55136
1.55582
1.5674
1.5658
1.48337
1.52626
1.54809
1.58793
1.61586
1.59404
1.54114
1.55103
1.6047
1.69322
1.68862
1.76596
1.87635
1.93928
1.87125
1.70326
1.88515
1.89714
1.99871
1.90564
1.84668
1.88595
1.93561
1.94424
2.08652
2.16395
2.27069
2.18868
2.10704
2.12569
2.02625
1.99869
1.67957
1.78156
1.79576
1.56847
2.1367
2.19765
2.16632
1.14171
1.17272
1.20263
1.20151
1.17153
1.15224
1.14831
1.15003
1.15164
1.15163
1.15572
1.16898
1.18577
1.1911
1.17705
1.16125
1.15957
1.16633
1.17215
1.17512
1.176
1.17521
1.17401
1.17148
1.16993
1.16926
1.17081
1.17268
1.17693
1.1807
1.18275
1.18746
1.1891
1.18638
1.1874
1.18051
1.17387
1.17455
1.17156
1.17009
1.18008
1.19055
1.19716
1.20653
1.2188
1.22788
1.22855
1.22036
1.21461
1.206
1.19433
1.18377
1.18599
1.18466
1.18524
1.21024
1.21454
1.2254
1.2316
1.21076
1.21492
1.22752
1.21479
1.22307
1.23496
1.22218
1.215
1.21116
1.2099
1.21627
1.2223
1.23042
1.23775
1.24274
1.24424
1.24503
1.24382
1.24177
1.24109
1.24021
1.24102
1.24344
1.24605
1.25008
1.25304
1.25735
1.25957
1.26518
1.2671
1.2731
1.2751
1.28013
1.28395
1.28682
1.28687
1.2939
1.29178
1.30081
1.29736
1.30438
1.29658
1.30542
1.30549
1.30839
1.3051
1.30268
1.30947
1.31401
1.30004
1.31245
1.31569
1.29711
1.32154
1.31369
1.30355
1.33539
1.3615
1.31057
1.30206
1.34495
1.36525
1.39439
1.41583
1.426
1.42124
1.44311
1.50454
1.49896
1.42234
1.35728
1.34482
1.45754
1.58671
1.67941
1.63983
1.58533
1.52973
1.47494
1.50863
1.51256
1.55357
1.51396
1.49329
1.50505
1.54164
1.5712
1.57308
1.53311
1.51889
1.59855
1.72179
1.63096
1.71838
1.86939
1.8906
1.7838
1.55703
1.79995
1.75534
1.91148
1.75254
1.65564
1.73702
1.89108
1.87379
1.93715
2.05972
2.20966
2.13187
2.03637
2.03935
1.97689
1.92165
1.73189
1.93255
1.89254
1.55143
2.01895
2.15062
2.11858
1.13729
1.16033
1.18023
1.16937
1.15056
1.147
1.14889
1.15065
1.15344
1.1613
1.17664
1.18622
1.17321
1.15349
1.15541
1.17073
1.17443
1.1678
1.16127
1.15576
1.1516
1.14908
1.14732
1.14801
1.1494
1.15158
1.15407
1.15703
1.16214
1.16824
1.17236
1.17493
1.17906
1.18052
1.18376
1.18522
1.18031
1.18115
1.18422
1.18127
1.1819
1.18838
1.19213
1.19808
1.20731
1.21745
1.22348
1.21499
1.21694
1.21946
1.20785
1.18753
1.18643
1.18764
1.18126
1.19144
1.18291
1.18997
1.22013
1.21026
1.19951
1.22229
1.22323
1.223
1.22791
1.21072
1.20179
1.20788
1.21806
1.22962
1.23457
1.23699
1.23672
1.2345
1.23053
1.22762
1.22094
1.21692
1.21439
1.21378
1.21567
1.21981
1.22361
1.22917
1.23209
1.23679
1.23912
1.24574
1.24996
1.25677
1.25615
1.25868
1.26118
1.26513
1.26762
1.278
1.2793
1.28252
1.28301
1.29219
1.2883
1.3009
1.29449
1.29752
1.30009
1.305
1.28965
1.30463
1.31071
1.28654
1.30206
1.30697
1.29408
1.29379
1.30295
1.28934
1.31452
1.30665
1.28789
1.3127
1.30417
1.33064
1.37985
1.3688
1.28988
1.33844
1.45456
1.43397
1.35909
1.31195
1.3042
1.42063
1.5289
1.61128
1.60509
1.61297
1.57138
1.36776
1.33969
1.45173
1.50382
1.45226
1.45305
1.46298
1.50235
1.52972
1.546
1.52332
1.49112
1.58983
1.68946
1.59299
1.65392
1.79322
1.82455
1.6958
1.47742
1.64586
1.58935
1.81571
1.68299
1.57232
1.58993
1.75236
1.83765
1.82871
1.92787
2.13034
2.07738
1.97906
1.96586
1.93129
1.9363
1.77055
1.87939
1.91323
1.72064
1.83912
2.09381
2.06654
1.13321
1.14806
1.15823
1.14953
1.145
1.14649
1.14826
1.15174
1.16238
1.18303
1.19111
1.17479
1.16552
1.17058
1.15837
1.13746
1.13455
1.13865
1.13899
1.1409
1.14498
1.1489
1.15115
1.15376
1.1539
1.1545
1.15488
1.15603
1.15865
1.16332
1.16867
1.17307
1.1771
1.1814
1.18415
1.19189
1.19966
1.20292
1.20751
1.21317
1.216
1.21756
1.2166
1.21662
1.21648
1.2215
1.22759
1.22145
1.21853
1.21521
1.22233
1.21848
1.20454
1.19309
1.17801
1.1857
1.18729
1.18077
1.19811
1.20105
1.19667
1.21327
1.21865
1.21862
1.21827
1.20187
1.20104
1.21825
1.22962
1.23047
1.22487
1.22343
1.22059
1.21818
1.21231
1.20625
1.19787
1.19495
1.19512
1.19911
1.2048
1.21119
1.21681
1.22181
1.22354
1.22132
1.21801
1.2189
1.21874
1.2315
1.23174
1.23702
1.2471
1.2513
1.25445
1.25788
1.25816
1.2609
1.26174
1.26788
1.26938
1.28065
1.2813
1.29236
1.28514
1.2946
1.29508
1.27489
1.2979
1.29827
1.27571
1.29106
1.29867
1.27791
1.29191
1.27713
1.29268
1.2879
1.28252
1.29729
1.25126
1.28215
1.37154
1.31561
1.17693
1.22273
1.37637
1.37347
1.31255
1.25218
1.31163
1.40614
1.47667
1.55653
1.55131
1.62252
1.49902
1.25488
1.1832
1.30607
1.44382
1.39979
1.4099
1.43137
1.47671
1.48451
1.52036
1.52087
1.4868
1.56389
1.61776
1.57218
1.64971
1.74439
1.77209
1.64095
1.50187
1.51341
1.54221
1.67603
1.67398
1.63751
1.62155
1.64885
1.76117
1.76251
1.78579
2.02639
2.04546
1.93754
1.9031
1.8823
1.97334
1.84427
1.87748
1.90213
1.67035
1.70335
2.03242
2.01931
1.13027
1.13921
1.14431
1.14162
1.14329
1.14872
1.15758
1.17332
1.18569
1.17774
1.15306
1.13293
1.13196
1.1459
1.15606
1.15113
1.14372
1.14509
1.14929
1.14977
1.14947
1.14886
1.14742
1.14869
1.14745
1.14691
1.14678
1.14694
1.14892
1.15281
1.15916
1.16651
1.17253
1.17911
1.18544
1.18872
1.19606
1.20375
1.20713
1.20866
1.2077
1.20732
1.20521
1.20539
1.20701
1.21331
1.21631
1.21572
1.22173
1.22405
1.24258
1.23855
1.22542
1.23166
1.20844
1.19812
1.19569
1.18146
1.19598
1.20204
1.20003
1.2135
1.21556
1.21447
1.214
1.20055
1.20498
1.22431
1.2257
1.21865
1.21508
1.2184
1.21643
1.20873
1.19797
1.18822
1.1824
1.18621
1.19463
1.20427
1.21146
1.21648
1.22247
1.22752
1.23335
1.23603
1.23201
1.23474
1.22738
1.23781
1.23572
1.23821
1.2477
1.25346
1.25841
1.26078
1.25771
1.26018
1.25159
1.25884
1.25851
1.26923
1.27011
1.27493
1.28713
1.27121
1.28171
1.27844
1.26468
1.28054
1.27517
1.26285
1.27775
1.2721
1.27641
1.26613
1.28047
1.26299
1.27492
1.28516
1.21971
1.26098
1.35879
1.27768
1.18265
1.21258
1.31238
1.29575
1.25694
1.22181
1.3369
1.35978
1.43426
1.53157
1.49861
1.54992
1.32923
1.25707
1.25494
1.31787
1.37473
1.31725
1.36128
1.40562
1.46459
1.47441
1.49578
1.49422
1.48275
1.54306
1.5703
1.53603
1.64277
1.71153
1.73816
1.62389
1.57859
1.5253
1.64235
1.55164
1.6059
1.65469
1.67695
1.6463
1.64464
1.71168
1.6765
1.88492
2.00973
1.92441
1.86721
1.83399
1.94757
1.83751
1.83649
1.90965
1.57811
1.66072
1.95861
1.96859
1.12867
1.13519
1.13978
1.14295
1.15049
1.15574
1.16614
1.1863
1.1917
1.16624
1.14621
1.15612
1.15664
1.13172
1.12711
1.14416
1.145
1.1372
1.13711
1.1379
1.14057
1.13828
1.14011
1.14471
1.1451
1.14737
1.14707
1.1453
1.14462
1.14497
1.14811
1.15328
1.15944
1.16354
1.16876
1.17384
1.17579
1.18026
1.18527
1.18764
1.1898
1.19034
1.19067
1.19051
1.1904
1.19354
1.19602
1.20263
1.21071
1.21429
1.23062
1.22482
1.23112
1.25655
1.23617
1.23112
1.22173
1.19945
1.20807
1.20623
1.20129
1.21161
1.21115
1.20887
1.20732
1.20067
1.20969
1.22328
1.21509
1.20726
1.21321
1.2141
1.20239
1.18518
1.17513
1.17146
1.17754
1.18876
1.20161
1.20935
1.20953
1.20566
1.20609
1.20641
1.20916
1.21668
1.21944
1.23517
1.23428
1.24634
1.24422
1.24071
1.24368
1.25067
1.24564
1.25213
1.25069
1.25247
1.24406
1.24079
1.26147
1.25104
1.2666
1.26971
1.27556
1.27758
1.2615
1.26398
1.26429
1.2574
1.26564
1.25616
1.25219
1.26282
1.26437
1.2481
1.26448
1.24073
1.26107
1.26716
1.21284
1.2436
1.31372
1.25956
1.24394
1.28802
1.30549
1.26005
1.22289
1.22316
1.3395
1.28512
1.41609
1.48174
1.46985
1.42921
1.2433
1.22824
1.35272
1.39988
1.33871
1.27347
1.33674
1.41684
1.50009
1.4881
1.46878
1.46625
1.47858
1.5137
1.51522
1.52875
1.57491
1.64064
1.70733
1.58114
1.58583
1.5672
1.64375
1.55425
1.56657
1.59479
1.63938
1.66592
1.55077
1.62663
1.61668
1.72625
1.92019
1.91414
1.8519
1.81047
1.92374
1.74914
1.70031
1.83681
1.58679
1.6202
1.88588
1.91178
1.12756
1.13196
1.13554
1.14264
1.15167
1.16393
1.18302
1.18378
1.16136
1.13985
1.1386
1.148
1.14171
1.13503
1.13983
1.13565
1.13726
1.14745
1.14392
1.14469
1.14892
1.14445
1.1488
1.15042
1.15039
1.1543
1.15324
1.1519
1.14882
1.14532
1.1437
1.14521
1.15044
1.15663
1.16174
1.16729
1.17148
1.17321
1.17597
1.17896
1.18048
1.18213
1.18317
1.18331
1.18447
1.18457
1.18422
1.18825
1.19097
1.19481
1.21091
1.20938
1.22495
1.24338
1.23296
1.2396
1.22416
1.2105
1.21424
1.20481
1.20312
1.20927
1.20388
1.20334
1.20291
1.19765
1.20483
1.21168
1.20234
1.20488
1.21337
1.20141
1.18404
1.1713
1.17649
1.18229
1.19156
1.19848
1.20388
1.2039
1.19831
1.19369
1.19635
1.19597
1.19721
1.19934
1.1917
1.20209
1.20849
1.21942
1.22628
1.22714
1.22065
1.23767
1.2319
1.23366
1.24763
1.24305
1.25546
1.23236
1.25771
1.26169
1.25033
1.26683
1.26719
1.26119
1.26541
1.24748
1.24706
1.24287
1.24183
1.24512
1.23735
1.24578
1.24965
1.23035
1.25815
1.22942
1.2271
1.25765
1.22343
1.20034
1.26632
1.26596
1.22263
1.27205
1.27159
1.25307
1.218
1.21527
1.31703
1.22659
1.40765
1.42073
1.44725
1.34685
1.245
1.15487
1.25615
1.33959
1.26515
1.23586
1.32989
1.4287
1.47376
1.42709
1.43133
1.43938
1.46621
1.48353
1.48567
1.49671
1.45309
1.54795
1.6545
1.55447
1.55457
1.53084
1.51544
1.59442
1.5898
1.56535
1.57243
1.64864
1.51082
1.52118
1.58749
1.59666
1.80948
1.88895
1.83432
1.76507
1.92804
1.70302
1.61537
1.74571
1.52207
1.57946
1.82525
1.85523
1.12771
1.13356
1.14309
1.15593
1.16611
1.17608
1.18235
1.17257
1.14724
1.13583
1.14663
1.14373
1.13263
1.13993
1.14543
1.14623
1.14913
1.14647
1.14381
1.14772
1.14566
1.14459
1.1444
1.14363
1.14513
1.14863
1.15081
1.15436
1.15538
1.15425
1.15176
1.14936
1.14939
1.15322
1.15907
1.16599
1.17312
1.1788
1.1819
1.18365
1.18472
1.18519
1.18453
1.18354
1.18312
1.1838
1.18191
1.18118
1.1808
1.17906
1.18869
1.18686
1.20189
1.21241
1.2162
1.23242
1.21968
1.21497
1.21059
1.20208
1.20593
1.20719
1.19965
1.2007
1.20136
1.19458
1.19869
1.2082
1.20316
1.20788
1.20482
1.18306
1.17492
1.17492
1.19038
1.19757
1.20224
1.20435
1.20518
1.20454
1.20206
1.20463
1.21461
1.21768
1.22383
1.2308
1.22199
1.21857
1.2206
1.21841
1.21442
1.21925
1.21416
1.22475
1.23765
1.23357
1.24411
1.24452
1.24375
1.24869
1.24322
1.25707
1.2603
1.24682
1.26358
1.2503
1.24483
1.24566
1.23625
1.23374
1.2316
1.23217
1.22172
1.22844
1.23783
1.20067
1.2419
1.2347
1.18889
1.24619
1.23737
1.165
1.23164
1.26082
1.18255
1.22255
1.2282
1.2483
1.20467
1.18816
1.26331
1.18069
1.38064
1.37848
1.41786
1.32578
1.23024
1.17951
1.22452
1.26223
1.21175
1.21327
1.30933
1.38413
1.3879
1.38533
1.41941
1.42165
1.43385
1.44784
1.46935
1.43339
1.31284
1.44474
1.57823
1.59522
1.55648
1.52091
1.52496
1.5466
1.54906
1.5721
1.53297
1.6114
1.53966
1.45278
1.57909
1.49745
1.69435
1.82832
1.77899
1.6649
1.87799
1.64452
1.55006
1.67226
1.47091
1.5425
1.77086
1.79884
1.12779
1.13361
1.14319
1.15254
1.15881
1.1724
1.1778
1.15526
1.13734
1.13843
1.13976
1.13848
1.13629
1.13888
1.14598
1.14376
1.13971
1.14011
1.13782
1.13868
1.14387
1.14584
1.1432
1.14327
1.14212
1.14202
1.14595
1.14958
1.15352
1.15568
1.15572
1.15431
1.15225
1.15251
1.15541
1.16133
1.16832
1.17554
1.18161
1.18582
1.18723
1.18633
1.18306
1.17655
1.17209
1.17254
1.17313
1.17582
1.17992
1.17977
1.18496
1.17697
1.18338
1.18901
1.19818
1.21349
1.20743
1.217
1.21167
1.20328
1.20554
1.19967
1.19408
1.1972
1.1943
1.18607
1.19192
1.20357
1.19699
1.19743
1.18705
1.1747
1.18292
1.19073
1.20253
1.2049
1.20703
1.20851
1.20745
1.20715
1.20676
1.20958
1.21215
1.2064
1.20563
1.20621
1.2058
1.20778
1.21389
1.21522
1.21512
1.2168
1.22287
1.21903
1.22833
1.24398
1.23351
1.24511
1.23913
1.23441
1.24837
1.22806
1.23504
1.22852
1.22457
1.2338
1.21864
1.22106
1.22446
1.21887
1.22092
1.22428
1.20583
1.21199
1.23933
1.18978
1.21254
1.24534
1.17042
1.21282
1.23533
1.16116
1.19601
1.23363
1.17713
1.20526
1.19281
1.23718
1.18924
1.1709
1.2154
1.16775
1.34843
1.37223
1.3845
1.30248
1.19004
1.17332
1.22123
1.26724
1.23473
1.21494
1.28656
1.33962
1.35492
1.38281
1.3989
1.39181
1.39174
1.42706
1.43929
1.33456
1.19492
1.35868
1.51558
1.62047
1.52942
1.52357
1.56688
1.50391
1.49753
1.55467
1.49599
1.54932
1.63317
1.44678
1.5682
1.43492
1.54594
1.72057
1.67386
1.53848
1.76441
1.5566
1.49845
1.60145
1.43084
1.5095
1.72069
1.74792
1.12839
1.13319
1.13944
1.14576
1.14542
1.15168
1.17063
1.16421
1.13833
1.13557
1.14905
1.14511
1.13154
1.13681
1.14823
1.14718
1.14398
1.14097
1.1424
1.14435
1.14635
1.14877
1.14944
1.14816
1.14467
1.13994
1.14091
1.14408
1.14826
1.15275
1.15569
1.15734
1.15621
1.15389
1.15267
1.15416
1.15834
1.16374
1.16878
1.1717
1.17436
1.17547
1.17301
1.16737
1.16417
1.16665
1.17102
1.17344
1.17405
1.17518
1.18028
1.17868
1.1813
1.18081
1.18327
1.18977
1.18851
1.213
1.2079
1.19648
1.20193
1.19492
1.19065
1.19304
1.18552
1.17849
1.18955
1.20446
1.19079
1.19107
1.17961
1.17751
1.18798
1.19237
1.19576
1.19609
1.19751
1.19717
1.19059
1.18987
1.19212
1.19283
1.19518
1.19204
1.19906
1.19515
1.1975
1.20085
1.20249
1.20262
1.2066
1.20891
1.21876
1.23475
1.21937
1.24305
1.24281
1.2182
1.24245
1.2121
1.21788
1.22392
1.2032
1.21206
1.20748
1.20812
1.20349
1.19556
1.20944
1.20701
1.20209
1.21856
1.20053
1.18995
1.22265
1.19132
1.18207
1.23757
1.17209
1.19361
1.22001
1.16847
1.18298
1.2141
1.17429
1.19426
1.1706
1.22766
1.16826
1.14654
1.16792
1.16706
1.31924
1.37884
1.35024
1.26999
1.18321
1.18078
1.23707
1.2998
1.27391
1.23594
1.26048
1.30636
1.34378
1.35359
1.37628
1.37416
1.37017
1.4121
1.3875
1.25236
1.13261
1.33368
1.53532
1.565
1.46869
1.489
1.48132
1.44388
1.46631
1.51239
1.44026
1.4758
1.65706
1.47731
1.52241
1.45806
1.42211
1.61366
1.57771
1.44355
1.6444
1.48129
1.47035
1.54245
1.38447
1.48456
1.67619
1.69928
1.12973
1.13668
1.14368
1.14166
1.14057
1.15351
1.16708
1.16523
1.14985
1.13531
1.13768
1.14793
1.14393
1.13754
1.13704
1.14044
1.14585
1.14625
1.14831
1.14778
1.14455
1.14456
1.14235
1.14413
1.1466
1.14157
1.13772
1.13814
1.13987
1.14329
1.14694
1.15113
1.15501
1.15537
1.15303
1.15114
1.15108
1.15224
1.15603
1.15921
1.16212
1.16568
1.16725
1.16631
1.16613
1.17094
1.17671
1.17563
1.17292
1.17509
1.17684
1.18143
1.18657
1.18712
1.18481
1.18184
1.17961
1.19941
1.1879
1.18825
1.20413
1.19476
1.18823
1.18625
1.18085
1.1741
1.18871
1.20149
1.18301
1.18101
1.17234
1.17881
1.18598
1.18726
1.1893
1.19194
1.19505
1.20094
1.19323
1.18764
1.18866
1.18061
1.18509
1.18672
1.19754
1.19488
1.1979
1.20254
1.20505
1.20276
1.20629
1.21918
1.20779
1.22565
1.22547
1.21379
1.24012
1.20959
1.21938
1.21182
1.18634
1.19994
1.18625
1.18832
1.19691
1.19118
1.19768
1.18614
1.18989
1.19921
1.18737
1.20123
1.1987
1.18565
1.20286
1.19844
1.17085
1.22586
1.1633
1.17832
1.19617
1.1595
1.16849
1.19546
1.16515
1.1732
1.15722
1.21542
1.1474
1.1323
1.14899
1.16513
1.29358
1.37553
1.3265
1.26181
1.17576
1.1521
1.26646
1.32132
1.30075
1.28894
1.28647
1.30442
1.33073
1.33653
1.37893
1.36985
1.34388
1.37414
1.35167
1.27017
1.18657
1.35748
1.57182
1.50051
1.445
1.46295
1.42442
1.34011
1.38782
1.43151
1.3712
1.43192
1.57958
1.48341
1.47594
1.4999
1.38028
1.55516
1.53531
1.41861
1.56003
1.4329
1.45452
1.49102
1.3509
1.46429
1.63769
1.65561
1.13041
1.13697
1.14727
1.14717
1.14259
1.15308
1.16436
1.16364
1.1565
1.14863
1.14381
1.14358
1.14343
1.14179
1.13935
1.13672
1.13542
1.13838
1.14728
1.15126
1.1488
1.14688
1.14318
1.14142
1.14461
1.14618
1.14493
1.1424
1.14206
1.14326
1.14482
1.14583
1.14931
1.15341
1.15385
1.15173
1.15068
1.14947
1.15114
1.15711
1.16414
1.17132
1.17562
1.17389
1.16704
1.16083
1.16043
1.1612
1.16558
1.17711
1.18374
1.18903
1.19597
1.1953
1.18925
1.1853
1.18545
1.18544
1.1742
1.19118
1.20574
1.1884
1.18127
1.18195
1.18066
1.17122
1.18919
1.19376
1.1764
1.17708
1.16989
1.17623
1.17913
1.18182
1.1876
1.1943
1.19604
1.20088
1.19115
1.18694
1.18938
1.18498
1.19376
1.19807
1.19869
1.18864
1.18362
1.18206
1.18103
1.18182
1.18386
1.19603
1.19642
1.18786
1.21236
1.21008
1.21485
1.2195
1.21629
1.20416
1.1923
1.1954
1.18597
1.18294
1.19201
1.17917
1.18403
1.18822
1.18706
1.19345
1.18037
1.18502
1.18293
1.17921
1.18428
1.19012
1.15659
1.21664
1.15353
1.1773
1.18833
1.15959
1.16084
1.18095
1.15869
1.15338
1.1525
1.20171
1.12945
1.12539
1.14341
1.15041
1.26571
1.35399
1.31731
1.25591
1.17504
1.13176
1.26916
1.33218
1.31479
1.30246
1.29533
1.30273
1.32214
1.32082
1.37268
1.36067
1.32
1.33997
1.33776
1.25728
1.24116
1.39269
1.51918
1.46066
1.39983
1.3757
1.31986
1.26138
1.31374
1.34293
1.29941
1.39085
1.50425
1.45901
1.46715
1.44293
1.38318
1.53905
1.51981
1.44218
1.51634
1.40596
1.44743
1.44211
1.32015
1.4466
1.60432
1.61384
1.13163
1.13446
1.14271
1.1491
1.14888
1.15106
1.15465
1.156
1.15468
1.15238
1.15386
1.15533
1.15533
1.15453
1.15338
1.14914
1.14672
1.14872
1.15149
1.14613
1.14392
1.14266
1.14179
1.14228
1.14039
1.14058
1.14327
1.14276
1.14067
1.14303
1.14583
1.14622
1.14497
1.14638
1.15139
1.155
1.15703
1.15725
1.1547
1.15278
1.15385
1.15631
1.16023
1.16436
1.1648
1.16183
1.16412
1.16806
1.16785
1.17124
1.17673
1.18071
1.19236
1.19796
1.19295
1.19539
1.19057
1.17933
1.18115
1.19474
1.19366
1.17737
1.17572
1.17972
1.17185
1.16781
1.1913
1.18663
1.17037
1.17242
1.16649
1.17219
1.17612
1.18177
1.19008
1.19051
1.18621
1.18279
1.17113
1.17678
1.18133
1.184
1.19091
1.18902
1.17627
1.17405
1.17295
1.17372
1.17707
1.18589
1.19891
1.19577
1.19668
1.19728
1.19686
1.21381
1.21719
1.21679
1.21917
1.19977
1.19053
1.19319
1.18199
1.17393
1.18143
1.16949
1.17189
1.17941
1.17638
1.18635
1.17402
1.17457
1.17164
1.16682
1.1723
1.19034
1.15329
1.20319
1.14727
1.16753
1.16794
1.14527
1.14735
1.15944
1.1489
1.13456
1.147
1.18097
1.11792
1.12731
1.13717
1.12392
1.21778
1.31917
1.31692
1.2471
1.16317
1.15087
1.25129
1.29529
1.29446
1.26679
1.28406
1.29753
1.3067
1.295
1.32474
1.33364
1.30157
1.31163
1.3508
1.20889
1.20072
1.43199
1.50313
1.45924
1.31654
1.26728
1.21362
1.22419
1.25725
1.27423
1.24839
1.35677
1.4575
1.42908
1.46009
1.35185
1.38687
1.54358
1.49643
1.4654
1.49435
1.38913
1.44021
1.38975
1.29447
1.43219
1.57187
1.57588
1.13469
1.13605
1.1375
1.14069
1.14057
1.14107
1.14461
1.15081
1.1519
1.15051
1.15111
1.15352
1.15797
1.1626
1.1647
1.16092
1.15681
1.15509
1.15102
1.14453
1.14263
1.14012
1.1412
1.14285
1.14247
1.14053
1.14174
1.143
1.13917
1.14002
1.14378
1.14733
1.14844
1.14447
1.14174
1.14304
1.14676
1.15088
1.15393
1.15171
1.14849
1.14968
1.15549
1.16363
1.16789
1.16295
1.15588
1.15765
1.16228
1.16582
1.17568
1.18064
1.1871
1.18724
1.19159
1.19513
1.18559
1.17802
1.18337
1.1834
1.1753
1.17312
1.18023
1.18183
1.16152
1.1671
1.19265
1.17908
1.16646
1.16457
1.16422
1.16807
1.17252
1.17807
1.18992
1.18678
1.18785
1.18471
1.17651
1.18054
1.1769
1.17628
1.1802
1.1778
1.16543
1.16369
1.16477
1.16627
1.16711
1.16831
1.18067
1.18519
1.1777
1.19404
1.203
1.205
1.21084
1.21226
1.19227
1.18438