/*--------------------------------*- C++ -*----------------------------------*\
| =========                 |                                                 |
| \\      /  F ield         | OpenFOAM: The Open Source CFD Toolbox           |
|  \\    /   O peration     | Version:  dev                                   |
|   \\  /    A nd           | Web:      http://www.openfoam.org               |
|    \\/     M anipulation  |                                                 |
\*---------------------------------------------------------------------------*/
FoamFile
{
    version     2.0;
    format      ascii;
    class       volScalarField;
    object      rho_0;
    location    "9.148";
}
// * * * * * * * * * * * * * * * * * * * * * * * * * * * * * * * * * * * * * //

dimensions      [1 -3 0 0 0 0 0];

internalField   nonuniform List<scalar> 
12225
(
1.15578
1.15819
1.15938
1.15949
1.15964
1.15889
1.15833
1.15706
1.15599
1.15423
1.15277
1.1506
1.14884
1.14612
1.1442
1.14058
1.13984
1.13223
1.15603
1.16063
1.16331
1.1641
1.16526
1.16477
1.16505
1.16342
1.16297
1.1604
1.15955
1.15618
1.15521
1.15127
1.14992
1.14601
1.14493
1.14118
1.15617
1.16089
1.16403
1.1645
1.1666
1.16566
1.16745
1.16509
1.1662
1.16285
1.16336
1.15916
1.15838
1.15479
1.15248
1.14941
1.14615
1.14441
1.15701
1.16052
1.1646
1.16382
1.16697
1.16474
1.16778
1.16486
1.16659
1.16276
1.1645
1.16051
1.16014
1.15515
1.15485
1.14878
1.14672
1.14615
1.15794
1.1605
1.16543
1.16364
1.16704
1.1643
1.16786
1.1653
1.16646
1.1623
1.16454
1.16073
1.16133
1.15568
1.15746
1.15193
1.15103
1.14625
1.15853
1.16083
1.16596
1.16392
1.16676
1.16556
1.16864
1.16579
1.16569
1.16364
1.16511
1.16159
1.16085
1.15796
1.15729
1.15321
1.1537
1.14804
1.15933
1.16157
1.16586
1.16454
1.16673
1.16588
1.16874
1.16551
1.16553
1.16477
1.16506
1.16138
1.16056
1.15882
1.15662
1.15271
1.15268
1.14929
1.16002
1.16227
1.16666
1.16506
1.1677
1.16651
1.16831
1.16587
1.16645
1.16497
1.16452
1.16104
1.16025
1.15858
1.15675
1.15274
1.15208
1.15013
1.16107
1.1631
1.16704
1.16555
1.16822
1.16714
1.16812
1.16653
1.1666
1.16454
1.16378
1.16108
1.15967
1.15838
1.15653
1.15331
1.15265
1.1504
1.16239
1.16402
1.16787
1.16622
1.16863
1.16728
1.16811
1.16656
1.16611
1.16417
1.16351
1.16111
1.15996
1.15837
1.15638
1.1543
1.15262
1.1507
1.16356
1.16495
1.1687
1.16737
1.16922
1.16785
1.16823
1.16659
1.16611
1.16445
1.16355
1.16117
1.15948
1.15795
1.15609
1.15371
1.15293
1.1502
1.16533
1.16684
1.16982
1.16881
1.16981
1.16857
1.16824
1.1667
1.16596
1.16446
1.16305
1.16089
1.15907
1.15691
1.15551
1.1534
1.15159
1.14962
1.1677
1.16925
1.17123
1.17024
1.17035
1.16924
1.16837
1.16698
1.16574
1.16413
1.16233
1.16026
1.15853
1.15639
1.15434
1.15275
1.15109
1.14876
1.17107
1.17239
1.17307
1.17203
1.17141
1.17026
1.16892
1.16751
1.16583
1.16399
1.16199
1.16004
1.15788
1.15581
1.15392
1.1518
1.1496
1.14774
1.17545
1.17611
1.17592
1.17466
1.17337
1.1719
1.17008
1.16831
1.16622
1.16413
1.16187
1.15973
1.15744
1.15532
1.15319
1.15107
1.14899
1.14693
1.18108
1.18055
1.17975
1.17803
1.1761
1.17403
1.17166
1.16943
1.16708
1.16476
1.16239
1.16008
1.1577
1.15548
1.15316
1.15095
1.14888
1.14675
1.18803
1.18598
1.18472
1.18247
1.18017
1.17774
1.17505
1.17233
1.1696
1.16688
1.16414
1.16159
1.15919
1.15666
1.15421
1.15202
1.14974
1.14764
1.19532
1.19225
1.19076
1.18815
1.1856
1.1828
1.17977
1.17678
1.17397
1.17083
1.16761
1.16515
1.16287
1.15998
1.15737
1.15522
1.15299
1.15093
1.20203
1.19821
1.19674
1.19426
1.19172
1.18889
1.18568
1.1826
1.17994
1.17668
1.17288
1.17041
1.16838
1.16516
1.16235
1.16035
1.15783
1.15576
1.20759
1.20348
1.20229
1.19991
1.19745
1.19468
1.1914
1.1882
1.18575
1.18273
1.17866
1.17587
1.17406
1.17097
1.16806
1.16586
1.16283
1.16057
1.21207
1.20785
1.20709
1.20485
1.20251
1.19981
1.19654
1.19307
1.19101
1.18865
1.18425
1.18076
1.17923
1.17649
1.17395
1.17146
1.16768
1.16509
1.21507
1.21092
1.21067
1.20873
1.20642
1.20421
1.20127
1.19782
1.19546
1.19334
1.18918
1.18563
1.18354
1.18089
1.1787
1.17586
1.17267
1.17001
1.21799
1.21352
1.21352
1.21199
1.20988
1.20754
1.2052
1.20203
1.1989
1.19645
1.19355
1.19022
1.18759
1.18469
1.18157
1.17906
1.17626
1.17366
1.21975
1.21558
1.2157
1.21441
1.21257
1.21015
1.20776
1.20524
1.20206
1.19898
1.19638
1.19352
1.19088
1.18784
1.18458
1.18186
1.17909
1.1766
1.22108
1.21688
1.21727
1.21616
1.21454
1.21228
1.20991
1.20754
1.20465
1.20142
1.19863
1.19587
1.19285
1.18995
1.18715
1.18412
1.18143
1.17866
1.22192
1.21789
1.21846
1.21742
1.21578
1.21372
1.2114
1.20872
1.20593
1.20323
1.20027
1.1972
1.19434
1.19139
1.18854
1.18571
1.18284
1.18008
1.2225
1.21859
1.2192
1.21818
1.21666
1.21474
1.21241
1.20982
1.20706
1.20419
1.20132
1.19839
1.19541
1.19244
1.18945
1.18651
1.18362
1.18075
1.22329
1.21916
1.21981
1.21881
1.21731
1.21546
1.21327
1.21078
1.20806
1.20516
1.20214
1.19902
1.19586
1.19267
1.1895
1.18637
1.18334
1.18045
1.22314
1.2193
1.22005
1.21914
1.2177
1.21583
1.21356
1.21092
1.20799
1.20482
1.2015
1.1981
1.19474
1.19144
1.1883
1.18531
1.18253
1.17994
1.22607
1.22064
1.22001
1.21827
1.21622
1.2138
1.21104
1.20803
1.20486
1.2016
1.19833
1.19507
1.19188
1.18879
1.18581
1.18296
1.18029
1.17787
1.18004
1.19891
1.19413
1.19401
1.1873
1.18369
1.1798
1.17772
1.17637
1.17571
1.17538
1.17478
1.17421
1.17342
1.17248
1.17162
1.17059
1.16965
1.1692
1.16967
1.17006
1.1698
1.16977
1.16991
1.16976
1.17042
1.17223
1.17282
1.17186
1.17229
1.17433
1.17439
1.17337
1.17651
1.17779
1.17585
1.17937
1.17882
1.17628
1.18149
1.17641
1.1719
1.18246
1.18263
1.1731
1.16967
1.17229
1.17645
1.17915
1.18004
1.18035
1.18152
1.18352
1.18419
1.18177
1.17555
1.16831
1.16703
1.1756
1.1851
1.18928
1.1934
1.19707
1.20436
1.21442
1.22014
1.21847
1.21574
1.21464
1.21651
1.21708
1.20822
1.20921
1.22128
1.20949
1.19253
1.20082
1.21717
1.22912
1.23748
1.24384
1.24921
1.25414
1.25895
1.26376
1.26853
1.27323
1.27774
1.28226
1.28712
1.29267
1.29892
1.3054
1.31146
1.31686
1.32134
1.32445
1.32847
1.33474
1.34087
1.34646
1.34963
1.35348
1.3567
1.36083
1.3626
1.36471
1.36542
1.3675
1.36982
1.37
1.36978
1.37288
1.37691
1.3785
1.37772
1.37856
1.38311
1.38787
1.39328
1.40367
1.4165
1.42006
1.41314
1.41336
1.41995
1.42292
1.42884
1.44743
1.45988
1.45479
1.45613
1.46817
1.48124
1.48147
1.4658
1.458
1.46258
1.47618
1.50328
1.51768
1.52058
1.5172
1.52675
1.53769
1.55352
1.57831
1.6021
1.60385
1.60481
1.61458
1.63832
1.65769
1.68638
1.7476
1.81032
1.8009
1.77791
1.79411
1.81409
1.8537
1.87756
1.88535
1.88572
1.88465
1.87592
1.87034
1.86562
1.88392
1.85815
1.82618
1.82872
1.78894
1.81993
1.8062
1.73797
1.67893
1.62889
1.58602
1.55414
1.18143
1.22192
1.21233
1.20038
1.18837
1.17521
1.16563
1.16131
1.15943
1.15893
1.15923
1.15914
1.15863
1.15805
1.15722
1.15652
1.15586
1.15532
1.15554
1.15817
1.16193
1.1645
1.16646
1.16851
1.16944
1.17106
1.1764
1.17843
1.17489
1.17862
1.18299
1.17739
1.17995
1.18815
1.18539
1.18645
1.1915
1.1878
1.1895
1.19013
1.1846
1.18689
1.18087
1.17655
1.17964
1.17018
1.17287
1.1864
1.19208
1.19458
1.19917
1.20678
1.20853
1.20349
1.19966
1.19837
1.19761
1.19711
1.20185
1.20566
1.20424
1.20941
1.20263
1.20304
1.22106
1.22842
1.22563
1.22019
1.22591
1.24162
1.23258
1.21559
1.22072
1.23215
1.23902
1.24674
1.25544
1.26092
1.26447
1.26697
1.2687
1.27085
1.2732
1.27594
1.27858
1.2803
1.28154
1.28294
1.28538
1.28945
1.29494
1.30073
1.30609
1.31024
1.31421
1.31721
1.31582
1.31987
1.32638
1.33383
1.34099
1.34707
1.34973
1.35114
1.36218
1.36165
1.36917
1.36465
1.37283
1.38943
1.39135
1.37342
1.37641
1.40001
1.41771
1.40872
1.40145
1.41972
1.43685
1.42587
1.43066
1.4912
1.49744
1.42196
1.37483
1.37735
1.39202
1.40682
1.43753
1.49814
1.56947
1.61284
1.62391
1.63165
1.62141
1.5576
1.51329
1.50887
1.52909
1.56833
1.60788
1.60705
1.60147
1.61475
1.62532
1.63615
1.65053
1.65342
1.67839
1.69313
1.70274
1.74792
1.7833
1.85919
1.98534
2.00686
1.99794
1.98899
2.0254
2.0675
2.13272
2.16374
2.17739
2.18082
2.16791
2.14068
2.12927
2.13307
2.18053
2.15135
2.12194
2.16255
2.11618
2.14746
1.97589
2.03753
1.97
1.90009
1.81625
1.74996
1.16701
1.21592
1.22712
1.21963
1.20111
1.17743
1.16195
1.15597
1.15609
1.15836
1.16027
1.16025
1.1586
1.15818
1.15906
1.16072
1.16406
1.16722
1.17087
1.17575
1.1806
1.1842
1.18566
1.18674
1.18843
1.18891
1.18913
1.19052
1.19028
1.19034
1.19222
1.19065
1.1951
1.20283
1.19862
1.20024
1.20918
1.20721
1.21229
1.21666
1.21422
1.21852
1.21223
1.20662
1.20289
1.1874
1.18108
1.17857
1.17331
1.18242
1.20158
1.21222
1.2126
1.21006
1.20755
1.20009
1.19831
1.20185
1.20444
1.20488
1.19806
1.20855
1.21147
1.20978
1.21866
1.21865
1.2137
1.21668
1.2225
1.22764
1.2311
1.23601
1.24171
1.24263
1.24263
1.2428
1.24168
1.24064
1.23971
1.23976
1.24048
1.24224
1.24413
1.24663
1.24913
1.25177
1.25406
1.25608
1.2575
1.25923
1.26152
1.26495
1.26889
1.27212
1.27467
1.27847
1.27851
1.28444
1.28311
1.28773
1.28907
1.29418
1.29602
1.29328
1.30373
1.30052
1.31137
1.30378
1.30187
1.32499
1.34471
1.31572
1.2924
1.33247
1.39514
1.38143
1.33898
1.38115
1.44189
1.40503
1.38051
1.48973
1.51846
1.41854
1.34585
1.31482
1.29479
1.2837
1.31398
1.38364
1.50561
1.62578
1.7018
1.71736
1.67533
1.58815
1.52127
1.50878
1.52665
1.54401
1.56494
1.57013
1.62272
1.64411
1.65274
1.64238
1.6164
1.5685
1.62002
1.66784
1.69701
1.74626
1.79973
1.89768
1.98851
1.95658
1.89755
1.96278
2.03943
2.11946
2.1316
2.10764
2.12617
2.18292
2.20572
2.20867
2.19917
2.23235
2.23882
2.20924
2.20848
2.19211
2.20533
2.00371
1.57862
1.93272
2.02794
2.09272
2.04614
1.97072
1.15573
1.20013
1.22691
1.23125
1.21221
1.18087
1.16249
1.1567
1.15821
1.16208
1.16398
1.16122
1.15699
1.15917
1.16643
1.17307
1.17874
1.18156
1.18331
1.18397
1.18316
1.18101
1.17835
1.17653
1.17602
1.17452
1.17289
1.17352
1.17511
1.17433
1.17352
1.17422
1.17543
1.17409
1.17133
1.17852
1.18396
1.18231
1.19681
1.20996
1.21075
1.22478
1.2306
1.22323
1.22432
1.21954
1.20288
1.19102
1.18681
1.17911
1.18058
1.19848
1.21077
1.20813
1.19953
1.19303
1.20053
1.20826
1.20741
1.20647
1.21164
1.21577
1.21385
1.21675
1.22412
1.23372
1.23743
1.23023
1.23131
1.23002
1.2295
1.22827
1.22626
1.22507
1.22582
1.22633
1.22749
1.22972
1.23232
1.23661
1.24104
1.24529
1.24968
1.25302
1.25758
1.26199
1.26692
1.27114
1.27455
1.27763
1.27948
1.28342
1.28602
1.29067
1.28977
1.2918
1.29202
1.2972
1.2962
1.3003
1.29959
1.29974
1.3016
1.29453
1.3048
1.30269
1.30432
1.30693
1.30085
1.29804
1.3181
1.32242
1.27071
1.26372
1.36003
1.37335
1.28598
1.32077
1.42748
1.38194
1.34519
1.44603
1.48509
1.45489
1.43818
1.40696
1.38054
1.34588
1.31828
1.33012
1.42863
1.57484
1.69311
1.73315
1.68832
1.5919
1.52928
1.53324
1.53887
1.53354
1.5012
1.49919
1.58565
1.60267
1.63801
1.65238
1.61222
1.54564
1.57641
1.62547
1.6821
1.71929
1.78474
1.8776
1.95508
1.96477
1.8285
1.90998
1.96878
2.06928
2.02826
1.96268
1.95568
2.02402
2.09618
2.18901
2.19426
2.25754
2.20497
2.1526
2.1689
2.06603
2.0979
1.71712
1.43931
1.73936
1.83011
2.14521
2.14932
2.10648
1.14862
1.18601
1.21857
1.2264
1.20132
1.16989
1.15589
1.15316
1.15542
1.15704
1.15447
1.15281
1.1577
1.17106
1.18423
1.18633
1.18087
1.1758
1.17295
1.1706
1.17037
1.17121
1.17276
1.17302
1.17369
1.17437
1.17574
1.17737
1.1797
1.17827
1.17669
1.17838
1.17653
1.17421
1.17083
1.1669
1.16597
1.16429
1.16865
1.17985
1.18831
1.20011
1.21451
1.22228
1.22701
1.22336
1.2143
1.20814
1.19518
1.18237
1.18097
1.17676
1.18369
1.20442
1.20907
1.20425
1.20432
1.2259
1.22355
1.20157
1.21154
1.21264
1.20245
1.20828
1.22209
1.21831
1.22216
1.22117
1.21682
1.21413
1.21344
1.21461
1.21781
1.2238
1.22847
1.23239
1.23611
1.23825
1.24088
1.24291
1.24488
1.24641
1.24827
1.24981
1.25267
1.25547
1.25877
1.26163
1.26355
1.267
1.268
1.27287
1.27441
1.27783
1.27824
1.28117
1.28201
1.28595
1.28247
1.28539
1.28649
1.29278
1.29821
1.28598
1.29074
1.2983
1.29732
1.29354
1.30038
1.30134
1.29027
1.31821
1.32112
1.26694
1.31564
1.36822
1.3015
1.26285
1.35028
1.37168
1.35672
1.40423
1.43178
1.43383
1.45011
1.45114
1.47227
1.46535
1.39497
1.33613
1.37711
1.51298
1.64321
1.69902
1.66557
1.58587
1.53327
1.54187
1.54714
1.55944
1.5579
1.47607
1.52157
1.54338
1.58258
1.60974
1.58692
1.53337
1.54489
1.5971
1.68344
1.68081
1.75753
1.86624
1.92644
1.86098
1.70026
1.87417
1.89004
1.98577
1.89528
1.8434
1.87928
1.92112
1.93454
2.07561
2.14243
2.23573
2.14662
2.06791
2.08377
1.98199
1.95688
1.63829
1.70441
1.7396
1.55717
2.09407
2.14427
2.11539
1.14258
1.17318
1.2028
1.20144
1.17178
1.15303
1.14928
1.15103
1.15265
1.15266
1.15672
1.16976
1.18634
1.19204
1.17858
1.16253
1.16013
1.16657
1.17245
1.17555
1.17652
1.17577
1.1746
1.17202
1.17037
1.16953
1.17093
1.17265
1.17675
1.18038
1.18224
1.18684
1.18839
1.1855
1.18635
1.17927
1.17249
1.17302
1.16989
1.16836
1.1783
1.18859
1.19501
1.20428
1.21637
1.22509
1.22528
1.21672
1.21089
1.20207
1.19004
1.17952
1.18172
1.17987
1.18075
1.20572
1.20938
1.22016
1.22573
1.20445
1.20883
1.22066
1.20732
1.21517
1.22733
1.21493
1.20757
1.20315
1.20098
1.20655
1.21209
1.21977
1.22691
1.23192
1.23344
1.23422
1.23315
1.23106
1.23032
1.22932
1.22985
1.2319
1.23418
1.23776
1.24046
1.24438
1.24635
1.25142
1.2529
1.25834
1.26011
1.2649
1.26828
1.27062
1.27012
1.276
1.27344
1.28184
1.27756
1.28336
1.27549
1.28343
1.28363
1.28485
1.28099
1.27872
1.28635
1.28812
1.27451
1.28895
1.28871
1.27241
1.29794
1.28551
1.27911
1.31494
1.33345
1.28094
1.28081
1.32338
1.34322
1.37292
1.39263
1.40358
1.40483
1.42498
1.48157
1.47559
1.40163
1.33892
1.33049
1.44282
1.57133
1.66359
1.62541
1.57219
1.51873
1.47054
1.50617
1.50688
1.54716
1.50727
1.48854
1.50056
1.53661
1.56534
1.56572
1.5245
1.51239
1.59015
1.71192
1.6235
1.71134
1.85977
1.87805
1.77443
1.55327
1.79257
1.75534
1.90014
1.74117
1.65531
1.74299
1.88382
1.85982
1.93196
2.05182
2.18558
2.09655
2.00322
2.00558
1.93915
1.88187
1.68905
1.87723
1.83726
1.49861
1.99011
2.10711
2.07671
1.13641
1.15895
1.17835
1.1675
1.14939
1.14622
1.14818
1.14994
1.15276
1.16066
1.1759
1.1857
1.17327
1.1531
1.15368
1.1688
1.17346
1.16735
1.16079
1.15519
1.1509
1.14826
1.14632
1.14682
1.14811
1.1502
1.15264
1.15546
1.16043
1.16651
1.17062
1.17312
1.17715
1.17844
1.18157
1.18295
1.1778
1.17839
1.18139
1.17837
1.17881
1.18523
1.18893
1.19484
1.20405
1.21408
1.21973
1.21105
1.21311
1.21522
1.20303
1.18294
1.18218
1.18296
1.1765
1.18638
1.17766
1.18537
1.21516
1.20438
1.19382
1.21633
1.21646
1.21616
1.22152
1.2045
1.1947
1.19963
1.20912
1.22063
1.2258
1.2283
1.22816
1.22605
1.22213
1.2194
1.21293
1.20874
1.20601
1.20497
1.20638
1.21011
1.21355
1.21885
1.22167
1.22654
1.22902
1.23567
1.23979
1.24579
1.24498
1.24719
1.24891
1.25237
1.25437
1.26443
1.26496
1.26805
1.2678
1.27621
1.27122
1.28281
1.27555
1.27759
1.28012
1.28273
1.26828
1.28538
1.2863
1.26386
1.28189
1.2828
1.2711
1.2723
1.27941
1.26961
1.29471
1.28295
1.26585
1.29244
1.28817
1.31503
1.3594
1.35072
1.28327
1.33144
1.43948
1.41708
1.3443
1.29982
1.28972
1.40684
1.51599
1.59831
1.59265
1.59999
1.56395
1.36978
1.34607
1.45156
1.49863
1.44789
1.44884
1.45856
1.4974
1.52428
1.53884
1.51381
1.48326
1.58192
1.6812
1.58448
1.64682
1.78477
1.81307
1.68607
1.46843
1.6434
1.59064
1.80935
1.66582
1.55764
1.58896
1.75647
1.82769
1.82338
1.93085
2.11887
2.04929
1.95196
1.93966
1.90206
1.89782
1.72814
1.84461
1.86972
1.6601
1.82647
2.0598
2.03267
1.13048
1.14485
1.15463
1.14628
1.14227
1.14393
1.14582
1.14942
1.15976
1.17994
1.18826
1.172
1.16219
1.16815
1.15757
1.136
1.13164
1.13564
1.13619
1.13792
1.14188
1.14588
1.14817
1.15085
1.15109
1.15168
1.15205
1.1531
1.15557
1.16012
1.1654
1.16972
1.17366
1.17787
1.18038
1.18788
1.19563
1.19888
1.20337
1.20904
1.21196
1.21361
1.21267
1.21266
1.21247
1.21739
1.22341
1.21711
1.21405
1.21079
1.21794
1.21375
1.19948
1.18794
1.17323
1.18113
1.18223
1.17586
1.19343
1.19571
1.1911
1.20778
1.21286
1.21267
1.21265
1.19609
1.19406
1.21048
1.22225
1.22378
1.21826
1.21659
1.21371
1.21146
1.20588
1.20013
1.19164
1.18812
1.18752
1.19074
1.19593
1.20207
1.20738
1.21222
1.21361
1.21134
1.20827
1.20924
1.2098
1.22197
1.22203
1.22717
1.23628
1.23981
1.24231
1.24594
1.24614
1.2485
1.24977
1.25545
1.25643
1.26703
1.26664
1.27652
1.26805
1.27912
1.27549
1.2581
1.28272
1.27737
1.25763
1.27488
1.27847
1.25873
1.27301
1.25836
1.27478
1.26981
1.26319
1.27834
1.23741
1.26946
1.35347
1.29907
1.16682
1.21633
1.36716
1.36185
1.3008
1.24278
1.29557
1.39458
1.4659
1.54537
1.54147
1.61337
1.49811
1.25431
1.18185
1.30594
1.44081
1.39713
1.40664
1.4271
1.47154
1.47911
1.514
1.51199
1.47764
1.55652
1.61072
1.5643
1.64188
1.73681
1.76138
1.62939
1.48526
1.50786
1.52847
1.67746
1.66139
1.61393
1.60214
1.6472
1.76082
1.75667
1.79443
2.02964
2.02605
1.91525
1.88348
1.8629
1.94335
1.80572
1.84808
1.86384
1.65135
1.69098
2.00786
1.99329
1.1256
1.13423
1.13916
1.13685
1.13876
1.14415
1.1529
1.16883
1.1817
1.17395
1.14935
1.12913
1.12673
1.13922
1.15067
1.14754
1.1398
1.14033
1.14459
1.14536
1.14513
1.14463
1.1431
1.14435
1.14323
1.14262
1.14246
1.14257
1.14442
1.14816
1.15436
1.1617
1.1677
1.17425
1.18067
1.18392
1.19115
1.19898
1.20258
1.20429
1.20339
1.20304
1.20089
1.20098
1.2025
1.2088
1.21188
1.21112
1.21704
1.21951
1.23794
1.23339
1.22053
1.2266
1.20301
1.19319
1.19058
1.17656
1.19144
1.19705
1.19492
1.20843
1.21047
1.20931
1.2091
1.19539
1.19878
1.21809
1.22044
1.21366
1.20954
1.21269
1.2113
1.20435
1.19388
1.18396
1.17715
1.17985
1.18735
1.19662
1.20405
1.20961
1.21584
1.22112
1.22678
1.22861
1.22395
1.2253
1.21797
1.22814
1.22599
1.22918
1.2389
1.24401
1.24918
1.25067
1.24748
1.24941
1.24173
1.24942
1.2471
1.25941
1.25792
1.26359
1.2729
1.2576
1.26959
1.26273
1.25198
1.26794
1.25855
1.24949
1.26484
1.25607
1.26122
1.25144
1.26539
1.24924
1.25988
1.26894
1.20613
1.25052
1.34555
1.26207
1.16244
1.19581
1.30227
1.28699
1.24817
1.21146
1.32282
1.35299
1.42506
1.5227
1.49047
1.54624
1.33093
1.25162
1.23863
1.30999
1.37121
1.31553
1.35838
1.40057
1.45838
1.4681
1.48982
1.48711
1.47396
1.53617
1.5643
1.52838
1.63682
1.70544
1.7285
1.61264
1.55923
1.5123
1.61941
1.54876
1.60291
1.64358
1.65927
1.63461
1.64868
1.71089
1.68481
1.90115
2.00444
1.90758
1.85239
1.82218
1.92904
1.81736
1.82783
1.8819
1.55998
1.64682
1.94287
1.95069
1.12197
1.12827
1.13277
1.13616
1.14381
1.14909
1.1593
1.17903
1.18488
1.16023
1.13956
1.14937
1.15193
1.12704
1.11969
1.13631
1.1391
1.13149
1.1308
1.1314
1.13429
1.13216
1.1335
1.1382
1.13877
1.14103
1.14101
1.13932
1.13864
1.13897
1.14204
1.1472
1.15346
1.15763
1.16284
1.16806
1.17011
1.17459
1.17975
1.18226
1.18452
1.18515
1.18551
1.18544
1.1853
1.18856
1.19112
1.19765
1.20589
1.20952
1.22577
1.21994
1.22663
1.2517
1.2309
1.2262
1.21644
1.19457
1.20362
1.20156
1.19674
1.20726
1.20688
1.20463
1.20325
1.19631
1.20476
1.21894
1.2116
1.20325
1.20874
1.21054
1.19994
1.18299
1.17206
1.16732
1.17227
1.18305
1.19603
1.20448
1.20563
1.20244
1.20311
1.20384
1.20697
1.21454
1.21771
1.23254
1.23043
1.24217
1.23878
1.2355
1.23995
1.24535
1.24129
1.24742
1.24386
1.2457
1.23479
1.23561
1.25241
1.24258
1.2593
1.26016
1.26673
1.26616
1.25076
1.25498
1.25329
1.24848
1.25548
1.24414
1.24289
1.25196
1.25243
1.2374
1.25234
1.22991
1.25169
1.25402
1.19902
1.2374
1.30567
1.24578
1.22687
1.27081
1.2953
1.25037
1.21398
1.21271
1.3299
1.28238
1.40828
1.4758
1.46364
1.42725
1.24229
1.22811
1.34337
1.39267
1.33617
1.27133
1.33288
1.41062
1.49397
1.48254
1.46361
1.46045
1.47081
1.50778
1.51007
1.52167
1.57468
1.63834
1.69944
1.57174
1.5736
1.55648
1.63817
1.53802
1.55975
1.59296
1.63726
1.65461
1.55265
1.6351
1.62232
1.74807
1.93102
1.90688
1.84248
1.80596
1.90971
1.7378
1.70641
1.829
1.56818
1.61155
1.8772
1.9014
1.11878
1.12307
1.12673
1.13398
1.14294
1.155
1.17402
1.17508
1.15276
1.13113
1.1296
1.13891
1.13333
1.12693
1.13183
1.12764
1.12811
1.13863
1.13594
1.13608
1.14081
1.1364
1.14036
1.14245
1.14231
1.14629
1.14559
1.14433
1.14141
1.13793
1.13622
1.13757
1.14273
1.14901
1.1542
1.15983
1.16419
1.16605
1.16887
1.17205
1.17378
1.17558
1.17685
1.17715
1.17846
1.1788
1.17861
1.1829
1.18594
1.1899
1.20617
1.20475
1.22038
1.23876
1.22825
1.23489
1.21932
1.20614
1.21009
1.20073
1.19921
1.20565
1.20045
1.19999
1.19981
1.19446
1.20144
1.20893
1.19982
1.20175
1.2109
1.20039
1.18318
1.16935
1.17301
1.17812
1.18732
1.19473
1.20092
1.20162
1.1963
1.19122
1.19309
1.19248
1.19341
1.19549
1.18896
1.20111
1.20726
1.21946
1.2261
1.22575
1.22057
1.23676
1.2287
1.23208
1.24392
1.2393
1.24942
1.22634
1.25494
1.25394
1.24466
1.26274
1.26033
1.25589
1.25779
1.2399
1.24079
1.23595
1.2359
1.23752
1.23055
1.23939
1.2413
1.22458
1.24941
1.21888
1.22349
1.24831
1.20966
1.19784
1.26247
1.25453
1.21618
1.26632
1.26592
1.24375
1.20962
1.20858
1.31258
1.22589
1.40238
1.41674
1.44292
1.3445
1.24178
1.15272
1.25687
1.33914
1.26452
1.23365
1.32593
1.42386
1.47111
1.4245
1.42691
1.43428
1.46033
1.47905
1.48078
1.49408
1.46099
1.55091
1.64976
1.54539
1.54525
1.52256
1.51846
1.58577
1.58105
1.55928
1.57693
1.64471
1.5068
1.53427
1.59228
1.61877
1.83199
1.89386
1.83172
1.77256
1.9215
1.69157
1.6212
1.74603
1.51711
1.57615
1.8222
1.85131
1.11682
1.12256
1.13206
1.14473
1.1547
1.16468
1.17106
1.16169
1.13688
1.12504
1.13563
1.1336
1.12221
1.1288
1.13474
1.13576
1.1389
1.1368
1.13374
1.13769
1.13611
1.13489
1.13489
1.13415
1.13547
1.13913
1.1413
1.14489
1.14612
1.14517
1.14284
1.14049
1.14047
1.14423
1.15007
1.157
1.16424
1.17014
1.17351
1.1755
1.1768
1.17762
1.17735
1.17679
1.17673
1.17766
1.17599
1.17545
1.17523
1.17366
1.1837
1.1822
1.19748
1.20822
1.21197
1.22822
1.21558
1.21118
1.20704
1.19876
1.20279
1.20447
1.19712
1.19833
1.19937
1.19269
1.19658
1.20655
1.20181
1.20665
1.2049
1.18356
1.17425
1.17293
1.18784
1.19536
1.20048
1.203
1.20431
1.20377
1.20094
1.20298
1.21291
1.21646
1.22284
1.22971
1.22013
1.21782
1.21985
1.21847
1.21528
1.21977
1.21378
1.22698
1.23715
1.23175
1.24459
1.24223
1.24357
1.24556
1.24212
1.25835
1.25763
1.2476
1.26389
1.2476
1.24458
1.24241
1.23246
1.23013
1.22756
1.22751
1.21818
1.22546
1.23075
1.19786
1.23954
1.2242
1.18733
1.2434
1.22619
1.16128
1.23137
1.25363
1.1775
1.22064
1.22607
1.24152
1.19865
1.18436
1.26235
1.1796
1.37842
1.37512
1.41505
1.32391
1.22865
1.17333
1.22234
1.26127
1.20911
1.21016
1.30619
1.38223
1.38727
1.38234
1.41548
1.41785
1.43049
1.44437
1.46593
1.43814
1.32705
1.45215
1.57923
1.58666
1.54717
1.51125
1.5145
1.54794
1.55067
1.56684
1.53783
1.61525
1.52712
1.46243
1.58562
1.5173
1.72396
1.84443
1.78412
1.68409
1.88554
1.63964
1.55684
1.67701
1.46915
1.54359
1.77275
1.80015
1.11485
1.12048
1.12981
1.13884
1.14457
1.15791
1.16455
1.14299
1.12468
1.12561
1.12717
1.12612
1.1238
1.12591
1.13343
1.13192
1.12783
1.12833
1.12614
1.12664
1.13177
1.13427
1.13185
1.13198
1.13111
1.13107
1.13494
1.13871
1.14277
1.14513
1.14537
1.14414
1.1422
1.14253
1.14549
1.15151
1.15868
1.16615
1.17255
1.17721
1.17909
1.17866
1.17599
1.17
1.16565
1.1661
1.16666
1.16942
1.17388
1.17396
1.17967
1.17198
1.17882
1.18488
1.19426
1.20979
1.20388
1.21378
1.20882
1.20072
1.20334
1.19796
1.19251
1.19591
1.19357
1.18538
1.191
1.20329
1.19729
1.19817
1.18859
1.17558
1.18283
1.19042
1.20293
1.20598
1.20847
1.21033
1.20994
1.20981
1.2092
1.21226
1.21553
1.21046
1.20987
1.21151
1.21021
1.21189
1.2181
1.21911
1.21828
1.22039
1.22441
1.22056
1.2332
1.24448
1.23549
1.24919
1.23967
1.23966
1.25087
1.23143
1.2411
1.23128
1.23033
1.23662
1.22103
1.22453
1.22456
1.21879
1.22101
1.22154
1.20411
1.21343
1.23549
1.1859
1.21555
1.23865
1.16664
1.21437
1.22961
1.15495
1.19656
1.23074
1.17176
1.2026
1.19203
1.23316
1.18553
1.16877
1.2161
1.16511
1.34815
1.36941
1.38305
1.3017
1.189
1.16818
1.21661
1.26216
1.22888
1.21057
1.28484
1.33873
1.35347
1.38012
1.39654
1.38963
1.38972
1.42407
1.43964
1.34511
1.2093
1.36492
1.51927
1.61683
1.52687
1.5206
1.56299
1.50642
1.50352
1.55665
1.50361
1.56303
1.62256
1.44818
1.57882
1.44736
1.57756
1.74415
1.6847
1.5627
1.78281
1.55959
1.50619
1.6095
1.43314
1.51388
1.72675
1.75341
1.11348
1.11817
1.12429
1.13032
1.12979
1.13587
1.15499
1.14984
1.12438
1.12057
1.13413
1.13137
1.11767
1.12202
1.13354
1.13325
1.13036
1.1273
1.12855
1.13055
1.13282
1.13549
1.1365
1.13554
1.13234
1.12776
1.12873
1.13201
1.13636
1.14103
1.14418
1.14605
1.14516
1.14309
1.14208
1.14376
1.1482
1.15403
1.15957
1.16299
1.16602
1.16757
1.16562
1.16014
1.15668
1.15892
1.16338
1.1665
1.16786
1.16918
1.17488
1.17334
1.17639
1.17647
1.17949
1.18646
1.18537
1.21027
1.20575
1.19469
1.20059
1.19415
1.19008
1.19296
1.18603
1.17887
1.18973
1.20571
1.19275
1.19335
1.18227
1.17942
1.18995
1.19495
1.19914
1.19979
1.2014
1.20108
1.19515
1.19502
1.1974
1.19924
1.20166
1.19817
1.20431
1.20078
1.20298
1.20617
1.20816
1.20873
1.21231
1.21386
1.22597
1.23833
1.22501
1.25153
1.2449
1.22659
1.24784
1.21743
1.22897
1.22919
1.21114
1.21907
1.21261
1.21416
1.20637
1.20084
1.21407
1.20879
1.2059
1.21992
1.19904
1.19275
1.22437
1.18716
1.18616
1.2366
1.16873
1.19597
1.21917
1.16429
1.1836
1.21334
1.1711
1.19308
1.17032
1.22568
1.16648
1.14577
1.16898
1.1645
1.32006
1.37739
1.3498
1.26965
1.18152
1.17802
1.23028
1.29371
1.2674
1.22967
1.25824
1.30513
1.34229
1.35253
1.37437
1.37246
1.36908
1.41128
1.39018
1.25733
1.13324
1.33233
1.53398
1.56614
1.46993
1.49104
1.49024
1.45792
1.47799
1.52203
1.45224
1.49633
1.66413
1.47498
1.5365
1.46287
1.44906
1.6399
1.58972
1.46483
1.66606
1.48851
1.4788
1.55162
1.39014
1.49162
1.6853
1.70804
1.11295
1.11978
1.12681
1.12471
1.12344
1.13623
1.14964
1.14841
1.13406
1.11936
1.12095
1.13149
1.12823
1.12178
1.12105
1.12454
1.13024
1.13086
1.13297
1.13268
1.12974
1.13006
1.12815
1.12997
1.1327
1.128
1.12422
1.1248
1.12676
1.13043
1.13431
1.13872
1.14285
1.14357
1.14159
1.14004
1.14033
1.14186
1.146
1.14943
1.15246
1.15615
1.15801
1.15738
1.15746
1.1628
1.16958
1.16949
1.1669
1.16879
1.17085
1.1756
1.1813
1.18265
1.18119
1.17888
1.17698
1.19732
1.18635
1.18699
1.20356
1.19506
1.18886
1.18732
1.18254
1.17563
1.19019
1.2043
1.18657
1.1847
1.17613
1.18236
1.19021
1.192
1.19424
1.1968
1.2001
1.20591
1.19859
1.19348
1.19463
1.18729
1.19153
1.1928
1.20424
1.20219
1.2062
1.21144
1.21421
1.21212
1.21648
1.22763
1.21791
1.23835
1.23251
1.22539
1.24935
1.21519
1.22894
1.21685
1.19497
1.20873
1.19295
1.19715
1.20327
1.19856
1.20292
1.18997
1.19603
1.20302
1.19208
1.20687
1.20081
1.1883
1.20782
1.19745
1.17491
1.22749
1.16254
1.18072
1.19725
1.15806
1.17014
1.1963
1.16396
1.17406
1.15736
1.2152
1.14692
1.13175
1.14918
1.16434
1.2953
1.3759
1.32678
1.26163
1.17429
1.15306
1.26038
1.31635
1.29571
1.28303
1.28361
1.30308
1.33005
1.33614
1.37728
1.36924
1.34452
1.37551
1.3537
1.26919
1.17276
1.34854
1.5702
1.50474
1.4488
1.47167
1.43647
1.35953
1.40672
1.44876
1.38849
1.45372
1.59838
1.48731
1.49208
1.50908
1.40048
1.58127
1.54739
1.43328
1.57937
1.44193
1.46403
1.50132
1.35835
1.47368
1.64903
1.66681
1.11194
1.1183
1.12851
1.12858
1.12396
1.134
1.14518
1.14487
1.13828
1.13084
1.12606
1.12573
1.12582
1.12442
1.12211
1.11961
1.11848
1.1215
1.13044
1.13483
1.13271
1.13118
1.12774
1.12599
1.12941
1.13125
1.13014
1.12786
1.12782
1.12925
1.13113
1.13248
1.13628
1.14079
1.14157
1.13963
1.13878
1.13782
1.13974
1.146
1.1534
1.16117
1.1663
1.16544
1.15929
1.15363
1.15354
1.1543
1.15855
1.17047
1.17777
1.18372
1.19114
1.19124
1.18604
1.18266
1.18351
1.18419
1.17335
1.1906
1.20626
1.18986
1.18287
1.18397
1.18347
1.17397
1.19215
1.19808
1.18121
1.18204
1.17503
1.18159
1.18506
1.18791
1.19369
1.20084
1.20338
1.20918
1.2
1.19521
1.19754
1.19256
1.2015
1.20622
1.20883
1.19878
1.19461
1.19369
1.19279
1.19269
1.1945
1.20831
1.20652
1.20138
1.22566
1.21954
1.22696
1.22717
1.22395
1.21204
1.19914
1.20339
1.19281
1.19185
1.19995
1.18725
1.19284
1.19428
1.1937
1.19885
1.18557
1.19176
1.1886
1.18417
1.1904
1.19192
1.1616
1.22047
1.15462
1.18094
1.19087
1.1602
1.16351
1.18349
1.15899
1.15553
1.1534
1.20301
1.12969
1.12495
1.14364
1.15197
1.26891
1.35574
1.31836
1.25639
1.1744
1.13019
1.26704
1.33114
1.31322
1.3014
1.29475
1.30253
1.32268
1.32173
1.37388
1.36228
1.32206
1.34254
1.33916
1.26077
1.23342
1.38296
1.52321
1.46291
1.41029
1.39466
1.34116
1.27835
1.33321
1.36216
1.31867
1.41274
1.52493
1.47085
1.48297
1.46089
1.40194
1.56447
1.53395
1.45342
1.53234
1.41605
1.45817
1.45365
1.32951
1.45802
1.61741
1.62686
1.11168
1.11437
1.1225
1.12885
1.12869
1.13077
1.13429
1.13583
1.13475
1.1327
1.13441
1.13604
1.1362
1.13556
1.13453
1.13046
1.12824
1.13035
1.13359
1.12884
1.1269
1.12596
1.12516
1.1258
1.12433
1.12479
1.12768
1.12743
1.12576
1.12829
1.13132
1.13209
1.13124
1.13303
1.13845
1.14241
1.14474
1.14533
1.14327
1.14202
1.14385
1.14694
1.15117
1.15544
1.15619
1.15359
1.15643
1.161
1.16136
1.16553
1.17137
1.17575
1.18799
1.19481
1.19026
1.19333
1.18964
1.17892
1.18105
1.19519
1.19523
1.17966
1.17818
1.18303
1.1757
1.17148
1.19567
1.19241
1.17641
1.17872
1.17302
1.17907
1.1834
1.1893
1.19774
1.19911
1.19518
1.19258
1.18109
1.1865
1.19179
1.19445
1.20204
1.20052
1.18914
1.18665
1.18529
1.18614
1.18983
1.19907
1.21052
1.20806
1.20979
1.20785
1.21019
1.22654
1.22881
1.22831
1.23098
1.20999
1.20126
1.2043
1.19208
1.18543
1.19176
1.1788
1.18273
1.18804
1.18608
1.19506
1.18055
1.18197
1.17761
1.17312
1.1802
1.19458
1.15862
1.20871
1.14872
1.17241
1.171
1.14758
1.15055
1.16295
1.15022
1.13705
1.14899
1.18326
1.11824
1.12706
1.13862
1.12759
1.22281
1.32199
1.31852
1.24797
1.16469
1.14915
1.24935
1.29723
1.29641
1.26896
1.28379
1.29794
1.30929
1.29835
1.3312
1.33838
1.30456
1.31472
1.35104
1.21242
1.20245
1.42181
1.49493
1.46491
1.33592
1.28576
1.22761
1.23091
1.2717
1.29011
1.26538
1.37779
1.47822
1.44569
1.47537
1.37115
1.40872
1.56829
1.5133
1.47874
1.50926
1.4006
1.45242
1.40248
1.30507
1.44509
1.58618
1.58996
1.11342
1.11467
1.11618
1.11936
1.11927
1.11986
1.12354
1.12982
1.13096
1.12968
1.13048
1.1331
1.13768
1.14238
1.14455
1.14097
1.13718
1.13581
1.13238
1.12624
1.12464
1.12229
1.12332
1.12538
1.12542
1.12395
1.12552
1.12706
1.12359
1.12465
1.12855
1.13258
1.13431
1.13091
1.12862
1.13044
1.13476
1.13926
1.14244
1.14037
1.13749
1.13925
1.14569
1.15449
1.15952
1.1552
1.14888
1.15129
1.1561
1.16002
1.17046
1.17583
1.18367
1.18489
1.18922
1.1942
1.18563
1.17827
1.18409
1.18492
1.17756
1.17582
1.1836
1.18665
1.16649
1.17165
1.19837
1.18615
1.17373
1.17211
1.17201
1.17636
1.18124
1.18727
1.19964
1.1972
1.19806
1.19519
1.18644
1.19095
1.18843
1.18821
1.19201
1.19004
1.17734
1.17565
1.17763
1.17971
1.18093
1.1832
1.19679
1.1991
1.19175
1.20902