/*--------------------------------*- C++ -*----------------------------------*\
| =========                 |                                                 |
| \\      /  F ield         | OpenFOAM: The Open Source CFD Toolbox           |
|  \\    /   O peration     | Version:  dev                                   |
|   \\  /    A nd           | Web:      http://www.openfoam.org               |
|    \\/     M anipulation  |                                                 |
\*---------------------------------------------------------------------------*/
FoamFile
{
    version     2.0;
    format      ascii;
    class       volScalarField;
    object      T;
    location    "9.148";
}
// * * * * * * * * * * * * * * * * * * * * * * * * * * * * * * * * * * * * * //

dimensions      [0 0 0 1 0 0 0];

internalField   nonuniform List<scalar> 
12225
(
303.922
303.494
303.182
303.106
302.954
302.963
302.846
302.848
302.708
302.691
302.502
302.458
302.208
302.161
301.798
301.853
300.708
301.537
304.001
303.03
302.287
302.027
301.592
301.543
301.193
301.29
300.974
301.165
300.804
301.065
300.602
300.853
300.351
300.397
299.537
299.448
304.008
303.019
302.15
301.983
301.299
301.375
300.626
300.913
300.193
300.583
299.865
300.319
299.817
299.982
299.71
299.578
299.352
298.747
303.853
303.193
302.073
302.236
301.275
301.688
300.624
301.039
300.167
300.689
299.667
300.051
299.416
299.979
299.144
299.758
299.298
298.686
303.719
303.305
301.965
302.377
301.367
301.884
300.704
301.011
300.296
300.883
299.761
300.102
299.234
299.928
298.671
299.092
298.316
298.847
303.712
303.369
301.995
302.444
301.598
301.707
300.637
301.012
300.641
300.668
299.741
300.002
299.541
299.487
298.898
299.107
298.056
298.56
303.712
303.38
302.232
302.49
301.791
301.825
300.813
301.268
300.86
300.571
299.932
300.256
299.823
299.51
299.271
299.507
298.732
298.657
303.772
303.441
302.26
302.592
301.766
301.865
301.144
301.382
300.824
300.73
300.285
300.546
300.122
299.824
299.489
299.738
299.181
298.853
303.756
303.478
302.421
302.719
301.892
301.945
301.424
301.448
301.02
301.062
300.698
300.752
300.482
300.11
299.827
299.87
299.333
299.141
303.77
303.587
302.544
302.864
302.108
302.225
301.726
301.75
301.436
301.432
301.039
301.039
300.695
300.413
300.204
300.002
299.717
299.509
303.908
303.785
302.781
302.992
302.377
302.478
302.09
302.128
301.813
301.722
301.398
301.389
301.199
300.93
300.683
300.618
300.119
300.124
304.026
303.863
303.065
303.186
302.776
302.823
302.601
302.598
302.345
302.207
302.009
301.944
301.763
301.672
301.353
301.191
301.008
300.856
304.161
303.988
303.438
303.544
303.334
303.334
303.223
303.161
303.013
302.895
302.781
302.692
302.494
302.372
302.241
301.99
301.751
301.705
304.242
304.138
303.892
303.992
303.935
303.92
303.898
303.819
303.754
303.672
303.592
303.456
303.362
303.232
303.042
302.925
302.854
302.687
304.332
304.39
304.324
304.447
304.517
304.55
304.609
304.586
304.584
304.533
304.487
304.383
304.299
304.164
304.035
303.911
303.783
303.679
304.362
304.718
304.769
304.961
305.13
305.259
305.396
305.438
305.45
305.411
305.351
305.251
305.156
305.022
304.918
304.796
304.657
304.546
304.315
305.05
305.169
305.428
305.613
305.751
305.884
305.97
306.004
306.002
305.988
305.898
305.753
305.66
305.553
305.389
305.27
305.131
304.312
305.253
305.367
305.629
305.783
305.916
306.042
306.103
306.063
306.08
306.122
305.948
305.704
305.642
305.534
305.315
305.146
304.951
304.176
305.296
305.35
305.496
305.558
305.601
305.677
305.674
305.509
305.461
305.577
305.359
304.983
304.937
304.839
304.537
304.407
304.19
304.088
305.209
305.127
305.18
305.147
305.096
305.108
305.068
304.782
304.586
304.699
304.519
304.046
303.904
303.775
303.485
303.456
303.264
303.934
305.068
304.834
304.796
304.674
304.538
304.473
304.445
304.023
303.598
303.715
303.671
303.112
302.845
302.569
302.306
302.421
302.293
303.936
305.028
304.636
304.469
304.295
303.992
303.789
303.69
303.318
302.817
302.806
302.714
302.274
301.977
301.596
301.394
301.322
301.168
303.755
304.909
304.439
304.139
303.869
303.576
303.198
302.971
302.744
302.334
301.983
301.774
301.431
301.168
301.015
300.729
300.544
300.363
303.759
304.796
304.273
303.893
303.529
303.224
302.846
302.436
302.166
301.887
301.474
301.126
300.754
300.501
300.347
300.106
299.911
299.689
303.715
304.759
304.152
303.713
303.284
302.914
302.513
302.061
301.695
301.412
301.038
300.658
300.367
300.077
299.788
299.603
299.378
299.21
303.709
304.705
304.049
303.584
303.149
302.72
302.287
301.895
301.507
301.077
300.718
300.408
300.066
299.78
299.504
299.259
299.068
298.892
303.705
304.665
303.995
303.518
303.048
302.576
302.133
301.709
301.297
300.91
300.524
300.167
299.85
299.561
299.315
299.096
298.907
298.753
303.592
304.608
303.929
303.442
302.96
302.47
301.985
301.531
301.105
300.716
300.363
300.05
299.774
299.538
299.333
299.157
299
298.85
303.678
304.619
303.914
303.408
302.91
302.421
301.957
301.536
301.16
300.837
300.554
300.31
300.082
299.87
299.656
299.448
299.225
299
302.933
304.166
303.81
303.531
303.2
302.856
302.519
302.195
301.885
301.588
301.301
301.026
300.759
300.503
300.253
300.012
299.77
299.508
288.725
284.226
285.377
285.427
287.072
287.965
288.949
289.5
289.887
290.112
290.272
290.51
290.748
291.049
291.396
291.733
292.121
292.494
292.748
292.785
292.85
293.084
293.269
293.418
293.648
293.687
293.438
293.491
293.946
294.077
293.796
293.998
294.514
294.002
293.902
294.661
294.079
294.444
295.4
294.4
295.891
297.411
295.113
295.326
298.043
299.227
298.876
298.157
297.837
297.987
298.279
298.355
298.244
298.498
299.562
301.596
303.855
304.517
302.704
300.823
300.323
299.816
299.454
298.208
296.323
295.546
296.543
297.83
298.756
298.987
299.554
302.525
303.202
301.021
304.648
310.005
309.057
305.953
304.015
303.046
302.626
302.49
302.504
302.579
302.688
302.837
303.031
303.289
303.551
303.737
303.764
303.624
303.426
303.306
303.306
303.476
303.921
304.091
303.692
303.258
302.877
302.963
302.848
302.813
302.465
302.601
302.578
302.85
302.744
302.5
302.731
303.122
302.739
302.069
301.952
302.462
302.692
302.109
301.55
301
299.461
297.412
297.513
300.027
301.093
300.813
301.412
301.602
299.244
298.299
301.028
302.594
302.118
301.453
303.418
308.53
311.847
312.522
311.345
307.643
306.791
308.476
311.269
311.521
311.606
310.771
308.304
306.333
308.558
311.06
312.021
310.416
309.753
307.496
299.544
291.626
295.319
301.412
300.882
299.627
294.898
292.484
292.43
293.354
294.174
295.864
296.638
296.797
292.362
293.984
296.367
292.59
295.06
286.008
284.736
291.896
298.457
303.671
307.73
309.575
288.205
278.732
281.04
283.87
286.757
289.962
292.342
293.449
293.973
294.166
294.171
294.288
294.517
294.774
295.103
295.408
295.709
295.988
296.072
295.55
294.761
294.286
293.971
293.642
293.601
293.406
292.291
291.958
293.061
292.413
291.501
293.103
292.827
291.015
291.88
291.966
290.959
292.103
292.036
292.101
293.787
293.564
295.277
296.763
296.303
298.968
298.747
295.666
294.526
294.258
293.501
292.034
292.023
293.653
294.981
295.702
296.313
296.839
296.105
295.695
296.566
295.806
297.998
298.455
294.659
293.495
294.725
296.654
296.029
292.922
295.603
300.561
300.255
298.325
297.5
296.575
295.536
295.277
295.504
296.012
296.726
297.37
298.003
298.578
299.213
300.089
301.091
302.066
302.804
303.169
303.216
303.201
303.274
303.597
303.925
304.414
305.885
306.023
305.595
304.856
304.145
303.555
303.679
304.113
302.2
302.85
301.575
303.012
301.733
298.311
297.847
302.108
302.147
297.239
293.32
295.384
297.622
294.142
290.756
293.615
293.591
282.122
281.494
297.508
308.961
309.594
307.692
306.128
301.114
290.296
278.447
272.521
272.433
272.913
276.565
289.761
299.777
302.089
299.613
293.878
288.705
291.049
293.929
293.609
293.904
294.18
293.906
296.004
293.948
293.823
294.853
289.98
286.963
278.027
262.7
261.921
265.198
268.293
265.386
261.759
255.149
252.687
252.092
252.376
254.315
257.84
259.286
258.431
251.509
252.814
254.032
246.593
248.495
242.136
261.662
248.907
253.627
259.558
268.04
274.31
291.462
279.744
277.34
279.161
283.514
289.194
293.026
294.548
294.561
294.06
293.672
293.781
294.294
294.502
294.393
294.093
293.381
292.727
291.959
290.9
289.874
289.173
289.001
288.93
288.714
288.8
288.96
288.837
289.105
289.324
289.094
289.717
288.943
287.286
288.496
288.459
286.566
287.271
286.409
285.609
286.489
285.77
287.486
289.18
290.302
294.403
296.415
297.34
299.081
297.221
292.798
290.557
290.84
291.853
292.879
295.109
295.932
295.478
295.325
295.753
297.874
295.797
295.634
296.583
295.024
295.559
297.329
297.282
296.558
296.055
295.935
295.514
295.012
295.684
296.577
297.478
298.733
299.997
301.262
302.322
303.251
303.965
304.683
305.289
305.918
306.538
307.258
308.064
309.031
309.928
310.701
311.179
311.533
312.01
312.667
312.935
314.063
313.688
315.077
314.927
315.545
315.163
315.415
316.884
314.928
316.233
314.105
316.153
317.274
312.398
307.602
314.062
320.89
312.447
297.731
300.113
310.829
302.185
288.979
296.826
303.409
281.831
276.651
296.659
313.67
322.423
328.84
333.161
327.444
312.873
289.006
268.976
258.479
257.831
266.118
282.544
296.4
300.152
298.182
296.662
294.734
295.777
287.866
286.249
286.849
290.826
297.795
309.524
302.156
295.859
293.268
287.665
281.762
269.761
259.581
265.777
276.565
269.149
260.972
252.572
252.488
256.995
256.24
250.269
247.899
247.52
248.689
244.544
242.708
244.293
242.132
241.585
236.943
259.384
326.279
262.248
246.956
234.489
236.563
242.263
293.929
283.003
276.929
276.072
280.459
287.917
292.485
293.976
293.646
292.742
292.362
293.173
294.346
293.879
292.163
290.637
289.38
288.841
288.574
288.585
288.963
289.672
290.511
291.146
291.471
292.051
292.663
292.721
292.545
292.964
293.409
293.475
293.421
293.997
294.981
293.497
292.372
293.105
289.933
286.982
287.092
284.149
282.971
284.969
285.076
286.401
290.625
293.97
295.397
297.652
297.761
293.686
291.009
292.033
294.536
296.543
295.103
293.632
294.302
295.085
294.241
293.821
294.899
294.698
293.428
291.746
291.467
293.836
294.264
295.299
296.167
297.257
298.559
299.671
300.356
301.149
301.803
302.236
302.603
302.6
302.624
302.731
302.843
303.235
303.347
303.525
303.599
303.863
304.331
304.863
305.703
306.005
306.65
306.763
308.172
308.826
309.86
309.667
310.903
310.845
311.83
312.541
312.695
315.184
313.377
314.164
314.345
314.007
315.604
316.936
312.801
310.9
323.146
327.311
304.745
300.239
321.09
315.025
291.216
299.997
309.177
288.945
281.58
287.599
291.443
298.801
305.428
313.994
322.631
322.396
302.183
275.51
257.665
253.278
261.734
279.248
291.962
292.479
292.974
295.796
303.988
306.428
291.577
290.501
286.175
285.75
295.002
310.047
306.66
299.806
292.034
288.309
280.245
268.776
260.168
260.822
282.775
272.108
266.127
254.547
261.062
271.51
274.049
266.114
257.818
246.558
245.709
238.241
242.776
247.475
243.434
253.083
246.485
299.093
346.867
286.492
274.635
227.485
223.634
225.174
295.266
285.884
278.272
276.529
282.336
290.032
293.628
294.388
293.877
293.554
294.321
294.855
293.694
290.413
287.307
286.99
288.497
289.888
290.74
291.476
291.688
291.65
291.459
291.6
291.639
291.678
291.547
291.362
291.012
291.591
292.209
292.021
292.723
293.558
294.66
295.951
296.485
297.213
296.451
293.956
292.164
289.621
286.482
284.938
284.1
285.194
287.674
289.468
292.889
296.513
297.271
298.664
297.425
292.675
291.851
293.455
293.877
289.132
290.114
295.952
294.018
294.252
297.339
296.372
293.602
295.25
294.966
295.852
297.58
298.879
299.73
300.164
300.121
299.478
299.239
299.207
299.279
299.769
300.168
300.764
301.4
302.157
302.864
303.649
304.161
304.698
305.166
305.708
306.514
306.899
307.904
307.953
308.786
309.173
310.221
310.549
311.455
311.415
313.227
313.366
314.043
313.161
312.423
315.804
315.515
314.122
314.541
315.816
314.637
314.212
317.5
311.487
309.333
322.88
313.225
300.43
314.11
325.888
306.666
300.861
304.139
295.136
289.958
289.932
287.421
287.769
284.11
285.904
301.836
317.376
310.317
283.878
262.659
255.402
262.192
276.872
287.618
287.436
287.713
287.049
288.887
306.698
299.844
297.482
292.01
289.023
295.161
307.605
307.947
300.072
286.818
289.922
279.571
265.488
259.007
270.244
298.654
271.732
271.87
259.802
273.92
284.044
279.551
273.753
273.597
255.701
247.22
235.991
244.469
252.874
249.1
259.235
260.006
306.451
286.204
280.686
317.813
230.842
221.952
222.24
296.24
288.417
281.261
281.551
288.798
293.683
294.747
294.377
294.047
294.14
293.198
289.981
285.995
284.845
288.384
292.457
293.041
291.51
290.24
289.694
289.675
290.077
290.589
291.443
292.059
292.467
292.326
292.112
291.316
290.649
290.417
289.542
289.423
290.377
290.426
292.441
294.412
294.565
295.65
296.361
294.198
291.962
290.706
288.809
286.268
284.524
284.745
287.042
288.794
291.262
294.521
297.573
297.448
298.226
298.538
292.834
292.281
290.189
289.255
294.788
294.347
291.916
295.595
294.226
292.032
295.753
298.191
299.856
300.922
300.128
299.461
298.324
297.425
297.127
297.696
298.466
299.75
301.275
302.503
303.816
304.748
305.32
305.871
306.102
306.618
306.824
307.559
307.48
308.304
308.146
308.951
309.017
309.363
309.915
311.126
310.61
312.25
311.158
313.004
312.269
315.037
313.719
314.45
314.418
315.805
316.909
315.703
314.984
318.675
315.911
315.336
320.019
314.237
316.244
318.808
311.302
305.479
317.515
319.75
309.773
305.446
299.417
295.319
293.659
295.128
291.311
280.195
282.033
298.124
313.401
317.356
293.9
271.091
257.303
264.819
275.071
286.05
297.562
291.87
292.598
286.432
295.583
301.435
300.911
295.691
292.096
293.825
303.669
308.67
295.478
276.429
293.999
281.179
260.577
259.701
277.076
319.385
277.883
286.824
265.073
290.727
309.312
296.137
273.146
276.673
268.237
252.768
236.064
244.581
255.22
253.461
259.675
264.8
291.416
258.495
261.224
315.463
239.962
222.925
223.613
297.191
291.299
286.407
289.097
293.864
294.829
294.405
294.025
293.397
291.502
287.802
285.587
288.874
293.944
293.598
289.905
289.152
290.963
292.781
294.37
295.634
296.491
297.168
297.217
297.092
296.774
296.382
295.878
294.836
293.56
292.8
292.434
291.693
291.622
291.118
291.065
292.589
292.698
292.262
293.324
293.504
292.24
291.666
290.565
288.693
286.643
285.6
287.972
287.889
287.679
290.843
296.231
296.923
297.049
299.095
296.992
299.611
298.324
291.456
294.366
297.558
292.578
292.959
293.63
293.078
297.888
300.775
299.958
298.173
296.114
295.7
295.922
296.819
298.22
300.08
301.727
304.349
306.363
308.043
309.277
309.903
309.986
310.185
309.963
310.43
310.464
311.107
310.688
310.874
310.426
311.812
312.401
312.99
313.192
313.731
312.287
313.024
313.246
314.07
312.717
314.477
312.172
314.397
314.265
314.168
313.44
317.548
314.208
313.003
319.08
315.422
314.354
317.568
317.703
315.525
318.894
312.85
314.832
319.54
313.632
315.839
309.833
299.149
301.905
320.772
309.686
285.646
290.492
307.338
319.318
322.262
296.813
276.765
263.673
265.88
265.651
273.532
315.263
322.886
299.366
290.507
302.418
303.999
303.752
297.633
294.143
292.965
299.343
307.815
290.591
275.259
293.955
285.107
264.865
262.306
284.123
328.405
296.221
308.711
271.641
294.798
317.349
315.135
286.711
274.117
276.023
262.102
237.564
243.807
255.386
255.922
258.99
256.543
278.389
259.707
252.673
278.326
258.204
224.52
225.058
298.061
294.217
291.652
293.891
295.095
294.763
294.37
293.55
290.943
285.954
284.113
288.17
290.584
289.461
292.655
298.189
299.117
298.214
298.305
297.998
297.138
296.337
295.978
295.537
295.735
295.821
295.971
295.93
295.519
294.596
293.514
292.686
291.963
291.183
290.797
289.202
287.63
287.156
286.374
285.35
285.002
284.955
285.504
285.826
286.189
285.354
284.28
286.062
287.104
288.259
286.957
288.251
291.984
295.199
299.405
297.898
297.954
300.072
296.217
296.002
297.614
294.089
293.365
293.971
294.658
299.303
300.158
296.581
294.524
295.034
297.125
298.246
299.746
301.177
303.509
305.943
309.031
310.766
311.737
311.74
311.334
310.777
310.45
310.306
311.01
312.738
314.763
315.721
316.947
314.844
315.956
315.755
314.332
314.381
314.659
314.832
315.743
315.99
316.647
315.914
316.282
314.164
314.606
312.443
314.654
312.733
312.929
318.129
312.674
312.727
318.35
314.617
312.808
317.901
314.445
318.077
314.249
315.422
316.807
313.262
324.86
317.217
296.802
309.697
346.602
334.076
297.277
298.533
313.144
329.118
315.126
294.733
281.507
268.045
269.964
258.971
281.142
337.198
359.05
326.55
296.668
307.48
306.941
304.087
296.474
296.604
291.308
292.99
301.518
288.271
280.272
290.162
278.232
264.865
262.669
285.65
314.412
313.578
309.502
286.028
287.922
296.011
300.219
295.94
277.358
277.625
274.178
241.762
239.886
253.062
256.703
258.25
244.938
260.164
253.336
247.969
279.811
272.806
226.381
225.693
298.649
296.316
295.015
295.741
295.349
294.002
291.81
287.963
285.036
287.051
293.297
298.618
298.996
295.491
293.037
294.447
296.517
296.336
295.433
295.501
295.778
296.145
296.735
296.633
297.189
297.568
297.85
298.061
297.803
297.059
295.697
294.104
292.867
291.51
290.237
289.722
288.235
286.687
286.184
286.123
286.654
287.052
287.865
288.134
288.062
286.887
286.502
286.972
285.891
285.69
281.774
283.055
286.465
285.408
291.286
294.207
295.234
299.243
296.071
295.058
296.052
293.282
293.324
294.163
294.847
298.746
298.263
294.182
294.505
296.889
298.472
298.398
299.65
302.362
305.919
309.308
311.743
311.683
310.45
308.947
308.115
307.86
307.389
307.178
306.792
307.206
309.297
309.709
312.664
311.117
312.725
313.153
311.801
311.374
311.117
311.465
313.116
313.342
316.276
315.168
315.906
313.816
314.114
313.374
310.78
314.981
312.64
313.62
317.157
313.301
314.664
317.732
313.989
315.348
314.217
316.69
313.09
317.357
314.364
311.862
328.611
317.924
295.178
314.164
339.808
331.795
306.866
311.285
321.527
331.513
303.668
299.231
284.436
267.225
273.999
265.639
310.732
329.971
331.951
317.282
305.218
319.894
311.081
302.856
292.193
291.734
289.04
290.888
294.716
284.582
281.071
288.79
271.328
262.037
259.961
280.248
290.34
302.178
281.968
299.912
291.094
283.811
281.215
287.319
287.753
276.729
282.749
251.31
236.054
246.669
253.567
257.066
240.901
253.546
251.808
240.532
288.92
273.297
229.614
226.519
298.912
297.207
296.03
295.235
293.338
292.053
289.504
284.649
283.436
289.71
294.866
292.445
292.429
299
300.365
296.042
295.989
298.194
298.4
298.384
297.886
298.693
298.431
297.458
297.587
297.235
297.557
298.266
298.698
298.864
298.309
297.235
295.926
295.156
294.113
293.121
292.921
292.096
291.152
290.862
290.627
290.789
291.005
291.34
291.667
291.199
290.898
289.607
287.984
287.451
283.958
285.637
284.515
279.103
284.086
285.644
288.244
294.021
292.358
293.256
294.931
292.904
293.523
294.606
295.53
297.73
296.09
293.396
295.995
298.566
297.778
298.259
301.9
307.06
310.499
312.316
311.573
309.519
307.109
306.063
306.96
308.906
309.78
310.699
311.005
310.102
310.418
307.478
308.711
306.716
308.227
310.064
310.26
309.439
311.571
310.799
311.957
312.267
315.075
316.534
311.903
315
311.554
311.146
310.014
309.759
313.881
313.381
313.368
315.098
313.022
315.336
316.238
313.471
312.969
316.903
312.688
318.549
313.287
311.731
325.659
317.54
300.624
313.749
317.936
307.31
303.403
314.731
324.782
325.233
297.47
310.633
282.523
270.779
273.743
282.244
325.577
330.801
301.341
292.286
306.76
323.713
309.705
293.46
278.393
281.909
286.946
288.788
287.676
282.202
283.236
281.762
274.47
264.999
256.565
279.113
280.048
284.952
272.785
290.085
289.054
285.034
278.242
274.751
295.582
281.791
283.749
265.307
238.642
239.723
247.381
252.146
236.398
258.415
264.267
243.278
280.106
273.179
232.892
227.984
299.09
297.938
297.016
295.198
292.917
289.875
285.25
285.127
290.701
296.268
296.681
294.351
296.084
297.947
296.829
298.07
297.813
295.347
296.431
296.417
295.522
296.883
295.971
295.774
296.01
295.241
295.751
296.338
297.38
298.54
299.217
299.082
297.984
296.652
295.612
294.475
293.693
293.534
293.121
292.654
292.554
292.422
292.44
292.682
292.67
292.923
293.291
292.579
292.196
291.549
287.967
288.64
285.281
281.375
284.096
282.935
286.886
290.522
290.039
292.737
293.586
292.541
294.326
294.955
295.57
297.399
296.171
295.063
297.946
297.93
296.481
300.097
305.204
309.264
308.669
307.946
306.355
305.412
304.882
305.741
308.055
310.154
310.393
311.433
312.056
312.457
315.425
313.644
312.929
311.047
310.217
310.891
313.409
309.924
312.175
312.491
309.693
311.49
309.01
315.343
309.446
308.866
312.012
308.215
308.343
309.972
309.05
313.552
313.664
314.684
314.865
313.919
315.742
313.434
312.291
316.984
309.805
316.878
317.258
309.425
317.996
323.941
307.003
307.182
318.155
305.909
306.18
311.018
320.307
321.346
296.823
319.237
278.659
276.775
272.361
293.446
318.504
344.609
317.531
298.772
317.548
326.175
304.117
283.949
276.276
286.48
286.823
286.372
282.147
279.946
280.634
279.277
288.481
272.245
256.539
275.168
276.687
282.41
286.514
273.513
275.487
280.926
280.511
268.424
293.814
291.743
279.633
277.478
244.649
234.652
241.43
250.186
228.415
257.464
270.302
249.004
284.434
273.119
234.861
229.482
299.001
297.466
295.002
291.748
289.228
286.815
285.338
287.774
294.191
297.217
294.496
295.329
298.319
296.515
295.213
295.141
294.544
295.382
296.254
295.434
296.168
296.651
296.916
297.336
297.172
296.495
296.165
295.491
295.47
296.001
296.885
297.752
297.994
297.252
296.004
294.502
292.964
291.805
291.295
291.119
291.111
291.248
291.664
292.158
292.511
292.595
293.316
293.753
294.107
294.804
292.685
293.414
290.024
287.803
287.219
283.768
287.086
288.568
289.997
292.451
291.923
292.034
294.307
294.511
294.825
296.992
296.484
294.681
296.465
295.877
297.224
303.325
306.092
306.785
303.511
302.42
301.992
302.227
302.802
303.764
305.217
305.403
303.737
303.825
303.154
302.29
305.333
307.047
307.386
308.778
310.622
310.203
312.288
310.325
307.788
309.473
307.458
307.907
308.602
307.819
309.548
306.442
305.905
309.41
305.446
308.787
310.192
309.988
312.309
312.855
313.266
312.952
315.42
313.465
310.862
320.223
309.335
310.93
322.629
307.573
309.61
328.632
310.685
303.455
323.543
312.948
311.574
306.747
318.037
322.638
303.605
325.324
278.556
279.568
272.347
292.024
315.632
330.308
318.926
310.347
324.438
324.878
301.702
285.964
286.063
287.584
281.643
282.142
280.571
278.822
275.582
283.112
309.997
282.98
260.721
259.749
267.53
275.124
275.587
272.61
273.303
270.419
278.175
265.472
279.044
295.884
272.093
286.471
252.658
234.293
240.705
256.694
227.09
258.697
273.79
252.897
286.693
272.563
236.186
231.114
299.006
297.481
295.001
292.625
291.067
287.726
286.445
292.08
296.735
296.512
296.23
296.635
297.288
296.703
294.966
295.656
296.842
296.888
297.657
297.621
296.47
296.167
297.065
297.261
297.779
298.027
297.23
296.517
295.735
295.411
295.633
296.226
296.99
297.158
296.646
295.368
293.836
292.264
290.994
290.191
290.075
290.522
291.552
293.391
294.731
294.842
294.919
294.469
293.675
293.943
292.891
295.121
293.772
292.641
290.68
287.31
289.075
287.137
288.76
291.139
290.965
292.773
294.545
294.202
295.355
297.865
296.878
294.497
296.628
297.051
300.209
303.959
302.461
301.114
298.811
298.896
299.059
299.401
300.393
301.207
302.065
302.133
302.27
304.502
305.496
306.145
307.046
307.333
306.561
306.986
307.761
308.062
307.223
308.851
307.117
303.814
306.918
304.512
306.395
307.914
304.757
310.032
308.455
310.225
311.308
309.007
312.845
312.166
311.204
312.491
311.776
310.705
315.205
313.313
306.118
318.57
312.258
303.759
322.889
311.295
305.373
324.644
314.936
305.171
319.733
312.17
315.381
304.118
316.424
321.449
309.756
322.689
279.674
275.267
273.283
291.149
319.552
324.952
313.057
302.546
311.454
317.2
299.894
288.405
285.81
280.743
278.274
280.463
281.184
275.017
273.369
295.586
331.269
292.309
263.489
247.693
263.595
265.783
259.396
271.145
273.438
264.389
275.634
267.013
254.382
287.708
265.262
289.735
268.273
241.019
247.756
269.31
234.387
265.444
275.439
257.011
287.097
271.503
237.152
232.25
298.974
297.713
296.09
294.472
294.574
293.001
288.292
289.919
296.554
297.321
293.886
294.954
298.555
297.246
294.378
294.75
295.694
296.614
296.404
296.075
295.747
295.317
295.343
295.875
296.98
298.418
298.378
297.765
296.898
295.956
295.416
295.211
295.715
296.525
297.053
296.883
296.025
294.861
293.798
293.269
292.808
292.733
293.546
295.161
296.169
295.734
294.823
294.407
294.449
294.361
293.285
293.886
293.446
293.791
293.421
292.085
292.687
287.08
288.613
291.701
290.718
292.776
294.195
293.991
296.26
298.448
296.109
292.895
296.729
297.15
300.554
301.637
299.542
299.024
298.779
299.322
299.614
300.363
302.706
303.585
303.725
304.267
304.395
305.936
304.88
306.612
306.736
306.597
306.884
307.539
307.195
307.259
305.381
301.99
306.335
300.966
301.458
307.936
302.253
310.096
308.836
307.479
312.893
310.671
311.874
311.675
312.805
314.768
310.99
311.42
312.444
307.95
312.282
314.727
305.959
313.67
315.743
301.232
317.7
311.622
304.54
317.679
313.479
305.183
315.335
309.877
316.004
301.232
316.479
322.447
316.54
316.851
280.386
268.563
274.672
292.582
314.838
316.104
302.453
288.556
295.138
304.76
299.063
288.779
281.127
279.545
275.523
276.571
277.955
270.336
275.833
306.567
340.328
289.596
252.614
248.727
266.065
263.406
265.665
273.505
270.387
263.086
277.148
271.416
242.482
272.791
264.735
276.438
283.053
249.324
255.079
278.801
244.328
271.242
273.17
259.847
289.163
269.195
237.571
233.314
298.854
297.031
295.218
295.748
296.043
292.74
289.358
289.847
293.755
297.554
296.973
294.365
295.446
297.163
297.366
296.565
295.269
295.293
294.905
295.199
296.199
296.37
297.123
296.843
296.385
297.88
299.079
299.167
298.913
298.216
297.461
296.573
295.77
295.87
296.662
297.339
297.541
297.426
296.63
295.995
295.426
294.695
294.466
294.868
295.076
294.023
292.736
293.162
293.994
293.603
293.324
292.346
291.251
291.3
292.074
293.037
293.844
289.264
292.353
292.567
289.016
291.601
293.535
294.374
296.087
298.171
294.9
292.172
297.168
298.121
300.8
299.648
298.351
298.566
298.615
298.533
298.353
297.501
300.055
302.113
302.513
305.253
304.774
305.033
302.944
304.283
304.172
303.64
303.635
304.833
304.537
301.881
305.268
301.3
301.798
305.113
298.987
306.858
304.655
306.76
313.51
310.056
313.686
313.139
310.853
312.257
310.43
313.288
312.072
309.393
312.178
308.243
308.551
311.582
306.726
307.472
314.3
299.783
315.491
311.072
306.033
315.342
312.55
305.157
312.811
310.388
314.452
299.19
316.77
320.876
316.102
311.582
280.59
264.03
274.205
288.709
310.435
317.325
289.113
277.649
282.569
285.534
286.293
282.463
277.043
276.089
267.966
270.249
275.983
270.475
275.724
294.269
316.158
276.974
239.845
251.983
262.463
260.076
268.094
286.12
277.211
269.657
282.37
271.302
246.504
263.251
264.862
260.604
283.342
251.393
254.736
275.922
250.577
272.939
268.912
261.926
288.995
266.262
237.372
233.969
299.028
297.309
294.638
294.667
295.851
293.169
290.34
290.535
292.348
294.372
295.639
295.727
295.8
296.268
296.957
297.712
298.142
297.469
295.275
294.383
295.154
295.793
296.902
297.517
296.851
296.608
297.096
297.926
298.192
298.056
297.821
297.727
296.994
296.104
296.156
296.862
297.292
297.757
297.474
296.084
294.437
292.766
291.827
292.385
294.227
295.922
296.142
296.06
295.062
292.284
290.761
289.581
288.027
288.33
289.964
291.125
291.304
291.552
294.59
290.653
287.413
291.892
293.951
294.094
294.739
297.458
293.316
292.56
297.267
297.503
299.763
298.595
298.333
298.147
297.208
296.073
296.189
295.559
298.556
300.218
300.212
301.946
300.345
299.876
300.324
303.467
305.354
306.344
307.184
307.541
307.553
304.928
305.3
307.934
302.09
303
302.1
301.194
302.182
305.368
308.503
307.748
310.184
310.921
308.452
311.669
310.199
308.887
308.914
306.948
310.013
308.419
308.569
309.127
307.369
305.426
313.818
297.872
313.715
306.928
303.636
310.727
309.968
304.277
309.761
310.832
310.761
297.732
316.547
317.472
312.211
310
281.577
263.265
270.95
284.518
304.514
316.571
282.552
269.466
273.374
276.202
277.902
276.358
272.279
272.597
262.427
265.209
273.906
270.39
271.547
289.597
294.177
262.926
241.592
251.758
263.344
268.964
281.57
296.013
284.997
279.65
289.761
271.41
251.424
259.826
258.729
263.067
274.909
247.09
250.318
264.138
251.057
270.994
263.347
264.064
288.568
263.116
236.673
234.652
299.192
298.445
296.286
294.63
294.681
294.117
293.198
292.852
293.19
293.779
293.409
293.047
293.062
293.289
293.617
294.746
295.425
294.983
294.357
295.829
296.506
296.945
297.295
297.3
297.932
298.024
297.462
297.738
298.431
297.964
297.382
297.421
297.884
297.654
296.491
295.696
295.305
295.37
296.135
296.739
296.568
296.036
295.13
294.174
294.15
294.982
294.48
293.562
293.685
292.904
291.605
290.69
287.929
286.679
288.009
287.574
288.917
291.868
291.644
288.557
289.056
293.307
293.981
293.254
295.511
296.838
291.299
292.771
297.187
297.031
298.93
297.881
297.309
296.335
294.732
295.111
296.691
298.076
301.595
300.705
300.115
300.01
298.84
299.88
303.692
304.824
305.658
305.989
305.632
303.85
301.022
302.255
302.431
302.649
303.075
299.108
298.504
298.776
298.317
303.231
305.622
304.93
307.758
309.768
307.649
310.599
309.721
307.464
307.935
304.987
307.816
307.262
307.596
308.403
306.482
301.361
310.545
297.167
311.163
305.255
304.658
310.201
309.154
305.453
307.817
311.292
307.517
298.282
314.796
311.856
308.753
311.967
287.639
265.475
266.135
281.245
301.821
305.232
280.903
271.463
271.816
277.92
274.282
271.341
269.243
271.538
265.383
264.072
271.098
269.624
262.382
293.826
296.304
249.14
237.948
245.349
272.837
284.859
298.944
297.679
290.562
287.466
293.995
270.933
252.536
258.006
252.789
273.271
266.866
239.839
247.534
253.158
248.267
267.424
258.14
267.418
287.398
259.652
236.11
235.09
299
298.635
298.24
297.387
297.396
297.241
296.296
294.675
294.376
294.715
294.543
293.914
292.776
291.607
291.088
292.053
293.117
293.589
294.677
296.401
296.957
297.684
297.492
297.171
297.387
298.012
297.809
297.592
298.707
298.602
297.735
296.928
296.751
297.886
298.702
298.46
297.586
296.607
295.903
296.546
297.443
297.197
295.757
293.736
292.71
293.997
295.833
295.411
294.263
293.398
290.959
289.762
288.22
288.239
287.27
286.531
288.978
291.002
289.872
290.058
292.264
293.027
291.482
291.321
296.662
295.507
289.45
293.068
296.544
297.35
297.784
297.162
296.414
295.42
292.898
294.121
294.323
295.59
298.161
297.662
299.106
299.801
299.338
300.473
304.183
305.152
305.367
305.457
305.695
305.82
303.035
302.27
304.548
300.684
298.705