/*--------------------------------*- C++ -*----------------------------------*\
| =========                 |                                                 |
| \\      /  F ield         | OpenFOAM: The Open Source CFD Toolbox           |
|  \\    /   O peration     | Version:  dev                                   |
|   \\  /    A nd           | Web:      http://www.openfoam.org               |
|    \\/     M anipulation  |                                                 |
\*---------------------------------------------------------------------------*/
FoamFile
{
    version     2.0;
    format      ascii;
    class       volVectorField;
    object      U;
    location    "9.148";
}
// * * * * * * * * * * * * * * * * * * * * * * * * * * * * * * * * * * * * * //

dimensions      [0 1 -1 0 0 0 0];

internalField   nonuniform List<vector> 
12225
(
(7.10266 0.0231676 0)
(4.52482 -0.265002 0)
(2.95829 -0.416227 0)
(2.99513 -0.441137 0)
(2.3732 -0.448926 0)
(3.29627 -0.479873 0)
(2.72984 -0.440467 0)
(3.95998 -0.503001 0)
(3.45141 -0.444107 0)
(5.02638 -0.530307 0)
(4.39902 -0.460589 0)
(6.73948 -0.601573 0)
(5.85754 -0.512575 0)
(9.46014 -0.734219 0)
(8.81486 -0.568286 0)
(14.3273 -1.50299 0)
(20.5495 -2.32794 0)
(30.784 1.27851 0)
(9.66714 -0.261661 0)
(9.28877 -0.50475 0)
(6.86897 -0.900543 0)
(7.3661 -1.13216 0)
(4.97864 -1.22611 0)
(6.76747 -1.31414 0)
(4.3019 -1.27596 0)
(6.87896 -1.39594 0)
(4.21794 -1.30387 0)
(7.57241 -1.47474 0)
(4.38825 -1.41513 0)
(9.25331 -1.63499 0)
(5.09093 -1.68666 0)
(12.2819 -2.13036 0)
(7.15858 -2.14912 0)
(17.7222 -5.55031 0)
(14.7613 -4.55993 0)
(27.7591 -7.45659 0)
(9.22289 -1.35502 0)
(12.0637 -1.34515 0)
(9.19262 -1.61709 0)
(11.44 -1.88916 0)
(7.76112 -2.02394 0)
(10.9165 -2.12097 0)
(7.04341 -2.14431 0)
(10.8988 -2.27215 0)
(6.98136 -2.26545 0)
(11.2896 -2.41046 0)
(7.37873 -2.48603 0)
(12.3969 -2.69417 0)
(8.77647 -2.89332 0)
(13.6711 -3.28202 0)
(11.2047 -3.40941 0)
(14.9809 -6.47656 0)
(14.1229 -6.25812 0)
(24.7582 -6.08601 0)
(7.98039 -2.62058 0)
(13.0729 -2.73176 0)
(9.74384 -2.62096 0)
(13.508 -2.91608 0)
(9.67746 -2.85222 0)
(13.2213 -3.1764 0)
(9.81328 -2.95552 0)
(13.0032 -3.42638 0)
(10.2773 -3.0788 0)
(13.2368 -3.66532 0)
(10.617 -3.28135 0)
(13.7199 -4.25294 0)
(11.847 -3.54866 0)
(14.9878 -5.24484 0)
(13.6038 -4.14125 0)
(16.7288 -9.04946 0)
(15.5206 -8.95906 0)
(21.3284 -10.9782 0)
(8.71249 -3.58615 0)
(11.4742 -4.18936 0)
(9.59917 -3.78429 0)
(12.1667 -4.25762 0)
(10.7908 -3.95662 0)
(12.0861 -4.52745 0)
(11.3555 -3.93437 0)
(11.6518 -4.75874 0)
(12.1564 -4.17554 0)
(12.5228 -4.876 0)
(12.6978 -4.26945 0)
(12.6283 -5.63852 0)
(14.1767 -4.72806 0)
(14.1871 -6.59154 0)
(15.2613 -5.0022 0)
(15.7787 -9.92818 0)
(16.0501 -8.25415 0)
(14.7115 -14.9586 0)
(10.0413 -4.81895 0)
(10.3569 -5.5886 0)
(9.92416 -4.99159 0)
(11.2984 -5.91529 0)
(11.3941 -4.9042 0)
(10.8545 -5.96332 0)
(11.2252 -4.79429 0)
(11.0887 -6.3892 0)
(12.2949 -5.28538 0)
(12.0651 -6.39116 0)
(12.7216 -5.29743 0)
(12.6501 -7.28401 0)
(14.2335 -6.02551 0)
(14.1482 -7.97408 0)
(15.2596 -6.90712 0)
(15.668 -10.8004 0)
(15.4992 -9.26498 0)
(12.6546 -14.1564 0)
(9.7756 -6.15571 0)
(10.5214 -7.00947 0)
(10.4362 -6.32457 0)
(10.7822 -7.58167 0)
(11.4225 -6.04716 0)
(10.9343 -7.22041 0)
(11.2312 -6.15707 0)
(11.8958 -7.91616 0)
(12.2601 -6.68057 0)
(11.889 -7.66947 0)
(12.8101 -6.59946 0)
(12.9794 -8.70023 0)
(13.88 -7.59698 0)
(14.0879 -9.51079 0)
(15.0493 -8.34785 0)
(14.8573 -11.8158 0)
(14.622 -10.5126 0)
(13.028 -14.3249 0)
(10.0111 -7.41683 0)
(10.5112 -8.60048 0)
(10.9859 -7.47057 0)
(10.685 -8.9944 0)
(10.9658 -7.24941 0)
(10.8275 -8.53104 0)
(11.4958 -7.51594 0)
(11.521 -9.29566 0)
(11.8137 -7.6875 0)
(11.8783 -9.00394 0)
(12.7659 -8.1918 0)
(13.053 -10.0705 0)
(13.508 -9.0527 0)
(13.8144 -10.6979 0)
(14.3881 -9.86339 0)
(14.7344 -12.2361 0)
(14.0484 -11.5318 0)
(13.3883 -14.2717 0)
(10.0877 -8.48647 0)
(10.3206 -9.83562 0)
(10.9131 -8.56116 0)
(10.6845 -9.94576 0)
(10.7941 -8.36281 0)
(10.8849 -9.73459 0)
(11.392 -8.80305 0)
(11.1001 -10.2539 0)
(11.524 -9.03663 0)
(12.0449 -10.1817 0)
(13.0212 -9.45296 0)
(13.0793 -11.0079 0)
(13.4339 -10.3222 0)
(13.6881 -11.7773 0)
(14.0215 -11.1772 0)
(14.3358 -12.938 0)
(13.8204 -12.708 0)
(13.354 -14.3909 0)
(9.73851 -9.8028 0)
(10.3652 -11.3124 0)
(10.6816 -9.96662 0)
(10.7211 -11.3675 0)
(11.0239 -9.81957 0)
(11.264 -10.8795 0)
(11.4835 -10.0425 0)
(11.2825 -11.3605 0)
(11.6517 -10.5737 0)
(11.8962 -11.6113 0)
(12.5309 -11.0734 0)
(12.4998 -12.1284 0)
(12.7901 -11.634 0)
(13.056 -12.7785 0)
(13.1673 -12.5521 0)
(13.2667 -13.6517 0)
(13.0043 -13.6783 0)
(12.7652 -14.5864 0)
(10.2034 -11.2144 0)
(10.5612 -12.7212 0)
(10.526 -11.4755 0)
(10.573 -12.6076 0)
(10.7377 -11.4489 0)
(11.0723 -12.331 0)
(11.3106 -11.6306 0)
(11.436 -12.5011 0)
(11.6178 -12.0456 0)
(11.7921 -12.7544 0)
(11.9884 -12.4436 0)
(11.9945 -13.31 0)
(12.1691 -13.1766 0)
(12.4244 -13.9991 0)
(12.4353 -13.9652 0)
(12.5255 -14.6423 0)
(12.4324 -14.9658 0)
(12.4224 -15.7315 0)
(9.93987 -13.0152 0)
(10.5038 -14.1783 0)
(10.461 -13.2655 0)
(10.5644 -14.0911 0)
(10.5788 -13.2617 0)
(10.8378 -13.6894 0)
(10.9837 -13.3279 0)
(11.2696 -13.8701 0)
(11.4697 -13.7295 0)
(11.748 -14.1593 0)
(11.9658 -14.0891 0)
(12.1238 -14.5762 0)
(12.2247 -14.5793 0)
(12.3432 -15.162 0)
(12.3835 -15.3814 0)
(12.4864 -15.8598 0)
(12.4727 -16.2082 0)
(12.3436 -16.6303 0)
(9.82537 -14.8465 0)
(10.3332 -15.8034 0)
(10.3515 -15.0784 0)
(10.4284 -15.4407 0)
(10.4893 -15.0433 0)
(10.7604 -15.2837 0)
(11.0315 -15.1631 0)
(11.2501 -15.4019 0)
(11.3825 -15.4031 0)
(11.5374 -15.6336 0)
(11.6546 -15.7316 0)
(11.7752 -16.0534 0)
(11.8752 -16.2124 0)
(11.9879 -16.573 0)
(12.0919 -16.8626 0)
(12.1134 -17.1828 0)
(12.102 -17.5166 0)
(11.9181 -17.8889 0)
(10.2671 -16.7145 0)
(10.4247 -17.3994 0)
(10.4635 -16.9322 0)
(10.5482 -17.0408 0)
(10.7215 -16.8891 0)
(10.9656 -16.9123 0)
(11.1894 -16.8796 0)
(11.3875 -16.9697 0)
(11.5198 -17.0012 0)
(11.6429 -17.1427 0)
(11.7639 -17.2383 0)
(11.8453 -17.4355 0)
(11.8898 -17.6445 0)
(11.8847 -17.8589 0)
(11.8543 -18.0909 0)
(11.8338 -18.4044 0)
(11.725 -18.643 0)
(11.4973 -18.8784 0)
(10.1002 -18.3522 0)
(10.2717 -18.8837 0)
(10.5732 -18.6558 0)
(10.7234 -18.6407 0)
(10.8343 -18.5499 0)
(10.9666 -18.5127 0)
(11.1179 -18.4673 0)
(11.2658 -18.4747 0)
(11.3738 -18.5139 0)
(11.4766 -18.5871 0)
(11.5642 -18.6618 0)
(11.6495 -18.7919 0)
(11.7018 -18.9209 0)
(11.7575 -19.0671 0)
(11.7084 -19.1922 0)
(11.6681 -19.3822 0)
(11.5877 -19.5858 0)
(11.3547 -19.761 0)
(10.0262 -19.6696 0)
(10.0519 -20.2712 0)
(10.2428 -19.9709 0)
(10.3703 -19.8329 0)
(10.4833 -19.711 0)
(10.6513 -19.6587 0)
(10.8141 -19.6535 0)
(11.0001 -19.6631 0)
(11.1515 -19.6799 0)
(11.3113 -19.6919 0)
(11.4265 -19.7192 0)
(11.5187 -19.8041 0)
(11.5606 -19.9051 0)
(11.5727 -19.992 0)
(11.511 -20.1084 0)
(11.4458 -20.1953 0)
(11.313 -20.2826 0)
(11.0836 -20.3224 0)
(10.088 -20.2245 0)
(10.089 -20.8845 0)
(10.2609 -20.609 0)
(10.4303 -20.5559 0)
(10.6115 -20.4679 0)
(10.8551 -20.3939 0)
(11.0515 -20.3628 0)
(11.2247 -20.369 0)
(11.336 -20.361 0)
(11.4734 -20.3125 0)
(11.5428 -20.2403 0)
(11.5935 -20.1786 0)
(11.6018 -20.1212 0)
(11.5839 -20.1043 0)
(11.4895 -20.1166 0)
(11.4134 -20.1798 0)
(11.2765 -20.255 0)
(11.0832 -20.2875 0)
(10.1283 -20.2234 0)
(10.1673 -20.7784 0)
(10.3712 -20.437 0)
(10.5469 -20.3529 0)
(10.71 -20.2866 0)
(10.9132 -20.2312 0)
(11.0717 -20.1737 0)
(11.2121 -20.1031 0)
(11.2987 -20.0117 0)
(11.3995 -19.9035 0)
(11.4373 -19.7931 0)
(11.5078 -19.7193 0)
(11.5234 -19.6811 0)
(11.5694 -19.6467 0)
(11.5384 -19.6196 0)
(11.5146 -19.6367 0)
(11.4331 -19.6274 0)
(11.2095 -19.5636 0)
(10.3181 -19.1564 0)
(10.2966 -19.6796 0)
(10.4705 -19.3542 0)
(10.6835 -19.2591 0)
(10.9276 -19.2088 0)
(11.1523 -19.1687 0)
(11.3291 -19.1189 0)
(11.4854 -19.0181 0)
(11.5792 -18.9188 0)
(11.6903 -18.8074 0)
(11.7804 -18.6694 0)
(11.8593 -18.5674 0)
(11.8924 -18.527 0)
(11.9318 -18.4399 0)
(11.8785 -18.3337 0)
(11.8438 -18.2443 0)
(11.7552 -18.1517 0)
(11.5602 -18.0431 0)
(10.0624 -17.4735 0)
(10.1801 -17.9612 0)
(10.4512 -17.7507 0)
(10.8397 -17.7475 0)
(11.2154 -17.7181 0)
(11.4986 -17.6554 0)
(11.6659 -17.5334 0)
(11.8061 -17.3845 0)
(11.8706 -17.2775 0)
(11.917 -17.1793 0)
(11.9746 -17.0638 0)
(12.0366 -16.9744 0)
(12.0051 -16.9346 0)
(11.9818 -16.8222 0)
(11.9153 -16.6945 0)
(11.837 -16.5931 0)
(11.74 -16.4779 0)
(11.5709 -16.3507 0)
(10.3176 -15.5039 0)
(10.4215 -16.0783 0)
(10.8335 -15.9833 0)
(11.2137 -16.0182 0)
(11.4581 -15.9915 0)
(11.6168 -15.8651 0)
(11.752 -15.6697 0)
(11.9008 -15.4683 0)
(12.0268 -15.3322 0)
(12.1135 -15.2508 0)
(12.1565 -15.1819 0)
(12.2081 -15.0721 0)
(12.1868 -14.9809 0)
(12.1449 -14.8675 0)
(12.0647 -14.7314 0)
(12.0205 -14.6161 0)
(11.9276 -14.5144 0)
(11.7857 -14.3951 0)
(10.4236 -13.5175 0)
(10.7293 -14.0186 0)
(11.1258 -13.9789 0)
(11.4055 -13.9715 0)
(11.6054 -13.8818 0)
(11.8075 -13.7224 0)
(11.9919 -13.5788 0)
(12.1362 -13.4639 0)
(12.2557 -13.3863 0)
(12.3019 -13.3114 0)
(12.2866 -13.2401 0)
(12.2781 -13.1538 0)
(12.2794 -13.0479 0)
(12.2604 -12.9637 0)
(12.2024 -12.8672 0)
(12.1743 -12.7621 0)
(12.0727 -12.6581 0)
(11.9762 -12.5373 0)
(10.4585 -11.5417 0)
(10.7018 -12.0023 0)
(11.092 -11.9157 0)
(11.3287 -11.9657 0)
(11.5137 -11.953 0)
(11.7622 -11.8329 0)
(12.0176 -11.6456 0)
(12.2356 -11.5099 0)
(12.3849 -11.4085 0)
(12.4588 -11.2925 0)
(12.4819 -11.2 0)
(12.5067 -11.19 0)
(12.4788 -11.1131 0)
(12.4473 -11.0404 0)
(12.3731 -10.9644 0)
(12.2908 -10.851 0)
(12.1491 -10.7772 0)
(11.9995 -10.6672 0)
(10.1729 -9.55993 0)
(10.5632 -10.0524 0)
(11.2004 -10.0129 0)
(11.6295 -9.94833 0)
(11.9203 -9.86943 0)
(12.1667 -9.77277 0)
(12.3893 -9.70455 0)
(12.5707 -9.62308 0)
(12.6787 -9.5384 0)
(12.7474 -9.45751 0)
(12.7986 -9.38654 0)
(12.8279 -9.32637 0)
(12.79 -9.25407 0)
(12.7742 -9.18331 0)
(12.7352 -9.09377 0)
(12.6569 -9.00841 0)
(12.5754 -8.94458 0)
(12.4095 -8.83724 0)
(10.5321 -7.75977 0)
(10.8153 -8.32167 0)
(11.2407 -8.31878 0)
(11.6506 -8.20087 0)
(12.0611 -8.09824 0)
(12.4157 -8.02501 0)
(12.652 -7.94896 0)
(12.799 -7.84784 0)
(12.8873 -7.75958 0)
(12.9255 -7.69527 0)
(12.9266 -7.64692 0)
(12.9442 -7.59153 0)
(12.9216 -7.55125 0)
(12.8734 -7.49457 0)
(12.8067 -7.43971 0)
(12.7062 -7.36767 0)
(12.575 -7.28444 0)
(12.401 -7.2013 0)
(10.4815 -6.13686 0)
(11.0147 -6.52641 0)
(11.6792 -6.5331 0)
(12.1386 -6.48556 0)
(12.4603 -6.41849 0)
(12.715 -6.33968 0)
(12.9145 -6.24157 0)
(13.0752 -6.13223 0)
(13.1975 -6.06216 0)
(13.2607 -6.01913 0)
(13.2471 -6.00735 0)
(13.2043 -5.97153 0)
(13.0978 -5.93694 0)
(12.9663 -5.85204 0)
(12.8136 -5.77905 0)
(12.6321 -5.71624 0)
(12.4295 -5.67183 0)
(12.2357 -5.60801 0)
(10.3012 -4.72876 0)
(10.9729 -5.14342 0)
(11.8169 -5.0513 0)
(12.343 -4.93785 0)
(12.6261 -4.86443 0)
(12.771 -4.82168 0)
(12.8606 -4.76626 0)
(12.9157 -4.6869 0)
(12.9446 -4.61914 0)
(12.9108 -4.56143 0)
(12.8106 -4.49724 0)
(12.6456 -4.44746 0)
(12.4383 -4.39489 0)
(12.2333 -4.31137 0)
(11.999 -4.27833 0)
(11.7598 -4.23631 0)
(11.5418 -4.21842 0)
(11.3258 -4.15687 0)
(10.3332 -3.33275 0)
(11.0069 -3.86104 0)
(11.6719 -3.73133 0)
(11.9768 -3.55966 0)
(12.0299 -3.40863 0)
(11.8989 -3.30039 0)
(11.692 -3.24258 0)
(11.4647 -3.18668 0)
(11.2186 -3.13268 0)
(10.9631 -3.08391 0)
(10.6912 -3.0259 0)
(10.3969 -2.98137 0)
(10.1201 -2.92039 0)
(9.84071 -2.88063 0)
(9.54811 -2.8641 0)
(9.26157 -2.82563 0)
(8.99824 -2.81683 0)
(8.71913 -2.79231 0)
(10.3415 -2.38203 0)
(10.4533 -2.70802 0)
(10.1021 -2.47938 0)
(9.50488 -2.24212 0)
(8.98966 -2.01598 0)
(8.54317 -1.86612 0)
(8.1711 -1.78474 0)
(7.84728 -1.74241 0)
(7.53294 -1.70611 0)
(7.24657 -1.67705 0)
(6.96141 -1.64975 0)
(6.70039 -1.62057 0)
(6.45094 -1.60422 0)
(6.20811 -1.58735 0)
(5.96042 -1.57371 0)
(5.7149 -1.56722 0)
(5.48352 -1.5752 0)
(5.25971 -1.56657 0)
(8.77137 -0.88681 0)
(6.61071 -0.895523 0)
(5.20478 -0.652923 0)
(4.41863 -0.545593 0)
(4.15934 -0.498471 0)
(4.13106 -0.49106 0)
(4.19007 -0.488911 0)
(4.25518 -0.496813 0)
(4.29463 -0.499611 0)
(4.30942 -0.498523 0)
(4.29543 -0.494397 0)
(4.26803 -0.488186 0)
(4.21911 -0.485149 0)
(4.15151 -0.481935 0)
(4.05923 -0.481445 0)
(3.9439 -0.485669 0)
(3.8032 -0.498985 0)
(3.60158 -0.505414 0)
(-0.234736 0.986524 0)
(-0.853649 0.974616 0)
(-1.42589 0.974837 0)
(-1.93371 0.843944 0)
(-2.36505 0.735973 0)
(-2.68182 0.628997 0)
(-2.84742 0.491835 1.13893e-17)
(-2.90246 0.388035 -1.13287e-17)
(-2.87179 0.327934 0)
(-2.81178 0.295076 -1.11899e-17)
(-2.72864 0.289519 0)
(-2.64363 0.271502 0)
(-2.56761 0.26272 0)
(-2.48717 0.230988 1.0905e-17)
(-2.36909 0.197252 0)
(-2.21758 0.168636 0)
(-2.03905 0.140592 -1.07084e-17)
(-1.82563 0.0923136 0)
(-1.56288 0.0533853 0)
(-1.2562 0.0455585 0)
(-0.924855 0.0420828 1.04251e-17)
(-0.58535 0.0191654 0)
(-0.224269 -0.0147518 1.02878e-17)
(0.168192 -0.0268117 0)
(0.572936 -0.0599796 0)
(0.984153 -0.0942602 1.0077e-17)
(1.43926 -0.100178 0)
(1.89765 -0.096228 -9.92182e-18)
(2.33981 -0.0757029 0)
(2.7622 -0.0402934 9.79505e-18)
(3.15437 -0.0240214 0)
(3.52512 0.0121568 0)
(3.83998 0.060593 0)
(4.11526 0.118321 0)
(4.35078 0.211714 0)
(4.44855 0.297092 -9.38586e-18)
(4.47226 0.393164 0)
(4.39253 0.529786 1.84828e-17)
(4.13838 0.596469 0)
(3.80109 0.764315 -1.82105e-17)
(3.24477 0.895305 0)
(2.51684 0.96342 0)
(1.59488 1.28483 1.78698e-17)
(0.28142 1.3949 0)
(-1.01301 0.7694 1.78154e-17)
(-1.9365 -0.194991 -1.77734e-17)
(-2.6135 -0.69611 0)
(-3.09009 -0.520837 -1.74762e-17)
(-3.25131 -0.150564 -1.73396e-17)
(-3.22463 0.00676612 0)
(-3.30845 -0.0508228 0)
(-3.55912 -0.115844 0)
(-3.87698 -0.0273825 0)
(-4.1634 0.133263 0)
(-4.50787 0.255985 1.67215e-17)
(-4.96658 0.277536 0)
(-5.36293 0.125218 -1.67274e-17)
(-5.63743 -0.187974 0)
(-5.58234 -0.530819 0)
(-5.18697 -0.686786 1.62281e-17)
(-4.90528 -0.634518 0)
(-4.41176 -0.672556 -1.59521e-17)
(-3.83009 -0.746153 0)
(-3.1425 -0.792133 0)
(-2.22602 -1.16943 0)
(-0.416228 -1.75096 1.5296e-17)
(1.12449 -1.61024 0)
(2.6892 -0.767095 0)
(3.45984 -0.305015 1.51305e-17)
(3.64097 0.351948 0)
(3.30427 0.911933 1.49642e-17)
(2.83855 0.274835 0)
(2.52099 -1.09723 0)
(2.62723 -2.16134 0)
(3.01793 -2.10945 -1.48114e-17)
(2.62159 -1.01806 0)
(1.31159 -0.121884 0)
(-0.0134095 0.125285 -1.45661e-17)
(-1.13729 0.0553966 -1.43733e-17)
(-2.07741 -0.093623 0)
(-2.80995 -0.23857 -1.41107e-17)
(-3.3646 -0.354121 0)
(-3.77039 -0.44745 -2.78244e-17)
(-4.0318 -0.530655 0)
(-4.19357 -0.60212 -2.74625e-17)
(-4.28146 -0.65178 0)
(-4.27914 -0.702708 2.7121e-17)
(-4.18958 -0.758062 0)
(-4.03285 -0.811711 0)
(-3.80356 -0.861604 0)
(-3.52018 -0.908891 -2.64642e-17)
(-3.16254 -0.96862 0)
(-2.70661 -1.02935 2.60857e-17)
(-2.14958 -1.08943 0)
(-1.5246 -1.13688 -2.57335e-17)
(-0.895473 -1.14789 -2.5579e-17)
(-0.242641 -1.21752 -2.54492e-17)
(0.504742 -1.26729 0)
(1.23825 -1.26974 0)
(1.9203 -1.27379 0)
(2.60686 -1.30067 0)
(3.15922 -1.25198 0)
(3.61463 -1.256 0)
(4.20805 -1.32411 0)
(4.67581 -1.27986 0)
(5.0377 -1.30774 2.38948e-17)
(5.36549 -1.25554 2.37373e-17)
(5.63973 -1.28227 0)
(5.87013 -1.24275 0)
(5.92034 -1.16501 0)
(5.70518 -1.12523 2.31315e-17)
(5.59684 -1.19104 0)
(5.59359 -1.20434 0)
(5.48885 -1.10044 0)
(4.96626 -0.924665 0)
(4.23486 -0.905838 -2.23486e-17)
(3.73063 -0.972462 0)
(3.28003 -0.888137 0)
(2.53153 -0.775133 2.18266e-17)
(1.53702 -0.795003 -2.16378e-17)
(0.662811 -0.811716 0)
(-0.357967 -0.72374 -2.1087e-17)
(-1.60255 -0.689954 0)
(-2.66084 -0.683593 2.09772e-17)
(-3.3429 -0.620079 0)
(-4.05006 -0.487467 0)
(-4.93375 -0.375186 0)
(-5.17836 -0.483604 0)
(-4.81359 -0.564677 0)
(-4.77686 -0.348416 -3.98594e-17)
(-5.37319 -0.0960404 -3.99166e-17)
(-6.62434 0.0326952 0)
(-7.94777 -0.00736603 0)
(-8.82651 -0.0324087 0)
(-9.23715 -0.126277 3.90877e-17)
(-9.16953 -0.28391 0)
(-9.03042 -0.0954643 0)
(-9.32766 0.164947 0)
(-9.42121 0.0885402 3.89678e-17)
(-8.49173 -0.0813724 -3.82318e-17)
(-7.76846 0.290359 0)
(-7.01909 0.246161 0)
(-5.88515 0.268492 -3.78421e-17)
(-5.47539 0.283293 -3.76168e-17)
(-5.58643 0.38688 0)
(-6.07832 0.546819 0)
(-6.5036 0.350007 3.65086e-17)
(-4.354 -0.217693 -3.60224e-17)
(-1.28234 -0.00979297 0)
(0.405707 0.336246 0)
(0.772866 0.398361 -3.59195e-17)
(0.83357 0.340494 0)
(0.735799 0.301625 0)
(0.32063 0.538468 -3.47114e-17)
(-1.01694 0.543486 0)
(0.106111 0.00699712 -3.25256e-17)
(3.18163 0.162245 0)
(3.68086 0.607934 0)
(3.83192 0.308047 0)
(3.91793 0.466175 3.25912e-17)
(4.14453 0.201769 0)
(5.85668 -0.132987 0)
(8.20194 -0.262836 0)
(10.1111 -0.172906 0)
(11.6489 -0.213697 0)
(12.6743 -0.215055 0)
(13.0318 -0.152305 3.11421e-17)
(12.2161 0.0618547 3.10358e-17)
(10.4783 -0.0503649 0)
(10.0355 -0.251621 0)
(8.23699 -0.0540484 0)
(5.81468 -0.0621889 -3.00298e-17)
(2.61909 -0.0601172 0)
(-0.112351 -0.680392 5.80274e-17)
(1.27759 -1.24628 -5.75211e-17)
(2.80082 -1.1033 -5.87397e-17)
(3.96741 -1.2044 5.97714e-17)
(2.43242 -0.418711 -6.04022e-17)
(-1.84455 -0.517364 6.07913e-17)
(-4.60622 -0.848036 0)
(-0.0945011 2.71939 0)
(-0.587001 2.85181 0)
(-1.05256 2.64363 -2.28184e-17)
(-1.48341 2.42365 0)
(-1.89065 2.14098 2.29452e-17)
(-2.2043 1.74733 2.3035e-17)
(-2.37326 1.33065 1.15262e-17)
(-2.40362 1.00382 1.14923e-17)
(-2.35792 0.811828 0)
(-2.31873 0.724745 1.13562e-17)
(-2.26816 0.709946 0)
(-2.24421 0.696428 0)
(-2.20786 0.691819 -2.22475e-17)
(-2.15976 0.617736 -1.10554e-17)
(-2.06124 0.510988 2.1971e-17)
(-1.91166 0.421131 2.18351e-17)
(-1.73949 0.336484 1.0852e-17)
(-1.54729 0.201413 0)
(-1.31808 0.0378231 0)
(-1.04441 -0.0924984 0)
(-0.715342 -0.151388 1.05053e-17)
(-0.352848 -0.201967 0)
(0.00883368 -0.296925 -3.09891e-17)
(0.3889 -0.350594 0)
(0.800194 -0.412108 0)
(1.20002 -0.509612 -1.00908e-17)
(1.655 -0.561466 0)
(2.1297 -0.595854 9.89754e-18)
(2.56808 -0.607436 1.97238e-17)
(3.07226 -0.52827 -9.77105e-18)
(3.55731 -0.500822 0)
(3.94356 -0.484297 0)
(4.40027 -0.38548 0)
(4.80831 -0.306693 1.88944e-17)
(5.14784 -0.186124 1.88157e-17)
(5.46488 0.0710724 9.34448e-18)
(5.66095 0.226109 0)
(5.84724 0.43332 -1.84299e-17)
(5.9567 0.773756 0)
(6.03964 0.985463 1.81618e-17)
(5.96685 1.33972 0)
(5.85872 1.72705 0)
(5.69038 1.99817 -1.7955e-17)
(5.14631 2.48494 0)
(4.89877 2.56915 -5.32597e-17)
(4.38242 2.34411 1.77931e-17)
(2.81522 2.29441 0)
(1.31299 1.43955 1.73585e-17)
(0.0856627 0.072386 1.71806e-17)
(-1.0149 -0.308116 0)
(-1.62454 0.155825 0)
(-1.90372 0.507449 0)
(-2.38099 0.388449 0)
(-3.10389 0.199559 0)
(-3.73905 0.165189 -1.65162e-17)
(-4.15529 0.0785791 -3.28756e-17)
(-4.18926 -0.115912 1.63677e-17)
(-4.27709 -0.370157 0)
(-4.07662 -0.994351 -3.22611e-17)
(-3.29561 -1.36854 1.59895e-17)
(-3.17062 -1.42856 0)
(-2.25786 -1.95787 1.57918e-17)
(-1.63541 -2.48339 0)
(-1.15527 -2.6799 0)
(-0.132677 -3.9527 3.0807e-17)
(1.56278 -4.96614 -1.52427e-17)
(1.91511 -4.77694 3.03786e-17)
(3.14548 -3.828 -3.03665e-17)
(3.43462 -3.09428 -1.5056e-17)
(3.37794 -2.58828 0)
(3.36023 -2.07127 -1.48241e-17)
(2.93552 -1.65776 0)
(1.25786 -1.03691 0)
(-1.17582 -0.428598 0)
(-3.25182 -0.0911626 -1.44768e-17)
(-4.83731 0.1368 0)
(-5.92183 0.110357 -2.83916e-17)
(-6.70637 -0.155566 4.22775e-17)
(-7.29455 -0.527474 1.40184e-17)
(-7.77878 -0.910496 0)
(-8.08094 -1.26219 1.38914e-17)
(-8.24877 -1.58915 0)
(-8.28679 -1.88209 2.75341e-17)
(-8.24085 -2.1109 0)
(-8.09894 -2.3035 2.72767e-17)
(-7.90975 -2.48314 -5.42759e-17)
(-7.60945 -2.67419 -2.70802e-17)
(-7.23144 -2.84931 0)
(-6.80406 -3.00295 0)
(-6.34312 -3.12783 0)
(-5.85971 -3.25644 2.65488e-17)
(-5.25738 -3.42325 0)
(-4.51606 -3.61976 -2.61978e-17)
(-3.62945 -3.80247 0)
(-2.72336 -3.91952 7.76113e-17)
(-1.84864 -3.92477 2.57713e-17)
(-1.00896 -4.12883 2.57235e-17)
(-0.0335534 -4.21489 0)
(0.742807 -4.19378 0)
(1.58892 -4.1817 0)
(2.46141 -4.21906 0)
(3.13539 -4.10465 0)
(3.77701 -4.12243 4.89576e-17)
(4.48029 -4.27119 4.86981e-17)
(5.06935 -4.12172 0)
(5.65584 -4.16838 -2.39935e-17)
(6.04194 -4.04796 -2.37375e-17)
(6.42047 -4.12093 0)
(6.75215 -3.99557 -4.67334e-17)
(7.00771 -3.67477 0)
(6.89575 -3.55609 2.2701e-17)
(6.81099 -3.79573 0)
(6.91879 -3.80395 0)
(7.12405 -3.50638 -4.4516e-17)
(6.60803 -3.00311 0)
(5.73955 -3.0376 2.1911e-17)
(5.40455 -3.33058 0)
(5.35556 -3.08804 0)
(4.89754 -2.62557 2.09799e-17)
(3.8943 -2.43308 2.11954e-17)
(3.19516 -2.37937 0)
(2.52654 -1.93769 -1.99305e-17)
(1.1292 -1.76362 0)
(-0.744849 -2.03805 2.07239e-17)
(-2.19871 -2.20279 4.29177e-17)
(-3.3876 -1.98871 0)
(-4.60229 -2.00984 0)
(-4.59602 -2.48047 0)
(-3.05553 -2.44629 0)
(-1.86993 -1.76905 3.90577e-17)
(-1.40344 -0.862839 1.11191e-16)
(-2.05229 -0.169255 0)
(-3.48115 0.227197 0)
(-4.95532 -0.151974 0)
(-6.11167 -0.437392 -3.58425e-17)
(-6.50212 -0.302795 0)
(-7.5549 0.208477 0)
(-8.79724 0.495762 7.62837e-17)
(-9.14101 0.0433386 3.73865e-17)
(-8.74603 -0.684115 3.68117e-17)
(-8.106 -0.0543574 0)
(-6.23877 -0.366809 0)
(-4.79205 0.328335 3.60239e-17)
(-4.12294 1.03029 -3.534e-17)
(-4.59535 1.49726 0)
(-5.15258 1.60657 0)
(-5.73846 0.370007 -3.51109e-17)
(-4.00393 -1.75171 1.05015e-16)
(-0.731061 -1.42341 0)
(2.53373 0.0362748 0)
(3.2583 0.900033 3.42989e-17)
(3.26278 1.00085 0)
(3.05499 1.21866 6.54135e-17)
(1.5334 1.94132 -3.12438e-17)
(-0.297262 1.26644 0)
(0.207987 -1.25856 2.95204e-17)
(4.08143 -0.945426 5.89071e-17)
(5.20022 0.940252 0)
(5.41146 0.470307 0)
(5.30274 0.867144 -2.87475e-17)
(5.21653 -0.152715 0)
(6.975 -1.1909 5.44034e-17)
(9.59188 -1.50418 0)
(11.4161 -1.25557 0)
(12.6934 -1.22247 0)
(12.9663 -0.97856 0)
(12.6812 -0.736935 -2.74396e-17)
(11.2142 -0.305713 -2.72134e-17)
(9.52948 -0.972906 0)
(9.27059 -1.40753 0)
(7.00307 -0.77163 0)
(4.88903 -0.849997 2.55113e-17)
(1.46746 -0.698112 0)
(-1.11053 -2.97784 -4.96143e-17)
(0.368066 -4.53714 5.33375e-17)
(2.84255 -3.82489 5.04564e-17)
(4.87141 -3.58345 5.05595e-17)
(3.20103 -0.92186 5.20808e-17)
(-1.73283 -0.951616 5.29692e-17)
(-4.88752 -1.58105 0)
(0.0136258 3.73838 0)
(-0.203085 4.27241 0)
(-0.517343 4.12867 2.25339e-17)
(-0.869964 3.83865 2.25075e-17)
(-1.2062 3.46795 -2.26988e-17)
(-1.49832 2.89396 -2.29858e-17)
(-1.6605 2.19867 -8.54001e-21)
(-1.71317 1.6388 0)
(-1.71912 1.37711 0)
(-1.76845 1.35628 0)
(-1.85791 1.39668 0)
(-1.991 1.38616 0)
(-2.09522 1.30809 6.67178e-17)
(-2.11334 1.1303 0)
(-2.03874 0.892036 -2.19315e-17)
(-1.92661 0.715401 -2.17513e-17)
(-1.78563 0.573498 0)
(-1.60632 0.411076 0)
(-1.4463 0.196311 0)
(-1.27231 -0.0337026 0)
(-1.08825 -0.209691 -2.06801e-17)
(-0.85784 -0.304351 0)
(-0.635147 -0.398085 2.03229e-17)
(-0.422829 -0.520102 0)
(-0.149564 -0.606989 0)
(0.18955 -0.703685 0)
(0.536905 -0.8034 3.94762e-17)
(0.909098 -0.889188 0)
(1.3656 -0.953513 -1.94724e-17)
(1.86052 -0.903373 3.86854e-17)
(2.30005 -0.826282 0)
(2.72455 -0.841534 0)
(3.15453 -0.738754 0)
(3.60026 -0.57167 -1.86735e-17)
(3.9226 -0.372832 -1.86205e-17)
(4.21552 -0.0358762 0)
(4.51632 0.152994 0)
(4.75877 0.309254 3.62879e-17)
(4.95577 0.650841 3.59202e-17)
(5.26328 0.949729 -3.55662e-17)
(5.45451 1.29516 0)
(5.6072 1.7285 0)
(5.88319 2.08995 0)
(5.84621 2.54301 0)
(5.9599 2.83364 3.48736e-17)
(5.96488 3.06673 3.50912e-17)
(5.24335 3.14888 -3.50704e-17)
(4.78756 3.06189 0)
(4.03512 2.99043 0)
(2.18928 2.216 0)
(0.588242 0.949276 0)
(-0.410846 0.424954 3.32161e-17)
(-1.11508 0.869014 0)
(-1.82091 1.29364 0)
(-2.50096 1.01471 3.28106e-17)
(-3.19662 0.231241 3.28652e-17)
(-3.64879 -0.636115 0)
(-4.03774 -1.33186 -6.48881e-17)
(-3.68086 -2.73854 3.22317e-17)
(-3.35695 -3.18257 -3.20527e-17)
(-2.88672 -3.07722 0)
(-1.51948 -3.86965 0)
(-0.669621 -3.60469 0)
(-0.212472 -3.94608 0)
(0.700379 -5.71131 -3.08763e-17)
(0.79303 -6.28202 -6.13572e-17)
(-0.0365292 -5.58877 -3.06784e-17)
(-0.223843 -3.7038 3.04604e-17)
(-1.25212 -2.49118 0)
(-2.17746 -1.36654 -5.97424e-17)
(-3.49338 -0.601542 -5.92947e-17)
(-4.78047 0.067161 -5.87944e-17)
(-6.07855 0.280512 5.82836e-17)
(-7.10657 0.233224 0)
(-7.97068 0.0145641 8.67547e-17)
(-8.60219 -0.23713 0)
(-9.00747 -0.553933 -2.86939e-17)
(-9.22529 -1.00286 -2.87085e-17)
(-9.30965 -1.52685 0)
(-9.27553 -2.07653 0)
(-9.15197 -2.6217 -5.68115e-17)
(-8.94865 -3.0883 0)
(-8.70018 -3.4942 -5.63133e-17)
(-8.40622 -3.82205 0)
(-8.10347 -4.10531 5.57732e-17)
(-7.70762 -4.3943 1.11125e-16)
(-7.25508 -4.67353 0)
(-6.72812 -4.90095 0)
(-6.25999 -5.08336 0)
(-5.74504 -5.26605 5.45932e-17)
(-5.2469 -5.49524 0)
(-4.5567 -5.86134 5.40626e-17)
(-3.79349 -6.27143 0)
(-2.73264 -6.54668 0)
(-1.88309 -6.66048 -1.06581e-16)
(-0.988062 -6.5793 0)
(-0.173165 -6.88698 -5.27173e-17)
(0.877756 -7.01733 0)
(1.59927 -6.95964 -5.21704e-17)
(2.46572 -7.01754 0)
(3.22458 -7.09289 0)
(4.05575 -6.90874 0)
(4.64934 -6.83533 -1.52697e-16)
(5.4297 -7.17232 -5.09314e-17)
(6.04247 -6.86545 0)
(6.69937 -6.93054 0)
(7.08156 -6.68475 0)
(7.48086 -6.74178 0)
(7.68022 -6.71127 4.93437e-17)
(7.92764 -6.18136 -9.60425e-17)
(8.01954 -5.75091 -4.72181e-17)
(7.8388 -6.13641 9.5372e-17)
(7.48649 -6.52104 9.67408e-17)
(7.89015 -5.8808 4.69736e-17)
(7.90157 -4.56579 0)
(6.88252 -4.65469 8.87067e-17)
(5.93075 -5.61073 0)
(5.95749 -5.28151 -8.80061e-17)
(5.83643 -4.22663 -4.20594e-17)
(4.57413 -3.98185 0)
(3.80033 -4.30765 8.66017e-17)
(3.67362 -3.45565 4.0186e-17)
(2.52299 -2.41948 0)
(0.428233 -2.24172 4.11822e-17)
(-1.40942 -2.3622 -1.3082e-16)
(-3.2854 -2.06326 0)
(-5.33164 -2.33806 0)
(-6.45605 -4.27724 0)
(-4.9162 -4.95432 0)
(-2.62446 -3.69313 -8.38107e-17)
(-1.13449 -1.87247 -7.74627e-17)
(-0.953243 -0.384892 0)
(-1.86351 0.385263 0)
(-2.99386 0.414475 0)
(-4.78882 -0.0822663 0)
(-5.90561 0.128733 0)
(-6.98604 1.29125 0)
(-7.94642 1.59002 -7.63921e-17)
(-8.44626 0.821913 -6.46704e-19)
(-8.6959 -0.0622924 0)
(-9.82371 0.100248 0)
(-7.10392 -0.976566 -7.26986e-17)
(-5.86434 0.191756 0)
(-3.98118 1.44609 6.99987e-17)
(-4.03692 2.47904 6.90059e-17)
(-3.55982 2.80176 0)
(-3.83738 1.30012 0)
(-3.42412 -1.80124 -7.38224e-17)
(-2.08439 -2.50761 -1.41775e-16)
(1.82176 -0.522849 0)
(2.84333 1.39485 0)
(3.10748 1.89029 0)
(3.95648 2.58935 -6.50295e-17)
(1.8825 3.81648 6.1862e-17)
(1.04809 2.65734 0)
(-0.281667 -1.57873 1.18843e-16)
(2.36249 -1.52608 6.06091e-17)
(4.42471 1.66718 -1.18848e-16)
(5.17972 0.956707 0)
(5.69563 1.66182 0)
(5.67153 -0.000662514 -1.09471e-16)
(7.61023 -1.74481 -5.62402e-17)
(10.6056 -2.16309 0)
(12.5144 -1.70359 0)
(13.8832 -1.53896 0)
(14.0042 -1.06219 0)
(13.5808 -0.654137 -1.04178e-16)
(11.9829 -0.210473 0)
(10.705 -1.4718 0)
(10.5384 -1.93202 0)
(8.14677 -1.1322 0)
(6.10745 -1.13648 0)
(2.49538 -0.915751 0)
(-0.580513 -3.65943 -1.05671e-16)
(-3.05865 -6.10148 0)
(0.39659 -6.66224 0)
(6.24472 -6.06124 -1.98396e-16)
(5.56104 -1.5985 9.35079e-17)
(0.825626 -1.64077 -9.47396e-17)
(-1.89788 -2.17423 9.56988e-17)
(-0.00567158 4.35271 0)
(-0.097783 5.11214 -4.62504e-17)
(-0.266623 5.17097 0)
(-0.521435 4.95095 -2.22807e-17)
(-0.800506 4.55262 0)
(-1.01694 3.82007 0)
(-1.11242 2.91818 2.30679e-17)
(-1.19764 2.25234 0)
(-1.32736 2.00673 0)
(-1.52325 2.09209 0)
(-1.78149 2.25559 0)
(-2.01512 2.25017 0)
(-2.12841 1.99171 -8.90111e-17)
(-2.16444 1.57547 -4.41048e-17)
(-2.1808 1.16767 4.35309e-17)
(-2.19497 0.896117 0)
(-2.20608 0.713514 0)
(-2.19997 0.552049 0)
(-2.18016 0.374828 0)
(-2.15115 0.197172 0)
(-2.13738 0.0501621 -4.12285e-17)
(-2.06656 -0.0391807 -4.10322e-17)
(-1.95486 -0.144394 4.08551e-17)
(-1.83872 -0.383197 -4.06505e-17)
(-1.63268 -0.643557 0)
(-1.33466 -0.863268 0)
(-1.00417 -1.06622 -4.00061e-17)
(-0.645022 -1.31661 0)
(-0.226503 -1.4633 0)
(0.312289 -1.38966 -3.91978e-17)
(0.707824 -1.31828 -3.89631e-17)
(1.11671 -1.29403 -3.86954e-17)
(1.60284 -1.14455 0)
(1.95134 -0.947219 0)
(2.32349 -0.710264 3.80749e-17)
(2.68702 -0.39404 0)
(2.92565 -0.196938 0)
(3.15438 0.0179748 -3.70569e-17)
(3.4263 0.280275 3.63587e-17)
(3.66548 0.498259 -3.57359e-17)
(3.87609 0.882585 0)
(4.16472 1.3045 0)
(4.54861 1.59817 -6.90246e-17)
(4.73574 2.08992 0)
(5.10372 2.57297 -6.8541e-17)
(5.48448 2.86612 -1.02569e-16)
(5.42854 3.37317 1.03326e-16)
(5.39372 3.651 -6.91492e-17)
(5.12763 3.62493 0)
(4.49956 3.68935 0)
(3.71399 3.38466 -6.85421e-17)
(2.30726 2.66038 -3.35987e-17)
(0.87651 1.82077 0)
(-0.119448 1.43763 0)
(-0.62531 1.32183 -3.30274e-17)
(-1.28002 0.779235 -6.60053e-17)
(-1.69711 -0.00368909 0)
(-2.26741 -1.23906 6.45561e-17)
(-2.28307 -2.8727 -6.41905e-17)
(-3.23465 -3.80942 6.39149e-17)
(-2.24517 -5.34855 0)
(-1.8197 -6.0886 0)
(-1.92921 -5.42659 0)
(-1.42807 -5.93333 0)
(-1.69008 -6.43937 0)
(-2.88009 -5.38157 6.06215e-17)
(-4.12015 -4.791 0)
(-4.70918 -3.64533 0)
(-5.91679 -2.34336 0)
(-6.65068 -1.448 1.19235e-16)
(-7.72915 -0.648815 5.94269e-17)
(-8.35625 -0.268779 5.92459e-17)
(-9.08045 -0.163105 -1.18133e-16)
(-9.48541 -0.348106 5.88508e-17)
(-9.83277 -0.688285 -5.87075e-17)
(-9.9626 -1.17998 0)
(-10.009 -1.74851 5.82265e-17)
(-9.82635 -2.37629 0)
(-9.65702 -3.0466 0)
(-9.29655 -3.70579 0)
(-8.96945 -4.30871 1.13563e-16)
(-8.51215 -4.83896 -5.63458e-17)
(-8.1702 -5.2669 -5.58345e-17)
(-7.7096 -5.66206 -1.11327e-16)
(-7.34659 -6.01046 -1.66054e-16)
(-6.84386 -6.37275 -5.51103e-17)
(-6.4266 -6.7094 0)
(-5.82774 -6.96427 -1.085e-16)
(-5.3879 -7.18157 0)
(-4.74847 -7.38259 -1.61211e-16)
(-4.20428 -7.74719 0)
(-3.42839 -8.2012 -1.59602e-16)
(-2.70145 -8.83363 0)
(-1.75199 -9.07737 0)
(-0.934315 -9.22378 -5.21826e-17)
(-0.215252 -9.16298 0)
(0.860542 -9.67621 5.22139e-17)
(1.79724 -9.72682 1.03177e-16)
(2.46521 -9.61989 5.16943e-17)
(3.28816 -9.66096 1.02164e-16)
(3.86336 -9.85212 -1.01793e-16)
(4.81178 -9.69054 -1.01338e-16)
(5.22307 -9.47835 2.01988e-16)
(6.0173 -10.1015 0)
(6.58667 -9.66082 0)
(7.36791 -9.60709 9.91635e-17)
(7.77711 -9.34683 -9.85535e-17)
(8.26513 -9.20074 0)
(8.55246 -9.15164 0)
(8.56471 -8.82582 9.80267e-17)
(8.71671 -8.17797 0)
(8.88315 -8.04718 -6.3365e-19)
(8.21844 -8.75857 -6.63673e-19)
(7.82519 -8.78678 9.78879e-17)
(8.19614 -6.74838 0)
(7.98953 -6.01936 -8.93112e-17)
(6.81508 -7.2989 0)
(6.14668 -7.50681 9.23562e-17)
(6.38214 -5.90665 0)
(5.36949 -5.23433 0)
(4.25699 -6.04137 -8.89094e-17)
(3.83124 -4.98195 -8.18124e-17)
(3.27814 -3.28549 0)
(2.11888 -3.01878 -8.10175e-17)
(0.81502 -3.43024 1.62272e-16)
(-0.815608 -2.98322 0)
(-2.49283 -3.18611 0)
(-3.9982 -6.22528 0)
(-4.51752 -7.84652 0)
(-3.18528 -6.41965 8.71259e-17)
(-1.79145 -3.62057 -1.60664e-16)
(-0.861669 -1.03106 0)
(-1.28723 0.313449 0)
(-2.26637 0.712195 0)