/*--------------------------------*- C++ -*----------------------------------*\
| =========                 |                                                 |
| \\      /  F ield         | OpenFOAM: The Open Source CFD Toolbox           |
|  \\    /   O peration     | Version:  dev                                   |
|   \\  /    A nd           | Web:      http://www.openfoam.org               |
|    \\/     M anipulation  |                                                 |
\*---------------------------------------------------------------------------*/
FoamFile
{
    version     2.0;
    format      ascii;
    class       volVectorField;
    object      UMean;
    location    "9.148";
}
// * * * * * * * * * * * * * * * * * * * * * * * * * * * * * * * * * * * * * //

dimensions      [0 1 -1 0 0 0 0];

internalField   nonuniform List<vector> 
12225
(
(7.00364 0.430273 0)
(4.43879 0.192551 0)
(2.55667 0.0311612 0)
(2.51079 -0.0166611 0)
(1.38435 0.0193743 0)
(2.26723 -0.0342859 0)
(0.989456 0.0489932 0)
(2.18241 -0.0591803 0)
(0.797484 0.0716595 0)
(2.29154 -0.0978473 0)
(0.688827 0.0993573 0)
(2.74336 -0.138627 0)
(0.94839 0.10259 0)
(3.39684 -0.172135 0)
(3.53221 -0.168572 0)
(4.6963 0.0499332 0)
(14.848 -2.43447 0)
(7.12041 5.1341 0)
(9.54625 0.981586 0)
(9.54343 0.860873 0)
(6.68666 0.466306 0)
(7.59034 0.214533 0)
(4.09031 0.140337 0)
(6.84299 0.010778 0)
(2.66496 0.13269 0)
(6.68892 -0.0903601 0)
(1.82274 0.141881 0)
(7.03855 -0.165118 0)
(1.26115 0.123941 0)
(8.12079 -0.414494 0)
(1.38584 0.252388 0)
(9.95453 -1.44247 0)
(3.43582 0.271401 0)
(12.3896 -4.06863 0)
(10.4308 -1.9287 0)
(7.77642 0.486213 0)
(9.1184 0.763512 0)
(12.167 0.951383 0)
(8.3294 0.624019 0)
(11.8321 0.443374 0)
(6.22578 0.310365 0)
(11.413 0.206392 0)
(4.58268 0.221608 0)
(11.3148 -0.0196485 0)
(3.87463 0.193089 0)
(11.3759 -0.278003 0)
(4.3515 0.187372 0)
(11.2518 -0.723157 0)
(5.72996 0.175835 0)
(11.0892 -1.49157 0)
(7.21648 0.0519933 0)
(12.1176 -3.86689 0)
(6.93305 0.350046 0)
(9.35352 -2.39038 0)
(7.21886 0.524953 0)
(13.9932 0.960999 0)
(7.92952 0.60952 0)
(14.2956 0.553799 0)
(7.474 0.420982 0)
(14.1167 0.27093 0)
(7.17547 0.396811 0)
(13.7387 -0.145327 0)
(7.25666 0.459747 0)
(13.2699 -0.698988 0)
(7.65961 0.576891 0)
(12.875 -1.42295 0)
(8.26779 0.69929 0)
(12.6517 -2.31333 0)
(9.02556 0.0406807 0)
(11.8878 -3.63661 0)
(8.68734 -1.43389 0)
(8.36346 0.682337 0)
(6.42337 0.570031 0)
(14.0118 0.565895 0)
(8.47294 0.674585 0)
(13.9588 0.284454 0)
(9.16876 0.636822 0)
(13.6442 -0.00270665 0)
(9.51649 0.658004 0)
(13.2146 -0.388893 0)
(9.59132 0.734545 0)
(12.8138 -0.871541 0)
(9.44475 0.877026 0)
(12.5837 -1.52165 0)
(9.14896 1.08987 0)
(12.572 -2.49032 0)
(8.82675 1.13143 0)
(11.6178 -5.02831 0)
(8.54223 1.2651 0)
(8.72193 0.130808 0)
(7.95572 0.616815 0)
(11.8038 0.152412 0)
(9.50464 0.654735 0)
(11.74 0.0502158 0)
(10.0878 0.693922 0)
(11.6009 -0.165699 0)
(10.3201 0.725835 0)
(11.4767 -0.457583 0)
(10.2999 0.782978 0)
(11.39 -0.853643 0)
(10.0319 0.831902 0)
(11.3558 -1.40016 0)
(9.49103 0.80096 0)
(11.4188 -2.13858 0)
(8.79873 0.725272 0)
(10.9988 -3.92116 0)
(7.73191 1.33504 0)
(9.48893 -0.216366 0)
(9.34362 0.812769 0)
(10.4392 -0.266052 0)
(10.1404 0.930586 0)
(10.554 -0.304635 0)
(10.3984 1.02008 0)
(10.582 -0.502987 0)
(10.5199 1.07559 0)
(10.6254 -0.781254 0)
(10.5632 1.15355 0)
(10.6718 -1.15777 0)
(10.5151 1.23527 0)
(10.6999 -1.6357 0)
(10.3664 1.26118 0)
(10.688 -2.3274 0)
(10.0523 1.27113 0)
(10.3757 -3.95516 0)
(8.29783 2.01978 0)
(9.6968 -0.951637 0)
(9.84882 0.701153 0)
(10.1562 -0.326032 0)
(10.4064 0.855051 0)
(10.3899 -0.349935 0)
(10.5801 0.906865 0)
(10.4706 -0.494007 0)
(10.7015 0.89296 0)
(10.5519 -0.686303 0)
(10.8053 0.872704 0)
(10.6437 -0.93525 0)
(10.881 0.823817 0)
(10.7352 -1.23275 0)
(10.9081 0.671294 0)
(10.7535 -1.67274 0)
(10.7233 0.519596 0)
(10.492 -2.47463 0)
(8.89309 0.981135 0)
(9.96341 -0.48405 0)
(10.0855 0.802351 0)
(10.0199 -0.583523 0)
(10.5354 1.02153 0)
(10.3107 -0.604613 0)
(10.675 1.07511 0)
(10.4401 -0.725081 0)
(10.7774 1.04832 0)
(10.5709 -0.890171 0)
(10.8571 1.00379 0)
(10.7114 -1.11792 0)
(10.8988 0.921262 0)
(10.8318 -1.39517 0)
(10.8741 0.734927 0)
(10.8222 -1.7613 0)
(10.6024 0.505831 0)
(10.5204 -2.06957 0)
(9.34959 0.586535 0)
(10.0231 -0.391746 0)
(10.139 0.648667 0)
(10.0424 -0.511995 0)
(10.5102 0.878043 0)
(10.3335 -0.456555 0)
(10.6213 0.869258 0)
(10.482 -0.493691 0)
(10.6977 0.778285 0)
(10.629 -0.572201 0)
(10.7341 0.657928 0)
(10.7635 -0.695426 0)
(10.7178 0.495579 0)
(10.8402 -0.845121 0)
(10.6182 0.26408 0)
(10.7654 -1.03244 0)
(10.2822 0.0702279 0)
(10.4792 -1.05327 0)
(9.62281 0.124153 0)
(10.2067 -0.0329179 0)
(10.141 0.700115 0)
(10.0707 -0.692056 0)
(10.4524 0.902632 0)
(10.2985 -0.619087 0)
(10.5374 0.847772 0)
(10.4302 -0.6457 0)
(10.6031 0.735405 0)
(10.5606 -0.70758 0)
(10.6271 0.586902 0)
(10.6603 -0.791465 0)
(10.6091 0.383259 0)
(10.6812 -0.869554 0)
(10.5268 0.117163 0)
(10.5709 -0.922451 0)
(10.2913 -0.113708 0)
(10.3607 -0.765412 0)
(10.0195 -0.154056 0)
(10.2453 -0.125357 0)
(10.0968 0.468056 0)
(10.1509 -0.49518 0)
(10.3536 0.595815 0)
(10.2934 -0.374692 0)
(10.4202 0.527599 0)
(10.4093 -0.354853 0)
(10.4847 0.418935 0)
(10.5239 -0.374255 0)
(10.513 0.275772 0)
(10.5993 -0.414737 0)
(10.5156 0.0933472 0)
(10.597 -0.461755 0)
(10.4766 -0.10331 0)
(10.4994 -0.500255 0)
(10.357 -0.232139 0)
(10.3644 -0.40573 0)
(10.2657 -0.219863 0)
(10.3737 -0.110246 0)
(10.0501 0.411094 0)
(10.1755 -0.487394 0)
(10.2548 0.437308 0)
(10.2379 -0.367634 0)
(10.3087 0.367453 0)
(10.3306 -0.345692 0)
(10.3792 0.250931 0)
(10.4246 -0.355403 0)
(10.4226 0.0995312 0)
(10.4822 -0.374999 0)
(10.4462 -0.0796786 0)
(10.4817 -0.403545 0)
(10.4329 -0.246692 0)
(10.426 -0.43139 0)
(10.3771 -0.339249 0)
(10.3685 -0.392748 0)
(10.357 -0.320598 0)
(10.4222 -0.27658 0)
(10.0153 0.199668 0)
(10.1907 -0.285857 0)
(10.1932 0.167373 0)
(10.2052 -0.179339 0)
(10.2293 0.1317 0)
(10.2791 -0.171395 0)
(10.3061 0.0472659 0)
(10.3625 -0.197813 0)
(10.3659 -0.0586893 0)
(10.4141 -0.235779 0)
(10.4054 -0.176021 0)
(10.4266 -0.286489 0)
(10.4123 -0.275032 0)
(10.4111 -0.331716 0)
(10.3993 -0.324174 0)
(10.4064 -0.337242 0)
(10.4107 -0.316065 0)
(10.4696 -0.304872 0)
(9.99665 0.0971495 0)
(10.1445 -0.185912 0)
(10.1463 0.0216915 0)
(10.1501 -0.133682 0)
(10.1622 -0.00859745 0)
(10.2089 -0.146173 0)
(10.241 -0.0769388 0)
(10.2919 -0.186752 0)
(10.311 -0.159393 0)
(10.3485 -0.237995 0)
(10.3574 -0.244815 0)
(10.379 -0.298355 0)
(10.3804 -0.316327 0)
(10.3938 -0.350128 0)
(10.3958 -0.361071 0)
(10.4184 -0.380247 0)
(10.4237 -0.381107 0)
(10.4787 -0.387298 0)
(9.99365 0.0155044 0)
(10.106 -0.0858004 0)
(10.1088 -0.0443001 0)
(10.1138 -0.0932437 0)
(10.1187 -0.0748672 0)
(10.1674 -0.118936 0)
(10.1979 -0.120602 0)
(10.2518 -0.163846 0)
(10.274 -0.180583 0)
(10.3153 -0.219184 0)
(10.3277 -0.24396 0)
(10.3596 -0.277857 0)
(10.3658 -0.301376 0)
(10.3938 -0.329047 0)
(10.3994 -0.347035 0)
(10.4327 -0.370846 0)
(10.4354 -0.383834 0)
(10.4882 -0.397054 0)
(9.99175 0.00475771 0)
(10.0636 -0.0251502 0)
(10.0567 -0.0349016 0)
(10.0678 -0.0664624 0)
(10.0778 -0.0757032 0)
(10.128 -0.0997621 0)
(10.1572 -0.115941 0)
(10.2109 -0.144712 0)
(10.2336 -0.168986 0)
(10.2781 -0.199591 0)
(10.2919 -0.226586 0)
(10.3299 -0.257068 0)
(10.3383 -0.283354 0)
(10.373 -0.312095 0)
(10.3787 -0.33685 0)
(10.4151 -0.365587 0)
(10.4145 -0.388106 0)
(10.4633 -0.407525 0)
(9.99159 0.0141448 0)
(10.0467 0.0161475 0)
(10.0399 -0.0105875 0)
(10.0576 -0.0376955 0)
(10.0748 -0.0565462 0)
(10.1255 -0.0778691 0)
(10.1554 -0.0988798 0)
(10.2071 -0.123841 0)
(10.2311 -0.149011 0)
(10.2753 -0.176652 0)
(10.2911 -0.203456 0)
(10.3292 -0.23219 0)
(10.3394 -0.2594 0)
(10.3736 -0.288348 0)
(10.38 -0.315677 0)
(10.414 -0.345748 0)
(10.4131 -0.371607 0)
(10.4566 -0.393423 0)
(9.99171 0.0329228 0)
(10.0502 0.0496372 0)
(10.0566 0.0099274 0)
(10.0799 -0.0180863 0)
(10.1007 -0.0402474 0)
(10.1506 -0.0614915 0)
(10.1819 -0.0836229 0)
(10.2315 -0.106425 0)
(10.2562 -0.130566 0)
(10.2984 -0.155532 0)
(10.315 -0.181097 0)
(10.3507 -0.20735 0)
(10.3614 -0.233585 0)
(10.3925 -0.260437 0)
(10.399 -0.287056 0)
(10.4287 -0.315312 0)
(10.428 -0.341044 0)
(10.4652 -0.36282 0)
(9.98992 0.0406957 0)
(10.0547 0.052641 0)
(10.0828 -0.00634744 0)
(10.1167 -0.040679 0)
(10.1419 -0.0641224 0)
(10.1903 -0.0822755 0)
(10.2223 -0.102104 0)
(10.269 -0.12102 0)
(10.2935 -0.142759 0)
(10.332 -0.164006 0)
(10.3483 -0.187418 0)
(10.3801 -0.210105 0)
(10.3904 -0.234408 0)
(10.4173 -0.257924 0)
(10.4228 -0.282786 0)
(10.4472 -0.307818 0)
(10.4461 -0.332446 0)
(10.4767 -0.352836 0)
(9.99053 0.0315637 0)
(10.0685 0.0219886 0)
(10.1261 -0.0557625 0)
(10.1769 -0.0967744 0)
(10.2125 -0.119797 0)
(10.2609 -0.132758 0)
(10.2937 -0.147792 0)
(10.336 -0.161676 0)
(10.3601 -0.179852 0)
(10.394 -0.196938 0)
(10.4103 -0.217379 0)
(10.4376 -0.236259 0)
(10.4478 -0.257999 0)
(10.4701 -0.278061 0)
(10.4753 -0.300736 0)
(10.4945 -0.322356 0)
(10.4938 -0.345204 0)
(10.5186 -0.36348 0)
(9.99118 0.00986007 0)
(10.092 -0.0297264 0)
(10.1869 -0.120851 0)
(10.2595 -0.162782 0)
(10.3093 -0.181134 0)
(10.3589 -0.187167 0)
(10.3928 -0.196044 0)
(10.4304 -0.204378 0)
(10.4541 -0.218119 0)
(10.4836 -0.230753 0)
(10.5001 -0.247608 0)
(10.5232 -0.262632 0)
(10.5337 -0.281334 0)
(10.5516 -0.298015 0)
(10.5571 -0.318064 0)
(10.5718 -0.336395 0)
(10.5722 -0.356967 0)
(10.5919 -0.373098 0)
(9.9928 -0.023395 0)
(10.1275 -0.103632 0)
(10.2671 -0.204947 0)
(10.3665 -0.241611 0)
(10.4319 -0.250823 0)
(10.4835 -0.248402 0)
(10.5183 -0.250907 0)
(10.5517 -0.253704 0)
(10.5753 -0.262981 0)
(10.6011 -0.271337 0)
(10.6181 -0.284663 0)
(10.6378 -0.296279 0)
(10.6486 -0.312084 0)
(10.6631 -0.325835 0)
(10.6691 -0.343361 0)
(10.6801 -0.358804 0)
(10.6813 -0.377113 0)
(10.6968 -0.391252 0)
(9.99045 -0.0715865 0)
(10.1744 -0.201167 0)
(10.3678 -0.305462 0)
(10.5 -0.327864 0)
(10.5804 -0.322563 0)
(10.6343 -0.310192 0)
(10.6689 -0.305568 0)
(10.6996 -0.302559 0)
(10.7226 -0.306693 0)
(10.7459 -0.31057 0)
(10.7623 -0.319887 0)
(10.7793 -0.328029 0)
(10.7894 -0.340558 0)
(10.8005 -0.351331 0)
(10.8054 -0.365916 0)
(10.8123 -0.37847 0)
(10.8121 -0.394023 0)
(10.8221 -0.405969 0)
(9.99199 -0.136385 0)
(10.2447 -0.323029 0)
(10.5026 -0.419024 0)
(10.6711 -0.417644 0)
(10.7627 -0.394182 0)
(10.8174 -0.37111 0)
(10.8493 -0.358939 0)
(10.8771 -0.350579 0)
(10.8959 -0.350085 0)
(10.9148 -0.350478 0)
(10.9252 -0.356358 0)
(10.9354 -0.361489 0)
(10.9374 -0.370783 0)
(10.9393 -0.378642 0)
(10.9339 -0.389831 0)
(10.9291 -0.399411 0)
(10.9163 -0.411326 0)
(10.9115 -0.420469 0)
(9.98973 -0.219917 0)
(10.3368 -0.468134 0)
(10.6736 -0.539743 0)
(10.8757 -0.508221 0)
(10.9696 -0.464845 0)
(11.0134 -0.428051 0)
(11.0285 -0.404795 0)
(11.0351 -0.388365 0)
(11.0289 -0.381395 0)
(11.0193 -0.376942 0)
(10.9979 -0.37815 0)
(10.9734 -0.379054 0)
(10.9376 -0.383771 0)
(10.8998 -0.387246 0)
(10.8521 -0.393608 0)
(10.8041 -0.398928 0)
(10.7461 -0.405244 0)
(10.6944 -0.410014 0)
(9.98329 -0.332089 0)
(10.4676 -0.64233 0)
(10.8828 -0.667116 0)
(11.0724 -0.602645 0)
(11.1029 -0.537195 0)
(11.0583 -0.48312 0)
(10.9742 -0.444976 0)
(10.8731 -0.416213 0)
(10.7577 -0.397998 0)
(10.6349 -0.383256 0)
(10.5034 -0.374871 0)
(10.3665 -0.36631 0)
(10.2241 -0.362424 0)
(10.0774 -0.356972 0)
(9.92859 -0.355824 0)
(9.77702 -0.353229 0)
(9.62586 -0.352929 0)
(9.47596 -0.35109 0)
(10.0025 -0.453667 0)
(10.619 -0.81896 0)
(10.9016 -0.752071 0)
(10.7932 -0.62375 0)
(10.4937 -0.512538 0)
(10.1376 -0.42919 0)
(9.77007 -0.37356 0)
(9.41754 -0.334717 0)
(9.07674 -0.307287 0)
(8.75539 -0.284601 0)
(8.44641 -0.267645 0)
(8.15332 -0.251321 0)
(7.87258 -0.24003 0)
(7.603 -0.227329 0)
(7.34821 -0.221123 0)
(7.09869 -0.211812 0)
(6.87028 -0.210839 0)
(6.64086 -0.204161 0)
(10.0974 -0.750791 0)
(10.0458 -1.01321 0)
(9.42491 -0.801093 0)
(8.5144 -0.572185 0)
(7.65495 -0.378729 0)
(6.92879 -0.244884 0)
(6.32721 -0.167522 0)
(5.83148 -0.126251 0)
(5.40906 -0.104705 0)
(5.04847 -0.0923235 0)
(4.72838 -0.0849636 0)
(4.44765 -0.0793519 0)
(4.19126 -0.0758085 0)
(3.96237 -0.0718912 0)
(3.75067 -0.0721353 0)
(3.55551 -0.0690823 0)
(3.3833 -0.0802665 0)
(3.21841 -0.0828607 0)
(8.51678 -0.436072 0)
(6.11025 -0.380898 0)
(4.2983 -0.138058 0)
(3.12383 -0.0213913 0)
(2.48104 0.0191307 0)
(2.12042 0.0224701 0)
(1.89618 0.0137108 0)
(1.73487 0.00461264 0)
(1.59884 -0.00157183 0)
(1.4781 -0.00479291 0)
(1.36601 -0.00640594 0)
(1.26385 -0.00671946 0)
(1.16819 -0.00670706 0)
(1.08147 -0.00638913 0)
(0.999439 -0.00665751 0)
(0.919209 -0.00703321 0)
(0.851711 -0.0186112 0)
(0.731188 -0.00613865 0)
(-0.0520541 0.138039 0)
(-0.157144 0.0715571 0)
(-0.207152 0.01648 0)
(-0.195295 -0.0443675 0)
(-0.117998 -0.0991097 0)
(0.0122406 -0.14516 0)
(0.186368 -0.175726 1.11354e-17)
(0.388214 -0.193711 -1.10604e-17)
(0.606572 -0.198124 0)
(0.829109 -0.192876 -1.09173e-17)
(1.04644 -0.178542 0)
(1.24959 -0.157781 0)
(1.43197 -0.131147 0)
(1.58833 -0.101786 1.06427e-17)
(1.71601 -0.0705293 0)
(1.81223 -0.0384442 0)
(1.87609 -0.00627414 -1.04456e-17)
(1.90833 0.0240199 0)
(1.91061 0.0505142 0)
(1.88499 0.0722594 0)
(1.83516 0.0892376 1.01962e-17)
(1.76371 0.1008 0)
(1.67455 0.108691 1.00742e-17)
(1.56938 0.11161 0)
(1.45284 0.109726 0)
(1.32768 0.108082 9.89552e-18)
(1.19413 0.111386 0)
(1.05144 0.116514 -9.77919e-18)
(0.902814 0.121757 0)
(0.74883 0.126792 9.66431e-18)
(0.591046 0.130777 0)
(0.431739 0.133216 0)
(0.273177 0.134356 0)
(0.115841 0.13412 0)
(-0.0399503 0.131213 0)
(-0.192123 0.126517 -9.32962e-18)
(-0.339021 0.120397 0)
(-0.480237 0.113887 1.84405e-17)
(-0.614325 0.107384 0)
(-0.740865 0.100152 -1.82216e-17)
(-0.85839 0.0931119 0)
(-0.967061 0.0863399 0)
(-1.06732 0.0785808 1.78884e-17)
(-1.15867 0.0701959 0)
(-1.24175 0.062476 1.76651e-17)
(-1.31663 0.0552475 -1.75531e-17)
(-1.38283 0.0482759 0)
(-1.44117 0.0422427 -1.73281e-17)
(-1.49278 0.0369186 -1.72151e-17)
(-1.53663 0.0332289 0)
(-1.5729 0.0316191 0)
(-1.60344 0.0315792 0)
(-1.6304 0.0316608 0)
(-1.65477 0.031627 0)
(-1.67794 0.0324923 1.65281e-17)
(-1.70177 0.0340511 0)
(-1.72762 0.0363148 -1.62989e-17)
(-1.75426 0.0384036 0)
(-1.78051 0.0390431 0)
(-1.8063 0.0396314 1.59525e-17)
(-1.83234 0.0413857 0)
(-1.86039 0.0426085 -1.57212e-17)
(-1.89043 0.0442673 0)
(-1.9222 0.045731 0)
(-1.95517 0.0465159 0)
(-1.98877 0.0476479 1.52556e-17)
(-2.02284 0.0495801 0)
(-2.05748 0.0517773 0)
(-2.09274 0.0540846 1.49059e-17)
(-2.12888 0.0553308 0)
(-2.16311 0.0554843 1.46712e-17)
(-2.19434 0.0561225 0)
(-2.22273 0.0567524 0)
(-2.24715 0.0568679 0)
(-2.26635 0.0563773 -1.42051e-17)
(-2.27966 0.0551973 0)
(-2.28764 0.0544223 0)
(-2.29219 0.0542903 -1.38612e-17)
(-2.29373 0.0532587 -1.37477e-17)
(-2.29057 0.0515427 0)
(-2.2809 0.0492174 -1.35225e-17)
(-2.26458 0.0462261 0)
(-2.24123 0.0430021 -2.6602e-17)
(-2.21084 0.0395023 0)
(-2.17395 0.0357649 -2.61666e-17)
(-2.13042 0.0326554 0)
(-2.08132 0.0302157 2.57377e-17)
(-2.02752 0.0282266 0)
(-1.96914 0.0267817 0)
(-1.90682 0.0258052 0)
(-1.84211 0.0252111 -2.49007e-17)
(-1.77476 0.024948 0)
(-1.7064 0.0249026 2.44989e-17)
(-1.63703 0.0254822 0)
(-1.56738 0.0265152 -2.41096e-17)
(-1.49937 0.0290154 -2.3921e-17)
(-1.43218 0.0301505 -2.37367e-17)
(-1.36483 0.0311986 0)
(-1.2993 0.0313081 0)
(-1.23445 0.0325087 0)
(-1.16842 0.0332846 0)
(-1.10333 0.0329081 0)
(-1.03334 0.0318193 0)
(-0.964464 0.0331753 0)
(-0.893524 0.0328322 0)
(-0.826453 0.0351901 2.22129e-17)
(-0.75912 0.0357202 2.20607e-17)
(-0.696871 0.040117 0)
(-0.636313 0.0413967 0)
(-0.58076 0.0410666 0)
(-0.513366 0.0384514 2.14802e-17)
(-0.451228 0.042595 0)
(-0.382359 0.0407983 0)
(-0.317573 0.0437365 0)
(-0.246865 0.0406879 0)
(-0.174093 0.0431422 -2.08059e-17)
(-0.099125 0.0446686 0)
(-0.018621 0.0436887 0)
(0.0664654 0.0450691 2.04288e-17)
(0.15514 0.0450914 -2.03072e-17)
(0.246805 0.0444004 0)
(0.34299 0.0483147 -2.00746e-17)
(0.434335 0.0513322 0)
(0.526727 0.0545747 1.98481e-17)
(0.608872 0.0593217 0)
(0.679968 0.0623628 0)
(0.755075 0.0626254 0)
(0.824489 0.0633214 0)
(0.904139 0.0604735 0)
(0.97779 0.0609867 -3.83962e-17)
(1.0535 0.0625083 -3.81772e-17)
(1.11378 0.0672458 0)
(1.16455 0.0663442 0)
(1.20948 0.0676901 0)
(1.24619 0.063636 3.72528e-17)
(1.29404 0.058835 0)
(1.34333 0.0571932 0)
(1.38825 0.0560657 0)
(1.43681 0.0538488 3.62325e-17)
(1.47595 0.0560498 -3.59645e-17)
(1.52043 0.0527304 0)
(1.55924 0.052765 0)
(1.6006 0.0532332 -3.51496e-17)
(1.62707 0.0582735 -3.48766e-17)
(1.65699 0.0549863 0)
(1.68599 0.0586697 0)
(1.72539 0.0557286 3.40434e-17)
(1.76214 0.0659979 -3.37639e-17)
(1.77027 0.0714151 0)
(1.78378 0.0707712 0)
(1.80892 0.0711267 -3.29271e-17)
(1.84209 0.0758614 0)
(1.85534 0.0834208 0)
(1.86668 0.0891616 -3.20829e-17)
(1.86584 0.093287 0)
(1.88019 0.0981049 -3.15228e-17)
(1.88202 0.105126 0)
(1.88753 0.109176 0)
(1.8745 0.120722 0)
(1.86106 0.126562 3.04336e-17)
(1.84599 0.13306 0)
(1.81415 0.142876 0)
(1.74231 0.15451 0)
(1.6656 0.154559 0)
(1.60031 0.156879 0)
(1.51042 0.165767 0)
(1.38232 0.172537 2.88931e-17)
(1.26312 0.173882 2.87391e-17)
(1.07887 0.181804 0)
(0.872542 0.18444 0)
(0.629543 0.183494 0)
(0.413351 0.16974 -2.83217e-17)
(0.191532 0.162671 0)
(0.0394788 0.146483 5.63486e-17)
(-0.160524 0.143835 -5.62387e-17)
(-0.263176 0.123588 -5.60596e-17)
(-0.424397 0.126651 5.59558e-17)
(-0.459634 0.09654 -5.57537e-17)
(-0.617638 0.1291 5.57338e-17)
(-0.565805 -0.00403607 0)
(0.0101332 0.249023 0)
(0.014531 0.192283 0)
(0.0495916 0.00785039 -2.27961e-17)
(0.120885 -0.198388 0)
(0.235757 -0.384415 2.23649e-17)
(0.388039 -0.535838 2.22183e-17)
(0.569215 -0.64478 1.10438e-17)
(0.769155 -0.710807 1.09814e-17)
(0.976575 -0.737505 0)
(1.18088 -0.731309 1.08544e-17)
(1.37345 -0.695518 0)
(1.54694 -0.637245 0)
(1.69739 -0.562624 -2.13205e-17)
(1.82006 -0.478167 -1.0595e-17)
(1.91489 -0.386195 2.1056e-17)
(1.9801 -0.291588 2.09225e-17)
(2.01702 -0.19921 1.03957e-17)
(2.02574 -0.111116 0)
(2.00871 -0.0280572 0)
(1.9659 0.0467198 0)
(1.90117 0.112235 1.01367e-17)
(1.8146 0.171371 0)
(1.71086 0.224271 -3.00375e-17)
(1.58877 0.26709 0)
(1.45066 0.302054 0)
(1.29703 0.332636 -9.83189e-18)
(1.13139 0.356617 0)
(0.956458 0.373911 9.71552e-18)
(0.776075 0.384981 1.93126e-17)
(0.591124 0.392265 -9.59753e-18)
(0.404387 0.39438 0)
(0.217126 0.390607 0)
(0.0290353 0.383336 0)
(-0.159408 0.376356 1.8731e-17)
(-0.346408 0.367728 1.86166e-17)
(-0.530671 0.355416 9.25127e-18)
(-0.709464 0.340619 0)
(-0.883306 0.323528 -1.82762e-17)
(-1.04825 0.302998 0)
(-1.20659 0.281128 1.80507e-17)
(-1.35666 0.258675 0)
(-1.50012 0.235866 0)
(-1.63542 0.215446 -1.77165e-17)
(-1.76347 0.196317 0)
(-1.88675 0.178325 -5.24863e-17)
(-2.00432 0.159507 1.73856e-17)
(-2.11527 0.14055 0)
(-2.21917 0.123642 1.71654e-17)
(-2.31691 0.106062 1.70551e-17)
(-2.40723 0.0865911 0)
(-2.48834 0.0676931 0)
(-2.56237 0.0531503 0)
(-2.6312 0.043648 0)
(-2.69674 0.0387476 0)
(-2.75844 0.037335 -1.63736e-17)
(-2.81826 0.0368691 -3.25149e-17)
(-2.87653 0.0370304 1.61413e-17)
(-2.93045 0.0345966 0)
(-2.98209 0.0308027 -3.18128e-17)
(-3.03162 0.0295652 1.57874e-17)
(-3.07853 0.0305726 0)
(-3.12631 0.0313603 1.55499e-17)
(-3.17205 0.0339155 0)
(-3.21555 0.0351293 0)
(-3.25733 0.0343192 3.03751e-17)
(-3.29798 0.0334422 -1.50672e-17)
(-3.33418 0.0313332 2.98916e-17)
(-3.36798 0.0284057 -2.96503e-17)
(-3.39644 0.0252648 -1.47046e-17)
(-3.42188 0.0212839 0)
(-3.4412 0.0141021 -1.44628e-17)
(-3.45347 0.00414098 0)
(-3.45996 -0.00642532 0)
(-3.45789 -0.0189448 0)
(-3.44651 -0.0332477 -1.39828e-17)
(-3.42681 -0.0474048 0)
(-3.40051 -0.0577314 -2.74948e-17)
(-3.36835 -0.0650587 4.08937e-17)
(-3.33073 -0.0737481 1.35161e-17)
(-3.2868 -0.0849563 0)
(-3.23487 -0.0978094 1.32877e-17)
(-3.17762 -0.110618 0)
(-3.11465 -0.122798 2.61239e-17)
(-3.04649 -0.133928 0)
(-2.97326 -0.144514 2.56808e-17)
(-2.89489 -0.153952 -5.09217e-17)
(-2.81255 -0.162892 -2.52469e-17)
(-2.72781 -0.170858 0)
(-2.63809 -0.178386 0)
(-2.54617 -0.183999 0)
(-2.45209 -0.188188 2.44066e-17)
(-2.35469 -0.19222 0)
(-2.25611 -0.194913 -2.40004e-17)
(-2.15755 -0.195293 0)
(-2.05844 -0.196879 7.08202e-17)
(-1.95936 -0.196238 2.34167e-17)
(-1.85969 -0.197249 2.32307e-17)
(-1.7621 -0.194482 0)
(-1.66692 -0.193811 0)
(-1.57116 -0.194642 0)
(-1.47299 -0.195276 0)
(-1.37579 -0.197667 0)
(-1.27304 -0.201821 4.43215e-17)
(-1.17668 -0.19985 4.39855e-17)
(-1.07703 -0.199883 0)
(-0.989706 -0.19417 -2.16751e-17)
(-0.893574 -0.194994 -2.15231e-17)
(-0.806701 -0.188208 0)
(-0.712233 -0.187093 -4.24434e-17)
(-0.634055 -0.186347 0)
(-0.537854 -0.196613 2.09375e-17)
(-0.452158 -0.190827 0)
(-0.346665 -0.199203 0)
(-0.252258 -0.195699 -4.10572e-17)
(-0.139279 -0.204481 0)
(-0.0353113 -0.204651 2.02719e-17)
(0.0898971 -0.212521 0)
(0.216139 -0.220132 0)
(0.352023 -0.224522 1.98866e-17)
(0.492577 -0.228998 1.97702e-17)
(0.63784 -0.234472 0)
(0.787055 -0.235067 -1.95329e-17)
(0.946423 -0.236305 0)
(1.10533 -0.228245 1.92964e-17)
(1.26985 -0.218653 3.83626e-17)
(1.41752 -0.212382 0)
(1.57453 -0.213771 0)
(1.71982 -0.213962 0)
(1.87959 -0.215471 0)
(2.0265 -0.210449 3.72302e-17)
(2.18082 -0.207227 1.11006e-16)
(2.31704 -0.188427 0)
(2.44091 -0.183281 0)
(2.56005 -0.172305 0)
(2.66465 -0.173991 -3.60802e-17)
(2.76657 -0.178524 0)
(2.86696 -0.178204 0)
(2.96178 -0.176814 7.06165e-17)
(3.05529 -0.177281 3.50343e-17)
(3.13108 -0.172687 3.47658e-17)
(3.21945 -0.1801 0)
(3.28384 -0.173803 0)
(3.35138 -0.175227 3.3921e-17)
(3.39888 -0.164483 -3.36149e-17)
(3.44441 -0.178577 0)
(3.47503 -0.175561 0)
(3.50967 -0.191444 -3.27219e-17)
(3.53876 -0.173465 9.7189e-17)
(3.55336 -0.168802 0)
(3.56403 -0.179696 0)
(3.57508 -0.19127 3.146e-17)
(3.59571 -0.18918 0)
(3.59091 -0.182621 6.1626e-17)
(3.58888 -0.180931 -3.04717e-17)
(3.56142 -0.185394 0)
(3.55777 -0.194454 2.98456e-17)
(3.53333 -0.190632 5.90566e-17)
(3.52165 -0.192175 0)
(3.47455 -0.185328 0)
(3.45035 -0.194289 -2.85749e-17)
(3.40985 -0.186382 0)
(3.35248 -0.169475 5.58895e-17)
(3.25532 -0.150114 0)
(3.16319 -0.155133 0)
(3.04395 -0.146975 0)
(2.91556 -0.121853 0)
(2.72119 -0.102628 -2.66541e-17)
(2.56199 -0.0756997 -2.64647e-17)
(2.27754 -0.0265728 0)
(2.00524 -0.00187675 0)
(1.67591 0.0228509 0)
(1.3804 0.0189631 2.59595e-17)
(1.04716 0.0232925 0)
(0.839618 0.0139976 -5.16716e-17)
(0.51998 0.0325574 5.16444e-17)
(0.40588 0.00086095 5.14965e-17)
(0.124826 0.0318906 5.14872e-17)
(0.124402 -0.0156887 5.13353e-17)
(-0.173089 0.0792517 5.14989e-17)
(0.0127947 -0.116852 0)
(0.0290424 0.0713743 0)
(0.121087 -0.0379417 0)
(0.228073 -0.241206 2.29131e-17)
(0.340058 -0.468124 2.26645e-17)
(0.474384 -0.692773 -2.25131e-17)
(0.618435 -0.874846 -2.24006e-17)
(0.772687 -1.00374 -1.48132e-21)
(0.924084 -1.07429 0)
(1.0694 -1.0853 0)
(1.19638 -1.04631 0)
(1.30539 -0.966568 0)
(1.3916 -0.857334 0)
(1.45744 -0.72687 6.47141e-17)
(1.49836 -0.586711 0)
(1.51723 -0.441908 -2.13056e-17)
(1.51222 -0.295433 -2.11693e-17)
(1.4862 -0.153969 0)
(1.43775 -0.0203821 0)
(1.37149 0.103593 0)
(1.28719 0.216169 0)
(1.18718 0.315583 -2.05029e-17)
(1.07229 0.398666 0)
(0.947555 0.471065 2.02488e-17)
(0.810234 0.536207 0)
(0.663208 0.591109 0)
(0.507829 0.636082 0)
(0.349482 0.672096 3.95252e-17)
(0.187164 0.699364 0)
(0.0233624 0.718845 -1.95223e-17)
(-0.14146 0.729267 3.87999e-17)
(-0.305571 0.73244 0)
(-0.471963 0.734159 0)
(-0.638569 0.731123 0)
(-0.80402 0.721595 -1.89165e-17)
(-0.965874 0.706322 -1.87957e-17)
(-1.12454 0.684814 0)
(-1.27842 0.657505 0)
(-1.42674 0.625989 3.68589e-17)
(-1.56807 0.591943 3.66192e-17)
(-1.70763 0.557582 -3.6381e-17)
(-1.84214 0.524823 0)
(-1.97483 0.491251 0)
(-2.10185 0.458999 0)
(-2.22515 0.429543 0)
(-2.3442 0.401778 3.52004e-17)
(-2.45724 0.372448 3.49667e-17)
(-2.56513 0.342733 -3.47348e-17)
(-2.66745 0.314125 0)
(-2.7637 0.286155 0)
(-2.85462 0.257107 0)
(-2.94018 0.230291 0)
(-3.02576 0.212553 3.35754e-17)
(-3.10545 0.196734 0)
(-3.18015 0.183596 0)
(-3.24836 0.175845 3.28779e-17)
(-3.3119 0.170734 3.26464e-17)
(-3.37003 0.163947 0)
(-3.42055 0.154757 -6.43596e-17)
(-3.46905 0.147975 3.19484e-17)
(-3.51366 0.141768 -3.1714e-17)
(-3.55259 0.138139 0)
(-3.5885 0.135377 0)
(-3.61865 0.131112 0)
(-3.64381 0.126523 0)
(-3.66638 0.120983 -3.05522e-17)
(-3.68478 0.113224 -6.06457e-17)
(-3.69748 0.105823 -3.00973e-17)
(-3.70677 0.0985342 2.98723e-17)
(-3.70864 0.0872016 0)
(-3.70503 0.0741994 -5.88391e-17)
(-3.6935 0.0581696 -5.83906e-17)
(-3.67638 0.0420495 -5.79456e-17)
(-3.65504 0.0242234 5.75037e-17)
(-3.62468 0.00180825 0)
(-3.58738 -0.0210286 8.49402e-17)
(-3.54411 -0.0407412 0)
(-3.49609 -0.0564183 -2.78773e-17)
(-3.43941 -0.0704387 -2.76645e-17)
(-3.37477 -0.0862179 0)
(-3.3039 -0.103194 0)
(-3.22953 -0.120063 -5.4041e-17)
(-3.15287 -0.135089 0)
(-3.07219 -0.149463 -5.31941e-17)
(-2.9889 -0.163267 0)
(-2.90102 -0.177772 5.23555e-17)
(-2.80954 -0.18927 1.03883e-16)
(-2.71433 -0.199106 0)
(-2.61819 -0.208338 0)
(-2.51903 -0.21581 0)
(-2.42114 -0.221919 5.02909e-17)
(-2.32158 -0.227756 0)
(-2.21869 -0.232432 4.94689e-17)
(-2.11306 -0.2357 0)
(-2.00693 -0.234964 0)
(-1.89848 -0.235141 -9.65051e-17)
(-1.79275 -0.232812 0)
(-1.68509 -0.232333 -4.74618e-17)
(-1.58158 -0.226379 0)
(-1.47382 -0.227049 -4.66943e-17)
(-1.36686 -0.226137 0)
(-1.25772 -0.225179 0)
(-1.15001 -0.22891 0)
(-1.03949 -0.231035 -1.35692e-16)
(-0.939301 -0.222474 -4.48695e-17)
(-0.830245 -0.21905 0)
(-0.737131 -0.208473 0)
(-0.635473 -0.209755 0)
(-0.550041 -0.197468 0)
(-0.445973 -0.19366 4.32346e-17)
(-0.360196 -0.188477 -8.58337e-17)
(-0.25342 -0.205234 -4.26316e-17)
(-0.166564 -0.197491 8.4655e-17)
(-0.0472424 -0.213564 8.40918e-17)
(0.0542674 -0.209563 4.17598e-17)
(0.183965 -0.224702 0)
(0.296362 -0.225505 8.23938e-17)
(0.43486 -0.241667 0)
(0.566559 -0.250697 -8.12826e-17)
(0.714536 -0.257395 -4.03833e-17)
(0.860451 -0.261925 0)
(1.01501 -0.2702 7.97606e-17)
(1.16389 -0.273113 3.96273e-17)
(1.32575 -0.281134 0)
(1.48414 -0.278989 3.90894e-17)
(1.65762 -0.268666 -1.16507e-16)
(1.81713 -0.256779 0)
(1.98161 -0.256239 0)
(2.13372 -0.255994 0)
(2.29413 -0.259289 0)
(2.45068 -0.254697 -7.51528e-17)
(2.60667 -0.251625 -7.46543e-17)
(2.75793 -0.220863 0)
(2.8957 -0.214538 0)
(3.02684 -0.200986 0)
(3.14834 -0.199119 0)
(3.25506 -0.204022 0)
(3.37443 -0.207375 0)
(3.48743 -0.206748 -7.09521e-17)
(3.6002 -0.206402 -1.65187e-20)
(3.69565 -0.198978 0)
(3.80547 -0.209824 0)
(3.89593 -0.197061 -6.86079e-17)
(3.98803 -0.197858 0)
(4.06834 -0.177244 6.74266e-17)
(4.13743 -0.188053 6.68089e-17)
(4.18 -0.171307 0)
(4.23457 -0.189476 0)
(4.27365 -0.165379 -6.49008e-17)
(4.32417 -0.156015 -1.28511e-16)
(4.35188 -0.160172 0)
(4.38471 -0.172158 0)
(4.42641 -0.163116 0)
(4.4393 -0.148675 -6.16908e-17)
(4.46781 -0.135745 6.10032e-17)
(4.46705 -0.135517 0)
(4.48705 -0.14184 1.19373e-16)
(4.47067 -0.129461 5.90322e-17)
(4.48757 -0.127958 -1.16771e-16)
(4.46466 -0.109304 0)
(4.46309 -0.116656 0)
(4.43253 -0.0952515 -1.12753e-16)
(4.39149 -0.0677115 -5.57201e-17)
(4.30669 -0.0382542 0)
(4.24302 -0.0362747 0)
(4.11056 -0.0184561 0)
(4.00075 0.0243569 0)
(3.78902 0.0522706 -1.05595e-16)
(3.62027 0.0960363 0)
(3.32204 0.166764 0)
(3.06374 0.191244 0)
(2.71445 0.21962 0)
(2.39992 0.20296 0)
(2.01082 0.186836 0)
(1.77357 0.15334 -1.00641e-16)
(1.3692 0.150157 0)
(1.24055 0.0826477 0)
(0.855984 0.10538 -1.99435e-16)
(0.850191 0.0233541 9.92575e-17)
(0.463839 0.112138 -9.94108e-17)
(0.659331 -0.127794 9.87909e-17)
(0.020627 -0.0939015 0)
(0.125031 -0.269028 -4.69564e-17)
(0.247742 -0.489552 0)
(0.375596 -0.75499 -2.27969e-17)
(0.502181 -0.998696 0)
(0.618238 -1.18775 0)
(0.722872 -1.30567 2.24461e-17)
(0.803536 -1.34927 0)
(0.866498 -1.31966 0)
(0.905804 -1.2341 0)
(0.927987 -1.11154 0)
(0.930874 -0.96241 0)
(0.919327 -0.795352 -8.66183e-17)
(0.890659 -0.618219 -4.30263e-17)
(0.848377 -0.435415 4.27468e-17)
(0.792181 -0.254254 0)
(0.724116 -0.0814433 0)
(0.642852 0.0800938 0)
(0.551845 0.228934 0)
(0.450608 0.362381 0)
(0.341914 0.480017 -4.1151e-17)
(0.223957 0.581954 -4.08983e-17)
(0.0980663 0.672741 4.0649e-17)
(-0.0336225 0.748838 -4.04013e-17)
(-0.169435 0.811717 0)
(-0.308011 0.859955 0)
(-0.448129 0.896144 -3.96579e-17)
(-0.588614 0.920999 0)
(-0.730042 0.935267 0)
(-0.872037 0.943996 -3.89245e-17)
(-1.01464 0.94956 -3.86812e-17)
(-1.15514 0.947334 -3.84367e-17)
(-1.29262 0.938307 0)
(-1.42689 0.923073 0)
(-1.55662 0.901632 3.7693e-17)
(-1.68137 0.872007 0)
(-1.80219 0.836463 0)
(-1.9194 0.796978 -3.69483e-17)
(-2.03359 0.758949 3.66968e-17)
(-2.14619 0.720828 -3.64481e-17)
(-2.25233 0.68208 0)
(-2.35682 0.64268 0)
(-2.45726 0.606283 -7.14191e-17)
(-2.55491 0.571974 0)
(-2.6472 0.533824 -7.04531e-17)
(-2.73603 0.49571 -1.04963e-16)
(-2.82123 0.459825 1.04242e-16)
(-2.90115 0.423456 -6.90142e-17)
(-2.9779 0.386138 0)
(-3.05209 0.350449 0)
(-3.12586 0.32223 -6.76019e-17)
(-3.19689 0.297734 -3.35705e-17)
(-3.26154 0.272202 0)
(-3.32198 0.251191 0)
(-3.37781 0.235882 -3.28786e-17)
(-3.42819 0.219077 -6.52972e-17)
(-3.47232 0.200201 0)
(-3.5105 0.182372 6.43792e-17)
(-3.54474 0.168105 -6.392e-17)
(-3.57372 0.154726 6.34641e-17)
(-3.59678 0.140928 0)
(-3.61386 0.127832 0)
(-3.62656 0.116717 0)
(-3.6341 0.105301 0)
(-3.63799 0.0947805 0)
(-3.63706 0.0795127 6.07742e-17)
(-3.63187 0.062986 0)
(-3.61946 0.0445094 0)
(-3.60125 0.0236563 0)
(-3.57874 0.00176428 1.18047e-16)
(-3.55067 -0.0222997 5.85911e-17)
(-3.51767 -0.0464127 5.81575e-17)
(-3.47966 -0.0736172 -1.15457e-16)
(-3.43512 -0.105225 5.73035e-17)
(-3.38722 -0.135538 -5.68841e-17)
(-3.33296 -0.163348 0)
(-3.27388 -0.189653 5.60374e-17)
(-3.20479 -0.216642 0)
(-3.13157 -0.24208 0)
(-3.05264 -0.264227 0)
(-2.97227 -0.285229 1.08719e-16)
(-2.88965 -0.304663 -5.39462e-17)
(-2.80379 -0.323932 -5.3533e-17)
(-2.7166 -0.343005 -1.06271e-16)
(-2.62547 -0.363125 -1.58217e-16)
(-2.53327 -0.379177 -5.23438e-17)
(-2.4363 -0.392302 0)
(-2.33956 -0.403861 -1.03071e-16)
(-2.24132 -0.411915 0)
(-2.14309 -0.418115 -1.52205e-16)
(-2.04418 -0.428019 0)
(-1.94637 -0.434415 -1.49831e-16)
(-1.84251 -0.440706 0)
(-1.73818 -0.4414 0)
(-1.62913 -0.442981 -4.87468e-17)
(-1.52157 -0.43987 0)
(-1.41069 -0.439571 4.79726e-17)
(-1.30455 -0.435056 9.5157e-17)
(-1.19052 -0.43674 4.7204e-17)
(-1.08047 -0.438411 9.36503e-17)