/*--------------------------------*- C++ -*----------------------------------*\
| =========                 |                                                 |
| \\      /  F ield         | OpenFOAM: The Open Source CFD Toolbox           |
|  \\    /   O peration     | Version:  dev                                   |
|   \\  /    A nd           | Web:      http://www.openfoam.org               |
|    \\/     M anipulation  |                                                 |
\*---------------------------------------------------------------------------*/
FoamFile
{
    version     2.0;
    format      ascii;
    class       volSymmTensorField;
    object      UPrime2Mean;
    location    "9.148";
}
// * * * * * * * * * * * * * * * * * * * * * * * * * * * * * * * * * * * * * //

dimensions      [0 2 -2 0 0 0 0];

internalField   nonuniform List<symmTensor> 
12225
(
(0.329434 0.019263 0 0.0692435 0 0)
(2.98797 0.0796698 0 0.0781637 0 0)
(7.88511 0.112261 0 0.0768677 0 0)
(14.5431 0.148153 0 0.0755441 0 0)
(22.7165 0.1329 0 0.0764914 0 0)
(32.086 0.200974 0 0.0746475 0 0)
(42.4044 0.0958347 0 0.0765899 0 0)
(53.5544 0.200226 0 0.0738285 0 0)
(65.6548 -0.028565 0 0.0775918 0 0)
(78.2588 0.125443 0 0.0735994 0 0)
(93.0127 -0.30634 0 0.0812941 0 0)
(107.361 -0.116056 0 0.0769736 0 0)
(127.982 -0.672255 0 0.0862982 0 0)
(145.688 -1.27728 0 0.134705 0 0)
(186.033 -1.41125 0 0.116457 0 0)
(198.608 -0.390676 0 2.39476 0 0)
(272.407 -33.55 0 5.81057 0 0)
(576.02 -52.9655 0 18.8356 0 0)
(0.377625 0.0567834 0 0.688744 0 0)
(3.15802 0.252164 0 0.732021 0 0)
(8.41587 0.362005 0 0.71389 0 0)
(15.4828 0.485221 0 0.706388 0 0)
(24.2116 0.452761 0 0.70326 0 0)
(34.4769 0.632571 0 0.683094 0 0)
(45.5505 0.295801 0 0.691897 0 0)
(58.5137 0.608704 0 0.658575 0 0)
(71.5111 -0.135406 0 0.682442 0 0)
(87.1954 0.282188 0 0.645786 0 0)
(102.837 -1.06534 0 0.711113 0 0)
(121.491 -0.766642 0 0.655341 0 0)
(142.925 -2.54296 0 1.06895 0 0)
(166.397 -4.49163 0 1.04682 0 0)
(199.874 -0.925335 0 3.10394 0 0)
(274.52 -9.97591 0 6.60995 0 0)
(281.147 -20.8459 0 8.73908 0 0)
(800.221 -185.255 0 64.7258 0 0)
(0.505204 0.0583377 0 2.13987 0 0)
(3.06575 0.424501 0 2.20177 0 0)
(8.47065 0.570352 0 2.15072 0 0)
(14.8613 0.851638 0 2.1422 0 0)
(24.2892 0.864203 0 2.11913 0 0)
(33.1697 1.05273 0 2.08193 0 0)
(45.2952 0.755888 0 2.07771 0 0)
(56.2339 0.885879 0 2.00694 0 0)
(69.7227 0.171849 0 2.05112 0 0)
(83.495 0.0161982 0 1.95878 0 0)
(98.239 -1.12384 0 2.12205 0 0)
(115.729 -2.44973 0 2.09413 0 0)
(138.696 -3.59715 0 2.6222 0 0)
(154.962 -7.20116 0 2.83165 0 0)
(211.133 -13.015 0 6.12504 0 0)
(223.524 -7.8861 0 6.37953 0 0)
(353.248 -62.2917 0 31.091 0 0)
(534.842 -192.626 0 98.2972 0 0)
(1.02994 0.0923082 0 4.66894 0 0)
(3.55128 0.619312 0 4.76547 0 0)
(9.07371 0.815598 0 4.64132 0 0)
(15.075 1.14962 0 4.60059 0 0)
(24.6501 1.31249 0 4.55634 0 0)
(33.0028 1.34941 0 4.48203 0 0)
(45.0303 1.26082 0 4.44709 0 0)
(55.1998 0.97281 0 4.34859 0 0)
(68.6385 0.475082 0 4.38042 0 0)
(80.7603 -0.28377 0 4.2568 0 0)
(96.0886 -1.33218 0 4.50628 0 0)
(110.579 -3.34393 0 4.37149 0 0)
(131.546 -4.79586 0 5.30171 0 0)
(152.348 -10.9776 0 5.60872 0 0)
(187.962 -11.4312 0 9.2889 0 0)
(238.572 -28.8768 0 16.8338 0 0)
(291.669 -58.963 0 32.689 0 0)
(415.005 -178.367 0 107.845 0 0)
(1.86367 0.365016 0 8.51997 0 0)
(5.01139 0.720239 0 8.72146 0 0)
(9.44133 1.13976 0 8.47034 0 0)
(16.2508 1.29431 0 8.36726 0 0)
(24.6634 1.70032 0 8.27768 0 0)
(33.9659 1.50189 0 8.14265 0 0)
(44.8465 1.59701 0 8.04203 0 0)
(55.5547 0.992035 0 7.91002 0 0)
(68.4546 0.599066 0 7.85708 0 0)
(80.1678 -0.595519 0 7.75938 0 0)
(95.4257 -1.78124 0 7.96125 0 0)
(108.62 -4.23083 0 7.90881 0 0)
(128.169 -6.88426 0 9.02627 0 0)
(145.306 -12.2936 0 9.26876 0 0)
(174.059 -19.2091 0 14.5919 0 0)
(218.027 -25.969 0 17.2179 0 0)
(233.789 -55.61 0 46.2728 0 0)
(326.825 -171.805 0 138.691 0 0)
(2.56346 0.750693 0 14.0355 0 0)
(6.32926 0.807162 0 14.3873 0 0)
(9.30645 1.5397 0 13.9575 0 0)
(17.1072 1.5941 0 13.7628 0 0)
(24.1559 2.12005 0 13.5882 0 0)
(34.2869 1.93582 0 13.3563 0 0)
(44.0028 1.99006 0 13.1512 0 0)
(55.2042 1.41395 0 12.9106 0 0)
(67.3693 0.892728 0 12.7742 0 0)
(78.9565 -0.388492 0 12.5734 0 0)
(94.4839 -1.74125 0 12.7742 0 0)
(105.892 -4.31607 0 12.683 0 0)
(128.193 -7.27126 0 13.9863 0 0)
(138.016 -13.1625 0 14.6669 0 0)
(171.075 -21.8443 0 21.2526 0 0)
(191.601 -33.0538 0 24.6084 0 0)
(211.156 -55.9315 0 51.5879 0 0)
(265.848 -145.73 0 130.677 0 0)
(2.24696 0.721989 0 21.5255 0 0)
(5.54883 0.941236 0 22.1416 0 0)
(9.20702 1.76342 0 21.3674 0 0)
(16.3516 2.07696 0 21.1798 0 0)
(23.9894 2.44907 0 20.7812 0 0)
(33.3864 2.54169 0 20.5481 0 0)
(43.6407 2.27269 0 20.08 0 0)
(54.085 1.92631 0 19.8502 0 0)
(66.5301 0.894389 0 19.4326 0 0)
(77.4122 -0.221385 0 19.2799 0 0)
(92.5794 -2.37569 0 19.2205 0 0)
(103.564 -4.82747 0 19.2633 0 0)
(123.724 -8.98686 0 20.474 0 0)
(134.007 -14.2678 0 21.4528 0 0)
(161.648 -24.4127 0 28.5201 0 0)
(169.489 -32.4216 0 32.0557 0 0)
(203.494 -59.0317 0 56.8857 0 0)
(190.393 -108.842 0 114.191 0 0)
(1.42633 0.598925 0 29.7449 0 0)
(4.32595 1.13469 0 30.6303 0 0)
(8.58952 1.92363 0 29.4832 0 0)
(15.2621 2.47195 0 29.3121 0 0)
(23.2226 2.77626 0 28.667 0 0)
(32.2871 2.9619 0 28.406 0 0)
(42.4476 2.59616 0 27.6546 0 0)
(52.8243 2.1886 0 27.3742 0 0)
(64.4704 1.00397 0 26.6507 0 0)
(75.6636 -0.36756 0 26.4858 0 0)
(88.7038 -2.75712 0 26.1028 0 0)
(100.494 -5.74176 0 26.3277 0 0)
(115.621 -10.3294 0 27.0848 0 0)
(128.157 -15.8093 0 28.6003 0 0)
(144.757 -26.5042 0 33.9175 0 0)
(152.121 -33.4734 0 37.482 0 0)
(180.453 -54.9215 0 53.2024 0 0)
(139.673 -71.3443 0 83.7194 0 0)
(1.0087 0.521434 0 38.5131 0 0)
(3.78132 1.28773 0 39.7072 0 0)
(8.18563 2.03528 0 38.1701 0 0)
(14.7371 2.77886 0 38.0291 0 0)
(22.6675 3.00437 0 37.1194 0 0)
(31.6062 3.31383 0 36.8444 0 0)
(41.5309 2.80218 0 35.7937 0 0)
(51.8066 2.46979 0 35.4753 0 0)
(62.869 1.03388 0 34.4669 0 0)
(73.8886 -0.286804 0 34.2671 0 0)
(85.7128 -3.05294 0 33.6368 0 0)
(97.0762 -5.91191 0 33.8968 0 0)
(109.41 -10.9589 0 34.4067 0 0)
(121.289 -16.0513 0 36.1266 0 0)
(131.303 -25.5777 0 40.0119 0 0)
(138.228 -33.2239 0 44.7416 0 0)
(150.084 -47.3437 0 52.4743 0 0)
(123.273 -58.7753 0 73.1379 0 0)
(0.612653 0.484539 0 49.6959 0 0)
(3.23785 1.44558 0 51.2837 0 0)
(7.74598 2.18578 0 49.1878 0 0)
(14.2062 3.03468 0 49.1005 0 0)
(22.0041 3.27148 0 47.8115 0 0)
(30.8659 3.5765 0 47.5322 0 0)
(40.495 3.06129 0 46.0713 0 0)
(50.6341 2.63192 0 45.7028 0 0)
(61.1628 1.1558 0 44.2838 0 0)
(71.8353 -0.300684 0 44.0405 0 0)
(82.7216 -3.15134 0 42.9968 0 0)
(93.2687 -6.04959 0 43.3162 0 0)
(103.914 -11.1067 0 43.3175 0 0)
(113.781 -15.86 0 45.1745 0 0)
(121.394 -24.5227 0 47.6798 0 0)
(125.834 -30.5884 0 51.9501 0 0)
(129.172 -40.7385 0 56.4736 0 0)
(116.066 -48.4115 0 69.0403 0 0)
(0.43437 0.516076 0 63.8857 0 0)
(2.98045 1.6268 0 65.9401 0 0)
(7.47314 2.3824 0 63.2492 0 0)
(13.8521 3.30852 0 63.1373 0 0)
(21.5013 3.56705 0 61.5039 0 0)
(30.2028 3.85564 0 61.0894 0 0)
(39.5651 3.35153 0 59.2819 0 0)
(49.407 2.81231 0 58.6873 0 0)
(59.4805 1.3617 0 56.9671 0 0)
(69.5871 -0.277096 0 56.4496 0 0)
(79.6861 -2.99347 0 55.1477 0 0)
(89.2241 -6.09524 0 55.2039 0 0)
(98.5447 -10.5689 0 54.8588 0 0)
(106.424 -15.4333 0 56.407 0 0)
(112.591 -22.1505 0 57.8523 0 0)
(115.125 -28.0673 0 61.5824 0 0)
(116.071 -35.2157 0 64.5494 0 0)
(109.617 -40.8162 0 71.4501 0 0)
(0.3565 0.540343 0 81.3733 0 0)
(2.83266 1.74399 0 84.0578 0 0)
(7.26471 2.55332 0 80.591 0 0)
(13.5215 3.49895 0 80.4817 0 0)
(20.9972 3.80556 0 78.3958 0 0)
(29.4785 4.03217 0 77.8428 0 0)
(38.5384 3.5547 0 75.5542 0 0)
(48.0106 2.91184 0 74.7298 0 0)
(57.5665 1.47194 0 72.5384 0 0)
(67.0618 -0.233668 0 71.7517 0 0)
(76.277 -2.88497 0 69.9969 0 0)
(84.865 -5.87153 0 69.7384 0 0)
(92.7733 -9.9775 0 68.9037 0 0)
(99.2038 -14.3073 0 69.8581 0 0)
(103.919 -19.7557 0 70.5016 0 0)
(105.864 -24.6699 0 73.0068 0 0)
(106.019 -29.8366 0 74.9497 0 0)
(101.772 -33.3221 0 78.6077 0 0)
(0.329388 0.568749 0 102.445 0 0)
(2.73714 1.80554 0 105.653 0 0)
(7.07145 2.68102 0 101.628 0 0)
(13.1599 3.58029 0 101.159 0 0)
(20.4402 3.92927 0 98.8955 0 0)
(28.6263 4.04925 0 97.816 0 0)
(37.3615 3.60835 0 95.3021 0 0)
(46.3636 2.82535 0 93.853 0 0)
(55.394 1.46443 0 91.4172 0 0)
(64.1766 -0.353596 0 89.9666 0 0)
(72.5571 -2.77267 0 87.9406 0 0)
(80.1485 -5.70481 0 86.967 0 0)
(86.8712 -9.21618 0 85.756 0 0)
(92.1331 -13.1063 0 85.7639 0 0)
(95.8358 -17.3256 0 85.7147 0 0)
(97.4208 -21.3932 0 86.8572 0 0)
(97.5234 -25.2387 0 87.8851 0 0)
(94.7186 -27.6945 0 89.4911 0 0)
(0.313768 0.572926 0 126.432 0 0)
(2.64173 1.77259 0 130.36 0 0)
(6.8505 2.66518 0 125.651 0 0)
(12.7355 3.45978 0 124.842 0 0)
(19.7735 3.78673 0 122.311 0 0)
(27.6256 3.79988 0 120.735 0 0)
(35.9686 3.32553 0 117.852 0 0)
(44.4798 2.47778 0 115.82 0 0)
(52.9182 1.1221 0 112.959 0 0)
(61.0133 -0.642038 0 110.869 0 0)
(68.5636 -2.91096 0 108.379 0 0)
(75.2883 -5.54379 0 106.653 0 0)
(81.0274 -8.6 0 104.886 0 0)
(85.4774 -11.8244 0 103.882 0 0)
(88.5236 -15.1882 0 103.051 0 0)
(89.9616 -18.3565 0 102.877 0 0)
(90.264 -21.2763 0 102.891 0 0)
(88.3008 -22.9238 0 103.044 0 0)
(0.299374 0.524421 0 151.84 0 0)
(2.53375 1.58021 0 156.341 0 0)
(6.58621 2.37496 0 151.212 0 0)
(12.2374 2.98429 0 149.774 0 0)
(18.9801 3.20704 0 147.215 0 0)
(26.4606 3.06436 0 144.903 0 0)
(34.3627 2.52327 0 141.815 0 0)
(42.3536 1.59056 0 139.009 0 0)
(50.1919 0.260565 0 135.81 0 0)
(57.6126 -1.44495 0 132.934 0 0)
(64.4269 -3.50741 0 129.983 0 0)
(70.4069 -5.84573 0 127.411 0 0)
(75.422 -8.42336 0 125.008 0 0)
(79.3097 -11.0761 0 123.007 0 0)
(82.0085 -13.7149 0 121.293 0 0)
(83.4268 -16.1802 0 119.955 0 0)
(84.0094 -18.3793 0 118.866 0 0)
(82.8023 -19.426 0 117.755 0 0)
(0.284081 0.393713 0 175.056 0 0)
(2.41529 1.14402 0 180.255 0 0)
(6.28587 1.66809 0 174.647 0 0)
(11.6755 1.99958 0 172.765 0 0)
(18.0843 1.99608 0 170.084 0 0)
(25.1662 1.65866 0 167.233 0 0)
(32.6002 0.977466 0 163.847 0 0)
(40.0706 -0.0320297 0 160.451 0 0)
(47.3302 -1.36693 0 156.834 0 0)
(54.1456 -2.97936 0 153.321 0 0)
(60.3387 -4.84821 0 149.834 0 0)
(65.7452 -6.87954 0 146.543 0 0)
(70.2603 -9.03431 0 143.446 0 0)
(73.8108 -11.1827 0 140.592 0 0)
(76.3672 -13.2471 0 138.002 0 0)
(77.8938 -15.1471 0 135.677 0 0)
(78.776 -16.7949 0 133.565 0 0)
(78.2275 -17.3932 0 131.367 0 0)
(0.268855 0.155995 0 190.163 0 0)
(2.29439 0.389862 0 195.834 0 0)
(5.96925 0.487046 0 189.941 0 0)
(11.0796 0.407848 0 187.798 0 0)
(17.1382 0.0706007 0 185.052 0 0)
(23.8122 -0.538354 0 181.882 0 0)
(30.7843 -1.40808 0 178.304 0 0)
(37.7589 -2.53087 0 174.551 0 0)
(44.5 -3.88108 0 170.64 0 0)
(50.8011 -5.42157 0 166.722 0 0)
(56.5094 -7.10888 0 162.83 0 0)
(61.5031 -8.87788 0 159.051 0 0)
(65.7067 -10.6741 0 155.415 0 0)
(69.091 -12.4196 0 151.954 0 0)
(71.6487 -14.0383 0 148.689 0 0)
(73.3687 -15.5087 0 145.645 0 0)
(74.5639 -16.7451 0 142.753 0 0)
(74.6088 -17.0667 0 139.759 0 0)
(0.259206 -0.142771 0 190.136 0 0)
(2.19685 -0.535173 0 195.765 0 0)
(5.69253 -0.939263 0 189.935 0 0)
(10.5466 -1.49508 0 187.783 0 0)
(16.2894 -2.21611 0 185.08 0 0)
(22.6031 -3.1191 0 181.916 0 0)
(29.1796 -4.19318 0 178.363 0 0)
(35.746 -5.43261 0 174.614 0 0)
(42.0797 -6.80692 0 170.689 0 0)
(48.0029 -8.28747 0 166.737 0 0)
(53.3794 -9.82749 0 162.764 0 0)
(58.1209 -11.3845 0 158.879 0 0)
(62.1663 -12.9055 0 155.067 0 0)
(65.5095 -14.3473 0 151.404 0 0)
(68.1492 -15.6445 0 147.863 0 0)
(70.0909 -16.8042 0 144.525 0 0)
(71.5679 -17.7511 0 141.278 0 0)
(72.1024 -17.9563 0 137.949 0 0)
(0.256036 -0.396529 0 174.323 0 0)
(2.13764 -1.30688 0 179.273 0 0)
(5.50171 -2.12881 0 173.944 0 0)
(10.1659 -3.07771 0 171.952 0 0)
(15.6751 -4.10661 0 169.471 0 0)
(21.7246 -5.23622 0 166.582 0 0)
(28.017 -6.45947 0 163.331 0 0)
(34.2977 -7.77325 0 159.908 0 0)
(40.3566 -9.1491 0 156.303 0 0)
(46.0371 -10.5671 0 152.675 0 0)
(51.2137 -11.9853 0 148.992 0 0)
(55.8183 -13.3772 0 145.386 0 0)
(59.7974 -14.6978 0 141.804 0 0)
(63.1552 -15.9241 0 138.353 0 0)
(65.8896 -17.0044 0 134.97 0 0)
(68.0182 -17.954 0 131.769 0 0)
(69.7099 -18.7117 0 128.615 0 0)
(70.6077 -18.8996 0 125.416 0 0)
(0.257487 -0.545547 0 148.895 0 0)
(2.10983 -1.74772 0 152.851 0 0)
(5.38723 -2.82346 0 148.316 0 0)
(9.92372 -4.00711 0 146.599 0 0)
(15.2762 -5.21105 0 144.479 0 0)
(21.1487 -6.4603 0 142.026 0 0)
(27.2533 -7.74685 0 139.262 0 0)
(33.348 -9.07251 0 136.358 0 0)
(39.2329 -10.4099 0 133.286 0 0)
(44.7641 -11.7491 0 130.196 0 0)
(49.8265 -13.0519 0 127.04 0 0)
(54.3606 -14.305 0 123.946 0 0)
(58.3203 -15.4691 0 120.852 0 0)
(61.711 -16.5352 0 117.864 0 0)
(64.532 -17.4598 0 114.916 0 0)
(66.8053 -18.2619 0 112.119 0 0)
(68.656 -18.8909 0 109.347 0 0)
(69.8169 -19.1005 0 106.557 0 0)
(0.260342 -0.601301 0 120.002 0 0)
(2.10087 -1.88977 0 122.97 0 0)
(5.32113 -3.06783 0 119.323 0 0)
(9.77221 -4.3409 0 117.93 0 0)
(15.0198 -5.59928 0 116.224 0 0)
(20.7746 -6.86909 0 114.26 0 0)
(26.7554 -8.14004 0 112.048 0 0)
(32.7294 -9.41747 0 109.721 0 0)
(38.5038 -10.676 0 107.258 0 0)
(43.9435 -11.9125 0 104.775 0 0)
(48.9406 -13.0933 0 102.234 0 0)
(53.4408 -14.2137 0 99.7355 0 0)
(57.4027 -15.2394 0 97.2314 0 0)
(60.831 -16.1702 0 94.8066 0 0)
(63.726 -16.9692 0 92.409 0 0)
(66.1126 -17.656 0 90.1261 0 0)
(68.0856 -18.1896 0 87.8618 0 0)
(69.4453 -18.4252 0 85.5872 0 0)
(0.263292 -0.590512 0 91.8604 0 0)
(2.10052 -1.82997 0 93.9748 0 0)
(5.28333 -2.99665 0 91.1847 0 0)
(9.67752 -4.24703 0 90.1114 0 0)
(14.8546 -5.46732 0 88.8124 0 0)
(20.5308 -6.67992 0 87.3179 0 0)
(26.4298 -7.87439 0 85.6377 0 0)
(32.3249 -9.05569 0 83.8662 0 0)
(38.0291 -10.2031 0 81.9908 0 0)
(43.4125 -11.3154 0 80.0942 0 0)
(48.3731 -12.3656 0 78.1538 0 0)
(52.8589 -13.352 0 76.2398 0 0)
(56.832 -14.2472 0 74.3222 0 0)
(60.2957 -15.0537 0 72.4592 0 0)
(63.2517 -15.7434 0 70.6184 0 0)
(65.727 -16.3312 0 68.8588 0 0)
(67.7943 -16.788 0 67.1165 0 0)
(69.3069 -17.0375 0 65.364 0 0)
(0.266365 -0.536704 0 66.9146 0 0)
(2.10436 -1.65078 0 68.3543 0 0)
(5.26201 -2.73055 0 66.3232 0 0)
(9.61844 -3.88334 0 65.5405 0 0)
(14.7482 -5.00287 0 64.6025 0 0)
(20.372 -6.10502 0 63.5209 0 0)
(26.2175 -7.18174 0 62.307 0 0)
(32.0614 -8.23492 0 61.0216 0 0)
(37.7217 -9.24974 0 59.663 0 0)
(43.0715 -10.2237 0 58.2834 0 0)
(48.0132 -11.1376 0 56.8748 0 0)
(52.4958 -11.989 0 55.4805 0 0)
(56.4839 -12.7585 0 54.0868 0 0)
(59.9796 -13.4477 0 52.7284 0 0)
(62.9857 -14.0371 0 51.3886 0 0)
(65.5301 -14.536 0 50.1031 0 0)
(67.67 -14.926 0 48.8337 0 0)
(69.3004 -15.1738 0 47.553 0 0)
(0.268208 -0.462842 0 46.2764 0 0)
(2.10877 -1.41585 0 47.2148 0 0)
(5.25015 -2.36364 0 45.8145 0 0)
(9.5816 -3.3749 0 45.2765 0 0)
(14.6797 -4.35594 0 44.6354 0 0)
(20.2689 -5.31618 0 43.8918 0 0)
(26.0797 -6.25059 0 43.058 0 0)
(31.8913 -7.15744 0 42.1709 0 0)
(37.5249 -8.02781 0 41.2355 0 0)
(42.8554 -8.85699 0 40.2826 0 0)
(47.7878 -9.63274 0 39.3128 0 0)
(52.2724 -10.351 0 38.3504 0 0)
(56.275 -10.9996 0 37.3911 0 0)
(59.7968 -11.5777 0 36.4533 0 0)
(62.8408 -12.0733 0 35.5303 0 0)
(65.436 -12.49 0 34.6414 0 0)
(67.628 -12.818 0 33.7667 0 0)
(69.3443 -13.0484 0 32.8808 0 0)
(0.26938 -0.383051 0 30.1494 0 0)
(2.11231 -1.16463 0 30.7335 0 0)
(5.24341 -1.95823 0 29.8235 0 0)
(9.55813 -2.80717 0 29.4764 0 0)
(14.6349 -3.6308 0 29.0644 0 0)
(20.2008 -4.43532 0 28.5839 0 0)
(25.9886 -5.21696 0 28.0448 0 0)
(31.7781 -5.9727 0 27.4693 0 0)
(37.3928 -6.69601 0 26.8634 0 0)
(42.7087 -7.38214 0 26.2451 0 0)
(47.6328 -8.02254 0 25.6173 0 0)
(52.1148 -8.61307 0 24.993 0 0)
(56.1228 -9.14576 0 24.3722 0 0)
(59.6567 -9.61872 0 23.7636 0 0)
(62.7204 -10.0244 0 23.1657 0 0)
(65.3415 -10.3631 0 22.5881 0 0)
(67.5604 -10.6303 0 22.0212 0 0)
(69.3298 -10.8279 0 21.4458 0 0)
(0.269702 -0.304578 0 18.2064 0 0)
(2.11407 -0.919769 0 18.5505 0 0)
(5.23803 -1.55406 0 17.9999 0 0)
(9.5387 -2.23694 0 17.794 0 0)
(14.5964 -2.90107 0 17.551 0 0)
(20.1403 -3.55107 0 17.2665 0 0)
(25.9037 -4.18217 0 16.9463 0 0)
(31.6675 -4.79106 0 16.6035 0 0)
(37.2566 -5.37119 0 16.2418 0 0)
(42.5472 -5.91907 0 15.8718 0 0)
(47.4487 -6.42742 0 15.4953 0 0)
(51.9097 -6.89389 0 15.1203 0 0)
(55.9019 -7.31166 0 14.7469 0 0)
(59.423 -7.68044 0 14.3802 0 0)
(62.4815 -7.99441 0 14.0198 0 0)
(65.0998 -8.25417 0 13.6709 0 0)
(67.3219 -8.45887 0 13.329 0 0)
(69.1187 -8.60929 0 12.9823 0 0)
(0.269347 -0.228253 0 9.87922 0 0)
(2.11181 -0.691238 0 10.0627 0 0)
(5.2208 -1.17861 0 9.76557 0 0)
(9.49521 -1.7083 0 9.66323 0 0)
(14.5227 -2.22268 0 9.53885 0 0)
(20.0331 -2.72309 0 9.38969 0 0)
(25.7595 -3.20518 0 9.21905 0 0)
(31.4855 -3.66647 0 9.03487 0 0)
(37.0353 -4.10121 0 8.83917 0 0)
(42.2888 -4.50785 0 8.63822 0 0)
(47.1543 -4.88077 0 8.43262 0 0)
(51.5851 -5.22013 0 8.22754 0 0)
(55.552 -5.52015 0 8.02243 0 0)
(59.0568 -5.78302 0 7.82123 0 0)
(62.107 -6.00262 0 7.623 0 0)
(64.7243 -6.18252 0 7.43174 0 0)
(66.95 -6.32567 0 7.24502 0 0)
(68.7801 -6.42774 0 7.05687 0 0)
(0.268201 -0.154792 0 4.48466 0 0)
(2.08495 -0.49783 0 4.58026 0 0)
(5.15949 -0.852279 0 4.4551 0 0)
(9.39435 -1.22861 0 4.41948 0 0)
(14.3962 -1.58562 0 4.36841 0 0)
(19.8811 -1.92791 0 4.304 0 0)
(25.5809 -2.25286 0 4.2267 0 0)
(31.2809 -2.5582 0 4.14023 0 0)
(36.8077 -2.84234 0 4.04722 0 0)
(42.0404 -3.10646 0 3.95143 0 0)
(46.8891 -3.34764 0 3.85364 0 0)
(51.3106 -3.56674 0 3.75658 0 0)
(55.2716 -3.76 0 3.65972 0 0)
(58.7824 -3.92951 0 3.56576 0 0)
(61.8391 -4.06913 0 3.47312 0 0)
(64.4752 -4.18418 0 3.38567 0 0)
(66.698 -4.27468 0 3.30045 0 0)
(68.5564 -4.34473 0 3.21627 0 0)
(0.255302 -0.0881803 0 1.42055 0 0)
(2.06897 -0.313401 0 1.48627 0 0)
(5.20798 -0.525902 0 1.44623 0 0)
(9.50134 -0.734236 0 1.43308 0 0)
(14.5567 -0.924301 0 1.41297 0 0)
(20.0929 -1.1069 0 1.3897 0 0)
(25.849 -1.28353 0 1.36307 0 0)
(31.6081 -1.45163 0 1.33375 0 0)
(37.1964 -1.60956 0 1.30277 0 0)
(42.4882 -1.75713 0 1.27117 0 0)
(47.3966 -1.89286 0 1.23936 0 0)
(51.8704 -2.01674 0 1.20795 0 0)
(55.8814 -2.12676 0 1.17692 0 0)
(59.4319 -2.22358 0 1.14696 0 0)
(62.5221 -2.3031 0 1.1177 0 0)
(65.1897 -2.36931 0 1.09122 0 0)
(67.4123 -2.42192 0 1.06602 0 0)
(69.2627 -2.46141 0 1.03907 0 0)
(0.245978 -0.0253238 0 0.141799 0 0)
(2.06679 -0.0978062 0 0.153578 0 0)
(5.18685 -0.165526 0 0.150794 0 0)
(9.44933 -0.230754 0 0.149625 0 0)
(14.4859 -0.293639 0 0.147322 0 0)
(20.0095 -0.353959 0 0.144595 0 0)
(25.7589 -0.412771 0 0.141597 0 0)
(31.5156 -0.46926 0 0.138467 0 0)
(37.111 -0.522598 0 0.135245 0 0)
(42.4208 -0.572596 0 0.131994 0 0)
(47.3595 -0.618951 0 0.128737 0 0)
(51.8742 -0.661632 0 0.125535 0 0)
(55.9386 -0.700069 0 0.122393 0 0)
(59.5477 -0.734117 0 0.11937 0 0)
(62.7081 -0.763041 0 0.116545 0 0)
(65.4526 -0.788286 0 0.114209 0 0)
(67.7654 -0.806502 0 0.112136 0 0)
(69.6935 -0.815791 0 0.111752 0 0)
(0.0244797 0.0357567 0 0.717197 0 0)
(0.267239 0.0990808 0 0.678278 0 0)
(0.785401 0.180864 0 0.671122 0 0)
(1.5388 0.294867 0 0.661909 0 0)
(2.48576 0.42382 0 0.660307 0 0)
(3.60806 0.568566 0 0.65703 0 0)
(4.8837 0.715589 -2.38385e-19 0.655051 -6.48176e-20 1.47771e-37)
(6.30978 0.866485 2.42395e-19 0.65073 6.91175e-20 1.48224e-37)
(7.87962 1.01343 0 0.644713 0 0)
(9.59122 1.16083 2.44809e-19 0.63714 6.85389e-20 1.46009e-37)
(11.4394 1.30483 0 0.628562 0 0)
(13.4183 1.44765 0 0.619478 0 0)
(15.5213 1.58471 0 0.611533 0 0)
(17.7421 1.71633 -2.77273e-19 0.605076 -5.16754e-20 1.34664e-37)
(20.0747 1.83936 0 0.598875 0 0)
(22.5194 1.95287 0 0.593657 0 0)
(25.0766 2.05268 3.40348e-19 0.589373 3.90393e-20 1.22022e-37)
(27.7448 2.14042 0 0.58493 0 0)
(30.519 2.21878 0 0.58027 0 0)
(33.3936 2.29001 0 0.575833 0 0)
(36.3527 2.35312 -4.56108e-19 0.572507 -1.9595e-20 1.0173e-37)
(39.3865 2.40887 0 0.568753 0 0)
(42.4814 2.45535 -5.1582e-19 0.566492 -1.03177e-20 9.24769e-38)
(45.628 2.49242 0 0.567691 0 0)
(48.8103 2.52624 0 0.568453 0 0)
(52.0139 2.54943 -6.03944e-19 0.570629 1.21211e-21 7.9729e-38)
(55.232 2.55175 0 0.572464 0 0)
(58.4688 2.53448 6.57587e-19 0.570932 -6.93909e-21 7.21248e-38)
(61.7182 2.5036 0 0.563061 0 0)
(64.9859 2.46098 -7.02356e-19 0.552652 1.04923e-20 6.53636e-38)
(68.2705 2.40921 0 0.539083 0 0)
(71.5594 2.35074 0 0.52326 0 0)
(74.845 2.28545 0 0.50923 0 0)
(78.1287 2.20959 0 0.497856 0 0)
(81.4045 2.12253 0 0.486309 0 0)
(84.6691 2.0272 7.79489e-19 0.475412 -1.40031e-20 4.59724e-38)
(87.9212 1.92343 0 0.463803 0 0)
(91.1618 1.81107 -1.56219e-18 0.447794 2.7154e-20 1.61313e-37)
(94.3896 1.6917 0 0.432234 0 0)
(97.5996 1.56423 1.55228e-18 0.417624 -2.61666e-20 1.39932e-37)
(100.785 1.43113 0 0.402487 0 0)
(103.945 1.28881 0 0.390814 0 0)
(107.071 1.13819 -1.51441e-18 0.378228 2.15787e-20 1.11255e-37)
(110.145 0.985279 0 0.365369 0 0)
(113.153 0.830455 -1.47597e-18 0.35454 1.82839e-20 9.43243e-38)
(116.078 0.672579 1.45357e-18 0.34568 -1.65504e-20 8.6631e-38)
(118.906 0.508938 0 0.33954 0 0)
(121.628 0.339041 1.4028e-18 0.334742 -1.25298e-20 7.34158e-38)
(124.227 0.163683 1.3746e-18 0.330838 -1.06635e-20 6.79534e-38)
(126.705 -0.0142245 0 0.327585 0 0)
(129.046 -0.193596 0 0.325462 0 0)
(131.233 -0.377197 0 0.322788 0 0)
(133.243 -0.565784 0 0.321583 0 0)
(135.056 -0.756613 0 0.323631 0 0)
(136.646 -0.94636 -1.1743e-18 0.327854 -4.39952e-21 5.0156e-38)
(137.985 -1.13751 0 0.331982 0 0)
(139.059 -1.33341 1.07961e-18 0.335704 1.14712e-20 4.75038e-38)
(139.872 -1.53599 0 0.340969 0 0)
(140.421 -1.74488 0 0.347779 0 0)
(140.689 -1.951 -9.11666e-19 0.357052 -2.24431e-20 4.75173e-38)
(140.671 -2.1553 0 0.368976 0 0)
(140.351 -2.36039 7.80289e-19 0.380969 3.12408e-20 4.96793e-38)
(139.735 -2.56433 0 0.391257 0 0)
(138.818 -2.76824 0 0.404043 0 0)
(137.611 -2.9713 0 0.418263 0 0)
(136.126 -3.16726 -4.82113e-19 0.432792 -4.75786e-20 6.03335e-38)
(134.367 -3.35624 0 0.447387 0 0)
(132.346 -3.53912 0 0.460487 0 0)
(130.074 -3.7152 -2.26341e-19 0.47439 -6.12138e-20 7.30249e-38)
(127.573 -3.88958 0 0.490208 0 0)
(124.877 -4.05574 -5.06305e-20 0.505399 -6.99142e-20 8.30103e-38)
(121.998 -4.20829 0 0.520317 0 0)
(118.955 -4.34887 0 0.53658 0 0)
(115.779 -4.47971 0 0.553803 0 0)
(112.493 -4.6009 -3.04959e-19 0.571694 8.3144e-20 1.04546e-37)
(109.117 -4.71028 0 0.589685 0 0)
(105.666 -4.80437 0 0.607508 0 0)
(102.151 -4.8833 -5.64077e-19 0.625502 9.03077e-20 1.20147e-37)
(98.5856 -4.95137 -6.45887e-19 0.644198 9.1858e-20 1.25258e-37)
(94.9957 -5.0083 0 0.662947 0 0)
(91.4123 -5.05325 -7.98947e-19 0.682629 9.46374e-20 1.34677e-37)
(87.856 -5.08696 0 0.703785 0 0)
(84.3475 -5.10884 -1.87748e-18 0.725332 1.92592e-19 5.74365e-37)
(80.9012 -5.11775 0 0.747972 0 0)
(77.5349 -5.11217 -2.12231e-18 0.770553 1.93725e-19 6.07515e-37)
(74.2671 -5.09022 0 0.793505 0 0)
(71.1121 -5.05529 2.32484e-18 0.81948 -1.93875e-19 6.36484e-37)
(68.0877 -5.00714 0 0.844506 0 0)
(65.208 -4.94041 0 0.86682 0 0)
(62.4731 -4.85488 0 0.889525 0 0)
(59.8871 -4.75268 -2.58568e-18 0.914536 1.86299e-19 6.79847e-37)
(57.4561 -4.63619 0 0.939142 0 0)
(55.1892 -4.50368 2.64665e-18 0.963404 -1.80028e-19 6.94575e-37)
(53.0891 -4.35492 0 0.987158 0 0)
(51.1447 -4.18395 -2.65874e-18 1.01073 1.73682e-19 7.03439e-37)
(49.351 -3.99634 -2.64965e-18 1.03204 1.7045e-19 7.06965e-37)
(47.6959 -3.79611 -2.63074e-18 1.05329 1.66288e-19 7.09656e-37)
(46.175 -3.58681 0 1.07569 0 0)
(44.7617 -3.36738 0 1.09881 0 0)
(43.4663 -3.13894 0 1.11837 0 0)
(42.27 -2.90151 0 1.13818 0 0)
(41.1679 -2.66224 0 1.15807 0 0)
(40.1418 -2.42252 0 1.17707 0 0)
(39.1883 -2.17988 0 1.19218 0 0)
(38.2615 -1.93655 0 1.20818 0 0)
(37.3593 -1.69995 2.02629e-18 1.22351 -1.31617e-19 7.0751e-37)
(36.449 -1.47169 1.91229e-18 1.2407 -1.24287e-19 7.06887e-37)
(35.5546 -1.25264 0 1.25237 0 0)
(34.6419 -1.04251 0 1.2654 0 0)
(33.7206 -0.855884 0 1.27943 0 0)
(32.7385 -0.67955 1.35449e-18 1.29205 -1.04654e-19 6.91107e-37)
(31.7956 -0.529234 0 1.29934 0 0)
(30.7843 -0.386939 0 1.30916 0 0)
(29.8273 -0.284054 0 1.31925 0 0)
(28.8986 -0.200502 0 1.3325 0 0)
(28.0679 -0.150224 -4.38689e-19 1.34096 7.5767e-20 6.66229e-37)
(27.3675 -0.124156 0 1.35033 0 0)
(26.8301 -0.133483 0 1.36378 0 0)
(26.5403 -0.176378 -2.23505e-19 1.3717 -6.55592e-20 6.42829e-37)
(26.4971 -0.245571 4.50577e-19 1.38445 6.11707e-20 6.30196e-37)
(26.7515 -0.355195 0 1.40136 0 0)
(27.3566 -0.511865 9.13257e-19 1.41879 6.00862e-20 6.05364e-37)
(28.3788 -0.708927 0 1.43787 0 0)
(29.8783 -0.960893 -1.35488e-18 1.45554 -6.45291e-20 5.75669e-37)
(31.8757 -1.24735 0 1.47834 0 0)
(34.4459 -1.58327 0 1.50542 0 0)
(37.485 -1.96108 0 1.53809 0 0)
(41.102 -2.38931 0 1.57235 0 0)
(45.15 -2.84357 0 1.61055 0 0)
(49.6352 -3.34539 4.89976e-18 1.65278 2.04763e-19 1.9722e-36)
(54.4985 -3.8912 5.15491e-18 1.69899 2.30568e-19 1.93758e-36)
(59.7594 -4.47304 0 1.74748 0 0)
(65.2232 -5.07529 0 1.80316 0 0)
(70.842 -5.70215 0 1.85841 0 0)
(76.4681 -6.31595 -5.69534e-18 1.9192 -3.52394e-19 1.91766e-36)
(81.8786 -6.93089 0 1.9903 0 0)
(87.0348 -7.55259 0 2.06262 0 0)
(91.8779 -8.16718 0 2.13895 0 0)
(96.3257 -8.75786 -5.33587e-18 2.2174 -5.33619e-19 2.07262e-36)
(100.342 -9.32351 5.10226e-18 2.30232 5.83389e-19 2.135e-36)
(103.751 -9.84655 0 2.39173 0 0)
(106.656 -10.3562 0 2.48435 0 0)
(109.028 -10.8103 4.08148e-18 2.5788 7.35591e-19 2.36685e-36)
(110.863 -11.2286 3.65181e-18 2.67213 7.84529e-19 2.4521e-36)
(112.015 -11.5724 0 2.77238 0 0)
(112.58 -11.8864 0 2.87231 0 0)
(112.454 -12.1284 -2.05347e-18 2.97627 -9.45997e-19 2.71988e-36)
(111.768 -12.3522 1.42378e-18 3.07123 9.89582e-19 2.79862e-36)
(110.568 -12.5057 0 3.16797 0 0)
(108.653 -12.6049 0 3.26853 0 0)
(106.144 -12.6376 -5.20848e-19 3.35939 1.11735e-18 3.06939e-36)
(103.004 -12.6164 0 3.44982 0 0)
(99.5167 -12.5573 0 3.53332 0 0)
(95.5226 -12.4074 -2.54719e-18 3.60574 1.20621e-18 3.3022e-36)
(91.2198 -12.1857 0 3.67767 0 0)
(86.5956 -11.8531 -3.83027e-18 3.73914 1.25715e-18 3.44499e-36)
(81.7099 -11.4352 0 3.79482 0 0)
(76.6027 -10.8994 0 3.83392 0 0)
(71.661 -10.2655 0 3.85793 0 0)
(66.782 -9.46742 5.86881e-18 3.87665 -1.27777e-18 3.68248e-36)
(62.1294 -8.54979 0 3.88011 0 0)
(57.9185 -7.48015 0 3.86809 0 0)
(54.4687 -6.29072 0 3.84015 0 0)
(51.6204 -4.91221 0 3.79808 0 0)
(49.5292 -3.45337 0 3.74756 0 0)
(48.8122 -1.89994 0 3.67542 0 0)
(49.6541 -0.276828 6.02042e-18 3.58563 -1.10417e-18 3.72717e-36)
(51.7226 1.43586 5.60476e-18 3.48739 -1.04975e-18 3.7095e-36)
(55.4328 3.12762 0 3.37592 0 0)
(60.6934 4.75379 0 3.25803 0 0)
(67.5062 6.33324 0 3.12847 0 0)
(75.4487 7.80609 -3.05044e-18 2.9988 7.94918e-19 3.38378e-36)
(84.5788 9.10746 0 2.87062 0 0)
(94.1362 10.2955 2.94444e-18 2.73577 -1.35045e-18 1.23619e-35)
(104.016 11.2524 -1.30802e-18 2.60533 1.21771e-18 1.16613e-35)
(113.645 12.0415 3.19884e-19 2.47387 1.10482e-18 1.10183e-35)
(123.291 12.691 -2.02476e-18 2.34897 -1.01413e-18 1.03337e-35)
(131.401 13.2312 3.67803e-18 2.22996 9.2272e-19 9.75952e-36)
(139.27 13.7072 -5.28409e-18 2.12266 -9.03302e-19 8.99405e-36)
(143.02 14.3993 0 2.06675 0 0)
(0.018309 0.174198 0 6.09518 0 0)
(0.202684 0.387824 0 6.03331 0 0)
(0.629412 0.60963 1.31715e-19 5.86069 1.75891e-19 6.76127e-37)
(1.32694 0.853969 0 5.73999 0 0)
(2.26911 1.13303 -1.92409e-19 5.68018 -3.53352e-19 9.18749e-37)
(3.44533 1.43763 -1.84175e-19 5.6529 -4.4105e-19 9.71774e-37)
(4.83443 1.76218 -8.08935e-20 5.63733 -2.51177e-19 2.4878e-37)
(6.42205 2.10267 -6.92427e-20 5.61918 -2.70078e-19 2.6104e-37)
(8.20039 2.45175 0 5.59079 0 0)
(10.1675 2.80492 -4.25243e-20 5.54821 -2.68961e-19 2.59225e-37)
(12.3246 3.15334 0 5.49639 0 0)
(14.6702 3.49466 0 5.43685 0 0)
(17.196 3.8237 9.5274e-20 5.3687 4.23782e-19 9.50515e-37)
(19.9026 4.14003 6.97309e-20 5.29697 1.86977e-19 2.3399e-37)
(22.7797 4.43394 -1.85734e-19 5.22196 -3.26523e-19 8.93132e-37)
(25.8211 4.70545 -2.51811e-19 5.14393 -2.81594e-19 8.65451e-37)
(29.0156 4.95608 -1.71147e-19 5.0597 -1.18687e-19 2.12638e-37)
(32.3569 5.18732 0 4.96905 0 0)
(35.8332 5.39748 0 4.87344 0 0)
(39.4357 5.59113 0 4.7708 0 0)
(43.1414 5.76756 -3.86211e-19 4.6659 -3.69629e-20 1.80299e-37)
(46.9411 5.92405 0 4.56138 0 0)
(50.8121 6.05224 1.60738e-18 4.45482 -1.56928e-20 1.55095e-36)
(54.7418 6.15583 0 4.35182 0 0)
(58.7132 6.23643 0 4.24658 0 0)
(62.7088 6.29418 7.74243e-19 4.14226 -5.75704e-20 1.564e-37)
(66.7009 6.32583 0 4.03617 0 0)
(70.6706 6.34062 -9.324e-19 3.93544 8.16857e-20 1.45899e-37)
(74.5844 6.33215 -1.99244e-18 3.83535 1.8133e-19 5.56719e-37)
(78.4321 6.29522 1.07649e-18 3.73251 -9.86363e-20 1.3653e-37)
(82.21 6.22679 0 3.62464 0 0)
(85.9178 6.13041 0 3.51929 0 0)
(89.5422 6.00849 0 3.41595 0 0)
(93.087 5.86215 -2.57555e-18 3.30786 2.22626e-19 4.71084e-37)
(96.544 5.68591 -2.65385e-18 3.20051 2.20184e-19 4.5495e-37)
(99.9268 5.48012 -1.37314e-18 3.09963 1.07543e-19 1.10713e-37)
(103.244 5.24311 0 3.00783 0 0)
(106.487 4.96997 2.83718e-18 2.91982 -2.02995e-19 4.12684e-37)
(109.668 4.65862 0 2.83475 0 0)
(112.777 4.31841 -2.87405e-18 2.75333 1.88465e-19 3.81465e-37)
(115.824 3.95044 0 2.67306 0 0)
(118.804 3.56247 0 2.60091 0 0)
(121.725 3.15847 2.82741e-18 2.52996 -1.5416e-19 3.31617e-37)
(124.57 2.73552 0 2.46454 0 0)
(127.322 2.28706 8.16017e-18 2.40641 -3.93691e-19 2.68394e-36)
(129.979 1.80897 -2.68902e-18 2.36092 1.19266e-19 2.83641e-37)
(132.545 1.30565 0 2.33361 0 0)
(135.035 0.777217 -2.54954e-18 2.31776 9.09848e-20 2.51695e-37)
(137.434 0.216343 -2.46894e-18 2.31158 7.67389e-20 2.36125e-37)
(139.741 -0.37071 0 2.31397 0 0)
(141.932 -0.969645 0 2.3274 0 0)
(143.987 -1.56635 0 2.34242 0 0)
(145.893 -2.15123 0 2.3559 0 0)
(147.612 -2.72844 0 2.3794 0 0)
(149.131 -3.3068 1.88392e-18 2.41209 1.44718e-20 1.71952e-37)
(150.428 -3.89376 3.45232e-18 2.45536 7.10891e-20 6.55318e-37)
(151.485 -4.48415 -1.645e-18 2.50653 -5.59001e-20 1.59964e-37)
(152.311 -5.09276 0 2.5628 0 0)
(152.88 -5.70299 2.68802e-18 2.62613 1.90284e-19 6.00928e-37)
(153.164 -6.29334 -1.17033e-18 2.69441 -1.13262e-19 1.46732e-37)
(153.188 -6.87914 0 2.77111 0 0)
(152.907 -7.45956 -9.78173e-19 2.86076 -1.48569e-19 1.4937e-37)
(152.329 -8.01815 0 2.95396 0 0)
(151.451 -8.56749 0 3.05502 0 0)
(150.269 -9.09909 -1.04782e-18 3.16201 -3.96594e-19 6.25103e-37)
(148.77 -9.60207 4.22702e-19 3.27399 2.15045e-19 1.63638e-37)
(146.992 -10.0966 -4.88989e-19 3.3938 -4.62143e-19 6.67981e-37)
(144.926 -10.5701 2.12146e-19 3.51891 4.89173e-19 6.91761e-37)
(142.598 -11.0145 9.99862e-21 3.64353 2.54477e-19 1.82593e-37)