/*--------------------------------*- C++ -*----------------------------------*\
| =========                 |                                                 |
| \\      /  F ield         | OpenFOAM: The Open Source CFD Toolbox           |
|  \\    /   O peration     | Version:  dev                                   |
|   \\  /    A nd           | Web:      http://www.openfoam.org               |
|    \\/     M anipulation  |                                                 |
\*---------------------------------------------------------------------------*/
FoamFile
{
    version     2.0;
    format      ascii;
    class       volScalarField;
    object      k;
    location    "9.151";
}
// * * * * * * * * * * * * * * * * * * * * * * * * * * * * * * * * * * * * * //

dimensions      [0 2 -2 0 0 0 0];

internalField   nonuniform List<scalar> 
12225
(
8.1702
8.95985
5.55577
5.3583
3.56803
4.71239
3.63224
4.98581
4.22219
5.76792
5.09633
7.25356
6.43148
10.3016
9.01194
15.3415
18.5294
35.5107
1.53116
5.41386
4.78906
5.70698
4.28444
5.14571
3.86485
4.71971
3.80765
4.42874
3.93399
4.25824
4.16498
4.06198
4.2785
3.82628
4.07861
7.4308
0.112266
1.58022
1.89097
2.88459
2.7363
3.1477
2.91012
3.02229
2.94382
2.71471
2.8169
2.49295
2.74503
2.24601
2.61748
2.04722
2.166
2.58028
0.00874756
0.228223
0.501507
0.668525
1.02728
1.08068
1.33402
1.25341
1.50947
1.29505
1.47415
1.22323
1.33207
1.0858
1.19625
0.985399
1.10345
0.927053
0.00130781
0.0385206
0.13219
0.190497
0.325192
0.367357
0.506768
0.503052
0.608405
0.550569
0.615897
0.531913
0.587369
0.492186
0.551666
0.471199
0.55864
0.595341
0.00179531
0.0161349
0.0460235
0.0586905
0.0978534
0.115734
0.181941
0.179445
0.231991
0.214497
0.248334
0.220484
0.25501
0.221032
0.252165
0.224481
0.275504
0.268389
0.00367509
0.00781868
0.0179145
0.021727
0.0348437
0.0395896
0.0645765
0.0620354
0.0863801
0.0812082
0.0967205
0.0881115
0.106351
0.0961936
0.107649
0.1013
0.118568
0.121465
0.00421539
0.00793862
0.0137889
0.0168931
0.0224976
0.0249149
0.0333292
0.0335409
0.0414245
0.0410703
0.0464715
0.0451336
0.0523157
0.0522034
0.0572991
0.0588079
0.0646581
0.0699736
0.00504437
0.0137103
0.0156824
0.0191741
0.0221748
0.0240324
0.0285691
0.0295692
0.0330608
0.0333745
0.0357377
0.0360086
0.0390087
0.0411519
0.0464982
0.0491016
0.053026
0.0580446
0.00784388
0.0260706
0.026002
0.0293619
0.0289805
0.0300374
0.0312222
0.0316357
0.0330964
0.0331728
0.0347061
0.035161
0.0371961
0.0393156
0.0445823
0.0474929
0.0507579
0.05668
0.0202653
0.0450069
0.0468933
0.0514661
0.0494312
0.0489614
0.0467185
0.0442054
0.0421867
0.0409909
0.0411884
0.04131
0.0422582
0.0443091
0.048219
0.0528674
0.0560752
0.0626066
0.0443542
0.0740043
0.0789078
0.0850756
0.0847028
0.0837759
0.0796136
0.0741306
0.0665969
0.0638079
0.0617216
0.0614135
0.0619522
0.0631037
0.0662511
0.0733275
0.0792722
0.0878382
0.0935886
0.127851
0.135412
0.141325
0.141088
0.13803
0.128891
0.117447
0.109093
0.105832
0.10398
0.103389
0.103814
0.105055
0.108812
0.120187
0.132959
0.146672
0.167124
0.203515
0.21403
0.218335
0.217988
0.212798
0.196923
0.181059
0.16944
0.163403
0.160855
0.159932
0.160468
0.16248
0.168553
0.18764
0.206915
0.225985
0.273267
0.335374
0.358304
0.365631
0.365347
0.356915
0.335393
0.307636
0.284251
0.267331
0.257155
0.252167
0.250395
0.250767
0.253732
0.266869
0.28181
0.299272
0.407028
0.487952
0.508664
0.507772
0.492235
0.451931
0.40801
0.367454
0.33476
0.311405
0.296789
0.289502
0.286435
0.286106
0.287686
0.297431
0.310737
0.327363
0.495433
0.546738
0.556945
0.552757
0.527664
0.478159
0.429589
0.385094
0.349447
0.324072
0.30811
0.300137
0.296774
0.296214
0.297519
0.306338
0.319201
0.335125
0.497024
0.54598
0.554918
0.549957
0.522882
0.473767
0.425819
0.382237
0.347176
0.322075
0.30615
0.298111
0.294645
0.294037
0.295313
0.30402
0.316884
0.332387
0.380732
0.458818
0.482795
0.482559
0.468495
0.43086
0.389298
0.35197
0.321925
0.300155
0.28608
0.278846
0.275555
0.274853
0.276003
0.284177
0.296563
0.311578
0.231889
0.289876
0.31983
0.327985
0.32786
0.319661
0.294838
0.272789
0.255238
0.241601
0.23217
0.226727
0.2239
0.223095
0.223966
0.230875
0.242431
0.257612
0.141694
0.176899
0.194361
0.196325
0.193735
0.183855
0.171889
0.16118
0.151329
0.143473
0.136936
0.131428
0.128402
0.127106
0.127229
0.130757
0.140804
0.155751
0.0712399
0.0977856
0.112284
0.114858
0.114118
0.110518
0.106757
0.10229
0.0969583
0.0903845
0.0858988
0.0839501
0.0835528
0.0839901
0.0853737
0.0896637
0.0962181
0.105007
0.034169
0.0502437
0.0601132
0.0613311
0.0605263
0.0592216
0.0596402
0.0611143
0.0633755
0.06708
0.0696258
0.0719042
0.0731386
0.0749236
0.0771089
0.0824207
0.0882522
0.0958233
0.0155556
0.0238428
0.0267419
0.0306268
0.0372014
0.0441835
0.0482765
0.0532689
0.0584527
0.0660505
0.0714159
0.0770676
0.0800072
0.0838674
0.0866738
0.0925065
0.0976548
0.104524
0.00521278
0.00867327
0.0148031
0.0232093
0.0363985
0.0504601
0.0605473
0.0727697
0.0865991
0.104638
0.118594
0.131762
0.138574
0.145395
0.149218
0.154824
0.158612
0.164505
0.00116164
0.00666558
0.0201821
0.0507588
0.0979869
0.139845
0.166791
0.196846
0.230061
0.268858
0.300056
0.323134
0.334573
0.341356
0.344121
0.347372
0.349334
0.354997
0.00330408
0.0421042
0.135691
0.291596
0.451555
0.566308
0.62866
0.685823
0.737067
0.788426
0.824299
0.841509
0.842275
0.83727
0.831193
0.824762
0.822072
0.823658
0.0523144
0.431852
1.00975
1.46392
1.85021
2.01965
2.06046
2.0749
2.06583
2.04057
2.00058
1.94803
1.88821
1.82466
1.78033
1.73371
1.69193
1.65707
0.861692
3.27543
4.40624
4.61878
4.41092
4.12463
3.88725
3.67582
3.49284
3.31522
3.14003
2.96587
2.80536
2.65401
2.51944
2.38243
2.25508
2.1107
6.33651
8.72166
7.47455
5.6102
4.46142
3.86101
3.58735
3.42949
3.34357
3.2677
3.20793
3.1484
3.09031
3.02846
2.96994
2.90809
2.83304
2.6521
0.0918467
0.130824
0.135503
0.13641
0.139854
0.148287
0.161287
0.174635
0.186146
0.197782
0.209691
0.224245
0.242124
0.263247
0.285247
0.306885
0.330051
0.355455
0.383916
0.415528
0.448882
0.482091
0.514076
0.547794
0.584337
0.6235
0.664126
0.705265
0.746875
0.791638
0.839323
0.885983
0.931502
0.977159
1.02093
1.07467
1.13384
1.18469
1.25109
1.3269
1.39861
1.50155
1.60721
1.73846
1.91983
2.04084
2.08027
2.08255
2.08185
2.11833
2.18357
2.2071
2.20871
2.18572
2.17543
2.23198
2.33863
2.45597
2.56388
2.63349
2.65128
2.63107
2.56889
2.47844
2.43438
2.43221
2.52065
2.71441
3.00232
3.59201
4.19551
4.99134
6.82734
7.75327
7.55998
6.47181
4.90015
4.0394
3.76826
3.84905
4.03801
4.08846
4.16377
4.238
4.23644
4.25274
4.41594
4.70257
5.01064
5.23931
5.36493
5.4143
5.42629
5.39547
5.26161
4.95964
4.52948
4.09555
3.76698
3.52671
3.31216
3.04395
2.63684
2.50798
2.36874
2.14993
2.07245
2.00433
1.95558
1.97872
2.00628
2.05922
2.15129
2.32112
2.57275
2.8132
2.95696
3.12666
3.50903
3.97183
4.20201
4.28608
4.35038
4.59741
4.84776
5.03489
5.11341
5.22844
5.29446
5.38946
5.501
5.71469
6.02895
6.44583
6.97893
7.46399
8.09605
8.63135
9.1805
9.84657
10.3851
10.9916
11.6912
12.46
13.4816
14.6818
15.6129
15.8906
15.7945
15.2161
14.9572
14.9802
14.4735
14.5424
15.3103
16.2095
16.2501
17.6962
19.8038
21.5786
22.5073
21.517
17.1971
13.9709
10.6122
8.13499
7.39221
7.23565
6.5825
5.79896
5.88927
6.34926
7.21167
8.53827
10.7289
11.9293
12.1479
12.4807
14.3033
20.0563
0.211672
0.134017
0.116892
0.10533
0.102009
0.102505
0.106563
0.10993
0.111768
0.115055
0.119263
0.124964
0.132839
0.14231
0.150961
0.158298
0.166406
0.175473
0.186012
0.197158
0.206834
0.214121
0.220056
0.228303
0.237998
0.248516
0.258191
0.267954
0.278088
0.290592
0.303912
0.315719
0.324665
0.332316
0.337728
0.349778
0.357813
0.360937
0.370993
0.38341
0.390752
0.414325
0.436959
0.479493
0.559656
0.644737
0.808123
0.897724
0.919867
0.923259
0.959069
1.03363
1.02722
0.910918
0.858639
0.861709
0.863977
0.868354
0.886373
0.923412
0.928241
0.868219
0.699208
0.535032
0.479713
0.486843
0.566295
0.674128
0.75869
0.802314
0.797174
0.803384
0.860593
1.20251
2.53451
3.36232
3.30616
2.82813
1.92818
1.68735
1.70718
1.89189
2.80932
3.48729
3.68707
3.66215
3.46565
3.15187
2.73984
2.31197
1.99344
1.79024
1.63478
1.46531
1.28141
1.1006
0.98004
0.927026
0.903499
0.883418
0.848627
0.808481
0.777211
0.794814
0.782693
0.754962
0.780281
0.772777
0.776932
0.832174
0.846923
0.84132
0.850462
0.879213
0.939884
1.02653
1.06447
1.07675
1.11927
1.25694
1.4417
1.52506
1.55604
1.60748
1.70917
1.82428
1.92338
2.06765
2.22425
2.3239
2.36558
2.4014
2.51546
2.64045
2.72584
2.81392
2.98872
3.29056
3.44508
3.5599
3.70809
3.78015
3.89722
4.12632
4.41483
4.84774
5.39133
5.75382
5.91
6.02068
5.88594
6.46667
6.73119
6.57849
6.57058
6.8323
6.90996
7.43231
8.12804
8.43076
9.14981
10.0394
9.56951
8.48533
7.20815
6.18556
6.0655
6.07179
6.33124
6.09878
6.20537
6.14416
6.48738
7.55517
8.67887
8.61028
8.12188
7.07415
6.77945
8.17154
0.474475
0.147488
0.102974
0.0866905
0.0800913
0.0788716
0.0804722
0.0836442
0.0871903
0.0920642
0.0974465
0.102838
0.111293
0.120756
0.12784
0.132749
0.137129
0.142258
0.147345
0.152168
0.156454
0.160887
0.167728
0.177216
0.188187
0.199551
0.211164
0.222626
0.234145
0.246847
0.259389
0.270663
0.278784
0.284447
0.286919
0.290716
0.293081
0.29426
0.298349
0.299596
0.300077
0.303688
0.306835
0.312279
0.31839
0.329877
0.358558
0.382248
0.4053
0.419129
0.425884
0.46867
0.513473
0.51976
0.593502
0.67471
0.691252
0.69848
0.6953
0.632157
0.535385
0.44224
0.367171
0.332955
0.328828
0.346675
0.415623
0.522639
0.607487
0.64702
0.655728
0.662636
0.629668
0.614589
0.738077
1.19528
1.77734
1.75753
1.73098
1.92404
2.38325
2.68005
2.69411
2.46057
2.10326
1.77625
1.45794
1.13447
0.861819
0.706607
0.627301
0.582342
0.544445
0.499778
0.451858
0.431095
0.429085
0.453294
0.495282
0.504579
0.501191
0.487643
0.497495
0.528249
0.49836
0.495046
0.531372
0.507348
0.48067
0.523178
0.562779
0.556264
0.552084
0.545221
0.556714
0.620234
0.638445
0.633859
0.635982
0.662776
0.749125
0.821184
0.839613
0.849359
0.874337
0.923204
0.957776
1.01634
1.10808
1.19445
1.2384
1.26789
1.32413
1.40194
1.43062
1.48726
1.64652
2.04145
2.30754
2.38585
2.39935
2.44089
2.49819
2.67348
2.79857
2.82776
2.96813
3.1752
3.30578
3.41375
3.60342
4.10404
4.37404
4.34882
4.45847
4.4721
4.42301
4.83781
4.9499
4.88162
5.08387
5.67815
6.35185
6.44686
6.04316
5.60916
5.72442
5.77053
6.00723
6.33495
6.3078
5.70682
5.10841
6.23904
8.60164
7.99639
6.63435
5.95905
5.52727
6.19505
1.03949
0.196358
0.10707
0.0873691
0.0777679
0.0750273
0.0762766
0.0821882
0.0912328
0.102115
0.110445
0.114116
0.120076
0.127011
0.129688
0.131752
0.132758
0.133988
0.136385
0.139941
0.145485
0.152565
0.161525
0.173663
0.187124
0.199745
0.20996
0.217919
0.224994
0.233311
0.240088
0.241534
0.241685
0.242118
0.24489
0.250016
0.254144
0.257608
0.260143
0.26152
0.264798
0.268401
0.269621
0.271777
0.282614
0.288625
0.287924
0.29206
0.309639
0.312829
0.305615
0.316311
0.340074
0.336413
0.339395
0.367307
0.398733
0.487014
0.549924
0.578123
0.574042
0.52203
0.417052
0.361244
0.341945
0.34544
0.385567
0.489221
0.576644
0.626313
0.648425
0.645019
0.596236
0.535968
0.538973
0.659519
0.988852
1.2278
2.0504
2.52728
2.38715
2.02976
1.62683
1.30516
1.05015
0.835584
0.646872
0.483031
0.396989
0.359915
0.343324
0.337243
0.336572
0.331203
0.324138
0.323434
0.330146
0.350278
0.411512
0.450032
0.459615
0.424158
0.444135
0.479833
0.444694
0.427245
0.461266
0.447824
0.399627
0.417411
0.446646
0.450937
0.451704
0.427706
0.43391
0.470173
0.487586
0.505032
0.509464
0.509077
0.519764
0.573685
0.615173
0.621853
0.626989
0.651454
0.678152
0.693743
0.722567
0.80299
0.861629
0.885558
0.902937
0.952272
1.04855
1.12084
1.26569
1.60069
1.86614
2.02676
2.07578
2.06916
2.03052
2.15335
2.45606
2.55526
2.48275
2.49292
2.56755
2.60355
3.03737
3.44022
3.57859
3.5467
3.78899
3.85749
3.63017
3.85104
3.88453
3.733
3.85269
4.09894
4.76537
5.27765
5.18312
5.41921
5.68213
5.75751
6.10052
6.1565
6.35
5.74634
4.79486
4.3593
7.33776
8.26586
6.73697
5.6554
5.29399
5.41582
1.81234
0.369363
0.131481
0.0998806
0.0816158
0.0772833
0.079965
0.0902987
0.111348
0.128366
0.12952
0.120347
0.119838
0.123633
0.123748
0.122542
0.121013
0.120858
0.124359
0.130286
0.136836
0.14349
0.148706
0.154553
0.165723
0.175336
0.178537
0.179864
0.181374
0.185735
0.191341
0.194999
0.200393
0.207467
0.215334
0.221484
0.226349
0.230912
0.234263
0.235327
0.235561
0.235398
0.235184
0.236197
0.236404
0.235807
0.238588
0.252756
0.263431
0.263149
0.267116
0.277662
0.284471
0.283328
0.286902
0.292202
0.292578
0.306224
0.334935
0.402662
0.45657
0.470018
0.454444
0.407758
0.38196
0.381637
0.410364
0.525162
0.647081
0.698106
0.700633
0.684094
0.606639
0.524352
0.51119
0.557294
0.754594
1.43261
2.35408
2.3424
1.75186
1.20769
0.877683
0.701226
0.567445
0.457482
0.367687
0.303315
0.277064
0.266761
0.264038
0.267854
0.281441
0.293144
0.300119
0.30587
0.314312
0.322893
0.343181
0.400863
0.41998
0.385385
0.417875
0.442852
0.434756
0.398872
0.414912
0.414487
0.377473
0.396072
0.385546
0.38859
0.406219
0.377299
0.382925
0.406517
0.400909
0.414872
0.450621
0.44519
0.424078
0.430492
0.488033
0.509336
0.509061
0.518164
0.548166
0.556973
0.560418
0.598049
0.693188
0.735972
0.749301
0.772401
0.902062
1.08429
1.20615
1.3877
1.48931
1.72135
1.87607
1.80241
1.67613
1.66254
2.22567
2.54912
2.41614
2.26459
2.2896
2.23572
2.64356
3.11891
3.2189
3.17388
3.41565
3.46598
3.20088
3.25294
3.3095
3.20109
3.30529
3.50738
3.94224
4.6065
4.74555
5.69182
6.14512
6.49274
6.48867
6.09467
5.55969
5.59536
4.88328
4.05485
3.99281
8.2652
7.02938
5.42651
5.18468
4.67696
2.61462
0.573252
0.146396
0.113194
0.0971099
0.0845144
0.0905852
0.118206
0.133766
0.135554
0.12789
0.118252
0.11503
0.113987
0.110666
0.107704
0.107439
0.107478
0.108853
0.112302
0.116551
0.122108
0.127131
0.131342
0.137008
0.143979
0.149491
0.154512
0.159912
0.167388
0.175804
0.184932
0.195349
0.206982
0.218955
0.229774
0.239785
0.248096
0.252769
0.253919
0.253174
0.247625
0.240119
0.234404
0.231296
0.227668
0.224398
0.216585
0.20955
0.208088
0.210543
0.210138
0.219131
0.245778
0.269014
0.276421
0.277166
0.281683
0.286064
0.29947
0.336126
0.36393
0.368391
0.3699
0.373096
0.383917
0.43376
0.592762
0.728556
0.790256
0.798783
0.779913
0.677694
0.559613
0.534937
0.594217
0.953407
1.96909
2.21476
1.6937
1.01962
0.692413
0.506468
0.416507
0.354637
0.305304
0.268217
0.242981
0.233485
0.231032
0.233017
0.24292
0.259052
0.278384
0.295826
0.307103
0.320694
0.326566
0.32153
0.346875
0.347232
0.355296
0.368101
0.365909
0.413089
0.380101
0.398238
0.390239
0.346106
0.393589
0.368192
0.356812
0.380153
0.355747
0.34252
0.359811
0.36045
0.344477
0.342798
0.36524
0.370945
0.37049
0.384963
0.435884
0.433655
0.432933
0.4682
0.491506
0.493093
0.50737
0.57717
0.696281
0.716941
0.740571
0.842859
1.1761
1.34533
1.34533
1.32009
1.48791
1.58872
1.50123
1.3969
1.5656
2.20654
2.68106
2.48807
2.20817
2.17494
2.05244
2.22353
2.59918
2.85365
2.87345
3.06447
3.05073
2.91659
2.91723
2.97632
2.88853
2.99955
3.26828
3.57562
4.04226
4.58372
5.83397
6.30048
7.35862
7.31945
6.20628
4.15488
4.83433
4.63745
3.9501
3.15573
7.2489
6.86268
5.10951
4.99126
4.61917
3.39101
0.772078
0.173698
0.125981
0.107599
0.104879
0.117515
0.138027
0.139154
0.122595
0.116253
0.112241
0.106981
0.104872
0.101796
0.0981634
0.0981054
0.0989625
0.0996525
0.102641
0.106112
0.111454
0.116579
0.121791
0.127611
0.134324
0.141614
0.149223
0.158119
0.168881
0.181569
0.198995
0.220434
0.243953
0.262986
0.275478
0.28502
0.291528
0.295774
0.298111
0.298343
0.293716
0.28297
0.266596
0.249047
0.236356
0.225573
0.214851
0.203158
0.198231
0.195804
0.185727
0.181664
0.192005
0.223683
0.240428
0.260788
0.273731
0.276612
0.290519
0.316301
0.316707
0.313426
0.308396
0.308946
0.333897
0.446379
0.649428
0.773568
0.861265
0.888769
0.872959
0.794285
0.692722
0.676291
0.9017
1.58456
1.90055
1.63281
0.950966
0.604986
0.420652
0.331494
0.28923
0.263417
0.242993
0.225701
0.215843
0.213156
0.213388
0.219437
0.233015
0.24917
0.268329
0.293481
0.313216
0.324556
0.333526
0.322681
0.338951
0.328728
0.378488
0.359972
0.335323
0.399784
0.355079
0.383566
0.381886
0.324258
0.351737
0.354676
0.324271
0.330073
0.34028
0.31743
0.299143
0.328343
0.328578
0.30929
0.328527
0.35651
0.349409
0.355046
0.407993
0.405664
0.40507
0.445459
0.470309
0.468515
0.476818
0.521734
0.709144
0.740447
0.746248
0.861146
1.16182
1.49285
1.42316
1.24375
1.25981
1.29599
1.31227
1.29868
1.613
2.4164
3.04388
2.78868
2.22337
2.05636
1.95458
2.13239
2.26986
2.32849
2.43533
2.52137
2.58012
2.63761
2.65177
2.61793
2.67328
2.73454
3.11637
3.40706
3.69158
4.60918
5.24599
5.26437
6.29183
7.40626
6.07767
3.77538
3.51719
3.74867
3.60222
3.00253
4.23172
6.28704
5.06026
4.9624
4.71965
4.20948
1.15888
0.231074
0.138139
0.118332
0.118343
0.134604
0.137339
0.131945
0.114963
0.111563
0.110493
0.105394
0.102206
0.0986235
0.0951437
0.0946335
0.0945819
0.0948904
0.0972388
0.101156
0.10635
0.111845
0.116921
0.123554
0.131373
0.140526
0.150155
0.163351
0.182461
0.208121
0.238159
0.261882
0.272407
0.278449
0.284391
0.289759
0.292764
0.293647
0.295609
0.298441
0.298842
0.293614
0.277488
0.253119
0.235358
0.224091
0.218372
0.211294
0.204927
0.199204
0.186893
0.174057
0.170127
0.175471
0.193851
0.216227
0.227372
0.239317
0.266779
0.293774
0.307906
0.308268
0.292772
0.282246
0.301968
0.438763
0.650789
0.780382
0.894677
0.960802
0.968735
0.945137
0.933273
1.02432
1.31727
1.52786
1.43216
0.903132
0.570156
0.389587
0.29583
0.253106
0.232557
0.220233
0.210313
0.204511
0.201395
0.199722
0.201678
0.211684
0.228427
0.244081
0.258321
0.285006
0.310796
0.318131
0.320363
0.325785
0.338452
0.325318
0.410122
0.383336
0.330292
0.386885
0.354113
0.317602
0.35742
0.33472
0.30209
0.312412
0.31516
0.288264
0.307695
0.308847
0.279942
0.315184
0.322
0.299797
0.315323
0.350888
0.340927
0.340049
0.381707
0.386376
0.389772
0.429759
0.456983
0.458058
0.468657
0.505833
0.721764
0.767932
0.755754
0.825271
0.92391
1.27937
1.41447
1.20429
1.2159
1.226
1.22543
1.29012
1.85024
2.45193
3.02116
2.85116
2.22121
1.94567
1.9048
2.16253
2.1372
2.07419
2.08437
1.96234
2.03685
2.38878
2.464
2.36656
2.53699
2.65844
3.00422
3.26913
3.44332
4.55808
4.53155
4.42947
4.51565
5.93606
5.44721
3.46085
2.94567
3.2311
3.20705
2.97682
3.40736
6.20944
5.09452
4.82756
5.00471
4.82222
1.4246
0.274886
0.144697
0.130739
0.132546
0.146683
0.141409
0.128466
0.11622
0.112019
0.110195
0.104693
0.101074
0.097143
0.0946949
0.0942758
0.0941415
0.094159
0.0945409
0.0963989
0.100063
0.106583
0.114127
0.122257
0.131486
0.141845
0.156851
0.180809
0.212973
0.24685
0.26569
0.272977
0.275445
0.275539
0.272286
0.261555
0.252021
0.246329
0.240647
0.23833
0.24665
0.259859
0.265062
0.2473
0.217867
0.199344
0.195156
0.201132
0.204223
0.201281
0.195204
0.179554
0.165572
0.161394
0.162152
0.167218
0.177955
0.194495
0.227943
0.272072
0.302817
0.306785
0.29319
0.275469
0.278999
0.345307
0.568805
0.774715
0.910257
0.990552
1.01578
1.01005
1.03038
1.14254
1.22986
1.1743
0.822054
0.550921
0.388836
0.284969
0.233252
0.209977
0.199621
0.194894
0.192151
0.187747
0.185975
0.186769
0.193544
0.20544
0.223171
0.239798
0.253465
0.273347
0.290441
0.293897
0.29223
0.320474
0.328411
0.333255
0.384799
0.381969
0.343837
0.324911
0.356816
0.303428
0.295479
0.351052
0.308692
0.281402
0.306613
0.278271
0.277896
0.285904
0.265546
0.300215
0.311168
0.288649
0.293608
0.334003
0.32917
0.320751
0.324504
0.360031
0.371301
0.383019
0.410448
0.444467
0.460308
0.487129
0.615769
0.705245
0.722823
0.776621
0.843286
0.876381
1.06096
1.08381
1.25149
1.23025
1.19268
1.3292
2.12966
2.39396
2.31197
2.52923
2.14188
1.82905
1.84569
2.19094
2.06349
1.99963
1.94829
1.74749
1.78775
2.26012
2.35059
2.26568
2.53256
2.70149
2.82929
2.93969
3.26534
4.36879
4.39122
4.48642
4.38903
4.15675
4.33978
3.24996
2.57887
2.91325
2.89556
2.93189
3.24088
6.16692
5.09888
4.72129
5.50852
5.3245
1.54045
0.278474
0.138235
0.135479
0.147753
0.150656
0.138162
0.120921
0.115171
0.111675
0.108627
0.10507
0.101678
0.0987232
0.0971227
0.0966896
0.0958538
0.0952579
0.0950421
0.0958671
0.0981957
0.103197
0.1101
0.118953
0.13086
0.146069
0.170005
0.20614
0.247425
0.272096
0.279219
0.279745
0.274255
0.263359
0.249087
0.239464
0.236247
0.231121
0.222043
0.20703
0.198878
0.198569
0.212773
0.218451
0.204691
0.180724
0.167269
0.164558
0.170439
0.179579
0.183205
0.18131
0.164849
0.156568
0.15497
0.155474
0.159893
0.172512
0.197786
0.236263
0.278304
0.307387
0.313833
0.284019
0.27969
0.324049
0.489658
0.716309
0.88091
0.982741
1.01983
1.02101
1.02494
1.03159
0.938757
0.730886
0.522031
0.39102
0.298025
0.230869
0.198253
0.183798
0.178623
0.17678
0.173902
0.170738
0.170658
0.177013
0.188819
0.203036
0.221765
0.239983
0.253911
0.268469
0.272369
0.265926
0.266035
0.292404
0.286464
0.336048
0.313071
0.30831
0.353513
0.293478
0.321689
0.30358
0.282965
0.339604
0.312839
0.263972
0.281455
0.257473
0.242297
0.24838
0.239707
0.240935
0.256861
0.252388
0.243272
0.269978
0.294718
0.289399
0.276422
0.314649
0.338777
0.343299
0.36206
0.429588
0.43601
0.471131
0.477604
0.514174
0.619323
0.793263
0.849897
0.837281
0.905345
0.964349
1.29806
1.26073
1.16451
1.37711
2.10012
2.14082
1.84141
2.2152
2.02642
1.75077
1.8525
2.20109
1.99031
1.96916
1.88331
1.69352
1.68082
2.16359
2.19043
2.19191
2.72547
2.82244
2.67411
2.72375
3.25352
4.05497
4.46167
5.17796
4.62546
3.49742
3.54936
2.90033
2.44917
2.64952
2.68276
2.92378
3.21677
6.06164
5.08706
4.71978
6.04429
5.88412
1.61848
0.261802
0.128796
0.128198
0.143017
0.14243
0.128578
0.119269
0.116569
0.114764
0.111594
0.109157
0.107535
0.107723
0.108527
0.10782
0.104417
0.100779
0.0988429
0.0983668
0.098858
0.102365
0.108421
0.118301
0.133618
0.156119
0.190184
0.237606
0.279027
0.290939
0.291691
0.280363
0.264003
0.241624
0.234139
0.23709
0.237586
0.236433
0.230731
0.214391
0.193728
0.187561
0.190909
0.198074
0.193024
0.177296
0.158975
0.152574
0.15179
0.154694
0.156166
0.156958
0.155494
0.149998
0.148568
0.148946
0.149154
0.154101
0.164247
0.190705
0.241451
0.302135
0.344524
0.3401
0.299096
0.309622
0.405896
0.632988
0.80996
0.926173
0.970836
0.966057
0.896088
0.791234
0.642642
0.497253
0.389617
0.311009
0.250481
0.202312
0.180848
0.173075
0.169817
0.165051
0.16024
0.158607
0.161093
0.172076
0.187054
0.204615
0.230819
0.244606
0.252484
0.254866
0.244199
0.230035
0.225255
0.235086
0.241059
0.316885
0.287273
0.275778
0.311552
0.282154
0.29208
0.292152
0.283763
0.296338
0.283684
0.251669
0.241035
0.237173
0.227757
0.229229
0.232125
0.228329
0.234279
0.240932
0.236009
0.236011
0.258999
0.264501
0.263333
0.291697
0.314022
0.334124
0.349708
0.404689
0.40981
0.469566
0.448779
0.477988
0.578954
0.84425
0.843737
0.836681
0.88278
0.940836
1.25834
1.21393
1.14371
1.3418
1.93219
1.90456
1.83238
2.18505
1.96031
1.71375
1.91321
2.17989
1.95448
1.93671
1.80188
1.68659
1.66958
2.06529
2.04213
2.13523
2.83971
2.81811
2.66037
2.72995
3.3778
3.70478
4.80427
5.76549
4.85582
3.11916
2.96239
2.6677
2.42247
2.47667
2.57029
2.95681
3.24211
5.87587
5.09844
4.76324
6.0783
6.37998
2.0327
0.30235
0.132125
0.126686
0.139703
0.135477
0.125042
0.121874
0.124217
0.128772
0.128048
0.125575
0.120267
0.120073
0.120965
0.120869
0.11648
0.108402
0.10219
0.100896
0.101161
0.103795
0.110275
0.122877
0.146694
0.187028
0.244435
0.297566
0.31361
0.314871
0.29884
0.269391
0.231262
0.218886
0.228963
0.249607
0.254757
0.253106
0.252337
0.250341
0.222604
0.194598
0.187945
0.192209
0.192933
0.177161
0.154945
0.147624
0.146488
0.147892
0.148337
0.144547
0.141621
0.137243
0.132593
0.130448
0.129504
0.128735
0.132275
0.148163
0.180729
0.246504
0.344064
0.399397
0.365051
0.3318
0.369967
0.532926
0.715136
0.830386
0.872158
0.854394
0.739949
0.612391
0.475191
0.374919
0.312748
0.257121
0.218988
0.186152
0.169839
0.164516
0.163838
0.161721
0.15717
0.155232
0.157094
0.167453
0.187369
0.218537
0.2395
0.242961
0.23813
0.226578
0.208248
0.199385
0.193755
0.199037
0.221532
0.247995
0.251158
0.264067
0.26636
0.270283
0.28785
0.281506
0.28253
0.270133
0.248184
0.247018
0.233246
0.23452
0.228502
0.228497
0.240277
0.232316
0.23377
0.241408
0.236642
0.233951
0.246032
0.252704
0.256578
0.281033
0.305779
0.325262
0.333365
0.351008
0.385698
0.475071
0.439549
0.487316
0.638062
0.811316
0.802942
0.791867
0.875405
0.937652
1.14894
1.06631
1.09722
1.26423
1.55733
1.86851
1.82392
2.16835
1.90721
1.68323
1.91047
2.05185
1.94287
1.87448
1.76494
1.69838
1.65473
1.94836
1.96807
2.12214
2.83606
2.64335
2.64594
2.85404
3.9252
3.71355
5.96292
6.07274
4.71962
2.99835
2.82225
2.65051
2.43843
2.42086
2.52826
3.03951
3.30786
5.7093
5.18402
4.76234
5.79734
6.62149
2.70754
0.511544
0.1542
0.130416
0.142898
0.138317
0.128821
0.128079
0.134398
0.138412
0.141542
0.147659
0.148418
0.144103
0.139375
0.137557
0.131766
0.122074
0.11351
0.111567
0.112728
0.118716
0.134002
0.166604
0.221327
0.286874
0.322389
0.332595
0.332878
0.318435
0.286116
0.235381
0.208412
0.212494
0.237717
0.259295
0.259549
0.254657
0.255723
0.263848
0.264883
0.243636
0.205861
0.18928
0.18353
0.178747
0.151694
0.141481
0.140763
0.144888
0.14668
0.143435
0.139886
0.1357
0.129875
0.124799
0.122252
0.121155
0.121714
0.129602
0.146871
0.177723
0.266035
0.401681
0.450167
0.395871
0.379532
0.457314
0.634042
0.75013
0.790845
0.779866
0.67383
0.534291
0.40324
0.321084
0.268654
0.230091
0.204354
0.176956
0.162693
0.159235
0.160134
0.159709
0.156791
0.153661
0.154352
0.162938
0.195258
0.234251
0.241504
0.237256
0.220418
0.201319
0.19383
0.190727
0.185008
0.186525
0.208585
0.210067
0.221539
0.233067
0.252782
0.267192
0.281623
0.277437
0.273141
0.254421
0.239273
0.244546
0.234992
0.243751
0.241372
0.238439
0.247323
0.238635
0.236071
0.237372
0.233665
0.231192
0.242002
0.246455
0.255336
0.273101
0.296072
0.312312
0.299233
0.316486
0.370985
0.448512
0.426539
0.462017
0.667537
0.640363
0.688346
0.703004
0.808856
0.916421
1.04967
0.930542
1.04223
1.18055
1.37303
1.75809
1.68329
2.06286
1.86054
1.64039
1.83364
2.00204
1.94873
1.84988
1.77944
1.74863
1.65756
1.83102
1.94182
2.16406
2.78314
2.56595
2.62864
3.20097
4.74709
4.2237
6.26492
5.96354
3.94164
2.86626
2.85381
2.75527
2.55787
2.42292
2.53215
3.10979
3.37209
5.40073
5.18081
4.69029
5.27644
6.76705
2.9536
0.775419
0.234746
0.144974
0.150304
0.148545
0.14328
0.145268
0.145866
0.142865
0.143559
0.153383
0.167656
0.178891
0.180215
0.174181
0.167409
0.162977
0.161437
0.167385
0.183084
0.208655
0.245845
0.290426
0.32431
0.338424
0.340614
0.325681
0.287931
0.23879
0.199475
0.188869
0.197492
0.224467
0.251261
0.255841
0.24698
0.238838
0.239476
0.258284
0.271438
0.270219
0.247075
0.200164
0.172136
0.154704
0.140887
0.127155
0.124648
0.131507
0.142439
0.144619
0.140947
0.135839
0.131103
0.125686
0.122161
0.122458
0.122317
0.122618
0.133295
0.150184
0.184416
0.294438
0.453765
0.48727
0.443094
0.440696
0.541752
0.689319
0.741493
0.737899
0.646524
0.514163
0.389463
0.308447
0.252145
0.221463
0.202654
0.174868
0.15745
0.150423
0.150675
0.152134
0.15001
0.147201
0.147796
0.158093
0.203178
0.238302
0.240952
0.233323
0.21053
0.194649
0.188976
0.187021
0.18131
0.180911
0.187665
0.193932
0.212445
0.217936
0.241435
0.26611
0.257647
0.259092
0.251742
0.234642
0.234616
0.242335
0.239835
0.251222
0.249086
0.244591
0.247889
0.240943
0.238267
0.236204
0.232676
0.232688
0.241862
0.245462
0.252395
0.26373
0.275418
0.28908
0.280402
0.292881
0.361154
0.375717
0.383919
0.417481
0.594049
0.509806
0.576329
0.597404
0.693077
0.835819
0.942341
0.830361
1.01807
1.09869
1.23485
1.54153
1.46657
1.80132
1.8004
1.58221
1.63306
1.95015
1.92896
1.87973
1.85011
1.78376
1.69326
1.7818
1.94767
2.20969
2.69499
2.4321
2.62055
3.34399
4.85755
5.19806
6.24702
5.16388
3.54303
2.76219
2.96643
3.03304
2.76655
2.42783
2.55905
3.17059
3.37634
5.0062
5.11805
4.52721
4.92329
6.95051
3.03804
0.875159
0.285231
0.156212
0.151079
0.150481
0.149183
0.151529
0.151563
0.144778
0.143465
0.151077
0.166631
0.194691
0.221793
0.228858
0.223826
0.213197
0.210631
0.220295
0.242392
0.268561
0.296754
0.319197
0.325845
0.321224
0.298658
0.262116
0.216668
0.183087
0.163638
0.160211
0.185113
0.249476
0.279418
0.258391
0.23163
0.227957
0.234451
0.245068
0.252508
0.259529
0.255625
0.217872
0.175199
0.141863
0.115794
0.0989192
0.0939382
0.0962698
0.112775
0.128598
0.133391
0.131065
0.128294
0.12807
0.124114
0.119869
0.122584
0.126525
0.125926
0.137382
0.154958
0.190721
0.310397
0.489585
0.528769
0.50641
0.510675
0.609449
0.704947
0.718676
0.662887
0.524604
0.397703
0.308422
0.25164
0.222885
0.204048
0.174193
0.152265
0.142683
0.140636
0.141019
0.140172
0.13855
0.139877
0.153339
0.202998
0.235948
0.23726
0.229681
0.20969
0.193976
0.18751
0.184877
0.179226
0.178302
0.180314
0.184301
0.19671
0.211512
0.237487
0.250612
0.246056
0.234699
0.230038
0.229198
0.231715
0.242376
0.242075
0.250647
0.247628
0.243531
0.246265
0.243377
0.244041
0.241129
0.239299
0.240689
0.246825
0.250035
0.251765
0.256636
0.260208
0.271828
0.272756
0.28059
0.325666
0.320399
0.334943
0.394577
0.407288
0.414685
0.537157
0.526379
0.549148
0.64404
0.896233
0.802103
0.927089
0.991577
1.16218
1.47252
1.39291
1.58028
1.70781
1.50379
1.57025
1.91367
1.95164
1.98673
1.88908
1.76479
1.72994
1.78042
1.99109
2.21908
2.60988
2.26326
2.62437
3.25083
3.5486
5.69579
6.38159
4.58886
3.33734
2.7142
3.06928
3.06325
2.79475
2.39053
2.65736
3.18213
3.34024
4.5864
4.90505
4.33652
4.82091
7.24398
3.19154
0.989754
0.313152
0.164664
0.152802
0.150055
0.148827
0.150265
0.150889
0.144496
0.136244
0.135919
0.145866
0.175303
0.22298
0.250593
0.253641
0.23896
0.230973
0.231358
0.244459
0.262255
0.26739
0.257862
0.232659
0.205973
0.193908
0.192077
0.200736
0.188228
0.166054
0.154417
0.163214
0.22217
0.288543
0.28012
0.233108
0.22837
0.240572
0.246661
0.246271
0.23897
0.23201
0.214596
0.178777
0.141452
0.110345
0.0874052
0.0776338
0.0764601
0.0764965
0.0837134
0.0963989
0.104824
0.107869
0.111683
0.118965
0.120578
0.115337
0.117489
0.126262
0.129711
0.141295
0.156517
0.182518
0.294803
0.507893
0.580654
0.580508
0.586165
0.656456
0.690318
0.673494
0.565556
0.425209
0.321357
0.258602
0.229608
0.20736
0.176186
0.151223
0.140548
0.136705
0.135957
0.135732
0.135338
0.137262
0.151464
0.20272
0.230113
0.231665
0.227282
0.212892
0.195141
0.186791
0.182474
0.176917
0.176016
0.177212
0.180925
0.190514
0.209373
0.2305
0.228273
0.227504
0.224685
0.225899
0.227027
0.230099
0.242115
0.240592
0.245156
0.245076
0.243352
0.246864