/*--------------------------------*- C++ -*----------------------------------*\
| =========                 |                                                 |
| \\      /  F ield         | OpenFOAM: The Open Source CFD Toolbox           |
|  \\    /   O peration     | Version:  dev                                   |
|   \\  /    A nd           | Web:      http://www.openfoam.org               |
|    \\/     M anipulation  |                                                 |
\*---------------------------------------------------------------------------*/
FoamFile
{
    version     2.0;
    format      ascii;
    class       volScalarField;
    object      k_0;
    location    "9.151";
}
// * * * * * * * * * * * * * * * * * * * * * * * * * * * * * * * * * * * * * //

dimensions      [0 2 -2 0 0 0 0];

internalField   nonuniform List<scalar> 
12225
(
8.17812
8.96177
5.54287
5.31961
3.58433
4.65605
3.66832
4.86591
4.23918
5.49809
5.02335
6.67407
6.1378
9.04198
8.07773
13.0501
15.8015
30.2485
1.52572
5.43517
4.81492
5.73709
4.30074
5.19115
3.89147
4.7901
3.8552
4.51871
4.01302
4.35801
4.28307
4.15557
4.4549
3.87687
4.70768
8.9249
0.108904
1.60316
1.91253
2.91259
2.75591
3.18011
2.92724
3.05489
2.96132
2.74339
2.85845
2.51538
2.82003
2.26228
2.76073
2.09506
2.55089
4.4304
0.00912374
0.237333
0.509131
0.682526
1.04199
1.09822
1.35299
1.27129
1.538
1.30892
1.51036
1.23673
1.37862
1.10278
1.26912
1.02704
1.22025
1.29229
0.00137191
0.0399269
0.135676
0.194718
0.332277
0.375838
0.517749
0.512182
0.625173
0.560469
0.635332
0.542764
0.612272
0.504979
0.586263
0.496241
0.618029
0.72158
0.00190544
0.0168714
0.0471269
0.0601234
0.100552
0.119386
0.186828
0.183956
0.239634
0.219604
0.257116
0.226545
0.267053
0.228894
0.269256
0.238841
0.305406
0.319983
0.0039983
0.0081024
0.0183259
0.0222348
0.0357855
0.0408183
0.0664141
0.0636585
0.0895702
0.0832896
0.100403
0.0908778
0.111616
0.0998071
0.115097
0.107909
0.131847
0.1374
0.00454174
0.00809823
0.0140123
0.01711
0.0227695
0.0252485
0.0338257
0.0339649
0.0424749
0.0417169
0.0476697
0.0461009
0.0542187
0.0535321
0.0597815
0.0609646
0.0689047
0.0749231
0.00555627
0.0136704
0.0157938
0.0191675
0.0222704
0.024126
0.0286919
0.0296638
0.0332625
0.0334234
0.035922
0.0361681
0.0395546
0.0416769
0.0471981
0.0495536
0.0542439
0.0596935
0.00877864
0.0260995
0.0258597
0.0291049
0.0287514
0.0297997
0.0310179
0.0314617
0.0329464
0.0329836
0.0345921
0.0350353
0.0372436
0.0395652
0.0449246
0.0475032
0.0512674
0.0574896
0.0220356
0.0451423
0.0466981
0.0509811
0.0487779
0.0482068
0.0458371
0.0433586
0.0414263
0.040331
0.0405415
0.0405952
0.0416978
0.0439125
0.0480025
0.0522892
0.0555689
0.0622769
0.0473216
0.0740772
0.0786261
0.0843509
0.0837973
0.082677
0.0781757
0.07259
0.0651237
0.0624585
0.0603584
0.0599923
0.0604603
0.0615777
0.0652356
0.0720173
0.0776424
0.0860079
0.0991374
0.127804
0.134882
0.140433
0.140002
0.136455
0.12686
0.115478
0.10734
0.104228
0.102307
0.101611
0.101919
0.103108
0.107377
0.119326
0.131499
0.144672
0.176581
0.203093
0.212976
0.21696
0.21641
0.210369
0.1937
0.178022
0.166665
0.160928
0.158462
0.157459
0.157885
0.159964
0.167075
0.187717
0.206377
0.224581
0.288873
0.335433
0.357224
0.364054
0.36361
0.354293
0.33207
0.30445
0.281517
0.265203
0.255627
0.25101
0.249437
0.249965
0.253759
0.269001
0.284016
0.300995
0.432062
0.490659
0.509863
0.508421
0.491117
0.449702
0.405798
0.365408
0.333211
0.310512
0.296624
0.289944
0.287279
0.287166
0.289406
0.301145
0.314788
0.331007
0.525113
0.550236
0.559763
0.554764
0.526944
0.476895
0.428127
0.383779
0.348641
0.323946
0.308713
0.301359
0.298425
0.298116
0.299993
0.310635
0.323871
0.339386
0.527464
0.550207
0.558364
0.552507
0.522686
0.473046
0.424866
0.381382
0.346773
0.322314
0.307101
0.299684
0.296663
0.296319
0.298158
0.308636
0.32185
0.336897
0.405596
0.465765
0.487793
0.486758
0.470512
0.431357
0.389595
0.352272
0.322518
0.30123
0.287733
0.281037
0.278164
0.277749
0.279464
0.289356
0.302147
0.316723
0.247595
0.295904
0.324845
0.332224
0.331866
0.322233
0.296411
0.274572
0.257134
0.243726
0.234645
0.229592
0.227118
0.2266
0.227986
0.236544
0.248648
0.263517
0.150916
0.18072
0.197468
0.199023
0.196108
0.185614
0.173597
0.162795
0.152954
0.145217
0.138912
0.133672
0.130943
0.129902
0.130293
0.135034
0.146209
0.161181
0.0765053
0.100413
0.114328
0.116521
0.115654
0.111908
0.108121
0.103491
0.0979569
0.0912988
0.0868006
0.0849093
0.0845857
0.0851381
0.0867112
0.0916055
0.0985456
0.107423
0.0367578
0.0518151
0.0614113
0.0623897
0.0614547
0.0599578
0.0603732
0.061881
0.0641336
0.0677511
0.0702062
0.0724317
0.0736648
0.0755275
0.0779214
0.0837194
0.0897485
0.0973286
0.0167726
0.0246728
0.0274664
0.0313301
0.0378031
0.0446392
0.0486684
0.0537133
0.059003
0.0665867
0.0718284
0.0773109
0.0801509
0.0840152
0.0869752
0.0931274
0.0984364
0.105291
0.0056376
0.00908172
0.0152595
0.0237489
0.036899
0.0506507
0.0605942
0.0728866
0.0868449
0.10474
0.118338
0.131105
0.137581
0.144312
0.148138
0.15387
0.157779
0.163596
0.00136686
0.00684658
0.0204684
0.0511789
0.0976472
0.138429
0.165104
0.195586
0.229288
0.268078
0.298652
0.321002
0.331805
0.338393
0.341064
0.344436
0.346468
0.352287
0.00362941
0.0419789
0.134594
0.2897
0.447326
0.559965
0.622293
0.680797
0.733179
0.785019
0.820351
0.836681
0.837143
0.831809
0.825983
0.819983
0.817699
0.819875
0.0547906
0.425884
1.00174
1.45572
1.83818
2.00664
2.04897
2.06659
2.05834
2.03368
1.99585
1.94472
1.88588
1.82363
1.78032
1.73422
1.69339
1.65892
0.871168
3.26499
4.41248
4.63862
4.42919
4.15206
3.91728
3.70756
3.52553
3.34772
3.17075
2.99499
2.83317
2.68101
2.54568
2.40696
2.27745
2.12721
6.30418
8.70685
7.4848
5.65364
4.52054
3.93417
3.66965
3.51838
3.43661
3.36314
3.30417
3.24388
3.18361
3.1183
3.05603
2.98997
2.90856
2.71003
0.0911901
0.130286
0.134843
0.135487
0.138539
0.146429
0.158846
0.171678
0.182653
0.193657
0.204814
0.218399
0.235119
0.254992
0.275749
0.29603
0.31759
0.341111
0.36744
0.396718
0.427731
0.458649
0.48818
0.51914
0.552692
0.588768
0.626273
0.664431
0.703056
0.744666
0.789439
0.833876
0.877559
0.92205
0.964863
1.01784
1.0776
1.12957
1.19713
1.27563
1.34976
1.45463
1.56389
1.69567
1.88037
2.01949
2.06117
2.05707
2.05917
2.09901
2.17479
2.20794
2.21074
2.19059
2.17963
2.23223
2.33904
2.46043
2.5775
2.65583
2.67767
2.65761
2.5936
2.50249
2.45868
2.46357
2.56215
2.77236
3.08129
3.70701
4.34035
5.17579
7.0619
7.94909
7.72908
6.60254
5.00866
4.12846
3.85273
3.94364
4.13613
4.18491
4.25225
4.32001
4.31302
4.31799
4.46585
4.73586
5.02821
5.2407
5.35504
5.39265
5.39396
5.35845
5.22981
4.93968
4.52163
4.09385
3.76855
3.53262
3.32722
3.06925
2.66412
2.53902
2.4014
2.18102
2.10223
2.03047
1.9766
1.99367
2.01468
2.06211
2.14815
2.31303
2.55695
2.78433
2.92122
3.09868
3.49176
3.94618
4.16858
4.2599
4.34448
4.61743
4.88472
5.0893
5.18576
5.31742
5.39396
5.495
5.60413
5.80824
6.10581
6.49876
7.01013
7.45991
8.07234
8.58877
9.08619
9.73018
10.1972
10.793
11.5666
12.4739
13.6954
15.0837
16.2187
16.5431
16.5619
15.86
15.7184
15.8078
15.1957
15.3116
16.2399
17.2376
17.2713
18.9556
21.255
23.2345
24.1511
22.9674
18.2978
14.8325
11.1319
8.45266
7.62524
7.51185
6.92714
6.0343
6.11664
6.56099
7.41854
8.77816
10.8135
11.6649
11.8616
12.3158
14.4461
19.9954
0.211499
0.13364
0.116829
0.105228
0.101786
0.102227
0.106243
0.109689
0.111536
0.114741
0.118842
0.124384
0.132067
0.141466
0.150187
0.157536
0.165544
0.174467
0.184892
0.196088
0.205997
0.213509
0.219369
0.22736
0.23688
0.247354
0.257034
0.266748
0.276674
0.288943
0.302322
0.314467
0.323784
0.331801
0.337007
0.348799
0.35799
0.360958
0.370561
0.383466
0.39048
0.413547
0.435732
0.475952
0.554748
0.636192
0.79858
0.899665
0.927936
0.931491
0.962415
1.04186
1.04003
0.928051
0.866184
0.867649
0.869789
0.874034
0.890202
0.928722
0.934161
0.877512
0.710924
0.54444
0.48288
0.488889
0.566439
0.673838
0.757471
0.799719
0.795193
0.802084
0.861515
1.21039
2.56518
3.35828
3.30958
2.82514
1.93483
1.6928
1.70835
1.90664
2.83314
3.49201
3.69349
3.67423
3.48183
3.17654
2.77186
2.34542
2.02354
1.81832
1.66317
1.49593
1.31274
1.12805
0.999461
0.940731
0.914737
0.894407
0.859581
0.817375
0.782758
0.800511
0.788869
0.760116
0.784548
0.778013
0.783343
0.838107
0.851256
0.84603
0.856264
0.887212
0.950679
1.03578
1.07158
1.08465
1.1317
1.27691
1.45689
1.53318
1.56168
1.6142
1.71426
1.82391
1.91872
2.05954
2.21004
2.30177
2.33556
2.36708
2.47657
2.5884
2.66094
2.74044
2.90419
3.19714
3.34445
3.44286
3.56214
3.64642
3.76081
3.97883
4.23714
4.59045
5.06464
5.40174
5.57626
5.67283
5.64233
6.15023
6.44602
6.33761
6.31434
6.42073
6.55992
7.14268
7.67518
7.91155
8.49673
9.33342
9.11752
8.2344
7.05031
6.15901
6.08863
6.15534
6.56009
6.36418
6.45036
6.31357
6.64387
7.85587
9.03307
8.75827
8.06023
6.97082
6.71693
8.2229
0.476494
0.147046
0.102953
0.0866074
0.079866
0.0785656
0.0800841
0.0831419
0.0865756
0.0913375
0.0966678
0.101916
0.110107
0.119584
0.126847
0.131864
0.136225
0.141316
0.146419
0.151281
0.155554
0.159761
0.166189
0.175291
0.186015
0.197224
0.208757
0.220181
0.231556
0.244134
0.256761
0.268415
0.276962
0.283358
0.285988
0.289787
0.292531
0.293607
0.297782
0.29945
0.29979
0.303206
0.306343
0.311777
0.317601
0.32823
0.356361
0.380855
0.405441
0.420458
0.426876
0.468041
0.515284
0.522217
0.593895
0.677709
0.696085
0.703876
0.700518
0.638185
0.540644
0.446322
0.370554
0.33479
0.330306
0.347524
0.416943
0.523723
0.607997
0.646902
0.654924
0.660598
0.627958
0.616669
0.739986
1.21644
1.7819
1.75975
1.7391
1.93157
2.38666
2.68455
2.70744
2.47279
2.11385
1.78318
1.47112
1.15048
0.876299
0.717089
0.635532
0.589451
0.551883
0.507832
0.459177
0.435079
0.431661
0.453357
0.494997
0.504318
0.500767
0.487609
0.495523
0.525521
0.497671
0.495181
0.529515
0.5063
0.482815
0.526595
0.564282
0.557546
0.553353
0.548017
0.56141
0.626287
0.641443
0.63605
0.639254
0.669579
0.75971
0.827681
0.843087
0.852847
0.878512
0.925759
0.958806
1.01801
1.10932
1.19152
1.23029
1.25789
1.31592
1.39259
1.41566
1.46734
1.62253
2.00283
2.26404
2.36262
2.37906
2.43793
2.5041
2.682
2.82134
2.82399
2.92158
3.11167
3.24279
3.32756
3.59084
4.0621
4.319
4.30307
4.45068
4.40246
4.34338
4.83726
4.88437
4.769
4.91559
5.42946
6.12468
6.31547
5.95779
5.65645
5.84178
5.90058
6.16728
6.5775
6.56125
5.80458
5.1061
6.37505
8.99677
8.20335
6.68112
5.95953
5.55924
6.38217
1.05039
0.195064
0.10682
0.0872696
0.0775565
0.0746482
0.0757449
0.0813731
0.090066
0.10069
0.109238
0.113055
0.118838
0.126038
0.128899
0.131079
0.13221
0.133393
0.135603
0.13888
0.144105
0.150862
0.159353
0.171022
0.184293
0.197067
0.20766
0.215923
0.223012
0.231125
0.238996
0.241238
0.241556
0.241859
0.244228
0.249255
0.253636
0.257337
0.260146
0.261533
0.264668
0.268713
0.27006
0.271761
0.281898
0.289291
0.288477
0.291399
0.309214
0.313854
0.306454
0.315351
0.340294
0.337389
0.340585
0.367202
0.399164
0.488541
0.55268
0.581996
0.578219
0.525676
0.420107
0.362969
0.343403
0.346992
0.387372
0.491102
0.577621
0.626713
0.648071
0.644297
0.595214
0.537488
0.540651
0.666617
0.988541
1.23417
2.06635
2.52682
2.40082
2.04133
1.63256
1.31386
1.0578
0.843729
0.656304
0.491972
0.401917
0.363274
0.345843
0.338936
0.338312
0.333117
0.325181
0.323864
0.329612
0.348682
0.409229
0.447561
0.457949
0.42428
0.44183
0.475924
0.442256
0.426358
0.458907
0.445114
0.398884
0.417263
0.448023
0.451693
0.450893
0.427954
0.43624
0.473278
0.49048
0.507491
0.510981
0.509839
0.524144
0.580675
0.618715
0.62369
0.628581
0.653785
0.67867
0.693254
0.723818
0.803957
0.858873
0.879202
0.897098
0.947992
1.04531
1.1163
1.25571
1.57613
1.82637
1.99956
2.06347
2.06103
2.02275
2.1512
2.48594
2.60212
2.49634
2.47851
2.55203
2.56988
3.05422
3.47625
3.60883
3.56671
3.81272
3.8426
3.5855
3.84192
3.8609
3.68583
3.81313
3.99435
4.61419
5.16587
5.11929
5.55764
5.9229
6.00619
6.26465
6.28264
6.62347
5.89661
4.83863
4.27066
7.44785
8.67915
6.82114
5.65139
5.32116
5.53034
1.83532
0.368327
0.130841
0.099804
0.0813252
0.076768
0.0791269
0.0886933
0.108832
0.127169
0.129453
0.119951
0.119027
0.123128
0.123453
0.122336
0.120664
0.120197
0.123178
0.128779
0.135174
0.141877
0.147194
0.152521
0.163076
0.17362
0.177723
0.179262
0.180566
0.184528
0.190228
0.193964
0.199001
0.205742
0.213655
0.220111
0.225111
0.229644
0.233426
0.234729
0.235134
0.235114
0.234939
0.236077
0.236619
0.235983
0.238246
0.251864
0.264674
0.26452
0.26793
0.277727
0.285163
0.284102
0.28728
0.292439
0.293162
0.306277
0.334651
0.404002
0.459215
0.47323
0.45774
0.410206
0.38447
0.384315
0.412552
0.52734
0.648226
0.698465
0.70111
0.684768
0.606584
0.525918
0.513574
0.559989
0.756423
1.45028
2.35875
2.35157
1.76169
1.22199
0.885041
0.705576
0.571967
0.462438
0.373084
0.306767
0.279046
0.268016
0.264797
0.26806
0.281278
0.292863
0.29958
0.30496
0.312958
0.321267
0.341951
0.399794
0.420946
0.386469
0.417337
0.441938
0.431453
0.397904
0.412592
0.411702
0.376515
0.394135
0.384075
0.389767
0.404579
0.375886
0.384958
0.40762
0.401091
0.420597
0.454224
0.445312
0.424464
0.434117
0.494754
0.511557
0.509576
0.519896
0.549743
0.556641
0.558802
0.599594
0.693184
0.733959
0.744104
0.765856
0.900978
1.08831
1.20839
1.3792
1.46686
1.70676
1.87116
1.79369
1.64191
1.63219
2.2382
2.60232
2.45523
2.27578
2.29266
2.21472
2.6318
3.13104
3.25529
3.2132
3.4438
3.45789
3.18168
3.2266
3.27041
3.1712
3.29924
3.50938
3.88556
4.51497
4.72989
5.89071
6.47728
7.02025
6.83927
6.11645
5.41364
5.73732
4.894
3.9547
3.76881
8.81355
7.14668
5.39006
5.20755
4.73978
2.65413
0.572145
0.145539
0.112776
0.0969444
0.083659
0.0889151
0.115541
0.132575
0.13499
0.128021
0.118281
0.114738
0.113788
0.110768
0.107369
0.106971
0.10691
0.10801
0.111209
0.115279
0.120709
0.125839
0.129991
0.135376
0.142361
0.148085
0.153156
0.158334
0.165517
0.173788
0.182697
0.192787
0.204118
0.215959
0.22654
0.236474
0.244834
0.250143
0.251657
0.251326
0.246533
0.239567
0.234126
0.231218
0.227811
0.22502
0.217857
0.210476
0.208623
0.211425
0.211282
0.219656
0.245361
0.268782
0.27665
0.277376
0.28161
0.286037
0.299111
0.335883
0.364609
0.370641
0.372931
0.37612
0.386637
0.435452
0.593173
0.729566
0.791296
0.799842
0.781452
0.678711
0.561917
0.538401
0.597527
0.960604
1.97636
2.22535
1.70187
1.03339
0.700591
0.510632
0.418912
0.357099
0.307907
0.27084
0.244665
0.234469
0.23164
0.233281
0.242625
0.258428
0.277579
0.294885
0.305763
0.318794
0.325061
0.320104
0.345658
0.34726
0.353027
0.366861
0.368575
0.409277
0.380197
0.396237
0.386094
0.346894
0.39237
0.365714
0.358263
0.380411
0.353708
0.343877
0.363215
0.360294
0.344364
0.34631
0.368144
0.370847
0.370772
0.388799
0.438055
0.432482
0.431882
0.47018
0.491158
0.491158
0.505561
0.578511
0.698117
0.715401
0.729592
0.828833
1.18142
1.3692
1.34623
1.30185
1.47475
1.58181
1.50116
1.39123
1.54626
2.20654
2.77568
2.56425
2.23961
2.19177
2.05462
2.22415
2.57354
2.84266
2.87875
3.04988
3.00769
2.90322
2.89076
2.91197
2.86448
2.99923
3.30327
3.58225
3.9595
4.61484
5.9276
6.52013
7.77988
7.69644
6.14618
3.9353
4.71217
4.53485
3.81068
3.12354
7.32819
6.95039
5.10125
5.0239
4.67394
3.44581
0.771009
0.172316
0.12568
0.106955
0.103606
0.115088
0.137008
0.139097
0.123019
0.116311
0.112271
0.106805
0.10468
0.101918
0.0977418
0.0975661
0.0983486
0.098882
0.1016
0.104867
0.110026
0.115126
0.120275
0.125952
0.132522
0.13974
0.147217
0.155827
0.166223
0.17817
0.194507
0.214927
0.238495
0.258789
0.272576
0.282922
0.290103
0.294688
0.297513
0.298002
0.293763
0.283387
0.267533
0.250457
0.237797
0.226952
0.216177
0.204095
0.198741
0.1967
0.187087
0.182409
0.192015
0.223751
0.24061
0.260402
0.273859
0.27674
0.289698
0.315594
0.316428
0.31369
0.309538
0.310967
0.33634
0.448475
0.649755
0.774968
0.863177
0.890405
0.876117
0.798539
0.697245
0.681767
0.907411
1.58638
1.91713
1.63724
0.963936
0.61356
0.425311
0.333739
0.290629
0.26474
0.244455
0.227209
0.216779
0.21376
0.213836
0.219435
0.232654
0.248661
0.267641
0.292524
0.312361
0.323543
0.333079
0.321553
0.337868
0.328084
0.371827
0.356562
0.3356
0.395416
0.353757
0.384865
0.378746
0.322009
0.356889
0.354666
0.32338
0.334161
0.341109
0.315102
0.299689
0.330559
0.327658
0.308265
0.331865
0.355875
0.348316
0.357054
0.410946
0.403801
0.403166
0.448569
0.470456
0.466284
0.473485
0.520583
0.714315
0.740542
0.734412
0.834498
1.15275
1.51077
1.43798
1.23518
1.24708
1.28518
1.31158
1.30274
1.60974
2.44506
3.13701
2.88674
2.25833
2.06699
1.96909
2.17096
2.26527
2.30181
2.41174
2.46053
2.49451
2.61549
2.61648
2.56521
2.64622
2.7617
3.15533
3.41484
3.68009
4.63795
5.01772
4.96888
6.00586
7.71716
5.97056
3.62558
3.35937
3.60301
3.48443
3.0012
4.15717
6.47923
5.10499
4.97332
4.77015
4.28046
1.15836
0.22963
0.13779
0.11746
0.116793
0.133212
0.136778
0.132571
0.11487
0.111144
0.110212
0.105276
0.102041
0.0986728
0.0947689
0.0941109
0.0940159
0.0941847
0.096231
0.0998717
0.104864
0.110336
0.115334
0.12174
0.12933
0.138313
0.147577
0.159841
0.177608
0.201931
0.231919
0.258016
0.27055
0.277274
0.283381
0.289258
0.29313
0.294588
0.296535
0.299238
0.299732
0.294937
0.279575
0.255456
0.237515
0.225848
0.219738
0.212399
0.205874
0.200238
0.188208
0.17528
0.17092
0.175886
0.194368
0.217336
0.22868
0.239844
0.266384
0.293317
0.307694
0.308023
0.293426
0.283583
0.302633
0.438865
0.650803
0.781921
0.89654
0.96417
0.972414
0.950655
0.938404
1.02804
1.31691
1.54439
1.43403
0.912639
0.578153
0.39475
0.298418
0.254583
0.233578
0.221162
0.211223
0.20533
0.202155
0.200279
0.20199
0.211531
0.228142
0.244013
0.258174
0.284479
0.311143
0.319179
0.321897
0.325262
0.338295
0.324279
0.40608
0.380408
0.329647
0.386489
0.351712
0.321204
0.35991
0.330628
0.30149
0.314529
0.314323
0.287063
0.310776
0.308209
0.277392
0.319255
0.321842
0.296314
0.319796
0.3506
0.338164
0.34123
0.385439
0.384137
0.387813
0.433853
0.457959
0.455468
0.462532
0.501782
0.728003
0.765144
0.742885
0.808009
0.902642
1.24894
1.41293
1.20044
1.22243
1.22925
1.22075
1.28593
1.88568
2.47888
3.0572
2.90751
2.25006
1.94891
1.9131
2.19954
2.15173
2.08165
2.07468
1.90368
1.95969
2.39413
2.43894
2.35204
2.56257
2.71388
3.01311
3.22029
3.46495
4.54828
4.50964
4.43681
4.39642
5.51955
5.17913
3.319
2.87165
3.17909
3.11234
2.99059
3.44603
6.53342
5.14594
4.83789
5.13895
4.89392
1.42408
0.274208
0.14415
0.129769
0.130664
0.145735
0.141141
0.128763
0.116081
0.111622
0.109916
0.104544
0.100882
0.0970516
0.0942135
0.0936928
0.0935415
0.093529
0.093781
0.0954145
0.0987084
0.104851
0.112184
0.12013
0.129174
0.13909
0.152884
0.175135
0.2061
0.240709
0.26287
0.271623
0.275083
0.275811
0.273965
0.264773
0.255119
0.249218
0.243667
0.241583
0.249251
0.262321
0.267444
0.250425
0.22179
0.202132
0.196987
0.202348
0.205248
0.20236
0.196523
0.181114
0.166793
0.162251
0.162985
0.168027
0.178789
0.194798
0.227727
0.271357
0.302736
0.306724
0.293761
0.276551
0.279983
0.34496
0.569278
0.775188
0.911741
0.993632
1.02119
1.01532
1.03389
1.14478
1.24021
1.17802
0.829367
0.557423
0.393874
0.288474
0.234957
0.210897
0.200272
0.19553
0.192861
0.188468
0.186522
0.187225
0.193768
0.205396
0.223066
0.239921
0.253625
0.273629
0.292323
0.296903
0.29489
0.321256
0.330784
0.332321
0.388311
0.383378
0.341588
0.331179
0.356078
0.301881
0.298891
0.349564
0.304935
0.282236
0.307126
0.276434
0.281523
0.287525
0.263235
0.306915
0.312792
0.285725
0.300068
0.336633
0.327331
0.321387
0.329094
0.359237
0.370425
0.385405
0.413569
0.442692
0.453403
0.486267
0.6167
0.698317
0.710051
0.778526
0.845337
0.854122
1.01098
1.06482
1.27253
1.24708
1.19164
1.32928
2.13703
2.42715
2.21174
2.45702
2.1423
1.8329
1.87198
2.23538
2.07984
2.02607
1.95947
1.73292
1.76157
2.28555
2.33475
2.26945
2.62159
2.79585
2.8179
2.87447
3.32198
4.33922
4.4749
4.71728
4.42182
3.88565
4.095
3.09914
2.53445
2.88852
2.83397
2.96094
3.31657
6.46251
5.13627
4.75011
5.66572
5.37329
1.54177
0.277606
0.137862
0.134518
0.146655
0.150015
0.13853
0.120979
0.114952
0.111353
0.108353
0.104812
0.101365
0.0983651
0.096453
0.0959083
0.095111
0.0945451
0.0942935
0.0949962
0.0970337
0.101676
0.108289
0.116755
0.128182
0.142417
0.164486
0.198895
0.240125
0.268903
0.278106
0.279663
0.275296
0.265734
0.252072
0.240579
0.237024
0.232171
0.223621
0.20891
0.199811
0.198979
0.213402
0.220291
0.207696
0.1837
0.169016
0.165715
0.171465
0.180362
0.184524
0.182645
0.166459
0.157553
0.15576
0.156227
0.160595
0.172922
0.197994
0.236649
0.278247
0.307491
0.313514
0.284824
0.280669
0.322427
0.488302
0.716959
0.882787
0.985909
1.02535
1.02635
1.03111
1.03798
0.944539
0.736892
0.527325
0.395191
0.301595
0.233338
0.19955
0.184584
0.179245
0.177407
0.174612
0.171297
0.171161
0.177316
0.188992
0.203078
0.221787
0.240215
0.254373
0.269767
0.275464
0.269764
0.2693
0.29702
0.291507
0.336155
0.31871
0.316296
0.352681
0.29516
0.325291
0.302949
0.283001
0.342139
0.310531
0.263868
0.285965
0.257668
0.245044
0.252254
0.23963
0.246235
0.261429
0.252829
0.24581
0.277567
0.297385
0.289543
0.276025
0.317656
0.339782
0.342028
0.365909
0.428617
0.429624
0.473527
0.477994
0.508903
0.609626
0.805632
0.854332
0.830458
0.891317
0.953832
1.3075
1.27615
1.16754
1.36273
2.09686
2.12166
1.83307
2.18359
2.03223
1.7587
1.90204
2.24788
2.00606
1.99468
1.88876
1.69284
1.67787
2.17459
2.16309
2.19695
2.85782
2.89849
2.68425
2.7163
3.34928
3.96765
4.65171
5.52882
4.70759
3.35478
3.34571
2.76826
2.44408
2.62835
2.6569
2.96939
3.29814
6.29139
5.12699
4.76045
6.05919
5.92179
1.61757
0.260937
0.128063
0.127401
0.14243
0.142384
0.128882
0.118968
0.116077
0.114195
0.111068
0.108661
0.106851
0.106915
0.10771
0.107063
0.103816
0.100144
0.0979591
0.0974254
0.0978187
0.101036
0.106685
0.115909
0.130306
0.151366
0.183335
0.228817
0.27425
0.289127
0.291426
0.281982
0.267366
0.245411
0.234974
0.237063
0.237515
0.236208
0.230884
0.215319
0.194598
0.187383
0.190028
0.197823
0.193559
0.179335
0.160922
0.153624
0.152451
0.155086
0.156648
0.158036
0.156727
0.151232
0.149636
0.149902
0.150104
0.155206
0.165319
0.191326
0.241738
0.301182
0.3452
0.339591
0.300132
0.309901
0.404233
0.63281
0.811614
0.929139
0.976537
0.972469
0.902704
0.797872
0.64772
0.500891
0.392925
0.313704
0.253103
0.204246
0.181918
0.173872
0.170592
0.165853
0.160918
0.159152
0.161508
0.172391
0.187358
0.204619
0.230801
0.245356
0.253974
0.257792
0.248632
0.235155
0.23048
0.241362
0.244864
0.32049
0.29141
0.279135
0.317132
0.284407
0.293621
0.293802
0.283329
0.301126
0.286962
0.251019
0.244023
0.238141
0.228839
0.231415
0.232804
0.229154
0.236007
0.242349
0.235811
0.235843
0.263083
0.265799
0.261613
0.295198
0.316245
0.332864
0.352122
0.404856
0.405598
0.474498
0.448285
0.467769
0.58015
0.851226
0.844647
0.828234
0.879935
0.941878
1.25713
1.21091
1.14296
1.3129
1.87229
1.90225
1.8284
2.18159
1.9587
1.71708
1.95699
2.19715
1.97295
1.94812
1.8036
1.69293
1.66775
2.06265
2.02556
2.15159
2.9135
2.82651
2.67353
2.74289
3.64753
3.65078
5.23206
5.99831
4.82285
3.00094
2.8476
2.63244
2.43532
2.47901
2.57898
3.03133
3.32041
6.05397
5.16602
4.80392
6.03401
6.39932
2.01417
0.296763
0.131122
0.125715
0.138906
0.135171
0.12477
0.121187
0.123124
0.127952
0.127243
0.125056
0.119431
0.119027
0.119932
0.119852
0.115845
0.108205
0.101662
0.100167
0.10032
0.102629
0.108546
0.12004
0.141809
0.179455
0.234444
0.291377
0.311347
0.314715
0.300946
0.273848
0.235945
0.219422
0.226995
0.247333
0.254439
0.253655
0.25259
0.250235
0.222438
0.193971
0.186845
0.191441
0.192585
0.178337
0.156595
0.148525
0.147071
0.148373
0.148758
0.144924
0.142039
0.137885
0.133374
0.131336
0.130494
0.129604
0.132992
0.148639
0.180974
0.246565
0.342438
0.399762
0.365695
0.333245
0.369168
0.53274
0.715718
0.832854
0.876881
0.860421
0.746931
0.618408
0.479551
0.377616
0.31486
0.259046
0.220771
0.187764
0.170813
0.165167
0.164447
0.162372
0.157823
0.155827
0.157634
0.167864
0.187547
0.218309
0.240221
0.244444
0.240739
0.230407
0.21204
0.202365
0.196566
0.202223
0.224373
0.256027
0.257373
0.267577
0.270293
0.272507
0.289414
0.283207
0.283407
0.271915
0.250074
0.247807
0.234069
0.23506
0.229197
0.229027
0.241359
0.232318
0.234255
0.243213
0.236083
0.232514
0.249308
0.254164
0.255006
0.284897
0.308731
0.325379
0.334895
0.350005
0.387357
0.480549
0.436022
0.473957
0.651884
0.806575
0.79402
0.783307
0.870046
0.938471
1.14388
1.05356
1.09184
1.23566
1.50683
1.87256
1.80287
2.16553
1.90219
1.67745
1.93746
2.05003
1.96017
1.87874
1.77661
1.71533
1.65777
1.93451
1.97224
2.14993
2.86438
2.59608
2.65122
2.96041
4.2486
3.77937
6.29208
6.1208
4.4676
2.91339
2.78261
2.65201
2.47076
2.44152
2.5525
3.12214
3.37161
5.82891
5.25681
4.7771
5.64857
6.58051
2.69071
0.497038
0.151723
0.129358
0.1419
0.137561
0.127986
0.126933
0.133272
0.137489
0.140565
0.146945
0.147321
0.143214
0.138221
0.136521
0.131153
0.122001
0.113112
0.110806
0.111646
0.116825
0.130547
0.160176
0.212092
0.278068
0.318492
0.331808
0.333803
0.321859
0.291942
0.24161
0.209136
0.210519
0.23326
0.258328
0.260494
0.255895
0.256353
0.263891
0.264487
0.241897
0.204083
0.188533
0.183645
0.179415
0.153116
0.142252
0.141364
0.145101
0.147011
0.143699
0.140158
0.13609
0.130312
0.125175
0.122587
0.121491
0.121939
0.129828
0.146929
0.176856
0.264735
0.400693
0.45061
0.397656
0.380898
0.456848
0.634308
0.752229
0.794503
0.784419
0.680011
0.540187
0.407712
0.324077
0.270592
0.23172
0.205944
0.178386
0.163486
0.159728
0.160553
0.160149
0.157293
0.154109
0.154908
0.163347
0.195255
0.234733
0.242406
0.239063
0.223245
0.203946
0.195995
0.192779
0.187013
0.188738
0.211857
0.214677
0.225257
0.23793
0.256327
0.268958
0.2845
0.279328
0.275058
0.256739
0.240165
0.246721
0.23553
0.243868
0.241914
0.238239
0.248849
0.238608
0.235928
0.239375
0.233874
0.230616
0.244852
0.247997
0.253849
0.276091
0.298906
0.313389
0.298814
0.314103
0.376172
0.45073
0.419122
0.449919
0.674651
0.627496
0.676454
0.698225
0.796394
0.909551
1.04337
0.91964
1.04052
1.15383
1.3561
1.73269
1.63709
2.02728
1.84994
1.62375
1.80137
2.01022
1.95804
1.85877
1.80368
1.76396
1.67185
1.81983
1.9552
2.21655
2.77752
2.52734
2.63045
3.27215
4.93586
4.42672
6.33965
5.74556
3.65547
2.81242
2.82911
2.83385
2.63809
2.44104
2.56161
3.18667
3.41117
5.43285
5.23883
4.65898
5.16084
6.60481
2.94769
0.757538
0.229681
0.143803
0.149542
0.147773
0.142091
0.143936
0.144813
0.142105
0.142807
0.152376
0.166278
0.177461
0.17789
0.172454
0.165978
0.161806
0.160058
0.165407
0.179992
0.204327
0.240401
0.28528
0.321389
0.337662
0.341425
0.328735
0.294849
0.247979
0.20656
0.191661
0.196762
0.219202
0.247076
0.254843
0.249332
0.240921
0.240474
0.258123
0.271424
0.269822
0.246381
0.199297
0.17214
0.156097
0.142479
0.128403
0.125649
0.132025
0.142785
0.14492
0.141263
0.136214
0.131488
0.12607
0.122372
0.122647
0.122417
0.12276
0.133539
0.150138
0.182568
0.292203
0.454372
0.488563
0.445311
0.442415
0.541923
0.69075
0.744682
0.741353
0.651229
0.518883
0.393409
0.311419
0.254155
0.222935
0.204007
0.176037
0.158216
0.150898
0.150995
0.152349
0.150343
0.147608
0.14832
0.158672
0.203695
0.238801
0.242054
0.235309
0.212522
0.19643
0.190716
0.188773
0.18308
0.18279
0.190862
0.197656
0.215856
0.221327
0.244859
0.268437
0.260845
0.263064
0.254832
0.236869
0.235522
0.244825
0.240945
0.252992
0.250817
0.24578
0.249608
0.241361
0.238426
0.237512
0.233169
0.232289
0.244479
0.246903
0.252077
0.2656
0.277376
0.290479
0.279613
0.289986
0.36663
0.375793
0.376486
0.414535
0.585819
0.498945
0.570942
0.593864
0.677216
0.812278
0.938342
0.823866
1.01574
1.07467
1.22937
1.53159
1.43958
1.76141
1.78231
1.55754
1.60008
1.96451
1.93702
1.9117
1.87631
1.78263
1.70346
1.77801
1.96695
2.23619
2.6725
2.36594
2.61914
3.33685
4.75025
5.36245
6.23189
4.80943
3.39629
2.72503
2.9736
3.07652
2.79544
2.4272
2.60585
3.21647
3.40188
4.97573
5.12597
4.47456
4.85607
6.64679
3.02372
0.854344
0.278238
0.154299
0.150155
0.149763
0.148436
0.150522
0.150497
0.143902
0.142735
0.150325
0.165444
0.19247
0.219728
0.225732
0.22087
0.210588
0.208334
0.218077
0.240037
0.266153
0.294603
0.318563
0.327232
0.325725
0.304982
0.267929
0.219625
0.18409
0.163673
0.160374
0.183981
0.245053
0.273455
0.255469
0.231847
0.228171
0.234047
0.244531
0.252979
0.260382
0.25583
0.21797
0.175151
0.142237
0.116691
0.100061
0.0949864
0.0971248
0.113774
0.129494
0.134189
0.131802
0.128779
0.128339
0.124527
0.120195
0.12276
0.126498
0.126104
0.137604
0.15481
0.188373
0.309044
0.490582
0.530303
0.509364
0.513014
0.610789
0.707338
0.721098
0.666836
0.528391
0.400966
0.310596
0.253308
0.224265
0.205201
0.175128
0.152991
0.143263
0.141127
0.141419
0.140624
0.139067
0.140524
0.154319
0.204386
0.23695
0.238584
0.23142
0.211178
0.195516
0.189205
0.186626
0.180958
0.180066
0.182791
0.187054
0.200487
0.214724
0.240498
0.255379
0.248911
0.237965
0.232467
0.231372
0.233355
0.245046
0.243734
0.252735
0.249343
0.245027
0.248004
0.24454
0.244386
0.241693
0.239741
0.240727
0.249071
0.251114
0.252302
0.257658
0.260542
0.273284
0.272212
0.27775
0.32825
0.319974
0.329505
0.396206
0.400695
0.407591
0.540904
0.523598
0.533817
0.626338
0.903972
0.799763
0.906292
0.96507
1.1673
1.48177
1.38265
1.55004
1.68457
1.47997
1.55752
1.9348
1.98465
2.01746
1.8954
1.74785
1.72471
1.78372
2.01366
2.22958
2.56661
2.19513
2.62267
3.12476
2.89124
5.75786
6.30716
4.28353
3.23209
2.65655
3.08183
3.05811
2.76996
2.36045
2.76785
3.18962
3.33656
4.5467
4.8357
4.26878
4.76916
6.76327
3.19033
0.958047
0.302968
0.161734
0.151417
0.149027
0.148002
0.149299
0.149759
0.14342
0.135631
0.135733
0.14588
0.175071
0.22098
0.247944
0.250822
0.236629
0.228708
0.229586
0.242861
0.261597
0.26882
0.261202
0.237358
0.209823
0.196962
0.194463
0.201073
0.186512
0.163989
0.153525
0.162792
0.223664
0.287471
0.277813
0.232121
0.228188
0.239249
0.245931
0.246003
0.239781
0.233674
0.215518
0.179339
0.14204
0.111061
0.0881826
0.0781327
0.0769522
0.0770415
0.0849372
0.0978067
0.106408
0.109232
0.112555
0.119718
0.121018
0.115868
0.118115
0.126342
0.129838
0.14146
0.15639
0.180542
0.29528
0.509401
0.582054
0.583743
0.589049
0.659014
0.69226
0.675833
0.568805
0.427975
0.323607
0.26026
0.230985
0.208257
0.176963
0.151914
0.141216
0.137318
0.136537
0.136342
0.135986
0.138133
0.153022
0.204866
0.231353
0.233108
0.228938
0.214247
0.19658
0.188466
0.184199
0.178589
0.177756
0.179156
0.183122
0.193638
0.212191
0.234521
0.230922
0.23008
0.226686
0.227761
0.229217
0.232138
0.244797
0.242731
0.247443
0.24683
0.244735
0.248136
0.248632
0.252987
0.255105