/*--------------------------------*- C++ -*----------------------------------*\
| =========                 |                                                 |
| \\      /  F ield         | OpenFOAM: The Open Source CFD Toolbox           |
|  \\    /   O peration     | Version:  dev                                   |
|   \\  /    A nd           | Web:      http://www.openfoam.org               |
|    \\/     M anipulation  |                                                 |
\*---------------------------------------------------------------------------*/
FoamFile
{
    version     2.0;
    format      ascii;
    class       volScalarField;
    object      muSgs;
    location    "9.151";
}
// * * * * * * * * * * * * * * * * * * * * * * * * * * * * * * * * * * * * * //

dimensions      [1 -1 -1 0 0 0 0];

internalField   nonuniform List<scalar> 
12225
(
0.000223303
0.000228613
0.000176384
0.000169715
0.000135615
0.000152647
0.000131128
0.000150461
0.000135384
0.000155003
0.000142375
0.000166462
0.000153057
0.000190108
0.000173368
0.000222317
0.000239503
0.000321881
0.000101301
0.00018638
0.000171993
0.000184194
0.000156392
0.000168124
0.000142564
0.000154577
0.000135627
0.000143592
0.000131998
0.000134971
0.000129964
0.000126463
0.000126105
0.00011769
0.00011865
0.000156583
2.87894e-05
0.000105761
0.000113465
0.000137577
0.000131218
0.000138217
0.000129981
0.000130139
0.000125468
0.000118405
0.00011764
0.00010882
0.000111298
9.90336e-05
0.00010415
9.05037e-05
9.08074e-05
9.73954e-05
8.43698e-06
4.22068e-05
6.13512e-05
6.95252e-05
8.43935e-05
8.49587e-05
9.23957e-05
8.78456e-05
9.4356e-05
8.57532e-05
8.94559e-05
7.9846e-05
8.15295e-05
7.21638e-05
7.40581e-05
6.5776e-05
6.80351e-05
6.11883e-05
3.4255e-06
1.81947e-05
3.30769e-05
3.89383e-05
4.98549e-05
5.19715e-05
5.97976e-05
5.83576e-05
6.28614e-05
5.86346e-05
6.0686e-05
5.52078e-05
5.68008e-05
5.09642e-05
5.27806e-05
4.77821e-05
5.08491e-05
5.14064e-05
4.21623e-06
1.23538e-05
2.049e-05
2.26789e-05
2.87149e-05
3.0617e-05
3.76175e-05
3.65797e-05
4.07724e-05
3.83897e-05
4.04325e-05
3.72965e-05
3.93046e-05
3.58046e-05
3.74607e-05
3.45933e-05
3.75054e-05
3.62189e-05
6.33136e-06
9.02165e-06
1.34203e-05
1.44802e-05
1.79844e-05
1.87853e-05
2.35149e-05
2.25653e-05
2.6113e-05
2.47754e-05
2.64779e-05
2.4751e-05
2.66401e-05
2.47764e-05
2.56677e-05
2.43777e-05
2.5824e-05
2.55864e-05
5.98976e-06
8.02696e-06
1.03984e-05
1.1273e-05
1.2761e-05
1.31578e-05
1.49148e-05
1.46454e-05
1.59609e-05
1.55548e-05
1.62095e-05
1.56398e-05
1.64878e-05
1.61168e-05
1.65315e-05
1.63967e-05
1.68354e-05
1.71497e-05
7.07103e-06
1.13835e-05
1.19653e-05
1.29605e-05
1.36748e-05
1.39419e-05
1.48994e-05
1.48362e-05
1.53789e-05
1.51305e-05
1.53336e-05
1.50698e-05
1.53566e-05
1.54367e-05
1.60717e-05
1.61717e-05
1.645e-05
1.68518e-05
9.51497e-06
1.69354e-05
1.66229e-05
1.73024e-05
1.68607e-05
1.68072e-05
1.68015e-05
1.65591e-05
1.66008e-05
1.62663e-05
1.62956e-05
1.60555e-05
1.61693e-05
1.62755e-05
1.6968e-05
1.71441e-05
1.73575e-05
1.79597e-05
1.64899e-05
2.39936e-05
2.40733e-05
2.46974e-05
2.37407e-05
2.31526e-05
2.21428e-05
2.10979e-05
2.02056e-05
1.94842e-05
1.913e-05
1.87514e-05
1.85694e-05
1.86215e-05
1.90177e-05
1.94908e-05
1.9656e-05
2.03342e-05
2.6282e-05
3.31766e-05
3.36384e-05
3.42192e-05
3.34759e-05
3.26002e-05
3.1147e-05
2.94305e-05
2.73193e-05
2.61956e-05
2.5213e-05
2.46326e-05
2.4226e-05
2.39218e-05
2.39953e-05
2.47254e-05
2.51607e-05
2.59241e-05
4.11163e-05
4.69882e-05
4.74471e-05
4.74985e-05
4.64989e-05
4.50568e-05
4.26448e-05
3.98835e-05
3.76342e-05
3.6291e-05
3.52303e-05
3.43834e-05
3.37244e-05
3.32145e-05
3.30853e-05
3.40355e-05
3.50394e-05
3.60379e-05
5.91341e-05
6.38288e-05
6.41792e-05
6.35188e-05
6.21686e-05
6.0169e-05
5.66916e-05
5.3228e-05
5.04203e-05
4.84813e-05
4.70807e-05
4.59683e-05
4.50598e-05
4.43866e-05
4.42523e-05
4.57072e-05
4.69819e-05
4.80466e-05
8.13062e-05
8.81092e-05
8.92723e-05
8.83628e-05
8.6508e-05
8.37437e-05
7.94943e-05
7.45448e-05
7.01534e-05
6.66014e-05
6.39381e-05
6.19766e-05
6.04475e-05
5.92119e-05
5.82931e-05
5.85154e-05
5.88392e-05
5.93483e-05
0.000106628
0.000114168
0.000114248
0.000111823
0.000107818
0.000101162
9.41066e-05
8.74314e-05
8.1696e-05
7.71206e-05
7.36968e-05
7.12449e-05
6.9356e-05
6.78411e-05
6.65737e-05
6.62491e-05
6.62705e-05
6.65687e-05
0.000126254
0.000129675
0.00012826
0.000125159
0.000119744
0.000111601
0.000103559
9.59722e-05
8.94781e-05
8.435e-05
8.051e-05
7.77663e-05
7.56814e-05
7.3992e-05
7.25772e-05
7.20799e-05
7.20135e-05
7.22147e-05
0.000126284
0.000129418
0.00012787
0.00012468
0.000119043
0.000110952
0.000102988
9.55023e-05
8.90851e-05
8.40153e-05
8.01741e-05
7.74199e-05
7.53211e-05
7.36365e-05
7.22397e-05
7.17448e-05
7.17027e-05
7.18707e-05
0.000103674
0.000111294
0.000111891
0.000109577
0.000105738
9.93061e-05
9.24408e-05
8.60254e-05
8.05293e-05
7.61607e-05
7.2786e-05
7.03262e-05
6.84135e-05
6.68675e-05
6.56056e-05
6.51696e-05
6.51874e-05
6.53989e-05
7.59738e-05
8.30817e-05
8.55312e-05
8.48558e-05
8.31014e-05
8.03755e-05
7.56173e-05
7.11852e-05
6.74112e-05
6.42612e-05
6.1674e-05
5.96514e-05
5.80154e-05
5.66708e-05
5.56068e-05
5.52676e-05
5.5469e-05
5.59723e-05
5.58117e-05
6.10118e-05
6.26913e-05
6.17491e-05
6.0102e-05
5.73572e-05
5.43309e-05
5.14924e-05
4.88606e-05
4.66204e-05
4.45894e-05
4.27739e-05
4.1386e-05
4.02962e-05
3.94867e-05
3.91799e-05
3.98274e-05
4.10077e-05
3.72341e-05
4.26816e-05
4.48427e-05
4.44586e-05
4.34304e-05
4.1871e-05
4.03204e-05
3.86467e-05
3.68471e-05
3.48497e-05
3.32663e-05
3.22125e-05
3.14626e-05
3.08818e-05
3.04908e-05
3.05878e-05
3.10349e-05
3.17424e-05
2.42799e-05
2.88124e-05
3.09059e-05
3.05978e-05
2.97928e-05
2.88754e-05
2.84007e-05
2.81658e-05
2.80827e-05
2.8297e-05
2.82339e-05
2.80974e-05
2.77523e-05
2.75036e-05
2.73203e-05
2.76547e-05
2.80243e-05
2.85945e-05
1.54357e-05
1.8703e-05
1.94247e-05
2.03801e-05
2.20199e-05
2.35183e-05
2.40891e-05
2.47931e-05
2.5442e-05
2.649e-05
2.69735e-05
2.74387e-05
2.73751e-05
2.74447e-05
2.73213e-05
2.76394e-05
2.78101e-05
2.81731e-05
8.42277e-06
1.06335e-05
1.36239e-05
1.67255e-05
2.05332e-05
2.36945e-05
2.54342e-05
2.73195e-05
2.91993e-05
3.14417e-05
3.2786e-05
3.38477e-05
3.39953e-05
3.41033e-05
3.3833e-05
3.37483e-05
3.34517e-05
3.33636e-05
3.74994e-06
8.79159e-06
1.50052e-05
2.33321e-05
3.17761e-05
3.72034e-05
3.98149e-05
4.23784e-05
4.48812e-05
4.75285e-05
4.9185e-05
4.99959e-05
4.98295e-05
4.92942e-05
4.84746e-05
4.76983e-05
4.6848e-05
4.62534e-05
5.96553e-06
2.08432e-05
3.66995e-05
5.27506e-05
6.43542e-05
7.06398e-05
7.29359e-05
7.46399e-05
7.58092e-05
7.68095e-05
7.69365e-05
7.61435e-05
7.46159e-05
7.28641e-05
7.11077e-05
6.93764e-05
6.78433e-05
6.6519e-05
2.23978e-05
6.29842e-05
9.44635e-05
0.000111535
0.000122938
0.000125912
0.000124651
0.000122575
0.00011984
0.000116688
0.000113192
0.000109414
0.000105524
0.00010161
9.83236e-05
9.50452e-05
9.19871e-05
8.91824e-05
8.57956e-05
0.000163703
0.000186225
0.000186975
0.000179157
0.000169837
0.000161604
0.000153986
0.000147062
0.000140349
0.000133794
0.000127365
0.000121331
0.000115592
0.000110315
0.000105061
0.000100119
9.48434e-05
0.000219735
0.000252283
0.000228889
0.000194314
0.000169777
0.000154715
0.000146058
0.000139839
0.000135192
0.000130847
0.000126925
0.000123101
0.000119399
0.000115717
0.000112187
0.00010868
0.000105019
9.94834e-05
2.48004e-05
3.01741e-05
3.06653e-05
3.08244e-05
3.13083e-05
3.23235e-05
3.38089e-05
3.52735e-05
3.65106e-05
3.7751e-05
3.89846e-05
4.0452e-05
4.21675e-05
4.41177e-05
4.60828e-05
4.79791e-05
4.99576e-05
5.20604e-05
5.43272e-05
5.67429e-05
5.92025e-05
6.15907e-05
6.3852e-05
6.61715e-05
6.86133e-05
7.11559e-05
7.37259e-05
7.62568e-05
7.87487e-05
8.13491e-05
8.40631e-05
8.67322e-05
8.93576e-05
9.19263e-05
9.43252e-05
9.71268e-05
0.000100116
0.000102706
0.000105911
0.00010943
0.000112716
0.000117121
0.000121537
0.000126619
0.000133275
0.000137409
0.000138281
0.000138949
0.000140134
0.00014214
0.000144913
0.000146163
0.00014681
0.000146681
0.000146756
0.000149038
0.000153287
0.000158061
0.00016252
0.000165696
0.000167588
0.000168361
0.00016763
0.000166016
0.000165576
0.000166324
0.000170025
0.000177169
0.000187417
0.000206055
0.000223755
0.000245284
0.000288413
0.000308372
0.000303508
0.00028113
0.000247249
0.000227339
0.000221958
0.000226561
0.000234139
0.000237237
0.000239785
0.000240499
0.000239806
0.000242365
0.000250709
0.000262216
0.000273508
0.000282186
0.000287927
0.000291513
0.000293957
0.000295102
0.000293288
0.000286602
0.000275779
0.00026414
0.000255179
0.000248592
0.000242377
0.00023379
0.000219154
0.000215463
0.000209972
0.00020171
0.000199792
0.00019699
0.000196264
0.000198461
0.000200737
0.00020471
0.000210589
0.000220099
0.000233589
0.000245998
0.000253631
0.000262352
0.000280124
0.000300168
0.000309943
0.000314022
0.000317809
0.000328591
0.000339458
0.000348311
0.000353642
0.000360047
0.000364841
0.000370776
0.000376926
0.000386326
0.000398806
0.000414712
0.00043244
0.000448621
0.000468135
0.00048556
0.000503122
0.000523111
0.000540724
0.000561625
0.000583058
0.000606442
0.000632819
0.000662527
0.000685663
0.000695809
0.000699956
0.000693646
0.000697911
0.000702853
0.000705208
0.000714723
0.000747276
0.00077262
0.000788454
0.000827843
0.000883812
0.000947409
0.000973461
0.000953436
0.000864335
0.000794069
0.00069683
0.000632591
0.000610699
0.000618872
0.000594043
0.000555158
0.000560563
0.000577578
0.000609111
0.000657258
0.00073459
0.000765317
0.000764194
0.000803646
0.000867216
0.00100574
3.77367e-05
3.05957e-05
2.84664e-05
2.70433e-05
2.66772e-05
2.68603e-05
2.74507e-05
2.79748e-05
2.82989e-05
2.88324e-05
2.9492e-05
3.03289e-05
3.13932e-05
3.26233e-05
3.37578e-05
3.47522e-05
3.58277e-05
3.69928e-05
3.82746e-05
3.95643e-05
4.06715e-05
4.15276e-05
4.22526e-05
4.32027e-05
4.42919e-05
4.54485e-05
4.65119e-05
4.75554e-05
4.86256e-05
4.99068e-05
5.12735e-05
5.25283e-05
5.35354e-05
5.4401e-05
5.50599e-05
5.6238e-05
5.70871e-05
5.75712e-05
5.85965e-05
5.97295e-05
6.04825e-05
6.25552e-05
6.44739e-05
6.76598e-05
7.3347e-05
7.89963e-05
8.83346e-05
9.35625e-05
9.47318e-05
9.4991e-05
9.78326e-05
0.000100851
9.99611e-05
9.54317e-05
9.36702e-05
9.39383e-05
9.41722e-05
9.48977e-05
9.66849e-05
9.93119e-05
0.000100465
9.83154e-05
8.89137e-05
7.85188e-05
7.46492e-05
7.52432e-05
8.1301e-05
8.88948e-05
9.46742e-05
9.78357e-05
9.81119e-05
9.92761e-05
0.000103181
0.000122565
0.000179075
0.000206999
0.000205344
0.000191092
0.000159575
0.000151105
0.000154263
0.000163738
0.000199949
0.000223915
0.000232556
0.000234307
0.000229972
0.000220806
0.000207143
0.000191549
0.000179023
0.000170666
0.000163834
0.000155595
0.000145886
0.000135662
0.000128667
0.000126052
0.000125476
0.000124925
0.000122787
0.000120126
0.000118363
0.000121824
0.000120007
0.000118797
0.000122751
0.000121545
0.000122966
0.000128725
0.0001302
0.000130358
0.000131946
0.000134416
0.000140516
0.000149115
0.000152578
0.000152405
0.00015658
0.000171066
0.000186961
0.000191739
0.000192385
0.000195445
0.000202969
0.000211711
0.000221202
0.000233265
0.00024404
0.000251808
0.000256735
0.000261592
0.000270134
0.000281025
0.000287086
0.000291637
0.000300764
0.000314614
0.000320519
0.000326513
0.000338509
0.000347403
0.00035726
0.000374425
0.000390887
0.000411016
0.000434743
0.000450525
0.000458673
0.000467126
0.000471341
0.000497119
0.000520736
0.000515034
0.000532018
0.00055462
0.000573925
0.000593772
0.000610485
0.000640099
0.000691337
0.000731274
0.000718549
0.000692204
0.000651404
0.000644
0.00062933
0.000622631
0.000625598
0.000658134
0.000650804
0.00062038
0.000633265
0.000703682
0.000770278
0.000773647
0.000717342
0.000691735
0.000694901
0.000782414
5.64514e-05
3.196e-05
2.6574e-05
2.45208e-05
2.36549e-05
2.36052e-05
2.39215e-05
2.44784e-05
2.51121e-05
2.59828e-05
2.69462e-05
2.7878e-05
2.91681e-05
3.05451e-05
3.16064e-05
3.23348e-05
3.28622e-05
3.34435e-05
3.40213e-05
3.45882e-05
3.51445e-05
3.57481e-05
3.66601e-05
3.7872e-05
3.9239e-05
4.06355e-05
4.2033e-05
4.33798e-05
4.4693e-05
4.60941e-05
4.75022e-05
4.87885e-05
4.9731e-05
5.03766e-05
5.07304e-05
5.12429e-05
5.16285e-05
5.18657e-05
5.23223e-05
5.25664e-05
5.28385e-05
5.34075e-05
5.37636e-05
5.43895e-05
5.53816e-05
5.65045e-05
5.87708e-05
6.13822e-05
6.35749e-05
6.42445e-05
6.5499e-05
6.93439e-05
7.2008e-05
7.28455e-05
7.87165e-05
8.37317e-05
8.44402e-05
8.51716e-05
8.57991e-05
8.23613e-05
7.63575e-05
7.01169e-05
6.42548e-05
6.17527e-05
6.15362e-05
6.31031e-05
6.92858e-05
7.80325e-05
8.45351e-05
8.76856e-05
8.87437e-05
9.01149e-05
8.83745e-05
8.74311e-05
9.67665e-05
0.000124016
0.000150783
0.000150656
0.000152135
0.000162653
0.000182069
0.000193957
0.000195857
0.00018892
0.000176162
0.000162794
0.000147953
0.000130768
0.000114239
0.000103813
9.8308e-05
9.52669e-05
9.25614e-05
8.89919e-05
8.48143e-05
8.30483e-05
8.31829e-05
8.60458e-05
9.06697e-05
9.23084e-05
9.22353e-05
9.1156e-05
9.20585e-05
9.65819e-05
9.38505e-05
9.36923e-05
9.8517e-05
9.63684e-05
9.35182e-05
9.90074e-05
0.000103865
0.000103678
0.00010408
0.000103339
0.000104555
0.000112221
0.00011641
0.000114874
0.000112198
0.000115684
0.00012897
0.000138572
0.00013894
0.000137754
0.000141556
0.000147199
0.000149733
0.000155459
0.000165976
0.000176335
0.000182238
0.000184549
0.00018894
0.000200517
0.000209662
0.000214139
0.000226147
0.000250165
0.00025654
0.000256304
0.000262185
0.000265396
0.000274883
0.000292575
0.000306806
0.000315108
0.000329251
0.000345498
0.000354051
0.00036408
0.000375613
0.000406993
0.000420578
0.000415878
0.000430508
0.000456237
0.000455545
0.00046586
0.000472961
0.000472981
0.000508683
0.000570767
0.000612772
0.000626332
0.000626637
0.000624165
0.000598948
0.00056985
0.000565228
0.00062665
0.000617626
0.000552358
0.000498293
0.000560106
0.000668934
0.000736586
0.00068749
0.00067286
0.000624147
0.00067556
8.34544e-05
3.70007e-05
2.71012e-05
2.46004e-05
2.33677e-05
2.30928e-05
2.33952e-05
2.43922e-05
2.58446e-05
2.76516e-05
2.90545e-05
2.94988e-05
3.00585e-05
3.0966e-05
3.12697e-05
3.14058e-05
3.16465e-05
3.18429e-05
3.22529e-05
3.2919e-05
3.37944e-05
3.49146e-05
3.62071e-05
3.78237e-05
3.95446e-05
4.11114e-05
4.2367e-05
4.33118e-05
4.41467e-05
4.51248e-05
4.59702e-05
4.62464e-05
4.63028e-05
4.63515e-05
4.66959e-05
4.73241e-05
4.7869e-05
4.83379e-05
4.87084e-05
4.89585e-05
4.93989e-05
4.99655e-05
5.03352e-05
5.07107e-05
5.17979e-05
5.25262e-05
5.27296e-05
5.33478e-05
5.51817e-05
5.56362e-05
5.51183e-05
5.62926e-05
5.87153e-05
5.88486e-05
5.93253e-05
6.18691e-05
6.51508e-05
7.23407e-05
7.67648e-05
7.86175e-05
7.88604e-05
7.58293e-05
6.79311e-05
6.3871e-05
6.26674e-05
6.3296e-05
6.72853e-05
7.60639e-05
8.28546e-05
8.68091e-05
8.89748e-05
8.97681e-05
8.7117e-05
8.26625e-05
8.2945e-05
9.22943e-05
0.000113626
0.000127205
0.000166052
0.000186449
0.000182753
0.000169784
0.000153197
0.000138171
0.000124465
0.000111294
9.79963e-05
8.46843e-05
7.68734e-05
7.34109e-05
7.20106e-05
7.17429e-05
7.20421e-05
7.18042e-05
7.13676e-05
7.1669e-05
7.28602e-05
7.55036e-05
8.22728e-05
8.68169e-05
8.80817e-05
8.5228e-05
8.71999e-05
9.15528e-05
8.8735e-05
8.72187e-05
9.147e-05
9.13779e-05
8.60591e-05
8.78542e-05
9.21067e-05
9.3007e-05
9.39127e-05
9.18507e-05
9.20543e-05
9.53408e-05
9.9487e-05
0.000104148
0.000104682
0.000102757
0.000103304
0.000110641
0.000117865
0.000118171
0.000118299
0.00012374
0.000128393
0.000127429
0.000129394
0.000139858
0.000149574
0.000151362
0.000149148
0.000155573
0.000171544
0.000180834
0.000197195
0.000221067
0.000225634
0.00022725
0.000232605
0.000232097
0.000234786
0.000245136
0.000269308
0.000288147
0.000296217
0.000305786
0.000310967
0.000326764
0.00033763
0.000369969
0.000379701
0.000377822
0.000387147
0.000418663
0.000407069
0.000392421
0.00040402
0.000403247
0.000427164
0.000483955
0.00053925
0.000576055
0.000599126
0.000612688
0.000604258
0.000592791
0.000616173
0.00058594
0.000598143
0.000587168
0.000511849
0.000448325
0.000514198
0.000653536
0.000663266
0.000671233
0.000605536
0.000575414
0.000109826
5.08845e-05
3.02322e-05
2.63983e-05
2.39495e-05
2.33745e-05
2.3964e-05
2.56761e-05
2.86616e-05
3.09347e-05
3.11551e-05
3.00921e-05
3.0007e-05
3.02554e-05
3.04073e-05
3.04496e-05
3.02774e-05
3.06303e-05
3.1251e-05
3.22301e-05
3.33474e-05
3.43038e-05
3.52225e-05
3.60528e-05
3.74711e-05
3.86272e-05
3.90192e-05
3.92377e-05
3.94705e-05
4.00462e-05
4.07468e-05
4.12168e-05
4.18464e-05
4.2628e-05
4.35001e-05
4.42224e-05
4.48452e-05
4.54679e-05
4.59892e-05
4.62875e-05
4.65104e-05
4.66959e-05
4.68979e-05
4.72961e-05
4.76114e-05
4.77716e-05
4.81738e-05
4.96633e-05
5.09356e-05
5.11809e-05
5.15849e-05
5.26913e-05
5.38358e-05
5.42149e-05
5.45253e-05
5.50595e-05
5.54776e-05
5.70099e-05
6.02263e-05
6.64721e-05
7.09389e-05
7.19344e-05
7.06217e-05
6.72509e-05
6.55904e-05
6.62424e-05
6.93114e-05
7.86439e-05
8.73891e-05
9.10714e-05
9.18794e-05
9.19478e-05
8.76602e-05
8.19176e-05
8.1154e-05
8.51697e-05
9.89817e-05
0.000136845
0.000177711
0.000179345
0.000156358
0.000130605
0.000111829
0.000100235
9.03076e-05
8.11478e-05
7.27519e-05
6.6095e-05
6.33355e-05
6.24609e-05
6.25411e-05
6.34085e-05
6.53812e-05
6.70726e-05
6.82008e-05
6.91803e-05
7.05232e-05
7.18677e-05
7.41621e-05
8.053e-05
8.28285e-05
8.01414e-05
8.32465e-05
8.75282e-05
8.67067e-05
8.37012e-05
8.54905e-05
8.64844e-05
8.37073e-05
8.54641e-05
8.5024e-05
8.53591e-05
8.82406e-05
8.54775e-05
8.52953e-05
8.90562e-05
8.90207e-05
8.8828e-05
9.2553e-05
9.53883e-05
9.4558e-05
9.3403e-05
9.97706e-05
0.000104695
0.000104757
0.000105452
0.000111857
0.000114135
0.000111776
0.000115714
0.000131719
0.000139121
0.000135185
0.000134135
0.000152804
0.000172996
0.000184483
0.000200655
0.000207527
0.000216543
0.000226858
0.000227334
0.000218568
0.000209166
0.000239635
0.000273174
0.000284274
0.000285516
0.0002821
0.000305307
0.000290045
0.000334222
0.000351109
0.00035101
0.000348492
0.000382223
0.000385081
0.000356423
0.000366252
0.00037125
0.000389006
0.000441707
0.000489987
0.000541159
0.000584594
0.000619174
0.000632333
0.000640652
0.000680957
0.000612081
0.000519053
0.000556692
0.00055505
0.000457394
0.000369759
0.000566122
0.000629843
0.000640215
0.000614217
0.000530857
0.000131914
6.387e-05
3.23556e-05
2.84565e-05
2.63539e-05
2.44972e-05
2.55407e-05
2.96044e-05
3.19669e-05
3.18895e-05
3.04336e-05
2.93655e-05
2.89826e-05
2.88366e-05
2.86018e-05
2.84196e-05
2.86007e-05
2.88294e-05
2.93113e-05
2.99004e-05
3.06965e-05
3.16149e-05
3.23267e-05
3.30633e-05
3.3766e-05
3.46821e-05
3.53776e-05
3.59563e-05
3.66438e-05
3.749e-05
3.84756e-05
3.95147e-05
4.06933e-05
4.19762e-05
4.32826e-05
4.44343e-05
4.55285e-05
4.64726e-05
4.70793e-05
4.74046e-05
4.75558e-05
4.72652e-05
4.6783e-05
4.64528e-05
4.63995e-05
4.63289e-05
4.62854e-05
4.57075e-05
4.51197e-05
4.53785e-05
4.6125e-05
4.61971e-05
4.74633e-05
5.08223e-05
5.33345e-05
5.41289e-05
5.41891e-05
5.4833e-05
5.57291e-05
5.7293e-05
6.11026e-05
6.39218e-05
6.45332e-05
6.44979e-05
6.4716e-05
6.62608e-05
7.1099e-05
8.34561e-05
9.28907e-05
9.74166e-05
9.87158e-05
9.86144e-05
9.28682e-05
8.48993e-05
8.33112e-05
8.79176e-05
0.000111856
0.000162671
0.00017435
0.000153214
0.000119181
9.82831e-05
8.40838e-05
7.62663e-05
7.05057e-05
6.56136e-05
6.16908e-05
5.89423e-05
5.81233e-05
5.82302e-05
5.88817e-05
6.04721e-05
6.27918e-05
6.54558e-05
6.78348e-05
6.92852e-05
7.08903e-05
7.1945e-05
7.16019e-05
7.47614e-05
7.54362e-05
7.70333e-05
7.75706e-05
7.93073e-05
8.385e-05
8.08169e-05
8.34058e-05
8.3255e-05
7.89962e-05
8.36208e-05
8.33185e-05
8.07097e-05
8.43629e-05
8.41599e-05
7.94171e-05
8.22283e-05
8.67247e-05
8.33715e-05
7.95077e-05
8.3197e-05
8.68712e-05
8.664e-05
8.63691e-05
9.28551e-05
9.5048e-05
9.50721e-05
9.92275e-05
0.000103975
0.000103851
0.000102713
0.000113421
0.000131469
0.000133604
0.000131329
0.00013935
0.000169548
0.000188863
0.000193169
0.000191251
0.000188538
0.000201745
0.000212956
0.00021245
0.000210784
0.000226811
0.000259686
0.000274255
0.000275479
0.0002621
0.000293099
0.000253734
0.000282911
0.000307411
0.000314404
0.000298795
0.00033642
0.000359003
0.000328007
0.000338282
0.000353071
0.000364753
0.000419788
0.000464137
0.00049959
0.000575759
0.000565154
0.00058298
0.000625833
0.000671959
0.000663159
0.000460809
0.00047475
0.000517372
0.00045653
0.000351698
0.000482452
0.000581441
0.000590586
0.000619834
0.000555028
0.000150346
7.45012e-05
3.55984e-05
3.01165e-05
2.77067e-05
2.7424e-05
2.95081e-05
3.19761e-05
3.19535e-05
2.98737e-05
2.89408e-05
2.856e-05
2.80782e-05
2.78225e-05
2.75927e-05
2.73524e-05
2.75015e-05
2.78161e-05
2.81481e-05
2.86883e-05
2.92773e-05
3.01238e-05
3.08334e-05
3.15562e-05
3.23286e-05
3.31475e-05
3.40133e-05
3.49482e-05
3.59923e-05
3.73022e-05
3.87462e-05
4.06714e-05
4.29261e-05
4.53415e-05
4.72864e-05
4.8618e-05
4.97129e-05
5.04643e-05
5.10313e-05
5.14166e-05
5.15631e-05
5.13182e-05
5.05148e-05
4.91911e-05
4.76834e-05
4.65932e-05
4.56716e-05
4.48678e-05
4.39216e-05
4.37124e-05
4.38848e-05
4.30153e-05
4.27633e-05
4.44526e-05
4.85332e-05
5.04766e-05
5.26294e-05
5.44045e-05
5.49185e-05
5.66557e-05
5.96383e-05
6.00574e-05
6.01873e-05
5.96764e-05
5.95465e-05
6.20218e-05
7.20447e-05
8.72549e-05
9.55904e-05
0.000101492
0.000104047
0.00010434
0.000100547
9.44617e-05
9.3731e-05
0.000108601
0.00014489
0.000159625
0.00014836
0.000113479
9.07025e-05
7.56508e-05
6.71861e-05
6.28778e-05
6.02227e-05
5.80277e-05
5.61247e-05
5.51759e-05
5.51801e-05
5.54882e-05
5.64462e-05
5.83267e-05
6.05177e-05
6.31112e-05
6.64977e-05
6.90535e-05
7.04907e-05
7.16787e-05
7.08887e-05
7.34071e-05
7.33661e-05
7.8092e-05
7.72825e-05
7.5133e-05
8.18901e-05
7.73022e-05
7.93409e-05
8.17382e-05
7.61064e-05
7.5877e-05
8.08127e-05
7.64113e-05
7.53651e-05
8.05375e-05
7.81165e-05
7.4368e-05
7.9916e-05
8.07933e-05
7.70074e-05
8.00401e-05
8.49107e-05
8.32539e-05
8.24156e-05
8.75159e-05
9.02515e-05
9.08466e-05
9.3903e-05
9.82264e-05
0.000100494
0.000100048
0.000104928
0.000123322
0.000130556
0.000136713
0.000136681
0.000147843
0.000176256
0.000190599
0.000188313
0.000165362
0.000166835
0.000178621
0.000194155
0.000214903
0.000220941
0.000247281
0.000270293
0.000265911
0.000242973
0.000291001
0.000260266
0.000260142
0.000263638
0.000272315
0.000246189
0.000284868
0.000322299
0.000298919
0.00030409
0.000338419
0.000342019
0.000395646
0.000440549
0.000454928
0.000588805
0.000497348
0.000505007
0.000538762
0.000573975
0.000595036
0.000445643
0.000397333
0.000447823
0.000438433
0.000369783
0.000364706
0.000526587
0.000570616
0.000593532
0.00055002
0.000167717
9.11619e-05
4.12501e-05
3.17058e-05
2.91395e-05
2.92338e-05
3.16688e-05
3.17695e-05
3.0958e-05
2.88904e-05
2.85328e-05
2.8363e-05
2.78226e-05
2.75817e-05
2.70899e-05
2.69007e-05
2.70285e-05
2.71209e-05
2.73991e-05
2.77725e-05
2.8368e-05
2.91145e-05
2.98855e-05
3.05945e-05
3.15047e-05
3.25677e-05
3.37782e-05
3.50343e-05
3.66474e-05
3.88636e-05
4.16587e-05
4.48065e-05
4.721e-05
4.84715e-05
4.92378e-05
5.0031e-05
5.07766e-05
5.12511e-05
5.15681e-05
5.19027e-05
5.23205e-05
5.25195e-05
5.21901e-05
5.08637e-05
4.86415e-05
4.69797e-05
4.58694e-05
4.54636e-05
4.48784e-05
4.43049e-05
4.38378e-05
4.28019e-05
4.13012e-05
4.10106e-05
4.21623e-05
4.45979e-05
4.74717e-05
4.93282e-05
5.10462e-05
5.45019e-05
5.7657e-05
5.94549e-05
6.00841e-05
5.88276e-05
5.75417e-05
5.93672e-05
7.17639e-05
8.77265e-05
9.63639e-05
0.000103653
0.000108228
0.000109802
0.000109562
0.000109495
0.000115188
0.000131241
0.000142098
0.000138268
0.000110417
8.81621e-05
7.28234e-05
6.32562e-05
5.84237e-05
5.61177e-05
5.48818e-05
5.39472e-05
5.34521e-05
5.318e-05
5.30875e-05
5.3484e-05
5.49361e-05
5.73326e-05
5.9664e-05
6.18392e-05
6.54985e-05
6.89451e-05
7.04827e-05
7.07906e-05
7.15453e-05
7.36734e-05
7.36429e-05
8.0707e-05
8.03112e-05
7.4919e-05
7.94112e-05
7.87595e-05
7.2388e-05
7.72643e-05
7.90551e-05
7.1424e-05
7.48732e-05
7.59272e-05
7.19626e-05
7.40868e-05
7.46769e-05
7.2178e-05
7.69907e-05
7.92873e-05
7.61687e-05
7.67335e-05
8.36232e-05
8.25e-05
8.03623e-05
8.3143e-05
8.82263e-05
8.8227e-05
8.94588e-05
9.33728e-05
9.69137e-05
9.8881e-05
0.000101183
0.000114803
0.000124615
0.0001372
0.000134787
0.000125269
0.000143961
0.000168556
0.000183734
0.000168621
0.000160407
0.00016298
0.000183673
0.000229345
0.000213303
0.000218739
0.00024743
0.000251022
0.000223996
0.000274833
0.000259212
0.000249606
0.000246067
0.000248138
0.000214643
0.000239029
0.000286823
0.000271906
0.000285445
0.000318508
0.000337791
0.000378221
0.000407713
0.000429768
0.000573672
0.000508567
0.000506182
0.000490124
0.000499811
0.000524689
0.000412582
0.000358042
0.000398656
0.00041459
0.000385501
0.000336222
0.000503268
0.000561989
0.000561939
0.000534486
0.000180194
0.000101298
4.55818e-05
3.34161e-05
3.10534e-05
3.09696e-05
3.33527e-05
3.24116e-05
3.03096e-05
2.91077e-05
2.86864e-05
2.82543e-05
2.77139e-05
2.73943e-05
2.69392e-05
2.67813e-05
2.68267e-05
2.69319e-05
2.71016e-05
2.72732e-05
2.76411e-05
2.82409e-05
2.92361e-05
3.03034e-05
3.14754e-05
3.2723e-05
3.40808e-05
3.59252e-05
3.86945e-05
4.21202e-05
4.55969e-05
4.75015e-05
4.84101e-05
4.88895e-05
4.91927e-05
4.9131e-05
4.84258e-05
4.774e-05
4.73782e-05
4.69238e-05
4.67721e-05
4.76955e-05
4.91335e-05
4.99273e-05
4.84547e-05
4.55908e-05
4.35381e-05
4.31558e-05
4.38498e-05
4.44636e-05
4.42325e-05
4.37872e-05
4.20529e-05
4.03624e-05
4.0152e-05
4.04414e-05
4.12771e-05
4.30853e-05
4.53173e-05
4.94804e-05
5.45441e-05
5.84921e-05
6.01675e-05
5.92282e-05
5.72773e-05
5.76674e-05
6.41537e-05
8.21299e-05
9.59526e-05
0.000104534
0.000109783
0.000112089
0.000112837
0.000114765
0.000121483
0.000126708
0.000124545
0.000104726
8.59916e-05
7.20162e-05
6.11905e-05
5.5146e-05
5.24528e-05
5.15455e-05
5.1334e-05
5.11216e-05
5.06501e-05
5.07096e-05
5.10847e-05
5.21553e-05
5.39457e-05
5.66615e-05
5.93664e-05
6.17285e-05
6.46666e-05
6.70283e-05
6.79832e-05
6.74939e-05
7.05073e-05
7.20372e-05
7.35704e-05
7.82247e-05
7.76388e-05
7.58905e-05
7.12911e-05
7.70739e-05
7.21397e-05
6.88206e-05
7.92567e-05
7.27327e-05
7.10919e-05
7.24359e-05
7.08129e-05
7.06837e-05
7.05947e-05
7.0253e-05
7.18397e-05
7.45236e-05
7.50066e-05
7.17305e-05
7.86541e-05
8.09317e-05
7.78444e-05
7.6192e-05
8.44959e-05
8.561e-05
8.37209e-05
8.72672e-05
9.36769e-05
9.74967e-05
9.77724e-05
0.00010447
0.000114722
0.000125184
0.000134679
0.000137046
0.000130231
0.000138169
0.000164415
0.0001785
0.000168713
0.000165477
0.000186604
0.000238907
0.000214548
0.000191155
0.000219378
0.000236515
0.000213496
0.000255842
0.000249757
0.000237874
0.000237578
0.000239317
0.000211473
0.000221522
0.000267905
0.000254442
0.000282675
0.000309703
0.000336
0.000352294
0.00035787
0.000424788
0.000546753
0.000519984
0.000506916
0.000495735
0.000417506
0.000457945
0.000398144
0.000339527
0.000368384
0.000391494
0.000392617
0.000333875
0.00048822
0.000547895
0.000541409
0.000554757
0.000190203
0.000106001
4.62431e-05
3.28728e-05
3.17067e-05
3.28702e-05
3.34456e-05
3.19699e-05
2.96897e-05
2.90526e-05
2.85836e-05
2.81596e-05
2.80646e-05
2.77158e-05
2.73669e-05
2.73125e-05
2.73652e-05
2.73543e-05
2.73742e-05
2.75104e-05
2.77101e-05
2.81625e-05
2.89441e-05
2.99146e-05
3.11617e-05
3.26468e-05
3.45119e-05
3.73093e-05
4.12902e-05
4.54575e-05
4.80148e-05
4.88961e-05
4.92798e-05
4.9058e-05
4.83726e-05
4.72904e-05
4.65884e-05
4.64559e-05
4.60971e-05
4.52692e-05
4.36671e-05
4.28155e-05
4.2883e-05
4.47064e-05
4.57662e-05
4.45249e-05
4.17602e-05
4.00897e-05
3.9717e-05
4.03881e-05
4.15216e-05
4.20702e-05
4.22946e-05
4.06238e-05
3.99101e-05
3.99927e-05
4.01396e-05
4.09788e-05
4.25807e-05
4.55929e-05
5.00535e-05
5.54946e-05
5.97657e-05
6.10944e-05
5.82134e-05
5.78342e-05
6.21149e-05
7.60347e-05
9.22361e-05
0.000102859
0.00010938
0.000112208
0.000113077
0.000114035
0.000115152
0.000110481
9.79277e-05
8.29422e-05
7.16041e-05
6.20934e-05
5.44116e-05
5.05467e-05
4.90639e-05
4.87379e-05
4.86435e-05
4.8412e-05
4.81813e-05
4.84234e-05
4.95391e-05
5.1256e-05
5.34093e-05
5.63977e-05
5.94007e-05
6.17516e-05
6.39386e-05
6.47013e-05
6.44346e-05
6.42706e-05
6.7338e-05
6.74863e-05
7.31317e-05
7.14791e-05
6.88109e-05
7.54986e-05
6.8393e-05
7.05881e-05
7.00037e-05
6.75889e-05
7.57736e-05
7.03386e-05
6.79923e-05
6.72257e-05
6.67596e-05
6.46793e-05
6.31213e-05
6.67806e-05
6.49265e-05
6.62282e-05
6.93555e-05
6.46284e-05
6.84063e-05
7.41367e-05
7.28786e-05
7.03747e-05
7.70736e-05
8.08754e-05
8.04385e-05
8.19742e-05
8.97648e-05
9.39115e-05
9.65744e-05
9.45847e-05
9.83964e-05
0.000112742
0.000130245
0.000137062
0.000136096
0.000135994
0.000155037
0.000174108
0.000169625
0.000171372
0.000194201
0.000219936
0.0002015
0.00018231
0.000208017
0.000219847
0.000209509
0.000252354
0.000242247
0.000227672
0.000229514
0.000230182
0.000210638
0.000220906
0.000256297
0.000243882
0.000281002
0.000320939
0.000332782
0.000334044
0.00032577
0.00041638
0.000518256
0.000514808
0.000526493
0.000488686
0.000375421
0.000395092
0.000364811
0.000331169
0.000342734
0.000371909
0.000393158
0.000337088
0.000471885
0.000531725
0.000527898
0.000575917
0.000200796
0.000109766
4.4993e-05
3.10796e-05
3.05571e-05
3.26961e-05
3.26602e-05
3.06267e-05
2.92542e-05
2.91343e-05
2.92492e-05
2.88464e-05
2.86808e-05
2.85668e-05
2.86833e-05
2.88381e-05
2.88829e-05
2.86272e-05
2.82364e-05
2.81534e-05
2.80941e-05
2.81856e-05
2.86672e-05
2.94621e-05
3.07948e-05
3.28302e-05
3.56925e-05
3.96429e-05
4.46465e-05
4.87396e-05
5.00527e-05
5.04645e-05
4.96438e-05
4.83944e-05
4.64246e-05
4.58502e-05
4.63115e-05
4.64813e-05
4.64813e-05
4.60348e-05
4.43416e-05
4.20997e-05
4.14472e-05
4.19667e-05
4.33227e-05
4.32265e-05
4.15967e-05
3.92795e-05
3.86211e-05
3.85435e-05
3.89207e-05
3.89512e-05
3.9052e-05
3.90973e-05
3.86734e-05
3.90127e-05
3.93699e-05
3.97401e-05
4.04486e-05
4.17059e-05
4.47174e-05
5.07388e-05
5.81647e-05
6.32196e-05
6.34862e-05
5.9805e-05
6.0711e-05
6.92151e-05
8.66348e-05
9.85989e-05
0.000106116
0.000109462
0.000109951
0.000106453
0.000100526
9.10079e-05
8.02405e-05
7.09096e-05
6.30536e-05
5.63694e-05
5.0772e-05
4.83702e-05
4.76111e-05
4.72687e-05
4.66034e-05
4.60661e-05
4.61788e-05
4.69243e-05
4.85969e-05
5.07317e-05
5.34702e-05
5.75294e-05
5.99911e-05
6.12076e-05
6.17597e-05
6.08638e-05
5.95911e-05
5.89806e-05
6.03749e-05
6.20016e-05
7.0054e-05
6.84183e-05
6.59198e-05
6.97371e-05
6.68687e-05
6.76516e-05
6.68439e-05
6.75624e-05
6.91052e-05
6.55409e-05
6.5478e-05