/*--------------------------------*- C++ -*----------------------------------*\
| =========                 |                                                 |
| \\      /  F ield         | OpenFOAM: The Open Source CFD Toolbox           |
|  \\    /   O peration     | Version:  dev                                   |
|   \\  /    A nd           | Web:      http://www.openfoam.org               |
|    \\/     M anipulation  |                                                 |
\*---------------------------------------------------------------------------*/
FoamFile
{
    version     2.0;
    format      ascii;
    class       volScalarField;
    object      p;
    location    "9.151";
}
// * * * * * * * * * * * * * * * * * * * * * * * * * * * * * * * * * * * * * //

dimensions      [1 -1 -2 0 0 0 0];

internalField   nonuniform List<scalar> 
12225
(
103588
103536
103461
103367
103244
103104
102943
102773
102590
102402
102206
102011
101809
101614
101409
101217
100978
100607
103576
103528
103454
103360
103236
103096
102935
102765
102582
102394
102198
102003
101801
101606
101401
101207
100968
100758
103555
103510
103436
103342
103218
103078
102917
102747
102563
102375
102179
101984
101782
101586
101384
101184
100971
100765
103519
103477
103405
103310
103186
103046
102885
102715
102531
102343
102147
101952
101751
101553
101355
101152
100951
100744
103461
103427
103356
103261
103137
102997
102836
102665
102482
102294
102099
101902
101703
101504
101310
101108
100923
100722
103385
103355
103285
103190
103066
102925
102765
102593
102411
102222
102028
101831
101634
101435
101243
101046
100870
100691
103284
103254
103186
103090
102968
102826
102667
102494
102313
102123
101930
101733
101537
101340
101150
100959
100786
100617
103170
103140
103074
102977
102856
102713
102555
102382
102201
102011
101819
101622
101426
101231
101042
100856
100684
100520
103049
103018
102952
102856
102735
102592
102434
102261
102080
101890
101698
101502
101307
101113
100925
100742
100570
100409
102888
102857
102792
102695
102575
102431
102273
102100
101919
101730
101538
101343
101149
100956
100769
100588
100416
100256
102677
102645
102581
102484
102364
102220
102062
101889
101708
101520
101327
101133
100940
100749
100562
100383
100212
100052
102403
102367
102304
102207
102086
101942
101784
101612
101430
101243
101051
100858
100665
100476
100291
100113
99942.2
99780.9
102036
102005
101941
101845
101723
101581
101421
101250
101069
100882
100691
100499
100308
100120
99936.7
99759.5
99589.8
99428.2
101572
101538
101474
101378
101256
101114
100955
100784
100604
100418
100229
100038
99849.1
99662.9
99481.1
99305.3
99136.5
98975.3
100963
100941
100879
100784
100663
100521
100363
100194
100015
99830.8
99643.4
99455.3
99268.4
99084.5
98905.1
98731.5
98564.5
98404.7
100224
100201
100138
100044
99923.7
99783.6
99627.7
99460.1
99284.2
99102.7
98918.4
98733.5
98550.1
98369.8
98193.9
98023.5
97859.7
97702.6
99336.1
99305.9
99241.5
99147.7
99029.8
98892.5
98739.9
98576
98404.1
98227
98047.3
97867.2
97688.8
97513.5
97342.7
97177.3
97018.1
96865.4
98362.6
98336.9
98273.5
98181.9
98067.2
97934
97786.1
97627.3
97460.8
97289.5
97115.7
96941.8
96769.7
96600.8
96436.2
96276.9
96123.6
95976.7
97490.3
97461.5
97400
97311.4
97200.6
97071.9
96929.1
96775.7
96615
96449.6
96282
96114.3
95948.5
95785.8
95627.4
95474.2
95326.8
95185.5
96772.7
96747.7
96688.4
96602.7
96495.5
96370.8
96232.5
96084
95928.3
95768.1
95605.8
95443.6
95283.1
95125.8
94972.7
94824.7
94682.4
94546
96201.4
96179.8
96123.8
96041
95936.9
95815.7
95681.2
95536.7
95385.2
95229.2
95071.4
94913.6
94757.5
94604.7
94456
94312.2
94174
94041.6
95763.5
95741.5
95686.7
95605.9
95504.2
95385.8
95254.3
95113.1
94964.9
94812.4
94658
94503.7
94351.3
94201.9
94056.7
93916.3
93781.3
93652.2
95431.6
95409.4
95355.3
95276
95176.2
95060
94930.8
94792
94646.4
94496.6
94344.9
94193.3
94043.6
93896.9
93754.3
93616.6
93484.3
93357.8
95187.2
95163.9
95109.6
95031.1
94932.7
94818.1
94690.7
94553.7
94410
94262.2
94112.6
93963.1
93815.4
93670.8
93530.2
93394.5
93264.3
93139.7
95012.7
94987.2
94931.9
94853.8
94756.3
94642.9
94516.8
94381.1
94238.8
94092.4
93944.3
93796.4
93650.3
93507.2
93368.2
93234
93105.1
92981.9
94898.3
94863.9
94807.2
94729.2
94632.4
94519.9
94394.7
94259.9
94118.6
93973.2
93826.2
93679.4
93534.4
93392.4
93254.5
93121.3
92993.4
92871.2
94816.7
94780.6
94723.1
94645.3
94548.9
94436.9
94312.3
94178.2
94037.6
93893
93746.7
93600.6
93456.3
93315.1
93177.9
93045.5
92918.3
92796.7
94761.9
94727.7
94669.9
94592.2
94496.2
94384.6
94260.3
94126.6
93986.4
93842.3
93696.5
93550.8
93407
93266.3
93129.6
92997.6
92870.9
92749.6
94731.8
94698.1
94639.8
94562.2
94466.6
94355.1
94231.1
94097.7
93957.7
93813.8
93668.3
93522.9
93379.3
93238.9
93102.5
92970.8
92844.3
92723.3
94721.6
94686.3
94627.4
94549.8
94454.1
94342.7
94218.8
94085.5
93945.6
93801.9
93656.5
93511.2
93367.8
93227.4
93091.2
92959.6
92833.2
92712.3
93260.4
93263.1
93269
93277.8
93289.6
93304.2
93321.8
93342.5
93366.1
93392.6
93422
93454.2
93489.2
93526.9
93567
93609.5
93654.3
93701.1
93749.9
93800.5
93852.9
93906.7
93961.7
94018.2
94075.8
94134.5
94194
94254.2
94315
94376.1
94437.5
94499
94560.5
94622.1
94683.4
94744.4
94805.1
94865.3
94925.2
94984.8
95044
95103
95162.2
95221.3
95281
95341.3
95401.9
95464.2
95529.7
95598.8
95670.1
95745
95825
95911.4
96003.8
96102.9
96209.8
96326.2
96450
96583.9
96728.5
96884.8
97054.2
97237.7
97436
97649.5
97877.7
98120.1
98374.5
98638.2
98911.3
99194.9
99491.4
99803
100127
100460
100801
101155
101527
101907
102291
102678
103068
103459
103850
104244
104639
105027
105419
105807
106192
106576
106959
107340
107721
108100
108480
108860
109241
109623
110007
110392
110780
111167
111558
111954
112351
112752
113158
113568
113980
114395
114812
115230
115649
116071
116489
116903
117314
117727
118137
118540
118932
119317
119695
120065
120426
120775
121116
121441
121755
122044
122311
122562
122802
123021
123220
123381
123505
123620
123750
123908
124104
124338
124637
125045
125571
126198
126899
127626
128393
129205
130066
131005
132055
133217
134472
135771
137115
138486
139782
140984
141991
142822
143258
143321
143040
142593
142178
141691
141307
141039
140950
141011
141237
141856
142791
143814
144555
144838
93341.9
93344.7
93350.3
93358.8
93370.2
93384.5
93401.7
93421.9
93445
93470.9
93499.8
93531.6
93566
93603
93642.4
93684.1
93728
93774
93821.9
93871.4
93922.6
93975.3
94029.6
94085
94141.5
94199.2
94257.6
94316.8
94376.5
94436.7
94497.1
94557.7
94618.4
94679.1
94739.5
94799.6
94859.3
94918.5
94977.6
95036.4
95094.4
95152.5
95210.8
95268.9
95327.4
95386.5
95445.6
95506.7
95571
95638.5
95710.9
95785.8
95864
95947.7
96038.2
96135.2
96238.6
96353.1
96477.7
96610.7
96753.4
96907.7
97074.7
97256
97451.3
97661.8
97887.2
98126.9
98380.8
98640.8
98910.7
99191.8
99485.5
99793.4
100115
100448
100792
101145
101512
101887
102266
102651
103040
103428
103816
104207
104597
104984
105370
105754
106135
106514
106892
107269
107645
108019
108393
108768
109143
109519
109897
110274
110654
111036
111419
111805
112196
112589
112984
113387
113791
114197
114606
115015
115424
115838
116251
116656
117056
117458
117863
118261
118648
119025
119397
119763
120118
120460
120792
121114
121424
121708
121971
122217
122465
122686
122886
123046
123172
123281
123413
123573
123771
124002
124293
124698
125236
125869
126578
127304
128069
128873
129731
130667
131700
132868
134127
135411
136748
138091
139390
140616
141649
142460
142925
142976
142676
142217
141826
141360
140966
140700
140614
140661
140835
141439
142392
143428
144154
144413
93502.3
93504.8
93510.2
93518.2
93528.8
93542.7
93559.3
93578.7
93601
93626.1
93654.1
93685.1
93718.8
93754.9
93793.4
93834.1
93876.4
93920.4
93966
94013.1
94061.9
94112.2
94163.9
94217.1
94271.7
94327.3
94383.9
94441.2
94499.1
94557.4
94616.2
94675.1
94733.9
94792.4
94850.7
94908.8
94966.5
95024
95081.3
95137.9
95194.1
95250.7
95306.9
95362.8
95419.9
95478.2
95537
95597
95659.6
95724
95790.9
95862.2
95937.1
96016.4
96106.8
96203.9
96307.6
96416.4
96535.3
96664
96803.3
96953.8
97116
97291.5
97481.5
97685.8
97906.2
98141.6
98388.6
98644.2
98909.3
99184.6
99472.6
99775.6
100094
100428
100774
101127
101487
101855
102228
102603
102983
103365
103748
104131
104513
104893
105270
105645
106018
106390
106759
107127
107493
107858
108222
108585
108949
109314
109679
110042
110409
110778
111145
111516
111892
112270
112647
113032
113421
113810
114204
114597
114989
115384
115782
116176
116563
116945
117327
117710
118088
118456
118817
119172
119517
119844
120158
120467
120771
121046
121291
121527
121751
121970
122196
122375
122510
122616
122747
122913
123116
123327
123585
123982
124539
125187
125904
126651
127389
128177
129040
129989
130983
132153
133408
134661
135990
137311
138581
139820
140884
141694
142188
142213
141915
141473
141157
140668
140278
140060
139998
139999
140051
140545
141502
142564
143271
143457
93739.3
93741.3
93746.3
93753.9
93764.2
93777.3
93793
93811.5
93832.9
93857.3
93884.7
93914.7
93946.5
93980.3
94015.8
94052.8
94091.8
94132.5
94175
94219.1
94264.9
94312.4
94361.5
94412.1
94464
94517
94570.7
94625.1
94680
94735.4
94791.2
94847.2
94903.5
94958.2
95013.3
95068.2
95123
95177.7
95232.1
95286.1
95339.8
95393.4
95446.8
95500.3
95554.6
95609.3
95665.2
95722.7
95782
95843.2
95907.7
95976.2
96049
96128.3
96211
96300.1
96396.3
96502.2
96619.6
96744.2
96877
97021.8
97177.6
97345.9
97529.6
97726.2
97939.1
98166.7
98404.6
98652.1
98908.7
99175.7
99456.7
99753.7
100068
100398
100741
101093
101448
101805
102165
102531
102900
103272
103644
104016
104387
104755
105122
105485
105847
106206
106563
106918
107271
107621
107971
108319
108666
109014
109361
109705
110051
110403
110749
111096
111449
111805
112160
112521
112886
113250
113621
113993
114361
114735
115109
115476
115844
116214
116576
116927
117279
117636
117982
118316
118649
118968
119262
119544
119834
120109
120345
120555
120748
120946
121151
121376
121557
121677
121810
121995
122213
122401
122601
122959
123512
124179
124893
125685
126388
127146
128044
128979
129953
131110
132384
133618
134911
136214
137443
138641
139704
140521
141053
141040
140817
140442
140139
139715
139308
139130
139141
139131
139118
139379
140205
141249
141987
142121
94046.5
94048.1
94052.4
94059.5
94069.6
94082.3
94097.2
94114.7
94135
94158.3
94183.9
94210.7
94239.7
94270.3
94302.3
94336
94371.3
94408.4
94447.3
94488.2
94530.7
94574.9
94620.6
94667.6
94715.8
94764.7
94814.2
94864.2
94914.7
94965.5
95016.6
95067.8
95119
95170.1
95221.3
95272.6
95323.8
95374.9
95425.7
95476.3
95526.7
95576.9
95626.9
95677.1
95727.6
95778.7
95830.6
95884
95939.2
95996.2
96056.2
96120
96187.9
96260.9
96339.3
96424.6
96517.1
96617.6
96725.8
96844
96971.5
97109.6
97258.4
97418.7
97595.2
97783.6
97986.4
98203.5
98430.9
98667.1
98912.3
99167.8
99438.5
99727.1
100034
100358
100695
101037
101384
101726
102077
102431
102787
103144
103503
103861
104218
104573
104925
105275
105622
105966
106307
106645
106981
107313
107644
107972
108299
108624
108950
109268
109586
109920
110237
110554
110877
111205
111529
111861
112199
112530
112872
113218
113556
113905
114257
114596
114928
115272
115620
115950
116266
116593
116926
117237
117538
117847
118137
118393
118646
118908
119160
119363
119506
119659
119868
120095
120317
120450
120592
120802
121071
121266
121396
121685
122208
122900
123609
124447
125156
125870
126748
127696
128645
129775
131059
132289
133536
134819
135999
137129
138155
138956
139535
139457
139324
138984
138671
138452
138077
137855
137913
137970
138014
138049
138642
139557
140301
140434
94420.3
94421.5
94425.3
94432.2
94441.3
94452.6
94466.3
94482.8
94502.2
94523.4
94545.7
94569
94593.9
94620.2
94648.1
94677.8
94709.4
94742.8
94777.9
94814.8
94853.3
94893.1
94934.2
94976.3
95019.1
95062.5
95106.4
95150.7
95195.3
95240.2
95285.5
95331
95376
95422.1
95468.5
95515.3
95562.1
95608.9
95655.7
95702.5
95749.2
95795.6
95841.8
95887.7
95933.8
95980.4
96027.8
96076.2
96126.1
96178.2
96233.3
96291.6
96353.8
96420.9
96493.5
96572.4
96658
96750.7
96853
96964
97083.4
97212.5
97354
97508.6
97674.4
97853
98045.5
98250.6
98465.2
98688.4
98920
99162.5
99421.1
99697.8
99992.5
100307
100631
100959
101291
101624
101961
102300
102641
102982
103325
103667
104008
104346
104682
105015
105344
105670
105992
106311
106627
106939
107247
107552
107854
108154
108454
108746
109036
109332
109621
109906
110192
110489
110779
111072
111378
111675
111978
112292
112602
112915
113234
113555
113866
114172
114487
114796
115090
115381
115692
115984
116251
116529
116816
117063
117272
117481
117739
117978
118090
118172
118318
118584
118848
118996
119118
119299
119625
119896
119995
120211
120675
121393
122113
122967
123758
124451
125292
126242
127169
128227
129465
130675
131878
133133
134265
135309
136266
137022
137688
137595
137573
137284
136870
136767
136565
136356
136369
136494
136645
136544
136871
137602
138202
138347
94852.7
94853.6
94856.8
94863.1
94870.3
94879.7
94891.8
94906.8
94922.5
94939.2
94957.3
94977.1
94998.3
95021
95045.4
95071.3
95098.8
95127.9
95158.5
95190.5
95223.7
95258
95293
95328.7
95365
95401.6
95438.6
95475.8
95513.4
95551.5
95590.2
95629.9
95668.2
95708.3
95749.1
95790.4
95832.2
95874.2
95916.7
95959.2
96001.4
96043.2
96084.6
96125.5
96166.5
96207.7
96249.6
96292.8
96337.5
96384.2
96433.5
96485.7
96541.5
96601.9
96667.6
96739
96816.6
96901.4
96994.8
97096.5
97207.4
97329.1
97461.3
97605.9
97760.1
97928.9
98110.8
98302.7
98503.2
98712.2
98930.4
99156.6
99402.1
99665
99945.4
100242
100549
100861
101177
101496
101816
102138
102461
102786
103111
103435
103758
104078
104395
104709
105018
105323
105624
105921
106214
106503
106787
107066
107340
107612
107882
108146
108400
108660
108915
109169
109415
109672
109929
110182
110448
110709
110976
111241
111517
111800
112071
112360
112654
112927
113210
113497
113770
114035
114318
114584
114824
115071
115335
115580
115764
115921
116144
116402
116554
116632
116722
116895
117201
117426
117528
117674
117961
118285
118444
118636
118996
119719
120424
121261
122113
122859
123704
124658
125603
126555
127683
128839
130021
131185
132278
133227
134062
134827
135523
135665
135698
135488
135036
134824
134753
134646
134599
134738
134925
134811
134913
135440
135826
135902
95332.4
95332.4
95333.5
95336.4
95343.8
95352.8
95363.1
95375.4
95388.1
95401.1
95415.4
95431.4
95448.5
95467
95486.9
95508.2
95530.9
95554.7
95579.6
95605.5
95632.1
95659.5
95687.3
95715.5
95744.3
95773.4
95802.8
95832.4
95862.5
95893.1
95924.4
95955.1
95989.2
96024.2
96059.4
96095.2
96131.6
96168.4
96205.6
96242.9
96279.9
96316.3
96352
96386.8
96421.2
96456.1
96491.9
96528.9
96567.5
96607.7
96650.3
96695.7
96744.1
96796.7
96854.3
96917.2
96985.8
97061.7
97145.5
97237.2
97337.6
97447.5
97568.2
97700.5
97845.6
98003.1
98172.1
98350.2
98536.8
98731.5
98935.6
99149.8
99379.7
99625.6
99888.3
100164
100451
100743
101040
101340
101642
101945
102250
102555
102861
103166
103469
103769
104066
104358
104645
104928
105206
105480
105748
106011
106269
106520
106764
107005
107241
107476
107693
107915
108132
108349
108563
108776
108991
109210
109434
109649
109883
110109
110334
110584
110816
111060
111325
111561
111811
112079
112331
112576
112828
113071
113296
113512
113739
113968
114145
114295
114467
114665
114872
115079
115160
115162
115391
115705
115833
115988
116218
116508
116791
117071
117263
117901
118616
119369
120216
121039
121927
122911
123908
124779
125771
126842
128007
129027
130038
130915
131605
132438
133017
133457
133486
133414
133062
132797
132750
132708
132606
132713
132871
132774
132740
133055
133275
133273
95850.9
95850.1
95850.4
95852.5
95857.7
95864.3
95871.8
95879.5
95888.7
95898.4
95909.1
95920.5
95932.6
95946.2
95960.9
95976.9
95993.8
96011.3
96029.7
96048.4
96067.8
96087.8
96108.3
96129.1
96150.2
96171.7
96193.4
96215.4
96237.7
96260.6
96284.4
96309.8
96336.9
96365.1
96394.2
96424
96454.4
96485.2
96516.2
96547.4
96578.3
96608.5
96637.7
96665.7
96693.2
96721
96749.5
96779.4
96810.6
96843.6
96878.6
96915.8
96955.6
96999.1
97047.4
97100.8
97160.1
97226.1
97299.5
97380.3
97468.8
97566
97673.5
97791.3
97927
98070.8
98225.8
98389.2
98560.8
98741.4
98931.6
99132.9
99347.1
99575.9
99817.3
100071
100334
100604
100879
101158
101439
101721
102005
102290
102575
102860
103142
103420
103695
103964
104229
104488
104742
104990
105231
105466
105695
105918
106134
106343
106544
106749
106932
107114
107295
107470
107646
107823
107991
108166
108352
108524
108713
108908
109092
109301
109502
109699
109923
110135
110345
110574
110807
111035
111248
111470
111692
111880
112066
112270
112445
112605
112741
112869
113036
113266
113418
113504
113557
113751
113935
114153
114363
114579
114984
115373
115498
116014
116712
117395
118204
119049
119952
120951
121977
122844
123715
124710
125792
126708
127576
128417
129011
129763
130271
130768
130840
130903
130777
130565
130524
130527
130397
130444
130529
130460
130350
130474
130567
130481
96397.4
96395.9
96396.3
96398.2
96400.3
96402.7
96406.7
96411.1
96416
96420.9
96426.3
96432.4
96439.7
96448.2
96457.5
96467.6
96478.2
96489.1
96500.5
96512.1
96524.2
96536.8
96549.7
96562.9
96576.1
96589.3
96602.6
96616.4
96631
96646.6
96663.5
96682.3
96702.6
96723.9
96746.2
96769.1
96792.5
96816.2
96839.9
96863.6
96887
96909.9
96932.1
96953.4
96974
96994.5
97015.3
97037.1
97060.1
97084.7
97111
97139.4
97170.3
97204.4
97242.9
97286
97334.6
97389.5
97451.2
97519.9
97596.1
97680.6
97774.8
97879.7
97997.1
98127.1
98267.3
98414.8
98570.4
98735.5
98911
99097.3
99295
99504.1
99724.4
99955.1
100194
100440
100692
100947
101206
101467
101730
101994
102257
102519
102778
103034
103285
103532
103773
104008
104236
104456
104668
104875
105075
105270
105458
105637
105808
105974
106132
106277
106422
106561
106693
106831
106961
107090
107231
107370
107512
107668
107817
107977
108151
108313
108485
108676
108857
109038
109242
109445
109623
109817
110025
110186
110345
110518
110677
110827
110956
111054
111137
111279
111425
111572
111637
111709
111865
112130
112357
112572
113018
113437
113629
114056
114688
115322
116119
116944
117830
118819
119816
120678
121462
122403
123360
124188
124956
125809
126399
126811
127294
127855
128058
128184
128231
128099
128075
128097
127986
127972
127932
127920
127777
127743
127723
127509
96959.2
96957.2
96956.2
96956
96955
96954
96953.6
96953.3
96953.1
96954
96955.2
96957.1
96960.1
96963.4
96967
96970.9
96974.8
96978.7
96982.7
96986.7
96990.7
96995.1
96999.7
97004.2
97008.8
97013.5
97018.9
97025.2
97032.5
97041.6
97052.1
97064
97077.1
97091.3
97106.2
97121.4
97136.6
97151.8
97167.1
97182.3
97197.4
97212.3
97226.9
97241.3
97255.4
97268.8
97281.8
97295.1
97309
97324.3
97341.2
97360.1
97381.6
97406.1
97434.2
97466.6
97503.8
97546.6
97595.5
97651.1
97714.1
97785
97864.8
97954.4
98055
98167.3
98290
98421.2
98561
98710.1
98869.2
99038.4
99217.7
99406.7
99605.1
99812.1
100027
100248
100476
100707
100943
101181
101422
101663
101904
102143
102379
102612
102841
103064
103282
103492
103692
103883
104068
104246
104419
104586
104745
104895
105042
105168
105296
105413
105521
105627
105726
105821
105914
106008
106101
106209
106310
106424
106542
106650
106782
106913
107044
107201
107358
107504
107672
107843
107992
108150
108325
108464
108607
108746
108870
109004
109124
109186
109265
109361
109420
109509
109622
109686
109785
110014
110261
110570
110975
111323
111612
112016
112558
113124
113936
114727
115592
116558
117514
118313
119042
119921
120740
121461
122174
122974
123639
123775
124127
124840
125141
125376
125516
125501
125463
125447
125397
125327
125150
125201
125075
124907
124797
124473
97520.6
97518
97514.6
97510.9
97507.4
97504.3
97500.9
97497.1
97493.1
97489.6
97486.3
97483.1
97480.1
97477
97474.1
97471.2
97468.3
97465.3
97461.9
97458.4
97454.4
97450.3
97446.2
97442
97438.3
97435.4
97433.4
97432.6
97433.6
97435.9
97439.4
97444
97449.5
97455.8
97462.5
97469
97475
97480.9
97487.1
97493.9
97500.9
97507.8
97514.6
97521.6
97528.7
97535.1
97540.2
97544.7
97549.6
97555.6
97562.8
97571.6
97582.6
97596.6
97613.9
97635
97660.3
97690.6
97726.3
97768.2
97817.2
97873.6
97938.2
98011.7
98095.3
98189.7
98294.4
98407.8
98529.9
98661.3
98802.3
98953.2
99112.4
99280.3
99456.1
99639.5
99830
100027
100230
100438
100650
100865
101083
101302
101521
101736
101949
102159
102364
102564
102758
102942
103115
103280
103438
103589
103735
103875
104006
104127
104249
104349
104444
104532
104610
104679
104747
104804
104862
104925
104978
105050
105116
105187
105270
105342
105430
105528
105625
105740
105865
105985
106118
106257
106380
106504
106637
106758
106877
106982
107074
107191
107280
107295
107386
107466
107474
107525
107598
107694
107761
107907
108161
108538
108888
109176
109480
109892
110354
110881
111667
112434
113281
114190
115091
115839
116538
117323
118001
118640
119225
119810
120621
120694
121059
121746
122133
122500
122687
122798
122720
122628
122646
122538
122272
122365
122294
122020
121832
121458
98067.6
98064.3
98059.6
98053.5
98047.7
98041.7
98035.3
98028.4
98020.8
98012.8
98004.6
97995.9
97986.9
97977.3
97967.5
97957.6
97947.6
97937.1
97925.9
97915
97903.4
97891.4
97879.1
97866.9
97855.3
97845.1
97836.3
97828.5
97821.9
97816.6
97812.6
97809.6
97807.5
97806
97804.6
97802.3
97798.4
97793.7
97790.2
97788.7
97788.5
97788.8
97788.8
97788.4
97787.5
97785.5
97782.2
97777.8
97773.5
97770.1
97767.6
97766.5
97766.9
97769.8
97775.6
97784.8
97797.9
97815.4
97837.6
97865.5
97899.9
97941.4
97990.3
98047.3
98113.3
98189.3
98275.2
98370.2
98473.8
98586.3
98707.7
98838
98977
99123.3
99276.4
99436.1
99602.6
99775.8
99955.1
100139
100327
100519
100714
100910
101105
101299
101489
101676
101859
102036
102206
102364
102513
102654
102786
102910
103029
103145
103252
103350
103439
103518
103587
103644
103694
103732
103766
103793
103821
103851
103875
103907
103939
103971
104015
104058
104109
104175
104243
104324
104414
104505
104604
104708
104803
104899
104994
105096
105185
105253
105328
105414
105458
105467
105528
105567
105584
105597
105630
105738
105797
105861
106100
106464
106781
107062
107330
107710
108128
108646
109358
110113
110929
111771
112578
113288
113974
114636
115204
115767
116160
116539
117354
117540
118151
118620
119109
119557
119778
119953
119857
119714
119775
119654
119387
119494
119480
119125
118865
118526
98587.8
98583.7
98578.7
98571.3
98563.5
98554.8
98544.9
98534.5
98523.2
98510.9
98497.5
98483.2
98468.1
98452.7
98436.8
98420.4
98403.5
98385.8
98367.4
98347.6
98327.5
98307.3
98287.3
98267.4
98248.1
98230
98213.3
98198.1
98184.3
98171.6
98160.2
98149.9
98140.4
98131.5
98122.4
98111.2
98097.1
98081.5
98068
98058.4
98051.6
98045.8
98039.3
98031.6
98022.4
98011.7
97999.9
97987
97973.7
97960.7
97948.1
97936.7
97926.7
97918.5
97912.7
97909.8
97910.3
97914.8
97923.7
97937.7
97957.2
97983.2
98016.2
98056.6
98104.8
98161.9
98228.6
98304.6
98389.4
98482.5
98584
98694
98811.3
98935.4
99065.6
99201.7
99344.5
99495
99651.3
99811.8
99976.2
100144
100316
100491
100665
100835
101004
101169
101329
101484
101631
101766
101891
102009
102119
102220
102316
102410
102493
102568
102631
102686
102730
102761
102782
102793
102800
102800
102801
102800
102798
102795
102792
102791
102799
102812
102834
102867
102907
102961
103018
103081
103148
103216
103282
103351
103414
103492
103553
103587
103649
103697
103696
103718
103736
103735
103772
103772
103747
103835
103897
103920
104088
104388
104696
104986
105207
105525
105920
106425
107020
107750
108516
109289
110019
110684
111348
111906
112395
112871
113146
113392
114012
114554
115046
115458
116087
116564
116837
116944
116880
116783
116873
116750
116564
116668
116671
116253
115919
115636
99068.6
99064.5
99059
99050.9
99041.1
99030.2
99017.4
99003.5
98988.5
98971.7
98953.1
98933.1
98912.1
98890.8
98869.4
98847.2
98823.7
98798.8
98772.4
98744.6
98715.8
98686.8
98658
98630
98603.1
98577.4
98553.3
98531
98510.3
98490.8
98472.3
98454.4
98437.3
98420.9
98404.6
98386.1
98363.9
98339.2
98317.3
98300.1
98285.7
98272.2
98257.7
98241.8
98224.2
98205.1
98184.6
98163.2
98141.2
98119
98096.9
98075.3
98054.9
98035.7
98018.5
98003.7
97991.9
97983.4
97978.8
97978.6
97983.7
97994.5
98011.3
98034.9
98065.8
98104.2
98151.4
98207.9
98273.6
98347.7
98429.2
98518.3
98614.3
98716.3
98823.8
98936.3
99055.1
99185.6
99319.6
99456.7
99597.9
99743.5
99893
100045
100198
100348
100496
100640
100779
100913
101038
101152
101255
101352
101442
101526
101604
101675
101737
101789
101832
101867
101887
101894
101892
101878
101861
101839
101813
101785
101752
101717
101684
101657
101633
101617
101611
101616
101628
101652
101680
101715
101753
101791
101831
101874
101910
101962
101996
102007
102044
102058
102026
102040
102023
101983
102004
101990
101940
101990
102055
102072
102155
102368
102644
102928
103140
103389
103757
104233
104701
105374
106096
106760
107418
108043
108671
109183
109623
110035
110294
110451
110834
111768
111768
112423
113084
113538
113915
113883
113954
113960
114045
113921
113846
113927
113900
113429
113016
112786
99497.9
99494.2
99488.5
99479.7
99468.4
99455.7
99440.9
99423.8
99405
99384.2
99361.2
99336.5
99310.2
99283.1
99255.7
99227.4
99197.3
99165.1
99130.9
99095
99057.8
99020.1
98982.7
98946.1
98910.8
98877.4
98845.9
98816.4
98789.5
98764.5
98740.1
98715.3
98690.3
98666.3
98643.4
98619.2
98591.2
98559.9
98531.3
98507.9
98484.1
98461.2
98437.9
98413.4
98387.4
98359.6
98330.5
98300.3
98269.4
98238.1
98206.9
98175.8
98145.2
98115.5
98087.4
98061.1
98037.2
98016
97998.2
97984.4
97974.9
97970.5
97971.8
97979.1
97992.6
98012.9
98041.1
98078.1
98124.4
98179.4
98242.3
98310.6
98385
98465.3
98551.1
98642.3
98739.9
98845.7
98957.5
99073.7
99193.3
99317.2
99445.2
99575.8
99707.4
99838
99966.8
100092
100212
100327
100432
100527
100612
100690
100764
100831
100892
100946
100991
101023
101048
101062
101064
101051
101028
100998
100960
100917
100867
100811
100750
100688
100629
100574
100522
100481
100450
100429
100415
100409
100409
100417
100426
100440
100459
100479
100493
100521
100528
100522
100528
100506
100467
100443
100388
100326
100314
100270
100201
100214
100271
100296
100332
100447
100659
100923
101155
101345
101668
102069
102456
103051
103698
104258
104837
105402
106014
106516
106927
107291
107568
107734
108080
108815
108914
109552
110125
110554
111027
111007
111237
111313
111325
111251
111255
111277
111171
110677
110200
109995
99864.7
99861.1
99855.7
99846.8
99834.8
99820.5
99803.8
99784.3
99762.5
99738.1
99711
99681.8
99651
99618.5
99584.9
99550.1
99513.3
99474.1
99432.4
99389
99344.2
99298.7
99253.4
99209
99166.4
99125.9
99087.3
99050.4
99017.7
98987.3
98957.8
98926.8
98894.5
98862.6
98832.4
98801
98766.6
98732.6
98698.8
98666.2
98633.9
98602.5
98570.9
98538.6
98504.8
98469.1
98431.8
98393.3
98354
98314.1
98273.8
98233.5
98193.2
98153.4
98114.7
98077.3
98041.6
98008.2
97977.7
97950.4
97927.2
97908.3
97894.1
97885.7
97882.9
97885.2
97895.9
97914.3
97941.7
97978.1
98021.9
98070.1
98123.9
98183.2
98248
98318.4
98395
98478.7
98569.4
98665
98764
98867.2
98975
99085.7
99198
99310.5
99421.3
99528.5
99631.6
99729.1
99818.1
99897.4
99966.3
100029
100087
100141
100189
100229
100259
100276
100284
100281
100266
100237
100199
100153
100097
100033
99961
99881.3
99797.1
99714
99630.5
99551.1
99475.9
99410.3
99354.5
99305.5
99266.9
99234.1
99209.6
99193.8
99179.4
99172.6
99172.3
99171.6
99169
99173.2
99156.2
99133.6
99107.7
99060.3
99005.4
98935
98849.3
98774.7
98731.3
98645.2
98548.5
98521.9
98562
98600.3
98605.9
98643.7
98790
99023.5
99260.1
99421
99670.9
99957.8
100305
100819
101339
101832
102370
102875
103476
103953
104315
104631
104933
105161
105494
105934
106199
106750
107193
107700
108182
108405
108681
108787
108690
108761
108793
108721
108513
108017
107504
107294
100160
100156
100151
100143
100131
100116
100097
100076
100051
100024
99993.7
99959.9
99923.9
99886.2
99846.7
99805.6
99762.7
99717.4
99669.7
99619.9
99568.7
99516.9
99465.1
99414.1
99364.9
99318.3
99273.5
99230.4
99190
99153.5
99118.3
99081.2
99041.9
99002.5
98964.2
98926
98886.9
98847.5
98807.8
98768.3
98729.4
98690.9
98652.1
98611.9
98570.2
98527.2
98482.6
98436.6
98389.6
98341.8
98293.2
98244.2
98195
98145.8
98096.9
98049
98002.2
97957.2
97914.2
97874.5
97837.7
97805.6
97776.6
97751.5
97734.9
97721.3
97713.9
97716
97725.7
97742.8
97767.3
97796.9
97831.5
97870.6
97915.3
97965.8
98022.5
98086.1
98157
98233.1
98312.9
98396.9
98485.7
98578
98672.6
98768.6
98863.2
98954.5
99042.5
99125.3
99199.9
99266.3
99323.6
99373.5
99418.5
99460.7
99498.1
99527.9
99545.6
99549.7
99543.7
99527.5
99498.6
99457.8
99409
99349
99275.8
99193.8
99102
99002.2
98899.2
98797.7
98693.8
98591.3
98493.9
98403.5
98321.9
98247.9
98186.4
98130.5
98085.2
98049.1
98017.9
97994.9
97976.8
97957.1
97939.5
97919.2
97881
97837.2
97781.6
97708.2
97633
97538.4
97417.2
97327.3
97244.7
97120.3
96996.4
96936.4
96951.4
96978.2
96955.3
96955.2
97051.9
97239.2
97447.2
97597.4
97761.5
97950.9
98277.6
98701.7
99096
99522.6
100017
100498
101073
101494
101792
102077
102390
102652
102946
103235
103469
103985
104302
104946
105375
105944
106126
106293
106110
106417
106429
106253
105947
105460
104944
104710
100340
100336
100333
100326
100315
100301
100282
100259
100233
100203
100170
100133
100093
100051
100007
99960.5
99912.5
99862.5
99810.2
99756
99700.6
99644.5
99588.3
99532.7
99478.7
99427.1
99378
99330.3
99284.7
99242
99200.8
99158
99113
99068
99024.1
98980.8
98937.2
98893.5
98849.6
98805.8
98762.2
98718.5
98674.2
98628.1
98580
98530.8
98480.3
98428.5
98375.2
98320.9
98265.8
98209.8
98153.3
98096.8
98040.2
97984
97928.5
97874.3
97821.7
97771.1
97723.3
97679.6
97638.8
97600.3
97571
97546.2
97525.1
97511.4
97506.2
97508
97516.6
97530.5
97548
97570.3
97598.2
97632
97672
97718.7
97773
97833.1
97897.3
97965.6
98038.4
98115.4
98195.5
98277.9
98359.3
98437.8
98513.7
98584.8
98649.1
98705.5
98754
98795.3
98831.5
98865.5
98894.6
98915.5
98923.5
98918.6
98903.8
98876.8
98837.4
98789.2
98729.7
98657.8
98571.6
98475.7
98370.2
98255.9
98138
98017.5
97892.9
97768.6
97650.9
97539.2
97436.1
97341.5
97259.7
97186.4
97123.6
97071.1
97026.6
96991.6
96957.7
96919.9
96881.2
96840.8
96784.1
96718.2
96634.3
96537
96436.8
96313.9
96176.5
96067.5
95940.8
95779.8
95646.9
95570.9
95532.7
95504.7
95457.6
95451.8
95521
95661.3
95813.3
95934.5
96023.8
96159.5
96470
96804.2
97093.8
97451.6
97865.4
98332.8
98862.6
99224.1
99457.9