/*--------------------------------*- C++ -*----------------------------------*\
| =========                 |                                                 |
| \\      /  F ield         | OpenFOAM: The Open Source CFD Toolbox           |
|  \\    /   O peration     | Version:  dev                                   |
|   \\  /    A nd           | Web:      http://www.openfoam.org               |
|    \\/     M anipulation  |                                                 |
\*---------------------------------------------------------------------------*/
FoamFile
{
    version     2.0;
    format      ascii;
    class       volScalarField;
    object      p_0;
    location    "9.151";
}
// * * * * * * * * * * * * * * * * * * * * * * * * * * * * * * * * * * * * * //

dimensions      [1 -1 -2 0 0 0 0];

internalField   nonuniform List<scalar> 
12225
(
103072
103066
103046
103019
102972
102912
102832
102740
102627
102503
102359
102204
102029
101845
101636
101419
101127
100677
103062
103059
103040
103012
102964
102904
102825
102732
102620
102496
102352
102197
102022
101838
101629
101410
101124
100838
103045
103043
103024
102996
102948
102888
102808
102716
102603
102479
102335
102180
102005
101821
101615
101392
101135
100872
103014
103015
102996
102967
102919
102859
102778
102686
102574
102449
102306
102151
101978
101793
101591
101369
101130
100875
102967
102971
102951
102922
102874
102813
102733
102640
102529
102404
102262
102106
101936
101751
101555
101338
101118
100875
102903
102905
102887
102857
102808
102747
102667
102573
102463
102338
102197
102042
101874
101692
101501
101292
101089
100874
102810
102814
102796
102765
102717
102655
102576
102481
102372
102246
102108
101953
101788
101609
101424
101225
101033
100838
102705
102711
102694
102661
102614
102550
102472
102376
102268
102142
102005
101852
101690
101515
101334
101144
100958
100775
102595
102599
102583
102549
102502
102437
102360
102264
102155
102030
101894
101743
101583
101412
101234
101052
100871
100695
102447
102452
102437
102401
102354
102288
102210
102115
102007
101883
101747
101599
101441
101274
101101
100925
100750
100580
102257
102258
102243
102206
102158
102092
102013
101918
101810
101687
101553
101407
101252
101090
100922
100752
100582
100417
102004
102004
101987
101950
101900
101834
101754
101660
101551
101431
101298
101156
101004
100846
100683
100519
100355
100195
101674
101673
101653
101615
101563
101497
101416
101323
101215
101096
100966
100827
100679
100526
100369
100210
100052
99896.6
101250
101245
101222
101183
101129
101063
100982
100888
100783
100665
100538
100402
100259
100111
99959.9
99807.2
99655
99504.4
100704
100698
100672
100632
100578
100510
100430
100338
100234
100119
99995.1
99863.5
99725.6
99583.2
99438
99291.4
99145.2
99000.2
100023
100014
99986.3
99945
99890.6
99823.6
99744.4
99653.5
99552
99440.7
99321
99194.3
99062.1
98926
98787.3
98647.3
98507.7
98369
99190.6
99181.3
99154.1
99113.3
99059.8
98994.1
98916.8
98828.6
98730.5
98623.5
98508.8
98387.9
98262.1
98132.8
98001.4
97868.9
97736.5
97604.8
98309.6
98287.3
98258.2
98218
98165.9
98102.3
98027.7
97942.9
97848.9
97746.7
97637.5
97522.7
97403.6
97281.4
97157.3
97032.2
96907.2
96782.8
97496.3
97479.8
97451.4
97412.1
97361.7
97300.3
97228.6
97147.3
97057.2
96959.6
96855.5
96746.3
96633.1
96517.2
96399.4
96280.8
96162.1
96043.9
96848.2
96824.6
96795.2
96756.5
96707.5
96648.1
96578.9
96500.5
96413.8
96319.9
96220
96115.4
96007
95896.1
95783.4
95669.9
95556.2
95443
96320.4
96303.7
96275.3
96237.2
96189.3
96131.6
96064.4
95988.4
95904.4
95813.6
95717
95616
95511.4
95404.3
95295.6
95186
95076.2
94966.8
95916.7
95901.1
95872.8
95835.3
95788.3
95731.7
95666
95591.9
95510.1
95421.6
95327.6
95229.2
95127.6
95023.5
94917.7
94811.1
94704.3
94597.9
95610.8
95595.5
95567.6
95530.6
95484.3
95428.7
95364.2
95291.3
95211.1
95124.4
95032.3
94936
94836.5
94734.6
94631
94526.7
94422.2
94318.1
95388.6
95369.1
95341.2
95304.6
95258.8
95203.9
95140.1
95068.2
94989.1
94903.8
94813.2
94718.5
94620.5
94520.2
94418.2
94315.5
94212.7
94110.2
95225.4
95205.3
95177.4
95141
95095.5
95041.1
94977.9
94906.7
94828.4
94744
94654.5
94560.9
94464.1
94364.9
94264.1
94162.6
94060.9
93959.6
95107.9
95090.3
95062.7
95026.3
94981.1
94926.9
94864.1
94793.4
94715.7
94631.9
94543.2
94450.3
94354.3
94255.9
94155.9
94055.2
93954.2
93853.7
95033.3
95013.8
94985.6
94949.2
94904.1
94850.1
94787.5
94717.1
94639.8
94556.6
94468.3
94375.9
94280.4
94182.5
94083.1
93982.8
93882.4
93782.5
94987.2
94966.3
94937.2
94900.7
94855.7
94801.7
94739.1
94668.9
94591.9
94509
94421
94329
94233.7
94136.2
94037.1
93937.1
93837.1
93737.5
94967.2
94940.5
94910.1
94873.5
94828.4
94774.5
94712
94641.9
94565
94482.3
94394.5
94302.7
94207.6
94110.2
94011.3
93911.5
93811.7
93712.3
94960.6
94930.6
94899.2
94862.2
94817.1
94763.1
94700.7
94630.6
94553.7
94471.2
94383.5
94291.7
94196.7
94099.4
94000.6
93900.9
93801.2
93701.9
92030.6
92034.7
92043.2
92056
92073.2
92094.9
92121.1
92151.9
92187.1
92226.9
92271.2
92319.9
92373
92430.4
92491.8
92557.2
92626.4
92699.4
92775.8
92855.6
92938.5
93024.3
93113
93204.2
93297.8
93393.5
93491.1
93590.4
93691.1
93792.8
93895.4
93998.7
94102.3
94206.2
94310
94413.5
94516.4
94618.5
94719.8
94820.2
94919.4
95017.4
95114.4
95210.3
95305.2
95399.1
95491.6
95583.5
95676.2
95770
95864.6
95960.3
96057.9
96158.8
96262.9
96370.6
96482.1
96598
96718.6
96845.3
96978.8
97120.1
97270.3
97430.5
97601.8
97784
97977.3
98182.9
98393.2
98610.1
98833.3
99064
99304.6
99557.9
99822
100093
100372
100663
100968
101283
101604
101929
102257
102588
102924
103267
103614
103964
104318
104673
105034
105398
105768
106142
106520
106903
107290
107679
108072
108466
108862
109256
109653
110038
110427
110813
111194
111570
111944
112313
112677
113037
113392
113743
114092
114438
114780
115119
115460
115806
116154
116506
116863
117231
117611
118008
118423
118859
119317
119798
120324
120851
121403
121987
122602
123227
123870
124517
125160
125806
126477
127194
127962
128783
129663
130617
131691
132817
134021
135183
136404
137591
138799
140092
141514
142998
144582
146175
147857
149575
151233
152794
154141
155192
155785
155894
155516
154968
154438
153763
153141
152570
152138
151784
151476
151583
151904
152126
151812
150911
92103.2
92107.2
92115.5
92128.1
92145
92166.3
92192.2
92222.5
92257.3
92296.6
92340.4
92388.6
92441.1
92497.9
92558.6
92623.3
92691.8
92764
92839.5
92918.4
93000.3
93085
93172.6
93262.7
93355.2
93449.9
93546.5
93644.7
93744.4
93845.1
93946.8
94049.1
94151.9
94254.9
94357.8
94460.3
94562.3
94663.4
94764
94863.5
94961.7
95058.7
95154.9
95249.7
95343.5
95436.6
95528.4
95619.5
95711.3
95804.1
95898.4
95993.3
96089.3
96188.1
96291.1
96397.5
96507.6
96622.5
96743
96868.7
97000.9
97140.6
97289
97447.1
97616
97795.8
97987.9
98193.4
98401.3
98616.2
98837.4
99066.6
99305.8
99557.6
99818.7
100091
100374
100665
100968
101280
101597
101921
102250
102581
102915
103257
103601
103949
104300
104654
105011
105373
105740
106111
106487
106866
107248
107634
108022
108412
108803
109190
109580
109963
110344
110721
111097
111466
111830
112193
112549
112901
113249
113591
113931
114270
114604
114934
115264
115600
115941
116287
116635
116993
117365
117752
118157
118581
119029
119504
120011
120530
121068
121631
122248
122861
123502
124145
124773
125402
126058
126761
127517
128318
129174
130106
131182
132302
133530
134648
135882
137050
138234
139507
140856
142359
143936
145486
147159
148833
150485
152068
153423
154468
155086
155149
154761
154208
153683
153046
152427
151850
151434
151105
150768
150922
151309
151571
151241
150341
92247
92250.9
92258.9
92270.9
92287.3
92308.1
92333.3
92362.9
92396.9
92435.3
92478.1
92525.6
92577.5
92633.3
92693.1
92756.6
92823.5
92893.7
92967.1
93043.6
93123.1
93205.5
93290.7
93378.7
93469.2
93561.9
93656.5
93752.9
93850.6
93949.4
94049.2
94149.6
94250.6
94351.7
94452.6
94553.2
94653.3
94752.7
94851.5
94949.1
95045.3
95140.9
95235.1
95327.6
95419.8
95511.7
95601.9
95692
95782.9
95873.4
95963.9
96056.5
96150.3
96246.4
96348.3
96453.7
96562.7
96674.6
96791.8
96915.1
97044.9
97182.2
97326.9
97480.7
97644.7
97818.4
98012.2
98209.9
98414.9
98626.9
98845.3
99070.8
99305.9
99553
99816
100092
100379
100672
100972
101281
101594
101911
102235
102564
102896
103233
103573
103916
104262
104611
104964
105321
105683
106048
106417
106789
107165
107542
107922
108303
108685
109059
109438
109811
110179
110542
110904
111260
111608
111956
112298
112634
112968
113294
113616
113939
114259
114575
114888
115202
115522
115850
116185
116528
116881
117251
117638
118038
118459
118911
119397
119897
120405
120936
121509
122104
122747
123391
124002
124605
125232
125912
126645
127391
128179
129061
130139
131250
132447
133586
134740
135875
137054
138282
139548
141026
142562
144067
145701
147334
148918
150497
151856
152890
153534
153519
153185
152719
152295
151595
150996
150556
150231
149839
149400
149399
149909
150235
149993
149103
92459.6
92463
92470.6
92482.3
92498.3
92518.5
92542.9
92571.6
92604.7
92642.4
92684.6
92731
92781.2
92835
92892.2
92952.6
93016.2
93083.1
93153.1
93226.4
93302.8
93382.3
93464.8
93550.1
93637.9
93727.9
93819.8
93913.2
94007.9
94103.6
94200.4
94297.8
94395.6
94493.5
94591.4
94689
94786.1
94882.9
94978.9
95073.9
95167.7
95260.5
95352
95442.4
95532.1
95620.7
95708.5
95796.3
95884.1
95972.2
96061.3
96150.9
96242.4
96336.3
96434
96534.4
96638.3
96748.3
96864.2
96984.7
97110.3
97243.6
97384.2
97533.6
97692.9
97862.7
98045.3
98238.2
98438.7
98645.7
98858.6
99079.1
99310.6
99555.7
99817.1
100093
100381
100676
100976
101278
101586
101896
102214
102537
102864
103194
103528
103864
104204
104546
104893
105242
105596
105953
106312
106675
107039
107406
107773
108140
108510
108866
109228
109586
109936
110279
110621
110958
111284
111612
111932
112245
112558
112863
113162
113463
113758
114049
114342
114637
114931
115226
115533
115856
116185
116525
116889
117267
117653
118062
118516
118995
119475
119956
120468
121021
121614
122275
122891
123477
124069
124727
125446
126120
126791
127586
128607
129713
130858
132035
133090
134133
135323
136500
137689
139120
140657
142126
143696
145276
146771
148215
149514
150530
151198
151112
150894
150537
150217
149670
149038
148696
148541
148219
147771
147489
147892
148283
148208
147349
92737.7
92740.6
92747.5
92758.8
92774.4
92794
92817.6
92845.2
92877.2
92913.9
92954.7
92998.5
93045.7
93096
93149.4
93206
93265.8
93328.9
93395.6
93465.5
93538.6
93614.9
93694
93775.7
93859.7
93945.7
94033.3
94122.3
94212.5
94303.8
94396
94488.9
94582.2
94675.8
94769.6
94863.3
94956.9
95049.9
95142.5
95234.2
95324.8
95414.4
95502.7
95590.1
95676.6
95761.9
95846.7
95931.1
96015.5
96099.8
96184.8
96270.9
96358.3
96448.5
96541.5
96638.4
96739.5
96846
96956.4
97072.2
97194.1
97323
97459.1
97603.7
97757.7
97921.7
98096.9
98282.6
98476
98675.3
98880.7
99094
99319.5
99561
99819.2
100093
100380
100671
100966
101265
101564
101870
102180
102496
102815
103137
103463
103792
104123
104457
104794
105134
105478
105823
106172
106521
106872
107223
107574
107924
108280
108609
108952
109289
109617
109935
110251
110563
110863
111164
111458
111740
112027
112306
112575
112851
113122
113381
113638
113907
114179
114444
114711
114999
115303
115608
115929
116280
116642
117005
117401
117842
118308
118757
119187
119667
120210
120828
121460
122026
122571
123192
123941
124574
125108
125762
126700
127790
128879
130081
131087
132019
133092
134237
135384
136734
138233
139679
141158
142681
144049
145339
146509
147468
148182
148047
147911
147524
147122
147009
146616
146216
146145
146010
145815
145320
145463
145846
145899
145155
93077.9
93080.3
93086.7
93097.4
93112.2
93130.7
93152.8
93179.4
93210.3
93245
93282.5
93322.5
93365.7
93411.8
93461.1
93513.8
93569.7
93629.1
93691.8
93757.7
93826.7
93898.5
93972.9
94049.6
94128.3
94208.8
94290.7
94373.9
94458.2
94543.6
94629.9
94717.2
94805
94893.3
94982
95071.1
95160.3
95249.3
95337.7
95425.5
95512.5
95598.6
95683.4
95766.9
95849.2
95930.7
96011.3
96091.4
96171.1
96250.9
96331.7
96413.6
96496.8
96582.4
96671.1
96763.3
96859.2
96959.4
97065.4
97176.6
97292.9
97416.3
97547.4
97687.5
97836.2
97993.6
98161.9
98339.6
98524.3
98714.7
98911.1
99116.4
99335.1
99570.2
99822.3
100092
100372
100656
100944
101235
101530
101828
102130
102437
102747
103060
103377
103696
104017
104341
104667
104996
105326
105659
105993
106328
106662
106995
107326
107654
107987
108303
108616
108925
109228
109517
109801
110085
110353
110620
110885
111134
111386
111635
111874
112114
112355
112590
112817
113047
113285
113521
113755
114000
114270
114542
114815
115121
115457
115786
116115
116480
116918
117366
117732
118126
118583
119155
119767
120329
120798
121348
122041
122728
123194
123700
124524
125549
126598
127783
128837
129742
130737
131834
132911
134077
135437
136806
138184
139577
140870
141977
142965
143867
144640
144681
144675
144327
143701
143669
143669
143460
143348
143402
143399
142867
142719
143040
142963
142469
93475.7
93477.7
93483.3
93492.9
93506.4
93523.1
93543.6
93568.5
93596.7
93627.2
93660.2
93696.3
93735.4
93777.5
93822.8
93871.2
93922.8
93977.7
94035.5
94096.4
94160
94226.1
94294.3
94364.6
94436.6
94510.2
94585
94661
94738.2
94816.6
94896.1
94976.6
95058.3
95141.1
95224.3
95307.7
95391.7
95475.8
95559.9
95643.6
95726.4
95808
95888.3
95967.2
96044.8
96121.4
96197.1
96272.3
96347.3
96422.5
96498.4
96575
96653.2
96733.4
96816.4
96902.8
96992.7
97086.8
97186.4
97291
97401.7
97519
97644.4
97778.1
97920.1
98072.4
98234.6
98403.8
98579
98760.1
98947.7
99143.2
99354.2
99581.3
99824.5
100085
100357
100630
100910
101193
101479
101768
102061
102358
102658
102961
103267
103575
103885
104197
104510
104825
105141
105458
105776
106093
106410
106723
107031
107334
107643
107936
108220
108498
108771
109032
109279
109529
109766
109994
110226
110442
110656
110864
111070
111277
111474
111678
111879
112072
112274
112477
112679
112888
113119
113351
113581
113838
114132
114432
114710
114996
115365
115793
116161
116507
116860
117321
117905
118483
118909
119363
119942
120614
121112
121560
122217
123141
124121
125189
126254
127198
128184
129260
130328
131322
132472
133704
134991
136181
137362
138279
139048
139937
140637
141083
141198
140948
140418
140211
140234
140321
140256
140395
140474
140080
139803
139961
139832
139399
93923.4
93924.7
93928.9
93936.7
93948.8
93964.2
93982.6
94004.5
94029
94055.3
94084.2
94116.3
94151
94188.5
94229.1
94272.5
94318.9
94368.1
94420.1
94474.5
94531.3
94590.2
94650.9
94713.4
94777.6
94843.3
94910.3
94978.5
95048
95118.9
95191
95264.6
95339.9
95417.5
95493
95570.8
95649.3
95728.1
95807
95885.5
95963.2
96039.7
96114.6
96187.7
96259.3
96330
96400
96469.8
96539.4
96608.9
96679
96749.9
96821.9
96895.8
96972.4
97052.1
97134.9
97222.2
97314.6
97412.2
97515.4
97625.2
97742.8
97869.4
98005.5
98151.2
98304.8
98465.2
98632
98805.8
98987.3
99168.4
99373.5
99592.1
99826
100073
100329
100593
100861
101134
101409
101688
101970
102255
102545
102836
103130
103426
103723
104021
104320
104620
104920
105219
105518
105816
106112
106405
106689
106970
107242
107515
107766
108012
108250
108479
108694
108906
109107
109300
109494
109671
109850
110021
110183
110354
110511
110673
110843
110994
111159
111335
111504
111679
111870
112065
112260
112467
112705
112966
113209
113452
113738
114079
114456
114836
115148
115460
115914
116465
116893
117326
117797
118311
118922
119411
119887
120648
121550
122446
123424
124386
125386
126464
127553
128458
129388
130477
131654
132623
133509
134369
134964
135751
136264
136912
137020
137033
136811
136653
136737
136881
136886
137046
137148
136932
136630
136631
136521
136141
94414.3
94414.9
94417.9
94424.3
94434.7
94447.9
94463.5
94481.5
94501.4
94523.4
94548.1
94575
94604.2
94636.4
94671.2
94708.9
94749.1
94791.6
94836.5
94883.3
94932.3
94983.3
95036.2
95090.7
95146.7
95204.2
95263
95323
95384.4
95447.1
95511.5
95577.5
95645
95712.5
95784.4
95856.5
95928.9
96001.5
96074.2
96146.5
96218.1
96288.3
96356.8
96423.3
96488.3
96552.3
96615.8
96679.1
96742.1
96805.3
96868.7
96932.8
96997.6
97064.1
97133.3
97205.5
97281.1
97361
97445.8
97535.3
97630
97730.9
97839.7
97957.1
98083.8
98221.1
98367.4
98519.6
98677.6
98842.7
99014.4
99194.3
99388.8
99596.8
99817.3
100050
100292
100541
100796
101056
101318
101584
101854
102128
102405
102684
102965
103247
103529
103812
104095
104378
104660
104941
105220
105496
105769
106039
106299
106556
106793
107040
107261
107473
107675
107869
108051
108225
108387
108543
108699
108835
108975
109112
109234
109367
109489
109606
109737
109855
109977
110114
110255
110398
110543
110702
110874
111033
111213
111426
111636
111855
112077
112320
112624
112987
113308
113573
113880
114269
114680
115131
115539
115915
116585
117139
117531
118104
118901
119662
120556
121465
122417
123455
124510
125393
126151
127117
128098
128901
129575
130377
130872
131316
131717
132312
132407
132707
132852
132854
133011
133239
133311
133458
133541
133503
133238
133138
133047
132713
94941.1
94941
94943.8
94949.6
94957
94966
94977.9
94991.5
95006.6
95023.6
95042.6
95063.8
95087.5
95114
95142.7
95173.8
95206.9
95241.9
95278.9
95317.8
95358.7
95401.4
95446
95492
95539.4
95587.9
95637.4
95688.3
95741
95795.5
95852
95910.6
95970.3
96032.2
96095.6
96159.8
96224.5
96289.5
96354.5
96419.1
96483
96545.7
96606.9
96666.4
96724.5
96781.7
96838
96893.9
96949.6
97005.3
97061.2
97117.5
97174.7
97233.5
97294.9
97359.1
97426.6
97498.2
97574.2
97655
97740.9
97832.9
97932.1
98039.2
98155.7
98286.5
98422.7
98563.9
98711.4
98866.7
99030.5
99203.8
99388.5
99584.4
99791.6
100009
100236
100470
100709
100954
101202
101455
101712
101973
102236
102501
102767
103034
103301
103568
103835
104100
104363
104623
104879
105132
105381
105626
105862
106089
106307
106515
106710
106890
107059
107217
107362
107500
107627
107740
107855
107957
108054
108156
108242
108330
108423
108502
108586
108678
108765
108855
108963
109071
109171
109292
109434
109549
109681
109842
110010
110190
110371
110551
110751
111004
111271
111548
111794
112025
112344
112772
113156
113536
114136
114661
115057
115526
116170
116813
117659
118489
119370
120343
121303
122059
122750
123605
124375
125014
125663
126367
126795
126804
127106
127766
128061
128441
128768
128928
129142
129403
129583
129720
129745
129884
129719
129559
129481
129142
95494.7
95493.8
95495
95498.5
95502.6
95507.7
95515.1
95524
95534.1
95546.1
95559.7
95575.5
95593.7
95613.9
95636
95659.8
95685.2
95712.1
95740.7
95770.9
95802.7
95836.2
95871.3
95907.7
95945.2
95984
96024.4
96066.6
96110.9
96157.4
96205.9
96256
96308.6
96362.3
96417.2
96472.5
96528.1
96583.9
96639.7
96695.2
96750.2
96804.5
96857.8
96909.9
96961.1
97011.1
97059.9
97107.9
97155.3
97202.8
97250.6
97298.8
97348.2
97399
97451.9
97507.5
97566.2
97628.6
97695.2
97766.5
97843
97925.4
98014.7
98111.5
98217
98333
98459.7
98590.7
98728.3
98874.2
99028.8
99192.6
99366.2
99549.7
99742.8
99944.9
100155
100373
100597
100826
101059
101297
101541
101787
102036
102285
102536
102787
103038
103289
103538
103784
104026
104262
104495
104724
104949
105170
105380
105577
105778
105950
106115
106266
106402
106527
106640
106739
106831
106908
106980
107053
107113
107174
107229
107272
107325
107373
107417
107475
107533
107585
107654
107725
107786
107864
107961
108039
108134
108244
108356
108493
108634
108749
108898
109079
109241
109443
109641
109831
110046
110373
110737
111185
111679
112088
112466
112899
113392
113925
114724
115479
116298
117186
118049
118680
119289
119999
120571
121025
121588
122118
122566
122434
122628
123302
123745
124282
124692
124992
125210
125450
125755
125899
125874
126161
126150
125964
125902
125597
96062.6
96060.9
96059.5
96059.1
96060
96062.4
96065.9
96070.2
96075.4
96082.1
96090.5
96100.4
96111.9
96124.8
96139.1
96154.8
96171.9
96190.6
96210.5
96231.6
96253.8
96277.4
96302.3
96328.4
96356.2
96385.7
96417.3
96451
96486.9
96524.9
96565
96606.7
96649.8
96694
96739
96784.3
96829.4
96874.7
96920.3
96966.3
97012.2
97057.7
97102.7
97147
97190.9
97233.5
97274.4
97313.9
97352.8
97391.7
97430.9
97470.5
97511.1
97553.3
97597.5
97644.2
97693.6
97746.4
97803
97864.2
97930.8
98003.2
98082
98167.9
98262.2
98366
98479.1
98598.9
98725.5
98860.5
99004.4
99157.1
99318.2
99488.3
99666.6
99853
100047
100248
100456
100669
100887
101112
101338
101569
101802
102036
102270
102505
102739
102972
103203
103428
103648
103862
104071
104276
104477
104673
104860
105030
105200
105349
105484
105606
105713
105804
105886
105950
106007
106054
106089
106128
106155
106177
106199
106209
106221
106236
106247
106267
106293
106313
106345
106380
106407
106444
106492
106538
106594
106653
106716
106810
106897
106943
107054
107183
107273
107383
107513
107693
107841
108041
108373
108831
109228
109548
109861
110244
110611
111100
111806
112508
113262
114034
114775
115359
115866
116395
116807
117165
117427
117670
118197
118116
118501
119036
119614
120247
120708
121123
121284
121479
121879
122058
122043
122438
122583
122408
122366
122180
96633.6
96630.9
96627.3
96624
96621.9
96620.7
96620.2
96620.2
96620.7
96622
96624.3
96627.6
96631.7
96636.5
96642.4
96649.5
96657.9
96667.4
96678
96689.5
96702.1
96715.8
96730.6
96746.7
96764.7
96784.8
96807.3
96832
96858.7
96887.3
96917.7
96949.7
96982.9
97017.2
97052.1
97086.7
97120.3
97153.5
97187.8
97223.9
97261.2
97298.8
97335.9
97372.3
97407.8
97441.8
97474.1
97504.9
97535
97565.1
97595.4
97626.2
97657.8
97690.8
97725.7
97762.9
97802.8
97845.9
97892.5
97943.2
97999.1
98061
98129.1
98203.6
98285.9
98376.8
98476.7
98584.5
98699.5
98822.5
98954.4
99094.5
99242.2
99397.8
99560.7
99730.8
99908.3
100093
100285
100481
100683
100891
101102
101317
101534
101752
101969
102186
102403
102617
102830
103033
103231
103424
103611
103791
103966
104141
104301
104451
104589
104714
104823
104915
104995
105055
105104
105138
105165
105183
105189
105192
105187
105173
105161
105141
105120
105104
105087
105075
105066
105056
105053
105053
105047
105047
105052
105068
105084
105093
105122
105165
105185
105194
105251
105305
105356
105404
105474
105625
105732
105826
106090
106478
106816
107100
107327
107624
107941
108372
108949
109602
110280
110940
111541
112051
112525
112880
113157
113371
113314
113323
113891
113861
114554
114955
115692
116358
116855
117272
117469
117607
118037
118275
118367
118821
119074
118932
118911
118877
97196.6
97193
97188.8
97183.3
97178.2
97173.1
97167.9
97163.2
97158.7
97154.2
97149.9
97145.7
97142.1
97139.2
97137
97135.6
97135
97134.9
97135.3
97136.5
97138.7
97142
97146.6
97152.7
97160.6
97170.7
97183
97197.6
97214.4
97232.9
97253.3
97275.3
97298.7
97323.1
97347.7
97371.1
97392.2
97412.2
97434.4
97460.5
97489.5
97519.5
97548.9
97577
97603.5
97628.4
97651.8
97673.9
97695.1
97716.3
97737.4
97759
97781.5
97805.1
97830.5
97857.9
97888
97921.1
97957.8
97998.3
98043.5
98094.2
98150.9
98213.8
98283.8
98361.7
98448.4
98543.3
98646.5
98757.2
98875.5
99001.7
99135.6
99276.1
99423.3
99577.1
99737.6
99907
100082
100262
100447
100637
100832
101031
101231
101432
101633
101833
102031
102227
102418
102602
102779
102950
103115
103274
103427
103576
103714
103841
103953
104053
104135
104201
104251
104283
104305
104313
104312
104303
104282
104253
104217
104172
104127
104080
104032
103987
103943
103906
103866
103828
103793
103757
103719
103688
103656
103641
103621
103585
103582
103577
103536
103522
103521
103508
103530
103530
103540
103641
103720
103755
103906
104184
104483
104742
104897
105093
105381
105743
106155
106743
107343
107886
108387
108830
109246
109510
109674
109774
109692
109495
109739
110329
110636
111054
111987
112647
113191
113463
113700
113904
114339
114635
114927
115387
115670
115564
115554
115627
97741.2
97737.1
97731.8
97724.5
97716.2
97707.1
97697.9
97688.4
97678.4
97667.7
97656.3
97644.4
97632.6
97621.6
97611.5
97601.9
97592.5
97582.9
97573.3
97563.6
97554.5
97546.6
97540.2
97535.6
97533.3
97531.9
97533.5
97537.8
97544.4
97553
97563
97574.3
97587
97601.1
97615.8
97628.8
97638.4
97646.3
97657.5
97674
97693.7
97714.4
97734.3
97752.9
97769.9
97785.5
97799.7
97812.9
97825.4
97837.5
97849.7
97862.1
97875.4
97889.7
97905.6
97923.5
97943.9
97967.1
97993.4
98023.5
98058.2
98098.1
98143.1
98194.2
98252
98317
98390.2
98471.8
98561.9
98661.3
98765.7
98877.3
98996.3
99121.6
99253.1
99390.8
99535.4
99687.4
99846
100010
100178
100351
100528
100710
100894
101078
101262
101444
101624
101801
101973
102137
102293
102443
102589
102728
102861
102987
103102
103205
103296
103373
103431
103471
103495
103502
103500
103485
103458
103422
103373
103314
103250
103181
103108
103034
102963
102893
102824
102760
102694
102629
102566
102500
102437
102377
102315
102271
102216
102148
102108
102057
101974
101928
101871
101803
101787
101747
101704
101743
101798
101807
101852
102003
102234
102460
102592
102686
102918
103218
103491
103992
104515
104912
105302
105657
106031
106324
106426
106497
106473
106222
106335
107198
107046
107707
108546
109145
109766
109903
110285
110596
110983
111259
111728
112155
112447
112325
112307
112462
98255.6
98251.4
98245.2
98236.3
98225.5
98214.2
98200.3
98185
98168.5
98152
98134
98114.9
98095.4
98075.9
98057.2
98039
98020.3
98000.6
97980.2
97959.6
97939
97919.1
97900.9
97883.6
97868.2
97856.9
97847.9
97841.6
97838.4
97837.7
97838.1
97838.9
97840.3
97843.6
97848.9
97853.5
97852.4
97850.6
97852.3
97860.6
97869
97877.8
97886.6
97894.8
97901.8
97907.5
97912.2
97916.2
97919.6
97922.7
97926
97929.5
97933.8
97939.1
97945.8
97954.2
97965
97978.5
97995
98015
98038.9
98067.7
98101.9
98141.4
98186.5
98239
98299.1
98367.4
98444.4
98530.4
98621.9
98719.3
98823.1
98933.2
99049.2
99171
99299.1
99434.3
99576.4
99723.6
99874.8
100030
100191
100355
100522
100689
100856
101021
101184
101343
101496
101641
101777
101908
102035
102156
102270
102375
102471
102551
102621
102675
102713
102730
102732
102721
102696
102660
102609
102546
102471
102387
102297
102205
102108
102012
101920
101827
101737
101646
101556
101467
101378
101290
101206
101123
101038
100967
100881
100788
100708
100614
100503
100413
100304
100198
100136
100050
99956
99937.5
99964.8
99963.5
99945.1
99965.4
100111
100296
100427
100431
100612
100793
101006
101399
101805
102104
102395
102645
103035
103339
103423
103517
103504
103401
103561
103985
104151
104807
105384
105939
106593
106811
107333
107734
107968
108268
108775
109120
109328
109227
109203
109395
98728.6
98724
98717.3
98706.9
98693.6
98678.5
98661.4
98642.2
98621.6
98597.9
98572.7
98546.6
98519.9
98492.5
98464.9
98436.7
98407.7
98377.1
98346.2
98314.5
98282.2
98250.9
98220.2
98191.6
98165.8
98143.1
98123
98105.4
98091.6
98082.1
98073.2
98063.6
98053.9
98045.7
98040
98033.4
98024.1
98016.4
98009.8
98005.2
98001.7
97999.3
97997.5
97995.7
97993
97989.2
97984.5
97979.2
97973.7
97968
97962.4
97957.2
97952.5
97948.9
97946.6
97945.8
97947.3
97951.3
97957.9
97967.7
97982.1
98000.5
98023.1
98051.9
98085.1
98124.3
98172.8
98227.7
98291.4
98364.1
98442.5
98526.3
98614.9
98710
98810.7
98916.9
99028.9
99147.7
99273.4
99404.1
99538.3
99676.9
99820.5
99967.7
100117
100268
100419
100567
100713
100855
100990
101117
101235
101348
101456
101560
101658
101747
101823
101884
101934
101968
101985
101983
101968
101940
101894
101837
101764
101678
101580
101478
101366
101253
101135
101019
100905
100790
100679
100566
100456
100348
100239
100133
100033
99930.5
99827.6
99732.4
99620.2
99503
99387.2
99255.3
99120.3
98982.2
98827
98695.9
98586
98450.2
98306.8
98234.5
98230.2
98220.2
98157.6
98096.5
98155.5
98288
98400.2
98412.2
98462.9
98508
98667.4
98967
99234.6
99490
99777.3
100006
100353
100598
100641
100703
100762
100801
100952
101062
101360
101939
102424
103034
103662
104150
104653
105057
105210
105602
106055
106272
106367
106281
106252
106467
99150.1
99144.8
99137.7
99126.5
99111.5
99093.3
99071.8
99047.7
99021.4
98992.8
98961.3
98927.6
98892.7
98856.9
98820.2
98783
98745
98706
98664.8
98622.7
98580.6
98538.1
98496.7
98457.1
98420.1
98386.5
98355.4
98326.6
98301.2
98280.4
98261.4
98241.4
98220.5
98200.6
98182.7
98165.4
98148.1
98131.6
98115.6
98100.4
98086.6
98074.1
98062.1
98049.9
98037.3
98024.3
98010.8
97996.8
97982.6
97968.4
97954.4
97940.9
97928
97915.7
97904.7
97895
97887.2
97882
97880
97879.7
97883.6
97894.6
97906.9
97921.4
97945.2
97973.6
98008.3
98051.2
98103.2
98161.7
98227.2
98298
98373.5
98452.9
98537.8
98628.5
98725
98827.9
98937.8
99052.4
99170.2
99292.1
99418.8
99549.4
99682.6
99817.6
99952
100084
100214
100339
100458
100570
100672
100768
100859
100947
101030
101103
101163
101207
101238
101255
101254
101237
101208
101163
101099
101022
100930
100824
100709
100590
100460
100326
100189
100052
99917.4
99782.6
99653.4
99523.5
99397.3
99275.2
99153.1
99035.2
98921.2
98802.9
98684.3
98566.5
98432.1
98291.4
98142.2
97978.7
97815.6
97638.3
97448.4
97292
97135.1
96948.7
96766.4
96654.1
96605.3
96557.5
96460
96379.7
96362.2
96428.1
96490.3
96516.8
96446.7
96411.1
96531.6
96715.3
96890.8
97090.9
97336.4
97588.3
97894.1
98060.6
98076.8
98110.1
98225.2
98313.2
98415.3
98555.1
98668.6
99217.1
99648.7
100366
100931
101661
102037
102432
102613
103168
103500
103585
103584
103488
103470
103687
99452.5
99446.9
99440
99428.9
99413.1
99393
99368.7
99340.6
99309.7
99276.5
99240
99200.4
99158.7
99115.6
99071.3
99026.1
98980.1
98933
98884.5
98834.9
98784.9
98734.8
98685.4
98637.3
98591.5
98548.8
98509
98471.4
98436.4
98405.1
98376.2
98346.7
98316.4
98287
98259.7
98233.7
98208.5
98184.1
98160.3
98137.5
98115.8
98095.2
98075.2
98054.7
98033.5
98012.5
97991.4
97970.2
97948.8
97927.4
97906.4
97885.8
97865.9
97847
97828.9
97812.2
97797.6
97784.9
97774.9
97767.1
97763.1
97764.4
97768.5
97774.6
97788.5
97808.8
97833.7
97865.5
97905.7
97953.1
98007.2
98066.2
98129.2
98195.8
98267.8
98345.5
98428.6
98517.6
98613.6
98714.4
98818.4
98926
99037.7
99153.5
99272.2
99393.3
99513.9
99631.8
99747.3
99858.8
99964.6
100063
100153
100235
100313
100388
100458
100517
100562
100593
100610
100611
100596
100568
100525
100466
100388
100296
100189
100069
99940
99802.1
99653.9
99500.3
99346.4
99192.3
99040.1
98889.8
98746.1
98604.9
98466.9
98334.6
98204.5
98077.8
97953.4
97822.6
97688.2
97548.3
97392.6
97230.2
97052.7
96862.3
96670.8
96461.4
96249.5
96064.9
95861
95629.3
95437.3
95298.1
95174.5
95047.8
94909
94837.5
94794.6
94803.2
94788.7
94772.6
94646.3
94582.1
94690
94797.5
94858.7
95004
95176.2
95407.3
95694.6
95818.5
95809.2
95845.9
95970.1
96056.1
96170.8
96240.7
96421.5