/*--------------------------------*- C++ -*----------------------------------*\
| =========                 |                                                 |
| \\      /  F ield         | OpenFOAM: The Open Source CFD Toolbox           |
|  \\    /   O peration     | Version:  dev                                   |
|   \\  /    A nd           | Web:      http://www.openfoam.org               |
|    \\/     M anipulation  |                                                 |
\*---------------------------------------------------------------------------*/
FoamFile
{
    version     2.0;
    format      ascii;
    class       surfaceScalarField;
    object      phi;
    location    "9.151";
}
// * * * * * * * * * * * * * * * * * * * * * * * * * * * * * * * * * * * * * //

dimensions      [1 0 -1 0 0 0 0];

internalField   nonuniform List<scalar> 
24170
(
2.1242e-06
1.48344e-06
1.30888e-06
7.78069e-07
1.00703e-06
3.00788e-07
9.98691e-07
3.40363e-08
1.06545e-06
-9.27175e-09
1.22813e-06
-8.13177e-08
1.38158e-06
-4.53501e-08
1.65057e-06
-1.42237e-07
1.89344e-06
-9.7446e-08
2.28214e-06
-2.328e-07
2.61579e-06
-1.67654e-07
3.08966e-06
-3.07107e-07
3.56646e-06
-3.07253e-07
4.31046e-06
-5.8521e-07
4.83806e-06
-3.72921e-07
6.45192e-06
-1.46157e-06
8.86411e-06
-2.31441e-06
-6.37618e-06
1.53077e-05
3.8305e-06
1.78227e-06
3.29246e-06
1.32546e-06
2.90753e-06
7.26684e-07
2.70269e-06
3.05845e-07
2.60108e-06
1.87505e-07
2.59424e-06
4.7833e-08
2.69409e-06
2.39968e-09
2.90773e-06
-1.87332e-07
3.11741e-06
-1.2088e-07
3.45718e-06
-3.75499e-07
3.79992e-06
-3.03696e-07
4.27926e-06
-5.80342e-07
4.84277e-06
-6.61608e-07
5.62658e-06
-1.17314e-06
6.35611e-06
-9.10824e-07
8.04127e-06
-2.9585e-06
9.29095e-06
-3.42674e-06
-9.23129e-06
1.22396e-05
4.5869e-06
1.60337e-06
4.57967e-06
1.34776e-06
4.47552e-06
8.77862e-07
4.4391e-06
4.17378e-07
4.3306e-06
4.02291e-07
4.41456e-06
1.00498e-07
4.41616e-06
1.6546e-07
4.68517e-06
-2.67357e-07
4.79628e-06
-2.35711e-08
5.29443e-06
-6.53196e-07
5.5031e-06
-2.81993e-07
6.34026e-06
-1.18415e-06
6.51213e-06
-6.02218e-07
7.67631e-06
-2.11443e-06
7.91833e-06
-9.46968e-07
9.32588e-06
-4.16828e-06
9.38392e-06
-3.309e-06
-1.25705e-05
1.28496e-05
4.96022e-06
1.6149e-06
5.45762e-06
8.673e-07
5.38119e-06
1.00619e-06
5.75523e-06
1.2521e-07
5.68717e-06
5.86791e-07
6.0566e-06
-1.18541e-07
5.99558e-06
4.06453e-07
6.53908e-06
-6.02811e-07
6.51849e-06
2.28483e-07
7.14048e-06
-1.02988e-06
7.24763e-06
-1.38263e-07
8.05739e-06
-1.73426e-06
8.22037e-06
-5.06362e-07
9.25662e-06
-2.89997e-06
9.83458e-06
-1.29767e-06
1.09487e-05
-5.07212e-06
1.1011e-05
-3.17173e-06
-1.31814e-05
1.18043e-05
5.10616e-06
1.76459e-06
6.14502e-06
-1.52293e-07
5.94703e-06
1.26106e-06
6.43634e-06
-2.74829e-07
6.41581e-06
7.35556e-07
6.94006e-06
-4.77168e-07
6.82541e-06
7.17226e-07
7.54996e-06
-1.10088e-06
7.58572e-06
4.47354e-07
8.21374e-06
-1.38729e-06
8.43673e-06
-8.62291e-08
9.16586e-06
-2.17971e-06
9.54146e-06
-5.95002e-07
1.02405e-05
-3.32037e-06
1.1099e-05
-1.89637e-06
1.15827e-05
-5.31965e-06
1.24159e-05
-3.79514e-06
-1.12322e-05
1.06632e-05
5.6173e-06
2.25472e-06
6.32883e-06
-8.44241e-07
6.16826e-06
1.48351e-06
6.61325e-06
-6.22426e-07
6.66513e-06
8.23962e-07
7.20316e-06
-8.34682e-07
7.19155e-06
9.42953e-07
7.90558e-06
-1.56518e-06
8.21544e-06
4.14698e-07
8.80121e-06
-1.68083e-06
9.27757e-06
-2.59166e-07
9.94328e-06
-2.53058e-06
1.05864e-05
-9.26941e-07
1.10609e-05
-3.48967e-06
1.19703e-05
-2.51505e-06
1.21981e-05
-5.27854e-06
1.31939e-05
-4.55251e-06
-8.88139e-06
1.10643e-05
6.30533e-06
2.31882e-06
6.83059e-06
-1.34848e-06
6.8456e-06
1.53619e-06
7.35367e-06
-1.02557e-06
7.36152e-06
9.67315e-07
7.83854e-06
-1.11639e-06
8.07708e-06
9.38119e-07
8.43321e-06
-1.64718e-06
8.94168e-06
2.07469e-07
9.48843e-06
-1.90905e-06
1.01526e-05
-5.86477e-07
1.06666e-05
-2.698e-06
1.15523e-05
-1.47403e-06
1.20083e-05
-3.61606e-06
1.28659e-05
-3.04965e-06
1.30289e-05
-5.13762e-06
1.37403e-05
-4.98616e-06
-7.30232e-06
1.24144e-05
5.05671e-06
2.28388e-06
5.31623e-06
-1.59371e-06
5.38222e-06
1.52099e-06
5.68983e-06
-1.25351e-06
5.75945e-06
1.01387e-06
6.02652e-06
-1.23388e-06
6.38672e-06
7.57126e-07
6.56108e-06
-1.61089e-06
7.01837e-06
-1.63225e-08
7.33009e-06
-1.97223e-06
7.90075e-06
-8.95542e-07
8.18989e-06
-2.72077e-06
8.86274e-06
-1.88218e-06
9.2081e-06
-3.70236e-06
9.78279e-06
-3.37319e-06
9.86502e-06
-4.98158e-06
1.02112e-05
-5.10902e-06
-6.47989e-06
9.59548e-06
5.92753e-06
2.36163e-06
6.12146e-06
-1.77351e-06
6.25081e-06
1.44897e-06
6.37187e-06
-1.28321e-06
6.64697e-06
8.7064e-07
6.88085e-06
-1.29729e-06
7.44548e-06
3.98735e-07
7.5917e-06
-1.51654e-06
8.19395e-06
-3.48538e-07
8.45762e-06
-1.94796e-06
9.12826e-06
-1.2645e-06
9.40899e-06
-2.69263e-06
1.00568e-05
-2.22233e-06
1.036e-05
-3.70078e-06
1.09262e-05
-3.64209e-06
1.1066e-05
-4.84123e-06
1.1355e-05
-5.1358e-06
-5.94702e-06
1.10698e-05
7.01896e-06
2.55024e-06
6.90824e-06
-1.65007e-06
7.25608e-06
1.16479e-06
7.33223e-06
-1.25773e-06
7.81494e-06
5.35548e-07
7.92154e-06
-1.20954e-06
8.57658e-06
-1.73918e-08
8.75099e-06
-1.4139e-06
9.45736e-06
-7.4734e-07
9.75417e-06
-1.91443e-06
1.05097e-05
-1.67218e-06
1.08272e-05
-2.65301e-06
1.15287e-05
-2.56364e-06
1.17994e-05
-3.61661e-06
1.23642e-05
-3.86215e-06
1.25233e-05
-4.66676e-06
1.28397e-05
-5.13607e-06
-5.62418e-06
1.28092e-05
8.17874e-06
2.5136e-06
7.96974e-06
-1.42949e-06
8.45606e-06
7.46984e-07
8.38729e-06
-1.07716e-06
8.97042e-06
1.21658e-07
9.08928e-06
-1.11121e-06
9.82381e-06
-4.85146e-07
1.01003e-05
-1.37071e-06
1.08706e-05
-1.16628e-06
1.12115e-05
-1.87904e-06
1.1959e-05
-2.01943e-06
1.23426e-05
-2.62601e-06
1.30511e-05
-2.85409e-06
1.33623e-05
-3.51198e-06
1.38523e-05
-3.94933e-06
1.4061e-05
-4.48647e-06
1.42872e-05
-4.98799e-06
-5.36563e-06
1.43812e-05
9.53551e-06
2.26249e-06
9.29513e-06
-1.18198e-06
9.86064e-06
2.5123e-07
9.8143e-06
-9.09116e-07
1.04829e-05
-3.64757e-07
1.06603e-05
-1.0434e-06
1.13565e-05
-8.76659e-07
1.16419e-05
-1.30174e-06
1.22813e-05
-1.40361e-06
1.26894e-05
-1.85449e-06
1.3296e-05
-2.16893e-06
1.37762e-05
-2.62905e-06
1.43964e-05
-2.99719e-06
1.48415e-05
-3.48242e-06
1.52954e-05
-3.92819e-06
1.56254e-05
-4.35742e-06
1.58376e-05
-4.763e-06
-5.09784e-06
1.59895e-05
1.08842e-05
2.10162e-06
1.07297e-05
-1.02656e-06
1.1338e-05
-2.88762e-07
1.13636e-05
-8.08181e-07
1.19029e-05
-7.06981e-07
1.21045e-05
-9.76124e-07
1.26402e-05
-1.07327e-06
1.3054e-05
-1.31611e-06
1.36611e-05
-1.56324e-06
1.42353e-05
-1.93624e-06
1.48683e-05
-2.28067e-06
1.54584e-05
-2.68114e-06
1.60746e-05
-3.0616e-06
1.65928e-05
-3.44869e-06
1.7032e-05
-3.82328e-06
1.73861e-05
-4.1785e-06
1.76256e-05
-4.48378e-06
-4.74556e-06
1.77683e-05
1.26784e-05
2.09935e-06
1.27303e-05
-1.0891e-06
1.32358e-05
-7.34391e-07
1.33577e-05
-8.03429e-07
1.3735e-05
-8.7774e-07
1.40694e-05
-1.01982e-06
1.4576e-05
-1.21132e-06
1.51134e-05
-1.41369e-06
1.57084e-05
-1.65627e-06
1.63013e-05
-1.98002e-06
1.69133e-05
-2.30434e-06
1.74832e-05
-2.63805e-06
1.80214e-05
-2.97366e-06
1.85156e-05
-3.30884e-06
1.89586e-05
-3.63569e-06
1.93169e-05
-3.91691e-06
1.95975e-05
-4.16418e-06
-4.37771e-06
1.98092e-05
1.44601e-05
1.84474e-06
1.46036e-05
-1.2599e-06
1.49624e-05
-1.04952e-06
1.52231e-05
-9.45847e-07
1.55733e-05
-1.01934e-06
1.5997e-05
-1.13864e-06
1.65012e-05
-1.3193e-06
1.70837e-05
-1.51658e-06
1.77103e-05
-1.73136e-06
1.83293e-05
-1.98875e-06
1.89177e-05
-2.2368e-06
1.94863e-05
-2.51725e-06
2.00241e-05
-2.80124e-06
2.05168e-05
-3.08176e-06
2.09513e-05
-3.35006e-06
2.13526e-05
-3.60779e-06
2.17219e-05
-3.83767e-06
-4.00288e-06
2.20231e-05
1.74781e-05
1.94246e-06
1.72593e-05
-1.11253e-06
1.72398e-05
-1.02017e-06
1.73492e-05
-9.59433e-07
1.7545e-05
-1.01504e-06
1.78641e-05
-1.14753e-06
1.83126e-05
-1.35093e-06
1.88967e-05
-1.58521e-06
1.95669e-05
-1.8018e-06
2.02751e-05
-2.02633e-06
2.10074e-05
-2.24102e-06
2.17063e-05
-2.44733e-06
2.2365e-05
-2.66367e-06
2.29914e-05
-2.89641e-06
2.35736e-05
-3.11599e-06
2.40944e-05
-3.31619e-06
2.45199e-05
-3.46388e-06
-3.60515e-06
2.49024e-05
2.00586e-05
1.84612e-06
1.99699e-05
-1.17174e-06
1.99908e-05
-1.08588e-06
2.01004e-05
-1.01003e-06
2.02886e-05
-1.02257e-06
2.05818e-05
-1.13237e-06
2.09916e-05
-1.32925e-06
2.14988e-05
-1.54818e-06
2.20941e-05
-1.75063e-06
2.27532e-05
-1.9522e-06
2.34453e-05
-2.13375e-06
2.41586e-05
-2.31096e-06
2.48696e-05
-2.48878e-06
2.5546e-05
-2.66329e-06
2.61846e-05
-2.83304e-06
2.67643e-05
-2.97453e-06
2.73074e-05
-3.09636e-06
-3.17902e-06
2.77742e-05
1.99519e-05
1.94441e-06
1.96368e-05
-1.03951e-06
1.95477e-05
-1.08539e-06
1.96197e-05
-1.06658e-06
1.98586e-05
-1.12193e-06
2.0246e-05
-1.25124e-06
2.07333e-05
-1.42692e-06
2.12611e-05
-1.57384e-06
2.18173e-05
-1.69815e-06
2.23963e-05
-1.83597e-06
2.29767e-05
-1.95458e-06
2.35415e-05
-2.06327e-06
2.41012e-05
-2.19496e-06
2.46519e-05
-2.33011e-06
2.51834e-05
-2.46421e-06
2.56918e-05
-2.57886e-06
2.6171e-05
-2.67923e-06
-2.74274e-06
2.66145e-05
1.78883e-05
1.72232e-06
1.77162e-05
-1.05119e-06
1.76131e-05
-1.08035e-06
1.76524e-05
-1.11287e-06
1.78126e-05
-1.18043e-06
1.80441e-05
-1.26749e-06
1.83096e-05
-1.3731e-06
1.86009e-05
-1.44852e-06
1.89453e-05
-1.52884e-06
1.93521e-05
-1.65112e-06
1.98112e-05
-1.76631e-06
2.03047e-05
-1.86263e-06
2.08173e-05
-1.97632e-06
2.13232e-05
-2.07358e-06
2.18074e-05
-2.16788e-06
2.22626e-05
-2.24672e-06
2.26677e-05
-2.30211e-06
-2.32342e-06
2.30157e-05
1.59886e-05
1.5337e-06
1.58212e-05
-1.04381e-06
1.56918e-05
-1.04344e-06
1.56519e-05
-1.08703e-06
1.57097e-05
-1.15777e-06
1.58299e-05
-1.20721e-06
1.59886e-05
-1.2615e-06
1.61895e-05
-1.29478e-06
1.64637e-05
-1.35987e-06
1.68051e-05
-1.48064e-06
1.71998e-05
-1.60132e-06
1.76578e-05
-1.71909e-06
1.8136e-05
-1.82058e-06
1.86168e-05
-1.8907e-06
1.9073e-05
-1.94278e-06
1.94786e-05
-1.96312e-06
1.9871e-05
-2.00683e-06
-2.01775e-06
2.02406e-05
1.3997e-05
8.22213e-07
1.39422e-05
-1.12643e-06
1.38348e-05
-1.01507e-06
1.37832e-05
-1.04694e-06
1.38356e-05
-1.14141e-06
1.39644e-05
-1.1815e-06
1.41461e-05
-1.21073e-06
1.4374e-05
-1.2147e-06
1.46598e-05
-1.25881e-06
1.49595e-05
-1.33459e-06
1.52725e-05
-1.4235e-06
1.56061e-05
-1.52271e-06
1.59528e-05
-1.6112e-06
1.62956e-05
-1.65151e-06
1.66602e-05
-1.71053e-06
1.70364e-05
-1.73456e-06
1.74147e-05
-1.77846e-06
-1.79578e-06
1.779e-05
1.26035e-05
7.45466e-07
1.24248e-05
-1.0674e-06
1.23465e-05
-1.00365e-06
1.23716e-05
-1.07954e-06
1.24694e-05
-1.17799e-06
1.25976e-05
-1.17395e-06
1.27267e-05
-1.13335e-06
1.2886e-05
-1.10223e-06
1.30882e-05
-1.12455e-06
1.33135e-05
-1.17032e-06
1.35672e-05
-1.24335e-06
1.38322e-05
-1.31848e-06
1.41072e-05
-1.39323e-06
1.44074e-05
-1.43742e-06
1.47333e-05
-1.51019e-06
1.50771e-05
-1.54523e-06
1.54131e-05
-1.57956e-06
-1.5888e-06
1.5736e-05
1.11482e-05
5.15015e-07
1.11026e-05
-1.12576e-06
1.11511e-05
-1.11012e-06
1.11779e-05
-1.11218e-06
1.11693e-05
-1.11344e-06
1.1187e-05
-1.06932e-06
1.12703e-05
-1.02999e-06
1.14267e-05
-1.01735e-06
1.16371e-05
-1.04101e-06
1.19108e-05
-1.10101e-06
1.2213e-05
-1.16349e-06
1.25184e-05
-1.20938e-06
1.28306e-05
-1.26698e-06
1.3142e-05
-1.29389e-06
1.34121e-05
-1.31471e-06
1.36699e-05
-1.33119e-06
1.39139e-05
-1.35029e-06
-1.36175e-06
1.41569e-05
9.96612e-06
3.14636e-07
9.88129e-06
-1.13294e-06
9.84138e-06
-1.11957e-06
9.8187e-06
-1.09148e-06
9.8092e-06
-1.05143e-06
9.8471e-06
-9.98431e-07
9.94127e-06
-9.59131e-07
1.01003e-05
-9.59227e-07
1.03107e-05
-9.87973e-07
1.05696e-05
-1.05639e-06
1.08688e-05
-1.12518e-06
1.11895e-05
-1.16451e-06
1.15033e-05
-1.19336e-06
1.17971e-05
-1.18424e-06
1.207e-05
-1.17395e-06
1.23134e-05
-1.15592e-06
1.25348e-05
-1.15283e-06
-1.14552e-06
1.27348e-05
8.99163e-06
1.96568e-08
8.98056e-06
-1.20489e-06
9.01478e-06
-1.19653e-06
9.05524e-06
-1.13218e-06
9.10644e-06
-1.05455e-06
9.15805e-06
-9.5197e-07
9.20632e-06
-8.60221e-07
9.27407e-06
-8.33346e-07
9.39363e-06
-8.72067e-07
9.54083e-06
-9.32207e-07
9.70202e-06
-9.84482e-07
9.8725e-06
-1.00839e-06
1.00456e-05
-1.02081e-06
1.02303e-05
-1.00981e-06
1.04282e-05
-1.00432e-06
1.06346e-05
-9.9042e-07
1.08379e-05
-9.83531e-07
-9.73074e-07
1.10352e-05
7.94825e-06
-2.66882e-07
8.02335e-06
-1.35478e-06
8.09223e-06
-1.30179e-06
8.16065e-06
-1.19991e-06
8.24637e-06
-1.09723e-06
8.34077e-06
-9.58754e-07
8.43296e-06
-8.21267e-07
8.52751e-06
-7.56244e-07
8.62172e-06
-7.57519e-07
8.72251e-06
-7.91443e-07
8.82372e-06
-8.167e-07
8.92741e-06
-8.20955e-07
9.03516e-06
-8.20779e-07
9.1478e-06
-8.02615e-07
9.27599e-06
-8.04887e-07
9.41176e-06
-7.94791e-07
9.55682e-06
-7.96763e-07
-8.01845e-07
9.71477e-06
7.2771e-06
-5.30601e-07
7.38097e-06
-1.52458e-06
7.40669e-06
-1.35874e-06
7.38678e-06
-1.17763e-06
7.35426e-06
-1.02468e-06
7.33517e-06
-8.60844e-07
7.34678e-06
-7.16111e-07
7.37469e-06
-6.31318e-07
7.40807e-06
-6.05164e-07
7.44151e-06
-6.10294e-07
7.47406e-06
-6.10432e-07
7.51928e-06
-6.07852e-07
7.57691e-06
-6.05091e-07
7.63986e-06
-5.81439e-07
7.71858e-06
-5.92533e-07
7.79603e-06
-5.77622e-07
7.88095e-06
-5.86498e-07
-5.78575e-07
7.95091e-06
6.50008e-06
-9.63528e-07
6.58841e-06
-1.67022e-06
6.45701e-06
-1.254e-06
6.22551e-06
-9.43077e-07
5.97686e-06
-7.39739e-07
5.76938e-06
-5.82601e-07
5.62958e-06
-4.71891e-07
5.52631e-06
-3.91797e-07
5.44993e-06
-3.63418e-07
5.37932e-06
-3.48698e-07
5.32241e-06
-3.40924e-07
5.27876e-06
-3.34076e-07
5.2492e-06
-3.31907e-07
5.25399e-06
-3.32766e-07
5.2541e-06
-3.32838e-07
5.27907e-06
-3.39455e-07
5.29545e-06
-3.39116e-07
-3.39974e-07
5.31897e-06
5.64693e-06
-1.19855e-06
5.17331e-06
-1.24779e-06
4.61871e-06
-7.23456e-07
4.1135e-06
-4.35255e-07
3.67925e-06
-2.7332e-07
3.34113e-06
-1.81663e-07
3.09141e-06
-1.2931e-07
2.9311e-06
-1.10281e-07
2.83309e-06
-1.18274e-07
2.75037e-06
-9.60542e-08
2.71522e-06
-1.16406e-07
2.69698e-06
-1.10689e-07
2.69983e-06
-1.17463e-07
2.71391e-06
-1.20784e-07
2.73748e-06
-1.2486e-07
2.75955e-06
-1.27237e-07
2.78637e-06
-1.31544e-07
-1.44834e-07
2.82395e-06
3.64707e-06
2.36592e-06
1.62889e-06
1.2022e-06
9.62946e-07
8.42195e-07
8.00427e-07
8.02871e-07
8.20281e-07
8.80069e-07
9.36562e-07
1.01253e-06
1.09215e-06
1.17593e-06
1.26028e-06
1.34448e-06
1.42439e-06
1.4896e-06
-5.61743e-07
-2.99563e-07
-1.20148e-06
-2.41528e-07
-1.81187e-06
-2.67414e-07
-2.37586e-06
-3.17555e-07
-2.89749e-06
-3.61458e-07
-3.39446e-06
-3.85978e-07
-3.8766e-06
-3.99224e-07
-4.33867e-06
-4.15984e-07
-4.77927e-06
-4.34595e-07
-5.19945e-06
-4.5118e-07
-5.60505e-06
-4.6099e-07
-6.01186e-06
-4.53633e-07
-6.42563e-06
-4.38398e-07
-6.84114e-06
-4.27949e-07
-7.24984e-06
-4.25505e-07
-7.64202e-06
-4.32608e-07
-8.02333e-06
-4.32288e-07
-8.39589e-06
-4.27425e-07
-8.772e-06
-4.07429e-07
-9.1548e-06
-3.82317e-07
-9.53612e-06
-3.64849e-07
-9.90756e-06
-3.55364e-07
-1.02608e-05
-3.52683e-07
-1.06048e-05
-3.39834e-07
-1.094e-05
-3.25599e-07
-1.12644e-05
-3.11988e-07
-1.15647e-05
-3.09588e-07
-1.18348e-05
-3.11156e-07
-1.20718e-05
-3.15327e-07
-1.22812e-05
-3.15838e-07
-1.24651e-05
-3.18487e-07
-1.26101e-05
-3.36725e-07
-1.27025e-05
-3.61966e-07
-1.27329e-05
-3.89297e-07
-1.26971e-05
-4.21163e-07
-1.2622e-05
-4.28727e-07
-1.25047e-05
-4.41337e-07
-1.23188e-05
-4.80623e-07
-1.2116e-05
-4.66323e-07
-1.18909e-05
-4.58555e-07
-1.16262e-05
-4.67148e-07
-1.14181e-05
-3.81406e-07
-1.12205e-05
-3.37491e-07
-1.10702e-05
-2.56221e-07
-1.10337e-05
-1.0673e-07
-1.11142e-05
6.26557e-08
-1.13531e-05
2.18117e-07
-1.1542e-05
1.21716e-07
-1.14906e-05
-1.05344e-07
-1.12293e-05
-2.71848e-07
-1.08708e-05
-3.41285e-07
-1.06385e-05
-1.96263e-07
-1.04624e-05
-1.30312e-07
-1.00615e-05
-3.39384e-07
-9.41333e-06
-5.73353e-07
-8.8776e-06
-4.62457e-07
-8.45839e-06
-3.54294e-07
-8.19043e-06
-2.05771e-07
-8.01419e-06
-1.11949e-07
-8.0153e-06
5.67565e-08
-8.11549e-06
1.42105e-07
-8.242e-06
1.62804e-07
-8.32935e-06
1.12869e-07
-8.1247e-06
-1.89102e-07
-7.57522e-06
-5.38932e-07
-6.62202e-06
-9.54914e-07
-5.24382e-06
-1.40156e-06
-3.50967e-06
-1.78403e-06
-1.50567e-06
-2.08451e-06
6.60674e-07
-2.27775e-06
2.55662e-06
-2.04314e-06
3.64935e-06
-1.27645e-06
3.81558e-06
-3.86966e-07
3.00235e-06
5.42776e-07
1.07411e-06
1.61974e-06
-1.06945e-06
1.80346e-06
-2.50857e-06
1.0425e-06
-3.11564e-06
1.58446e-07
-2.60909e-06
-1.00644e-06
-1.26136e-06
-1.89631e-06
1.07655e-07
-1.96813e-06
1.06259e-06
-1.6022e-06
1.52119e-06
-1.15973e-06
1.26648e-06
-4.96371e-07
1.34089e-07
3.58459e-07
-1.70596e-06
1.0407e-06
-3.76642e-06
1.21172e-06
-5.70207e-06
1.05089e-06
-7.43745e-06
8.2038e-07
-8.88934e-06
5.11742e-07
-1.00649e-05
2.18808e-07
-1.10184e-05
-1.07867e-08
-1.17945e-05
-1.86795e-07
-1.23739e-05
-3.74265e-07
-1.27026e-05
-6.11311e-07
-1.26874e-05
-9.39337e-07
-1.22804e-05
-1.31132e-06
-1.16439e-05
-1.51489e-06
-1.09527e-05
-1.53501e-06
-1.02862e-05
-1.4676e-06
-9.44894e-06
-1.59444e-06
-8.41738e-06
-1.75125e-06
-6.76207e-06
-2.33628e-06
-5.71451e-06
-1.70211e-06
-4.48529e-06
-1.83947e-06
-2.83249e-06
-2.24783e-06
-1.64111e-06
-1.76651e-06
-4.53894e-07
-1.7408e-06
1.01837e-06
-2.02118e-06
2.33607e-06
-1.87813e-06
3.32821e-06
-1.56049e-06
4.42068e-06
-1.67284e-06
5.34599e-06
-1.53075e-06
6.24848e-06
-1.52858e-06
7.07162e-06
-1.48314e-06
7.59062e-06
-1.23529e-06
7.63932e-06
-8.13455e-07
7.67956e-06
-8.30645e-07
7.85181e-06
-9.93254e-07
7.69594e-06
-7.33187e-07
6.99663e-06
-2.43133e-07
6.07764e-06
-3.64564e-08
5.06425e-06
6.95521e-08
4.03779e-06
1.09849e-07
2.81138e-06
3.57155e-07
1.33699e-06
6.82671e-07
-3.52157e-07
1.0123e-06
-2.21267e-06
1.3444e-06
-4.19793e-06
1.6664e-06
-6.19816e-06
1.93654e-06
-8.31597e-06
2.41199e-06
-1.03801e-05
2.73415e-06
-1.22958e-05
3.02036e-06
-1.43575e-05
3.70612e-06
-1.60871e-05
3.95159e-06
-1.75425e-05
4.27137e-06
-1.86393e-05
4.53748e-06
-1.95606e-05
5.04326e-06
-2.05756e-05
5.90082e-06
-2.15947e-05
6.66281e-06
-2.29795e-05
7.81512e-06
-2.34633e-05
7.78625e-06
-2.30743e-05
7.81128e-06
-2.19613e-05
8.06664e-06
-2.03631e-05
8.50879e-06
-1.92411e-05
9.83126e-06
-1.87138e-05
1.12561e-05
-1.86252e-05
1.24483e-05
-1.75698e-05
1.2256e-05
-1.74963e-05
1.39669e-05
-1.51373e-05
1.256e-05
-1.4267e-05
1.46967e-05
-1.41055e-05
1.62795e-05
-1.24524e-05
1.53887e-05
-1.07027e-05
1.63788e-05
-1.05867e-05
1.87562e-05
-9.40907e-06
1.8644e-05
-6.99598e-06
1.78826e-05
-5.1617e-06
1.9035e-05
-2.56083e-06
1.95199e-05
-1.86621e-06
2.25151e-05
-2.55376e-06
2.46071e-05
-2.55274e-06
2.47252e-05
-1.10179e-06
2.40949e-05
-1.2442e-06
2.63388e-05
-1.94011e-06
2.83695e-05
-3.67955e-06
2.91771e-05
-3.30521e-06
2.69652e-05
2.13147e-06
2.14121e-05
4.11149e-06
2.52017e-05
6.90519e-06
2.36988e-05
9.92798e-06
2.22998e-05
1.24628e-05
2.20147e-05
1.52194e-05
2.12911e-05
1.75442e-05
2.08321e-05
1.82301e-05
2.16157e-05
1.8589e-05
2.10965e-05
2.18491e-05
1.80396e-05
2.52758e-05
1.58709e-05
1.36945e-05
2.78348e-05
-6.28721e-07
-5.33647e-07
-1.30699e-06
-4.45879e-07
-1.91501e-06
-5.34999e-07
-2.45408e-06
-6.58985e-07
-2.95327e-06
-7.48018e-07
-3.44455e-06
-7.81731e-07
-3.93625e-06
-7.92121e-07
-4.4083e-06
-8.28339e-07
-4.84644e-06
-8.80685e-07
-5.26247e-06
-9.20988e-07
-5.66902e-06
-9.39415e-07
-6.06838e-06
-9.33108e-07
-6.47415e-06
-9.03042e-07
-6.89718e-06
-8.69576e-07
-7.33122e-06
-8.51757e-07
-7.77967e-06
-8.37012e-07
-8.24477e-06
-8.07302e-07
-8.71275e-06
-7.8189e-07
-9.16909e-06
-7.50377e-07
-9.60662e-06
-7.1983e-07
-1.00286e-05
-6.95915e-07
-1.04388e-05
-6.77746e-07
-1.08468e-05
-6.57974e-07
-1.12472e-05
-6.3357e-07
-1.16256e-05
-6.20308e-07
-1.19852e-05
-6.01419e-07
-1.23201e-05
-5.9593e-07
-1.26254e-05
-5.99173e-07
-1.29061e-05
-6.0372e-07
-1.31629e-05
-6.06643e-07
-1.33818e-05
-6.27043e-07
-1.35533e-05
-6.67824e-07
-1.3657e-05
-7.27308e-07
-1.36936e-05
-7.84822e-07
-1.3656e-05
-8.55723e-07
-1.35468e-05
-9.02551e-07
-1.33549e-05
-9.71051e-07
-1.30964e-05
-1.04845e-06
-1.27575e-05
-1.0747e-06
-1.23468e-05
-1.10367e-06
-1.18777e-05
-1.15334e-06
-1.13672e-05
-1.0843e-06
-1.08299e-05
-1.02398e-06
-1.02166e-05
-9.91332e-07
-9.60368e-06
-8.26378e-07
-8.94662e-06
-6.52828e-07
-8.23773e-06
-5.30276e-07
-7.61381e-06
-5.30318e-07
-7.33365e-06
-3.83362e-07
-7.25195e-06
-3.71227e-07
-7.20527e-06
-3.58055e-07
-7.31024e-06
9.7281e-09
-7.59345e-06
1.89326e-07
-7.70322e-06
-2.4199e-07
-7.78369e-06
-4.48234e-07
-7.94653e-06
-2.06709e-07
-7.90868e-06
-3.07246e-07
-7.54475e-06
-5.08907e-07
-7.10986e-06
-4.90059e-07
-6.96247e-06
-3.71675e-08
-6.96249e-06
1.72369e-07
-7.04663e-06
2.75213e-07
-7.12685e-06
2.16752e-07
-6.99186e-06
-3.0281e-07
-6.58926e-06
-9.0776e-07
-5.857e-06
-1.66609e-06
-4.57322e-06
-2.693e-06
-2.81801e-06
-3.57479e-06
-6.88026e-07
-4.2901e-06
1.65737e-06
-4.73078e-06
3.70392e-06
-4.22578e-06
5.10915e-06
-2.86138e-06
6.28222e-06
-1.78322e-06
6.85844e-06
-2.83281e-07
6.22383e-06
1.97334e-06
5.21213e-06
2.48392e-06
3.40987e-06
2.45707e-06
1.79452e-06
1.35267e-06
1.86206e-06
-1.54645e-06
2.51986e-06
-3.08272e-06
2.36554e-06
-2.38633e-06
8.54329e-07
-7.22779e-07
-1.81563e-06
8.31833e-07
-4.72076e-06
1.68674e-06
-7.16141e-06
2.03159e-06
-9.09257e-06
2.17435e-06
-1.07043e-05
1.99579e-06
-1.20629e-05
1.55539e-06
-1.31016e-05
9.76354e-07
-1.39284e-05
4.33128e-07
-1.45897e-05
-3.3724e-08
-1.51473e-05
-3.58839e-07
-1.55366e-05
-6.78692e-07
-1.5662e-05
-1.10278e-06
-1.54387e-05
-1.66928e-06
-1.49012e-05
-2.30131e-06
-1.41266e-05
-2.90451e-06
-1.32007e-05
-3.2463e-06
-1.22593e-05
-3.24538e-06
-1.13124e-05
-3.11811e-06
-1.01069e-05
-3.43419e-06
-8.72323e-06
-3.73552e-06
-6.97019e-06
-4.68251e-06
-5.60045e-06
-3.62722e-06
-4.02734e-06
-3.90413e-06
-2.44282e-06
-4.32725e-06
-9.59474e-07
-3.7278e-06
3.97295e-07
-3.55867e-06
1.93951e-06
-3.98809e-06
3.67108e-06
-4.05433e-06
4.86125e-06
-3.2411e-06
6.02284e-06
-3.33096e-06
7.0875e-06
-3.13094e-06
8.14798e-06
-3.13016e-06
9.32084e-06
-3.16107e-06
1.02426e-05
-2.74369e-06
1.03251e-05
-1.67081e-06
1.02912e-05
-1.59335e-06
1.09352e-05
-2.23305e-06
1.15837e-05
-1.93515e-06
1.1439e-05
-9.21292e-07
1.06316e-05
-2.44191e-07
9.61278e-06
9.00937e-08
8.82487e-06
-6.68836e-09
7.99845e-06
3.60979e-07
6.92904e-06
1.02693e-06
5.61516e-06
1.7128e-06
4.1632e-06
2.2976e-06
2.53315e-06
2.98061e-06
6.99037e-07
3.72308e-06
-1.18977e-06
4.5859e-06
-3.18778e-06
5.37687e-06
-5.1239e-06
6.0046e-06
-6.87436e-06
7.09643e-06
-8.95072e-06
8.42439e-06
-1.08205e-05
9.15994e-06
-1.2145e-05
9.59907e-06
-1.35357e-05
1.09159e-05
-1.54897e-05
1.28378e-05
-1.7124e-05
1.37698e-05
-1.88305e-05
1.57965e-05
-1.90176e-05
1.51336e-05
-1.77596e-05
1.47577e-05
-1.59318e-05
1.56417e-05
-1.37908e-05
1.70192e-05
-1.2289e-05
2.00788e-05
-1.12695e-05
2.31103e-05
-1.08362e-05
2.58465e-05
-1.07227e-05
2.68216e-05
-1.08133e-05
2.94293e-05
-9.41384e-06
2.73941e-05
-9.22549e-06
3.16307e-05
-9.73426e-06
3.45997e-05
-8.37861e-06
3.2054e-05
-5.86888e-06
3.29193e-05
-5.39493e-06
3.9279e-05
-3.78262e-06
3.8878e-05
2.13343e-07
3.56924e-05
2.91374e-06
3.85614e-05
6.10046e-06
3.95423e-05
7.56953e-06
4.65638e-05
6.22918e-06
5.37285e-05
3.77527e-06
5.5855e-05
2.23177e-06
5.51019e-05
-3.90138e-07
5.99731e-05
-1.91456e-06
6.25058e-05
-3.44486e-06
6.10346e-05
-2.72624e-06
5.40843e-05
3.34334e-06
4.1955e-05
7.77723e-06
5.00953e-05
1.13666e-05
4.78188e-05
1.32677e-05
4.53202e-05
1.56388e-05
4.34717e-05
2.13423e-05
4.04483e-05
2.66378e-05
4.02636e-05
2.84134e-05
4.60124e-05
2.73054e-05
4.78133e-05
2.77409e-05
4.35156e-05
3.0026e-05
3.70135e-05
2.84833e-05
3.51699e-05
-6.0045e-07
-7.90851e-07
-1.30973e-06
-6.15308e-07
-1.90536e-06
-8.15439e-07
-2.42731e-06
-1.02277e-06
-2.87591e-06
-1.19054e-06
-3.31955e-06
-1.2318e-06
-3.79481e-06
-1.20893e-06
-4.27418e-06
-1.24353e-06
-4.70754e-06
-1.34937e-06
-5.1024e-06
-1.44032e-06
-5.52439e-06
-1.43518e-06
-6.04083e-06
-1.32106e-06
-6.61482e-06
-1.21625e-06
-7.21125e-06
-1.15194e-06
-7.83636e-06
-1.08906e-06
-8.44461e-06
-1.05195e-06
-9.02011e-06
-1.01772e-06
-9.58707e-06
-9.77685e-07
-1.01273e-05
-9.57729e-07
-1.06443e-05
-9.44186e-07
-1.11551e-05
-9.21308e-07
-1.16733e-05
-8.9061e-07
-1.22056e-05
-8.4946e-07
-1.27415e-05
-8.08466e-07
-1.32808e-05
-7.7573e-07
-1.37936e-05
-7.62467e-07
-1.42917e-05
-7.44882e-07
-1.47582e-05
-7.48165e-07
-1.52002e-05
-7.46238e-07
-1.55982e-05
-7.71767e-07
-1.59523e-05
-8.16817e-07
-1.62278e-05
-9.00196e-07
-1.64095e-05
-1.00176e-06
-1.64967e-05
-1.10783e-06
-1.65005e-05
-1.23574e-06
-1.64043e-05
-1.35809e-06
-1.61861e-05
-1.51083e-06
-1.58621e-05
-1.65064e-06
-1.54246e-05
-1.76055e-06
-1.4912e-05
-1.85447e-06
-1.4336e-05
-1.95394e-06
-1.3622e-05
-1.9751e-06
-1.28433e-05
-1.94242e-06
-1.20531e-05
-1.93991e-06
-1.12282e-05
-1.77858e-06
-1.03508e-05
-1.57509e-06
-9.40435e-06
-1.55136e-06
-8.47804e-06
-1.54428e-06
-7.684e-06
-1.1687e-06
-6.86871e-06
-1.18484e-06
-6.02981e-06
-1.22492e-06
-5.23393e-06
-7.36976e-07
-4.45655e-06
-5.20655e-07
-3.98323e-06
-6.82723e-07
-4.05863e-06
-3.10981e-07
-4.40626e-06
2.40043e-07
-4.73752e-06
1.13138e-07
-5.21297e-06
2.89253e-08
-5.57414e-06
-7.21561e-08
-5.52408e-06
-2.59596e-08
-5.22781e-06
-7.6153e-08
-5.02572e-06
1.18966e-07
-4.85628e-06
8.58e-08
-4.72344e-06
-3.99882e-07
-4.58066e-06
-1.00751e-06
-4.29395e-06
-1.93496e-06
-3.62001e-06
-3.38001e-06
-2.2878e-06
-4.95581e-06
-5.18053e-07
-6.13983e-06
1.25361e-06
-6.61454e-06
2.84361e-06
-5.95661e-06
4.61305e-06
-4.80766e-06
5.95582e-06
-3.36015e-06
6.05294e-06
-6.2511e-07
6.16783e-06
1.60183e-06
5.86242e-06
2.45976e-06
4.36661e-06
3.58532e-06
3.54142e-06
1.80238e-06
2.79621e-06
-1.22168e-06
6.99044e-07
-1.47866e-06
-2.44292e-06
2.19243e-07
-5.44442e-06
1.69907e-06
-7.7721e-06
2.52553e-06
-9.61611e-06
2.84893e-06
-1.11169e-05
2.8199e-06
-1.22347e-05
2.56492e-06
-1.30299e-05
2.05077e-06
-1.35751e-05
1.3431e-06
-1.39967e-05
6.17187e-07
-1.43272e-05
-4.17751e-08
-1.4595e-05
-5.87511e-07
-1.47721e-05
-9.98753e-07
-1.48135e-05
-1.42817e-06
-1.46888e-05
-1.98291e-06
-1.43708e-05
-2.71195e-06
-1.37889e-05
-3.59164e-06
-1.29838e-05
-4.41317e-06
-1.2014e-05
-4.90789e-06
-1.08688e-05
-5.05189e-06
-9.71908e-06
-4.8685e-06
-8.30419e-06
-5.3775e-06
-7.12254e-06
-5.41357e-06
-5.55697e-06
-6.73373e-06
-3.81227e-06
-5.82838e-06
-2.33171e-06
-5.8002e-06
-9.73623e-07
-6.07886e-06
8.19824e-07
-5.89078e-06
2.01751e-06
-5.16502e-06
3.01573e-06
-5.35077e-06
4.92198e-06
-6.26514e-06
6.32256e-06
-5.00969e-06
7.44867e-06
-4.8531e-06
8.49118e-06
-4.62467e-06
9.18593e-06
-4.3454e-06
1.01286e-05
-4.55018e-06
1.14393e-05
-4.39173e-06
1.18176e-05
-2.63249e-06
1.13925e-05
-2.11216e-06
1.12974e-05
-3.012e-06
1.18337e-05
-2.92698e-06
1.2324e-05
-1.79315e-06
1.21492e-05
-8.42377e-07
1.11372e-05
6.14226e-08
1.01895e-05
3.1005e-08
9.35529e-06
4.47417e-07
8.26991e-06
1.35338e-06
6.84417e-06
2.44511e-06
5.6448e-06
2.95951e-06
4.63464e-06
3.62795e-06
3.16194e-06
5.03772e-06
1.12384e-06
6.74713e-06
-9.55834e-07
7.86102e-06
-2.46824e-06
8.16076e-06
-3.83773e-06
9.49042e-06
-5.35267e-06
1.17589e-05
-7.06624e-06
1.34216e-05
-8.92969e-06
1.48706e-05
-1.15155e-05
1.78548e-05
-1.468e-05
2.05892e-05
-1.73056e-05
2.09091e-05
-1.9381e-05
2.29177e-05
-1.96306e-05
2.10228e-05
-1.78977e-05
1.94812e-05
-1.51039e-05
2.02805e-05
-1.21717e-05
2.27723e-05
-1.03139e-05
2.83224e-05
-1.0244e-05
3.47484e-05
-1.0085e-05
3.88045e-05
-9.5384e-06
4.02272e-05
-9.65039e-06
4.49704e-05
-7.55153e-06
4.02002e-05
-6.56776e-06
4.68438e-05
-5.79357e-06
5.02919e-05
-4.85858e-06
4.78201e-05
-3.29672e-06
4.78291e-05
-3.14492e-06
5.81346e-05
-2.81434e-06
5.76334e-05
1.06236e-06
4.94673e-05
4.41547e-06
5.43423e-05
7.10531e-06
5.66712e-05
9.428e-06
6.59074e-05
9.8291e-06
7.94942e-05
7.55226e-06
8.6047e-05
4.93289e-06
8.61687e-05
2.75823e-06
9.30378e-05
7.63341e-07
9.3564e-05
9.9579e-07
8.74759e-05
2.17517e-06
7.78693e-05
5.39083e-06
6.38109e-05
9.73325e-06
6.79132e-05
1.40902e-05
6.51674e-05
1.40982e-05
6.74326e-05
1.36566e-05
6.42612e-05
1.70003e-05
5.46891e-05
2.49056e-05
4.75764e-05
3.17338e-05
6.01802e-05
3.35236e-05
7.02212e-05
3.05544e-05
7.13606e-05
2.82177e-05
5.8994e-05
3.79849e-05
3.57541e-05
-4.92357e-07
-1.15121e-06
-1.21268e-06
-7.75076e-07
-1.84776e-06
-1.05878e-06
-2.34969e-06
-1.41116e-06
-2.80224e-06
-1.63447e-06
-3.24257e-06
-1.6869e-06
-3.70021e-06
-1.64933e-06
-4.19932e-06
-1.64812e-06
-4.75426e-06
-1.71478e-06
-5.38e-06
-1.74893e-06
-6.06275e-06
-1.64976e-06
-6.74375e-06
-1.47294e-06
-7.47592e-06
-1.30633e-06
-8.18176e-06
-1.26554e-06
-8.81108e-06
-1.24131e-06
-9.42043e-06
-1.22868e-06
-9.99667e-06
-1.23474e-06
-1.05668e-05
-1.19379e-06
-1.11769e-05
-1.15353e-06
-1.18236e-05
-1.10892e-06
-1.24992e-05
-1.05519e-06
-1.3189e-05
-1.00285e-06
-1.38766e-05
-9.41251e-07
-1.45793e-05
-8.62712e-07
-1.52828e-05
-8.00366e-07
-1.59722e-05
-7.63457e-07
-1.66003e-05
-7.59683e-07
-1.71777e-05
-7.6976e-07
-1.76945e-05
-8.02882e-07
-1.81505e-05
-8.70631e-07
-1.85456e-05
-9.40091e-07
-1.88208e-05
-1.08141e-06
-1.89663e-05
-1.2541e-06
-1.90251e-05
-1.42151e-06
-1.90203e-05
-1.60744e-06
-1.88868e-05
-1.84106e-06
-1.86089e-05
-2.10646e-06
-1.82315e-05
-2.31167e-06
-1.77149e-05
-2.52879e-06
-1.71226e-05
-2.67125e-06
-1.64897e-05
-2.80185e-06
-1.57926e-05
-2.87842e-06
-1.49801e-05
-2.9275e-06
-1.41531e-05
-2.89284e-06
-1.32538e-05
-2.78015e-06
-1.22772e-05
-2.65596e-06
-1.13354e-05
-2.58279e-06
-1.04411e-05
-2.49388e-06
-9.39255e-06
-2.24533e-06
-8.29372e-06
-2.28976e-06
-7.46598e-06
-2.03697e-06
-6.52656e-06
-1.65712e-06
-5.43879e-06
-1.59283e-06
-4.51624e-06
-1.57282e-06
-3.81096e-06
-9.55284e-07
-2.91927e-06
-5.91917e-07
-2.17599e-06
-5.62224e-07
-1.93753e-06
-1.23243e-07
-2.07649e-06
1.56259e-07
-2.25991e-06
2.36382e-07
-2.49678e-06
2.26954e-07
-2.53385e-06
2.21885e-07
-2.29649e-06
-9.73983e-08
-1.9701e-06
-6.82944e-07
-1.79606e-06
-1.14513e-06
-1.74122e-06
-1.97512e-06
-1.48568e-06
-3.64871e-06
-7.9025e-07
-5.68692e-06
1.95615e-07
-7.17721e-06
1.34344e-06
-7.83298e-06
2.69404e-06
-7.40347e-06
3.89745e-06
-6.13931e-06
4.21338e-06
-3.86793e-06
4.41223e-06
-1.05932e-06
4.73559e-06
1.02616e-06
3.57134e-06
3.3495e-06
2.69272e-06
4.15515e-06
2.07473e-06
2.06937e-06
-3.39211e-07
7.92687e-07
-3.7709e-06
1.50576e-06
-6.66811e-06
2.62764e-06
-8.78765e-06
3.28316e-06
-1.02509e-05
3.41427e-06
-1.1263e-05
3.26021e-06
-1.20249e-05
2.96561e-06
-1.25656e-05
2.48142e-06
-1.29436e-05
1.80121e-06
-1.32473e-05
1.00664e-06
-1.35218e-05
2.2905e-07
-1.37809e-05
-4.66264e-07
-1.39908e-05
-1.07513e-06
-1.407e-05
-1.61729e-06
-1.39878e-05
-2.1937e-06
-1.37446e-05
-2.88895e-06
-1.33686e-05
-3.73268e-06
-1.29063e-05
-4.68188e-06
-1.22663e-05
-5.65476e-06
-1.14953e-05
-6.23558e-06
-1.01598e-05