/*--------------------------------*- C++ -*----------------------------------*\
| =========                 |                                                 |
| \\      /  F ield         | OpenFOAM: The Open Source CFD Toolbox           |
|  \\    /   O peration     | Version:  dev                                   |
|   \\  /    A nd           | Web:      http://www.openfoam.org               |
|    \\/     M anipulation  |                                                 |
\*---------------------------------------------------------------------------*/
FoamFile
{
    version     2.0;
    format      ascii;
    class       surfaceScalarField;
    object      phi_0;
    location    "9.151";
}
// * * * * * * * * * * * * * * * * * * * * * * * * * * * * * * * * * * * * * //

dimensions      [1 0 -1 0 0 0 0];

internalField   nonuniform List<scalar> 
24170
(
2.05866e-06
1.11535e-06
1.20217e-06
4.36936e-07
8.53552e-07
-2.47951e-08
7.93734e-07
-2.73122e-07
8.17011e-07
-3.09919e-07
9.32875e-07
-3.66e-07
1.04715e-06
-3.23845e-07
1.2746e-06
-4.06676e-07
1.48458e-06
-3.5734e-07
1.8424e-06
-4.82469e-07
2.1528e-06
-4.11983e-07
2.60204e-06
-5.37095e-07
3.07606e-06
-5.45664e-07
3.80549e-06
-7.98547e-07
4.39618e-06
-6.48927e-07
6.16069e-06
-1.81876e-06
8.77744e-06
-2.71243e-06
-5.8304e-06
1.45186e-05
3.74791e-06
1.01692e-06
3.16286e-06
6.10239e-07
2.72092e-06
4.68929e-08
2.45623e-06
-3.38748e-07
2.30138e-06
-4.40096e-07
2.23745e-06
-5.47145e-07
2.29055e-06
-5.80644e-07
2.45179e-06
-7.38359e-07
2.61681e-06
-6.60186e-07
2.90795e-06
-8.87492e-07
3.21093e-06
-8.0431e-07
3.64881e-06
-1.05126e-06
4.18781e-06
-1.14281e-06
4.93078e-06
-1.59878e-06
5.67276e-06
-1.43583e-06
7.33061e-06
-3.51802e-06
8.68684e-06
-4.14651e-06
-8.60614e-06
1.13601e-05
4.50899e-06
3.61186e-07
4.43957e-06
2.29637e-07
4.27174e-06
-1.9017e-07
4.16764e-06
-5.96117e-07
3.99865e-06
-5.8227e-07
4.02142e-06
-8.36411e-07
3.97007e-06
-7.50606e-07
4.17913e-06
-1.13018e-06
4.24459e-06
-8.73732e-07
4.68929e-06
-1.45316e-06
4.86212e-06
-1.0726e-06
5.64551e-06
-1.91122e-06
5.79468e-06
-1.35522e-06
6.89414e-06
-2.75337e-06
7.10556e-06
-1.70248e-06
8.40616e-06
-4.864e-06
8.74966e-06
-4.54716e-06
-1.19822e-05
1.20322e-05
4.87601e-06
-7.13236e-08
5.30405e-06
-6.90416e-07
5.1647e-06
-4.9401e-07
5.46868e-06
-1.29534e-06
5.3335e-06
-7.87582e-07
5.63572e-06
-1.4283e-06
5.52032e-06
-8.77394e-07
5.99911e-06
-1.80558e-06
5.92639e-06
-9.58794e-07
6.49415e-06
-2.14781e-06
6.55977e-06
-1.24257e-06
7.31609e-06
-2.74427e-06
7.44576e-06
-1.54701e-06
8.46156e-06
-3.82156e-06
8.9875e-06
-2.2865e-06
9.97172e-06
-5.90163e-06
9.88644e-06
-4.51137e-06
-1.3292e-05
1.11329e-05
5.03886e-06
-4.81804e-07
5.99619e-06
-2.18307e-06
5.71774e-06
-6.98823e-07
6.13831e-06
-2.14616e-06
6.04647e-06
-1.06612e-06
6.4945e-06
-2.19036e-06
6.32559e-06
-9.7271e-07
6.98858e-06
-2.6828e-06
6.95573e-06
-1.09524e-06
7.53164e-06
-2.85809e-06
7.7044e-06
-1.52623e-06
8.38271e-06
-3.5049e-06
8.70529e-06
-1.93101e-06
9.3945e-06
-4.56087e-06
1.01909e-05
-3.13388e-06
1.06282e-05
-6.39392e-06
1.11469e-05
-5.09038e-06
-1.1991e-05
9.79188e-06
5.53318e-06
-4.77904e-07
6.17185e-06
-3.40326e-06
5.91597e-06
-9.67174e-07
6.28456e-06
-2.98087e-06
6.26072e-06
-1.44297e-06
6.71847e-06
-2.98728e-06
6.64049e-06
-1.1792e-06
7.30282e-06
-3.57346e-06
7.53528e-06
-1.51029e-06
8.06571e-06
-3.5338e-06
8.48548e-06
-2.05985e-06
9.10451e-06
-4.20668e-06
9.67556e-06
-2.56785e-06
1.01277e-05
-5.06172e-06
1.09755e-05
-4.02581e-06
1.12007e-05
-6.66476e-06
1.2018e-05
-5.96319e-06
-1.01048e-05
1.00812e-05
6.21707e-06
-1.01813e-06
6.65553e-06
-4.46742e-06
6.56512e-06
-1.4407e-06
6.9816e-06
-3.89919e-06
6.90109e-06
-1.79349e-06
7.30378e-06
-3.75329e-06
7.45069e-06
-1.62806e-06
7.74837e-06
-4.11049e-06
8.19074e-06
-2.14444e-06
8.67677e-06
-4.17088e-06
9.27424e-06
-2.76911e-06
9.75561e-06
-4.76864e-06
1.05743e-05
-3.45149e-06
1.09885e-05
-5.52538e-06
1.17876e-05
-4.85899e-06
1.1951e-05
-6.86075e-06
1.25746e-05
-6.62504e-06
-8.87256e-06
1.13003e-05
4.98657e-06
-1.46793e-06
5.17794e-06
-5.13528e-06
5.16584e-06
-1.85721e-06
5.40398e-06
-4.51867e-06
5.40092e-06
-2.11676e-06
5.61317e-06
-4.2399e-06
5.9022e-06
-2.14416e-06
6.02262e-06
-4.4091e-06
6.42939e-06
-2.69035e-06
6.69933e-06
-4.54841e-06
7.21407e-06
-3.36172e-06
7.47604e-06
-5.08628e-06
8.11707e-06
-4.13204e-06
8.43326e-06
-5.86982e-06
8.96504e-06
-5.41005e-06
9.03999e-06
-6.95124e-06
9.35064e-06
-6.95028e-06
-8.27937e-06
8.74019e-06
5.84284e-06
-1.92963e-06
5.96361e-06
-5.79679e-06
5.99851e-06
-2.37738e-06
6.03929e-06
-4.98991e-06
6.23271e-06
-2.67862e-06
6.40257e-06
-4.71762e-06
6.88972e-06
-2.88425e-06
6.97112e-06
-4.68955e-06
7.50826e-06
-3.37808e-06
7.72162e-06
-4.87507e-06
8.33169e-06
-4.05164e-06
8.56967e-06
-5.37734e-06
9.17849e-06
-4.77531e-06
9.45812e-06
-6.16761e-06
9.9908e-06
-5.94979e-06
1.01115e-05
-7.07732e-06
1.03864e-05
-7.22992e-06
-7.99091e-06
1.00952e-05
6.90583e-06
-2.26997e-06
6.71839e-06
-6.21696e-06
6.9628e-06
-3.16609e-06
6.94468e-06
-5.45345e-06
7.33193e-06
-3.47665e-06
7.36132e-06
-5.0879e-06
7.93157e-06
-3.72684e-06
8.03067e-06
-5.00207e-06
8.66418e-06
-4.17287e-06
8.89932e-06
-5.22476e-06
9.59193e-06
-4.81998e-06
9.85436e-06
-5.68351e-06
1.05066e-05
-5.44677e-06
1.07393e-05
-6.40373e-06
1.1284e-05
-6.48496e-06
1.14223e-05
-7.19643e-06
1.1734e-05
-7.52146e-06
-7.93178e-06
1.16911e-05
8.05369e-06
-2.86265e-06
7.7412e-06
-6.57898e-06
8.10681e-06
-4.13228e-06
7.93011e-06
-5.80691e-06
8.40586e-06
-4.39717e-06
8.43109e-06
-5.4831e-06
9.07356e-06
-4.66228e-06
9.2638e-06
-5.40854e-06
9.9544e-06
-5.0228e-06
1.02205e-05
-5.6009e-06
1.09057e-05
-5.56578e-06
1.12288e-05
-6.03309e-06
1.18863e-05
-6.09887e-06
1.21466e-05
-6.63624e-06
1.26132e-05
-6.91258e-06
1.28003e-05
-7.33524e-06
1.30303e-05
-7.69539e-06
-7.96304e-06
1.31163e-05
9.39204e-06
-3.88326e-06
9.02848e-06
-6.95158e-06
9.45523e-06
-5.2104e-06
9.27873e-06
-6.20089e-06
9.82898e-06
-5.42357e-06
9.8926e-06
-5.92914e-06
1.04855e-05
-5.55107e-06
1.06672e-05
-5.80848e-06
1.122e-05
-5.71671e-06
1.15386e-05
-6.00498e-06
1.20747e-05
-6.1347e-06
1.24878e-05
-6.43292e-06
1.30565e-05
-6.6267e-06
1.34494e-05
-6.96215e-06
1.3875e-05
-7.24578e-06
1.41771e-05
-7.53685e-06
1.43854e-05
-7.79956e-06
-8.0022e-06
1.45335e-05
1.07359e-05
-4.58477e-06
1.04178e-05
-7.41441e-06
1.08646e-05
-6.34503e-06
1.07322e-05
-6.66399e-06
1.11372e-05
-6.31607e-06
1.12035e-05
-6.37917e-06
1.16231e-05
-6.25145e-06
1.19186e-05
-6.29467e-06
1.24252e-05
-6.33515e-06
1.28996e-05
-6.51602e-06
1.34488e-05
-6.66331e-06
1.39628e-05
-6.87902e-06
1.4521e-05
-7.07377e-06
1.49839e-05
-7.28715e-06
1.53872e-05
-7.49056e-06
1.57128e-05
-7.68776e-06
1.5938e-05
-7.84035e-06
-7.95602e-06
1.60764e-05
1.24863e-05
-5.3988e-06
1.23708e-05
-8.0921e-06
1.26875e-05
-7.35803e-06
1.2623e-05
-7.19004e-06
1.28427e-05
-7.00716e-06
1.30226e-05
-6.91036e-06
1.33917e-05
-6.86014e-06
1.37953e-05
-6.83284e-06
1.42708e-05
-6.85208e-06
1.47535e-05
-6.96149e-06
1.52712e-05
-7.07271e-06
1.57568e-05
-7.20191e-06
1.62286e-05
-7.33928e-06
1.66687e-05
-7.48413e-06
1.70703e-05
-7.62487e-06
1.73954e-05
-7.72976e-06
1.76545e-05
-7.81003e-06
-7.86321e-06
1.78554e-05
1.42988e-05
-6.06979e-06
1.41984e-05
-8.74873e-06
1.43355e-05
-8.15097e-06
1.43859e-05
-7.77896e-06
1.45526e-05
-7.58148e-06
1.4804e-05
-7.43615e-06
1.51514e-05
-7.35592e-06
1.55859e-05
-7.29974e-06
1.6075e-05
-7.26966e-06
1.65666e-05
-7.29074e-06
1.70429e-05
-7.31058e-06
1.75159e-05
-7.37219e-06
1.79724e-05
-7.44352e-06
1.83985e-05
-7.51967e-06
1.87833e-05
-7.5917e-06
1.91488e-05
-7.66127e-06
1.94913e-05
-7.7092e-06
-7.6979e-06
1.9771e-05
1.72604e-05
-6.24618e-06
1.676e-05
-8.90797e-06
1.64903e-05
-8.42343e-06
1.63682e-05
-8.07168e-06
1.63542e-05
-7.84086e-06
1.64815e-05
-7.69245e-06
1.67551e-05
-7.62052e-06
1.71781e-05
-7.58509e-06
1.77008e-05
-7.54072e-06
1.82746e-05
-7.51342e-06
1.88854e-05
-7.48522e-06
1.94776e-05
-7.45986e-06
2.00472e-05
-7.45471e-06
2.0601e-05
-7.47427e-06
2.11245e-05
-7.48832e-06
2.15993e-05
-7.49182e-06
2.19902e-05
-7.45009e-06
-7.40645e-06
2.23476e-05
1.97908e-05
-6.38879e-06
1.94023e-05
-8.97098e-06
1.91416e-05
-8.48504e-06
1.89883e-05
-8.1078e-06
1.89328e-05
-7.82715e-06
1.90015e-05
-7.65148e-06
1.92058e-05
-7.56974e-06
1.95285e-05
-7.51677e-06
1.99596e-05
-7.45616e-06
2.04728e-05
-7.40389e-06
2.10392e-05
-7.34082e-06
2.1646e-05
-7.28387e-06
2.2268e-05
-7.23782e-06
2.28715e-05
-7.19739e-06
2.34517e-05
-7.16089e-06
2.39856e-05
-7.10466e-06
2.44936e-05
-7.03575e-06
-6.93131e-06
2.49338e-05
1.96726e-05
-5.88927e-06
1.90569e-05
-8.47652e-06
1.87058e-05
-8.13086e-06
1.85327e-05
-7.81682e-06
1.85416e-05
-7.58709e-06
1.87142e-05
-7.44023e-06
1.90025e-05
-7.3459e-06
1.93498e-05
-7.2302e-06
1.97446e-05
-7.1022e-06
2.01803e-05
-6.99643e-06
2.06369e-05
-6.8797e-06
2.10968e-05
-6.76355e-06
2.15707e-05
-6.682e-06
2.20528e-05
-6.61327e-06
2.25294e-05
-6.55106e-06
2.29955e-05
-6.47758e-06
2.3443e-05
-6.39631e-06
-6.28139e-06
2.38651e-05
1.7643e-05
-5.49698e-06
1.72138e-05
-7.87554e-06
1.68849e-05
-7.54233e-06
1.67157e-05
-7.30212e-06
1.66798e-05
-7.10416e-06
1.67274e-05
-6.93457e-06
1.68234e-05
-6.79059e-06
1.69631e-05
-6.62386e-06
1.7173e-05
-6.47244e-06
1.74614e-05
-6.37103e-06
1.78185e-05
-6.2683e-06
1.82248e-05
-6.15581e-06
1.86638e-05
-6.07157e-06
1.91082e-05
-5.98024e-06
1.95424e-05
-5.89447e-06
1.99585e-05
-5.80119e-06
2.03337e-05
-5.69041e-06
-5.54904e-06
2.06623e-05
1.57989e-05
-4.9397e-06
1.53979e-05
-7.14049e-06
1.50722e-05
-6.80906e-06
1.48526e-05
-6.60787e-06
1.4741e-05
-6.43761e-06
1.47008e-05
-6.25389e-06
1.47112e-05
-6.08356e-06
1.47796e-05
-5.90077e-06
1.49364e-05
-5.76062e-06
1.51764e-05
-5.68366e-06
1.54865e-05
-5.61058e-06
1.58745e-05
-5.54272e-06
1.62943e-05
-5.46593e-06
1.67257e-05
-5.36498e-06
1.71403e-05
-5.25428e-06
1.75126e-05
-5.1198e-06
1.78803e-05
-5.01645e-06
-4.88305e-06
1.82338e-05
1.38783e-05
-4.78955e-06
1.35931e-05
-6.41691e-06
1.33038e-05
-6.03133e-06
1.30917e-05
-5.85568e-06
1.29967e-05
-5.74019e-06
1.29872e-05
-5.57413e-06
1.30417e-05
-5.40615e-06
1.3155e-05
-5.22226e-06
1.33384e-05
-5.08806e-06
1.35488e-05
-4.99099e-06
1.37873e-05
-4.91276e-06
1.40592e-05
-4.85178e-06
1.43568e-05
-4.78573e-06
1.46595e-05
-4.67599e-06
1.49928e-05
-4.59225e-06
1.53449e-05
-4.48051e-06
1.57051e-05
-4.39539e-06
-4.28608e-06
1.60679e-05
1.24774e-05
-4.03055e-06
1.21185e-05
-5.5748e-06
1.18852e-05
-5.27719e-06
1.17706e-05
-5.17921e-06
1.1741e-05
-5.09947e-06
1.17496e-05
-4.9172e-06
1.17679e-05
-4.70707e-06
1.1827e-05
-4.51663e-06
1.19399e-05
-4.38653e-06
1.20874e-05
-4.28393e-06
1.22745e-05
-4.21529e-06
1.24831e-05
-4.15354e-06
1.27121e-05
-4.09713e-06
1.29767e-05
-4.01522e-06
1.32767e-05
-3.96684e-06
1.36017e-05
-3.88642e-06
1.39249e-05
-3.81022e-06
-3.711e-06
1.424e-05
1.10477e-05
-3.43697e-06
1.08431e-05
-4.87739e-06
1.07574e-05
-4.67033e-06
1.06581e-05
-4.52756e-06
1.05341e-05
-4.38205e-06
1.0448e-05
-4.19199e-06
1.04379e-05
-4.01216e-06
1.0509e-05
-3.86583e-06
1.06431e-05
-3.76171e-06
1.08505e-05
-3.69773e-06
1.10943e-05
-3.64038e-06
1.13496e-05
-3.57089e-06
1.16193e-05
-3.51817e-06
1.18958e-05
-3.43988e-06
1.21389e-05
-3.36008e-06
1.2377e-05
-3.28168e-06
1.26087e-05
-3.21042e-06
-3.13222e-06
1.28451e-05
9.86611e-06
-2.89628e-06
9.64409e-06
-4.17717e-06
9.48924e-06
-4.01223e-06
9.35781e-06
-3.86789e-06
9.24663e-06
-3.70881e-06
9.19154e-06
-3.53829e-06
9.20348e-06
-3.38662e-06
9.29049e-06
-3.2796e-06
9.43753e-06
-3.20511e-06
9.64215e-06
-3.17292e-06
9.89525e-06
-3.14375e-06
1.01771e-05
-3.08825e-06
1.04579e-05
-3.02565e-06
1.07236e-05
-2.92923e-06
1.09738e-05
-2.83639e-06
1.11985e-05
-2.74011e-06
1.14057e-05
-2.66355e-06
-2.58396e-06
1.15964e-05
8.90185e-06
-2.42636e-06
8.77122e-06
-3.59502e-06
8.70652e-06
-3.47494e-06
8.65081e-06
-3.3194e-06
8.61e-06
-3.14646e-06
8.57601e-06
-2.95109e-06
8.5482e-06
-2.77303e-06
8.55026e-06
-2.66454e-06
8.61346e-06
-2.62359e-06
8.71221e-06
-2.60461e-06
8.83208e-06
-2.57935e-06
8.96845e-06
-2.52848e-06
9.11428e-06
-2.46885e-06
9.27807e-06
-2.38908e-06
9.46033e-06
-2.31832e-06
9.65526e-06
-2.24215e-06
9.84991e-06
-2.17635e-06
-2.10854e-06
1.00419e-05
7.84708e-06
-2.17963e-06
7.83654e-06
-3.16574e-06
7.8227e-06
-3.0242e-06
7.80951e-06
-2.85376e-06
7.81758e-06
-2.67818e-06
7.83922e-06
-2.46872e-06
7.86468e-06
-2.26616e-06
7.89957e-06
-2.14046e-06
7.94162e-06
-2.08256e-06
7.99763e-06
-2.0573e-06
8.06061e-06
-2.02377e-06
8.13242e-06
-1.97139e-06
8.21438e-06
-1.91675e-06
8.30734e-06
-1.84716e-06
8.42104e-06
-1.80051e-06
8.54692e-06
-1.74372e-06
8.68636e-06
-1.70186e-06
-1.66385e-06
8.84233e-06
7.18512e-06
-1.9689e-06
7.21439e-06
-2.81271e-06
7.16807e-06
-2.57934e-06
7.07772e-06
-2.35123e-06
6.97947e-06
-2.14718e-06
6.90035e-06
-1.93346e-06
6.85706e-06
-1.74257e-06
6.83466e-06
-1.61433e-06
6.8228e-06
-1.54606e-06
6.81665e-06
-1.5091e-06
6.81568e-06
-1.4676e-06
6.83338e-06
-1.42514e-06
6.86859e-06
-1.3835e-06
6.91348e-06
-1.32307e-06
6.9786e-06
-1.29987e-06
7.04551e-06
-1.25133e-06
7.12322e-06
-1.22953e-06
-1.191e-06
7.18883e-06
6.43739e-06
-1.86257e-06
6.45228e-06
-2.48171e-06
6.25569e-06
-2.02244e-06
5.96084e-06
-1.68433e-06
5.65376e-06
-1.45014e-06
5.39303e-06
-1.26205e-06
5.20425e-06
-1.12183e-06
5.05518e-06
-1.0128e-06
4.93722e-06
-9.572e-07
4.82932e-06
-9.14992e-07
4.74038e-06
-8.80818e-07
4.66963e-06
-8.48744e-07
4.6178e-06
-8.21922e-07
4.60487e-06
-7.99869e-07
4.59051e-06
-7.78062e-07
4.60458e-06
-7.63637e-07
4.6121e-06
-7.43396e-07
-7.25072e-07
4.62964e-06
5.59961e-06
-1.63417e-06
5.05977e-06
-1.63325e-06
4.44681e-06
-1.08699e-06
3.88212e-06
-7.86166e-07
3.39068e-06
-6.09259e-07
2.99923e-06
-5.0259e-07
2.69983e-06
-4.35245e-07
2.49472e-06
-4.02185e-07
2.35723e-06
-3.97766e-07
2.23825e-06
-3.60512e-07
2.17276e-06
-3.69346e-07
2.12837e-06
-3.513e-07
2.10935e-06
-3.46043e-07
2.10534e-06
-3.38559e-07
2.11441e-06
-3.3259e-07
2.12514e-06
-3.25289e-07
2.14336e-06
-3.20129e-07
-3.25083e-07
2.17541e-06
3.60138e-06
2.25455e-06
1.46159e-06
9.77966e-07
6.84446e-07
5.13512e-07
4.26683e-07
3.88935e-07
3.69893e-07
3.99843e-07
4.29862e-07
4.8387e-07
5.46171e-07
6.16011e-07
6.88911e-07
7.63779e-07
8.36999e-07
8.96827e-07
-4.8417e-07
5.20254e-08
-1.04064e-06
1.13249e-07
-1.57197e-06
9.03061e-08
-2.05823e-06
4.24333e-08
-2.50639e-06
3.51442e-09
-2.92731e-06
-2.33837e-08
-3.33576e-06
-3.48742e-08
-3.72672e-06
-5.0129e-08
-4.09821e-06
-6.81744e-08
-4.45111e-06
-8.45991e-08
-4.79113e-06
-9.4895e-08
-5.13453e-06
-8.80155e-08
-5.48826e-06
-7.28235e-08
-5.84764e-06
-6.21515e-08
-6.20492e-06
-5.89428e-08
-6.54958e-06
-6.63049e-08
-6.88654e-06
-6.75403e-08
-7.21723e-06
-6.55346e-08
-7.55466e-06
-4.83111e-08
-7.90313e-06
-2.52717e-08
-8.25558e-06
-8.9255e-09
-8.60328e-06
-1.13144e-09
-8.93298e-06
-5.52663e-09
-9.25762e-06
4.32663e-09
-9.57749e-06
1.53265e-08
-9.89147e-06
2.64236e-08
-1.01866e-05
2.66111e-08
-1.04562e-05
2.21214e-08
-1.06967e-05
1.47041e-08
-1.09127e-05
1.0949e-08
-1.11065e-05
6.2119e-09
-1.12654e-05
-1.35641e-08
-1.13764e-05
-4.04561e-08
-1.14294e-05
-7.00474e-08
-1.14173e-05
-1.06215e-07
-1.13662e-05
-1.18025e-07
-1.12757e-05
-1.32061e-07
-1.11153e-05
-1.76279e-07
-1.09364e-05
-1.67202e-07
-1.07363e-05
-1.61197e-07
-1.04906e-05
-1.78354e-07
-1.02975e-05
-9.86033e-08
-1.01137e-05
-5.7738e-08
-9.9697e-06
1.42847e-08
-9.9338e-06
1.55823e-07
-1.00108e-05
3.20504e-07
-1.02465e-05
4.82641e-07
-1.04411e-05
4.02462e-07
-1.03919e-05
1.70104e-07
-1.01312e-05
1.4485e-09
-9.74177e-06
-9.62957e-08
-9.46633e-06
3.79093e-08
-9.24555e-06
1.0314e-07
-8.80331e-06
-1.0122e-07
-8.09387e-06
-3.54272e-07
-7.47988e-06
-2.57174e-07
-6.96475e-06
-1.66729e-07
-6.62078e-06
2.7172e-09
-6.34118e-06
6.78412e-08
-6.23465e-06
2.32765e-07
-6.22051e-06
3.1213e-07
-6.22601e-06
3.23508e-07
-6.18868e-06
2.65601e-07
-5.85499e-06
-4.79698e-08
-5.17307e-06
-4.13616e-07
-4.08277e-06
-8.48968e-07
-2.56454e-06
-1.31069e-06
-6.99802e-07
-1.70256e-06
1.42077e-06
-2.00173e-06
3.69665e-06
-2.20616e-06
5.68523e-06
-1.97364e-06
6.85684e-06
-1.21257e-06
7.0937e-06
-3.40241e-07
6.33282e-06
5.69218e-07
4.45645e-06
1.61911e-06
2.40974e-06
1.75519e-06
1.08236e-06
9.72077e-07
5.77905e-07
6.89906e-08
1.1838e-06
-1.12207e-06
2.59463e-06
-2.00761e-06
3.98953e-06
-2.07905e-06
4.95219e-06
-1.74019e-06
5.38565e-06
-1.31986e-06
5.08442e-06
-6.7126e-07
3.92134e-06
1.66842e-07
2.0831e-06
8.16215e-07
4.94679e-08
9.38147e-07
-1.89508e-06
7.63783e-07
-3.63982e-06
4.91248e-07
-5.10015e-06
1.44999e-07
-6.28792e-06
-1.82952e-07
-7.25709e-06
-4.50918e-07
-8.05271e-06
-6.63372e-07
-8.65811e-06
-8.86298e-07
-9.01954e-06
-1.15961e-06
-9.04122e-06
-1.52786e-06
-8.66882e-06
-1.94959e-06
-8.05963e-06
-2.21311e-06
-7.39176e-06
-2.29654e-06
-6.75422e-06
-2.28859e-06
-5.95582e-06
-2.4709e-06
-4.96153e-06
-2.69903e-06
-3.34602e-06
-3.35798e-06
-2.33164e-06
-2.80455e-06
-1.1333e-06
-3.02341e-06
4.97787e-07
-3.52272e-06
1.64291e-06
-3.12911e-06
2.80285e-06
-3.20926e-06
4.25128e-06
-3.59473e-06
5.50955e-06
-3.53105e-06
6.45902e-06
-3.3309e-06
7.50978e-06
-3.55157e-06
8.38093e-06
-3.5118e-06
9.24049e-06
-3.62997e-06
1.00117e-05
-3.70036e-06
1.04469e-05
-3.55245e-06
1.04195e-05
-3.25133e-06
1.04286e-05
-3.40943e-06
1.05804e-05
-3.7062e-06
1.03751e-05
-3.57406e-06
9.61044e-06
-3.19913e-06
8.64328e-06
-3.10109e-06
7.61433e-06
-3.11501e-06
6.59356e-06
-3.19671e-06
5.37364e-06
-3.06482e-06
3.90701e-06
-2.86314e-06
2.22652e-06
-2.67741e-06
3.71505e-07
-2.48788e-06
-1.56362e-06
-2.33172e-06
-3.53182e-06
-2.17043e-06
-5.67083e-06
-1.84899e-06
-7.75085e-06
-1.65984e-06
-9.66449e-06
-1.51992e-06
-1.17075e-05
-9.68394e-07
-1.35236e-05
-7.62721e-07
-1.50748e-05
-5.14179e-07
-1.63706e-05
-2.24017e-07
-1.7504e-05
2.13646e-07
-1.85966e-05
8.84437e-07
-1.95567e-05
1.48255e-06
-2.08669e-05
2.5645e-06
-2.12564e-05
2.46807e-06
-2.07565e-05
2.44596e-06
-1.9376e-05
2.49798e-06
-1.72371e-05
2.64833e-06
-1.54639e-05
3.82897e-06
-1.44663e-05
5.43485e-06
-1.40956e-05
6.74774e-06
-1.29785e-05
6.67393e-06
-1.2872e-05
8.39798e-06
-1.02814e-05
6.66992e-06
-9.20694e-06
8.81362e-06
-8.7507e-06
1.03044e-05
-6.62192e-06
9.18487e-06
-4.07896e-06
9.50952e-06
-3.64837e-06
1.23047e-05
-2.45502e-06
1.21326e-05
4.80096e-07
1.06386e-05
2.35691e-06
1.1907e-05
4.94281e-06
1.19026e-05
5.05965e-06
1.51128e-05
3.1696e-06
1.77808e-05
1.45742e-06
1.82194e-05
1.4739e-06
1.71084e-05
-8.38086e-07
2.01228e-05
-3.38913e-06
2.17004e-05
-6.1171e-06
2.20718e-05
-5.80779e-06
1.92669e-05
-3.10829e-08
1.35624e-05
2.12849e-06
1.78643e-05
5.58707e-06
1.60538e-05
9.4894e-06
1.46991e-05
1.27154e-05
1.4487e-05
1.62005e-05
1.33188e-05
2.02973e-05
1.16028e-05
2.2004e-05
1.2455e-05
2.23093e-05
1.23686e-05
2.40672e-05
9.32829e-06
2.53242e-05
6.56042e-06
4.21033e-06
2.54588e-05
-5.49355e-07
1.60404e-07
-1.14557e-06
2.54362e-07
-1.67743e-06
1.71468e-07
-2.1404e-06
5.23411e-08
-2.56523e-06
-2.85921e-08
-2.98008e-06
-6.52983e-08
-3.39884e-06
-7.09415e-08
-3.79993e-06
-1.03872e-07
-4.16951e-06
-1.53501e-07
-4.51791e-06
-1.92483e-07
-4.85829e-06
-2.10143e-07
-5.19456e-06
-2.02879e-07
-5.54087e-06
-1.71764e-07
-5.90804e-06
-1.36949e-07
-6.28831e-06
-1.18947e-07
-6.68566e-06
-1.05888e-07
-7.10451e-06
-7.93096e-08
-7.53177e-06
-5.88852e-08
-7.95232e-06
-3.362e-08
-8.35709e-06
-1.02762e-08
-8.74924e-06
8.11142e-09
-9.13091e-06
1.89587e-08
-9.51652e-06
3.13383e-08
-9.89733e-06
4.92543e-08
-1.02598e-05
5.62083e-08
-1.06084e-05
7.04911e-08
-1.09367e-05
7.11093e-08
-1.12397e-05
6.24255e-08
-1.15221e-05
5.27463e-08
-1.17853e-05
4.56519e-08
-1.20134e-05
2.04657e-08
-1.21975e-05
-2.45447e-08
-1.23203e-05
-8.61012e-08
-1.23803e-05
-1.48311e-07
-1.23688e-05
-2.2643e-07
-1.22875e-05
-2.80028e-07
-1.21231e-05
-3.53959e-07
-1.18935e-05
-4.39614e-07
-1.15837e-05
-4.7574e-07
-1.11999e-05
-5.10864e-07
-1.07551e-05
-5.72237e-07
-1.02645e-05
-5.15947e-07
-9.74667e-06
-4.61856e-07
-9.14761e-06
-4.43035e-07
-8.54207e-06
-2.91278e-07
-7.89535e-06
-1.21488e-07
-7.17782e-06
-1.04779e-08
-6.5218e-06
-1.33789e-08
-6.20661e-06
1.25218e-07
-6.0824e-06
1.31571e-07
-6.01007e-06
1.32063e-07
-6.08367e-06
4.79648e-07
-6.32887e-06
6.64941e-07
-6.38398e-06
2.30564e-07
-6.41081e-06
-1.71343e-09
-6.52324e-06
2.21441e-07
-6.40098e-06
7.28571e-08
-5.9506e-06
-1.05847e-07
-5.43154e-06
-1.13218e-07
-5.18144e-06
3.1791e-07
-5.06598e-06
5.12401e-07
-5.02921e-06
5.975e-07
-4.98318e-06
5.18872e-07
-4.72707e-06
-1.65087e-08
-4.19559e-06
-6.6473e-07
-3.33057e-06
-1.46187e-06
-1.91635e-06
-2.51007e-06
-4.27312e-08
-3.41416e-06
2.22549e-06
-4.15422e-06
4.69015e-06
-4.60079e-06
6.83812e-06
-4.09427e-06
8.33994e-06
-2.75403e-06
9.60032e-06
-1.7105e-06
1.02161e-05
-2.05166e-07
9.63886e-06
1.98166e-06
8.68603e-06
2.40499e-06
6.93121e-06
2.34602e-06
5.43731e-06
1.14108e-06
5.62012e-06
-1.79681e-06
6.31851e-06
-3.2765e-06
6.16424e-06
-2.57716e-06
4.62702e-06
-9.69594e-07
1.94491e-06
5.1249e-07
-9.31298e-07
1.294e-06
-3.33226e-06
1.5906e-06
-5.2392e-06
1.67497e-06
-6.85547e-06
1.43785e-06
-8.2166e-06
9.43874e-07
-9.26983e-06
3.01689e-07
-1.01135e-05
-3.10182e-07
-1.07908e-05
-8.48912e-07
-1.13709e-05
-1.24677e-06
-1.17933e-05
-1.63534e-06
-1.1961e-05
-2.12658e-06
-1.17839e-05
-2.76306e-06
-1.12911e-05
-3.47288e-06
-1.05547e-05
-4.16993e-06
-9.65814e-06
-4.62562e-06
-8.7477e-06
-4.74436e-06
-7.84302e-06
-4.73687e-06
-6.69523e-06
-5.15761e-06
-5.34945e-06
-5.60754e-06
-3.6263e-06
-6.67467e-06
-2.30711e-06
-5.78454e-06
-7.77896e-07
-6.2324e-06
7.9637e-07
-6.81966e-06
2.22458e-06
-6.38833e-06
3.53974e-06
-6.42676e-06
5.08702e-06
-7.06416e-06
6.75602e-06
-7.27352e-06
7.88028e-06
-6.69152e-06
9.00031e-06
-7.00622e-06
1.00031e-05
-7.00096e-06
1.10243e-05
-7.22288e-06
1.2165e-05
-7.46667e-06
1.29882e-05
-7.24797e-06
1.29521e-05
-6.44167e-06
1.28817e-05
-6.61375e-06
1.35488e-05
-7.4281e-06
1.4166e-05
-7.36908e-06
1.3912e-05
-6.69437e-06
1.30106e-05
-6.30861e-06
1.19684e-05
-6.19128e-06
1.12048e-05
-6.47735e-06
1.03866e-05
-6.33531e-06
9.30866e-06
-5.89984e-06
8.00095e-06
-5.4712e-06
6.5833e-06
-5.20991e-06
4.98561e-06
-4.88183e-06
3.18776e-06
-4.44787e-06
1.23762e-06
-3.84003e-06
-8.04614e-07
-3.31879e-06
-2.63754e-06
-3.07683e-06
-4.32739e-06
-2.31007e-06
-6.4262e-06
-1.28937e-06
-8.32999e-06
-6.71315e-07
-9.81161e-06
-2.04711e-07
-1.13644e-05
9.80994e-07
-1.33874e-05
2.83225e-06
-1.48944e-05
3.51683e-06
-1.65082e-05
5.37932e-06
-1.65618e-05
4.58617e-06
-1.51835e-05
4.03901e-06
-1.30667e-05
4.42423e-06
-1.03085e-05
5.06829e-06
-8.0833e-06
7.75647e-06
-6.60784e-06
1.10382e-05
-5.9563e-06
1.40749e-05
-5.69876e-06
1.49964e-05
-5.93033e-06
1.81651e-05
-4.16643e-06
1.49301e-05
-3.77474e-06
1.92974e-05
-3.9996e-06
2.21968e-05
-2.23435e-06
1.93721e-05
1.19241e-06
1.89552e-05
1.89498e-06
2.58857e-05
3.58866e-06
2.51374e-05
8.29232e-06
2.04548e-05
1.11004e-05
2.36887e-05
1.42406e-05
2.41793e-05
1.53241e-05
3.09915e-05
1.27674e-05
3.8937e-05
8.70854e-06
4.15577e-05
5.20939e-06
4.0446e-05
1.52022e-07
4.64202e-05
-3.28394e-06
4.7633e-05
-5.71628e-06
4.57508e-05
-4.95375e-06
3.83449e-05
1.19515e-06
2.66398e-05
6.07116e-06
3.44235e-05
1.03377e-05
3.20544e-05
1.2966e-05
3.05641e-05
1.59285e-05
2.91768e-05
2.23917e-05
2.48073e-05
2.98088e-05
2.18363e-05
3.27253e-05
2.6207e-05
3.13057e-05
2.86465e-05
2.9894e-05
2.44325e-05
2.99355e-05
1.68162e-05
7.41774e-06
3.26147e-05
-5.22915e-07
2.32243e-07
-1.15186e-06
4.1775e-07
-1.67447e-06
2.27267e-07
-2.1251e-06
3.06922e-08
-2.49611e-06
-1.32227e-07
-2.86759e-06
-1.69154e-07
-3.26981e-06
-1.41759e-07
-3.67989e-06
-1.68673e-07
-4.04683e-06
-2.67212e-07
-4.37276e-06
-3.55199e-07
-4.72222e-06
-3.5123e-07
-5.17006e-06
-2.38265e-07
-5.68334e-06
-1.33386e-07
-6.2219e-06
-6.94481e-08
-6.79389e-06
-9.88936e-09
-7.36106e-06
2.46712e-08
-7.89713e-06
4.90344e-08
-8.42683e-06
7.8621e-08
-8.93354e-06
9.03748e-08
-9.417e-06
9.37371e-08
-9.89475e-06
1.07968e-07
-1.03813e-05
1.29872e-07
-1.0884e-05
1.61896e-07
-1.13946e-05
1.95938e-07
-1.19145e-05
2.22987e-07
-1.24132e-05
2.30701e-07
-1.29033e-05
2.42347e-07
-1.33678e-05
2.31575e-07
-1.38115e-05
2.25563e-07
-1.42144e-05
1.93707e-07
-1.45807e-05
1.447e-07
-1.48778e-05
5.65658e-08
-1.50861e-05
-5.21894e-08
-1.52004e-05
-1.69233e-07
-1.52334e-05
-3.06356e-07
-1.51695e-05
-4.37727e-07
-1.49856e-05
-6.00131e-07
-1.46968e-05
-7.5187e-07
-1.4291e-05
-8.76238e-07
-1.38077e-05
-9.79275e-07
-1.3262e-05
-1.09328e-06
-1.25755e-05
-1.13431e-06
-1.1814e-05
-1.11534e-06
-1.10324e-05
-1.13154e-06
-1.02131e-05
-9.91967e-07
-9.34019e-06
-7.94481e-07
-8.39409e-06
-7.74419e-07
-7.44534e-06
-7.9115e-07
-6.63373e-06
-4.26672e-07
-5.79905e-06
-4.42739e-07
-4.91389e-06
-5.14382e-07
-4.08046e-06
-4.46538e-08
-3.26037e-06
1.75095e-07
-2.67462e-06
-5.13896e-08
-2.67655e-06
3.30592e-07
-2.96139e-06
8.61964e-07
-3.24623e-06
7.17747e-07
-3.6367e-06
6.21089e-07
-3.91316e-06
4.92052e-07
-3.77201e-06
5.04829e-07
-3.37003e-06
4.25563e-07
-3.0563e-06
5.92743e-07
-2.76959e-06
5.25083e-07
-2.51449e-06
1.07509e-08
-2.25618e-06
-6.50625e-07
-1.84648e-06
-1.6307e-06
-1.03924e-06
-3.13057e-06
4.27043e-07
-4.73883e-06
2.32417e-06
-5.95207e-06
4.21558e-06
-6.44066e-06
5.92831e-06
-5.79463e-06
7.81271e-06
-4.68106e-06
9.21745e-06
-3.24793e-06
9.39188e-06
-5.34586e-07
9.60578e-06
1.57897e-06
9.31968e-06
2.37936e-06
7.86933e-06
3.41819e-06
7.14649e-06
1.48506e-06
6.45115e-06
-1.53962e-06
4.37141e-06
-1.75894e-06
1.27122e-06
-1.28349e-07
-1.67619e-06
1.25582e-06
-3.9665e-06
2.0031e-06
-5.79308e-06
2.24312e-06
-7.28292e-06
2.13399e-06
-8.40848e-06
1.79781e-06
-9.22688e-06
1.20456e-06
-9.79748e-06
4.15585e-07
-1.02458e-05
-3.98587e-07
-1.06022e-05
-1.15254e-06
-1.08966e-05
-1.79803e-06
-1.11053e-05
-2.31201e-06
-1.11858e-05
-2.84258e-06
-1.1107e-05
-3.49865e-06
-1.08377e-05
-4.33401e-06
-1.03014e-05
-5.3311e-06
-9.53562e-06
-6.28873e-06
-8.59965e-06
-6.94244e-06
-7.4945e-06
-7.24571e-06
-6.39851e-06
-7.23737e-06
-5.05852e-06
-7.89243e-06
-3.91445e-06
-8.17765e-06
-2.3702e-06
-9.66768e-06
-6.78648e-07
-8.95665e-06
7.38054e-07
-9.19902e-06
2.09105e-06
-9.74202e-06
3.83716e-06
-9.76207e-06
4.9561e-06
-9.34639e-06
5.97128e-06
-9.86563e-06
7.86307e-06
-1.09487e-05
9.19186e-06
-1.00055e-05
1.02704e-05
-1.01954e-05
1.12334e-05
-1.02422e-05
1.1875e-05
-1.03075e-05
1.28229e-05
-1.08016e-05
1.40896e-05
-1.08416e-05
1.4333e-05
-9.49897e-06
1.37847e-05
-9.46235e-06
1.36875e-05
-1.06204e-05
1.42799e-05
-1.06961e-05
1.47483e-05
-9.91446e-06
1.44751e-05
-9.46527e-06
1.3381e-05
-9.01858e-06
1.24304e-05
-9.31643e-06
1.16296e-05
-9.20849e-06
1.05326e-05
-8.70311e-06
9.0771e-06
-7.94902e-06
7.91618e-06
-7.73785e-06
6.97614e-06
-7.50254e-06
5.54873e-06
-6.61867e-06
3.4304e-06
-5.33878e-06
1.23829e-06
-4.51724e-06
-2.68482e-07
-4.57481e-06
-1.46852e-06
-3.82984e-06
-2.95235e-06
-2.24277e-06
-4.59612e-06
-9.71245e-07
-6.57459e-06
3.50643e-07
-9.30468e-06
3.08545e-06
-1.25939e-05
6.18909e-06
-1.5099e-05
6.4119e-06
-1.70667e-05
8.23172e-06
-1.72245e-05
6.31262e-06
-1.55139e-05
4.57385e-06
-1.24662e-05
4.58055e-06
-8.76595e-06
5.74016e-06
-6.05353e-06
1.0445e-05
-5.46936e-06
1.68438e-05
-5.16849e-06
2.12901e-05
-4.437e-06
2.23908e-05
-4.89371e-06
2.81676e-05
-2.37581e-06
2.15927e-05
-1.09179e-06
2.81597e-05
-2.02423e-07
3.18249e-05
1.30363e-06
2.87723e-05
3.96576e-06
2.74614e-05
4.40033e-06
3.82249e-05
4.4774e-06
3.7643e-05
9.01417e-06
2.76158e-05
1.23835e-05
3.27267e-05
1.48449e-05
3.46989e-05
1.70875e-05
4.31794e-05
1.65059e-05
5.68082e-05
1.26067e-05
6.36717e-05
8.16218e-06
6.35286e-05
3.39446e-06
7.18139e-05
1.63091e-07
6.99499e-05
-2.79179e-07
6.41764e-05
2.75919e-07
5.50122e-05
3.44113e-06
4.09303e-05
8.18061e-06
4.56401e-05
1.35495e-05
4.21894e-05
1.40834e-05
4.58807e-05
1.35188e-05
4.44411e-05
1.71109e-05
3.37898e-05
2.73312e-05
2.38916e-05
3.6307e-05
3.2783e-05
3.77742e-05
4.18992e-05
3.2444e-05
4.2524e-05
2.76357e-05
2.94277e-05
7.34564e-06
3.37424e-05
-4.20797e-07
1.81663e-07
-1.05812e-06
5.68759e-07
-1.61941e-06
3.02088e-07
-2.05283e-06
-3.3348e-08
-2.43319e-06
-2.53755e-07
-2.80458e-06
-2.99357e-07
-3.19085e-06
-2.56478e-07
-3.61471e-06
-2.4799e-07
-4.09341e-06
-3.06021e-07
-4.64232e-06
-3.38021e-07
-5.25627e-06
-2.42293e-07
-5.88461e-06
-6.27692e-08
-6.56167e-06
9.47535e-08
-7.22469e-06
1.3546e-07
-7.81457e-06
1.51953e-07
-8.38043e-06
1.57651e-07
-8.917e-06
1.42172e-07
-9.44345e-06
1.72118e-07
-1.00078e-05
2.04353e-07
-1.06117e-05
2.41341e-07
-1.12465e-05
2.87899e-07
-1.19011e-05
3.32082e-07
-1.25569e-05
3.83128e-07
-1.32314e-05
4.51076e-07
-1.39139e-05
5.05895e-07
-1.45925e-05
5.36172e-07
-1.52191e-05
5.31543e-07
-1.58002e-05
5.10486e-07
-1.6322e-05
4.64796e-07
-1.6786e-05
3.86033e-07
-1.71994e-05
3.1057e-07
-1.75008e-05
1.60257e-07
-1.76914e-05
-6.62038e-09
-1.77732e-05
-2.08656e-07
-1.7798e-05
-4.01066e-07
-1.77005e-05
-6.44111e-07
-1.746e-05
-9.23662e-07
-1.71207e-05
-1.143e-06
-1.66405e-05
-1.37762e-06
-1.6077e-05
-1.53685e-06
-1.54672e-05
-1.68759e-06
-1.47949e-05
-1.78469e-06
-1.40023e-05
-1.8551e-06
-1.31877e-05
-1.84622e-06
-1.22993e-05
-1.75412e-06
-1.13241e-05
-1.64201e-06
-1.03701e-05
-1.58573e-06
-9.46721e-06
-1.52076e-06
-8.40717e-06
-1.28311e-06
-7.27202e-06
-1.34702e-06
-6.40523e-06
-1.13117e-06
-5.42812e-06
-7.65245e-07
-4.27623e-06
-7.13115e-07
-3.31228e-06
-7.31705e-07
-2.537e-06
-1.35734e-07
-1.56896e-06
2.04833e-07
-7.35639e-07
2.10852e-07
-4.06732e-07
6.25733e-07
-4.51712e-07
8.67052e-07
-5.42454e-07
9.17976e-07
-6.84375e-07
8.80295e-07
-6.196e-07
8.29027e-07
-2.74036e-07
4.62121e-07
1.77149e-07
-1.70008e-07
4.57116e-07
-6.78065e-07
6.21406e-07
-1.57388e-06
9.98326e-07
-3.32904e-06
1.82414e-06
-5.42625e-06
2.93225e-06
-6.95101e-06
4.20561e-06
-7.63506e-06
5.68756e-06
-7.23192e-06
7.00581e-06
-6.00362e-06
7.41619e-06
-3.76394e-06
7.72468e-06
-1.0275e-06
8.10497e-06
9.80807e-07
6.98202e-06
3.2438e-06
6.20334e-06
3.87421e-06
5.622e-06
1.68112e-06
3.21613e-06
4.15913e-07
-1.31092e-07
1.05558e-06
-2.97907e-06
2.10286e-06
-5.06759e-06
2.65846e-06
-6.5076e-06
2.68445e-06
-7.51088e-06
2.4247e-06
-8.27732e-06
2.02631e-06
-8.83782e-06
1.44087e-06
-9.24568e-06
6.59214e-07
-9.5791e-06
-2.43498e-07
-9.88319e-06
-1.13304e-06
-1.01721e-05
-1.94871e-06
-1.04148e-05
-2.68339e-06
-1.05322e-05
-3.35495e-06
-1.04943e-05
-4.06123e-06
-1.03003e-05
-4.889e-06
-9.97457e-06
-5.87412e-06
-9.56005e-06
-6.98022e-06
-8.96634e-06
-8.13259e-06
-8.24233e-06
-8.91664e-06
-6.94884e-06
-9.77362e-06
-5.51034e-06
-9.90089e-06