/*--------------------------------*- C++ -*----------------------------------*\
| =========                 |                                                 |
| \\      /  F ield         | OpenFOAM: The Open Source CFD Toolbox           |
|  \\    /   O peration     | Version:  dev                                   |
|   \\  /    A nd           | Web:      http://www.openfoam.org               |
|    \\/     M anipulation  |                                                 |
\*---------------------------------------------------------------------------*/
FoamFile
{
    version     2.0;
    format      ascii;
    class       volScalarField;
    object      pPrime2Mean;
    location    "9.151";
}
// * * * * * * * * * * * * * * * * * * * * * * * * * * * * * * * * * * * * * //

dimensions      [2 -2 -4 0 0 0 0];

internalField   nonuniform List<scalar> 
12225
(
5.0363e+07
4.98978e+07
4.89368e+07
4.75852e+07
4.59309e+07
4.40635e+07
4.20421e+07
3.99387e+07
3.77941e+07
3.56565e+07
3.35636e+07
3.15183e+07
2.95947e+07
2.77234e+07
2.59758e+07
2.44153e+07
2.28534e+07
2.12735e+07
5.02552e+07
4.979e+07
4.88298e+07
4.74799e+07
4.58271e+07
4.3962e+07
4.19434e+07
3.98426e+07
3.7702e+07
3.55671e+07
3.34788e+07
3.14373e+07
2.95182e+07
2.76538e+07
2.59237e+07
2.43632e+07
2.28544e+07
2.15204e+07
5.00052e+07
4.95406e+07
4.85808e+07
4.7234e+07
4.55857e+07
4.37254e+07
4.17135e+07
3.9619e+07
3.74865e+07
3.53597e+07
3.32799e+07
3.125e+07
2.9337e+07
2.74898e+07
2.57795e+07
2.4224e+07
2.27889e+07
2.15761e+07
4.95697e+07
4.9108e+07
4.81505e+07
4.68089e+07
4.51686e+07
4.33168e+07
4.13166e+07
3.92325e+07
3.71148e+07
3.50015e+07
3.29376e+07
3.09255e+07
2.90297e+07
2.72018e+07
2.55212e+07
2.39902e+07
2.26039e+07
2.15034e+07
4.89049e+07
4.84434e+07
4.74907e+07
4.61585e+07
4.453e+07
4.26927e+07
4.07083e+07
3.86436e+07
3.65449e+07
3.44557e+07
3.24121e+07
3.04307e+07
2.85575e+07
2.67657e+07
2.51374e+07
2.36287e+07
2.23476e+07
2.12835e+07
4.7956e+07
4.7492e+07
4.65488e+07
4.523e+07
4.36195e+07
4.1802e+07
3.98423e+07
3.78032e+07
3.57346e+07
3.36751e+07
3.16656e+07
2.97185e+07
2.78835e+07
2.61383e+07
2.45593e+07
2.31201e+07
2.18934e+07
2.08371e+07
4.66615e+07
4.61962e+07
4.52685e+07
4.39661e+07
4.23816e+07
4.05898e+07
3.86657e+07
3.666e+07
3.46343e+07
3.26137e+07
3.06527e+07
2.87511e+07
2.69675e+07
2.528e+07
2.37581e+07
2.2379e+07
2.12106e+07
2.01828e+07
4.522e+07
4.47563e+07
4.38449e+07
4.25603e+07
4.10046e+07
3.92424e+07
3.73568e+07
3.53901e+07
3.34097e+07
3.14353e+07
2.95241e+07
2.76762e+07
2.59441e+07
2.43198e+07
2.28463e+07
2.15304e+07
2.03946e+07
1.94349e+07
4.37057e+07
4.32455e+07
4.23504e+07
4.10855e+07
3.95594e+07
3.78297e+07
3.59835e+07
3.40591e+07
3.2125e+07
3.02001e+07
2.83398e+07
2.65476e+07
2.48692e+07
2.33056e+07
2.18842e+07
2.06244e+07
1.95305e+07
1.8632e+07
4.17663e+07
4.13127e+07
4.04371e+07
3.91998e+07
3.77102e+07
3.60244e+07
3.42271e+07
3.23588e+07
3.04819e+07
2.86219e+07
2.68245e+07
2.51038e+07
2.34915e+07
2.20026e+07
2.06475e+07
1.94553e+07
1.84182e+07
1.75656e+07
3.93185e+07
3.8875e+07
3.80229e+07
3.68224e+07
3.53786e+07
3.37499e+07
3.20146e+07
3.02174e+07
2.84137e+07
2.6634e+07
2.49168e+07
2.32821e+07
2.17536e+07
2.03508e+07
1.90787e+07
1.79632e+07
1.69931e+07
1.61866e+07
3.62962e+07
3.58676e+07
3.50436e+07
3.38921e+07
3.25055e+07
3.09502e+07
2.92922e+07
2.75841e+07
2.58709e+07
2.41901e+07
2.25711e+07
2.10394e+07
1.96117e+07
1.83082e+07
1.71327e+07
1.61015e+07
1.5207e+07
1.44537e+07
3.26844e+07
3.22745e+07
3.14869e+07
3.03966e+07
2.90822e+07
2.76158e+07
2.60537e+07
2.44522e+07
2.28491e+07
2.12848e+07
1.97826e+07
1.83699e+07
1.70587e+07
1.58674e+07
1.47984e+07
1.38608e+07
1.30495e+07
1.23613e+07
2.85743e+07
2.81871e+07
2.74463e+07
2.64283e+07
2.52023e+07
2.38394e+07
2.23912e+07
2.09118e+07
1.94369e+07
1.80035e+07
1.66341e+07
1.53521e+07
1.41694e+07
1.30987e+07
1.21433e+07
1.1306e+07
1.05834e+07
9.96931e+06
2.42512e+07
2.38904e+07
2.32057e+07
2.22685e+07
2.11426e+07
1.9894e+07
1.85714e+07
1.72243e+07
1.5887e+07
1.45924e+07
1.3362e+07
1.22152e+07
1.11629e+07
1.02139e+07
9.37083e+06
8.63368e+06
7.99923e+06
7.4608e+06
2.03054e+07
1.99733e+07
1.93482e+07
1.84927e+07
1.74683e+07
1.63328e+07
1.5134e+07
1.39151e+07
1.27096e+07
1.15457e+07
1.04442e+07
9.42056e+06
8.4849e+06
7.64324e+06
6.89748e+06
6.24634e+06
5.68665e+06
5.21218e+06
1.77405e+07
1.7434e+07
1.6859e+07
1.60714e+07
1.51295e+07
1.4085e+07
1.29835e+07
1.18641e+07
1.07583e+07
9.69133e+06
8.68218e+06
7.74441e+06
6.88674e+06
6.11394e+06
5.42738e+06
4.82569e+06
4.30588e+06
3.86258e+06
1.78485e+07
1.75539e+07
1.70012e+07
1.62433e+07
1.5336e+07
1.43286e+07
1.32647e+07
1.21812e+07
1.11083e+07
1.00696e+07
9.08299e+06
8.16105e+06
7.31193e+06
6.54012e+06
5.84702e+06
5.23181e+06
4.69196e+06
4.22315e+06
2.07248e+07
2.04257e+07
1.98633e+07
1.90904e+07
1.81637e+07
1.71324e+07
1.604e+07
1.49231e+07
1.38117e+07
1.27292e+07
1.16932e+07
1.07163e+07
9.80683e+06
8.96959e+06
8.20649e+06
7.51743e+06
6.90059e+06
6.35259e+06
2.52109e+07
2.48989e+07
2.43086e+07
2.34946e+07
2.25165e+07
2.1425e+07
2.02648e+07
1.90736e+07
1.78818e+07
1.67135e+07
1.55868e+07
1.4515e+07
1.35068e+07
1.25676e+07
1.17e+07
1.09048e+07
1.01808e+07
9.52557e+06
3.02693e+07
2.99433e+07
2.93197e+07
2.84563e+07
2.74158e+07
2.62512e+07
2.5009e+07
2.37284e+07
2.2441e+07
2.1172e+07
1.99402e+07
1.87596e+07
1.76397e+07
1.65867e+07
1.5604e+07
1.4693e+07
1.38533e+07
1.30832e+07
3.51822e+07
3.48444e+07
3.41899e+07
3.32794e+07
3.21788e+07
3.0943e+07
2.96207e+07
2.82525e+07
2.68716e+07
2.5504e+07
2.41698e+07
2.28836e+07
2.16559e+07
2.04934e+07
1.94004e+07
1.83789e+07
1.74291e+07
1.65501e+07
3.95305e+07
3.91844e+07
3.85044e+07
3.75543e+07
3.64021e+07
3.51046e+07
3.37122e+07
3.22671e+07
3.08038e+07
2.93494e+07
2.79248e+07
2.65455e+07
2.52228e+07
2.39641e+07
2.27742e+07
2.16559e+07
2.06099e+07
1.96356e+07
4.31254e+07
4.27742e+07
4.2075e+07
4.10938e+07
3.99005e+07
3.85533e+07
3.71039e+07
3.55959e+07
3.4065e+07
3.25391e+07
3.10402e+07
2.95843e+07
2.81833e+07
2.68454e+07
2.55759e+07
2.43779e+07
2.32528e+07
2.22004e+07
4.59331e+07
4.5579e+07
4.48659e+07
4.38619e+07
4.26376e+07
4.12523e+07
3.9759e+07
3.82024e+07
3.6619e+07
3.50377e+07
3.34808e+07
3.19653e+07
3.05035e+07
2.9104e+07
2.77725e+07
2.65126e+07
2.53259e+07
2.42126e+07
4.80108e+07
4.7655e+07
4.69324e+07
4.59122e+07
4.46655e+07
4.32525e+07
4.17271e+07
4.01349e+07
3.85129e+07
3.68907e+07
3.52912e+07
3.37318e+07
3.22252e+07
3.07803e+07
2.94032e+07
2.80978e+07
2.68657e+07
2.57076e+07
4.94593e+07
4.91027e+07
4.83733e+07
4.73423e+07
4.60803e+07
4.46484e+07
4.31011e+07
4.14843e+07
3.98357e+07
3.81853e+07
3.65563e+07
3.49665e+07
3.34287e+07
3.19524e+07
3.05437e+07
2.92067e+07
2.79432e+07
2.67539e+07
5.0394e+07
5.00364e+07
4.93029e+07
4.82652e+07
4.69934e+07
4.55495e+07
4.39882e+07
4.23558e+07
4.06903e+07
3.90218e+07
3.73739e+07
3.57645e+07
3.42069e+07
3.27103e+07
3.12813e+07
2.99239e+07
2.86403e+07
2.74311e+07
5.0923e+07
5.0565e+07
4.98299e+07
4.87891e+07
4.7512e+07
4.60615e+07
4.44924e+07
4.2851e+07
4.11756e+07
3.94967e+07
3.7838e+07
3.62174e+07
3.46482e+07
3.31401e+07
3.16993e+07
3.03303e+07
2.90353e+07
2.78151e+07
5.11451e+07
5.07886e+07
5.00516e+07
4.9009e+07
4.77293e+07
4.6276e+07
4.47035e+07
4.30583e+07
4.13787e+07
3.96953e+07
3.80319e+07
3.64065e+07
3.48324e+07
3.33192e+07
3.18735e+07
3.04995e+07
2.91998e+07
2.79752e+07
6.04749e+07
6.04159e+07
6.02852e+07
6.00795e+07
5.97969e+07
5.94366e+07
5.89987e+07
5.8484e+07
5.78936e+07
5.7229e+07
5.6492e+07
5.56847e+07
5.48095e+07
5.38688e+07
5.28654e+07
5.18024e+07
5.0683e+07
4.95105e+07
4.82888e+07
4.70217e+07
4.57131e+07
4.43671e+07
4.29879e+07
4.158e+07
4.01478e+07
3.86957e+07
3.72284e+07
3.57502e+07
3.42657e+07
3.27793e+07
3.12958e+07
2.98196e+07
2.83554e+07
2.69077e+07
2.54812e+07
2.40804e+07
2.271e+07
2.13746e+07
2.0079e+07
1.88281e+07
1.76265e+07
1.64792e+07
1.53913e+07
1.43677e+07
1.34137e+07
1.25345e+07
1.17353e+07
1.10216e+07
1.03988e+07
9.87237e+06
9.44773e+06
9.13034e+06
8.92559e+06
8.83877e+06
8.87496e+06
9.03899e+06
9.33542e+06
9.7685e+06
1.03421e+07
1.10594e+07
1.19233e+07
1.29358e+07
1.40984e+07
1.54119e+07
1.68761e+07
1.84903e+07
2.02528e+07
2.21611e+07
2.42122e+07
2.64022e+07
2.87264e+07
3.11797e+07
3.3756e+07
3.6449e+07
3.92519e+07
4.21573e+07
4.51577e+07
4.82454e+07
5.14126e+07
5.46512e+07
5.79532e+07
6.13103e+07
6.47143e+07
6.81565e+07
7.16282e+07
7.51207e+07
7.86247e+07
8.21308e+07
8.5629e+07
8.91088e+07
9.25593e+07
9.5969e+07
9.93259e+07
1.02617e+08
1.05831e+08
1.08954e+08
1.11975e+08
1.14879e+08
1.17658e+08
1.20299e+08
1.22794e+08
1.25133e+08
1.27312e+08
1.29322e+08
1.31162e+08
1.32828e+08
1.34322e+08
1.35645e+08
1.36803e+08
1.37803e+08
1.38656e+08
1.39372e+08
1.39966e+08
1.40451e+08
1.40845e+08
1.41164e+08
1.41428e+08
1.41659e+08
1.41881e+08
1.4212e+08
1.42405e+08
1.4277e+08
1.43252e+08
1.4389e+08
1.44728e+08
1.45814e+08
1.47201e+08
1.48944e+08
1.51106e+08
1.53747e+08
1.56932e+08
1.60723e+08
1.65182e+08
1.70364e+08
1.76324e+08
1.83107e+08
1.90749e+08
1.99276e+08
2.08704e+08
2.19035e+08
2.30263e+08
2.42366e+08
2.55316e+08
2.6907e+08
2.83588e+08
2.98804e+08
3.14671e+08
3.31117e+08
3.48079e+08
3.65482e+08
3.83251e+08
4.01304e+08
4.19549e+08
4.37893e+08
4.56214e+08
4.74373e+08
4.92206e+08
5.09543e+08
5.26153e+08
5.41799e+08
5.56184e+08
5.69007e+08
5.79928e+08
5.88625e+08
5.94762e+08
5.98043e+08
5.98208e+08
5.95076e+08
5.88522e+08
5.78572e+08
5.65306e+08
5.48992e+08
5.29947e+08
5.08665e+08
4.85619e+08
4.61336e+08
4.36182e+08
4.10591e+08
3.84775e+08
3.59059e+08
5.94003e+07
5.93447e+07
5.92196e+07
5.90198e+07
5.87436e+07
5.83909e+07
5.79624e+07
5.74591e+07
5.68822e+07
5.62332e+07
5.55138e+07
5.47259e+07
5.38718e+07
5.29538e+07
5.19745e+07
5.09366e+07
4.98433e+07
4.86978e+07
4.75037e+07
4.62647e+07
4.49846e+07
4.36674e+07
4.23173e+07
4.09386e+07
3.95356e+07
3.81126e+07
3.66742e+07
3.52244e+07
3.37679e+07
3.23088e+07
3.08518e+07
2.94015e+07
2.79622e+07
2.65386e+07
2.51351e+07
2.37564e+07
2.24068e+07
2.10911e+07
1.98139e+07
1.858e+07
1.73942e+07
1.62614e+07
1.51865e+07
1.41745e+07
1.32307e+07
1.23603e+07
1.15684e+07
1.08606e+07
1.02422e+07
9.71877e+06
9.29567e+06
8.97836e+06
8.77223e+06
8.68252e+06
8.71434e+06
8.87258e+06
9.16181e+06
9.58624e+06
1.01497e+07
1.08554e+07
1.17062e+07
1.27042e+07
1.38507e+07
1.51464e+07
1.65915e+07
1.81849e+07
1.99251e+07
2.18096e+07
2.38353e+07
2.59984e+07
2.82942e+07
3.07174e+07
3.32623e+07
3.59224e+07
3.86908e+07
4.15604e+07
4.45238e+07
4.75733e+07
5.07009e+07
5.38988e+07
5.71588e+07
6.04729e+07
6.38326e+07
6.72297e+07
7.06556e+07
7.41012e+07
7.75576e+07
8.10153e+07
8.44645e+07
8.78948e+07
9.12954e+07
9.46549e+07
9.79615e+07
1.01203e+08
1.04367e+08
1.07441e+08
1.10412e+08
1.1327e+08
1.16002e+08
1.18598e+08
1.2105e+08
1.23349e+08
1.25489e+08
1.27464e+08
1.29271e+08
1.30908e+08
1.32374e+08
1.33672e+08
1.34808e+08
1.3579e+08
1.36627e+08
1.37329e+08
1.37912e+08
1.38388e+08
1.38773e+08
1.39085e+08
1.39342e+08
1.39566e+08
1.3978e+08
1.40009e+08
1.40283e+08
1.40635e+08
1.41099e+08
1.41716e+08
1.42527e+08
1.43581e+08
1.44928e+08
1.46625e+08
1.48731e+08
1.51308e+08
1.54419e+08
1.58125e+08
1.62487e+08
1.6756e+08
1.73398e+08
1.80044e+08
1.87536e+08
1.95899e+08
2.05149e+08
2.15289e+08
2.26312e+08
2.38197e+08
2.50917e+08
2.64433e+08
2.787e+08
2.93657e+08
3.09255e+08
3.25431e+08
3.42117e+08
3.5924e+08
3.76728e+08
3.94499e+08
4.12467e+08
4.3054e+08
4.48595e+08
4.66498e+08
4.84087e+08
5.01198e+08
5.17603e+08
5.33068e+08
5.47308e+08
5.60025e+08
5.70883e+08
5.79565e+08
5.85741e+08
5.89125e+08
5.89457e+08
5.86562e+08
5.80309e+08
5.7071e+08
5.57839e+08
5.41952e+08
5.23354e+08
5.02527e+08
4.79931e+08
4.56079e+08
4.31334e+08
4.06125e+08
3.80662e+08
3.55184e+08
5.73358e+07
5.72827e+07
5.71632e+07
5.69718e+07
5.67072e+07
5.63699e+07
5.5961e+07
5.54815e+07
5.49323e+07
5.43147e+07
5.36302e+07
5.28804e+07
5.20672e+07
5.11927e+07
5.02592e+07
4.92692e+07
4.82255e+07
4.71312e+07
4.59896e+07
4.48042e+07
4.35785e+07
4.23166e+07
4.10223e+07
3.96996e+07
3.83527e+07
3.69854e+07
3.56019e+07
3.42063e+07
3.28029e+07
3.1396e+07
2.99901e+07
2.85893e+07
2.71982e+07
2.5821e+07
2.44622e+07
2.31259e+07
2.18168e+07
2.05391e+07
1.92976e+07
1.8097e+07
1.69418e+07
1.5837e+07
1.47875e+07
1.37982e+07
1.28743e+07
1.20209e+07
1.12434e+07
1.05472e+07
9.93753e+06
9.41995e+06
8.99988e+06
8.68274e+06
8.47395e+06
8.37874e+06
8.40221e+06
8.54924e+06
8.82439e+06
9.2319e+06
9.77555e+06
1.04586e+07
1.12838e+07
1.22532e+07
1.33681e+07
1.46294e+07
1.60367e+07
1.75894e+07
1.92858e+07
2.11234e+07
2.30992e+07
2.52092e+07
2.74491e+07
2.98134e+07
3.22964e+07
3.48918e+07
3.75929e+07
4.03925e+07
4.32834e+07
4.62579e+07
4.93084e+07
5.2427e+07
5.56055e+07
5.8836e+07
6.21103e+07
6.542e+07
6.87567e+07
7.21116e+07
7.54759e+07
7.884e+07
8.21945e+07
8.5529e+07
8.88329e+07
9.20951e+07
9.53042e+07
9.84483e+07
1.01515e+08
1.04493e+08
1.07369e+08
1.10134e+08
1.12775e+08
1.15284e+08
1.17652e+08
1.19871e+08
1.21935e+08
1.2384e+08
1.25582e+08
1.2716e+08
1.28572e+08
1.29823e+08
1.30917e+08
1.31863e+08
1.32669e+08
1.33345e+08
1.33906e+08
1.34363e+08
1.34732e+08
1.35028e+08
1.35271e+08
1.3548e+08
1.35678e+08
1.35889e+08
1.36141e+08
1.36464e+08
1.36893e+08
1.37466e+08
1.38223e+08
1.39211e+08
1.4048e+08
1.42083e+08
1.44079e+08
1.46527e+08
1.49489e+08
1.53027e+08
1.57196e+08
1.62053e+08
1.67647e+08
1.74023e+08
1.81217e+08
1.89256e+08
1.98153e+08
2.07913e+08
2.18529e+08
2.29982e+08
2.42249e+08
2.55291e+08
2.69063e+08
2.83509e+08
2.98575e+08
3.1421e+08
3.30346e+08
3.46912e+08
3.63837e+08
3.81048e+08
3.98461e+08
4.15982e+08
4.33497e+08
4.50878e+08
4.67966e+08
4.84601e+08
5.00568e+08
5.15638e+08
5.29545e+08
5.41996e+08
5.52672e+08
5.6127e+08
5.67469e+08
5.70999e+08
5.71611e+08
5.6913e+08
5.63424e+08
5.54479e+08
5.42369e+08
5.27319e+08
5.09614e+08
4.89708e+08
4.68029e+08
4.45057e+08
4.21164e+08
3.96749e+08
3.72038e+08
3.47202e+08
5.44431e+07
5.43938e+07
5.42817e+07
5.41025e+07
5.38557e+07
5.35423e+07
5.31629e+07
5.27181e+07
5.22087e+07
5.16357e+07
5.10001e+07
5.03031e+07
4.95464e+07
4.87317e+07
4.78609e+07
4.69364e+07
4.59608e+07
4.49369e+07
4.38677e+07
4.27564e+07
4.16064e+07
4.04213e+07
3.92046e+07
3.79599e+07
3.66907e+07
3.54006e+07
3.40936e+07
3.27735e+07
3.14444e+07
3.01106e+07
2.8776e+07
2.74448e+07
2.6121e+07
2.48088e+07
2.35122e+07
2.22353e+07
2.09825e+07
1.97582e+07
1.85667e+07
1.74125e+07
1.63004e+07
1.5235e+07
1.42211e+07
1.32637e+07
1.23678e+07
1.15387e+07
1.07814e+07
1.01015e+07
9.50417e+06
8.99494e+06
8.57921e+06
8.26241e+06
8.04991e+06
7.94692e+06
7.95852e+06
8.08961e+06
8.34476e+06
8.72817e+06
9.24358e+06
9.89424e+06
1.06828e+07
1.16114e+07
1.26813e+07
1.38932e+07
1.52469e+07
1.67416e+07
1.83756e+07
2.01465e+07
2.20514e+07
2.40863e+07
2.62469e+07
2.85278e+07
3.09236e+07
3.34278e+07
3.6034e+07
3.87353e+07
4.15244e+07
4.43939e+07
4.73364e+07
5.0344e+07
5.34088e+07
5.65229e+07
5.96783e+07
6.28666e+07
6.60795e+07
6.93084e+07
7.25447e+07
7.57792e+07
7.90021e+07
8.22038e+07
8.53736e+07
8.85008e+07
9.15743e+07
9.45824e+07
9.75138e+07
1.00357e+08
1.031e+08
1.05734e+08
1.08249e+08
1.10634e+08
1.12883e+08
1.14989e+08
1.16947e+08
1.18752e+08
1.20401e+08
1.21894e+08
1.2323e+08
1.24413e+08
1.25448e+08
1.26341e+08
1.27101e+08
1.2774e+08
1.28267e+08
1.28697e+08
1.29041e+08
1.29315e+08
1.29536e+08
1.29723e+08
1.29897e+08
1.3008e+08
1.30299e+08
1.3058e+08
1.30957e+08
1.31466e+08
1.32145e+08
1.3304e+08
1.34197e+08
1.35669e+08
1.37508e+08
1.39775e+08
1.42527e+08
1.45825e+08
1.49723e+08
1.54275e+08
1.59528e+08
1.65526e+08
1.72302e+08
1.79885e+08
1.88289e+08
1.97519e+08
2.07567e+08
2.18419e+08
2.30053e+08
2.42437e+08
2.5552e+08
2.69256e+08
2.83588e+08
2.98474e+08
3.13851e+08
3.2965e+08
3.458e+08
3.6224e+08
3.78884e+08
3.95645e+08
4.1241e+08
4.29064e+08
4.45453e+08
4.6142e+08
4.76769e+08
4.91275e+08
5.04693e+08
5.16744e+08
5.27131e+08
5.35569e+08
5.41755e+08
5.45434e+08
5.46366e+08
5.44385e+08
5.39358e+08
5.31257e+08
5.20144e+08
5.06206e+08
4.89707e+08
4.71059e+08
4.50647e+08
4.28913e+08
4.06216e+08
3.82933e+08
3.59301e+08
3.35472e+08
5.09225e+07
5.08785e+07
5.07766e+07
5.06137e+07
5.03901e+07
5.01063e+07
4.97627e+07
4.93595e+07
4.88975e+07
4.83772e+07
4.77993e+07
4.71648e+07
4.64749e+07
4.57311e+07
4.49352e+07
4.40893e+07
4.31956e+07
4.22564e+07
4.12745e+07
4.02527e+07
3.91941e+07
3.81017e+07
3.69785e+07
3.58276e+07
3.46522e+07
3.34555e+07
3.22413e+07
3.10132e+07
2.97749e+07
2.85303e+07
2.7283e+07
2.60367e+07
2.47952e+07
2.35623e+07
2.23417e+07
2.11374e+07
1.99537e+07
1.87945e+07
1.76642e+07
1.6567e+07
1.55076e+07
1.44904e+07
1.35203e+07
1.2602e+07
1.17406e+07
1.0941e+07
1.02086e+07
9.54859e+06
8.96635e+06
8.4673e+06
8.05682e+06
7.7403e+06
7.52312e+06
7.41047e+06
7.4074e+06
7.51875e+06
7.74906e+06
8.10247e+06
8.5827e+06
9.19298e+06
9.93595e+06
1.08137e+07
1.18274e+07
1.29778e+07
1.42647e+07
1.56872e+07
1.72436e+07
1.89317e+07
2.07485e+07
2.26901e+07
2.47523e+07
2.69299e+07
2.92174e+07
3.16088e+07
3.40976e+07
3.66771e+07
3.93403e+07
4.20802e+07
4.48892e+07
4.77598e+07
5.06843e+07
5.36549e+07
5.66638e+07
5.97028e+07
6.27638e+07
6.58382e+07
6.89176e+07
7.19931e+07
7.50551e+07
7.80941e+07
8.11001e+07
8.40626e+07
8.69708e+07
8.98136e+07
9.25801e+07
9.52595e+07
9.78416e+07
1.00317e+08
1.02676e+08
1.04911e+08
1.07014e+08
1.08981e+08
1.10808e+08
1.1249e+08
1.14025e+08
1.15412e+08
1.16653e+08
1.17752e+08
1.18711e+08
1.19538e+08
1.20242e+08
1.20831e+08
1.21316e+08
1.21708e+08
1.2202e+08
1.22264e+08
1.22456e+08
1.22614e+08
1.22755e+08
1.22902e+08
1.23077e+08
1.23306e+08
1.23619e+08
1.2405e+08
1.24635e+08
1.25415e+08
1.26435e+08
1.27745e+08
1.29396e+08
1.31442e+08
1.33938e+08
1.36944e+08
1.40511e+08
1.44691e+08
1.4953e+08
1.55068e+08
1.61339e+08
1.68372e+08
1.7618e+08
1.84769e+08
1.94135e+08
2.04263e+08
2.15134e+08
2.26721e+08
2.3898e+08
2.51864e+08
2.6532e+08
2.79311e+08
2.93779e+08
3.08664e+08
3.23893e+08
3.3941e+08
3.55136e+08
3.70985e+08
3.86851e+08
4.02626e+08
4.18168e+08
4.33327e+08
4.4792e+08
4.61737e+08
4.74541e+08
4.86083e+08
4.96091e+08
5.04296e+08
5.10419e+08
5.14218e+08
5.15469e+08
5.14018e+08
5.09738e+08
5.02586e+08
4.92606e+08
4.79951e+08
4.64861e+08
4.47695e+08
4.28793e+08
4.0856e+08
3.87323e+08
3.65432e+08
3.43138e+08
3.20599e+08
4.69968e+07
4.69598e+07
4.68704e+07
4.67267e+07
4.65291e+07
4.6278e+07
4.59735e+07
4.56158e+07
4.52053e+07
4.4742e+07
4.42266e+07
4.36599e+07
4.3043e+07
4.23769e+07
4.16632e+07
4.09035e+07
4.00997e+07
3.92538e+07
3.83682e+07
3.74452e+07
3.64875e+07
3.54974e+07
3.44775e+07
3.34304e+07
3.23589e+07
3.12661e+07
3.01553e+07
2.90298e+07
2.78929e+07
2.67477e+07
2.55978e+07
2.44463e+07
2.32968e+07
2.21525e+07
2.10172e+07
1.98945e+07
1.87883e+07
1.77024e+07
1.6641e+07
1.56081e+07
1.46081e+07
1.36453e+07
1.27245e+07
1.18503e+07
1.10276e+07
1.02614e+07
9.55684e+06
8.91924e+06
8.3539e+06
7.86618e+06
7.46144e+06
7.14507e+06
6.92239e+06
6.79859e+06
6.77866e+06
6.86736e+06
7.06922e+06
7.38832e+06
7.82832e+06
8.39239e+06
9.08314e+06
9.90255e+06
1.08519e+07
1.19319e+07
1.31423e+07
1.44821e+07
1.59499e+07
1.75431e+07
1.9259e+07
2.10939e+07
2.30435e+07
2.5103e+07
2.72668e+07
2.95291e+07
3.18838e+07
3.43243e+07
3.6844e+07
3.94357e+07
4.20924e+07
4.48067e+07
4.75712e+07
5.03782e+07
5.322e+07
5.60889e+07
5.89768e+07
6.18755e+07
6.47765e+07
6.76713e+07
7.05506e+07
7.34051e+07
7.62252e+07
7.90011e+07
8.17225e+07
8.43788e+07
8.69595e+07
8.9455e+07
9.18559e+07
9.41531e+07
9.63383e+07
9.84042e+07
1.00345e+08
1.02156e+08
1.03834e+08
1.05377e+08
1.06782e+08
1.08051e+08
1.09184e+08
1.10185e+08
1.11059e+08
1.11809e+08
1.12445e+08
1.12976e+08
1.13409e+08
1.13756e+08
1.14026e+08
1.14233e+08
1.1439e+08
1.14511e+08
1.14612e+08
1.14715e+08
1.14838e+08
1.15006e+08
1.15246e+08
1.15589e+08
1.16068e+08
1.1672e+08
1.17587e+08
1.18716e+08
1.20154e+08
1.21953e+08
1.24164e+08
1.26843e+08
1.3004e+08
1.33805e+08
1.38181e+08
1.43207e+08
1.48917e+08
1.55338e+08
1.62484e+08
1.70363e+08
1.78973e+08
1.88303e+08
1.98332e+08
2.09041e+08
2.2039e+08
2.32339e+08
2.44836e+08
2.57846e+08
2.71319e+08
2.85201e+08
2.99423e+08
3.13927e+08
3.28645e+08
3.43489e+08
3.58365e+08
3.73167e+08
3.8777e+08
4.02026e+08
4.15768e+08
4.28806e+08
4.4091e+08
4.51856e+08
4.61404e+08
4.69305e+08
4.75304e+08
4.7917e+08
4.80704e+08
4.79769e+08
4.76237e+08
4.70057e+08
4.61253e+08
4.49953e+08
4.36366e+08
4.20801e+08
4.03549e+08
3.84978e+08
3.65371e+08
3.45055e+08
3.24278e+08
3.03231e+08
4.28908e+07
4.28613e+07
4.27854e+07
4.2662e+07
4.24915e+07
4.22741e+07
4.20099e+07
4.16987e+07
4.13406e+07
4.09356e+07
4.04844e+07
3.99874e+07
3.94454e+07
3.88592e+07
3.82302e+07
3.75594e+07
3.68486e+07
3.60993e+07
3.53134e+07
3.44928e+07
3.36393e+07
3.27551e+07
3.18422e+07
3.09028e+07
2.99396e+07
2.89551e+07
2.79523e+07
2.69339e+07
2.59027e+07
2.48616e+07
2.38135e+07
2.27614e+07
2.17082e+07
2.06572e+07
1.96116e+07
1.85748e+07
1.75504e+07
1.65419e+07
1.55531e+07
1.45881e+07
1.36508e+07
1.27456e+07
1.18768e+07
1.10492e+07
1.02674e+07
9.53642e+06
8.86135e+06
8.24739e+06
7.69979e+06
7.22392e+06
6.82509e+06
6.50862e+06
6.2798e+06
6.14378e+06
6.10552e+06
6.16974e+06
6.34089e+06
6.623e+06
7.01966e+06
7.534e+06
8.16853e+06
8.9252e+06
9.80527e+06
1.08093e+07
1.19372e+07
1.3188e+07
1.456e+07
1.60511e+07
1.76582e+07
1.93779e+07
2.12061e+07
2.31379e+07
2.51681e+07
2.72912e+07
2.9501e+07
3.17914e+07
3.41559e+07
3.65876e+07
3.90797e+07
4.16251e+07
4.42165e+07
4.68466e+07
4.9508e+07
5.2193e+07
5.48939e+07
5.76027e+07
6.03112e+07
6.30109e+07
6.56932e+07
6.83489e+07
7.09691e+07
7.35441e+07
7.60646e+07
7.85206e+07
8.09026e+07
8.32016e+07
8.5409e+07
8.75169e+07
8.95176e+07
9.14049e+07
9.31733e+07
9.48194e+07
9.63403e+07
9.77348e+07
9.90026e+07
1.00144e+08
1.01162e+08
1.02058e+08
1.02837e+08
1.03504e+08
1.04065e+08
1.0453e+08
1.04904e+08
1.05197e+08
1.0542e+08
1.05582e+08
1.05696e+08
1.05775e+08
1.05832e+08
1.05884e+08
1.05949e+08
1.06051e+08
1.06212e+08
1.06461e+08
1.06828e+08
1.07345e+08
1.0805e+08
1.08987e+08
1.102e+08
1.11739e+08
1.1365e+08
1.15987e+08
1.18796e+08
1.22124e+08
1.26014e+08
1.30502e+08
1.35624e+08
1.41404e+08
1.47859e+08
1.54997e+08
1.62819e+08
1.71316e+08
1.80473e+08
1.90271e+08
2.00677e+08
2.11657e+08
2.23163e+08
2.35164e+08
2.47611e+08
2.60456e+08
2.73636e+08
2.87096e+08
3.00767e+08
3.14569e+08
3.28412e+08
3.42202e+08
3.55818e+08
3.6912e+08
3.81954e+08
3.94149e+08
4.05492e+08
4.15777e+08
4.24793e+08
4.32317e+08
4.38121e+08
4.41987e+08
4.43741e+08
4.43263e+08
4.40426e+08
4.35173e+08
4.27511e+08
4.17556e+08
4.05477e+08
3.91539e+08
3.75985e+08
3.59142e+08
3.41249e+08
3.22605e+08
3.03452e+08
2.84014e+08
3.88174e+07
3.87953e+07
3.87328e+07
3.86296e+07
3.84858e+07
3.83015e+07
3.80765e+07
3.78105e+07
3.75035e+07
3.71557e+07
3.67672e+07
3.63385e+07
3.58699e+07
3.53622e+07
3.48161e+07
3.42327e+07
3.3613e+07
3.29585e+07
3.22703e+07
3.15499e+07
3.07988e+07
3.00186e+07
2.9211e+07
2.8378e+07
2.75217e+07
2.66444e+07
2.57484e+07
2.4836e+07
2.39096e+07
2.29717e+07
2.20247e+07
2.10713e+07
2.01141e+07
1.91559e+07
1.81997e+07
1.72486e+07
1.63057e+07
1.53744e+07
1.44582e+07
1.35609e+07
1.26863e+07
1.18385e+07
1.10218e+07
1.02407e+07
9.49988e+06
8.80413e+06
8.15849e+06
7.5681e+06
7.03815e+06
6.57395e+06
6.18077e+06
5.8639e+06
5.62854e+06
5.4798e+06
5.42261e+06
5.46165e+06
5.60127e+06
5.84545e+06
6.1977e+06
6.66107e+06
7.23803e+06
7.93042e+06
8.73947e+06
9.66572e+06
1.0709e+07
1.18683e+07
1.31421e+07
1.45282e+07
1.60235e+07
1.76248e+07
1.93279e+07
2.11283e+07
2.30209e+07
2.50003e+07
2.70607e+07
2.9196e+07
3.14001e+07
3.36662e+07
3.5988e+07
3.83584e+07
4.07706e+07
4.32175e+07
4.56919e+07
4.81862e+07
5.06932e+07
5.32049e+07
5.57136e+07
5.82111e+07
6.06891e+07
6.31389e+07
6.55521e+07
6.79195e+07
7.02324e+07
7.2482e+07
7.46593e+07
7.67564e+07
7.87654e+07
8.06794e+07
8.24914e+07
8.41965e+07
8.57896e+07
8.72679e+07
8.86291e+07
8.98731e+07
9.10004e+07
9.20119e+07
9.29094e+07
9.36963e+07
9.43767e+07
9.49553e+07
9.54377e+07
9.58306e+07
9.61404e+07
9.63752e+07
9.65444e+07
9.66571e+07
9.6723e+07
9.67536e+07
9.67609e+07
9.6759e+07
9.6764e+07
9.67961e+07
9.68758e+07
9.70277e+07
9.72791e+07
9.76596e+07
9.82025e+07
9.89474e+07
9.99356e+07
1.01213e+08
1.02824e+08
1.04817e+08
1.07236e+08
1.10126e+08
1.13528e+08
1.17479e+08
1.22012e+08
1.27152e+08
1.32917e+08
1.39317e+08
1.46354e+08
1.54025e+08
1.62315e+08
1.7121e+08
1.80684e+08
1.90705e+08
2.01233e+08
2.12238e+08
2.23675e+08
2.35494e+08
2.47643e+08
2.60068e+08
2.72699e+08
2.85465e+08
2.9828e+08
3.11054e+08
3.23672e+08
3.36002e+08
3.47906e+08
3.59225e+08
3.69767e+08
3.79346e+08
3.87771e+08
3.94849e+08
4.0038e+08
4.04164e+08
4.06056e+08
4.0594e+08
4.03702e+08
3.9928e+08
3.92674e+08
3.83983e+08
3.73343e+08
3.60982e+08
3.47097e+08
3.31969e+08
3.15796e+08
2.9885e+08
2.8136e+08
2.63581e+08
3.49636e+07
3.49484e+07
3.48981e+07
3.48135e+07
3.46947e+07
3.45412e+07
3.43528e+07
3.41293e+07
3.38704e+07
3.35761e+07
3.32466e+07
3.28817e+07
3.2482e+07
3.20477e+07
3.15795e+07
3.10779e+07
3.05438e+07
2.99779e+07
2.93813e+07
2.8755e+07
2.81001e+07
2.74178e+07
2.67096e+07
2.59769e+07
2.52216e+07
2.44454e+07
2.36502e+07
2.2838e+07
2.20107e+07
2.11703e+07
2.03189e+07
1.9459e+07
1.85927e+07
1.77225e+07
1.68512e+07
1.59813e+07
1.51158e+07
1.42578e+07
1.34105e+07
1.25775e+07
1.17624e+07
1.09692e+07
1.02021e+07
9.46519e+06
8.76323e+06
8.10095e+06
7.48323e+06
6.91514e+06
6.4018e+06
5.94845e+06
5.56032e+06
5.24261e+06
5.00051e+06
4.83908e+06
4.76318e+06
4.77743e+06
4.88611e+06
5.09313e+06
5.4019e+06
5.81537e+06
6.33593e+06
6.96535e+06
7.70478e+06
8.55466e+06
9.51478e+06
1.05842e+07
1.17613e+07
1.30438e+07
1.44289e+07
1.59132e+07
1.74927e+07
1.9163e+07
2.09193e+07
2.27562e+07
2.46681e+07
2.66492e+07
2.86935e+07
3.07947e+07
3.29464e+07
3.51421e+07
3.7375e+07
3.96385e+07
4.19254e+07
4.42286e+07
4.65409e+07
4.88549e+07
5.11629e+07
5.34574e+07
5.57303e+07
5.79735e+07
6.0179e+07
6.23384e+07
6.44437e+07
6.64867e+07
6.84598e+07
7.03553e+07
7.21665e+07
7.38872e+07
7.55116e+07
7.70355e+07
7.84547e+07
7.97665e+07
8.09701e+07
8.20654e+07
8.30533e+07
8.39352e+07
8.47131e+07
8.53901e+07
8.59702e+07
8.64578e+07
8.68583e+07
8.71769e+07
8.74188e+07
8.75911e+07
8.77023e+07
8.77606e+07
8.77742e+07
8.77529e+07
8.77069e+07
8.76481e+07
8.7591e+07
8.75527e+07
8.75509e+07
8.76068e+07
8.77453e+07
8.79928e+07
8.83794e+07
8.89405e+07
8.97139e+07
9.0741e+07
9.20639e+07
9.37258e+07
9.57692e+07
9.8237e+07
1.01169e+08
1.04603e+08
1.08568e+08
1.1309e+08
1.18191e+08
1.23881e+08
1.30165e+08
1.37043e+08
1.44503e+08
1.52537e+08
1.61121e+08
1.70227e+08
1.79821e+08
1.89878e+08
2.00352e+08
2.11195e+08
2.22356e+08
2.33785e+08
2.45419e+08
2.57187e+08
2.69006e+08
2.80789e+08
2.92426e+08
3.03794e+08
3.14769e+08
3.25203e+08
3.34924e+08
3.43766e+08
3.51555e+08
3.58126e+08
3.63307e+08
3.66922e+08
3.68848e+08
3.68982e+08
3.67219e+08
3.63501e+08
3.57826e+08
3.50272e+08
3.40953e+08
3.3006e+08
3.17754e+08
3.04265e+08
2.89762e+08
2.74479e+08
2.58636e+08
2.42507e+08
3.1481e+07
3.14714e+07
3.14318e+07
3.13637e+07
3.1267e+07
3.11412e+07
3.09859e+07
3.08006e+07
3.05852e+07
3.03393e+07
3.00628e+07
2.97557e+07
2.94181e+07
2.905e+07
2.86519e+07
2.8224e+07
2.77668e+07
2.72808e+07
2.67666e+07
2.6225e+07
2.56567e+07
2.50627e+07
2.44441e+07
2.38019e+07
2.31376e+07
2.24527e+07
2.17485e+07
2.10267e+07
2.02887e+07
1.95364e+07
1.87715e+07
1.7996e+07
1.72119e+07
1.64212e+07
1.56264e+07
1.48299e+07
1.40344e+07
1.32426e+07
1.24576e+07
1.16827e+07
1.09215e+07
1.01777e+07
9.45524e+06
8.75836e+06
8.09152e+06
7.4594e+06
6.86681e+06
6.31872e+06
5.82017e+06
5.37632e+06
4.99235e+06
4.6734e+06
4.42462e+06
4.25102e+06
4.15741e+06
4.14831e+06
4.22794e+06
4.40009e+06
4.66808e+06
5.03473e+06
5.50232e+06
6.07256e+06
6.74647e+06
7.52444e+06
8.40616e+06
9.39063e+06
1.04762e+07
1.16606e+07
1.2941e+07
1.4314e+07
1.57756e+07
1.73218e+07
1.89476e+07
2.06479e+07
2.24174e+07
2.42503e+07
2.61407e+07
2.80826e+07
3.00698e+07
3.20961e+07
3.41552e+07
3.62402e+07
3.83447e+07
4.04616e+07
4.25841e+07
4.4705e+07
4.68171e+07
4.89131e+07
5.09856e+07
5.30269e+07
5.50295e+07
5.69859e+07
5.88885e+07
6.07302e+07
6.25039e+07
6.42029e+07
6.58212e+07
6.73536e+07
6.87954e+07
7.01429e+07
7.1393e+07
7.25434e+07
7.35939e+07
7.45446e+07
7.53969e+07
7.61521e+07
7.68124e+07
7.73808e+07
7.78611e+07
7.82575e+07
7.85746e+07
7.88165e+07
7.89882e+07
7.90959e+07
7.91465e+07
7.91471e+07
7.91053e+07
7.90287e+07
7.8927e+07
7.88099e+07
7.86905e+07
7.85829e+07
7.85024e+07
7.84674e+07
7.84996e+07
7.86233e+07
7.88654e+07
7.92573e+07
7.9833e+07
8.06291e+07
8.16845e+07
8.30398e+07
8.47349e+07
8.68103e+07
8.93048e+07
9.2254e+07
9.56887e+07
9.96351e+07
1.04115e+08
1.09143e+08
1.14726e+08
1.20866e+08
1.27556e+08
1.3479e+08
1.42549e+08
1.50807e+08
1.59538e+08
1.68714e+08
1.78295e+08
1.88232e+08
1.98475e+08
2.08976e+08
2.19676e+08
2.30503e+08
2.4138e+08
2.52215e+08
2.62908e+08
2.73343e+08
2.83406e+08
2.9296e+08
3.01857e+08
3.09943e+08
3.17064e+08
3.23074e+08
3.27837e+08
3.31192e+08
3.33043e+08
3.33303e+08
3.31882e+08
3.28727e+08
3.23835e+08
3.17267e+08
3.09119e+08
2.99549e+08
2.88688e+08
2.7672e+08
2.63789e+08
2.5009e+08
2.35831e+08
2.21297e+08
2.84795e+07
2.8474e+07
2.84431e+07
2.83889e+07
2.83111e+07
2.82091e+07
2.80823e+07
2.79303e+07
2.77526e+07
2.75488e+07
2.73186e+07
2.70618e+07
2.67781e+07
2.64676e+07
2.61303e+07
2.57663e+07
2.53756e+07
2.49587e+07
2.45158e+07
2.40474e+07
2.3554e+07
2.30361e+07
2.24947e+07
2.19306e+07
2.13449e+07
2.07385e+07
2.01127e+07
1.94687e+07
1.88077e+07
1.81312e+07
1.74407e+07
1.67378e+07
1.60242e+07
1.53018e+07
1.45728e+07
1.38393e+07
1.31038e+07
1.23688e+07
1.16373e+07
1.09124e+07
1.01974e+07
9.49598e+06
8.8119e+06
8.14929e+06
7.51253e+06
6.90618e+06
6.335e+06
5.80384e+06
5.31771e+06
4.88166e+06
4.50083e+06
4.18033e+06
3.92523e+06
3.74048e+06
3.6308e+06
3.60063e+06
3.65411e+06
3.79492e+06
4.02627e+06
4.35086e+06
4.77084e+06
5.28776e+06
5.90256e+06
6.61549e+06
7.42613e+06
8.33341e+06
9.33561e+06
1.04304e+07
1.1615e+07
1.28858e+07
1.4239e+07
1.56705e+07
1.71756e+07
1.87492e+07
2.03861e+07
2.20806e+07
2.38271e+07
2.56196e+07
2.74522e+07
2.93187e+07
3.12132e+07
3.31293e+07
3.50606e+07
3.70004e+07
3.89421e+07
4.08789e+07
4.2804e+07
4.47104e+07
4.65914e+07
4.84396e+07
5.02482e+07
5.20103e+07
5.3719e+07
5.5368e+07
5.69507e+07
5.84615e+07
5.98953e+07
6.12476e+07
6.25148e+07
6.36936e+07
6.47818e+07
6.57778e+07
6.66816e+07
6.74935e+07
6.82151e+07
6.88479e+07
6.93939e+07
6.98562e+07
7.02384e+07