/*--------------------------------*- C++ -*----------------------------------*\
| =========                 |                                                 |
| \\      /  F ield         | OpenFOAM: The Open Source CFD Toolbox           |
|  \\    /   O peration     | Version:  dev                                   |
|   \\  /    A nd           | Web:      http://www.openfoam.org               |
|    \\/     M anipulation  |                                                 |
\*---------------------------------------------------------------------------*/
FoamFile
{
    version     2.0;
    format      ascii;
    class       volScalarField;
    object      rho_0;
    location    "9.151";
}
// * * * * * * * * * * * * * * * * * * * * * * * * * * * * * * * * * * * * * //

dimensions      [1 -3 0 0 0 0 0];

internalField   nonuniform List<scalar> 
12225
(
1.17431
1.1732
1.17386
1.17436
1.17439
1.17453
1.17362
1.17366
1.17186
1.17201
1.16934
1.16982
1.16616
1.16796
1.1624
1.16607
1.16487
1.15368
1.17236
1.17258
1.17473
1.17673
1.17749
1.17947
1.17848
1.18072
1.17775
1.18044
1.17555
1.17936
1.17228
1.17873
1.16907
1.17758
1.17216
1.16849
1.17177
1.17278
1.17441
1.17719
1.17718
1.18057
1.17911
1.18292
1.17995
1.18392
1.17898
1.18348
1.1775
1.18222
1.17526
1.17866
1.17299
1.17512
1.17142
1.17271
1.17414
1.17668
1.1766
1.1793
1.17876
1.18068
1.18005
1.18217
1.18003
1.18053
1.17916
1.17992
1.17711
1.17554
1.17268
1.17399
1.17139
1.17174
1.17408
1.17556
1.17636
1.17822
1.17859
1.17889
1.17915
1.1805
1.1793
1.17865
1.17809
1.17863
1.17656
1.17599
1.17271
1.17204
1.17179
1.17055
1.17373
1.17461
1.17615
1.17753
1.17827
1.17816
1.17933
1.17906
1.17829
1.17773
1.17803
1.1766
1.17625
1.17479
1.17301
1.17125
1.17119
1.16935
1.17335
1.17374
1.17549
1.17627
1.17726
1.17708
1.17867
1.17758
1.17744
1.17732
1.1773
1.17516
1.17472
1.17372
1.17269
1.17139
1.17066
1.16835
1.17258
1.17261
1.17456
1.17517
1.17607
1.1756
1.17719
1.1764
1.1767
1.17613
1.17561
1.17425
1.17345
1.1725
1.17168
1.17079
1.16977
1.1674
1.17147
1.17168
1.17386
1.17392
1.17496
1.17437
1.17561
1.17539
1.17528
1.17479
1.17414
1.17301
1.17272
1.1719
1.17065
1.16979
1.1688
1.16619
1.17031
1.17041
1.17225
1.17208
1.17358
1.17337
1.17435
1.17357
1.17358
1.17285
1.17237
1.17165
1.17085
1.16988
1.16928
1.16832
1.167
1.1644
1.16862
1.16843
1.17029
1.17096
1.17072
1.1711
1.17229
1.17093
1.17104
1.17016
1.1697
1.16937
1.16849
1.16735
1.16669
1.16572
1.16424
1.16266
1.16564
1.16595
1.16726
1.16719
1.16816
1.16805
1.16817
1.16842
1.16748
1.16749
1.16704
1.16561
1.16488
1.16452
1.16321
1.16208
1.16126
1.16015
1.16221
1.16277
1.16331
1.16375
1.16398
1.16454
1.16423
1.16393
1.16389
1.16303
1.16226
1.16162
1.16058
1.1596
1.15853
1.15785
1.15749
1.15676
1.15795
1.1585
1.15871
1.15905
1.15925
1.15913
1.15902
1.15878
1.15808
1.15777
1.15671
1.15603
1.15514
1.15429
1.15325
1.15187
1.1529
1.15201
1.15288
1.15334
1.15338
1.15352
1.15348
1.15331
1.15301
1.15257
1.15192
1.15127
1.15045
1.14964
1.14864
1.14765
1.1463
1.14521
1.1475
1.14613
1.14684
1.14705
1.14695
1.14685
1.14658
1.14626
1.14588
1.14521
1.14463
1.14394
1.14304
1.14213
1.14104
1.13998
1.13883
1.13763
1.14077
1.13906
1.13963
1.13969
1.13951
1.13922
1.13887
1.13833
1.13769
1.13721
1.13666
1.13581
1.13493
1.13391
1.13298
1.13201
1.13098
1.12983
1.13358
1.13163
1.13225
1.13221
1.132
1.13182
1.13156
1.13093
1.13035
1.13015
1.12947
1.12852
1.12756
1.12662
1.12592
1.12505
1.12423
1.1231
1.12708
1.12515
1.1258
1.12589
1.12584
1.12584
1.12581
1.12511
1.12459
1.12473
1.12418
1.12331
1.12235
1.12143
1.12094
1.12026
1.11972
1.11868
1.12192
1.11997
1.1206
1.12082
1.12096
1.12117
1.12147
1.12074
1.12044
1.12098
1.12055
1.11978
1.11892
1.11794
1.11772
1.11699
1.11678
1.11587
1.11746
1.11578
1.11661
1.11721
1.11766
1.11799
1.11833
1.11764
1.11767
1.11833
1.11786
1.1176
1.11693
1.11598
1.11589
1.11498
1.11498
1.11418
1.11424
1.11255
1.11358
1.11444
1.11512
1.11547
1.11596
1.11579
1.11578
1.11605
1.11582
1.11592
1.11542
1.11487
1.11462
1.11385
1.11369
1.11302
1.11178
1.11024
1.11149
1.11221
1.11302
1.11354
1.11441
1.11478
1.1145
1.11459
1.11457
1.11442
1.1143
1.11392
1.1135
1.11295
1.11263
1.11214
1.11004
1.10855
1.10982
1.11081
1.11185
1.11257
1.11319
1.11372
1.11402
1.11415
1.114
1.1138
1.1135
1.11317
1.11286
1.11248
1.11212
1.11162
1.10869
1.10721
1.10853
1.10958
1.11058
1.11136
1.11202
1.11251
1.11298
1.11324
1.11335
1.11337
1.11327
1.11312
1.11283
1.11249
1.11215
1.1118
1.10779
1.10638
1.10789
1.10898
1.10985
1.11058
1.11125
1.11172
1.11204
1.11232
1.11254
1.11266
1.11269
1.11256
1.11242
1.11219
1.11197
1.11168
1.10716
1.10577
1.10721
1.10834
1.10937
1.11025
1.11093
1.11143
1.11185
1.11217
1.11243
1.11254
1.11258
1.11252
1.11243
1.11229
1.11217
1.11204
1.10686
1.10542
1.10689
1.10812
1.10925
1.11026
1.11113
1.11177
1.11231
1.1127
1.11304
1.11323
1.1134
1.11345
1.11356
1.11356
1.11366
1.11368
1.1069
1.10528
1.10673
1.10802
1.10922
1.11027
1.11115
1.11175
1.11219
1.11244
1.11261
1.1127
1.11276
1.11275
1.11272
1.1125
1.11236
1.11183
1.10788
1.10609
1.10662
1.10704
1.1074
1.10761
1.10764
1.10748
1.10722
1.10685
1.10644
1.10598
1.10547
1.10492
1.10432
1.10367
1.10301
1.10237
1.11403
1.13154
1.12589
1.12386
1.12331
1.12225
1.12153
1.12053
1.11942
1.11893
1.11825
1.11814
1.1178
1.11771
1.11769
1.11803
1.11868
1.11951
1.12033
1.12098
1.12151
1.12208
1.12276
1.12342
1.12413
1.12486
1.12559
1.12609
1.12635
1.12647
1.12676
1.12773
1.12941
1.1308
1.13154
1.13198
1.13227
1.13267
1.13292
1.13296
1.13299
1.1325
1.13227
1.13059
1.12881
1.1254
1.11778
1.11807
1.12394
1.12666
1.12768
1.12754
1.12822
1.12932
1.12872
1.12765
1.12896
1.13194
1.13512
1.13779
1.14273
1.14828
1.15285
1.15819
1.16133
1.16284
1.16332
1.16372
1.16608
1.16765
1.16871
1.17009
1.17184
1.17105
1.16271
1.1597
1.16758
1.17781
1.18594
1.19314
1.19917
1.20281
1.19988
1.18819
1.18075
1.18688
1.20035
1.21208
1.22032
1.22683
1.23267
1.238
1.24275
1.24694
1.25075
1.25471
1.25919
1.26419
1.26933
1.27392
1.27758
1.2813
1.28631
1.29243
1.2918
1.29819
1.3052
1.30417
1.31091
1.31307
1.31431
1.31828
1.32198
1.32541
1.33119
1.33556
1.33813
1.34129
1.347
1.35145
1.35163
1.35124
1.35292
1.35633
1.36023
1.36541
1.37169
1.37742
1.38364
1.39064
1.39671
1.40214
1.40716
1.41372
1.41549
1.41887
1.42072
1.42657
1.43316
1.43865
1.44783
1.46185
1.47184
1.48347
1.4886
1.49331
1.49838
1.50622
1.51856
1.53173
1.55304
1.56095
1.59144
1.6062
1.63507
1.641
1.66976
1.676
1.68761
1.73036
1.73936
1.73994
1.76097
1.79084
1.8001
1.86363
1.87977
1.91689
1.92078
1.90934
1.90417
1.87957
1.85141
1.82812
1.81254
1.78114
1.75289
1.80666
1.80328
1.74726
1.11656
1.13353
1.12524
1.12202
1.12059
1.12154
1.12017
1.11993
1.11955
1.12022
1.12147
1.12276
1.12329
1.12386
1.12517
1.12723
1.12958
1.13198
1.13379
1.13464
1.135
1.1352
1.13551
1.13606
1.13693
1.1379
1.13878
1.13919
1.13963
1.1404
1.14184
1.14392
1.146
1.1474
1.14828
1.14876
1.14915
1.1501
1.15098
1.1504
1.15001
1.15128
1.15186
1.15015
1.15017
1.1506
1.14536
1.14709
1.14364
1.1404
1.14883
1.13752
1.12634
1.13734
1.14636
1.14404
1.14127
1.14287
1.14839
1.15159
1.1576
1.16718
1.17203
1.17898
1.17965
1.17598
1.1737
1.17175
1.1718
1.17309
1.17575
1.18047
1.18079
1.18214
1.1852
1.18474
1.18051
1.18341
1.19221
1.20213
1.21545
1.2206
1.21847
1.22013
1.22781
1.23672
1.24321
1.24711
1.25027
1.25408
1.25785
1.26107
1.26268
1.26248
1.26159
1.26161
1.26373
1.26872
1.27514
1.27995
1.27965
1.27843
1.28045
1.29897
1.28534
1.29117
1.30782
1.29674
1.30424
1.3144
1.31281
1.31415
1.31808
1.31605
1.32638
1.34149
1.34176
1.32796
1.33545
1.37244
1.39343
1.38309
1.3694
1.36493
1.37055
1.37977
1.40022
1.42011
1.42863
1.43889
1.45118
1.46496
1.47575
1.49683
1.50405
1.50267
1.50305
1.49811
1.49044
1.49207
1.51502
1.53985
1.56007
1.5899
1.60603
1.61225
1.61772
1.62266
1.6289
1.64196
1.67294
1.68231
1.72348
1.71999
1.77454
1.81553
1.8629
1.85201
1.81837
1.86804
1.93678
1.95841
1.96799
2.00753
2.04813
2.17737
2.13472
2.09578
2.05313
2.19806
2.14386
2.0408
2.01721
2.07174
2.10606
2.11813
2.01592
2.0722
2.10419
2.13111
1.11559
1.12861
1.11899
1.12122
1.12122
1.12346
1.12314
1.12324
1.12453
1.12815
1.13317
1.13735
1.14005
1.14218
1.14478
1.14572
1.14204
1.13728
1.13289
1.12938
1.12773
1.12721
1.12821
1.13001
1.13233
1.13497
1.13754
1.1397
1.14127
1.14255
1.14478
1.14737
1.1489
1.14863
1.14792
1.1481
1.14841
1.1478
1.14622
1.1452
1.14626
1.14817
1.14626
1.14516
1.15106
1.15064
1.14356
1.15253
1.15623
1.14487
1.15352
1.16088
1.14784
1.14972
1.15883
1.15239
1.14405
1.14367
1.15058
1.15427
1.1586
1.16644
1.16888
1.17547
1.17455
1.16866
1.16743
1.168
1.1692
1.17067
1.1725
1.17986
1.18218
1.17959
1.18704
1.19044
1.18239
1.18395
1.20016
1.21205
1.21431
1.21523
1.21922
1.22591
1.23184
1.23428
1.23375
1.23173
1.23012
1.23009
1.23192
1.23483
1.23675
1.23706
1.2359
1.23483
1.23551
1.23927
1.24526
1.25216
1.25157
1.24986
1.24549
1.264
1.2603
1.25824
1.27279
1.26922
1.26147
1.27626
1.28581
1.28627
1.29118
1.28501
1.28296
1.30114
1.32359
1.30321
1.26697
1.2791
1.33761
1.36481
1.34635
1.32368
1.33749
1.34858
1.34268
1.35037
1.37761
1.40607
1.42372
1.42204
1.42204
1.46434
1.51459
1.51622
1.52146
1.5122
1.457
1.42784
1.45466
1.459
1.49298
1.53615
1.57562
1.61106
1.64473
1.66978
1.67569
1.69733
1.69643
1.72224
1.71993
1.70236
1.73311
1.83499
1.8357
1.78504
1.7918
1.8015
1.89658
2.02072
2.04993
2.0739
2.14371
2.19648
2.07685
1.96141
1.90472
2.03023
1.99833
1.88018
1.78433
1.79649
1.81422
2.07792
2.12763
2.18547
2.07833
2.10658
1.11413
1.1323
1.119
1.12026
1.12383
1.12672
1.12805
1.12895
1.13107
1.13965
1.14791
1.14334
1.13172
1.12951
1.12521
1.11709
1.11727
1.11515
1.1153
1.11974
1.12345
1.12954
1.13469
1.13943
1.14393
1.14745
1.14987
1.15028
1.15008
1.15052
1.15172
1.15181
1.14947
1.14586
1.14379
1.14333
1.14335
1.1431
1.14255
1.14165
1.14081
1.14215
1.14432
1.14476
1.14289
1.14275
1.14467
1.14618
1.14768
1.14742
1.14624
1.14668
1.14941
1.15438
1.15481
1.15359
1.16193
1.16341
1.15772
1.15223
1.15569
1.16116
1.15957
1.16723
1.17286
1.17423
1.17703
1.17683
1.17641
1.17833
1.18255
1.19171
1.19796
1.1942
1.1906
1.19322
1.19514
1.19614
1.20365
1.21262
1.21829
1.22276
1.22774
1.23172
1.23248
1.2311
1.22768
1.22335
1.22054
1.21973
1.2207
1.22286
1.22507
1.22682
1.22849
1.23091
1.23454
1.2381
1.24083
1.24825
1.24925
1.254
1.24991
1.25811
1.2626
1.26172
1.26982
1.28249
1.2733
1.26833
1.28116
1.28289
1.28946
1.29058
1.2793
1.26946
1.29792
1.32927
1.32248
1.29287
1.2841
1.30671
1.33827
1.32793
1.32091
1.3521
1.36899
1.33891
1.33005
1.36107
1.40149
1.39582
1.35948
1.37788
1.44601
1.47321
1.51069
1.5071
1.42667
1.3761
1.38931
1.38845
1.41544
1.43145
1.46956
1.54175
1.60998
1.65963
1.65841
1.73935
1.64652
1.69547
1.7075
1.70503
1.6799
1.79982
1.80509
1.67855
1.7198
1.75126
1.82118
2.00228
2.06817
2.09606
2.20192
2.17599
2.09733
2.0462
2.07157
1.93208
1.91881
1.99008
1.90723
1.7252
1.50585
1.79784
2.02739
2.22692
2.05328
1.91553
1.11021
1.13514
1.12622
1.12416
1.12421
1.1235
1.12815
1.13342
1.13531
1.13751
1.13684
1.13529
1.13106
1.1186
1.11898
1.12241
1.11876
1.12827
1.13126
1.13567
1.14298
1.14438
1.15044
1.15172
1.15237
1.1514
1.14889
1.14722
1.14537
1.14453
1.14372
1.14243
1.1406
1.13823
1.13628
1.13516
1.13488
1.13541
1.13646
1.13752
1.13869
1.13986
1.14139
1.1447
1.14814
1.14992
1.14921
1.14707
1.14829
1.15074
1.14737
1.14522
1.15184
1.15868
1.15433
1.15088
1.15485
1.15596
1.16363
1.16727
1.16566
1.16078
1.1548
1.15681
1.16156
1.16933
1.17552
1.17464
1.17149
1.17098
1.17492
1.18555
1.19559
1.19701
1.19655
1.19812
1.19203
1.19173
1.20273
1.21213
1.2173
1.22005
1.22089
1.21982
1.21735
1.21398
1.20977
1.20575
1.20447
1.20618
1.20969
1.2136
1.21676
1.21906
1.22107
1.22298
1.22606
1.22899
1.22637
1.2282
1.23004
1.23835
1.23194
1.25334
1.24958
1.2551
1.2528
1.26419
1.27698
1.26848
1.2739
1.27027
1.27958
1.27966
1.26449
1.27668
1.27777
1.24958
1.24891
1.28989
1.30132
1.27119
1.2739
1.30356
1.29838
1.29272
1.32955
1.3397
1.30417
1.30551
1.37716
1.4075
1.35291
1.31952
1.38763
1.43144
1.44581
1.46526
1.4654
1.41875
1.42336
1.45959
1.45671
1.39478
1.37083
1.45526
1.55718
1.61852
1.58126
1.74701
1.50741
1.59145
1.64646
1.65618
1.57322
1.7175
1.80671
1.6505
1.68068
1.73621
1.7826
1.96142
2.05046
2.08836
2.22625
2.0989
2.06964
2.04381
2.17646
2.03463
1.77586
1.88385
2.02465
1.82038
1.47924
1.55013
1.8795
2.15557
2.1094
1.90431
1.10996
1.14347
1.14203
1.13819
1.13412
1.12584
1.1292
1.14151
1.15555
1.14249
1.11812
1.11728
1.11434
1.10953
1.11253
1.11657
1.12114
1.1258
1.13378
1.13502
1.13976
1.14355
1.14212
1.1457
1.14228
1.14062
1.13838
1.13425
1.13253
1.12889
1.12668
1.12448
1.123
1.12167
1.12087
1.11958
1.11913
1.11934
1.11967
1.12111
1.1227
1.1246
1.12676
1.12869
1.13118
1.13466
1.13815
1.14036
1.14034
1.14661
1.15503
1.15424
1.15704
1.16599
1.16584
1.16331
1.15897
1.15906
1.16492
1.16643
1.17007
1.17222
1.17193
1.16457
1.15945
1.16621
1.17297
1.17339
1.17365
1.17734
1.18218
1.19079
1.19857
1.20127
1.20122
1.19824
1.19914
1.20887
1.21699
1.21841
1.21706
1.21347
1.20944
1.20525
1.20309
1.20238
1.20187
1.20216
1.20498
1.20939
1.21367
1.21684
1.2196
1.22247
1.22512
1.22436
1.22199
1.22513
1.22478
1.22695
1.23296
1.24182
1.22373
1.25146
1.24126
1.24356
1.25059
1.25553
1.26039
1.24999
1.27967
1.25468
1.26983
1.29939
1.24357
1.25795
1.31796
1.28484
1.22596
1.24322
1.28222
1.27174
1.24052
1.25196
1.27898
1.27503
1.27682
1.30136
1.29227
1.25765
1.3001
1.36763
1.36649
1.32068
1.30853
1.34252
1.3976
1.43021
1.43271
1.32122
1.36398
1.48354
1.54096
1.44817
1.2994
1.33895
1.46908
1.5723
1.49976
1.74529
1.44567
1.47381
1.51921
1.54349
1.40899
1.59497
1.74102
1.58699
1.62212
1.72835
1.74186
1.91148
2.01616
2.02609
2.21721
1.85754
1.85652
1.84317
1.9651
2.1341
1.8187
1.71844
1.90747
1.82814
1.58521
1.41245
1.74987
2.04666
2.15639
1.99385
1.11059
1.14911
1.15343
1.1418
1.13253
1.1308
1.14541
1.14205
1.13298
1.12453
1.1143
1.11464
1.11874
1.11572
1.11869
1.12541
1.12815
1.132
1.13787
1.13925
1.13965
1.14061
1.138
1.13569
1.13311
1.12887
1.12428
1.12155
1.1182
1.11755
1.11588
1.11508
1.11438
1.11501
1.11622
1.11751
1.11977
1.1204
1.12113
1.12166
1.12082
1.12058
1.12016
1.12018
1.1199
1.11968
1.11964
1.12313
1.12686
1.13153
1.13941
1.14304
1.145
1.15368
1.16323
1.16326
1.16026
1.16644
1.16731
1.17085
1.17709
1.18048
1.18495
1.18005
1.17223
1.17034
1.17156
1.17205
1.17219
1.17525
1.18164
1.19122
1.19899
1.20174
1.20241
1.20209
1.20535
1.208
1.20684
1.20518
1.20334
1.19929
1.19543
1.19336
1.1934
1.19306
1.19306
1.19511
1.19864
1.20079
1.20073
1.20011
1.20017
1.20204
1.20714
1.20959
1.20885
1.20886
1.21155
1.21986
1.23376
1.22192
1.23365
1.23991
1.23452
1.23044
1.21413
1.24973
1.25368
1.20009
1.26894
1.24526
1.21756
1.27911
1.27364
1.24575
1.2762
1.28067
1.25206
1.26147
1.27866
1.25965
1.23288
1.22032
1.25751
1.26041
1.23916
1.25887
1.28495
1.2639
1.26446
1.27079
1.31443
1.37012
1.27189
1.17714
1.23295
1.36462
1.45224
1.26447
1.24847
1.32093
1.44637
1.44956
1.20747
1.18811
1.35523
1.5006
1.42295
1.7574
1.51013
1.45174
1.44361
1.45012
1.28395
1.46095
1.62394
1.50076
1.54863
1.70243
1.70205
1.82705
1.92592
1.91579
2.23578
1.77442
1.79512
1.73325
1.66416
1.89302
1.82236
1.68589
1.82575
1.83307
1.6966
1.39872
1.64902
1.98525
2.04737
1.93803
1.11176
1.14753
1.1586
1.14761
1.13551
1.13467
1.14873
1.13754
1.12686
1.1222
1.12115
1.11593
1.1165
1.12033
1.11598
1.12387
1.12887
1.12903
1.13509
1.13332
1.13123
1.12855
1.12583
1.12342
1.1215
1.12048
1.11984
1.11993
1.11949
1.11955
1.11971
1.122
1.12349
1.1273
1.12902
1.13136
1.13394
1.13498
1.13665
1.13668
1.13669
1.1366
1.13578
1.13488
1.13262
1.13078
1.12773
1.12851
1.12898
1.12799
1.12813
1.13356
1.12986
1.13062
1.14065
1.14418
1.14896
1.16023
1.16635
1.17546
1.18099
1.18522
1.19271
1.194
1.18522
1.17801
1.17709
1.17725
1.17668
1.17779
1.18237
1.19023
1.19804
1.20059
1.20118
1.20242
1.20443
1.20605
1.20845
1.21013
1.20502
1.19688
1.19073
1.18882
1.19044
1.19329
1.19499
1.19407
1.19295
1.19206
1.19112
1.19252
1.19641
1.20123
1.20731
1.21301
1.22173
1.21954
1.21864
1.22714
1.24769
1.21439
1.24698
1.24735
1.22061
1.25835
1.21483
1.2254
1.28572
1.21591
1.25438
1.2602
1.24115
1.23602
1.24062
1.25259
1.25745
1.27462
1.25978
1.23765
1.27381
1.26535
1.22877
1.20006
1.26162
1.24783
1.20195
1.21535
1.25544
1.26098
1.23771
1.17322
1.23412
1.36355
1.28262
1.12588
1.09302
1.20894
1.43079
1.31597
1.24228
1.25564
1.37464
1.43602
1.1615
1.05987
1.22343
1.41089
1.34779
1.65817
1.47132
1.42505
1.42521
1.4292
1.28049
1.38324
1.5118
1.40797
1.53218
1.62714
1.69275
1.76034
1.78617
1.88341
2.15286
1.97727
1.95668
1.86312
1.63256
1.76948
1.749
1.65487
1.74224
1.82804
1.75846
1.42869
1.5796
1.93923
1.95909
1.82619
1.11584
1.14983
1.17348
1.18172
1.15149
1.13575
1.15893
1.14406
1.11782
1.12392
1.12504
1.11315
1.11557
1.11857
1.11805
1.12187
1.12255
1.12371
1.12686
1.12804
1.12849
1.12792
1.12773
1.1258
1.12596
1.1251
1.12448
1.12345
1.12328
1.12266
1.125
1.12599
1.12823
1.13051
1.13366
1.1353
1.13806
1.13941
1.14028
1.13909
1.13733
1.13629
1.13645
1.13944
1.14101
1.14031
1.13479
1.13314
1.13028
1.13367
1.13229
1.13453
1.13227
1.12759
1.13218
1.13389
1.13565
1.14525
1.14854
1.15458
1.16087
1.17545
1.19713
1.20143
1.19436
1.1906
1.18635
1.17921
1.17626
1.1779
1.18151
1.1869
1.19389
1.19799
1.19997
1.20197
1.20474
1.20648
1.20592
1.19801
1.18483
1.17588
1.17445
1.17948
1.18487
1.18444
1.18308
1.18601
1.18838
1.188
1.1886
1.19361
1.20232
1.21206
1.21903
1.22207
1.22869
1.22001
1.2131
1.22014
1.23459
1.2155
1.21152
1.24193
1.1958
1.2337
1.24255
1.19972
1.2646
1.23147
1.25513
1.22384
1.24953
1.24137
1.22192
1.25241
1.20095
1.22525
1.26806
1.19843
1.23349
1.26807
1.22691
1.1936
1.25406
1.24176
1.1918
1.19913
1.23349
1.25562
1.21909
1.15633
1.18583
1.27178
1.3187
1.289
1.19805
1.15186
1.34963
1.36446
1.3021
1.29875
1.38119
1.37819
1.17997
1.06917
1.16135
1.34995
1.32839
1.5664
1.39728
1.37238
1.3912
1.41691
1.33163
1.37521
1.45114
1.35162
1.54629
1.5801
1.64785
1.67501
1.64241
1.89758
2.0778
1.9847
1.88734
1.86321
1.61346
1.72262
1.73122
1.66785
1.68745
1.80367
1.78635
1.44239
1.52932
1.8768
1.90664
1.8104
1.12083
1.15693
1.18285
1.18986
1.1551
1.14187
1.1468
1.14109
1.12848
1.12734
1.1225
1.11659
1.12735
1.1284
1.12669
1.12967
1.1306
1.13119
1.13151
1.13463
1.13423
1.1352
1.13458
1.13151
1.13036
1.12548
1.12213
1.12029
1.12192
1.12343
1.1278
1.13
1.13408
1.13656
1.14
1.14241
1.14427
1.1452
1.14535
1.14408
1.13937
1.13603
1.13469
1.13867
1.14639
1.14872
1.143
1.1369
1.13165
1.12701
1.1249
1.12456
1.13257
1.13699
1.14233
1.14673
1.14514
1.14903
1.14584
1.14196
1.14279
1.16308
1.18803
1.19799
1.19563
1.19281
1.18607
1.17691
1.17611
1.17842
1.18217
1.18623
1.19048
1.19398
1.1975
1.2002
1.20145
1.19994
1.19288
1.1808
1.17141
1.17002
1.17534
1.18035
1.18021
1.18025
1.18146
1.18374
1.18528
1.18355
1.1852
1.19337
1.20436
1.21371
1.2187
1.22057
1.22661
1.21946
1.21433
1.22532
1.2243
1.23299
1.19368
1.22165
1.2069
1.18958
1.21226
1.20448
1.23025
1.18851
1.24268
1.18728
1.22952
1.21782
1.17584
1.25961
1.21026
1.19867
1.25747
1.18485
1.19307
1.23142
1.21314
1.19571
1.22505
1.2315
1.21112
1.19904
1.20317
1.24467
1.22592
1.18876
1.1905
1.24051
1.2584
1.27736
1.27595
1.22957
1.35531
1.29592
1.28283
1.35638
1.40653
1.26858
1.16474
1.13996
1.18224
1.28846
1.33199
1.53943
1.35136
1.33386
1.34645
1.3779
1.33395
1.40832
1.40844
1.3423
1.55082
1.56997
1.58318
1.64783
1.58283
1.81991
2.01007
1.92109
1.80278
1.75666
1.56298
1.62807
1.66562
1.65528
1.63941
1.7688
1.77019
1.451
1.48151
1.81185
1.85373
1.7815
1.12568
1.16905
1.18729
1.1657
1.14411
1.15454
1.15216
1.13335
1.11938
1.12304
1.13253
1.12885
1.13083
1.13095
1.13076
1.12865
1.12982
1.13404
1.13464
1.1387
1.13558
1.1327
1.12852
1.12311
1.1197
1.11901
1.12146
1.1246
1.12928
1.134
1.13681
1.14114
1.14154
1.14312
1.14265
1.14266
1.14325
1.14265
1.14181
1.14115
1.13661
1.13135
1.12799
1.12801
1.13936
1.14823
1.14947
1.14243
1.14254
1.13928
1.13585
1.12756
1.12384
1.12657
1.13073
1.14225
1.14741
1.15368
1.15152
1.1462
1.13637
1.14174
1.16618
1.18316
1.19156
1.19286
1.18615
1.17691
1.17538
1.17835
1.18175
1.18644
1.19057
1.19274
1.19444
1.19568
1.19438
1.18838
1.1787
1.17007
1.16846
1.17329
1.17661
1.17542
1.17151
1.17117
1.17607
1.18207
1.18085
1.17843
1.18336
1.19472
1.20678
1.20863
1.21011
1.21419
1.22117
1.21786
1.21629
1.22965
1.20874
1.23688
1.2106
1.20264
1.20849
1.1952
1.17947
1.20525
1.20143
1.1626
1.22812
1.15907
1.19544
1.20678
1.16141
1.22629
1.20406
1.18003
1.23273
1.1964
1.19262
1.20398
1.20112
1.18958
1.19603
1.21176
1.22491
1.18593
1.18548
1.23484
1.22736
1.17736
1.1959
1.26403
1.21601
1.19833
1.18972
1.23743
1.38714
1.22106
1.20282
1.34738
1.36808
1.20926
1.16628
1.16128
1.20205
1.2677
1.3436
1.47439
1.33758
1.31015
1.31161
1.36096
1.3328
1.40192
1.34441
1.3305
1.54519
1.5337
1.55287
1.73914
1.67543
1.68744
1.85051
1.92391
1.73696
1.66527
1.51341
1.58323
1.63134
1.64477
1.61738
1.73724
1.70893
1.45019
1.44222
1.74406
1.80475
1.69308
1.12684
1.16733
1.19309
1.16393
1.14414
1.15087
1.14997
1.14089
1.13615
1.13263
1.13412
1.13545
1.134
1.13033
1.12518
1.12404
1.1294
1.13209
1.13279
1.13498
1.13554
1.13544
1.13002
1.12748
1.12455
1.12754
1.13189
1.13683
1.1387
1.14146
1.14025
1.14025
1.13948
1.13972
1.14028
1.14053
1.1422
1.14149
1.13903
1.13918
1.13918
1.13767
1.13576
1.12968
1.1297
1.13366
1.13722
1.13382
1.1331
1.13713
1.13969
1.14067
1.13423
1.13199
1.12799
1.13348
1.13688
1.14151
1.14637
1.15215
1.14986
1.1362
1.1435
1.16179
1.18208
1.1914
1.18779
1.179
1.17606
1.17833
1.18197
1.18516
1.19031
1.19385
1.19433
1.19145
1.18547
1.1775
1.16956
1.16643
1.16708
1.16898
1.16951
1.16791
1.16517
1.16577
1.17117
1.17522
1.17145
1.17118
1.18723
1.202
1.20389
1.20075
1.20452
1.21632
1.22449
1.21695
1.21317
1.22706
1.21476
1.21014
1.19569
1.20337
1.17987
1.19339
1.18904
1.1954
1.18889
1.16755
1.20081
1.17168
1.18706
1.19577
1.16729
1.20384
1.19847
1.17203
1.20443
1.18595
1.19043
1.18482
1.18957
1.18735
1.1796
1.18945
1.22311
1.16098
1.1795
1.23061
1.19883
1.17089
1.21784
1.24177
1.19542
1.23247
1.17801
1.21321
1.35077
1.18716
1.14568
1.30198
1.3039
1.22515
1.19311
1.14262
1.17858
1.2651
1.34254
1.38632
1.31908
1.26723
1.26854
1.34467
1.35461
1.37737
1.30581
1.33779
1.51007
1.48381
1.55839
1.78857
1.75799
1.62936
1.68599
1.83249
1.61316
1.59278
1.45663
1.55726
1.59332
1.60304
1.60121
1.70077
1.62045
1.42826
1.41415
1.6796
1.76539
1.6116
1.12864
1.15965
1.19324
1.1768
1.15921
1.16136
1.15072
1.13921
1.13583
1.14174
1.1431
1.14036
1.13327
1.1338
1.13299
1.13023
1.13444
1.13183
1.12912
1.13174
1.13337
1.13251
1.13194
1.13278
1.13123
1.13537
1.13688
1.14014
1.13997
1.13941
1.13959
1.13976
1.14178
1.14527
1.14868
1.15104
1.15139
1.14806
1.14333
1.14277
1.14536
1.14785
1.15038
1.14923
1.14372
1.14032
1.14108
1.14003
1.13486
1.13183
1.12801
1.13186
1.13393
1.13445
1.13267
1.13382
1.13759
1.13727
1.13561
1.13602
1.15261
1.15217
1.14202
1.14267
1.16204
1.18356
1.18972
1.18018
1.17467
1.17661
1.18039
1.18411
1.18869
1.19171
1.19203
1.18836
1.18024
1.17088
1.16429
1.1622
1.16162
1.16174
1.16083
1.16041
1.16191
1.16278
1.16539
1.16706
1.16478
1.17387
1.19519
1.20048
1.19496
1.19583
1.1967
1.20905
1.21917
1.21308
1.21033
1.22064
1.22732
1.21643
1.19332
1.20186
1.19437
1.18508
1.18695
1.18499
1.16943
1.17858
1.17178
1.16307
1.17312
1.18884
1.17435
1.18829
1.18255
1.16217
1.18074
1.15832
1.17479
1.16591
1.17288
1.18246
1.17113
1.17329
1.20821
1.14477
1.17108
1.22116
1.16307
1.17083
1.22601
1.18629
1.18512
1.22462
1.1354
1.18107
1.30067
1.1695
1.10704
1.22033
1.25556
1.25031
1.19063
1.10416
1.14282
1.26535
1.31639
1.32848
1.31335
1.24313
1.26102
1.33027
1.35461
1.38094
1.28749
1.34392
1.48238
1.46807
1.54807
1.73728
1.78735
1.58642
1.69527
1.77684
1.53908
1.54825
1.41031
1.56914
1.56548
1.55214
1.58311
1.65544
1.51648
1.38518
1.39892
1.62385
1.73051
1.56405
1.13189
1.15751
1.19059
1.18733
1.1632
1.17052
1.16074
1.14656
1.14471
1.14462
1.14137
1.13866
1.1301
1.13046
1.13767
1.13887
1.13848
1.13824
1.13667
1.13542
1.13861
1.13716
1.13809
1.14062
1.14133
1.14218
1.1423
1.14325
1.14329
1.14367
1.14369
1.14419
1.14584
1.14824
1.14972
1.15011
1.14541
1.13901
1.13777
1.14152
1.14461
1.14546
1.14344
1.14508
1.14228
1.13835
1.13777
1.14227
1.14583
1.14734
1.14228
1.13403
1.13644
1.13323
1.13261
1.12814
1.13217
1.13419
1.14692
1.13853
1.13242
1.14639
1.15334
1.14479
1.14451
1.16397
1.1827
1.18409
1.1751
1.17317
1.17871
1.18232
1.186
1.19001
1.19085
1.18452
1.17532
1.16623
1.16184
1.15776
1.15344
1.15138
1.15421
1.15607
1.15892
1.1615
1.16283
1.1629
1.1623
1.17164
1.19262
1.19392
1.19337
1.20257
1.19592
1.19638
1.20353
1.20247
1.20726
1.22108
1.21515
1.20296
1.20586
1.19471
1.19279
1.19129
1.17751
1.18203
1.16403
1.17031
1.16255
1.16845
1.17431
1.17841
1.1663
1.17754
1.17234
1.15961
1.17146
1.15377
1.17009
1.15406
1.1627
1.17411
1.159
1.16487
1.19193
1.13527
1.16188
1.19799
1.14343
1.16406
1.20798
1.13917
1.1779
1.20447
1.10965
1.15111
1.24256
1.16488
1.09008
1.13546
1.21582
1.25026
1.19548
1.09556
1.10813
1.24427
1.27938
1.29918
1.30178
1.2393
1.27194
1.35981
1.37259
1.37903
1.28767
1.32495
1.4433
1.44344
1.45589
1.62628
1.77914
1.42788
1.81691
1.65303
1.46804
1.50955
1.35933
1.57064
1.49956
1.46957
1.54301
1.59449
1.40913
1.33204
1.39064
1.57991
1.70136
1.54903
1.13499
1.15827
1.18846
1.19173
1.1663
1.17394
1.17725
1.15326
1.14794
1.15147
1.14773
1.14646
1.13955
1.13521
1.13903
1.14352
1.14461
1.14093
1.14065
1.14135
1.14511
1.14503
1.14567
1.14447
1.14474
1.14345
1.14297
1.1432
1.14399
1.14486
1.14425
1.14394
1.14524
1.14575
1.14473
1.1442
1.1418
1.14041
1.14508
1.15274
1.15712
1.15854
1.15264
1.15043
1.14743
1.14412
1.13834
1.13282
1.1344
1.13534
1.14564
1.13919
1.13897
1.13664
1.13819
1.13025
1.13744
1.12986
1.12179
1.13957
1.14467
1.13268
1.13877
1.14891
1.14213
1.14464
1.1649
1.18019
1.17958
1.17264
1.17342
1.17916
1.18336
1.18572
1.18752
1.18469
1.17554
1.16688
1.16137
1.15455
1.14742
1.14376
1.1482
1.15401
1.15645
1.15585
1.15849
1.15878
1.1573
1.16467
1.18635
1.18785
1.18879
1.19466
1.18392
1.18357
1.19575
1.19288
1.19947
1.21733
1.2126
1.19799
1.19017
1.19374
1.17647
1.17097
1.16624
1.15609
1.15562
1.16606
1.16819
1.17
1.16464
1.16981
1.16317
1.16988
1.16601
1.15562
1.16093
1.15334
1.16865
1.15661
1.16421
1.16916
1.14916
1.15788
1.17292
1.13015
1.15447
1.16523
1.13642
1.16494
1.17419
1.12511
1.17585
1.17839
1.10965
1.143
1.20963
1.16861
1.08882
1.08727
1.16026
1.23345
1.20433
1.1151
1.07948
1.20818
1.25219
1.29467
1.26279
1.22646
1.26786
1.36634
1.38763
1.39398
1.29534
1.30761
1.40775
1.4092
1.38586
1.48892
1.59954
1.36148
1.65091
1.51205
1.45449
1.4895
1.32527
1.5028
1.38191
1.36606
1.49247
1.50633
1.30835
1.28802
1.39016
1.54636
1.67382
1.53847
1.1372
1.15431
1.18469
1.19021
1.17212
1.17222
1.1804
1.16259
1.15093
1.15365
1.14992
1.14972
1.14917
1.14633
1.14732
1.14923
1.15133
1.14888
1.14675
1.14575
1.14768
1.14521
1.14416
1.14156
1.14124
1.14121
1.14172
1.14239
1.14358
1.14549
1.14653
1.14811
1.15131
1.15222
1.15205
1.15019
1.14875
1.1488
1.15014
1.15037
1.14865
1.14858
1.14771
1.14508
1.14485
1.14349
1.14862
1.14028
1.14095
1.13094
1.13385
1.14024
1.14186
1.13639
1.14053
1.1351
1.12323
1.14026
1.13908
1.11778
1.12592
1.1416
1.13394
1.13515
1.14354
1.13712
1.14187
1.16112
1.17639
1.17713
1.17184
1.17282
1.17863
1.1832
1.18395
1.18074
1.17394
1.16808
1.16488
1.15547
1.14472
1.14275
1.1448
1.15151
1.15296
1.14919
1.15405
1.15314
1.15387
1.16199
1.17961
1.18115
1.182
1.18907
1.18005
1.18078
1.19301
1.18761
1.19518
1.20861
1.20222
1.2052
1.19478
1.18823
1.18102
1.15537
1.15862
1.15605
1.15135
1.16028
1.16292
1.16015
1.16242
1.17144
1.16487
1.16562
1.15688
1.15541
1.15884
1.15548
1.16595
1.16138
1.16544
1.16492
1.14216
1.15064
1.15129
1.12253
1.14561
1.13844
1.13367
1.16107
1.14254
1.13186
1.17525
1.14701
1.10362
1.14411
1.1902
1.16356
1.10004
1.07215
1.12081
1.20494
1.17961
1.10692
1.0593
1.17009
1.22964
1.30897
1.21846
1.2122
1.29889
1.36596
1.376
1.39138
1.27963
1.27806
1.37098
1.373
1.34526
1.3636
1.40269
1.44142
1.43624
1.42247
1.42563
1.428
1.31041
1.37249
1.27004
1.27253
1.43534
1.39731
1.22521
1.25691
1.39703
1.52292
1.6485
1.52977
1.1397
1.14985
1.17567
1.18687
1.18095
1.17841
1.17405
1.15895
1.15002
1.15601
1.1545
1.14877
1.14745
1.14838
1.14904
1.14916
1.15207
1.15301
1.15191
1.14824
1.14843
1.14731
1.14724
1.14709
1.14828
1.15033
1.15123
1.15014
1.14723
1.14626
1.14876
1.15103
1.15572
1.15676
1.158
1.15767
1.15516
1.15357
1.15256
1.15165
1.15043
1.14778
1.14981
1.14878
1.15013
1.1416
1.14247
1.13784
1.13752
1.13729
1.13077
1.12417
1.13155
1.14188
1.12694
1.14006
1.14606
1.12109
1.13305
1.14659
1.12337
1.12084
1.13852
1.13207
1.13273
1.13845
1.13281
1.13641
1.15516
1.16992
1.17399
1.17148
1.17268
1.17828
1.18315
1.1807
1.17223
1.1669
1.1647
1.15529
1.14223
1.14054
1.14494
1.14735
1.14837
1.14511
1.14956
1.14858
1.15056
1.15956
1.17318
1.17425
1.16976
1.17764
1.17083
1.17281
1.18203
1.17591
1.18801
1.20057
1.19881
1.19175
1.18998
1.1761
1.15789
1.15087
1.1541
1.15345
1.15508
1.16354
1.16706
1.15648
1.15804
1.16179
1.15421
1.16287
1.16182
1.16367
1.1666
1.16425
1.16889
1.16379
1.16078
1.15929
1.13596
1.14689
1.13693
1.11821
1.13568
1.12464
1.13112
1.15518
1.12715
1.13679
1.16224
1.12351
1.10662
1.14466
1.16848
1.14828
1.10771
1.07751
1.1183
1.17028
1.13724
1.0892
1.06414
1.13605
1.21691
1.30145
1.17664
1.20957
1.31088
1.35299
1.35258
1.3256
1.24527
1.27039
1.36183
1.34516
1.31388
1.30636
1.34265
1.42482
1.4282
1.37818
1.43063
1.37813
1.31741
1.25836
1.23082
1.2299
1.38891
1.29569
1.16829
1.23996
1.40329
1.50965
1.62444
1.52836
1.14286
1.14877
1.164
1.17865
1.17939
1.18183
1.17769
1.16221
1.15165
1.15704
1.16187
1.15713
1.15089
1.14994
1.14883
1.14578
1.14597
1.14684
1.14846
1.14691
1.14694
1.1473
1.14949
1.15231
1.153
1.1537
1.15364
1.15049
1.14738
1.1475
1.15375
1.15885
1.16219
1.16154
1.15822
1.15715
1.15458
1.15437
1.15427
1.15463
1.1557
1.1546
1.15528
1.15271
1.15349
1.15035
1.14627
1.14275
1.13826
1.13766
1.1409
1.14031
1.12523
1.13284
1.13781
1.11692
1.12763
1.13759
1.12076
1.13166
1.1465
1.11885
1.11666
1.13806
1.13207
1.12604
1.13022
1.12641
1.13213
1.1486
1.16402
1.16939
1.17036
1.17206
1.17748
1.1786
1.17095
1.16684
1.16529
1.15467
1.13916
1.13657
1.14205
1.14344
1.14302
1.14312
1.14665
1.14313
1.14805
1.15705
1.16654
1.17069
1.16313