/*--------------------------------*- C++ -*----------------------------------*\
| =========                 |                                                 |
| \\      /  F ield         | OpenFOAM: The Open Source CFD Toolbox           |
|  \\    /   O peration     | Version:  dev                                   |
|   \\  /    A nd           | Web:      http://www.openfoam.org               |
|    \\/     M anipulation  |                                                 |
\*---------------------------------------------------------------------------*/
FoamFile
{
    version     2.0;
    format      ascii;
    class       volScalarField;
    object      T;
    location    "9.151";
}
// * * * * * * * * * * * * * * * * * * * * * * * * * * * * * * * * * * * * * //

dimensions      [0 0 0 1 0 0 0];

internalField   nonuniform List<scalar> 
12225
(
305.125
305.659
305.445
305.185
305.004
304.708
304.661
304.294
304.386
303.908
304.146
303.503
303.943
302.87
303.748
302.242
301.392
303.071
305.758
306.041
305.405
304.746
304.35
303.589
303.544
302.623
303
301.871
302.673
301.173
302.489
300.224
302.151
299.413
299.732
299.75
305.883
305.954
305.451
304.583
304.386
303.266
303.343
302.027
302.398
300.952
301.752
300.11
301.097
299.331
300.465
299.029
299.736
298.253
305.874
305.884
305.434
304.624
304.447
303.507
303.338
302.518
302.298
301.325
301.383
300.794
300.613
299.858
299.913
299.69
299.82
298.783
305.749
306
305.312
304.777
304.372
303.649
303.239
302.828
302.393
301.617
301.431
301.127
300.767
300.07
299.986
299.472
299.674
299.238
305.431
306.106
305.203
304.823
304.226
303.622
303.118
302.817
302.134
301.766
301.497
301.176
300.565
300.392
299.91
299.657
299.49
299.388
305.321
306.139
305.027
304.766
304.117
303.662
303.101
302.821
302.02
301.859
301.458
301.009
300.468
300.47
300.064
299.734
299.422
299.199
305.14
306.077
304.91
304.74
304.041
303.625
303.085
302.876
302.086
301.855
301.333
300.987
300.604
300.414
300.085
299.771
299.448
299.148
305.033
305.977
304.857
304.639
303.874
303.6
303.026
302.839
302.15
301.775
301.353
300.995
300.65
300.422
299.974
299.624
299.409
299.141
304.828
305.838
304.706
304.512
303.833
303.619
302.938
302.645
302.007
301.786
301.337
301.049
300.677
300.339
300.022
299.757
299.391
299.118
304.725
305.707
304.549
304.426
303.75
303.299
303.061
302.641
301.937
301.859
301.396
301.144
300.782
300.366
300.062
299.845
299.522
299.275
304.684
305.373
304.534
304.283
303.733
303.495
302.941
302.617
302.217
301.727
301.525
301.069
300.681
300.553
300.264
299.846
299.676
299.499
304.455
305.003
304.394
304.076
303.725
303.348
302.988
302.497
302.188
301.865
301.429
301.185
300.918
300.592
300.365
300.135
299.937
299.628
304.143
304.563
304.166
303.854
303.581
303.232
302.87
302.557
302.21
301.859
301.613
301.236
301.041
300.748
300.497
300.238
300.027
299.924
303.671
304.106
303.788
303.495
303.263
302.962
302.665
302.367
302.069
301.78
301.521
301.246
301.002
300.748
300.542
300.328
300.22
300.051
302.99
303.513
303.233
303.003
302.806
302.571
302.336
302.081
301.809
301.585
301.322
301.066
300.855
300.642
300.472
300.298
300.148
300.022
302.217
302.774
302.527
302.337
302.164
301.978
301.769
301.576
301.385
301.125
300.86
300.662
300.46
300.295
300.104
299.922
299.76
299.638
301.375
301.92
301.655
301.49
301.331
301.125
300.895
300.735
300.542
300.219
300
299.842
299.683
299.519
299.287
299.097
298.896
298.784
300.576
301.079
300.807
300.613
300.419
300.17
299.888
299.755
299.563
299.163
298.919
298.752
298.611
298.461
298.191
297.974
297.714
297.591
299.912
300.367
300.1
299.874
299.635
299.339
298.975
298.857
298.622
298.127
297.859
297.68
297.522
297.406
297.08
296.891
296.562
296.417
299.441
299.819
299.502
299.179
298.858
298.536
298.166
298.048
297.736
297.217
296.974
296.674
296.469
296.354
296.004
295.876
295.511
295.348
299.029
299.389
299.023
298.635
298.252
297.928
297.528
297.276
296.972
296.567
296.279
295.894
295.652
295.437
295.136
294.976
294.664
294.486
298.722
299.025
298.599
298.249
297.838
297.474
296.983
296.586
296.348
296.002
295.666
295.357
295.029
294.767
294.518
294.307
294.044
293.83
298.482
298.75
298.319
297.9
297.431
297.008
296.588
296.162
295.774
295.414
295.115
294.821
294.55
294.282
294.01
293.76
293.508
293.302
298.33
298.58
298.137
297.701
297.244
296.812
296.382
295.969
295.541
295.151
294.788
294.44
294.117
293.805
293.53
293.272
293.02
292.776
298.208
298.434
297.937
297.491
297.069
296.65
296.221
295.814
295.428
295.037
294.648
294.278
293.923
293.609
293.297
293.013
292.732
292.472
298.143
298.351
297.871
297.416
296.95
296.493
296.058
295.646
295.234
294.834
294.436
294.067
293.713
293.383
293.061
292.755
292.45
292.152
298.07
298.289
297.8
297.318
296.826
296.334
295.849
295.401
294.958
294.538
294.121
293.736
293.349
292.993
292.621
292.281
291.918
291.586
297.988
298.235
297.752
297.254
296.746
296.244
295.755
295.319
294.905
294.525
294.154
293.795
293.439
293.1
292.764
292.483
292.182
291.993
297.77
298.024
297.772
297.502
297.214
296.936
296.676
296.441
296.215
295.999
295.782
295.57
295.364
295.165
294.981
294.814
294.65
294.492
288.115
283.662
285.123
285.666
285.856
286.188
286.452
286.798
287.181
287.42
287.716
287.883
288.121
288.306
288.481
288.571
288.593
288.584
288.592
288.654
288.753
288.847
288.922
289.005
289.084
289.163
289.254
289.409
289.626
289.874
290.068
290.077
289.923
289.871
289.98
290.156
290.361
290.537
290.753
291.021
291.289
291.687
292.029
292.749
293.502
294.738
296.937
296.916
295.604
295.231
295.269
295.592
295.687
295.71
296.19
296.771
296.73
296.297
295.848
295.534
294.655
293.683
292.992
292.156
291.93
292.142
292.633
293.17
293.244
293.54
293.978
294.365
294.689
295.654
298.622
300.316
299.171
297.478
296.39
295.58
295.069
295.154
296.832
300.738
303.733
303.282
300.921
299.029
298.043
297.495
297.124
296.89
296.812
296.876
297.034
297.157
297.162
297.055
296.927
296.945
297.18
297.389
297.307
296.942
298.164
297.736
297.165
298.447
297.94
298.444
299.176
299.287
299.437
299.663
299.336
299.289
299.662
299.938
299.618
299.502
300.362
301.412
302.02
302.24
302.355
302.21
301.842
301.626
301.351
300.943
300.818
300.816
300.923
300.789
301.697
302.248
303.109
303.091
302.929
302.972
302.279
300.731
300.161
299.42
300.125
301.068
302.19
302.856
302.75
302.506
300.803
301.73
298.475
298.24
295.929
298
296.03
297.963
299.069
295.022
296.871
299.806
298.656
295.598
295.347
285.814
282.497
275.744
273.999
275.047
274.56
276.959
280.522
283.812
285.926
291.494
297.371
289.493
289.491
297
287.7
283.394
285.524
286.366
286.762
286.585
287.013
287.157
287.345
287.268
287.063
286.873
286.89
286.897
286.716
286.363
285.96
285.569
285.349
285.378
285.525
285.712
285.869
285.971
285.999
286.017
286.071
286.242
286.395
286.457
286.349
286.094
285.868
285.82
285.894
286.057
286.222
286.251
286.332
286.761
287.087
287.02
287.181
287.866
288.084
288.295
289.85
289.637
290.792
291.77
289.981
293.296
296.275
293.531
291.644
292.655
293.66
293.531
292.482
292.059
290.909
288.968
288.244
287.061
287.484
288.956
290.1
291.202
291.834
292.193
292.245
291.777
292.432
292.923
293.014
293.949
295.861
296.099
294.856
293.375
291.131
290.827
292.316
292.924
292.094
291.013
290.506
290.603
290.867
290.986
291.135
291.433
292.125
293.234
294.487
295.509
296.032
295.898
295.468
295.46
296.636
297.966
298.52
295.303
299.506
299.174
296.369
299.908
299.276
297.917
299.19
299.893
299.947
301.429
300.177
297.654
298.26
302.354
302.063
294.965
290.987
293.766
297.673
299.734
299.513
298.53
295.2
292.009
291.229
290.197
288.828
287.189
286.165
283.297
283.234
284.698
285.872
288.04
290.506
291.058
287.737
284.339
282.076
278.327
277.277
278.088
279.322
280.726
281.899
281.847
278.698
279.568
274.945
277.647
271.57
268.81
264.516
268.509
276.636
272.161
265.78
266.304
267.342
263.601
259.78
244.222
247.687
250.409
254.534
237.378
242.168
253.042
255.303
248.741
244.55
244.258
258.307
252.53
248.033
242.971
288.437
285.095
287.563
287.012
287.047
286.537
286.696
286.742
286.478
285.625
284.466
283.584
283.089
282.719
282.263
282.295
283.461
284.858
286.155
287.214
287.808
288.121
288.06
287.819
287.461
287.042
286.661
286.402
286.289
286.221
285.906
285.554
285.512
285.901
286.337
286.542
286.753
287.213
287.877
288.337
288.279
288.114
288.882
289.276
288.055
288.578
290.468
288.353
287.887
290.929
288.869
287.459
291.007
290.681
288.738
290.735
293.154
293.514
292.087
291.544
290.835
289.314
289.161
288.04
288.826
290.818
291.684
292.139
292.483
292.779
293.029
291.906
292.011
293.511
292.559
292.479
295.37
296.016
292.961
290.944
291.337
292.078
292.078
291.453
291.045
291.493
292.641
294.132
295.518
296.518
297.081
297.418
298.022
299.025
300.369
301.662
302.505
302.607
302.204
301.629
302.875
304.312
306.397
302.959
304.848
306.383
303.909
305.621
308.599
306.161
304.736
305.563
305.296
307.633
309.311
306.229
301.535
306.508
316.425
315.344
302.689
296.881
301.34
307.644
305.665
303.935
306.203
305.623
300.646
295.51
292.823
294.186
295.189
287.674
279.328
280.238
280.609
283.767
295.454
301.913
297.223
297.489
291.965
285.146
279.662
275.443
272.13
270.46
271.679
270.9
272.186
270.569
272.957
278.115
274.947
262.955
265.194
274.583
277.108
278.689
267.687
255.144
254.025
252.565
245.99
238.676
251.479
265.333
273.122
252.842
256.018
272.656
286.656
282.646
278.783
245.67
242.073
236.841
247.819
243.396
289.52
284.857
288.247
287.924
287.049
286.383
286.114
285.949
285.444
283.356
281.561
283.006
286.03
286.695
288.039
290.227
290.286
291.006
291.047
290.033
289.246
287.879
286.821
285.874
285.013
284.428
284.15
284.355
284.656
284.774
284.756
285.096
286.03
287.178
287.883
288.215
288.473
288.81
289.216
289.695
290.103
289.951
289.666
289.861
290.575
290.776
290.501
290.392
290.273
290.593
291.146
291.254
290.782
289.817
290.03
290.606
288.834
288.816
290.588
292.325
291.815
290.856
291.684
290.239
289.357
289.534
289.389
290.035
290.789
290.988
290.634
289.087
288.209
289.843
291.586
291.841
292.266
292.93
292.012
290.749
290.305
290.17
289.936
289.969
290.78
292.115
293.943
295.98
297.639
298.811
299.556
300.029
300.509
301.106
301.708
302.115
302.238
302.405
302.79
302.046
302.838
302.622
304.639
303.571
303.482
304.603
303.759
301.562
304.449
306.791
304.691
305.174
304.486
304.935
308.463
312.065
306.544
299.952
301.671
309.195
312.755
308.717
301.976
304.734
307.554
301.537
298.299
305.792
309.095
303.148
295.281
297.447
306.387
303.141
289.866
285.665
279.736
282.025
299.741
311.439
309.234
310.858
305.916
303.139
296.093
283.973
274.363
268.59
270.414
261.586
275.823
270.32
271.361
274.311
279.635
264.037
266.799
288.579
285.092
283.567
275.223
253.51
247.932
246.406
236.373
237.024
246.426
252.921
250.656
264.767
263.405
255.67
268.707
293.336
332.741
279.181
250.53
229.153
247.747
264.693
291.444
285.019
287.275
287.818
287.856
288.088
286.924
285.659
285.266
284.891
285.256
285.798
287.132
290.394
290.226
289.557
290.541
288.163
287.659
286.647
285.078
284.948
283.674
283.699
283.818
284.365
285.239
285.881
286.566
287.003
287.479
288.091
288.843
289.701
290.419
290.922
291.211
291.299
291.272
291.243
291.181
291.112
290.912
290.267
289.652
289.497
289.953
290.677
290.535
290.186
291.286
291.968
290.473
289.1
290.521
291.631
290.92
290.952
289.374
288.837
289.593
291.193
293.123
293.08
292.387
290.961
289.963
290.75
292.132
292.88
292.568
290.634
288.858
289.215
290.139
290.596
292.95
293.969
292.181
290.772
290.426
290.683
291.416
292.625
294.194
296.002
298.026
299.985
301.236
301.746
301.832
301.848
302.064
302.488
302.975
303.496
303.751
304.056
305.713
306.226
306.688
305.547
308.221
303.712
305.671
305.188
306.66
304.89
302.493
305.403
304.799
306.713
305.283
305.665
310.535
308.402
308.348
316.32
318.357
308.956
306.104
314.135
315.002
308.53
310.148
312.684
304.957
303.028
312.147
313.161
297.77
292.072
304.904
313.52
298.724
290.575
288.802
286.252
288.167
298.168
298.413
293.311
295.775
309.273
313.652
296.076
279.052
271.344
278.594
256.884
296.617
282.056
275.505
276.537
291.984
271.348
262.182
289.108
287.323
282.298
276.986
254.131
245.424
242.32
229.304
237.67
242.295
245.939
231.464
249.902
281.516
263.663
247.86
274.984
338.624
319.201
266.483
232.525
238.841
263.457
292.6
284.007
284.362
285.366
286.472
288.589
287.654
284.575
281.432
285.094
291.289
291.414
292.35
293.64
292.852
291.907
290.849
289.743
287.942
287.857
286.798
286.179
286.733
286.105
287.294
287.899
288.761
290.022
290.691
291.879
292.653
293.451
294.059
294.633
295.086
295.655
295.969
296.14
296.264
296.1
295.923
295.656
295.333
295.061
294.622
293.933
293.272
292.95
293.096
291.594
289.751
290.221
289.668
287.713
288.06
288.966
290.31
290.528
289.392
289.358
288.809
288.656
289.098
291.327
293.116
291.955
290.793
291.225
291.721
291.377
290.777
289.327
288.134
288.203
288.997
290.542
291.204
289.703
288.6
289.134
290.352
292.113
293.999
295.935
297.383
298.5
299.576
300.426
300.633
300.473
300.379
300.573
300.858
301.109
301.422
302.587
304.107
304.264
305.234
305.51
304.797
303.754
308.891
303.057
306.387
306.745
306.044
305.335
304.861
308.959
301.734
308.473
306.454
298.986
312.785
311.505
297.427
304.312
320.24
317.784
308.563
311.046
319.91
318.467
312.168
313.631
314.228
308.984
311.616
321.304
311.893
297.016
298.176
309.911
312.882
304.946
294.084
289.087
290.794
314.547
305.019
282.205
274.473
294.452
326.149
315.546
289.837
274.299
288.71
253.333
307.49
300.757
292.873
290.413
318.866
285.784
265.182
293.872
291.342
278.444
277.822
254.699
243.378
242.46
225.788
260.098
262.762
264.747
245.892
229.924
271.122
284.253
256.23
269.015
313.361
346.953
281.581
241.164
228.746
246.701
293.71
283.859
282.815
285.757
288.127
288.472
284.861
285.979
288.442
290.691
293.318
293.177
292.262
293.158
292.364
290.754
290.225
289.327
288.042
287.959
288.039
288.046
288.96
289.737
290.648
291.99
293.344
294.239
295.272
295.617
296.279
296.675
297.028
297.014
296.886
296.721
296.356
296.444
296.466
296.592
297.053
297.334
297.672
297.891
298.208
298.495
298.679
297.905
297.115
296.085
294.301
293.616
293.303
291.284
289.177
289.494
290.424
289.103
289.194
288.6
287.408
286.948
286.231
287.785
290.14
291.107
291.315
291.711
292.22
292.041
291.033
289.286
288.058
288.098
288.686
289.554
289.585
289.766
290.882
292.142
293.458
295.329
297.155
298.547
299.44
300.442
301.337
301.704
301.739
302.157
303.129
304.208
305.088
305.478
305.075
305.358
306.348
307.239
307.385
306.03
303.323
307.554
304.812
304.35
306.638
307.877
313.514
305.38
303.938
319.301
302.777
307.928
316.786
302.708
303.173
310.951
304.895
303.462
310.72
309.861
306.034
310.793
318.272
323.093
314.196
313.648
319.906
315.933
309.918
315.726
316.416
315.306
305.899
294.855
318.241
343.056
327.469
297.05
282.694
325.647
328.688
310.279
285.559
289.21
345.847
348.457
307.012
281.212
298.64
245.548
289.664
301.748
304.569
304.81
346.713
306.333
277.035
303.128
299.682
275.376
278.712
259.826
246.244
250.376
217.917
276.338
273.493
280.649
285.692
249.976
263.694
286.063
262.695
264.058
287.053
346.222
293.329
244.495
234.096
247.193
294.832
285.646
282.92
285.647
288.732
288.893
285.48
288.537
291.325
292.495
292.854
294.308
294.139
293.304
294.476
292.391
291.349
291.403
290.037
290.784
291.49
292.354
293.219
293.997
294.638
295.051
295.373
295.53
295.83
295.983
296.058
295.607
295.361
294.559
294.333
293.901
293.464
293.409
293.204
293.444
293.65
293.89
294.302
294.72
295.495
296.176
297.159
297.127
297.254
297.706
297.832
296.649
297.884
297.8
295.394
294.752
293.694
291.083
289.847
287.903
286.886
286.148
284.665
284.723
287.232
289.437
290.131
290.587
291.248
291.503
290.925
289.563
288.306
288.373
288.937
289.377
289.662
290.051
290.281
290.722
292.807
295.635
297.981
299.279
299.713
299.869
300.346
301.472
302.631
303.735
304.825
305.272
305.066
304.618
303.885
303.246
301.861
303.336
304.384
302.982
298.826
307.859
300.712
300.846
308.832
299.504
310.252
309.989
294.746
311.584
303.892
302.581
306.989
309.729
309.503
306.564
306.599
302.575
305.635
312.822
304.477
305.933
315.397
324.74
309.587
312.62
325.438
323.175
313.363
312.289
318.572
336.91
321.663
291.261
311.359
356.242
366.189
329.903
280.702
309.14
327.708
323.903
296.412
285.884
355.819
387.277
334.177
293.227
310.372
252.654
288.34
300.635
303.561
305.13
346.092
319.823
291.815
316.248
298.842
280.346
273.533
262.228
255.857
251.432
218.31
247.078
246.208
257.352
289.426
264.349
268.649
286.338
269.909
259.522
269.994
331.902
300.11
244.701
239.295
256.879
295.308
286.564
280.767
278.887
286.322
290.149
284.478
288.498
295.149
293.415
293.391
296.553
295.801
295.144
295.351
294.439
294.405
294.163
293.464
293.324
293.367
293.662
293.884
294.519
294.603
294.999
295.32
295.735
295.925
296.181
295.688
295.6
295.143
294.707
294.081
293.848
293.333
293.212
293.236
293.782
294.455
294.892
294.964
294.297
294.032
294.446
296.067
296.677
297.567
296.857
297.409
297.026
297.792
299.128
298.075
297.848
297.568
295.327
294.798
293.563
292.236
288.795
283.891
283.261
285.31
286.609
288.073
290.295
291.504
291.582
291.198
290.412
289.296
288.945
289.137
289.344
289.398
289.733
290.653
293.382
297.437
300.456
301.58
301.093
300.592
301.574
302.732
302.792
303.041
303.977
304.592
304.032
302.552
300.878
299.959
299.982
299.18
302.145
304.528
303.345
300.781
305.583
308.314
300.774
312.813
304.727
301.723
313.659
298.32
306.348
300.755
309.624
303.255
305.155
311.458
303.2
316.883
312.578
300.71
318.784
311.685
302.322
311.935
322.262
307.67
309.999
323.641
322.995
314.648
309.212
318.711
336.913
329.79
307.298
297.454
306.194
329.965
343.538
292.851
291.27
306.997
309.746
291.416
289.562
344.137
382.05
349.651
300.712
310.657
262.748
296.172
304.879
303.703
300.996
326.326
318.296
298.923
324.539
290.16
282.887
271.962
267.995
270.966
242.715
219.621
233.09
242.522
246.123
284.961
265.799
265.252
277.886
272.73
256.681
258.454
320.286
302.747
246.232
240.628
254.212
295.654
286.388
280.139
278.671
287.077
290.25
289.108
290.71
293.937
294.237
295.579
297.002
294.177
294.123
294.606
293.885
293.758
293.696
293.665
292.972
293.215
293.083
293.436
294.359
294.822
296.265
297.2
297.7
297.321
296.988
295.967
295.529
294.621
294.151
293.45
293.035
292.764
292.736
292.913
293.47
294.894
295.901
296.326
295.345
293.434
293.062
294.709
296.458
297.929
299.303
299.978
300.188
298.193
297.181
295.959
295.006
295.591
294.824
295.942
297.196
297.146
292.157
286.377
284.369
285.249
286.301
288.346
291.009
291.622
291.497
291.055
290.575
290.091
289.818
289.577
289.584
289.966
291.049
293.521
297.274
300.381
301.447
300.829
300.351
301.183
301.95
302.416
302.615
303.025
304.24
304.508
303.092
301.032
299.499
299.048
299.26
298.499
300.891
302.637
300.406
301.751
299.458
310.193
304.164
307.373
313.251
308.253
309.665
303.977
315.723
301.419
316.242
305.994
307.846
320.879
299.377
310.232
315.526
300.121
317.797
317.859
307.945
312.017
317.405
310.718
308.796
314.144
318.057
317.86
307.554
312.332
322.554
323.115
310.758
305.635
301.966
303.199
316.936
287.997
298.663
303.493
290.299
280.017
306.878
340.585
351.505
339.514
309.361
304.35
262.157
300.663
307.31
306.45
302.256
316.807
304.033
300.148
320.806
281.546
277.557
274.906
269.196
280.724
241.544
218.121
232.029
245.522
250.988
285.028
273.356
268.341
272.475
274.39
255.15
252.615
309.898
304.413
248.121
241.373
250.662
296.122
285.134
280.792
286.156
291.429
288.723
289.497
294.391
297.917
296.819
294.427
295.462
294.984
295.033
295.169
295.76
295.418
294.391
294.295
293.384
294.37
295.223
296.45
297.947
298.848
299.005
298.372
297.591
296.438
295.349
294.764
293.825
293.917
293.67
293.964
294.097
294.093
294.421
294.803
295.149
296.472
297.936
298.879
298.908
296.03
293.965
293.854
295.76
295.773
296.702
297.727
300.024
301.136
300.516
299.534
296.653
295.487
294.101
294.885
296.468
299.182
297.951
292.003
288.153
286.388
286.427
288.439
291.076
291.834
291.514
291.122
290.451
289.973
290.006
290.158
290.45
291.404
293.546
296.634
299.492
300.565
300.02
299.919
300.979
302.71
303.489
302.934
302.163
303.25
304.562
303.897
301.629
299.356
299.659
299.922
299.423
298.317
299.743
300.61
297.842
303.679
297.408
303.827
306.621
305.645
308.714
313.821
307.288
308.308
319.4
302.391
320.002
311.806
307.749
320.574
304.51
308.7
316.453
303.06
311.269
313.28
310.812
311.391
314.722
313.785
309.983
306.385
316.681
317.875
305.536
306.888
320.413
316.639
299.906
310.914
316.414
318.9
308.068
275.484
310.852
316.457
284.822
279.968
318.084
333.749
335.789
325.909
309.487
295.073
265.464
297.648
305.301
306.971
299.278
309.792
295.504
305.834
316.141
273.508
274.423
274.054
250.735
262.802
250.742
225.072
223.862
245.5
256.98
285.65
275.02
267.342
266.09
271.595
252.696
252.88
301.249
304.562
250.54
241.598
255.158
297.598
287.347
281.12
288.171
293.05
291.337
291.665
293.986
295.174
296.056
295.677
295.376
295.851
296.869
298.224
298.448
297.029
296.425
296.283
295.752
295.679
295.841
297.343
298.03
298.772
297.92
296.82
295.65
295.292
294.735
295.186
295.299
295.579
295.587
295.514
295.522
295.216
295.584
296.345
296.371
296.418
296.851
297.449
299.14
299.298
298.426
297.664
298.639
298.889
297.892
297.345
297.173
298.94
299.627
300.774
299.434
298.677
297.623
296.506
295.212
295.994
299.716
297.997
293.574
288.79
286.853
288.088
290.579
291.646
291.458
290.977
290.627
289.836
289.506
289.95
291.214
293.247
295.817
298.425
299.84
300.305
300.468
301.012
302.124
303.522
304.02
303.286
302.957
304.63
305.278
301.705
298.68
298.933
300.298
299.865
297.426
295.995
298.396
299.77
296.852
299.845
301.972
305.958
303.954
310.548
307.324
308.341
307.281
309
314.459
306.69
313.518
310.429
307.597
315.196
306.598
307.011
314.57
306.522
310.948
309.988
311.697
310.61
311.117
313.56
311.621
302.5
318.694
314.933
301.779
309.034
317.371
305.956
299.123
311.443
303.014
316.318
307.913
276.091
314.396
326.329
287.566
286.837
310.267
319.275
332.339
323.445
304.135
287.421
275.006
294.878
307.582
310.32
295.624
297.075
292.539
308.05
306.82
270.662
275.516
265.995
233.395
240.986
253.235
241.229
226.087
255.39
261.862
288.118
273.412
266.216
264.132
266.941
250.216
257.694
296.617
302.738
252.97
240.611
261.097
298.87
290.979
282.752
286.575
290.909
290.382
293.132
296.086
296.88
295.317
295.032
295.812
297.657
297.464
297.668
298.342
297.277
298.043
298.714
298.002
297.627
297.899
298.045
297.86
298.24
297.153
296.823
296.061
296.211
296.419
296.422
296.422
295.922
295.068
294.272
293.769
293.866
294.895
296.142
296.23
295.576
295.001
294.48
294.849
296.406
297.377
297.255
297.569
298.958
299.832
300.912
299.976
299.463
299.439
299.967
299.762
298.871
299.099
299.617
299.609
295.476
295.776
298.59
298.584
293.819
288.744
287.591
290.243
291.905
291.752
291.187
290.668
289.973
289.705
290.132
291.546
294.077
296.951
299.177
300.266
300.991
301.565
302.436
303.179
303.431
303.838
303.779
303.979
305.18
303.364
298.537
297.855
299.787
300.02
300.315
297.797
295.849
297.742
298.703
296.55
295.155
298.147
303.906
302.376
303.987
306.827
306.695
307.13
311.584
308.875
311.001
313.145
310.964
306.55
310.093
306.862
307.808
313.471
308.671
314.654
310.44
312.736
311.18
308.456
311.42
311.496
301.879
318.551
312.627
299.178
313.709
312.74
298.675
307.504
309.12
299.014
322.019
310.469
280.737
313.513
331.719
299.581
292.346
297.533
312.23
336.357
325.825
296.883
284.972
281.719
289.261
306.936
306.123
292.398
289.117
284.576
305.727
295.974
267.164
271.039
256.472
227.996
227.11
248.803
242.462
225.025
260.449
262.319
288.862
264.479
262.43
263.532
261.544
248.579
266.342
296.631
298.3
254.649
239.021
263.417
299.717
293.164
285.024
285.657
291.573
289.747
292.128
295.767
296.215
296.236
297.089
297.812
300.017
299.807
297.871
297.573
297.685
297.752
298.156
298.416
297.573
297.966
297.663
297.01
296.845
296.649
296.636
296.426
296.439
296.362
296.396
296.299
295.911
295.372
295.089
295.088
296.395
298.048
298.238
297.177
296.436
296.338
297.016
296.668
297.457
298.504
298.698
297.578
296.644
296.308
297.599
299.833
299.225
300.154
300.356
301.619
300.552
300.09
296.936
299.216
300.897
297.364
295.746
298.118
298.354
293.552
289.16
289.131
291.633
292.389
291.334
290.805
290.275
289.7
289.952
291.972
294.718
297.492
299.113
300.674
302.316
303.394
303.236
303.346
303.182
303.086
303.316
303.869
304.587
302.698
297.904
298.087
298.677
296.826
298.979
299.377
298.006
298.637
297.708
294.518
296.332
299.668
298.858
301.854
302.691
302.959
306.704
305.597
310.089
308.484
310.396
308.761
307.337
306.008
309.104
306.259
307.123
310.598
307.424
312.069
307.76
311.881
309.952
306.627
310.495
309.462
301.709
316.704
310.497
300.186
314.492
309.814
297.775
315.462
306.088
298.396
324.161
313.151
288.655
309.341
330.915
315.984
295.992
290.241
304.293
332.969
328.882
294.107
286.098
283.247
283.847
300.773
296.094
279.302
278.055
277.523
298.642
290.558
265.919
266.835
261.472
232.648
216.567
265.754
217.688
231.004
266.348
261.842
291.152
254.581
262.871
268.096
259.409
249.035
277.965
300.042
292.365
254.91
236.668
260.126
300.535
294.616
287.123
286.193
292.339
290.507
289.568
295.55
296.937
295.99
296.918
297.218
298.958
300.012
298.939
297.739
297.47
298.403
298.396
298.132
297.124
297.137
296.951
297.246
297.157
297.48
297.575
297.502
297.287
297.064
297.223
297.289
296.94
296.848
297.144
297.316
297.912
298.196
296.923
295
293.992
293.731
295.261
295.893
296.651
297.508
298.978
300.54
300.117
299.933
297.211
298.825
298.887
299.514
299.132
301.231
299.453
301.485
303.65
299.002
297.802
301.018
299.514
297.005
298.909
298.409
293.396
289.831
290.245
292.227
292.297
291.174
290.474
290.245
290.173
291.277
293.966
296.591
298.454
300.665
302.995
304.468
303.807
302.819
302.701
303.368
303.213
303.644
304.558
303.158
298.076
298.108
298.292
297.225
300.32
300.814
298.044
299.122
297.803
293.646
294.873
298.35
300.77
299.792
304.227
306.181
307.034
309.808
309.888
307.004
306.085
305.414
306.755
305.166
306.678
304.907
305.493
308.146
306.719
308.689
304.532
307.414
305.605
303.866
309.065
307.144
302.435
313.886
307.884
304.121
312.12
304.84
301.243
314.978
301.75
299.62
318.907
310.214
291.962
302.756
325.373
325.066
304.193
287.627
295.135
320.093
330.494
295.59
286.056
279.257
284.277
296.052
289.956
269.996
266.908
267.144
288.17
285.382
264.622
264.755
267.625
245.115
227.039
277.628
221.46
245.103
262.448
257.138
290.988
254.585
274.55
279.136
259.859
254.231
291.679
302.877
285.085
253.76
234.089
255.397
301.467
297.185
289.587
288.069
292.308
292.358
290.328
294.63
297.605
296.857
297.741
297.754
297.815
298.457
298.144
297.599
296.996
297.554
298.035
298.207
297.652
298.235
298.441
299.038
299.036
298.965
298.77
298.56
298.251
297.758
297.434
296.972
296.09
295.838
295.848
296.32
296.678
296.647
296.325
296.353
296.866
296.94
297.063
297.718
297.709
298.099
296.705
298.853
298.695
301.308
300.596
298.896
298.428
299.747
298.752
300.105
303.197
298.758
299.098
304.807
302.677
298.59
300.652
300.451
298.347
300.157
299.06
294.27
290.651
290.695
292.246
292.255
291.084
290.264
290.399
291.514
293.555
295.428
296.649
299.459
302.686
303.682
303.616
302.304
302.375
303.843
303.047
303.736
304.039
302.412
298.274
298.218
298.383
296.936
299.513
299.705
296.922
298.563
296.94
293.828
295.449
294.668
297.115
299.096
300.71
307.452
306.602
306.915
308.127
305.705
304.625
305.241
304.518
301.818
303.116
302.642
304.652
304.941
303.874
304.627
301.764
302.621
301.508
301.099
307.026
304.983
304.09
312.013
305.883
307.126
308.716
301.2
305.125
308.666
296.895
302.765
315.52
304.789
291.826
298.362
316.221
324.585
310.306
288.223
293.906
314.689
330.642
298.533
285.462
270.002
287.12
292.686
276.5
262.386
260.817
258.005
281.777
283.857
264.846
264.208
269.325
261.784
252.605
257.536
248.617
256.205
260.556
259.536
286.886
268.577
292.364
293.499
262.76
265.544
305.123
303.461
276.294
251.211
231.297
250.306
302.152
299.665
293.244
290.288
291.508
292.071
293.147
296.867
299.158
297.554
297.776
299.191
299.504
299.179
298.924
298.826
297.983
297.615
297.78
298.62
298.471
298.645
298.543
298.451
298.037
297.411
297.098
297.333
298.064
298.292
297.534
296.863
295.615
295.304
294.987
295.017
295.622
295.986
296.213
296.4
296.636
297.294
296.724
296.955
296.576
298.768
298.61
299.723
299.804
299.747
301.446
303.175
301.22
298.434
302.32
298.871
297.22
303.817
300.629
296.981
303.109
303.955
299.259
300.944
300.872
299.448
301.06
300.259
295.541
291.985
291.149
291.98
291.917
290.774
289.838
290.704
293.088
294.782
295.684
298.418
302.207
303.098
302.368
302.121
302.249
303.563
302.813
303.469
303.411
301.509
298.313
298.297
299.78
298.076
300.064
299.916
297.771
299.556
296.79
293.817
294.063
295.849
296.277
299.711
304.6
306.29
305.295
305.239
304.523
302.173
300.802
303.218
302.692
301.291
302.997
300.52
300.364
299.64
298.623
298.972
297.555
298.48
299.103
298.953
305.021
302.147
304.099
309.361
304.501
307.024
305.375
298.437
305.311
302.905
295.376
304.65
309.965
299.67
292.188
296.637
308.297
318.223
306.844
290.886
298.467
313.379
323.692
302.011
283.501
264.026
290.642
287.354
266.09
257.401
258.354
262.13
282.093
278.981
260.21
262.628
269.128
269.855
262.752
249.818
250.348
259.931
253.019
262.045
277.817
287.218
298.471
299.413
264.875
280.242
315.093
301.026
267.484
247.241
228.607
244.394
302.466
301.026
297.363
293.572
293.196
292.471
293.292
297.023
299.783
298.451
297.03
298.021
299.554
299.739
299.908
300.618
300.503
300.172
299.596
299.838
299.689
299.454
298.755
297.872
297.566
297.292
297.177
297.901
298.678
298.548
296.783
295.298
294.425
294.534
295.379
295.634
296.213
296.168
296.099
295.942
295.627
295.838
295.649
296.256
296.074
296.773
297.79
298.604
299.72
299.772
298.829
298.88
302.75
300.763
299.363
304.895
301.981
299.18
303.669
300.788
296.751
304.053
304.786
299.001
300.568
302.267
301.222
302.338
300.976
296.821
293.012
291.8
291.733
291.503
290.362
290.279
292.431
293.789
294.464
297.417
301.808
302.916
301.836
301.796
302.26
302.661
302.078
303.357
302.522
300.546
298.355
297.511
299.732
297.792
299.849