/*--------------------------------*- C++ -*----------------------------------*\
| =========                 |                                                 |
| \\      /  F ield         | OpenFOAM: The Open Source CFD Toolbox           |
|  \\    /   O peration     | Version:  dev                                   |
|   \\  /    A nd           | Web:      http://www.openfoam.org               |
|    \\/     M anipulation  |                                                 |
\*---------------------------------------------------------------------------*/
FoamFile
{
    version     2.0;
    format      ascii;
    class       volVectorField;
    object      U;
    location    "9.151";
}
// * * * * * * * * * * * * * * * * * * * * * * * * * * * * * * * * * * * * * //

dimensions      [0 1 -1 0 0 0 0];

internalField   nonuniform List<vector> 
12225
(
(6.89776 0.451137 0)
(4.27032 0.155674 0)
(2.75099 -0.00603554 0)
(2.9713 -0.0492232 0)
(2.31606 -0.0398098 0)
(3.57588 -0.0596315 0)
(2.96618 -0.0250573 0)
(4.70287 -0.0769438 0)
(4.20353 -0.0407336 0)
(6.34154 -0.124834 0)
(5.85452 -0.0632432 0)
(8.62077 -0.180598 0)
(7.9938 -0.114693 0)
(11.9234 -0.323112 0)
(11.3036 -0.195875 0)
(16.6365 -0.53259 0)
(19.8487 -2.45704 0)
(29.4246 2.548 0)
(9.37361 1.00775 0)
(9.22255 0.737246 0)
(6.81977 0.379925 0)
(7.88624 0.112352 0)
(5.16177 0.0453811 0)
(7.81524 -0.0394577 0)
(4.80959 -0.0345071 0)
(8.58169 -0.135872 0)
(5.46428 -0.0991988 0)
(10.0283 -0.261187 0)
(6.69217 -0.207603 0)
(12.286 -0.380278 0)
(8.45216 -0.46075 0)
(15.9577 -0.859714 0)
(11.4218 -0.647326 0)
(21.0928 -2.82139 0)
(17.0754 -2.71281 0)
(31.5411 -11.3687 0)
(8.91861 0.943186 0)
(11.7853 0.76923 0)
(8.46263 0.493497 0)
(11.937 0.272963 0)
(7.53682 0.177022 0)
(12.0797 0.0971635 0)
(7.26605 0.027894 0)
(12.6513 -0.115379 0)
(7.96489 -0.107506 0)
(13.6838 -0.332638 0)
(9.62278 -0.330817 0)
(15.3152 -0.637041 0)
(12.3708 -0.708858 0)
(17.3304 -1.40586 0)
(16.3576 -1.07342 0)
(19.5143 -3.37392 0)
(21.0978 -3.56274 0)
(23.3222 -12.3012 0)
(7.43412 0.804343 0)
(13.485 0.712686 0)
(8.42204 0.550209 0)
(13.7927 0.224302 0)
(9.16009 0.357134 0)
(14.2436 0.0288226 0)
(9.85457 0.232459 0)
(14.7784 -0.290422 0)
(11.2479 0.125542 0)
(15.4572 -0.702253 0)
(12.9903 -0.0701696 0)
(16.7313 -1.36963 0)
(15.3725 -0.341813 0)
(18.4799 -2.56934 0)
(18.4922 -0.844874 0)
(21.6008 -4.79416 0)
(23.196 -3.36464 0)
(22.4344 -15.8299 0)
(7.24379 0.886116 0)
(12.4612 0.187001 0)
(9.76793 0.645841 0)
(12.5805 -0.103234 0)
(10.6294 0.369057 0)
(13.3898 -0.1897 0)
(11.6319 0.334867 0)
(13.8494 -0.569673 0)
(13.4169 0.256135 0)
(14.7927 -0.906251 0)
(14.9386 -0.10059 0)
(16.3348 -1.621 0)
(17.0689 -0.486237 0)
(18.2338 -2.76207 0)
(19.3896 -1.49542 0)
(20.9917 -4.99186 0)
(22.3559 -3.08451 0)
(21.6367 -12.5027 0)
(9.21508 1.08361 0)
(10.1909 -0.401317 0)
(10.4034 0.782001 0)
(10.6734 -0.311545 0)
(10.9119 0.523523 0)
(11.733 -0.49261 0)
(11.8482 0.623457 0)
(12.4394 -1.09497 0)
(13.5561 0.408701 0)
(14.0617 -1.26202 0)
(15.0879 -0.06066 0)
(15.9961 -2.02815 0)
(17.0803 -0.566526 0)
(18.1772 -3.14099 0)
(18.9133 -2.08909 0)
(20.278 -5.26286 0)
(21.156 -4.50289 0)
(20.7318 -10.2611 0)
(9.78524 1.30121 0)
(9.67855 -0.654004 0)
(10.4555 0.89794 0)
(10.7082 -0.526232 0)
(11.1752 0.483967 0)
(11.4199 -0.676308 0)
(12.0441 0.652126 0)
(12.5338 -1.20376 0)
(13.0429 0.236231 0)
(14.0059 -1.34419 0)
(14.8389 -0.338039 0)
(15.6258 -2.17613 0)
(16.7112 -0.999347 0)
(17.9558 -3.11658 0)
(18.5684 -2.72619 0)
(19.6761 -5.07733 0)
(20.1962 -4.98636 0)
(19.9268 -8.77048 0)
(10.0265 1.16279 0)
(9.911 -0.858148 0)
(10.2591 0.884288 0)
(10.9441 -0.738501 0)
(11.0151 0.644143 0)
(11.4999 -0.835187 0)
(12.0014 0.586584 0)
(12.686 -1.17167 0)
(12.9841 0.0856576 0)
(13.9012 -1.56591 0)
(14.7306 -0.591917 0)
(15.536 -2.33077 0)
(16.3875 -1.51163 0)
(17.5856 -3.3922 0)
(18.2575 -3.12191 0)
(19.1422 -5.04197 0)
(19.3533 -5.33283 0)
(19.2809 -7.34063 0)
(10.1786 1.23259 0)
(9.67287 -0.977474 0)
(10.3844 0.811633 0)
(10.6178 -0.82808 0)
(10.8311 0.551734 0)
(11.2942 -0.87398 0)
(11.8933 0.356277 0)
(12.5203 -1.12634 0)
(13.0414 -0.204762 0)
(13.8189 -1.54338 0)
(14.5816 -0.929186 0)
(15.3743 -2.28981 0)
(16.1423 -1.86214 0)
(16.942 -3.41364 0)
(17.6067 -3.37751 0)
(18.3302 -4.82876 0)
(18.5298 -5.32766 0)
(18.6 -6.7365 0)
(10.3598 1.31745 0)
(9.64417 -0.987782 0)
(10.1797 0.785376 0)
(10.5172 -0.786676 0)
(10.7693 0.460242 0)
(11.2392 -0.853851 0)
(11.7175 0.117852 0)
(12.3711 -1.05424 0)
(12.9112 -0.385085 0)
(13.6962 -1.50631 0)
(14.4087 -1.20419 0)
(15.2158 -2.21808 0)
(15.9161 -2.13766 0)
(16.6262 -3.3292 0)
(17.1621 -3.62235 0)
(17.7605 -4.72999 0)
(18.0743 -5.33684 0)
(18.2297 -6.28523 0)
(10.1225 1.37021 0)
(9.7908 -0.929478 0)
(10.089 0.52319 0)
(10.3414 -0.778339 0)
(10.5844 0.154702 0)
(11.0428 -0.801747 0)
(11.5614 -0.227412 0)
(12.178 -1.03856 0)
(12.8357 -0.799261 0)
(13.5098 -1.51231 0)
(14.1857 -1.56988 0)
(14.8731 -2.25943 0)
(15.5596 -2.45886 0)
(16.1812 -3.27714 0)
(16.6691 -3.75711 0)
(17.097 -4.57294 0)
(17.4084 -5.26868 0)
(17.5546 -6.0102 0)
(10.0062 1.18195 0)
(9.93177 -0.771098 0)
(10.0529 0.21716 0)
(10.3495 -0.614823 0)
(10.6566 -0.159535 0)
(11.1168 -0.758294 0)
(11.6051 -0.595467 0)
(12.0969 -0.98796 0)
(12.617 -1.03733 0)
(13.1487 -1.4585 0)
(13.7146 -1.72521 0)
(14.2532 -2.20816 0)
(14.858 -2.60655 0)
(15.4215 -3.22455 0)
(15.9078 -3.78174 0)
(16.3102 -4.42669 0)
(16.6323 -5.06699 0)
(16.768 -5.71681 0)
(9.81961 1.21337 0)
(9.80453 -0.644556 0)
(9.97826 -0.141445 0)
(10.2856 -0.613203 0)
(10.5374 -0.497821 0)
(10.8567 -0.735278 0)
(11.2432 -0.762024 0)
(11.6226 -0.988062 0)
(12.129 -1.17997 0)
(12.6659 -1.52131 0)
(13.2117 -1.84992 0)
(13.7567 -2.2856 0)
(14.3203 -2.73819 0)
(14.8423 -3.22898 0)
(15.2797 -3.749 0)
(15.6414 -4.3176 0)
(15.942 -4.88671 0)
(16.0592 -5.39938 0)
(9.78311 1.01225 0)
(9.96906 -0.681168 0)
(10.1364 -0.418015 0)
(10.3876 -0.54085 0)
(10.5789 -0.590623 0)
(10.832 -0.722478 0)
(11.1939 -0.877457 0)
(11.5934 -1.05925 0)
(12.0476 -1.27989 0)
(12.5131 -1.60611 0)
(12.9781 -1.95057 0)
(13.4507 -2.3159 0)
(13.8883 -2.71236 0)
(14.2835 -3.17633 0)
(14.666 -3.64262 0)
(14.9897 -4.09254 0)
(15.2481 -4.54127 0)
(15.3954 -5.02467 0)
(9.73679 1.00976 0)
(9.75946 -0.774619 0)
(9.95836 -0.675544 0)
(10.1613 -0.64673 0)
(10.3457 -0.710403 0)
(10.5831 -0.806756 0)
(10.906 -0.948013 0)
(11.286 -1.1165 0)
(11.6901 -1.31965 0)
(12.1334 -1.58226 0)
(12.535 -1.86897 0)
(12.9256 -2.21488 0)
(13.3075 -2.59059 0)
(13.6658 -2.98328 0)
(13.976 -3.3997 0)
(14.2656 -3.8319 0)
(14.5492 -4.26539 0)
(14.7458 -4.64642 0)
(10.2093 0.996919 0)
(9.99014 -0.80115 0)
(9.9643 -0.73853 0)
(9.99346 -0.699309 0)
(10.046 -0.761727 0)
(10.1843 -0.869798 0)
(10.4103 -1.0254 0)
(10.7353 -1.20611 0)
(11.099 -1.40135 0)
(11.514 -1.6305 0)
(11.9512 -1.86808 0)
(12.3879 -2.12785 0)
(12.7744 -2.43381 0)
(13.1608 -2.77921 0)
(13.5196 -3.14257 0)
(13.8622 -3.5103 0)
(14.166 -3.87176 0)
(14.3669 -4.21424 0)
(10.0323 1.05458 0)
(9.92872 -0.668368 0)
(9.91585 -0.632182 0)
(9.93098 -0.614938 0)
(9.98302 -0.65165 0)
(10.1113 -0.75439 0)
(10.3007 -0.931551 0)
(10.5477 -1.15244 0)
(10.8248 -1.37087 0)
(11.1549 -1.60005 0)
(11.5046 -1.831 0)
(11.8725 -2.07777 0)
(12.2375 -2.34421 0)
(12.614 -2.62964 0)
(12.9496 -2.92451 0)
(13.2751 -3.22046 0)
(13.5786 -3.51099 0)
(13.8173 -3.76018 0)
(9.96339 1.01 0)
(9.75218 -0.708913 0)
(9.64481 -0.724272 0)
(9.61661 -0.7114 0)
(9.68931 -0.733006 0)
(9.85715 -0.822483 0)
(10.0896 -0.974072 0)
(10.3605 -1.1419 0)
(10.6327 -1.31395 0)
(10.929 -1.50525 0)
(11.2277 -1.69634 0)
(11.5356 -1.89823 0)
(11.8281 -2.11519 0)
(12.1192 -2.35794 0)
(12.4004 -2.61085 0)
(12.6818 -2.85535 0)
(12.9484 -3.09371 0)
(13.1688 -3.30601 0)
(10.0568 1.06523 0)
(9.91617 -0.607271 0)
(9.81555 -0.63149 0)
(9.77524 -0.647075 0)
(9.82729 -0.722017 0)
(9.95119 -0.851249 0)
(10.0972 -1.00555 0)
(10.2651 -1.12777 0)
(10.4427 -1.23502 0)
(10.6642 -1.36702 0)
(10.9149 -1.49598 0)
(11.2081 -1.63665 0)
(11.5029 -1.79813 0)
(11.8123 -1.98888 0)
(12.103 -2.20103 0)
(12.3811 -2.41944 0)
(12.641 -2.6495 0)
(12.8574 -2.83966 0)
(10.1004 0.991358 0)
(10.0169 -0.59566 0)
(9.89051 -0.65177 0)
(9.80343 -0.702376 0)
(9.80102 -0.757391 0)
(9.86491 -0.802558 0)
(9.95358 -0.866717 0)
(10.0778 -0.932922 0)
(10.2238 -1.03314 0)
(10.4309 -1.19011 0)
(10.6702 -1.36535 0)
(10.9572 -1.53375 0)
(11.2677 -1.70466 0)
(11.5993 -1.8644 0)
(11.9074 -2.03007 0)
(12.1995 -2.19433 0)
(12.461 -2.35795 0)
(12.7122 -2.498 0)
(9.95351 0.64105 0)
(9.94419 -0.598832 0)
(9.84155 -0.560074 0)
(9.74005 -0.616659 0)
(9.71997 -0.708265 0)
(9.78872 -0.779919 0)
(9.90372 -0.840045 0)
(10.0506 -0.887901 0)
(10.236 -0.967508 0)
(10.4621 -1.09257 0)
(10.6758 -1.24003 0)
(10.9195 -1.38135 0)
(11.1788 -1.53188 0)
(11.438 -1.67754 0)
(11.7086 -1.82386 0)
(11.9831 -1.95098 0)
(12.2719 -2.06065 0)
(12.5511 -2.15277 0)
(10.1087 0.517888 0)
(9.99374 -0.634909 0)
(9.87937 -0.605001 0)
(9.83411 -0.662357 0)
(9.85272 -0.761251 0)
(9.94689 -0.819197 0)
(10.0517 -0.841409 0)
(10.1567 -0.845005 0)
(10.305 -0.896887 0)
(10.4848 -0.990238 0)
(10.6667 -1.09136 0)
(10.9003 -1.21411 0)
(11.1313 -1.35175 0)
(11.3658 -1.50036 0)
(11.6349 -1.62407 0)
(11.9121 -1.71374 0)
(12.2126 -1.8071 0)
(12.4867 -1.87963 0)
(10.0369 0.341793 0)
(9.98506 -0.579196 0)
(9.99509 -0.590849 0)
(10.0283 -0.660176 0)
(10.0062 -0.739009 0)
(9.98397 -0.759833 0)
(10.0013 -0.747236 0)
(10.117 -0.741375 0)
(10.2826 -0.780482 0)
(10.4964 -0.850843 0)
(10.7672 -0.947811 0)
(11.064 -1.06912 0)
(11.3521 -1.18326 0)
(11.6444 -1.292 0)
(11.9225 -1.38775 0)
(12.1796 -1.47028 0)
(12.4136 -1.56054 0)
(12.6451 -1.63367 0)
(10.0585 0.273677 0)
(10.0252 -0.698441 0)
(9.95203 -0.714741 0)
(9.91277 -0.704697 0)
(9.87766 -0.700067 0)
(9.88276 -0.687512 0)
(9.92237 -0.697879 0)
(10.0353 -0.734964 0)
(10.2114 -0.804293 0)
(10.4581 -0.896137 0)
(10.753 -0.980692 0)
(11.0818 -1.06281 0)
(11.4151 -1.13416 0)
(11.7346 -1.17651 0)
(12.0405 -1.22363 0)
(12.3189 -1.2578 0)
(12.5702 -1.30595 0)
(12.7935 -1.35659 0)
(10.1291 0.148903 0)
(10.1963 -0.662728 0)
(10.1905 -0.671494 0)
(10.252 -0.670709 0)
(10.3067 -0.677307 0)
(10.3529 -0.670392 0)
(10.3659 -0.662137 0)
(10.4092 -0.684121 0)
(10.5036 -0.740546 0)
(10.6667 -0.813331 0)
(10.8462 -0.889478 0)
(11.0502 -0.954813 0)
(11.2482 -1.0114 0)
(11.4609 -1.0514 0)
(11.6901 -1.08569 0)
(11.9373 -1.12084 0)
(12.1904 -1.14772 0)
(12.4416 -1.17368 0)
(10.0229 -0.126107 0)
(10.1439 -0.756539 0)
(10.2549 -0.755236 0)
(10.3832 -0.738153 0)
(10.4829 -0.700502 0)
(10.5671 -0.63623 0)
(10.6451 -0.57799 0)
(10.7449 -0.573631 0)
(10.8601 -0.609766 0)
(10.9846 -0.674909 0)
(11.1198 -0.738466 0)
(11.2596 -0.780415 0)
(11.3958 -0.820346 0)
(11.5482 -0.840213 0)
(11.7075 -0.874954 0)
(11.896 -0.907241 0)
(12.0822 -0.951592 0)
(12.2906 -0.995023 0)
(10.1965 -0.210138 0)
(10.4498 -0.847409 0)
(10.6171 -0.843619 0)
(10.6567 -0.794061 0)
(10.5977 -0.742869 0)
(10.4877 -0.671729 0)
(10.4597 -0.590307 0)
(10.4611 -0.545589 0)
(10.5169 -0.547783 0)
(10.5562 -0.58055 0)
(10.6111 -0.612844 0)
(10.6665 -0.637759 0)
(10.7473 -0.66051 0)
(10.8452 -0.667124 0)
(10.9537 -0.702142 0)
(11.0796 -0.713481 0)
(11.2005 -0.749813 0)
(11.3173 -0.779024 0)
(10.0344 -0.359509 0)
(10.549 -0.916113 0)
(10.6065 -0.794751 0)
(10.2861 -0.687521 0)
(9.83684 -0.606605 0)
(9.37992 -0.515724 0)
(9.09616 -0.449747 0)
(8.87593 -0.407589 0)
(8.75824 -0.398877 0)
(8.62551 -0.408591 0)
(8.53852 -0.414754 0)
(8.46713 -0.422448 0)
(8.42745 -0.435964 0)
(8.41833 -0.438142 0)
(8.43606 -0.461137 0)
(8.45836 -0.479434 0)
(8.50199 -0.502629 0)
(8.52326 -0.524049 0)
(10.066 -0.773071 0)
(9.77307 -1.11109 0)
(8.9327 -0.825513 0)
(7.91594 -0.597203 0)
(7.00096 -0.432246 0)
(6.24229 -0.310079 0)
(5.75462 -0.227811 0)
(5.38202 -0.186747 0)
(5.16027 -0.177394 0)
(4.98515 -0.164008 0)
(4.89578 -0.175451 0)
(4.84543 -0.179103 0)
(4.84187 -0.189798 0)
(4.87308 -0.203593 0)
(4.90878 -0.217217 0)
(4.95459 -0.230795 0)
(5.01693 -0.240501 0)
(5.07775 -0.264053 0)
(8.35063 -0.402311 0)
(5.76019 -0.358847 0)
(3.91416 -0.121865 0)
(2.76816 -0.0247052 0)
(2.12375 0.00541832 0)
(1.77391 0.0104491 0)
(1.64399 0.00847234 0)
(1.60202 -0.00982222 0)
(1.65677 -0.0239358 0)
(1.73456 -0.0212339 0)
(1.84676 -0.0347009 0)
(1.99089 -0.0355278 0)
(2.15068 -0.0425429 0)
(2.32418 -0.0465045 0)
(2.50649 -0.0507019 0)
(2.67229 -0.0542933 0)
(2.83616 -0.0617231 0)
(2.99317 -0.0700821 0)
(-0.199801 -0.286381 0)
(-0.686741 -0.21497 0)
(-1.18715 -0.210634 0)
(-1.65039 -0.240909 0)
(-2.075 -0.274359 0)
(-2.47435 -0.291947 0)
(-2.85637 -0.302541 1.13993e-17)
(-3.23697 -0.319749 -1.13292e-17)
(-3.59812 -0.326423 0)
(-3.9338 -0.340221 -1.11879e-17)
(-4.25947 -0.348415 0)
(-4.58612 -0.346043 0)
(-4.90797 -0.337777 0)
(-5.2426 -0.326878 1.08957e-17)
(-5.57607 -0.315887 0)
(-5.89781 -0.30548 0)
(-6.19402 -0.28908 -1.06671e-17)
(-6.48649 -0.278015 0)
(-6.78946 -0.262508 0)
(-7.09534 -0.244759 0)
(-7.40286 -0.23128 1.03604e-17)
(-7.70314 -0.220314 0)
(-7.99321 -0.218508 1.02136e-17)
(-8.26939 -0.20994 0)
(-8.53946 -0.199526 0)
(-8.80201 -0.186488 9.9969e-18)
(-9.05342 -0.179373 0)
(-9.28135 -0.178373 -9.85778e-18)
(-9.48532 -0.176968 0)
(-9.66896 -0.168049 9.72822e-18)
(-9.82585 -0.160282 0)
(-9.95612 -0.166897 0)
(-10.0447 -0.174031 0)
(-10.0855 -0.186308 0)
(-10.0803 -0.207364 0)
(-10.0292 -0.197322 -9.31535e-18)
(-9.95634 -0.187896 0)
(-9.84401 -0.209165 1.83821e-17)
(-9.68581 -0.175925 0)
(-9.5254 -0.160555 -1.8143e-17)
(-9.32555 -0.13423 0)
(-9.14821 -0.0574845 0)
(-8.98497 -0.023655 1.7807e-17)
(-8.85495 0.0882232 0)
(-8.81506 0.183555 1.76326e-17)
(-8.7914 0.404581 -1.75755e-17)
(-9.09072 0.603688 0)
(-9.37166 0.199364 -1.74586e-17)
(-9.30897 -0.389277 -1.72578e-17)
(-9.11669 -0.737978 0)
(-8.84117 -0.897802 0)
(-8.67574 -0.800992 0)
(-8.54573 -0.519462 0)
(-8.26698 -0.292032 0)
(-7.84512 -0.105119 1.6565e-17)
(-7.37014 0.0862728 0)
(-6.94416 0.0450864 -1.63608e-17)
(-6.68203 -0.0489424 0)
(-6.4509 -0.109561 0)
(-6.38838 -0.0667249 1.59507e-17)
(-6.43862 -0.0109152 0)
(-6.51626 0.0399401 -1.5631e-17)
(-6.64413 0.0434831 0)
(-6.57854 -0.0637605 0)
(-6.26367 -0.230635 0)
(-5.66473 -0.412567 1.51225e-17)
(-4.69292 -0.562575 0)
(-3.45132 -0.716744 0)
(-2.01269 -0.863761 1.48565e-17)
(-0.394253 -0.896503 0)
(1.31532 -0.624753 1.46743e-17)
(2.55266 -0.334921 0)
(3.15881 0.0565686 0)
(3.1019 0.965429 0)
(1.72309 1.30376 -1.44705e-17)
(-0.239686 0.621082 0)
(-1.62192 -0.150999 0)
(-2.35285 -0.585769 -1.41526e-17)
(-2.29719 -0.903734 -1.40083e-17)
(-1.50686 -0.956073 0)
(-0.426206 -0.75332 -1.37532e-17)
(0.463954 -0.824041 0)
(1.02524 -1.30877 -2.7287e-17)
(1.28917 -1.39711 0)
(0.842025 -0.607251 -2.75402e-17)
(-0.507525 0.261779 0)
(-2.15191 0.553253 2.69161e-17)
(-3.66537 0.53482 0)
(-5.0737 0.494204 0)
(-6.27371 0.394442 0)
(-7.20315 0.250897 -2.58488e-17)
(-7.9596 0.131278 0)
(-8.58516 0.0657002 2.54688e-17)
(-9.08092 0.0154444 0)
(-9.4063 -0.0397343 -2.51416e-17)
(-9.49676 -0.141632 -2.49832e-17)
(-9.29594 -0.286119 -2.48175e-17)
(-8.85536 -0.404153 0)
(-8.34165 -0.441062 0)
(-7.8148 -0.40906 0)
(-7.2737 -0.411216 0)
(-6.66387 -0.424756 0)
(-5.43573 -0.6927 0)
(-4.45601 -0.475371 0)
(-3.85252 -0.481827 0)
(-2.56314 -0.664779 2.33935e-17)
(-1.62789 -0.47123 2.31885e-17)
(-0.805267 -0.467509 0)
(0.220442 -0.533781 0)
(1.24685 -0.487281 0)
(2.03468 -0.414647 2.27133e-17)
(2.80824 -0.439725 0)
(3.51637 -0.376093 0)
(4.17642 -0.365625 0)
(4.82351 -0.334076 0)
(5.31482 -0.26781 -2.19502e-17)
(5.46875 -0.164455 0)
(5.47728 -0.155863 0)
(5.5651 -0.164631 2.15262e-17)
(5.61646 -0.0912278 -2.13677e-17)
(5.29203 -0.012022 0)
(4.71466 0.0440213 -2.12149e-17)
(4.02112 0.106953 0)
(3.31812 0.112686 2.09866e-17)
(2.51613 0.177873 0)
(1.59607 0.257398 0)
(0.473472 0.324764 0)
(-0.802388 0.38105 0)
(-2.15772 0.459132 0)
(-3.54901 0.502886 -4.0085e-17)
(-5.00645 0.596177 -3.9776e-17)
(-6.36563 0.668397 0)
(-7.82693 0.698206 0)
(-9.16353 0.867408 0)
(-10.4316 0.93617 3.87203e-17)
(-11.5637 1.05029 0)
(-12.4153 1.1389 0)
(-13.0899 1.17637 0)
(-13.7796 1.34526 3.77115e-17)
(-14.3987 1.51083 -3.74286e-17)
(-15.3806 1.73875 0)
(-15.8787 1.72149 0)
(-15.8407 1.73946 -3.62381e-17)
(-15.249 1.83123 -3.58633e-17)
(-14.279 1.95873 0)
(-13.4485 2.21542 0)
(-12.7907 2.43844 3.53548e-17)
(-12.7203 2.59778 -3.51762e-17)
(-11.9528 2.47525 0)
(-12.0996 2.80431 0)
(-10.8295 2.45545 -3.42199e-17)
(-9.50555 2.88561 0)
(-9.35615 3.12026 0)
(-9.10303 3.07889 -3.32574e-17)
(-7.37711 3.17633 0)
(-6.52823 3.5459 -3.27414e-17)
(-6.55748 3.55245 0)
(-5.00259 3.40052 0)
(-3.80898 3.5056 0)
(-1.99999 3.52902 3.14707e-17)
(-0.753211 3.9393 0)
(-0.804564 4.02629 0)
(-1.88977 3.85941 0)
(-0.666553 3.63241 0)
(-0.548954 4.0671 0)
(-1.13615 4.50432 0)
(-1.73938 4.57706 2.90118e-17)
(-3.12997 4.15424 2.81926e-17)
(0.23275 3.48675 0)
(2.08271 3.98237 0)
(2.80971 3.74545 0)
(4.9669 3.53784 -2.77641e-17)
(6.7382 3.5542 0)
(7.86414 3.48978 5.61832e-17)
(10.0407 3.2024 -5.62426e-17)
(11.8562 3.26441 -5.69773e-17)
(11.5265 2.97585 5.77973e-17)
(12.0649 2.45397 -5.59447e-17)
(13.979 2.41475 5.56362e-17)
(17.2507 2.08498 0)
(-0.214721 -0.712533 0)
(-0.776306 -0.56529 0)
(-1.2708 -0.657712 -2.34157e-17)
(-1.73405 -0.789167 0)
(-2.12412 -0.887534 2.31804e-17)
(-2.51708 -0.941075 2.29978e-17)
(-2.89556 -0.973332 1.14465e-17)
(-3.2896 -1.00676 1.134e-17)
(-3.65256 -1.04991 0)
(-3.98312 -1.07676 1.118e-17)
(-4.29716 -1.08289 0)
(-4.6043 -1.04623 0)
(-4.92327 -0.997672 -2.1871e-17)
(-5.24909 -0.967517 -1.08423e-17)
(-5.58201 -0.972029 2.15386e-17)
(-5.92632 -0.999629 2.13543e-17)
(-6.27484 -1.0034 1.05711e-17)
(-6.63443 -0.982358 0)
(-6.98604 -0.924066 0)
(-7.33686 -0.854081 0)
(-7.67345 -0.798832 1.02697e-17)
(-7.99832 -0.768478 0)
(-8.32752 -0.747762 -3.03495e-17)
(-8.64311 -0.714577 0)
(-8.94433 -0.681399 0)
(-9.2277 -0.650548 -9.89364e-18)
(-9.50575 -0.646889 0)
(-9.76129 -0.645016 9.75652e-18)
(-9.99678 -0.6498 1.93995e-17)
(-10.213 -0.652655 -9.6216e-18)
(-10.3941 -0.66 0)
(-10.5251 -0.688711 0)
(-10.6351 -0.73577 0)
(-10.6752 -0.780206 1.86613e-17)
(-10.69 -0.828162 1.85293e-17)
(-10.6311 -0.846689 9.19417e-18)
(-10.4981 -0.878471 0)
(-10.3663 -0.950635 -1.81344e-17)
(-10.1023 -0.945003 0)
(-9.77454 -0.928315 1.79026e-17)
(-9.50555 -0.963324 0)
(-9.1035 -0.839105 0)
(-8.63837 -0.769363 -1.75409e-17)
(-8.26488 -0.673515 0)
(-7.76943 -0.433332 -5.20476e-17)
(-7.23979 -0.289939 1.72247e-17)
(-6.87881 -0.0881326 0)
(-6.25924 0.0447105 1.70536e-17)
(-5.81688 0.128088 1.6998e-17)
(-5.78232 0.115201 0)
(-5.55095 0.179964 0)
(-5.77074 0.409486 0)
(-6.09807 0.302854 0)
(-6.05902 -0.433507 0)
(-6.11939 -1.11335 -1.63401e-17)
(-6.33026 -1.09518 -3.25748e-17)
(-6.33113 -0.839904 1.62209e-17)
(-6.25261 -0.404741 0)
(-5.74421 -0.13084 -3.18765e-17)
(-5.55793 0.219342 1.58097e-17)
(-5.44646 0.329569 0)
(-5.50096 0.310387 1.5415e-17)
(-5.56887 0.167182 0)
(-5.52385 -0.294461 0)
(-5.29591 -0.87154 3.00543e-17)
(-4.93118 -1.52862 -1.49951e-17)
(-4.13645 -2.22997 2.99018e-17)
(-2.92585 -2.75226 -2.98004e-17)
(-1.46228 -3.13174 -1.48261e-17)
(0.286396 -3.46932 0)
(2.19084 -3.30583 -1.46402e-17)
(3.44072 -2.06777 0)
(4.45869 -0.762575 0)
(5.55035 -0.0348292 0)
(5.16695 1.45388 -1.42528e-17)
(4.61355 2.45199 0)
(3.52605 1.92818 -2.83846e-17)
(1.79911 0.852185 4.23386e-17)
(1.32312 -0.979649 1.39665e-17)
(1.6388 -2.5159 0)
(2.12375 -2.85385 1.3605e-17)
(1.64173 -1.95728 0)
(-0.302426 -0.499994 2.69326e-17)
(-2.612 0.643843 0)
(-4.55113 1.20513 2.65421e-17)
(-6.13307 1.40812 -5.2502e-17)
(-7.44935 1.37079 -2.60446e-17)
(-8.54285 1.13131 0)
(-9.41978 0.786851 0)
(-10.0437 0.424304 0)
(-10.5544 0.116536 2.54201e-17)
(-11.0034 -0.0956591 0)
(-11.3529 -0.292828 -2.51634e-17)
(-11.5564 -0.532703 0)
(-11.5404 -0.837229 7.50256e-17)
(-11.2828 -1.20306 2.49455e-17)
(-10.7617 -1.5503 2.48225e-17)
(-10.0626 -1.71207 0)
(-9.35137 -1.6746 0)
(-8.63399 -1.59011 0)
(-7.88055 -1.75109 0)
(-7.07556 -1.94823 0)
(-5.56619 -2.42903 4.79632e-17)
(-4.69168 -1.71957 4.71142e-17)
(-3.54878 -1.94155 0)
(-2.25995 -2.24619 -2.35838e-17)
(-1.32301 -1.76609 -2.32018e-17)
(-0.124365 -1.76721 0)
(0.806103 -1.97398 -4.61199e-17)
(2.05306 -1.83128 0)
(3.13807 -1.53439 2.26809e-17)
(3.95958 -1.6305 0)
(4.71878 -1.50504 0)
(5.53158 -1.501 -4.4884e-17)
(6.27482 -1.45721 0)
(7.0663 -1.2112 2.19226e-17)
(7.44247 -0.833691 0)
(7.41278 -0.855166 0)
(7.56456 -1.03041 2.16671e-17)
(8.0222 -0.797531 2.11491e-17)
(8.12055 -0.337362 0)
(7.85022 -0.16304 -2.06425e-17)
(7.15429 -0.126714 0)
(6.61571 -0.105074 2.07793e-17)
(6.04715 0.104216 4.13921e-17)
(5.42778 0.337654 0)
(4.48165 0.526967 0)
(3.54336 0.780618 0)
(2.43468 1.02118 0)
(1.31407 1.24734 3.88874e-17)
(0.0108109 1.52825 1.14975e-16)
(-1.34378 1.72149 0)
(-2.65641 1.96416 0)
(-3.89196 2.3526 0)
(-5.04325 2.67358 -3.65866e-17)
(-6.40799 2.83978 0)
(-7.34433 2.95149 0)
(-8.31832 3.31539 7.24478e-17)
(-9.83051 3.84566 3.61388e-17)
(-10.7116 4.19565 3.62539e-17)
(-11.9019 4.84802 0)
(-12.3129 4.6991 0)
(-11.8922 4.52094 3.43574e-17)
(-10.7935 4.5982 -3.33647e-17)
(-9.27354 4.85991 0)
(-8.0432 5.67119 0)
(-7.16157 6.51279 -3.29615e-17)
(-7.38778 7.27419 9.83709e-17)
(-6.41609 7.3811 0)
(-7.4949 8.06765 0)
(-6.31279 7.15154 3.19634e-17)
(-5.38619 8.46394 0)
(-5.8575 8.79235 6.1992e-17)
(-5.69662 8.2707 -3.09881e-17)
(-4.10733 8.00556 0)
(-2.58687 9.27763 2.97991e-17)
(-3.17258 9.06307 5.80349e-17)
(-0.655302 8.32246 0)
(1.17809 9.43028 0)
(2.91809 9.17444 -2.93735e-17)
(4.5138 10.0612 0)
(4.8918 11.1246 5.62969e-17)
(2.71023 11.2884 0)
(2.433 10.6783 0)
(0.36145 11.351 0)
(-0.940602 11.049 0)
(-1.61532 11.0959 -2.56129e-17)
(-2.51191 9.94073 -2.58173e-17)
(0.470897 8.02853 0)
(2.66607 8.78016 0)
(4.96603 8.55299 0)
(6.61601 8.20337 2.55848e-17)
(7.57552 7.9013 0)
(8.89134 7.58793 -4.97182e-17)
(12.5904 7.0503 4.86103e-17)
(15.2271 8.14534 4.81325e-17)
(15.2574 8.68922 5.00597e-17)
(14.6867 7.09575 4.91023e-17)
(13.3454 5.58401 4.76393e-17)
(18.1083 4.76256 0)
(-0.164123 -1.11535 0)
(-0.787742 -0.940167 0)
(-1.27719 -1.13965 2.35427e-17)
(-1.72737 -1.37632 2.33804e-17)
(-2.08827 -1.55061 -2.31664e-17)
(-2.42179 -1.57804 -2.29577e-17)
(-2.77496 -1.57348 4.77202e-20)
(-3.17572 -1.63759 0)
(-3.5321 -1.74352 0)
(-3.83718 -1.81972 0)
(-4.11659 -1.84458 0)
(-4.46412 -1.83511 0)
(-4.88928 -1.75862 6.47302e-17)
(-5.34103 -1.65342 0)
(-5.80574 -1.55151 -2.11695e-17)
(-6.28356 -1.42673 -2.10136e-17)
(-6.77404 -1.29912 0)
(-7.26029 -1.22296 0)
(-7.72922 -1.1791 0)
(-8.1701 -1.15422 0)
(-8.58374 -1.13851 -2.06527e-17)
(-8.99744 -1.10726 0)
(-9.40804 -1.06656 2.03722e-17)
(-9.81934 -1.02111 0)
(-10.2134 -0.991134 0)
(-10.6122 -0.964981 0)
(-11.0023 -0.936684 3.94376e-17)
(-11.3661 -0.916931 0)
(-11.7085 -0.898807 -1.93726e-17)
(-12.0403 -0.892557 3.8514e-17)
(-12.3171 -0.912739 0)
(-12.5552 -0.969114 0)
(-12.7273 -1.0485 0)
(-12.837 -1.13943 -1.86468e-17)
(-12.9051 -1.25286 -1.85398e-17)
(-12.8499 -1.3482 0)
(-12.7515 -1.45593 0)
(-12.5783 -1.56407 3.64361e-17)
(-12.2519 -1.61698 3.6255e-17)
(-11.9125 -1.68315 -3.60521e-17)
(-11.553 -1.77675 0)
(-10.9585 -1.70755 0)
(-10.3625 -1.60512 0)
(-9.90212 -1.63395 0)
(-9.13168 -1.4759 3.46925e-17)
(-8.41511 -1.14276 3.45375e-17)
(-7.88272 -1.08546 -3.45191e-17)
(-7.02726 -1.20105 0)
(-6.22479 -0.868842 0)
(-5.80621 -0.83144 0)
(-5.03186 -0.986191 0)
(-4.40236 -0.426338 3.29459e-17)
(-3.9447 0.0393016 0)
(-3.21469 -0.198955 0)
(-2.92962 0.156657 3.23899e-17)
(-3.43021 0.777235 3.23474e-17)
(-3.56948 0.264919 0)
(-4.11484 -0.577827 -6.446e-17)
(-4.15252 -0.881284 3.18261e-17)
(-4.60925 -0.335304 -3.15468e-17)
(-4.10306 -0.0120255 0)
(-4.07807 0.273269 0)
(-3.87513 0.23068 0)
(-3.68973 -0.291198 0)
(-3.58809 -1.00935 -3.0196e-17)
(-3.55808 -1.93873 -6.04073e-17)
(-3.18206 -3.24212 -3.00701e-17)
(-2.33521 -4.424 2.99047e-17)
(-1.16449 -5.36937 0)
(0.285198 -5.70971 -5.91077e-17)
(1.54931 -4.75076 -5.87455e-17)
(2.65212 -3.40473 -5.81138e-17)
(4.43817 -2.70645 5.77343e-17)
(4.99073 -0.521542 0)
(4.59734 2.07894 8.55373e-17)
(5.31039 2.10939 0)
(4.02209 2.639 -2.83583e-17)
(2.82463 1.6777 -2.8239e-17)
(2.7892 -1.52646 0)
(1.62616 -2.46927 0)
(-0.711716 -0.875573 -5.44169e-17)
(-3.107 0.840425 0)
(-5.10736 1.77338 -5.3807e-17)
(-6.65412 2.10445 0)
(-7.85841 2.13555 5.29038e-17)
(-8.8173 2.03214 1.05312e-16)
(-9.54479 1.72962 0)
(-10.0568 1.25459 0)
(-10.4157 0.727984 0)
(-10.701 0.264964 5.21386e-17)
(-10.9278 -0.129878 0)
(-11.0817 -0.412104 5.15893e-17)
(-11.1639 -0.693761 0)
(-11.1464 -1.0697 0)
(-10.9823 -1.55931 -1.02145e-16)
(-10.6874 -2.11733 0)
(-10.1717 -2.63825 -5.06866e-17)
(-9.46494 -2.88996 0)
(-8.64101 -2.84302 -4.99315e-17)
(-7.69085 -2.70166 0)
(-6.7408 -2.96132 0)
(-5.93834 -3.19625 0)
(-4.60108 -3.94726 -1.47793e-16)
(-3.67106 -3.07773 -4.8467e-17)
(-2.17672 -3.26356 0)
(-1.20529 -3.46001 0)
(-0.125593 -3.01943 0)
(1.15697 -2.84849 0)
(1.85554 -3.14082 4.77175e-17)
(2.8926 -3.27619 -9.36777e-17)
(4.23424 -2.54102 -4.64855e-17)
(5.17029 -2.52206 9.22173e-17)
(5.85488 -2.39301 9.15138e-17)
(6.63716 -2.36422 4.6002e-17)
(7.11558 -2.42682 0)
(7.94885 -2.14492 8.99206e-17)
(8.54446 -1.26305 0)
(8.66098 -1.12822 -8.88369e-17)
(8.48932 -1.6589 -4.57828e-17)
(8.64055 -1.48371 0)
(8.78823 -0.805451 8.59329e-17)
(8.9482 -0.282944 4.21111e-17)
(8.46087 0.0356225 0)
(7.8593 -0.0832929 4.25613e-17)
(7.12641 0.064072 -1.26996e-16)
(6.58955 0.561586 0)
(5.61272 1.09629 0)
(4.56316 1.30625 0)
(3.79688 1.62009 0)
(3.04247 2.06931 -7.89365e-17)
(1.76321 2.59296 -7.8163e-17)
(0.185391 3.05548 0)
(-1.21239 3.23258 0)
(-2.07794 3.67785 0)
(-2.66429 4.29622 0)
(-4.04648 4.93271 0)
(-5.10415 5.45234 0)
(-6.11939 6.09948 -7.18857e-17)
(-9.05797 7.28706 -4.88715e-19)
(-11.1021 7.74159 0)
(-12.7032 8.56932 0)
(-13.3393 7.94827 -7.29341e-17)
(-12.6044 7.32543 0)
(-10.8831 7.40416 6.93467e-17)
(-8.64563 7.90729 6.70376e-17)
(-6.78172 9.25008 0)
(-5.94396 10.6667 0)
(-6.5393 11.8191 -6.36632e-17)
(-5.37345 12.2462 -1.26104e-16)
(-6.23332 13.4808 0)
(-5.54103 12.0425 0)
(-3.74622 14.2408 0)
(-4.04233 15.0614 -6.2059e-17)
(-3.0615 14.4263 6.28254e-17)
(-2.84816 13.7488 0)
(-0.797625 15.6485 1.165e-16)
(-2.28755 15.4905 5.80025e-17)
(-0.588681 13.5259 -1.20339e-16)
(2.23065 15.2496 0)
(3.64294 15.6758 0)
(4.87648 17.024 -1.14756e-16)
(6.49623 18.4653 -5.45121e-17)
(4.72752 19.2041 0)
(4.13831 18.7804 0)
(1.65943 19.5997 0)
(0.378164 19.4971 0)
(0.262056 19.639 -1.03783e-16)
(0.540469 18.4561 0)
(2.21037 15.6135 0)
(3.05688 15.6484 0)
(7.03498 15.6133 0)
(8.8373 16.0642 0)
(8.09377 15.8308 0)
(7.80291 13.8791 -1.131e-16)
(11.0407 12.2269 0)
(16.3001 12.9883 0)
(17.1517 14.0933 -1.89836e-16)
(17.3806 13.0196 9.18627e-17)
(12.9256 10.8069 -9.66626e-17)
(16.4088 7.31622 9.40215e-17)
(-0.0933927 -1.56321 0)
(-0.693564 -1.09315 -4.70547e-17)
(-1.21578 -1.55178 0)
(-1.67872 -1.95817 -2.33939e-17)
(-2.01427 -2.27081 0)
(-2.36193 -2.37807 0)
(-2.69602 -2.27395 2.28768e-17)
(-3.07515 -2.29107 0)
(-3.47969 -2.48598 0)
(-3.90262 -2.62484 0)
(-4.38472 -2.50518 0)
(-4.94289 -2.10571 0)
(-5.5375 -1.82168 -8.71335e-17)
(-6.14434 -1.72956 -4.3408e-17)
(-6.69492 -1.63641 4.32867e-17)
(-7.23155 -1.6549 0)
(-7.7083 -1.67977 0)
(-8.1543 -1.63475 0)
(-8.61203 -1.60458 0)
(-9.09765 -1.55857 0)
(-9.60217 -1.48681 -4.16182e-17)
(-10.0993 -1.4028 -4.11183e-17)
(-10.6031 -1.29038 4.06648e-17)
(-11.1086 -1.18646 -4.02311e-17)
(-11.6184 -1.08838 0)
(-12.1399 -1.03062 0)
(-12.6463 -0.995204 -3.90128e-17)
(-13.1202 -0.99442 0)
(-13.5492 -1.00181 0)
(-13.9315 -1.03629 -3.82467e-17)
(-14.2593 -1.11211 -3.80434e-17)
(-14.5424 -1.24997 -3.78042e-17)
(-14.7387 -1.40275 0)
(-14.88 -1.564 0)
(-14.919 -1.74785 3.73446e-17)
(-14.8865 -1.96054 0)
(-14.7451 -2.18713 0)
(-14.4853 -2.40725 -3.65841e-17)
(-14.1514 -2.58258 3.65017e-17)
(-13.7241 -2.73213 -3.62959e-17)
(-13.266 -2.85549 0)
(-12.7112 -2.92661 0)
(-12.1271 -2.96567 -7.08994e-17)
(-11.5056 -2.855 0)
(-10.8015 -2.57772 -7.00927e-17)
(-10.1329 -2.46721 -1.04408e-16)
(-9.3064 -2.46916 1.03562e-16)
(-8.61616 -2.27977 -6.85488e-17)
(-7.79554 -1.78976 0)
(-6.99066 -1.8452 0)
(-6.15405 -1.69738 -6.72545e-17)
(-5.55727 -1.13706 -3.33554e-17)
(-4.75137 -1.07039 0)
(-3.81596 -1.21267 0)
(-3.19563 -0.660903 -3.25129e-17)
(-2.85569 -0.262479 -6.47704e-17)
(-1.78623 -0.223144 0)
(-1.53154 0.489314 6.3382e-17)
(-1.383 0.770602 -6.33784e-17)
(-1.84547 0.41828 6.33086e-17)
(-1.85447 -0.0799673 0)
(-2.02687 -0.0605742 0)
(-1.97071 -0.0826344 0)
(-1.62725 -0.487136 0)
(-1.40444 -1.00735 0)
(-1.3275 -1.92146 6.01116e-17)
(-1.21847 -3.55209 0)
(-0.86341 -5.39389 0)
(-0.2641 -6.62781 0)
(0.530682 -7.02977 1.17475e-16)
(1.39703 -6.6544 5.82581e-17)
(2.48084 -5.64158 5.75509e-17)
(3.31904 -3.49519 -1.13968e-16)
(3.23792 -0.619718 5.69092e-17)
(3.86345 0.736472 -5.68689e-17)
(3.65268 2.23815 0)
(2.20052 3.69791 5.61886e-17)
(2.21315 1.58373 0)
(0.965595 -0.339169 0)
(-1.6806 0.123675 0)
(-4.11541 1.29007 1.08467e-16)
(-5.98218 2.15879 -5.38329e-17)
(-7.2707 2.50707 -5.3386e-17)
(-8.13769 2.51693 -1.0618e-16)
(-8.79226 2.35025 -1.58714e-16)
(-9.29959 2.0335 -5.28399e-17)
(-9.66064 1.52531 0)
(-9.94045 0.905479 -1.05516e-16)
(-10.1722 0.297667 0)
(-10.4038 -0.243985 -1.57736e-16)
(-10.5866 -0.67336 0)
(-10.6992 -1.0266 -1.56222e-16)
(-10.6984 -1.37724 0)
(-10.5872 -1.83031 0)
(-10.3337 -2.40442 -5.11251e-17)
(-10.018 -3.06966 0)
(-9.56529 -3.72646 5.07604e-17)
(-8.99535 -4.1071 1.0059e-16)
(-8.28535 -4.30823 5.01524e-17)
(-7.12353 -4.05901 9.90491e-17)
(-5.66814 -4.4504 -9.86075e-17)
(-4.58704 -4.21541 -9.78549e-17)
(-3.69563 -5.30899 1.95984e-16)
(-2.16971 -4.72794 0)
(-0.911135 -4.49818 0)
(0.0800804 -4.66209 9.57734e-17)
(1.29065 -4.6597 -9.48366e-17)
(2.65889 -3.89327 0)
(3.43998 -3.86441 0)
(4.12215 -4.77997 9.43086e-17)
(5.20069 -3.82094 0)
(6.23238 -3.61432 -5.21977e-19)
(7.12417 -3.40978 -5.36426e-19)
(7.87479 -3.06222 9.07422e-17)
(8.14767 -3.24871 0)
(8.95058 -3.24059 -9.21919e-17)
(9.18655 -1.95596 0)
(9.69454 -1.61273 8.74693e-17)
(10.0581 -2.16947 0)
(9.90394 -2.08897 0)
(9.1982 -1.33218 -8.94438e-17)
(9.2462 -0.818213 -8.70607e-17)
(9.09678 -0.306302 0)
(8.97758 -0.197116 -8.54668e-17)
(8.14956 0.133043 1.70689e-16)
(7.51712 0.502877 0)