/*--------------------------------*- C++ -*----------------------------------*\
| =========                 |                                                 |
| \\      /  F ield         | OpenFOAM: The Open Source CFD Toolbox           |
|  \\    /   O peration     | Version:  dev                                   |
|   \\  /    A nd           | Web:      http://www.openfoam.org               |
|    \\/     M anipulation  |                                                 |
\*---------------------------------------------------------------------------*/
FoamFile
{
    version     2.0;
    format      ascii;
    class       volVectorField;
    object      U_0;
    location    "9.151";
}
// * * * * * * * * * * * * * * * * * * * * * * * * * * * * * * * * * * * * * //

dimensions      [0 1 -1 0 0 0 0];

internalField   nonuniform List<vector> 
12225
(
(6.83382 0.362258 0)
(4.06802 0.0607115 0)
(2.41732 -0.0997611 0)
(2.49651 -0.142657 0)
(1.71281 -0.135654 0)
(2.84431 -0.154436 0)
(2.12514 -0.121462 0)
(3.7441 -0.173254 0)
(3.15449 -0.139454 0)
(5.1842 -0.224391 0)
(4.63521 -0.165659 0)
(7.3085 -0.282393 0)
(6.6753 -0.224216 0)
(10.5339 -0.430833 0)
(9.9918 -0.321964 0)
(15.4216 -0.799704 0)
(19.1153 -2.22211 0)
(30.4802 2.03902 0)
(9.28757 0.707549 0)
(9.00505 0.443734 0)
(6.475 0.0933576 0)
(7.37141 -0.177115 0)
(4.52358 -0.247158 0)
(7.01885 -0.328658 0)
(3.90575 -0.327684 0)
(7.52435 -0.425773 0)
(4.31449 -0.393785 0)
(8.72434 -0.555195 0)
(5.31786 -0.503261 0)
(10.755 -0.675447 0)
(6.90447 -0.768173 0)
(14.2476 -1.15468 0)
(9.74371 -1.04973 0)
(19.1919 -3.27067 0)
(15.7011 -3.5955 0)
(29.8563 -10.1491 0)
(8.87815 0.400326 0)
(11.5739 0.255866 0)
(8.13985 -0.00905916 0)
(11.4353 -0.231341 0)
(6.90469 -0.333184 0)
(11.2975 -0.406261 0)
(6.35532 -0.485814 0)
(11.6126 -0.61894 0)
(6.79903 -0.622696 0)
(12.414 -0.838219 0)
(8.23416 -0.850463 0)
(13.8506 -1.13754 0)
(10.7556 -1.24967 0)
(15.7323 -1.8806 0)
(14.4656 -1.68244 0)
(17.6954 -3.98115 0)
(18.8759 -4.47044 0)
(22.7295 -11.1822 0)
(7.38586 -0.00834179 0)
(13.3043 -0.0375087 0)
(8.08182 -0.198459 0)
(13.3461 -0.511781 0)
(8.53653 -0.388395 0)
(13.5114 -0.710634 0)
(8.95253 -0.520325 0)
(13.8091 -1.02829 0)
(10.0808 -0.632937 0)
(14.2558 -1.44051 0)
(11.6088 -0.836531 0)
(15.3316 -2.09293 0)
(13.7854 -1.13487 0)
(16.9271 -3.26423 0)
(16.7878 -1.68947 0)
(19.8828 -5.56797 0)
(20.9355 -4.88374 0)
(20.446 -15.3721 0)
(7.18697 -0.197603 0)
(12.3708 -0.817687 0)
(9.42225 -0.363791 0)
(12.1735 -1.10459 0)
(10.0312 -0.633309 0)
(12.7088 -1.18373 0)
(10.7461 -0.682691 0)
(12.9547 -1.55861 0)
(12.2951 -0.759358 0)
(13.6345 -1.90583 0)
(13.6135 -1.12674 0)
(14.9804 -2.601 0)
(15.5445 -1.52641 0)
(16.6944 -3.7473 0)
(17.7506 -2.55117 0)
(19.3707 -5.8956 0)
(20.3535 -4.42312 0)
(19.3674 -13.2881 0)
(9.11824 -0.257271 0)
(10.0919 -1.69173 0)
(10.0793 -0.501609 0)
(10.2434 -1.59841 0)
(10.3259 -0.763228 0)
(11.0469 -1.76473 0)
(10.9801 -0.684979 0)
(11.5276 -2.37291 0)
(12.4948 -0.876992 0)
(12.896 -2.54843 0)
(13.8153 -1.36839 0)
(14.6448 -3.28628 0)
(15.6231 -1.87452 0)
(16.6141 -4.42988 0)
(17.2905 -3.39451 0)
(18.6703 -6.50183 0)
(19.3459 -5.83446 0)
(18.75 -11.3169 0)
(9.73953 -0.332158 0)
(9.52809 -2.2579 0)
(10.159 -0.685516 0)
(10.2498 -2.12263 0)
(10.5805 -1.10747 0)
(10.702 -2.25221 0)
(11.1949 -0.957049 0)
(11.5514 -2.80617 0)
(11.9798 -1.34899 0)
(12.8402 -2.93752 0)
(13.5562 -1.94754 0)
(14.2691 -3.74692 0)
(15.2948 -2.575 0)
(16.4292 -4.7135 0)
(16.9562 -4.30514 0)
(18.0679 -6.61773 0)
(18.4794 -6.5688 0)
(18.1497 -10.2841 0)
(9.99012 -0.744222 0)
(9.74715 -2.73489 0)
(9.96228 -0.971224 0)
(10.4972 -2.60692 0)
(10.4199 -1.22213 0)
(10.7857 -2.69797 0)
(11.161 -1.28913 0)
(11.7088 -3.0556 0)
(11.9008 -1.78618 0)
(12.7377 -3.44103 0)
(13.4542 -2.46799 0)
(14.1675 -4.19903 0)
(14.971 -3.36266 0)
(16.1119 -5.24823 0)
(16.6897 -4.95253 0)
(17.5518 -6.87646 0)
(17.6981 -7.10708 0)
(17.5741 -9.15091 0)
(10.1247 -0.93897 0)
(9.51659 -3.11366 0)
(10.0857 -1.29633 0)
(10.1689 -2.9566 0)
(10.2381 -1.56436 0)
(10.5852 -2.99783 0)
(11.0589 -1.76779 0)
(11.5609 -3.26732 0)
(11.9635 -2.33032 0)
(12.6474 -3.68179 0)
(13.3085 -3.05229 0)
(14.0085 -4.4199 0)
(14.6991 -3.97052 0)
(15.4533 -5.53285 0)
(16.0619 -5.43845 0)
(16.7543 -6.91428 0)
(16.8986 -7.36136 0)
(16.9589 -8.79982 0)
(10.2927 -1.13907 0)
(9.46309 -3.4154 0)
(9.88232 -1.60256 0)
(10.0655 -3.20057 0)
(10.1779 -1.93959 0)
(10.5228 -3.27055 0)
(10.8807 -2.28588 0)
(11.4142 -3.47614 0)
(11.8396 -2.79202 0)
(12.5273 -3.93212 0)
(13.1423 -3.60393 0)
(13.8613 -4.62817 0)
(14.478 -4.52618 0)
(15.1222 -5.73724 0)
(15.6115 -5.97259 0)
(16.1916 -7.0923 0)
(16.4666 -7.6452 0)
(16.611 -8.62199 0)
(10.0725 -1.39208 0)
(9.60514 -3.68267 0)
(9.77798 -2.17718 0)
(9.87954 -3.51006 0)
(9.98629 -2.55456 0)
(10.3202 -3.53375 0)
(10.7167 -2.94528 0)
(11.2214 -3.77897 0)
(11.7689 -3.51723 0)
(12.3441 -4.2525 0)
(12.9269 -4.28409 0)
(13.5377 -4.97941 0)
(14.1469 -5.15416 0)
(14.7026 -5.9856 0)
(15.1362 -6.42526 0)
(15.5419 -7.24999 0)
(15.8308 -7.90937 0)
(15.969 -8.65068 0)
(9.96477 -1.94163 0)
(9.74731 -3.86516 0)
(9.73561 -2.82339 0)
(9.88394 -3.68717 0)
(10.0565 -3.21302 0)
(10.3913 -3.83526 0)
(10.7587 -3.6539 0)
(11.1363 -4.06353 0)
(11.5491 -4.09996 0)
(11.9833 -4.53076 0)
(12.4561 -4.78186 0)
(12.9183 -5.26197 0)
(13.4566 -5.63982 0)
(13.9589 -6.26002 0)
(14.3958 -6.78994 0)
(14.7692 -7.42857 0)
(15.0637 -8.05283 0)
(15.1851 -8.69419 0)
(9.77512 -2.27397 0)
(9.62899 -4.09857 0)
(9.65513 -3.5428 0)
(9.81223 -4.03988 0)
(9.92633 -3.91007 0)
(10.1212 -4.16069 0)
(10.3865 -4.17966 0)
(10.6546 -4.41178 0)
(11.0572 -4.59737 0)
(11.496 -4.93885 0)
(11.9522 -5.25504 0)
(12.4178 -5.68606 0)
(12.9162 -6.12129 0)
(13.381 -6.6009 0)
(13.7705 -7.1062 0)
(14.1011 -7.66697 0)
(14.3725 -8.22059 0)
(14.4642 -8.71865 0)
(9.7238 -2.85758 0)
(9.78677 -4.49103 0)
(9.80949 -4.17244 0)
(9.91093 -4.3159 0)
(9.9621 -4.36233 0)
(10.0902 -4.49926 0)
(10.3338 -4.64886 0)
(10.6199 -4.82999 0)
(10.9701 -5.04651 0)
(11.3386 -5.36933 0)
(11.7176 -5.70256 0)
(12.1143 -6.05559 0)
(12.4856 -6.44076 0)
(12.8288 -6.8909 0)
(13.1694 -7.33761 0)
(13.4597 -7.77186 0)
(13.6882 -8.2109 0)
(13.8021 -8.68458 0)
(9.69742 -3.21522 0)
(9.593 -4.91635 0)
(9.63434 -4.75751 0)
(9.68782 -4.73796 0)
(9.73484 -4.80285 0)
(9.84806 -4.89852 0)
(10.0561 -5.03507 0)
(10.3268 -5.19763 0)
(10.6295 -5.39353 0)
(10.977 -5.64851 0)
(11.29 -5.9257 0)
(11.6046 -6.26017 0)
(11.9212 -6.62006 0)
(12.2226 -6.99698 0)
(12.4878 -7.39716 0)
(12.7455 -7.81231 0)
(12.9994 -8.2268 0)
(13.1573 -8.58785 0)
(10.1517 -3.43741 0)
(9.79975 -5.19396 0)
(9.61949 -5.07688 0)
(9.50442 -5.04196 0)
(9.42434 -5.10494 0)
(9.44153 -5.20887 0)
(9.55648 -5.35601 0)
(9.77811 -5.5247 0)
(10.0459 -5.70643 0)
(10.3731 -5.92119 0)
(10.7293 -6.14199 0)
(11.0918 -6.38641 0)
(11.4146 -6.67733 0)
(11.7478 -7.00544 0)
(12.0621 -7.3504 0)
(12.3697 -7.69929 0)
(12.6406 -8.0418 0)
(12.8014 -8.36095 0)
(9.9726 -3.49005 0)
(9.73165 -5.17354 0)
(9.57092 -5.08444 0)
(9.44599 -5.06646 0)
(9.36689 -5.10011 0)
(9.37332 -5.19713 0)
(9.44973 -5.36468 0)
(9.59298 -5.57148 0)
(9.77626 -5.77274 0)
(10.0223 -5.98221 0)
(10.2974 -6.19205 0)
(10.6 -6.4184 0)
(10.9093 -6.66423 0)
(11.2383 -6.92869 0)
(11.5339 -7.20131 0)
(11.8288 -7.47488 0)
(12.1039 -7.74101 0)
(12.3048 -7.96113 0)
(9.89059 -3.46648 0)
(9.54173 -5.13895 0)
(9.29222 -5.09619 0)
(9.13426 -5.07618 0)
(9.08461 -5.08912 0)
(9.13707 -5.16763 0)
(9.26139 -5.30495 0)
(9.43126 -5.45695 0)
(9.61167 -5.61117 0)
(9.826 -5.78088 0)
(10.0517 -5.95026 0)
(10.2955 -6.13093 0)
(10.5334 -6.32659 0)
(10.7793 -6.54709 0)
(11.0236 -6.77484 0)
(11.2759 -6.99397 0)
(11.5169 -7.20545 0)
(11.7047 -7.38769 0)
(9.98678 -3.15222 0)
(9.70022 -4.77812 0)
(9.46329 -4.74252 0)
(9.29794 -4.74881 0)
(9.23272 -4.81336 0)
(9.24504 -4.9294 0)
(9.2867 -5.06579 0)
(9.35821 -5.16882 0)
(9.44908 -5.25575 0)
(9.59401 -5.3632 0)
(9.77697 -5.46764 0)
(10.0104 -5.58543 0)
(10.253 -5.7252 0)
(10.5175 -5.89489 0)
(10.7704 -6.08353 0)
(11.0183 -6.27874 0)
(11.2527 -6.48231 0)
(11.4387 -6.64245 0)
(10.0363 -2.86349 0)
(9.8115 -4.39359 0)
(9.54721 -4.39103 0)
(9.33874 -4.4296 0)
(9.22258 -4.46984 0)
(9.17742 -4.49912 0)
(9.16352 -4.54567 0)
(9.19292 -4.59569 0)
(9.25368 -4.67836 0)
(9.38637 -4.81292 0)
(9.56104 -4.96442 0)
(9.79305 -5.10904 0)
(10.0562 -5.25604 0)
(10.347 -5.39286 0)
(10.6199 -5.53435 0)
(10.8824 -5.67654 0)
(11.1198 -5.81608 0)
(11.3449 -5.92869 0)
(9.92022 -2.7693 0)
(9.75735 -3.95114 0)
(9.51016 -3.86643 0)
(9.28407 -3.91543 0)
(9.1516 -3.99243 0)
(9.11431 -4.04656 0)
(9.1296 -4.08812 0)
(9.18459 -4.12033 0)
(9.28707 -4.18332 0)
(9.43939 -4.28903 0)
(9.58848 -4.41746 0)
(9.77846 -4.53744 0)
(9.99189 -4.66685 0)
(10.2132 -4.79107 0)
(10.4528 -4.9138 0)
(10.702 -5.01946 0)
(10.9702 -5.10538 0)
(11.2274 -5.17291 0)
(10.0432 -2.42555 0)
(9.80156 -3.53181 0)
(9.55087 -3.46122 0)
(9.38435 -3.51293 0)
(9.29284 -3.59897 0)
(9.28421 -3.64053 0)
(9.29158 -3.64573 0)
(9.30632 -3.63524 0)
(9.37381 -3.67324 0)
(9.48084 -3.74977 0)
(9.59885 -3.83402 0)
(9.77833 -3.93847 0)
(9.96177 -4.05863 0)
(10.158 -4.18795 0)
(10.3971 -4.28966 0)
(10.651 -4.3595 0)
(10.9336 -4.43161 0)
(11.1894 -4.4813 0)
(9.98155 -2.13452 0)
(9.79918 -3.02208 0)
(9.67813 -3.00437 0)
(9.59017 -3.07052 0)
(9.45492 -3.13868 0)
(9.3299 -3.14453 0)
(9.2551 -3.11601 0)
(9.28593 -3.09662 0)
(9.37248 -3.12362 0)
(9.51647 -3.17979 0)
(9.72513 -3.26233 0)
(9.96684 -3.36818 0)
(10.2071 -3.46605 0)
(10.4585 -3.55936 0)
(10.703 -3.63856 0)
(10.9331 -3.70523 0)
(11.1477 -3.77836 0)
(11.3637 -3.83191 0)
(9.99596 -1.76264 0)
(9.82771 -2.71468 0)
(9.62799 -2.70411 0)
(9.47308 -2.69035 0)
(9.32789 -2.6779 0)
(9.23032 -2.65534 0)
(9.17679 -2.65503 0)
(9.20714 -2.68108 0)
(9.30936 -2.7394 0)
(9.49088 -2.81831 0)
(9.72915 -2.88882 0)
(10.0087 -2.95683 0)
(10.2988 -3.01297 0)
(10.5814 -3.04094 0)
(10.8559 -3.07422 0)
(11.1077 -3.0955 0)
(11.3368 -3.13198 0)
(11.5418 -3.16838 0)
(10.0685 -1.46599 0)
(9.99736 -2.27663 0)
(9.86774 -2.26855 0)
(9.81639 -2.26569 0)
(9.76026 -2.26543 0)
(9.70081 -2.24998 0)
(9.61675 -2.23417 0)
(9.57475 -2.24925 0)
(9.59539 -2.2976 0)
(9.69367 -2.36043 0)
(9.81655 -2.42508 0)
(9.97226 -2.4782 0)
(10.1298 -2.52202 0)
(10.3101 -2.54916 0)
(10.5138 -2.57134 0)
(10.7406 -2.59452 0)
(10.9773 -2.60972 0)
(11.2146 -2.62341 0)
(9.94913 -1.36459 0)
(9.92996 -2.00118 0)
(9.93348 -1.98888 0)
(9.95457 -1.97027 0)
(9.94868 -1.9261 0)
(9.9329 -1.85528 0)
(9.91638 -1.79319 0)
(9.93042 -1.78567 0)
(9.96831 -1.81699 0)
(10.0259 -1.87473 0)
(10.1029 -1.92882 0)
(10.1928 -1.96112 0)
(10.2871 -1.99126 0)
(10.4056 -2.00196 0)
(10.5389 -2.02783 0)
(10.7073 -2.05182 0)
(10.8792 -2.08794 0)
(11.0786 -2.12217 0)
(10.1181 -1.16508 0)
(10.2328 -1.76888 0)
(10.294 -1.75296 0)
(10.2293 -1.70205 0)
(10.0689 -1.64579 0)
(9.86645 -1.56877 0)
(9.75175 -1.48328 0)
(9.67309 -1.43628 0)
(9.65521 -1.43553 0)
(9.62878 -1.46333 0)
(9.62678 -1.4892 0)
(9.63402 -1.50728 0)
(9.67521 -1.52262 0)
(9.73959 -1.52294 0)
(9.8219 -1.5513 0)
(9.92677 -1.556 0)
(10.0315 -1.5871 0)
(10.1371 -1.6096 0)
(9.97178 -1.02132 0)
(10.3579 -1.53476 0)
(10.3016 -1.40597 0)
(9.87606 -1.30141 0)
(9.32742 -1.21847 0)
(8.77988 -1.12485 0)
(8.41182 -1.05667 0)
(8.11209 -1.01201 0)
(7.92133 -1.0007 0)
(7.72171 -1.00641 0)
(7.57697 -1.00791 0)
(7.45545 -1.01125 0)
(7.37429 -1.01961 0)
(7.33057 -1.01711 0)
(7.3203 -1.03601 0)
(7.32015 -1.04952 0)
(7.346 -1.06842 0)
(7.35399 -1.08467 0)
(10.006 -1.15378 0)
(9.59779 -1.46444 0)
(8.64776 -1.17187 0)
(7.52531 -0.946573 0)
(6.50557 -0.781502 0)
(5.64791 -0.657806 0)
(5.06848 -0.573572 0)
(4.60991 -0.530694 0)
(4.31175 -0.519439 0)
(4.0662 -0.502914 0)
(3.91664 -0.512088 0)
(3.81328 -0.51295 0)
(3.76535 -0.520579 0)
(3.7591 -0.531766 0)
(3.76353 -0.542855 0)
(3.78461 -0.553848 0)
(3.82745 -0.560971 0)
(3.87395 -0.582198 0)
(8.27845 -0.522132 0)
(5.57942 -0.475613 0)
(3.61986 -0.235814 0)
(2.36095 -0.1383 0)
(1.6054 -0.107093 0)
(1.15054 -0.100953 0)
(0.924546 -0.101782 0)
(0.795356 -0.119623 0)
(0.773656 -0.133299 0)
(0.782 -0.12909 0)
(0.834533 -0.14199 0)
(0.927657 -0.141818 0)
(1.04446 -0.147683 0)
(1.1821 -0.15082 0)
(1.33525 -0.154349 0)
(1.47755 -0.157284 0)
(1.62317 -0.163957 0)
(1.76626 -0.172228 0)
(-0.170645 0.0100194 0)
(-0.599074 0.0776158 0)
(-1.03923 0.0833538 0)
(-1.44428 0.0529689 0)
(-1.81265 0.0183088 0)
(-2.1559 -0.000415696 0)
(-2.48126 -0.0120092 1.13352e-17)
(-2.80678 -0.0306345 -1.12659e-17)
(-3.11455 -0.0387325 0)
(-3.39818 -0.0542302 -1.11267e-17)
(-3.6726 -0.064518 0)
(-3.94982 -0.0644146 0)
(-4.22391 -0.0583896 0)
(-4.51352 -0.049897 1.08396e-17)
(-4.80551 -0.0416138 0)
(-5.08956 -0.0343893 0)
(-5.35075 -0.0210616 -1.06159e-17)
(-5.60974 -0.0131981 0)
(-5.88145 -0.0015552 0)
(-6.15885 0.0122018 0)
(-6.44147 0.0216851 1.03153e-17)
(-6.72097 0.0290277 0)
(-6.99229 0.0273735 1.01718e-17)
(-7.25108 0.0313903 0)
(-7.50662 0.0373728 0)
(-7.75788 0.0465052 9.9602e-18)
(-8.00184 0.050159 0)
(-8.22587 0.047471 -9.82404e-18)
(-8.42857 0.0445417 0)
(-8.6137 0.049307 9.69761e-18)
(-8.7749 0.0542655 0)
(-8.91297 0.0450009 0)
(-9.01305 0.0348763 0)
(-9.06766 0.0200148 0)
(-9.07758 -0.00603008 0)
(-9.04153 -0.00125106 -9.29435e-18)
(-8.98492 0.00638628 0)
(-8.89072 -0.0201092 1.83457e-17)
(-8.7481 0.00826901 0)
(-8.60377 0.020944 -1.81112e-17)
(-8.41805 0.0400553 0)
(-8.24985 0.112838 0)
(-8.09498 0.141645 1.77802e-17)
(-7.96687 0.247241 0)
(-7.92769 0.332696 1.76068e-17)
(-7.8923 0.544883 -1.75461e-17)
(-8.17426 0.772657 0)
(-8.46487 0.403288 -1.7448e-17)
(-8.41401 -0.19505 -1.72505e-17)
(-8.22078 -0.573404 0)
(-7.93018 -0.754227 0)
(-7.72819 -0.677198 0)
(-7.56289 -0.406232 0)
(-7.25266 -0.182807 0)
(-6.78982 0.00273293 1.65559e-17)
(-6.25677 0.195995 0)
(-5.76034 0.152687 -1.63562e-17)
(-5.4325 0.0515657 0)
(-5.13316 -0.0112667 0)
(-4.98769 0.0256658 1.59468e-17)
(-4.95598 0.0750226 0)
(-4.94569 0.119681 -1.5627e-17)
(-4.98173 0.11842 0)
(-4.82517 0.005781 0)
(-4.41249 -0.170081 0)
(-3.71013 -0.361815 1.51143e-17)
(-2.62657 -0.517641 0)
(-1.27963 -0.676572 0)
(0.247407 -0.825248 1.48465e-17)
(1.95539 -0.860243 0)
(3.74851 -0.590441 1.46627e-17)
(5.0529 -0.314702 0)
(5.72192 0.084806 0)
(5.70825 0.988411 0)
(4.37396 1.2761 -1.44589e-17)
(2.48767 0.578157 0)
(1.17489 -0.182432 0)
(0.522941 -0.615973 -1.41353e-17)
(0.646779 -0.945188 -1.39902e-17)
(1.4675 -0.995199 0)
(2.56509 -0.803855 -1.37348e-17)
(3.46461 -0.906916 0)
(4.03799 -1.40922 -2.72573e-17)
(4.31222 -1.47625 0)
(3.8429 -0.664615 -2.75055e-17)
(2.45311 0.188643 0)
(0.761791 0.449415 2.68729e-17)
(-0.779 0.422358 0)
(-2.20286 0.365682 0)
(-3.43328 0.254849 0)
(-4.39045 0.0986339 -2.58157e-17)
(-5.1743 -0.034567 0)
(-5.82666 -0.113838 2.54399e-17)
(-6.35071 -0.177122 0)
(-6.70698 -0.244364 -2.51171e-17)
(-6.83113 -0.358221 -2.49621e-17)
(-6.66368 -0.517262 -2.48001e-17)
(-6.2505 -0.654131 0)
(-5.75822 -0.711465 0)
(-5.25207 -0.698142 0)
(-4.7352 -0.716727 0)
(-4.1525 -0.749422 0)
(-2.95819 -1.03955 0)
(-2.00419 -0.844976 0)
(-1.40904 -0.874917 0)
(-0.141065 -1.08191 2.34075e-17)
(0.764575 -0.911378 2.32076e-17)
(1.57465 -0.937404 0)
(2.58594 -1.03044 0)
(3.58765 -1.00699 0)
(4.34606 -0.963871 2.27436e-17)
(5.09487 -1.01446 0)
(5.77328 -0.975805 0)
(6.40513 -0.994891 0)
(7.0231 -0.990941 0)
(7.46529 -0.947784 -2.19878e-17)
(7.56254 -0.869447 0)
(7.53797 -0.890964 0)
(7.60931 -0.930531 2.156e-17)
(7.63046 -0.887194 -2.14094e-17)
(7.26218 -0.832704 0)
(6.64149 -0.795373 -2.12616e-17)
(5.91992 -0.755529 0)
(5.20022 -0.775981 2.10303e-17)
(4.38662 -0.732193 0)
(3.45381 -0.672972 0)
(2.31679 -0.63074 0)
(1.03814 -0.600352 0)
(-0.319009 -0.551449 0)
(-1.70326 -0.522327 -4.02268e-17)
(-3.17703 -0.456417 -3.99437e-17)
(-4.57619 -0.404112 0)
(-6.04846 -0.400448 0)
(-7.37658 -0.261455 0)
(-8.65612 -0.181642 3.89661e-17)
(-9.83143 -0.0772948 0)
(-10.7593 0.0108595 0)
(-11.5449 0.0346986 0)
(-12.2984 0.193403 3.80755e-17)
(-12.8786 0.323744 -3.78212e-17)
(-13.7624 0.548576 0)
(-14.1607 0.530301 0)
(-14.0089 0.535748 -3.6705e-17)
(-13.2586 0.601351 -3.63437e-17)
(-11.9939 0.678778 0)
(-10.7364 0.907803 0)
(-9.67153 1.16472 3.58913e-17)
(-9.32721 1.35381 -3.57455e-17)
(-8.45024 1.26447 0)
(-8.56093 1.58526 0)
(-7.27983 1.21542 -3.48537e-17)
(-5.85221 1.62262 0)
(-5.57481 1.86379 0)
(-5.07128 1.78421 -3.38953e-17)
(-3.07694 1.7976 0)
(-1.9339 2.22617 -3.33571e-17)
(-1.88729 2.24367 0)
(-0.235302 2.00282 0)
(1.05433 2.10279 0)
(2.6829 2.06815 3.21628e-17)
(3.64302 2.5211 0)
(3.08961 2.70122 0)
(1.27596 2.60358 0)
(1.50674 2.32917 0)
(0.383497 2.87475 0)
(-1.35144 3.27894 0)
(-2.71344 3.31387 2.9576e-17)
(-4.34184 2.8533 2.87661e-17)
(-1.06855 2.1809 0)
(0.784292 2.74981 0)
(1.73304 2.48314 0)
(4.20594 2.26174 -2.83142e-17)
(6.32664 2.28633 0)
(7.79977 2.18075 5.72628e-17)
(10.6889 1.75166 -5.72885e-17)
(13.3079 1.83209 -5.80549e-17)
(13.2816 1.6179 5.88498e-17)
(13.3238 1.18951 -5.69516e-17)
(14.2282 1.11739 5.67295e-17)
(16.1119 0.739994 0)
(-0.184446 0.166153 0)
(-0.688515 0.302061 0)
(-1.12413 0.215867 -2.3281e-17)
(-1.53096 0.0848372 0)
(-1.86474 -0.0164735 2.305e-17)
(-2.2014 -0.0739726 2.28687e-17)
(-2.52305 -0.108846 1.13811e-17)
(-2.86271 -0.145655 1.12786e-17)
(-3.17324 -0.19301 0)
(-3.45262 -0.226134 1.11214e-17)
(-3.71639 -0.239917 0)
(-3.97468 -0.210393 0)
(-4.24694 -0.166811 -2.17582e-17)
(-4.52922 -0.140876 -1.07889e-17)
(-4.82125 -0.150295 2.1433e-17)
(-5.12713 -0.185906 2.12525e-17)
(-5.43995 -0.20186 1.05231e-17)
(-5.76774 -0.195455 0)
(-6.09084 -0.152222 0)
(-6.41521 -0.0956026 0)
(-6.72761 -0.052074 1.02231e-17)
(-7.02913 -0.0332954 0)
(-7.33795 -0.0254346 -3.02248e-17)
(-7.63713 -0.00542322 0)
(-7.92438 0.0157 0)
(-8.19637 0.0362551 -9.85832e-18)
(-8.46619 0.0299452 0)
(-8.71665 0.0214051 9.72391e-18)
(-8.94987 0.00600086 1.93356e-17)
(-9.16782 -0.00773448 -9.59306e-18)
(-9.35489 -0.0243105 0)
(-9.49282 -0.0613724 0)
(-9.61358 -0.118605 0)
(-9.6672 -0.174406 1.86144e-17)
(-9.69679 -0.23527 1.84844e-17)
(-9.65742 -0.265621 9.1741e-18)
(-9.54058 -0.304946 0)
(-9.42739 -0.389878 -1.81008e-17)
(-9.18606 -0.39942 0)
(-8.87178 -0.390724 1.78711e-17)
(-8.61868 -0.44208 0)
(-8.23674 -0.333339 0)
(-7.77986 -0.27313 -1.75166e-17)
(-7.41465 -0.196323 0)
(-6.93011 0.0323677 -5.19867e-17)
(-6.39973 0.169357 1.72039e-17)
(-6.0364 0.367103 0)
(-5.40496 0.49839 1.70381e-17)
(-4.9248 0.579504 1.69821e-17)
(-4.85861 0.552398 0)
(-4.6057 0.590561 0)
(-4.78414 0.817208 0)
(-5.0789 0.725057 0)
(-5.01804 -0.0254273 0)
(-5.03824 -0.737985 -1.6337e-17)
(-5.19986 -0.751336 -3.25556e-17)
(-5.14436 -0.517853 1.62145e-17)
(-5.00484 -0.10661 0)
(-4.43499 0.153619 -3.18706e-17)
(-4.17396 0.490624 1.58058e-17)
(-3.98408 0.589997 0)
(-3.95698 0.554984 1.54134e-17)
(-3.93345 0.394242 0)
(-3.80277 -0.0902697 0)
(-3.47771 -0.694649 3.00382e-17)
(-3.00441 -1.38138 -1.49862e-17)
(-2.09756 -2.0978 2.98839e-17)
(-0.774201 -2.63502 -2.97857e-17)
(0.780408 -3.02571 -1.48175e-17)
(2.61953 -3.37558 0)
(4.61212 -3.2129 -1.46285e-17)
(5.92344 -1.97492 0)
(7.03284 -0.713353 0)
(8.16682 -0.0136291 0)
(7.79954 1.48224 -1.42402e-17)
(7.32264 2.40991 0)
(6.26093 1.8307 -2.836e-17)
(4.60594 0.718637 4.22876e-17)
(4.20916 -1.15287 1.3946e-17)
(4.56428 -2.68132 0)
(5.04989 -3.005 1.35831e-17)
(4.52245 -2.10217 0)
(2.55011 -0.678274 2.68941e-17)
(0.2485 0.41832 0)
(-1.68411 0.946038 2.64984e-17)
(-3.27669 1.11813 -5.2433e-17)
(-4.61244 1.0461 -2.59993e-17)
(-5.72375 0.784648 0)
(-6.62133 0.403275 0)
(-7.27063 0.00518401 0)
(-7.80405 -0.341851 2.53776e-17)
(-8.27552 -0.592358 0)
(-8.64873 -0.825343 -2.51191e-17)
(-8.8785 -1.10013 0)
(-8.89173 -1.44048 7.49246e-17)
(-8.66524 -1.84646 2.49062e-17)
(-8.17484 -2.24232 2.47886e-17)
(-7.50236 -2.45995 0)
(-6.81652 -2.47826 0)
(-6.12616 -2.44405 0)
(-5.3993 -2.65338 0)
(-4.61901 -2.91634 0)
(-3.12817 -3.45921 4.79656e-17)
(-2.30301 -2.80835 4.71245e-17)
(-1.16349 -3.11296 0)
(0.112836 -3.48813 -2.35759e-17)
(1.00391 -3.06692 -2.31997e-17)
(2.19575 -3.16542 0)
(3.1147 -3.4469 -4.6145e-17)
(4.33965 -3.35827 0)
(5.38845 -3.16082 2.27276e-17)
(6.17848 -3.34201 0)
(6.90939 -3.28668 0)
(7.699 -3.3716 -4.49383e-17)
(8.41956 -3.39509 0)
(9.1541 -3.20372 2.19286e-17)
(9.45581 -2.92116 0)
(9.39542 -3.05593 0)
(9.54777 -3.28671 2.16803e-17)
(9.96005 -3.07439 2.11195e-17)
(9.98944 -2.68404 0)
(9.66157 -2.62034 -2.07099e-17)
(8.94262 -2.6764 0)
(8.40857 -2.72069 2.08282e-17)
(7.83814 -2.56922 4.14609e-17)
(7.19483 -2.39243 0)
(6.21432 -2.24197 0)
(5.25955 -2.03972 0)
(4.14903 -1.88964 0)
(3.03074 -1.71946 3.89931e-17)
(1.70666 -1.48722 1.15383e-16)
(0.319198 -1.33902 0)
(-1.00438 -1.17653 0)
(-2.21558 -0.840923 0)
(-3.35785 -0.591408 -3.68033e-17)
(-4.74906 -0.476446 0)
(-5.73505 -0.32909 0)
(-6.77794 0.0320193 7.30071e-17)
(-8.32988 0.527571 3.64261e-17)
(-9.172 0.799414 3.66454e-17)
(-10.2657 1.4652 0)
(-10.5837 1.34155 0)
(-10.0649 1.15335 3.4833e-17)
(-8.84454 1.14535 -3.37456e-17)
(-7.05512 1.24459 0)
(-5.38349 1.97167 0)
(-4.09845 2.89375 -3.34519e-17)
(-4.05358 3.72127 9.97293e-17)
(-2.99569 3.85655 0)
(-4.05495 4.62944 0)
(-2.89443 3.56691 3.25587e-17)
(-1.89578 4.84197 0)
(-2.27184 5.24591 6.30094e-17)
(-1.86204 4.60755 -3.1446e-17)
(-0.0751935 4.18943 0)
(1.69272 5.62448 3.03494e-17)
(1.0761 5.41564 5.90236e-17)
(3.72119 4.4231 0)
(5.75256 5.43398 0)
(7.30285 5.1208 -3.00567e-17)
(8.56118 6.1519 0)
(8.4683 7.41049 5.71615e-17)
(5.60746 7.69285 0)
(4.42163 7.06485 0)
(1.21089 8.01879 0)
(-1.12453 7.7291 0)
(-2.43361 7.69445 -2.61673e-17)
(-3.49533 6.45153 -2.64631e-17)
(-0.657191 4.5364 0)
(1.57588 5.53151 0)
(4.06834 5.20622 0)
(5.95823 4.89757 2.62178e-17)
(7.17845 4.69735 0)
(8.78471 4.25631 -5.08493e-17)
(13.149 3.38933 4.96304e-17)
(16.4955 4.35416 4.90635e-17)
(16.7788 4.8743 5.07028e-17)
(15.6066 3.45334 4.98485e-17)
(13.3617 1.98918 4.82911e-17)
(17.0354 1.24182 0)
(-0.133051 0.330118 0)
(-0.701649 0.492395 0)
(-1.13401 0.304377 2.34132e-17)
(-1.53146 0.06295 2.32487e-17)
(-1.83713 -0.11693 -2.30413e-17)
(-2.11497 -0.153142 -2.28342e-17)
(-2.41283 -0.152171 4.31066e-20)
(-2.76021 -0.219334 0)
(-3.06709 -0.33167 0)
(-3.32381 -0.419301 0)
(-3.5522 -0.457753 0)
(-3.84765 -0.462388 0)
(-4.22572 -0.401191 6.4406e-17)
(-4.63521 -0.310798 0)
(-5.06026 -0.226939 -2.10688e-17)
(-5.50242 -0.121423 -2.091e-17)
(-5.95909 -0.00620332 0)
(-6.41271 0.059377 0)
(-6.85188 0.0903306 0)
(-7.26569 0.100066 0)
(-7.65336 0.0967707 -2.05622e-17)
(-8.0422 0.107547 0)
(-8.43027 0.12711 2.02939e-17)
(-8.82229 0.153178 0)
(-9.20062 0.164607 0)
(-9.58702 0.170827 0)
(-9.96938 0.17954 3.93049e-17)
(-10.3292 0.179974 0)
(-10.6693 0.17937 -1.93144e-17)
(-11.0029 0.16918 3.83982e-17)
(-11.2863 0.134301 0)
(-11.5353 0.0630133 0)
(-11.7224 -0.031989 0)
(-11.8453 -0.140554 -1.85987e-17)
(-11.9313 -0.272049 -1.84952e-17)
(-11.8974 -0.386644 0)
(-11.8168 -0.511078 0)
(-11.6677 -0.638714 3.6351e-17)
(-11.3631 -0.710229 3.61744e-17)
(-11.0381 -0.789735 -3.59836e-17)
(-10.7038 -0.909015 0)
(-10.1341 -0.8701 0)
(-9.54022 -0.777886 0)
(-9.09155 -0.825399 0)
(-8.33516 -0.707519 3.46637e-17)
(-7.60754 -0.385645 3.44847e-17)
(-7.07583 -0.31637 -3.44848e-17)
(-6.22335 -0.461284 0)
(-5.3963 -0.155632 0)
(-4.95586 -0.116869 0)
(-4.16622 -0.316366 0)
(-3.50464 0.204028 3.29192e-17)
(-3.00711 0.674557 0)
(-2.21567 0.424081 0)
(-1.8599 0.741291 3.23747e-17)
(-2.29845 1.34957 3.23319e-17)
(-2.38684 0.831084 0)
(-2.88566 -0.0384806 -6.44404e-17)
(-2.85742 -0.387637 3.18228e-17)
(-3.25057 0.119346 -3.15423e-17)
(-2.67419 0.411227 0)
(-2.56977 0.667958 0)
(-2.28093 0.595943 0)
(-2.00777 0.03438 0)
(-1.80817 -0.722915 -3.0181e-17)
(-1.66288 -1.69538 -6.03753e-17)
(-1.18223 -3.03479 -3.00596e-17)
(-0.245054 -4.24197 2.9895e-17)
(1.02003 -5.21462 0)
(2.56595 -5.55971 -5.90862e-17)
(3.91892 -4.60516 -5.87168e-17)
(5.11469 -3.31142 -5.80833e-17)
(6.98506 -2.63512 5.77157e-17)
(7.55723 -0.419647 0)
(7.25237 2.06969 8.54454e-17)
(8.01436 2.01 0)
(6.71479 2.53554 -2.83481e-17)
(5.62904 1.42787 -2.81964e-17)
(5.61018 -1.80758 0)
(4.42155 -2.67662 0)
(2.10078 -1.09188 -5.43648e-17)
(-0.260983 0.54806 0)
(-2.24855 1.41482 -5.37537e-17)
(-3.79841 1.69947 0)
(-5.01148 1.68794 5.28512e-17)
(-5.98019 1.53371 1.05167e-16)
(-6.72257 1.18013 0)
(-7.25203 0.653875 0)
(-7.62935 0.0693778 0)
(-7.93636 -0.454241 5.20857e-17)
(-8.18839 -0.911147 0)
(-8.37 -1.25471 5.15432e-17)
(-8.48046 -1.5942 0)
(-8.49243 -2.02744 0)
(-8.35742 -2.57839 -1.02005e-16)
(-8.09216 -3.20507 0)
(-7.60656 -3.80533 -5.06632e-17)
(-6.92711 -4.14552 0)
(-6.13203 -4.18405 -4.99282e-17)
(-5.21903 -4.12876 0)
(-4.31173 -4.46874 0)
(-3.53918 -4.82792 0)
(-2.19184 -5.67797 -1.47812e-16)
(-1.3363 -4.88948 -4.8437e-17)
(0.137809 -5.21232 0)
(1.10964 -5.53917 0)
(2.1482 -5.1849 0)
(3.39705 -5.17644 0)
(4.093 -5.63133 4.7722e-17)
(5.12958 -5.81442 -9.37488e-17)
(6.43686 -5.21531 -4.64896e-17)
(7.33024 -5.35837 9.23541e-17)
(7.97491 -5.34617 9.16747e-17)
(8.72607 -5.47759 4.60397e-17)
(9.20613 -5.67055 0)
(10.0103 -5.43428 8.99041e-17)
(10.5272 -4.6673 0)
(10.5828 -4.78118 -8.91919e-17)
(10.4161 -5.51982 -4.58759e-17)
(10.5729 -5.3831 0)
(10.6692 -4.69043 8.577e-17)
(10.7559 -4.27405 4.2091e-17)
(10.2298 -4.16833 0)
(9.62034 -4.45922 4.26943e-17)
(8.88182 -4.36618 -1.27096e-16)
(8.33096 -3.95294 0)
(7.33086 -3.56194 0)
(6.26803 -3.45362 0)
(5.50899 -3.20604 0)
(4.74412 -2.83408 -7.90952e-17)
(3.41977 -2.37631 -7.83757e-17)
(1.79558 -2.01144 0)
(0.40341 -1.97649 0)
(-0.469024 -1.56203 0)
(-1.07759 -1.00596 0)
(-2.40687 -0.49587 0)
(-3.47467 -0.0183774 0)
(-4.57137 0.69886 -7.24104e-17)
(-7.52103 1.77458 -5.67296e-19)
(-9.52573 2.07146 0)
(-11.0395 2.9555 0)
(-11.5764 2.34331 -7.38614e-17)
(-10.8341 1.78539 0)
(-9.06693 1.73692 7.05059e-17)
(-6.5459 1.97026 6.79754e-17)
(-4.17426 3.20382 0)
(-2.93644 4.75287 0)
(-3.34437 6.07 -6.47007e-17)
(-2.09312 6.44302 -1.27922e-16)
(-3.00641 7.96595 0)
(-2.33793 6.11973 0)
(-0.41651 8.26306 0)
(-0.460389 9.15807 -6.3352e-17)
(0.761159 8.27274 6.41487e-17)
(1.20109 7.40303 0)
(3.43646 9.69241 1.18436e-16)
(1.96604 9.45395 5.878e-17)
(3.83389 7.00675 -1.23013e-16)
(6.75407 8.68066 0)
(7.99131 8.99531 0)
(8.85296 10.55 -1.17106e-16)
(9.92323 12.3672 -5.56881e-17)
(7.46566 13.2495 0)
(6.06473 12.8504 0)
(2.45627 14.0798 0)
(0.21079 13.8055 0)
(-0.374184 13.7343 -1.05814e-16)
(-0.156714 12.354 0)
(1.22057 9.43396 0)
(1.91515 10.0845 0)
(6.21756 9.86011 0)
(8.34596 10.3479 0)
(7.66009 10.2399 0)
(7.38039 8.09508 -1.1594e-16)
(11.3987 5.98742 0)
(17.6155 6.81873 0)
(18.7448 7.99273 -1.92971e-16)
(18.2418 7.1265 9.31773e-17)
(12.747 4.70015 -9.87921e-17)
(15.3885 1.27408 9.56715e-17)
(-0.062795 0.417878 0)
(-0.610565 0.866624 -4.67835e-17)
(-1.0743 0.43051 0)
(-1.48607 0.0202201 -2.32698e-17)
(-1.7701 -0.302237 0)
(-2.06562 -0.423985 0)
(-2.34777 -0.328602 2.27453e-17)
(-2.67267 -0.347164 0)
(-3.02265 -0.548916 0)
(-3.39291 -0.7156 0)
(-3.82357 -0.633593 0)
(-4.3336 -0.247249 0)
(-4.88189 0.0484508 -8.66475e-17)
(-5.45231 0.130163 -4.31724e-17)
(-5.97007 0.211179 4.30425e-17)
(-6.47115 0.185462 0)
(-6.91934 0.130667 0)
(-7.3335 0.149911 0)
(-7.75868 0.154474 0)
(-8.21546 0.167036 0)
(-8.69284 0.207322 -4.14589e-17)
(-9.16701 0.256406 -4.097e-17)
(-9.6491 0.337055 4.05202e-17)
(-10.1351 0.412026 -4.00921e-17)
(-10.6277 0.483414 0)
(-11.1367 0.516509 0)
(-11.6367 0.527299 -3.88869e-17)
(-12.1081 0.503877 0)
(-12.5377 0.471777 0)
(-12.9234 0.41457 -3.81367e-17)
(-13.2571 0.318364 -3.79274e-17)
(-13.5499 0.159628 -3.7682e-17)
(-13.7638 -0.0159583 0)
(-13.9242 -0.197574 0)
(-13.9802 -0.400405 3.72385e-17)
(-13.9692 -0.633576 0)
(-13.8534 -0.882339 0)
(-13.6172 -1.12961 -3.6509e-17)
(-13.3069 -1.33351 3.64099e-17)
(-12.8995 -1.50815 -3.62092e-17)
(-12.4586 -1.65771 0)
(-11.922 -1.75965 0)
(-11.3505 -1.83648 -7.07999e-17)
(-10.7391 -1.76829 0)
(-10.0373 -1.51245 -6.99935e-17)
(-9.37554 -1.41161 -1.04306e-16)
(-8.54348 -1.4445 1.03481e-16)
(-7.83992 -1.30271 -6.84902e-17)
(-7.01545 -0.829458 0)
(-6.1895 -0.894106 0)
(-5.31647 -0.790508 -6.7203e-17)
(-4.69216 -0.256409 -3.33435e-17)
(-3.85326 -0.200658 0)
(-2.87268 -0.374858 0)
(-2.20851 0.128055 -3.25028e-17)
(-1.81713 0.490546 -6.47451e-17)
(-0.683459 0.492368 0)
(-0.345749 1.18381 6.33652e-17)
(-0.122269 1.43362 -6.33537e-17)
(-0.520506 1.0481 6.3287e-17)
(-0.460124 0.510591 0)
(-0.553911 0.486621 0)
(-0.413068 0.419147 0)
(0.0145179 -0.0393033 0)
(0.32492 -0.610841 0)
(0.494106 -1.58545 6.00907e-17)
(0.693815 -3.28711 0)
(1.13313 -5.17186 0)
(1.822 -6.43485 0)
(2.71336 -6.85992 1.1741e-16)
(3.67435 -6.50995 5.82125e-17)
(4.84824 -5.51588 5.75009e-17)
(5.75272 -3.38355 -1.13915e-16)
(5.75847 -0.581261 5.68965e-17)
(6.48466 0.68552 -5.68237e-17)
(6.25715 2.18786 0)
(4.88076 3.50736 5.61247e-17)
(4.96985 1.25634 0)
(3.68472 -0.636344 0)
(1.04569 -0.193659 0)
(-1.35712 0.918699 1.08363e-16)
(-3.19995 1.71822 -5.37948e-17)
(-4.48119 1.996 -5.33864e-17)
(-5.34999 1.93631 -1.06103e-16)
(-6.00712 1.70167 -1.58546e-16)
(-6.52253 1.31662 -5.27489e-17)
(-6.89632 0.739216 0)
(-7.19058 0.045945 -1.05411e-16)
(-7.43982 -0.640653 0)
(-7.69304 -1.2638 -1.57559e-16)
(-7.9026 -1.77534 0)
(-8.04645 -2.20979 -1.5608e-16)
(-8.07964 -2.63894 0)
(-8.00521 -3.17138 0)
(-7.78956 -3.82897 -5.11754e-17)
(-7.51171 -4.58503 0)
(-7.09701 -5.34514 5.07001e-17)
(-6.56065 -5.84067 1.00611e-16)
(-5.88283 -6.1491 5.00946e-17)
(-4.75256 -6.0104 9.90743e-17)
(-3.36377 -6.49846 -9.86438e-17)
(-2.30909 -6.45326 -9.79189e-17)
(-1.41557 -7.68021 1.95987e-16)
(0.0521608 -7.19151 0)
(1.2579 -7.1559 0)
(2.22862 -7.50658 9.59214e-17)
(3.42207 -7.60455 -9.49366e-17)
(4.73203 -7.01516 0)
(5.48789 -7.26426 0)
(6.156 -8.28667 9.43295e-17)
(7.23665 -7.46071 0)
(8.26583 -7.46744 -3.67845e-19)
(9.09356 -7.40513 -3.82691e-19)
(9.79937 -7.2727 9.09699e-17)
(10.0837 -7.67853 0)
(10.8755 -7.79061 -9.2167e-17)
(11.055 -6.60209 0)
(11.5061 -6.41868 8.73259e-17)
(11.8141 -7.19547 0)
(11.6038 -7.332 0)
(10.9247 -6.73974 -8.94285e-17)
(10.9829 -6.34017 -8.69575e-17)
(10.8145 -5.94456 0)
(10.6455 -6.04562 -8.55281e-17)
(9.7886 -5.88508 1.70732e-16)
(9.135 -5.56377 0)
(8.18473 -5.02045 0)
(7.11552 -4.84689 0)
(5.78254 -4.82553 0)
(5.24058 -4.13532 8.17368e-17)
(4.47365 -3.07958 -1.5696e-16)