/*--------------------------------*- C++ -*----------------------------------*\
| =========                 |                                                 |
| \\      /  F ield         | OpenFOAM: The Open Source CFD Toolbox           |
|  \\    /   O peration     | Version:  dev                                   |
|   \\  /    A nd           | Web:      http://www.openfoam.org               |
|    \\/     M anipulation  |                                                 |
\*---------------------------------------------------------------------------*/
FoamFile
{
    version     2.0;
    format      ascii;
    class       volSymmTensorField;
    object      UPrime2Mean;
    location    "9.151";
}
// * * * * * * * * * * * * * * * * * * * * * * * * * * * * * * * * * * * * * //

dimensions      [0 2 -2 0 0 0 0];

internalField   nonuniform List<symmTensor> 
12225
(
(0.329405 0.0192661 0 0.0692336 0 0)
(2.98768 0.0796764 0 0.0781523 0 0)
(7.88433 0.112274 0 0.0768562 0 0)
(14.5417 0.148166 0 0.0755327 0 0)
(22.7142 0.132925 0 0.07648 0 0)
(32.0828 0.200994 0 0.0746357 0 0)
(42.4001 0.0958724 0 0.0765786 0 0)
(53.5488 0.200255 0 0.0738164 0 0)
(65.6478 -0.0285186 0 0.0775808 0 0)
(78.2504 0.125494 0 0.0735868 0 0)
(93.0023 -0.306285 0 0.0812835 0 0)
(107.349 -0.115938 0 0.0769595 0 0)
(127.967 -0.672223 0 0.0862902 0 0)
(145.671 -1.27693 0 0.134675 0 0)
(186.009 -1.4112 0 0.116444 0 0)
(198.586 -0.391171 0 2.39423 0 0)
(272.378 -33.5454 0 5.80964 0 0)
(575.956 -52.9568 0 18.8317 0 0)
(0.37759 0.0567939 0 0.688643 0 0)
(3.15773 0.252189 0 0.731915 0 0)
(8.41503 0.362042 0 0.713786 0 0)
(15.4812 0.485264 0 0.706284 0 0)
(24.2093 0.45284 0 0.703155 0 0)
(34.4733 0.632624 0 0.68299 0 0)
(45.5457 0.295935 0 0.691794 0 0)
(58.5071 0.608793 0 0.658471 0 0)
(71.5031 -0.13522 0 0.682343 0 0)
(87.185 0.282382 0 0.645679 0 0)
(102.824 -1.06509 0 0.711015 0 0)
(121.475 -0.766155 0 0.65524 0 0)
(142.907 -2.54264 0 1.06879 0 0)
(166.375 -4.49047 0 1.04671 0 0)
(199.85 -0.926292 0 3.10337 0 0)
(274.478 -9.9744 0 6.60861 0 0)
(281.115 -20.844 0 8.73843 0 0)
(800.113 -185.225 0 64.7151 0 0)
(0.505145 0.0583657 0 2.13956 0 0)
(3.0655 0.424543 0 2.20145 0 0)
(8.46983 0.570425 0 2.1504 0 0)
(14.8599 0.851713 0 2.14189 0 0)
(24.2869 0.864322 0 2.11881 0 0)
(33.1662 1.05283 0 2.08162 0 0)
(45.2907 0.756068 0 2.07739 0 0)
(56.2276 0.886029 0 2.00663 0 0)
(69.7152 0.172129 0 2.05081 0 0)
(83.4851 0.0165608 0 1.95849 0 0)
(98.2275 -1.12344 0 2.12174 0 0)
(115.715 -2.44876 0 2.09379 0 0)
(138.679 -3.59645 0 2.62181 0 0)
(154.942 -7.19973 0 2.83113 0 0)
(211.104 -13.0123 0 6.12373 0 0)
(223.498 -7.88665 0 6.37862 0 0)
(353.186 -62.2797 0 31.0857 0 0)
(534.755 -192.587 0 98.2751 0 0)
(1.0299 0.0923719 0 4.66827 0 0)
(3.55109 0.619388 0 4.76478 0 0)
(9.07298 0.815712 0 4.64064 0 0)
(15.0736 1.14975 0 4.59991 0 0)
(24.6479 1.31266 0 4.55566 0 0)
(32.9995 1.34959 0 4.48135 0 0)
(45.0258 1.26106 0 4.44641 0 0)
(55.1938 0.973065 0 4.34793 0 0)
(68.6312 0.475476 0 4.37973 0 0)
(80.751 -0.283289 0 4.25617 0 0)
(96.0778 -1.33156 0 4.50557 0 0)
(110.565 -3.3429 0 4.37081 0 0)
(131.53 -4.79478 0 5.30088 0 0)
(152.328 -10.9754 0 5.60764 0 0)
(187.937 -11.4294 0 9.28786 0 0)
(238.536 -28.8709 0 16.8296 0 0)
(291.624 -58.9484 0 32.6849 0 0)
(414.943 -178.344 0 107.836 0 0)
(1.86422 0.365083 0 8.51873 0 0)
(5.01162 0.720332 0 8.72018 0 0)
(9.44059 1.13988 0 8.4691 0 0)
(16.2499 1.29452 0 8.36603 0 0)
(24.661 1.70052 0 8.27645 0 0)
(33.9629 1.50217 0 8.14141 0 0)
(44.8417 1.59733 0 8.04081 0 0)
(55.5491 0.992403 0 7.90881 0 0)
(68.4471 0.599565 0 7.85585 0 0)
(80.1591 -0.594919 0 7.75817 0 0)
(95.415 -1.7804 0 7.95996 0 0)
(108.607 -4.22975 0 7.90756 0 0)
(128.154 -6.88265 0 9.02479 0 0)
(145.288 -12.2915 0 9.26724 0 0)
(174.037 -19.2054 0 14.5896 0 0)
(217.992 -25.9653 0 17.2153 0 0)
(233.762 -55.5996 0 46.2653 0 0)
(326.771 -171.775 0 138.667 0 0)
(2.56341 0.750665 0 14.0334 0 0)
(6.32851 0.807278 0 14.3852 0 0)
(9.30545 1.53986 0 13.9555 0 0)
(17.1054 1.5944 0 13.7608 0 0)
(24.1534 2.12034 0 13.5862 0 0)
(34.2832 1.93624 0 13.3543 0 0)
(43.9979 1.99052 0 13.1492 0 0)
(55.1981 1.41454 0 12.9086 0 0)
(67.3617 0.893393 0 12.7722 0 0)
(78.9474 -0.3876 0 12.5714 0 0)
(94.4727 -1.74018 0 12.7722 0 0)
(105.879 -4.31474 0 12.681 0 0)
(128.177 -7.26943 0 13.9839 0 0)
(137.999 -13.16 0 14.6644 0 0)
(171.052 -21.8402 0 21.2487 0 0)
(191.572 -33.0486 0 24.6045 0 0)
(211.132 -55.9229 0 51.5772 0 0)
(265.8 -145.7 0 130.649 0 0)
(2.24651 0.721904 0 21.5224 0 0)
(5.54783 0.941383 0 22.1383 0 0)
(9.20588 1.76359 0 21.3643 0 0)
(16.3496 2.07727 0 21.1766 0 0)
(23.9868 2.44943 0 20.7781 0 0)
(33.3826 2.54218 0 20.545 0 0)
(43.6359 2.27326 0 20.077 0 0)
(54.079 1.92701 0 19.8471 0 0)
(66.5224 0.895224 0 19.4296 0 0)
(77.4032 -0.2203 0 19.2768 0 0)
(92.5682 -2.37438 0 19.2174 0 0)
(103.552 -4.82579 0 19.2602 0 0)
(123.708 -8.98475 0 20.4706 0 0)
(133.99 -14.2647 0 21.4493 0 0)
(161.625 -24.4083 0 28.5148 0 0)
(169.465 -32.4158 0 32.0512 0 0)
(203.464 -59.0215 0 56.8741 0 0)
(190.362 -108.819 0 114.165 0 0)
(1.426 0.598916 0 29.7406 0 0)
(4.32524 1.13487 0 30.6258 0 0)
(8.5885 1.92387 0 29.4789 0 0)
(15.2603 2.4723 0 29.3078 0 0)
(23.2201 2.77672 0 28.6627 0 0)
(32.2836 2.96246 0 28.4018 0 0)
(42.4429 2.59685 0 27.6504 0 0)
(52.8185 2.18942 0 27.37 0 0)
(64.4631 1.00502 0 26.6466 0 0)
(75.655 -0.366249 0 26.4816 0 0)
(88.6933 -2.7555 0 26.0986 0 0)
(100.482 -5.73969 0 26.3235 0 0)
(115.607 -10.3267 0 27.0803 0 0)
(128.14 -15.8057 0 28.5955 0 0)
(144.737 -26.4989 0 33.9114 0 0)
(152.1 -33.4672 0 37.476 0 0)
(180.426 -54.9114 0 53.1922 0 0)
(139.657 -71.3313 0 83.7028 0 0)
(1.00846 0.521456 0 38.5075 0 0)
(3.78076 1.28794 0 39.7014 0 0)
(8.18469 2.03556 0 38.1645 0 0)
(14.7355 2.77925 0 38.0235 0 0)
(22.6651 3.0049 0 37.1139 0 0)
(31.6028 3.31447 0 36.8389 0 0)
(41.5264 2.803 0 35.7883 0 0)
(51.8009 2.47074 0 35.4698 0 0)
(62.8619 1.0351 0 34.4616 0 0)
(73.8803 -0.28535 0 34.2617 0 0)
(85.7029 -3.05107 0 33.6315 0 0)
(97.0648 -5.90964 0 33.8913 0 0)
(109.397 -10.9559 0 34.4011 0 0)
(121.274 -16.0475 0 36.1207 0 0)
(131.287 -25.5724 0 40.005 0 0)
(138.21 -33.2173 0 44.7343 0 0)
(150.064 -47.3352 0 52.4652 0 0)
(123.26 -58.7645 0 73.1242 0 0)
(0.612535 0.484588 0 49.6887 0 0)
(3.23745 1.44582 0 51.2763 0 0)
(7.74516 2.18613 0 49.1807 0 0)
(14.2048 3.03514 0 49.0932 0 0)
(22.0018 3.2721 0 47.8044 0 0)
(30.8627 3.57725 0 47.5251 0 0)
(40.4907 3.06224 0 46.0643 0 0)
(50.6287 2.63301 0 45.6958 0 0)
(61.1561 1.15718 0 44.2769 0 0)
(71.8273 -0.299057 0 44.0336 0 0)
(82.7122 -3.14928 0 42.99 0 0)
(93.2578 -6.04713 0 43.3092 0 0)
(103.901 -11.1034 0 43.3104 0 0)
(113.767 -15.8561 0 45.167 0 0)
(121.379 -24.5174 0 47.6718 0 0)
(125.819 -30.5823 0 51.9414 0 0)
(129.155 -40.7309 0 56.4641 0 0)
(116.053 -48.4026 0 69.0283 0 0)
(0.434309 0.516152 0 63.8764 0 0)
(2.98014 1.62706 0 65.9306 0 0)
(7.47237 2.38279 0 63.2399 0 0)
(13.8507 3.30905 0 63.128 0 0)
(21.4992 3.56776 0 61.4948 0 0)
(30.1997 3.85649 0 61.0803 0 0)
(39.561 3.35258 0 59.273 0 0)
(49.4018 2.81356 0 58.6783 0 0)
(59.4741 1.3632 0 56.9583 0 0)
(69.5794 -0.275268 0 56.4408 0 0)
(79.677 -2.99127 0 55.1389 0 0)
(89.2138 -6.09255 0 55.1951 0 0)
(98.5331 -10.5656 0 54.8499 0 0)
(106.411 -15.4292 0 56.3977 0 0)
(112.577 -22.1455 0 57.8426 0 0)
(115.111 -28.0614 0 61.5721 0 0)
(116.057 -35.2088 0 64.5387 0 0)
(109.604 -40.8084 0 71.4381 0 0)
(0.35646 0.540429 0 81.3616 0 0)
(2.83238 1.74424 0 84.0456 0 0)
(7.26398 2.55376 0 80.5793 0 0)
(13.5201 3.49953 0 80.4699 0 0)
(20.9951 3.80634 0 78.3843 0 0)
(29.4754 4.03312 0 77.8312 0 0)
(38.5344 3.55587 0 75.5428 0 0)
(48.0056 2.91322 0 74.7184 0 0)
(57.5603 1.4736 0 72.5272 0 0)
(67.0544 -0.231702 0 71.7405 0 0)
(76.2685 -2.88261 0 69.9859 0 0)
(84.8553 -5.86871 0 69.7271 0 0)
(92.7625 -9.9741 0 68.8925 0 0)
(99.1922 -14.3033 0 69.8466 0 0)
(103.907 -19.7509 0 70.4899 0 0)
(105.851 -24.6644 0 72.9946 0 0)
(106.007 -29.8305 0 74.9373 0 0)
(101.76 -33.3155 0 78.5947 0 0)
(0.329361 0.568849 0 102.43 0 0)
(2.73687 1.80583 0 105.638 0 0)
(7.07075 2.68153 0 101.614 0 0)
(13.1586 3.58097 0 101.144 0 0)
(20.4381 3.93017 0 98.881 0 0)
(28.6234 4.05034 0 97.8015 0 0)
(37.3576 3.60968 0 95.2878 0 0)
(46.3588 2.82692 0 93.8387 0 0)
(55.3881 1.46628 0 91.4032 0 0)
(64.1696 -0.351416 0 89.9526 0 0)
(72.5491 -2.77014 0 87.9267 0 0)
(80.1395 -5.70183 0 86.9531 0 0)
(86.8613 -9.21272 0 85.7421 0 0)
(92.1225 -13.1023 0 85.7498 0 0)
(95.8247 -17.321 0 85.7005 0 0)
(97.4095 -21.3881 0 86.8428 0 0)
(97.5122 -25.233 0 87.8705 0 0)
(94.7079 -27.6887 0 89.4762 0 0)
(0.313744 0.57305 0 126.414 0 0)
(2.64148 1.77293 0 130.341 0 0)
(6.84982 2.66574 0 125.633 0 0)
(12.7342 3.46056 0 124.823 0 0)
(19.7716 3.78774 0 122.293 0 0)
(27.6228 3.80113 0 120.717 0 0)
(35.965 3.32703 0 117.835 0 0)
(44.4752 2.47955 0 115.802 0 0)
(52.9126 1.12414 0 112.942 0 0)
(61.0068 -0.639681 0 110.852 0 0)
(68.5562 -2.90826 0 108.362 0 0)
(75.2801 -5.54071 0 106.636 0 0)
(81.0184 -8.5965 0 104.869 0 0)
(85.4679 -11.8204 0 103.865 0 0)
(88.5137 -15.1838 0 103.034 0 0)
(89.9515 -18.3518 0 102.86 0 0)
(90.2539 -21.2712 0 102.874 0 0)
(88.291 -22.9185 0 103.027 0 0)
(0.299348 0.52454 0 151.819 0 0)
(2.5335 1.58058 0 156.318 0 0)
(6.58557 2.3756 0 151.191 0 0)
(12.2362 2.98518 0 149.752 0 0)
(18.9782 3.2082 0 147.194 0 0)
(26.458 3.06578 0 144.882 0 0)
(34.3592 2.52496 0 141.793 0 0)
(42.3492 1.59252 0 138.988 0 0)
(50.1866 0.262809 0 135.789 0 0)
(57.6065 -1.44241 0 132.913 0 0)
(64.42 -3.50455 0 129.962 0 0)
(70.3993 -5.84253 0 127.39 0 0)
(75.4138 -8.41982 0 124.988 0 0)
(79.301 -11.0723 0 122.987 0 0)
(81.9995 -13.7107 0 121.273 0 0)
(83.4177 -16.1757 0 119.935 0 0)
(84.0002 -18.3745 0 118.846 0 0)
(82.7934 -19.4212 0 117.736 0 0)
(0.284056 0.393843 0 175.031 0 0)
(2.41506 1.14446 0 180.229 0 0)
(6.28526 1.66886 0 174.622 0 0)
(11.6743 2.00065 0 172.74 0 0)
(18.0825 1.99746 0 170.059 0 0)
(25.1637 1.66033 0 167.208 0 0)
(32.5969 0.979426 0 163.823 0 0)
(40.0666 -0.029786 0 160.427 0 0)
(47.3254 -1.36441 0 156.81 0 0)
(54.1399 -2.97655 0 153.297 0 0)
(60.3323 -4.84511 0 149.81 0 0)
(65.7382 -6.87617 0 146.52 0 0)
(70.2528 -9.03066 0 143.423 0 0)
(73.8029 -11.1788 0 140.569 0 0)
(76.359 -13.2429 0 137.979 0 0)
(77.8855 -15.1427 0 135.654 0 0)
(78.7676 -16.7904 0 133.543 0 0)
(78.2194 -17.3887 0 131.345 0 0)
(0.26883 0.156157 0 190.136 0 0)
(2.29417 0.390412 0 195.806 0 0)
(5.96867 0.487969 0 189.913 0 0)
(11.0785 0.409129 0 187.771 0 0)
(17.1365 0.0722211 0 185.025 0 0)
(23.8098 -0.536409 0 181.855 0 0)
(30.7813 -1.40584 0 178.277 0 0)
(37.7552 -2.52834 0 174.525 0 0)
(44.4955 -3.87827 0 170.614 0 0)
(50.796 -5.41849 0 166.696 0 0)
(56.5036 -7.10555 0 162.804 0 0)
(61.4967 -8.87431 0 159.026 0 0)
(65.7 -10.6703 0 155.39 0 0)
(69.0839 -12.4156 0 151.929 0 0)
(71.6413 -14.0341 0 148.664 0 0)
(73.3612 -15.5044 0 145.621 0 0)
(74.5563 -16.7407 0 142.729 0 0)
(74.6013 -17.0622 0 139.736 0 0)
(0.259183 -0.142563 0 190.108 0 0)
(2.19664 -0.5345 0 195.737 0 0)
(5.69198 -0.938179 0 189.907 0 0)
(10.5456 -1.4936 0 187.756 0 0)
(16.2879 -2.21427 0 185.053 0 0)
(22.6009 -3.11692 0 181.889 0 0)
(29.1767 -4.1907 0 178.336 0 0)
(35.7425 -5.42984 0 174.587 0 0)
(42.0755 -6.80389 0 170.663 0 0)
(47.9981 -8.28419 0 166.712 0 0)
(53.374 -9.82399 0 162.738 0 0)
(58.1151 -11.3808 0 158.853 0 0)
(62.1601 -12.9016 0 155.042 0 0)
(65.5029 -14.3432 0 151.379 0 0)
(68.1424 -15.6403 0 147.839 0 0)
(70.084 -16.7999 0 144.501 0 0)
(71.5609 -17.7468 0 141.254 0 0)
(72.0955 -17.9519 0 137.925 0 0)
(0.256011 -0.396303 0 174.298 0 0)
(2.13743 -1.30614 0 179.247 0 0)
(5.50118 -2.12765 0 173.919 0 0)
(10.1649 -3.07615 0 171.927 0 0)
(15.6736 -4.10467 0 169.446 0 0)
(21.7225 -5.23394 0 166.557 0 0)
(28.0143 -6.45689 0 163.307 0 0)
(34.2944 -7.77039 0 159.884 0 0)
(40.3527 -9.14599 0 156.279 0 0)
(46.0325 -10.5638 0 152.652 0 0)
(51.2087 -11.9818 0 148.969 0 0)
(55.8128 -13.3735 0 145.363 0 0)
(59.7916 -14.694 0 141.781 0 0)
(63.1491 -15.9201 0 138.33 0 0)
(65.8833 -17.0003 0 134.948 0 0)
(68.0117 -17.9499 0 131.747 0 0)
(69.7033 -18.7075 0 128.593 0 0)
(70.6011 -18.8954 0 125.395 0 0)
(0.25746 -0.545309 0 148.874 0 0)
(2.10962 -1.74698 0 152.829 0 0)
(5.38669 -2.82232 0 148.295 0 0)
(9.92275 -4.00556 0 146.578 0 0)
(15.2747 -5.20915 0 144.457 0 0)
(21.1467 -6.45807 0 142.005 0 0)
(27.2507 -7.74433 0 139.241 0 0)
(33.3448 -9.06973 0 136.337 0 0)
(39.229 -10.4069 0 133.266 0 0)
(44.7598 -11.7459 0 130.175 0 0)
(49.8216 -13.0485 0 127.02 0 0)
(54.3553 -14.3014 0 123.926 0 0)
(58.3147 -15.4654 0 120.833 0 0)
(61.7051 -16.5315 0 117.845 0 0)
(64.5259 -17.456 0 114.897 0 0)
(66.799 -18.258 0 112.1 0 0)
(68.6497 -18.8869 0 109.329 0 0)
(69.8107 -19.0965 0 106.539 0 0)
(0.260311 -0.601077 0 119.984 0 0)
(2.10066 -1.88909 0 122.952 0 0)
(5.32061 -3.06677 0 119.306 0 0)
(9.77126 -4.33946 0 117.912 0 0)
(15.0183 -5.59751 0 116.207 0 0)
(20.7726 -6.86702 0 114.243 0 0)
(26.7528 -8.13771 0 112.031 0 0)
(32.7262 -9.41491 0 109.705 0 0)
(38.5001 -10.6732 0 107.242 0 0)
(43.9392 -11.9096 0 104.758 0 0)
(48.9359 -13.0902 0 102.218 0 0)
(53.4357 -14.2105 0 99.7196 0 0)
(57.3972 -15.236 0 97.2157 0 0)
(60.8253 -16.1668 0 94.7911 0 0)
(63.7201 -16.9657 0 92.3937 0 0)
(66.1066 -17.6524 0 90.111 0 0)
(68.0795 -18.186 0 87.847 0 0)
(69.4392 -18.4216 0 85.5726 0 0)
(0.263267 -0.590313 0 91.8471 0 0)
(2.10031 -1.82937 0 93.9612 0 0)
(5.28282 -2.99571 0 91.1714 0 0)
(9.67657 -4.24576 0 90.0982 0 0)
(14.8531 -5.46575 0 88.7993 0 0)
(20.5288 -6.67809 0 87.3049 0 0)
(26.4272 -7.87233 0 85.6248 0 0)
(32.3217 -9.05342 0 83.8534 0 0)
(38.0255 -10.2007 0 81.9782 0 0)
(43.4083 -11.3128 0 80.0817 0 0)
(48.3685 -12.3628 0 78.1415 0 0)
(52.8539 -13.3491 0 76.2276 0 0)
(56.8267 -14.2443 0 74.3101 0 0)
(60.2901 -15.0507 0 72.4474 0 0)
(63.2459 -15.7403 0 70.6067 0 0)
(65.7211 -16.3281 0 68.8473 0 0)
(67.7884 -16.7848 0 67.1051 0 0)
(69.301 -17.0343 0 65.3528 0 0)
(0.26634 -0.536531 0 66.9049 0 0)
(2.10414 -1.65028 0 68.3444 0 0)
(5.26148 -2.72976 0 66.3135 0 0)
(9.61749 -3.88227 0 65.5309 0 0)
(14.7467 -5.00154 0 64.593 0 0)
(20.37 -6.10345 0 63.5114 0 0)
(26.2149 -7.17998 0 62.2976 0 0)
(32.0583 -8.23298 0 61.0123 0 0)
(37.7181 -9.24765 0 59.6538 0 0)
(43.0674 -10.2215 0 58.2743 0 0)
(48.0086 -11.1353 0 56.8658 0 0)
(52.4908 -11.9866 0 55.4716 0 0)
(56.4787 -12.7559 0 54.0781 0 0)
(59.9742 -13.4451 0 52.7198 0 0)
(62.98 -14.0344 0 51.3801 0 0)
(65.5243 -14.5333 0 50.0947 0 0)
(67.6641 -14.9232 0 48.8254 0 0)
(69.2946 -15.171 0 47.5448 0 0)
(0.268198 -0.462715 0 46.2697 0 0)
(2.10856 -1.41545 0 47.2079 0 0)
(5.24964 -2.36299 0 45.8078 0 0)
(9.58067 -3.37401 0 45.2699 0 0)
(14.6782 -4.35483 0 44.6288 0 0)
(20.2669 -5.31487 0 43.8853 0 0)
(26.0772 -6.24911 0 43.0515 0 0)
(31.8883 -7.15582 0 42.1644 0 0)
(37.5213 -8.02606 0 41.2292 0 0)
(42.8513 -8.85513 0 40.2763 0 0)
(47.7833 -9.63078 0 39.3066 0 0)
(52.2675 -10.349 0 38.3443 0 0)
(56.2699 -10.9975 0 37.3851 0 0)
(59.7914 -11.5755 0 36.4473 0 0)
(62.8352 -12.0711 0 35.5244 0 0)
(65.4303 -12.4878 0 34.6356 0 0)
(67.6222 -12.8157 0 33.761 0 0)
(69.3386 -13.0461 0 32.8752 0 0)
(0.269355 -0.382945 0 30.145 0 0)
(2.11209 -1.1643 0 30.729 0 0)
(5.24288 -1.95771 0 29.8192 0 0)
(9.55717 -2.80645 0 29.4721 0 0)
(14.6334 -3.6299 0 29.0601 0 0)
(20.1989 -4.43427 0 28.5796 0 0)
(25.9861 -5.21577 0 28.0406 0 0)
(31.775 -5.97139 0 27.4651 0 0)
(37.3892 -6.69459 0 26.8593 0 0)
(42.7047 -7.38063 0 26.241 0 0)
(47.6284 -8.02095 0 25.6132 0 0)
(52.1099 -8.61141 0 24.989 0 0)
(56.1177 -9.14404 0 24.3682 0 0)
(59.6514 -9.61694 0 23.7597 0 0)
(62.7149 -10.0226 0 23.1618 0 0)
(65.3359 -10.3613 0 22.5843 0 0)
(67.5547 -10.6284 0 22.0175 0 0)
(69.3241 -10.826 0 21.4421 0 0)
(0.269677 -0.304491 0 18.2037 0 0)
(2.11386 -0.919515 0 18.5478 0 0)
(5.23751 -1.55365 0 17.9973 0 0)
(9.53776 -2.23638 0 17.7914 0 0)
(14.595 -2.90037 0 17.5483 0 0)
(20.1383 -3.55024 0 17.2639 0 0)
(25.9011 -4.18124 0 16.9438 0 0)
(31.6645 -4.79003 0 16.6009 0 0)
(37.253 -5.37007 0 16.2393 0 0)
(42.5432 -5.91788 0 15.8694 0 0)
(47.4443 -6.42617 0 15.4929 0 0)
(51.9049 -6.89259 0 15.1179 0 0)
(55.8968 -7.31031 0 14.7445 0 0)
(59.4177 -7.67904 0 14.3778 0 0)
(62.476 -7.99299 0 14.0175 0 0)
(65.0942 -8.25272 0 13.6686 0 0)
(67.3162 -8.4574 0 13.3267 0 0)
(69.113 -8.60781 0 12.98 0 0)
(0.269315 -0.228195 0 9.87778 0 0)
(2.11158 -0.691055 0 10.0612 0 0)
(5.22027 -1.17831 0 9.76414 0 0)
(9.49426 -1.70788 0 9.6618 0 0)
(14.5213 -2.22216 0 9.53743 0 0)
(20.0312 -2.72247 0 9.38828 0 0)
(25.757 -3.20448 0 9.21765 0 0)
(31.4824 -3.6657 0 9.03348 0 0)
(37.0318 -4.10038 0 8.8378 0 0)
(42.2848 -4.50696 0 8.63686 0 0)
(47.1499 -4.87983 0 8.43128 0 0)
(51.5803 -5.21916 0 8.22622 0 0)
(55.5469 -5.51914 0 8.02112 0 0)
(59.0515 -5.78198 0 7.81994 0 0)
(62.1015 -6.00156 0 7.62173 0 0)
(64.7187 -6.18145 0 7.43049 0 0)
(66.9443 -6.32458 0 7.24378 0 0)
(68.7745 -6.42665 0 7.05565 0 0)
(0.268172 -0.154752 0 4.484 0 0)
(2.08472 -0.497704 0 4.57959 0 0)
(5.15897 -0.852071 0 4.45445 0 0)
(9.39342 -1.22831 0 4.41883 0 0)
(14.3948 -1.58525 0 4.36776 0 0)
(19.8792 -1.92748 0 4.30335 0 0)
(25.5785 -2.25238 0 4.22606 0 0)
(31.2779 -2.55767 0 4.1396 0 0)
(36.8041 -2.84177 0 4.0466 0 0)
(42.0364 -3.10585 0 3.95081 0 0)
(46.8847 -3.347 0 3.85303 0 0)
(51.3058 -3.56607 0 3.75598 0 0)
(55.2666 -3.75932 0 3.65912 0 0)
(58.7771 -3.92881 0 3.56517 0 0)
(61.8336 -4.06842 0 3.47254 0 0)
(64.4696 -4.18346 0 3.3851 0 0)
(66.6924 -4.27395 0 3.29989 0 0)
(68.5507 -4.344 0 3.21572 0 0)
(0.255277 -0.0881554 0 1.42034 0 0)
(2.06876 -0.313324 0 1.48605 0 0)
(5.20746 -0.525777 0 1.44602 0 0)
(9.5004 -0.734067 0 1.43287 0 0)
(14.5552 -0.924092 0 1.41276 0 0)
(20.0909 -1.10665 0 1.3895 0 0)
(25.8465 -1.28325 0 1.36287 0 0)
(31.605 -1.45133 0 1.33355 0 0)
(37.1929 -1.60924 0 1.30257 0 0)
(42.4842 -1.75679 0 1.27097 0 0)
(47.3921 -1.8925 0 1.23916 0 0)
(51.8656 -2.01637 0 1.20776 0 0)
(55.8763 -2.12638 0 1.17673 0 0)
(59.4266 -2.22319 0 1.14677 0 0)
(62.5165 -2.3027 0 1.11751 0 0)
(65.184 -2.3689 0 1.09104 0 0)
(67.4066 -2.42151 0 1.06584 0 0)
(69.257 -2.46099 0 1.03889 0 0)
(0.245959 -0.0253177 0 0.141778 0 0)
(2.06658 -0.0977823 0 0.153556 0 0)
(5.18633 -0.165486 0 0.150772 0 0)
(9.44839 -0.230699 0 0.149603 0 0)
(14.4845 -0.293571 0 0.147301 0 0)
(20.0075 -0.353879 0 0.144573 0 0)
(25.7564 -0.41268 0 0.141576 0 0)
(31.5126 -0.46916 0 0.138446 0 0)
(37.1075 -0.522489 0 0.135224 0 0)
(42.4168 -0.572481 0 0.131973 0 0)
(47.3551 -0.61883 0 0.128716 0 0)
(51.8694 -0.661506 0 0.125515 0 0)
(55.9335 -0.699939 0 0.122373 0 0)
(59.5424 -0.733984 0 0.11935 0 0)
(62.7026 -0.762905 0 0.116526 0 0)
(65.447 -0.788147 0 0.11419 0 0)
(67.7598 -0.80636 0 0.112117 0 0)
(69.6878 -0.815649 0 0.111732 0 0)
(0.0244779 0.0357464 0 0.717054 0 0)
(0.26723 0.099035 0 0.678161 0 0)
(0.785377 0.180773 0 0.671014 0 0)
(1.53877 0.294736 0 0.661797 0 0)
(2.48571 0.423645 0 0.660192 0 0)
(3.60797 0.568363 0 0.656908 0 0)
(4.88355 0.715358 -2.3851e-19 0.654926 -6.47757e-20 1.47768e-37)
(6.30954 0.866222 2.42541e-19 0.650603 6.90768e-20 1.4822e-37)
(7.87928 1.01313 0 0.644585 0 0)
(9.59078 1.16051 2.44997e-19 0.637011 6.85017e-20 1.46004e-37)
(11.4389 1.30448 0 0.628432 0 0)
(13.4176 1.4473 0 0.619346 0 0)
(15.5204 1.58435 0 0.611401 0 0)
(17.7409 1.71598 -2.77501e-19 0.604944 -5.16585e-20 1.3466e-37)
(20.073 1.83902 0 0.598743 0 0)
(22.5173 1.95254 0 0.593527 0 0)
(25.0739 2.05237 3.40542e-19 0.589245 3.90381e-20 1.22018e-37)
(27.7414 2.14013 0 0.584805 0 0)
(30.5149 2.2185 0 0.580151 0 0)
(33.3886 2.28972 0 0.575718 0 0)
(36.3468 2.35281 -4.56165e-19 0.572394 -1.96083e-20 1.01721e-37)
(39.3799 2.40854 0 0.568641 0 0)
(42.4739 2.45499 -5.15802e-19 0.566383 -1.03338e-20 9.24666e-38)
(45.6197 2.49203 0 0.567583 0 0)
(48.8012 2.52581 0 0.568346 0 0)
(52.0042 2.54896 -6.03821e-19 0.570522 1.19416e-21 7.9717e-38)
(55.2218 2.55123 0 0.572357 0 0)
(58.4582 2.53391 6.57407e-19 0.570827 -6.92157e-21 7.21119e-38)
(61.7073 2.50299 0 0.562959 0 0)
(64.975 2.46034 -7.02138e-19 0.55255 1.04768e-20 6.53506e-38)
(68.2597 2.40853 0 0.538983 0 0)
(71.5487 2.35005 0 0.523159 0 0)
(74.8346 2.28477 0 0.509128 0 0)
(78.1187 2.20893 0 0.497751 0 0)
(81.3949 2.12193 0 0.486203 0 0)
(84.6598 2.02669 7.79268e-19 0.475303 -1.39996e-20 4.59607e-38)
(87.9121 1.92303 0 0.463694 0 0)
(91.1528 1.8108 -1.56182e-18 0.447692 2.71512e-20 1.61271e-37)
(94.3804 1.6916 0 0.432141 0 0)
(97.59 1.5643 1.55196e-18 0.417548 -2.6165e-20 1.39895e-37)
(100.775 1.43139 0 0.402439 0 0)
(103.934 1.28925 0 0.3908 0 0)
(107.058 1.13881 -1.51413e-18 0.378269 2.15785e-20 1.11227e-37)
(110.13 0.986015 0 0.365479 0 0)
(113.135 0.831151 -1.47569e-18 0.354687 1.82886e-20 9.43016e-38)
(116.059 0.673055 1.45325e-18 0.345836 -1.65645e-20 8.66119e-38)
(118.885 0.508947 0 0.33963 0 0)
(121.606 0.338695 1.40253e-18 0.334731 -1.25262e-20 7.34005e-38)
(124.205 0.163307 1.37436e-18 0.330887 -1.06531e-20 6.79371e-38)
(126.682 -0.0145253 0 0.327685 0 0)
(129.023 -0.193814 0 0.325523 0 0)
(131.21 -0.377332 0 0.322786 0 0)
(133.22 -0.565831 0 0.321551 0 0)
(135.033 -0.7566 0 0.323593 0 0)
(136.624 -0.94636 -1.1741e-18 0.32781 -4.39028e-21 5.015e-38)
(137.962 -1.13757 0 0.331928 0 0)
(139.036 -1.33348 1.07948e-18 0.335647 1.14711e-20 4.75004e-38)
(139.85 -1.536 0 0.340918 0 0)
(140.398 -1.74483 0 0.347734 0 0)
(140.666 -1.95093 -9.11602e-19 0.357009 -2.24404e-20 4.75089e-38)
(140.649 -2.15526 0 0.368941 0 0)
(140.329 -2.36043 7.80303e-19 0.380963 3.12267e-20 4.96754e-38)
(139.715 -2.56446 0 0.391268 0 0)
(138.8 -2.76851 0 0.404069 0 0)
(137.596 -2.97175 0 0.418319 0 0)
(136.114 -3.16787 -4.82375e-19 0.432873 -4.75403e-20 6.03316e-38)
(134.359 -3.35685 0 0.447453 0 0)
(132.342 -3.53935 0 0.460521 0 0)
(130.074 -3.71478 -2.26684e-19 0.474429 -6.12113e-20 7.30154e-38)
(127.574 -3.88843 0 0.490317 0 0)
(124.877 -4.05392 -5.0849e-20 0.505638 -6.9917e-20 8.29946e-38)
(121.997 -4.20629 0 0.520582 0 0)
(118.951 -4.34737 0 0.536791 0 0)
(115.772 -4.47915 0 0.554035 0 0)
(112.486 -4.6013 -3.05034e-19 0.571953 8.31394e-20 1.04532e-37)
(109.11 -4.71111 0 0.589951 0 0)
(105.66 -4.80522 0 0.607792 0 0)
(102.146 -4.88404 -5.64152e-19 0.625776 9.03104e-20 1.20144e-37)
(98.5817 -4.95202 -6.45934e-19 0.644436 9.18542e-20 1.25251e-37)
(94.9929 -5.00885 0 0.663142 0 0)
(91.4102 -5.05372 -7.98969e-19 0.682799 9.46256e-20 1.34666e-37)
(87.8544 -5.08733 0 0.703938 0 0)
(84.346 -5.10902 -1.87748e-18 0.725472 1.92553e-19 5.74329e-37)
(80.8996 -5.11773 0 0.748087 0 0)
(77.5335 -5.11207 -2.12205e-18 0.770659 1.93652e-19 6.07466e-37)
(74.2663 -5.09022 0 0.7936 0 0)
(71.1125 -5.05542 2.32433e-18 0.819533 -1.93816e-19 6.36409e-37)
(68.0894 -5.00735 0 0.844523 0 0)
(65.2112 -4.94062 0 0.866813 0 0)
(62.4775 -4.85508 0 0.8895 0 0)
(59.8926 -4.75284 -2.58504e-18 0.914497 1.86273e-19 6.79766e-37)
(57.4624 -4.6363 0 0.93909 0 0)
(55.1958 -4.50373 2.64602e-18 0.963343 -1.80012e-19 6.94496e-37)
(53.0958 -4.35491 0 0.987091 0 0)
(51.1513 -4.18389 -2.65816e-18 1.01066 1.73676e-19 7.03365e-37)
(49.3571 -3.99624 -2.64911e-18 1.03197 1.70448e-19 7.06892e-37)
(47.7013 -3.79599 -2.63025e-18 1.05322 1.6629e-19 7.09585e-37)
(46.1796 -3.5867 0 1.07562 0 0)
(44.7653 -3.36725 0 1.09873 0 0)
(43.469 -3.13886 0 1.11829 0 0)
(42.2717 -2.90143 0 1.13811 0 0)
(41.1688 -2.66225 0 1.15799 0 0)
(40.1419 -2.42253 0 1.17701 0 0)
(39.1874 -2.17996 0 1.19211 0 0)
(38.26 -1.9367 0 1.20811 0 0)
(37.3573 -1.70016 2.02642e-18 1.22345 -1.31634e-19 7.07445e-37)
(36.4466 -1.47196 1.91248e-18 1.24062 -1.24298e-19 7.06815e-37)
(35.552 -1.25298 0 1.25231 0 0)
(34.6391 -1.04292 0 1.26534 0 0)
(33.7181 -0.85635 0 1.27937 0 0)
(32.7362 -0.68006 1.35492e-18 1.29199 -1.04665e-19 6.91042e-37)
(31.7936 -0.529779 0 1.29928 0 0)
(30.7827 -0.387516 0 1.30911 0 0)
(29.8263 -0.28466 0 1.3192 0 0)
(28.8981 -0.201106 0 1.33245 0 0)
(28.0677 -0.150819 -4.39229e-19 1.34092 7.57721e-20 6.6616e-37)
(27.3675 -0.124743 0 1.35029 0 0)
(26.8302 -0.13406 0 1.36374 0 0)
(26.5404 -0.17693 -2.22943e-19 1.37167 -6.55634e-20 6.42762e-37)
(26.497 -0.246094 4.50021e-19 1.38442 6.11751e-20 6.30132e-37)
(26.7509 -0.355697 0 1.40133 0 0)
(27.3555 -0.512348 9.12781e-19 1.41877 6.00926e-20 6.05309e-37)
(28.3769 -0.709392 0 1.43786 0 0)
(29.8756 -0.961328 -1.35451e-18 1.45553 -6.45318e-20 5.75624e-37)
(31.8721 -1.24774 0 1.47833 0 0)
(34.4414 -1.5836 0 1.50541 0 0)
(37.4796 -1.96134 0 1.53809 0 0)
(41.0956 -2.38949 0 1.57236 0 0)
(45.1428 -2.8437 0 1.61055 0 0)
(49.6273 -3.34548 4.89949e-18 1.65279 2.04777e-19 1.97223e-36)
(54.4899 -3.89125 5.15463e-18 1.69902 2.30578e-19 1.93759e-36)
(59.7504 -4.47309 0 1.74752 0 0)
(65.2139 -5.07533 0 1.80319 0 0)
(70.8326 -5.70215 0 1.85844 0 0)
(76.4585 -6.31589 -5.69509e-18 1.91922 -3.52381e-19 1.91766e-36)
(81.8691 -6.93079 0 1.9903 0 0)
(87.0255 -7.55247 0 2.06262 0 0)
(91.8692 -8.16709 0 2.13898 0 0)
(96.3177 -8.75781 -5.33585e-18 2.21744 -5.33599e-19 2.0726e-36)
(100.335 -9.3235 5.10229e-18 2.30236 5.83376e-19 2.13499e-36)
(103.745 -9.84666 0 2.3918 0 0)
(106.651 -10.3564 0 2.48442 0 0)
(109.024 -10.8106 4.08147e-18 2.57888 7.35575e-19 2.36674e-36)
(110.86 -11.2291 3.6517e-18 2.67222 7.84516e-19 2.45198e-36)
(112.014 -11.5732 0 2.77248 0 0)
(112.58 -11.8873 0 2.87242 0 0)
(112.455 -12.1294 -2.05307e-18 2.97637 -9.46007e-19 2.71983e-36)
(111.771 -12.3533 1.42341e-18 3.07133 9.89593e-19 2.79861e-36)
(110.572 -12.5071 0 3.16811 0 0)
(108.658 -12.6065 0 3.2687 0 0)
(106.151 -12.6395 -5.21311e-19 3.35961 1.11739e-18 3.06935e-36)
(103.013 -12.6186 0 3.45006 0 0)
(99.5284 -12.5598 0 3.53361 0 0)
(95.5364 -12.4102 -2.54801e-18 3.60606 1.20627e-18 3.30217e-36)
(91.2356 -12.1887 0 3.67801 0 0)
(86.6117 -11.8561 -3.83114e-18 3.73946 1.25724e-18 3.44533e-36)
(81.7256 -11.4383 0 3.79524 0 0)
(76.6198 -10.9026 0 3.83444 0 0)
(71.6776 -10.2688 0 3.85847 0 0)
(66.7982 -9.4706 5.86954e-18 3.87722 -1.27797e-18 3.68244e-36)
(62.1425 -8.55275 0 3.88063 0 0)
(57.9279 -7.48285 0 3.8686 0 0)
(54.4743 -6.29328 0 3.84076 0 0)
(51.6231 -4.91459 0 3.79878 0 0)
(49.5302 -3.45571 0 3.74833 0 0)
(48.8118 -1.90223 0 3.67625 0 0)
(49.6527 -0.279106 6.02051e-18 3.58648 -1.10442e-18 3.72828e-36)
(51.7204 1.43375 5.60479e-18 3.48822 -1.04994e-18 3.71064e-36)
(55.4276 3.12565 0 3.37676 0 0)
(60.6863 4.75204 0 3.25881 0 0)
(67.4974 6.33181 0 3.12923 0 0)
(75.4381 7.80507 -3.04973e-18 2.99949 7.95135e-19 3.38437e-36)
(84.5672 9.10687 0 2.8713 0 0)
(94.1231 10.2953 2.94387e-18 2.73648 -1.35091e-18 1.23637e-35)
(104.002 11.2526 -1.30701e-18 2.60599 1.21818e-18 1.1664e-35)
(113.632 12.0417 3.207e-19 2.47435 1.10516e-18 1.10201e-35)
(123.28 12.6916 -2.02577e-18 2.34941 -1.01429e-18 1.03369e-35)
(131.398 13.2322 3.68148e-18 2.23029 9.22985e-19 9.76363e-36)
(139.275 13.7089 -5.28677e-18 2.12296 -9.03705e-19 8.99679e-36)
(143.032 14.4012 0 2.067 0 0)
(0.0183085 0.174146 0 6.0941 0 0)
(0.202732 0.387616 0 6.03228 0 0)
(0.629526 0.609301 1.31876e-19 5.85972 1.75655e-19 6.76098e-37)
(1.32713 0.853525 0 5.73903 0 0)
(2.26934 1.13251 -1.92865e-19 5.67919 -3.52988e-19 9.18816e-37)
(3.44555 1.43706 -1.84742e-19 5.65187 -4.40682e-19 9.71846e-37)
(4.83455 1.76158 -8.12163e-20 5.63628 -2.50996e-19 2.48796e-37)
(6.42204 2.10199 -6.95887e-20 5.61812 -2.699e-19 2.61048e-37)
(8.20021 2.45098 0 5.58973 0 0)
(10.1671 2.80407 -4.29168e-20 5.54715 -2.68797e-19 2.59223e-37)
(12.3241 3.15245 0 5.4953 0 0)
(14.6694 3.49376 0 5.43574 0 0)
(17.1947 3.82282 9.60941e-20 5.36758 4.23578e-19 9.50476e-37)
(19.9009 4.1392 7.01249e-20 5.29585 1.86901e-19 2.33978e-37)
(22.7773 4.43316 -1.86484e-19 5.22085 -3.2642e-19 8.93078e-37)
(25.818 4.70473 -2.52501e-19 5.14283 -2.81535e-19 8.65389e-37)
(29.0117 4.95542 -1.7145e-19 5.05861 -1.18679e-19 2.1262e-37)
(32.3521 5.18674 0 4.96801 0 0)
(35.8275 5.39696 0 4.87245 0 0)
(39.4291 5.59063 0 4.76988 0 0)
(43.1336 5.76705 -3.86303e-19 4.66505 -3.70215e-20 1.80269e-37)
(46.9322 5.92349 0 4.56058 0 0)
(50.8022 6.05163 1.60731e-18 4.45409 -1.54787e-20 1.55064e-36)
(54.7308 6.15514 0 4.35116 0 0)
(58.7012 6.23562 0 4.24599 0 0)
(62.6958 6.29323 7.7406e-19 4.14175 -5.74844e-20 1.56364e-37)
(66.6871 6.3247 0 4.03573 0 0)
(70.6561 6.33928 -9.32122e-19 3.93505 8.16012e-20 1.45862e-37)
(74.5694 6.3306 -1.99181e-18 3.83501 1.81163e-19 5.56575e-37)
(78.4169 6.29346 1.07614e-18 3.73221 -9.85543e-20 1.36494e-37)
(82.1948 6.22484 0 3.62436 0 0)
(85.9028 6.12829 0 3.519 0 0)
(89.5276 6.00625 0 3.41565 0 0)
(93.073 5.85985 -2.57466e-18 3.30754 2.22517e-19 4.70947e-37)
(96.5307 5.68362 -2.65296e-18 3.20016 2.20092e-19 4.54817e-37)
(99.9143 5.47791 -1.37269e-18 3.09924 1.07504e-19 1.1068e-37)
(103.232 5.24105 0 3.0074 0 0)
(106.477 4.96815 2.83631e-18 2.91937 -2.02941e-19 4.12561e-37)
(109.658 4.65716 0 2.83427 0 0)
(112.768 4.31739 -2.87323e-18 2.75285 1.88427e-19 3.81351e-37)
(115.816 3.94994 0 2.67262 0 0)
(118.796 3.56266 0 2.60054 0 0)
(121.717 3.15935 2.82665e-18 2.52972 -1.54147e-19 3.31519e-37)
(124.562 2.73722 0 2.46451 0 0)
(127.314 2.28955 8.15781e-18 2.4066 -3.93723e-19 2.68316e-36)
(129.971 1.81207 -2.68819e-18 2.36129 1.19297e-19 2.83561e-37)
(132.535 1.30902 0 2.33408 0 0)
(135.023 0.780256 -2.54863e-18 2.31811 9.10438e-20 2.51629e-37)
(137.419 0.218487 -2.46807e-18 2.31166 7.67928e-20 2.36064e-37)
(139.723 -0.369548 0 2.31386 0 0)
(141.911 -0.969165 0 2.32718 0 0)
(143.964 -1.56627 0 2.34213 0 0)
(145.869 -2.1515 0 2.35559 0 0)
(147.587 -2.72883 0 2.37917 0 0)
(149.105 -3.30693 1.88346e-18 2.41194 1.44562e-20 1.71903e-37)
(150.403 -3.89351 3.45138e-18 2.45519 7.105e-20 6.55139e-37)
(151.46 -4.48366 -1.64458e-18 2.5063 -5.58794e-20 1.59921e-37)
(152.286 -5.0922 0 2.56248 0 0)
(152.855 -5.70249 2.68758e-18 2.62579 1.9025e-19 6.00754e-37)
(153.139 -6.29286 -1.17016e-18 2.69412 -1.1324e-19 1.46689e-37)
(153.164 -6.87917 0 2.77093 0 0)
(152.884 -7.46032 -9.78186e-19 2.86094 -1.48512e-19 1.49335e-37)
(152.309 -8.0196 0 2.95444 0 0)
(151.434 -8.56973 0 3.05576 0 0)
(150.256 -9.10235 -1.04806e-18 3.16316 -3.96412e-19 6.24949e-37)
(148.763 -9.60618 4.22861e-19 3.27535 2.14961e-19 1.63595e-37)
(146.99 -10.1007 -4.89337e-19 3.39498 -4.62016e-19 6.67797e-37)
(144.93 -10.5733 2.12486e-19 3.51969 4.89085e-19 6.91572e-37)
(142.606 -11.0162 1.01376e-20 3.64398 2.54446e-19 1.82545e-37)