/*--------------------------------*- C++ -*----------------------------------*\
| =========                 |                                                 |
| \\      /  F ield         | OpenFOAM: The Open Source CFD Toolbox           |
|  \\    /   O peration     | Version:  dev                                   |
|   \\  /    A nd           | Web:      http://www.openfoam.org               |
|    \\/     M anipulation  |                                                 |
\*---------------------------------------------------------------------------*/
FoamFile
{
    version     2.0;
    format      ascii;
    class       volScalarField;
    object      k;
    location    "9.119";
}
// * * * * * * * * * * * * * * * * * * * * * * * * * * * * * * * * * * * * * //

dimensions      [0 2 -2 0 0 0 0];

internalField   nonuniform List<scalar> 
12225
(
9.33723
11.1845
7.86277
7.25783
5.30676
6.75967
5.55013
7.52069
6.34369
8.83501
7.47455
10.9431
9.20785
14.1992
13.1445
16.1428
27.3729
23.317
1.45142
5.42107
5.09532
5.60447
4.46899
4.85887
3.95566
4.4163
3.80112
4.29901
3.89167
4.24263
4.05074
4.23539
4.29027
4.2677
4.62523
4.57271
0.136743
1.55354
1.98707
3.12258
2.99242
3.31175
3.11285
3.18898
3.01581
2.86264
2.78987
2.45787
2.47301
2.16536
2.19779
1.8681
1.94238
1.36068
0.0286931
0.354133
0.610733
0.978959
1.21692
1.31434
1.55993
1.5176
1.65827
1.50248
1.6018
1.40855
1.41688
1.19883
1.19389
1.01349
1.23941
0.900672
0.0144215
0.11604
0.242664
0.350167
0.541353
0.601222
0.741521
0.765306
0.833953
0.800239
0.832604
0.762513
0.779769
0.686924
0.710941
0.611803
0.749724
0.64733
0.0255833
0.108037
0.174933
0.226183
0.312382
0.352163
0.426791
0.45132
0.496382
0.491367
0.508691
0.484965
0.498767
0.463054
0.481053
0.439331
0.492496
0.448892
0.0860987
0.130116
0.174416
0.207155
0.257895
0.28164
0.324549
0.33894
0.367309
0.369312
0.382933
0.374489
0.385409
0.37174
0.38085
0.366331
0.383078
0.372456
0.175515
0.202707
0.211608
0.228164
0.258655
0.277644
0.30744
0.319963
0.338685
0.343221
0.353322
0.350176
0.357216
0.351493
0.355638
0.350441
0.356647
0.356471
0.328906
0.350987
0.321453
0.322375
0.315979
0.32569
0.330578
0.337331
0.347634
0.349987
0.356988
0.354375
0.359634
0.355661
0.357428
0.354636
0.356912
0.360313
0.5827
0.585783
0.538338
0.528169
0.477427
0.459918
0.427176
0.417359
0.404624
0.401464
0.398731
0.39394
0.392562
0.388522
0.38567
0.381964
0.380917
0.37935
1.07185
0.979032
0.889534
0.852594
0.762726
0.720612
0.642316
0.602777
0.555177
0.534244
0.512504
0.498319
0.483733
0.471828
0.458325
0.448796
0.438106
0.431486
1.84928
1.5936
1.40998
1.30606
1.13199
1.04757
0.935322
0.877484
0.810104
0.772571
0.723618
0.69348
0.654747
0.62701
0.594054
0.571212
0.546465
0.531768
2.98776
2.48543
2.14541
1.89964
1.61913
1.44479
1.2764
1.16706
1.06731
0.998982
0.932721
0.882233
0.827262
0.783933
0.739119
0.707663
0.675321
0.658728
4.68665
3.79767
3.22135
2.7102
2.28057
1.98794
1.77394
1.61962
1.47722
1.36154
1.24885
1.16172
1.07234
1.00938
0.941513
0.900303
0.845516
0.818352
7.22213
5.78935
4.91795
4.08565
3.412
2.89209
2.48518
2.16435
1.89768
1.68857
1.50752
1.36832
1.24133
1.14871
1.05634
0.995769
0.923968
0.888185
10.0853
7.83028
6.24731
4.91818
3.96521
3.27857
2.76157
2.36605
2.04904
1.80437
1.59928
1.44267
1.30289
1.19975
1.09907
1.0318
0.954885
0.914145
11.1308
8.38715
6.5752
5.12076
4.10574
3.38038
2.83403
2.41645
2.08448
1.82966
1.61812
1.45712
1.3146
1.20878
1.10622
1.03706
0.959481
0.916752
10.8892
8.23755
6.47395
5.0477
4.05557
3.34414
2.80418
2.39053
2.06117
1.80862
1.59948
1.44074
1.29909
1.19439
1.09328
1.02496
0.948859
0.906475
8.97282
7.09394
5.77942
4.58688
3.74199
3.12141
2.63962
2.26451
1.96083
1.7268
1.53176
1.38342
1.25003
1.15098
1.05506
0.9908
0.91835
0.878773
5.94194
4.90658
4.33033
3.61008
3.05466
2.6205
2.2658
1.97948
1.73751
1.54817
1.3852
1.25975
1.14242
1.05614
0.971492
0.917201
0.853181
0.820334
3.61445
2.95153
2.66914
2.27733
1.9912
1.78087
1.60762
1.45928
1.3179
1.20197
1.09106
1.00194
0.914105
0.853367
0.792904
0.759126
0.715126
0.69414
2.14918
1.91263
1.7948
1.57719
1.39003
1.24009
1.11832
1.00741
0.900652
0.806275
0.731781
0.688295
0.653174
0.630899
0.607146
0.592947
0.573041
0.562308
1.10271
1.05053
1.03006
0.946535
0.850793
0.776268
0.711024
0.67074
0.646379
0.63046
0.617129
0.606142
0.59271
0.582732
0.568837
0.559605
0.545182
0.536614
0.53784
0.539691
0.527044
0.494595
0.510957
0.534902
0.558202
0.57482
0.586389
0.593249
0.593972
0.591262
0.583617
0.576684
0.565264
0.556982
0.543633
0.535416
0.225645
0.227885
0.284563
0.363618
0.443113
0.499349
0.539985
0.568855
0.589558
0.603667
0.612651
0.616147
0.616089
0.612748
0.604172
0.596211
0.583587
0.575704
0.0667835
0.133764
0.246455
0.371004
0.487742
0.579944
0.64763
0.692255
0.723391
0.745685
0.763262
0.772636
0.773173
0.770537
0.761608
0.750668
0.736461
0.729067
0.0298951
0.158578
0.434426
0.696203
0.912168
1.04914
1.13556
1.18401
1.21341
1.23339
1.24447
1.24117
1.23131
1.21101
1.18363
1.16804
1.14692
1.14098
0.124802
0.69838
1.49434
1.9802
2.39873
2.52281
2.51924
2.4818
2.42841
2.36832
2.29504
2.21518
2.12398
2.02899
1.94177
1.8613
1.77865
1.70784
1.22944
3.75371
4.98403
5.01914
4.64689
4.25483
3.8796
3.57329
3.31239
3.08688
2.88013
2.6917
2.52676
2.38814
2.25393
2.12694
2.01261
1.90186
6.83721
10.0468
9.23796
7.14677
5.74909
4.98
4.53438
4.28693
4.11208
3.97445
3.86767
3.7719
3.68935
3.61976
3.56343
3.50958
3.43966
3.29849
0.356633
0.236347
0.228936
0.250138
0.276938
0.303177
0.324401
0.346187
0.370642
0.400231
0.434618
0.474566
0.523491
0.57733
0.636061
0.694816
0.762327
0.841351
0.926131
1.02176
1.12655
1.2247
1.35314
1.4927
1.64022
1.78228
1.94423
2.12095
2.29417
2.48995
2.71166
2.80003
2.7149
2.45236
2.28556
2.1851
2.17698
2.21125
2.21095
2.18929
2.17447
2.14712
2.13727
2.17766
2.27482
2.46935
2.67869
2.8804
2.97454
2.99127
2.92714
2.92101
3.09624
3.31727
3.37516
3.5157
4.09491
5.30671
6.1499
6.55509
6.86948
7.02681
7.08469
7.07208
6.96984
6.81642
6.61757
6.40867
6.17517
5.92996
5.66127
5.40253
5.14353
4.90633
4.65881
4.43191
4.21835
4.01921
3.8429
3.68195
3.5224
3.38656
3.26268
3.15402
3.04114
2.94815
2.8681
2.79923
2.72737
2.65619
2.60544
2.55252
2.50155
2.45864
2.41671
2.37359
2.33626
2.30303
2.27793
2.24777
2.23231
2.22638
2.22849
2.23508
2.24347
2.25899
2.27795
2.30414
2.33629
2.34694
2.34083
2.32015
2.28253
2.20435
2.11784
2.06555
2.03517
2.0159
2.00598
1.95645
1.85709
1.73756
1.67929
1.6712
1.76159
1.91647
2.03663
2.18545
2.39755
2.59256
2.79576
3.02882
3.39002
3.94649
4.65052
5.44506
6.3874
7.04201
7.28666
7.40598
7.58984
7.65745
7.84279
7.93746
7.62407
7.49537
7.86147
7.64684
7.92368
7.75496
7.68672
7.6109
7.81838
8.45833
9.22146
10.5235
11.6003
12.2433
12.5162
12.2444
11.8569
11.2919
10.9012
11.0644
11.5425
11.9056
11.7759
9.26335
7.61604
7.67817
9.56109
11.6489
11.7273
11.7415
11.6842
10.7602
10.0492
9.7251
9.52432
10.3851
1.62281
0.614299
0.335476
0.297188
0.311515
0.314327
0.312077
0.311204
0.309999
0.308295
0.307712
0.306038
0.303996
0.301633
0.300801
0.303203
0.307992
0.314088
0.322119
0.332187
0.352495
0.376831
0.39906
0.442603
0.486022
0.545284
0.60717
0.712544
0.804934
0.982513
1.19633
1.47635
1.78573
1.88231
1.83507
1.53753
1.11432
0.892694
0.688041
0.586497
0.552437
0.544117
0.561091
0.586975
0.603462
0.684406
0.852171
0.969682
1.02521
1.16637
1.28696
1.55267
2.47287
3.19424
3.31375
3.36444
3.41367
3.35219
2.96748
2.57713
2.2559
1.96498
1.7442
1.58442
1.47218
1.38017
1.30673
1.26325
1.2235
1.18734
1.1582
1.13717
1.11714
1.10353
1.08438
1.07444
1.06708
1.06403
1.06422
1.06167
1.05442
1.05165
1.04395
1.03886
1.03576
1.03917
1.04225
1.03746
1.02802
1.02404
1.02623
1.02406
1.02473
1.02737
1.02592
1.02048
1.01992
1.01663
1.01872
1.01593
1.01569
1.02143
1.02933
1.03873
1.04617
1.05996
1.0956
1.15176
1.20269
1.22504
1.22387
1.19587
1.12886
1.06137
1.02906
1.01221
0.986349
0.957979
0.923719
0.904349
0.903359
0.938775
0.967402
0.970833
0.987491
1.034
1.05716
1.06755
1.0765
1.076
1.08272
1.11716
1.24747
1.52253
1.79739
1.98603
2.18173
2.52404
2.72504
2.84402
3.14872
3.25743
3.74726
4.39428
4.02249
3.81339
3.95909
3.70378
3.83225
3.64201
3.59529
3.73773
3.85823
4.24772
4.68206
5.4658
6.26068
7.08303
7.9256
8.28265
8.27162
7.83754
7.08492
6.58246
6.82913
7.33598
7.82485
6.36177
4.79172
4.50529
4.94204
5.71626
5.82363
5.58318
5.64389
5.39696
5.16811
5.1169
4.88734
4.9421
3.92315
1.16282
0.519819
0.399787
0.36105
0.323439
0.293334
0.27017
0.244757
0.224364
0.210914
0.204705
0.19743
0.190421
0.184051
0.181124
0.179764
0.180186
0.181722
0.184306
0.189653
0.196512
0.200951
0.210332
0.218061
0.232571
0.245608
0.272335
0.29715
0.350352
0.418828
0.535619
0.727782
0.929301
1.1882
1.25708
1.1669
0.940702
0.623469
0.503561
0.497107
0.524377
0.569301
0.599249
0.593753
0.592416
0.66397
0.818611
1.12132
1.89974
2.54841
2.6332
2.47265
2.24803
1.81348
1.50551
1.22688
0.99809
0.786085
0.647888
0.532711
0.479064
0.437595
0.417418
0.401313
0.394841
0.39211
0.391233
0.391342
0.392955
0.398223
0.402339
0.408779
0.415427
0.423695
0.430038
0.435472
0.444811
0.455364
0.461616
0.470604
0.476448
0.485087
0.490514
0.501693
0.513693
0.526095
0.529852
0.538794
0.543909
0.556151
0.560197
0.572236
0.583393
0.593735
0.60256
0.616367
0.629387
0.643612
0.658761
0.672584
0.690693
0.7115
0.738908
0.766298
0.788324
0.834616
0.903168
0.949831
0.971244
0.975487
0.955364
0.897447
0.870987
0.861628
0.846874
0.829997
0.811563
0.776247
0.74916
0.744035
0.783532
0.908882
0.96411
0.962621
0.959321
0.970072
0.945995
0.917933
0.892253
0.888956
0.882741
0.882942
0.957816
1.11495
1.20073
1.20655
1.21413
1.25063
1.39883
1.9119
2.11017
2.33074
2.8421
2.61454
2.35983
2.3936
2.28722
2.33181
2.26692
2.18406
2.26897
2.28187
2.45932
2.62884
2.90673
3.28136
3.70125
4.21982
5.00571
5.82297
6.04892
5.6137
5.01418
4.72705
5.03422
5.45157
4.83691
3.58625
3.31261
3.47431
3.66407
3.69578
3.6181
3.62468
3.52088
3.51081
3.53503
3.32608
3.21073
7.10239
1.88761
0.731194
0.483007
0.373794
0.302416
0.235848
0.182296
0.161654
0.157485
0.155662
0.153873
0.150931
0.148763
0.148102
0.148896
0.151012
0.155533
0.161175
0.166036
0.171664
0.175971
0.177858
0.180152
0.181828
0.185097
0.188551
0.196296
0.204005
0.219025
0.237596
0.275966
0.344277
0.466455
0.632908
0.850451
0.982848
0.931689
0.815098
0.707335
0.70357
0.741553
0.885887
0.99213
1.0079
1.0852
1.35963
1.71985
2.00616
2.09695
2.09137
1.70348
1.2405
0.879846
0.682172
0.523889
0.41455
0.350465
0.300086
0.277534
0.261393
0.254493
0.250843
0.249318
0.248708
0.24986
0.252564
0.255246
0.259303
0.261949
0.269256
0.273414
0.281618
0.288336
0.298633
0.30635
0.310478
0.318943
0.327444
0.331361
0.339967
0.344544
0.353024
0.356644
0.365417
0.37523
0.384536
0.390439
0.399178
0.404662
0.414991
0.417728
0.424347
0.431537
0.43762
0.445854
0.457739
0.473562
0.488932
0.506891
0.527051
0.546949
0.572346
0.606171
0.648577
0.682438
0.735582
0.807342
0.857719
0.893304
0.91683
0.907834
0.868579
0.856525
0.847904
0.831278
0.822082
0.814128
0.79336
0.752227
0.731401
0.725723
0.770658
0.939282
1.03961
1.01311
0.971097
0.94268
0.926185
0.898294
0.897921
0.905007
0.868437
0.830356
0.820047
0.929781
0.999547
1.02914
0.999487
1.04252
1.45542
1.86061
1.88557
2.03596
2.03343
1.92503
1.84151
1.74023
1.81942
1.76352
1.69298
1.7239
1.74541
1.8293
1.94302
2.06345
2.27515
2.51336
2.77778
3.24449
3.88861
4.68074
4.87438
4.73435
4.19454
4.11107
4.47972
4.14952
3.09853
2.90659
3.01021
3.08721
3.14174
3.05127
3.11484
3.07001
3.08428
3.07456
2.87436
2.8477
10.989
2.85718
1.01646
0.581921
0.370932
0.232215
0.155231
0.131062
0.128432
0.132696
0.134462
0.133946
0.13424
0.135985
0.139918
0.143588
0.148173
0.155875
0.164202
0.170518
0.175398
0.177749
0.178317
0.178743
0.178355
0.178493
0.179659
0.183575
0.188452
0.19426
0.199421
0.209901
0.232394
0.284917
0.373176
0.539634
0.738973
0.849201
0.867887
0.869549
0.901867
1.05601
1.16991
1.19083
1.23645
1.35441
1.50766
1.60921
1.65045
1.42102
0.952696
0.66518
0.500556
0.391619
0.313638
0.265797
0.242008
0.22396
0.215452
0.208843
0.203885
0.201381
0.199932
0.199841
0.200447
0.203421
0.206792
0.21104
0.21586
0.220303
0.226219
0.230152
0.236124
0.239792
0.247085
0.254117
0.257431
0.265314
0.271819
0.275638
0.281293
0.285575
0.292687
0.295133
0.300821
0.309876
0.31468
0.323058
0.329467
0.336379
0.345773
0.350265
0.35358
0.358134
0.360125
0.367337
0.369548
0.374397
0.383157
0.386115
0.399392
0.407687
0.427476
0.44639
0.482313
0.54367
0.620139
0.675787
0.738045
0.809882
0.858175
0.859437
0.842678
0.840198
0.839787
0.833777
0.831625
0.821764
0.813294
0.795652
0.764193
0.727075
0.707618
0.705521
0.827318
0.95226
0.9575
0.880317
0.818603
0.788659
0.802474
0.821605
0.793154
0.752343
0.738468
0.743539
0.922367
1.01271
0.984342
0.965085
1.19201
1.76761
1.75473
1.64526
1.67462
1.64681
1.54646
1.44464
1.59295
1.4928
1.46381
1.46982
1.51281
1.56065
1.6218
1.68856
1.83772
1.99045
2.10417
2.36115
2.73558
3.60928
3.92412
4.3215
3.97672
3.71374
3.88583
3.66169
2.89347
2.75688
2.84643
2.8761
2.95899
2.7942
3.03108
3.04174
3.07337
2.92743
2.74627
2.86903
15.3297
3.99848
1.39858
0.648148
0.347983
0.180799
0.11864
0.108024
0.114183
0.122976
0.124953
0.126744
0.130811
0.134998
0.140986
0.148295
0.159531
0.175839
0.187996
0.194599
0.197833
0.197532
0.19587
0.192793
0.188154
0.183047
0.18141
0.18378
0.188341
0.195036
0.197596
0.196849
0.200909
0.219964
0.266924
0.374608
0.570715
0.776308
0.881636
0.926902
1.02293
1.17703
1.20014
1.20337
1.22106
1.24866
1.25788
1.10578
0.819236
0.602428
0.45731
0.330278
0.271916
0.240175
0.215395
0.19759
0.189106
0.182059
0.178842
0.177054
0.176822
0.177468
0.179013
0.181968
0.185219
0.190046
0.194234
0.199767
0.205239
0.211064
0.215953
0.219137
0.222983
0.223197
0.225053
0.226899
0.226807
0.226775
0.227846
0.230542
0.230406
0.233057
0.236281
0.238901
0.240752
0.24664
0.24703
0.255803
0.258296
0.26654
0.272926
0.284933
0.291842
0.297774
0.301282
0.303329
0.308831
0.309486
0.312667
0.313337
0.316652
0.320658
0.325145
0.335204
0.348813
0.363755
0.411127
0.502223
0.568573
0.639412
0.7095
0.74394
0.754874
0.755508
0.766903
0.78353
0.7987
0.799913
0.792511
0.781383
0.746235
0.700551
0.660473
0.591395
0.56048
0.605737
0.709176
0.785021
0.748737
0.712211
0.724066
0.747421
0.708711
0.639779
0.664914
0.659681
0.810963
0.971507
0.971166
0.951255
1.08452
1.6308
1.72409
1.54421
1.53076
1.42799
1.37837
1.28901
1.36653
1.26111
1.26523
1.30519
1.33971
1.41093
1.42872
1.48364
1.604
1.7252
1.78801
1.90621
2.08431
2.78054
3.07622
3.70642
3.61997
3.50021
3.57149
3.31611
2.76455
2.69292
2.86011
2.86205
2.78274
2.69946
2.97569
3.3031
3.17182
2.92994
2.77345
3.12733
19.7428
5.14939
1.65359
0.659633
0.297059
0.136419
0.0971801
0.0962223
0.107561
0.11655
0.120498
0.125458
0.131558
0.139356
0.150162
0.166685
0.18765
0.199776
0.206116
0.212123
0.217289
0.218439
0.217022
0.213276
0.205846
0.197695
0.188414
0.185745
0.187597
0.194421
0.203185
0.201675
0.196568
0.201527
0.227995
0.307563
0.489662
0.735291
0.868829
0.931377
1.09231
1.17453
1.16382
1.10561
1.03736
0.897837
0.722209
0.568305
0.420197
0.318646
0.270502
0.228503
0.201417
0.189671
0.180625
0.172787
0.17017
0.169312
0.169263
0.17021
0.171838
0.174712
0.177986
0.182301
0.186918
0.192289
0.198109
0.203674
0.209458
0.215247
0.218789
0.219914
0.222092
0.221043
0.218957
0.216497
0.215751
0.209846
0.207347
0.205667
0.204803
0.205385
0.207171
0.209211
0.212079
0.21383
0.215331
0.216411
0.213537
0.213367
0.212685
0.21178
0.213251
0.216327
0.227961
0.230414
0.23872
0.241634
0.248256
0.253568
0.260293
0.267664
0.272087
0.280324
0.291797
0.297193
0.305559
0.330986
0.364995
0.409177
0.490275
0.569704
0.586818
0.59467
0.615056
0.633156
0.647807
0.663921
0.661104
0.652138
0.637653
0.609652
0.520437
0.502162
0.460884
0.463152
0.483662
0.543624
0.588237
0.58902
0.567924
0.602123
0.662644
0.605424
0.585248
0.590925
0.6475
0.826313
0.93267
0.947453
1.07091
1.50148
1.63779
1.52078
1.47828
1.32456
1.23619
1.15401
1.16592
1.06896
1.08104
1.1159
1.134
1.21296
1.23091
1.25487
1.35762
1.43861
1.56342
1.66496
1.74919
2.21003
2.43045
3.06891
3.13852
3.22779
3.39635
3.08594
2.72595
2.71372
2.92141
2.86247
2.67891
2.70042
3.03955
3.3842
3.53114
3.01628
2.89263
3.16938
23.8629
6.14885
1.7417
0.618277
0.203245
0.102501
0.0872169
0.0912272
0.104127
0.112025
0.118269
0.125719
0.135793
0.150655
0.163104
0.182406
0.19855
0.2055
0.209645
0.216361
0.221397
0.222249
0.220951
0.217443
0.210719
0.20404
0.194318
0.18781
0.185675
0.189627
0.202071
0.20657
0.198627
0.198859
0.217258
0.282754
0.44827
0.694905
0.837893
0.933355
1.06669
1.0958
1.01287
0.838842
0.688537
0.544698
0.42653
0.330204
0.265157
0.227272
0.202963
0.189735
0.177109
0.171519
0.168436
0.167056
0.166848
0.16735
0.169125
0.172745
0.177098
0.18329
0.190767
0.199046
0.208109
0.215237
0.223097
0.228961
0.235637
0.238362
0.238987
0.237704
0.235007
0.227383
0.218637
0.211403
0.207264
0.199581
0.193161
0.187059
0.183926
0.184986
0.185281
0.191154
0.194549
0.196037
0.199443
0.199267
0.19436
0.19212
0.190126
0.185554
0.18245
0.181126
0.181404
0.181612
0.18297
0.184644
0.185538
0.186312
0.186942
0.19277
0.20216
0.211866
0.224707
0.237719
0.248711
0.260802
0.275182
0.274267
0.289811
0.359274
0.402983
0.411403
0.416671
0.430051
0.447481
0.468859
0.466844
0.452755
0.445119
0.446513
0.425126
0.407194
0.412814
0.409085
0.412902
0.440554
0.458676
0.450905
0.414288
0.414101
0.514348
0.543192
0.522673
0.521268
0.548098
0.744067
0.93657
0.970666
1.09408
1.38064
1.44508
1.43869
1.43152
1.23174
1.15292
1.02491
1.04541
0.954568
0.974737
0.985497
1.01556
1.05793
1.08791
1.09533
1.20542
1.25635
1.36893
1.47251
1.53856
1.85651
2.02162
2.5255
2.63592
2.83493
3.10375
2.89373
2.72102
2.76814
3.09074
2.84204
2.69595
2.78293
3.21244
3.37353
3.61898
3.26793
3.14729
3.05029
27.4009
6.93231
1.74144
0.472814
0.147211
0.0891371
0.0836133
0.0901339
0.102938
0.11032
0.118525
0.128635
0.144093
0.160192
0.172757
0.19437
0.207357
0.21243
0.217409
0.225438
0.227841
0.227036
0.224883
0.222499
0.219578
0.215719
0.208339
0.195098
0.187203
0.189145
0.201922
0.206551
0.199233
0.199229
0.21808
0.283949
0.445181
0.675254
0.808344
0.907326
0.974517
0.930896
0.761796
0.58261
0.469749
0.350915
0.287713
0.238118
0.208851
0.192991
0.179945
0.17446
0.169177
0.167149
0.166409
0.166246
0.166807
0.169236
0.173893
0.181727
0.191616
0.202617
0.213189
0.221165
0.229712
0.235167
0.241813
0.245348
0.24967
0.253116
0.254393
0.257118
0.255804
0.247729
0.230026
0.210148
0.196745
0.188826
0.177135
0.166437
0.159304
0.158607
0.157438
0.166198
0.170864
0.176979
0.181154
0.183984
0.180175
0.174787
0.172496
0.167572
0.159386
0.157545
0.156142
0.154967
0.154737
0.157141
0.159075
0.158789
0.158198
0.157807
0.157864
0.159966
0.16279
0.166148
0.175222
0.189795
0.197218
0.20693
0.217066
0.232159
0.249302
0.262482
0.283955
0.30114
0.318509
0.34899
0.361246
0.350945
0.350391
0.350524
0.353306
0.347726
0.36433
0.373902
0.365053
0.381242
0.395903
0.388779
0.362884
0.372778
0.416643
0.465227
0.464607
0.487373
0.510875
0.696911
0.962341
1.02284
1.11996
1.30173
1.32331
1.35082
1.3437
1.14281
1.08833
0.945359
0.962548
0.855505
0.872182
0.878647
0.923128
0.969287
1.00949
1.01668
1.11422
1.14656
1.22576
1.30543
1.37208
1.60854
1.7453
2.13079
2.30036
2.51749
2.66016
2.58252
2.6292
2.90749
3.19633
2.78419
2.90258
2.95281
3.38445
3.33936
3.48742
3.35115
3.54975
3.11448
30.1639
7.56643
1.70743
0.394223
0.123713
0.0855898
0.0834758
0.0909551
0.103531
0.110581
0.119262
0.13093
0.150682
0.175493
0.19366
0.219389
0.232878
0.23643
0.242521
0.245805
0.241115
0.234426
0.230245
0.226659
0.22499
0.221767
0.217099
0.206548
0.192545
0.191834
0.202626
0.205201
0.198754
0.200279
0.222536
0.294335
0.457351
0.668021
0.768967
0.824005
0.831235
0.756913
0.572822
0.423122
0.336988
0.261648
0.229359
0.202683
0.188405
0.180729
0.174341
0.171624
0.168215
0.166924
0.166641
0.166983
0.169099
0.173889
0.181969
0.192861
0.203609
0.211937
0.219019
0.225204
0.231268
0.235356
0.240426
0.24244
0.242897
0.243647
0.244259
0.252649
0.255972
0.257749
0.246596
0.225008
0.195557
0.181285
0.161819
0.153708
0.143184
0.141645
0.144202
0.146664
0.150024
0.158328
0.156337
0.158568
0.158415
0.149035
0.144561
0.143618
0.134486
0.132797
0.133427
0.132495
0.132648
0.134944
0.136041
0.138046
0.1393
0.139494
0.140864
0.141607
0.143579
0.145712
0.147595
0.152297
0.161364
0.165423
0.169755
0.178487
0.188755
0.194837
0.199676
0.210311
0.223032
0.245275
0.276394
0.280278
0.29098
0.299203
0.30079
0.289486
0.304941
0.319258
0.309375
0.3069
0.33139
0.346233
0.340115
0.352932
0.387448
0.423014
0.435759
0.477569
0.492562
0.622584
0.961269
1.04291
1.12745
1.27895
1.27249
1.30325
1.23542
1.07797
1.03822
0.902393
0.885626
0.790056
0.809104
0.828772
0.871533
0.921771
0.955849
0.983061
1.07561
1.09761
1.15524
1.20213
1.25294
1.42417
1.60188
1.84087
2.09077
2.28374
2.28177
2.30141
2.45273
3.09182
3.19069
2.73242
3.01186
3.11731
3.51913
3.29924
3.48828
3.46919
5.70298
3.67544
32.0561
8.02194
1.70232
0.360396
0.113706
0.0857531
0.084763
0.0942715
0.105699
0.112097
0.121747
0.134666
0.155532
0.182226
0.204231
0.232593
0.25778
0.262482
0.262247
0.256667
0.246108
0.237973
0.235098
0.234709
0.235293
0.230902
0.222677
0.209588
0.201726
0.202396
0.208006
0.2051
0.198507
0.203386
0.234566
0.322994
0.494127
0.643734
0.699591
0.719144
0.707997
0.604868
0.432885
0.329358
0.266706
0.221762
0.203689
0.190161
0.182892
0.17869
0.174211
0.171996
0.169259
0.168599
0.168732
0.170221
0.173795
0.179773
0.189817
0.202286
0.211955
0.216669
0.221178
0.224821
0.227187
0.227015
0.224588
0.221362
0.214488
0.207762
0.201002
0.198323
0.212727
0.236965
0.243906
0.232146
0.206537
0.180308
0.156908
0.140236
0.130264
0.125611
0.131664
0.136488
0.138996
0.143364
0.141835
0.133688
0.13243
0.128106
0.12545
0.126975
0.126123
0.12583
0.12708
0.127548
0.127747
0.130296
0.131057
0.132535
0.134191
0.133962
0.135003
0.136287
0.136833
0.138637
0.140573
0.1429
0.146572
0.150201
0.154337
0.159818
0.163256
0.168084
0.174798
0.180447
0.187248
0.205526
0.228039
0.231217
0.235096
0.247311
0.259413
0.267418
0.26553
0.280348
0.277959
0.281049
0.306048
0.313538
0.326329
0.348812
0.377002
0.401394
0.418555
0.46733
0.480352
0.550142
0.922774
1.05277
1.13853
1.28476
1.26544
1.26259
1.13294
1.03811
1.00455
0.880662
0.845289
0.757587
0.778796
0.805775
0.842922
0.916161
0.94479
0.982344
1.07091
1.08031
1.10864
1.12659
1.18406
1.29669
1.49413
1.63876
1.90089
2.13042
2.05345
2.18099
2.38361
3.21141
3.08487
2.72203
3.02722
3.15887
3.51954
3.22712
3.58459
4.54812
6.43288
4.60131
32.641
8.2112
1.6574
0.32077
0.109991
0.0881534
0.0892317
0.0998571
0.108709
0.114045
0.122772
0.135065
0.154626
0.183139
0.208061
0.235402
0.273462
0.290883
0.291575
0.280602
0.260659
0.251795
0.250324
0.255504
0.258095
0.251087
0.233325
0.21552
0.211494
0.2126
0.21366
0.203475
0.199851
0.211623
0.257699
0.362338
0.51117
0.589455
0.617927
0.629162
0.606403
0.496545
0.345888
0.274073
0.23303
0.203946
0.192866
0.18613
0.182756
0.17972
0.176087
0.174658
0.173514
0.173456
0.174918
0.178327
0.18353
0.192506
0.2032
0.212368
0.216062
0.219351
0.221714
0.222562
0.222036
0.219175
0.213087
0.206343
0.201881
0.197655
0.188883
0.169488
0.155909
0.159208
0.19046
0.214089
0.20665
0.182493
0.156204
0.134907
0.12413
0.120273
0.121258
0.122326
0.123184
0.121251
0.123353
0.120217
0.119728
0.121466
0.1213
0.123202
0.123994
0.124068
0.125416
0.126648
0.127195
0.129904
0.130674
0.132002
0.133387
0.133562
0.134447
0.135466
0.135952
0.137772
0.139753
0.14065
0.143999
0.147601
0.149034
0.153609
0.15846
0.159757
0.166622
0.172822
0.178012
0.189295
0.20667
0.21797
0.220496
0.227854
0.23317
0.250627
0.258921
0.268291
0.268252
0.273327
0.298636
0.306173
0.320617
0.361198
0.378462
0.391561
0.40867
0.467338
0.479679
0.507262
0.817489
1.04156
1.14366
1.28445
1.2604
1.17235
1.06372
1.01587
0.987624
0.863166
0.803084
0.750976
0.772918
0.803451
0.843228
0.9235
0.950695
1.01282
1.07539
1.08003
1.09932
1.09611
1.15664
1.22176
1.42144
1.53865
1.74717
2.05899
1.94381
2.11145
2.34613
3.27966
2.85741
2.72693
3.00841
3.07994
3.29465
3.04661
3.70229
5.0495
6.27368
4.70654
32.1883
8.18643
1.52743
0.27655
0.111772
0.0948912
0.0976492
0.104525
0.115517
0.120087
0.12583
0.136976
0.154459
0.181497
0.211493
0.240165
0.279694
0.313818
0.321931
0.316185
0.292731
0.280043
0.278053
0.283906
0.284581
0.271944
0.242359
0.220283
0.216388
0.216558
0.213622
0.206652
0.208242
0.238061
0.308809
0.413329
0.479561
0.497933
0.509231
0.514859
0.493954
0.410205
0.298245
0.243321
0.21425
0.195331
0.188481
0.185303
0.184155
0.183427
0.182439
0.181842
0.182332
0.183951
0.187854
0.193613
0.200077
0.206435
0.210039
0.213624
0.215779
0.218139
0.218432
0.217667
0.21494
0.208729
0.200403
0.187782
0.180466
0.181935
0.183162
0.166985
0.146994
0.133322
0.134967
0.15167
0.176101
0.176287
0.154367
0.132077
0.12261
0.119462
0.119656
0.117856
0.114673
0.113271
0.113717
0.114245
0.115459
0.119527
0.120444
0.122515
0.124086
0.124703
0.12601
0.129631
0.130846
0.134474
0.136745
0.137338
0.140483
0.140209
0.140786
0.142286
0.143364
0.144208
0.146068
0.146714
0.147918
0.149645
0.150518
0.15351
0.156746
0.161025
0.165221
0.169365
0.177687
0.187856
0.196634
0.208472
0.216945
0.223584
0.226832
0.241447
0.253765
0.2628
0.266072
0.278444
0.300704
0.308953
0.32457
0.385747
0.389345
0.388311
0.401969
0.467374
0.490227
0.487526
0.723281
1.00153
1.12216
1.19063
1.12688
1.01029
0.969296
0.966532
0.95469
0.836756
0.784887
0.755176
0.779138
0.825219
0.871611
0.997098
1.03088
1.11749
1.12563
1.10202
1.10023
1.08709
1.1536
1.19704
1.40015
1.50993
1.6811
2.00633
1.90278
2.07914
2.33442
3.28114
2.75585
2.74705
2.86766
2.86909
2.99239
3.00096
3.80063
4.97192
4.58064
3.39211
30.9677
7.97498
1.37398
0.247952
0.11608
0.106504
0.107678
0.113817
0.12315
0.130508
0.13513
0.144782
0.157691
0.179527
0.207731
0.240418
0.27998
0.321015
0.348132
0.353334
0.336561
0.310572
0.307061
0.313814
0.318133
0.306103
0.262821
0.22765
0.219772
0.217855
0.216732
0.217531
0.23472
0.281695
0.354484
0.419984
0.442324
0.445186
0.444619
0.442847
0.419522
0.351286
0.267124
0.230075
0.207133
0.191704
0.187188
0.185489
0.185302
0.186683
0.190241
0.192861
0.193865
0.195155
0.198044
0.202662
0.205602
0.209107
0.211284
0.211686
0.211126
0.210178
0.208087
0.205448
0.199877
0.191164
0.188381
0.18088
0.168059
0.154654
0.15265
0.157687
0.145038
0.125655
0.122482
0.12897
0.140373
0.145789
0.143316
0.127283
0.121882
0.120222
0.118828
0.115867
0.110883
0.109561
0.110258
0.111524
0.114154
0.119658
0.121485
0.125038
0.128338
0.12981
0.131848
0.13538
0.138564
0.143185
0.149069
0.150638
0.153497
0.153737
0.155305
0.158314
0.158643
0.15934
0.160627
0.161593
0.161396
0.161155
0.161289
0.162228
0.16283
0.165978
0.169562
0.172158
0.178619
0.189468
0.197237
0.207483
0.219294
0.223689
0.225961
0.246877
0.263823
0.267075
0.26998
0.297532
0.31512
0.31822
0.338081
0.399216
0.396202
0.383883
0.396376
0.462815
0.494181
0.475429
0.68935
0.944134
1.00641
1.00729
0.958381
0.896724
0.894708
0.921506
0.9074
0.826939
0.786431
0.770345
0.81908
0.901093
0.983707
1.13846
1.16048
1.19552
1.16994
1.12951
1.11536
1.09101
1.16181
1.19671
1.40225
1.50736
1.67535
1.97915
1.88215
2.07572
2.41102
3.18586
2.74832
2.77381
2.67387
2.7644
2.85006
2.96038
3.71609
4.19133
3.06897
2.10818
28.8054
7.60355
1.21543
0.235791
0.128709
0.124458
0.124312
0.123569
0.127873
0.13595
0.144856
0.15417
0.164975
0.178049
0.199318
0.235511
0.277052
0.314678
0.356325
0.377194
0.376229
0.354576
0.336436
0.336804
0.34147
0.336545
0.301309
0.243644
0.22548
0.220062
0.219421
0.224915
0.247955
0.295578
0.360188
0.405877
0.419158
0.425761
0.438234
0.440199
0.416177
0.342842
0.263354
0.231295
0.209016
0.19136
0.1861
0.184705
0.184922
0.187059
0.190486
0.195613
0.199068
0.200656
0.20204
0.20439
0.205151
0.206371
0.206683
0.205559
0.203114
0.199181
0.195696
0.193915
0.190015
0.182297
0.175827
0.174878
0.166571
0.147222
0.141519
0.138753
0.131783
0.118717
0.11444
0.11891
0.128279
0.130411
0.1273
0.120058
0.119893
0.119715
0.116825
0.111876
0.107328
0.106419
0.107412
0.109677
0.113676
0.121643
0.12573
0.129216
0.135073
0.137892
0.142367
0.147391
0.152173
0.158059
0.166646
0.16854
0.173139
0.174813
0.178466
0.183636
0.183124
0.185846
0.189768
0.188143
0.187963
0.186203
0.183258
0.182083
0.178841
0.178484
0.181559
0.182934
0.185886
0.19821
0.203346
0.209826
0.226119
0.229717
0.231147
0.251642
0.280956
0.2832
0.289221
0.33926
0.344335
0.341524
0.355842
0.402549
0.394109
0.373263
0.385454
0.443976
0.485602
0.456765
0.669571
0.90734
0.941226
0.924398
0.893406
0.846729
0.866788
0.900148
0.893206
0.832774
0.794083
0.801735
0.935148
1.03281
1.15271
1.25935
1.26153
1.25013
1.19805
1.15184
1.1321
1.112
1.19397
1.21512
1.4231
1.52337
1.69482
1.97596
1.87479
2.10121
2.56912
2.98763
2.74322
2.89395
2.54745
2.68291
2.77733
2.928
3.47408
3.5976
2.70088
1.84156
26.0298
6.71584
1.05806
0.236811
0.14905
0.140317
0.141224
0.140836
0.138188
0.147755
0.159581
0.164055
0.171376
0.1813
0.195165
0.216251
0.252284
0.291905
0.34494
0.38367
0.396008
0.395745
0.383667
0.362571
0.360527
0.359433
0.340526
0.285173
0.238961
0.226112
0.22319
0.226225
0.24438
0.280957
0.326196
0.355235
0.36836
0.390926
0.431876
0.451519
0.442507
0.371257
0.274889
0.238016
0.217447
0.195246
0.187075
0.183695
0.182986
0.184495
0.186883
0.191175
0.197621
0.200389
0.201696
0.203039
0.202789
0.202769
0.201406
0.198867
0.197667
0.195119
0.19009
0.186216
0.18485
0.178957
0.166467
0.161269
0.154286
0.141327
0.135223
0.133355
0.123935
0.108048
0.100659
0.103728
0.11595
0.120447
0.118107
0.113865
0.112556
0.112306
0.108309
0.102672
0.101003
0.101058
0.104628
0.108317
0.113741
0.121835
0.127952
0.132885
0.141305
0.145566
0.152217
0.158742
0.163888
0.16986
0.177023
0.180384
0.188193
0.194845
0.199447
0.204824
0.207726
0.21286
0.217847
0.217618
0.219944
0.219523
0.215964
0.215532
0.208688
0.203948
0.206603
0.206044
0.204276
0.214851
0.219985
0.222038
0.239419
0.244579
0.24658
0.270357
0.309854
0.314669
0.324551
0.361436
0.355244
0.346031
0.361187
0.396936
0.385218
0.35584
0.360315
0.406139
0.445346
0.432386
0.622016
0.877456
0.937898
0.917499
0.888484
0.835388
0.867754
0.903138
0.898238
0.844476
0.822176
0.884966
1.11164
1.19577
1.323
1.35763
1.3278
1.29496
1.22699
1.1889
1.17007
1.15222