/*--------------------------------*- C++ -*----------------------------------*\
| =========                 |                                                 |
| \\      /  F ield         | OpenFOAM: The Open Source CFD Toolbox           |
|  \\    /   O peration     | Version:  dev                                   |
|   \\  /    A nd           | Web:      http://www.openfoam.org               |
|    \\/     M anipulation  |                                                 |
\*---------------------------------------------------------------------------*/
FoamFile
{
    version     2.0;
    format      ascii;
    class       volScalarField;
    object      muSgs;
    location    "9.119";
}
// * * * * * * * * * * * * * * * * * * * * * * * * * * * * * * * * * * * * * //

dimensions      [1 -1 -1 0 0 0 0];

internalField   nonuniform List<scalar> 
12225
(
0.000243611
0.000262557
0.000216362
0.000204192
0.000171474
0.000189886
0.000168731
0.000192695
0.000173334
0.000200789
0.000180611
0.000214781
0.000192258
0.000235373
0.000220206
0.000241053
0.000307534
0.00027639
0.000100998
0.000192654
0.000183827
0.000189866
0.000166646
0.000171054
0.000151339
0.000157448
0.000142832
0.000149757
0.000138841
0.000143323
0.000135847
0.000137985
0.000134273
0.000132769
0.000134925
0.000132113
3.25307e-05
0.000108292
0.000120423
0.000148782
0.000143075
0.000148309
0.000141088
0.000140653
0.00013404
0.000128526
0.000124234
0.000114618
0.000112567
0.000103368
0.000102003
9.20925e-05
9.18822e-05
7.53439e-05
1.56446e-05
5.42578e-05
7.01067e-05
8.72867e-05
9.58037e-05
9.77157e-05
0.000104879
0.000101343
0.000104433
9.71811e-05
9.89659e-05
9.058e-05
8.95394e-05
8.03809e-05
7.89021e-05
7.10764e-05
7.71981e-05
6.43705e-05
1.1665e-05
3.25378e-05
4.64449e-05
5.46602e-05
6.71029e-05
6.91653e-05
7.58409e-05
7.5319e-05
7.75988e-05
7.42651e-05
7.47047e-05
6.98378e-05
6.95515e-05
6.38059e-05
6.38186e-05
5.7913e-05
6.29276e-05
5.72497e-05
1.63202e-05
3.29062e-05
4.13831e-05
4.60721e-05
5.34613e-05
5.55408e-05
6.03205e-05
6.07043e-05
6.27492e-05
6.10807e-05
6.1188e-05
5.84244e-05
5.82799e-05
5.49379e-05
5.50064e-05
5.14379e-05
5.3436e-05
4.99248e-05
3.14155e-05
3.78977e-05
4.33259e-05
4.62621e-05
5.09103e-05
5.21074e-05
5.51237e-05
5.51828e-05
5.65616e-05
5.55316e-05
5.55965e-05
5.38251e-05
5.36474e-05
5.15989e-05
5.12372e-05
4.92246e-05
4.93271e-05
4.76436e-05
3.96017e-05
4.17542e-05
4.21195e-05
4.28454e-05
4.49735e-05
4.56373e-05
4.73042e-05
4.72832e-05
4.78717e-05
4.71878e-05
4.70473e-05
4.58676e-05
4.54879e-05
4.41975e-05
4.35926e-05
4.23993e-05
4.19044e-05
4.10395e-05
5.84906e-05
5.92486e-05
5.5965e-05
5.49004e-05
5.35596e-05
5.32715e-05
5.28233e-05
5.23022e-05
5.22062e-05
5.13136e-05
5.08919e-05
4.96802e-05
4.91057e-05
4.78485e-05
4.70143e-05
4.58943e-05
4.5099e-05
4.43944e-05
8.39356e-05
8.2509e-05
7.80103e-05
7.56822e-05
7.08579e-05
6.81614e-05
6.46072e-05
6.26187e-05
6.05732e-05
5.91214e-05
5.78153e-05
5.63197e-05
5.51259e-05
5.37418e-05
5.2466e-05
5.11714e-05
5.00544e-05
4.89392e-05
0.000122635
0.000114933
0.000107913
0.000103496
9.6291e-05
9.1756e-05
8.51095e-05
8.086e-05
7.61736e-05
7.32413e-05
7.03472e-05
6.79888e-05
6.56488e-05
6.35352e-05
6.13431e-05
5.94893e-05
5.75666e-05
5.5974e-05
0.000173438
0.000157871
0.000146022
0.000137726
0.000125979
0.000118834
0.000110212
0.00010468
9.8649e-05
9.44251e-05
8.95695e-05
8.59217e-05
8.17952e-05
7.84273e-05
7.47738e-05
7.18516e-05
6.88267e-05
6.65153e-05
0.000237165
0.000212078
0.000193408
0.00017835
0.000161563
0.000149623
0.000137904
0.000129251
0.000121153
0.000114857
0.000108734
0.000103593
9.82632e-05
9.37094e-05
8.91185e-05
8.54334e-05
8.17246e-05
7.90523e-05
0.000319315
0.000281583
0.000254184
0.000228411
0.000205347
0.000187872
0.000173866
0.000162751
0.000152256
0.000143183
0.0001343
0.00012685
0.000119351
0.000113412
0.000107259
0.000102726
9.74648e-05
9.38884e-05
0.000425779
0.000372864
0.000336362
0.000300148
0.000268555
0.000242106
0.000219702
0.000200755
0.000184054
0.000170001
0.000157259
0.000146689
0.000136785
0.000128836
0.000120946
0.00011497
0.000108407
0.000104055
0.000539525
0.000464214
0.000405496
0.00035201
0.000309236
0.000275148
0.000247071
0.00022382
0.000203844
0.000187221
0.000172507
0.000160369
0.000149161
0.000140117
0.000131259
0.000124488
0.000117214
0.000112274
0.000607058
0.000513721
0.000444552
0.000383602
0.000335862
0.000298028
0.000266935
0.000241192
0.000219194
0.000200946
0.000184929
0.000171733
0.000159661
0.000149887
0.000140331
0.000132981
0.00012521
0.00011982
0.000598255
0.000506702
0.000439017
0.000379102
0.000332346
0.000295135
0.000264415
0.000238946
0.000217143
0.000199018
0.000183178
0.000170156
0.000158245
0.000148624
0.000139198
0.000131913
0.000124291
0.000118948
0.000508283
0.000439998
0.000388367
0.000338541
0.000299256
0.000267407
0.000240696
0.000218348
0.000199015
0.00018284
0.000168638
0.000156939
0.000146215
0.000137516
0.000128932
0.000122312
0.000115363
0.000110508
0.000387748
0.00034309
0.000315452
0.000282055
0.000254162
0.000230522
0.000209938
0.000192287
0.000176628
0.000163411
0.00015148
0.000141526
0.00013215
0.000124577
0.000117067
0.000111412
0.000105285
0.000101117
0.000283779
0.000249804
0.00023273
0.000210718
0.000193195
0.000179104
0.00016683
0.000155838
0.000145259
0.000136084
0.000127158
0.000119454
0.000111907
0.000106001
0.000100185
9.60795e-05
9.13852e-05
8.82308e-05
0.000205713
0.000189155
0.000179651
0.000165199
0.000152173
0.000140995
0.000131393
0.00012236
0.000113509
0.000105397
9.85452e-05
9.37476e-05
8.95887e-05
8.63435e-05
8.30907e-05
8.05016e-05
7.75852e-05
7.53488e-05
0.000138629
0.00013194
0.000128187
0.000120629
0.000112291
0.000105279
9.89215e-05
9.43207e-05
9.08981e-05
8.81144e-05
8.557e-05
8.32346e-05
8.07791e-05
7.85806e-05
7.61688e-05
7.40784e-05
7.17125e-05
6.97524e-05
9.11807e-05
8.90835e-05
8.64243e-05
8.22275e-05
8.20949e-05
8.24973e-05
8.2769e-05
8.24724e-05
8.18035e-05
8.07899e-05
7.93634e-05
7.77427e-05
7.58253e-05
7.39663e-05
7.18671e-05
6.99816e-05
6.78142e-05
6.60007e-05
5.56359e-05
5.45633e-05
5.98855e-05
6.65051e-05
7.2131e-05
7.52248e-05
7.68599e-05
7.75029e-05
7.75003e-05
7.70213e-05
7.62006e-05
7.50221e-05
7.36422e-05
7.2083e-05
7.02438e-05
6.84659e-05
6.64542e-05
6.47469e-05
2.85345e-05
3.94199e-05
5.25664e-05
6.33802e-05
7.14238e-05
7.65378e-05
7.94829e-05
8.07407e-05
8.10909e-05
8.08686e-05
8.03547e-05
7.93945e-05
7.79834e-05
7.64261e-05
7.45848e-05
7.2666e-05
7.06272e-05
6.89503e-05
1.80031e-05
4.048e-05
6.58461e-05
8.19399e-05
9.21937e-05
9.71783e-05
9.93773e-05
9.97199e-05
9.92024e-05
9.82598e-05
9.69727e-05
9.51272e-05
9.30629e-05
9.06332e-05
8.79792e-05
8.57943e-05
8.34564e-05
8.17132e-05
3.47186e-05
8.0167e-05
0.000115232
0.000130405
0.000141119
0.000142302
0.000139831
0.00013644
0.000132675
0.000128767
0.000124582
0.000120258
0.000115704
0.000111079
0.000106747
0.000102638
9.856e-05
9.48452e-05
0.000102827
0.000175428
0.000198668
0.000196044
0.000185519
0.000174595
0.000163944
0.000154681
0.00014638
0.000138855
0.000131791
0.000125158
0.000119127
0.00011375
0.000108548
0.000103513
9.88753e-05
9.42832e-05
0.000229316
0.000271434
0.000255409
0.000220529
0.000194211
0.000177476
0.00016625
0.000158667
0.000152509
0.000147129
0.000142413
0.000137975
0.000133865
0.000130059
0.000126555
0.000123145
0.00011953
0.000114741
5.14198e-05
4.40193e-05
4.38491e-05
4.56949e-05
4.80552e-05
5.02995e-05
5.20656e-05
5.38274e-05
5.57639e-05
5.80242e-05
6.05643e-05
6.33819e-05
6.66621e-05
7.01089e-05
7.37213e-05
7.7235e-05
8.10917e-05
8.53446e-05
8.98154e-05
9.46539e-05
9.96524e-05
0.000104317
0.000109978
0.000116011
0.000122068
0.000127787
0.000134027
0.000140572
0.000146834
0.000153467
0.000160556
0.000163607
0.000162606
0.000154481
0.000148562
0.000145961
0.000146858
0.000149008
0.000150555
0.000151111
0.000151559
0.000151672
0.000152157
0.000154864
0.000158906
0.000165581
0.000172124
0.000179021
0.000181207
0.000180294
0.000179392
0.000181386
0.000185842
0.000191805
0.000194012
0.000196997
0.000209762
0.000240867
0.000263863
0.000274613
0.00028328
0.00028835
0.000291366
0.000292863
0.000292465
0.000290943
0.000288382
0.000285477
0.000281916
0.000277944
0.000273279
0.000268635
0.000263809
0.000259342
0.000254428
0.000249867
0.000245493
0.000241361
0.00023773
0.000234434
0.000231047
0.000228287
0.000225845
0.000223845
0.000221647
0.000220053
0.000218825
0.000217998
0.000217077
0.000216113
0.000215866
0.000215525
0.000215248
0.000215234
0.000215278
0.000215219
0.000215365
0.000215611
0.000216154
0.000216531
0.000217279
0.000218301
0.00021937
0.000220458
0.000221577
0.000223065
0.0002246
0.000226108
0.000227859
0.000228917
0.000229572
0.000229721
0.000229107
0.000226734
0.000223813
0.000222064
0.000221184
0.000221016
0.000221254
0.000219133
0.00021364
0.000206919
0.000203069
0.000201198
0.000204495
0.000211366
0.000216613
0.000223609
0.00023236
0.000240015
0.000248002
0.000258224
0.000274224
0.00029657
0.000322812
0.000352531
0.000383445
0.000399074
0.000403934
0.000404903
0.00040547
0.000409405
0.000413892
0.000415238
0.000413006
0.000410653
0.000419858
0.000417757
0.000424009
0.000419614
0.000419314
0.000417513
0.000424661
0.000443012
0.000463949
0.000497008
0.000522177
0.000538368
0.000547282
0.000547266
0.000546138
0.000542561
0.000544103
0.000556174
0.000566642
0.000575359
0.000572018
0.000539594
0.000510784
0.000524894
0.000577525
0.000624469
0.000637
0.000652959
0.000653393
0.000632019
0.00061859
0.000606995
0.000609157
0.000632255
0.000108612
7.02925e-05
5.36348e-05
5.08764e-05
5.18355e-05
5.15706e-05
5.10299e-05
5.07623e-05
5.05876e-05
5.03659e-05
5.03055e-05
5.01902e-05
5.00323e-05
4.98135e-05
4.97259e-05
5.00025e-05
5.05424e-05
5.11794e-05
5.20172e-05
5.3012e-05
5.49327e-05
5.70915e-05
5.90974e-05
6.26538e-05
6.61436e-05
7.04319e-05
7.48798e-05
8.16133e-05
8.71435e-05
9.68368e-05
0.000107315
0.000119102
0.00013121
0.000135247
0.000133878
0.000125927
0.000110059
9.88948e-05
8.79347e-05
8.23872e-05
8.04132e-05
7.96844e-05
8.06519e-05
8.32238e-05
8.37153e-05
8.99658e-05
0.000101932
0.000109054
0.000112872
0.00011956
0.000123257
0.000137605
0.000168462
0.000188302
0.000194334
0.000196195
0.000199382
0.000198929
0.000188595
0.000176586
0.000166176
0.00015583
0.000147622
0.000141388
0.00013704
0.000133346
0.00013051
0.000128976
0.000127723
0.000126507
0.000125751
0.000125342
0.000125051
0.000125096
0.00012487
0.00012519
0.00012568
0.000126466
0.000127483
0.000128327
0.00012891
0.000129811
0.000130432
0.000131262
0.00013231
0.000133859
0.000135283
0.000136211
0.000136894
0.000138054
0.000139642
0.00014092
0.000142497
0.00014416
0.000145584
0.000146723
0.000148295
0.000149554
0.000151361
0.000152561
0.00015394
0.000155462
0.000156851
0.00015792
0.000158422
0.000159166
0.000161669
0.000165225
0.000167964
0.000169751
0.000170387
0.000168851
0.000164885
0.000161436
0.000161093
0.000162233
0.000162435
0.000161362
0.00015819
0.000154623
0.00015271
0.000156963
0.000162791
0.000165861
0.000162863
0.00015873
0.000154855
0.00015347
0.000149974
0.000147159
0.000145957
0.000148552
0.000158327
0.00017616
0.000193628
0.00021095
0.000234664
0.000260983
0.000271715
0.000269086
0.000271756
0.000276564
0.00029319
0.000316861
0.000314618
0.00030115
0.000312454
0.000295442
0.000305511
0.000283263
0.000285927
0.000289279
0.000297051
0.000313883
0.000332573
0.000364914
0.000394408
0.000427193
0.00045455
0.000465726
0.000473397
0.000482704
0.000482458
0.000482523
0.000481919
0.000496802
0.000514767
0.000514397
0.000455812
0.000460867
0.000474672
0.000492838
0.000495571
0.000506709
0.000522638
0.000512499
0.00051154
0.000493858
0.000498699
0.00049158
0.000167351
9.45134e-05
6.48231e-05
5.68829e-05
5.33684e-05
4.98137e-05
4.70359e-05
4.49634e-05
4.27847e-05
4.09337e-05
3.9694e-05
3.91389e-05
3.84942e-05
3.78582e-05
3.72933e-05
3.7136e-05
3.7209e-05
3.74946e-05
3.79598e-05
3.8571e-05
3.96358e-05
4.0813e-05
4.1781e-05
4.3302e-05
4.46403e-05
4.66162e-05
4.83271e-05
5.14159e-05
5.41563e-05
5.92127e-05
6.49336e-05
7.3645e-05
8.56496e-05
9.60268e-05
0.000107829
0.000111272
0.000109004
0.000100942
8.33556e-05
7.61358e-05
7.5937e-05
7.68556e-05
7.92823e-05
8.07562e-05
7.86933e-05
7.97611e-05
8.72503e-05
9.64671e-05
0.000113539
0.0001476
0.000168139
0.00017143
0.00016587
0.000159599
0.000143609
0.000131508
0.000119065
0.000107689
9.58201e-05
8.71974e-05
7.93135e-05
7.54088e-05
7.23349e-05
7.08821e-05
6.97829e-05
6.94832e-05
6.9541e-05
6.97828e-05
7.01116e-05
7.06161e-05
7.14304e-05
7.22152e-05
7.31471e-05
7.4195e-05
7.53309e-05
7.6387e-05
7.73283e-05
7.8676e-05
8.01709e-05
8.12699e-05
8.26241e-05
8.37442e-05
8.51057e-05
8.62145e-05
8.78713e-05
8.97623e-05
9.16253e-05
9.27493e-05
9.42471e-05
9.56373e-05
9.76807e-05
9.90479e-05
0.000101174
0.000103282
0.000105306
0.000107219
0.000109814
0.000112198
0.000115178
0.000117606
0.000120582
0.000123681
0.000127471
0.00013196
0.000135704
0.000137239
0.000140377
0.000146003
0.00014923
0.000150052
0.000150152
0.000148028
0.00014277
0.000141154
0.000140923
0.000140355
0.000142224
0.000143329
0.000140154
0.000131892
0.000124789
0.000126121
0.000139205
0.000155087
0.000163957
0.000152598
0.000140475
0.000134877
0.000130552
0.000128834
0.000130133
0.000130237
0.000128686
0.000132096
0.000142815
0.000151323
0.000161125
0.000175219
0.000188779
0.000195265
0.000217604
0.000223656
0.000233422
0.000253397
0.000249097
0.000231663
0.000242987
0.000212022
0.000234508
0.000207387
0.000207211
0.000209525
0.000213075
0.000223421
0.000234304
0.000251409
0.00027238
0.000297713
0.000326532
0.00036871
0.000397188
0.000418885
0.000425465
0.000430558
0.000417164
0.000423648
0.000460974
0.000451563
0.000381024
0.000379141
0.000380353
0.000401557
0.000406897
0.00040755
0.000435134
0.000437073
0.000456552
0.000438602
0.00045091
0.000441113
0.000223735
0.000117885
7.41948e-05
6.00089e-05
5.21866e-05
4.65348e-05
4.09856e-05
3.60807e-05
3.40742e-05
3.37142e-05
3.3609e-05
3.34854e-05
3.32423e-05
3.30951e-05
3.31738e-05
3.34641e-05
3.39553e-05
3.47988e-05
3.58882e-05
3.69939e-05
3.81906e-05
3.92559e-05
3.9999e-05
4.06878e-05
4.1276e-05
4.2e-05
4.25945e-05
4.38736e-05
4.51075e-05
4.72265e-05
4.95959e-05
5.39027e-05
6.04288e-05
7.00173e-05
8.08747e-05
9.26229e-05
9.87938e-05
9.7678e-05
9.21524e-05
8.83196e-05
8.81437e-05
8.8885e-05
9.49542e-05
9.82193e-05
9.93657e-05
0.000108294
0.000121037
0.00013781
0.000148687
0.00015187
0.000152034
0.000137586
0.000117742
9.94716e-05
8.76204e-05
7.70579e-05
6.85303e-05
6.32613e-05
5.85738e-05
5.65442e-05
5.49884e-05
5.4433e-05
5.42491e-05
5.42313e-05
5.44207e-05
5.47183e-05
5.52754e-05
5.58059e-05
5.64915e-05
5.70813e-05
5.81076e-05
5.89125e-05
6.00568e-05
6.1135e-05
6.25422e-05
6.37392e-05
6.45243e-05
6.57903e-05
6.70949e-05
6.79138e-05
6.9223e-05
7.01299e-05
7.14579e-05
7.23221e-05
7.36583e-05
7.51584e-05
7.65794e-05
7.77915e-05
7.91437e-05
8.03113e-05
8.18331e-05
8.27801e-05
8.39656e-05
8.53832e-05
8.66194e-05
8.80509e-05
9.00167e-05
9.21848e-05
9.48318e-05
9.71513e-05
0.000100377
0.000103243
0.000106888
0.000111719
0.000118271
0.000124608
0.000131565
0.000138186
0.000141639
0.000143742
0.000145571
0.000144163
0.000141208
0.000142766
0.000141056
0.000135502
0.000134539
0.000135104
0.000134796
0.000129626
0.000121978
0.000116779
0.000118468
0.000132129
0.000153525
0.000165086
0.00015559
0.000143926
0.000138881
0.000137433
0.000140421
0.000142594
0.000136482
0.00012914
0.000125843
0.000135417
0.000144355
0.000153551
0.000164497
0.000169965
0.000193486
0.000211286
0.000211497
0.000218509
0.000218599
0.000201382
0.000199882
0.000174292
0.000195126
0.000181477
0.00017936
0.00018242
0.000185166
0.000190555
0.000198436
0.000208263
0.000220621
0.000237677
0.000252204
0.000285087
0.000320305
0.000364488
0.00038214
0.000398486
0.000398087
0.000382753
0.000431911
0.000414905
0.000355503
0.000355582
0.000345396
0.000362617
0.00037989
0.00037308
0.000407616
0.000412868
0.000440589
0.000426606
0.00043673
0.000444883
0.000277496
0.000143287
8.58232e-05
6.46351e-05
5.13017e-05
4.04322e-05
3.31287e-05
3.05929e-05
3.04386e-05
3.10557e-05
3.13446e-05
3.13467e-05
3.1494e-05
3.18338e-05
3.24708e-05
3.30934e-05
3.39158e-05
3.51567e-05
3.6492e-05
3.76053e-05
3.85407e-05
3.92089e-05
3.95818e-05
3.9924e-05
4.01215e-05
4.03295e-05
4.06914e-05
4.15443e-05
4.26115e-05
4.38997e-05
4.49456e-05
4.67084e-05
4.98222e-05
5.54173e-05
6.35003e-05
7.54179e-05
8.68662e-05
9.34581e-05
9.43552e-05
9.68123e-05
9.86583e-05
0.000102873
0.000107337
0.000113547
0.000113147
0.000120615
0.000127617
0.000132177
0.00013416
0.000124576
0.000102155
8.53411e-05
7.42151e-05
6.55118e-05
5.88446e-05
5.40677e-05
5.18331e-05
4.98675e-05
4.91086e-05
4.84163e-05
4.80447e-05
4.78524e-05
4.78806e-05
4.8018e-05
4.82801e-05
4.88412e-05
4.94128e-05
5.01674e-05
5.0938e-05
5.16884e-05
5.26545e-05
5.3315e-05
5.4309e-05
5.49651e-05
5.60887e-05
5.72159e-05
5.78625e-05
5.90619e-05
6.01755e-05
6.09177e-05
6.1956e-05
6.28196e-05
6.3984e-05
6.47097e-05
6.57404e-05
6.72261e-05
6.82044e-05
6.96948e-05
7.08875e-05
7.22673e-05
7.37394e-05
7.49893e-05
7.58104e-05
7.6921e-05
7.77734e-05
7.90308e-05
8.00275e-05
8.0807e-05
8.24603e-05
8.30167e-05
8.49314e-05
8.62934e-05
8.88729e-05
9.13623e-05
9.56735e-05
0.000102918
0.000112928
0.000122113
0.000130347
0.000138224
0.000142159
0.000140432
0.000139812
0.000140855
0.000139133
0.000138445
0.00013913
0.000136007
0.000132748
0.00013164
0.000129397
0.000125113
0.000122559
0.000118375
0.000121921
0.000140408
0.000152022
0.00014809
0.000141593
0.000138297
0.000137873
0.00014105
0.000138854
0.000129942
0.000118978
0.000119754
0.000136541
0.000147556
0.000156862
0.000161158
0.000178099
0.000205478
0.000200395
0.000206964
0.000206459
0.000185937
0.000177598
0.000162343
0.000175168
0.000167338
0.000169722
0.000171346
0.000176444
0.000181273
0.000184026
0.000189216
0.000199306
0.000211214
0.000219328
0.000236874
0.000261681
0.000314078
0.000336939
0.000359038
0.000381382
0.000370674
0.000396156
0.000388794
0.000346708
0.000344283
0.000334783
0.000345103
0.00036747
0.000365872
0.000392946
0.000407107
0.000440404
0.000422873
0.00043149
0.000462598
0.000327611
0.00016845
9.97378e-05
6.76858e-05
4.94587e-05
3.56366e-05
2.90078e-05
2.78123e-05
2.87106e-05
2.98243e-05
3.00935e-05
3.0424e-05
3.10948e-05
3.17592e-05
3.26685e-05
3.37605e-05
3.53249e-05
3.73701e-05
3.89132e-05
3.99179e-05
4.05641e-05
4.08842e-05
4.10222e-05
4.09997e-05
4.0776e-05
4.03913e-05
4.03856e-05
4.08786e-05
4.18875e-05
4.35096e-05
4.47729e-05
4.53876e-05
4.61712e-05
4.84971e-05
5.39816e-05
6.35976e-05
7.74888e-05
8.9505e-05
9.52021e-05
0.000100297
0.000103979
0.000109105
0.000111271
0.000112535
0.000112982
0.000115807
0.00011584
0.000108802
9.3868e-05
8.02431e-05
7.01282e-05
5.94805e-05
5.41504e-05
5.08328e-05
4.84391e-05
4.62628e-05
4.56512e-05
4.46455e-05
4.46439e-05
4.43701e-05
4.46308e-05
4.48093e-05
4.51675e-05
4.57865e-05
4.62715e-05
4.71845e-05
4.78158e-05
4.87466e-05
4.96557e-05
5.05262e-05
5.14244e-05
5.19894e-05
5.26871e-05
5.29644e-05
5.33542e-05
5.39124e-05
5.40933e-05
5.43182e-05
5.47634e-05
5.52979e-05
5.5555e-05
5.61774e-05
5.68062e-05
5.74544e-05
5.79578e-05
5.90015e-05
5.93975e-05
6.07647e-05
6.14336e-05
6.28924e-05
6.39794e-05
6.59101e-05
6.71949e-05
6.83023e-05
6.94525e-05
7.0033e-05
7.13902e-05
7.19144e-05
7.28687e-05
7.35468e-05
7.44619e-05
7.55833e-05
7.65784e-05
7.8226e-05
8.02619e-05
8.21328e-05
8.71857e-05
9.78767e-05
0.000106136
0.00011576
0.000125016
0.000129525
0.000132411
0.000132626
0.000132977
0.000135511
0.000136363
0.000134916
0.000133506
0.000131658
0.000129271
0.000122703
0.000117185
0.00011675
0.000111166
0.000106695
0.000117002
0.00012812
0.000129132
0.000127008
0.000122747
0.00012804
0.000134299
0.000128784
0.000117499
0.000109888
0.000121621
0.000138345
0.000150489
0.00015601
0.000170104
0.000199789
0.000192921
0.000203758
0.000198205
0.000170457
0.00016741
0.000155785
0.000165255
0.00015397
0.000161331
0.000161805
0.000166978
0.000171007
0.000176752
0.000178434
0.000188807
0.000196668
0.000203277
0.000210934
0.000223365
0.000268004
0.000296529
0.000318049
0.000350566
0.000359141
0.000373864
0.000369929
0.000342214
0.000335955
0.00033559
0.000344529
0.000358051
0.0003722
0.000372757
0.000420292
0.000421738
0.000422539
0.000433785
0.00046351
0.000372265
0.000190666
0.000107997
6.81217e-05
4.56636e-05
3.09567e-05
2.61954e-05
2.61274e-05
2.76925e-05
2.89372e-05
2.97015e-05
3.06382e-05
3.15923e-05
3.26799e-05
3.41137e-05
3.60967e-05
3.84701e-05
3.98827e-05
4.06717e-05
4.14792e-05
4.21809e-05
4.24777e-05
4.24895e-05
4.222e-05
4.15959e-05
4.09014e-05
4.00415e-05
3.98748e-05
4.04018e-05
4.16118e-05
4.38007e-05
4.54027e-05
4.59633e-05
4.67738e-05
5.00778e-05
5.80469e-05
7.24899e-05
8.75084e-05
9.5772e-05
0.000100408
0.000105835
0.000108576
0.00010998
0.000107594
0.000104011
9.77421e-05
8.69864e-05
7.75511e-05
6.66254e-05
5.79062e-05
5.36758e-05
4.91694e-05
4.64422e-05
4.50176e-05
4.4175e-05
4.31333e-05
4.31348e-05
4.29302e-05
4.32774e-05
4.33612e-05
4.38393e-05
4.4345e-05
4.48914e-05
4.57397e-05
4.63968e-05
4.73868e-05
4.82612e-05
4.92095e-05
5.01604e-05
5.11147e-05
5.17975e-05
5.22512e-05
5.27002e-05
5.29052e-05
5.28214e-05
5.28484e-05
5.29814e-05
5.24981e-05
5.2446e-05
5.24625e-05
5.25775e-05
5.29223e-05
5.33745e-05
5.38874e-05
5.45379e-05
5.4979e-05
5.54903e-05
5.58667e-05
5.58024e-05
5.60418e-05
5.62679e-05
5.64018e-05
5.69667e-05
5.76945e-05
5.95403e-05
6.02818e-05
6.16168e-05
6.24133e-05
6.35478e-05
6.46266e-05
6.59191e-05
6.72014e-05
6.81048e-05
6.96239e-05
7.16862e-05
7.31988e-05
7.43758e-05
7.79998e-05
8.26611e-05
8.76331e-05
9.63113e-05
0.000107064
0.000111254
0.000111858
0.00011403
0.000116788
0.000119011
0.000121123
0.000120646
0.000117515
0.000117943
0.000116672
0.00010287
9.4764e-05
9.6505e-05
9.90602e-05
9.66275e-05
0.00010019
0.000105319
0.000104945
9.66121e-05
9.93322e-05
0.000113831
0.000116251
0.000110557
0.000102108
0.000105334
0.000124191
0.00014496
0.00015363
0.000168554
0.000195275
0.000186824
0.000194665
0.000187138
0.00016199
0.000159372
0.000147756
0.000157941
0.000143889
0.000152489
0.000150281
0.000158471
0.000158868
0.000164923
0.000163941
0.000173818
0.000179747
0.000192222
0.000200424
0.000205614
0.000232862
0.000263157
0.000280883
0.000317799
0.000331681
0.000352372
0.000357457
0.000343729
0.000333814
0.000336321
0.000346619
0.000360606
0.00037175
0.000371496
0.000436186
0.000421944
0.000428317
0.000433692
0.00043255
0.000410226
0.000208201
0.000110545
6.5723e-05
3.75953e-05
2.67277e-05
2.47677e-05
2.54613e-05
2.74183e-05
2.87373e-05
2.97852e-05
3.08059e-05
3.21104e-05
3.40197e-05
3.5642e-05
3.80591e-05
4.01666e-05
4.11852e-05
4.18173e-05
4.27626e-05
4.34869e-05
4.37581e-05
4.37661e-05
4.35462e-05
4.29372e-05
4.23309e-05
4.12916e-05
4.04908e-05
4.03507e-05
4.07881e-05
4.27586e-05
4.50706e-05
4.58709e-05
4.63574e-05
4.88872e-05
5.58981e-05
6.97788e-05
8.5854e-05
9.51065e-05
9.97826e-05
0.000103993
0.000105297
0.000102783
9.32915e-05
8.4504e-05
7.56479e-05
6.63604e-05
5.88346e-05
5.25319e-05
4.86834e-05
4.62643e-05
4.45629e-05
4.33697e-05
4.25834e-05
4.24293e-05
4.23157e-05
4.25076e-05
4.26197e-05
4.31004e-05
4.36105e-05
4.43828e-05
4.52968e-05
4.6386e-05
4.7637e-05
4.88674e-05
5.00236e-05
5.1109e-05
5.20994e-05
5.30876e-05
5.37292e-05
5.4045e-05
5.42509e-05
5.41629e-05
5.35704e-05
5.27441e-05
5.2108e-05
5.18568e-05
5.11174e-05
5.05578e-05
4.99782e-05
4.97751e-05
5.01035e-05
5.04281e-05
5.13334e-05
5.2085e-05
5.25116e-05
5.321e-05
5.33738e-05
5.3062e-05
5.29966e-05
5.29188e-05
5.26345e-05
5.23879e-05
5.25436e-05
5.2827e-05
5.31426e-05
5.37495e-05
5.41701e-05
5.46288e-05
5.50241e-05
5.54033e-05
5.63959e-05
5.80662e-05
5.97423e-05
6.17776e-05
6.38675e-05
6.5835e-05
6.79706e-05
6.98352e-05
7.02517e-05
7.24583e-05
8.14194e-05
8.70451e-05
8.88749e-05
9.05075e-05
9.14469e-05
9.31515e-05
9.66869e-05
9.82814e-05
9.44502e-05
9.22756e-05
9.25453e-05
9.50498e-05
9.16105e-05
8.57451e-05
8.642e-05
8.96898e-05
9.23151e-05
9.34479e-05
9.19963e-05
8.49992e-05
8.17696e-05
9.42041e-05
0.000102579
0.000102722
9.33213e-05
9.56822e-05
0.000115636
0.000142895
0.000154734
0.000168743
0.000187721
0.000180624
0.000183121
0.000177221
0.000158651
0.000158982
0.000142728
0.000152977
0.000138559
0.000148416
0.000143432
0.000151662
0.000151186
0.000157514
0.000156819
0.00016547
0.000169566
0.000178559
0.000188398
0.00019404
0.000210337
0.000241153
0.000249858
0.00028794
0.000296238
0.000315976
0.000343308
0.000336178
0.000330619
0.000343269
0.000356638
0.00037068
0.000368
0.000379898
0.000451135
0.00041109
0.000450476
0.000443301
0.00041817
0.000440914
0.000221163
0.00011036
5.73282e-05
3.19875e-05
2.5028e-05
2.4333e-05
2.53317e-05
2.72438e-05
2.83977e-05
2.9718e-05
3.14014e-05
3.38213e-05
3.61022e-05
3.7749e-05
4.02136e-05
4.15467e-05
4.19775e-05
4.26554e-05
4.37596e-05
4.421e-05
4.43398e-05
4.43207e-05
4.42993e-05
4.41473e-05
4.39065e-05
4.32489e-05
4.18833e-05
4.10598e-05
4.09734e-05
4.26115e-05
4.48224e-05
4.57562e-05
4.63776e-05
4.89949e-05
5.60212e-05
6.97484e-05
8.51347e-05
9.31567e-05
9.69703e-05
9.87779e-05
9.71966e-05
8.9048e-05
7.7335e-05
6.95678e-05
6.03496e-05
5.42006e-05
4.97605e-05
4.63602e-05
4.47816e-05
4.34026e-05
4.26064e-05
4.23205e-05
4.20069e-05
4.21868e-05
4.23106e-05
4.25004e-05
4.29346e-05
4.36252e-05
4.46811e-05
4.60835e-05
4.74552e-05
4.89069e-05
4.99984e-05
5.10973e-05
5.19797e-05
5.2877e-05
5.35463e-05
5.42577e-05
5.49247e-05
5.53407e-05
5.59439e-05
5.61488e-05
5.55119e-05
5.38155e-05
5.16087e-05
5.03e-05
4.95223e-05
4.82443e-05
4.70505e-05
4.62874e-05
4.62816e-05
4.64517e-05
4.77643e-05
4.87059e-05
4.96964e-05
5.05717e-05
5.10069e-05
5.078e-05
5.02725e-05
5.00942e-05
4.95306e-05
4.87138e-05
4.85364e-05
4.85414e-05
4.86301e-05
4.89154e-05
4.94648e-05
5.01032e-05
5.03508e-05
5.05631e-05
5.06051e-05
5.10185e-05
5.13676e-05
5.19073e-05
5.29831e-05
5.43256e-05
5.68586e-05
5.86358e-05
6.02625e-05
6.1394e-05
6.41983e-05
6.72318e-05
6.85392e-05
7.17775e-05
7.45929e-05
7.71125e-05
8.01239e-05
8.28254e-05
8.19513e-05
8.24989e-05
8.0883e-05
7.84252e-05
8.15905e-05
8.59827e-05
8.47166e-05
8.22642e-05
8.40954e-05
8.72506e-05
8.94946e-05
8.78853e-05
8.42763e-05
8.66689e-05
9.51237e-05
9.8173e-05
9.2466e-05
9.26547e-05
0.000110108
0.000140331
0.000157473
0.000169947
0.000181676
0.000178966
0.000177717
0.000173907
0.000158434
0.00015948
0.000142331
0.000149377
0.000133409
0.000143046
0.000138391
0.00014662
0.000147338
0.000151572
0.000153823
0.000159234
0.00016426
0.000169922
0.000179179
0.000185703
0.000193913
0.000223897
0.000224669
0.000269798
0.000270147
0.000274394
0.000314813
0.000316974
0.000335703
0.000355832
0.000361001
0.000375575
0.00036615
0.00039405
0.000434572
0.000402717
0.000444308
0.000464386
0.000438775
0.000464283
0.000231494
0.00010942
5.25046e-05
2.95007e-05
2.46305e-05
2.43457e-05
2.55091e-05
2.75621e-05
2.88823e-05
3.02418e-05
3.17535e-05
3.41352e-05
3.6952e-05
3.89859e-05
4.17101e-05
4.32728e-05
4.39508e-05
4.48068e-05
4.54014e-05
4.52617e-05
4.4934e-05
4.48035e-05
4.46923e-05
4.46777e-05
4.44802e-05
4.41567e-05
4.32051e-05
4.17572e-05
4.13893e-05
4.28954e-05
4.49122e-05
4.58268e-05
4.65567e-05
4.94212e-05
5.69975e-05
7.09143e-05
8.48308e-05
9.04691e-05
9.18753e-05
9.13341e-05
8.78565e-05
7.70772e-05
6.55777e-05
5.87479e-05
5.18138e-05
4.82125e-05
4.58319e-05
4.38628e-05
4.32896e-05
4.26539e-05
4.22055e-05
4.21822e-05
4.19803e-05
4.21976e-05
4.23548e-05
4.258e-05
4.33324e-05
4.43555e-05
4.57696e-05
4.73136e-05
4.83191e-05
4.93295e-05
5.01762e-05
5.09505e-05
5.15636e-05
5.22393e-05
5.26021e-05
5.28069e-05
5.3061e-05
5.33896e-05
5.44286e-05
5.51782e-05
5.5551e-05
5.46679e-05
5.24657e-05
4.91378e-05
4.76841e-05
4.53338e-05
4.44977e-05
4.32849e-05
4.32354e-05
4.3915e-05
4.44917e-05
4.51671e-05
4.65518e-05
4.65499e-05
4.69442e-05
4.70575e-05
4.59395e-05
4.5357e-05
4.53785e-05
4.42259e-05
4.42208e-05
4.45169e-05
4.45487e-05
4.48141e-05
4.53499e-05
4.58607e-05
4.62066e-05
4.67988e-05
4.71967e-05
4.74546e-05
4.81088e-05
4.86835e-05
4.89433e-05
4.95385e-05
5.03836e-05
5.1766e-05
5.31714e-05
5.42121e-05
5.54211e-05
5.73872e-05
5.85084e-05
5.92876e-05
6.06366e-05
6.32733e-05
6.65615e-05
7.06979e-05
7.11468e-05
7.22216e-05
7.61859e-05
7.51974e-05
7.10919e-05
7.3855e-05
7.79221e-05
7.72951e-05
7.48401e-05
7.67996e-05
8.11296e-05
8.45858e-05
8.31596e-05
8.33425e-05
9.07194e-05
9.48481e-05
9.39412e-05
9.02657e-05
0.000102455
0.000136951
0.000158123
0.000170944
0.000179746
0.000177911
0.000176196
0.000172421
0.000161235
0.000159823
0.000142488
0.000145799
0.000130601
0.000141116
0.000137143
0.000143563
0.000146482
0.00014912
0.000154746
0.000157857
0.000163236
0.000164761
0.000172698
0.000178329
0.000181699
0.000215278
0.000205721
0.000258885
0.000252157
0.000247477
0.000289693
0.0002945
0.000342365
0.00035924
0.000347983
0.000368087
0.000376333
0.00040175
0.000414877
0.000460153
0.000460797
0.000602622
0.000469205
0.000480815
0.000239549
0.000110082
5.0789e-05
2.86238e-05
2.48546e-05
2.46881e-05
2.61038e-05
2.78991e-05
2.90135e-05
3.05858e-05
3.24433e-05
3.51787e-05
3.85111e-05
4.11439e-05
4.41918e-05
4.68138e-05
4.73325e-05
4.73757e-05
4.71635e-05
4.64525e-05
4.5854e-05
4.57026e-05
4.5769e-05
4.58845e-05
4.55508e-05
4.48338e-05
4.35755e-05
4.27337e-05
4.27755e-05
4.42533e-05
4.58958e-05
4.64638e-05
4.72393e-05
5.09015e-05
5.98525e-05
7.35053e-05
8.2673e-05
8.54475e-05
8.52007e-05
8.4114e-05
7.84253e-05
6.68338e-05
5.75789e-05
5.21899e-05
4.75764e-05
4.52986e-05
4.43559e-05
4.3184e-05
4.30037e-05
4.25941e-05
4.22464e-05
4.23211e-05
4.21999e-05
4.24112e-05
4.27914e-05
4.30658e-05
4.40494e-05
4.54644e-05
4.702e-05
4.84702e-05
4.90881e-05
4.97234e-05
5.02504e-05
5.06016e-05
5.06741e-05
5.05146e-05
5.02809e-05
4.96632e-05
4.89545e-05
4.83116e-05
4.80648e-05
4.99642e-05
5.29814e-05
5.37789e-05
5.2773e-05
4.9886e-05
4.69182e-05
4.40973e-05
4.20372e-05
4.07708e-05
4.04531e-05
4.14873e-05
4.26211e-05
4.31557e-05
4.40157e-05
4.38894e-05
4.28705e-05
4.2566e-05
4.20535e-05
4.17754e-05
4.19363e-05
4.20923e-05
4.22751e-05
4.27026e-05
4.29265e-05
4.34287e-05
4.40652e-05
4.42566e-05
4.48451e-05
4.52041e-05
4.5317e-05
4.58483e-05
4.61021e-05
4.64803e-05
4.73272e-05
4.77149e-05
4.83363e-05
4.90814e-05
4.97653e-05