/*--------------------------------*- C++ -*----------------------------------*\
| =========                 |                                                 |
| \\      /  F ield         | OpenFOAM: The Open Source CFD Toolbox           |
|  \\    /   O peration     | Version:  dev                                   |
|   \\  /    A nd           | Web:      http://www.openfoam.org               |
|    \\/     M anipulation  |                                                 |
\*---------------------------------------------------------------------------*/
FoamFile
{
    version     2.0;
    format      ascii;
    class       volScalarField;
    object      p;
    location    "9.119";
}
// * * * * * * * * * * * * * * * * * * * * * * * * * * * * * * * * * * * * * //

dimensions      [1 -1 -2 0 0 0 0];

internalField   nonuniform List<scalar> 
12225
(
105674
105748
105829
105918
105998
106078
106144
106208
106254
106297
106318
106339
106334
106337
106308
106296
106221
106235
105664
105740
105820
105909
105988
106068
106134
106197
106243
106287
106307
106328
106323
106325
106297
106281
106194
106245
105642
105720
105798
105886
105964
106044
106109
106172
106218
106260
106281
106300
106296
106293
106271
106240
106184
106192
105601
105682
105759
105846
105922
106001
106065
106128
106173
106214
106236
106251
106249
106240
106222
106182
106152
106123
105539
105620
105696
105781
105857
105934
105998
106059
106104
106142
106165
106176
106177
106161
106147
106103
106092
106054
105448
105527
105603
105686
105761
105836
105900
105958
106004
106038
106062
106070
106071
106052
106037
105996
105978
105931
105319
105396
105472
105552
105627
105699
105762
105817
105864
105894
105917
105922
105922
105902
105883
105844
105815
105767
105172
105246
105322
105399
105474
105542
105605
105657
105703
105731
105753
105756
105753
105733
105709
105672
105633
105588
105011
105086
105161
105235
105309
105375
105437
105486
105530
105557
105576
105578
105573
105552
105525
105488
105444
105397
104799
104872
104947
105018
105090
105153
105214
105260
105301
105327
105344
105345
105336
105315
105284
105247
105201
105150
104522
104591
104664
104731
104800
104860
104918
104963
105000
105025
105038
105038
105026
105004
104971
104932
104885
104832
104161
104222
104291
104354
104419
104477
104531
104573
104607
104629
104640
104639
104625
104602
104567
104526
104478
104424
103689
103742
103803
103863
103923
103977
104026
104067
104097
104117
104126
104123
104109
104085
104051
104008
103960
103905
103076
103120
103172
103227
103282
103332
103376
103414
103443
103461
103469
103466
103452
103429
103396
103355
103308
103254
102300
102326
102367
102415
102463
102510
102551
102588
102615
102634
102642
102641
102629
102609
102579
102542
102498
102448
101303
101322
101354
101395
101438
101482
101523
101559
101588
101609
101622
101625
101619
101604
101581
101550
101513
101469
100086
100088
100110
100144
100184
100228
100271
100311
100345
100372
100392
100404
100407
100402
100389
100368
100341
100307
98718.4
98723.3
98741.3
98771.3
98811.2
98857.3
98905.5
98952.4
98995.8
99033.8
99065.1
99089
99105
99112.8
99112.6
99104.7
99090.3
99069
97482.4
97468.1
97479.2
97508.8
97551.3
97602.1
97657.2
97713.5
97767.7
97817.5
97861.2
97897.7
97926.4
97947
97959.7
97964.6
97962.6
97953.7
96448
96426.2
96433
96463
96508.9
96565.3
96627.8
96692.6
96756.6
96816.8
96871.2
96918.6
96958.3
96990
97013.7
97029.5
97038.2
97039.9
95616.6
95589.6
95594.2
95624.6
95673.3
95734.8
95803.9
95876
95947.7
96016.3
96079.4
96135.7
96184.3
96224.9
96257.5
96282.2
96299.6
96309.9
94967.4
94937.8
94941.1
94971.3
95021.9
95087.1
95161.1
95239
95317
95392
95461.8
95524.9
95580.4
95627.9
95667.4
95699
95723.3
95740.4
94478.2
94443.1
94444.6
94474.4
94526.1
94593.8
94671.2
94753.5
94836.2
94916.2
94991
95059.2
95119.9
95172.6
95217.3
95254.1
95283.6
95305.8
94115.7
94076.2
94075.9
94105.5
94158
94227.3
94307.1
94392.3
94478.3
94561.9
94640.6
94712.6
94777.1
94833.7
94882.2
94922.9
94956.1
94982.3
93848.3
93810.9
93809.8
93839.4
93892.7
93963.2
94044.5
94131.4
94219.4
94305.3
94386.5
94461.4
94528.7
94588
94639.3
94682.7
94718.7
94747.7
93659
93625.6
93624.3
93653.7
93707.5
93778.8
93861.1
93949.2
94038.6
94125.9
94208.6
94285.1
94354.4
94415.7
94468.9
94514.2
94552.1
94583.2
93536.6
93502.9
93501
93530.1
93584
93655.7
93738.7
93827.4
93917.7
94006
94089.7
94167.2
94237.5
94300
94354.5
94401.1
94440.3
94472.7
93463.1
93427.9
93424.5
93453
93506.9
93578.7
93662
93751.3
93842.1
93931
94015.3
94093.5
94164.4
94227.6
94282.8
94330.1
94370.1
94403.2
93426
93388.2
93382.9
93410.7
93464.2
93536.1
93619.6
93709
93800.1
93889.4
93974.1
94052.5
94123.8
94187.3
94242.9
94290.7
94331
94364.4
93413.1
93373.8
93367.1
93394.2
93447.3
93519.1
93602.6
93692
93783.2
93872.5
93957.3
94035.9
94107.3
94171
94226.8
94274.7
94315.2
94348.7
97421
97425
97434.9
97451.4
97474.1
97503.1
97538.5
97580
97627.7
97681.5
97741.5
97807.9
97880.6
97959.7
98045.1
98136.8
98234.6
98338.6
98448.5
98564.3
98685.7
98812.6
98944.9
99082.3
99224.5
99371.4
99522.5
99677.3
99835.1
99995.1
100156
100317
100476
100634
100788
100939
101087
101231
101372
101511
101644
101774
101896
102012
102122
102228
102329
102425
102516
102600
102679
102757
102829
102895
102962
103032
103105
103181
103260
103345
103435
103533
103641
103759
103889
104032
104188
104359
104544
104746
104963
105196
105446
105713
105997
106297
106614
106948
107299
107666
108049
108448
108862
109291
109734
110191
110661
111143
111636
112141
112654
113175
113700
114229
114758
115287
115810
116325
116828
117317
117784
118228
118640
119017
119353
119642
119880
120063
120187
120252
120257
120201
120086
119914
119686
119404
119073
118696
118276
117824
117356
116884
116407
115930
115450
114965
114483
114007
113534
113065
112596
112124
111645
111160
110671
110173
109660
109125
108573
108026
107499
106993
106507
106033
105558
105102
104668
104250
103857
103490
103157
102861
102606
102402
102261
102184
102188
102263
102412
102640
102941
103320
103789
104406
105169
106080
107128
108320
109691
111230
112919
114677
116435
118186
119927
121575
123069
124292
125189
125689
97540.1
97544.1
97553.6
97569.8
97592.7
97621.9
97657
97697.9
97744.6
97797.3
97856
97920.8
97991.8
98068.9
98152
98241
98336.1
98437.1
98544
98656.5
98774.7
98898.4
99027.4
99161.7
99300.8
99444.5
99592.2
99743.5
99897.8
100054
100212
100370
100527
100682
100835
100983
101129
101271
101409
101545
101676
101803
101921
102033
102137
102236
102333
102425
102514
102597
102671
102744
102818
102884
102943
103001
103066
103137
103211
103290
103376
103470
103572
103685
103810
103948
104099
104264
104444
104640
104851
105079
105323
105584
105861
106155
106466
106794
107138
107498
107874
108266
108673
109095
109531
109980
110443
110918
111403
111900
112405
112917
113435
113955
114477
114997
115512
116019
116515
116995
117457
117895
118303
118677
119012
119301
119540
119725
119852
119920
119927
119875
119765
119599
119376
119101
118780
118414
118005
117561
117100
116640
116187
115736
115275
114806
114340
113881
113424
112972
112518
112060
111593
111121
110647
110165
109666
109145
108603
108065
107548
107051
106574
106106
105639
105190
104757
104352
103961
103602
103274
102984
102734
102535
102397
102323
102329
102406
102557
102786
103091
103475
103939
104566
105322
106229
107259
108453
109825
111349
113022
114749
116481
118201
119912
121534
123010
124209
125090
125572
97771.3
97775.5
97785.5
97801.9
97824.3
97852.1
97885.4
97924.1
97968.4
98018.4
98074.3
98135.9
98203.4
98276.6
98355.5
98440
98530.4
98626.4
98728.1
98835.4
98948.4
99067
99191
99320.1
99453.9
99592
99733.7
99878.6
100026
100176
100327
100479
100631
100782
100930
101074
101215
101352
101485
101613
101737
101853
101961
102062
102157
102249
102339
102426
102509
102587
102656
102716
102774
102830
102883
102935
102990
103049
103112
103181
103257
103340
103434
103539
103654
103782
103922
104077
104247
104431
104632
104848
105081
105330
105595
105877
106176
106491
106822
107170
107533
107912
108305
108713
109135
109570
110019
110479
110949
111430
111919
112416
112917
113421
113926
114430
114928
115419
115898
116361
116809
117234
117629
117993
118323
118614
118858
119048
119182
119258
119274
119231
119132
118980
118768
118504
118199
117853
117470
117061
116632
116199
115768
115343
114922
114499
114071
113643
113219
112797
112371
111937
111493
111046
110597
110141
109670
109180
108667
108149
107648
107171
106710
106249
105796
105364
104943
104551
104172
103821
103502
103221
102982
102791
102663
102598
102610
102694
102851
103084
103399
103803
104261
104905
105651
106547
107559
108754
110109
111607
113233
114895
116583
118245
119891
121449
122877
124025
124865
125314
98102.4
98106.5
98116.1
98131.2
98151.5
98176.9
98207.3
98243
98284.2
98331
98383.2
98440.9
98503.9
98572.3
98646.1
98725.3
98810
98900.3
98996.2
99097.8
99205
99317.6
99435.4
99557.9
99684.6
99814.9
99948.1
100084
100221
100361
100502
100644
100786
100929
101071
101209
101343
101472
101596
101715
101827
101930
102025
102111
102193
102273
102352
102426
102494
102556
102612
102662
102707
102749
102789
102830
102873
102919
102969
103025
103088
103158
103237
103327
103428
103541
103667
103807
103961
104130
104315
104515
104731
104964
105213
105478
105760
106057
106371
106701
107046
107406
107781
108171
108574
108990
109418
109858
110309
110768
111237
111713
112192
112674
113158
113643
114118
114587
115044
115486
115911
116314
116689
117032
117344
117622
117862
118059
118204
118293
118325
118298
118220
118086
117897
117663
117386
117068
116722
116364
115992
115608
115216
114815
114415
114038
113669
113293
112915
112531
112142
111749
111345
110933
110522
110101
109665
109217
108747
108267
107794
107341
106907
106460
106023
105611
105210
104832
104472
104135
103827
103560
103335
103158
103045
102994
103014
103106
103273
103518
103845
104263
104752
105401
106136
107028
108011
109198
110517
111982
113540
115111
116726
118310
119862
121315
122651
123719
124489
124886
98522.3
98525.6
98533.9
98547.1
98565.2
98588.2
98616
98649.1
98687.3
98730.6
98778.8
98831.8
98889.7
98952.6
99020.6
99093.8
99172.4
99256.4
99345.7
99440.4
99540.1
99644.8
99754
99867.3
99984.2
100104
100226
100351
100477
100604
100732
100860
100991
101122
101252
101380
101505
101624
101738
101844
101944
102033
102110
102180
102246
102309
102369
102425
102474
102518
102555
102588
102617
102644
102669
102694
102721
102751
102785
102824
102869
102922
102984
103055
103138
103232
103339
103460
103594
103743
103908
104088
104284
104495
104723
104968
105228
105503
105796
106103
106426
106763
107116
107482
107861
108253
108658
109073
109499
109933
110374
110829
111282
111739
112197
112655
113107
113552
113986
114406
114809
115189
115544
115868
116158
116411
116628
116811
116953
117050
117098
117095
117039
116926
116773
116583
116348
116076
115779
115466
115156
114831
114493
114153
113799
113446
113117
112801
112483
112153
111810
111474
111133
110775
110412
110037
109651
109251
108834
108402
107970
107552
107147
106735
106323
105929
105546
105193
104850
104539
104250
104004
103797
103635
103544
103505
103536
103635
103813
104068
104410
104851
105360
106020
106748
107634
108624
109761
111042
112456
113923
115386
116894
118393
119808
121131
122320
123288
123963
124259
99021.4
99023.9
99030.9
99042.5
99058.7
99079.5
99105
99135.2
99170.1
99209.2
99252.5
99300
99352.1
99409
99470.7
99537.2
99608.5
99684.7
99765.6
99851.1
99941
100035
100133
100235
100340
100447
100557
100669
100782
100895
101009
101123
101238
101353
101469
101583
101694
101800
101899
101990
102072
102143
102205
102259
102306
102348
102386
102419
102447
102469
102487
102500
102510
102518
102524
102531
102538
102548
102561
102581
102605
102637
102677
102727
102788
102859
102944
103041
103153
103279
103420
103576
103748
103935
104139
104358
104594
104844
105111
105393
105690
106002
106328
106668
107020
107385
107762
108149
108547
108953
109366
109787
110212
110640
111069
111497
111922
112340
112748
113143
113522
113880
114214
114521
114797
115037
115237
115398
115522
115606
115654
115667
115631
115546
115429
115275
115087
114877
114643
114384
114128
113867
113591
113309
113045
112764
112479
112208
111946
111677
111396
111119
110842
110560
110266
109941
109613
109273
108916
108542
108162
107790
107417
107054
106676
106304
105947
105626
105311
105028
104765
104544
104360
104221
104146
104120
104168
104273
104464
104728
105081
105543
106068
106740
107465
108357
109345
110423
111663
113000
114362
115700
117086
118474
119721
120907
121881
122746
123287
123436
99589.1
99590.8
99596.6
99606.8
99621.1
99639.6
99662.1
99688.6
99719
99753.1
99791.4
99833.9
99880.5
99930.9
99985.5
100044
100107
100174
100244
100318
100396
100478
100562
100650
100740
100833
100929
101026
101124
101223
101321
101419
101517
101615
101713
101810
101903
101991
102072
102145
102207
102258
102300
102334
102361
102381
102397
102406
102410
102410
102406
102397
102385
102371
102356
102341
102326
102313
102304
102299
102299
102307
102322
102347
102382
102428
102487
102558
102643
102743
102857
102986
103131
103292
103468
103659
103867
104090
104329
104584
104852
105136
105433
105744
106068
106403
106749
107110
107475
107851
108233
108621
109015
109411
109809
110207
110602
110991
111371
111739
112092
112426
112738
113025
113284
113512
113706
113861
113976
114054
114095
114105
114078
114019
113934
113814
113672
113515
113343
113149
112952
112758
112569
112363
112155
111965
111765
111562
111360
111158
110951
110732
110507
110287
110077
109814
109547
109272
108983
108674
108355
108040
107713
107393
107056
106721
106404
106121
105846
105596
105363
105169
105015
104897
104842
104828
104895
105007
105210
105486
105849
106323
106861
107539
108269
109153
110114
111151
112342
113586
114827
116042
117294
118514
119591
120632
121372
122110
122468
122504
100212
100213
100218
100227
100239
100254
100273
100296
100322
100352
100385
100422
100462
100505
100552
100603
100657
100714
100773
100835
100899
100965
101034
101105
101179
101255
101334
101414
101496
101578
101660
101740
101820
101899
101978
102054
102126
102193
102252
102303
102343
102372
102392
102405
102409
102406
102398
102384
102364
102340
102312
102279
102243
102205
102165
102125
102085
102047
102012
101981
101955
101936
101925
101922
101929
101947
101978
102021
102077
102147
102232
102332
102448
102579
102725
102886
103064
103257
103466
103690
103929
104182
104449
104729
105022
105326
105642
105968
106301
106645
106995
107350
107712
108076
108442
108809
109174
109533
109885
110226
110554
110866
111158
111425
111667
111880
112063
112213
112330
112414
112463
112477
112462
112424
112364
112282
112183
112068
111948
111826
111699
111567
111441
111333
111207
111080
110959
110837
110714
110592
110473
110322
110146
109981
109841
109651
109447
109237
109018
108784
108536
108284
108021
107748
107456
107176
106910
106674
106442
106228
106034
105871
105744
105653
105614
105617
105697
105823
106035
106320
106693
107173
107723
108397
109130
109996
110900
111905
113029
114180
115295
116379
117466
118491
119403
120261
120817
121360
121525
121512
100877
100877
100880
100887
100896
100909
100925
100944
100966
100991
101019
101050
101084
101121
101161
101203
101247
101292
101339
101388
101437
101488
101540
101594
101650
101708
101768
101829
101891
101955
102017
102078
102138
102197
102254
102308
102357
102400
102435
102461
102476
102482
102479
102468
102449
102422
102390
102351
102307
102258
102204
102146
102084
102019
101953
101886
101819
101754
101691
101632
101579
101531
101491
101459
101438
101427
101427
101440
101467
101507
101562
101631
101716
101815
101930
102060
102206
102367
102544
102736
102944
103165
103401
103650
103911
104183
104466
104758
105058
105367
105684
106006
106335
106668
107002
107336
107669
107999
108322
108635
108938
109227
109498
109749
109977
110178
110352
110497
110614
110704
110766
110796
110802
110787
110754
110708
110651
110582
110508
110448
110385
110331
110266
110208
110171
110128
110080
110030
109980
109936
109900
109831
109732
109638
109547
109447
109303
109160
109012
108855
108693
108508
108314
108104
107872
107659
107450
107267
107081
106907
106753
106629
106527
106466
106439
106463
106555
106694
106919
107210
107594
108073
108633
109292
110022
110865
111709
112658
113696
114749
115740
116653
117563
118418
119147
119763
120272
120499
120485
120363
101568
101568
101570
101574
101581
101591
101603
101618
101635
101655
101678
101703
101730
101760
101790
101822
101855
101888
101922
101957
101992
102027
102063
102099
102137
102176
102217
102259
102301
102343
102384
102424
102463
102500
102534
102564
102589
102606
102615
102615
102605
102587
102560
102524
102480
102429
102371
102307
102237
102162
102081
101996
101907
101815
101721
101626
101531
101437
101346
101258
101175
101099
101029
100968
100917
100877
100848
100831
100828
100838
100863
100902
100956
101025
101108
101206
101318
101446
101590
101750
101924
102114
102317
102534
102763
103003
103252
103511
103778
104053
104336
104625
104919
105220
105522
105825
106127
106427
106721
107008
107284
107549
107799
108030
108244
108435
108604
108748
108864
108958
109031
109081
109109
109123
109122
109109
109087
109064
109041
109038
109025
109029
109054
109061
109072
109100
109139
109169
109187
109203
109233
109249
109235
109220
109198
109175
109110
109033
108960
108875
108800
108692
108564
108438
108281
108141
107999
107866
107735
107605
107500
107414
107344
107310
107297
107342
107444
107596
107832
108127
108523
108995
109565
110197
110916
111726
112519
113403
114340
115275
116131
116865
117612
118297
118825
119198
119582
119545
119324
119031
102271
102270
102271
102273
102277
102284
102293
102303
102316
102331
102348
102365
102384
102404
102425
102447
102469
102491
102512
102532
102552
102571
102589
102607
102626
102647
102668
102690
102712
102733
102753
102771
102788
102802
102812
102817
102815
102806
102788
102761
102726
102682
102630
102569
102500
102423
102340
102250
102153
102051
101943
101831
101714
101594
101471
101348
101224
101101
100981
100864
100752
100646
100547
100457
100377
100308
100249
100204
100171
100153
100148
100157
100181
100221
100275
100342
100423
100518
100629
100755
100896
101052
101224
101407
101604
101812
102028
102254
102490
102732
102984
103242
103503
103770
104040
104312
104584
104854
105121
105382
105634
105875
106104
106316
106513
106693
106854
106996
107115
107213
107293
107358
107410
107451
107479
107504
107526
107544
107571
107617
107665
107707
107783
107878
107960
108044
108144
108253
108349
108433
108524
108615
108682
108738
108788
108839
108855
108851
108845
108839
108840
108820
108770
108719
108653
108587
108520
108442
108369
108296
108246
108195
108164
108152
108163
108222
108333
108501
108745
109042
109451
109914
110486
111087
111784
112550
113294
114109
114942
115761
116466
117045
117614
118090
118403
118522
118600
118440
117905
117646
102970
102969
102968
102968
102970
102974
102978
102984
102991
103000
103009
103020
103032
103044
103055
103066
103076
103085
103093
103099
103104
103106
103107
103107
103108
103109
103111
103113
103114
103114
103113
103110
103103
103093
103078
103057
103029
102992
102948
102895
102835
102765
102687
102601
102506
102404
102295
102178
102055
101926
101791
101650
101505
101357
101207
101055
100902
100750
100601
100456
100315
100181
100054
99935.7
99827.5
99729.9
99643.6
99569.3
99507.9
99460.4
99426.5
99406.9
99402.1
99412.9
99439.1
99478.2
99530.7
99595.3
99674.1
99767.2
99875.1
99997.1
100138
100289
100453
100629
100815
101010
101215
101427
101648
101877
102110
102348
102590
102832
103075
103317
103555
103791
104018
104237
104447
104642
104827
104993
105142
105280
105398
105501
105591
105666
105732
105802
105859
105911
105978
106046
106112
106195
106305
106406
106519
106667
106821
106971
107130
107298
107466
107624
107778
107937
108079
108199
108318
108439
108536
108602
108662
108730
108800
108877
108912
108940
108961
108968
108974
108961
108957
108949
108952
108941
108952
108963
108997
109070
109187
109371
109626
109937
110354
110805
111369
111942
112610
113317
114005
114739
115466
116175
116726
117152
117505
117764
117819
117769
117582
117117
116367
116194
103649
103647
103645
103643
103642
103642
103643
103644
103646
103648
103651
103653
103656
103658
103659
103659
103658
103655
103651
103643
103633
103619
103604
103587
103569
103552
103535
103518
103499
103478
103455
103428
103397
103362
103323
103277
103223
103160
103090
103012
102926
102832
102728
102616
102496
102368
102233
102090
101941
101785
101623
101456
101283
101108
100930
100750
100570
100391
100214
100042
99873.9
99712.6
99559.1
99414.6
99279.8
99155.9
99042.9
98941.3
98852.3
98777.2
98716
98668.3
98635.1
98616.4
98613.8
98625.6
98651
98689.1
98739.1
98802.8
98877.6
98969.2
99075.7
99196.3
99329.4
99474.7
99631.6
99797.9
99973.5
100159
100351
100552
100758
100969
101184
101402
101619
101837
102050
102261
102467
102661
102855
103033
103201
103361
103500
103630
103750
103852
103950
104038
104113
104198
104289
104367
104458
104577
104694
104813
104961
105120
105282
105473
105679
105888
106107
106330
106556
106779
106990
107212
107421
107604
107787
107970
108141
108278
108400
108540
108685
108835
108960
109069
109172
109254
109337
109394
109468
109527
109580
109620
109668
109707
109764
109851
109975
110174
110438
110775
111195
111641
112192
112734
113370
114016
114622
115277
115886
116448
116847
117132
117224
117279
117073
116915
116528
115813
115063
114651
104291
104288
104285
104282
104279
104275
104272
104268
104265
104261
104256
104250
104243
104236
104227
104217
104205
104190
104172
104152
104127
104099
104068
104034
103999
103964
103929
103892
103854
103813
103767
103717
103661
103602
103537
103467
103388
103302
103208
103106
102995
102876
102747
102611
102466
102313
102153
101985
101810
101629
101441
101248
101050
100849
100645
100439
100233
100029
99826.2
99628
99435
99248.4
99069.7
98900
98740
98591
98453.4
98327.1
98213.2
98112.8
98026.5
97953.7
97894.6
97848.8
97817.7
97801.3
97798.9
97811
97834.8
97872.5
97917.7
97980.8
98058.3
98148.9
98252.9
98370.3
98499
98638.7
98787.7
98946.3
99112
99286.6
99466.7
99652.2
99842.2
100035
100229
100422
100616
100803
100991
101168
101342
101509
101660
101809
101945
102067
102187
102292
102391
102491
102579
102674
102790
102904
103034
103174
103322
103482
103665
103868
104081
104311
104563
104821
105085
105359
105636
105911
106176
106450
106716
106957
107199
107439
107669
107871
108054
108259
108471
108693
108892
109085
109265
109426
109583
109718
109872
109989
110091
110188
110276
110342
110426
110531
110669
110885
111155
111518
111935
112383
112918
113433
114028
114626
115107
115710
116176
116565
116749
116935
116756
116619
116227
115888
115337
114575
113796
113163
104881
104879
104875
104870
104864
104857
104849
104841
104832
104822
104809
104796
104781
104764
104745
104724
104700
104674
104644
104610
104573
104531
104485
104436
104385
104333
104280
104226
104169
104107
104041
103968
103889
103805
103716
103621
103519
103410
103294
103170
103037
102894
102742
102582
102414
102237
102052
101861
101662
101457
101245
101028
100806
100581
100353
100123
99893.9
99665.8
99440.2
99218.6
99002.3
98792.5
98590.8
98398
98215.1
98043
97882.4
97733.6
97597.5
97474.5
97364.9
97268.3
97185.3
97116.1
97060.7
97019.1
96990.9
96976.7
96975.4
96986.1
97009.7
97045.7
97096.1
97160.7
97238.5
97330.1
97434
97548.8
97673.6
97808.3
97949.6
98098.9
98254.9
98415.4
98582.5
98750.6
98922.6
99093.7
99266.4
99434.2
99602
99764.7
99920.8
100075
100217
100356
100486
100604
100723
100832
100935
101044
101147
101252
101386
101527
101674
101840
102021
102217
102434
102670
102925
103192
103483
103783
104083
104401
104719
105034
105348
105663
105974
106266
106556
106849
107128
107382
107624
107883
108150
108437
108702
108975
109228
109465
109692
109913
110131
110294
110450
110602
110733
110835
110952
111083
111246
111479
111755
112131
112544
112993
113512
114004
114532
115106
115468
115976
116313
116534
116416
116554
116155
115828
115299
114763
114047
113190
112352
111580
105407
105404
105400
105393
105385
105374
105363
105350
105335
105319
105300
105279
105256
105229
105200
105168
105134
105095
105053
105007
104957
104903
104844
104782
104715
104647
104576
104504
104429
104349
104263
104170
104071
103965
103854
103736
103612
103481
103343
103198
103045
102881
102708
102526
102336
102137
101930
101716
101495
101268
101035
100796
100553
100306
100056
99805.6
99555.1
99305.7
99059.3
98816.9
98579.9
98350
98128
97915.2
97712.7
97520.4
97339.2
97170.1
97013.9
96870.5
96739.7
96621.4
96515.6
96424.1
96346.7
96283.4
96233.3
96196.2
96171.5
96158.7
96159.6
96173.2
96199.8
96241.1
96296.4
96364.5
96445.4
96537.7
96641.1
96753.8
96874.4
97001.2
97135.8
97274.1
97418.3
97565.1
97714.7
97865.8
98017.6
98168.9
98317.6
98465.5
98606.3
98747
98880.8
99009.3
99134.3
99251.2
99369.3
99481.2
99591.4
99709.2
99827.3
99964.1
100098
100251
100416
100603
100810
101033
101279
101545
101830
102130
102451
102780
103112
103464
103814
104161
104515
104861
105205
105540
105866
106200
106524
106817
107110
107411
107727
108063
108387
108729
109045
109355
109656
109952
110209
110421
110643
110838
111007
111163
111320
111486
111681
111926
112212
112590
112999
113447
113947
114416
114860
115387
115669
116072
116253
116375
115962
116025
115477
114928
114276
113517
112664
111715
110830
109856
105854
105852
105847
105839
105829
105816
105801
105784
105764
105741
105716
105687
105656
105620
105582
105540
105494
105444
105391
105333
105271
105205
105134
105059
104979
104895
104809
104719
104625
104528
104424
104313
104196
104072
103941
103805
103661
103509
103350
103185
103013
102832
102640
102439
102231
102013
101786
101553
101311
101064
100811
100552
100290
100024
99755.6
99486.7
99218
98950.8
98686.6
98426.6
98172.6
97925.8
97686.7
97456.9
97237.1
97027.3
96828.5
96641.9
96467.5
96305.7
96156.2
96019.4
95894.8
95783.7
95686.4
95603.5
95533.4
95476
95431.2
95398.3
95378.6
95372.7
95379.8
95401.3
95436.9
95484.7
95545.3
95617.5
95700.5
95792.1
95892.4
95999.6
96114.1
96234
96357.8
96485.2
96614.5
96747.9
96880.6
97015.2
97148
97281
97409.4
97536.9
97662.7
97782.9
97901.6
98016.9
98134.3
98249
98365.8
98492.5
98628.3
98767.5
98916.7
99081.6
99265.9
99472.2
99697.5
99942.6
100213
100503
100810
101137
101479
101829
102187
102562
102936
103307
103684
104053
104420
104784
105135
105496
105853
106187
106513
106834
107200
107570
107954
108341
108715
109092
109461
109808
110097
110380
110660
110882
111087
111306
111511
111718
111945
112207
112506
112884
113283
113731
114188
114634
115010
115462
115662
115985
115999
115944
115528
115284
114631
113900
113123
112224
111226
110347
109337
108167
106209
106209
106203
106195
106184
106171
106153
106132
106108
106079
106047
106011
105971
105927
105879
105827
105772
105712
105648
105579
105506
105428
105346
105259
105167
105070
104969
104863
104753
104638
104517
104390
104257
104117
103971
103817
103656
103487
103310
103128
102940
102743
102536
102319
102095
101860
101617
101366
101108
100844
100574
100299
100020
99738.2
99454.3
99170
98886.4
98604.7
98326.3
98052.3
97784
97523
97269.7
97025.2
96790.7
96566
96352.2
96151.1
95962.2
95784.5
95619.5
95467
95326.5
95199.4
95086.3
94985.9
94898.6
94823.9
94761.7
94712
94676.1
94653.5
94644.8
94650.2
94668.6
94699.2
94742.6
94797.4
94861.7
94934.8
95015.9
95104.9
95200.4
95301.3
95405.8
95515.2
95626.6
95743
95860.1
95978.3
96096.8
96215.9
96332.9
96450.2
96567.7
96681.7
96796.2
96907.8
97027.4
97148.4
97280.3
97407.8
97541.9
97689.5
97850.5
98028.9
98230.3
98451.3
98690.7
98954.2
99242.4
99549.7
99873.9
100220
100576
100940
101317
101705
102094
102478
102865
103250
103630
104003
104371
104746
105121
105499
105839
106166
106559
106952
107386
107805
108232
108664
109088
109463
109807
110165
110475
110724
110977
111251
111514
111762
112016
112301
112619
112996
113384
113819
114230
114639
114953
115339
115478
115712
115549
115220
114872
114337
113558
112735
111857
110863
109739
108842
107810
106628
106422
106423
106417
106409
106398
106383
106365
106343
106316
106284
106248
106206
106160
106109
106053
105994
105930
105863
105791
105714
105633
105546
105455
105359
105257
105150
105038
104921
104798
104670
104536
104396
104251
104099
103940
103774
103601
103420
103233
103040
102840
102631
102413
102186
101950
101704
101448
101186
100916
100640
100358
100071
99781
99488.1
99193.4
98899.2
98605.1
98313.2
98024.8
97740.7
97462.3
97191.3
96927.4
96672.5
96427.8
96192.8
95969.1
95758.8
95559.2
95369
95193.4
95029.8
94878.3
94739.3
94613.4
94500
94399.8
94312.5
94237.5
94176.1
94128.4
94093.9
94073.2
94066.3
94071.4
94088.6
94118.2
94158.2
94207.2
94265.1
94330.9
94404.8
94484.4
94568.7
94656.9
94750.8
94847.8
94948.7
95051.2
95154.6
95259.9
95366.9
95473.5
95581.6
95691.3
95801.2
95914.2
96038.4
96149
96268.3
96393
96524
96665.5
96819.9
96989
97177.1
97388.1
97618.4
97868.6
98143.9
98442.2
98759.4
99093.9
99447.2
99811.7
100185
100568
100959
101352
101739
102124
102513
102894
103262
103634
104010
104394
104794
105143
105482
105867
106260
106709
107144
107624
108094
108547
108953
109373
109772
110093
110382
110695
111010
111319
111604
111891
112195
112535
112905
113278
113698
114059
114423
114696
115014
115101
115185
114826
114262
113913
113206
112352
111464
110531
109466
108263
107123
106280
105189
106538
106542
106536
106528
106517
106504
106485
106463
106434
106401
106362
106316
106265
106209
106147
106082
106012
105938
105860
105778
105691
105599
105501
105398
105290
105177
105056
104929
104797
104659
104516
104366
104211
104050
103883
103709
103528
103340
103146
102945
102737
102521
102295
102060
101815
101561
101298
101027
100749
100465
100175
99880.5
99582.7
99282.2
98981.1
98678.9
98377.6
98078.8
97783.6
97492.5
97207.3
96929.2
96658.4
96396.8
96146.1
95904.3
95674.3
95456.1
95248.1
95051.1
94867.4
94696.2
94536.6
94389.2
94254.1
94131.7
94022.4
93926.2
93842.3
93772.7
93716.3
93673.1
93643.4
93627
93622
93628.8
93647.2
93675.3
93711.7
93757.4
93811.1
93871.5
93937.1
94007.9
94083.5
94164.9
94249.6
94337.2
94427
94518.4
94612.3
94709.2
94806.9
94908.4
95009.5