/*--------------------------------*- C++ -*----------------------------------*\
| =========                 |                                                 |
| \\      /  F ield         | OpenFOAM: The Open Source CFD Toolbox           |
|  \\    /   O peration     | Version:  dev                                   |
|   \\  /    A nd           | Web:      http://www.openfoam.org               |
|    \\/     M anipulation  |                                                 |
\*---------------------------------------------------------------------------*/
FoamFile
{
    version     2.0;
    format      ascii;
    class       volScalarField;
    object      p_0;
    location    "9.119";
}
// * * * * * * * * * * * * * * * * * * * * * * * * * * * * * * * * * * * * * //

dimensions      [1 -1 -2 0 0 0 0];

internalField   nonuniform List<scalar> 
12225
(
100090
100183
100326
100504
100692
100891
101084
101274
101446
101608
101741
101864
101952
102033
102073
102109
102086
102094
100091
100188
100329
100507
100694
100893
101085
101275
101447
101609
101742
101864
101951
102032
102073
102106
102070
102122
100099
100196
100336
100512
100698
100896
101087
101277
101448
101609
101741
101862
101950
102026
102072
102093
102080
102096
100109
100207
100346
100520
100704
100901
101091
101279
101449
101608
101740
101858
101947
102017
102066
102080
102088
102078
100122
100222
100359
100531
100713
100908
101096
101282
101450
101606
101738
101851
101941
102006
102058
102070
102098
102085
100140
100241
100376
100545
100724
100916
101102
101284
101452
101602
101734
101842
101932
101993
102045
102060
102085
102073
100162
100262
100396
100561
100738
100924
101109
101286
101452
101597
101726
101829
101917
101975
102023
102041
102060
102050
100189
100286
100418
100578
100752
100934
101115
101287
101450
101590
101715
101814
101898
101954
101997
102017
102029
102024
100218
100310
100440
100595
100767
100943
101121
101288
101446
101582
101703
101798
101877
101932
101971
101991
101998
101993
100249
100340
100467
100617
100784
100954
101128
101288
101439
101571
101685
101776
101849
101901
101935
101954
101958
101951
100285
100375
100499
100641
100803
100966
101132
101285
101428
101552
101659
101744
101810
101857
101886
101901
101903
101894
100337
100416
100533
100669
100821
100976
101131
101276
101407
101522
101619
101697
101755
101796
101819
101829
101827
101814
100386
100459
100568
100695
100836
100980
101122
101254
101373
101475
101561
101628
101678
101711
101728
101731
101723
101704
100434
100498
100596
100712
100840
100969
101094
101211
101313
101402
101473
101529
101567
101591
101599
101595
101580
101555
100458
100518
100604
100707
100817
100928
101033
101130
101215
101286
101342
101383
101409
101421
101420
101407
101384
101352
100463
100502
100572
100656
100745
100833
100916
100991
101055
101107
101146
101171
101183
101183
101171
101148
101116
101076
100384
100417
100466
100525
100588
100651
100709
100761
100804
100836
100857
100866
100864
100851
100827
100795
100754
100706
100249
100245
100263
100293
100329
100367
100403
100434
100458
100473
100478
100474
100459
100435
100402
100361
100313
100259
100017
99997
99992.6
100000
100016
100035
100054
100069
100080
100082
100076
100062
100038
100007
99967.3
99921
99869.1
99811.5
99776.1
99734.3
99711.6
99704
99706
99712.7
99720.2
99725.4
99726
99720.1
99706.7
99685.6
99656.9
99620.9
99578.1
99529.1
99475
99416
99541
99487.7
99452.7
99434.5
99427.3
99425.8
99425.5
99423.3
99417
99405.3
99387
99361.8
99329.8
99291.3
99246.8
99196.5
99141.7
99082.3
99332.3
99276.2
99234
99208
99193.9
99185.9
99179.7
99172.1
99161.1
99145.2
99123.6
99095.8
99061.8
99021.9
98976.4
98925.8
98870.9
98811.8
99164
99106.8
99059.6
99027.8
99007.8
98994.5
98983.6
98972
98957.7
98939
98915.1
98885.5
98850.2
98809.6
98763.7
98713.1
98658.3
98599.8
99042
98978.7
98926.8
98890.4
98865.8
98848.2
98833.5
98818.8
98801.8
98781.2
98755.8
98725.1
98689.1
98648
98602
98551.5
98497.1
98439
98958.1
98886.8
98830.2
98790.1
98762.2
98741.4
98723.8
98706.4
98687.2
98664.9
98638.3
98607
98570.7
98529.3
98483.3
98432.9
98378.8
98321.2
98899.9
98823.3
98763.1
98720
98689.6
98666.6
98646.8
98627.6
98606.8
98583.1
98555.5
98523.6
98486.9
98445.5
98399.5
98349.3
98295.4
98238.3
98865.1
98782.2
98719.1
98673.8
98641.5
98616.8
98595.6
98575
98553.2
98528.7
98500.4
98467.9
98430.9
98389.3
98343.3
98293.2
98239.4
98182.6
98846.6
98758.5
98692.7
98645.6
98611.9
98586
98563.8
98542.4
98520
98494.9
98466.2
98433.3
98396
98354.3
98308.3
98258.2
98204.5
98147.8
98839.7
98747.7
98679.1
98630.6
98595.8
98569.2
98546.4
98524.6
98501.7
98476.3
98447.4
98414.3
98376.8
98335
98288.9
98238.8
98185.2
98128.4
98840.9
98745.9
98675.3
98625.7
98590.1
98563
98539.9
98517.7
98494.6
98469.1
98440
98406.8
98369.3
98327.4
98281.3
98231.2
98177.5
98120.7
100274
100276
100282
100291
100305
100322
100343
100368
100397
100430
100466
100506
100550
100597
100648
100703
100761
100823
100887
100956
101027
101101
101178
101257
101339
101424
101510
101599
101688
101778
101866
101954
102038
102118
102193
102265
102333
102396
102456
102512
102564
102612
102652
102681
102711
102738
102761
102780
102795
102806
102813
102819
102821
102820
102819
102821
102828
102839
102853
102871
102896
102929
102970
103022
103086
103162
103252
103356
103475
103610
103762
103930
104116
104320
104543
104785
105046
105327
105627
105948
106288
106648
107027
107425
107842
108277
108729
109197
109681
110181
110692
111213
111744
112282
112824
113370
113914
114455
114989
115512
116020
116509
116974
117410
117813
118177
118500
118778
119008
119190
119324
119410
119449
119444
119393
119298
119163
118988
118773
118526
118260
117988
117717
117448
117172
116886
116599
116316
116040
115774
115517
115264
115012
114756
114499
114243
113987
113722
113443
113154
112858
112548
112225
111890
111534
111176
110828
110493
110184
109899
109644
109427
109254
109130
109071
109088
109177
109347
109612
109972
110434
110996
111675
112551
113579
114795
116154
117673
119362
121170
123072
124956
126769
128489
130099
131532
132735
133613
134142
134243
100320
100322
100327
100337
100350
100367
100388
100413
100441
100473
100509
100548
100590
100637
100686
100739
100795
100855
100918
100984
101053
101125
101200
101278
101358
101441
101525
101611
101698
101785
101872
101958
102041
102120
102196
102268
102335
102397
102455
102510
102559
102603
102642
102673
102701
102723
102744
102762
102778
102789
102793
102797
102802
102802
102796
102791
102793
102800
102812
102829
102852
102882
102921
102971
103033
103106
103194
103295
103411
103543
103691
103857
104039
104240
104459
104697
104955
105231
105527
105843
106179
106534
106908
107301
107712
108141
108587
109049
109526
110017
110520
111035
111559
112088
112622
113159
113695
114227
114752
115266
115766
116247
116705
117136
117534
117896
118216
118491
118720
118900
119033
119118
119156
119150
119099
119005
118873
118703
118493
118249
117986
117721
117461
117207
116949
116678
116402
116131
115869
115617
115373
115132
114891
114646
114397
114149
113904
113656
113392
113116
112833
112535
112222
111895
111550
111202
110860
110539
110238
109962
109716
109508
109342
109225
109170
109188
109285
109451
109714
110076
110538
111101
111772
112664
113676
114878
116222
117738
119412
121196
123069
124918
126704
128383
129959
131365
132547
133397
133909
133993
100408
100410
100415
100424
100437
100453
100473
100497
100523
100554
100588
100625
100665
100709
100756
100807
100860
100917
100977
101040
101106
101175
101246
101321
101397
101476
101557
101639
101721
101804
101887
101970
102050
102129
102203
102273
102338
102399
102454
102504
102549
102588
102621
102649
102670
102690
102709
102726
102740
102751
102755
102751
102747
102742
102735
102728
102725
102725
102731
102743
102761
102788
102823
102869
102926
102995
103077
103173
103284
103410
103552
103711
103887
104081
104293
104524
104774
105042
105330
105637
105964
106309
106673
107056
107456
107873
108307
108756
109220
109696
110188
110686
111193
111706
112224
112743
113261
113775
114282
114778
115260
115723
116164
116581
116970
117326
117642
117916
118143
118323
118455
118539
118578
118574
118523
118427
118298
118134
117937
117713
117470
117220
116971
116727
116494
116266
116030
115783
115546
115319
115098
114881
114660
114437
114207
113974
113744
113514
113286
113039
112781
112506
112217
111904
111577
111251
110929
110626
110346
110087
109854
109662
109511
109405
109364
109393
109488
109657
109918
110283
110750
111322
112005
112878
113882
115063
116393
117890
119520
121263
123058
124836
126571
128176
129671
131002
132121
132919
133380
133427
100532
100534
100538
100546
100558
100573
100591
100613
100638
100666
100697
100732
100770
100811
100855
100902
100952
101005
101062
101121
101183
101247
101315
101385
101457
101530
101605
101681
101758
101836
101913
101990
102066
102141
102213
102281
102345
102403
102455
102501
102539
102570
102597
102618
102634
102649
102663
102674
102680
102682
102680
102673
102663
102651
102639
102628
102619
102615
102615
102620
102632
102652
102682
102721
102771
102833
102907
102996
103098
103216
103350
103500
103667
103851
104053
104274
104512
104770
105046
105341
105654
105986
106336
106704
107090
107491
107908
108340
108786
109244
109713
110191
110677
111169
111664
112161
112655
113145
113627
114097
114553
114991
115407
115798
116162
116499
116805
117074
117300
117480
117614
117700
117743
117742
117696
117613
117494
117338
117159
116967
116763
116544
116316
116081
115849
115645
115463
115267
115068
114871
114676
114492
114312
114125
113926
113719
113511
113306
113112
112913
112695
112454
112198
111918
111616
111315
111021
110749
110491
110262
110051
109880
109751
109660
109641
109675
109775
109946
110207
110571
111043
111631
112320
113185
114174
115337
116644
118094
119669
121351
123047
124718
126358
127868
129237
130445
131441
132158
132528
132506
100684
100685
100689
100696
100707
100720
100737
100757
100781
100807
100836
100867
100902
100939
100979
101023
101069
101117
101169
101223
101280
101339
101401
101465
101531
101598
101667
101737
101807
101878
101949
102019
102089
102158
102226
102291
102351
102406
102456
102497
102532
102560
102576
102586
102594
102599
102603
102605
102602
102594
102583
102568
102552
102533
102515
102497
102482
102471
102463
102461
102466
102478
102499
102530
102571
102623
102688
102766
102859
102966
103089
103227
103382
103554
103744
103951
104176
104419
104681
104960
105257
105573
105905
106255
106621
107003
107400
107810
108233
108667
109112
109566
110026
110492
110960
111430
111897
112359
112813
113256
113684
114094
114482
114845
115181
115485
115760
116007
116219
116394
116528
116618
116664
116664
116633
116570
116470
116337
116183
116018
115850
115668
115475
115281
115074
114869
114688
114541
114396
114242
114080
113940
113817
113694
113547
113371
113197
113034
112879
112728
112570
112372
112150
111921
111661
111390
111130
110900
110670
110475
110299
110157
110054
109986
109986
110029
110139
110310
110572
110929
111400
111999
112694
113552
114524
115682
116950
118334
119851
121444
123024
124560
126064
127461
128648
129716
130519
131134
131379
131232
100858
100858
100862
100868
100877
100890
100905
100924
100945
100969
100995
101023
101055
101088
101124
101162
101203
101246
101292
101341
101391
101444
101499
101556
101615
101675
101737
101800
101863
101927
101990
102054
102116
102178
102239
102298
102353
102404
102447
102482
102510
102528
102538
102542
102541
102536
102529
102519
102505
102487
102467
102443
102418
102392
102366
102341
102318
102297
102281
102270
102265
102267
102278
102298
102328
102369
102422
102489
102569
102663
102773
102898
103039
103197
103372
103563
103773
103999
104243
104504
104783
105079
105391
105719
106064
106423
106795
107180
107577
107984
108400
108825
109256
109691
110129
110567
111003
111434
111857
112269
112667
113047
113407
113744
114054
114334
114580
114795
114977
115127
115245
115334
115380
115385
115364
115313
115233
115134
115016
114876
114737
114592
114439
114280
114140
113989
113835
113701
113589
113483
113372
113268
113184
113123
113078
112944
112814
112698
112590
112490
112392
112256
112070
111890
111682
111459
111246
111064
110880
110720
110584
110469
110410
110362
110380
110432
110557
110729
110998
111351
111814
112410
113111
113961
114910
116048
117272
118587
120037
121513
122970
124348
125696
126930
127928
128843
129402
129892
129971
129691
101045
101046
101048
101054
101063
101073
101087
101103
101122
101143
101166
101192
101220
101249
101281
101314
101350
101389
101429
101471
101514
101559
101606
101655
101706
101758
101812
101867
101922
101978
102034
102089
102144
102197
102250
102301
102349
102392
102428
102455
102474
102483
102485
102480
102470
102455
102437
102416
102391
102363
102332
102300
102265
102230
102195
102160
102126
102096
102069
102047
102031
102022
102020
102028
102045
102073
102113
102166
102231
102311
102406
102516
102641
102782
102940
103114
103305
103513
103738
103979
104237
104511
104801
105106
105426
105760
106106
106463
106831
107210
107596
107988
108387
108789
109194
109599
110002
110398
110788
111167
111532
111880
112210
112518
112800
113056
113283
113476
113635
113761
113857
113925
113961
113970
113955
113911
113849
113776
113689
113583
113473
113369
113273
113165
113056
112972
112887
112806
112732
112675
112632
112566
112500
112472
112501
112437
112366
112298
112239
112196
112158
112085
111962
111821
111668
111513
111362
111229
111102
110983
110893
110817
110786
110767
110804
110868
111007
111185
111456
111811
112269
112852
113553
114387
115319
116399
117550
118818
120181
121535
122847
124074
125236
126249
127075
127811
128155
128464
128347
128000
101238
101239
101242
101247
101254
101263
101275
101289
101305
101324
101344
101367
101391
101418
101446
101476
101508
101541
101575
101610
101646
101683
101721
101760
101801
101844
101889
101935
101982
102030
102077
102124
102169
102213
102257
102298
102336
102369
102395
102413
102422
102422
102415
102401
102381
102357
102329
102297
102261
102223
102182
102139
102094
102048
102002
101956
101911
101869
101830
101796
101767
101744
101730
101723
101726
101740
101765
101802
101853
101916
101994
102086
102195
102318
102457
102611
102782
102970
103174
103393
103628
103879
104145
104425
104718
105025
105342
105670
106008
106355
106709
107070
107435
107803
108173
108543
108911
109274
109629
109975
110308
110625
110925
111203
111457
111687
111890
112064
112208
112323
112407
112460
112487
112493
112480
112447
112399
112339
112276
112210
112138
112068
112005
111966
111915
111865
111831
111808
111795
111801
111831
111822
111792
111799
111846
111871
111850
111828
111818
111836
111864
111849
111808
111723
111630
111549
111462
111390
111312
111244
111200
111169
111165
111182
111231
111317
111461
111653
111925
112279
112737
113303
113999
114804
115722
116734
117782
118991
120240
121484
122643
123697
124628
125424
126084
126580
126808
126848
126550
126162
101430
101432
101434
101438
101444
101452
101462
101474
101488
101504
101521
101541
101563
101586
101611
101636
101662
101689
101717
101746
101773
101802
101832
101863
101895
101928
101964
102001
102039
102078
102116
102154
102190
102224
102257
102288
102316
102337
102352
102358
102357
102348
102331
102308
102279
102244
102206
102163
102117
102068
102016
101962
101905
101847
101789
101731
101673
101618
101566
101518
101476
101440
101410
101389
101377
101376
101385
101406
101439
101486
101546
101621
101710
101814
101933
102067
102216
102381
102562
102758
102969
103195
103435
103691
103956
104233
104521
104818
105124
105438
105760
106086
106418
106753
107088
107422
107754
108082
108403
108715
109015
109302
109572
109823
110052
110258
110438
110593
110722
110826
110903
110952
110978
110984
110974
110950
110918
110875
110829
110793
110756
110731
110701
110680
110686
110696
110708
110726
110754
110810
110895
110957
110992
111052
111135
111224
111263
111287
111324
111398
111504
111545
111577
111572
111555
111548
111524
111514
111491
111475
111482
111497
111521
111574
111634
111745
111893
112100
112378
112734
113193
113739
114426
115189
116087
117038
117996
119099
120217
121337
122338
123161
123879
124504
124967
125182
125375
125081
124599
124095
101615
101616
101618
101622
101627
101634
101642
101652
101664
101677
101692
101709
101727
101746
101766
101787
101808
101830
101852
101873
101894
101915
101937
101958
101981
102006
102033
102061
102091
102121
102150
102178
102204
102229
102251
102271
102286
102296
102299
102294
102282
102262
102236
102203
102164
102120
102071
102017
101961
101900
101836
101769
101700
101630
101558
101487
101416
101347
101281
101219
101162
101111
101067
101031
101004
100987
100980
100984
101001
101031
101073
101129
101199
101284
101382
101494
101621
101762
101919
102091
102277
102477
102691
102917
103155
103403
103661
103927
104201
104482
104770
105063
105359
105660
105961
106260
106558
106851
107137
107416
107683
107938
108179
108402
108607
108791
108953
109092
109206
109298
109370
109419
109446
109458
109456
109441
109419
109394
109372
109359
109342
109346
109373
109389
109410
109458
109528
109602
109671
109753
109871
109994
110098
110215
110348
110495
110595
110678
110771
110886
111055
111166
111256
111340
111407
111473
111519
111564
111607
111651
111712
111767
111828
111909
111989
112120
112276
112497
112782
113140
113602
114132
114807
115521
116381
117271
118165
119142
120118
121085
121909
122506
123048
123485
123721
123686
123675
123177
122463
121882
101786
101788
101790
101793
101797
101803
101810
101818
101828
101839
101851
101864
101879
101894
101910
101927
101943
101959
101975
101990
102004
102017
102030
102043
102058
102074
102093
102113
102134
102156
102176
102195
102211
102225
102236
102245
102248
102246
102237
102221
102198
102168
102132
102088
102039
101984
101925
101860
101792
101719
101642
101563
101481
101397
101311
101226
101141
101058
100978
100902
100830
100764
100705
100654
100611
100578
100556
100544
100544
100557
100582
100620
100671
100737
100816
100907
101011
101128
101261
101406
101566
101740
101927
102125
102334
102553
102781
103016
103259
103508
103763
104024
104286
104551
104817
105083
105346
105606
105860
106106
106342
106568
106779
106975
107155
107318
107462
107586
107689
107771
107834
107881
107914
107932
107937
107938
107933
107921
107915
107929
107946
107959
108006
108078
108142
108214
108313
108436
108556
108680
108826
108995
109156
109318
109497
109695
109862
110000
110142
110305
110507
110698
110855
111016
111164
111295
111416
111524
111635
111749
111863
111954
112059
112159
112269
112409
112574
112812
113108
113473
113938
114455
115108
115776
116583
117402
118236
119081
119920
120729
121367
121777
122117
122319
122318
122060
121716
121083
120153
119674
101939
101941
101943
101946
101950
101955
101960
101967
101974
101983
101992
102002
102014
102025
102037
102048
102060
102071
102081
102090
102098
102105
102110
102116
102123
102131
102142
102154
102167
102180
102191
102200
102206
102209
102211
102208
102200
102187
102166
102139
102106
102066
102018
101965
101905
101839
101768
101692
101611
101526
101437
101344
101248
101151
101052
100953
100854
100757
100662
100571
100485
100404
100331
100265
100207
100159
100121
100093
100077
100072
100079
100099
100132
100178
100239
100310
100394
100489
100597
100716
100850
100995
101155
101325
101505
101696
101895
102100
102313
102531
102755
102984
103216
103449
103683
103916
104147
104374
104596
104812
105018
105215
105401
105572
105731
105872
105996
106106
106196
106270
106329
106371
106403
106432
106447
106455
106472
106483
106491
106519
106569
106613
106669
106763
106868
106977
107105
107247
107412
107582
107760
107967
108177
108375
108592
108832
109059
109250
109434
109644
109886
110138
110373
110599
110815
111007
111198
111377
111565
111746
111906
112040
112183
112302
112436
112584
112760
113016
113326
113711
114176
114683
115304
115936
116679
117412
118171
118884
119594
120230
120669
120921
121022
120996
120737
120375
119806
118930
117965
117432
102072
102074
102077
102079
102082
102086
102090
102095
102101
102107
102114
102120
102127
102135
102143
102150
102158
102164
102170
102174
102176
102176
102175
102174
102174
102176
102179
102184
102189
102193
102195
102194
102190
102183
102174
102161
102142
102118
102086
102049
102005
101955
101897
101832
101761
101684
101601
101513
101420
101322
101220
101115
101005
100895
100782
100670
100557
100446
100337
100233
100133
100038
99950.7
99870.7
99799.1
99736.6
99683.5
99640
99607.1
99585.8
99576.2
99577.8
99591.8
99618.2
99658.4
99711
99775.1
99850
99935.2
100030
100137
100257
100388
100531
100683
100845
101015
101193
101376
101566
101760
101960
102162
102365
102570
102774
102975
103174
103366
103554
103734
103902
104066
104214
104350
104477
104582
104677
104759
104821
104876
104918
104946
104979
105008
105025
105051
105087
105120
105162
105227
105302
105383
105490
105619
105757
105914
106083
106272
106473
106679
106916
107162
107395
107646
107915
108186
108426
108650
108904
109187
109492
109787
110071
110346
110602
110865
111115
111379
111616
111813
111999
112173
112312
112464
112623
112816
113086
113408
113821
114284
114791
115378
115973
116647
117292
117941
118547
119118
119550
119732
119883
119746
119523
119047
118578
117877
116914
116038
115262
102181
102183
102185
102188
102190
102194
102197
102201
102205
102208
102212
102216
102221
102225
102229
102232
102236
102238
102238
102238
102235
102230
102224
102218
102211
102206
102202
102200
102197
102192
102186
102176
102162
102145
102126
102103
102073
102038
101997
101950
101896
101834
101765
101690
101608
101519
101424
101324
101219
101109
100994
100876
100754
100630
100505
100379
100254
100130
100008
99890.6
99777.6
99670.2
99569.3
99475.9
99390.5
99314.1
99247
99189.3
99141.2
99104.2
99078.8
99064.4
99061.1
99068.7
99088.4
99120.4
99163.6
99218.5
99281.8
99355.7
99439.3
99533.2
99638.8
99754.6
99880.1
100016
100159
100309
100465
100628
100795
100966
101140
101316
101493
101669
101843
102014
102183
102343
102500
102646
102786
102917
103031
103141
103235
103316
103390
103447
103495
103537
103567
103599
103637
103669
103704
103755
103809
103871
103949
104044
104152
104273
104421
104581
104752
104945
105154
105376
105605
105861
106130
106391
106668
106962
107260
107534
107796
108088
108406
108756
109092
109432
109761
110082
110408
110727
111053
111321
111556
111794
112002
112163
112336
112514
112734
113018
113348
113779
114236
114746
115297
115858
116453
117025
117526
118069
118465
118680
118545
118665
118302
117921
117292
116679
115865
114951
114060
113136
102264
102267
102269
102271
102274
102276
102278
102281
102283
102285
102287
102289
102290
102291
102292
102291
102290
102288
102285
102280
102274
102265
102255
102243
102232
102220
102209
102199
102188
102175
102160
102143
102120
102095
102066
102032
101993
101948
101897
101840
101776
101704
101624
101537
101444
101343
101237
101125
101007
100885
100759
100628
100495
100358
100221
100083
99945.9
99810
99676.6
99547
99421.8
99302.1
99188.9
99083
98985
98895.4
98815.3
98744.3
98682.9
98631.7
98591.3
98561.3
98541.8
98533.3
98535.2
98548.5
98571.7
98605.6
98648.2
98700.4
98763
98833.8
98915.2
99007
99108
99218.5
99337.3
99462.7
99594.2
99731.6
99872.4
100017
100165
100314
100466
100615
100765
100911
101055
101192
101326
101453
101572
101686
101786
101881
101965
102035
102102
102156
102201
102243
102277
102312
102354
102397
102445
102506
102577
102656
102750
102859
102985
103122
103284
103461
103642
103850
104072
104304
104553
104817
105097
105378
105670
105984
106299
106592
106886
107203
107544
107925
108295
108687
109062
109439
109818
110195
110548
110836
111124
111405
111640
111841
112044
112254
112507
112802
113139
113570
114020
114524
115044
115564
116063
116589
116930
117408
117612
117645
117216
117286
116776
116236
115529
114749
113839
112874
111960
110944
102324
102327
102329
102331
102333
102335
102337
102338
102339
102340
102340
102339
102338
102336
102333
102329
102324
102318
102310
102301
102291
102279
102265
102250
102233
102216
102198
102181
102161
102140
102117
102091
102061
102028
101990
101947
101899
101844
101784
101717
101642
101560
101470
101373
101268
101157
101039
100915
100786
100652
100514
100372
100227
100080
99931.6
99782.7
99634.4
99487.5
99343.4
99202.8
99066.8
98936.4
98812.3
98695.6
98586.9
98486.1
98393.9
98310.9
98237.6
98173.9
98119.6
98075
98039.7
98014.9
98000.9
97998
98003.6
98018.3
98042
98073.9
98115.9
98166.7
98226.3
98296.2
98375.6
98463.1
98559
98661.5
98771
98885.4
99003.8
99124.6
99249.1
99374
99500.6
99626.8
99751.8
99875.7
99996.5
100115
100227
100336
100436
100534
100622
100704
100778
100843
100904
100954
101001
101045
101083
101124
101170
101222
101282
101354
101437
101529
101637
101759
101896
102048
102218
102399
102590
102808
103035
103271
103529
103795
104076
104367
104663
104985
105313
105619
105930
106255
106616
107009
107410
107834
108245
108668
109089
109504
109860
110185
110528
110829
111083
111345
111590
111838
112122
112424
112770
113189
113631
114121
114611
115077
115471
115970
116162
116534
116538
116431
115919
115788
115203
114503
113731
112794
111818
110870
109934
108770
102361
102364
102367
102369
102370
102372
102373
102373
102373
102373
102371
102368
102364
102359
102353
102345
102337
102327
102316
102303
102288
102272
102254
102235
102214
102191
102168
102143
102116
102087
102056
102021
101983
101941
101895
101844
101787
101723
101652
101576
101492
101401
101301
101194
101081
100959
100830
100696
100555
100410
100261
100108
99952.7
99795.2
99636.6
99477.9
99319.9
99163.6
99010.2
98860.3
98715.4
98576.2
98443.1
98317.2
98199.2
98088.6
97986.3
97893
97808.5
97733.3
97666.8
97609.9
97561.3
97522.1
97493.1
97474.9
97464.3
97462
97468.5
97483
97506.3
97539.3
97580.5
97631.3
97691.2
97758.7
97834.1
97916.5
98004.9
98097.6
98194.7
98294.6
98397.4
98501.9
98606.5
98711.2
98814.5
98918.3
99018.3
99117.2
99211.9
99303.6
99389.6
99471.4
99549.4
99619.7
99685
99745.6
99801.1
99849.7
99898.4
99945.2
99989
100038
100091
100150
100222
100304
100395
100499
100618
100751
100896
101057
101231
101413
101610
101829
102055
102290
102543
102805
103079
103364
103657
103976
104308
104632
104940
105250
105627
106021
106446
106881
107318
107772
108226
108644
109006
109391
109765
110070
110353
110673
110973
111259
111562
111875
112236
112640
113068
113535
113978
114401
114708
115128
115226
115483
115291
115009
114551
114163
113505
112713
111890
110896
109842
109002
107991
106791
102373
102381
102383
102384
102386
102387
102387
102387
102386
102384
102381
102376
102369
102361
102352
102341
102329
102315
102301
102284
102266
102246
102224
102200
102174
102146
102116
102085
102051
102014
101975
101932
101886
101835
101780
101719
101653
101580
101500
101415
101323
101224
101116
101001
100878
100747
100609
100464
100314
100159
99999.4
99836.7
99672.1
99505.6
99338.1
99170.8
99004.6
98840.5
98679.5
98522.3
98369.9
98223.3
98082.8
97949.1
97823
97704.3
97593.4
97491.4
97398
97313
97236.9
97169.2
97109.4
97058
97017.4
96984.5
96959.7
96942.9
96934.3
96933.9
96942.3
96959.5
96985.5
97020.4
97063.5
97113.8
97171.9
97236.5
97305.8
97379.4
97456.5
97537.4
97620.4
97704.9
97789
97874.3
97958.3
98043.4
98126.2
98207.1
98286.2
98362.3
98434.8
98504.5
98571.9
98633.5
98692.2
98748.5
98800.7
98849.4
98899.9
98949.5
98999.6
99055.1
99115
99183.5
99266
99356.4
99455.6
99569.3
99697.5
99837
99987.4
100153
100327
100509
100707
100919
101139
101365
101604
101857
102117
102381
102664
102971
103294
103635
103933
104224
104588
104968
105403
105831
106290
106760
107220
107626
108029
108458
108827
109143
109478
109840
110190
110509
110822
111154
111530
111920
112329
112766
113153
113522
113778
114103
114150
114235
113887
113350
112997
112395
111672
110870
110030
109023
107914
107044
106103
105025
102368
102375
102378
102380
102382
102384
102383
102381
102378
102376
102372
102365
102357
102346
102333
102320
102305
102289
102271
102252
102230
102207
102181
102153
102123
102091
102056
102017
101977
101933
101887
101837
101783
101726
101663
101595
101520
101440
101354
101261
101163
101057
100942
100819
100689
100551
100405
100253
100095
99932.2
99765.2
99596.2
99423.9
99250.4
99076.5
98903
98730.8
98561
98394.5
98231.9
98074.2
97922.2
97776.1
97636.7
97505.1
97380.7
97264.5
97157.6
97057.1
96964.5
96881.6
96807.2
96738.8
96678.8
96627.7
96584.2
96548.7
96521.1
96501.2
96490
96487.5
96493.4
96507.8
96530.7
96560.8
96597.8
96642
96691.8
96745.6
96803.9
96865.4
96930.5
96997.2
97064.5
97131.9
97200.8
97269.6
97338.4
97406
97471.3
97536.1
97599.2
97659.8
97719.3
97777.3
97831.8
97885.5
97937.1
97986.4
98036.2
98087.6
98139.5
98194.9
98255.3
98321.5
98396
98485.7
98582.1
98688.3
98808.4
98940.8
99083.8
99236.4
99400.4
99572
99751.9
99942.6
100143
100351
100562
100782
101017
101258
101496
101756
102043
102352
102684
102977
103270
103595
103940
104350
104759
105233
105695
106138
106554
107006
107428
107779
108127
108514
108901
109273
109621
109944
110293
110678
111048
111441
111837
112169
112484
112713
112916
112891
112763
112261
111629
111242
110562
109821
109025
108189
107211
106101
105053
104312
103368
102353
102359
102362
102367
102370
102374
102376
102376
102376
102370
102362
102353
102341
102327
102312
102295
102277
102259
102239
102218
102194
102168
102139
102108
102074
102038
101998
101955
101908
101859
101806
101750
101690
101626
101558
101484
101404
101319
101227
101129
101025
100913
100793
100665
100528
100384
100232
100074
99909.8
99742.2
99570.3
99394.8
99217.6
99038.9
98860.1
98682.2
98505.7
98331.8
98161.3
97994.7
97833.3
97677.5
97527.7
97384.8
97249.7
97121.9
97002
96892
96785
96688.2
96600.2
96519.7
96446.1
96379.9
96321.3
96270.3
96227.1
96191.9
96164.1
96145.2
96134.6
96132
96137.6
96151.3
96171.4
96198.1
96231.2
96269.1
96310.7
96356.7
96406.2
96457.7
96510.4
96563.9
96618.4
96674.5
96730.4
96785.5
96839.7
96892.5
96945.1
96997.3
97048.3
97099.3
97149.2
97197.2
97246.2
97293.9
97340.2
97389.3
97441.5
97496.1
97554.9
97619.5
97691
97774.1
97862.9
97963.5
98074.4
98197.6
98332.4
98476.5
98628
98788.2
98956.3
99130.1
99309.2
99495.1
99686.8
99880.6
100079
100290
100507
100723