/*--------------------------------*- C++ -*----------------------------------*\
| =========                 |                                                 |
| \\      /  F ield         | OpenFOAM: The Open Source CFD Toolbox           |
|  \\    /   O peration     | Version:  dev                                   |
|   \\  /    A nd           | Web:      http://www.openfoam.org               |
|    \\/     M anipulation  |                                                 |
\*---------------------------------------------------------------------------*/
FoamFile
{
    version     2.0;
    format      ascii;
    class       surfaceScalarField;
    object      phi;
    location    "9.119";
}
// * * * * * * * * * * * * * * * * * * * * * * * * * * * * * * * * * * * * * //

dimensions      [1 0 -1 0 0 0 0];

internalField   nonuniform List<scalar> 
24170
(
2.06466e-06
-7.66037e-07
1.17195e-06
-1.42897e-06
7.43187e-07
-1.76882e-06
6.16401e-07
-1.94458e-06
5.81909e-07
-1.90296e-06
6.45069e-07
-1.87768e-06
6.90633e-07
-1.73158e-06
8.51812e-07
-1.736e-06
9.71611e-07
-1.57835e-06
1.24788e-06
-1.6417e-06
1.37669e-06
-1.39232e-06
1.82259e-06
-1.63786e-06
1.96333e-06
-1.24299e-06
2.72171e-06
-1.81231e-06
2.6899e-06
-9.46902e-07
4.25511e-06
-2.49534e-06
3.61956e-06
-2.46248e-07
-5.79318e-06
8.58396e-06
3.92579e-06
-3.17975e-06
3.30525e-06
-3.31446e-06
2.79412e-06
-3.64121e-06
2.46734e-06
-3.87292e-06
2.2849e-06
-3.83556e-06
2.20576e-06
-3.78301e-06
2.23678e-06
-3.60977e-06
2.33334e-06
-3.55952e-06
2.43418e-06
-3.28109e-06
2.70935e-06
-3.41593e-06
2.92235e-06
-2.99468e-06
3.36593e-06
-3.38907e-06
3.70022e-06
-2.7895e-06
4.62334e-06
-3.88543e-06
4.78701e-06
-2.18831e-06
6.90428e-06
-5.62278e-06
6.19749e-06
-4.89559e-07
-1.17551e-05
1.12571e-05
4.59983e-06
-5.98889e-06
4.53076e-06
-5.99127e-06
4.37177e-06
-6.09157e-06
4.1781e-06
-6.13925e-06
3.99805e-06
-5.9669e-06
3.9587e-06
-5.89864e-06
3.90446e-06
-5.57395e-06
4.00398e-06
-5.52827e-06
4.07232e-06
-5.10373e-06
4.46341e-06
-5.42371e-06
4.55193e-06
-4.61132e-06
5.27142e-06
-5.51209e-06
5.29289e-06
-4.15129e-06
6.43075e-06
-6.25145e-06
6.47061e-06
-3.41347e-06
8.21165e-06
-8.46931e-06
8.00026e-06
-1.33863e-06
-1.45564e-05
9.80647e-06
4.83062e-06
-8.96133e-06
5.25025e-06
-9.39789e-06
5.29635e-06
-8.99539e-06
5.42397e-06
-8.93574e-06
5.33318e-06
-8.40355e-06
5.58412e-06
-8.47956e-06
5.50204e-06
-7.69019e-06
5.83734e-06
-7.87835e-06
5.81229e-06
-6.98184e-06
6.24932e-06
-7.60118e-06
6.27582e-06
-6.28786e-06
6.94446e-06
-7.69615e-06
6.99126e-06
-5.63786e-06
7.82334e-06
-8.41998e-06
8.2723e-06
-5.13203e-06
9.08646e-06
-1.04761e-05
1.11256e-05
-4.52354e-06
-1.55672e-05
1.1041e-05
5.23985e-06
-1.21841e-05
5.95484e-06
-1.33426e-05
5.91692e-06
-1.20627e-05
6.30267e-06
-1.22143e-05
6.20046e-06
-1.10418e-05
6.66912e-06
-1.14808e-05
6.59485e-06
-9.99225e-06
7.04353e-06
-1.05216e-05
7.00782e-06
-8.99662e-06
7.47623e-06
-9.96964e-06
7.56497e-06
-8.14917e-06
8.06804e-06
-9.85199e-06
8.41471e-06
-7.5304e-06
8.77311e-06
-1.02323e-05
9.75922e-06
-7.48603e-06
9.54792e-06
-1.15578e-05
1.14595e-05
-7.66304e-06
-1.47782e-05
9.5087e-06
5.79093e-06
-1.52684e-05
6.36227e-06
-1.74032e-05
6.30474e-06
-1.53385e-05
6.70807e-06
-1.57459e-05
6.65785e-06
-1.39316e-05
7.09575e-06
-1.46592e-05
7.1278e-06
-1.25753e-05
7.50726e-06
-1.32744e-05
7.66411e-06
-1.13561e-05
8.0406e-06
-1.23974e-05
8.42938e-06
-1.04422e-05
8.77904e-06
-1.19805e-05
9.47153e-06
-9.88035e-06
9.59288e-06
-1.19133e-05
1.06927e-05
-1.00479e-05
1.02688e-05
-1.25183e-05
1.18521e-05
-1.0556e-05
-1.39949e-05
9.83224e-06
6.42852e-06
-1.89391e-05
6.86293e-06
-2.1572e-05
6.87268e-06
-1.89013e-05
7.17322e-06
-1.93859e-05
7.22126e-06
-1.71085e-05
7.53896e-06
-1.78926e-05
7.73985e-06
-1.54864e-05
8.01526e-06
-1.60678e-05
8.41083e-06
-1.40878e-05
8.71739e-06
-1.48745e-05
9.2631e-06
-1.30015e-05
9.49612e-06
-1.40923e-05
1.02571e-05
-1.23897e-05
1.03288e-05
-1.36291e-05
1.12677e-05
-1.25235e-05
1.09496e-05
-1.36571e-05
1.19504e-05
-1.2929e-05
-1.43e-05
1.09549e-05
5.01866e-06
-2.16535e-05
5.30143e-06
-2.4656e-05
5.37841e-06
-2.16455e-05
5.54977e-06
-2.20593e-05
5.64853e-06
-1.95511e-05
5.81096e-06
-2.02349e-05
6.05137e-06
-1.77492e-05
6.22128e-06
-1.8114e-05
6.60103e-06
-1.62057e-05
6.77521e-06
-1.6662e-05
7.22043e-06
-1.49419e-05
7.38091e-06
-1.56463e-05
7.93427e-06
-1.42384e-05
8.00937e-06
-1.49197e-05
8.51873e-06
-1.41688e-05
8.48113e-06
-1.46924e-05
8.90852e-06
-1.4369e-05
-1.48108e-05
8.46381e-06
5.87499e-06
-2.47757e-05
6.08635e-06
-2.79951e-05
6.20972e-06
-2.47374e-05
6.37422e-06
-2.50072e-05
6.59503e-06
-2.23731e-05
6.75796e-06
-2.28202e-05
7.14043e-06
-2.03716e-05
7.3106e-06
-2.03636e-05
7.74838e-06
-1.85633e-05
7.91929e-06
-1.8616e-05
8.42468e-06
-1.70942e-05
8.58125e-06
-1.73384e-05
9.14847e-06
-1.62292e-05
9.2933e-06
-1.63993e-05
9.69283e-06
-1.58147e-05
9.7092e-06
-1.58837e-05
9.93916e-06
-1.57068e-05
-1.56365e-05
9.71872e-06
7.00879e-06
-2.82036e-05
7.16402e-06
-3.15917e-05
7.31461e-06
-2.81379e-05
7.409e-06
-2.81495e-05
7.67479e-06
-2.54735e-05
7.77562e-06
-2.55601e-05
8.25904e-06
-2.32873e-05
8.44413e-06
-2.2804e-05
8.94252e-06
-2.11391e-05
9.17955e-06
-2.07808e-05
9.74403e-06
-1.94353e-05
9.94775e-06
-1.91947e-05
1.04706e-05
-1.82828e-05
1.06656e-05
-1.80251e-05
1.10052e-05
-1.74893e-05
1.10521e-05
-1.71854e-05
1.11582e-05
-1.69942e-05
-1.66478e-05
1.10543e-05
8.14189e-06
-3.17378e-05
8.17968e-06
-3.53294e-05
8.46006e-06
-3.18903e-05
8.57365e-06
-3.15239e-05
9.00444e-06
-2.89208e-05
9.12314e-06
-2.84823e-05
9.66711e-06
-2.64038e-05
9.87577e-06
-2.53896e-05
1.03914e-05
-2.38371e-05
1.06898e-05
-2.30997e-05
1.12502e-05
-2.18557e-05
1.15508e-05
-2.12193e-05
1.20101e-05
-2.03386e-05
1.22583e-05
-1.97611e-05
1.25437e-05
-1.91615e-05
1.26873e-05
-1.86296e-05
1.26468e-05
-1.81756e-05
-1.77785e-05
1.26257e-05
9.55757e-06
-3.53817e-05
9.57598e-06
-3.9192e-05
9.88812e-06
-3.57858e-05
9.91291e-06
-3.4907e-05
1.0392e-05
-3.24903e-05
1.05531e-05
-3.15044e-05
1.10707e-05
-2.9538e-05
1.13699e-05
-2.80936e-05
1.19093e-05
-2.65774e-05
1.23139e-05
-2.55315e-05
1.28817e-05
-2.42869e-05
1.33095e-05
-2.33661e-05
1.37393e-05
-2.23584e-05
1.40517e-05
-2.15505e-05
1.43024e-05
-2.0787e-05
1.44699e-05
-2.00827e-05
1.45036e-05
-1.94158e-05
-1.87063e-05
1.42977e-05
1.13104e-05
-3.91833e-05
1.13129e-05
-4.29792e-05
1.16918e-05
-3.96757e-05
1.17613e-05
-3.82461e-05
1.23082e-05
-3.60261e-05
1.25713e-05
-3.45133e-05
1.30005e-05
-3.24651e-05
1.33944e-05
-3.07672e-05
1.39331e-05
-2.91927e-05
1.43911e-05
-2.78902e-05
1.49247e-05
-2.65615e-05
1.53826e-05
-2.54225e-05
1.58429e-05
-2.42917e-05
1.61858e-05
-2.32567e-05
1.64391e-05
-2.23059e-05
1.66101e-05
-2.14323e-05
1.66843e-05
-2.0594e-05
-1.97372e-05
1.66799e-05
1.33209e-05
-4.27689e-05
1.33083e-05
-4.63685e-05
1.36552e-05
-4.31539e-05
1.381e-05
-4.12856e-05
1.43689e-05
-3.91994e-05
1.47669e-05
-3.72847e-05
1.52631e-05
-3.51019e-05
1.58484e-05
-3.32875e-05
1.64799e-05
-3.15729e-05
1.70406e-05
-3.00369e-05
1.75898e-05
-2.8553e-05
1.80487e-05
-2.71972e-05
1.84616e-05
-2.59075e-05
1.88213e-05
-2.47219e-05
1.90917e-05
-2.35965e-05
1.92846e-05
-2.25706e-05
1.93941e-05
-2.15868e-05
-2.05986e-05
1.9428e-05
1.54815e-05
-4.52018e-05
1.55122e-05
-4.89552e-05
1.59414e-05
-4.58912e-05
1.63442e-05
-4.37687e-05
1.69426e-05
-4.16472e-05
1.7434e-05
-3.94158e-05
1.80565e-05
-3.71742e-05
1.87277e-05
-3.5241e-05
1.94094e-05
-3.33899e-05
2.00316e-05
-3.16671e-05
2.06057e-05
-3.00257e-05
2.11109e-05
-2.85073e-05
2.15629e-05
-2.70825e-05
2.19597e-05
-2.57738e-05
2.22961e-05
-2.45304e-05
2.25531e-05
-2.3376e-05
2.27367e-05
-2.22803e-05
-2.11724e-05
2.2832e-05
1.81691e-05
-4.67439e-05
1.85897e-05
-5.04283e-05
1.9226e-05
-4.74049e-05
1.99177e-05
-4.51762e-05
2.06178e-05
-4.29121e-05
2.12384e-05
-4.04675e-05
2.20327e-05
-3.82915e-05
2.27914e-05
-3.62314e-05
2.35176e-05
-3.42725e-05
2.41765e-05
-3.24192e-05
2.47808e-05
-3.06753e-05
2.53253e-05
-2.90597e-05
2.58213e-05
-2.75604e-05
2.62537e-05
-2.61728e-05
2.66119e-05
-2.48457e-05
2.68886e-05
-2.36039e-05
2.70951e-05
-2.24395e-05
-2.12547e-05
2.7219e-05
2.15816e-05
-4.65096e-05
2.23735e-05
-4.99511e-05
2.31939e-05
-4.68977e-05
2.39615e-05
-4.45938e-05
2.46485e-05
-4.22439e-05
2.55329e-05
-3.99952e-05
2.64482e-05
-3.78683e-05
2.736e-05
-3.58351e-05
2.82206e-05
-3.38643e-05
2.90148e-05
-3.19822e-05
2.97384e-05
-3.02165e-05
3.0384e-05
-2.85727e-05
3.09599e-05
-2.70634e-05
3.14497e-05
-2.56577e-05
3.18451e-05
-2.43027e-05
3.21539e-05
-2.30289e-05
3.23824e-05
-2.18441e-05
-2.06826e-05
3.25746e-05
2.19596e-05
-4.38534e-05
2.28376e-05
-4.70278e-05
2.39395e-05
-4.43364e-05
2.49888e-05
-4.21454e-05
2.60897e-05
-4.00221e-05
2.70729e-05
-3.78168e-05
2.79724e-05
-3.57608e-05
2.87992e-05
-3.38178e-05
2.95833e-05
-3.19751e-05
3.03319e-05
-3.02111e-05
3.10449e-05
-2.85585e-05
3.17159e-05
-2.70114e-05
3.2334e-05
-2.55894e-05
3.28674e-05
-2.42504e-05
3.33024e-05
-2.29416e-05
3.36517e-05
-2.16974e-05
3.39189e-05
-2.05445e-05
-1.94651e-05
3.41587e-05
1.95139e-05
-4.02155e-05
2.05337e-05
-4.28768e-05
2.15456e-05
-4.04174e-05
2.26997e-05
-3.8639e-05
2.37549e-05
-3.66927e-05
2.47379e-05
-3.46741e-05
2.56268e-05
-3.27551e-05
2.64417e-05
-3.09651e-05
2.72097e-05
-2.93185e-05
2.79487e-05
-2.77569e-05
2.86497e-05
-2.62746e-05
2.93005e-05
-2.48627e-05
2.98888e-05
-2.35529e-05
3.03848e-05
-2.2311e-05
3.0787e-05
-2.10951e-05
3.1116e-05
-1.99277e-05
3.13759e-05
-1.88444e-05
-1.78364e-05
3.15732e-05
1.80135e-05
-3.59092e-05
1.9003e-05
-3.807e-05
2.00084e-05
-3.59106e-05
2.0942e-05
-3.43753e-05
2.18415e-05
-3.27069e-05
2.27474e-05
-3.09995e-05
2.36304e-05
-2.93337e-05
2.44767e-05
-2.7757e-05
2.52696e-05
-2.63104e-05
2.59954e-05
-2.49427e-05
2.66444e-05
-2.36259e-05
2.72179e-05
-2.23509e-05
2.7715e-05
-2.11552e-05
2.8115e-05
-2.00115e-05
2.84363e-05
-1.89176e-05
2.86955e-05
-1.78623e-05
2.88953e-05
-1.68733e-05
-1.59617e-05
2.90449e-05
1.57896e-05
-3.14936e-05
1.68264e-05
-3.31769e-05
1.7828e-05
-3.12664e-05
1.8734e-05
-2.99529e-05
1.96025e-05
-2.85564e-05
2.04509e-05
-2.71324e-05
2.1275e-05
-2.57349e-05
2.20569e-05
-2.43844e-05
2.27709e-05
-2.31177e-05
2.33972e-05
-2.19131e-05
2.39494e-05
-2.07708e-05
2.44393e-05
-1.9659e-05
2.48648e-05
-1.86022e-05
2.52259e-05
-1.75881e-05
2.55396e-05
-1.6637e-05
2.57996e-05
-1.57084e-05
2.6021e-05
-1.4842e-05
-1.40468e-05
2.62094e-05
1.38111e-05
-2.66465e-05
1.47248e-05
-2.83064e-05
1.59158e-05
-2.69403e-05
1.69738e-05
-2.57947e-05
1.79146e-05
-2.45759e-05
1.8725e-05
-2.33063e-05
1.94572e-05
-2.21064e-05
2.01249e-05
-2.09609e-05
2.07354e-05
-1.98874e-05
2.12863e-05
-1.88566e-05
2.1782e-05
-1.78917e-05
2.22215e-05
-1.6949e-05
2.26106e-05
-1.60467e-05
2.29459e-05
-1.517e-05
2.32247e-05
-1.43424e-05
2.34551e-05
-1.35379e-05
2.36517e-05
-1.27944e-05
-1.21091e-05
2.38131e-05
1.26231e-05
-2.22588e-05
1.35772e-05
-2.37745e-05
1.46336e-05
-2.27524e-05
1.55617e-05
-2.17554e-05
1.63665e-05
-2.06877e-05
1.70992e-05
-1.96159e-05
1.777e-05
-1.86095e-05
1.83841e-05
-1.7656e-05
1.8939e-05
-1.67655e-05
1.94255e-05
-1.58935e-05
1.98488e-05
-1.50787e-05
2.02267e-05
-1.42978e-05
2.05642e-05
-1.35515e-05
2.0862e-05
-1.28196e-05
2.11214e-05
-1.21267e-05
2.13433e-05
-1.14461e-05
2.15312e-05
-1.08169e-05
-1.02382e-05
2.1687e-05
1.13235e-05
-1.82781e-05
1.23067e-05
-1.96555e-05
1.32319e-05
-1.87929e-05
1.40394e-05
-1.79288e-05
1.4796e-05
-1.70585e-05
1.55188e-05
-1.62001e-05
1.61846e-05
-1.53774e-05
1.6752e-05
-1.45577e-05
1.72248e-05
-1.37933e-05
1.76276e-05
-1.30652e-05
1.79712e-05
-1.23915e-05
1.82703e-05
-1.17531e-05
1.85287e-05
-1.11462e-05
1.87592e-05
-1.05561e-05
1.89649e-05
-9.99691e-06
1.91481e-05
-9.44635e-06
1.93115e-05
-8.93591e-06
-8.46993e-06
1.9458e-05
1.01117e-05
-1.44667e-05
1.10476e-05
-1.59014e-05
1.19218e-05
-1.5176e-05
1.26989e-05
-1.44438e-05
1.3404e-05
-1.37287e-05
1.40244e-05
-1.30082e-05
1.45654e-05
-1.23232e-05
1.50401e-05
-1.16505e-05
1.54582e-05
-1.10337e-05
1.58331e-05
-1.04563e-05
1.61699e-05
-9.93018e-06
1.64722e-05
-9.43275e-06
1.67328e-05
-8.94759e-06
1.69546e-05
-8.47374e-06
1.71266e-05
-8.00975e-06
1.72685e-05
-7.56569e-06
1.73832e-05
-7.15533e-06
-6.78723e-06
1.74772e-05
8.97358e-06
-1.11463e-05
9.84168e-06
-1.24993e-05
1.06765e-05
-1.19222e-05
1.14152e-05
-1.13009e-05
1.20502e-05
-1.06871e-05
1.25968e-05
-1.00803e-05
1.30655e-05
-9.51528e-06
1.34714e-05
-8.97111e-06
1.38288e-05
-8.4915e-06
1.41443e-05
-8.04934e-06
1.44124e-05
-7.64371e-06
1.46301e-05
-7.25518e-06
1.48016e-05
-6.87444e-06
1.49362e-05
-6.50475e-06
1.50407e-05
-6.14336e-06
1.51209e-05
-5.79923e-06
1.51866e-05
-5.48974e-06
-5.21183e-06
1.52349e-05
8.2286e-06
-8.37583e-06
9.02719e-06
-9.43934e-06
9.69615e-06
-8.8939e-06
1.02808e-05
-8.37491e-06
1.07789e-05
-7.86033e-06
1.11917e-05
-7.35058e-06
1.15292e-05
-6.8893e-06
1.18154e-05
-6.46791e-06
1.20494e-05
-6.10354e-06
1.22395e-05
-5.77704e-06
1.23835e-05
-5.47662e-06
1.24874e-05
-5.1912e-06
1.25521e-05
-4.90626e-06
1.25929e-05
-4.63969e-06
1.26178e-05
-4.38231e-06
1.26306e-05
-4.13731e-06
1.26336e-05
-3.92131e-06
-3.72755e-06
1.26244e-05
7.47489e-06
-5.75566e-06
8.14969e-06
-6.64839e-06
8.64112e-06
-6.06392e-06
8.96216e-06
-5.54053e-06
9.17205e-06
-5.08034e-06
9.32677e-06
-4.67838e-06
9.45348e-06
-4.3486e-06
9.56365e-06
-4.06621e-06
9.6315e-06
-3.80858e-06
9.67175e-06
-3.59661e-06
9.68745e-06
-3.40606e-06
9.6779e-06
-3.22274e-06
9.6589e-06
-3.04842e-06
9.62565e-06
-2.88034e-06
9.58016e-06
-2.71625e-06
9.5303e-06
-2.56456e-06
9.46696e-06
-2.42639e-06
-2.30036e-06
9.38649e-06
6.57494e-06
-3.52583e-06
6.69447e-06
-3.66858e-06
6.65713e-06
-3.05426e-06
6.5689e-06
-2.62496e-06
6.49431e-06
-2.32338e-06
6.47027e-06
-2.1152e-06
6.48574e-06
-1.9658e-06
6.53414e-06
-1.85373e-06
6.572e-06
-1.71817e-06
6.60723e-06
-1.62997e-06
6.62345e-06
-1.54006e-06
6.63036e-06
-1.46068e-06
6.62578e-06
-1.38106e-06
6.61188e-06
-1.30365e-06
6.59293e-06
-1.22913e-06
6.56748e-06
-1.15972e-06
6.54093e-06
-1.10418e-06
-1.05093e-06
6.50976e-06
4.52817e-06
3.68037e-06
3.31499e-06
3.23704e-06
3.32259e-06
3.4816e-06
3.65878e-06
3.82123e-06
3.99728e-06
4.1456e-06
4.27406e-06
4.37832e-06
4.46499e-06
4.53757e-06
4.59879e-06
4.64903e-06
4.67995e-06
4.69757e-06
-6.14799e-09
1.30363e-06
-1.0665e-07
1.46725e-06
-2.64304e-07
1.55624e-06
-3.45073e-07
1.48289e-06
-2.97867e-07
1.35076e-06
-1.17364e-07
1.2103e-06
1.60093e-07
1.10787e-06
5.05537e-07
1.03534e-06
8.90832e-07
9.91491e-07
1.32557e-06
9.36992e-07
1.79289e-06
8.99015e-07
2.28953e-06
8.62926e-07
2.79304e-06
8.479e-07
3.30648e-06
8.29073e-07
3.82275e-06
8.17571e-07
4.30931e-06
8.38162e-07
4.74495e-06
8.76735e-07
5.11921e-06
9.26565e-07
5.45003e-06
9.61776e-07
5.73487e-06
9.93267e-07
5.93239e-06
1.06706e-06
6.05563e-06
1.12728e-06
6.13112e-06
1.15824e-06
6.1191e-06
1.23136e-06
6.00532e-06
1.31381e-06
5.78517e-06
1.40062e-06
5.45685e-06
1.48762e-06
4.97308e-06
1.6203e-06
4.34072e-06
1.74186e-06
3.46463e-06
1.95621e-06
2.3897e-06
2.12652e-06
1.05254e-06
2.35721e-06
-3.1046e-07
2.3571e-06
-1.2813e-06
1.93077e-06
-1.95876e-06
1.59357e-06
-2.34141e-06
1.26522e-06
-2.56944e-06
1.07979e-06
-2.83139e-06
1.06889e-06
-2.86268e-06
7.96329e-07
-2.65097e-06
5.15497e-07
-2.25851e-06
2.88785e-07
-1.6256e-06
2.42845e-09
-9.34696e-07
-1.02684e-07
-3.58204e-07
-3.58855e-08
-8.96211e-08
2.30047e-07
-4.19505e-07
7.87439e-07
-1.26244e-06
1.26202e-06
-2.30047e-06
1.4233e-06
-3.28453e-06
1.33763e-06
-4.27317e-06
1.2675e-06
-4.8646e-06
7.65915e-07
-4.38275e-06
-3.43303e-07
-3.69506e-06
-5.68987e-07
-3.53269e-06
-1.06478e-07
-3.631e-06
1.13164e-07
-4.2534e-06
6.24703e-07
-5.67557e-06
1.35031e-06
-7.56101e-06
1.68888e-06
-9.27794e-06
1.46722e-06
-1.07085e-05
1.15694e-06
-1.1906e-05
8.77733e-07
-1.28911e-05
6.18906e-07
-1.36938e-05
3.87084e-07
-1.43266e-05
1.68573e-07
-1.48153e-05
-2.51662e-08
-1.51775e-05
-2.01947e-07
-1.54276e-05
-3.63822e-07
-1.5586e-05
-5.04847e-07
-1.56671e-05
-6.32088e-07
-1.56781e-05
-7.51978e-07
-1.56261e-05
-8.63487e-07
-1.55195e-05
-9.65257e-07
-1.5367e-05
-1.05775e-06
-1.51798e-05
-1.13739e-06
-1.49471e-05
-1.22625e-06
-1.46852e-05
-1.2957e-06
-1.44101e-05
-1.3463e-06
-1.40957e-05
-1.4195e-06
-1.3783e-05
-1.44749e-06
-1.34702e-05
-1.47381e-06
-1.31279e-05
-1.52436e-06
-1.27804e-05
-1.54634e-06
-1.23989e-05
-1.59283e-06
-1.20024e-05
-1.61551e-06
-1.15788e-05
-1.64385e-06
-1.1156e-05
-1.63642e-06
-1.07594e-05
-1.59834e-06
-1.03359e-05
-1.61094e-06
-9.87727e-06
-1.62547e-06
-9.42341e-06
-1.58724e-06
-8.98198e-06
-1.53846e-06
-8.54545e-06
-1.49453e-06
-8.09244e-06
-1.46414e-06
-7.68118e-06
-1.36893e-06
-7.27207e-06
-1.30824e-06
-6.85751e-06
-1.24754e-06
-6.47188e-06
-1.14516e-06
-6.07368e-06
-1.07798e-06
-5.72828e-06
-9.41142e-07
-5.35388e-06
-8.7732e-07
-4.99524e-06
-7.60801e-07
-4.63843e-06
-6.53195e-07
-4.30128e-06
-5.22992e-07
-3.98352e-06
-3.90892e-07
-3.6403e-06
-3.01415e-07
-3.28224e-06
-1.95289e-07
-2.97227e-06
-1.86081e-08
-2.88948e-06
3.42782e-07
-3.04538e-06
7.16267e-07
-3.4136e-06
1.06879e-06
-3.93914e-06
1.37692e-06
-4.5443e-06
1.61713e-06
-5.15994e-06
1.79542e-06
-5.60237e-06
1.80403e-06
-5.9054e-06
1.87052e-06
-6.28445e-06
2.16727e-06
-6.77434e-06
2.49735e-06
-7.29912e-06
2.75042e-06
-7.79384e-06
2.93332e-06
-8.10395e-06
2.95091e-06
-8.28417e-06
3.00491e-06
-8.42872e-06
3.18496e-06
-8.61036e-06
3.48746e-06
-8.77936e-06
3.7264e-06
-8.89206e-06
3.81784e-06
-9.14605e-06
4.03693e-06
-9.68566e-06
4.4066e-06
-1.04612e-05
4.80555e-06
-1.12534e-05
4.95079e-06
-1.18249e-05
4.85906e-06
-1.18451e-05
4.44949e-06
-1.14414e-05
4.21026e-06
-1.07631e-05
4.19092e-06
-9.64906e-06
4.02829e-06
-8.77843e-06
4.50275e-06
-8.64203e-06
5.59001e-06
-8.98443e-06
6.60996e-06
-9.86582e-06
7.56124e-06
-1.02303e-05
7.2848e-06
-9.73355e-06
6.58092e-06
-9.25866e-06
6.61416e-06
-8.93641e-06
6.96168e-06
-9.01923e-06
7.52657e-06
-1.00153e-05
8.46542e-06
-1.09401e-05
8.69263e-06
-1.18082e-05
8.76465e-06
-1.33973e-05
9.58749e-06
-1.34139e-05
8.0391e-06
-1.411e-05
8.90818e-06
-1.32898e-05
7.2311e-06
-1.23055e-05
7.20645e-06
-1.06374e-05
6.57582e-06
-9.07751e-06
6.79794e-06
-7.32106e-06
6.71154e-06
-6.17697e-06
7.44305e-06
-5.48743e-06
8.07826e-06
-5.54108e-06
8.9418e-06
-6.23002e-06
9.76822e-06
-7.25884e-06
1.02868e-05
-8.3111e-06
1.05321e-05
-9.2245e-06
1.0744e-05
-1.02858e-05
1.14503e-05
-1.12721e-05
1.20795e-05
-1.08551e-05
1.14421e-05
-1.05052e-05
1.18639e-05
-9.85402e-06
1.20105e-05
-1.14347e-05
1.45114e-05
-1.29633e-05
1.60972e-05
-1.18237e-05
1.47705e-05
-6.75224e-06
1.20341e-05
-1.08095e-06
1.17363e-05
2.08095e-06
1.42141e-05
4.6674e-06
1.53519e-05
7.71399e-06
1.56018e-05
9.44602e-06
1.71516e-05
1.1063e-05
1.73375e-05
1.23544e-05
1.77018e-05
1.30225e-05
1.77846e-05
1.41881e-05
1.73182e-05
1.72954e-05
1.47601e-05
6.04975e-08
2.48238e-06
1.71367e-07
2.64296e-06
2.507e-07
2.81041e-06
3.42344e-07
2.72983e-06
5.13892e-07
2.4961e-06
7.82841e-07
2.23425e-06
1.13418e-06
2.03633e-06
1.51976e-06
1.92279e-06
1.92967e-06
1.85044e-06
2.36966e-06
1.76004e-06
2.87242e-06
1.65613e-06
3.37977e-06
1.60931e-06
3.89261e-06
1.5789e-06
4.39592e-06
1.55771e-06
4.88868e-06
1.54961e-06
5.37355e-06
1.57599e-06
5.82041e-06
1.64671e-06
6.18779e-06
1.76798e-06
6.47924e-06
1.873e-06
6.73698e-06
1.93713e-06
6.96608e-06
2.04139e-06
7.13111e-06
2.15775e-06
7.2582e-06
2.22584e-06
7.33084e-06
2.35199e-06
7.34418e-06
2.48155e-06
7.27631e-06
2.63727e-06
7.12782e-06
2.79439e-06
6.89253e-06
2.98996e-06
6.57632e-06
3.17257e-06
6.16817e-06
3.46056e-06
5.58366e-06
3.7631e-06
4.88863e-06
4.06737e-06
3.93915e-06
4.2869e-06
2.41371e-06
4.39121e-06
6.51167e-07
4.24303e-06
-8.45102e-07
3.60682e-06
-1.83312e-06
2.8956e-06
-2.28731e-06
2.33933e-06
-2.28322e-06
1.5597e-06
-1.99838e-06
9.68333e-07
-1.44167e-06
4.3356e-07
-5.65621e-07
-2.27701e-07
2.93336e-07
-3.73238e-07
9.99488e-07
-2.00905e-07
1.13837e-06
5.59524e-07
8.18933e-07
1.52878e-06
3.15412e-07
2.16741e-06
-3.15994e-07
2.39081e-06
-7.88616e-07
2.11834e-06
-1.03417e-06
1.79034e-06
-1.79473e-06
1.70029e-06
-3.65564e-06
1.68534e-06
-6.34978e-06
2.3174e-06
-9.47783e-06
3.08557e-06
-1.23622e-05
2.9601e-06
-1.44935e-05
2.68689e-06
-1.58792e-05
2.60731e-06
-1.67449e-05
2.38569e-06
-1.75644e-05
2.07118e-06
-1.83053e-05
1.64238e-06
-1.89028e-05
1.17088e-06
-1.93802e-05
7.4412e-07
-1.97361e-05
3.44416e-07
-1.99954e-05
-1.6474e-08
-2.01411e-05
-3.68518e-07
-2.02029e-05
-6.77079e-07
-2.01761e-05
-9.72592e-07
-2.00791e-05
-1.23126e-06
-1.99188e-05
-1.46772e-06
-1.96964e-05
-1.69434e-06
-1.9426e-05
-1.89921e-06
-1.91146e-05
-2.08442e-06
-1.87629e-05
-2.26074e-06
-1.83887e-05
-2.4045e-06
-1.79914e-05
-2.55713e-06
-1.75706e-05
-2.6869e-06
-1.71374e-05
-2.78416e-06
-1.66937e-05
-2.89973e-06
-1.62327e-05
-2.9703e-06
-1.57677e-05
-3.0208e-06
-1.52942e-05
-3.09868e-06
-1.48245e-05
-3.13186e-06
-1.43436e-05
-3.19859e-06
-1.38388e-05
-3.25191e-06
-1.32993e-05
-3.31745e-06
-1.27585e-05
-3.30209e-06
-1.22146e-05
-3.24817e-06
-1.16716e-05
-3.24343e-06
-1.11069e-05
-3.25847e-06
-1.05532e-05
-3.18433e-06
-9.97098e-06
-3.12722e-06
-9.41193e-06
-3.02172e-06
-8.87456e-06
-2.92339e-06
-8.35075e-06
-2.76382e-06
-7.84434e-06
-2.62953e-06
-7.31977e-06
-2.52429e-06
-6.84543e-06
-2.30383e-06
-6.34796e-06
-2.18351e-06
-5.9159e-06
-1.90251e-06
-5.46639e-06
-1.76117e-06
-5.05007e-06
-1.51849e-06
-4.61793e-06
-1.3224e-06
-4.19214e-06
-1.0787e-06
-3.81948e-06
-7.81829e-07
-3.54117e-06
-4.82835e-07
-3.38789e-06
-1.32934e-07
-3.34096e-06
2.76822e-07
-3.45834e-06
9.39833e-07
-3.77944e-06
1.6418e-06
-4.27078e-06
2.28676e-06
-4.83003e-06
2.80753e-06
-5.42841e-06
3.22905e-06
-5.97737e-06
3.48765e-06
-6.28057e-06
3.40165e-06
-6.37161e-06
3.43146e-06
-6.57538e-06
4.04105e-06
-6.8963e-06
4.76218e-06
-7.32147e-06
5.42161e-06
-7.6953e-06
5.82384e-06
-7.95812e-06
5.82696e-06
-8.14642e-06
5.75215e-06
-8.20963e-06
5.82871e-06
-8.06818e-06
6.19493e-06
-8.04149e-06
7.23566e-06
-8.25588e-06
8.20964e-06
-8.68514e-06
8.53493e-06
-9.41731e-06
8.81971e-06
-1.02442e-05
9.31843e-06
-1.09749e-05
9.46392e-06
-1.14715e-05
9.24688e-06
-1.15131e-05
8.52707e-06
-1.12143e-05
8.07665e-06
-1.05823e-05
7.8894e-06
-8.95424e-06
6.94157e-06
-7.03302e-06
7.28071e-06
-5.45911e-06
8.97124e-06
-4.35604e-06
1.12646e-05
-4.45612e-06
1.45545e-05
-5.23326e-06
1.58959e-05
-6.01481e-06
1.53076e-05
-6.77014e-06
1.4999e-05
-6.91647e-06
1.47048e-05
-8.21023e-06
1.65044e-05
-1.07689e-05
1.8456e-05
-1.18743e-05
1.77501e-05
-1.25846e-05
1.73225e-05
-1.36281e-05
1.90964e-05
-1.36336e-05
1.54652e-05
-1.37983e-05
1.76382e-05
-1.26436e-05
1.36508e-05
-1.14085e-05
1.35135e-05
-9.11068e-06
1.19063e-05
-6.7404e-06
1.21794e-05
-4.54239e-06
1.24413e-05
-2.48118e-06
1.34757e-05
-1.05003e-06
1.50322e-05
-1.00678e-07
1.66696e-05
3.55234e-08
1.87255e-05
-1.10486e-06
2.091e-05
-3.09402e-06
2.24914e-05
-5.39961e-06
2.3109e-05
-7.27597e-06
2.40587e-05
-8.33247e-06
2.4997e-05
-8.21294e-06
2.49316e-05
-8.22253e-06
2.59251e-05
-9.45945e-06
2.75402e-05
-1.17339e-05
3.19633e-05
-1.26312e-05
3.38318e-05
-1.12694e-05
3.06723e-05
-4.55065e-06
2.41131e-05
3.08919e-06
2.32237e-05
6.93899e-06
3.00135e-05
9.59315e-06
3.29649e-05
1.30836e-05
3.32757e-05
1.47022e-05
3.81257e-05
1.59681e-05
3.88731e-05
1.61975e-05
4.08197e-05
1.54353e-05
4.04682e-05
1.57845e-05
3.99376e-05
3.89093e-05
1.63306e-05
3.18259e-08
3.60777e-06
1.03545e-07
3.72431e-06
2.45161e-07
3.81285e-06
4.50842e-07
3.64575e-06
7.29435e-07
3.31917e-06
1.06168e-06
2.99877e-06
1.39548e-06
2.80462e-06
1.72393e-06
2.7047e-06
2.07293e-06
2.61821e-06
2.45174e-06
2.5005e-06
2.87781e-06
2.35237e-06
3.32973e-06
2.27879e-06
3.79488e-06
2.23261e-06
4.23277e-06
2.2355e-06
4.64165e-06
2.25861e-06
5.02879e-06
2.31308e-06
5.36571e-06
2.4393e-06
5.64354e-06
2.62638e-06
5.87531e-06
2.78952e-06
6.06105e-06
2.9232e-06
6.21383e-06
3.07758e-06
6.35341e-06
3.21229e-06
6.459e-06
3.32268e-06
6.54948e-06
3.46197e-06
6.61639e-06
3.60214e-06
6.63641e-06
3.78425e-06
6.62904e-06
3.9437e-06
6.58866e-06
4.16053e-06
6.45732e-06
4.40996e-06
6.26498e-06
4.73156e-06
6.08281e-06
4.99568e-06
5.78599e-06
5.39823e-06
5.28213e-06
5.77362e-06
4.61719e-06
5.97332e-06
3.71856e-06
6.01903e-06
2.34287e-06
5.77344e-06
7.51556e-07
5.19273e-06
-3.90662e-07
4.17696e-06
-1.04641e-06
2.87239e-06
-1.10502e-06
1.68513e-06
-4.72925e-07
4.38806e-07
3.94951e-07
-5.07071e-07
1.1334e-06
-5.76752e-07
1.40159e-06
-6.93346e-09
1.22443e-06
1.1083e-06
6.91644e-07
2.42266e-06
-1.24434e-07
3.26621e-06
-1.26125e-06
3.75397e-06
-3.15495e-06
4.19142e-06
-5.76131e-06
4.60041e-06
-8.82763e-06
4.95227e-06
-1.21536e-05
5.1206e-06
-1.45774e-05
4.79397e-06
-1.59267e-05
4.45708e-06
-1.70114e-05
4.02837e-06
-1.80295e-05
3.64239e-06
-1.87238e-05
3.20455e-06
-1.91628e-05
2.68832e-06
-1.93784e-05
2.10871e-06
-1.95406e-05
1.58373e-06
-1.96512e-05
1.021e-06
-1.9723e-05
5.15654e-07
-1.97338e-05
1.1401e-08
-1.97181e-05
-4.15959e-07
-1.96337e-05
-8.77547e-07
-1.95106e-05
-1.26253e-06
-1.93257e-05
-1.66296e-06
-1.90969e-05
-2.00348e-06
-1.88282e-05
-2.3195e-06
-1.85099e-05
-2.63365e-06
-1.81588e-05
-2.90965e-06
-1.77773e-05
-3.16104e-06
-1.73598e-05
-3.40668e-06
-1.69143e-05
-3.61403e-06
-1.64746e-05
-3.79103e-06
-1.60382e-05
-3.94961e-06
-1.56098e-05
-4.06328e-06
-1.51585e-05
-4.23004e-06
-1.47058e-05
-4.32082e-06
-1.42411e-05
-4.39566e-06
-1.37482e-05
-4.51411e-06
-1.3245e-05
-4.56449e-06
-1.27332e-05
-4.64026e-06
-1.22314e-05
-4.68326e-06
-1.17204e-05
-4.75723e-06
-1.11849e-05
-4.75598e-06
-1.05969e-05
-4.73066e-06
-1.00792e-05
-4.63068e-06
-9.50686e-06
-4.67451e-06
-8.96197e-06
-4.5537e-06
-8.42477e-06
-4.44392e-06
-7.90454e-06
-4.28615e-06
-7.40327e-06
-4.12205e-06
-6.89012e-06
-3.92665e-06
-6.41586e-06
-3.6983e-06
-5.90679e-06
-3.57218e-06
-5.4413e-06
-3.24974e-06
-4.96472e-06
-3.07423e-06
-4.52198e-06
-2.6917e-06
-4.07019e-06
-2.47714e-06
-3.68413e-06
-2.10548e-06
-3.31288e-06
-1.81695e-06
-2.92079e-06
-1.51338e-06
-2.57111e-06
-1.07799e-06
-2.39214e-06
-5.01653e-07
-2.39408e-06
1.31264e-07
-2.47242e-06
7.13632e-07
-2.64975e-06
1.59239e-06
-2.9948e-06
2.59131e-06
-3.45629e-06
3.4665e-06
-3.886e-06
4.08138e-06
-4.37745e-06
4.69588e-06
-4.89898e-06
5.10234e-06
-5.1757e-06
4.9318e-06
-5.30306e-06
4.93547e-06
-5.41779e-06
5.53247e-06
-5.54649e-06
6.36426e-06
-5.71011e-06
7.30533e-06
-6.08833e-06
8.31137e-06
-6.57194e-06
8.68978e-06
-7.04376e-06
8.47016e-06
-7.36609e-06
8.09504e-06
-7.35406e-06
7.84795e-06
-6.86048e-06
8.52129e-06
-6.47189e-06
1.09313e-05
-6.67629e-06
1.30753e-05
-7.27902e-06
1.3572e-05
-7.97761e-06
1.37336e-05
-8.56474e-06
1.37486e-05
-9.04742e-06
1.3605e-05
-9.38826e-06
1.31295e-05
-9.72633e-06
1.30738e-05
-9.85961e-06
1.27812e-05
-9.15056e-06
1.08519e-05
-7.45805e-06
1.01043e-05
-5.8742e-06
1.18882e-05
-4.49097e-06
1.4537e-05
-3.82027e-06
1.92197e-05
-3.56523e-06
2.26143e-05
-4.6535e-06
2.42074e-05
-6.28362e-06
2.44532e-05
-7.5176e-06
2.33984e-05
-8.59583e-06
2.52465e-05
-1.08279e-05
2.82168e-05
-1.27126e-05
2.70947e-05
-1.35601e-05
2.49464e-05
-1.34276e-05
2.66779e-05
-1.29157e-05
2.09568e-05
-1.2693e-05
2.46663e-05
-1.09381e-05
1.9134e-05
-9.9154e-06
1.92221e-05
-7.68416e-06
1.66782e-05
-5.81214e-06
1.7376e-05
-3.30681e-06
1.71403e-05
-1.15146e-06
1.8667e-05
5.06027e-07
2.09516e-05
1.51236e-06
2.33864e-05
2.31462e-06
2.59598e-05
2.14338e-06
2.9354e-05
1.05929e-06
3.28213e-05
-9.83244e-07
3.4754e-05
-3.72075e-06
3.67612e-05
-6.38159e-06
3.78826e-05
-7.2874e-06
3.76323e-05
-7.26391e-06
3.9904e-05
-8.24582e-06
4.22329e-05
-8.99621e-06
4.91815e-05
-9.04191e-06
4.96775e-05
-7.79483e-06
4.51375e-05
-2.94106e-06
3.60574e-05
4.04024e-06
3.28211e-05
8.63266e-06
4.38331e-05
1.09721e-05
5.0475e-05
1.42121e-05
4.96849e-05
1.66611e-05
5.7999e-05
1.86194e-05
5.98394e-05
1.85455e-05
6.51915e-05
1.7178e-05
6.49825e-05
1.70384e-05
6.50089e-05
6.26585e-05
1.82413e-05
2.11662e-08
4.64709e-06
5.55166e-08
4.7228e-06
1.91203e-07
4.67614e-06
4.17145e-07
4.4049e-06
6.8953e-07
4.0394e-06
9.74076e-07
3.72309e-06
1.22843e-06
3.57994e-06
1.46992e-06
3.51091e-06
1.73024e-06
3.41589e-06
2.02973e-06
3.26498e-06
2.36388e-06
3.08398e-06
2.71252e-06
2.99335e-06
3.05477e-06
2.95295e-06
3.39855e-06
2.95649e-06
3.70384e-06
3.02463e-06
3.96567e-06
3.12826e-06
4.1264e-06
3.36568e-06
4.32499e-06
3.53152e-06
4.53013e-06
3.7067e-06
4.72286e-06
3.86337e-06
4.92131e-06
4.00709e-06
5.12275e-06
4.13082e-06
5.2881e-06
4.25135e-06
5.38859e-06
4.42366e-06
5.43762e-06
4.58203e-06
5.43738e-06
4.76886e-06
5.39302e-06
4.94524e-06
5.34058e-06
5.16058e-06
5.27504e-06
5.41331e-06
5.26018e-06
5.68336e-06
5.15328e-06
6.0296e-06
5.06871e-06
6.40425e-06
4.85309e-06
6.90248e-06
4.49195e-06
7.22728e-06
3.96454e-06
7.41843e-06
3.20718e-06
7.3133e-06
2.24822e-06
6.83229e-06
1.16078e-06
5.87966e-06
7.79742e-08
4.50775e-06
-4.66504e-07
2.79801e-06
-3.94301e-07
9.16523e-07
-6.15708e-07
2.3144e-07
-1.34688e-06
6.35941e-07
-2.49599e-06
1.5902e-06
-3.98088e-06
2.87991e-06
-5.5877e-06
4.30287e-06
-7.42531e-06
5.3368e-06
-9.6241e-06
6.15734e-06
-1.1843e-05
6.62125e-06
-1.38319e-05
6.74614e-06
-1.53215e-05
6.58227e-06
-1.63637e-05
6.25319e-06
-1.73016e-05
5.79297e-06
-1.80073e-05
5.18376e-06
-1.84921e-05
4.50111e-06
-1.88046e-05
3.9037e-06
-1.89219e-05
3.23758e-06
-1.89757e-05
2.61643e-06
-1.8979e-05
1.95933e-06
-1.89605e-05
1.36756e-06
-1.89084e-05
7.45726e-07
-1.88405e-05
1.77502e-07
-1.87432e-05
-3.82547e-07
-1.85877e-05
-9.07868e-07
-1.84462e-05
-1.39101e-06
-1.82305e-05
-1.88295e-06
-1.80102e-05
-2.32904e-06
-1.77205e-05
-2.76776e-06
-1.74078e-05
-3.14705e-06
-1.70746e-05
-3.50978e-06
-1.66791e-05
-3.88631e-06
-1.62838e-05
-4.16741e-06
-1.58542e-05
-4.4767e-06
-1.53733e-05
-4.76495e-06
-1.48884e-05
-4.973e-06
-1.43694e-05
-5.19109e-06
-1.38781e-05
-5.29446e-06
-1.33797e-05
-5.4904e-06
-1.28544e-05
-5.62473e-06
-1.23722e-05
-5.66458e-06
-1.18703e-05
-5.81244e-06
-1.13271e-05
-5.90918e-06
-1.07964e-05
-5.97414e-06
-1.0248e-05
-6.02947e-06
-9.69366e-06
-6.09802e-06
-9.12963e-06
-6.09323e-06
-8.52758e-06
-6.09151e-06
-7.91986e-06
-5.97801e-06
-7.31851e-06
-5.98845e-06
-6.77519e-06
-5.78316e-06
-6.19772e-06
-5.6686e-06
-5.64981e-06
-5.45207e-06
-5.13312e-06
-5.20897e-06
-4.59852e-06
-4.9867e-06
-4.11308e-06
-4.65943e-06
-3.6749e-06
-4.43504e-06
-3.27209e-06
-4.02072e-06
-2.85614e-06
-3.79237e-06
-2.46465e-06
-3.31922e-06
-2.0621e-06
-3.0437e-06
-1.6888e-06
-2.57417e-06
-1.31147e-06
-2.21462e-06
-9.7793e-07
-1.79138e-06
-7.0475e-07
-1.22293e-06
-4.77222e-07
-5.30054e-07