/*--------------------------------*- C++ -*----------------------------------*\
| =========                 |                                                 |
| \\      /  F ield         | OpenFOAM: The Open Source CFD Toolbox           |
|  \\    /   O peration     | Version:  dev                                   |
|   \\  /    A nd           | Web:      http://www.openfoam.org               |
|    \\/     M anipulation  |                                                 |
\*---------------------------------------------------------------------------*/
FoamFile
{
    version     2.0;
    format      ascii;
    class       surfaceScalarField;
    object      phi_0;
    location    "9.119";
}
// * * * * * * * * * * * * * * * * * * * * * * * * * * * * * * * * * * * * * //

dimensions      [1 0 -1 0 0 0 0];

internalField   nonuniform List<scalar> 
24170
(
2.14523e-06
-9.90085e-07
1.31596e-06
-1.49243e-06
9.34764e-07
-1.83507e-06
8.32578e-07
-2.00517e-06
8.18128e-07
-1.97954e-06
8.82266e-07
-1.95004e-06
9.23183e-07
-1.81732e-06
1.0666e-06
-1.82146e-06
1.17381e-06
-1.68447e-06
1.41037e-06
-1.72952e-06
1.5115e-06
-1.50113e-06
1.91384e-06
-1.73468e-06
2.03742e-06
-1.36938e-06
2.72845e-06
-1.88775e-06
2.73537e-06
-1.12573e-06
4.12639e-06
-2.4572e-06
3.87131e-06
-7.57923e-07
-6.72779e-06
9.63325e-06
3.94639e-06
-3.58584e-06
3.36214e-06
-3.45989e-06
2.89078e-06
-3.80515e-06
2.59937e-06
-4.04221e-06
2.44184e-06
-4.02741e-06
2.36769e-06
-3.96817e-06
2.40114e-06
-3.82299e-06
2.47331e-06
-3.76224e-06
2.54864e-06
-3.51608e-06
2.78065e-06
-3.6276e-06
2.96274e-06
-3.2455e-06
3.33784e-06
-3.59744e-06
3.66706e-06
-3.09047e-06
4.48873e-06
-4.04125e-06
4.69314e-06
-2.58413e-06
6.58506e-06
-5.52954e-06
6.16368e-06
-1.45332e-06
-1.25693e-05
1.0926e-05
4.63834e-06
-6.67137e-06
4.58227e-06
-6.20415e-06
4.44498e-06
-6.34332e-06
4.26723e-06
-6.40805e-06
4.1054e-06
-6.27811e-06
4.06027e-06
-6.19904e-06
4.00679e-06
-5.92728e-06
4.07606e-06
-5.85838e-06
4.1283e-06
-5.49478e-06
4.46409e-06
-5.76517e-06
4.54112e-06
-5.04391e-06
5.17438e-06
-5.83305e-06
5.19159e-06
-4.64916e-06
6.2399e-06
-6.51743e-06
6.32648e-06
-4.05473e-06
7.93685e-06
-8.43528e-06
7.58617e-06
-2.34298e-06
-1.60005e-05
9.86469e-06
4.89861e-06
-9.91695e-06
5.3217e-06
-9.68123e-06
5.40464e-06
-9.36283e-06
5.52751e-06
-9.29642e-06
5.45772e-06
-8.85214e-06
5.68329e-06
-8.89032e-06
5.60058e-06
-8.20023e-06
5.89402e-06
-8.34057e-06
5.85734e-06
-7.55394e-06
6.23332e-06
-8.08443e-06
6.23592e-06
-6.91174e-06
6.8435e-06
-8.17344e-06
6.84609e-06
-6.31427e-06
7.65333e-06
-8.87919e-06
8.01918e-06
-5.90736e-06
8.91812e-06
-1.07377e-05
1.06519e-05
-5.42529e-06
-1.70524e-05
1.04183e-05
5.32361e-06
-1.35332e-05
6.0565e-06
-1.37268e-05
6.0735e-06
-1.25834e-05
6.46371e-06
-1.26931e-05
6.38781e-06
-1.16539e-05
6.83933e-06
-1.20296e-05
6.75854e-06
-1.06754e-05
7.16883e-06
-1.11409e-05
7.10326e-06
-9.755e-06
7.52201e-06
-1.06296e-05
7.55424e-06
-8.95502e-06
8.01301e-06
-1.05268e-05
8.27647e-06
-8.36925e-06
8.62473e-06
-1.09244e-05
9.47304e-06
-8.363e-06
9.41016e-06
-1.21995e-05
1.12016e-05
-8.66686e-06
-1.6258e-05
9.03228e-06
5.87372e-06
-1.70765e-05
6.50888e-06
-1.79568e-05
6.49875e-06
-1.60299e-05
6.9321e-06
-1.63933e-05
6.90178e-06
-1.47266e-05
7.34274e-06
-1.53945e-05
7.35577e-06
-1.34467e-05
7.70968e-06
-1.40944e-05
7.81259e-06
-1.23056e-05
8.15048e-06
-1.32769e-05
8.45969e-06
-1.1436e-05
8.77353e-06
-1.28923e-05
9.35631e-06
-1.08836e-05
9.4682e-06
-1.2868e-05
1.04325e-05
-1.10559e-05
1.00845e-05
-1.34943e-05
1.14949e-05
-1.16335e-05
-1.54444e-05
9.21204e-06
6.52461e-06
-2.11526e-05
7.02445e-06
-2.23324e-05
7.06622e-06
-1.97808e-05
7.41156e-06
-2.02524e-05
7.47337e-06
-1.81134e-05
7.80647e-06
-1.88632e-05
7.97976e-06
-1.65732e-05
8.23575e-06
-1.71323e-05
8.56529e-06
-1.52529e-05
8.83362e-06
-1.60107e-05
9.28846e-06
-1.42074e-05
9.48221e-06
-1.52726e-05
1.01386e-05
-1.35958e-05
1.01767e-05
-1.48546e-05
1.10147e-05
-1.37275e-05
1.06949e-05
-1.49199e-05
1.15766e-05
-1.4162e-05
-1.57577e-05
1.03285e-05
5.08608e-06
-2.42515e-05
5.42643e-06
-2.56041e-05
5.5281e-06
-2.26901e-05
5.7304e-06
-2.31097e-05
5.83149e-06
-2.07268e-05
6.00275e-06
-2.13989e-05
6.21831e-06
-1.90129e-05
6.37505e-06
-1.93812e-05
6.70487e-06
-1.75492e-05
6.8497e-06
-1.80058e-05
7.22731e-06
-1.63227e-05
7.35262e-06
-1.70362e-05
7.83756e-06
-1.56197e-05
7.87034e-06
-1.6343e-05
8.32e-06
-1.55467e-05
8.24095e-06
-1.61404e-05
8.60887e-06
-1.57583e-05
-1.63382e-05
8.0286e-06
5.94168e-06
-2.78074e-05
6.22256e-06
-2.91862e-05
6.38463e-06
-2.60058e-05
6.5908e-06
-2.62963e-05
6.81737e-06
-2.3769e-05
6.99101e-06
-2.42261e-05
7.34184e-06
-2.18532e-05
7.49498e-06
-2.18774e-05
7.87245e-06
-2.01219e-05
8.00658e-06
-2.02073e-05
8.43877e-06
-1.86908e-05
8.54744e-06
-1.89709e-05
9.04456e-06
-1.78279e-05
9.1333e-06
-1.80494e-05
9.47348e-06
-1.74078e-05
9.42322e-06
-1.75307e-05
9.60328e-06
-1.73e-05
-1.72879e-05
9.2662e-06
7.0922e-06
-3.18122e-05
7.32862e-06
-3.30977e-05
7.51208e-06
-2.96844e-05
7.65512e-06
-2.97431e-05
7.92683e-06
-2.71493e-05
8.04469e-06
-2.72746e-05
8.49889e-06
-2.50496e-05
8.66186e-06
-2.462e-05
9.09937e-06
-2.29713e-05
9.28214e-06
-2.26606e-05
9.77034e-06
-2.13006e-05
9.90368e-06
-2.1102e-05
1.03551e-05
-2.01494e-05
1.04706e-05
-1.99282e-05
1.07485e-05
-1.93424e-05
1.07121e-05
-1.90595e-05
1.07611e-05
-1.8827e-05
-1.84809e-05
1.05575e-05
8.25166e-06
-3.59233e-05
8.38299e-06
-3.7244e-05
8.70542e-06
-3.38051e-05
8.87237e-06
-3.35074e-05
9.30605e-06
-3.09525e-05
9.43279e-06
-3.0575e-05
9.94532e-06
-2.85204e-05
1.01221e-05
-2.75727e-05
1.05778e-05
-2.60163e-05
1.08056e-05
-2.5322e-05
1.12866e-05
-2.40534e-05
1.14955e-05
-2.3444e-05
1.18727e-05
-2.25227e-05
1.2024e-05
-2.19566e-05
1.22329e-05
-2.13133e-05
1.22829e-05
-2.07708e-05
1.21685e-05
-2.02785e-05
-1.98504e-05
1.20596e-05
9.64865e-06
-4.03725e-05
9.77204e-06
-4.16365e-05
1.01426e-05
-3.81908e-05
1.02289e-05
-3.73945e-05
1.07272e-05
-3.49968e-05
1.08934e-05
-3.40722e-05
1.13872e-05
-3.21103e-05
1.16426e-05
-3.07227e-05
1.21213e-05
-2.9189e-05
1.24414e-05
-2.81645e-05
1.29227e-05
-2.68873e-05
1.32441e-05
-2.59652e-05
1.35763e-05
-2.49129e-05
1.37756e-05
-2.40858e-05
1.39289e-05
-2.32763e-05
1.39896e-05
-2.25333e-05
1.39246e-05
-2.18156e-05
-2.10603e-05
1.36259e-05
1.1404e-05
-4.50759e-05
1.15303e-05
-4.61123e-05
1.19818e-05
-4.27192e-05
1.21054e-05
-4.13619e-05
1.26726e-05
-3.9135e-05
1.29258e-05
-3.76613e-05
1.33264e-05
-3.55993e-05
1.36568e-05
-3.39274e-05
1.4123e-05
-3.23235e-05
1.44854e-05
-3.10132e-05
1.49237e-05
-2.96403e-05
1.52703e-05
-2.84688e-05
1.56233e-05
-2.72793e-05
1.58463e-05
-2.61919e-05
1.59853e-05
-2.51775e-05
1.60383e-05
-2.42378e-05
1.59972e-05
-2.33262e-05
-2.2398e-05
1.58774e-05
1.34512e-05
-4.97792e-05
1.35779e-05
-5.03692e-05
1.40144e-05
-4.70111e-05
1.42217e-05
-4.51803e-05
1.48057e-05
-4.30592e-05
1.51865e-05
-4.11389e-05
1.56477e-05
-3.89147e-05
1.61537e-05
-3.70758e-05
1.66963e-05
-3.53091e-05
1.71457e-05
-3.37269e-05
1.75798e-05
-3.21746e-05
1.7912e-05
-3.07514e-05
1.81976e-05
-2.93773e-05
1.84233e-05
-2.81054e-05
1.85615e-05
-2.68894e-05
1.86244e-05
-2.57697e-05
1.86057e-05
-2.46844e-05
-2.35994e-05
1.85164e-05
1.55936e-05
-5.36233e-05
1.57969e-05
-5.40173e-05
1.63279e-05
-5.07301e-05
1.67764e-05
-4.85834e-05
1.73947e-05
-4.63892e-05
1.78684e-05
-4.40989e-05
1.84546e-05
-4.17785e-05
1.90523e-05
-3.9763e-05
1.96433e-05
-3.78171e-05
2.01518e-05
-3.59973e-05
2.06001e-05
-3.42456e-05
2.09643e-05
-3.26137e-05
2.12706e-05
-3.10667e-05
2.15163e-05
-2.96326e-05
2.17005e-05
-2.82628e-05
2.18097e-05
-2.69837e-05
2.1849e-05
-2.57559e-05
-2.45204e-05
2.18037e-05
1.83224e-05
-5.64085e-05
1.88804e-05
-5.66485e-05
1.96313e-05
-5.33453e-05
2.03893e-05
-5.10258e-05
2.11235e-05
-4.86315e-05
2.17344e-05
-4.60556e-05
2.24853e-05
-4.37388e-05
2.31676e-05
-4.15293e-05
2.37925e-05
-3.94132e-05
2.43272e-05
-3.74027e-05
2.47919e-05
-3.54959e-05
2.51844e-05
-3.37172e-05
2.55205e-05
-3.20505e-05
2.57881e-05
-3.04948e-05
2.59811e-05
-2.90025e-05
2.60951e-05
-2.76011e-05
2.61421e-05
-2.62713e-05
-2.49244e-05
2.61077e-05
2.17814e-05
-5.74117e-05
2.27548e-05
-5.73178e-05
2.36967e-05
-5.38977e-05
2.45418e-05
-5.14292e-05
2.52728e-05
-4.88814e-05
2.61638e-05
-4.64334e-05
2.70504e-05
-4.40962e-05
2.78986e-05
-4.18398e-05
2.86623e-05
-3.96379e-05
2.93293e-05
-3.75296e-05
2.99025e-05
-3.55417e-05
3.03806e-05
-3.36826e-05
3.0777e-05
-3.1961e-05
3.10799e-05
-3.03448e-05
3.12876e-05
-2.87864e-05
3.14113e-05
-2.73207e-05
3.14584e-05
-2.59418e-05
-2.45848e-05
3.1469e-05
2.22806e-05
-5.51773e-05
2.33006e-05
-5.51156e-05
2.4542e-05
-5.20078e-05
2.56863e-05
-4.95782e-05
2.68393e-05
-4.71944e-05
2.78332e-05
-4.47263e-05
2.87133e-05
-4.24112e-05
2.9491e-05
-4.01981e-05
3.01949e-05
-3.80744e-05
3.08339e-05
-3.6034e-05
3.14125e-05
-3.41167e-05
3.19299e-05
-3.23181e-05
3.23785e-05
-3.0654e-05
3.27317e-05
-2.90761e-05
3.29837e-05
-2.7537e-05
3.31511e-05
-2.60793e-05
3.32389e-05
-2.47159e-05
-2.34238e-05
3.33034e-05
1.97188e-05
-5.14769e-05
2.09044e-05
-5.1111e-05
2.20889e-05
-4.82287e-05
2.33944e-05
-4.61968e-05
2.45477e-05
-4.3945e-05
2.55726e-05
-4.16134e-05
2.6454e-05
-3.93951e-05
2.72249e-05
-3.73145e-05
2.79217e-05
-3.53755e-05
2.85672e-05
-3.35236e-05
2.9157e-05
-3.17632e-05
2.96827e-05
-3.00892e-05
3.01332e-05
-2.85304e-05
3.04828e-05
-2.70442e-05
3.0735e-05
-2.55891e-05
3.09131e-05
-2.41997e-05
3.10227e-05
-2.29017e-05
-2.16768e-05
3.10725e-05
1.82429e-05
-4.65389e-05
1.94007e-05
-4.59892e-05
2.05784e-05
-4.34224e-05
2.16573e-05
-4.16358e-05
2.26694e-05
-3.96636e-05
2.36414e-05
-3.76335e-05
2.45417e-05
-3.56541e-05
2.53664e-05
-3.3784e-05
2.61095e-05
-3.20564e-05
2.67636e-05
-3.04102e-05
2.73233e-05
-2.88208e-05
2.7793e-05
-2.72872e-05
2.81737e-05
-2.5847e-05
2.84478e-05
-2.44667e-05
2.86378e-05
-2.31413e-05
2.87635e-05
-2.18677e-05
2.883e-05
-2.06691e-05
-1.95485e-05
2.88494e-05
1.60898e-05
-4.12035e-05
1.73101e-05
-4.04646e-05
1.84598e-05
-3.81505e-05
1.94739e-05
-3.65927e-05
2.04299e-05
-3.49242e-05
2.13425e-05
-3.32128e-05
2.22004e-05
-3.15276e-05
2.29827e-05
-2.98998e-05
2.36667e-05
-2.83691e-05
2.42383e-05
-2.69091e-05
2.4717e-05
-2.55145e-05
2.51184e-05
-2.41589e-05
2.54438e-05
-2.28712e-05
2.56972e-05
-2.16374e-05
2.58983e-05
-2.04739e-05
2.60437e-05
-1.93425e-05
2.61519e-05
-1.82819e-05
-1.72931e-05
2.62295e-05
1.40342e-05
-3.51518e-05
1.51348e-05
-3.47681e-05
1.6492e-05
-3.30354e-05
1.76751e-05
-3.16622e-05
1.87071e-05
-3.02004e-05
1.95781e-05
-2.86798e-05
2.0343e-05
-2.72313e-05
2.10151e-05
-2.58411e-05
2.16034e-05
-2.45299e-05
2.211e-05
-2.32715e-05
2.25447e-05
-2.20845e-05
2.29092e-05
-2.09234e-05
2.32129e-05
-1.9812e-05
2.34542e-05
-1.87366e-05
2.3635e-05
-1.77199e-05
2.37666e-05
-1.67354e-05
2.38662e-05
-1.58201e-05
-1.49632e-05
2.39344e-05
1.28258e-05
-2.9462e-05
1.39409e-05
-2.92986e-05
1.51682e-05
-2.79815e-05
1.6236e-05
-2.67883e-05
1.71409e-05
-2.5505e-05
1.79346e-05
-2.42131e-05
1.86341e-05
-2.29929e-05
1.92511e-05
-2.18329e-05
1.97874e-05
-2.07413e-05
2.02365e-05
-1.96735e-05
2.06098e-05
-1.86707e-05
2.09271e-05
-1.77047e-05
2.11958e-05
-1.67782e-05
2.14169e-05
-1.58731e-05
2.15942e-05
-1.50148e-05
2.17305e-05
-1.41772e-05
2.18328e-05
-1.33995e-05
-1.26724e-05
2.19055e-05
1.15484e-05
-2.4264e-05
1.26795e-05
-2.42235e-05
1.37556e-05
-2.31236e-05
1.46862e-05
-2.20974e-05
1.55393e-05
-2.10508e-05
1.6328e-05
-2.00114e-05
1.70284e-05
-1.90105e-05
1.76002e-05
-1.80163e-05
1.80549e-05
-1.70855e-05
1.84211e-05
-1.61949e-05
1.87141e-05
-1.53648e-05
1.89536e-05
-1.4574e-05
1.91472e-05
-1.38197e-05
1.93098e-05
-1.30872e-05
1.94464e-05
-1.23921e-05
1.9559e-05
-1.17109e-05
1.96528e-05
-1.10772e-05
-1.04872e-05
1.97316e-05
1.03378e-05
-1.92482e-05
1.14147e-05
-1.95485e-05
1.24223e-05
-1.86253e-05
1.33084e-05
-1.77654e-05
1.40995e-05
-1.69136e-05
1.47805e-05
-1.6052e-05
1.53569e-05
-1.52269e-05
1.58421e-05
-1.44142e-05
1.62491e-05
-1.36635e-05
1.65963e-05
-1.29563e-05
1.68923e-05
-1.23055e-05
1.7144e-05
-1.16854e-05
1.73474e-05
-1.10826e-05
1.75073e-05
-1.04947e-05
1.76155e-05
-9.92241e-06
1.76943e-05
-9.37578e-06
1.77469e-05
-8.86769e-06
-8.40195e-06
1.77828e-05
9.17783e-06
-1.46967e-05
1.01669e-05
-1.52753e-05
1.11342e-05
-1.45516e-05
1.19806e-05
-1.3832e-05
1.26976e-05
-1.31133e-05
1.33007e-05
-1.24e-05
1.38024e-05
-1.17293e-05
1.42209e-05
-1.10795e-05
1.45736e-05
-1.04991e-05
1.48701e-05
-9.95863e-06
1.51076e-05
-9.45856e-06
1.52851e-05
-8.97609e-06
1.54092e-05
-8.50484e-06
1.54929e-05
-8.04886e-06
1.55432e-05
-7.60419e-06
1.55688e-05
-7.18282e-06
1.55817e-05
-6.80075e-06
-6.44899e-06
1.55792e-05
8.42281e-06
-1.0898e-05
9.32046e-06
-1.1406e-05
1.01122e-05
-1.07692e-05
1.08061e-05
-1.01871e-05
1.13895e-05
-9.59618e-06
1.18606e-05
-9.00751e-06
1.22319e-05
-8.46941e-06
1.25324e-05
-7.97271e-06
1.27643e-05
-7.53714e-06
1.29384e-05
-7.14057e-06
1.30545e-05
-6.77251e-06
1.31223e-05
-6.41996e-06
1.31436e-05
-6.06923e-06
1.31372e-05
-5.74146e-06
1.3113e-05
-5.4253e-06
1.30749e-05
-5.12514e-06
1.30272e-05
-4.85879e-06
-4.61434e-06
1.29704e-05
7.67067e-06
-7.32563e-06
8.45428e-06
-7.90276e-06
9.06185e-06
-7.25855e-06
9.47616e-06
-6.6928e-06
9.75578e-06
-6.18016e-06
9.95644e-06
-5.72478e-06
1.01071e-05
-5.34404e-06
1.02224e-05
-5.0125e-06
1.02791e-05
-4.7086e-06
1.02963e-05
-4.45264e-06
1.02795e-05
-4.21962e-06
1.02311e-05
-3.99445e-06
1.01694e-05
-3.77928e-06
1.00897e-05
-3.5724e-06
9.99567e-06
-3.37119e-06
9.89652e-06
-3.18498e-06
9.78313e-06
-3.01536e-06
-2.85906e-06
9.65512e-06
6.78418e-06
-4.31726e-06
6.98518e-06
-4.26896e-06
7.02686e-06
-3.6113e-06
6.99531e-06
-3.1548e-06
6.96105e-06
-2.82599e-06
6.96257e-06
-2.59295e-06
6.98908e-06
-2.42039e-06
7.0357e-06
-2.28621e-06
7.05923e-06
-2.12858e-06
7.07081e-06
-2.02086e-06
7.05551e-06
-1.91148e-06
7.02581e-06
-1.81341e-06
6.98135e-06
-1.71532e-06
6.92542e-06
-1.62043e-06
6.86351e-06
-1.52919e-06
6.79455e-06
-1.44421e-06
6.72447e-06
-1.37487e-06
-1.31008e-06
6.6522e-06
4.65526e-06
3.83193e-06
3.51955e-06
3.49327e-06
3.6236e-06
3.81561e-06
4.01261e-06
4.18256e-06
4.35629e-06
4.49254e-06
4.60161e-06
4.68069e-06
4.73842e-06
4.77927e-06
4.80706e-06
4.82257e-06
4.81741e-06
4.79641e-06
5.78216e-08
1.74363e-06
5.59334e-08
1.90467e-06
5.1427e-10
1.99987e-06
2.11909e-08
1.92558e-06
1.70828e-07
1.78941e-06
4.54906e-07
1.64416e-06
8.36264e-07
1.53785e-06
1.28502e-06
1.46257e-06
1.7727e-06
1.41653e-06
2.31034e-06
1.35787e-06
2.88039e-06
1.31571e-06
3.47885e-06
1.2748e-06
4.08189e-06
1.25493e-06
4.69218e-06
1.23038e-06
5.30146e-06
1.21331e-06
5.87541e-06
1.22883e-06
6.39224e-06
1.26075e-06
6.84297e-06
1.30237e-06
7.24535e-06
1.3295e-06
7.59409e-06
1.35325e-06
7.84858e-06
1.4197e-06
8.02433e-06
1.46928e-06
8.14676e-06
1.49037e-06
8.17347e-06
1.55635e-06
8.08996e-06
1.63008e-06
7.89159e-06
1.70783e-06
7.57474e-06
1.78646e-06
7.09184e-06
1.91007e-06
6.44899e-06
2.02127e-06
5.54575e-06
2.22932e-06
4.42834e-06
2.39266e-06
3.04151e-06
2.61448e-06
1.61901e-06
2.59955e-06
5.7006e-07
2.15763e-06
-1.95121e-07
1.80456e-06
-6.51145e-07
1.45519e-06
-9.53455e-07
1.25448e-06
-1.29113e-06
1.22674e-06
-1.39307e-06
9.29655e-07
-1.25784e-06
6.31709e-07
-9.4579e-07
3.87447e-07
-4.10585e-07
9.26101e-08
1.96332e-07
-4.54545e-08
6.98726e-07
5.02419e-09
9.025e-07
2.40226e-07
5.06262e-07
7.79122e-07
-4.0203e-07
1.2393e-06
-1.50588e-06
1.38512e-06
-2.55888e-06
1.28443e-06
-3.62069e-06
1.21126e-06
-4.28478e-06
7.03144e-07
-3.88951e-06
-4.08653e-07
-3.2329e-06
-7.01974e-07
-3.04537e-06
-3.01234e-07
-3.09048e-06
-1.22467e-07
-3.67636e-06
3.93389e-07
-5.03073e-06
1.08204e-06
-6.84419e-06
1.41277e-06
-8.49128e-06
1.17511e-06
-9.84082e-06
8.34032e-07
-1.09436e-05
5.23503e-07
-1.18252e-05
2.37038e-07
-1.25095e-05
-3.01247e-08
-1.30098e-05
-2.85325e-07
-1.33573e-05
-5.12335e-07
-1.35699e-05
-7.23932e-07
-1.36629e-05
-9.22088e-07
-1.36571e-05
-1.10069e-06
-1.35695e-05
-1.26552e-06
-1.34079e-05
-1.42417e-06
-1.31803e-05
-1.57648e-06
-1.2896e-05
-1.72016e-06
-1.25648e-05
-1.85604e-06
-1.21993e-05
-1.98013e-06
-1.17895e-05
-2.11537e-06
-1.13518e-05
-2.23399e-06
-1.09039e-05
-2.33475e-06
-1.04207e-05
-2.46015e-06
-9.94362e-06
-2.54296e-06
-9.47268e-06
-2.62473e-06
-8.97946e-06
-2.73324e-06
-8.48779e-06
-2.81658e-06
-7.97061e-06
-2.92606e-06
-7.44676e-06
-3.015e-06
-6.90563e-06
-3.11255e-06
-6.37656e-06
-3.17749e-06
-5.88681e-06
-3.21222e-06
-5.38179e-06
-3.30118e-06
-4.85362e-06
-3.39673e-06
-4.34612e-06
-3.44987e-06
-3.86989e-06
-3.48992e-06
-3.41863e-06
-3.53388e-06
-2.97403e-06
-3.59603e-06
-2.59284e-06
-3.59726e-06
-2.23743e-06
-3.63561e-06
-1.90412e-06
-3.67522e-06
-1.62676e-06
-3.67852e-06
-1.36782e-06
-3.7153e-06
-1.19213e-06
-3.68427e-06
-1.01997e-06
-3.72617e-06
-9.02485e-07
-3.70803e-06
-8.25369e-07
-3.69219e-06
-8.06488e-07
-3.64381e-06
-8.43433e-07
-3.58092e-06
-8.88397e-07
-3.5487e-06
-9.45034e-07
-3.49437e-06
-1.07411e-06
-3.36125e-06
-1.4449e-06
-3.03126e-06
-2.04879e-06
-2.68834e-06
-2.8581e-06
-2.36601e-06
-3.82011e-06
-2.08014e-06
-4.84412e-06
-1.85939e-06
-5.8618e-06
-1.68903e-06
-6.70307e-06
-1.67005e-06
-7.38098e-06
-1.60032e-06
-8.09419e-06
-1.29556e-06
-8.90163e-06
-9.11614e-07
-9.71888e-06
-5.87299e-07
-1.04494e-05
-3.29337e-07
-1.08751e-05
-2.63924e-07
-1.10868e-05
-1.08396e-07
-1.12387e-05
2.01647e-07
-1.14035e-05
6.1862e-07
-1.15978e-05
1.06261e-06
-1.17349e-05
1.37198e-06
-1.19606e-05
1.76582e-06
-1.24429e-05
2.30304e-06
-1.31762e-05
2.89431e-06
-1.39354e-05
3.24184e-06
-1.45112e-05
3.35643e-06
-1.45594e-05
3.12367e-06
-1.41947e-05
3.03307e-06
-1.35483e-05
3.158e-06
-1.24112e-05
3.11744e-06
-1.14916e-05
3.74064e-06
-1.13555e-05
5.06075e-06
-1.17497e-05
6.35324e-06
-1.27334e-05
7.62034e-06
-1.3166e-05
7.59672e-06
-1.26446e-05
7.0501e-06
-1.21318e-05
7.25003e-06
-1.17419e-05
7.74762e-06
-1.17843e-05
8.54332e-06
-1.28757e-05
9.78482e-06
-1.37974e-05
1.01359e-05
-1.45813e-05
1.02992e-05
-1.61856e-05
1.14025e-05
-1.60715e-05
9.83289e-06
-1.66848e-05
1.09438e-05
-1.56922e-05
9.27199e-06
-1.44504e-05
9.32155e-06
-1.24154e-05
8.72487e-06
-1.04559e-05
9.08686e-06
-8.20387e-06
9.09247e-06
-6.56218e-06
9.99391e-06
-5.35274e-06
1.07697e-05
-4.95265e-06
1.18517e-05
-5.21201e-06
1.28616e-05
-5.84888e-06
1.35436e-05
-6.55807e-06
1.39344e-05
-7.10582e-06
1.42481e-05
-7.73679e-06
1.51093e-05
-8.01584e-06
1.57032e-05
-6.82763e-06
1.51266e-05
-5.74278e-06
1.55631e-05
-4.44259e-06
1.56679e-05
-5.50975e-06
1.83223e-05
-6.40608e-06
1.9973e-05
-4.57493e-06
1.82111e-05
1.5245e-06
1.454e-05
7.68529e-06
1.37911e-05
1.0791e-05
1.61644e-05
1.32303e-05
1.68966e-05
1.61035e-05
1.64132e-05
1.71633e-05
1.75476e-05
1.78863e-05
1.70622e-05
1.77816e-05
1.70299e-05
1.68734e-05
1.64876e-05
1.62699e-05
1.54629e-05
1.49462e-05
1.49794e-05
1.18506e-07
3.33909e-06
3.30943e-07
3.48023e-06
5.24538e-07
3.65828e-06
7.30153e-07
3.57545e-06
1.009e-06
3.33217e-06
1.38006e-06
3.05896e-06
1.83193e-06
2.85206e-06
2.3161e-06
2.7336e-06
2.8247e-06
2.65544e-06
3.36323e-06
2.55652e-06
3.96473e-06
2.44399e-06
4.56919e-06
2.3883e-06
5.17632e-06
2.34837e-06
5.7695e-06
2.3174e-06
6.34818e-06
2.30027e-06
6.91517e-06
2.31848e-06
7.43741e-06
2.38029e-06
7.87358e-06
2.49025e-06
8.229e-06
2.58263e-06
8.54818e-06
2.63341e-06
8.83464e-06
2.72613e-06
9.05086e-06
2.82672e-06
9.22663e-06
2.87804e-06
9.34188e-06
2.99171e-06
9.38859e-06
3.1064e-06
9.34542e-06
3.24656e-06
9.21482e-06
3.3855e-06
8.98794e-06
3.56061e-06
8.66945e-06
3.72443e-06
8.2496e-06
3.99412e-06
7.63723e-06
4.27638e-06
6.89886e-06
4.56305e-06
5.88654e-06
4.76712e-06
4.27837e-06
4.85153e-06
2.43823e-06
4.67912e-06
8.70366e-07
4.01457e-06
-2.05882e-07
3.26129e-06
-7.49698e-07
2.66201e-06
-8.23981e-07
1.83384e-06
-6.18164e-07
1.20132e-06
-1.4514e-07
6.21464e-07
6.15727e-07
-3.92627e-08
1.38992e-06
-2.58876e-07
1.99076e-06
-1.07512e-07
2.06084e-06
5.72897e-07
1.69361e-06
1.50098e-06
1.13406e-06
2.11188e-06
4.40316e-07
2.30876e-06
-1.08485e-07
2.01461e-06
-4.21362e-07
1.65722e-06
-1.2249e-06
1.53701e-06
-3.07273e-06
1.44818e-06
-5.74581e-06
1.98866e-06
-8.86955e-06
2.71903e-06
-1.1772e-05
2.56834e-06
-1.3882e-05
2.24394e-06
-1.52423e-05
2.11123e-06
-1.60554e-05
1.84198e-06
-1.68003e-05
1.47691e-06
-1.74531e-05
9.89465e-07
-1.79499e-05
4.57288e-07
-1.83328e-05
-5.49578e-09
-1.85615e-05
-4.92795e-07
-1.86897e-05
-9.15209e-07
-1.86956e-05
-1.33214e-06
-1.86091e-05
-1.70829e-06
-1.84281e-05
-2.07259e-06
-1.81698e-05
-2.40435e-06
-1.78434e-05
-2.7141e-06
-1.7451e-05
-3.01639e-06
-1.70071e-05
-3.30065e-06
-1.65212e-05
-3.5669e-06
-1.59939e-05
-3.82703e-06
-1.5444e-05
-4.05815e-06
-1.48711e-05
-4.30115e-06
-1.42781e-05
-4.52482e-06
-1.36749e-05
-4.71964e-06
-1.30654e-05
-4.93617e-06
-1.24435e-05
-5.11364e-06
-1.1823e-05
-5.27331e-06
-1.12012e-05
-5.46297e-06
-1.05901e-05
-5.61515e-06
-9.9768e-06
-5.80324e-06
-9.34784e-06
-5.98434e-06
-8.69199e-06
-6.18429e-06
-8.04809e-06
-6.31102e-06
-7.41548e-06
-6.40179e-06
-6.79292e-06
-6.54927e-06
-6.15982e-06
-6.72107e-06
-5.55366e-06
-6.81997e-06
-4.94645e-06
-6.93065e-06
-4.37704e-06
-7.00816e-06
-3.84581e-06
-7.10354e-06
-3.35185e-06
-7.13642e-06
-2.89815e-06
-7.20125e-06
-2.45496e-06
-7.29522e-06
-2.09032e-06
-7.29142e-06
-1.7288e-06
-7.38699e-06
-1.46983e-06
-7.32996e-06
-1.21298e-06
-7.41546e-06
-1.03085e-06
-7.38668e-06
-8.70144e-07
-7.39507e-06
-7.52886e-07
-7.35346e-06
-7.2488e-07
-7.24027e-06
-8.25848e-07
-7.07908e-06
-1.07294e-06
-6.81371e-06
-1.44921e-06
-6.45886e-06
-2.01308e-06
-5.84407e-06
-2.7788e-06
-5.17908e-06
-3.70464e-06
-4.56527e-06
-4.69944e-06
-4.0633e-06
-5.71154e-06
-3.65157e-06
-6.65302e-06
-3.37603e-06
-7.35969e-06
-3.41869e-06
-7.81866e-06
-3.39026e-06
-8.33149e-06
-2.79072e-06
-8.95972e-06
-2.01809e-06
-9.67825e-06
-1.24492e-06
-1.02919e-05
-6.52413e-07
-1.06797e-05
-3.83342e-07
-1.08513e-05
-1.86479e-07
-1.08625e-05
1.26514e-07
-1.06911e-05
6.5502e-07
-1.06911e-05
1.90054e-06
-1.09464e-05
3.24119e-06
-1.13437e-05
4.08776e-06
-1.20095e-05
4.83517e-06
-1.27876e-05
5.72151e-06
-1.34795e-05
6.25917e-06
-1.39814e-05
6.40994e-06
-1.40574e-05
5.99512e-06
-1.38122e-05
5.82338e-06
-1.32393e-05
5.93265e-06
-1.16105e-05
5.20847e-06
-9.6281e-06
5.76051e-06
-7.99987e-06
7.765e-06
-6.85688e-06
1.04831e-05
-6.9759e-06
1.44138e-05
-7.76732e-06
1.64178e-05
-8.5266e-06
1.6327e-05
-9.32589e-06
1.6428e-05
-9.4771e-06
1.63716e-05
-1.07541e-05
1.85688e-05
-1.34775e-05
2.11162e-05
-1.46682e-05
2.06953e-05
-1.53365e-05
2.03241e-05
-1.62485e-05
2.2622e-05
-1.61654e-05
1.8852e-05
-1.61585e-05
2.15807e-05
-1.47849e-05
1.75133e-05
-1.33328e-05
1.75238e-05
-1.06372e-05
1.59037e-05
-7.82964e-06
1.64528e-05
-5.11172e-06
1.69112e-05
-2.50961e-06
1.82989e-05
-5.45686e-07
2.02375e-05
9.68458e-07
2.22245e-05
1.6317e-06
2.47394e-05
9.39343e-07
2.73379e-05
-6.44697e-07
2.934e-05
-2.62804e-06
3.02801e-05
-4.21028e-06
3.1728e-05
-4.70598e-06
3.27287e-05
-3.87423e-06
3.27156e-05
-3.15371e-06
3.3757e-05
-3.91939e-06
3.54334e-05
-5.54798e-06
4.02881e-05
-5.707e-06
4.20181e-05
-3.77627e-06
3.77837e-05
3.91673e-06
2.93799e-05
1.21162e-05
2.72911e-05
1.59655e-05
3.39059e-05
1.83602e-05
3.63023e-05
2.1656e-05
3.51483e-05
2.26143e-05
3.90037e-05
2.29783e-05
3.8183e-05
2.16622e-05
3.92443e-05
1.92299e-05
3.75724e-05
1.77698e-05
3.57131e-05
3.3528e-05
1.64419e-05
9.02375e-08
4.83869e-06
2.63298e-07
4.90421e-06
5.14031e-07
4.99265e-06
8.25137e-07
4.81558e-06
1.20216e-06
4.47478e-06
1.62855e-06
4.1422e-06
2.05289e-06
3.94263e-06
2.47169e-06
3.83945e-06
2.9124e-06
3.7459e-06
3.38262e-06
3.61827e-06
3.89964e-06
3.45977e-06
4.44055e-06
3.37565e-06
4.99025e-06
3.31993e-06
5.50715e-06
3.31393e-06
5.99096e-06
3.32875e-06
6.44971e-06
3.37492e-06
6.85334e-06
3.49278e-06
7.19325e-06
3.66988e-06
7.4854e-06
3.82035e-06
7.73303e-06
3.93931e-06
7.94552e-06
4.08e-06
8.14151e-06
4.19474e-06
8.29809e-06
4.28557e-06
8.43139e-06
4.40774e-06
8.53115e-06
4.52672e-06
8.57392e-06
4.68417e-06
8.58206e-06
4.814e-06
8.54954e-06
5.00166e-06
8.41576e-06
5.22102e-06
8.21637e-06
5.50563e-06
8.02215e-06
5.73193e-06
7.69923e-06
6.10673e-06
7.15195e-06
6.45041e-06
6.42836e-06
6.61728e-06
5.46041e-06
6.63464e-06
4.00728e-06
6.35663e-06
2.3363e-06
5.73071e-06
1.11086e-06
4.65732e-06
3.49162e-07
3.28791e-06
1.92054e-07
2.03059e-06
7.12022e-07
7.17676e-07
1.47789e-06
-2.59439e-07
2.1225e-06
-4.25317e-07
2.28376e-06
1.1505e-07
2.02462e-06
1.13245e-06
1.42423e-06
2.3973e-06
5.28476e-07
3.20111e-06
-6.79879e-07
3.63308e-06
-2.61706e-06
4.01267e-06
-5.24559e-06
4.35464e-06
-8.30065e-06
4.63789e-06
-1.16359e-05
4.75152e-06
-1.41064e-05
4.35791e-06
-1.54849e-05
3.95216e-06
-1.65599e-05
3.45333e-06
-1.7553e-05
2.98997e-06
-1.82108e-05
2.4789e-06
-1.85989e-05
1.89075e-06
-1.87485e-05
1.23617e-06
-1.88319e-05
6.28386e-07
-1.88477e-05
-2.31157e-08
-1.88016e-05
-6.04448e-07
-1.87026e-05
-1.20379e-06
-1.8563e-05
-1.72401e-06
-1.83448e-05
-2.28019e-06
-1.80786e-05
-2.76284e-06
-1.77427e-05
-3.26266e-06
-1.73577e-05
-3.70702e-06
-1.69273e-05
-4.12771e-06
-1.64441e-05
-4.5505e-06
-1.59241e-05
-4.93935e-06
-1.53716e-05
-5.30852e-06
-1.47823e-05
-5.67254e-06
-1.41661e-05
-6.00418e-06
-1.35559e-05
-6.30988e-06
-1.29518e-05
-6.60131e-06
-1.23573e-05
-6.85425e-06
-1.17433e-05
-7.16286e-06
-1.11337e-05
-7.40364e-06
-1.05169e-05
-7.63357e-06
-9.87893e-06
-7.90841e-06
-9.238e-06
-8.12484e-06
-8.59723e-06
-8.37072e-06
-7.97609e-06
-8.59075e-06
-7.35328e-06
-8.84761e-06
-6.71709e-06
-9.04007e-06
-6.04041e-06
-9.21606e-06
-5.45094e-06
-9.3263e-06
-4.81878e-06
-9.58137e-06
-4.22754e-06
-9.68981e-06
-3.65456e-06
-9.82269e-06
-3.12418e-06
-9.90379e-06
-2.62932e-06
-9.99773e-06
-2.14535e-06
-1.00648e-05
-1.72526e-06
-1.01027e-05
-1.30145e-06
-1.02335e-05
-9.47815e-07
-1.02042e-05
-6.02011e-07
-1.03202e-05
-3.41584e-07
-1.02391e-05
-1.02265e-07
-1.03223e-05
5.16001e-08
-1.02711e-05
1.90542e-07
-1.0305e-05
3.28895e-07
-1.03197e-05
3.8427e-07
-1.02068e-05
2.15575e-07
-9.94352e-06
-1.72818e-07
-9.5684e-06
-6.50144e-07
-9.1487e-06
-1.26047e-06
-8.34492e-06
-2.04901e-06
-7.38756e-06
-2.94643e-06
-6.52002e-06
-3.80998e-06
-5.90444e-06
-4.69703e-06
-5.28164e-06
-5.59969e-06
-4.82293e-06
-6.29334e-06
-4.93444e-06
-6.77218e-06
-4.86694e-06
-7.14821e-06
-4.11945e-06
-7.54665e-06
-3.13968e-06
-7.94418e-06
-2.05267e-06
-8.50144e-06
-7.89636e-07
-9.10943e-06
7.29158e-08
-9.60136e-06
3.4803e-07
-9.90078e-06
3.9063e-07
-9.84042e-06
3.69971e-07
-9.28753e-06
1.22231e-06
-8.85806e-06
3.76509e-06
-9.0509e-06
6.43726e-06
-9.62943e-06
7.65921e-06
-1.02629e-05
8.42748e-06
-1.08091e-05
8.98462e-06
-1.12883e-05
9.29393e-06
-1.16456e-05
9.19468e-06
-1.20314e-05
9.61228e-06
-1.2234e-05
9.89247e-06
-1.16017e-05
8.39031e-06
-9.933e-06
7.92668e-06
-8.34306e-06
1.00838e-05
-6.94876e-06
1.32242e-05
-6.26882e-06
1.86214e-05
-5.96175e-06
2.29305e-05
-6.97098e-06
2.54879e-05
-8.60788e-06
2.65484e-05
-9.96534e-06
2.59322e-05
-1.10589e-05
2.82115e-05
-1.32315e-05
3.19968e-05
-1.52137e-05
3.14714e-05
-1.62108e-05
2.93058e-05
-1.58738e-05
3.14865e-05
-1.52493e-05
2.55659e-05
-1.48833e-05
2.99549e-05
-1.27673e-05
2.44342e-05
-1.15416e-05
2.48593e-05
-8.95418e-06
2.23066e-05
-6.69899e-06
2.34142e-05
-3.68907e-06
2.34132e-05
-1.0307e-06
2.54686e-05
1.16222e-06
2.82484e-05
2.67251e-06
3.12054e-05
3.98468e-06
3.4395e-05
4.35779e-06
3.83018e-05
3.80361e-06
4.24537e-05
2.25757e-06
4.493e-05
1.78015e-07
4.75621e-05
-2.26059e-06
4.92625e-05
-2.86857e-06
4.89561e-05
-2.18427e-06
5.14414e-05
-2.49055e-06
5.37306e-05
-2.20258e-06
6.12284e-05
-1.70461e-06
6.11249e-05
9.10398e-08
5.50253e-05
5.50235e-06
4.36128e-05
1.27857e-05
3.8691e-05
1.74387e-05
4.93925e-05
1.92505e-05
5.5355e-05
2.22497e-05
5.23118e-05
2.42418e-05
5.8858e-05
2.54512e-05
5.82831e-05
2.38906e-05
6.21834e-05
2.08648e-05
6.00657e-05
1.89756e-05
5.77972e-05
5.34223e-05
1.82396e-05
7.9155e-08
6.20308e-06
2.13007e-07
6.19025e-06
4.45188e-07
6.13603e-06
7.62065e-07
5.85334e-06
1.1209e-06
5.47775e-06
1.48959e-06
5.1552e-06
1.82701e-06
5.01409e-06
2.15218e-06
4.94616e-06
2.49599e-06
4.84561e-06
2.87797e-06
4.68511e-06
3.29172e-06
4.49394e-06
3.71499e-06
4.39387e-06
4.12842e-06
4.3445e-06
4.54062e-06
4.33946e-06
4.91159e-06
4.39987e-06
5.23657e-06
4.49402e-06
5.46037e-06
4.72106e-06
5.72633e-06
4.87171e-06
6.00152e-06
5.02949e-06
6.26289e-06
5.16646e-06
6.52587e-06
5.2891e-06
6.78557e-06
5.38629e-06
6.99587e-06
5.48142e-06
7.12963e-06
5.62879e-06
7.20244e-06
5.75552e-06
7.21312e-06
5.90813e-06
7.17002e-06
6.04981e-06
7.11448e-06
6.22807e-06
7.0442e-06
6.43923e-06
7.02224e-06
6.66167e-06
6.89964e-06
6.96225e-06
6.80211e-06
7.28741e-06
6.55758e-06
7.74395e-06
6.14696e-06
8.02968e-06
5.55943e-06
8.17828e-06
4.72943e-06
8.02724e-06
3.69656e-06
7.49534e-06
2.5212e-06
6.4838e-06
1.339e-06
5.04389e-06
6.85425e-07
3.25419e-06
6.26818e-07
1.28704e-06
3.13591e-07
5.08481e-07
-5.45357e-07
8.37497e-07
-1.77743e-06
1.72426e-06
-3.35287e-06
2.92987e-06
-5.03086e-06
4.26621e-06
-6.9261e-06
5.22693e-06
-9.17601e-06
5.97368e-06
-1.14385e-05
6.36271e-06
-1.34691e-05
6.41161e-06
-1.50014e-05
6.17084e-06
-1.60654e-05
5.76015e-06
-1.70143e-05
5.21373e-06
-1.77207e-05
4.5196e-06
-1.81964e-05
3.74922e-06
-1.849e-05
3.05902e-06
-1.85737e-05
2.29649e-06
-1.85728e-05
1.57422e-06
-1.85114e-05
8.21143e-07
-1.84127e-05
1.21942e-07
-1.82728e-05
-6.07304e-07
-1.80948e-05
-1.2863e-06
-1.78839e-05
-1.96089e-06
-1.76047e-05
-2.60395e-06
-1.73296e-05
-3.20979e-06
-1.69748e-05
-3.82394e-06
-1.66059e-05
-4.39911e-06
-1.61641e-05
-4.96903e-06
-1.56918e-05
-5.48386e-06
-1.51958e-05
-5.98516e-06
-1.46361e-05
-6.50414e-06
-1.40738e-05
-6.93484e-06
-1.34789e-05
-7.39451e-06
-1.28295e-05
-7.84241e-06
-1.21785e-05
-8.21324e-06
-1.14963e-05
-8.6001e-06
-1.08441e-05
-8.88043e-06
-1.01878e-05
-9.25512e-06
-9.51006e-06
-9.57943e-06
-8.8801e-06
-9.81502e-06
-8.23723e-06
-1.01619e-05
-7.56103e-06
-1.04665e-05
-6.90627e-06
-1.07446e-05
-6.24477e-06
-1.10243e-05
-5.58494e-06
-1.13221e-05
-4.92736e-06
-1.15573e-05
-4.2421e-06
-1.18037e-05
-3.56722e-06
-1.19546e-05
-2.90932e-06
-1.22345e-05
-2.3234e-06
-1.23157e-05
-1.71442e-06
-1.24982e-05
-1.17695e-06
-1.25578e-05
-6.82182e-07
-1.26281e-05
-1.9568e-07
-1.27174e-05
2.20882e-07
-1.27153e-05
6.10579e-07
-1.28325e-05
9.10476e-07
-1.27417e-05
1.20815e-06
-1.28411e-05
1.44195e-06
-1.27068e-05
1.66281e-06
-1.27633e-05
1.82344e-06
-1.26365e-05
1.94615e-06
-1.26194e-05
2.00927e-06
-1.25376e-05
2.00598e-06
-1.23183e-05