/*--------------------------------*- C++ -*----------------------------------*\
| =========                 |                                                 |
| \\      /  F ield         | OpenFOAM: The Open Source CFD Toolbox           |
|  \\    /   O peration     | Version:  dev                                   |
|   \\  /    A nd           | Web:      http://www.openfoam.org               |
|    \\/     M anipulation  |                                                 |
\*---------------------------------------------------------------------------*/
FoamFile
{
    version     2.0;
    format      ascii;
    class       volScalarField;
    object      pMean;
    location    "9.119";
}
// * * * * * * * * * * * * * * * * * * * * * * * * * * * * * * * * * * * * * //

dimensions      [1 -1 -2 0 0 0 0];

internalField   nonuniform List<scalar> 
12225
(
98311.9
98292.1
98278.4
98271.4
98257.1
98247.7
98229.3
98219.7
98198.2
98189.5
98164.8
98157.9
98127
98120.7
98079.9
98040.2
97951.1
97585.3
98307.4
98291.1
98277.8
98270.9
98256.5
98247.1
98228.6
98219.1
98197.5
98189.1
98164.1
98157.4
98126.6
98118.7
98078.2
98044.3
97952.1
97791
98303.7
98289.5
98276.8
98269.5
98255.1
98245.7
98227.1
98217.8
98196.1
98187.6
98163.2
98155.3
98127.2
98115.3
98080.4
98045.2
97977.9
97889.1
98298.6
98286.6
98274.7
98267
98252.7
98243
98225
98215.1
98194.3
98184.9
98161.9
98152.2
98126.1
98113.1
98081.4
98053.6
98005.2
97936.4
98291.9
98282.2
98271.1
98263
98249.1
98238.8
98222
98210.9
98191.9
98180.6
98160.4
98147.7
98126.2
98109.9
98083.3
98059.1
98019.3
97986.6
98283.7
98276
98265.2
98257
98243.5
98232.9
98216.8
98205.2
98187.5
98175.3
98157.1
98143.5
98125.2
98108.2
98086.9
98061.6
98039.4
98019
98273.4
98267.1
98256.7
98248.2
98235.6
98224.5
98209.7
98197.2
98181.4
98167.9
98152.5
98137.5
98122.9
98105.4
98091.1
98070.1
98059.8
98044.8
98262.7
98257
98247.3
98238.7
98226.9
98215.4
98201.9
98188.7
98174.7
98160.3
98147.2
98131.6
98120.1
98102.8
98094
98076.2
98074.5
98059.6
98251.8
98246.4
98237.6
98228.6
98217.8
98206.1
98193.5
98180
98167.4
98152.8
98141.4
98125.9
98116.2
98100.2
98093.9
98079.8
98079.5
98067.6
98238.2
98232.7
98225
98216
98206.1
98194.3
98182.8
98169.3
98158.1
98143.5
98133.6
98118.6
98110.5
98096.1
98091.1
98079.3
98078.6
98070.3
98221.3
98215.8
98209.3
98200.5
98191.3
98179.9
98169.1
98156.2
98145.7
98132.1
98122.7
98109.6
98101.5
98090.1
98084.4
98075.9
98073.2
98068
98200.7
98195
98189.8
98181.3
98173
98161.9
98152
98139.7
98130.1
98117.6
98108.9
98097.5
98089.9
98080.6
98074.9
98068.5
98064.9
98061.3
98175.9
98170.6
98166.1
98158.6
98150.6
98140.6
98131.2
98120.4
98111.1
98100.5
98092
98082.8
98075.5
98068.3
98062.9
98058
98054.4
98051.7
98147.7
98142.9
98138.9
98132.3
98125.1
98116.2
98107.6
98098
98089.5
98080.6
98072.8
98065.3
98058.9
98053.2
98048.5
98044.7
98041.7
98039.6
98117.5
98113.8
98110
98104.6
98098.1
98090.5
98082.7
98074.6
98067
98059.6
98052.9
98046.8
98041.5
98036.9
98033.2
98030.3
98028.1
98026.6
98089.8
98087
98083.7
98079.2
98073.6
98067.1
98060.3
98053.4
98046.8
98040.7
98035.1
98030.1
98025.8
98022.2
98019.4
98017.2
98015.7
98014.7
98071.2
98069.3
98066.5
98062.6
98057.6
98052
98046
98040.1
98034.4
98029.2
98024.4
98020.2
98016.7
98013.8
98011.5
98009.8
98008.6
98008
98071.4
98069.8
98067.2
98063.5
98058.8
98053.4
98047.9
98042.3
98037
98032
98027.6
98023.6
98020.3
98017.5
98015.2
98013.6
98012.3
98011.6
98091.2
98089.4
98086.5
98082.5
98077.6
98072.1
98066.3
98060.5
98054.9
98049.7
98044.9
98040.6
98036.9
98033.7
98031.1
98028.9
98027.2
98026
98122
98119.8
98116.4
98111.9
98106.5
98100.5
98094.1
98087.8
98081.6
98075.8
98070.4
98065.5
98061.1
98057.2
98053.9
98051
98048.7
98046.7
98156.8
98154.2
98150.2
98145
98138.9
98132.3
98125.3
98118.3
98111.5
98105
98098.9
98093.2
98088
98083.4
98079.3
98075.7
98072.6
98069.9
98190.7
98187.7
98182.9
98177
98170.3
98163.1
98155.5
98147.9
98140.5
98133.3
98126.5
98120.1
98114.2
98108.9
98104.1
98099.7
98095.9
98092.5
98221
98217.3
98211.8
98205.3
98198
98190.3
98182.3
98174.2
98166.1
98158.4
98151
98144
98137.5
98131.5
98126.1
98121.1
98116.7
98112.6
98246.3
98242
98235.6
98228.5
98220.8
98212.7
98204.3
98195.8
98187.4
98179.2
98171.3
98163.8
98156.9
98150.4
98144.4
98138.9
98134
98129.4
98266.6
98261.4
98254.2
98246.5
98238.5
98230.2
98221.6
98212.8
98204
98195.4
98187.2
98179.4
98172
98165.1
98158.8
98152.9
98147.5
98142.6
98282.2
98275.9
98267.8
98259.7
98251.5
98243
98234.2
98225.3
98216.3
98207.5
98199
98190.9
98183.2
98176.1
98169.4
98163.3
98157.6
98152.4
98294
98286.2
98277.1
98268.6
98260.3
98251.8
98243
98233.9
98224.8
98215.9
98207.2
98198.9
98191.1
98183.7
98176.9
98170.5
98164.7
98159.3
98302.7
98292.9
98282.8
98274.2
98266
98257.5
98248.6
98239.5
98230.3
98221.3
98212.5
98204.1
98196.1
98188.7
98181.7
98175.2
98169.2
98163.7
98308.8
98296.7
98285.6
98277
98268.9
98260.6
98251.8
98242.7
98233.5
98224.4
98215.5
98207.1
98199
98191.5
98184.4
98177.9
98171.8
98166.2
98314.8
98299.3
98287.2
98278.3
98270.2
98261.8
98253.1
98244
98234.8
98225.7
98216.8
98208.3
98200.2
98192.7
98185.6
98179
98173
98167.4
98311.8
98311.4
98310.6
98309.5
98308
98306.1
98303.9
98301.3
98298.3
98294.8
98290.9
98286.7
98282.1
98277.2
98271.9
98266.5
98260.8
98254.8
98248.7
98242.5
98236
98229.5
98222.8
98216
98209.1
98202.1
98195.1
98188
98180.9
98173.8
98166.7
98159.7
98152.7
98145.7
98138.8
98132.1
98125.4
98119
98112.6
98106.5
98100.6
98094.9
98089.5
98084.4
98079.5
98075.1
98071
98067.2
98064
98061.1
98058.7
98056.8
98055.4
98054.6
98054.3
98054.7
98055.6
98057.2
98059.5
98062.5
98066.1
98070.5
98075.6
98081.4
98087.9
98095.2
98103.2
98111.8
98121.1
98131.1
98141.7
98152.9
98164.6
98176.9
98189.7
98202.9
98216.5
98230.5
98244.8
98259.4
98274.2
98289.2
98304.3
98319.5
98334.8
98350
98365.2
98380.3
98395.2
98409.9
98424.3
98438.5
98452.2
98465.6
98478.5
98490.9
98502.8
98514.2
98524.9
98535
98544.6
98553.4
98561.7
98569.2
98576.2
98582.5
98588.2
98593.4
98598
98602.1
98605.7
98608.9
98611.8
98614.3
98616.5
98618.4
98620
98621.5
98622.7
98623.8
98624.9
98626
98627.2
98628.5
98630.1
98632.1
98634.8
98638.2
98642.6
98648.2
98655.3
98664
98674.7
98687.5
98702.9
98720.9
98741.7
98765.5
98792.2
98822
98855
98890.9
98929.8
98971.3
99015.6
99062.1
99111.1
99161.8
99214.4
99268.6
99324.1
99380.5
99437.5
99494.8
99552.1
99608.7
99664.1
99717.9
99768.9
99816.8
99860.4
99898.8
99930.8
99955.9
99972.7
99980.3
99977.7
99964.7
99940.7
99906
99860.6
99805.9
99741.9
99671.2
99594.2
99513.7
99429.1
99344.4
99257.6
99174.4
98304.8
98304.4
98303.7
98302.5
98301
98299.1
98296.9
98294.3
98291.3
98287.9
98284.1
98279.9
98275.4
98270.6
98265.6
98260.3
98254.7
98249
98243.1
98237
98230.7
98224.3
98217.8
98211.2
98204.5
98197.7
98190.8
98183.9
98177
98170
98163.1
98156.2
98149.3
98142.5
98135.8
98129.2
98122.7
98116.3
98110.2
98104.2
98098.4
98092.8
98087.5
98082.4
98077.7
98073.3
98069.3
98065.6
98062.3
98059.5
98057.1
98055.2
98053.8
98052.9
98052.6
98052.9
98053.8
98055.4
98057.6
98060.5
98064.1
98068.3
98073.3
98079
98085.4
98092.5
98100.3
98108.8
98117.9
98127.7
98138.1
98149.1
98160.6
98172.7
98185.3
98198.3
98211.7
98225.4
98239.5
98253.8
98268.4
98283.1
98298
98313
98328
98343
98357.9
98372.6
98387.3
98401.7
98415.8
98429.6
98443.1
98456.2
98468.8
98480.9
98492.6
98503.6
98514.1
98524
98533.3
98541.9
98550
98557.3
98564.1
98570.3
98575.9
98580.9
98585.4
98589.3
98592.9
98596
98598.8
98601.2
98603.4
98605.2
98606.8
98608.2
98609.4
98610.4
98611.4
98612.4
98613.4
98614.6
98616.1
98617.9
98620.3
98623.5
98627.6
98632.8
98639.5
98647.8
98658
98670.3
98685
98702.4
98722.5
98745.4
98771.4
98800.3
98832.3
98867.2
98905
98945.4
98988.6
99034
99081.8
99131.3
99182.8
99235.8
99290.1
99345.4
99401.3
99457.6
99513.8
99569.4
99623.9
99676.9
99727.2
99774.5
99817.6
99855.8
99887.7
99912.9
99930.1
99938.2
99936.4
99924.5
99901.8
99868.7
99824.9
99771.9
99709.7
99640.8
99565.5
99486.7
99403.8
99320.6
99234.8
99149.8
98292.1
98291.8
98291
98289.8
98288.2
98286.2
98283.9
98281.2
98278.2
98274.8
98271.1
98267.1
98262.7
98258.2
98253.3
98248.3
98243
98237.6
98232.1
98226.3
98220.5
98214.5
98208.3
98202.1
98195.7
98189.3
98182.7
98176.1
98169.5
98162.8
98156.2
98149.6
98143
98136.4
98129.9
98123.6
98117.3
98111.2
98105.2
98099.5
98093.9
98088.5
98083.3
98078.4
98073.8
98069.6
98065.6
98062
98058.8
98056
98053.7
98051.7
98050.3
98049.4
98049
98049.2
98050
98051.4
98053.5
98056.2
98059.6
98063.7
98068.4
98073.9
98080
98086.8
98094.3
98102.5
98111.4
98120.8
98130.9
98141.5
98152.7
98164.4
98176.5
98189.1
98202
98215.4
98229
98242.9
98257
98271.3
98285.7
98300.1
98314.6
98329.1
98343.4
98357.7
98371.8
98385.6
98399.2
98412.5
98425.4
98437.9
98450
98461.6
98472.6
98483.2
98493.2
98502.6
98511.4
98519.6
98527.2
98534.2
98540.7
98546.5
98551.8
98556.6
98560.8
98564.6
98568
98570.9
98573.5
98575.8
98577.8
98579.5
98581
98582.2
98583.3
98584.2
98585
98585.8
98586.6
98587.4
98588.5
98590
98591.9
98594.5
98598
98602.5
98608.4
98615.7
98624.9
98636.1
98649.6
98665.6
98684.2
98705.6
98729.9
98757
98787.1
98819.9
98855.6
98893.9
98934.8
98978
99023.4
99070.6
99119.7
99170.3
99222.3
99275.2
99328.9
99383
99437.1
99490.7
99543.3
99594.5
99643.3
99689.2
99731.2
99768.5
99799.9
99825.1
99842.6
99851.5
99851
99840.9
99820.5
99790.1
99749.4
99699.7
99641.1
99575.9
99504.3
99429
99349.5
99269.5
99186.5
99102.6
98274.6
98274.3
98273.5
98272.3
98270.7
98268.8
98266.4
98263.7
98260.7
98257.4
98253.8
98249.9
98245.8
98241.4
98236.9
98232.1
98227.3
98222.2
98217.1
98211.8
98206.4
98200.8
98195.2
98189.4
98183.5
98177.5
98171.5
98165.4
98159.2
98153
98146.8
98140.6
98134.4
98128.3
98122.2
98116.2
98110.3
98104.5
98098.9
98093.3
98088
98082.8
98077.9
98073.2
98068.8
98064.6
98060.8
98057.3
98054.2
98051.5
98049.1
98047.2
98045.7
98044.7
98044.3
98044.4
98045
98046.3
98048.1
98050.6
98053.7
98057.5
98061.9
98067
98072.8
98079.2
98086.3
98094.1
98102.4
98111.4
98121
98131.1
98141.8
98152.9
98164.5
98176.5
98188.9
98201.6
98214.6
98227.8
98241.2
98254.8
98268.5
98282.3
98296.1
98309.8
98323.4
98337
98350.3
98363.4
98376.2
98388.7
98400.9
98412.7
98423.9
98434.8
98445.1
98454.9
98464.2
98472.9
98481.1
98488.7
98495.8
98502.3
98508.2
98513.6
98518.5
98522.8
98526.8
98530.2
98533.3
98536
98538.5
98540.6
98542.4
98543.9
98545.2
98546.2
98547.1
98547.7
98548.3
98548.7
98549.1
98549.5
98550.1
98551
98552.2
98554
98556.5
98560
98564.8
98570.8
98578.6
98588.2
98600
98614
98630.6
98649.8
98671.7
98696.3
98723.8
98753.9
98786.6
98822
98859.9
98899.9
98942.1
98986.1
99032
99079.4
99128.2
99178.1
99228.7
99279.9
99331.1
99381.9
99431.9
99480.7
99527.4
99571.3
99611.7
99647.8
99678.4
99703.2
99720.9
99730.5
99731.5
99723.4
99705.7
99678.6
99641.7
99596.4
99542.4
99482.1
99415.2
99344.8
99270
99194.5
99115.7
99035.6
98253.4
98253.2
98252.4
98251.3
98249.8
98247.8
98245.6
98242.9
98240
98236.8
98233.3
98229.6
98225.7
98221.6
98217.3
98212.9
98208.4
98203.7
98199
98194.2
98189.2
98184.2
98179
98173.8
98168.4
98163
98157.5
98152
98146.4
98140.8
98135.1
98129.5
98123.9
98118.2
98112.7
98107.2
98101.7
98096.4
98091.1
98086
98081
98076.2
98071.5
98067.1
98062.9
98058.9
98055.3
98051.9
98048.9
98046.2
98043.9
98042
98040.5
98039.4
98038.9
98038.8
98039.3
98040.3
98041.9
98044.1
98046.9
98050.3
98054.3
98058.9
98064.2
98070.2
98076.7
98083.9
98091.7
98100.1
98109.1
98118.5
98128.5
98139
98149.9
98161.1
98172.7
98184.6
98196.8
98209.2
98221.8
98234.5
98247.4
98260.2
98273.1
98285.9
98298.6
98311.2
98323.6
98335.8
98347.7
98359.3
98370.5
98381.3
98391.7
98401.6
98411
98420
98428.4
98436.3
98443.7
98450.5
98456.9
98462.7
98468
98472.9
98477.2
98481.1
98484.6
98487.7
98490.4
98492.8
98495
98496.8
98498.3
98499.6
98500.6
98501.4
98502
98502.3
98502.5
98502.5
98502.4
98502.3
98502.2
98502.3
98502.7
98503.5
98505
98507.2
98510.5
98515
98521
98528.7
98538.4
98550.2
98564.2
98580.8
98599.8
98621.4
98645.7
98672.5
98701.7
98733.4
98767.7
98804
98842.3
98882.6
98924.6
98968.2
99013.3
99059.4
99106.4
99154
99201.7
99249.2
99296
99341.8
99385.8
99427.4
99465.7
99500.1
99529.6
99553.7
99571.4
99581.7
99584
99578.2
99563.4
99540.1
99507.6
99467.2
99418.7
99364.1
99303
99238.5
99169.5
99099.6
99026.3
98951.7
98230
98229.8
98229.1
98228.1
98226.7
98224.9
98222.7
98220.3
98217.5
98214.5
98211.2
98207.7
98204
98200.2
98196.2
98192.1
98187.9
98183.6
98179.3
98174.9
98170.4
98165.8
98161.1
98156.4
98151.6
98146.7
98141.8
98136.9
98131.9
98126.9
98121.9
98116.8
98111.8
98106.8
98101.8
98096.8
98091.9
98087.1
98082.4
98077.7
98073.1
98068.7
98064.4
98060.3
98056.4
98052.7
98049.2
98046
98043.1
98040.5
98038.3
98036.4
98034.8
98033.7
98033
98032.8
98033.1
98033.8
98035.2
98037
98039.4
98042.4
98045.9
98050.1
98054.8
98060.2
98066.1
98072.7
98079.8
98087.5
98095.7
98104.4
98113.6
98123.2
98133.3
98143.7
98154.4
98165.4
98176.6
98188.1
98199.7
98211.4
98223.2
98235
98246.8
98258.6
98270.2
98281.8
98293.1
98304.2
98315
98325.5
98335.6
98345.4
98354.7
98363.6
98372
98380
98387.4
98394.5
98401
98407
98412.5
98417.5
98422.2
98426.3
98430.1
98433.4
98436.4
98439.1
98441.4
98443.4
98445.2
98446.7
98447.9
98448.8
98449.5
98449.9
98450.1
98450
98449.7
98449.3
98448.6
98447.9
98447.1
98446.3
98445.7
98445.4
98445.5
98446.4
98448.1
98450.8
98454.8
98460.4
98467.6
98476.8
98488.1
98501.7
98517.6
98535.8
98556.5
98579.5
98605
98632.7
98662.8
98695
98729.1
98765.2
98803.1
98842.5
98883.4
98925.3
98968.2
99011.8
99055.6
99099.4
99142.8
99185.1
99226
99264.9
99300.9
99333.3
99361.3
99384.5
99401.9
99412.6
99416.2
99412.5
99400.8
99381.3
99353.4
99318.3
99275.4
99227
99172.3
99114.5
99052
98988.6
98921.7
98853.7
98205.5
98205.4
98204.8
98203.9
98202.6
98201
98199.1
98196.8
98194.3
98191.5
98188.5
98185.3
98181.9
98178.3
98174.6
98170.9
98167
98163.1
98159.1
98155.1
98151
98146.9
98142.7
98138.4
98134.2
98129.9
98125.5
98121.1
98116.7
98112.3
98107.9
98103.4
98099
98094.6
98090.2
98085.8
98081.4
98077.1
98072.9
98068.7
98064.6
98060.6
98056.7
98052.9
98049.3
98045.9
98042.6
98039.7
98036.9
98034.4
98032.2
98030.3
98028.8
98027.6
98026.8
98026.4
98026.4
98026.9
98027.9
98029.4
98031.4
98033.9
98037
98040.6
98044.7
98049.5
98054.8
98060.6
98067
98073.9
98081.3
98089.2
98097.5
98106.2
98115.3
98124.8
98134.5
98144.5
98154.7
98165.1
98175.6
98186.2
98196.9
98207.6
98218.2
98228.8
98239.3
98249.6
98259.8
98269.7
98279.3
98288.6
98297.6
98306.2
98314.4
98322.2
98329.5
98336.4
98342.9
98348.9
98354.5
98359.6
98364.3
98368.5
98372.3
98375.8
98378.9
98381.6
98384
98386.2
98388
98389.6
98390.9
98392
98392.8
98393.3
98393.6
98393.6
98393.3
98392.8
98392
98391
98389.7
98388.2
98386.6
98384.9
98383.2
98381.6
98380.4
98379.6
98379.6
98380.5
98382.4
98385.6
98390.3
98396.8
98405.2
98415.6
98428
98442.7
98459.6
98478.8
98500.3
98523.8
98549.6
98577.5
98607.2
98639
98672.4
98707.4
98743.9
98781.6
98820.2
98859.5
98899.2
98939.1
98978.7
99017.5
99054.9
99090.7
99123.9
99154.1
99180.2
99202.1
99218.8
99229.8
99234.5
99232.8
99223.9
99208.1
99184.6
99154.8
99117.8
99075.6
99027.6
98976.8
98921.2
98865
98805
98744.2
98181.3
98181.3
98180.8
98180
98179
98177.6
98175.9
98173.9
98171.6
98169.1
98166.4
98163.5
98160.4
98157.2
98153.8
98150.4
98146.9
98143.3
98139.7
98136.1
98132.4
98128.6
98124.9
98121.1
98117.3
98113.5
98109.6
98105.8
98101.9
98098
98094.1
98090.2
98086.3
98082.4
98078.6
98074.7
98070.9
98067.1
98063.3
98059.6
98055.9
98052.3
98048.7
98045.3
98042
98038.8
98035.9
98033
98030.4
98028.1
98025.9
98024
98022.4
98021.2
98020.2
98019.7
98019.5
98019.8
98020.5
98021.6
98023.2
98025.2
98027.8
98030.8
98034.4
98038.4
98043
98048.2
98053.8
98059.9
98066.4
98073.4
98080.8
98088.6
98096.8
98105.2
98113.9
98122.9
98132
98141.3
98150.7
98160.1
98169.6
98179.1
98188.6
98197.9
98207.2
98216.2
98225.1
98233.8
98242.2
98250.2
98258
98265.4
98272.4
98279
98285.2
98291.1
98296.5
98301.5
98306.1
98310.3
98314.1
98317.5
98320.5
98323.2
98325.6
98327.7
98329.5
98331.1
98332.4
98333.5
98334.3
98334.8
98335.1
98335.2
98335
98334.6
98333.8
98332.8
98331.4
98329.7
98327.7
98325.4
98322.8
98320.1
98317.3
98314.5
98311.8
98309.5
98307.6
98306.6
98306.3
98307.1
98309.2
98312.9
98318.3
98325.5
98334.6
98345.7
98358.8
98374.1
98391.5
98411
98432.4
98455.9
98481.2
98508.7
98537.7
98568.3
98600.3
98633.7
98667.8
98702.9
98738.5
98774.4
98810.1
98845.1
98878.9
98911.3
98941.5
98969.1
98993
99013.2
99029
99039.8
99045.2
99045.2
99038.7
99026.3
99006.9
98982
98950.5
98914.6
98873.3
98829.6
98781.1
98732.2
98679.5
98626.4
98158.5
98158.5
98158.2
98157.5
98156.6
98155.4
98154
98152.2
98150.3
98148.1
98145.7
98143.1
98140.4
98137.5
98134.5
98131.4
98128.3
98125.1
98121.8
98118.5
98115.2
98111.9
98108.6
98105.2
98101.9
98098.5
98095.1
98091.7
98088.3
98084.9
98081.5
98078
98074.6
98071.2
98067.8
98064.4
98061
98057.7
98054.3
98050.9
98047.6
98044.3
98041.1
98038
98034.9
98032
98029.2
98026.6
98024.1
98021.8
98019.7
98017.8
98016.1
98014.8
98013.7
98013
98012.6
98012.6
98013
98013.7
98014.9
98016.5
98018.6
98021.1
98024.1
98027.5
98031.4
98035.8
98040.7
98046
98051.7
98057.8
98064.3
98071.1
98078.3
98085.8
98093.4
98101.3
98109.4
98117.5
98125.8
98134.1
98142.4
98150.7
98158.9
98167
98175
98182.8
98190.4
98197.8
98204.9
98211.7
98218.3
98224.4
98230.3
98235.7
98240.8
98245.5
98249.8
98253.8
98257.4
98260.6
98263.5
98266.1
98268.3
98270.3
98271.9
98273.3
98274.5
98275.5
98276.2
98276.7
98277
98277
98276.8
98276.3
98275.6
98274.6
98273.2
98271.6
98269.5
98267.2
98264.4
98261.2
98257.7
98253.9
98249.9
98245.8
98241.8
98237.9
98234.3
98231.2
98228.8
98227.3
98226.9
98227.8
98230.2
98234.3
98240
98247.6
98257.1
98268.6
98282.1
98297.6
98314.8
98334.1
98355.2
98378.4
98403.1
98429.4
98457.1
98486.1
98516
98546.9
98578.4
98610.3
98641.9
98673
98703.2
98732
98759
98783.8
98805.2
98823.4
98837.7
98848
98853.7
98854.7
98850.1
98840.5
98824.8
98804.4
98778
98748.1
98713.3
98676.4
98634.9
98593.5
98548
98502.8
98137.8
98137.9
98137.7
98137.2
98136.4
98135.5
98134.3
98132.8
98131.2
98129.3
98127.2
98125
98122.6
98120.1
98117.5
98114.8
98112
98109.2
98106.3
98103.4
98100.5
98097.5
98094.6
98091.6
98088.7
98085.7
98082.7
98079.7
98076.7
98073.7
98070.6
98067.6
98064.6
98061.6
98058.5
98055.5
98052.5
98049.4
98046.4
98043.3
98040.3
98037.3
98034.3
98031.4
98028.6
98025.8
98023.1
98020.6
98018.2
98015.9
98013.8
98011.9
98010.2
98008.8
98007.6
98006.7
98006.1
98005.8
98005.9
98006.3
98007.1
98008.3
98009.9
98011.9
98014.3
98017.2
98020.4
98024.1
98028.3
98032.8
98037.7
98043
98048.6
98054.5
98060.8
98067.2
98073.9
98080.8
98087.7
98094.8
98102
98109.1
98116.3
98123.3
98130.4
98137.2
98144
98150.6
98156.9
98163
98168.9
98174.5
98179.8
98184.8
98189.4
98193.7
98197.6
98201.2
98204.4
98207.3
98209.9
98212.2
98214.2
98215.9
98217.4
98218.5
98219.4
98220.1
98220.6
98220.9
98221
98220.9
98220.6
98220.1
98219.3
98218.2
98216.8
98215.2
98213.2
98210.8
98208.1
98204.9
98201.3
98197.2
98192.8
98187.9
98182.8
98177.5
98172.1
98166.7
98161.4
98156.5
98152
98148.3
98145.5
98143.8
98143.4
98144.4
98146.9
98151.2
98157.2
98165.2
98174.9
98186.7
98200.1
98215.5
98232.6
98251.7
98272.4
98294.6
98318.1
98343
98368.8
98395.7
98423.1
98451
98478.6
98505.9
98532.3
98557.5
98581.1
98602.9
98621.6
98637.5
98649.9
98659.1
98664.3
98665.8
98662.5
98655
98642.5
98626
98604.3
98579.9
98551.1
98520.7
98485.9
98451.6
98413.4
98375.9
98120
98120.1
98120
98119.6
98119
98118.3
98117.3
98116.1
98114.8
98113.2
98111.5
98109.6
98107.6
98105.4
98103.2
98100.9
98098.5
98096
98093.5
98091
98088.5
98085.9
98083.3
98080.7
98078.1
98075.5
98072.9
98070.2
98067.5
98064.8
98062.1
98059.4
98056.7
98054
98051.2
98048.5
98045.7
98042.9
98040.1
98037.3
98034.4
98031.6
98028.8
98026
98023.3
98020.6
98018.1
98015.6
98013.2
98010.9
98008.8
98006.8
98005
98003.5
98002.1
98001.1
98000.2
97999.7
97999.5
97999.6
98000.1
98000.9
98002.1
98003.6
98005.5
98007.8
98010.5
98013.6
98017
98020.8
98025
98029.5
98034.3
98039.4
98044.7
98050.3
98056
98061.9
98067.9
98073.9
98080
98086.1
98092.1
98098.1
98103.9
98109.6
98115.2
98120.6
98125.7
98130.7
98135.3
98139.7
98143.8
98147.6
98151
98154.2
98157
98159.5
98161.6
98163.5
98165.1
98166.4
98167.5
98168.3
98168.9
98169.3
98169.4
98169.3
98169.1
98168.7
98168.1
98167.3
98166.3
98165.1
98163.7
98162
98159.9
98157.6
98154.9
98151.8
98148.2
98144.3
98139.8
98134.9
98129.4
98123.6
98117.4
98110.9
98104.2
98097.4
98090.5
98083.9
98077.6
98071.8
98066.8
98062.7
98059.7
98058
98057.6
98058.8
98061.6
98066.3
98072.6
98080.9
98090.8
98102.6
98116.1
98131.6
98148.5
98167
98186.7
98207.6
98229.6
98252.5
98276.2
98300.1
98323.8
98347.3
98369.9
98391.4
98411.5
98430
98445.9
98459.1
98469.2
98476.7
98480.8
98482
98479.5
98473.6
98463.5
98450.3
98432.6
98413.1
98389.9
98365.3
98336.8
98309.3
98277.9
98248
98105.3
98105.5
98105.4
98105.2
98104.8
98104.2
98103.5
98102.5
98101.5
98100.2
98098.8
98097.3
98095.6
98093.9
98092
98090.1
98088.1
98086
98083.9
98081.8
98079.6
98077.4
98075.2
98072.9
98070.7
98068.3
98066
98063.6
98061.2
98058.8
98056.3
98053.9
98051.4
98048.8
98046.3
98043.7
98041.1
98038.4
98035.8
98033
98030.3
98027.6
98024.8
98022.1
98019.5
98016.8
98014.3
98011.8
98009.3
98007
98004.8
98002.8
98000.9
97999.2
97997.7
97996.5
97995.4
97994.7
97994.2
97994.1
97994.2
97994.7
97995.5
97996.6
97998.1
97999.9
98002
98004.6
98007.4
98010.6
98014.1
98017.9
98021.9
98026.3
98030.8
98035.5
98040.4
98045.3
98050.4
98055.5
98060.6
98065.6
98070.6
98075.6
98080.3
98085
98089.4
98093.7
98097.7
98101.5
98105
98108.2
98111.2
98113.8
98116.1
98118.2
98119.9
98121.3
98122.4
98123.3
98123.9
98124.2
98124.4
98124.3
98124
98123.5
98122.8
98122
98121
98119.8
98118.4
98116.9
98115.2
98113.3
98111.1
98108.7
98105.9
98102.8
98099.3
98095.5
98091.1
98086.4
98081
98075.2
98068.9
98062.1
98054.8
98047.2
98039.4
98031.2
98023
98014.9
98006.9
97999.3
97992.3
97986
97980.6
97976.4
97973.5
97972
97972
97973.7
97977
97982.2
97989.1
97997.7
98008
98020.2
98033.7
98048.9
98065.1
98082.6
98100.9
98120.1
98140.1
98160.3
98180.2
98200.1
98218.8
98236.5
98253
98267.9
98280.8
98291.1
98298.6
98303.9
98306.3
98306.5
98304
98299
98290.7
98280.2
98266
98250.6
98232
98212.8
98190.1
98168.9
98143.9
98121.1
98093.9
98094.1
98094.1
98094
98093.7
98093.3
98092.8
98092.1
98091.3
98090.3
98089.3
98088.1
98086.8
98085.4
98083.9
98082.4
98080.8
98079.2
98077.5
98075.7
98074
98072.1
98070.3
98068.3
98066.3
98064.3
98062.2
98060.1
98057.9
98055.7
98053.4
98051.1
98048.7
98046.3
98043.8
98041.3
98038.8
98036.2
98033.6
98030.9
98028.2
98025.4
98022.7
98020
98017.3
98014.6
98012
98009.4
98006.9
98004.5
98002.2
98000
97998
97996.1
97994.5
97993.1
97991.9
97990.9
97990.2
97989.8
97989.7
97989.8
97990.3
97991.1
97992.2
97993.6
97995.3
97997.3
97999.7
98002.3
98005.2
98008.4
98011.8
98015.5
98019.3
98023.3
98027.3
98031.5
98035.7
98040
98044.2
98048.3
98052.4
98056.3
98060.1
98063.8
98067.2
98070.4
98073.3
98076
98078.5
98080.6
98082.5
98084
98085.3
98086.3
98087
98087.3
98087.4
98087.3
98086.9
98086.3
98085.5
98084.5
98083.3
98082
98080.4
98078.8
98076.9
98075
98072.8
98070.5
98068
98065.3
98062.4
98059.1
98055.5
98051.7
98047.4
98042.7
98037.6
98032
98025.8
98019.1
98012
98004.3
97996.1
97987.5
97978.5
97969.3
97959.8
97950.3
97940.9
97931.7
97923
97914.8
97907.4
97901.1
97895.9
97892.1
97889.7
97888.8
97889.6
97892.2
97896.3
97902.2
97909.7
97918.9
97929.5
97941.5
97954.6
97968.9
97984
97999.9
98016.4
98033
98049.4
98065.6
98080.5
98094.4
98107.1
98118.4
98127.9
98135.1
98139.8
98142.7
98142.9
98141.6
98138.3
98133.6
98126.4
98117.8
98106.5
98094.5
98079.8
98065.4
98047.8
98032.3
98013.1
97997.1
98085.5
98085.7
98085.8
98085.8
98085.7
98085.4
98085.1
98084.7
98084.2
98083.5
98082.8
98082
98081.1
98080.1
98079.1
98078
98076.8
98075.6
98074.3
98073
98071.6
98070.1
98068.5
98066.9
98065.2
98063.4
98061.5
98059.6
98057.6
98055.5
98053.3
98051.1
98048.8
98046.4
98044
98041.4
98038.9
98036.3
98033.6
98030.8
98028.1
98025.2
98022.4
98019.6
98016.8
98014
98011.2
98008.5
98005.9
98003.4
98000.9
97998.6
97996.4
97994.4
97992.6
97991
97989.7
97988.5
97987.6
97987
97986.6
97986.6
97986.8
97987.3
97988
97989.1
97990.5
97992.1
97994
97996.2
97998.6
98001.3
98004.2
98007.2
98010.4
98013.8
98017.2
98020.6
98024.1
98027.6
98031
98034.4
98037.6
98040.7
98043.6
98046.3
98048.8
98051
98053
98054.7
98056.1
98057.3
98058.1
98058.7
98058.9
98058.9
98058.6
98058
98057.1
98055.9
98054.6
98053.1
98051.3
98049.4
98047.3
98045.1
98042.7
98040.2
98037.5
98034.6
98031.6
98028.5
98025.2
98021.6
98017.8
98013.7
98009.3
98004.6
97999.5
97994.1
97988.1
97981.7
97974.7
97967.2
97959.3
97950.8
97941.8
97932.3
97922.4
97912.2
97901.7
97891.1
97880.4
97869.9
97859.7
97849.9
97840.9
97832.8
97825.8
97820
97815.5
97812.6
97811.2
97811.5
97813.3
97816.8
97821.7
97828.3
97836.2
97845.5
97855.9
97867.3
97879.4
97892.3
97905.5
97918.8
97931.8
97944.3
97955.5
97965.7
97974.6
97982.2
97988.2
97992.1
97993.8
97994.2
97992
97988.7
97984.2
97979
97972.3
97965
97955.7
97946.4
97935
97924.7
97911.6
97901.3
97887.3
97877.4
98079.5
98079.8
98080
98080
98080
98080
98079.9
98079.7
98079.5
98079.2
98078.9
98078.5
98078.1
98077.6
98077
98076.4
98075.7
98074.9
98074.1
98073.1
98072.1
98071
98069.7
98068.4
98066.9
98065.3
98063.6
98061.8
98059.9
98057.9
98055.8
98053.6
98051.3
98048.9
98046.4
98043.8
98041.1
98038.4
98035.6
98032.7
98029.8
98026.9
98023.9
98020.9
98018
98015
98012.1
98009.2
98006.4
98003.7
98001.1
97998.6
97996.3
97994.2
97992.2
97990.5
97988.9
97987.6
97986.6
97985.7
97985.2
97984.9
97984.9
97985.2
97985.7
97986.5
97987.6
97988.9
97990.5
97992.3
97994.3
97996.6
97999
98001.6
98004.3
98007.1
98009.9
98012.8
98015.6
98018.4
98021.2
98023.8
98026.3
98028.6
98030.7
98032.6
98034.2
98035.6
98036.7
98037.5
98038
98038.2
98038.1
98037.8
98037.1
98036.1
98034.8
98033.3
98031.4
98029.4
98027.1
98024.6
98021.9
98019.1
98016.2
98013
98009.8
98006.4
98002.8
97999.1
97995.2
97991.2
97987
97982.5
97977.8
97972.9
97967.7
97962.1
97956.2
97949.9
97943.2
97935.9
97928.2
97919.9
97911.3
97902.1
97892.4
97882.1
97871.5
97860.5
97849.2
97837.7
97826.1
97814.5
97803
97792
97781.6
97772.1
97763.5
97756.1
97750
97745.3
97742.1
97740.4
97740.2
97741.6
97744.4
97748.7
97754.3
97761.1
97769
97778
97787.5
97797.4
97807.5
97817.5
97827.2
97836.3
97843.9
97850.5
97855.6
97859.5
97861.8
97862.3
97861
97858.7
97854.1
97848.6
97842.5
97836.3
97829.4
97822.9
97814.9
97807.7
97799
97792.1
97782.7
97777
97767.5
97763.3
98075.2
98075.4
98075.7
98075.9
98076
98076.2
98076.4
98076.6
98076.8
98077
98077.2
98077.3
98077.4
98077.5
98077.5
98077.3
98077.1
98076.8
98076.4
98075.8
98075.1
98074.3
98073.4
98072.3
98071
98069.6
98068
98066.3
98064.5
98062.5
98060.4
98058.1
98055.8
98053.3
98050.7
98048
98045.2
98042.3
98039.4
98036.3
98033.3
98030.1
98027
98023.8
98020.6
98017.5
98014.4
98011.3
98008.3
98005.5
98002.7
98000.1
97997.6
97995.3
97993.2
97991.3
97989.6
97988.2
97987
97986
97985.3
97984.9
97984.7
97984.8
97985.2
97985.7
97986.6
97987.7
97989
97990.6
97992.3
97994.2
97996.3
97998.5
98000.7
98003.1
98005.4
98007.8
98010.1
98012.4
98014.5
98016.5
98018.3
98020
98021.4
98022.5
98023.4
98024
98024.3
98024.3
98024
98023.3
98022.4
98021.1
98019.6
98017.7
98015.6
98013.1
98010.4
98007.4
98004.3
98000.9
97997.3
97993.6
97989.8
97985.8
97981.6
97977.4
97972.9
97968.3
97963.6
97958.6
97953.5
97948.1
97942.6
97936.8
97930.7
97924.3
97917.6
97910.5
97903
97895
97886.6
97877.7
97868.4
97858.6
97848.2
97837.4
97826.2
97814.6
97802.6
97790.4
97778
97765.5
97753.2
97741.2
97729.9
97719.2
97709.4
97700.7
97693.2
97687
97682.3
97679
97677.1
97676.6
97677.7
97680.1
97683.5
97688.2
97693.9
97700.6
97707.7
97714.9
97722
97728.8
97735.4
97741.2
97745.5
97748.6
97749.9
97750
97748.6
97745.6
97741.2
97736
97729
97721.3
97713.3
97705.9
97698.5
97692.1
97684.9
97679.3
97672.5
97668.4
97662.1
97660.3
97655
97655.6
98071.4
98071.6
98071.8
98072
98072.3
98072.8
98073.4
98074.2
98075
98075.9
98076.8
98077.7
98078.5
98079.2
98079.7
98080.2
98080.5
98080.6
98080.6
98080.4
98080
98079.5
98078.8
98077.9
98076.8
98075.5
98074
98072.4
98070.5
98068.5
98066.4
98064.1
98061.6
98059.1
98056.4
98053.5
98050.6
98047.5
98044.4
98041.2
98037.9
98034.6
98031.2
98027.8
98024.5
98021.1
98017.8
98014.6
98011.4
98008.4
98005.5
98002.7
98000.1
97997.7
97995.5
97993.5
97991.7
97990.1
97988.8
97987.8
97987
97986.4
97986.1
97986.1
97986.3
97986.7
97987.4
97988.4
97989.5
97990.8
97992.3
97994
97995.8
97997.6
97999.6
98001.5
98003.5
98005.4
98007.3
98009
98010.7
98012.1
98013.4
98014.4
98015.2
98015.7
98015.9
98015.8
98015.4
98014.6
98013.6
98012.2
98010.4
98008.4
98006
98003.4
98000.4
97997.1
97993.6
97989.8
97985.7
97981.5
97977.1
97972.6
97967.9
97963
97958
97952.9
97947.6
97942.1
97936.5
97930.7
97924.7
97918.4
97912
97905.4
97898.5
97891.3
97883.8
97875.9
97867.7
97859
97850
97840.6
97830.7
97820.3
97809.5
97798.3
97786.6
97774.5
97762
97749.2
97736.2
97723.2
97710.2
97697.6
97685.5
97673.9
97663.1
97653.3
97644.7
97637.3
97631.1
97626.5
97623.2
97621.3
97620.8
97621.5
97623.1
97625.9
97629.6
97634.2
97639.1
97643.7
97648
97651.9
97655.4
97658
97659.2
97658.9
97656.6
97653
97647.9
97641.5
97633.8
97625.6
97616.2
97606.4
97596.5
97587.8
97579.5
97572.8
97566
97561.4
97556.1
97554.1
97550.4
97552.1
97550.3
97555.2
98066.6
98066.6
98066.6
98067
98067.7
98069
98070.4
98072.2
98073.9
98075.8
98077.5
98079.2
98080.8
98082.1
98083.3
98084.3
98085.1
98085.6
98086
98086.1
98086
98085.7
98085.2
98084.5
98083.5
98082.3
98080.9
98079.3
98077.4
98075.4
98073.2
98070.9
98068.3
98065.6
98062.8
98059.8
98056.7
98053.5
98050.2
98046.8
98043.3
98039.8
98036.3
98032.7
98029.2
98025.7
98022.2
98018.8
98015.5
98012.3
98009.3
98006.4
98003.7
98001.2
97998.8
97996.7
97994.9
97993.2
97991.9
97990.7
97989.8
97989.2
97988.8
97988.7
97988.8
97989.2
97989.8
97990.6
97991.6
97992.8
97994.1
97995.5
97997.1
97998.7
98000.3
98002
98003.6
98005.1
98006.6
98007.9
98009.1
98010
98010.8
98011.2
98011.5
98011.4
98011
98010.3
98009.2
98007.8
98006.1
98004
98001.5
97998.7
97995.6
97992.2
97988.5
97984.5
97980.2
97975.6
97970.8
97965.8
97960.6
97955.2
97949.7
97944.1
97938.2
97932.3
97926.2
97919.9
97913.4
97906.8
97899.9
97892.9
97885.7
97878.2
97870.5
97862.6
97854.4
97845.9
97837
97827.8
97818.3
97808.3
97798
97787.2
97776
97764.4
97752.4
97740
97727
97713.8
97700.4
97687
97673.6
97660.6