/*--------------------------------*- C++ -*----------------------------------*\
| =========                 |                                                 |
| \\      /  F ield         | OpenFOAM: The Open Source CFD Toolbox           |
|  \\    /   O peration     | Version:  dev                                   |
|   \\  /    A nd           | Web:      http://www.openfoam.org               |
|    \\/     M anipulation  |                                                 |
\*---------------------------------------------------------------------------*/
FoamFile
{
    version     2.0;
    format      ascii;
    class       volScalarField;
    object      pPrime2Mean;
    location    "9.119";
}
// * * * * * * * * * * * * * * * * * * * * * * * * * * * * * * * * * * * * * //

dimensions      [2 -2 -4 0 0 0 0];

internalField   nonuniform List<scalar> 
12225
(
5.03759e+07
4.99109e+07
4.89503e+07
4.75993e+07
4.59457e+07
4.4079e+07
4.20583e+07
3.99557e+07
3.78119e+07
3.5675e+07
3.35827e+07
3.15379e+07
2.96147e+07
2.77437e+07
2.59963e+07
2.44356e+07
2.28736e+07
2.12932e+07
5.0268e+07
4.9803e+07
4.88432e+07
4.74939e+07
4.58418e+07
4.39774e+07
4.19596e+07
3.98596e+07
3.77197e+07
3.55854e+07
3.34979e+07
3.14568e+07
2.95381e+07
2.7674e+07
2.59441e+07
2.43835e+07
2.28744e+07
2.15399e+07
5.00178e+07
4.95534e+07
4.85941e+07
4.72478e+07
4.56001e+07
4.37406e+07
4.17295e+07
3.96357e+07
3.7504e+07
3.53779e+07
3.32987e+07
3.12694e+07
2.93567e+07
2.75099e+07
2.57998e+07
2.42441e+07
2.28089e+07
2.15956e+07
4.95819e+07
4.91205e+07
4.81634e+07
4.68224e+07
4.51827e+07
4.33316e+07
4.13322e+07
3.92489e+07
3.7132e+07
3.50193e+07
3.2956e+07
3.09445e+07
2.90491e+07
2.72216e+07
2.55412e+07
2.40102e+07
2.26238e+07
2.15228e+07
4.89166e+07
4.84553e+07
4.7503e+07
4.61714e+07
4.45436e+07
4.2707e+07
4.07234e+07
3.86595e+07
3.65615e+07
3.4473e+07
3.243e+07
3.04492e+07
2.85764e+07
2.6785e+07
2.51568e+07
2.36483e+07
2.23672e+07
2.13026e+07
4.7967e+07
4.75031e+07
4.65604e+07
4.52422e+07
4.36323e+07
4.18155e+07
3.98566e+07
3.78182e+07
3.57504e+07
3.36916e+07
3.16828e+07
2.97362e+07
2.79017e+07
2.61568e+07
2.45781e+07
2.31391e+07
2.19124e+07
2.08558e+07
4.66714e+07
4.62063e+07
4.52791e+07
4.39772e+07
4.23934e+07
4.06023e+07
3.8679e+07
3.6674e+07
3.46491e+07
3.26293e+07
3.06689e+07
2.87679e+07
2.69847e+07
2.52977e+07
2.3776e+07
2.2397e+07
2.12287e+07
2.02008e+07
4.52288e+07
4.47653e+07
4.38543e+07
4.25703e+07
4.10152e+07
3.92537e+07
3.73689e+07
3.5403e+07
3.34234e+07
3.14497e+07
2.95392e+07
2.76919e+07
2.59603e+07
2.43363e+07
2.28632e+07
2.15474e+07
2.04117e+07
1.9452e+07
4.37133e+07
4.32533e+07
4.23586e+07
4.10943e+07
3.95688e+07
3.78398e+07
3.59944e+07
3.40708e+07
3.21375e+07
3.02133e+07
2.83537e+07
2.65621e+07
2.48843e+07
2.33211e+07
2.19e+07
2.06404e+07
1.95466e+07
1.86481e+07
4.17723e+07
4.1319e+07
4.04438e+07
3.92071e+07
3.7718e+07
3.6033e+07
3.42364e+07
3.2369e+07
3.04929e+07
2.86337e+07
2.68369e+07
2.51169e+07
2.35051e+07
2.20167e+07
2.06619e+07
1.94699e+07
1.8433e+07
1.75805e+07
3.93227e+07
3.88794e+07
3.80277e+07
3.68277e+07
3.53845e+07
3.37566e+07
3.20221e+07
3.02257e+07
2.84228e+07
2.66438e+07
2.49274e+07
2.32933e+07
2.17654e+07
2.0363e+07
1.90913e+07
1.79762e+07
1.70062e+07
1.61999e+07
3.62981e+07
3.58697e+07
3.50461e+07
3.38952e+07
3.25092e+07
3.09545e+07
2.92974e+07
2.75901e+07
2.58777e+07
2.41976e+07
2.25794e+07
2.10484e+07
1.96213e+07
1.83183e+07
1.71432e+07
1.61124e+07
1.52181e+07
1.44649e+07
3.26836e+07
3.22739e+07
3.14867e+07
3.03969e+07
2.90832e+07
2.76175e+07
2.60562e+07
2.44555e+07
2.28532e+07
2.12897e+07
1.97883e+07
1.83763e+07
1.70657e+07
1.58749e+07
1.48064e+07
1.38692e+07
1.30582e+07
1.23702e+07
2.85705e+07
2.81835e+07
2.74431e+07
2.64256e+07
2.52002e+07
2.38381e+07
2.23907e+07
2.09121e+07
1.9438e+07
1.80054e+07
1.66369e+07
1.53556e+07
1.41735e+07
1.31034e+07
1.21485e+07
1.13116e+07
1.05893e+07
9.97546e+06
2.42442e+07
2.38837e+07
2.31993e+07
2.22627e+07
2.11375e+07
1.98896e+07
1.85678e+07
1.72216e+07
1.58851e+07
1.45914e+07
1.33617e+07
1.22156e+07
1.1164e+07
1.02156e+07
9.37305e+06
8.63634e+06
8.00227e+06
7.46414e+06
2.02956e+07
1.99638e+07
1.93391e+07
1.84841e+07
1.74604e+07
1.63256e+07
1.51276e+07
1.39095e+07
1.27049e+07
1.15419e+07
1.04411e+07
9.41826e+06
8.48329e+06
7.64224e+06
6.89703e+06
6.24636e+06
5.68707e+06
5.21295e+06
1.77289e+07
1.74226e+07
1.68481e+07
1.6061e+07
1.51197e+07
1.4076e+07
1.29753e+07
1.18567e+07
1.07518e+07
9.68565e+06
8.67729e+06
7.74025e+06
6.88326e+06
6.11108e+06
5.42508e+06
4.82388e+06
4.30449e+06
3.86156e+06
1.78369e+07
1.75425e+07
1.69902e+07
1.62328e+07
1.53262e+07
1.43195e+07
1.32564e+07
1.21737e+07
1.11016e+07
1.00638e+07
9.0779e+06
8.15668e+06
7.30822e+06
6.53702e+06
5.84447e+06
5.22974e+06
4.69032e+06
4.22187e+06
2.07151e+07
2.04162e+07
1.98541e+07
1.90817e+07
1.81556e+07
1.71251e+07
1.60334e+07
1.49174e+07
1.38067e+07
1.2725e+07
1.16897e+07
1.07135e+07
9.80465e+06
8.968e+06
8.20542e+06
7.51683e+06
6.9004e+06
6.35274e+06
2.52043e+07
2.48925e+07
2.43025e+07
2.3489e+07
2.25114e+07
2.14206e+07
2.02612e+07
1.90706e+07
1.78796e+07
1.6712e+07
1.55861e+07
1.45149e+07
1.35073e+07
1.25686e+07
1.17016e+07
1.09068e+07
1.01832e+07
9.52827e+06
3.02663e+07
2.99404e+07
2.93171e+07
2.84542e+07
2.74142e+07
2.62502e+07
2.50088e+07
2.37288e+07
2.24422e+07
2.11738e+07
1.99427e+07
1.87627e+07
1.76434e+07
1.6591e+07
1.56087e+07
1.46981e+07
1.38588e+07
1.3089e+07
3.51827e+07
3.48451e+07
3.41908e+07
3.32808e+07
3.21807e+07
3.09456e+07
2.96239e+07
2.82564e+07
2.68761e+07
2.55092e+07
2.41757e+07
2.28901e+07
2.16629e+07
2.05009e+07
1.94083e+07
1.83872e+07
1.74378e+07
1.65591e+07
3.95342e+07
3.91883e+07
3.85086e+07
3.75589e+07
3.64072e+07
3.51103e+07
3.37186e+07
3.22741e+07
3.08115e+07
2.93577e+07
2.79338e+07
2.65551e+07
2.52328e+07
2.39746e+07
2.27852e+07
2.16672e+07
2.06215e+07
1.96475e+07
4.31318e+07
4.27808e+07
4.20819e+07
4.11012e+07
3.99084e+07
3.85617e+07
3.7113e+07
3.56056e+07
3.40754e+07
3.25501e+07
3.10518e+07
2.95964e+07
2.81959e+07
2.68585e+07
2.55894e+07
2.43918e+07
2.32669e+07
2.22147e+07
4.59417e+07
4.55878e+07
4.4875e+07
4.38714e+07
4.26476e+07
4.12629e+07
3.97702e+07
3.82143e+07
3.66315e+07
3.50508e+07
3.34945e+07
3.19796e+07
3.05182e+07
2.91191e+07
2.77881e+07
2.65285e+07
2.53421e+07
2.4229e+07
4.8021e+07
4.76654e+07
4.69431e+07
4.59234e+07
4.46772e+07
4.32647e+07
4.174e+07
4.01484e+07
3.8527e+07
3.69054e+07
3.53065e+07
3.37477e+07
3.22415e+07
3.0797e+07
2.94203e+07
2.81152e+07
2.68834e+07
2.57254e+07
4.94706e+07
4.91142e+07
4.83852e+07
4.73546e+07
4.60931e+07
4.46618e+07
4.31151e+07
4.14989e+07
3.9851e+07
3.82011e+07
3.65727e+07
3.49834e+07
3.34462e+07
3.19703e+07
3.05619e+07
2.92252e+07
2.7962e+07
2.67728e+07
5.04061e+07
5.00486e+07
4.93155e+07
4.82782e+07
4.7007e+07
4.55636e+07
4.40029e+07
4.23712e+07
4.07063e+07
3.90384e+07
3.73911e+07
3.57822e+07
3.42251e+07
3.27289e+07
3.13002e+07
2.99431e+07
2.86598e+07
2.74507e+07
5.09354e+07
5.05777e+07
4.98429e+07
4.88026e+07
4.75259e+07
4.6076e+07
4.45075e+07
4.28668e+07
4.11921e+07
3.95138e+07
3.78556e+07
3.62355e+07
3.46668e+07
3.3159e+07
3.17187e+07
3.03499e+07
2.90551e+07
2.7835e+07
5.11577e+07
5.08014e+07
5.00648e+07
4.90226e+07
4.77435e+07
4.62907e+07
4.47188e+07
4.30743e+07
4.13953e+07
3.97125e+07
3.80496e+07
3.64247e+07
3.48511e+07
3.33384e+07
3.1893e+07
3.05193e+07
2.92198e+07
2.79953e+07
6.0489e+07
6.043e+07
6.02992e+07
6.00934e+07
5.98106e+07
5.94501e+07
5.9012e+07
5.8497e+07
5.79062e+07
5.72411e+07
5.65036e+07
5.56957e+07
5.48199e+07
5.38786e+07
5.28746e+07
5.18109e+07
5.06908e+07
4.95177e+07
4.82953e+07
4.70276e+07
4.57184e+07
4.43718e+07
4.29921e+07
4.15837e+07
4.0151e+07
3.86986e+07
3.72309e+07
3.57525e+07
3.42677e+07
3.27812e+07
3.12975e+07
2.98212e+07
2.8357e+07
2.69093e+07
2.54829e+07
2.40822e+07
2.27119e+07
2.13767e+07
2.00813e+07
1.88306e+07
1.76292e+07
1.64821e+07
1.53943e+07
1.43709e+07
1.3417e+07
1.25378e+07
1.17387e+07
1.10249e+07
1.0402e+07
9.87542e+06
9.45052e+06
9.13278e+06
8.92761e+06
8.84026e+06
8.87583e+06
9.03914e+06
9.33475e+06
9.7669e+06
1.03395e+07
1.10557e+07
1.19183e+07
1.29295e+07
1.40907e+07
1.54027e+07
1.68653e+07
1.84778e+07
2.02386e+07
2.21451e+07
2.41944e+07
2.63824e+07
2.87047e+07
3.1156e+07
3.37303e+07
3.64213e+07
3.9222e+07
4.21253e+07
4.51237e+07
4.82094e+07
5.13745e+07
5.46112e+07
5.79112e+07
6.12664e+07
6.46685e+07
6.8109e+07
7.1579e+07
7.50699e+07
7.85724e+07
8.2077e+07
8.55738e+07
8.90524e+07
9.25017e+07
9.59105e+07
9.92665e+07
1.02557e+08
1.05771e+08
1.08893e+08
1.11913e+08
1.14818e+08
1.17596e+08
1.20237e+08
1.22732e+08
1.25072e+08
1.2725e+08
1.2926e+08
1.311e+08
1.32766e+08
1.3426e+08
1.35583e+08
1.3674e+08
1.3774e+08
1.38593e+08
1.39309e+08
1.39903e+08
1.40388e+08
1.40782e+08
1.41101e+08
1.41365e+08
1.41596e+08
1.41818e+08
1.42056e+08
1.42341e+08
1.42706e+08
1.43187e+08
1.43824e+08
1.4466e+08
1.45744e+08
1.47128e+08
1.48868e+08
1.51025e+08
1.53662e+08
1.56843e+08
1.60628e+08
1.65081e+08
1.70257e+08
1.7621e+08
1.82985e+08
1.90619e+08
1.99139e+08
2.08558e+08
2.18881e+08
2.30101e+08
2.42196e+08
2.55138e+08
2.68885e+08
2.83395e+08
2.98604e+08
3.14466e+08
3.30907e+08
3.47866e+08
3.65266e+08
3.83035e+08
4.01089e+08
4.19337e+08
4.37686e+08
4.56015e+08
4.74183e+08
4.92028e+08
5.09379e+08
5.26005e+08
5.41668e+08
5.56071e+08
5.68915e+08
5.79857e+08
5.88575e+08
5.94732e+08
5.98033e+08
5.98216e+08
5.95101e+08
5.8856e+08
5.78621e+08
5.65364e+08
5.49056e+08
5.30016e+08
5.08737e+08
4.85693e+08
4.61409e+08
4.36253e+08
4.1066e+08
3.84841e+08
3.59123e+08
5.94133e+07
5.93576e+07
5.92325e+07
5.90326e+07
5.87562e+07
5.84033e+07
5.79745e+07
5.74709e+07
5.68936e+07
5.62442e+07
5.55242e+07
5.47359e+07
5.38812e+07
5.29626e+07
5.19826e+07
5.09442e+07
4.98502e+07
4.87041e+07
4.75094e+07
4.62697e+07
4.49891e+07
4.36714e+07
4.23208e+07
4.09416e+07
3.95382e+07
3.81149e+07
3.66761e+07
3.52261e+07
3.37693e+07
3.23102e+07
3.08531e+07
2.94026e+07
2.79634e+07
2.65398e+07
2.51365e+07
2.37578e+07
2.24084e+07
2.10929e+07
1.98159e+07
1.85822e+07
1.73966e+07
1.6264e+07
1.51893e+07
1.41775e+07
1.32338e+07
1.23634e+07
1.15716e+07
1.08638e+07
1.02453e+07
9.72167e+06
9.29833e+06
8.9807e+06
8.77415e+06
8.68393e+06
8.71515e+06
8.87268e+06
9.1611e+06
9.58463e+06
1.0147e+07
1.08517e+07
1.17013e+07
1.26979e+07
1.3843e+07
1.51373e+07
1.65808e+07
1.81726e+07
1.99111e+07
2.17939e+07
2.38177e+07
2.59789e+07
2.82727e+07
3.0694e+07
3.32368e+07
3.58948e+07
3.86612e+07
4.15288e+07
4.44901e+07
4.75375e+07
5.06631e+07
5.3859e+07
5.71171e+07
6.04292e+07
6.37872e+07
6.71825e+07
7.06067e+07
7.40507e+07
7.75056e+07
8.09618e+07
8.44096e+07
8.78387e+07
9.12381e+07
9.45966e+07
9.79024e+07
1.01143e+08
1.04307e+08
1.0738e+08
1.10351e+08
1.13208e+08
1.1594e+08
1.18537e+08
1.20989e+08
1.23288e+08
1.25428e+08
1.27402e+08
1.29209e+08
1.30846e+08
1.32312e+08
1.3361e+08
1.34746e+08
1.35728e+08
1.36564e+08
1.37267e+08
1.37849e+08
1.38325e+08
1.3871e+08
1.39022e+08
1.39279e+08
1.39503e+08
1.39717e+08
1.39946e+08
1.4022e+08
1.40571e+08
1.41034e+08
1.4165e+08
1.4246e+08
1.43511e+08
1.44856e+08
1.4655e+08
1.48652e+08
1.51225e+08
1.54331e+08
1.58032e+08
1.62388e+08
1.67455e+08
1.73286e+08
1.79925e+08
1.87409e+08
1.95764e+08
2.05006e+08
2.15138e+08
2.26153e+08
2.38029e+08
2.50742e+08
2.6425e+08
2.7851e+08
2.93461e+08
3.09053e+08
3.25224e+08
3.41907e+08
3.59027e+08
3.76514e+08
3.94287e+08
4.12258e+08
4.30335e+08
4.48398e+08
4.66311e+08
4.83911e+08
5.01036e+08
5.17457e+08
5.32938e+08
5.47197e+08
5.59934e+08
5.70813e+08
5.79514e+08
5.85712e+08
5.89115e+08
5.89465e+08
5.86587e+08
5.80347e+08
5.70759e+08
5.57896e+08
5.42015e+08
5.23423e+08
5.02599e+08
4.80005e+08
4.56151e+08
4.31405e+08
4.06193e+08
3.80727e+08
3.55247e+08
5.73466e+07
5.72935e+07
5.71739e+07
5.69824e+07
5.67176e+07
5.63801e+07
5.5971e+07
5.54911e+07
5.49416e+07
5.43236e+07
5.36386e+07
5.28883e+07
5.20745e+07
5.11995e+07
5.02654e+07
4.92748e+07
4.82306e+07
4.71358e+07
4.59936e+07
4.48076e+07
4.35815e+07
4.23191e+07
4.10243e+07
3.97013e+07
3.8354e+07
3.69865e+07
3.56027e+07
3.42069e+07
3.28034e+07
3.13964e+07
2.99904e+07
2.85897e+07
2.71986e+07
2.58215e+07
2.44628e+07
2.31267e+07
2.18178e+07
2.05403e+07
1.92991e+07
1.80986e+07
1.69438e+07
1.58392e+07
1.47899e+07
1.38008e+07
1.2877e+07
1.20237e+07
1.12463e+07
1.055e+07
9.9403e+06
9.42258e+06
9.00229e+06
8.68486e+06
8.47569e+06
8.38e+06
8.40289e+06
8.54926e+06
8.82363e+06
9.23026e+06
9.77294e+06
1.04549e+07
1.12789e+07
1.2247e+07
1.33607e+07
1.46205e+07
1.60263e+07
1.75774e+07
1.92721e+07
2.1108e+07
2.30819e+07
2.51901e+07
2.7428e+07
2.97904e+07
3.22714e+07
3.48648e+07
3.75638e+07
4.03614e+07
4.32502e+07
4.62227e+07
4.92712e+07
5.23878e+07
5.55644e+07
5.8793e+07
6.20654e+07
6.53734e+07
6.87084e+07
7.20617e+07
7.54244e+07
7.87871e+07
8.21401e+07
8.54734e+07
8.87761e+07
9.20373e+07
9.52455e+07
9.83889e+07
1.01455e+08
1.04432e+08
1.07308e+08
1.10072e+08
1.12714e+08
1.15223e+08
1.1759e+08
1.19809e+08
1.21874e+08
1.23779e+08
1.25521e+08
1.27098e+08
1.28511e+08
1.29761e+08
1.30856e+08
1.31801e+08
1.32607e+08
1.33283e+08
1.33844e+08
1.34301e+08
1.3467e+08
1.34967e+08
1.3521e+08
1.35419e+08
1.35617e+08
1.35828e+08
1.36079e+08
1.36402e+08
1.3683e+08
1.37401e+08
1.38157e+08
1.39144e+08
1.4041e+08
1.4201e+08
1.44002e+08
1.46447e+08
1.49404e+08
1.52936e+08
1.571e+08
1.61951e+08
1.67539e+08
1.73908e+08
1.81094e+08
1.89126e+08
1.98015e+08
2.07768e+08
2.18376e+08
2.29821e+08
2.42079e+08
2.55115e+08
2.68879e+08
2.83319e+08
2.98379e+08
3.1401e+08
3.30142e+08
3.46706e+08
3.6363e+08
3.80843e+08
3.98258e+08
4.15783e+08
4.33305e+08
4.50696e+08
4.67795e+08
4.84443e+08
5.00426e+08
5.15511e+08
5.29436e+08
5.41907e+08
5.52602e+08
5.61219e+08
5.67439e+08
5.70988e+08
5.71617e+08
5.69153e+08
5.6346e+08
5.54526e+08
5.42424e+08
5.27381e+08
5.09681e+08
4.89779e+08
4.68102e+08
4.45129e+08
4.21233e+08
3.96816e+08
3.72102e+08
3.47263e+08
5.44508e+07
5.44015e+07
5.42894e+07
5.41101e+07
5.38632e+07
5.35495e+07
5.31699e+07
5.27248e+07
5.22151e+07
5.16417e+07
5.10056e+07
5.03082e+07
4.95511e+07
4.87358e+07
4.78645e+07
4.69395e+07
4.59635e+07
4.49391e+07
4.38695e+07
4.27577e+07
4.16074e+07
4.04219e+07
3.92048e+07
3.79598e+07
3.66904e+07
3.54001e+07
3.40929e+07
3.27727e+07
3.14436e+07
3.01097e+07
2.87751e+07
2.7444e+07
2.61204e+07
2.48083e+07
2.35119e+07
2.22352e+07
2.09826e+07
1.97586e+07
1.85673e+07
1.74135e+07
1.63017e+07
1.52365e+07
1.42228e+07
1.32656e+07
1.237e+07
1.1541e+07
1.07838e+07
1.01039e+07
9.50651e+06
8.99718e+06
8.58127e+06
8.26421e+06
8.05137e+06
7.94795e+06
7.95903e+06
8.08949e+06
8.34391e+06
8.7265e+06
9.24098e+06
9.89062e+06
1.06781e+07
1.16054e+07
1.26741e+07
1.38845e+07
1.52368e+07
1.673e+07
1.83623e+07
2.01316e+07
2.20347e+07
2.40678e+07
2.62264e+07
2.85055e+07
3.08993e+07
3.34015e+07
3.60057e+07
3.87049e+07
4.1492e+07
4.43595e+07
4.73e+07
5.03056e+07
5.33685e+07
5.64807e+07
5.96342e+07
6.28208e+07
6.6032e+07
6.92593e+07
7.2494e+07
7.5727e+07
7.89486e+07
8.21489e+07
8.53176e+07
8.84437e+07
9.15162e+07
9.45236e+07
9.74543e+07
1.00297e+08
1.0304e+08
1.05674e+08
1.08188e+08
1.10573e+08
1.12822e+08
1.14928e+08
1.16886e+08
1.18691e+08
1.20341e+08
1.21833e+08
1.23169e+08
1.24352e+08
1.25387e+08
1.2628e+08
1.2704e+08
1.27678e+08
1.28206e+08
1.28636e+08
1.2898e+08
1.29255e+08
1.29476e+08
1.29663e+08
1.29837e+08
1.3002e+08
1.30239e+08
1.3052e+08
1.30897e+08
1.31404e+08
1.32082e+08
1.32975e+08
1.3413e+08
1.35599e+08
1.37436e+08
1.39699e+08
1.42447e+08
1.4574e+08
1.49632e+08
1.54179e+08
1.59426e+08
1.65417e+08
1.72186e+08
1.79762e+08
1.88159e+08
1.97381e+08
2.07422e+08
2.18266e+08
2.29892e+08
2.42268e+08
2.55345e+08
2.69074e+08
2.83401e+08
2.98283e+08
3.13656e+08
3.29453e+08
3.45602e+08
3.62042e+08
3.7869e+08
3.95454e+08
4.12226e+08
4.28889e+08
4.45288e+08
4.61268e+08
4.76631e+08
4.91153e+08
5.04587e+08
5.16656e+08
5.27061e+08
5.35519e+08
5.41723e+08
5.45421e+08
5.4637e+08
5.44404e+08
5.39391e+08
5.31301e+08
5.20196e+08
5.06264e+08
4.89771e+08
4.71128e+08
4.50717e+08
4.28981e+08
4.06283e+08
3.82997e+08
3.59363e+08
3.35531e+08
5.09267e+07
5.08827e+07
5.07807e+07
5.06178e+07
5.0394e+07
5.01101e+07
4.97662e+07
4.93628e+07
4.89005e+07
4.83798e+07
4.78016e+07
4.71666e+07
4.64763e+07
4.57322e+07
4.49359e+07
4.40896e+07
4.31955e+07
4.2256e+07
4.12737e+07
4.02516e+07
3.91927e+07
3.81001e+07
3.69767e+07
3.58256e+07
3.46499e+07
3.34532e+07
3.22389e+07
3.10108e+07
2.97725e+07
2.85279e+07
2.72808e+07
2.60346e+07
2.47933e+07
2.35606e+07
2.23402e+07
2.11363e+07
1.99528e+07
1.87939e+07
1.76639e+07
1.65671e+07
1.5508e+07
1.44911e+07
1.35213e+07
1.26033e+07
1.1742e+07
1.09427e+07
1.02104e+07
9.55043e+06
8.96819e+06
8.46907e+06
8.05846e+06
7.74173e+06
7.52426e+06
7.41123e+06
7.40769e+06
7.51847e+06
7.74811e+06
8.10076e+06
8.58012e+06
9.18944e+06
9.93137e+06
1.08079e+07
1.18205e+07
1.29696e+07
1.42551e+07
1.56761e+07
1.72309e+07
1.89174e+07
2.07325e+07
2.26723e+07
2.47327e+07
2.69084e+07
2.9194e+07
3.15834e+07
3.40702e+07
3.66478e+07
3.9309e+07
4.20468e+07
4.48539e+07
4.77225e+07
5.06451e+07
5.36139e+07
5.66209e+07
5.96582e+07
6.27174e+07
6.57902e+07
6.8868e+07
7.1942e+07
7.50026e+07
7.80403e+07
8.10451e+07
8.40065e+07
8.69137e+07
8.97557e+07
9.25214e+07
9.52003e+07
9.7782e+07
1.00257e+08
1.02616e+08
1.0485e+08
1.06954e+08
1.08921e+08
1.10748e+08
1.1243e+08
1.13964e+08
1.15351e+08
1.16593e+08
1.17692e+08
1.18651e+08
1.19478e+08
1.20182e+08
1.20771e+08
1.21256e+08
1.21649e+08
1.2196e+08
1.22205e+08
1.22398e+08
1.22556e+08
1.22697e+08
1.22844e+08
1.23019e+08
1.23249e+08
1.23561e+08
1.23991e+08
1.24575e+08
1.25354e+08
1.26372e+08
1.2768e+08
1.29328e+08
1.31371e+08
1.33863e+08
1.36864e+08
1.40427e+08
1.44602e+08
1.49435e+08
1.54967e+08
1.61232e+08
1.68257e+08
1.76058e+08
1.8464e+08
1.93999e+08
2.0412e+08
2.14983e+08
2.26563e+08
2.38815e+08
2.51694e+08
2.65144e+08
2.7913e+08
2.93595e+08
3.08477e+08
3.23706e+08
3.39223e+08
3.54951e+08
3.70804e+08
3.86676e+08
4.02459e+08
4.1801e+08
4.33181e+08
4.47787e+08
4.61619e+08
4.74439e+08
4.85997e+08
4.96023e+08
5.04245e+08
5.10385e+08
5.14202e+08
5.15469e+08
5.14033e+08
5.09766e+08
5.02625e+08
4.92654e+08
4.80005e+08
4.6492e+08
4.4776e+08
4.28859e+08
4.08625e+08
3.87386e+08
3.65493e+08
3.43196e+08
3.20655e+08
4.69972e+07
4.69602e+07
4.68707e+07
4.6727e+07
4.65293e+07
4.6278e+07
4.59733e+07
4.56154e+07
4.52046e+07
4.47411e+07
4.42254e+07
4.36584e+07
4.30412e+07
4.23748e+07
4.16608e+07
4.09008e+07
4.00967e+07
3.92506e+07
3.83647e+07
3.74416e+07
3.64837e+07
3.54935e+07
3.44734e+07
3.34262e+07
3.23547e+07
3.12619e+07
3.01511e+07
2.90257e+07
2.78888e+07
2.67439e+07
2.55941e+07
2.44429e+07
2.32935e+07
2.21496e+07
2.10146e+07
1.98922e+07
1.87863e+07
1.77008e+07
1.66397e+07
1.56072e+07
1.46076e+07
1.36452e+07
1.27247e+07
1.18508e+07
1.10283e+07
1.02623e+07
9.55799e+06
8.9205e+06
8.35521e+06
7.86746e+06
7.46264e+06
7.14611e+06
6.92319e+06
6.79906e+06
6.77871e+06
6.86691e+06
7.06817e+06
7.38657e+06
7.82578e+06
8.38897e+06
9.07875e+06
9.8971e+06
1.08453e+07
1.19241e+07
1.31331e+07
1.44716e+07
1.59378e+07
1.75295e+07
1.92438e+07
2.1077e+07
2.30249e+07
2.50825e+07
2.72445e+07
2.95049e+07
3.18577e+07
3.42963e+07
3.6814e+07
3.94037e+07
4.20585e+07
4.47709e+07
4.75334e+07
5.03386e+07
5.31786e+07
5.60457e+07
5.89319e+07
6.18289e+07
6.47283e+07
6.76216e+07
7.04995e+07
7.33526e+07
7.61715e+07
7.89463e+07
8.16667e+07
8.43221e+07
8.69021e+07
8.9397e+07
9.17974e+07
9.40943e+07
9.62793e+07
9.8345e+07
1.00285e+08
1.02096e+08
1.03775e+08
1.05317e+08
1.06723e+08
1.07991e+08
1.09125e+08
1.10127e+08
1.11e+08
1.11751e+08
1.12387e+08
1.12918e+08
1.13351e+08
1.13698e+08
1.13969e+08
1.14176e+08
1.14333e+08
1.14455e+08
1.14557e+08
1.1466e+08
1.14783e+08
1.14951e+08
1.15191e+08
1.15534e+08
1.16012e+08
1.16663e+08
1.17528e+08
1.18655e+08
1.20091e+08
1.21887e+08
1.24095e+08
1.2677e+08
1.29964e+08
1.33724e+08
1.38095e+08
1.43115e+08
1.48819e+08
1.55233e+08
1.62373e+08
1.70245e+08
1.78848e+08
1.8817e+08
1.98193e+08
2.08894e+08
2.20237e+08
2.3218e+08
2.44671e+08
2.57677e+08
2.71147e+08
2.85026e+08
2.99247e+08
3.13752e+08
3.28471e+08
3.43319e+08
3.58199e+08
3.73009e+08
3.87621e+08
4.01887e+08
4.15641e+08
4.28692e+08
4.40812e+08
4.51772e+08
4.61336e+08
4.69252e+08
4.75268e+08
4.7915e+08
4.807e+08
4.79779e+08
4.7626e+08
4.7009e+08
4.61294e+08
4.50001e+08
4.3642e+08
4.2086e+08
4.03609e+08
3.85038e+08
3.6543e+08
3.45112e+08
3.24333e+08
3.03284e+08
4.28875e+07
4.2858e+07
4.27821e+07
4.26587e+07
4.24881e+07
4.22706e+07
4.20062e+07
4.16948e+07
4.13365e+07
4.09313e+07
4.04799e+07
3.99827e+07
3.94404e+07
3.88541e+07
3.82248e+07
3.75539e+07
3.68429e+07
3.60934e+07
3.53074e+07
3.44867e+07
3.36332e+07
3.2749e+07
3.1836e+07
3.08967e+07
2.99335e+07
2.89491e+07
2.79464e+07
2.69281e+07
2.58971e+07
2.48562e+07
2.38084e+07
2.27566e+07
2.17037e+07
2.0653e+07
1.96078e+07
1.85714e+07
1.75473e+07
1.65393e+07
1.55509e+07
1.45863e+07
1.36494e+07
1.27446e+07
1.18762e+07
1.10489e+07
1.02674e+07
9.53673e+06
8.86188e+06
8.24807e+06
7.70056e+06
7.22472e+06
6.82585e+06
6.50927e+06
6.28026e+06
6.14398e+06
6.10536e+06
6.16914e+06
6.33976e+06
6.62124e+06
7.01719e+06
7.53073e+06
8.16437e+06
8.92006e+06
9.79906e+06
1.0802e+07
1.19286e+07
1.31781e+07
1.45488e+07
1.60383e+07
1.7644e+07
1.93621e+07
2.11885e+07
2.31187e+07
2.51471e+07
2.72684e+07
2.94763e+07
3.17649e+07
3.41274e+07
3.65572e+07
3.90474e+07
4.15909e+07
4.41804e+07
4.68088e+07
4.94683e+07
5.21516e+07
5.48508e+07
5.7558e+07
6.02648e+07
6.2963e+07
6.56438e+07
6.82982e+07
7.0917e+07
7.3491e+07
7.60104e+07
7.84656e+07
8.08468e+07
8.31453e+07
8.53521e+07
8.74596e+07
8.946e+07
9.13472e+07
9.31155e+07
9.47615e+07
9.62825e+07
9.7677e+07
9.89449e+07
1.00087e+08
1.01104e+08
1.02001e+08
1.0278e+08
1.03447e+08
1.04009e+08
1.04474e+08
1.04848e+08
1.05142e+08
1.05365e+08
1.05529e+08
1.05643e+08
1.05722e+08
1.0578e+08
1.05832e+08
1.05898e+08
1.06e+08
1.06161e+08
1.0641e+08
1.06776e+08
1.07292e+08
1.07997e+08
1.08932e+08
1.10143e+08
1.11679e+08
1.13588e+08
1.15921e+08
1.18727e+08
1.22051e+08
1.25936e+08
1.30419e+08
1.35535e+08
1.41309e+08
1.47758e+08
1.5489e+08
1.62704e+08
1.71195e+08
1.80345e+08
1.90136e+08
2.00536e+08
2.1151e+08
2.23011e+08
2.35008e+08
2.47451e+08
2.60294e+08
2.73472e+08
2.86933e+08
3.00605e+08
3.1441e+08
3.28258e+08
3.42053e+08
3.55678e+08
3.68989e+08
3.81834e+08
3.9404e+08
4.05397e+08
4.15695e+08
4.24725e+08
4.32264e+08
4.38082e+08
4.41963e+08
4.43732e+08
4.43267e+08
4.40443e+08
4.352e+08
4.27547e+08
4.17599e+08
4.05526e+08
3.91592e+08
3.7604e+08
3.59197e+08
3.41304e+08
3.22658e+08
3.03504e+08
2.84065e+08
3.88109e+07
3.87888e+07
3.87263e+07
3.8623e+07
3.84792e+07
3.82948e+07
3.80696e+07
3.78035e+07
3.74964e+07
3.71484e+07
3.67599e+07
3.6331e+07
3.58623e+07
3.53545e+07
3.48083e+07
3.42247e+07
3.3605e+07
3.29504e+07
3.22622e+07
3.15418e+07
3.07907e+07
3.00105e+07
2.9203e+07
2.83701e+07
2.7514e+07
2.66368e+07
2.5741e+07
2.48289e+07
2.39027e+07
2.29651e+07
2.20184e+07
2.10653e+07
2.01084e+07
1.91506e+07
1.81949e+07
1.72442e+07
1.63017e+07
1.53709e+07
1.44552e+07
1.35583e+07
1.26842e+07
1.18368e+07
1.10205e+07
1.02398e+07
9.49931e+06
8.80385e+06
8.15846e+06
7.56825e+06
7.03844e+06
6.57431e+06
6.18114e+06
5.8642e+06
5.6287e+06
5.47975e+06
5.42227e+06
5.46093e+06
5.60009e+06
5.84372e+06
6.19534e+06
6.658e+06
7.23415e+06
7.92565e+06
8.73373e+06
9.65892e+06
1.0701e+07
1.18592e+07
1.31317e+07
1.45164e+07
1.60103e+07
1.76101e+07
1.93116e+07
2.11104e+07
2.30014e+07
2.4979e+07
2.70376e+07
2.91711e+07
3.13733e+07
3.36376e+07
3.59575e+07
3.83261e+07
4.07365e+07
4.31816e+07
4.56542e+07
4.81468e+07
5.06521e+07
5.31622e+07
5.56692e+07
5.81652e+07
6.06418e+07
6.30902e+07
6.55021e+07
6.78684e+07
7.01803e+07
7.2429e+07
7.46056e+07
7.67021e+07
7.87106e+07
8.06241e+07
8.24359e+07
8.41408e+07
8.57338e+07
8.7212e+07
8.85733e+07
8.98174e+07
9.09448e+07
9.19566e+07
9.28543e+07
9.36415e+07
9.43222e+07
9.49011e+07
9.53839e+07
9.57773e+07
9.60876e+07
9.6323e+07
9.64928e+07
9.66063e+07
9.66729e+07
9.67042e+07
9.67122e+07
9.67108e+07
9.67162e+07
9.67487e+07
9.68287e+07
9.69806e+07
9.72318e+07
9.76119e+07
9.81539e+07
9.88975e+07
9.98842e+07
1.01159e+08
1.02769e+08
1.04759e+08
1.07175e+08
1.10061e+08
1.13459e+08
1.17406e+08
1.21934e+08
1.27068e+08
1.32827e+08
1.3922e+08
1.46251e+08
1.53915e+08
1.62198e+08
1.71088e+08
1.80555e+08
1.9057e+08
2.01093e+08
2.12095e+08
2.23527e+08
2.35345e+08
2.47492e+08
2.59916e+08
2.72549e+08
2.85317e+08
2.98136e+08
3.10915e+08
3.2354e+08
3.35878e+08
3.47792e+08
3.59122e+08
3.69675e+08
3.79267e+08
3.87704e+08
3.94795e+08
4.0034e+08
4.04138e+08
4.06043e+08
4.0594e+08
4.03715e+08
3.99302e+08
3.92705e+08
3.8402e+08
3.73386e+08
3.61029e+08
3.47146e+08
3.32019e+08
3.15846e+08
2.98899e+08
2.81409e+08
2.63628e+08
3.49545e+07
3.49392e+07
3.4889e+07
3.48044e+07
3.46855e+07
3.45319e+07
3.43435e+07
3.41198e+07
3.38609e+07
3.35666e+07
3.32369e+07
3.28721e+07
3.24723e+07
3.20379e+07
3.15697e+07
3.10681e+07
3.0534e+07
2.99681e+07
2.93716e+07
2.87453e+07
2.80905e+07
2.74084e+07
2.67003e+07
2.59678e+07
2.52126e+07
2.44366e+07
2.36417e+07
2.28298e+07
2.20027e+07
2.11627e+07
2.03117e+07
1.94521e+07
1.85862e+07
1.77165e+07
1.68455e+07
1.59761e+07
1.51111e+07
1.42536e+07
1.34068e+07
1.25743e+07
1.17597e+07
1.0967e+07
1.02002e+07
9.46375e+06
8.76215e+06
8.10019e+06
7.48274e+06
6.91487e+06
6.40169e+06
5.94845e+06
5.56036e+06
5.24263e+06
5.00044e+06
4.83885e+06
4.76271e+06
4.77664e+06
4.88493e+06
5.09148e+06
5.3997e+06
5.81254e+06
6.33238e+06
6.961e+06
7.69955e+06
8.54848e+06
9.50756e+06
1.05759e+07
1.17518e+07
1.30331e+07
1.44168e+07
1.58997e+07
1.74777e+07
1.91465e+07
2.09012e+07
2.27365e+07
2.46467e+07
2.66261e+07
2.86686e+07
3.07681e+07
3.29179e+07
3.51119e+07
3.73431e+07
3.96048e+07
4.18899e+07
4.41915e+07
4.65021e+07
4.88145e+07
5.1121e+07
5.34139e+07
5.56854e+07
5.79272e+07
6.01315e+07
6.22897e+07
6.43939e+07
6.64362e+07
6.84084e+07
7.03034e+07
7.21141e+07
7.38344e+07
7.54586e+07
7.69823e+07
7.84014e+07
7.97132e+07
8.09169e+07
8.20123e+07
8.30004e+07
8.38826e+07
8.46607e+07
8.5338e+07
8.59185e+07
8.64066e+07
8.68076e+07
8.71267e+07
8.73692e+07
8.75422e+07
8.76542e+07
8.77132e+07
8.77277e+07
8.77071e+07
8.76618e+07
8.76037e+07
8.75471e+07
8.75093e+07
8.75079e+07
8.75641e+07
8.77025e+07
8.79499e+07
8.83359e+07
8.88961e+07
8.96684e+07
9.06939e+07
9.20151e+07
9.36748e+07
9.57156e+07
9.81802e+07
1.01109e+08
1.04538e+08
1.08498e+08
1.13015e+08
1.1811e+08
1.23794e+08
1.30072e+08
1.36944e+08
1.44398e+08
1.52426e+08
1.61004e+08
1.70104e+08
1.79694e+08
1.89747e+08
2.00217e+08
2.11058e+08
2.22218e+08
2.33647e+08
2.45282e+08
2.57051e+08
2.68874e+08
2.80661e+08
2.92305e+08
3.03679e+08
3.14662e+08
3.25105e+08
3.34837e+08
3.4369e+08
3.51491e+08
3.58073e+08
3.63267e+08
3.66894e+08
3.68833e+08
3.68979e+08
3.67227e+08
3.63519e+08
3.57852e+08
3.50305e+08
3.40991e+08
3.30102e+08
3.17798e+08
3.04311e+08
2.89808e+08
2.74525e+08
2.58681e+08
2.42551e+08
3.14701e+07
3.14604e+07
3.14209e+07
3.13528e+07
3.12561e+07
3.11302e+07
3.09748e+07
3.07896e+07
3.05741e+07
3.03282e+07
3.00517e+07
2.97446e+07
2.94069e+07
2.90389e+07
2.86409e+07
2.8213e+07
2.77558e+07
2.72699e+07
2.67558e+07
2.62143e+07
2.56462e+07
2.50524e+07
2.44339e+07
2.3792e+07
2.31279e+07
2.24432e+07
2.17394e+07
2.10178e+07
2.02802e+07
1.95282e+07
1.87637e+07
1.79886e+07
1.72049e+07
1.64147e+07
1.56203e+07
1.48243e+07
1.40293e+07
1.3238e+07
1.24535e+07
1.16791e+07
1.09184e+07
1.0175e+07
9.45302e+06
8.75655e+06
8.09009e+06
7.4583e+06
6.866e+06
6.31814e+06
5.81979e+06
5.37607e+06
4.99216e+06
4.67323e+06
4.42439e+06
4.25068e+06
4.15688e+06
4.14753e+06
4.22683e+06
4.39857e+06
4.66609e+06
5.03219e+06
5.49915e+06
6.06868e+06
6.74181e+06
7.51892e+06
8.39971e+06
9.38317e+06
1.04677e+07
1.1651e+07
1.29301e+07
1.43018e+07
1.57621e+07
1.73068e+07
1.89312e+07
2.063e+07
2.23978e+07
2.4229e+07
2.61178e+07
2.80581e+07
3.00436e+07
3.20682e+07
3.41255e+07
3.62089e+07
3.83117e+07
4.04269e+07
4.25478e+07
4.46671e+07
4.67777e+07
4.88723e+07
5.09434e+07
5.29833e+07
5.49847e+07
5.694e+07
5.88416e+07
6.06824e+07
6.24553e+07
6.41538e+07
6.57717e+07
6.73037e+07
6.87452e+07
7.00926e+07
7.13426e+07
7.24931e+07
7.35437e+07
7.44946e+07
7.53472e+07
7.61027e+07
7.67634e+07
7.73322e+07
7.78129e+07
7.82098e+07
7.85275e+07
7.877e+07
7.89424e+07
7.90509e+07
7.91022e+07
7.91037e+07
7.90627e+07
7.89869e+07
7.88859e+07
7.87695e+07
7.86506e+07
7.85436e+07
7.84636e+07
7.8429e+07
7.84614e+07
7.85852e+07
7.8827e+07
7.92183e+07
7.97931e+07
8.0588e+07
8.16419e+07
8.29954e+07
8.46882e+07
8.67608e+07
8.9252e+07
9.21973e+07
9.56276e+07
9.95691e+07
1.04044e+08
1.09066e+08
1.14643e+08
1.20778e+08
1.27462e+08
1.34691e+08
1.42443e+08
1.50697e+08
1.59423e+08
1.68595e+08
1.78174e+08
1.88109e+08
1.9835e+08
2.08851e+08
2.19552e+08
2.3038e+08
2.41259e+08
2.52098e+08
2.62796e+08
2.73237e+08
2.83308e+08
2.9287e+08
3.01776e+08
3.09872e+08
3.17003e+08
3.23024e+08
3.27798e+08
3.31164e+08
3.33026e+08
3.33298e+08
3.31887e+08
3.28741e+08
3.23857e+08
3.17295e+08
3.09152e+08
2.99586e+08
2.88727e+08
2.76761e+08
2.63831e+08
2.50132e+08
2.35872e+08
2.21338e+08
2.84677e+07
2.84622e+07
2.84313e+07
2.83771e+07
2.82993e+07
2.81973e+07
2.80705e+07
2.79185e+07
2.77408e+07
2.75371e+07
2.73069e+07
2.705e+07
2.67664e+07
2.6456e+07
2.61188e+07
2.57548e+07
2.53643e+07
2.49475e+07
2.45047e+07
2.40365e+07
2.35432e+07
2.30256e+07
2.24844e+07
2.19205e+07
2.1335e+07
2.07289e+07
2.01034e+07
1.94597e+07
1.87991e+07
1.81229e+07
1.74328e+07
1.67303e+07
1.60171e+07
1.52952e+07
1.45666e+07
1.38336e+07
1.30986e+07
1.23641e+07
1.16331e+07
1.09087e+07
1.01942e+07
9.49319e+06
8.80954e+06
8.14734e+06
7.51095e+06
6.90493e+06
6.33403e+06
5.80312e+06
5.31718e+06
4.88127e+06
4.50053e+06
4.18007e+06
3.92495e+06
3.74012e+06
3.6303e+06
3.59992e+06
3.65312e+06
3.7936e+06
4.02455e+06
4.34867e+06
4.76809e+06
5.2844e+06
5.89851e+06
6.61067e+06
7.42048e+06
8.32686e+06
9.32809e+06
1.04219e+07
1.16053e+07
1.28749e+07
1.42269e+07
1.56572e+07
1.71609e+07
1.87331e+07
2.03684e+07
2.20614e+07
2.38063e+07
2.55973e+07
2.74282e+07
2.92932e+07
3.1186e+07
3.31005e+07
3.50302e+07
3.69684e+07
3.89085e+07
4.08438e+07
4.27675e+07
4.46725e+07
4.65521e+07
4.8399e+07
5.02065e+07
5.19674e+07
5.36752e+07
5.53233e+07
5.69053e+07
5.84157e+07
5.9849e+07
6.1201e+07
6.2468e+07
6.36467e+07
6.47349e+07
6.5731e+07
6.6635e+07
6.74471e+07
6.81691e+07
6.88023e+07
6.93487e+07
6.98116e+07
7.01942e+07
7.05004e+07
7.07341e+07