/*--------------------------------*- C++ -*----------------------------------*\
| =========                 |                                                 |
| \\      /  F ield         | OpenFOAM: The Open Source CFD Toolbox           |
|  \\    /   O peration     | Version:  dev                                   |
|   \\  /    A nd           | Web:      http://www.openfoam.org               |
|    \\/     M anipulation  |                                                 |
\*---------------------------------------------------------------------------*/
FoamFile
{
    version     2.0;
    format      ascii;
    class       volScalarField;
    object      rho;
    location    "9.119";
}
// * * * * * * * * * * * * * * * * * * * * * * * * * * * * * * * * * * * * * //

dimensions      [1 -3 0 0 0 0 0];

internalField   nonuniform List<scalar> 
12225
(
1.2042
1.21027
1.21398
1.21705
1.21987
1.22155
1.22258
1.22414
1.22364
1.22583
1.22349
1.22724
1.22226
1.22981
1.22046
1.23039
1.23029
1.22268
1.20575
1.21458
1.22003
1.22625
1.23011
1.23587
1.23682
1.24286
1.24034
1.24803
1.24116
1.25236
1.23985
1.25697
1.24033
1.255
1.25033
1.25664
1.20478
1.21438
1.21865
1.2258
1.22895
1.23587
1.23766
1.24414
1.24432
1.24985
1.24897
1.25295
1.25202
1.25397
1.25354
1.25285
1.2511
1.25099
1.2044
1.21346
1.21853
1.22298
1.22874
1.23076
1.23752
1.23733
1.2449
1.2421
1.2503
1.24547
1.25282
1.24786
1.25272
1.25002
1.25301
1.25087
1.20615
1.21048
1.21945
1.21931
1.22868
1.22648
1.23591
1.23306
1.24204
1.23846
1.24649
1.24274
1.24908
1.24603
1.25027
1.24824
1.25047
1.24953
1.20642
1.20808
1.21855
1.21764
1.22704
1.22534
1.23376
1.23226
1.23959
1.23775
1.24373
1.24131
1.24613
1.24424
1.24744
1.24579
1.2475
1.24597
1.20537
1.20719
1.21657
1.21651
1.22455
1.22404
1.23111
1.23082
1.23684
1.23596
1.24022
1.23918
1.24254
1.24193
1.24348
1.24316
1.24331
1.24296
1.20416
1.20572
1.21493
1.2147
1.22219
1.22172
1.2282
1.22817
1.2335
1.23269
1.23627
1.23561
1.23823
1.23784
1.23876
1.23875
1.23859
1.23831
1.2029
1.20383
1.21267
1.21237
1.21928
1.2191
1.22459
1.22503
1.22933
1.22905
1.2318
1.23175
1.23346
1.23347
1.23387
1.23411
1.23375
1.23362
1.20075
1.20148
1.20938
1.20893
1.21501
1.21534
1.21992
1.22083
1.2241
1.22416
1.22595
1.22622
1.2271
1.22726
1.22731
1.22759
1.22721
1.22711
1.19765
1.19862
1.20499
1.20475
1.20948
1.21014
1.21342
1.21455
1.21675
1.21718
1.2182
1.21859
1.21886
1.219
1.21875
1.219
1.2185
1.21843
1.19393
1.19482
1.1991
1.19931
1.20262
1.20352
1.20561
1.20658
1.20778
1.2082
1.20859
1.20869
1.20857
1.20855
1.20816
1.20832
1.20774
1.20757
1.18923
1.18997
1.1921
1.1923
1.194
1.19468
1.19562
1.19605
1.19648
1.1966
1.1965
1.19624
1.19592
1.19572
1.19523
1.19511
1.19439
1.19389
1.18366
1.18343
1.1838
1.18363
1.18392
1.18405
1.18388
1.18368
1.18338
1.18304
1.18249
1.18187
1.18126
1.18078
1.18009
1.17959
1.17866
1.17787
1.17718
1.17512
1.17386
1.17289
1.17202
1.17128
1.17023
1.16942
1.16858
1.1678
1.16685
1.16597
1.16502
1.16419
1.16316
1.16226
1.16114
1.16016
1.16872
1.16474
1.1625
1.1608
1.15909
1.15754
1.15587
1.15454
1.15318
1.15191
1.15061
1.14941
1.14813
1.14707
1.14581
1.14467
1.14343
1.14243
1.15895
1.15311
1.1502
1.14781
1.14545
1.14325
1.14136
1.13985
1.1383
1.13678
1.13537
1.13395
1.13278
1.13184
1.13053
1.12925
1.12818
1.12724
1.14819
1.14112
1.13823
1.13605
1.13398
1.13181
1.13014
1.1289
1.12757
1.12597
1.12473
1.1235
1.123
1.12264
1.12162
1.12038
1.11976
1.11897
1.13855
1.13128
1.12907
1.12752
1.1262
1.12454
1.12339
1.12292
1.12255
1.12162
1.12101
1.12036
1.1207
1.12106
1.12044
1.11943
1.11926
1.11861
1.13079
1.12375
1.12248
1.12185
1.12161
1.12095
1.12047
1.12059
1.12131
1.12164
1.12185
1.12172
1.12253
1.12325
1.12322
1.1228
1.1228
1.12238
1.1242
1.11766
1.11752
1.11797
1.11876
1.11929
1.11992
1.12063
1.1218
1.12312
1.12419
1.12474
1.12587
1.12649
1.12727
1.12762
1.12779
1.12796
1.11968
1.11384
1.11454
1.11582
1.1174
1.1187
1.12041
1.12197
1.12345
1.12522
1.12707
1.12832
1.12967
1.13062
1.13195
1.13259
1.13322
1.13389
1.11604
1.11065
1.11218
1.11429
1.11662
1.11856
1.12079
1.12295
1.12511
1.12708
1.12908
1.131
1.13286
1.13432
1.13577
1.13661
1.13773
1.13841
1.11357
1.10846
1.1106
1.11325
1.11604
1.11869
1.12133
1.12372
1.12629
1.12866
1.13088
1.13319
1.13537
1.13712
1.13893
1.14028
1.14148
1.1425
1.11139
1.10694
1.1096
1.11255
1.11559
1.11855
1.12165
1.12466
1.12745
1.13011
1.1327
1.13492
1.13704
1.13898
1.14079
1.14237
1.14382
1.14514
1.11006
1.10589
1.10881
1.11208
1.11551
1.11883
1.12213
1.12525
1.12831
1.13109
1.13377
1.13634
1.13873
1.14092
1.14301
1.14479
1.14649
1.1481
1.10904
1.10502
1.10835
1.11195
1.11552
1.11897
1.12254
1.12584
1.12914
1.13216
1.13525
1.13809
1.14087
1.14343
1.14584
1.14798
1.15014
1.1523
1.10901
1.10481
1.108
1.11169
1.11556
1.11949
1.12351
1.12724
1.13095
1.13436
1.13784
1.141
1.1442
1.14703
1.14999
1.15263
1.15558
1.15822
1.10872
1.10482
1.10819
1.11217
1.11633
1.12054
1.12459
1.12836
1.13191
1.13516
1.13838
1.14132
1.14431
1.14707
1.14994
1.1521
1.15462
1.15592
1.11083
1.10703
1.10869
1.11078
1.11313
1.11544
1.11758
1.11955
1.12137
1.12305
1.12465
1.12607
1.12744
1.12864
1.12967
1.13045
1.13119
1.1317
1.18382
1.24036
1.25083
1.24247
1.2373
1.23327
1.22962
1.22611
1.22314
1.22032
1.21789
1.2153
1.21259
1.20997
1.20776
1.20627
1.20475
1.20256
1.20188
1.20155
1.20038
1.20083
1.20006
1.20093
1.20113
1.20191
1.20262
1.20332
1.20421
1.20377
1.20247
1.20151
1.20839
1.20358
1.19467
1.19615
1.20143
1.20522
1.21347
1.2196
1.22301
1.22731
1.22968
1.23549
1.23596
1.23173
1.22499
1.2243
1.21517
1.20139
1.20414
1.21449
1.20434
1.19663
1.19574
1.18544
1.16546
1.17147
1.18791
1.19328
1.19823
1.20172
1.20509
1.20812
1.21105
1.21398
1.21698
1.21994
1.22301
1.22618
1.22959
1.23301
1.23667
1.24046
1.24454
1.2488
1.25327
1.25798
1.26279
1.26783
1.27311
1.27848
1.28417
1.2901
1.29646
1.30281
1.30901
1.31551
1.32257
1.32968
1.33647
1.34354
1.35082
1.35786
1.36523
1.37255
1.37973
1.38655
1.39297
1.40001
1.40497
1.40872
1.41021
1.41038
1.41016
1.41003
1.4091
1.40579
1.40222
1.40087
1.40206
1.40455
1.40763
1.41286
1.41817
1.42011
1.42033
1.42135
1.42173
1.42116
1.41748
1.41471
1.40768
1.39355
1.3751
1.35826
1.34593
1.33694
1.32213
1.30911
1.29842
1.29473
1.29549
1.2944
1.29379
1.30161
1.30301
1.28748
1.27706
1.26577
1.24817
1.25077
1.24555
1.23825
1.25274
1.25235
1.24639
1.25355
1.24603
1.24262
1.24341
1.24041
1.24099
1.24089
1.24082
1.24053
1.23763
1.2383
1.24127
1.25117
1.26504
1.28397
1.3066
1.32177
1.31457
1.3104
1.3061
1.38508
1.44176
1.47129
1.44647
1.41288
1.43226
1.46305
1.4634
1.47085
1.48541
1.47747
1.49404
1.48087
1.17222
1.22857
1.2639
1.26915
1.25839
1.24181
1.22873
1.21955
1.21329
1.20691
1.20223
1.19839
1.19428
1.18938
1.18463
1.1822
1.18135
1.18029
1.18029
1.18021
1.18294
1.18478
1.18747
1.19109
1.19563
1.19766
1.20232
1.20532
1.20654
1.20919
1.21005
1.20457
1.20228
1.20275
1.20149
1.23023
1.25849
1.25892
1.27051
1.2847
1.28739
1.28087
1.27212
1.27885
1.26421
1.2712
1.28618
1.2854
1.2893
1.27585
1.24774
1.26373
1.22159
1.19718
1.20877
1.20686
1.2133
1.21731
1.22229
1.22377
1.22657
1.2281
1.23053
1.23225
1.23471
1.23651
1.23941
1.24141
1.24481
1.24725
1.25093
1.25397
1.25785
1.26165
1.26605
1.27074
1.27569
1.28107
1.28681
1.29242
1.29827
1.30456
1.31112
1.31816
1.32612
1.33486
1.34246
1.35016
1.3585
1.36799
1.37756
1.38692
1.39722
1.40693
1.41702
1.42707
1.43788
1.44753
1.45859
1.46723
1.4757
1.48111
1.48361
1.48198
1.47645
1.46879
1.46254
1.45295
1.44063
1.43783
1.43913
1.43798
1.44052
1.44974
1.46436
1.48206
1.4983
1.50534
1.49795
1.47494
1.45274
1.45999
1.48679
1.50724
1.46272
1.38866
1.33552
1.31288
1.27352
1.2459
1.22794
1.22642
1.23302
1.23785
1.24828
1.28965
1.36444
1.40637
1.40472
1.35744
1.2988
1.29547
1.27644
1.26992
1.31382
1.28759
1.30704
1.27382
1.29097
1.22405
1.23975
1.22639
1.23573
1.24066
1.24827
1.26382
1.27246
1.29185
1.29556
1.29459
1.31285
1.37114
1.43711
1.48673
1.4535
1.44144
1.44191
1.59331
1.62204
1.68643
1.65361
1.59178
1.58122
1.64646
1.68422
1.68409
1.71287
1.65721
1.70747
1.66904
1.16165
1.20065
1.22715
1.22342
1.20345
1.18249
1.16818
1.15937
1.15484
1.14981
1.14582
1.14264
1.14019
1.13767
1.1358
1.13598
1.13838
1.14164
1.14675
1.15284
1.16363
1.17285
1.18306
1.19416
1.2047
1.21376
1.22006
1.22827
1.23409
1.23819
1.23742
1.23658
1.22934
1.21536
1.20262
1.20223
1.21802
1.25176
1.26518
1.28126
1.2816
1.25843
1.24146
1.22816
1.19805
1.21136
1.24723
1.23752
1.24008
1.23416
1.20956
1.20893
1.20284
1.20953
1.20748
1.20931
1.20859
1.20768
1.20659
1.20522
1.20472
1.20362
1.20379
1.20357
1.20422
1.20462
1.2056
1.20693
1.20822
1.2102
1.2118
1.21461
1.21632
1.21959
1.22188
1.22559
1.22867
1.23262
1.23713
1.24128
1.24555
1.25037
1.25501
1.25997
1.26545
1.27313
1.27976
1.28645
1.29191
1.30035
1.30897
1.318
1.32753
1.33763
1.34734
1.35713
1.36968
1.3802
1.39639
1.4046
1.42048
1.43294
1.45022
1.46826
1.47774
1.46851
1.45498
1.44989
1.44028
1.42741
1.42053
1.41044
1.39891
1.3993
1.39995
1.40179
1.43011
1.45272
1.44775
1.38229
1.30807
1.28408
1.31167
1.41424
1.49145
1.38601
1.26472
1.22571
1.20053
1.19781
1.20825
1.20958
1.19123
1.17029
1.16899
1.18978
1.25979
1.36139
1.44063
1.40455
1.33464
1.30164
1.28855
1.2628
1.29024
1.25912
1.30725
1.16328
1.27036
1.13591
1.15272
1.14008
1.15259
1.16059
1.17365
1.19399
1.21383
1.24543
1.27547
1.31837
1.31283
1.3544
1.42376
1.51999
1.51229
1.48382
1.54696
1.60407
1.5673
1.61797
1.58032
1.61995
1.62972
1.64503
1.74975
1.77818
1.8548
1.77073
1.87144
1.85813
1.15424
1.17539
1.18427
1.17422
1.15656
1.1424
1.13521
1.13258
1.13171
1.13035
1.1293
1.12756
1.12614
1.1252
1.1263
1.12902
1.13343
1.14044
1.1512
1.16495
1.17849
1.19213
1.20388
1.21241
1.21985
1.22581
1.2273
1.23451
1.24055
1.249
1.25485
1.26092
1.26107
1.25081
1.23589
1.21668
1.20286
1.21713
1.22328
1.25406
1.25044
1.22386
1.19194
1.1609
1.16109
1.21519
1.20909
1.21968
1.21412
1.20868
1.20731
1.20633
1.20547
1.20499
1.2012
1.20122
1.19671
1.19724
1.19376
1.1941
1.19237
1.19203
1.19243
1.1915
1.19294
1.19252
1.19402
1.19495
1.19596
1.19814
1.19884
1.20199
1.20317
1.20622
1.20833
1.21165
1.21419
1.21726
1.22095
1.2243
1.22777
1.23132
1.23522
1.23954
1.24292
1.24726
1.25109
1.25694
1.2604
1.26598
1.26948
1.27561
1.2794
1.28574
1.29088
1.29564
1.30285
1.30733
1.3191
1.32275
1.33578
1.34418
1.35585
1.37242
1.39991
1.43307
1.45255
1.45142
1.43854
1.42579
1.42056
1.4091
1.40641
1.42718
1.41257
1.36595
1.35934
1.36721
1.3773
1.35577
1.2896
1.23542
1.21225
1.22071
1.34385
1.45909
1.40006
1.31024
1.27142
1.27345
1.29724
1.30795
1.27391
1.22879
1.20109
1.20995
1.24005
1.29584
1.40421
1.41616
1.36015
1.30952
1.29805
1.28658
1.28391
1.21185
1.226
1.09631
1.19665
1.12696
1.1333
1.13875
1.14525
1.14773
1.15617
1.17392
1.18073
1.20658
1.21421
1.26617
1.29555
1.33973
1.37233
1.44774
1.532
1.48348
1.59894
1.59126
1.57321
1.61996
1.54174
1.59368
1.65027
1.63981
1.76816
1.79883
1.90971
1.84678
1.94982
1.98988
1.15091
1.16123
1.16186
1.15225
1.14133
1.13273
1.13104
1.13257
1.1342
1.13432
1.1332
1.13134
1.1313
1.13203
1.13421
1.13696
1.1429
1.1509
1.15973
1.16853
1.17656
1.18473
1.18979
1.19433
1.19722
1.19863
1.20113
1.20879
1.21931
1.2328
1.24127
1.25283
1.26549
1.26671
1.26373
1.24367
1.21973
1.21979
1.21383
1.23982
1.23619
1.18698
1.17247
1.225
1.1937
1.21149
1.21062
1.20938
1.20779
1.20438
1.20193
1.19742
1.19616
1.18953
1.18973
1.18328
1.18464
1.18059
1.18119
1.17867
1.17961
1.17803
1.17885
1.17837
1.17888
1.1797
1.17961
1.18138
1.18193
1.18306
1.18518
1.18562
1.18822
1.18921
1.19134
1.19421
1.19576
1.19813
1.20187
1.20408
1.20806
1.2115
1.21469
1.21918
1.22263
1.22765
1.23175
1.238
1.24263
1.24946
1.2532
1.26195
1.26546
1.27149
1.27768
1.28119
1.28909
1.28883
1.29571
1.29507
1.29836
1.30131
1.30444
1.30788
1.3132
1.3261
1.35788
1.40189
1.42716
1.43994
1.43389
1.41075
1.41374
1.42169
1.40003
1.39353
1.39763
1.36993
1.33965
1.33874
1.33836
1.32236
1.30879
1.26188
1.19631
1.28001
1.37763
1.39509
1.3788
1.36763
1.34733
1.35787
1.35616
1.29894
1.19664
1.19653
1.22101
1.2553
1.3493
1.39561
1.38341
1.30659
1.27494
1.35559
1.33621
1.20974
1.18869
1.12076
1.14807
1.12946
1.15329
1.15839
1.1722
1.18207
1.1736
1.17903
1.18683
1.20488
1.21323
1.23322
1.26193
1.31467
1.34858
1.36531
1.50737
1.51157
1.57466
1.58734
1.58772
1.6105
1.53676
1.57138
1.64487
1.68048
1.72791
1.78194
1.9123
1.87605
1.97084
2.06141
1.15042
1.15399
1.15109
1.14333
1.13603
1.13147
1.13282
1.13412
1.1346
1.13157
1.12861
1.12881
1.1315
1.13349
1.13679
1.14133
1.14723
1.15182
1.15577
1.16111
1.16601
1.17186
1.17654
1.18097
1.18464
1.18544
1.18633
1.18876
1.19894
1.21942
1.2422
1.25712
1.26131
1.26163
1.27025
1.25873
1.2381
1.22182
1.21514
1.24407
1.22334
1.19241
1.20004
1.20773
1.19945
1.21145
1.20307
1.20091
1.19946
1.19148
1.19092
1.18439
1.18415
1.17861
1.18177
1.17429
1.18031
1.17229
1.1786
1.17314
1.17667
1.17509
1.17524
1.1775
1.17536
1.1791
1.1778
1.17986
1.18161
1.1815
1.18468
1.18484
1.18621
1.18776
1.18743
1.19083
1.19094
1.19186
1.19467
1.19512
1.19691
1.19928
1.20027
1.20315
1.20488
1.2077
1.2107
1.21299
1.21625
1.22155
1.22387
1.22976
1.2346
1.23818
1.24744
1.24938
1.25794
1.26156
1.26751
1.27364
1.27841
1.28521
1.28878
1.29227
1.29544
1.2938
1.28754
1.30343
1.32398
1.35719
1.38682
1.39855
1.41464
1.41166
1.40022
1.40705
1.39778
1.37737
1.36485
1.35109
1.35305
1.3212
1.29529
1.35934
1.32525
1.21955
1.232
1.27812
1.31482
1.32168
1.26279
1.29235
1.38761
1.39602
1.24541
1.16565
1.15989
1.20164
1.30323
1.36081
1.38524
1.32263
1.23825
1.37757
1.34171
1.19097
1.18686
1.13856
1.1694
1.13068
1.17918
1.16083
1.1788
1.1728
1.20097
1.18614
1.20344
1.20507
1.21981
1.22221
1.23402
1.27811
1.34046
1.30595
1.45225
1.50855
1.55008
1.58706
1.60327
1.5901
1.53678
1.57261
1.65269
1.73929
1.65432
1.76538
1.8026
1.87377
1.97159
1.97834
1.15189
1.151
1.14628
1.14063
1.13521
1.13152
1.13031
1.12886
1.12755
1.12777
1.13431
1.14256
1.14634
1.14797
1.15023
1.15102
1.15197
1.15327
1.15368
1.15562
1.15693
1.1578
1.15771
1.15625
1.15536
1.15509
1.15416
1.15342
1.15871
1.16807
1.1984
1.2424
1.26941
1.27124
1.27503
1.26792
1.25042
1.22743
1.23139
1.24245
1.20498
1.1879
1.20448
1.20468
1.19799
1.20581
1.19226
1.19401
1.18873
1.18223
1.18519
1.17708
1.18001
1.17455
1.17691
1.1708
1.17566
1.16892
1.17441
1.16928
1.17244
1.17205
1.17142
1.17522
1.17317
1.17723
1.17709
1.17959
1.18154
1.18359
1.18552
1.1887
1.18888
1.1922
1.19183
1.19505
1.19598
1.19748
1.19934
1.20046
1.20148
1.20349
1.20439
1.20587
1.208
1.20863
1.21146
1.21247
1.21505
1.21659
1.2193
1.22065
1.22444
1.22707
1.22942
1.2339
1.23491
1.23912
1.24051
1.24409
1.24826
1.25069
1.25295
1.25772
1.26502
1.27567
1.27406
1.27952
1.28698
1.28435
1.28525
1.32102
1.3481
1.34199
1.34076
1.34898
1.35457
1.35732
1.35042
1.32006
1.33546
1.34666
1.28094
1.19738
1.2687
1.2949
1.23204
1.20107
1.20984
1.20088
1.12226
1.11703
1.21633
1.29543
1.24905
1.1444
1.12424
1.16964
1.281
1.34274
1.38132
1.34727
1.2303
1.32619
1.28909
1.17517
1.19308
1.1413
1.20997
1.14769
1.20577
1.16602
1.21599
1.1751
1.20728
1.18498
1.20424
1.20611
1.23355
1.2426
1.23999
1.24563
1.33835
1.26748
1.41388
1.45081
1.49816
1.58972
1.62173
1.5739
1.52388
1.58204
1.69643
1.73687
1.63132
1.81005
1.70926
1.87201
1.93013
1.83391
1.15459
1.15018
1.14327
1.13667
1.12993
1.12705
1.1281
1.1298
1.13465
1.14238
1.14818
1.14762
1.14682
1.14935
1.1531
1.16012
1.16929
1.17423
1.17615
1.17965
1.18163
1.18244
1.18185
1.18109
1.17875
1.17672
1.17197
1.16478
1.16322
1.15933
1.1731
1.21861
1.26028
1.26835
1.2751
1.27343
1.258
1.23872
1.2452
1.2334
1.19815
1.19269
1.20663
1.19918
1.19468
1.19816
1.18355
1.18837
1.17989
1.1769
1.17932
1.17073
1.17514
1.16835
1.17059
1.16814
1.17004
1.16725
1.17008
1.16735
1.16922
1.16886
1.16917
1.17135
1.17105
1.17462
1.17467
1.17788
1.17898
1.18227
1.18353
1.18711
1.18783
1.19024
1.19095
1.19241
1.19432
1.1956
1.19786
1.19914
1.20026
1.20057
1.20325
1.20175
1.20452
1.20563
1.20705
1.20717
1.21103
1.21243
1.21285
1.21696
1.21737
1.22129
1.22279
1.22523
1.23045
1.23029
1.23354
1.23572
1.23796
1.23679
1.23933
1.24139
1.2423
1.24452
1.25001
1.2561
1.25221
1.2576
1.25766
1.26505
1.27279
1.28194
1.29294
1.28166
1.27567
1.28931
1.3091
1.27333
1.25055
1.24817
1.30953
1.28545
1.19107
1.202
1.2377
1.22933
1.21566
1.20318
1.15604
1.10881
1.14254
1.20678
1.22804
1.11361
1.10997
1.14768
1.26011
1.33613
1.36814
1.35064
1.26631
1.28264
1.24056
1.19353
1.23239
1.16984
1.23766
1.16953
1.2359
1.18422
1.22973
1.19742
1.22649
1.21325
1.21663
1.21754
1.22456
1.24204
1.24773
1.2276
1.34475
1.24288
1.39785
1.38265
1.40532
1.57669
1.58754
1.54343
1.51216
1.63361
1.7383
1.69367
1.6227
1.87504
1.64496
1.89154
1.89139
1.80722
1.15807
1.15067
1.14144
1.13379
1.12963
1.13172
1.13193
1.13084
1.13392
1.13757
1.14435
1.15648
1.17262
1.18284
1.18666
1.18747
1.1835
1.17714
1.1781
1.1826
1.18417
1.18546
1.18631
1.18778
1.18727
1.18702
1.1855
1.18212
1.17882
1.16608
1.1695
1.21196
1.25521
1.26772
1.2755
1.27354
1.26181
1.24609
1.24177
1.21571
1.19066
1.19447
1.20541
1.19281
1.19073
1.19088
1.177
1.18359
1.17327
1.1748
1.17501
1.16731
1.17329
1.1675
1.17097
1.17084
1.16999
1.1693
1.16798
1.16607
1.16712
1.16469
1.16608
1.16632
1.16548
1.16769
1.16733
1.16947
1.17061
1.17282
1.17464
1.17703
1.18027
1.18164
1.18468
1.18451
1.18903
1.19082
1.19363
1.19679
1.19931
1.19767
1.20239
1.19922
1.20191
1.20086
1.20372
1.2006
1.20371
1.20579
1.20535
1.20507
1.21113
1.20964
1.21107
1.21376
1.21767
1.21777
1.22184
1.22485
1.22817
1.22659
1.23225
1.22838
1.22636
1.23493
1.2289
1.23172
1.24195
1.24196
1.23129
1.24086
1.24988
1.23769
1.2421
1.24933
1.2517
1.23842
1.25415
1.25489
1.26015
1.23121
1.18523
1.23889
1.27136
1.2325
1.20734
1.20383
1.22172
1.26051
1.27715
1.20448
1.16792
1.20921
1.24484
1.14113
1.11331
1.12918
1.22082
1.32464
1.36189
1.34619
1.31113
1.28464
1.2565
1.2374
1.27241
1.21467
1.25948
1.18947
1.25927
1.21009
1.24694
1.21913
1.2252
1.23524
1.21775
1.23461
1.23151
1.25458
1.26449
1.21586
1.34373
1.21669
1.40205
1.33801
1.31821
1.53046
1.52277
1.52915
1.54139
1.67069
1.69741
1.63597
1.63982
1.81542
1.64157
1.84232
1.86566
1.87663
1.16226
1.15285
1.14293
1.1372
1.13645
1.13659
1.13346
1.13361
1.14388
1.15561
1.16091
1.15915
1.15734
1.1567
1.15751
1.15931
1.16317
1.16825
1.1717
1.17504
1.17849
1.18226
1.18519
1.18727
1.18699
1.18602
1.18571
1.18515
1.18209
1.16963
1.17525
1.21838
1.25867
1.26928
1.27365
1.27267
1.26572
1.24834
1.23643
1.20867
1.19205
1.19737
1.20322
1.18688
1.1872
1.18408
1.17261
1.1816
1.16875
1.17355
1.17315
1.16584
1.17279
1.16755
1.17045
1.16948
1.1642
1.16424
1.16088
1.15949
1.16245
1.15952
1.1604
1.15992
1.15822
1.15788
1.15657
1.15571
1.15509
1.15483
1.15649
1.15524
1.15949
1.15926
1.16231
1.16374
1.16508
1.17022
1.1735
1.17779
1.18297
1.18394
1.18775
1.18911
1.18948
1.18929
1.1927
1.19024
1.18962
1.19327
1.19216
1.19257
1.19702
1.20039
1.20149
1.2025
1.20488
1.2048
1.20936
1.20554
1.2114
1.21675
1.21336
1.22275
1.22473
1.21814
1.22099
1.21843
1.21215
1.22561
1.22946
1.2217
1.22609
1.22632
1.22347
1.21525
1.22736
1.22718
1.22386
1.21907
1.21056
1.25524
1.23167
1.18309
1.19365
1.22684
1.23227
1.19407
1.1754
1.21087
1.26968
1.22148
1.16464
1.2094
1.24185
1.17118
1.10459
1.11165
1.19209
1.31725
1.36533
1.3437
1.32918
1.29668
1.29922
1.2966
1.30556
1.24463
1.28158
1.21171
1.28979
1.23472
1.25657
1.2429
1.23874
1.26373
1.2287
1.25397
1.23001
1.26008
1.27071
1.21077
1.34859
1.1986
1.41117
1.31126
1.2837
1.49187
1.46481
1.5123
1.55753
1.62563
1.63311
1.6365
1.63956
1.74365
1.87546
1.87791
1.91005
1.8473
1.16758
1.1586
1.15157
1.15051
1.15017
1.14584
1.14064
1.13945
1.14592
1.15299
1.16207
1.16778
1.17398
1.18303
1.18955
1.19291
1.19603
1.19407
1.19137
1.19453
1.19717
1.19744
1.19643
1.19485
1.19207
1.1903
1.18872
1.18661
1.18189
1.17684
1.19666
1.24537
1.27695
1.27801
1.27772
1.27575
1.2622
1.23933
1.22434
1.1998
1.18953
1.19564
1.20016
1.18117
1.18552
1.18098
1.16911
1.1806
1.16787
1.17243
1.17194
1.16571
1.17302
1.16781
1.16906
1.17024
1.16147
1.16397
1.16504
1.16309
1.16719
1.16504
1.16394
1.16263
1.16057
1.15862
1.15715
1.15611
1.15603
1.15381
1.15362
1.15145
1.15171
1.15311
1.1497
1.15242
1.15095
1.15454
1.15922
1.16489
1.16821
1.17633
1.1743
1.18082
1.18074
1.18172
1.18062
1.18378
1.17692
1.17818
1.1787
1.17212
1.17644
1.17892
1.18096
1.18097
1.18982
1.19136
1.18904
1.19409
1.19218
1.19217
1.19746
1.1944
1.19778
1.2076
1.20506
1.20675
1.20588
1.20382
1.20799
1.2168
1.21808
1.20955
1.21491
1.2103
1.19494
1.19454
1.2082
1.22332
1.17788
1.18861
1.2315
1.2123
1.17986
1.18574
1.22441
1.22322
1.18752
1.179
1.23313
1.20469
1.14176
1.18958
1.22984
1.19245
1.11307
1.09997
1.1786
1.30494
1.3595
1.32911
1.31495
1.30275
1.32775
1.32798
1.32973
1.26358
1.28399
1.23593
1.30665
1.2444
1.26843
1.25288
1.24811
1.27814
1.22864
1.26799
1.23413
1.26868
1.27753
1.21384
1.35306
1.18791
1.41352
1.29973
1.29166
1.4677
1.43077
1.51269
1.58315
1.5915
1.62625
1.64662
1.69109
1.73616
1.88028
1.9119
1.90477
1.76513
1.17353
1.16578
1.16036
1.15824
1.15579
1.15659
1.15501
1.15504
1.16026
1.1591
1.16083
1.16684
1.17736
1.18537
1.1857
1.18636
1.18816
1.18896
1.19176
1.19515
1.19649
1.1983
1.20015
1.19847
1.19453
1.19154
1.1887
1.18557
1.18334
1.19183
1.22512
1.26813
1.2813
1.27549
1.27889
1.27716
1.25975
1.23745
1.21985
1.1977
1.19186
1.19812
1.20011
1.17804
1.18245
1.17853
1.16755
1.17776
1.16559
1.17266
1.17145
1.16395
1.17223
1.17103
1.16541
1.1714
1.16431
1.16193
1.16721
1.16326
1.16421
1.1621
1.15804
1.15421
1.151
1.14815
1.14657
1.14506
1.14641
1.14855
1.14797
1.1506
1.14869
1.1522
1.14929
1.14768
1.14354
1.14248
1.14691
1.15384
1.15891
1.16805
1.17373
1.17495
1.1787
1.18098
1.17534
1.17636
1.17339
1.16957
1.17216
1.16667
1.1677
1.1652
1.16078
1.16389
1.16539
1.16512
1.1725
1.17185
1.17586
1.18222
1.17634
1.18251
1.17951
1.17612
1.18564
1.18861
1.18656
1.19415
1.1908
1.19039
1.20536
1.20324
1.19242
1.20156
1.20585
1.18274
1.16963
1.203
1.19457
1.1617
1.19047
1.21158
1.19094
1.17768
1.1963
1.20499
1.18752
1.18147
1.22746
1.21587
1.152
1.18205
1.21871
1.21412
1.14313
1.10625
1.1772
1.28498
1.33635
1.30983
1.30623
1.31163
1.35339
1.34709
1.32367
1.26688
1.27809
1.2622
1.32987
1.2541
1.28573
1.26409
1.26705
1.29205
1.22572
1.27454
1.22702
1.27384
1.27552
1.21747
1.34951
1.18572
1.41256
1.29204
1.32368
1.43949
1.41401
1.54013
1.65239
1.59011
1.64286
1.67168
1.70339
1.63811
1.78537
1.85011
1.66117
1.74156
1.17938
1.17226
1.16662
1.16264
1.15882
1.15906
1.15659
1.15595
1.16271
1.16954
1.17705
1.17535
1.16988
1.16969
1.174
1.18166
1.18883
1.19435
1.1976
1.20122
1.20363
1.20749
1.20825
1.20282
1.19657
1.19255
1.19104
1.19278
1.19866
1.21846
1.25375
1.27706
1.26816
1.2581
1.26417
1.2609
1.24767
1.23451
1.21821
1.19395
1.18909
1.19745
1.1954
1.17657
1.18235
1.17548
1.16619
1.18023
1.16642
1.16977
1.1747
1.16534
1.16415
1.17366
1.16602
1.16648
1.16771
1.15995
1.1619
1.15861
1.15695
1.15472
1.15034
1.14717
1.14569
1.14241
1.13835
1.13502
1.13188
1.13463
1.13519
1.13705
1.13834
1.14519
1.14998
1.15053
1.15008
1.1407
1.14348
1.14391
1.15102
1.15735
1.16684
1.17188
1.17202
1.17548
1.17036
1.1665
1.1638
1.15764
1.15958
1.15786
1.15412
1.1576
1.1581
1.15031
1.1563
1.15372
1.1483
1.15959
1.15178
1.15937
1.16084
1.15647
1.1701
1.1668
1.16372
1.17244
1.16629
1.17103
1.17987
1.17445
1.18062
1.199
1.18867
1.17748
1.19556
1.18523
1.15933
1.177
1.19232
1.16191
1.16063
1.19038
1.17787
1.17077
1.19986
1.19876
1.18298
1.18257
1.21
1.20874
1.16066
1.17379
1.20797
1.21982
1.16884
1.12679
1.17615
1.26232
1.30626
1.28994
1.31438
1.32865
1.36234
1.33451
1.30428
1.26107
1.28021
1.29376
1.32884
1.25705
1.29765
1.2696
1.27377
1.28273
1.21158
1.26762
1.22192
1.27974
1.27012
1.22485
1.33873
1.19506
1.41556
1.28813
1.35514
1.41007
1.42191
1.56664
1.7293
1.60476
1.65552
1.68065
1.69137
1.7181
1.85081
1.70714
1.39592
1.63032
1.18552
1.18042
1.17842
1.18122
1.18203
1.1743
1.16561
1.1655
1.16935
1.1758
1.18018
1.18082
1.18649
1.19538
1.20235
1.20071
1.19659
1.1999
1.20238
1.20173
1.20514
1.21365
1.21472
1.20844
1.20096
1.19458
1.19358
1.20155
1.21919
1.24872
1.28178
1.28822
1.26622
1.25027
1.24754
1.23515
1.22067
1.21666
1.2136
1.19569
1.19145
1.2042
1.19259
1.1712
1.18366
1.17533
1.1603
1.17583
1.17
1.16422
1.16713
1.17001
1.15948
1.16251
1.1647
1.15925
1.16264
1.15872
1.15754
1.15533
1.15341
1.15152
1.14918
1.14621
1.14441
1.14477
1.14082
1.13438
1.12715
1.12565
1.12528
1.12725
1.12544
1.12625
1.13577
1.13895
1.14555
1.14104
1.14148
1.14454
1.14311
1.1526
1.15832
1.16058
1.16628
1.16313
1.16222
1.15712
1.15396
1.14896
1.15062
1.14694
1.14531
1.14601
1.1432
1.14623
1.14409
1.15151
1.14293
1.15258
1.14952
1.14309
1.15589
1.14686
1.14918
1.15618
1.15019
1.15916
1.15903
1.15511
1.16553
1.16502
1.15626
1.17644
1.18249
1.1629
1.1773
1.17968
1.15531
1.16586
1.17726
1.15906
1.15242
1.18135
1.16926
1.15266
1.19188
1.18732
1.17355
1.18366
1.19514
1.20495
1.17054
1.17369
1.20556
1.21438
1.18213
1.14597
1.17039
1.2472
1.28544
1.28499
1.31641
1.32153
1.34679
1.31218
1.28023
1.25555
1.29217
1.31934
1.31617
1.26645
1.31311
1.27141
1.27791
1.26726
1.19566
1.24822
1.20142
1.27501
1.25906
1.2339
1.32853
1.21161
1.41432
1.28628
1.38041
1.39084
1.45757
1.58697
1.7723
1.62489
1.65634
1.677
1.62312
1.65125
1.82153
1.69834
1.42351
1.5929
1.19187
1.18973
1.19093
1.19419
1.18949
1.17893
1.17365
1.17828
1.18217
1.18265
1.18606
1.18778
1.19061
1.1888
1.18888
1.19476
1.20081
1.20621
1.20461
1.20456
1.21064
1.21616
1.21802
1.21779
1.21212
1.20289
1.19929
1.20697
1.23067
1.2664
1.30232
1.31018
1.28904
1.26502
1.24749
1.22539
1.20361
1.19191
1.19183
1.1856
1.18446
1.20429
1.1967
1.16708
1.17915
1.18095
1.16318
1.16713
1.17169
1.17223
1.16287
1.16839
1.16737
1.15943
1.16285
1.15828
1.15843
1.15645
1.15338
1.15188
1.15035
1.14549
1.14182
1.13858
1.13201
1.1326
1.13688
1.13271
1.12194
1.1213
1.12354
1.1249
1.13168
1.13035
1.1329
1.13195
1.13316
1.13501
1.13355
1.14048
1.1412
1.14505
1.15578
1.15383
1.15484
1.15715
1.15057
1.14459
1.14218
1.13503
1.13353
1.13872
1.13191
1.13824
1.13634
1.1365
1.13731
1.14014
1.13521
1.13812
1.14643
1.13254
1.14835
1.14549
1.13811
1.15319
1.14271
1.14152
1.15087
1.14458
1.14833
1.15713
1.1436
1.15779
1.17362
1.15243
1.1603
1.16836
1.14709
1.15927
1.16959
1.15264
1.15041
1.16651
1.16425
1.15415
1.18801
1.18369
1.16882
1.18624
1.18506
1.19584
1.1723
1.16936
1.20538
1.21465
1.18384
1.15153
1.16406
1.23652
1.26317
1.28469
1.30948
1.31654
1.33256
1.29534
1.26289
1.2606
1.32078
1.32705
1.29595
1.27736
1.31984
1.2627
1.26229
1.23321
1.18021
1.23082
1.18727
1.27057
1.24245
1.24306
1.3097
1.23315
1.40774
1.28973
1.39202
1.39325
1.51433
1.60307
1.70397
1.63689
1.62013
1.64237
1.56703
1.69034
1.82998
1.75985
1.46459
1.662
1.19763
1.19732
1.19941
1.204
1.20327
1.19486
1.19114
1.19222
1.18578
1.18382
1.19248
1.19806
1.20165
1.20229
1.19926
1.20025
1.20566
1.20869
1.20619
1.20873
1.21406
1.21631
1.21899
1.22335
1.22349
1.21472
1.20688
1.20828
1.22192
1.24983
1.28201
1.2997
1.29401
1.2761
1.25671
1.24063
1.23007
1.21601
1.20237
1.1892
1.18237
1.19863
1.2051
1.17823
1.17389
1.17751
1.16995
1.16295
1.15623
1.16339
1.16115
1.15811
1.16307
1.15904
1.15808
1.15516
1.15529
1.15186
1.14976
1.14845
1.14282
1.13851
1.13685
1.13173
1.12345
1.12033
1.1205
1.11791
1.11583
1.11482
1.11612
1.1161
1.12374
1.12996
1.13655
1.13733
1.1325
1.13233
1.13568
1.13995
1.14228
1.14873
1.15116
1.15061
1.15016
1.15077
1.14656
1.14268
1.13508
1.13527
1.12739
1.12565
1.12179
1.1204
1.12439
1.12257
1.12907
1.12847
1.13251
1.12879
1.13946
1.12573
1.13954
1.14195
1.12545
1.14903
1.1426
1.13367
1.15073
1.14144
1.13794
1.1517
1.13206
1.14183
1.16156
1.14345
1.14651
1.15501
1.14014
1.15116
1.16029
1.14026
1.14911
1.15747
1.16177
1.1616
1.17858
1.17863
1.16742
1.17999
1.1872
1.19061
1.17581
1.17454
1.20211
1.2209
1.19363
1.14438
1.16087
1.23899
1.24264
1.2784
1.28891
1.31317
1.31757
1.27478
1.25229
1.28795
1.34241
1.31255
1.28503
1.29605
1.31163
1.24276
1.24172
1.20451
1.17377
1.21313
1.17337
1.26038
1.22763
1.25111
1.29344
1.26037
1.38808
1.29771
1.40477
1.41654
1.55868
1.63271
1.56888
1.65146
1.59639
1.61652
1.54089
1.63171
1.7822
1.65115
1.4139
1.64132
1.20336
1.20542
1.20734
1.20948
1.21064
1.2088
1.20875
1.21256
1.20781
1.20322
1.20545
1.20419
1.20068
1.20387
1.20924
1.21199
1.2101
1.20614
1.20749
1.21365
1.21753
1.21627
1.21707
1.22421
1.22957
1.23065
1.22558
1.22191
1.2258
1.23856
1.25758
1.27313
1.27706
1.27134
1.26165
1.25732
1.26489
1.26293
1.23963
1.20826
1.19038
1.18958
1.19662
1.18403
1.17572
1.17211
1.16681
1.17079
1.15991
1.15636
1.15851
1.15479
1.15322
1.15304
1.15278
1.14887
1.14853
1.14528
1.14304
1.13961
1.13354
1.12931
1.12557
1.12436
1.12411
1.1207
1.12107
1.11837
1.11184
1.1181
1.12191
1.11916
1.11717
1.11992
1.12567
1.13235
1.13024
1.13034
1.13443
1.13861
1.14147
1.14487
1.14652
1.13992
1.13913
1.13996
1.13043
1.12694
1.12563
1.1241
1.12229
1.12243
1.12039
1.11678
1.12129
1.11482
1.12223
1.11724
1.12084
1.12047
1.12868
1.11927
1.12797
1.13759
1.12088
1.14273
1.13621
1.12327
1.14657
1.13461
1.13022
1.14969
1.1275
1.13469
1.15243
1.13357
1.13514
1.14726
1.13983
1.14667
1.15454
1.13767
1.14612
1.15355
1.15884
1.16156
1.1681
1.17782
1.16508
1.17556
1.1912
1.18775
1.17139
1.1863
1.20336
1.22619
1.20631
1.13287
1.15679
1.23371
1.23135
1.27756
1.27179
1.30916
1.29448
1.26185
1.26792
1.32726
1.33761
1.28471
1.28907
1.30523
1.28193
1.21828
1.22003
1.18722
1.18465
1.20518
1.17083
1.2538
1.21643
1.2638
1.28278
1.28527
1.35256
1.31642
1.41057
1.44285
1.59071
1.69608
1.49432
1.68495
1.6307
1.61199
1.53039
1.58185
1.75817
1.64908
1.45923
1.5213
1.20982
1.21695
1.22206
1.22171
1.21778
1.22266
1.22942
1.23429
1.23271
1.23148
1.22963
1.22767
1.22481
1.22085
1.21697
1.21375
1.21268
1.21443
1.216
1.21552
1.21336
1.2125
1.21329
1.21519
1.22189
1.22976
1.2324
1.23113
1.23128
1.23562
1.24433
1.25417
1.26054
1.26239
1.26291
1.26809
1.28102
1.28258
1.25833
1.22433
1.21064
1.20226
1.19996
1.1922
1.18676
1.18421
1.16695
1.16832
1.16466
1.15718
1.15299
1.15146
1.14732
1.14486
1.14306
1.13976
1.13841
1.134
1.13082
1.12813
1.12581
1.12373
1.1212
1.12035
1.11909
1.1205
1.12083
1.1156
1.10972
1.1168
1.11911
1.12008
1.12233
1.12523
1.12955
1.13239
1.12939
1.13063
1.13764
1.13784
1.13906
1.14087
1.13587
1.12981
1.13236
1.12934
1.12115
1.11869
1.11535
1.11193
1.1092
1.10535
1.10654
1.10828
1.11669