/*--------------------------------*- C++ -*----------------------------------*\
| =========                 |                                                 |
| \\      /  F ield         | OpenFOAM: The Open Source CFD Toolbox           |
|  \\    /   O peration     | Version:  dev                                   |
|   \\  /    A nd           | Web:      http://www.openfoam.org               |
|    \\/     M anipulation  |                                                 |
\*---------------------------------------------------------------------------*/
FoamFile
{
    version     2.0;
    format      ascii;
    class       volScalarField;
    object      T;
    location    "9.119";
}
// * * * * * * * * * * * * * * * * * * * * * * * * * * * * * * * * * * * * * //

dimensions      [0 0 0 1 0 0 0];

internalField   nonuniform List<scalar> 
12225
(
305.022
303.706
303.006
302.498
302.027
301.838
301.772
301.569
301.823
301.405
302.042
301.178
302.392
300.544
302.764
300.287
300.099
302.005
304.601
302.604
301.48
300.203
299.483
298.312
298.27
296.996
297.731
296.015
297.713
295.107
298.072
294.016
297.881
294.354
295.214
293.871
304.784
302.595
301.76
300.249
299.698
298.245
297.997
296.623
296.707
295.511
295.777
294.892
295.098
294.632
294.67
294.748
295.003
295.052
304.762
302.715
301.677
300.825
299.63
299.363
297.908
298.129
296.444
297.226
295.337
296.527
294.781
295.924
294.729
295.253
294.467
294.89
304.138
303.282
301.27
301.546
299.462
300.217
298.106
298.966
296.932
297.898
296.042
296.968
295.461
296.141
295.097
295.454
294.898
295.014
303.811
303.621
301.228
301.69
299.59
300.219
298.35
298.876
297.238
297.776
296.41
297.011
295.864
296.261
295.461
295.738
295.279
295.511
303.702
303.466
301.343
301.588
299.821
300.146
298.604
298.828
297.506
297.804
296.843
297.108
296.305
296.394
295.971
295.938
295.822
295.77
303.583
303.406
301.321
301.6
299.963
300.273
298.867
299.019
297.859
298.134
297.329
297.497
296.859
296.896
296.609
296.508
296.438
296.376
303.436
303.417
301.42
301.709
300.209
300.439
299.27
299.301
298.378
298.525
297.913
297.929
297.5
297.44
297.267
297.107
297.07
296.966
303.365
303.392
301.626
301.943
300.636
300.736
299.779
299.687
299.005
299.065
298.675
298.611
298.372
298.274
298.174
297.999
297.963
297.843
303.346
303.3
301.907
302.163
301.178
301.188
300.54
300.387
299.949
299.916
299.702
299.606
299.507
299.407
299.375
299.201
299.191
299.057
303.243
303.194
302.309
302.44
301.797
301.737
301.367
301.249
301.046
301.007
300.94
300.913
300.903
300.839
300.838
300.68
300.686
300.575
303.059
303.025
302.662
302.786
302.53
302.515
302.418
302.428
302.408
302.436
302.486
302.546
302.584
302.564
302.589
302.496
302.539
302.507
302.684
302.874
302.934
303.136
303.223
303.338
303.509
303.675
303.835
303.976
304.14
304.29
304.406
304.461
304.544
304.551
304.654
304.701
302.061
302.666
303.114
303.505
303.874
304.204
304.602
304.919
305.222
305.481
305.754
305.981
306.197
306.353
306.537
306.661
306.828
306.936
301.282
302.371
303.047
303.611
304.19
304.728
305.292
305.754
306.203
306.603
306.988
307.317
307.642
307.88
308.148
308.361
308.582
308.721
300.173
301.698
302.53
303.259
304.006
304.726
305.361
305.887
306.408
306.902
307.345
307.763
308.093
308.332
308.65
308.935
309.144
309.299
298.846
300.711
301.53
302.201
302.875
303.597
304.194
304.673
305.164
305.715
306.15
306.559
306.743
306.866
307.147
307.461
307.588
307.736
297.602
299.469
300.092
300.594
301.077
301.678
302.157
302.459
302.727
303.133
303.433
303.723
303.719
303.684
303.894
304.183
304.221
304.37
296.464
298.255
298.614
298.874
299.08
299.431
299.753
299.921
299.928
300.026
300.139
300.321
300.227
300.133
300.212
300.374
300.401
300.518
295.633
297.277
297.328
297.302
297.246
297.297
297.343
297.377
297.29
297.153
297.065
297.093
296.945
296.909
296.804
296.786
296.796
296.783
294.809
296.263
296.087
295.841
295.58
295.441
295.218
295.05
294.903
294.67
294.401
294.269
294.088
293.987
293.763
293.695
293.605
293.484
294.248
295.565
295.164
294.698
294.245
293.944
293.598
293.289
292.981
292.715
292.428
292.141
291.847
291.635
291.398
291.295
291.098
290.994
293.77
295.001
294.429
293.821
293.251
292.77
292.328
291.97
291.571
291.216
290.886
290.515
290.154
289.881
289.567
289.349
289.145
288.966
293.508
294.572
293.863
293.175
292.542
291.988
291.432
290.922
290.473
290.052
289.638
289.301
288.967
288.655
288.354
288.088
287.833
287.587
293.267
294.269
293.489
292.718
291.985
291.342
290.738
290.206
289.694
289.249
288.82
288.402
288.006
287.64
287.277
286.967
286.657
286.349
293.155
294.114
293.225
292.365
291.599
290.921
290.253
289.677
289.11
288.608
288.078
287.596
287.11
286.657
286.221
285.828
285.409
284.971
292.932
293.934
293.077
292.193
291.348
290.548
289.767
289.081
288.413
287.819
287.197
286.64
286.052
285.538
284.97
284.46
283.855
283.307
292.891
293.807
292.897
291.936
291.015
290.144
289.357
288.665
288.04
287.489
286.934
286.434
285.902
285.407
284.863
284.471
283.973
283.753
292.294
293.175
292.715
292.249
291.799
291.416
291.118
290.884
290.694
290.536
290.385
290.261
290.129
290.017
289.923
289.872
289.805
289.779
286.042
273.014
270.756
272.623
273.826
274.803
275.718
276.626
277.433
278.226
278.955
279.739
280.572
281.406
282.166
282.78
283.419
284.236
284.713
285.128
285.756
286.017
286.583
286.774
287.137
287.376
287.642
287.923
288.166
288.732
289.512
290.208
289.013
290.624
293.24
293.316
292.454
291.951
290.369
289.304
288.878
288.233
288.024
286.994
287.195
288.481
290.353
290.788
293.234
296.841
296.394
294.088
296.774
298.88
299.296
302.102
307.498
306.147
302.143
301.027
300.047
299.459
298.933
298.521
298.172
297.861
297.574
297.34
297.119
296.922
296.713
296.548
296.374
296.216
296.035
295.862
295.687
295.504
295.342
295.173
294.996
294.842
294.656
294.457
294.199
293.985
293.84
293.663
293.393
293.142
292.987
292.791
292.566
292.404
292.173
291.953
291.75
291.608
291.519
291.266
291.396
291.713
292.422
293.315
294.188
294.929
295.711
296.86
297.923
298.37
298.13
297.463
296.528
295.006
293.342
292.251
291.398
290.266
289.161
288.171
287.774
287.176
287.432
289.159
291.822
294.201
295.651
296.401
298.48
300.203
301.419
301.009
299.547
298.497
297.324
294.208
292.523
294.608
295.51
296.643
299.36
297.329
297.222
297.641
292.881
291.705
291.891
289.066
289.713
289.481
288.366
288.234
287.384
286.837
286.457
286.312
286.993
287.047
286.779
285.141
282.844
279.698
276.103
274.557
278.077
281.378
285.093
271.83
264.447
262.775
271.344
282.119
282.567
280.783
284.849
287.301
287.979
292.407
291.25
295.013
289.224
275.97
268.283
267.217
269.565
273.245
276.253
278.449
280.019
281.652
282.919
284.013
285.196
286.597
287.99
288.845
289.332
289.889
290.205
290.554
290.231
290.143
289.865
289.374
288.679
288.609
287.916
287.636
287.791
287.608
287.859
289.624
290.629
290.964
291.71
285.313
279.31
279.607
277.436
274.738
274.517
276.261
278.483
277.321
280.818
279.544
276.551
276.968
276.371
279.509
286.012
282.596
292.552
298.707
296.015
296.652
295.262
294.492
293.503
293.374
292.945
292.848
292.556
292.468
292.236
292.199
291.937
291.931
291.637
291.613
291.342
291.267
291.042
290.884
290.634
290.365
290.087
289.756
289.395
289.107
288.812
288.462
288.098
287.672
287.088
286.379
285.956
285.547
285.036
284.318
283.62
282.989
282.191
281.53
280.804
280.092
279.232
278.588
277.657
277.161
276.658
276.674
277.164
278.348
280.178
282.323
284.099
286.415
289.171
289.896
289.655
289.759
288.982
286.745
283.355
279.325
275.553
273.42
273.819
277.046
280.174
277.689
271.626
266.897
273.929
287.364
297.585
301.498
309.572
315.173
318.499
317.593
314.578
312.025
308.097
296.916
279.37
269.753
268.728
276.71
287.819
287.228
290.209
290.418
279.479
283.96
278.584
284.743
279.907
294.192
289.547
291.88
288.969
287.265
285.127
281.414
279.523
275.533
275.15
275.97
272.939
262.31
251.392
244.466
251.865
256.157
258.558
236.593
235.343
229.497
237.57
250.568
256.049
249.535
247.47
250.838
249.619
260.518
254.641
261.509
292.548
283.058
276.974
277.864
282.541
287.631
291.252
293.581
294.867
296.308
297.509
298.524
299.371
300.258
300.995
301.205
300.845
300.28
299.25
297.993
295.566
293.595
291.426
289.093
286.95
285.202
284.134
282.644
281.726
281.213
281.814
282.433
284.525
288.23
291.712
292.224
288.836
281.431
278.812
275.661
275.922
281.323
285.471
288.849
296.386
293.391
285.205
287.686
287.325
288.923
294.998
295.323
296.984
295.504
296.157
295.861
296.194
296.585
297.038
297.576
297.915
298.429
298.658
299.015
299.185
299.454
299.618
299.735
299.9
299.942
300.118
300.045
300.288
300.19
300.383
300.275
300.367
300.292
300.13
300.099
300.082
299.98
299.961
299.905
299.765
299.146
298.814
298.502
298.505
297.853
297.192
296.466
295.648
294.726
293.907
293.077
291.655
290.668
288.49
287.95
285.826
284.37
281.93
279.328
278.314
280.749
283.944
285.397
287.625
290.401
291.847
293.83
296.006
295.545
294.882
293.842
287.28
281.979
282.03
294.356
309.918
314.535
306.779
283.485
267.829
287.141
313.503
322.269
327.799
327.317
323.265
321.662
325.322
329.815
328.849
321.77
302.588
278.755
262.184
267.636
280.353
286.185
287.848
292.45
285.011
290.863
279.034
312.395
285.026
317.69
312.094
314.698
310.561
307.851
304.044
298.675
293.829
286.607
280.285
271.779
273.758
266.394
254.536
239.894
242.829
249.586
241.672
235.659
244.191
239.763
249.052
246.525
248.648
249.845
238.161
237.4
230.268
243.454
231.913
234.414
295.422
290.119
287.971
290.482
294.977
298.711
300.696
301.505
301.863
302.369
302.813
303.456
304.035
304.499
304.43
303.939
303.018
301.43
298.902
295.677
292.597
289.577
287.09
285.422
284.042
283.031
283.065
281.793
280.806
279.293
278.383
277.433
277.795
280.47
284.254
289.138
292.847
289.782
288.678
281.921
283.049
289.486
297.517
305.731
305.926
292.537
294.238
291.895
293.427
294.925
295.421
295.806
296.145
296.383
297.437
297.55
298.796
298.796
299.813
299.891
300.509
300.798
300.931
301.428
301.357
301.793
301.78
301.952
302.146
302.085
302.444
302.232
302.56
302.463
302.651
302.585
302.758
302.844
302.822
302.929
303.05
303.194
303.291
303.327
303.627
303.73
303.992
303.793
304.201
304.124
304.567
304.401
304.801
304.601
304.692
304.872
304.454
304.657
303.142
303.468
301.613
300.771
299.141
296.401
291.355
285.286
282.036
282.726
285.608
288.38
289.518
291.808
292.173
287.594
290.104
299.41
300.158
297.621
294.566
298.329
312.631
325.262
330.357
326.925
295.934
271.663
282.198
300.548
308.689
307.151
300.474
296.969
303.803
313.794
319.841
316.29
307.392
292.953
269.183
265.733
275.466
284.916
286.269
287.614
287.031
302.915
298.283
332.372
303.455
321.181
318.441
316.098
313.625
312.408
309.789
304.954
303.254
297.022
295.635
284.175
278.608
270.504
265.317
253.054
240.806
250.769
234.799
238.525
244.176
240.274
255.975
251.061
245.851
250.777
235.625
234.415
223.237
232.853
221.92
218.146
297.545
294.912
294.777
297.275
300.174
302.524
303.062
302.755
302.436
302.537
302.983
303.644
303.834
303.831
303.453
302.944
301.608
299.765
297.752
295.79
294.065
292.345
291.421
290.643
290.281
290.287
290.038
288.556
286.427
283.649
282.072
279.826
277.385
277.477
278.49
283.341
289.257
289.582
291.33
285.523
286.639
298.782
302.711
289.93
297.725
293.532
293.914
294.377
294.906
295.866
296.58
297.791
298.19
299.928
299.952
301.662
301.394
302.516
302.461
303.222
303.114
303.677
303.648
303.984
304.096
304.163
304.501
304.399
304.652
304.8
304.738
305.153
305.058
305.423
305.541
305.519
305.878
306.072
305.965
306.291
306.211
306.309
306.512
306.428
306.642
306.499
306.62
306.238
306.288
305.821
306.132
305.264
305.658
305.459
305.225
305.632
304.977
306.238
305.778
307.056
307.355
307.675
307.881
307.934
307.453
305.126
298.541
289.621
284.839
282.545
283.853
288.503
287.753
285.869
289.911
290.792
289.353
294.514
300.399
299.791
299.071
301.836
304.068
314.435
330.64
308.063
285.404
281.043
283.562
285.037
288.448
285.347
284.834
296.424
320.71
319.652
312.145
302.51
280.36
269.981
271.277
286.113
292.114
273.678
276.576
304.356
308.627
326.238
317.438
321.713
314.193
312.073
307.783
304.737
306.666
305.139
303.224
298.967
297.42
293.317
287.587
277.214
271.555
269.909
246.15
247.505
239.773
240.348
243.094
242.707
257.672
255.23
247.014
244.881
241.004
236.277
222.332
228.421
218.625
209.52
299.181
298.263
299.035
301.101
303.084
304.37
304.085
303.83
303.807
304.742
305.675
305.767
305.199
304.837
304.142
303.135
301.792
300.818
300.035
298.91
297.923
296.714
295.824
295.012
294.407
294.523
294.624
294.348
292.176
287.593
282.637
279.597
278.986
279.233
277.655
280.51
285.496
289.603
291.477
284.953
290.017
297.746
296.031
294.301
296.47
293.653
295.808
296.435
296.876
298.928
299.121
300.809
300.898
302.336
301.546
303.488
301.963
304.056
302.468
303.932
303.094
303.595
303.677
303.241
303.97
303.217
303.8
303.557
303.436
303.836
303.433
303.851
304.002
304.156
304.835
304.605
305.264
305.761
305.818
306.522
306.927
307.224
307.915
308.157
308.733
309.062
309.378
309.904
310.21
310.02
310.606
310.309
310.286
310.592
309.481
310.193
309.255
309.517
309.185
308.776
308.653
307.989
308.037
308.03
308.017
309.054
311.094
307.732
303.28
296.074
289.868
287.471
284.113
284.502
286.536
284.765
286.186
289.895
291.958
294.267
293.184
299.563
304.815
289.732
296.493
321.39
317.339
305.151
295.941
293.697
306.619
298.86
277.65
275.273
307.743
327.832
328.477
316.082
290.49
277.242
271.401
283.27
301.528
270.116
276.356
310.247
310.277
322.462
313.02
322.869
308.816
313.033
307.719
308.883
301.42
305.113
300.865
300.759
297.668
297.837
295.982
287.027
275.036
284.094
257.21
249.665
245.193
241.839
242.082
247.01
258.661
255.725
246.25
236.762
251.543
238.054
235.017
227.695
217.351
216.871
300.511
300.75
302.006
303.533
305.026
306.078
306.473
306.949
307.4
307.444
305.789
303.71
302.852
302.572
302.142
302.112
302.054
301.913
302.02
301.736
301.629
301.644
301.921
302.567
303.072
303.424
303.956
304.443
303.349
301.21
293.874
283.739
277.969
277.838
277.281
279.099
283.265
288.821
288.12
285.757
294.823
299.212
295.213
295.265
296.99
295.124
298.52
298.111
299.448
301.094
300.329
302.372
301.586
302.949
302.295
303.828
302.528
304.235
302.786
304.097
303.28
303.402
303.613
302.704
303.335
302.426
302.634
302.204
301.955
301.725
301.57
301.141
301.517
301.147
301.754
301.498
301.867
302.136
302.362
302.815
303.336
303.646
304.279
304.8
305.196
306.001
306.278
307.056
307.451
308.134
308.539
309.304
309.462
309.923
310.457
310.449
311.308
311.34
312.055
312.186
312.125
312.446
312.75
312.358
311.265
309.289
310.211
309.307
307.825
308.664
308.559
300.231
294.13
295.317
295.367
293.26
291.685
290.693
291.734
297.933
293.983
291.037
305.457
326.174
307.271
300.543
315.313
322.855
319.938
321.739
343.635
344.561
315.79
295.919
306.32
333.535
338.69
324.726
295.713
281.316
272.656
278.733
304.311
281.47
288.661
315.654
309.991
323.193
304.062
319.805
303.728
313.505
300.181
310.277
301.849
307.488
302.763
302.616
296.457
295.068
296.706
296.686
277.531
294.908
266.165
261.508
255.472
243.027
240.783
250.847
261.912
254.951
240.327
237.171
254.813
231.651
246.814
226.727
220.546
232.185
301.687
302.846
304.691
306.484
308.351
309.187
308.957
308.563
307.324
305.334
303.894
304.152
304.486
303.947
303.099
301.417
299.215
298.123
297.813
297.111
296.802
296.794
297.144
297.544
298.353
299.092
300.538
302.632
303.283
304.546
301.212
290.194
280.82
279.251
277.986
278.559
282.175
286.754
285.427
288.3
296.898
298.342
294.954
296.821
297.952
297.081
300.722
299.46
301.556
302.251
301.547
303.662
302.417
304.061
303.362
303.878
303.266
303.878
303.038
303.656
303.093
303.129
303.015
302.442
302.542
301.675
301.752
301.056
300.942
300.312
300.24
299.628
299.784
299.56
299.807
299.911
299.949
300.19
300.229
300.558
300.97
301.623
301.725
302.911
303.058
303.657
304.209
305.116
305.101
305.733
306.631
306.612
307.541
307.59
308.254
308.678
308.4
309.457
309.632
310.047
310.405
311.575
311.755
311.987
312.433
312.473
311.608
310.513
311.802
310.7
310.82
309.042
307.122
304.825
302.071
304.509
305.667
302.123
297.237
305.257
310.464
310.688
295.795
301.044
324.533
321.21
311.607
313.385
316.556
319.49
332.158
345.834
335.088
316.776
310.894
342.246
342.733
330.835
300.712
282.994
275.742
278.668
296.504
291.987
301.075
312.123
301.53
316.954
298.933
315.711
298.211
310.748
298.886
306.687
299.309
302.583
301.971
302.105
300.974
297.537
297.219
303.451
278.438
303.145
271.361
276.52
274.294
246.697
247.472
257.136
265.017
247.62
234.881
243.174
255.764
222.932
255.291
223.009
223.33
233.706
302.773
304.722
307.197
309.288
310.456
309.921
309.912
310.27
309.495
308.578
306.835
303.711
299.631
297.15
296.311
296.231
297.354
299.096
298.989
297.995
297.747
297.571
297.509
297.298
297.591
297.823
298.381
299.412
300.435
303.906
303.202
292.755
282.833
280.205
278.652
279.226
281.959
285.636
286.728
292.946
299.154
298.217
295.504
298.593
299.057
298.943
302.372
300.575
303.088
302.548
302.334
304.155
302.423
303.729
302.634
302.468
302.49
302.473
302.629
302.948
302.516
303.006
302.525
302.368
302.52
301.916
302.012
301.498
301.281
300.833
300.529
300.122
299.549
299.495
299.063
299.488
298.774
298.796
298.607
298.378
298.351
299.404
298.91
300.423
300.503
301.555
301.654
303.286
303.368
303.735
304.759
305.76
305.174
306.506
307.101
307.378
307.342
308.258
308.15
308.282
308.306
309.522
308.864
310.548
311.705
310.108
312.124
311.817
309.576
309.827
312.684
310.358
308.134
311.127
309.932
308.008
307.268
310.369
306.27
305.924
304.473
311.476
323.37
309.202
301.204
310.579
316.915
317.693
312.899
303.149
299.102
316.948
326.574
315.152
305.879
333.371
341.252
336.018
310.373
285.636
277.41
280.167
287.144
292.495
298.404
302.412
293.523
306.951
295.518
312.4
294.661
306.281
296.944
303.546
301.963
299.577
304.14
300.38
301.77
297.03
295.757
308.955
281.003
312.225
272.759
288.005
294.553
255.86
259.522
260.83
260.995
242.696
240.737
251.596
252.551
229.302
254.664
227.342
224.472
222.934
303.749
306.228
308.892
310.461
310.686
310.677
311.576
311.58
308.836
305.759
304.431
304.97
305.528
305.784
305.661
305.284
304.369
303.145
302.352
301.598
300.817
299.962
299.323
298.905
299.085
299.445
299.644
299.909
300.809
304.138
302.806
292.201
282.955
280.691
279.821
280.118
281.725
285.694
288.472
295.097
299.182
297.8
296.273
300.247
300.038
300.678
303.447
300.95
304.052
302.586
302.45
304.092
302.027
303.109
302.078
302.048
303.131
302.843
303.446
303.546
302.526
303.06
302.622
302.564
302.856
302.824
303.08
303.254
303.408
303.507
303.144
303.591
302.64
302.906
302.359
302.281
302.268
301.32
300.904
300.279
299.479
299.79
299.422
299.713
300.288
301.039
300.904
302.284
303.221
303.093
304.202
304.939
304.66
304.673
305.269
305.889
306.157
307.043
306.73
308.53
307.83
307.231
308.805
307.092
307.203
309.41
309.169
310.227
312.169
309.006
308.246
310.346
309.313
309.293
310.013
312.073
308.931
308.911
309.685
310.891
313.039
301.909
307.757
320.416
317.614
309.101
307.847
317.784
322.883
313.473
299.036
310.88
326.013
313.903
305.638
324.013
343.34
340.92
317.704
287.291
276.982
281.163
283.899
290.675
289.688
289.898
287.532
301.237
292.194
308.671
289.702
302.38
296.928
300.099
301.07
295.242
303.947
298.243
304.717
298.26
296.851
312.9
282.392
319.563
273.198
296.159
304.665
264.213
271.319
264.947
259.162
249.876
250.321
251.258
251.908
237.613
221.625
221.268
217.143
223.967
304.458
306.815
308.69
308.981
309.085
310.273
311.715
312.073
310.349
308.491
306.13
304.686
303.134
300.874
299.285
298.506
297.792
298.344
299.08
298.348
297.749
297.736
298.039
298.488
299.24
299.743
300.206
300.804
302.07
303.426
298.457
286.838
279.788
279.594
279.685
280.129
283.133
288.332
291.811
297.702
300.169
298.507
297.232
301.832
300.521
301.451
304.265
301.038
304.031
302.546
302.352
303.634
301.396
302.381
301.694
301.024
302.925
301.907
301.27
301.428
300.036
300.273
300.261
300.332
300.624
300.922
301.131
301.262
301.187
301.711
301.744
302.343
302.347
302.1
303.158
302.645
303.275
302.617
301.728
300.636
300.202
298.593
299.616
298.5
299.102
299.462
300.379
300.243
302.689
303.078
303.688
306.158
305.806
305.95
306.216
307.014
305.524
305.917
307.293
306.755
307.978
308.686
307.984
309.394
309.091
307.094
308.208
308.185
308.751
309.563
308.722
306.671
306.5
308.779
307.496
308.739
312.773
312.931
309.467
305.773
317.712
314.968
304.213
309.301
318.05
316.718
307
307.608
317.134
319.676
305.899
313.382
330.859
317.721
307.464
317.252
339.927
343.963
321.001
289.906
278.272
284.582
287.516
290.073
284.436
284.216
283.665
298.302
293.363
304.565
287.947
302.211
296.402
300.045
301.22
294.306
306.477
297.426
306.275
298.746
297.789
314.741
283.824
325.044
274.877
300.989
304.873
270.237
279.236
265.996
255.705
255.628
251.381
249.277
243.364
237.284
219.242
215.325
215.156
231.666
304.985
307.007
308.439
309.005
309.666
309.464
309.899
309.908
308.537
308.871
308.438
306.883
304.176
302.153
302.103
301.968
301.54
301.362
300.677
299.843
299.521
299.076
298.616
299.035
300.025
300.781
301.506
302.307
302.88
300.722
292.549
282.616
279.695
280.939
280.152
280.475
284.273
289.294
293.34
298.614
299.9
298.132
297.411
302.729
301.32
302.02
304.536
301.552
304.332
302.116
302.025
303.553
300.981
300.848
301.852
299.857
301.225
301.388
299.582
300.164
299.499
299.64
300.31
300.951
301.465
301.917
302.071
302.244
301.703
300.996
301.047
300.298
300.785
299.9
300.738
301.278
302.529
303.007
302.075
300.541
299.549
297.568
296.545
296.685
296.225
296.171
298.142
298.459
299.822
301.432
301.421
303.522
303.947
305.311
307.197
307.1
307.426
308.222
306.986
307.857
307.478
306.469
308.62
307.583
308.91
310.291
308.239
307.87
308.748
307.085
308.214
308.537
304.895
305.633
308.575
306.377
305.48
311.65
315.337
306.831
309.316
318.371
311.006
306.013
311.763
315.718
311.266
309.506
314.552
316.627
305.198
308.563
326.099
318.162
308.929
310.444
330.019
341.232
320.841
294.114
282.989
288.923
289.813
288.694
279.84
281.165
286.158
298.949
296.316
300.024
284.766
301.939
294.541
299.613
299.008
293.418
309.63
298.27
310.544
299.978
300.718
316.345
286.847
328.15
277.095
304.845
299.365
277.054
283.832
262.19
245.537
256.086
248.608
244.861
240.416
249.889
228.915
220.031
243.486
231.903
305.473
307.322
308.801
309.854
310.874
310.809
311.475
311.651
309.843
308.041
306.083
306.533
307.973
308.028
306.9
304.914
303.071
301.663
300.83
299.903
299.271
298.277
298.042
299.339
300.853
301.817
302.149
301.659
300.124
295.187
286.814
281.507
283.397
285.567
284.088
284.696
287.565
290.454
294.141
299.89
300.867
298.49
298.701
303.152
301.315
302.699
304.707
300.662
303.778
302.444
300.695
302.61
302.405
299.437
300.867
300.214
299.363
300.829
299.793
300.126
300.053
300.148
300.827
301.22
301.201
301.689
302.418
302.996
303.564
302.595
302.26
301.619
301.176
299.317
298.064
297.956
298.151
300.717
300.139
300.219
298.592
297.234
295.132
294.221
294.581
294.144
295.896
297.372
298.585
300.73
300.802
301.851
303.45
303.173
303.689
306.403
305.467
306.806
308.9
306.524
309.226
307.785
307.976
309.674
306.564
307.908
309.139
307.226
309.205
308.254
306.231
307.906
306.516
302.068
304.957
308.085
303.691
306.686
313.889
309.528
305.982
314.467
315.299
307.973
311.855
314.367
307.38
308.307
313.086
313.848
307.341
308.298
321.696
318.638
310.15
307.659
321.584
334.009
320.354
298.87
289.203
293.265
288.142
285.334
278.54
284.563
291.379
301.519
297.213
294.258
286.63
303.108
293.755
300.35
299.524
297.665
315.503
302.099
314.149
300.873
304.299
316.81
291.293
327.89
278.376
307.657
293.997
284.161
283.281
258.36
234.86
253.703
246.118
242.551
240.591
236.529
218.842
235.802
286.508
244.436
305.772
307.087
307.599
306.859
306.64
308.649
310.94
310.958
309.924
308.21
307.053
306.87
305.383
303.091
301.309
301.689
302.693
301.815
301.143
301.246
300.324
298.137
297.783
299.234
300.996
302.501
302.652
300.54
296.082
288.965
281.39
279.846
284.557
288.02
288.473
291.166
294.397
295.121
295.595
299.727
300.472
296.946
299.461
304.527
300.895
302.574
306.012
301.476
302.459
303.418
302.104
300.788
302.924
301.534
300.358
301.153
299.66
300.058
299.757
299.735
299.651
299.58
299.649
299.91
299.898
299.351
299.967
301.285
302.865
302.958
302.792
302.039
302.342
301.982
299.355
298.47
296.744
297.952
297.911
297.228
297.738
295.477
294.249
293.949
292.823
293.967
294.582
296.298
297.56
299.334
299.403
300.893
301.867
302.247
303.565
303.348
304.505
303.126
305.991
303.992
305.369
307.628
304.744
307.65
307.483
306.071
308.075
306.055
306.451
307.81
305.351
305.784
308.366
303.354
302.145
307.575
304.196
303.995
310.853
308.518
306.072
311.484
313.921
306.91
310.833
316.087
306.458
308.435
312.875
311.01
308.794
307.07
316.886
316.75
309.073
307.515
316.581
327.183
320.901
301.709
293.309
294.01
287.519
286.912
281.995
289.86
297.518
303.742
295.549
289.771
290.737
302.419
291.904
301.661
300.354
303.165
321.721
308.777
321.585
304.014
309.018
316.578
295.43
325.413
280.237
309.749
289.838
289.171
277.043
255.306
228.97
250.138
245.016
241.711
248.896
243.942
220.086
234.492
277.862
246.932
305.864
306.41
306.087
305.237
306.426
309.151
310.52
309.274
308.23
308.075
307.154
306.668
305.895
306.313
306.238
304.667
303.065
301.631
301.947
301.862
300.238
298.755
298.169
298.086
299.331
301.478
302.229
300.151
294.209
285.74
277.682
275.823
280.133
285.221
288.983
293.925
298.948
301.564
301.246
302.466
302.367
296.978
298.418
305.513
301.892
300.91
304.956
303.354
301.583
300.836
302.624
300.549
300.152
301.532
299.962
300.457
299.731
299.558
299.676
299.397
299.142
299.773
300.122
300.388
301.572
300.886
299.261
299.906
302.365
302.155
301.214
300.551
298.496
298.635
297.792
297.915
297.51
296.981
297.36
295.584
295.47
294.588
292.002
292.692
292.669
292.36
294.346
296.232
297.237
299.523
300.354
299.439
301.72
300.531
301.545
302.018
302.329
302.099
303.939
303.675
301.982
306.185
302.443
303.667
306.066
302.483
305.655
306.333
304.205
306.206
305.517
303.521
307.425
303.971
300.27
306.217
304.58
302.973
309.139
306.477
304.419
309.61
310.979
307.481
308.946
312.554
304.524
306.566
311.413
307.763
308.993
307.124
314.209
315.867
307.266
305.76
314.537
324.128
321.362
303.258
297.597
293.386
288.536
287.711
284.91
293.733
301.907
303.061
289.827
288.883
296.238
300.961
291.619
305.099
305.519
313.092
327.632
314.818
327.174
306.754
314.852
315.953
301.253
321.34
282.793
310.213
288.323
289.335
266.974
252.673
237.472
247.497
249.202
245.133
255.747
235.987
216.62
223.559
266.641
233.354
305.921
305.992
305.445
304.262
304.422
306.534
307.457
307.141
308.767
309.229
306.93
305.439
304.458
304.221
304.906
304.562
303.094
302.224
302.729
301.962
300.492
299.781
298.954
297.711
297.488
299.441
301.183
300.626
297.055
290.201
282.684
278.588
279.546
283.181
287.242
290.637
292.781
295.791
298.747
301.632
302.924
298.341
296.239
302.457
303.014
301.496
302.828
304.013
305.114
302.557
302.444
302.518
300.503
300.808
300.307
300.313
299.526
299.666
299.466
299.074
299.827
300.261
300.02
300.725
302.316
302.56
301.952
302.125
302.203
302.029
301.271
300.908
298.534
296.609
294.652
294.258
295.358
295.288
294.341
293.2
292.604
291.004
290.469
290.732
291.015
291.064
292.379
293.653
295.934
296.231
298.674
299.527
300.973
301.778
301.152
302.095
300.816
301.44
300.832
302.289
299.912
304.026
300.772
300.565
305.386
299.507
301.572
304.305
300.151
302.934
304.203
300.923
306.506
304.302
299.532
304.744
304.427
302.751
307.332
305.063
303.4
309.54
308.016
306.694
306.518
307.55
304.098
305.121
309.095
306.825
305.996
306.129
310.998
312.328
306.107
302.347
310.199
324.438
320.708
301.329
301.329
293.814
292.29
287.796
287.669
298.171
304.362
296.731
285.36
292.415
299.278
297.253
294.17
310.91
311.611
321.716
330.718
320.691
332.403
310.5
319.939
315.18
306.207
315.539
287.619
309.06
286.202
284.813
259.244
247.75
256.913
244.199
251.431
247.12
257.778
241.813
219.731
235.171
272.458
232.644
305.756
305.225
304.726
304.164
303.846
304.27
304.239
303.234
304.369
305.465
304.825
305.063
305.864
304.95
303.486
302.675
303.018
303.869
303.374
301.668
300.533
300.653
300.255
298.291
296.765
296.268
297.246
297.883
296.673
293.342
288.619
284.792
283.596
284.532
286.359
286.968
284.854
284.879
289.789
296.836
300.793
300.465
298.14
300.722
302.232
302.515
303.214
301.49
303.595
303.784
302.461
302.656
302.277
301.524
300.782
300.992
300.268
300.308
300.093
300.203
301.033
301.4
301.666
301.279
300.666
300.932
300.216
300.359
301.578
299.388
297.908
298.215
298.357
297.279
295.461
293.465
293.796
293.594
292.397
291.224
290.435
289.553
289.16
290.899
291.208
291.143
293.784
294.916
295.516
296.2
296.989
297.285
298.181
299.518
298.697
300.828
299.24
300.993
300.438
300.955
299.176
302.103
300.167
298.019
302.852
297.427
299.497
303.305
297.495
300.982
302.511
297.771
304.05
302.551
298.342
303.812
303.958
301.371
304.021
302.952
301.7
307.061
305.727
304.744
304.381
304.712
304.072
302.67
307.095
305.452
302.543
304.503
309.842
307.016
303.676
299.046
305.004
325.801
320.043
300.993
302.605
292.666
295.041
287.649
291.913
300.501
300.074
287.566
286.093
298.639
298.383
295.281
301.203
317.564
317.695
327.08
328.453
323.615
333.997
312.943
323.697
312.795
309.405
310.012
295.557
304.862
285.008
279.41
253.468
237.61
268.722
237.817
244.336
245.598
256.927
246.593
219.891
232.584
260.436
247.14
305.142
303.354
302.068
302.132
303.077
301.827
300.119
298.876
299.19
299.409
299.768
300.145
300.734
301.584
302.408
303.06
303.168
302.562
301.986
301.909
302.237
302.23
301.797
301.076
299.164
296.976
296.053
296.061
295.714
294.35
291.953
289.312
287.481
286.675
286.153
284.564
281.255
280.453
285.371
292.778
295.549
297.039
297.008
298.312
299.021
298.976
302.673
301.575
301.751
302.908
303.194
302.767
303.014
302.81
302.423
302.433
301.925
302.237
302.23
302.105
301.902
301.653
301.548
301.018
300.629
299.552
298.803
299.576
300.57
298.112
296.986
296.256
295.225
294.073
292.599
291.556
292.065
291.513
289.528
289.324
288.905
288.379
289.621
291.19
290.592
291.463
293.728
294.542
295.626
296.763
297.748