/*--------------------------------*- C++ -*----------------------------------*\
| =========                 |                                                 |
| \\      /  F ield         | OpenFOAM: The Open Source CFD Toolbox           |
|  \\    /   O peration     | Version:  dev                                   |
|   \\  /    A nd           | Web:      http://www.openfoam.org               |
|    \\/     M anipulation  |                                                 |
\*---------------------------------------------------------------------------*/
FoamFile
{
    version     2.0;
    format      ascii;
    class       volVectorField;
    object      U;
    location    "9.119";
}
// * * * * * * * * * * * * * * * * * * * * * * * * * * * * * * * * * * * * * //

dimensions      [0 1 -1 0 0 0 0];

internalField   nonuniform List<vector> 
12225
(
(6.70082 -0.135128 0)
(4.07404 -0.456225 0)
(2.29961 -0.603012 0)
(2.00324 -0.641284 0)
(1.30498 -0.618006 0)
(2.06311 -0.623812 0)
(1.37065 -0.580561 0)
(2.62177 -0.61465 0)
(1.93012 -0.56853 0)
(3.51932 -0.631284 0)
(2.8068 -0.521178 0)
(4.99873 -0.689324 0)
(4.10569 -0.486781 0)
(6.98281 -0.76504 0)
(6.81414 -0.615903 0)
(8.42036 -0.323574 0)
(13.9677 -1.72439 0)
(8.7223 1.89235 0)
(9.54236 -0.796214 0)
(9.24239 -1.13604 0)
(6.88532 -1.44963 0)
(7.09637 -1.69801 0)
(4.6816 -1.77573 0)
(6.56776 -1.83006 0)
(3.91291 -1.78712 0)
(6.94735 -1.84344 0)
(4.02172 -1.75099 0)
(7.97544 -1.89305 0)
(4.57671 -1.71323 0)
(9.78572 -2.01594 0)
(5.78573 -1.71946 0)
(12.2794 -2.52435 0)
(8.80289 -1.22177 0)
(14.9992 -4.74743 0)
(15.1833 0.689664 0)
(18.868 -11.9658 0)
(8.97275 -2.42382 0)
(11.3773 -2.48705 0)
(8.74287 -2.72255 0)
(10.9452 -2.91323 0)
(7.18052 -3.01278 0)
(10.608 -3.05452 0)
(6.38045 -3.07285 0)
(10.8226 -3.06428 0)
(6.34079 -3.03219 0)
(11.5993 -3.23316 0)
(7.21625 -3.0275 0)
(12.6885 -3.48852 0)
(9.40626 -3.03361 0)
(13.9098 -4.39246 0)
(13.3196 -2.68857 0)
(14.3362 -6.57899 0)
(20.5909 -0.832299 0)
(16.6722 -15.7398 0)
(7.32671 -4.01089 0)
(12.6424 -4.22586 0)
(8.6003 -4.3085 0)
(12.995 -4.44096 0)
(8.49555 -4.40312 0)
(13.0504 -4.5524 0)
(8.7785 -4.36248 0)
(13.2657 -4.5722 0)
(9.3593 -4.23447 0)
(13.6863 -4.90041 0)
(10.4316 -4.0858 0)
(14.372 -5.48871 0)
(12.1942 -3.8592 0)
(15.4712 -6.72493 0)
(15.0111 -3.54988 0)
(16.7045 -9.36802 0)
(19.7438 -2.24225 0)
(21.6955 -15.4893 0)
(7.17501 -5.68372 0)
(12.6964 -6.27324 0)
(9.13377 -6.07715 0)
(12.8043 -6.2763 0)
(9.91244 -6.02351 0)
(12.8993 -6.37621 0)
(10.8507 -5.90597 0)
(13.177 -6.34511 0)
(11.7538 -5.73822 0)
(13.5157 -6.56191 0)
(12.8537 -5.59867 0)
(14.221 -7.07788 0)
(14.3075 -5.49261 0)
(15.347 -8.03918 0)
(16.3162 -5.63976 0)
(16.6058 -10.1775 0)
(18.6708 -6.19356 0)
(18.9285 -14.3294 0)
(8.67937 -7.23124 0)
(11.0873 -8.6154 0)
(9.94313 -7.85166 0)
(11.3175 -8.40461 0)
(10.6564 -7.66609 0)
(11.5878 -8.381 0)
(11.4625 -7.43471 0)
(12.0789 -8.30431 0)
(12.2886 -7.17466 0)
(12.7218 -8.44802 0)
(13.282 -7.0662 0)
(13.8695 -8.87658 0)
(14.5617 -7.17805 0)
(15.4005 -9.63284 0)
(16.0568 -7.95187 0)
(16.7244 -11.2506 0)
(17.5545 -9.2011 0)
(17.8532 -14.714 0)
(9.58386 -9.10715 0)
(10.0244 -10.7746 0)
(10.4159 -9.80641 0)
(10.5506 -10.4408 0)
(10.8619 -9.58004 0)
(10.9207 -10.3323 0)
(11.4882 -9.32354 0)
(11.5517 -10.1299 0)
(12.2537 -9.04358 0)
(12.4166 -10.1694 0)
(13.2514 -9.09393 0)
(13.6125 -10.5234 0)
(14.415 -9.35804 0)
(14.9908 -11.0863 0)
(15.6226 -10.3426 0)
(16.0817 -12.3457 0)
(16.5994 -11.7403 0)
(16.51 -14.4516 0)
(9.64882 -10.7766 0)
(9.87857 -12.8771 0)
(10.4328 -11.6865 0)
(10.5286 -12.379 0)
(10.8032 -11.3682 0)
(10.9295 -12.1907 0)
(11.3374 -11.0972 0)
(11.6156 -11.946 0)
(12.1447 -10.7925 0)
(12.5262 -11.9216 0)
(13.1525 -10.9314 0)
(13.7266 -12.155 0)
(14.2449 -11.3032 0)
(14.9469 -12.5868 0)
(15.3345 -12.2707 0)
(15.8433 -13.4946 0)
(16.1662 -13.7372 0)
(16.0525 -15.0437 0)
(9.73832 -12.4857 0)
(9.83076 -14.5995 0)
(10.3172 -13.3861 0)
(10.4177 -14.0137 0)
(10.7477 -13.0327 0)
(10.9755 -13.7273 0)
(11.3979 -12.7317 0)
(11.7875 -13.3968 0)
(12.2579 -12.4997 0)
(12.6526 -13.3054 0)
(13.1923 -12.5729 0)
(13.7453 -13.4499 0)
(14.2086 -12.9719 0)
(14.7986 -13.8144 0)
(15.1773 -13.7992 0)
(15.5474 -14.5257 0)
(15.8075 -14.9931 0)
(15.6252 -15.7736 0)
(9.99258 -14.1703 0)
(9.98992 -16.5399 0)
(10.4203 -15.2284 0)
(10.4632 -15.8439 0)
(10.7182 -14.8593 0)
(10.8912 -15.4852 0)
(11.2762 -14.541 0)
(11.6862 -15.0825 0)
(12.1767 -14.3649 0)
(12.6068 -14.9023 0)
(13.1374 -14.365 0)
(13.6592 -14.9452 0)
(14.0965 -14.7281 0)
(14.5944 -15.2635 0)
(14.9681 -15.4056 0)
(15.2238 -15.8376 0)
(15.3942 -16.2924 0)
(15.1852 -16.8259 0)
(9.98435 -16.121 0)
(9.87353 -18.6211 0)
(10.2298 -17.3883 0)
(10.4068 -17.8431 0)
(10.6974 -16.9806 0)
(10.9948 -17.3322 0)
(11.3573 -16.5786 0)
(11.7717 -16.8988 0)
(12.2177 -16.423 0)
(12.6717 -16.6984 0)
(13.1234 -16.3883 0)
(13.6123 -16.6645 0)
(14.0127 -16.6079 0)
(14.4425 -16.8936 0)
(14.7857 -17.0605 0)
(15.0009 -17.3561 0)
(15.0986 -17.6733 0)
(14.8663 -17.9812 0)
(9.88848 -17.9739 0)
(10.0281 -20.7079 0)
(10.2465 -19.6451 0)
(10.3804 -19.9146 0)
(10.5946 -19.2401 0)
(10.9208 -19.3556 0)
(11.2532 -18.7827 0)
(11.6339 -18.8905 0)
(12.098 -18.5429 0)
(12.5499 -18.6268 0)
(13.0206 -18.4174 0)
(13.4897 -18.5111 0)
(13.8839 -18.4744 0)
(14.2929 -18.5931 0)
(14.5938 -18.7412 0)
(14.779 -18.9066 0)
(14.8979 -19.1166 0)
(14.6571 -19.2469 0)
(9.96843 -20.1309 0)
(10.2123 -22.9946 0)
(10.3712 -22.0422 0)
(10.5703 -22.035 0)
(10.7946 -21.4848 0)
(11.1739 -21.3838 0)
(11.4591 -20.9995 0)
(11.8104 -20.9222 0)
(12.232 -20.698 0)
(12.6772 -20.6701 0)
(13.0867 -20.5143 0)
(13.5123 -20.5144 0)
(13.8844 -20.4239 0)
(14.2151 -20.4198 0)
(14.5013 -20.4424 0)
(14.7006 -20.4941 0)
(14.8216 -20.5651 0)
(14.7003 -20.605 0)
(10.1026 -22.2924 0)
(10.3102 -25.0481 0)
(10.435 -24.2648 0)
(10.6291 -24.1062 0)
(10.8761 -23.6758 0)
(11.243 -23.4745 0)
(11.5902 -23.1995 0)
(12.0173 -23.0029 0)
(12.4882 -22.7585 0)
(12.9603 -22.6093 0)
(13.3633 -22.4317 0)
(13.7548 -22.3112 0)
(14.0728 -22.1916 0)
(14.3731 -22.1031 0)
(14.5975 -22.0261 0)
(14.7804 -22 0)
(14.9318 -21.9687 0)
(14.8255 -21.9111 0)
(10.1174 -23.9392 0)
(10.273 -26.9593 0)
(10.4406 -26.2731 0)
(10.7174 -25.9511 0)
(11.0296 -25.5864 0)
(11.3925 -25.3396 0)
(11.7688 -25.1251 0)
(12.2474 -24.9133 0)
(12.6964 -24.6628 0)
(13.1483 -24.4296 0)
(13.5232 -24.173 0)
(13.9046 -23.9499 0)
(14.2114 -23.73 0)
(14.5257 -23.5534 0)
(14.7511 -23.3937 0)
(14.9735 -23.2692 0)
(15.1359 -23.1546 0)
(15.0623 -23.0198 0)
(10.1186 -25.0177 0)
(10.4737 -28.1765 0)
(10.7402 -27.6479 0)
(11.1114 -27.3502 0)
(11.4889 -27.0664 0)
(11.9164 -26.8148 0)
(12.3288 -26.5244 0)
(12.8246 -26.2166 0)
(13.2449 -25.8857 0)
(13.6779 -25.5652 0)
(14.0237 -25.2535 0)
(14.4036 -24.9738 0)
(14.6921 -24.7219 0)
(15.0077 -24.5076 0)
(15.2206 -24.296 0)
(15.4472 -24.1033 0)
(15.6018 -23.9245 0)
(15.5531 -23.6949 0)
(10.2325 -25.4743 0)
(10.7594 -28.778 0)
(11.1161 -28.2073 0)
(11.5137 -27.8802 0)
(11.8698 -27.599 0)
(12.3221 -27.2905 0)
(12.7754 -26.9637 0)
(13.2739 -26.6313 0)
(13.6993 -26.2714 0)
(14.1657 -25.8983 0)
(14.5346 -25.5268 0)
(14.935 -25.1808 0)
(15.2214 -24.8706 0)
(15.5425 -24.5864 0)
(15.7478 -24.3011 0)
(15.9784 -24.038 0)
(16.1232 -23.8011 0)
(16.1083 -23.5193 0)
(10.2954 -24.7634 0)
(10.8877 -27.8345 0)
(11.3363 -27.2878 0)
(11.8878 -27.0557 0)
(12.4333 -26.8136 0)
(13.0193 -26.5057 0)
(13.4691 -26.1808 0)
(13.9199 -25.8357 0)
(14.3084 -25.449 0)
(14.7462 -25.04 0)
(15.0989 -24.646 0)
(15.4955 -24.2862 0)
(15.7948 -23.9675 0)
(16.13 -23.671 0)
(16.3555 -23.3652 0)
(16.6048 -23.0744 0)
(16.7626 -22.8041 0)
(16.7946 -22.495 0)
(10.1982 -23.1138 0)
(11.0578 -25.9925 0)
(11.5673 -25.6813 0)
(12.1685 -25.4544 0)
(12.7843 -25.1072 0)
(13.3967 -24.6938 0)
(13.9017 -24.2758 0)
(14.3997 -23.8904 0)
(14.8195 -23.5424 0)
(15.2818 -23.2113 0)
(15.6698 -22.8908 0)
(16.0877 -22.5792 0)
(16.4067 -22.2804 0)
(16.7434 -21.9845 0)
(16.977 -21.6638 0)
(17.2262 -21.342 0)
(17.3901 -21.0366 0)
(17.449 -20.7133 0)
(10.5564 -20.8224 0)
(11.5933 -23.5801 0)
(12.2053 -23.249 0)
(12.7892 -22.9941 0)
(13.3049 -22.7179 0)
(13.8676 -22.3723 0)
(14.4191 -22.0062 0)
(14.9963 -21.6537 0)
(15.4786 -21.3392 0)
(15.9662 -21.0404 0)
(16.3741 -20.7357 0)
(16.7826 -20.4263 0)
(17.0894 -20.1269 0)
(17.3915 -19.8362 0)
(17.5891 -19.5358 0)
(17.809 -19.2279 0)
(17.9501 -18.9351 0)
(18.0106 -18.625 0)
(10.4447 -18.6829 0)
(11.5572 -21.0042 0)
(12.2655 -20.6166 0)
(12.9325 -20.3097 0)
(13.4995 -20.0543 0)
(14.0833 -19.7782 0)
(14.6524 -19.4868 0)
(15.2429 -19.1957 0)
(15.7332 -18.933 0)
(16.189 -18.6765 0)
(16.5643 -18.4123 0)
(16.9408 -18.1323 0)
(17.2319 -17.8478 0)
(17.5135 -17.5549 0)
(17.7193 -17.2698 0)
(17.9465 -16.9731 0)
(18.0975 -16.6875 0)
(18.2163 -16.401 0)
(10.3859 -16.1501 0)
(11.3398 -18.1878 0)
(12.2201 -17.8017 0)
(13.1267 -17.5676 0)
(13.8711 -17.3832 0)
(14.5462 -17.1802 0)
(15.1176 -16.9456 0)
(15.653 -16.6871 0)
(16.1135 -16.4338 0)
(16.5516 -16.1758 0)
(16.9185 -15.9366 0)
(17.279 -15.69 0)
(17.57 -15.4422 0)
(17.8532 -15.1997 0)
(18.0594 -14.9672 0)
(18.2632 -14.7165 0)
(18.4129 -14.4918 0)
(18.5234 -14.2488 0)
(10.6841 -13.4838 0)
(11.7394 -15.374 0)
(12.6891 -15.1914 0)
(13.5736 -15.0573 0)
(14.2949 -14.88 0)
(14.9433 -14.6382 0)
(15.5253 -14.4041 0)
(16.0626 -14.184 0)
(16.5327 -13.9925 0)
(16.9674 -13.7977 0)
(17.3184 -13.6185 0)
(17.6458 -13.4198 0)
(17.9214 -13.2147 0)
(18.1831 -12.9839 0)
(18.3955 -12.7514 0)
(18.6029 -12.5155 0)
(18.7595 -12.2958 0)
(18.8845 -12.0765 0)
(10.6837 -11.329 0)
(11.9334 -12.8365 0)
(12.9544 -12.6777 0)
(13.7966 -12.5542 0)
(14.5117 -12.4363 0)
(15.2109 -12.2807 0)
(15.8609 -12.1066 0)
(16.4474 -11.9083 0)
(16.9072 -11.7089 0)
(17.2966 -11.4862 0)
(17.6174 -11.294 0)
(17.8956 -11.1212 0)
(18.127 -10.9602 0)
(18.3395 -10.794 0)
(18.5174 -10.6367 0)
(18.6927 -10.4537 0)
(18.8374 -10.2905 0)
(18.9623 -10.1204 0)
(10.5915 -9.02195 0)
(12.0338 -10.4064 0)
(13.1051 -10.3373 0)
(14.0185 -10.241 0)
(14.7818 -10.1216 0)
(15.4782 -9.99111 0)
(16.0664 -9.85306 0)
(16.5844 -9.68406 0)
(17.0233 -9.51935 0)
(17.4163 -9.36016 0)
(17.7645 -9.22011 0)
(18.0798 -9.0702 0)
(18.3484 -8.93101 0)
(18.5842 -8.7889 0)
(18.7692 -8.64633 0)
(18.9103 -8.49569 0)
(19.0252 -8.35866 0)
(19.1047 -8.22868 0)
(10.5411 -7.22927 0)
(11.9736 -8.39716 0)
(13.1677 -8.28514 0)
(14.1574 -8.15773 0)
(14.936 -8.0342 0)
(15.6187 -7.89837 0)
(16.1889 -7.75539 0)
(16.6859 -7.62125 0)
(17.0971 -7.49546 0)
(17.4717 -7.38378 0)
(17.7835 -7.28756 0)
(18.04 -7.18771 0)
(18.2385 -7.06625 0)
(18.3788 -6.94418 0)
(18.4911 -6.81119 0)
(18.572 -6.68813 0)
(18.6253 -6.57601 0)
(18.663 -6.47421 0)
(10.7558 -5.45714 0)
(12.3919 -6.39265 0)
(13.5065 -6.32748 0)
(14.3702 -6.22924 0)
(15.0472 -6.09997 0)
(15.631 -5.94808 0)
(16.0828 -5.81747 0)
(16.4625 -5.70536 0)
(16.7606 -5.60956 0)
(17.0057 -5.5297 0)
(17.1833 -5.45219 0)
(17.299 -5.37442 0)
(17.3691 -5.27635 0)
(17.3924 -5.16781 0)
(17.3936 -5.06703 0)
(17.3814 -4.9674 0)
(17.3484 -4.89733 0)
(17.274 -4.83955 0)
(10.9186 -3.95589 0)
(12.5947 -4.77533 0)
(13.6659 -4.61443 0)
(14.2406 -4.46611 0)
(14.527 -4.31802 0)
(14.7363 -4.162 0)
(14.8754 -4.02533 0)
(15.0078 -3.90431 0)
(15.0864 -3.81139 0)
(15.1109 -3.74818 0)
(15.1002 -3.69059 0)
(15.0465 -3.63007 0)
(14.97 -3.55592 0)
(14.8799 -3.47802 0)
(14.7864 -3.4042 0)
(14.6738 -3.33702 0)
(14.5596 -3.27927 0)
(14.4116 -3.23579 0)
(10.9062 -2.75891 0)
(12.0274 -3.23875 0)
(12.1752 -3.00985 0)
(11.9414 -2.76159 0)
(11.67 -2.5245 0)
(11.5221 -2.34584 0)
(11.4537 -2.237 0)
(11.4749 -2.17057 0)
(11.501 -2.10327 0)
(11.5214 -2.06146 0)
(11.5332 -2.02137 0)
(11.5302 -1.98416 0)
(11.5 -1.94227 0)
(11.4527 -1.90452 0)
(11.401 -1.86579 0)
(11.3478 -1.83104 0)
(11.2951 -1.80372 0)
(11.2179 -1.78762 0)
(9.30032 -1.0896 0)
(7.95253 -1.12643 0)
(6.9493 -0.84469 0)
(6.50019 -0.701754 0)
(6.52002 -0.655327 0)
(6.7769 -0.65232 0)
(7.10752 -0.658058 0)
(7.4731 -0.658851 0)
(7.80077 -0.64154 0)
(8.07828 -0.635424 0)
(8.3347 -0.624275 0)
(8.55505 -0.617516 0)
(8.72584 -0.60912 0)
(8.8738 -0.598733 0)
(9.00144 -0.588601 0)
(9.10889 -0.580412 0)
(9.19547 -0.575709 0)
(9.24103 -0.565191 0)
(0.00114159 1.06538 0)
(-0.0139295 1.22458 0)
(-0.140238 1.23407 0)
(-0.233706 1.10324 0)
(-0.264442 0.98861 0)
(-0.181808 0.890417 0)
(-0.0133668 0.828009 1.08563e-17)
(0.211769 0.776947 -1.08125e-17)
(0.476133 0.736008 0)
(0.773076 0.698078 -1.07166e-17)
(1.10616 0.687668 0)
(1.45444 0.65965 0)
(1.80616 0.647216 0)
(2.20327 0.633374 1.05243e-17)
(2.58461 0.631026 0)
(2.95434 0.652795 0)
(3.29684 0.665873 -1.03674e-17)
(3.59776 0.672434 0)
(3.85526 0.694776 0)
(4.08758 0.723542 0)
(4.27051 0.779059 1.01482e-17)
(4.38533 0.806089 0)
(4.4713 0.832029 1.00285e-17)
(4.48821 0.884381 0)
(4.46322 0.939053 0)
(4.33987 1.00726 9.83618e-18)
(4.18103 1.06395 0)
(3.84362 1.16484 -9.71091e-18)
(3.4456 1.26831 0)
(2.89901 1.43339 9.59636e-18)
(2.20032 1.53741 0)
(1.31595 1.75404 0)
(0.123254 1.5683 0)
(-0.665671 0.560352 0)
(-1.27425 0.282377 0)
(-1.70431 0.759032 -9.34727e-18)
(-1.86075 0.844898 0)
(-2.0972 0.679441 1.83496e-17)
(-2.21018 0.5109 0)
(-2.10534 0.326922 -1.7931e-17)
(-1.88144 0.227532 0)
(-1.4633 0.0743574 0)
(-0.938402 -0.000211626 1.74809e-17)
(-0.468219 0.00940265 0)
(-0.103923 0.0892848 1.71858e-17)
(-0.102668 0.36131 -1.71384e-17)
(-0.565677 0.480397 0)
(-1.35308 0.368458 -1.70286e-17)
(-1.98507 0.636704 -1.70502e-17)
(-2.88965 1.30998 0)
(-3.72093 1.20069 0)
(-3.42692 -0.040956 0)
(-2.95911 -1.20326 0)
(-2.71548 -2.02137 0)
(-2.79571 -1.96265 1.66885e-17)
(-2.90789 -1.03738 0)
(-3.52768 0.281667 -1.68988e-17)
(-5.10566 1.10359 0)
(-6.56803 1.0196 0)
(-7.70033 0.811496 1.61857e-17)
(-8.67585 0.64539 0)
(-9.46157 0.49603 -1.58777e-17)
(-10.1253 0.355444 0)
(-10.652 0.22377 0)
(-11.0413 0.132211 0)
(-11.3304 0.0336206 1.53656e-17)
(-11.5438 -0.0485191 0)
(-11.6868 -0.122554 0)
(-11.7722 -0.174617 1.5018e-17)
(-11.7689 -0.229752 0)
(-11.7238 -0.284944 1.47954e-17)
(-11.6361 -0.330065 0)
(-11.5099 -0.365859 0)
(-11.3565 -0.392924 0)
(-11.171 -0.426331 -1.43657e-17)
(-10.9528 -0.456203 0)
(-10.7182 -0.479147 0)
(-10.4689 -0.511877 -1.40486e-17)
(-10.2181 -0.516947 -1.39446e-17)
(-9.95274 -0.518982 0)
(-9.66431 -0.535311 -1.37373e-17)
(-9.37538 -0.531271 0)
(-9.07775 -0.532868 -2.70646e-17)
(-8.77085 -0.533827 0)
(-8.41862 -0.546059 -2.66482e-17)
(-8.08362 -0.548316 0)
(-7.757 -0.532648 2.62446e-17)
(-7.40834 -0.520202 0)
(-7.08967 -0.522517 0)
(-6.71632 -0.503618 0)
(-6.37657 -0.487913 -2.54393e-17)
(-6.03617 -0.465134 0)
(-5.67575 -0.454827 2.50447e-17)
(-5.35859 -0.416758 0)
(-5.04376 -0.38869 -2.46578e-17)
(-4.72934 -0.366286 -2.44643e-17)
(-4.44541 -0.330135 -2.42735e-17)
(-4.15732 -0.303113 0)
(-3.90344 -0.254443 0)
(-3.64893 -0.22968 0)
(-3.39923 -0.189607 0)
(-3.16014 -0.157687 0)
(-2.9261 -0.132255 0)
(-2.71962 -0.105615 0)
(-2.51128 -0.0793093 0)
(-2.28201 -0.0439377 2.30184e-17)
(-2.04502 0.0131982 2.29183e-17)
(-1.90401 0.0723797 0)
(-1.95176 0.149772 0)
(-2.15633 0.270324 0)
(-2.47769 0.402068 2.24761e-17)
(-2.88304 0.495915 0)
(-3.31634 0.565023 0)
(-3.68243 0.592272 0)
(-3.89966 0.618763 0)
(-4.09001 0.69476 -2.13037e-17)
(-4.40174 0.755857 0)
(-4.74694 0.800743 0)
(-5.11227 0.870273 2.06639e-17)
(-5.3895 0.874643 -2.04609e-17)
(-5.56059 0.906358 0)
(-5.69814 0.954809 -2.01309e-17)
(-5.81949 1.01064 0)
(-5.97386 1.02004 2.00051e-17)
(-6.13309 1.06646 0)
(-6.35338 1.10085 0)
(-6.71325 1.19673 0)
(-7.23647 1.30593 0)
(-7.93917 1.35448 0)
(-8.55375 1.35175 -3.99685e-17)
(-8.92143 1.28064 -3.987e-17)
(-8.71228 1.24349 0)
(-8.31665 1.27347 0)
(-7.55691 1.28995 0)
(-6.73691 1.42043 3.82756e-17)
(-6.37891 1.67733 0)
(-6.32678 1.86174 0)
(-6.91894 1.98182 0)
(-7.79672 1.83464 3.7003e-17)
(-7.67549 1.58755 -3.6914e-17)
(-7.29335 1.56311 0)
(-7.04778 1.78488 0)
(-6.66162 1.79912 -3.63007e-17)
(-7.26141 1.98436 -3.61317e-17)
(-8.53007 2.26155 0)
(-8.58165 2.18815 0)
(-10.4119 2.37176 3.47982e-17)
(-10.5439 1.98048 -3.42645e-17)
(-11.24 2.25356 0)
(-11.3212 1.81848 0)
(-10.1607 1.82642 -3.35727e-17)
(-9.21841 1.70606 0)
(-8.0363 1.73421 0)
(-6.61847 1.73091 -3.27817e-17)
(-5.50086 1.92242 0)
(-4.63162 2.16409 -3.22926e-17)
(-4.4065 2.3095 0)
(-4.73435 2.3612 0)
(-5.49397 2.22913 0)
(-6.54453 2.0545 3.13595e-17)
(-7.28233 2.27466 0)
(-7.79034 2.56723 0)
(-8.7524 2.78429 0)
(-8.47909 2.44034 0)
(-8.57027 2.4658 0)
(-7.86971 2.35785 0)
(-8.00834 2.85502 2.99735e-17)
(-9.84219 3.42434 2.8414e-17)
(-9.49679 2.97981 0)
(-7.18513 2.63817 0)
(-2.81344 2.59855 0)
(0.376496 2.74343 -2.85902e-17)
(2.02356 2.7573 0)
(4.31557 2.82952 5.61248e-17)
(5.97861 2.99036 -5.65384e-17)
(7.03403 2.96507 -5.6671e-17)
(8.17097 2.90819 5.64591e-17)
(8.84569 2.87914 -5.69912e-17)
(9.43455 2.73762 5.64189e-17)
(10.0363 2.69317 0)
(-0.0100629 2.9484 0)
(0.0889792 3.06797 0)
(0.151558 3.19288 -2.17686e-17)
(0.179103 3.06895 0)
(0.265542 2.79658 2.15632e-17)
(0.427994 2.50005 2.16992e-17)
(0.672565 2.28036 1.0909e-17)
(0.938461 2.12708 1.08776e-17)
(1.22072 2.03674 0)
(1.55127 1.9402 1.08445e-17)
(1.90033 1.87767 0)
(2.27325 1.83039 0)
(2.65471 1.7853 -2.15259e-17)
(3.03689 1.73525 -1.07204e-17)
(3.42679 1.6908 2.14237e-17)
(3.80743 1.7143 2.13314e-17)
(4.18092 1.80164 1.05904e-17)
(4.47652 1.8556 0)
(4.74231 1.88347 0)
(4.94824 1.91063 0)
(5.13284 2.02862 1.03475e-17)
(5.25881 2.13114 0)
(5.35797 2.16945 -3.05012e-17)
(5.39673 2.28861 0)
(5.42064 2.41191 0)
(5.38186 2.54093 -9.89638e-18)
(5.29837 2.68052 0)
(5.14781 2.90661 9.72033e-18)
(4.94301 3.10292 1.93278e-17)
(4.69 3.37312 -9.57758e-18)
(4.31213 3.63518 0)
(3.9204 3.99067 0)
(3.23015 4.13569 0)
(2.54607 4.14474 1.8834e-17)
(1.14631 3.67549 1.87528e-17)
(-0.273488 2.32618 9.10497e-18)
(-1.01364 1.57166 0)
(-1.6341 1.68253 -1.7608e-17)
(-1.68271 1.31419 0)
(-1.59383 0.769726 1.70702e-17)
(-1.28856 0.440253 0)
(-0.689357 -0.0267868 0)
(-0.136864 -0.200574 -1.69435e-17)
(0.529269 -0.0516615 0)
(0.843546 0.471651 -5.05508e-17)
(0.729476 1.4168 1.66547e-17)
(0.372082 2.23943 0)
(0.06338 2.63557 1.6267e-17)
(-0.450568 2.1216 1.61165e-17)
(-0.624298 1.23606 0)
(-1.0162 0.293929 0)
(-1.6829 -0.770758 0)
(-3.32201 0.276051 0)
(-6.10389 2.03412 0)
(-8.61601 2.31428 -1.65344e-17)
(-10.2527 2.38352 -3.2897e-17)
(-11.367 2.41725 1.62683e-17)
(-12.1043 2.21591 0)
(-12.8275 1.84852 -3.18855e-17)
(-13.3865 1.46455 1.58166e-17)
(-13.8957 1.09259 0)
(-14.2613 0.732778 1.56045e-17)
(-14.5896 0.392429 0)
(-14.7748 0.107202 0)
(-14.8904 -0.152452 3.04853e-17)
(-14.9565 -0.389103 -1.51546e-17)
(-14.9357 -0.609228 3.00378e-17)
(-14.8863 -0.785836 -2.98302e-17)
(-14.7542 -0.950563 -1.48183e-17)
(-14.602 -1.09801 0)
(-14.3833 -1.23734 -1.46016e-17)
(-14.1491 -1.35628 0)
(-13.8665 -1.46136 0)
(-13.5852 -1.54391 0)
(-13.2598 -1.64331 -1.41167e-17)
(-12.9328 -1.70819 0)
(-12.5863 -1.75198 -2.78418e-17)
(-12.2245 -1.80603 4.14535e-17)
(-11.8489 -1.82064 1.37246e-17)
(-11.4805 -1.84019 0)
(-11.0811 -1.88005 1.35079e-17)
(-10.6854 -1.88369 0)
(-10.2996 -1.90687 2.65762e-17)
(-9.90986 -1.91199 0)
(-9.47743 -1.90844 2.61163e-17)
(-9.06118 -1.87755 -5.15933e-17)
(-8.61803 -1.84202 -2.56501e-17)
(-8.19464 -1.84406 0)
(-7.7694 -1.83277 0)
(-7.31441 -1.78012 0)
(-6.92071 -1.7155 2.47355e-17)
(-6.47225 -1.65077 0)
(-6.06159 -1.58706 -2.42658e-17)
(-5.63744 -1.47982 0)
(-5.28003 -1.40607 7.12499e-17)
(-4.88235 -1.33165 2.35801e-17)
(-4.54414 -1.22116 2.33417e-17)
(-4.18173 -1.14653 0)
(-3.88058 -1.01226 0)
(-3.56123 -0.943321 0)
(-3.29439 -0.832474 0)
(-3.01835 -0.722703 0)
(-2.74712 -0.58099 4.4215e-17)
(-2.4887 -0.430474 4.4086e-17)
(-2.29423 -0.315079 0)
(-2.17607 -0.219125 -2.21403e-17)
(-2.13614 -0.0700561 -2.21246e-17)
(-2.16697 0.249319 0)
(-2.3443 0.59205 -4.42279e-17)
(-2.64801 0.860984 0)
(-3.00121 1.06559 2.17632e-17)
(-3.40674 1.22999 0)
(-3.80957 1.33747 0)
(-4.08514 1.3008 -4.24171e-17)
(-4.13984 1.29587 0)
(-4.14131 1.50665 2.0466e-17)
(-4.27105 1.75982 0)
(-4.48749 1.97347 0)
(-4.80319 2.07557 1.95228e-17)
(-5.13075 2.06341 1.97647e-17)
(-5.35864 2.0885 0)
(-5.41403 2.16805 -1.94538e-17)
(-5.2793 2.33012 0)
(-5.03069 2.60314 1.84452e-17)
(-5.23219 2.84215 3.76781e-17)
(-5.84259 3.11485 0)
(-6.53737 3.40617 0)
(-7.22015 3.72083 0)
(-8.0774 3.90162 0)
(-8.75106 3.87832 4.21036e-17)
(-9.10477 3.56348 1.26708e-16)
(-8.93049 3.27151 0)
(-8.65051 3.15272 0)
(-7.69921 2.9097 0)
(-6.05566 3.18058 -3.98234e-17)
(-4.63788 3.85913 0)
(-3.1741 4.32121 0)
(-2.86754 5.10321 6.82979e-17)
(-3.28106 5.40116 3.37947e-17)
(-3.78227 5.01372 3.45465e-17)
(-4.76868 5.09943 0)
(-5.4819 5.06194 0)
(-5.20752 5.79863 3.55565e-17)
(-7.20117 6.36971 -3.54439e-17)
(-9.118 5.99352 0)
(-8.71326 6.08393 0)
(-10.6189 6.69146 -3.33063e-17)
(-10.3206 5.37098 1.01719e-16)
(-11.0598 6.22449 0)
(-10.4043 4.84637 0)
(-10.301 4.65749 3.38246e-17)
(-7.77612 4.2281 0)
(-6.88167 4.23539 6.68108e-17)
(-4.42798 4.23737 -3.30655e-17)
(-2.90569 4.55283 0)
(-1.26529 5.07437 3.18654e-17)
(-0.289923 5.75659 6.30204e-17)
(0.290906 6.1162 0)
(-0.00153746 6.61131 0)
(-1.53112 7.0433 -3.04432e-17)
(-3.24837 6.8852 0)
(-4.85452 6.69894 5.73337e-17)
(-6.16724 6.76698 0)
(-5.67006 6.23702 0)
(-5.78377 6.80662 0)
(-5.9091 6.81638 0)
(-7.90903 8.46091 -2.72662e-17)
(-8.43943 7.98972 -2.48049e-17)
(-8.24125 6.51644 0)
(-5.75885 5.21928 0)
(-0.325943 5.13065 0)
(3.44331 6.79904 2.55144e-17)
(5.00299 7.4024 0)
(7.03868 7.19684 -5.01581e-17)
(8.65765 7.93511 4.93713e-17)
(9.27211 7.91863 4.97081e-17)
(9.82807 8.0915 4.90647e-17)
(9.92403 8.24668 5.0997e-17)
(9.32182 7.8941 4.93972e-17)
(9.96028 7.92942 0)
(0.000889542 4.82226 0)
(0.0261209 4.83853 0)
(0.105847 4.93995 2.24133e-17)
(0.226085 4.7643 2.24005e-17)
(0.404353 4.38141 -2.25519e-17)
(0.653166 3.98569 -2.27939e-17)
(0.9139 3.6919 6.44905e-20)
(1.1667 3.5017 0)
(1.42554 3.37093 0)
(1.70603 3.241 0)
(2.01857 3.11563 0)
(2.36056 3.01532 0)
(2.72486 2.94371 6.77949e-17)
(3.07996 2.90363 0)
(3.43155 2.90039 -2.23571e-17)
(3.74116 2.92415 -2.22117e-17)
(4.02722 3.00562 0)
(4.24065 3.12475 0)
(4.44385 3.27331 0)
(4.57454 3.36824 0)
(4.64098 3.46724 -2.10223e-17)
(4.72074 3.60701 0)
(4.74817 3.69173 2.04313e-17)
(4.80141 3.78119 0)
(4.80913 3.89073 0)
(4.82669 4.06581 0)
(4.7859 4.2361 3.87857e-17)
(4.76672 4.41949 0)
(4.66764 4.62844 -1.89205e-17)
(4.58767 5.04359 3.75577e-17)
(4.39856 5.38733 0)
(4.31158 5.70939 0)
(3.99414 6.10005 0)
(3.6586 6.33761 -1.86606e-17)
(3.12666 6.34329 -1.8748e-17)
(2.30045 5.97362 0)
(1.12807 5.02159 0)
(-0.100559 3.47425 3.54888e-17)
(-0.538481 2.03967 3.49245e-17)
(-0.972884 1.19928 -3.42916e-17)
(-0.605658 0.389653 0)
(0.000504642 -0.483054 0)
(0.516331 -0.762933 0)
(1.03462 -0.458072 0)
(0.935493 0.613408 3.55742e-17)
(0.798087 1.70728 3.49761e-17)
(0.186963 2.09529 -3.3763e-17)
(-0.319576 2.28814 0)
(-1.42932 2.3646 0)
(-2.9324 2.69431 0)
(-5.33373 3.54224 0)
(-8.37128 4.37663 3.36906e-17)
(-10.1827 4.47305 0)
(-11.452 4.17315 0)
(-12.4816 3.66254 3.31075e-17)
(-13.3036 3.34933 3.28833e-17)
(-13.8824 3.10589 0)
(-14.2709 2.72392 -6.49944e-17)
(-14.5463 2.23334 3.23671e-17)
(-14.7206 1.72205 -3.2211e-17)
(-14.88 1.21478 0)
(-14.9686 0.733868 0)
(-15.0198 0.265917 0)
(-14.9813 -0.118876 0)
(-14.9776 -0.525761 -3.13046e-17)
(-14.8662 -0.839925 -6.21148e-17)
(-14.7776 -1.1803 -3.09223e-17)
(-14.5833 -1.46001 3.07219e-17)
(-14.421 -1.70174 0)
(-14.1713 -1.93977 -6.0497e-17)
(-13.9312 -2.13809 -6.01093e-17)
(-13.609 -2.30825 -5.96733e-17)
(-13.3015 -2.47934 5.93028e-17)
(-12.9998 -2.62175 0)
(-12.6451 -2.74347 8.78278e-17)
(-12.255 -2.84395 0)
(-11.9036 -2.91474 -2.87387e-17)
(-11.5105 -2.98748 -2.87243e-17)
(-11.1488 -3.01535 0)
(-10.7703 -3.02596 0)
(-10.374 -3.06926 -5.60075e-17)
(-9.98488 -3.07772 0)
(-9.56541 -3.11382 -5.51958e-17)
(-9.18203 -3.12178 0)
(-8.7464 -3.12776 5.43827e-17)
(-8.35903 -3.06326 1.08015e-16)
(-7.87266 -3.01163 0)
(-7.46362 -2.96247 0)
(-7.01294 -2.94811 0)
(-6.58676 -2.84639 5.21445e-17)
(-6.16051 -2.75185 0)
(-5.71133 -2.6231 5.11645e-17)
(-5.33796 -2.50663 0)
(-4.89451 -2.35338 0)
(-4.55618 -2.20483 -9.95822e-17)
(-4.14757 -2.10439 0)
(-3.82471 -1.89478 -4.85695e-17)
(-3.4328 -1.78007 0)
(-3.15897 -1.53958 -4.7361e-17)
(-2.81331 -1.40092 0)
(-2.58019 -1.19181 0)
(-2.27393 -1.02893 0)
(-1.99418 -0.873091 -1.35264e-16)
(-1.70329 -0.686362 -4.45596e-17)
(-1.50941 -0.443307 0)
(-1.48823 -0.0881635 0)
(-1.55006 0.264487 0)
(-1.6387 0.646919 0)
(-1.81931 1.08717 4.42736e-17)
(-2.15584 1.54667 -8.81865e-17)
(-2.48322 1.90722 -4.43124e-17)
(-2.78287 2.20636 8.8041e-17)
(-3.21137 2.41539 8.81088e-17)
(-3.48623 2.32625 4.39687e-17)
(-3.57746 2.29614 0)
(-3.6942 2.64742 8.58114e-17)
(-3.65317 3.02889 0)
(-3.71567 3.38075 -8.13026e-17)
(-3.86478 3.72858 -4.06049e-17)
(-4.38077 4.00011 0)
(-5.02383 4.08422 8.76474e-17)
(-5.44014 4.03933 4.44303e-17)
(-5.48934 3.9372 0)
(-4.88712 4.21771 3.92454e-17)
(-4.04123 4.8533 -1.10873e-16)
(-4.38636 5.77605 0)
(-5.31513 6.43846 0)
(-6.06511 6.78286 0)
(-6.68711 6.90296 0)
(-7.17144 6.68498 -8.72832e-17)
(-7.27087 6.17637 -8.57698e-17)
(-7.58251 5.95951 0)
(-8.03505 5.84282 0)
(-7.98595 4.96897 0)
(-6.96288 4.9333 0)
(-5.49617 5.86884 0)
(-3.72072 6.82353 0)
(-2.84229 8.15215 -7.07474e-17)
(-2.25436 8.74461 4.38264e-20)
(-2.53157 8.98715 0)
(-3.92268 9.23972 0)
(-5.51615 9.01932 -7.07245e-17)
(-5.84361 10.09 0)
(-6.99985 11.5987 7.1268e-17)
(-9.61801 10.5624 6.91974e-17)
(-9.93346 10.1026 0)
(-11.3084 10.833 0)
(-10.0425 9.45071 -7.44284e-17)
(-11.6472 10.0788 -1.35183e-16)
(-8.55584 8.58075 0)
(-10.7962 8.33987 0)
(-6.64585 7.32333 0)
(-6.54884 7.43291 -7.17057e-17)
(-3.52475 7.37098 7.06434e-17)
(-2.00698 7.90729 0)
(0.0465343 8.62282 1.35829e-16)
(1.113 9.50357 6.66276e-17)
(1.76907 10.353 -1.28743e-16)
(2.18909 10.8475 0)
(1.399 11.1637 0)
(0.442025 11.8878 -1.20574e-16)
(-1.65884 12.1148 -5.81021e-17)
(-4.04195 11.9315 0)
(-4.44535 10.5812 0)
(-5.25358 11.5109 0)
(-4.79037 12.3374 0)
(-6.50914 13.7479 -1.02218e-16)
(-5.78853 13.6431 0)
(-6.10021 12.3914 0)
(-4.12877 9.80443 0)
(-0.00703585 8.91722 0)
(4.37035 11.308 0)
(6.25735 12.4769 0)
(7.21128 12.5895 -1.007e-16)
(9.32139 13.5933 0)
(10.1428 13.3095 0)
(10.8159 13.5175 -1.81548e-16)
(10.462 14.016 9.52628e-17)
(9.28539 13.0388 -9.03548e-17)
(10.1539 12.6286 9.05202e-17)
(0.00425482 6.64731 0)
(0.00557079 6.63416 -4.73023e-17)
(0.0582203 6.57748 0)
(0.210518 6.21734 -2.33369e-17)
(0.407289 5.70552 0)
(0.633891 5.24442 0)
(0.844909 4.95146 2.3831e-17)
(1.03578 4.79046 0)
(1.23146 4.6352 0)
(1.44926 4.43637 0)
(1.68866 4.26209 0)
(1.96138 4.08848 0)
(2.24746 3.97912 -9.17909e-17)
(2.50555 3.94366 -4.5712e-17)
(2.77046 4.00194 4.537e-17)
(2.97148 4.0854 0)
(3.13531 4.21369 0)
(3.24397 4.35981 0)
(3.37205 4.54105 0)
(3.48279 4.67811 0)
(3.57678 4.79445 -4.17421e-17)
(3.7049 4.88803 -4.10141e-17)
(3.7858 4.92131 4.03714e-17)
(3.89203 5.01735 -3.98505e-17)
(3.88631 5.12963 0)
(3.93179 5.27617 0)
(3.89362 5.40601 -3.85867e-17)
(3.88861 5.61506 0)
(3.75943 5.89867 0)
(3.74015 6.16351 -3.72656e-17)
(3.66384 6.46875 -3.69529e-17)
(3.5775 6.87439 -3.65569e-17)
(3.50604 7.30351 0)
(3.33728 7.57556 0)
(3.06116 7.80575 3.66204e-17)
(2.69175 7.74013 0)
(2.01817 7.16691 0)
(1.19584 6.03231 -3.64993e-17)
(0.450998 4.46233 3.62081e-17)
(-0.403532 2.45978 -3.51093e-17)
(-0.283573 0.478123 0)
(-0.373991 -0.779373 0)
(-0.57124 -0.662374 -7.24209e-17)
(-1.54073 0.389966 0)
(-2.65322 1.89335 -7.34454e-17)
(-3.46368 3.63814 -1.04588e-16)
(-4.7587 4.8084 1.04427e-16)
(-6.22674 5.68739 -6.85607e-17)
(-7.96321 6.38943 0)
(-9.58811 6.68989 0)
(-10.9642 6.57796 -6.79102e-17)
(-12.0357 6.14605 -3.37955e-17)
(-12.7427 5.68239 0)
(-13.4092 5.17871 0)
(-13.8218 4.53838 -3.33285e-17)
(-14.1811 3.95772 -6.61668e-17)
(-14.3157 3.33268 0)
(-14.4263 2.74156 6.56374e-17)
(-14.4524 2.11176 -6.53112e-17)
(-14.4912 1.53539 6.4878e-17)
(-14.4735 0.904355 0)
(-14.4538 0.388531 0)
(-14.4045 -0.156095 0)
(-14.3157 -0.618379 0)
(-14.2179 -1.09012 0)
(-14.0974 -1.49667 6.2765e-17)
(-13.9345 -1.87608 0)
(-13.7367 -2.22859 0)
(-13.476 -2.54521 0)
(-13.2473 -2.84697 1.22038e-16)
(-12.9151 -3.11478 6.07728e-17)
(-12.6459 -3.32422 6.0313e-17)
(-12.2618 -3.54945 -1.19698e-16)
(-11.9378 -3.73765 5.92956e-17)
(-11.5376 -3.89376 -5.91584e-17)
(-11.1067 -4.02957 0)
(-10.7468 -4.09613 5.83664e-17)
(-10.3245 -4.23181 0)
(-9.90592 -4.27442 0)
(-9.5392 -4.25976 0)
(-9.08784 -4.34077 1.1336e-16)
(-8.75688 -4.32304 -5.61598e-17)
(-8.27074 -4.3456 -5.54708e-17)
(-7.89635 -4.34546 -1.1078e-16)
(-7.39035 -4.35566 -1.65476e-16)
(-7.02524 -4.31114 -5.50091e-17)
(-6.4906 -4.2544 0)
(-6.0949 -4.12619 -1.07827e-16)
(-5.53493 -4.13169 0)
(-5.17032 -3.95862 -1.59978e-16)
(-4.66777 -3.8235 0)
(-4.27682 -3.65844 -1.57871e-16)
(-3.85475 -3.46532 0)
(-3.48361 -3.27651 0)
(-3.12865 -3.03556 -5.10403e-17)
(-2.73408 -2.87402 0)
(-2.45167 -2.59073 5.10742e-17)
(-2.07205 -2.41433 1.00688e-16)
(-1.8571 -2.10236 5.0155e-17)
(-1.48853 -1.92056 9.88849e-17)
(-1.27161 -1.61542 -9.75939e-17)
(-0.96183 -1.35233 -9.66383e-17)
(-0.727087 -1.09784 1.91751e-16)
(-0.511178 -0.765057 0)
(-0.342396 -0.372315 0)
(-0.22544 -0.0157787 8.91311e-17)
(-0.113437 0.302777 -8.74649e-17)
(-0.122852 0.840997 0)
(-0.220522 1.55861 0)
(-0.422705 2.16497 8.83255e-17)
(-0.469432 2.52955 0)
(-0.651023 2.94988 -7.92727e-19)
(-1.12145 3.24773 -7.73321e-19)
(-1.2479 3.00652 8.49624e-17)
(-1.57881 3.05979 0)
(-2.29242 3.54056 -8.8034e-17)
(-2.58718 3.98195 0)
(-2.69205 4.45512 8.64134e-17)
(-2.71351 5.07044 0)
(-2.84409 5.55625 0)
(-3.22232 5.7665 -8.88083e-17)
(-3.81972 5.71366 -9.12174e-17)
(-4.22233 5.48273 0)
(-4.80272 5.48139 -9.12462e-17)
(-4.00836 5.94355 1.64063e-16)
(-2.70551 6.89423 0)
(-2.16443 8.04105 0)
(-2.5242 8.67235 0)
(-2.77167 8.82732 0)
(-3.01603 8.66255 8.19737e-17)
(-2.94007 8.21086 -1.59015e-16)
(-3.24389 8.22078 0)
(-3.73265 8.24979 0)
(-4.28404 7.07799 0)
(-5.48992 6.35028 0)
(-4.63679 7.177 0)
(-4.0267 8.6568 0)
(-3.29234 10.6722 0)
(-2.40095 11.6148 6.80051e-17)
(-1.94463 12.4663 0)
(-2.70105 13.4405 0)
(-4.20684 13.2103 7.03318e-17)
(-6.08806 13.8379 0)
(-5.38182 15.7735 0)
(-7.83413 15.4828 -6.94613e-17)
(-9.24314 14.6151 0)
(-11.7968 14.6215 0)
(-8.46574 12.8177 1.58675e-16)