/*--------------------------------*- C++ -*----------------------------------*\
| =========                 |                                                 |
| \\      /  F ield         | OpenFOAM: The Open Source CFD Toolbox           |
|  \\    /   O peration     | Version:  dev                                   |
|   \\  /    A nd           | Web:      http://www.openfoam.org               |
|    \\/     M anipulation  |                                                 |
\*---------------------------------------------------------------------------*/
FoamFile
{
    version     2.0;
    format      ascii;
    class       volVectorField;
    object      U_0;
    location    "9.119";
}
// * * * * * * * * * * * * * * * * * * * * * * * * * * * * * * * * * * * * * //

dimensions      [0 1 -1 0 0 0 0];

internalField   nonuniform List<vector> 
12225
(
(6.9116 -0.202022 0)
(4.54729 -0.491089 0)
(2.87162 -0.640859 0)
(2.62864 -0.677384 0)
(2.00328 -0.660295 0)
(2.76333 -0.665378 0)
(2.10112 -0.628158 0)
(3.30125 -0.662808 0)
(2.60701 -0.625551 0)
(4.09353 -0.683923 0)
(3.36918 -0.582303 0)
(5.42778 -0.750486 0)
(4.53709 -0.556606 0)
(7.29681 -0.835473 0)
(7.11993 -0.691717 0)
(8.66375 -0.368614 0)
(14.5497 -2.10071 0)
(9.38743 1.15432 0)
(9.7779 -1.0072 0)
(9.63954 -1.24598 0)
(7.39245 -1.57346 0)
(7.58576 -1.82749 0)
(5.28954 -1.91867 0)
(7.11414 -1.97315 0)
(4.54272 -1.94292 0)
(7.45973 -2.00118 0)
(4.5865 -1.92429 0)
(8.36116 -2.06318 0)
(4.9987 -1.8989 0)
(10.0086 -2.20152 0)
(6.01675 -1.94004 0)
(12.3844 -2.6904 0)
(8.8193 -1.54741 0)
(15.0492 -4.74969 0)
(15.326 -0.206697 0)
(19.2055 -13.17 0)
(9.2987 -2.80054 0)
(11.7947 -2.68158 0)
(9.33022 -2.94689 0)
(11.4153 -3.15543 0)
(7.78221 -3.27916 0)
(11.1083 -3.32204 0)
(6.93721 -3.36721 0)
(11.2853 -3.3529 0)
(6.798 -3.3557 0)
(11.9603 -3.54094 0)
(7.50621 -3.38569 0)
(12.9357 -3.80232 0)
(9.49055 -3.46365 0)
(14.0923 -4.67913 0)
(13.1475 -3.23674 0)
(14.612 -6.65741 0)
(20.6037 -1.8392 0)
(15.633 -17.0811 0)
(7.65999 -4.60279 0)
(13.1327 -4.52244 0)
(9.21726 -4.64198 0)
(13.6056 -4.79247 0)
(9.09514 -4.79424 0)
(13.7011 -4.94049 0)
(9.2941 -4.79873 0)
(13.8696 -4.99785 0)
(9.74332 -4.71983 0)
(14.1896 -5.35989 0)
(10.6509 -4.62927 0)
(14.7332 -5.96215 0)
(12.2566 -4.48599 0)
(15.7056 -7.20979 0)
(14.9277 -4.33728 0)
(16.8346 -9.65858 0)
(20.1298 -3.38688 0)
(20.536 -17.9912 0)
(7.35784 -6.51411 0)
(13.3602 -6.67807 0)
(9.67586 -6.55191 0)
(13.6214 -6.7456 0)
(10.5127 -6.56564 0)
(13.7669 -6.89735 0)
(11.426 -6.50464 0)
(13.9797 -6.9213 0)
(12.2206 -6.40297 0)
(14.1808 -7.19113 0)
(13.1733 -6.33041 0)
(14.6909 -7.75477 0)
(14.464 -6.29246 0)
(15.6294 -8.78449 0)
(16.3236 -6.55062 0)
(16.7679 -10.9713 0)
(18.9276 -7.19223 0)
(18.7296 -16.1093 0)
(8.72503 -8.37804 0)
(11.8339 -9.18704 0)
(10.4671 -8.48907 0)
(12.1861 -9.03676 0)
(11.3117 -8.37443 0)
(12.496 -9.07844 0)
(12.1435 -8.20988 0)
(12.9134 -9.07478 0)
(12.8886 -8.0268 0)
(13.3911 -9.28793 0)
(13.7452 -7.99025 0)
(14.3343 -9.78494 0)
(14.8608 -8.17057 0)
(15.66 -10.6402 0)
(16.1936 -9.02496 0)
(16.8472 -12.3518 0)
(17.6828 -10.4789 0)
(17.5633 -16.5848 0)
(9.74041 -10.5171 0)
(10.6683 -11.5187 0)
(10.9885 -10.6038 0)
(11.3032 -11.2532 0)
(11.5621 -10.4621 0)
(11.7192 -11.22 0)
(12.2174 -10.276 0)
(12.2883 -11.1041 0)
(12.8978 -10.0828 0)
(12.9992 -11.2331 0)
(13.7401 -10.2113 0)
(14.01 -11.6761 0)
(14.7276 -10.5411 0)
(15.2105 -12.3566 0)
(15.7501 -11.6183 0)
(16.1634 -13.7445 0)
(16.5881 -13.1456 0)
(16.2914 -16.335 0)
(9.85555 -12.4586 0)
(10.431 -13.7804 0)
(11.0501 -12.6276 0)
(11.2141 -13.3537 0)
(11.512 -12.4106 0)
(11.6425 -13.2588 0)
(12.0474 -12.2232 0)
(12.2676 -13.1111 0)
(12.7604 -12.0103 0)
(13.0434 -13.1923 0)
(13.6169 -12.2433 0)
(14.0679 -13.5299 0)
(14.5258 -12.691 0)
(15.1129 -14.0815 0)
(15.4158 -13.7595 0)
(15.8465 -15.1382 0)
(16.0672 -15.3679 0)
(15.7785 -16.9377 0)
(9.92768 -14.4115 0)
(10.3301 -15.673 0)
(10.9105 -14.4885 0)
(11.0809 -15.1617 0)
(11.4466 -14.2379 0)
(11.6865 -14.9769 0)
(12.0975 -14.0278 0)
(12.4387 -14.7594 0)
(12.8533 -13.895 0)
(13.1626 -14.7858 0)
(13.6287 -14.0756 0)
(14.0807 -15.044 0)
(14.4552 -14.5638 0)
(14.9553 -15.5234 0)
(15.2245 -15.5006 0)
(15.5229 -16.361 0)
(15.6707 -16.85 0)
(15.3627 -17.7765 0)
(10.1915 -16.4198 0)
(10.4847 -17.7986 0)
(11.004 -16.5066 0)
(11.0954 -17.1846 0)
(11.3898 -16.2536 0)
(11.572 -16.943 0)
(11.9538 -16.0371 0)
(12.3253 -16.6569 0)
(12.7615 -15.9718 0)
(13.1061 -16.5978 0)
(13.557 -16.0819 0)
(13.9752 -16.7612 0)
(14.3155 -16.5528 0)
(14.7208 -17.1934 0)
(14.9847 -17.3466 0)
(15.1517 -17.8767 0)
(15.2104 -18.3709 0)
(14.896 -18.9971 0)
(10.2026 -18.7273 0)
(10.3485 -20.1194 0)
(10.8077 -18.8807 0)
(11.031 -19.4199 0)
(11.3623 -18.5933 0)
(11.6539 -19.0344 0)
(12.0086 -18.312 0)
(12.384 -18.7289 0)
(12.7777 -18.2834 0)
(13.1493 -18.6539 0)
(13.5164 -18.3674 0)
(13.9014 -18.7394 0)
(14.1975 -18.7068 0)
(14.5268 -19.0824 0)
(14.764 -19.2793 0)
(14.8793 -19.6494 0)
(14.855 -20.01 0)
(14.5296 -20.3852 0)
(10.0777 -20.9553 0)
(10.4325 -22.4739 0)
(10.7556 -21.4026 0)
(10.9411 -21.7739 0)
(11.2032 -21.134 0)
(11.5305 -21.3432 0)
(11.8555 -20.8063 0)
(12.2026 -21.012 0)
(12.6134 -20.7012 0)
(12.9886 -20.872 0)
(13.3734 -20.7 0)
(13.7417 -20.8716 0)
(14.0292 -20.8758 0)
(14.3354 -21.0686 0)
(14.5245 -21.2603 0)
(14.6082 -21.4864 0)
(14.6009 -21.7405 0)
(14.2506 -21.9151 0)
(10.1224 -23.557 0)
(10.5841 -25.0838 0)
(10.8383 -24.1156 0)
(11.0867 -24.2164 0)
(11.346 -23.7079 0)
(11.7241 -23.7014 0)
(11.9898 -23.362 0)
(12.2985 -23.3798 0)
(12.6616 -23.2047 0)
(13.0272 -23.2554 0)
(13.3538 -23.1458 0)
(13.687 -23.2123 0)
(13.9584 -23.163 0)
(14.1898 -23.2165 0)
(14.3716 -23.2874 0)
(14.4671 -23.3846 0)
(14.468 -23.4981 0)
(14.2403 -23.5736 0)
(10.2525 -26.2099 0)
(10.6578 -27.5163 0)
(10.869 -26.7193 0)
(11.1144 -26.6673 0)
(11.387 -26.2866 0)
(11.7588 -26.1684 0)
(12.0818 -25.9454 0)
(12.4622 -25.8261 0)
(12.8707 -25.641 0)
(13.2631 -25.5653 0)
(13.5789 -25.4425 0)
(13.8755 -25.3846 0)
(14.0956 -25.3091 0)
(14.2911 -25.2652 0)
(14.4128 -25.2284 0)
(14.4959 -25.2382 0)
(14.5282 -25.2353 0)
(14.3234 -25.2062 0)
(10.2302 -28.4961 0)
(10.5412 -29.8737 0)
(10.7979 -29.1598 0)
(11.1195 -28.9353 0)
(11.4502 -28.6301 0)
(11.8128 -28.46 0)
(12.1707 -28.3093 0)
(12.6093 -28.1648 0)
(13.0055 -27.9712 0)
(13.3865 -27.7974 0)
(13.6817 -27.5902 0)
(13.9711 -27.414 0)
(14.1826 -27.2324 0)
(14.394 -27.0898 0)
(14.5178 -26.9599 0)
(14.6412 -26.8635 0)
(14.6886 -26.7673 0)
(14.5177 -26.6488 0)
(10.2164 -30.1187 0)
(10.6624 -31.5611 0)
(11.0039 -31.0074 0)
(11.4257 -30.7955 0)
(11.8324 -30.5747 0)
(12.2628 -30.3911 0)
(12.6585 -30.1626 0)
(13.1186 -29.9124 0)
(13.4873 -29.6318 0)
(13.8518 -29.3585 0)
(14.1215 -29.0854 0)
(14.4143 -28.8399 0)
(14.613 -28.6139 0)
(14.8322 -28.4201 0)
(14.949 -28.226 0)
(15.0836 -28.0488 0)
(15.1284 -27.8739 0)
(14.9845 -27.6454 0)
(10.2891 -31.0557 0)
(10.8849 -32.6126 0)
(11.315 -32.0174 0)
(11.7581 -31.7715 0)
(12.1422 -31.5512 0)
(12.6041 -31.3004 0)
(13.0511 -31.02 0)
(13.526 -30.7243 0)
(13.9108 -30.3938 0)
(14.319 -30.0473 0)
(14.6182 -29.6973 0)
(14.9378 -29.3696 0)
(15.1379 -29.0711 0)
(15.3676 -28.7923 0)
(15.4791 -28.5113 0)
(15.6208 -28.2516 0)
(15.6592 -28.006 0)
(15.5517 -27.7085 0)
(10.3384 -30.6112 0)
(10.9635 -31.9878 0)
(11.4814 -31.3981 0)
(12.0866 -31.2343 0)
(12.6627 -31.0463 0)
(13.2602 -30.786 0)
(13.7051 -30.4974 0)
(14.1385 -30.1718 0)
(14.496 -29.7908 0)
(14.887 -29.3837 0)
(15.1792 -28.9885 0)
(15.5049 -28.6268 0)
(15.7248 -28.301 0)
(15.9762 -27.992 0)
(16.1131 -27.6748 0)
(16.2779 -27.3744 0)
(16.3342 -27.0833 0)
(16.2783 -26.7456 0)
(10.1725 -28.8451 0)
(11.0122 -30.2234 0)
(11.6096 -29.8709 0)
(12.2963 -29.694 0)
(12.9766 -29.375 0)
(13.6243 -28.9869 0)
(14.1322 -28.5891 0)
(14.6123 -28.2127 0)
(15.0008 -27.8592 0)
(15.4197 -27.5152 0)
(15.7511 -27.1783 0)
(16.1046 -26.8505 0)
(16.3516 -26.5308 0)
(16.614 -26.2094 0)
(16.7693 -25.8639 0)
(16.9424 -25.5214 0)
(17.0147 -25.1864 0)
(16.9931 -24.8279 0)
(10.5024 -26.3028 0)
(11.51 -27.666 0)
(12.2133 -27.3026 0)
(12.8872 -27.097 0)
(13.4786 -26.8292 0)
(14.0933 -26.4783 0)
(14.6651 -26.1044 0)
(15.2352 -25.7436 0)
(15.6919 -25.4153 0)
(16.1443 -25.0974 0)
(16.5037 -24.7705 0)
(16.8545 -24.4401 0)
(17.0946 -24.1164 0)
(17.3267 -23.7984 0)
(17.4506 -23.4671 0)
(17.5983 -23.1306 0)
(17.6535 -22.8028 0)
(17.6368 -22.4525 0)
(10.4207 -23.6659 0)
(11.5053 -24.7789 0)
(12.3072 -24.352 0)
(13.0475 -24.0813 0)
(13.6716 -23.8338 0)
(14.3019 -23.5474 0)
(14.9012 -23.2409 0)
(15.5001 -22.9361 0)
(15.9746 -22.6585 0)
(16.4011 -22.3819 0)
(16.7346 -22.0909 0)
(17.059 -21.7829 0)
(17.2872 -21.4676 0)
(17.5018 -21.1444 0)
(17.6377 -20.8248 0)
(17.7959 -20.4941 0)
(17.868 -20.1716 0)
(17.9159 -19.8445 0)
(10.2937 -20.6034 0)
(11.2242 -21.5613 0)
(12.2165 -21.1161 0)
(13.2129 -20.9025 0)
(14.0224 -20.7268 0)
(14.7458 -20.5223 0)
(15.3456 -20.275 0)
(15.8931 -19.9992 0)
(16.3432 -19.7266 0)
(16.7546 -19.4474 0)
(17.0825 -19.182 0)
(17.3955 -18.907 0)
(17.6285 -18.6297 0)
(17.8481 -18.359 0)
(17.9853 -18.0943 0)
(18.1236 -17.8122 0)
(18.1996 -17.5526 0)
(18.2447 -17.2695 0)
(10.5879 -17.2831 0)
(11.5664 -18.2841 0)
(12.6396 -18.0461 0)
(13.6391 -17.9236 0)
(14.4464 -17.7465 0)
(15.1531 -17.5018 0)
(15.7636 -17.261 0)
(16.3083 -17.0301 0)
(16.7694 -16.8232 0)
(17.1798 -16.6107 0)
(17.4937 -16.4091 0)
(17.7788 -16.182 0)
(18.0037 -15.9455 0)
(18.21 -15.6837 0)
(18.3607 -15.4212 0)
(18.5051 -15.1571 0)
(18.592 -14.9067 0)
(18.6525 -14.655 0)
(10.6211 -14.4967 0)
(11.7725 -15.2576 0)
(12.9172 -15.0639 0)
(13.8677 -14.9547 0)
(14.6714 -14.8372 0)
(15.4353 -14.672 0)
(16.1236 -14.4863 0)
(16.7207 -14.2773 0)
(17.1698 -14.065 0)
(17.5347 -13.8278 0)
(17.8153 -13.6214 0)
(18.0454 -13.4292 0)
(18.2229 -13.2443 0)
(18.3794 -13.0523 0)
(18.4994 -12.866 0)
(18.6182 -12.6551 0)
(18.7012 -12.4637 0)
(18.7696 -12.2613 0)
(10.5217 -11.601 0)
(11.8931 -12.3587 0)
(13.08 -12.2574 0)
(14.0958 -12.1717 0)
(14.9445 -12.0558 0)
(15.7057 -11.9238 0)
(16.3361 -11.7793 0)
(16.8739 -11.5998 0)
(17.3094 -11.4245 0)
(17.6816 -11.2509 0)
(17.9952 -11.0941 0)
(18.2651 -10.9265 0)
(18.4808 -10.7697 0)
(18.6604 -10.6078 0)
(18.7845 -10.4459 0)
(18.8679 -10.2743 0)
(18.9238 -10.1166 0)
(18.949 -9.96168 0)
(10.4622 -9.20603 0)
(11.8163 -9.90359 0)
(13.1333 -9.76463 0)
(14.2363 -9.64792 0)
(15.1076 -9.52874 0)
(15.8596 -9.3933 0)
(16.4741 -9.24778 0)
(16.9927 -9.10745 0)
(17.4069 -8.97415 0)
(17.7687 -8.85392 0)
(18.0534 -8.74767 0)
(18.2735 -8.63254 0)
(18.426 -8.49579 0)
(18.5173 -8.35773 0)
(18.5773 -8.20852 0)
(18.6032 -8.07079 0)
(18.6026 -7.94229 0)
(18.5899 -7.82279 0)
(10.6882 -6.88241 0)
(12.2155 -7.4914 0)
(13.4518 -7.41348 0)
(14.4492 -7.32314 0)
(15.2425 -7.19603 0)
(15.9123 -7.04526 0)
(16.42 -6.91449 0)
(16.8305 -6.80047 0)
(17.1382 -6.70084 0)
(17.3767 -6.61476 0)
(17.531 -6.53001 0)
(17.6134 -6.44237 0)
(17.6406 -6.33203 0)
(17.6146 -6.21231 0)
(17.5643 -6.0994 0)
(17.4985 -5.9897 0)
(17.4087 -5.91057 0)
(17.2814 -5.83825 0)
(10.846 -4.90352 0)
(12.4625 -5.49505 0)
(13.6772 -5.33399 0)
(14.3934 -5.2025 0)
(14.8009 -5.06018 0)
(15.1002 -4.90426 0)
(15.2965 -4.76591 0)
(15.4572 -4.64285 0)
(15.5376 -4.54874 0)
(15.5466 -4.48215 0)
(15.5052 -4.41936 0)
(15.4096 -4.3518 0)
(15.2848 -4.26918 0)
(15.1412 -4.18304 0)
(14.9893 -4.10111 0)
(14.8169 -4.02588 0)
(14.6416 -3.96166 0)
(14.4331 -3.9091 0)
(10.8909 -3.29337 0)
(11.9691 -3.64786 0)
(12.2582 -3.41561 0)
(12.1494 -3.17321 0)
(11.9755 -2.93803 0)
(11.8968 -2.76044 0)
(11.869 -2.65166 0)
(11.9061 -2.58312 0)
(11.9234 -2.51349 0)
(11.9193 -2.46966 0)
(11.8923 -2.42687 0)
(11.8399 -2.38628 0)
(11.7537 -2.34026 0)
(11.6468 -2.29827 0)
(11.5331 -2.25493 0)
(11.4173 -2.21628 0)
(11.3013 -2.18582 0)
(11.1618 -2.16624 0)
(9.25604 -1.28393 0)
(7.87622 -1.25775 0)
(7.00512 -0.972149 0)
(6.67698 -0.831637 0)
(6.79548 -0.785488 0)
(7.12316 -0.781994 0)
(7.49772 -0.786954 0)
(7.88424 -0.786991 0)
(8.20987 -0.768953 0)
(8.46912 -0.762611 0)
(8.69296 -0.750864 0)
(8.86936 -0.743677 0)
(8.98867 -0.734309 0)
(9.08056 -0.722979 0)
(9.14851 -0.711982 0)
(9.19428 -0.703098 0)
(9.21739 -0.697842 0)
(9.1986 -0.689405 0)
(0.0230464 1.38503 0)
(0.0674206 1.52643 0)
(0.0103475 1.53445 0)
(-0.0106732 1.40351 0)
(0.0309997 1.28669 0)
(0.186101 1.18539 0)
(0.426092 1.1202 1.09012e-17)
(0.721635 1.06643 -1.08573e-17)
(1.0552 1.02261 0)
(1.42123 0.981355 -1.07607e-17)
(1.82324 0.967129 0)
(2.23957 0.934693 0)
(2.65936 0.91788 0)
(3.12337 0.899007 1.05666e-17)
(3.56889 0.891562 0)
(3.99992 0.907232 0)
(4.40037 0.913303 -1.04082e-17)
(4.75674 0.913514 0)
(5.06654 0.928931 0)
(5.3473 0.95064 0)
(5.57455 0.998727 1.01852e-17)
(5.73004 1.01658 0)
(5.85525 1.0353 1.00632e-17)
(5.90531 1.08141 0)
(5.90934 1.12931 0)
(5.81043 1.18986 9.86675e-18)
(5.66895 1.2396 0)
(5.34185 1.33489 -9.73887e-18)
(4.94888 1.43183 0)
(4.39902 1.59022 9.62258e-18)
(3.68811 1.68825 0)
(2.78282 1.89857 0)
(1.55602 1.69656 0)
(0.733592 0.681506 0)
(0.0777002 0.400697 0)
(-0.410689 0.858912 -9.36589e-18)
(-0.626984 0.932653 0)
(-0.920216 0.762867 1.83811e-17)
(-1.09041 0.584049 0)
(-1.04487 0.388701 -1.79586e-17)
(-0.881792 0.279078 0)
(-0.533536 0.118021 0)
(-0.0899093 0.0307038 1.75043e-17)
(0.315642 0.0329486 0)
(0.638164 0.0958814 1.72025e-17)
(0.593903 0.356254 -1.71524e-17)
(0.0886573 0.469721 0)
(-0.741659 0.349129 -1.70341e-17)
(-1.41405 0.599917 -1.70515e-17)
(-2.35873 1.27225 0)
(-3.25503 1.18285 0)
(-3.03285 -0.0503668 0)
(-2.59947 -1.23138 0)
(-2.35593 -2.0843 0)
(-2.40904 -2.07402 1.66865e-17)
(-2.48691 -1.19593 0)
(-3.05439 0.104998 -1.68931e-17)
(-4.58501 0.943397 0)
(-6.01165 0.871161 0)
(-7.09512 0.651604 1.61847e-17)
(-8.01248 0.470478 0)
(-8.73174 0.307745 -1.58738e-17)
(-9.31938 0.151081 0)
(-9.76038 0.004114 0)
(-10.0547 -0.102073 0)
(-10.2412 -0.215282 1.53586e-17)
(-10.3466 -0.312533 0)
(-10.3758 -0.402423 0)
(-10.3442 -0.469752 1.50097e-17)
(-10.2198 -0.539733 0)
(-10.0504 -0.61076 1.47868e-17)
(-9.83722 -0.67202 0)
(-9.58448 -0.724113 0)
(-9.30444 -0.767378 0)
(-8.99371 -0.816943 -1.43578e-17)
(-8.65103 -0.863786 0)
(-8.29408 -0.903837 0)
(-7.9254 -0.954368 -1.40425e-17)
(-7.55904 -0.977926 -1.39393e-17)
(-7.1828 -0.997559 0)
(-6.78856 -1.03206 -1.3734e-17)
(-6.39937 -1.04698 0)
(-6.008 -1.06718 -2.70633e-17)
(-5.61479 -1.08736 0)
(-5.18318 -1.11952 -2.66534e-17)
(-4.77645 -1.14259 0)
(-4.38732 -1.14749 2.62567e-17)
(-3.98401 -1.15514 0)
(-3.61955 -1.17887 0)
(-3.21194 -1.18409 0)
(-2.85365 -1.19137 -2.54695e-17)
(-2.50826 -1.19003 0)
(-2.15563 -1.20214 2.50855e-17)
(-1.86241 -1.18719 0)
(-1.58595 -1.18191 -2.47093e-17)
(-1.32835 -1.18237 -2.45215e-17)
(-1.11927 -1.16971 -2.43365e-17)
(-0.925861 -1.1654 0)
(-0.78577 -1.13917 0)
(-0.667431 -1.13589 0)
(-0.573632 -1.11554 0)
(-0.513291 -1.10194 0)
(-0.480012 -1.09338 0)
(-0.498187 -1.08004 0)
(-0.53819 -1.06235 0)
(-0.577891 -1.03281 2.3131e-17)
(-0.626666 -0.979603 2.30346e-17)
(-0.784496 -0.924364 0)
(-1.13713 -0.850132 0)
(-1.64646 -0.729879 0)
(-2.27009 -0.59401 2.26049e-17)
(-2.96929 -0.494666 0)
(-3.68288 -0.417002 0)
(-4.31964 -0.374889 0)
(-4.79515 -0.335773 0)
(-5.21983 -0.247429 -2.14383e-17)
(-5.74679 -0.164475 0)
(-6.29126 -0.09369 0)
(-6.82791 0.00197615 2.07959e-17)
(-7.21879 0.025811 -2.05899e-17)
(-7.43778 0.065286 0)
(-7.58397 0.142329 -2.02555e-17)
(-7.70049 0.254531 0)
(-7.86455 0.322718 2.01199e-17)
(-8.05681 0.422843 0)
(-8.29205 0.497973 0)
(-8.62949 0.633865 0)
(-9.11255 0.791981 0)
(-9.78996 0.890253 0)
(-10.3936 0.939057 -4.02657e-17)
(-10.7794 0.913058 -4.01878e-17)
(-10.5918 0.914517 0)
(-10.2129 0.982227 0)
(-9.46162 1.03382 0)
(-8.61645 1.202 3.86308e-17)
(-8.22165 1.50897 0)
(-8.15706 1.74979 0)
(-8.77423 1.94591 0)
(-9.70732 1.85951 3.72981e-17)
(-9.62672 1.63912 -3.72344e-17)
(-9.24767 1.64367 0)
(-8.96631 1.90378 0)
(-8.52778 1.96989 -3.66962e-17)
(-9.12179 2.19937 -3.65542e-17)
(-10.4036 2.50505 0)
(-10.3494 2.46706 0)
(-12.1214 2.70376 3.52108e-17)
(-12.1721 2.30898 -3.47025e-17)
(-12.7594 2.63284 0)
(-12.7617 2.2031 0)
(-11.477 2.21968 -3.4034e-17)
(-10.3028 2.1163 0)
(-8.89889 2.1638 0)
(-7.17714 2.18047 -3.32397e-17)
(-5.7227 2.39232 0)
(-4.48454 2.65898 -3.27341e-17)
(-3.88473 2.84254 0)
(-3.84227 2.91482 0)
(-4.23164 2.80642 0)
(-4.95331 2.64714 3.18013e-17)
(-5.38774 2.85291 0)
(-5.56962 3.14413 0)
(-6.0835 3.33239 0)
(-5.26307 2.99768 0)
(-4.78325 3.00835 0)
(-3.56578 2.87012 0)
(-3.24587 3.37364 3.04262e-17)
(-4.84053 3.89584 2.88284e-17)
(-4.24297 3.35454 0)
(-1.62799 2.88722 0)
(3.12183 2.78082 0)
(6.42112 2.88168 -2.90968e-17)
(7.80496 2.82203 0)
(9.7723 2.77448 5.71134e-17)
(11.0581 2.85477 -5.75313e-17)
(11.5187 2.73567 -5.7674e-17)
(11.8254 2.6231 5.74581e-17)
(11.5137 2.50878 -5.80283e-17)
(10.9327 2.30479 5.74104e-17)
(10.3048 2.2009 0)
(0.00561953 3.90737 0)
(0.16563 3.95939 0)
(0.296984 4.06279 -2.18607e-17)
(0.400537 3.92966 0)
(0.563529 3.65308 2.16634e-17)
(0.800856 3.35515 2.18039e-17)
(1.11717 3.13315 1.09495e-17)
(1.45212 2.97597 1.0942e-17)
(1.80264 2.87891 0)
(2.2021 2.77411 1.09073e-17)
(2.61921 2.7013 0)
(3.05959 2.64203 0)
(3.50777 2.58382 -2.16235e-17)
(3.95533 2.5201 -1.07802e-17)
(4.40863 2.46323 2.15181e-17)
(4.8491 2.47418 2.14219e-17)
(5.277 2.54397 1.0645e-17)
(5.6232 2.57666 0)
(5.93655 2.58312 0)
(6.18779 2.59281 0)
(6.41251 2.69144 1.03731e-17)
(6.57703 2.76799 0)
(6.71018 2.78363 -3.06012e-17)
(6.78044 2.88354 0)
(6.82973 2.98277 0)
(6.81361 3.08971 -9.92868e-18)
(6.7443 3.20812 0)
(6.60628 3.40997 9.74958e-18)
(6.40899 3.58115 1.93674e-17)
(6.15449 3.83202 -9.60309e-18)
(5.77059 4.07555 0)
(5.36958 4.41006 0)
(4.65618 4.53557 0)
(3.92717 4.52656 1.88707e-17)
(2.48344 4.02859 1.87867e-17)
(0.996757 2.64711 9.12725e-18)
(0.176806 1.85918 0)
(-0.505894 1.93131 -1.76457e-17)
(-0.621251 1.52197 0)
(-0.602332 0.94293 1.71029e-17)
(-0.353325 0.580649 0)
(0.18233 0.0780762 0)
(0.662862 -0.133253 -1.69699e-17)
(1.25749 -0.0139117 0)
(1.52115 0.475067 -5.06153e-17)
(1.36146 1.39114 1.6676e-17)
(0.961738 2.1866 0)
(0.623225 2.56218 1.62833e-17)
(0.0600012 2.03137 1.61284e-17)
(-0.176791 1.13421 0)
(-0.608751 0.177563 0)
(-1.27521 -0.946102 0)
(-2.87345 0.002006 0)
(-5.64132 1.73032 0)
(-8.16759 2.0131 -1.65396e-17)
(-9.8146 2.04331 -3.29011e-17)
(-10.9315 2.04406 1.627e-17)
(-11.6456 1.81521 0)
(-12.3245 1.41515 -3.18829e-17)
(-12.8299 0.989372 1.58157e-17)
(-13.2773 0.575022 0)
(-13.5777 0.173225 1.55952e-17)
(-13.8314 -0.205891 0)
(-13.9305 -0.532516 0)
(-13.9504 -0.833375 3.04688e-17)
(-13.9173 -1.11307 -1.51398e-17)
(-13.791 -1.37733 3.00184e-17)
(-13.6315 -1.5988 -2.981e-17)
(-13.3852 -1.80699 -1.48003e-17)
(-13.1149 -1.99941 0)
(-12.7761 -2.18422 -1.45818e-17)
(-12.4197 -2.34985 0)
(-12.0145 -2.50194 0)
(-11.6103 -2.63135 0)
(-11.1632 -2.77872 -1.41152e-17)
(-10.716 -2.89345 0)
(-10.252 -2.98642 -2.78199e-17)
(-9.77626 -3.09084 4.14113e-17)
(-9.28959 -3.15676 1.37034e-17)
(-8.81479 -3.22713 0)
(-8.31416 -3.31939 1.34873e-17)
(-7.8225 -3.37662 0)
(-7.34827 -3.4529 2.65383e-17)
(-6.87774 -3.51298 0)
(-6.37245 -3.56489 2.60833e-17)
(-5.89189 -3.59086 -5.15816e-17)
(-5.39276 -3.61243 -2.56219e-17)
(-4.92012 -3.67323 0)
(-4.45704 -3.72221 0)
(-3.9739 -3.73438 0)
(-3.56699 -3.72939 2.4723e-17)
(-3.11841 -3.72735 0)
(-2.72239 -3.7275 -2.4264e-17)
(-2.32787 -3.68354 0)
(-2.01291 -3.67279 7.13234e-17)
(-1.67585 -3.6598 2.3595e-17)
(-1.41592 -3.6142 2.33634e-17)
(-1.14878 -3.60312 0)
(-0.963291 -3.5307 0)
(-0.773975 -3.5262 0)
(-0.655472 -3.47162 0)
(-0.54728 -3.41634 0)
(-0.461263 -3.32937 4.4386e-17)
(-0.406688 -3.23105 4.42777e-17)
(-0.436403 -3.15827 0)
(-0.56042 -3.09339 -2.22333e-17)
(-0.781744 -2.96108 -2.22203e-17)
(-1.08958 -2.65781 0)
(-1.55464 -2.33173 -4.44625e-17)
(-2.15071 -2.05937 0)
(-2.79533 -1.83843 2.18928e-17)
(-3.48532 -1.65887 0)
(-4.15596 -1.51829 0)
(-4.69299 -1.49908 -4.26711e-17)
(-4.99376 -1.45248 0)
(-5.19929 -1.18676 2.0591e-17)
(-5.51064 -0.856149 0)
(-5.90542 -0.562631 0)
(-6.39161 -0.384406 1.96288e-17)
(-6.85787 -0.333336 1.98739e-17)
(-7.14666 -0.255725 0)
(-7.16968 -0.0744739 -1.95823e-17)
(-6.97255 0.231073 0)
(-6.68258 0.655008 1.85433e-17)
(-6.93061 0.99969 3.78202e-17)
(-7.62453 1.36694 0)
(-8.35748 1.76522 0)
(-9.01718 2.211 0)
(-9.87612 2.51578 0)
(-10.5593 2.63052 4.24389e-17)
(-10.9446 2.44401 1.2772e-16)
(-10.7976 2.27361 0)
(-10.5448 2.27728 0)
(-9.62835 2.13531 0)
(-7.96397 2.51192 -4.02957e-17)
(-6.46273 3.34099 0)
(-4.87042 3.97205 0)
(-4.48501 4.9447 6.89174e-17)
(-4.86671 5.42347 3.39681e-17)
(-5.39455 5.17624 3.47892e-17)
(-6.44502 5.38959 0)
(-7.20177 5.43533 0)
(-6.91642 6.31254 3.59411e-17)
(-8.85451 7.07817 -3.58419e-17)
(-10.8204 6.72848 0)
(-10.4065 6.86664 0)
(-12.185 7.63213 -3.3693e-17)
(-11.8095 6.34886 1.03398e-16)
(-12.4663 7.30955 0)
(-11.6476 6.03202 0)
(-11.5362 5.85585 3.44176e-17)
(-8.75459 5.45519 0)
(-7.63355 5.5231 6.79459e-17)
(-4.86448 5.57363 -3.36013e-17)
(-3.00018 5.96327 0)
(-0.97429 6.5455 3.24082e-17)
(0.371317 7.28944 6.40335e-17)
(1.30579 7.7133 0)
(1.41351 8.26323 0)
(0.265612 8.7435 -3.08617e-17)
(-1.10144 8.63824 0)
(-2.50195 8.46597 5.81785e-17)
(-3.52136 8.40464 0)
(-2.66024 7.77711 0)
(-2.2781 8.36139 0)
(-1.90385 8.36543 0)
(-3.49295 9.98729 -2.75702e-17)
(-3.8614 9.35387 -2.51713e-17)
(-3.41671 7.66277 0)
(-0.821577 5.97685 0)
(4.89553 5.67234 0)
(8.80815 7.21779 2.5977e-17)
(10.2006 7.61764 0)
(11.7718 7.10734 -5.09992e-17)
(12.9634 7.61554 5.00997e-17)
(13.0747 7.29549 5.04242e-17)
(12.8768 7.29685 4.95827e-17)
(12.1414 7.19839 5.17448e-17)
(10.4691 6.65289 4.98573e-17)
(10.0259 6.4782 0)
(0.0162276 6.3934 0)
(0.106302 6.29576 0)
(0.253839 6.36348 2.25674e-17)
(0.449678 6.17652 2.25236e-17)
(0.702819 5.79455 -2.272e-17)
(1.02433 5.40217 -2.29594e-17)
(1.35351 5.10828 2.33411e-20)
(1.67287 4.91349 0)
(1.99797 4.76991 0)
(2.34568 4.62422 0)
(2.7249 4.48052 0)
(3.13254 4.36073 0)
(3.55975 4.26859 6.81117e-17)
(3.9745 4.20835 0)
(4.38255 4.18416 -2.24792e-17)
(4.74436 4.18424 -2.23268e-17)
(5.0772 4.23962 0)
(5.33414 4.33123 0)
(5.57763 4.44614 0)
(5.74549 4.50393 0)
(5.84641 4.56444 -2.10933e-17)
(5.9606 4.66353 0)
(6.01768 4.7042 2.04897e-17)
(6.09663 4.75289 0)
(6.12238 4.82376 0)
(6.15441 4.95909 0)
(6.12432 5.08546 3.8839e-17)
(6.10911 5.22359 0)
(6.00927 5.39835 -1.89692e-17)
(5.92647 5.77342 3.76052e-17)
(5.73903 6.07165 0)
(5.64218 6.35954 0)
(5.31556 6.72562 0)
(4.96552 6.93346 -1.87073e-17)
(4.41225 6.91669 -1.87907e-17)
(3.54534 6.52259 0)
(2.30775 5.51658 0)
(0.99879 3.8998 3.55513e-17)
(0.484693 2.40406 3.4991e-17)
(-0.0337173 1.4958 -3.43419e-17)
(0.263434 0.623034 0)
(0.807481 -0.314709 0)
(1.26134 -0.650291 0)
(1.71768 -0.399589 0)
(1.56309 0.621846 3.56439e-17)
(1.36262 1.67472 3.50042e-17)
(0.685822 2.02472 -3.38045e-17)
(0.134374 2.18168 0)
(-1.01944 2.2221 0)
(-2.54733 2.4906 0)
(-4.93219 3.26075 0)
(-7.96888 4.03553 3.37006e-17)
(-9.81879 4.08988 0)
(-11.1253 3.74902 0)
(-12.1587 3.17777 3.31093e-17)
(-12.9754 2.79311 3.28832e-17)
(-13.5395 2.48829 0)
(-13.9004 2.05347 -6.49807e-17)
(-14.1374 1.50436 3.23509e-17)
(-14.2609 0.927053 -3.21911e-17)
(-14.3589 0.351883 0)
(-14.3718 -0.199233 0)
(-14.3437 -0.734782 0)
(-14.2189 -1.18817 0)
(-14.1222 -1.66598 -3.12679e-17)
(-13.9098 -2.05254 -6.20728e-17)
(-13.7138 -2.46434 -3.08795e-17)
(-13.4068 -2.82017 3.06761e-17)
(-13.1269 -3.13592 0)
(-12.7571 -3.44865 -6.04472e-17)
(-12.394 -3.72505 -6.00579e-17)
(-11.9471 -3.97192 -5.96208e-17)
(-11.5104 -4.22157 5.92482e-17)
(-11.0835 -4.44344 0)
(-10.604 -4.64739 8.77126e-17)
(-10.0896 -4.82899 0)
(-9.61416 -4.98454 -2.87471e-17)
(-9.10235 -5.14092 -2.86623e-17)
(-8.62538 -5.2547 0)
(-8.13521 -5.35278 0)
(-7.63337 -5.48273 -5.59584e-17)
(-7.14226 -5.58135 0)
(-6.63029 -5.70842 -5.51499e-17)
(-6.15901 -5.80925 0)
(-5.64632 -5.9094 5.43437e-17)
(-5.19102 -5.93748 1.0786e-16)
(-4.64669 -5.98169 0)
(-4.18531 -6.03266 0)
(-3.69566 -6.11929 0)
(-3.23491 -6.12097 5.2121e-17)
(-2.79683 -6.12815 0)
(-2.34943 -6.10009 5.11504e-17)
(-1.99199 -6.0902 0)
(-1.57611 -6.0387 0)
(-1.28229 -5.99295 -9.95066e-17)
(-0.938136 -5.9876 0)
(-0.701694 -5.87895 -4.85823e-17)
(-0.40994 -5.86614 0)
(-0.265241 -5.71173 -4.73916e-17)
(-0.0490903 -5.67847 0)
(0.0263725 -5.55122 0)
(0.152119 -5.47387 0)
(0.228107 -5.38206 -1.35438e-16)
(0.307097 -5.24921 -4.46029e-17)
(0.285042 -5.06791 0)
(0.083477 -4.79923 0)
(-0.229617 -4.5113 0)
(-0.594605 -4.14196 0)
(-1.06029 -3.71701 4.44543e-17)
(-1.68513 -3.27057 -8.86335e-17)
(-2.30723 -2.89517 -4.45083e-17)
(-2.88816 -2.58646 8.84957e-17)
(-3.58044 -2.35438 8.85821e-17)
(-4.13338 -2.37258 4.41998e-17)
(-4.48639 -2.34245 0)
(-4.80673 -1.91002 8.63044e-17)
(-4.92198 -1.34905 0)
(-5.12814 -0.827528 -8.17778e-17)
(-5.41007 -0.346102 -4.08076e-17)
(-6.09227 -0.0330641 0)
(-6.88411 0.0828046 8.80301e-17)
(-7.34103 0.180409 4.47461e-17)
(-7.33963 0.30871 0)
(-6.56892 0.952327 3.96171e-17)
(-5.57504 1.89255 -1.11639e-16)
(-5.9752 2.87007 0)
(-7.02937 3.60732 0)
(-7.803 4.16974 0)
(-8.40677 4.52072 0)
(-8.86594 4.54845 -8.78017e-17)
(-8.93661 4.26123 -8.63677e-17)
(-9.23986 4.26133 0)
(-9.73979 4.37249 0)
(-9.80215 3.66635 0)
(-8.86346 3.77311 0)
(-7.39229 4.91119 0)
(-5.53368 6.14027 0)
(-4.5193 7.80014 -7.18988e-17)
(-3.79365 8.69692 -8.25072e-20)
(-4.02614 9.2181 0)
(-5.41752 9.73835 0)
(-7.06702 9.66947 -7.13632e-17)
(-7.53024 10.8909 0)
(-8.48752 12.7332 7.20864e-17)
(-11.0878 11.8772 7.00405e-17)
(-11.5313 11.4556 0)
(-12.8891 12.3013 0)
(-11.508 11.1362 -7.59855e-17)
(-13.1146 11.8288 -1.3755e-16)
(-9.7185 10.5348 0)
(-11.9161 10.3941 0)
(-7.5559 9.39287 0)
(-7.2026 9.61614 -7.30108e-17)
(-3.88771 9.6177 7.19421e-17)
(-2.01322 10.2794 0)
(0.39962 11.095 1.38259e-16)
(1.8515 12.0656 6.77854e-17)
(2.79791 13.0015 -1.31151e-16)
(3.59607 13.5737 0)
(3.177 13.9342 0)
(2.68309 14.7669 -1.22553e-16)
(0.905281 15.0598 -5.91796e-17)
(-1.18733 14.8273 0)
(-1.42159 13.2316 0)
(-1.9233 14.0527 0)
(-0.938908 14.9233 0)
(-2.17477 16.1601 -1.03213e-16)
(-1.09684 15.8719 0)
(-1.01521 14.3026 0)
(1.07339 11.1333 0)
(5.31899 9.86657 0)
(9.48784 11.9867 0)
(11.0932 12.8535 0)
(11.5728 12.4936 -1.02507e-16)
(13.2453 13.0392 0)
(13.5518 12.2516 0)
(13.5294 12.1936 -1.84062e-16)
(12.4109 12.2428 9.63658e-17)
(10.254 10.9612 -9.143e-17)
(10.1254 10.2067 9.12159e-17)
(0.0178481 8.77372 0)
(0.0874189 8.60311 -4.74757e-17)
(0.206645 8.51396 0)
(0.428711 8.14313 -2.35055e-17)
(0.692712 7.63323 0)
(0.984097 7.1741 0)
(1.25745 6.87823 2.38585e-17)
(1.51016 6.70517 0)
(1.76744 6.52832 0)
(2.04667 6.30517 0)
(2.34579 6.10464 0)
(2.67571 5.9066 0)
(3.01546 5.7736 -9.21347e-17)
(3.32456 5.71453 -4.58229e-17)
(3.63765 5.74554 4.54703e-17)
(3.88291 5.79758 0)
(4.08939 5.89216 0)
(4.2411 5.99754 0)
(4.41108 6.12866 0)
(4.5604 6.20815 0)
(4.69318 6.26713 -4.17834e-17)
(4.85409 6.30082 -4.10573e-17)
(4.96407 6.28019 4.04248e-17)
(5.09187 6.32945 -3.99137e-17)
(5.10289 6.39163 0)
(5.15976 6.48523 0)
(5.12864 6.56494 -3.87438e-17)
(5.11714 6.71914 0)
(4.98192 6.94212 0)
(4.95312 7.13744 -3.73858e-17)
(4.86577 7.38724 -3.69987e-17)
(4.76385 7.73801 -3.6593e-17)
(4.68431 8.1101 0)
(4.49856 8.34159 0)
(4.20216 8.53537 3.6631e-17)
(3.8112 8.43391 0)
(3.10325 7.82197 0)
(2.2243 6.62287 -3.65999e-17)
(1.40394 4.97885 3.62224e-17)
(0.457439 2.88094 -3.5109e-17)
(0.494625 0.820886 0)
(0.338783 -0.502759 0)
(0.0847622 -0.463244 -7.2469e-17)
(-0.956083 0.501047 0)
(-2.138 1.91696 -7.35401e-17)
(-3.02684 3.59297 -1.04729e-16)
(-4.36428 4.70726 1.04568e-16)
(-5.87215 5.51917 -6.86267e-17)
(-7.63737 6.15131 0)
(-9.29447 6.38735 0)
(-10.7069 6.21373 -6.79246e-17)
(-11.8056 5.70716 -3.38126e-17)
(-12.5279 5.1542 0)
(-13.2038 4.57276 0)
(-13.6174 3.85606 -3.33278e-17)
(-13.9723 3.19619 -6.61601e-17)
(-14.0935 2.48695 0)
(-14.174 1.81347 6.56127e-17)
(-14.158 1.09525 -6.52931e-17)
(-14.1452 0.435454 6.48621e-17)
(-14.0681 -0.285335 0)
(-13.9752 -0.893503 0)
(-13.8457 -1.53308 0)
(-13.6683 -2.09229 0)
(-13.4758 -2.6593 0)
(-13.2524 -3.16503 6.2683e-17)
(-12.9847 -3.64197 0)
(-12.6728 -4.09401 0)
(-12.2968 -4.51091 0)
(-11.944 -4.91343 1.21904e-16)
(-11.4922 -5.28607 6.06696e-17)
(-11.0949 -5.59836 6.02041e-17)
(-10.5889 -5.92992 -1.19557e-16)
(-10.1357 -6.22491 5.92657e-17)
(-9.6123 -6.49164 -5.90408e-17)
(-9.05719 -6.73682 0)
(-8.57381 -6.91687 5.82434e-17)
(-8.03287 -7.16616 0)
(-7.50054 -7.32532 0)
(-7.0187 -7.42843 0)
(-6.46481 -7.62764 1.13216e-16)
(-6.02738 -7.73207 -5.61425e-17)
(-5.4525 -7.87741 -5.55638e-17)
(-4.98772 -8.00172 -1.1076e-16)
(-4.4033 -8.1405 -1.65341e-16)
(-3.96548 -8.22607 -5.48944e-17)
(-3.36843 -8.30372 0)
(-2.91737 -8.30996 -1.07839e-16)
(-2.32013 -8.45585 0)
(-1.918 -8.4253 -1.59923e-16)
(-1.39406 -8.44442 0)
(-0.995561 -8.41047 -1.57852e-16)
(-0.5874 -8.37338 0)
(-0.233443 -8.32688 0)
(0.0933147 -8.23558 -5.1184e-17)
(0.425488 -8.22393 0)
(0.625572 -8.08067 5.10244e-17)
(0.912897 -8.05338 1.00776e-16)
(1.00621 -7.86016 5.01076e-17)
(1.24614 -7.82568 9.89727e-17)
(1.30053 -7.63162 -9.76731e-17)
(1.43174 -7.496 -9.67178e-17)
(1.46369 -7.34748 1.91732e-16)
(1.46811 -7.09616 0)
(1.40782 -6.73533 0)
(1.28207 -6.37513 8.92539e-17)
(1.14044 -6.08099 -8.76877e-17)
(0.875789 -5.60202 0)
(0.514893 -4.95176 0)
(0.0274576 -4.37335 8.86746e-17)
(-0.315542 -3.98135 0)
(-0.760638 -3.54885 -7.19799e-19)
(-1.49272 -3.18203 -7.13228e-19)
(-1.88048 -3.25623 8.54145e-17)
(-2.43794 -3.15702 0)
(-3.37865 -2.71104 -8.84401e-17)
(-3.87458 -2.12907 0)
(-4.12253 -1.44837 8.68873e-17)
(-4.2039 -0.578968 0)
(-4.39866 0.0891015 0)
(-4.90514 0.379085 -8.91657e-17)
(-5.61651 0.423754 -9.15585e-17)
(-6.08713 0.363072 0)
(-6.68076 0.616906 -9.21064e-17)
(-5.65015 1.6623 1.66056e-16)
(-4.07907 3.11647 0)
(-3.50645 4.39978 0)
(-3.92209 5.161 0)
(-4.18296 5.56629 0)
(-4.41469 5.70664 8.22853e-17)
(-4.29687 5.55202 -1.59539e-16)
(-4.54357 5.88641 0)
(-5.03371 6.24223 0)
(-5.65631 5.36156 0)
(-7.0234 4.83506 0)
(-6.26049 5.86652 0)
(-5.66758 7.64466 0)
(-4.90211 10.0469 0)
(-3.86764 11.4144 6.87752e-17)
(-3.32012 12.6437 0)
(-4.00499 14.0215 0)
(-5.49463 14.132 7.11138e-17)
(-7.66282 14.9081 0)
(-6.74472 17.0771 0)
(-9.06481 17.1867 -6.99562e-17)
(-10.4877 16.5697 0)
(-13.2157 16.6806 0)
(-9.74369 15.0744 1.60653e-16)