/*--------------------------------*- C++ -*----------------------------------*\
| =========                 |                                                 |
| \\      /  F ield         | OpenFOAM: The Open Source CFD Toolbox           |
|  \\    /   O peration     | Version:  dev                                   |
|   \\  /    A nd           | Web:      http://www.openfoam.org               |
|    \\/     M anipulation  |                                                 |
\*---------------------------------------------------------------------------*/
FoamFile
{
    version     2.0;
    format      ascii;
    class       volVectorField;
    object      UMean;
    location    "9.119";
}
// * * * * * * * * * * * * * * * * * * * * * * * * * * * * * * * * * * * * * //

dimensions      [0 1 -1 0 0 0 0];

internalField   nonuniform List<vector> 
12225
(
(7.00366 0.430269 0)
(4.43882 0.192541 0)
(2.5568 0.0311468 0)
(2.51096 -0.0166602 0)
(1.38444 0.0193583 0)
(2.26749 -0.0342826 0)
(0.989462 0.0489783 0)
(2.18279 -0.0591807 0)
(0.797432 0.0716554 0)
(2.29202 -0.0978581 0)
(0.68864 0.0993743 0)
(2.74383 -0.138631 0)
(0.947869 0.102607 0)
(3.39686 -0.172109 0)
(3.52979 -0.168433 0)
(4.69421 0.0500991 0)
(14.8388 -2.43338 0)
(7.11607 5.1313 0)
(9.54627 0.981587 0)
(9.54344 0.860855 0)
(6.68677 0.466268 0)
(7.59064 0.214542 0)
(4.0905 0.1403 0)
(6.84354 0.0107997 0)
(2.66494 0.132639 0)
(6.68982 -0.090351 0)
(1.82245 0.141843 0)
(7.03982 -0.165073 0)
(1.26042 0.123911 0)
(8.12238 -0.41437 0)
(1.3851 0.252485 0)
(9.95469 -1.44187 0)
(3.43508 0.272476 0)
(12.3856 -4.06652 0)
(10.4248 -1.92653 0)
(7.77259 0.483345 0)
(9.1184 0.763503 0)
(12.167 0.95136 0)
(8.32937 0.623926 0)
(11.8323 0.443353 0)
(6.2258 0.31027 0)
(11.4134 0.206461 0)
(4.58222 0.221469 0)
(11.3155 -0.0195594 0)
(3.87349 0.192915 0)
(11.3773 -0.277884 0)
(4.34973 0.187262 0)
(11.254 -0.723235 0)
(5.72774 0.176238 0)
(11.0912 -1.49166 0)
(7.21422 0.0533932 0)
(12.1176 -3.86434 0)
(6.93296 0.35046 0)
(9.35268 -2.39214 0)
(7.21868 0.524989 0)
(13.9933 0.960961 0)
(7.92941 0.609419 0)
(14.2957 0.553792 0)
(7.47395 0.420856 0)
(14.1169 0.271081 0)
(7.17527 0.396636 0)
(13.739 -0.145116 0)
(7.25624 0.459517 0)
(13.2702 -0.698715 0)
(7.65865 0.576682 0)
(12.8752 -1.42263 0)
(8.26562 0.699505 0)
(12.6521 -2.31295 0)
(9.02119 0.0428481 0)
(11.8898 -3.63571 0)
(8.68436 -1.43139 0)
(8.36559 0.681227 0)
(6.42369 0.569955 0)
(14.0114 0.565839 0)
(8.47341 0.67438 0)
(13.9584 0.284459 0)
(9.16945 0.636613 0)
(13.6438 -0.0025762 0)
(9.51732 0.657765 0)
(13.214 -0.388679 0)
(9.59224 0.734289 0)
(12.8128 -0.871234 0)
(9.44552 0.87682 0)
(12.5821 -1.52117 0)
(9.14919 1.08991 0)
(12.5695 -2.48921 0)
(8.82597 1.1323 0)
(11.6152 -5.02643 0)
(8.54243 1.2671 0)
(8.72191 0.125068 0)
(7.95648 0.616885 0)
(11.803 0.152282 0)
(9.50551 0.654698 0)
(11.7392 0.0501348 0)
(10.0888 0.693899 0)
(11.6001 -0.165726 0)
(10.3211 0.725823 0)
(11.4757 -0.457551 0)
(10.3011 0.783075 0)
(11.3887 -0.853556 0)
(10.0334 0.83227 0)
(11.3541 -1.40003 0)
(9.49312 0.801875 0)
(11.4161 -2.13827 0)
(8.80201 0.727353 0)
(10.9954 -3.92033 0)
(7.73656 1.33658 0)
(9.48894 -0.219301 0)
(9.34478 0.812705 0)
(10.4381 -0.266167 0)
(10.1416 0.930441 0)
(10.553 -0.304686 0)
(10.3996 1.01996 0)
(10.581 -0.503014 0)
(10.521 1.07547 0)
(10.6244 -0.781254 0)
(10.5645 1.1535 0)
(10.6707 -1.15784 0)
(10.5168 1.23542 0)
(10.6987 -1.63579 0)
(10.3688 1.26172 0)
(10.6864 -2.32707 0)
(10.0561 1.27222 0)
(10.3749 -3.95339 0)
(8.30295 2.01882 0)
(9.69654 -0.953986 0)
(9.84997 0.701216 0)
(10.1549 -0.326271 0)
(10.4075 0.855046 0)
(10.3889 -0.350132 0)
(10.5813 0.906897 0)
(10.4697 -0.494221 0)
(10.7026 0.893044 0)
(10.5512 -0.686509 0)
(10.8064 0.872904 0)
(10.6431 -0.935502 0)
(10.8823 0.824321 0)
(10.7347 -1.23293 0)
(10.9098 0.672187 0)
(10.7532 -1.67258 0)
(10.7258 0.520663 0)
(10.4924 -2.47367 0)
(8.897 0.980155 0)
(9.96366 -0.485621 0)
(10.0867 0.802234 0)
(10.0188 -0.583712 0)
(10.5364 1.02139 0)
(10.3099 -0.604728 0)
(10.6761 1.075 0)
(10.4393 -0.725175 0)
(10.7785 1.04822 0)
(10.5702 -0.890207 0)
(10.8581 1.00371 0)
(10.7108 -1.11791 0)
(10.8996 0.921249 0)
(10.8313 -1.39499 0)
(10.875 0.734983 0)
(10.8218 -1.76072 0)
(10.6034 0.505756 0)
(10.5206 -2.06838 0)
(9.35191 0.585186 0)
(10.0231 -0.392415 0)
(10.1399 0.648677 0)
(10.0414 -0.512263 0)
(10.511 0.878114 0)
(10.3327 -0.456822 0)
(10.622 0.869329 0)
(10.4812 -0.493942 0)
(10.6983 0.778389 0)
(10.6284 -0.57243 0)
(10.7346 0.658068 0)
(10.763 -0.695614 0)
(10.7182 0.495762 0)
(10.8398 -0.845139 0)
(10.6186 0.264327 0)
(10.7651 -1.03208 0)
(10.2828 0.0703941 0)
(10.4793 -1.05256 0)
(9.62428 0.123706 0)
(10.2064 -0.0331464 0)
(10.1415 0.700008 0)
(10.0702 -0.69215 0)
(10.4529 0.902536 0)
(10.2982 -0.619167 0)
(10.5378 0.847638 0)
(10.4299 -0.645718 0)
(10.6035 0.735255 0)
(10.5604 -0.707539 0)
(10.6274 0.586751 0)
(10.6602 -0.791321 0)
(10.6093 0.383101 0)
(10.681 -0.869209 0)
(10.5271 0.117018 0)
(10.5708 -0.92184 0)
(10.292 -0.113971 0)
(10.3609 -0.764757 0)
(10.0205 -0.154653 0)
(10.2454 -0.125378 0)
(10.0971 0.468018 0)
(10.1506 -0.495415 0)
(10.3538 0.595797 0)
(10.2933 -0.374898 0)
(10.4205 0.527585 0)
(10.4093 -0.35504 0)
(10.485 0.418926 0)
(10.5238 -0.374406 0)
(10.5132 0.275772 0)
(10.5993 -0.414808 0)
(10.5158 0.0933364 0)
(10.597 -0.46167 0)
(10.4768 -0.10332 0)
(10.4996 -0.500002 0)
(10.3575 -0.232202 0)
(10.3647 -0.405535 0)
(10.2663 -0.220076 0)
(10.3739 -0.110363 0)
(10.0501 0.410924 0)
(10.1753 -0.487487 0)
(10.2549 0.437153 0)
(10.2378 -0.367678 0)
(10.3088 0.367296 0)
(10.3306 -0.345722 0)
(10.3793 0.250786 0)
(10.4246 -0.355394 0)
(10.4226 0.0994033 0)
(10.4822 -0.374922 0)
(10.4463 -0.0797797 0)
(10.4818 -0.403388 0)
(10.4331 -0.246737 0)
(10.4262 -0.431194 0)
(10.3774 -0.339279 0)
(10.3687 -0.392651 0)
(10.3573 -0.320655 0)
(10.4224 -0.276637 0)
(10.0154 0.199558 0)
(10.1907 -0.286005 0)
(10.1932 0.167255 0)
(10.2052 -0.179438 0)
(10.2293 0.131582 0)
(10.2792 -0.171482 0)
(10.3062 0.0471604 0)
(10.3626 -0.19786 0)
(10.366 -0.0587804 0)
(10.4142 -0.235781 0)
(10.4055 -0.176069 0)
(10.4267 -0.286454 0)
(10.4124 -0.275041 0)
(10.4113 -0.331673 0)
(10.3996 -0.324191 0)
(10.4067 -0.337242 0)
(10.411 -0.316103 0)
(10.4698 -0.304912 0)
(9.99665 0.0970234 0)
(10.1445 -0.186039 0)
(10.1463 0.0215444 0)
(10.1501 -0.133759 0)
(10.1622 -0.00873569 0)
(10.2089 -0.146246 0)
(10.241 -0.077059 0)
(10.2919 -0.186808 0)
(10.311 -0.159485 0)
(10.3486 -0.238032 0)
(10.3575 -0.244857 0)
(10.3791 -0.298369 0)
(10.3806 -0.316346 0)
(10.3939 -0.350136 0)
(10.396 -0.361096 0)
(10.4186 -0.380272 0)
(10.4239 -0.381138 0)
(10.4789 -0.387326 0)
(9.99373 0.0154167 0)
(10.1061 -0.0859216 0)
(10.1089 -0.0444288 0)
(10.1138 -0.0933353 0)
(10.1188 -0.0749806 0)
(10.1675 -0.119016 0)
(10.198 -0.120695 0)
(10.2519 -0.163912 0)
(10.2741 -0.180654 0)
(10.3154 -0.219232 0)
(10.3279 -0.244007 0)
(10.3598 -0.277886 0)
(10.366 -0.301408 0)
(10.394 -0.329072 0)
(10.3996 -0.347068 0)
(10.433 -0.370881 0)
(10.4357 -0.383869 0)
(10.4884 -0.397082 0)
(9.99178 0.00467047 0)
(10.0636 -0.0252648 0)
(10.0567 -0.0350184 0)
(10.0678 -0.0665643 0)
(10.0778 -0.0758108 0)
(10.128 -0.0998529 0)
(10.1573 -0.116034 0)
(10.211 -0.144789 0)
(10.2337 -0.169063 0)
(10.2782 -0.199654 0)
(10.292 -0.22665 0)
(10.3301 -0.257121 0)
(10.3384 -0.283408 0)
(10.3732 -0.312142 0)
(10.3789 -0.3369 0)
(10.4153 -0.365632 0)
(10.4147 -0.388149 0)
(10.4635 -0.407562 0)
(9.99151 0.0141059 0)
(10.0466 0.0160915 0)
(10.0398 -0.0106493 0)
(10.0575 -0.0377537 0)
(10.0748 -0.0566126 0)
(10.1254 -0.077932 0)
(10.1553 -0.0989487 0)
(10.2071 -0.123902 0)
(10.2311 -0.149074 0)
(10.2753 -0.176707 0)
(10.2911 -0.203513 0)
(10.3293 -0.23224 0)
(10.3394 -0.259452 0)
(10.3737 -0.288392 0)
(10.3801 -0.315725 0)
(10.4141 -0.345792 0)
(10.4133 -0.371651 0)
(10.4567 -0.393465 0)
(9.99162 0.0328862 0)
(10.0501 0.0496103 0)
(10.0565 0.009896 0)
(10.0798 -0.0181102 0)
(10.1006 -0.0402793 0)
(10.1506 -0.0615175 0)
(10.1818 -0.083658 0)
(10.2315 -0.10646 0)
(10.2562 -0.13061 0)
(10.2984 -0.155574 0)
(10.315 -0.181145 0)
(10.3507 -0.207394 0)
(10.3614 -0.23363 0)
(10.3926 -0.260478 0)
(10.3991 -0.287098 0)
(10.4288 -0.315351 0)
(10.4281 -0.341082 0)
(10.4653 -0.362859 0)
(9.98988 0.040676 0)
(10.0547 0.0526389 0)
(10.0827 -0.00636543 0)
(10.1167 -0.0407026 0)
(10.1419 -0.0641588 0)
(10.1903 -0.08231 0)
(10.2223 -0.102146 0)
(10.269 -0.121062 0)
(10.2935 -0.14281 0)
(10.332 -0.16406 0)
(10.3483 -0.187476 0)
(10.3801 -0.210165 0)
(10.3904 -0.234473 0)
(10.4174 -0.257987 0)
(10.4228 -0.282852 0)
(10.4473 -0.307884 0)
(10.4461 -0.33251 0)
(10.4767 -0.352905 0)
(9.99054 0.0315903 0)
(10.0685 0.0220278 0)
(10.1261 -0.0557467 0)
(10.1769 -0.096772 0)
(10.2125 -0.11981 0)
(10.2609 -0.132774 0)
(10.2937 -0.147815 0)
(10.3361 -0.161698 0)
(10.3601 -0.179883 0)
(10.3941 -0.196971 0)
(10.4103 -0.217417 0)
(10.4377 -0.236298 0)
(10.4478 -0.258049 0)
(10.4701 -0.278112 0)
(10.4753 -0.300794 0)
(10.4946 -0.322413 0)
(10.4939 -0.345263 0)
(10.5186 -0.363541 0)
(9.99115 0.00984903 0)
(10.092 -0.0297276 0)
(10.1869 -0.12087 0)
(10.2595 -0.162814 0)
(10.3093 -0.181178 0)
(10.359 -0.187212 0)
(10.3929 -0.19609 0)
(10.4304 -0.204418 0)
(10.4542 -0.218163 0)
(10.4836 -0.230801 0)
(10.5001 -0.247663 0)
(10.5232 -0.262692 0)
(10.5337 -0.2814 0)
(10.5516 -0.298086 0)
(10.5571 -0.318143 0)
(10.5718 -0.336473 0)
(10.5722 -0.357047 0)
(10.5919 -0.373178 0)
(9.9928 -0.0233417 0)
(10.1275 -0.103576 0)
(10.2671 -0.20491 0)
(10.3665 -0.241593 0)
(10.4319 -0.250819 0)
(10.4836 -0.24841 0)
(10.5183 -0.25092 0)
(10.5517 -0.253718 0)
(10.5753 -0.262995 0)
(10.6012 -0.271359 0)
(10.6181 -0.284691 0)
(10.6378 -0.296312 0)
(10.6486 -0.312125 0)
(10.6631 -0.32588 0)
(10.6691 -0.343416 0)
(10.6801 -0.35886 0)
(10.6813 -0.377169 0)
(10.6968 -0.391316 0)
(9.99054 -0.0716234 0)
(10.1744 -0.201173 0)
(10.3679 -0.305473 0)
(10.5001 -0.327883 0)
(10.5806 -0.322592 0)
(10.6344 -0.310224 0)
(10.669 -0.305605 0)
(10.6997 -0.302598 0)
(10.7227 -0.306734 0)
(10.746 -0.310615 0)
(10.7624 -0.31994 0)
(10.7794 -0.328083 0)
(10.7895 -0.340621 0)
(10.8006 -0.351398 0)
(10.8055 -0.36599 0)
(10.8123 -0.378548 0)
(10.8121 -0.394105 0)
(10.8221 -0.406058 0)
(9.99203 -0.136349 0)
(10.2447 -0.322987 0)
(10.5027 -0.418988 0)
(10.6712 -0.417621 0)
(10.7627 -0.394168 0)
(10.8175 -0.3711 0)
(10.8494 -0.35894 0)
(10.8772 -0.350586 0)
(10.896 -0.350104 0)
(10.9148 -0.3505 0)
(10.9253 -0.356392 0)
(10.9355 -0.361523 0)
(10.9374 -0.370826 0)
(10.9393 -0.378688 0)
(10.9338 -0.389886 0)
(10.929 -0.399471 0)
(10.9163 -0.411395 0)
(10.9114 -0.420541 0)
(9.98981 -0.219899 0)
(10.3369 -0.468123 0)
(10.6737 -0.539734 0)
(10.8758 -0.508226 0)
(10.9698 -0.464853 0)
(11.0135 -0.428065 0)
(11.0286 -0.404816 0)
(11.0352 -0.388395 0)
(11.029 -0.381431 0)
(11.0194 -0.376979 0)
(10.9979 -0.378194 0)
(10.9734 -0.379098 0)
(10.9376 -0.383819 0)
(10.8998 -0.387297 0)
(10.8521 -0.393666 0)
(10.804 -0.39899 0)
(10.7459 -0.40531 0)
(10.6942 -0.410082 0)
(9.98339 -0.332068 0)
(10.4677 -0.642303 0)
(10.8829 -0.667087 0)
(11.0725 -0.602629 0)
(11.103 -0.537175 0)
(11.0583 -0.483112 0)
(10.9743 -0.444975 0)
(10.8731 -0.416227 0)
(10.7577 -0.398013 0)
(10.6349 -0.383274 0)
(10.5034 -0.37489 0)
(10.3664 -0.366331 0)
(10.2239 -0.362447 0)
(10.0772 -0.356996 0)
(9.92839 -0.355853 0)
(9.77679 -0.35326 0)
(9.62559 -0.352961 0)
(9.47564 -0.351125 0)
(10.0025 -0.453685 0)
(10.619 -0.818955 0)
(10.9016 -0.752058 0)
(10.7932 -0.623744 0)
(10.4937 -0.512522 0)
(10.1376 -0.429183 0)
(9.7701 -0.373559 0)
(9.41756 -0.334724 0)
(9.07673 -0.307295 0)
(8.75537 -0.28461 0)
(8.44635 -0.267655 0)
(8.15325 -0.251331 0)
(7.87247 -0.240045 0)
(7.60288 -0.22734 0)
(7.34805 -0.221137 0)
(7.0985 -0.211821 0)
(6.87006 -0.210851 0)
(6.64061 -0.204175 0)
(10.0975 -0.750792 0)
(10.0459 -1.01319 0)
(9.42499 -0.801072 0)
(8.51449 -0.572174 0)
(7.65507 -0.378725 0)
(6.92894 -0.244891 0)
(6.32737 -0.167531 0)
(5.83164 -0.126259 0)
(5.4092 -0.104707 0)
(5.0486 -0.0923235 0)
(4.72849 -0.0849623 0)
(4.44775 -0.0793505 0)
(4.19133 -0.0758116 0)
(3.96241 -0.0718942 0)
(3.75068 -0.0721337 0)
(3.5555 -0.0690784 0)
(3.38326 -0.0802578 0)
(3.21834 -0.0828519 0)
(8.51676 -0.436054 0)
(6.11027 -0.380884 0)
(4.29837 -0.138046 0)
(3.12391 -0.021384 0)
(2.48113 0.0191324 0)
(2.12049 0.0224741 0)
(1.89624 0.0137178 0)
(1.73492 0.00461795 0)
(1.59887 -0.00156681 0)
(1.47812 -0.0047888 0)
(1.36603 -0.0064042 0)
(1.26386 -0.00672042 0)
(1.16819 -0.00670872 0)
(1.08146 -0.00639072 0)
(0.999417 -0.00665757 0)
(0.919186 -0.00703307 0)
(0.851674 -0.0186015 0)
(0.731188 -0.00613273 0)
(-0.0520696 0.138018 0)
(-0.157066 0.0713881 0)
(-0.206932 0.0163023 0)
(-0.194943 -0.0444944 0)
(-0.11753 -0.0992096 0)
(0.0128196 -0.14523 0)
(0.187026 -0.175748 1.11354e-17)
(0.388914 -0.193682 -1.10604e-17)
(0.60727 -0.198048 0)
(0.829758 -0.192766 -1.09171e-17)
(1.047 -0.178422 0)
(1.25002 -0.157654 0)
(1.43224 -0.131005 0)
(1.58839 -0.101616 1.06425e-17)
(1.71584 -0.0703277 0)
(1.81182 -0.0382047 0)
(1.87546 -0.00601055 -1.04454e-17)
(1.90747 0.0242729 0)
(1.90953 0.0507077 0)
(1.88371 0.0723599 0)
(1.83373 0.0892789 1.01959e-17)
(1.76215 0.100844 0)
(1.67287 0.108762 1.0074e-17)
(1.5676 0.111677 0)
(1.45102 0.109729 0)
(1.32586 0.10797 9.89534e-18)
(1.19237 0.111172 0)
(1.0498 0.116224 -9.77902e-18)
(0.901324 0.12144 0)
(0.747503 0.126487 9.66416e-18)
(0.589881 0.130502 0)
(0.430723 0.132976 0)
(0.272318 0.134141 0)
(0.115115 0.133985 0)
(-0.0405831 0.131178 0)
(-0.192724 0.126507 -9.32955e-18)
(-0.339651 0.120408 0)
(-0.480944 0.113949 1.84405e-17)
(-0.615145 0.107517 0)
(-0.741837 0.100322 -1.82216e-17)
(-0.859535 0.0932794 0)
(-0.968398 0.0864825 0)
(-1.06888 0.0787113 1.78885e-17)
(-1.16047 0.0703105 0)
(-1.24381 0.0625688 1.76653e-17)
(-1.31898 0.0552989 -1.75533e-17)
(-1.38542 0.0482812 0)
(-1.44402 0.042287 -1.73283e-17)
(-1.4959 0.0369876 -1.72152e-17)
(-1.53998 0.0332585 0)
(-1.57662 0.0317322 0)
(-1.60788 0.0318654 0)
(-1.63552 0.0319748 0)
(-1.66047 0.0319308 0)
(-1.68403 0.0327491 1.65283e-17)
(-1.70803 0.0341932 0)
(-1.73384 0.0362703 -1.6299e-17)
(-1.76014 0.0381702 0)
(-1.78581 0.0387764 0)
(-1.81095 0.0394272 1.59524e-17)
(-1.8363 0.0412456 0)
(-1.86377 0.0425273 -1.57211e-17)
(-1.89328 0.0442571 0)
(-1.92468 0.045808 0)
(-1.95751 0.0466958 0)
(-1.99115 0.047889 1.52556e-17)
(-2.02526 0.049691 0)
(-2.06011 0.0518731 0)
(-2.09547 0.0542504 1.4906e-17)
(-2.13163 0.0556971 0)
(-2.1656 0.0559092 1.46713e-17)
(-2.19647 0.0562816 0)
(-2.22411 0.0564508 0)
(-2.24749 0.0562804 0)
(-2.26565 0.0556793 -1.42052e-17)
(-2.27788 0.0544582 0)
(-2.28489 0.0537583 0)
(-2.28861 0.0537166 -1.38614e-17)
(-2.28946 0.0527689 -1.3748e-17)
(-2.28572 0.051134 0)
(-2.27559 0.0488883 -1.35228e-17)
(-2.25896 0.0459984 0)
(-2.23546 0.0428894 -2.66026e-17)
(-2.20509 0.0394865 0)
(-2.16837 0.0358265 -2.61673e-17)
(-2.12511 0.0327439 0)
(-2.07634 0.0303102 2.57385e-17)
(-2.02288 0.028315 0)
(-1.96477 0.0268341 0)
(-1.90269 0.0258066 0)
(-1.83816 0.0251904 -2.49015e-17)
(-1.77096 0.0249044 0)
(-1.7027 0.0248584 2.44998e-17)
(-1.63349 0.0254961 0)
(-1.56411 0.0266147 -2.41104e-17)
(-1.49649 0.0291779 -2.39219e-17)
(-1.42972 0.0303274 -2.37376e-17)
(-1.3629 0.0314248 0)
(-1.29788 0.0314679 0)
(-1.2334 0.0326448 0)
(-1.16759 0.0333681 0)
(-1.10269 0.0329148 0)
(-1.0327 0.0317843 0)
(-0.964045 0.0332417 0)
(-0.892993 0.0328669 0)
(-0.826272 0.0354262 2.22133e-17)
(-0.758804 0.0357746 2.20612e-17)
(-0.69646 0.040208 0)
(-0.635755 0.0414024 0)
(-0.580467 0.0412177 0)
(-0.513292 0.0384956 2.14805e-17)
(-0.451321 0.0426801 0)
(-0.382981 0.0409574 0)
(-0.318449 0.043813 0)
(-0.248137 0.0408385 0)
(-0.175963 0.0433831 -2.0806e-17)
(-0.101901 0.0450993 0)
(-0.0225043 0.0441208 0)
(0.061761 0.0454628 2.04289e-17)
(0.149784 0.0451783 -2.03074e-17)
(0.241569 0.0443787 0)
(0.338086 0.0481977 -2.00747e-17)
(0.430084 0.0510951 0)
(0.523286 0.0542474 1.98481e-17)
(0.606386 0.0590131 0)
(0.678259 0.0619826 0)
(0.754184 0.0622949 0)
(0.823899 0.0630628 0)
(0.903947 0.0602674 0)
(0.977655 0.0608913 -3.8396e-17)
(1.05367 0.0626239 -3.8177e-17)
(1.11321 0.0676746 0)
(1.16385 0.0663132 0)
(1.20876 0.0674953 0)
(1.24709 0.0633766 3.72524e-17)
(1.29569 0.0588924 0)
(1.34589 0.0571452 0)
(1.39134 0.0560088 0)
(1.43999 0.054183 3.62326e-17)
(1.47685 0.0568193 -3.59643e-17)
(1.51994 0.0527367 0)
(1.55882 0.0527207 0)
(1.60043 0.0531719 -3.51497e-17)
(1.6264 0.0582903 -3.48769e-17)
(1.65645 0.054977 0)
(1.68475 0.0587324 0)
(1.72398 0.0557108 3.4044e-17)
(1.76049 0.0659231 -3.37646e-17)
(1.76896 0.0713199 0)
(1.78287 0.0706722 0)
(1.80849 0.0710215 -3.29278e-17)
(1.84224 0.0757155 0)
(1.85621 0.0833168 0)
(1.86808 0.0890345 -3.20837e-17)
(1.86784 0.093141 0)
(1.88241 0.0979899 -3.15237e-17)
(1.88473 0.105017 0)
(1.89054 0.109176 0)
(1.87782 0.120785 0)
(1.8648 0.126639 3.0434e-17)
(1.85011 0.133078 0)
(1.81834 0.143029 0)
(1.74584 0.154773 0)
(1.66905 0.154774 0)
(1.60283 0.157126 0)
(1.51217 0.165908 0)
(1.38331 0.172618 2.88921e-17)
(1.26447 0.173846 2.87381e-17)
(1.08038 0.181894 0)
(0.873064 0.184636 0)
(0.629374 0.18359 0)
(0.41342 0.169794 -2.83209e-17)
(0.191229 0.162838 0)
(0.0388478 0.146636 5.63471e-17)
(-0.162387 0.144026 -5.62376e-17)
(-0.265636 0.123649 -5.60583e-17)
(-0.426973 0.126782 5.59544e-17)
(-0.462065 0.0966356 -5.57518e-17)
(-0.619741 0.129169 5.57321e-17)
(-0.566682 -0.00414235 0)
(0.0101599 0.248861 0)
(0.0147339 0.191874 0)
(0.0499618 0.00740351 -2.27963e-17)
(0.121507 -0.198784 0)
(0.236637 -0.384796 2.23645e-17)
(0.389151 -0.536202 2.22177e-17)
(0.570458 -0.645057 1.10433e-17)
(0.77045 -0.710945 1.09808e-17)
(0.977806 -0.737515 0)
(1.18199 -0.731175 1.08537e-17)
(1.37435 -0.695245 0)
(1.54763 -0.636838 0)
(1.69784 -0.56209 -2.1319e-17)
(1.82026 -0.477543 -1.05943e-17)
(1.91484 -0.385571 2.10545e-17)
(1.97977 -0.291016 2.09211e-17)
(2.01645 -0.198652 1.03949e-17)
(2.02495 -0.110561 0)
(2.00771 -0.0275239 0)
(1.96471 0.0472107 0)
(1.89982 0.112663 1.01361e-17)
(1.81311 0.171702 0)
(1.70926 0.224513 -3.00358e-17)
(1.58706 0.267242 0)
(1.44884 0.302107 0)
(1.29508 0.332584 -9.83143e-18)
(1.12928 0.356501 0)
(0.954205 0.373735 9.71513e-18)
(0.773701 0.384753 1.93119e-17)
(0.588646 0.392016 -9.59719e-18)
(0.401845 0.394113 0)
(0.214529 0.390308 0)
(0.0264181 0.383037 0)
(-0.162043 0.376088 1.87305e-17)
(-0.349028 0.367526 1.86161e-17)
(-0.533235 0.355342 9.25108e-18)
(-0.711969 0.340715 0)
(-0.885762 0.323719 -1.8276e-17)
(-1.05067 0.303243 0)
(-1.20899 0.281433 1.80507e-17)
(-1.35906 0.259029 0)
(-1.50263 0.236304 0)
(-1.63812 0.215988 -1.77168e-17)
(-1.76646 0.196933 0)
(-1.89007 0.179008 -5.24869e-17)
(-2.00804 0.160186 1.73858e-17)
(-2.11935 0.141212 0)
(-2.22378 0.124343 1.71657e-17)
(-2.32201 0.106767 1.70555e-17)
(-2.41297 0.0874456 0)
(-2.49499 0.0690566 0)
(-2.56983 0.0548952 0)
(-2.63915 0.0452089 0)
(-2.70492 0.0397021 0)
(-2.76659 0.0377878 -1.63738e-17)
(-2.82626 0.036811 -3.25153e-17)
(-2.88429 0.0364879 1.61415e-17)
(-2.93781 0.0335868 0)
(-2.98892 0.0294644 -3.18131e-17)
(-3.03782 0.0280752 1.57875e-17)
(-3.08385 0.0290868 0)
(-3.13089 0.0300715 1.555e-17)
(-3.17572 0.0328485 0)
(-3.2186 0.034373 0)
(-3.25991 0.0340313 3.03757e-17)
(-3.3003 0.0335 -1.50675e-17)
(-3.33625 0.0315479 2.98922e-17)
(-3.36977 0.0288873 -2.96509e-17)
(-3.39734 0.025278 -1.47048e-17)
(-3.42178 0.0204922 0)
(-3.43984 0.0129092 -1.4463e-17)
(-3.45117 0.00267831 0)
(-3.45681 -0.0080988 0)
(-3.45398 -0.0206535 0)
(-3.44194 -0.0349319 -1.39832e-17)
(-3.42161 -0.0489639 0)
(-3.39476 -0.0590938 -2.74955e-17)
(-3.36212 -0.0662018 4.08948e-17)
(-3.32414 -0.0746936 1.35165e-17)
(-3.27984 -0.0857006 0)
(-3.22768 -0.0983399 1.3288e-17)
(-3.17028 -0.110905 0)
(-3.1073 -0.122835 2.61246e-17)
(-3.03919 -0.133727 0)
(-2.96616 -0.144121 2.56816e-17)
(-2.8881 -0.153427 -5.09234e-17)
(-2.80617 -0.162298 -2.52479e-17)
(-2.7219 -0.170295 0)
(-2.63258 -0.177916 0)
(-2.54105 -0.183637 0)
(-2.44725 -0.187848 2.44078e-17)
(-2.35015 -0.191922 0)
(-2.25181 -0.194574 -2.40015e-17)
(-2.15348 -0.194875 0)
(-2.0546 -0.196387 7.08234e-17)
(-1.95589 -0.195629 2.34177e-17)
(-1.85657 -0.19656 2.32317e-17)
(-1.75946 -0.193658 0)
(-1.66472 -0.193165 0)
(-1.56941 -0.194224 0)
(-1.47145 -0.195006 0)
(-1.37472 -0.197378 0)
(-1.27199 -0.201749 4.43235e-17)
(-1.17602 -0.199616 4.39872e-17)
(-1.07613 -0.199845 0)
(-0.989199 -0.194017 -2.16756e-17)
(-0.892585 -0.195388 -2.15236e-17)
(-0.806018 -0.18825 0)
(-0.711361 -0.187087 -4.24442e-17)
(-0.633867 -0.185887 0)
(-0.538041 -0.196352 2.09377e-17)
(-0.452806 -0.190339 0)
(-0.347662 -0.198633 0)
(-0.253553 -0.195334 -4.10579e-17)
(-0.140982 -0.203802 0)
(-0.0374268 -0.203776 2.02724e-17)
(0.0871223 -0.211258 0)
(0.212695 -0.219098 0)
(0.348365 -0.223593 1.98872e-17)
(0.48855 -0.228777 1.9771e-17)
(0.634143 -0.234783 0)
(0.783572 -0.235683 -1.95337e-17)
(0.943606 -0.237119 0)
(1.10306 -0.229293 1.92967e-17)
(1.26876 -0.219505 3.83628e-17)
(1.41669 -0.213164 0)
(1.57412 -0.214193 0)
(1.71916 -0.21417 0)
(1.87899 -0.215548 0)
(2.02544 -0.210454 3.72298e-17)
(2.17988 -0.207156 1.11005e-16)
(2.31548 -0.187732 0)
(2.43989 -0.183382 0)
(2.5581 -0.172952 0)
(2.66493 -0.175391 -3.60795e-17)
(2.76662 -0.179427 0)
(2.8697 -0.179119 0)
(2.96423 -0.177139 7.06155e-17)
(3.05909 -0.176326 3.5034e-17)
(3.13204 -0.170231 3.47647e-17)
(3.21994 -0.179616 0)
(3.28333 -0.173625 0)
(3.35194 -0.175068 3.39207e-17)
(3.39787 -0.164099 -3.36151e-17)
(3.44428 -0.178252 0)
(3.47351 -0.174926 0)
(3.50828 -0.191145 -3.27227e-17)
(3.53654 -0.173312 9.71917e-17)
(3.55142 -0.16909 0)
(3.56254 -0.180054 0)
(3.57423 -0.191731 3.14611e-17)
(3.59535 -0.189737 0)
(3.5915 -0.183128 6.16283e-17)
(3.59011 -0.181397 -3.04729e-17)
(3.5632 -0.185624 0)
(3.55957 -0.194557 2.98467e-17)
(3.53541 -0.190897 5.90581e-17)
(3.52398 -0.192357 0)
(3.47737 -0.185669 0)
(3.45408 -0.194681 -2.85751e-17)
(3.41385 -0.186601 0)
(3.3569 -0.169165 5.58877e-17)
(3.25961 -0.149896 0)
(3.16784 -0.154878 0)
(3.04738 -0.146172 0)
(2.91839 -0.121218 0)
(2.72267 -0.102354 -2.66524e-17)
(2.56397 -0.0758311 -2.64632e-17)
(2.27944 -0.0261238 0)
(2.00595 -0.00115518 0)
(1.6755 0.02308 0)
(1.38021 0.0189725 2.59582e-17)
(1.04628 0.0236394 0)
(0.838311 0.0145422 -5.16688e-17)
(0.516552 0.0334563 5.16422e-17)
(0.40143 0.00112481 5.14937e-17)
(0.120135 0.0319998 5.14848e-17)
(0.120451 -0.0159473 5.13312e-17)
(-0.176207 0.0786663 5.14957e-17)
(0.0116573 -0.11775 0)
(0.0290701 0.0708564 0)
(0.121277 -0.0388614 0)
(0.228428 -0.242275 2.2913e-17)
(0.340698 -0.469275 2.26644e-17)
(0.475312 -0.693867 -2.25128e-17)
(0.619588 -0.875682 -2.23998e-17)
(0.773902 -1.00418 -1.48256e-21)
(0.925232 -1.07428 0)
(1.07033 -1.08491 0)
(1.19707 -1.04563 0)
(1.30579 -0.965744 0)
(1.39169 -0.856447 0)
(1.45721 -0.725917 6.4709e-17)
(1.49785 -0.585644 0)
(1.51642 -0.440764 -2.1304e-17)
(1.51113 -0.294296 -2.11678e-17)
(1.48489 -0.152882 0)
(1.43625 -0.0194118 0)
(1.36988 0.104417 0)
(1.28548 0.216853 0)
(1.18538 0.316172 -2.05019e-17)
(1.07038 0.399182 0)
(0.945495 0.471542 2.0248e-17)
(0.807992 0.536676 0)
(0.660764 0.591531 0)
(0.505154 0.636435 0)
(0.346612 0.672363 3.95243e-17)
(0.184095 0.699529 0)
(0.020143 0.718906 -1.9522e-17)
(-0.14482 0.729251 3.87994e-17)
(-0.309051 0.732366 0)
(-0.475581 0.734053 0)
(-0.642292 0.731026 0)
(-0.807841 0.721487 -1.89163e-17)
(-0.969766 0.706214 -1.87955e-17)
(-1.12848 0.684708 0)
(-1.28239 0.657423 0)
(-1.43071 0.625981 3.68586e-17)
(-1.57205 0.592039 3.66191e-17)
(-1.71168 0.557806 -3.63809e-17)
(-1.84628 0.525195 0)
(-1.97915 0.491822 0)
(-2.10635 0.459793 0)
(-2.22989 0.430538 0)
(-2.3492 0.4029 3.52005e-17)
(-2.46253 0.373666 3.49667e-17)
(-2.57066 0.344033 -3.47347e-17)
(-2.67333 0.315597 0)
(-2.76987 0.287727 0)
(-2.86134 0.259332 0)
(-2.94729 0.232945 0)
(-3.03268 0.214544 3.35754e-17)
(-3.11213 0.197958 0)
(-3.18672 0.184264 0)
(-3.25469 0.175946 3.2878e-17)
(-3.31801 0.170298 3.26464e-17)
(-3.37589 0.162983 0)
(-3.42613 0.153265 -6.43598e-17)
(-3.47433 0.14611 3.19486e-17)
(-3.51852 0.139557 -3.17143e-17)
(-3.55689 0.135787 0)
(-3.59235 0.133165 0)
(-3.62175 0.1291 0)
(-3.64625 0.125043 0)
(-3.66824 0.120026 -3.05527e-17)
(-3.686 0.112844 -6.06462e-17)
(-3.69756 0.105084 -3.00974e-17)
(-3.70543 0.0967996 2.98725e-17)
(-3.7061 0.0853154 0)
(-3.70171 0.0721375 -5.88394e-17)
(-3.68935 0.056067 -5.8391e-17)
(-3.67175 0.0398516 -5.79461e-17)
(-3.64994 0.0219815 5.75043e-17)
(-3.6193 -0.000420322 0)
(-3.58172 -0.0232312 8.49411e-17)
(-3.53824 -0.0427619 0)
(-3.49 -0.0581816 -2.78774e-17)
(-3.43319 -0.0719137 -2.76645e-17)
(-3.3684 -0.0874931 0)
(-3.29738 -0.104228 0)
(-3.22286 -0.120833 -5.40405e-17)
(-3.14613 -0.135509 0)
(-3.06543 -0.149547 -5.31933e-17)
(-2.98218 -0.163023 0)
(-2.89436 -0.177243 5.23544e-17)
(-2.80308 -0.188499 1.03881e-16)
(-2.70816 -0.19816 0)
(-2.61247 -0.20736 0)
(-2.51376 -0.214921 0)
(-2.41634 -0.221279 5.02911e-17)
(-2.31712 -0.227187 0)
(-2.21458 -0.231975 4.94695e-17)
(-2.10915 -0.235294 0)
(-2.00325 -0.234467 0)
(-1.8949 -0.234494 -9.65061e-17)
(-1.78947 -0.231944 0)
(-1.682 -0.231348 -4.74619e-17)
(-1.57893 -0.225204 0)
(-1.47147 -0.226024 -4.66942e-17)
(-1.36501 -0.225375 0)
(-1.25607 -0.224583 0)
(-1.14889 -0.228318 0)
(-1.03824 -0.230875 -1.35694e-16)
(-0.938445 -0.222162 -4.48697e-17)
(-0.82891 -0.219131 0)
(-0.736302 -0.208243 0)
(-0.634387 -0.21013 0)
(-0.54971 -0.197205 0)
(-0.445479 -0.193383 4.32354e-17)
(-0.360421 -0.187414 -8.58346e-17)
(-0.25394 -0.204518 -4.26322e-17)
(-0.167262 -0.19679 8.46565e-17)
(-0.0478275 -0.212736 8.40935e-17)
(0.0535352 -0.208961 4.1761e-17)
(0.183089 -0.223821 0)
(0.295401 -0.224382 8.23971e-17)
(0.433839 -0.240044 0)
(0.565429 -0.249459 -8.12865e-17)
(0.71347 -0.256438 -4.03849e-17)
(0.859414 -0.261814 0)
(1.01433 -0.270569 7.97644e-17)
(1.16326 -0.273856 3.96291e-17)
(1.32546 -0.282261 0)
(1.48388 -0.280725 3.90907e-17)
(1.65821 -0.269987 -1.1651e-16)
(1.8173 -0.257765 0)
(1.98203 -0.256678 0)
(2.13384 -0.25616 0)
(2.29411 -0.259177 0)
(2.45014 -0.254388 -7.51538e-17)
(2.60619 -0.251241 -7.46555e-17)
(2.75661 -0.219874 0)
(2.89552 -0.214626 0)
(3.02482 -0.201926 0)
(3.14884 -0.200788 0)
(3.25342 -0.205224 0)
(3.37608 -0.208891 0)
(3.48742 -0.207414 -7.09533e-17)
(3.60302 -0.205133 -1.65097e-20)
(3.69501 -0.195736 0)
(3.8065 -0.209207 0)
(3.89379 -0.196671 -6.86085e-17)
(3.98777 -0.197546 0)
(4.06579 -0.176684 6.74276e-17)
(4.13645 -0.187707 6.68107e-17)
(4.17776 -0.170367 0)
(4.23277 -0.189023 0)
(4.27122 -0.165024 -6.49018e-17)
(4.32183 -0.15642 -1.28515e-16)
(4.34978 -0.160782 0)
(4.38331 -0.172866 0)
(4.42536 -0.164014 0)
(4.439 -0.149496 -6.16923e-17)
(4.46827 -0.136449 6.10044e-17)
(4.46778 -0.135938 0)
(4.48791 -0.141974 1.19373e-16)
(4.47147 -0.129859 5.90317e-17)
(4.48866 -0.128228 -1.1677e-16)
(4.46604 -0.109894 0)
(4.46542 -0.116988 0)
(4.43477 -0.095607 -1.12751e-16)
(4.39465 -0.0676747 -5.57153e-17)
(4.31034 -0.0380814 0)
(4.24697 -0.0356543 0)
(4.11389 -0.0169748 0)
(4.0037 0.0256252 0)
(3.7908 0.0529111 -1.05585e-16)
(3.62228 0.0958027 0)
(3.32389 0.16741 0)
(3.06505 0.192423 0)
(2.71408 0.22026 0)
(2.39971 0.203164 0)
(2.00997 0.18764 0)
(1.77226 0.154565 -1.00632e-16)
(1.36585 0.151918 0)
(1.23633 0.0830969 0)
(0.851753 0.105323 -1.99416e-16)
(0.847224 0.0226782 9.92457e-17)
(0.461336 0.111135 -9.94029e-17)
(0.657731 -0.129205 9.87819e-17)
(0.0206195 -0.0945516 0)
(0.125092 -0.27015 -4.69562e-17)
(0.247934 -0.490969 0)
(0.375956 -0.756587 -2.27968e-17)
(0.502633 -1.00015 0)
(0.618697 -1.18875 0)
(0.723168 -1.30598 2.24449e-17)
(0.803615 -1.34885 0)
(0.866275 -1.31876 0)
(0.905302 -1.23284 0)
(0.927194 -1.11002 0)
(0.929777 -0.960758 0)
(0.917924 -0.793608 -8.66124e-17)
(0.889017 -0.616462 -4.30235e-17)
(0.846538 -0.43373 4.27442e-17)
(0.790193 -0.252708 0)
(0.722026 -0.0800649 0)
(0.640659 0.0812837 0)
(0.549559 0.229956 0)
(0.448207 0.363268 0)
(0.339381 0.480818 -4.11499e-17)
(0.221263 0.582724 -4.08974e-17)
(0.0951746 0.673539 4.06483e-17)
(-0.0367199 0.74967 -4.04007e-17)
(-0.172766 0.812513 0)
(-0.311585 0.860657 0)
(-0.451924 0.89672 -3.96576e-17)
(-0.592633 0.921449 0)
(-0.734266 0.9356 0)
(-0.876451 0.944231 -3.89247e-17)
(-1.01924 0.949731 -3.86815e-17)
(-1.15988 0.947448 -3.84371e-17)
(-1.29745 0.93838 0)
(-1.4318 0.923091 0)
(-1.5616 0.901649 3.76936e-17)
(-1.68641 0.87203 0)
(-1.80734 0.836558 0)
(-1.92464 0.797163 -3.69486e-17)
(-2.03899 0.759293 3.6697e-17)
(-2.15177 0.721349 -3.64483e-17)
(-2.25815 0.68281 0)
(-2.36289 0.643638 0)
(-2.46357 0.607498 -7.1419e-17)
(-2.5614 0.57336 0)
(-2.65388 0.535276 -7.04532e-17)
(-2.74281 0.497125 -1.04963e-16)
(-2.82808 0.461352 1.04242e-16)
(-2.908 0.425083 -6.90146e-17)
(-2.98474 0.388043 0)
(-3.05885 0.352615 0)
(-3.13199 0.323984 -6.7602e-17)
(-3.20245 0.29907 -3.35706e-17)
(-3.26676 0.273099 0)
(-3.32689 0.251562 0)
(-3.38246 0.235737 -3.28784e-17)
(-3.43262 0.218366 -6.5297e-17)
(-3.47654 0.198971 0)
(-3.51448 0.180632 6.43791e-17)
(-3.54852 0.165915 -6.39199e-17)
(-3.57718 0.152165 6.34641e-17)
(-3.60002 0.138267 0)
(-3.61662 0.125033 0)
(-3.62877 0.113939 0)
(-3.63557 0.102898 0)
(-3.63873 0.0929651 0)
(-3.63649 0.0773508 6.07737e-17)
(-3.62992 0.0603383 0)
(-3.61668 0.0417799 0)
(-3.59763 0.020801 0)
(-3.5745 -0.0011206 1.18046e-16)
(-3.54586 -0.0250772 5.8591e-17)
(-3.51253 -0.0491005 5.81576e-17)
(-3.47425 -0.0761515 -1.15457e-16)
(-3.42961 -0.107668 5.73037e-17)
(-3.38158 -0.137847 -5.68843e-17)
(-3.32732 -0.165441 0)
(-3.26814 -0.191391 5.60372e-17)
(-3.19901 -0.218079 0)
(-3.12572 -0.243365 0)
(-3.04679 -0.265308 0)
(-2.96635 -0.286051 1.08718e-16)
(-2.88375 -0.305061 -5.39457e-17)
(-2.79784 -0.323955 -5.35322e-17)
(-2.71065 -0.342685 -1.06269e-16)
(-2.61948 -0.362424 -1.58214e-16)
(-2.52741 -0.378116 -5.23427e-17)
(-2.43062 -0.3909 0)
(-2.33425 -0.402342 -1.03069e-16)
(-2.2364 -0.410471 0)
(-2.13861 -0.416975 -1.52204e-16)
(-2.04009 -0.427043 0)
(-1.9427 -0.433563 -1.49832e-16)
(-1.83917 -0.439955 0)
(-1.73516 -0.440623 0)
(-1.62619 -0.442146 -4.87469e-17)
(-1.51889 -0.438771 0)
(-1.40809 -0.438296 4.7972e-17)
(-1.30226 -0.433529 9.51556e-17)
(-1.18844 -0.435339 4.72032e-17)
(-1.07885 -0.43729 9.3649e-17)
(-0.960438 -0.437967 -9.28921e-17)