/*--------------------------------*- C++ -*----------------------------------*\
| =========                 |                                                 |
| \\      /  F ield         | OpenFOAM: The Open Source CFD Toolbox           |
|  \\    /   O peration     | Version:  dev                                   |
|   \\  /    A nd           | Web:      http://www.openfoam.org               |
|    \\/     M anipulation  |                                                 |
\*---------------------------------------------------------------------------*/
FoamFile
{
    version     2.0;
    format      ascii;
    class       volSymmTensorField;
    object      UPrime2Mean;
    location    "9.119";
}
// * * * * * * * * * * * * * * * * * * * * * * * * * * * * * * * * * * * * * //

dimensions      [0 2 -2 0 0 0 0];

internalField   nonuniform List<symmTensor> 
12225
(
(0.329251 0.0192803 0 0.0692871 0 0)
(2.98588 0.0797201 0 0.0782116 0 0)
(7.87938 0.112359 0 0.0769142 0 0)
(14.5322 0.148285 0 0.0755885 0 0)
(22.6992 0.133102 0 0.0765341 0 0)
(32.0611 0.201177 0 0.0746875 0 0)
(42.3713 0.0961298 0 0.0766287 0 0)
(53.5117 0.200564 0 0.0738662 0 0)
(65.6025 -0.0281554 0 0.0776257 0 0)
(78.195 0.12594 0 0.0736332 0 0)
(92.9378 -0.305791 0 0.0813233 0 0)
(107.274 -0.115298 0 0.0770022 0 0)
(127.877 -0.671677 0 0.0863195 0 0)
(145.581 -1.27667 0 0.134715 0 0)
(185.88 -1.40895 0 0.11641 0 0)
(198.468 -0.392838 0 2.39229 0 0)
(272.23 -33.5274 0 5.80766 0 0)
(575.659 -52.8938 0 18.8099 0 0)
(0.377396 0.0568396 0 0.689188 0 0)
(3.15568 0.252312 0 0.732491 0 0)
(8.40961 0.362242 0 0.714342 0 0)
(15.4705 0.485556 0 0.706833 0 0)
(24.1928 0.453327 0 0.703696 0 0)
(34.4482 0.633092 0 0.683518 0 0)
(45.5136 0.29663 0 0.692316 0 0)
(58.4628 0.609634 0 0.658982 0 0)
(71.4514 -0.134215 0 0.682823 0 0)
(87.1167 0.283762 0 0.646162 0 0)
(102.748 -1.06347 0 0.711417 0 0)
(121.38 -0.764157 0 0.655631 0 0)
(142.796 -2.54077 0 1.06875 0 0)
(166.262 -4.48903 0 1.0468 0 0)
(199.688 -0.927297 0 3.0994 0 0)
(274.293 -9.97719 0 6.60143 0 0)
(280.96 -20.8244 0 8.73772 0 0)
(799.575 -185.111 0 64.6849 0 0)
(0.505057 0.0584248 0 2.14128 0 0)
(3.06375 0.424783 0 2.2032 0 0)
(8.46484 0.570721 0 2.1521 0 0)
(14.8498 0.852268 0 2.14359 0 0)
(24.2712 0.86512 0 2.12048 0 0)
(33.1423 1.05371 0 2.08327 0 0)
(45.2609 0.757346 0 2.07901 0 0)
(56.1853 0.887513 0 2.00822 0 0)
(69.668 0.174005 0 2.05232 0 0)
(83.4193 0.0190568 0 1.95998 0 0)
(98.1568 -1.12046 0 2.1231 0 0)
(115.62 -2.4442 0 2.09494 0 0)
(138.573 -3.59235 0 2.62244 0 0)
(154.821 -7.19373 0 2.831 0 0)
(210.929 -13.0008 0 6.11683 0 0)
(223.311 -7.89136 0 6.37151 0 0)
(352.89 -62.2309 0 31.071 0 0)
(534.313 -192.376 0 98.1662 0 0)
(1.03015 0.0924568 0 4.67196 0 0)
(3.54972 0.6198 0 4.76857 0 0)
(9.06851 0.816166 0 4.6443 0 0)
(15.0642 1.15061 0 4.60359 0 0)
(24.6325 1.31381 0 4.55925 0 0)
(32.9768 1.351 0 4.48495 0 0)
(44.9955 1.26306 0 4.4499 0 0)
(55.1537 0.975305 0 4.35138 0 0)
(68.5824 0.478501 0 4.38304 0 0)
(80.6899 -0.279774 0 4.25936 0 0)
(96.0077 -1.32687 0 4.50844 0 0)
(110.479 -3.33707 0 4.37356 0 0)
(131.434 -4.78876 0 5.30206 0 0)
(152.195 -10.9623 0 5.60757 0 0)
(187.808 -11.4255 0 9.28241 0 0)
(238.299 -28.8446 0 16.8192 0 0)
(291.323 -58.8793 0 32.6663 0 0)
(414.673 -178.211 0 107.765 0 0)
(1.86429 0.365186 0 8.52548 0 0)
(5.00977 0.720598 0 8.72704 0 0)
(9.43517 1.14062 0 8.47577 0 0)
(16.2398 1.29542 0 8.37269 0 0)
(24.6429 1.70199 0 8.28299 0 0)
(33.9397 1.50381 0 8.14798 0 0)
(44.8077 1.59991 0 8.04716 0 0)
(55.5084 0.995153 0 7.91511 0 0)
(68.3942 0.603785 0 7.86193 0 0)
(80.0982 -0.590256 0 7.764 0 0)
(95.3406 -1.77387 0 7.96526 0 0)
(108.523 -4.22172 0 7.91247 0 0)
(128.055 -6.87196 0 9.02768 0 0)
(145.174 -12.2801 0 9.26981 0 0)
(173.902 -19.1875 0 14.5847 0 0)
(217.832 -25.94 0 17.2134 0 0)
(233.522 -55.5391 0 46.2671 0 0)
(326.576 -171.65 0 138.579 0 0)
(2.56157 0.750805 0 14.0444 0 0)
(6.32459 0.807177 0 14.3963 0 0)
(9.29599 1.54067 0 13.9664 0 0)
(17.0943 1.59529 0 13.7716 0 0)
(24.1319 2.12196 0 13.5968 0 0)
(34.2591 1.93821 0 13.3648 0 0)
(43.9612 1.99346 0 13.1594 0 0)
(55.157 1.41825 0 12.9185 0 0)
(67.3053 0.898481 0 12.7813 0 0)
(78.8859 -0.38127 0 12.5802 0 0)
(94.3925 -1.7324 0 12.7797 0 0)
(105.795 -4.30515 0 12.688 0 0)
(128.067 -7.25884 0 13.9887 0 0)
(137.889 -13.1455 0 14.6672 0 0)
(170.902 -21.8239 0 21.2445 0 0)
(191.429 -33.018 0 24.5987 0 0)
(210.979 -55.8664 0 51.5749 0 0)
(265.594 -145.609 0 130.601 0 0)
(2.24266 0.721937 0 21.5393 0 0)
(5.54115 0.940556 0 22.1553 0 0)
(9.19654 1.76449 0 21.3811 0 0)
(16.3363 2.07818 0 21.1932 0 0)
(23.9677 2.45148 0 20.7945 0 0)
(33.3562 2.54437 0 20.5613 0 0)
(43.6017 2.27707 0 20.0927 0 0)
(54.0352 1.93097 0 19.8627 0 0)
(66.4677 0.901635 0 19.4442 0 0)
(77.3391 -0.213942 0 19.2914 0 0)
(92.4889 -2.36502 0 19.2306 0 0)
(103.467 -4.81649 0 19.2734 0 0)
(123.599 -8.97114 0 20.4811 0 0)
(133.88 -14.2502 0 21.4589 0 0)
(161.475 -24.3858 0 28.5168 0 0)
(169.311 -32.3889 0 32.0543 0 0)
(203.329 -58.9716 0 56.8645 0 0)
(190.18 -108.73 0 114.128 0 0)
(1.42124 0.598837 0 29.7638 0 0)
(4.31733 1.13418 0 30.6495 0 0)
(8.57822 1.92475 0 29.502 0 0)
(15.2466 2.47354 0 29.3308 0 0)
(23.1993 2.77893 0 28.6854 0 0)
(32.257 2.96508 0 28.4245 0 0)
(42.4075 2.60092 0 27.6724 0 0)
(52.7745 2.19408 0 27.3918 0 0)
(64.4087 1.01141 0 26.6675 0 0)
(75.5924 -0.358698 0 26.5023 0 0)
(88.6166 -2.74606 0 26.1179 0 0)
(100.401 -5.72815 0 26.3422 0 0)
(115.501 -10.3121 0 27.0964 0 0)
(128.037 -15.7883 0 28.6102 0 0)
(144.595 -26.4748 0 33.9196 0 0)
(151.969 -33.4388 0 37.4832 0 0)
(180.275 -54.8605 0 53.1817 0 0)
(139.521 -71.2607 0 83.6827 0 0)
(1.00201 0.52123 0 38.5377 0 0)
(3.7714 1.28724 0 39.7325 0 0)
(8.17237 2.03633 0 38.1946 0 0)
(14.721 2.78044 0 38.0536 0 0)
(22.6403 3.00704 0 37.1434 0 0)
(31.5765 3.31743 0 36.8685 0 0)
(41.4882 2.80743 0 35.8169 0 0)
(51.7594 2.47597 0 35.4986 0 0)
(62.807 1.04225 0 34.489 0 0)
(73.8218 -0.277177 0 34.2892 0 0)
(85.6281 -3.04035 0 33.6572 0 0)
(96.9877 -5.89721 0 33.9168 0 0)
(109.299 -10.9396 0 34.4236 0 0)
(121.177 -16.0281 0 36.1424 0 0)
(131.166 -25.5468 0 40.0199 0 0)
(138.094 -33.1862 0 44.7507 0 0)
(149.922 -47.2864 0 52.4654 0 0)
(123.154 -58.7056 0 73.1188 0 0)
(0.60715 0.484546 0 49.7276 0 0)
(3.22968 1.44602 0 51.3165 0 0)
(7.73605 2.18722 0 49.2192 0 0)
(14.1918 3.03706 0 49.132 0 0)
(21.9827 3.27498 0 47.8424 0 0)
(30.8386 3.58133 0 47.5634 0 0)
(40.4581 3.06732 0 46.1015 0 0)
(50.5898 2.63955 0 45.7331 0 0)
(61.1074 1.16501 0 44.3129 0 0)
(71.772 -0.289199 0 44.0692 0 0)
(82.6462 -3.1373 0 43.0238 0 0)
(93.1857 -6.03248 0 43.3423 0 0)
(103.817 -11.0852 0 43.3404 0 0)
(113.679 -15.834 0 45.1962 0 0)
(121.279 -24.4898 0 47.6953 0 0)
(125.717 -30.5486 0 51.9649 0 0)
(129.045 -40.6876 0 56.4791 0 0)
(115.968 -48.3553 0 69.0385 0 0)
(0.432598 0.516333 0 63.9263 0 0)
(2.97672 1.62816 0 65.9823 0 0)
(7.4668 2.38452 0 63.2895 0 0)
(13.8402 3.31198 0 63.1782 0 0)
(21.4836 3.57151 0 61.5437 0 0)
(30.1778 3.86148 0 61.1296 0 0)
(39.5317 3.35852 0 59.3209 0 0)
(49.3654 2.82104 0 58.7263 0 0)
(59.4289 1.37206 0 57.0046 0 0)
(69.527 -0.264373 0 56.4869 0 0)
(79.6153 -2.97826 0 55.1828 0 0)
(89.1456 -6.07676 0 55.2382 0 0)
(98.4552 -10.5466 0 54.8899 0 0)
(106.329 -15.4065 0 56.4367 0 0)
(112.487 -22.1173 0 57.8766 0 0)
(115.021 -28.0294 0 61.6055 0 0)
(115.964 -35.17 0 64.5664 0 0)
(109.521 -40.7646 0 71.461 0 0)
(0.355936 0.540868 0 81.4245 0 0)
(2.8303 1.74578 0 84.1113 0 0)
(7.25907 2.55607 0 80.6423 0 0)
(13.5108 3.50302 0 80.5337 0 0)
(20.9805 3.81077 0 78.4466 0 0)
(29.4545 4.0387 0 77.8939 0 0)
(38.5065 3.5626 0 75.604 0 0)
(47.9704 2.92142 0 74.7794 0 0)
(57.5173 1.48336 0 72.5865 0 0)
(67.0041 -0.220095 0 71.7992 0 0)
(76.2102 -2.86872 0 70.0424 0 0)
(84.7905 -5.85236 0 69.7826 0 0)
(92.6902 -9.95452 0 68.9451 0 0)
(99.1154 -14.2806 0 69.8975 0 0)
(103.825 -19.7237 0 70.5372 0 0)
(105.769 -24.634 0 73.0399 0 0)
(105.923 -29.7955 0 74.9791 0 0)
(101.681 -33.2775 0 78.6313 0 0)
(0.329163 0.569334 0 102.509 0 0)
(2.73516 1.8076 0 105.72 0 0)
(7.06612 2.68419 0 101.693 0 0)
(13.1498 3.58482 0 101.224 0 0)
(20.424 3.93505 0 98.9593 0 0)
(28.6032 4.0564 0 97.8802 0 0)
(37.3308 3.61697 0 95.3648 0 0)
(46.3249 2.83567 0 93.9155 0 0)
(55.347 1.47662 0 91.478 0 0)
(64.1214 -0.339224 0 90.0267 0 0)
(72.494 -2.75581 0 87.9985 0 0)
(80.0782 -5.68511 0 87.0236 0 0)
(86.7941 -9.19321 0 85.8098 0 0)
(92.0512 -13.08 0 85.8156 0 0)
(95.7496 -17.2953 0 85.7633 0 0)
(97.3334 -21.3595 0 86.9029 0 0)
(97.4355 -25.2015 0 87.9278 0 0)
(94.6337 -27.6547 0 89.5295 0 0)
(0.313586 0.573618 0 126.51 0 0)
(2.63988 1.77492 0 130.442 0 0)
(6.84534 2.66875 0 125.731 0 0)
(12.7256 3.46476 0 124.922 0 0)
(19.7578 3.79306 0 122.39 0 0)
(27.6032 3.80762 0 120.814 0 0)
(35.939 3.3348 0 117.93 0 0)
(44.4427 2.48869 0 115.896 0 0)
(52.8733 1.13487 0 113.035 0 0)
(60.961 -0.627227 0 110.943 0 0)
(68.5042 -2.89379 0 108.451 0 0)
(75.2225 -5.52414 0 106.724 0 0)
(80.9559 -8.57755 0 104.954 0 0)
(85.4018 -11.7991 0 103.948 0 0)
(88.4447 -15.1599 0 103.114 0 0)
(89.8812 -18.3256 0 102.938 0 0)
(90.1835 -21.2429 0 102.949 0 0)
(88.2219 -22.8883 0 103.098 0 0)
(0.299196 0.525223 0 151.934 0 0)
(2.53193 1.5827 0 156.439 0 0)
(6.58121 2.37884 0 151.308 0 0)
(12.2278 2.98956 0 149.869 0 0)
(18.9649 3.21371 0 147.31 0 0)
(26.4391 3.07241 0 144.998 0 0)
(34.3343 2.53282 0 141.908 0 0)
(42.3181 1.60169 0 139.101 0 0)
(50.1494 0.27343 0 135.901 0 0)
(57.5632 -1.43019 0 133.023 0 0)
(64.3712 -3.49062 0 130.07 0 0)
(70.3455 -5.82678 0 127.497 0 0)
(75.3558 -8.40213 0 125.092 0 0)
(79.2397 -11.0527 0 123.088 0 0)
(81.9359 -13.6891 0 121.372 0 0)
(83.3527 -16.1524 0 120.031 0 0)
(83.935 -18.3497 0 118.94 0 0)
(82.7288 -19.3947 0 117.827 0 0)
(0.28389 0.394524 0 175.164 0 0)
(2.4135 1.14645 0 180.368 0 0)
(6.28101 1.67188 0 174.757 0 0)
(11.6662 2.00471 0 172.875 0 0)
(18.0697 2.00257 0 170.193 0 0)
(25.1456 1.66647 0 167.342 0 0)
(32.5731 0.986687 0 163.955 0 0)
(40.037 -0.0213543 0 160.558 0 0)
(47.2901 -1.35469 0 156.94 0 0)
(54.0992 -2.96547 0 153.425 0 0)
(60.2865 -4.83261 0 149.936 0 0)
(65.688 -6.86217 0 146.644 0 0)
(70.1988 -9.01515 0 143.545 0 0)
(73.746 -11.1618 0 140.688 0 0)
(76.3 -13.2245 0 138.096 0 0)
(77.8251 -15.1231 0 135.769 0 0)
(78.7068 -16.7697 0 133.655 0 0)
(78.1587 -17.3665 0 131.454 0 0)
(0.268677 0.156697 0 190.28 0 0)
(2.29264 0.391907 0 195.957 0 0)
(5.96452 0.490325 0 190.06 0 0)
(11.0707 0.412344 0 187.918 0 0)
(17.1242 0.07633 0 185.171 0 0)
(23.7925 -0.531408 0 182 0 0)
(30.7585 -1.39989 0 178.421 0 0)
(37.727 -2.5214 0 174.668 0 0)
(44.462 -3.87027 0 170.755 0 0)
(50.7575 -5.40941 0 166.835 0 0)
(56.4605 -7.09535 0 162.942 0 0)
(61.4497 -8.86299 0 159.161 0 0)
(65.6494 -10.6579 0 155.524 0 0)
(69.0306 -12.4021 0 152.061 0 0)
(71.586 -14.0196 0 148.794 0 0)
(73.3044 -15.4891 0 145.749 0 0)
(74.4989 -16.7247 0 142.855 0 0)
(74.5437 -17.045 0 139.859 0 0)
(0.259019 -0.142275 0 190.252 0 0)
(2.19511 -0.533651 0 195.887 0 0)
(5.68792 -0.936705 0 190.054 0 0)
(10.538 -1.4915 0 187.903 0 0)
(16.276 -2.21151 0 185.199 0 0)
(22.5843 -3.11347 0 182.035 0 0)
(29.155 -4.18649 0 178.481 0 0)
(35.7157 -5.42485 0 174.73 0 0)
(42.0437 -6.79807 0 170.805 0 0)
(47.9616 -8.27756 0 166.852 0 0)
(53.3333 -9.81653 0 162.877 0 0)
(58.0706 -11.3725 0 158.99 0 0)
(62.1123 -12.8926 0 155.177 0 0)
(65.4525 -14.3335 0 151.513 0 0)
(68.0899 -15.6299 0 147.97 0 0)
(70.03 -16.7891 0 144.631 0 0)
(71.506 -17.7355 0 141.382 0 0)
(72.0401 -17.9398 0 138.051 0 0)
(0.255859 -0.396137 0 174.43 0 0)
(2.13596 -1.30584 0 179.385 0 0)
(5.49725 -2.12695 0 174.054 0 0)
(10.1575 -3.07504 0 172.061 0 0)
(15.6621 -4.10309 0 169.58 0 0)
(21.7065 -5.23184 0 166.69 0 0)
(27.9935 -6.45422 0 163.439 0 0)
(34.2687 -7.76712 0 160.015 0 0)
(40.3222 -9.14209 0 156.409 0 0)
(45.9976 -10.5593 0 152.78 0 0)
(51.1696 -11.9767 0 149.096 0 0)
(55.7701 -13.3678 0 145.489 0 0)
(59.7458 -14.6878 0 141.906 0 0)
(63.1006 -15.9134 0 138.453 0 0)
(65.8327 -16.9933 0 135.069 0 0)
(67.9595 -17.9425 0 131.867 0 0)
(69.6501 -18.6999 0 128.712 0 0)
(70.5472 -18.8872 0 125.511 0 0)
(0.257323 -0.545299 0 148.987 0 0)
(2.1082 -1.74703 0 152.947 0 0)
(5.3829 -2.82209 0 148.41 0 0)
(9.91562 -4.00506 0 146.693 0 0)
(15.2636 -5.20831 0 144.572 0 0)
(21.1312 -6.45683 0 142.119 0 0)
(27.2305 -7.74265 0 139.354 0 0)
(33.3199 -9.0676 0 136.449 0 0)
(39.1995 -10.4043 0 133.377 0 0)
(44.7259 -11.7429 0 130.286 0 0)
(49.7838 -13.045 0 127.129 0 0)
(54.3139 -14.2975 0 124.034 0 0)
(58.2701 -15.4611 0 120.939 0 0)
(61.658 -16.5269 0 117.951 0 0)
(64.4766 -17.4511 0 115.002 0 0)
(66.7481 -18.2529 0 112.204 0 0)
(68.5976 -18.8818 0 109.431 0 0)
(69.7576 -19.0911 0 106.639 0 0)
(0.260192 -0.601079 0 120.076 0 0)
(2.09929 -1.88916 0 123.048 0 0)
(5.3169 -3.06664 0 119.399 0 0)
(9.7643 -4.33917 0 118.005 0 0)
(15.0075 -5.59697 0 116.299 0 0)
(20.7575 -6.86618 0 114.335 0 0)
(26.7331 -8.13654 0 112.122 0 0)
(32.7019 -9.4134 0 109.796 0 0)
(38.4713 -10.6714 0 107.332 0 0)
(43.9061 -11.9074 0 104.847 0 0)
(48.8989 -13.0877 0 102.306 0 0)
(53.3951 -14.2076 0 99.807 0 0)
(57.3536 -15.2329 0 97.3022 0 0)
(60.779 -16.1635 0 94.8767 0 0)
(63.6716 -16.9622 0 92.4783 0 0)
(66.0564 -17.6489 0 90.1946 0 0)
(68.028 -18.1825 0 87.9296 0 0)
(69.3867 -18.4179 0 85.6542 0 0)
(0.263125 -0.590293 0 91.918 0 0)
(2.09894 -1.82934 0 94.0344 0 0)
(5.27915 -2.99554 0 91.2428 0 0)
(9.66972 -4.24549 0 90.1693 0 0)
(14.8425 -5.4653 0 88.8701 0 0)
(20.5139 -6.67743 0 87.3754 0 0)
(26.4079 -7.87141 0 85.6948 0 0)
(32.2979 -9.05225 0 83.923 0 0)
(37.9972 -10.1992 0 82.0473 0 0)
(43.3759 -11.3111 0 80.1502 0 0)
(48.3322 -12.3609 0 78.2093 0 0)
(52.814 -13.347 0 76.2948 0 0)
(56.7837 -14.2419 0 74.3766 0 0)
(60.2445 -15.0482 0 72.5132 0 0)
(63.198 -15.7378 0 70.6717 0 0)
(65.6714 -16.3255 0 68.9117 0 0)
(67.7374 -16.7823 0 67.1687 0 0)
(69.2489 -17.0317 0 65.4156 0 0)
(0.266225 -0.536481 0 66.9568 0 0)
(2.1028 -1.65018 0 68.3979 0 0)
(5.25789 -2.72955 0 66.3656 0 0)
(9.61075 -3.88198 0 65.5828 0 0)
(14.7362 -5.00113 0 64.6447 0 0)
(20.3553 -6.10288 0 63.5629 0 0)
(26.1959 -7.17922 0 62.3488 0 0)
(32.0348 -8.23202 0 61.0631 0 0)
(37.6903 -9.24648 0 59.7042 0 0)
(43.0354 -10.2201 0 58.3244 0 0)
(47.9727 -11.1338 0 56.9154 0 0)
(52.4514 -11.9849 0 55.5207 0 0)
(56.4362 -12.7542 0 54.1267 0 0)
(59.929 -13.4433 0 52.7679 0 0)
(62.9326 -14.0326 0 51.4277 0 0)
(65.475 -14.5314 0 50.1418 0 0)
(67.6135 -14.9214 0 48.872 0 0)
(69.2428 -15.1692 0 47.5908 0 0)
(0.268034 -0.462655 0 46.3058 0 0)
(2.10721 -1.41528 0 47.2449 0 0)
(5.24605 -2.36274 0 45.8439 0 0)
(9.57398 -3.37369 0 45.3059 0 0)
(14.6678 -4.35442 0 44.6647 0 0)
(20.2524 -5.31434 0 43.921 0 0)
(26.0584 -6.24844 0 43.087 0 0)
(31.865 -7.15501 0 42.1997 0 0)
(37.4937 -8.0251 0 41.2642 0 0)
(42.8196 -8.85404 0 40.311 0 0)
(47.7477 -9.62958 0 39.341 0 0)
(52.2284 -10.3477 0 38.3784 0 0)
(56.2277 -10.9961 0 37.4188 0 0)
(59.7465 -11.5742 0 36.4807 0 0)
(62.7881 -12.0697 0 35.5575 0 0)
(65.3814 -12.4864 0 34.6683 0 0)
(67.5718 -12.8144 0 33.7934 0 0)
(69.287 -13.0449 0 32.9072 0 0)
(0.269225 -0.382877 0 30.1686 0 0)
(2.11079 -1.1641 0 30.7532 0 0)
(5.23936 -1.95741 0 29.8427 0 0)
(9.55056 -2.80611 0 29.4956 0 0)
(14.6231 -3.6295 0 29.0835 0 0)
(20.1845 -4.43378 0 28.603 0 0)
(25.9674 -5.21519 0 28.0638 0 0)
(31.7519 -5.97071 0 27.4882 0 0)
(37.3618 -6.69383 0 26.8822 0 0)
(42.6731 -7.37978 0 26.2638 0 0)
(47.593 -8.02004 0 25.6358 0 0)
(52.0711 -8.61046 0 25.0113 0 0)
(56.0757 -9.14306 0 24.3903 0 0)
(59.6067 -9.61596 0 23.7816 0 0)
(62.668 -10.0216 0 23.1835 0 0)
(65.287 -10.3604 0 22.6058 0 0)
(67.5044 -10.6276 0 22.0387 0 0)
(69.2726 -10.8252 0 21.4631 0 0)
(0.269539 -0.30445 0 18.218 0 0)
(2.11256 -0.91933 0 18.5624 0 0)
(5.234 -1.5534 0 18.0116 0 0)
(9.53116 -2.2361 0 17.8056 0 0)
(14.5847 -2.90006 0 17.5625 0 0)
(20.124 -3.54988 0 17.278 0 0)
(25.8825 -4.18081 0 16.9578 0 0)
(31.6415 -4.78955 0 16.6149 0 0)
(37.2258 -5.36954 0 16.2532 0 0)
(42.5118 -5.9173 0 15.8832 0 0)
(47.4091 -6.42556 0 15.5066 0 0)
(51.8663 -6.89195 0 15.1314 0 0)
(55.8552 -7.30967 0 14.7579 0 0)
(59.3734 -7.67841 0 14.3912 0 0)
(62.4295 -7.99238 0 14.0307 0 0)
(65.0458 -8.25215 0 13.6817 0 0)
(67.2663 -8.45689 0 13.3397 0 0)
(69.0621 -8.60734 0 12.9928 0 0)
(0.269171 -0.228165 0 9.88556 0 0)
(2.1103 -0.690916 0 10.0692 0 0)
(5.21678 -1.17812 0 9.77189 0 0)
(9.48771 -1.70769 0 9.66954 0 0)
(14.5111 -2.22196 0 9.54516 0 0)
(20.017 -2.72226 0 9.39599 0 0)
(25.7386 -3.20424 0 9.22533 0 0)
(31.4597 -3.66543 0 9.04113 0 0)
(37.0048 -4.10008 0 8.8454 0 0)
(42.2538 -4.50662 0 8.64441 0 0)
(47.1151 -4.87947 0 8.43877 0 0)
(51.5422 -5.21878 0 8.23364 0 0)
(55.5059 -5.51875 0 8.02847 0 0)
(59.0079 -5.7816 0 7.82721 0 0)
(62.0558 -6.0012 0 7.62892 0 0)
(64.6712 -6.18112 0 7.4376 0 0)
(66.8956 -6.32429 0 7.25081 0 0)
(68.7248 -6.42639 0 7.06259 0 0)
(0.268055 -0.15472 0 4.48756 0 0)
(2.08345 -0.49761 0 4.5832 0 0)
(5.15551 -0.851964 0 4.45798 0 0)
(9.38692 -1.22823 0 4.42236 0 0)
(14.3847 -1.58517 0 4.37131 0 0)
(19.8652 -1.92739 0 4.3069 0 0)
(25.5602 -2.25227 0 4.22959 0 0)
(31.2554 -2.55753 0 4.14311 0 0)
(36.7776 -2.84161 0 4.05009 0 0)
(42.0059 -3.10566 0 3.95427 0 0)
(46.8506 -3.34679 0 3.85646 0 0)
(51.2684 -3.56586 0 3.75937 0 0)
(55.2262 -3.7591 0 3.66248 0 0)
(58.7342 -3.92858 0 3.56849 0 0)
(61.7887 -4.0682 0 3.47582 0 0)
(64.423 -4.18328 0 3.38834 0 0)
(66.6444 -4.2738 0 3.30309 0 0)
(68.5018 -4.34388 0 3.21888 0 0)
(0.255144 -0.0881399 0 1.42149 0 0)
(2.06746 -0.313287 0 1.48722 0 0)
(5.20392 -0.525743 0 1.44716 0 0)
(9.49377 -0.73404 0 1.43401 0 0)
(14.545 -0.924069 0 1.41391 0 0)
(20.0766 -1.10662 0 1.39064 0 0)
(25.8279 -1.28319 0 1.36401 0 0)
(31.5821 -1.45124 0 1.33468 0 0)
(37.1657 -1.60913 0 1.30369 0 0)
(42.4529 -1.75667 0 1.27208 0 0)
(47.357 -1.89236 0 1.24026 0 0)
(51.8271 -2.01622 0 1.20885 0 0)
(55.8346 -2.12623 0 1.1778 0 0)
(59.3822 -2.22303 0 1.14783 0 0)
(62.47 -2.30255 0 1.11857 0 0)
(65.1356 -2.36878 0 1.09208 0 0)
(67.3567 -2.4214 0 1.06686 0 0)
(69.206 -2.46091 0 1.03991 0 0)
(0.245833 -0.0253159 0 0.141893 0 0)
(2.06529 -0.0977683 0 0.153677 0 0)
(5.18282 -0.165474 0 0.150891 0 0)
(9.44185 -0.230688 0 0.149723 0 0)
(14.4744 -0.293556 0 0.147421 0 0)
(19.9934 -0.353856 0 0.144693 0 0)
(25.738 -0.412649 0 0.141695 0 0)
(31.4899 -0.469119 0 0.138564 0 0)
(37.0806 -0.522444 0 0.135342 0 0)
(42.3858 -0.572433 0 0.13209 0 0)
(47.3203 -0.618779 0 0.128833 0 0)
(51.8311 -0.661452 0 0.125631 0 0)
(55.8921 -0.699884 0 0.122487 0 0)
(59.4983 -0.733931 0 0.119463 0 0)
(62.6562 -0.762856 0 0.116638 0 0)
(65.3986 -0.788108 0 0.1143 0 0)
(67.7098 -0.806327 0 0.112225 0 0)
(69.6367 -0.815647 0 0.11184 0 0)
(0.0244899 0.035745 0 0.71793 0 0)
(0.267387 0.0990466 0 0.678952 0 0)
(0.785849 0.180845 0 0.671768 0 0)
(1.53956 0.294969 0 0.662515 0 0)
(2.48668 0.42407 0 0.660907 0 0)
(3.60904 0.568967 0 0.657642 0 0)
(4.88476 0.716064 -2.38653e-19 0.655696 -6.49552e-20 1.48011e-37)
(6.31107 0.866996 2.42534e-19 0.651402 6.9276e-20 1.48472e-37)
(7.88125 1.01396 0 0.645396 0 0)
(9.59333 1.16141 2.44712e-19 0.637823 6.86945e-20 1.46253e-37)
(11.4421 1.30548 0 0.629239 0 0)
(13.4215 1.44838 0 0.620141 0 0)
(15.5249 1.58552 0 0.612182 0 0)
(17.746 1.71723 -2.76944e-19 0.605715 -5.17623e-20 1.34874e-37)
(20.0788 1.84036 0 0.5995 0 0)
(22.5235 1.95394 0 0.594261 0 0)
(25.0804 2.0538 3.40058e-19 0.589948 3.90526e-20 1.22196e-37)
(27.748 2.14162 0 0.585485 0 0)
(30.5212 2.22013 0 0.580819 0 0)
(33.3941 2.29161 0 0.576368 0 0)
(36.3509 2.355 -4.55993e-19 0.573036 -1.96033e-20 1.01859e-37)
(39.382 2.41092 0 0.569303 0 0)
(42.4737 2.4574 -5.15781e-19 0.567048 -1.03062e-20 9.25993e-38)
(45.6169 2.49441 0 0.56823 0 0)
(48.7953 2.52816 0 0.568948 0 0)
(51.9948 2.55132 -6.03942e-19 0.571094 1.18303e-21 7.98334e-38)
(55.2085 2.55363 0 0.572954 0 0)
(58.4406 2.53626 6.57578e-19 0.571488 -6.91321e-21 7.22194e-38)
(61.6853 2.50521 0 0.56368 0 0)
(64.9484 2.4623 -7.02353e-19 0.553309 1.04948e-20 6.54511e-38)
(68.2288 2.41019 0 0.53976 0 0)
(71.514 2.35136 0 0.523914 0 0)
(74.7963 2.28577 0 0.509842 0 0)
(78.0771 2.20971 0 0.498488 0 0)
(81.3502 2.12244 0 0.486922 0 0)
(84.6124 2.02694 7.79666e-19 0.476015 -1.40282e-20 4.60358e-38)
(87.8622 1.92309 0 0.464391 0 0)
(91.1004 1.81076 -1.56255e-18 0.448353 2.72055e-20 1.61515e-37)
(94.3256 1.69148 0 0.432755 0 0)
(97.533 1.56406 1.55253e-18 0.418093 -2.62186e-20 1.40078e-37)
(100.715 1.43104 0 0.402926 0 0)
(103.873 1.28884 0 0.391262 0 0)
(106.995 1.13837 -1.51438e-18 0.378702 2.15763e-20 1.11331e-37)
(110.065 0.985637 0 0.365893 0 0)
(113.068 0.83088 -1.47571e-18 0.355097 1.82627e-20 9.43656e-38)
(115.99 0.672961 1.45323e-18 0.346247 -1.65372e-20 8.66721e-38)
(118.813 0.509289 0 0.340128 0 0)
(121.531 0.339538 1.40251e-18 0.335347 -1.25059e-20 7.34909e-38)
(124.127 0.164154 1.37435e-18 0.331416 -1.06345e-20 6.80372e-38)
(126.601 -0.0138198 0 0.328113 0 0)
(128.939 -0.192896 0 0.325955 0 0)
(131.12 -0.376126 0 0.323195 0 0)
(133.125 -0.564505 0 0.321838 0 0)
(134.933 -0.755184 0 0.323613 0 0)
(136.521 -0.94508 -1.17337e-18 0.327602 -4.39238e-21 5.01922e-38)
(137.859 -1.13656 0 0.331731 0 0)
(138.935 -1.33294 1.07907e-18 0.335531 1.14484e-20 4.75374e-38)
(139.752 -1.53566 0 0.340756 0 0)
(140.305 -1.74413 0 0.347554 0 0)
(140.578 -1.94965 -9.11754e-19 0.356855 -2.2529e-20 4.75459e-38)
(140.564 -2.15336 0 0.368784 0 0)
(140.247 -2.35787 7.80484e-19 0.380756 3.12832e-20 4.97187e-38)
(139.634 -2.56122 0 0.391031 0 0)
(138.719 -2.76467 0 0.403814 0 0)
(137.512 -2.9674 0 0.417995 0 0)
(136.027 -3.16303 -4.82055e-19 0.43244 -4.76021e-20 6.03506e-38)
(134.266 -3.35215 0 0.447218 0 0)
(132.243 -3.53498 0 0.460356 0 0)
(129.97 -3.71053 -2.26338e-19 0.474064 -6.11733e-20 7.30377e-38)
(127.468 -3.88394 0 0.489184 0 0)
(124.773 -4.05016 -5.08204e-20 0.504391 -6.98049e-20 8.30188e-38)
(121.898 -4.20395 0 0.51986 0 0)
(118.86 -4.34561 0 0.535861 0 0)
(115.688 -4.47642 0 0.553 0 0)
(112.407 -4.59785 -3.04676e-19 0.571141 8.31589e-20 1.04528e-37)
(109.034 -4.70714 0 0.589232 0 0)
(105.585 -4.80099 0 0.607187 0 0)
(102.072 -4.87975 -5.63901e-19 0.62527 9.02847e-20 1.20152e-37)
(98.5086 -4.94786 -6.45661e-19 0.644025 9.18219e-20 1.25264e-37)
(94.9209 -5.00495 0 0.662812 0 0)
(91.3403 -5.05015 -7.98624e-19 0.682525 9.45944e-20 1.3468e-37)
(87.7878 -5.08415 0 0.703729 0 0)
(84.2838 -5.10629 -1.87695e-18 0.725298 1.92513e-19 5.74324e-37)
(80.8425 -5.11554 0 0.747936 0 0)
(77.4818 -5.11028 -2.12201e-18 0.770509 1.93646e-19 6.07444e-37)
(74.2199 -5.08872 0 0.793454 0 0)
(71.0711 -5.05411 2.32467e-18 0.819434 -1.93794e-19 6.36399e-37)
(68.0528 -5.00622 0 0.844489 0 0)
(65.1795 -4.93979 0 0.866814 0 0)
(62.451 -4.85469 0 0.889536 0 0)
(59.8718 -4.75275 -2.58541e-18 0.91456 1.86164e-19 6.79694e-37)
(57.4475 -4.63648 0 0.93918 0 0)
(55.187 -4.50402 2.64612e-18 0.963399 -1.79917e-19 6.94416e-37)
(53.0921 -4.35498 0 0.987097 0 0)
(51.1517 -4.18371 -2.65818e-18 1.01064 1.73639e-19 7.03208e-37)
(49.3609 -3.99604 -2.64919e-18 1.03192 1.70437e-19 7.06693e-37)
(47.7075 -3.79563 -2.63049e-18 1.05311 1.66287e-19 7.09356e-37)
(46.1866 -3.58609 0 1.07549 0 0)
(44.7717 -3.36663 0 1.09862 0 0)
(43.4742 -3.13829 0 1.1182 0 0)
(42.2763 -2.90119 0 1.13802 0 0)
(41.1727 -2.6621 0 1.15779 0 0)
(40.1444 -2.42237 0 1.17685 0 0)
(39.1913 -2.18027 0 1.19196 0 0)
(38.2631 -1.93697 0 1.20794 0 0)
(37.3634 -1.70026 2.02592e-18 1.22304 -1.3152e-19 7.07476e-37)
(36.4529 -1.47195 1.91173e-18 1.24032 -1.24235e-19 7.06733e-37)
(35.5601 -1.25298 0 1.25177 0 0)
(34.6457 -1.04244 0 1.26482 0 0)
(33.7246 -0.855674 0 1.27883 0 0)
(32.7404 -0.6793 1.35521e-18 1.29189 -1.0487e-19 6.90809e-37)
(31.7968 -0.529495 0 1.29926 0 0)
(30.787 -0.387476 0 1.30907 0 0)
(29.8312 -0.285098 0 1.31924 0 0)
(28.9074 -0.202073 0 1.33232 0 0)
(28.0815 -0.151913 -4.40786e-19 1.34069 7.56493e-20 6.66025e-37)
(27.3866 -0.125607 0 1.34983 0 0)
(26.8508 -0.134074 0 1.36326 0 0)
(26.5583 -0.176039 -2.22662e-19 1.37085 -6.50989e-20 6.42337e-37)
(26.5072 -0.244602 4.50164e-19 1.38391 6.10177e-20 6.29918e-37)
(26.754 -0.354276 0 1.40086 0 0)
(27.3517 -0.510603 9.1274e-19 1.4181 6.01005e-20 6.05297e-37)
(28.3652 -0.707053 0 1.43725 0 0)
(29.8568 -0.959009 -1.35378e-18 1.45492 -6.46421e-20 5.7562e-37)
(31.8475 -1.2448 0 1.47765 0 0)
(34.4114 -1.58045 0 1.50466 0 0)
(37.447 -1.9583 0 1.53737 0 0)
(41.065 -2.38674 0 1.57163 0 0)
(45.1177 -2.84129 0 1.60967 0 0)
(49.6115 -3.34253 4.89652e-18 1.65185 2.04711e-19 1.97167e-36)
(54.4797 -3.88762 5.15125e-18 1.69796 2.30639e-19 1.93682e-36)
(59.7464 -4.46881 0 1.74601 0 0)
(65.2036 -5.06972 0 1.80197 0 0)
(70.8255 -5.6972 0 1.85715 0 0)
(76.4479 -6.30896 -5.69186e-18 1.91807 -3.52193e-19 1.91688e-36)
(81.8565 -6.92377 0 1.98918 0 0)
(87.0031 -7.54448 0 2.06138 0 0)
(91.8352 -8.15893 0 2.13786 0 0)
(96.2761 -8.75194 -5.33148e-18 2.21614 -5.33366e-19 2.07139e-36)
(100.308 -9.31884 5.09739e-18 2.29959 5.8203e-19 2.13287e-36)
(103.719 -9.84123 0 2.39038 0 0)
(106.629 -10.3509 0 2.48319 0 0)
(109 -10.805 4.07949e-18 2.57777 7.35098e-19 2.36508e-36)
(110.841 -11.2247 3.6506e-18 2.67115 7.83944e-19 2.45038e-36)
(111.998 -11.5694 0 2.77146 0 0)
(112.572 -11.8849 0 2.87141 0 0)
(112.457 -12.1278 -2.05314e-18 2.97542 -9.45524e-19 2.71836e-36)
(111.783 -12.3525 1.4232e-18 3.07044 9.89135e-19 2.79711e-36)
(110.593 -12.5069 0 3.16726 0 0)
(108.688 -12.607 0 3.26795 0 0)
(106.189 -12.641 -5.21771e-19 3.35886 1.11706e-18 3.06778e-36)
(103.057 -12.6208 0 3.44938 0 0)
(99.5773 -12.5633 0 3.533 0 0)
(95.5893 -12.4145 -2.54942e-18 3.60551 1.20604e-18 3.30028e-36)
(91.2898 -12.1941 0 3.67753 0 0)
(86.6674 -11.8627 -3.83338e-18 3.73908 1.257e-18 3.44326e-36)
(81.7798 -11.4462 0 3.79486 0 0)
(76.6724 -10.9117 0 3.83402 0 0)
(71.729 -10.2787 0 3.85816 0 0)
(66.8425 -9.48083 5.87284e-18 3.87695 -1.27773e-18 3.68157e-36)
(62.1777 -8.56341 0 3.88057 0 0)
(57.9509 -7.49378 0 3.86846 0 0)
(54.4862 -6.30429 0 3.84063 0 0)
(51.6202 -4.92599 0 3.79866 0 0)
(49.5241 -3.46662 0 3.74799 0 0)
(48.7987 -1.91228 0 3.67609 0 0)
(49.6318 -0.288192 6.02148e-18 3.58644 -1.1043e-18 3.72779e-36)
(51.6854 1.42555 5.60551e-18 3.48817 -1.05012e-18 3.71038e-36)
(55.3867 3.1181 0 3.37664 0 0)
(60.6443 4.74526 0 3.25873 0 0)
(67.4536 6.32596 0 3.12929 0 0)
(75.3916 7.79995 -3.05207e-18 2.99959 7.95351e-19 3.38434e-36)
(84.5236 9.10172 0 2.87138 0 0)
(94.0888 10.2902 2.94736e-18 2.73633 -1.3509e-18 1.2365e-35)
(103.985 11.2479 -1.30931e-18 2.60559 1.21806e-18 1.16639e-35)
(113.631 12.0387 3.19028e-19 2.47429 1.10549e-18 1.10217e-35)
(123.295 12.6897 -2.02218e-18 2.34949 -1.01464e-18 1.03366e-35)
(131.424 13.231 3.67519e-18 2.23048 9.23242e-19 9.76204e-36)
(139.305 13.7085 -5.2796e-18 2.12321 -9.0394e-19 8.9974e-36)
(143.059 14.4014 0 2.06728 0 0)
(0.0183125 0.174253 0 6.10118 0 0)
(0.202746 0.38789 0 6.03942 0 0)
(0.629557 0.609778 1.31904e-19 5.86627 1.7543e-19 6.76485e-37)
(1.32717 0.854341 0 5.74505 0 0)
(2.26932 1.13368 -1.9226e-19 5.68504 -3.5385e-19 9.19853e-37)
(3.44555 1.43841 -1.83453e-19 5.65782 -4.42226e-19 9.73332e-37)
(4.83486 1.7629 -8.01597e-20 5.64243 -2.51971e-19 2.49203e-37)
(6.423 2.10324 -6.81572e-20 5.62441 -2.70925e-19 2.61435e-37)
(8.20205 2.45228 0 5.59606 0 0)
(10.17 2.8055 -4.10052e-20 5.55347 -2.69665e-19 2.59524e-37)
(12.3281 3.15408 0 5.50163 0 0)
(14.6746 3.49559 0 5.44206 0 0)
(17.201 3.82489 9.22815e-20 5.3738 4.24361e-19 9.51448e-37)
(19.9081 4.14151 6.83543e-20 5.3019 1.87111e-19 2.34211e-37)
(22.7852 4.43592 -1.83285e-19 5.22662 -3.26532e-19 8.93938e-37)
(25.8261 4.70807 -2.49702e-19 5.14828 -2.81382e-19 8.66194e-37)
(29.0196 4.95938 -1.70301e-19 5.06381 -1.18465e-19 2.12816e-37)
(32.3593 5.19126 0 4.97298 0 0)
(35.8335 5.4021 0 4.87719 0 0)
(39.4335 5.5964 0 4.7744 0 0)
(43.136 5.77344 -3.86363e-19 4.66934 -3.65493e-20 1.80461e-37)
(46.9318 5.93055 0 4.56469 0 0)
(50.7982 6.05928 1.60891e-18 4.458 -1.67152e-20 1.55242e-36)
(54.7227 6.16318 0 4.35489 0 0)
(58.6886 6.24383 0 4.24959 0 0)
(62.6788 6.30132 7.75119e-19 4.14535 -5.78365e-20 1.56581e-37)
(66.6658 6.33233 0 4.03941 0 0)
(70.6307 6.34619 -9.33496e-19 3.93886 8.19416e-20 1.46088e-37)
(74.54 6.33661 -1.99482e-18 3.83897 1.81834e-19 5.5747e-37)
(78.3836 6.29844 1.07775e-18 3.73624 -9.88863e-20 1.3672e-37)
(82.1578 6.22872 0 3.62841 0 0)
(85.8623 6.13104 0 3.52305 0 0)
(89.4838 6.00796 0 3.41953 0 0)
(93.0264 5.86071 -2.5783e-18 3.31124 2.22951e-19 4.71802e-37)
(96.4817 5.68381 -2.65661e-18 3.20361 2.20416e-19 4.55639e-37)
(99.8634 5.47782 -1.37448e-18 3.10255 1.07617e-19 1.10877e-37)
(103.18 5.24084 0 3.0105 0 0)
(106.423 4.96781 2.83951e-18 2.92222 -2.02994e-19 4.13249e-37)
(109.603 4.65677 0 2.83692 0 0)
(112.711 4.31711 -2.87589e-18 2.75535 1.8837e-19 3.81881e-37)
(115.757 3.94974 0 2.67498 0 0)
(118.735 3.56257 0 2.60279 0 0)
(121.652 3.1593 2.82842e-18 2.53179 -1.5393e-19 3.31862e-37)
(124.494 2.737 0 2.46651 0 0)
(127.243 2.28892 8.16222e-18 2.40867 -3.9305e-19 2.68652e-36)
(129.896 1.81077 -2.6895e-18 2.36343 1.19164e-19 2.83933e-37)
(132.458 1.30728 0 2.33618 0 0)
(134.945 0.778947 -2.54945e-18 2.32007 9.11146e-20 2.51906e-37)
(137.34 0.218228 -2.46868e-18 2.31374 7.68425e-20 2.36294e-37)
(139.641 -0.368019 0 2.31612 0 0)
(141.823 -0.964388 0 2.32874 0 0)
(143.872 -1.55867 0 2.34248 0 0)
(145.772 -2.14395 0 2.3561 0 0)
(147.486 -2.72306 0 2.38037 0 0)
(149.003 -3.303 1.8834e-18 2.41338 1.45726e-20 1.72279e-37)
(150.299 -3.89184 3.45122e-18 2.45651 7.11772e-20 6.56632e-37)
(151.356 -4.48378 -1.64447e-18 2.5072 -5.58676e-20 1.60291e-37)
(152.185 -5.0935 0 2.56286 0 0)
(152.758 -5.70399 2.68771e-18 2.62572 1.8994e-19 6.02162e-37)
(153.046 -6.29332 -1.17052e-18 2.69375 -1.13075e-19 1.47034e-37)
(153.078 -6.87728 0 2.77059 0 0)
(152.802 -7.45521 -9.78968e-19 2.86062 -1.48392e-19 1.49645e-37)
(152.23 -8.01145 0 2.954 0 0)
(151.355 -8.55854 0 3.05533 0 0)
(150.175 -9.08758 -1.04933e-18 3.16146 -3.96539e-19 6.2598e-37)
(148.676 -9.58798 4.23435e-19 3.27227 2.15088e-19 1.63852e-37)
(146.896 -10.0809 -4.90617e-19 3.39252 -4.61988e-19 6.68831e-37)
(144.831 -10.5526 2.13301e-19 3.51694 4.88962e-19 6.92622e-37)
(142.506 -11.0002 1.06298e-20 3.64249 2.54415e-19 1.828e-37)
(139.907 -11.4215 0 3.77304 0 0)