/*--------------------------------*- C++ -*----------------------------------*\
| =========                 |                                                 |
| \\      /  F ield         | OpenFOAM: The Open Source CFD Toolbox           |
|  \\    /   O peration     | Version:  dev                                   |
|   \\  /    A nd           | Web:      http://www.openfoam.org               |
|    \\/     M anipulation  |                                                 |
\*---------------------------------------------------------------------------*/
FoamFile
{
    version     2.0;
    format      ascii;
    class       volScalarField;
    object      k_0;
    location    "9.137";
}
// * * * * * * * * * * * * * * * * * * * * * * * * * * * * * * * * * * * * * //

dimensions      [0 2 -2 0 0 0 0];

internalField   nonuniform List<scalar> 
12225
(
8.54448
9.10206
5.73399
5.66283
5.16013
6.78921
7.69974
9.77319
11.0094
14.1136
15.6062
18.9465
20.2457
28.4202
35.7794
53.0069
79.8427
161.863
1.31059
5.69336
5.38604
6.27733
5.06889
5.83978
5.36973
5.84919
5.82813
6.39648
7.00842
6.88775
6.73831
6.01046
6.49195
8.15414
12.4912
21.5557
0.0956809
1.5785
2.1496
3.56844
3.41001
3.80183
3.8367
4.12483
3.81853
4.22735
4.6786
4.65883
4.09737
2.95558
3.12741
3.83026
9.21776
17.4654
0.0197388
0.365676
0.587001
1.07126
1.38113
1.42121
1.56604
2.01332
1.86166
1.74455
1.88641
2.65406
2.52091
2.17553
2.59937
3.59606
4.71722
15.5733
0.0108012
0.138688
0.223644
0.296579
0.496134
0.522968
0.657466
0.805873
0.906407
0.907306
1.2092
1.41743
1.45591
1.7875
2.56597
3.65127
4.66966
14.314
0.00372082
0.260157
0.248172
0.251657
0.298923
0.335642
0.445906
0.49747
0.658298
0.685782
0.920208
1.06787
1.27895
1.40529
1.88109
3.0344
5.1027
14.4066
0.0191975
0.275018
0.340868
0.351081
0.354494
0.394219
0.421579
0.483886
0.565769
0.608638
0.681126
0.835692
1.20568
1.39812
2.03081
2.74549
4.70929
14.6299
0.0329156
0.0511398
0.12921
0.290715
0.321724
0.521526
0.528016
0.546268
0.550684
0.552271
0.68099
0.686636
0.770212
1.15412
1.44574
1.64565
2.84862
4.33883
0.0209397
0.0284873
0.0610532
0.13014
0.24644
0.443285
0.473979
0.518729
0.528782
0.553542
0.561949
0.569351
0.675802
0.648011
0.75826
0.822363
1.53518
1.89544
0.0182889
0.0266432
0.0438349
0.0646222
0.144282
0.181308
0.33801
0.311363
0.346122
0.344241
0.411784
0.417634
0.448929
0.41619
0.477289
0.511263
0.737951
0.758126
0.0249305
0.0329225
0.0424731
0.0549578
0.0896638
0.104855
0.169501
0.153161
0.164509
0.176886
0.257256
0.282667
0.307027
0.302405
0.321215
0.335473
0.39363
0.421226
0.0483043
0.0607503
0.0623337
0.0664897
0.0811208
0.091493
0.110047
0.112195
0.117646
0.131908
0.186125
0.205743
0.227774
0.239537
0.257187
0.263317
0.280706
0.294101
0.101889
0.116518
0.114066
0.10899
0.100895
0.102211
0.107588
0.110927
0.11581
0.126884
0.162349
0.188024
0.212878
0.225142
0.235525
0.242543
0.252475
0.262422
0.176846
0.192363
0.18871
0.185045
0.165329
0.154871
0.146783
0.148174
0.14822
0.15442
0.175667
0.198241
0.215543
0.227972
0.237688
0.245669
0.253427
0.260926
0.28562
0.305171
0.300887
0.300504
0.29323
0.283081
0.265675
0.259598
0.25015
0.249321
0.248462
0.251362
0.258053
0.266686
0.275739
0.286604
0.294239
0.301287
0.449888
0.461441
0.436045
0.416763
0.389998
0.366289
0.343354
0.326637
0.314239
0.307394
0.303676
0.30278
0.303233
0.306099
0.315792
0.327098
0.336224
0.344528
0.508581
0.512653
0.476127
0.449044
0.418323
0.390055
0.364575
0.34514
0.331194
0.322236
0.317353
0.314788
0.314258
0.315746
0.323792
0.335809
0.345357
0.354017
0.491437
0.500468
0.468868
0.444884
0.415535
0.387547
0.362516
0.343269
0.329513
0.320263
0.315082
0.312369
0.311357
0.312461
0.319415
0.331538
0.341178
0.350095
0.403175
0.415675
0.403722
0.392445
0.371459
0.349246
0.329771
0.314985
0.30441
0.297118
0.292791
0.290526
0.289781
0.290609
0.296327
0.307437
0.316531
0.325316
0.265774
0.274899
0.268969
0.266849
0.262503
0.253961
0.247523
0.243393
0.240426
0.238049
0.236179
0.235061
0.234896
0.235962
0.240946
0.249304
0.256566
0.264918
0.155076
0.163579
0.161705
0.160258
0.157098
0.150355
0.145522
0.142605
0.141044
0.140661
0.140269
0.139557
0.13946
0.13954
0.139783
0.141394
0.144864
0.153045
0.0826729
0.0931676
0.095196
0.0957145
0.0954526
0.093613
0.0914297
0.0892668
0.0878351
0.0874477
0.0871377
0.0871044
0.0873316
0.0883733
0.0901393
0.0940671
0.0990743
0.106468
0.0389677
0.0459602
0.0507088
0.0523016
0.0517978
0.0519931
0.0528115
0.0548745
0.0575708
0.0631378
0.0669666
0.070799
0.073012
0.0760703
0.0787606
0.0843819
0.0899646
0.0972073
0.0198119
0.0241392
0.0245608
0.0267423
0.0330738
0.0397875
0.0439673
0.0487647
0.0538745
0.0618276
0.0673082
0.0730104
0.0764832
0.0814835
0.0863588
0.0937313
0.100362
0.10802
0.00635382
0.00898488
0.0141727
0.0215793
0.0350512
0.0490897
0.0609978
0.073043
0.0853769
0.0985989
0.109206
0.118929
0.126162
0.135754
0.145443
0.155804
0.164649
0.172661
0.00140078
0.00689975
0.0212355
0.054794
0.104845
0.14861
0.185362
0.216222
0.245537
0.268927
0.289282
0.306767
0.321921
0.339197
0.35535
0.368082
0.377295
0.378933
0.00305909
0.0425129
0.145945
0.325458
0.489379
0.604609
0.684214
0.7395
0.785743
0.814999
0.841753
0.866997
0.890108
0.913239
0.929519
0.93106
0.927109
0.911717
0.0469597
0.433169
1.07518
1.67922
2.02341
2.16403
2.19202
2.19327
2.2006
2.1992
2.19689
2.19194
2.17858
2.14605
2.10207
2.04006
1.96711
1.87432
0.784682
3.2883
4.591
4.77982
4.6703
4.50973
4.39594
4.31168
4.21218
4.14014
4.07318
4.00209
3.91844
3.82079
3.71976
3.59519
3.46935
3.19394
6.54158
8.88917
7.5837
5.74425
4.91286
4.73229
4.84921
5.15578
5.5127
5.86606
6.18445
6.45702
6.67706
6.84425
6.96793
6.97771
6.89118
6.45082
0.0894687
0.180255
0.285796
0.375533
0.407097
0.43063
0.469647
0.507114
0.546511
0.60162
0.66927
0.756398
0.883899
1.0096
1.12572
1.28235
1.42203
1.56944
1.70141
1.76519
1.84448
1.91162
1.94421
1.99322
2.11625
2.36609
2.63863
2.81218
2.8675
2.87645
2.90793
3.08612
3.42389
3.81107
4.19382
4.55289
4.93389
5.38269
5.8989
6.43365
6.96259
7.47927
7.97188
8.43106
8.85252
9.22817
9.54617
9.79225
9.97781
10.0883
10.1366
10.1509
10.1384
10.0723
9.98629
9.88852
9.79726
9.712
9.64362
9.59043
9.53504
9.46038
9.38562
9.30856
9.21263
9.10067
8.94345
8.76979
8.60759
8.43726
8.27818
8.14297
7.97119
7.76463
7.5075
7.20666
6.93029
6.67636
6.43112
6.13632
5.82207
5.47451
5.16043
4.89924
4.67402
4.50894
4.37844
4.32572
4.315
4.28557
4.16908
3.95356
3.64022
3.28297
3.0066
2.86264
2.79335
2.73892
2.75466
2.85992
3.07185
3.19147
3.16754
2.92556
2.87664
3.03013
3.04389
3.03852
3.25167
3.11346
2.63531
2.35032
2.48344
3.36096
5.01912
5.68646
5.57476
4.97554
4.48569
4.23576
4.10481
3.78558
3.56486
3.5393
3.83132
4.38971
5.09419
5.7108
6.48532
7.41451
8.31108
9.15197
9.88025
10.6335
11.5142
12.3997
13.297
14.2953
15.3175
15.8475
16.1112
16.5252
16.7853
16.963
17.1684
17.2045
16.2265
15.2507
14.1562
12.7947
11.8108
10.917
9.51235
9.20553
10.0729
10.4775
8.92017
7.16683
5.77251
5.37101
6.5281
8.4389
8.95598
8.77149
9.32524
11.3038
13.7299
15.9744
17.8454
18.8084
19.6264
20.7363
23.0843
26.9526
29.3485
29.8707
29.5075
29.1204
28.7595
27.398
0.294965
0.456263
0.60171
0.538593
0.446144
0.373485
0.299764
0.256812
0.237545
0.22689
0.215925
0.21044
0.209613
0.211642
0.223457
0.26735
0.320949
0.398181
0.524514
0.642432
0.752573
0.793903
0.770586
0.705522
0.664717
0.67326
0.780573
0.875938
0.88142
0.864759
0.886158
0.938832
1.29659
2.11635
2.68727
3.06764
3.34672
3.56368
3.7026
3.74128
3.74022
3.6841
3.55938
3.39482
3.19232
2.95753
2.70425
2.45683
2.22165
2.01301
1.82277
1.66764
1.54457
1.44123
1.36711
1.31622
1.30421
1.30761
1.3518
1.43856
1.52524
1.57677
1.61412
1.6715
1.70303
1.70642
1.68231
1.66981
1.67412
1.69172
1.7598
1.83803
1.85166
1.82594
1.71757
1.56214
1.49734
1.46772
1.4443
1.3723
1.25828
1.12103
1.02993
0.982999
0.953706
0.951846
0.960015
0.998587
1.09272
1.22171
1.30988
1.3324
1.30123
1.17943
1.02464
0.929709
0.899164
0.883121
0.838024
0.831142
0.867624
1.01312
1.17301
1.33329
1.70821
2.59956
3.2545
2.99575
2.51146
1.87593
1.71184
1.82419
2.27803
2.98923
3.17872
2.81249
2.44097
2.37637
2.61348
3.00911
3.17148
3.23775
3.26548
2.84472
2.68772
2.67079
2.76478
2.90501
3.04971
3.27112
3.60308
4.03132
4.39856
4.53894
4.78832
4.89318
4.96834
5.32887
5.94922
6.25333
6.20352
6.30069
6.51315
6.5963
6.7787
7.13564
7.05952
6.72854
6.58307
6.25505
5.99482
5.98857
5.60782
5.44397
5.9056
6.87232
6.78193
6.21047
5.33134
4.96893
5.52156
6.46475
6.4095
5.65854
5.25893
5.3582
5.95153
6.96763
8.0964
9.25901
10.2574
11.469
12.697
12.8562
11.2451
10.0978
9.68588
9.1076
8.43093
7.84703
0.744775
0.954591
0.807811
0.550709
0.336028
0.225094
0.193208
0.188293
0.190932
0.193244
0.192737
0.190351
0.185867
0.181513
0.173968
0.17066
0.172381
0.181533
0.203722
0.252556
0.353367
0.385774
0.378352
0.364149
0.378014
0.471717
0.641035
0.706771
0.862964
1.36697
1.65929
1.78187
1.91006
1.9903
2.0051
1.93933
1.82581
1.70988
1.58029
1.43021
1.2687
1.10555
0.944488
0.789578
0.647991
0.531905
0.442545
0.370973
0.319631
0.280049
0.252497
0.232762
0.220283
0.21182
0.209591
0.209852
0.215255
0.227085
0.245706
0.265672
0.286108
0.302446
0.317485
0.338854
0.352494
0.355045
0.354513
0.358075
0.37208
0.396106
0.449855
0.499801
0.510991
0.504189
0.464553
0.41777
0.407755
0.409651
0.41194
0.403789
0.375724
0.339411
0.324273
0.321714
0.32613
0.343857
0.37927
0.429089
0.468012
0.52841
0.60834
0.671304
0.699101
0.698412
0.663171
0.595567
0.546239
0.524512
0.517992
0.536387
0.608367
0.716677
0.917385
1.43327
2.79049
3.37453
2.79091
1.82677
1.452
1.42725
1.61226
2.06957
2.43778
2.49718
2.0359
1.50906
1.40877
1.54623
1.98913
2.26168
2.44594
2.98275
3.13512
2.88166
2.42505
2.32176
2.39488
2.5973
2.60393
2.4527
2.37965
2.43802
2.59798
2.64718
2.70435
2.69827
2.7716
2.98056
3.1356
3.22286
3.256
3.33077
3.34401
3.48011
3.91958
3.84532
3.77381
3.73383
3.68725
3.56041
3.62015
3.67458
3.63691
3.93357
4.97881
5.26292
5.47302
5.53143
5.18088
4.39642
4.95485
6.17577
6.07738
4.98522
3.96279
3.78121
4.2011
5.00418
5.7576
6.53233
7.01683
7.57807
7.46754
5.7969
4.25143
3.83776
3.87228
3.85527
3.72247
3.54468
1.57734
1.38929
0.796203
0.349691
0.204208
0.175083
0.176468
0.188744
0.205103
0.214572
0.217525
0.215078
0.210539
0.203226
0.193526
0.182787
0.168828
0.163882
0.168407
0.179489
0.204376
0.235831
0.302975
0.395443
0.494013
0.788318
1.23318
1.36948
1.41327
1.44399
1.44522
1.41738
1.31375
1.17479
1.02222
0.916344
0.789871
0.666018
0.564201
0.468394
0.383594
0.317479
0.263416
0.222295
0.19513
0.176183
0.165373
0.156392
0.151686
0.148264
0.145531
0.144633
0.144464
0.144805
0.146471
0.14972
0.154599
0.160164
0.167408
0.173842
0.177282
0.178676
0.17938
0.181482
0.183998
0.185944
0.186826
0.189063
0.192707
0.199727
0.219142
0.250498
0.258829
0.255653
0.245069
0.229687
0.226488
0.229843
0.23503
0.236045
0.229361
0.21685
0.213337
0.214192
0.219908
0.233593
0.260996
0.304353
0.33555
0.351997
0.383659
0.428889
0.460204
0.47999
0.476038
0.459599
0.411564
0.405869
0.426125
0.491973
0.633733
0.930843
1.61634
2.79714
3.13543
2.48981
1.52782
1.25304
1.2582
1.43274
1.75289
1.99781
2.03596
1.70141
1.2108
1.0404
1.03696
1.1604
1.25155
1.31451
1.61526
2.1829
2.6309
2.73783
2.33823
2.28193
2.39967
2.65107
2.6467
2.40413
2.17745
2.05879
2.04594
2.06161
2.05522
2.09844
2.4134
2.61087
2.63043
2.51478
2.54105
2.60603
2.60568
2.8164
3.35114
3.24972
2.94697
2.92322
2.89273
2.7562
2.85703
2.88664
3.04576
3.33824
4.52505
4.78874
4.61595
4.55002
4.56669
3.95384
4.84828
6.38989
6.23476
4.89641
3.63467
3.44948
3.85479
4.49643
4.97112
5.25231
5.29542
5.28896
4.88038
3.43701
2.48331
2.28432
2.30839
2.42185
2.61148
2.80838
2.56234
1.55136
0.604005
0.255265
0.178205
0.174064
0.198286
0.226238
0.231675
0.231108
0.228711
0.224596
0.219541
0.211482
0.203452
0.192904
0.17249
0.160706
0.159894
0.168721
0.196481
0.252168
0.376578
0.728648
1.08884
1.1754
1.17929
1.16281
1.10594
1.02584
0.919455
0.78882
0.654289
0.571028
0.478247
0.394127
0.330001
0.274232
0.232385
0.204559
0.182968
0.170837
0.164053
0.160718
0.158405
0.156273
0.154816
0.153464
0.152929
0.152534
0.151968
0.151309
0.151069
0.151176
0.152104
0.153102
0.154985
0.158556
0.163556
0.16857
0.171013
0.171488
0.169975
0.167137
0.16601
0.166022
0.167465
0.170612
0.171607
0.172347
0.177606
0.195707
0.211612
0.213267
0.210115
0.204597
0.199713
0.198717
0.200633
0.202836
0.202391
0.197487
0.196294
0.196068
0.196681
0.200694
0.214776
0.249747
0.279516
0.296646
0.308675
0.335286
0.334942
0.322179
0.312266
0.319156
0.331915
0.362061
0.449965
0.684338
1.13184
1.83618
2.51525
2.72023
2.2515
1.36111
1.1079
1.10598
1.23192
1.40389
1.55901
1.59868
1.49868
1.21216
0.92234
0.847001
0.847547
0.877091
0.919903
1.01532
1.16533
1.3833
1.80311
2.23001
2.30532
2.30583
2.33998
2.50641
2.52134
2.46894
2.19913
1.93065
1.81957
1.81944
1.78312
1.89835
2.42422
2.62883
2.59411
2.38865
2.36387
2.40481
2.39979
2.57783
3.01872
3.12104
2.7524
2.6715
2.64009
2.49317
2.52036
2.53674
2.83072
2.94589
3.16407
3.94139
4.04527
4.0081
3.85017
3.7302
5.078
7.30591
6.94723
4.97399
3.58074
3.3804
3.75649
4.17528
4.40664
4.41729
4.05983
3.71703
3.39634
2.55406
2.0184
1.88139
1.83439
1.83238
2.01286
2.52214
3.52286
1.60678
0.529768
0.223226
0.177083
0.188098
0.226583
0.239427
0.240836
0.238982
0.236946
0.234729
0.23046
0.222616
0.208758
0.189555
0.170676
0.165638
0.16771
0.184117
0.243142
0.419977
0.783976
0.973104
1.00182
0.986168
0.892532
0.77566
0.672867
0.589891
0.5032
0.422732
0.340636
0.280093
0.24187
0.205368
0.183338
0.168589
0.162937
0.161123
0.160853
0.16183
0.164245
0.166956
0.169926
0.172256
0.173967
0.175254
0.175417
0.174964
0.173261
0.171529
0.169076
0.168363
0.168298
0.168975
0.170602
0.173082
0.176741
0.181295
0.183983
0.184464
0.182672
0.176433
0.168961
0.166225
0.165857
0.169356
0.173027
0.173778
0.173285
0.180868
0.19996
0.209518
0.210334
0.208258
0.20191
0.197992
0.196049
0.195314
0.197469
0.19773
0.198114
0.196803
0.191582
0.18903
0.19603
0.223067
0.25273
0.268651
0.275292
0.271431
0.255266
0.247386
0.259193
0.288711
0.310174
0.372206
0.619839
1.25725
1.71109
2.15818
2.35043
1.99506
1.25171
1.00083
0.974581
1.07325
1.18751
1.24617
1.29452
1.30785
1.23634
1.02044
0.797228
0.745312
0.745021
0.768198
0.784142
0.792658
0.820571
0.991301
1.28206
1.71833
2.14923
2.23285
2.12465
1.89682
1.95427
2.37634
2.35543
1.9297
1.75594
1.75929
1.70084
1.88054
2.58584
2.8088
2.71496
2.47947
2.41869
2.39238
2.37671
2.5008
2.61092
2.9427
2.76319
2.64809
2.564
2.41178
2.30045
2.33282
2.69203
2.83177
2.64267
2.88266
3.31977
3.48082
3.42113
3.71794
5.21881
7.57986
7.49118
5.19119
3.5992
3.3912
3.72318
3.85067
3.70876
3.72235
3.23345
2.79621
2.61412
2.26022
1.91883
1.79443
1.69606
1.67181
1.70266
1.94041
4.47817
1.652
0.471807
0.21104
0.183482
0.199123
0.239033
0.258062
0.26223
0.26344
0.264522
0.26333
0.258367
0.245871
0.221869
0.197116
0.189962
0.193054
0.225283
0.315962
0.492303
0.69477
0.817422
0.834948
0.796951
0.648603
0.560358
0.487945
0.407476
0.341644
0.280679
0.240035
0.202962
0.176113
0.164383
0.158907
0.157265
0.157183
0.159215
0.163594
0.168651
0.173379
0.176995
0.179186
0.180956
0.181846
0.182372
0.182347
0.181716
0.179713
0.17656
0.174202
0.170498
0.169129
0.168951
0.16949
0.171312
0.174174
0.180239
0.187745
0.195482
0.203023
0.205465
0.205171
0.197471
0.185929
0.177849
0.176184
0.179369
0.1846
0.184444
0.182684
0.191156
0.206652
0.210787
0.211163
0.207009
0.201423
0.196198
0.193823
0.197112
0.201625
0.201769
0.198898
0.190587
0.184486
0.188585
0.201242
0.224662
0.23873
0.240555
0.23406
0.225166
0.230263
0.256533
0.277076
0.304309
0.412346
0.957112
1.52749
1.87499
1.99736
1.77334
1.16472
0.914807
0.862911
0.930376
1.04374
1.09373
1.12827
1.18498
1.19382
1.12266
0.930829
0.7239
0.679209
0.691733
0.707091
0.671201
0.646831
0.665306
0.698672
0.755544
0.955734
1.45012
1.75981
1.73871
1.33718
1.30869
1.89973
2.31074
1.96592
1.76581
1.80447
1.72756
1.94044
2.64425
2.83817
2.93925
3.13607
3.05258
2.54124
2.43288
2.53781
2.48641
2.74097
2.96548
2.80922
2.50683
2.37598
2.11773
2.19541
2.45594
2.76283
2.7771
2.54586
3.01423
3.24746
3.10719
3.80652
4.93505
7.04882
7.38849
5.47202
3.65665
3.4349
3.67259
3.68268
3.17002
2.94614
2.68472
2.37734
2.28778
2.18778
1.93642
1.82145
1.67257
1.65144
1.63304
1.6809
5.35102
1.68004
0.447772
0.210326
0.188752
0.205668
0.247151
0.269103
0.273053
0.274311
0.285782
0.296403
0.297355
0.290917
0.27936
0.276075
0.280793
0.319529
0.39578
0.491811
0.602315
0.661654
0.664893
0.607272
0.502664
0.425637
0.359218
0.306411
0.253929
0.214413
0.185094
0.1678
0.156292
0.152757
0.152055
0.152901
0.157096
0.162035
0.166922
0.171348
0.174648
0.177665
0.179383
0.180306
0.180541
0.180258
0.179289
0.178061
0.176254
0.17407
0.171864
0.169035
0.164807
0.163107
0.162758
0.163058
0.165032
0.168938
0.17656
0.183079
0.192109
0.201355
0.20969
0.216987
0.218696
0.217777
0.211674
0.20236
0.194445
0.19245
0.194094
0.190472
0.18668
0.188451
0.193618
0.196315
0.198702
0.199776
0.198979
0.197089
0.198408
0.201439
0.198704
0.192145
0.187673
0.182842
0.185029
0.191447
0.207264
0.21984
0.219424
0.217085
0.218681
0.229853
0.256817
0.271969
0.316816
0.496742
1.15322
1.61116
1.78055
1.65362
1.12643
0.85441
0.779677
0.793684
0.902788
0.97523
0.96262
0.981619
1.06265
1.08562
1.02908
0.810767
0.653941
0.630855
0.63322
0.622744
0.595847
0.593164
0.596395
0.584309
0.593297
0.695814
0.840758
0.98999
0.99769
0.974752
1.10697
1.37145
1.92898
1.8968
1.89256
2.09632
1.93933
2.05549
2.52328
2.65707
2.96295
3.44072
3.42793
2.68155
2.52143
2.65255
2.48208
2.59387
2.98384
2.82891
2.39741
2.27313
2.02824
2.11101
2.22856
2.60784
2.76694
2.55548
2.99857
3.21664
2.91488
4.20561
4.89886
4.82985
6.64105
5.48071
3.67145
3.43651
3.56915
3.5845
2.92186
2.51735
2.37321
2.21075
2.18655
2.22386
2.12347
2.01267
1.7163
1.63387
1.62579
1.61148
6.47053
1.72128
0.439168
0.233503
0.215924
0.23258
0.269805
0.280449
0.27834
0.277588
0.295812
0.318785
0.32858
0.332801
0.341154
0.353676
0.370489
0.401667
0.450279
0.508091
0.534831
0.531004
0.471585
0.398069
0.339765
0.282029
0.240582
0.204752
0.178638
0.160236
0.150618
0.147361
0.146642
0.147489
0.15181
0.155898
0.160307
0.165083
0.168591
0.171527
0.173446
0.173877
0.173542
0.17217
0.170282
0.168084
0.165909
0.163268
0.161096
0.15998
0.15963
0.160031
0.160804
0.160903
0.160594
0.160791
0.162854
0.167895
0.177996
0.187034
0.192082
0.19436
0.198665
0.206521
0.215263
0.219301
0.219941
0.218373
0.213737
0.206933
0.198544
0.192804
0.186533
0.18234
0.179832
0.179146
0.181602
0.186292
0.193843
0.19738
0.195854
0.19362
0.188002
0.181019
0.180843
0.180917
0.177316
0.182542
0.199014
0.212158
0.214106
0.214866
0.218838
0.230712
0.239119
0.265074
0.353423
0.643258
1.27866
1.58093
1.5526
1.19324
0.832785
0.726754
0.709134
0.754097
0.827684
0.814907
0.773816
0.763358
0.813701
0.840411
0.818259
0.715901
0.613369
0.585075
0.572847
0.562521
0.559916
0.552894
0.542635
0.52851
0.543213
0.609559
0.633665
0.77065
0.80238
0.792744
1.03532
1.14714
1.5232
1.86109
2.44933
3.00981
2.67437
2.24396
2.31012
2.30046
2.47957
3.04873
3.11289
2.59665
2.52487
2.67336
2.43886
2.43954
2.66909
2.45847
2.02177
1.99474
1.96577
2.00227
2.06963
2.27039
2.5529
2.56904
3.11494
3.29261
2.88676
4.21804
5.151
4.10743
6.51722
5.46369
3.64697
3.3788
3.39659
3.45555
2.89832
2.37487
2.22963
2.14043
2.19362
2.28179
2.23415
2.0773
1.78007
1.64088
1.61594
1.59612
7.06578
1.53227
0.382993
0.266076
0.266305
0.279479
0.280993
0.27872
0.276756
0.283685
0.323611
0.350342
0.355313
0.350705
0.353713
0.366483
0.381813
0.407854
0.432343
0.434398
0.418851
0.363758
0.32293
0.272163
0.232468
0.199354
0.17542
0.15726
0.146269
0.141508
0.140356
0.14075
0.144016
0.147643
0.151493
0.155383
0.157854
0.159853
0.161298
0.161702
0.161749
0.161712
0.161245
0.160057
0.15772
0.156411
0.156194
0.156425
0.156488
0.155122
0.153786
0.153792
0.156226
0.159289
0.159662
0.159043
0.159073
0.162662
0.172895
0.188918
0.196637
0.198204
0.19804
0.197211
0.19627
0.200232
0.207065
0.211636
0.212395
0.211615
0.208921
0.20517
0.195127
0.187478
0.181639
0.178603
0.17984
0.181095
0.180701
0.182517
0.182184
0.177896
0.175223
0.172068
0.170936
0.177446
0.174975
0.1763
0.189679
0.206518
0.212503
0.213534
0.214437
0.217149
0.227399
0.269592
0.404181
0.758888
1.29727
1.50153
1.36259
0.915884
0.704941
0.666117
0.673832
0.701743
0.692491
0.67009
0.6432
0.644592
0.69455
0.726697
0.718047
0.677605
0.586269
0.541561
0.529245
0.524027
0.516274
0.510113
0.500898
0.496701
0.515291
0.543768
0.521914
0.649725
0.744166
0.75027
0.906581
1.08295
1.36288
1.93736
2.80149
3.05321
2.82583
2.38425
2.25184
2.10584
1.92623
2.0365
2.24551
2.34599
2.53363
2.60741
2.41923
2.3367
2.28335
1.90529
1.79241
1.84688
1.90911
1.83722
1.88846
1.94913
2.3082
2.5738
3.13656
3.34905
2.9364
4.13774
5.30134
3.9809
6.71344
5.5393
3.54234
3.23356
3.19986
3.22276
2.91304
2.38271
2.17874
2.09827
2.19508
2.27017
2.22771
2.05357
1.77602
1.67309
1.62756
1.61208
8.07037
1.79932
0.472682
0.344578
0.340381
0.345278
0.343809
0.325449
0.307402
0.310359
0.359211
0.418876
0.424128
0.376609
0.347989
0.341572
0.341268
0.352596
0.353372
0.340509
0.303477
0.268964
0.23722
0.204552
0.175146
0.157474
0.144428
0.137927
0.135765
0.135451
0.136643
0.140448
0.143392
0.146382
0.14915
0.150703
0.151164
0.151392
0.151985
0.153423
0.155177
0.155962
0.156178
0.155953
0.154657
0.153873
0.153732
0.154548
0.155952
0.155871
0.153504
0.152904
0.15425
0.159163
0.161512
0.161337
0.159692
0.160835
0.16714
0.181032
0.201506
0.206969
0.206734
0.199015
0.192531
0.189245
0.188146
0.190122
0.196066
0.202262
0.207398
0.209966
0.210659
0.206354
0.197819
0.188303
0.186847
0.185656
0.180086
0.176855
0.177087
0.174109
0.173717
0.172217
0.167647
0.168736
0.171988
0.171677
0.181426
0.190363
0.200599
0.206688
0.208957
0.212813
0.226087
0.281782
0.459331
0.828585
1.23753
1.41853
1.25596
0.797808
0.64564
0.631365
0.654629
0.64216
0.595371
0.579796
0.574589
0.58428
0.635674
0.669988
0.658652
0.620756
0.557246
0.515412
0.502355
0.489854
0.47404
0.478139
0.478624
0.472326
0.468671
0.482748
0.483367
0.488297
0.669418
0.729302
0.763831
0.943854
1.06709
1.87288
2.58307
1.9346
2.47669
2.38452
2.28991
2.10239
1.81478
1.90991
2.12921
2.31516
2.55117
2.57333
2.42484
2.24789
1.99194
1.68367
1.6735
1.79816
1.85135
1.78812
1.79767
1.78481
2.11966
2.57597
2.89219
3.30501
3.01374
4.00166
5.19461
3.87876
6.91392
5.67722
3.37164
3.03815
3.01273
2.94643
2.87804
2.56277
2.19012
2.05861
2.16143
2.18168
2.10436
1.89601
1.76168
1.74012
1.71639
1.69543
9.31052
2.04788
0.644247
0.52581
0.517848
0.514036
0.504568
0.483082
0.427435
0.393077
0.407062
0.447204
0.44222
0.373036
0.31474
0.307256
0.30971
0.304718
0.276132
0.248993
0.232861
0.207629
0.182371
0.162176
0.145613
0.13755
0.133151
0.131836
0.131706
0.133346
0.137186
0.140003
0.141295
0.14151
0.140951
0.139706
0.139017
0.13818
0.137812
0.137704
0.138415
0.139717
0.141718
0.145361
0.151789
0.154352
0.154956
0.155727
0.159336
0.162454
0.162641
0.159745
0.158696
0.160424
0.167775
0.171488
0.171791
0.167817
0.166982
0.173049
0.188588
0.212222
0.219232
0.211798
0.195517
0.186391
0.184965
0.185807
0.186881
0.189906
0.197167
0.205911
0.21191
0.214963
0.215942
0.213558
0.211285
0.210173
0.198905
0.185587
0.180345
0.175725
0.176125
0.178685
0.170932
0.166422
0.168247
0.167818
0.169971
0.180454
0.192808
0.203541
0.2074
0.212201
0.229533
0.296681
0.509151
0.858898
1.14521
1.25825
1.1532
0.75231
0.612627
0.605516
0.632378
0.610765
0.549375
0.53033
0.528724
0.548528
0.5963
0.600489
0.578534
0.551574
0.525505
0.487991
0.470567
0.462449
0.4325
0.421788
0.438502
0.448841
0.442005
0.422096
0.462879
0.422693
0.578602
0.737365
0.706558
0.738745
0.915209
1.59526
1.33192
1.06764
1.89627
2.43141
2.55494
2.20956
1.76574
1.83442
2.14631
2.4244
2.65223
2.48186
2.26712
1.94516
1.66451
1.60442
1.66781
1.79878
1.85393
1.80808
1.80491
1.73401
1.96469
2.48725
2.38978
2.89727
2.97116
3.85713
4.77173
3.82329
6.90251
5.87415
3.22049
2.80182
2.80736
2.74989
2.77498
2.58977
2.1914
1.9579
1.99125
1.90434
1.83219
1.75102
1.76194
1.8544
1.79632
1.79285
10.9813
2.73968
1.09697
0.934773
0.865609
0.78389
0.728371
0.677576
0.658936
0.618504
0.569561
0.549437
0.520534
0.398217
0.305483
0.297332
0.307861
0.298482
0.25764
0.224372
0.20765
0.182716
0.160746
0.146406
0.137334
0.132863
0.130865
0.130434
0.131229
0.134972
0.138215
0.138365
0.137294
0.134603
0.132878
0.132102
0.130997
0.129001
0.127951
0.127821
0.128779
0.130461
0.133216
0.13699
0.145164
0.158788
0.165446
0.168358
0.170471
0.173531
0.174562
0.173987
0.169597
0.166582
0.166412
0.171593
0.179136
0.181393
0.175953
0.172261
0.172391
0.179268
0.202312
0.213048
0.212845
0.199075
0.188206
0.184346
0.185821
0.189127
0.195807
0.209157
0.218614
0.222195
0.222525
0.224205
0.220363
0.219075
0.219041
0.210715
0.199219
0.188533
0.182783
0.18348
0.178193
0.166857
0.165532
0.167431
0.16688
0.170829
0.183851
0.198258
0.205232
0.213358
0.235602
0.304899
0.525911
0.867863
1.07413
1.12582
1.03852
0.703118
0.584061
0.584926
0.618296
0.585399
0.505164
0.487475
0.487467
0.514211
0.545411
0.535427
0.53289
0.521337
0.491128
0.453287
0.442255
0.447449
0.426991
0.38989
0.388876
0.421715
0.440792
0.394884
0.427515
0.393311
0.493744
0.69607
0.702117
0.672042
0.821026
1.20878
0.915245
1.06338
1.90385
2.79186
2.74725
2.20855
1.71399
1.80262
2.34227
2.69277
2.59961
2.14825
2.14775
1.88597
1.59301
1.60541
1.70635
1.89825
1.89973
1.82514
1.8059
1.65612
1.83951
2.36903
2.31459
2.5581
2.9313
3.67641
4.33243
3.67182
6.43932
5.85891
3.24778
2.61029
2.55363
2.58078
2.57778
2.55205
2.18006
1.8266
1.76338
1.6345
1.6205
1.708
1.79873
1.91831
1.79102
1.78907
13.1845
3.95745
2.08501
1.50206
1.15594
0.923853
0.80637
0.721773
0.714175
0.712747
0.699086
0.705811
0.664484
0.445754
0.32276
0.305863
0.311929
0.308709
0.276621
0.233392
0.212046
0.187264
0.162712
0.146404
0.13813
0.134589
0.133634
0.133877
0.135724
0.139987
0.141471
0.141373
0.139011
0.133639
0.130893
0.129448
0.126831
0.124627
0.124045
0.124198
0.125523
0.128071
0.131107
0.135059
0.144563
0.165226
0.183836
0.190067
0.191354
0.189248
0.184902
0.181244
0.179444
0.174003
0.170658
0.170647
0.176046
0.187976
0.192771
0.190456
0.178678
0.17226
0.171779
0.182405
0.204474
0.212471
0.207544
0.196698
0.190147
0.189132
0.193475
0.208947
0.223981
0.231141
0.234494
0.233519
0.228019
0.217891
0.217776
0.215298
0.204735
0.194629
0.184482
0.182989
0.179175
0.168409
0.164528
0.166729
0.166265
0.165438
0.172741
0.189964
0.20192
0.212738
0.23693
0.30633
0.526561
0.856294
1.02883
1.06103
0.980068
0.683692
0.567338
0.571328
0.612155
0.582892
0.485148
0.451603
0.442091
0.457887
0.481926
0.486937
0.509281
0.508479
0.481507
0.432033
0.417716
0.435713
0.422847
0.37857
0.355698
0.359841
0.423774
0.374363
0.356108
0.368477
0.463688
0.685016
0.683256
0.632907
0.736666
0.84662
0.754176
1.04419
1.93402
2.94379
2.64937
1.9502
1.60744
1.93501
2.78393
2.66954
2.22429
1.80806
2.01737
2.01499
1.6672
1.66557
1.75703
1.92363
1.90483
1.82122
1.76225
1.60605
1.7213
2.18412
2.36537
2.4632
2.9945
3.5001
3.94098
3.41614
5.73578
5.79731
3.35285
2.4932
2.29867
2.34941
2.368
2.44196
2.15664
1.72401
1.55097
1.51677
1.53381
1.74803
1.86509
1.92811
1.73194
1.7114
15.957
5.34447
2.72031
1.64694
1.20977
0.939568
0.806991
0.707452
0.682915
0.69437
0.703058
0.71573
0.710353
0.614712
0.425238
0.342243
0.321655
0.317974
0.29542
0.251617
0.21916
0.195314
0.172217
0.155157
0.145255
0.140063
0.138151
0.137909
0.139772
0.14543
0.148446
0.147678
0.143641
0.136905
0.132174
0.128693
0.125892
0.124023
0.12344
0.12352
0.124813
0.12786
0.131571
0.135724
0.148649
0.181653
0.20692
0.214169
0.215688
0.214365
0.205806
0.194369
0.190611
0.188531
0.186523
0.186571
0.189883
0.195065
0.208087
0.216188
0.216757
0.197385
0.182404
0.178251
0.184313
0.198921
0.207968
0.205901
0.198131
0.195258
0.195172
0.199893
0.21333
0.221322
0.228222
0.23128
0.230195
0.219473
0.210047
0.207526
0.201551
0.19411
0.183524
0.178141
0.176812
0.168985
0.161278
0.162127
0.162699
0.160615
0.162913
0.177155
0.194937
0.208783
0.234073
0.301571
0.512001
0.826461
0.98598
1.01876
0.956371
0.688138
0.562724
0.562879
0.608351
0.590124
0.488565
0.43008
0.40419
0.409737
0.425487
0.447106
0.486582
0.49786
0.47457
0.417414
0.403057
0.421876
0.415749
0.371424
0.344905
0.329224
0.37763
0.353626
0.324059
0.329163
0.443817
0.651429
0.652067
0.612355
0.685442
0.713893
0.731598
0.907088
1.72142
2.21723
1.66818
1.38316
1.41329
2.12672
2.74659
2.42379
1.85795
1.6624
1.90621
2.30365
2.02118
1.89726
1.80184
1.85964
1.79978
1.74804
1.69556
1.53069
1.59823
1.93329
2.34827
2.39118
3.11567
3.30099
3.46114
3.09616
5.02607
5.74205
3.46585
2.42619
2.15248
2.1257
2.05558
2.11032
2.06727
1.70017
1.42705
1.47182
1.5115
1.75374
1.85659
1.85611
1.53372
1.46107
19.8662
5.90253
2.70751
1.50754
1.1058
0.849125
0.69671
0.624822
0.609274
0.604375
0.610768
0.629303
0.6433
0.622455
0.524107
0.441657
0.362104
0.31943
0.300381
0.257725
0.221536
0.197778
0.178656
0.163543
0.152551
0.145563
0.142455
0.14131
0.141511
0.143983
0.150504
0.153118
0.151549
0.144288
0.13552
0.130895
0.127507
0.125223
0.124074
0.124015
0.124917
0.128377
0.135519
0.142206
0.154574
0.187996
0.2355
0.250235
0.252211
0.25037
0.241938
0.226308
0.221864
0.221293
0.221736
0.227686
0.23374
0.240403
0.246907
0.252809
0.254026
0.253907
0.243289
0.217035
0.199089
0.191906
0.191701
0.193223
0.192934
0.189022
0.187184
0.186962
0.191065
0.194803
0.200807
0.202849
0.204955
0.205173
0.198402
0.189435
0.185388
0.184667
0.179146
0.169254
0.167008
0.16401
0.155189
0.149244
0.150285
0.149918
0.147225
0.15262
0.178229
0.198765
0.223684
0.28302
0.465743
0.775606
0.932186
0.975519
0.935414
0.707623
0.56581
0.557303
0.597733
0.588306
0.498695
0.417004
0.383839
0.384177
0.394587
0.42886
0.46325
0.470634
0.458094
0.403826
0.393455
0.404455
0.401225
0.361202
0.328667
0.309576
0.324823
0.316174
0.302529
0.315459
0.447952
0.613561
0.624069
0.598181
0.646191
0.638595
0.690609
0.76633
0.992293
1.14647
1.1665
1.18881
1.37324
2.09279
2.38304
2.05894
1.70151
1.6665
1.90656
2.25972
2.11325
1.89308
1.84356
1.76585
1.57697
1.53873
1.58225
1.49226
1.47683
1.66199
2.21825
2.21882
3.11147
3.08625
2.94116
2.73363
4.35897
5.69388
3.58267
2.38866
2.07504
1.97425
1.84606
1.85853
1.90211
1.64446
1.3586
1.39374
1.48676
1.70096
1.71994