/*--------------------------------*- C++ -*----------------------------------*\
| =========                 |                                                 |
| \\      /  F ield         | OpenFOAM: The Open Source CFD Toolbox           |
|  \\    /   O peration     | Version:  dev                                   |
|   \\  /    A nd           | Web:      http://www.openfoam.org               |
|    \\/     M anipulation  |                                                 |
\*---------------------------------------------------------------------------*/
FoamFile
{
    version     2.0;
    format      ascii;
    class       volScalarField;
    object      muSgs;
    location    "9.137";
}
// * * * * * * * * * * * * * * * * * * * * * * * * * * * * * * * * * * * * * //

dimensions      [1 -1 -1 0 0 0 0];

internalField   nonuniform List<scalar> 
12225
(
0.000233424
0.000240122
0.000192034
0.000190843
0.00017839
0.000204062
0.00020976
0.000236104
0.000240637
0.000273272
0.000276471
0.000303212
0.000305199
0.000354839
0.00039027
0.000463263
0.000524018
0.000688242
9.70338e-05
0.000190771
0.000181013
0.00019051
0.000168819
0.00017586
0.000165615
0.000168512
0.000164343
0.000167451
0.000171884
0.000168115
0.000162666
0.00015243
0.000152825
0.000161847
0.000181154
0.00023194
2.82921e-05
0.000105499
0.000120983
0.000152133
0.000146014
0.000149916
0.000147257
0.000149229
0.000140814
0.000142934
0.000147374
0.000144774
0.000136271
0.000112056
0.000108984
0.000110099
0.00013515
0.000193803
1.25605e-05
5.36788e-05
6.66001e-05
8.80026e-05
9.78692e-05
9.73365e-05
9.88363e-05
0.000109457
0.000104545
9.79808e-05
9.80873e-05
0.000111832
0.00011001
9.95762e-05
0.000102938
0.000120308
0.000114882
0.000193132
9.35202e-06
3.37652e-05
4.29198e-05
4.85485e-05
6.13195e-05
6.16396e-05
6.67264e-05
7.25612e-05
7.57471e-05
7.40957e-05
8.09727e-05
8.86666e-05
8.6197e-05
9.14262e-05
0.000103732
0.000124343
0.000134957
0.00018926
5.9767e-06
4.88083e-05
4.71953e-05
4.65508e-05
4.976e-05
5.10978e-05
5.73683e-05
5.96426e-05
6.64161e-05
6.75568e-05
7.48441e-05
7.84944e-05
8.53196e-05
8.64119e-05
9.29962e-05
0.000115059
0.000140305
0.000206083
1.42629e-05
5.2299e-05
5.81102e-05
5.77636e-05
5.72378e-05
5.80602e-05
5.86773e-05
6.11869e-05
6.61091e-05
6.6646e-05
6.76106e-05
7.30185e-05
8.51004e-05
9.25205e-05
0.000101824
0.000117657
0.000137251
0.00021878
1.6971e-05
2.16138e-05
3.19088e-05
4.64609e-05
4.80303e-05
5.87999e-05
5.84553e-05
5.84735e-05
5.75087e-05
5.63812e-05
5.98662e-05
5.93538e-05
6.021e-05
7.0897e-05
7.82968e-05
7.84382e-05
9.8711e-05
0.000108855
1.50669e-05
1.63982e-05
2.32985e-05
3.32606e-05
4.45434e-05
5.88569e-05
6.02315e-05
6.1619e-05
6.08452e-05
6.08408e-05
5.9938e-05
5.83584e-05
6.18492e-05
5.92648e-05
6.18007e-05
6.13446e-05
7.7375e-05
8.5581e-05
1.48056e-05
1.7009e-05
2.13275e-05
2.53191e-05
3.69041e-05
4.1358e-05
5.44064e-05
5.21796e-05
5.33518e-05
5.18904e-05
5.47117e-05
5.43405e-05
5.49169e-05
5.20165e-05
5.29783e-05
5.34838e-05
6.04891e-05
6.15958e-05
1.82115e-05
2.01934e-05
2.26563e-05
2.50767e-05
3.16189e-05
3.36048e-05
4.19387e-05
3.94999e-05
3.96285e-05
3.97807e-05
4.58901e-05
4.80255e-05
4.91362e-05
4.78533e-05
4.74075e-05
4.75045e-05
4.91071e-05
5.0898e-05
2.66132e-05
2.93951e-05
2.92944e-05
2.97965e-05
3.24045e-05
3.3698e-05
3.64534e-05
3.59194e-05
3.58862e-05
3.66939e-05
4.21654e-05
4.39005e-05
4.53781e-05
4.56976e-05
4.61684e-05
4.58348e-05
4.58701e-05
4.62278e-05
4.18282e-05
4.4227e-05
4.30089e-05
4.12536e-05
3.89891e-05
3.84519e-05
3.87641e-05
3.84209e-05
3.83754e-05
3.89074e-05
4.25684e-05
4.5127e-05
4.72864e-05
4.78119e-05
4.7811e-05
4.75292e-05
4.73397e-05
4.74063e-05
6.02251e-05
6.14407e-05
5.97607e-05
5.7996e-05
5.3808e-05
5.08275e-05
4.84103e-05
4.75249e-05
4.66188e-05
4.63443e-05
4.80455e-05
5.01602e-05
5.13258e-05
5.18047e-05
5.18107e-05
5.15697e-05
5.11762e-05
5.09251e-05
8.24537e-05
8.35672e-05
8.14611e-05
7.97199e-05
7.71982e-05
7.43356e-05
7.03917e-05
6.80707e-05
6.53625e-05
6.38216e-05
6.23055e-05
6.12482e-05
6.06876e-05
6.03708e-05
6.00397e-05
5.99267e-05
5.9442e-05
5.89766e-05
0.000112078
0.000111412
0.000106462
0.00010185
9.64901e-05
9.15674e-05
8.66965e-05
8.26854e-05
7.92717e-05
7.66334e-05
7.44088e-05
7.26457e-05
7.10946e-05
6.97695e-05
6.9149e-05
6.88991e-05
6.83355e-05
6.7817e-05
0.000129605
0.00012711
0.000120378
0.000114301
0.000107986
0.00010202
9.64356e-05
9.17238e-05
8.77977e-05
8.46093e-05
8.20244e-05
7.98553e-05
7.80031e-05
7.63959e-05
7.54225e-05
7.51482e-05
7.45646e-05
7.39984e-05
0.000127992
0.000126128
0.000119875
0.000114162
0.000108003
0.000102027
9.649e-05
9.1775e-05
8.78593e-05
8.46317e-05
8.20165e-05
7.98177e-05
7.78895e-05
7.62634e-05
7.51762e-05
7.49103e-05
7.43643e-05
7.38145e-05
0.000109467
0.000108795
0.000105062
0.000101292
9.6466e-05
9.14767e-05
8.687e-05
8.29509e-05
7.96715e-05
7.6891e-05
7.45962e-05
7.26192e-05
7.08791e-05
6.93912e-05
6.83156e-05
6.80476e-05
6.75587e-05
6.7088e-05
8.39228e-05
8.35976e-05
8.11254e-05
7.90154e-05
7.66813e-05
7.37372e-05
7.1096e-05
6.88846e-05
6.68894e-05
6.50298e-05
6.33241e-05
6.17366e-05
6.03183e-05
5.90798e-05
5.82136e-05
5.79157e-05
5.74435e-05
5.71634e-05
6.05944e-05
6.09394e-05
5.93652e-05
5.77882e-05
5.60449e-05
5.36219e-05
5.15503e-05
4.98835e-05
4.84506e-05
4.72863e-05
4.61578e-05
4.50093e-05
4.39626e-05
4.29956e-05
4.20603e-05
4.12996e-05
4.07909e-05
4.09726e-05
4.18766e-05
4.33583e-05
4.29161e-05
4.21219e-05
4.11692e-05
3.98614e-05
3.85316e-05
3.72131e-05
3.60543e-05
3.51739e-05
3.4286e-05
3.35286e-05
3.27905e-05
3.22111e-05
3.17904e-05
3.1664e-05
3.17451e-05
3.22063e-05
2.71071e-05
2.87408e-05
2.95444e-05
2.94143e-05
2.86491e-05
2.8001e-05
2.75562e-05
2.73691e-05
2.73376e-05
2.79539e-05
2.81308e-05
2.8346e-05
2.81366e-05
2.80916e-05
2.79472e-05
2.82059e-05
2.85183e-05
2.90106e-05
1.80981e-05
1.97069e-05
1.95008e-05
1.9754e-05
2.12663e-05
2.28379e-05
2.34894e-05
2.41516e-05
2.47827e-05
2.59607e-05
2.6524e-05
2.70728e-05
2.70926e-05
2.73607e-05
2.75198e-05
2.80172e-05
2.84052e-05
2.88586e-05
9.95356e-06
1.13378e-05
1.36997e-05
1.63751e-05
2.03656e-05
2.36089e-05
2.57557e-05
2.75613e-05
2.91537e-05
3.06856e-05
3.16663e-05
3.24023e-05
3.26671e-05
3.31721e-05
3.3592e-05
3.40668e-05
3.43149e-05
3.44844e-05
4.37931e-06
9.0583e-06
1.52369e-05
2.3884e-05
3.27155e-05
3.83944e-05
4.21348e-05
4.46185e-05
4.6636e-05
4.78461e-05
4.86472e-05
4.91035e-05
4.92545e-05
4.95206e-05
4.96549e-05
4.95458e-05
4.91868e-05
4.83506e-05
5.61474e-06
2.03815e-05
3.73686e-05
5.55631e-05
6.72836e-05
7.35611e-05
7.68298e-05
7.83016e-05
7.91298e-05
7.8993e-05
7.86329e-05
7.81919e-05
7.75924e-05
7.70028e-05
7.61619e-05
7.47112e-05
7.30915e-05
7.10795e-05
2.02132e-05
6.23224e-05
9.78895e-05
0.000120625
0.000130321
0.000132457
0.000130808
0.000128205
0.000125756
0.000123129
0.000120519
0.000117887
0.000115133
0.000111962
0.000108562
0.000104799
0.000100857
9.66104e-05
8.05061e-05
0.000166513
0.000193796
0.000194472
0.000188633
0.000181353
0.000175111
0.000169635
0.000164024
0.000159066
0.000154365
0.000149731
0.000145011
0.000140153
0.000135391
0.000130313
0.000125424
0.0001184
0.000232086
0.000266464
0.000243593
0.000208815
0.000189472
0.000181965
0.000179944
0.000181106
0.00018286
0.000184153
0.000184592
0.000184127
0.000182773
0.000180635
0.00017792
0.00017385
0.000168915
0.000160602
2.55252e-05
3.69371e-05
4.68086e-05
5.38713e-05
5.62523e-05
5.80647e-05
6.08273e-05
6.33437e-05
6.59095e-05
6.93159e-05
7.33016e-05
7.81286e-05
8.47044e-05
9.08972e-05
9.63958e-05
0.000103353
0.000109376
0.000115417
0.000120814
0.000123581
0.00012649
0.000128954
0.000130554
0.000132432
0.000136135
0.000143538
0.000151816
0.00015751
0.000160264
0.000161814
0.000163496
0.000168334
0.000176765
0.000186236
0.000195213
0.00020343
0.000212398
0.000223099
0.000235221
0.000247477
0.000259334
0.00027071
0.000281425
0.000291368
0.00030052
0.000308761
0.000315919
0.000321842
0.000326788
0.000330358
0.000332976
0.000335084
0.00033667
0.000337188
0.000337411
0.000337386
0.000337332
0.000337303
0.00033753
0.000337865
0.000338133
0.000338073
0.000337954
0.000337769
0.000337237
0.000336394
0.000334738
0.000332788
0.000330951
0.000328922
0.000327001
0.000325362
0.000323047
0.000320091
0.000316093
0.000311171
0.000306597
0.0003023
0.00029803
0.000292608
0.000286548
0.000279423
0.000272761
0.000267179
0.000262418
0.000259297
0.000257193
0.000257167
0.000258201
0.000258605
0.000256849
0.000252753
0.000245537
0.000235886
0.000227931
0.000223677
0.000222343
0.000222425
0.000226295
0.000233439
0.000243386
0.00024902
0.000248752
0.000243591
0.000246875
0.000249429
0.000248077
0.000245517
0.000247117
0.000242175
0.000224934
0.000214688
0.00022391
0.000264178
0.000323257
0.000343143
0.000338649
0.000319376
0.000304712
0.000297197
0.000292564
0.000279333
0.000275612
0.000275561
0.000288176
0.000306672
0.000332088
0.000351811
0.00037478
0.000400376
0.000424691
0.000446922
0.000466863
0.000486899
0.00050897
0.000531456
0.000551918
0.000573625
0.000596475
0.000611321
0.000622236
0.00063119
0.000637366
0.000644784
0.000648511
0.000650006
0.000637057
0.000619751
0.000600572
0.000576319
0.000557023
0.000538639
0.000510033
0.000508043
0.000533057
0.000548503
0.000514784
0.00046925
0.000427958
0.000420512
0.000466601
0.000532078
0.000547124
0.000540897
0.00055821
0.00061892
0.000687643
0.000741293
0.000779809
0.00079042
0.000795567
0.000807882
0.000837228
0.00089265
0.000925755
0.000930596
0.000921253
0.000910913
0.00090024
0.000877375
4.65734e-05
5.83588e-05
6.74432e-05
6.40733e-05
5.86862e-05
5.39069e-05
4.84605e-05
4.5098e-05
4.36271e-05
4.28499e-05
4.20209e-05
4.16561e-05
4.17162e-05
4.2029e-05
4.34494e-05
4.75901e-05
5.23958e-05
5.90697e-05
6.7759e-05
7.59566e-05
8.33498e-05
8.47525e-05
8.35385e-05
8.08668e-05
7.94037e-05
8.06471e-05
8.73689e-05
9.03622e-05
8.88931e-05
9.02613e-05
9.53504e-05
9.8678e-05
0.000112968
0.000139348
0.000154573
0.000164522
0.000171903
0.000177792
0.000181299
0.000182696
0.000183282
0.000182221
0.000179417
0.000175554
0.000170519
0.000164419
0.000157597
0.000150698
0.000143844
0.000137509
0.000131505
0.000126574
0.000122642
0.000119369
0.000117141
0.00011632
0.00011686
0.000118164
0.000121543
0.000126499
0.000130926
0.000133854
0.000136558
0.000140088
0.000142095
0.000143167
0.000143205
0.000144188
0.000145811
0.000148112
0.000152776
0.000156835
0.00015818
0.000157652
0.000153438
0.000147824
0.000146517
0.000146641
0.000146691
0.000143802
0.000138629
0.000131533
0.000126857
0.000124842
0.000123811
0.000124875
0.000126694
0.000131295
0.000139271
0.000148783
0.000155398
0.000158495
0.000158308
0.000152085
0.000142689
0.000136288
0.000134271
0.000134111
0.000132191
0.000134064
0.000138726
0.000151805
0.000162743
0.000174924
0.000208945
0.000252067
0.000257757
0.000240303
0.000222012
0.000194391
0.000186943
0.000194527
0.000219784
0.000253339
0.000262774
0.000240729
0.000219255
0.000217741
0.000231129
0.000247018
0.000254681
0.000262084
0.000266772
0.00025134
0.000246879
0.00024664
0.000251758
0.000259459
0.000269951
0.000283284
0.000299167
0.000316963
0.000331747
0.000338696
0.000351205
0.000359898
0.000367123
0.000384533
0.000410807
0.000427626
0.000433494
0.000440257
0.000450958
0.00045756
0.000464977
0.000480497
0.000482798
0.000472195
0.000469252
0.000462443
0.000455132
0.000457249
0.000447564
0.000442704
0.000459131
0.000500148
0.000505415
0.000492357
0.000467137
0.000469718
0.000497434
0.000535906
0.000537751
0.000512141
0.000501512
0.000509278
0.000520202
0.000540969
0.000564137
0.00057933
0.000593949
0.000624841
0.000657724
0.000672858
0.00063918
0.00060355
0.000588172
0.000569794
0.000547326
0.000523984
7.46691e-05
8.35941e-05
7.75104e-05
6.47633e-05
5.06249e-05
4.16561e-05
3.8863e-05
3.84914e-05
3.87529e-05
3.90697e-05
3.91847e-05
3.9008e-05
3.86475e-05
3.85227e-05
3.78539e-05
3.77468e-05
3.82886e-05
3.92803e-05
4.26531e-05
4.76938e-05
5.59617e-05
6.0645e-05
6.06698e-05
5.87057e-05
6.0201e-05
6.86514e-05
8.12191e-05
8.5235e-05
9.23518e-05
0.000112429
0.000121229
0.000124768
0.000128656
0.000130797
0.000131365
0.000129227
0.000125675
0.000121946
0.000117346
0.000111626
0.000105118
9.80593e-05
9.05279e-05
8.26987e-05
7.49757e-05
6.817e-05
6.24597e-05
5.74933e-05
5.37217e-05
5.06606e-05
4.85524e-05
4.70206e-05
4.60903e-05
4.56882e-05
4.58128e-05
4.62149e-05
4.72963e-05
4.90815e-05
5.14618e-05
5.38647e-05
5.62791e-05
5.82573e-05
6.02431e-05
6.27692e-05
6.41899e-05
6.47625e-05
6.51874e-05
6.63065e-05
6.84507e-05
7.16067e-05
7.74222e-05
8.19029e-05
8.30732e-05
8.2416e-05
7.86706e-05
7.53077e-05
7.53627e-05
7.64724e-05
7.72856e-05
7.66268e-05
7.40069e-05
7.01555e-05
6.8599e-05
6.86424e-05
6.9129e-05
7.14377e-05
7.53364e-05
8.15046e-05
8.74723e-05
9.58534e-05
0.000105218
0.000112559
0.000115784
0.000115467
0.000112907
0.000107881
0.000102912
0.000100304
9.94844e-05
0.000101996
0.000110113
0.000120391
0.000140656
0.000183191
0.000247997
0.000259051
0.000233682
0.000192022
0.000171192
0.000171022
0.000187204
0.000215877
0.000231593
0.000225933
0.000193829
0.000165903
0.000167833
0.000182957
0.000202885
0.000212429
0.000227642
0.000254951
0.000262038
0.000256199
0.00023232
0.000229285
0.000234406
0.000244768
0.000247632
0.000244115
0.000244422
0.000248623
0.000256052
0.000255595
0.00025849
0.000261128
0.000265233
0.000277168
0.000289277
0.000306712
0.000313353
0.0003138
0.000321834
0.000330184
0.000340951
0.000355264
0.000358588
0.000349315
0.000352047
0.000352497
0.000349956
0.000357971
0.000369153
0.000364707
0.000394997
0.000431201
0.000459655
0.000472282
0.000475646
0.00046145
0.00047032
0.000516015
0.000536629
0.000516063
0.000476421
0.000454023
0.000438122
0.00044572
0.000459614
0.000476727
0.000492559
0.000513773
0.000515796
0.000471829
0.000401501
0.000374537
0.000370156
0.000370188
0.000361795
0.000348442
0.000109801
0.000100648
7.7438e-05
5.15258e-05
3.94777e-05
3.67913e-05
3.69446e-05
3.81923e-05
3.98297e-05
4.08459e-05
4.12718e-05
4.11213e-05
4.08485e-05
4.02589e-05
3.93819e-05
3.8493e-05
3.71622e-05
3.70954e-05
3.80581e-05
3.99885e-05
4.3794e-05
4.63809e-05
5.31732e-05
6.35027e-05
7.19422e-05
8.77157e-05
0.000104086
0.000108183
0.000109652
0.000110338
0.000110284
0.000108963
0.00010481
9.9242e-05
9.28464e-05
8.81546e-05
8.16873e-05
7.50701e-05
6.91013e-05
6.28447e-05
5.69219e-05
5.19149e-05
4.74368e-05
4.38748e-05
4.14672e-05
3.97552e-05
3.88152e-05
3.80337e-05
3.77523e-05
3.75282e-05
3.74443e-05
3.75679e-05
3.77503e-05
3.80101e-05
3.84577e-05
3.90987e-05
3.99171e-05
4.08139e-05
4.18876e-05
4.28224e-05
4.33975e-05
4.38567e-05
4.43034e-05
4.49649e-05
4.56327e-05
4.61478e-05
4.65227e-05
4.71461e-05
4.799e-05
4.93757e-05
5.25777e-05
5.67363e-05
5.81827e-05
5.81671e-05
5.6736e-05
5.50106e-05
5.49596e-05
5.58272e-05
5.67307e-05
5.69939e-05
5.64041e-05
5.49105e-05
5.43653e-05
5.46911e-05
5.53599e-05
5.72504e-05
6.06836e-05
6.62156e-05
7.05599e-05
7.42857e-05
7.95079e-05
8.64164e-05
9.08719e-05
9.18512e-05
9.27607e-05
9.52073e-05
9.07562e-05
8.8283e-05
9.04496e-05
9.78634e-05
0.000111642
0.000137144
0.000183515
0.00024138
0.000247364
0.000221483
0.000175576
0.000158748
0.000161363
0.000176776
0.000197313
0.000207166
0.000204588
0.000178537
0.000149999
0.000145949
0.000152378
0.000155407
0.000155585
0.000164909
0.000189151
0.000219152
0.000242267
0.000248876
0.000228957
0.000225828
0.000233215
0.000243145
0.000242486
0.000235551
0.000229345
0.000226215
0.00022719
0.000225583
0.000224086
0.000228254
0.000242329
0.000250057
0.000252775
0.000264923
0.000270557
0.000263195
0.000272802
0.000284136
0.000286046
0.000310433
0.000310176
0.000292082
0.000294758
0.000300325
0.00029218
0.000298344
0.000333972
0.000312564
0.000325616
0.000374157
0.000410236
0.000423061
0.000447438
0.000437783
0.000434203
0.000473767
0.000518547
0.00052004
0.000474067
0.000439396
0.000410466
0.000409596
0.000418053
0.000428555
0.000432124
0.000432084
0.000426449
0.000366811
0.000301902
0.000283831
0.000277215
0.000285159
0.00029623
0.000306854
0.00014172
0.000106533
6.74693e-05
4.3992e-05
3.69101e-05
3.67614e-05
3.93439e-05
4.18105e-05
4.24559e-05
4.25659e-05
4.24184e-05
4.22384e-05
4.20835e-05
4.15018e-05
4.07643e-05
3.95658e-05
3.74739e-05
3.65697e-05
3.64171e-05
3.77954e-05
4.19839e-05
4.98025e-05
6.31105e-05
8.40758e-05
9.68909e-05
9.89002e-05
9.88022e-05
9.79841e-05
9.5342e-05
9.18335e-05
8.68812e-05
8.0433e-05
7.36369e-05
6.90528e-05
6.30316e-05
5.72988e-05
5.24897e-05
4.78976e-05
4.43314e-05
4.18245e-05
3.98106e-05
3.88038e-05
3.8327e-05
3.81848e-05
3.8121e-05
3.80902e-05
3.81539e-05
3.82327e-05
3.83873e-05
3.85487e-05
3.86706e-05
3.87986e-05
3.8988e-05
3.92197e-05
3.95441e-05
3.9842e-05
4.02628e-05
4.08734e-05
4.15875e-05
4.22623e-05
4.2546e-05
4.27053e-05
4.26149e-05
4.24775e-05
4.26626e-05
4.30071e-05
4.36339e-05
4.4408e-05
4.48728e-05
4.52633e-05
4.64116e-05
4.95641e-05
5.20828e-05
5.27465e-05
5.24819e-05
5.19824e-05
5.16232e-05
5.14922e-05
5.18467e-05
5.22651e-05
5.26669e-05
5.22844e-05
5.19803e-05
5.19369e-05
5.18272e-05
5.22638e-05
5.41367e-05
5.93148e-05
6.38533e-05
6.74336e-05
7.04447e-05
7.48535e-05
7.45141e-05
7.22373e-05
7.28856e-05
7.56947e-05
7.6125e-05
7.96209e-05
9.09558e-05
0.000113739
0.000149554
0.000193365
0.000223935
0.00022823
0.00021129
0.000165855
0.000149431
0.000149723
0.000161543
0.000175553
0.000182234
0.000177149
0.000165998
0.000148091
0.000132844
0.000130952
0.000130081
0.000131455
0.000139588
0.000149739
0.000157029
0.000172371
0.000202327
0.000225461
0.000228475
0.000224256
0.000222918
0.000228675
0.000227972
0.000228993
0.000220802
0.00021167
0.000210043
0.00020951
0.000206757
0.000216807
0.000242997
0.000249069
0.000246144
0.000253386
0.000255452
0.00024338
0.000253177
0.000263058
0.000252338
0.000286243
0.000292628
0.000267477
0.000265024
0.000275785
0.00026037
0.00026567
0.000315027
0.000286265
0.000264932
0.000307913
0.000360861
0.000381544
0.000402389
0.000424913
0.000404746
0.000430819
0.000493445
0.000510861
0.00047425
0.000432577
0.000396935
0.000388526
0.000392937
0.000395353
0.000379395
0.000363577
0.000356202
0.000306222
0.000266291
0.00025325
0.000242739
0.000239832
0.000254876
0.000284492
0.00016807
0.000108329
6.31667e-05
4.14338e-05
3.70578e-05
3.82576e-05
4.15637e-05
4.24303e-05
4.2666e-05
4.25784e-05
4.26857e-05
4.32283e-05
4.36487e-05
4.32658e-05
4.19224e-05
3.9764e-05
3.77042e-05
3.75099e-05
3.84446e-05
4.15237e-05
4.92227e-05
6.49641e-05
8.43283e-05
9.0034e-05
9.07843e-05
8.95937e-05
8.50248e-05
7.92727e-05
7.4148e-05
6.96499e-05
6.43818e-05
5.89727e-05
5.29126e-05
4.82403e-05
4.4913e-05
4.14635e-05
3.94287e-05
3.81626e-05
3.78273e-05
3.78643e-05
3.80734e-05
3.84624e-05
3.90049e-05
3.95694e-05
4.01581e-05
4.06314e-05
4.10276e-05
4.13266e-05
4.15188e-05
4.16217e-05
4.15945e-05
4.15738e-05
4.15293e-05
4.16893e-05
4.19166e-05
4.22077e-05
4.2604e-05
4.30887e-05
4.36391e-05
4.42761e-05
4.45607e-05
4.46651e-05
4.441e-05
4.36267e-05
4.28813e-05
4.27929e-05
4.30561e-05
4.39556e-05
4.47627e-05
4.51202e-05
4.53147e-05
4.68182e-05
5.02118e-05
5.18223e-05
5.20967e-05
5.17244e-05
5.09606e-05
5.06347e-05
5.06128e-05
5.07119e-05
5.1528e-05
5.18743e-05
5.18986e-05
5.19117e-05
5.12346e-05
5.05885e-05
5.07558e-05
5.43545e-05
5.92904e-05
6.36252e-05
6.62612e-05
6.62419e-05
6.365e-05
6.31865e-05
6.66108e-05
7.02698e-05
7.1453e-05
8.09618e-05
0.000107521
0.000155443
0.000182427
0.000203837
0.000210946
0.000197478
0.000158404
0.000140667
0.000137786
0.000146456
0.000159725
0.000168606
0.000169953
0.000164723
0.000153518
0.000137638
0.000124041
0.000121278
0.000123201
0.000128104
0.000129559
0.000126796
0.000130312
0.000147692
0.000167195
0.000191292
0.000213709
0.00022074
0.000206662
0.000196949
0.000202911
0.000223447
0.000225865
0.00020849
0.00020402
0.000203407
0.000201424
0.000218953
0.000248566
0.000252837
0.000245646
0.000252692
0.000253417
0.000239901
0.000247263
0.000253561
0.000230501
0.000265804
0.000289541
0.000265888
0.00025623
0.000264234
0.000241355
0.000251302
0.00029482
0.00028828
0.000265247
0.000263028
0.000312763
0.000338026
0.00036604
0.000426415
0.00036935
0.000366257
0.000452253
0.000494912
0.000471344
0.000428118
0.000387404
0.000367288
0.000359439
0.000367072
0.000341171
0.000314799
0.000307767
0.000277635
0.000258487
0.000246833
0.000239074
0.000230858
0.000229445
0.000241104
0.000191185
0.000109727
5.96661e-05
4.02441e-05
3.71548e-05
3.8687e-05
4.22772e-05
4.39348e-05
4.44628e-05
4.46535e-05
4.51728e-05
4.59177e-05
4.6296e-05
4.56659e-05
4.36447e-05
4.14768e-05
4.1069e-05
4.20613e-05
4.64206e-05
5.51886e-05
6.72511e-05
7.74763e-05
8.18832e-05
8.23923e-05
8.00068e-05
7.20787e-05
6.74597e-05
6.29963e-05
5.7625e-05
5.28126e-05
4.79325e-05
4.44016e-05
4.07961e-05
3.83375e-05
3.73161e-05
3.69892e-05
3.70724e-05
3.73418e-05
3.79513e-05
3.88045e-05
3.96946e-05
4.04994e-05
4.11569e-05
4.16408e-05
4.20628e-05
4.2382e-05
4.26289e-05
4.28039e-05
4.28909e-05
4.28077e-05
4.26227e-05
4.25278e-05
4.23054e-05
4.23844e-05
4.25869e-05
4.2847e-05
4.32323e-05
4.37589e-05
4.46063e-05
4.55672e-05
4.64936e-05
4.72885e-05
4.74975e-05
4.74313e-05
4.6503e-05
4.52423e-05
4.46488e-05
4.47815e-05
4.55925e-05
4.64333e-05
4.65573e-05
4.63575e-05
4.7881e-05
5.01517e-05
5.08899e-05
5.11258e-05
5.07899e-05
5.03783e-05
5.00964e-05
5.0077e-05
5.08576e-05
5.18781e-05
5.20588e-05
5.20401e-05
5.16424e-05
5.09761e-05
5.05042e-05
5.12025e-05
5.48111e-05
5.84836e-05
5.98161e-05
5.94564e-05
5.96902e-05
6.2471e-05
6.62704e-05
6.76975e-05
7.12602e-05
8.5932e-05
0.00013402
0.000169634
0.000186627
0.00019198
0.000183541
0.000151654
0.000134008
0.000128934
0.000133163
0.000142824
0.000149843
0.000155112
0.000161746
0.000161988
0.000152239
0.000135341
0.000118643
0.000116435
0.000119892
0.00012025
0.000114891
0.000114148
0.000119027
0.000122355
0.000126041
0.000144942
0.000179163
0.000191483
0.000187735
0.000161493
0.000164409
0.000200649
0.000221855
0.000208038
0.000202865
0.000203007
0.000206622
0.000223615
0.000246141
0.000250338
0.000255259
0.000274925
0.000271791
0.00024512
0.000245282
0.000249221
0.000228798
0.00025229
0.000287776
0.000268316
0.000256264
0.000260896
0.000233189
0.000248892
0.000269313
0.000287153
0.000299093
0.000265617
0.000296542
0.000309694
0.000339586
0.000427805
0.000332094
0.000318333
0.000399688
0.000479161
0.000467137
0.000424863
0.000378448
0.000354317
0.000329275
0.000327416
0.000308144
0.000284216
0.000277683
0.000266083
0.000261371
0.000255291
0.000244135
0.000237138
0.000226685
0.000227769
0.000210385
0.000110605
5.81634e-05
4.0407e-05
3.84308e-05
4.04155e-05
4.41629e-05
4.58269e-05
4.60164e-05
4.58179e-05
4.70592e-05
4.8647e-05
4.93354e-05
4.93978e-05
4.89953e-05
4.91201e-05
4.99132e-05
5.34381e-05
5.90429e-05
6.48974e-05
7.11012e-05
7.35147e-05
7.3294e-05
6.97126e-05
6.33446e-05
5.85655e-05
5.38344e-05
4.97109e-05
4.52443e-05
4.16413e-05
3.88791e-05
3.71946e-05
3.6291e-05
3.6237e-05
3.65044e-05
3.70075e-05
3.79366e-05
3.88772e-05
3.97874e-05
4.05964e-05
4.12529e-05
4.18358e-05
4.22312e-05
4.25198e-05
4.27138e-05
4.28369e-05
4.28705e-05
4.28665e-05
4.27783e-05
4.26642e-05
4.25517e-05
4.23394e-05
4.20379e-05
4.20931e-05
4.22673e-05
4.25287e-05
4.30195e-05
4.37571e-05
4.49051e-05
4.58566e-05
4.70208e-05
4.80527e-05
4.89189e-05
4.94886e-05
4.94812e-05
4.93259e-05
4.86546e-05
4.76637e-05
4.70286e-05
4.7158e-05
4.76839e-05
4.75161e-05
4.72824e-05
4.77335e-05
4.86084e-05
4.92267e-05
4.99011e-05
5.02564e-05
5.0512e-05
5.05012e-05
5.06173e-05
5.1268e-05
5.11789e-05
5.06548e-05
5.07574e-05
5.10609e-05
5.10403e-05
5.06914e-05
5.28568e-05
5.61099e-05
5.70622e-05
5.80221e-05
6.02442e-05
6.26698e-05
6.51375e-05
6.62818e-05
7.25629e-05
9.41591e-05
0.000147728
0.000171845
0.000180032
0.00017441
0.00014784
0.000128984
0.000122218
0.000121896
0.000129589
0.000135274
0.000134714
0.000137037
0.000144996
0.00014677
0.000140943
0.000124315
0.000112259
0.000112858
0.000113483
0.000110416
0.00010794
0.00011036
0.000111832
0.000112117
0.000115066
0.000127552
0.000139614
0.000144296
0.000145645
0.000141456
0.000150885
0.000169018
0.000200884
0.000204329
0.000206714
0.000210552
0.000214899
0.000223813
0.000235676
0.0002392
0.000251164
0.000280355
0.000280027
0.00025306
0.000246849
0.000240206
0.000231464
0.000247728
0.000274123
0.000260135
0.000252625
0.000252585
0.000235225
0.000251604
0.000252322
0.000276549
0.000295882
0.000282383
0.00030141
0.000297311
0.000324681
0.000437568
0.000340566
0.000287914
0.00035557
0.000455571
0.000460114
0.000420474
0.000369476
0.000348912
0.000313773
0.000294315
0.000283336
0.000271595
0.000270889
0.000276168
0.000278259
0.000278057
0.000253077
0.000242337
0.000233261
0.000227584
0.000232074
0.000111469
5.73864e-05
4.27899e-05
4.10004e-05
4.2338e-05
4.52857e-05
4.5889e-05
4.58064e-05
4.60767e-05
4.77367e-05
4.98673e-05
5.11882e-05
5.20062e-05
5.31137e-05
5.42507e-05
5.5649e-05
5.78224e-05
6.10287e-05
6.44858e-05
6.55098e-05
6.5031e-05
6.11702e-05
5.63241e-05
5.21325e-05
4.75089e-05
4.3948e-05
4.06016e-05
3.80704e-05
3.62626e-05
3.55896e-05
3.55778e-05
3.59126e-05
3.64511e-05
3.73748e-05
3.8185e-05
3.89968e-05
3.97827e-05
4.03782e-05
4.08991e-05
4.12132e-05
4.13799e-05
4.14387e-05
4.13592e-05
4.12187e-05
4.1048e-05
4.08752e-05
4.06598e-05
4.05252e-05
4.0514e-05
4.05972e-05
4.07935e-05
4.10619e-05
4.12767e-05
4.14609e-05
4.17237e-05
4.22615e-05
4.32429e-05
4.48263e-05
4.62007e-05
4.70718e-05
4.7628e-05
4.84176e-05
4.95254e-05
5.03798e-05
5.05357e-05
5.04591e-05
5.02819e-05
4.98577e-05
4.91873e-05
4.83158e-05
4.78851e-05
4.75294e-05
4.72431e-05
4.72223e-05
4.72773e-05
4.77731e-05
4.86005e-05
4.96329e-05
5.02919e-05
5.0293e-05
5.01562e-05
4.96676e-05
4.88568e-05
4.8677e-05
4.95963e-05
4.97981e-05
4.96835e-05
5.09393e-05
5.43009e-05
5.61295e-05
5.72528e-05
5.87662e-05
6.0336e-05
6.09647e-05
6.45344e-05
7.7e-05
0.000107804
0.000155997
0.000168862
0.000166926
0.000149289
0.000126401
0.000117636
0.000114581
0.000116944
0.000123054
0.000122515
0.000119381
0.000119995
0.000126073
0.0001286
0.000126667
0.000117846
0.000109585
0.000107417
0.0001041
0.000101783
0.000101841
0.0001019
0.000101266
0.000102309
0.00010789
0.000116456
0.000123058
0.000133228
0.000133066
0.00013046
0.000147756
0.00015637
0.000177339
0.000205033
0.000230862
0.000241584
0.000243748
0.00022915
0.000218739
0.000208001
0.000218884
0.000247732
0.000251784
0.00024036
0.000244664
0.000232725
0.000225372
0.000241326
0.000252437
0.000255705
0.000247158
0.000238456
0.000240938
0.000249083
0.000245559
0.000259756
0.00027838
0.000289456
0.00030483
0.000293888
0.000326206
0.000420481
0.000380512
0.00029332
0.000340828
0.000438853
0.000450999
0.000414342
0.000359354
0.000344061
0.000315077
0.000279089
0.000269983
0.00027116
0.000281124
0.000292367
0.000293707
0.000288178
0.00026318
0.000247361
0.00024162
0.000232755
0.000243098
0.000107041
5.42721e-05
4.50673e-05
4.52132e-05
4.64532e-05
4.64075e-05
4.63832e-05
4.63899e-05
4.71716e-05
5.0698e-05
5.27367e-05
5.3408e-05
5.32596e-05
5.33858e-05
5.4304e-05
5.51601e-05
5.7232e-05
5.87956e-05
5.90427e-05
5.77696e-05
5.37022e-05
5.06709e-05
4.64936e-05
4.30717e-05
3.99903e-05
3.75867e-05
3.577e-05
3.4783e-05
3.46553e-05
3.4939e-05
3.54251e-05
3.62046e-05
3.69048e-05
3.75785e-05
3.82112e-05
3.86718e-05
3.9104e-05
3.94335e-05
3.96659e-05
3.98268e-05
3.99614e-05
4.00222e-05
3.99579e-05
3.97481e-05
3.97002e-05
3.97507e-05
3.98601e-05
3.99475e-05
3.97959e-05
3.97012e-05
3.97691e-05
4.02594e-05
4.07861e-05
4.10569e-05
4.11999e-05
4.13644e-05
4.20793e-05
4.37302e-05
4.60583e-05
4.72635e-05
4.79402e-05
4.83537e-05
4.85731e-05
4.8621e-05
4.91236e-05
4.98431e-05
5.02029e-05
5.02318e-05
5.02124e-05
5.01397e-05
4.96569e-05
4.85003e-05
4.78488e-05
4.74467e-05
4.73712e-05
4.77169e-05
4.81904e-05
4.82359e-05
4.85301e-05
4.88517e-05
4.81967e-05
4.78937e-05
4.79474e-05
4.73194e-05
4.82583e-05
4.93003e-05
4.97939e-05
4.98384e-05
5.17611e-05
5.3709e-05
5.47052e-05
5.60939e-05
5.76842e-05
5.92568e-05
6.48828e-05
8.22361e-05
0.000117294
0.000156992
0.000164391
0.000155021
0.000130282
0.000114971
0.0001112
0.000109914
0.000111573
0.000112077
0.000110295
0.000108139
0.000109725
0.000115788
0.000118896
0.0001182
0.000114013
0.000105248
0.000100345
9.78927e-05
9.75378e-05
9.64594e-05
9.57175e-05
9.55478e-05
9.76623e-05
0.000101439
0.000101793
0.000106332
0.000121002
0.00013016
0.000127177
0.000133162
0.000153446
0.000169137
0.000209023
0.000243587
0.000232245
0.000249598
0.000237457
0.000212199
0.000194104
0.000191262
0.000208067
0.000217983
0.000219621
0.000240003
0.000237214
0.000230211
0.000238329
0.000235755
0.000242903
0.000251387
0.000241959
0.000251803
0.000241455
0.000238677
0.000240007
0.00026578
0.00029496
0.000297277
0.000290986
0.000336259
0.000387999
0.000403711
0.000310413
0.000349468
0.000432735
0.000440852
0.000405852
0.000350565
0.000332083
0.000320901
0.000284381
0.000267652
0.00027501
0.000292544
0.000298331
0.000295609
0.000283717
0.000263549
0.000249031
0.000244904
0.00023895
0.000258469
0.00011595
6.12616e-05
5.27165e-05
5.20011e-05
5.2243e-05
5.2246e-05
5.07967e-05
4.95695e-05
5.02919e-05
5.42105e-05
5.77535e-05
5.77437e-05
5.43962e-05
5.20412e-05
5.16741e-05
5.21694e-05
5.31531e-05
5.30904e-05
5.17523e-05
4.88411e-05
4.61954e-05
4.34816e-05
4.05194e-05
3.75989e-05
3.58381e-05
3.44882e-05
3.405e-05
3.41248e-05
3.44652e-05
3.50054e-05
3.57946e-05
3.63366e-05
3.68573e-05
3.73696e-05
3.77635e-05
3.80936e-05
3.83847e-05
3.86774e-05
3.90133e-05
3.93312e-05
3.94847e-05
3.95885e-05
3.96223e-05
3.94976e-05
3.94122e-05
3.9368e-05
3.95091e-05
3.97613e-05
3.98508e-05
3.96176e-05
3.95131e-05
3.97516e-05
4.05872e-05
4.11779e-05
4.1422e-05
4.13139e-05
4.13984e-05
4.22617e-05
4.44465e-05
4.70937e-05
4.81558e-05
4.85296e-05
4.814e-05
4.80342e-05
4.81544e-05
4.81303e-05
4.83127e-05
4.90187e-05
4.97678e-05
5.031e-05
5.07758e-05
5.0927e-05
5.03212e-05
4.93358e-05
4.85171e-05
4.85846e-05
4.86576e-05
4.83918e-05
4.78074e-05
4.80599e-05
4.80121e-05
4.75295e-05
4.77843e-05
4.70982e-05
4.66239e-05
4.80197e-05
4.93064e-05
5.01121e-05
5.03315e-05
5.22135e-05
5.39039e-05
5.55215e-05
5.71487e-05
5.95042e-05
6.65258e-05
8.7604e-05
0.000122473
0.000153288
0.000160844
0.000148422
0.000120419
0.00010939
0.000107492
0.000107073
0.000105557
0.000102633
0.000101625
0.000101837
0.000104094