/*--------------------------------*- C++ -*----------------------------------*\
| =========                 |                                                 |
| \\      /  F ield         | OpenFOAM: The Open Source CFD Toolbox           |
|  \\    /   O peration     | Version:  dev                                   |
|   \\  /    A nd           | Web:      http://www.openfoam.org               |
|    \\/     M anipulation  |                                                 |
\*---------------------------------------------------------------------------*/
FoamFile
{
    version     2.0;
    format      ascii;
    class       volScalarField;
    object      p;
    location    "9.137";
}
// * * * * * * * * * * * * * * * * * * * * * * * * * * * * * * * * * * * * * //

dimensions      [1 -1 -2 0 0 0 0];

internalField   nonuniform List<scalar> 
12225
(
104066
103927
103738
103504
103224
102915
102578
102229
101869
101518
101162
100816
100474
100151
99798.8
99429.4
99028.6
98177.5
104057
103922
103734
103499
103220
102910
102574
102225
101865
101514
101158
100811
100468
100145
99794.1
99448.3
99016
98513.8
104042
103911
103724
103490
103211
102901
102565
102216
101856
101504
101151
100803
100459
100133
99793.4
99446.5
99088.2
98680.7
104021
103893
103708
103474
103195
102886
102550
102201
101843
101490
101136
100791
100447
100124
99787.1
99454.7
99104.9
98755.9
103994
103867
103684
103450
103172
102863
102528
102179
101826
101471
101121
100769
100430
100112
99784.9
99460.9
99108.1
98796.8
103953
103828
103648
103415
103138
102831
102497
102148
101797
101445
101097
100741
100397
100076
99767.4
99465.7
99114.1
98786.4
103895
103774
103598
103367
103092
102786
102454
102108
101757
101404
101057
100714
100373
100052
99746.8
99451.1
99135.4
98793.8
103832
103715
103540
103312
103040
102734
102403
102061
101712
101364
101016
100675
100345
100027
99722.2
99426.5
99155.3
98833.7
103765
103652
103480
103253
102982
102678
102349
102009
101664
101315
100969
100632
100303
99987.4
99689.6
99403.5
99139.4
98873.6
103678
103570
103399
103174
102905
102604
102278
101939
101597
101249
100908
100576
100253
99939.7
99649.3
99368.9
99111.3
98876.4
103569
103461
103291
103068
102803
102506
102183
101846
101508
101164
100829
100499
100187
99877.7
99588.1
99313.2
99066.6
98837.3
103424
103315
103149
102930
102669
102375
102057
101725
101391
101055
100722
100396
100083
99783.2
99499.7
99232.6
98986.2
98763.3
103233
103124
102962
102747
102491
102202
101891
101565
101234
100903
100576
100256
99950.3
99656.6
99376.5
99114.6
98870.4
98646.8
102971
102873
102716
102507
102257
101975
101670
101352
101028
100703
100383
100071
99769.1
99481.5
99206.7
98948.8
98706.8
98482.3
102645
102549
102397
102194
101951
101677
101381
101072
100756
100440
100127
99822.7
99528.4
99248.2
98978
98723.2
98483.9
98259.8
102222
102133
101988
101792
101557
101292
101007
100708
100403
100097
99794.4
99498.4
99211.6
98935.5
98674.9
98425.4
98189.6
97967.5
101703
101613
101473
101286
101061
100807
100534
100248
99955.2
99661.3
99370.1
99085.1
98808.2
98541.4
98286
98044.1
97813.5
97595.5
101108
101025
100891
100711
100496
100255
99994.3
99721.9
99443.1
99162.6
98884.4
98611.6
98346.2
98089.6
97843.2
97607.7
97384.4
97172.6
100538
100464
100336
100165
99960.3
99729.9
99481.1
99220.8
98954.4
98686.4
98420.3
98158.9
97904.4
97658.1
97420.9
97193.7
96976.9
96771.7
100063
99987.7
99864.6
99700.8
99504.5
99282.7
99043.5
98793.3
98537.4
98279.9
98024
97772.4
97527.1
97289.6
97060.8
96841.2
96631.3
96431.5
99668.7
99594.3
99477
99319.2
99128.6
98913.7
98682.4
98440.8
98193.6
97944.9
97697.5
97454.2
97216.7
96986.4
96764.7
96551.7
96347.9
96153.3
99343.6
99276.7
99164.3
99011.2
98826
98617.5
98393.1
98158.6
97918.7
97677.1
97436.6
97200
96968.9
96744.8
96528.7
96321.2
96122.9
95933.9
99087.2
99027.6
98919
98769.8
98589.3
98386.2
98167.4
97938.7
97704.7
97468.7
97233.9
97002.6
96776.6
96557.4
96345.8
96142.5
95948.2
95763.4
98890.1
98836.7
98731.4
98585.3
98408.9
98210.2
97996.1
97772.2
97542.7
97311.1
97080.6
96853.3
96631.3
96415.7
96207.5
96007.6
95816.2
95633.5
98745.1
98694.8
98592.1
98448.7
98275.4
98080.2
97869.7
97649.4
97423.4
97195.3
96968
96743.8
96524.6
96311.7
96106
95908.5
95719.3
95538.4
98641.9
98593.5
98492.3
98350.9
98180
97987.4
97779.7
97562
97338.7
97113
96888.1
96666.1
96449
96237.9
96034.1
95838.2
95650.5
95471.1
98574.2
98524.2
98423.5
98283.9
98114.7
97924.2
97718.4
97502.6
97281.1
97057.2
96833.9
96613.5
96397.8
96188.1
95985.5
95790.6
95604
95425.6
98534.9
98481
98380.2
98241.6
98073.2
97884
97679.5
97465
97244.6
97021.8
96799.5
96580.1
96365.3
96156.5
95954.7
95760.6
95574.5
95396.7
98512.1
98455.6
98353.9
98215.3
98049.3
97861.3
97657.7
97443.9
97224.1
97001.9
96780.3
96561.4
96347
96138.6
95937.1
95743.2
95556.9
95379.4
98504.6
98445.3
98343
98204
98039
97851.6
97648.4
97434.9
97215.4
96993.5
96772
96553.3
96339.1
96130.9
95929.5
95735.7
95549.8
95372.3
97626.3
97623
97616
97604.8
97589
97568.1
97542.1
97511.1
97475.2
97434.8
97390.2
97341.9
97290.2
97235.7
97179
97120.4
97060.5
96999.7
96937.8
96875.4
96812.7
96750.2
96689.4
96630.5
96574
96520.7
96470.9
96424.9
96383.8
96348.9
96320.8
96299.5
96285
96277.6
96277.9
96286.7
96304.1
96332
96369.5
96417.2
96475.4
96544.2
96624.1
96715.2
96817.9
96932.3
97058.6
97196.9
97347
97508.7
97681.8
97865.8
98060.8
98266.2
98481.4
98706.3
98941.2
99185.4
99437.4
99697.2
99964.7
100238
100519
100806
101098
101395
101696
102002
102311
102623
102938
103255
103574
103894
104214
104534
104854
105172
105490
105805
106116
106424
106728
107027
107321
107612
107900
108187
108474
108761
109049
109332
109619
109905
110191
110479
110768
111059
111356
111661
111971
112287
112605
112927
113257
113583
113892
114188
114473
114742
114978
115202
115388
115526
115611
115645
115635
115582
115486
115343
115156
114926
114664
114373
114049
113704
113335
112944
112551
112168
111796
111439
111100
110781
110493
110237
110023
109855
109731
109645
109593
109586
109616
109674
109770
109909
110083
110291
110524
110774
111044
111354
111688
112004
112352
112730
113110
113480
113836
114205
114590
114955
115242
115490
115781
116184
116667
117164
117622
118015
118325
118521
118570
118450
118151
117690
117119
116454
115686
114839
97647.1
97643.8
97636.5
97624.9
97608.6
97587.4
97561.3
97530.5
97494.9
97454.8
97410.5
97362.3
97310.9
97256.8
97200.3
97142.1
97082.7
97022.3
96960.1
96898.5
96836.5
96774.8
96713.7
96654.6
96597.5
96543.1
96492.4
96445.9
96404.4
96368.9
96341.2
96321.4
96309.1
96301
96300.1
96307.3
96323.5
96348.4
96383.6
96429.6
96486.4
96554.1
96633
96723.3
96825.2
96938.7
97064.4
97202
97351.3
97512.1
97684.2
97867.1
98060.5
98264.6
98478.5
98702
98935.2
99177.3
99427.5
99685
99949.4
100222
100501
100785
101075
101370
101668
101971
102278
102587
102900
103215
103532
103849
104167
104484
104800
105116
105431
105743
106052
106358
106658
106953
107245
107532
107816
108099
108383
108669
108954
109239
109524
109807
110092
110379
110667
110957
111252
111554
111863
112177
112495
112817
113143
113467
113775
114066
114349
114619
114863
115085
115268
115403
115488
115526
115524
115478
115386
115249
115066
114841
114581
114293
113974
113634
113272
112886
112500
112121
111755
111405
111073
110762
110481
110232
110024
109862
109744
109666
109624
109625
109662
109728
109832
109972
110152
110367
110605
110860
111135
111442
111789
112109
112451
112818
113191
113561
113916
114288
114676
115036
115312
115551
115843
116249
116724
117200
117635
118011
118305
118491
118531
118403
118097
117629
117054
116386
115614
114762
97687.9
97684.5
97676.7
97664.4
97647.5
97625.9
97599.7
97569
97533.6
97493.8
97449.8
97402
97351
97297.2
97241.2
97183.7
97125
97065.3
97004.5
96943.3
96882.2
96821
96760.1
96700.1
96642.8
96588.5
96537.3
96490.8
96450.3
96415.5
96385.4
96358.8
96339.2
96330.4
96329.6
96336.7
96352
96376.1
96409.9
96454
96508.8
96574.7
96652.1
96740.9
96841.1
96953
97077
97213
97360.4
97519
97688.8
97869.6
98060.7
98262.2
98473.5
98694
98923.9
99162.8
99409.5
99663.1
99923.5
100191
100466
100746
101032
101321
101614
101912
102213
102517
102824
103134
103447
103761
104073
104384
104695
105005
105314
105621
105925
106225
106520
106810
107096
107377
107654
107929
108205
108484
108765
109048
109329
109609
109890
110175
110463
110751
111044
111344
111648
111958
112271
112591
112912
113226
113531
113825
114110
114381
114628
114845
115024
115155
115244
115299
115311
115271
115186
115061
114889
114669
114418
114139
113827
113495
113149
112777
112401
112031
111679
111341
111022
110726
110459
110222
110028
109876
109770
109708
109685
109703
109760
109844
109955
110111
110298
110526
110776
111042
111328
111631
111993
112313
112641
112984
113353
113730
114085
114468
114848
115192
115467
115701
116001
116399
116836
117265
117657
118003
118269
118432
118452
118317
117993
117515
116932
116259
115478
114620
97747.2
97743.5
97735.3
97722.5
97705.2
97683.4
97657.2
97626.5
97591.3
97551.6
97507.6
97459.8
97408.9
97355.3
97299.7
97242.6
97186.5
97127.5
97068.1
97008.3
96947.7
96887.2
96827.3
96768.3
96710.9
96656.6
96605.1
96555.4
96508.7
96471.4
96439.4
96414.3
96394.5
96381.8
96377.1
96381.1
96393.9
96416
96447.8
96489.7
96542.3
96606
96680.9
96767.2
96865.2
96974.8
97096.1
97229
97373.3
97529
97695.7
97873
98060.7
98258.2
98465.6
98682.2
98907.9
99141.7
99382.8
99630.9
99885.8
100147
100415
100689
100968
101250
101537
101827
102121
102417
102715
103016
103321
103629
103935
104239
104542
104844
105144
105443
105739
106032
106320
106603
106882
107155
107424
107690
107956
108224
108497
108772
109048
109321
109596
109876
110160
110447
110740
111037
111336
111638
111945
112254
112567
112876
113178
113473
113759
114029
114271
114479
114653
114792
114896
114965
114986
114958
114891
114779
114616
114410
114175
113910
113613
113291
112960
112609
112250
111897
111560
111241
110942
110667
110419
110205
110031
109894
109801
109761
109763
109802
109888
110000
110115
110294
110505
110739
111008
111293
111590
111898
112258
112566
112882
113191
113566
113954
114309
114712
115065
115371
115660
115904
116224
116598
116978
117344
117682
117983
118205
118328
118326
118167
117831
117347
116754
116070
115281
114411
97822.8
97818.9
97810.4
97797.4
97780.4
97758.7
97732.7
97702.3
97667.2
97627.5
97583.5
97535.7
97484.8
97431.4
97376.2
97320
97263.4
97205.9
97147.7
97089.4
97030.5
96971.1
96912.1
96853.4
96795.7
96740.4
96688.4
96639.9
96595.4
96552
96514.6
96484.7
96462
96446.6
96439
96439.8
96449.4
96468.5
96497.2
96536.2
96585.8
96646.7
96718.7
96802.1
96896.8
97003.1
97121
97250.2
97390.7
97542.2
97704
97876.6
98059.3
98251.7
98453.5
98664.6
98884.3
99111.5
99345.9
99587.4
99835.6
100090
100351
100615
100884
101157
101434
101715
102000
102286
102574
102864
103158
103455
103752
104047
104341
104633
104923
105211
105497
105781
106060
106336
106606
106870
107128
107382
107638
107894
108159
108425
108692
108959
109227
109498
109773
110057
110347
110636
110925
111218
111514
111816
112122
112425
112721
113012
113297
113567
113810
114017
114188
114331
114443
114521
114555
114547
114494
114393
114249
114068
113848
113599
113326
113028
112707
112383
112051
111722
111401
111101
110824
110576
110352
110168
110020
109904
109830
109815
109851
109916
110030
110182
110303
110494
110760
111004
111292
111588
111895
112219
112569
112871
113193
113448
113819
114211
114565
114999
115278
115530
115838
116119
116471
116817
117128
117421
117695
117940
118108
118183
118145
117950
117615
117122
116524
115824
115015
114127
97912.4
97908.3
97899.8
97887.1
97870
97848.6
97822.9
97792.7
97758.1
97719.1
97675.9
97628.8
97578.4
97525.4
97470.6
97414.8
97358.5
97301.9
97244.5
97186.3
97127.7
97068.7
97009.1
96949.7
96891.2
96834.6
96780.2
96728.3
96681.4
96638.6
96600.5
96568.3
96542.6
96523.9
96512.9
96510.2
96516.2
96531.6
96556.6
96592
96638.2
96695.5
96764
96843.7
96934.6
97037
97150.6
97275.1
97410.4
97556.3
97712.7
97878.9
98054.8
98240.4
98435.2
98638.6
98850.7
99070.3
99296.6
99529.8
99769.7
100016
100266
100521
100780
101043
101308
101577
101850
102126
102403
102680
102960
103244
103529
103812
104094
104374
104652
104928
105201
105473
105742
106007
106269
106526
106773
107013
107254
107494
107748
108005
108265
108526
108786
109048
109316
109594
109875
110151
110426
110708
110996
111291
111587
111878
112165
112447
112723
112990
113242
113461
113637
113780
113895
113978
114025
114026
113983
113907
113796
113638
113440
113215
112962
112697
112401
112097
111796
111492
111198
110918
110663
110444
110254
110098
109971
109882
109838
109856
109934
110036
110168
110364
110519
110712
111028
111304
111635
111906
112248
112578
112904
113232
113571
113799
114126
114491
114840
115293
115466
115676
115979
116320
116714
117032
117263
117478
117676
117861
117969
117991
117904
117678
117347
116846
116238
115518
114682
113777
98013.1
98008.8
98000.7
97988.2
97971.5
97950.5
97925.3
97896
97862.4
97824.7
97782.9
97737.4
97688.5
97636.8
97582.9
97527.7
97471.5
97414.3
97356.1
97297
97237
97176.4
97115.5
97055.2
96996
96938.5
96883.6
96830.7
96781.4
96736.4
96696
96661
96632.1
96609.9
96595.2
96588.5
96590.8
96602.9
96623.3
96654.6
96696.7
96750.2
96814.6
96889.9
96976.4
97074
97182.2
97300.9
97429.9
97569.2
97718.2
97877
98045.2
98222.1
98407.9
98602.7
98805.6
99015.9
99233.1
99457.1
99687
99922.2
100161
100405
100653
100904
101158
101414
101674
101936
102201
102466
102732
102999
103269
103538
103806
104073
104337
104600
104859
105116
105370
105621
105870
106118
106360
106591
106810
107038
107276
107520
107769
108019
108268
108522
108785
109054
109324
109589
109853
110125
110404
110686
110967
111245
111520
111787
112044
112295
112544
112773
112963
113117
113239
113332
113383
113390
113369
113326
113243
113117
112959
112770
112532
112283
112030
111756
111481
111190
110927
110676
110446
110257
110105
109972
109861
109797
109786
109843
109970
110131
110284
110489
110723
110952
111276
111578
111970
112277
112620
112968
113265
113599
113941
114220
114486
114786
115133
115563
115689
115874
116108
116506
116932
117213
117358
117499
117616
117724
117769
117744
117617
117375
117020
116511
115874
115137
114287
113378
98120
98115.9
98108.3
98096.6
98080.7
98060.7
98036.7
98008.7
97976.5
97940.2
97900.3
97856.9
97809.8
97759.7
97706.9
97652.2
97595.8
97537.9
97478.4
97417.6
97356
97293.8
97231.7
97170
97109.1
97049.4
96991.5
96937.8
96887.1
96839.9
96796.9
96758.9
96726.6
96700.9
96682.3
96671.8
96669.7
96676.3
96694.4
96722.4
96760.7
96809.4
96868.6
96938.6
97019.6
97111.3
97213.1
97324.9
97446.6
97577.9
97718.4
97868
98026.4
98193.4
98369.1
98553.1
98744.9
98943.6
99149.4
99362.9
99583.2
99806.3
100035
100267
100502
100740
100981
101224
101469
101716
101966
102217
102469
102722
102975
103228
103480
103732
103981
104229
104474
104715
104953
105187
105418
105649
105883
106111
106308
106523
106746
106973
107205
107440
107679
107926
108182
108442
108703
108958
109212
109472
109737
110003
110268
110534
110797
111052
111296
111534
111768
111988
112186
112351
112483
112580
112632
112656
112657
112628
112566
112478
112366
112220
112037
111817
111590
111347
111101
110833
110577
110362
110157
109986
109874
109778
109685
109628
109646
109740
109904
110142
110357
110555
110857
111188
111497
111817
112307
112619
113003
113362
113645
113945
114254
114606
114828
115070
115423
115750
115960
116096
116236
116669
117098
117328
117397
117468
117519
117526
117509
117453
117302
117030
116616
116078
115414
114662
113814
112896
98230.1
98226
98218.9
98207.8
98192.5
98173.3
98150.3
98123.4
98092.2
98057.3
98019.3
97978.3
97933.6
97885.2
97833.7
97779.6
97723.3
97664.6
97604.2
97542.2
97479.5
97416.3
97352.8
97289.6
97227.2
97166
97106.8
97050.1
96996.6
96946.5
96900.6
96859.5
96824.1
96795
96773.4
96759.2
96753.2
96756.3
96769.1
96791.8
96824.7
96867.8
96921.6
96985.9
97060.5
97145.4
97239.9
97344
97457.3
97579.6
97710.5
97849.8
97997.5
98153.5
98317.6
98489.3
98668.4
98854
99046.1
99245
99449.9
99663.5
99879.6
100101
100324
100550
100776
101004
101234
101467
101700
101934
102170
102407
102644
102882
103118
103353
103587
103818
104048
104273
104495
104714
104928
105136
105352
105569
105763
105955
106158
106367
106582
106806
107037
107273
107517
107766
108017
108263
108504
108749
108999
109250
109501
109756
110008
110254
110492
110724
110947
111157
111346
111508
111637
111731
111794
111837
111851
111832
111793
111729
111635
111512
111398
111242
111057
110834
110602
110402
110154
109962
109769
109610
109552
109520
109457
109424
109489
109632
109811
110052
110357
110624
110954
111363
111710
112097
112633
112980
113372
113711
114001
114266
114555
114913
115078
115293
115653
115815
116136
116268
116351
116777
117181
117361
117362
117354
117364
117286
117196
117106
116923
116582
116101
115516
114849
114083
113237
112318
98337.3
98333.7
98326.7
98316
98301.7
98283.8
98262.1
98236.5
98206.8
98173.8
98137.8
98098.4
98055.4
98008.3
97957.9
97904.4
97848.1
97789.2
97728.1
97665.4
97601.6
97537.1
97472.2
97407.4
97343.3
97280.4
97219.3
97160.5
97104.4
97051.7
97003.2
96959.5
96921
96888.5
96862.7
96844.2
96833.7
96832
96839.6
96857
96884.4
96922
96969.9
97027.8
97095.5
97172.8
97259.3
97354.7
97458.7
97571.2
97691.9
97820.2
97956.1
98100
98251.8
98410.8
98576.3
98747.6
98924.9
99108.6
99298.4
99493.3
99695.7
99904.9
100116
100329
100541
100755
100969
101185
101402
101620
101838
102057
102277
102498
102718
102937
103155
103370
103583
103793
103997
104201
104404
104588
104784
104987
105178
105355
105536
105726
105924
106134
106352
106573
106800
107033
107272
107508
107735
107965
108199
108437
108676
108917
109157
109393
109622
109843
110055
110252
110426
110577
110705
110807
110888
110942
110964
110966
110947
110901
110817
110718
110634
110504
110373
110208
109982
109823
109637
109444
109263
109145
109137
109169
109164
109203
109335
109539
109756
109972
110299
110668
111062
111493
111905
112330
112876
113314
113663
113997
114265
114500
114817
115130
115198
115396
115762
115805
116124
116318
116426
116790
117154
117287
117231
117128
117092
116975
116816
116663
116425
115992
115464
114832
114164
113382
112531
111625
98434.1
98430.9
98424.7
98415
98402
98385.7
98365.6
98341.9
98314.5
98283.7
98249
98210.7
98169
98123.1
98073
98019.7
97963.4
97904.4
97843.4
97780.7
97716.3
97650.7
97584.4
97518.3
97452.7
97388.2
97325.2
97264.3
97206.3
97151.5
97100.5
97053.8
97012.1
96975.7
96945.5
96922.7
96908
96901.8
96904.5
96916.1
96937.4
96968.7
97009.9
97060.6
97120.7
97189.9
97267.6
97353.4
97447.2
97549.1
97659
97775.8
97899
98029.4
98168
98314.4
98466.8
98624
98786.1
98954
99128.5
99309.3
99496.1
99684.8
99879.2
100077
100275
100474
100673
100872
101072
101273
101475
101677
101879
102081
102284
102485
102687
102885
103081
103274
103463
103647
103837
104011
104183
104364
104547
104717
104881
105052
105230
105419
105621
105826
106037
106253
106476
106699
106913
107127
107348
107574
107801
108026
108250
108473
108685
108890
109088
109271
109432
109576
109706
109816
109903
109960
110001
110024
110016
109992
109933
109866
109805
109716
109593
109485
109311
109123
109012
108814
108684
108633
108635
108698
108763
108881
109052
109286
109569
109847
110187
110581
111058
111533
112017
112432
112954
113452
113772
114180
114407
114619
114956
115213
115235
115397
115737
115786
116027
116268
116413
116682
116991
117074
116974
116783
116656
116520
116322
116099
115775
115250
114690
114034
113366
112576
111717
110821
98518.5
98515.7
98510.3
98501.9
98490.6
98476
98457.9
98436
98410.3
98380.7
98347.2
98309.7
98268.2
98222.6
98172.7
98119.9
98064.4
98006.1
97945.3
97882.1
97817.2
97751.3
97684.7
97617.8
97551.1
97485.3
97421
97358.8
97299
97242.1
97188.6
97138.9
97093.6
97053.4
97019.4
96992.4
96973
96961.5
96958
96963.2
96977.8
97002.2
97036.5
97080.2
97132.9
97193.8
97262.3
97338.2
97421.2
97511.7
97610.1
97715
97825.6
97942.2
98066.2
98198.1
98336.7
98480
98627.4
98779.4
98937.5
99102.4
99273
99447.4
99622.7
99800.7
99981.1
100163
100346
100528
100712
100896
101079
101264
101449
101634
101820
102005
102189
102372
102552
102727
102902
103070
103239
103403
103558
103716
103881
104041
104192
104343
104500
104667
104850
105040
105236
105436
105640
105843
106047
106247
106455
106669
106881
107090
107296
107500
107694
107882
108063
108232
108386
108522
108645
108751
108837
108908
108976
109011
109019
109016
108980
108917
108861
108856
108755
108663
108552
108384
108282
108120
108075
108067
108058
108114
108235
108401
108619
108858
109147
109524
109910
110317
110817
111371
111920
112391
112908
113416
113735
114233
114456
114664
114968
115161
115277
115380
115596
115687
115879
116103
116243
116427
116672
116695
116561
116324
116088
115898
115679
115419
114978
114393
113819
113196
112517
111709
110841
109948
98583.5
98580.8
98576.4
98568.9
98559.4
98546.9
98530.9
98511.3
98487.9
98460.4
98428.3
98391.5
98349.6
98303.7
98254.3
98202
98147.3
98089.6
98029
97966.3
97901.7
97835.6
97768.5
97701.1
97633.9
97567.5
97502.3
97438.7
97377.2
97318.3
97262.4
97209.8
97161.2
97117.8
97080
97048.3
97023.5
97006
96996.3
96995.1
97003.2
97020.7
97047.8
97084.4
97129.4
97181.4
97240.1
97305.8
97378
97456.5
97542.2
97634.4
97732.6
97836.5
97946.2
98062.2
98185.2
98314.8
98448.9
98586.5
98727.7
98873.8
99026.7
99184.8
99345.6
99506.8
99668.4
99830.7
99994.1
100158
100323
100489
100655
100822
100991
101159
101327
101495
101664
101832
101999
102160
102318
102471
102620
102770
102912
103051
103197
103343
103484
103620
103756
103899
104058
104230
104409
104594
104780
104962
105146
105334
105528
105728
105925
106115
106303
106488
106663
106835
106997
107148
107290
107417
107530
107630
107718
107800
107876
107923
107950
107961
107953
107923
107834
107849
107815
107723
107616
107558
107444
107347
107346
107353
107357
107409
107572
107776
108076
108398
108660
109029
109422
109890
110398
110975
111556
112095
112698
113257
113586
114098
114373
114605
114841
114982
115188
115265
115319
115388
115555
115763
115881
116002
116181
116143
115977
115738
115428
115150
114910
114631
114091
113519
112947
112367
111634
110807
109926
109021
98627.7
98625.9
98621.9
98614.7
98605.4
98593.3
98577.9
98559.3
98537.2
98511.7
98482
98447.8
98408.9
98361.2
98312
98261
98207.4
98150.5
98090.7
98028.7
97964.5
97898.7
97831.8
97764.3
97696.9
97629.9
97564
97499.4
97436.7
97376
97317.9
97262.7
97211.3
97164.2
97122.4
97086.4
97056.6
97033.6
97017.9
97010.3
97011.6
97022.1
97041.6
97070
97106.5
97149.4
97198.3
97253.3
97314.6
97381.7
97454.5
97532.8
97617
97707.4
97803.5
97904.5
98011
98124.3
98244.6
98370.4
98499.7
98631.3
98765.5
98904.2
99047.3
99193.2
99339.4
99484.5
99628.7
99773
99917.8
100064
100211
100359
100509
100659
100811
100959
101113
101266
101420
101568
101711
101851
101983
102115
102246
102370
102494
102625
102757
102882
103001
103123
103256
103407
103565
103736
103906
104070
104229
104398
104575
104763
104946
105114
105280
105445
105603
105757
105895
106029
106154
106267
106372
106472
106557
106632
106698
106763
106803
106825
106838
106835
106778
106764
106774
106694
106576
106581
106509
106462
106453
106465
106480
106589
106811
107050
107370
107740
108055
108385
108754
109249
109805
110416
111036
111520
112179
112821
113163
113656
114024
114298
114485
114609
114806
114887
114830
114862
115009
115230
115322
115400
115509
115423
115220
114997
114655
114299
114041
113731
113165
112638
112055
111455
110674
109848
108970
108048
98647.2
98645.7
98641.9
98635.5
98626
98613.1
98597.5
98578.6
98556.5
98531.4
98502.8
98470.2
98433.4
98391.3
98344.8
98294.9
98241.9
98186.1
98127.5
98066.4
98002.8
97937.4
97870.8
97803.5
97736
97668.7
97602.1
97536.7
97472.7
97410.6
97350.6
97293.3
97239.2
97188.9
97143.4
97103.1
97068.4
97040.1
97018.7
97004.9
96999.4
97002.3
97013.4
97033.4
97061.7
97096
97135.3
97179.8
97229.7
97285.2
97346.1
97411.4
97481
97555.8
97637
97723.9
97815.6
97912.5
98015.5
98125.5
98242.2
98363.4
98485.9
98609.6
98735
98862.4
98991.5
99121
99249.3
99376.9
99504.1
99631
99758
99886.2
100016
100147
100279
100408
100545
100682
100819
100956
101085
101212
101332
101447
101565
101679
101787
101895
102011
102127
102236
102341
102449
102577
102716
102870
103027
103177
103314
103454
103609
103780
103953
104102
104241
104380
104521
104654
104779
104905
105015
105109
105196
105280
105353
105416
105470
105530
105579
105616
105635
105635
105619
105602
105605
105584
105515
105514
105486
105469
105501
105527
105542
105724
105975
106227
106540
106874
107212
107538
107896
108389
108986
109677
110361
110902
111458
112071
112480
112951
113373
113674
113867
113988
114151
114212
114102
114127
114278
114503
114564
114608
114652
114534
114299
114096
113743
113345
113061
112718
112170
111660
111058
110369
109585
108765
107913
107017
98640.8
98639.4
98635.9
98629.7
98619.6
98605.5
98588.7
98568.4
98545.8
98521
98493.3
98462.8
98428.6
98390.5
98347.7
98300.8
98250.1
98195.8
98138.4
98078.4
98014.3
97949.9
97883.8
97816.7
97749.1
97681.3
97613.7
97547.1
97482
97418.7
97357.4
97298.2
97241.7
97188.5
97139.4
97095
97056
97022.9
96996.1
96976.3
96964.1
96959.3
96962.4
96974.1
96993.8
97019
97048.3
97082.5
97121.8
97165.5
97213.6
97265.8
97321.9
97381.5
97446.2
97517.5
97594.7
97677.9
97766.6
97861.3
97962.3
98069.2
98180.3
98292.4
98403.9
98515.3
98626.2
98737.5
98848.4
98961.3
99073.6
99185.1
99297
99408.6
99520.2
99631
99740.9
99853
99967.7
100088
100209
100332
100449
100561
100671
100773
100872
100975
101075
101168
101264
101365
101466
101560
101648
101751
101871
102004
102149
102288
102408
102523
102648
102794
102950
103086
103201
103311
103431
103546
103665
103780
103875
103951
104015
104074
104132
104179
104220
104256
104299
104344
104370
104375
104377
104373
104378
104372
104350
104375
104384
104388
104482
104553
104600
104771
104995
105242
105554
105876
106221
106529
106876
107396
108024
108738
109441
110061
110562
111127
111597
112049
112456
112772
113009
113116
113287
113342
113187
113198
113362
113571
113609
113621
113616
113472
113237
113043
112698
112300
111980
111591
111059
110525
109909
109141
108346
107532
106708
105894
98611.3
98610.1
98607.3
98601.5
98592.4
98579.4
98562
98541.2
98518.2
98492.6
98465.2
98435.5
98402.8
98366.9
98326.8
98282.1
98233.4
98180.5
98123.8
98063.7
98001.1
97936.6
97870.5
97803.3
97735.5
97667.3
97597
97529.5
97463
97398.2
97335.4
97274.6
97216.1
97160.3
97108
97060
97016.9
96979.2
96947.2
96921.5
96902.8
96891.1
96886.3
96889.2
96900.1
96916.6
96936.7
96960.7
96989.3
97021.9
97057.4
97096.1
97138.5
97183.9
97232.8
97286.6
97346.7
97414.5
97490.2
97572.7
97661.4
97755.1
97852.5
97952
98051
98149
98245.7
98341.4
98437
98526.7
98624.2
98720.4
98816.6
98914
99012.1
99109.3
99204.3
99299
99392.7
99494.5
99596.5
99701.8
99807.9
99905.9
100003
100098
100183
100268
100358
100443
100524
100608
100696
100782
100857
100936
101035
101147
101275
101404
101517
101614
101712
101824
101952
102071
102167
102254
102348
102444
102544
102632
102705
102770
102826
102867
102908
102943
102963
102978
103008
103040
103070
103083
103095
103097
103122
103108
103098
103147
103205
103234
103338
103441
103521
103635
103839
104102
104403
104737
105082
105395
105754
106265
106895
107586
108234
108844
109361
109921
110452
110889
111279
111615
111905
112023
112191
112290
112124
112112
112272
112444
112471
112451
112415
112254
112053
111853
111533
111166
110812
110366
109836
109288
108658
107882
107045
106249
105432
104696
98553.4
98553.4
98554.3
98552
98546.7
98537.6
98522.5
98503
98480.1
98454
98426.7
98396.6
98363.6
98327.8
98288.1
98243.8
98195.3
98142.6
98085.9
98025.6
97962.5
97897.3
97830.4
97762.4
97693.5
97623.8
97554
97484.7
97416.4
97349.4
97284.2
97221.4
97160.9
97102.8
97047.4
96995.9
96948.9
96906.9
96870.2
96839
96814.1
96795.7
96783.3
96777.6
96779.3
96786.9
96798.1
96812.6
96830.8
96852.3
96876.4
96902.3
96930.2
96960.4
96994
97031.2
97073.8
97124.2
97184.2
97253.9
97331.8
97415.5
97502.5
97590.1
97676.9
97761.9
97845.1
97926.8
98008.7
98092
98169.4
98246.8
98323.7
98403.2
98487.3
98573.5
98658
98741.4
98820.8
98903.9
98989.9
99075.4
99167.3
99254.7
99336.5
99421.6
99500.9
99572.5
99647.4
99724.1
99794.5
99865.1
99938.4
100012
100078
100140
100218
100309
100416
100531
100637
100724
100802
100885
100978
101071
101149
101218
101283
101356
101432
101497
101553
101603
101648
101667
101681
101695
101700
101696
101711
101733
101752
101758
101778
101782
101792
101796
101826
101886
101964
102024
102120
102215
102307
102427
102627
102882
103167
103506
103819
104173
104543
104954
105517
106217
106828
107381
107860
108388
108997
109445
109849
110208
110535
110703
110867
111020
110905
110894
111036
111139
111166
111113
111058
110908
110749
110541
110261
109919
109547
109057
108541
108010
107366
106613
105764
104985
104164
103469
98473
98477.6
98486.5
98493.1
98496
98496.4
98486.7
98467
98443.2
98417.1
98388.2
98355.9
98321.1
98283.9
98242.2
98196.2
98146.6
98092.3
98034.6
97973.4
97909.3
97842.8
97774.5
97704.9
97634.5
97563.5
97492.4
97421.7
97351.8
97283.1
97215.8
97150.6
97087.7
97027.4
96969.9
96915.8
96865.5
96819.7
96779.1
96743.4
96713.2
96688.9
96670.2
96657.4
96651
96650.9
96654.7
96661.4
96670.8
96683.1
96697.3
96712.4
96728.6
96745.3
96763.7
96784.6
96810.3
96844.3
96889.9
96948.9
97018.6
97095
97174.9
97255
97332.2
97406.5
97478.3
97548
97616.2
97683.9
97750.1
97818.6
97888.6
97953.7
98023.2
98096.4
98170.8
98245.6
98316.5
98384.8
98458.4
98530.2
98605.3
98682.8
98755.4
98827.3
98899.9
98964.9
99028.7
99095.9
99157.5
99218.1
99279.1
99341.9
99399.3
99447.4
99505.4
99578.3
99664.1
99761.1
99856.4
99936.1
100001
100063
100127
100195
100253
100304
100346
100393
100446
100497
100543
100572
100591
100587
100571
100561
100564
100548
100535
100539
100536
100539
100545
100547
100553
100553
100599
100685
100770
100842
100932
101048
101186
101306
101462
101673
101926
102249
102555
102918
103292
103567
104065
104762
105297
105820
106253
106724
107380
107855
108262
108628
108956
109190
109394
109569
109542
109561
109682
109707
109738
109655
109591
109480
109357
109157
108915
108573
108184
107679
107187
106669
106007
105262
104447
103691
102894
102232
98390.5
98402.1
98418.3
98434.6
98451.5
98462
98459.8
98443.7
98417.5
98390
98357.3
98321.5
98282.3
98243.6
98198.5