/*--------------------------------*- C++ -*----------------------------------*\
| =========                 |                                                 |
| \\      /  F ield         | OpenFOAM: The Open Source CFD Toolbox           |
|  \\    /   O peration     | Version:  dev                                   |
|   \\  /    A nd           | Web:      http://www.openfoam.org               |
|    \\/     M anipulation  |                                                 |
\*---------------------------------------------------------------------------*/
FoamFile
{
    version     2.0;
    format      ascii;
    class       volScalarField;
    object      p_0;
    location    "9.137";
}
// * * * * * * * * * * * * * * * * * * * * * * * * * * * * * * * * * * * * * //

dimensions      [1 -1 -2 0 0 0 0];

internalField   nonuniform List<scalar> 
12225
(
106902
106746
106515
106220
105862
105463
105025
104567
104092
103619
103136
102663
102196
101742
101259
100769
100201
99069.9
106889
106737
106507
106212
105856
105456
105018
104560
104085
103612
103127
102656
102188
101735
101254
100774
100178
99455.5
106866
106719
106491
106196
105839
105440
105003
104545
104070
103598
103116
102642
102174
101718
101246
100762
100229
99625.5
106830
106688
106462
106168
105812
105413
104976
104519
104046
103574
103090
102621
102154
101699
101229
100751
100240
99737.3
106779
106642
106418
106123
105769
105372
104935
104481
104012
103540
103067
102584
102122
101671
101214
100740
100235
99793.2
106708
106574
106354
106063
105708
105314
104877
104421
103959
103491
103018
102536
102066
101622
101179
100730
100225
99802.7
106610
106480
106263
105971
105621
105225
104800
104346
103883
103410
102946
102478
102013
101568
101133
100699
100237
99822.6
106500
106374
106160
105873
105526
105131
104705
104259
103800
103333
102868
102405
101952
101512
101081
100657
100250
99838.1
106384
106263
106053
105766
105421
105030
104606
104164
103712
103245
102782
102326
101878
101440
101020
100612
100223
99848.4
106233
106116
105905
105623
105281
104896
104476
104036
103585
103127
102671
102221
101782
101350
100941
100544
100169
99827.5
106037
105921
105712
105433
105097
104716
104303
103868
103424
102973
102525
102081
101651
101231
100829
100444
100088
99755.6
105772
105660
105458
105183
104855
104482
104075
103648
103212
102769
102330
101896
101474
101065
100675
100303
99955.6
99635.8
105432
105322
105126
104859
104538
104174
103777
103360
102932
102501
102072
101650
101240
100844
100464
100105
99767.4
99454.3
105000
104887
104697
104437
104125
103771
103388
102984
102569
102151
101736
101328
100931
100548
100182
99835.2
99508.2
99202.6
104433
104329
104146
103896
103595
103255
102887
102498
102100
101699
101301
100909
100528
100162
99810.7
99477.4
99162.7
98866.9
103732
103628
103453
103214
102927
102601
102251
101884
101507
101127
100749
100377
100016
99667.6
99334
99016.6
98716.3
98433.1
102853
102766
102602
102377
102106
101800
101472
101129
100776
100420
100066
99718.7
99380.2
99053.5
98740.3
98441.7
98158.6
97891.2
101923
101828
101669
101457
101203
100920
100616
100298
99970.8
99641
99313.1
98990.8
98676.8
98373.2
98081.7
97803.6
97539.4
97289.3
101045
100959
100809
100610
100375
100113
99830.2
99534
99230.2
98923.9
98619.2
98319.5
98027.5
97744.9
97473.3
97213.6
96966.7
96732.9
100332
100238
100095
99910.2
99693.6
99447.5
99181.8
98903.5
98618.3
98330.8
98044.6
97763.1
97488.6
97223.1
96967.8
96723.5
96490.8
96270.4
99740.1
99656.3
99528.2
99355.4
99146.8
98912
98660.2
98396.7
98126.6
97854.3
97583
97316
97055.5
96803.3
96560.9
96328.9
96107.9
95898.2
99268.4
99202.2
99079.8
98914.3
98715.3
98492.1
98251.8
98000.1
97742
97481.3
97221.6
96965.9
96716.3
96474.8
96242.2
96019.7
95807.7
95606.6
98920.2
98857
98736.4
98576.1
98384.7
98170.1
97938.7
97696.3
97447.4
97195.8
96945.1
96698
96456.9
96223.4
95998.5
95783.3
95578.1
95383.4
98659.2
98592.7
98476.2
98321.1
98136.4
97928.9
97704.8
97469.4
97227.4
96982.6
96738.5
96497.9
96263
96035.5
95816.3
95606.6
95406.5
95216.6
98462.6
98398.9
98286.2
98135.3
97955.3
97752.8
97534
97303.9
97067
96827.3
96588.2
96352.2
96121.9
95898.7
95683.8
95478
95281.7
95095.3
98323.1
98262
98151.8
98003.8
97827.3
97628.5
97413.4
97187.1
96954
96717.9
96482.2
96249.7
96022.6
95802.4
95590.4
95387.4
95193.8
95009.9
98229
98169
98060.4
97914.7
97740.7
97544.6
97332
97108.3
96877.7
96644
96410.8
96180.6
95955.7
95737.6
95527.6
95326.4
95134.5
94952.3
98168.6
98109.9
98002.4
97858.2
97685.9
97491.5
97280.7
97058.6
96829.5
96597.4
96365.7
96137
95913.4
95696.6
95487.8
95287.8
95097
94915.8
98132.4
98076.3
97969.2
97826.1
97655
97461.7
97252
97030.8
96802.6
96571.4
96340.4
96112.5
95889.7
95673.6
95465.4
95266
95075.8
94895.1
98120.5
98062.7
97955.5
97812.6
97641.7
97448.9
97239.3
97018.5
96790.9
96560.2
96329.6
96102.1
95879.6
95663.8
95455.9
95256.8
95066.8
94886.3
95225.5
95222.1
95215.1
95204
95188.7
95168.7
95144
95114.8
95081.3
95043.8
95002.8
94958.6
94911.8
94862.9
94812.6
94761.2
94709.6
94657.7
94605.9
94555
94505.5
94458
94413.4
94372.8
94336.9
94306.4
94281.9
94263.8
94253.1
94251.5
94259.7
94277.8
94305.8
94344.1
94393.6
94455.1
94529.2
94616.9
94718.5
94834.5
94965.4
95111.4
95272.7
95449.8
95642.7
95851.8
96077
96318.4
96575.6
96848.4
97136.2
97438.7
97755.4
98085.8
98428.9
98784
99151.1
99528.9
99915.7
100311
100714
101123
101538
101957
102380
102806
103231
103657
104081
104504
104923
105338
105750
106155
106553
106943
107324
107697
108061
108416
108760
109094
109417
109731
110036
110335
110629
110920
111212
111504
111797
112093
112392
112694
113003
113318
113641
113975
114321
114682
115057
115444
115844
116257
116687
117118
117538
117954
118366
118766
119144
119499
119816
120084
120302
120469
120590
120669
120703
120697
120651
120564
120447
120307
120137
119939
119727
119502
119283
119079
118894
118731
118594
118488
118419
118387
118395
118462
118601
118808
119061
119351
119682
120046
120438
120887
121393
121896
122404
122896
123349
123815
124258
124646
125037
125471
125903
126306
126682
127041
127393
127764
128157
128567
128929
129192
129346
129432
129467
129428
129286
129013
128580
127942
127163
126265
125275
124217
123081
121887
95266.9
95263.3
95255.8
95244
95228.7
95208.1
95183.1
95153.7
95120.1
95082.5
95041.2
94996.7
94949.6
94900.3
94849.4
94797.6
94745.2
94693.4
94641.5
94590.2
94540.5
94493.2
94447.5
94405.9
94369
94337.2
94311.4
94292.3
94280.5
94277.2
94284.2
94303
94331.9
94369.3
94416.8
94475.9
94547.6
94632.4
94731.7
94845.8
94975
95119.5
95279.4
95455.3
95647
95854.8
96078.9
96319.3
96575.5
96847.3
97133.4
97434.4
97749.5
98078.3
98419.7
98773.2
99138.3
99513.9
99898.7
100292
100692
101099
101511
101928
102348
102770
103192
103614
104037
104457
104873
105286
105694
106097
106491
106878
107256
107626
107986
108337
108678
109009
109327
109637
109937
110232
110522
110804
111093
111383
111675
111968
112263
112562
112866
113180
113501
113831
114174
114527
114896
115280
115676
116085
116504
116931
117352
117762
118172
118575
118946
119300
119612
119873
120086
120254
120381
120462
120496
120489
120441
120356
120241
120103
119935
119740
119533
119311
119095
118897
118718
118561
118431
118330
118268
118241
118253
118323
118466
118682
118944
119244
119586
119956
120343
120793
121318
121828
122341
122837
123295
123760
124216
124607
124991
125412
125843
126250
126629
126993
127325
127672
128052
128471
128842
129097
129229
129290
129308
129259
129109
128830
128395
127753
126967
126068
125078
124023
122891
121696
95347.9
95344.2
95336.1
95323.8
95307.1
95286
95260.5
95230.7
95196.6
95158.4
95116.4
95071.2
95023.3
94973.2
94921.6
94869
94816
94763.2
94710.5
94659.1
94608.3
94559.1
94514.7
94472
94433.2
94399.7
94371.8
94351.4
94340
94337.9
94339.2
94349.1
94370.2
94404.1
94449.9
94507.6
94577.5
94660.3
94757.1
94868.5
94994.8
95136.5
95294.1
95467.5
95656.8
95862
96083.7
96322
96574.8
96842.9
97127.1
97425.7
97738
98063.6
98402
98752.1
99113.4
99485.2
99866
100254
100650
101052
101459
101871
102286
102701
103118
103534
103948
104361
104771
105180
105584
105981
106369
106749
107119
107482
107836
108180
108514
108836
109148
109451
109744
110030
110311
110583
110861
111143
111427
111714
112003
112293
112590
112897
113213
113537
113871
114224
114580
114952
115337
115736
116145
116558
116974
117382
117791
118187
118557
118897
119197
119450
119662
119838
119973
120051
120083
120079
120031
119943
119830
119697
119533
119345
119144
118922
118709
118524
118360
118219
118103
118016
117967
117951
117972
118046
118195
118428
118707
119020
119388
119772
120149
120616
121168
121694
122210
122718
123183
123642
124122
124515
124876
125276
125707
126124
126511
126890
127166
127459
127844
128272
128664
128887
128964
128988
128983
128924
128760
128465
128026
127369
126581
125670
124692
123644
122516
121328
95466.8
95462.7
95454.2
95441
95423.4
95401.3
95375.3
95344.7
95309.5
95270.1
95226.7
95180
95130.5
95079
95026.2
94972.7
94919.1
94865.4
94812.4
94759.9
94708.9
94659.1
94611
94567.5
94527.6
94492.5
94461.8
94435.4
94415.4
94403.3
94404.6
94414.4
94432.9
94461.9
94502.6
94555.7
94621.7
94701
94794.3
94901.9
95024.6
95162.6
95316.4
95486
95671.7
95873.5
96091.1
96324.2
96573.8
96838.7
97118.7
97412.8
97720.8
98041.8
98375.4
98720.8
99077.2
99443.4
99817.9
100200
100589
100984
101384
101788
102194
102602
103010
103419
103826
104229
104628
105024
105418
105808
106189
106560
106921
107273
107617
107951
108275
108588
108891
109184
109468
109742
110010
110272
110536
110803
111075
111350
111627
111906
112191
112486
112790
113105
113436
113769
114118
114475
114843
115224
115621
116027
116430
116830
117229
117617
117975
118296
118582
118835
119053
119231
119357
119436
119478
119475
119421
119334
119225
119096
118941
118763
118565
118351
118148
117972
117824
117702
117609
117546
117519
117524
117560
117645
117801
118050
118354
118687
119082
119495
119870
120353
120926
121471
121993
122522
122993
123452
123952
124345
124698
125056
125487
125911
126307
126714
126907
127121
127507
127942
128357
128536
128559
128544
128508
128427
128231
127912
127458
126784
126003
125098
124130
123081
121960
120777
95620.6
95616.1
95607.1
95593.3
95575.1
95552.4
95525.3
95493.7
95457.3
95416.4
95371.3
95322.5
95270.9
95217.1
95162.3
95107.1
95052
94997.2
94942.9
94889.5
94836.6
94785.5
94737.4
94691.2
94647.7
94608.5
94571.6
94541.8
94518.7
94502.7
94496
94499.3
94512.7
94536.9
94572.5
94620.3
94681
94755.2
94843.4
94946
95063.8
95197.2
95346.3
95511.2
95692
95888.7
96101.6
96330.3
96574.6
96834
97107.8
97395.8
97697.6
98012.3
98339.3
98678
99027.5
99386.1
99753
100127
100508
100895
101286
101680
102075
102472
102868
103265
103659
104053
104441
104824
105204
105581
105951
106310
106660
107001
107332
107653
107963
108265
108556
108839
109113
109374
109625
109870
110119
110372
110630
110890
111153
111420
111692
111969
112257
112560
112873
113192
113519
113855
114206
114575
114961
115345
115728
116112
116496
116871
117224
117540
117814
118056
118264
118430
118556
118643
118684
118676
118633
118559
118450
118318
118174
118016
117825
117628
117444
117278
117143
117036
116960
116920
116923
116954
117007
117111
117283
117551
117888
118252
118675
119131
119526
120008
120591
121170
121715
122247
122733
123202
123687
124116
124512
124806
125200
125606
126011
126453
126538
126679
127036
127480
127909
128056
128018
127957
127879
127765
127528
127186
126700
126016
125246
124365
123403
122356
121232
120059
95805.4
95800.5
95791
95776.8
95758
95734.6
95706.4
95673.6
95636.1
95594.1
95547.6
95497.2
95443.6
95387.6
95330.1
95272.2
95214.5
95157.1
95100.2
95043.9
94989.4
94936.2
94884
94833.2
94782.8
94736.4
94697.9
94664.3
94637.2
94617.3
94605.6
94603.1
94610.5
94628.4
94657.8
94699.3
94753.6
94821.5
94903.5
95000.1
95112.2
95239.9
95383.4
95542.6
95717.6
95908.7
96115.7
96338
96575.4
96827.7
97094.2
97374.4
97667.8
97974.1
98292.4
98622.1
98962.5
99312.1
99669.5
100034
100405
100782
101162
101545
101928
102312
102695
103078
103459
103838
104214
104582
104945
105305
105659
106004
106339
106665
106981
107285
107580
107869
108147
108415
108676
108929
109167
109389
109617
109851
110091
110335
110586
110841
111095
111355
111630
111918
112211
112503
112803
113122
113459
113812
114170
114528
114886
115243
115599
115954
116304
116624
116894
117119
117308
117468
117590
117662
117693
117704
117686
117623
117525
117407
117264
117112
116950
116774
116609
116450
116325
116230
116166
116147
116185
116238
116305
116432
116631
116923
117301
117710
118157
118646
119108
119594
120153
120769
121388
121903
122401
122891
123324
123802
124267
124551
124869
125215
125625
126068
126083
126199
126462
126904
127328
127436
127331
127220
127092
126934
126657
126288
125767
125088
124317
123458
122508
121468
120353
119211
96016.6
96011.5
96001.7
95986.9
95967.3
95942.9
95913.7
95880
95841.8
95799.1
95752
95701
95646.4
95588.9
95529.5
95469.1
95408.3
95347.4
95286.5
95226
95166
95106.4
95047.4
94989.9
94937.9
94889.5
94845.7
94807
94774.4
94748.8
94731
94722
94722.5
94733.3
94755.5
94789.8
94836.9
94897.8
94973.1
95063.4
95168.7
95289.8
95426.7
95579.3
95747.7
95931.9
96131.4
96345.9
96575
96818.5
97075.8
97346.6
97630.2
97925.9
98233.5
98552.6
98882
99220.4
99566.6
99920
100279
100643
101010
101380
101750
102121
102490
102857
103222
103585
103946
104301
104648
104987
105320
105648
105967
106276
106575
106865
107140
107409
107670
107920
108161
108400
108630
108841
109046
109258
109475
109699
109930
110165
110399
110645
110905
111173
111445
111717
111998
112297
112614
112938
113265
113595
113926
114252
114572
114893
115217
115523
115793
116017
116202
116349
116448
116508
116550
116576
116564
116521
116459
116369
116237
116088
115955
115805
115650
115487
115358
115280
115228
115222
115296
115374
115462
115608
115829
116142
116552
117028
117518
118003
118549
119097
119611
120254
120925
121443
121991
122496
122884
123348
123825
124221
124464
124730
125147
125519
125610
125724
125821
126231
126612
126659
126494
126334
126157
125926
125609
125226
124690
124014
123218
122362
121412
120396
119321
118219
96248.2
96242.8
96232.9
96218.1
96198.2
96173.4
96143.9
96109.6
96070.7
96027.2
95979.7
95928.2
95872.8
95814.1
95752.8
95689.7
95625.4
95560.4
95494.7
95428.4
95362.3
95296.8
95232.8
95171.4
95113.3
95059
95009.1
94964.3
94925.4
94893.2
94868.5
94852.2
94845.2
94848.6
94863.4
94890.4
94930.2
94983.1
95051.6
95134.8
95233.3
95347
95476.1
95620.6
95781
95956.8
96147.4
96352.5
96572
96805.2
97051.6
97310.8
97582.4
97865.8
98160.9
98467
98783
99107.5
99440
99780.3
100127
100477
100831
101187
101542
101897
102250
102601
102949
103294
103634
103968
104298
104626
104941
105248
105546
105836
106116
106386
106648
106895
107135
107365
107582
107799
108013
108215
108399
108586
108783
108984
109189
109400
109619
109850
110093
110342
110594
110847
111108
111385
111677
111965
112262
112565
112870
113170
113466
113759
114047
114321
114571
114786
114961
115086
115169
115232
115274
115285
115271
115247
115205
115135
115064
114953
114829
114694
114549
114413
114271
114198
114146
114140
114251
114383
114505
114660
114898
115229
115655
116176
116741
117244
117810
118476
118978
119634
120335
120862
121461
121956
122352
122764
123202
123682
123893
124120
124543
124748
125043
125145
125098
125442
125743
125720
125505
125291
125079
124769
124412
124022
123479
122767
121929
121053
120124
119134
118114
117052
96494.7
96489.1
96479.2
96464.4
96444.1
96418.7
96388.5
96353.3
96313.1
96268.4
96220.1
96168.2
96112.2
96052.3
95989.1
95923.3
95855.4
95785.7
95714.8
95643.3
95572
95501.6
95432.5
95365.6
95301.5
95240.9
95184.5
95132.9
95087
95047.6
95015.5
94991.9
94977.7
94973.9
94981.6
95001
95033.1
95079.1
95138.5
95213
95302.7
95407.7
95528.2
95664.1
95815.1
95981.3
96161.9
96356.5
96564.8
96786.3
97020.4
97266.6
97524.7
97794.3
98075
98366.1
98666.6
98975.3
99291.4
99614.7
99944.7
100280
100618
100959
101301
101640
101976
102309
102638
102964
103286
103600
103908
104210
104508
104798
105078
105349
105609
105859
106101
106331
106548
106760
106957
107147
107340
107526
107692
107854
108025
108200
108383
108576
108780
108991
109211
109437
109669
109904
110142
110393
110652
110915
111184
111460
111740
112017
112292
112561
112818
113059
113276
113459
113604
113714
113797
113860
113891
113895
113883
113853
113794
113721
113689
113623
113536
113417
113269
113188
113067
112985
112924
112925
113077
113280
113454
113658
113944
114310
114734
115209
115817
116403
117002
117684
118274
118927
119645
120205
120778
121245
121669
122045
122482
122945
123094
123331
123748
123773
124179
124317
124252
124498
124701
124616
124361
124078
123835
123486
123085
122664
122089
121306
120446
119555
118665
117703
116726
115719
96749.2
96743.6
96733.3
96717.7
96697.1
96671.4
96640.6
96604.6
96563.3
96517.8
96468.6
96415.6
96358.3
96296.6
96231.1
96162.4
96090.8
96017
95941.5
95865.3
95789
95713.3
95638.6
95565.7
95495.4
95428.7
95366.2
95307.7
95254.8
95208.3
95169.2
95138.3
95116.7
95105.3
95104.9
95115.2
95138.4
95175.3
95226.4
95292.1
95372.8
95468.8
95580.1
95706.5
95847.6
96003.1
96172.6
96355.6
96551.5
96760.2
96981.1
97213.3
97456.5
97710.8
97976
98251.3
98535.2
98826.5
99124.3
99428.5
99739.2
100055
100376
100699
101023
101346
101665
101980
102290
102595
102895
103190
103480
103760
104034
104302
104562
104813
105055
105285
105505
105717
105913
106104
106285
106453
106619
106790
106952
107092
107232
107382
107542
107714
107895
108081
108274
108474
108683
108899
109113
109336
109567
109805
110047
110296
110549
110800
111046
111284
111507
111711
111890
112043
112168
112273
112356
112409
112434
112442
112426
112388
112319
112250
112214
112146
112079
112017
111881
111795
111740
111640
111590
111640
111804
112043
112288
112581
112922
113319
113765
114213
114780
115420
116095
116766
117438
118027
118736
119358
119874
120360
120783
121146
121625
122015
122090
122331
122721
122680
123021
123236
123241
123365
123469
123334
123047
122690
122391
122040
121615
121138
120501
119661
118814
117933
117074
116138
115188
114237
97002
96996.4
96986.1
96970.3
96949.6
96924
96893
96856.8
96815.6
96769.6
96718.7
96663.5
96604.5
96540.7
96472
96399.9
96324.6
96246.8
96167.5
96087.3
96006.3
95925.2
95845
95766.3
95689.9
95616.4
95546.3
95481.4
95422
95368.9
95323
95285.2
95256.1
95236.2
95226.5
95229.4
95244.6
95273.1
95315.4
95371.8
95442.8
95528.9
95630
95745.7
95875.9
96020.1
96177.6
96347.5
96529.8
96724.5
96931.3
97148.8
97376.1
97613.3
97861.5
98120.4
98387.8
98661.5
98940.2
99224.2
99514.1
99809.5
100109
100410
100713
101016
101317
101613
101904
102189
102468
102741
103007
103270
103523
103767
104005
104234
104455
104666
104862
105051
105234
105403
105567
105718
105859
106004
106148
106279
106401
106525
106658
106802
106960
107124
107292
107467
107651
107843
108035
108232
108438
108651
108868
109088
109311
109531
109743
109942
110128
110297
110446
110576
110686
110777
110843
110884
110917
110925
110900
110862
110798
110730
110687
110658
110573
110530
110452
110331
110309
110208
110222
110324
110452
110676
110981
111330
111703
112084
112551
113061
113603
114228
114933
115647
116365
116881
117548
118183
118703
119284
119698
120072
120556
120873
121004
121202
121485
121506
121737
121972
122019
122032
122045
121860
121558
121161
120763
120398
119978
119460
118751
117891
117077
116243
115412
114503
113579
112671
97248.6
97243.2
97233.3
97218
97197.7
97172.2
97141.3
97105
97063.2
97015.9
96963.3
96905.5
96843.4
96776.4
96704.4
96629
96550.8
96469.8
96386.8
96301.9
96216.1
96130.5
96045.5
95961.7
95880
95801.2
95726
95655.3
95589.7
95530.2
95477.5
95432.3
95395.2
95367.1
95349.4
95343.2
95349.6
95368.8
95401.2
95447.2
95507.6
95583
95673.4
95778.5
95897.7
96030.2
96175
96331.6
96499.5
96678.9
96870.3
97072.3
97283.4
97503.4
97733.2
97973.3
98222.6
98478.2
98738.2
99001.9
99270.4
99544.4
99822.6
100103
100383
100662
100939
101212
101481
101745
102003
102255
102499
102735
102967
103193
103410
103622
103820
104011
104191
104355
104523
104672
104815
104950
105073
105192
105315
105431
105535
105636
105743
105859
105992
106135
106281
106433
106590
106753
106924
107097
107279
107468
107660
107851
108042
108229
108403
108566
108716
108850
108972
109076
109164
109232
109282
109322
109361
109363
109335
109297
109233
109146
109075
109089
109023
108961
108915
108842
108797
108735
108811
108924
109022
109215
109543
109922
110315
110705
111115
111650
112192
112814
113492
114242
114980
115519
116212
116822
117363
118027
118465
118870
119299
119563
119862
120003
120078
120146
120325
120521
120556
120496
120435
120199
119893
119509
119036
118613
118200
117682
116904
116082
115319
114570
113743
112852
111954
111079
97480
97474.6
97464.7
97449.7
97430.1
97405.5
97375.3
97339.6
97297.9
97250.4
97196.6
97136.2
97069.6
96998.9
96924
96845.6
96764.4
96680.1
96593.3
96505
96415.5
96325.5
96235.7
96147.2
96060.5
95976.7
95896.5
95820.5
95749.3
95683.6
95624.3
95571.9
95527.3
95491.8
95466.1
95451.3
95448.5
95457.9
95479.9
95515.3
95565.1
95629.7
95709.1
95803.2
95911.1
96031.2
96162.6
96305.2
96458.4
96622
96796.6
96981.7
97176.4
97379.9
97591.6
97811.6
98040.5
98277.2
98519.2
98764.1
99011.4
99261.5
99516.3
99774.4
100033
100289
100542
100790
101034
101273
101506
101733
101955
102171
102382
102586
102778
102968
103151
103325
103492
103645
103786
103916
104038
104156
104263
104362
104463
104563
104656
104741
104822
104910
105014
105132
105256
105386
105520
105655
105796
105947
106104
106271
106437
106598
106756
106910
107051
107182
107295
107393
107482
107558
107623
107676
107713
107736
107754
107756
107723
107679
107623
107552
107449
107417
107399
107317
107241
107265
107216
107203
107278
107377
107479
107669
108012
108394
108818
109250
109648
110092
110588
111225
111888
112616
113349
113905
114680
115349
115860
116533
117035
117485
117848
118097
118484
118603
118487
118525
118694
118869
118883
118779
118658
118383
118072
117735
117250
116760
116346
115835
115049
114323
113606
112901
112051
111187
110323
109476
97692.7
97687.2
97677.2
97661.4
97641.2
97615.8
97584.8
97548.4
97506.3
97458.8
97405.1
97344.8
97277.2
97202.9
97124.4
97043.3
96959.3
96872.2
96782.5
96691.1
96598.3
96504.8
96411.3
96318.7
96227.9
96139.7
96054.9
95974
95897.7
95826.4
95760.8
95701.7
95650.2
95607.3
95574
95551.2
95539.2
95538.7
95550.6
95575.6
95614.7
95668.2
95736
95818
95913.6
96020.9
96138.5
96266.4
96404.5
96552.6
96710.3
96877.2
97053.4
97239
97432.7
97633.4
97841.1
98056.2
98278.5
98506.1
98736.2
98966.7
99197.5
99430.1
99664.2
99898
100128
100354
100573
100786
100993
101195
101391
101583
101767
101946
102121
102289
102453
102608
102757
102896
103021
103138
103241
103340
103434
103517
103595
103677
103759
103832
103897
103961
104036
104128
104229
104341
104455
104567
104676
104796
104928
105074
105218
105347
105470
105590
105702
105802
105881
105955
106013
106058
106097
106128
106141
106135
106122
106113
106078
106026
105966
105902
105808
105733
105722
105652
105568
105601
105589
105604
105665
105755
105846
106080
106433
106799
107203
107632
108030
108419
108863
109464
110136
110863
111596
112160
112883
113610
114115
114734
115319
115806
116148
116421
116769
116884
116692
116704
116869
117051
117044
116913
116743
116453
116133
115848
115391
114871
114454
113940
113217
112579
111881
111140
110288
109466
108658
107862
97881.5
97876.2
97865.8
97849.9
97828.6
97801.4
97768.7
97730.3
97686.3
97637.1
97582.2
97521.6
97454.7
97380.8
97301.6
97218.3
97131.4
97041.7
96949.9
96855.9
96760.2
96663.7
96567.1
96471.4
96377.3
96285.5
96196.5
96111.2
96030.1
95953.8
95882.8
95817.8
95759.9
95710.1
95669.4
95638.3
95617.5
95607.7
95609.9
95624.7
95653
95694.9
95750.1
95819.6
95902.9
95997.5
96101.6
96214.8
96337.2
96469.3
96610.7
96760.3
96917.6
97082.8
97256.7
97438.4
97626.3
97819.9
98019.2
98224.6
98435.5
98649.6
98862.8
99074
99283.6
99491.9
99698.3
99901.3
100098
100289
100473
100650
100820
100985
101146
101300
101449
101591
101734
101872
102003
102128
102238
102341
102431
102513
102592
102666
102729
102787
102852
102915
102970
103019
103067
103135
103214
103306
103405
103498
103580
103667
103768
103888
104013
104115
104201
104285
104368
104437
104499
104557
104591
104602
104603
104599
104582
104548
104502
104458
104412
104356
104280
104198
104119
104033
103985
103957
103916
103932
103941
103965
104075
104180
104261
104503
104811
105148
105521
105896
106268
106632
107044
107598
108256
108993
109741
110359
110952
111633
112197
112770
113357
113853
114231
114517
114822
114937
114744
114761
114929
115098
115072
114922
114719
114432
114121
113875
113461
112962
112534
112014
111371
110766
110074
109265
108438
107652
106911
106210
98044.8
98039.2
98028.5
98012.1
97988.8
97958.6
97922.9
97881.2
97834.6
97783.5
97727.4
97666.2
97599.7
97527.5
97449.3
97366.1
97278.7
97186.6
97092.3
96995.9
96897.8
96798.7
96699.4
96600.7
96503.3
96408
96315.4
96226.2
96141.1
96060.7
95985.4
95915.5
95852
95795.8
95748
95709.3
95680.5
95662.2
95655.2
95660.1
95677.7
95707.9
95751
95808
95878.5
95959.9
96049.7
96148.2
96255.6
96371.5
96495.5
96627.3
96766.3
96911.5
97063.8
97224.3
97392
97566.2
97745.6
97929.8
98118.5
98311
98505.6
98698.6
98887.7
99073
99254.4
99432.3
99606
99774.3
99936.5
100092
100242
100386
100523
100652
100775
100894
101008
101128
101240
101349
101447
101534
101615
101683
101744
101806
101863
101909
101953
102002
102049
102088
102118
102160
102219
102291
102375
102456
102521
102578
102645
102731
102830
102911
102967
103014
103066
103110
103154
103184
103190
103177
103149
103108
103062
103001
102920
102833
102761
102689
102606
102518
102434
102350
102301
102245
102220
102254
102293
102316
102451
102590
102694
102872
103117
103411
103756
104113
104468
104807
105188
105711
106331
106981
107665
108334
108894
109535
110149
110696
111233
111727
112152
112440
112748
112896
112726
112744
112904
113032
112997
112833
112621
112349
112082
111856
111494
111052
110608
110070
109477
108876
108191
107367
106549
105797
105109
104520
98183.7
98177.9
98167
98149.7
98125.5
98094
98055
98009.8
97960.3
97906
97847.9
97785.8
97718.8
97647
97569.5
97486.5
97398.6
97306
97209.6
97110.2
97009.1
96907.7
96805.9
96704.6
96604.2
96505.5
96409.4
96316.6
96227.7
96143.3
96064
95990.2
95922.2
95860.6
95806.6
95761.2
95725
95698.7
95682.9
95678.3
95685.6
95705
95736.5
95780.5
95837.8
95906.2
95982.4
96066.2
96158.3
96258.6
96365.6
96478.8
96598.8
96724.5
96855.7
96993.3
97137.9
97290.3
97450.2
97615.9
97785.7
97958.2
98131.8
98304.6
98474
98638.6
98797.9
98951.7
99101.2
99245.6
99385.3
99519.5
99643.9
99768.5
99888.8
100002
100106
100203
100291
100388
100480
100569
100655
100728
100795
100858
100907
100951
100999
101040
101072
101105
101141
101172
101193
101214
101253
101304
101371
101440
101497
101537
101575
101625
101687
101743
101775
101794
101812
101830
101844
101838
101815
101782
101736
101665
101587
101497
101386
101267
101167
101067
100970
100871
100784
100691
100637
100573
100549
100581
100644
100695
100801
100942
101056
101166
101377
101656
101962
102309
102643
102980
103354
103784
104314
104850
105443
106055
106630
107266
107932
108474
108991
109481
109934
110248
110551
110770
110666
110692
110821
110890
110857
110684
110482
110241
110041
109823
109519
109138
108690
108131
107567
106986
106312
105537
104727
104020
103352
102837
98293.1
98287.7
98278.9
98263
98240.6
98210.4
98170.2
98122.2
98069.7
98011.9
97951.6
97886.9
97817.8
97744.6
97666
97581.6
97492.2
97397.8
97299.2
97197.5
97094
96989.5
96885
96781.1
96677.9
96575.9
96476.7
96380.6
96288.1
96199.5
96115.2
96038.2
95966.4
95900.6
95841.6
95790.3
95747.5
95713.9
95690.1
95676.7
95674.6
95683.7
95703.9
95735.5
95779.3
95834.3
95897.2
95967.2
96044.7
96129.2
96219.7
96315.1
96415.2
96519.8
96629.8
96745
96866.1
96995
97132.5
97278.1
97430
97585.3
97741.1
97894.7
98044.1
98188.1
98326.3
98458.5
98585.7
98708
98825.9
98938.5
99040.4
99140.2
99238.9
99335.9
99427.4
99511.8
99586.5
99659.1
99731.6
99798.7
99868.1
99931
99983.9
100037
100083
100118
100151
100186
100212
100235
100258
100281
100294
100302
100323
100355
100402
100457
100506
100536
100555
100575
100600
100625
100635
100631
100617
100604
100589
100558
100513
100455
100382
100279
100161
100039
99908.7
99764.1
99633.5
99511.3
99387.5
99270.6
99172.5
99070.1
98982.7
98925.7
98927.9
98964.3
99022.4
99091.4
99179.8
99303.8
99421.9
99545.2
99721.1
99947.2
100210
100533
100830
101183
101543
101813
102220
102728
103240
103762
104279
104869
105583
106143
106664
107149
107599
107955
108269
108543
108559
108610
108702
108700
108679
108506
108326
108142
108002
107804
107556
107211
106774
106217
105687
105141
104479
103755
102989
102325
101679
101204
98351.9
98349.9
98348.6
98339.5
98321.7
98297.4
98259.4
98207.7
98152
98091.1
98027.2
97957.9
97885.8
97810
97727.7
97640.4
97548.8
97451.9
97351.4
97247.8
97141.9
97034.7
96927.5
96820.8
96715
96610.8
96509
96410.1
96314.7
96223.3
96136.6
96055.5
95980.2
95911.2
95848.7
95793.3
95745.5
95706.4
95676.6
95656.4
95646.5
95647.2
95658.2
95679.8
95712.4
95755.9
95807.9
95866.5
95931.4
96002.6
96078.8
96158.8
96242.3
96328.4
96417.7
96511.4
96610.5
96717.4
96834.3
96962.7
97099.9
97241.3
97383.5
97523
97656.3
97782.9
97903.2
98017.2
98125
98227.9
98326.6
98422.3
98511.8
98594
98673.3
98751.8
98828.2
98901.5
98968.1
99021.6
99078.9
99131.9
99183.5
99235.8
99281.8
99322.8
99362.9
99394
99420.1
99447.3
99467.3
99483.8
99498.7
99514
99522.9
99520
99525
99542.6
99570.9
99609.1
99646.2
99668.8
99675.1
99674.8
99673
99671
99657.8
99632.3
99592.5
99549.9
99506.7
99456.9
99395.9
99309.8
99202.6
99071.1
98920.2
98766
98625.9
98462.8
98294.6
98144.1
97991.9
97862.5
97738.8
97622.5
97529.7
97456.6
97450.4
97497.7
97550.9
97619.5
97697.9
97827
97978.3
98096.5
98213.9
98375.9
98590.7
98876.7
99167.9
99509.3
99817.4
99988.1
100319
100850
101247
101646
102098
102622
103331
103902
104406
104867
105283
105674
106023
106311
106442
106539
106604
106545
106540
106382
106226
106114
106021
105856
105650
105322
104889
104359
103863
103339
102683
101985
101286
100659
100059
99618.4
98378.9
98382.8
98387.5
98385.6
98377.8
98361.6
98323.2
98275.3
98216.1
98152.3
98082.3
98007.9
97930.2
97850.1
97764.1
97674.1
97580.7
97481.1
97379.1
97273.5
97165.7