/*--------------------------------*- C++ -*----------------------------------*\
| =========                 |                                                 |
| \\      /  F ield         | OpenFOAM: The Open Source CFD Toolbox           |
|  \\    /   O peration     | Version:  dev                                   |
|   \\  /    A nd           | Web:      http://www.openfoam.org               |
|    \\/     M anipulation  |                                                 |
\*---------------------------------------------------------------------------*/
FoamFile
{
    version     2.0;
    format      ascii;
    class       surfaceScalarField;
    object      phi;
    location    "9.137";
}
// * * * * * * * * * * * * * * * * * * * * * * * * * * * * * * * * * * * * * //

dimensions      [1 0 -1 0 0 0 0];

internalField   nonuniform List<scalar> 
24170
(
2.97642e-06
2.13726e-06
2.75294e-06
1.50782e-06
3.00607e-06
9.73086e-07
3.51118e-06
6.45618e-07
4.04826e-06
5.35658e-07
4.66507e-06
3.7451e-07
5.13e-06
4.47113e-07
5.69274e-06
2.7056e-07
6.06335e-06
3.8882e-07
6.81867e-06
-6.85917e-08
7.06941e-06
3.6865e-07
7.68332e-06
-5.81471e-08
8.22215e-06
-3.97226e-08
9.80061e-06
-1.13436e-06
1.04133e-05
-2.32208e-07
1.19606e-05
-1.18056e-06
1.64871e-05
-4.20223e-06
-9.43803e-06
2.61126e-05
4.83494e-06
3.07299e-06
4.94272e-06
2.84811e-06
5.07662e-06
2.2286e-06
5.37838e-06
1.64608e-06
5.7131e-06
1.4144e-06
6.25156e-06
9.57183e-07
6.56059e-06
1.16949e-06
7.09226e-06
6.83234e-07
7.54311e-06
7.9757e-07
8.25777e-06
-5.92736e-09
8.49749e-06
8.304e-07
9.27636e-06
-2.01384e-07
1.04094e-05
-6.02409e-07
1.17108e-05
-1.92209e-06
1.37071e-05
-1.78923e-06
1.65039e-05
-3.5609e-06
2.08151e-05
-8.1655e-06
-1.23576e-05
2.39248e-05
5.77369e-06
3.78308e-06
6.48439e-06
3.74134e-06
7.01851e-06
3.23136e-06
7.57489e-06
2.52823e-06
7.89754e-06
2.43316e-06
8.59239e-06
1.50197e-06
8.87561e-06
2.02724e-06
9.29095e-06
1.31451e-06
9.82976e-06
1.21219e-06
1.07257e-05
-4.17884e-08
1.08814e-05
1.45212e-06
1.19835e-05
-5.98382e-07
1.25216e-05
-5.1063e-07
1.39283e-05
-2.74774e-06
1.55514e-05
-2.91258e-06
1.78387e-05
-5.45373e-06
1.90541e-05
-9.03916e-06
-1.19313e-05
1.88844e-05
6.11325e-06
4.4959e-06
7.35052e-06
4.26554e-06
8.17446e-06
4.0969e-06
9.30504e-06
2.97489e-06
9.75351e-06
3.45675e-06
1.07587e-05
1.85861e-06
1.12371e-05
2.80143e-06
1.16043e-05
2.0945e-06
1.22811e-05
1.58358e-06
1.34875e-05
-3.00742e-07
1.40102e-05
1.78759e-06
1.53002e-05
-1.1249e-06
1.56881e-05
-2.1813e-07
1.57963e-05
-2.20342e-06
1.68525e-05
-3.4005e-06
2.02413e-05
-8.4007e-06
2.10717e-05
-9.51822e-06
-9.08726e-06
1.85418e-05
6.46008e-06
5.64769e-06
8.35946e-06
4.29685e-06
9.24485e-06
5.06247e-06
1.0827e-05
3.1161e-06
1.12782e-05
4.61739e-06
1.19902e-05
2.64086e-06
1.28086e-05
3.35515e-06
1.38658e-05
2.28712e-06
1.43768e-05
2.22013e-06
1.37915e-05
1.3367e-06
1.49391e-05
1.59123e-06
1.80595e-05
-3.42501e-06
1.82414e-05
3.49455e-07
1.60217e-05
7.23541e-07
1.69036e-05
-3.67383e-06
2.02748e-05
-1.12614e-05
2.09696e-05
-9.80872e-06
-8.80504e-06
2.1043e-05
6.4419e-06
7.37876e-06
9.44132e-06
3.4073e-06
1.09084e-05
5.60103e-06
1.21047e-05
3.81301e-06
1.23516e-05
6.14006e-06
1.28484e-05
3.76718e-06
1.40055e-05
3.6863e-06
1.60764e-05
1.58329e-06
1.56095e-05
3.95019e-06
1.46294e-05
3.46036e-06
1.65255e-05
7.21274e-07
1.79271e-05
-3.92345e-06
1.84596e-05
6.44416e-07
1.91449e-05
7.85616e-07
1.88618e-05
-2.74665e-06
1.82584e-05
-1.00819e-05
1.85312e-05
-9.61012e-06
-1.33143e-05
2.34467e-05
6.69848e-06
9.65819e-06
8.49483e-06
3.896e-06
1.09548e-05
5.31781e-06
1.19685e-05
4.87272e-06
1.31435e-05
6.87941e-06
1.51869e-05
3.44995e-06
1.58869e-05
4.61933e-06
1.6359e-05
2.62848e-06
1.6575e-05
5.08588e-06
1.89462e-05
2.28369e-06
1.87978e-05
1.99947e-06
1.67144e-05
-8.29407e-07
1.85846e-05
-3.33189e-07
2.20546e-05
-1.89414e-06
2.08562e-05
-8.5629e-07
1.89621e-05
-7.56527e-06
1.76933e-05
-7.80817e-06
-1.39112e-05
1.87581e-05
5.94957e-06
1.0669e-05
6.44337e-06
5.14978e-06
7.55905e-06
5.89054e-06
8.27812e-06
5.74033e-06
9.40342e-06
7.2042e-06
1.08427e-05
3.34319e-06
1.14405e-05
5.28702e-06
1.15387e-05
3.69267e-06
1.26681e-05
4.97548e-06
1.44538e-05
1.41744e-06
1.40816e-05
3.24768e-06
1.41237e-05
-9.91726e-08
1.40958e-05
3.79327e-07
1.56315e-05
-2.8288e-06
1.65441e-05
-1.2447e-06
1.56301e-05
-6.1769e-06
1.22608e-05
-4.02317e-06
-1.08451e-05
9.54903e-06
7.48343e-06
1.13696e-05
8.15948e-06
6.47922e-06
9.01286e-06
6.97222e-06
1.01096e-05
6.44421e-06
1.09584e-05
8.01978e-06
1.10372e-05
4.82326e-06
1.16612e-05
6.11139e-06
1.3e-05
3.66454e-06
1.44543e-05
4.67452e-06
1.59631e-05
9.59501e-07
1.67745e-05
3.4332e-06
1.7186e-05
3.77371e-07
1.65744e-05
1.7796e-06
1.75655e-05
-3.13717e-06
1.87603e-05
-1.84102e-06
1.79101e-05
-4.7968e-06
1.70037e-05
-2.65182e-06
-8.21576e-06
1.47801e-05
8.48371e-06
1.21233e-05
9.57244e-06
7.67685e-06
1.07655e-05
7.96562e-06
1.21695e-05
7.09048e-06
1.30774e-05
9.02831e-06
1.29769e-05
6.70712e-06
1.37243e-05
6.97193e-06
1.51236e-05
3.72566e-06
1.65441e-05
4.58447e-06
1.7402e-05
1.32266e-06
1.85216e-05
3.41062e-06
1.89884e-05
9.07936e-07
1.97809e-05
1.90677e-06
2.0202e-05
-2.78078e-06
2.04613e-05
-1.44197e-06
1.99755e-05
-3.72031e-06
2.04456e-05
-2.58703e-06
-5.44573e-06
1.81425e-05
1.00765e-05
1.28558e-05
1.12629e-05
9.0648e-06
1.23711e-05
9.3194e-06
1.3813e-05
7.96825e-06
1.53811e-05
9.62868e-06
1.64387e-05
7.63678e-06
1.73611e-05
7.83855e-06
1.81011e-05
4.63952e-06
1.90935e-05
5.1211e-06
1.94171e-05
2.37486e-06
2.04113e-05
3.63194e-06
2.12726e-05
1.15712e-06
2.2521e-05
1.64982e-06
2.23527e-05
-1.75716e-06
2.28753e-05
-1.20879e-06
2.26582e-05
-2.83045e-06
2.29487e-05
-2.28552e-06
-3.53998e-06
2.15588e-05
1.18937e-05
1.35839e-05
1.31841e-05
1.06276e-05
1.4557e-05
1.06948e-05
1.58581e-05
9.25043e-06
1.75867e-05
1.02971e-05
1.91665e-05
8.24575e-06
2.06874e-05
8.30865e-06
2.1473e-05
5.6981e-06
2.24293e-05
5.86034e-06
2.27471e-05
3.56204e-06
2.38906e-05
3.82807e-06
2.46868e-05
1.58035e-06
2.57657e-05
1.66371e-06
2.52273e-05
-2.61587e-07
2.54472e-05
-5.8697e-07
2.5214e-05
-1.85387e-06
2.56224e-05
-2.04584e-06
-2.64996e-06
2.52871e-05
1.33851e-05
1.48512e-05
1.5198e-05
1.19366e-05
1.70634e-05
1.18394e-05
1.8566e-05
1.05705e-05
2.04725e-05
1.09939e-05
2.19681e-05
9.1393e-06
2.37366e-05
8.72079e-06
2.47031e-05
6.73896e-06
2.59154e-05
6.47554e-06
2.64981e-05
4.60363e-06
2.75144e-05
4.2621e-06
2.78299e-05
2.58055e-06
2.85501e-05
2.12466e-06
2.85153e-05
8.2055e-07
2.8711e-05
1.28964e-07
2.83434e-05
-6.97405e-07
2.83399e-05
-1.34487e-06
-1.91391e-06
2.82029e-05
1.5518e-05
1.57134e-05
1.73075e-05
1.34946e-05
1.94361e-05
1.29267e-05
2.11916e-05
1.18104e-05
2.34177e-05
1.15237e-05
2.5059e-05
1.00342e-05
2.67577e-05
9.34214e-06
2.77623e-05
7.8575e-06
2.89633e-05
7.2e-06
2.9637e-05
5.64643e-06
3.05623e-05
4.86672e-06
3.09629e-05
3.5575e-06
3.16356e-05
2.68015e-06
3.17714e-05
1.76634e-06
3.1913e-05
9.37026e-07
3.18753e-05
1.51293e-07
3.1756e-05
-5.21862e-07
-1.07773e-06
3.15403e-05
1.81855e-05
1.69731e-05
2.02447e-05
1.48819e-05
2.2488e-05
1.39853e-05
2.44631e-05
1.28992e-05
2.66786e-05
1.21375e-05
2.84383e-05
1.08747e-05
3.02253e-05
9.92238e-06
3.14572e-05
8.78102e-06
3.28363e-05
7.76826e-06
3.36639e-05
6.55271e-06
3.45291e-05
5.5424e-06
3.4977e-05
4.4882e-06
3.5392e-05
3.48092e-06
3.56603e-05
2.55828e-06
3.57646e-05
1.76111e-06
3.56776e-05
1.0324e-06
3.54405e-05
3.98767e-07
-1.72674e-07
3.5126e-05
2.06281e-05
1.8024e-05
2.3267e-05
1.56115e-05
2.58982e-05
1.45706e-05
2.81443e-05
1.36287e-05
3.03032e-05
1.27222e-05
3.21446e-05
1.15342e-05
3.38709e-05
1.04618e-05
3.54018e-05
9.308e-06
3.67794e-05
8.23781e-06
3.7877e-05
7.09166e-06
3.87415e-05
6.12476e-06
3.9377e-05
5.13389e-06
3.97628e-05
4.21256e-06
3.99379e-05
3.35207e-06
3.99566e-05
2.57688e-06
3.98091e-05
1.88345e-06
3.95546e-05
1.25101e-06
6.74458e-07
3.92127e-05
2.36704e-05
1.80213e-05
2.6528e-05
1.57544e-05
2.93028e-05
1.46649e-05
3.18695e-05
1.3705e-05
3.42898e-05
1.2718e-05
3.63658e-05
1.1642e-05
3.82436e-05
1.05567e-05
3.98569e-05
9.46513e-06
4.12409e-05
8.42223e-06
4.2295e-05
7.41114e-06
4.31271e-05
6.4924e-06
4.37198e-05
5.58319e-06
4.40797e-05
4.74153e-06
4.42466e-05
3.9386e-06
4.4251e-05
3.20382e-06
4.41245e-05
2.52404e-06
4.38628e-05
1.93505e-06
1.37647e-06
4.34923e-05
2.42876e-05
1.75351e-05
2.69273e-05
1.51746e-05
2.94407e-05
1.41135e-05
3.17905e-05
1.31409e-05
3.39289e-05
1.21834e-05
3.57976e-05
1.12058e-05
3.74146e-05
1.02162e-05
3.876e-05
9.23907e-06
3.98539e-05
8.29686e-06
4.07226e-05
7.36707e-06
4.14339e-05
6.47604e-06
4.19586e-05
5.63081e-06
4.23302e-05
4.83302e-06
4.25516e-05
4.08381e-06
4.26106e-05
3.42014e-06
4.25219e-05
2.81096e-06
4.23155e-05
2.26926e-06
1.76903e-06
4.19892e-05
2.10886e-05
1.59337e-05
2.33048e-05
1.40223e-05
2.53473e-05
1.30819e-05
2.72083e-05
1.21707e-05
2.8897e-05
1.12704e-05
3.0473e-05
1.02997e-05
3.18444e-05
9.41411e-06
3.30082e-05
8.55077e-06
3.3975e-05
7.70936e-06
3.47499e-05
6.88655e-06
3.53736e-05
6.07044e-06
3.58363e-05
5.30554e-06
3.61295e-05
4.61651e-06
3.62926e-05
3.93722e-06
3.63279e-05
3.34622e-06
3.6248e-05
2.81376e-06
3.60703e-05
2.32451e-06
1.86916e-06
3.58189e-05
1.84225e-05
1.44004e-05
2.03567e-05
1.24844e-05
2.21819e-05
1.16171e-05
2.38097e-05
1.08342e-05
2.53238e-05
9.99466e-06
2.66335e-05
9.15804e-06
2.77771e-05
8.38306e-06
2.87369e-05
7.65014e-06
2.95177e-05
6.92623e-06
3.01222e-05
6.23633e-06
3.05661e-05
5.53616e-06
3.08575e-05
4.87598e-06
3.10428e-05
4.26166e-06
3.10873e-05
3.68688e-06
3.10586e-05
3.14187e-06
3.09612e-05
2.65848e-06
3.07869e-05
2.22115e-06
1.82297e-06
3.05505e-05
1.63442e-05
1.2811e-05
1.79109e-05
1.08784e-05
1.94752e-05
1.00131e-05
2.08947e-05
9.35022e-06
2.21478e-05
8.63921e-06
2.32143e-05
7.94223e-06
2.41766e-05
7.25356e-06
2.50069e-05
6.61725e-06
2.56875e-05
6.01151e-06
2.62426e-05
5.42881e-06
2.66445e-05
4.85552e-06
2.6933e-05
4.28708e-06
2.71336e-05
3.74179e-06
2.7237e-05
3.24852e-06
2.7241e-05
2.79062e-06
2.71782e-05
2.36542e-06
2.7046e-05
1.99196e-06
1.67043e-06
2.68385e-05
1.46054e-05
1.09964e-05
1.58494e-05
9.33362e-06
1.7174e-05
8.40701e-06
1.84303e-05
7.81006e-06
1.94932e-05
7.26119e-06
2.0388e-05
6.72037e-06
2.11473e-05
6.16549e-06
2.1797e-05
5.61025e-06
2.23609e-05
5.08885e-06
2.28457e-05
4.56833e-06
2.3239e-05
4.07606e-06
2.35418e-05
3.59571e-06
2.37304e-05
3.14827e-06
2.38332e-05
2.74888e-06
2.38538e-05
2.36516e-06
2.37779e-05
2.03802e-06
2.36507e-05
1.72242e-06
1.45466e-06
2.34682e-05
1.32074e-05
9.07445e-06
1.43374e-05
7.77614e-06
1.53795e-05
6.96194e-06
1.63696e-05
6.41161e-06
1.72685e-05
5.93529e-06
1.80802e-05
5.49175e-06
1.87654e-05
5.05674e-06
1.93219e-05
4.61948e-06
1.97939e-05
4.19693e-06
2.01607e-05
3.76379e-06
2.04517e-05
3.35603e-06
2.06673e-05
2.95286e-06
2.07832e-05
2.59502e-06
2.08613e-05
2.25443e-06
2.0851e-05
1.94719e-06
2.07982e-05
1.67808e-06
2.07008e-05
1.41381e-06
1.1867e-06
2.05632e-05
1.1451e-05
7.56668e-06
1.25442e-05
6.19211e-06
1.35862e-05
5.45157e-06
1.45419e-05
4.98374e-06
1.53846e-05
4.62164e-06
1.61129e-05
4.30266e-06
1.6707e-05
3.99869e-06
1.71834e-05
3.68853e-06
1.7575e-05
3.3586e-06
1.78684e-05
3.01899e-06
1.81008e-05
2.68819e-06
1.82605e-05
2.35429e-06
1.83576e-05
2.06578e-06
1.84131e-05
1.78027e-06
1.84077e-05
1.52804e-06
1.8375e-05
1.30866e-06
1.82887e-05
1.09739e-06
9.06151e-07
1.81806e-05
1.01128e-05
5.79781e-06
1.12475e-05
4.54654e-06
1.21963e-05
4.01339e-06
1.30216e-05
3.67185e-06
1.37315e-05
3.43257e-06
1.43492e-05
3.21464e-06
1.4884e-05
3.00206e-06
1.53461e-05
2.77695e-06
1.57329e-05
2.52706e-06
1.60349e-05
2.27904e-06
1.62714e-05
2.0245e-06
1.64287e-05
1.77088e-06
1.6532e-05
1.54872e-06
1.65781e-05
1.32564e-06
1.65773e-05
1.12795e-06
1.65393e-05
9.60755e-07
1.64487e-05
8.06154e-07
6.74445e-07
1.63173e-05
9.11486e-06
3.88649e-06
1.01215e-05
3.03836e-06
1.09595e-05
2.69758e-06
1.16729e-05
2.48626e-06
1.22939e-05
2.3491e-06
1.28256e-05
2.23248e-06
1.32842e-05
2.10175e-06
1.36732e-05
1.95675e-06
1.39937e-05
1.78272e-06
1.42445e-05
1.61226e-06
1.4438e-05
1.42483e-06
1.45733e-05
1.23568e-06
1.46604e-05
1.07184e-06
1.46919e-05
9.12384e-07
1.4672e-05
7.76911e-07
1.46095e-05
6.62803e-07
1.45012e-05
5.64788e-07
4.80719e-07
1.43582e-05
8.0736e-06
2.28309e-06
9.13238e-06
1.50509e-06
9.95068e-06
1.42703e-06
1.05786e-05
1.41365e-06
1.1069e-05
1.42456e-06
1.14658e-05
1.41322e-06
1.17994e-05
1.35621e-06
1.20713e-05
1.2825e-06
1.22715e-05
1.19e-06
1.2406e-05
1.0933e-06
1.24768e-05
9.78302e-07
1.24942e-05
8.50837e-07
1.24695e-05
7.37376e-07
1.24008e-05
6.3234e-07
1.22918e-05
5.46129e-07
1.21528e-05
4.73297e-07
1.20018e-05
3.97959e-07
3.47164e-07
1.18282e-05
7.34682e-06
7.96734e-07
8.1912e-06
2.20264e-07
8.72665e-06
4.74616e-07
9.07915e-06
6.51648e-07
9.30238e-06
8.02369e-07
9.45865e-06
8.68897e-07
9.56559e-06
8.71566e-07
9.63349e-06
8.46809e-07
9.66597e-06
7.98505e-07
9.67234e-06
7.36038e-07
9.6447e-06
6.63173e-07
9.57405e-06
5.86929e-07
9.46988e-06
5.15935e-07
9.33453e-06
4.51363e-07
9.17247e-06
4.0137e-07
8.99864e-06
3.49947e-07
8.82327e-06
2.8575e-07
2.4705e-07
8.64604e-06
6.41681e-06
-2.9924e-07
6.58483e-06
-3.50914e-07
6.58523e-06
9.40447e-08
6.52825e-06
3.37302e-07
6.47598e-06
4.92574e-07
6.45414e-06
5.38775e-07
6.45175e-06
5.31596e-07
6.46135e-06
5.03539e-07
6.47157e-06
4.62538e-07
6.47334e-06
4.16241e-07
6.45174e-06
3.74391e-07
6.4042e-06
3.3189e-07
6.33298e-06
2.92446e-07
6.24268e-06
2.55092e-07
6.1479e-06
2.17837e-07
6.04041e-06
1.87738e-07
5.92611e-06
1.39265e-07
1.10538e-07
5.81171e-06
4.27711e-06
3.55901e-06
3.30304e-06
3.30114e-06
3.46384e-06
3.68252e-06
3.90314e-06
4.1043e-06
4.27277e-06
4.40283e-06
4.49867e-06
4.55963e-06
4.58883e-06
4.58853e-06
4.55904e-06
4.50777e-06
4.4169e-06
4.30622e-06
-4.85676e-07
-8.04261e-07
-7.58292e-07
-1.04693e-06
-6.28136e-07
-1.46096e-06
-2.32069e-07
-1.74282e-06
3.21533e-07
-1.91487e-06
9.30608e-07
-1.98382e-06
1.52914e-06
-1.9857e-06
2.09011e-06
-1.95991e-06
2.57258e-06
-1.8929e-06
2.93288e-06
-1.78188e-06
3.17649e-06
-1.6775e-06
3.28315e-06
-1.55336e-06
3.19258e-06
-1.3681e-06
2.88307e-06
-1.16035e-06
2.37869e-06
-9.79818e-07
1.64256e-06
-7.59842e-07
7.15277e-07
-5.79664e-07
-3.73206e-07
-4.3121e-07
-1.61994e-06
-2.80847e-07
-2.91641e-06
-2.35416e-07
-4.21555e-06
-2.33274e-07
-5.5687e-06
-1.84134e-07
-6.7543e-06
-3.52333e-07
-7.62977e-06
-6.36809e-07
-8.34881e-06
-7.71332e-07
-9.10867e-06
-7.52294e-07
-9.974e-06
-6.92697e-07
-1.10343e-05
-5.17673e-07
-1.2109e-05
-4.96747e-07
-1.27691e-05
-8.74612e-07
-1.30294e-05
-1.20054e-06
-1.3249e-05
-1.15413e-06
-1.35813e-05
-9.97095e-07
-1.41093e-05
-7.8883e-07
-1.48044e-05
-6.03288e-07
-1.57229e-05
-3.53139e-07
-1.69308e-05
-4.13283e-08
-1.83563e-05
1.90341e-07
-1.99341e-05
3.58524e-07
-2.15752e-05
4.50911e-07
-2.32153e-05
4.91474e-07
-2.48119e-05
4.96194e-07
-2.63417e-05
4.81902e-07
-2.7787e-05
4.55322e-07
-2.91266e-05
4.12728e-07
-3.03488e-05
3.63187e-07
-3.14353e-05
3.00003e-07
-3.23838e-05
2.39407e-07
-3.3183e-05
1.72243e-07
-3.38406e-05
1.16679e-07
-3.43547e-05
6.33165e-08
-3.47297e-05
1.83536e-08
-3.49713e-05
-1.74228e-08
-3.50561e-05
-7.23908e-08
-3.50133e-05
-9.48098e-08
-3.48404e-05
-1.16049e-07
-3.45913e-05
-8.03294e-08
-3.42519e-05
-5.54818e-08
-3.38554e-05
5.50673e-09
-3.34069e-05
7.33505e-08
-3.29152e-05
1.51066e-07
-3.23699e-05
2.19681e-07
-3.17732e-05
2.90577e-07
-3.11355e-05
3.72883e-07
-3.04584e-05
4.57947e-07
-2.97307e-05
5.29096e-07
-2.89204e-05
5.66389e-07
-2.80507e-05
6.29667e-07
-2.7142e-05
7.1177e-07
-2.61747e-05
7.73283e-07
-2.52156e-05
9.02558e-07
-2.4289e-05
1.04756e-06
-2.33517e-05
1.13756e-06
-2.23781e-05
1.19427e-06
-2.1341e-05
1.22042e-06
-2.02138e-05
1.22082e-06
-1.90488e-05
1.2733e-06
-1.78858e-05
1.36172e-06
-1.67664e-05
1.4806e-06
-1.5601e-05
1.50213e-06
-1.4406e-05
1.53917e-06
-1.31164e-05
1.50753e-06
-1.17585e-05
1.49682e-06
-1.04065e-05
1.55303e-06
-9.02742e-06
1.57e-06
-7.68544e-06
1.65325e-06
-6.3379e-06
1.69918e-06
-5.1532e-06
1.91601e-06
-4.13795e-06
2.13522e-06
-3.37356e-06
2.42756e-06
-2.83167e-06
2.69086e-06
-2.44709e-06
2.90947e-06
-2.09886e-06
3.01328e-06
-1.75024e-06
3.08187e-06
-1.27258e-06
3.01884e-06
-6.7913e-07
2.95726e-06
-4.5289e-08
2.97947e-06
5.34501e-07
3.13009e-06
1.44757e-06
2.92186e-06
2.56154e-06
2.85018e-06
3.26583e-06
3.36886e-06
3.25459e-06
4.22104e-06
2.60313e-06
5.00793e-06
2.06939e-06
5.14263e-06
2.43559e-06
4.53656e-06
3.28411e-06
4.03711e-06
3.29859e-06
4.83241e-06
1.87249e-06
6.31531e-06
-4.59903e-07
7.36392e-06
-2.35119e-06
7.17047e-06
-3.86384e-06
7.04019e-06
-5.66922e-06
7.56077e-06
-7.96088e-06
8.27354e-06
-1.04395e-05
8.67605e-06
-1.26734e-05
8.62061e-06
-1.40405e-05
7.87446e-06
-1.42169e-05
6.79992e-06
-1.37178e-05
6.27895e-06
-1.29002e-05
6.1268e-06
-1.13314e-05
5.55983e-06
-9.01288e-06
5.05779e-06
-7.06105e-06
5.6114e-06
-6.64627e-06
7.47507e-06
-7.76305e-06
9.26714e-06
-8.04685e-06
8.63567e-06
-1.00154e-05
1.04286e-05
-1.13057e-05
9.84795e-06
-1.14896e-05
8.96785e-06
-1.16937e-05
9.28363e-06
-1.25798e-05
1.0212e-05
-1.39342e-05
1.08837e-05
-1.53185e-05
1.11136e-05
-1.66344e-05
1.12793e-05
-1.75539e-05
1.11711e-05
-1.84927e-05
1.15075e-05
-1.92596e-05
1.1698e-05
-1.96368e-05
1.16786e-05
-2.03109e-05
1.23179e-05
-2.13189e-05
1.30475e-05
-2.21364e-05
1.33432e-05
-2.20477e-05
1.30304e-05
-2.17957e-05
1.3385e-05
-2.15879e-05
1.38422e-05
-2.10321e-05
1.39832e-05
-2.01879e-05
1.41605e-05
-1.96706e-05
1.49059e-05
-1.86028e-05
1.49799e-05
-1.69646e-05
1.48822e-05
-1.524e-05
1.52572e-05
-1.34107e-05
1.56775e-05
-1.11418e-05
1.55931e-05
-9.43146e-06
1.65296e-05
-7.28835e-06
1.64484e-05
-3.76841e-06
1.5401e-05
-6.85634e-07
1.60028e-05
3.23629e-07
1.83307e-05
6.41031e-07
1.94539e-05
1.41684e-06
1.94013e-05
2.49454e-06
1.95656e-05
5.04021e-06
1.87337e-05
8.6013e-06
1.79138e-05
1.06753e-05
1.93058e-05
1.19846e-05
2.01107e-05
1.38846e-05
1.9886e-05
1.75296e-05
1.84995e-05
2.20448e-05
1.75027e-05
2.54965e-05
1.77483e-05
2.75744e-05
1.80872e-05
2.81533e-05
1.86466e-05
2.78086e-05
1.86489e-05
2.69335e-05
1.85281e-05
2.51003e-05
1.90422e-05
2.31195e-05
1.86346e-05
2.02569e-05
1.89599e-05
1.78631e-05
1.79626e-05
1.61199e-05
1.67144e-05
1.44386e-05
1.60825e-05
1.31034e-05
1.52539e-05
1.20307e-05
1.45139e-05
1.35997e-05
1.13741e-05
-2.55433e-07
-1.81021e-06
-1.80813e-07
-2.40367e-06
1.86638e-07
-3.13768e-06
6.73857e-07
-3.5687e-06
1.19836e-06
-3.79222e-06
1.7131e-06
-3.86122e-06
2.19202e-06
-3.83328e-06
2.63032e-06
-3.76999e-06
3.02552e-06
-3.66345e-06
3.36325e-06
-3.502e-06
3.59558e-06
-3.30432e-06
3.70028e-06
-3.06432e-06
3.66914e-06
-2.75923e-06
3.49931e-06
-2.42882e-06
3.1419e-06
-2.07824e-06
2.58123e-06
-1.68371e-06
1.86814e-06
-1.36686e-06
1.01028e-06
-1.09211e-06
-2.9996e-08
-7.84218e-07
-1.23381e-06
-5.94786e-07
-2.48203e-06
-5.48746e-07
-3.4891e-06
-7.46638e-07
-4.53675e-06
-9.2337e-07
-5.77481e-06
-1.03891e-06
-6.95505e-06
-1.22229e-06
-7.75686e-06
-1.56753e-06
-7.97015e-06
-2.01831e-06
-7.84954e-06
-2.07481e-06
-8.04509e-06
-1.82737e-06
-8.99065e-06
-1.6672e-06
-1.03747e-05
-1.46708e-06
-1.18985e-05
-8.48935e-07
-1.37443e-05
-1.64711e-07
-1.60388e-05
3.49539e-07
-1.85146e-05
5.78793e-07
-2.08962e-05
7.0839e-07
-2.30439e-05
7.93639e-07
-2.49971e-05
8.52278e-07
-2.67832e-05
8.84946e-07
-2.8446e-05
8.95379e-07
-2.99972e-05
8.74055e-07
-3.14296e-05
8.16493e-07
-3.2725e-05
7.25752e-07
-3.38848e-05
6.2632e-07
-3.49051e-05
5.10261e-07
-3.57805e-05
3.86491e-07
-3.65324e-05
2.72576e-07
-3.71525e-05
1.56403e-07
-3.76448e-05
4.09303e-08
-3.7998e-05
-6.95579e-08
-3.82398e-05
-1.46148e-07
-3.83449e-05
-2.35812e-07
-3.83225e-05
-3.03611e-07
-3.8216e-05
-3.4407e-07
-3.79817e-05
-3.94532e-07
-3.76754e-05
-3.86409e-07
-3.72513e-05
-3.64165e-07
-3.67598e-05
-2.97584e-07
-3.62158e-05
-1.72404e-07
-3.56426e-05
-1.28855e-08
-3.50597e-05
1.81097e-07
-3.44489e-05
3.47198e-07
-3.38001e-05
5.01288e-07
-3.31157e-05
6.73111e-07
-3.23925e-05
8.53146e-07
-3.1591e-05
9.73836e-07
-3.06835e-05
1.01563e-06
-2.97541e-05
1.17182e-06
-2.87681e-05
1.32701e-06
-2.77177e-05
1.44958e-06
-2.66578e-05
1.70278e-06
-2.5688e-05
2.08636e-06
-2.47397e-05
2.32711e-06
-2.37207e-05
2.41192e-06
-2.25734e-05
2.38537e-06
-2.12807e-05
2.29957e-06
-1.99449e-05
2.37964e-06
-1.86462e-05
2.6066e-06
-1.73766e-05
2.85953e-06
-1.60669e-05
2.92244e-06
-1.46994e-05
2.98421e-06
-1.32039e-05
2.881e-06
-1.17009e-05
2.87941e-06
-1.02329e-05
2.99922e-06
-8.73068e-06
2.99812e-06
-7.22624e-06
3.10794e-06
-5.70754e-06
3.17848e-06
-4.34723e-06
3.61909e-06
-3.2859e-06
4.24621e-06
-2.54662e-06
4.97446e-06
-2.02503e-06
5.54908e-06
-1.55444e-06
5.90912e-06
-1.02769e-06
6.01825e-06
-5.3617e-07
6.15053e-06
-7.26951e-08
6.15176e-06
5.97572e-07
5.94001e-06
1.43646e-06
5.82647e-06
2.4338e-06
5.87855e-06
3.73492e-06
5.46889e-06
5.02887e-06
5.53653e-06
5.85632e-06
6.66185e-06
5.95285e-06
8.36557e-06
5.78685e-06
9.71362e-06
6.48997e-06
9.55404e-06
6.48896e-06
9.62983e-06
3.30794e-06
1.16153e-05
-1.15726e-06
1.37015e-05
-4.1884e-06
1.41417e-05
-5.11202e-06
1.34077e-05
-5.61091e-06
1.30784e-05
-6.69156e-06
1.38741e-05
-8.65095e-06
1.56285e-05
-1.15726e-05
1.74599e-05
-1.5154e-05
1.83391e-05
-1.77493e-05
1.73435e-05
-1.80013e-05
1.45805e-05
-1.73277e-05
1.2679e-05
-1.72483e-05
1.27662e-05
-1.70885e-05
1.26548e-05
-1.57347e-05
1.10562e-05
-1.39052e-05
1.03089e-05
-1.2534e-05
1.1691e-05
-1.08661e-05
1.36938e-05
-1.02689e-05
1.70772e-05
-9.80546e-06
1.66496e-05
-1.01117e-05
1.94408e-05
-1.06402e-05
1.91642e-05
-1.01615e-05
1.74649e-05
-9.13832e-06
1.76157e-05
-8.60906e-06
1.94609e-05
-8.93708e-06
2.13148e-05
-1.01043e-05
2.25304e-05
-1.19278e-05
2.34473e-05
-1.31685e-05
2.28119e-05
-1.44348e-05
2.33576e-05
-1.5196e-05
2.34473e-05
-1.53142e-05
2.32158e-05
-1.58116e-05
2.46424e-05
-1.66962e-05
2.62019e-05
-1.79052e-05
2.77221e-05
-1.81209e-05
2.71985e-05
-1.76073e-05
2.73434e-05
-1.69427e-05
2.83701e-05
-1.55362e-05
2.82857e-05
-1.46301e-05
2.91771e-05
-1.4187e-05
3.14713e-05
-1.31795e-05
3.16983e-05
-1.1328e-05
3.0959e-05
-9.70116e-06
3.21442e-05
-7.99214e-06
3.31462e-05
-5.11014e-06
3.20285e-05
-3.20994e-06
3.44809e-05
-1.51992e-06
3.54307e-05
2.4449e-06
3.14881e-05
6.27509e-06
3.19695e-05
7.23465e-06
3.82582e-05
6.7509e-06
4.19179e-05
6.54162e-06
4.22802e-05
7.22729e-06
4.2904e-05
1.02171e-05
4.11551e-05
1.40154e-05
3.87621e-05
1.58976e-05
4.17639e-05
1.63201e-05
4.53627e-05
1.70732e-05
4.6521e-05
2.09288e-05
4.28016e-05
2.54915e-05
3.9712e-05
2.85301e-05
3.84165e-05
3.01089e-05
3.77225e-05
2.92686e-05
3.89818e-05
2.70516e-05
3.91211e-05
2.38898e-05
3.97364e-05
2.05016e-05
4.02129e-05
1.62559e-05
4.02119e-05
1.24251e-05
3.98633e-05
1.0528e-05
3.60273e-05
9.66952e-06
3.2983e-05
8.71352e-06
3.1827e-05
8.2288e-06
3.02979e-05
8.6623e-06
2.8214e-05
2.78616e-05
7.90001e-06
1.00947e-08
-3.04394e-06
4.09187e-07
-4.05597e-06
8.68256e-07
-4.9e-06
1.24062e-06
-5.26869e-06
1.54199e-06
-5.41411e-06
1.77759e-06
-5.4151e-06
1.99912e-06
-5.36664e-06
2.24423e-06
-5.31958e-06
2.49002e-06
-5.21591e-06
2.74684e-06
-5.07356e-06
2.93603e-06
-4.82211e-06
3.0132e-06
-4.48322e-06
2.98823e-06
-4.08393e-06
2.83395e-06
-3.64212e-06
2.50754e-06
-3.13632e-06
2.06441e-06
-2.64541e-06
1.40358e-06
-2.14501e-06
5.22114e-07
-1.67572e-06
-4.08288e-07
-1.35722e-06
-1.47406e-06
-1.04831e-06
-2.63536e-06
-9.68569e-07
-3.89684e-06
-1.12124e-06
-5.19242e-06
-1.17875e-06
-6.02903e-06
-1.73479e-06
-6.50322e-06
-2.34873e-06
-6.98723e-06
-2.6921e-06
-7.86982e-06
-2.67424e-06
-8.97998e-06
-2.33092e-06
-1.05654e-05
-1.45112e-06
-1.28099e-05
-6.24065e-07
-1.56137e-05
7.9704e-08
-1.82082e-05
4.44164e-07
-2.03947e-05
6.7109e-07
-2.22831e-05
8.60881e-07
-2.40843e-05
1.00347e-06
-2.58118e-05
1.07537e-06
-2.74349e-05
1.09018e-06
-2.89425e-05
1.07581e-06
-3.03264e-05
1.03591e-06
-3.15748e-05
9.66015e-07
-3.26882e-05
8.66334e-07
-3.36829e-05
7.46852e-07
-3.45854e-05
6.18672e-07
-3.53677e-05
4.6052e-07
-3.60546e-05
3.12685e-07
-3.66375e-05
1.45269e-07
-3.71275e-05
3.4806e-09
-3.7524e-05
-1.33907e-07
-3.78523e-05
-2.41409e-07
-3.81097e-05
-3.44924e-07
-3.82564e-05
-4.43822e-07
-3.83183e-05
-5.24096e-07
-3.82942e-05
-5.84687e-07
-3.81626e-05
-6.32019e-07
-3.79307e-05
-6.82782e-07
-3.75846e-05
-6.92352e-07
-3.71651e-05
-6.46781e-07
-3.66791e-05
-5.48786e-07
-3.61038e-05
-4.11028e-07
-3.54724e-05
-2.00172e-07
-3.48197e-05
9.1329e-08
-3.41771e-05
3.93737e-07
-3.35172e-05
6.5043e-07
-3.28528e-05
9.44026e-07
-3.2143e-05
1.22918e-06
-3.13626e-05
1.42288e-06
-3.05252e-05
1.49575e-06
-2.96793e-05
1.72328e-06
-2.87572e-05
1.91652e-06
-2.77473e-05
2.03684e-06
-2.6607e-05
2.23868e-06
-2.54735e-05
2.82521e-06
-2.44246e-05
3.40125e-06
-2.33771e-05
3.66211e-06
-2.22184e-05
3.57368e-06
-2.09732e-05
3.36237e-06
-1.96253e-05
3.338e-06
-1.82151e-05
3.59817e-06
-1.68012e-05
3.98533e-06
-1.53508e-05
4.10384e-06
-1.39247e-05
4.28186e-06
-1.25314e-05
4.26263e-06
-1.11875e-05
4.2714e-06
-9.88599e-06
4.44186e-06
-8.51599e-06
4.3703e-06
-7.05156e-06
4.38283e-06
-5.48574e-06
4.33691e-06
-3.83411e-06
4.68556e-06
-2.35203e-06
5.55265e-06
-1.27785e-06
6.82526e-06
-3.53754e-07
7.68066e-06
6.02034e-07
8.14896e-06
1.56767e-06
8.30631e-06
2.40214e-06
8.50311e-06
2.79524e-06
9.01777e-06
3.06133e-06
9.16248e-06
3.594e-06
8.81537e-06
4.59437e-06
8.34876e-06
5.7407e-06
7.87014e-06
6.72625e-06
8.24482e-06
7.15748e-06
1.00387e-05
7.55454e-06
1.20601e-05
8.04544e-06
1.38514e-05
6.45837e-06
1.54633e-05
1.30233e-06
1.81492e-05
-3.80063e-06
2.02163e-05
-6.11083e-06
2.03572e-05
-6.61756e-06
1.94262e-05
-6.81714e-06
1.87154e-05
-7.80015e-06
1.94833e-05
-1.01461e-05
2.19237e-05
-1.35093e-05
2.4846e-05
-1.67798e-05
2.68086e-05
-1.8596e-05
2.61704e-05
-1.87099e-05
2.32235e-05
-1.85056e-05
2.01451e-05
-1.94831e-05
1.98107e-05
-2.07131e-05
2.05662e-05
-2.03466e-05
1.89337e-05
-1.93856e-05
1.66131e-05
-1.9181e-05
1.67139e-05
-1.8071e-05
1.7514e-05
-1.57711e-05
1.87094e-05
-1.39822e-05
2.34027e-05
-1.29244e-05
2.38588e-05
-1.29716e-05
2.77648e-05
-1.31107e-05
2.77502e-05
-1.19097e-05
2.48073e-05
-1.06002e-05
2.50214e-05
-9.33818e-06
2.74121e-05
-8.60767e-06
3.04249e-05
-8.83962e-06
3.29847e-05
-9.89702e-06
3.49381e-05
-1.08729e-05
3.41104e-05
-1.23407e-05
3.49781e-05
-1.36451e-05
3.51473e-05
-1.44434e-05
3.46597e-05
-1.4723e-05
3.56984e-05
-1.52521e-05
3.75869e-05
-1.65929e-05
4.14073e-05
-1.73484e-05
4.10916e-05
-1.71285e-05
3.97861e-05
-1.65445e-05
4.15832e-05
-1.56181e-05
4.15608e-05
-1.40189e-05
4.03218e-05
-1.22713e-05
4.5321e-05
-1.15198e-05
4.80375e-05
-9.99593e-06
4.52526e-05
-8.31012e-06
4.69181e-05
-6.53656e-06
4.91344e-05
-3.81592e-06
4.60056e-05
-1.12452e-06
4.90557e-05
-1.0254e-08
5.41169e-05
2.20343e-06
4.56185e-05
8.13396e-06
4.04857e-05
1.12394e-05
5.24024e-05
1.19692e-05
6.12888e-05
1.15524e-05
6.36966e-05
1.18476e-05
6.54961e-05
1.46753e-05
6.24679e-05
1.73569e-05
5.65274e-05
1.93179e-05
5.9268e-05
2.03565e-05
6.81334e-05
2.24254e-05
7.31767e-05
2.62789e-05
6.90148e-05
2.92913e-05
6.26288e-05
2.95818e-05
5.86791e-05
2.87084e-05
5.65667e-05
2.63846e-05
5.8555e-05
2.36663e-05
5.93892e-05
2.07975e-05
6.04399e-05
1.62142e-05
6.19083e-05
1.18658e-05
6.19741e-05
8.87897e-06
5.99431e-05
7.11494e-06
5.33211e-05
6.51051e-06
4.83796e-05
6.45459e-06
4.57444e-05
7.14949e-06
4.34107e-05
8.19106e-06
4.07435e-05
4.11578e-05
8.32761e-06
1.96591e-07
-4.43066e-06
6.08676e-07
-5.7044e-06
8.51168e-07
-6.41911e-06
9.27899e-07
-6.61642e-06
9.42547e-07
-6.68602e-06
9.43087e-07
-6.68701e-06
1.01531e-06
-6.70911e-06
1.18022e-06
-6.75339e-06
1.395e-06
-6.72232e-06
1.62944e-06
-6.61742e-06
1.82511e-06
-6.33568e-06
1.92505e-06
-5.92174e-06
1.88564e-06
-5.4084e-06
1.70209e-06
-4.82979e-06
1.42538e-06
-4.23726e-06
9.62439e-07
-3.55832e-06
2.88534e-07
-2.8578e-06
-5.40762e-07
-2.27254e-06
-1.53749e-06
-1.80348e-06
-2.59664e-06
-1.49327e-06
-3.69128e-06
-1.3784e-06
-4.86912e-06
-1.42457e-06
-5.76532e-06
-1.92632e-06
-6.41269e-06
-2.69756e-06
-7.12595e-06
-2.95932e-06
-8.66256e-06
-2.30862e-06
-1.10379e-05
-1.46868e-06
-1.38245e-05
-8.25302e-07
-1.63224e-05
-3.11692e-07
-1.83959e-05
6.06281e-08
-2.01616e-05
4.4635e-07
-2.18547e-05
7.28095e-07
-2.34981e-05
8.99637e-07
-2.50313e-05
9.97153e-07
-2.64332e-05
1.04269e-06
-2.77282e-05
1.04446e-06
-2.89239e-05
1.00576e-06
-3.00135e-05
9.413e-07
-3.09949e-05
8.43276e-07
-3.188e-05
7.18602e-07
-3.26809e-05
5.74792e-07
-3.33959e-05
4.11883e-07
-3.40254e-05
2.41329e-07
-3.46041e-05
7.25964e-08
-3.51315e-05
-8.13911e-08
-3.55935e-05
-2.53145e-07
-3.60077e-05
-3.79511e-07
-3.6388e-05
-4.84961e-07
-3.66947e-05
-5.82674e-07
-3.69578e-05
-6.44881e-07
-3.71761e-05
-7.01406e-07
-3.73222e-05
-7.56637e-07
-3.73848e-05
-7.9605e-07
-3.7356e-05
-8.22955e-07
-3.7258e-05
-8.23563e-07
-3.70467e-05
-8.24992e-07
-3.67426e-05
-7.57275e-07
-3.63156e-05
-6.73511e-07
-3.57807e-05
-5.47871e-07
-3.51132e-05
-3.78048e-07
-3.43916e-05
-5.29044e-08
-3.36326e-05
3.04893e-07
-3.2918e-05
7.15243e-07
-3.21417e-05
1.06399e-06
-3.13006e-05
1.42836e-06
-3.03942e-05
1.71236e-06
-2.95305e-05
1.95437e-06
-2.86793e-05
2.30189e-06
-2.77956e-05
2.58076e-06
-2.68901e-05
2.74626e-06
-2.58333e-05
2.76148e-06
-2.45296e-05
3.15411e-06
-2.32097e-05
3.95786e-06
-2.19958e-05
4.61064e-06
-2.08113e-05
4.73873e-06
-1.96873e-05
4.62048e-06
-1.85092e-05
4.52097e-06
-1.71927e-05
4.6675e-06
-1.56772e-05
4.92455e-06
-1.4115e-05
5.04363e-06
-1.27132e-05
5.46401e-06
-1.15376e-05
5.7761e-06
-1.04829e-05
5.89909e-06
-9.45949e-06
6.10263e-06
-8.31074e-06
5.90821e-06
-7.03666e-06
5.7708e-06
-5.62119e-06
5.56297e-06
-4.03264e-06
5.74136e-06
-2.38022e-06
6.54919e-06
-1.07882e-06
8.22552e-06
1.14366e-07
9.27236e-06
1.46019e-06
9.67507e-06
2.8674e-06
9.72225e-06
4.21929e-06
9.89404e-06
5.55839e-06
1.06979e-05
6.37439e-06
1.16009e-05
6.64378e-06
1.16047e-05
6.96239e-06
1.11489e-05
7.66637e-06
1.06338e-05
7.84737e-06
1.17694e-05
7.61453e-06
1.42644e-05
6.83023e-06
1.70405e-05
4.2369e-06
2.00905e-05
-7.62862e-07
2.33535e-05
-5.11166e-06
2.56704e-05
-7.09548e-06
2.61806e-05
-7.69941e-06
2.5368e-05
-8.27878e-06
2.45983e-05
-9.75846e-06
2.51116e-05
-1.2212e-05
2.72155e-05
-1.50261e-05
2.98853e-05
-1.75091e-05
3.19911e-05
-1.87158e-05
3.26368e-05
-1.85167e-05
3.1079e-05
-1.80905e-05
2.82713e-05
-1.88337e-05
2.6616e-05
-2.01107e-05
2.72687e-05
-2.01018e-05
2.70439e-05
-1.97849e-05
2.50069e-05
-2.09831e-05
2.39844e-05
-2.22178e-05
2.40627e-05
-2.17693e-05
2.31897e-05
-2.0836e-05
2.41687e-05
-1.84883e-05
2.80896e-05
-1.68955e-05