/*--------------------------------*- C++ -*----------------------------------*\
| =========                 |                                                 |
| \\      /  F ield         | OpenFOAM: The Open Source CFD Toolbox           |
|  \\    /   O peration     | Version:  dev                                   |
|   \\  /    A nd           | Web:      http://www.openfoam.org               |
|    \\/     M anipulation  |                                                 |
\*---------------------------------------------------------------------------*/
FoamFile
{
    version     2.0;
    format      ascii;
    class       surfaceScalarField;
    object      phi_0;
    location    "9.137";
}
// * * * * * * * * * * * * * * * * * * * * * * * * * * * * * * * * * * * * * //

dimensions      [1 0 -1 0 0 0 0];

internalField   nonuniform List<scalar> 
24170
(
2.8231e-06
1.89639e-06
2.45547e-06
1.25515e-06
2.58314e-06
7.31381e-07
2.98119e-06
4.14285e-07
3.43761e-06
3.08145e-07
3.98898e-06
1.57989e-07
4.40642e-06
2.41772e-07
4.94269e-06
6.93727e-08
5.31552e-06
1.83551e-07
6.07342e-06
-2.53621e-07
6.32255e-06
2.08314e-07
6.99163e-06
-2.58473e-07
7.68652e-06
-3.26387e-07
9.35058e-06
-1.33918e-06
1.00674e-05
-4.37225e-07
1.21169e-05
-1.77153e-06
1.76588e-05
-5.32819e-06
-9.38865e-06
2.71591e-05
4.67927e-06
2.58884e-06
4.61804e-06
2.35488e-06
4.58291e-06
1.76901e-06
4.73675e-06
1.20361e-06
4.94789e-06
9.82086e-07
5.37184e-06
5.56578e-07
5.58455e-06
7.93898e-07
6.05759e-06
3.01231e-07
6.47155e-06
4.1677e-07
7.12278e-06
-3.17745e-07
7.33922e-06
5.27627e-07
8.18928e-06
-6.24044e-07
9.42059e-06
-1.1235e-06
1.08473e-05
-2.3768e-06
1.29709e-05
-2.22695e-06
1.61658e-05
-4.64598e-06
2.04288e-05
-9.35815e-06
-1.06049e-05
2.17787e-05
5.62355e-06
3.06363e-06
6.16547e-06
2.96488e-06
6.52655e-06
2.51723e-06
6.92623e-06
1.84585e-06
7.10939e-06
1.77764e-06
7.6814e-06
8.94699e-07
7.84807e-06
1.47337e-06
8.19956e-06
7.31628e-07
8.70454e-06
6.29894e-07
9.51661e-06
-4.80294e-07
9.65316e-06
9.83576e-07
1.07611e-05
-1.19445e-06
1.1332e-05
-1.21349e-06
1.28599e-05
-3.46135e-06
1.45542e-05
-3.55505e-06
1.64778e-05
-6.28405e-06
1.7355e-05
-9.98582e-06
-9.74347e-06
1.66738e-05
5.95208e-06
3.57842e-06
7.00595e-06
3.17628e-06
7.65463e-06
3.08736e-06
8.62804e-06
2.01399e-06
8.92141e-06
2.55807e-06
9.80427e-06
1.01154e-06
1.01402e-05
2.06565e-06
1.04438e-05
1.285e-06
1.11139e-05
7.49799e-07
1.22608e-05
-9.11858e-07
1.27806e-05
1.11879e-06
1.39839e-05
-1.81889e-06
1.41883e-05
-8.95751e-07
1.44712e-05
-3.23923e-06
1.60059e-05
-4.66991e-06
1.90832e-05
-9.05133e-06
1.87624e-05
-9.41079e-06
-6.83052e-06
1.60835e-05
6.27249e-06
4.40236e-06
7.99632e-06
2.84111e-06
8.69669e-06
3.72172e-06
1.00943e-05
1.86318e-06
1.03346e-05
3.49406e-06
1.0928e-05
1.51421e-06
1.16723e-05
2.3372e-06
1.26287e-05
1.25887e-06
1.29256e-05
1.31783e-06
1.23631e-05
4.44966e-07
1.38733e-05
3.23585e-07
1.68485e-05
-4.1751e-06
1.63064e-05
2.21689e-07
1.41715e-05
-5.59392e-07
1.58709e-05
-5.90956e-06
1.94577e-05
-1.2269e-05
1.96987e-05
-9.36295e-06
-5.92095e-06
1.90556e-05
6.24944e-06
5.72925e-06
9.09787e-06
1.50664e-06
1.03188e-05
3.9452e-06
1.12274e-05
2.32171e-06
1.12564e-05
4.75617e-06
1.16819e-05
2.27397e-06
1.28482e-05
2.27409e-06
1.46747e-05
4.54766e-07
1.38628e-05
3.08063e-06
1.30451e-05
2.12128e-06
1.51505e-05
-1.00709e-06
1.64364e-05
-4.77631e-06
1.67827e-05
5.11964e-07
1.71649e-05
-3.74208e-07
1.68068e-05
-5.05873e-06
1.67933e-05
-1.18224e-05
1.7739e-05
-9.9647e-06
-9.57649e-06
2.17008e-05
6.45087e-06
7.72859e-06
8.07115e-06
1.52584e-06
1.02705e-05
3.31218e-06
1.1003e-05
3.09259e-06
1.20736e-05
5.06807e-06
1.39689e-05
1.64272e-06
1.44141e-05
3.03955e-06
1.47089e-05
1.29309e-06
1.50224e-05
3.76654e-06
1.73085e-05
7.42154e-07
1.66656e-05
4.99934e-07
1.48171e-05
-2.16029e-06
1.73215e-05
-1.31489e-06
2.02399e-05
-2.69368e-06
1.82128e-05
-2.50427e-06
1.63348e-05
-9.46644e-06
1.56379e-05
-8.86839e-06
-1.08862e-05
1.7286e-05
5.78564e-06
8.49966e-06
6.05928e-06
2.50664e-06
6.9734e-06
3.61331e-06
7.53852e-06
3.67198e-06
8.56867e-06
5.08508e-06
9.84615e-06
1.34093e-06
1.02522e-05
3.5713e-06
1.03347e-05
2.07327e-06
1.15614e-05
3.29267e-06
1.3124e-05
-1.21807e-07
1.25252e-05
1.76787e-06
1.25859e-05
-1.63553e-06
1.27783e-05
-9.88709e-07
1.44264e-05
-3.88794e-06
1.48653e-05
-2.545e-06
1.33486e-05
-7.58396e-06
9.92766e-06
-5.13135e-06
-9.90411e-06
9.20984e-06
7.31978e-06
8.90404e-06
7.71955e-06
3.54194e-06
8.35201e-06
4.36527e-06
9.2658e-06
4.05197e-06
9.88392e-06
5.6733e-06
9.76086e-06
2.60399e-06
1.03408e-05
4.05804e-06
1.16919e-05
1.69084e-06
1.3124e-05
2.71234e-06
1.45261e-05
-7.31046e-07
1.51658e-05
1.88957e-06
1.53676e-05
-1.16313e-06
1.48163e-05
1.57929e-07
1.60722e-05
-4.63106e-06
1.70639e-05
-3.08315e-06
1.57783e-05
-5.89331e-06
1.46771e-05
-3.6729e-06
-8.74742e-06
1.383e-05
8.28622e-06
9.36894e-06
9.0747e-06
4.38261e-06
1.00233e-05
4.98176e-06
1.11806e-05
4.36747e-06
1.1807e-05
6.43634e-06
1.15186e-05
4.1892e-06
1.22251e-05
4.52699e-06
1.35623e-05
1.43451e-06
1.48707e-05
2.40338e-06
1.56702e-05
-6.16041e-07
1.66998e-05
1.68836e-06
1.70881e-05
-7.89271e-07
1.78735e-05
7.19939e-08
1.82828e-05
-4.4598e-06
1.84459e-05
-2.75005e-06
1.79324e-05
-4.92592e-06
1.83599e-05
-3.68711e-06
-6.48719e-06
1.64528e-05
9.84231e-06
9.6775e-06
1.06724e-05
5.38036e-06
1.14873e-05
5.92708e-06
1.26749e-05
4.84586e-06
1.40034e-05
6.67397e-06
1.48412e-05
4.79065e-06
1.55854e-05
5.08845e-06
1.61882e-05
2.05718e-06
1.70348e-05
2.70061e-06
1.73037e-05
1.41545e-07
1.83073e-05
1.59887e-06
1.91743e-05
-8.12277e-07
2.02868e-05
-2.86753e-07
2.00896e-05
-3.616e-06
2.06149e-05
-2.70046e-06
2.04242e-05
-4.22146e-06
2.07244e-05
-3.53407e-06
-4.95636e-06
1.95869e-05
1.16079e-05
1.00061e-05
1.25033e-05
6.51336e-06
1.35223e-05
6.86707e-06
1.45272e-05
5.69192e-06
1.60087e-05
6.91339e-06
1.73496e-05
5.02759e-06
1.86507e-05
5.23735e-06
1.92487e-05
2.81996e-06
2.00432e-05
3.16682e-06
2.02853e-05
1.02218e-06
2.14257e-05
1.46557e-06
2.21865e-05
-6.4814e-07
2.3128e-05
-3.98782e-07
2.25129e-05
-2.27558e-06
2.28204e-05
-2.36809e-06
2.26874e-05
-3.52127e-06
2.31955e-05
-3.54869e-06
-4.19153e-06
2.28549e-05
1.3027e-05
1.07313e-05
1.44254e-05
7.32866e-06
1.58819e-05
7.54689e-06
1.70323e-05
6.54887e-06
1.86341e-05
7.16943e-06
1.98549e-05
5.52019e-06
2.13835e-05
5.2891e-06
2.21434e-05
3.53235e-06
2.3193e-05
3.46896e-06
2.36567e-05
1.76558e-06
2.45903e-05
1.6202e-06
2.48676e-05
7.15038e-08
2.55428e-05
-1.73726e-07
2.54447e-05
-1.37922e-06
2.56572e-05
-1.88659e-06
2.53457e-05
-2.6062e-06
2.5458e-05
-3.12413e-06
-3.63331e-06
2.53578e-05
1.51401e-05
1.1264e-05
1.6408e-05
8.41157e-06
1.80723e-05
8.14839e-06
1.94241e-05
7.31013e-06
2.1293e-05
7.25413e-06
2.26083e-05
6.01618e-06
2.40132e-05
5.55405e-06
2.47871e-05
4.30627e-06
2.58143e-05
3.85953e-06
2.63556e-05
2.49704e-06
2.7197e-05
1.92489e-06
2.75231e-05
7.88932e-07
2.81699e-05
1.14566e-07
2.82641e-05
-6.44303e-07
2.84351e-05
-1.32768e-06
2.84371e-05
-1.9842e-06
2.83873e-05
-2.52616e-06
-2.97372e-06
2.82132e-05
1.77165e-05
1.20959e-05
1.92097e-05
9.32299e-06
2.09195e-05
8.74607e-06
2.24233e-05
7.9489e-06
2.42186e-05
7.45119e-06
2.56163e-05
6.46538e-06
2.70852e-05
5.77981e-06
2.80652e-05
4.88994e-06
2.92424e-05
4.11058e-06
2.99052e-05
3.1178e-06
3.06552e-05
2.32922e-06
3.10201e-05
1.46943e-06
3.1413e-05
6.5216e-07
3.16381e-05
-4.81201e-08
3.17602e-05
-7.25671e-07
3.17018e-05
-1.30241e-06
3.15225e-05
-1.80392e-06
-2.24793e-06
3.12703e-05
2.00793e-05
1.2785e-05
2.20855e-05
9.65e-06
2.41009e-05
8.95978e-06
2.57931e-05
8.32246e-06
2.74669e-05
7.69918e-06
2.89051e-05
6.80109e-06
3.03018e-05
6.01199e-06
3.15549e-05
5.13068e-06
3.27018e-05
4.31931e-06
3.36144e-05
3.42073e-06
3.43424e-05
2.69177e-06
3.48757e-05
1.91605e-06
3.51935e-05
1.2004e-06
3.53757e-05
5.31058e-07
3.53716e-05
-5.28625e-08
3.52526e-05
-6.10562e-07
3.50454e-05
-1.09971e-06
-1.5378e-06
3.47635e-05
2.30218e-05
1.25884e-05
2.5158e-05
9.59033e-06
2.72456e-05
8.84818e-06
2.92016e-05
8.1915e-06
3.1089e-05
7.50181e-06
3.27186e-05
6.72682e-06
3.42162e-05
5.94117e-06
3.551e-05
5.13615e-06
3.66301e-05
4.3683e-06
3.74741e-05
3.6192e-06
3.81511e-05
2.94463e-06
3.86307e-05
2.26185e-06
3.89207e-05
1.63158e-06
3.90569e-05
1.02333e-06
3.90774e-05
4.69482e-07
3.896e-05
-3.17121e-08
3.87398e-05
-4.83759e-07
-8.96115e-07
3.84264e-05
2.35958e-05
1.20467e-05
2.55428e-05
9.0569e-06
2.74004e-05
8.35012e-06
2.9167e-05
7.68015e-06
3.08036e-05
7.0233e-06
3.22382e-05
6.35326e-06
3.34808e-05
5.66541e-06
3.45145e-05
4.97129e-06
3.53572e-05
4.29899e-06
3.60325e-05
3.6248e-06
3.65997e-05
2.97373e-06
3.70215e-05
2.35479e-06
3.73276e-05
1.76783e-06
3.75123e-05
1.21469e-06
3.75602e-05
7.33789e-07
3.74946e-05
2.91259e-07
3.73165e-05
-9.9219e-08
-4.52608e-07
3.70349e-05
2.05082e-05
1.07677e-05
2.20859e-05
8.23857e-06
2.3567e-05
7.61429e-06
2.49415e-05
6.99017e-06
2.62121e-05
6.37734e-06
2.74173e-05
5.70839e-06
2.84794e-05
5.10863e-06
2.93852e-05
4.5147e-06
3.0143e-05
3.92881e-06
3.07534e-05
3.34793e-06
3.12504e-05
2.75906e-06
3.16223e-05
2.2094e-06
3.18536e-05
1.72247e-06
3.19807e-05
1.2302e-06
3.2005e-05
8.12627e-07
3.19304e-05
4.4052e-07
3.17845e-05
8.54429e-08
-2.2456e-07
3.15737e-05
1.78569e-05
9.5791e-06
1.92914e-05
7.14262e-06
2.06604e-05
6.593e-06
2.1878e-05
6.08337e-06
2.30145e-05
5.51514e-06
2.40076e-05
4.95148e-06
2.48874e-05
4.43972e-06
2.56268e-05
3.95659e-06
2.62268e-05
3.47069e-06
2.66869e-05
3.00312e-06
2.70194e-05
2.51048e-06
2.72304e-05
2.04735e-06
2.7362e-05
1.6173e-06
2.73752e-05
1.21499e-06
2.73364e-05
8.2815e-07
2.7245e-05
4.91653e-07
2.70874e-05
1.81211e-07
-1.00099e-07
2.68944e-05
1.58413e-05
8.39869e-06
1.70065e-05
6.06041e-06
1.81621e-05
5.5169e-06
1.92092e-05
5.10518e-06
2.01401e-05
4.64105e-06
2.09426e-05
4.18949e-06
2.16832e-05
3.73802e-06
2.23275e-05
3.32933e-06
2.28566e-05
2.9386e-06
2.32884e-05
2.5551e-06
2.35946e-05
2.1682e-06
2.38137e-05
1.77364e-06
2.3968e-05
1.39245e-06
2.40448e-05
1.05328e-06
2.40355e-05
7.39326e-07
2.39742e-05
4.45403e-07
2.38497e-05
1.89099e-07
-4.7461e-08
2.36767e-05
1.42094e-05
7.15248e-06
1.50649e-05
5.12718e-06
1.60338e-05
4.4842e-06
1.69678e-05
4.1142e-06
1.77534e-05
3.78669e-06
1.84161e-05
3.46168e-06
1.89809e-05
3.11237e-06
1.9473e-05
2.75623e-06
1.99089e-05
2.42168e-06
2.02908e-05
2.0756e-06
2.06045e-05
1.74813e-06
2.08452e-05
1.42038e-06
2.09912e-05
1.1176e-06
2.10675e-05
8.51728e-07
2.10771e-05
5.91725e-07
2.10022e-05
3.80561e-07
2.08851e-05
1.65258e-07
-2.41269e-08
2.07148e-05
1.289e-05
5.77574e-06
1.36489e-05
4.20182e-06
1.43771e-05
3.62152e-06
1.50921e-05
3.2702e-06
1.57573e-05
2.98816e-06
1.63682e-05
2.73198e-06
1.68827e-05
2.47572e-06
1.72994e-05
2.20871e-06
1.76556e-05
1.94361e-06
1.7931e-05
1.65938e-06
1.81515e-05
1.39073e-06
1.83126e-05
1.11783e-06
1.83931e-05
8.82923e-07
1.84484e-05
6.54483e-07
1.84296e-05
4.52119e-07
1.83807e-05
2.79592e-07
1.82964e-05
9.78978e-08
-4.43184e-08
1.81607e-05
1.1174e-05
4.82321e-06
1.19521e-05
3.22603e-06
1.27195e-05
2.68611e-06
1.34349e-05
2.39096e-06
1.40702e-05
2.19497e-06
1.46187e-05
2.03464e-06
1.50612e-05
1.88105e-06
1.5413e-05
1.70964e-06
1.57016e-05
1.50902e-06
1.59146e-05
1.29224e-06
1.60834e-05
1.07489e-06
1.61964e-05
8.49078e-07
1.62629e-05
6.60838e-07
1.62988e-05
4.67284e-07
1.62871e-05
3.02064e-07
1.62561e-05
1.61143e-07
1.61772e-05
2.01062e-08
-9.80504e-08
1.60801e-05
9.89789e-06
3.58731e-06
1.07395e-05
2.17951e-06
1.14389e-05
1.80748e-06
1.205e-05
1.60662e-06
1.25766e-05
1.5022e-06
1.30387e-05
1.41256e-06
1.34432e-05
1.32025e-06
1.37966e-05
1.20523e-06
1.40934e-05
1.05933e-06
1.43234e-05
9.09541e-07
1.45023e-05
7.45575e-07
1.46172e-05
5.78625e-07
1.46911e-05
4.35396e-07
1.47185e-05
2.85959e-07
1.47104e-05
1.56937e-07
1.46712e-05
5.24655e-08
1.45843e-05
-4.32738e-08
-1.18758e-07
1.44633e-05
8.9378e-06
2.20553e-06
9.67527e-06
1.24411e-06
1.02936e-05
1.01491e-06
1.08168e-05
9.1463e-07
1.12762e-05
8.81165e-07
1.16704e-05
8.63843e-07
1.20134e-05
8.25236e-07
1.23054e-05
7.64206e-07
1.25465e-05
6.69537e-07
1.27335e-05
5.73945e-07
1.28769e-05
4.55636e-07
1.29756e-05
3.32104e-07
1.30367e-05
2.28667e-07
1.30514e-05
1.26112e-07
1.30236e-05
4.20636e-08
1.29598e-05
-2.37354e-08
1.28554e-05
-7.61728e-08
-1.17889e-07
1.27215e-05
7.91305e-06
1.13626e-06
8.74689e-06
2.27619e-07
9.36837e-06
2.28447e-07
9.82147e-06
3.01845e-07
1.01665e-05
3.83093e-07
1.04407e-05
4.4264e-07
1.06714e-05
4.51438e-07
1.08562e-05
4.38508e-07
1.09841e-05
4.03043e-07
1.10606e-05
3.59244e-07
1.10865e-05
2.9272e-07
1.10712e-05
2.11152e-07
1.10241e-05
1.40336e-07
1.09421e-05
7.55287e-08
1.08277e-05
2.51636e-08
1.06906e-05
-1.43322e-08
1.05463e-05
-5.67795e-08
-7.75584e-08
1.03842e-05
7.19836e-06
-7.93929e-09
7.84519e-06
-5.8573e-07
8.20251e-06
-2.79177e-07
8.39745e-06
-3.9684e-08
8.49184e-06
1.47598e-07
8.53817e-06
2.60408e-07
8.55284e-06
3.04601e-07
8.54415e-06
3.17806e-07
8.51485e-06
3.04591e-07
8.47217e-06
2.75172e-07
8.4062e-06
2.32938e-07
8.30758e-06
1.85258e-07
8.18498e-06
1.40334e-07
8.03982e-06
1.00333e-07
7.87461e-06
7.24923e-08
7.70482e-06
4.01387e-08
7.53768e-06
-2.2602e-09
-2.10066e-08
7.37165e-06
6.27177e-06
-6.7668e-07
6.2623e-06
-7.28863e-07
6.10225e-06
-2.5719e-07
5.91116e-06
1.74246e-08
5.74314e-06
1.87025e-07
5.62557e-06
2.54148e-07
5.54325e-06
2.66427e-07
5.48685e-06
2.55888e-07
5.44365e-06
2.30948e-07
5.40318e-06
1.99955e-07
5.34935e-06
1.72244e-07
5.27888e-06
1.42572e-07
5.19271e-06
1.1485e-07
5.09439e-06
8.87686e-08
4.99772e-06
6.1186e-08
4.89258e-06
3.9494e-08
4.78751e-06
-5.34466e-10
-2.0447e-08
4.68697e-06
4.15448e-06
3.28519e-06
2.89686e-06
2.78879e-06
2.85648e-06
2.99627e-06
3.15216e-06
3.30029e-06
3.42544e-06
3.52134e-06
3.59121e-06
3.63313e-06
3.64917e-06
3.64119e-06
3.60785e-06
3.55528e-06
3.4656e-06
3.35892e-06
-5.44617e-07
-6.52061e-07
-8.9188e-07
-8.78436e-07
-8.51515e-07
-1.27495e-06
-5.52484e-07
-1.54687e-06
-9.87503e-08
-1.71332e-06
4.12556e-07
-1.78107e-06
9.17678e-07
-1.78348e-06
1.39021e-06
-1.7584e-06
1.79032e-06
-1.69264e-06
2.07642e-06
-1.58446e-06
2.25626e-06
-1.4844e-06
2.30994e-06
-1.36425e-06
2.17959e-06
-1.18484e-06
1.84545e-06
-9.84554e-07
1.33241e-06
-8.11157e-07
6.04257e-07
-5.98136e-07
-3.01154e-07
-4.22651e-07
-1.35566e-06
-2.77502e-07
-2.55385e-06
-1.33289e-07
-3.79499e-06
-8.31765e-08
-5.02871e-06
-8.0395e-08
-6.30571e-06
-3.57365e-08
-7.43187e-06
-1.7895e-07
-8.24102e-06
-4.58415e-07
-8.87032e-06
-6.05259e-07
-9.52134e-06
-5.97574e-07
-1.02659e-05
-5.463e-07
-1.12028e-05
-3.71944e-07
-1.21716e-05
-3.31202e-07
-1.2741e-05
-6.889e-07
-1.28929e-05
-1.02819e-06
-1.29685e-05
-1.01755e-06
-1.31368e-05
-8.79931e-07
-1.34881e-05
-6.8387e-07
-1.39955e-05
-5.11231e-07
-1.47121e-05
-2.78107e-07
-1.56902e-05
3.78842e-09
-1.69001e-05
2.47418e-07
-1.82684e-05
4.1746e-07
-1.97091e-05
5.11616e-07
-2.11586e-05
5.53261e-07
-2.25738e-05
5.57622e-07
-2.39306e-05
5.41056e-07
-2.52129e-05
5.12091e-07
-2.64007e-05
4.6707e-07
-2.7483e-05
4.14808e-07
-2.84417e-05
3.47536e-07
-2.92743e-05
2.81816e-07
-2.9969e-05
2.07664e-07
-3.05332e-05
1.44108e-07
-3.09642e-05
8.12035e-08
-3.1265e-05
2.49243e-08
-3.14431e-05
-2.08081e-08
-3.14695e-05
-9.25154e-08
-3.13755e-05
-1.29864e-07
-3.11557e-05
-1.70087e-07
-3.0866e-05
-1.51298e-07
-3.04896e-05
-1.47078e-07
-3.00593e-05
-1.0694e-07
-2.95808e-05
-5.94354e-08
-2.90741e-05
9.2796e-09
-2.85158e-05
5.47813e-08
-2.79146e-05
1.08625e-07
-2.72798e-05
1.71716e-07
-2.66128e-05
2.37166e-07
-2.59076e-05
2.93678e-07
-2.51245e-05
3.08505e-07
-2.42816e-05
3.43993e-07
-2.3404e-05
4.04337e-07
-2.24705e-05
4.41289e-07
-2.15439e-05
5.41062e-07
-2.06552e-05
6.66553e-07
-1.9768e-05
7.44388e-07
-1.88549e-05
7.85965e-07
-1.78835e-05
7.90117e-07
-1.68185e-05
7.57474e-07
-1.57103e-05
7.7381e-07
-1.46042e-05
8.31132e-07
-1.35491e-05
9.27484e-07
-1.24528e-05
9.23346e-07
-1.13315e-05
9.33397e-07
-1.01152e-05
8.69491e-07
-8.82086e-06
8.18219e-07
-7.52071e-06
8.34579e-07
-6.17733e-06
8.08632e-07
-4.85635e-06
8.48598e-07
-3.5139e-06
8.47832e-07
-2.31612e-06
1.01616e-06
-1.29366e-06
1.21067e-06
-5.25194e-07
1.48281e-06
2.15856e-08
1.72849e-06
3.92564e-07
1.9436e-06
7.39159e-07
2.01262e-06
1.0985e-06
2.04309e-06
1.59679e-06
1.94232e-06
2.21832e-06
1.85299e-06
2.89739e-06
1.84846e-06
3.54999e-06
1.96105e-06
4.56165e-06
1.70052e-06
5.75865e-06
1.59782e-06
6.50618e-06
2.11675e-06
6.49474e-06
2.97612e-06
5.85813e-06
3.74587e-06
5.3995e-06
3.79637e-06
5.7401e-06
3.12e-06
6.43497e-06
2.66015e-06
6.2647e-06
3.50841e-06
4.6279e-06
4.9659e-06
2.11227e-06
5.96833e-06
6.5719e-08
5.72641e-06
-1.71862e-06
5.6359e-06
-3.87953e-06
6.17073e-06
-6.60911e-06
6.90324e-06
-9.57241e-06
7.29755e-06
-1.22901e-05
7.20883e-06
-1.4094e-05
6.42398e-06
-1.46556e-05
5.32182e-06
-1.45136e-05
4.78672e-06
-1.40396e-05
4.6377e-06
-1.27614e-05
4.04901e-06
-1.06556e-05
3.50883e-06
-8.81782e-06
4.02124e-06
-8.50289e-06
5.94804e-06
-9.85581e-06
8.00517e-06
-1.02422e-05
7.36732e-06
-1.24019e-05
9.38773e-06
-1.38982e-05
8.92614e-06
-1.40998e-05
7.97475e-06
-1.41825e-05
8.29938e-06
-1.49343e-05
9.37659e-06
-1.61849e-05
1.02516e-05
-1.7485e-05
1.06665e-05
-1.87437e-05
1.10175e-05
-1.95298e-05
1.09762e-05
-2.03325e-05
1.14536e-05
-2.09223e-05
1.17572e-05
-2.10017e-05
1.17679e-05
-2.13596e-05
1.25327e-05
-2.21202e-05
1.34689e-05
-2.28216e-05
1.40572e-05
-2.25744e-05
1.38738e-05
-2.21168e-05
1.43183e-05
-2.17656e-05
1.50187e-05
-2.10318e-05
1.53324e-05
-1.98363e-05
1.55199e-05
-1.90739e-05
1.65738e-05
-1.78854e-05
1.69074e-05
-1.60716e-05
1.68808e-05
-1.42261e-05
1.74369e-05
-1.22914e-05
1.80411e-05
-9.69988e-06
1.79489e-05
-7.79515e-06
1.90525e-05
-5.71453e-06
1.9307e-05
-1.75774e-06
1.78922e-05
1.85053e-06
1.83603e-05
2.93979e-06
2.11533e-05
3.10955e-06
2.25549e-05
3.79051e-06
2.25092e-05
4.8771e-06
2.26609e-05
7.70183e-06
2.15153e-05
1.16317e-05
2.02064e-05
1.37403e-05
2.17037e-05
1.49786e-05
2.28211e-05
1.69971e-05
2.25743e-05
2.10797e-05
2.08379e-05
2.60015e-05
1.94441e-05
2.9475e-05
1.93457e-05
3.12616e-05
1.9345e-05
3.12653e-05
1.96931e-05
3.02015e-05
1.94575e-05
2.85083e-05
1.90947e-05
2.5672e-05
1.94406e-05
2.26132e-05
1.88057e-05
1.8767e-05
1.8836e-05
1.56277e-05
1.73215e-05
1.34021e-05
1.56697e-05
1.12798e-05
1.48497e-05
9.52042e-06
1.3854e-05
8.12107e-06
1.29087e-05
1.18844e-05
7.1752e-06
-3.23397e-07
-1.50456e-06
-3.39471e-07
-2.06005e-06
-6.86093e-08
-2.76676e-06
3.23487e-07
-3.18532e-06
7.55621e-07
-3.40432e-06
1.18176e-06
-3.47265e-06
1.57533e-06
-3.44521e-06
1.93121e-06
-3.38213e-06
2.24809e-06
-3.27696e-06
2.51187e-06
-3.11822e-06
2.6786e-06
-2.92768e-06
2.72907e-06
-2.69671e-06
2.65591e-06
-2.40224e-06
2.45626e-06
-2.08473e-06
2.08331e-06
-1.74708e-06
1.52451e-06
-1.36449e-06
8.27287e-07
-1.05834e-06
2.44855e-09
-7.91578e-07
-1.00017e-06
-4.84151e-07
-2.15342e-06
-3.00228e-07
-3.3409e-06
-2.45815e-07
-4.29356e-06
-4.22582e-07
-5.25324e-06
-6.05018e-07
-6.3938e-06
-7.21001e-07
-7.49712e-06
-8.82341e-07
-8.24441e-06
-1.20709e-06
-8.39282e-06
-1.66649e-06
-8.15427e-06
-1.76299e-06
-8.17563e-06
-1.5491e-06
-8.91634e-06
-1.40896e-06
-1.00846e-05
-1.25124e-06
-1.13844e-05
-6.91063e-07
-1.303e-05
1.41556e-08
-1.50912e-05
5.0951e-07
-1.73519e-05
7.45639e-07
-1.95381e-05
8.6915e-07
-2.15156e-05
9.44913e-07
-2.32893e-05
1.00159e-06
-2.48984e-05
1.03266e-06
-2.63876e-05
1.04048e-06
-2.77701e-05
1.016e-06
-2.90414e-05
9.55114e-07
-3.01841e-05
8.59551e-07
-3.12001e-05
7.54449e-07
-3.20849e-05
6.30536e-07
-3.28321e-05
4.96865e-07
-3.34648e-05
3.72316e-07
-3.39746e-05
2.432e-07
-3.43651e-05
1.11984e-07
-3.46291e-05
-1.41888e-08
-3.47877e-05
-1.12933e-07
-3.4817e-05
-2.26142e-07
-3.47259e-05
-3.17218e-07
-3.4564e-05
-3.81488e-07
-3.42798e-05
-4.62137e-07
-3.39281e-05
-4.89994e-07
-3.346e-05
-5.05668e-07
-3.29284e-05
-4.79554e-07
-3.23506e-05
-3.93462e-07
-3.17492e-05
-2.73551e-07
-3.11384e-05
-1.13605e-07
-3.05219e-05
2.794e-08
-2.98708e-05
1.44109e-07
-2.91901e-05
2.75834e-07
-2.84857e-05
4.23886e-07
-2.77171e-05
5.20487e-07
-2.68393e-05
5.14404e-07
-2.59349e-05
6.10391e-07
-2.4987e-05
7.25128e-07
-2.39744e-05
7.93277e-07
-2.29418e-05
9.74375e-07
-2.20048e-05
1.31214e-06
-2.11133e-05
1.5391e-06
-2.01707e-05
1.60661e-06
-1.91035e-05
1.54091e-06
-1.78771e-05
1.38515e-06
-1.65943e-05
1.38532e-06
-1.53506e-05
1.54608e-06
-1.41464e-05
1.75237e-06
-1.29091e-05
1.76539e-06
-1.16187e-05
1.77176e-06
-1.02029e-05
1.61134e-06
-8.7597e-06
1.53258e-06
-7.34708e-06
1.5852e-06
-5.88514e-06
1.50989e-06
-4.40362e-06
1.53865e-06
-2.88341e-06
1.51668e-06
-1.49996e-06
1.86771e-06
-4.19891e-07
2.41856e-06
3.20573e-07
3.08553e-06
8.29527e-07
3.61608e-06
1.29855e-06
3.92846e-06
1.82691e-06
3.97128e-06
2.33638e-06
4.02936e-06
2.82964e-06
3.95933e-06
3.52427e-06
3.69936e-06
4.40818e-06
3.53705e-06
5.48508e-06
3.52204e-06
6.87798e-06
3.04837e-06
8.25232e-06
3.07248e-06
9.1211e-06
4.1888e-06
9.24845e-06
5.85758e-06
9.14324e-06
7.11067e-06
9.87348e-06
6.87626e-06
9.66566e-06
6.96664e-06
6.11175e-06
8.96882e-06
1.44908e-06
1.10146e-05
-1.63772e-06
1.13666e-05
-2.63941e-06
1.05527e-05
-3.32624e-06
1.01855e-05
-4.69438e-06
1.10385e-05
-7.05328e-06
1.28114e-05
-1.04117e-05
1.46653e-05
-1.4414e-05
1.55448e-05
-1.74524e-05
1.45389e-05
-1.81255e-05
1.17409e-05
-1.78199e-05
9.75192e-06
-1.81079e-05
9.79133e-06
-1.83208e-05
9.72024e-06
-1.72956e-05
8.10239e-06
-1.57289e-05
7.23856e-06
-1.45861e-05
8.54629e-06
-1.30323e-05
1.05713e-05
-1.25589e-05
1.43461e-05
-1.2171e-05
1.40375e-05
-1.25565e-05
1.71813e-05
-1.32286e-05
1.72037e-05
-1.2734e-05
1.53908e-05
-1.15219e-05
1.54987e-05
-1.07456e-05
1.75965e-05
-1.08351e-05
1.98523e-05
-1.18026e-05
2.14771e-05
-1.35134e-05
2.28476e-05
-1.45921e-05
2.23665e-05
-1.57246e-05
2.32013e-05
-1.63306e-05
2.35271e-05
-1.61725e-05
2.33427e-05
-1.63122e-05
2.49438e-05
-1.68428e-05
2.68211e-05
-1.79036e-05
2.90549e-05
-1.80234e-05
2.89256e-05
-1.72817e-05
2.90866e-05
-1.64247e-05
3.06102e-05
-1.48649e-05
3.09638e-05
-1.35316e-05
3.16434e-05
-1.27017e-05
3.46495e-05
-1.16126e-05
3.56988e-05
-9.62285e-06
3.49277e-05
-7.83224e-06
3.64444e-05
-6.06847e-06
3.79869e-05
-2.85879e-06
3.66582e-05
-7.72026e-07
3.94559e-05
8.35497e-07
4.13242e-05
5.09749e-06
3.6304e-05
9.58264e-06
3.61178e-05
1.08109e-05
4.3554e-05
1.02098e-05
4.81753e-05
9.78539e-06
4.87538e-05
1.0398e-05
4.94992e-05
1.35752e-05
4.71128e-05
1.76183e-05
4.33525e-05
1.95336e-05
4.64296e-05
1.98705e-05
5.11304e-05
2.06786e-05
5.26971e-05
2.48699e-05
4.82624e-05
2.95704e-05
4.4014e-05
3.23052e-05
4.16269e-05
3.33183e-05
4.01617e-05
3.16246e-05
4.11227e-05
2.85194e-05
4.08708e-05
2.44486e-05
4.10025e-05
2.00056e-05
4.10636e-05
1.46455e-05
4.06272e-05
9.95779e-06
3.94899e-05
7.46581e-06
3.45574e-05
6.27423e-06
3.07433e-05
4.97946e-06
2.92544e-05
4.17839e-06
2.73743e-05
4.38756e-06
2.48838e-05
2.44443e-05
3.30386e-06
-6.6314e-08
-2.58816e-06
2.33135e-07
-3.5395e-06
6.00373e-07
-4.3592e-06
8.8989e-07
-4.72165e-06
1.1122e-06
-4.86526e-06
1.27199e-06
-4.86606e-06
1.41686e-06
-4.81456e-06
1.58371e-06
-4.76333e-06
1.75249e-06
-4.65836e-06
1.93544e-06
-4.518e-06
2.05769e-06
-4.27506e-06
2.08027e-06
-3.95072e-06
2.01191e-06
-3.5692e-06
1.82749e-06
-3.14658e-06
1.48499e-06
-2.65974e-06
1.03979e-06
-2.18829e-06
3.89954e-07
-1.69765e-06
-4.73829e-07
-1.23908e-06
-1.36844e-06
-9.26127e-07
-2.38156e-06
-6.13097e-07
-3.48727e-06
-5.3105e-07
-4.67414e-06
-6.79477e-07
-5.90575e-06
-6.99566e-07
-6.69275e-06
-1.21479e-06
-7.09854e-06
-1.83484e-06
-7.46679e-06
-2.21869e-06
-8.18817e-06
-2.256e-06
-9.09714e-06
-1.97923e-06
-1.04346e-05
-1.1704e-06
-1.24531e-05
-3.43991e-07
-1.50827e-05
3.75905e-07
-1.75212e-05
7.11676e-07
-1.95304e-05
9.44066e-07
-2.12581e-05
1.13335e-06
-2.28921e-05
1.27572e-06
-2.44531e-05
1.33955e-06
-2.5914e-05
1.34469e-06
-2.72584e-05
1.32178e-06
-2.84809e-05
1.27526e-06
-2.95716e-05
1.19875e-06
-3.05318e-05
1.09216e-06
-3.13762e-05
9.63526e-07
-3.21326e-05
8.24107e-07
-3.27734e-05
6.52217e-07
-3.33251e-05
4.90737e-07
-3.37771e-05
3.0511e-07
-3.41417e-05
1.42238e-07
-3.44247e-05
-1.39719e-08
-3.46452e-05
-1.48288e-07
-3.47985e-05
-2.80572e-07
-3.48539e-05
-4.0991e-07
-3.48367e-05
-5.21465e-07
-3.47412e-05
-6.17907e-07
-3.45473e-05
-7.01047e-07
-3.4262e-05
-7.92685e-07
-3.38719e-05
-8.48424e-07
-3.34177e-05
-8.51639e-07
-3.29039e-05
-8.07846e-07
-3.2303e-05
-7.28541e-07
-3.16457e-05
-5.81026e-07
-3.09679e-05
-3.47835e-07
-3.03049e-05
-8.96087e-08
-2.96344e-05
1.15886e-07
-2.8974e-05
3.55985e-07
-2.82848e-05
5.95706e-07
-2.75339e-05
7.54077e-07
-2.67207e-05
7.61493e-07
-2.59066e-05
9.148e-07
-2.50287e-05
1.05589e-06
-2.40626e-05
1.10544e-06
-2.29508e-05
1.18923e-06
-2.18434e-05
1.66905e-06
-2.08414e-05
2.20223e-06
-1.98706e-05
2.45209e-06
-1.87951e-05
2.32864e-06
-1.76209e-05
2.03498e-06
-1.63304e-05
1.89798e-06
-1.49749e-05
2.05109e-06
-1.36246e-05
2.36029e-06
-1.22374e-05
2.3983e-06
-1.08828e-05
2.49533e-06
-9.56478e-06
2.40202e-06
-8.28628e-06
2.31985e-06
-7.05005e-06
2.40353e-06
-5.73616e-06
2.23708e-06
-4.30977e-06
2.14068e-06
-2.75116e-06
1.97192e-06
-1.06427e-06
2.20813e-06
4.66423e-07
2.96738e-06
1.56534e-06
4.14103e-06
2.50647e-06
4.89686e-06
3.47257e-06
5.25208e-06
4.43492e-06
5.2971e-06
5.29732e-06
5.39801e-06
5.73893e-06
5.81809e-06
6.02535e-06
5.85022e-06
6.58612e-06
5.39829e-06
7.65763e-06
4.85178e-06
8.88504e-06
4.32007e-06
9.89271e-06
4.7019e-06
1.03576e-05
6.45951e-06
1.07945e-05
8.41851e-06
1.12221e-05
1.0138e-05
9.33331e-06
1.17403e-05
3.92019e-06
1.44319e-05
-1.22303e-06
1.63824e-05
-3.52091e-06
1.63152e-05
-4.06231e-06
1.52445e-05
-4.41629e-06
1.44641e-05
-5.68835e-06
1.52237e-05
-8.37928e-06
1.767e-05
-1.214e-05
2.05587e-05
-1.58168e-05
2.25238e-05
-1.79634e-05
2.19421e-05
-1.83511e-05
1.90047e-05
-1.84445e-05
1.57801e-05
-1.98373e-05
1.53035e-05
-2.15255e-05
1.61462e-05
-2.15475e-05
1.46641e-05
-2.09245e-05
1.22467e-05
-2.10917e-05
1.21907e-05
-2.03431e-05
1.29528e-05
-1.82714e-05
1.40398e-05
-1.65442e-05
1.90288e-05
-1.55193e-05
1.98165e-05
-1.56405e-05
2.42027e-05
-1.58943e-05
2.45964e-05
-1.46493e-05
2.14945e-05
-1.31456e-05
2.16208e-05
-1.16441e-05
2.43584e-05
-1.06667e-05
2.78912e-05
-1.06401e-05
3.10383e-05
-1.14684e-05
3.36987e-05
-1.21854e-05
3.31803e-05
-1.34693e-05
3.4542e-05
-1.46526e-05
3.51479e-05
-1.5261e-05
3.47548e-05
-1.52116e-05
3.59277e-05
-1.53263e-05
3.8053e-05
-1.64552e-05
4.29519e-05
-1.71782e-05
4.34732e-05
-1.67744e-05
4.19233e-05
-1.60195e-05
4.43474e-05
-1.51842e-05
4.52837e-05
-1.31312e-05
4.30166e-05
-1.07801e-05
4.88155e-05
-9.88839e-06
5.34921e-05
-8.32985e-06
5.05078e-05
-6.42465e-06
5.23649e-05
-4.60738e-06
5.56292e-05
-1.73255e-06
5.1983e-05
1.2192e-06
5.53782e-05
2.18728e-06
6.22526e-05
4.20733e-06
5.20065e-05
1.09737e-05
4.49799e-05
1.49138e-05
5.82723e-05
1.58958e-05
6.92276e-05
1.54111e-05
7.23115e-05
1.56656e-05
7.45331e-05
1.84319e-05
7.06299e-05
2.09591e-05
6.19258e-05
2.31862e-05
6.41567e-05
2.44316e-05
7.53661e-05
2.67904e-05
8.18433e-05
3.06809e-05
7.6945e-05
3.32002e-05
6.85196e-05
3.26812e-05
6.28426e-05
3.10165e-05
5.98097e-05
2.79379e-05
6.14949e-05
2.45172e-05
6.18019e-05
2.08993e-05
6.19408e-05
1.5416e-05
6.27432e-05
1.02288e-05
6.21273e-05
6.46824e-06
5.87784e-05
4.10015e-06
5.08548e-05
3.03299e-06
4.5005e-05
2.67045e-06
4.16794e-05
3.0873e-06
3.8719e-05
3.83988e-06
3.56147e-05
3.57885e-05
3.75781e-06
1.19774e-07
-3.83927e-06
4.39574e-07
-5.03748e-06
6.01849e-07
-5.73743e-06
6.04619e-07
-5.93307e-06
5.45214e-07
-5.99854e-06
4.71984e-07
-5.99528e-06
4.67576e-07
-6.00911e-06
5.5346e-07
-6.04446e-06
6.90342e-07
-6.00864e-06
8.51909e-07
-5.9059e-06
9.81971e-07
-5.63361e-06
1.02834e-06
-5.23766e-06
9.48704e-07
-4.746e-06
7.38526e-07
-4.19253e-06
4.47735e-07
-3.62604e-06
-2.00721e-08
-2.97248e-06
-6.79293e-07
-2.29717e-06
-1.48321e-06
-1.72453e-06
-2.44867e-06
-1.26213e-06
-3.47056e-06
-9.46875e-07
-4.50965e-06
-8.15841e-07
-5.63199e-06
-8.35668e-07
-6.47745e-06
-1.30679e-06
-7.05317e-06
-2.07378e-06
-7.60566e-06
-2.41194e-06
-8.92805e-06
-1.83674e-06
-1.1103e-05
-1.02832e-06
-1.37366e-05
-3.94707e-07
-1.6066e-05
4.10567e-08
-1.80105e-05
4.6101e-07
-1.96369e-05
8.54857e-07
-2.11998e-05
1.12201e-06
-2.26946e-05
1.28275e-06
-2.40732e-05
1.37225e-06
-2.53149e-05
1.41067e-06
-2.64516e-05
1.4043e-06
-2.74935e-05
1.35507e-06
-2.84314e-05
1.27913e-06
-2.92601e-05
1.17004e-06
-2.99909e-05
1.03305e-06
-3.06378e-05
8.75698e-07
-3.12004e-05
6.97187e-07
-3.16794e-05
5.09043e-07
-3.21101e-05
3.20047e-07
-3.24946e-05
1.44238e-07
-3.28192e-05
-5.46874e-08
-3.30989e-05
-2.13955e-07
-3.33505e-05
-3.49458e-07
-3.35387e-05
-4.83747e-07
-3.369e-05
-5.86049e-07
-3.38082e-05
-6.81184e-07
-3.38662e-05
-7.77988e-07
-3.38543e-05
-8.62359e-07
-3.37633e-05
-9.36437e-07
-3.36194e-05
-9.85808e-07
-3.33735e-05
-1.04426e-06
-3.30424e-05
-1.03818e-06
-3.25963e-05
-1.01899e-06
-3.20491e-05
-9.61803e-07
-3.13717e-05
-8.70423e-07
-3.06367e-05
-6.24829e-07
-2.98632e-05
-3.33554e-07
-2.91386e-05
6.25807e-09
-2.83705e-05
2.94391e-07
-2.75471e-05
5.92843e-07
-2.66572e-05
8.14551e-07
-2.58076e-05
9.68211e-07
-2.49781e-05
1.2262e-06
-2.41342e-05
1.44814e-06
-2.32811e-05
1.55459e-06
-2.22748e-05
1.45331e-06
-2.1e-05
1.67766e-06
-1.97056e-05
2.36487e-06
-1.85456e-05
2.98042e-06
-1.7432e-05
3.0653e-06
-1.63791e-05
2.86146e-06
-1.52737e-05
2.64597e-06
-1.40273e-05
2.66634e-06
-1.25746e-05
2.81237e-06
-1.10627e-05
2.81394e-06
-9.71475e-06
3.11889e-06
-8.61251e-06
3.33825e-06
-7.6315e-06
3.36195e-06
-6.68579e-06
3.46746e-06
-5.61535e-06
3.16481e-06
-4.39918e-06
2.89761e-06
-3.00632e-06
2.53247e-06
-1.39226e-06
2.54986e-06
3.13548e-07
3.22769e-06
1.65629e-06
4.79923e-06
2.88105e-06
5.72846e-06
4.25233e-06
5.98236e-06
5.6694e-06
5.88534e-06
7.06818e-06
5.95751e-06
8.47769e-06
6.67093e-06
9.30927e-06
7.41409e-06
9.60133e-06
7.22524e-06
9.98521e-06
6.65236e-06
1.07008e-05
6.08583e-06
1.08676e-05
7.18836e-06
1.05702e-05
9.64372e-06
9.63189e-06
1.23815e-05
6.81133e-06
1.53997e-05
1.71266e-06
1.86187e-05
-2.56665e-06
2.07973e-05
-4.45566e-06
2.10481e-05
-5.08274e-06
2.00105e-05
-5.77251e-06
1.91045e-05
-7.47479e-06
1.95434e-05
-1.02544e-05
2.16357e-05
-1.33758e-05
2.43395e-05
-1.61075e-05
2.64381e-05
-1.7572e-05
2.70249e-05
-1.76382e-05
2.54202e-05
-1.74759e-05
2.25071e-05
-1.85735e-05
2.06364e-05
-2.02741e-05
2.12442e-05
-2.06523e-05
2.12438e-05
-2.0682e-05
1.92903e-05
-2.22591e-05
1.8137e-05
-2.39132e-05
1.82473e-05
-2.38867e-05