/*--------------------------------*- C++ -*----------------------------------*\
| =========                 |                                                 |
| \\      /  F ield         | OpenFOAM: The Open Source CFD Toolbox           |
|  \\    /   O peration     | Version:  dev                                   |
|   \\  /    A nd           | Web:      http://www.openfoam.org               |
|    \\/     M anipulation  |                                                 |
\*---------------------------------------------------------------------------*/
FoamFile
{
    version     2.0;
    format      ascii;
    class       volScalarField;
    object      rho_0;
    location    "9.137";
}
// * * * * * * * * * * * * * * * * * * * * * * * * * * * * * * * * * * * * * //

dimensions      [1 -3 0 0 0 0 0];

internalField   nonuniform List<scalar> 
12225
(
1.21397
1.20547
1.20247
1.19993
1.19679
1.19383
1.19027
1.1869
1.18285
1.17931
1.17488
1.17153
1.1669
1.16413
1.15912
1.15479
1.15655
1.14287
1.20849
1.20141
1.20092
1.19941
1.1965
1.19416
1.18981
1.18719
1.18237
1.17951
1.17401
1.17199
1.16727
1.16535
1.16115
1.1572
1.15648
1.14422
1.208
1.20177
1.20157
1.20037
1.19759
1.19573
1.19158
1.18906
1.18504
1.18182
1.17684
1.17403
1.17054
1.1673
1.16653
1.15962
1.15348
1.14722
1.20718
1.20122
1.20184
1.19997
1.19774
1.19519
1.19233
1.18845
1.18582
1.18186
1.17826
1.17479
1.16997
1.16712
1.16903
1.16123
1.15526
1.14935
1.20784
1.19941
1.20247
1.19895
1.19774
1.19419
1.19286
1.18778
1.18502
1.18166
1.17991
1.17509
1.16939
1.16839
1.16769
1.16104
1.15685
1.14961
1.20749
1.19974
1.20019
1.19759
1.19774
1.1936
1.1914
1.1871
1.18475
1.18194
1.17912
1.17462
1.16964
1.16873
1.16405
1.16069
1.15696
1.15103
1.20662
1.20101
1.19831
1.1972
1.1992
1.19079
1.18849
1.18708
1.186
1.17775
1.17625
1.17399
1.17031
1.16682
1.16284
1.15939
1.1564
1.15312
1.2057
1.19755
1.1989
1.19741
1.19837
1.18898
1.18872
1.18597
1.18563
1.17435
1.17634
1.17203
1.17038
1.16527
1.16227
1.15747
1.15681
1.15238
1.2056
1.19546
1.19915
1.19521
1.19573
1.18962
1.19164
1.18568
1.18509
1.17339
1.17529
1.17109
1.17032
1.16482
1.16228
1.15698
1.15575
1.15097
1.20463
1.19449
1.19722
1.19333
1.19404
1.19091
1.19023
1.18259
1.18102
1.17544
1.17413
1.16856
1.16938
1.16601
1.16089
1.15579
1.15377
1.15134
1.2026
1.19365
1.19459
1.19214
1.19269
1.19024
1.18665
1.18071
1.17964
1.17637
1.17285
1.16782
1.1671
1.16212
1.15799
1.15445
1.15194
1.14934
1.20059
1.19138
1.19224
1.1906
1.19061
1.18699
1.18326
1.17818
1.17726
1.17376
1.16949
1.16548
1.1633
1.15975
1.15629
1.15318
1.15058
1.14762
1.19725
1.18856
1.18911
1.18797
1.18688
1.18336
1.17998
1.17569
1.17383
1.17008
1.16571
1.16203
1.15958
1.15696
1.15434
1.15091
1.14804
1.14577
1.19291
1.18529
1.18561
1.18435
1.18194
1.17858
1.17529
1.17168
1.16917
1.1659
1.16179
1.15846
1.15579
1.15295
1.15028
1.14747
1.14374
1.14156
1.18829
1.18122
1.18088
1.17893
1.17612
1.17349
1.17008
1.16674
1.16385
1.16073
1.15689
1.15375
1.15098
1.14798
1.14522
1.14253
1.13925
1.13697
1.18197
1.1757
1.17504
1.17271
1.16998
1.16738
1.16392
1.16089
1.1579
1.1548
1.15126
1.14828
1.14542
1.14248
1.13974
1.13719
1.13412
1.13202
1.1749
1.16905
1.16808
1.16573
1.16306
1.16021
1.15709
1.1543
1.15129
1.14826
1.14497
1.14219
1.1393
1.13655
1.13391
1.13139
1.12877
1.12676
1.1673
1.16143
1.16027
1.15821
1.15578
1.15299
1.15035
1.14772
1.1449
1.14212
1.13921
1.13653
1.13372
1.13133
1.12883
1.12654
1.12432
1.12218
1.15986
1.15431
1.15357
1.1519
1.14988
1.14737
1.14479
1.14239
1.13988
1.13717
1.13487
1.13237
1.1298
1.12781
1.12532
1.12338
1.12142
1.11923
1.15412
1.14886
1.14844
1.14672
1.14523
1.14301
1.14053
1.13856
1.13616
1.13368
1.13182
1.1295
1.12728
1.12552
1.12316
1.12159
1.11958
1.11773
1.14914
1.14489
1.1443
1.14271
1.14181
1.13939
1.1375
1.1359
1.13345
1.13163
1.12965
1.12789
1.12579
1.12414
1.12215
1.12047
1.1187
1.11707
1.1456
1.14154
1.14056
1.13985
1.13906
1.13638
1.13572
1.13376
1.13163
1.13055
1.12771
1.12684
1.12439
1.12276
1.12157
1.11929
1.1185
1.11657
1.14259
1.13855
1.13817
1.13805
1.1368
1.13473
1.13436
1.13177
1.13039
1.12934
1.12632
1.12621
1.12339
1.1222
1.12131
1.11854
1.11885
1.11606
1.14041
1.13674
1.13681
1.13655
1.13515
1.13401
1.13275
1.13066
1.12973
1.12794
1.12617
1.1255
1.12299
1.12244
1.12075
1.11885
1.11878
1.11586
1.13853
1.13524
1.13553
1.13511
1.13403
1.1328
1.1314
1.12994
1.12892
1.12704
1.12601
1.12454
1.12284
1.12194
1.1199
1.11895
1.11755
1.11596
1.13727
1.13382
1.1343
1.13406
1.13315
1.13216
1.13113
1.12958
1.12852
1.12675
1.1255
1.12406
1.12249
1.1213
1.11968
1.11865
1.11718
1.11623
1.13672
1.13348
1.13391
1.13342
1.13264
1.1315
1.13049
1.12914
1.12789
1.12662
1.12515
1.12397
1.12248
1.12125
1.12005
1.11877
1.11792
1.11672
1.13625
1.13292
1.13357
1.13325
1.13243
1.13139
1.13027
1.12907
1.12789
1.12661
1.12536
1.12405
1.12288
1.12174
1.12077
1.11982
1.11897
1.1181
1.13626
1.13273
1.13314
1.13267
1.13183
1.13084
1.12978
1.12858
1.12731
1.12597
1.12463
1.1233
1.12201
1.12072
1.11949
1.11821
1.11699
1.11566
1.13765
1.13387
1.13309
1.13182
1.13052
1.12912
1.12763
1.12602
1.12435
1.12263
1.1209
1.11918
1.11747
1.1158
1.11416
1.11255
1.11103
1.10969
1.13523
1.15511
1.15798
1.1606
1.16297
1.16513
1.16689
1.16831
1.16929
1.17011
1.1709
1.17144
1.17179
1.1723
1.17296
1.17352
1.17418
1.17431
1.17565
1.17552
1.17163
1.16811
1.16779
1.16441
1.15439
1.14496
1.14292
1.14739
1.15332
1.15849
1.15753
1.14748
1.13531
1.1265
1.12001
1.11434
1.10947
1.10623
1.10506
1.10542
1.10644
1.10774
1.10927
1.11101
1.11292
1.11497
1.11716
1.11949
1.12194
1.12451
1.12722
1.13006
1.13303
1.13615
1.13941
1.14282
1.14636
1.15003
1.1538
1.15764
1.16157
1.16561
1.16976
1.1741
1.17856
1.18307
1.18786
1.19281
1.19771
1.20263
1.20736
1.21166
1.21594
1.2205
1.22552
1.23089
1.23628
1.24153
1.24653
1.25198
1.25754
1.263
1.26791
1.27257
1.27731
1.28257
1.28824
1.29276
1.29611
1.29861
1.3031
1.31192
1.32297
1.3329
1.34065
1.34335
1.34685
1.35577
1.37076
1.38306
1.38513
1.38436
1.38261
1.40472
1.43511
1.41098
1.39555
1.37375
1.33293
1.33211
1.34058
1.34359
1.34666
1.3479
1.34878
1.34992
1.34537
1.34026
1.34024
1.34442
1.34934
1.34858
1.36692
1.36557
1.36384
1.3519
1.35019
1.35562
1.35852
1.35714
1.35621
1.35642
1.35826
1.36205
1.36519
1.37066
1.37486
1.37719
1.38295
1.39155
1.40322
1.40748
1.41163
1.42014
1.42572
1.43014
1.44383
1.44999
1.45965
1.47217
1.48096
1.48976
1.50357
1.52163
1.52229
1.52368
1.53745
1.55435
1.57066
1.59955
1.61127
1.59421
1.57306
1.56562
1.57075
1.57329
1.55553
1.5271
1.49813
1.46964
1.44889
1.4383
1.42887
1.42196
1.41682
1.40887
1.39718
1.38626
1.37443
1.36256
1.13
1.14406
1.14975
1.15805
1.16342
1.16701
1.16902
1.16983
1.16998
1.16982
1.17078
1.1721
1.17303
1.17343
1.17971
1.181
1.18173
1.19066
1.18358
1.19251
1.20474
1.19139
1.19015
1.20257
1.20807
1.20945
1.20749
1.18478
1.15608
1.17166
1.21514
1.20992
1.15834
1.12289
1.11244
1.10968
1.10945
1.11032
1.11183
1.1136
1.11542
1.11712
1.1187
1.12019
1.12176
1.12339
1.12511
1.12703
1.12914
1.1315
1.13409
1.13686
1.13987
1.14313
1.14662
1.15051
1.15478
1.1595
1.16453
1.1697
1.17505
1.18033
1.18576
1.19156
1.19746
1.20305
1.20882
1.21562
1.22271
1.22965
1.23687
1.2433
1.24799
1.25201
1.25599
1.26102
1.2684
1.27688
1.28389
1.28931
1.29403
1.29522
1.29601
1.29946
1.30245
1.31044
1.32007
1.3353
1.34978
1.36002
1.36882
1.38085
1.39241
1.39935
1.40247
1.40109
1.39893
1.40447
1.4173
1.43852
1.44792
1.46071
1.45388
1.48196
1.57246
1.525
1.38238
1.34374
1.34767
1.35735
1.36501
1.37164
1.37523
1.37613
1.37572
1.34335
1.30683
1.31136
1.32922
1.33384
1.34451
1.37053
1.39317
1.39914
1.398
1.38527
1.37894
1.38821
1.40243
1.40637
1.40254
1.39653
1.39508
1.39721
1.40393
1.41855
1.43103
1.43919
1.45198
1.47814
1.50588
1.51594
1.52531
1.53871
1.54231
1.55359
1.57508
1.57896
1.58724
1.60656
1.61704
1.6248
1.64652
1.658
1.65179
1.65796
1.6893
1.72578
1.77612
1.85218
1.8586
1.83209
1.82924
1.83949
1.86091
1.84978
1.77053
1.68256
1.60971
1.53704
1.49343
1.48069
1.46775
1.46758
1.46059
1.44639
1.43297
1.42804
1.42014
1.4018
1.12301
1.13454
1.15029
1.16457
1.16787
1.16746
1.16421
1.15892
1.15354
1.15096
1.1517
1.15006
1.14975
1.15676
1.15819
1.1632
1.17143
1.16765
1.19223
1.19007
1.17753
1.22188
1.23079
1.20499
1.19858
1.20642
1.22142
1.22052
1.18433
1.14631
1.12888
1.11912
1.11265
1.11084
1.11089
1.11219
1.11361
1.11477
1.11561
1.11589
1.11593
1.11569
1.11553
1.11564
1.11575
1.11616
1.11705
1.11832
1.11989
1.12171
1.12402
1.12631
1.12884
1.13166
1.1345
1.13776
1.14148
1.14586
1.15084
1.15643
1.16252
1.1686
1.17463
1.1811
1.1874
1.19229
1.19657
1.20339
1.21117
1.21869
1.22911
1.24169
1.24781
1.2475
1.24353
1.24309
1.25023
1.26066
1.26768
1.26872
1.26912
1.26148
1.25452
1.25518
1.25124
1.2545
1.25643
1.27428
1.30407
1.33834
1.365
1.38729
1.39468
1.3874
1.38674
1.39448
1.38472
1.37395
1.37024
1.3799
1.39886
1.40779
1.4586
1.52254
1.45626
1.36587
1.34352
1.35075
1.35944
1.37462
1.40643
1.42566
1.41086
1.34816
1.28626
1.26615
1.31538
1.35725
1.33319
1.31441
1.34685
1.37776
1.39394
1.428
1.39849
1.39686
1.39774
1.40874
1.42154
1.43416
1.44238
1.43339
1.41845
1.39715
1.38751
1.39891
1.40623
1.4127
1.42579
1.48452
1.50971
1.49581
1.52788
1.5324
1.50048
1.5794
1.60002
1.56323
1.58498
1.61293
1.58857
1.60948
1.67409
1.58636
1.54238
1.62726
1.69566
1.73143
1.8124
1.90245
1.83115
1.79124
1.87641
1.98371
2.04242
1.96906
1.79201
1.65406
1.57269
1.51898
1.50326
1.48655
1.48393
1.49745
1.46785
1.4485
1.42781
1.44056
1.43921
1.41829
1.12131
1.13974
1.16393
1.17317
1.16524
1.15999
1.15238
1.14438
1.14117
1.14152
1.1423
1.14125
1.14261
1.14315
1.14214
1.14529
1.14819
1.15998
1.16938
1.18383
1.2096
1.1828
1.18422
1.22618
1.22284
1.18004
1.13968
1.12482
1.11946
1.1152
1.11284
1.1115
1.11207
1.11338
1.11437
1.11466
1.11471
1.11391
1.11241
1.1108
1.10953
1.1087
1.10831
1.1085
1.10957
1.11131
1.11311
1.11554
1.11824
1.12082
1.12368
1.12661
1.12953
1.13228
1.13482
1.13692
1.13873
1.14059
1.14262
1.14568
1.14938
1.15457
1.16037
1.16669
1.17314
1.17818
1.18188
1.18603
1.19038
1.1939
1.20019
1.21602
1.23141
1.23941
1.23716
1.23175
1.2316
1.23569
1.23882
1.23958
1.24332
1.24089
1.23306
1.2331
1.22704
1.22581
1.22444
1.23368
1.24803
1.2765
1.30253
1.33471
1.34945
1.32971
1.34457
1.40014
1.40309
1.37619
1.38155
1.3932
1.40406
1.44166
1.46534
1.4201
1.35398
1.33205
1.34503
1.35595
1.38123
1.41148
1.41708
1.38275
1.33896
1.29221
1.28369
1.33716
1.38492
1.33348
1.28372
1.31261
1.34651
1.34577
1.37648
1.40898
1.40429
1.38928
1.38626
1.38402
1.38045
1.40162
1.42477
1.42999
1.42853
1.4108
1.39149
1.40065
1.40222
1.39417
1.39369
1.47787
1.49448
1.43508
1.48469
1.47553
1.36927
1.52325
1.58813
1.48701
1.5054
1.56928
1.49172
1.51531
1.6537
1.46554
1.32591
1.46384
1.62986
1.68599
1.77923
1.88566
1.69022
1.59712
1.77616
2.00291
2.11475
1.98788
1.75008
1.6002
1.53979
1.51812
1.49946
1.47392
1.49795
1.50376
1.46495
1.44641
1.40468
1.40937
1.42051
1.4335
1.12373
1.14708
1.16806
1.16746
1.15955
1.16136
1.15545
1.14838
1.14953
1.15027
1.14862
1.14988
1.15466
1.15648
1.15506
1.14978
1.14784
1.1548
1.14748
1.15084
1.17276
1.21179
1.23241
1.18437
1.13965
1.12282
1.11803
1.11715
1.11467
1.11444
1.11481
1.1155
1.11641
1.11634
1.11549
1.11371
1.11139
1.10909
1.10741
1.10649
1.10605
1.10664
1.10821
1.11053
1.11304
1.11594
1.11942
1.12272
1.12582
1.12911
1.13222
1.1354
1.1386
1.14183
1.145
1.14717
1.14872
1.14951
1.14927
1.14954
1.1493
1.15038
1.15191
1.15434
1.15838
1.16362
1.17072
1.17853
1.18569
1.18907
1.19038
1.20086
1.22049
1.23261
1.23546
1.2376
1.23844
1.23314
1.23021
1.22955
1.23719
1.2403
1.23249
1.22772
1.21822
1.21019
1.20519
1.2202
1.23837
1.26551
1.2914
1.30911
1.2953
1.27404
1.30305
1.3342
1.31365
1.32108
1.36333
1.40388
1.43568
1.43092
1.3841
1.34113
1.32795
1.34414
1.35515
1.3653
1.39205
1.4124
1.37836
1.31525
1.27556
1.27325
1.30475
1.32554
1.30838
1.29949
1.33783
1.34812
1.31157
1.31039
1.34439
1.37455
1.39837
1.37805
1.33832
1.32161
1.31501
1.34479
1.36997
1.38586
1.40249
1.39963
1.38766
1.40975
1.4056
1.39029
1.3791
1.47142
1.48578
1.39847
1.44755
1.4383
1.27255
1.43005
1.57195
1.44901
1.43235
1.52353
1.41871
1.45069
1.60492
1.44884
1.29003
1.32035
1.51998
1.60494
1.72466
1.88997
1.52436
1.34207
1.58861
1.93451
2.11766
1.96674
1.7044
1.56286
1.51699
1.5133
1.48476
1.4636
1.48772
1.4731
1.47005
1.45017
1.40528
1.37528
1.38823
1.38704
1.1261
1.14852
1.16889
1.1751
1.16908
1.16369
1.14723
1.13631
1.13518
1.13253
1.13547
1.1504
1.16858
1.1758
1.17498
1.1674
1.15984
1.16402
1.17669
1.19847
1.21551
1.20784
1.16363
1.13079
1.12427
1.12041
1.12029
1.11914
1.11938
1.12016
1.12045
1.12015
1.11833
1.11584
1.1126
1.10982
1.10808
1.10767
1.10806
1.10963
1.11232
1.11554
1.11874
1.12217
1.12596
1.1291
1.13186
1.13438
1.13678
1.13917
1.14158
1.14434
1.14726
1.15015
1.15356
1.15583
1.15784
1.15936
1.1591
1.15938
1.15904
1.15958
1.15937
1.15895
1.15869
1.15904
1.16209
1.16838
1.17688
1.18251
1.18391
1.18577
1.20368
1.21992
1.22434
1.22042
1.21724
1.21559
1.21643
1.21566
1.22443
1.22874
1.22486
1.2251
1.22129
1.20809
1.18401
1.18257
1.20733
1.25282
1.28435
1.28507
1.26844
1.2788
1.31648
1.30954
1.28362
1.33352
1.39987
1.40371
1.38796
1.35945
1.32904
1.32025
1.33214
1.34112
1.33718
1.35268
1.39423
1.42487
1.41797
1.37354
1.31762
1.30045
1.30767
1.3095
1.33266
1.35914
1.34083
1.29375
1.29373
1.31355
1.29414
1.28633
1.32141
1.35783
1.29878
1.26809
1.27903
1.31769
1.35566
1.36944
1.39193
1.38726
1.39848
1.42891
1.3821
1.35824
1.35664
1.45856
1.47725
1.39276
1.4231
1.41781
1.25656
1.35935
1.54694
1.45869
1.41904
1.48987
1.38551
1.44149
1.521
1.49373
1.4604
1.34379
1.46523
1.52057
1.66604
1.89297
1.34989
1.11232
1.38394
1.82078
2.08541
1.93251
1.65618
1.52648
1.48839
1.50501
1.48185
1.46027
1.47049
1.45306
1.48993
1.47516
1.4595
1.40973
1.3691
1.33163
1.12752
1.14994
1.17181
1.17145
1.15197
1.145
1.13733
1.13357
1.13437
1.1324
1.13754
1.15358
1.17088
1.1813
1.18571
1.18688
1.1882
1.19697
1.20597
1.20062
1.17676
1.14869
1.1297
1.1259
1.12441
1.12449
1.12442
1.1233
1.12317
1.12137
1.11847
1.11486
1.11095
1.10797
1.10644
1.1068
1.10897
1.11238
1.11735
1.12239
1.12768
1.13254
1.13737
1.14161
1.14511
1.14834
1.15111
1.15334
1.1556
1.1579
1.16033
1.16306
1.16562
1.16769
1.1704
1.17191
1.17226
1.1723
1.17019
1.16793
1.16495
1.16376
1.16303
1.16335
1.1645
1.16629
1.16764
1.16956
1.17384
1.17913
1.18254
1.1761
1.17594
1.18494
1.19119
1.19378
1.19568
1.19854
1.20325
1.20454
1.20727
1.21524
1.21526
1.21962
1.23252
1.23219
1.20261
1.17406
1.18368
1.22046
1.23874
1.24431
1.27284
1.31527
1.31718
1.28818
1.29503
1.3538
1.39044
1.36272
1.33778
1.31292
1.3077
1.32102
1.33454
1.32773
1.32188
1.33249
1.34748
1.36579
1.39758
1.40089
1.3628
1.32823
1.30633
1.31747
1.33863
1.31835
1.28809
1.30092
1.32796
1.30892
1.2722
1.28371
1.28013
1.26766
1.28025
1.23842
1.25457
1.26478
1.31923
1.353
1.38185
1.37072
1.42534
1.42732
1.32519
1.30715
1.32969
1.42599
1.44058
1.39437
1.39905
1.37641
1.2881
1.32957
1.47076
1.42577
1.43127
1.47109
1.40964
1.47361
1.45299
1.48321
1.56277
1.47684
1.49027
1.45889
1.63216
1.86588
1.26221
1.01203
1.23118
1.70819
2.03552
1.89246
1.61453
1.50455
1.4722
1.48029
1.46385
1.44896
1.45285
1.45784
1.51752
1.53236
1.50528
1.46077
1.39911
1.37105
1.1288
1.15158
1.17167
1.17479
1.17098
1.17517
1.16861
1.16054
1.15478
1.14308
1.14218
1.15427
1.16421
1.17381
1.17862
1.18047
1.18141
1.17894
1.17044
1.15533
1.14365
1.13593
1.13074
1.12949
1.12764
1.12735
1.12398
1.12048
1.11727
1.1125
1.10967
1.10713
1.10798
1.11108
1.11631
1.12261
1.13015
1.13701
1.14377
1.14969
1.1548
1.15897
1.16216
1.1649
1.16699
1.16876
1.17031
1.17171
1.17292
1.17421
1.17581
1.17775
1.18018
1.18272
1.18523
1.1877
1.18958
1.19057
1.19105
1.19113
1.18844
1.18399
1.17866
1.1732
1.16784
1.16596
1.16639
1.16743
1.168
1.17041
1.17588
1.18251
1.18186
1.18092
1.18215
1.1863
1.19313
1.19689
1.20264
1.20433
1.19755
1.2
1.20194
1.20438
1.21719
1.23705
1.22509
1.19045
1.18794
1.22059
1.23897
1.26343
1.3031
1.31661
1.28896
1.27094
1.29705
1.35852
1.38198
1.33325
1.30969
1.2996
1.31354
1.32863
1.32448
1.30775
1.29965
1.29243
1.28183
1.28463
1.30658
1.31142
1.30017
1.29593
1.29862
1.31867
1.30846
1.28065
1.28262
1.30657
1.31059
1.32066
1.3414
1.35881
1.3187
1.26263
1.27497
1.2707
1.28081
1.244
1.25784
1.33429
1.37489
1.35068
1.42238
1.38794
1.27479
1.24475
1.25647
1.32498
1.3371
1.36539
1.37797
1.29603
1.28788
1.33168
1.36981
1.37007
1.43767
1.44091
1.45914
1.50187
1.44305
1.44888
1.49752
1.54508
1.51313
1.4204
1.63453
1.79081
1.34288
1.09468
1.16374
1.62479
1.98444
1.8576
1.58681
1.49579
1.48258
1.45819
1.44612
1.46529
1.49696
1.52747
1.56571
1.58883
1.54227
1.49829
1.44642
1.40424
1.13029
1.15555
1.17693
1.17901
1.1646
1.15542
1.15152
1.145
1.14258
1.14356
1.13812
1.14027
1.14881
1.15638
1.16296
1.16269
1.16128
1.15437
1.14692
1.13952
1.13271
1.12952
1.12969
1.12983
1.12788
1.12416
1.11997
1.11612
1.11307
1.11128
1.11362
1.11803
1.12556
1.13339
1.14088
1.14708
1.15199
1.15562
1.15832
1.16066
1.16164
1.16261
1.16302
1.16294
1.16271
1.16236
1.16181
1.16148
1.16142
1.16124
1.16129
1.16168
1.16356
1.16648
1.16955
1.17268
1.17545
1.17828
1.1819
1.18712
1.19285
1.19683
1.19884
1.19906
1.19365
1.18637
1.18055
1.17851
1.17888
1.18007
1.17999
1.18229
1.18913
1.19135
1.19497
1.19415
1.19378
1.19404
1.19186
1.19552
1.19582
1.19382
1.1963
1.19513
1.18622
1.20516
1.21898
1.19449
1.16652
1.19916
1.23
1.24772
1.26506
1.26167
1.24325
1.25417
1.30864
1.36469
1.37134
1.31465
1.29313
1.29659
1.31646
1.32308
1.30317
1.28326
1.27585
1.26743
1.26299
1.27399
1.29219
1.29567
1.2967
1.30421
1.30469
1.29158
1.25736
1.24235
1.24248
1.24111
1.24079
1.26516
1.30392
1.31709
1.35883
1.35062
1.33263
1.29545
1.28332
1.29284
1.23325
1.33029
1.35898
1.27196
1.373
1.36957
1.24886
1.16678
1.15046
1.19211
1.2135
1.27803
1.35378
1.26576
1.26985
1.33469
1.30859
1.40713
1.51877
1.46593
1.51777
1.50555
1.45822
1.43081
1.45479
1.55727
1.47461
1.38937
1.66638
1.66965
1.46149
1.24161
1.1615
1.57448
1.93622
1.82958
1.57337
1.48465
1.50766
1.469
1.44774
1.5044
1.56313
1.57549
1.57654
1.57512
1.55292
1.51574
1.49224
1.44337
1.13616
1.16747
1.17595
1.15502
1.15116
1.15378
1.151
1.15498
1.15602
1.15265
1.14976
1.1451
1.14867
1.15423
1.15385
1.14971
1.13908
1.13756
1.1366
1.13798
1.1363
1.13346
1.13116
1.12751
1.12439
1.12104
1.11635
1.11447
1.11452
1.11992
1.12754
1.13594
1.14298
1.14733
1.15021
1.15227
1.15433
1.15688
1.15907
1.16175
1.16315
1.16399
1.16453
1.16422
1.16329
1.16196
1.16041
1.1592
1.15879
1.15761
1.15558
1.15326
1.15322
1.15596
1.16023
1.16384
1.16485
1.16507
1.16657
1.17293
1.18292
1.19406
1.2025
1.20795
1.20752
1.20278
1.19673
1.19149
1.18843
1.18695
1.1907
1.18893
1.1889
1.19076
1.19504
1.19807
1.19838
1.20291
1.20027
1.19578
1.20161
1.19706
1.1947
1.20367
1.18615
1.18239
1.21339
1.21795
1.16954
1.15832
1.18156
1.19625
1.21919
1.24044
1.24394
1.25421
1.30784
1.35661
1.36192
1.3088
1.28171
1.29484
1.3129
1.31005
1.28216
1.26364
1.26095
1.25743
1.25907
1.27553
1.29426
1.29709
1.29261
1.28603
1.27206
1.25192
1.23618
1.23298
1.21793
1.21628
1.22305
1.24579
1.24983
1.22009
1.29623
1.30207
1.33846
1.3022
1.21073
1.29351
1.2376
1.3089
1.28709
1.16486
1.31029
1.36365
1.25228
1.18507
1.18407
1.2249
1.23756
1.24343
1.33119
1.31308
1.33102
1.36662
1.34852
1.50681
1.63399
1.56841
1.58625
1.51819
1.47294
1.41255
1.46901
1.56694
1.38395
1.33585
1.69449
1.54899
1.4667
1.31603
1.19301
1.55096
1.89593
1.81343
1.57548
1.46274
1.51764
1.5087
1.47138
1.53937
1.60785
1.57296
1.5534
1.52261
1.52629
1.4931
1.48523
1.46069
1.13504
1.16097
1.17958
1.17424
1.16084
1.15542
1.15397
1.15013
1.15483
1.16624
1.16533
1.14994
1.14222
1.14656
1.13943
1.13739
1.14403
1.1459
1.14249
1.13447
1.13132
1.13102
1.12946
1.12917
1.1262
1.12404
1.12194
1.12436
1.12895
1.13605
1.143
1.14867
1.1512
1.15259
1.15465
1.15846
1.16359
1.16834
1.17153
1.17285
1.17308
1.1721
1.17111
1.16959
1.16714
1.16335
1.15892
1.15529
1.15496
1.15608
1.15553
1.15084
1.14724
1.14848
1.15598
1.16292
1.16329
1.15719
1.15024
1.15153
1.15968
1.17257
1.18262
1.19376
1.20594
1.21457
1.21383
1.20785
1.20218
1.19882
1.19484
1.19603
1.19587
1.19372
1.1935
1.19718
1.19865
1.20055
1.20814
1.19908
1.20026
1.2056
1.19027
1.19785
1.19265
1.17027
1.1895
1.21843
1.19979
1.17162
1.17959
1.19649
1.22212
1.24209
1.25204
1.25894
1.30745
1.34567
1.34828
1.31049
1.2783
1.29241
1.31117
1.30073
1.26499
1.2475
1.24914
1.25104
1.25995
1.27587
1.29048
1.28437
1.26615
1.25424
1.24424
1.23741
1.22918
1.21043
1.18215
1.19074
1.19134
1.2035
1.20286
1.20035
1.29157
1.23291
1.22982
1.30497
1.18947
1.20892
1.23883
1.24607
1.18655
1.11929
1.25674
1.33499
1.2597
1.23976
1.23623
1.28481
1.32586
1.31829
1.37229
1.36453
1.4218
1.43485
1.43803
1.55794
1.64095
1.6001
1.59229
1.52833
1.48148
1.39216
1.4736
1.5509
1.28897
1.26449
1.682
1.50471
1.43851
1.35474
1.2394
1.54237
1.85372
1.79845
1.58691
1.44416
1.48872
1.52228
1.49552
1.5527
1.60435
1.52205
1.49457
1.44199
1.45866
1.43134
1.4228
1.41628
1.13662
1.16125
1.16924
1.15928
1.16053
1.16208
1.165
1.16833
1.17054
1.17351
1.18155
1.17653
1.15468
1.14419
1.13864
1.14042
1.146
1.13984
1.13631
1.13782
1.13476
1.13438
1.13176
1.12772
1.12535
1.12317
1.12473
1.12874
1.1353
1.14356
1.15112
1.15469
1.15484
1.15644
1.16064
1.16595
1.17102
1.17239
1.17054
1.16736
1.16553
1.16441
1.16335
1.16168
1.15839
1.15274
1.14564
1.13776
1.13351
1.13331
1.13539
1.13274
1.12746
1.1246
1.13035
1.1401
1.14633
1.14243
1.13451
1.13356
1.14134
1.15853
1.16997
1.17922
1.18486
1.19479
1.20148
1.20635
1.20698
1.20731
1.20881
1.20519
1.20335
1.20557
1.20586
1.20423
1.20662
1.19939
1.20236
1.1993
1.18643
1.19312
1.184
1.18142
1.19034
1.17036
1.16691
1.18614
1.18863
1.17563
1.16779
1.16955
1.19005
1.20961
1.23865
1.25617
1.30307
1.33376
1.32756
1.29875
1.28076
1.28864
1.30815
1.29428
1.25355
1.23708
1.24462
1.24982
1.25454
1.26548
1.27657
1.26507
1.24606
1.23472
1.2298
1.21905
1.19942
1.18257
1.17486
1.18039
1.16849
1.18588
1.18816
1.16396
1.26052
1.30941
1.23259
1.29227
1.25186
1.1739
1.23772
1.18542
1.16919
1.15149
1.23642
1.29765
1.25633
1.24741
1.21489
1.21227
1.28006
1.35215
1.40369
1.38705
1.44726
1.47667
1.48372
1.58926
1.61549
1.54254
1.54757
1.55381
1.49404
1.39051
1.48516
1.52533
1.29287
1.25269
1.64848
1.51214
1.44525
1.38593
1.27091
1.53667
1.81622
1.77715
1.59755
1.4449
1.4393
1.49023
1.49598
1.55609
1.558
1.43246
1.39687
1.35793
1.39542
1.37477
1.3643
1.36067
1.13421
1.14986
1.15078
1.14271
1.14356
1.14461
1.14737
1.15055
1.15644
1.1639
1.17327
1.18425
1.15166
1.12503
1.13923
1.15189
1.14838
1.14168
1.13564
1.13639
1.13647
1.13327
1.13231
1.1298
1.13119
1.13117
1.13311
1.13697
1.14374
1.15116
1.15612
1.15692
1.15726
1.15942
1.16385
1.17015
1.17302
1.17177
1.16813
1.16692
1.16819
1.17022
1.17102
1.17029
1.16659
1.15875
1.15052
1.14119
1.13366
1.12976
1.13159
1.13527
1.1342
1.12798
1.12439
1.12718
1.13402
1.13567
1.13135
1.12415
1.12153
1.13267
1.15239
1.17136
1.1817
1.18257
1.18434
1.18582
1.19187
1.19741
1.20117
1.20448
1.2047
1.20339
1.2062
1.20442
1.20932
1.21222
1.2088
1.20897
1.19822
1.19013
1.18595
1.17406
1.18833
1.17908
1.16234
1.17445
1.19088
1.17773
1.15874
1.15024
1.16298
1.17674
1.22009
1.24808
1.29648
1.3226
1.31079
1.27267
1.27262
1.28955
1.30652
1.28726
1.24284
1.22913
1.24239
1.24997
1.24985
1.25668
1.26327
1.24065
1.22675
1.21116
1.19873
1.18457
1.17313
1.17845
1.18895
1.18757
1.17699
1.19618
1.18871
1.1305
1.16486
1.30576
1.22211
1.2821
1.25504
1.20181
1.21712
1.15715
1.2004
1.18018
1.23357
1.24902
1.22882
1.25082
1.25662
1.25565
1.29823
1.35598
1.3778
1.40625
1.44221
1.46353
1.4783
1.60067
1.64682
1.54505
1.53683
1.62023
1.54288
1.44277
1.514
1.50531
1.38793
1.32246
1.61966
1.50603
1.45839
1.40306
1.28193
1.51983
1.77344
1.73993
1.59288
1.45834
1.40538
1.43601
1.4762
1.55307
1.48599
1.35445
1.33008
1.36067
1.38624
1.35488
1.3313
1.31228
1.13159
1.13912
1.13865
1.13877
1.14065
1.14203
1.14261
1.14225
1.13919
1.1394
1.14402
1.15555
1.16914
1.16153
1.16175
1.16096
1.14921
1.14327
1.14233
1.13846
1.1358
1.13443
1.13433
1.1329
1.13228
1.13282
1.13634
1.14306
1.15214
1.15922
1.16319
1.1628
1.16189
1.16162
1.16556
1.17152
1.17351
1.17125
1.1688
1.16934
1.1708
1.171
1.17039
1.16997
1.16553
1.15175
1.13627
1.12542
1.1198
1.11719
1.11494
1.11688
1.12171
1.12653
1.12638
1.12495
1.12867
1.13503
1.14501
1.14534
1.13664
1.12287
1.12423
1.13755
1.1547
1.16443
1.16557
1.16223
1.16087
1.16378
1.16587
1.17195
1.17913
1.18692
1.19713
1.20291
1.20191
1.20662
1.21193
1.21186
1.21373
1.1981
1.1974
1.18016
1.17849
1.18041
1.1673
1.15691
1.17916
1.18919
1.17935
1.15808
1.15051
1.14953
1.19419
1.23526
1.28252
1.31371
1.29938
1.25203
1.24736
1.28019
1.30265
1.28754
1.23775
1.21841
1.23929
1.25103
1.24703
1.25917
1.24615
1.21075
1.1924
1.17988
1.17439
1.17015
1.15934
1.16047
1.16869
1.18642
1.17459
1.17833
1.20352
1.19603
1.16513
1.2737
1.24953
1.23463
1.17652
1.20679
1.20095
1.14608
1.16583
1.14633
1.18229
1.17493
1.20543
1.23904
1.25247
1.29667
1.35569
1.36522
1.34309
1.39993
1.43448
1.44812
1.44059
1.50976
1.63489
1.57879
1.51279
1.61589
1.57196
1.50009
1.53846
1.50683
1.45162
1.38599
1.57515
1.47072
1.44048
1.40746
1.28359
1.49766
1.73446
1.69656
1.56957
1.46951
1.39241
1.38432
1.45147
1.54451
1.4348
1.33806
1.32979
1.40362
1.41259
1.39048
1.34914
1.28088
1.13165
1.13683
1.14022
1.14665
1.15108
1.15366
1.15638
1.15761
1.15954
1.1597
1.16045
1.15791
1.16113
1.16571
1.16752
1.16989
1.16548
1.15268
1.14507
1.14397
1.14071
1.13767
1.13528
1.13419
1.13357
1.13405
1.13634
1.14053
1.14733
1.15515
1.16129
1.16273
1.16199
1.16135
1.16536
1.17014
1.17334
1.17357
1.17367
1.17283
1.17198
1.16886
1.1677
1.17209
1.17339
1.16092
1.14059
1.1254
1.11869
1.11904
1.11886
1.11599
1.11402
1.11691
1.1225
1.12166
1.11836
1.11598
1.12015
1.13126
1.14418
1.14751
1.13553
1.12721
1.12759
1.13724
1.14811
1.15485
1.15015
1.14739
1.14079
1.14127
1.14521
1.15389
1.16117
1.16945
1.18299
1.19232
1.20689
1.20565
1.21861
1.2053
1.19883
1.1911
1.17451
1.17346
1.18162
1.15796
1.15421
1.16551
1.18568
1.17207
1.15098
1.13302
1.1617
1.21972
1.26227
1.30644
1.29474
1.24293
1.218
1.25334
1.28519
1.28723
1.24632
1.21009
1.2272
1.24771
1.2488
1.25427
1.22053
1.18511
1.15772
1.13985
1.13686
1.14801
1.14547
1.14883
1.15635
1.19733
1.19816
1.19673
1.19904
1.18681
1.17094
1.26031
1.28033
1.25515
1.16311
1.18002
1.18676
1.13238
1.13763
1.11059
1.09255
1.1197
1.21926
1.25922
1.27252
1.30459
1.34549
1.32108
1.28906
1.35301
1.3914
1.44196
1.46953
1.4662
1.56925
1.56418
1.48222
1.57237
1.55943
1.51819
1.54456
1.51505
1.45874
1.3951
1.49072
1.40836
1.41066
1.40788
1.27959
1.47035
1.6918
1.6508
1.52601
1.46866
1.3829
1.33772
1.42006
1.528
1.41711
1.36089
1.36656
1.4191
1.43634
1.43003
1.40011
1.29982
1.1333
1.14011
1.14732
1.15063
1.14761
1.1464
1.14443
1.14408
1.14282
1.14394
1.14864
1.154
1.15703
1.16313
1.16802
1.1699
1.17231
1.16907
1.15659
1.14916
1.14559
1.14294
1.13919
1.13624
1.13391
1.13249
1.13187
1.13329
1.1368
1.14371
1.15346
1.16254
1.16608
1.16405
1.16208
1.16519
1.1708
1.17485
1.17533
1.17466
1.17402
1.17004
1.16739
1.17461
1.17882
1.1638
1.14032
1.12625
1.12045
1.11884
1.12068
1.12288
1.12225
1.11856
1.12207
1.12932
1.12903
1.12657
1.1188
1.11702
1.11993
1.13092
1.13649
1.13448
1.12559
1.12686
1.12877
1.14391
1.1468
1.14765
1.14199
1.13841
1.13312
1.13115
1.13859
1.14401
1.15683
1.15871
1.18204
1.19012
1.20944
1.21588
1.19767
1.19693
1.18169
1.15719
1.17489
1.17967
1.16442
1.14423
1.1697
1.1744
1.15776
1.12888
1.129
1.19516
1.2394
1.29073
1.29708
1.24945
1.20157
1.21881
1.25032
1.27125
1.25824
1.21649
1.21488
1.2263
1.24313
1.23794
1.21485
1.19525
1.16658
1.13415
1.11572
1.12452
1.12791
1.12797
1.128
1.15254
1.17176
1.19648
1.19483
1.17308
1.16094
1.22375
1.19747
1.23783
1.17691
1.19702
1.17194
1.11121
1.1601
1.1287
1.07307
1.14829
1.25151
1.26886
1.2951
1.32512
1.34087
1.28007
1.22967
1.3127
1.36697
1.45645
1.54588
1.56845
1.58568
1.56619
1.48908
1.56675
1.54537
1.52224
1.55171
1.50409
1.47275
1.39671
1.38715
1.33369
1.37934
1.40535
1.27346
1.44159
1.65152
1.6077
1.47657
1.4546
1.3683
1.3071
1.38808
1.50458
1.41605
1.36803
1.38771
1.3852
1.40617
1.40664
1.38759
1.30155
1.13558
1.14519
1.15017
1.14552
1.14436
1.14811
1.15061
1.15019
1.14808
1.14519
1.14491
1.14768
1.15076
1.15748
1.16543
1.1684
1.17068
1.17458
1.17
1.15984
1.15158
1.14753
1.14484
1.14299
1.14
1.13688
1.13357
1.13093
1.12985
1.13101
1.13638
1.14657
1.15735
1.16485
1.16721
1.16699
1.16803
1.17059
1.17323
1.17155
1.17031
1.16968
1.16262
1.16846
1.18049
1.16742
1.13773
1.12318
1.12213
1.12335
1.11956
1.11914
1.12173
1.118
1.11451
1.11625
1.11868
1.12423
1.12967
1.12757
1.12492
1.12372
1.12377
1.13198
1.12765
1.12913
1.1222
1.12589
1.13092
1.13812
1.13797
1.13246
1.14063
1.14835
1.15304
1.13868
1.13745
1.13213
1.15023
1.17099
1.18564
1.21658
1.20091
1.18592
1.19361
1.16553
1.14759
1.16755
1.17679
1.14498
1.15437
1.16678
1.16622
1.14147
1.11177
1.16308
1.2174
1.26714
1.2957
1.266
1.20925
1.20065
1.21849
1.24124
1.25055
1.22311
1.21052
1.20617
1.22821
1.22878
1.21887
1.19472
1.15851
1.12585
1.10722
1.10739
1.12298
1.12723
1.12365
1.1337
1.15997
1.18011
1.18586
1.17615
1.15842
1.23559
1.25712
1.198
1.12026
1.17912
1.17659
1.09111
1.15631
1.15132
1.10055
1.13245
1.21918
1.24301
1.26889
1.30188
1.32616
1.22535
1.16984
1.31453
1.40539
1.46945
1.5147
1.57024
1.59714
1.58533
1.50945
1.56007
1.52813
1.51648
1.55802
1.50062
1.49543
1.42393
1.30547
1.26883
1.35211
1.39653
1.26925
1.40797
1.60926
1.5629
1.43755
1.42958
1.3525
1.29955
1.36829
1.47413
1.40875
1.35985
1.38689
1.35964
1.34137
1.34428
1.33587
1.29095
1.13736
1.14569
1.14447
1.14461
1.15065
1.15086
1.15465
1.15498
1.1508
1.14659
1.14494
1.14468
1.14708
1.15241
1.15972
1.16406
1.16667
1.17226
1.17495
1.17111
1.16393
1.15788
1.15282
1.14998
1.14789
1.1463
1.14429
1.14204
1.1388
1.13423
1.13266
1.13379
1.14026
1.15055
1.15917
1.16377
1.16291
1.16266
1.16691
1.16732
1.16752
1.16943
1.15688
1.15807
1.17692
1.17472
1.14807
1.13391
1.12873
1.1311
1.12785
1.12195
1.1209
1.12078
1.12591
1.12586
1.12415
1.12635
1.1323
1.13176
1.13291
1.13198
1.1295
1.12887
1.12966
1.12942
1.12822
1.12722
1.13241
1.12593
1.12341
1.1133
1.1212
1.13912
1.15851
1.1578
1.14753
1.13071
1.12612
1.15805
1.16462
1.18972
1.20794
1.17864
1.17811
1.18444
1.14838
1.14349
1.16968
1.15031
1.14243
1.14725
1.15379