/*--------------------------------*- C++ -*----------------------------------*\
| =========                 |                                                 |
| \\      /  F ield         | OpenFOAM: The Open Source CFD Toolbox           |
|  \\    /   O peration     | Version:  dev                                   |
|   \\  /    A nd           | Web:      http://www.openfoam.org               |
|    \\/     M anipulation  |                                                 |
\*---------------------------------------------------------------------------*/
FoamFile
{
    version     2.0;
    format      ascii;
    class       volScalarField;
    object      T;
    location    "9.137";
}
// * * * * * * * * * * * * * * * * * * * * * * * * * * * * * * * * * * * * * //

dimensions      [0 0 0 1 0 0 0];

internalField   nonuniform List<scalar> 
12225
(
303.377
305.296
305.518
305.37
305.212
304.87
304.588
304.194
303.936
303.546
303.376
302.943
302.875
302.348
302.237
302.303
300.247
300.126
304.762
306.544
306.132
305.701
305.469
304.963
304.881
304.295
304.228
303.65
303.762
303.003
302.939
302.224
301.871
301.837
300.18
300.754
304.849
306.45
305.955
305.435
305.174
304.544
304.411
303.807
303.533
303.034
303.019
302.471
302.067
301.777
300.523
300.686
300.957
300.814
304.993
306.515
305.815
305.457
305.062
304.618
304.148
303.892
303.279
302.978
302.612
302.155
302.108
301.89
299.966
300.301
300.368
300.72
304.697
306.875
305.541
305.594
304.954
304.784
303.909
303.934
303.402
303.006
302.143
301.902
302.207
301.45
300.239
300.527
300.051
300.835
304.632
306.615
305.921
305.824
304.829
304.752
304.111
303.982
303.379
302.785
302.187
301.94
302.048
301.081
301.017
300.74
300.192
300.514
304.618
306.021
306.166
305.748
304.192
305.154
304.721
303.906
302.768
303.525
302.83
302.089
301.705
301.363
301.188
301.006
300.493
300.073
304.556
306.627
305.808
305.411
304.086
305.413
304.47
303.952
302.564
304.238
302.653
302.397
301.537
301.603
301.166
301.372
300.459
300.338
304.277
306.893
305.457
305.649
304.526
305.098
303.446
303.706
302.429
304.247
302.687
302.467
301.379
301.508
301.003
301.306
300.595
300.812
304.144
306.77
305.546
305.776
304.671
304.44
303.349
304.089
303.268
303.49
302.557
302.825
301.49
300.977
301.076
301.399
301.005
300.691
304.164
306.474
305.722
305.615
304.563
304.093
303.778
304.177
303.296
302.852
302.457
302.617
301.619
301.647
301.624
301.523
301.224
300.992
304.002
306.378
305.688
305.37
304.437
304.279
304.076
304.283
303.356
302.963
302.815
302.716
302.123
301.873
301.684
301.486
301.196
301.061
303.982
306.237
305.642
305.199
304.547
304.417
304.174
304.173
303.477
303.19
303.122
302.955
302.482
302.06
301.648
301.518
301.361
301.06
303.989
305.962
305.428
305.009
304.727
304.605
304.384
304.219
303.718
303.366
303.265
303.029
302.626
302.293
301.958
301.674
301.743
301.491
303.718
305.558
305.192
304.974
304.853
304.581
304.424
304.217
303.854
303.517
303.39
303.134
302.784
302.532
302.267
302.003
301.977
301.75
303.531
305.149
304.874
304.788
304.69
304.442
304.347
304.111
303.821
303.537
303.389
303.127
302.845
302.621
302.397
302.141
302.098
301.843
303.093
304.588
304.417
304.38
304.304
304.17
304.055
303.806
303.578
303.344
303.196
302.933
302.712
302.496
302.288
302.082
301.962
301.708
302.589
304.049
303.946
303.871
303.774
303.687
303.508
303.274
303.065
302.835
302.648
302.413
302.241
301.988
301.792
301.583
301.393
301.221
302.186
303.556
303.371
303.225
303.065
302.957
302.81
302.579
302.343
302.16
301.872
301.641
301.467
301.153
301.004
300.754
300.524
300.416
301.763
303.017
302.753
302.658
302.413
302.258
302.134
301.836
301.611
301.424
301.069
300.833
300.612
300.278
300.137
299.826
299.644
299.487
301.465
302.451
302.255
302.17
301.785
301.713
301.481
301.109
300.945
300.625
300.333
299.996
299.767
299.444
299.235
298.979
298.775
298.577
301.104
302.052
301.988
301.697
301.286
301.332
300.805
300.541
300.348
299.835
299.807
299.273
299.146
298.873
298.467
298.398
297.969
297.852
300.918
301.868
301.663
301.216
300.943
300.868
300.261
300.195
299.843
299.326
299.389
298.672
298.659
298.309
297.815
297.922
297.207
297.329
300.761
301.604
301.285
300.875
300.68
300.365
300.002
299.855
299.375
299.086
298.843
298.269
298.221
297.692
297.429
297.331
296.704
296.903
300.705
301.453
301.077
300.722
300.459
300.171
299.875
299.575
299.12
298.89
298.445
298.097
297.858
297.403
297.278
296.914
296.659
296.529
300.645
301.437
301.02
300.626
300.329
299.989
299.604
299.328
298.897
298.645
298.264
297.929
297.654
297.29
297.073
296.721
296.513
296.202
300.53
301.262
300.856
300.537
300.213
299.918
299.539
299.215
298.846
298.468
298.147
297.757
297.461
297.123
296.791
296.517
296.151
295.903
300.485
301.24
300.783
300.423
300.11
299.794
299.448
299.091
298.705
298.336
297.96
297.607
297.237
296.876
296.492
296.129
295.764
295.436
300.384
301.183
300.793
300.476
300.175
299.85
299.493
299.134
298.774
298.423
298.074
297.731
297.389
297.067
296.752
296.477
296.21
296.005
300.02
300.823
300.731
300.633
300.462
300.247
300.006
299.762
299.514
299.271
299.028
298.793
298.566
298.352
298.149
297.964
297.786
297.587
293.6
288.542
287.815
287.124
286.488
285.896
285.393
284.962
284.624
284.315
283.997
283.728
283.5
283.228
282.907
282.612
282.293
282.093
281.619
281.504
282.292
282.973
282.917
283.689
286.066
288.196
288.439
287.167
285.652
284.456
284.881
287.589
290.761
293.052
294.817
296.436
297.874
298.895
299.397
299.56
299.618
299.654
299.672
299.679
299.689
299.71
299.739
299.778
299.831
299.896
299.966
300.044
300.124
300.202
300.282
300.356
300.429
300.498
300.572
300.648
300.723
300.788
300.835
300.852
300.855
300.844
300.769
300.666
300.581
300.493
300.462
300.523
300.561
300.51
300.333
300.067
299.795
299.546
299.329
298.979
298.594
298.214
297.944
297.71
297.432
297.026
296.528
296.301
296.34
296.566
296.331
295.132
293.456
292.056
291.147
291.35
291.401
290.332
288.013
286.317
286.777
287.902
289.29
285.796
280.698
286.282
290.213
295.666
305.882
307.164
306.111
306.276
306.328
306.663
306.911
306.873
308.061
309.331
309.293
308.177
306.879
306.709
302.242
302.199
302.061
304.104
303.662
301.698
300.447
300.138
299.69
299.006
298.033
296.738
295.708
294.307
293.321
292.831
291.746
290.262
288.352
288.072
287.787
286.727
286.358
286.297
284.575
284.342
283.42
282.042
281.306
280.633
279.005
276.485
277.256
278.081
276.682
274.644
272.791
268.804
267.464
271.085
275.664
277.932
277.796
277.781
281.096
286.468
292.193
297.921
302.247
304.331
305.693
306.121
305.692
305.466
305.86
305.945
306.005
305.868
295.101
291.477
289.973
287.825
286.458
285.534
284.996
284.741
284.631
284.569
284.212
283.759
283.378
283.114
281.456
280.94
280.591
278.342
279.767
277.506
274.619
277.511
277.5
274.489
273.179
272.807
273.383
278.779
285.215
280.73
271.049
273.418
286.106
294.6
296.895
297.572
297.729
297.671
297.502
297.328
297.198
297.151
297.18
297.27
297.377
297.517
297.672
297.815
297.953
298.063
298.161
298.25
298.31
298.346
298.348
298.276
298.141
297.924
297.67
297.407
297.133
296.896
296.627
296.288
295.959
295.706
295.378
294.814
294.226
293.676
293.083
292.725
292.746
292.858
292.925
292.702
291.947
291.004
290.414
290.136
290.014
290.634
291.258
291.277
291.371
290.345
288.976
286.439
284.179
282.867
281.853
280.178
278.578
277.884
277.976
279.015
280.198
279.872
278.157
274.861
273.93
272.344
274.801
271.049
255.65
263.394
291.958
302.018
302.329
301.184
300.535
300.07
299.906
299.705
300.04
308.103
317.067
315.714
311.251
310.017
307.284
301.171
296.078
294.796
294.364
296.638
297.226
294.418
290.853
289.641
290.01
290.643
290.251
289.058
287.114
283.9
281.332
279.76
277.387
273.105
268.592
267.241
266.4
264.651
264.408
263.915
261.23
261.137
260.795
258.662
257.534
257.351
255.265
253.253
254.654
255.467
252.154
247.709
241.939
232.829
231.805
235.753
237.777
238.107
236.054
236.946
246.578
259.071
270.8
283.942
293.061
295.641
297.785
297.016
296.558
297.474
298.11
297.084
296.264
297.34
297.168
294.099
289.964
286.379
285.6
285.685
286.458
287.721
288.968
289.499
289.177
289.436
289.374
287.471
286.943
285.531
283.323
284.001
277.996
278.337
280.897
270.571
268.81
274.427
275.517
273.594
270.386
271.011
279.59
288.694
292.85
295.179
296.681
297.072
297.089
296.847
296.66
296.591
296.66
296.916
297.273
297.732
298.198
298.641
299.127
299.553
299.898
300.196
300.458
300.689
300.849
301.061
301.232
301.377
301.539
301.604
301.572
301.394
301.088
300.655
300.145
299.676
299.226
298.694
298.278
298.222
298.195
297.508
296.682
295.875
294.348
292.583
292.514
293.82
295.735
296.597
295.699
294.229
293.669
294.417
295.304
298.021
300.408
301.03
302.753
302.695
302.938
299.355
293.245
286.521
281.712
277.981
277.212
279.264
280.198
279.615
282.336
285.233
286.888
285.819
282.771
282.125
273.587
261.997
273.476
292.931
300.048
299.796
299.001
296.701
290.759
287.389
291.217
305.437
320.354
325.54
313.493
304.139
309.798
313.706
305.469
298.32
294.616
287.772
293.565
293.063
292.204
289.025
285.61
282.731
280.992
282.517
285.142
288.808
289.968
287.202
285.466
283.86
280.887
270.835
266.961
268.96
264.362
264.206
268.622
257.786
256.311
261.768
259.104
256.234
259.863
257.478
250.041
261.845
268.506
257.107
249.428
245.405
235.834
225.263
232.244
237.651
229.992
220.328
214.543
220.828
240.915
260.973
275.445
286.774
290.595
293.426
294.14
290.406
294.028
296.057
297.904
293.215
291.2
293.242
297.906
293
286.87
284.671
286.617
287.815
289.65
291.595
292.252
292.02
291.706
291.796
291.261
290.986
291.093
290.184
289.297
286.14
283.688
279.947
273.992
280.066
279.051
269.619
271.103
281.246
290.908
294.204
295.223
296.155
296.676
296.958
296.764
296.471
296.344
296.431
296.632
297.115
297.798
298.509
299.157
299.727
300.213
300.569
300.732
300.798
300.888
300.847
300.815
300.857
300.858
300.895
300.986
301.165
301.448
301.88
302.394
302.897
303.339
303.51
303.518
303.158
302.698
302.141
301.633
301.533
301.714
301.737
301.74
301.852
301.008
297.979
295.564
295.086
296.882
299.115
299.931
299.792
299.981
300.695
300.732
302.328
305.049
305.804
308.102
309.114
310.162
308.531
305.663
299.535
294.303
287.917
285.277
290.154
288.119
277.482
277.172
283.483
283.63
282.27
281.2
274.697
270.02
278.379
293.436
300.467
298.9
297.412
292.975
287.666
286.884
293.948
304.088
316.465
319.391
306.702
296.615
308.939
320.806
312.687
304.128
303.783
296.48
289.646
291.206
293.371
292.669
292.248
291.956
286.969
282.056
281.048
281.556
285.155
288.628
286.662
286.191
287.465
286.647
271.273
269.381
279.362
270.817
273.884
291.825
264.24
257.603
274.31
270.758
262.216
275.199
271.92
251.942
283.427
312.061
282.44
257.216
250.328
238.965
226.48
247.74
261.18
239.838
216.702
205.889
216.764
244.719
268.701
281.078
286.765
290.018
294.751
290.238
287.092
293.588
295.497
301.68
297.731
293.289
288.379
297.661
291.57
286.343
286.435
288.308
287.821
289.323
291.045
290.631
290.359
290.591
289.938
288.425
287.774
287.995
289.242
289.604
287.756
289.385
288.174
282.364
273.135
269.319
280.952
291.602
295.169
295.928
296.009
296.553
296.468
296.304
296.095
295.903
296.033
296.403
297.048
297.84
298.629
299.264
299.744
300.119
300.238
300.152
299.945
299.741
299.468
299.117
298.891
298.746
298.596
298.538
298.495
298.489
298.517
298.64
299.074
299.686
300.532
301.615
302.565
303.635
304.337
304.948
305.284
305.193
304.799
303.965
303.054
302.443
302.785
303.266
301.199
297.422
295.906
296.404
296.873
297.705
299.925
301.449
302.357
301.327
301.574
304.372
306.346
309.535
312.237
314.05
310.786
306.992
301.223
295.965
292.435
295.966
301.945
296.336
289.503
294.419
294.431
286.68
279.051
273.224
274.09
283.504
293.835
298.751
296.561
294.833
293.553
289.029
286.205
294.592
309.267
318.608
319.707
312.524
307.609
311.998
314.977
306.023
303.155
311.182
310.479
301.039
293.676
289.575
294.725
301.441
304.003
304.778
297.484
291.823
288.201
285.022
285.808
288.535
284.387
284.38
287.233
288.929
271.606
270.706
287.098
277.331
281.576
315.462
279.275
259.545
283.167
285.204
269.653
289.707
285.232
257.562
290.338
329.619
316.251
275.121
261.335
245.731
225.737
269.558
304.419
264.427
222.623
204.363
217.64
249.994
274.433
284.524
286.733
291.809
295.943
290.168
290.852
291.926
293.979
301.824
304.821
298.414
295.026
297.547
291.74
286.615
285.061
286.634
288.02
292.077
294.71
294.884
295.463
294.407
290.221
285.46
283.533
283.589
285.272
286.91
285.607
282.207
276.953
273.308
275.68
286.423
293.987
295.008
295.738
295.591
295.765
295.552
295.274
295.179
295.3
295.853
296.595
297.529
298.319
298.838
299.048
299.079
298.82
298.336
297.799
297.324
296.823
296.319
296.061
295.929
295.896
295.928
295.999
296.09
296.124
296.17
296.25
296.276
296.648
297.092
297.741
298.818
299.736
300.824
301.708
302.832
303.975
305.05
305.874
305.917
305.158
304.042
303.832
304.55
304.583
300.7
298.002
298.27
300.262
301.902
303.172
303.841
304.794
303.355
303.237
305.051
305.794
307.689
311.905
318.734
319.378
313.383
302.745
295.954
296.31
301.211
300.135
292.012
293.482
300.617
290.98
277.666
276.766
279.94
286.153
293.98
297.709
296.465
295.03
296.448
293.725
285.55
280.58
284.612
296.338
309.235
312.413
309.744
309.363
304.807
299.132
302.62
313.575
313.88
308.589
311.782
312.2
302.468
295.177
309.653
315.088
311.722
301.534
293.559
290.6
285.993
286.678
285.841
279.598
286.588
291.5
292.158
272.399
270.911
288.757
281.604
284.841
323.437
294.163
261.34
281.258
290.217
276.022
299.023
289.703
269.785
282.226
296.015
319.38
288.348
275.048
254.468
224.343
301.049
366.838
301.492
235.391
206.549
220.327
256.131
280.25
288.981
286.619
290.943
294.974
291.225
293.897
287.301
289.004
290.495
297.822
302.013
307.071
297.752
291.926
286.465
286.565
291.291
292.845
294.582
295.396
295.149
295.645
294.133
289.87
285.558
282.911
281.686
281.184
280.583
278.344
276.352
277.902
283.703
290.379
294.598
295.074
295.229
295.025
294.934
295.098
295.047
295.512
296.262
297.208
298.213
298.943
299.283
299.128
298.545
297.675
296.481
295.369
294.263
293.334
292.476
291.848
291.445
291.149
291.023
291.058
291.103
291.179
291.252
291.298
291.448
291.726
291.907
292.474
293.325
294.313
295.852
297.397
299.087
300.299
301.431
302.283
302.942
303.477
304.112
304.505
304.285
303.953
304.368
307.056
307.594
306.007
305.458
305.816
306.251
306.37
306.056
306.57
306.498
305.263
306.071
305.645
303.282
304.411
312.707
320.602
318.339
309.297
305.273
304.789
299.19
290.179
289.63
296.665
296.65
284.74
277.243
282.766
288.554
294.943
297.692
296.028
293.647
295.514
297.478
295.32
291.624
287.81
282.905
284.555
294.293
302.483
307.47
305.37
300.346
304.317
311.729
309.791
303.758
308.367
317.456
314.232
313.006
313.265
311.996
322.517
317.305
311.86
298.099
292.098
286.496
288.151
278.852
277.287
296.153
299.638
294.642
274.74
273.65
287.128
285.683
289.146
316.131
302.991
271.078
284.39
288.081
278.941
296.905
284.864
283.67
281.444
271.101
293.098
285.791
286.812
261.103
225.544
330.205
418.714
341.633
250.987
210.854
224.019
262.041
284.119
292.068
288.989
292.113
295.999
294.826
294.514
281.703
277.939
279.776
285.985
295.373
298.599
298.023
292.06
287.043
286.227
287.028
286.007
287.504
289.438
290.846
293.599
293.684
290.575
288.015
285.525
284.193
283.585
283.214
283.802
285.874
289.409
291.96
293.552
294.54
294.618
294.905
294.861
295.664
296.442
297.203
298.35
298.952
299.446
298.991
298.001
296.518
294.829
292.935
291.317
289.798
288.573
287.61
286.939
286.544
286.295
286.245
286.301
286.446
286.664
286.958
287.25
287.491
287.678
287.785
287.909
288.079
288.306
288.725
289.377
290.165
291.145
292.859
294.965
297.279
299.611
301.818
303.078
303.841
304.514
305.26
305.436
304.857
304.264
305.511
306.564
307.012
306.69
305.775
305.637
304.951
305.425
307.862
307.8
308.024
307.977
305.163
301.104
305.119
314.594
315.437
307.558
303.73
298.604
290.003
287.045
293.449
298.787
294.291
281.629
276.847
287.047
292.967
296.48
294.674
292.022
293.035
297.244
299.811
301.766
304.362
304.001
299.379
299.287
303.649
306.263
306.496
301.643
303.029
309.727
309.829
303.87
302.35
300.958
297.963
294.466
304.554
317.042
312.315
313.313
310.046
318.128
310.031
294.015
285.888
288.322
275.569
282.835
306.483
310.075
305.399
288.962
288.071
287.95
289.134
304.427
312.372
303.759
289.26
296.71
288.512
285.258
288.335
278.391
288.635
286.718
277.016
276.406
279.043
294.956
262.56
231.396
322.58
402.133
366.903
264.688
215.565
227.425
266.256
285.127
290.387
292.38
294.29
293.124
288.118
281.686
271.062
264.577
270.13
275.992
284.329
289.658
298.204
291.532
286.417
286.314
289.797
292.013
292.859
294.216
294.57
294.086
295.362
294.787
292.445
290.389
288.686
288.675
288.968
290.505
292.099
293.658
295.085
295.565
295.252
295.067
295.464
296.307
297.241
298.07
298.674
298.859
297.938
296.52
294.381
292.32
290.452
288.992
287.907
287.18
286.698
286.366
286.402
286.461
286.715
287.122
287.597
288.145
288.767
289.358
289.927
290.561
291.158
291.655
291.787
291.731
291.696
291.69
291.8
291.877
291.739
291.252
290.769
290.801
291.328
292.385
294.797
297.492
299.705
300.956
301.678
302.257
303.113
303.212
302.339
302.686
302.65
303.701
304.517
305.23
306.431
306.147
306.898
308.007
307.972
308.991
311.576
306.983
304.548
311.741
319.263
310.659
303.442
299.55
295.758
297.072
302.401
300.976
289.6
278.017
276.753
289.128
294.587
295.025
291.419
290.298
294.875
300.083
302.69
305.494
307.498
305.81
302.123
302.031
302.704
301.525
301.443
303.732
311.908
316.446
316.028
315.605
315.544
309.616
300.009
295.66
289.679
293.262
297.291
304.278
303.794
305.144
315.783
292.385
285.247
299.73
280.637
285.638
313.418
332.017
335.533
323.17
318.32
302.953
292.106
315.968
317.527
303.579
306.991
294.466
277.039
285.681
278.101
276.36
286.703
289.933
286.481
271.467
280.32
300.176
258.014
243.404
295.784
353.196
371.8
273.75
220.077
230.246
268.275
285.183
284.523
291.194
293.843
285.061
274.871
268.875
264.532
261.077
264.154
268.803
272.067
279.19
297.37
289.395
287.397
292.66
293.481
292.687
293.243
292.079
291.636
292.21
292.753
294.02
293.097
291.589
291.747
292.699
295.04
294.999
294.957
294.399
294.653
295.162
295.562
296.312
296.922
297.635
298.645
298.838
298.46
296.678
294.469
292.209
290.444
289.404
288.717
288.227
287.736
287.176
286.748
286.281
286.197
286.27
286.467
286.927
287.566
288.339
289.183
289.946
290.571
291.47
292.6
293.746
294.248
294.101
293.702
293.626
294.222
294.908
295.128
294.095
292.323
290.486
289.446
289.213
290.418
292.55
294.881
296.927
298.42
299.471
299.335
300.639
301.33
301.543
301.189
301.25
301.887
301.495
302.973
304.614
303.78
305.651
306.645
305.045
310.149
311.172
303.811
303.707
316.843
319.787
313.75
310.378
305.149
300.65
300.654
298.938
287.329
277.123
276.254
288.336
294.894
292.888
289.478
290.318
296.849
301.916
303.513
305.364
306.034
302.871
299.045
298.791
299.847
301.255
304.564
309.838
314.803
315.747
318.686
319.323
317.463
311.251
309.043
315.443
298.367
295.628
288.428
299.569
316.952
297.692
313.165
292.648
294.714
324.119
290.221
283.97
311.997
332.467
333.517
323.4
321.784
316.884
297.386
308.03
307.8
298.628
304.813
275.485
255.209
268.349
263.966
273.225
282.839
292.329
285.274
267.482
291.865
307.902
251.137
261.199
286.854
326.18
363.88
277.543
223.369
231.393
267.324
286.644
278.697
282.496
288.428
275.711
262.599
262.754
262.932
264.361
263.297
267.329
267.285
270.776
298.389
291.841
287.254
288.379
291.535
292.811
292.99
293.846
292.474
289.423
289.46
293.223
295.33
294.284
295.991
296.053
293.926
293.412
294.205
296.025
296.506
296.311
296.483
296.358
296.936
297.263
297.487
296.496
294.995
292.932
291.042
289.594
288.964
288.545
287.91
286.865
285.596
284.556
283.987
283.903
284.099
284.595
285.121
285.847
286.869
288.259
289.786
291.042
291.486
291.73
292.571
294.402
295.732
295.715
294.312
293.469
294.447
296.899
299.183
299.17
297.545
295.025
293.356
291.372
289.319
288.366
289.615
291.916
294.013
295.567
297.215
297.596
298.398
299.65
300.306
300.018
300.339
300.378
299.234
302.141
302.194
301.564
305.917
304.34
306.472
312.599
307.635
300.912
306.524
314.362
312.374
308.28
302.24
297.764
296.151
295.305
284.896
276.838
276.325
285.263
293.32
290.676
287.106
289.643
298.046
302.921
303.499
303.975
302.587
299.236
296.193
297.715
301.908
304.947
308
310.333
312.581
317.014
324.675
322.64
321.76
318.252
318.081
318.564
297.259
312.072
309.059
294.676
324.073
312.549
309.624
302.288
317.034
340.087
300.706
285.507
307.17
315.858
315.279
302.149
297.066
302.482
289.891
293.864
286.247
284.449
286.262
262.591
247.457
255.506
256.744
270.339
279.329
295.292
283.238
266.861
313.615
324.297
248.983
273.044
289.439
312.763
348.344
277.349
226.551
231.66
263.91
288.437
278.143
274.631
280.506
269.16
256.52
263.901
266.155
273.014
269.99
273.581
273.336
273.331
298.625
292.508
290.823
293.339
292.707
292.13
291.239
290.187
289.499
288.68
286.424
287.179
292.849
295.708
296.539
295.601
294.169
295.686
296.287
295.579
296.128
295.996
296.481
297.297
297.633
297.896
297.139
295.778
293.785
291.467
289.489
288.608
288.48
287.887
286.692
285.329
284.206
284.098
284.749
285.634
286.172
286.607
287.113
287.866
289.124
291.027
293.292
295.67
297.024
297.397
297.438
298.856
300.786
301.797
300.541
298.655
298.106
300.17
302.817
303.316
301.519
297.746
295.79
294.327
293.633
291.892
291.103
290.77
291.429
292.063
292.464
294.055
295.098
295.183
295.796
296.761
296.836
299.212
298.927
300.384
304.017
302.67
305.624
306.509
304.878
310.652
311.565
306.703
306.842
310.781
312.898
312.536
307.423
302.8
296.573
293.259
283.226
276.707
277.887
284.451
289.911
288.801
284.909
288.09
297.726
302.488
301.658
301.169
300.311
297.901
295.554
298.123
303.11
306.113
307.57
310.215
315.293
320.758
324.438
322.568
325.271
320.684
319.649
323.573
297.585
292.681
307.615
293.322
306.329
322.014
305.624
314.966
324.284
332.134
305.06
289.261
302.866
308.195
317.02
314.985
299.87
289.309
278.916
285.05
274.194
271.068
271.895
254.411
249.503
260.042
260.482
266.826
276.961
297.656
280.502
268.444
322.725
334.957
251.165
273.553
288.265
302.472
334.23
275.052
228.77
231.649
259.263
286.972
282.967
273.623
275.181
264.448
256.821
273.292
278.57
288.42
280.142
281.998
281.712
280.303
299.912
296.184
296.059
297.899
297.636
297.31
296.568
295.728
294.207
292.219
289.753
286.675
294.065
300.643
296.504
293.178
294.17
295.675
296.911
296.464
296.225
296.813
296.781
297.135
296.483
296.221
295.414
294.1
292.086
290.043
288.74
288.463
288.211
287.487
286.225
284.664
284.112
284.57
285.487
285.731
285.453
285.13
285.205
285.735
287.121
289.552
292.057
294.805
297.003
298.204
298.007
297.616
298.649
300.855
302.123
301.71
300.578
301.082
303.075
305.587
306.462
303.604
299
295.116
293.588
294.162
294.329
294.506
293.582
292.894
292.618
292.498
293.117
294.022
293.971
295.008
294.303
294.248
295.617
296.118
299.398
301.667
303.249
306.572
303.161
306.138
310.817
307.648
303.939
307.836
313.171
315.616
312.169
308.684
298.4
292.449
281.928
276.44
278.82
287.099
288.224
285.655
282.319
286.681
297.136
301.139
298.992
297.824
297.968
296.798
294.881
299.716
303.481
307.592
310.94
314.944
318.506
318.08
316.149
316.773
319.473
313.86
316.516
332.729
318.075
286.544
307.05
290.501
296.559
313.067
306.299
321.156
312.438
318.129
301.859
294.841
304.166
302.222
304.388
307.397
297.695
284.218
277.568
277.033
270.274
267.39
265.631
245.927
243.705
261.033
260.89
253.779
267.634
289.135
273.898
270.549
305.319
322.203
252.62
271.164
282.591
294.587
325.26
273.806
231.376
233.101
255.837
281.922
287.493
278.363
273.95
260.711
263.46
286.867
292.385
290.822
282.155
285.93
287.499
287.28
301.057
299.291
299.308
298.94
298.321
297.858
297.619
297.634
298.393
298.402
297.243
294.338
290.184
291.423
291.346
291.486
294.252
295.584
295.608
296.385
296.831
296.905
296.678
296.781
296.673
296.227
294.995
292.96
290.423
288.493
287.4
287.377
287.448
287.314
286.141
284.65
284.253
284.849
285.388
285.234
284.994
285.15
285.491
285.867
287.502
291.527
295.804
298.763
300.402
301.383
302.287
302.038
301.143
300.465
301.147
301.949
301.316
300.08
298.253
299.209
302.368
306.414
306.063
302.811
299.064
297.503
298.018
299.482
300.264
299.987
299.91
298.827
297.551
296.172
294.202
293.399
294.18
293.544
292.882
293.323
293.525
297.701
298.233
302.999
303.439
303.349
307.36
310.043
304.292
302.2
305.396
311.217
313.115
313.447
302.054
292.802
282.172
275.771
278.686
289.2
290.439
284.168
279.84
283.687
295.546
300.355
296.127
294.08
295.34
292.823
294.577
302.797
307.336
310.777
312.79
315.004
318.443
318.314
316.155
313
316.365
314.399
308.282
311.833
317.414
289.159
297.665
298.285
309.935
305.522
306.53
321.201
314.117
318.979
305.758
307.654
307.534
301.665
300.254
293.301
281.794
276.955
279.148
271.567
266.65
266.631
269.35
253.444
239.071
252.801
261.125
247.207
257.68
274.61
265.749
269.384
285.728
301.71
253.878
271.328
280.444
289.329
319.335
273.441
233.346
235.441
254.521
275.736
287.84
284.433
274.257
257.674
270.431
292.382
295.299
280.731
275.419
278.003
283.47
292.904
301.383
300.039
298.959
297.22
296.153
295.485
294.77
294.347
293.693
293.482
293.107
293.671
292.894
291.366
290.609
289.747
290.438
293.397
295.227
295.299
295.895
296.428
296.801
296.819
296.714
296.319
295.463
294.123
292.136
289.931
288.207
287.674
287.686
287.647
286.492
285.237
284.428
284.342
284.313
284.561
284.88
285.76
286.038
285.05
285.26
289.055
294.58
298.539
300.284
300.399
300.897
302.11
302.925
302.421
301.492
302.42
303.841
304.798
303.872
301.275
298.69
298.921
302.816
305.336
305.464
303.263
301.03
300.062
301.926
303.151
305.325
305.537
304.825
302.914
301.45
299.741
296.845
294.913
291.908
292.674
290.097
293.834
295.584
297.983
302.34
302.644
301.143
307.687
308.586
305.531
300.938
304.76
310.378
315.421
307.631
293.791
283.947
274.662
277.199
288.938
294.471
286.54
279.892
280.35
290.723
299.465
295.372
290.791
291.367
289.59
296.91
306.469
313.671
318.175
318.834
316.468
317.736
316.856
314.679
304.431
305
305.774
304.173
306.761
311.449
287.907
283.272
290.254
312.744
308.114
305.764
320.318
319.842
326.959
326.074
323.557
303.284
294.457
293.139
286.545
277
279.404
284.923
274.153
269.128
265.013
265.638
264.449
245.616
249.871
263.753
249.521
254.039
265.122
260.245
264.504
277.074
290.88
260.286
276.342
281.472
285.071
315.001
274.008
235.597
238.331
256.42
270.795
285.637
290.657
275.917
255.898
272.753
286.67
286.379
270.999
265.628
265.259
269.007
286.421
301.246
299.384
297.466
296.826
297.64
297.831
298.226
298.235
298.532
298.218
296.903
295.229
294.245
292.487
290.938
290.209
289.29
289.626
292.453
294.202
294.915
295.344
296.043
296.543
296.891
297.015
296.94
296.336
295.192
293.175
290.462
287.967
286.908
287.235
287.54
286.609
285.139
284.129
284.014
284.19
284.425
285.468
286.073
284.35
283.846
288.247
294.448
297.999
299.52
300.09
299.869
299.685
300.346
301.61
300.815
299.437
300.212
301.495
304.006
304.708
304.154
301.714
301.066
302.346
305.154
305.119
304.917
301.364
301.265
301.583
303.566
304.904
306.754
307.665
306.029
304.784
301.652
301.392
295.799
294.367
290.01
289.133
293.676
294.064
298.287
304.67
300.134
299.531
303.646
308.855
302.376
301.386
305.928
314.011
313.88
296.969
286.59
275.253
274.232
285.096
296.291
291.697
284.302
280.243
284.451
294.894
295.026
291.823
288.729
289.471
295.652
301.176
308.373
316.714
321.581
318.845
318.526
318.394
318.107
310.344
306.061
300.352
300.32
305.656
309.043
292.558
298.553
288.082
303.183
299.877
305.867
321.02
310.89
321.389
335.192
315.219
290.191
286.196
282.09
276.644
273.516
282.833
292.556
279.854
272.914
259.24
247.7
247.296
242.523
246.808
261.169
248.051
251.847
258.795
254.944
261.764
270.769
285.537
273.092
286.026
283.7
280.979
311.324
274.618
237.429
240.784
260.665
267.968
283.693
295.247
278.491
255.304
270.207
279.955
276.239
270.409
263.332
261.459
263.483
281.099
300.917
298.422
297.31
298.497
298.506
297.45
296.524
296.465
296.936
297.674
297.769
297.012
296.068
294.203
291.927
290.88
290.081
288.757
289.406
291.622
293.502
294.322
294.754
294.957
295.446
295.983
296.586
297.04
297.111
296.626
295.044
292.228
289.283
287.192
286.417
286.322
285.966
285.26
284.57
284.973
285.269
285.496
287.271
285.74
283.161
287.07
294.788
298.298
298.537
298.534
299.889
300.19
299.907
301.365
302.494
302.243
301.858
300.694
299.854
301.033
302.143
302.891
303.175
301.546
303.264
303.337
305.614
304.888
303.925
302.435
302.945
304.736
302.949
301.415
300.597
304.672
305.148
306.754
301.995
297.185
293.722
286.578
290.718
294.423
292.843
300.329
304.818
299.866
297.847
306.3
303.86
300.659
300.957
307.757
316.082
302.329
289.274
277.719
271.873
278.776
292.426
294.146
289.405
283.968
282.366
289.678
292.72
293.469
288.367
288.463
291.208
296.188
304.595
313.797
320.004
319.763
316.126
315.299
315.252
311.252
305.029
299.427
297.933
300.33
305.712
285.865
281.898
293.471
312.881
298.307
300.673
322.853
306.305
309.603
322.544
309.245
288.46
285.431
280.818
275.277
271.286
290.996
305.406
277.258
262.269
250.935
244.419
238.243
234.828
238.786
253.798
244.831
250.161
254.764
249.688
258.67
261.934
276.578
287.614
297.715
286.261
277.852
307.374
276.149
239.644
243.465
264.502
267.218
282.251
294.935
279.695
256.01
267.417
276.95
270.691
272.043
270.336
268.368
267.653
278.205
300.665
298.631
299.047
298.731
297.198
297.182
295.974
295.58
296.423
297.339
297.735
297.731
297.019
295.553
293.503
292.168
291.288
289.646
288.571
289.063
290.49
291.726
292.749
293.221
293.484
293.617
293.862
294.162
294.748
295.719
295.963
295.543
293.726
290.927
288.551
287.209
287.27
287.225
286.073
285.922
285.862
285.45
288.604
288.151
283.649
284.696
291.542
295.084
296.469
296.087
297.326
299.072
299.488
299.64
298.558
299.021
299.701
299.233
298.09
298.692
298.747
299.474
300.506
301.126
301.316
301.858
302.535
303.15
302.143
304.25
305.279
308.338
306.307
301.754
297.057
297.65
300.509
305.253
306.551
298.48
297.069
290.737
286.807
294.038
294.134
293.028
302.384
303.779
297.074
302.281
304.41
303.298
301.617
303.621
315.109
307.7
292.293