/*--------------------------------*- C++ -*----------------------------------*\
| =========                 |                                                 |
| \\      /  F ield         | OpenFOAM: The Open Source CFD Toolbox           |
|  \\    /   O peration     | Version:  dev                                   |
|   \\  /    A nd           | Web:      http://www.openfoam.org               |
|    \\/     M anipulation  |                                                 |
\*---------------------------------------------------------------------------*/
FoamFile
{
    version     2.0;
    format      ascii;
    class       volVectorField;
    object      U;
    location    "9.137";
}
// * * * * * * * * * * * * * * * * * * * * * * * * * * * * * * * * * * * * * //

dimensions      [0 1 -1 0 0 0 0];

internalField   nonuniform List<vector> 
12225
(
(8.01517 0.610757 0)
(7.31218 0.353973 0)
(7.31312 0.17109 0)
(8.91781 0.123112 0)
(9.753 0.12866 0)
(12.082 0.0826004 0)
(12.9282 0.12432 0)
(14.9204 0.0610931 0)
(15.6208 0.140999 0)
(17.9113 -0.0674573 0)
(18.7281 0.149544 0)
(20.5421 -0.0294507 0)
(21.455 0.124989 0)
(24.9632 -0.433635 0)
(29.2082 -0.234102 0)
(31.1505 1.47397 0)
(40.4616 -6.77583 0)
(42.5301 3.78976 0)
(10.7 1.49917 0)
(12.3584 1.33658 0)
(11.6121 0.993366 0)
(13.5336 0.695918 0)
(12.4519 0.568589 0)
(15.7306 0.4147 0)
(14.8126 0.515249 0)
(17.7276 0.30239 0)
(16.8311 0.426895 0)
(20.7833 -0.0514086 0)
(19.5642 0.412066 0)
(23.0432 -0.187254 0)
(22.6799 -0.393893 0)
(29.9762 -2.00343 0)
(28.8079 -0.475416 0)
(42.7848 -4.37194 0)
(37.9053 -4.8001 0)
(61.8993 -16.1649 0)
(10.5535 1.83907 0)
(14.8312 1.89392 0)
(13.773 1.6524 0)
(17.7119 1.32779 0)
(15.4089 1.21965 0)
(19.9716 0.850411 0)
(17.8893 1.14148 0)
(21.799 0.721854 0)
(19.4494 0.734316 0)
(25.1138 0.0353953 0)
(22.427 1.08009 0)
(26.6363 -0.312582 0)
(27.0331 -0.75406 0)
(30.7493 -2.11268 0)
(32.6023 -2.94602 0)
(38.9373 -3.52853 0)
(40.9051 -8.62847 0)
(43.9329 -16.6482 0)
(8.84407 2.13734 0)
(16.1838 2.20076 0)
(13.3707 2.0878 0)
(19.8317 1.80803 0)
(17.0939 1.89133 0)
(22.5663 1.14223 0)
(20.3554 1.64225 0)
(25.2638 1.14422 0)
(21.4755 1.10381 0)
(28.8637 -0.237216 0)
(25.3962 1.01771 0)
(31.8818 -0.420215 0)
(30.5714 -0.0926172 0)
(35.0342 -2.7688 0)
(29.4817 -3.20633 0)
(40.2467 -6.59299 0)
(41.8445 -9.91989 0)
(44.1956 -10.9674 0)
(6.53934 2.62047 0)
(17.8741 2.67672 0)
(12.6984 2.6713 0)
(21.2707 1.66785 0)
(17.8559 2.54127 0)
(23.7128 1.28973 0)
(19.7332 2.23769 0)
(27.3578 1.97679 0)
(23.3782 1.4614 0)
(29.8435 -0.0778455 0)
(21.0265 2.10093 0)
(33.7743 -1.94888 0)
(33.6758 0.0706393 0)
(35.3607 -0.484616 0)
(24.2262 -2.83376 0)
(38.9557 -11.4977 0)
(34.5715 -11.3979 0)
(43.3025 -9.57942 0)
(5.26843 3.39822 0)
(16.8984 2.12015 0)
(14.5826 3.3256 0)
(21.7458 2.17858 0)
(18.2013 3.30359 0)
(23.0385 2.32635 0)
(19.3374 2.34311 0)
(27.3088 1.12279 0)
(26.1595 1.87366 0)
(26.0469 2.50263 0)
(22.9526 0.472373 0)
(31.9538 -4.35984 0)
(28.1335 0.362285 0)
(34.9132 1.43219 0)
(29.7106 -4.09251 0)
(34.9111 -11.0219 0)
(23.3298 -10.9564 0)
(42.0358 -11.7711 0)
(7.25726 4.55964 0)
(13.2519 1.51461 0)
(12.4046 2.99059 0)
(20.6868 2.40821 0)
(14.9556 4.41802 0)
(24.4101 2.5999 0)
(21.0679 2.8479 0)
(27.0485 1.30679 0)
(22.0073 3.95087 0)
(28.2529 2.67655 0)
(29.3131 0.718372 0)
(28.1517 -1.30112 0)
(22.6781 1.09961 0)
(34.5226 0.120514 0)
(33.1161 -0.742546 0)
(31.6853 -8.7031 0)
(24.3165 -8.41242 0)
(32.2661 -17.1737 0)
(9.36038 5.40071 0)
(13.5961 2.59292 0)
(11.3334 3.11798 0)
(17.8036 3.39412 0)
(13.8982 4.44509 0)
(21.9977 1.98256 0)
(19.5413 3.24515 0)
(24.9271 2.45635 0)
(19.5021 3.88961 0)
(29.6943 1.41197 0)
(26.5558 2.26482 0)
(28.5019 -0.456366 0)
(26.6743 -0.907574 0)
(28.8607 -2.60684 0)
(32.088 -0.929206 0)
(33.0729 -6.10195 0)
(28.1031 -6.03982 0)
(18.8411 -14.5421 0)
(10.4531 5.96192 0)
(14.2169 3.37075 0)
(12.889 3.84229 0)
(16.9477 3.63114 0)
(16.4391 4.59324 0)
(19.6062 2.54713 0)
(16.7068 4.06828 0)
(21.9439 2.85855 0)
(21.1591 3.66611 0)
(26.8965 0.670572 0)
(26.3326 2.99255 0)
(29.9766 0.217201 0)
(27.312 1.27354 0)
(28.2526 -3.35887 0)
(30.3846 -1.29262 0)
(32.3372 -5.61881 0)
(28.4369 -3.32349 0)
(26.2265 -9.20769 0)
(10.8216 6.1046 0)
(13.1046 3.96535 0)
(13.8878 4.1451 0)
(16.7678 4.12846 0)
(17.6821 5.39337 0)
(19.228 3.95645 0)
(17.4185 4.5316 0)
(21.4401 2.17549 0)
(21.8397 3.24855 0)
(25.1029 0.687662 0)
(24.7287 2.64401 0)
(28.5269 0.56094 0)
(25.9858 2.04194 0)
(30.3402 -2.13534 0)
(28.2806 -1.83165 0)
(30.6255 -4.59998 0)
(27.8008 -3.08617 0)
(29.8269 -8.11757 0)
(11.3971 6.76325 0)
(12.7588 4.58131 0)
(14.3934 5.10916 0)
(15.8077 4.45316 0)
(17.787 5.93648 0)
(19.361 4.85237 0)
(20.57 5.01886 0)
(21.6602 3.15755 0)
(22.7685 3.64282 0)
(23.6096 1.56814 0)
(24.1091 3.12936 0)
(25.7719 1.04133 0)
(27.052 1.37456 0)
(27.9062 -2.62847 0)
(27.7859 -1.28488 0)
(28.5027 -3.20937 0)
(28.1557 -2.26669 0)
(27.7909 -4.23845 0)
(11.594 6.87775 0)
(12.7708 5.61104 0)
(14.7479 5.77 0)
(15.5741 5.26619 0)
(17.6157 6.28949 0)
(18.763 5.16881 0)
(21.2639 5.72131 0)
(21.8707 3.71717 0)
(23.3776 4.14784 0)
(23.4732 2.30001 0)
(24.5215 2.85443 0)
(25.572 0.834194 0)
(26.8823 1.36054 0)
(27.2449 -0.541024 0)
(26.6725 -0.897074 0)
(27.0228 -2.34717 0)
(27.094 -2.46768 0)
(27.204 -3.48817 0)
(10.9503 7.63744 0)
(12.7343 6.24862 0)
(14.613 6.61756 0)
(15.8029 6.00176 0)
(17.5489 6.70449 0)
(18.8543 5.70984 0)
(20.6407 5.74279 0)
(21.799 4.4554 0)
(22.8916 4.57124 0)
(23.6513 3.32812 0)
(24.409 3.25874 0)
(25.1586 1.95439 0)
(25.5974 1.67964 0)
(26.0772 0.177324 0)
(26.138 -0.291668 0)
(26.0965 -1.20778 0)
(25.9841 -1.84171 0)
(25.8955 -2.68332 0)
(10.9606 8.07875 0)
(12.6129 7.07946 0)
(14.1404 7.10415 0)
(15.5425 6.81624 0)
(17.1713 7.14772 0)
(18.6364 6.37889 0)
(20.0784 6.31321 0)
(21.101 5.27155 0)
(22.015 5.17221 0)
(22.7629 4.00171 0)
(23.4028 3.68503 0)
(24.0454 2.57044 0)
(24.4867 2.07465 0)
(24.8585 1.27961 0)
(25.0033 0.572748 0)
(25.0427 -0.280315 0)
(25.1039 -1.00292 0)
(25.0005 -1.66977 0)
(11.1219 8.77536 0)
(12.666 7.99891 0)
(14.165 7.90877 0)
(15.4927 7.5176 0)
(16.9202 7.42047 0)
(18.2475 6.92232 0)
(19.4726 6.62154 0)
(20.543 6.05623 0)
(21.4361 5.66593 0)
(22.2491 4.8821 0)
(22.8438 4.27664 0)
(23.3498 3.51286 0)
(23.6809 2.76388 0)
(23.9205 1.99877 0)
(24.1102 1.25087 0)
(24.1958 0.54603 0)
(24.123 -0.111143 0)
(24.0002 -0.783095 0)
(10.8826 9.3967 0)
(12.4292 8.58892 0)
(14.0069 8.36634 0)
(15.3927 8.12672 0)
(16.6351 7.94722 0)
(17.7635 7.50537 0)
(18.8057 7.14065 0)
(19.8139 6.61105 0)
(20.7001 6.13691 0)
(21.4755 5.46955 0)
(22.1092 4.86722 0)
(22.5859 4.18259 0)
(22.9211 3.49871 0)
(23.1226 2.84624 0)
(23.2278 2.2015 0)
(23.2344 1.53636 0)
(23.1668 0.926132 0)
(23.0545 0.310792 0)
(10.8849 9.81567 0)
(12.2041 8.89134 0)
(13.6288 8.64921 0)
(14.9489 8.46798 0)
(16.1801 8.2188 0)
(17.3038 7.80735 0)
(18.3026 7.363 0)
(19.2259 6.85484 0)
(20.0248 6.32656 0)
(20.6895 5.77689 0)
(21.2216 5.24143 0)
(21.6109 4.65681 0)
(21.8897 4.06975 0)
(22.0653 3.46208 0)
(22.152 2.86918 0)
(22.1644 2.27973 0)
(22.1119 1.71166 0)
(22.02 1.14443 0)
(11.078 9.72717 0)
(12.3841 8.85721 0)
(13.6391 8.55475 0)
(14.8354 8.30773 0)
(15.9494 8.02604 0)
(16.9625 7.7112 0)
(17.8453 7.35523 0)
(18.6184 6.93464 0)
(19.2655 6.48256 0)
(19.8127 6.00088 0)
(20.2591 5.52246 0)
(20.6028 4.99607 0)
(20.8599 4.48493 0)
(21.0459 3.93578 0)
(21.1705 3.39814 0)
(21.199 2.87198 0)
(21.1564 2.35646 0)
(21.0832 1.8443 0)
(10.8994 9.10505 0)
(12.115 8.35899 0)
(13.2841 8.16961 0)
(14.3636 7.93431 0)
(15.3281 7.63834 0)
(16.2596 7.32557 0)
(17.1122 7.00762 0)
(17.8545 6.63551 0)
(18.4855 6.24365 0)
(19.0355 5.79593 0)
(19.4729 5.31136 0)
(19.8079 4.81257 0)
(20.0555 4.32381 0)
(20.2101 3.83805 0)
(20.3045 3.38148 0)
(20.3463 2.9313 0)
(20.3084 2.50492 0)
(20.2293 2.10171 0)
(10.6957 8.44365 0)
(11.9237 7.69918 0)
(13.1049 7.42248 0)
(14.1739 7.17342 0)
(15.1271 6.91224 0)
(16.0315 6.64172 0)
(16.8144 6.36933 0)
(17.5123 6.06466 0)
(18.1061 5.72213 0)
(18.5719 5.35993 0)
(18.9538 4.94799 0)
(19.2202 4.54032 0)
(19.3944 4.1245 0)
(19.504 3.70911 0)
(19.5293 3.3251 0)
(19.5292 2.92641 0)
(19.4848 2.53625 0)
(19.3988 2.15834 0)
(10.6873 7.47104 0)
(11.8574 6.66492 0)
(12.9847 6.46528 0)
(14.0081 6.32684 0)
(14.9295 6.11454 0)
(15.7538 5.87119 0)
(16.4705 5.60595 0)
(17.1437 5.35049 0)
(17.7042 5.0744 0)
(18.1772 4.79553 0)
(18.5673 4.46993 0)
(18.8389 4.11517 0)
(19.0355 3.74807 0)
(19.1743 3.37106 0)
(19.2402 3.00685 0)
(19.2456 2.66167 0)
(19.2179 2.33304 0)
(19.1487 1.99634 0)
(10.8098 6.68594 0)
(11.8438 5.80063 0)
(12.9086 5.53934 0)
(13.9187 5.39712 0)
(14.8166 5.22906 0)
(15.593 5.05089 0)
(16.2467 4.82013 0)
(16.819 4.58507 0)
(17.3216 4.35464 0)
(17.7751 4.09105 0)
(18.1757 3.82436 0)
(18.4791 3.52641 0)
(18.7116 3.21604 0)
(18.8453 2.92576 0)
(18.9158 2.60582 0)
(18.9313 2.32762 0)
(18.8851 2.05115 0)
(18.7957 1.7814 0)
(10.9833 5.56743 0)
(12.087 4.96175 0)
(13.0653 4.67887 0)
(13.9516 4.5111 0)
(14.7819 4.37709 0)
(15.5393 4.23094 0)
(16.2199 4.05499 0)
(16.7744 3.8513 0)
(17.2448 3.64129 0)
(17.656 3.40006 0)
(17.991 3.16537 0)
(18.2441 2.90885 0)
(18.4298 2.66846 0)
(18.5297 2.43338 0)
(18.5815 2.19714 0)
(18.582 1.97583 0)
(18.5476 1.73992 0)
(18.4766 1.51277 0)
(10.7285 4.59845 0)
(11.7934 4.05784 0)
(12.9 3.78973 0)
(13.9192 3.62527 0)
(14.8076 3.49453 0)
(15.5876 3.38125 0)
(16.2523 3.26306 0)
(16.7693 3.13181 0)
(17.2194 2.97501 0)
(17.5974 2.78853 0)
(17.8858 2.59727 0)
(18.1241 2.37079 0)
(18.2691 2.17947 0)
(18.3563 1.9598 0)
(18.4189 1.76248 0)
(18.4078 1.57986 0)
(18.39 1.37405 0)
(18.3291 1.19521 0)
(10.5621 3.79615 0)
(11.8289 3.18814 0)
(13.0301 2.88632 0)
(14.0423 2.74152 0)
(14.8918 2.6531 0)
(15.6248 2.57998 0)
(16.267 2.51384 0)
(16.8073 2.43526 0)
(17.2933 2.31379 0)
(17.7106 2.17664 0)
(18.0311 2.0135 0)
(18.302 1.84087 0)
(18.4565 1.67452 0)
(18.5696 1.49876 0)
(18.6265 1.33958 0)
(18.6095 1.18335 0)
(18.5823 1.02514 0)
(18.4819 0.887104 0)
(10.6969 2.64834 0)
(11.939 2.19928 0)
(13.157 2.03152 0)
(14.1807 1.94495 0)
(15.0036 1.90129 0)
(15.7019 1.86867 0)
(16.3196 1.82266 0)
(16.832 1.766 0)
(17.2882 1.67135 0)
(17.6752 1.56835 0)
(17.9862 1.45123 0)
(18.2251 1.31543 0)
(18.3846 1.1939 0)
(18.4933 1.05738 0)
(18.5194 0.942752 0)
(18.4896 0.830258 0)
(18.4091 0.73197 0)
(18.2739 0.639147 0)
(10.4991 1.69191 0)
(11.978 1.33514 0)
(13.4188 1.26414 0)
(14.4848 1.23441 0)
(15.2327 1.2376 0)
(15.8233 1.24007 0)
(16.3256 1.22408 0)
(16.7502 1.1911 0)
(17.0929 1.13587 0)
(17.3502 1.07055 0)
(17.5233 0.989664 0)
(17.6072 0.898194 0)
(17.6311 0.809919 0)
(17.5753 0.718056 0)
(17.4766 0.635744 0)
(17.3148 0.568821 0)
(17.1291 0.504571 0)
(16.91 0.442711 0)
(10.6377 0.909122 0)
(12.193 0.520791 0)
(13.4092 0.568361 0)
(14.1117 0.642466 0)
(14.5123 0.70346 0)
(14.7808 0.751088 0)
(14.9777 0.762237 0)
(15.1184 0.763245 0)
(15.2023 0.744953 0)
(15.2653 0.718077 0)
(15.2747 0.675357 0)
(15.211 0.621044 0)
(15.0865 0.56352 0)
(14.9017 0.506726 0)
(14.6898 0.471453 0)
(14.4303 0.43002 0)
(14.1692 0.377509 0)
(13.9096 0.340275 0)
(10.7067 0.00773885 0)
(11.4293 -0.258428 0)
(11.7262 -0.0364836 0)
(11.6248 0.182149 0)
(11.482 0.355664 0)
(11.3958 0.469524 0)
(11.3878 0.516157 0)
(11.4002 0.528339 0)
(11.4377 0.515837 0)
(11.4706 0.488085 0)
(11.4634 0.45341 0)
(11.4178 0.417304 0)
(11.3315 0.38529 0)
(11.2201 0.351377 0)
(11.0707 0.319897 0)
(10.8861 0.287088 0)
(10.706 0.237675 0)
(10.5071 0.203608 0)
(8.87371 -0.169908 0)
(7.40723 -0.0990167 0)
(6.64545 0.139364 0)
(6.43413 0.237256 0)
(6.65938 0.263152 0)
(7.06603 0.257553 0)
(7.52754 0.238482 0)
(7.95949 0.221922 0)
(8.34434 0.20362 0)
(8.65465 0.186704 0)
(8.89649 0.175487 0)
(9.06877 0.162493 0)
(9.17595 0.148982 0)
(9.22438 0.134979 0)
(9.2072 0.120579 0)
(9.14228 0.107022 0)
(9.03494 0.0772405 0)
(8.82722 0.0594898 0)
(-0.212932 -0.58711 0)
(-0.549273 -0.760363 0)
(-0.575103 -1.08736 0)
(-0.341084 -1.32547 0)
(0.0271436 -1.4747 0)
(0.463834 -1.53136 0)
(0.918253 -1.52989 1.13443e-17)
(1.34932 -1.49181 -1.12442e-17)
(1.74231 -1.4095 0)
(2.06103 -1.30793 -1.10547e-17)
(2.28931 -1.20264 0)
(2.42936 -1.07757 0)
(2.45768 -0.924245 0)
(2.30991 -0.736322 1.06904e-17)
(2.01222 -0.566288 0)
(1.54739 -0.426281 0)
(0.92303 -0.26233 -1.04212e-17)
(0.179438 -0.148195 0)
(-0.717144 -0.058006 0)
(-1.6783 0.022428 0)
(-2.65194 -0.0546006 1.0121e-17)
(-3.72262 -0.151369 0)
(-4.70824 -0.198027 9.99814e-18)
(-5.45555 -0.316014 0)
(-6.07654 -0.456776 0)
(-6.67937 -0.575077 9.96345e-18)
(-7.34945 -0.630594 0)
(-8.12367 -0.527509 -9.78402e-18)
(-8.9356 -0.381489 0)
(-9.54287 -0.348638 9.55088e-18)
(-9.86983 -0.406195 0)
(-10.1056 -0.640996 0)
(-10.4423 -1.04216 0)
(-10.9102 -1.35769 0)
(-11.4595 -1.41334 0)
(-12.1234 -1.16916 -9.51124e-18)
(-13.0125 -0.726421 0)
(-14.1343 -0.279819 1.88941e-17)
(-15.4015 0.0179432 0)
(-16.7278 0.185722 -1.86518e-17)
(-18.0546 0.281326 0)
(-19.3592 0.330363 0)
(-20.6181 0.346596 1.82379e-17)
(-21.807 0.347217 0)
(-22.9187 0.341349 1.79649e-17)
(-23.9383 0.330053 -1.78311e-17)
(-24.8464 0.310143 0)
(-25.6352 0.281268 -1.75693e-17)
(-26.3081 0.253327 -1.74415e-17)
(-26.8595 0.225403 0)
(-27.2987 0.194988 0)
(-27.6216 0.165622 0)
(-27.8252 0.147678 0)
(-27.9055 0.110876 0)
(-27.889 0.0953005 1.67066e-17)
(-27.8032 0.0687892 0)
(-27.5656 0.0735752 -1.64689e-17)
(-27.2371 0.0663916 0)
(-26.895 0.085195 0)
(-26.5018 0.109552 1.61176e-17)
(-26.0739 0.150263 0)
(-25.6214 0.169728 -1.58877e-17)
(-25.1285 0.203656 0)
(-24.5804 0.24092 0)
(-24.0019 0.275468 0)
(-23.4075 0.318589 1.54291e-17)
(-22.7599 0.344364 0)
(-22.0438 0.364044 0)
(-21.3041 0.382982 1.50826e-17)
(-20.5684 0.406457 0)
(-19.7713 0.449839 1.48595e-17)
(-18.9677 0.488681 0)
(-18.2133 0.522921 0)
(-17.4449 0.55242 0)
(-16.6367 0.575489 -1.44362e-17)
(-15.7697 0.588877 0)
(-14.8391 0.605332 0)
(-13.9143 0.623617 -1.40988e-17)
(-13.0099 0.665998 -1.39908e-17)
(-12.1121 0.670788 0)
(-11.2202 0.687418 -1.37658e-17)
(-10.2677 0.68358 0)
(-9.2499 0.679592 -2.70994e-17)
(-8.22264 0.685405 0)
(-7.19747 0.683671 -2.66866e-17)
(-6.17523 0.700133 0)
(-5.1611 0.701165 2.62427e-17)
(-4.21534 0.763982 0)
(-3.40406 0.811336 0)
(-2.73228 0.88415 0)
(-2.24323 0.960961 -2.55126e-17)
(-1.90045 1.0584 0)
(-1.64083 1.13183 2.49301e-17)
(-1.44425 1.17811 0)
(-1.16354 1.15112 -2.44089e-17)
(-0.725486 1.13333 -2.42624e-17)
(-0.26527 1.11151 -2.41031e-17)
(0.0889763 1.1297 0)
(0.588815 1.0465 0)
(1.35604 1.02365 0)
(2.05136 1.1456 0)
(2.30791 1.39292 0)
(2.05454 1.5444 0)
(1.36079 1.58022 0)
(1.44991 1.71373 0)
(1.923 1.23829 2.22298e-17)
(2.31623 0.268484 2.23859e-17)
(2.25808 0.855366 0)
(0.538043 2.42334 0)
(-1.20294 2.64132 0)
(-2.28764 2.35956 2.29625e-17)
(-3.36849 2.35078 0)
(-4.87406 2.51036 0)
(-6.65729 2.5452 0)
(-8.5016 2.40216 0)
(-9.93819 2.30078 -2.21921e-17)
(-10.5034 2.28356 0)
(-10.2954 2.13111 0)
(-9.81656 1.8831 2.19355e-17)
(-8.86763 1.64726 -2.17136e-17)
(-7.58851 1.50533 0)
(-5.69366 1.45216 -2.13267e-17)
(-4.7436 2.11322 0)
(-4.84655 2.73166 2.07397e-17)
(-5.99554 2.56816 0)
(-6.35852 3.08483 0)
(-8.27232 2.81678 0)
(-8.48968 2.53523 0)
(-8.43969 2.71034 0)
(-8.78128 2.91396 -3.95402e-17)
(-9.71483 2.92829 -3.92129e-17)
(-10.7692 2.87786 0)
(-11.9489 2.87476 0)
(-12.7245 2.87423 0)
(-13.3854 2.97017 3.76559e-17)
(-14.0543 3.0393 0)
(-14.3358 3.02891 0)
(-14.7833 3.14013 0)
(-15.358 3.27157 3.6137e-17)
(-16.1056 3.28 -3.57081e-17)
(-16.5403 3.21887 0)
(-16.4459 3.34586 0)
(-16.1683 3.4299 -3.46922e-17)
(-15.9529 3.4604 -3.43385e-17)
(-15.1314 3.41001 0)
(-14.5799 3.57104 0)
(-14.1031 3.48471 3.34247e-17)
(-13.0939 3.51183 -3.31917e-17)
(-11.8958 3.4781 0)
(-10.8141 3.52078 0)
(-9.13895 3.57085 -3.22611e-17)
(-7.24632 3.55735 0)
(-6.4073 3.4512 0)
(-4.32857 3.40499 -3.11593e-17)
(-1.32316 3.51299 0)
(0.152204 3.74152 -3.09247e-17)
(0.425633 3.90689 0)
(0.896701 3.88447 0)
(1.34175 3.87042 0)
(1.93502 3.66423 2.92317e-17)
(4.11027 3.48884 0)
(6.89709 3.78931 0)
(8.52377 3.93067 0)
(9.33031 3.81402 0)
(10.5751 3.56436 0)
(13.2293 3.35366 0)
(16.4919 3.36286 2.91562e-17)
(19.0344 3.43841 2.95172e-17)
(20.6191 3.47606 0)
(21.0542 3.33347 0)
(20.6431 3.18939 0)
(19.9383 3.3243 -3.06021e-17)
(18.5949 3.18527 0)
(16.7276 3.2709 6.07918e-17)
(14.5909 3.29893 -6.03505e-17)
(12.9308 3.15381 -5.99936e-17)
(11.972 2.97327 5.97651e-17)
(10.8532 2.75159 -5.94736e-17)
(9.72361 2.68874 5.91818e-17)
(10.0829 2.3287 0)
(-0.154816 -2.04116 0)
(-0.248412 -2.6268 0)
(-0.0233504 -3.58288 -2.37325e-17)
(0.313473 -4.19027 0)
(0.702284 -4.52558 2.3115e-17)
(1.08442 -4.63513 2.28788e-17)
(1.46281 -4.59405 1.13407e-17)
(1.79586 -4.50171 1.12432e-17)
(2.10552 -4.3237 0)
(2.38311 -4.0333 1.10756e-17)
(2.60148 -3.77135 0)
(2.74031 -3.49706 0)
(2.76636 -3.05445 -2.15936e-17)
(2.71112 -2.61261 -1.07059e-17)
(2.52689 -2.2274 2.11394e-17)
(2.17795 -1.70685 2.09485e-17)
(1.67353 -1.34194 1.03814e-17)
(1.09633 -1.05582 0)
(0.378849 -0.69157 0)
(-0.449679 -0.675576 0)
(-1.33774 -0.549201 9.8715e-18)
(-2.2507 -0.304336 0)
(-2.94495 -0.731552 -2.94914e-17)
(-3.7313 -1.38366 0)
(-4.68143 -1.56069 0)
(-5.46187 -1.37193 -9.45628e-18)
(-5.83112 -1.135 0)
(-5.85845 -0.802336 9.51728e-18)
(-6.02246 -0.94581 1.93488e-17)
(-6.42286 -2.02296 -9.4569e-18)
(-7.00595 -2.76761 0)
(-7.97198 -2.29836 0)
(-9.67703 -1.23882 0)
(-11.8223 -0.407971 1.9228e-17)
(-13.8993 0.0808724 1.92412e-17)
(-15.8525 0.41525 9.56942e-18)
(-17.6492 0.677469 0)
(-19.2769 0.866704 -1.88657e-17)
(-20.7689 0.972652 0)
(-22.1375 1.02065 1.85698e-17)
(-23.401 1.01451 0)
(-24.584 0.961297 0)
(-25.6662 0.888111 -1.81587e-17)
(-26.6361 0.809685 0)
(-27.5037 0.706345 -5.37332e-17)
(-28.2618 0.587673 1.77892e-17)
(-28.901 0.453408 0)
(-29.4142 0.335823 1.75521e-17)
(-29.8266 0.215951 1.74337e-17)
(-30.1371 0.109375 0)
(-30.3372 0.00978823 0)
(-30.4277 -0.0710914 0)
(-30.4619 -0.145189 0)
(-30.3548 -0.205032 0)
(-30.1663 -0.248883 -1.67076e-17)
(-29.8985 -0.249519 -3.31591e-17)
(-29.4925 -0.216496 1.64505e-17)
(-29.0356 -0.166484 0)
(-28.55 -0.0586096 -3.23565e-17)
(-28.027 0.0637946 1.60394e-17)
(-27.5153 0.197339 0)
(-26.9777 0.296036 1.57785e-17)
(-26.3641 0.394078 0)
(-25.7331 0.512511 0)
(-25.1054 0.638997 3.07518e-17)
(-24.4657 0.74115 -1.52548e-17)
(-23.7332 0.768127 3.02423e-17)
(-22.9304 0.854167 -2.99637e-17)
(-22.0963 0.971851 -1.48489e-17)
(-21.2469 1.04924 0)
(-20.359 1.20796 -1.45749e-17)
(-19.5124 1.40986 0)
(-18.7612 1.53697 0)
(-18.0226 1.59363 0)
(-17.1932 1.58296 -1.41331e-17)
(-16.241 1.53619 0)
(-15.1967 1.56413 -2.77986e-17)
(-14.1332 1.66951 4.12778e-17)
(-13.1524 1.80686 1.36412e-17)
(-12.1922 1.81685 0)
(-11.1881 1.82275 1.34333e-17)
(-10.1437 1.74868 0)
(-9.0618 1.70941 2.66155e-17)
(-7.96653 1.73854 0)
(-6.89078 1.72316 2.62646e-17)
(-5.77214 1.78957 -5.19308e-17)
(-4.62956 1.81513 -2.56943e-17)
(-3.54555 2.0116 0)
(-2.66527 2.26286 0)
(-2.00831 2.59863 0)
(-1.5958 2.89191 2.43629e-17)
(-1.2519 3.05339 0)
(-0.902688 3.0331 -2.37518e-17)
(-0.602857 2.99014 0)
(-0.284042 2.86711 7.0098e-17)
(0.111753 2.81321 2.33161e-17)
(0.611995 2.87428 2.32578e-17)
(1.21823 2.98704 0)
(2.01265 2.70216 0)
(2.89622 2.51431 0)
(3.68075 2.97691 0)
(3.91333 3.73359 0)
(3.81744 4.6081 4.36828e-17)
(3.7711 4.61155 4.27531e-17)
(4.16016 3.24987 0)
(3.85352 3.30124 -2.05382e-17)
(0.538011 5.72312 -2.25861e-17)
(-2.42802 7.02059 0)
(-3.60371 6.69568 -4.604e-17)
(-3.77438 6.14859 0)
(-4.25972 6.19077 2.25301e-17)
(-5.31504 6.77991 0)
(-7.02254 7.36959 0)
(-9.44229 7.72964 -4.40717e-17)
(-12.1029 7.70209 0)
(-13.5429 6.98232 2.23746e-17)
(-13.2496 5.82282 0)
(-12.8915 5.25272 0)
(-12.8324 5.15071 2.20984e-17)
(-12.0751 4.66143 2.19186e-17)
(-10.9166 4.1495 0)
(-9.27804 4.68479 -2.09555e-17)
(-8.69038 5.89228 0)
(-6.37828 7.23756 2.02364e-17)
(-7.87044 6.763 4.02095e-17)
(-6.47055 8.01647 0)
(-7.97756 7.77026 0)
(-7.6051 7.13618 0)
(-6.7651 7.10879 0)
(-6.05141 7.72666 3.82983e-17)
(-6.2043 8.36948 1.14218e-16)
(-6.80197 8.66478 0)
(-8.11648 8.68795 0)
(-9.14173 8.35283 0)
(-9.92439 8.41023 -3.67521e-17)
(-10.8717 8.29841 0)
(-11.0822 8.15019 0)
(-11.1552 8.61837 7.02034e-17)
(-11.2783 9.03913 3.45752e-17)
(-11.8605 9.21269 3.37881e-17)
(-12.5765 8.74367 0)
(-12.2754 8.75845 0)
(-11.6236 9.1618 3.22895e-17)
(-11.7034 9.14472 -3.19193e-17)
(-10.4409 9.0843 0)
(-9.38058 9.89099 0)
(-9.34034 9.43726 -3.08332e-17)
(-8.41098 9.40759 9.19551e-17)
(-7.06881 9.52764 0)
(-6.11209 9.47582 0)
(-4.52475 9.47512 2.96518e-17)
(-2.28695 9.74726 0)
(-1.68502 9.50738 5.81117e-17)
(-0.242575 8.76856 -2.87137e-17)
(3.21206 9.00497 0)
(5.00581 10.2636 2.84989e-17)
(4.62185 10.5612 5.59587e-17)
(4.41034 10.2244 0)
(4.23354 10.0378 0)
(4.45299 9.25704 -2.5342e-17)
(6.4719 8.53034 0)
(9.28422 9.32068 5.07286e-17)
(10.4033 10.3478 0)
(10.3441 10.1816 0)
(10.8911 9.29857 0)
(13.2415 8.47113 0)
(16.4577 8.34958 -2.5716e-17)
(18.9358 8.60192 -2.68766e-17)
(20.577 9.20786 0)
(20.235 9.75139 0)
(18.7279 10.3617 0)
(16.7697 10.5035 2.99324e-17)
(13.6167 10.4545 0)
(10.2885 10.4266 -5.94607e-17)
(8.08084 9.49163 5.91035e-17)
(7.50412 8.63999 5.9011e-17)
(7.07259 8.32731 5.87477e-17)
(6.43968 8.02409 5.83251e-17)
(6.01693 7.50854 5.77678e-17)
(7.94156 7.0984 0)
(-0.115714 -3.93227 0)
(0.128788 -5.15973 0)
(0.498902 -6.43227 2.37066e-17)
(0.818187 -7.06294 2.32696e-17)
(1.05637 -7.33921 -2.30381e-17)
(1.24099 -7.34878 -2.28861e-17)
(1.42763 -7.22133 1.11906e-20)
(1.58893 -7.04628 0)
(1.78837 -6.81747 0)
(1.96775 -6.54798 0)
(2.1669 -6.11805 0)
(2.26586 -5.6156 0)
(2.28671 -5.07869 6.61416e-17)
(2.23931 -4.44972 0)
(2.05405 -3.72527 -2.15437e-17)
(1.73826 -3.07788 -2.12846e-17)
(1.3759 -2.49318 0)
(0.70195 -1.94678 0)
(0.0555582 -1.47901 0)
(-0.57915 -0.917817 0)
(-1.61631 -0.925107 -2.01995e-17)
(-2.34582 -1.61643 0)
(-3.1758 -1.62381 1.90469e-17)
(-4.26266 -1.25079 0)
(-4.70622 -1.5121 0)
(-4.85637 -2.63906 0)
(-5.39258 -4.04879 3.72264e-17)
(-6.03357 -4.50764 0)
(-7.01555 -3.46547 -1.89325e-17)
(-8.91576 -1.84831 3.88236e-17)
(-11.2942 -0.586366 0)
(-13.5506 0.239121 0)
(-15.4545 0.810755 0)
(-17.0657 1.10988 -1.94084e-17)
(-18.5645 1.2181 -1.9271e-17)
(-19.9814 1.27051 0)
(-21.3142 1.30408 0)
(-22.5646 1.32342 3.76718e-17)
(-23.7148 1.31891 3.74099e-17)
(-24.7755 1.28021 -3.71738e-17)
(-25.7554 1.20111 0)
(-26.6364 1.08949 0)
(-27.4085 0.947484 0)
(-28.1007 0.786051 0)
(-28.7162 0.613159 3.61254e-17)
(-29.2601 0.450713 3.59256e-17)
(-29.685 0.288591 -3.5708e-17)
(-30.0285 0.129848 0)
(-30.3109 -0.015137 0)
(-30.5166 -0.155112 0)
(-30.6454 -0.264726 0)
(-30.6991 -0.369786 3.45524e-17)
(-30.6934 -0.450459 0)
(-30.5996 -0.49221 0)
(-30.4218 -0.548381 3.38414e-17)
(-30.1822 -0.525782 3.36006e-17)
(-29.8407 -0.479034 0)
(-29.3658 -0.371198 -6.61512e-17)
(-28.8319 -0.199946 3.28023e-17)
(-28.2469 -0.0056832 -3.25113e-17)
(-27.6534 0.259479 0)
(-27.0304 0.491067 0)
(-26.3778 0.672818 0)
(-25.7383 0.879675 0)
(-25.1015 1.07796 -3.10701e-17)
(-24.5047 1.20036 -6.16322e-17)
(-23.7977 1.21112 -3.06096e-17)
(-23.071 1.39068 3.03198e-17)
(-22.2695 1.55126 0)
(-21.428 1.65577 -5.93868e-17)
(-20.4669 1.87548 -5.86493e-17)
(-19.4336 2.29714 -5.78508e-17)
(-18.5429 2.58631 5.73897e-17)
(-17.8259 2.66343 0)
(-17.093 2.57966 8.58132e-17)
(-16.2179 2.42096 0)
(-15.195 2.45218 -2.81686e-17)
(-14.034 2.64483 -2.78981e-17)
(-12.9426 2.87982 0)
(-11.8941 2.91161 0)
(-10.854 2.95147 -5.47297e-17)
(-9.83712 2.87527 0)
(-8.92269 2.85856 -5.49115e-17)
(-7.92253 2.95903 0)
(-6.98197 2.92223 5.45811e-17)
(-5.86285 2.98293 1.08489e-16)
(-4.76733 3.01279 0)
(-3.4771 3.35673 0)
(-2.24062 3.83896 0)
(-1.24095 4.32285 4.99017e-17)
(-0.603915 4.65695 0)
(0.0311138 4.83354 4.77255e-17)
(0.69344 4.92806 0)
(1.32778 5.06124 0)
(1.76943 5.10885 -9.43677e-17)
(1.99257 4.80497 0)
(2.17305 4.61511 -4.6823e-17)
(2.75468 4.54443 0)
(3.56938 4.34445 -4.69444e-17)
(4.30626 4.47042 0)
(4.7862 5.22813 0)
(4.91993 6.41971 0)
(5.00859 6.77596 -1.30555e-16)
(5.31665 6.14625 -4.14791e-17)
(2.94065 7.65948 0)
(-1.36265 10.305 0)
(-4.10356 11.1189 0)
(-4.72994 10.5352 0)
(-4.80605 9.80471 4.56652e-17)
(-4.95246 9.59281 -8.97509e-17)
(-5.98744 10.1079 -4.37798e-17)
(-7.97977 11.2123 8.57151e-17)
(-10.6699 12.706 8.6222e-17)
(-13.2758 13.687 4.50271e-17)
(-14.5917 12.8916 0)
(-14.2768 10.8057 9.45026e-17)
(-13.9345 9.35317 0)
(-14.9378 9.47249 -8.7121e-17)
(-15.4191 9.33011 -4.41675e-17)
(-14.5243 7.98442 0)
(-14.0416 7.40784 8.57815e-17)
(-13.6563 7.94889 4.16817e-17)
(-12.3988 8.5725 0)
(-9.11406 10.7535 3.95043e-17)
(-10.3984 10.8239 -1.20397e-16)
(-8.27906 12.4098 0)
(-9.6269 12.2054 0)
(-8.89512 11.0755 0)
(-7.82243 10.8893 0)
(-6.66752 11.668 -7.48424e-17)
(-6.17131 12.6598 -7.39286e-17)
(-5.90996 13.691 0)
(-6.51895 14.5589 0)
(-7.56258 14.3166 0)
(-8.32334 14.6011 0)
(-9.73555 14.3538 0)
(-10.4973 14.0132 0)
(-10.6044 14.4814 -7.14026e-17)
(-10.6146 15.0691 1.81684e-20)
(-10.5041 15.6289 0)
(-11.7721 15.1987 0)
(-12.233 14.7776 -6.5923e-17)
(-10.9025 15.1224 0)
(-11.5414 15.1626 6.38114e-17)
(-11.0608 14.8744 6.46391e-17)
(-8.00436 16.131 0)
(-8.003 15.9594 0)
(-7.8688 15.6712 -6.15869e-17)
(-5.98772 15.8432 -1.21335e-16)
(-4.75628 15.9308 0)
(-3.92572 15.7116 0)
(-1.15557 16.0978 0)
(0.209294 16.2442 -5.69058e-17)
(-0.318689 15.1151 5.93786e-17)
(3.13679 14.4123 0)
(7.38603 16.6526 1.15278e-16)
(7.82274 17.9795 5.55559e-17)
(7.62028 17.9834 -1.08452e-16)
(7.21999 17.3176 0)
(6.86849 15.6771 0)
(8.176 14.6666 -1.00904e-16)
(11.1962 15.8156 -5.12376e-17)
(12.3011 17.5386 0)
(12.2325 17.0335 0)
(12.7939 15.4239 0)
(14.9009 14.3389 0)
(17.5759 14.4845 -1.00963e-16)
(18.9521 15.0981 0)
(19.3076 16.5842 0)
(17.8008 17.4454 0)
(16.1166 17.8567 0)
(13.9752 18.1666 0)
(10.3725 18.1902 0)
(7.25281 17.053 -1.16487e-16)
(5.54818 15.3307 0)
(5.14582 14.0342 0)
(4.41242 13.6201 -2.36042e-16)
(5.2409 12.6909 1.1544e-16)
(5.3356 11.7396 -1.14206e-16)
(7.83954 12.1387 1.14193e-16)
(-0.0425537 -6.18027 0)
(0.354955 -8.02294 -4.82218e-17)
(0.573175 -9.12724 0)
(0.687066 -9.43963 -2.31184e-17)
(0.704172 -9.54173 0)
(0.698121 -9.45429 0)
(0.73831 -9.37935 2.3066e-17)
(0.808559 -9.35426 0)
(0.989644 -9.2118 0)
(1.12649 -8.95394 0)
(1.32706 -8.49397 0)
(1.43522 -7.87309 0)
(1.47656 -7.10144 -8.87576e-17)
(1.38604 -6.24547 -4.40348e-17)
(1.20337 -5.43228 4.37363e-17)
(0.987681 -4.56135 0)
(0.497831 -3.56626 0)
(-0.0759301 -2.77026 0)
(-0.686761 -2.26622 0)
(-1.5629 -1.91014 0)
(-2.20726 -1.61111 -3.9433e-17)
(-3.14563 -1.24072 -4.00158e-17)
(-4.14735 -1.4881 3.95986e-17)
(-4.46512 -3.13471 -3.79605e-17)
(-4.76772 -4.50767 0)
(-5.68402 -4.07209 0)
(-7.61661 -2.54863 -3.99497e-17)
(-9.96358 -1.34098 0)
(-12.0165 -0.476083 0)
(-13.7981 0.207894 -3.98393e-17)
(-15.3455 0.631892 -3.96543e-17)
(-16.798 0.962367 -3.94131e-17)
(-18.1507 1.24085 0)
(-19.3946 1.43001 0)
(-20.551 1.52858 3.85074e-17)
(-21.6356 1.53782 0)
(-22.6596 1.48853 0)
(-23.6029 1.41963 -3.77698e-17)
(-24.4802 1.31622 3.76219e-17)
(-25.2826 1.17868 -3.7443e-17)
(-26.005 1.01449 0)
(-26.6507 0.834024 0)
(-27.2286 0.652042 -7.36812e-17)
(-27.7438 0.451836 0)
(-28.1796 0.251178 -7.27491e-17)
(-28.5506 0.056558 -1.0834e-16)
(-28.8872 -0.115517 1.07578e-16)
(-29.1603 -0.274474 -7.11867e-17)
(-29.4047 -0.425542 0)
(-29.5921 -0.527128 0)
(-29.737 -0.62245 -6.96125e-17)
(-29.8597 -0.713308 -3.45488e-17)
(-29.9183 -0.761193 0)
(-29.936 -0.802577 0)
(-29.8846 -0.818216 -3.38416e-17)
(-29.7518 -0.823932 -6.72624e-17)
(-29.5185 -0.74726 0)
(-29.1795 -0.634095 6.64987e-17)
(-28.8025 -0.484008 -6.6084e-17)
(-28.2796 -0.260513 6.5632e-17)
(-27.6876 0.0829415 0)
(-27.0052 0.455224 0)
(-26.2829 0.793214 0)
(-25.5573 1.12759 0)
(-24.7891 1.44454 0)
(-24.1098 1.67442 6.23957e-17)
(-23.292 1.79111 0)
(-22.6304 2.0349 0)
(-21.8686 2.21297 0)
(-21.1799 2.28503 1.21272e-16)
(-20.3756 2.34844 6.009e-17)
(-19.2463 2.81066 5.90618e-17)
(-17.9845 3.42946 -1.16184e-16)
(-16.9599 3.76759 5.75051e-17)
(-16.1145 3.7067 -5.7511e-17)
(-15.3449 3.4786 0)
(-14.5225 3.36019 5.73086e-17)
(-13.5227 3.53634 0)
(-12.4346 3.82255 0)
(-11.2627 3.91763 0)
(-10.1152 4.12537 1.11627e-16)
(-9.11882 4.14425 -5.56488e-17)
(-8.43795 4.16952 -5.56422e-17)
(-7.62823 4.27172 -1.11034e-16)
(-6.89471 4.13747 -1.66767e-16)
(-5.8978 4.01307 -5.5481e-17)
(-5.01262 3.82173 0)
(-3.73559 3.99164 -1.08982e-16)
(-2.49505 4.67366 0)
(-1.19013 5.73749 -1.56694e-16)
(-0.396977 6.34892 0)
(0.518368 6.48012 -1.48542e-16)
(1.55138 6.38089 0)
(2.43471 6.50469 0)
(3.36965 6.94346 -4.83445e-17)
(4.21334 6.97452 0)
(4.37207 6.603 4.61687e-17)
(4.66324 6.26214 9.34883e-17)
(4.9837 5.80527 4.65633e-17)
(5.35566 6.10335 9.17086e-17)
(5.27868 7.23943 -9.06721e-17)
(4.91554 8.2386 -8.79302e-17)
(3.98591 9.49103 1.72117e-16)
(1.37745 11.8496 0)
(-2.34809 14.246 0)
(-4.88405 15.2203 9.35146e-17)
(-5.51098 14.513 -9.23739e-17)
(-5.62007 13.475 0)
(-6.11199 12.8792 0)
(-7.42077 13.4565 8.73561e-17)
(-9.35969 15.0721 0)
(-11.7104 17.0984 -3.18645e-19)
(-13.5393 18.3199 -3.29651e-19)
(-14.3123 17.9519 9.31909e-17)
(-13.9218 15.9123 0)
(-13.3198 13.5527 -8.94054e-17)
(-14.0589 13.2069 0)
(-15.3054 13.989 8.87829e-17)
(-14.9985 12.9501 0)
(-14.8705 11.2062 0)
(-16.1668 11.0639 -8.57604e-17)
(-16.3097 11.0007 -8.48596e-17)
(-15.4639 11.2477 0)
(-13.3691 13.4605 -7.99548e-17)
(-12.7105 14.1053 1.59354e-16)
(-11.0481 16.5309 0)
(-11.6995 16.4186 0)
(-10.8741 14.5686 0)
(-9.4189 14.4578 0)
(-8.12483 15.783 7.6241e-17)
(-7.43335 16.8846 -1.48653e-16)
(-7.10545 18.108 0)
(-7.03959 19.3531 0)
(-7.55819 19.3021 0)
(-7.74195 20.0249 0)
(-9.23962 19.9979 0)
(-10.2402 19.5734 0)
(-10.3631 19.9325 0)
(-10.6595 20.59 7.17568e-17)
(-10.1533 21.5851 0)
(-11.4968 21.6161 0)
(-12.8315 20.7729 6.85325e-17)
(-11.1559 20.9923 0)
(-12.0385 21.5213 0)
(-13.496 20.5954 -7.03835e-17)
(-8.60926 21.2855 0)
(-7.38414 22.3112 0)
(-8.13034 22.1975 1.29584e-16)
(-6.12298 22.0685 1.26926e-16)
(-4.17455 22.2655 1.22185e-16)
(-4.27903 22.0973 0)
(-1.35579 22.2974 1.25399e-16)
(0.899017 23.0025 0)
(-1.68157 22.264 -1.28984e-16)
(0.229902 20.2155 0)
(7.18199 22.9594 -1.27017e-16)
(9.19758 24.5023 2.35399e-19)
(9.78153 24.9191 1.10612e-16)
(10.0188 24.5094 -1.05082e-16)
(9.28572 22.0696 9.89349e-17)
(9.75475 20.7603 2.15772e-16)
(12.8568 21.8859 0)
(13.9931 24.1564 0)