/*--------------------------------*- C++ -*----------------------------------*\
| =========                 |                                                 |
| \\      /  F ield         | OpenFOAM: The Open Source CFD Toolbox           |
|  \\    /   O peration     | Version:  dev                                   |
|   \\  /    A nd           | Web:      http://www.openfoam.org               |
|    \\/     M anipulation  |                                                 |
\*---------------------------------------------------------------------------*/
FoamFile
{
    version     2.0;
    format      ascii;
    class       volVectorField;
    object      U_0;
    location    "9.137";
}
// * * * * * * * * * * * * * * * * * * * * * * * * * * * * * * * * * * * * * //

dimensions      [0 1 -1 0 0 0 0];

internalField   nonuniform List<vector> 
12225
(
(7.81295 0.54992 0)
(6.58642 0.273428 0)
(6.20839 0.0933076 0)
(7.49415 0.0470589 0)
(8.05589 0.0524737 0)
(10.1753 0.00176978 0)
(10.8432 0.0446816 0)
(12.7112 -0.0226765 0)
(13.3742 0.0511957 0)
(15.6583 -0.150899 0)
(16.454 0.0679482 0)
(18.3061 -0.1196 0)
(19.4709 -0.0203802 0)
(23.4345 -0.567324 0)
(27.8279 -0.159541 0)
(30.2952 0.62386 0)
(40.1151 -6.91039 0)
(48.3479 3.44038 0)
(10.4712 1.28451 0)
(11.5801 1.1083 0)
(10.4127 0.775368 0)
(11.9276 0.481465 0)
(10.5278 0.356019 0)
(13.498 0.206712 0)
(12.3112 0.310543 0)
(14.9928 0.0923819 0)
(14.0286 0.20599 0)
(17.7775 -0.248752 0)
(16.4594 0.220005 0)
(19.8908 -0.456547 0)
(19.9367 -0.796312 0)
(27.0434 -2.23796 0)
(26.9742 -1.00115 0)
(39.9685 -5.20195 0)
(38.0694 -6.95248 0)
(59.401 -15.4128 0)
(10.3124 1.49524 0)
(14.0916 1.51252 0)
(12.6333 1.2869 0)
(16.1746 0.969531 0)
(13.5503 0.8611 0)
(17.8086 0.511819 0)
(15.4561 0.8076 0)
(19.1013 0.366011 0)
(16.7605 0.374292 0)
(22.1722 -0.243856 0)
(19.3567 0.74629 0)
(23.6012 -0.783464 0)
(23.9913 -1.26704 0)
(27.7164 -2.64531 0)
(30.1869 -3.28594 0)
(36.174 -4.543 0)
(36.7148 -9.56069 0)
(39.5788 -12.9734 0)
(8.6065 1.66474 0)
(15.457 1.65202 0)
(12.2372 1.56562 0)
(18.3521 1.28789 0)
(15.2721 1.36934 0)
(20.4456 0.649532 0)
(18.0009 1.16906 0)
(22.5577 0.635642 0)
(18.8762 0.577123 0)
(26.0523 -0.661057 0)
(22.5644 0.597563 0)
(28.9993 -0.946906 0)
(27.4695 -0.82749 0)
(31.1952 -3.58065 0)
(27.2646 -3.99545 0)
(38.2718 -7.08891 0)
(38.6125 -10.2482 0)
(38.0114 -9.17022 0)
(6.27919 2.01429 0)
(17.1468 1.93616 0)
(11.6052 1.93969 0)
(19.8357 0.978089 0)
(16.0118 1.86413 0)
(21.4895 0.635992 0)
(17.45 1.65879 0)
(24.8368 1.2786 0)
(20.6702 0.715707 0)
(26.5523 -0.574623 0)
(18.3704 1.4012 0)
(31.8952 -2.56059 0)
(30.3899 -0.32403 0)
(30.6867 -1.57079 0)
(21.431 -4.60991 0)
(37.1864 -12.2176 0)
(33.0514 -10.5749 0)
(40.2926 -6.17268 0)
(5.01734 2.57997 0)
(16.2596 1.17209 0)
(13.5748 2.41749 0)
(20.2359 1.30404 0)
(16.2134 2.48082 0)
(20.7789 1.42749 0)
(17.1376 1.45324 0)
(25.0438 0.314273 0)
(23.0349 1.2741 0)
(22.6971 1.61799 0)
(20.359 -0.936676 0)
(29.3728 -4.90937 0)
(25.1103 0.436539 0)
(31.6221 0.0328216 0)
(25.7074 -6.43817 0)
(31.144 -12.3143 0)
(21.697 -10.8452 0)
(41.1235 -8.20023 0)
(7.03081 3.55301 0)
(12.5165 0.30115 0)
(11.4578 1.88663 0)
(19.0833 1.40453 0)
(13.1351 3.3828 0)
(22.4582 1.45261 0)
(18.7137 1.74933 0)
(24.3254 0.474658 0)
(19.0947 3.15979 0)
(25.8784 1.42856 0)
(26.0145 -0.605335 0)
(24.3305 -2.12566 0)
(20.221 0.648797 0)
(32.5442 -0.726018 0)
(28.9396 -2.78194 0)
(27.0865 -10.6643 0)
(20.2372 -9.26914 0)
(30.5077 -12.2379 0)
(9.24674 4.23996 0)
(12.7978 1.16466 0)
(10.2659 1.85276 0)
(16.201 2.19672 0)
(12.2055 3.12507 0)
(19.9873 0.70583 0)
(17.1462 2.09925 0)
(22.1425 1.38644 0)
(17.0725 2.70334 0)
(27.2348 0.246339 0)
(23.2029 1.04409 0)
(25.1974 -1.76589 0)
(23.4094 -1.96943 0)
(26.4351 -3.24674 0)
(29.2416 -2.19214 0)
(28.8918 -7.73339 0)
(22.5326 -7.14226 0)
(15.9343 -12.4918 0)
(10.3496 4.66072 0)
(13.4497 1.7817 0)
(11.7914 2.38063 0)
(15.4449 2.22015 0)
(14.6896 3.12353 0)
(17.3211 1.14441 0)
(14.3031 2.76556 0)
(19.4764 1.53579 0)
(18.7508 2.21912 0)
(24.3331 -0.575542 0)
(23.4975 1.76343 0)
(26.8091 -1.08162 0)
(23.8315 -0.180996 0)
(25.3308 -4.57513 0)
(27.752 -2.4184 0)
(28.8236 -6.69707 0)
(24.2422 -4.36232 0)
(22.9231 -9.5676 0)
(10.6909 4.63888 0)
(12.371 2.18072 0)
(12.8222 2.46785 0)
(15.3043 2.53497 0)
(15.8768 3.77979 0)
(16.9416 2.3532 0)
(15.1138 2.90949 0)
(19.0198 0.603542 0)
(19.2797 1.66959 0)
(22.3692 -0.738348 0)
(21.9642 1.31099 0)
(25.51 -0.749565 0)
(22.987 0.588614 0)
(27.3815 -3.66423 0)
(25.184 -3.09484 0)
(27.5192 -5.7165 0)
(24.6063 -4.2924 0)
(26.7698 -8.74879 0)
(11.2588 5.10474 0)
(12.0419 2.57382 0)
(13.2971 3.19847 0)
(14.3488 2.6203 0)
(16.0358 4.12954 0)
(17.2818 3.02574 0)
(18.2856 3.18023 0)
(19.1324 1.38165 0)
(20.0832 1.88841 0)
(20.7685 -0.0218651 0)
(21.2554 1.59086 0)
(22.9884 -0.560511 0)
(24.1167 -0.394995 0)
(24.9048 -4.19881 0)
(24.7325 -2.54089 0)
(25.5907 -4.46641 0)
(25.0944 -3.39335 0)
(25.0116 -5.73336 0)
(11.4236 5.00359 0)
(12.077 3.36581 0)
(13.6507 3.60218 0)
(14.1273 3.18202 0)
(15.8675 4.21407 0)
(16.7708 3.12511 0)
(19.0101 3.66032 0)
(19.3756 1.71083 0)
(20.7003 2.19118 0)
(20.6454 0.425772 0)
(21.6946 1.00512 0)
(22.7356 -0.950047 0)
(23.9573 -0.38579 0)
(24.1402 -2.34449 0)
(23.6029 -2.52026 0)
(24.1328 -3.88725 0)
(24.2681 -3.88301 0)
(24.4891 -5.03655 0)
(10.7452 5.50547 0)
(12.0679 3.73692 0)
(13.544 4.18111 0)
(14.3888 3.63395 0)
(15.8249 4.35489 0)
(16.87 3.38257 0)
(18.409 3.44768 0)
(19.3505 2.23296 0)
(20.2721 2.39881 0)
(20.9028 1.19998 0)
(21.5779 1.18365 0)
(22.2663 -0.0761439 0)
(22.6735 -0.306772 0)
(23.1197 -1.77356 0)
(23.145 -2.11468 0)
(23.1634 -3.01054 0)
(23.1351 -3.58522 0)
(23.1401 -4.46471 0)
(10.8028 5.71 0)
(11.9621 4.29336 0)
(13.0981 4.38698 0)
(14.162 4.16454 0)
(15.4857 4.51202 0)
(16.6814 3.78558 0)
(17.8677 3.76159 0)
(18.6778 2.78812 0)
(19.4342 2.73827 0)
(20.0632 1.61664 0)
(20.62 1.36498 0)
(21.2039 0.303211 0)
(21.606 -0.102881 0)
(21.9603 -0.865316 0)
(22.0989 -1.5197 0)
(22.1846 -2.33525 0)
(22.2935 -3.00321 0)
(22.2312 -3.6469 0)
(10.9415 6.21775 0)
(12.0316 4.94219 0)
(13.1566 4.90652 0)
(14.1436 4.56114 0)
(15.268 4.50405 0)
(16.327 4.0592 0)
(17.3175 3.81621 0)
(18.1914 3.32149 0)
(18.9321 2.9848 0)
(19.6223 2.25489 0)
(20.1206 1.71563 0)
(20.5625 1.00233 0)
(20.8586 0.318742 0)
(21.0841 -0.393106 0)
(21.2733 -1.07614 0)
(21.3768 -1.73134 0)
(21.336 -2.35212 0)
(21.2559 -2.98416 0)
(10.7065 6.61489 0)
(11.8251 5.27839 0)
(13.0406 5.11898 0)
(14.083 4.92698 0)
(15.0213 4.78847 0)
(15.8901 4.40102 0)
(16.7183 4.09745 0)
(17.5491 3.63724 0)
(18.2861 3.22801 0)
(18.942 2.62646 0)
(19.481 2.09336 0)
(19.8888 1.47013 0)
(20.1765 0.853041 0)
(20.3633 0.257361 0)
(20.4681 -0.331886 0)
(20.4808 -0.943794 0)
(20.44 -1.51149 0)
(20.3513 -2.08181 0)
(10.7328 6.87436 0)
(11.6197 5.41087 0)
(12.7002 5.23321 0)
(13.6942 5.0935 0)
(14.6398 4.88573 0)
(15.5171 4.53017 0)
(16.3083 4.15162 0)
(17.057 3.71404 0)
(17.709 3.2593 0)
(18.2557 2.78634 0)
(18.6953 2.32306 0)
(19.0181 1.8068 0)
(19.2525 1.28594 0)
(19.4044 0.741391 0)
(19.4896 0.202454 0)
(19.5103 -0.334018 0)
(19.4741 -0.855019 0)
(19.3972 -1.37016 0)
(10.9187 6.74484 0)
(11.8164 5.32855 0)
(12.7429 5.08722 0)
(13.634 4.88347 0)
(14.4805 4.65486 0)
(15.2614 4.4036 0)
(15.9438 4.11287 0)
(16.5467 3.76211 0)
(17.0542 3.38303 0)
(17.4918 2.97666 0)
(17.8539 2.57015 0)
(18.1361 2.11418 0)
(18.3512 1.67033 0)
(18.5136 1.18439 0)
(18.6265 0.707992 0)
(18.657 0.235446 0)
(18.6305 -0.230888 0)
(18.5646 -0.688412 0)
(10.7675 6.17167 0)
(11.5787 4.94278 0)
(12.4247 4.81044 0)
(13.2133 4.61931 0)
(13.9279 4.38119 0)
(14.6418 4.12974 0)
(15.3046 3.87496 0)
(15.888 3.56989 0)
(16.3893 3.2467 0)
(16.8347 2.86645 0)
(17.1901 2.45115 0)
(17.4643 2.02205 0)
(17.668 1.60124 0)
(17.7953 1.18332 0)
(17.8772 0.78966 0)
(17.9169 0.398038 0)
(17.8898 0.0253351 0)
(17.82 -0.325852 0)
(10.5449 5.70312 0)
(11.3987 4.50338 0)
(12.2883 4.28946 0)
(13.0869 4.0895 0)
(13.7968 3.88035 0)
(14.4853 3.66436 0)
(15.0858 3.45259 0)
(15.6335 3.21151 0)
(16.1006 2.9344 0)
(16.4636 2.637 0)
(16.7659 2.29118 0)
(16.9704 1.94924 0)
(17.1024 1.59587 0)
(17.1846 1.24413 0)
(17.1955 0.918737 0)
(17.1955 0.574333 0)
(17.1576 0.235468 0)
(17.0804 -0.0913195 0)
(10.5389 4.93569 0)
(11.3611 3.76078 0)
(12.2098 3.63396 0)
(12.9604 3.53717 0)
(13.6412 3.36644 0)
(14.2591 3.17325 0)
(14.8063 2.96717 0)
(15.3375 2.77474 0)
(15.7776 2.56084 0)
(16.1547 2.34278 0)
(16.4666 2.07487 0)
(16.6789 1.77843 0)
(16.8349 1.46739 0)
(16.9478 1.14666 0)
(16.9975 0.83741 0)
(16.9984 0.545683 0)
(16.9744 0.265153 0)
(16.9116 -0.0195381 0)
(10.6916 4.4202 0)
(11.3819 3.22611 0)
(12.1625 3.02661 0)
(12.9074 2.92465 0)
(13.5716 2.80207 0)
(14.1462 2.67182 0)
(14.6332 2.49576 0)
(15.0666 2.31816 0)
(15.456 2.14366 0)
(15.8206 1.93604 0)
(16.1465 1.72151 0)
(16.3948 1.4766 0)
(16.5838 1.21795 0)
(16.6883 0.977295 0)
(16.7448 0.706005 0)
(16.7536 0.475032 0)
(16.7121 0.243491 0)
(16.6253 0.0234919 0)
(10.8888 3.5984 0)
(11.6504 2.73658 0)
(12.3337 2.50418 0)
(12.963 2.37747 0)
(13.571 2.28748 0)
(14.1369 2.18642 0)
(14.655 2.06013 0)
(15.0697 1.90498 0)
(15.4278 1.74407 0)
(15.7487 1.55254 0)
(16.0083 1.36401 0)
(16.2082 1.15654 0)
(16.3506 0.961772 0)
(16.4238 0.770935 0)
(16.4623 0.577698 0)
(16.457 0.393364 0)
(16.4329 0.195256 0)
(16.3607 0.00466175 0)
(10.6209 2.9376 0)
(11.3779 2.17731 0)
(12.1989 1.95748 0)
(12.9645 1.83134 0)
(13.6321 1.74147 0)
(14.222 1.6718 0)
(14.7219 1.59811 0)
(15.1004 1.50917 0)
(15.4395 1.39369 0)
(15.7249 1.24827 0)
(15.9409 1.0955 0)
(16.1252 0.909943 0)
(16.2275 0.756212 0)
(16.2919 0.573077 0)
(16.3396 0.412851 0)
(16.3234 0.261412 0)
(16.3127 0.0872525 0)
(16.253 -0.0620681 0)
(10.4907 2.43266 0)
(11.4429 1.64739 0)
(12.3513 1.39005 0)
(13.1064 1.28232 0)
(13.7362 1.23006 0)
(14.2821 1.19429 0)
(14.7648 1.16552 0)
(15.1718 1.1214 0)
(15.5489 1.03385 0)
(15.8738 0.92975 0)
(16.1229 0.798913 0)
(16.3369 0.659297 0)
(16.449 0.523183 0)
(16.5371 0.377501 0)
(16.5754 0.247047 0)
(16.5539 0.116756 0)
(16.5269 -0.0157692 0)
(16.4299 -0.127949 0)
(10.6514 1.57365 0)
(11.563 0.997525 0)
(12.4907 0.860682 0)
(13.2587 0.804192 0)
(13.8627 0.790295 0)
(14.3761 0.78807 0)
(14.836 0.771552 0)
(15.2152 0.741872 0)
(15.5623 0.674324 0)
(15.8585 0.598069 0)
(16.0979 0.50641 0)
(16.2814 0.396799 0)
(16.4009 0.299239 0)
(16.482 0.186551 0)
(16.4901 0.0952367 0)
(16.4541 0.00370963 0)
(16.3728 -0.074261 0)
(16.2442 -0.146719 0)
(10.4369 0.920331 0)
(11.6175 0.453097 0)
(12.7724 0.401805 0)
(13.5758 0.394081 0)
(14.0999 0.417991 0)
(14.5041 0.44314 0)
(14.8493 0.449178 0)
(15.1406 0.436459 0)
(15.3711 0.401469 0)
(15.5363 0.355809 0)
(15.6356 0.29376 0)
(15.6644 0.221704 0)
(15.6479 0.151508 0)
(15.5655 0.0773221 0)
(15.452 0.0131288 0)
(15.2854 -0.0378424 0)
(15.1053 -0.0876868 0)
(14.8971 -0.134482 0)
(10.5754 0.374512 0)
(11.8292 -0.0754969 0)
(12.7561 -0.0163945 0)
(13.1926 0.0668879 0)
(13.3687 0.149527 0)
(13.4498 0.213338 0)
(13.4875 0.239798 0)
(13.494 0.255253 0)
(13.4683 0.250587 0)
(13.4437 0.237 0)
(13.3825 0.206695 0)
(13.2647 0.164698 0)
(13.1016 0.118977 0)
(12.893 0.0744296 0)
(12.6689 0.050581 0)
(12.4079 0.0173104 0)
(12.1562 -0.0286952 0)
(11.9114 -0.0555513 0)
(10.6204 -0.303015 0)
(11.0435 -0.601541 0)
(11.0419 -0.371947 0)
(10.6764 -0.153615 0)
(10.3133 0.0407985 0)
(10.0405 0.165026 0)
(9.87673 0.218973 0)
(9.75875 0.238425 0)
(9.68987 0.233757 0)
(9.63651 0.213629 0)
(9.56132 0.186116 0)
(9.46494 0.157225 0)
(9.34335 0.13185 0)
(9.21008 0.10386 0)
(9.04915 0.0776953 0)
(8.86262 0.0483869 0)
(8.69145 0.00134935 0)
(8.51069 -0.0262833 0)
(8.7908 -0.266263 0)
(7.02829 -0.206127 0)
(5.98579 0.0350238 0)
(5.5354 0.129401 0)
(5.56237 0.16134 0)
(5.79682 0.159754 0)
(6.11543 0.142842 0)
(6.42965 0.128787 0)
(6.71763 0.113518 0)
(6.94909 0.0992624 0)
(7.12927 0.0901254 0)
(7.25463 0.0789382 0)
(7.32765 0.0671466 0)
(7.35286 0.0547629 0)
(7.32168 0.0417966 0)
(7.24964 0.0286288 0)
(7.14056 -0.000243782 0)
(6.93706 -0.0182841 0)
(-0.237999 -0.472812 0)
(-0.630222 -0.640049 0)
(-0.720289 -0.958343 0)
(-0.553612 -1.19232 0)
(-0.253512 -1.33974 0)
(0.115856 -1.39711 0)
(0.505733 -1.39709 1.12662e-17)
(0.875731 -1.3599 -1.11664e-17)
(1.21092 -1.27887 0)
(1.47578 -1.18016 -1.09774e-17)
(1.65577 -1.07726 0)
(1.75392 -0.954511 0)
(1.74714 -0.805077 0)
(1.57214 -0.621026 1.06145e-17)
(1.25704 -0.454973 0)
(0.784661 -0.319546 0)
(0.161986 -0.157819 -1.03466e-17)
(-0.573838 -0.0445898 0)
(-1.45391 0.0428301 0)
(-2.39215 0.12793 0)
(-3.3374 0.0563993 1.00471e-17)
(-4.36988 -0.0386748 0)
(-5.32028 -0.0850073 9.92545e-18)
(-6.03529 -0.197743 0)
(-6.61 -0.338103 0)
(-7.14934 -0.46466 9.89071e-18)
(-7.74243 -0.538167 0)
(-8.42852 -0.451488 -9.72209e-18)
(-9.15661 -0.304107 0)
(-9.6986 -0.258016 9.48732e-18)
(-9.9524 -0.290283 0)
(-10.0814 -0.498465 0)
(-10.2889 -0.89468 0)
(-10.6219 -1.24316 0)
(-11.0301 -1.34769 0)
(-11.5385 -1.14792 -9.44531e-18)
(-12.2539 -0.726346 0)
(-13.2003 -0.279111 1.87784e-17)
(-14.3041 0.0332939 0)
(-15.4734 0.21234 -1.85545e-17)
(-16.6482 0.313524 0)
(-17.8057 0.365375 0)
(-18.9233 0.382244 1.81599e-17)
(-19.9762 0.381265 0)
(-20.9574 0.372506 1.78997e-17)
(-21.8544 0.358479 -1.77724e-17)
(-22.6477 0.336869 0)
(-23.3286 0.305396 -1.75237e-17)
(-23.9011 0.273124 -1.74026e-17)
(-24.3595 0.240753 0)
(-24.7124 0.205561 0)
(-24.9559 0.168737 0)
(-25.0884 0.14475 0)
(-25.1032 0.101355 0)
(-25.0216 0.0784435 1.67087e-17)
(-24.8804 0.0426394 0)
(-24.596 0.0372669 -1.64845e-17)
(-24.2157 0.0198272 0)
(-23.8273 0.0267902 0)
(-23.3952 0.0394936 1.61524e-17)
(-22.9347 0.0696306 0)
(-22.4581 0.0831245 -1.59346e-17)
(-21.9493 0.108252 0)
(-21.3926 0.137604 0)
(-20.8103 0.162213 0)
(-20.2231 0.195739 1.54989e-17)
(-19.5949 0.212635 0)
(-18.9006 0.22236 0)
(-18.1823 0.23286 1.51661e-17)
(-17.4757 0.245845 0)
(-16.7108 0.27837 1.49492e-17)
(-15.9367 0.309371 0)
(-15.2217 0.337184 0)
(-14.5068 0.359577 0)
(-13.7605 0.374045 -1.4538e-17)
(-12.9592 0.376616 0)
(-12.0906 0.381773 0)
(-11.2253 0.389351 -1.42051e-17)
(-10.3844 0.423557 -1.40983e-17)
(-9.55608 0.419764 0)
(-8.73922 0.427614 -1.38747e-17)
(-7.86456 0.41436 0)
(-6.91944 0.396892 -2.73173e-17)
(-5.95667 0.390785 0)
(-4.98649 0.376042 -2.69031e-17)
(-4.00871 0.379104 0)
(-3.02796 0.36582 2.64558e-17)
(-2.10004 0.411538 0)
(-1.29852 0.451213 0)
(-0.635558 0.52018 0)
(-0.167968 0.593855 -2.5715e-17)
(0.154851 0.695235 0)
(0.399975 0.762121 2.51262e-17)
(0.580033 0.799531 0)
(0.857924 0.763271 -2.46023e-17)
(1.30735 0.74098 -2.44566e-17)
(1.78156 0.71428 -2.4297e-17)
(2.15686 0.725899 0)
(2.6883 0.633783 0)
(3.49099 0.604163 0)
(4.2157 0.725222 0)
(4.48165 0.971142 0)
(4.235 1.12141 0)
(3.55086 1.15625 0)
(3.62186 1.2552 0)
(4.06394 0.735569 2.24377e-17)
(4.36667 -0.201141 2.26151e-17)
(4.19767 0.439185 0)
(2.41942 1.97824 0)
(0.576974 2.1553 0)
(-0.6415 1.88575 2.32083e-17)
(-1.88319 1.88046 0)
(-3.63103 2.04031 0)
(-5.69036 2.07345 0)
(-7.83051 1.92556 0)
(-9.55795 1.8093 -2.2467e-17)
(-10.3997 1.79045 0)
(-10.4535 1.65135 0)
(-10.2325 1.4088 2.22275e-17)
(-9.52703 1.16987 -2.20089e-17)
(-8.47135 1.0218 0)
(-6.73225 0.959257 -2.1619e-17)
(-5.86873 1.6384 0)
(-6.04395 2.31863 2.10127e-17)
(-7.32588 2.14953 0)
(-7.74868 2.717 0)
(-9.75764 2.48778 0)
(-10.0523 2.18652 0)
(-9.93596 2.35761 0)
(-10.1429 2.60033 -4.00999e-17)
(-10.9383 2.66251 -3.97788e-17)
(-11.8627 2.64474 0)
(-12.9343 2.66744 0)
(-13.591 2.67678 0)
(-14.0857 2.79681 3.82606e-17)
(-14.5878 2.88842 0)
(-14.6528 2.88684 0)
(-14.825 3.02065 0)
(-15.122 3.18956 3.6759e-17)
(-15.658 3.24621 -3.63348e-17)
(-15.9624 3.19865 0)
(-15.7124 3.34334 0)
(-15.2676 3.4728 -3.53328e-17)
(-14.9476 3.53024 -3.49838e-17)
(-13.9476 3.48016 0)
(-13.1631 3.67557 0)
(-12.5951 3.62473 3.41002e-17)
(-11.5457 3.66695 -3.38833e-17)
(-10.3089 3.6574 0)
(-9.23986 3.71564 0)
(-7.55391 3.76413 -3.29605e-17)
(-5.58343 3.76822 0)
(-4.81548 3.70738 0)
(-2.82114 3.60547 -3.18536e-17)
(0.3232 3.69166 0)
(1.89781 3.96373 -3.16094e-17)
(2.0919 4.14076 0)
(2.43461 4.10381 0)
(2.77027 4.08163 0)
(3.30064 3.83432 2.98228e-17)
(5.51222 3.59452 0)
(8.32865 3.89034 0)
(9.84939 4.05107 0)
(10.5545 3.9282 0)
(11.8192 3.64676 0)
(14.5612 3.39824 0)
(17.8367 3.36507 2.98033e-17)
(20.255 3.38561 3.02111e-17)
(21.5809 3.37661 0)
(21.6274 3.20201 0)
(20.7657 3.0467 0)
(19.5219 3.16404 -3.12685e-17)
(17.5392 2.99348 0)
(15.0413 3.06327 6.1975e-17)
(12.4134 3.03095 -6.14805e-17)
(10.4105 2.83027 -6.10819e-17)
(9.16548 2.62502 6.0815e-17)
(7.76129 2.39132 -6.04827e-17)
(6.38094 2.30461 6.01522e-17)
(6.52094 1.91872 0)
(-0.180356 -1.69731 0)
(-0.339167 -2.25833 0)
(-0.183347 -3.19462 -2.35748e-17)
(0.0887979 -3.79638 0)
(0.414174 -4.13144 2.2963e-17)
(0.733916 -4.24421 2.27262e-17)
(1.0533 -4.20719 1.12674e-17)
(1.32872 -4.11831 1.11621e-17)
(1.58226 -3.94269 0)
(1.80656 -3.65619 1.09938e-17)
(1.97524 -3.40375 0)
(2.07132 -3.13781 0)
(2.0617 -2.70293 -2.14397e-17)
(1.97833 -2.27327 -1.06272e-17)
(1.7777 -1.90109 2.09884e-17)
(1.41858 -1.38993 2.08017e-17)
(0.91377 -1.03436 1.03066e-17)
(0.344218 -0.756893 0)
(-0.365596 -0.392123 0)
(-1.16288 -0.380141 0)
(-2.01438 -0.25979 9.80317e-18)
(-2.90839 0.00629092 0)
(-3.56641 -0.396434 -2.92996e-17)
(-4.28607 -1.06365 0)
(-5.17819 -1.27544 0)
(-5.9227 -1.10379 -9.39079e-18)
(-6.25945 -0.865189 0)
(-6.22373 -0.503925 9.4354e-18)
(-6.28693 -0.587133 1.92148e-17)
(-6.55601 -1.66091 -9.41448e-18)
(-6.98123 -2.51114 0)
(-7.76613 -2.15864 0)
(-9.28982 -1.14417 0)
(-11.2808 -0.293249 1.90484e-17)
(-13.2143 0.217357 1.91015e-17)
(-15.0271 0.556769 9.50784e-18)
(-16.6976 0.819065 0)
(-18.201 1.00671 -1.87588e-17)
(-19.5605 1.11156 0)
(-20.7951 1.15719 1.84733e-17)
(-21.9222 1.14883 0)
(-22.9702 1.09102 0)
(-23.9231 1.00943 -1.80747e-17)
(-24.7675 0.924014 0)
(-25.5134 0.814927 -5.35108e-17)
(-26.1546 0.689251 1.77212e-17)
(-26.6829 0.543646 0)
(-27.09 0.412814 1.74971e-17)
(-27.4001 0.277781 1.73857e-17)
(-27.6172 0.153074 0)
(-27.7332 0.0352738 0)
(-27.7381 -0.0638963 0)
(-27.6963 -0.158008 0)
(-27.5246 -0.239632 0)
(-27.272 -0.309188 -1.67045e-17)
(-26.9529 -0.339345 -3.31662e-17)
(-26.4993 -0.334429 1.6464e-17)
(-25.9912 -0.31608 0)
(-25.464 -0.239561 -3.24103e-17)
(-24.9032 -0.144518 1.60711e-17)
(-24.3551 -0.0345197 0)
(-23.797 0.04511 1.58254e-17)
(-23.1741 0.118553 0)
(-22.535 0.209906 0)
(-21.9078 0.311822 3.0876e-17)
(-21.286 0.396422 -1.53237e-17)
(-20.5819 0.395825 3.03884e-17)
(-19.8052 0.443406 -3.01219e-17)
(-18.9996 0.533419 -1.49345e-17)
(-18.1873 0.579192 0)
(-17.3341 0.699358 -1.46665e-17)
(-16.5125 0.880572 0)
(-15.7956 0.999011 0)
(-15.1154 1.04375 0)
(-14.3593 1.01195 -1.42261e-17)
(-13.4816 0.929628 0)
(-12.5063 0.916699 -2.80084e-17)
(-11.5049 0.988891 4.15963e-17)
(-10.5873 1.10543 1.3748e-17)
(-9.69755 1.09261 0)
(-8.76754 1.07302 1.35391e-17)
(-7.79549 0.967315 0)
(-6.78151 0.88952 2.68325e-17)
(-5.74943 0.885894 0)
(-4.72967 0.835795 2.64869e-17)
(-3.66343 0.867993 -5.23621e-17)
(-2.56567 0.856193 -2.59172e-17)
(-1.51083 1.01627 0)
(-0.645087 1.24384 0)
(-0.00570928 1.56135 0)
(0.386243 1.84234 2.45577e-17)
(0.706977 1.99971 0)
(1.03527 1.962 -2.39398e-17)
(1.32657 1.89347 0)
(1.65424 1.74505 7.06557e-17)
(2.06622 1.67354 2.35099e-17)
(2.58467 1.71816 2.34539e-17)
(3.21872 1.80662 0)
(4.04195 1.49789 0)
(4.94145 1.32236 0)
(5.73963 1.79458 0)
(5.96529 2.56019 0)
(5.90689 3.38538 4.40102e-17)
(5.86468 3.31049 4.299e-17)
(6.09222 2.00131 0)
(5.64161 2.12308 -2.08265e-17)
(2.35109 4.45248 -2.28775e-17)
(-0.554885 5.62569 0)
(-1.74562 5.25401 -4.64722e-17)
(-2.0208 4.69752 0)
(-2.66546 4.76974 2.27135e-17)
(-3.92553 5.36215 0)
(-5.88909 5.96998 0)
(-8.54396 6.34345 -4.45794e-17)
(-11.426 6.31667 0)
(-13.1327 5.57643 2.26468e-17)
(-13.1234 4.37931 0)
(-13.0234 3.78615 0)
(-13.2356 3.71001 2.23591e-17)
(-12.7406 3.24299 2.22414e-17)
(-11.8237 2.705 0)
(-10.3464 3.22441 -2.12115e-17)
(-9.92302 4.46963 0)
(-7.6486 5.98132 2.04388e-17)
(-9.23362 5.5304 4.06936e-17)
(-7.89845 6.87541 0)
(-9.44988 6.73728 0)
(-9.14249 6.08647 0)
(-8.22419 6.05272 0)
(-7.35602 6.73978 3.88261e-17)
(-7.3323 7.49985 1.15614e-16)
(-7.73797 7.92795 0)
(-8.87741 8.09058 0)
(-9.77351 7.80893 0)
(-10.3783 7.9503 -3.74037e-17)
(-11.179 7.90036 0)
(-11.2212 7.76176 0)
(-11.0372 8.27317 7.13988e-17)
(-10.864 8.78765 3.5122e-17)
(-11.1587 9.13128 3.44221e-17)
(-11.7804 8.74321 0)
(-11.3972 8.7614 0)
(-10.5377 9.27857 3.29095e-17)
(-10.5583 9.35177 -3.2426e-17)
(-9.20492 9.25037 0)
(-7.78115 10.1954 0)
(-7.64341 9.87882 -3.14463e-17)
(-6.75784 9.86081 9.3885e-17)
(-5.35978 10.045 0)
(-4.41373 10.0661 0)
(-2.89131 10.0404 3.03529e-17)
(-0.543801 10.3506 0)
(0.0286737 10.2533 5.92538e-17)
(1.23136 9.35964 -2.93574e-17)
(4.79656 9.48448 0)
(6.7985 10.8562 2.91865e-17)
(6.3816 11.246 5.70582e-17)
(6.03869 10.9183 0)
(5.72068 10.6777 0)
(5.79152 9.75616 -2.58031e-17)
(7.774 8.83735 0)
(10.6055 9.62743 5.18015e-17)
(11.594 10.7644 0)
(11.4327 10.5574 0)
(11.973 9.5722 0)
(14.3428 8.62924 0)
(17.5039 8.38764 -2.63528e-17)
(19.7892 8.526 -2.76256e-17)
(21.0736 9.08832 0)
(20.2383 9.5596 0)
(18.2774 10.0374 0)
(15.7921 10.0718 3.05744e-17)
(12.0173 9.94871 0)
(8.17256 9.76514 -6.05343e-17)
(5.603 8.63549 6.022e-17)
(4.73506 7.6516 6.00994e-17)
(4.02754 7.29984 5.96168e-17)
(3.21734 6.94724 5.92885e-17)
(2.59462 6.36083 5.85187e-17)
(4.2629 5.94282 0)
(-0.142627 -3.35902 0)
(0.0302696 -4.53489 0)
(0.33571 -5.7972 2.35495e-17)
(0.596587 -6.43537 2.31265e-17)
(0.778651 -6.71724 -2.28775e-17)
(0.907779 -6.73212 -2.27226e-17)
(1.03832 -6.60527 2.28331e-20)
(1.14144 -6.42746 0)
(1.28074 -6.1984 0)
(1.40457 -5.93149 0)
(1.55171 -5.51215 0)
(1.60409 -5.02502 0)
(1.58657 -4.50527 6.56624e-17)
(1.51445 -3.89679 0)
(1.30905 -3.19004 -2.13811e-17)
(0.984183 -2.56148 -2.11248e-17)
(0.624212 -1.99072 0)
(-0.0523248 -1.45427 0)
(-0.673936 -1.0008 0)
(-1.28604 -0.435235 0)
(-2.30894 -0.416051 -2.00723e-17)
(-2.98227 -1.1296 0)
(-3.75767 -1.16734 1.88999e-17)
(-4.82996 -0.768614 0)
(-5.26042 -0.955053 0)
(-5.33911 -2.04361 0)
(-5.76485 -3.51139 3.69601e-17)
(-6.27693 -4.10421 0)
(-7.09896 -3.18407 -1.87338e-17)
(-8.82463 -1.61062 3.84433e-17)
(-11.0661 -0.344232 0)
(-13.2239 0.494929 0)
(-15.0364 1.07974 0)
(-16.538 1.40257 -1.92811e-17)
(-17.918 1.51861 -1.91519e-17)
(-19.2126 1.56172 0)
(-20.4208 1.58027 0)
(-21.5447 1.58752 3.74562e-17)
(-22.5653 1.57211 3.71973e-17)
(-23.493 1.52378 -3.69646e-17)
(-24.3407 1.43513 0)
(-25.093 1.31388 0)
(-25.7362 1.16078 0)
(-26.2998 0.985304 0)
(-26.7879 0.794206 3.59636e-17)
(-27.212 0.611376 3.57757e-17)
(-27.522 0.428034 -3.55737e-17)
(-27.7506 0.243872 0)
(-27.9255 0.0729043 0)
(-28.0284 -0.0960514 0)
(-28.06 -0.235022 0)
(-28.0231 -0.36945 3.44915e-17)
(-27.9359 -0.485804 0)
(-27.7702 -0.559778 0)
(-27.5246 -0.653965 3.38252e-17)
(-27.2266 -0.675707 3.36071e-17)
(-26.8428 -0.672619 0)
(-26.3318 -0.616315 -6.62257e-17)
(-25.7646 -0.493088 3.28631e-17)
(-25.1491 -0.34851 -3.25887e-17)
(-24.5259 -0.126121 0)
(-23.8789 0.0753617 0)
(-23.2066 0.219415 0)
(-22.5585 0.38342 0)
(-21.9199 0.547772 -3.12014e-17)
(-21.3366 0.645968 -6.18879e-17)
(-20.6525 0.606379 -3.07609e-17)
(-19.9556 0.725153 3.04909e-17)
(-19.194 0.845978 0)
(-18.4001 0.896685 -5.97613e-17)
(-17.4939 1.03924 -5.90584e-17)
(-16.497 1.41095 -5.82461e-17)
(-15.6197 1.68854 5.77379e-17)
(-14.9332 1.75445 0)
(-14.2589 1.63885 8.63319e-17)
(-13.4592 1.41992 0)
(-12.5183 1.38072 -2.8378e-17)
(-11.4287 1.5167 -2.81287e-17)
(-10.3976 1.71324 0)
(-9.40624 1.70147 0)
(-8.42722 1.6941 -5.51331e-17)
(-7.46131 1.56042 0)
(-6.60306 1.4801 -5.53338e-17)
(-5.66846 1.53059 0)
(-4.78196 1.4362 5.50213e-17)
(-3.72028 1.43873 1.09412e-16)
(-2.66801 1.4006 0)
(-1.41503 1.70176 0)
(-0.209583 2.15896 0)
(0.75332 2.62937 5.03259e-17)
(1.3605 2.95226 0)
(1.96639 3.11141 4.81134e-17)
(2.61406 3.16944 0)
(3.25854 3.24639 0)
(3.72186 3.24311 -9.51915e-17)
(3.9545 2.90413 0)
(4.16118 2.66679 -4.71906e-17)
(4.79159 2.54656 0)
(5.65237 2.31695 -4.73179e-17)
(6.39801 2.45064 0)
(6.85742 3.23757 0)
(6.99398 4.38585 0)
(7.03126 4.71462 -1.31313e-16)
(7.13631 4.21081 -4.19198e-17)
(4.64622 5.74885 0)
(0.431675 8.20681 0)
(-2.19851 8.83375 0)
(-2.8094 8.1782 0)
(-2.95138 7.42659 4.61104e-17)
(-3.26686 7.23911 -9.04995e-17)
(-4.53127 7.83247 -4.42356e-17)
(-6.7514 8.95987 8.65691e-17)
(-9.62882 10.4166 8.70583e-17)
(-12.3795 11.3194 4.55263e-17)
(-13.8638 10.4682 0)
(-13.7735 8.33758 9.56029e-17)
(-13.6749 6.90847 0)
(-14.9425 7.1025 -8.81221e-17)
(-15.7424 7.01237 -4.47438e-17)
(-15.1402 5.65067 0)
(-14.8823 5.04425 8.70065e-17)
(-14.7412 5.60023 4.2379e-17)
(-13.7533 6.215 0)
(-10.5261 8.5915 3.98674e-17)
(-11.8286 8.7367 -1.21797e-16)
(-9.81995 10.4929 0)
(-11.1612 10.471 0)
(-10.5095 9.32577 0)
(-9.3525 9.13593 0)
(-8.05545 10.0238 -7.58484e-17)
(-7.39677 11.1704 -7.50502e-17)
(-6.97202 12.3757 0)
(-7.36185 13.472 0)
(-8.23269 13.3428 0)
(-8.77291 13.7972 0)
(-10.0226 13.701 0)
(-10.659 13.3936 0)
(-10.5502 13.9024 -7.29499e-17)
(-10.3052 14.5964 -2.02169e-19)
(-9.84677 15.4462 0)
(-10.9704 15.2304 0)
(-11.4547 14.8001 -6.74547e-17)
(-9.92088 15.2961 0)
(-10.511 15.5519 6.54565e-17)
(-10.1609 15.12 6.66539e-17)
(-6.65114 16.4994 0)
(-6.36189 16.6894 0)
(-6.34067 16.4435 -6.34764e-17)
(-4.43075 16.6654 -1.24733e-16)
(-3.13699 16.9026 0)
(-2.44894 16.6562 0)
(0.437464 17.0858 0)
(1.82438 17.4405 -5.84343e-17)
(0.897286 16.1466 6.1702e-17)
(4.41648 15.1785 0)
(9.0374 17.5505 1.1933e-16)
(9.59124 19.0487 5.6866e-17)
(9.36195 19.1037 -1.1119e-16)
(8.88122 18.3766 0)
(8.26199 16.5191 0)
(9.46664 15.1731 -1.04392e-16)
(12.6049 16.2517 -5.32984e-17)
(13.6106 18.1773 0)
(13.4346 17.6069 0)
(13.9266 15.8689 0)
(15.9517 14.6455 0)
(18.463 14.6224 -1.04276e-16)
(19.5259 15.0799 0)
(19.4398 16.4581 0)
(17.5109 17.1096 0)
(15.4895 17.2765 0)
(12.8964 17.4675 0)
(8.87799 17.2984 0)
(5.38123 15.8733 -1.18375e-16)
(3.24042 13.8967 0)
(2.46348 12.4073 0)
(1.44003 11.8966 -2.4047e-16)
(2.12509 10.8777 1.17333e-16)
(1.98802 9.85179 -1.16207e-16)
(4.0917 10.2026 1.15689e-16)
(-0.0692858 -5.39612 0)
(0.261657 -7.17366 -4.79437e-17)
(0.423407 -8.29313 0)
(0.482463 -8.62087 -2.29595e-17)
(0.443012 -8.72179 0)
(0.380103 -8.63433 0)
(0.361351 -8.54862 2.29363e-17)
(0.368347 -8.50965 0)
(0.489399 -8.36471 0)
(0.569081 -8.11342 0)
(0.719337 -7.66652 0)
(0.782349 -7.06717 0)
(0.787941 -6.3228 -8.8187e-17)
(0.671122 -5.49325 -4.37597e-17)
(0.468347 -4.70397 4.34595e-17)
(0.255146 -3.85977 0)
(-0.236903 -2.88511 0)
(-0.810947 -2.10687 0)
(-1.4027 -1.61176 0)
(-2.25979 -1.26429 0)
(-2.86749 -0.982363 -3.91638e-17)
(-3.7834 -0.58068 -3.97367e-17)
(-4.77222 -0.746235 3.94029e-17)
(-5.04359 -2.3684 -3.77415e-17)
(-5.25215 -3.83466 0)
(-6.03793 -3.53178 0)
(-7.83064 -2.08101 -3.95325e-17)
(-10.07 -0.884736 0)
(-12.0365 -0.0124698 0)
(-13.7366 0.674467 -3.95479e-17)
(-15.2019 1.1009 -3.93846e-17)
(-16.5597 1.42343 -3.91578e-17)
(-17.8173 1.69327 0)
(-18.9521 1.86984 0)
(-19.9888 1.95797 3.8272e-17)
(-20.9469 1.95701 0)
(-21.8446 1.89121 0)
(-22.6606 1.80477 -3.75338e-17)
(-23.4081 1.68628 3.73888e-17)
(-24.0806 1.53246 -3.72173e-17)
(-24.6721 1.35019 0)
(-25.1861 1.14794 0)
(-25.6321 0.943318 -7.33081e-17)
(-26.0186 0.720202 0)
(-26.3297 0.492449 -7.24475e-17)
(-26.5743 0.266344 -1.07933e-16)
(-26.7882 0.0598231 1.07217e-16)
(-26.9415 -0.133739 -7.09753e-17)
(-27.0694 -0.324913 0)
(-27.1481 -0.467705 0)
(-27.1873 -0.600752 -6.94792e-17)
(-27.2149 -0.736168 -3.45012e-17)
(-27.1875 -0.829217 0)
(-27.1256 -0.915286 0)
(-27.006 -0.977186 -3.38262e-17)
(-26.8151 -1.03704 -6.72352e-17)
(-26.5352 -1.02081 0)
(-26.1521 -0.965928 6.65387e-17)
(-25.7446 -0.880696 -6.61443e-17)
(-25.2045 -0.731743 6.57317e-17)
(-24.5939 -0.457339 0)
(-23.8988 -0.13505 0)
(-23.1601 0.153422 0)
(-22.4321 0.430969 0)
(-21.663 0.698347 0)
(-20.9924 0.887322 6.26671e-17)
(-20.1787 0.939771 0)
(-19.5252 1.11369 0)
(-18.7905 1.24436 0)
(-18.1377 1.26287 1.21962e-16)
(-17.408 1.2241 6.05239e-17)
(-16.3631 1.57391 5.95438e-17)
(-15.1372 2.14536 -1.1705e-16)
(-14.1306 2.47999 5.78596e-17)
(-13.3167 2.39282 -5.78536e-17)
(-12.5955 2.09597 0)
(-11.8443 1.88503 5.77172e-17)
(-10.9221 1.97233 0)
(-9.90176 2.19036 0)
(-8.78794 2.21508 0)
(-7.69709 2.35971 1.1248e-16)
(-6.7494 2.31692 -5.60385e-17)
(-6.12162 2.26507 -5.60103e-17)
(-5.38259 2.3075 -1.11855e-16)
(-4.71045 2.10013 -1.6805e-16)
(-3.77797 1.89544 -5.59441e-17)
(-2.93786 1.60706 0)
(-1.69272 1.70161 -1.09849e-16)
(-0.469478 2.33007 0)
(0.810431 3.37522 -1.58015e-16)
(1.58559 3.96242 0)
(2.46536 4.07142 -1.49786e-16)
(3.47759 3.93046 0)
(4.39525 3.97222 0)
(5.34367 4.37891 -4.86532e-17)
(6.1237 4.42808 0)
(6.28495 3.99122 4.6637e-17)
(6.64796 3.54855 9.42884e-17)
(6.97908 3.07573 4.69486e-17)
(7.32515 3.39506 9.22896e-17)
(7.20592 4.5325 -9.11664e-17)
(6.7412 5.56653 -8.84181e-17)
(5.66476 6.8989 1.7392e-16)
(3.00738 9.22106 0)
(-0.587028 11.4082 0)
(-2.93692 12.1347 9.4298e-17)
(-3.52333 11.3067 -9.30662e-17)
(-3.70047 10.2424 0)
(-4.32644 9.688 0)
(-5.83762 10.3295 8.82093e-17)
(-7.96416 11.9709 0)
(-10.448 13.943 -5.11836e-19)
(-12.3775 15.061 -5.34967e-19)
(-13.2607 14.561 9.42249e-17)
(-13.0505 12.4982 0)
(-12.7009 10.2181 -9.06543e-17)
(-13.6695 9.94182 0)
(-15.1587 10.6831 8.97575e-17)
(-15.1583 9.64076 0)
(-15.2742 7.95455 0)
(-16.8199 7.87026 -8.71851e-17)
(-17.2803 7.81766 -8.60808e-17)
(-16.74 8.04511 0)
(-14.8829 10.3571 -8.13548e-17)
(-14.2363 11.1403 1.61239e-16)
(-12.6618 13.82 0)
(-13.2481 13.9839 0)
(-12.5114 12.1087 0)
(-11.019 11.9641 0)
(-9.56077 13.465 7.78534e-17)
(-8.67418 14.8106 -1.51114e-16)
(-8.22661 16.2339 0)
(-7.99565 17.7515 0)
(-8.34641 17.8399 0)
(-8.28216 18.8073 0)
(-9.52657 19.0078 0)
(-10.3909 18.6295 0)
(-10.3223 19.0309 0)
(-10.3917 19.7933 7.29076e-17)
(-9.5338 21.1824 0)
(-10.562 21.5844 0)
(-11.8373 20.728 7.04594e-17)
(-10.0821 21.1107 0)
(-10.8164 22.0816 0)
(-12.5392 20.8868 -7.33507e-17)
(-7.46304 21.5282 0)
(-5.67837 23.1397 0)
(-6.39214 23.2278 1.33244e-16)
(-4.44968 23.1221 1.31854e-16)
(-2.47374 23.4903 1.25683e-16)
(-2.65738 23.3103 0)
(0.342032 23.5153 1.29794e-16)
(2.43523 24.5854 0)
(-0.302623 23.7025 -1.33364e-16)
(1.544 21.1418 0)
(8.62781 24.0608 -1.33373e-16)