/*--------------------------------*- C++ -*----------------------------------*\
| =========                 |                                                 |
| \\      /  F ield         | OpenFOAM: The Open Source CFD Toolbox           |
|  \\    /   O peration     | Version:  dev                                   |
|   \\  /    A nd           | Web:      http://www.openfoam.org               |
|    \\/     M anipulation  |                                                 |
\*---------------------------------------------------------------------------*/
FoamFile
{
    version     2.0;
    format      ascii;
    class       volVectorField;
    object      UMean;
    location    "9.137";
}
// * * * * * * * * * * * * * * * * * * * * * * * * * * * * * * * * * * * * * //

dimensions      [0 1 -1 0 0 0 0];

internalField   nonuniform List<vector> 
12225
(
(7.00367 0.430276 0)
(4.4388 0.192551 0)
(2.55669 0.0311575 0)
(2.51085 -0.0166633 0)
(1.38433 0.0193729 0)
(2.2673 -0.0342868 0)
(0.98939 0.0489903 0)
(2.18253 -0.0591854 0)
(0.797353 0.0716658 0)
(2.29177 -0.0978609 0)
(0.688591 0.0993818 0)
(2.74366 -0.138636 0)
(0.948076 0.102619 0)
(3.39704 -0.172135 0)
(3.53174 -0.168461 0)
(4.69574 0.0499336 0)
(14.8464 -2.43407 0)
(7.11847 5.1338 0)
(9.54627 0.981591 0)
(9.54343 0.860883 0)
(6.68664 0.466294 0)
(7.5904 0.214545 0)
(4.09019 0.140335 0)
(6.84313 0.0107833 0)
(2.66467 0.132684 0)
(6.68924 -0.0903541 0)
(1.82218 0.14186 0)
(7.03924 -0.165099 0)
(1.26021 0.123924 0)
(8.12194 -0.414511 0)
(1.38502 0.252457 0)
(9.95551 -1.44253 0)
(3.43586 0.271772 0)
(12.3887 -4.06853 0)
(10.4309 -1.92799 0)
(7.7753 0.485542 0)
(9.11839 0.763499 0)
(12.1669 0.951404 0)
(8.32929 0.623974 0)
(11.8322 0.443407 0)
(6.22551 0.310332 0)
(11.4131 0.206434 0)
(4.58211 0.221558 0)
(11.3151 -0.0195872 0)
(3.87363 0.192997 0)
(11.3766 -0.277948 0)
(4.35012 0.187301 0)
(11.253 -0.723282 0)
(5.7283 0.175992 0)
(11.0907 -1.49197 0)
(7.21488 0.0528368 0)
(12.1184 -3.86692 0)
(6.93289 0.350685 0)
(9.3529 -2.38985 0)
(7.21875 0.524963 0)
(13.9932 0.961035 0)
(7.9295 0.609472 0)
(14.2955 0.553875 0)
(7.47401 0.420942 0)
(14.1166 0.271028 0)
(7.17545 0.396767 0)
(13.7385 -0.145211 0)
(7.25651 0.459656 0)
(13.2697 -0.698857 0)
(7.6591 0.576788 0)
(12.8746 -1.42285 0)
(8.26656 0.699299 0)
(12.6513 -2.31345 0)
(9.02295 0.0414662 0)
(11.8878 -3.6372 0)
(8.68392 -1.43236 0)
(8.36399 0.681763 0)
(6.42386 0.569984 0)
(14.0112 0.565916 0)
(8.47343 0.674473 0)
(13.9583 0.284522 0)
(9.16931 0.636739 0)
(13.6436 -0.00261574 0)
(9.5171 0.657932 0)
(13.214 -0.388775 0)
(9.59196 0.73444 0)
(12.813 -0.871405 0)
(9.44538 0.876967 0)
(12.5826 -1.52152 0)
(9.14958 1.08996 0)
(12.5703 -2.49002 0)
(8.8269 1.132 0)
(11.6161 -5.02827 0)
(8.5412 1.26639 0)
(8.7223 0.128444 0)
(7.95638 0.616826 0)
(11.8033 0.152448 0)
(9.50502 0.654728 0)
(11.7396 0.0502487 0)
(10.0881 0.693919 0)
(11.6006 -0.165677 0)
(10.3204 0.725852 0)
(11.4765 -0.457585 0)
(10.3003 0.783072 0)
(11.3898 -0.853689 0)
(10.0326 0.832088 0)
(11.3557 -1.40034 0)
(9.4923 0.801395 0)
(11.4182 -2.13862 0)
(8.80097 0.725905 0)
(10.9978 -3.9204 0)
(7.73346 1.33577 0)
(9.48905 -0.217647 0)
(9.34398 0.812621 0)
(10.4391 -0.265955 0)
(10.1408 0.930487 0)
(10.5541 -0.304512 0)
(10.3986 1.01999 0)
(10.5823 -0.502905 0)
(10.52 1.07549 0)
(10.6258 -0.781229 0)
(10.5633 1.15353 0)
(10.6723 -1.15786 0)
(10.5152 1.2353 0)
(10.7006 -1.63589 0)
(10.3665 1.26145 0)
(10.6889 -2.3274 0)
(10.0529 1.27139 0)
(10.3767 -3.95389 0)
(8.29907 2.01881 0)
(9.69722 -0.95181 0)
(9.84897 0.701069 0)
(10.1562 -0.326014 0)
(10.4065 0.854988 0)
(10.3901 -0.349858 0)
(10.5803 0.906776 0)
(10.471 -0.493955 0)
(10.7016 0.892906 0)
(10.5524 -0.686267 0)
(10.8052 0.872708 0)
(10.6443 -0.935282 0)
(10.8807 0.823869 0)
(10.7358 -1.23279 0)
(10.9077 0.671449 0)
(10.7543 -1.67262 0)
(10.7227 0.519879 0)
(10.4929 -2.47405 0)
(8.89358 0.980866 0)
(9.96408 -0.483918 0)
(10.0857 0.802157 0)
(10.0198 -0.583441 0)
(10.5355 1.02136 0)
(10.3108 -0.60448 0)
(10.6751 1.07491 0)
(10.4402 -0.724952 0)
(10.7776 1.04814 0)
(10.5711 -0.890056 0)
(10.8573 1.0036 0)
(10.7116 -1.11783 0)
(10.8988 0.921068 0)
(10.832 -1.39502 0)
(10.874 0.734714 0)
(10.8222 -1.76093 0)
(10.6023 0.505692 0)
(10.5206 -2.06879 0)
(9.35019 0.586453 0)
(10.0236 -0.391488 0)
(10.1391 0.64857 0)
(10.0422 -0.512004 0)
(10.5103 0.87798 0)
(10.3334 -0.456529 0)
(10.6214 0.869189 0)
(10.4819 -0.493695 0)
(10.6979 0.778229 0)
(10.6291 -0.572236 0)
(10.7343 0.657918 0)
(10.7637 -0.695466 0)
(10.7181 0.495613 0)
(10.8404 -0.845103 0)
(10.6184 0.264154 0)
(10.7656 -1.03229 0)
(10.2826 0.0703372 0)
(10.4795 -1.05294 0)
(9.62361 0.124128 0)
(10.207 -0.0330107 0)
(10.141 0.69991 0)
(10.0706 -0.691948 0)
(10.4525 0.902431 0)
(10.2985 -0.618935 0)
(10.5375 0.84756 0)
(10.4302 -0.645553 0)
(10.6033 0.73518 0)
(10.5607 -0.707437 0)
(10.6273 0.586693 0)
(10.6605 -0.79129 0)
(10.6092 0.383064 0)
(10.6814 -0.869296 0)
(10.527 0.116978 0)
(10.5711 -0.922106 0)
(10.2917 -0.113835 0)
(10.3611 -0.765057 0)
(10.0201 -0.154247 0)
(10.2458 -0.125275 0)
(10.0968 0.467975 0)
(10.1508 -0.495199 0)
(10.3536 0.595716 0)
(10.2934 -0.374698 0)
(10.4203 0.527509 0)
(10.4093 -0.354891 0)
(10.4848 0.418848 0)
(10.5239 -0.374327 0)
(10.5131 0.275701 0)
(10.5993 -0.414806 0)
(10.5157 0.0933008 0)
(10.5971 -0.461775 0)
(10.4767 -0.103321 0)
(10.4996 -0.500213 0)
(10.3572 -0.232118 0)
(10.3647 -0.405703 0)
(10.2661 -0.219837 0)
(10.374 -0.110318 0)
(10.05 0.410937 0)
(10.1755 -0.487333 0)
(10.2548 0.437134 0)
(10.2379 -0.367559 0)
(10.3087 0.367306 0)
(10.3306 -0.345638 0)
(10.3792 0.250794 0)
(10.4246 -0.355357 0)
(10.4226 0.0994103 0)
(10.4823 -0.374943 0)
(10.4462 -0.0797655 0)
(10.4818 -0.403474 0)
(10.433 -0.246736 0)
(10.4261 -0.43131 0)
(10.3773 -0.339251 0)
(10.3687 -0.392703 0)
(10.3572 -0.320602 0)
(10.4224 -0.276616 0)
(10.0153 0.199592 0)
(10.1907 -0.285887 0)
(10.1931 0.167288 0)
(10.2051 -0.179364 0)
(10.2292 0.131627 0)
(10.2791 -0.171444 0)
(10.3061 0.0471964 0)
(10.3626 -0.197861 0)
(10.366 -0.0587603 0)
(10.4142 -0.235823 0)
(10.4055 -0.176069 0)
(10.4267 -0.286529 0)
(10.4124 -0.275058 0)
(10.4113 -0.331745 0)
(10.3995 -0.324205 0)
(10.4067 -0.337291 0)
(10.411 -0.316123 0)
(10.4699 -0.304963 0)
(9.9966 0.0970939 0)
(10.1444 -0.185938 0)
(10.1463 0.0216186 0)
(10.15 -0.133724 0)
(10.1621 -0.00867307 0)
(10.2089 -0.146227 0)
(10.2409 -0.0770087 0)
(10.2919 -0.186797 0)
(10.311 -0.159463 0)
(10.3485 -0.238045 0)
(10.3575 -0.24487 0)
(10.3791 -0.298406 0)
(10.3805 -0.316378 0)
(10.3939 -0.350181 0)
(10.3959 -0.361132 0)
(10.4185 -0.380315 0)
(10.4239 -0.381186 0)
(10.4789 -0.387403 0)
(9.99367 0.0154902 0)
(10.106 -0.0858392 0)
(10.1088 -0.0443501 0)
(10.1138 -0.0932967 0)
(10.1187 -0.074921 0)
(10.1674 -0.118992 0)
(10.198 -0.120657 0)
(10.2518 -0.163903 0)
(10.274 -0.180643 0)
(10.3153 -0.219246 0)
(10.3278 -0.244024 0)
(10.3597 -0.277925 0)
(10.3659 -0.301448 0)
(10.3939 -0.329127 0)
(10.3996 -0.347126 0)
(10.4329 -0.37095 0)
(10.4356 -0.38395 0)
(10.4884 -0.397196 0)
(9.9918 0.00474625 0)
(10.0637 -0.0251751 0)
(10.0567 -0.0349362 0)
(10.0678 -0.0664976 0)
(10.0778 -0.0757433 0)
(10.128 -0.0998052 0)
(10.1573 -0.115994 0)
(10.211 -0.144769 0)
(10.2337 -0.169052 0)
(10.2782 -0.199661 0)
(10.292 -0.226665 0)
(10.33 -0.257153 0)
(10.3384 -0.283449 0)
(10.3731 -0.312199 0)
(10.3789 -0.336966 0)
(10.4153 -0.365715 0)
(10.4147 -0.388245 0)
(10.4635 -0.407689 0)
(9.99156 0.0141605 0)
(10.0467 0.0161629 0)
(10.0398 -0.0105831 0)
(10.0576 -0.0376955 0)
(10.0748 -0.0565524 0)
(10.1255 -0.0778819 0)
(10.1554 -0.0989029 0)
(10.2071 -0.123874 0)
(10.2311 -0.149056 0)
(10.2753 -0.176706 0)
(10.2911 -0.203522 0)
(10.3292 -0.232267 0)
(10.3394 -0.25949 0)
(10.3736 -0.288452 0)
(10.3801 -0.315796 0)
(10.4141 -0.345883 0)
(10.4132 -0.371757 0)
(10.4567 -0.3936 0)
(9.99167 0.032922 0)
(10.0502 0.0496599 0)
(10.0566 0.00993662 0)
(10.0799 -0.0180825 0)
(10.1006 -0.0402524 0)
(10.1506 -0.0615017 0)
(10.1818 -0.0836439 0)
(10.2315 -0.106456 0)
(10.2562 -0.13061 0)
(10.2984 -0.155586 0)
(10.315 -0.181164 0)
(10.3507 -0.207427 0)
(10.3614 -0.233675 0)
(10.3926 -0.260541 0)
(10.3991 -0.287175 0)
(10.4287 -0.315446 0)
(10.4281 -0.341193 0)
(10.4653 -0.362995 0)
(9.98986 0.0407229 0)
(10.0547 0.0526964 0)
(10.0828 -0.00631268 0)
(10.1167 -0.0406555 0)
(10.1419 -0.064114 0)
(10.1903 -0.0822763 0)
(10.2223 -0.102121 0)
(10.269 -0.121047 0)
(10.2935 -0.142801 0)
(10.332 -0.164059 0)
(10.3483 -0.187485 0)
(10.3801 -0.210182 0)
(10.3904 -0.234501 0)
(10.4173 -0.258032 0)
(10.4228 -0.282913 0)
(10.4473 -0.307963 0)
(10.4461 -0.332607 0)
(10.4767 -0.353025 0)
(9.99051 0.0315944 0)
(10.0685 0.0220473 0)
(10.1261 -0.0557233 0)
(10.1769 -0.09675 0)
(10.2125 -0.11979 0)
(10.2609 -0.132766 0)
(10.2937 -0.147816 0)
(10.3361 -0.161712 0)
(10.3601 -0.179901 0)
(10.3941 -0.196998 0)
(10.4103 -0.217452 0)
(10.4377 -0.236345 0)
(10.4478 -0.258101 0)
(10.4701 -0.27818 0)
(10.4753 -0.300874 0)
(10.4946 -0.32251 0)
(10.4939 -0.345375 0)
(10.5186 -0.363675 0)
(9.99115 0.00988687 0)
(10.092 -0.0296777 0)
(10.1869 -0.120817 0)
(10.2595 -0.162763 0)
(10.3093 -0.181132 0)
(10.3589 -0.18718 0)
(10.3929 -0.196072 0)
(10.4304 -0.204417 0)
(10.4542 -0.218169 0)
(10.4836 -0.230815 0)
(10.5001 -0.247681 0)
(10.5232 -0.262721 0)
(10.5337 -0.28144 0)
(10.5516 -0.298138 0)
(10.5572 -0.318208 0)
(10.5718 -0.336553 0)
(10.5722 -0.357144 0)
(10.592 -0.373296 0)
(9.99277 -0.023344 0)
(10.1275 -0.103567 0)
(10.2671 -0.204899 0)
(10.3665 -0.24158 0)
(10.4319 -0.250811 0)
(10.4835 -0.24841 0)
(10.5183 -0.250932 0)
(10.5517 -0.253744 0)
(10.5753 -0.263031 0)
(10.6011 -0.271401 0)
(10.6181 -0.284738 0)
(10.6378 -0.29637 0)
(10.6486 -0.312192 0)
(10.6631 -0.32596 0)
(10.6691 -0.343506 0)
(10.6801 -0.358966 0)
(10.6813 -0.37729 0)
(10.6968 -0.391452 0)
(9.99047 -0.0715778 0)
(10.1744 -0.201133 0)
(10.3679 -0.305443 0)
(10.5001 -0.327856 0)
(10.5805 -0.322572 0)
(10.6344 -0.310213 0)
(10.669 -0.305604 0)
(10.6997 -0.302606 0)
(10.7226 -0.306755 0)
(10.746 -0.310645 0)
(10.7624 -0.319978 0)
(10.7794 -0.328133 0)
(10.7895 -0.340679 0)
(10.8006 -0.351466 0)
(10.8055 -0.366071 0)
(10.8124 -0.378642 0)
(10.8121 -0.394211 0)
(10.8221 -0.406176 0)
(9.992 -0.136346 0)
(10.2447 -0.322982 0)
(10.5027 -0.418988 0)
(10.6712 -0.417623 0)
(10.7627 -0.394179 0)
(10.8175 -0.371119 0)
(10.8494 -0.358963 0)
(10.8771 -0.350616 0)
(10.896 -0.350141 0)
(10.9148 -0.35055 0)
(10.9253 -0.35645 0)
(10.9355 -0.361592 0)
(10.9374 -0.370904 0)
(10.9393 -0.378777 0)
(10.9339 -0.389985 0)
(10.929 -0.39958 0)
(10.9163 -0.411513 0)
(10.9114 -0.420674 0)
(9.98973 -0.219895 0)
(10.3369 -0.468106 0)
(10.6737 -0.539723 0)
(10.8757 -0.508218 0)
(10.9697 -0.464858 0)
(11.0134 -0.428074 0)
(11.0285 -0.40483 0)
(11.0352 -0.388412 0)
(11.029 -0.381458 0)
(11.0194 -0.377017 0)
(10.9979 -0.378241 0)
(10.9734 -0.379157 0)
(10.9376 -0.383889 0)
(10.8998 -0.387377 0)
(10.852 -0.393752 0)
(10.8039 -0.399084 0)
(10.7459 -0.405413 0)
(10.6942 -0.410199 0)
(9.98332 -0.33206 0)
(10.4676 -0.642301 0)
(10.8829 -0.667103 0)
(11.0725 -0.602652 0)
(11.103 -0.537212 0)
(11.0583 -0.483145 0)
(10.9742 -0.445012 0)
(10.8731 -0.41626 0)
(10.7576 -0.398054 0)
(10.6349 -0.383322 0)
(10.5033 -0.374947 0)
(10.3663 -0.366396 0)
(10.2238 -0.36252 0)
(10.0771 -0.357075 0)
(9.92824 -0.355934 0)
(9.7766 -0.353347 0)
(9.62537 -0.353057 0)
(9.47539 -0.351226 0)
(10.0025 -0.453661 0)
(10.619 -0.818949 0)
(10.9017 -0.75208 0)
(10.7932 -0.62377 0)
(10.4937 -0.512559 0)
(10.1375 -0.429213 0)
(9.76999 -0.37359 0)
(9.41742 -0.334751 0)
(9.07657 -0.307325 0)
(8.75516 -0.284646 0)
(8.44611 -0.267694 0)
(8.15295 -0.251374 0)
(7.87213 -0.240087 0)
(7.60249 -0.227386 0)
(7.34761 -0.221182 0)
(7.09801 -0.211874 0)
(6.86952 -0.210907 0)
(6.64002 -0.204233 0)
(10.0974 -0.750788 0)
(10.0458 -1.0132 0)
(9.42494 -0.801097 0)
(8.51438 -0.572193 0)
(7.65489 -0.378734 0)
(6.9287 -0.24489 0)
(6.32708 -0.167532 0)
(5.83131 -0.126263 0)
(5.40884 -0.10472 0)
(5.0482 -0.0923412 0)
(4.72805 -0.0849823 0)
(4.44727 -0.0793717 0)
(4.19082 -0.0758283 0)
(3.96187 -0.0719108 0)
(3.75012 -0.0721547 0)
(3.55491 -0.0691039 0)
(3.38264 -0.0802905 0)
(3.2177 -0.0828855 0)
(8.51677 -0.436055 0)
(6.11026 -0.380893 0)
(4.29832 -0.13806 0)
(3.12381 -0.0213936 0)
(2.481 0.0191293 0)
(2.12037 0.0224675 0)
(1.89611 0.0137083 0)
(1.73477 0.00461001 0)
(1.59872 -0.00157375 0)
(1.47795 -0.00479503 0)
(1.36583 -0.00640846 0)
(1.26365 -0.0067229 0)
(1.16797 -0.00671055 0)
(1.08122 -0.00639264 0)
(0.999167 -0.00666078 0)
(0.918914 -0.00703816 0)
(0.851392 -0.0186155 0)
(0.730843 -0.00614559 0)
(-0.051995 0.137831 0)
(-0.156859 0.0713441 0)
(-0.206696 0.0163021 0)
(-0.194749 -0.0444697 0)
(-0.117422 -0.0991521 0)
(0.0128174 -0.145156 0)
(0.186898 -0.175673 1.11353e-17)
(0.388663 -0.193614 -1.10603e-17)
(0.606891 -0.197981 0)
(0.829253 -0.192692 -1.09171e-17)
(1.04636 -0.178326 0)
(1.24924 -0.157531 0)
(1.43133 -0.130868 0)
(1.58735 -0.101486 1.06426e-17)
(1.71467 -0.0702186 0)
(1.81052 -0.0381394 0)
(1.87401 -0.00598359 -1.04454e-17)
(1.9059 0.0242801 0)
(1.90784 0.0507337 0)
(1.88192 0.0724278 0)
(1.83184 0.089347 1.01961e-17)
(1.76018 0.100847 0)
(1.67088 0.108674 1.00742e-17)
(1.56562 0.111532 0)
(1.44905 0.10959 0)
(1.3239 0.107898 9.8955e-18)
(1.19042 0.111174 0)
(1.04784 0.116285 -9.77917e-18)
(0.899361 0.121528 0)
(0.745545 0.126578 9.6643e-18)
(0.587924 0.130596 0)
(0.428763 0.133076 0)
(0.270316 0.134256 0)
(0.11307 0.134065 0)
(-0.0426631 0.131214 0)
(-0.194813 0.126564 -9.32967e-18)
(-0.341723 0.120482 0)
(-0.482961 0.113992 1.84407e-17)
(-0.617071 0.107489 0)
(-0.743607 0.100239 -1.82217e-17)
(-0.861104 0.0931748 0)
(-0.969717 0.0863664 0)
(-1.0699 0.0785823 1.78885e-17)
(-1.16117 0.0701863 0)
(-1.24417 0.0624564 1.76652e-17)
(-1.31899 0.0552073 -1.75531e-17)
(-1.38514 0.0482095 0)
(-1.44344 0.0421696 -1.73282e-17)
(-1.49501 0.0368507 -1.72151e-17)
(-1.53882 0.0331788 0)
(-1.57506 0.0315907 0)
(-1.60559 0.0315753 0)
(-1.63256 0.0316735 0)
(-1.65694 0.0316481 0)
(-1.68014 0.0325074 1.65281e-17)
(-1.70397 0.0340449 0)
(-1.72978 0.0362718 -1.62988e-17)
(-1.7563 0.0383103 0)
(-1.78233 0.0389431 0)
(-1.80784 0.0395681 1.59524e-17)
(-1.83357 0.0413561 0)
(-1.86138 0.0425849 -1.57211e-17)
(-1.89118 0.0442369 0)
(-1.92277 0.0457279 0)
(-1.95573 0.0465945 0)
(-1.98947 0.0477987 1.52555e-17)
(-2.02365 0.0496243 0)
(-2.05852 0.0518395 0)
(-2.09387 0.0542418 1.49058e-17)
(-2.12999 0.055709 0)
(-2.16391 0.0559556 1.46711e-17)
(-2.19476 0.0563467 0)
(-2.22241 0.0565465 0)
(-2.24585 0.0563916 0)
(-2.26412 0.0558007 -1.4205e-17)
(-2.2765 0.0545826 0)
(-2.28366 0.0538679 0)
(-2.28754 0.0538078 -1.38612e-17)
(-2.28855 0.0528554 -1.37478e-17)
(-2.28498 0.0512128 0)
(-2.27504 0.0489602 -1.35225e-17)
(-2.25858 0.0460452 0)
(-2.23519 0.0428909 -2.66021e-17)
(-2.20489 0.0394581 0)
(-2.1682 0.0357822 -2.61666e-17)
(-2.12496 0.0327279 0)
(-2.07623 0.0303291 2.57377e-17)
(-2.02284 0.028356 0)
(-1.96486 0.0269158 0)
(-1.90294 0.0259404 0)
(-1.8386 0.0253596 -2.49006e-17)
(-1.77161 0.0250931 0)
(-1.70359 0.025048 2.44989e-17)
(-1.6346 0.0256282 0)
(-1.56536 0.0266867 -2.41095e-17)
(-1.49785 0.02923 -2.39209e-17)
(-1.43123 0.0303928 -2.37366e-17)
(-1.36452 0.0314659 0)
(-1.29961 0.0315351 0)
(-1.23532 0.0327212 0)
(-1.16981 0.0334815 0)
(-1.1052 0.0330636 0)
(-1.03559 0.0319066 0)
(-0.966931 0.0332088 0)
(-0.896074 0.0328262 0)
(-0.82909 0.0351795 2.22129e-17)
(-0.761827 0.0357559 2.20607e-17)
(-0.69969 0.0402421 0)
(-0.639215 0.0415049 0)
(-0.583648 0.04113 0)
(-0.516155 0.0384747 2.14803e-17)
(-0.453927 0.0426 0)
(-0.384939 0.0407789 0)
(-0.319947 0.0436783 0)
(-0.248907 0.0405673 0)
(-0.175874 0.0430742 -2.0806e-17)
(-0.10077 0.0446776 0)
(-0.020174 0.0437361 0)
(0.0651322 0.0450271 2.0429e-17)
(0.15432 0.0449552 -2.03074e-17)
(0.246589 0.044262 0)
(0.34346 0.0481364 -2.00747e-17)
(0.435535 0.0511298 0)
(0.528525 0.0543986 1.98483e-17)
(0.611229 0.0591348 0)
(0.682805 0.0621603 0)
(0.758114 0.0625319 0)
(0.827169 0.0633203 0)
(0.906393 0.0605413 0)
(0.97942 0.061112 -3.83967e-17)
(1.05456 0.0627992 -3.81777e-17)
(1.11384 0.0677004 0)
(1.16365 0.0664161 0)
(1.20879 0.0673643 0)
(1.24665 0.0633792 3.72528e-17)
(1.29564 0.0586787 0)
(1.34589 0.0570675 0)
(1.39144 0.0559121 0)
(1.4401 0.0540702 3.62325e-17)
(1.47709 0.0567466 -3.59643e-17)
(1.52006 0.0526599 0)
(1.55919 0.0526934 0)
(1.60065 0.0531558 -3.51496e-17)
(1.62673 0.0582761 -3.48768e-17)
(1.65656 0.0549771 0)
(1.68483 0.0587562 0)
(1.72379 0.0557287 3.40438e-17)
(1.76009 0.0659641 -3.37644e-17)
(1.7683 0.0713569 0)
(1.78184 0.0707477 0)
(1.80718 0.0710727 -3.29276e-17)
(1.84043 0.0758342 0)
(1.85408 0.0833826 0)
(1.86556 0.0891459 -3.20837e-17)
(1.86487 0.0932661 0)
(1.87903 0.0981202 -3.15237e-17)
(1.88101 0.105082 0)
(1.88676 0.109154 0)
(1.87409 0.120682 0)
(1.86086 0.126549 3.04345e-17)
(1.84611 0.133017 0)
(1.81425 0.142948 0)
(1.74199 0.154625 0)
(1.66546 0.154519 0)
(1.60063 0.156693 0)
(1.5111 0.165536 0)
(1.38329 0.172389 2.88936e-17)
(1.26433 0.173776 2.87396e-17)
(1.0803 0.181795 0)
(0.873314 0.184483 0)
(0.630198 0.183469 0)
(0.414269 0.169776 -2.8322e-17)
(0.192441 0.162698 0)
(0.0407839 0.146504 5.63489e-17)
(-0.159574 0.143937 -5.62393e-17)
(-0.262773 0.123697 -5.60598e-17)
(-0.424216 0.126743 5.59557e-17)
(-0.459177 0.0965751 -5.57532e-17)
(-0.616463 0.129087 5.57331e-17)
(-0.564017 -0.00405527 0)
(0.0101235 0.248506 0)
(0.0146661 0.191628 0)
(0.0498374 0.00744124 -2.27959e-17)
(0.121203 -0.198555 0)
(0.236113 -0.384442 2.23646e-17)
(0.388399 -0.535768 2.22179e-17)
(0.569511 -0.644592 1.10436e-17)
(0.769341 -0.71049 1.09812e-17)
(0.976577 -0.737048 0)
(1.18066 -0.730715 1.08541e-17)
(1.37292 -0.694802 0)
(1.54608 -0.636414 0)
(1.69614 -0.561693 -2.13198e-17)
(1.81839 -0.477156 -1.05947e-17)
(1.91277 -0.385129 2.10554e-17)
(1.97752 -0.290506 2.09219e-17)
(2.01398 -0.198144 1.03953e-17)
(2.02225 -0.110099 0)
(2.00478 -0.0271207 0)
(1.96157 0.0475454 0)
(1.89648 0.112934 1.01364e-17)
(1.80959 0.171929 0)
(1.70557 0.224684 -3.00369e-17)
(1.58325 0.267363 0)
(1.44494 0.302203 0)
(1.29117 0.332663 -9.8318e-18)
(1.12541 0.356527 0)
(0.950395 0.373716 9.71549e-18)
(0.769946 0.384696 1.93126e-17)
(0.584959 0.391937 -9.59754e-18)
(0.398224 0.394066 0)
(0.211003 0.390338 0)
(0.02297 0.383116 0)
(-0.165363 0.376189 1.87312e-17)
(-0.35222 0.367619 1.86168e-17)
(-0.536309 0.355352 9.25137e-18)
(-0.71489 0.340585 0)
(-0.888484 0.323493 -1.82764e-17)
(-1.05317 0.302929 0)
(-1.21121 0.281001 1.8051e-17)
(-1.36102 0.258487 0)
(-1.50423 0.235635 0)
(-1.6393 0.215209 -1.77168e-17)
(-1.76717 0.196095 0)
(-1.89029 0.17814 -5.24869e-17)
(-2.00771 0.159368 1.73858e-17)
(-2.11854 0.140459 0)
(-2.22239 0.123602 1.71656e-17)
(-2.32009 0.106031 1.70553e-17)
(-2.4104 0.0865474 0)
(-2.49149 0.0676502 0)
(-2.56547 0.0531288 0)
(-2.63422 0.04366 0)
(-2.69966 0.038774 0)
(-2.76125 0.0373392 -1.63737e-17)
(-2.82092 0.0367969 -3.25152e-17)
(-2.87904 0.0368254 1.61414e-17)
(-2.93274 0.0342032 0)
(-2.98415 0.0302369 -3.1813e-17)
(-3.03339 0.0288903 1.57875e-17)
(-3.07981 0.0298559 0)
(-3.12723 0.030774 1.55499e-17)
(-3.17246 0.0334566 0)
(-3.21569 0.0348691 0)
(-3.2573 0.0344129 3.03753e-17)
(-3.29793 0.0337649 -1.50673e-17)
(-3.33403 0.0316852 2.98918e-17)
(-3.36758 0.0288977 -2.96505e-17)
(-3.39514 0.0251805 -1.47046e-17)
(-3.41951 0.0203334 0)
(-3.4375 0.0127551 -1.44628e-17)
(-3.44876 0.00257384 0)
(-3.45434 -0.00810915 0)
(-3.45153 -0.0205712 0)
(-3.43956 -0.0347478 -1.39829e-17)
(-3.41937 -0.0487181 0)
(-3.39269 -0.058828 -2.74948e-17)
(-3.36024 -0.0659273 4.08938e-17)
(-3.32246 -0.0743873 1.35161e-17)
(-3.27845 -0.0853781 0)
(-3.22655 -0.0980238 1.32876e-17)
(-3.16943 -0.110633 0)
(-3.1067 -0.122634 2.61236e-17)
(-3.03887 -0.13359 0)
(-2.96607 -0.144024 2.56805e-17)
(-2.88821 -0.153335 -5.09211e-17)
(-2.80646 -0.162185 -2.52466e-17)
(-2.72237 -0.170146 0)
(-2.63326 -0.177704 0)
(-2.54193 -0.183383 0)
(-2.44836 -0.187575 2.44065e-17)
(-2.35149 -0.191636 0)
(-2.25338 -0.194325 -2.40003e-17)
(-2.15532 -0.194669 0)
(-2.05671 -0.19617 7.08196e-17)
(-1.95825 -0.19541 2.34164e-17)
(-1.85922 -0.196354 2.32303e-17)
(-1.7624 -0.193526 0)
(-1.66797 -0.192955 0)
(-1.57296 -0.193866 0)
(-1.47541 -0.194561 0)
(-1.3788 -0.197041 0)
(-1.2765 -0.201395 4.43212e-17)
(-1.18049 -0.19961 4.39853e-17)
(-1.08109 -0.19972 0)
(-0.994026 -0.193978 -2.16752e-17)
(-0.897968 -0.194857 -2.15232e-17)
(-0.811055 -0.188149 0)
(-0.716429 -0.187136 -4.24438e-17)
(-0.638057 -0.186475 0)
(-0.541665 -0.196782 2.09377e-17)
(-0.455754 -0.190967 0)
(-0.349842 -0.199462 0)
(-0.255013 -0.19605 -4.10578e-17)
(-0.141611 -0.204819 0)
(-0.0372504 -0.204882 2.02723e-17)
(0.0883377 -0.212674 0)
(0.215179 -0.220411 0)
(0.351796 -0.225045 1.98871e-17)
(0.493176 -0.22968 1.97708e-17)
(0.639348 -0.23529 0)
(0.789402 -0.235925 -1.95334e-17)
(0.949611 -0.237068 0)
(1.10923 -0.228906 1.92967e-17)
(1.27451 -0.219174 3.83633e-17)
(1.42241 -0.212644 0)
(1.57938 -0.213501 0)
(1.72401 -0.21339 0)
(1.88331 -0.214707 0)
(2.02934 -0.209679 3.7231e-17)
(2.18299 -0.206395 1.11008e-16)
(2.31852 -0.187243 0)
(2.44172 -0.182843 0)
(2.56067 -0.172963 0)
(2.66612 -0.175098 -3.60804e-17)
(2.76924 -0.179751 0)
(2.87081 -0.178976 0)
(2.96635 -0.177184 7.06164e-17)
(3.06014 -0.176299 3.50337e-17)
(3.13377 -0.170209 3.47648e-17)
(3.22073 -0.179628 0)
(3.28448 -0.173658 0)
(3.3525 -0.17504 3.39205e-17)
(3.39854 -0.164024 -3.36149e-17)
(3.44438 -0.178113 0)
(3.47351 -0.17474 0)
(3.5078 -0.190893 -3.27224e-17)
(3.53567 -0.173027 9.71909e-17)
(3.55016 -0.168776 0)
(3.56062 -0.179675 0)
(3.57192 -0.191377 3.14609e-17)
(3.59241 -0.189298 0)
(3.58818 -0.182876 6.16284e-17)
(3.58627 -0.180993 -3.04732e-17)
(3.55907 -0.185366 0)
(3.55502 -0.194298 2.98472e-17)
(3.53076 -0.190778 5.90596e-17)
(3.51929 -0.192351 0)
(3.47293 -0.185582 0)
(3.44916 -0.194479 -2.85768e-17)
(3.40924 -0.186542 0)
(3.35203 -0.169215 5.58923e-17)
(3.25538 -0.150079 0)
(3.16372 -0.15547 0)
(3.04507 -0.147218 0)
(2.91682 -0.122 0)
(2.72235 -0.102708 -2.66552e-17)
(2.56346 -0.0757876 -2.6466e-17)
(2.27926 -0.0262938 0)
(2.00606 -0.00141811 0)
(1.67666 0.0227984 0)
(1.38181 0.0188914 2.59605e-17)
(1.04884 0.0231458 0)
(0.841952 0.013966 -5.16728e-17)
(0.521694 0.0329478 5.16455e-17)
(0.407181 0.00117708 5.14966e-17)
(0.126186 0.0319276 5.14865e-17)
(0.126815 -0.0161005 5.13338e-17)
(-0.169155 0.0786717 5.14971e-17)
(0.0178558 -0.117291 0)
(0.0290204 0.0708734 0)
(0.121049 -0.0387327 0)
(0.228008 -0.241822 2.29128e-17)
(0.340021 -0.468493 2.26643e-17)
(0.474381 -0.692927 -2.25128e-17)
(0.618406 -0.874748 -2.24002e-17)
(0.772539 -1.00338 -1.48158e-21)
(0.923751 -1.07365 0)
(1.06877 -1.08438 0)
(1.19542 -1.04512 0)
(1.30402 -0.965138 0)
(1.38979 -0.85569 0)
(1.45513 -0.725056 6.4712e-17)
(1.49555 -0.58477 0)
(1.51388 -0.439891 -2.13049e-17)
(1.50834 -0.293401 -2.11686e-17)
(1.4818 -0.151975 0)
(1.43285 -0.0184789 0)
(1.36613 0.105355 0)
(1.28142 0.217748 0)
(1.18103 0.316938 -2.05025e-17)
(1.06582 0.399789 0)
(0.9408 0.471964 2.02486e-17)
(0.803237 0.536883 0)
(0.656002 0.591567 0)
(0.500436 0.636352 0)
(0.341939 0.672217 3.95254e-17)
(0.179502 0.699389 0)
(0.0156271 0.718774 -1.95226e-17)
(-0.149216 0.729093 3.88005e-17)
(-0.313275 0.732168 0)
(-0.479547 0.733804 0)
(-0.645979 0.730706 0)
(-0.811184 0.72113 -1.89168e-17)
(-0.97275 0.705808 -1.8796e-17)
(-1.13109 0.684247 0)
(-1.28461 0.656886 0)
(-1.43255 0.625323 3.68593e-17)
(-1.57352 0.591234 3.66196e-17)
(-1.71276 0.556849 -3.63814e-17)
(-1.84696 0.524093 0)
(-1.97937 0.490557 0)
(-2.10616 0.45837 0)
(-2.22926 0.428989 0)
(-2.34813 0.401305 3.52005e-17)
(-2.46099 0.372048 3.49669e-17)
(-2.56871 0.342414 -3.47349e-17)
(-2.67084 0.313887 0)
(-2.76688 0.285999 0)
(-2.8576 0.257005 0)
(-2.94299 0.230187 0)
(-3.02841 0.212398 3.35757e-17)
(-3.1079 0.196502 0)
(-3.18236 0.183301 0)
(-3.25031 0.175507 3.28781e-17)
(-3.31359 0.170327 3.26465e-17)
(-3.37149 0.16343 0)
(-3.42176 0.154042 -6.43599e-17)
(-3.47009 0.147154 3.19486e-17)
(-3.51445 0.140705 -3.17142e-17)
(-3.55305 0.136935 0)
(-3.58872 0.134248 0)
(-3.61837 0.130087 0)
(-3.64312 0.125873 0)
(-3.6653 0.120662 -3.05527e-17)
(-3.68321 0.113263 -6.06462e-17)
(-3.69486 0.105304 -3.00975e-17)
(-3.70279 0.0968273 2.98726e-17)
(-3.70354 0.0852136 0)
(-3.69919 0.0719587 -5.88396e-17)
(-3.68686 0.0558878 -5.8391e-17)
(-3.66925 0.0397374 -5.79459e-17)
(-3.6474 0.0219788 5.7504e-17)
(-3.61675 -0.000267054 0)
(-3.57916 -0.0229046 8.49401e-17)
(-3.53575 -0.0423373 0)
(-3.48761 -0.0577344 -2.78771e-17)
(-3.43089 -0.07143 -2.76642e-17)
(-3.36624 -0.0869057 0)
(-3.29544 -0.103558 0)
(-3.22118 -0.120139 -5.40398e-17)
(-3.14473 -0.134862 0)
(-3.06431 -0.148979 -5.31927e-17)
(-2.98138 -0.16251 0)
(-2.89391 -0.176776 5.23539e-17)
(-2.80296 -0.188062 1.0388e-16)
(-2.70832 -0.197733 0)
(-2.61289 -0.206925 0)
(-2.51441 -0.214453 0)
(-2.41727 -0.220708 5.02901e-17)
(-2.3183 -0.226564 0)
(-2.21608 -0.23129 4.94685e-17)
(-2.111 -0.234588 0)
(-2.00549 -0.233815 0)
(-1.89758 -0.233901 -9.65043e-17)
(-1.79244 -0.231384 0)
(-1.68537 -0.230765 -4.74609e-17)
(-1.58255 -0.224658 0)
(-1.4755 -0.225402 -4.66931e-17)
(-1.36928 -0.224663 0)
(-1.2608 -0.223877 0)
(-1.15363 -0.227805 0)
(-1.04352 -0.230247 -1.35691e-16)
(-0.943689 -0.221911 -4.48691e-17)
(-0.834917 -0.218628 0)
(-0.741922 -0.208209 0)
(-0.64014 -0.209698 0)
(-0.554564 -0.197527 0)
(-0.450259 -0.193875 4.3235e-17)
(-0.36423 -0.18873 -8.58345e-17)
(-0.257129 -0.205566 -4.26322e-17)
(-0.16978 -0.198005 8.46563e-17)
(-0.0498607 -0.214247 8.40933e-17)
(0.0521098 -0.210268 4.17607e-17)
(0.182345 -0.225442 0)
(0.2953 -0.226111 8.23962e-17)
(0.434542 -0.24234 0)
(0.567145 -0.251621 -8.12855e-17)
(0.715951 -0.258582 -4.03846e-17)
(0.862698 -0.263276 0)
(1.01809 -0.271622 7.97633e-17)
(1.16764 -0.274526 3.96285e-17)
(1.33025 -0.28248 0)
(1.48931 -0.28026 3.909e-17)
(1.66348 -0.269567 -1.16508e-16)
(1.82293 -0.25707 0)
(1.98742 -0.255747 0)
(2.13906 -0.25516 0)
(2.29909 -0.258121 0)
(2.45504 -0.253376 -7.51551e-17)
(2.61038 -0.250286 -7.46565e-17)
(2.76106 -0.219216 0)
(2.89853 -0.213952 0)
(3.02941 -0.201899 0)
(3.15103 -0.200562 0)
(3.25822 -0.205704 0)
(3.37795 -0.208529 0)
(3.49128 -0.207575 -7.0953e-17)
(3.60486 -0.20502 -1.6512e-20)
(3.69815 -0.195673 0)
(3.80819 -0.208955 0)
(3.89608 -0.196579 -6.86075e-17)
(3.98908 -0.197286 0)
(4.06721 -0.176406 6.74267e-17)
(4.13711 -0.187332 6.68096e-17)
(4.17824 -0.169981 0)
(4.23274 -0.188531 0)
(4.27073 -0.16452 -6.49013e-17)
(4.32099 -0.155842 -1.28513e-16)
(4.3483 -0.160081 0)
(4.38134 -0.172269 0)
(4.42272 -0.163244 0)
(4.43611 -0.149017 -6.16938e-17)
(4.46459 -0.13584 6.10064e-17)
(4.46413 -0.135445 0)
(4.48362 -0.141533 1.19379e-16)
(4.46736 -0.129657 5.90355e-17)
(4.4842 -0.128255 -1.16779e-16)
(4.46204 -0.109823 0)
(4.46083 -0.116911 0)
(4.43111 -0.09565 -1.12763e-16)
(4.39065 -0.0678696 -5.5722e-17)
(4.30705 -0.0385607 0)
(4.24356 -0.0366482 0)
(4.11163 -0.0186796 0)
(4.002 0.0243822 0)
(3.79005 0.0523112 -1.05601e-16)
(3.62152 0.0958494 0)
(3.32345 0.167214 0)
(3.06467 0.19186 0)
(2.71487 0.219449 0)
(2.40132 0.202738 0)
(2.01277 0.186625 0)
(1.7763 0.153421 -1.00646e-16)
(1.37141 0.150818 0)
(1.24303 0.0829619 0)
(0.859172 0.105107 -1.99431e-16)
(0.854939 0.0223434 9.92545e-17)
(0.470008 0.111071 -9.9408e-17)
(0.666048 -0.128527 9.87885e-17)
(0.0206234 -0.0943065 0)
(0.124984 -0.269616 -4.69557e-17)
(0.247634 -0.490031 0)
(0.37546 -0.755322 -2.27966e-17)
(0.50198 -0.998772 0)
(0.617887 -1.18743 0)
(0.722239 -1.3049 2.24455e-17)
(0.802539 -1.34801 0)
(0.865055 -1.31796 0)
(0.903908 -1.23203 0)
(0.925584 -1.10915 0)
(0.927963 -0.959754 0)
(0.915859 -0.792482 -8.66156e-17)
(0.886639 -0.615192 -4.30251e-17)
(0.843795 -0.432308 4.27456e-17)
(0.787074 -0.251163 0)
(0.71852 -0.0784537 0)
(0.636815 0.0829036 0)
(0.545411 0.231508 0)
(0.443833 0.364676 0)
(0.334843 0.48201 -4.11507e-17)
(0.216619 0.583624 -4.08982e-17)
(0.0904927 0.674088 4.0649e-17)
(-0.0414 0.749908 -4.04014e-17)
(-0.177399 0.812563 0)
(-0.316141 0.860594 0)
(-0.456373 0.896542 -3.96583e-17)
(-0.596904 0.921143 0)
(-0.73831 0.935159 0)
(-0.88022 0.943648 -3.89251e-17)
(-1.02269 0.949009 -3.86818e-17)
(-1.16299 0.946606 -3.84373e-17)
(-1.3002 0.937429 0)
(-1.43415 0.922064 0)
(-1.56352 0.90052 3.76936e-17)
(-1.68789 0.87082 0)
(-1.80831 0.835236 0)
(-1.92515 0.795743 -3.69487e-17)
(-2.03898 0.757747 3.66971e-17)
(-2.15129 0.719669 -3.64483e-17)
(-2.25715 0.680965 0)
(-2.36137 0.641642 0)
(-2.46155 0.605368 -7.14192e-17)
(-2.559 0.571188 0)
(-2.65111 0.533113 -7.04534e-17)
(-2.73975 0.495046 -1.04963e-16)
(-2.82474 0.459203 1.04242e-16)
(-2.90442 0.422885 -6.90144e-17)
(-2.98091 0.385607 0)
(-3.05479 0.349957 0)
(-3.12822 0.321759 -6.76021e-17)
(-3.19888 0.297246 -3.35706e-17)
(-3.26318 0.271657 0)
(-3.32332 0.250575 0)
(-3.37888 0.235217 -3.28785e-17)
(-3.429 0.218349 -6.52973e-17)
(-3.47289 0.199376 0)
(-3.51081 0.181437 6.43794e-17)
(-3.54487 0.167031 -6.39203e-17)
(-3.57355 0.153416 6.34645e-17)
(-3.59645 0.139524 0)
(-3.61312 0.126277 0)
(-3.62537 0.115121 0)
(-3.63228 0.103913 0)
(-3.63553 0.0937395 0)
(-3.63337 0.0778635 6.07746e-17)
(-3.62686 0.0606518 0)
(-3.61369 0.0419505 0)
(-3.59476 0.0209041 0)
(-3.57177 -0.0010845 1.18047e-16)
(-3.54326 -0.0251045 5.85913e-17)
(-3.51 -0.049142 5.81577e-17)
(-3.47172 -0.0761304 -1.15457e-16)
(-3.42705 -0.107499 5.73033e-17)
(-3.37899 -0.137504 -5.68838e-17)
(-3.3247 -0.164996 0)
(-3.26556 -0.190963 5.60368e-17)
(-3.19652 -0.217604 0)
(-3.12331 -0.242684 0)
(-3.04452 -0.264462 0)
(-2.96425 -0.285113 1.08717e-16)
(-2.88187 -0.304178 -5.39452e-17)
(-2.79622 -0.323115 -5.35318e-17)
(-2.70938 -0.341852 -1.06269e-16)
(-2.61859 -0.361644 -1.58213e-16)
(-2.52685 -0.377404 -5.23422e-17)
(-2.43034 -0.390259 0)
(-2.33425 -0.401686 -1.03068e-16)
(-2.23664 -0.409767 0)
(-2.1392 -0.41617 -1.52201e-16)
(-2.04095 -0.426169 0)
(-1.94386 -0.432639 -1.49828e-16)
(-1.84069 -0.439008 0)
(-1.73709 -0.439676 0)
(-1.62872 -0.441217 -4.8746e-17)
(-1.52181 -0.437919 0)
(-1.41155 -0.437448 4.79715e-17)
(-1.30607 -0.432762 9.51551e-17)
(-1.19271 -0.434461 4.7203e-17)
(-1.08328 -0.436311 9.36485e-17)
(-0.965317 -0.436966 -9.28917e-17)