/*--------------------------------*- C++ -*----------------------------------*\
| =========                 |                                                 |
| \\      /  F ield         | OpenFOAM: The Open Source CFD Toolbox           |
|  \\    /   O peration     | Version:  dev                                   |
|   \\  /    A nd           | Web:      http://www.openfoam.org               |
|    \\/     M anipulation  |                                                 |
\*---------------------------------------------------------------------------*/
FoamFile
{
    version     2.0;
    format      ascii;
    class       volSymmTensorField;
    object      UPrime2Mean;
    location    "9.137";
}
// * * * * * * * * * * * * * * * * * * * * * * * * * * * * * * * * * * * * * //

dimensions      [0 2 -2 0 0 0 0];

internalField   nonuniform List<symmTensor> 
12225
(
(0.329417 0.0192669 0 0.0692741 0 0)
(2.9878 0.0796777 0 0.0781987 0 0)
(7.88466 0.112275 0 0.076902 0 0)
(14.5422 0.148185 0 0.0755788 0 0)
(22.7149 0.132934 0 0.0765232 0 0)
(32.0837 0.201035 0 0.0746814 0 0)
(42.401 0.0959061 0 0.0766198 0 0)
(53.5497 0.200325 0 0.0738604 0 0)
(65.6486 -0.028436 0 0.0776186 0 0)
(78.2506 0.12561 0 0.073629 0 0)
(93.0026 -0.306139 0 0.0813152 0 0)
(107.349 -0.115805 0 0.0770017 0 0)
(127.966 -0.67192 0 0.0863076 0 0)
(145.67 -1.27732 0 0.134743 0 0)
(186.01 -1.4106 0 0.116475 0 0)
(198.58 -0.393365 0 2.39441 0 0)
(272.386 -33.5442 0 5.80984 0 0)
(575.939 -52.945 0 18.8286 0 0)
(0.377615 0.0567918 0 0.689051 0 0)
(3.15783 0.252197 0 0.732348 0 0)
(8.41544 0.362042 0 0.714207 0 0)
(15.4818 0.485316 0 0.706703 0 0)
(24.2101 0.452856 0 0.703562 0 0)
(34.4745 0.632767 0 0.683404 0 0)
(45.5469 0.29599 0 0.692175 0 0)
(58.5088 0.609023 0 0.658872 0 0)
(71.5044 -0.135044 0 0.68269 0 0)
(87.1863 0.282777 0 0.646056 0 0)
(102.825 -1.06472 0 0.71133 0 0)
(121.476 -0.765845 0 0.65555 0 0)
(142.903 -2.54181 0 1.0691 0 0)
(166.376 -4.49108 0 1.04718 0 0)
(199.839 -0.92458 0 3.10382 0 0)
(274.488 -9.97448 0 6.61019 0 0)
(281.11 -20.8403 0 8.73901 0 0)
(800.083 -185.217 0 64.7132 0 0)
(0.505222 0.0583327 0 2.14083 0 0)
(3.06566 0.424572 0 2.20276 0 0)
(8.47047 0.570396 0 2.15168 0 0)
(14.8605 0.851808 0 2.14315 0 0)
(24.2881 0.864389 0 2.12006 0 0)
(33.1675 1.05305 0 2.08285 0 0)
(45.2922 0.756249 0 2.07858 0 0)
(56.2294 0.886392 0 2.00781 0 0)
(69.7168 0.172523 0 2.0519 0 0)
(83.486 0.0170672 0 1.95955 0 0)
(98.2281 -1.12262 0 2.12272 0 0)
(115.713 -2.44809 0 2.09469 0 0)
(138.676 -3.5949 0 2.62263 0 0)
(154.936 -7.19785 0 2.83157 0 0)
(211.088 -13.0121 0 6.12454 0 0)
(223.482 -7.88414 0 6.3803 0 0)
(353.128 -62.266 0 31.0885 0 0)
(534.762 -192.582 0 98.2893 0 0)
(1.03029 0.092329 0 4.67101 0 0)
(3.55157 0.619444 0 4.76759 0 0)
(9.07402 0.815686 0 4.64338 0 0)
(15.0744 1.14982 0 4.60261 0 0)
(24.6492 1.3128 0 4.55834 0 0)
(33.0007 1.3498 0 4.48397 0 0)
(45.0273 1.26144 0 4.44899 0 0)
(55.1952 0.973453 0 4.3504 0 0)
(68.6329 0.476218 0 4.38215 0 0)
(80.7515 -0.282653 0 4.25841 0 0)
(96.0796 -1.33023 0 4.50773 0 0)
(110.565 -3.34188 0 4.3728 0 0)
(131.531 -4.79257 0 5.30259 0 0)
(152.318 -10.9718 0 5.60913 0 0)
(187.944 -11.4275 0 9.28845 0 0)
(238.515 -28.8595 0 16.8279 0 0)
(291.608 -58.9367 0 32.6858 0 0)
(414.961 -178.349 0 107.841 0 0)
(1.86423 0.365038 0 8.52376 0 0)
(5.01095 0.720107 0 8.72527 0 0)
(9.44103 1.13989 0 8.47407 0 0)
(16.2491 1.2944 0 8.37092 0 0)
(24.6618 1.70074 0 8.28132 0 0)
(33.9622 1.50226 0 8.14618 0 0)
(44.8427 1.59788 0 8.04549 0 0)
(55.548 0.992864 0 7.91334 0 0)
(68.4473 0.600709 0 7.86027 0 0)
(80.1575 -0.593635 0 7.76228 0 0)
(95.4143 -1.77874 0 7.96393 0 0)
(108.605 -4.22736 0 7.91086 0 0)
(128.152 -6.88059 0 9.02776 0 0)
(145.286 -12.2875 0 9.26916 0 0)
(174.044 -19.2019 0 14.5912 0 0)
(217.99 -25.9523 0 17.2127 0 0)
(233.793 -55.5834 0 46.2705 0 0)
(326.774 -171.778 0 138.683 0 0)
(2.56317 0.75072 0 14.0417 0 0)
(6.32831 0.807053 0 14.3936 0 0)
(9.30582 1.53983 0 13.9636 0 0)
(17.1053 1.5943 0 13.7689 0 0)
(24.1541 2.12052 0 13.5941 0 0)
(34.2834 1.93634 0 13.362 0 0)
(43.9988 1.99109 0 13.1567 0 0)
(55.1986 1.41528 0 12.9159 0 0)
(67.3609 0.894627 0 12.779 0 0)
(78.9482 -0.386002 0 12.5779 0 0)
(94.4698 -1.73802 0 12.7781 0 0)
(105.88 -4.31247 0 12.6864 0 0)
(128.168 -7.26746 0 13.9885 0 0)
(138.002 -13.1582 0 14.6689 0 0)
(171.04 -21.8379 0 21.252 0 0)
(191.567 -33.0438 0 24.6043 0 0)
(211.169 -55.9219 0 51.58 0 0)
(265.753 -145.682 0 130.658 0 0)
(2.24677 0.722042 0 21.5351 0 0)
(5.5485 0.94137 0 22.1514 0 0)
(9.20566 1.76349 0 21.3768 0 0)
(16.3502 2.07754 0 21.189 0 0)
(23.9881 2.44945 0 20.7902 0 0)
(33.3837 2.54258 0 20.557 0 0)
(43.6375 2.2737 0 20.0886 0 0)
(54.0795 1.928 0 19.8585 0 0)
(66.5237 0.896271 0 19.4404 0 0)
(77.4026 -0.218486 0 19.2874 0 0)
(92.5686 -2.37245 0 19.2273 0 0)
(103.55 -4.82307 0 19.2699 0 0)
(123.708 -8.98283 0 20.4793 0 0)
(133.988 -14.2619 0 21.4575 0 0)
(161.615 -24.4039 0 28.5194 0 0)
(169.458 -32.4178 0 32.0558 0 0)
(203.463 -59.0183 0 56.8666 0 0)
(190.341 -108.79 0 114.165 0 0)
(1.4258 0.599039 0 29.758 0 0)
(4.32477 1.13488 0 30.6438 0 0)
(8.58849 1.92377 0 29.4961 0 0)
(15.2607 2.47254 0 29.3249 0 0)
(23.2203 2.77681 0 28.6794 0 0)
(32.2844 2.96301 0 28.4185 0 0)
(42.4438 2.59736 0 27.6664 0 0)
(52.8184 2.19057 0 27.3858 0 0)
(64.4647 1.00621 0 26.6615 0 0)
(75.6541 -0.364303 0 26.4965 0 0)
(88.6948 -2.75352 0 26.1125 0 0)
(100.48 -5.73662 0 26.3373 0 0)
(115.609 -10.3237 0 27.0925 0 0)
(128.135 -15.8015 0 28.6075 0 0)
(144.738 -26.4956 0 33.9208 0 0)
(152.094 -33.4641 0 37.4845 0 0)
(180.401 -54.9033 0 53.1933 0 0)
(139.664 -71.327 0 83.7166 0 0)
(1.00803 0.521597 0 38.5301 0 0)
(3.78035 1.28779 0 39.7248 0 0)
(8.18488 2.03548 0 38.1869 0 0)
(14.7358 2.77925 0 38.0458 0 0)
(22.6654 3.00498 0 37.1356 0 0)
(31.6038 3.31486 0 36.8605 0 0)
(41.5272 2.80357 0 35.809 0 0)
(51.8019 2.47165 0 35.4904 0 0)
(62.8627 1.03647 0 34.4812 0 0)
(73.8808 -0.283673 0 34.2812 0 0)
(85.704 -3.04891 0 33.6498 0 0)
(97.065 -5.90704 0 33.9093 0 0)
(109.398 -10.9522 0 34.4172 0 0)
(121.274 -16.0438 0 36.1365 0 0)
(131.289 -25.5678 0 40.018 0 0)
(138.208 -33.2123 0 44.7465 0 0)
(150.062 -47.3307 0 52.4773 0 0)
(123.26 -58.7618 0 73.1397 0 0)
(0.612276 0.484682 0 49.7178 0 0)
(3.23742 1.44572 0 51.3063 0 0)
(7.74521 2.18601 0 49.2094 0 0)
(14.2052 3.03509 0 49.122 0 0)
(22.0023 3.27213 0 47.8323 0 0)
(30.8637 3.57755 0 47.5529 0 0)
(40.4916 3.06269 0 46.0911 0 0)
(50.6297 2.63388 0 45.7225 0 0)
(61.1568 1.1583 0 44.3024 0 0)
(71.8283 -0.297296 0 44.0587 0 0)
(82.7132 -3.14725 0 43.0137 0 0)
(93.2585 -6.04422 0 43.3324 0 0)
(103.903 -11.1002 0 43.3319 0 0)
(113.768 -15.852 0 45.1879 0 0)
(121.381 -24.5126 0 47.6903 0 0)
(125.82 -30.5773 0 51.9598 0 0)
(129.159 -40.7256 0 56.4813 0 0)
(116.052 -48.3951 0 69.0431 0 0)
(0.434328 0.516147 0 63.9138 0 0)
(2.98034 1.62699 0 65.9692 0 0)
(7.47267 2.38264 0 63.2769 0 0)
(13.8513 3.30902 0 63.165 0 0)
(21.4999 3.56771 0 61.5307 0 0)
(30.2007 3.85673 0 61.1161 0 0)
(39.5621 3.35293 0 59.3076 0 0)
(49.4031 2.81435 0 58.7125 0 0)
(59.4754 1.36427 0 56.9911 0 0)
(69.5807 -0.273599 0 56.473 0 0)
(79.6784 -2.98924 0 55.1695 0 0)
(89.215 -6.08984 0 55.2249 0 0)
(98.5343 -10.5623 0 54.8778 0 0)
(106.412 -15.4253 0 56.4246 0 0)
(112.579 -22.1408 0 57.8675 0 0)
(115.113 -28.0563 0 61.596 0 0)
(116.058 -35.2026 0 64.5614 0 0)
(109.606 -40.8013 0 71.4585 0 0)
(0.356463 0.540403 0 81.4089 0 0)
(2.83251 1.74415 0 84.0946 0 0)
(7.26432 2.55356 0 80.6263 0 0)
(13.5208 3.49943 0 80.517 0 0)
(20.9959 3.80622 0 78.43 0 0)
(29.4766 4.03322 0 77.8767 0 0)
(38.5356 3.55611 0 75.5869 0 0)
(48.0071 2.91391 0 74.7619 0 0)
(57.5619 1.47456 0 72.5691 0 0)
(67.0561 -0.230175 0 71.7816 0 0)
(76.2703 -2.8806 0 70.0253 0 0)
(84.8571 -5.86609 0 69.7653 0 0)
(92.7642 -9.97092 0 68.929 0 0)
(99.1941 -14.2996 0 69.8815 0 0)
(103.909 -19.7465 0 70.5232 0 0)
(105.854 -24.6596 0 73.0261 0 0)
(106.009 -29.8253 0 74.968 0 0)
(101.764 -33.3097 0 78.6224 0 0)
(0.329365 0.568775 0 102.489 0 0)
(2.73704 1.80565 0 105.699 0 0)
(7.07111 2.68119 0 101.673 0 0)
(13.1593 3.58065 0 101.203 0 0)
(20.4391 3.92984 0 98.9386 0 0)
(28.6246 4.05014 0 97.8587 0 0)
(37.3591 3.60965 0 95.3433 0 0)
(46.3605 2.82723 0 93.8935 0 0)
(55.39 1.46694 0 91.4561 0 0)
(64.1717 -0.350314 0 90.0044 0 0)
(72.5513 -2.76847 0 87.9766 0 0)
(80.1419 -5.69964 0 87.0015 0 0)
(86.8639 -9.20992 0 85.7885 0 0)
(92.1254 -13.0989 0 85.7945 0 0)
(95.8278 -17.3171 0 85.7434 0 0)
(97.4128 -21.3837 0 86.8837 0 0)
(97.5158 -25.2281 0 87.9098 0 0)
(94.7116 -27.683 0 89.5131 0 0)
(0.313765 0.57291 0 126.487 0 0)
(2.64165 1.77263 0 130.417 0 0)
(6.85024 2.66522 0 125.706 0 0)
(12.735 3.45994 0 124.896 0 0)
(19.7726 3.78705 0 122.364 0 0)
(27.6242 3.80048 0 120.787 0 0)
(35.9666 3.32651 0 117.903 0 0)
(44.4772 2.47927 0 115.869 0 0)
(52.9148 1.12418 0 113.008 0 0)
(61.0092 -0.639246 0 110.916 0 0)
(68.5589 -2.90731 0 108.424 0 0)
(75.283 -5.53926 0 106.696 0 0)
(81.0216 -8.59449 0 104.927 0 0)
(85.4714 -11.8179 0 103.921 0 0)
(88.5174 -15.1807 0 103.088 0 0)
(89.9555 -18.3483 0 102.912 0 0)
(90.2583 -21.2672 0 102.923 0 0)
(88.2956 -22.9138 0 103.074 0 0)
(0.299362 0.524367 0 151.906 0 0)
(2.53365 1.58008 0 156.409 0 0)
(6.58599 2.37477 0 151.278 0 0)
(12.237 2.98411 0 149.839 0 0)
(18.9794 3.20695 0 147.279 0 0)
(26.4595 3.06443 0 144.966 0 0)
(34.3611 2.52365 0 141.876 0 0)
(42.3514 1.59133 0 139.069 0 0)
(50.1892 0.261866 0 135.868 0 0)
(57.6094 -1.44303 0 132.99 0 0)
(64.4232 -3.50476 0 130.037 0 0)
(70.4029 -5.8423 0 127.463 0 0)
(75.4177 -8.41909 0 125.058 0 0)
(79.3052 -11.0711 0 123.055 0 0)
(82.004 -13.7089 0 121.339 0 0)
(83.4224 -16.1736 0 119.998 0 0)
(84.0054 -18.3719 0 118.907 0 0)
(82.7986 -19.4178 0 117.794 0 0)
(0.284069 0.393576 0 175.132 0 0)
(2.41522 1.14359 0 180.333 0 0)
(6.2857 1.66742 0 174.723 0 0)
(11.6751 1.99877 0 172.84 0 0)
(18.0837 1.99521 0 170.158 0 0)
(25.1654 1.65782 0 167.306 0 0)
(32.599 0.976789 0 163.918 0 0)
(40.0691 -0.0324236 0 160.52 0 0)
(47.3283 -1.36691 0 156.902 0 0)
(54.1433 -2.97883 0 153.386 0 0)
(60.3361 -4.84709 0 149.897 0 0)
(65.7424 -6.87777 0 146.604 0 0)
(70.2573 -9.03184 0 143.505 0 0)
(73.8078 -11.1796 0 140.649 0 0)
(76.3642 -13.2432 0 138.056 0 0)
(77.891 -15.1426 0 135.729 0 0)
(78.7735 -16.7899 0 133.615 0 0)
(78.2253 -17.3873 0 131.415 0 0)
(0.268852 0.155704 0 190.245 0 0)
(2.29436 0.38893 0 195.919 0 0)
(5.96916 0.485644 0 190.023 0 0)
(11.0794 0.40606 0 187.88 0 0)
(17.1379 0.0685439 0 185.133 0 0)
(23.8117 -0.540549 0 181.961 0 0)
(30.7836 -1.41028 0 178.381 0 0)
(37.758 -2.53294 0 174.627 0 0)
(44.4988 -3.88288 0 170.714 0 0)
(50.7997 -5.42301 0 166.793 0 0)
(56.5078 -7.10987 0 162.899 0 0)
(61.5014 -8.87836 0 159.118 0 0)
(65.705 -10.674 0 155.481 0 0)
(69.0893 -12.4189 0 152.017 0 0)
(71.6471 -14.0371 0 148.75 0 0)
(73.3672 -15.507 0 145.704 0 0)
(74.5628 -16.7429 0 142.81 0 0)
(74.6077 -17.0636 0 139.814 0 0)
(0.259204 -0.143248 0 190.217 0 0)
(2.19685 -0.536601 0 195.85 0 0)
(5.69252 -0.94143 0 190.017 0 0)
(10.5466 -1.49789 0 187.865 0 0)
(16.2894 -2.21941 0 185.161 0 0)
(22.603 -3.12273 0 181.995 0 0)
(29.1793 -4.19698 0 178.441 0 0)
(35.7457 -5.43644 0 174.689 0 0)
(42.0792 -6.81064 0 170.763 0 0)
(48.0023 -8.29098 0 166.81 0 0)
(53.3788 -9.8307 0 162.834 0 0)
(58.1203 -11.3873 0 158.947 0 0)
(62.1657 -12.9079 0 155.133 0 0)
(65.5089 -14.3492 0 151.468 0 0)
(68.1488 -15.646 0 147.925 0 0)
(70.0906 -16.8053 0 144.585 0 0)
(71.5678 -17.7518 0 141.336 0 0)
(72.1023 -17.9562 0 138.005 0 0)
(0.256042 -0.397066 0 174.398 0 0)
(2.13769 -1.30863 0 179.35 0 0)
(5.50181 -2.13149 0 174.02 0 0)
(10.166 -3.08121 0 172.027 0 0)
(15.6753 -4.11074 0 169.545 0 0)
(21.7248 -5.24083 0 166.654 0 0)
(28.0172 -6.46438 0 163.402 0 0)
(34.298 -7.7783 0 159.978 0 0)
(40.3568 -9.15416 0 156.371 0 0)
(46.0373 -10.5721 0 152.742 0 0)
(51.2139 -11.9901 0 149.057 0 0)
(55.8185 -13.3817 0 145.449 0 0)
(59.7977 -14.702 0 141.865 0 0)
(63.1556 -15.9279 0 138.412 0 0)
(65.8901 -17.0079 0 135.027 0 0)
(68.0187 -17.9571 0 131.825 0 0)
(69.7107 -18.7144 0 128.669 0 0)
(70.6084 -18.9016 0 125.469 0 0)
(0.257504 -0.546163 0 148.96 0 0)
(2.10993 -1.74961 0 152.918 0 0)
(5.38742 -2.82634 0 148.381 0 0)
(9.92403 -4.01087 0 146.663 0 0)
(15.2766 -5.21553 0 144.542 0 0)
(21.1493 -6.46531 0 142.088 0 0)
(27.2539 -7.75223 0 139.323 0 0)
(33.3487 -9.07811 0 136.417 0 0)
(39.2336 -10.4156 0 133.345 0 0)
(44.7649 -11.7548 0 130.252 0 0)
(49.8273 -13.0574 0 127.095 0 0)
(54.3614 -14.3103 0 124 0 0)
(58.3212 -15.4742 0 120.905 0 0)
(61.712 -16.5401 0 117.915 0 0)
(64.533 -17.4643 0 114.966 0 0)
(66.8064 -18.2661 0 112.167 0 0)
(68.6574 -18.8948 0 109.394 0 0)
(69.8183 -19.1039 0 106.602 0 0)
(0.260377 -0.601869 0 120.054 0 0)
(2.10103 -1.89157 0 123.024 0 0)
(5.32142 -3.07061 0 119.375 0 0)
(9.77267 -4.34457 0 117.981 0 0)
(15.0204 -5.60367 0 116.275 0 0)
(20.7754 -6.87403 0 114.31 0 0)
(26.7563 -8.14538 0 112.097 0 0)
(32.7304 -9.42307 0 109.77 0 0)
(38.5049 -10.6817 0 107.305 0 0)
(43.9447 -11.9183 0 104.821 0 0)
(48.9419 -13.099 0 102.278 0 0)
(53.4421 -14.2193 0 99.7791 0 0)
(57.404 -15.2447 0 97.2739 0 0)
(60.8324 -16.1753 0 94.848 0 0)
(63.7275 -16.9741 0 92.4492 0 0)
(66.1142 -17.6606 0 90.1652 0 0)
(68.0873 -18.194 0 87.8999 0 0)
(69.447 -18.4292 0 85.6242 0 0)
(0.263328 -0.591027 0 91.9005 0 0)
(2.10071 -1.83159 0 94.016 0 0)
(5.28369 -2.99918 0 91.2246 0 0)
(9.67808 -4.2504 0 90.1509 0 0)
(14.8553 -5.47137 0 88.8513 0 0)
(20.5317 -6.6845 0 87.3563 0 0)
(26.4309 -7.87936 0 85.6753 0 0)
(32.3262 -9.06093 0 83.9031 0 0)
(38.0306 -10.2085 0 82.0269 0 0)
(43.4141 -11.3208 0 80.1295 0 0)
(48.3748 -12.371 0 78.1882 0 0)
(52.8606 -13.3573 0 76.2733 0 0)
(56.8338 -14.2524 0 74.3548 0 0)
(60.2975 -15.0587 0 72.491 0 0)
(63.2535 -15.7482 0 70.6493 0 0)
(65.7289 -16.3358 0 68.889 0 0)
(67.7964 -16.7924 0 67.1458 0 0)
(69.3089 -17.0415 0 65.3924 0 0)
(0.266399 -0.537161 0 66.9439 0 0)
(2.10456 -1.65218 0 68.3844 0 0)
(5.26239 -2.73276 0 66.3523 0 0)
(9.61906 -3.8863 0 65.5693 0 0)
(14.749 -5.00644 0 64.6309 0 0)
(20.3731 -6.10908 0 63.5489 0 0)
(26.2188 -7.18616 0 62.3344 0 0)
(32.0629 -8.23959 0 61.0485 0 0)
(37.7234 -9.25455 0 59.6893 0 0)
(43.0733 -10.2286 0 58.3092 0 0)
(48.0151 -11.1425 0 56.8999 0 0)
(52.4977 -11.9938 0 55.505 0 0)
(56.486 -12.7632 0 54.1107 0 0)
(59.9817 -13.4523 0 52.7517 0 0)
(62.9878 -14.0415 0 51.4113 0 0)
(65.5323 -14.5402 0 50.1252 0 0)
(67.6722 -14.93 0 48.8552 0 0)
(69.3027 -15.1776 0 47.5738 0 0)
(0.268253 -0.463211 0 46.2968 0 0)
(2.10899 -1.417 0 47.2356 0 0)
(5.25058 -2.36548 0 45.8346 0 0)
(9.5823 -3.37738 0 45.2965 0 0)
(14.6806 -4.35896 0 44.6551 0 0)
(20.2701 -5.31962 0 43.9112 0 0)
(26.0812 -6.25434 0 43.077 0 0)
(31.893 -7.16142 0 42.1895 0 0)
(37.5267 -8.03193 0 41.2538 0 0)
(42.8574 -8.86118 0 40.3004 0 0)
(47.7899 -9.63694 0 39.3303 0 0)
(52.2746 -10.3552 0 38.3674 0 0)
(56.2773 -11.0037 0 37.4077 0 0)
(59.7991 -11.5817 0 36.4695 0 0)
(62.8432 -12.0771 0 35.546 0 0)
(65.4384 -12.4938 0 34.6567 0 0)
(67.6305 -12.8216 0 33.7816 0 0)
(69.3468 -13.0518 0 32.8953 0 0)
(0.269415 -0.383352 0 30.1627 0 0)
(2.11255 -1.16555 0 30.747 0 0)
(5.24386 -1.95971 0 29.8367 0 0)
(9.55886 -2.80918 0 29.4894 0 0)
(14.6359 -3.63325 0 29.0772 0 0)
(20.2021 -4.43814 0 28.5965 0 0)
(25.9902 -5.22005 0 28.0572 0 0)
(31.7799 -5.97598 0 27.4815 0 0)
(37.3948 -6.69942 0 26.8753 0 0)
(42.7108 -7.38562 0 26.2568 0 0)
(47.6351 -8.02604 0 25.6287 0 0)
(52.1171 -8.61655 0 25.0041 0 0)
(56.1252 -9.14919 0 24.383 0 0)
(59.6592 -9.62208 0 23.7742 0 0)
(62.7229 -10.0277 0 23.176 0 0)
(65.344 -10.3663 0 22.5981 0 0)
(67.5629 -10.6334 0 22.031 0 0)
(69.3323 -10.8308 0 21.4553 0 0)
(0.26974 -0.304817 0 18.2144 0 0)
(2.11432 -0.920481 0 18.5586 0 0)
(5.2385 -1.55522 0 18.0079 0 0)
(9.53946 -2.23852 0 17.8018 0 0)
(14.5975 -2.903 0 17.5587 0 0)
(20.1417 -3.55329 0 17.2741 0 0)
(25.9053 -4.18462 0 16.9538 0 0)
(31.6694 -4.79367 0 16.6108 0 0)
(37.2586 -5.37391 0 16.249 0 0)
(42.5494 -5.92185 0 15.8789 0 0)
(47.4511 -6.43023 0 15.5022 0 0)
(51.9121 -6.8967 0 15.127 0 0)
(55.9044 -7.31443 0 14.7535 0 0)
(59.4256 -7.68315 0 14.3866 0 0)
(62.4841 -7.99706 0 14.0261 0 0)
(65.1024 -8.25674 0 13.677 0 0)
(67.3245 -8.46136 0 13.335 0 0)
(69.1213 -8.61168 0 12.9881 0 0)
(0.269387 -0.228436 0 9.8836 0 0)
(2.11206 -0.691765 0 10.0671 0 0)
(5.22127 -1.17947 0 9.76988 0 0)
(9.49597 -1.70948 0 9.66749 0 0)
(14.5238 -2.22414 0 9.54307 0 0)
(20.0345 -2.72477 0 9.39384 0 0)
(25.7612 -3.20704 0 9.22314 0 0)
(31.4874 -3.66846 0 9.03888 0 0)
(37.0375 -4.10329 0 8.8431 0 0)
(42.2911 -4.50997 0 8.64207 0 0)
(47.1567 -4.88291 0 8.43639 0 0)
(51.5877 -5.22227 0 8.23122 0 0)
(55.5546 -5.52225 0 8.02602 0 0)
(59.0595 -5.78508 0 7.82473 0 0)
(62.1098 -6.00463 0 7.62641 0 0)
(64.7272 -6.18447 0 7.43507 0 0)
(66.9529 -6.32756 0 7.24826 0 0)
(68.7831 -6.42955 0 7.06002 0 0)
(0.268244 -0.154911 0 4.48667 0 0)
(2.08519 -0.498197 0 4.58228 0 0)
(5.15996 -0.852883 0 4.45707 0 0)
(9.39512 -1.22943 0 4.42142 0 0)
(14.3973 -1.58664 0 4.37034 0 0)
(19.8826 -1.92908 0 4.3059 0 0)
(25.5827 -2.25415 0 4.22857 0 0)
(31.2829 -2.55957 0 4.14207 0 0)
(36.8099 -2.84377 0 4.04902 0 0)
(42.0428 -3.10792 0 3.95319 0 0)
(46.8917 -3.34911 0 3.85536 0 0)
(51.3133 -3.56819 0 3.75826 0 0)
(55.2745 -3.76144 0 3.66135 0 0)
(58.7854 -3.93091 0 3.56735 0 0)
(61.8422 -4.07049 0 3.47467 0 0)
(64.4783 -4.1855 0 3.38719 0 0)
(66.7012 -4.27596 0 3.30193 0 0)
(68.5596 -4.34597 0 3.21771 0 0)
(0.255342 -0.0882452 0 1.42119 0 0)
(2.0692 -0.313618 0 1.48692 0 0)
(5.20843 -0.526259 0 1.44686 0 0)
(9.50208 -0.734718 0 1.4337 0 0)
(14.5577 -0.924888 0 1.41359 0 0)
(20.0943 -1.10757 0 1.39032 0 0)
(25.8507 -1.28426 0 1.36367 0 0)
(31.6101 -1.45241 0 1.33434 0 0)
(37.1987 -1.61037 0 1.30335 0 0)
(42.4907 -1.75796 0 1.27173 0 0)
(47.3992 -1.89368 0 1.23991 0 0)
(51.8732 -2.01756 0 1.20849 0 0)
(55.8843 -2.12757 0 1.17744 0 0)
(59.4349 -2.22437 0 1.14747 0 0)
(62.5252 -2.30387 0 1.1182 0 0)
(65.1929 -2.37006 0 1.09171 0 0)
(67.4156 -2.42265 0 1.06649 0 0)
(69.266 -2.4621 0 1.03953 0 0)
(0.246013 -0.0253442 0 0.141863 0 0)
(2.06703 -0.0978734 0 0.153644 0 0)
(5.18732 -0.16564 0 0.150859 0 0)
(9.45011 -0.23091 0 0.14969 0 0)
(14.487 -0.293831 0 0.147387 0 0)
(20.0109 -0.354178 0 0.144659 0 0)
(25.7607 -0.41301 0 0.14166 0 0)
(31.5177 -0.469514 0 0.138528 0 0)
(37.1134 -0.522861 0 0.135305 0 0)
(42.4234 -0.572865 0 0.132053 0 0)
(47.3623 -0.619224 0 0.128795 0 0)
(51.8772 -0.661906 0 0.125593 0 0)
(55.9417 -0.70034 0 0.122449 0 0)
(59.551 -0.734382 0 0.119424 0 0)
(62.7115 -0.763299 0 0.116599 0 0)
(65.456 -0.78854 0 0.114262 0 0)
(67.769 -0.806751 0 0.112187 0 0)
(69.6971 -0.81603 0 0.111802 0 0)
(0.024487 0.0357781 0 0.717544 0 0)
(0.267321 0.0991398 0 0.678609 0 0)
(0.785707 0.180949 0 0.671444 0 0)
(1.53947 0.295015 0 0.662208 0 0)
(2.48681 0.424067 0 0.66059 0 0)
(3.60945 0.56894 0 0.657308 0 0)
(4.88545 0.716057 -2.385e-19 0.65534 -6.48571e-20 1.47867e-37)
(6.31193 0.867014 2.42494e-19 0.651032 6.91611e-20 1.4832e-37)
(7.88225 1.01401 0 0.645018 0 0)
(9.59444 1.16146 2.44881e-19 0.637442 6.85778e-20 1.46102e-37)
(11.4433 1.30552 0 0.628856 0 0)
(13.4228 1.4484 0 0.61976 0 0)
(15.5264 1.58553 0 0.611801 0 0)
(17.7478 1.71722 -2.77379e-19 0.605329 -5.16845e-20 1.34748e-37)
(20.0809 1.84031 0 0.599112 0 0)
(22.526 1.95389 0 0.593884 0 0)
(25.0835 2.05374 3.40551e-19 0.589588 3.90308e-20 1.22097e-37)
(27.7519 2.14152 0 0.585133 0 0)
(30.5262 2.2199 0 0.580464 0 0)
(33.4008 2.29112 0 0.576021 0 0)
(36.3597 2.3542 -4.56434e-19 0.572692 -1.95707e-20 1.01791e-37)
(39.3934 2.4099 0 0.56894 0 0)
(42.4879 2.4563 -5.16187e-19 0.566684 -1.02909e-20 9.25333e-38)
(45.6343 2.49326 0 0.567891 0 0)
(48.8162 2.52696 0 0.568656 0 0)
(52.0196 2.55003 -6.04343e-19 0.570834 1.23722e-21 7.97782e-38)
(55.2374 2.55224 0 0.572672 0 0)
(58.4738 2.53484 6.57989e-19 0.571143 -6.96381e-21 7.21701e-38)
(61.723 2.50384 0 0.563276 0 0)
(64.9905 2.46108 -7.02745e-19 0.552873 1.05171e-20 6.54046e-38)
(68.2749 2.40918 0 0.53932 0 0)
(71.5636 2.35057 0 0.5235 0 0)
(74.8491 2.28517 0 0.509452 0 0)
(78.1328 2.20923 0 0.49805 0 0)
(81.4087 2.12213 0 0.486472 0 0)
(84.6733 2.02673 7.79821e-19 0.475546 -1.40174e-20 4.59943e-38)
(87.9255 1.92289 0 0.463909 0 0)
(91.1664 1.81047 -1.56275e-18 0.447864 2.71878e-20 1.61357e-37)
(94.3944 1.69107 0 0.432269 0 0)
(97.6047 1.56357 1.55271e-18 0.417634 -2.61984e-20 1.39939e-37)
(100.79 1.43047 0 0.402491 0 0)
(103.951 1.28816 0 0.390833 0 0)
(107.076 1.1376 -1.51463e-18 0.378279 2.15799e-20 1.11241e-37)
(110.15 0.984781 0 0.365471 0 0)
(113.156 0.829995 -1.47607e-18 0.35467 1.82703e-20 9.43114e-38)
(116.081 0.672066 1.4536e-18 0.345822 -1.65352e-20 8.6622e-38)
(118.907 0.50833 0 0.339713 0 0)
(121.628 0.338374 1.40276e-18 0.334948 -1.25101e-20 7.34171e-38)
(124.226 0.162984 1.37454e-18 0.331061 -1.06437e-20 6.79588e-38)
(126.702 -0.0149189 0 0.327817 0 0)
(129.042 -0.194265 0 0.325698 0 0)
(131.227 -0.377847 0 0.323025 0 0)
(133.235 -0.56644 0 0.321819 0 0)
(135.047 -0.75732 0 0.323864 0 0)
(136.636 -0.947174 -1.17417e-18 0.328077 -4.39861e-21 5.01806e-38)
(137.974 -1.13848 0 0.332182 0 0)
(139.048 -1.33456 1.07951e-18 0.335865 1.14638e-20 4.75334e-38)
(139.862 -1.53727 0 0.341085 0 0)
(140.412 -1.74615 0 0.34788 0 0)
(140.681 -1.95214 -9.11742e-19 0.357206 -2.24657e-20 4.7537e-38)
(140.664 -2.15632 0 0.369191 0 0)
(140.345 -2.36139 7.80316e-19 0.381203 3.12492e-20 4.97065e-38)
(139.73 -2.56525 0 0.391496 0 0)
(138.814 -2.76903 0 0.40429 0 0)
(137.607 -2.97196 0 0.418459 0 0)
(136.121 -3.16766 -4.8199e-19 0.432866 -4.7611e-20 6.03643e-38)
(134.361 -3.35677 0 0.447592 0 0)
(132.337 -3.53953 0 0.460671 0 0)
(130.065 -3.71497 -2.26259e-19 0.474331 -6.12028e-20 7.30658e-38)
(127.562 -3.88817 0 0.489409 0 0)
(124.868 -4.05409 -5.06846e-20 0.50459 -6.98484e-20 8.30506e-38)
(121.991 -4.20757 0 0.520049 0 0)
(118.95 -4.34886 0 0.536053 0 0)
(115.776 -4.47937 0 0.553197 0 0)
(112.49 -4.60052 -3.05013e-19 0.571342 8.32136e-20 1.04563e-37)
(109.111 -4.70959 0 0.589432 0 0)
(105.657 -4.80337 0 0.607398 0 0)
(102.138 -4.88212 -5.6438e-19 0.625505 9.03436e-20 1.20198e-37)
(98.5681 -4.95022 -6.46204e-19 0.644296 9.18857e-20 1.25312e-37)
(94.9742 -5.00732 0 0.663114 0 0)
(91.3877 -5.05254 -7.993e-19 0.682849 9.46593e-20 1.34735e-37)
(87.8294 -5.08661 0 0.704048 0 0)
(84.3199 -5.10884 -1.87831e-18 0.72562 1.92634e-19 5.74609e-37)
(80.8737 -5.11811 0 0.748277 0 0)
(77.5085 -5.11282 -2.12329e-18 0.770862 1.93766e-19 6.07771e-37)
(74.2425 -5.09109 0 0.793812 0 0)
(71.0896 -5.05628 2.32597e-18 0.819784 -1.93907e-19 6.36751e-37)
(68.0673 -5.00817 0 0.844811 0 0)
(65.1899 -4.94142 0 0.867123 0 0)
(62.4572 -4.8559 0 0.889828 0 0)
(59.8736 -4.75362 -2.58686e-18 0.914841 1.86296e-19 6.8013e-37)
(57.4448 -4.63708 0 0.939451 0 0)
(55.1801 -4.50447 2.64772e-18 0.963715 -1.8001e-19 6.94838e-37)
(53.0821 -4.35561 0 0.987465 0 0)
(51.1397 -4.18442 -2.65965e-18 1.01103 1.7366e-19 7.03668e-37)
(49.3478 -3.99662 -2.65043e-18 1.03232 1.7042e-19 7.07187e-37)
(47.6939 -3.79607 -2.63134e-18 1.05355 1.66254e-19 7.09875e-37)
(46.1735 -3.58641 0 1.07593 0 0)
(44.76 -3.36663 0 1.09906 0 0)
(43.4639 -3.13789 0 1.11862 0 0)
(42.2666 -2.90021 0 1.13842 0 0)
(41.1635 -2.66075 0 1.15831 0 0)
(40.1367 -2.42095 0 1.17731 0 0)
(39.1834 -2.17822 0 1.19239 0 0)
(38.2575 -1.93475 0 1.20836 0 0)
(37.3563 -1.69796 2.02505e-18 1.22366 -1.31554e-19 7.07643e-37)
(36.4469 -1.46931 1.91097e-18 1.24077 -1.24274e-19 7.06961e-37)
(35.5537 -1.24988 0 1.25238 0 0)
(34.6425 -1.03977 0 1.26541 0 0)
(33.7234 -0.853123 0 1.27939 0 0)
(32.7433 -0.67667 1.35331e-18 1.29202 -1.04707e-19 6.90978e-37)
(31.8019 -0.526276 0 1.2993 0 0)
(30.7919 -0.384018 0 1.30911 0 0)
(29.8366 -0.281232 0 1.31918 0 0)
(28.9097 -0.197705 0 1.33236 0 0)
(28.0806 -0.14733 -4.38072e-19 1.34076 7.57872e-20 6.66129e-37)
(27.3814 -0.121213 0 1.35009 0 0)
(26.8448 -0.130642 0 1.36351 0 0)
(26.5555 -0.173758 -2.23218e-19 1.37137 -6.55642e-20 6.42522e-37)
(26.512 -0.242643 4.50059e-19 1.38396 6.11802e-20 6.2996e-37)
(26.7638 -0.351976 0 1.40084 0 0)
(27.3647 -0.508397 9.12537e-19 1.41818 6.01458e-20 6.05221e-37)
(28.3808 -0.705249 0 1.43725 0 0)
(29.8738 -0.957324 -1.35386e-18 1.45488 -6.45839e-20 5.75536e-37)
(31.8645 -1.24372 0 1.47764 0 0)
(34.4285 -1.57974 0 1.50471 0 0)
(37.463 -1.95809 0 1.53747 0 0)
(41.0796 -2.3871 0 1.57176 0 0)
(45.1308 -2.84223 0 1.60983 0 0)
(49.6222 -3.34395 4.8989e-18 1.65202 2.04725e-19 1.97205e-36)
(54.4896 -3.88964 5.15384e-18 1.69815 2.30669e-19 1.93728e-36)
(59.7517 -4.47091 0 1.74625 0 0)
(65.2101 -5.07261 0 1.80224 0 0)
(70.8253 -5.69955 0 1.85748 0 0)
(76.4479 -6.31212 -5.69374e-18 1.91842 -3.52386e-19 1.91749e-36)
(81.8501 -6.92616 0 1.9896 0 0)
(86.9949 -7.54751 0 2.06181 0 0)
(91.8248 -8.16175 0 2.1383 0 0)
(96.2639 -8.75437 -5.33148e-18 2.2166 -5.3362e-19 2.07188e-36)
(100.294 -9.321 5.09769e-18 2.30004 5.82294e-19 2.13371e-36)
(103.703 -9.8427 0 2.3908 0 0)
(106.61 -10.3519 0 2.48358 0 0)
(108.978 -10.805 4.07887e-18 2.57813 7.35339e-19 2.36578e-36)
(110.815 -11.224 3.64984e-18 2.6715 7.84184e-19 2.45107e-36)
(111.967 -11.5677 0 2.77175 0 0)
(112.536 -11.8824 0 2.87165 0 0)
(112.415 -12.1242 -2.05256e-18 2.9756 -9.45628e-19 2.719e-36)
(111.735 -12.348 1.42327e-18 3.07055 9.89215e-19 2.79774e-36)
(110.539 -12.5013 0 3.16731 0 0)
(108.628 -12.6006 0 3.2679 0 0)
(106.125 -12.6335 -5.20275e-19 3.35874 1.11699e-18 3.06848e-36)
(102.991 -12.6126 0 3.44916 0 0)
(99.509 -12.5539 0 3.53268 0 0)
(95.5219 -12.4046 -2.54578e-18 3.60512 1.20585e-18 3.30103e-36)
(91.2266 -12.1835 0 3.67707 0 0)
(86.6094 -11.8513 -3.82906e-18 3.73844 1.25678e-18 3.44389e-36)
(81.7276 -11.4336 0 3.79407 0 0)
(76.6238 -10.8981 0 3.83315 0 0)
(71.684 -10.2646 0 3.85718 0 0)
(66.8068 -9.46677 5.86653e-18 3.87588 -1.27739e-18 3.68162e-36)
(62.1548 -8.54995 0 3.87949 0 0)
(57.9448 -7.48065 0 3.86721 0 0)
(54.4935 -6.29083 0 3.83921 0 0)
(51.6387 -4.91211 0 3.79724 0 0)
(49.5419 -3.45326 0 3.74671 0 0)
(48.8235 -1.90067 0 3.67463 0 0)
(49.6654 -0.278428 6.01712e-18 3.5849 -1.10387e-18 3.7271e-36)
(51.7309 1.43366 5.60124e-18 3.48657 -1.04952e-18 3.70955e-36)
(55.4382 3.1249 0 3.37507 0 0)
(60.6957 4.75063 0 3.25715 0 0)
(67.5009 6.32933 0 3.1277 0 0)
(75.4381 7.80137 -3.04744e-18 2.99802 7.94687e-19 3.38348e-36)
(84.5615 9.10209 0 2.86989 0 0)
(94.1112 10.2894 2.94031e-18 2.7349 -1.35019e-18 1.23615e-35)
(103.989 11.2455 -1.30435e-18 2.60424 1.2174e-18 1.16601e-35)
(113.618 12.0347 3.21735e-19 2.47291 1.10451e-18 1.10163e-35)
(123.264 12.6846 -2.02473e-18 2.34819 -1.01389e-18 1.03311e-35)
(131.371 13.2251 3.67529e-18 2.22929 9.22599e-19 9.75699e-36)
(139.232 13.7012 -5.27876e-18 2.12204 -9.03197e-19 8.99248e-36)
(142.971 14.3931 0 2.06612 0 0)
(0.018315 0.174274 0 6.0981 0 0)
(0.202772 0.388017 0 6.03624 0 0)
(0.62967 0.609898 1.31771e-19 5.86355 1.75925e-19 6.76474e-37)
(1.32748 0.854366 0 5.74262 0 0)
(2.26997 1.13367 -1.92478e-19 5.68259 -3.53487e-19 9.19407e-37)
(3.44658 1.43849 -1.84133e-19 5.65527 -4.41344e-19 9.72489e-37)
(4.83621 1.76315 -8.07923e-20 5.6398 -2.51377e-19 2.48957e-37)
(6.42456 2.10366 -6.90708e-20 5.62174 -2.70287e-19 2.61209e-37)
(8.20375 2.4528 0 5.59337 0 0)
(10.1718 2.80606 -4.23131e-20 5.55075 -2.69094e-19 2.59366e-37)
(12.3299 3.15467 0 5.49882 0 0)
(14.6763 3.49624 0 5.43915 0 0)
(17.2028 3.8256 9.52366e-20 5.37082 4.23671e-19 9.5094e-37)
(19.91 4.14225 6.98245e-20 5.2989 1.86854e-19 2.34089e-37)
(22.7873 4.43651 -1.86182e-19 5.22371 -3.26158e-19 8.93491e-37)
(25.8289 4.70834 -2.52526e-19 5.14551 -2.81135e-19 8.65787e-37)
(29.0233 4.95924 -1.71649e-19 5.06113 -1.18419e-19 2.12719e-37)
(32.3643 5.1907 0 4.97035 0 0)
(35.8402 5.40099 0 4.87464 0 0)
(39.4422 5.59466 0 4.77192 0 0)
(43.1473 5.77104 -3.87182e-19 4.66701 -3.66557e-20 1.80386e-37)
(46.9464 5.92736 0 4.56247 0 0)
(50.8168 6.05528 1.61072e-18 4.45592 -1.65725e-20 1.55182e-36)
(54.7459 6.15851 0 4.35295 0 0)
(58.7168 6.2387 0 4.24773 0 0)
(62.712 6.29597 7.75419e-19 4.14341 -5.78145e-20 1.565e-37)
(66.7038 6.32709 0 4.03731 0 0)
(70.6732 6.34131 -9.33554e-19 3.93657 8.18983e-20 1.45992e-37)
(74.5867 6.33228 -1.99474e-18 3.8365 1.81728e-19 5.57075e-37)
(78.4341 6.29492 1.07763e-18 3.7337 -9.88208e-20 1.36618e-37)
(82.2119 6.22625 0 3.62585 0 0)
(85.9199 6.12965 0 3.52049 0 0)
(89.5444 6.0075 0 3.41714 0 0)
(93.0896 5.86094 -2.57742e-18 3.30901 2.227e-19 4.7131e-37)
(96.547 5.68454 -2.65566e-18 3.20156 2.20166e-19 4.55139e-37)
(99.9302 5.47862 -1.37399e-18 3.10055 1.07482e-19 1.1075e-37)
(103.248 5.24153 0 3.00858 0 0)
(106.492 4.96831 2.83856e-18 2.92039 -2.02699e-19 4.12777e-37)
(109.673 4.65691 0 2.83513 0 0)
(112.782 4.31668 -2.87504e-18 2.75355 1.88072e-19 3.81521e-37)
(115.83 3.9487 0 2.67318 0 0)
(118.81 3.5608 0 2.60101 0 0)
(121.73 3.15693 2.82782e-18 2.53009 -1.53749e-19 3.31637e-37)
(124.576 2.73415 0 2.4648 0 0)
(127.328 2.2859 8.16046e-18 2.40687 -3.92666e-19 2.68409e-36)
(129.984 1.80798 -2.68897e-18 2.36159 1.1898e-19 2.8366e-37)
(132.549 1.30476 0 2.3345 0 0)
(135.038 0.776367 -2.54924e-18 2.31874 9.07965e-20 2.51729e-37)
(137.436 0.21528 -2.46859e-18 2.31254 7.65823e-20 2.36167e-37)
(139.741 -0.372042 0 2.31492 0 0)
(141.93 -0.971078 0 2.32838 0 0)
(143.984 -1.56768 0 2.34346 0 0)
(145.888 -2.15241 0 2.35704 0 0)
(147.605 -2.72962 0 2.38064 0 0)
(149.123 -3.30825 1.88354e-18 2.41342 1.45466e-20 1.72071e-37)
(150.42 -3.89584 3.45154e-18 2.45672 7.1199e-20 6.55808e-37)
(151.476 -4.48711 -1.64461e-18 2.50788 -5.59348e-20 1.60088e-37)
(152.302 -5.09673 0 2.56407 0 0)
(152.872 -5.7078 2.6875e-18 2.62724 1.90274e-19 6.01404e-37)
(153.157 -6.29833 -1.17024e-18 2.69538 -1.13273e-19 1.46854e-37)
(153.185 -6.88376 0 2.77217 0 0)
(152.905 -7.46323 -9.78362e-19 2.8621 -1.48658e-19 1.495e-37)
(152.33 -8.02097 0 2.95538 0 0)
(151.453 -8.56942 0 3.05667 0 0)
(150.272 -9.09952 -1.04762e-18 3.16281 -3.97039e-19 6.25557e-37)
(148.772 -9.60077 4.22612e-19 3.27365 2.15303e-19 1.63754e-37)
(146.992 -10.0943 -4.89004e-19 3.39398 -4.62345e-19 6.6844e-37)
(144.927 -10.5664 2.11827e-19 3.51853 4.89252e-19 6.92236e-37)
(142.603 -11.014 9.97325e-21 3.64423 2.54538e-19 1.82706e-37)