/*--------------------------------*- C++ -*----------------------------------*\
| =========                 |                                                 |
| \\      /  F ield         | OpenFOAM: The Open Source CFD Toolbox           |
|  \\    /   O peration     | Version:  dev                                   |
|   \\  /    A nd           | Web:      http://www.openfoam.org               |
|    \\/     M anipulation  |                                                 |
\*---------------------------------------------------------------------------*/
FoamFile
{
    version     2.0;
    format      ascii;
    class       volScalarField;
    object      k;
    location    "9.129";
}
// * * * * * * * * * * * * * * * * * * * * * * * * * * * * * * * * * * * * * //

dimensions      [0 2 -2 0 0 0 0];

internalField   nonuniform List<scalar> 
12225
(
7.7929
7.61895
4.52115
5.42592
7.01775
8.22678
12.4548
12.7162
17.9396
17.1804
22.8406
20.0131
24.7924
18.8752
22.4241
27.1503
48.9611
50.7015
1.4859
6.50467
5.22326
7.41998
5.4297
7.913
7.01389
8.77139
8.60817
9.6051
10.1105
10.3536
10.9989
9.54773
13.15
20.446
43.0442
39.9626
0.156283
2.47721
2.41622
4.18969
3.23037
4.57219
3.7937
4.53096
4.3235
4.48254
4.91416
4.36567
5.04054
4.1671
8.45226
24.4546
33.9482
30.1911
0.0164863
0.548902
0.718121
1.13211
1.55704
1.57082
2.01142
1.59127
2.01181
1.50323
1.95857
1.52904
2.00213
1.90475
6.9194
21.1289
34.9013
28.9002
0.00289043
0.118686
0.213428
0.329421
0.596526
0.613922
0.887315
0.717983
0.88922
0.681647
0.872248
0.680269
1.0333
0.946113
3.41883
11.7043
36.7562
38.8381
0.00946522
0.106743
0.129572
0.203567
0.261116
0.331971
0.431433
0.395722
0.459935
0.463886
0.481468
0.480402
0.548027
0.701996
1.91917
6.82414
30.3091
42.932
0.00305572
0.0182014
0.0424619
0.0458143
0.0879207
0.0908624
0.15847
0.121668
0.195252
0.170653
0.305735
0.278699
0.47977
0.599467
1.26713
4.4269
21.6552
42.1427
0.00162405
0.00312859
0.0110589
0.0111339
0.0272231
0.0247555
0.0527655
0.037838
0.0675041
0.0551358
0.0975441
0.0839921
0.185763
0.229751
0.897066
1.90322
8.62845
18.5422
0.00176954
0.00211735
0.00425298
0.00471957
0.00981227
0.00973152
0.0195174
0.0165416
0.0261492
0.0258845
0.0380272
0.0388609
0.064894
0.0946381
0.270347
0.650194
2.66547
3.63538
0.00277278
0.00273606
0.00326706
0.00374527
0.00514348
0.00611397
0.00925251
0.0100627
0.0130046
0.0151373
0.0197324
0.0241772
0.0331376
0.0487415
0.0875064
0.170007
0.515502
0.623533
0.0037675
0.00378455
0.00367045
0.00409712
0.00469771
0.00582209
0.00723323
0.0088379
0.0102703
0.0129342
0.0159895
0.0209909
0.0270216
0.03838
0.0538876
0.076191
0.135474
0.174121
0.00623181
0.0057316
0.00512063
0.00588293
0.00559619
0.00679779
0.0072367
0.00948204
0.0106863
0.0147477
0.0169785
0.0230568
0.0287663
0.0400413
0.0526825
0.0683144
0.0903398
0.112485
0.0108502
0.00822525
0.00699812
0.0070148
0.00680133
0.00711837
0.00766058
0.00923058
0.0114585
0.0155612
0.0206422
0.0279139
0.0397758
0.055571
0.0732709
0.0928325
0.115109
0.130653
0.0201238
0.0146416
0.0109408
0.00986564
0.00867727
0.00887072
0.00862437
0.00993363
0.0125036
0.0179968
0.0267218
0.0430866
0.0693807
0.101268
0.135388
0.166854
0.19431
0.215563
0.0307529
0.0208499
0.0142603
0.0113568
0.0101863
0.00991029
0.0102847
0.0122243
0.0167805
0.0262507
0.0476633
0.0924362
0.144109
0.191017
0.231572
0.265542
0.29226
0.313089
0.0437702
0.0291974
0.0190061
0.0140407
0.0121154
0.0118129
0.0129421
0.0171454
0.0269506
0.0488566
0.094111
0.147529
0.199101
0.245691
0.286144
0.319255
0.345182
0.36439
0.0560393
0.0350686
0.0215639
0.0154462
0.0132948
0.012926
0.014221
0.0191268
0.0307676
0.0584428
0.110542
0.165131
0.216998
0.263718
0.304034
0.337013
0.362829
0.381769
0.0561005
0.0344547
0.0209431
0.0149671
0.0129637
0.0127329
0.0139253
0.0187012
0.030437
0.0587383
0.110879
0.164709
0.215717
0.261683
0.301271
0.333769
0.359191
0.377915
0.0422419
0.0274227
0.0172033
0.0125943
0.0108484
0.0105998
0.0115168
0.0154252
0.0253546
0.0489911
0.0946934
0.143326
0.190047
0.232816
0.270289
0.301621
0.326152
0.34555
0.0281474
0.018411
0.0117339
0.00890472
0.00797577
0.00785154
0.00869285
0.0118256
0.0173386
0.0281281
0.0530868
0.0888653
0.12573
0.161958
0.195379
0.224663
0.247514
0.268644
0.0184995
0.0123807
0.00826664
0.00656255
0.00597718
0.00586794
0.00626648
0.00801135
0.0113877
0.0177039
0.0319496
0.0532087
0.0759763
0.0989162
0.120035
0.139521
0.153081
0.167865
0.0100511
0.0071943
0.0052743
0.00433269
0.0039422
0.00391654
0.00423825
0.00533189
0.00689751
0.00975037
0.0156715
0.0265821
0.0381189
0.0516059
0.0626124
0.0750993
0.0832126
0.0923708
0.00559778
0.00426193
0.00327001
0.00308506
0.0030919
0.00323955
0.00365382
0.00461515
0.00568594
0.0077134
0.0110861
0.0183789
0.0259506
0.0354041
0.0424774
0.0508385
0.0569992
0.0641484
0.00279054
0.0023639
0.00231842
0.00266003
0.00307458
0.00380807
0.00457199
0.00621168
0.00783256
0.0107871
0.013984
0.0205009
0.0272273
0.0360155
0.0425002
0.050341
0.0564737
0.0637379
0.00123798
0.00146061
0.00224382
0.00470835
0.00789713
0.0124758
0.0167911
0.0242771
0.0306138
0.039244
0.046335
0.0568303
0.066639
0.0790027
0.088354
0.0993235
0.107907
0.118461
0.000424256
0.002492
0.0101359
0.0311571
0.0568857
0.0807295
0.106105
0.134292
0.16156
0.185713
0.209278
0.234229
0.258128
0.28063
0.298225
0.315028
0.328799
0.346271
0.0018688
0.0280134
0.107708
0.26125
0.390645
0.488471
0.567698
0.638998
0.701875
0.745721
0.793993
0.834593
0.87267
0.895845
0.914958
0.928642
0.945056
0.947269
0.0386277
0.381595
1.01152
1.5314
1.84209
2.02256
2.13841
2.23364
2.29444
2.32608
2.35766
2.35974
2.34222
2.30336
2.25768
2.19937
2.13146
1.98801
0.743743
3.54008
4.90707
5.29832
5.33671
5.2693
5.24512
5.26918
5.30478
5.3277
5.3295
5.29001
5.21023
5.0874
4.93503
4.7615
4.49415
3.85046
6.02341
8.47386
7.32046
6.41453
6.52769
7.29269
8.46151
9.75035
10.9957
12.1333
13.1155
13.9387
14.6013
15.0792
15.3134
15.3832
14.9728
13.4953
0.0583689
0.0746858
0.0902999
0.103146
0.119094
0.142246
0.173497
0.213552
0.264429
0.327645
0.399567
0.477756
0.567764
0.671203
0.787643
0.929411
1.08966
1.26211
1.46296
1.7016
1.98894
2.31829
2.67594
3.02856
3.34531
3.56791
3.67748
3.727
3.75249
3.78006
3.82055
3.88812
3.97264
4.07313
4.18518
4.32436
4.46997
4.63525
4.82443
5.02001
5.22341
5.42743
5.64779
5.91325
6.16253
6.36736
6.56634
6.84998
7.24581
7.61867
7.90856
8.22028
8.64155
9.1855
9.81984
10.5664
11.3246
12.0288
12.8037
13.6639
14.2767
14.4826
14.5562
14.7072
14.8373
14.7069
14.2285
13.8623
13.6516
13.4924
13.153
12.5411
11.8408
11.869
12.3123
13.548
14.9062
15.4255
15.179
13.5589
11.7934
10.5042
9.70637
9.23814
9.01152
8.61565
7.8951
7.25294
6.9742
6.90986
6.85871
6.77211
6.67487
6.77654
7.1994
7.58966
7.59873
6.94362
5.5958
4.60951
4.4218
4.48993
4.42695
3.86288
2.60942
1.50699
1.68623
1.68509
1.34531
1.34014
1.3914
1.47959
1.58755
1.78524
2.01315
2.3147
2.63188
2.98836
3.30689
3.65908
4.02756
4.39645
4.71466
5.00791
5.27672
5.56194
5.81267
6.13751
6.45711
6.76055
7.17127
7.71202
8.2201
8.62982
9.07083
9.4887
9.93469
10.6426
11.5214
12.2915
12.7342
13.1281
13.4252
13.4172
13.2186
12.7466
12.1385
11.5735
10.857
10.3352
9.42775
8.7538
7.87494
7.31648
6.5771
6.09689
5.34953
4.80746
4.5
4.56388
4.64105
4.76714
5.2804
5.85101
6.55834
7.52149
8.34465
9.34813
10.2134
11.0398
11.5563
11.9282
12.1605
12.272
12.0689
11.9258
12.0305
12.2176
12.3029
12.5802
0.152199
0.102287
0.0949125
0.100731
0.110621
0.126737
0.149962
0.17787
0.206574
0.238815
0.281931
0.333218
0.39137
0.465427
0.554128
0.661256
0.787404
0.919695
1.10829
1.35629
1.57965
1.73092
1.80948
1.76429
1.57298
1.29299
1.00823
0.793254
0.669405
0.617874
0.592062
0.5734
0.557653
0.547625
0.538609
0.542097
0.551387
0.570236
0.595378
0.611945
0.618618
0.629661
0.665323
0.68576
0.685018
0.65389
0.616365
0.611757
0.634207
0.661056
0.659986
0.639913
0.630489
0.633491
0.651809
0.705184
0.886162
1.03476
1.14723
1.40165
1.94628
2.29178
2.54791
2.94233
3.25043
3.40524
3.45041
3.38044
3.28005
3.1542
2.87724
2.14281
1.4801
1.16705
1.08733
1.09576
1.1784
1.69237
2.97947
3.46414
3.3277
2.80181
2.74293
2.90755
3.64921
4.22723
4.45186
4.42395
4.15961
3.68605
3.13929
2.72637
2.57048
2.53966
2.48697
2.21016
1.64303
1.17006
1.03175
1.01511
1.09347
1.12184
1.05517
1.01582
1.09147
1.14851
1.16601
1.0823
0.925601
1.12042
1.01977
1.02767
1.01484
1.04891
1.0841
1.14717
1.20367
1.2758
1.34138
1.43942
1.5377
1.6634
1.78356
1.92218
2.06643
2.20107
2.32389
2.50054
2.63952
2.73839
2.80591
2.95217
3.17932
3.35124
3.39215
3.37635
3.34664
3.38215
3.49208
3.65716
3.92137
4.41492
5.10936
5.77058
6.29284
6.3145
5.90649
5.3574
4.76334
4.4621
3.95664
3.74681
3.46833
3.33014
3.11162
2.9313
2.79979
2.70435
2.73081
2.7756
3.03733
2.96572
3.03759
2.95194
3.01777
3.31747
3.64989
4.06997
4.44768
5.01427
5.61086
6.00823
6.08496
6.14655
5.93208
5.70674
5.36051
5.08513
4.88235
4.65538
0.330022
0.130715
0.0940281
0.0904509
0.0958485
0.110516
0.12627
0.139823
0.157685
0.183962
0.220782
0.264731
0.319869
0.372395
0.413825
0.464015
0.555344
0.674959
0.810295
0.886346
0.908796
0.847389
0.715123
0.550644
0.392784
0.284844
0.221391
0.193743
0.183288
0.180335
0.180177
0.17973
0.178605
0.176512
0.175305
0.173757
0.172904
0.173228
0.173865
0.175025
0.176708
0.180776
0.187725
0.19204
0.193252
0.191884
0.190176
0.191134
0.198638
0.204366
0.202799
0.196732
0.196374
0.198357
0.198796
0.200334
0.212213
0.229664
0.24091
0.264993
0.348258
0.414286
0.503375
0.628541
0.757652
1.01949
1.38388
1.6493
1.71854
1.69837
1.44552
1.04313
0.778414
0.658706
0.627554
0.62359
0.625506
0.652065
0.933834
1.42193
1.75389
2.17102
2.67093
3.08137
3.0804
2.87865
2.55196
2.11951
1.68726
1.3178
1.08211
0.992199
0.97675
0.985546
0.959883
0.84332
0.657903
0.588628
0.586409
0.64846
0.748731
0.77599
0.737921
0.704594
0.957861
1.46798
1.61262
0.85979
0.879367
1.12101
0.899567
0.822544
0.769693
0.780012
0.791166
0.815939
0.835661
0.846349
0.871014
0.908456
0.9216
0.964463
1.03598
1.09559
1.17142
1.23791
1.31349
1.45574
1.55661
1.6284
1.68847
1.7606
1.8492
1.92694
1.98735
2.00349
1.99404
2.00436
2.03992
2.19156
2.59161
3.26543
3.87253
4.24896
4.11085
3.60568
3.18438
2.93299
2.79572
2.73472
2.67074
2.63459
2.67059
2.59847
2.57651
2.47936
2.43756
2.3569
2.34524
2.38479
2.53942
2.53622
2.55344
2.32661
2.0075
2.04476
2.22534
2.44141
2.55353
2.60338
2.75725
3.00574
3.16574
3.4941
3.764
3.90717
3.76977
3.47664
3.10607
2.70195
0.681432
0.198158
0.0973551
0.0844395
0.0870141
0.09583
0.107519
0.121936
0.145626
0.189394
0.23674
0.265318
0.289397
0.295312
0.31007
0.34923
0.40637
0.475431
0.519939
0.53526
0.512765
0.428034
0.315543
0.239354
0.192846
0.165977
0.156457
0.154058
0.154347
0.160921
0.16754
0.170065
0.171813
0.172485
0.173353
0.173119
0.172886
0.173043
0.173387
0.172854
0.1718
0.171351
0.173623
0.175718
0.175498
0.174659
0.174564
0.174938
0.175108
0.172976
0.168251
0.165522
0.166418
0.169371
0.169796
0.170143
0.172131
0.173489
0.177087
0.191657
0.209795
0.219828
0.247884
0.269474
0.293423
0.345353
0.467699
0.700725
0.915147
1.01219
1.03788
0.925663
0.754097
0.669243
0.659266
0.676144
0.681824
0.691982
0.771095
1.14923
1.97159
2.48633
2.54041
2.3598
1.97652
1.65817
1.36724
1.04212
0.77832
0.633991
0.578017
0.567582
0.586259
0.602902
0.596843
0.553374
0.489825
0.473284
0.482975
0.564507
0.656561
0.679596
0.619254
0.562609
0.651305
1.05424
1.21879
0.750484
0.961079
0.936286
0.77181
0.677429
0.633719
0.646603
0.652119
0.656462
0.685302
0.706107
0.730396
0.785979
0.807322
0.802007
0.849082
0.884895
0.921236
0.964508
0.980243
1.05147
1.1919
1.2465
1.30489
1.40311
1.50756
1.52818
1.54382
1.5621
1.58044
1.61747
1.68672
1.92828
2.3902
2.92287
3.22562
3.18581
2.84283
2.51336
2.36073
2.30623
2.31048
2.31961
2.33994
2.33561
2.44762
2.41586
2.36434
2.36488
2.27651
2.21879
2.03218
2.04026
1.825
2.00261
2.20292
2.06751
1.6524
1.55113
1.73736
1.94577
2.04179
1.97739
1.95217
1.96014
2.01969
2.1946
2.67408
3.07848
3.18478
3.08159
2.86092
2.34939
1.1039
0.328039
0.114507
0.0880581
0.0915196
0.100475
0.113853
0.137158
0.166938
0.195247
0.220646
0.226425
0.217996
0.21871
0.236031
0.272856
0.323548
0.346911
0.350327
0.339896
0.305074
0.253687
0.205661
0.180052
0.16321
0.151828
0.148489
0.147511
0.150675
0.158224
0.169086
0.180518
0.191172
0.199179
0.203838
0.208236
0.213192
0.216426
0.217074
0.213847
0.202995
0.190003
0.181572
0.175719
0.171029
0.169072
0.169146
0.169664
0.168292
0.163612
0.160712
0.15812
0.155202
0.154327
0.157458
0.161996
0.161803
0.161421
0.164455
0.174068
0.176566
0.184647
0.207645
0.231525
0.251203
0.272774
0.297113
0.336385
0.459926
0.597456
0.667362
0.695324
0.701828
0.707617
0.766487
0.882034
0.924078
0.954206
1.09507
1.59727
2.08382
2.09475
1.86863
1.38502
1.14483
0.971204
0.776646
0.587626
0.476764
0.433587
0.421173
0.424604
0.449259
0.457096
0.449467
0.419637
0.387726
0.381543
0.39489
0.446855
0.471752
0.458565
0.41886
0.382918
0.391733
0.427623
0.539969
0.730901
0.951289
0.589401
0.570529
0.533523
0.53893
0.557666
0.531583
0.507924
0.521204
0.590008
0.665668
0.718999
0.776036
0.759031
0.76486
0.808373
0.848503
0.873077
0.879491
0.884034
0.985851
1.09975
1.12896
1.20986
1.34299
1.40644
1.39228
1.37197
1.38808
1.43823
1.55753
1.88237
2.31045
2.59235
2.66162
2.53519
2.21628
2.06954
2.03588
2.0423
2.06419
2.09943
2.07255
2.08896
2.2037
2.26868
2.07429
2.1908
2.12645
2.04267
1.78677
1.78308
1.48712
1.35364
1.50663
1.70005
1.48619
1.33629
1.55881
1.70745
1.7828
1.71046
1.63313
1.59411
1.59995
1.65168
1.83857
2.27274
2.70592
2.84191
2.80847
2.35144
1.61592
0.453792
0.129404
0.0895508
0.0927693
0.105697
0.125443
0.150361
0.1681
0.18361
0.191069
0.18633
0.172646
0.171633
0.18086
0.203297
0.237345
0.260267
0.264526
0.259926
0.239037
0.20967
0.190511
0.175802
0.164243
0.152523
0.149458
0.149229
0.151878
0.15663
0.162339
0.172892
0.186267
0.198786
0.206914
0.212655
0.219937
0.225492
0.227316
0.226336
0.219562
0.205268
0.19109
0.17786
0.165769
0.157192
0.152159
0.152797
0.155143
0.155062
0.15503
0.156039
0.154041
0.151225
0.152249
0.157525
0.157983
0.158308
0.159591
0.158163
0.158752
0.165506
0.180208
0.211327
0.240066
0.254109
0.265284
0.277075
0.301155
0.360243
0.447888
0.577758
0.64503
0.696098
0.838162
0.956671
1.01776
1.10601
1.31348
1.66786
1.67414
1.49624
1.06075
0.818656
0.707224
0.620179
0.49537
0.40906
0.371407
0.359142
0.357276
0.363955
0.375677
0.376731
0.367726
0.346217
0.332578
0.32955
0.331157
0.333368
0.330446
0.326595
0.324512
0.305513
0.313557
0.314548
0.390924
0.572608
0.637086
0.537885
0.548888
0.511417
0.504343
0.519253
0.480407
0.467028
0.47782
0.519987
0.614727
0.656021
0.707207
0.732926
0.717636
0.737862
0.799421
0.826591
0.84599
0.837949
0.839516
0.982008
1.03771
1.04649
1.17334
1.3275
1.33444
1.28791
1.28084
1.32618
1.48042
1.85838
2.19026
2.3095
2.3026
2.08135
1.91233
1.83507
1.80312
1.82248
1.81155
1.83894
1.74725
1.76924
1.82559
1.95312
1.76387
1.80761
1.80454
1.7026
1.49587
1.55721
1.32758
1.08985
1.08869
1.29875
1.3273
1.28191
1.50287
1.59412
1.56765
1.5235
1.45591
1.42205
1.43734
1.44266
1.54177
1.65392
2.11903
2.45048
2.62844
2.40833
2.26484
0.544606
0.13432
0.0898571
0.0928017
0.105922
0.125085
0.150489
0.167892
0.177524
0.175856
0.160107
0.148209
0.146555
0.150939
0.16372
0.186358
0.201882
0.207275
0.205778
0.196202
0.181743
0.173037
0.168465
0.162432
0.155955
0.154384
0.155142
0.155586
0.152505
0.14928
0.148345
0.148593
0.150747
0.155454
0.16063
0.171192
0.184058
0.19688
0.20232
0.202827
0.200123
0.190839
0.176113
0.160535
0.148842
0.141758
0.139645
0.141305
0.142631
0.142719
0.151956
0.160114
0.156732
0.149472
0.145249
0.147601
0.151071
0.151113
0.150032
0.149035
0.148546
0.14847
0.16082
0.198142
0.232376
0.248626
0.259704
0.267944
0.276311
0.32634
0.520865
0.610173
0.699779
0.859777
0.968941
1.03171
1.13259
1.32224
1.3132
1.2225
0.893274
0.656242
0.547067
0.495426
0.432605
0.374432
0.343927
0.331449
0.327133
0.328316
0.335439
0.3389
0.337181
0.328203
0.313633
0.308395
0.305435
0.300443
0.294131
0.290999
0.301355
0.310405
0.284036
0.245547
0.238811
0.256194
0.304439
0.462362
0.522603
0.578805
0.516531
0.476224
0.456596
0.4435
0.462939
0.474708
0.510469
0.576301
0.616493
0.656761
0.692938
0.697579
0.702167
0.706092
0.752872
0.812425
0.816482
0.798091
0.832265
0.968165
0.970144
1.00875
1.19303
1.2922
1.25249
1.226
1.25566
1.40837
1.76935
2.03213
2.10093
2.06932
1.86456
1.76584
1.68683
1.63031
1.57346
1.62948
1.72493
1.58473
1.5167
1.56599
1.54994
1.41941
1.40635
1.35989
1.28391
1.21997
1.2676
1.09944
0.926689
0.929123
1.13755
1.32159
1.30449
1.4997
1.57133
1.50683
1.41081
1.40203
1.33928
1.37443
1.38462
1.43292
1.45429
1.51911
1.98874
2.30025
2.32757
3.06637
0.733279
0.152533
0.0956839
0.0978767
0.111318
0.128255
0.15095
0.161917
0.163339
0.158429
0.14941
0.143295
0.140939
0.141997
0.147075
0.156897
0.161796
0.162734
0.160245
0.154978
0.150382
0.149647
0.154417
0.16063
0.163352
0.166995
0.16989
0.167248
0.153163
0.144982
0.140783
0.137365
0.136551
0.137775
0.142214
0.149807
0.157571
0.171129
0.1867
0.194565
0.195595
0.191684
0.18016
0.165155
0.151688
0.143309
0.138761
0.139176
0.142466
0.141333
0.143699
0.156545
0.159588
0.153629
0.142312
0.135789
0.134778
0.135886
0.135858
0.135901
0.136063
0.137563
0.145679
0.175302
0.209832
0.236859
0.252611
0.257048
0.262168
0.294587
0.449342
0.549335
0.678328
0.843006
0.949983
1.01785
1.09947
1.08065
1.0304
0.818377
0.586004
0.468643
0.416871
0.376542
0.344261
0.326192
0.316889
0.311775
0.309837
0.312157
0.317157
0.314944
0.311712
0.304103
0.295615
0.292582
0.282062
0.259006
0.252192
0.257369
0.271339
0.292215
0.281535
0.23497
0.215042
0.205853
0.236451
0.385148
0.482913
0.580297
0.519634
0.434649
0.38463
0.432901
0.493185
0.508396
0.516931
0.532731
0.554354
0.624917
0.67841
0.68549
0.697914
0.693207
0.680356
0.718714
0.783467
0.770476
0.768717
0.864122
0.919613
0.914359
1.0296
1.20761
1.22185
1.19781
1.19953
1.306
1.64977
1.88771
1.94646
1.90488
1.76056
1.70695
1.64815
1.59227
1.49539
1.40197
1.60706
1.49564
1.35125
1.28503
1.28764
1.25358
1.24707
1.17235
1.06763
1.00567
1.04622
0.902325
0.815947
0.863559
1.07252
1.35444
1.38973
1.59241
1.685
1.51874
1.37131
1.39056
1.31965
1.3518
1.3732
1.40381
1.38298
1.31733
1.52567
2.00966
2.06623
3.96539
0.957721
0.183131
0.102043
0.106701
0.128485
0.13831
0.15178
0.15867
0.159243
0.155637
0.150584
0.146429
0.142215
0.139255
0.13863
0.140107
0.140435
0.138749
0.136722
0.135688
0.135864
0.139415
0.149713
0.164801
0.181631
0.186909
0.184161
0.172651
0.154104
0.142964
0.134885
0.128929
0.12765
0.129563
0.137085
0.146283
0.15422
0.166047
0.181743
0.194868
0.20253
0.20535
0.203579
0.193814
0.177109
0.161014
0.149956
0.143766
0.145387
0.146661
0.145769
0.151316
0.162171
0.162729
0.150334
0.134542
0.128334
0.127226
0.128459
0.131886
0.133457
0.13572
0.144915
0.17238
0.205273
0.233713
0.250956
0.25515
0.258668
0.282926
0.394502
0.493779
0.643013
0.791565
0.901187
0.936487
0.922226
0.887609
0.780499
0.574972
0.442257
0.382592
0.345364
0.314433
0.301884
0.301212
0.296032
0.287638
0.287085
0.290302
0.287015
0.279153
0.275217
0.276233
0.280115
0.27923
0.269549
0.237658
0.220367
0.215905
0.204011
0.220021
0.255121
0.22844
0.20823
0.191436
0.199678
0.285902
0.415622
0.529191
0.485027
0.40568
0.368525
0.437087
0.523016
0.534772
0.520825
0.489583
0.497658
0.586979
0.662591
0.675525
0.696857
0.689784
0.670724
0.654348
0.700326
0.735276
0.725487
0.75811
0.848827
0.86452
0.89771
1.07762
1.16889
1.16763
1.16214
1.20037
1.47029
1.76866
1.84469
1.82256
1.70396
1.6903
1.6373
1.57932
1.49663
1.34598
1.36075
1.34894
1.27611
1.07947
1.03215
1.14331
1.08925
0.941689
0.943233
0.864716
0.820778
0.764805
0.761225
0.850006
1.05493
1.32266
1.46221
1.84913
1.90965
1.59879
1.3601
1.38577
1.32043
1.34661
1.36759
1.39636
1.36704
1.23593
1.32949
1.71216
1.85314
4.96932
1.33294
0.246435
0.110815
0.108766
0.135267
0.155923
0.16129
0.163204
0.16258
0.159716
0.157796
0.155366
0.146989
0.140441
0.138723
0.13879
0.138607
0.137085
0.136687
0.137334
0.139642
0.145689
0.159127
0.17627
0.185298
0.186469
0.18169
0.164783
0.139856
0.123791
0.115375
0.112389
0.112316
0.114542
0.122626
0.135801
0.150936
0.16521
0.181357
0.195621
0.204496
0.208317
0.209037
0.208889
0.205764
0.196033
0.180322
0.162384
0.154874
0.156442
0.158505
0.161068
0.165158
0.167368
0.163011
0.143963
0.131258
0.12662
0.126902
0.129465
0.131045
0.134247
0.144885
0.179249
0.217755
0.242537
0.255857
0.25785
0.259345
0.273831
0.327776
0.443304
0.600358
0.725622
0.794529
0.810738
0.801957
0.733972
0.588879
0.453616
0.375166
0.34027
0.304268
0.286665
0.281264
0.275454
0.259871
0.25129
0.25263
0.253988
0.247029
0.244453
0.244967
0.247027
0.256006
0.263401
0.260768
0.235978
0.218816
0.211088
0.191436
0.17702
0.181483
0.2051
0.203142
0.18856
0.179577
0.218456
0.341962
0.461049
0.436575
0.400359
0.365826
0.434397
0.496427
0.527982
0.521485
0.485662
0.485103
0.527801
0.620696
0.642461
0.67036
0.682391
0.669712
0.64153
0.628024
0.673225
0.682365
0.692595
0.76196
0.802245
0.809292
0.921116
1.07355
1.1072
1.11093
1.13369
1.29606
1.59306
1.72288
1.74718
1.65316
1.65655
1.60812
1.55174
1.49641
1.33294
1.23239
1.19489
1.18544
1.00256
0.918471
0.985389
0.894385
0.732243
0.761505
0.776896
0.695822
0.686316
0.735383
0.868911
1.04646
1.29674
1.62359
2.24346
1.97221
1.63519
1.35582
1.36321
1.37131
1.38179
1.36552
1.40164
1.36711
1.20548
1.23164
1.47896
1.73344
5.93397
1.79085
0.378142
0.12907
0.10939
0.132921
0.157499
0.168241
0.175707
0.179092
0.180372
0.186654
0.186064
0.169048
0.151604
0.146582
0.145469
0.146602
0.147766
0.148394
0.151312
0.158105
0.16715
0.176322
0.180109
0.18138
0.177473
0.162773
0.140483
0.123687
0.11434
0.109947
0.108795
0.10904
0.110502
0.115184
0.12112
0.131008
0.153952
0.182343
0.200054
0.208606
0.209506
0.207959
0.206193
0.206616
0.205892
0.203801
0.194047
0.173962
0.164256
0.163416
0.164559
0.168325
0.170148
0.170374
0.160582
0.143329
0.133188
0.129144
0.129123
0.130481
0.134717
0.145625
0.180973
0.231484
0.263136
0.276354
0.279958
0.274446
0.274958
0.28868
0.382856
0.546468
0.655718
0.71291
0.725186
0.70925
0.611759
0.486834
0.392329
0.343843
0.308802
0.284405
0.273551
0.270729
0.260595
0.241179
0.235863
0.235196
0.23057
0.22673
0.230292
0.231898
0.231088
0.230921
0.235867
0.240892
0.234008
0.225133
0.212427
0.193995
0.174647
0.15732
0.162869
0.190587
0.186884
0.17351
0.199531
0.284771
0.382276
0.409786
0.399376
0.369427
0.395211
0.403041
0.513986
0.539319
0.504275
0.490338
0.47166
0.516574
0.572211
0.590965
0.621717
0.653897
0.634913
0.604456
0.606462
0.629599
0.639651
0.678955
0.731313
0.756219
0.795736
0.944365
1.01982
1.03174
1.05566
1.16154
1.41939
1.5714
1.61897
1.59269
1.58282
1.50997
1.42602
1.38766
1.27969
1.14121
1.07174
1.02093
0.861254
0.809019
0.771561
0.689455
0.65796
0.692858
0.678732
0.639518
0.662631
0.734104
0.879854
1.07754
1.42201
1.85928
2.29958
1.87375
1.64221
1.33608
1.30748
1.46843
1.46907
1.36583
1.42223
1.38731
1.19553
1.18446
1.24596
1.47804
6.82164
2.25324
0.600603
0.177763
0.113155
0.127392
0.155272
0.165267
0.175147
0.185406
0.189607
0.193713
0.197193
0.192055
0.17767
0.166991
0.16362
0.164916
0.171623
0.177526
0.181152
0.183964
0.186702
0.187538
0.18606
0.182407
0.170949
0.153126
0.136224
0.123388
0.115045
0.1106
0.109116
0.108968
0.109895
0.112872
0.118428
0.124222
0.132329
0.157419
0.194004
0.210415
0.212719
0.209877
0.205005
0.204928
0.206463
0.206486
0.206257
0.196596
0.175766
0.166064
0.165112
0.168081
0.169788
0.169258
0.16354
0.146701
0.136865
0.133727
0.134272
0.1366
0.140911
0.148433
0.172742
0.229946
0.275246
0.308065
0.317627
0.306207
0.288281
0.287453
0.33318
0.50141
0.609993
0.651529
0.654781
0.630716
0.518417
0.415884
0.355053
0.324613
0.292656
0.272548
0.265308
0.262712
0.25142
0.232022
0.226572
0.22367
0.215246
0.214437
0.217389
0.217821
0.216297
0.211176
0.210836
0.20567
0.212265
0.221869
0.214664
0.211168
0.185732
0.158218
0.158468
0.173416
0.178448
0.171559
0.184947
0.260174
0.359092
0.386941
0.387936
0.372538
0.360391
0.377681
0.484323
0.548947
0.560794
0.503946
0.457035
0.447738
0.474484
0.49365
0.525772
0.592039
0.615917
0.588632
0.571595
0.580339
0.593743
0.622992
0.677909
0.705977
0.736116
0.827726
0.911129
0.926096
0.953816
1.01459
1.24542
1.44899
1.46553
1.48691
1.49313
1.44195
1.31857
1.22891
1.14274
1.03314
1.00057
0.85884
0.714477
0.694023
0.638676
0.602681
0.596733
0.614602
0.617726
0.620462
0.659095
0.768862
0.85998
1.20976
1.81705
1.93651
2.16031
1.60066
1.53677
1.29786
1.24096
1.53073
1.57525
1.41852
1.4349
1.41549
1.19737
1.17131
1.1743
1.30526
7.69884
2.66316
0.79649
0.256958
0.126852
0.127651
0.150795
0.160004
0.165969
0.179839
0.188295
0.191642
0.195515
0.193829
0.185351
0.174136
0.167663
0.167105
0.172756
0.180542
0.186985
0.191041
0.192267
0.191859
0.188674
0.18182
0.171882
0.158165
0.143116
0.130054
0.120852
0.115576
0.112933
0.112088
0.111669
0.112177
0.117633
0.124175
0.13142
0.151042
0.185916
0.205619
0.21046
0.20884
0.205786
0.205949
0.2085
0.210119
0.209286
0.205595
0.184442
0.168361
0.163242
0.162832
0.16508
0.165039
0.160366
0.144662
0.135185
0.132425
0.133318
0.136934
0.141694
0.149461
0.164067
0.210386
0.26795
0.319327
0.358513
0.350223
0.310847
0.29728
0.317124
0.441967
0.556795
0.601855
0.606424
0.579689
0.465358
0.37718
0.332407
0.304008
0.274428
0.258236
0.253819
0.251081
0.240606
0.220853
0.213684
0.207977
0.198615
0.195975
0.194237
0.190766
0.191696
0.196281
0.198007
0.195025
0.183968
0.185783
0.190328
0.211058
0.200757
0.162647
0.157677
0.161376
0.168222
0.169918
0.174297
0.237287
0.346528
0.375788
0.366945
0.366841
0.358374
0.390433
0.433029
0.507593
0.567425
0.498742
0.447084
0.440912
0.434339
0.429767
0.446219
0.495968
0.570613
0.573441
0.547923
0.53476
0.540932
0.570375
0.621506
0.649777
0.695784
0.749873
0.812741
0.82489
0.835366
0.884753
1.0362
1.26909
1.29575
1.33146
1.31391
1.29211
1.18582
1.09893
1.01883
0.911727
0.869957
0.725864
0.663037
0.628997
0.575119
0.564531
0.568669
0.564219
0.576898
0.61344
0.683888
0.847253
0.905282
1.3556
1.88529
1.8853
1.72961
1.35999
1.24414
1.26414
1.1398
1.46865
1.58133
1.44399
1.43516
1.46965
1.23914
1.17156
1.17647
1.26269
8.5913
3.00569
0.999106
0.337283
0.153268
0.130079
0.142042
0.148607
0.15593
0.171094
0.184229
0.184082
0.182457
0.182839
0.18121
0.174143
0.164702
0.158411
0.157658
0.161437
0.168529
0.174918
0.179655
0.181101
0.179094
0.17271
0.166991
0.157711
0.148634
0.138168
0.13038
0.124384
0.120001
0.118509
0.117831
0.118339
0.122698
0.1301
0.140051
0.163638
0.199696
0.215068
0.215701
0.210093
0.207276
0.209106
0.214723
0.219573
0.219159
0.212329
0.188932
0.171695
0.163693
0.16149
0.160307
0.157127
0.14827
0.13301
0.126148
0.123406
0.125439
0.133714
0.138494
0.147128
0.159631
0.18074
0.233289
0.306439
0.37753
0.391989
0.352877
0.320359
0.324997
0.406285
0.499809
0.543769
0.550732
0.533344
0.43695
0.354616
0.319823
0.290598
0.260056
0.24336
0.239081
0.236645
0.227435
0.207986
0.199964
0.194891
0.18976
0.187813
0.185539
0.183283
0.184475
0.187257
0.192661
0.19327
0.183463
0.169567
0.154611
0.177804
0.190981
0.165444
0.156656
0.155779
0.158773
0.167523
0.170891
0.223045
0.333258
0.363357
0.349793
0.349773
0.363634
0.442848
0.435107
0.452625
0.52563
0.481513
0.439866
0.432751
0.412133
0.404754
0.416371
0.422323
0.503326
0.545637
0.52466
0.507105
0.500541
0.514191
0.564149
0.602188
0.644384
0.677076
0.739172
0.754167
0.750863
0.768721
0.838464
1.0312
1.11205
1.14853
1.09872
1.07824
0.997584
0.969934
0.898357
0.821568
0.752394
0.642471
0.603948
0.551633
0.531368
0.539051
0.543682
0.544829
0.568532
0.623518
0.745164
0.906736
0.948249
1.37721
1.81519
1.56158
1.63809
1.30233
1.04751
1.24554
1.04562
1.18745
1.46147
1.40052
1.38603
1.46524
1.31384
1.19232
1.21325
1.23122
9.59566
3.26381
1.24401
0.425059
0.184398
0.135665
0.141147
0.142905
0.143869
0.153556
0.179543
0.182807
0.179422
0.170952
0.165234
0.160635
0.150642
0.142349
0.136871
0.134634
0.134541
0.136249
0.138422
0.140199
0.140385
0.141719
0.147664
0.149043
0.146201
0.139417
0.136191
0.135293
0.133386
0.132879
0.132679
0.133342
0.137542
0.146206
0.16516
0.199593
0.219592
0.224254
0.222639
0.218781
0.219722
0.223846
0.232927
0.238396
0.23732
0.219505
0.192805
0.178032
0.169967
0.165141
0.160539
0.150127
0.129523
0.11832
0.114079
0.111665
0.110248
0.120715
0.129066
0.137192
0.148156
0.163341
0.186115
0.25352
0.370058
0.428875
0.412806
0.360192
0.348707
0.393924
0.473253
0.505081
0.507967
0.487545
0.39799
0.327203
0.301779
0.276415
0.248219
0.23246
0.228322
0.225269
0.21607
0.203367
0.196036
0.190062
0.185901
0.18377
0.181394
0.179684
0.180913
0.182989
0.187747
0.19081
0.186764
0.173962
0.154386
0.148343
0.160524
0.161595
0.153805
0.152466
0.156113
0.162935
0.169994
0.221794
0.324834
0.349113
0.332745
0.337845
0.379904
0.475383
0.469532
0.45358
0.447172
0.456708
0.429213
0.412382
0.377532
0.372614
0.3908
0.392724
0.441597
0.505888
0.500957
0.483881
0.472453
0.46907
0.50512
0.556171
0.593422
0.614015
0.669125
0.697508
0.702753
0.689526
0.702528
0.804819
0.952923
0.992834
0.943854
0.922404
0.867452
0.850327
0.773895
0.710505
0.618644
0.561155
0.546854
0.516557
0.513819
0.523852
0.526088
0.538534
0.569754
0.672911
0.850647
0.931813
0.954316
1.35054
1.51402
1.27381
1.59895
1.26556
1.01082
1.2022
1.03596
0.940807
1.11133
1.32501
1.25444
1.36686
1.33256
1.20499
1.2596
1.21077
10.7767
3.50979
1.41508
0.623233
0.239087
0.148956
0.144067
0.144347
0.142006
0.146895
0.164818
0.177514
0.177015
0.171014
0.16451
0.159238
0.149973
0.14118
0.135844
0.13429
0.132061
0.128037
0.126029
0.125944
0.12707
0.129135
0.13134
0.136149
0.137082
0.138426
0.140821
0.143781
0.145989
0.147009
0.148631
0.153188
0.162273
0.177477
0.212268
0.227145
0.228702
0.228619
0.227751
0.230743
0.234636
0.244373
0.257129
0.256165
0.244329
0.219604
0.195074
0.180841
0.173834
0.168686
0.161414
0.140303
0.120671
0.11309
0.110302
0.109172
0.107069
0.107505
0.11414
0.115725
0.122019
0.144759
0.168982
0.193581
0.317711
0.434893
0.453103
0.416319
0.378022
0.387333
0.450298
0.477623
0.479453
0.4564
0.371054
0.312072
0.286978
0.261038
0.236782
0.223825
0.220305
0.218149
0.211769
0.201689
0.195052
0.187069
0.183677
0.180239
0.176999
0.176137
0.1775
0.178751
0.177544
0.17604
0.180131
0.175581
0.15362
0.148013
0.146082
0.15219
0.149298
0.151384
0.155237
0.160893
0.170738