/*--------------------------------*- C++ -*----------------------------------*\
| =========                 |                                                 |
| \\      /  F ield         | OpenFOAM: The Open Source CFD Toolbox           |
|  \\    /   O peration     | Version:  dev                                   |
|   \\  /    A nd           | Web:      http://www.openfoam.org               |
|    \\/     M anipulation  |                                                 |
\*---------------------------------------------------------------------------*/
FoamFile
{
    version     2.0;
    format      ascii;
    class       volScalarField;
    object      k_0;
    location    "9.129";
}
// * * * * * * * * * * * * * * * * * * * * * * * * * * * * * * * * * * * * * //

dimensions      [0 2 -2 0 0 0 0];

internalField   nonuniform List<scalar> 
12225
(
7.68517
7.63396
4.65839
5.63039
7.48484
8.77943
13.5514
13.8929
19.9102
19.1632
25.8922
22.7666
28.6974
21.409
26.0043
24.9366
38.1622
46.9584
1.57494
6.6214
5.2674
7.52758
5.5296
8.05963
7.17446
9.01306
8.8466
9.93854
10.4419
10.9038
11.5585
10.3305
14.2521
21.0473
45.8915
37.5193
0.171922
2.51877
2.43932
4.23811
3.23532
4.61565
3.81645
4.59073
4.36973
4.58256
5.00755
4.56231
5.30778
4.51372
9.12527
25.8323
36.0735
31.1477
0.0176782
0.572797
0.737042
1.15899
1.58217
1.5975
2.03999
1.61669
2.04813
1.53934
2.00719
1.58428
2.07679
2.03673
7.28931
22.5222
38.4909
32.321
0.00308317
0.122271
0.217734
0.33467
0.607777
0.620986
0.906932
0.726128
0.908096
0.687443
0.891823
0.690917
1.07074
0.983811
3.64483
12.3608
39.1157
44.4506
0.0106724
0.107688
0.132114
0.206268
0.269465
0.33944
0.441212
0.403369
0.470433
0.468657
0.488514
0.479659
0.546304
0.686794
1.87222
6.79799
30.4171
46.239
0.0037134
0.0202778
0.0444812
0.0483006
0.0926206
0.0953366
0.165245
0.126916
0.202193
0.179649
0.309778
0.288247
0.480573
0.587044
1.20816
3.99661
19.4631
41.4378
0.00166826
0.00330376
0.0118852
0.0117594
0.0292578
0.0260532
0.0561992
0.0394047
0.0713376
0.0575763
0.102551
0.0892082
0.195781
0.246639
0.883661
1.80443
7.47226
15.356
0.00162359
0.00205657
0.00439
0.00480136
0.0103568
0.0100688
0.0205795
0.017039
0.0273341
0.0268316
0.0395621
0.0402204
0.0683046
0.0994176
0.282443
0.665911
2.35313
3.20603
0.00253054
0.00260437
0.00320528
0.00368771
0.00514739
0.00612462
0.00937698
0.0101567
0.0131548
0.0153888
0.0199057
0.0245877
0.0335552
0.049881
0.0895826
0.174941
0.498059
0.606642
0.00337108
0.00359281
0.00353369
0.00398057
0.00461178
0.00571063
0.0071746
0.00871965
0.0101992
0.0127943
0.0158957
0.0208366
0.0268564
0.0380979
0.0535153
0.0761343
0.134814
0.174426
0.00533566
0.00548032
0.00487599
0.00574917
0.00538602
0.00675983
0.00708574
0.00950038
0.0105207
0.0146756
0.0167081
0.0228322
0.0283212
0.0394081
0.0518684
0.0673881
0.088945
0.111112
0.00925846
0.00766746
0.00669011
0.00678133
0.00660276
0.00698397
0.00755255
0.00917938
0.0113784
0.015448
0.0203474
0.0273838
0.0387182
0.0539532
0.0710924
0.0903623
0.112454
0.128068
0.0175935
0.0137446
0.0104589
0.00958754
0.00843062
0.00870591
0.00842968
0.00985369
0.0123575
0.0177895
0.0261641
0.0417002
0.067053
0.0981606
0.13176
0.162931
0.190393
0.211603
0.0273487
0.0195527
0.0136554
0.0110251
0.00995257
0.00972641
0.0100951
0.0120343
0.0164439
0.0256421
0.0462246
0.0902026
0.141134
0.187606
0.228026
0.262127
0.289069
0.310193
0.0384022
0.0273721
0.0181927
0.0135969
0.0118462
0.011604
0.0128082
0.0171054
0.0269478
0.0487961
0.093779
0.146944
0.198345
0.244855
0.285318
0.318533
0.344593
0.364023
0.0498165
0.0333674
0.020915
0.0151265
0.0131389
0.0128285
0.0142429
0.0193506
0.0312764
0.0596071
0.111853
0.166355
0.218098
0.264751
0.305061
0.338086
0.364
0.383099
0.0501861
0.0329261
0.0204227
0.0147323
0.0128645
0.0126754
0.0139861
0.0190033
0.0311052
0.0602935
0.112759
0.166597
0.21759
0.263561
0.303187
0.335753
0.361273
0.380115
0.0388241
0.0264909
0.0169032
0.0124731
0.0108221
0.0106101
0.0116224
0.0157708
0.0261634
0.0509506
0.0975104
0.146477
0.193387
0.236265
0.273797
0.305158
0.329744
0.34919
0.0256928
0.0178568
0.0115586
0.00883484
0.00796446
0.00787319
0.00881912
0.0121457
0.0179065
0.0293755
0.055598
0.092018
0.12933
0.165884
0.199547
0.228983
0.252024
0.273285
0.0169221
0.0120187
0.00815442
0.00651775
0.00596727
0.00587621
0.00633634
0.00823195
0.0117686
0.0184503
0.0335087
0.0553967
0.0787003
0.102043
0.123554
0.143209
0.157005
0.172019
0.00928527
0.00706961
0.00523934
0.00431129
0.00394059
0.00390638
0.00425065
0.00539921
0.00703855
0.0100534
0.016404
0.0277283
0.039638
0.0534272
0.064686
0.0774384
0.0856371
0.0949365
0.00528251
0.00420557
0.00325743
0.0030546
0.00302942
0.00317579
0.0036023
0.00455832
0.00562653
0.00767567
0.0111378
0.0185533
0.0261585
0.0356354
0.0427484
0.0511589
0.0573232
0.0644992
0.00268207
0.00236962
0.0022824
0.00259339
0.00294709
0.00359663
0.00429925
0.00583201
0.00736868
0.0102251
0.0134181
0.0199787
0.0267068
0.0354668
0.0419093
0.0497335
0.0558532
0.0631094
0.00118361
0.0014167
0.0021153
0.00425116
0.00695646
0.0111116
0.0150533
0.0221391
0.0280923
0.0364323
0.0432604
0.0535728
0.0631785
0.0753879
0.0846013
0.095525
0.104062
0.114553
0.000376021
0.0021374
0.00875813
0.0277012
0.0511086
0.0735066
0.0980268
0.125537
0.152052
0.175915
0.199063
0.223818
0.247481
0.270059
0.287594
0.304668
0.318466
0.336168
0.00144981
0.0236159
0.0965348
0.243428
0.368016
0.46382
0.543212
0.614547
0.677475
0.721802
0.770376
0.811675
0.850418
0.874652
0.894862
0.909659
0.927256
0.931835
0.0330335
0.351565
0.968783
1.47901
1.79431
1.97836
2.09646
2.19266
2.2541
2.28694
2.3199
2.32388
2.30853
2.27299
2.23056
2.17491
2.11179
1.97869
0.716275
3.52504
4.92051
5.32454
5.3577
5.28649
5.26067
5.2795
5.30848
5.32528
5.32144
5.27644
5.19244
5.06554
4.91054
4.73334
4.47266
3.85622
5.98718
8.55583
7.44835
6.6393
6.84424
7.72009
9.02211
10.4563
11.8432
13.1109
14.2038
15.1154
15.8437
16.3621
16.6075
16.6726
16.2266
14.6061
0.0588269
0.0752096
0.090966
0.103938
0.120098
0.143589
0.175305
0.215989
0.267696
0.331913
0.404952
0.484472
0.576171
0.681626
0.800508
0.945251
1.10878
1.28488
1.4901
1.73382
2.02711
2.36326
2.7286
3.08928
3.41441
3.64424
3.75782
3.81259
3.84366
3.87499
3.91862
3.99061
4.0803
4.18675
4.30593
4.4527
4.60643
4.78086
4.97974
5.18589
5.40099
5.61644
5.84843
6.12719
6.3893
6.60789
6.82211
7.12314
7.53641
7.92005
8.22368
8.55467
8.99517
9.56218
10.2243
10.9917
11.7559
12.4716
13.2653
14.1118
14.6726
14.8422
14.9095
15.049
15.15
14.9761
14.4839
14.1315
13.9322
13.7615
13.3915
12.775
12.1041
12.1682
12.6378
13.8818
15.0822
15.4212
15.0125
13.2539
11.5597
10.3208
9.54079
9.0814
8.81275
8.35759
7.6564
7.10733
6.91886
6.91407
6.89685
6.83614
6.75671
6.88086
7.32632
7.73216
7.76561
7.11723
5.7231
4.67515
4.45798
4.50853
4.44091
3.8611
2.56892
1.47501
1.64561
1.61559
1.30485
1.29121
1.341
1.43531
1.54644
1.74984
1.98354
2.29192
2.61727
2.98219
3.3083
3.66772
4.0437
4.41856
4.74121
5.03685
5.30775
5.59564
5.84935
6.17873
6.50292
6.81645
7.24638
7.80603
8.32475
8.74897
9.21878
9.66507
10.1375
10.8819
11.8008
12.6004
13.0632
13.4782
13.7762
13.7443
13.4845
12.9269
12.2239
11.5742
10.7978
10.2429
9.33343
8.67086
7.82244
7.29806
6.57897
6.11517
5.36912
4.80975
4.47847
4.53478
4.49782
4.56804
5.00517
5.54148
6.2989
7.2817
8.14404
9.1948
10.0874
10.9699
11.5444
11.9926
12.2556
12.3703
12.1494
11.9796
12.0431
12.1863
12.2017
12.3561
0.153974
0.102821
0.095441
0.101314
0.111271
0.127523
0.150906
0.178981
0.207886
0.240342
0.283772
0.335556
0.394264
0.46886
0.558116
0.665558
0.791964
0.924212
1.11244
1.36135
1.58678
1.73709
1.82282
1.78136
1.59364
1.31438
1.02938
0.810593
0.680134
0.626151
0.599377
0.580398
0.564318
0.554443
0.544893
0.548633
0.558303
0.577805
0.603944
0.621393
0.628497
0.639969
0.676965
0.697712
0.696462
0.663546
0.625728
0.621253
0.644717
0.670288
0.668425
0.646891
0.637848
0.641124
0.661841
0.724762
0.923007
1.07218
1.19569
1.49746
2.06472
2.40444
2.6759
3.08138
3.37151
3.49785
3.51257
3.41392
3.30963
3.17144
2.87218
2.09264
1.44599
1.15038
1.0809
1.09459
1.2058
1.91519
3.1913
3.56997
3.34092
2.77623
2.7235
2.94273
3.75514
4.29952
4.48772
4.4403
4.1727
3.71346
3.17893
2.77029
2.61612
2.58474
2.53265
2.26066
1.69046
1.18358
1.0307
1.00856
1.0825
1.11225
1.04023
0.990303
1.04773
1.08326
1.09622
1.04018
0.891011
1.0578
0.978962
0.995138
0.988191
1.02369
1.06134
1.12646
1.18761
1.2659
1.33494
1.43872
1.54357
1.67161
1.7932
1.93578
2.08119
2.21748
2.33966
2.51524
2.6569
2.75327
2.82383
2.98285
3.22205
3.38929
3.42318
3.40679
3.37886
3.41435
3.53007
3.70328
3.96207
4.42889
5.11288
5.78203
6.334
6.39627
6.02557
5.47944
4.86561
4.55229
4.00517
3.77626
3.46628
3.32251
3.0819
2.89255
2.741
2.64057
2.66466
2.70739
2.93951
2.87248
2.95035
2.90059
3.01875
3.33201
3.67417
4.10546
4.50577
5.10931
5.71311
6.08415
6.14626
6.17288
5.93379
5.69393
5.35418
5.10068
4.93813
4.7497
0.335515
0.131385
0.0944791
0.090865
0.0962739
0.11099
0.126812
0.140439
0.15841
0.184907
0.22199
0.266106
0.321239
0.373594
0.414603
0.463974
0.554135
0.672712
0.807639
0.884854
0.91046
0.851569
0.72107
0.557696
0.39971
0.290809
0.224927
0.19543
0.184142
0.180665
0.180304
0.179697
0.178442
0.176124
0.174629
0.172878
0.171855
0.172101
0.172674
0.173772
0.17544
0.179631
0.186637
0.190835
0.191815
0.190285
0.188602
0.189549
0.197112
0.202388
0.201035
0.195065
0.19457
0.196066
0.196718
0.198881
0.212325
0.230485
0.243557
0.271068
0.364318
0.433994
0.53419
0.670189
0.818703
1.11486
1.48683
1.7175
1.76276
1.7172
1.40073
0.998128
0.745761
0.636387
0.608833
0.60554
0.610789
0.655361
1.0205
1.48514
1.7827
2.20655
2.71256
3.10429
3.09976
2.89015
2.57181
2.14503
1.71609
1.34211
1.10153
1.0098
0.992259
0.998821
0.971628
0.851695
0.657781
0.58243
0.578075
0.632386
0.728573
0.754759
0.725075
0.697683
0.928465
1.39692
1.52491
0.847676
0.836983
1.06076
0.869242
0.801756
0.753737
0.763502
0.775121
0.801265
0.819809
0.831698
0.855811
0.889845
0.907469
0.956117
1.02533
1.09048
1.17342
1.2432
1.32637
1.46579
1.56186
1.64039
1.69551
1.76006
1.84812
1.94234
2.00594
2.01646
1.99852
2.00307
2.03723
2.18313
2.57875
3.26261
3.88872
4.28054
4.17038
3.67795
3.23537
2.95785
2.79168
2.72145
2.63904
2.59282
2.61408
2.53871
2.52107
2.41036
2.36754
2.28913
2.29145
2.33137
2.48851
2.4724
2.47658
2.2435
1.97961
2.04203
2.22849
2.42062
2.52303
2.60002
2.78522
3.0637
3.23354
3.56755
3.79558
3.89917
3.74026
3.43268
3.07472
2.71699
0.69538
0.198892
0.0977717
0.0848462
0.0874536
0.096339
0.108114
0.122656
0.146524
0.190284
0.237435
0.265822
0.28963
0.295102
0.309309
0.347701
0.404098
0.472539
0.517004
0.53358
0.513066
0.431446
0.319755
0.242581
0.19554
0.167319
0.156998
0.154238
0.154285
0.160371
0.167086
0.16934
0.170804
0.171143
0.171755
0.171169
0.170625
0.170591
0.170787
0.170339
0.169608
0.169358
0.171661
0.173724
0.173621
0.172766
0.172493
0.172699
0.172678
0.170383
0.165739
0.163508
0.164698
0.167516
0.167696
0.167892
0.169805
0.171452
0.175542
0.190656
0.208685
0.219707
0.248292
0.269757
0.2994
0.36153
0.51119
0.764935
0.966948
1.04601
1.05462
0.900298
0.731191
0.650666
0.643437
0.655753
0.661213
0.676709
0.77153
1.20973
2.02779
2.50935
2.55292
2.36692
1.99244
1.67715
1.38701
1.06001
0.791417
0.642195
0.584442
0.573025
0.589106
0.604949
0.598181
0.554738
0.488537
0.470345
0.478325
0.554342
0.644772
0.668144
0.616478
0.566222
0.669096
1.09028
1.2472
0.726246
0.908935
0.937888
0.76854
0.673653
0.624857
0.635085
0.64282
0.653124
0.680796
0.69446
0.715019
0.766391
0.784108
0.783902
0.833268
0.867864
0.907457
0.951793
0.974934
1.06364
1.19036
1.24183
1.3111
1.40486
1.49122
1.51002
1.54192
1.56441
1.5787
1.60804
1.66737
1.90049
2.36637
2.92268
3.24349
3.22332
2.89101
2.53691
2.36341
2.29168
2.28632
2.28684
2.30558
2.29487
2.39331
2.35614
2.32028
2.30553
2.21408
2.15826
1.99508
2.00489
1.8229
2.0228
2.18228
2.00724
1.61109
1.54361
1.73343
1.92555
2.0089
1.94805
1.93805
1.96947
2.04564
2.24421
2.73997
3.10007
3.17087
3.04511
2.80766
2.31407
1.13088
0.328698
0.114701
0.0884233
0.0919382
0.100994
0.114468
0.137846
0.167518
0.195642
0.221094
0.22662
0.217582
0.217916
0.234297
0.270113
0.320589
0.345504
0.349316
0.339702
0.306203
0.255886
0.207888
0.18168
0.164738
0.152454
0.148896
0.147703
0.150531
0.157703
0.168336
0.179696
0.190321
0.198172
0.202565
0.206632
0.211086
0.213995
0.214344
0.210783
0.199701
0.187135
0.179227
0.173916
0.169561
0.167768
0.16782
0.16806
0.166361
0.161606
0.158394
0.155579
0.153116
0.152723
0.155983
0.159735
0.15959
0.159459
0.1627
0.172417
0.175645
0.184398
0.207937
0.229839
0.24866
0.271369
0.298237
0.351228
0.499658
0.631632
0.689727
0.704322
0.698706
0.703902
0.76505
0.869561
0.902841
0.930958
1.09173
1.63883
2.11082
2.11886
1.87946
1.40327
1.16435
0.986472
0.790444
0.596839
0.481404
0.436279
0.42341
0.42617
0.450686
0.458066
0.450237
0.420712
0.387482
0.381042
0.393785
0.449926
0.482137
0.473358
0.431899
0.390941
0.396014
0.441049
0.552509
0.709045
0.91729
0.587948
0.558566
0.521172
0.524334
0.542199
0.522006
0.503094
0.518528
0.587036
0.650239
0.703103
0.754091
0.73853
0.751523
0.794494
0.832976
0.857418
0.863938
0.877991
0.996491
1.08989
1.12911
1.21969
1.33926
1.38475
1.37452
1.36782
1.38516
1.43108
1.54208
1.8585
2.29616
2.60056
2.6839
2.56731
2.24182
2.07329
2.02766
2.02643
2.04781
2.07646
2.06335
2.07752
2.17991
2.23009
2.06238
2.16771
2.09015
2.01247
1.76868
1.7517
1.44883
1.37414
1.57328
1.71175
1.45464
1.31157
1.543
1.68748
1.76309
1.68666
1.61945
1.58576
1.59807
1.66667
1.87078
2.34628
2.72705
2.82883
2.76642
2.30509
1.66202
0.454201
0.129393
0.0898816
0.0931099
0.106032
0.125808
0.150847
0.168678
0.183979
0.191529
0.186719
0.172517
0.171299
0.179937
0.201561
0.23494
0.25874
0.263567
0.25965
0.239828
0.210927
0.191782
0.176963
0.165582
0.153335
0.149946
0.149545
0.151967
0.156762
0.162396
0.172897
0.186496
0.199344
0.207673
0.213346
0.220038
0.225329
0.226774
0.22555
0.218518
0.203926
0.189614
0.176546
0.164947
0.156922
0.152392
0.152939
0.15478
0.154608
0.154114
0.153988
0.151597
0.149667
0.151436
0.156315
0.156468
0.156702
0.157847
0.156991
0.158054
0.165806
0.183202
0.214483
0.239673
0.251792
0.262422
0.275553
0.309552
0.383793
0.474713
0.590206
0.648375
0.701263
0.848242
0.959578
1.01828
1.1084
1.33528
1.69475
1.70343
1.51598
1.08126
0.834741
0.719967
0.630706
0.502966
0.4117
0.371757
0.358873
0.356504
0.36262
0.37496
0.376095
0.367083
0.34489
0.329837
0.326461
0.328357
0.332103
0.329594
0.322602
0.317952
0.304461
0.320501
0.322274
0.402399
0.599905
0.659777
0.523134
0.526672
0.492735
0.490431
0.507488
0.47242
0.45569
0.465937
0.508278
0.601734
0.643789
0.693325
0.714324
0.702137
0.730945
0.794202
0.815958
0.831983
0.826504
0.839803
0.989175
1.02864
1.05453
1.19182
1.31813
1.31466
1.27477
1.27586
1.32376
1.47434
1.84763
2.18888
2.32006
2.31684
2.10112
1.91391
1.83821
1.80886
1.82295
1.80663
1.82635
1.75247
1.78219
1.83337
1.96053
1.78153
1.8376
1.82089
1.71275
1.50696
1.55575
1.29954
1.09656
1.11247
1.31676
1.30286
1.24654
1.47822
1.5601
1.55028
1.51187
1.43849
1.41163
1.42287
1.43277
1.54441
1.68099
2.19549
2.47608
2.6206
2.37535
2.33851
0.546102
0.13451
0.0902057
0.0931754
0.106338
0.125512
0.150951
0.168316
0.177939
0.176231
0.160708
0.148619
0.146797
0.150869
0.163063
0.185117
0.20057
0.206267
0.204993
0.195976
0.181976
0.173426
0.169112
0.163324
0.156614
0.154776
0.155438
0.155961
0.153122
0.149965
0.14905
0.149411
0.151643
0.15668
0.162097
0.173045
0.185861
0.19796
0.202533
0.202614
0.19923
0.18939
0.174541
0.159045
0.14754
0.140693
0.138875
0.140329
0.141309
0.141955
0.151573
0.157608
0.154226
0.147858
0.144879
0.147779
0.150387
0.150355
0.149318
0.148842
0.148936
0.149857
0.167005
0.203693
0.23375
0.247499
0.257663
0.267017
0.279497
0.348333
0.539983
0.620471
0.713264
0.872888
0.975879
1.03768
1.14434
1.34167
1.34047
1.24778
0.912083
0.669483
0.556314
0.503442
0.439137
0.376087
0.343471
0.330584
0.326158
0.32692
0.333742
0.33745
0.335661
0.326505
0.311487
0.305357
0.302616
0.299333
0.293719
0.289566
0.297023
0.302465
0.275253
0.242756
0.243365
0.272095
0.325031
0.469445
0.510967
0.551419
0.496689
0.466993
0.459366
0.436832
0.448437
0.459613
0.497197
0.56908
0.610265
0.647161
0.677436
0.68109
0.686239
0.697779
0.75789
0.80773
0.80719
0.794099
0.846389
0.969136
0.96881
1.03171
1.21116
1.27995
1.23889
1.21882
1.25629
1.41599
1.77626
2.03944
2.10868
2.07707
1.86545
1.75873
1.67774
1.62213
1.58254
1.63809
1.70302
1.57638
1.53391
1.58316
1.57732
1.44047
1.42413
1.39331
1.31864
1.23903
1.28395
1.10406
0.936193
0.946358
1.15214
1.28191
1.25981
1.47059
1.53103
1.46898
1.39005
1.37385
1.3191
1.3528
1.36248
1.41726
1.45604
1.57334
2.04427
2.32203
2.32418
3.17855
0.736251
0.152907
0.0960968
0.0983657
0.111898
0.128725
0.151381
0.162421
0.163902
0.15911
0.150164
0.143984
0.141473
0.142339
0.147056
0.156431
0.16119
0.162079
0.159677
0.154701
0.150245
0.149617
0.154532
0.160956
0.163659
0.167085
0.170116
0.167824
0.15394
0.145535
0.141258
0.137801
0.136948
0.13801
0.141986
0.149229
0.156866
0.170665
0.185878
0.192827
0.193419
0.189193
0.176991
0.162133
0.14911
0.14128
0.137357
0.137952
0.140775
0.140012
0.142865
0.155623
0.157207
0.151021
0.140374
0.134866
0.134768
0.135714
0.135374
0.134943
0.135213
0.137135
0.146739
0.178187
0.212341
0.237707
0.25137
0.25587
0.262794
0.303841
0.4719
0.567259
0.697189
0.860055
0.960818
1.02874
1.1148
1.102
1.05163
0.834549
0.596969
0.475328
0.422413
0.382025
0.347201
0.32682
0.316737
0.311671
0.30948
0.31147
0.316773
0.315051
0.311632
0.303347
0.293583
0.289928
0.280102
0.261961
0.256944
0.261027
0.275275
0.291698
0.274189
0.229843
0.212188
0.208899
0.245802
0.397586
0.483598
0.563781
0.505641
0.43274
0.386314
0.423615
0.470702
0.485573
0.503296
0.534329
0.55915
0.620608
0.666361
0.673128
0.683001
0.680014
0.67499
0.731611
0.783568
0.768419
0.774768
0.881144
0.922175
0.923032
1.06312
1.21626
1.21584
1.19253
1.20096
1.32598
1.6757
1.89924
1.95201
1.90614
1.75449
1.69312
1.63207
1.57182
1.4753
1.4105
1.60703
1.4907
1.35444
1.3272
1.31942
1.26017
1.25488
1.18771
1.08535
1.02746
1.06667
0.917551
0.822153
0.871529
1.08064
1.32461
1.33846
1.5424
1.61205
1.46631
1.34794
1.36389
1.29402
1.32882
1.35094
1.38383
1.37043
1.33513
1.57769
2.03961
2.09164
4.1258
0.963263
0.184028
0.102381
0.106985
0.129155
0.139119
0.152305
0.159415
0.160045
0.156421
0.151234
0.147126
0.142904
0.139812
0.13906
0.140373
0.140594
0.138821
0.136805
0.135793
0.136013
0.139532
0.14974
0.164739
0.181549
0.187112
0.184688
0.173462
0.154904
0.143624
0.135728
0.129716
0.128398
0.130121
0.137182
0.146184
0.153771
0.165382
0.180982
0.19383
0.200777
0.202967
0.20023
0.188587
0.171002
0.156089
0.146346
0.141654
0.143561
0.144599
0.144303
0.150629
0.160336
0.159891
0.14656
0.132391
0.126979
0.126159
0.127341
0.130475
0.132126
0.134927
0.144952
0.173865
0.206745
0.234399
0.249922
0.253727
0.258371
0.290828
0.414712
0.513576
0.664047
0.81195
0.917586
0.951112
0.938703
0.904206
0.794685
0.584687
0.447703
0.385945
0.348905
0.317114
0.303856
0.302569
0.297776
0.289904
0.288889
0.291959
0.289288
0.282054
0.277572
0.277365
0.279159
0.276667
0.26557
0.233428
0.217411
0.214953
0.210653
0.234006
0.259715
0.225225
0.204254
0.189328
0.205765
0.311064
0.429014
0.529606
0.482691
0.400645
0.365642
0.428226
0.512108
0.52165
0.509417
0.485863
0.501926
0.591678
0.657819
0.669667
0.688702
0.68027
0.662633
0.653746
0.715594
0.739916
0.731303
0.777492
0.862613
0.873042
0.926016
1.10914
1.1768
1.17006
1.16665
1.2193
1.51338
1.79161
1.85398
1.82229
1.69798
1.67627
1.62413
1.56324
1.47552
1.33429
1.38318
1.36335
1.27488
1.09184
1.06413
1.15273
1.10998
0.991106
0.968685
0.876774
0.84863
0.788978
0.767601
0.852091
1.05639
1.31497
1.42145
1.74756
1.83232
1.53224
1.33692
1.36673
1.29383
1.32318
1.34913
1.37726
1.35043
1.23841
1.35511
1.74944
1.87308
5.18891
1.34134
0.248427
0.111267
0.10891
0.135333
0.1565
0.162146
0.164161
0.163413
0.160616
0.158789
0.156465
0.148001
0.141079
0.139177
0.139171
0.138893
0.137211
0.136647
0.137202
0.139421
0.145322
0.158709
0.175897
0.185338
0.1868
0.182535
0.166184
0.141256
0.124965
0.116119
0.11282
0.112715
0.114925
0.123357
0.13707
0.151765
0.165409
0.180981
0.194992
0.204073
0.207854
0.208613
0.208126
0.203841
0.191041
0.173741
0.158068
0.152493
0.154416
0.156721
0.159956
0.164166
0.165795
0.159074
0.140069
0.129022
0.125332
0.125818
0.128381
0.130173
0.133722
0.145408
0.180966
0.217531
0.241681
0.253683
0.255396
0.258483
0.277893
0.34686
0.465332
0.621975
0.744909
0.81144
0.825742
0.814825
0.743635
0.597716
0.457955
0.377321
0.342503
0.306072
0.287906
0.282184
0.277052
0.262417
0.253687
0.255169
0.257012
0.250055
0.246101
0.246227
0.248834
0.25775
0.26397
0.259061
0.231576
0.213957
0.206615
0.1878
0.178993
0.197197
0.211749
0.200332
0.185369
0.181137
0.228373
0.360667
0.475068
0.439633
0.39443
0.361587
0.432475
0.50265
0.521294
0.510219
0.477882
0.480413
0.542889
0.631927
0.648829
0.676373
0.683049
0.664421
0.639028
0.635398
0.687334
0.692244
0.70765
0.783645
0.817206
0.827863
0.962594
1.09893
1.12189
1.12445
1.15223
1.34016
1.63206
1.74505
1.75715
1.65351
1.65234
1.60672
1.55168
1.48857
1.32543
1.24756
1.2186
1.20256
1.0156
0.939146
1.01807
0.929419
0.757553
0.787472
0.796536
0.712838
0.701743
0.742269
0.864613
1.04586
1.28787
1.58965
2.17544
1.90888
1.5882
1.33867
1.35698
1.33753
1.35132
1.35288
1.38481
1.35041
1.20332
1.24913
1.52732
1.76309
6.21699
1.80073
0.382265
0.130037
0.109589
0.13291
0.157705
0.168565
0.176297
0.180203
0.181213
0.187597
0.187582
0.171399
0.153258
0.147808
0.146401
0.147415
0.148613
0.149108
0.151762
0.158356
0.167259
0.176357
0.180308
0.181764
0.178161
0.163692
0.141122
0.123905
0.114371
0.109909
0.108744
0.108994
0.110514
0.115427
0.121538
0.132821
0.156998
0.183865
0.200142
0.208098
0.209207
0.207957
0.206667
0.206651
0.205407
0.201899
0.188533
0.170068
0.162475
0.162336
0.164313
0.168402
0.17014
0.169853
0.157243
0.140419
0.131248
0.127805
0.127915
0.129487
0.134274
0.146672
0.185368
0.234348
0.261181
0.272528
0.274431
0.270348
0.275026
0.29459
0.40764
0.567567
0.672661
0.727075
0.737606
0.719407
0.616966
0.491019
0.39434
0.34487
0.310365
0.285576
0.274603
0.271719
0.261472
0.24243
0.237281
0.236994
0.233
0.228714
0.231718
0.233194
0.232823
0.234394
0.240254
0.244932
0.233007
0.22133
0.208055
0.188352
0.170961
0.156461
0.167831
0.191733
0.18457
0.17273
0.205108
0.298564
0.397017
0.412278
0.394464
0.364257
0.405565
0.424227
0.514583
0.526131
0.488095
0.482468
0.479373
0.549624
0.593513
0.613858
0.64149
0.660612
0.63447
0.608188
0.620508
0.6431
0.653635
0.699974
0.74932
0.77122
0.827183
0.980834
1.04651
1.0567
1.08212
1.2061
1.46656
1.60243
1.64464
1.60579
1.59216
1.52067
1.44755
1.41202
1.29279
1.16033
1.08934
1.05577
0.900108
0.834025
0.814894
0.729589
0.67804
0.711586
0.697245
0.648777
0.66837
0.737176
0.885949
1.07121
1.35877
1.8264
2.2716
1.85496
1.62395
1.32807
1.31468
1.42789
1.42831
1.35142
1.41023
1.37003
1.19182
1.19317
1.29706
1.53994
7.17034
2.26437
0.604949
0.179811
0.113559
0.127426
0.155384
0.165353
0.175336
0.185884
0.190188
0.194046
0.197727
0.193136
0.179258
0.168334
0.164555
0.165585
0.172094
0.178037
0.181565
0.184181
0.186762
0.18749
0.186061
0.182436
0.170885
0.152888
0.135879
0.123029
0.114781
0.110423
0.109041
0.108967
0.109978
0.113317
0.118917
0.124677
0.133359
0.161035
0.196316
0.211193
0.213087
0.210032
0.205263
0.205158
0.206392
0.206204
0.205337
0.192807
0.173565
0.165593
0.165271
0.168554
0.170109
0.169621
0.162833
0.145855
0.136616
0.133714
0.13429
0.136185
0.140512
0.149194
0.178667
0.235953
0.279241
0.305004
0.310501
0.298211
0.28571
0.288463
0.353377
0.523953
0.625106
0.663052
0.665193
0.637491
0.519555
0.417979
0.356565
0.325911
0.293873
0.273897
0.266717
0.264203
0.252056
0.232907
0.228065
0.225694
0.21756
0.216703
0.220234
0.221534
0.21968
0.214051
0.21483
0.211838
0.219355
0.223929
0.214621
0.204611
0.177232
0.155544
0.157867
0.176968
0.17908
0.170447
0.189462
0.270044
0.363252
0.389352
0.387994
0.369575
0.362853
0.377046
0.498683
0.547805
0.543162
0.498883
0.459602
0.455387
0.500057
0.522863
0.556109
0.615773
0.624228
0.59188
0.580297
0.595575
0.609463
0.641499
0.696209
0.722835
0.755321
0.861618
0.943739
0.958405
0.989603
1.06062
1.30522
1.48895
1.50555
1.51817
1.52312
1.4632
1.34626
1.26594
1.1765
1.06537
1.02319
0.892962
0.736055
0.717219
0.665613
0.621342
0.612737
0.636854
0.636513
0.62591
0.663759
0.761336
0.864784
1.19874
1.75923
1.93428
2.1926
1.63899
1.57169
1.29884
1.26044
1.52591
1.54285
1.39274
1.43073
1.394
1.19213
1.17343
1.18343
1.32873
8.11729
2.67578
0.800066
0.258978
0.127591
0.12794
0.150717
0.159941
0.165875
0.179895
0.188628
0.191769
0.195669
0.19429
0.186203
0.175185
0.168349
0.167608
0.172997
0.18058
0.186833
0.190857
0.192065
0.19162
0.188415
0.181509
0.171351
0.157477
0.142155
0.129107
0.12018
0.115076
0.112518
0.111684
0.111364
0.112113
0.117961
0.124388
0.131723
0.152238
0.186968
0.206244
0.21094
0.209319
0.206069
0.206083
0.20828
0.209443
0.208787
0.204035
0.182193
0.167648
0.163493
0.163941
0.16652
0.166323
0.161021
0.144892
0.135836
0.133489
0.13445
0.137905
0.142736
0.150957
0.168415
0.220342
0.276545
0.324854
0.352957
0.340778
0.304754
0.295974
0.325047
0.465375
0.573333
0.61357
0.616274
0.583512
0.462976
0.377419
0.333194
0.305275
0.275908
0.26024
0.256073
0.253332
0.241612
0.222293
0.21603
0.210572
0.200913
0.19856
0.197491
0.19426
0.195162
0.199361
0.199537
0.19505
0.186567
0.196003
0.201266
0.212946
0.196504
0.158793
0.157052
0.164319
0.170761
0.16947
0.177235
0.248398
0.351134
0.378054
0.370159
0.36794
0.357385
0.382563
0.441318
0.526283
0.566253
0.497578
0.44952
0.444211
0.44461
0.444914
0.467932
0.528345
0.589335
0.580515
0.554836
0.547278
0.557337
0.589811
0.641273
0.667929
0.713627
0.778107
0.84293
0.854961
0.871333
0.928906
1.10495
1.32936
1.3472
1.37836
1.36823
1.3401
1.22799
1.13786
1.05505
0.945205
0.904991
0.753278
0.680508
0.65004
0.594777
0.578095
0.580307
0.577653
0.588287
0.618966
0.681758
0.83305
0.891313
1.38235
1.89103
1.90791
1.77005
1.38675
1.3374
1.26629
1.17483
1.51271
1.59213
1.44052
1.43826
1.45404
1.22587
1.17189
1.17388
1.28034
9.083
3.02322
1.00431
0.339267
0.154122
0.130477
0.142181
0.148527
0.15566
0.170806
0.184491
0.184425
0.182482
0.182624
0.181333
0.174617
0.165097
0.158527
0.157635
0.161327
0.168526
0.174994
0.17974
0.18116
0.179196
0.172643
0.166699
0.157141
0.147882
0.137356
0.129314
0.123182
0.118908
0.117473
0.116898
0.117523
0.122287
0.129497
0.138984
0.162911
0.199589
0.214915
0.215764
0.209781
0.206834
0.208475
0.213846
0.218105
0.21759
0.210559
0.187027
0.17043
0.163377
0.161697
0.160822
0.158644
0.150235
0.135102
0.128283
0.126214
0.128827
0.136025
0.140723
0.149704
0.163497
0.189568
0.247801
0.319006
0.380682
0.384853
0.342089
0.316221
0.327389
0.422813
0.514388
0.555345
0.560669
0.538343
0.433581
0.354613
0.320731
0.291427
0.261174
0.245401
0.241579
0.239182
0.228916
0.209057
0.20154
0.196491
0.191124
0.18928
0.186993
0.184533
0.18605
0.189159
0.194109
0.193291
0.181212
0.168368
0.158403
0.191702
0.19465
0.163355
0.156584
0.157158
0.160322
0.168051
0.17157
0.229154
0.338967
0.366821
0.355101
0.356274
0.361092
0.425222
0.4315
0.462424
0.542842
0.485899
0.443467
0.438008
0.421759
0.416141
0.42923
0.443734
0.529461
0.558605
0.532157
0.516481
0.513366
0.533312
0.585091
0.619782
0.663476
0.703334
0.766743
0.778566
0.777359
0.806015
0.900869
1.10565
1.16756
1.20048
1.15589
1.13384
1.04651
1.01166
0.937364
0.854224
0.789507
0.667731
0.623516
0.571655
0.54448
0.550912
0.556062
0.553925
0.576191
0.624848
0.735795
0.898176
0.946817
1.42021
1.8475
1.63539
1.6515
1.30822
1.0784
1.2569
1.05547
1.30594
1.52934
1.41822
1.41107
1.46736
1.29761
1.18827
1.1951
1.2473
10.1716
3.28574
1.25217
0.428367
0.185723
0.136083
0.141421
0.143183
0.14394
0.153268
0.179445
0.182976
0.179722
0.171148
0.165296
0.160629
0.150703
0.142461
0.136999
0.134794
0.134661
0.136375
0.138604
0.140551
0.140869
0.14236
0.148246
0.149029
0.145873
0.13873
0.135381
0.134126
0.131939
0.131329
0.131071
0.131718
0.136102
0.144563
0.162843
0.197585
0.219266
0.224388
0.222722
0.218108
0.218485
0.22233
0.231016
0.23632
0.235603
0.218308
0.191333
0.176563
0.168736
0.164529
0.160655
0.151146
0.131343
0.119625
0.115217
0.112709
0.112587
0.124989
0.132616
0.141754
0.153677
0.169636
0.196909
0.275927
0.381995
0.427391
0.40242
0.35259
0.346628
0.406531
0.484705
0.514337
0.516366
0.491156
0.395396
0.327567
0.303462
0.277727
0.249269
0.234276
0.230586
0.227485
0.217013
0.203838
0.196793
0.1912
0.186983
0.18505
0.182773
0.180961
0.18246
0.185117
0.190307
0.192972
0.186188
0.17124
0.15267
0.151948
0.170668
0.162247
0.154595
0.153436
0.15689
0.164369
0.170141
0.225341
0.329575
0.353822
0.334347
0.338777
0.375238
0.474704
0.45836
0.4542
0.469847
0.466235
0.435432
0.424756
0.39112
0.384522
0.404309
0.405023
0.465849
0.523541
0.510556
0.493419
0.483237
0.483005
0.526826
0.573545
0.611466
0.633657
0.696687
0.721063
0.723639
0.715358
0.742261
0.877684
1.0071
1.04279
0.988527
0.969861
0.908345
0.89526
0.814309
0.746736
0.65713
0.584822
0.566006
0.529774
0.523676
0.534075
0.534176
0.544345
0.575562
0.668008
0.831294
0.929771
0.953085
1.39891
1.59774
1.32975
1.63208
1.26928
1.02159
1.23259
1.03237
0.977456
1.25712
1.36418
1.3037
1.39999
1.33863
1.20863
1.25048
1.22625
11.4581
3.53933
1.42498
0.631052
0.241796
0.149681
0.144278
0.144588
0.142193
0.146993
0.164636
0.17755
0.17719
0.171201
0.164612
0.159173
0.149906
0.141223
0.135896
0.134219
0.131849
0.127861
0.125929
0.125848
0.126979
0.128976
0.131137
0.136182
0.137023
0.138074
0.14
0.142746
0.144633
0.145357
0.146809
0.151395
0.159922
0.174768
0.209551
0.225959
0.228756
0.229011
0.227084
0.229148
0.232276
0.242732
0.255852
0.255534
0.244645
0.219102
0.19466
0.18102
0.174439
0.169428
0.16222
0.141283
0.121746
0.114029
0.111053
0.109715
0.10775
0.110031
0.118053
0.120455
0.128626
0.152708
0.175836
0.206453
0.343529
0.441196
0.450725
0.405367
0.374129
0.393954
0.462369
0.4866
0.487349
0.458009
0.368451
0.312038
0.288172
0.261732
0.237799
0.225543
0.222481
0.220108
0.212547
0.202216
0.195503
0.18801
0.184736
0.181733
0.178687
0.177785
0.179046
0.179932
0.180474
0.182813
0.184918
0.175556
0.152495
0.147702
0.147572
0.155201
0.150402
0.151255
0.155408
0.161027