/*--------------------------------*- C++ -*----------------------------------*\
| =========                 |                                                 |
| \\      /  F ield         | OpenFOAM: The Open Source CFD Toolbox           |
|  \\    /   O peration     | Version:  dev                                   |
|   \\  /    A nd           | Web:      http://www.openfoam.org               |
|    \\/     M anipulation  |                                                 |
\*---------------------------------------------------------------------------*/
FoamFile
{
    version     2.0;
    format      ascii;
    class       volScalarField;
    object      muSgs;
    location    "9.129";
}
// * * * * * * * * * * * * * * * * * * * * * * * * * * * * * * * * * * * * * //

dimensions      [1 -1 -1 0 0 0 0];

internalField   nonuniform List<scalar> 
12225
(
0.000220753
0.000213941
0.000161461
0.000173109
0.000192733
0.000204109
0.000245662
0.000242676
0.000281739
0.000269416
0.000303448
0.000277463
0.000301512
0.000257013
0.000273562
0.000294049
0.000384216
0.000381005
0.000101172
0.00020807
0.000182851
0.000213309
0.000178585
0.000210952
0.000194184
0.000212385
0.00020557
0.000212251
0.000212657
0.000210273
0.000211588
0.000192658
0.00022104
0.000269176
0.000379758
0.000356733
3.44594e-05
0.000134962
0.000130736
0.000168529
0.000144871
0.000168618
0.000150245
0.000160513
0.000153319
0.000152475
0.000156035
0.000143614
0.000150781
0.000133866
0.000186272
0.000309057
0.000355279
0.000327336
1.17587e-05
6.66883e-05
7.48969e-05
9.19791e-05
0.000105721
0.000103768
0.000115019
9.98621e-05
0.000109955
9.27232e-05
0.00010354
8.92739e-05
9.9865e-05
9.5026e-05
0.000176992
0.000301577
0.000379019
0.000336825
5.17504e-06
3.25603e-05
4.28772e-05
5.2092e-05
6.86866e-05
6.81253e-05
8.01951e-05
7.04773e-05
7.67558e-05
6.56152e-05
7.25717e-05
6.2577e-05
7.53654e-05
7.03874e-05
0.000130742
0.000235785
0.000409039
0.000410004
9.83562e-06
3.24335e-05
3.50784e-05
4.30124e-05
4.7708e-05
5.26274e-05
5.8707e-05
5.49737e-05
5.79502e-05
5.68554e-05
5.66025e-05
5.52283e-05
5.76239e-05
6.37025e-05
0.000102841
0.000189392
0.000390131
0.000453473
5.86875e-06
1.40664e-05
2.10881e-05
2.14321e-05
2.90747e-05
2.89219e-05
3.73675e-05
3.20144e-05
3.96568e-05
3.6213e-05
4.73763e-05
4.41744e-05
5.66388e-05
6.17995e-05
8.77729e-05
0.000160231
0.000346189
0.000472373
3.77997e-06
5.15491e-06
9.51025e-06
9.34009e-06
1.42937e-05
1.33436e-05
1.9052e-05
1.57811e-05
2.06057e-05
1.82005e-05
2.365e-05
2.14365e-05
3.11487e-05
3.38222e-05
6.52837e-05
9.28279e-05
0.00019322
0.000276549
4.2613e-06
4.57933e-06
6.3685e-06
6.56711e-06
9.26949e-06
9.03465e-06
1.25151e-05
1.12674e-05
1.38535e-05
1.34737e-05
1.59525e-05
1.5749e-05
1.98814e-05
2.34467e-05
3.87161e-05
5.86346e-05
0.000116
0.000132288
5.76122e-06
5.62114e-06
6.02685e-06
6.31707e-06
7.24892e-06
7.7346e-06
9.30448e-06
9.48989e-06
1.05506e-05
1.11296e-05
1.24166e-05
1.342e-05
1.53497e-05
1.81812e-05
2.38051e-05
3.24126e-05
5.51319e-05
5.92392e-05
7.25064e-06
7.13977e-06
6.90014e-06
7.13669e-06
7.4834e-06
8.15224e-06
8.88637e-06
9.60736e-06
1.01245e-05
1.11078e-05
1.20671e-05
1.3505e-05
1.49716e-05
1.74329e-05
2.01867e-05
2.34474e-05
3.05553e-05
3.38406e-05
1.00679e-05
9.48864e-06
8.80243e-06
9.23502e-06
8.81826e-06
9.50945e-06
9.59803e-06
1.07442e-05
1.11509e-05
1.28078e-05
1.3429e-05
1.52902e-05
1.66831e-05
1.92305e-05
2.15552e-05
2.39814e-05
2.69485e-05
2.93762e-05
1.43409e-05
1.22731e-05
1.11032e-05
1.08847e-05
1.04923e-05
1.05051e-05
1.06609e-05
1.14439e-05
1.24634e-05
1.42005e-05
1.59814e-05
1.81624e-05
2.11827e-05
2.44635e-05
2.74424e-05
3.01824e-05
3.28431e-05
3.41888e-05
2.10953e-05
1.76861e-05
1.49891e-05
1.39368e-05
1.27949e-05
1.26599e-05
1.22112e-05
1.28172e-05
1.40579e-05
1.64856e-05
1.96298e-05
2.436e-05
3.01991e-05
3.5649e-05
4.02708e-05
4.36831e-05
4.60566e-05
4.74044e-05
2.81555e-05
2.2785e-05
1.84731e-05
1.61402e-05
1.49606e-05
1.44407e-05
1.43919e-05
1.53445e-05
1.75775e-05
2.149e-05
2.82997e-05
3.85145e-05
4.69867e-05
5.28569e-05
5.68594e-05
5.94912e-05
6.09821e-05
6.16925e-05
3.62743e-05
2.91044e-05
2.30176e-05
1.93703e-05
1.76125e-05
1.70187e-05
1.74252e-05
1.9612e-05
2.4038e-05
3.16344e-05
4.29089e-05
5.24975e-05
5.95935e-05
6.46831e-05
6.82062e-05
7.03992e-05
7.15217e-05
7.18067e-05
4.43243e-05
3.44415e-05
2.64753e-05
2.19344e-05
1.99144e-05
1.92106e-05
1.97076e-05
2.23471e-05
2.7707e-05
3.73239e-05
5.0165e-05
5.99168e-05
6.71157e-05
7.2295e-05
7.58471e-05
7.8024e-05
7.91108e-05
7.93043e-05
4.45818e-05
3.43044e-05
2.62173e-05
2.16941e-05
1.97599e-05
1.91574e-05
1.95946e-05
2.22017e-05
2.76868e-05
3.75925e-05
5.04714e-05
6.01109e-05
6.72139e-05
7.23358e-05
7.58339e-05
7.79958e-05
7.90652e-05
7.92602e-05
3.6498e-05
2.88652e-05
2.24121e-05
1.87679e-05
1.70475e-05
1.6484e-05
1.68054e-05
1.90162e-05
2.38308e-05
3.23732e-05
4.39799e-05
5.28688e-05
5.94867e-05
6.43389e-05
6.77376e-05
6.99336e-05
7.10639e-05
7.14987e-05
2.81162e-05
2.23089e-05
1.74592e-05
1.48858e-05
1.37878e-05
1.33818e-05
1.37688e-05
1.57017e-05
1.85822e-05
2.31306e-05
3.10537e-05
3.92585e-05
4.56362e-05
5.06097e-05
5.43231e-05
5.69286e-05
5.83982e-05
5.94733e-05
2.15107e-05
1.72636e-05
1.3829e-05
1.20576e-05
1.12599e-05
1.09137e-05
1.10274e-05
1.21895e-05
1.42037e-05
1.73081e-05
2.27223e-05
2.86551e-05
3.34638e-05
3.73107e-05
4.01704e-05
4.2325e-05
4.3337e-05
4.43643e-05
1.49585e-05
1.24143e-05
1.042e-05
9.24396e-06
8.62752e-06
8.41197e-06
8.55695e-06
9.38162e-06
1.04305e-05
1.2119e-05
1.5015e-05
1.91098e-05
2.23616e-05
2.54278e-05
2.73707e-05
2.93004e-05
3.01477e-05
3.10558e-05
1.05352e-05
9.01719e-06
7.74262e-06
7.36081e-06
7.21053e-06
7.21886e-06
7.4964e-06
8.23582e-06
8.93446e-06
1.01697e-05
1.19141e-05
1.49902e-05
1.74072e-05
1.98694e-05
2.12712e-05
2.27455e-05
2.35442e-05
2.44198e-05
7.01948e-06
6.33815e-06
6.15285e-06
6.44996e-06
6.78501e-06
7.38533e-06
7.91272e-06
9.01585e-06
9.89447e-06
1.13473e-05
1.26247e-05
1.4938e-05
1.68242e-05
1.89107e-05
2.00795e-05
2.1361e-05
2.21187e-05
2.29753e-05
4.41369e-06
4.70247e-06
5.71302e-06
8.09837e-06
1.02608e-05
1.26149e-05
1.43102e-05
1.68203e-05
1.8461e-05
2.04242e-05
2.16855e-05
2.34672e-05
2.48324e-05
2.64254e-05
2.73144e-05
2.8312e-05
2.88511e-05
2.95604e-05
2.43854e-06
5.79637e-06
1.14587e-05
1.96605e-05
2.59924e-05
3.02845e-05
3.39476e-05
3.7331e-05
4.00164e-05
4.19257e-05
4.34892e-05
4.49598e-05
4.61236e-05
4.70028e-05
4.73624e-05
4.75871e-05
4.75342e-05
4.77025e-05
4.83104e-06
1.83432e-05
3.52543e-05
5.37311e-05
6.42853e-05
7.0307e-05
7.41111e-05
7.68559e-05
7.87215e-05
7.92885e-05
7.99459e-05
8.00928e-05
8.00413e-05
7.92662e-05
7.83116e-05
7.71389e-05
7.61e-05
7.45221e-05
2.07301e-05
6.39011e-05
0.000101985
0.000122801
0.00013176
0.000135015
0.000135731
0.000135585
0.000134299
0.000132133
0.000129999
0.000127098
0.000123775
0.000119992
0.000116166
0.000112129
0.000107985
0.000102039
8.58748e-05
0.000183675
0.000211918
0.000215472
0.000211532
0.00020553
0.000200452
0.000196355
0.000192538
0.000188561
0.000184314
0.000179477
0.000174122
0.000168211
0.000162004
0.000155618
0.000147897
0.000133928
0.000230882
0.000267954
0.000243841
0.000223263
0.00022026
0.000227625
0.000239672
0.000251446
0.000260948
0.000267867
0.000272155
0.000274188
0.000274271
0.000272428
0.000268366
0.000262963
0.000253688
0.000235576
1.93118e-05
2.25863e-05
2.49295e-05
2.6565e-05
2.85386e-05
3.12593e-05
3.46121e-05
3.85005e-05
4.29212e-05
4.78525e-05
5.28944e-05
5.78791e-05
6.31465e-05
6.87357e-05
7.45698e-05
8.11278e-05
8.802e-05
9.49896e-05
0.000102594
0.000110994
0.000120341
0.000130277
0.000140428
0.000150063
0.000158616
0.000164847
0.000168392
0.000170492
0.00017199
0.000173513
0.00017533
0.000177769
0.000180612
0.00018384
0.000187343
0.000191457
0.000195707
0.000200372
0.000205532
0.000210802
0.00021621
0.000221615
0.000227341
0.000233955
0.000240222
0.000245587
0.000250851
0.000257792
0.000266863
0.000275468
0.000282481
0.0002898
0.000299102
0.000310426
0.000323101
0.000337347
0.000351382
0.000364518
0.000378465
0.000392517
0.000402311
0.000407011
0.000410739
0.000416019
0.000421263
0.000423179
0.000420293
0.000418837
0.000419385
0.000420513
0.000418677
0.000412192
0.000404215
0.000409253
0.000422118
0.000448292
0.000473396
0.00048165
0.000478134
0.000455585
0.000430122
0.000411079
0.000400358
0.000394364
0.00038915
0.000378428
0.000363972
0.000353997
0.000354041
0.000358719
0.000361058
0.000362069
0.000363045
0.000368832
0.000382511
0.000393985
0.000394373
0.000377715
0.00034162
0.000313505
0.000309278
0.000310463
0.000303801
0.000280264
0.000231712
0.000181879
0.000199592
0.00019303
0.00017736
0.000175656
0.00017961
0.000185487
0.000192542
0.000204709
0.000217691
0.000233906
0.000249792
0.00026664
0.000281043
0.000296126
0.000311057
0.00032541
0.000337276
0.000347836
0.00035678
0.000365682
0.000373786
0.00038421
0.00039497
0.000405385
0.000418956
0.000436172
0.000452284
0.000466272
0.000480273
0.000493348
0.000507905
0.000528861
0.000553318
0.000574516
0.000588598
0.000600997
0.000610134
0.000612272
0.000610537
0.000603935
0.000595019
0.000586194
0.000574065
0.000563944
0.000545885
0.000529417
0.000509003
0.000492784
0.000472497
0.000457009
0.000434791
0.000416616
0.000404661
0.000408895
0.000414061
0.000422522
0.000445015
0.000469164
0.000496439
0.000530832
0.00055789
0.000587828
0.000612211
0.000633199
0.00064636
0.00065458
0.000661149
0.000662099
0.000658227
0.000654231
0.000654707
0.000656626
0.000654003
0.000659023
3.12806e-05
2.65739e-05
2.54158e-05
2.60093e-05
2.73756e-05
2.94863e-05
3.21925e-05
3.51724e-05
3.79149e-05
4.07716e-05
4.4335e-05
4.83714e-05
5.26799e-05
5.76912e-05
6.3261e-05
6.93411e-05
7.59155e-05
8.22831e-05
9.04328e-05
0.000100371
0.000108666
0.00011422
0.000117247
0.00011632
0.000110214
0.00010035
8.90181e-05
7.93407e-05
7.32915e-05
7.06866e-05
6.95068e-05
6.86894e-05
6.80859e-05
6.7831e-05
6.76363e-05
6.82263e-05
6.91885e-05
7.07534e-05
7.26945e-05
7.40822e-05
7.48487e-05
7.58942e-05
7.84597e-05
8.01856e-05
8.0633e-05
7.91477e-05
7.72276e-05
7.74735e-05
7.95732e-05
8.19663e-05
8.2357e-05
8.13789e-05
8.13292e-05
8.21513e-05
8.39047e-05
8.81439e-05
9.97383e-05
0.000108202
0.000114552
0.000127801
0.000151278
0.000164502
0.000174908
0.000189564
0.000199351
0.000204245
0.000207787
0.000209018
0.000209181
0.000207638
0.000199474
0.000172053
0.000143188
0.000128878
0.000127068
0.000130698
0.000138574
0.000166014
0.000218252
0.000236281
0.000232673
0.000215129
0.000217281
0.000229913
0.000261725
0.000283057
0.000293938
0.00029554
0.000286126
0.000270021
0.00025115
0.000236204
0.000232098
0.00023296
0.000230054
0.000214002
0.000182137
0.000153949
0.000146556
0.000147308
0.000154008
0.000155186
0.000147572
0.000142853
0.000150368
0.000161576
0.000169125
0.000147746
0.000145826
0.0001569
0.000150846
0.000151728
0.000151474
0.000154979
0.000158249
0.000164015
0.000169119
0.000175378
0.000181263
0.000189552
0.000197094
0.00020681
0.000217148
0.000228419
0.000239017
0.000248653
0.000257541
0.000267451
0.000274006
0.000279227
0.000283523
0.000291349
0.000301387
0.000311102
0.000315514
0.000313826
0.000311055
0.000313574
0.000320833
0.000329957
0.000344022
0.000367489
0.000396538
0.000424019
0.000447859
0.000455588
0.000446485
0.00042938
0.000408669
0.000396644
0.00037852
0.000368132
0.000359063
0.000350273
0.000338922
0.000325937
0.000320236
0.000319849
0.000320908
0.000324987
0.000332
0.000337716
0.000342578
0.000341664
0.000348722
0.000363926
0.000387377
0.000407724
0.000427197
0.000453696
0.000480881
0.000496887
0.000503593
0.000506427
0.000502413
0.000500321
0.00048913
0.000474131
0.000454984
0.000435519
4.57439e-05
2.95999e-05
2.4864e-05
2.44229e-05
2.5331e-05
2.7351e-05
2.92437e-05
3.09248e-05
3.30243e-05
3.59941e-05
3.98037e-05
4.36528e-05
4.80543e-05
5.20659e-05
5.494e-05
5.84343e-05
6.3935e-05
7.06982e-05
7.77118e-05
8.12374e-05
8.24842e-05
7.97977e-05
7.34462e-05
6.46511e-05
5.48872e-05
4.69206e-05
4.16772e-05
3.91798e-05
3.81797e-05
3.79938e-05
3.80169e-05
3.81651e-05
3.8188e-05
3.81682e-05
3.82374e-05
3.82597e-05
3.83796e-05
3.86175e-05
3.88741e-05
3.91563e-05
3.94786e-05
4.00955e-05
4.10872e-05
4.18609e-05
4.22946e-05
4.23983e-05
4.25102e-05
4.29707e-05
4.41711e-05
4.51543e-05
4.51914e-05
4.46506e-05
4.50022e-05
4.56689e-05
4.59516e-05
4.65416e-05
4.8454e-05
5.06909e-05
5.21589e-05
5.51117e-05
6.37248e-05
6.98479e-05
7.74763e-05
8.72231e-05
9.61773e-05
0.000112819
0.000132529
0.000144309
0.000148667
0.000151999
0.000143048
0.000120683
0.000102637
9.53502e-05
9.61979e-05
9.93447e-05
0.000101871
0.000105064
0.000125967
0.000154102
0.000170153
0.000192627
0.00022007
0.00023967
0.000240604
0.000234572
0.000220733
0.00019816
0.00017584
0.000156765
0.000143358
0.000138505
0.000138819
0.00014048
0.000139254
0.000130719
0.000115609
0.000109816
0.000109699
0.000114734
0.000122969
0.0001254
0.000122561
0.000119659
0.000139146
0.000174768
0.000187063
0.00012884
0.00013687
0.000150026
0.00013588
0.000130394
0.000126503
0.000127813
0.000128984
0.000131587
0.000134018
0.000135456
0.000137508
0.00014117
0.000142294
0.000145891
0.000152485
0.000159065
0.000166917
0.000175308
0.000185769
0.000202193
0.000214911
0.000223643
0.00022899
0.000234626
0.000240191
0.000246997
0.000253507
0.000251657
0.000245318
0.000243985
0.000248372
0.000259783
0.000284049
0.000322391
0.000353855
0.000376433
0.000375924
0.000355899
0.00033714
0.000324033
0.000316043
0.000310564
0.000307923
0.000305185
0.000308747
0.000306757
0.000302465
0.000296079
0.000285903
0.000283575
0.00028198
0.000287867
0.000282828
0.000293669
0.000296258
0.000287404
0.000268864
0.00026554
0.000287353
0.000298863
0.000309385
0.000319413
0.000332525
0.000347369
0.000358314
0.000383017
0.000400252
0.000417926
0.000424393
0.000413232
0.000386709
0.00035041
6.52896e-05
3.61917e-05
2.52376e-05
2.35921e-05
2.39808e-05
2.52938e-05
2.7031e-05
2.91158e-05
3.22194e-05
3.70245e-05
4.12614e-05
4.37587e-05
4.57488e-05
4.62131e-05
4.75721e-05
5.04795e-05
5.45648e-05
5.92172e-05
6.19988e-05
6.31452e-05
6.19052e-05
5.65996e-05
4.89276e-05
4.2729e-05
3.86638e-05
3.62655e-05
3.53595e-05
3.51711e-05
3.5216e-05
3.59392e-05
3.68006e-05
3.72427e-05
3.76368e-05
3.78518e-05
3.8123e-05
3.83158e-05
3.84822e-05
3.87467e-05
3.89578e-05
3.90529e-05
3.9068e-05
3.91883e-05
3.96612e-05
4.01803e-05
4.04707e-05
4.06473e-05
4.08903e-05
4.1133e-05
4.13227e-05
4.12541e-05
4.09727e-05
4.09191e-05
4.13259e-05
4.20151e-05
4.23806e-05
4.28146e-05
4.34566e-05
4.39231e-05
4.48367e-05
4.68794e-05
4.916e-05
5.08489e-05
5.42016e-05
5.6711e-05
6.00325e-05
6.54874e-05
7.68691e-05
9.51568e-05
0.000108206
0.000114621
0.000119394
0.000113824
0.000101134
9.58402e-05
9.8428e-05
0.000103513
0.000106884
0.000108988
0.000114241
0.000138347
0.000184071
0.000211928
0.000215791
0.000207214
0.000191347
0.000177044
0.00015947
0.000137964
0.000120191
0.000109864
0.000105836
0.000105718
0.000107891
0.000109578
0.000109468
0.000105967
0.000100002
9.80121e-05
9.85258e-05
0.000106512
0.000115572
0.000117883
0.000111491
0.000104138
0.000110363
0.000142203
0.000155452
0.000119048
0.000140901
0.000133364
0.000122845
0.000116165
0.000113016
0.000115049
0.000116414
0.000117415
0.000121255
0.000124368
0.00012711
0.000133768
0.000136421
0.000134345
0.000137763
0.000143035
0.00014556
0.000147481
0.00014888
0.000156389
0.000172434
0.000187127
0.000196865
0.000205342
0.000216754
0.000223787
0.000227952
0.000225835
0.000220203
0.000218693
0.000225155
0.00024571
0.000276194
0.000309267
0.000330505
0.000333375
0.000320518
0.000302741
0.000292585
0.000288694
0.000287904
0.000287307
0.000286644
0.00028867
0.000292363
0.000295646
0.000286566
0.000291282
0.000285867
0.000279487
0.000264054
0.000265627
0.000240101
0.000253164
0.000266938
0.00026918
0.00024064
0.000223183
0.000242757
0.000251429
0.000259112
0.000262277
0.000266784
0.000277493
0.000275394
0.000291357
0.000323861
0.000356333
0.000378882
0.000384187
0.000369748
0.000333492
8.27676e-05
4.64068e-05
2.73745e-05
2.40785e-05
2.46336e-05
2.60882e-05
2.80587e-05
3.11595e-05
3.46998e-05
3.75343e-05
3.97873e-05
4.0263e-05
3.98017e-05
3.99631e-05
4.14399e-05
4.47353e-05
4.88116e-05
5.05909e-05
5.09425e-05
5.0154e-05
4.77728e-05
4.3753e-05
3.95077e-05
3.72695e-05
3.5809e-05
3.46969e-05
3.44663e-05
3.4425e-05
3.47427e-05
3.58009e-05
3.72417e-05
3.86522e-05
4.005e-05
4.09617e-05
4.16419e-05
4.22979e-05
4.3066e-05
4.35875e-05
4.39144e-05
4.37828e-05
4.28743e-05
4.16886e-05
4.09451e-05
4.0461e-05
4.01267e-05
4.00506e-05
4.02749e-05
4.05432e-05
4.05953e-05
4.01508e-05
3.99118e-05
3.97067e-05
3.94623e-05
3.95704e-05
4.04687e-05
4.15257e-05
4.17852e-05
4.21892e-05
4.3012e-05
4.42644e-05
4.50328e-05
4.66476e-05
4.93034e-05
5.25403e-05
5.55133e-05
5.75277e-05
6.06001e-05
6.59239e-05
7.73012e-05
8.79903e-05
9.52591e-05
9.82576e-05
9.71755e-05
9.86161e-05
0.000106406
0.000117696
0.000122933
0.000126082
0.000135741
0.000166141
0.000192839
0.000193565
0.000181041
0.000156347
0.00014451
0.000133509
0.000118018
0.000102349
9.28933e-05
8.92916e-05
8.89203e-05
9.04191e-05
9.3907e-05
9.53885e-05
9.49756e-05
9.1751e-05
8.77466e-05
8.62478e-05
8.73232e-05
9.29377e-05
9.57672e-05
9.46573e-05
9.05055e-05
8.70173e-05
8.82009e-05
9.02692e-05
9.8932e-05
0.000117994
0.000131617
0.000104468
0.000103327
9.98502e-05
0.000100935
0.00010354
0.000101845
9.94604e-05
0.000100502
0.000108909
0.000116727
0.000121601
0.000129767
0.000129872
0.000129907
0.000136069
0.000139615
0.000142458
0.000142513
0.0001402
0.000148835
0.000166333
0.000175734
0.000182013
0.000194804
0.000208779
0.000216393
0.000212547
0.00020682
0.000206698
0.00021617
0.000242305
0.000274651
0.000294785
0.000304409
0.00030049
0.000281331
0.000271836
0.000269516
0.000268931
0.00026859
0.000274515
0.000268836
0.000273074
0.000277128
0.00028846
0.000275639
0.000279315
0.00027599
0.000270531
0.00025178
0.000250112
0.000222773
0.000207177
0.000210078
0.000237838
0.00023182
0.000211983
0.000228389
0.000228129
0.000228838
0.000236951
0.000231272
0.000243058
0.000241159
0.000245442
0.000255937
0.000289432
0.000329592
0.000358484
0.000358178
0.000330702
9.99161e-05
5.4308e-05
2.89484e-05
2.42113e-05
2.48106e-05
2.68981e-05
2.96756e-05
3.2423e-05
3.43116e-05
3.60302e-05
3.70687e-05
3.69161e-05
3.53844e-05
3.53256e-05
3.62931e-05
3.85852e-05
4.19246e-05
4.3896e-05
4.435e-05
4.40062e-05
4.22729e-05
3.96614e-05
3.79701e-05
3.68352e-05
3.58213e-05
3.49017e-05
3.47905e-05
3.48429e-05
3.53836e-05
3.61376e-05
3.70598e-05
3.85645e-05
4.02445e-05
4.18231e-05
4.29025e-05
4.36779e-05
4.4651e-05
4.54151e-05
4.58067e-05
4.59127e-05
4.54076e-05
4.40874e-05
4.26962e-05
4.1352e-05
4.00716e-05
3.91731e-05
3.87502e-05
3.90777e-05
3.96313e-05
3.97001e-05
3.96901e-05
3.98471e-05
3.95973e-05
3.91742e-05
3.94977e-05
4.04818e-05
4.09397e-05
4.14314e-05
4.18232e-05
4.19017e-05
4.25212e-05
4.37082e-05
4.56182e-05
5.00284e-05
5.42406e-05
5.5608e-05
5.67866e-05
5.94915e-05
6.22511e-05
6.77105e-05
7.78727e-05
8.88391e-05
9.24004e-05
9.84817e-05
0.000113215
0.000124295
0.0001299
0.000136555
0.000150411
0.000171329
0.000171396
0.000159767
0.000133918
0.000119433
0.000112384
0.000104576
9.27137e-05
8.47555e-05
8.16468e-05
8.13076e-05
8.24284e-05
8.43267e-05
8.63351e-05
8.67704e-05
8.56797e-05
8.30135e-05
8.12567e-05
8.08616e-05
8.12074e-05
8.14881e-05
8.10078e-05
8.06172e-05
8.0504e-05
7.88405e-05
8.04508e-05
8.06324e-05
8.88477e-05
0.000104859
0.000109235
0.000101191
0.000104004
9.99741e-05
0.000100184
0.000103101
9.98228e-05
9.84723e-05
9.89826e-05
0.000102379
0.00011331
0.000116026
0.00011933
0.000123873
0.000120627
0.000123993
0.000132545
0.000136237
0.000141332
0.000139255
0.000133851
0.00014902
0.00016357
0.000163964
0.000172502
0.000192161
0.000205494
0.000206244
0.000199668
0.000198106
0.000210304
0.000239966
0.00026659
0.000279715
0.000282472
0.000270049
0.000260057
0.000255338
0.000249364
0.000248866
0.000244355
0.000253339
0.000243036
0.000247638
0.000248871
0.000259151
0.000251027
0.000250677
0.000250321
0.000246198
0.000233294
0.000227042
0.000206201
0.00019062
0.000178786
0.000196249
0.000218207
0.000216346
0.000227059
0.00021995
0.000202371
0.000213491
0.000214674
0.000223365
0.0002257
0.00022814
0.000228379
0.000236452
0.000271412
0.000314356
0.000338648
0.000329198
0.000118238
5.93674e-05
2.94883e-05
2.44883e-05
2.51823e-05
2.70897e-05
2.98792e-05
3.30761e-05
3.48568e-05
3.59789e-05
3.55907e-05
3.38798e-05
3.25563e-05
3.23964e-05
3.30492e-05
3.46087e-05
3.72099e-05
3.87556e-05
3.93492e-05
3.92942e-05
3.84319e-05
3.71934e-05
3.63974e-05
3.61323e-05
3.56845e-05
3.52081e-05
3.51817e-05
3.54983e-05
3.59265e-05
3.5823e-05
3.56572e-05
3.58236e-05
3.60736e-05
3.65791e-05
3.73102e-05
3.81597e-05
3.96084e-05
4.13664e-05
4.31457e-05
4.40697e-05
4.43963e-05
4.43564e-05
4.34774e-05
4.19505e-05
4.01948e-05
3.88715e-05
3.80285e-05
3.78502e-05
3.83676e-05
3.86899e-05
3.85808e-05
3.99017e-05
4.11052e-05
4.03127e-05
3.9011e-05
3.8532e-05
3.92692e-05
4.02391e-05
4.0524e-05
4.06253e-05
4.08863e-05
4.10563e-05
4.1425e-05
4.3991e-05
4.94682e-05
5.28637e-05
5.47131e-05
5.72491e-05
5.80057e-05
5.97034e-05
6.66194e-05
8.30424e-05
9.02521e-05
0.000100811
0.000116181
0.000125559
0.000131026
0.00013881
0.00015106
0.000150062
0.000142762
0.000120879
0.000104385
9.64592e-05
9.16052e-05
8.49062e-05
7.93749e-05
7.71329e-05
7.65189e-05
7.69928e-05
7.82966e-05
7.9861e-05
8.06206e-05
8.06146e-05
7.95865e-05
7.79476e-05
7.74297e-05
7.70509e-05
7.65221e-05
7.6175e-05
7.65338e-05
7.89793e-05
8.0422e-05
7.66715e-05
7.00608e-05
6.77908e-05
6.98807e-05
7.62824e-05
9.31803e-05
9.65287e-05
0.000103638
9.88817e-05
9.5966e-05
9.49584e-05
9.56474e-05
9.76585e-05
0.000100214
0.000104391
0.000110141
0.00011563
0.000118157
0.000121391
0.00012211
0.000119764
0.000118734
0.000124132
0.000133205
0.000139167
0.00013479
0.000133357
0.00015218
0.000156993
0.000154804
0.000172061
0.000192777
0.000199714
0.000195637
0.000192549
0.000203225
0.000233131
0.000255115
0.000264908
0.000266156
0.00025397
0.000246104
0.000236078
0.000226595
0.000222161
0.00022208
0.000237725
0.00022774
0.00022126
0.000217835
0.00022331
0.000223565
0.000216542
0.00020691
0.000203957
0.000203936
0.000197589
0.000179679
0.000170532
0.000169747
0.000179907
0.000208947
0.000217759
0.000224436
0.000217248
0.000201818
0.000199267
0.000208417
0.000213947
0.000217355
0.000222403
0.000218422
0.000218396
0.00021909
0.000261197
0.000302326
0.000316615
0.000137585
6.88454e-05
3.14625e-05
2.54591e-05
2.6297e-05
2.80758e-05
3.0027e-05
3.27136e-05
3.38157e-05
3.4064e-05
3.39569e-05
3.29135e-05
3.2245e-05
3.20021e-05
3.22118e-05
3.29437e-05
3.41911e-05
3.48093e-05
3.51287e-05
3.50065e-05
3.44146e-05
3.39144e-05
3.38676e-05
3.45854e-05
3.54467e-05
3.59328e-05
3.65911e-05
3.71832e-05
3.71939e-05
3.60061e-05
3.52568e-05
3.48557e-05
3.45283e-05
3.45439e-05
3.47646e-05
3.53965e-05
3.64501e-05
3.76068e-05
3.95457e-05
4.17668e-05
4.30698e-05
4.36847e-05
4.36576e-05
4.25623e-05
4.08829e-05
3.92672e-05
3.81995e-05
3.74723e-05
3.76997e-05
3.86218e-05
3.83366e-05
3.85152e-05
4.06591e-05
4.1237e-05
4.00721e-05
3.83573e-05
3.75909e-05
3.79276e-05
3.83575e-05
3.85866e-05
3.89575e-05
3.91099e-05
3.97856e-05
4.17558e-05
4.60028e-05
5.03424e-05
5.42726e-05
5.61508e-05
5.60169e-05
5.79744e-05
6.2529e-05
7.64761e-05
8.60741e-05
9.98868e-05
0.000115199
0.000124347
0.000129765
0.000135688
0.000134415
0.000129904
0.000114413
9.67218e-05
8.71715e-05
8.22715e-05
7.78211e-05
7.48183e-05
7.39236e-05
7.34192e-05
7.30841e-05
7.36992e-05
7.48164e-05
7.5683e-05
7.56993e-05
7.55855e-05
7.48304e-05
7.41593e-05
7.41461e-05
7.29335e-05
7.00368e-05
6.92898e-05
6.98647e-05
7.18177e-05
7.4049e-05
7.29218e-05
6.79749e-05
6.57668e-05
6.34917e-05
6.84082e-05
8.44615e-05
9.38184e-05
0.000101879
9.85125e-05
9.16267e-05
8.70838e-05
9.31291e-05
0.000100647
0.00010259
0.000105136
0.000107837
0.000110531
0.000117087
0.0001206
0.000121177
0.000124739
0.000121805
0.00011678
0.000119041
0.000129122
0.000132843
0.000129365
0.000137741
0.000149798
0.000147279
0.000153638
0.000176144
0.000190037
0.000190467
0.000186741
0.000193454
0.000222251
0.000244156
0.000253009
0.000252653
0.000244879
0.00024113
0.000232507
0.000221075
0.000213739
0.00020693
0.000222656
0.000218192
0.00020806
0.000192849
0.000194393
0.000199016
0.000193663
0.000182675
0.000181007
0.000177107
0.000164858
0.000159045
0.000157131
0.000158863
0.000174587
0.000205036
0.000215753
0.000220112
0.000212049
0.000206786
0.000203619
0.000212396
0.000216156
0.000216394
0.00021959
0.00021411
0.000211195
0.000202376
0.000214974
0.000261618
0.000288116
0.000156687
7.89324e-05
3.46096e-05
2.62419e-05
2.7419e-05
3.02313e-05
3.12595e-05
3.27954e-05
3.38397e-05
3.38533e-05
3.34894e-05
3.27157e-05
3.21103e-05
3.17625e-05
3.16727e-05
3.17334e-05
3.20602e-05
3.23379e-05
3.23853e-05
3.23425e-05
3.23707e-05
3.24953e-05
3.29679e-05
3.41699e-05
3.59372e-05
3.78305e-05
3.87156e-05
3.89729e-05
3.80601e-05
3.62241e-05
3.50179e-05
3.40715e-05
3.33741e-05
3.32813e-05
3.36565e-05
3.47705e-05
3.60812e-05
3.7246e-05
3.88687e-05
4.09377e-05
4.26166e-05
4.36924e-05
4.43837e-05
4.455e-05
4.37811e-05
4.20003e-05
4.01959e-05
3.88019e-05
3.78883e-05
3.85645e-05
3.89784e-05
3.85376e-05
3.93981e-05
4.13417e-05
4.13158e-05
3.9425e-05
3.70341e-05
3.65688e-05
3.67351e-05
3.74226e-05
3.83885e-05
3.87394e-05
3.93169e-05
4.13617e-05
4.53908e-05
5.01747e-05
5.45251e-05
5.58214e-05
5.58172e-05
5.77329e-05
6.07635e-05
7.13273e-05
8.19398e-05
9.77581e-05
0.000111811
0.000120792
0.00012349
0.000122431
0.000119392
0.000110813
9.4638e-05
8.34984e-05
7.78943e-05
7.36038e-05
7.02262e-05
6.95445e-05
6.97452e-05
6.8781e-05
6.80849e-05
6.89559e-05
6.98179e-05
6.96035e-05
6.91496e-05
6.90053e-05
6.94123e-05
7.04442e-05
7.0739e-05
6.96293e-05
6.56529e-05
6.33911e-05
6.25445e-05
6.11474e-05
6.32402e-05
6.73948e-05
6.52379e-05
6.28509e-05
6.09642e-05
6.22757e-05
7.35907e-05
8.71606e-05
9.59729e-05
9.31265e-05
8.66666e-05
8.4883e-05
9.1969e-05
0.000101661
0.000104961
0.000104615
0.000101598
0.00010288
0.000111774
0.000119634
0.000118378
0.000120503
0.000123176
0.000120507
0.000115576
0.000118429
0.000125694
0.000126746
0.000127424
0.000139241
0.000143116
0.000142209
0.0001585
0.000176769
0.000182509
0.000180895
0.000182489
0.000206498
0.000232981
0.000244028
0.000245297
0.000237913
0.000234945
0.000228234
0.000219068
0.000217864
0.000210177
0.000206159
0.00020694
0.000204952
0.000179436
0.000173189
0.000183927
0.00017714
0.000161297
0.000162782
0.000163367
0.00014531
0.000145081
0.000155726
0.000153351
0.00016746
0.000196809
0.000213928
0.000228974
0.00022111
0.000215382
0.000209374
0.000216145
0.000220495
0.000218906
0.000217142
0.00021024
0.00020588
0.000196973
0.000196458
0.000224225
0.000256282
0.000175676
9.34854e-05
4.0395e-05
2.73725e-05
2.76316e-05
3.10771e-05
3.32382e-05
3.40962e-05
3.45047e-05
3.40552e-05
3.37316e-05
3.36397e-05
3.35296e-05
3.27373e-05
3.20564e-05
3.19929e-05
3.21347e-05
3.21876e-05
3.20379e-05
3.21348e-05
3.23552e-05
3.27627e-05
3.35254e-05
3.51486e-05
3.72948e-05
3.84087e-05
3.89208e-05
3.89264e-05
3.73466e-05
3.45537e-05
3.25502e-05
3.14275e-05
3.10874e-05
3.12308e-05
3.17648e-05
3.31456e-05
3.5183e-05
3.73969e-05
3.94191e-05
4.15901e-05
4.34241e-05
4.44199e-05
4.48249e-05
4.49465e-05
4.50922e-05
4.4947e-05
4.4075e-05
4.26062e-05
4.04403e-05
3.95835e-05
4.0367e-05
4.07319e-05
4.08209e-05
4.14472e-05
4.1796e-05
4.13006e-05
3.86941e-05
3.71092e-05
3.64975e-05
3.67935e-05
3.76701e-05
3.83032e-05
3.91277e-05
4.1232e-05
4.63568e-05
5.19167e-05
5.53015e-05
5.60648e-05
5.64696e-05
5.79269e-05
5.9258e-05
6.46323e-05
7.74511e-05
9.40966e-05
0.000106658
0.000112852
0.000113772
0.000112341
0.000106678
9.50801e-05
8.36024e-05
7.63414e-05
7.2316e-05
6.79595e-05
6.63865e-05
6.63344e-05
6.53738e-05
6.34001e-05
6.32846e-05
6.41956e-05
6.431e-05
6.36782e-05
6.41502e-05
6.47923e-05
6.55097e-05
6.72402e-05
6.85079e-05
6.83429e-05
6.56671e-05
6.39969e-05
6.27912e-05
6.01237e-05
5.74705e-05
5.64819e-05
6.01914e-05
6.00497e-05
5.84328e-05
5.84175e-05
6.43481e-05
7.77534e-05
8.91681e-05
8.76653e-05
8.55862e-05
8.4803e-05
9.11402e-05
9.82274e-05
0.000101772
0.000103537
0.000101089
0.000101101
0.000103278
0.000112277
0.000115221
0.000115993
0.000118517
0.000119625
0.000115865
0.000111683
0.000116596
0.000120913
0.000121483
0.00012805
0.000134488
0.000134644
0.000142984
0.000161525
0.000170428
0.000172682
0.000173939
0.000189632
0.000217157
0.000231943
0.000237011
0.000233315
0.00023136
0.000224726
0.000214524
0.000213151
0.000207329
0.000198235
0.000191931
0.000190773
0.000168265
0.000163022
0.000166118
0.000154122
0.000143089
0.000144575
0.000148419
0.000135331
0.000137156
0.000153852
0.000151525
0.000165044
0.000193238
0.000214509
0.00023955
0.000227708
0.000225821
0.00021286
0.000216201
0.000226425
0.000222453
0.000214167
0.000207283
0.000201423
0.000195064
0.000187228
0.000199884
0.000231356
0.000192282
0.000108659
5.03846e-05
2.95113e-05
2.75311e-05
3.09742e-05
3.37159e-05
3.44315e-05
3.5621e-05
3.60762e-05
3.59473e-05
3.64312e-05
3.64378e-05
3.50516e-05
3.33052e-05
3.28094e-05
3.28133e-05
3.30506e-05
3.3262e-05
3.35408e-05
3.3976e-05
3.50183e-05
3.61877e-05
3.72386e-05
3.79701e-05
3.83972e-05
3.83822e-05
3.70793e-05
3.4583e-05
3.24766e-05
3.12386e-05
3.0656e-05
3.06048e-05
3.08533e-05
3.13433e-05
3.23051e-05
3.33728e-05
3.48928e-05
3.80078e-05
4.16099e-05
4.40072e-05
4.52953e-05
4.55009e-05
4.5272e-05
4.5032e-05
4.5109e-05
4.4971e-05
4.49479e-05
4.42835e-05
4.19052e-05
4.09786e-05
4.14094e-05
4.17697e-05
4.22267e-05
4.25424e-05
4.2431e-05
4.11232e-05
3.86546e-05
3.7444e-05
3.68376e-05
3.7419e-05
3.80148e-05
3.91909e-05
4.10019e-05
4.63762e-05
5.36308e-05
5.72066e-05
5.77727e-05
5.8933e-05
5.9432e-05
5.89694e-05
6.03122e-05
7.15528e-05
8.91198e-05
0.000100704
0.000106334
0.000106532
0.000103912
9.58134e-05
8.56354e-05
7.739e-05
7.24497e-05
6.80201e-05
6.51213e-05
6.46543e-05
6.46725e-05
6.31263e-05
6.12113e-05
6.17435e-05
6.20154e-05
6.11322e-05
6.11493e-05
6.27473e-05
6.35491e-05
6.36868e-05
6.40131e-05
6.44702e-05
6.44868e-05
6.33617e-05
6.2752e-05
6.0866e-05
5.88625e-05
5.60817e-05
5.16717e-05
5.14462e-05
5.62611e-05
5.67732e-05
5.68379e-05
6.04539e-05
7.05732e-05
8.01074e-05
8.30336e-05