/*--------------------------------*- C++ -*----------------------------------*\
| =========                 |                                                 |
| \\      /  F ield         | OpenFOAM: The Open Source CFD Toolbox           |
|  \\    /   O peration     | Version:  dev                                   |
|   \\  /    A nd           | Web:      http://www.openfoam.org               |
|    \\/     M anipulation  |                                                 |
\*---------------------------------------------------------------------------*/
FoamFile
{
    version     2.0;
    format      ascii;
    class       volScalarField;
    object      p;
    location    "9.129";
}
// * * * * * * * * * * * * * * * * * * * * * * * * * * * * * * * * * * * * * //

dimensions      [1 -1 -2 0 0 0 0];

internalField   nonuniform List<scalar> 
12225
(
105434
105397
105307
105173
104974
104744
104450
104137
103765
103376
102941
102496
102011
101527
101009
100323
99539.5
98852.5
105430
105397
105308
105172
104974
104743
104450
104138
103764
103376
102941
102497
102012
101525
100997
100282
99494
98833.4
105430
105397
105307
105171
104974
104741
104448
104139
103763
103377
102940
102498
102014
101523
100989
100291
99541.9
98884.6
105427
105395
105306
105169
104973
104739
104450
104134
103764
103376
102939
102502
102017
101526
100985
100354
99689.3
98994.1
105421
105393
105304
105166
104971
104735
104449
104130
103765
103376
102943
102502
102024
101535
100996
100410
99807.6
99119.4
105416
105389
105299
105161
104967
104730
104446
104125
103763
103377
102944
102506
102037
101550
101026
100469
99904.5
99332.1
105410
105383
105293
105154
104960
104723
104440
104118
103760
103374
102948
102510
102050
101571
101068
100546
100008
99553
105401
105375
105285
105145
104952
104714
104432
104111
103754
103368
102951
102515
102062
101593
101110
100628
100131
99640.6
105393
105366
105277
105135
104944
104705
104423
104102
103748
103362
102953
102518
102074
101613
101147
100692
100230
99732.4
105384
105356
105267
105123
104931
104692
104411
104091
103739
103355
102953
102521
102087
101634
101186
100741
100301
99856
105379
105342
105252
105107
104914
104674
104394
104075
103726
103344
102947
102523
102099
101658
101225
100794
100376
99966
105367
105324
105232
105086
104891
104650
104370
104052
103706
103328
102937
102520
102106
101678
101258
100843
100441
100055
105343
105300
105206
105057
104860
104618
104336
104021
103675
103303
102915
102511
102103
101689
101283
100883
100496
100124
105318
105270
105172
105019
104819
104573
104290
103975
103631
103263
102881
102488
102085
101685
101291
100905
100532
100173
105284
105233
105128
104970
104763
104514
104228
103911
103568
103203
102826
102440
102049
101658
101275
100902
100540
100193
105249
105187
105072
104904
104689
104433
104142
103822
103478
103115
102742
102362
101980
101597
101224
100861
100510
100173
105190
105123
104997
104817
104591
104325
104027
103701
103354
102991
102619
102242
101866
101494
101124
100770
100428
100100
105116
105041
104904
104711
104473
104197
103888
103555
103202
102836
102462
102086
101712
101343
100982
100632
100296
99974.8
105027
104953
104808
104606
104357
104069
103751
103409
103049
102678
102301
101923
101548
101181
100823
100477
100145
99828.4
104961
104879
104726
104514
104256
103958
103631
103280
102913
102537
102156
101776
101400
101033
100676
100332
100003
99689.1
104897
104817
104658
104438
104172
103866
103530
103172
102799
102417
102033
101650
101273
100905
100549
100206
99878.4
99566.5
104865
104771
104604
104378
104104
103791
103449
103084
102706
102320
101932
101547
101169
100800
100444
100102
99775
99464.5
104834
104736
104564
104332
104052
103733
103385
103016
102633
102244
101853
101466
101087
100717
100361
100019
99693.1
99383.6
104811
104709
104533
104297
104013
103690
103337
102964
102578
102186
101793
101405
101024
100654
100298
99955.9
99630.4
99321.7
104795
104690
104511
104272
103984
103658
103302
102926
102537
102143
101749
101359
100978
100608
100251
99909.4
99584.2
99275.9
104782
104676
104496
104254
103964
103635
103277
102899
102509
102113
101717
101327
100945
100575
100218
99876.3
99551.5
99243.5
104772
104667
104486
104243
103951
103620
103261
102881
102489
102093
101696
101305
100923
100552
100195
99853.9
99529.6
99221.6
104768
104663
104480
104236
103943
103611
103250
102870
102477
102080
101683
101291
100910
100538
100181
99840.1
99515.6
99207.8
104770
104661
104476
104232
103938
103606
103245
102864
102471
102073
101676
101284
100902
100530
100173
99832.2
99507.7
99200.3
104777
104662
104476
104231
103937
103604
103243
102861
102468
102070
101673
101281
100898
100527
100170
99829
99504.6
99197.2
88773.7
88779
88790.2
88807.2
88830
88858.8
88893.8
88935.2
88983.1
89037.7
89098.9
89167
89242
89324.1
89413.3
89509.8
89613.8
89725.3
89844.2
89970.8
90105.2
90247.5
90397.7
90555.9
90722.9
90897.5
91080.5
91272.1
91472.5
91681.4
91899.2
92125.8
92361.7
92607.8
92860.6
93122.1
93392.8
93673.1
93961.4
94258.1
94563
94875.9
95197
95526.1
95863.4
96209
96562.5
96923.6
97292.2
97668.6
98053.1
98444.9
98843.2
99248.5
99661
100081
100509
100944
101388
101840
102300
102766
103242
103726
104218
104719
105231
105755
106289
106836
107393
107960
108538
109125
109719
110314
110909
111503
112093
112678
113261
113846
114427
114998
115551
116085
116601
117100
117578
118030
118451
118839
119189
119497
119760
119978
120149
120277
120362
120404
120405
120371
120316
120237
120117
119961
119794
119637
119434
119247
119044
118843
118649
118464
118290
118129
117982
117853
117742
117653
117586
117543
117527
117539
117580
117654
117762
117903
118078
118283
118516
118774
119052
119344
119647
119956
120271
120586
120899
121209
121519
121833
122154
122490
122846
123231
123654
124116
124627
125181
125787
126435
127130
127848
128585
129331
130073
130763
131411
131953
132401
132692
132815
132768
132537
132149
131599
130910
130126
129248
128335
127378
126451
125567
124758
124038
123405
122846
122337
121847
88802.2
88807.6
88818.7
88835.5
88858
88886.6
88921.4
88962.6
89010.3
89064.5
89125.5
89193.3
89268
89349.9
89439
89535.4
89639.3
89750.7
89869.6
89996
90130
90271.7
90421.2
90579
90745.1
90919.5
91102.3
91293.7
91493.7
91702.5
91920
92146.2
92381.3
92625.3
92877.7
93138.4
93407.7
93690.7
93977.5
94273.6
94577.8
94889.6
95209.3
95537.2
95873.4
96217.7
96569.7
96929.2
97296.5
97671.8
98054.8
98444.5
98840.4
99243.5
99653.9
100072
100497
100932
101373
101823
102281
102746
103218
103699
104189
104688
105196
105714
106243
106785
107339
107902
108473
109051
109638
110229
110822
111415
112005
112588
113167
113743
114314
114878
115430
115963
116475
116968
117438
117880
118294
118674
119018
119322
119577
119788
119952
120074
120153
120191
120189
120152
120089
119999
119874
119727
119554
119383
119186
118996
118793
118590
118398
118214
118041
117881
117736
117608
117500
117412
117346
117303
117289
117302
117345
117421
117531
117677
117857
118068
118307
118571
118855
119154
119464
119779
120097
120415
120734
121051
121368
121689
122018
122360
122722
123110
123532
123992
124500
125051
125653
126295
126984
127698
128426
129162
129893
130576
131210
131742
132173
132460
132579
132533
132299
131904
131352
130655
129870
128998
128083
127131
126195
125305
124490
123769
123138
122587
122087
121603
88859.7
88864.9
88875.8
88892.1
88914.4
88942.6
88976.9
89017.3
89064.4
89118.4
89179.3
89247.1
89321.6
89403.2
89491.8
89587.6
89690.8
89801.3
89919.5
90045
90178
90318.8
90467.3
90623.9
90788.9
90962.4
91144.5
91335.5
91534.9
91742.9
91959.4
92184.4
92418.4
92661.2
92912.7
93172.8
93441.3
93718.7
94003.7
94302.8
94605.2
94914.6
95231.8
95557.2
95890.9
96232.4
96581.5
96938.6
97303.4
97675.8
98055.1
98440.4
98832.1
99231
99637.3
100051
100472
100902
101340
101785
102238
102699
103167
103644
104128
104620
105122
105634
106154
106684
107228
107783
108343
108907
109479
110060
110646
111233
111821
112402
112971
113535
114096
114647
115186
115708
116211
116690
117145
117574
117974
118343
118675
118968
119210
119409
119563
119673
119742
119771
119763
119720
119646
119541
119412
119266
119093
118900
118707
118510
118307
118102
117914
117731
117560
117401
117258
117133
117027
116942
116877
116833
116819
116834
116877
116953
117063
117210
117396
117619
117869
118143
118440
118755
119081
119409
119736
120063
120392
120723
121055
121391
121734
122088
122458
122849
123269
123726
124230
124777
125370
126003
126681
127385
128097
128818
129538
130200
130811
131324
131730
132003
132111
132065
131826
131420
130856
130141
129348
128484
127569
126620
125667
124762
123932
123201
122570
122031
121550
121090
88945.7
88950.7
88961.1
88977.2
88998.9
89026.5
89060.2
89100.2
89147.1
89201
89261.8
89329.1
89402.9
89483.6
89571.3
89666.1
89768
89877.2
89993.8
90117.9
90249.4
90388.4
90535.2
90690.3
90853.8
91026.3
91207.4
91397
91594.9
91801.1
92015.8
92239.3
92471.8
92713.1
92962.9
93221.3
93488.1
93763.3
94046.6
94338
94641.9
94948.7
95262.6
95584.4
95914.5
96252.4
96598
96951.3
97311.9
97679.2
98052.8
98432.6
98818.8
99211.6
99610.9
100018
100434
100856
101287
101726
102172
102626
103088
103555
104031
104516
105009
105511
106021
106539
107067
107608
108155
108702
109257
109822
110394
110970
111546
112117
112677
113227
113769
114302
114823
115328
115813
116273
116710
117121
117505
117856
118171
118449
118674
118855
118991
119085
119141
119161
119144
119092
119005
118888
118753
118599
118425
118221
118021
117815
117612
117408
117221
117041
116873
116714
116573
116451
116348
116265
116204
116164
116151
116167
116213
116293
116405
116548
116729
116955
117216
117500
117809
118144
118494
118845
119192
119534
119879
120229
120584
120942
121305
121674
122052
122444
122863
123316
123816
124362
124942
125562
126226
126914
127608
128308
129003
129648
130231
130718
131099
131352
131441
131392
131154
130738
130151
129413
128605
127745
126823
125871
124900
123973
123118
122366
121719
121189
120730
120308
89061.5
89066.2
89076.3
89091.9
89113
89140
89173.2
89213.1
89259.5
89312.7
89372.3
89438.4
89511.3
89591.1
89677.6
89770.8
89871.2
89978.7
90093.3
90215.2
90344.4
90481.3
90625.9
90778.6
90940.2
91110.8
91289.8
91476.8
91672
91875.8
92088.6
92310.2
92540.8
92780
93027.5
93283.5
93547.8
93820.2
94100.5
94388.6
94687.1
94990.1
95300.4
95618.2
95943.7
96276.6
96617
96964.7
97319.6
97681
98048.4
98421.6
98800.5
99184.8
99575.4
99973.8
100380
100794
101216
101645
102081
102525
102977
103434
103901
104377
104856
105342
105842
106347
106859
107384
107912
108441
108977
109525
110079
110636
111193
111745
112287
112820
113341
113851
114348
114829
115290
115728
116141
116529
116890
117219
117513
117769
117975
118134
118252
118329
118370
118375
118345
118280
118184
118059
117914
117749
117565
117363
117155
116937
116732
116529
116347
116167
116000
115842
115704
115581
115481
115397
115335
115299
115288
115306
115360
115450
115575
115729
115906
116125
116391
116683
116996
117341
117716
118100
118474
118838
119203
119577
119959
120344
120730
121114
121502
121896
122313
122765
123258
123804
124371
124971
125618
126282
126957
127628
128290
128913
129469
129922
130280
130522
130587
130523
130292
129867
129257
128503
127683
126821
125887
124917
123929
122977
122095
121319
120644
120105
119670
119285
89208.3
89212.8
89222.4
89237.3
89257.8
89284.3
89317.2
89356.5
89402
89453.7
89512
89576.9
89648.3
89726.2
89810.8
89902.2
90000.7
90106.2
90218.7
90338.2
90464.8
90598.7
90740.1
90889.7
91047.6
91214.1
91390.2
91575.1
91768.1
91969.3
92179.2
92398.2
92626.1
92862.3
93106.9
93359.7
93620.4
93889.2
94166.3
94450
94741.3
95039.7
95345
95657.5
95977.1
96303.7
96637.3
96977.9
97325.7
97680
98039.9
98404.9
98775.4
99151.1
99531.8
99918.4
100312
100715
101125
101541
101964
102396
102835
103279
103734
104198
104663
105132
105615
106104
106600
107106
107614
108122
108640
109169
109703
110237
110770
111298
111817
112324
112818
113300
113770
114222
114655
115066
115452
115813
116146
116447
116713
116942
117126
117267
117363
117421
117445
117433
117388
117308
117197
117057
116898
116727
116537
116333
116123
115894
115684
115484
115300
115119
114955
114801
114670
114550
114452
114371
114309
114272
114266
114286
114339
114432
114569
114745
114941
115158
115424
115726
116043
116386
116772
117186
117593
117984
118373
118773
119184
119599
120009
120410
120810
121209
121625
122077
122565
123110
123665
124239
124870
125500
126147
126788
127412
128007
128534
128955
129290
129527
129575
129483
129246
128808
128178
127427
126618
125739
124790
123787
122771
121796
120896
120104
119402
118832
118404
118055
89387.7
89391.8
89400.7
89414.7
89434.5
89460.5
89492.6
89530.8
89575.3
89625.8
89682.5
89745.6
89814.8
89890.3
89972.5
90061.4
90157.5
90260.4
90370.2
90487
90610.8
90741.9
90880.5
91026.8
91181.3
91344.5
91516.4
91697
91886.3
92084.1
92290.5
92505.6
92729.5
92961.6
93201.7
93449.5
93705.2
93969.3
94241.3
94519.4
94804.5
95096.6
95395.6
95701.4
96013.9
96333.1
96658.6
96990.3
97328.4
97673.6
98024.5
98379.6
98739.8
99106.1
99476.5
99850.1
100230
100618
101014
101416
101824
102240
102662
103092
103533
103980
104429
104882
105344
105811
106290
106775
107259
107746
108245
108753
109263
109773
110279
110779
111268
111745
112210
112662
113099
113521
113923
114302
114656
114985
115285
115555
115791
115991
116152
116271
116349
116377
116381
116349
116285
116187
116058
115903
115731
115551
115358
115154
114936
114705
114487
114284
114097
113912
113747
113597
113471
113358
113265
113187
113132
113099
113099
113134
113195
113287
113419
113605
113830
114067
114333
114642
114975
115317
115698
116124
116561
116984
117401
117827
118267
118710
119145
119567
119983
120388
120808
121260
121748
122293
122834
123393
123985
124591
125203
125808
126401
126961
127455
127853
128171
128387
128416
128306
128046
127578
126936
126210
125428
124526
123540
122500
121449
120445
119534
118743
118039
117430
116974
116653
89601.2
89604.9
89613
89626.5
89645.5
89670.6
89701.6
89738.3
89780.8
89829.3
89883.9
89944.7
90011.5
90084.4
90163.7
90249.8
90342.8
90442.5
90549.2
90663
90783.9
90911.8
91046.6
91189
91339.3
91498
91665
91841.3
92026
92219.2
92421.1
92631.2
92849.3
93075.4
93309
93550.1
93798.4
94060.3
94323.4
94594.2
94872.4
95157.3
95449.1
95747.3
96051.7
96361.8
96677.7
96998.9
97325.2
97658.4
97998.5
98342.5
98690.1
99044.1
99403.6
99765.7
100131
100502
100881
101267
101659
102058
102462
102875
103296
103723
104155
104593
105033
105477
105933
106394
106853
107317
107795
108280
108765
109246
109721
110190
110648
111094
111527
111946
112351
112740
113108
113453
113774
114069
114335
114572
114778
114948
115081
115175
115225
115236
115211
115152
115069
114951
114806
114645
114455
114269
114068
113857
113636
113406
113182
112968
112774
112589
112418
112267
112138
112027
111935
111859
111809
111785
111790
111837
111924
112038
112175
112352
112587
112854
113135
113449
113796
114152
114525
114946
115401
115853
116298
116749
117215
117685
118145
118587
119026
119444
119873
120329
120806
121362
121883
122422
122987
123570
124146
124717
125287
125810
126271
126650
126951
127135
127125
127006
126733
126224
125579
124887
124112
123174
122136
121058
119975
118946
118029
117251
116566
115948
115448
115120
89850
89853.1
89861
89873.9
89891.9
89915.2
89944.1
89978.5
90018.8
90065.4
90117.7
90175.5
90238.8
90308
90383.7
90466.1
90555.4
90651.6
90755.1
90865.5
90982.9
91107.4
91237.3
91375.5
91520.5
91675
91837.6
92007.1
92185.2
92371.8
92566.8
92769.7
92980.3
93198.8
93424.8
93658.8
93900.9
94153
94409.3
94673
94943.5
95220.3
95503.1
95791.8
96086.2
96385.9
96690.4
97000.2
97314.5
97634.1
97960.5
98292.2
98627.1
98966.7
99312.3
99661.2
100012
100366
100727
101094
101468
101848
102234
102626
103026
103433
103845
104263
104681
105104
105535
105968
106402
106843
107295
107754
108210
108661
109104
109540
109966
110380
110780
111166
111538
111893
112226
112538
112826
113088
113320
113523
113697
113837
113940
114005
114025
114008
113959
113883
113785
113649
113486
113313
113107
112905
112689
112474
112249
112018
111790
111566
111363
111174
111003
110845
110708
110595
110500
110428
110379
110361
110377
110425
110521
110665
110837
111025
111256
111537
111842
112168
112521
112894
113273
113685
114138
114609
115078
115553
116039
116533
117017
117481
117941
118382
118822
119285
119759
120294
120815
121334
121876
122442
122994
123535
124077
124569
124997
125361
125634
125777
125744
125615
125331
124790
124153
123492
122675
121671
120578
119461
118360
117325
116414
115657
114995
114388
113879
113519
90135.1
90137.8
90144.7
90156.7
90173.5
90195
90221.7
90253.9
90291.6
90334.7
90383.2
90437.1
90496.5
90561.8
90633.4
90711.5
90796.5
90888.6
90987.6
91093.3
91205.7
91324.8
91450.3
91582.8
91722.2
91869.2
92024.1
92186.8
92358
92537.6
92724.7
92919.2
93121.2
93330.9
93548.7
93775.1
94009.6
94251.6
94500.2
94755.2
95016.5
95283.8
95556.4
95834.1
96116.5
96404
96695.9
96992.4
97293.9
97599.7
97910.9
98228.1
98549.7
98874.5
99203.4
99536.2
99871.6
100210
100552
100899
101251
101611
101977
102348
102726
103111
103503
103897
104291
104692
105098
105503
105909
106324
106750
107181
107608
108026
108437
108839
109231
109612
109978
110332
110671
110992
111293
111573
111829
112056
112254
112423
112563
112669
112740
112773
112766
112724
112651
112552
112432
112286
112117
111928
111717
111495
111269
111042
110805
110571
110342
110109
109893
109694
109527
109363
109215
109097
109000
108934
108887
108868
108890
108951
109044
109194
109397
109622
109863
110146
110470
110813
111175
111556
111948
112359
112805
113279
113761
114253
114753
115263
115768
116256
116735
117203
117658
118124
118595
119108
119628
120142
120666
121214
121750
122274
122780
123248
123645
123979
124223
124322
124288
124156
123854
123295
122683
122022
121120
120039
118888
117729
116623
115607
114721
113994
113336
112766
112282
111899
90457.2
90459.2
90465.2
90475.7
90491
90510.4
90534.2
90563.3
90597.5
90636.8
90681.3
90730.9
90785.7
90846.1
90912.7
90985.6
91065.1
91151.4
91244.3
91343.8
91450
91562.6
91681.7
91807.2
91939.4
92078.5
92224.5
92380.4
92544.7
92716.5
92895
93080.2
93272.7
93473
93681.9
93899.2
94124.2
94356.4
94595
94839.3
95089.3
95344.9
95605.9
95871.6
96141.4
96415.4
96693.6
96975.3
97261.7
97552.9
97848.6
98149.4
98455.2
98764.5
99077
99392.5
99710.8
100031
100355
100682
101013
101349
101693
102043
102397
102759
103129
103501
103871
104247
104627
105004
105383
105769
106166
106567
106964
107350
107727
108095
108454
108801
109134
109454
109760
110049
110317
110565
110787
110980
111144
111280
111386
111460
111500
111505
111474
111409
111317
111199
111058
110900
110722
110527
110313
110078
109834
109589
109341
109098
108866
108624
108394
108183
108010
107844
107693
107561
107460
107393
107351
107341
107363
107434
107536
107679
107887
108146
108418
108708
109039
109399
109777
110164
110562
110976
111420
111890
112374
112871
113380
113895
114414
114922
115416
115909
116377
116850
117322
117817
118332
118852
119370
119907
120430
120938
121417
121851
122233
122524
122732
122800
122763
122626
122305
121754
121171
120466
119449
118309
117102
115894
114791
113817
112963
112264
111608
111093
110651
110267
90817.1
90818.2
90822.7
90831.3
90844.2
90861.2
90881.7
90906.5
90936.4
90971
91010.4
91054.7
91104.2
91159.2
91219.8
91286.4
91359.3
91438.6
91524.5
91617
91716
91821.5
91933.5
92052.1
92177.7
92310.5
92450.8
92596.1
92749.2
92909.7
93077.6
93252.4
93434.6
93624.6
93823.1
94029.9
94243.7
94464.1
94690.8
94923
95160.2
95402.4
95649.6
95901.6
96157.8
96417.3
96680.6
96947.3
97217.6
97492.6
97772.2
98056.2
98344.2
98635.7
98930.4
99227.8
99527.9
99830.2
100135
100442
100752
101065
101385
101710
102042
102380
102726
103075
103423
103773
104126
104476
104826
105183
105549
105920
106285
106640
106983
107318
107643
107957
108258
108545
108818
109074
109309
109522
109710
109871
110005
110111
110186
110231
110246
110230
110181
110103
110000
109870
109713
109533
109339
109135
108909
108658
108399
108137
107876
107621
107374
107129
106889
106669
106480
106314
106161
106014
105905
105826
105782
105783
105815
105890
106012
106157
106349
106618
106924
107236
107571
107941
108332
108732
109135
109551
109991
110460
110942
111433
111939
112454
112978
113496
114000
114509
114992
115472
115952
116440
116953
117479
118000
118534
119047
119531
119993
120398
120758
121013
121175
121227
121176
121025
120701
120181
119589
118786
117667
116488
115244
113994
112895
111963
111140
110465
109832
109373
108976
108603
91215.4
91215.4
91218.2
91224.2
91233.9
91247.4
91264.5
91285.1
91309.7
91338.9
91372.4
91410.1
91452.8
91500.8
91554.1
91613.2
91678.6
91750.2
91828.3
91912.8
92003.7
92101
92204.8
92314.7
92431.2
92554.4
92684.5
92821
92964.2
93114.4
93271.6
93435.9
93607.2
93785.6
93972
94166.1
94366.6
94572.8
94785.1
95003.1
95226.5
95454.7
95687.2
95923.8
96164.5
96408.5
96655.6
96906.3
97160.4
97418.6
97680.9
97947.3
98217
98489.5
98764.8
99043.1
99324.1
99607.6
99893.3
100181
100470
100761
101056
101357
101664
101978
102298
102623
102949
103275
103600
103922
104244
104571
104907
105246
105581
105905
106216
106518
106811
107092
107360
107615
107855
108078
108281
108460
108615
108747
108856
108937
108988
109012
109007
108972
108908
108821
108710
108569
108400
108202
107986
107761
107515
107251
106979
106700
106422
106152
105890
105637
105391
105169
104960
104785
104625
104469
104343
104256
104208
104210
104261
104341
104471
104634
104822
105076
105399
105739
106085
106459
106857
107270
107682
108100
108533
108995
109476
109963
110457
110966
111484
112005
112517
113034
113531
114016
114509
115005
115526
116057
116581
117107
117612
118079
118517
118900
119225
119452
119576
119619
119543
119362
119036
118546
117887
116949
115785
114582
113331
112092
110981
110067
109269
108615
108031
107610
107248
106903
91652.5
91650.7
91651.5
91654.9
91661.1
91670.2
91682.3
91698.1
91717.1
91739.4
91765.2
91795.2
91829.8
91869.8
91913.4
91964.3
92020.6
92083
92151.5
92226.3
92307.4
92394.8
92488.5
92589.1
92696.1
92809.6
92929.6
93055.6
93188.1
93327.4
93473.5
93626.2
93785.1
93950.2
94122.2
94301.5
94487.4
94678.8
94875.9
95078.5
95286
95498.4
95715.7
95936.8
96160.8
96387.7
96617.8
96851.2
97088.4
97329.5
97574.2
97821.8
98072.8
98326.4
98582.1
98840.4
99101.2
99364.3
99629.8
99898.1
100168
100438
100710
100986
101267
101556
101850
102150
102452
102756
103055
103351
103645
103943
104246
104554
104858
105152
105434
105704
105965
106215
106452
106675
106882
107074
107247
107397
107525
107631
107716
107775
107808
107814
107793
107744
107670
107568
107441
107286
107107
106896
106663
106417
106152
105873
105586
105291
104998
104716
104435
104168
103921
103697
103474
103269
103087
102931
102789
102697
102652
102650
102713
102809
102939
103113
103310
103551
103866
104227
104589
104968
105369
105789
106211
106633
107062
107514
107987
108473
108961
109456
109961
110479
110995
111519
112030
112524
113032
113543
114072
114607
115131
115649
116137
116594
117009
117367
117652
117847
117950
117977
117875
117653
117294
116777
116024
114984
113836
112629
111394
110222
109114
108184
107400
106767
106225
105829
105489
105189
92128.6
92124.6
92123
92122.5
92124.8
92129.4
92135.3
92144
92155.6
92169.9
92187.4
92208.4
92233.5
92263.3
92298
92338.1
92383.8
92435.2
92492.6
92556.2
92626.1
92702.6
92786.2
92875.5
92971.1
93073
93181.1
93295.4
93416
93542.9
93675.8
93814.9
93960.2
94111.5
94269
94433.2
94603.4
94779.1
94960.3
95146.7
95338
95533.9
95734
95937.6
96144.3
96353.7
96566.2
96782.2
97001.6
97224.6
97450.9
97679.9
97911.5
98145.9
98382.2
98620.6
98861.7
99104.7
99348.8
99595.9
99845.8
100097
100347
100600
100857
101119
101388
101661
101938
102218
102496
102766
103034
103303
103576
103852
104126
104391
104645
104887
105118
105338
105545
105738
105917
106081
106226
106351
106454
106538
106601
106639
106654
106644
106607
106546
106463
106347
106200
106027
105833
105610
105367
105108
104827
104531
104230
103919
103617
103315
103020
102743
102495
102260
102027
101795
101583
101419
101276
101182
101145
101141
101192
101295
101430
101610
101820
102058
102355
102717
103095
103479
103881
104302
104731
105160
105591
106035
106494
106974
107463
107947
108442
108951
109467
109992
110517
111027
111552
112075
112609
113140
113661
114169
114639
115082
115476
115802
116050
116218
116312
116304
116167
115892
115466
114870
114053
112985
111864
110683
109476
108369
107319
106371
105590
104964
104436
104060
103738
103492
92642.1
92637.7
92633.3
92626.9
92623.7
92621.8
92621.9
92622.5
92624.9
92629.6
92637
92647.8
92662.1
92680.7
92704
92732.3
92766
92805.1
92850.1
92901
92958.3
93022.1
93091.6
93167.6
93249.9
93338.1
93432.7
93533.6
93640.8
93754
93873
93998.2
94129.5
94266.6
94409.3
94558.1
94712.5
94872.3
95036.6
95205.2
95378.7
95557.2
95739.5
95925
96113.5
96305.2
96500.3
96699
96900.7
97105.2
97312.7
97522.8
97735.3
97950.6
98168
98386.6
98607.8
98831.6
99055.6
99280.9
99509.5
99740.5
99971.3
100202
100436
100673
100917
101165
101416
101670
101925
102174
102417
102659
102904
103150
103394
103631
103858
104074
104279
104471
104651
104818
104971
105109
105230
105332
105413
105476
105519
105538
105534
105507
105455
105377
105277
105148
104991
104807
104601
104367
104114
103844
103548
103240
102922
102601
102285
101964
101656
101375
101119
100862
100609
100365
100140
99960.2
99824
99727.6
99691.6
99696.7
99735.5
99823.7
99955.6
100136
100355
100600
100884
101231
101613
102001
102402
102823
103252
103687
104123
104565
105015
105484
105968
106452
106942
107443
107958
108479
109013
109539
110080
110611
111145
111667
112182
112673
113124
113551
113922
114212
114424
114576
114660
114610
114422
114091
113580
112910
112075
111026
109915
108776
107601
106533
105570
104644
103872
103230
102696
102331
102021
101827
93194.8
93188.3
93180.5
93169.8
93157
93145.2
93135.8
93127.3
93119.5
93113.3
93109.6
93108.6
93111
93117.1
93127.6
93142.4
93162.3
93187.4
93218
93254.4
93296.8
93344.9
93399.3
93460.6
93528.4
93602.4
93682.8
93769.6
93862.6
93961.6
94066.3
94176.6
94292.8
94414.3
94540.8
94672.6
94809.9
94952
95098.9
95250.4
95406.3
95566.3
95730.4
95897.9
96068.6
96243.1
96420.8
96601.6
96785.4
96971.4
97160.2
97351.9
97545.8
97742.2
97940.9
98140.7
98341.9
98546.4
98752.3
98958
99165.6
99375.6
99586.5
99796.2
100009
100224
100443
100667
100893
101120
101351
101580
101800
102017
102236
102456
102672
102881
103082
103274
103455
103624
103780
103923
104052
104167
104265
104345
104408
104451
104475
104479
104461
104419
104352
104257
104137
103994
103828
103641
103426
103179
102915
102632
102324
102001
101671
101340
101009
100672
100353
100068
99798.9
99520.2
99242.9
98987.3
98765.3
98574.3
98436.1
98341.8
98299.8
98306.2
98342.1
98416.7
98537.9
98711
98930.5
99182.2
99459.7
99786.1
100160
100547
100943
101360
101786
102223
102661
103108
103554
104015
104490
104975
105464
105965
106478
106998
107534
108070
108617
109152
109682
110190
110695
111168
111596
112007
112347
112604
112785
112934
112993
112889
112652
112272
111695
110978
110133
109125
108028
106911
105775
104744
103862
102995
102245
101581
101034
100664
100356
100204
93783.7
93774.3
93762.5
93746.3
93725.5
93702
93678.7
93656.4
93635
93615.3
93597.7
93582.8
93571
93563
93559.2
93557.5
93562.6
93572.2
93587.5
93609
93636
93668.9
93708.5
93755
93808
93866.8
93931.9
94003.3
94080.3
94163
94251.5
94345
94443.8
94548
94657.3
94771.9
94892
95016.8
95146.2
95280.3
95418.8
95561.3
95707.5
95857.3
96010.5
96167.5
96327.9
96490.9
96656.8
96825.3
96995.9
97169.4
97345.1
97522.9
97703.1
97885.3
98068.2
98253.3
98441
98628.7
98817.1
99007.6
99198.8
99389
99580.3
99774.1
99970.3
100171
100374
100577
100782
100990
101191
101384
101578
101774
101966
102151
102327
102496
102655
102804
102938
103058
103166
103260
103339
103400
103446
103473
103480
103468
103436
103380
103301
103197
103062
102906
102725
102530
102306
102050
101774
101479
101158
100823
100484
100144
99796
99444.2
99121
98827.8
98541.1
98245.6
97953.9
97683.1
97454.2
97262.6
97120.7
97028.1
96982.3
96982.4
97015.8
97079.8
97189.9
97350.5
97562.2
97813.1
98084
98392
98748.1
99125.5
99515.6
99923.5
100344
100776
101216
101664
102113
102569
103036
103521
104012
104516
105025
105545
106079
106618
107159
107695
108217
108713
109203
109655
110067
110458
110763
110993
111157
111301
111325
111154
110886
110460
109840
109119
108283
107299
106210
105108
104020
103041
102212
101415
100694
100019
99468.2
99076.8
98765.1
98635.5
94324.2
94312.2
94290.3
94264.1
94231.2
94195
94156.6
94118.2
94081.2
94046.3
94013.9
93984.7
93959
93937.4
93920.4
93907.9
93900.1
93896.4
93899.1
93908.4
93922.5
93942.3
93968.3
94000
94037.7
94081.8
94132.2
94188.8
94251.3
94319.6
94393.5
94472.9
94558.1
94648.4
94743.9
94844.9
94950.9
95061.2
95175.8
95295.1
95418.5
95545.7
95677.1
95812.5
95951.4
96093.2
96237.7
96385.5
96536.4
96690.2
96846.2
97004.6
97165.2
97327.4
97491.8
97658.4
97826.3
97996
98168.1
98340.7
98513.4
98687.9
98862.9
99037
99210.4
99386.4
99563.8
99745.5
99929.3
100113
100297
100485
100669
100843
101016
101192
101365
101530
101686
101835
101976
102107
102224
102327
102417
102493
102555
102601
102632
102647
102641
102615
102566
102493
102402
102294
102156
101988
101795
101589
101355
101088
100801
100497
100163
99818.3
99472.2
99121.5
98759.2
98396.4
98067.3
97763.7
97459.1
97145.6
96841.3
96563
96323.8
96129.8
95988.4
95893.2
95840.9
95830.2
95858.8
95917.3
96020.3
96167.6
96362.5
96598.7
96857.3
97146.5
97479
97840.9
98220.2
98613.6
99025.7
99446.1
99882.7
100324
100776
101227
101690
102171
102662
103167
103672
104189
104716
105249
105779
106306
106814
107300
107777
108204
108603
108968
109240
109445
109604
109732
109705
109476
109188
108733
108101
107412
106582
105581
104490
103416
102384
101466
100660
99910
99205.9
98541.6
98002.5
97578.2
97267.3
97133.9
94761
94740
94713.8
94679.4
94638.4
94591.2
94540.6
94488.4
94437.4
94388.8
94343.7
94302.6
94265.7
94233.4
94205.9
94183.3
94165.1
94151.6
94143.2
94139.3
94141.1
94149.4
94163.7
94183.4
94209.4
94242.3
94281.6
94326.9
94378.7
94436.3
94499.6
94568.3
94642.7
94722.6
94807.2
94896.7
94991.1
95090.1
95192.9
95300
95411.9
95527.8
95647.3
95770.4
95896.8
96026.6
96159.7
96296
96434.9
96576.4
96720.2
96866