/*--------------------------------*- C++ -*----------------------------------*\
| =========                 |                                                 |
| \\      /  F ield         | OpenFOAM: The Open Source CFD Toolbox           |
|  \\    /   O peration     | Version:  dev                                   |
|   \\  /    A nd           | Web:      http://www.openfoam.org               |
|    \\/     M anipulation  |                                                 |
\*---------------------------------------------------------------------------*/
FoamFile
{
    version     2.0;
    format      ascii;
    class       volScalarField;
    object      p_0;
    location    "9.129";
}
// * * * * * * * * * * * * * * * * * * * * * * * * * * * * * * * * * * * * * //

dimensions      [1 -1 -2 0 0 0 0];

internalField   nonuniform List<scalar> 
12225
(
103036
102996
102915
102798
102623
102428
102178
101914
101606
101283
100921
100546
100142
99738.2
99278.9
98688.9
98014.1
97340.4
103035
102999
102918
102801
102626
102431
102181
101917
101609
101286
100924
100548
100145
99736.7
99273
98659.1
97992.5
97356.6
103036
103005
102925
102806
102633
102438
102185
101923
101614
101292
100930
100555
100153
99739.2
99279.2
98682.2
98046.7
97448.2
103043
103015
102934
102814
102643
102445
102197
101932
101623
101303
100940
100567
100168
99752.6
99295.3
98761.4
98182.2
97569.1
103056
103029
102949
102828
102658
102457
102213
101946
101637
101317
100958
100585
100190
99776.1
99327.7
98838.8
98328.5
97706.8
103074
103051
102969
102848
102678
102476
102234
101967
101658
101337
100983
100612
100223
99814.9
99382.5
98924.5
98461.3
97959.8
103104
103079
102997
102874
102705
102501
102260
101993
101686
101363
101015
100647
100266
99868
99455.7
99031.3
98596.7
98249.3
103135
103110
103029
102904
102735
102530
102289
102020
101718
101392
101047
100684
100310
99924
99532
99143.9
98743.6
98389.2
103170
103144
103063
102936
102767
102561
102320
102049
101751
101421
101082
100723
100354
99978.5
99602.4
99240.3
98869.3
98512.9
103217
103188
103107
102979
102810
102601
102359
102088
101793
101461
101127
100771
100411
100043
99680.2
99326.1
98980.7
98649.9
103273
103245
103165
103036
102865
102654
102411
102138
101845
101512
101181
100831
100478
100121
99769.5
99425.3
99096.9
98783.6
103344
103321
103241
103109
102936
102723
102477
102201
101910
101577
101249
100905
100559
100211
99870
99538.1
99220
98915.3
103440
103420
103340
103205
103027
102810
102561
102283
101986
101661
101332
100993
100653
100314
99982.6
99660.7
99352.7
99059.6
103576
103553
103467
103327
103144
102921
102667
102385
102085
101758
101430
101096
100760
100428
100104
99790.8
99491.1
99206.7
103751
103723
103630
103482
103289
103059
102796
102508
102203
101872
101544
101210
100878
100550
100231
99923.2
99629.4
99351.1
103981
103940
103833
103673
103467
103224
102951
102653
102337
102002
101668
101332
100999
100672
100355
100050
99758.8
99483.6
104254
104200
104078
103901
103679
103419
103128
102815
102485
102142
101798
101454
101115
100784
100465
100159
99867.4
99592.1
104555
104482
104341
104144
103901
103620
103309
102975
102627
102270
101911
101555
101206
100868
100542
100231
99935.9
99657.3
104797
104727
104574
104361
104097
103794
103461
103106
102739
102365
101991
101622
101262
100914
100580
100262
99961.4
99678.1
105024
104932
104765
104535
104253
103931
103578
103204
102819
102430
102041
101660
101290
100932
100591
100266
99960.1
99672
105193
105094
104916
104672
104374
104035
103665
103276
102876
102473
102073
101681
101301
100936
100587
100257
99945.8
99653.5
105326
105220
105032
104776
104466
104113
103730
103328
102916
102501
102092
101691
101303
100932
100577
100242
99926.9
99631.2
105430
105315
105120
104855
104534
104170
103777
103365
102943
102520
102102
101696
101302
100925
100566
100227
99908.2
99609.7
105495
105385
105185
104913
104584
104212
103811
103391
102962
102533
102108
101698
101299
100918
100555
100213
99892
99591.4
105553
105437
105233
104955
104620
104242
103835
103409
102975
102541
102113
101697
101296
100911
100547
100202
99879.3
99577
105594
105474
105266
104984
104645
104263
103852
103422
102984
102547
102116
101697
101293
100907
100540
100194
99869.9
99566.4
105620
105499
105289
105004
104662
104278
103863
103431
102990
102550
102117
101697
101291
100903
100535
100189
99863.4
99559.1
105637
105516
105303
105017
104673
104287
103870
103436
102994
102553
102118
101696
101289
100901
100533
100185
99859.4
99554.5
105648
105525
105311
105024
104680
104292
103874
103439
102996
102554
102119
101696
101289
100900
100531
100183
99857.2
99552.3
105654
105531
105315
105028
104682
104294
103876
103440
102997
102555
102119
101696
101288
100899
100530
100183
99856.5
99551.6
89177.2
89180.8
89188.4
89200.1
89215.7
89235.5
89259.6
89288.2
89321.5
89359.4
89402.2
89450
89502.8
89560.9
89624.4
89693.5
89768.4
89849.1
89935.8
90028.7
90127.8
90233.5
90345.9
90465
90590.9
90724
90864.3
91012.1
91167.5
91330.8
91502
91681.2
91868.3
92063.5
92266.7
92478
92697.3
92924.8
93160.2
93403.5
93654.7
93913.6
94180.1
94454.3
94736
95025.4
95322.1
95625.8
95936.3
96253.8
96578.5
96909.9
97247
97590.1
97939.4
98295.1
98657.4
99026.5
99402.3
99785.2
100174
100570
100973
101383
101801
102227
102664
103111
103569
104037
104516
105005
105504
106011
106523
107034
107544
108053
108559
109059
109555
110046
110527
110989
111426
111836
112221
112579
112905
113194
113441
113646
113808
113925
113995
114031
114016
113983
113917
113823
113704
113573
113444
113314
113164
112997
112840
112717
112563
112438
112309
112188
112079
111981
111897
111824
111762
111713
111678
111660
111650
111653
111672
111705
111753
111819
111904
112007
112129
112267
112423
112597
112784
112982
113190
113411
113642
113876
114110
114343
114583
114840
115125
115448
115823
116261
116771
117350
118004
118719
119494
120305
121146
121980
122791
123551
124242
124822
125275
125564
125702
125637
125385
124962
124400
123740
122988
122183
121354
120462
119621
118804
118064
117407
116844
116369
115979
115673
115441
115258
89196.2
89199.8
89207.4
89219
89234.5
89254.2
89278.3
89306.9
89340.1
89378
89420.8
89468.5
89521.4
89579.5
89643.2
89712.5
89787.5
89868.5
89955.4
90048.4
90147.7
90253.2
90365.3
90484.3
90610.3
90743.5
90884.1
91032.1
91187.6
91351
91522.7
91701.8
91889
92084.3
92287.6
92499.1
92718.6
92946.2
93181.7
93425.1
93676.3
93935.1
94201.5
94475.5
94757.1
95046.2
95342.4
95645.7
95956
96273.5
96598
96928.6
97264.6
97606.8
97955.5
98310.4
98672.1
99041.1
99416.3
99798.3
100187
100582
100984
101393
101810
102236
102670
103113
103567
104034
104511
104997
105491
105992
106499
107008
107518
108028
108534
109035
109528
110013
110487
110947
111386
111796
112179
112534
112854
113136
113379
113580
113740
113857
113911
113942
113933
113894
113824
113728
113609
113476
113340
113200
113047
112891
112732
112597
112448
112322
112192
112070
111961
111865
111782
111710
111650
111603
111570
111551
111542
111548
111569
111603
111654
111723
111810
111918
112044
112186
112347
112527
112720
112923
113136
113361
113596
113835
114073
114311
114556
114818
115107
115436
115816
116258
116769
117348
118001
118713
119484
120291
121127
121957
122759
123512
124195
124764
125207
125488
125615
125550
125299
124880
124312
123650
122899
122089
121255
120379
119532
118710
117966
117304
116737
116261
115870
115565
115333
115147
89234.5
89238.1
89245.6
89256.9
89272.4
89292
89316
89344.4
89377.5
89415.6
89458.7
89506.8
89559.9
89618.3
89682.1
89751.4
89826.5
89907.4
89994.3
90087.2
90186.3
90291.8
90403.8
90522.6
90648.5
90781.8
90922.6
91071.1
91227.2
91390.9
91562.4
91741.7
91929.3
92124.7
92328.4
92540.2
92759.9
92987.5
93223.2
93466.6
93717.7
93976.1
94241.9
94515.4
94796.7
95085.2
95380.8
95683.6
95993.7
96310.6
96633.8
96962.6
97297
97637.7
97985
98338.5
98699.1
99066.6
99440.4
99821.1
100209
100603
101003
101411
101825
102246
102677
103118
103567
104026
104497
104977
105465
105956
106452
106956
107463
107972
108480
108981
109468
109947
110417
110869
111299
111705
112083
112428
112738
113011
113245
113440
113594
113703
113750
113773
113759
113713
113637
113536
113416
113280
113134
112981
112828
112679
112524
112365
112222
112092
111961
111838
111730
111635
111554
111483
111426
111381
111351
111334
111327
111333
111357
111394
111449
111521
111613
111727
111862
112015
112185
112376
112581
112796
113020
113254
113498
113744
113991
114239
114495
114768
115068
115407
115797
116244
116757
117335
117986
118693
119455
120252
121078
121896
122683
123424
124089
124639
125063
125330
125436
125368
125118
124703
124131
123463
122709
121892
121054
120188
119337
118512
117758
117085
116510
116027
115633
115328
115098
114913
89292.3
89295.8
89303.1
89314.4
89329.7
89349.2
89373
89401.5
89434.9
89473.4
89517
89565.3
89618.7
89677.1
89740.9
89810.2
89885
89965.8
90052.4
90145.1
90244
90349
90460.7
90579.3
90705.2
90838.9
90980.5
91129.2
91285.3
91448.9
91620.3
91800
91987.8
92183.6
92387.3
92600
92819.7
93047.5
93283
93526.1
93776.7
94034.7
94300.1
94572.9
94853.5
95141.4
95436.5
95738.6
96047.7
96363
96684.2
97011
97343.7
97682.3
98026.7
98378
98736.6
99101.3
99472.9
99852.3
100237
100628
101027
101430
101841
102260
102688
103122
103565
104017
104478
104949
105427
105907
106393
106888
107388
107892
108395
108891
109375
109846
110305
110747
111167
111562
111928
112259
112557
112819
113043
113228
113372
113470
113511
113521
113497
113441
113358
113253
113128
112987
112831
112668
112510
112358
112206
112037
111893
111752
111622
111500
111394
111299
111220
111151
111097
111056
111029
111014
111012
111021
111048
111089
111148
111226
111324
111442
111585
111751
111934
112138
112361
112594
112835
113084
113340
113600
113860
114124
114397
114688
115006
115360
115760
116212
116726
117300
117947
118646
119395
120176
120989
121791
122556
123277
123922
124450
124847
125095
125176
125098
124848
124442
123866
123188
122425
121595
120753
119893
119040
118211
117442
116753
116167
115669
115265
114960
114732
114551
89370.8
89374.2
89381.4
89392.5
89407.7
89427.1
89451
89479.8
89513.5
89552.1
89595.6
89643.9
89697.4
89756
89819.9
89889.1
89963.9
90044.4
90130.7
90223
90321.2
90425.9
90537.2
90655.4
90781.3
90914.9
91056.3
91205.3
91360.9
91524.2
91695.9
91876
92064.3
92260.6
92464.8
92677.2
92897.5
93125.2
93360.5
93603.2
93853.2
94110.6
94375.4
94647.6
94927.1
95213.8
95507.4
95808.1
96115.6
96429.2
96748.6
97073.3
97403.5
97738.9
98079.9
98427.7
98782.7
99143.8
99512.2
99887.1
100267
100655
101050
101449
101856
102272
102692
103117
103556
104001
104453
104915
105381
105847
106322
106807
107298
107792
108285
108770
109245
109708
110153
110578
110982
111362
111711
112027
112309
112557
112768
112940
113072
113158
113185
113184
113149
113083
112992
112879
112747
112598
112437
112267
112101
111939
111778
111616
111466
111316
111184
111063
110960
110864
110787
110719
110667
110627
110604
110592
110593
110608
110638
110686
110751
110840
110948
111076
111226
111403
111600
111818
112057
112311
112575
112845
113120
113396
113675
113961
114257
114572
114913
115282
115693
116148
116662
117231
117871
118561
119294
120055
120848
121628
122369
123065
123683
124187
124554
124779
124839
124744
124485
124093
123522
122827
122050
121207
120360
119507
118645
117811
117026
116315
115716
115198
114776
114467
114240
114064
89471.5
89474.8
89481.8
89492.7
89507.7
89527.3
89551.5
89580.5
89614.2
89652.6
89695.9
89744.2
89797.6
89856
89919.7
89988.9
90063.7
90144.2
90230.3
90322.2
90420.1
90524.1
90634.6
90752.1
90876.9
91009.3
91149.5
91297.8
91454.5
91618.7
91790.7
91971
92159.9
92356.6
92561.1
92773.7
92993.6
93221.1
93456
93698.1
93947.2
94203.7
94467.4
94738.2
95016.1
95300.9
95592.6
95891.1
96196.6
96508.1
96825
97147
97474.1
97806.3
98143.6
98486.3
98835.5
99191.7
99554.8
99923.5
100298
100680
101069
101461
101864
102275
102688
103105
103534
103970
104413
104865
105318
105770
106234
106710
107190
107671
108149
108622
109084
109528
109953
110359
110745
111104
111434
111731
111996
112226
112421
112577
112693
112763
112784
112766
112719
112643
112543
112421
112279
112122
111953
111776
111601
111431
111261
111098
110944
110788
110653
110534
110429
110336
110259
110192
110145
110106
110085
110075
110078
110096
110132
110184
110258
110356
110480
110624
110788
110976
111189
111421
111676
111947
112235
112530
112828
113126
113428
113739
114065
114407
114771
115156
115578
116035
116550
117111
117741
118425
119139
119881
120646
121396
122110
122774
123361
123838
124178
124376
124417
124314
124035
123645
123091
122383
121587
120736
119885
119031
118162
117312
116511
115779
115160
114626
114181
113858
113633
113458
89596.3
89599.4
89606.1
89616.7
89631.6
89651.2
89675.5
89704.5
89738.2
89776.6
89819.8
89868
89920.9
89979
90042.3
90111.2
90185.8
90266.1
90352
90443.8
90541.2
90645.1
90755.5
90872.7
90997.1
91129.1
91268.9
91416.4
91572.4
91736.3
91908
92087.5
92277.6
92473.8
92677.8
92889.3
93108.4
93334.8
93568.6
93809.7
94057.9
94313.1
94575.2
94844.2
95120.1
95402.7
95691.8
95987.2
96288.9
96597.1
96911
97229.2
97552
97880.5
98213.7
98550.3
98892.3
99241.7
99597.9
99959.6
100327
100701
101081
101467
101863
102266
102670
103079
103496
103920
104354
104794
105231
105672
106126
106590
107057
107523
107984
108438
108878
109300
109704
110088
110451
110788
111096
111372
111617
111826
112002
112139
112237
112291
112302
112274
112208
112121
112010
111878
111728
111561
111382
111195
111007
110827
110652
110485
110326
110166
110030
109909
109803
109707
109632
109568
109525
109489
109472
109462
109469
109492
109533
109596
109678
109782
109916
110079
110263
110468
110701
110948
111219
111507
111813
112133
112458
112781
113110
113448
113804
114176
114563
114966
115399
115857
116368
116919
117538
118220
118915
119633
120367
121089
121772
122400
122953
123398
123711
123888
123911
123799
123511
123108
122563
121846
121034
120190
119338
118470
117587
116717
115895
115145
114498
113958
113495
113146
112912
112738
89747.1
89750
89756.6
89767
89781.7
89801.2
89825.3
89854.1
89887.4
89925.4
89968.3
90016.2
90068.8
90126.5
90189.4
90257.9
90332.1
90411.9
90497.6
90589.3
90686.9
90790.8
90900.9
91017.7
91141.5
91272.9
91412
91558.8
91714.2
91877.2
92048.2
92227.3
92414.5
92609.4
92811.9
93021.9
93239.1
93463.7
93695.7
93935.3
94182
94435.6
94696
94963.1
95236.5
95515.9
95801.3
96092.3
96388.7
96691.5
97001
97314.9
97632.2
97954.9
98283.5
98615.2
98950
99290.9
99638.6
99991.7
100351
100716
101086
101463
101849
102240
102634
103037
103443
103852
104273
104698
105119
105548
105990
106441
106892
107340
107780
108210
108625
109023
109403
109764
110101
110414
110699
110952
111174
111362
111516
111633
111713
111751
111747
111708
111629
111523
111397
111252
111091
110912
110723
110533
110338
110150
109967
109792
109625
109465
109325
109197
109089
108985
108915
108850
108807
108775
108758
108752
108764
108791
108838
108912
109009
109128
109269
109443
109649
109875
110129
110398
110683
110989
111313
111652
112002
112353
112711
113078
113463
113863
114274
114695
115140
115600
116103
116651
117251
117928
118607
119296
119997
120693
121346
121934
122455
122871
123154
123310
123327
123195
122898
122489
121944
121212
120392
119565
118718
117823
116915
116019
115175
114404
113735
113198
112724
112352
112094
111915
89926.3
89928.9
89935.3
89945.7
89960.2
89979.1
90002.5
90030.4
90063.2
90101
90143.6
90190.8
90242.5
90299.2
90361.1
90428.8
90502.4
90581.9
90667.5
90759
90856.5
90960.2
91070
91186.4
91309.6
91440.1
91578.3
91725.4
91880.4
92039.2
92207.1
92383.4
92567.7
92759.9
92959.6
93167
93382.1
93604.7
93834.8
94072.3
94317
94568.3
94826
95089.8
95359.6
95635
95915.5
96201.4
96492.3
96788.5
97091.2
97399.5
97711.3
98027.4
98349.4
98675
99002.6
99334.3
99672.2
100015
100364
100720
101080
101445
101819
102197
102582
102973
103365
103762
104168
104575
104982
105397
105824
106257
106689
107115
107531
107934
108324
108697
109052
109386
109698
109986
110245
110475
110673
110839
110969
111064
111124
111145
111126
111070
110982
110857
110710
110556
110386
110194
109998
109802
109601
109404
109213
109029
108854
108693
108544
108410
108295
108190
108114
108048
108001
107969
107949
107945
107961
107995
108050
108130
108241
108381
108544
108730
108950
109198
109472
109767
110068
110391
110732
111088
111456
111833
112218
112616
113028
113457
113890
114327
114786
115255
115755
116303
116886
117540
118209
118872
119537
120201
120826
121379
121863
122256
122517
122647
122659
122506
122199
121788
121240
120497
119680
118869
118010
117077
116134
115213
114347
113558
112875
112340
111873
111488
111201
111008
90135.5
90137.9
90144
90154.1
90168.2
90186.5
90209.2
90236.5
90268.5
90305.1
90346.4
90392.3
90443
90498.6
90559.6
90626.2
90698.8
90777.6
90863
90953.7
91050.5
91153.3
91262.1
91377.1
91498.5
91626.6
91761.9
91905
92055.6
92214.4
92380.8
92554.4
92735.3
92924
93120.7
93325.3
93538
93758.5
93986.1
94220.7
94462
94709.6
94963.3
95222.5
95487.1
95757.1
96031.7
96311.3
96596
96885.6
97180.6
97481.3
97786.6
98095.6
98408.7
98725.9
99045.8
99369
99696.4
100029
100365
100708
101057
101411
101771
102137
102511
102887
103263
103646
104036
104425
104815
105214
105623
106037
106446
106847
107236
107612
107975
108321
108649
108957
109243
109505
109739
109944
110119
110260
110366
110439
110477
110479
110442
110368
110263
110133
109977
109806
109628
109418
109217
109012
108806
108597
108396
108204
108021
107851
107698
107557
107434
107326
107247
107174
107120
107085
107062
107061
107076
107114
107176
107266
107384
107539
107728
107939
108175
108439
108733
109050
109375
109711
110068
110440
110824
111220
111627
112053
112489
112941
113398
113854
114323
114804
115304
115852
116426
117052
117704
118351
118984
119614
120208
120736
121184
121553
121797
121901
121902
121732
121422
121010
120451
119704
118907
118104
117205
116225
115238
114289
113411
112613
111926
111397
110933
110550
110253
110041
90376.9
90378.9
90384.3
90393.9
90407.5
90425.2
90446.8
90472.8
90503.5
90538.7
90578.6
90623.1
90672.2
90726.3
90785.8
90850.9
90921.9
90999
91082.3
91171.4
91266.5
91367.5
91474.4
91587.3
91706.3
91832
91964.5
92104.2
92250.8
92408.3
92571.7
92741.7
92918.7
93103.5
93296.6
93498.2
93707.6
93924.6
94148.5
94378.7
94615
94857.4
95105.6
95359.2
95617.6
95880.8
96148.6
96420.5
96697.4
96979.3
97266.2
97558.4
97855.3
98155.9
98460
98767.4
99077.7
99390.8
99707.1
100027
100352
100681
101016
101357
101703
102054
102414
102776
103136
103503
103875
104245
104616
104995
105384
105776
106161
106535
106897
107245
107580
107898
108199
108479
108739
108974
109183
109364
109514
109630
109713
109763
109780
109763
109709
109620
109500
109358
109194
109013
108820
108609
108395
108178
107968
107748
107538
107332
107140
106961
106798
106648
106516
106397
106317
106237
106180
106137
106112
106110
106125
106166
106231
106328
106456
106619
106825
107064
107324
107605
107916
108251
108603
108955
109322
109708
110108
110519
110942
111385
111844
112312
112789
113267
113748
114241
114740
115284
115851
116455
117083
117711
118318
118927
119491
119992
120419
120758
120989
121069
121051
120870
120554
120149
119580
118838
118072
117259
116293
115265
114232
113255
112364
111570
110895
110370
109906
109537
109247
109023
90652.4
90653.8
90658.5
90667
90679.6
90696
90716
90740.2
90768.9
90802.5
90840.1
90882.4
90929.6
90981.8
91039.3
91102.2
91170.8
91245.3
91325.9
91412.7
91505.5
91604.1
91708.8
91819.7
91936.8
92060.4
92190.6
92327.7
92471.4
92622.5
92780.7
92945.9
93118.2
93298.4
93487.1
93684.3
93888.9
94100.5
94318.8
94543.2
94773.2
95008.7
95249.8
95496.3
95747.6
96003
96262.7
96526.2
96794.1
97066.8
97344.5
97627.3
97914.2
98204.8
98498.6
98795.2
99094.7
99396.5
99701.3
100009
100320
100634
100954
101279
101610
101946
102289
102635
102982
103330
103682
104032
104383
104741
105107
105474
105834
106181
106514
106834
107141
107431
107703
107956
108189
108398
108581
108736
108861
108953
109014
109042
109037
108999
108928
108828
108697
108543
108372
108186
107982
107766
107546
107321
107094
106867
106645
106427
106220
106030
105856
105697
105550
105424
105329
105248
105187
105132
105104
105095
105108
105155
105225
105328
105470
105638
105847
106108
106397
106702
107027
107378
107749
108123
108502
108897
109308
109733
110170
110621
111092
111575
112064
112556
113051
113559
114061
114600
115160
115741
116351
116957
117546
118138
118675
119148
119560
119870
120087
120151
120106
119926
119598
119200
118641
117912
117156
116303
115260
114195
113122
112114
111217
110440
109777
109260
108798
108449
108176
107950
90963.9
90964.6
90968.2
90975.3
90986.1
91000.7
91019.1
91041.4
91067.7
91098.4
91133.3
91172.8
91217
91266.1
91320.7
91380.6
91446.1
91517.4
91595.1
91679
91768.9
91864.7
91966.6
92074.3
92188.1
92308.1
92434.4
92567.4
92707
92853.5
93007
93167.3
93334.6
93509.2
93692
93882.8
94080.4
94284.1
94494.3
94710.8
94933.1
95161
95393.9
95631.7
95874.2
96120.6
96370.9
96625
96883.2
97146.1
97413.5
97685.6
97961.4
98240.2
98521.9
98806.6
99094.2
99384.2
99676.6
99970.8
100268
100567
100870
101177
101491
101811
102136
102464
102796
103127
103457
103787
104116
104450
104791
105132
105466
105785
106090
106382
106661
106923
107167
107392
107598
107780
107937
108065
108164
108233
108273
108281
108256
108201
108116
108004
107865
107705
107528
107333
107121
106897
106668
106435
106194
105955
105719
105487
105266
105063
104874
104709
104548
104419
104304
104219
104145
104080
104043
104026
104038
104084
104165
104275
104427
104607
104819
105084
105397
105730
106071
106437
106821
107216
107610
108014
108431
108863
109310
109771
110243
110734
111228
111728
112230
112751
113260
113796
114351
114917
115514
116104
116682
117249
117765
118219
118608
118895
119087
119144
119075
118898
118565
118160
117618
116912
116124
115198
114102
113017
111916
110888
109987
109225
108568
108074
107613
107290
107037
106816
91313
91312.6
91314.9
91320.4
91329.3
91341.5
91357.1
91376.8
91400.3
91427.4
91458.4
91493.8
91533.9
91579.2
91629.7
91685.7
91747
91814.4
91887.9
91967.5
92053.1
92144.8
92242.6
92346.5
92456.3
92572.1
92694.8
92823.3
92958.1
93099.6
93247.6
93402.2
93563.2
93730.4
93904.9
94087.2
94276.2
94471.2
94672.4
94879.6
95092.3
95310.6
95534.5
95763.1
95995.4
96231.1
96470.4
96713.8
96961.4
97213.7
97470.1
97730.1
97993.6
98260
98528.8
98800.2
99074.2
99350.4
99629
99910.1
100193
100477
100763
101053
101347
101649
101955
102265
102577
102891
103201
103508
103816
104125
104439
104753
105060
105353
105630
105894
106144
106378
106594
106791
106969
107125
107256
107359
107434
107482
107503
107495
107457
107391
107295
107175
107031
106864
106677
106470
106249
106014
105773
105529
105275
105022
104772
104526
104292
104074
103868
103687
103522
103387
103255
103152
103060
102990
102935
102915
102928
102972
103061
103185
103339
103530
103751
104014
104334
104694
105055
105434
105831
106238
106650
107061
107484
107919
108370
108837
109313
109800
110295
110798
111303
111832
112351
112884
113432
113995
114579
115160
115726
116271
116766
117207
117571
117838
118004
118047
117966
117783
117452
117030
116489
115792
114947
113946
112827
111749
110626
109605
108700
107938
107294
106804
106369
106063
105824
105618
91701.5
91699.3
91700.1
91703.1
91709.4
91719.1
91731.3
91746.7
91766
91788.7
91815.2
91845.8
91881
91921.1
91966.4
92017.1
92073.3
92135.3
92203.1
92277.1
92357.2
92443.7
92536.6
92635.7
92740.8
92852.1
92968.6
93091.2
93219.7
93354.3
93495.2
93642.2
93795.5
93954.8
94120.7
94293.6
94472.9
94658
94849.2
95046.3
95248.9
95456.7
95669.6
95886.7
96107.3
96331.2
96558.7
96790.3
97026.2
97266.4
97510.5
97757.7
98007.9
98260.8
98515.9
98773.3
99033.4
99295.5
99558.7
99824.6
100093
100362
100631
100903
101178
101459
101746
102035
102327
102621
102913
103198
103482
103768
104055
104341
104620
104886
105137
105374
105596
105802
105991
106161
106313
106443
106550
106631
106686
106715
106720
106696
106645
106568
106463
106336
106188
106013
105817
105603
105370
105121
104868
104613
104347
104078
103813
103552
103305
103069
102847
102651
102482
102333
102189
102062
101949
101869
101801
101778
101793
101834
101923
102057
102216
102416
102648
102913
103230
103600
103985
104376
104783
105201
105625
106048
106476
106916
107364
107830
108312
108792
109289
109788
110295
110821
111351
111883
112432
112995
113564
114136
114689
115213
115690
116114
116456
116700
116841
116867
116785
116588
116252
115806
115245
114527
113639
112574
111461
110403
109276
108270
107391
106618
105980
105487
105076
104781
104553
104375
92129
92126.5
92125.2
92124.4
92126.8
92132.2
92140.7
92151
92165.8
92182.5
92203
92227.7
92256.9
92290.9
92330
92374.4
92424.2
92479.6
92540.8
92607.8
92681
92760.4
92845.8
92937.7
93034.9
93137.9
93247.1
93362.3
93483.5
93610.5
93743.3
93882.3
94027.4
94178.2
94335.1
94498.3
94667.6
94842.6
95022.5
95207.3
95397.8
95593.9
95794.5
95998.6
96206.3
96417.6
96632.9
96852.5
97076
97303
97533.4
97766.8
98002.9
98242
98483.1
98725.9
98971.2
99218.9
99466.8
99716
99967.8
100222
100475
100728
100985
101245
101510
101779
102049
102320
102593
102859
103119
103380
103641
103900
104151
104391
104616
104827
105024
105203
105366
105512
105639
105747
105832
105892
105928
105940
105929
105890
105824
105734
105619
105479
105322
105139
104939
104720
104483
104224
103961
103694
103414
103131
102848
102573
102312
102056
101819
101611
101433
101263
101102
100957
100827
100732
100663
100634
100649
100693
100776
100905
101067
101274
101514
101787
102102
102468
102869
103271
103685
104114
104544
104980
105413
105860
106306
106768
107249
107727
108222
108716
109226
109743
110282
110813
111370
111930
112487
113046
113582
114084
114543
114944
115266
115484
115597
115615
115533
115318
114961
114489
113882
113119
112219
111142
110031
108997
107895
106895
106067
105299
104661
104154
103749
103466
103244
103104
92598.2
92594.3
92590.4
92586
92581.8
92580.2
92582.3
92587
92594.4
92604.6
92618.3
92636.1
92658.2
92685.1
92716.9
92753.5
92795.4
92842.7
92895.3
92953.6
93017.8
93087.5
93163.1
93245.1
93334.2
93429
93529.9
93636.9
93750
93868.6
93992.8
94122.7
94258.2
94399.3
94545.4
94697.1
94854.4
95017.1
95184.9
95357.7
95535.4
95718.1
95905.2
96095.9
96290.3
96489
96691.6
96898.3
97108.5
97321.4
97537.5
97756.8
97978.5
98203
98429.8
98657.8
98887.4
99119.8
99353.3
99586.4
99821.2
100058
100295
100530
100768
101008
101252
101499
101748
101997
102246
102493
102733
102967
103202
103436
103661
103873
104073
104260
104433
104589
104728
104850
104955
105041
105106
105147
105166
105162
105135
105086
105010
104909
104786
104637
104466
104271
104060
103838
103597
103330
103056
102776
102482
102185
101887
101600
101320
101046
100795
100577
100382
100191
100009
99845.8
99708.2
99596.8
99525.8
99494.1
99504
99551.2
99632
99751
99909.1
100117
100362
100643
100959
101316
101719
102130
102548
102985
103419
103865
104303
104756
105202
105665
106135
106616
107104
107600
108107
108621
109163
109694
110256
110808
111355
111896
112410
112893
113327
113706
114003
114194
114282
114301
114210
113967
113584
113086
112428
111624
110723
109675
108587
107531
106477
105515
104721
103989
103359
102830
102418
102135
101917
101802
93108.7
93101.9
93094.7
93085.8
93075.5
93065.3
93057.5
93052.4
93050.2
93051.3
93056.1
93064.9
93078.1
93096
93118.4
93145.8
93178.2
93215.7
93259
93308.3
93362.9
93422.9
93488.8
93562.7
93642.5
93727.6
93818.7
93915.8
94018.2
94126.1
94239.6
94357.8
94481.2
94609.9
94743.7
94882.9
95027.9
95177.8
95332.7
95492.6
95657.5
95826.5
95999.6
96176.6
96357.6
96543.2
96733.1
96926.1
97122.3
97321.2
97522.7
97727.4
97934.6
98144
98355.8
98569.3
98783.5
98999.8
99218.1
99435.8
99654
99873.6
100093
100311
100530
100751
100974
101200
101427
101654
101879
102105
102325
102537
102746
102953
103154
103342
103517
103680
103830
103965
104083
104183
104267
104333
104379
104402
104407
104390
104348
104287
104203
104093
103962
103806
103626
103423
103200
102968
102718
102445
102162
101869
101560
101249
100940
100639
100340
100047
99786
99555.8
99342.5
99131.1
98929.1
98745.7
98597.2
98477.7
98401.3
98367.6
98374.3
98420.5
98500
98608
98760.5
98961.9
99206
99492.7
99805.8
100156
100551
100964
101384
101821
102260
102708
103155
103609
104060
104521
104985
105468
105949
106452
106951
107467
108002
108533
109089
109630
110168
110688
111181
111643
112051
112409
112677
112843
112915
112935
112830
112540
112142
111611
110915
110106
109216
108194
107114
106060
105046
104131
103375
102689
102073
101530
101107
100810
100591
100492
93579.4
93572.1
93557.7
93541.7
93522.3
93502.7
93483.5
93466.5
93452.8
93442.9
93437.1
93436.1
93439.9
93448.8
93463.1
93482.6
93506.9
93536.4
93572.5
93614.4
93660.9
93712.9
93772.2
93834.9
93903.4
93977.7
94057.9
94144.3
94236.4
94333.9
94436.7
94544.7
94658.4
94777.1
94901
95030.4
95165.2
95304.2
95447.8
95596.3
95749
95905.8
96067.2
96233.2
96403.3
96577.1
96754
96934.3
97118
97305
97494.7
97686.9
97881.1
98077.2
98275.5
98475.7
98676.9
98879.7
99084.5
99288.9
99492.8
99697.8
99902.5
100106
100308
100511
100716
100924
101132
101340
101546
101752
101954
102146
102333
102519
102699
102867
103021
103164
103295
103412
103512
103594
103660
103709
103739
103749
103740
103713
103661
103587
103490
103368
103228
103069
102885
102676
102446
102207
101947
101665
101370
101067
100745
100421
100102
99786.8
99469.7
99162.4
98890
98646.6
98414.3
98182.2
97961.7
97763.4
97601.1
97476.8
97397.8
97358.6
97359.6
97399.5
97475.4
97577
97725.5
97916.3
98151.8
98432.3
98737.2
99078.7
99458.2
99865.7
100283
100714
101154
101596
102049
102497
102956
103411
103875
104353
104834
105337
105828
106343
106864
107392
107932
108459
108983
109482
109958
110395
110781
111115
111351
111491
111559
111573
111435
111097
110690
110135
109423
108649
107767
106742
105663
104624
103648
102787
102055
101404
100801
100258
99831.7
99507.8
99291.6
99190.6
93967.8
93954.1
93936.5
93912.8
93886.4
93857.9
93829.5
93802
93777.8
93757.9
93743
93733.5
93729.5
93731.1
93738.4
93751.2
93769.2
93790.1
93819.5
93853.5
93892.6
93937.1
93986.3
94040.7
94100.8
94167.1
94239.4
94317.8
94402.2
94492.2
94587.5
94688
94794
94905.4
95021.4
95142.3
95268.1
95398.5
95532.6
95671.2
95814.8
95962.6
96114.6
96271
96431.1
96594.8
96762.1
96932.8
97106.6