/*--------------------------------*- C++ -*----------------------------------*\
| =========                 |                                                 |
| \\      /  F ield         | OpenFOAM: The Open Source CFD Toolbox           |
|  \\    /   O peration     | Version:  dev                                   |
|   \\  /    A nd           | Web:      http://www.openfoam.org               |
|    \\/     M anipulation  |                                                 |
\*---------------------------------------------------------------------------*/
FoamFile
{
    version     2.0;
    format      ascii;
    class       surfaceScalarField;
    object      phi;
    location    "9.129";
}
// * * * * * * * * * * * * * * * * * * * * * * * * * * * * * * * * * * * * * //

dimensions      [1 0 -1 0 0 0 0];

internalField   nonuniform List<scalar> 
24170
(
1.97e-06
7.73086e-07
7.42435e-07
2.54673e-07
1.67303e-07
-3.43922e-07
-8.51153e-08
-6.23582e-07
-4.43322e-07
-4.74551e-07
-3.66814e-07
-8.63564e-07
-6.94585e-07
-4.15737e-07
-5.43368e-07
-8.49016e-07
-7.29796e-07
-4.65165e-07
-5.05141e-07
-8.29173e-07
-5.44425e-07
-5.22918e-07
-1.24341e-07
-9.39557e-07
1.98828e-07
-8.02463e-07
1.60859e-06
-1.84752e-06
3.44949e-06
-2.25066e-06
8.83827e-06
-5.76934e-06
1.04764e-05
-1.98043e-06
7.22997e-06
2.96766e-06
3.66936e-06
2.8719e-07
2.51746e-06
3.98525e-07
1.66939e-06
-4.64912e-07
8.28428e-07
-7.04394e-07
3.07096e-07
-8.28165e-07
-2.93677e-08
-1.35079e-06
-5.98281e-07
-6.2033e-07
-6.88925e-07
-1.48478e-06
-1.10713e-06
-7.21274e-07
-1.0483e-06
-1.51529e-06
-1.18004e-06
-9.72549e-07
-7.9401e-07
-1.86696e-06
-1.81296e-07
-1.9148e-06
1.06321e-06
-3.5549e-06
3.75228e-06
-5.36995e-06
7.6426e-06
-1.00613e-05
6.24065e-06
-9.38441e-07
1.05809e-05
2.611e-06
4.45973e-06
-9.35546e-07
3.7751e-06
-2.42841e-08
3.20255e-06
-9.58918e-07
2.45413e-06
-9.70621e-07
1.9494e-06
-1.28654e-06
1.38205e-06
-1.68789e-06
1.09814e-06
-1.18924e-06
9.20703e-07
-2.10737e-06
5.32807e-07
-1.07634e-06
7.41976e-07
-2.41479e-06
2.70476e-07
-1.14087e-06
5.95163e-07
-2.78753e-06
4.23328e-07
-2.29281e-06
8.43526e-07
-4.4826e-06
1.5165e-06
-6.51409e-06
4.80279e-07
-9.44455e-06
-4.12169e-07
-4.28117e-07
1.24307e-05
-2.59107e-06
4.79959e-06
-1.97084e-06
4.70864e-06
-1.14832e-06
4.2798e-06
-1.69981e-06
4.00274e-06
-1.80669e-06
3.41842e-06
-1.75753e-06
3.09311e-06
-2.35549e-06
2.54619e-06
-1.57694e-06
2.52148e-06
-2.95832e-06
2.09939e-06
-1.47037e-06
2.35446e-06
-3.42711e-06
1.90434e-06
-1.39048e-06
2.17349e-06
-3.71161e-06
1.55437e-06
-2.27485e-06
1.4831e-06
-4.96813e-06
-1.94348e-07
-5.34867e-06
-1.83615e-06
-8.26602e-06
-2.32975e-06
-3.65213e-07
1.37509e-05
-4.04686e-06
4.96719e-06
-2.87265e-06
5.49463e-06
-3.00673e-06
4.95514e-06
-2.44e-06
4.96555e-06
-3.03577e-06
4.34442e-06
-2.28955e-06
4.04488e-06
-3.14278e-06
3.45406e-06
-2.00705e-06
3.11674e-06
-3.57827e-06
2.8845e-06
-2.1316e-06
2.63267e-06
-4.00412e-06
2.44783e-06
-1.97118e-06
2.7565e-06
-4.73429e-06
2.50615e-06
-2.68047e-06
2.71286e-06
-5.78416e-06
9.91466e-07
-4.18255e-06
-6.32107e-07
-7.15354e-06
-2.05774e-06
5.99837e-07
1.31691e-05
-1.91135e-06
5.37048e-06
-3.52905e-06
5.54382e-06
-4.63228e-06
4.89241e-06
-3.18289e-06
4.89745e-06
-4.36993e-06
4.34207e-06
-2.99048e-06
3.98294e-06
-3.96909e-06
3.43679e-06
-2.5726e-06
2.98572e-06
-4.16846e-06
2.49174e-06
-2.61191e-06
1.65818e-06
-4.07554e-06
1.53588e-06
-2.68263e-06
9.37291e-07
-4.91097e-06
8.60355e-07
-3.31798e-06
3.93629e-07
-5.97621e-06
-1.0097e-08
-4.37944e-06
-1.01145e-06
-6.70282e-06
-2.5529e-06
1.64523e-06
1.14135e-05
-1.26049e-06
6.12468e-06
-4.35625e-06
5.90334e-06
-5.98569e-06
5.14317e-06
-3.93454e-06
4.97164e-06
-5.64016e-06
4.35226e-06
-3.73297e-06
4.08412e-06
-4.98679e-06
3.55751e-06
-3.25154e-06
3.11336e-06
-4.85191e-06
2.58175e-06
-3.13644e-06
2.03557e-06
-4.51284e-06
1.5076e-06
-3.05971e-06
6.71472e-07
-4.91435e-06
1.19438e-07
-3.54007e-06
-1.17406e-06
-5.39338e-06
-2.08387e-06
-4.11827e-06
-3.24857e-06
-6.12479e-06
-4.75288e-06
2.61317e-06
5.80768e-06
3.68777e-07
4.84912e-06
-5.09824e-06
4.64264e-06
-6.98383e-06
4.12271e-06
-4.57168e-06
3.96254e-06
-6.58426e-06
3.47668e-06
-4.29025e-06
3.39335e-06
-5.88756e-06
2.96204e-06
-3.74373e-06
2.79774e-06
-5.5508e-06
2.35914e-06
-3.50471e-06
2.20884e-06
-5.11681e-06
1.74856e-06
-3.29462e-06
1.35299e-06
-5.16119e-06
8.12204e-07
-3.59093e-06
1.35221e-07
-5.25928e-06
-1.0123e-06
-3.46599e-06
-2.64323e-06
-4.94243e-06
-2.16044e-06
1.72336e-06
1.36415e-06
1.9298e-06
5.82445e-06
-6.37666e-06
5.58403e-06
-8.11706e-06
5.02582e-06
-5.33327e-06
4.66925e-06
-7.48587e-06
4.17182e-06
-4.98432e-06
3.8689e-06
-6.70792e-06
3.50787e-06
-4.43746e-06
3.19807e-06
-6.22561e-06
2.91419e-06
-4.13914e-06
2.58671e-06
-5.6511e-06
2.41099e-06
-3.91542e-06
2.03578e-06
-5.5194e-06
1.68068e-06
-3.91001e-06
1.26705e-06
-5.46365e-06
2.80783e-07
-3.04302e-06
-7.47271e-07
-4.42736e-06
6.47785e-07
-1.33308e-07
-7.93903e-07
2.41507e-06
6.54064e-06
-7.50131e-06
6.18202e-06
-9.31698e-06
5.78419e-06
-6.43147e-06
5.29947e-06
-8.42596e-06
4.99123e-06
-6.0253e-06
4.50677e-06
-7.49737e-06
4.2507e-06
-5.37736e-06
3.72371e-06
-6.81583e-06
3.53675e-06
-4.98966e-06
2.97433e-06
-6.06435e-06
2.8155e-06
-4.65969e-06
2.22858e-06
-5.76285e-06
1.93766e-06
-4.38501e-06
1.22806e-06
-5.45349e-06
9.89799e-07
-3.44234e-06
3.38322e-07
-4.35196e-06
1.57344e-06
-1.88513e-06
-1.99837e-06
2.32824e-06
7.99114e-06
-8.70228e-06
7.20993e-06
-1.02836e-05
6.76878e-06
-7.66798e-06
6.08148e-06
-9.33595e-06
5.77567e-06
-7.23053e-06
5.22164e-06
-8.36963e-06
4.99324e-06
-6.49048e-06
4.3715e-06
-7.4485e-06
4.09327e-06
-5.87484e-06
3.51204e-06
-6.5786e-06
3.20259e-06
-5.36293e-06
2.44725e-06
-5.93914e-06
2.16275e-06
-4.95855e-06
1.30076e-06
-5.37371e-06
1.36136e-06
-4.21692e-06
6.78153e-07
-4.31201e-06
1.46451e-06
-3.25143e-06
-2.81175e-06
1.76459e-06
9.29243e-06
-1.01783e-05
8.22853e-06
-1.11515e-05
7.84502e-06
-9.13332e-06
6.92039e-06
-1.01729e-05
6.63246e-06
-8.60841e-06
5.88113e-06
-9.19024e-06
5.59237e-06
-7.68282e-06
4.82162e-06
-8.06308e-06
4.54669e-06
-6.88334e-06
3.80633e-06
-7.04976e-06
3.55979e-06
-6.23665e-06
2.86781e-06
-6.27689e-06
2.58553e-06
-5.62491e-06
1.91679e-06
-5.56813e-06
1.7936e-06
-4.87895e-06
1.3849e-06
-4.61475e-06
1.59245e-06
-4.09959e-06
-3.71745e-06
1.9221e-06
1.08941e-05
-1.19344e-05
9.94413e-06
-1.22968e-05
9.40259e-06
-1.05882e-05
8.49113e-06
-1.11628e-05
7.89319e-06
-9.80963e-06
7.00898e-06
-1.00064e-05
6.46543e-06
-8.74169e-06
5.65691e-06
-8.7579e-06
5.22102e-06
-7.84517e-06
4.50636e-06
-7.64482e-06
4.11167e-06
-7.05496e-06
3.45658e-06
-6.73805e-06
3.0788e-06
-6.27293e-06
2.54063e-06
-5.96476e-06
2.26755e-06
-5.45607e-06
1.99724e-06
-5.11335e-06
1.95749e-06
-4.75179e-06
-4.48155e-06
2.10066e-06
1.22596e-05
-1.3247e-05
1.11163e-05
-1.335e-05
1.06797e-05
-1.22451e-05
9.6169e-06
-1.20898e-05
9.13768e-06
-1.12149e-05
8.17585e-06
-1.0825e-05
7.62344e-06
-9.86961e-06
6.73098e-06
-9.44256e-06
6.1689e-06
-8.754e-06
5.42151e-06
-8.28115e-06
4.82303e-06
-7.73744e-06
4.19309e-06
-7.28989e-06
3.68923e-06
-6.848e-06
3.16158e-06
-6.4217e-06
2.8184e-06
-6.00847e-06
2.53853e-06
-5.64263e-06
2.3747e-06
-5.31467e-06
-5.04293e-06
2.28614e-06
1.43445e-05
-1.49357e-05
1.33776e-05
-1.45627e-05
1.26351e-05
-1.35857e-05
1.16142e-05
-1.30537e-05
1.07335e-05
-1.22173e-05
9.71869e-06
-1.15926e-05
8.94627e-06
-1.07813e-05
8.04466e-06
-1.0125e-05
7.27879e-06
-9.46839e-06
6.502e-06
-8.90202e-06
5.82417e-06
-8.35459e-06
5.17724e-06
-7.83817e-06
4.58489e-06
-7.35162e-06
4.05773e-06
-6.8911e-06
3.60721e-06
-6.46336e-06
3.22611e-06
-6.07853e-06
2.92835e-06
-5.74895e-06
-5.45543e-06
2.68904e-06
1.71684e-05
-1.60815e-05
1.59562e-05
-1.53378e-05
1.48387e-05
-1.43771e-05
1.36251e-05
-1.36655e-05
1.26091e-05
-1.2942e-05
1.15855e-05
-1.22249e-05
1.06924e-05
-1.1458e-05
9.78999e-06
-1.07067e-05
8.92283e-06
-9.99491e-06
8.05725e-06
-9.3557e-06
7.22553e-06
-8.74994e-06
6.45199e-06
-8.20062e-06
5.73902e-06
-7.68444e-06
5.11055e-06
-7.21123e-06
4.53636e-06
-6.74952e-06
4.03389e-06
-6.35095e-06
3.59759e-06
-6.00507e-06
-5.67695e-06
3.20683e-06
1.96196e-05
-1.64786e-05
1.85075e-05
-1.57452e-05
1.7364e-05
-1.47153e-05
1.61351e-05
-1.38709e-05
1.5025e-05
-1.3215e-05
1.39637e-05
-1.24942e-05
1.29526e-05
-1.17251e-05
1.19728e-05
-1.09515e-05
1.09918e-05
-1.01803e-05
1.00084e-05
-9.48178e-06
9.0546e-06
-8.83936e-06
8.15204e-06
-8.27132e-06
7.32545e-06
-7.75865e-06
6.55517e-06
-7.26735e-06
5.89891e-06
-6.83409e-06
5.29907e-06
-6.4171e-06
4.74674e-06
-6.04472e-06
-5.69939e-06
4.24887e-06
1.97169e-05
-1.58096e-05
1.86766e-05
-1.53531e-05
1.78512e-05
-1.45607e-05
1.7005e-05
-1.37067e-05
1.59753e-05
-1.28705e-05
1.48739e-05
-1.20822e-05
1.37786e-05
-1.13228e-05
1.27202e-05
-1.05867e-05
1.17047e-05
-9.85028e-06
1.07219e-05
-9.17024e-06
9.77167e-06
-8.53728e-06
8.86589e-06
-7.98175e-06
8.0019e-06
-7.4729e-06
7.23079e-06
-7.03141e-06
6.51077e-06
-6.60086e-06
5.86952e-06
-6.2097e-06
5.28836e-06
-5.84573e-06
-5.51334e-06
4.77166e-06
1.82038e-05
-1.48466e-05
1.7294e-05
-1.43166e-05
1.65076e-05
-1.37033e-05
1.57353e-05
-1.29181e-05
1.49066e-05
-1.20758e-05
1.40164e-05
-1.12793e-05
1.31023e-05
-1.05454e-05
1.21699e-05
-9.83784e-06
1.12714e-05
-9.17093e-06
1.04004e-05
-8.54341e-06
9.56547e-06
-7.963e-06
8.75898e-06
-7.43953e-06
7.98078e-06
-6.95465e-06
7.21845e-06
-6.51659e-06
6.50186e-06
-6.11332e-06
5.82393e-06
-5.7371e-06
5.19178e-06
-5.39166e-06
-5.07469e-06
4.60423e-06
1.64484e-05
-1.32103e-05
1.56567e-05
-1.28883e-05
1.48645e-05
-1.23571e-05
1.40852e-05
-1.1669e-05
1.33376e-05
-1.09399e-05
1.26177e-05
-1.02581e-05
1.18996e-05
-9.6061e-06
1.12061e-05
-8.99695e-06
1.05067e-05
-8.3879e-06
9.79302e-06
-7.79671e-06
9.06932e-06
-7.2468e-06
8.33539e-06
-6.74066e-06
7.60995e-06
-6.28208e-06
6.8956e-06
-5.86345e-06
6.19851e-06
-5.47825e-06
5.53996e-06
-5.13489e-06
4.9257e-06
-4.82372e-06
-4.55576e-06
4.37435e-06
1.49003e-05
-1.15889e-05
1.42679e-05
-1.1314e-05
1.36655e-05
-1.09122e-05
1.30834e-05
-1.03488e-05
1.24815e-05
-9.69881e-06
1.18425e-05
-9.08403e-06
1.11668e-05
-8.49483e-06
1.04739e-05
-7.95761e-06
9.77406e-06
-7.42126e-06
9.09258e-06
-6.91391e-06
8.41564e-06
-6.42221e-06
7.76886e-06
-5.98766e-06
7.13526e-06
-5.57277e-06
6.52861e-06
-5.20259e-06
5.9508e-06
-4.85853e-06
5.39855e-06
-4.54697e-06
4.87926e-06
-4.26903e-06
-4.00589e-06
4.36834e-06
1.2932e-05
-9.94594e-06
1.25661e-05
-9.8554e-06
1.21995e-05
-9.55306e-06
1.17919e-05
-9.06062e-06
1.13388e-05
-8.47534e-06
1.08151e-05
-7.9003e-06
1.02381e-05
-7.36535e-06
9.65116e-06
-6.91497e-06
9.06377e-06
-6.46373e-06
8.48798e-06
-6.0416e-06
7.92557e-06
-5.6235e-06
7.37794e-06
-5.25224e-06
6.84133e-06
-4.88591e-06
6.30902e-06
-4.54841e-06
5.78741e-06
-4.23457e-06
5.28527e-06
-3.9551e-06
4.80124e-06
-3.7021e-06
-3.48461e-06
4.36062e-06
1.15617e-05
-8.46726e-06
1.14111e-05
-8.5597e-06
1.11494e-05
-8.2469e-06
1.07853e-05
-7.76271e-06
1.03862e-05
-7.2544e-06
9.96343e-06
-6.76781e-06
9.50857e-06
-6.30778e-06
9.00175e-06
-5.90379e-06
8.45098e-06
-5.49493e-06
7.86829e-06
-5.11602e-06
7.29705e-06
-4.77215e-06
6.73719e-06
-4.46226e-06
6.20533e-06
-4.16518e-06
5.69573e-06
-3.88147e-06
5.22442e-06
-3.62942e-06
4.7849e-06
-3.39793e-06
4.38123e-06
-3.19156e-06
-3.01126e-06
4.00888e-06
1.03584e-05
-7.27634e-06
1.02433e-05
-7.31237e-06
1.00458e-05
-7.013e-06
9.80698e-06
-6.59443e-06
9.52536e-06
-6.15091e-06
9.21205e-06
-5.74158e-06
8.84126e-06
-5.32786e-06
8.3834e-06
-4.93194e-06
7.86816e-06
-4.55021e-06
7.31748e-06
-4.20902e-06
6.77837e-06
-3.93914e-06
6.23511e-06
-3.67254e-06
5.7389e-06
-3.46421e-06
5.288e-06
-3.25838e-06
4.86927e-06
-3.06309e-06
4.49422e-06
-2.89349e-06
4.13964e-06
-2.72007e-06
-2.58135e-06
3.81833e-06
9.42989e-06
-5.91067e-06
9.31621e-06
-6.11515e-06
9.18568e-06
-5.89012e-06
8.96274e-06
-5.48124e-06
8.64089e-06
-5.04021e-06
8.24273e-06
-4.65626e-06
7.83463e-06
-4.33081e-06
7.41134e-06
-4.00897e-06
7.00576e-06
-3.72485e-06
6.61769e-06
-3.4708e-06
6.22294e-06
-3.2532e-06
5.83903e-06
-3.04479e-06
5.44767e-06
-2.86802e-06
5.04912e-06
-2.68648e-06
4.66219e-06
-2.52686e-06
4.2611e-06
-2.36122e-06
3.89146e-06
-2.23239e-06
-2.11619e-06
3.53545e-06
8.50075e-06
-4.60335e-06
8.37795e-06
-4.98038e-06
8.26345e-06
-4.84802e-06
8.11431e-06
-4.4991e-06
7.91578e-06
-4.10343e-06
7.66131e-06
-3.75789e-06
7.31179e-06
-3.42827e-06
6.92686e-06
-3.15361e-06
6.52891e-06
-2.92999e-06
6.09546e-06
-2.7047e-06
5.66342e-06
-2.54322e-06
5.24259e-06
-2.39079e-06
4.81873e-06
-2.24796e-06
4.39117e-06
-2.09242e-06
3.98952e-06
-1.98183e-06
3.60835e-06
-1.85414e-06
3.25776e-06
-1.76894e-06
-1.67871e-06
2.92408e-06
7.51637e-06
-3.66226e-06
7.57109e-06
-4.10653e-06
7.47188e-06
-3.89751e-06
7.29546e-06
-3.55756e-06
7.07349e-06
-3.20256e-06
6.78787e-06
-2.87934e-06
6.41408e-06
-2.54432e-06
6.01164e-06
-2.31644e-06
5.56598e-06
-2.11701e-06
5.11492e-06
-1.94502e-06
4.65501e-06
-1.82476e-06
4.17788e-06
-1.69609e-06
3.71033e-06
-1.59741e-06
3.26818e-06
-1.49467e-06
2.81421e-06
-1.39375e-06
2.40473e-06
-1.32697e-06
1.9975e-06
-1.25683e-06
-1.18841e-06
1.60319e-06
6.86849e-06
-2.91417e-06
6.85543e-06
-3.24968e-06
6.58171e-06
-2.84954e-06
6.16444e-06
-2.44485e-06
5.71411e-06
-2.13547e-06
5.18849e-06
-1.81484e-06
4.68765e-06
-1.57901e-06
4.18068e-06
-1.41305e-06
3.67635e-06
-1.27696e-06
3.17112e-06
-1.15714e-06
2.65971e-06
-1.07586e-06
2.16666e-06
-1.00295e-06
1.66136e-06
-9.24073e-07
1.17351e-06
-8.6359e-07
7.11393e-07
-8.08065e-07
2.70051e-07
-7.77285e-07
-1.37925e-07
-7.52145e-07
-7.08888e-07
-5.29224e-07
5.7658e-06
-2.12478e-06
5.35473e-06
-2.08075e-06
4.68656e-06
-1.48397e-06
3.9599e-06
-1.09083e-06
3.20846e-06
-8.27923e-07
2.54111e-06
-6.61705e-07
1.95191e-06
-5.70798e-07
1.41536e-06
-5.18474e-07
9.20247e-07
-4.78158e-07
4.62156e-07
-4.42877e-07
1.62155e-08
-4.1431e-07
-4.12431e-07
-3.92672e-07
-8.13304e-07
-3.69984e-07
-1.19447e-06
-3.51777e-07
-1.55116e-06
-3.38395e-07
-1.88738e-06
-3.41915e-07
-2.18851e-06
-3.62145e-07
-3.51349e-07
-2.46564e-06
3.85912e-06
2.40849e-06
1.50888e-06
9.46013e-07
5.85342e-07
3.30307e-07
1.08445e-07
-1.13619e-07
-3.41823e-07
-5.74916e-07
-8.13385e-07
-1.05832e-06
-1.30366e-06
-1.54888e-06
-1.79469e-06
-2.05459e-06
-2.34246e-06
-2.62467e-06
1.49923e-07
-2.93267e-08
2.54294e-07
1.38462e-08
3.36795e-07
2.90757e-08
4.30358e-07
1.29707e-08
5.25959e-07
7.76094e-09
6.06549e-07
1.88665e-08
6.69495e-07
3.09079e-08
7.15923e-07
4.03928e-08
7.25255e-07
6.89279e-08
6.96253e-07
9.76831e-08
6.69628e-07
8.44389e-08
6.58646e-07
5.69146e-08
6.29382e-07
6.23166e-08
5.79109e-07
6.95037e-08
5.00805e-07
8.26595e-08
3.38776e-07
1.50784e-07
1.45856e-07
1.649e-07
-6.98306e-08
1.69772e-07
-3.2802e-07
1.93344e-07
-6.25722e-07
2.13038e-07
-1.00773e-06
2.7694e-07
-1.46814e-06
3.3363e-07
-1.99819e-06
3.79401e-07
-2.5566e-06
3.81295e-07
-3.09698e-06
3.34352e-07
-3.5316e-06
2.00445e-07
-3.81307e-06
1.96358e-08
-3.93653e-06
-1.66442e-07
-3.941e-06
-3.14795e-07
-3.89126e-06
-3.98982e-07
-3.80139e-06
-4.70067e-07
-3.6762e-06
-5.37321e-07
-3.52211e-06
-5.99895e-07
-3.34429e-06
-6.59596e-07
-3.12642e-06
-7.34262e-07
-2.89409e-06
-7.83897e-07
-2.64393e-06
-8.38133e-07
-2.37036e-06
-8.9953e-07
-2.09604e-06
-9.38391e-07
-1.80654e-06
-9.92117e-07
-1.48757e-06
-1.06049e-06
-1.14125e-06
-1.12728e-06
-7.80753e-07
-1.18184e-06
-4.35174e-07
-1.20842e-06
-7.05494e-08
-1.26942e-06
3.98223e-07
-1.41557e-06
9.96566e-07
-1.58795e-06
1.64401e-06
-1.6816e-06
2.24681e-06
-1.68362e-06
2.79847e-06
-1.68076e-06
3.47112e-06
-1.84939e-06
4.33282e-06
-2.08405e-06
5.2505e-06
-2.18866e-06
6.15055e-06
-2.22246e-06
7.04046e-06
-2.2646e-06
7.81175e-06
-2.2046e-06
8.41465e-06
-2.09383e-06
8.94852e-06
-2.07635e-06
9.43789e-06
-2.0988e-06
9.6965e-06
-1.94737e-06
9.67599e-06
-1.72325e-06
9.55096e-06
-1.65483e-06
9.50143e-06
-1.77797e-06
9.41181e-06
-1.79404e-06
9.21776e-06
-1.73894e-06
9.18585e-06
-1.95094e-06
9.31737e-06
-2.17936e-06
9.38819e-06
-2.19789e-06
9.36254e-06
-2.18275e-06
9.18929e-06
-2.10943e-06
8.96418e-06
-2.12276e-06
9.04485e-06
-2.48098e-06
9.9022e-06
-3.29779e-06
1.16233e-05
-4.2147e-06
1.37687e-05
-4.72032e-06
1.55965e-05
-4.53996e-06
1.63356e-05
-3.63092e-06
1.60682e-05
-2.71246e-06
1.51543e-05
-2.03386e-06
1.40438e-05
-1.80685e-06
1.37237e-05
-2.64002e-06
1.45717e-05
-3.88385e-06
1.60933e-05
-4.68934e-06
1.73552e-05
-4.67603e-06
1.79151e-05
-4.21336e-06
1.76455e-05
-3.412e-06
1.65417e-05
-2.49678e-06
1.48611e-05
-1.9274e-06
1.29059e-05
-1.79571e-06
1.09389e-05
-2.03791e-06
9.00699e-06
-2.32606e-06
7.25799e-06
-2.72667e-06
5.50565e-06
-2.95874e-06
3.59442e-06
-3.04809e-06
1.41116e-06
-3.00614e-06
-6.29115e-07
-3.33608e-06
-2.04338e-06
-4.15977e-06
-2.76696e-06
-5.05433e-06
-3.06863e-06
-5.73036e-06
-3.57597e-06
-5.7704e-06
-4.80449e-06
-5.22718e-06
-6.27232e-06
-5.04838e-06
-6.35284e-06
-6.42718e-06
-3.99932e-06
-8.93415e-06
-1.00816e-06
-9.78351e-06
-2.18779e-06
-5.92857e-06
-5.88661e-06
-3.53168e-06
-3.26794e-06
-9.39815e-06
-3.40302e-06
-7.06603e-06
-2.55391e-06
-7.86612e-06
-1.52444e-06
-8.04712e-06
-1.02281e-06
-7.4733e-06
-5.38793e-07
-7.41232e-06
-2.54426e-07
-7.17054e-06
3.95988e-08
-7.12335e-06
2.86148e-07
-7.03278e-06
4.43542e-07
-6.90018e-06
5.45241e-07
-6.80639e-06
6.74645e-07
-6.80737e-06
8.00681e-07
-6.78035e-06
9.66751e-07
-6.80658e-06
1.18827e-06
-6.87177e-06
1.45389e-06
-6.96014e-06
1.62673e-06
-6.92423e-06
1.70978e-06
-6.89213e-06
1.7184e-06
-6.8865e-06
1.70608e-06
-6.95822e-06
1.61579e-06
-6.96808e-06
1.51109e-06
-7.05387e-06
1.32855e-06
-7.10966e-06
1.1631e-06
-7.29022e-06
1.04523e-06
-7.5093e-06
9.85468e-07
-7.72864e-06
8.38149e-07
-7.84499e-06
5.61885e-07
-7.93185e-06
4.76044e-07
-8.2917e-06
8.78032e-07
-8.942e-06
1.53748e-06
-9.38778e-06
2.08298e-06
-9.4797e-06
2.19796e-06
-9.24006e-06
2.03203e-06
-9.16168e-06
1.57329e-06
-9.05748e-06
7.09446e-07
-8.78673e-06
-7.34208e-07
-8.30687e-06
-2.85991e-06
-7.69582e-06
-5.50706e-06
-7.21935e-06
-8.05002e-06
-7.31058e-06
-1.03769e-05
-7.4461e-06
-1.17476e-05
-8.26357e-06
-1.27047e-05
-8.45875e-06
-1.25704e-05
-9.35501e-06
-1.22252e-05
-9.2527e-06
-1.07885e-05
-1.01286e-05
-9.54619e-06
-9.60383e-06
-7.87869e-06
-9.81869e-06
-5.93687e-06
-9.90875e-06
-3.24241e-06
-1.06609e-05
-5.88073e-07
-1.07264e-05
2.34713e-06
-1.11854e-05
4.47807e-06
-1.07018e-05
9.05106e-06
-1.34127e-05
1.26304e-05
-1.31859e-05
1.49815e-05
-1.26119e-05
1.54421e-05
-1.14534e-05
1.40602e-05
-1.02683e-05
1.34685e-05
-1.16164e-05
1.20189e-05
-1.13174e-05
1.04825e-05
-1.15436e-05
8.98118e-06
-1.18129e-05
6.56745e-06
-1.10907e-05
3.70051e-06
-1.06619e-05
3.76979e-07
-1.00853e-05
-2.49675e-06
-1.03993e-05
-4.96332e-06
-1.05356e-05
-6.87542e-06
-1.08324e-05
-8.53285e-06
-1.07961e-05
-1.0272e-05
-1.03376e-05
-1.1826e-05
-1.00383e-05
-1.29463e-05
-9.88193e-06
-8.96947e-06
-1.44223e-05
6.72577e-08
1.79781e-08
8.30839e-08
1.05622e-07
8.04294e-08
1.29614e-07
4.41807e-08
1.43365e-07
4.97114e-10
1.44093e-07
-4.00541e-08
1.48477e-07
-1.09222e-07
1.83081e-07
-2.16856e-07
2.24931e-07
-2.97052e-07
2.18407e-07
-3.12844e-07
1.73847e-07
-3.45367e-07
1.66483e-07
-4.38648e-07
1.87936e-07
-5.3879e-07
1.87757e-07
-7.10275e-07
2.5252e-07
-9.72995e-07
3.42744e-07
-1.28061e-06
4.4108e-07
-1.68525e-06
5.35422e-07
-2.15947e-06
5.94613e-07
-2.74703e-06
7.12259e-07
-3.44333e-06
8.18525e-07
-4.18055e-06
9.01311e-07
-4.93064e-06
9.47715e-07
-5.58461e-06
8.72438e-07
-6.03447e-06
6.48324e-07
-6.25035e-06
3.43177e-07
-6.29663e-06
9.51478e-09
-6.19451e-06
-3.49956e-07
-6.04958e-06
-6.11249e-07
-5.88376e-06
-8.05916e-07
-5.709e-06
-9.25823e-07
-5.54635e-06
-1.01388e-06
-5.36197e-06
-1.13624e-06
-5.17787e-06
-1.23294e-06
-4.93404e-06
-1.38613e-06
-4.66541e-06
-1.5192e-06
-4.34444e-06
-1.6546e-06
-3.97825e-06
-1.78856e-06
-3.64927e-06
-1.85293e-06
-3.30732e-06
-1.93961e-06
-2.92725e-06
-2.06636e-06
-2.49867e-06
-2.21851e-06
-2.03103e-06
-2.36164e-06
-1.56765e-06
-2.45189e-06
-1.09673e-06
-2.52738e-06
-5.8921e-07
-2.66571e-06
3.12617e-08
-2.96545e-06
7.26265e-07
-3.25567e-06
1.46333e-06
-3.43543e-06
2.20711e-06
-3.48845e-06
2.99097e-06
-3.57533e-06
3.89815e-06
-3.91803e-06
4.93732e-06
-4.32246e-06
5.96768e-06
-4.46075e-06
6.97062e-06
-4.52215e-06
8.05468e-06
-4.68188e-06
9.12791e-06
-4.65558e-06
1.00633e-05
-4.49762e-06
1.09292e-05
-4.48276e-06
1.1756e-05
-4.48909e-06
1.25838e-05
-4.40394e-06
1.33908e-05
-4.26791e-06
1.41861e-05
-4.21967e-06
1.48212e-05
-4.19735e-06
1.49617e-05
-3.83597e-06
1.46822e-05
-3.46915e-06
1.402e-05
-3.29207e-06
1.31198e-05
-3.24426e-06
1.24083e-05
-3.47206e-06
1.20498e-05
-3.90717e-06
1.18107e-05
-4.1239e-06
1.15181e-05
-4.24822e-06
1.14753e-05
-4.91002e-06
1.22057e-05
-6.40799e-06
1.39601e-05
-8.27322e-06
1.62594e-05
-9.3889e-06
1.85489e-05
-9.34291e-06
2.04666e-05
-8.39332e-06
2.11523e-05
-6.60566e-06
2.0312e-05
-4.3613e-06
1.92378e-05
-3.76587e-06
1.90629e-05
-5.50881e-06
1.92612e-05
-7.09617e-06
1.85857e-05
-7.01883e-06
1.66368e-05
-5.91177e-06
1.38009e-05
-4.87333e-06
1.09134e-05
-4.17535e-06
8.42185e-06
-3.71811e-06
6.42618e-06
-3.75787e-06
4.87416e-06
-4.17494e-06
3.5047e-06
-4.72275e-06
2.43949e-06
-5.48433e-06
1.2225e-06
-5.94079e-06
-2.4831e-07
-6.15488e-06
-1.97923e-06
-6.21121e-06
-3.53335e-06
-6.54498e-06
-4.61395e-06
-7.4785e-06
-5.11109e-06
-9.08115e-06
-5.10945e-06
-1.07461e-05
-5.03067e-06
-1.17297e-05
-5.29716e-06
-1.15616e-05
-5.97739e-06
-1.07195e-05
-6.62589e-06
-1.06359e-05
-6.52583e-06
-1.28308e-05
-5.46922e-06
-1.64907e-05
-4.45575e-06
-1.74971e-05
-4.63201e-06
-1.2701e-05
-4.60783e-06
-1.03846e-05
-2.4009e-06
-1.77349e-05
-3.03023e-06
-1.32296e-05
-1.1245e-06
-1.61504e-05
-2.75219e-07
-1.53626e-05
3.26632e-07
-1.45258e-05
9.3502e-07
-1.44325e-05
1.49361e-06
-1.41086e-05
2.06719e-06
-1.40202e-05
2.60933e-06
-1.38661e-05
3.09449e-06
-1.36631e-05
3.508e-06
-1.34715e-05
3.95584e-06
-1.34548e-05
4.44474e-06
-1.34665e-05
4.97931e-06
-1.3508e-05
5.62968e-06
-1.36615e-05
6.38786e-06
-1.39045e-05
6.9287e-06
-1.37986e-05
7.37568e-06
-1.38366e-05
7.81986e-06
-1.40467e-05
8.15432e-06
-1.43233e-05
8.32491e-06
-1.45461e-05
8.33717e-06
-1.47799e-05
8.0453e-06
-1.47581e-05
7.75162e-06
-1.51257e-05
7.52156e-06
-1.56162e-05
7.07853e-06
-1.57462e-05
6.42921e-06
-1.58458e-05
5.66169e-06
-1.6112e-05
5.06575e-06
-1.67453e-05
5.08953e-06
-1.79478e-05
5.70893e-06
-1.9037e-05
6.49867e-06
-1.95365e-05
6.72613e-06
-1.89643e-05
6.19312e-06
-1.8317e-05
4.77849e-06
-1.75757e-05
2.08897e-06
-1.61875e-05
-1.784e-06
-1.46955e-05
-6.26986e-06
-1.36315e-05
-1.06501e-05
-1.33568e-05
-1.40368e-05
-1.44278e-05
-1.64846e-05
-1.53412e-05
-1.74835e-05
-1.7334e-05
-1.80937e-05
-1.75807e-05
-1.73034e-05
-1.95519e-05
-1.62936e-05
-1.92618e-05
-1.43483e-05
-2.07425e-05
-1.20557e-05
-2.02094e-05
-9.7863e-06
-2.00023e-05
-6.91626e-06
-2.05008e-05
-3.7728e-06
-2.11875e-05
-3.77264e-07
-2.15958e-05
2.95968e-06
-2.20899e-05
5.82379e-06
-2.16372e-05
1.08948e-05
-2.60711e-05
1.47588e-05
-2.56079e-05
1.7815e-05
-2.49852e-05
1.85859e-05
-2.24198e-05
1.74282e-05
-2.02238e-05
1.72358e-05
-2.27528e-05
1.62162e-05
-2.26019e-05
1.54116e-05
-2.33971e-05
1.47277e-05
-2.41902e-05
1.23745e-05
-2.23263e-05
9.24762e-06
-2.13522e-05
5.19984e-06
-1.98049e-05
1.78853e-06
-2.06601e-05
-1.17777e-06
-2.1194e-05
-3.46582e-06
-2.19724e-05
-5.52281e-06
-2.21708e-05
-7.5236e-06
-2.17442e-05
-9.1805e-06
-2.13644e-05
-1.08472e-05
-2.0413e-05
-1.83891e-05
-1.27769e-05
-1.90245e-08
1.39883e-07
-1.50149e-07
3.29339e-07
-2.73102e-07
3.3741e-07
-3.67019e-07
3.19682e-07
-4.52191e-07
3.08379e-07
-5.73104e-07
3.46126e-07
-6.93746e-07
3.74587e-07
-7.76706e-07
3.72343e-07
-8.07957e-07
3.05875e-07
-8.46182e-07
2.58979e-07
-9.43522e-07
3.04709e-07
-1.14252e-06
4.1895e-07
-1.48154e-06
5.43995e-07
-1.91838e-06
6.94196e-07
-2.36837e-06
7.82114e-07
-2.79085e-06
8.3956e-07
-3.29068e-06
9.95279e-07
-3.90203e-06
1.14492e-06
-4.59773e-06
1.33717e-06
-5.31577e-06
1.44825e-06
-5.95459e-06
1.42746e-06
-6.43924e-06
1.29997e-06
-6.75249e-06
1.02939e-06
-6.96899e-06
6.73836e-07
-7.01769e-06
1.75425e-07
-6.9624e-06
-2.98002e-07
-6.87936e-06
-7.16368e-07
-6.75789e-06
-1.02444e-06
-6.66684e-06
-1.20945e-06
-6.58166e-06
-1.34634e-06
-6.47443e-06
-1.4917e-06
-6.33454e-06
-1.68525e-06
-6.16483e-06
-1.84361e-06
-5.98317e-06
-2.04329e-06
-5.72736e-06
-2.28071e-06
-5.3965e-06
-2.52504e-06
-5.0417e-06
-2.71623e-06
-4.64726e-06
-2.85425e-06
-4.24223e-06
-2.98138e-06
-3.8662e-06
-3.11503e-06
-3.44098e-06
-3.35068e-06
-2.96609e-06
-3.58169e-06
-2.43675e-06
-3.76674e-06
-1.81484e-06
-3.9749e-06
-1.17606e-06
-4.16991e-06
-5.71417e-07
-4.47644e-06
1.89481e-08
-4.79359e-06
6.89632e-07
-5.08866e-06
1.51711e-06
-5.32918e-06
2.47373e-06
-5.58007e-06
3.40567e-06
-5.94916e-06
4.27363e-06
-6.33179e-06
5.13882e-06
-6.49877e-06
6.06861e-06
-6.68062e-06
6.99659e-06
-6.88774e-06
7.87237e-06
-6.83581e-06
8.86103e-06
-6.85595e-06
9.85362e-06
-6.93185e-06
1.06795e-05
-6.83095e-06
1.15239e-05
-6.7865e-06
1.25551e-05
-6.89616e-06
1.35765e-05
-6.93024e-06
1.44726e-05
-6.80973e-06
1.54463e-05
-6.58475e-06
1.64461e-05
-6.30861e-06
1.71428e-05
-5.8602e-06
1.70316e-05
-5.17572e-06
1.61389e-05
-4.66449e-06
1.51351e-05
-4.76996e-06
1.47714e-05
-5.61027e-06
1.45169e-05
-6.23424e-06
1.41508e-05
-7.11224e-06
1.43551e-05
-9.02338e-06
1.5438e-05
-1.14338e-05
1.70958e-05
-1.30719e-05
1.87409e-05
-1.32511e-05
1.99137e-05
-1.21744e-05
2.00864e-05
-9.69273e-06
1.99341e-05
-7.31043e-06
2.01581e-05
-7.15368e-06
1.96619e-05
-8.03217e-06
1.74472e-05
-7.74402e-06
1.40603e-05
-6.61235e-06
1.08535e-05
-5.88979e-06
8.14225e-06
-5.46034e-06
5.83264e-06
-5.28794e-06
4.22346e-06
-5.62834e-06
3.14583e-06
-6.23167e-06
2.4507e-06
-7.11418e-06
1.85357e-06
-7.92156e-06
1.15405e-06
-8.76e-06
3.77673e-07
-9.33113e-06
-6.00293e-07
-9.52423e-06
-1.62438e-06
-9.7149e-06
-2.49385e-06
-1.04546e-05
-3.16552e-06
-1.18458e-05
-3.70735e-06
-1.385e-05
-4.23341e-06
-1.5705e-05
-4.81701e-06
-1.66786e-05
-5.31634e-06
-1.66686e-05
-5.44308e-06
-1.63853e-05
-5.34051e-06
-1.6732e-05
-5.70972e-06
-1.85824e-05
-6.87607e-06
-2.13977e-05
-7.67376e-06
-2.25784e-05
-5.26816e-06
-2.10205e-05
-1.59205e-06
-1.99604e-05
-1.48226e-06
-2.38297e-05
-2.0489e-06
-1.88444e-05
4.64492e-07
-2.43175e-05
9.62021e-07
-2.16631e-05
1.26078e-06
-2.06851e-05
1.52432e-06
-2.0535e-05
1.93555e-06
-2.03411e-05
2.40762e-06
-2.02916e-05
2.97861e-06
-2.01743e-05
3.49163e-06
-1.99224e-05
3.79648e-06
-1.95328e-05
4.34619e-06
-1.9699e-05
4.94303e-06
-1.97973e-05
5.38056e-06
-1.96666e-05
5.96921e-06
-1.97515e-05
6.82513e-06
-2.00953e-05
7.54308e-06
-1.99407e-05
8.1709e-06
-1.98146e-05
8.66999e-06
-1.97526e-05
9.27479e-06
-2.01248e-05
1.00719e-05
-2.07767e-05
1.05335e-05
-2.12878e-05
1.0378e-05
-2.15997e-05
9.9001e-06
-2.21778e-05
9.83077e-06
-2.33263e-05
1.01317e-05
-2.42115e-05
9.59473e-06
-2.38833e-05
8.05797e-06
-2.35482e-05
6.61622e-06
-2.43835e-05
5.99474e-06
-2.61197e-05
6.0537e-06
-2.7646e-05
6.38939e-06
-2.86082e-05
6.40225e-06
-2.81548e-05
5.20058e-06
-2.65272e-05
2.45668e-06
-2.45154e-05
-1.56098e-06
-2.21681e-05
-6.31859e-06
-2.01911e-05
-1.06281e-05
-1.97668e-05
-1.397e-05
-2.03916e-05
-1.62287e-05
-2.22988e-05
-1.75218e-05
-2.38316e-05
-1.73606e-05
-2.68429e-05
-1.7037e-05
-2.68809e-05
-1.557e-05
-2.94919e-05
-1.38751e-05
-2.92152e-05
-1.13908e-05
-3.09189e-05
-8.75549e-06
-3.05087e-05
-6.33219e-06
-2.94893e-05
-3.0652e-06
-3.10028e-05
1.07716e-07
-3.15075e-05
3.04073e-06
-3.14642e-05
6.01638e-06
-3.1951e-05
8.87851e-06
-3.19143e-05
1.34372e-05
-3.75799e-05
1.71175e-05
-3.62989e-05
2.03264e-05
-3.5959e-05
2.08551e-05
-3.19966e-05
1.90052e-05
-2.83771e-05
1.88561e-05
-3.20629e-05
1.79822e-05
-3.19229e-05
1.76752e-05
-3.34141e-05
1.76385e-05
-3.45631e-05
1.61215e-05
-3.21229e-05
1.37298e-05
-3.10044e-05
9.99317e-06
-2.87731e-05
6.87108e-06
-2.96121e-05
3.57435e-06
-3.0008e-05
9.44353e-07
-3.11572e-05
-1.24899e-06
-3.18182e-05
-3.64556e-06
-3.16514e-05
-5.80267e-06
-3.1664e-05
-7.74462e-06
-3.04321e-05
-2.69331e-05
-1.03762e-05
4.82073e-08
1.78494e-07
-5.06201e-08
5.0228e-07
-1.1532e-07
4.69445e-07
-7.12171e-08
3.42444e-07
9.44996e-10
2.98514e-07
2.43152e-08
3.8187e-07
1.42419e-08
4.41436e-07
-1.37672e-08
4.52851e-07
-1.86769e-07
5.25123e-07
-6.17425e-07
7.27619e-07
-1.21882e-06
9.31385e-07
-1.82771e-06
1.04191e-06
-2.44594e-06
1.17113e-06
-2.99797e-06
1.23769e-06
-3.46844e-06
1.23124e-06
-3.94014e-06
1.27917e-06
-4.38681e-06
1.38908e-06
-4.84479e-06
1.53507e-06
-5.32051e-06
1.7247e-06
-5.81497e-06
1.8359e-06
-6.30006e-06
1.79861e-06
-6.72912e-06
1.58005e-06
-7.0464e-06
1.17187e-06
-7.28252e-06
7.08114e-07
-7.52192e-06
1.57205e-07
-7.70358e-06
-3.87521e-07
-7.81639e-06
-8.69369e-07
-7.8949e-06
-1.22241e-06
-7.95779e-06
-1.43575e-06
-7.94543e-06
-1.68975e-06
-7.86491e-06
-1.95533e-06
-7.71846e-06
-2.25179e-06
-7.47442e-06
-2.53913e-06
-7.21597e-06
-2.77768e-06
-6.86248e-06
-3.14942e-06
-6.45609e-06
-3.47948e-06
-5.99175e-06
-3.76544e-06
-5.47877e-06
-3.98265e-06
-4.94402e-06
-4.16145e-06
-4.37056e-06
-4.36745e-06
-3.82177e-06
-4.62294e-06
-3.28753e-06
-4.88105e-06
-2.6858e-06
-5.17166e-06
-2.05661e-06
-5.44004e-06
-1.37202e-06
-5.72218e-06
-7.12042e-07
-6.03399e-06
-3.55648e-08
-6.40111e-06
6.65625e-07
-6.75198e-06
1.43282e-06
-7.09064e-06
2.25114e-06
-7.41482e-06
3.03865e-06
-7.78142e-06
3.78688e-06
-8.15933e-06
4.6486e-06
-8.45645e-06
5.56985e-06
-8.72267e-06
6.37547e-06
-8.882e-06
7.0986e-06
-8.80075e-06
7.91358e-06
-8.95079e-06
8.69798e-06
-9.05888e-06
9.34989e-06
-8.90443e-06
1.02394e-05
-9.15287e-06
1.12688e-05
-9.43377e-06
1.21964e-05
-9.44694e-06
1.33631e-05
-9.61351e-06
1.45982e-05
-9.44864e-06
1.54598e-05
-8.88223e-06
1.63384e-05
-8.4801e-06
1.75259e-05
-8.11986e-06
1.8194e-05
-7.34442e-06
1.81717e-05
-6.82478e-06
1.78612e-05
-7.05728e-06
1.73997e-05
-7.59867e-06
1.68211e-05
-8.84863e-06
1.66059e-05
-1.11587e-05
1.68709e-05
-1.37019e-05
1.74015e-05
-1.5464e-05
1.78725e-05
-1.57079e-05
1.78599e-05
-1.44467e-05
1.76513e-05
-1.2145e-05
1.77225e-05
-1.02745e-05
1.69273e-05
-9.18044e-06
1.44609e-05
-8.28498e-06
1.14923e-05
-7.58857e-06
8.99423e-06
-7.02174e-06
6.93142e-06
-6.75675e-06
5.22191e-06
-6.75638e-06
3.9706e-06
-7.15934e-06
3.09453e-06
-7.93458e-06
2.51689e-06
-8.9124e-06
1.977e-06
-9.97581e-06
1.39052e-06
-1.0896e-05
6.10908e-07
-1.17306e-05
-3.50895e-07
-1.23333e-05
-1.15132e-06
-1.28775e-05
-1.59379e-06
-1.36218e-05
-1.85608e-06
-1.4772e-05
-2.1171e-06
-1.63599e-05