/*--------------------------------*- C++ -*----------------------------------*\
| =========                 |                                                 |
| \\      /  F ield         | OpenFOAM: The Open Source CFD Toolbox           |
|  \\    /   O peration     | Version:  dev                                   |
|   \\  /    A nd           | Web:      http://www.openfoam.org               |
|    \\/     M anipulation  |                                                 |
\*---------------------------------------------------------------------------*/
FoamFile
{
    version     2.0;
    format      ascii;
    class       volScalarField;
    object      rho;
    location    "9.129";
}
// * * * * * * * * * * * * * * * * * * * * * * * * * * * * * * * * * * * * * //

dimensions      [1 -3 0 0 0 0 0];

internalField   nonuniform List<scalar> 
12225
(
1.19445
1.19485
1.19471
1.19332
1.1923
1.19022
1.18824
1.18559
1.18272
1.17951
1.17593
1.17233
1.16816
1.16472
1.16082
1.15732
1.14927
1.143
1.19372
1.19754
1.1986
1.19731
1.19595
1.19432
1.19178
1.18961
1.18624
1.18337
1.17943
1.17617
1.17193
1.1689
1.16627
1.16246
1.15358
1.14781
1.19377
1.19853
1.19979
1.1987
1.19767
1.19585
1.19387
1.19113
1.18871
1.18491
1.18196
1.17796
1.17468
1.17063
1.1673
1.16207
1.15715
1.15381
1.19424
1.19798
1.20051
1.19839
1.19873
1.19553
1.19518
1.19069
1.19
1.18483
1.18296
1.17815
1.17546
1.17035
1.16726
1.16161
1.1593
1.15548
1.19524
1.19774
1.20041
1.19806
1.1981
1.19548
1.19468
1.19121
1.18976
1.18558
1.18306
1.17893
1.17578
1.17123
1.16802
1.16191
1.16086
1.1553
1.19532
1.19791
1.20016
1.19826
1.19767
1.19586
1.19427
1.19175
1.18929
1.18577
1.1826
1.17896
1.17543
1.17175
1.16765
1.16384
1.161
1.15724
1.19527
1.19801
1.20011
1.1984
1.19774
1.19613
1.19432
1.19182
1.1894
1.18568
1.18278
1.17888
1.17576
1.17133
1.16783
1.16407
1.16056
1.15855
1.19486
1.19819
1.19997
1.19871
1.19734
1.19628
1.19403
1.192
1.18927
1.18625
1.18275
1.17911
1.1758
1.17165
1.16808
1.16377
1.16111
1.157
1.19479
1.19795
1.19971
1.19857
1.19747
1.1961
1.19406
1.19176
1.18943
1.18667
1.18304
1.17914
1.17563
1.17173
1.16832
1.16444
1.16121
1.15728
1.19478
1.1977
1.19936
1.1983
1.19754
1.19612
1.19376
1.19155
1.1893
1.18678
1.18354
1.17943
1.17603
1.1722
1.16905
1.16552
1.16193
1.15858
1.19435
1.19761
1.19947
1.1984
1.19772
1.19616
1.19389
1.19176
1.18904
1.18638
1.18306
1.17938
1.17609
1.17274
1.16965
1.16609
1.16306
1.1596
1.1939
1.19744
1.19946
1.19822
1.19726
1.19557
1.19363
1.19134
1.18867
1.18613
1.18295
1.17962
1.17603
1.17266
1.16952
1.16617
1.16303
1.15958
1.19329
1.19708
1.19827
1.19745
1.1964
1.195
1.19309
1.19076
1.18793
1.18537
1.18212
1.17908
1.17572
1.17241
1.16896
1.16573
1.16262
1.15938
1.19335
1.19711
1.19784
1.19702
1.19591
1.19443
1.19249
1.1903
1.18761
1.18477
1.18158
1.17852
1.17506
1.17179
1.16841
1.16518
1.16183
1.15874
1.19292
1.19658
1.19722
1.19629
1.19494
1.19345
1.19162
1.18935
1.1868
1.18397
1.18092
1.17784
1.17454
1.17127
1.1679
1.16462
1.16137
1.15852
1.19276
1.19587
1.19637
1.19549
1.1943
1.19278
1.19081
1.18842
1.18574
1.18284
1.1798
1.17662
1.17342
1.17014
1.16689
1.16372
1.16043
1.15729
1.19259
1.19557
1.19614
1.19501
1.19355
1.19172
1.18956
1.18706
1.18432
1.18141
1.17834
1.17523
1.17203
1.16878
1.16554
1.16227
1.15916
1.15613
1.19206
1.19455
1.19509
1.19388
1.1925
1.1906
1.18845
1.18591
1.18312
1.18018
1.17702
1.17385
1.17054
1.16732
1.16403
1.16086
1.15773
1.15478
1.19154
1.19367
1.19425
1.19289
1.19152
1.18958
1.18745
1.18494
1.18209
1.17902
1.17583
1.17257
1.16935
1.16621
1.163
1.16004
1.15694
1.15417
1.19133
1.19286
1.19346
1.19212
1.19075
1.18879
1.18641
1.18388
1.18091
1.17787
1.17477
1.17154
1.16851
1.16528
1.16224
1.15923
1.15626
1.15357
1.19112
1.1926
1.19321
1.1917
1.1901
1.18817
1.18568
1.18302
1.18004
1.17702
1.17393
1.17081
1.16779
1.16461
1.16169
1.15869
1.15596
1.15332
1.19055
1.19193
1.1925
1.19126
1.1896
1.18764
1.18527
1.18245
1.17966
1.17655
1.17348
1.17037
1.1672
1.1642
1.16112
1.15833
1.15555
1.15308
1.19039
1.19172
1.19227
1.19099
1.18939
1.18727
1.18483
1.18207
1.1791
1.17604
1.1729
1.16975
1.16669
1.16362
1.1607
1.15787
1.15522
1.15271
1.19015
1.19163
1.19214
1.19073
1.18908
1.18693
1.1845
1.18173
1.17872
1.17562
1.17242
1.16933
1.16632
1.16333
1.16051
1.15773
1.15514
1.1527
1.19034
1.19162
1.19208
1.19056
1.18874
1.18671
1.18428
1.18151
1.17856
1.17535
1.17214
1.16893
1.16581
1.16286
1.16
1.15738
1.15485
1.15256
1.19022
1.19137
1.19186
1.19039
1.1887
1.18655
1.18407
1.18123
1.17819
1.17505
1.17184
1.16871
1.16564
1.1627
1.15992
1.15727
1.15482
1.15255
1.1903
1.19136
1.19177
1.1903
1.18859
1.18644
1.18398
1.18114
1.17812
1.17491
1.17172
1.16855
1.16555
1.1627
1.16005
1.15759
1.15535
1.15335
1.19024
1.19136
1.1919
1.19042
1.18857
1.18627
1.1837
1.18076
1.17773
1.17453
1.17144
1.16837
1.1656
1.16294
1.16061
1.15841
1.15657
1.15492
1.19048
1.19115
1.19133
1.18974
1.18775
1.18532
1.18256
1.17955
1.17647
1.17337
1.17037
1.16746
1.16477
1.16219
1.15986
1.15762
1.15576
1.15398
1.19158
1.18995
1.18905
1.187
1.18475
1.18222
1.17943
1.17643
1.17335
1.17022
1.16713
1.16408
1.16114
1.15829
1.15558
1.15301
1.15071
1.14871
1.099
1.13215
1.13231
1.12485
1.12051
1.11893
1.11775
1.1166
1.1146
1.11231
1.10932
1.10608
1.10295
1.10019
1.09783
1.09555
1.09377
1.09282
1.09232
1.09181
1.09097
1.08999
1.08965
1.09059
1.09287
1.09585
1.09864
1.10096
1.10288
1.10461
1.10627
1.10788
1.10957
1.11139
1.11331
1.1153
1.11733
1.11938
1.12145
1.12356
1.1257
1.12792
1.13023
1.13267
1.1352
1.13768
1.14026
1.14324
1.14661
1.15018
1.15355
1.15668
1.16024
1.16385
1.16746
1.17095
1.17398
1.17753
1.18085
1.18136
1.18041
1.18153
1.18518
1.19006
1.19558
1.20211
1.20959
1.21696
1.22365
1.22986
1.23589
1.24175
1.24887
1.25856
1.27013
1.28146
1.28564
1.28141
1.27792
1.28392
1.29526
1.30718
1.31983
1.32804
1.32232
1.3106
1.3123
1.32709
1.34891
1.36841
1.37776
1.3857
1.39477
1.40157
1.40545
1.40513
1.40093
1.39889
1.40463
1.41548
1.42094
1.41078
1.38563
1.36385
1.36735
1.4076
1.45542
1.40336
1.43833
1.42253
1.42277
1.42016
1.41846
1.41747
1.4148
1.41305
1.41052
1.40838
1.40654
1.4043
1.40143
1.39867
1.39535
1.39174
1.38619
1.37939
1.37477
1.37078
1.36944
1.36923
1.36955
1.37054
1.37216
1.37621
1.37825
1.37986
1.38393
1.38788
1.39119
1.3941
1.39882
1.4023
1.40337
1.40432
1.40643
1.41235
1.42151
1.42977
1.44119
1.44662
1.46165
1.46661
1.48212
1.48411
1.49631
1.49863
1.51751
1.52924
1.53065
1.5312
1.533
1.5389
1.53546
1.53327
1.52789
1.52106
1.51324
1.50203
1.49223
1.48018
1.47251
1.46356
1.45984
1.4511
1.45054
1.44622
1.43687
1.42595
1.41133
1.40244
1.10239
1.13821
1.12599
1.11444
1.11525
1.11818
1.11821
1.11772
1.11397
1.11007
1.10693
1.10685
1.10826
1.10891
1.11037
1.11012
1.10974
1.10894
1.10623
1.10588
1.10541
1.10596
1.10636
1.10758
1.10742
1.10814
1.1092
1.11055
1.11274
1.11304
1.11406
1.11473
1.11641
1.11835
1.12041
1.12252
1.12469
1.12693
1.12909
1.13092
1.13239
1.13405
1.13647
1.13997
1.14288
1.14414
1.14579
1.14968
1.15564
1.16185
1.1642
1.16415
1.16797
1.17282
1.17674
1.18431
1.19124
1.19173
1.19403
1.20096
1.20215
1.20046
1.20631
1.21236
1.20878
1.20576
1.21436
1.22984
1.24514
1.25599
1.25895
1.25393
1.25129
1.26393
1.28659
1.31367
1.33848
1.33344
1.31664
1.31738
1.31904
1.32456
1.34745
1.38008
1.39754
1.39951
1.41133
1.41863
1.41159
1.4103
1.41656
1.42474
1.4369
1.44605
1.43818
1.41434
1.39141
1.38895
1.40335
1.41728
1.42287
1.41077
1.37865
1.35562
1.372
1.43239
1.48307
1.3403
1.42573
1.38965
1.39577
1.3939
1.39571
1.4
1.40152
1.40745
1.41213
1.41774
1.42437
1.43319
1.4371
1.44513
1.46061
1.47519
1.48396
1.49099
1.49808
1.49494
1.48592
1.48187
1.4817
1.47966
1.47024
1.47349
1.48062
1.47146
1.4603
1.45975
1.46521
1.46785
1.47332
1.4786
1.47846
1.48295
1.49526
1.51374
1.52913
1.5393
1.54893
1.5485
1.56448
1.55879
1.57542
1.56364
1.56044
1.54144
1.54495
1.56535
1.55821
1.56054
1.51942
1.55947
1.55845
1.57201
1.58219
1.57018
1.58876
1.57892
1.57791
1.57368
1.57223
1.56538
1.57193
1.56832
1.57923
1.59883
1.60817
1.59598
1.55859
1.52355
1.09478
1.12152
1.10672
1.10434
1.10863
1.11072
1.10699
1.10841
1.11055
1.11658
1.12301
1.12067
1.11824
1.11883
1.11588
1.11678
1.11288
1.11222
1.11177
1.10721
1.10623
1.1043
1.10243
1.10191
1.10365
1.10391
1.10823
1.10968
1.10777
1.10738
1.10457
1.10627
1.10644
1.10842
1.11027
1.11186
1.1141
1.11596
1.11732
1.1177
1.11753
1.11815
1.1204
1.12459
1.12865
1.13142
1.13545
1.14081
1.14625
1.15114
1.15244
1.15199
1.15802
1.16516
1.16695
1.17324
1.1826
1.18508
1.18642
1.19107
1.19714
1.19885
1.20216
1.20694
1.20792
1.21723
1.223
1.2156
1.22256
1.25299
1.27375
1.26061
1.23678
1.2447
1.2821
1.32365
1.35055
1.35952
1.35738
1.34106
1.32868
1.34733
1.38301
1.39749
1.39835
1.40544
1.39982
1.37422
1.36208
1.36937
1.37722
1.38486
1.39419
1.3998
1.40126
1.39859
1.3957
1.39688
1.39332
1.38114
1.37297
1.37068
1.36917
1.36343
1.35526
1.37042
1.39484
1.31133
1.3729
1.32841
1.33866
1.33897
1.33844
1.3389
1.33719
1.33889
1.34302
1.34441
1.34093
1.34356
1.34019
1.33881
1.34578
1.3607
1.37641
1.4017
1.43732
1.48122
1.51763
1.53913
1.54269
1.54299
1.53637
1.54278
1.55424
1.53179
1.49201
1.4754
1.48408
1.4929
1.49637
1.50827
1.51543
1.53426
1.55286
1.56488
1.57253
1.56997
1.56356
1.54872
1.54907
1.54106
1.54378
1.55023
1.53038
1.52251
1.47826
1.4866
1.47746
1.49126
1.41561
1.46641
1.46996
1.4895
1.49564
1.45932
1.50932
1.49432
1.50817
1.53759
1.55089
1.54722
1.55063
1.5732
1.57942
1.61404
1.66388
1.68226
1.66085
1.60904
1.08742
1.11373
1.10398
1.10409
1.10153
1.10308
1.10888
1.11749
1.12745
1.13195
1.12422
1.12214
1.11924
1.11516
1.11625
1.11205
1.11031
1.11
1.10727
1.10748
1.10529
1.10208
1.10559
1.10461
1.10953
1.11775
1.11846
1.1171
1.11347
1.10889
1.10882
1.10979
1.11182
1.11199
1.11316
1.11555
1.11714
1.1203
1.12127
1.12172
1.12159
1.12251
1.12458
1.12847
1.13329
1.13692
1.13998
1.14146
1.14211
1.14316
1.14712
1.15095
1.15517
1.16005
1.16455
1.17114
1.17766
1.18147
1.18954
1.19133
1.18987
1.19813
1.19848
1.19847
1.21155
1.21397
1.22021
1.22975
1.21938
1.22392
1.25464
1.26215
1.23817
1.24121
1.27989
1.32451
1.35724
1.36901
1.3547
1.3392
1.3557
1.38516
1.39053
1.38066
1.38831
1.39764
1.38166
1.36448
1.37078
1.3836
1.39117
1.39757
1.39863
1.39601
1.39693
1.39962
1.39917
1.39038
1.37891
1.37421
1.37797
1.37688
1.35962
1.32789
1.30357
1.31581
1.33333
1.29691
1.35192
1.29212
1.30658
1.31442
1.3178
1.32369
1.32933
1.33193
1.34182
1.3514
1.3536
1.36873
1.37281
1.35197
1.34301
1.36148
1.35351
1.33592
1.33341
1.34804
1.39155
1.47195
1.50865
1.51269
1.53553
1.56962
1.58566
1.55676
1.50432
1.47215
1.47953
1.50534
1.51505
1.52931
1.55088
1.56919
1.59212
1.59438
1.585
1.57741
1.5668
1.55567
1.54059
1.54816
1.52699
1.54953
1.5136
1.53367
1.52946
1.51009
1.48629
1.4877
1.41758
1.42264
1.42596
1.47988
1.47548
1.40825
1.44308
1.40818
1.41255
1.44867
1.47874
1.53053
1.49209
1.51001
1.51621
1.55037
1.61613
1.66125
1.65464
1.64224
1.08308
1.10994
1.10414
1.10346
1.10331
1.11111
1.11856
1.12762
1.1341
1.13021
1.1229
1.11766
1.12193
1.12057
1.11448
1.11493
1.11313
1.11015
1.10839
1.10385
1.10582
1.10662
1.1058
1.11086
1.11701
1.11812
1.11907
1.1174
1.1118
1.114
1.11697
1.11795
1.1216
1.11982
1.1213
1.12285
1.12584
1.12689
1.1296
1.13064
1.13234
1.134
1.13529
1.13635
1.13825
1.13859
1.14066
1.14244
1.1445
1.14398
1.14333
1.14269
1.14224
1.14456
1.15476
1.1641
1.16795
1.17649
1.18414
1.18034
1.18812
1.19928
1.19112
1.19788
1.21083
1.19993
1.20692
1.22963
1.22879
1.22294
1.24835
1.25711
1.23321
1.24204
1.28321
1.31855
1.34089
1.34868
1.35073
1.36417
1.38149
1.37833
1.36023
1.35978
1.37767
1.37716
1.35669
1.348
1.35366
1.35978
1.36926
1.382
1.39064
1.39567
1.39663
1.39163
1.3799
1.36267
1.35158
1.34771
1.34706
1.34593
1.342
1.34496
1.34333
1.31148
1.27484
1.30253
1.26931
1.2757
1.27822
1.27311
1.27624
1.28275
1.28809
1.28266
1.27529
1.29463
1.30206
1.3009
1.33191
1.34345
1.33434
1.35508
1.35273
1.3563
1.34752
1.31798
1.32068
1.39294
1.44786
1.44395
1.46215
1.52642
1.58505
1.56339
1.50762
1.47556
1.47823
1.50247
1.53237
1.54784
1.57251
1.58554
1.58272
1.57768
1.57221
1.56149
1.54644
1.56241
1.53525
1.54857
1.52542
1.56013
1.55434
1.52797
1.52783
1.52341
1.51139
1.49843
1.45706
1.41606
1.35698
1.44198
1.49877
1.44109
1.43332
1.36395
1.33505
1.40721
1.40154
1.48658
1.46802
1.46629
1.44504
1.46561
1.52521
1.61415
1.61776
1.62779
1.08066
1.10437
1.09836
1.10026
1.10373
1.11695
1.12704
1.12064
1.11753
1.11877
1.12423
1.12964
1.12079
1.11816
1.11504
1.11409
1.11627
1.11208
1.11047
1.10756
1.10545
1.10341
1.10421
1.11111
1.11388
1.12216
1.12593
1.12444
1.12782
1.13018
1.13438
1.13974
1.14179
1.1445
1.14663
1.14737
1.14924
1.1503
1.15143
1.15247
1.15312
1.1538
1.15398
1.15436
1.15458
1.15496
1.15712
1.16034
1.1637
1.16191
1.15763
1.15435
1.15046
1.14466
1.14617
1.15083
1.15807
1.16666
1.16883
1.17217
1.18313
1.18691
1.18302
1.19388
1.21021
1.20174
1.19689
1.22266
1.22289
1.21194
1.2457
1.24691
1.22315
1.25057
1.30563
1.33706
1.35009
1.35676
1.36661
1.37668
1.36991
1.3461
1.33546
1.35107
1.36315
1.3499
1.33451
1.33793
1.348
1.36048
1.37814
1.39213
1.39812
1.39845
1.39294
1.38619
1.37972
1.37466
1.37255
1.3681
1.36145
1.35828
1.35617
1.36424
1.36954
1.3659
1.34557
1.30778
1.28729
1.29351
1.31171
1.30195
1.30946
1.32372
1.32806
1.32436
1.31178
1.29635
1.31527
1.29947
1.283
1.30401
1.27913
1.29247
1.32306
1.33306
1.36255
1.34461
1.28707
1.32065
1.40564
1.39862
1.3852
1.44609
1.5375
1.56575
1.51519
1.47276
1.47509
1.49754
1.52766
1.55606
1.56883
1.57262
1.57502
1.57376
1.5457
1.52965
1.5018
1.54063
1.5116
1.52594
1.50507
1.5106
1.53507
1.50968
1.50426
1.51854
1.53055
1.45552
1.4274
1.45203
1.35856
1.3613
1.49282
1.50163
1.45125
1.36099
1.25905
1.34343
1.37786
1.44642
1.44955
1.45832
1.4081
1.40356
1.41929
1.52432
1.58107
1.60113
1.0802
1.10201
1.09818
1.11094
1.12007
1.12371
1.13639
1.14273
1.13599
1.13616
1.12513
1.11841
1.11298
1.10971
1.11147
1.11352
1.11809
1.11482
1.11304
1.11149
1.1093
1.11141
1.11064
1.11338
1.11579
1.11948
1.12028
1.12355
1.1314
1.13539
1.13818
1.14298
1.14588
1.14948
1.15043
1.15338
1.15551
1.1597
1.16536
1.17002
1.17303
1.17566
1.17587
1.17686
1.17686
1.17778
1.17649
1.17562
1.18048
1.18066
1.1728
1.17136
1.1714
1.15705
1.14252
1.14075
1.14922
1.15991
1.16386
1.16685
1.17414
1.17682
1.18354
1.20341
1.21489
1.19466
1.1912
1.21529
1.20805
1.22018
1.24847
1.22755
1.22836
1.27678
1.32289
1.34208
1.35256
1.36289
1.36796
1.35889
1.33528
1.3181
1.32344
1.33484
1.32754
1.31227
1.31414
1.3279
1.33733
1.34984
1.36557
1.37331
1.37459
1.37332
1.36958
1.36754
1.36532
1.3606
1.35786
1.36154
1.37067
1.38529
1.38523
1.37595
1.34776
1.31794
1.30731
1.30477
1.28898
1.25182
1.27287
1.28133
1.29083
1.30014
1.3244
1.3192
1.33245
1.33411
1.32042
1.3359
1.31827
1.31424
1.31334
1.27973
1.2611
1.27269
1.31046
1.36132
1.32931
1.28377
1.35391
1.39085
1.34066
1.36585
1.46573
1.53747
1.51745
1.47109
1.46145
1.49103
1.51771
1.5451
1.55931
1.5626
1.55111
1.51764
1.47713
1.4696
1.43913
1.49269
1.48733
1.47254
1.4224
1.46121
1.52402
1.47849
1.43231
1.44867
1.48153
1.40397
1.36678
1.40874
1.39625
1.33343
1.43255
1.4983
1.436
1.35398
1.2807
1.30304
1.36317
1.4276
1.42755
1.45113
1.39693
1.38251
1.35313
1.40591
1.50883
1.56642
1.08024
1.10133
1.09953
1.11927
1.13892
1.13604
1.12781
1.12848
1.12221
1.12143
1.13098
1.12473
1.12108
1.11783
1.1169
1.11833
1.11969
1.11849
1.12143
1.12211
1.11768
1.11411
1.11127
1.11314
1.11456
1.11635
1.1203
1.12463
1.12974
1.13874
1.14196
1.14158
1.14074
1.14055
1.13864
1.13702
1.13674
1.13947
1.14567
1.15434
1.16189
1.17119
1.17814
1.18054
1.18014
1.17855
1.17537
1.16758
1.16876
1.17926
1.17108
1.16269
1.17182
1.17294
1.15761
1.14723
1.14695
1.15747
1.16172
1.16468
1.17156
1.17133
1.18091
1.20016
1.20113
1.19724
1.2106
1.20859
1.1911
1.21638
1.23335
1.21714
1.23466
1.28492
1.32469
1.34232
1.34863
1.35215
1.34643
1.32801
1.30792
1.30216
1.30783
1.30423
1.29362
1.29626
1.31126
1.31679
1.31698
1.32768
1.33822
1.33844
1.33887
1.33922
1.33778
1.34014
1.34228
1.3402
1.33851
1.33749
1.33047
1.32753
1.31456
1.31446
1.33674
1.34741
1.32508
1.32769
1.28014
1.26568
1.24966
1.27273
1.29006
1.29909
1.30522
1.31722
1.31807
1.3352
1.34463
1.34666
1.3392
1.31958
1.31474
1.33694
1.30569
1.2595
1.24513
1.2894
1.33339
1.29579
1.29713
1.36308
1.33971
1.31283
1.38538
1.4812
1.49463
1.45972
1.44467
1.47207
1.50706
1.53314
1.54277
1.55052
1.54576
1.51212
1.45825
1.45032
1.44568
1.44843
1.4668
1.46701
1.3901
1.39554
1.44362
1.40419
1.36194
1.40988
1.4171
1.28939
1.33544
1.38332
1.35543
1.33265
1.38859
1.43825
1.36672
1.27623
1.30708
1.35053
1.39491
1.45303
1.43309
1.43873
1.38347
1.37095
1.34222
1.3211
1.39687
1.51289
1.08182
1.10488
1.10385
1.11716
1.13735
1.13861
1.13062
1.1282
1.13444
1.12874
1.12537
1.11361
1.10438
1.10447
1.10897
1.10957
1.11103
1.1153
1.11965
1.12236
1.12354
1.12307
1.12075
1.11691
1.11559
1.11461
1.12042
1.13217
1.13782
1.14213
1.1422
1.14003
1.13811
1.13653
1.13675
1.13762
1.13871
1.14073
1.14317
1.14675
1.14877
1.15116
1.15719
1.16242
1.16663
1.16661
1.16682
1.16301
1.15571
1.16562
1.16886
1.15507
1.15493
1.16652
1.15968
1.14728
1.13519
1.14368
1.14982
1.16162
1.17189
1.17151
1.17489
1.19196
1.19516
1.20643
1.22439
1.20546
1.19126
1.21948
1.22298
1.21153
1.23972
1.29161
1.32685
1.33878
1.338
1.33214
1.3196
1.30162
1.2907
1.29399
1.29341
1.28194
1.27747
1.28669
1.28742
1.27632
1.27733
1.29051
1.29497
1.29395
1.29907
1.30117
1.30202
1.30775
1.31086
1.30884
1.30987
1.30901
1.30042
1.30352
1.29381
1.27617
1.30112
1.30856
1.31938
1.31526
1.29458
1.26748
1.23275
1.24533
1.26304
1.29363
1.28277
1.29199
1.31486
1.32361
1.32149
1.32292
1.3191
1.32455
1.29382
1.29252
1.32365
1.309
1.26695
1.25084
1.29148
1.30683
1.28113
1.31879
1.33885
1.30138
1.31966
1.40865
1.45057
1.43659
1.42149
1.4488
1.48569
1.51896
1.5313
1.53124
1.5135
1.48925
1.45093
1.4777
1.49859
1.45744
1.46485
1.48703
1.41121
1.38871
1.39702
1.37428
1.34178
1.34895
1.40967
1.28313
1.32319
1.41937
1.31878
1.28887
1.34878
1.39029
1.31937
1.25004
1.32689
1.39442
1.42198
1.48176
1.45251
1.42561
1.36209
1.34422
1.34872
1.29332
1.29707
1.42099
1.0835
1.10922
1.11063
1.11821
1.13523
1.14074
1.13226
1.13785
1.14055
1.12376
1.11894
1.11859
1.11954
1.11973
1.11765
1.11826
1.11889
1.11742
1.11434
1.11529
1.11625
1.11689
1.11489
1.1144
1.11944
1.12039
1.12769
1.13848
1.14283
1.14361
1.14097
1.137
1.13546
1.13698
1.14104
1.14661
1.15242
1.15775
1.16229
1.16626
1.16828
1.16469
1.16034
1.15736
1.1574
1.15827
1.15953
1.16455
1.16069
1.1592
1.17204
1.17077
1.15984
1.15887
1.15679
1.15418
1.1466
1.14759
1.14512
1.14908
1.16066
1.16893
1.17564
1.18835
1.19697
1.21201
1.21903
1.19906
1.19886
1.22198
1.21232
1.20438
1.23672
1.28664
1.32197
1.33209
1.32486
1.31081
1.29662
1.28575
1.28369
1.28451
1.27327
1.26104
1.26476
1.27148
1.26189
1.25565
1.27024
1.28073
1.27523
1.27602
1.28785
1.29497
1.29943
1.30573
1.30711
1.30611
1.3148
1.32619
1.32036
1.32313
1.31082
1.26808
1.26694
1.2658
1.2742
1.30099
1.29499
1.24653
1.22706
1.23564
1.25556
1.29717
1.27514
1.28135
1.28308
1.30914
1.32016
1.31676
1.28536
1.28435
1.29132
1.2685
1.28046
1.3004
1.28274
1.24565
1.25198
1.28548
1.27786
1.28007
1.30605
1.29771
1.28764
1.34312
1.39103
1.40261
1.39416
1.41708
1.45911
1.4939
1.51116
1.52454
1.50552
1.4796
1.4334
1.44584
1.4855
1.47261
1.44353
1.43612
1.37317
1.38572
1.35911
1.31955
1.34985
1.33338
1.35114
1.29788
1.3205
1.42672
1.28883
1.27541
1.33749
1.32296
1.25315
1.26675
1.37563
1.41987
1.43407
1.49312
1.45714
1.40714
1.34039
1.31509
1.35241
1.28058
1.24409
1.32634
1.08525
1.11228
1.11831
1.11708
1.12787
1.14696
1.14277
1.12505
1.13478
1.13424
1.12208
1.11383
1.11176
1.11793
1.11762
1.11564
1.11598
1.11565
1.11432
1.11723
1.11672
1.12192
1.12352
1.12162
1.12749
1.13208
1.13992
1.14575
1.14614
1.14297
1.13935
1.13613
1.13614
1.13999
1.14629
1.15307
1.15748
1.15947
1.16093
1.16366
1.17078
1.17589
1.17449
1.16876
1.16338
1.16005
1.15442
1.15563
1.16268
1.15791
1.16116
1.17222
1.17415
1.1695
1.16779
1.15986
1.15381
1.14393
1.14548
1.14042
1.15445
1.16263
1.17548
1.17871
1.19176
1.21433
1.21066
1.18888
1.20074
1.21875
1.20394
1.19757
1.22943
1.27726
1.31302
1.32505
1.31169
1.28926
1.2756
1.27363
1.27774
1.27334
1.25717
1.24986
1.26094
1.26352
1.25277
1.25841
1.2792
1.28227
1.27229
1.27902
1.29784
1.30542
1.30611
1.30884
1.29989
1.28225
1.27397
1.28202
1.27584
1.2868
1.28781
1.246
1.21517
1.22437
1.24355
1.28776
1.27301
1.23983
1.21064
1.208
1.21249
1.2713
1.25833
1.2771
1.26868
1.29207
1.30751
1.32214
1.29721
1.25909
1.25501
1.24454
1.23273
1.26462
1.2925
1.26359
1.23349
1.25576
1.26828
1.26776
1.27506
1.27784
1.26847
1.29988
1.33583
1.35649
1.36234
1.38148
1.42249
1.46459
1.48016
1.50312
1.50309
1.50215
1.46487
1.45596
1.47288
1.46239
1.44793
1.40996
1.33687
1.34947
1.32507
1.28855
1.31569
1.30855
1.30664
1.29547
1.30923
1.39495
1.24756
1.27462
1.37221
1.29748
1.23292
1.32009
1.40769
1.41896
1.43197
1.4896
1.44795
1.4005
1.33215
1.31952
1.36587
1.2647
1.2292
1.26809
1.08714
1.113
1.13008
1.12403
1.11617
1.12813
1.15899
1.15084
1.13219
1.12904
1.124
1.12049
1.11815
1.12377
1.12753
1.12631
1.12486
1.12505
1.12578
1.13075
1.12863
1.13081
1.13537
1.13747
1.14252
1.14374
1.14414
1.14372
1.14174
1.13986
1.13795
1.13704
1.14078
1.14861
1.15718
1.16129
1.16426
1.16333
1.15958
1.156
1.15644
1.16185
1.16826
1.16934
1.16393
1.16102
1.15884
1.15187
1.15648
1.16368
1.16069
1.16382
1.16961
1.17007
1.1704
1.16526
1.16478
1.15579
1.15688
1.14327
1.14804
1.14706
1.16449
1.17083
1.17844
1.20606
1.21077
1.18717
1.19939
1.21692
1.20098
1.19459
1.22283
1.26737
1.30206
1.31449
1.30163
1.27481
1.25765
1.26156
1.26978
1.26156
1.24377
1.2436
1.25907
1.26244
1.25651
1.26934
1.29028
1.28786
1.27431
1.27356
1.27609
1.26763
1.25694
1.25799
1.24729
1.21774
1.19524
1.19842
1.19885
1.22778
1.25444
1.24948
1.24407
1.22992
1.21588
1.26626
1.26285
1.25441
1.22406
1.20116
1.19838
1.23209
1.24224
1.26328
1.23472
1.26589
1.2837
1.3013
1.29224
1.25924
1.24484
1.24972
1.21203
1.19906
1.2441
1.26507
1.23326
1.23465
1.24542
1.25577
1.25437
1.254
1.24871
1.2687
1.29559
1.31321
1.31692
1.34371
1.37804
1.42084
1.44552
1.46682
1.46468
1.4897
1.47014
1.46462
1.46496
1.43267
1.41182
1.38296
1.32717
1.32171
1.29469
1.28664
1.30375
1.2863
1.28236
1.29705
1.31992
1.37193
1.2673
1.29561
1.39369
1.26405
1.25103
1.41107
1.4413
1.44509
1.43526
1.45357
1.43678
1.41233
1.33921
1.35928
1.37383
1.26426
1.25678
1.26868
1.0895
1.11331
1.13412
1.13956
1.12757
1.12524
1.13897
1.15771
1.1572
1.1475
1.13685
1.12764
1.1202
1.12028
1.12754
1.13406
1.13566
1.1377
1.13578
1.13817
1.141
1.14086
1.14182
1.14156
1.14427
1.14823
1.15332
1.15602
1.15639
1.15753
1.15689
1.15354
1.152
1.15518
1.16136
1.16368
1.16142
1.16141
1.16178
1.16147
1.16177
1.16317
1.16172
1.16351
1.16413
1.15812
1.15833
1.15946
1.15602
1.16373
1.16915
1.16732
1.16606
1.1672
1.16811
1.1699
1.1674
1.16374
1.15893
1.15006
1.14594
1.14495
1.14989
1.16836
1.17109
1.19441
1.21074
1.19664
1.19732
1.21221
1.19866
1.19086
1.21465
1.25398
1.29027
1.30519
1.2922
1.26491
1.24756
1.25262
1.26283
1.25501
1.23745
1.23826
1.25507
1.26122
1.2574
1.26592
1.2759
1.26469
1.24888
1.24521
1.24126
1.23095
1.21713
1.21031
1.20904
1.18839
1.16563
1.15604
1.14314
1.15294
1.17422
1.2054
1.2222
1.19756
1.19359
1.22645
1.24821
1.22052
1.21336
1.20041
1.19708
1.21319
1.24185
1.28385
1.25186
1.24985
1.27341
1.29885
1.28297
1.24921
1.21027
1.227
1.22127
1.18895
1.19931
1.2418
1.2336
1.22119
1.22532
1.24124
1.24182
1.23778
1.22819
1.23663
1.25782
1.28231
1.27702
1.29724
1.33258
1.36703
1.40255
1.42594
1.41245
1.44298
1.43688
1.42845
1.41704
1.38196
1.34852
1.34194
1.29588
1.29151
1.27628
1.26601
1.27969
1.26721
1.27921
1.28964
1.29936
1.30803
1.26868
1.30245
1.4114
1.3044
1.3473
1.52046
1.47305
1.48758
1.4499
1.37754
1.38557
1.40406
1.34903
1.37534
1.36109
1.27724
1.30842
1.2789
1.09222
1.11409
1.13698
1.14259
1.13711
1.14359
1.1513
1.1413
1.14061
1.14477
1.14489
1.13977
1.13275
1.12706
1.1248
1.12706
1.13042
1.13247
1.13061
1.12858
1.12865
1.13049
1.13576
1.13766
1.14098
1.1455
1.14743
1.15111
1.15706
1.16012
1.16465
1.16454
1.15602
1.15216
1.15523
1.15926
1.15898
1.15562
1.15579
1.16083
1.16524
1.17181
1.17449
1.16676
1.16099
1.1582
1.1536
1.15778
1.16284
1.16249
1.16637
1.16811
1.16733
1.16501
1.16243
1.16432
1.16185
1.1639
1.16239
1.16046
1.14501
1.14467
1.13605
1.15598
1.16049
1.18092
1.19925
1.20152
1.20217
1.2092
1.19673
1.18414
1.20476
1.24296
1.27574
1.29505
1.28914
1.26258
1.24295
1.24233
1.24952
1.24277
1.23094
1.23349
1.24681
1.25125
1.24974
1.25384
1.25394
1.24153
1.23377
1.23689
1.23103
1.23103
1.23102
1.21318
1.20804
1.19677
1.19495
1.19004
1.17699
1.16423
1.15545
1.19921
1.21024
1.20912
1.18812
1.21967
1.23628
1.22646
1.19939
1.18551
1.17945
1.1825
1.20622
1.27156
1.2981
1.26299
1.25999
1.28917
1.26077
1.24727
1.22674
1.20813
1.19456
1.17636
1.16018
1.20201
1.22768
1.21233
1.20823
1.21989
1.22423
1.22571
1.2105
1.21393
1.21813
1.25189
1.25191
1.25614
1.2866
1.30891
1.35204
1.37776
1.36736
1.38638
1.39409
1.36336
1.3506
1.32027
1.28335
1.30229
1.25355
1.25404
1.26771
1.24557
1.26005
1.25734
1.27741
1.28301
1.29131
1.29888
1.27163
1.30274
1.43387
1.43696
1.513
1.5911
1.49855
1.49004
1.46996
1.31932
1.28015
1.35389
1.32076
1.33881
1.34713
1.28554
1.32649
1.26935
1.09479
1.11462
1.14694
1.15276
1.13769
1.13022
1.16586
1.16363
1.14603
1.14589
1.14974
1.14948
1.14686
1.1424
1.13503
1.13333
1.13285
1.13158
1.13345
1.13321
1.13507
1.13829
1.1403
1.14459
1.14932
1.15004
1.15349
1.15521
1.15491
1.15549
1.15379
1.15587
1.15669
1.15453
1.15707
1.16018
1.1622
1.16458
1.16305
1.16164
1.16626
1.1723
1.174
1.16997
1.16059
1.1547
1.15337
1.15151
1.15821
1.16324
1.16227
1.16166
1.16199
1.15942
1.15598
1.15729
1.15797
1.15599
1.15803
1.16493
1.15368
1.14579
1.1321
1.1443
1.15159
1.16757
1.1868
1.19237
1.20718
1.21231
1.19961
1.18203
1.19074
1.22702
1.26147
1.28059
1.27681
1.25736
1.24089
1.23981
1.23937
1.23006
1.2185
1.22145
1.22996
1.23347
1.2338
1.235
1.22946
1.21909
1.21794
1.22367
1.20928
1.2011
1.19771
1.17395
1.17334
1.1651
1.18349
1.19675
1.21187
1.19526
1.15657
1.17862
1.21716
1.19746
1.1853
1.20372
1.20845
1.22305
1.20145
1.16604
1.16577
1.19057
1.20747
1.23317
1.28556
1.2654
1.22811
1.25764
1.21022
1.17544
1.20608
1.20746
1.19212
1.17919
1.14026
1.15935
1.20395
1.20529
1.19905
1.20728
1.20537
1.21768
1.19449
1.20125
1.18505
1.21781
1.2228
1.22968
1.2465
1.25376
1.29104
1.31647
1.3163
1.32439
1.34348
1.28833
1.29197
1.26194
1.23434
1.26979
1.21897
1.23381
1.25077
1.2198
1.24569
1.25739
1.27258
1.26574
1.26142
1.29078
1.28271
1.33863
1.49166
1.53946
1.5737
1.56762
1.51751
1.43953
1.45366
1.31691
1.20453
1.28039
1.25363
1.28905
1.32762
1.28553
1.32299
1.25599
1.0968
1.11183
1.14148
1.17225
1.16296
1.12893
1.14224
1.16225
1.15392
1.15249
1.15542
1.1571
1.15574
1.15493
1.15187
1.14834
1.14495
1.14336
1.14184
1.14054
1.14062
1.138
1.1349
1.1324
1.13293
1.13351
1.13496
1.14133
1.14282
1.14169
1.14712
1.15212
1.15414
1.15757
1.1602
1.16012
1.1639
1.16519
1.1587
1.16043
1.16855
1.17072
1.16578
1.15653
1.15484
1.15276
1.15713
1.16127
1.15766
1.15897
1.15642
1.15282
1.15465
1.15538
1.15111
1.15106
1.15378
1.14644
1.1442
1.15176
1.15497
1.14636
1.13285
1.13371
1.14367
1.15244
1.18046
1.17893
1.20197
1.22199
1.20543
1.18597
1.18689
1.21149
1.24409
1.26567
1.26651
1.2479
1.23222
1.23073
1.23099
1.21947
1.21004
1.21337
1.21946
1.22286
1.22639
1.22761
1.21702
1.20763
1.20518
1.21167
1.19997
1.1825
1.18887
1.17086
1.18393
1.16684
1.1601
1.15455
1.18899
1.19715
1.15453
1.17151
1.19882
1.19017
1.17664
1.1831
1.19946
1.20911
1.18323
1.14359
1.14211
1.196
1.24419
1.23896
1.2537
1.25674
1.21321
1.22614
1.20187
1.15048
1.16788
1.16795
1.16436
1.16481
1.12571
1.12864
1.16949
1.19058
1.18428
1.19494
1.18651
1.20839
1.18221
1.19271
1.16774
1.18695
1.18414
1.20528
1.21186
1.21603
1.22481
1.25384
1.25101
1.26336
1.28542
1.22477
1.25275
1.21272
1.20755
1.24261
1.18631
1.22626
1.23597
1.20379
1.24529
1.25649
1.26362
1.24878
1.26241
1.29686
1.29194
1.34282
1.48382
1.51697
1.53545
1.52781
1.51399
1.39942
1.4079
1.34285
1.19969
1.21539
1.18715
1.24078
1.28995
1.27399
1.3193
1.23735
1.09856
1.10672
1.12424
1.16896
1.18519
1.1529
1.1334
1.14294
1.14174
1.14573
1.15247
1.16001
1.16478
1.16728
1.16551
1.16002
1.15609
1.15066
1.14357
1.1408
1.13609
1.13076
1.13159
1.1358
1.13985
1.14332
1.14663
1.15619
1.16047
1.15871
1.1645
1.16656
1.16451
1.16442
1.16441
1.1598
1.15484
1.15755
1.15935
1.15489
1.15436
1.15323
1.15593
1.14981
1.14569
1.14858
1.14665
1.15403
1.15322
1.15363
1.15707
1.15046
1.14926
1.15281
1.14633
1.14308
1.1519
1.15058
1.14116
1.13929
1.14267
1.13727
1.12915
1.12661
1.13812
1.13919
1.17328
1.17645
1.18479
1.22562
1.21891
1.18917
1.18901
1.21131
1.23481
1.24944
1.25445
1.24502
1.23216
1.22606
1.22206
1.2083
1.19791
1.20129
1.20716
1.21038
1.21553
1.2155
1.20472
1.19821
1.19092
1.1891
1.19831
1.18358
1.19455
1.18904
1.21197
1.20327
1.17094
1.13489
1.15713
1.189
1.14859
1.16067
1.19012
1.1866
1.17661
1.17499
1.19293
1.20294
1.1743
1.13186
1.13883
1.18687
1.23123
1.2363
1.21771
1.21031
1.18946
1.17877
1.16755
1.13774
1.15006
1.14056
1.14269
1.14294
1.10942
1.10925
1.1349
1.17634
1.17165
1.18415
1.17224
1.19405
1.17404
1.17979
1.16408
1.16164
1.15417
1.17396
1.18072
1.18891
1.17167
1.20531
1.18972
1.21798
1.2267
1.1849
1.22432
1.17336
1.19634
1.21541
1.16913
1.22555
1.21602
1.19541
1.25108
1.25616
1.25346
1.22385
1.26242
1.30708
1.31089
1.35647
1.45724
1.47804
1.51181
1.48211
1.46287
1.37735
1.36455
1.33314
1.20891
1.17338
1.1386
1.19893
1.23758
1.2503
1.30241
1.22535
1.10313
1.10884
1.11873
1.15096
1.19287
1.18701
1.16159
1.1488
1.14242
1.14122
1.14178
1.14439
1.14659
1.14604
1.14554
1.14669
1.14483
1.14033
1.14287
1.14935
1.15058
1.15425
1.16039
1.16431
1.16261
1.16141
1.16316
1.16365
1.15886
1.15253
1.1492
1.14434
1.14038
1.13682
1.14033
1.14613
1.14562
1.1449
1.1493
1.15228
1.15174
1.1422
1.13215
1.13579
1.13815
1.15252
1.15251
1.15088
1.1503
1.14103
1.14716
1.14937
1.14505
1.14861
1.1467
1.13645
1.13858
1.14484
1.13905
1.13744
1.13848
1.13464
1.12509
1.12145
1.13178
1.13332
1.15856
1.17958
1.17169
1.2122
1.22821
1.19443
1.18411
1.21108
1.23638
1.24292
1.23731
1.23091
1.2256
1.22483
1.21853
1.20588
1.19335
1.1944
1.19751
1.20025
1.20264
1.20268
1.18741
1.18314
1.18484
1.17021
1.17993