/*--------------------------------*- C++ -*----------------------------------*\
| =========                 |                                                 |
| \\      /  F ield         | OpenFOAM: The Open Source CFD Toolbox           |
|  \\    /   O peration     | Version:  dev                                   |
|   \\  /    A nd           | Web:      http://www.openfoam.org               |
|    \\/     M anipulation  |                                                 |
\*---------------------------------------------------------------------------*/
FoamFile
{
    version     2.0;
    format      ascii;
    class       volScalarField;
    object      rho_0;
    location    "9.129";
}
// * * * * * * * * * * * * * * * * * * * * * * * * * * * * * * * * * * * * * //

dimensions      [1 -3 0 0 0 0 0];

internalField   nonuniform List<scalar> 
12225
(
1.17249
1.17441
1.17451
1.1732
1.17234
1.17049
1.1688
1.16655
1.16416
1.16153
1.15852
1.15559
1.15209
1.14941
1.14599
1.14298
1.13603
1.13133
1.17282
1.17821
1.17917
1.17799
1.1768
1.17546
1.17328
1.17148
1.16865
1.16629
1.16293
1.16019
1.15658
1.15407
1.15199
1.14857
1.14079
1.13718
1.17304
1.17926
1.18038
1.17941
1.17854
1.17704
1.17537
1.17302
1.17112
1.16785
1.16548
1.162
1.15934
1.15591
1.15312
1.1489
1.1447
1.14238
1.17352
1.1788
1.1812
1.17919
1.17971
1.17681
1.17677
1.17269
1.17247
1.16783
1.16658
1.16225
1.16024
1.15572
1.15328
1.14845
1.1466
1.14326
1.17471
1.17868
1.18125
1.17899
1.17925
1.17689
1.17643
1.17335
1.17236
1.1687
1.1668
1.16318
1.16071
1.15671
1.15427
1.14874
1.14852
1.14337
1.17495
1.17903
1.18121
1.17938
1.17901
1.17745
1.17621
1.1741
1.17206
1.16906
1.16653
1.16343
1.16052
1.15748
1.15411
1.15095
1.14892
1.14579
1.17519
1.17941
1.18144
1.1798
1.17936
1.17799
1.17652
1.17444
1.17243
1.1692
1.16693
1.16359
1.1611
1.15733
1.15452
1.15159
1.14869
1.1474
1.17513
1.17994
1.18163
1.18043
1.17928
1.17846
1.17654
1.17493
1.17261
1.17004
1.16715
1.16409
1.16142
1.15793
1.15509
1.15153
1.14955
1.14646
1.17547
1.18006
1.18174
1.18066
1.17974
1.17863
1.1769
1.17502
1.17312
1.17076
1.16769
1.16441
1.16152
1.15829
1.1556
1.15244
1.14994
1.14718
1.17591
1.18024
1.18184
1.18086
1.18027
1.17908
1.17703
1.17521
1.17343
1.17129
1.16858
1.16508
1.16227
1.15911
1.15665
1.15383
1.15103
1.14861
1.17593
1.18076
1.18255
1.18156
1.18105
1.17972
1.17773
1.17596
1.17371
1.17143
1.16862
1.16553
1.16282
1.16012
1.15769
1.15483
1.15252
1.14985
1.17618
1.1814
1.18336
1.18219
1.1814
1.17993
1.17825
1.17629
1.17407
1.17187
1.16919
1.16641
1.16338
1.16066
1.15815
1.15547
1.153
1.15021
1.17654
1.18205
1.18323
1.18247
1.18157
1.18036
1.17869
1.17664
1.17421
1.17203
1.16924
1.16672
1.1639
1.16119
1.15834
1.15575
1.15328
1.15066
1.17794
1.18341
1.18412
1.18337
1.18241
1.18109
1.17937
1.17743
1.17507
1.17255
1.16979
1.1672
1.16428
1.16156
1.15873
1.15609
1.15335
1.15085
1.17927
1.18463
1.18523
1.18434
1.18311
1.18176
1.1801
1.17804
1.17578
1.17321
1.17054
1.16787
1.16503
1.16227
1.15941
1.15666
1.15396
1.15167
1.18123
1.18609
1.18653
1.18568
1.18455
1.18313
1.18128
1.17904
1.17658
1.1739
1.17116
1.16832
1.16549
1.16267
1.15985
1.15716
1.15434
1.1517
1.18381
1.18848
1.18895
1.18781
1.18636
1.18456
1.18245
1.18002
1.1774
1.17464
1.17177
1.16891
1.166
1.16307
1.16023
1.15735
1.15463
1.15202
1.18636
1.19046
1.19086
1.18957
1.18813
1.18617
1.18396
1.18139
1.1786
1.17572
1.17265
1.16963
1.16651
1.16352
1.16049
1.15763
1.15482
1.1522
1.1885
1.19233
1.19273
1.19123
1.18973
1.18763
1.18535
1.1827
1.17975
1.17663
1.17343
1.17022
1.16709
1.16409
1.16105
1.1583
1.15544
1.15292
1.19066
1.19379
1.19418
1.19264
1.19107
1.18886
1.18625
1.1835
1.18034
1.17716
1.17397
1.1707
1.16767
1.1645
1.16156
1.15869
1.15589
1.1534
1.19237
1.19537
1.19573
1.19396
1.19209
1.18985
1.18704
1.1841
1.18086
1.17763
1.17438
1.17115
1.16808
1.16489
1.16201
1.15909
1.15647
1.15398
1.19318
1.19611
1.19643
1.19488
1.19289
1.19057
1.18783
1.18466
1.18156
1.17818
1.1749
1.17162
1.16836
1.1653
1.16221
1.15946
1.15675
1.15439
1.19413
1.19697
1.19725
1.19564
1.19367
1.19115
1.1883
1.18515
1.18182
1.17845
1.17506
1.17171
1.16849
1.16534
1.16237
1.15954
1.15693
1.15449
1.19461
1.19767
1.1979
1.19614
1.1941
1.19151
1.18864
1.18544
1.18204
1.1786
1.17511
1.17181
1.16862
1.1655
1.16261
1.15981
1.15723
1.15483
1.19536
1.19824
1.1984
1.1965
1.19428
1.1918
1.1889
1.18568
1.18232
1.17874
1.17522
1.17176
1.16845
1.16535
1.16241
1.15975
1.15721
1.15495
1.19565
1.19841
1.19858
1.19672
1.19461
1.19199
1.18902
1.18572
1.18225
1.17873
1.1752
1.1718
1.16851
1.16542
1.16253
1.15982
1.15735
1.1551
1.19609
1.19866
1.19876
1.19689
1.19475
1.19212
1.18917
1.18585
1.1824
1.17879
1.17526
1.17181
1.16859
1.16557
1.1628
1.16027
1.158
1.156
1.19618
1.19885
1.19907
1.19718
1.19489
1.1921
1.18903
1.18562
1.18215
1.17855
1.17511
1.17176
1.16874
1.16591
1.16346
1.16118
1.1593
1.15765
1.19653
1.19872
1.19862
1.19661
1.19417
1.19125
1.18799
1.1845
1.18098
1.17748
1.17413
1.17093
1.168
1.16524
1.16279
1.16047
1.15857
1.15677
1.19703
1.19683
1.19574
1.19335
1.19068
1.18767
1.18439
1.18093
1.17742
1.17393
1.17052
1.16722
1.16408
1.16109
1.15829
1.15568
1.15337
1.15141
1.10253
1.13568
1.1357
1.12812
1.12372
1.12208
1.12079
1.11952
1.11737
1.11492
1.11175
1.10831
1.10498
1.10202
1.09943
1.09691
1.0949
1.09369
1.09292
1.09213
1.09099
1.08971
1.08906
1.08965
1.09156
1.09417
1.0966
1.09855
1.10008
1.10142
1.10269
1.10389
1.10517
1.10656
1.10805
1.10962
1.11121
1.11281
1.11444
1.11611
1.1178
1.11957
1.12143
1.1234
1.12547
1.1275
1.12962
1.13212
1.13501
1.13806
1.14093
1.1436
1.14667
1.14975
1.15284
1.15573
1.1582
1.16125
1.16385
1.16353
1.1621
1.16296
1.1662
1.17058
1.17567
1.18176
1.18861
1.1952
1.2011
1.20661
1.21203
1.21742
1.22419
1.23337
1.2441
1.25396
1.2563
1.2513
1.24826
1.25459
1.26548
1.2766
1.28785
1.29359
1.28568
1.27396
1.27657
1.29129
1.31178
1.32899
1.3362
1.34239
1.3496
1.3545
1.35674
1.35519
1.34984
1.34649
1.3505
1.35972
1.36418
1.35404
1.32953
1.30765
1.30977
1.34771
1.39491
1.34696
1.37889
1.36491
1.36547
1.36354
1.36249
1.36212
1.36018
1.35906
1.35717
1.35562
1.35431
1.35252
1.35009
1.34761
1.34431
1.34066
1.33509
1.32821
1.32337
1.31922
1.31766
1.31702
1.31671
1.31705
1.3181
1.32131
1.32246
1.3235
1.32705
1.33032
1.33289
1.33521
1.33928
1.34221
1.34308
1.34401
1.34625
1.3524
1.36204
1.37111
1.38356
1.39041
1.40658
1.41329
1.42985
1.43351
1.44661
1.44969
1.4682
1.47888
1.479
1.47761
1.47793
1.47977
1.47315
1.46748
1.45906
1.44994
1.43985
1.42767
1.41726
1.40507
1.3978
1.38994
1.3873
1.38026
1.38119
1.37852
1.37124
1.3629
1.35136
1.34532
1.10584
1.14157
1.12913
1.11751
1.1183
1.12117
1.1211
1.12049
1.1166
1.11255
1.10925
1.10901
1.11023
1.11068
1.11192
1.11145
1.11082
1.10978
1.1068
1.10614
1.10535
1.10559
1.10565
1.10656
1.10608
1.1064
1.10706
1.108
1.10986
1.1098
1.11045
1.1107
1.11196
1.11349
1.11514
1.11685
1.1186
1.12037
1.12212
1.12354
1.12461
1.12584
1.12784
1.13087
1.1333
1.13411
1.13532
1.13877
1.14429
1.14992
1.15167
1.15127
1.1547
1.159
1.16261
1.16973
1.17563
1.17539
1.17757
1.18378
1.18381
1.18196
1.18773
1.19245
1.18781
1.18515
1.19437
1.20965
1.22384
1.23283
1.23409
1.22868
1.22722
1.24073
1.26272
1.28823
1.30938
1.30073
1.28466
1.28676
1.28828
1.29418
1.31715
1.34785
1.36223
1.36285
1.37415
1.3804
1.37249
1.37027
1.37518
1.38169
1.39197
1.39933
1.39016
1.36562
1.34154
1.33721
1.35005
1.36328
1.36843
1.35634
1.3242
1.29997
1.31496
1.37361
1.42582
1.28924
1.36945
1.33703
1.34276
1.34135
1.34374
1.34855
1.35077
1.3572
1.36226
1.36835
1.37565
1.38477
1.38922
1.39772
1.41309
1.42691
1.43478
1.44052
1.44568
1.44029
1.42967
1.42466
1.42377
1.42088
1.41125
1.41382
1.41955
1.41033
1.40021
1.3999
1.40443
1.40626
1.41118
1.41558
1.41513
1.41921
1.43115
1.44957
1.46542
1.47685
1.4883
1.49
1.50787
1.5045
1.5228
1.5128
1.51157
1.49346
1.49873
1.51816
1.51018
1.50953
1.47128
1.50581
1.50098
1.51018
1.51595
1.50339
1.51721
1.50622
1.50362
1.49734
1.49532
1.48933
1.49665
1.49352
1.50556
1.52521
1.53476
1.52487
1.49163
1.46103
1.09803
1.12461
1.10964
1.10723
1.11147
1.11351
1.10968
1.11101
1.11305
1.11896
1.12527
1.12275
1.1201
1.1205
1.11731
1.118
1.11386
1.1129
1.11229
1.10748
1.10616
1.10394
1.10175
1.10077
1.10218
1.10199
1.1059
1.1072
1.105
1.10431
1.10105
1.10229
1.10206
1.10363
1.10509
1.10628
1.10812
1.10957
1.11056
1.11051
1.10994
1.11016
1.11198
1.11574
1.11934
1.12165
1.12526
1.13027
1.13538
1.13984
1.14053
1.13972
1.14551
1.15201
1.15332
1.15944
1.16804
1.16954
1.17037
1.17488
1.18029
1.18108
1.18422
1.18836
1.1888
1.19781
1.20171
1.19422
1.20381
1.23412
1.25033
1.23392
1.2123
1.22397
1.26178
1.3006
1.32377
1.32962
1.32562
1.30882
1.29814
1.31839
1.3527
1.36504
1.36482
1.37071
1.36414
1.33838
1.32572
1.33171
1.33808
1.34418
1.35212
1.35638
1.35608
1.35149
1.34662
1.3467
1.3432
1.33095
1.32174
1.31823
1.31607
1.31114
1.30503
1.32022
1.34516
1.26157
1.32141
1.28163
1.29091
1.29103
1.29093
1.29179
1.29049
1.29289
1.29715
1.29877
1.29603
1.29861
1.29572
1.29635
1.30477
1.31929
1.33584
1.36243
1.39825
1.44043
1.47254
1.48781
1.48831
1.4874
1.47868
1.48301
1.49247
1.46997
1.43274
1.41831
1.42631
1.43291
1.43561
1.44644
1.45229
1.47017
1.48811
1.501
1.51049
1.51026
1.50663
1.49417
1.49751
1.4907
1.49658
1.50289
1.48629
1.47695
1.4332
1.44259
1.43354
1.44421
1.37172
1.42177
1.42108
1.43408
1.43604
1.40333
1.44941
1.43445
1.44798
1.47314
1.48312
1.47663
1.48377
1.50619
1.514
1.54838
1.59571
1.61341
1.59462
1.5469
1.09042
1.11655
1.10667
1.10676
1.10412
1.10564
1.11143
1.12
1.12987
1.13418
1.12621
1.12396
1.12097
1.11664
1.11752
1.11315
1.11112
1.11058
1.10756
1.10749
1.10519
1.10152
1.10469
1.10335
1.10757
1.11559
1.11632
1.11479
1.11096
1.10586
1.10515
1.10567
1.10729
1.10716
1.10786
1.10984
1.111
1.11378
1.11437
1.11442
1.11379
1.11424
1.11591
1.11946
1.12393
1.12721
1.12987
1.13099
1.13131
1.13217
1.13587
1.13934
1.14341
1.14801
1.15181
1.15789
1.16399
1.16716
1.17439
1.17555
1.17387
1.18133
1.18117
1.18144
1.1937
1.19579
1.2018
1.20862
1.19801
1.20613
1.23562
1.2378
1.21403
1.22116
1.26127
1.30424
1.33351
1.34125
1.32474
1.31029
1.32791
1.35627
1.36053
1.35048
1.35745
1.36555
1.34899
1.33128
1.33643
1.3479
1.35386
1.35849
1.35808
1.35398
1.35332
1.35466
1.35344
1.34481
1.33304
1.32688
1.32922
1.32759
1.31066
1.27899
1.25401
1.26853
1.29092
1.24761
1.30812
1.24799
1.26256
1.27103
1.27462
1.28058
1.28625
1.29
1.30119
1.30964
1.31183
1.32752
1.32888
1.30783
1.30098
1.31875
1.31145
1.29535
1.29603
1.31542
1.36096
1.43545
1.46559
1.46899
1.48984
1.51807
1.52843
1.4985
1.44816
1.41828
1.42597
1.44933
1.45626
1.46961
1.4894
1.50732
1.53111
1.53535
1.52806
1.52258
1.51459
1.5036
1.492
1.49986
1.4823
1.50342
1.46839
1.48992
1.48269
1.46346
1.43922
1.43914
1.36623
1.37809
1.38542
1.42808
1.41339
1.34928
1.38602
1.35463
1.36307
1.39355
1.42393
1.46685
1.43137
1.45235
1.46224
1.4979
1.56206
1.60293
1.59746
1.58582
1.08577
1.11241
1.10647
1.10578
1.1056
1.11342
1.1208
1.12967
1.136
1.13202
1.12469
1.11925
1.12327
1.12189
1.11552
1.11574
1.11387
1.11062
1.10871
1.10374
1.10529
1.10593
1.10464
1.1092
1.11517
1.11617
1.1169
1.1152
1.10903
1.11042
1.11301
1.11349
1.11684
1.11468
1.11559
1.1167
1.11928
1.11998
1.12228
1.12292
1.12416
1.12542
1.12636
1.12711
1.12874
1.12878
1.13046
1.13175
1.13325
1.1324
1.13169
1.13097
1.13063
1.13342
1.14356
1.15229
1.15565
1.16367
1.17055
1.16632
1.17381
1.18379
1.17532
1.18228
1.19329
1.18232
1.19162
1.2121
1.20854
1.20516
1.23045
1.23498
1.21155
1.22339
1.26413
1.29761
1.31818
1.3242
1.32509
1.33787
1.3547
1.35148
1.33366
1.33281
1.34968
1.34847
1.32755
1.31792
1.32255
1.32743
1.33508
1.34586
1.35268
1.35604
1.35581
1.35013
1.33786
1.31971
1.30709
1.30217
1.30138
1.29984
1.2944
1.29355
1.28912
1.25964
1.22671
1.25431
1.22877
1.22985
1.23253
1.22974
1.23297
1.23914
1.24516
1.24102
1.23651
1.25817
1.26432
1.26668
1.29951
1.30727
1.30067
1.3212
1.31522
1.31669
1.30496
1.27922
1.29176
1.36571
1.41253
1.40846
1.43023
1.4903
1.53837
1.51005
1.45525
1.42543
1.42849
1.45179
1.47843
1.49182
1.51611
1.5298
1.52861
1.52466
1.52208
1.51395
1.50213
1.51562
1.49222
1.50601
1.485
1.52171
1.5119
1.48997
1.48953
1.48117
1.46496
1.45666
1.4085
1.36383
1.31892
1.40627
1.44059
1.37397
1.37226
1.30901
1.29495
1.35874
1.35184
1.43231
1.4109
1.41161
1.39783
1.42296
1.48595
1.56875
1.56887
1.57903
1.08297
1.10641
1.10026
1.10224
1.10571
1.11885
1.12899
1.12253
1.11914
1.12023
1.12544
1.13089
1.12182
1.11893
1.11571
1.11449
1.11665
1.1123
1.11046
1.10739
1.10496
1.10262
1.10288
1.10942
1.1118
1.11975
1.12359
1.12177
1.12458
1.12652
1.13024
1.13524
1.13701
1.13921
1.14101
1.14131
1.14277
1.14334
1.14395
1.14446
1.14466
1.14491
1.14473
1.14471
1.1446
1.14458
1.1465
1.1494
1.15209
1.14972
1.14538
1.14174
1.13749
1.13256
1.1354
1.14041
1.14713
1.15496
1.15672
1.15979
1.17034
1.17336
1.16873
1.17943
1.19414
1.18491
1.18255
1.20752
1.20506
1.19573
1.22938
1.2271
1.20434
1.23416
1.28758
1.3161
1.32776
1.33368
1.34312
1.35313
1.34659
1.3231
1.31229
1.3273
1.33904
1.32549
1.30909
1.31108
1.31997
1.33089
1.34668
1.35932
1.36424
1.36356
1.35712
1.34905
1.34091
1.33388
1.33001
1.32395
1.3155
1.30996
1.3065
1.3147
1.32255
1.31959
1.29753
1.26406
1.24258
1.25381
1.26976
1.25966
1.267
1.28122
1.28404
1.28131
1.26773
1.25533
1.27646
1.25968
1.24903
1.27096
1.24633
1.26622
1.29773
1.3062
1.32952
1.30281
1.25182
1.29806
1.37725
1.36426
1.35899
1.42308
1.5057
1.52119
1.46706
1.42755
1.43133
1.45213
1.48088
1.50679
1.51956
1.52392
1.52748
1.52986
1.50701
1.49276
1.4686
1.504
1.47573
1.49421
1.47883
1.48392
1.50111
1.47884
1.47928
1.49032
1.49292
1.42337
1.39763
1.4061
1.30815
1.33338
1.45247
1.43859
1.39111
1.30287
1.21532
1.30492
1.33028
1.3975
1.39875
1.40617
1.36272
1.36392
1.38903
1.49588
1.54288
1.55984
1.08205
1.10358
1.09961
1.11252
1.12179
1.12521
1.13765
1.14405
1.13716
1.1373
1.12626
1.1192
1.11367
1.11015
1.11173
1.11361
1.11806
1.11472
1.11281
1.11114
1.1086
1.11044
1.10933
1.1117
1.11382
1.11729
1.11785
1.12063
1.12817
1.13192
1.13438
1.13896
1.14168
1.14511
1.14593
1.14867
1.15059
1.15441
1.15957
1.16362
1.166
1.16791
1.16746
1.16801
1.1677
1.16835
1.16697
1.16645
1.17104
1.1699
1.16201
1.16071
1.15914
1.1438
1.13066
1.13036
1.13934
1.14931
1.15253
1.15544
1.16259
1.16516
1.17151
1.19056
1.20032
1.1789
1.17684
1.20175
1.19435
1.20655
1.23272
1.2108
1.21364
1.26228
1.30627
1.32353
1.33344
1.34326
1.34813
1.33933
1.31603
1.29871
1.3036
1.31503
1.30782
1.29163
1.29187
1.3047
1.31363
1.32514
1.33993
1.34722
1.34777
1.34543
1.34038
1.33658
1.33254
1.32668
1.32295
1.32528
1.33342
1.34706
1.34787
1.33935
1.30984
1.27894
1.26905
1.26194
1.25075
1.21766
1.24228
1.24708
1.25573
1.26628
1.29023
1.28403
1.29637
1.29506
1.28326
1.29687
1.27951
1.2809
1.27732
1.24382
1.23366
1.25243
1.29429
1.33475
1.29117
1.25727
1.33508
1.36032
1.31249
1.349
1.44745
1.50667
1.4779
1.43185
1.42491
1.45288
1.47748
1.50361
1.51731
1.52022
1.51013
1.48132
1.44554
1.43925
1.4085
1.46583
1.4573
1.44593
1.40586
1.44566
1.50332
1.45935
1.41976
1.43187
1.46075
1.38812
1.34479
1.3807
1.35283
1.29907
1.40513
1.45531
1.39041
1.30999
1.22718
1.25809
1.31556
1.37853
1.38086
1.40511
1.35483
1.34405
1.32232
1.38875
1.48735
1.53464
1.08158
1.10239
1.10041
1.12011
1.13993
1.13708
1.12851
1.12901
1.12283
1.1217
1.13135
1.12503
1.12117
1.11782
1.11674
1.11796
1.11912
1.11785
1.12071
1.12139
1.11687
1.11303
1.10987
1.11138
1.11254
1.11408
1.11776
1.12176
1.1265
1.13526
1.13844
1.13801
1.13706
1.13682
1.13475
1.13296
1.13244
1.13494
1.14105
1.14956
1.15698
1.16607
1.17241
1.17423
1.1733
1.17146
1.16786
1.16019
1.16226
1.17157
1.16212
1.15489
1.16386
1.16213
1.14596
1.13683
1.13846
1.14888
1.15236
1.15455
1.16083
1.16081
1.17126
1.18972
1.18963
1.18388
1.19573
1.19483
1.17926
1.20509
1.22032
1.20373
1.22307
1.27326
1.3109
1.32674
1.33278
1.33648
1.33078
1.31235
1.29196
1.28564
1.29128
1.28815
1.27721
1.27852
1.29291
1.29897
1.29905
1.3089
1.31911
1.31906
1.31842
1.31766
1.315
1.31567
1.3163
1.31317
1.31044
1.30937
1.30395
1.30188
1.29024
1.29116
1.30597
1.31107
1.28631
1.28925
1.24455
1.22921
1.22239
1.24465
1.2611
1.26786
1.27885
1.28932
1.28935
1.30595
1.31453
1.31842
1.3094
1.28995
1.29001
1.30726
1.27003
1.22944
1.22684
1.27795
1.30991
1.26638
1.28086
1.34343
1.311
1.29434
1.37594
1.46463
1.46752
1.42906
1.41564
1.44245
1.47466
1.4987
1.5078
1.51569
1.51208
1.47929
1.42724
1.4165
1.40699
1.4224
1.43979
1.43638
1.36594
1.38195
1.43447
1.39152
1.35195
1.39992
1.39456
1.27782
1.31717
1.35108
1.32931
1.30467
1.36455
1.40766
1.33193
1.24593
1.26002
1.29772
1.34486
1.40249
1.38666
1.39926
1.34835
1.33876
1.30928
1.30347
1.3893
1.4952
1.08258
1.10538
1.10419
1.11725
1.13745
1.13894
1.13091
1.12836
1.13476
1.12881
1.12519
1.11347
1.10408
1.10401
1.10838
1.10886
1.11015
1.11425
1.11834
1.12092
1.12207
1.12153
1.11909
1.11504
1.11356
1.1123
1.11773
1.12921
1.13469
1.13893
1.13899
1.13674
1.13465
1.1328
1.13255
1.13289
1.13344
1.13503
1.13726
1.14083
1.14292
1.14582
1.15229
1.15761
1.16152
1.16111
1.16078
1.15591
1.14918
1.15981
1.16072
1.14647
1.1483
1.15937
1.15066
1.13752
1.12672
1.13631
1.14284
1.15445
1.16359
1.16216
1.16647
1.18356
1.18559
1.19583
1.21235
1.19311
1.18036
1.2094
1.21198
1.20142
1.23151
1.28285
1.31565
1.3261
1.32531
1.31991
1.30735
1.28899
1.27761
1.28056
1.28031
1.26903
1.26383
1.27236
1.27375
1.26301
1.26284
1.27526
1.27996
1.27827
1.28172
1.28236
1.28177
1.28606
1.28821
1.28512
1.28403
1.28099
1.27186
1.2738
1.26393
1.25233
1.27919
1.28786
1.29411
1.28687
1.26067
1.23989
1.20771
1.22255
1.23997
1.26613
1.26028
1.27084
1.29381
1.30156
1.2998
1.30284
1.30279
1.30516
1.27389
1.27961
1.30369
1.2799
1.24086
1.23736
1.28094
1.2855
1.26305
1.30771
1.3191
1.28091
1.31151
1.40249
1.43642
1.41568
1.40055
1.42785
1.46227
1.49303
1.50368
1.50281
1.48702
1.46305
1.42574
1.4504
1.46504
1.42851
1.44417
1.46649
1.39042
1.37049
1.38952
1.36585
1.32433
1.34328
1.3932
1.25762
1.30775
1.38421
1.29455
1.26873
1.32824
1.3693
1.29267
1.21618
1.28275
1.34621
1.37709
1.43657
1.41031
1.39302
1.33443
1.32094
1.31895
1.27321
1.29242
1.41679
1.08362
1.10907
1.1104
1.11768
1.13455
1.14044
1.13193
1.13714
1.14017
1.12351
1.11826
1.11782
1.1188
1.11906
1.11682
1.11726
1.1178
1.11619
1.11284
1.11363
1.11444
1.11509
1.11302
1.11234
1.11727
1.11801
1.12496
1.13558
1.13987
1.14066
1.138
1.1339
1.1321
1.13321
1.1368
1.14188
1.1473
1.15241
1.15677
1.16056
1.16203
1.15807
1.15404
1.15161
1.15211
1.15307
1.15464
1.15902
1.15398
1.15388
1.16635
1.16241
1.15142
1.15179
1.14904
1.14583
1.13797
1.14049
1.13841
1.14409
1.15519
1.16238
1.16849
1.18224
1.18982
1.20363
1.21055
1.1904
1.19032
1.21358
1.20347
1.19739
1.23191
1.28147
1.31428
1.3224
1.31507
1.30172
1.28759
1.27611
1.27342
1.27425
1.26343
1.25111
1.25392
1.26033
1.25089
1.24347
1.25614
1.26626
1.26108
1.2606
1.27016
1.27549
1.27873
1.28414
1.28578
1.28576
1.29461
1.30364
1.29695
1.29805
1.28402
1.24654
1.25463
1.25317
1.25953
1.27835
1.271
1.22597
1.2067
1.21805
1.24014
1.2767
1.25659
1.26218
1.26901
1.29339
1.30205
1.29716
1.27029
1.2762
1.27896
1.25886
1.27648
1.28761
1.26042
1.22814
1.24493
1.27541
1.26277
1.27083
1.29676
1.28275
1.27853
1.34083
1.38683
1.3922
1.38108
1.40493
1.44493
1.47708
1.49301
1.50308
1.48201
1.45398
1.40921
1.42757
1.46715
1.45004
1.42664
1.42807
1.36757
1.37575
1.35404
1.31914
1.33933
1.32534
1.34768
1.27587
1.30963
1.40456
1.27042
1.25499
1.30946
1.30365
1.23306
1.22969
1.33274
1.38134
1.39783
1.45706
1.42415
1.38038
1.31751
1.2948
1.32719
1.2638
1.23597
1.32695
1.08468
1.11139
1.11752
1.116
1.12632
1.14554
1.14219
1.12409
1.1333
1.13324
1.12119
1.11275
1.11028
1.11646
1.11639
1.1143
1.1145
1.11417
1.11274
1.11561
1.11491
1.11999
1.12167
1.11957
1.1252
1.12963
1.1373
1.14308
1.14344
1.14023
1.13652
1.13311
1.13281
1.13625
1.14217
1.14882
1.15317
1.15535
1.15718
1.16034
1.16746
1.17172
1.16933
1.16321
1.15819
1.155
1.14966
1.15189
1.158
1.15254
1.15739
1.16776
1.16778
1.16293
1.16083
1.15291
1.14619
1.13746
1.13887
1.13584
1.15077
1.15954
1.17107
1.17496
1.18862
1.20901
1.20367
1.183
1.19541
1.2125
1.19711
1.19298
1.22741
1.27521
1.30887
1.31852
1.30431
1.28274
1.26983
1.26741
1.27072
1.26616
1.25019
1.24257
1.25272
1.25459
1.24323
1.24742
1.26679
1.26955
1.25963
1.26603
1.28461
1.29252
1.29391
1.29627
1.28815
1.27431
1.2705
1.27912
1.27191
1.27824
1.27231
1.22593
1.19833
1.20965
1.23251
1.27102
1.25604
1.21712
1.19132
1.19503
1.20409
1.26282
1.24619
1.26324
1.26065
1.28334
1.29801
1.30918
1.28113
1.2497
1.24876
1.23507
1.23265
1.26847
1.28402
1.24726
1.22524
1.25179
1.26068
1.25961
1.2701
1.27094
1.26213
1.29883
1.33625
1.35474
1.35844
1.37698
1.41798
1.4574
1.47123
1.49239
1.48976
1.48189
1.4416
1.43734
1.4601
1.45226
1.43731
1.40313
1.33233
1.34886
1.32364
1.28485
1.31381
1.3052
1.30552
1.28089
1.29913
1.38117
1.22785
1.2566
1.34106
1.27697
1.20942
1.27695
1.36906
1.38612
1.40318
1.46592
1.42351
1.37573
1.31116
1.29465
1.34501
1.25137
1.21516
1.26381
1.08584
1.11133
1.12854
1.12252
1.11427
1.12579
1.15699
1.14966
1.13082
1.12747
1.12248
1.11893
1.11632
1.12169
1.12569
1.1247
1.12321
1.12334
1.1239
1.12888
1.12679
1.1287
1.13319
1.13523
1.14019
1.14132
1.14158
1.14107
1.13896
1.13689
1.13478
1.13378
1.1375
1.14524
1.15362
1.15774
1.16091
1.15991
1.15614
1.15279
1.15377
1.15945
1.16569
1.16592
1.16
1.15734
1.1546
1.14788
1.15359
1.15948
1.15631
1.16072
1.16653
1.16626
1.16611
1.16013
1.15919
1.14982
1.15132
1.13836
1.14526
1.1456
1.16379
1.16839
1.17786
1.20483
1.20551
1.18196
1.19683
1.21314
1.19621
1.19218
1.22327
1.26829
1.30108
1.31115
1.29682
1.27029
1.25441
1.2586
1.26588
1.25692
1.23937
1.23938
1.25414
1.25622
1.24957
1.26217
1.28281
1.28018
1.26673
1.26679
1.2709
1.26384
1.25499
1.25678
1.24438
1.21577
1.19676
1.20313
1.20532
1.2339
1.2552
1.23756
1.22448
1.21697
1.20825
1.25963
1.24962
1.23983
1.20651
1.18756
1.18757
1.22805
1.23183
1.24997
1.22735
1.26264
1.27919
1.29484
1.2835
1.25136
1.24384
1.24302
1.20593
1.2051
1.25115
1.25917
1.22562
1.23303
1.24439
1.25221
1.25169
1.25193
1.24714
1.27092
1.29926
1.31558
1.3207
1.34714
1.38155
1.42404
1.44531
1.4656
1.4654
1.48506
1.46099
1.4569
1.46188
1.43429
1.41704
1.38334
1.32536
1.32439
1.29633
1.28525
1.30397
1.2858
1.28043
1.28973
1.31442
1.36947
1.24456
1.27945
1.3661
1.23994
1.22012
1.3613
1.40529
1.4104
1.4096
1.44811
1.42479
1.3926
1.32017
1.33519
1.361
1.25147
1.23632
1.2598
1.08747
1.11088
1.1317
1.13726
1.12526
1.12283
1.13617
1.15489
1.15477
1.14528
1.13483
1.12566
1.11811
1.11781
1.12485
1.13152
1.13329
1.13545
1.1335
1.13575
1.13869
1.13859
1.13953
1.13925
1.14196
1.14591
1.151
1.15359
1.15374
1.15466
1.15364
1.15011
1.14903
1.15278
1.15913
1.16125
1.15913
1.15933
1.15942
1.15851
1.15859
1.15989
1.15873
1.16116
1.16158
1.15559
1.15617
1.15632
1.15318
1.16174
1.16625
1.16443
1.16388
1.16532
1.16648
1.16751
1.16499
1.16029
1.1556
1.14592
1.14415
1.14356
1.15173
1.16863
1.17206
1.19638
1.20956
1.19276
1.19606
1.21102
1.1963
1.19095
1.21752
1.25767
1.29264
1.30477
1.28966
1.26236
1.24646
1.25269
1.26226
1.25318
1.23545
1.23706
1.25381
1.25876
1.25428
1.26347
1.27402
1.26247
1.24608
1.24209
1.23842
1.22657
1.21144
1.20683
1.20394
1.18021
1.15531
1.14745
1.13739
1.15385
1.17992
1.20142
1.21374
1.18745
1.18648
1.22284
1.23927
1.21261
1.2051
1.19136
1.18989
1.21274
1.23889
1.27281
1.23359
1.2443
1.27147
1.29472
1.28054
1.24363
1.20916
1.22978
1.21913
1.18993
1.21066
1.24752
1.23038
1.22156
1.22823
1.24346
1.24284
1.23856
1.23057
1.24214
1.26636
1.28787
1.28327
1.30701
1.34243
1.37894
1.41113
1.4325
1.42117
1.45177
1.44135
1.43722
1.42828
1.39397
1.36489
1.35026
1.30406
1.30033
1.27831
1.27131
1.28507
1.26949
1.27745
1.28723
1.29824
1.31052
1.25566
1.29452
1.39019
1.26226
1.30041
1.47196
1.44172
1.45925
1.42562
1.38437
1.39702
1.39898
1.33943
1.36704
1.35637
1.26723
1.2915
1.27458
1.08944
1.1109
1.13387
1.13942
1.13388
1.14032
1.14843
1.13808
1.13711
1.14151
1.14201
1.13716
1.13033
1.12461
1.12209
1.12422
1.12761
1.12974
1.12803
1.12604
1.12614
1.12802
1.13338
1.13533
1.13868
1.14328
1.14527
1.14911
1.15515
1.15825
1.16278
1.16213
1.15344
1.15021
1.15373
1.15763
1.15692
1.15349
1.15407
1.15932
1.16348
1.16968
1.17177
1.16432
1.1595
1.1568
1.15265
1.1574
1.16152
1.16151
1.16603
1.16756
1.16663
1.16472
1.16276
1.1647
1.16203
1.16396
1.16167
1.15786
1.14353
1.14429
1.13848
1.15939
1.16361
1.18534
1.20242
1.20205
1.20205
1.20949
1.19616
1.18618
1.21038
1.24925
1.28111
1.29818
1.28961
1.26211
1.24363
1.24446
1.25186
1.24424
1.23229
1.23555
1.24924
1.25293
1.2508
1.25527
1.25567
1.24255
1.23364
1.2355
1.23021
1.22942
1.22702
1.21098
1.2055
1.19173
1.18307
1.17388
1.15671
1.14905
1.15161
1.19554
1.2012
1.19827
1.18019
1.21527
1.23386
1.2162
1.19255
1.18334
1.17769
1.18161
1.20861
1.27528
1.28544
1.25628
1.2655
1.29342
1.2703
1.25643
1.22477
1.21018
1.19792
1.17767
1.17137
1.21617
1.23207
1.21503
1.21329
1.22606
1.23018
1.22936
1.21608
1.22059
1.23045
1.26243
1.2606
1.26771
1.30075
1.32695
1.369
1.39277
1.38138
1.40377
1.40679
1.3834
1.36942
1.3385
1.30357
1.31461
1.26665
1.26683
1.27337
1.25509
1.26801
1.26061
1.27931
1.28602
1.29558
1.29683
1.26155
1.29433
1.4152
1.38712
1.46695
1.56385
1.47329
1.48201
1.45406
1.32082
1.30535
1.36603
1.32879
1.34724
1.34847
1.2815
1.32201
1.27225
1.09127
1.11062
1.14302
1.14908
1.13396
1.12594
1.1617
1.16004
1.14238
1.14221
1.14622
1.14619
1.1438
1.13953
1.13223
1.13053
1.13002
1.12878
1.13075
1.13059
1.13254
1.13586
1.13802
1.14253
1.1474
1.1483
1.15194
1.15363
1.15352
1.1543
1.15273
1.15484
1.1552
1.15288
1.15572
1.15907
1.16085
1.1629
1.16176
1.16086
1.16553
1.17186
1.17387
1.16975
1.16014
1.15457
1.15276
1.15138
1.15909
1.16385
1.16344
1.16343
1.16356
1.16076
1.15777
1.15951
1.15976
1.15885
1.16128
1.16665
1.15332
1.14646
1.13439
1.14941
1.15639
1.17408
1.192
1.19769
1.21039
1.21357
1.20037
1.18469
1.19773
1.23614
1.26962
1.28664
1.28057
1.26011
1.24428
1.24395
1.24344
1.23375
1.22245
1.22613
1.23497
1.23789
1.23746
1.23838
1.2329
1.22209
1.22067
1.22499
1.21052
1.20431
1.19912
1.17558
1.17302
1.16582
1.18416
1.19584
1.20113
1.18037
1.15002
1.17861
1.21216
1.19267
1.18073
1.20459
1.20983
1.21973
1.19793
1.16874
1.16888
1.18594
1.20003
1.23872
1.29057
1.26411
1.23728
1.26881
1.22088
1.19467
1.21826
1.21574
1.19886
1.18271
1.14952
1.17617
1.21681
1.21228
1.2069
1.21562
1.21525
1.22451
1.20276
1.20906
1.19783
1.23247
1.23719
1.24237
1.26274
1.2734
1.31501
1.33888
1.33768
1.34765
1.36249
1.31275
1.31161
1.28234
1.25323
1.28432
1.23433
1.24576
1.26047
1.23191
1.25482
1.26253
1.27817
1.27274
1.26839
1.2911
1.27709
1.33319
1.48137
1.51473
1.55816
1.56467
1.50103
1.4461
1.45379
1.30665
1.21887
1.30118
1.27407
1.30563
1.33672
1.28853
1.32681
1.26408
1.09255
1.10706
1.13649
1.16767
1.1589
1.12452
1.13708
1.15734
1.14941
1.14813
1.15122
1.15315
1.15206
1.15153
1.14869
1.14522
1.14189
1.14039
1.13892
1.13777
1.13799
1.13554
1.13264
1.13037
1.13111
1.13182
1.13356
1.13987
1.1412
1.14037
1.14585
1.15084
1.15304
1.15649
1.15924
1.15976
1.16411
1.1651
1.15861
1.16126
1.16985
1.17218
1.16697
1.15819
1.15653
1.15418
1.15894
1.1622
1.15936
1.1612
1.15833
1.15567
1.1579
1.15801
1.15422
1.15493
1.15677
1.14953
1.14911
1.15765
1.15883
1.14957
1.13624
1.13979
1.14982
1.16092
1.18718
1.18597
1.21038
1.22548
1.20706
1.18971
1.19388
1.22128
1.25436
1.27445
1.27268
1.25272
1.23772
1.23724
1.23708
1.2252
1.21628
1.22023
1.22632
1.22935
1.2321
1.23242
1.22137
1.21172
1.21027
1.21634
1.20065
1.18452
1.18826
1.16749
1.17671
1.15882
1.15981
1.16283
1.19481
1.1914
1.15082
1.17265
1.19986
1.18707
1.17402
1.18564
1.20013
1.20945
1.18425
1.14775
1.14723
1.19711
1.23957
1.24031
1.26807
1.26746
1.22333
1.2437
1.21214
1.1624
1.18312
1.18368
1.1774
1.17481
1.13604
1.14448
1.18743
1.20194
1.19551
1.2059
1.19905
1.21925
1.19255
1.20332
1.17909
1.20345
1.20241
1.22172
1.22983
1.23447
1.25132
1.27884
1.27789
1.28862
1.30892
1.24809
1.2713
1.23346
1.22387
1.25869
1.20233
1.23835
1.24846
1.21623
1.25438
1.264
1.27223
1.2606
1.26827
1.2973
1.2882
1.34428
1.49046
1.52106
1.53941
1.53676
1.51467
1.40667
1.41912
1.33433
1.19982
1.23524
1.20979
1.26074
1.30756
1.28458
1.32894
1.24882
1.09363
1.10133
1.11856
1.16316
1.18016
1.14842
1.12846
1.13763
1.13661
1.14069
1.14754
1.15527
1.16029
1.16302
1.16148
1.15624
1.15254
1.14727
1.14042
1.13787
1.13327
1.12816
1.12919
1.13344
1.13765
1.14127
1.14483
1.15472
1.15902
1.15766
1.16409
1.16646
1.16482
1.16539
1.16534
1.16043
1.15628
1.15953
1.16057
1.15621
1.1566
1.15658
1.15973
1.15269
1.14877
1.15061
1.14946
1.15746
1.15644
1.15814
1.16065
1.15363
1.1536
1.15683
1.1502
1.14866
1.15764
1.15464
1.14588
1.14554
1.14898
1.14282
1.13469
1.13365
1.14551
1.14846
1.18292
1.18335
1.19646
1.23436
1.22192
1.19413
1.19771
1.22142
1.24523
1.25973
1.26367
1.25255
1.2393
1.2336
1.2294
1.21518
1.20576
1.21001
1.2159
1.21888
1.22366
1.22255
1.21143
1.20427
1.19675
1.19748
1.20299
1.18748
1.20004
1.19485
1.21641
1.1983
1.16524
1.13852
1.16611
1.19077
1.14656
1.16191
1.19239
1.18711
1.17629
1.17956
1.19526
1.2054
1.17921
1.13696
1.14069
1.19074
1.23853
1.24138
1.22886
1.22652
1.20231
1.19831
1.18355
1.14947
1.16585
1.1593
1.15979
1.1588
1.12217
1.124
1.15492
1.1915
1.18563
1.19774
1.18659
1.20875
1.18663
1.19387
1.17546
1.17824
1.17171
1.19383
1.19938
1.20769
1.19546
1.2291
1.21616
1.2418
1.25201
1.20503
1.24325
1.19322
1.21119
1.23379
1.18365
1.23827
1.23177
1.20771
1.26143
1.26659
1.26576
1.23785
1.26875
1.31056
1.31358
1.36184
1.46937
1.49279
1.52449
1.49592
1.47481
1.38408
1.38029
1.34071
1.2096
1.18965
1.15781
1.219
1.26103
1.26662
1.31891
1.23815
1.0976
1.10287
1.11254
1.14428
1.18651
1.18148
1.15637
1.14351
1.13713
1.13594
1.13655
1.13928
1.14169
1.14142
1.14126
1.14279
1.14119
1.13699
1.13988
1.14655
1.14794
1.15181
1.15822
1.16244
1.16128
1.16071
1.16305
1.16422
1.15954
1.15355
1.15087
1.14594
1.14186
1.1384
1.14224
1.14747
1.14644
1.14639
1.15163
1.15482
1.15485
1.14473
1.13538
1.13829
1.14094
1.15618
1.15569
1.15561
1.15411
1.14539
1.15276
1.15437
1.15094
1.15507
1.15173
1.14202
1.14581
1.15138
1.14522
1.14445
1.14581
1.14139
1.13211
1.12963
1.14081
1.14278
1.17087
1.18812
1.18305
1.22587
1.23487
1.19998
1.1948
1.22391
1.24778
1.25308
1.24754
1.24117
1.2356
1.23426
1.22712
1.214
1.20209
1.20424
1.20739
1.21015
1.2123
1.21082
1.19554
1.19217
1.1916
1.17825
1.18764
1.17369