/*--------------------------------*- C++ -*----------------------------------*\
| =========                 |                                                 |
| \\      /  F ield         | OpenFOAM: The Open Source CFD Toolbox           |
|  \\    /   O peration     | Version:  dev                                   |
|   \\  /    A nd           | Web:      http://www.openfoam.org               |
|    \\/     M anipulation  |                                                 |
\*---------------------------------------------------------------------------*/
FoamFile
{
    version     2.0;
    format      ascii;
    class       volScalarField;
    object      T;
    location    "9.129";
}
// * * * * * * * * * * * * * * * * * * * * * * * * * * * * * * * * * * * * * //

dimensions      [0 0 0 1 0 0 0];

internalField   nonuniform List<scalar> 
12225
(
306.812
306.603
306.377
306.342
306.027
305.888
305.537
305.303
304.949
304.633
304.278
303.891
303.533
302.985
302.454
301.307
301.046
300.609
306.988
305.915
305.383
305.32
305.094
304.836
304.629
304.274
304.043
303.64
303.374
302.901
302.558
301.896
301.002
299.85
299.784
299.291
306.978
305.66
305.082
304.962
304.654
304.441
304.091
303.89
303.408
303.247
302.722
302.445
301.856
301.444
300.715
299.98
299.005
297.889
306.845
305.797
304.893
305.036
304.382
304.514
303.762
303.987
303.083
303.268
302.461
302.408
301.667
301.525
300.713
300.285
298.892
297.789
306.573
305.851
304.912
305.113
304.535
304.518
303.888
303.84
303.146
303.074
302.447
302.208
301.605
301.323
300.549
300.376
298.843
298.212
306.536
305.795
304.962
305.047
304.632
304.407
303.983
303.69
303.262
303.031
302.569
302.21
301.733
301.233
300.735
300.055
299.098
298.351
306.535
305.753
304.956
304.989
304.597
304.316
303.955
303.654
303.223
303.044
302.535
302.244
301.687
301.407
300.813
300.224
299.521
298.676
306.613
305.683
304.971
304.884
304.674
304.253
304.005
303.584
303.241
302.88
302.55
302.2
301.712
301.388
300.873
300.546
299.749
299.34
306.606
305.722
305.013
304.893
304.615
304.27
303.971
303.621
303.181
302.757
302.482
302.201
301.79
301.428
300.922
300.565
300.019
299.543
306.585
305.755
305.071
304.925
304.561
304.227
304.012
303.643
303.189
302.707
302.355
302.135
301.729
301.369
300.849
300.435
300.044
299.578
306.679
305.738
305.002
304.853
304.468
304.165
303.928
303.542
303.215
302.777
302.459
302.153
301.746
301.301
300.809
300.443
299.976
299.642
306.76
305.727
304.948
304.836
304.519
304.245
303.924
303.582
303.25
302.793
302.457
302.084
301.782
301.382
300.944
300.571
300.181
299.915
306.847
305.751
305.174
304.951
304.647
304.298
303.965
303.639
303.351
302.914
302.607
302.196
301.852
301.478
301.161
300.801
300.448
300.174
306.757
305.657
305.184
304.951
304.649
304.314
303.984
303.623
303.304
302.952
302.646
302.272
301.969
301.625
301.328
301.012
300.76
300.487
306.77
305.683
305.215
304.993
304.735
304.389
304.022
303.679
303.326
302.979
302.652
302.305
301.998
301.679
301.412
301.144
300.906
300.604
306.707
305.732
305.269
305.005
304.684
304.325
303.979
303.656
303.334
303.01
302.69
302.388
302.083
301.788
301.519
301.254
301.058
300.865
306.581
305.624
305.109
304.875
304.59
304.283
303.961
303.65
303.333
303.012
302.703
302.391
302.102
301.834
301.57
301.358
301.143
300.946
306.5
305.645
305.107
304.856
304.514
304.193
303.842
303.514
303.196
302.87
302.581
302.285
302.026
301.762
301.539
301.312
301.117
300.922
306.376
305.612
305.043
304.8
304.425
304.081
303.695
303.334
303.008
302.702
302.41
302.129
301.848
301.566
301.329
301.063
300.871
300.64
306.237
305.605
305.006
304.732
304.327
303.96
303.609
303.228
302.911
302.582
302.252
301.959
301.626
301.366
301.087
300.838
300.619
300.375
306.103
305.491
304.87
304.617
304.248
303.847
303.501
303.131
302.797
302.448
302.106
301.775
301.432
301.157
300.85
300.6
300.325
300.071
306.156
305.529
304.896
304.553
304.179
303.765
303.367
303.02
302.622
302.282
301.923
301.584
301.274
300.951
300.682
300.38
300.12
299.827
306.108
305.479
304.836
304.487
304.08
303.69
303.293
302.915
302.55
302.186
301.837
301.501
301.163
300.853
300.542
300.25
299.959
299.68
306.104
305.424
304.781
304.452
304.043
303.648
303.237
302.85
302.485
302.124
301.783
301.426
301.07
300.74
300.401
300.097
299.79
299.494
306.007
305.371
304.733
304.423
304.047
303.612
303.19
302.795
302.405
302.066
301.725
301.394
301.066
300.722
300.395
300.048
299.728
299.394
305.999
305.396
304.745
304.416
304
303.587
303.173
302.788
302.418
302.055
301.708
301.355
301.012
300.664
300.317
299.979
299.637
299.298
305.95
305.372
304.737
304.404
303.988
303.571
303.146
302.758
302.377
302.031
301.677
301.333
300.968
300.597
300.215
299.828
299.433
299.024
305.952
305.358
304.686
304.352
303.97
303.588
303.189
302.821
302.442
302.09
301.709
301.336
300.916
300.495
300.029
299.575
299.076
298.575
305.897
305.408
304.822
304.516
304.168
303.815
303.463
303.115
302.747
302.368
301.964
301.55
301.105
300.665
300.199
299.755
299.262
298.797
305.636
305.718
305.406
305.215
304.932
304.606
304.263
303.911
303.545
303.173
302.794
302.415
302.037
301.667
301.301
300.942
300.565
300.159
280.769
272.563
272.559
274.419
275.554
276.031
276.432
276.846
277.492
278.234
279.174
280.208
281.239
282.202
283.091
283.989
284.78
285.384
285.891
286.427
287.078
287.789
288.358
288.614
288.543
288.313
288.159
288.156
288.286
288.493
288.744
289.036
289.333
289.629
289.919
290.216
290.532
290.871
291.226
291.597
291.985
292.375
292.764
293.144
293.523
293.939
294.35
294.683
294.933
295.156
295.452
295.829
296.116
296.408
296.718
297.081
297.579
297.968
298.438
299.639
301.232
302.32
302.785
302.956
302.988
302.789
302.39
302.053
301.922
301.94
302.035
302.197
302.083
301.38
300.259
299.22
299.854
302.452
304.883
305.044
303.939
302.722
301.35
300.981
303.739
307.87
308.838
306.702
302.972
299.804
298.833
298.092
297.024
296.348
296.18
296.786
298.101
298.853
297.843
295.664
294.531
296.57
301.812
306.43
305.342
296.225
286.093
296.318
288.622
291.371
290.828
290.869
290.742
290.491
290.613
290.576
290.735
290.858
290.964
291.209
291.639
292.106
292.764
293.551
294.831
296.469
297.739
298.964
299.702
300.266
300.788
301.226
301.573
301.424
301.741
302.169
302.07
302
302.064
302.205
301.954
301.985
302.549
303.176
303.601
303.278
302.357
301.733
300.573
300.776
299.127
299.65
298.144
299.426
298.697
299.964
297.932
297.214
298.414
299.536
300.199
299.707
300.656
300.98
301.514
301.979
302.277
302.939
303.103
303.508
302.934
302.514
301.077
300.772
298.951
298.115
298.522
299.445
301.295
301.989
279.996
271.2
274.177
277.071
276.941
276.303
276.403
276.654
277.733
278.88
279.862
280.093
279.974
280.064
279.975
280.341
280.761
281.314
282.375
282.863
283.406
283.708
284.076
284.259
284.821
285.184
285.484
285.735
285.797
286.372
286.789
287.323
287.621
287.88
288.133
288.4
288.676
288.976
289.305
289.748
290.304
290.836
291.193
291.3
291.581
292.304
292.951
293.049
292.641
292.201
292.754
293.93
294.147
294.124
294.356
293.701
293.235
294.38
295.099
294.699
295.729
297.493
297.412
297.307
299.596
301.786
301.101
298.775
296.581
295.518
296.352
299.1
301.318
299.895
296.197
291.654
287.79
290.425
295.686
297.058
298.211
298.48
294.882
289.329
287.09
288.008
286.857
286.589
289.175
290.529
290.26
289.523
287.903
286.812
289
294.388
299.649
300.485
297.598
294.765
293.602
296.03
302.769
307.68
303.692
290.532
280.196
309.601
290.57
297.639
295.827
295.717
294.856
293.494
292.75
291.121
289.8
288.339
286.732
284.756
283.819
282.139
279.116
276.389
274.856
273.736
272.698
273.608
275.69
276.939
277.532
278.534
280.989
281.076
280.449
282.939
285.859
286.725
286.412
286.648
286.331
286.062
286.862
286.795
285.275
282.684
280.799
279.983
279.381
280.696
279.166
281.618
280.165
283.863
286.065
291.253
292.234
289.944
292.687
293.435
302.361
295.236
295.694
293.044
290.641
291.991
287.369
287.624
286.079
284.924
283.164
282.289
279.043
277.711
274
269.073
266.147
266.981
272.268
277.427
282.123
275.413
279.13
279.784
278.77
278.333
279.379
279.149
278.757
277.42
276.02
276.808
277.64
277.747
278.757
278.832
280.13
280.644
281.126
282.676
283.346
284.283
285.235
285.864
285.931
286.41
285.866
286.091
287.209
287.962
289.378
289.638
290.33
290.572
290.877
291.272
291.525
291.903
292.434
293.266
294.252
295.048
295.44
295.344
295.31
295.637
295.657
295.354
295.061
294.932
295.743
297.021
296.65
296.021
296.777
296.41
295.304
295.947
296.894
297.034
296.845
297.756
298.291
298.484
299.634
298.745
298.762
302.045
301.804
295.945
292.607
297.187
304.488
304.127
296.804
289.012
284.763
284.388
286.342
291.331
295.534
292.899
286.753
285.152
286.314
286.162
288.559
295.147
298.938
298.434
297.744
297.028
295.868
295.409
295.704
296.763
297.76
297.784
298.715
301.422
303.197
303.594
303.739
304.752
306.257
302.498
296.771
315.161
300.537
310.087
307.186
306.584
306.216
305.634
305.583
304.781
303.474
302.835
303.349
302.533
303.127
303.325
301.717
298.447
295.151
290.014
283.092
275.046
268.874
265.62
265.573
266.137
267.957
267.553
266.308
270.955
278.943
282.853
281.968
281.074
281.194
279.748
279.214
276.589
274.105
272.866
272.468
273.924
276.168
280.042
281.308
284.2
285.224
285.617
290.937
294.089
304.584
304.423
307.744
306.091
323.446
312.889
312.389
308.183
306.361
313.019
301.353
302.714
298.107
290.45
285.907
284.453
281.692
275.652
272.74
265.313
256.048
252.138
254.381
261.578
284.308
277.606
280.092
280.115
280.835
280.527
279.166
277.138
274.834
273.907
275.978
276.699
277.646
278.912
278.913
280.263
281.021
281.441
282.501
282.838
283.812
285.076
284.632
285.374
284.621
283.064
283.447
284.381
285.927
287.754
288.445
288.893
289.093
289.802
290.277
290.462
290.877
290.911
291.537
292.322
293.299
294.009
294.437
294.415
294.173
294.267
294.533
295.227
296.156
297.001
297.106
297.265
297.342
297.268
297.31
296.846
296.428
296.715
295.962
296.8
298.465
297.725
298.978
300.335
298.458
299.252
299.127
298.224
302.213
302.561
296.617
296.344
303.618
304.409
296.715
288.202
282.718
281.748
286.202
290.995
288.89
284.126
284.385
287.759
287.477
286.815
291.35
296.192
295.937
294.229
293.587
293.117
293.677
294.919
295.285
295.166
295.6
297.705
300.321
301.399
300.534
300.64
304.234
311.197
316.642
313.292
308.723
316.843
303.438
316.925
312.88
310.472
309.185
307.335
305.593
304.582
301.97
299.516
298.766
295.252
294.22
298.653
300.61
296.574
298.44
302.577
303.438
300.512
291.568
276.178
270.059
269.991
266.675
261.624
259.746
265.351
275.402
282.23
281.631
277.611
276.645
274.878
271.87
269.514
266.459
266.936
269.434
271.73
274.678
277.864
281.892
281.905
287.324
284.69
293.041
290.793
293.173
298.417
304.561
305.407
321.448
320.924
320.394
308.605
308.966
322.688
313.487
319.434
316.459
306.504
298.103
285.855
290.957
285.369
282.242
274.338
261.786
253.566
253.614
254.636
285.819
278.917
280.413
280.636
280.74
278.853
277.1
274.997
273.568
274.673
276.646
278.148
277.315
277.9
279.687
279.865
280.631
281.721
282.529
284.074
283.973
284.199
284.863
284.044
282.983
283.232
283.548
284.553
286.596
286.668
286.567
287.005
286.784
287.984
288.369
288.765
288.814
289.385
289.552
290.171
290.653
291.157
291.776
292.477
292.981
293.91
294.415
295.013
295.561
296.792
298.077
299.381
300.652
301.209
299.723
298.509
298.735
297.788
297.101
299.323
298.636
297.147
300.501
300.133
298.261
302.349
301.978
297.775
299.392
302.26
297.533
296.909
304.156
303.471
295.189
288.72
285.347
285.135
286.135
284.722
282.517
284.51
289.625
291.024
288.499
289.821
295.374
298.406
298.22
297.871
296.724
294.817
293.72
293.297
293.61
295.063
297.866
301.829
304.413
305.3
305.369
305.458
306.104
305.107
305.103
312.074
320.54
313.188
320.815
318.615
317.428
318.148
316.873
314.774
313.021
313.917
315.356
310.314
308.277
308.328
300.986
298.31
300.318
295.767
296.418
295.867
298.121
305.206
305.05
289.772
279.418
280.876
278.124
267.2
258.139
262.568
273.144
279.937
280.291
276.633
272.101
270.246
266.86
265.508
266.833
268.555
270.41
273.273
277.04
275.423
281.579
280.505
286.236
281.348
283.904
290.33
291.863
294.133
297.748
301.376
310.787
320.379
334.494
314.622
302.165
313.233
313.452
327.474
332.427
313.251
312.203
292.076
293.427
291.518
293.684
287.721
274.938
258.631
257.117
254.712
286.93
280.785
282.352
281.912
281.09
277.844
275.459
277.153
278.068
277.919
276.75
275.623
278.023
278.919
279.962
280.487
280.244
281.632
282.391
283.509
284.448
285.394
285.632
284.328
284.114
282.534
282.131
283.076
282.822
282.851
282.447
281.785
281.973
282.024
282.241
282.823
283.154
283.705
284.262
284.862
285.58
286.31
287.184
288.031
288.939
289.826
290.287
290.503
290.701
292.21
294.371
296.305
298.428
301.08
301.837
301.785
301.08
300.061
300.723
301.101
299.555
299.865
302.141
300.688
297.937
301.379
303.946
298.876
300.191
304.306
297.443
298.568
305.811
300.516
289.22
283.798
282.434
282.413
281.733
281.007
283.713
290.039
293.637
291.483
290.098
294.11
298.629
298.933
297.695
295.885
292.935
290.741
290.159
290.66
292.268
294.044
295.665
296.901
297.419
298.355
299.696
300.191
300.375
298.241
296.683
297.038
301.037
309.192
313.549
311.424
306.546
308.313
306.052
302.282
300.865
301.303
303.844
307.138
302.461
305.923
309.68
304.594
310.501
307.349
300.384
298.374
292.265
296.618
310.409
303.088
285.418
287.601
291.186
279.748
263.989
260.143
269.757
278.454
278.931
275.678
271.179
267.154
265.889
266.134
266.611
267.706
273.501
277.397
283.672
277.751
284.361
282.996
288.378
288.773
285.634
291.912
294.408
293.001
291.899
307.951
314.832
310.06
331.516
330.614
300.934
298.155
306.997
325.439
349.553
325.325
314.799
297.47
294.391
290.296
298.427
297.432
292.417
270.969
260.302
256.283
287.63
281.95
282.962
279.755
277.538
276.717
273.728
272.327
274.079
274.191
277.056
278.916
280.493
281.556
281.366
281.126
280.277
281.42
282.212
282.97
283.918
283.787
284.42
284.175
284.043
283.613
283.946
283.678
282.29
281.903
281.842
281.314
281.281
281.103
281.594
281.621
281.872
281.645
281.088
280.794
280.92
281.153
281.988
282.654
283.578
284.297
285.571
286.763
286.579
287.551
290.517
291.928
292.987
297.721
302.634
304.242
303.148
301.517
301.677
302.099
301.434
301.975
301.501
297.765
296.213
302.531
304.718
299.975
303.099
301.418
295.92
302.337
303.508
293.324
284.41
281.66
280.789
279.959
280.208
283.356
289.641
294.673
294.705
293.365
296.124
300.687
301.324
299.192
298.004
296.086
293.441
292.471
292.794
293.57
294.781
295.523
296.203
297.302
297.912
297.026
294.883
291.526
291.215
292.788
298.469
304.747
306.711
306.765
309.935
318.493
312.632
310.018
307.233
304.536
298.526
299.308
296.003
295.341
298.156
294.499
298.291
299.12
299.326
307.279
311.99
309.399
300.831
290.068
297.64
308.839
293.522
286.499
298.088
293.462
274.367
262.527
266.994
276.406
279.221
274.674
270.854
267.049
265.585
265.964
268.868
275.725
284.276
286.8
294.051
284.77
287.061
291.262
302.977
296.37
285.551
295.768
306.743
304.623
299.024
316.528
325.951
316.776
319.68
334.453
310.682
295.964
307.25
323.997
340.415
332.173
315.006
298.258
295.709
288.498
297.425
298.539
303.214
290.324
269.471
258.851
288.305
282.797
283.287
278.332
273.588
274.359
276.455
276.405
278.081
278.424
276.242
277.963
279.077
280.114
280.594
280.504
280.452
281.063
280.657
280.839
282.328
283.632
284.776
284.743
284.851
284.886
284.401
283.85
283.136
281.487
281.307
282.042
282.913
283.649
284.837
285.98
286.812
286.923
286.167
284.835
283.816
282.408
281.603
281.909
282.9
284.195
285.9
288.762
289.441
287.846
290.867
293.994
292.735
293.503
298.47
302.267
303.447
301.803
301.836
302.22
301.608
302.851
301.586
297.942
298.921
301.133
299.048
300.806
306.507
301.405
298.543
303.836
300.815
290.305
282.842
280.384
280.322
280.827
283.25
288.404
294.051
296.543
296.408
298.342
301.877
302.306
299.824
299.475
300.278
298.632
296.971
297.536
297.976
298.341
299.006
298.724
298.376
298.869
299.182
299.255
300.618
300.976
303.563
303.158
297.612
294.776
299.214
298.076
308.545
311.44
314.808
308.518
303.851
301.243
299.374
296.247
295.717
291.635
289.351
288.719
290.196
294.447
295.546
290.759
297.951
309.19
313.145
302.871
293.49
302.722
303.161
289.295
295.242
302.228
287.337
269.738
268.371
275.866
279.811
275.669
270.343
266.81
266.18
265.841
267.646
274.561
285.726
288.381
290.456
291.239
288.825
290.059
307.52
307.774
298.91
308.718
319.749
310.165
309.717
341.416
330.424
319.45
326
331.259
317.231
305.049
319.372
340.134
330.045
317.011
304.342
289.589
290.991
287.364
296.538
297.273
301.864
305.063
287.27
264.488
288.685
282.67
282.958
279.628
274.719
274.485
276.514
277.213
275.812
277.349
278.34
281.46
284.011
284.205
283.291
283.396
283.301
282.516
281.741
281.402
281.47
281.973
282.961
284.362
285.152
285.884
284.905
282.469
281.612
281.116
281.692
282.847
283.968
285.03
285.666
286.163
286.628
286.887
287.056
286.959
287.272
287.51
286.862
286.434
286.279
287.175
288.033
289.903
292.679
291.143
291.307
295.781
296.825
294.889
297.663
301.939
306.227
305.03
304.492
302.499
300.954
302.183
302.453
299.266
299.629
298.001
294.8
300.635
305.437
299.574
299.943
304.021
298.323
287.524
281.073
279.758
281.108
283.521
287.382
292.516
296.137
296.496
297.705
301.415
303.481
302.267
302.993
306.479
307.021
304.59
304.164
304.949
304.214
304.095
304.172
303.011
302.347
302.769
302.4
302.397
304.132
303.045
304.882
308.626
302.157
299.903
296.875
297.236
301.382
307.189
315.204
311.394
306.467
298.711
300.778
298.206
292.657
290.427
290.644
290.14
290.85
289.605
296.527
296.956
290.224
293.855
304.078
308.519
299.431
296.661
303.442
295.634
292.121
301.527
298.35
280.519
273.497
277.3
281.392
277.225
271.478
266.665
265.613
266.678
270.858
276.299
284.652
280.584
277.772
286.89
286.674
283.611
300.185
306.466
306.013
312.447
321.419
320.98
308.208
339.588
330.024
308.013
331.418
338.761
322.98
311.987
327.08
343.381
321.353
303.287
294.738
280.228
283.235
286.056
297.072
299.064
296.361
307.421
305.17
277.675
289.151
282.455
282.118
280.243
276.093
274.824
276.967
275.704
275.165
279.411
280.765
281.02
280.966
281.121
281.865
281.955
282.062
282.719
283.809
283.895
284.001
284.21
285.111
285.65
284.798
285.011
283.644
281.452
280.902
281.256
282.476
284.057
285.061
285.321
284.97
284.271
283.546
282.967
282.606
282.402
282.692
284.36
286.243
287.815
288.654
289.298
289.86
289.494
291.361
292.652
290.368
291.626
295.336
296.56
298.081
299.757
302.754
303.519
305.212
305.21
303.218
302.143
301.502
299.364
298.301
295.707
295.122
301.179
302.373
297.789
301.327
304.483
297.663
287.235
280.678
279.669
282.314
286.452
290.686
294.23
295.767
296.606
300.226
304.111
304.147
303.418
306.553
308.851
306.004
304.115
305.966
306.238
303.804
302.418
301.571
300.204
299.866
299.984
297.806
294.991
295.978
294.976
297.294
306.798
306.496
306.164
303.528
296.671
297.409
308.319
312.561
309.738
304.226
293.933
298.555
296.663
295.861
289.658
286.986
287.551
294.45
294.629
293.1
298.54
296.003
291.865
296.434
305.889
305.011
297.828
300.485
300.898
295.875
298.797
302.194
290.774
281.872
280.719
283.623
280.244
273.362
268.183
266.281
265.056
269.511
275.332
285.308
283.973
277.495
281.136
288.049
290.781
305.436
304.045
311.369
322.085
316.158
321.282
318.082
332.027
326.983
302.881
335.194
338.362
321.869
323.936
340.286
334.818
306.037
293.857
288.158
274.065
278.192
285.568
297.49
301.291
291.288
306.078
313.703
293.245
289.717
282.683
281.177
281.519
278.873
274.291
275.369
279.796
277.501
277.754
280.902
283.136
283.837
282.456
282.742
283.473
283.633
283.985
284.615
284.183
284.643
283.673
283.638
284.507
283.432
282.71
281.212
280.254
280.657
281.958
283.397
284.766
285.353
285.001
284.067
283.052
282.651
282.86
283.22
283.285
282.305
281.833
282.94
285.12
287.242
288.89
291.134
291.679
290.766
292.838
292.903
291.031
291.459
293.535
294.896
297.857
300.38
303.946
304.517
306.864
304.131
302.998
300.703
300.91
298.648
294.134
296.089
302.598
300.683
297.309
302.064
304.768
297.939
287.833
281.044
279.546
283.442
289.415
293.542
295.001
295.027
296.993
301.736
304.392
302.56
302.737
306.08
305.392
301.031
300.832
303.643
302.413
298.313
296.776
296.727
296.121
298.076
302.001
303.711
301.486
302.564
299.558
298.842
308.329
315.537
312.499
306.997
295.797
298.547
305.853
312.563
312.548
310.733
295.781
298.352
293.517
295.05
289.356
285.67
282.331
287.645
296.326
297.35
300.049
303.212
295.958
290.135
297.487
305.509
300.896
298.832
299.943
299.255
299.656
302.963
296.747
289.916
286.705
286.708
283.987
277.042
270.303
268.677
265.748
266.896
268.203
276.14
278.96
276.867
280.03
284.063
292.996
310.361
308.845
315.905
326.231
320.764
323.667
325.157
328.742
325.841
305.986
342.034
334.397
309.805
326.17
341.606
317.192
294.941
289.806
284.246
270.429
275.561
282.478
294.744
295.726
284.019
305.324
312.892
302.244
290.365
283.621
279.35
280.879
282.897
279.951
272.558
274.562
279.176
280.063
281.44
282.459
283.203
281.958
281.205
281.715
282.303
282.499
282.583
281.626
282.459
282.239
281.448
281.291
280.428
280.533
280.862
281.405
282.361
283.315
284.305
285.066
284.687
283.32
281.818
281.441
281.36
282.244
283.837
285.413
286.017
285.411
284.581
285.066
287.157
288.652
289.987
292.545
292.192
291.204
292.793
292.855
292.26
293.011
293.804
295.986
297.003
300.224
300.857
305.372
305.042
306.251
302.62
301.948
300.976
295.057
294.902
301.788
299.723
296.403
301.357
303.988
297.962
288.473
281.765
280.08
283.822
290.761
295.678
295.682
294.659
297.444
302.539
303.384
300.409
300.312
302.38
299.906
295.544
296.534
300.054
300.519
300.128
302.254
304.865
304.566
307.044
314.272
319.888
318.661
318.092
310.089
302.96
303.595
304.284
307.076
309.882
296.833
296.917
298.208
304.899
310.004
310.027
300.922
297.936
292.517
298.854
291.091
286.756
282.67
284.531
291.99
295.458
294.513
304.019
307.728
297.126
292.94
301.358
301.896
300.223
298.771
300.189
301.384
303.784
300.138
295.087
292.367
292.818
288.25
282.345
275.1
271.663
268.946
270.537
267.178
271.876
274.04
275.116
282.498
287.936
295.265
309.042
311.72
319.605
322.913
319.905
325.339
327.317
324.294
319.1
307.134
332.352
324.684
301.027
330.469
332.263
292.603
283.767
280.186
279.093
272.589
273.115
275.548
288.457
282.473
277.88
300.701
301.392
297.544
291.006
284.781
279.564
278.249
281.238
281.863
278.515
274.071
274.265
276.672
279.366
281.765
283.768
283.896
282.233
280.79
280.595
280.311
281.025
280.692
280.272
280.603
280.684
281.082
280.77
280.175
279.331
279.089
279.431
279.607
280.234
281.541
282.434
282.194
281.251
281.269
282.415
283.037
283.581
284.309
284.905
285.243
286.296
286.562
287.127
289.349
290.038
290.508
292.137
290.971
290.403
291.65
292.771
293.296
293.887
294.264
295.729
297.506
299.598
302.779
304.744
305.893
305.469
301.535
301.742
296.765
293.681
298.086
298.865
296.127
300.415
303.327
298.306
289.856
282.608
280.28
283.998
291.015
295.931
295.572
293.989
296.601
301.563
302.079
298.699
297.855
299.323
297.801
295.892
298.878
302.964
304.082
305.194
307.816
311.299
312.951
313.098
318.283
324.166
326.434
329.604
326.204
319.653
310.735
305.764
311.291
311.534
302.395
296.35
302.305
303.34
305.877
306.014
301.315
293.777
283.69
290.496
290.529
284.81
278.999
282.323
289.956
299.434
295.579
297.335
305.892
303.795
294.113
296.976
300.965
300.928
298.118
299.093
301.229
304.746
303.841
299.918
295.444
297.978
294.638
288.112
282.146
276.284
273.02
276.889
272.277
274.633
277.436
280.88
289.255
297.772
300.607
312.698
315.171
320.306
324.189
321.914
326.131
323.956
321.948
319.871
317.865
327.516
318.541
293.149
315.891
304.132
267.353
273.21
267.732
271.689
282.834
278.408
272.479
281.539
274.499
275.881
292.846
284.906
290.546
291.673
285.941
280.187
278.822
280.184
278.625
276.794
279.269
279.495
278.547
278.596
279.94
281.78
283.325
284.031
283.618
282.948
282.627
283.304
284.042
284.274
284.081
283.05
282.884
282.388
281.617
281.507
280.987
279.94
279.619
278.967
279.451
281.986
283.43
283.194
282.748
283.374
284.774
285.324
284.691
284.232
283.27
283.267
285.802
287.893
289.268
291.114
290.762
290.208
291.016
290.776
291.081
292.022
293.36
294.775
295.069
296.477
296.739
297.918
299.218
304.074
304.987
308.13
303.649
303.31
298.913
295.198
295.506
296.22
295.372
299.319
303.37
299.027
290.669
284.027
280.617
282.723
289.48
294.84
295.745
294.769
297.068
300.591
300.598
297.967
297.441
298.282
297.724
298.052
301.328
303.463
302.865
304.399
304.418
304.36
308.696
309.794
312.416
312.523
313.36
316.303
319.141
320.867
308.444
304.874
304.354
308.894
300.06
295.204
296.77
302.655
305.414
306.256
304.809
298.171
282.287
276.031
283.276
283.556
276.89
283.003
286.06
291.025
295.787
299.525
304.674
309.514
299.437
294.07
298.83
300.884
299.087
299.166
299.994
304.974
305.324
305.495
298.511
299.82
300.157
294.367
290.663
282.69
278.721
282.151
279.594
279.323
286.877
290.895
298.922
308.953
305.89
319.235
320.547
318.429
325.363
322.768
324.453
320.133
319.264
317.49
315.713
322.197
313.91
284.332
282.471
266.544
251.188
264.04
262.732
263.402
290.387
296.266
277.742
282.644
277.191
274.081
286.142
276.415
288.038
292.498
287.282
279.182
277.771
281.458
283.332
274.689
275.242
279.504
279.582
278.697
278.825
279.537
280.718
282.647
283.194
283.455
283.931
283.639
283.893
283.642
283.073
282.831
282.041
281.169
281.301
280.786
280.711
281.147
281.388
282.204
282.114
282.35
283.333
283.184
282.918
282.936
282.881
283.795
284.696
284.139
283.258
283.44
285.019
287.943
290.041
291.017
292.14
291.107
290.515
291.434
292.273
292.883
294.234
295.821
296.2
296.752
297.988
298.197
297.167
300.818
303.651
308.092
305.575
304.415
301.03
296.942
296.35
293.513
293.073
296.978
302.191
300.764
292.635
285.394
281.882
283.462
288.578
293.121
294.055
294.807
297.658
301.074
300.897
299.321
298.929
299.26
299.321
300.962
303.76
304.225
302.91
306.558
308.615
309.383
315.465
315.381
317.264
311.904
307.946
303.546
307.115
316.662
309.973
299.355
303.42
305.649
300.077
298.032
293.616
298.042
306.268
305.599
298.548
293.699
286.924
274.655
278.582
286.637
279.646
290.496
299.079
291.629
291.59
295.738
299.512
310.376
305.979
295.501
296.218
298.854
297.925
299.555
297.73
304.756
304.283
309.708
302.643
302.713
302.375
299.657
299.267
291.958
287.66
289.062
288.672
285.93
299.545
300.113
308.699
317.102
309.704
324.1
321.632
318.578
327.927
322.214
320.117
316.972
319.147
320.498
313.189
314.784
300.923
269.058
259.359
251.909
250.52
256.225
267.252
261.768
286.029
309.684
288.763
292.763
283.029
273.426
281.361
272.547
286.404
293.592
289.607
282.073
274.648
276.833
285.173
281.85
276.999
279.006
279.366
278.68
278.307
278.679
278.929
279.741
280.686
281.621
282.131
282.644
283.121
283.275
284.123
285.112
285.975
286.093
286.218
286.142
284.851
284.804
285.432
284.441
283.585
283.483
283.055
282.841
283.307
282.849
283.011
285.089
285.168
283.703
283.707
285.453
288.294
289.283
290.384
289.874
289.435
290.943
291.226
292.494
294.04
294.213
294.675
296.424
297.098
297.062
299.644
300.912
299.616
299.472
302.42
306.737
307.209
305.246
303.638
297.151
298.265
293.274
289.192
293.9
299.452
299.931
294.535
287.503
283.277
283.758
288.649
292.962
293.927
294.445
297.773
300.611
300.264
299.202
298.762
298.245
298.236
301.065
303.584
304.327
302.75
305.691
310.129
308.313
312.825
309.078
313.221
314.569
315.529
305.786
303.023
313.449
308.104
300.226
301.509
304.038
301.434
296.408
293.117
298.623
308.121
307.742
293.128
281.068
281.569
277.637
276.467
285.997
282.707
288.312
301.206
296.833
297.078
298.389
298.812
309.866
309.815
299.839
295.539
298.234
296.702
299.984
295.763
303.574
302.167
309.929
306.208
308.253
304.199
303.936
304.28
303.487
297.85
299.956
298.456
294.778
310.87
305.427
317.031
319.924
312.357
328.688
319.373
318.133
327.869
317.978
315.947
314.747
318.911
315.698
307.179
307.842
295.322
266.061
258.713
253.709
252.59
252.345
270.175
265.646
275.752
305.866
299.267
304.127
289.182
276.72
279.191
268.787
286.043
294.868
292.673
288.088
277.035
273.205
280.821
285.624
283.214
283.488
282.483
280.817
278.99
277.855
277.278
277.731
279.088
280.097
281.496
283.334
284.133
285.44
286.932
286.89
286.015
285.205
284.565
283.986
281.899
281.137
281.861
280.774
280.606
281.446
281.832
282.211
283.728
285.359
285.119
285.115
286.674
287.275
288.039
287.86
289.898
291.457
291.251
292.28
290.956
291.715
292.171
291.871
294.127
295.019
294.703
296.973
298.424
296.747
297.704
300.789
301.91
301.65
303.724
306.555
307.896
305.429
305.797
297.562
297.425
295.992
286.777
289.014
296.909
297.596
292.737
287.782
285.025
284.485
287.224
290.788
292.778
294.254
298.09
301.125
300.694
299.603
299.137
298.149
298.387
301.236
303
304.926
305.402
303.002
306.648
303.64
304.769
298.657
300.404
308.206
317.423
310.677
301.629
311.441
307.353
298.845
298.787
300.348
299.784
294.309
290.887
297.039
307.3
304.597
291.454
280.17
278.302
281.917
283.092
287.65
289.981
292.643
300.331
297.221
299.925
299.735
300.194
309.951
310.789
304.616
294.848
297.139
295.135
299.309
295.057
301.347
301.164
306.539
308.518
311.859
307.966
307.6
306.902
312.869
305.579
311.083
305.349
304.696
317.02
308.365
323.34
318.67
315.122
329.099
315.288
318.985
325.677
312.13
311.581
312.755
320.743
311.106
300.201
298.7
287.69
266.417
260.984
253.212
255.921
256.679
269.798
269.435
273.096
298.623
305.096
312.129
294.498
283.763
279.846
267.828
284.242
295.502
293.953
291.316
283.111
273.102
274.381
280.317
283.37
284.888
285.127
284.934
284.239
283.659
283.77
283.881
283.591
284.069
285.219
284.63
283.091
282.87
282.071
280.695
279.891
280.458
280.922
280.694
280.79
282.181
283.981
285.07
286.567
287.862
289.081
288.527
287.414
287.906
288.466
287.753
287.412
287.966
290.804
293.834
293.351
293.21
290.029
290.516
291.418
292.067
294.953
293.894
293.854
295.495
295.117
296.155
299.383
299.382
298.307
300.397
301.394
301.696
303.299
306.464
308.05
305.824
306.003
299.927
295.174
297.763
288.394
285.217
293.887
297.037
290.977
285.568
284.612
286.444
288.455
290.205
290.864
292.823
296.323
299.826
299.913
299.446
299.036
298.669
298.836
302.811
303.986
303.568
307.33