/*--------------------------------*- C++ -*----------------------------------*\
| =========                 |                                                 |
| \\      /  F ield         | OpenFOAM: The Open Source CFD Toolbox           |
|  \\    /   O peration     | Version:  dev                                   |
|   \\  /    A nd           | Web:      http://www.openfoam.org               |
|    \\/     M anipulation  |                                                 |
\*---------------------------------------------------------------------------*/
FoamFile
{
    version     2.0;
    format      ascii;
    class       volVectorField;
    object      U;
    location    "9.129";
}
// * * * * * * * * * * * * * * * * * * * * * * * * * * * * * * * * * * * * * //

dimensions      [0 1 -1 0 0 0 0];

internalField   nonuniform List<vector> 
12225
(
(6.98525 0.163415 0)
(3.31405 -0.0243622 0)
(0.657317 -0.20053 0)
(0.468573 -0.286934 0)
(-1.31499 -0.190464 0)
(-0.533716 -0.361522 0)
(-2.02973 -0.194828 0)
(-1.16018 -0.380803 0)
(-2.27587 -0.218099 0)
(-1.17834 -0.40301 0)
(-2.08364 -0.21504 0)
(-0.359273 -0.431385 0)
(-0.983681 -0.234041 0)
(3.15059 -0.682385 0)
(6.15078 -0.873909 0)
(12.3793 -3.51858 0)
(36.5468 -3.04836 0)
(19.5166 6.44615 0)
(9.49208 0.49519 0)
(8.09111 0.352478 0)
(3.89271 -0.163574 0)
(4.4348 -0.420838 0)
(-0.367869 -0.398897 0)
(2.18763 -0.756034 0)
(-2.85936 -0.34323 0)
(0.459685 -0.833064 0)
(-4.40536 -0.432372 0)
(-0.429987 -0.898387 0)
(-5.30094 -0.640733 0)
(0.00462168 -1.2897 0)
(-4.48946 -1.33218 0)
(4.77201 -3.21438 0)
(1.97033 -4.46586 0)
(15.7835 -11.3184 0)
(20.7068 -3.11342 0)
(11.5395 10.3319 0)
(8.77555 -0.123111 0)
(10.9879 0.132658 0)
(5.3962 -0.349783 0)
(9.02907 -0.462687 0)
(1.49808 -0.639386 0)
(7.26017 -0.962453 0)
(-1.08475 -0.615297 0)
(5.90673 -1.20912 0)
(-1.96134 -0.684428 0)
(4.80197 -1.41535 0)
(-1.92356 -0.857042 0)
(3.56573 -1.84611 0)
(-1.27565 -1.95203 0)
(4.03227 -3.60389 0)
(1.18101 -5.67359 0)
(4.90633 -8.34105 0)
(-1.62506 1.53501 0)
(-3.62574 12.7784 0)
(6.61878 -0.895125 0)
(13.3877 -0.187961 0)
(5.21413 -0.814031 0)
(12.1677 -0.719183 0)
(3.34633 -0.980035 0)
(10.5042 -1.28812 0)
(1.66126 -0.972197 0)
(8.71792 -1.86823 0)
(1.16778 -0.949094 0)
(7.58663 -2.40625 0)
(1.53061 -1.07736 0)
(6.19364 -2.76051 0)
(2.42084 -2.11709 0)
(4.48479 -4.24476 0)
(2.23389 -6.44808 0)
(-2.42179 -8.21343 0)
(-4.11865 -1.47679 0)
(-10.2892 13.7142 0)
(5.79906 -1.26591 0)
(13.1213 -1.13889 0)
(6.52374 -1.10784 0)
(11.7279 -1.44102 0)
(5.7479 -1.16343 0)
(10.3067 -1.82307 0)
(4.16527 -1.11533 0)
(8.54927 -2.38119 0)
(2.61424 -1.17756 0)
(7.97636 -3.05671 0)
(1.38332 -1.04656 0)
(7.76066 -3.77215 0)
(2.24109 -1.81892 0)
(7.22585 -5.23168 0)
(2.81699 -3.73203 0)
(1.58023 -8.45967 0)
(-3.23895 0.775369 0)
(-4.11575 16.4945 0)
(8.03994 -1.70269 0)
(10.3155 -2.12411 0)
(7.43057 -1.77863 0)
(9.00211 -2.19459 0)
(6.55578 -1.79399 0)
(7.99773 -2.22726 0)
(4.85697 -1.72763 0)
(6.53892 -2.60625 0)
(3.06445 -1.97207 0)
(5.45061 -2.96977 0)
(0.0379047 -2.14511 0)
(5.25889 -3.94337 0)
(-2.27922 -2.88554 0)
(5.3036 -5.0925 0)
(-4.31994 -4.19132 0)
(4.45616 -5.89042 0)
(-8.03805 -0.0686301 0)
(3.39752 15.5742 0)
(9.8151 -2.00841 0)
(8.4851 -3.08012 0)
(8.5448 -1.85064 0)
(7.14158 -3.09933 0)
(7.1924 -1.85283 0)
(5.95389 -2.98806 0)
(5.96681 -1.69431 0)
(4.69765 -3.32541 0)
(4.42267 -1.82417 0)
(3.55339 -3.41886 0)
(2.49405 -2.11317 0)
(2.11946 -4.21742 0)
(-0.341857 -2.71164 0)
(1.21867 -5.60452 0)
(-5.53973 -4.12814 0)
(-0.190779 -7.8491 0)
(-11.5673 2.58483 0)
(-1.60693 8.82522 0)
(10.0458 -2.55927 0)
(8.6409 -3.436 0)
(8.51428 -2.594 0)
(7.51315 -3.54832 0)
(7.20352 -2.72109 0)
(6.22464 -3.40583 0)
(6.4936 -2.64082 0)
(4.96009 -3.51392 0)
(5.50704 -2.74797 0)
(3.51666 -3.53298 0)
(4.76479 -2.83215 0)
(1.99094 -3.99529 0)
(3.06751 -3.41998 0)
(0.0984069 -4.33463 0)
(0.116941 -3.63555 0)
(-3.36729 -4.39928 0)
(-7.46053 4.09814 0)
(-4.32208 2.14362 0)
(10.2952 -2.87153 0)
(8.71997 -4.32621 0)
(9.03585 -2.57615 0)
(7.57228 -4.40831 0)
(7.44714 -2.56146 0)
(6.20988 -4.3687 0)
(6.29155 -2.36562 0)
(5.11722 -4.50243 0)
(5.30365 -2.33234 0)
(4.17318 -4.52318 0)
(4.48302 -2.43142 0)
(3.24785 -4.81732 0)
(3.4474 -2.90604 0)
(2.04872 -5.30198 0)
(1.90529 -3.06349 0)
(-0.193759 -4.94039 0)
(-2.15905 0.0505742 0)
(1.73486 0.568883 0)
(9.9773 -3.87847 0)
(8.35825 -4.62203 0)
(8.61151 -3.5728 0)
(7.50976 -4.47366 0)
(7.36043 -3.7145 0)
(6.42525 -4.24555 0)
(6.22989 -3.65859 0)
(5.57257 -4.17404 0)
(5.10552 -3.74653 0)
(4.75121 -4.12246 0)
(3.98438 -3.77031 0)
(3.57157 -4.46495 0)
(2.92714 -3.75362 0)
(2.22358 -4.83601 0)
(1.6167 -2.87989 0)
(0.981466 -4.34777 0)
(0.606693 -1.19943 0)
(2.51756 -2.01607 0)
(10.3419 -4.07315 0)
(8.72806 -5.68844 0)
(8.60705 -3.79394 0)
(7.42841 -5.6007 0)
(7.27225 -3.77557 0)
(6.32805 -5.48455 0)
(6.29032 -3.67497 0)
(5.51 -5.4023 0)
(5.25839 -3.71444 0)
(4.5082 -5.19727 0)
(4.20804 -3.87567 0)
(3.24075 -5.12142 0)
(2.90806 -4.13031 0)
(1.9781 -4.90659 0)
(1.5827 -3.84266 0)
(1.24776 -4.10797 0)
(1.00709 -2.97417 0)
(1.8388 -2.63816 0)
(10.0981 -5.14616 0)
(8.88088 -5.65316 0)
(8.32101 -4.97933 0)
(7.46367 -5.57133 0)
(6.97565 -5.2043 0)
(6.34267 -5.4655 0)
(5.83426 -5.08288 0)
(5.42769 -5.24677 0)
(4.81853 -4.88881 0)
(4.47103 -4.96704 0)
(3.73799 -4.71466 0)
(3.31996 -5.02874 0)
(2.83868 -4.59197 0)
(2.25253 -5.00173 0)
(1.84565 -4.20805 0)
(1.62421 -4.43835 0)
(1.4697 -3.82231 0)
(1.6567 -3.67048 0)
(10.0251 -5.6745 0)
(9.20495 -6.61448 0)
(8.54595 -5.51277 0)
(7.8225 -6.52879 0)
(7.20577 -5.57574 0)
(6.50657 -6.34676 0)
(5.91604 -5.44018 0)
(5.34338 -6.06428 0)
(4.7972 -5.39994 0)
(4.28632 -5.73176 0)
(3.77872 -5.39324 0)
(3.31024 -5.44696 0)
(2.84513 -5.29055 0)
(2.43433 -5.29342 0)
(2.05738 -5.00974 0)
(1.82676 -4.92801 0)
(1.70565 -4.71628 0)
(1.73398 -4.57596 0)
(9.62569 -6.78803 0)
(8.83158 -6.93926 0)
(8.24695 -6.62416 0)
(7.62453 -6.79915 0)
(7.0373 -6.62645 0)
(6.51916 -6.66393 0)
(5.92567 -6.37929 0)
(5.43983 -6.35655 0)
(4.89916 -6.13776 0)
(4.38159 -6.11773 0)
(3.83781 -5.93978 0)
(3.38623 -5.90227 0)
(2.96987 -5.74439 0)
(2.56084 -5.66889 0)
(2.22373 -5.51494 0)
(1.97537 -5.40496 0)
(1.83118 -5.29062 0)
(1.73516 -5.23119 0)
(9.72099 -7.45421 0)
(9.00283 -7.69073 0)
(8.45101 -7.41259 0)
(7.83162 -7.53855 0)
(7.19179 -7.29466 0)
(6.57645 -7.29985 0)
(6.01351 -7.00804 0)
(5.48569 -6.88754 0)
(4.95754 -6.70365 0)
(4.46043 -6.5944 0)
(3.98799 -6.45173 0)
(3.5348 -6.33434 0)
(3.14387 -6.22544 0)
(2.7882 -6.11639 0)
(2.45637 -5.99032 0)
(2.1843 -5.89724 0)
(1.98337 -5.82942 0)
(1.82593 -5.80521 0)
(10.0364 -8.20954 0)
(9.20373 -8.21022 0)
(8.55316 -8.02702 0)
(7.87579 -7.95973 0)
(7.21148 -7.81805 0)
(6.6705 -7.69172 0)
(6.1702 -7.51091 0)
(5.65657 -7.37094 0)
(5.18525 -7.2234 0)
(4.71318 -7.07784 0)
(4.24015 -6.92862 0)
(3.78609 -6.78925 0)
(3.3809 -6.63685 0)
(3.02401 -6.5141 0)
(2.68101 -6.38022 0)
(2.36299 -6.2782 0)
(2.11802 -6.21085 0)
(1.9129 -6.16359 0)
(9.84811 -8.65868 0)
(9.04439 -8.49099 0)
(8.52853 -8.26284 0)
(7.9338 -8.22639 0)
(7.34481 -8.15784 0)
(6.84261 -8.03837 0)
(6.38487 -7.8648 0)
(5.90835 -7.63104 0)
(5.44869 -7.39177 0)
(4.99123 -7.19849 0)
(4.53577 -7.02083 0)
(4.11039 -6.88044 0)
(3.70452 -6.74067 0)
(3.33281 -6.6129 0)
(3.00406 -6.49677 0)
(2.67793 -6.37912 0)
(2.40487 -6.28265 0)
(2.20152 -6.21406 0)
(9.73646 -8.46243 0)
(8.98839 -8.56298 0)
(8.57755 -8.34897 0)
(8.18546 -8.18926 0)
(7.72326 -8.05739 0)
(7.21495 -7.94995 0)
(6.71906 -7.82288 0)
(6.22311 -7.65219 0)
(5.73656 -7.44167 0)
(5.27839 -7.24205 0)
(4.83708 -7.04416 0)
(4.40502 -6.87837 0)
(4.01185 -6.72999 0)
(3.62886 -6.59686 0)
(3.28216 -6.48527 0)
(2.95966 -6.37992 0)
(2.66433 -6.29435 0)
(2.444 -6.22006 0)
(10.0728 -8.14204 0)
(9.32469 -8.27229 0)
(8.92259 -8.15323 0)
(8.5029 -7.98753 0)
(8.06415 -7.76724 0)
(7.60902 -7.55597 0)
(7.14365 -7.35824 0)
(6.67088 -7.1614 0)
(6.20113 -6.95514 0)
(5.7453 -6.76111 0)
(5.31193 -6.58442 0)
(4.88735 -6.44002 0)
(4.48042 -6.31122 0)
(4.08012 -6.20831 0)
(3.70443 -6.0939 0)
(3.33754 -5.99584 0)
(2.97779 -5.89043 0)
(2.66719 -5.79139 0)
(10.1675 -7.32646 0)
(9.47423 -7.47865 0)
(9.05895 -7.40045 0)
(8.57326 -7.28795 0)
(8.09855 -7.1188 0)
(7.65616 -6.94498 0)
(7.2636 -6.78729 0)
(6.87131 -6.63177 0)
(6.46851 -6.46829 0)
(6.06603 -6.29906 0)
(5.66149 -6.13411 0)
(5.23739 -5.97599 0)
(4.81731 -5.82557 0)
(4.3965 -5.68879 0)
(3.9839 -5.55909 0)
(3.58198 -5.45128 0)
(3.19616 -5.35475 0)
(2.84811 -5.28066 0)
(10.3278 -6.58254 0)
(9.64209 -6.71509 0)
(9.30262 -6.63228 0)
(8.89612 -6.51453 0)
(8.50516 -6.36964 0)
(8.07605 -6.25287 0)
(7.65866 -6.12724 0)
(7.22539 -5.9936 0)
(6.78422 -5.83049 0)
(6.34738 -5.65717 0)
(5.91066 -5.47979 0)
(5.48139 -5.31939 0)
(5.07263 -5.16743 0)
(4.66091 -5.03303 0)
(4.2803 -4.90931 0)
(3.90063 -4.80884 0)
(3.52374 -4.72558 0)
(3.18061 -4.66379 0)
(9.99468 -5.60635 0)
(9.49311 -5.74215 0)
(9.25771 -5.80669 0)
(8.97009 -5.77281 0)
(8.64914 -5.64664 0)
(8.27242 -5.48737 0)
(7.88266 -5.3406 0)
(7.46373 -5.21188 0)
(7.04156 -5.07592 0)
(6.63578 -4.95258 0)
(6.23286 -4.82033 0)
(5.82935 -4.70968 0)
(5.43952 -4.5913 0)
(5.04676 -4.48415 0)
(4.66617 -4.37764 0)
(4.28067 -4.27537 0)
(3.91243 -4.18585 0)
(3.56502 -4.1034 0)
(9.974 -4.88112 0)
(9.60116 -5.07026 0)
(9.49704 -5.07568 0)
(9.20741 -4.98095 0)
(8.87658 -4.85781 0)
(8.53932 -4.70918 0)
(8.18124 -4.60547 0)
(7.81713 -4.52288 0)
(7.39394 -4.42917 0)
(6.94264 -4.33697 0)
(6.47546 -4.23106 0)
(6.00399 -4.11028 0)
(5.55554 -3.98212 0)
(5.12197 -3.85121 0)
(4.72535 -3.7411 0)
(4.35645 -3.65109 0)
(3.99043 -3.57881 0)
(3.66702 -3.52057 0)
(10.0167 -4.13511 0)
(9.66413 -4.30712 0)
(9.55449 -4.31538 0)
(9.35358 -4.25342 0)
(9.10976 -4.16252 0)
(8.84319 -4.06428 0)
(8.52208 -3.93877 0)
(8.17524 -3.81837 0)
(7.73841 -3.67617 0)
(7.25294 -3.55641 0)
(6.74839 -3.46744 0)
(6.24107 -3.39077 0)
(5.77194 -3.33772 0)
(5.33136 -3.27679 0)
(4.92939 -3.21966 0)
(4.56357 -3.16548 0)
(4.2279 -3.12623 0)
(3.92153 -3.06757 0)
(10.2266 -3.52285 0)
(9.8223 -3.71368 0)
(9.77543 -3.68459 0)
(9.62753 -3.60427 0)
(9.33569 -3.48501 0)
(8.95171 -3.36756 0)
(8.49941 -3.25853 0)
(8.09555 -3.14947 0)
(7.69459 -3.04751 0)
(7.29863 -2.94974 0)
(6.91914 -2.8822 0)
(6.51974 -2.81852 0)
(6.12341 -2.76843 0)
(5.71314 -2.72615 0)
(5.30391 -2.68195 0)
(4.88194 -2.64622 0)
(4.48254 -2.60995 0)
(4.10714 -2.58115 0)
(10.312 -2.68303 0)
(9.89452 -2.97602 0)
(9.85285 -3.02863 0)
(9.74763 -2.94161 0)
(9.5507 -2.80989 0)
(9.26319 -2.70279 0)
(8.89323 -2.61527 0)
(8.50692 -2.53174 0)
(8.06735 -2.46918 0)
(7.59711 -2.41197 0)
(7.11711 -2.37436 0)
(6.61849 -2.32278 0)
(6.12598 -2.28507 0)
(5.62656 -2.21914 0)
(5.14379 -2.18852 0)
(4.68403 -2.12804 0)
(4.23973 -2.09112 0)
(3.8239 -2.0713 0)
(10.0309 -2.246 0)
(9.96554 -2.56566 0)
(10.0375 -2.54109 0)
(9.88298 -2.44421 0)
(9.61715 -2.30319 0)
(9.25778 -2.18384 0)
(8.81745 -2.0562 0)
(8.34094 -1.95659 0)
(7.79725 -1.87599 0)
(7.23104 -1.79749 0)
(6.63638 -1.75971 0)
(6.02291 -1.72613 0)
(5.40491 -1.70599 0)
(4.77379 -1.67293 0)
(4.18745 -1.64647 0)
(3.60583 -1.625 0)
(3.04687 -1.61804 0)
(2.51147 -1.60474 0)
(10.1873 -1.67476 0)
(10.2092 -1.96298 0)
(10.1482 -1.90415 0)
(9.60364 -1.80697 0)
(8.89406 -1.70634 0)
(8.1489 -1.57666 0)
(7.41672 -1.45168 0)
(6.68893 -1.37342 0)
(5.95179 -1.30274 0)
(5.21752 -1.23862 0)
(4.46635 -1.20921 0)
(3.70649 -1.17512 0)
(2.95037 -1.13962 0)
(2.21983 -1.10245 0)
(1.50587 -1.06491 0)
(0.808126 -1.06432 0)
(0.160345 -1.05737 0)
(-0.482413 -1.0433 0)
(9.76155 -1.47209 0)
(9.32605 -1.69016 0)
(8.54461 -1.43541 0)
(7.2773 -1.18847 0)
(5.98554 -0.983007 0)
(4.81385 -0.819549 0)
(3.77769 -0.720419 0)
(2.8503 -0.665709 0)
(1.99165 -0.629695 0)
(1.20131 -0.602681 0)
(0.443607 -0.585946 0)
(-0.300095 -0.573386 0)
(-1.00774 -0.554594 0)
(-1.67066 -0.546434 0)
(-2.30724 -0.538101 0)
(-2.91023 -0.543837 0)
(-3.46757 -0.575772 0)
(-3.98213 -0.56207 0)
(8.59738 -0.624058 0)
(5.51726 -0.580076 0)
(3.53346 -0.334495 0)
(2.2034 -0.212362 0)
(1.39582 -0.145418 0)
(0.845797 -0.137808 0)
(0.412623 -0.138635 0)
(-0.000463668 -0.14367 0)
(-0.423801 -0.144799 0)
(-0.857119 -0.143196 0)
(-1.30626 -0.142208 0)
(-1.77271 -0.144153 0)
(-2.24572 -0.145997 0)
(-2.71957 -0.148382 0)
(-3.20024 -0.150632 0)
(-3.68584 -0.16753 0)
(-4.19579 -0.199694 0)
(-4.79408 -0.210341 0)
(0.0738874 -0.0711877 0)
(0.161263 -0.058629 0)
(0.229944 -0.03392 0)
(0.294088 -0.0139179 0)
(0.376761 -0.00332098 0)
(0.445161 -0.00455741 0)
(0.508226 -0.00608345 1.0933e-17)
(0.550586 -0.0095545 -1.08684e-17)
(0.573543 -0.0237487 0)
(0.573911 -0.0441082 -1.07613e-17)
(0.545478 -0.0459819 0)
(0.526175 -0.00829823 0)
(0.51664 0.0269874 0)
(0.483981 0.0557981 1.05946e-17)
(0.44131 0.0819944 0)
(0.362283 0.0517052 0)
(0.207264 0.0357013 -1.0455e-17)
(0.0349106 0.0564802 0)
(-0.15194 0.0681377 0)
(-0.380702 0.0646747 0)
(-0.643492 0.0282069 1.02287e-17)
(-0.984369 0.0351048 0)
(-1.38809 0.110107 1.01213e-17)
(-1.85303 0.254824 0)
(-2.31903 0.366641 0)
(-2.72621 0.378203 9.89981e-18)
(-3.01643 0.273678 0)
(-3.16691 0.121757 -9.75483e-18)
(-3.20194 -0.019208 0)
(-3.16221 -0.12244 9.62927e-18)
(-3.09227 -0.192294 0)
(-2.99931 -0.255529 0)
(-2.89501 -0.296743 0)
(-2.75084 -0.33884 0)
(-2.59709 -0.382589 0)
(-2.41134 -0.410409 -9.2826e-18)
(-2.18434 -0.441831 0)
(-1.96667 -0.475877 1.83437e-17)
(-1.73208 -0.491832 0)
(-1.50175 -0.524497 -1.81283e-17)
(-1.26124 -0.546276 0)
(-0.975793 -0.578084 0)
(-0.68688 -0.607458 1.78146e-17)
(-0.404157 -0.627019 0)
(-0.124505 -0.665996 1.76072e-17)
(0.20467 -0.735168 -1.75071e-17)
(0.625132 -0.810882 0)
(1.1173 -0.847147 -1.73029e-17)
(1.62365 -0.84536 -1.71936e-17)
(2.08633 -0.848007 0)
(2.54913 -0.929171 0)
(3.13364 -1.02047 0)
(3.84248 -1.0534 0)
(4.55245 -1.03701 0)
(5.24031 -1.00714 1.6568e-17)
(5.89537 -0.950234 0)
(6.38773 -0.925448 -1.63763e-17)
(6.78946 -0.929209 0)
(7.24288 -0.882231 0)
(7.57463 -0.717968 1.61361e-17)
(7.62837 -0.513839 0)
(7.53845 -0.480416 -1.60519e-17)
(7.4283 -0.727792 0)
(7.33751 -1.08008 0)
(7.22721 -1.32629 0)
(7.11438 -1.37694 1.56373e-17)
(7.10069 -1.23705 0)
(7.16508 -1.07153 0)
(7.16849 -0.985111 1.52796e-17)
(7.04902 -0.973208 0)
(6.8625 -0.98864 1.50802e-17)
(6.7294 -1.11701 0)
(7.01109 -1.38774 0)
(7.91684 -1.68694 0)
(9.28187 -1.82286 -1.45855e-17)
(10.799 -1.63744 0)
(11.8838 -1.06977 0)
(12.0855 -0.596692 -1.43819e-17)
(11.4849 -0.648768 -1.43969e-17)
(10.5581 -1.04209 0)
(9.94394 -1.46062 -1.41688e-17)
(10.0999 -1.77323 0)
(10.9292 -2.05089 -2.77339e-17)
(11.9311 -2.29712 0)
(12.7262 -2.42504 -2.75966e-17)
(13.0085 -2.05644 0)
(12.5033 -1.31762 2.76846e-17)
(11.2752 -0.769472 0)
(9.7242 -0.509837 0)
(8.17104 -0.464715 0)
(6.79993 -0.569677 -2.6091e-17)
(5.50675 -0.739246 0)
(4.25842 -0.881551 2.56016e-17)
(3.0149 -0.936175 0)
(1.61258 -0.879878 -2.51983e-17)
(0.184384 -0.874665 -2.50839e-17)
(-1.0584 -1.02509 -2.50388e-17)
(-1.88479 -1.27837 0)
(-2.16279 -1.55761 0)
(-2.30997 -1.66696 0)
(-2.92254 -1.53569 0)
(-4.06372 -1.4536 0)
(-4.70177 -1.88846 0)
(-3.94975 -2.80139 0)
(-2.05526 -3.30457 0)
(0.214864 -1.87569 2.35668e-17)
(-3.54209 -0.782235 2.26032e-17)
(-3.47235 -2.73796 0)
(-1.778 -2.02299 0)
(-2.37361 -2.12873 0)
(-1.3583 -2.26579 2.23701e-17)
(-0.858314 -2.03267 0)
(-0.565819 -2.0141 0)
(-0.247697 -1.90668 0)
(-0.0746954 -1.87283 0)
(0.136078 -1.80621 -2.15877e-17)
(0.275894 -1.76838 0)
(0.343255 -1.73913 0)
(0.407947 -1.70373 2.11712e-17)
(0.514293 -1.68717 -2.10429e-17)
(0.639244 -1.70245 0)
(0.795826 -1.6948 -2.08219e-17)
(1.0007 -1.68739 0)
(1.16313 -1.66663 2.06487e-17)
(1.27232 -1.66806 0)
(1.29924 -1.6948 0)
(1.30787 -1.72461 0)
(1.28006 -1.8152 0)
(1.19281 -1.8739 0)
(1.08145 -1.83601 -4.06388e-17)
(0.962725 -1.85013 -4.0453e-17)
(0.857606 -1.89926 0)
(0.782414 -1.9627 0)
(0.706855 -1.97632 0)
(0.545951 -1.96059 3.9575e-17)
(0.37403 -2.0171 0)
(0.485349 -2.12654 0)
(0.903566 -2.17091 0)
(1.36352 -2.15594 3.86339e-17)
(1.59481 -2.10479 -3.84107e-17)
(1.56187 -2.0965 0)
(1.3695 -2.1215 0)
(0.948673 -2.12476 -3.77528e-17)
(0.12687 -2.11832 -3.7601e-17)
(-1.16821 -2.02729 0)
(-2.87526 -1.79443 0)
(-4.76314 -1.67684 3.68218e-17)
(-6.56876 -1.55876 -3.65183e-17)
(-7.7801 -1.63447 0)
(-8.52429 -1.63768 0)
(-8.86136 -1.7513 -3.55151e-17)
(-8.55296 -1.7105 0)
(-7.90656 -1.87656 0)
(-6.87343 -1.74667 -3.48554e-17)
(-5.99348 -1.7479 0)
(-4.69971 -1.72486 -3.44695e-17)
(-3.15495 -1.83361 0)
(-1.27814 -1.79999 0)
(0.788081 -1.94661 0)
(1.91601 -1.83781 3.35877e-17)
(4.56356 -2.33613 0)
(7.22046 -2.24948 0)
(9.42611 -2.11514 0)
(10.4744 -1.93044 0)
(10.0077 -1.70503 0)
(9.39213 -1.964 0)
(8.70748 -1.90165 3.2591e-17)
(7.73058 -1.92226 3.24699e-17)
(6.95081 -2.00808 0)
(5.52485 -1.91655 0)
(3.66464 -1.87557 0)
(1.28498 -1.80387 -3.16587e-17)
(-0.954845 -1.82284 0)
(-2.87443 -1.82502 6.2174e-17)
(-4.48655 -1.85234 -6.14144e-17)
(-5.73396 -1.82546 -6.08633e-17)
(-7.12092 -1.74769 6.05636e-17)
(-8.40649 -1.71065 -6.03635e-17)
(-9.37702 -1.71411 6.03477e-17)
(-10.7812 -1.54435 0)
(0.0511345 -0.0463869 0)
(0.047441 0.0951789 0)
(0.0748719 0.131162 -2.23459e-17)
(0.0503273 0.0455213 0)
(0.0188406 0.0216238 2.22441e-17)
(-0.0127467 0.0614394 2.20306e-17)
(-0.0521965 0.101574 1.09435e-17)
(-0.129877 0.144039 1.0863e-17)
(-0.222667 0.251079 0)
(-0.254383 0.367894 1.07906e-17)
(-0.247267 0.323701 0)
(-0.311683 0.18663 0)
(-0.401441 0.167278 -2.12024e-17)
(-0.480672 0.153482 -1.05221e-17)
(-0.66882 0.186345 2.08918e-17)
(-0.891633 0.438041 2.07647e-17)
(-1.16828 0.498488 1.03168e-17)
(-1.53885 0.500602 0)
(-1.94218 0.570531 0)
(-2.47433 0.647766 0)
(-3.06968 0.880941 1.01177e-17)
(-3.6793 1.03389 0)
(-4.28083 1.06007 -2.99731e-17)
(-4.7468 0.873905 0)
(-4.99387 0.587492 0)
(-5.09745 0.186392 -9.82307e-18)
(-5.06034 -0.195105 0)
(-4.93486 -0.558809 9.71104e-18)
(-4.8009 -0.826447 1.92998e-17)
(-4.64133 -0.947407 -9.59877e-18)
(-4.51984 -1.06337 0)
(-4.36876 -1.16305 0)
(-4.21266 -1.27804 0)
(-4.0376 -1.39279 1.87698e-17)
(-3.82118 -1.52368 1.86542e-17)
(-3.57689 -1.61455 9.26744e-18)
(-3.30012 -1.71668 0)
(-3.01493 -1.78382 -1.83112e-17)
(-2.72653 -1.84518 0)
(-2.42996 -1.94155 1.81017e-17)
(-2.10016 -2.05857 0)
(-1.75619 -2.17035 0)
(-1.42191 -2.23168 -1.78107e-17)
(-1.04044 -2.22544 0)
(-0.610678 -2.31525 -5.276e-17)
(-0.13223 -2.58065 1.75059e-17)
(0.391536 -2.87914 0)
(0.928759 -3.02545 1.7308e-17)
(1.51662 -2.97914 1.71628e-17)
(2.13517 -2.93856 0)
(2.80647 -3.20127 0)
(3.54441 -3.58705 0)
(4.3457 -3.73941 0)
(5.13846 -3.77483 0)
(5.8765 -3.83271 -1.65521e-17)
(6.69787 -3.72225 -3.27913e-17)
(7.51115 -3.45474 1.62558e-17)
(8.15999 -3.35846 0)
(8.75034 -3.41807 -3.22466e-17)
(9.39265 -3.2595 1.59801e-17)
(9.99226 -2.92387 0)
(10.5725 -2.83894 1.59088e-17)
(11.1324 -2.81195 0)
(11.4871 -2.38422 0)
(11.4688 -1.94415 3.13553e-17)
(11.0563 -2.17806 -1.5688e-17)
(10.3121 -2.77314 3.10677e-17)
(9.58164 -3.11704 -3.06124e-17)
(9.08323 -3.08259 -1.50993e-17)
(8.81455 -2.87513 0)
(8.68558 -2.80715 -1.48925e-17)
(8.55733 -3.31565 0)
(8.72402 -4.40899 0)
(9.54017 -5.62365 0)
(10.8905 -6.19607 -1.4459e-17)
(12.3387 -5.87635 0)
(13.7209 -4.84759 -2.77423e-17)
(15.003 -3.77517 4.17255e-17)
(14.9713 -2.65209 1.40646e-17)
(13.8623 -1.84696 0)
(13.5226 -2.70153 1.39821e-17)
(13.6763 -4.3177 0)
(13.4804 -5.1359 2.72721e-17)
(12.2249 -4.58636 0)
(10.259 -3.53947 2.61907e-17)
(8.24913 -2.70171 -5.21066e-17)
(6.43118 -2.09319 -2.5814e-17)
(4.85207 -1.83622 0)
(3.65659 -1.94678 0)
(2.76186 -2.23422 0)
(1.97403 -2.61824 2.54546e-17)
(1.15594 -2.90282 0)
(0.296581 -3.00461 -2.49306e-17)
(-0.706732 -3.00352 0)
(-1.89713 -3.08546 7.40127e-17)
(-2.97313 -3.55792 2.50127e-17)
(-3.59064 -4.46054 2.53111e-17)
(-3.75209 -5.33658 0)
(-3.60461 -5.805 0)
(-3.59064 -5.60962 0)
(-3.9926 -4.96575 0)
(-4.58655 -4.85424 0)
(-4.758 -6.31452 4.91125e-17)
(-4.3698 -8.83947 4.96007e-17)
(-3.79716 -9.39283 0)
(-2.63121 -5.42477 -2.31759e-17)
(-4.09201 -3.43968 -2.21911e-17)
(-1.39774 -8.7997 0)
(-2.61312 -6.18785 -4.52965e-17)
(-1.10788 -7.0586 0)
(-0.692981 -7.05863 2.26693e-17)
(0.149205 -6.58371 0)
(0.364058 -6.4758 0)
(0.876132 -6.23919 -4.42127e-17)
(1.2068 -6.12887 0)
(1.66067 -6.00295 2.16962e-17)
(2.01515 -5.83801 0)
(2.34467 -5.68082 0)
(2.62504 -5.67245 2.08097e-17)
(2.96091 -5.5873 2.06524e-17)
(3.28249 -5.51865 0)
(3.69683 -5.52736 -2.00654e-17)
(4.16906 -5.54756 0)
(4.59219 -5.43539 1.93987e-17)
(4.86421 -5.37115 3.84498e-17)
(5.15388 -5.31479 0)
(5.39344 -5.30197 0)
(5.56738 -5.20003 0)
(5.68482 -5.19903 0)
(5.56386 -5.2462 3.76751e-17)
(5.36786 -5.3491 1.12363e-16)
(5.22392 -5.4383 0)
(5.01285 -5.56329 0)
(4.61384 -5.60656 0)
(4.13426 -5.63685 -3.69931e-17)
(3.693 -5.86628 0)
(3.45815 -6.32809 0)
(3.68342 -6.62673 7.40753e-17)
(4.23094 -6.60791 3.66972e-17)
(4.68013 -6.3536 3.66585e-17)
(4.57215 -6.22652 0)
(3.94745 -6.02045 0)
(2.63976 -5.71571 3.60074e-17)
(0.229383 -5.19474 -3.56575e-17)
(-2.70026 -4.62172 0)
(-5.70722 -4.28102 0)
(-8.27945 -4.34903 -3.43805e-17)
(-10.1429 -4.45811 1.02082e-16)
(-11.1927 -4.95076 0)
(-11.6891 -5.04058 0)
(-11.5439 -5.52819 3.3297e-17)
(-10.9446 -5.43119 0)
(-9.83361 -5.80553 6.58183e-17)
(-8.50513 -5.51942 -3.30581e-17)
(-7.08368 -5.62138 0)
(-5.72466 -5.71236 3.35971e-17)
(-3.27227 -6.03853 6.68386e-17)
(-1.70463 -6.03242 0)
(1.44352 -6.13784 0)
(2.02625 -5.90924 -3.30164e-17)
(6.20961 -7.39721 0)
(8.06584 -7.04666 6.54806e-17)
(11.1313 -6.78485 0)
(12.1193 -6.09191 0)
(11.5369 -5.41211 0)
(11.4943 -6.03878 0)
(10.8453 -5.85856 -3.11272e-17)
(10.4157 -5.99692 -3.09833e-17)
(10.15 -6.08691 0)
(9.01538 -5.58256 0)
(7.43134 -5.36476 0)
(4.67809 -5.01821 2.97259e-17)
(2.27079 -5.19308 0)
(0.0236045 -5.30122 -5.77857e-17)
(-1.8158 -5.38494 5.66619e-17)
(-3.03509 -5.27606 5.53084e-17)
(-4.5537 -5.02286 5.40135e-17)
(-5.69481 -4.86256 5.42156e-17)
(-6.78779 -4.77349 5.45842e-17)
(-8.8012 -4.44526 0)
(0.0407555 0.128037 0)
(-0.0757908 0.27119 0)
(-0.167016 0.321939 2.27361e-17)
(-0.27394 0.444932 2.26443e-17)
(-0.313226 0.460064 -2.23807e-17)
(-0.410468 0.430295 -2.21823e-17)
(-0.51452 0.495281 1.72378e-20)
(-0.605732 0.587467 0)
(-0.638857 0.471791 0)
(-0.652011 0.208974 0)
(-0.701009 0.210797 0)
(-0.800063 0.426089 0)
(-1.02076 0.463729 6.30914e-17)
(-1.33311 0.684207 0)
(-1.73129 0.926047 -2.07984e-17)
(-2.06224 0.925532 -2.06525e-17)
(-2.39358 1.14893 0)
(-2.87892 1.30117 0)
(-3.38468 1.55197 0)
(-4.00407 1.74365 0)
(-4.57338 1.71989 -2.02343e-17)
(-5.07094 1.69432 0)
(-5.37301 1.45643 2.0089e-17)
(-5.6022 0.974718 0)
(-5.71589 0.382012 0)
(-5.6577 -0.175741 0)
(-5.61215 -0.789604 3.92168e-17)
(-5.50037 -1.13818 0)
(-5.41709 -1.38381 -1.94126e-17)
(-5.34402 -1.56784 3.8673e-17)
(-5.28903 -1.66923 0)
(-5.19722 -1.87867 0)
(-5.04852 -1.98426 0)
(-4.92384 -2.22433 -1.89603e-17)
(-4.7089 -2.41013 -1.88466e-17)
(-4.46101 -2.65176 0)
(-4.18863 -2.84092 0)
(-3.85845 -2.93129 3.7049e-17)
(-3.55343 -3.03497 3.68539e-17)
(-3.23865 -3.18002 -3.66977e-17)
(-2.88701 -3.40252 0)
(-2.53348 -3.59852 0)
(-2.13116 -3.72841 0)
(-1.66006 -3.84913 0)
(-1.1546 -4.00799 3.56657e-17)
(-0.686789 -4.36875 3.54625e-17)
(-0.158881 -4.7008 -3.52171e-17)
(0.343715 -4.90002 0)
(0.935217 -4.96023 0)
(1.67972 -5.10585 0)
(2.47687 -5.55043 0)
(3.13435 -6.01348 3.41519e-17)
(3.7774 -6.04549 0)
(4.51483 -6.04589 0)
(5.21451 -6.19485 3.34121e-17)
(5.82492 -6.10291 3.31449e-17)
(6.53722 -5.91249 0)
(7.34362 -5.88528 -6.52436e-17)
(8.02323 -5.77599 3.25124e-17)
(8.60456 -5.62193 -3.22969e-17)
(9.26273 -5.51379 0)
(10.1259 -5.43998 0)
(10.8285 -5.27826 0)
(11.4377 -4.94089 0)
(12.1862 -4.67898 -3.14416e-17)
(12.9284 -4.18592 -6.21895e-17)
(13.2886 -3.39324 -3.09048e-17)
(12.6951 -3.23605 3.1027e-17)
(11.5893 -3.92436 0)
(10.9357 -4.5637 -5.98487e-17)
(10.8481 -4.79975 -5.88062e-17)
(10.7784 -5.45875 -5.93761e-17)
(10.6782 -7.00211 6.04226e-17)
(10.9137 -8.85066 0)
(11.6978 -9.71676 8.70872e-17)
(12.5996 -9.43638 0)
(13.4839 -8.54847 -2.74095e-17)
(14.0827 -6.56342 -2.72981e-17)
(13.8223 -4.0946 0)
(13.9788 -3.90417 0)
(14.4606 -5.83727 -5.53928e-17)
(13.2286 -6.26906 0)
(10.6972 -4.95638 -5.29512e-17)
(8.3174 -3.93677 0)
(6.28873 -3.43854 5.21465e-17)
(4.60258 -3.15864 1.03682e-16)
(3.3207 -3.09195 0)
(2.41322 -3.40151 0)
(1.87253 -3.8857 0)
(1.41602 -4.32028 5.26066e-17)
(1.0275 -4.85214 0)
(0.528325 -5.09199 5.16874e-17)
(-0.118831 -5.13322 0)
(-0.748788 -5.11677 0)
(-1.4457 -5.39267 -1.01121e-16)
(-2.09855 -6.19649 0)
(-2.49965 -7.47103 -5.0192e-17)
(-2.87356 -8.7225 0)
(-3.26905 -9.38551 -4.9702e-17)
(-3.73631 -9.22982 0)
(-4.04857 -8.6277 0)
(-3.98967 -8.58215 0)
(-3.85592 -9.98985 -1.47958e-16)
(-4.46573 -12.2594 -4.93034e-17)
(-5.64331 -12.4839 0)
(-5.13537 -9.6635 0)
(-2.67446 -8.48538 0)
(0.535314 -13.8032 0)
(-2.95271 -9.57938 4.70122e-17)
(0.325705 -12.5307 -9.58212e-17)
(0.193616 -11.3357 -4.73942e-17)
(1.0195 -10.7798 9.3518e-17)
(0.855454 -10.5825 9.27843e-17)
(1.29869 -10.3136 4.62231e-17)
(1.54603 -10.176 0)
(1.99301 -9.96595 9.04932e-17)
(2.42484 -9.73697 0)
(2.74468 -9.48965 -8.87226e-17)
(2.97135 -9.34603 -4.43567e-17)
(3.55019 -9.28154 0)
(3.85461 -9.29452 8.70566e-17)
(4.25343 -9.27767 4.34687e-17)
(4.79725 -9.25047 0)
(5.3518 -8.96194 4.17854e-17)
(5.7941 -8.79978 -1.23939e-16)
(6.09459 -8.81055 0)
(6.25498 -8.78541 0)
(6.57547 -8.7863 0)
(6.8736 -8.81492 0)
(6.90559 -8.61425 -7.19297e-17)
(6.61157 -8.68815 -7.18443e-17)
(6.3475 -8.96703 0)
(6.57475 -8.95009 0)
(6.63084 -8.8125 0)
(5.78915 -8.83957 0)
(4.82116 -9.19369 0)
(4.19357 -9.91561 0)
(4.06444 -10.6281 -7.3302e-17)
(4.2026 -10.9051 -2.57532e-19)
(4.48533 -10.4595 0)
(4.24126 -9.82533 0)
(2.75344 -9.15806 -7.05144e-17)
(0.495713 -8.11825 0)
(-2.59157 -7.19335 6.90713e-17)
(-5.58957 -6.59727 6.78464e-17)
(-8.00375 -6.46059 0)
(-9.86005 -7.0847 0)
(-11.0849 -7.54149 -6.66898e-17)
(-11.2281 -8.45443 -1.33206e-16)
(-11.4191 -8.49851 0)
(-10.4662 -9.41993 0)
(-9.9943 -9.19485 0)
(-7.88796 -9.76999 -6.71329e-17)
(-7.0399 -9.47117 6.67934e-17)
(-4.40756 -9.35812 0)
(-3.83884 -9.70037 1.35311e-16)
(-0.206854 -9.9525 6.93924e-17)
(0.326735 -10.1041 -1.3827e-16)
(4.12614 -10.2816 0)
(3.9901 -10.0616 0)
(8.98235 -12.4288 -1.44189e-16)
(10.1765 -11.57 -6.95754e-17)
(13.6537 -11.3411 0)
(14.6757 -9.96574 0)
(13.407 -8.84006 0)
(13.6103 -10.0762 0)
(12.4955 -9.70988 -1.3e-16)
(12.2363 -10.1296 0)
(12.4167 -10.3187 0)
(11.4872 -9.35083 0)
(10.4173 -8.79009 0)
(7.89724 -8.06537 0)
(5.68553 -8.25191 0)
(3.53119 -8.29118 -1.14204e-16)
(1.28145 -8.57061 0)
(0.0265757 -8.46968 0)
(-1.77941 -8.0993 -2.08821e-16)
(-2.98355 -7.89622 1.01937e-16)
(-4.26008 -7.55184 -1.02805e-16)
(-6.36206 -6.86486 1.04475e-16)
(0.0742351 0.315554 0)
(-0.00565945 0.775521 -4.55682e-17)
(-0.082532 0.761822 0)
(-0.0972042 0.575887 -2.2652e-17)
(-0.0142235 0.517042 0)
(0.0165302 0.661111 0)
(0.014288 0.687024 2.21361e-17)
(-0.00986768 0.571856 0)
(-0.0383263 0.456826 0)
(-0.232836 0.586378 0)
(-0.705613 0.793127 0)
(-1.20475 0.935448 0)
(-1.69804 1.27285 -8.41294e-17)
(-2.21276 1.44425 -4.19762e-17)
(-2.56853 1.43998 4.1674e-17)
(-2.98686 1.60235 0)
(-3.33703 1.82078 0)
(-3.71713 2.08565 0)
(-4.08893 2.38104 0)
(-4.49007 2.49328 0)
(-4.91821 2.44038 -4.06018e-17)
(-5.3019 2.07613 -4.05047e-17)
(-5.63139 1.50422 4.01669e-17)
(-5.79203 0.962073 -3.99971e-17)
(-5.97536 0.139499 0)
(-6.12383 -0.621211 0)
(-6.22549 -1.16147 -3.88684e-17)
(-6.29361 -1.62936 0)
(-6.38698 -1.87655 0)
(-6.45354 -2.04486 -3.86268e-17)
(-6.39477 -2.33009 -3.84777e-17)
(-6.32111 -2.61776 -3.82664e-17)
(-6.12547 -2.90456 0)
(-5.92397 -3.13763 0)
(-5.69171 -3.53449 3.76407e-17)
(-5.37373 -3.86551 0)
(-4.96602 -4.12761 0)
(-4.58996 -4.31453 -3.69098e-17)
(-4.15903 -4.45067 3.67659e-17)
(-3.70846 -4.63742 -3.66025e-17)
(-3.238 -4.90763 0)
(-2.78756 -5.20167 0)
(-2.35073 -5.45354 -7.21625e-17)
(-1.8654 -5.70619 0)
(-1.306 -5.93448 -7.10835e-17)
(-0.82256 -6.21837 -1.05896e-16)
(-0.217196 -6.52049 1.05244e-16)
(0.335469 -6.849 -6.98345e-17)
(0.948064 -7.18304 0)
(1.55017 -7.5036 0)
(2.22054 -7.80595 -6.88033e-17)
(2.79722 -8.08861 -3.41813e-17)
(3.41448 -8.22893 0)
(4.11952 -8.42974 0)
(4.8131 -8.58441 -3.34757e-17)
(5.3634 -8.37467 -6.63606e-17)
(5.88443 -8.37049 0)
(6.53467 -8.44434 6.54394e-17)
(7.08758 -8.1603 -6.47859e-17)
(7.59215 -8.08085 6.45103e-17)
(8.32775 -8.32921 0)
(9.13122 -8.31276 0)
(9.81373 -8.15023 0)
(10.7481 -7.91225 0)
(11.6339 -7.32593 0)
(12.1593 -6.78335 6.24029e-17)
(12.7865 -6.24712 0)
(13.6679 -5.36597 0)
(13.9691 -4.97597 0)
(13.4482 -5.46638 1.22507e-16)
(13.1097 -6.0514 5.96738e-17)
(12.8483 -7.04525 5.92738e-17)
(12.5486 -9.00293 -1.20563e-16)
(12.3369 -11.0928 5.99219e-17)
(12.299 -12.2192 -5.81037e-17)
(12.3696 -11.9347 0)
(12.3905 -10.5522 5.46137e-17)
(12.2405 -8.52044 0)
(12.4267 -7.275 0)
(12.5204 -7.06853 0)
(11.0373 -6.40149 1.08339e-16)
(8.7525 -5.41499 -5.28078e-17)
(6.86519 -4.75483 -5.23118e-17)
(5.33575 -4.46825 -1.05492e-16)
(4.00581 -4.27931 -1.57225e-16)
(3.00209 -4.24979 -5.20758e-17)
(2.3447 -4.76338 0)
(1.898 -5.46201 -1.05754e-16)
(1.56209 -6.16059 0)
(1.15935 -6.72541 -1.55787e-16)
(0.662332 -7.20877 0)
(0.0360838 -7.49602 -1.5319e-16)
(-0.54656 -7.69146 0)
(-0.938127 -7.87003 0)
(-1.24431 -8.40606 -5.01022e-17)
(-1.42782 -9.30408 0)
(-1.6866 -10.5261 5.00462e-17)
(-2.20776 -11.6211 9.95894e-17)
(-2.94713 -12.2168 5.0195e-17)
(-3.65997 -12.3217 9.9532e-17)
(-3.8175 -12.4199 -9.85998e-17)
(-3.32585 -12.7929 -9.79875e-17)
(-2.8375 -13.7877 1.97644e-16)
(-3.35049 -15.2751 0)
(-4.38145 -16.624 0)
(-4.34575 -16.7546 9.94098e-17)
(-1.91021 -15.8444 -9.71903e-17)
(-1.23547 -16.967 0)
(-2.24365 -13.4762 0)
(0.921117 -18.1697 9.85213e-17)
(0.734507 -15.5311 0)
(1.57194 -14.6372 -6.36244e-19)
(1.2126 -14.3679 -6.27412e-19)
(1.63626 -14.1709 9.23866e-17)
(1.85916 -14.0099 0)
(2.20536 -13.7984 -9.09259e-17)
(2.39066 -13.5002 0)
(2.92985 -12.986 8.82042e-17)
(3.12825 -13.1622 0)
(3.74821 -13.0364 0)
(4.55368 -12.6685 -8.49526e-17)
(4.7151 -12.8284 -8.51331e-17)
(5.18007 -13.0669 0)
(6.14691 -12.7836 -8.39568e-17)
(6.32202 -12.4977 1.67341e-16)
(6.61916 -12.1199 0)
(6.89605 -12.1228 0)
(6.74821 -12.2535 0)
(7.12715 -11.9677 0)
(7.7102 -11.5928 7.5041e-17)
(7.28165 -11.6265 -1.45072e-16)
(6.33039 -12.2377 0)
(6.55629 -12.729 0)