/*--------------------------------*- C++ -*----------------------------------*\
| =========                 |                                                 |
| \\      /  F ield         | OpenFOAM: The Open Source CFD Toolbox           |
|  \\    /   O peration     | Version:  dev                                   |
|   \\  /    A nd           | Web:      http://www.openfoam.org               |
|    \\/     M anipulation  |                                                 |
\*---------------------------------------------------------------------------*/
FoamFile
{
    version     2.0;
    format      ascii;
    class       volVectorField;
    object      UMean;
    location    "9.129";
}
// * * * * * * * * * * * * * * * * * * * * * * * * * * * * * * * * * * * * * //

dimensions      [0 1 -1 0 0 0 0];

internalField   nonuniform List<vector> 
12225
(
(7.00368 0.430273 0)
(4.43881 0.192541 0)
(2.5568 0.0311476 0)
(2.511 -0.0166613 0)
(1.38444 0.0193554 0)
(2.26759 -0.0342864 0)
(0.989484 0.0489776 0)
(2.18301 -0.0591878 0)
(0.797422 0.0716649 0)
(2.29242 -0.0978759 0)
(0.688595 0.0993979 0)
(2.74448 -0.138657 0)
(0.947866 0.102621 0)
(3.39777 -0.172125 0)
(3.52991 -0.16843 0)
(4.69509 0.0502085 0)
(14.8387 -2.43331 0)
(7.11644 5.13177 0)
(9.54622 0.981605 0)
(9.54339 0.860856 0)
(6.68673 0.466261 0)
(7.5907 0.214545 0)
(4.09043 0.140294 0)
(6.84374 0.0107974 0)
(2.66481 0.132614 0)
(6.6903 -0.0903437 0)
(1.82211 0.1418 0)
(7.04079 -0.165083 0)
(1.25989 0.123884 0)
(8.12396 -0.414464 0)
(1.38466 0.25256 0)
(9.95665 -1.44216 0)
(3.43491 0.272852 0)
(12.3881 -4.06659 0)
(10.4243 -1.92629 0)
(7.77481 0.482955 0)
(9.11836 0.763508 0)
(12.1669 0.951365 0)
(8.32926 0.623889 0)
(11.8324 0.443373 0)
(6.22564 0.310229 0)
(11.4136 0.206466 0)
(4.58208 0.221396 0)
(11.3161 -0.0195241 0)
(3.87329 0.192827 0)
(11.3781 -0.277919 0)
(4.34961 0.187209 0)
(11.255 -0.723404 0)
(5.72757 0.176309 0)
(11.0922 -1.49188 0)
(7.21344 0.0534245 0)
(12.1187 -3.86417 0)
(6.93257 0.350548 0)
(9.35469 -2.39226 0)
(7.21867 0.524987 0)
(13.9932 0.960961 0)
(7.92962 0.60937 0)
(14.2956 0.553817 0)
(7.4743 0.420823 0)
(14.1167 0.271056 0)
(7.17572 0.396586 0)
(13.7389 -0.145136 0)
(7.25669 0.459481 0)
(13.2701 -0.698816 0)
(7.65898 0.5767 0)
(12.875 -1.42286 0)
(8.26567 0.699682 0)
(12.652 -2.31334 0)
(9.02083 0.0433727 0)
(11.8888 -3.63683 0)
(8.68558 -1.43095 0)
(8.36612 0.680851 0)
(6.42438 0.570006 0)
(14.0105 0.565785 0)
(8.47421 0.674352 0)
(13.9575 0.284442 0)
(9.17032 0.63659 0)
(13.6427 -0.00261594 0)
(9.51817 0.65772 0)
(13.213 -0.388715 0)
(9.59303 0.734249 0)
(12.8118 -0.871323 0)
(9.44623 0.876874 0)
(12.5811 -1.5214 0)
(9.14981 1.09019 0)
(12.5686 -2.48958 0)
(8.827 1.13309 0)
(11.6144 -5.02777 0)
(8.54442 1.26755 0)
(8.7236 0.123797 0)
(7.95758 0.616924 0)
(11.8017 0.152249 0)
(9.50635 0.654683 0)
(11.738 0.050118 0)
(10.0895 0.693878 0)
(11.5989 -0.165759 0)
(10.3218 0.725804 0)
(11.4746 -0.457639 0)
(10.3018 0.783094 0)
(11.3877 -0.853729 0)
(10.0342 0.832367 0)
(11.3532 -1.40036 0)
(9.49424 0.802098 0)
(11.4155 -2.13875 0)
(8.80382 0.727822 0)
(10.9958 -3.92097 0)
(7.73778 1.33637 0)
(9.48938 -0.220667 0)
(9.34566 0.812701 0)
(10.4371 -0.266142 0)
(10.1423 0.930469 0)
(10.5523 -0.304714 0)
(10.4002 1.01998 0)
(10.5803 -0.503097 0)
(10.5218 1.07551 0)
(10.6238 -0.781445 0)
(10.5654 1.15358 0)
(10.6703 -1.15808 0)
(10.5179 1.23551 0)
(10.6984 -1.63607 0)
(10.3703 1.26179 0)
(10.6864 -2.32739 0)
(10.0579 1.27215 0)
(10.3752 -3.95365 0)
(8.30395 2.01823 0)
(9.69658 -0.955323 0)
(9.85049 0.701173 0)
(10.1545 -0.326212 0)
(10.4079 0.855037 0)
(10.3887 -0.350137 0)
(10.5816 0.906852 0)
(10.4695 -0.49427 0)
(10.703 0.892989 0)
(10.5512 -0.68664 0)
(10.8068 0.872832 0)
(10.6433 -0.935643 0)
(10.8827 0.824146 0)
(10.735 -1.23311 0)
(10.9103 0.671866 0)
(10.7536 -1.67274 0)
(10.7263 0.520024 0)
(10.4929 -2.47347 0)
(8.89772 0.978768 0)
(9.96397 -0.485681 0)
(10.0871 0.802177 0)
(10.0184 -0.58364 0)
(10.5368 1.02138 0)
(10.3097 -0.60473 0)
(10.6765 1.07494 0)
(10.4391 -0.725231 0)
(10.7788 1.04815 0)
(10.5701 -0.890339 0)
(10.8585 1.00362 0)
(10.7108 -1.11808 0)
(10.9 0.921059 0)
(10.8314 -1.39521 0)
(10.8754 0.734701 0)
(10.8219 -1.76092 0)
(10.6038 0.505369 0)
(10.5207 -2.06838 0)
(9.35279 0.58447 0)
(10.0231 -0.392844 0)
(10.1401 0.648599 0)
(10.0413 -0.512176 0)
(10.5111 0.878067 0)
(10.3326 -0.456769 0)
(10.6222 0.869189 0)
(10.4813 -0.49392 0)
(10.6985 0.778197 0)
(10.6285 -0.572442 0)
(10.7348 0.657791 0)
(10.7632 -0.695623 0)
(10.7185 0.49536 0)
(10.84 -0.845118 0)
(10.6189 0.263781 0)
(10.7653 -1.03201 0)
(10.2833 0.0696986 0)
(10.4796 -1.05249 0)
(9.625 0.122732 0)
(10.2067 -0.0335534 0)
(10.1417 0.69988 0)
(10.0701 -0.692039 0)
(10.453 0.90243 0)
(10.2981 -0.619121 0)
(10.5379 0.847473 0)
(10.4298 -0.645731 0)
(10.6036 0.735079 0)
(10.5604 -0.707604 0)
(10.6276 0.586526 0)
(10.6602 -0.791422 0)
(10.6095 0.38281 0)
(10.6811 -0.869324 0)
(10.5274 0.116626 0)
(10.5709 -0.921972 0)
(10.2923 -0.114499 0)
(10.361 -0.76498 0)
(10.0209 -0.155332 0)
(10.2455 -0.125937 0)
(10.0971 0.467914 0)
(10.1506 -0.495275 0)
(10.3538 0.595648 0)
(10.2932 -0.374802 0)
(10.4205 0.527362 0)
(10.4092 -0.354984 0)
(10.4849 0.418661 0)
(10.5239 -0.374374 0)
(10.5133 0.275437 0)
(10.5993 -0.414818 0)
(10.5159 0.0929526 0)
(10.5971 -0.461742 0)
(10.4769 -0.103763 0)
(10.4997 -0.500173 0)
(10.3576 -0.2327 0)
(10.3648 -0.405879 0)
(10.2665 -0.220622 0)
(10.374 -0.110934 0)
(10.0501 0.410823 0)
(10.1753 -0.487375 0)
(10.2548 0.43702 0)
(10.2378 -0.367615 0)
(10.3087 0.367124 0)
(10.3305 -0.34572 0)
(10.3792 0.250581 0)
(10.4245 -0.35544 0)
(10.4226 0.0991529 0)
(10.4822 -0.375033 0)
(10.4463 -0.0800683 0)
(10.4818 -0.403574 0)
(10.4331 -0.247088 0)
(10.4262 -0.431469 0)
(10.3774 -0.339692 0)
(10.3687 -0.393054 0)
(10.3573 -0.321141 0)
(10.4223 -0.277182 0)
(10.0153 0.199491 0)
(10.1907 -0.285905 0)
(10.1931 0.167138 0)
(10.2051 -0.179395 0)
(10.2292 0.131422 0)
(10.2791 -0.171501 0)
(10.3061 0.0469625 0)
(10.3625 -0.197938 0)
(10.366 -0.0590096 0)
(10.4141 -0.235938 0)
(10.4055 -0.176326 0)
(10.4267 -0.286687 0)
(10.4124 -0.275347 0)
(10.4112 -0.331985 0)
(10.3995 -0.324559 0)
(10.4066 -0.33765 0)
(10.4109 -0.316554 0)
(10.4697 -0.305414 0)
(9.99662 0.0970044 0)
(10.1444 -0.185974 0)
(10.1463 0.0214814 0)
(10.15 -0.133774 0)
(10.1621 -0.00884169 0)
(10.2088 -0.146313 0)
(10.2409 -0.0771999 0)
(10.2918 -0.186922 0)
(10.3109 -0.159666 0)
(10.3485 -0.238209 0)
(10.3574 -0.245084 0)
(10.379 -0.298609 0)
(10.3804 -0.316625 0)
(10.3938 -0.350438 0)
(10.3958 -0.361434 0)
(10.4184 -0.380646 0)
(10.4237 -0.381547 0)
(10.4787 -0.387783 0)
(9.9937 0.0154072 0)
(10.106 -0.0859008 0)
(10.1088 -0.0444653 0)
(10.1137 -0.0933836 0)
(10.1187 -0.0750631 0)
(10.1674 -0.119106 0)
(10.1979 -0.120817 0)
(10.2518 -0.164046 0)
(10.274 -0.180818 0)
(10.3153 -0.219414 0)
(10.3278 -0.244216 0)
(10.3597 -0.278118 0)
(10.3658 -0.301663 0)
(10.3939 -0.329352 0)
(10.3994 -0.347374 0)
(10.4328 -0.371213 0)
(10.4355 -0.384226 0)
(10.4882 -0.397484 0)
(9.9918 0.00471003 0)
(10.0636 -0.0252226 0)
(10.0567 -0.0350115 0)
(10.0678 -0.0665803 0)
(10.0778 -0.0758478 0)
(10.128 -0.099909 0)
(10.1572 -0.116115 0)
(10.2109 -0.144892 0)
(10.2337 -0.16919 0)
(10.2781 -0.199805 0)
(10.2919 -0.226823 0)
(10.3299 -0.257318 0)
(10.3383 -0.283627 0)
(10.373 -0.312383 0)
(10.3787 -0.337163 0)
(10.4151 -0.365916 0)
(10.4145 -0.388449 0)
(10.4633 -0.407898 0)
(9.99153 0.0141396 0)
(10.0466 0.016127 0)
(10.0398 -0.0106382 0)
(10.0575 -0.0377612 0)
(10.0747 -0.0566391 0)
(10.1254 -0.0779757 0)
(10.1553 -0.0990116 0)
(10.207 -0.123984 0)
(10.231 -0.149175 0)
(10.2752 -0.176827 0)
(10.291 -0.203652 0)
(10.3291 -0.232398 0)
(10.3393 -0.259628 0)
(10.3735 -0.288588 0)
(10.3799 -0.315938 0)
(10.4139 -0.346021 0)
(10.413 -0.37189 0)
(10.4565 -0.39373 0)
(9.99164 0.032921 0)
(10.0502 0.0496515 0)
(10.0565 0.00991296 0)
(10.0798 -0.018112 0)
(10.1006 -0.0402987 0)
(10.1505 -0.0615516 0)
(10.1818 -0.0837063 0)
(10.2314 -0.106519 0)
(10.2561 -0.130684 0)
(10.2983 -0.155661 0)
(10.3149 -0.181249 0)
(10.3506 -0.207514 0)
(10.3612 -0.233768 0)
(10.3924 -0.260633 0)
(10.3989 -0.287271 0)
(10.4285 -0.315538 0)
(10.4278 -0.341277 0)
(10.465 -0.363075 0)
(9.98987 0.0407231 0)
(10.0547 0.0526961 0)
(10.0827 -0.00632986 0)
(10.1166 -0.0406832 0)
(10.1419 -0.0641572 0)
(10.1903 -0.0823247 0)
(10.2222 -0.102177 0)
(10.2689 -0.121104 0)
(10.2934 -0.142862 0)
(10.3319 -0.164122 0)
(10.3481 -0.187552 0)
(10.38 -0.210252 0)
(10.3902 -0.234574 0)
(10.4172 -0.258104 0)
(10.4226 -0.282986 0)
(10.4471 -0.308032 0)
(10.4459 -0.332668 0)
(10.4765 -0.353083 0)
(9.9905 0.0316257 0)
(10.0684 0.0220771 0)
(10.1261 -0.0557152 0)
(10.1769 -0.0967548 0)
(10.2125 -0.119811 0)
(10.2609 -0.132794 0)
(10.2937 -0.147852 0)
(10.336 -0.161747 0)
(10.36 -0.179939 0)
(10.3939 -0.197037 0)
(10.4102 -0.217493 0)
(10.4375 -0.236385 0)
(10.4476 -0.258146 0)
(10.47 -0.278223 0)
(10.4751 -0.30092 0)
(10.4944 -0.322554 0)
(10.4937 -0.345416 0)
(10.5184 -0.363713 0)
(9.99117 0.00990066 0)
(10.092 -0.0296595 0)
(10.187 -0.120819 0)
(10.2595 -0.162775 0)
(10.3093 -0.181157 0)
(10.359 -0.18721 0)
(10.3928 -0.196108 0)
(10.4304 -0.20445 0)
(10.4541 -0.218206 0)
(10.4836 -0.230853 0)
(10.5 -0.247724 0)
(10.5231 -0.262762 0)
(10.5336 -0.281483 0)
(10.5515 -0.29818 0)
(10.557 -0.31825 0)
(10.5717 -0.336593 0)
(10.572 -0.357179 0)
(10.5917 -0.373328 0)
(9.99278 -0.0233198 0)
(10.1275 -0.103533 0)
(10.2671 -0.204879 0)
(10.3665 -0.24157 0)
(10.4319 -0.250814 0)
(10.4835 -0.248419 0)
(10.5183 -0.250947 0)
(10.5517 -0.253758 0)
(10.5753 -0.26305 0)
(10.6011 -0.271421 0)
(10.618 -0.284764 0)
(10.6377 -0.296395 0)
(10.6485 -0.31222 0)
(10.663 -0.325988 0)
(10.669 -0.343536 0)
(10.6799 -0.358993 0)
(10.6811 -0.377311 0)
(10.6966 -0.391471 0)
(9.99057 -0.0715702 0)
(10.1745 -0.201113 0)
(10.368 -0.305427 0)
(10.5002 -0.327846 0)
(10.5806 -0.322574 0)
(10.6344 -0.310221 0)
(10.669 -0.305619 0)
(10.6997 -0.302625 0)
(10.7226 -0.306777 0)
(10.746 -0.310673 0)
(10.7624 -0.320009 0)
(10.7793 -0.328166 0)
(10.7894 -0.340717 0)
(10.8005 -0.351506 0)
(10.8053 -0.366112 0)
(10.8122 -0.37868 0)
(10.812 -0.394244 0)
(10.822 -0.406205 0)
(9.992 -0.136328 0)
(10.2447 -0.322949 0)
(10.5027 -0.418954 0)
(10.6712 -0.417596 0)
(10.7627 -0.394162 0)
(10.8174 -0.371109 0)
(10.8493 -0.358961 0)
(10.8771 -0.35062 0)
(10.8959 -0.350151 0)
(10.9147 -0.350566 0)
(10.9251 -0.35647 0)
(10.9353 -0.361615 0)
(10.9372 -0.370931 0)
(10.9391 -0.378805 0)
(10.9337 -0.390015 0)
(10.9288 -0.399608 0)
(10.9161 -0.411538 0)
(10.9112 -0.420695 0)
(9.98977 -0.219871 0)
(10.3369 -0.468079 0)
(10.6737 -0.539697 0)
(10.8758 -0.508203 0)
(10.9697 -0.464851 0)
(11.0135 -0.428074 0)
(11.0285 -0.404837 0)
(11.0352 -0.388426 0)
(11.0289 -0.381477 0)
(11.0193 -0.377039 0)
(10.9978 -0.378266 0)
(10.9733 -0.379184 0)
(10.9374 -0.383918 0)
(10.8996 -0.387407 0)
(10.8518 -0.393785 0)
(10.8037 -0.399116 0)
(10.7456 -0.405443 0)
(10.6939 -0.410226 0)
(9.98333 -0.332049 0)
(10.4676 -0.64228 0)
(10.8829 -0.667075 0)
(11.0725 -0.602632 0)
(11.103 -0.537192 0)
(11.0583 -0.483132 0)
(10.9742 -0.445004 0)
(10.873 -0.41626 0)
(10.7575 -0.398061 0)
(10.6347 -0.38333 0)
(10.5032 -0.37496 0)
(10.3662 -0.366411 0)
(10.2236 -0.362537 0)
(10.0769 -0.357094 0)
(9.92799 -0.355955 0)
(9.77633 -0.353368 0)
(9.62507 -0.353075 0)
(9.47506 -0.351242 0)
(10.0025 -0.453656 0)
(10.619 -0.818937 0)
(10.9017 -0.752062 0)
(10.7932 -0.623759 0)
(10.4937 -0.512543 0)
(10.1376 -0.4292 0)
(9.77 -0.373581 0)
(9.41742 -0.334748 0)
(9.07654 -0.307326 0)
(8.75512 -0.284649 0)
(8.44604 -0.267701 0)
(8.15287 -0.251383 0)
(7.87202 -0.240098 0)
(7.60236 -0.227398 0)
(7.34745 -0.221196 0)
(7.09784 -0.211886 0)
(6.86931 -0.210917 0)
(6.63979 -0.204239 0)
(10.0974 -0.750785 0)
(10.0459 -1.01319 0)
(9.42501 -0.801085 0)
(8.51447 -0.57219 0)
(7.655 -0.378739 0)
(6.92883 -0.2449 0)
(6.32721 -0.167544 0)
(5.83144 -0.126273 0)
(5.40895 -0.104727 0)
(5.04829 -0.0923454 0)
(4.72813 -0.084986 0)
(4.44732 -0.0793746 0)
(4.19084 -0.0758319 0)
(3.96187 -0.0719144 0)
(3.75008 -0.0721559 0)
(3.55484 -0.069104 0)
(3.38254 -0.0802806 0)
(3.21756 -0.0828728 0)
(8.51676 -0.436042 0)
(6.11028 -0.380883 0)
(4.29836 -0.138049 0)
(3.12385 -0.0213839 0)
(2.48104 0.0191319 0)
(2.12038 0.0224698 0)
(1.89609 0.0137112 0)
(1.73473 0.00461295 0)
(1.59865 -0.00157264 0)
(1.47787 -0.00479415 0)
(1.36573 -0.00640788 0)
(1.26353 -0.0067233 0)
(1.16783 -0.00671105 0)
(1.08106 -0.00639266 0)
(0.998995 -0.00665998 0)
(0.918737 -0.00703527 0)
(0.851198 -0.0186025 0)
(0.730694 -0.00613461 0)
(-0.0520498 0.138028 0)
(-0.157114 0.0715697 0)
(-0.207179 0.0165344 0)
(-0.19544 -0.0442595 0)
(-0.118284 -0.0989797 0)
(0.0118328 -0.145026 0)
(0.185839 -0.175583 1.11353e-17)
(0.387572 -0.193555 -1.10604e-17)
(0.605798 -0.197952 0)
(0.828184 -0.192697 -1.09172e-17)
(1.04534 -0.17837 0)
(1.24829 -0.157619 0)
(1.43045 -0.130988 0)
(1.58658 -0.101618 1.06426e-17)
(1.71403 -0.0703474 0)
(1.81003 -0.0382533 0)
(1.87373 -0.00608221 -1.04454e-17)
(1.90582 0.0241753 0)
(1.90799 0.0505904 0)
(1.88231 0.0722277 0)
(1.83249 0.0891352 1.0196e-17)
(1.76108 0.1007 0)
(1.67199 0.108622 1.00741e-17)
(1.56693 0.111548 0)
(1.45054 0.109622 0)
(1.32558 0.107889 9.89539e-18)
(1.19231 0.111108 0)
(1.04994 0.11618 -9.77906e-18)
(0.901647 0.121415 0)
(0.748008 0.126482 9.66418e-18)
(0.590544 0.130524 0)
(0.431525 0.13303 0)
(0.273214 0.134224 0)
(0.116094 0.134032 0)
(-0.0395231 0.131164 0)
(-0.191572 0.12649 -9.32954e-18)
(-0.338393 0.120394 0)
(-0.479558 0.113904 1.84404e-17)
(-0.61362 0.107414 0)
(-0.740137 0.100178 -1.82215e-17)
(-0.857642 0.0931306 0)
(-0.966287 0.0863387 0)
(-1.06652 0.0785716 1.78883e-17)
(-1.15787 0.070189 0)
(-1.24098 0.0624736 1.76651e-17)
(-1.31592 0.0552349 -1.75531e-17)
(-1.3822 0.0482458 0)
(-1.44066 0.0422103 -1.73281e-17)
(-1.4924 0.0369012 -1.72151e-17)
(-1.5364 0.0332385 0)
(-1.57283 0.0316589 0)
(-1.60356 0.0316455 0)
(-1.63074 0.0317407 0)
(-1.65533 0.0317146 0)
(-1.67875 0.0325708 1.65281e-17)
(-1.7028 0.0341041 0)
(-1.72883 0.0363323 -1.62989e-17)
(-1.75557 0.0383693 0)
(-1.78181 0.0390063 0)
(-1.80755 0.039628 1.59524e-17)
(-1.83349 0.0414119 0)
(-1.86152 0.0426346 -1.57211e-17)
(-1.89152 0.0442914 0)
(-1.92331 0.0458009 0)
(-1.95646 0.0466879 0)
(-1.99039 0.0479073 1.52555e-17)
(-2.02476 0.049738 0)
(-2.05982 0.0519459 0)
(-2.09535 0.0543378 1.49058e-17)
(-2.13164 0.0557923 0)
(-2.16569 0.0560227 1.46711e-17)
(-2.19664 0.0564054 0)
(-2.22437 0.0566 0)
(-2.24786 0.0564491 0)
(-2.26619 0.0558651 -1.4205e-17)
(-2.27865 0.0546468 0)
(-2.28591 0.0539222 0)
(-2.28987 0.0538336 -1.38612e-17)
(-2.29093 0.0528426 -1.37478e-17)
(-2.28735 0.0511823 0)
(-2.27735 0.0489327 -1.35225e-17)
(-2.26082 0.04605 0)
(-2.23744 0.0429583 -2.66021e-17)
(-2.20722 0.0395915 0)
(-2.17068 0.0359633 -2.61667e-17)
(-2.12762 0.0329168 0)
(-2.07903 0.0304963 2.57379e-17)
(-2.02573 0.0284796 0)
(-1.96773 0.0269758 0)
(-1.90571 0.025917 0)
(-1.84119 0.0252714 -2.49008e-17)
(-1.77396 0.0249677 0)
(-1.70561 0.0248898 2.44991e-17)
(-1.63629 0.0255065 0)
(-1.56676 0.0266092 -2.41097e-17)
(-1.49894 0.0291496 -2.39211e-17)
(-1.43197 0.0303005 -2.37368e-17)
(-1.36493 0.0313721 0)
(-1.29967 0.0314137 0)
(-1.23493 0.0325756 0)
(-1.16885 0.0332916 0)
(-1.10361 0.0328098 0)
(-1.03343 0.0317238 0)
(-0.964368 0.0330862 0)
(-0.893162 0.0327486 0)
(-0.825833 0.0351865 2.22128e-17)
(-0.758057 0.0357233 2.20606e-17)
(-0.695607 0.0401009 0)
(-0.634566 0.0412881 0)
(-0.579069 0.0411193 0)
(-0.511684 0.0384119 2.14802e-17)
(-0.449534 0.0426159 0)
(-0.381089 0.0409142 0)
(-0.31648 0.0437951 0)
(-0.246134 0.0408382 0)
(-0.173953 0.0433898 -2.08058e-17)
(-0.0999505 0.0451161 0)
(-0.0206433 0.044158 0)
(0.0634999 0.0455209 2.04287e-17)
(0.151412 0.0452305 -2.03073e-17)
(0.243036 0.0444287 0)
(0.339333 0.048243 -2.00747e-17)
(0.431049 0.0511286 0)
(0.523991 0.0542716 1.98483e-17)
(0.606843 0.0590418 0)
(0.678438 0.062011 0)
(0.75402 0.0623555 0)
(0.823347 0.0631429 0)
(0.902919 0.0603591 0)
(0.976334 0.0609469 -3.83969e-17)
(1.05187 0.0626731 -3.81779e-17)
(1.11147 0.0676151 0)
(1.16157 0.0663552 0)
(1.20689 0.0673313 0)
(1.24494 0.0633471 3.72532e-17)
(1.29408 0.0586651 0)
(1.34443 0.0570672 0)
(1.39005 0.0559162 0)
(1.43874 0.0540841 3.6233e-17)
(1.47576 0.0567639 -3.59649e-17)
(1.51873 0.0526708 0)
(1.55786 0.0526951 0)
(1.59935 0.0531626 -3.51502e-17)
(1.62545 0.0582865 -3.48774e-17)
(1.65533 0.0549819 0)
(1.68367 0.0587641 0)
(1.72273 0.0557308 3.40444e-17)
(1.75917 0.0659466 -3.37651e-17)
(1.76756 0.0713338 0)
(1.78133 0.0706951 0)
(1.80697 0.0710143 -3.29284e-17)
(1.84058 0.0757278 0)
(1.85461 0.0832658 0)
(1.86653 0.0890098 -3.20844e-17)
(1.86641 0.0930608 0)
(1.88112 0.0979204 -3.15244e-17)
(1.88354 0.104936 0)
(1.8896 0.109054 0)
(1.87712 0.120661 0)
(1.86421 0.126483 3.04348e-17)
(1.84982 0.132893 0)
(1.8182 0.142867 0)
(1.74596 0.154617 0)
(1.66922 0.154668 0)
(1.60316 0.156993 0)
(1.51279 0.165782 0)
(1.38404 0.172519 2.88926e-17)
(1.26507 0.173795 2.87386e-17)
(1.08099 0.181824 0)
(0.874032 0.184535 0)
(0.630796 0.183513 0)
(0.415194 0.169727 -2.8321e-17)
(0.193407 0.162764 0)
(0.0414581 0.146611 5.63469e-17)
(-0.159494 0.144051 -5.62374e-17)
(-0.262888 0.123709 -5.60582e-17)
(-0.424249 0.126798 5.59543e-17)
(-0.459548 0.0966552 -5.57518e-17)
(-0.61718 0.129169 5.57319e-17)
(-0.564748 -0.00403726 0)
(0.01013 0.248953 0)
(0.0145617 0.192298 0)
(0.0495838 0.00812358 -2.27957e-17)
(0.12083 -0.197957 0)
(0.235656 -0.383992 2.23645e-17)
(0.387892 -0.535488 2.22179e-17)
(0.568974 -0.644463 1.10436e-17)
(0.768793 -0.710471 1.09812e-17)
(0.976009 -0.737125 0)
(1.18008 -0.730845 1.08541e-17)
(1.37237 -0.694959 0)
(1.5456 -0.636609 0)
(1.69577 -0.56193 -2.13199e-17)
(1.81819 -0.47746 -1.05947e-17)
(1.91278 -0.385568 2.10554e-17)
(1.97775 -0.291095 2.09219e-17)
(2.01449 -0.198811 1.03954e-17)
(2.02309 -0.110799 0)
(2.00597 -0.027836 0)
(1.96312 0.0468273 0)
(1.8984 0.112214 1.01364e-17)
(1.81189 0.171213 0)
(1.70826 0.223983 -3.00368e-17)
(1.58632 0.266671 0)
(1.44836 0.301513 0)
(1.2949 0.331984 -9.83169e-18)
(1.12943 0.355889 0)
(0.954679 0.373138 9.71536e-18)
(0.774505 0.384182 1.93123e-17)
(0.589792 0.391474 -9.59738e-18)
(0.403316 0.393617 0)
(0.216332 0.389886 0)
(0.0285185 0.38268 0)
(-0.159637 0.3758 1.87308e-17)
(-0.346379 0.367292 1.86163e-17)
(-0.530405 0.355093 9.25117e-18)
(-0.708971 0.340398 0)
(-0.882593 0.323381 -1.8276e-17)
(-1.04735 0.302888 0)
(-1.20549 0.281029 1.80506e-17)
(-1.35542 0.25858 0)
(-1.49879 0.235786 0)
(-1.63404 0.215416 -1.77165e-17)
(-1.76211 0.196356 0)
(-1.88546 0.178453 -5.24861e-17)
(-2.00314 0.159722 1.73855e-17)
(-2.11424 0.140847 0)
(-2.21837 0.124019 1.71654e-17)
(-2.31638 0.106479 1.70551e-17)
(-2.40701 0.0870276 0)
(-2.48843 0.0681502 0)
(-2.56275 0.053637 0)
(-2.63184 0.0441711 0)
(-2.69762 0.0392969 0)
(-2.75956 0.0378739 -1.63736e-17)
(-2.81959 0.0373252 -3.2515e-17)
(-2.87808 0.0373474 1.61413e-17)
(-2.93216 0.0347135 0)
(-2.98394 0.0307417 -3.18128e-17)
(-3.03357 0.0294007 1.57874e-17)
(-3.08037 0.0303765 0)
(-3.12819 0.0312796 1.55498e-17)
(-3.17381 0.033929 0)
(-3.21742 0.035294 0)
(-3.25937 0.0347955 3.03751e-17)
(-3.3003 0.0341231 -1.50672e-17)
(-3.33667 0.0320432 2.98916e-17)
(-3.37047 0.0292501 -2.96502e-17)
(-3.39825 0.0255066 -1.47045e-17)
(-3.42281 0.0206094 0)
(-3.44097 0.0129634 -1.44627e-17)
(-3.45237 0.00271952 0)
(-3.45806 -0.00801075 0)
(-3.45533 -0.0204928 0)
(-3.44342 -0.0346735 -1.39828e-17)
(-3.42328 -0.0486237 0)
(-3.39667 -0.058712 -2.74947e-17)
(-3.36432 -0.065823 4.08937e-17)
(-3.32663 -0.0743615 1.35161e-17)
(-3.28262 -0.0854486 0)
(-3.23071 -0.0981554 1.32876e-17)
(-3.17356 -0.110731 0)
(-3.11083 -0.122628 2.61237e-17)
(-3.04295 -0.13349 0)
(-2.97009 -0.143878 2.56807e-17)
(-2.89214 -0.153217 -5.09217e-17)
(-2.81027 -0.162143 -2.5247e-17)
(-2.726 -0.170213 0)
(-2.63663 -0.177903 0)
(-2.54502 -0.183698 0)
(-2.45106 -0.187985 2.4407e-17)
(-2.35378 -0.192117 0)
(-2.25523 -0.19483 -2.40007e-17)
(-2.15666 -0.195183 0)
(-2.05751 -0.196719 7.08209e-17)
(-1.9585 -0.196013 2.34168e-17)
(-1.85891 -0.196942 2.32308e-17)
(-1.76146 -0.194101 0)
(-1.66641 -0.193609 0)
(-1.57072 -0.194691 0)
(-1.47249 -0.195471 0)
(-1.37526 -0.197875 0)
(-1.27239 -0.202096 4.43213e-17)
(-1.17584 -0.200165 4.39853e-17)
(-1.07589 -0.200275 0)
(-0.988163 -0.194748 -2.16747e-17)
(-0.891436 -0.195604 -2.15225e-17)
(-0.804505 -0.188606 0)
(-0.709687 -0.187409 -4.24423e-17)
(-0.631884 -0.186165 0)
(-0.535896 -0.196573 2.09369e-17)
(-0.45046 -0.190495 0)
(-0.345236 -0.198718 0)
(-0.251037 -0.195383 -4.10561e-17)
(-0.13846 -0.203797 0)
(-0.0348804 -0.203722 2.02714e-17)
(0.0895679 -0.211119 0)
(0.21501 -0.21894 0)
(0.350482 -0.223433 1.98862e-17)
(0.490504 -0.228594 1.977e-17)
(0.635908 -0.234496 0)
(0.785125 -0.235314 -1.95329e-17)
(0.944782 -0.236703 0)
(1.10382 -0.2289 1.92964e-17)
(1.26904 -0.219114 3.83628e-17)
(1.4165 -0.212746 0)
(1.57344 -0.213703 0)
(1.71804 -0.213647 0)
(1.87739 -0.215029 0)
(2.02354 -0.210048 3.72313e-17)
(2.17745 -0.206748 1.1101e-16)
(2.31324 -0.187538 0)
(2.43674 -0.183097 0)
(2.55591 -0.17315 0)
(2.66161 -0.175274 -3.60812e-17)
(2.76495 -0.179876 0)
(2.86673 -0.179087 0)
(2.96248 -0.177256 7.06185e-17)
(3.05645 -0.176335 3.50348e-17)
(3.13022 -0.170229 3.4766e-17)
(3.21731 -0.179636 0)
(3.28115 -0.173687 0)
(3.34934 -0.175075 3.39218e-17)
(3.39555 -0.164076 -3.36162e-17)
(3.44167 -0.178216 0)
(3.47116 -0.174866 0)
(3.50587 -0.191079 -3.27237e-17)
(3.53421 -0.173259 9.7195e-17)
(3.54922 -0.169031 0)
(3.56027 -0.17999 0)
(3.5722 -0.191738 3.14624e-17)
(3.59339 -0.189702 0)
(3.58983 -0.183275 6.16315e-17)
(3.5886 -0.181459 -3.04746e-17)
(3.56217 -0.185809 0)
(3.55873 -0.194706 2.98485e-17)
(3.53498 -0.191073 5.9062e-17)
(3.52387 -0.192605 0)
(3.47772 -0.185846 0)
(3.45458 -0.19481 -2.85769e-17)
(3.41465 -0.186772 0)
(3.35772 -0.169283 5.5891e-17)
(3.26067 -0.150015 0)
(3.1688 -0.154929 0)
(3.04864 -0.146381 0)
(2.91987 -0.121365 0)
(2.72427 -0.102348 -2.6653e-17)
(2.56528 -0.0757836 -2.64637e-17)
(2.28077 -0.0262901 0)
(2.00759 -0.00147971 0)
(1.67772 0.0227397 0)
(1.38285 0.0186652 2.59583e-17)
(1.04958 0.0232766 0)
(0.842227 0.0142172 -5.16685e-17)
(0.521234 0.0333074 5.16412e-17)
(0.406131 0.00114316 5.1493e-17)
(0.125171 0.0320361 5.14835e-17)
(0.125256 -0.015863 5.13307e-17)
(-0.171182 0.0787878 5.14946e-17)
(0.0157408 -0.117373 0)
(0.0290433 0.071291 0)
(0.121032 -0.0379551 0)
(0.227948 -0.241002 2.29126e-17)
(0.339931 -0.467819 2.26641e-17)
(0.474284 -0.692434 -2.25127e-17)
(0.618333 -0.874426 -2.24001e-17)
(0.772475 -1.00317 -1.48236e-21)
(0.923688 -1.0735 0)
(1.0687 -1.0843 0)
(1.19539 -1.04516 0)
(1.30407 -0.965406 0)
(1.38994 -0.856215 0)
(1.45545 -0.725781 6.4712e-17)
(1.49609 -0.585619 0)
(1.51466 -0.440849 -2.13049e-17)
(1.5094 -0.294495 -2.11686e-17)
(1.4832 -0.153215 0)
(1.43465 -0.0198641 0)
(1.36837 0.10384 0)
(1.28412 0.216167 0)
(1.18419 0.315373 -2.05025e-17)
(1.0694 0.398296 0)
(0.944758 0.470575 2.02485e-17)
(0.807536 0.535624 0)
(0.660605 0.590419 0)
(0.505331 0.635283 0)
(0.347126 0.67118 3.95249e-17)
(0.18497 0.698343 0)
(0.0213688 0.717741 -1.95222e-17)
(-0.143234 0.728115 3.87998e-17)
(-0.307108 0.731293 0)
(-0.473261 0.733058 0)
(-0.639623 0.730105 0)
(-0.804805 0.720675 -1.89165e-17)
(-0.966388 0.705497 -1.87957e-17)
(-1.12478 0.684073 0)
(-1.27839 0.656839 0)
(-1.42644 0.625397 3.68588e-17)
(-1.56755 0.591421 3.66192e-17)
(-1.70695 0.557145 -3.63809e-17)
(-1.84135 0.524487 0)
(-1.97397 0.491041 0)
(-2.10099 0.458936 0)
(-2.22433 0.429638 0)
(-2.34347 0.402028 3.52001e-17)
(-2.45661 0.372835 3.49664e-17)
(-2.56462 0.343251 -3.47345e-17)
(-2.66705 0.314773 0)
(-2.76341 0.286924 0)
(-2.85446 0.257969 0)
(-2.94019 0.231174 0)
(-3.02593 0.213393 3.35752e-17)
(-3.10576 0.197504 0)
(-3.18055 0.184317 0)
(-3.24883 0.176541 3.28776e-17)
(-3.31244 0.171354 3.2646e-17)
(-3.37069 0.164472 0)
(-3.42133 0.155087 -6.43591e-17)
(-3.47003 0.148183 3.19482e-17)
(-3.51477 0.141754 -3.17138e-17)
(-3.55375 0.138009 0)
(-3.58984 0.135304 0)
(-3.61991 0.131089 0)
(-3.64507 0.126812 0)
(-3.66769 0.121556 -3.05524e-17)
(-3.686 0.114107 -6.06456e-17)
(-3.69803 0.106061 -3.00972e-17)
(-3.70626 0.0974921 2.98723e-17)
(-3.70721 0.0857931 0)
(-3.70302 0.072474 -5.88391e-17)
(-3.69084 0.0563262 -5.83907e-17)
(-3.67338 0.04009 -5.79457e-17)
(-3.65168 0.0222607 5.75039e-17)
(-3.62116 -4.07599e-05 0)
(-3.58371 -0.0227149 8.49403e-17)
(-3.54037 -0.0421232 0)
(-3.49231 -0.0574526 -2.78772e-17)
(-3.43572 -0.0711557 -2.76643e-17)
(-3.37117 -0.0867867 0)
(-3.3004 -0.103598 0)
(-3.22616 -0.120235 -5.40404e-17)
(-3.14969 -0.134909 0)
(-3.06918 -0.148966 -5.31933e-17)
(-2.98605 -0.162501 0)
(-2.89831 -0.176789 5.23547e-17)
(-2.80706 -0.188144 1.03882e-16)
(-2.71212 -0.19791 0)
(-2.61637 -0.207231 0)
(-2.51754 -0.214914 0)
(-2.41999 -0.221379 5.02919e-17)
(-2.32055 -0.227408 0)
(-2.21781 -0.232282 4.94702e-17)
(-2.11214 -0.235687 0)
(-2.00598 -0.234937 0)
(-1.89738 -0.235015 -9.65073e-17)
(-1.79159 -0.232535 0)
(-1.68387 -0.23195 -4.74622e-17)
(-1.58038 -0.225887 0)
(-1.47264 -0.22671 -4.6694e-17)
(-1.36573 -0.226079 0)
(-1.25663 -0.225301 0)
(-1.14888 -0.229134 0)
(-1.03817 -0.23144 -1.35692e-16)
(-0.937697 -0.223072 -4.48689e-17)
(-0.828285 -0.219858 0)
(-0.734896 -0.209381 0)
(-0.633008 -0.210513 0)
(-0.547634 -0.19784 0)
(-0.443496 -0.193867 4.32339e-17)
(-0.35803 -0.187927 -8.58318e-17)
(-0.251494 -0.204899 -4.26307e-17)
(-0.164614 -0.197087 8.46536e-17)
(-0.0451897 -0.212904 8.40905e-17)
(0.0562438 -0.209049 4.17594e-17)
(0.185772 -0.22382 0)
(0.298123 -0.224304 8.23928e-17)
(0.436474 -0.239831 0)
(0.567956 -0.249126 -8.12815e-17)
(0.715714 -0.256042 -4.03828e-17)
(0.86132 -0.261461 0)
(1.0159 -0.270207 7.97605e-17)
(1.16461 -0.273382 3.9627e-17)
(1.32654 -0.281637 0)
(1.48467 -0.280023 3.90891e-17)
(1.65864 -0.269216 -1.16506e-16)
(1.81734 -0.25699 0)
(1.98166 -0.255869 0)
(2.13313 -0.255384 0)
(2.29302 -0.258455 0)
(2.44891 -0.253814 -7.51556e-17)
(2.60431 -0.250768 -7.46573e-17)
(2.75509 -0.219667 0)
(2.89274 -0.214365 0)
(3.02376 -0.202239 0)
(3.14556 -0.200894 0)
(3.25293 -0.205951 0)
(3.37281 -0.208781 0)
(3.48633 -0.207774 -7.09558e-17)
(3.60008 -0.205175 -1.65034e-20)
(3.69355 -0.195792 0)
(3.80377 -0.209059 0)
(3.89178 -0.196701 -6.86108e-17)
(3.98501 -0.197456 0)
(4.06345 -0.176626 6.74302e-17)
(4.13373 -0.187665 6.68131e-17)
(4.17536 -0.170413 0)
(4.23044 -0.189025 0)
(4.26903 -0.165092 -6.49051e-17)
(4.31996 -0.156468 -1.28521e-16)
(4.34795 -0.160789 0)
(4.38171 -0.173025 0)
(4.42389 -0.164107 0)
(4.43801 -0.149841 -6.16976e-17)
(4.46722 -0.136713 6.10098e-17)
(4.46747 -0.136349 0)
(4.48765 -0.142342 1.19384e-16)
(4.47185 -0.130251 5.90378e-17)
(4.48924 -0.128692 -1.16782e-16)
(4.46711 -0.110295 0)
(4.46668 -0.117326 0)
(4.43649 -0.0959455 -1.12761e-16)
(4.39637 -0.0679296 -5.57203e-17)
(4.31235 -0.0383135 0)
(4.24871 -0.0357664 0)
(4.11585 -0.0173379 0)
(4.00577 0.0253783 0)
(3.79312 0.0529125 -1.05589e-16)
(3.62425 0.0959164 0)
(3.32601 0.167253 0)
(3.06705 0.191957 0)
(2.7165 0.21974 0)
(2.40237 0.202666 0)
(2.01341 0.187016 0)
(1.77607 0.153998 -1.00635e-16)
(1.37064 0.151627 0)
(1.24117 0.0830741 0)
(0.85724 0.105325 -1.99414e-16)
(0.852564 0.0228088 9.92461e-17)
(0.467086 0.111387 -9.94014e-17)
(0.662741 -0.128598 9.87819e-17)
(0.0206193 -0.0938646 0)
(0.124908 -0.268759 -4.69556e-17)
(0.247549 -0.489143 0)
(0.375366 -0.754622 -2.27965e-17)
(0.501879 -0.998333 0)
(0.617809 -1.18722 0)
(0.722208 -1.30479 2.24456e-17)
(0.802605 -1.34798 0)
(0.865221 -1.31812 0)
(0.904203 -1.23236 0)
(0.926031 -1.10964 0)
(0.928537 -0.960458 0)
(0.916616 -0.793405 -8.66152e-17)
(0.887652 -0.616378 -4.30248e-17)
(0.845139 -0.433796 4.27454e-17)
(0.788788 -0.252943 0)
(0.720648 -0.0804781 0)
(0.639346 0.0806914 0)
(0.548355 0.229176 0)
(0.447162 0.362309 0)
(0.338542 0.479683 -4.11505e-17)
(0.220676 0.581429 -4.08979e-17)
(0.0948798 0.67209 4.06487e-17)
(-0.0366971 0.748092 -4.04011e-17)
(-0.1724 0.810837 0)
(-0.310869 0.858909 0)
(-0.450855 0.894934 -3.96578e-17)
(-0.591206 0.91966 0)
(-0.732488 0.933827 0)
(-0.874327 0.942491 -3.89248e-17)
(-1.01676 0.948041 -3.86815e-17)
(-1.15706 0.945832 -3.84371e-17)
(-1.29431 0.936852 0)
(-1.42832 0.921681 0)
(-1.55777 0.900326 3.76935e-17)
(-1.68226 0.8708 0)
(-1.80282 0.835384 0)
(-1.91981 0.796042 -3.69486e-17)
(-2.03382 0.758194 3.6697e-17)
(-2.14631 0.720249 -3.64483e-17)
(-2.25238 0.68167 0)
(-2.35682 0.642458 0)
(-2.45723 0.606293 -7.14191e-17)
(-2.55491 0.572211 0)
(-2.64728 0.534227 -7.04531e-17)
(-2.73618 0.496238 -1.04962e-16)
(-2.82144 0.460467 1.04241e-16)
(-2.90142 0.424211 -6.90141e-17)
(-2.9782 0.386982 0)
(-3.05238 0.351364 0)
(-3.12614 0.323205 -6.76016e-17)
(-3.19712 0.29869 -3.35703e-17)
(-3.26173 0.273096 0)
(-3.32215 0.252023 0)
(-3.37797 0.236682 -3.28781e-17)
(-3.42838 0.219807 -6.52964e-17)
(-3.47255 0.200863 0)
(-3.51075 0.182917 6.43785e-17)
(-3.54511 0.168501 -6.39194e-17)
(-3.5741 0.154934 6.34637e-17)
(-3.59735 0.141128 0)
(-3.61438 0.127873 0)
(-3.62701 0.116659 0)
(-3.63432 0.105407 0)
(-3.63799 0.0951974 0)
(-3.63624 0.0792488 6.07738e-17)
(-3.63014 0.0618857 0)
(-3.61734 0.04297 0)
(-3.59871 0.0216921 0)
(-3.57591 -0.000447174 1.18046e-16)
(-3.54756 -0.0245575 5.85908e-17)
(-3.51445 -0.0486578 5.81572e-17)
(-3.47635 -0.075725 -1.15456e-16)
(-3.43185 -0.107171 5.73031e-17)
(-3.38394 -0.137243 -5.68837e-17)
(-3.3298 -0.164724 0)
(-3.27073 -0.190591 5.60367e-17)
(-3.20174 -0.217249 0)
(-3.1286 -0.242547 0)
(-3.04986 -0.264532 0)
(-2.96962 -0.285324 1.08718e-16)
(-2.88717 -0.304416 -5.39457e-17)
(-2.80135 -0.323405 -5.35323e-17)
(-2.71424 -0.34224 -1.0627e-16)
(-2.62309 -0.362101 -1.58215e-16)
(-2.53101 -0.37793 -5.23432e-17)
(-2.43414 -0.390866 0)
(-2.33769 -0.402468 -1.03071e-16)
(-2.23966 -0.410767 0)
(-2.14171 -0.417403 -1.52207e-16)
(-2.04295 -0.427622 0)
(-1.94532 -0.434231 -1.49835e-16)
(-1.84155 -0.440724 0)
(-1.73725 -0.441471 0)
(-1.62808 -0.443072 -4.87478e-17)
(-1.52038 -0.439787 0)
(-1.40933 -0.439299 4.79729e-17)
(-1.30309 -0.434641 9.51576e-17)
(-1.18898 -0.436419 4.72041e-17)
(-1.07889 -0.438338 9.36505e-17)