/*--------------------------------*- C++ -*----------------------------------*\
| =========                 |                                                 |
| \\      /  F ield         | OpenFOAM: The Open Source CFD Toolbox           |
|  \\    /   O peration     | Version:  dev                                   |
|   \\  /    A nd           | Web:      http://www.openfoam.org               |
|    \\/     M anipulation  |                                                 |
\*---------------------------------------------------------------------------*/
FoamFile
{
    version     2.0;
    format      ascii;
    class       volSymmTensorField;
    object      UPrime2Mean;
    location    "9.129";
}
// * * * * * * * * * * * * * * * * * * * * * * * * * * * * * * * * * * * * * //

dimensions      [0 2 -2 0 0 0 0];

internalField   nonuniform List<symmTensor> 
12225
(
(0.329221 0.0192874 0 0.0692978 0 0)
(2.98577 0.0797343 0 0.0782262 0 0)
(7.87927 0.112376 0 0.0769282 0 0)
(14.5321 0.148312 0 0.0756021 0 0)
(22.6992 0.133118 0 0.0765463 0 0)
(32.0612 0.201221 0 0.0747003 0 0)
(42.3711 0.0961507 0 0.0766391 0 0)
(53.5116 0.200602 0 0.0738768 0 0)
(65.6019 -0.0281358 0 0.077634 0 0)
(78.1946 0.12601 0 0.0736425 0 0)
(92.9369 -0.305762 0 0.081326 0 0)
(107.273 -0.11526 0 0.0770134 0 0)
(127.876 -0.671627 0 0.0863092 0 0)
(145.58 -1.27673 0 0.134736 0 0)
(185.876 -1.40871 0 0.116368 0 0)
(198.461 -0.393277 0 2.39156 0 0)
(272.22 -33.5219 0 5.80634 0 0)
(575.66 -52.9077 0 18.8092 0 0)
(0.377369 0.0568584 0 0.689289 0 0)
(3.15561 0.252372 0 0.732612 0 0)
(8.40956 0.362324 0 0.714459 0 0)
(15.4706 0.485698 0 0.706949 0 0)
(24.1928 0.453436 0 0.7038 0 0)
(34.4484 0.633323 0 0.683633 0 0)
(45.5134 0.296789 0 0.6924 0 0)
(58.4629 0.60993 0 0.65908 0 0)
(71.4509 -0.134029 0 0.682893 0 0)
(87.1162 0.284172 0 0.646232 0 0)
(102.747 -1.06332 0 0.711475 0 0)
(121.378 -0.763736 0 0.655632 0 0)
(142.793 -2.54077 0 1.06882 0 0)
(166.257 -4.48869 0 1.04654 0 0)
(199.684 -0.926704 0 3.09901 0 0)
(274.259 -9.97619 0 6.59945 0 0)
(280.933 -20.8146 0 8.73526 0 0)
(799.58 -185.113 0 64.6823 0 0)
(0.504968 0.058436 0 2.14158 0 0)
(3.06358 0.424886 0 2.20355 0 0)
(8.46462 0.570848 0 2.15244 0 0)
(14.8497 0.852494 0 2.14392 0 0)
(24.2711 0.865331 0 2.12079 0 0)
(33.1421 1.05405 0 2.08358 0 0)
(45.2603 0.757638 0 2.07928 0 0)
(56.1843 0.887981 0 2.00848 0 0)
(69.6662 0.174383 0 2.05255 0 0)
(83.4168 0.0196321 0 1.96012 0 0)
(98.1547 -1.11995 0 2.12329 0 0)
(115.615 -2.44338 0 2.09484 0 0)
(138.572 -3.59132 0 2.62242 0 0)
(154.813 -7.19313 0 2.83047 0 0)
(210.929 -12.9955 0 6.11459 0 0)
(223.293 -7.88879 0 6.36959 0 0)
(352.854 -62.2277 0 31.0724 0 0)
(534.303 -192.354 0 98.1517 0 0)
(1.0298 0.0925084 0 4.67265 0 0)
(3.54914 0.619849 0 4.76929 0 0)
(9.06773 0.816354 0 4.64501 0 0)
(15.0635 1.1508 0 4.60426 0 0)
(24.6319 1.31415 0 4.55992 0 0)
(32.9757 1.35131 0 4.48555 0 0)
(44.995 1.26356 0 4.45049 0 0)
(55.1519 0.975825 0 4.35186 0 0)
(68.5822 0.479188 0 4.38356 0 0)
(80.6872 -0.279021 0 4.25964 0 0)
(96.0068 -1.32589 0 4.50889 0 0)
(110.475 -3.33599 0 4.37345 0 0)
(131.432 -4.78691 0 5.30234 0 0)
(152.187 -10.9611 0 5.6067 0 0)
(187.807 -11.4201 0 9.28043 0 0)
(238.313 -28.8403 0 16.8148 0 0)
(291.295 -58.8589 0 32.6643 0 0)
(414.702 -178.231 0 107.792 0 0)
(1.86344 0.365314 0 8.52676 0 0)
(5.00819 0.720415 0 8.72833 0 0)
(9.43421 1.1409 0 8.47705 0 0)
(16.2383 1.29553 0 8.37389 0 0)
(24.6422 1.7025 0 8.28418 0 0)
(33.9378 1.50421 0 8.14904 0 0)
(44.8071 1.60064 0 8.04822 0 0)
(55.5063 0.995895 0 7.91596 0 0)
(68.3934 0.604716 0 7.86282 0 0)
(80.0952 -0.589069 0 7.76452 0 0)
(95.3396 -1.77272 0 7.96597 0 0)
(108.519 -4.21999 0 7.91243 0 0)
(128.053 -6.87009 0 9.0282 0 0)
(145.169 -12.2787 0 9.26918 0 0)
(173.895 -19.1842 0 14.5846 0 0)
(217.837 -25.9345 0 17.2078 0 0)
(233.528 -55.5237 0 46.2714 0 0)
(326.586 -171.68 0 138.64 0 0)
(2.56045 0.750843 0 14.0465 0 0)
(6.32244 0.806984 0 14.3985 0 0)
(9.29505 1.54095 0 13.9685 0 0)
(17.0924 1.5955 0 13.7736 0 0)
(24.131 2.12252 0 13.5988 0 0)
(34.2574 1.93875 0 13.3665 0 0)
(43.96 1.99431 0 13.1611 0 0)
(55.1552 1.41914 0 12.9199 0 0)
(67.3038 0.899597 0 12.7828 0 0)
(78.8839 -0.37999 0 12.5812 0 0)
(94.3911 -1.73115 0 12.7808 0 0)
(105.793 -4.30365 0 12.6885 0 0)
(128.066 -7.25733 0 13.9891 0 0)
(137.886 -13.1441 0 14.6671 0 0)
(170.901 -21.8247 0 21.2444 0 0)
(191.416 -33.0172 0 24.5928 0 0)
(210.992 -55.8665 0 51.5707 0 0)
(265.584 -145.62 0 130.638 0 0)
(2.24136 0.721876 0 21.5426 0 0)
(5.53909 0.940768 0 22.1586 0 0)
(9.19526 1.76478 0 21.3842 0 0)
(16.3348 2.0788 0 21.1963 0 0)
(23.9663 2.45213 0 20.7974 0 0)
(33.355 2.54529 0 20.5641 0 0)
(43.6 2.27804 0 20.0953 0 0)
(54.0341 1.93224 0 19.865 0 0)
(66.4654 0.902861 0 19.4463 0 0)
(77.338 -0.212452 0 19.2933 0 0)
(92.4857 -2.36367 0 19.2321 0 0)
(103.466 -4.81487 0 19.2746 0 0)
(123.594 -8.97001 0 20.4815 0 0)
(133.879 -14.2484 0 21.4589 0 0)
(161.47 -24.3866 0 28.5153 0 0)
(169.301 -32.387 0 32.05 0 0)
(203.335 -58.9794 0 56.8594 0 0)
(190.149 -108.711 0 114.124 0 0)
(1.4203 0.598768 0 29.7684 0 0)
(4.31587 1.1345 0 30.6541 0 0)
(8.5772 1.92508 0 29.5063 0 0)
(15.2456 2.4742 0 29.335 0 0)
(23.1983 2.77968 0 28.6894 0 0)
(32.2562 2.96605 0 28.4282 0 0)
(42.4062 2.602 0 27.6759 0 0)
(52.7737 2.19538 0 27.3951 0 0)
(64.4069 1.01277 0 26.6704 0 0)
(75.5916 -0.357091 0 26.5049 0 0)
(88.6137 -2.74457 0 26.12 0 0)
(100.4 -5.72631 0 26.3441 0 0)
(115.496 -10.3106 0 27.0973 0 0)
(128.036 -15.7866 0 28.6114 0 0)
(144.587 -26.4735 0 33.9184 0 0)
(151.966 -33.438 0 37.4823 0 0)
(180.265 -54.8576 0 53.1745 0 0)
(139.508 -71.2532 0 83.6844 0 0)
(1.00143 0.521242 0 38.5435 0 0)
(3.77051 1.2876 0 39.7384 0 0)
(8.17163 2.03676 0 38.2003 0 0)
(14.7205 2.78118 0 38.0591 0 0)
(22.6395 3.00788 0 37.1487 0 0)
(31.5761 3.31854 0 36.8735 0 0)
(41.4873 2.80862 0 35.8216 0 0)
(51.759 2.47748 0 35.5029 0 0)
(62.8059 1.04375 0 34.493 0 0)
(73.821 -0.275261 0 34.2928 0 0)
(85.6265 -3.03865 0 33.6602 0 0)
(96.9864 -5.89489 0 33.9195 0 0)
(109.296 -10.9377 0 34.4252 0 0)
(121.175 -16.0256 0 36.144 0 0)
(131.162 -25.5445 0 40.0197 0 0)
(138.09 -33.1838 0 44.751 0 0)
(149.914 -47.2832 0 52.4644 0 0)
(123.155 -58.7069 0 73.1205 0 0)
(0.606872 0.484605 0 49.7352 0 0)
(3.22925 1.44642 0 51.3242 0 0)
(7.73561 2.18767 0 49.2264 0 0)
(14.1915 3.03785 0 49.1392 0 0)
(21.9822 3.27584 0 47.8492 0 0)
(30.8384 3.58249 0 47.5699 0 0)
(40.4576 3.06856 0 46.1075 0 0)
(50.5895 2.64109 0 45.7388 0 0)
(61.1066 1.16662 0 44.318 0 0)
(71.7714 -0.287259 0 44.074 0 0)
(82.645 -3.13538 0 43.0278 0 0)
(93.1849 -6.03015 0 43.3461 0 0)
(103.815 -11.083 0 43.343 0 0)
(113.678 -15.8316 0 45.1989 0 0)
(121.277 -24.4878 0 47.6965 0 0)
(125.716 -30.5465 0 51.9664 0 0)
(129.043 -40.6853 0 56.4807 0 0)
(115.969 -48.3522 0 69.0402 0 0)
(0.432489 0.516418 0 63.9361 0 0)
(2.97647 1.62853 0 65.9923 0 0)
(7.46651 2.38497 0 63.299 0 0)
(13.84 3.31275 0 63.1874 0 0)
(21.4833 3.57237 0 61.5526 0 0)
(30.1777 3.86266 0 61.138 0 0)
(39.5313 3.35977 0 59.3288 0 0)
(49.3651 2.82263 0 58.7337 0 0)
(59.4284 1.37374 0 57.0114 0 0)
(69.5264 -0.262449 0 56.4931 0 0)
(79.6145 -2.9762 0 55.1882 0 0)
(89.1446 -6.07455 0 55.243 0 0)
(98.454 -10.5442 0 54.8939 0 0)
(106.328 -15.4043 0 56.4401 0 0)
(112.486 -22.1147 0 57.8793 0 0)
(115.02 -28.0273 0 61.6078 0 0)
(115.963 -35.1676 0 64.5693 0 0)
(109.52 -40.7618 0 71.4619 0 0)
(0.355881 0.540926 0 81.4373 0 0)
(2.83014 1.74618 0 84.1242 0 0)
(7.25887 2.55652 0 80.6546 0 0)
(13.5107 3.50381 0 80.5456 0 0)
(20.9803 3.81164 0 78.458 0 0)
(29.4545 4.0399 0 77.9048 0 0)
(38.5063 3.56385 0 75.6142 0 0)
(47.9702 2.923 0 74.7891 0 0)
(57.517 1.48501 0 72.5953 0 0)
(67.0037 -0.218186 0 71.8073 0 0)
(76.2097 -2.86675 0 70.0497 0 0)
(84.7899 -5.85015 0 69.789 0 0)
(92.6893 -9.95228 0 68.9508 0 0)
(99.1147 -14.2783 0 69.9023 0 0)
(103.824 -19.7213 0 70.5415 0 0)
(105.768 -24.6316 0 73.0432 0 0)
(105.922 -29.793 0 74.9827 0 0)
(101.681 -33.2747 0 78.6337 0 0)
(0.329115 0.569441 0 102.525 0 0)
(2.73501 1.80792 0 105.737 0 0)
(7.06597 2.68462 0 101.709 0 0)
(13.1497 3.58551 0 101.239 0 0)
(20.4239 3.93588 0 98.9739 0 0)
(28.6031 4.05746 0 97.894 0 0)
(37.3307 3.61815 0 95.3778 0 0)
(46.3248 2.83705 0 93.9276 0 0)
(55.3469 1.47817 0 91.4893 0 0)
(64.1212 -0.337547 0 90.0369 0 0)
(72.4937 -2.75391 0 88.008 0 0)
(80.0778 -5.6832 0 87.0319 0 0)
(86.7936 -9.19105 0 85.8174 0 0)
(92.0507 -13.0778 0 85.822 0 0)
(95.749 -17.293 0 85.7691 0 0)
(97.3329 -21.3573 0 86.9077 0 0)
(97.435 -25.1991 0 87.9321 0 0)
(94.633 -27.6521 0 89.5327 0 0)
(0.313567 0.573708 0 126.531 0 0)
(2.63978 1.77509 0 130.463 0 0)
(6.84526 2.66906 0 125.75 0 0)
(12.7256 3.46524 0 124.94 0 0)
(19.7579 3.79366 0 122.408 0 0)
(27.6033 3.8084 0 120.831 0 0)
(35.9391 3.33568 0 117.946 0 0)
(44.4427 2.48976 0 115.912 0 0)
(52.8733 1.13604 0 113.049 0 0)
(60.961 -0.625899 0 110.956 0 0)
(68.5041 -2.89235 0 108.463 0 0)
(75.2224 -5.52258 0 106.734 0 0)
(80.9557 -8.57585 0 104.964 0 0)
(85.4015 -11.7973 0 103.956 0 0)
(88.4444 -15.158 0 103.122 0 0)
(89.8809 -18.3237 0 102.944 0 0)
(90.1833 -21.2409 0 102.954 0 0)
(88.2215 -22.886 0 103.103 0 0)
(0.299176 0.525244 0 151.959 0 0)
(2.53184 1.58271 0 156.464 0 0)
(6.58116 2.37891 0 151.331 0 0)
(12.2279 2.98974 0 149.892 0 0)
(18.965 3.21397 0 147.332 0 0)
(26.4393 3.07276 0 145.018 0 0)
(34.3345 2.53325 0 141.927 0 0)
(42.3183 1.6022 0 139.119 0 0)
(50.1495 0.274039 0 135.918 0 0)
(57.5634 -1.42951 0 133.039 0 0)
(64.3713 -3.48982 0 130.085 0 0)
(70.3456 -5.8259 0 127.51 0 0)
(75.3559 -8.40115 0 125.104 0 0)
(79.2397 -11.0516 0 123.099 0 0)
(81.9359 -13.6879 0 121.382 0 0)
(83.3527 -16.1512 0 120.04 0 0)
(83.935 -18.3484 0 118.947 0 0)
(82.7286 -19.3932 0 117.833 0 0)
(0.283871 0.394482 0 175.192 0 0)
(2.41345 1.14626 0 180.396 0 0)
(6.28101 1.67165 0 174.785 0 0)
(11.6663 2.0045 0 172.901 0 0)
(18.0699 2.00233 0 170.219 0 0)
(25.1459 1.66623 0 167.366 0 0)
(32.5734 0.98643 0 163.978 0 0)
(40.0373 -0.0216008 0 160.579 0 0)
(47.2904 -1.35492 0 156.96 0 0)
(54.0995 -2.96567 0 153.443 0 0)
(60.2868 -4.83275 0 149.953 0 0)
(65.6883 -6.86226 0 146.659 0 0)
(70.1991 -9.01518 0 143.559 0 0)
(73.7462 -11.1618 0 140.701 0 0)
(76.3002 -13.2244 0 138.108 0 0)
(77.8253 -15.1229 0 135.779 0 0)
(78.707 -16.7695 0 133.664 0 0)
(78.1587 -17.366 0 131.462 0 0)
(0.268673 0.156572 0 190.31 0 0)
(2.29265 0.391491 0 195.988 0 0)
(5.96461 0.489714 0 190.09 0 0)
(11.0709 0.411586 0 187.946 0 0)
(17.1245 0.0754021 0 185.199 0 0)
(23.7929 -0.532481 0 182.027 0 0)
(30.759 -1.40108 0 178.446 0 0)
(37.7276 -2.5227 0 174.691 0 0)
(44.4626 -3.87167 0 170.777 0 0)
(50.7581 -5.41084 0 166.856 0 0)
(56.4611 -7.0968 0 162.961 0 0)
(61.4502 -8.86443 0 159.179 0 0)
(65.6499 -10.6593 0 155.54 0 0)
(69.0311 -12.4034 0 152.076 0 0)
(71.5864 -14.0209 0 148.807 0 0)
(73.3048 -15.4903 0 145.76 0 0)
(74.4993 -16.7259 0 142.865 0 0)
(74.5438 -17.046 0 139.868 0 0)
(0.25903 -0.142481 0 190.283 0 0)
(2.1952 -0.534304 0 195.918 0 0)
(5.68811 -0.937728 0 190.084 0 0)
(10.5383 -1.49285 0 187.931 0 0)
(16.2764 -2.21317 0 185.227 0 0)
(22.5848 -3.1154 0 182.061 0 0)
(29.1557 -4.18867 0 178.506 0 0)
(35.7165 -5.42725 0 174.754 0 0)
(42.0445 -6.80065 0 170.827 0 0)
(47.9625 -8.28027 0 166.873 0 0)
(53.3341 -9.81933 0 162.897 0 0)
(58.0713 -11.3754 0 159.008 0 0)
(62.113 -12.8955 0 155.194 0 0)
(65.4532 -14.3364 0 151.528 0 0)
(68.0905 -15.6327 0 147.984 0 0)
(70.0305 -16.7918 0 144.643 0 0)
(71.5065 -17.7382 0 141.393 0 0)
(72.0402 -17.9422 0 138.06 0 0)
(0.255881 -0.396399 0 174.458 0 0)
(2.13609 -1.30666 0 179.413 0 0)
(5.49751 -2.12825 0 174.081 0 0)
(10.1579 -3.07679 0 172.088 0 0)
(15.6627 -4.10526 0 169.605 0 0)
(21.7072 -5.2344 0 166.715 0 0)
(27.9943 -6.45712 0 163.462 0 0)
(34.2696 -7.77031 0 160.037 0 0)
(40.3232 -9.14553 0 156.43 0 0)
(45.9986 -10.5629 0 152.8 0 0)
(51.1706 -11.9805 0 149.114 0 0)
(55.7711 -13.3717 0 145.506 0 0)
(59.7466 -14.6917 0 141.921 0 0)
(63.1014 -15.9173 0 138.468 0 0)
(65.8334 -16.9972 0 135.082 0 0)
(67.9601 -17.9463 0 131.879 0 0)
(69.6507 -18.7037 0 128.722 0 0)
(70.5475 -18.8908 0 125.521 0 0)
(0.257342 -0.545602 0 149.011 0 0)
(2.10836 -1.74792 0 152.971 0 0)
(5.38322 -2.82353 0 148.433 0 0)
(9.91613 -4.00703 0 146.715 0 0)
(15.2643 -5.21078 0 144.594 0 0)
(21.132 -6.45975 0 142.14 0 0)
(27.2315 -7.74596 0 139.374 0 0)
(33.321 -9.07124 0 136.468 0 0)
(39.2007 -10.4082 0 133.395 0 0)
(44.7271 -11.747 0 130.302 0 0)
(49.7849 -13.0493 0 127.145 0 0)
(54.315 -14.302 0 124.049 0 0)
(58.2711 -15.4657 0 120.953 0 0)
(61.6589 -16.5314 0 117.963 0 0)
(64.4774 -17.4557 0 115.013 0 0)
(66.7488 -18.2575 0 112.214 0 0)
(68.5982 -18.8863 0 109.44 0 0)
(69.758 -19.0954 0 106.647 0 0)
(0.260216 -0.601386 0 120.096 0 0)
(2.09949 -1.89008 0 123.067 0 0)
(5.31729 -3.06815 0 119.417 0 0)
(9.7649 -4.34123 0 118.023 0 0)
(15.0083 -5.59955 0 116.317 0 0)
(20.7585 -6.86923 0 114.352 0 0)
(26.7343 -8.13998 0 112.138 0 0)
(32.7031 -9.41718 0 109.811 0 0)
(38.4726 -10.6755 0 107.346 0 0)
(43.9075 -11.9117 0 104.861 0 0)
(48.9002 -13.0922 0 102.318 0 0)
(53.3964 -14.2123 0 99.8186 0 0)
(57.3547 -15.2377 0 97.3129 0 0)
(60.78 -16.1682 0 94.8865 0 0)
(63.6726 -16.967 0 92.4872 0 0)
(66.0572 -17.6537 0 90.2028 0 0)
(68.0287 -18.1872 0 87.9369 0 0)
(69.3872 -18.4225 0 85.6607 0 0)
(0.263167 -0.590583 0 91.9325 0 0)
(2.09919 -1.83027 0 94.049 0 0)
(5.27961 -2.99704 0 91.2568 0 0)
(9.6704 -4.24751 0 90.183 0 0)
(14.8434 -5.46782 0 88.8833 0 0)
(20.515 -6.68038 0 87.3881 0 0)
(26.4091 -7.87474 0 85.707 0 0)
(32.2992 -9.05591 0 83.9345 0 0)
(37.9986 -10.2032 0 82.0581 0 0)
(43.3773 -11.3153 0 80.1604 0 0)
(48.3335 -12.3653 0 78.2188 0 0)
(52.8153 -13.3515 0 76.3036 0 0)
(56.7849 -14.2465 0 74.3848 0 0)
(60.2456 -15.0529 0 72.5207 0 0)
(63.199 -15.7424 0 70.6786 0 0)
(65.6722 -16.3302 0 68.9179 0 0)
(67.7381 -16.7869 0 67.1743 0 0)
(69.2494 -17.0362 0 65.4206 0 0)
(0.266253 -0.536757 0 66.9673 0 0)
(2.10306 -1.65102 0 68.4084 0 0)
(5.25836 -2.73091 0 66.3758 0 0)
(9.61145 -3.88383 0 65.5927 0 0)
(14.7372 -5.00343 0 64.6543 0 0)
(20.3565 -6.10559 0 63.5721 0 0)
(26.1972 -7.18227 0 62.3575 0 0)
(32.0362 -8.23537 0 61.0714 0 0)
(37.6917 -9.25009 0 59.7121 0 0)
(43.0368 -10.2239 0 58.3317 0 0)
(47.9741 -11.1378 0 56.9223 0 0)
(52.4528 -11.989 0 55.5271 0 0)
(56.4375 -12.7584 0 54.1326 0 0)
(59.9301 -13.4475 0 52.7733 0 0)
(62.9336 -14.0369 0 51.4327 0 0)
(65.4759 -14.5357 0 50.1463 0 0)
(67.6142 -14.9257 0 48.876 0 0)
(69.2433 -15.1734 0 47.5944 0 0)
(0.268083 -0.462878 0 46.313 0 0)
(2.10749 -1.41602 0 47.2522 0 0)
(5.24656 -2.36394 0 45.8509 0 0)
(9.57473 -3.37533 0 45.3127 0 0)
(14.6688 -4.35646 0 44.6713 0 0)
(20.2536 -5.31673 0 43.9273 0 0)
(26.0597 -6.25113 0 43.093 0 0)
(31.8664 -7.15795 0 42.2054 0 0)
(37.4952 -8.02827 0 41.2695 0 0)
(42.821 -8.8574 0 40.3161 0 0)
(47.7492 -9.63308 0 39.3457 0 0)
(52.2298 -10.3513 0 38.3828 0 0)
(56.229 -10.9998 0 37.4229 0 0)
(59.7477 -11.5779 0 36.4845 0 0)
(62.7891 -12.0734 0 35.5609 0 0)
(65.3822 -12.4902 0 34.6714 0 0)
(67.5725 -12.8182 0 33.7961 0 0)
(69.2875 -13.0486 0 32.9097 0 0)
(0.269259 -0.383091 0 30.1733 0 0)
(2.11107 -1.16474 0 30.7579 0 0)
(5.23987 -1.95845 0 29.8473 0 0)
(9.55133 -2.80751 0 29.5 0 0)
(14.6242 -3.63122 0 29.0878 0 0)
(20.1857 -4.4358 0 28.607 0 0)
(25.9688 -5.21746 0 28.0677 0 0)
(31.7534 -5.9732 0 27.4919 0 0)
(37.3634 -6.69649 0 26.8856 0 0)
(42.6747 -7.3826 0 26.267 0 0)
(47.5945 -8.02298 0 25.6388 0 0)
(52.0724 -8.61348 0 25.0142 0 0)
(56.0769 -9.14615 0 24.3929 0 0)
(59.6078 -9.61909 0 23.784 0 0)
(62.6689 -10.0248 0 23.1857 0 0)
(65.2878 -10.3635 0 22.6077 0 0)
(67.505 -10.6307 0 22.0405 0 0)
(69.273 -10.8283 0 21.4646 0 0)
(0.269578 -0.304619 0 18.2208 0 0)
(2.11285 -0.919846 0 18.5652 0 0)
(5.23453 -1.55423 0 18.0143 0 0)
(9.53197 -2.23721 0 17.8082 0 0)
(14.5858 -2.90143 0 17.5651 0 0)
(20.1253 -3.55148 0 17.2805 0 0)
(25.8839 -4.18262 0 16.9602 0 0)
(31.643 -4.79154 0 16.6171 0 0)
(37.2273 -5.37167 0 16.2552 0 0)
(42.5133 -5.91954 0 15.8851 0 0)
(47.4106 -6.42789 0 15.5084 0 0)
(51.8676 -6.89436 0 15.1331 0 0)
(55.8563 -7.31213 0 14.7595 0 0)
(59.3744 -7.68091 0 14.3926 0 0)
(62.4303 -7.99489 0 14.032 0 0)
(65.0465 -8.25467 0 13.6828 0 0)
(67.2669 -8.45942 0 13.3407 0 0)
(69.0624 -8.60984 0 12.9938 0 0)
(0.269234 -0.228279 0 9.88707 0 0)
(2.11061 -0.691293 0 10.0707 0 0)
(5.21732 -1.17873 0 9.77335 0 0)
(9.4885 -1.70852 0 9.67096 0 0)
(14.5121 -2.22299 0 9.54653 0 0)
(20.0182 -2.72347 0 9.39731 0 0)
(25.7399 -3.20561 0 9.22659 0 0)
(31.4611 -3.66693 0 9.04232 0 0)
(37.0062 -4.10168 0 8.84651 0 0)
(42.2552 -4.50832 0 8.64546 0 0)
(47.1164 -4.88124 0 8.43974 0 0)
(51.5434 -5.22061 0 8.23455 0 0)
(55.5068 -5.52061 0 8.02931 0 0)
(59.0087 -5.78348 0 7.82798 0 0)
(62.0564 -6.0031 0 7.62963 0 0)
(64.6716 -6.18301 0 7.43825 0 0)
(66.8958 -6.32618 0 7.2514 0 0)
(68.7247 -6.42826 0 7.06312 0 0)
(0.268105 -0.154808 0 4.48825 0 0)
(2.08375 -0.497881 0 4.5839 0 0)
(5.15601 -0.852401 0 4.45865 0 0)
(9.38765 -1.22881 0 4.42301 0 0)
(14.3857 -1.58589 0 4.37193 0 0)
(19.8663 -1.92823 0 4.30749 0 0)
(25.5615 -2.25321 0 4.23016 0 0)
(31.2567 -2.55857 0 4.14365 0 0)
(36.7788 -2.84272 0 4.05059 0 0)
(42.0071 -3.10683 0 3.95474 0 0)
(46.8517 -3.34801 0 3.8569 0 0)
(51.2693 -3.5671 0 3.75978 0 0)
(55.227 -3.76036 0 3.66286 0 0)
(58.7349 -3.92986 0 3.56884 0 0)
(61.7891 -4.06949 0 3.47614 0 0)
(64.4232 -4.18455 0 3.38864 0 0)
(66.6445 -4.27506 0 3.30335 0 0)
(68.5016 -4.34512 0 3.21912 0 0)
(0.255189 -0.0881895 0 1.4217 0 0)
(2.06771 -0.313442 0 1.48744 0 0)
(5.20433 -0.525992 0 1.44737 0 0)
(9.4944 -0.734374 0 1.43422 0 0)
(14.5458 -0.924478 0 1.4141 0 0)
(20.0776 -1.1071 0 1.39083 0 0)
(25.829 -1.28373 0 1.36418 0 0)
(31.5833 -1.45183 0 1.33484 0 0)
(37.1669 -1.60976 0 1.30385 0 0)
(42.4541 -1.75733 0 1.27223 0 0)
(47.3581 -1.89305 0 1.2404 0 0)
(51.8281 -2.01693 0 1.20898 0 0)
(55.8355 -2.12695 0 1.17792 0 0)
(59.383 -2.22376 0 1.14795 0 0)
(62.4705 -2.30329 0 1.11867 0 0)
(65.136 -2.36951 0 1.09217 0 0)
(67.357 -2.42213 0 1.06695 0 0)
(69.2063 -2.46162 0 1.03999 0 0)
(0.245864 -0.0253268 0 0.141913 0 0)
(2.06554 -0.0978136 0 0.153697 0 0)
(5.18327 -0.165554 0 0.150911 0 0)
(9.44256 -0.230801 0 0.149743 0 0)
(14.4753 -0.293699 0 0.14744 0 0)
(19.9945 -0.354025 0 0.144712 0 0)
(25.7394 -0.412839 0 0.141713 0 0)
(31.4913 -0.469328 0 0.138581 0 0)
(37.0821 -0.522665 0 0.135358 0 0)
(42.3873 -0.572667 0 0.132105 0 0)
(47.3218 -0.619023 0 0.128847 0 0)
(51.8326 -0.661705 0 0.125644 0 0)
(55.8935 -0.700141 0 0.1225 0 0)
(59.4997 -0.734188 0 0.119475 0 0)
(62.6574 -0.763116 0 0.116649 0 0)
(65.3997 -0.788363 0 0.11431 0 0)
(67.7109 -0.806587 0 0.112234 0 0)
(69.6377 -0.815903 0 0.111849 0 0)
(0.0244842 0.0357809 0 0.717855 0 0)
(0.267302 0.0991626 0 0.67889 0 0)
(0.785626 0.181012 0 0.671715 0 0)
(1.53925 0.29514 0 0.662471 0 0)
(2.48637 0.424244 0 0.660863 0 0)
(3.60875 0.569152 0 0.657597 0 0)
(4.88447 0.716281 -2.38549e-19 0.655645 -6.4905e-20 1.47939e-37)
(6.31068 0.867239 2.42506e-19 0.651349 6.92147e-20 1.48391e-37)
(7.88075 1.01421 0 0.645341 0 0)
(9.59268 1.16164 2.44808e-19 0.637766 6.86321e-20 1.46168e-37)
(11.4413 1.30567 0 0.629176 0 0)
(13.4207 1.44853 0 0.620071 0 0)
(15.5242 1.58563 0 0.612105 0 0)
(17.7455 1.71731 -2.77179e-19 0.605629 -5.17145e-20 1.34794e-37)
(20.0785 1.8404 0 0.599404 0 0)
(22.5235 1.95396 0 0.594155 0 0)
(25.0807 2.05383 3.40329e-19 0.58983 3.90198e-20 1.22125e-37)
(27.7486 2.14166 0 0.585358 0 0)
(30.5222 2.22017 0 0.580682 0 0)
(33.3956 2.29164 0 0.57622 0 0)
(36.3529 2.35503 -4.56206e-19 0.572874 -1.95949e-20 1.018e-37)
(39.3845 2.41095 0 0.569126 0 0)
(42.4768 2.45744 -5.15944e-19 0.566856 -1.03067e-20 9.25454e-38)
(45.6207 2.49445 0 0.568021 0 0)
(48.7999 2.5282 0 0.56872 0 0)
(52.0002 2.55138 -6.04017e-19 0.570846 1.17383e-21 7.97847e-38)
(55.2147 2.55374 0 0.572687 0 0)
(58.4474 2.53649 6.57588e-19 0.571206 -6.89678e-21 7.21736e-38)
(61.6925 2.50559 0 0.563396 0 0)
(64.9558 2.46286 -7.02306e-19 0.553035 1.04715e-20 6.54082e-38)
(68.236 2.41091 0 0.539508 0 0)
(71.5206 2.35223 0 0.523699 0 0)
(74.8021 2.28672 0 0.50966 0 0)
(78.082 2.21062 0 0.498277 0 0)
(81.3541 2.12334 0 0.486725 0 0)
(84.6153 2.02779 7.79455e-19 0.47582 -1.40055e-20 4.60034e-38)
(87.8642 1.92385 0 0.464192 0 0)
(91.1018 1.81137 -1.56208e-18 0.448141 2.71682e-20 1.61402e-37)
(94.3266 1.69194 0 0.432537 0 0)
(97.5339 1.56444 1.5521e-18 0.417891 -2.61897e-20 1.39992e-37)
(100.716 1.43134 0 0.402738 0 0)
(103.874 1.28905 0 0.391071 0 0)
(106.997 1.1385 -1.51415e-18 0.378507 2.15821e-20 1.11296e-37)
(110.068 0.985713 0 0.365688 0 0)
(113.072 0.830946 -1.47568e-18 0.354876 1.82759e-20 9.43634e-38)
(115.993 0.67307 1.45325e-18 0.346017 -1.65416e-20 8.66719e-38)
(118.817 0.509387 0 0.339899 0 0)
(121.536 0.339519 1.40249e-18 0.335126 -1.25167e-20 7.34619e-38)
(124.132 0.1642 1.3743e-18 0.331231 -1.06505e-20 6.80008e-38)
(126.606 -0.0136263 0 0.327977 0 0)
(128.944 -0.192887 0 0.325848 0 0)
(131.128 -0.376392 0 0.323166 0 0)
(133.135 -0.564871 0 0.321954 0 0)
(134.946 -0.755648 0 0.323993 0 0)
(136.534 -0.945417 -1.17406e-18 0.328202 -4.3907e-21 5.02051e-38)
(137.87 -1.13663 0 0.332302 0 0)
(138.944 -1.33265 1.07942e-18 0.335979 1.14563e-20 4.75511e-38)
(139.758 -1.5353 0 0.341193 0 0)
(140.308 -1.74412 0 0.347979 0 0)
(140.577 -1.95009 -9.11672e-19 0.357293 -2.24588e-20 4.7547e-38)
(140.561 -2.15425 0 0.369268 0 0)
(140.243 -2.35927 7.80277e-19 0.381273 3.12437e-20 4.97111e-38)
(139.629 -2.56304 0 0.391568 0 0)
(138.715 -2.76671 0 0.404363 0 0)
(137.51 -2.96953 0 0.418529 0 0)
(136.026 -3.16513 -4.81966e-19 0.432928 -4.76038e-20 6.03585e-38)
(134.267 -3.35415 0 0.447644 0 0)
(132.246 -3.53684 0 0.460713 0 0)
(129.975 -3.71222 -2.26208e-19 0.474363 -6.11891e-20 7.30535e-38)
(127.475 -3.88539 0 0.489435 0 0)
(124.782 -4.0513 -5.06437e-20 0.504614 -6.98348e-20 8.30355e-38)
(121.908 -4.20479 0 0.520073 0 0)
(118.87 -4.34609 0 0.536075 0 0)
(115.698 -4.47659 0 0.553215 0 0)
(112.415 -4.59774 -3.05066e-19 0.571354 8.3204e-20 1.0454e-37)
(109.04 -4.70684 0 0.589439 0 0)
(105.588 -4.80071 0 0.607392 0 0)
(102.072 -4.87964 -5.645e-19 0.625474 9.03216e-20 1.20173e-37)
(98.5056 -4.94793 -6.46264e-19 0.644245 9.18641e-20 1.2529e-37)
(94.9157 -5.00511 0 0.663063 0 0)
(91.3334 -5.0503 -7.99217e-19 0.682801 9.46466e-20 1.34714e-37)
(87.7796 -5.08428 0 0.704009 0 0)
(84.2743 -5.10633 -1.87821e-18 0.725574 1.92618e-19 5.74486e-37)
(80.8317 -5.11542 0 0.748206 0 0)
(77.4696 -5.10996 -2.12341e-18 0.770756 1.93741e-19 6.07639e-37)
(74.2063 -5.08821 0 0.793699 0 0)
(71.0564 -5.05353 2.32596e-18 0.819688 -1.93867e-19 6.36603e-37)
(68.0375 -5.00568 0 0.844725 0 0)
(65.1643 -4.93928 0 0.867034 0 0)
(62.4361 -4.85417 0 0.889731 0 0)
(59.8575 -4.75218 -2.58662e-18 0.914733 1.86208e-19 6.79906e-37)
(57.4339 -4.63583 0 0.939334 0 0)
(55.1739 -4.50322 2.64723e-18 0.963533 -1.79938e-19 6.94632e-37)
(53.0793 -4.35403 0 0.987216 0 0)
(51.139 -4.1826 -2.6591e-18 1.01075 1.73639e-19 7.03425e-37)
(49.3482 -3.99478 -2.64997e-18 1.03201 1.70424e-19 7.06914e-37)
(47.6947 -3.79426 -2.63113e-18 1.0532 1.66279e-19 7.09567e-37)
(46.1736 -3.58458 0 1.07557 0 0)
(44.7583 -3.36493 0 1.09868 0 0)
(43.4602 -3.13643 0 1.11825 0 0)
(42.2615 -2.89916 0 1.13805 0 0)
(41.1568 -2.65991 0 1.15781 0 0)
(40.1284 -2.42015 0 1.17685 0 0)
(39.1736 -2.17774 0 1.192 0 0)
(38.2463 -1.93443 0 1.20796 0 0)
(37.3445 -1.69769 2.02498e-18 1.22316 -1.31518e-19 7.07455e-37)
(36.4348 -1.4696 1.91084e-18 1.24018 -1.242e-19 7.0674e-37)
(35.5438 -1.25043 0 1.25165 0 0)
(34.6303 -1.03992 0 1.26465 0 0)
(33.7109 -0.853122 0 1.27862 0 0)
(32.7285 -0.676736 1.35414e-18 1.29165 -1.04807e-19 6.90618e-37)
(31.787 -0.526929 0 1.29897 0 0)
(30.7794 -0.384912 0 1.30874 0 0)
(29.826 -0.282525 0 1.31887 0 0)
(28.9044 -0.199496 0 1.33191 0 0)
(28.0808 -0.149348 -4.39907e-19 1.34025 7.5615e-20 6.65705e-37)
(27.3878 -0.123063 0 1.34935 0 0)
(26.8538 -0.131561 0 1.36275 0 0)
(26.5626 -0.173592 -2.23049e-19 1.37034 -6.50679e-20 6.41988e-37)
(26.5125 -0.242292 4.50387e-19 1.38338 6.09868e-20 6.29571e-37)
(26.76 -0.352123 0 1.40031 0 0)
(27.3583 -0.508643 9.12615e-19 1.41753 6.00567e-20 6.04981e-37)
(28.3721 -0.705287 0 1.43667 0 0)
(29.8638 -0.957436 -1.35354e-18 1.45433 -6.45746e-20 5.75374e-37)
(31.8543 -1.24347 0 1.47706 0 0)
(34.4177 -1.57935 0 1.50406 0 0)
(37.453 -1.95743 0 1.53678 0 0)
(41.0706 -2.38609 0 1.57103 0 0)
(45.1233 -2.84077 0 1.60906 0 0)
(49.616 -3.34194 4.89755e-18 1.65122 2.04552e-19 1.97161e-36)
(54.4842 -3.88711 5.15263e-18 1.69732 2.30487e-19 1.9368e-36)
(59.7467 -4.46793 0 1.74539 0 0)
(65.2049 -5.06922 0 1.80135 0 0)
(70.8197 -5.69577 0 1.85655 0 0)
(76.4416 -6.30803 -5.69299e-18 1.91746 -3.52121e-19 1.91679e-36)
(81.8429 -6.92183 0 1.98863 0 0)
(86.9867 -7.54299 0 2.06082 0 0)
(91.8157 -8.15717 0 2.13729 0 0)
(96.2542 -8.74979 -5.33105e-18 2.21559 -5.33299e-19 2.07088e-36)
(100.284 -9.31655 5.09734e-18 2.29903 5.81966e-19 2.13265e-36)
(103.694 -9.83848 0 2.3898 0 0)
(106.602 -10.3479 0 2.48259 0 0)
(108.972 -10.8014 4.07877e-18 2.57715 7.34995e-19 2.36463e-36)
(110.812 -11.2209 3.64979e-18 2.67053 7.83838e-19 2.44989e-36)
(111.968 -11.5651 0 2.77082 0 0)
(112.543 -11.8804 0 2.87075 0 0)
(112.427 -12.1228 -2.05237e-18 2.97471 -9.45305e-19 2.71772e-36)
(111.753 -12.3474 1.42292e-18 3.0697 9.88902e-19 2.7964e-36)
(110.564 -12.5014 0 3.16649 0 0)
(108.659 -12.6015 0 3.26712 0 0)
(106.16 -12.6353 -5.21294e-19 3.35801 1.11675e-18 3.06697e-36)
(103.029 -12.6152 0 3.44848 0 0)
(99.5494 -12.5574 0 3.53208 0 0)
(95.5621 -12.4089 -2.54784e-18 3.60455 1.20569e-18 3.29944e-36)
(91.2624 -12.1884 0 3.67656 0 0)
(86.6401 -11.8573 -3.83138e-18 3.73806 1.25665e-18 3.44238e-36)
(81.7538 -11.4411 0 3.79382 0 0)
(76.6463 -10.9068 0 3.83298 0 0)
(71.7035 -10.2742 0 3.85711 0 0)
(66.819 -9.47687 5.8706e-18 3.87589 -1.27743e-18 3.68064e-36)
(62.1562 -8.55994 0 3.87953 0 0)
(57.9324 -7.49099 0 3.86741 0 0)
(54.4708 -6.30216 0 3.83956 0 0)
(51.6084 -4.9246 0 3.79757 0 0)
(49.5151 -3.46589 0 3.74693 0 0)
(48.7908 -1.91235 0 3.67503 0 0)
(49.6255 -0.289124 6.02024e-18 3.5854 -1.10395e-18 3.72629e-36)
(51.6787 1.42384 5.6045e-18 3.48717 -1.04977e-18 3.7089e-36)
(55.3772 3.11565 0 3.37566 0 0)
(60.63 4.74195 0 3.25777 0 0)
(67.4338 6.3218 0 3.12831 0 0)
(75.3657 7.79505 -3.05122e-18 2.99864 7.95023e-19 3.38302e-36)
(84.4913 9.09612 0 2.87045 0 0)
(94.0492 10.2841 2.94634e-18 2.73543 -1.35031e-18 1.23603e-35)
(103.937 11.2414 -1.30844e-18 2.6047 1.2175e-18 1.16591e-35)
(113.574 12.0319 3.19072e-19 2.47345 1.10499e-18 1.10173e-35)
(123.229 12.6826 -2.02203e-18 2.3487 -1.0142e-18 1.03324e-35)
(131.349 13.2239 3.67409e-18 2.22975 9.22792e-19 9.75824e-36)
(139.224 13.7011 -5.2786e-18 2.12249 -9.0348e-19 8.99417e-36)
(142.974 14.394 0 2.06656 0 0)
(0.0183118 0.174294 0 6.10083 0 0)
(0.202764 0.388058 0 6.03875 0 0)
(0.62962 0.610053 1.31887e-19 5.8658 1.75805e-19 6.76767e-37)
(1.32734 0.854645 0 5.74479 0 0)
(2.26969 1.13404 -1.92578e-19 5.68485 -3.53618e-19 9.19956e-37)
(3.44614 1.43889 -1.84149e-19 5.65766 -4.41621e-19 9.73107e-37)
(4.83559 1.76356 -8.07403e-20 5.6423 -2.51565e-19 2.49119e-37)
(6.42375 2.10407 -6.89517e-20 5.62431 -2.70512e-19 2.61375e-37)
(8.20274 2.45318 0 5.59598 0 0)
(10.1706 2.80638 -4.20477e-20 5.55341 -2.69339e-19 2.59524e-37)
(12.3286 3.15488 0 5.50154 0 0)
(14.6749 3.49635 0 5.44188 0 0)
(17.2012 3.82563 9.43984e-20 5.37351 4.24021e-19 9.51502e-37)
(19.9082 4.14227 6.93562e-20 5.30152 1.87005e-19 2.34221e-37)
(22.7852 4.4367 -1.85112e-19 5.22616 -3.26441e-19 8.93963e-37)
(25.8261 4.70889 -2.51314e-19 5.14777 -2.81411e-19 8.66204e-37)
(29.0196 4.96021 -1.70982e-19 5.06326 -1.18539e-19 2.12813e-37)
(32.3594 5.19211 0 4.97239 0 0)
(35.8336 5.40293 0 4.8766 0 0)
(39.4338 5.59723 0 4.77379 0 0)
(43.1366 5.77422 -3.86392e-19 4.66876 -3.67901e-20 1.80437e-37)
(46.9327 5.93125 0 4.56409 0 0)
(50.7995 6.05989 1.60799e-18 4.45739 -1.58768e-20 1.55209e-36)
(54.7246 6.16375 0 4.35426 0 0)
(58.691 6.24442 0 4.24891 0 0)
(62.6818 6.302 7.74355e-19 4.14458 -5.75497e-20 1.56523e-37)
(66.6692 6.33321 0 4.03857 0 0)
(70.6345 6.34736 -9.325e-19 3.93795 8.16775e-20 1.46017e-37)
(74.5441 6.33815 -1.99264e-18 3.83798 1.81334e-19 5.57173e-37)
(78.3879 6.30042 1.0766e-18 3.73527 -9.86486e-20 1.36642e-37)
(82.162 6.23118 0 3.62748 0 0)
(85.8664 6.13402 0 3.52218 0 0)
(89.4874 6.01144 0 3.41883 0 0)
(93.0292 5.86454 -2.57575e-18 3.31065 2.22611e-19 4.71445e-37)
(96.4833 5.68782 -2.65406e-18 3.20313 2.20114e-19 4.55279e-37)
(99.8635 5.4816 -1.37323e-18 3.10205 1.07473e-19 1.10786e-37)
(103.178 5.24426 0 3.01002 0 0)
(106.42 4.97078 2.83726e-18 2.92178 -2.0275e-19 4.12931e-37)
(109.598 4.65918 0 2.83647 0 0)
(112.705 4.31877 -2.87399e-18 2.75484 1.8818e-19 3.81681e-37)
(115.751 3.95066 0 2.67441 0 0)
(118.729 3.56269 0 2.60219 0 0)
(121.647 3.1588 2.82713e-18 2.5312 -1.53901e-19 3.31795e-37)
(124.491 2.73604 0 2.46583 0 0)
(127.242 2.28783 8.15907e-18 2.40782 -3.93172e-19 2.68546e-36)
(129.897 1.81 -2.68861e-18 2.36246 1.19152e-19 2.83809e-37)
(132.461 1.30692 0 2.33531 0 0)
(134.949 0.778739 -2.54906e-18 2.31949 9.09604e-20 2.51867e-37)
(137.346 0.21791 -2.46849e-18 2.31323 7.67418e-20 2.36299e-37)
(139.65 -0.369139 0 2.31553 0 0)
(141.838 -0.967867 0 2.32892 0 0)
(143.891 -1.56417 0 2.34396 0 0)
(145.795 -2.14855 0 2.3575 0 0)
(147.511 -2.72535 0 2.38105 0 0)
(149.029 -3.30364 1.88367e-18 2.41377 1.44411e-20 1.72173e-37)
(150.326 -3.89094 3.45177e-18 2.45706 7.10255e-20 6.56207e-37)
(151.381 -4.48195 -1.6447e-18 2.50818 -5.58662e-20 1.60184e-37)
(152.208 -5.09132 0 2.56436 0 0)
(152.777 -5.70214 2.68761e-18 2.62751 1.90193e-19 6.01763e-37)
(153.063 -6.29238 -1.17029e-18 2.6956 -1.13239e-19 1.46941e-37)
(153.091 -6.87757 0 2.77229 0 0)
(152.812 -7.45684 -9.78403e-19 2.86214 -1.48624e-19 1.49576e-37)
(152.237 -8.01441 0 2.95539 0 0)
(151.361 -8.5627 0 3.05665 0 0)
(150.18 -9.09262 -1.04779e-18 3.16275 -3.9704e-19 6.25859e-37)
(148.681 -9.59357 4.22751e-19 3.27357 2.15316e-19 1.63825e-37)
(146.903 -10.0866 -4.89398e-19 3.39388 -4.62369e-19 6.68707e-37)
(144.838 -10.5584 2.12246e-19 3.5184 4.89255e-19 6.92473e-37)
(142.516 -11.0058 1.0151e-20 3.64403 2.54527e-19 1.82759e-37)