/*--------------------------------*- C++ -*----------------------------------*\
| =========                 |                                                 |
| \\      /  F ield         | OpenFOAM: The Open Source CFD Toolbox           |
|  \\    /   O peration     | Version:  dev                                   |
|   \\  /    A nd           | Web:      http://www.openfoam.org               |
|    \\/     M anipulation  |                                                 |
\*---------------------------------------------------------------------------*/
FoamFile
{
    version     2.0;
    format      ascii;
    class       volScalarField;
    object      k;
    location    "9.124";
}
// * * * * * * * * * * * * * * * * * * * * * * * * * * * * * * * * * * * * * //

dimensions      [0 2 -2 0 0 0 0];

internalField   nonuniform List<scalar> 
12225
(
7.76418
8.20817
4.70366
4.88552
3.84068
5.02803
5.18601
6.37624
7.1346
8.44694
9.16479
11.4838
11.1664
16.1107
14.9855
22.1387
48.457
55.4821
1.9122
6.26984
4.93154
6.32157
4.42687
6.04671
4.58252
6.1283
5.35831
6.48512
6.23983
6.3739
6.91198
6.09031
7.02483
6.58301
11.0287
17.7355
0.250101
2.40055
2.69561
4.03731
3.33585
4.13655
3.49428
3.96453
3.77971
3.39953
3.85065
2.92781
3.65423
2.65986
3.1628
3.24435
7.50257
15.2468
0.0328016
0.594745
0.878753
1.29867
1.71291
1.75367
2.09602
1.88159
2.40834
1.78047
2.28781
1.5427
1.94214
1.40191
1.87624
1.88717
5.7449
15.9717
0.0135758
0.189659
0.342502
0.495717
0.809075
0.846075
1.03607
0.974602
1.18469
0.919607
1.15504
0.816888
1.01759
0.775504
1.06258
1.1307
3.68735
15.5094
0.020607
0.111768
0.180129
0.230624
0.380006
0.392716
0.499813
0.466919
0.580997
0.462746
0.590691
0.447154
0.553452
0.4541
0.596789
0.705564
2.0889
6.53813
0.0296234
0.0587249
0.111253
0.125786
0.200423
0.201914
0.264037
0.249175
0.309249
0.27348
0.332089
0.287734
0.333734
0.304673
0.368753
0.425949
0.916947
2.1628
0.0345107
0.0555689
0.0893089
0.102167
0.139867
0.144642
0.180583
0.179121
0.211186
0.206674
0.232171
0.226721
0.244122
0.243834
0.263257
0.31306
0.495815
0.767677
0.049815
0.0692715
0.0908713
0.105769
0.128321
0.140209
0.158847
0.168873
0.18564
0.195705
0.205496
0.216194
0.221152
0.230284
0.238245
0.25707
0.333658
0.395312
0.0803014
0.12592
0.115638
0.132935
0.137051
0.152224
0.161669
0.176935
0.185752
0.202218
0.206021
0.220733
0.221982
0.234322
0.237476
0.250586
0.278592
0.297015
0.156289
0.217916
0.195489
0.218523
0.191618
0.21124
0.198584
0.217759
0.21408
0.233087
0.231468
0.247018
0.246281
0.256317
0.256704
0.264375
0.281174
0.29063
0.359149
0.401776
0.356417
0.372277
0.340811
0.359344
0.337288
0.35771
0.340918
0.360348
0.348732
0.359343
0.352563
0.35141
0.344228
0.339724
0.333777
0.329799
0.734946
0.739727
0.659872
0.644066
0.575948
0.569059
0.52592
0.524536
0.499317
0.501401
0.48517
0.482204
0.471199
0.459214
0.444654
0.434502
0.424443
0.416047
1.26153
1.19618
1.05434
0.971414
0.861775
0.842133
0.793327
0.782416
0.747178
0.736488
0.707743
0.691118
0.664847
0.643538
0.613203
0.594075
0.567757
0.550386
2.17722
1.99519
1.8051
1.6387
1.48772
1.37735
1.26273
1.17402
1.08565
1.01898
0.950692
0.897673
0.841438
0.79797
0.747881
0.713868
0.671658
0.645206
3.47623
3.11271
2.682
2.25973
1.9634
1.74347
1.56083
1.41553
1.2881
1.18628
1.09222
1.01658
0.942306
0.884237
0.821684
0.777935
0.726488
0.693158
4.43337
3.80013
3.13647
2.56863
2.18872
1.91348
1.69587
1.52432
1.37864
1.26159
1.156
1.07042
0.987549
0.922306
0.853841
0.804654
0.748627
0.710979
4.56291
3.9244
3.23691
2.64185
2.24398
1.95396
1.7275
1.54968
1.39959
1.27896
1.17045
1.08251
0.997584
0.930396
0.860042
0.808622
0.750841
0.711094
4.24651
3.71639
3.11081
2.56026
2.18569
1.9089
1.69001
1.5176
1.37233
1.25569
1.1502
1.06495
0.982103
0.915796
0.845676
0.793399
0.734348
0.693036
3.08759
2.80852
2.4902
2.15962
1.90962
1.70084
1.52087
1.37365
1.24857
1.14944
1.05965
0.987261
0.914485
0.855267
0.789836
0.739594
0.681526
0.64063
1.96411
1.79812
1.57615
1.39036
1.25752
1.15123
1.05185
0.967584
0.895932
0.847836
0.801537
0.766154
0.722149
0.684466
0.63287
0.591164
0.537589
0.499524
1.15614
1.09129
1.00001
0.906722
0.830854
0.776593
0.721189
0.660367
0.601754
0.555759
0.523077
0.504289
0.485615
0.470045
0.447992
0.429794
0.405572
0.38899
0.639735
0.620303
0.592188
0.548952
0.509973
0.470751
0.438682
0.417772
0.403344
0.394573
0.389536
0.387846
0.38544
0.382175
0.376456
0.370014
0.360713
0.353428
0.308807
0.316773
0.304241
0.287334
0.282701
0.290546
0.303465
0.319658
0.334334
0.345454
0.353971
0.360487
0.364524
0.366428
0.365692
0.363434
0.358745
0.353705
0.135447
0.144609
0.149459
0.172263
0.208713
0.244089
0.280694
0.313049
0.338136
0.357239
0.371628
0.381807
0.388432
0.392494
0.394481
0.394704
0.39341
0.392335
0.0426018
0.0675299
0.109642
0.17238
0.238367
0.297034
0.352801
0.402317
0.445626
0.480198
0.505596
0.522614
0.532748
0.541134
0.549227
0.554991
0.557942
0.564461
0.0122734
0.0712392
0.207959
0.378193
0.536306
0.658416
0.761058
0.840348
0.904601
0.953003
0.984421
1.00225
1.00906
1.01889
1.03175
1.0419
1.05298
1.06533
0.033656
0.400729
1.06815
1.48436
1.77672
1.9531
2.08707
2.15412
2.19246
2.20928
2.20241
2.17383
2.13524
2.10587
2.06561
2.0156
1.94516
1.85522
0.479291
3.15229
4.66399
4.97482
4.89523
4.61587
4.33093
4.06966
3.83661
3.61818
3.42922
3.2414
3.06679
2.88925
2.72667
2.57724
2.41715
2.16627
6.80377
9.60565
7.98694
5.77133
4.5609
4.03213
3.79073
3.70234
3.70234
3.76861
3.86266
3.96592
4.07866
4.19056
4.28201
4.33383
4.32298
4.01825
0.166182
0.186329
0.242064
0.263476
0.295103
0.320963
0.340851
0.358788
0.376021
0.390345
0.409696
0.434623
0.465741
0.504457
0.552286
0.606356
0.673059
0.74976
0.836341
0.92849
1.02945
1.15108
1.27713
1.40925
1.56168
1.72355
1.89635
2.09173
2.29515
2.51479
2.75568
3.01149
3.29124
3.55823
3.84845
4.12503
4.35365
4.63347
4.85661
4.9079
4.85535
4.78596
4.7801
4.80851
4.79177
4.76187
4.80817
4.98078
5.11282
5.14579
5.04447
4.92744
4.90811
5.17511
5.78059
6.85565
8.18348
8.60976
8.51009
7.96575
6.98845
6.33368
6.00842
6.0391
6.316
6.57892
6.72343
6.82513
6.91234
6.93607
6.89371
6.80722
6.69091
6.52241
6.31327
6.07086
5.8196
5.54609
5.26613
4.96404
4.62344
4.28714
3.99369
3.70436
3.41138
3.13714
2.88803
2.65274
2.46398
2.27198
2.11972
1.98614
1.87622
1.78509
1.69963
1.63769
1.60231
1.55896
1.53939
1.53106
1.52766
1.54025
1.559
1.58322
1.61313
1.64603
1.6809
1.72073
1.76946
1.82227
1.86595
1.90476
1.95
2.00871
2.09439
2.16326
2.21008
2.28695
2.36115
2.39398
2.45959
2.61644
2.73609
2.78237
2.86554
3.04965
3.27119
3.53458
3.81301
4.06331
4.34342
4.48262
4.63302
4.50894
4.65813
4.66375
4.70015
4.98083
5.00335
5.44543
5.69589
6.13404
6.32985
6.74494
6.98789
7.29176
7.48571
7.82031
8.37505
8.90713
9.95715
11.1221
12.4629
12.9831
13.3597
13.3706
13.5109
13.0842
12.086
10.8184
9.97259
9.34904
9.04959
9.29094
9.86723
9.82702
9.20643
8.00055
6.13044
5.17851
5.01797
5.70383
7.01793
7.35291
6.82345
6.50787
6.093
6.1664
7.37619
8.82663
0.895938
0.31544
0.233725
0.226866
0.228899
0.227912
0.224226
0.216467
0.205173
0.198062
0.19644
0.197233
0.199967
0.203661
0.211735
0.221351
0.233755
0.246885
0.262335
0.276496
0.286698
0.307333
0.326276
0.336495
0.355286
0.374144
0.388728
0.407854
0.420307
0.446663
0.474308
0.497849
0.550442
0.604977
0.676432
0.749669
0.891072
1.01933
1.1359
1.38847
1.57696
1.61867
1.62493
1.61193
1.50962
1.24586
1.13025
1.09097
1.07156
0.98541
0.731978
0.627601
0.623917
0.681609
0.734639
0.776446
0.886769
1.43473
2.66414
3.39187
3.13174
2.45356
2.42746
3.09126
4.30433
4.83393
4.98431
4.85834
4.41718
3.92176
3.46515
3.06505
2.76584
2.48384
2.26591
2.05959
1.90693
1.75418
1.62208
1.48929
1.36912
1.28349
1.21878
1.1439
1.07209
1.01499
0.973518
0.933177
0.897016
0.863065
0.846846
0.829036
0.811365
0.799422
0.791236
0.790306
0.79414
0.786363
0.795362
0.804873
0.807607
0.820996
0.839593
0.85788
0.872742
0.885071
0.893989
0.902687
0.913917
0.926135
0.935006
0.935579
0.929468
0.925424
0.935185
0.946549
0.954773
0.963311
0.969705
0.96161
0.963035
0.993533
1.0781
1.20203
1.39267
1.69316
2.0408
2.2497
2.35077
2.34059
2.38957
2.27416
2.27453
2.03485
2.16665
2.06254
2.13222
2.28263
2.19414
2.37428
2.57168
2.72117
2.8776
3.06081
3.17614
3.21359
3.166
3.16202
3.17693
3.2028
3.34446
3.5978
4.13622
4.46625
4.5912
4.69983
4.98409
5.41964
5.72604
5.70062
5.54386
5.33174
5.07854
4.95801
4.96464
4.89406
4.69911
4.51494
4.18181
3.3389
2.98817
3.60751
4.45235
4.57386
4.4241
4.30108
4.07848
3.668
3.82154
4.54843
2.5265
0.70022
0.274215
0.207168
0.198699
0.199877
0.197526
0.186438
0.160289
0.146916
0.142827
0.142034
0.142677
0.145343
0.151012
0.158548
0.16648
0.173826
0.18294
0.191494
0.197433
0.20865
0.219764
0.226339
0.234649
0.243639
0.248678
0.250015
0.250361
0.253116
0.254716
0.25191
0.251076
0.254559
0.256527
0.260923
0.278418
0.305875
0.336149
0.409648
0.502055
0.578754
0.653159
0.714473
0.739087
0.740569
0.744547
0.716568
0.614864
0.486976
0.434283
0.431106
0.470283
0.570991
0.606367
0.592854
0.57171
0.586884
0.739729
1.08019
1.68215
2.85352
3.56094
3.43407
3.19131
2.72937
2.31811
1.94769
1.58142
1.30042
1.08153
0.91046
0.810192
0.714806
0.654626
0.606277
0.574619
0.539236
0.514269
0.490594
0.479389
0.475913
0.47399
0.466865
0.46253
0.462235
0.465835
0.467752
0.471815
0.473593
0.477444
0.479907
0.480128
0.481007
0.481622
0.489143
0.493974
0.495383
0.505831
0.517512
0.523778
0.538796
0.558569
0.580637
0.597065
0.611915
0.626748
0.643173
0.659323
0.673908
0.677095
0.673911
0.664308
0.660261
0.659425
0.65322
0.642601
0.643548
0.6477
0.642905
0.645662
0.674008
0.718902
0.813303
1.07221
1.29236
1.41581
1.44132
1.41506
1.39647
1.38526
1.37793
1.39265
1.32493
1.37877
1.36391
1.42814
1.53063
1.4969
1.61623
1.73491
1.83119
1.88091
1.97321
2.05472
2.06757
2.04961
2.0441
2.02832
1.95458
1.89513
1.99857
2.25716
2.4478
2.46799
2.50928
2.64312
2.94202
3.51161
3.79983
3.95458
3.96034
3.72592
3.47288
3.53035
3.58165
3.57362
3.54086
3.62295
2.9442
2.34701
2.25201
2.74866
3.54432
3.27947
3.01086
2.86984
2.71551
2.77903
2.96744
5.00158
1.35618
0.406785
0.215266
0.193633
0.200844
0.203252
0.186764
0.151402
0.138455
0.13507
0.135048
0.137452
0.14299
0.150836
0.160494
0.170742
0.180324
0.192336
0.204381
0.215082
0.227522
0.240786
0.251566
0.259616
0.267493
0.270443
0.270921
0.27075
0.269396
0.261967
0.251594
0.250071
0.247483
0.236133
0.227814
0.225234
0.221745
0.22048
0.226499
0.241563
0.286321
0.339298
0.377847
0.392337
0.415737
0.450637
0.455204
0.451288
0.42945
0.434625
0.466251
0.613669
0.78633
0.8432
0.829196
0.771306
0.736232
0.819938
1.50037
2.78002
3.11657
3.00005
2.31204
1.66959
1.29307
0.986324
0.763465
0.612826
0.511226
0.437804
0.385877
0.355297
0.3305
0.316985
0.308108
0.30329
0.297831
0.294666
0.293078
0.295711
0.302023
0.308249
0.30966
0.31288
0.316692
0.321414
0.324712
0.336443
0.346908
0.355807
0.357481
0.36159
0.363824
0.364216
0.369939
0.370262
0.370324
0.37574
0.382215
0.388809
0.397198
0.412482
0.431471
0.449425
0.470557
0.491732
0.518141
0.546229
0.57681
0.589262
0.589391
0.587142
0.590396
0.595389
0.594488
0.585271
0.586302
0.601305
0.601579
0.60067
0.617676
0.662865
0.721635
0.864495
1.03167
1.11726
1.1314
1.10357
1.12475
1.13829
1.16205
1.17329
1.19003
1.25084
1.24822
1.36315
1.4121
1.38996
1.42339
1.49164
1.56072
1.56439
1.61524
1.65237
1.65592
1.63923
1.62706
1.63078
1.54622
1.37483
1.39258
1.61298
1.71966
1.69383
1.69816
1.82941
2.08063
2.33852
2.48207
2.72236
2.93224
2.91717
2.72472
2.84464
3.00793
3.12406
3.09065
3.18995
2.9327
2.24969
1.88177
1.83142
2.81349
3.11484
2.79432
2.65856
2.73558
2.70617
2.50291
8.03323
1.95463
0.537071
0.233342
0.202118
0.216725
0.210915
0.177592
0.146939
0.138545
0.139162
0.144026
0.155812
0.169052
0.182576
0.201192
0.219819
0.236316
0.255607
0.2735
0.289791
0.303525
0.314112
0.318243
0.319643
0.31821
0.313486
0.308987
0.301347
0.291087
0.282738
0.27707
0.273754
0.266123
0.260817
0.256217
0.242868
0.230585
0.218914
0.209145
0.203728
0.203634
0.214797
0.26118
0.287089
0.296777
0.300777
0.307947
0.320588
0.348317
0.399366
0.530932
0.846955
1.05983
1.11826
1.1285
1.15175
1.27015
1.67352
2.31236
2.5745
2.41518
1.61288
1.12902
0.825283
0.602816
0.46493
0.37595
0.318394
0.28452
0.261458
0.247629
0.240293
0.236537
0.235132
0.235453
0.238315
0.241888
0.244239
0.246706
0.251277
0.25555
0.263447
0.266537
0.268291
0.269805
0.271897
0.271863
0.271784
0.276983
0.291628
0.292766
0.29553
0.298429
0.302471
0.310664
0.30901
0.308673
0.312138
0.31289
0.313473
0.314489
0.319179
0.328518
0.333863
0.339542
0.345991
0.35836
0.377407
0.40283
0.432799
0.450461
0.462886
0.494169
0.532037
0.562187
0.567922
0.572791
0.595051
0.609147
0.609284
0.619903
0.658377
0.716987
0.797244
0.909691
0.958981
1.00398
1.00824
1.02896
1.07823
1.12108
1.09128
1.12384
1.19465
1.20308
1.31813
1.30896
1.32272
1.31914
1.32553
1.32607
1.32152
1.36961
1.43503
1.46559
1.43728
1.34585
1.34394
1.31235
1.15885
1.11837
1.25817
1.41593
1.41216
1.38414
1.472
1.71437
1.85535
1.87688
1.96583
2.2274
2.32689
2.26447
2.35052
2.59321
2.83115
2.83499
2.74688
2.53342
2.04223
1.74215
1.62211
2.18826
3.00844
2.97093
2.94467
3.02006
2.6845
2.23471
11.3669
2.48304
0.595574
0.261191
0.224468
0.223557
0.197905
0.159307
0.148054
0.151494
0.16803
0.188287
0.231418
0.25546
0.273355
0.286463
0.295575
0.305064
0.314059
0.322179
0.330375
0.335875
0.338843
0.340494
0.340592
0.334729
0.324457
0.313481
0.300765
0.28663
0.280713
0.277504
0.26829
0.263402
0.265348
0.262221
0.25048
0.247863
0.244624
0.227754
0.205329
0.194379
0.189361
0.194314
0.232404
0.253848
0.258416
0.259622
0.264795
0.290663
0.372824
0.63581
1.00169
1.20226
1.28476
1.34225
1.41754
1.60505
1.85837
2.00692
1.76055
1.22857
0.826233
0.571857
0.437809
0.337151
0.275557
0.242081
0.222479
0.2136
0.210548
0.21063
0.213941
0.217073
0.219535
0.223071
0.228404
0.234699
0.238335
0.241371
0.245256
0.248654
0.256385
0.260939
0.261724
0.261654
0.263492
0.262577
0.256057
0.253392
0.259695
0.266717
0.267613
0.258069
0.253543
0.259668
0.260313
0.253212
0.254429
0.262285
0.269731
0.270423
0.273141
0.279819
0.280843
0.280548
0.280382
0.282295
0.292413
0.30387
0.318002
0.32694
0.330255
0.340603
0.379565
0.45172
0.495705
0.520984
0.559925
0.603285
0.613644
0.631366
0.665713
0.733287
0.775215
0.86682
0.904007
0.959915
0.980876
1.01035
1.05219
1.0864
1.04884
1.03775
1.09359
1.05435
1.13596
1.10579
1.09732
1.07569
1.06453
1.05487
1.05074
1.06236
1.13498
1.20441
1.19015
1.03339
0.930458
0.969033
1.04519
1.011
1.04968
1.2436
1.33152
1.27055
1.24903
1.42511
1.5324
1.56843
1.60836
1.8166
2.02246
1.98695
2.01527
2.20269
2.503
2.64045
2.5402
2.23094
1.93854
1.66427
1.55109
2.11521
2.7463
3.05508
3.32135
3.19519
2.65026
2.01267
14.836
3.06586
0.676979
0.292193
0.228797
0.204187
0.167911
0.15863
0.166761
0.207195
0.267707
0.294153
0.30808
0.315516
0.306722
0.303933
0.307485
0.31365
0.319376
0.324989
0.332146
0.342133
0.350383
0.358064
0.360071
0.355117
0.340487
0.321741
0.303678
0.284779
0.273149
0.265832
0.259906
0.254783
0.249927
0.249122
0.248968
0.246161
0.239313
0.230879
0.216987
0.193706
0.181538
0.177925
0.183882
0.226841
0.246953
0.250913
0.258712
0.292967
0.438415
0.809426
1.08368
1.22815
1.29654
1.35246
1.44308
1.51685
1.54201
1.24381
0.927301
0.638673
0.462116
0.33743
0.274843
0.229105
0.205682
0.195718
0.192735
0.194277
0.200501
0.206639
0.212894
0.216927
0.220146
0.224871
0.23172
0.23906
0.243081
0.24564
0.248179
0.251501
0.258282
0.264471
0.265124
0.26636
0.267534
0.267756
0.262096
0.250834
0.251012
0.260397
0.265188
0.253533
0.23826
0.240341
0.242863
0.236203
0.224584
0.225046
0.23097
0.229349
0.226385
0.228735
0.231162
0.236397
0.237224
0.238184
0.241794
0.255354
0.25903
0.261772
0.264778
0.269678
0.282925
0.308974
0.341883
0.388353
0.433781
0.520146
0.567645
0.62067
0.65015
0.723505
0.768127
0.843698
0.874459
0.923549
0.958963
0.998059
1.00902
0.994336
0.97288
0.903602
0.950268
0.887635
0.925411
0.909566
0.900975
0.866609
0.858969
0.85215
0.857471
0.841394
0.836475
0.850823
0.85288
0.806992
0.782026
0.845304
0.993626
0.965488
0.940332
1.09339
1.31176
1.23816
1.0733
1.12732
1.26401
1.31077
1.3436
1.41694
1.62211
1.63604
1.64442
1.84498
2.19641
2.43838
2.38695
2.11584
1.90151
1.61688
1.54335
2.08951
2.62765
2.73927
2.92017
2.80453
2.30574
1.80902
18.4202
3.76573
0.830436
0.3098
0.212151
0.171492
0.165493
0.183105
0.240579
0.332618
0.35513
0.325261
0.308297
0.315559
0.303779
0.294594
0.292704
0.293514
0.298129
0.308939
0.325736
0.348444
0.374455
0.401762
0.416705
0.423405
0.408771
0.375086
0.341628
0.305993
0.275161
0.26094
0.255333
0.251233
0.246663
0.245319
0.24037
0.233307
0.228608
0.223523
0.211345
0.192394
0.178045
0.169964
0.167736
0.187661
0.217992
0.232858
0.253393
0.30316
0.50228
0.861706
1.0969
1.2215
1.27115
1.28385
1.28471
1.16485
0.961175
0.707533
0.515738
0.375941
0.298796
0.239875
0.205313
0.187506
0.181069
0.180303
0.1855
0.193064
0.199387
0.20579
0.211644
0.215636
0.219095
0.225536
0.233506
0.240135
0.244348
0.247556
0.250105
0.252728
0.258785
0.266594
0.26938
0.276201
0.275409
0.279157
0.282393
0.272208
0.254648
0.259692
0.276169
0.266118
0.238519
0.233888
0.240716
0.23566
0.216175
0.212028
0.216422
0.21461
0.204621
0.2025
0.202596
0.204048
0.204302
0.204738
0.206498
0.214233
0.219481
0.226938
0.228943
0.230354
0.237663
0.255575
0.270361
0.28281
0.302811
0.348769
0.412272
0.522366
0.587324
0.6744
0.733416
0.763232
0.814123
0.860419
0.884534
0.89922
0.892617
0.85223
0.820279
0.772915
0.805028
0.78992
0.821166
0.784629
0.785799
0.760809
0.712288
0.690395
0.704341
0.713832
0.697039
0.673619
0.683007
0.692032
0.722444
0.809031
0.958823
0.943141
0.875044
0.90726
1.22407
1.21232
1.04247
1.04225
1.15506
1.2007
1.18869
1.23006
1.31861
1.33737
1.36357
1.54276
1.88048
2.20287
2.20483
2.02504
1.86124
1.61441
1.58787
1.85483
1.97219
1.8474
1.68384
1.64611
1.57048
1.50642
22.0413
4.50379
0.965811
0.307817
0.181564
0.167736
0.189895
0.274646
0.344768
0.352206
0.355213
0.323996
0.287414
0.280059
0.276972
0.271391
0.271642
0.27846
0.287371
0.299306
0.317701
0.342499
0.372081
0.402959
0.42629
0.448824
0.466757
0.454918
0.405658
0.345017
0.283808
0.255188
0.246071
0.244934
0.245493
0.245922
0.243897
0.239643
0.229861
0.220528
0.208228
0.194491
0.17609
0.164075
0.160111
0.165798
0.196085
0.216823
0.244433
0.305131
0.535341
0.877657
1.05094
1.10671
1.12032
1.07945
0.963222
0.795369
0.609261
0.444817
0.333011
0.267171
0.222908
0.191391
0.175705
0.170571
0.170408
0.176706
0.185086
0.190305
0.195198
0.20134
0.205798
0.208843
0.214349
0.222785
0.22889
0.232128
0.235216
0.238365
0.239212
0.239654
0.24369
0.251828
0.257316
0.26733
0.270197
0.273159
0.282368
0.289738
0.275757
0.260671
0.275298
0.290896
0.261492
0.232768
0.243365
0.241691
0.221224
0.207043
0.211136
0.209655
0.197848
0.19013
0.190176
0.190632
0.189546
0.189052
0.190632
0.195004
0.196003
0.200803
0.205251
0.208824
0.213859
0.228471
0.238425
0.245575
0.25851
0.280896
0.300746
0.347815
0.426512
0.496761
0.641252
0.681258
0.742208
0.788262
0.787431
0.780659
0.765555
0.733324
0.732862
0.712126
0.714958
0.706568
0.708775
0.641028
0.637697
0.606251
0.567943
0.54885
0.555247
0.572801
0.565955
0.582306
0.60744
0.645988
0.708582
0.810099
0.929648
0.918911
0.855238
0.842987
1.07189
1.1986
1.04637
1.01898
1.10082
1.16218
1.13393
1.10694
1.15595
1.16638
1.23136
1.37868
1.68412
1.97796
2.00261
1.91182
1.74706
1.63742
1.7313
1.81074
1.74911
1.50559
1.37821
1.36678
1.39789
1.45078
25.4809
5.10342
1.02597
0.285104
0.175279
0.183433
0.270244
0.348515
0.353347
0.317722
0.312437
0.318799
0.280628
0.264905
0.259395
0.256929
0.255426
0.256157
0.257303
0.26296
0.275385
0.294443
0.322851
0.360803
0.394691
0.431527
0.477214
0.497686
0.464399
0.383416
0.293372
0.249806
0.233508
0.231898
0.235797
0.244189
0.253908
0.262806
0.25531
0.237406
0.21759
0.197888
0.180836
0.165626
0.159229
0.15789
0.170851
0.188315
0.218433
0.287881
0.543623
0.828249
0.964903
0.997075
0.964882
0.84709
0.709677
0.557233
0.41677
0.320384
0.253446
0.217555
0.185552
0.168712
0.163073
0.163114
0.1691
0.177517
0.181402
0.181229
0.183107
0.189702
0.192941
0.196499
0.205652
0.214121
0.215954
0.214925
0.213441
0.210781
0.207012
0.206369
0.207527
0.214108
0.219593
0.235133
0.248782
0.255979
0.257681
0.275293
0.286312
0.267802
0.260697
0.288171
0.284572
0.242611
0.238889
0.246913
0.234438
0.210126
0.209662
0.208097
0.197033
0.187164
0.186612
0.186656
0.183904
0.182888
0.1851
0.188171
0.186562
0.191993
0.193898
0.200847
0.202172
0.212475
0.222681
0.228625
0.238742
0.255077
0.264202
0.286153
0.322676
0.351498
0.414154
0.498325
0.618221
0.634408
0.687247
0.686106
0.677249
0.643592
0.644086
0.610309
0.575939
0.582185
0.549965
0.504508
0.509792
0.489944
0.493381
0.489283
0.504652
0.522784
0.531136
0.561771
0.584035
0.634741
0.720831
0.854949
0.910947
0.886892
0.846007
0.831698
0.969891
1.17507
1.0593
1.01546
1.08603
1.1515
1.11723
1.02777
1.06263
1.06985
1.13796
1.23682
1.55219
1.79907
1.82544
1.75837
1.66166
1.7078
1.92342
1.82114
1.66607
1.34711
1.26941
1.2891
1.38109
1.45797
28.4923
5.64047
1.06483
0.2605
0.178899
0.243113
0.331602
0.350079
0.33664
0.310118
0.295724
0.277169
0.257865
0.244961
0.236422
0.22823
0.224033
0.222272
0.226923
0.234715
0.24215
0.249799
0.258656
0.286913
0.331594
0.376174
0.459154
0.508831
0.513305
0.432654
0.306308
0.247603
0.221366
0.213547
0.215102
0.226022
0.249639
0.27087
0.286155
0.281556
0.248192
0.219277
0.19896
0.176966
0.161224
0.156387
0.157379
0.166511
0.193653
0.273848
0.528327
0.75957
0.858205
0.876578
0.837844
0.71589
0.574283
0.437423
0.326992
0.262975
0.218436
0.192364
0.168726
0.159601
0.158243
0.161228
0.168979
0.172848
0.171604
0.170244
0.174255
0.183443
0.187731
0.190555
0.195691
0.199448
0.199431
0.196715
0.187776
0.174837
0.168977
0.167346
0.16742
0.173795
0.181909
0.193565
0.203331
0.222641
0.231678
0.237888
0.265608
0.270975
0.25878
0.261785
0.280533
0.261501
0.23884
0.243956
0.242855
0.22155
0.208092
0.209386
0.19957
0.189375
0.189441
0.188398
0.183784
0.183776
0.185724
0.18675
0.184584
0.188663
0.191417
0.197155
0.198216
0.209472
0.219138
0.22268
0.232676
0.244481
0.250088
0.265393
0.282068
0.311688
0.325426
0.355949
0.446449
0.438841
0.508731
0.514735
0.524113
0.503302
0.502977
0.472969
0.456539
0.47129
0.44615
0.456468
0.45738
0.456673
0.466915
0.46441
0.489249
0.49789
0.517751
0.558153
0.578571
0.636532
0.787586
0.902638
0.892368
0.842438
0.844331
0.837098
0.900121
1.13771
1.09321
1.04107
1.1042
1.16037
1.11325
1.00174
1.02261
1.0259
1.07141
1.12406
1.40899
1.6768
1.69126
1.64543
1.62145
1.80835
1.9585
1.80671
1.57917
1.27008
1.21869
1.24776
1.38648
1.49756
31.0131
6.04062
1.07988
0.257654
0.207199
0.299815
0.333704
0.323588
0.302299
0.298625
0.274278
0.238316
0.227345
0.214387
0.201908
0.197635
0.197427
0.201405
0.213505
0.220783
0.231312
0.237407
0.242551
0.247462
0.269095
0.323232
0.401452
0.509384
0.541947
0.463482
0.317122
0.250372
0.220499
0.209437
0.207831
0.212097
0.227022
0.263568
0.295583
0.312462
0.309643
0.274519
0.237286
0.200936
0.173281
0.159965
0.15677
0.160498
0.183329
0.269254
0.499831
0.686445
0.764966
0.775911
0.724538
0.604873
0.477923
0.366919
0.280863
0.234406
0.20328
0.179952
0.163721
0.158264
0.158126
0.161251
0.167804
0.169878
0.168552
0.167268
0.171329
0.182312
0.188311
0.191074
0.193246
0.192851
0.188441
0.177744
0.165356
0.160252
0.159105
0.157587
0.157933
0.161568
0.172633
0.182058
0.190022
0.195141
0.19943
0.200651
0.211698
0.240707
0.250345
0.254078
0.268262
0.267623
0.248868
0.245451
0.246701
0.236488
0.211163
0.214102
0.206522
0.193168
0.196442
0.194173
0.18687
0.187389
0.18942
0.187956
0.188274
0.18954
0.194312
0.196869
0.199657
0.209882
0.218468
0.221637
0.233414
0.240851
0.247793
0.256865
0.264911
0.298654
0.301937
0.31256
0.36614
0.358903
0.399595
0.403501
0.418945
0.413123
0.418028
0.406941
0.408981
0.412324
0.421773
0.435384
0.430977
0.445094
0.449227
0.453058
0.483513
0.487754
0.515687
0.558289
0.581257
0.682841
0.877924
0.915014
0.88052
0.832708
0.862533
0.878818
0.909531
1.13023
1.15283
1.0872
1.1291
1.17397
1.11091
0.98759
1.00669
1.00081
1.04051
1.04847
1.29529
1.57383
1.59913
1.59126
1.55879
1.91974
1.94538
1.7748
1.53307
1.21368
1.16897
1.21102
1.38592
1.48408
32.7457
6.24479
1.08392
0.263031
0.242867
0.304558
0.311386
0.288277
0.283807
0.277768
0.240315
0.209499
0.199666
0.19161
0.184519
0.179017
0.178222
0.181843
0.189264
0.197761
0.212769
0.226843
0.239033
0.2432
0.252664
0.295758
0.352427
0.493041
0.590963
0.550358
0.361757
0.264661
0.23016
0.216175
0.212319
0.213028
0.220714
0.239114
0.278821
0.320615
0.343862
0.351095
0.311247
0.242526
0.197265
0.17244
0.162699
0.163835
0.181596
0.257466
0.456486
0.615656
0.686018
0.697278
0.660375
0.553829
0.435214
0.333806
0.261222
0.221908
0.199676
0.178595
0.163752
0.159033
0.159052
0.161252
0.167966
0.170625
0.16965
0.168456
0.171247
0.180487
0.186768
0.187148
0.184147
0.174025
0.162116
0.155238
0.153144
0.154507
0.158088
0.158726
0.159332
0.160758
0.169077
0.180379
0.191401
0.197148
0.19561
0.187324
0.185679
0.196414
0.216622
0.239508
0.260919
0.263039
0.257891
0.252163
0.248794
0.24417
0.222742
0.220979
0.22153
0.211383
0.207956
0.206291
0.196999
0.194569
0.198418
0.194861
0.197842
0.19675
0.202298
0.201268
0.206182
0.21401
0.220789
0.223354
0.23464
0.240501
0.251357
0.253775
0.260322
0.29402
0.29464
0.296962
0.324184
0.322847
0.356277
0.360483
0.375635
0.377468
0.385538
0.382638
0.383407
0.388824
0.411386
0.418175
0.421788
0.440147
0.435535
0.449511
0.47748
0.485708
0.530431
0.560601
0.606201
0.783448
0.906265
0.90459
0.870526
0.846698
0.907289
0.960457
0.975476
1.13936
1.18824
1.13
1.13064
1.15344
1.09304
0.980131
0.987988
0.974121
1.02656
1.02305
1.22582
1.49075
1.55511
1.54607
1.51344
1.9456
1.91501
1.75029
1.46088
1.12753
1.08174
1.13861
1.35335
1.41264
33.252
6.64411
1.15458
0.279646
0.242621
0.286645
0.294138
0.279931
0.275848
0.265277
0.223666
0.197403
0.188203
0.183468
0.180047
0.174362
0.173741
0.177077
0.184746
0.193511
0.203102
0.212678
0.230913
0.246246
0.251749
0.279017
0.331
0.409778
0.598245
0.647412
0.505053
0.32057
0.259851
0.244083
0.241629
0.237826
0.232698
0.236753
0.251764
0.280709
0.342678
0.373673
0.383266
0.339447
0.245792
0.195449
0.180146
0.178753
0.183277
0.218709
0.375246
0.556994
0.633544
0.644187
0.614247
0.519053
0.415037
0.324265
0.260454
0.222435
0.201912
0.181197
0.165868
0.160424
0.159827
0.161152
0.165983
0.16947
0.169399
0.16823
0.16863
0.171267
0.171446
0.168744
0.161839
0.154543
0.150563
0.149269
0.149939
0.154289
0.164738
0.173539
0.172918
0.166398
0.163004
0.168637
0.184411
0.199595
0.202276
0.195081
0.181438
0.181601
0.190699
0.209437
0.246973
0.258821
0.256331
0.256969
0.253157
0.243709
0.236911
0.231418
0.234563
0.23215
0.216952
0.214395
0.213235
0.206325
0.205598
0.208015
0.210615
0.207683
0.216692
0.214234
0.217475
0.220197
0.229432
0.229847
0.234014
0.242569
0.255626
0.25441
0.259441
0.284894
0.290395
0.290544
0.306163
0.308084
0.324762
0.334878
0.353156
0.358286
0.367722
0.369323
0.368088
0.377586
0.402599
0.40133
0.414909
0.430275
0.4275
0.448725
0.463241
0.490491
0.542768
0.559128
0.650726
0.903259
0.906195
0.88602
0.871838
0.904111
0.964701
1.03722
1.07095
1.12587
1.17092
1.17103
1.14483
1.13451
1.05982
0.977652
0.97126
0.948547
1.01776
1.01336
1.1482
1.39868
1.50964
1.49389
1.50898
1.93033
1.91448
1.732
1.33171
1.02438
0.950192
1.01882
1.26014
1.27075
32.9865
6.80753
1.34046
0.315533
0.240703
0.276919
0.287174
0.277628
0.274617
0.265081
0.227028
0.19856
0.188406
0.183357
0.180599
0.175852
0.176122
0.18027
0.188641
0.198976
0.208444
0.21593
0.230898
0.25057
0.262996
0.280241
0.328486
0.386192
0.547875
0.668177
0.644888
0.461429
0.325689
0.283635
0.272546
0.274216
0.275021
0.267841
0.25578
0.259853
0.278459
0.352852
0.394076
0.406665
0.365591
0.25673
0.208301
0.200939
0.198622
0.20483
0.263844
0.466802
0.588269
0.612953
0.595717
0.511383
0.410722
0.326191
0.263891
0.225112
0.205001
0.186144
0.170021
0.162449
0.160094
0.159981
0.161745
0.165423
0.166039
0.165304
0.162797
0.160339
0.158297
0.156838
0.154321
0.151097
0.149875
0.150643
0.15205
0.156325
0.168885
0.18732
0.188324
0.176371
0.151338
0.141531
0.144659
0.169611
0.194372
0.196965
0.188559
0.182264
0.184636
0.195083
0.224381
0.252127
0.254581
0.256467
0.256758
0.24831
0.244087
0.242842
0.240959
0.235967
0.223829
0.219252
0.221854
0.217388
0.210366
0.217543
0.21898
0.214659
0.219125
0.223746
0.223279
0.223178
0.233455
0.237001
0.238951
0.244419
0.25639
0.257915
0.260211
0.27252
0.28276
0.286709
0.298229
0.301953
0.307836
0.31892
0.33368
0.344243
0.352765
0.356619
0.35753
0.367853
0.38584
0.390171
0.406564
0.405379
0.418558
0.448149
0.452988
0.496084
0.534409
0.571885
0.753409
0.924667
0.905165
0.885968
0.890989
0.972769
1.01738
1.08754
1.15424
1.17641
1.21054
1.21682
1.19753
1.15368
1.04534
0.978315
0.972242
0.941814
1.00486
1.01524
1.06704
1.30046
1.4452
1.44217
1.543
1.93685
1.95151
1.69582
1.15309
0.946148
0.832192
0.899823
1.11878
1.14405
31.96
6.77024
1.67542
0.414428
0.243087
0.254504
0.269764
0.273224
0.273395
0.2704
0.250154
0.218579
0.202968
0.195623
0.193379
0.19272
0.196126
0.20246
0.212261
0.228302
0.241792
0.249054
0.259229
0.280182
0.291891
0.313638
0.360994
0.394769
0.515485
0.660207
0.665527
0.574987
0.39891
0.303167
0.274665
0.276456
0.28561
0.29056
0.284491
0.267581
0.259384
0.272226
0.349079
0.407586
0.422712
0.389072
0.278532
0.223719
0.211397
0.208801
0.221859
0.316849
0.505409
0.575461
0.574751
0.521275
0.418998
0.333778
0.271461
0.230787
0.209246
0.194661
0.177873
0.166346
0.160813
0.158229
0.158435
0.159348
0.159161
0.158029
0.156739
0.156115
0.155955
0.156078
0.15585
0.154351
0.154561
0.155056
0.155279
0.154164
0.157002
0.1768
0.188072
0.180566
0.153432
0.13518
0.132654
0.139049
0.171044
0.188008
0.188211
0.186911
0.187119
0.193112
0.215486
0.237788
0.249378
0.256967
0.259274
0.257683
0.253102
0.250687
0.246468
0.235752
0.229781
0.228855
0.229322
0.224472
0.220648
0.223568
0.222875
0.219676
0.219104
0.226137
0.224132
0.226438
0.233661
0.238821
0.239852
0.244082
0.253416
0.25852
0.261193
0.265223
0.274392
0.282278
0.293465
0.297563
0.297381
0.305076
0.318052
0.326904
0.333379
0.334277
0.337945
0.353682
0.357906
0.366609
0.392469
0.389385
0.412788
0.437698
0.450717
0.491592
0.513688
0.615057
0.855423