/*--------------------------------*- C++ -*----------------------------------*\
| =========                 |                                                 |
| \\      /  F ield         | OpenFOAM: The Open Source CFD Toolbox           |
|  \\    /   O peration     | Version:  dev                                   |
|   \\  /    A nd           | Web:      http://www.openfoam.org               |
|    \\/     M anipulation  |                                                 |
\*---------------------------------------------------------------------------*/
FoamFile
{
    version     2.0;
    format      ascii;
    class       volScalarField;
    object      muSgs;
    location    "9.124";
}
// * * * * * * * * * * * * * * * * * * * * * * * * * * * * * * * * * * * * * //

dimensions      [1 -1 -1 0 0 0 0];

internalField   nonuniform List<scalar> 
12225
(
0.000210858
0.000211944
0.000157183
0.000156835
0.000136165
0.000152411
0.000151482
0.000164318
0.000170004
0.000181093
0.000184349
0.000202267
0.00019473
0.000229615
0.000215946
0.000257731
0.000373354
0.000388339
0.000109673
0.000194484
0.000169384
0.000188044
0.000154256
0.00017665
0.000150487
0.000170561
0.00015575
0.000168261
0.000160752
0.000160004
0.000161889
0.000149972
0.000156544
0.000149276
0.00018881
0.000232202
4.16453e-05
0.000126411
0.000131537
0.000157933
0.000140736
0.000153688
0.000138299
0.000144488
0.000137921
0.000128365
0.000133396
0.000114172
0.000124427
0.000104216
0.000111045
0.000110327
0.000163825
0.000226645
1.58467e-05
6.60562e-05
7.8909e-05
9.39796e-05
0.000105947
0.00010492
0.00011253
0.000104299
0.000115777
9.72758e-05
0.000108205
8.68142e-05
9.55063e-05
7.93462e-05
8.99869e-05
8.82986e-05
0.000150791
0.000244504
1.0726e-05
3.91522e-05
5.17822e-05
6.09117e-05
7.64798e-05
7.64551e-05
8.30765e-05
7.87402e-05
8.52347e-05
7.33447e-05
8.06995e-05
6.6324e-05
7.25881e-05
6.20071e-05
7.11067e-05
7.18064e-05
0.000126931
0.000254258
1.38853e-05
3.1558e-05
3.948e-05
4.36303e-05
5.5089e-05
5.47141e-05
6.06407e-05
5.72492e-05
6.27231e-05
5.46469e-05
6.06448e-05
5.15354e-05
5.62586e-05
4.982e-05
5.59784e-05
5.95168e-05
0.000100362
0.00017385
1.75074e-05
2.40407e-05
3.26284e-05
3.38559e-05
4.2063e-05
4.12288e-05
4.63188e-05
4.39357e-05
4.80837e-05
4.41456e-05
4.7771e-05
4.34452e-05
4.58985e-05
4.28893e-05
4.62317e-05
4.86231e-05
6.98812e-05
0.000105145
1.67272e-05
2.06763e-05
2.58654e-05
2.69722e-05
3.10773e-05
3.08542e-05
3.3878e-05
3.29325e-05
3.51469e-05
3.39359e-05
3.53329e-05
3.41061e-05
3.4722e-05
3.39278e-05
3.45643e-05
3.68718e-05
4.54841e-05
5.54329e-05
2.17291e-05
2.49558e-05
2.82039e-05
2.96666e-05
3.2184e-05
3.28449e-05
3.43493e-05
3.45776e-05
3.56224e-05
3.57104e-05
3.59311e-05
3.60115e-05
3.57127e-05
3.56543e-05
3.55405e-05
3.6131e-05
4.03265e-05
4.30065e-05
2.98441e-05
3.63888e-05
3.44059e-05
3.59658e-05
3.59735e-05
3.70044e-05
3.74694e-05
3.82706e-05
3.85234e-05
3.92444e-05
3.88856e-05
3.93272e-05
3.86518e-05
3.88759e-05
3.83226e-05
3.85458e-05
3.98018e-05
4.0263e-05
4.50337e-05
5.18156e-05
4.83768e-05
4.9902e-05
4.60043e-05
4.71409e-05
4.48944e-05
4.59219e-05
4.46764e-05
4.5556e-05
4.45011e-05
4.4948e-05
4.39783e-05
4.39024e-05
4.30364e-05
4.27741e-05
4.31701e-05
4.30063e-05
7.38807e-05
7.62126e-05
7.0651e-05
7.0533e-05
6.63274e-05
6.65143e-05
6.32329e-05
6.36578e-05
6.09106e-05
6.12254e-05
5.89926e-05
5.85944e-05
5.68088e-05
5.55457e-05
5.38292e-05
5.23345e-05
5.08049e-05
4.94557e-05
0.000114451
0.000112121
0.000104029
0.000100514
9.32351e-05
9.05975e-05
8.53629e-05
8.33846e-05
7.96417e-05
7.80787e-05
7.51713e-05
7.33272e-05
7.09634e-05
6.85674e-05
6.6045e-05
6.39347e-05
6.18359e-05
5.99477e-05
0.000162567
0.000154694
0.000142459
0.000133817
0.00012345
0.000119371
0.000113447
0.000110214
0.000105391
0.000102377
9.81954e-05
9.49567e-05
9.11302e-05
8.77441e-05
8.38351e-05
8.07593e-05
7.72755e-05
7.44827e-05
0.000231923
0.000217023
0.000202273
0.000188628
0.000175888
0.000165575
0.000155123
0.0001463
0.000137628
0.000130447
0.00012325
0.00011717
0.000110974
0.000105737
0.000100162
9.57635e-05
9.0895e-05
8.71787e-05
0.000318845
0.000294932
0.000268113
0.000240809
0.000219575
0.000202388
0.000187277
0.000174401
0.000162703
0.000152712
0.000143302
0.000135225
0.000127328
0.000120665
0.000113794
0.00010833
0.000102422
9.78786e-05
0.00039263
0.000355356
0.000316044
0.000279781
0.00025261
0.000230999
0.00021265
0.000197141
0.00018333
0.000171485
0.00016051
0.000151029
0.000141854
0.000134087
0.000126184
0.000119824
0.000113055
0.000107772
0.000405075
0.000367399
0.000326734
0.000288799
0.000260358
0.000237589
0.000218477
0.000202353
0.00018805
0.000175797
0.000164458
0.000154648
0.000145186
0.000137132
0.000128964
0.000122312
0.000115281
0.000109739
0.000372691
0.00034136
0.000305976
0.000271681
0.000245634
0.000224586
0.000206779
0.000191681
0.000178326
0.000166871
0.000156216
0.000147019
0.000138091
0.000130432
0.000122618
0.000116185
0.000109355
0.00010393
0.00030275
0.000282976
0.000261225
0.000238246
0.000219374
0.000202671
0.000187626
0.000174526
0.00016287
0.00015291
0.000143669
0.000135665
0.000127733
0.000120847
0.000113627
0.000107593
0.000101069
9.5887e-05
0.000229724
0.000215612
0.000198026
0.000182265
0.000169845
0.000159163
0.000149023
0.000139965
0.000131896
0.000125606
0.000119569
0.000114397
0.0001087
0.000103541
9.74441e-05
9.21665e-05
8.60204e-05
8.11546e-05
0.000167344
0.000159665
0.000150054
0.000140106
0.000131489
0.000124583
0.000117646
0.000110293
0.000103163
9.70958e-05
9.22505e-05
8.86749e-05
8.51817e-05
8.20214e-05
7.83788e-05
7.51387e-05
7.14486e-05
6.84874e-05
0.000118053
0.00011426
0.000109653
0.000103576
9.79206e-05
9.22465e-05
8.73042e-05
8.35117e-05
8.043e-05
7.79448e-05
7.58773e-05
7.41448e-05
7.23738e-05
7.055e-05
6.8538e-05
6.65144e-05
6.4278e-05
6.22794e-05
7.76952e-05
7.74031e-05
7.45543e-05
7.11121e-05
6.92062e-05
6.88139e-05
6.89676e-05
6.94008e-05
6.95858e-05
6.93311e-05
6.8776e-05
6.79921e-05
6.69601e-05
6.57313e-05
6.42882e-05
6.27326e-05
6.10093e-05
5.9291e-05
4.86985e-05
4.9519e-05
4.94948e-05
5.21722e-05
5.63675e-05
5.98037e-05
6.29062e-05
6.51456e-05
6.63818e-05
6.68859e-05
6.68652e-05
6.64101e-05
6.56181e-05
6.45996e-05
6.34165e-05
6.21033e-05
6.06928e-05
5.93242e-05
2.58353e-05
3.20176e-05
4.01131e-05
4.93917e-05
5.70204e-05
6.2463e-05
6.67854e-05
6.99422e-05
7.21762e-05
7.34477e-05
7.38723e-05
7.36002e-05
7.28072e-05
7.18782e-05
7.0923e-05
6.98105e-05
6.85287e-05
6.74745e-05
1.31023e-05
3.10774e-05
5.22207e-05
6.91673e-05
8.0874e-05
8.79487e-05
9.27792e-05
9.56315e-05
9.73126e-05
9.79387e-05
9.75892e-05
9.65101e-05
9.48937e-05
9.34172e-05
9.20828e-05
9.06211e-05
8.92071e-05
8.78526e-05
2.04976e-05
6.96466e-05
0.000111842
0.00012952
0.000139164
0.000143236
0.000145315
0.000144849
0.000143365
0.000141148
0.000138198
0.000134589
0.000130737
0.000127205
0.000123423
0.000119397
0.000114858
0.000109801
7.30227e-05
0.000184446
0.00022072
0.00022398
0.000218234
0.000208074
0.000197826
0.000188162
0.000179208
0.00017063
0.000162816
0.000155097
0.000147769
0.000140446
0.000133584
0.000127106
0.000120476
0.000111583
0.000259909
0.000303556
0.000271908
0.000226849
0.000197855
0.00018244
0.000173406
0.000167941
0.000164532
0.000162575
0.00016117
0.000159887
0.000158716
0.000157455
0.000155756
0.000153314
0.00014982
0.000141374
3.61004e-05
3.99531e-05
4.51933e-05
4.7168e-05
4.98938e-05
5.176e-05
5.31753e-05
5.44096e-05
5.56662e-05
5.67518e-05
5.82766e-05
6.02031e-05
6.25101e-05
6.52606e-05
6.85456e-05
7.20702e-05
7.61977e-05
8.0705e-05
8.5519e-05
9.03758e-05
9.54463e-05
0.000101262
0.000106943
0.000112638
0.000118944
0.000125277
0.00013176
0.000138754
0.000145697
0.000152963
0.000160609
0.000168348
0.000176608
0.000184259
0.000192066
0.000199671
0.000205771
0.000212476
0.00021857
0.000220837
0.00021935
0.000217104
0.000217221
0.000219081
0.000220295
0.000220883
0.000222523
0.000227092
0.000230899
0.00023319
0.000232757
0.000231609
0.000232342
0.000239821
0.000254679
0.000277738
0.000303234
0.000310917
0.000307924
0.000296907
0.000279898
0.000268852
0.000264199
0.000267008
0.00027175
0.000272309
0.000273116
0.000278836
0.000285945
0.000290563
0.000292692
0.000293317
0.000292905
0.000291176
0.000288332
0.000284557
0.000280315
0.000275302
0.000269873
0.000263614
0.000255985
0.000248022
0.000240793
0.000233236
0.000225136
0.000217202
0.000209673
0.000202124
0.000195938
0.000189225
0.000183869
0.000178932
0.00017485
0.000171448
0.000168263
0.000166013
0.000164855
0.000163546
0.000163203
0.000163362
0.000163884
0.000165116
0.000166587
0.000168358
0.000170392
0.000172686
0.000175076
0.000177684
0.000180446
0.000183198
0.000185586
0.000187814
0.000190488
0.000193671
0.000197824
0.000201479
0.0002043
0.000208261
0.000211915
0.00021484
0.000219305
0.000226132
0.000230541
0.000232114
0.000235748
0.000243631
0.000252904
0.000264638
0.0002778
0.000290169
0.000303136
0.000311688
0.0003198
0.000319533
0.000326579
0.000331001
0.000339019
0.00034994
0.000358697
0.000375443
0.000387177
0.000405176
0.000416931
0.000435717
0.000448969
0.000463633
0.00047531
0.000490922
0.000513361
0.000535023
0.00057137
0.000610647
0.000653491
0.000673962
0.000690143
0.000696169
0.000705856
0.000700096
0.000679326
0.000648225
0.000628821
0.000613702
0.000609912
0.00062369
0.000645072
0.000645641
0.000628245
0.000580461
0.000509299
0.000460207
0.000454019
0.000481951
0.000537072
0.000549228
0.00053137
0.000513367
0.000490133
0.000484988
0.000528489
0.000570439
8.28145e-05
5.24216e-05
4.5946e-05
4.48517e-05
4.42039e-05
4.31453e-05
4.20942e-05
4.09564e-05
3.96491e-05
3.88448e-05
3.87047e-05
3.88819e-05
3.92885e-05
3.98015e-05
4.07719e-05
4.18802e-05
4.3248e-05
4.46765e-05
4.62634e-05
4.76993e-05
4.8815e-05
5.08461e-05
5.25599e-05
5.35823e-05
5.54248e-05
5.708e-05
5.84566e-05
6.01502e-05
6.12073e-05
6.34782e-05
6.56074e-05
6.7531e-05
7.13002e-05
7.49618e-05
7.97535e-05
8.41512e-05
9.22345e-05
9.90847e-05
0.000105065
0.000116627
0.000124716
0.000127551
0.000127527
0.000126902
0.000125168
0.000116077
0.000111297
0.000109342
0.000108415
0.000104793
9.10637e-05
8.46456e-05
8.42926e-05
8.81984e-05
9.29959e-05
9.65047e-05
0.00010205
0.000129683
0.000176931
0.00019859
0.000192082
0.000169863
0.000168556
0.000193132
0.000231209
0.000246874
0.000252628
0.000251719
0.000241749
0.000229046
0.000216263
0.000204212
0.0001948
0.000185395
0.000177884
0.000170364
0.000164733
0.000158654
0.000153263
0.000147548
0.000142238
0.000138615
0.000135813
0.000132173
0.00012862
0.00012595
0.000124256
0.000122426
0.000120871
0.000119253
0.000119293
0.000118809
0.000118479
0.00011827
0.000118663
0.000119888
0.000120966
0.000120935
0.000123308
0.000124635
0.000125903
0.000127926
0.000130428
0.000132745
0.00013472
0.000136374
0.000137758
0.000139174
0.000140592
0.000141695
0.000142431
0.00014253
0.000142209
0.000141986
0.000142279
0.000142957
0.000144197
0.000145637
0.000146094
0.00014564
0.000147719
0.000150829
0.000152924
0.000156613
0.00016674
0.000183395
0.000202812
0.000215231
0.000222669
0.000225122
0.00022942
0.000226387
0.000227993
0.000218658
0.000226771
0.000221015
0.000235609
0.000239241
0.000243722
0.000255423
0.000265981
0.000273375
0.000283026
0.000294651
0.000304335
0.000308785
0.00031021
0.000312557
0.000315715
0.000319972
0.000327977
0.000344829
0.000376344
0.000399628
0.000412418
0.000423024
0.000440571
0.000463215
0.000479805
0.000483604
0.000482883
0.000480511
0.000474348
0.000475316
0.000485576
0.000488439
0.000488539
0.000475802
0.000450707
0.000372614
0.000354606
0.000382081
0.00042732
0.000461503
0.000480372
0.00046002
0.000433418
0.000388817
0.000394748
0.000422933
0.000137021
7.64858e-05
4.99486e-05
4.39907e-05
4.25239e-05
4.1257e-05
3.97724e-05
3.79566e-05
3.48392e-05
3.32002e-05
3.27321e-05
3.27224e-05
3.29353e-05
3.34147e-05
3.42425e-05
3.5289e-05
3.63764e-05
3.73902e-05
3.85526e-05
3.96962e-05
4.05612e-05
4.19554e-05
4.32518e-05
4.40841e-05
4.52452e-05
4.63279e-05
4.69927e-05
4.73595e-05
4.74563e-05
4.80298e-05
4.83849e-05
4.82771e-05
4.83527e-05
4.88539e-05
4.91751e-05
4.96699e-05
5.1644e-05
5.4069e-05
5.69291e-05
6.30793e-05
6.99357e-05
7.55959e-05
8.00658e-05
8.45477e-05
8.63922e-05
8.5531e-05
8.65641e-05
8.71817e-05
8.21554e-05
7.41676e-05
7.04371e-05
6.98807e-05
7.2668e-05
8.02933e-05
8.35764e-05
8.32682e-05
8.18372e-05
8.38649e-05
9.37652e-05
0.000110913
0.000138045
0.000183528
0.000209181
0.000207267
0.000200163
0.000185008
0.00017038
0.000155961
0.00014033
0.000127135
0.000115882
0.000106378
0.000100535
9.46181e-05
9.08102e-05
8.76569e-05
8.56096e-05
8.31784e-05
8.15072e-05
7.98368e-05
7.92469e-05
7.93241e-05
7.95173e-05
7.92246e-05
7.91442e-05
7.95072e-05
8.01591e-05
8.07619e-05
8.15633e-05
8.19923e-05
8.29247e-05
8.36388e-05
8.43777e-05
8.48584e-05
8.53072e-05
8.68637e-05
8.82928e-05
8.83408e-05
9.08172e-05
9.25728e-05
9.40193e-05
9.63632e-05
9.96155e-05
0.000103039
0.000106103
0.000108691
0.000111182
0.000113829
0.000116717
0.000119533
0.000121036
0.000121352
0.000120943
0.000120955
0.000121247
0.000120701
0.000119236
0.000121267
0.000124036
0.000122118
0.000121948
0.000127678
0.000130097
0.000131525
0.000145909
0.000159257
0.000168466
0.00017246
0.000173624
0.000175456
0.000176011
0.000177472
0.000180612
0.000178687
0.000187553
0.000183706
0.000192181
0.000195973
0.000197453
0.000210238
0.000221683
0.000229494
0.000231711
0.000236086
0.000242628
0.000244985
0.000246554
0.000247643
0.000248566
0.000245504
0.000238965
0.000245111
0.000262834
0.000281108
0.000288432
0.000298163
0.000311889
0.000336401
0.000367667
0.000384592
0.000390833
0.000395981
0.000385336
0.000364202
0.0003843
0.000409729
0.000422025
0.000437354
0.000424678
0.000355088
0.00031862
0.000302335
0.000316788
0.000395972
0.000431487
0.00039147
0.000351479
0.000326898
0.000331122
0.000325253
0.000190953
0.000104393
6.01728e-05
4.52816e-05
4.30453e-05
4.24736e-05
4.10519e-05
3.81644e-05
3.37479e-05
3.20322e-05
3.168e-05
3.18831e-05
3.24251e-05
3.33586e-05
3.45723e-05
3.59679e-05
3.74112e-05
3.87534e-05
4.02867e-05
4.18548e-05
4.32259e-05
4.46561e-05
4.61604e-05
4.73948e-05
4.83597e-05
4.92818e-05
4.96762e-05
4.98717e-05
4.98974e-05
5.00118e-05
4.93598e-05
4.85854e-05
4.85868e-05
4.83734e-05
4.74822e-05
4.6775e-05
4.66589e-05
4.63498e-05
4.64689e-05
4.72829e-05
4.85654e-05
5.33029e-05
5.81225e-05
6.15751e-05
6.33131e-05
6.51589e-05
6.8204e-05
6.86566e-05
6.84326e-05
6.79326e-05
6.93095e-05
7.17304e-05
8.22501e-05
9.41459e-05
9.87928e-05
9.86369e-05
9.49735e-05
9.24286e-05
9.68012e-05
0.000131445
0.000182044
0.000195371
0.000192273
0.000168374
0.000142408
0.000124905
0.000108885
9.57719e-05
8.59425e-05
7.87055e-05
7.31176e-05
6.89445e-05
6.6528e-05
6.44826e-05
6.34814e-05
6.28905e-05
6.2626e-05
6.23284e-05
6.22819e-05
6.24404e-05
6.30627e-05
6.39176e-05
6.47285e-05
6.50769e-05
6.56258e-05
6.64945e-05
6.70105e-05
6.76897e-05
6.91232e-05
7.04346e-05
7.15596e-05
7.19174e-05
7.25627e-05
7.30629e-05
7.34356e-05
7.42298e-05
7.45571e-05
7.47497e-05
7.56156e-05
7.64738e-05
7.7541e-05
7.85833e-05
8.05662e-05
8.29037e-05
8.53168e-05
8.82405e-05
9.1141e-05
9.44806e-05
9.82902e-05
0.00010247
0.000105271
0.000106058
0.000107086
0.000109371
0.000111965
0.0001143
0.000113981
0.000112649
0.000117644
0.000120802
0.000117484
0.000120149
0.00012636
0.000125725
0.000130123
0.000140445
0.000149082
0.000153623
0.000155156
0.000159966
0.000162234
0.000165073
0.00016924
0.00017328
0.000179261
0.000181263
0.000188716
0.000189944
0.000189442
0.000190294
0.000198126
0.000205585
0.000211793
0.000216181
0.000221812
0.000222602
0.000222501
0.000220883
0.000223155
0.000220656
0.00020462
0.000201573
0.000215733
0.000229284
0.000230923
0.000234588
0.000242202
0.000267028
0.000290037
0.000310197
0.000324326
0.000332082
0.000331677
0.000301699
0.000311665
0.00035747
0.000374086
0.000413044
0.000401274
0.000376999
0.000326269
0.000291337
0.000265258
0.00034207
0.000400358
0.000365899
0.000336268
0.000362346
0.000376793
0.00033223
0.000240188
0.000123515
6.82009e-05
4.68903e-05
4.36482e-05
4.33072e-05
4.07061e-05
3.6098e-05
3.23976e-05
3.15292e-05
3.19578e-05
3.29802e-05
3.47785e-05
3.67032e-05
3.86147e-05
4.09844e-05
4.32424e-05
4.5135e-05
4.72069e-05
4.90239e-05
5.06018e-05
5.18527e-05
5.27671e-05
5.31851e-05
5.33277e-05
5.32627e-05
5.29855e-05
5.26965e-05
5.20743e-05
5.13168e-05
5.07082e-05
5.02889e-05
5.01159e-05
4.95158e-05
4.93589e-05
4.90407e-05
4.78037e-05
4.71906e-05
4.60817e-05
4.51097e-05
4.48888e-05
4.52269e-05
4.59215e-05
5.08967e-05
5.37292e-05
5.47403e-05
5.51908e-05
5.54328e-05
5.70398e-05
6.05638e-05
6.54098e-05
7.57007e-05
9.63561e-05
0.000109016
0.000113264
0.000114455
0.000115665
0.000121442
0.000140069
0.000166349
0.000176812
0.000171257
0.000139225
0.000115731
9.85473e-05
8.42104e-05
7.40988e-05
6.69504e-05
6.19685e-05
5.89577e-05
5.69274e-05
5.5739e-05
5.52975e-05
5.52214e-05
5.53849e-05
5.57081e-05
5.62899e-05
5.69263e-05
5.74344e-05
5.80646e-05
5.88038e-05
5.94472e-05
6.04654e-05
6.10761e-05
6.12728e-05
6.1938e-05
6.21221e-05
6.24061e-05
6.26486e-05
6.33298e-05
6.50361e-05
6.5438e-05
6.60288e-05
6.65889e-05
6.73208e-05
6.8516e-05
6.87713e-05
6.89693e-05
6.97797e-05
7.00671e-05
7.04221e-05
7.07201e-05
7.14574e-05
7.26811e-05
7.33836e-05
7.41148e-05
7.51226e-05
7.64423e-05
7.91272e-05
8.21236e-05
8.61355e-05
8.93391e-05
9.06915e-05
9.33037e-05
9.77909e-05
0.000102597
0.000108101
0.000111796
0.000113929
0.000118297
0.000119968
0.00011885
0.000123647
0.000128659
0.000130326
0.00013506
0.000137788
0.000144504
0.000148439
0.000152274
0.000158613
0.000164118
0.000163959
0.000167758
0.000179582
0.000174434
0.000185974
0.00018509
0.000189494
0.000186986
0.00018722
0.000184623
0.00018744
0.000188654
0.000198513
0.000202868
0.000202845
0.000193993
0.000193136
0.000197676
0.000186437
0.000177499
0.000182348
0.000205321
0.000213116
0.000213482
0.000210627
0.000231171
0.000245532
0.000257022
0.000268699
0.000283677
0.000301915
0.00028334
0.000272393
0.000313729
0.000337316
0.000384719
0.000376159
0.000353924
0.000304285
0.000275609
0.000251477
0.000286082
0.000346565
0.000344286
0.000347608
0.000385746
0.000380448
0.000331309
0.000283584
0.000137049
7.0057e-05
4.78085e-05
4.35933e-05
4.15519e-05
3.77269e-05
3.34204e-05
3.24934e-05
3.34863e-05
3.59919e-05
3.88204e-05
4.37501e-05
4.66049e-05
4.87074e-05
5.02005e-05
5.10827e-05
5.1779e-05
5.23157e-05
5.2751e-05
5.32705e-05
5.36476e-05
5.39113e-05
5.419e-05
5.43727e-05
5.41062e-05
5.34682e-05
5.271e-05
5.17863e-05
5.06486e-05
5.03199e-05
5.00674e-05
4.92272e-05
4.87714e-05
4.91443e-05
4.91022e-05
4.79163e-05
4.79955e-05
4.79136e-05
4.671e-05
4.48075e-05
4.38938e-05
4.35886e-05
4.44063e-05
4.8165e-05
5.07155e-05
5.20281e-05
5.19337e-05
5.23619e-05
5.4865e-05
6.24285e-05
8.31932e-05
0.00010638
0.000117447
0.000121851
0.000124956
0.000128759
0.000137614
0.000148788
0.000155052
0.000144822
0.00012009
9.78212e-05
8.11548e-05
7.12277e-05
6.28952e-05
5.73946e-05
5.4348e-05
5.26232e-05
5.20364e-05
5.20806e-05
5.24276e-05
5.31169e-05
5.3762e-05
5.42971e-05
5.48948e-05
5.57101e-05
5.66753e-05
5.73624e-05
5.79422e-05
5.85652e-05
5.89856e-05
5.9893e-05
6.07916e-05
6.08171e-05
6.11845e-05
6.15208e-05
6.1821e-05
6.14521e-05
6.12831e-05
6.18472e-05
6.27185e-05
6.30699e-05
6.19143e-05
6.14879e-05
6.21709e-05
6.26784e-05
6.20205e-05
6.25494e-05
6.37902e-05
6.51441e-05
6.55207e-05
6.62975e-05
6.72966e-05
6.77695e-05
6.80369e-05
6.80051e-05
6.82533e-05
6.97191e-05
7.10195e-05
7.26885e-05
7.39182e-05
7.49899e-05
7.6125e-05
8.07883e-05
8.95349e-05
9.49151e-05
9.85528e-05
0.000103708
0.000110583
0.000117188
0.000122639
0.000125266
0.000129595
0.000129331
0.00013482
0.000137979
0.000143346
0.000146254
0.00015021
0.000154576
0.000152555
0.00016152
0.000156345
0.000168465
0.000165969
0.000173917
0.000170936
0.000170202
0.000166005
0.000167224
0.000166261
0.000168152
0.000165197
0.000170453
0.000176125
0.000178304
0.000167574
0.000155471
0.000161732
0.000173138
0.00017184
0.000164979
0.000186244
0.000201562
0.000202641
0.000189414
0.000201034
0.000216237
0.000227571
0.000234351
0.000241604
0.000272077
0.000267918
0.000251556
0.000276055
0.000306418
0.000355552
0.000358605
0.000330948
0.000301972
0.000269301
0.000245063
0.000281708
0.000326926
0.000351064
0.000363262
0.000358537
0.00032607
0.000285041
0.000321468
0.000149532
7.21041e-05
4.7854e-05
4.13545e-05
3.80126e-05
3.4125e-05
3.34733e-05
3.50145e-05
3.98957e-05
4.63305e-05
4.93641e-05
5.12864e-05
5.22044e-05
5.09337e-05
4.9913e-05
4.97643e-05
5.02526e-05
5.09685e-05
5.18248e-05
5.2873e-05
5.41298e-05
5.51408e-05
5.60598e-05
5.64923e-05
5.64303e-05
5.55625e-05
5.41978e-05
5.28369e-05
5.13194e-05
5.03179e-05
4.96446e-05
4.91757e-05
4.86358e-05
4.80367e-05
4.79906e-05
4.79205e-05
4.77264e-05
4.70028e-05
4.63799e-05
4.51759e-05
4.3092e-05
4.24415e-05
4.22506e-05
4.26389e-05
4.77173e-05
4.99468e-05
4.98685e-05
5.07363e-05
5.45817e-05
6.79999e-05
9.40201e-05
0.000110227
0.000118486
0.000122329
0.000125313
0.00012981
0.000133416
0.000134465
0.000120286
0.0001032
8.52313e-05
7.25838e-05
6.24753e-05
5.70107e-05
5.26787e-05
5.05638e-05
4.98053e-05
4.98151e-05
5.02843e-05
5.12468e-05
5.21311e-05
5.29425e-05
5.35022e-05
5.39529e-05
5.44988e-05
5.52537e-05
5.62292e-05
5.69577e-05
5.73331e-05
5.77223e-05
5.81102e-05
5.89911e-05
5.99883e-05
6.01685e-05
6.06312e-05
6.10267e-05
6.16022e-05
6.16773e-05
6.09819e-05
6.10019e-05
6.2166e-05
6.33508e-05
6.26394e-05
6.07014e-05
6.07367e-05
6.12992e-05
6.06654e-05
5.93794e-05
5.94331e-05
6.04759e-05
6.06072e-05
6.03966e-05
6.11967e-05
6.15509e-05
6.26136e-05
6.32591e-05
6.33869e-05
6.38125e-05
6.56261e-05
6.65475e-05
6.66968e-05
6.684e-05
6.76461e-05
6.96041e-05
7.3134e-05
7.68196e-05
8.26213e-05
8.8754e-05
9.73377e-05
0.000103282
0.000112176
0.000121429
0.000131889
0.000135332
0.000134568
0.000135928
0.00013915
0.000142332
0.000144526
0.000150313
0.000144623
0.000149701
0.000144074
0.000154257
0.000151948
0.00015352
0.000151702
0.00015402
0.000148186
0.000144987
0.000142614
0.000145458
0.000144215
0.00014389
0.00014496
0.000146613
0.00014628
0.000143328
0.000148904
0.000161038
0.000163914
0.000157717
0.000171248
0.000192821
0.000197568
0.000180933
0.0001786
0.00019337
0.000203593
0.000208763
0.000201581
0.000228267
0.000236979
0.000223598
0.000240704
0.000276231
0.000326961
0.000337453
0.000319141
0.000298168
0.000265466
0.000243554
0.000266702
0.000316234
0.000339302
0.000322846
0.000296356
0.000274682
0.00026366
0.00035564
0.000163028
7.74108e-05
4.71566e-05
3.84061e-05
3.42372e-05
3.38301e-05
3.6348e-05
4.28343e-05
5.20618e-05
5.5871e-05
5.30021e-05
4.93505e-05
4.92353e-05
4.90362e-05
4.91097e-05
4.96205e-05
5.02113e-05
5.09031e-05
5.19357e-05
5.33867e-05
5.5272e-05
5.73798e-05
5.94683e-05
6.06214e-05
6.13479e-05
6.05352e-05
5.82214e-05
5.58771e-05
5.31099e-05
5.05733e-05
4.94411e-05
4.89835e-05
4.86502e-05
4.8377e-05
4.83347e-05
4.77667e-05
4.71326e-05
4.6573e-05
4.6e-05
4.45068e-05
4.26178e-05
4.16564e-05
4.11922e-05
4.11309e-05
4.36622e-05
4.70086e-05
4.85133e-05
5.07252e-05
5.58481e-05
7.30886e-05
9.73395e-05
0.000110673
0.000117149
0.000120365
0.000121672
0.00012196
0.000115953
0.000104802
8.94532e-05
7.62187e-05
6.53498e-05
5.87903e-05
5.32829e-05
4.9888e-05
4.82019e-05
4.7761e-05
4.78543e-05
4.86496e-05
4.9569e-05
5.02278e-05
5.09118e-05
5.15838e-05
5.21829e-05
5.26919e-05
5.34072e-05
5.42084e-05
5.50471e-05
5.57917e-05
5.63685e-05
5.6859e-05
5.73165e-05
5.81044e-05
5.90638e-05
5.94204e-05
6.02058e-05
6.03889e-05
6.09804e-05
6.17256e-05
6.13457e-05
5.98219e-05
6.04085e-05
6.26589e-05
6.30022e-05
6.062e-05
5.97213e-05
6.08699e-05
6.11111e-05
5.90303e-05
5.86007e-05
5.89513e-05
5.92279e-05
5.7857e-05
5.7881e-05
5.81657e-05
5.83851e-05
5.86212e-05
5.88122e-05
5.95888e-05
6.04247e-05
6.12081e-05
6.27522e-05
6.29008e-05
6.30083e-05
6.36643e-05
6.67214e-05
6.86149e-05
6.93108e-05
7.287e-05
7.87692e-05
8.63854e-05
9.74679e-05
0.000106649
0.000118241
0.000130055
0.000134406
0.00013796
0.000138802
0.000141818
0.000136434
0.000142835
0.000138984
0.000142242
0.000136716
0.000141876
0.000143854
0.000143478
0.000138375
0.000137397
0.000133404
0.00012844
0.000126111
0.000128949
0.000128329
0.000126756
0.000125812
0.000127779
0.000130593
0.000133245
0.000143467
0.000153875
0.00015568
0.000151113
0.000154591
0.000178889
0.000185325
0.000178185
0.000173949
0.000185599
0.000194665
0.000197321
0.000186378
0.000195311
0.000209342
0.000201153
0.000212318
0.000247179
0.000297805
0.000312731
0.000308148
0.000289612
0.000270978
0.000262729
0.000242815
0.000247249
0.00025728
0.000234465
0.000220134
0.000221337
0.000236841
0.000386679
0.000176146
8.18051e-05
4.5876e-05
3.49275e-05
3.36711e-05
3.67358e-05
4.60848e-05
5.37003e-05
5.37035e-05
5.15137e-05
4.97046e-05
4.8811e-05
4.88139e-05
4.86311e-05
4.80392e-05
4.75937e-05
4.79127e-05
4.85309e-05
4.94788e-05
5.10416e-05
5.31655e-05
5.56936e-05
5.82126e-05
6.02046e-05
6.21502e-05
6.36418e-05
6.32053e-05
6.00487e-05
5.57193e-05
5.08053e-05
4.83342e-05
4.75638e-05
4.75689e-05
4.76984e-05
4.78057e-05
4.7875e-05
4.76673e-05
4.65311e-05
4.56084e-05
4.42901e-05
4.2779e-05
4.09351e-05
4.00187e-05
3.999e-05
4.09844e-05
4.49904e-05
4.74047e-05
5.00999e-05
5.62854e-05
7.55726e-05
9.7715e-05
0.000108294
0.000112043
0.000112787
0.000110521
0.000104186
9.44061e-05
8.2394e-05
7.04089e-05
6.11993e-05
5.53207e-05
5.10984e-05
4.79223e-05
4.64356e-05
4.61772e-05
4.63861e-05
4.72787e-05
4.82716e-05
4.87724e-05
4.93198e-05
5.00729e-05
5.07625e-05
5.15424e-05
5.2528e-05
5.36217e-05
5.43853e-05
5.50188e-05
5.57141e-05
5.64097e-05
5.68567e-05
5.71033e-05
5.77227e-05
5.87523e-05
5.9454e-05
6.03989e-05
6.08346e-05
6.11213e-05
6.22164e-05
6.2947e-05
6.18727e-05
6.02442e-05
6.16477e-05
6.37363e-05
6.18971e-05
5.85823e-05
5.98472e-05
6.06139e-05
5.90218e-05
5.77723e-05
5.79593e-05
5.85476e-05
5.70361e-05
5.63634e-05
5.66378e-05
5.65848e-05
5.71694e-05
5.67003e-05
5.7445e-05
5.80351e-05
5.83483e-05
5.90147e-05
5.99657e-05
6.0368e-05
6.13667e-05
6.30638e-05
6.5269e-05
6.53242e-05
6.73598e-05
6.96145e-05
7.36146e-05
7.80944e-05
8.79122e-05
9.60892e-05
0.000111848
0.000120468
0.000129825
0.000131995
0.000140509
0.00013329
0.000136222
0.000129131
0.000135161
0.000131189
0.000130493
0.000130915
0.000127183
0.000121208
0.000119411
0.000115817
0.000111422
0.000108834
0.000110815
0.000112037
0.000112112
0.000114511
0.000117818
0.000124706
0.000130199
0.000140862
0.000146865
0.000148788
0.000149548
0.000151709
0.000166534
0.000178789
0.000176518
0.000171935
0.00018099
0.000190256
0.000189533
0.000177292
0.000177315
0.00019266
0.00018887
0.000193777
0.000227903
0.000269872
0.000289741
0.000291191
0.000273069
0.000269701
0.000267073
0.000248751
0.000239391
0.000230061
0.000216344
0.000212326
0.000226161
0.000243214
0.000413536
0.00018572
8.30857e-05
4.34667e-05
3.40859e-05
3.57595e-05
4.54646e-05
5.32914e-05
5.34154e-05
5.0177e-05
5.03621e-05
5.15108e-05
4.77558e-05
4.59882e-05
4.53962e-05
4.51091e-05
4.5344e-05
4.5626e-05
4.60363e-05
4.67896e-05
4.81095e-05
4.98496e-05
5.24696e-05
5.56891e-05
5.85562e-05
6.14522e-05
6.48107e-05
6.65748e-05
6.46802e-05
5.91535e-05
5.20257e-05
4.8286e-05
4.67214e-05
4.64241e-05
4.68262e-05
4.78356e-05
4.88918e-05
4.96607e-05
4.88622e-05
4.73078e-05
4.54563e-05
4.3471e-05
4.1669e-05
3.99113e-05
3.92435e-05
3.93215e-05
4.14193e-05
4.3737e-05
4.68616e-05
5.40597e-05
7.59389e-05
9.52243e-05
0.000103261
0.000105197
0.000103937
9.76583e-05
8.93021e-05
7.88726e-05
6.80734e-05
5.98139e-05
5.35672e-05
5.0194e-05
4.69045e-05
4.52659e-05
4.4966e-05
4.53154e-05
4.62056e-05
4.72423e-05
4.76413e-05
4.77356e-05
4.82332e-05
4.92167e-05
4.98299e-05
5.07469e-05
5.2355e-05
5.36633e-05
5.40682e-05
5.41798e-05
5.42136e-05
5.40967e-05
5.39047e-05
5.39949e-05
5.4355e-05
5.53672e-05
5.62565e-05
5.81589e-05
5.98179e-05
6.05924e-05
6.09721e-05
6.2882e-05
6.37617e-05
6.18468e-05
6.11395e-05
6.35304e-05
6.35695e-05
5.93982e-05
5.88551e-05
6.02801e-05
5.94557e-05
5.72411e-05
5.66501e-05
5.74615e-05
5.633e-05
5.50401e-05
5.58436e-05
5.5384e-05
5.61563e-05
5.56468e-05
5.65998e-05
5.69705e-05
5.7403e-05
5.72039e-05
5.88622e-05
5.84474e-05
6.00941e-05
6.07892e-05
6.3239e-05
6.29473e-05
6.59193e-05
6.63027e-05
6.9068e-05
7.05038e-05
7.54956e-05
7.99841e-05
8.5453e-05
9.67464e-05
0.000112917
0.000109159
0.00012451
0.000120855
0.000125447
0.000119266
0.000121096
0.000114141
0.000111406
0.000113581
0.000108216
0.000104363
0.000102912
0.000101487
0.000101888
0.00010236
0.00010475
0.000105499
0.000107831
0.000110766
0.000112871
0.000119863
0.000127386
0.00014184
0.000142277
0.000143487
0.000148517
0.000152343
0.000158233
0.000173978
0.000179226
0.000173238
0.000179168
0.000188027
0.000184274
0.000171481
0.000168176
0.000183837
0.000179766
0.000177793
0.000213125
0.000248232
0.000267206
0.000270367
0.000259924
0.000264639
0.000255961
0.000237455
0.000235538
0.000225619
0.000216761
0.000217998
0.000234654
0.000249119
0.000435188
0.000193739
8.37857e-05
4.12911e-05
3.4805e-05
4.2355e-05
5.1253e-05
5.29274e-05
5.12758e-05
4.93201e-05
4.88532e-05
4.70892e-05
4.51198e-05
4.39644e-05
4.35135e-05
4.33203e-05
4.29733e-05
4.28511e-05
4.33752e-05
4.3963e-05
4.48024e-05
4.53718e-05
4.64011e-05
4.90831e-05
5.31319e-05
5.6723e-05
6.27667e-05
6.63682e-05
6.71524e-05
6.21347e-05
5.26612e-05
4.78498e-05
4.55182e-05
4.45937e-05
4.46314e-05
4.58571e-05
4.84786e-05
5.09361e-05
5.24072e-05
5.15615e-05
4.80027e-05
4.55577e-05
4.4129e-05
4.18708e-05
3.975e-05
3.92806e-05
3.9636e-05
4.05253e-05
4.36769e-05
5.27507e-05
7.47018e-05
9.07078e-05
9.74009e-05
9.88925e-05
9.65073e-05
8.89014e-05
7.93719e-05
6.91435e-05
5.9898e-05
5.40911e-05
4.98065e-05
4.73092e-05
4.48451e-05
4.41657e-05
4.45318e-05
4.53529e-05
4.64316e-05
4.67498e-05
4.65437e-05
4.6771e-05
4.78079e-05
4.93148e-05
5.00738e-05
5.06836e-05
5.15749e-05
5.22073e-05
5.23465e-05
5.21503e-05
5.1089e-05
4.94184e-05
4.8742e-05
4.86659e-05
4.88519e-05
5.00427e-05
5.16062e-05
5.35489e-05
5.5129e-05
5.77952e-05
5.89995e-05
6.01021e-05
6.30586e-05
6.29991e-05
6.15486e-05
6.16878e-05
6.33219e-05
6.18185e-05
5.92163e-05
5.99536e-05
6.01934e-05
5.83276e-05
5.64525e-05
5.67181e-05
5.62771e-05
5.50127e-05
5.55954e-05
5.52991e-05
5.54802e-05
5.5719e-05
5.62706e-05
5.635e-05
5.74893e-05
5.6518e-05