/*--------------------------------*- C++ -*----------------------------------*\
| =========                 |                                                 |
| \\      /  F ield         | OpenFOAM: The Open Source CFD Toolbox           |
|  \\    /   O peration     | Version:  dev                                   |
|   \\  /    A nd           | Web:      http://www.openfoam.org               |
|    \\/     M anipulation  |                                                 |
\*---------------------------------------------------------------------------*/
FoamFile
{
    version     2.0;
    format      ascii;
    class       volScalarField;
    object      p;
    location    "9.124";
}
// * * * * * * * * * * * * * * * * * * * * * * * * * * * * * * * * * * * * * //

dimensions      [1 -1 -2 0 0 0 0];

internalField   nonuniform List<scalar> 
12225
(
97390
97281.1
97125.2
96933.1
96712.6
96477.1
96238
96000.7
95770.2
95550.5
95339.8
95148.1
94957.9
94784.8
94613.5
94442
94195.6
93778.5
97395.5
97289.8
97134.8
96943.1
96722.8
96487.4
96248.2
96011.2
95780.5
95561.3
95350.8
95158.9
94968.9
94794.3
94622.3
94448
94200.9
94023.7
97416.7
97311.8
97158.3
96966.7
96746.8
96511.9
96272.7
96036.2
95805.6
95587.1
95377.6
95184.6
94996.2
94819.5
94652.9
94468.1
94234.9
94025
97456.6
97351.3
97199.3
97008
96788.8
96554.8
96316
96080.2
95850.5
95632.8
95424.4
95230.7
95043.2
94866.5
94693.2
94512.9
94293.7
94123
97515
97413.8
97263
97072.2
96854.2
96621.3
96383.7
96148.5
95920.5
95703.4
95496.4
95302.6
95117.2
94940
94770.7
94593.7
94396.4
94273.6
97603.8
97505.5
97355.1
97165.7
96948.8
96718
96481.3
96247.9
96021
95805.6
95600
95407.7
95224.8
95052.5
94888.3
94725.5
94561
94399.1
97726.9
97633.3
97482.9
97295.8
97080.3
96852.4
96617.1
96386.2
96160.6
95947.6
95744.2
95554.4
95374.7
95206.5
95048
94899.2
94749
94607.4
97871
97779.5
97630
97445.6
97231.9
97006.8
96773.6
96544.9
96321.7
96110.7
95910.6
95722.7
95546.9
95381.8
95227.3
95074.5
94946.6
94820.2
98026.4
97937.7
97789.9
97608
97396.7
97174.2
96943.2
96717
96496.2
96287.6
96090.4
95904.8
95732.1
95570.3
95419.4
95276.7
95153.2
95036.2
98236.1
98148
98002.9
97824.2
97616.5
97396.9
97169.5
96946
96728.5
96522.7
96328.9
96145.9
95977.1
95818.8
95672.5
95536.4
95416.3
95306
98510.2
98428.2
98287.8
98112.9
97909.9
97694.1
97471.2
97251.4
97037.9
96835.7
96645.1
96465.9
96300.8
96146.1
96003.8
95872.5
95754.6
95647.6
98882.4
98802.2
98667.6
98496.7
98300.4
98088.8
97872.4
97657
97448.9
97250.7
97063.9
96888.8
96726.7
96575.6
96436.1
96308.1
96191.5
96085.1
99383.7
99300.6
99171.6
99006.4
98817.3
98612.4
98403.7
98194.5
97992.8
97799.2
97617
97445.4
97286.2
97137.7
97000.4
96873.4
96756.2
96647.8
100038
99959.9
99838.1
99680.3
99500.1
99304.4
99104.4
98903.6
98708.8
98521
98343.3
98175.3
98018.2
97870.9
97733.4
97605
97484.8
97372.1
100905
100828
100714
100566
100397
100212
100023
99831.8
99645.1
99463.7
99290.7
99125.6
98969.3
98821.2
98681.1
98548.4
98422
98301.6
102014
101952
101850
101717
101562
101391
101214
101034
100857
100682
100513
100350
100193
100042
99895.8
99755.2
99619
99487.3
103427
103383
103299
103185
103048
102895
102734
102567
102399
102232
102066
101903
101743
101586
101431
101279
101129
100981
105071
105037
104970
104877
104761
104629
104485
104334
104176
104016
103853
103689
103525
103359
103193
103026
102859
102692
106644
106630
106584
106512
106418
106306
106180
106043
105897
105743
105583
105418
105248
105074
104897
104715
104531
104345
108027
108015
107983
107929
107854
107761
107651
107528
107392
107245
107088
106922
106748
106566
106378
106185
105986
105783
109168
109169
109151
109113
109054
108977
108882
108770
108643
108503
108349
108183
108006
107818
107622
107418
107207
106990
110078
110098
110095
110070
110025
109961
109877
109776
109657
109522
109371
109206
109027
108835
108632
108419
108198
107970
110797
110827
110835
110821
110787
110733
110659
110566
110454
110323
110175
110010
109830
109635
109427
109209
108980
108743
111350
111384
111398
111393
111368
111322
111255
111168
111061
110934
110788
110624
110442
110245
110034
109811
109577
109333
111756
111795
111814
111815
111796
111756
111695
111612
111509
111385
111241
111077
110895
110697
110483
110256
110018
109770
112044
112086
112109
112114
112100
112064
112007
111928
111828
111706
111563
111400
111218
111018
110803
110573
110332
110080
112239
112283
112308
112317
112305
112273
112219
112143
112044
111924
111781
111619
111437
111236
111020
110789
110545
110292
112359
112406
112433
112444
112435
112405
112353
112278
112181
112061
111920
111757
111575
111374
111157
110925
110681
110425
112427
112474
112502
112515
112507
112478
112427
112354
112258
112138
111997
111834
111652
111451
111234
111001
110756
110500
112459
112503
112531
112544
112537
112509
112458
112385
112289
112170
112029
111866
111684
111483
111265
111033
110787
110531
98730.7
98731.7
98733.4
98735.4
98738
98741.3
98745.5
98750.7
98757
98764.4
98772.9
98782.5
98793.4
98805.5
98819.2
98834.6
98851.7
98870.8
98892
98915.3
98940.7
98968.3
98998.3
99030.4
99064.6
99100.8
99138.7
99178.3
99219.3
99262
99306
99350.7
99396.2
99442.8
99490.1
99537.8
99585.5
99632.7
99680.1
99727.2
99773.3
99818.3
99862.2
99905.1
99947.2
99988.3
100027
100064
100098
100129
100159
100186
100210
100229
100243
100253
100259
100265
100271
100273
100271
100271
100275
100277
100273
100271
100272
100279
100285
100292
100301
100312
100326
100343
100364
100388
100415
100445
100477
100511
100546
100582
100618
100652
100685
100716
100745
100770
100792
100810
100826
100839
100851
100860
100869
100878
100888
100900
100915
100934
100958
100988
101025
101070
101122
101182
101250
101326
101411
101505
101609
101725
101853
101998
102160
102342
102548
102783
103053
103362
103717
104122
104577
105078
105623
106213
106854
107550
108306
109126
110003
110963
111928
113004
114084
115225
116382
117565
118778
120007
121257
122498
123732
124986
126217
127439
128647
129829
130982
132078
133128
134118
135050
135915
136716
137443
138096
138663
139141
139529
139830
140054
140205
140305
140388
140419
140336
140062
139510
138710
137749
136645
135501
134201
132799
131285
129735
128193
126725
125296
98674
98675.8
98678.3
98680.8
98683.3
98686.1
98689.7
98694.4
98700.4
98707.7
98716.2
98725.8
98736.8
98749.2
98763.1
98778.5
98795.8
98815.1
98836.4
98859.7
98885.3
98913.2
98943.3
98975.7
99010.2
99046.8
99085.2
99125
99166.2
99209.4
99254.1
99299.9
99346.6
99394.1
99442.5
99491.3
99540.3
99589.2
99638.1
99686.3
99733.4
99780.2
99826.7
99871.4
99915.1
99958.1
99999
100038
100075
100108
100139
100168
100195
100217
100232
100243
100253
100262
100271
100278
100283
100287
100295
100301
100302
100303
100306
100313
100323
100335
100348
100364
100383
100405
100430
100459
100491
100525
100562
100601
100641
100681
100721
100760
100797
100833
100865
100894
100920
100942
100962
100978
100993
101006
101017
101029
101041
101055
101072
101092
101118
101149
101186
101230
101282
101341
101408
101482
101564
101655
101756
101868
101992
102132
102288
102464
102663
102891
103152
103454
103801
104197
104645
105138
105672
106250
106878
107562
108305
109111
109969
110914
111868
112924
113986
115107
116243
117401
118589
119788
121026
122240
123452
124671
125877
127073
128254
129411
130542
131619
132646
133613
134526
135380
136173
136891
137534
138098
138575
138966
139264
139486
139637
139724
139811
139871
139820
139600
139075
138303
137362
136275
135136
133894
132529
131038
129521
128017
126581
125166
98561.3
98563.7
98567
98570.3
98573.4
98576.1
98579.3
98583.7
98589.6
98596.9
98605.5
98615.5
98626.9
98639.5
98653.6
98669.2
98686.6
98705.9
98727.1
98750.5
98776.2
98804.2
98834.5
98867.2
98902.1
98939.2
98978.1
99018.7
99060.7
99104.9
99150.8
99198.1
99246.6
99296.2
99346.7
99397.8
99449.6
99501.5
99553.2
99604.8
99655.6
99705.7
99755.1
99803.3
99851
99898.1
99942.6
99985.8
100027
100066
100102
100135
100166
100191
100206
100222
100236
100253
100273
100293
100310
100326
100338
100347
100355
100364
100375
100389
100405
100424
100445
100470
100497
100528
100562
100600
100640
100683
100729
100776
100824
100873
100922
100969
101015
101058
101099
101134
101168
101198
101224
101248
101269
101288
101306
101323
101340
101359
101380
101404
101433
101467
101506
101551
101603
101661
101726
101798
101876
101962
102056
102160
102276
102407
102551
102714
102900
103114
103360
103644
103973
104350
104778
105253
105766
106321
106923
107583
108299
109078
109908
110813
111729
112762
113780
114869
115965
117073
118217
119362
120543
121712
122881
124048
125206
126351
127484
128592
129678
130721
131710
132638
133513
134344
135115
135813
136423
136974
137452
137852
138151
138367
138528
138603
138673
138761
138752
138631
138180
137488
136587
135538
134420
133246
131943
130522
129090
127672
126291
124902
98394.8
98397.5
98401.3
98405.2
98408.7
98411.7
98415.1
98419.7
98425.9
98433.7
98443
98453.5
98465.2
98478.1
98492.2
98507.7
98524.8
98543.8
98564.9
98588.1
98613.8
98641.9
98672.5
98705.3
98740.5
98778.2
98817.8
98859.6
98903.4
98949
98996.5
99045.9
99096.9
99149.1
99202.5
99257.4
99313.5
99369.5
99425.8
99482.4
99538.3
99593.6
99648.7
99702.6
99756.6
99810.2
99861.6
99911.7
99960.2
100006
100049
100091
100127
100159
100175
100196
100220
100246
100280
100314
100342
100367
100390
100412
100432
100453
100475
100499
100526
100556
100589
100625
100665
100708
100755
100805
100858
100913
100971
101030
101090
101151
101212
101271
101328
101382
101435
101477
101521
101562
101599
101632
101661
101688
101713
101738
101762
101786
101812
101841
101873
101910
101952
101999
102051
102109
102172
102242
102316
102397
102484
102580
102687
102804
102935
103081
103246
103439
103664
103925
104226
104573
104970
105413
105895
106416
106985
107608
108286
109024
109811
110660
111537
112502
113478
114500
115545
116589
117669
118740
119838
120931
122030
123124
124216
125295
126362
127403
128424
129417
130367
131256
132086
132884
133633
134305
134872
135389
135856
136259
136565
136780
136978
137080
137120
137195
137217
137182
136851
136265
135431
134447
133395
132289
131062
129773
128473
127154
125830
124509
98177.6
98180.3
98183.9
98187.7
98191.3
98194.8
98199.2
98205.3
98213
98222.1
98232.2
98243.1
98254.7
98267
98280.5
98295.5
98312.2
98330.9
98351.6
98374.7
98400.2
98428.3
98458.8
98492
98528.1
98566.6
98607.6
98651.3
98697.1
98745
98795.3
98847.6
98901.7
98957.4
99014.8
99073.9
99134.2
99195.4
99257.5
99320
99382.5
99446
99509.9
99571.8
99633.6
99695.4
99756.2
99816.1
99873.5
99929
99982.8
100033
100079
100118
100151
100183
100218
100256
100299
100344
100387
100426
100463
100498
100533
100568
100605
100644
100687
100732
100781
100833
100889
100948
101011
101077
101146
101218
101291
101366
101442
101518
101594
101667
101738
101806
101871
101929
101985
102037
102086
102131
102171
102208
102242
102276
102307
102337
102368
102401
102436
102474
102516
102562
102612
102666
102725
102789
102857
102930
103009
103092
103184
103289
103404
103533
103679
103849
104048
104279
104543
104851
105207
105608
106049
106530
107055
107632
108260
108944
109672
110456
111272
112157
113071
114012
114982
115948
116945
117934
118940
119943
120950
121949
122948
123940
124929
125898
126840
127759
128658
129518
130307
131056
131765
132420
132972
133450
133890
134273
134575
134783
135014
135186
135234
135274
135319
135327
135121
134647
133933
133054
132087
131084
129981
128847
127664
126422
125194
123993
97914.7
97917.2
97920.3
97923.7
97927.7
97932.7
97939.4
97947.6
97957
97966.9
97976.8
97986.8
97997.7
98009.4
98022.2
98036.4
98052.1
98069.8
98089.9
98112.5
98137.9
98166.3
98197.7
98232.3
98269.9
98310.4
98353.8
98399.7
98448.2
98499.3
98553.1
98609.4
98667.7
98727.9
98789.9
98854.2
98919.9
98986.6
99054.5
99123.7
99194.1
99265.7
99337.7
99412.6
99485.1
99556.4
99628.1
99699.7
99769.2
99837.4
99903.4
99966.1
100025
100080
100130
100179
100229
100282
100337
100393
100449
100503
100556
100607
100658
100712
100767
100825
100887
100952
101020
101092
101168
101247
101329
101415
101504
101594
101687
101780
101875
101969
102062
102153
102241
102325
102406
102480
102551
102618
102681
102740
102792
102840
102885
102929
102970
103008
103045
103083
103122
103161
103201
103244
103289
103336
103386
103439
103496
103555
103618
103685
103761
103843
103936
104043
104170
104314
104481
104680
104909
105173
105479
105829
106218
106650
107124
107648
108214
108834
109491
110196
110938
111731
112562
113412
114290
115165
116061
116954
117856
118761
119671
120576
121476
122368
123260
124149
125014
125847
126660
127475
128243
128935
129574
130199
130773
131235
131644
132001
132291
132485
132704
132940
133039
133071
133134
133162
133052
132710
132141
131397
130554
129662
128736
127758
126680
125543
124452
123390
97612
97614.5
97617.7
97621.6
97626.8
97633.7
97642.2
97651.7
97661.4
97670.8
97680.2
97689.5
97699
97709.1
97720.3
97733
97747.8
97765
97785.1
97808.2
97834.4
97864
97896.6
97932.6
97972
98014.5
98059.9
98108.4
98159.9
98214.5
98272.3
98333
98396.4
98462.5
98530.9
98601.5
98673.8
98747.7
98823.2
98900.1
98979
99059.3
99141.5
99227.1
99312.8
99396.8
99481.6
99565.9
99648.9
99731.7
99812.8
99891.8
99967.8
100041
100112
100181
100249
100318
100388
100458
100528
100598
100668
100738
100810
100884
100961
101042
101126
101214
101305
101400
101497
101598
101703
101811
101921
102033
102146
102261
102375
102489
102602
102713
102821
102925
103024
103118
103208
103291
103370
103446
103515
103575
103631
103686
103738
103783
103826
103869
103912
103952
103992
104031
104070
104110
104148
104187
104226
104267
104309
104356
104404
104459
104525
104603
104696
104808
104941
105102
105291
105512
105767
106061
106392
106765
107178
107640
108136
108681
109262
109881
110540
111231
111965
112713
113484
114254
115041
115831
116627
117425
118230
119032
119833
120627
121414
122203
122981
123738
124460
125198
125944
126602
127167
127728
128313
128780
129163
129498
129790
130003
130198
130464
130608
130654
130733
130776
130738
130517
130080
129503
128809
128060
127304
126487
125564
124601
123664
122717
97275
97278
97282
97286.9
97293.5
97301.6
97310.9
97320.5
97329.5
97337.8
97345.5
97353.1
97361
97370
97380.9
97394.2
97409.5
97427.1
97447.1
97469.9
97495.5
97524.7
97557.9
97595.2
97636.3
97680.9
97729
97780.6
97835.5
97894
97956.2
98022
98091.1
98163.4
98238.8
98317.2
98397.8
98480.7
98565.9
98652.9
98741.9
98832.5
98925.4
99021.9
99120.7
99219.5
99318.7
99418
99516.7
99615.2
99713.1
99810.5
99906.4
100000
100092
100181
100269
100357
100445
100532
100620
100709
100799
100891
100986
101084
101186
101292
101400
101512
101627
101745
101866
101990
102117
102248
102382
102517
102653
102790
102926
103062
103197
103329
103458
103582
103701
103817
103927
104032
104130
104225
104314
104394
104465
104532
104596
104651
104700
104746
104793
104834
104870
104905
104936
104966
104991
105014
105034
105052
105069
105087
105104
105127
105157
105199
105250
105323
105414
105530
105670
105843
106047
106282
106553
106859
107203
107595
108018
108479
108977
109503
110071
110658
111282
111920
112578
113243
113917
114600
115292
115985
116682
117372
118068
118757
119439
120126
120803
121477
122125
122787
123482
124112
124627
125110
125652
126114
126482
126804
127104
127370
127575
127858
128030
128094
128189
128243
128267
128141
127833
127399
126851
126331
125763
125105
124366
123592
122797
121949
96908.9
96912.4
96917.2
96923.2
96930.5
96939.3
96948.7
96957.5
96965.4
96971.8
96977
96983.7
96992.8
97002.8
97013.4
97025.5
97039.5
97055.9
97075
97097.3
97123.2
97153.4
97187.8
97226.8
97270.7
97318.9
97370.8
97426.1
97485
97548
97615.1
97686.2
97761.3
97840.3
97922.9
98008.8
98098.5
98191.8
98287.2
98385.2
98486
98589
98694.2
98802.8
98914.5
99027.7
99142.2
99257.9
99373.8
99489.6
99606
99723.1
99839.4
99954.7
100068
100180
100290
100398
100506
100613
100722
100833
100946
101063
101183
101308
101436
101567
101701
101837
101976
102119
102265
102415
102568
102724
102883
103043
103204
103366
103527
103687
103844
103999
104151
104294
104430
104565
104694
104819
104938
105052
105159
105262
105354
105435
105513
105582
105642
105694
105743
105783
105815
105845
105866
105884
105892
105897
105895
105887
105873
105862
105842
105830
105817
105817
105823
105848
105888
105954
106038
106154
106299
106471
106680
106917
107188
107499
107844
108217
108629
109056
109522
110006
110518
111049
111595
112157
112723
113300
113886
114472
115058
115640
116228
116808
117382
117967
118544
119130
119711
120306
120923
121501
121993
122416
122887
123310
123653
123967
124285
124611
124860
125164
125365
125453
125561
125632
125704
125659
125477
125150
124753
124482
124134
123650
123067
122458
121795
121062
96518.9
96522.9
96528.3
96534.9
96542.8
96551.5
96559.9
96567.1
96573
96579.1
96586.2
96593.2
96599.8
96607.3
96617.4
96629.7
96644.2
96661.2
96681.2
96704.6
96731.8
96762.8
96798.1
96838.6
96884.8
96935.8
96991.3
97050.8
97114.3
97182.1
97254.5
97331.8
97413.8
97499.8
97589.9
97684.5
97783.8
97887.2
97993.6
98103.5
98216.6
98332.5
98452
98574.9
98700.8
98828.3
98958.1
99090.1
99223.4
99356.9
99492.9
99631.3
99769.8
99907
100043
100177
100309
100440
100570
100701
100834
100969
101108
101251
101398
101550
101705
101863
102023
102185
102351
102521
102695
102873
103056
103240
103426
103614
103802
103990
104176
104360
104540
104715
104880
105045
105207
105361
105509
105650
105786
105914
106038
106159
106272
106369
106460
106542
106614
106673
106724
106766
106795
106819
106830
106833
106826
106809
106780
106744
106697
106651
106593
106539
106483
106436
106394
106366
106351
106357
106383
106434
106515
106619
106758
106924
107118
107344
107607
107889
108210
108544
108905
109289
109693
110123
110562
111022
111483
111953
112431
112909
113386
113860
114339
114812
115287
115771
116247
116751
117273
117799
118309
118807
119283
119662
120052
120433
120749
121059
121411
121787
122083
122414
122663
122789
122901
122995
123107
123140
123078
122865
122655
122560
122393
122076
121632
121166
120641
120048
96111.3
96115.6
96121.5
96128.3
96136.2
96144.4
96151.5
96157.3
96162.5
96168.1
96173.9
96180.2
96187.2
96196.1
96207.1
96219.9
96234.9
96252.6
96273.8
96298.7
96327.3
96359.6
96396.4
96438.4
96485.9
96539.3
96598.4
96662.4
96730.7
96803.5
96881.2
96964.5
97053.6
97147.7
97246.1
97349.1
97457.1
97570.8
97690.1
97813.4
97938.8
98067.2
98200.5
98338.7
98480.3
98623.9
98770.3
98919.4
99069.2
99221.2
99377.2
99536.9
99697.3
99857.3
100016
100174
100330
100484
100639
100795
100953
101115
101281
101452
101627
101807
101990
102176
102363
102553
102748
102949
103153
103362
103575
103789
104004
104219
104434
104648
104860
105067
105270
105468
105664
105852
106034
106207
106371
106525
106673
106817
106953
107083
107208
107320
107417
107511
107592
107657
107706
107750
107776
107792
107794
107778
107755
107709
107660
107596
107516
107429
107334
107232
107133
107034
106941
106854
106783
106723
106687
106670
106683
106718
106781
106872
106990
107131
107309
107502
107729
107974
108237
108526
108830
109159
109498
109854
110213
110578
110944
111314
111683
112055
112429
112799
113183
113570
113955
114383
114849
115298
115701
116100
116529
116872
117182
117532
117846
118159
118542
118957
119290
119647
119964
120146
120257
120372
120527
120628
120676
120585
120568
120614
120580
120389
120070
119740
119360
118939
95693.9
95698.2
95704.6
95711.3
95718.6
95725.4
95731.4
95736.7
95742.1
95748
95753.5
95759.2
95766.5
95775.8
95786.9
95800.1
95815.7
95834.9
95858.2
95885.5
95916.9
95952.6
95992.8
96037.2
96086.7
96142.2
96204.2
96272.2
96345.4
96423.1
96505.6
96593.6
96688.7
96790.9
96898.3
97010.2
97127.2
97250
97379.9
97516.3
97656.9
97800.6
97947.1
98098
98254.3
98414.5
98578.6
98746.7
98914.6
99084.7
99260.8
99441.9
99624.6
99807.4
99989.8
100171
100352
100532
100712
100894
101079
101268
101462
101661
101866
102074
102287
102501
102717
102938
103164
103395
103631
103870
104111
104353
104595
104836
105075
105314
105552
105785
106014
106238
106459
106672
106877
107072
107254
107423
107582
107735
107881
108020
108153
108274
108381
108476
108558
108625
108674
108711
108731
108730
108721
108692
108646
108585
108508
108412
108301
108172
108039
107889
107741
107588
107440
107293
107161
107038
106936
106849
106790
106756
106743
106759
106799
106858
106952
107061
107196
107354
107527
107723
107933
108163
108405
108656
108918
109182
109443
109709
109977
110252
110522
110799
111094
111388
111699
112061
112458
112819
113142
113454
113794
114094
114350
114658
114984
115324
115727
116170
116542
116915
117300
117551
117665
117802
117992
118157
118300
118333
118481
118634
118694
118607
118409
118216
117974
117747
95276.2
95280.3
95286.5
95293
95299.8
95305.9
95311.3
95316.6
95322
95327.2
95331.6
95336.7
95343.8
95352.8
95364.2
95378.4
95395.4
95416.4
95441.8
95471.8
95506.7
95546.5
95590.8
95639.2
95691.9
95750
95814.7
95886.6
95964.8
96048
96135.9
96228.2
96326.7
96434
96549.7
96672
96799.8
96932.7
97071.7
97217.6
97371.3
97531.5
97695.1
97860.6
98030.3
98205
98384.4
98574.6
98760.4
98948.1
99146
99349
99553.2
99759
99965.3
100171
100377
100582
100788
100997
101210
101427
101649
101877
102110
102347
102588
102833
103079
103330
103586
103847
104112
104379
104647
104914
105180
105445
105710
105972
106230
106487
106739
106987
107231
107469
107699
107918
108123
108312
108484
108647
108802
108948
109086
109212
109323
109420
109499
109562
109607
109634
109646
109636
109608
109561
109493
109405
109297
109169
109023
108855
108678
108483
108283
108075
107870
107664
107468
107281
107112
106957
106826
106719
106632
106572
106536
106519
106530
106559
106608
106682
106771
106879
107001
107136
107284
107436
107603
107768
107936
108104
108280
108465
108638
108835
109048
109257
109513
109812
110117
110386
110634
110891
111139
111380
111616
111866
112188
112574
113008
113464
113873
114267
114700
115019
115157
115319
115526
115759
115967
116125
116409
116642
116755
116750
116687
116625
116515
116480
94867.6
94871.2
94876.5
94881.9
94888.1
94894.4
94900.2
94905.9
94911.5
94916.3
94920.4
94925.3
94932
94940.8
94952.4
94967.3
94986
95009
95036.7
95069.8
95108
95151
95198.5
95251
95307.5
95368.7
95436.3
95512
95595
95682.9
95776
95874.1
95977.5
96088.3
96208.5
96338.2
96475.9
96620.6
96771
96927.5
97091
97262.8
97442
97625.7
97812.5
98002.9
98198.7
98401.7
98607
98816.1
99032.9
99256.6
99483.3
99711.9
99941.8
100172
100403
100635
100868
101103
101343
101587
101836
102094
102355
102620
102891
103165
103441
103722
104006
104295
104586
104878
105169
105458
105746
106033
106318
106602
106884
107165
107440
107708
107971
108227
108477
108717
108944
109153
109345
109522
109687
109840
109980
110109
110220
110314
110389
110444
110480
110497
110494
110471
110423
110354
110262
110145
110004
109841
109658
109451
109229
108988
108737
108475
108212
107948
107688
107439
107203
106981
106778
106599
106440
106305
106196
106106
106039
105993
105963
105955
105964
105989
106028
106077
106138
106205
106279
106352
106435
106516
106609
106709
106803
106934
107064
107202
107416
107647
107853
108043
108222
108412
108579
108760
108984
109209
109519
109937
110411
110878
111312
111732
112195
112568
112758
112947
113163
113458
113703
113979
114356
114638
114792
114860
114930
114975
115006
115140
94480.7
94483.4
94487.4
94491.7
94496.8
94502.7
94509.3
94515.8
94522.2
94528.1
94533.5
94539.2
94546.1
94555
94566.7
94582.5
94603.2
94628.7
94659.1
94694.5
94735.2
94780.6
94830.4
94885.3
94943.4
95006.1
95075.3
95154.5
95242.4
95334.6
95430.3
95532.4
95642.3
95760
95885.6
96020.6
96164.9
96318
96478.9
96646.9
96821.9
97004.3
97194.9
97393.4
97598.4
97806.8
98019.4
98238.1
98461.7
98689.7
98924.8
99167.5
99415.9
99667.2
99920.3
100175
100431
100688
100947
101209
101475
101746
102023
102306
102594
102888
103187
103490
103795
104103
104414
104727
105042
105355
105666
105975
106283
106590
106899
107206
107511
107815
108113
108402
108681
108951
109212
109464
109704
109929
110138
110330
110505
110663
110805
110932
111041
111130
111199
111246
111271
111274
111254
111212
111144
111050
110931
110784
110609
110410
110188
109940
109671
109386
109084
108770
108450
108130
107810
107498
107197
106910
106639
106391
106163
105958
105777
105618
105479
105362
105259
105177
105109
105058
105020
104992
104972
104963
104956
104954
104958
104964
104985
105004
105041
105108
105155
105250
105418
105568
105688
105815
105940
106044
106145
106285
106487
106741
107061
107473
107962
108445
108898
109332
109817
110230
110484
110702
110934
111271
111535
111913
112344
112643
112819
112962
113145
113290
113468
113741
94126.6
94129
94132.4
94135.6
94139.4
94144.7
94151.3
94158.6
94165.8
94173.1
94180.6
94188.1
94196.7
94207.1
94220.2
94237.6
94259.8
94286.6
94318.2
94354.4
94395.3
94441.1
94491.5
94546.4
94605.8
94669.5
94740.2
94820.9
94915.2
95011.5
95110.6
95213.3
95325.8
95450.8
95583.2
95724.7
95875.5
96034.7
96203.1
96380.9
96566.7
96760
96961
97170.3
97390.4
97616.1
97846.3
98082.7
98324.7
98570.8
98822.5
99083
99351.3
99624.5
99900.5
100179
100459
100741
101025
101312
101604
101900
102202
102510
102823
103142
103466
103793
104124
104457
104791
105126
105460
105792
106122
106451
106780
107110
107440
107768
108092
108414
108730
109036
109330
109613
109884
110145
110392
110625
110843
111045
111228
111391
111533
111656
111757
111838
111898
111935
111949
111938
111900
111837
111746
111625
111477
111299
111091
110855
110593
110305
109992
109661
109311
108947
108573
108198
107822
107450
107088
106739
106405
106092
105800
105529
105282
105057
104852
104669
104501
104352
104216
104096
103988
103892
103805
103724
103648
103581
103517
103461
103418
103372
103362
103364
103348
103413
103521
103591
103642
103701
103771
103813
103884
104028
104218
104506
104845
105230
105696
106185
106655
107092
107592
108032
108348
108596
108854
109204
109483
109937
110375
110675
110874
111078
111356
111611
111916
112298
93818.4
93819.8
93822.7
93825.3
93828
93831.7
93837.1
93843.8
93851.5
93859.9
93869.2
93879.2
93890.3
93903.4
93918.7
93937.3
93960.2
93987.3
94018.6
94054.3
94094.4
94138.9
94188.3
94243
94303.1
94368.7
94442.1
94524.9
94617.1
94715.3
94818.4
94927.2
95043.6
95169.7
95306.6
95453.4
95609.2
95773.7
95948.3
96133.9
96329.3
96533.2
96744.7
96964.2
97195.2
97435.4
97681.2
97934.4
98194.8
98459.8
98729.2
99005.7
99291.1
99583.9
99881.4
100182
100485
100791
101099
101409
101724
102044
102368
102699
103034
103374
103719
104068
104420
104773
105126
105479
105831
106181
106530
106879
107227
107576
107924
108266
108602
108934
109262
109579
109882
110174
110454
110723
110978
111216
111439
111645
111832
111995
112135
112251
112343
112413
112461
112485
112486
112460
112406
112321
112206
112059
111881
111671
111430
111158
110859
110530
110177
109801
109407
108995
108572
108145
107716
107290
106872
106466
106075
105703
105351
105021
104714
104429
104164
103921
103694
103486
103291
103112
102944
102789
102643
102503
102370
102247
102126
102017
101919
101828
101770
101708
101658
101693
101731
101725
101720
101724
101739
101759
101832
102003
102201
102499
102843
103203
103624
104101
104585
105025
105529
105988
106355
106632
106921
107256
107556
108053
108464
108750
108959
109217
109580
109940
110340
110800
93567.1
93567.6
93569.5
93571.5
93573.9
93576.6
93580.4
93585.7
93592.3
93600.3
93609.8
93620.8
93633.4
93648.1
93665.1
93684.8
93707.9
93734.7
93765.3
93799.8
93838.7
93882
93930.2
93984.2
94044.6
94111.7
94187
94270.6
94361.9
94459.7
94562.9
94673.5
94793.9
94923.7
95063.4
95213
95372.9
95542.2
95720.7
95910.9
96113.6
96327.4
96549.7
96779.6
97019.3
97270.3
97529.4
97797.2
98073.7
98356.2
98643
98936.3
99237.8
99547.5
99863.6
100184
100509
100836
101165
101498
101833
102174
102519
102868
103222
103580
103943
104310
104678
105048
105417
105785
106153
106519
106885
107249
107611
107972
108330
108681
109023
109361
109695
110018
110327
110622
110906
111178
111436
111677
111901
112106
112290
112450
112583
112691
112772
112830
112865
112876
112861
112819
112747
112642
112504
112332
112125
111885
111611
111306
110970
110604
110212
109796
109360
108906
108440
107965
107490
107014
106547
106090
105648
105223
104819
104437
104077
103738
103421
103125
102848
102589
102344
102116
101898
101694
101498
101310
101133
100963
100798
100645
100501
100378
100272
100152
100092
100087
100048
99976.2
99932.9
99905.1
99885.1
99905.6
99995
100178
100391
100689
101033
101379
101747
102193
102683
103131
103634
104102
104503
104805
105121
105424
105759
106256
106624
106887
107097
107402
107828
108267
108728
109238
93411.6
93411.8
93413.5
93415.1
93416.4
93418.2
93420.9
93424.6
93430
93436.8
93445.3
93455.7
93468.1
93482.4
93499.1
93518.3
93540.5
93566
93594.9
93628.2
93665.8
93707.9
93755.3
93808.9
93869.4
93937.1
94012.3
94095.2
94184.4
94279.8
94382.6
94493.6
94614.8
94746.9
94889.4
95040.6
95201.3
95373.7
95556.7
95749.7
95955.3
96174.1
96404.1
96642.3
96889.3
97147
97414.7
97692.1
97980.1
98275.5
98575.6
98882
99196.8
99520.1
99850.2
100186
100526
100869
101215
101564
101916
102272
102631
102994
103362
103733
104108
104486
104866
105247
105626
106006
106384
106761
107137
107510
107878
108243
108606
108961
109307
109647
109982
110308
110618
110912
111195
111465
111719
111956
112176
112376
112554
112706
112830
112927
112998
113044
113067
113065
113037
112979
112890
112768
112609
112415
112185
111919
111619
111286
110920
110525
110101
109654
109184
108696
108194
107684
107170
106656
106149
105651
105166
104699
104253
103829
103427
103047
102689
102353
102036
101737
101452
101185
100927
100685
100449
100229
100019
99809.8
99613.7
99424.8
99245.5
99094.3
98942
98783.7
98716
98659.3
98548.1
98439.5
98373
98316.9
98286.7
98314.6
98424.7
98602.6
98815.4
99105.5
99445.3
99788.1
100119
100523
100999
101452
101947
102415
102824
103141
103468
103735
104108
104568
104881
105110
105319
105657
106109
106592
107079
107617
93321.8
93323.2
93323.7
93325.4
93326
93327.2
93329
93331.7
93335.7
93341.2
93348.5
93357.7
93369
93382.3
93397.9
93416.1
93437.1
93461.2
93488.5
93520.4
93557.3
93598.8
93645.4
93698.4
93758.1
93825.2
93898.6
93978.4
94065.4
94159
94260.7
94372.1
94494
94626.6
94770.3
94924
95086.1
95258.9
95443.7
95638.9
95845.9
96066.5
96300.6
96544.5
96797.2
97059.7
97333
97616.5