/*--------------------------------*- C++ -*----------------------------------*\
| =========                 |                                                 |
| \\      /  F ield         | OpenFOAM: The Open Source CFD Toolbox           |
|  \\    /   O peration     | Version:  dev                                   |
|   \\  /    A nd           | Web:      http://www.openfoam.org               |
|    \\/     M anipulation  |                                                 |
\*---------------------------------------------------------------------------*/
FoamFile
{
    version     2.0;
    format      ascii;
    class       volScalarField;
    object      p_0;
    location    "9.124";
}
// * * * * * * * * * * * * * * * * * * * * * * * * * * * * * * * * * * * * * //

dimensions      [1 -1 -2 0 0 0 0];

internalField   nonuniform List<scalar> 
12225
(
100118
99998.5
99836.6
99640.3
99415.3
99174.3
98920
98668.6
98413.7
98169.4
97928.7
97692.5
97454.6
97217.6
96978.3
96716.1
96373.4
95904.9
100118
100003
99842.7
99646.8
99422.1
99181.1
98927.2
98675.6
98421.3
98176.9
97936.4
97700.2
97462
97222.4
96980.8
96719.2
96383.8
96129.3
100127
100016
99857.8
99662.3
99438.4
99197.7
98944.8
98693.2
98439.9
98195.8
97955.5
97719.6
97482.3
97242.3
97007.1
96737.4
96423.5
96169.8
100150
100041
99884.5
99689.6
99466.9
99227
98975.7
98724.4
98472.9
98229.4
97989.7
97754.4
97518.6
97283.5
97042.8
96779.2
96484.3
96249.9
100188
100081
99926.3
99732.3
99511.3
99272.8
99023.8
98773.3
98524.3
98281.5
98042.9
97809
97575.9
97343.6
97107.1
96852.2
96584.8
96381.7
100246
100141
99986.8
99794.8
99575.5
99339.7
99092.7
98844.7
98597.4
98356.8
98119.6
97888.8
97659.2
97432.3
97205.1
96972.9
96738.7
96526.4
100328
100225
100071
99881.9
99664.5
99432.6
99188.2
98943.8
98698.7
98461.4
98226.7
98000.1
97775.2
97555.6
97337.9
97123.4
96913.2
96711.6
100420
100321
100168
99982.6
99767.6
99539.7
99298.4
99057.6
98815.9
98581.5
98351
98127.5
97908.4
97694.4
97485.2
97279.5
97084.9
96896.1
100525
100425
100273
100092
99879.9
99655.8
99417.9
99180.8
98942.5
98711.5
98484.9
98264.9
98050.8
97842.1
97639.6
97442.6
97257.7
97078.3
100659
100562
100414
100236
100029
99809.4
99576.7
99343.7
99110.4
98883.4
98661.6
98445.6
98237.6
98034.7
97839.4
97650.4
97472.8
97302.7
100842
100744
100601
100429
100228
100014
99787.8
99560.3
99333
99111.3
98894.9
98684.5
98482.5
98285.6
98097.1
97915.2
97743.9
97581
101079
100985
100850
100683
100492
100284
100067
99846.2
99627
99411.6
99201.7
98998
98801.7
98611.4
98428.9
98253.7
98087.5
97929.7
101387
101301
101176
101018
100837
100639
100434
100223
100013
99805.7
99603.7
99406.8
99217.1
99033.1
98856.5
98686.7
98524.4
98369.3
101786
101715
101601
101456
101288
101104
100912
100714
100516
100319
100126
99937.4
99754.6
99576.8
99405.1
99239.3
99079.4
98925.6
102321
102252
102151
102021
101871
101704
101529
101347
101164
100980
100798
100619
100444
100272
100105
99941.5
99782.5
99628.1
102992
102932
102847
102737
102609
102465
102312
102151
101986
101818
101651
101483
101316
101151
100987
100826
100667
100511
103793
103760
103699
103617
103518
103404
103279
103145
103004
102858
102708
102555
102400
102243
102084
101925
101765
101605
104685
104666
104631
104581
104517
104439
104348
104247
104136
104017
103890
103755
103615
103468
103316
103160
103001
102838
105473
105482
105479
105463
105434
105392
105338
105271
105193
105102
104999
104885
104761
104627
104485
104334
104176
104013
106125
106156
106179
106192
106195
106187
106166
106131
106082
106019
105940
105846
105738
105617
105484
105339
105185
105023
106659
106698
106740
106778
106809
106830
106838
106832
106809
106770
106713
106638
106545
106436
106311
106173
106023
105862
107061
107120
107180
107239
107293
107338
107370
107387
107388
107369
107330
107271
107192
107093
106977
106845
106698
106539
107368
107441
107516
107591
107664
107728
107781
107818
107836
107834
107810
107764
107696
107607
107497
107370
107227
107069
107601
107682
107766
107855
107942
108022
108090
108142
108174
108185
108173
108137
108078
107996
107892
107769
107629
107473
107774
107857
107948
108046
108144
108236
108315
108379
108422
108443
108440
108411
108358
108282
108182
108062
107924
107770
107892
107979
108075
108180
108286
108386
108475
108546
108598
108626
108628
108606
108557
108485
108388
108271
108134
107980
107975
108061
108160
108269
108381
108487
108581
108659
108716
108749
108756
108737
108692
108622
108528
108412
108276
108122
108026
108111
108211
108324
108440
108550
108648
108730
108790
108826
108836
108820
108777
108708
108615
108500
108365
108212
108054
108138
108239
108354
108472
108585
108685
108769
108832
108870
108881
108866
108824
108756
108664
108550
108415
108262
108065
108148
108249
108366
108485
108599
108701
108785
108849
108887
108899
108885
108843
108776
108684
108570
108435
108283
94922.2
94926.7
94936.3
94950.8
94970.5
94995.2
95024.7
95058.8
95097.5
95140.5
95188
95240.1
95296.9
95358.6
95425.4
95497.4
95574.6
95657.4
95745.8
95839.6
95938.7
96043
96152.3
96266.6
96385.3
96508.5
96635.8
96766.8
96901.4
97038.8
97178.8
97321.2
97465.5
97611.1
97757.6
97904.6
98052.2
98200.1
98347.3
98493.5
98638
98780.7
98921.2
99059.4
99196
99331.1
99463.1
99591.1
99714.7
99833.9
99949.9
100063
100172
100273
100365
100450
100529
100603
100681
100744
100799
100858
100919
100972
101014
101056
101097
101138
101179
101216
101251
101286
101319
101353
101388
101423
101458
101493
101529
101564
101598
101631
101663
101693
101720
101745
101768
101788
101804
101812
101822
101829
101833
101834
101831
101825
101815
101803
101788
101769
101747
101721
101690
101656
101618
101575
101528
101478
101426
101373
101321
101274
101233
101204
101190
101194
101220
101272
101354
101473
101634
101840
102094
102396
102742
103134
103573
104065
104614
105221
105884
106608
107381
108222
109094
110022
110980
111978
113013
114079
115167
116269
117381
118504
119627
120750
121866
122967
124041
125066
126051
126978
127842
128630
129360
130035
130659
131210
131689
132096
132445
132736
132963
133145
133276
133307
133210
132939
132472
131849
131131
130330
129471
128456
127355
126167
124935
123702
122509
121344
94932.1
94936.9
94946.4
94960.8
94980.1
95004.3
95033.1
95066.4
95104.1
95146.1
95192.5
95243.4
95299
95359.5
95425.2
95495.9
95571.9
95653.6
95740.8
95833.4
95931.3
96034.6
96142.8
96255.8
96373.5
96495.6
96621.9
96752.1
96886.2
97022.9
97162.1
97303.6
97446.9
97591.6
97737.5
97884.3
98031.4
98178.8
98325.9
98472
98615.8
98758.3
98900.4
99038.7
99174.8
99310.2
99442.8
99571.3
99695.6
99815
99931.1
100045
100155
100256
100347
100434
100515
100592
100667
100736
100799
100860
100922
100981
101020
101067
101110
101153
101196
101236
101276
101314
101352
101390
101428
101467
101507
101546
101586
101625
101663
101700
101736
101769
101801
101829
101855
101878
101897
101911
101924
101933
101940
101943
101943
101939
101931
101922
101908
101890
101869
101843
101814
101779
101741
101697
101650
101599
101546
101491
101438
101388
101346
101314
101296
101296
101318
101366
101444
101558
101713
101915
102166
102464
102805
103191
103624
104110
104651
105252
105907
106623
107387
108217
109082
109997
110947
111932
112951
114003
115078
116165
117261
118366
119472
120576
121673
122754
123812
124819
125784
126694
127544
128321
129041
129706
130321
130867
131339
131742
132083
132370
132589
132757
132894
132945
132875
132640
132190
131579
130871
130074
129222
128254
127177
126006
124796
123590
122414
121257
94950.9
94955.6
94964.6
94978.4
94996.9
95020
95047.4
95079
95114.8
95154.8
95199
95247.7
95301.1
95359.5
95422.9
95491.5
95565.3
95644.7
95729.6
95819.9
95915.7
96016.7
96122.7
96233.5
96349
96469.1
96593.3
96721.7
96854
96988.8
97126.2
97266
97407.9
97551.4
97696.1
97842
97989.2
98135.9
98281.8
98429.7
98573.8
98716.2
98858.1
98996
99133.1
99271.2
99401.8
99530.4
99657.2
99778.1
99895.5
100011
100120
100220
100312
100399
100481
100562
100648
100728
100800
100871
100929
100988
101040
101091
101139
101187
101234
101281
101326
101372
101418
101464
101510
101557
101604
101651
101698
101745
101790
101835
101878
101919
101958
101994
102026
102056
102079
102102
102120
102136
102148
102156
102160
102161
102158
102151
102141
102127
102108
102085
102057
102025
101987
101944
101896
101844
101789
101733
101676
101624
101578
101541
101517
101509
101523
101562
101630
101734
101880
102071
102310
102598
102929
103302
103722
104196
104724
105311
105951
106650
107394
108204
109052
109946
110876
111836
112824
113843
114889
115948
117014
118087
119159
120227
121287
122331
123354
124329
125258
126133
126955
127709
128407
129051
129643
130175
130639
131036
131364
131639
131848
131992
132126
132205
132174
132009
131606
131038
130346
129560
128720
127818
126791
125663
124515
123363
122217
121076
94975.8
94980.6
94989.2
95002.2
95019.7
95041.4
95066.7
95095.7
95128.4
95165.1
95206.1
95251.6
95301.9
95357.1
95417.5
95483.1
95554
95630.1
95711.8
95799
95891.6
95989.4
96092.2
96199.6
96311.8
96428.6
96549.6
96674.8
96803.9
96935.9
97070.6
97208
97347.8
97489.1
97631.4
97775.7
97927.5
98072.1
98217.5
98363.6
98508.4
98651.1
98792.9
98930.7
99071
99212.6
99342.8
99474.2
99606.7
99726.1
99846.3
99966
100074
100174
100266
100355
100439
100520
100627
100720
100794
100867
100936
101003
101064
101123
101181
101237
101293
101348
101404
101460
101516
101573
101630
101688
101746
101804
101862
101920
101976
102032
102086
102138
102187
102232
102274
102311
102345
102375
102402
102425
102444
102458
102469
102476
102477
102475
102469
102458
102442
102422
102397
102366
102330
102288
102240
102189
102133
102076
102017
101961
101911
101871
101841
101823
101824
101851
101908
101998
102127
102302
102523
102792
103105
103461
103864
104319
104828
105395
106012
106685
107401
108184
109002
109864
110764
111683
112636
113606
114603
115614
116635
117662
118690
119709
120718
121708
122681
123612
124496
125327
126111
126836
127508
128122
128672
129178
129626
130016
130332
130595
130808
130941
131051
131140
131144
131057
130731
130228
129565
128806
127998
127155
126194
125156
124102
123018
121913
120802
95002.9
95007.6
95016.4
95029
95045.4
95064.9
95087
95112.2
95141
95173.9
95211.3
95253.3
95300
95351.5
95408.2
95470.2
95537.5
95610.1
95687.9
95771
95859.2
95952.3
96050.2
96152.9
96260.7
96372.9
96489.6
96610.8
96735.7
96864
96995.8
97130.7
97268.2
97407.4
97548.6
97692.2
97837.5
97983.3
98129.3
98275
98420.3
98565.6
98709.7
98851
98991.3
99130.7
99266.6
99406.9
99535.4
99661.2
99786.8
99906.8
100020
100123
100219
100315
100409
100503
100602
100697
100786
100870
100950
101025
101097
101167
101236
101305
101373
101441
101510
101579
101649
101720
101791
101864
101936
102008
102081
102153
102224
102294
102362
102427
102490
102548
102602
102651
102696
102737
102773
102805
102832
102854
102872
102885
102892
102895
102892
102885
102872
102853
102828
102797
102760
102717
102669
102615
102558
102498
102437
102377
102322
102276
102239
102215
102207
102220
102264
102339
102446
102597
102796
103040
103328
103663
104043
104476
104960
105500
106084
106727
107405
108148
108930
109745
110602
111472
112375
113292
114231
115180
116139
117100
118067
119024
119973
120898
121806
122682
123519
124302
125038
125729
126370
126954
127465
127934
128353
128721
129023
129270
129495
129642
129735
129814
129844
129816
129579
129146
128549
127840
127084
126304
125439
124513
123552
122526
121489
120454
95028.1
95032.8
95041.3
95053
95067.4
95083.8
95102.5
95124.3
95149.9
95179.6
95213.3
95251.5
95294.8
95342.9
95396
95453.8
95516.3
95583.3
95655.2
95731.9
95813.7
95900.8
95993.1
96090.6
96193.4
96301
96413.4
96530
96650.5
96775.1
96903.7
97035.8
97170.7
97307.9
97447.5
97589.3
97732.6
97876.4
98021.1
98166.8
98313.5
98459.8
98605.8
98751.5
98895.2
99036.5
99176.6
99316.9
99451.9
99586
99715.2
99838.8
99958.5
100072
100179
100283
100386
100488
100590
100691
100788
100882
100972
101058
101142
101226
101309
101392
101476
101560
101645
101730
101817
101904
101993
102082
102171
102261
102350
102440
102528
102615
102700
102782
102861
102934
103004
103068
103126
103179
103228
103271
103308
103338
103364
103385
103399
103407
103410
103406
103396
103379
103355
103323
103285
103239
103186
103127
103064
102998
102931
102864
102800
102743
102696
102662
102646
102647
102675
102734
102824
102950
103119
103333
103592
103899
104252
104658
105110
105617
106162
106760
107397
108088
108825
109584
110387
111201
112042
112894
113764
114644
115534
116423
117316
118200
119076
119934
120770
121577
122353
123089
123775
124420
125015
125567
126054
126490
126875
127214
127493
127710
127930
128104
128201
128277
128327
128334
128178
127830
127318
126682
125995
125304
124563
123749
122865
121910
120971
120036
95046.8
95051.4
95059.2
95069.3
95081.2
95095
95111.3
95130.8
95153.6
95180.2
95211.1
95246.5
95286.4
95329.9
95376.6
95427.1
95481.9
95541.6
95606.7
95677.3
95753.4
95835.1
95922.1
96014.5
96112.1
96214.6
96321.8
96433.6
96549.7
96670.2
96794.9
96923.5
97055.6
97191
97328.9
97469.3
97611.2
97754.3
97898.2
98042.7
98193.2
98338.9
98486.3
98635.5
98783.6
98929.3
99074.2
99217.3
99356.3
99500.5
99634.7
99766.2
99894.4
100018
100138
100254
100367
100478
100587
100694
100800
100902
101003
101103
101202
101301
101400
101501
101602
101704
101807
101911
102016
102122
102229
102337
102446
102554
102663
102771
102879
102985
103088
103188
103285
103377
103464
103546
103622
103691
103754
103812
103862
103903
103937
103967
103990
104004
104011
104012
104006
103991
103968
103936
103895
103846
103788
103723
103651
103576
103497
103418
103341
103270
103208
103157
103125
103110
103119
103160
103233
103340
103482
103664
103888
104160
104478
104852
105263
105729
106231
106777
107368
107997
108680
109380
110116
110863
111633
112413
113207
114009
114823
115637
116451
117257
118052
118835
119597
120331
121033
121710
122352
122951
123489
123998
124467
124875
125226
125534
125796
125991
126191
126381
126488
126565
126635
126666
126577
126313
125885
125348
124749
124152
123541
122845
122060
121227
120403
119559
95055.8
95059.9
95066.7
95075.2
95085.3
95097.2
95111.5
95128.8
95149.3
95173.9
95202.3
95232.9
95265.1
95300.6
95340.3
95385
95434.7
95489.2
95548.6
95613
95682.4
95757.1
95837.5
95923.8
96015.4
96112.2
96214
96320.7
96432
96548.2
96668.9
96794.1
96923.4
97056.3
97192.7
97332.1
97473.6
97617.1
97762.6
97909.3
98057.5
98205.7
98355
98507.2
98659.9
98811.3
98961.3
99109.6
99256.4
99405.1
99547.8
99689
99828.1
99963.7
100095
100223
100347
100468
100586
100703
100818
100932
101046
101161
101276
101392
101510
101630
101750
101871
101993
102116
102240
102366
102493
102621
102750
102879
103008
103137
103264
103390
103513
103632
103748
103858
103964
104066
104161
104249
104329
104404
104472
104530
104577
104618
104652
104674
104687
104692
104691
104677
104654
104621
104578
104525
104461
104389
104307
104220
104128
104034
103938
103849
103766
103695
103631
103600
103590
103607
103653
103738
103856
104010
104203
104434
104712
105045
105410
105826
106281
106771
107310
107877
108492
109125
109785
110457
111148
111850
112565
113286
114021
114751
115482
116207
116919
117622
118302
118961
119591
120203
120801
121355
121837
122288
122727
123105
123427
123708
123956
124148
124337
124538
124649
124725
124809
124858
124827
124637
124291
123850
123346
122885
122400
121828
121174
120484
119770
119007
95052.7
95056.4
95062.2
95069.4
95077.8
95088.2
95101
95116.6
95135.6
95156.5
95177.7
95201.2
95229.1
95260.7
95295.8
95334.6
95377.2
95423.9
95475.3
95531.5
95593.2
95660.9
95734.7
95814.6
95900.9
95993.2
96090.7
96192.8
96299.8
96411.9
96529
96650.9
96777.5
96908.4
97043
97181
97322.4
97467.3
97614.5
97762.9
97912.8
98063.5
98215
98371.9
98529
98684.9
98840.3
98995.4
99150.3
99304.8
99456.5
99608.3
99758.3
99905.6
100049
100189
100325
100457
100587
100715
100843
100971
101100
101231
101364
101500
101637
101776
101915
102056
102198
102341
102486
102634
102783
102933
103084
103235
103386
103537
103686
103833
103975
104114
104248
104377
104501
104620
104732
104839
104937
105028
105113
105191
105257
105310
105357
105392
105415
105426
105429
105418
105394
105361
105315
105257
105186
105105
105013
104912
104803
104693
104576
104465
104358
104258
104174
104115
104076
104066
104082
104135
104223
104344
104508
104704
104938
105225
105543
105902
106306
106735
107213
107714
108250
108811
109388
109984
110594
111215
111851
112489
113140
113785
114429
115070
115694
116316
116913
117495
118055
118607
119153
119653
120089
120481
120870
121207
121497
121755
121998
122203
122395
122607
122722
122796
122891
122954
122970
122844
122581
122216
121817
121519
121183
120739
120205
119645
119035
118361
95036.6
95039.7
95044.7
95050.7
95058
95067
95078.5
95092.4
95107.3
95122.8
95140
95160.1
95182.5
95206.9
95234.7
95266.1
95301.5
95341.4
95385.9
95436
95491.4
95552.5
95619.3
95693
95773.8
95861.1
95954.1
96052.2
96155.4
96263.7
96377.5
96496.6
96621.2
96750.2
96883.4
97020.9
97162.8
97308.5
97456.8
97607.7
97760.7
97915
98070.8
98229
98396.8
98555.7
98716.1
98877.9
99040.3
99200.9
99362.1
99525.5
99687.7
99846.8
100002
100154
100302
100448
100590
100732
100874
101018
101165
101314
101466
101621
101779
101937
102097
102257
102420
102586
102755
102926
103099
103274
103449
103624
103799
103973
104144
104312
104476
104635
104788
104936
105078
105213
105341
105462
105577
105683
105782
105873
105956
106023
106080
106128
106163
106182
106189
106184
106162
106128
106079
106016
105939
105847
105744
105629
105501
105372
105233
105100
104963
104844
104734
104642
104569
104525
104507
104523
104574
104655
104780
104939
105131
105365
105638
105939
106286
106653
107059
107489
107944
108433
108927
109449
109977
110516
111070
111626
112191
112749
113306
113858
114396
114936
115448
115959
116456
116948
117424
117860
118255
118596
118925
119215
119470
119707
119954
120181
120383
120608
120738
120816
120913
120989
121040
120977
120799
120515
120235
120068
119872
119556
119130
118681
118179
117614
95006.4
95009.1
95013.5
95018.6
95025
95033.1
95042.9
95053.4
95063.8
95074.8
95087.6
95102.2
95118.1
95136.6
95158.6
95184.3
95214.1
95248
95287.1
95331.2
95380.3
95434.7
95495
95562.1
95636.3
95717.9
95806.7
95901.3
96001
96106.1
96216.8
96333.5
96456.3
96584.2
96716.7
96853.7
96995.4
97142
97293.4
97448.2
97604.2
97761.7
97922.4
98086.1
98258
98423.7
98591.1
98760.3
98928.6
99097.1
99267.9
99443.1
99615.7
99787
99955.6
100121
100282
100441
100598
100755
100914
101075
101239
101407
101579
101755
101933
102113
102293
102475
102661
102851
103045
103241
103439
103639
103839
104039
104238
104434
104628
104819
105004
105184
105358
105526
105686
105839
105982
106116
106242
106362
106473
106575
106669
106748
106815
106872
106915
106941
106951
106950
106930
106894
106844
106775
106692
106591
106476
106347
106202
106050
105893
105731
105576
105427
105287
105160
105055
104970
104916
104889
104898
104938
105015
105129
105276
105452
105676
105917
106203
106508
106841
107200
107581
107992
108410
108855
109300
109760
110226
110698
111177
111647
112119
112583
113042
113499
113929
114374
114811
115241
115637
116003
116346
116643
116908
117158
117389
117609
117864
118115
118323
118560
118723
118817
118907
118995
119078
119071
118971
118774
118629
118571
118481
118269
117942
117602
117213
116780
94963.1
94964.7
94968.8
94972.8
94977.9
94984.5
94991.6
94998.1
95004.7
95012.2
95020.7
95029.7
95040.1
95053.6
95070.2
95090.3
95114.1
95142.7
95176.7
95215.6
95259.9
95309.8
95365.7
95427.4
95495.7
95571.7
95655.5
95746.4
95843
95945.1
96052.6
96166.2
96286.7
96414
96546.4
96683.4
96825.1
96972.2
97125.4
97283.9
97445.3
97608.8
97774.2
97942.6
98115.1
98289.1
98465
98642.2
98818.7
98996.3
99177.2
99361.9
99546.6
99730.8
99911.5
100090
100266
100440
100613
100787
100962
101141
101324
101511
101703
101900
102099
102300
102502
102707
102918
103132
103350
103571
103794
104017
104241
104464
104685
104904
105120
105333
105539
105740
105935
106123
106304
106479
106641
106789
106926
107055
107175
107286
107387
107476
107550
107613
107660
107691
107703
107702
107683
107644
107590
107516
107425
107315
107188
107044
106885
106714
106535
106348
106166
105985
105814
105651
105512
105387
105292
105221
105185
105181
105206
105270
105367
105487
105654
105837
106056
106298
106563
106852
107160
107491
107838
108198
108566
108947
109324
109713
110105
110491
110880
111260
111641
112016
112375
112759
113135
113496
113816
114115
114394
114644
114850
115059
115280
115502
115758
116026
116245
116493
116695
116818
116903
116997
117109
117150
117122
117017
117001
117032
117018
116889
116658
116425
116147
115868
94908.9
94910.1
94913.7
94916.8
94920.6
94924.8
94928.6
94931.8
94935.1
94938.7
94941.8
94945.5
94951.1
94959.2
94970.3
94984.9
95003.6
95027.6
95056.8
95091.6
95132.4
95179.2
95231.8
95290
95353.9
95424.8
95503.6
95590.6
95684.7
95784.4
95889.3
95999.4
96115.9
96240.8
96373.2
96511.8
96655.4
96803.7
96957.5
97117.1
97282.8
97453.4
97626.8
97800.4
97976.8
98156.6
98339.7
98524.9
98710.6
98898.5
99090.3
99285.6
99482
99678.1
99872.7
100065
100256
100446
100635
100825
101019
101216
101418
101625
101836
102052
102274
102497
102722
102950
103184
103422
103664
103908
104152
104397
104641
104884
105125
105365
105601
105835
106065
106290
106511
106725
106927
107115
107291
107453
107601
107741
107871
107989
108100
108194
108273
108338
108386
108417
108430
108426
108405
108364
108303
108222
108121
108000
107860
107701
107527
107334
107136
106924
106713
106501
106297
106099
105920
105757
105620
105503
105419
105368
105343
105353
105397
105463
105568
105693
105846
106024
106223
106442
106680
106934
107206
107481
107776
108074
108370
108678
108985
109293
109599
109899
110207
110506
110807
111130
111442
111730
111975
112214
112426
112610
112786
112951
113153
113395
113665
113939
114172
114434
114675
114830
114920
115021
115150
115238
115270
115258
115356
115456
115488
115426
115300
115169
115002
114879
94847.8
94848.1
94850.9
94853.2
94855.8
94857.5
94858.3
94858.7
94858.8
94857.9
94856.2
94855.3
94856.3
94859.5
94865.8
94875.7
94890
94909.2
94933.8
94964.6
95001.8
95045.2
95094.6
95150.3
95211.3
95278
95352.1
95435.6
95527.4
95625.1
95727.9
95836
95949.7
96071.1
96201.2
96339.7
96485.3
96636.9
96793.5
96955.3
97122.9
97297
97476.7
97659.1
97843.2
98029.4
98218.9
98412.1
98607.1
98804.5
99006.7
99213.5
99421.9
99630.5
99838.6
100046
100252
100458
100664
100872
101084
101299
101519
101745
101976
102213
102455
102700
102948
103199
103455
103715
103978
104243
104507
104771
105033
105295
105556
105816
106073
106328
106578
106821
107057
107287
107507
107716
107911
108089
108252
108402
108540
108665
108777
108877
108959
109025
109073
109102
109112
109105
109080
109032
108964
108875
108764
108627
108471
108297
108105
107894
107672
107437
107197
106954
106716
106484
106264
106062
105880
105719
105587
105485
105410
105366
105355
105367
105411
105479
105567
105681
105813
105965
106132
106315
106511
106712
106930
107144
107369
107597
107823
108061
108288
108518
108756
108985
109236
109502
109745
109958
110135
110314
110461
110576
110732
110871
111049
111309
111606
111889
112129
112408
112682
112868
112976
113086
113222
113357
113431
113510
113698
113845
113909
113906
113883
113843
113794
113816
94785.8
94785
94786.7
94787.3
94787.6
94786.9
94785.3
94783.1
94780.2
94776.3
94771.4
94766.9
94763.9
94762.8
94764.6
94770.4
94780.6
94795.9
94817.1
94844.4
94878.4
94918.7
94964.7
95016.9
95074.3
95136.3
95202.3
95284.4
95374.9
95470.1
95569
95674.5
95787.6
95908.4
96037.2
96174.6
96320.3
96473.5
96632.9
96797.9
96968.9
97146.3
97329.7
97518.8
97712
97907.2
98104.7
98306.1
98510.5
98717.4
98929
99146.3
99367
99588.8
99810.7
100033
100255
100477
100700
100925
101155
101388
101627
101871
102122
102378
102640
102906
103175
103448
103725
104005
104287
104569
104850
105131
105412
105692
105972
106250
106527
106802
107071
107330
107580
107821
108054
108275
108484
108677
108854
109016
109162
109292
109408
109508
109589
109653
109697
109722
109729
109714
109680
109627
109550
109450
109328
109179
109007
108816
108604
108373
108126
107868
107600
107326
107054
106789
106530
106286
106061
105856
105675
105523
105397
105300
105234
105193
105177
105187
105215
105265
105333
105418
105517
105633
105755
105890
106031
106173
106327
106481
106636
106804
106962
107135
107299
107471
107677
107883
108051
108197
108325
108430
108519
108593
108720
108855
109033
109294
109606
109902
110155
110437
110738
110952
111084
111208
111350
111524
111625
111789
112041
112208
112290
112345
112415
112464
112540
112690
94730.6
94729.4
94729.1
94727.9
94726.3
94723.6
94719.5
94714.4
94708.4
94701.7
94694.4
94687
94680.7
94676.3
94674.5
94676.7
94683.6
94695.7
94713.5
94737
94766.5
94802
94843.1
94889.9
94942.1
94999.7
95064.9
95141.4
95229.7
95323.3
95420.3
95522.2
95632.8
95753.1
95882.3
96020.1
96166.1
96319.8
96481
96649
96823.5
97004.1
97190.8
97384.3
97584.9
97789.1
97996
98206.9
98421.5
98638.3
98858.8
99085.5
99317.6
99552.6
99788.6
100025
100263
100502
100742
100984
101231
101482
101738
102000
102269
102543
102822
103107
103396
103688
103983
104280
104578
104876
105173
105470
105768
106066
106365
106661
106955
107247
107532
107806
108067
108318
108559
108789
109005
109206
109392
109562
109715
109850
109966
110063
110141
110200
110241
110261
110263
110243
110201
110136
110046
109933
109797
109635
109447
109237
109006
108754
108484
108200
107905
107602
107297
106997
106701
106418
106151
105902
105675
105474
105299
105151
105030
104935
104863
104817
104787
104778
104784
104806
104841
104891
104948
105018
105090
105168
105256
105343
105439
105538
105637
105757
105853
105981
106144
106279
106380
106465
106546
106585
106624
106686
106794
106947
107139
107389
107690
107996
108265
108542
108863
109105
109263
109404
109555
109749
109870
110110
110384
110556
110656
110761
110917
111063
111252
111510
94692.2
94689.7
94687.9
94684.8
94680.8
94675.6
94669.1
94661.1
94651.9
94642.2
94632.3
94622.6
94613.8
94607
94602.5
94601.4
94605
94613.4
94626.8
94645.5
94669.4
94698.8
94734.1
94775.6
94823.5
94878
94941.2
95014.6
95098
95188.5
95284.2
95385.6
95494.3
95612.2
95740.5
95878.2
96023.9
96177.4
96339.5
96510.1
96688.1
96872.7
97063.2
97260.4
97465.9
97677.7
97893.1
98113.4
98338.7
98566.6
98797.1
99032.8
99274.9
99521.9
99771.7
100023
100276
100531
100787
101046
101309
101577
101849
102128
102412
102702
102998
103299
103604
103912
104222
104533
104846
105158
105471
105784
106098
106413
106727
107036
107340
107641
107936
108220
108490
108749
108996
109232
109454
109660
109850
110024
110180
110315
110429
110522
110594
110647
110681
110695
110690
110663
110611
110535
110434
110307
110156
109977
109774
109545
109294
109020
108728
108419
108098
107767
107431
107097
106767
106446
106139
105849
105579
105332
105110
104912
104741
104594
104469
104368
104285
104220
104169
104134
104111
104100
104099
104107
104119
104140
104168
104194
104238
104278
104328
104390
104437
104529
104639
104700
104746
104778
104805
104808
104826
104898
105004
105174
105375
105606
105875
106179
106467
106742
107071
107338
107527
107686
107848
108036
108178
108478
108739
108901
109011
109164
109402
109644
109924
110266
94681.4
94677.4
94673.2
94667.3
94660.3
94652.2
94642.6
94631.8
94619.7
94606.8
94593.9
94581.5
94570.1
94560.5
94553.3
94549
94548.7
94552.7
94561.2
94574.3
94592.6
94616.4
94646.1
94682.8
94726.9
94778.7
94839.5
94909.6
94988.3
95074.3
95166.1
95265.3
95373.6
95490.9
95617.4
95753.3
95898.4
96051.4
96212.8
96383.9
96564.7
96753.9
96949.4
97150.8
97359.8
97577.1
97799.8
98028.5
98263.4
98502
98743.2
98989.2
99241
99498.7
99760.7
100026
100293
100563
100835
101110
101388
101670
101958
102251
102549
102853
103163
103478
103796
104117
104440
104764
105089
105415
105742
106068
106394
106720
107043
107360
107668
107973
108274
108563
108838
109099
109350
109589
109812
110019
110210
110382
110536
110668
110776
110863
110927
110971
110997
111003
110989
110952
110891
110804
110691
110551
110383
110189
109968
109721
109451
109157
108843
108511
108166
107808
107445
107080
106719
106363
106020
105691
105381
105092
104826
104583
104366
104170
103997
103845
103712
103596
103494
103407
103331
103268
103213
103169
103128
103101
103075
103052
103046
103041
103044
103048
103066
103123
103166
103160
103162
103155
103141
103129
103153
103242
103354
103534
103738
103953
104180
104465
104767
105049
105377
105662
105877
106051
106226
106390
106561
106889
107117
107261
107373
107572
107877
108197
108548
108949
94704.3
94699.3
94693.4
94684.8
94673.8
94661.6
94648.3
94633.8
94618.6
94602.7
94586.9
94571.6
94557.3
94544.5
94534
94526.2
94521.8
94521.2
94524.9
94533.7
94547.8
94567.5
94593.5
94626.8
94668.1
94717.7
94775.9
94842.8
94916.9
94997.8
95086.1
95182.8
95289.2
95406.1
95532.4
95666.7
95809.7
95962.5
96124.1
96294.7
96475.7
96666.8
96866
97071.4
97283.7
97503.9
97731.3
97965.5
98207.3
98454.2
98703.9
98958.6
99218.7
99485.3
99756.8
100032
100311
100593
100877
101164
101454
101749
102048
102352
102661
102975
103295
103619
103947
104277
104609
104943
105277
105612
105948
106282
106613
106942
107270
107591
107902
108208
108511
108802
109077
109337
109586
109822
110042
110244
110430
110598
110745
110870
110970
111047
111103
111138
111155
111152
111128
111082
111011
110913
110789
110636
110455
110247
110011
109750
109462
109152
108820
108470
108105
107727
107341
106951
106563
106180
105807
105446
105102
104778
104476
104196
103939
103704
103491
103296
103122
102963
102818
102687
102566
102459
102360
102274
102193
102122
102055
101990
101943
101900
101859
101818
101811
101825
101799
101748
101717
101680
101646
101630
101672
101765
101881
102061
102267
102475
102668
102920
103220
103506
103829
104119
104346
104528
104706
104838
105044
105362
105545
105660
105773
106008
106354
106727
107121
107559
94741.5
94737.3
94728.9
94718.3
94704.1
94688.3
94671.3
94653.4
94634.7
94615.7
94596.9
94578.7
94561.7
94546.1
94532.7
94521.9
94514.2
94510.2
94510.3
94515.7
94527.2
94544.2
94567.6
94598.5
94637.4
94684.8
94739.6
94802.1
94872.3
94949.6
95034.9
95129.8
95235
95350.4
95476.4
95610.8
95753
95904.5
96065.7
96235.7
96415.9
96606.9
96808
97016.3
97231.3
97453.7
97684.1
97921.7
98167.6
98420.3