/*--------------------------------*- C++ -*----------------------------------*\
| =========                 |                                                 |
| \\      /  F ield         | OpenFOAM: The Open Source CFD Toolbox           |
|  \\    /   O peration     | Version:  dev                                   |
|   \\  /    A nd           | Web:      http://www.openfoam.org               |
|    \\/     M anipulation  |                                                 |
\*---------------------------------------------------------------------------*/
FoamFile
{
    version     2.0;
    format      ascii;
    class       surfaceScalarField;
    object      phi_0;
    location    "9.124";
}
// * * * * * * * * * * * * * * * * * * * * * * * * * * * * * * * * * * * * * //

dimensions      [1 0 -1 0 0 0 0];

internalField   nonuniform List<scalar> 
24170
(
2.22589e-06
2.75287e-06
1.30369e-06
2.17799e-06
9.71765e-07
1.54783e-06
8.60568e-07
1.28946e-06
9.17101e-07
1.08598e-06
9.89296e-07
1.0408e-06
1.15814e-06
9.00222e-07
1.37756e-06
8.18219e-07
1.56715e-06
7.987e-07
1.91298e-06
6.11381e-07
2.12578e-06
6.99061e-07
2.71967e-06
2.70694e-07
3.15041e-06
3.94607e-07
4.19542e-06
-2.70999e-07
4.78e-06
1.49162e-07
8.14542e-06
-2.68459e-06
1.21418e-05
-3.39077e-06
-3.56275e-07
1.30976e-05
3.86903e-06
4.23682e-06
3.1779e-06
4.24853e-06
2.66925e-06
3.39971e-06
2.26395e-06
2.99659e-06
2.06635e-06
2.54687e-06
1.92884e-06
2.40791e-06
1.98041e-06
2.03061e-06
1.9691e-06
1.97428e-06
2.21836e-06
1.64023e-06
2.45688e-06
1.42532e-06
2.92696e-06
1.22814e-06
3.55418e-06
5.92204e-07
3.98111e-06
8.65744e-07
5.15499e-06
-5.9667e-07
6.16438e-06
-6.48115e-08
8.95037e-06
-4.74356e-06
9.19352e-06
-3.0258e-06
9.74747e-07
8.43742e-06
4.71367e-06
5.3297e-06
4.52698e-06
5.95435e-06
4.30498e-06
5.09948e-06
4.01132e-06
4.71952e-06
3.77815e-06
4.16962e-06
3.64834e-06
3.88504e-06
3.5958e-06
3.38613e-06
3.69693e-06
3.12858e-06
3.78372e-06
2.75949e-06
4.33124e-06
2.03215e-06
4.32507e-06
2.33744e-06
5.21038e-06
7.48227e-07
5.20659e-06
1.86126e-06
6.0607e-06
-5.14989e-07
6.41308e-06
4.62719e-07
7.71038e-06
-5.23685e-06
8.27562e-06
-2.89561e-06
8.83389e-07
9.03042e-06
5.0766e-06
6.69633e-06
5.43388e-06
7.25853e-06
5.32064e-06
6.83553e-06
5.51929e-06
6.08191e-06
5.24076e-06
5.97219e-06
5.51209e-06
5.0827e-06
5.30919e-06
5.01639e-06
5.66522e-06
4.14104e-06
5.4218e-06
4.3229e-06
5.98733e-06
2.72443e-06
5.69487e-06
3.83718e-06
6.28874e-06
1.29416e-06
6.27434e-06
2.96432e-06
6.96445e-06
-1.80819e-07
6.67279e-06
1.72271e-06
7.5906e-06
-5.26207e-06
8.31449e-06
-2.82616e-06
-1.65259e-07
1.00925e-05
5.3019e-06
8.79392e-06
6.16086e-06
8.21193e-06
5.89976e-06
8.87279e-06
6.42873e-06
7.25822e-06
6.05342e-06
8.01617e-06
6.44626e-06
6.29797e-06
6.17874e-06
6.84568e-06
6.64747e-06
5.17161e-06
6.35546e-06
6.0575e-06
6.8238e-06
3.63465e-06
6.67124e-06
5.30878e-06
7.17119e-06
2.04419e-06
7.26623e-06
4.05964e-06
7.88539e-06
3.223e-07
8.12946e-06
2.53609e-06
7.95656e-06
-4.10219e-06
7.0865e-06
-1.05497e-06
-7.91087e-07
8.51854e-06
5.75719e-06
1.07987e-05
6.28403e-06
9.66184e-06
5.94046e-06
1.11524e-05
6.45356e-06
8.60478e-06
6.16869e-06
1.01222e-05
6.55429e-06
7.66731e-06
6.38554e-06
8.71802e-06
6.88278e-06
6.31083e-06
6.83765e-06
7.6775e-06
7.33633e-06
4.64103e-06
7.42839e-06
6.65598e-06
7.90615e-06
2.9302e-06
8.18094e-06
5.0824e-06
8.62755e-06
1.09685e-06
9.06879e-06
3.24428e-06
7.8645e-06
-1.81869e-06
6.66961e-06
1.14098e-06
-9.82551e-07
7.7692e-06
6.54393e-06
1.31209e-05
6.71204e-06
1.16337e-05
6.47618e-06
1.34848e-05
6.86433e-06
1.02297e-05
6.70582e-06
1.22536e-05
7.14942e-06
9.12437e-06
7.05274e-06
1.06596e-05
7.55697e-06
7.58043e-06
7.73936e-06
9.20502e-06
8.07798e-06
5.93527e-06
8.5365e-06
7.75959e-06
8.75933e-06
4.18842e-06
9.25206e-06
5.99768e-06
9.32139e-06
2.3533e-06
9.67013e-06
4.14622e-06
8.71679e-06
3.06609e-07
8.59862e-06
2.356e-06
1.22632e-07
8.5098e-06
5.21116e-06
1.46969e-05
5.33048e-06
1.31494e-05
5.23486e-06
1.51813e-05
5.41945e-06
1.15849e-05
5.37511e-06
1.38084e-05
5.63904e-06
1.03166e-05
5.6505e-06
1.20611e-05
5.88833e-06
8.7042e-06
6.10171e-06
1.03037e-05
6.25905e-06
7.03118e-06
6.63746e-06
8.58004e-06
6.68178e-06
5.27965e-06
7.10002e-06
6.658e-06
7.02172e-06
3.44956e-06
7.40977e-06
4.7187e-06
6.88891e-06
1.72815e-06
7.1538e-06
2.93531e-06
1.33444e-06
6.72415e-06
6.13385e-06
1.6469e-05
6.15545e-06
1.49939e-05
6.09174e-06
1.70684e-05
6.1162e-06
1.33208e-05
6.27611e-06
1.53739e-05
6.37548e-06
1.18799e-05
6.63092e-06
1.34192e-05
6.7245e-06
1.01677e-05
7.06757e-06
1.14581e-05
7.16726e-06
8.36374e-06
7.60168e-06
9.51265e-06
7.59775e-06
6.57924e-06
8.08153e-06
7.40369e-06
7.91575e-06
4.77895e-06
8.35479e-06
5.37285e-06
7.88684e-06
3.22372e-06
8.23559e-06
3.54823e-06
2.53105e-06
7.93308e-06
7.3829e-06
1.84759e-05
7.2217e-06
1.72675e-05
7.27834e-06
1.90699e-05
7.12661e-06
1.54669e-05
7.39906e-06
1.70496e-05
7.36289e-06
1.37936e-05
7.69291e-06
1.49116e-05
7.71143e-06
1.191e-05
8.09969e-06
1.27581e-05
8.16537e-06
9.9168e-06
8.68046e-06
1.05368e-05
8.63786e-06
8.083e-06
9.20333e-06
8.2279e-06
9.07441e-06
6.21905e-06
9.46552e-06
6.21462e-06
9.1773e-06
4.67287e-06
9.51303e-06
4.29708e-06
3.64029e-06
9.41484e-06
8.54711e-06
2.06294e-05
8.24883e-06
1.993e-05
8.47117e-06
2.11367e-05
8.21559e-06
1.79564e-05
8.50757e-06
1.89198e-05
8.41447e-06
1.59824e-05
8.77625e-06
1.65788e-05
8.79925e-06
1.3852e-05
9.2461e-06
1.41896e-05
9.29105e-06
1.16777e-05
9.82651e-06
1.17135e-05
9.89485e-06
9.65074e-06
1.03388e-05
9.33147e-06
1.02422e-05
7.77879e-06
1.05654e-05
7.27192e-06
1.04173e-05
6.11156e-06
1.05362e-05
5.38827e-06
4.6785e-06
1.06295e-05
9.94043e-06
2.30261e-05
9.43082e-06
2.30359e-05
9.73478e-06
2.33363e-05
9.33031e-06
2.08118e-05
9.7443e-06
2.08619e-05
9.58549e-06
1.84415e-05
1.01138e-05
1.82712e-05
1.00198e-05
1.60997e-05
1.06136e-05
1.56545e-05
1.05973e-05
1.36744e-05
1.10946e-05
1.31007e-05
1.11145e-05
1.1426e-05
1.15014e-05
1.06447e-05
1.14652e-05
9.42461e-06
1.1713e-05
8.53151e-06
1.17328e-05
7.50861e-06
1.17677e-05
6.68343e-06
5.88519e-06
1.17992e-05
1.14156e-05
2.58305e-05
1.08116e-05
2.64101e-05
1.09576e-05
2.58589e-05
1.06175e-05
2.37645e-05
1.09675e-05
2.30249e-05
1.09248e-05
2.09454e-05
1.13582e-05
2.02135e-05
1.14205e-05
1.8339e-05
1.1821e-05
1.74612e-05
1.18326e-05
1.57877e-05
1.22367e-05
1.4719e-05
1.22989e-05
1.32916e-05
1.25874e-05
1.21825e-05
1.27212e-05
1.10105e-05
1.28804e-05
9.99298e-06
1.29474e-05
8.96188e-06
1.30019e-05
8.05006e-06
7.19686e-06
1.30236e-05
1.32221e-05
2.85974e-05
1.24941e-05
2.99611e-05
1.24804e-05
2.8601e-05
1.21427e-05
2.67698e-05
1.24348e-05
2.53148e-05
1.2389e-05
2.35215e-05
1.28847e-05
2.21664e-05
1.29763e-05
2.06201e-05
1.33656e-05
1.93589e-05
1.3483e-05
1.78684e-05
1.37426e-05
1.6558e-05
1.38932e-05
1.51386e-05
1.40487e-05
1.39159e-05
1.41311e-05
1.27128e-05
1.42115e-05
1.1591e-05
1.42404e-05
1.05061e-05
1.4233e-05
9.53378e-06
8.625e-06
1.4183e-05
1.52507e-05
3.11751e-05
1.46684e-05
3.31879e-05
1.4388e-05
3.14616e-05
1.40945e-05
2.95912e-05
1.39878e-05
2.78924e-05
1.38982e-05
2.60379e-05
1.40017e-05
2.44229e-05
1.40677e-05
2.28477e-05
1.42209e-05
2.14242e-05
1.43458e-05
1.98772e-05
1.45262e-05
1.84183e-05
1.46322e-05
1.69761e-05
1.47911e-05
1.55991e-05
1.4937e-05
1.43081e-05
1.50291e-05
1.31381e-05
1.50711e-05
1.20038e-05
1.50768e-05
1.09696e-05
9.98613e-06
1.50635e-05
1.76515e-05
3.37721e-05
1.6791e-05
3.61244e-05
1.63138e-05
3.39945e-05
1.59372e-05
3.20049e-05
1.57268e-05
3.01311e-05
1.54739e-05
2.8306e-05
1.53703e-05
2.65142e-05
1.53329e-05
2.48383e-05
1.53861e-05
2.32753e-05
1.54624e-05
2.16426e-05
1.55809e-05
2.00719e-05
1.56878e-05
1.85627e-05
1.57668e-05
1.71322e-05
1.58377e-05
1.57665e-05
1.59262e-05
1.44922e-05
1.59676e-05
1.33192e-05
1.59765e-05
1.22329e-05
1.12089e-05
1.59454e-05
2.03333e-05
3.53419e-05
1.93204e-05
3.80107e-05
1.85081e-05
3.57239e-05
1.78861e-05
3.36003e-05
1.74494e-05
3.16088e-05
1.71172e-05
2.97364e-05
1.68301e-05
2.79466e-05
1.66186e-05
2.62251e-05
1.65457e-05
2.45336e-05
1.65085e-05
2.28586e-05
1.64865e-05
2.12528e-05
1.64714e-05
1.97032e-05
1.64482e-05
1.82433e-05
1.64194e-05
1.68368e-05
1.64077e-05
1.54951e-05
1.6389e-05
1.42761e-05
1.63542e-05
1.31519e-05
1.21001e-05
1.62964e-05
2.07407e-05
3.57573e-05
1.9595e-05
3.81217e-05
1.86265e-05
3.57983e-05
1.77613e-05
3.37191e-05
1.70241e-05
3.17563e-05
1.6427e-05
2.98954e-05
1.59706e-05
2.81086e-05
1.56347e-05
2.63862e-05
1.53569e-05
2.47386e-05
1.51631e-05
2.30598e-05
1.50202e-05
2.14622e-05
1.48918e-05
1.99415e-05
1.47739e-05
1.85025e-05
1.46561e-05
1.71146e-05
1.45112e-05
1.58118e-05
1.43709e-05
1.45924e-05
1.42332e-05
1.34674e-05
1.242e-05
1.40908e-05
1.77521e-05
3.39811e-05
1.67808e-05
3.64281e-05
1.58028e-05
3.4311e-05
1.484e-05
3.243e-05
1.39713e-05
3.05977e-05
1.32853e-05
2.87748e-05
1.28185e-05
2.69767e-05
1.25454e-05
2.52497e-05
1.2403e-05
2.36436e-05
1.22182e-05
2.21529e-05
1.20257e-05
2.06909e-05
1.18833e-05
1.92288e-05
1.17355e-05
1.78869e-05
1.15437e-05
1.66218e-05
1.13388e-05
1.53999e-05
1.11456e-05
1.42284e-05
1.09454e-05
1.31633e-05
1.2134e-05
1.07739e-05
1.56348e-05
3.12388e-05
1.45989e-05
3.3674e-05
1.36738e-05
3.16844e-05
1.28674e-05
2.994e-05
1.21573e-05
2.82752e-05
1.15317e-05
2.6625e-05
1.10052e-05
2.49736e-05
1.05857e-05
2.33714e-05
1.02715e-05
2.18729e-05
1.00232e-05
2.05087e-05
9.77056e-06
1.92268e-05
9.46986e-06
1.79659e-05
9.23911e-06
1.66931e-05
9.0353e-06
1.55225e-05
8.84521e-06
1.43967e-05
8.65169e-06
1.33264e-05
8.48348e-06
1.23243e-05
1.13731e-05
8.31798e-06
1.3657e-05
2.84278e-05
1.27561e-05
3.01025e-05
1.18894e-05
2.8332e-05
1.1107e-05
2.6776e-05
1.04464e-05
2.52691e-05
9.87773e-06
2.38039e-05
9.36689e-06
2.23599e-05
8.90753e-06
2.09588e-05
8.50976e-06
1.96352e-05
8.21133e-06
1.83907e-05
7.98157e-06
1.724e-05
7.76642e-06
1.61473e-05
7.53015e-06
1.5061e-05
7.34597e-06
1.3988e-05
7.19134e-06
1.29687e-05
7.03071e-06
1.20263e-05
6.86728e-06
1.11391e-05
1.02977e-05
6.69638e-06
1.22042e-05
2.50351e-05
1.13424e-05
2.61721e-05
1.05787e-05
2.45482e-05
9.88471e-06
2.3196e-05
9.2465e-06
2.1915e-05
8.65623e-06
2.06826e-05
8.11266e-06
1.94629e-05
7.62242e-06
1.82685e-05
7.20907e-06
1.7111e-05
6.87729e-06
1.60126e-05
6.64588e-06
1.49723e-05
6.46893e-06
1.40204e-05
6.28867e-06
1.31153e-05
6.09515e-06
1.22201e-05
5.93171e-06
1.13188e-05
5.77269e-06
1.05089e-05
5.6168e-06
9.7429e-06
9.01548e-06
5.462e-06
1.0683e-05
2.10269e-05
1.00277e-05
2.19787e-05
9.3578e-06
2.06036e-05
8.7436e-06
1.94607e-05
8.17091e-06
1.84102e-05
7.61911e-06
1.7429e-05
7.10022e-06
1.64409e-05
6.62294e-06
1.54589e-05
6.21518e-06
1.44702e-05
5.88318e-06
1.35226e-05
5.63034e-06
1.26133e-05
5.44507e-06
1.17899e-05
5.31269e-06
1.10133e-05
5.19291e-06
1.02726e-05
5.05092e-06
9.54702e-06
4.92102e-06
8.866e-06
4.79035e-06
8.23062e-06
7.62465e-06
4.65831e-06
9.70717e-06
1.71331e-05
9.10238e-06
1.78632e-05
8.46861e-06
1.67366e-05
7.88014e-06
1.57971e-05
7.34667e-06
1.49499e-05
6.85117e-06
1.41881e-05
6.38465e-06
1.3422e-05
5.94844e-06
1.26508e-05
5.55318e-06
1.18491e-05
5.21862e-06
1.10567e-05
4.944e-06
1.02893e-05
4.7356e-06
9.58961e-06
4.57375e-06
8.94294e-06
4.44409e-06
8.33435e-06
4.3363e-06
7.73872e-06
4.23218e-06
7.19385e-06
4.12265e-06
6.69335e-06
6.22171e-06
3.99822e-06
8.5656e-06
1.34733e-05
8.07904e-06
1.38758e-05
7.58603e-06
1.29566e-05
7.07323e-06
1.22677e-05
6.56376e-06
1.16569e-05
6.09168e-06
1.10976e-05
5.68238e-06
1.05029e-05
5.33313e-06
9.89674e-06
5.0185e-06
9.27441e-06
4.72764e-06
8.66078e-06
4.44919e-06
8.07125e-06
4.19339e-06
7.52749e-06
3.96128e-06
7.02432e-06
3.76939e-06
6.53145e-06
3.61346e-06
6.04429e-06
3.47346e-06
5.61769e-06
3.35674e-06
5.21802e-06
4.83517e-06
3.26663e-06
7.61516e-06
1.01315e-05
7.29126e-06
1.00391e-05
6.90929e-06
9.36323e-06
6.46497e-06
8.94843e-06
6.00071e-06
8.57703e-06
5.56379e-06
8.21024e-06
5.18031e-06
7.77717e-06
4.8455e-06
7.33041e-06
4.54341e-06
6.87427e-06
4.25581e-06
6.43445e-06
3.96858e-06
6.02131e-06
3.68778e-06
5.63657e-06
3.42804e-06
5.26709e-06
3.19924e-06
4.88758e-06
2.9894e-06
4.51548e-06
2.79563e-06
4.19753e-06
2.62632e-06
3.88962e-06
3.59392e-06
2.4777e-06
6.94531e-06
6.7795e-06
6.7244e-06
6.44996e-06
6.37185e-06
6.07416e-06
5.92795e-06
5.94298e-06
5.44572e-06
5.80917e-06
4.96754e-06
5.63786e-06
4.50703e-06
5.38294e-06
4.06337e-06
5.10918e-06
3.64097e-06
4.81314e-06
3.25065e-06
4.51331e-06
2.88893e-06
4.23294e-06
2.55648e-06
3.97e-06
2.25592e-06
3.70986e-06
1.96315e-06
3.45448e-06
1.68751e-06
3.1875e-06
1.42371e-06
2.97173e-06
1.19383e-06
2.73664e-06
2.57058e-06
9.32497e-07
6.45138e-06
3.76626e-06
6.16779e-06
3.28181e-06
5.61525e-06
3.32546e-06
4.93844e-06
3.49124e-06
4.25013e-06
3.54783e-06
3.59903e-06
3.5187e-06
2.98587e-06
3.40206e-06
2.40744e-06
3.26417e-06
1.85588e-06
3.10354e-06
1.35496e-06
2.9078e-06
9.01872e-07
2.72447e-06
4.89252e-07
2.55719e-06
1.08542e-07
2.39214e-06
-2.60319e-07
2.24482e-06
-6.39401e-07
2.09833e-06
-9.65545e-07
1.93306e-06
-1.30153e-06
1.80448e-06
1.6708e-06
-1.58017e-06
5.70205e-06
9.90833e-07
4.80507e-06
1.07395e-06
3.73816e-06
1.42026e-06
2.72184e-06
1.68761e-06
1.82654e-06
1.7817e-06
1.05772e-06
1.78555e-06
3.95983e-07
1.71893e-06
-1.74267e-07
1.64193e-06
-6.85624e-07
1.56728e-06
-1.14777e-06
1.46275e-06
-1.55421e-06
1.35463e-06
-1.92427e-06
1.2744e-06
-2.25975e-06
1.19037e-06
-2.55476e-06
1.11107e-06
-2.82511e-06
1.04056e-06
-3.08659e-06
9.60683e-07
-3.3106e-06
8.82703e-07
8.04689e-07
-3.50992e-06
3.52852e-06
1.77536e-06
5.01788e-07
-3.57552e-07
-9.73688e-07
-1.43815e-06
-1.82468e-06
-2.14887e-06
-2.41506e-06
-2.65852e-06
-2.89116e-06
-3.0924e-06
-3.27319e-06
-3.43562e-06
-3.57786e-06
-3.71534e-06
-3.85282e-06
-3.997e-06
-7.94109e-07
-1.29667e-06
-1.91813e-06
-1.07482e-06
-2.9995e-06
-1.10654e-06
-3.98866e-06
-1.19891e-06
-4.83025e-06
-1.31803e-06
-5.47859e-06
-1.47606e-06
-5.99198e-06
-1.58907e-06
-6.34392e-06
-1.73349e-06
-6.57284e-06
-1.84702e-06
-6.70261e-06
-1.93906e-06
-6.80386e-06
-1.96335e-06
-6.90882e-06
-1.95154e-06
-7.02802e-06
-1.92626e-06
-7.16109e-06
-1.90166e-06
-7.31289e-06
-1.86962e-06
-7.47251e-06
-1.84332e-06
-7.63395e-06
-1.82212e-06
-7.78703e-06
-1.80766e-06
-7.92762e-06
-1.79288e-06
-8.04894e-06
-1.78254e-06
-8.11534e-06
-1.8084e-06
-8.16594e-06
-1.79227e-06
-8.19119e-06
-1.7792e-06
-8.15264e-06
-1.80667e-06
-8.07923e-06
-1.80451e-06
-7.97739e-06
-1.78987e-06
-7.84418e-06
-1.77923e-06
-7.69898e-06
-1.74591e-06
-7.49762e-06
-1.75393e-06
-7.2979e-06
-1.70895e-06
-7.10529e-06
-1.65117e-06
-6.91056e-06
-1.60339e-06
-6.77837e-06
-1.48726e-06
-6.70865e-06
-1.36508e-06
-6.69283e-06
-1.2609e-06
-6.7483e-06
-1.13595e-06
-6.89129e-06
-9.80207e-07
-7.13934e-06
-8.17511e-07
-7.44739e-06
-7.12628e-07
-7.89519e-06
-4.88932e-07
-8.43323e-06
-3.01774e-07
-8.80635e-06
-4.11599e-07
-9.00138e-06
-5.60399e-07
-9.15207e-06
-5.66004e-07
-9.15428e-06
-6.57414e-07
-8.8997e-06
-8.36296e-07
-8.57701e-06
-8.2539e-07
-8.25879e-06
-7.54807e-07
-8.11717e-06
-5.23202e-07
-8.17102e-06
-2.76044e-07
-8.05826e-06
-3.75755e-07
-7.23202e-06
-1.01145e-06
-5.63248e-06
-1.70717e-06
-3.78858e-06
-1.87398e-06
-2.088e-06
-1.65979e-06
-8.33653e-07
-1.13956e-06
-5.58357e-07
-7.62643e-08
-1.06389e-06
7.83637e-07
-1.9595e-06
1.23835e-06
-3.28829e-06
1.72579e-06
-4.39259e-06
1.54087e-06
-3.92873e-06
2.39619e-08
-2.31504e-06
-1.04343e-06
-5.84163e-07
-1.08537e-06
5.46399e-07
-4.39842e-07
8.50187e-07
4.10879e-07
1.83186e-07
1.4592e-06
-1.07778e-06
2.13863e-06
-2.4767e-06
2.33037e-06
-3.72817e-06
2.23283e-06
-4.73971e-06
2.03966e-06
-5.50806e-06
1.84197e-06
-6.08922e-06
1.69774e-06
-6.46861e-06
1.53549e-06
-6.71123e-06
1.4353e-06
-6.79609e-06
1.3132e-06
-6.75664e-06
1.22332e-06
-6.6275e-06
1.16535e-06
-6.39668e-06
1.09289e-06
-6.06658e-06
1.021e-06
-5.63003e-06
9.41179e-07
-5.12015e-06
8.95186e-07
-4.57272e-06
8.84062e-07
-3.97041e-06
8.53279e-07
-3.29346e-06
8.02599e-07
-2.56831e-06
7.79235e-07
-1.82738e-06
7.88779e-07
-1.05858e-06
7.85765e-07
-2.62436e-07
7.82256e-07
5.83584e-07
7.64363e-07
1.38873e-06
8.3309e-07
2.18816e-06
8.64232e-07
3.00199e-06
8.75648e-07
3.8069e-06
9.09164e-07
4.59926e-06
9.44587e-07
5.36955e-06
9.80658e-07
6.02072e-06
1.11269e-06
6.81136e-06
9.75637e-07
7.4905e-06
1.07854e-06
8.12709e-06
1.10368e-06
8.76045e-06
1.07648e-06
9.38736e-06
1.02935e-06
9.93325e-06
1.04655e-06
1.04068e-05
1.03933e-06
1.08144e-05
1.00986e-06
1.11674e-05
9.52418e-07
1.14965e-05
8.40239e-07
1.17869e-05
7.17035e-07
1.19711e-05
6.41491e-07
1.20647e-05
5.49095e-07
1.20544e-05
4.69326e-07
1.19841e-05
3.32524e-07
1.19725e-05
5.443e-08
1.20165e-05
-2.41435e-07
1.20073e-05
-4.12879e-07
1.19572e-05
-5.87877e-07
1.18295e-05
-7.52264e-07
1.1625e-05
-9.33619e-07
1.13561e-05
-1.09455e-06
1.12142e-05
-1.46216e-06
1.10867e-05
-1.81334e-06
1.05684e-05
-1.75687e-06
9.92204e-06
-1.8878e-06
9.56082e-06
-2.41035e-06
9.26439e-06
-2.73809e-06
8.63565e-06
-2.689e-06
7.43963e-06
-2.41149e-06
5.89837e-06
-2.36865e-06
4.1016e-06
-2.45865e-06
2.60125e-06
-3.14435e-06
8.75657e-07
-3.30962e-06
-2.14431e-07
-4.36055e-06
-1.54111e-06
-4.52939e-06
-1.30291e-06
-6.54764e-06
-2.14769e-06
-5.85604e-06
-1.36628e-06
-7.89537e-06
-1.64476e-06
-7.42572e-06
-1.91983e-06
-7.73692e-06
-1.51654e-06
-9.00463e-06
-1.33603e-06
-9.1723e-06
-1.12936e-06
-9.56987e-06
-6.35414e-07
-1.02111e-05
-1.86226e-07
-1.05622e-05
3.95913e-07
-1.10987e-05
7.26298e-07
-1.12708e-05
1.13086e-06
-1.17296e-05
1.76179e-06
-1.23579e-05
2.7295e-06
-1.30601e-05
4.20918e-06
-1.39239e-05
5.5114e-06
-1.40978e-05
7.48556e-06
-1.5058e-05
9.51438e-06
-1.5474e-05
1.12921e-05
-1.56236e-05
1.20878e-05
-1.50667e-05
1.23143e-05
-1.48733e-05
1.2184e-05
-1.48115e-05
1.2371e-05
-1.53717e-05
1.224e-05
-1.52186e-05
1.18736e-05
-1.51242e-05
1.10559e-05
-1.47861e-05
1.04117e-05
-1.50653e-05
9.95198e-06
-1.53179e-05
9.88772e-06
-1.57406e-05
1.10721e-05
-1.70916e-05
1.26303e-05
-1.76282e-05
1.30319e-05
-1.65357e-05
1.22477e-05
-1.55482e-05
9.36731e-06
-1.31775e-05
4.83093e-06
-1.1083e-05
7.07694e-07
-1.05112e-05
-1.89778e-06
-1.1513e-05
-1.20673e-06
-1.40181e-05
2.30654e-06
-1.62683e-05
1.51471e-06
-1.16819e-05
-5.72713e-07
-9.93226e-06
-1.46904e-06
-1.01864e-05
-2.93351e-06
-8.57855e-06
-5.4682e-06
-6.45691e-06
-6.17008e-06
-7.6017e-06
-8.1239e-06
-5.67885e-06
-4.68282e-07
-2.84317e-06
-1.30072e-06
-2.42279e-06
-2.41687e-06
-2.23419e-06
-3.51141e-06
-2.30702e-06
-4.41524e-06
-2.53672e-06
-5.14985e-06
-2.78097e-06
-5.65859e-06
-3.06803e-06
-5.97144e-06
-3.38301e-06
-6.1576e-06
-3.60493e-06
-6.2915e-06
-3.74052e-06
-6.40527e-06
-3.78463e-06
-6.5267e-06
-3.76354e-06
-6.6792e-06
-3.70273e-06
-6.85796e-06
-3.6471e-06
-7.04015e-06
-3.604e-06
-7.23285e-06
-3.55622e-06
-7.41179e-06
-3.53729e-06
-7.56141e-06
-3.53509e-06
-7.67605e-06
-3.53141e-06
-7.76659e-06
-3.5258e-06
-7.81376e-06
-3.57947e-06
-7.80138e-06
-3.59297e-06
-7.74357e-06
-3.58572e-06
-7.61731e-06
-3.66056e-06
-7.45211e-06
-3.67011e-06
-7.24973e-06
-3.65064e-06
-6.98812e-06
-3.66458e-06
-6.68441e-06
-3.62727e-06
-6.36656e-06
-3.59845e-06
-6.04793e-06
-3.51693e-06
-5.69988e-06
-3.43914e-06
-5.34416e-06
-3.35302e-06
-5.03162e-06
-3.13647e-06
-4.74516e-06
-2.94021e-06
-4.49671e-06
-2.74231e-06
-4.28625e-06
-2.51905e-06
-4.1731e-06
-2.21786e-06
-4.12551e-06
-1.92567e-06
-4.13012e-06
-1.70927e-06
-4.16635e-06
-1.39229e-06
-4.21867e-06
-1.14026e-06
-4.34756e-06
-1.09982e-06
-4.70057e-06
-9.34953e-07
-5.2305e-06
-7.55073e-07
-5.82594e-06
-7.81321e-07
-6.22837e-06
-1.0518e-06
-6.59569e-06
-9.48934e-07
-6.68004e-06
-1.08287e-06
-6.53143e-06
-1.0489e-06
-6.28963e-06
-8.55031e-07
-5.78166e-06
-1.14488e-06
-4.77291e-06
-2.17895e-06
-3.24227e-06
-3.31469e-06
-1.45613e-06
-3.69151e-06
3.08526e-07
-3.38044e-06
1.70773e-06
-2.42519e-06
2.58467e-06
-7.83208e-07
2.8402e-06
7.87612e-07
2.20522e-06
2.20564e-06
1.4342e-06
2.87536e-06
1.71059e-06
1.71479e-06
1.87944e-06
3.45606e-07
9.85195e-07
4.07907e-07
-1.22261e-06
1.75768e-06
-4.02627e-06
3.06346e-06
-6.49883e-06
3.64344e-06
-8.23087e-06
4.02335e-06
-9.40407e-06
4.19607e-06
-1.01924e-05
4.04375e-06
-1.07611e-05
3.76569e-06
-1.11729e-05
3.45384e-06
-1.13828e-05
3.09156e-06
-1.14653e-05
2.85511e-06
-1.14098e-05
2.58891e-06
-1.11904e-05
2.35977e-06
-1.0913e-05
2.21002e-06
-1.05723e-05
2.09011e-06
-1.01141e-05
1.9458e-06
-9.57942e-06
1.82193e-06
-8.94046e-06
1.6686e-06
-8.23308e-06
1.53906e-06
-7.49252e-06
1.48534e-06
-6.72429e-06
1.47654e-06
-5.88779e-06
1.40098e-06
-5.02017e-06
1.33657e-06
-4.08396e-06
1.26554e-06
-3.15833e-06
1.30976e-06
-2.25053e-06
1.34902e-06
-1.30581e-06
1.33705e-06
-3.2788e-07
1.31263e-06
6.24583e-07
1.43757e-06
1.60108e-06
1.47296e-06
2.50831e-06
1.5806e-06
3.39163e-06
1.66049e-06
4.26435e-06
1.73937e-06
5.10253e-06
1.83361e-06
5.94902e-06
1.9587e-06
6.76866e-06
1.8698e-06
7.56192e-06
2.01581e-06
8.27974e-06
2.0815e-06
9.00364e-06
2.04302e-06
9.66454e-06
2.02283e-06
1.03312e-05
1.98617e-06
1.09218e-05
1.97751e-06
1.14327e-05
1.93208e-06
1.18936e-05
1.80766e-06
1.22982e-05
1.62063e-06
1.26487e-05
1.39309e-06
1.29255e-05
1.19705e-06
1.30938e-05
1.00423e-06
1.31211e-05
8.58901e-07
1.31232e-05
5.32525e-07
1.31696e-05
-2.70336e-08
1.33003e-05
-6.81319e-07
1.33207e-05
-9.98753e-07
1.31815e-05
-1.21048e-06
1.29947e-05
-1.53515e-06
1.28954e-05
-2.11684e-06
1.25678e-05
-2.36218e-06
1.22115e-05
-2.88267e-06
1.2198e-05
-3.86224e-06
1.19096e-05
-4.12731e-06
1.0762e-05
-3.81277e-06
9.49113e-06
-4.24476e-06
8.35682e-06
-4.74817e-06
7.07117e-06
-4.73423e-06
5.48672e-06
-4.43562e-06
3.89974e-06
-4.73154e-06
2.4256e-06
-5.30876e-06
1.15246e-06
-6.60895e-06
-1.91684e-07
-7.0828e-06
-1.19782e-06
-8.8838e-06
-1.42575e-06
-1.02492e-05
-1.36077e-06
-1.30331e-05
-1.20511e-06
-1.29553e-05
-3.76634e-07
-1.59251e-05
-1.18255e-06
-1.43995e-05
-9.34644e-07
-1.59414e-05
-6.95469e-07
-1.7752e-05
1.44418e-07
-1.90914e-05
5.16528e-07
-1.94807e-05
1.06116e-06
-2.06425e-05
1.47935e-06
-2.10717e-05
2.26784e-06
-2.21782e-05
2.74922e-06
-2.23884e-05
3.50002e-06
-2.34393e-05
4.29121e-06
-2.44821e-05
5.64876e-06
-2.60505e-05
7.45834e-06
-2.76577e-05
9.03158e-06
-2.78807e-05
1.15634e-05
-2.97466e-05
1.44982e-05
-3.06414e-05
1.72395e-05
-3.08722e-05
1.86379e-05
-2.96167e-05
1.93247e-05
-2.93097e-05
1.96419e-05
-2.94592e-05
2.0243e-05
-3.07425e-05
1.99969e-05
-3.0131e-05
1.90661e-05
-2.93248e-05
1.76439e-05
-2.85247e-05
1.65837e-05
-2.90448e-05
1.58579e-05
-2.97879e-05
1.54572e-05
-3.04543e-05
1.66907e-05
-3.29254e-05
1.82275e-05
-3.46197e-05
1.81553e-05
-3.28659e-05
1.62814e-05
-3.07808e-05
1.12976e-05
-2.58173e-05
4.91273e-06
-2.13662e-05
-2.14226e-07
-2.01361e-05
-3.40006e-06
-2.24822e-05
-1.6616e-06
-2.88185e-05
4.22279e-06
-3.36106e-05
6.16567e-06
-2.60799e-05
4.79518e-06
-2.20754e-05
3.31489e-06
-2.08936e-05
8.33752e-07
-1.64647e-05
-1.71498e-06
-1.29548e-05
-1.88359e-06
-1.5762e-05
-1.69069e-05
-3.83382e-07
-3.04044e-07
-4.44419e-06
-7.34054e-07
-4.02387e-06
-1.47218e-06
-3.66887e-06
-2.47462e-06
-3.53727e-06
-3.45896e-06
-3.72888e-06
-4.2457e-06
-4.04712e-06
-4.75599e-06
-4.52399e-06
-5.06413e-06
-4.99502e-06
-5.26609e-06
-5.29309e-06
-5.44537e-06
-5.44127e-06
-5.65307e-06
-5.46179e-06
-5.89888e-06
-5.41319e-06
-6.18417e-06
-5.32275e-06
-6.50572e-06
-5.23636e-06
-6.80824e-06
-5.21388e-06
-7.08833e-06
-5.1873e-06
-7.34989e-06
-5.18177e-06
-7.57015e-06
-5.20772e-06
-7.73714e-06
-5.2432e-06
-7.84832e-06
-5.28535e-06
-7.93072e-06
-5.34998e-06
-7.92795e-06
-5.41328e-06
-7.83329e-06
-5.4624e-06
-7.68809e-06
-5.57104e-06
-7.47887e-06
-5.61218e-06
-7.20335e-06
-5.60859e-06
-6.86794e-06
-5.63924e-06
-6.50876e-06
-5.57161e-06
-6.1487e-06
-5.48961e-06
-5.71812e-06
-5.4432e-06
-5.26035e-06
-5.33019e-06
-4.82092e-06
-5.17322e-06
-4.45373e-06
-4.83029e-06
-4.03758e-06
-4.62318e-06
-3.63772e-06
-4.34922e-06
-3.38698e-06
-3.92765e-06
-3.1714e-06
-3.52823e-06
-2.94772e-06
-3.1765e-06
-2.85045e-06
-2.78362e-06
-2.90789e-06
-2.24968e-06
-2.93583e-06
-1.96207e-06
-3.12913e-06
-1.68764e-06
-3.27339e-06
-1.51796e-06
-3.24856e-06
-1.45763e-06
-3.25503e-06
-1.35411e-06
-3.49735e-06
-1.32525e-06
-3.92693e-06
-1.03878e-06
-4.21377e-06
-1.27218e-06
-4.09944e-06
-1.55146e-06
-3.81395e-06
-1.44706e-06
-3.18222e-06
-1.98478e-06
-2.18876e-06
-3.28959e-06
-9.84089e-07
-4.57412e-06
3.14945e-07
-5.00629e-06
1.3477e-06
-4.35655e-06
1.96708e-06
-2.92317e-06
2.47349e-06
-1.1073e-06
2.55301e-06
9.52593e-07
2.06322e-06
2.94305e-06
1.89348e-06
3.35729e-06
1.3476e-06
2.68424e-06
-1.14523e-06
3.3484e-06
-4.84896e-06
4.65852e-06
-7.82357e-06
5.33593e-06
-9.71096e-06
5.61429e-06
-1.09523e-05
5.5931e-06
-1.16384e-05
5.45395e-06
-1.1857e-05
5.19051e-06
-1.18537e-05
4.85009e-06
-1.17427e-05
4.50147e-06
-1.15206e-05
4.11558e-06
-1.12902e-05
3.77748e-06
-1.09346e-05
3.45102e-06
-1.05406e-05
3.18073e-06
-1.01104e-05
2.94699e-06
-9.62547e-06
2.77357e-06
-9.12554e-06
2.66628e-06
-8.57971e-06
2.50195e-06
-7.96916e-06
2.33821e-06
-7.28463e-06
2.13109e-06
-6.52334e-06
1.93993e-06
-5.70667e-06
1.8459e-06
-4.91455e-06
1.87865e-06
-4.09888e-06
1.79814e-06
-3.18513e-06
1.6495e-06
-2.29435e-06
1.6198e-06
-1.39579e-06
1.66614e-06
-4.84408e-07
1.70807e-06
4.85986e-07
1.65713e-06
1.42347e-06
1.68342e-06
2.30455e-06
1.8801e-06
3.24611e-06
1.87568e-06
4.08463e-06
2.10065e-06
4.93603e-06
2.17311e-06
5.78338e-06
2.27922e-06
6.6644e-06
2.36785e-06
7.39899e-06
2.60678e-06
8.14085e-06
2.53018e-06
8.84732e-06
2.73526e-06
9.57888e-06
2.72348e-06
1.02817e-05
2.70457e-06
1.09313e-05
2.7269e-06
1.15532e-05
2.69524e-06
1.21059e-05
2.69294e-06
1.26002e-05
2.61605e-06
1.30239e-05
2.44469e-06
1.33452e-05
2.2463e-06
1.36117e-05
1.96436e-06
1.3801e-05
1.72173e-06
1.38726e-05
1.4723e-06
1.38276e-05
1.21415e-06
1.36866e-05
7.52552e-07
1.36475e-05
-1.10347e-07
1.36971e-05
-1.0716e-06
1.36801e-05
-1.58762e-06
1.3422e-05
-1.85898e-06
1.29731e-05
-2.12404e-06
1.28452e-05
-3.11171e-06
1.27871e-05
-3.94048e-06
1.21871e-05
-4.36862e-06
1.16852e-05
-5.41559e-06
1.15928e-05
-6.49321e-06
1.08147e-05
-6.28092e-06
9.20651e-06
-6.03988e-06
7.54581e-06
-6.29161e-06
6.18275e-06
-6.61446e-06
4.92733e-06
-6.71312e-06
3.80912e-06
-7.51921e-06
2.75929e-06
-8.56936e-06
1.72141e-06
-1.0327e-05
5.92385e-07
-1.10834e-05
-5.32518e-07
-1.32632e-05
-2.46961e-08
-1.67774e-05
-1.14652e-07
-1.94593e-05
1.65638e-07
-2.02278e-05
7.91953e-07
-2.40706e-05
8.73966e-08
-2.11889e-05
4.55714e-07
-2.4085e-05
1.32775e-07
-2.53216e-05
1.18401e-06
-2.82443e-05
2.32963e-06
-2.9329e-05
3.68257e-06
-3.12774e-05
4.32483e-06
-3.16364e-05
5.07617e-06
-3.30565e-05
5.49615e-06
-3.324e-05
6.1108e-06
-3.46899e-05
6.74364e-06
-3.59775e-05
8.21634e-06
-3.85072e-05
9.92075e-06
-4.06911e-05
1.08782e-05
-4.06065e-05
1.2535e-05
-4.29048e-05
1.55293e-05
-4.45706e-05
1.89443e-05
-4.49244e-05
2.03946e-05
-4.22057e-05
2.08277e-05
-4.1217e-05
2.1379e-05
-4.18688e-05
2.3104e-05
-4.42898e-05
2.39549e-05
-4.38625e-05
2.36663e-05
-4.25493e-05
2.22007e-05
-4.12074e-05
2.07836e-05
-4.13316e-05
1.98192e-05
-4.19825e-05
1.83457e-05
-4.21112e-05
1.871e-05
-4.42027e-05
2.07419e-05
-4.71325e-05
2.08274e-05
-4.63473e-05
1.94421e-05
-4.35742e-05
1.39913e-05
-3.74981e-05
6.53195e-06
-3.01805e-05
2.13806e-07
-2.91554e-05
-3.39309e-06
-3.34046e-05
-3.68161e-06
-4.21747e-05
1.2586e-06
-4.96036e-05
6.99304e-06
-4.25791e-05
8.43999e-06
-3.58088e-05
6.51949e-06
-3.05419e-05
2.72285e-06
-2.24244e-05
-4.1412e-08
-1.98096e-05
-3.51965e-07
-2.51168e-05
-2.59955e-05
6.78222e-07
-2.97457e-07
-5.93994e-06
-5.72418e-07
-5.63106e-06
-1.12115e-06
-5.14417e-06
-1.86845e-06
-4.93198e-06
-2.71696e-06
-4.99259e-06
-3.32894e-06
-5.39332e-06
-3.70321e-06
-5.96624e-06
-3.9263e-06
-6.5016e-06
-4.16347e-06
-6.76588e-06
-4.48823e-06
-6.85578e-06
-4.91171e-06
-6.83073e-06
-5.39773e-06
-6.76989e-06
-5.87888e-06
-6.71949e-06
-6.32452e-06
-6.69492e-06
-6.75117e-06
-6.71034e-06
-7.12996e-06
-6.74108e-06
-7.43621e-06
-6.81019e-06
-7.69524e-06
-6.86923e-06
-7.93015e-06
-6.9156e-06
-8.09465e-06
-7.00696e-06
-8.19561e-06
-7.09152e-06
-8.22189e-06
-7.17987e-06
-8.13343e-06
-7.29967e-06
-8.02163e-06
-7.38909e-06
-7.83289e-06
-7.44692e-06
-7.54315e-06
-7.48456e-06
-7.20012e-06
-7.51853e-06
-6.8319e-06
-7.41692e-06
-6.40155e-06
-7.35062e-06
-5.89959e-06
-7.32082e-06
-5.35713e-06
-7.1942e-06
-4.91833e-06
-6.88831e-06
-4.37995e-06
-6.58529e-06
-3.72532e-06
-6.44186e-06
-3.1825e-06
-6.02191e-06
-2.73787e-06
-5.44877e-06
-2.22515e-06
-5.05579e-06
-1.85983e-06
-4.53365e-06
-1.7342e-06
-3.84351e-06
-1.61015e-06
-3.23616e-06
-1.62371e-06
-2.76454e-06
-1.8988e-06
-2.1752e-06
-2.16284e-06
-1.94238e-06
-2.47443e-06
-1.77934e-06
-2.55624e-06
-1.84398e-06
-2.57779e-06
-1.82438e-06
-2.37499e-06
-1.69391e-06
-2.18645e-06
-1.82643e-06
-2.17955e-06
-1.88137e-06
-2.05781e-06
-1.84708e-06
-1.61987e-06
-2.61212e-06
-1.04689e-06
-3.97388e-06
-5.3766e-07
-5.15162e-06
-1.0665e-07
-5.46162e-06
1.4839e-07
-4.5712e-06
2.30972e-08
-2.69223e-06
-4.66488e-07
-4.50023e-07
-1.02133e-06
1.73801e-06
-1.45981e-06
3.64834e-06
-2.59118e-06
4.84535e-06
-5.19931e-06
5.70463e-06
-7.91682e-06
6.5213e-06
-9.80712e-06
7.05588e-06
-1.09965e-05
7.08003e-06
-1.16284e-05
6.84201e-06
-1.18864e-05
6.48458e-06
-1.18421e-05
6.08183e-06
-1.15982e-05
5.66204e-06
-1.12787e-05
5.29287e-06
-1.08849e-05
4.91746e-06
-1.0498e-05
4.5874e-06
-1.0094e-05
4.27229e-06
-9.6625e-06
3.96062e-06
-9.24546e-06
3.7472e-06
-8.79739e-06
3.51741e-06
-8.29407e-06
3.32543e-06
-7.774e-06
3.22891e-06
-7.26188e-06
3.09086e-06
-6.7015e-06
2.89462e-06
-6.05498e-06
2.61851e-06
-5.29934e-06
2.33875e-06
-4.4386e-06
2.15623e-06
-3.59508e-06
2.21395e-06
-2.79175e-06
2.18243e-06
-1.85609e-06
1.90293e-06
-9.13299e-07
1.88581e-06
4.70765e-09
1.96287e-06
8.90922e-07
2.05027e-06
1.85693e-06
1.93036e-06
2.79759e-06
1.99369e-06
3.75544e-06
2.17903e-06
4.67982e-06
2.21885e-06
5.53394e-06
2.52512e-06
6.34735e-06
2.65331e-06
7.09159e-06
2.83513e-06
7.89238e-06
2.86084e-06
8.63731e-06
3.14601e-06
9.37131e-06
3.0799e-06
1.01103e-05
3.24824e-06
1.07665e-05
3.29277e-06
1.14226e-05
3.23143e-06
1.20219e-05
3.25421e-06
1.26555e-05
3.13316e-06
1.32292e-05
3.11551e-06
1.37341e-05
3.03607e-06
1.4211e-05
2.7999e-06
1.4541e-05
2.62613e-06
1.48272e-05
2.27947e-06
1.50185e-05
2.02818e-06
1.50714e-05
1.78085e-06
1.50005e-05
1.43309e-06
1.4926e-05
7.87449e-07
1.47804e-05
-6.87061e-08
1.45509e-05
-1.04656e-06
1.41956e-05
-1.62899e-06
1.37866e-05
-2.1924e-06
1.32585e-05
-2.84949e-06
1.28461e-05
-4.01545e-06
1.30077e-05