/*--------------------------------*- C++ -*----------------------------------*\
| =========                 |                                                 |
| \\      /  F ield         | OpenFOAM: The Open Source CFD Toolbox           |
|  \\    /   O peration     | Version:  dev                                   |
|   \\  /    A nd           | Web:      http://www.openfoam.org               |
|    \\/     M anipulation  |                                                 |
\*---------------------------------------------------------------------------*/
FoamFile
{
    version     2.0;
    format      ascii;
    class       volScalarField;
    object      pMean;
    location    "9.124";
}
// * * * * * * * * * * * * * * * * * * * * * * * * * * * * * * * * * * * * * //

dimensions      [1 -1 -2 0 0 0 0];

internalField   nonuniform List<scalar> 
12225
(
98313.1
98293.3
98279.6
98272.6
98258.3
98248.9
98230.4
98220.9
98199.4
98190.6
98166
98159.1
98128.1
98121.8
98081.1
98041.4
97952.3
97586.5
98308.6
98292.2
98279
98272
98257.7
98248.3
98229.8
98220.3
98198.7
98190.2
98165.2
98158.6
98127.8
98119.9
98079.3
98045.5
97953.2
97792.2
98304.8
98290.6
98278
98270.7
98256.3
98246.8
98228.3
98218.9
98197.2
98188.7
98164.4
98156.5
98128.3
98116.5
98081.6
98046.4
97979.1
97890.3
98299.7
98287.7
98275.9
98268.2
98253.9
98244.1
98226.2
98216.3
98195.5
98186
98163
98153.4
98127.2
98114.3
98082.6
98054.8
98006.3
97937.5
98293.1
98283.3
98272.3
98264.2
98250.3
98240
98223.1
98212.1
98193
98181.8
98161.5
98148.9
98127.4
98111.1
98084.5
98060.3
98020.4
97987.8
98284.8
98277.2
98266.4
98258.1
98244.7
98234.1
98218
98206.4
98188.6
98176.5
98158.3
98144.7
98126.3
98109.4
98088
98062.7
98040.6
98020.2
98274.5
98268.2
98257.9
98249.4
98236.8
98225.7
98210.9
98198.3
98182.6
98169.1
98153.7
98138.6
98124.1
98106.5
98092.2
98071.3
98060.9
98046
98263.8
98258.1
98248.5
98239.8
98228.1
98216.6
98203
98189.8
98175.8
98161.5
98148.4
98132.8
98121.2
98103.9
98095.2
98077.4
98075.7
98060.7
98253
98247.5
98238.7
98229.8
98219
98207.2
98194.7
98181.2
98168.6
98154
98142.6
98127.1
98117.4
98101.4
98095.1
98080.9
98080.7
98068.7
98239.3
98233.9
98226.2
98217.2
98207.3
98195.5
98184
98170.5
98159.2
98144.7
98134.7
98119.8
98111.6
98097.2
98092.3
98080.5
98079.7
98071.4
98222.4
98216.9
98210.4
98201.6
98192.5
98181
98170.3
98157.3
98146.8
98133.2
98123.9
98110.7
98102.7
98091.2
98085.6
98077
98074.3
98069.2
98201.8
98196.1
98190.9
98182.4
98174.1
98163
98153.2
98140.9
98131.3
98118.7
98110.1
98098.6
98091.1
98081.8
98076.1
98069.7
98066.1
98062.5
98177
98171.7
98167.2
98159.7
98151.7
98141.8
98132.4
98121.5
98112.3
98101.6
98093.2
98083.9
98076.7
98069.5
98064
98059.2
98055.6
98052.8
98148.8
98144
98140
98133.4
98126.2
98117.3
98108.7
98099.2
98090.6
98081.7
98074
98066.4
98060
98054.3
98049.7
98045.8
98042.9
98040.8
98118.6
98114.9
98111.1
98105.7
98099.2
98091.6
98083.8
98075.7
98068.1
98060.7
98054
98047.9
98042.6
98038
98034.3
98031.4
98029.2
98027.7
98090.9
98088.1
98084.8
98080.3
98074.7
98068.2
98061.4
98054.5
98047.9
98041.8
98036.2
98031.2
98026.9
98023.4
98020.5
98018.3
98016.8
98015.9
98072.3
98070.3
98067.6
98063.7
98058.7
98053
98047.1
98041.2
98035.5
98030.3
98025.5
98021.3
98017.8
98014.9
98012.6
98010.9
98009.8
98009.1
98072.5
98070.9
98068.3
98064.6
98059.9
98054.5
98048.9
98043.4
98038.1
98033.1
98028.7
98024.7
98021.4
98018.6
98016.3
98014.7
98013.5
98012.7
98092.2
98090.4
98087.6
98083.6
98078.7
98073.1
98067.4
98061.6
98056
98050.8
98046
98041.7
98038
98034.8
98032.2
98030
98028.3
98027.1
98123
98120.9
98117.5
98113
98107.6
98101.5
98095.2
98088.9
98082.7
98076.9
98071.5
98066.6
98062.2
98058.3
98055
98052.1
98049.8
98047.8
98157.9
98155.3
98151.2
98146.1
98140
98133.4
98126.4
98119.4
98112.6
98106.1
98099.9
98094.3
98089.1
98084.5
98080.4
98076.8
98073.7
98071
98191.8
98188.7
98183.9
98178.1
98171.4
98164.2
98156.6
98149
98141.6
98134.4
98127.5
98121.2
98115.3
98110
98105.2
98100.8
98097
98093.6
98222
98218.4
98212.9
98206.4
98199.1
98191.4
98183.4
98175.3
98167.2
98159.5
98152.1
98145.1
98138.6
98132.6
98127.2
98122.2
98117.8
98113.8
98247.4
98243
98236.7
98229.6
98221.9
98213.8
98205.4
98196.9
98188.5
98180.3
98172.4
98164.9
98158
98151.5
98145.5
98140.1
98135.1
98130.5
98267.7
98262.5
98255.3
98247.6
98239.6
98231.3
98222.7
98213.9
98205.1
98196.5
98188.3
98180.5
98173.1
98166.2
98159.9
98154
98148.7
98143.7
98283.3
98277
98268.9
98260.8
98252.6
98244.1
98235.3
98226.4
98217.4
98208.6
98200.1
98192
98184.3
98177.2
98170.5
98164.4
98158.7
98153.5
98295.1
98287.3
98278.2
98269.7
98261.5
98252.9
98244.1
98235
98225.9
98217
98208.3
98200
98192.2
98184.8
98178
98171.6
98165.8
98160.4
98303.8
98294
98283.9
98275.3
98267.1
98258.6
98249.7
98240.6
98231.4
98222.4
98213.6
98205.2
98197.2
98189.8
98182.8
98176.3
98170.4
98164.8
98309.9
98297.8
98286.7
98278.1
98270
98261.7
98252.9
98243.8
98234.6
98225.5
98216.6
98208.2
98200.1
98192.6
98185.5
98179
98173
98167.3
98315.9
98300.4
98288.3
98279.4
98271.3
98262.9
98254.2
98245.1
98235.9
98226.8
98217.9
98209.4
98201.3
98193.8
98186.7
98180.1
98174.1
98168.5
98312.9
98312.5
98311.7
98310.6
98309.1
98307.2
98305
98302.4
98299.4
98295.9
98292.1
98287.8
98283.2
98278.3
98273
98267.6
98261.9
98255.9
98249.8
98243.6
98237.1
98230.6
98223.9
98217.1
98210.2
98203.2
98196.2
98189.1
98182
98174.9
98167.8
98160.8
98153.8
98146.8
98139.9
98133.2
98126.6
98120.1
98113.7
98107.6
98101.7
98096
98090.6
98085.5
98080.7
98076.2
98072.1
98068.4
98065.1
98062.2
98059.8
98057.9
98056.5
98055.7
98055.4
98055.8
98056.7
98058.3
98060.6
98063.6
98067.2
98071.6
98076.7
98082.5
98089.1
98096.3
98104.3
98112.9
98122.2
98132.2
98142.8
98153.9
98165.7
98178
98190.7
98204
98217.6
98231.6
98245.9
98260.4
98275.3
98290.3
98305.4
98320.6
98335.9
98351.1
98366.3
98381.4
98396.3
98411
98425.4
98439.5
98453.3
98466.7
98479.6
98492
98503.9
98515.2
98526
98536.1
98545.6
98554.5
98562.7
98570.3
98577.2
98583.5
98589.3
98594.4
98599
98603.1
98606.7
98609.9
98612.8
98615.2
98617.4
98619.3
98621
98622.4
98623.7
98624.8
98625.9
98626.9
98628.1
98629.4
98631
98633
98635.7
98639.1
98643.5
98649.1
98656.2
98664.9
98675.6
98688.4
98703.8
98721.8
98742.6
98766.3
98793.1
98822.9
98855.9
98891.8
98930.6
98972.1
99016.4
99063
99111.9
99162.6
99215.2
99269.4
99324.8
99381.2
99438.2
99495.6
99552.8
99609.4
99664.8
99718.6
99769.6
99817.5
99861
99899.4
99931.5
99956.6
99973.4
99980.9
99978.3
99965.4
99941.3
99906.7
99861.3
99806.6
99742.7
99672
99595
99514.5
99430
99345.3
99258.5
99175.3
98305.9
98305.6
98304.8
98303.6
98302.1
98300.2
98298
98295.4
98292.4
98289
98285.2
98281
98276.5
98271.8
98266.7
98261.4
98255.8
98250.1
98244.2
98238.1
98231.8
98225.5
98218.9
98212.3
98205.6
98198.8
98191.9
98185
98178.1
98171.1
98164.2
98157.3
98150.4
98143.6
98136.9
98130.3
98123.8
98117.5
98111.3
98105.3
98099.5
98093.9
98088.6
98083.5
98078.8
98074.4
98070.4
98066.7
98063.5
98060.6
98058.2
98056.3
98054.9
98054.1
98053.8
98054
98055
98056.5
98058.7
98061.6
98065.2
98069.4
98074.4
98080.1
98086.5
98093.6
98101.4
98109.9
98119
98128.8
98139.2
98150.2
98161.7
98173.8
98186.4
98199.3
98212.7
98226.5
98240.6
98254.9
98269.5
98284.2
98299.1
98314.1
98329.1
98344
98358.9
98373.7
98388.3
98402.7
98416.9
98430.7
98444.2
98457.3
98469.9
98482
98493.6
98504.7
98515.2
98525.1
98534.3
98543
98551
98558.4
98565.2
98571.3
98576.9
98581.9
98586.4
98590.4
98593.9
98597
98599.8
98602.2
98604.3
98606.1
98607.7
98609.1
98610.3
98611.4
98612.3
98613.3
98614.4
98615.5
98617
98618.8
98621.2
98624.4
98628.5
98633.8
98640.4
98648.7
98658.9
98671.2
98685.9
98703.3
98723.4
98746.3
98772.3
98801.2
98833.2
98868.1
98905.9
98946.3
98989.5
99034.9
99082.6
99132.2
99183.6
99236.6
99290.9
99346.1
99402
99458.3
99514.5
99570.1
99624.6
99677.6
99727.9
99775.2
99818.3
99856.4
99888.4
99913.6
99930.8
99938.9
99937.1
99925.2
99902.5
99869.4
99825.6
99772.6
99710.5
99641.6
99566.4
99487.6
99404.6
99321.5
99235.7
99150.7
98293.2
98292.9
98292.1
98290.9
98289.3
98287.3
98285
98282.3
98279.3
98275.9
98272.2
98268.2
98263.9
98259.3
98254.4
98249.4
98244.2
98238.7
98233.2
98227.5
98221.6
98215.6
98209.4
98203.2
98196.8
98190.4
98183.8
98177.2
98170.6
98164
98157.3
98150.7
98144.1
98137.5
98131.1
98124.7
98118.4
98112.3
98106.4
98100.6
98095
98089.6
98084.4
98079.5
98074.9
98070.7
98066.7
98063.1
98060
98057.2
98054.8
98052.9
98051.4
98050.5
98050.1
98050.3
98051.1
98052.5
98054.6
98057.3
98060.7
98064.8
98069.5
98075
98081.1
98087.9
98095.4
98103.6
98112.4
98121.9
98132
98142.6
98153.8
98165.4
98177.6
98190.2
98203.1
98216.4
98230.1
98244
98258.1
98272.3
98286.7
98301.2
98315.7
98330.1
98344.5
98358.8
98372.8
98386.7
98400.3
98413.6
98426.5
98439
98451
98462.6
98473.7
98484.2
98494.2
98503.6
98512.5
98520.7
98528.3
98535.3
98541.7
98547.5
98552.8
98557.6
98561.8
98565.6
98569
98571.9
98574.5
98576.8
98578.8
98580.5
98582
98583.2
98584.2
98585.2
98586
98586.7
98587.5
98588.4
98589.5
98590.9
98592.8
98595.4
98598.9
98603.4
98609.3
98616.6
98625.8
98637
98650.5
98666.5
98685.1
98706.5
98730.8
98757.8
98788
98820.8
98856.5
98894.7
98935.7
98978.8
99024.2
99071.4
99120.5
99171.1
99223
99276
99329.6
99383.8
99437.8
99491.4
99544
99595.2
99644
99689.9
99731.9
99769.2
99800.6
99825.8
99843.3
99852.2
99851.7
99841.6
99821.2
99790.8
99750.1
99700.5
99641.9
99576.7
99505.1
99429.8
99350.3
99270.4
99187.4
99103.5
98275.7
98275.4
98274.6
98273.4
98271.8
98269.9
98267.5
98264.8
98261.8
98258.5
98254.9
98251
98246.9
98242.5
98238
98233.2
98228.4
98223.3
98218.2
98212.9
98207.5
98201.9
98196.3
98190.5
98184.6
98178.6
98172.6
98166.5
98160.3
98154.1
98147.9
98141.7
98135.6
98129.4
98123.3
98117.3
98111.4
98105.6
98100
98094.5
98089.1
98083.9
98079
98074.3
98069.9
98065.7
98061.9
98058.4
98055.3
98052.6
98050.2
98048.3
98046.8
98045.9
98045.4
98045.5
98046.1
98047.4
98049.2
98051.7
98054.8
98058.6
98063
98068.1
98073.9
98080.3
98087.4
98095.2
98103.5
98112.5
98122.1
98132.2
98142.9
98154
98165.6
98177.6
98190
98202.7
98215.6
98228.9
98242.3
98255.9
98269.6
98283.4
98297.1
98310.9
98324.5
98338
98351.4
98364.5
98377.3
98389.8
98402
98413.7
98425
98435.8
98446.2
98456
98465.3
98474
98482.2
98489.8
98496.8
98503.3
98509.2
98514.6
98519.5
98523.9
98527.8
98531.2
98534.3
98537
98539.5
98541.6
98543.3
98544.9
98546.1
98547.2
98548
98548.7
98549.2
98549.6
98550
98550.5
98551
98551.9
98553.1
98554.9
98557.5
98561
98565.7
98571.7
98579.5
98589.1
98600.9
98615
98631.5
98650.7
98672.6
98697.3
98724.7
98754.8
98787.5
98822.8
98860.7
98900.7
98942.9
98987
99032.8
99080.3
99129
99178.8
99229.5
99280.7
99331.8
99382.7
99432.7
99481.4
99528.1
99572
99612.4
99648.5
99679.1
99703.9
99721.6
99731.2
99732.2
99724.1
99706.4
99679.3
99642.5
99597.2
99543.2
99482.9
99416.1
99345.7
99270.9
99195.4
99116.7
99036.6
98254.5
98254.3
98253.6
98252.4
98250.9
98248.9
98246.7
98244.1
98241.1
98237.9
98234.4
98230.7
98226.8
98222.7
98218.4
98214
98209.5
98204.8
98200.1
98195.3
98190.3
98185.3
98180.1
98174.9
98169.5
98164.1
98158.6
98153.1
98147.5
98141.9
98136.2
98130.6
98125
98119.4
98113.8
98108.3
98102.8
98097.5
98092.3
98087.1
98082.1
98077.3
98072.6
98068.2
98064
98060
98056.4
98053
98050
98047.3
98045
98043.1
98041.6
98040.5
98040
98039.9
98040.4
98041.4
98043
98045.2
98048
98051.4
98055.4
98060
98065.3
98071.3
98077.8
98085
98092.8
98101.2
98110.1
98119.6
98129.6
98140.1
98150.9
98162.2
98173.8
98185.7
98197.9
98210.3
98222.9
98235.6
98248.4
98261.3
98274.2
98287
98299.7
98312.3
98324.7
98336.9
98348.8
98360.3
98371.6
98382.4
98392.8
98402.7
98412.1
98421
98429.4
98437.4
98444.7
98451.6
98457.9
98463.7
98469.1
98473.9
98478.2
98482.1
98485.6
98488.7
98491.4
98493.8
98496
98497.8
98499.3
98500.6
98501.6
98502.4
98502.9
98503.3
98503.4
98503.4
98503.4
98503.2
98503.2
98503.3
98503.7
98504.5
98505.9
98508.2
98511.5
98516
98522
98529.7
98539.3
98551.1
98565.2
98581.7
98600.8
98622.4
98646.6
98673.4
98702.6
98734.3
98768.5
98804.9
98843.2
98883.4
98925.5
98969.1
99014.1
99060.2
99107.2
99154.8
99202.4
99249.9
99296.7
99342.5
99386.5
99428.1
99466.4
99500.9
99530.3
99554.4
99572.1
99582.4
99584.8
99578.9
99564.2
99540.8
99508.4
99468
99419.5
99364.9
99303.8
99239.4
99170.4
99100.5
99027.3
98952.6
98231.1
98230.9
98230.2
98229.2
98227.8
98226
98223.8
98221.4
98218.6
98215.6
98212.3
98208.8
98205.1
98201.3
98197.3
98193.2
98189
98184.7
98180.4
98176
98171.5
98166.9
98162.2
98157.5
98152.7
98147.9
98142.9
98138
98133
98128
98123
98118
98112.9
98107.9
98102.9
98098
98093.1
98088.2
98083.5
98078.8
98074.3
98069.8
98065.5
98061.4
98057.5
98053.8
98050.3
98047.2
98044.3
98041.7
98039.4
98037.5
98036
98034.8
98034.1
98033.9
98034.2
98035
98036.3
98038.1
98040.5
98043.5
98047
98051.2
98055.9
98061.3
98067.2
98073.7
98080.9
98088.6
98096.8
98105.5
98114.7
98124.3
98134.4
98144.8
98155.5
98166.5
98177.7
98189.2
98200.8
98212.5
98224.3
98236.1
98247.9
98259.7
98271.3
98282.8
98294.2
98305.2
98316.1
98326.6
98336.7
98346.5
98355.8
98364.7
98373.1
98381
98388.5
98395.5
98402
98408
98413.5
98418.6
98423.2
98427.4
98431.1
98434.4
98437.4
98440.1
98442.4
98444.4
98446.2
98447.7
98448.9
98449.8
98450.5
98450.9
98451.1
98451
98450.7
98450.2
98449.6
98448.8
98448
98447.3
98446.7
98446.4
98446.5
98447.3
98449
98451.8
98455.8
98461.3
98468.6
98477.8
98489.1
98502.7
98518.5
98536.7
98557.4
98580.5
98605.9
98633.6
98663.7
98695.9
98730
98766.1
98803.9
98843.3
98884.2
98926.2
98969
99012.6
99056.4
99100.2
99143.5
99185.9
99226.8
99265.7
99301.6
99334.1
99362
99385.2
99402.6
99413.3
99417
99413.3
99401.5
99382.1
99354.2
99319.1
99276.3
99227.8
99173.1
99115.4
99052.9
98989.6
98922.7
98854.6
98206.6
98206.5
98205.9
98205
98203.7
98202.1
98200.2
98197.9
98195.4
98192.6
98189.6
98186.4
98183
98179.4
98175.8
98172
98168.1
98164.2
98160.3
98156.2
98152.1
98148
98143.8
98139.6
98135.3
98131
98126.6
98122.2
98117.8
98113.4
98109
98104.5
98100.1
98095.7
98091.3
98086.9
98082.6
98078.3
98074
98069.8
98065.7
98061.7
98057.8
98054
98050.4
98047
98043.8
98040.8
98038
98035.5
98033.3
98031.5
98029.9
98028.7
98027.9
98027.5
98027.5
98028.1
98029
98030.5
98032.5
98035
98038.1
98041.7
98045.8
98050.6
98055.8
98061.7
98068.1
98075
98082.4
98090.2
98098.6
98107.3
98116.4
98125.8
98135.6
98145.6
98155.8
98166.2
98176.7
98187.3
98198
98208.7
98219.3
98229.9
98240.4
98250.7
98260.8
98270.7
98280.4
98289.7
98298.7
98307.3
98315.5
98323.2
98330.6
98337.5
98343.9
98350
98355.5
98360.7
98365.3
98369.5
98373.4
98376.8
98379.9
98382.6
98385.1
98387.2
98389.1
98390.6
98391.9
98393
98393.8
98394.3
98394.6
98394.6
98394.3
98393.8
98393
98392
98390.7
98389.2
98387.6
98385.8
98384.2
98382.6
98381.4
98380.6
98380.6
98381.5
98383.4
98386.6
98391.3
98397.8
98406.1
98416.5
98429
98443.7
98460.6
98479.8
98501.2
98524.8
98550.5
98578.4
98608.1
98639.9
98673.3
98708.3
98744.8
98782.5
98821
98860.3
98900
98939.9
98979.5
99018.3
99055.7
99091.4
99124.7
99154.9
99180.9
99202.9
99219.6
99230.6
99235.2
99233.6
99224.7
99208.9
99185.5
99155.6
99118.6
99076.5
99028.5
98977.7
98922.2
98866
98806
98745.2
98182.4
98182.4
98181.9
98181.1
98180.1
98178.7
98177
98175
98172.7
98170.2
98167.5
98164.6
98161.5
98158.3
98154.9
98151.5
98148
98144.5
98140.8
98137.2
98133.5
98129.7
98126
98122.2
98118.4
98114.6
98110.7
98106.9
98103
98099.1
98095.2
98091.3
98087.4
98083.6
98079.7
98075.9
98072
98068.2
98064.5
98060.7
98057
98053.4
98049.9
98046.4
98043.1
98040
98037
98034.2
98031.6
98029.2
98027
98025.2
98023.6
98022.3
98021.4
98020.8
98020.6
98020.9
98021.6
98022.7
98024.3
98026.3
98028.9
98031.9
98035.5
98039.5
98044.1
98049.2
98054.8
98060.9
98067.5
98074.5
98081.9
98089.7
98097.8
98106.3
98115
98123.9
98133.1
98142.4
98151.7
98161.2
98170.7
98180.2
98189.6
98199
98208.2
98217.3
98226.2
98234.8
98243.2
98251.3
98259.1
98266.4
98273.5
98280.1
98286.3
98292.1
98297.5
98302.5
98307.1
98311.3
98315.1
98318.5
98321.6
98324.3
98326.7
98328.7
98330.5
98332.1
98333.4
98334.5
98335.3
98335.9
98336.2
98336.3
98336.1
98335.6
98334.8
98333.8
98332.4
98330.7
98328.7
98326.4
98323.9
98321.1
98318.3
98315.5
98312.8
98310.5
98308.7
98307.6
98307.3
98308.1
98310.3
98314
98319.3
98326.5
98335.6
98346.7
98359.8
98375.1
98392.5
98411.9
98433.3
98456.8
98482.2
98509.6
98538.6
98569.2
98601.2
98634.5
98668.7
98703.7
98739.3
98775.3
98810.9
98845.9
98879.7
98912.1
98942.3
98969.9
98993.7
99014
99029.8
99040.6
99046
99046
99039.5
99027.1
99007.7
98982.9
98951.4
98915.5
98874.2
98830.5
98782
98733.2
98680.5
98627.4
98159.6
98159.6
98159.3
98158.6
98157.7
98156.5
98155.1
98153.3
98151.4
98149.2
98146.8
98144.2
98141.5
98138.6
98135.6
98132.5
98129.4
98126.2
98122.9
98119.7
98116.3
98113
98109.7
98106.3
98103
98099.6
98096.2
98092.8
98089.4
98086
98082.6
98079.1
98075.7
98072.3
98068.9
98065.5
98062.2
98058.8
98055.4
98052.1
98048.7
98045.5
98042.2
98039.1
98036.1
98033.1
98030.3
98027.7
98025.2
98022.9
98020.8
98018.9
98017.3
98015.9
98014.9
98014.1
98013.7
98013.7
98014.1
98014.8
98016
98017.6
98019.7
98022.2
98025.1
98028.6
98032.5
98036.9
98041.7
98047
98052.7
98058.9
98065.4
98072.2
98079.4
98086.8
98094.5
98102.4
98110.4
98118.6
98126.9
98135.2
98143.5
98151.7
98160
98168.1
98176
98183.9
98191.5
98198.8
98206
98212.8
98219.3
98225.5
98231.3
98236.8
98241.8
98246.5
98250.9
98254.8
98258.4
98261.7
98264.6
98267.1
98269.4
98271.3
98273
98274.4
98275.5
98276.5
98277.3
98277.8
98278
98278.1
98277.8
98277.4
98276.6
98275.6
98274.3
98272.6
98270.6
98268.2
98265.4
98262.2
98258.7
98254.9
98250.9
98246.9
98242.8
98238.9
98235.3
98232.3
98229.8
98228.3
98227.9
98228.9
98231.3
98235.3
98241
98248.6
98258.1
98269.6
98283.1
98298.6
98315.8
98335.1
98356.2
98379.3
98404
98430.3
98458
98487
98516.9
98547.8
98579.2
98611.2
98642.8
98673.9
98704
98732.9
98759.8
98784.6
98806
98824.2
98838.6
98848.9
98854.5
98855.6
98851
98841.3
98825.7
98805.3
98778.9
98749
98714.3
98677.4
98635.9
98594.5
98549
98503.8
98138.9
98139
98138.8
98138.3
98137.5
98136.6
98135.4
98133.9
98132.3
98130.4
98128.3
98126.1
98123.7
98121.2
98118.6
98115.9
98113.1
98110.3
98107.4
98104.5
98101.6
98098.6
98095.7
98092.7
98089.8
98086.8
98083.8
98080.8
98077.8
98074.8
98071.7
98068.7
98065.7
98062.7
98059.7
98056.6
98053.6
98050.6
98047.5
98044.5
98041.4
98038.4
98035.5
98032.5
98029.7
98026.9
98024.3
98021.7
98019.3
98017.1
98015
98013.1
98011.4
98009.9
98008.7
98007.8
98007.2
98006.9
98007
98007.4
98008.2
98009.4
98011
98013
98015.4
98018.2
98021.5
98025.2
98029.3
98033.8
98038.7
98044
98049.7
98055.6
98061.8
98068.3
98075
98081.8
98088.8
98095.9
98103
98110.2
98117.3
98124.4
98131.4
98138.3
98145.1
98151.6
98158
98164.1
98170
98175.6
98180.9
98185.8
98190.5
98194.7
98198.7
98202.2
98205.5
98208.4
98211
98213.3
98215.3
98217
98218.4
98219.6
98220.5
98221.2
98221.7
98222
98222.1
98222
98221.6
98221.1
98220.3
98219.2
98217.9
98216.2
98214.2
98211.9
98209.1
98206
98202.4
98198.3
98193.9
98189
98183.9
98178.5
98173.2
98167.8
98162.4
98157.5
98153.1
98149.4
98146.5
98144.8
98144.5
98145.5
98148
98152.3
98158.3
98166.2
98176
98187.7
98201.1
98216.5
98233.5
98252.7
98273.4
98295.6
98319.1
98343.9
98369.7
98396.6
98424
98451.9
98479.5
98506.8
98533.1
98558.3
98582
98603.7
98622.5
98638.3
98650.8
98660
98665.2
98666.7
98663.5
98656
98643.4
98626.9
98605.2
98580.9
98552.1
98521.7
98486.9
98452.6
98414.4
98376.9
98121.1
98121.2
98121.1
98120.7
98120.1
98119.4
98118.4
98117.2
98115.9
98114.3
98112.6
98110.7
98108.7
98106.5
98104.3
98102
98099.6
98097.1
98094.6
98092.1
98089.6
98087
98084.4
98081.8
98079.2
98076.6
98074
98071.3
98068.6
98065.9
98063.2
98060.5
98057.8
98055.1
98052.4
98049.6
98046.8
98044
98041.2
98038.4
98035.6
98032.7
98029.9
98027.1
98024.4
98021.8
98019.2
98016.7
98014.3
98012
98009.9
98008
98006.2
98004.6
98003.3
98002.2
98001.4
98000.8
98000.6
98000.7
98001.2
98002
98003.1
98004.7
98006.6
98008.9
98011.6
98014.6
98018.1
98021.9
98026.1
98030.6
98035.4
98040.5
98045.8
98051.4
98057.1
98063
98069
98075
98081.1
98087.1
98093.2
98099.1
98105
98110.7
98116.3
98121.7
98126.8
98131.7
98136.4
98140.8
98144.9
98148.6
98152.1
98155.2
98158
98160.5
98162.7
98164.6
98166.2
98167.5
98168.6
98169.4
98170
98170.3
98170.4
98170.4
98170.2
98169.8
98169.2
98168.4
98167.4
98166.2
98164.8
98163.1
98161
98158.7
98155.9
98152.9
98149.3
98145.4
98140.9
98135.9
98130.5
98124.7
98118.5
98112
98105.3
98098.5
98091.6
98085
98078.7
98072.9
98067.9
98063.8
98060.8
98059
98058.6
98059.9
98062.7
98067.3
98073.7
98081.9
98091.9
98103.6
98117.1
98132.6
98149.5
98168
98187.6
98208.6
98230.6
98253.5
98277.1
98301
98324.7
98348.2
98370.8
98392.2
98412.4
98430.9
98446.8
98460
98470.2
98477.6
98481.7
98483
98480.4
98474.6
98464.5
98451.3
98433.6
98414.1
98390.9
98366.3
98337.8
98310.3
98279
98249
98106.4
98106.6
98106.5
98106.3
98105.9
98105.3
98104.6
98103.6
98102.6
98101.3
98099.9
98098.4
98096.7
98095
98093.1
98091.2
98089.2
98087.1
98085
98082.9
98080.7
98078.5
98076.3
98074.1
98071.8
98069.5
98067.1
98064.7
98062.3
98059.9
98057.5
98055
98052.5
98050
98047.4
98044.8
98042.2
98039.6
98036.9
98034.2
98031.5
98028.7
98026
98023.3
98020.6
98018
98015.4
98012.9
98010.5
98008.2
98006
98003.9
98002
98000.3
97998.8
97997.6
97996.5
97995.8
97995.3
97995.1
97995.3
97995.8
97996.5
97997.7
97999.1
98001
98003.1
98005.6
98008.5
98011.7
98015.1
98018.9
98023
98027.3
98031.9
98036.6
98041.4
98046.4
98051.5
98056.6
98061.7
98066.7
98071.7
98076.6
98081.4
98086
98090.5
98094.7
98098.8
98102.5
98106
98109.3
98112.2
98114.9
98117.2
98119.2
98121
98122.4
98123.5
98124.3
98124.9
98125.3
98125.5
98125.4
98125.1
98124.6
98123.9
98123
98122
98120.9
98119.5
98118
98116.3
98114.4
98112.2
98109.8
98107
98103.9
98100.4
98096.6
98092.2
98087.5
98082.2
98076.3
98070
98063.2
98056
98048.4
98040.5
98032.4
98024.1
98016
98008
98000.4
97993.4
97987.1
97981.8
97977.6
97974.6
97973.1
97973.1
97974.8
97978.1
97983.3
97990.2
97998.8
98009.1
98021.2
98034.8
98049.9
98066.1
98083.5
98101.9
98121.1
98141.1
98161.2
98181.2
98201
98219.7
98237.4
98253.9
98268.8
98281.7
98292
98299.6
98304.9
98307.2
98307.5
98304.9
98300
98291.7
98281.2
98267
98251.6
98233
98213.8
98191.1
98169.9
98144.9
98122.1
98095
98095.2
98095.2
98095.1
98094.8
98094.4
98093.9
98093.2
98092.4
98091.4
98090.4
98089.2
98087.9
98086.5
98085
98083.5
98081.9
98080.3
98078.6
98076.8
98075.1
98073.2
98071.4
98069.4
98067.5
98065.4
98063.3
98061.2
98059
98056.8
98054.5
98052.2
98049.8
98047.4
98045
98042.5
98039.9
98037.3
98034.7
98032
98029.3
98026.6
98023.8
98021.1
98018.4
98015.7
98013.1
98010.5
98008
98005.6
98003.3
98001.1
97999.1
97997.3
97995.6
97994.2
97993
97992
97991.3
97990.9
97990.8
97990.9
97991.4
97992.2
97993.3
97994.7
97996.4
97998.4
98000.7
98003.4
98006.3
98009.5
98012.9
98016.5
98020.4
98024.3
98028.4
98032.6
98036.8
98041
98045.3
98049.4
98053.5
98057.4
98061.2
98064.8
98068.3
98071.5
98074.4
98077.1
98079.5
98081.7
98083.5
98085.1
98086.4
98087.4
98088
98088.4
98088.5
98088.3
98087.9
98087.4
98086.6
98085.6
98084.4
98083
98081.5
98079.9
98078
98076
98073.9
98071.6
98069.1
98066.4
98063.4
98060.2
98056.6
98052.8
98048.5
98043.8
98038.7
98033.1
98027
98020.3
98013.1
98005.4
97997.2
97988.6
97979.6
97970.4
97961
97951.5
97942
97932.9
97924.1
97915.9
97908.6
97902.2
97897
97893.2
97890.8
97890
97890.8
97893.3
97897.4
97903.3
97910.8
97919.9
97930.5
97942.6
97955.7
97969.9
97985
98000.9
98017.3
98034
98050.4
98066.5
98081.4
98095.3
98108
98119.3
98128.9
98136.1
98140.8
98143.7
98143.9
98142.6
98139.3
98134.7
98127.4
98118.9
98107.5
98095.5
98080.8
98066.4
98048.8
98033.4
98014.2
97998.1
98086.6
98086.8
98086.9
98086.9
98086.8
98086.6
98086.2
98085.8
98085.3
98084.6
98083.9
98083.1
98082.2
98081.2
98080.2
98079.1
98077.9
98076.7
98075.4
98074.1
98072.7
98071.2
98069.7
98068
98066.3
98064.5
98062.6
98060.7
98058.7
98056.6
98054.4
98052.2
98049.9
98047.5
98045.1
98042.6
98040
98037.4
98034.7
98032
98029.2
98026.4
98023.6
98020.7
98017.9
98015.1
98012.4
98009.7
98007
98004.5
98002.1
97999.7
97997.6
97995.6
97993.8
97992.1
97990.8
97989.6
97988.7
97988.1
97987.7
97987.6
97987.9
97988.3
97989.1
97990.2
97991.5
97993.2
97995.1
97997.3
97999.7
98002.4
98005.3
98008.3
98011.5
98014.8
98018.2
98021.7
98025.2
98028.7
98032.1
98035.5
98038.7
98041.8
98044.7
98047.4
98049.8
98052.1
98054.1
98055.8
98057.2
98058.3
98059.2
98059.7
98060
98060
98059.6
98059
98058.1
98057
98055.7
98054.1
98052.4
98050.5
98048.4
98046.2
98043.8
98041.3
98038.6
98035.7
98032.7
98029.6
98026.3
98022.7
98018.9
98014.8
98010.5
98005.8
98000.7
97995.2
97989.2
97982.8
97975.9
97968.4
97960.4
97951.9
97942.9
97933.4
97923.5
97913.4
97902.9
97892.3
97881.6
97871.1
97860.9
97851.1
97842.1
97834
97826.9
97821.1
97816.7
97813.7
97812.3
97812.6
97814.4
97817.9
97822.8
97829.4
97837.3
97846.6
97856.9
97868.4
97880.5
97893.3
97906.5
97919.8
97932.7
97945.3
97956.5
97966.7
97975.6
97983.2
97989.2
97993.1
97994.9
97995.3
97993.1
97989.8
97985.3
97980.1
97973.4
97966.1
97956.8
97947.5
97936.1
97925.8
97912.7
97902.3
97888.3
97878.5
98080.6
98080.9
98081.1
98081.2
98081.2
98081.1
98081
98080.8
98080.6
98080.3
98080
98079.6
98079.2
98078.7
98078.1
98077.5
98076.8
98076
98075.2
98074.2
98073.2
98072.1
98070.8
98069.5
98068
98066.4
98064.8
98063
98061
98059
98056.9
98054.7
98052.4
98050
98047.5
98044.9
98042.3
98039.5
98036.7
98033.9
98031
98028
98025.1
98022.1
98019.1
98016.1
98013.2
98010.3
98007.5
98004.8
98002.2
97999.8
97997.4
97995.3
97993.3
97991.6
97990
97988.7
97987.6
97986.8
97986.3
97986
97986
97986.2
97986.8
97987.6
97988.6
97990
97991.6
97993.4
97995.4
97997.7
98000.1
98002.7
98005.4
98008.1
98011
98013.8
98016.7
98019.5
98022.3
98024.9
98027.4
98029.7
98031.8
98033.7
98035.3
98036.7
98037.8
98038.6
98039.1
98039.3
98039.2
98038.9
98038.2
98037.2
98035.9
98034.4
98032.5
98030.4
98028.2
98025.7
98023
98020.2
98017.3
98014.1
98010.9
98007.5
98003.9
98000.2
97996.3
97992.3
97988.1
97983.6
97979
97974
97968.8
97963.2
97957.3
97951
97944.3
97937.1
97929.3
97921.1
97912.5
97903.3
97893.5
97883.3
97872.7
97861.7
97850.4
97838.9
97827.3
97815.6
97804.2
97793.2
97782.8
97773.3
97764.7
97757.3
97751.1
97746.5
97743.2
97741.6
97741.4
97742.8
97745.5
97749.8
97755.4
97762.2
97770.1
97779.1
97788.5
97798.4
97808.5
97818.5
97828.2
97837.3
97845
97851.5
97856.6
97860.5
97862.8
97863.3
97862
97859.7
97855.2
97849.7
97843.6
97837.4
97830.6
97824
97816
97808.8
97800.1
97793.2
97783.8
97778
97768.6
97764.3
98076.3
98076.6
98076.8
98077
98077.1
98077.3
98077.5
98077.7
98077.9
98078.1
98078.3
98078.4
98078.6
98078.6
98078.6
98078.5
98078.2
98077.9
98077.5
98076.9
98076.3
98075.4
98074.5
98073.4
98072.1
98070.7
98069.2
98067.5
98065.6
98063.6
98061.5
98059.3
98056.9
98054.4
98051.8
98049.1
98046.3
98043.5
98040.5
98037.5
98034.4
98031.3
98028.1
98024.9
98021.8
98018.6
98015.5
98012.4
98009.5
98006.6
98003.8
98001.2
97998.7
97996.4
97994.3
97992.4
97990.7
97989.3
97988.1
97987.1
97986.4
97986
97985.8
97985.9
97986.2
97986.8
97987.7
97988.8
97990.1
97991.6
97993.4
97995.3
97997.4
97999.5
98001.8
98004.2
98006.5
98008.9
98011.2
98013.5
98015.6
98017.6
98019.4
98021.1
98022.5
98023.6
98024.5
98025.1
98025.4
98025.4
98025.1
98024.4
98023.5
98022.3
98020.7
98018.8
98016.7
98014.2
98011.5
98008.5
98005.4
98002
97998.4
97994.8
97990.9
97986.9
97982.8
97978.5
97974
97969.4
97964.7
97959.8
97954.6
97949.3
97943.7
97937.9
97931.9
97925.5
97918.8
97911.7
97904.1
97896.1
97887.7
97878.9
97869.6
97859.8
97849.4
97838.6
97827.4
97815.8
97803.8
97791.6
97779.2
97766.7
97754.4
97742.4
97731.1
97720.4
97710.6
97701.9
97694.4
97688.2
97683.4
97680.1
97678.2
97677.8
97678.8
97681.2
97684.7
97689.3
97695
97701.7
97708.8
97715.9
97723
97729.9
97736.5
97742.2
97746.5
97749.6
97750.9
97751.1
97749.6
97746.7
97742.3
97737.1
97730.1
97722.5
97714.5
97707
97699.6
97693.2
97686
97680.4
97673.6
97669.5
97663.1
97661.4
97656
97656.7
98072.6
98072.7
98073
98073.1
98073.4
98073.9
98074.5
98075.3
98076.1
98077.1
98077.9
98078.8
98079.6
98080.3
98080.9
98081.3
98081.6
98081.7
98081.7
98081.5
98081.1
98080.6
98079.9
98079
98077.9
98076.6
98075.2
98073.5
98071.7
98069.7
98067.5
98065.2
98062.8
98060.2
98057.5
98054.7
98051.7
98048.7
98045.5
98042.3
98039.1
98035.7
98032.4
98029
98025.6
98022.3
98019
98015.7
98012.6
98009.5
98006.6
98003.8
98001.2
97998.8
97996.6
97994.6
97992.8
97991.2
97989.9
97988.8
97988
97987.5
97987.2
97987.1
97987.3
97987.8
97988.5
97989.4
97990.6
97991.9
97993.4
97995.1
97996.8
97998.7
98000.7
98002.6
98004.6
98006.5
98008.4
98010.1
98011.8
98013.2
98014.5
98015.5
98016.3
98016.8
98017
98016.9
98016.5
98015.7
98014.7
98013.3
98011.6
98009.5
98007.2
98004.5
98001.5
97998.3
97994.7
97990.9
97986.9
97982.6
97978.2
97973.7
97969
97964.2
97959.2
97954
97948.7
97943.2
97937.6
97931.8
97925.8
97919.6
97913.1
97906.5
97899.6
97892.4
97884.9
97877.1
97868.9
97860.2
97851.2
97841.8
97831.9
97821.5
97810.7
97799.5
97787.8
97775.7
97763.2
97750.4
97737.4
97724.4
97711.4
97698.8
97686.7
97675.2
97664.3
97654.5
97645.9
97638.5
97632.4
97627.7
97624.4
97622.5
97622
97622.7
97624.3
97627
97630.8
97635.4
97640.2
97644.8
97649.1
97653
97656.5
97659.1
97660.3
97660
97657.7
97654.1
97649
97642.6
97635
97626.8
97617.4
97607.5
97597.7
97588.9
97580.6
97573.9
97567.1
97562.5
97557.2
97555.2
97551.5
97553.2
97551.4
97556.3
98067.7
98067.7
98067.8
98068.1
98068.8
98070.1
98071.5
98073.3
98075.1
98076.9
98078.7
98080.3
98081.9
98083.3
98084.5
98085.4
98086.2
98086.8
98087.1
98087.2
98087.1
98086.8
98086.3
98085.6
98084.6
98083.4
98082
98080.4
98078.6
98076.6
98074.4
98072
98069.5
98066.8
98063.9
98061
98057.9
98054.7
98051.3
98047.9
98044.5
98041
98037.4
98033.9
98030.3
98026.8
98023.3
98019.9
98016.6
98013.5
98010.4
98007.5
98004.8
98002.3
97999.9
97997.8
97996
97994.3
97993
97991.8
97990.9
97990.3
97989.9
97989.8
97989.9
97990.3
97990.9
97991.7
97992.7
97993.9
97995.2
97996.6
97998.2
97999.8
98001.4
98003.1
98004.7
98006.2
98007.7
98009
98010.2
98011.1
98011.9
98012.4
98012.6
98012.5
98012.1
98011.4
98010.3
98008.9
98007.2
98005.1
98002.6
97999.9
97996.8
97993.3
97989.6
97985.6
97981.3
97976.7
97971.9
97966.9
97961.7
97956.3
97950.8
97945.2
97939.4
97933.4
97927.3
97921
97914.6
97907.9
97901.1
97894
97886.8
97879.4
97871.7
97863.8
97855.6
97847.1
97838.2
97829
97819.5
97809.5
97799.2
97788.4
97777.2
97765.6
97753.6
97741.2
97728.2
97715
97701.6
97688.2
97674.9
97661.9
97649.2