/*--------------------------------*- C++ -*----------------------------------*\
| =========                 |                                                 |
| \\      /  F ield         | OpenFOAM: The Open Source CFD Toolbox           |
|  \\    /   O peration     | Version:  dev                                   |
|   \\  /    A nd           | Web:      http://www.openfoam.org               |
|    \\/     M anipulation  |                                                 |
\*---------------------------------------------------------------------------*/
FoamFile
{
    version     2.0;
    format      ascii;
    class       volScalarField;
    object      pPrime2Mean;
    location    "9.124";
}
// * * * * * * * * * * * * * * * * * * * * * * * * * * * * * * * * * * * * * //

dimensions      [2 -2 -4 0 0 0 0];

internalField   nonuniform List<scalar> 
12225
(
5.03829e+07
4.9918e+07
4.89575e+07
4.76067e+07
4.59533e+07
4.40868e+07
4.20664e+07
3.99639e+07
3.78203e+07
3.56836e+07
3.35914e+07
3.15466e+07
2.96233e+07
2.77523e+07
2.60047e+07
2.44437e+07
2.28815e+07
2.13006e+07
5.0275e+07
4.98101e+07
4.88504e+07
4.75013e+07
4.58494e+07
4.39853e+07
4.19676e+07
3.98678e+07
3.77281e+07
3.5594e+07
3.35065e+07
3.14654e+07
2.95468e+07
2.76826e+07
2.59524e+07
2.43916e+07
2.28823e+07
2.15473e+07
5.00247e+07
4.95604e+07
4.86012e+07
4.72551e+07
4.56077e+07
4.37483e+07
4.17375e+07
3.96439e+07
3.75123e+07
3.53863e+07
3.33073e+07
3.1278e+07
2.93653e+07
2.75184e+07
2.58081e+07
2.42522e+07
2.28168e+07
2.1603e+07
4.95887e+07
4.91274e+07
4.81705e+07
4.68296e+07
4.51901e+07
4.33393e+07
4.134e+07
3.9257e+07
3.71402e+07
3.50277e+07
3.29645e+07
3.0953e+07
2.90576e+07
2.723e+07
2.55494e+07
2.40183e+07
2.26316e+07
2.15302e+07
4.89232e+07
4.8462e+07
4.75099e+07
4.61784e+07
4.45508e+07
4.27145e+07
4.07311e+07
3.86674e+07
3.65696e+07
3.44813e+07
3.24383e+07
3.04576e+07
2.85848e+07
2.67933e+07
2.51651e+07
2.36563e+07
2.2375e+07
2.13101e+07
4.79734e+07
4.75096e+07
4.6567e+07
4.5249e+07
4.36393e+07
4.18228e+07
3.9864e+07
3.78259e+07
3.57583e+07
3.36996e+07
3.16909e+07
2.97444e+07
2.79099e+07
2.6165e+07
2.45862e+07
2.3147e+07
2.19202e+07
2.08634e+07
4.66775e+07
4.62125e+07
4.52854e+07
4.39836e+07
4.24001e+07
4.06092e+07
3.86861e+07
3.66814e+07
3.46567e+07
3.2637e+07
3.06767e+07
2.87758e+07
2.69927e+07
2.53056e+07
2.37838e+07
2.24048e+07
2.12363e+07
2.02083e+07
4.52345e+07
4.4771e+07
4.38602e+07
4.25763e+07
4.10215e+07
3.92603e+07
3.73757e+07
3.541e+07
3.34306e+07
3.14571e+07
2.95467e+07
2.76995e+07
2.59679e+07
2.4344e+07
2.28708e+07
2.15549e+07
2.04191e+07
1.94593e+07
4.37186e+07
4.32587e+07
4.23641e+07
4.11e+07
3.95747e+07
3.7846e+07
3.60008e+07
3.40775e+07
3.21443e+07
3.02203e+07
2.83609e+07
2.65693e+07
2.48916e+07
2.33284e+07
2.19073e+07
2.06476e+07
1.95538e+07
1.86552e+07
4.17771e+07
4.13239e+07
4.04488e+07
3.92123e+07
3.77235e+07
3.60387e+07
3.42423e+07
3.23752e+07
3.04992e+07
2.86402e+07
2.68436e+07
2.51237e+07
2.3512e+07
2.20236e+07
2.06688e+07
1.94768e+07
1.84399e+07
1.75872e+07
3.93269e+07
3.88836e+07
3.80321e+07
3.68323e+07
3.53893e+07
3.37617e+07
3.20274e+07
3.02312e+07
2.84285e+07
2.66498e+07
2.49335e+07
2.32996e+07
2.17717e+07
2.03695e+07
1.90978e+07
1.79826e+07
1.70126e+07
1.62062e+07
3.63015e+07
3.58731e+07
3.50497e+07
3.3899e+07
3.25132e+07
3.09588e+07
2.93019e+07
2.75949e+07
2.58827e+07
2.42029e+07
2.25848e+07
2.10539e+07
1.9627e+07
1.83241e+07
1.7149e+07
1.61182e+07
1.52239e+07
1.44707e+07
3.26861e+07
3.22764e+07
3.14894e+07
3.03997e+07
2.90863e+07
2.76209e+07
2.60598e+07
2.44593e+07
2.28573e+07
2.1294e+07
1.97928e+07
1.8381e+07
1.70705e+07
1.58799e+07
1.48114e+07
1.38742e+07
1.30633e+07
1.23753e+07
2.85719e+07
2.8185e+07
2.74447e+07
2.64274e+07
2.52023e+07
2.38404e+07
2.23933e+07
2.0915e+07
1.94411e+07
1.80088e+07
1.66404e+07
1.53593e+07
1.41774e+07
1.31074e+07
1.21526e+07
1.13158e+07
1.05936e+07
9.97975e+06
2.42446e+07
2.38841e+07
2.31999e+07
2.22634e+07
2.11384e+07
1.98908e+07
1.85693e+07
1.72233e+07
1.58871e+07
1.45936e+07
1.33642e+07
1.22182e+07
1.11668e+07
1.02185e+07
9.37613e+06
8.63953e+06
8.00554e+06
7.46748e+06
2.02951e+07
1.99633e+07
1.93387e+07
1.84839e+07
1.74604e+07
1.63259e+07
1.51281e+07
1.39102e+07
1.27059e+07
1.15431e+07
1.04425e+07
9.41984e+06
8.48504e+06
7.64416e+06
6.89908e+06
6.24853e+06
5.68935e+06
5.21531e+06
1.77279e+07
1.74217e+07
1.68473e+07
1.60604e+07
1.51192e+07
1.40757e+07
1.29752e+07
1.18568e+07
1.0752e+07
9.68609e+06
8.67791e+06
7.74104e+06
6.88421e+06
6.11217e+06
5.4263e+06
4.82521e+06
4.30592e+06
3.86308e+06
1.78364e+07
1.7542e+07
1.69898e+07
1.62325e+07
1.5326e+07
1.43194e+07
1.32564e+07
1.21739e+07
1.11019e+07
1.00641e+07
9.07838e+06
8.15727e+06
7.30892e+06
6.53781e+06
5.84535e+06
5.2307e+06
4.69135e+06
4.22297e+06
2.07159e+07
2.0417e+07
1.9855e+07
1.90826e+07
1.81565e+07
1.7126e+07
1.60343e+07
1.49183e+07
1.38077e+07
1.27259e+07
1.16907e+07
1.07145e+07
9.80573e+06
8.9691e+06
8.20655e+06
7.51799e+06
6.90158e+06
6.35395e+06
2.52068e+07
2.4895e+07
2.4305e+07
2.34914e+07
2.25138e+07
2.14229e+07
2.02634e+07
1.90728e+07
1.78817e+07
1.6714e+07
1.5588e+07
1.45168e+07
1.35091e+07
1.25704e+07
1.17033e+07
1.09085e+07
1.01849e+07
9.52994e+06
3.02706e+07
2.99447e+07
2.93213e+07
2.84583e+07
2.74182e+07
2.62541e+07
2.50125e+07
2.37324e+07
2.24456e+07
2.1177e+07
1.99458e+07
1.87656e+07
1.76462e+07
1.65937e+07
1.56113e+07
1.47006e+07
1.38612e+07
1.30913e+07
3.51887e+07
3.48511e+07
3.41967e+07
3.32865e+07
3.21862e+07
3.09509e+07
2.9629e+07
2.82612e+07
2.68808e+07
2.55136e+07
2.41798e+07
2.2894e+07
2.16666e+07
2.05045e+07
1.94117e+07
1.83905e+07
1.74409e+07
1.65621e+07
3.95417e+07
3.91957e+07
3.85159e+07
3.7566e+07
3.64141e+07
3.51169e+07
3.37249e+07
3.22801e+07
3.08172e+07
2.93631e+07
2.79389e+07
2.65599e+07
2.52375e+07
2.3979e+07
2.27893e+07
2.16712e+07
2.06252e+07
1.96511e+07
4.31405e+07
4.27894e+07
4.20903e+07
4.11094e+07
3.99163e+07
3.85693e+07
3.71202e+07
3.56126e+07
3.40819e+07
3.25564e+07
3.10577e+07
2.9602e+07
2.82013e+07
2.68636e+07
2.55942e+07
2.43964e+07
2.32712e+07
2.22188e+07
4.59513e+07
4.55973e+07
4.48843e+07
4.38805e+07
4.26564e+07
4.12713e+07
3.97783e+07
3.82219e+07
3.66388e+07
3.50577e+07
3.35011e+07
3.19858e+07
3.05241e+07
2.91247e+07
2.77934e+07
2.65336e+07
2.53468e+07
2.42335e+07
4.80312e+07
4.76756e+07
4.6953e+07
4.59331e+07
4.46865e+07
4.32737e+07
4.17486e+07
4.01566e+07
3.85348e+07
3.69128e+07
3.53136e+07
3.37543e+07
3.22478e+07
3.0803e+07
2.9426e+07
2.81206e+07
2.68885e+07
2.57303e+07
4.94813e+07
4.91248e+07
4.83956e+07
4.73647e+07
4.61029e+07
4.46712e+07
4.31241e+07
4.15075e+07
3.98591e+07
3.82089e+07
3.65801e+07
3.49904e+07
3.34528e+07
3.19765e+07
3.05679e+07
2.92308e+07
2.79673e+07
2.67779e+07
5.04171e+07
5.00596e+07
4.93262e+07
4.82886e+07
4.7017e+07
4.55733e+07
4.40122e+07
4.238e+07
4.07146e+07
3.90463e+07
3.73986e+07
3.57894e+07
3.42318e+07
3.27353e+07
3.13063e+07
2.99489e+07
2.86652e+07
2.74559e+07
5.09466e+07
5.05887e+07
4.98538e+07
4.88131e+07
4.75362e+07
4.60859e+07
4.45169e+07
4.28758e+07
4.12006e+07
3.95218e+07
3.78632e+07
3.62428e+07
3.46737e+07
3.31656e+07
3.17248e+07
3.03557e+07
2.90607e+07
2.78403e+07
5.1169e+07
5.08126e+07
5.00757e+07
4.90333e+07
4.77538e+07
4.63006e+07
4.47283e+07
4.30833e+07
4.14039e+07
3.97206e+07
3.80573e+07
3.6432e+07
3.48581e+07
3.33449e+07
3.18992e+07
3.05252e+07
2.92254e+07
2.80006e+07
6.04963e+07
6.04372e+07
6.03065e+07
6.01006e+07
5.98177e+07
5.94571e+07
5.90189e+07
5.85037e+07
5.79128e+07
5.72475e+07
5.65099e+07
5.57019e+07
5.48258e+07
5.38844e+07
5.28802e+07
5.18163e+07
5.0696e+07
4.95227e+07
4.83001e+07
4.70321e+07
4.57226e+07
4.43758e+07
4.29959e+07
4.15872e+07
4.01543e+07
3.87016e+07
3.72337e+07
3.5755e+07
3.427e+07
3.27833e+07
3.12994e+07
2.9823e+07
2.83585e+07
2.69107e+07
2.54842e+07
2.40834e+07
2.27129e+07
2.13777e+07
2.00822e+07
1.88314e+07
1.763e+07
1.64829e+07
1.53951e+07
1.43717e+07
1.34178e+07
1.25387e+07
1.17396e+07
1.10259e+07
1.04031e+07
9.87647e+06
9.45161e+06
9.13391e+06
8.92875e+06
8.84141e+06
8.87698e+06
9.04027e+06
9.33584e+06
9.76794e+06
1.03404e+07
1.10566e+07
1.19191e+07
1.29302e+07
1.40912e+07
1.5403e+07
1.68654e+07
1.84777e+07
2.02383e+07
2.21446e+07
2.41936e+07
2.63814e+07
2.87034e+07
3.11544e+07
3.37285e+07
3.64192e+07
3.92196e+07
4.21227e+07
4.51208e+07
4.82062e+07
5.13711e+07
5.46075e+07
5.79073e+07
6.12623e+07
6.46642e+07
6.81044e+07
7.15743e+07
7.5065e+07
7.85673e+07
8.20718e+07
8.55684e+07
8.90468e+07
9.2496e+07
9.59046e+07
9.92605e+07
1.02551e+08
1.05764e+08
1.08887e+08
1.11906e+08
1.14811e+08
1.17589e+08
1.20229e+08
1.22724e+08
1.25063e+08
1.27241e+08
1.29251e+08
1.3109e+08
1.32755e+08
1.34248e+08
1.3557e+08
1.36727e+08
1.37726e+08
1.38577e+08
1.39292e+08
1.39885e+08
1.40368e+08
1.40761e+08
1.41078e+08
1.41342e+08
1.41571e+08
1.41792e+08
1.42029e+08
1.42313e+08
1.42676e+08
1.43156e+08
1.43792e+08
1.44628e+08
1.45711e+08
1.47094e+08
1.48833e+08
1.5099e+08
1.53626e+08
1.56806e+08
1.6059e+08
1.65042e+08
1.70217e+08
1.76169e+08
1.82943e+08
1.90575e+08
1.99093e+08
2.08511e+08
2.18831e+08
2.30049e+08
2.42141e+08
2.5508e+08
2.68825e+08
2.83332e+08
2.98539e+08
3.14398e+08
3.30836e+08
3.47792e+08
3.6519e+08
3.82956e+08
4.01007e+08
4.19253e+08
4.37599e+08
4.55926e+08
4.74093e+08
4.91936e+08
5.09286e+08
5.2591e+08
5.41572e+08
5.55975e+08
5.68818e+08
5.7976e+08
5.88478e+08
5.94637e+08
5.97939e+08
5.98125e+08
5.95012e+08
5.88476e+08
5.78541e+08
5.65289e+08
5.48988e+08
5.29954e+08
5.08683e+08
4.85647e+08
4.61371e+08
4.36222e+08
4.10637e+08
3.84825e+08
3.59113e+08
5.94203e+07
5.93647e+07
5.92395e+07
5.90395e+07
5.87631e+07
5.84101e+07
5.79812e+07
5.74774e+07
5.69e+07
5.62504e+07
5.55303e+07
5.47418e+07
5.38869e+07
5.29682e+07
5.19881e+07
5.09494e+07
4.98552e+07
4.87089e+07
4.7514e+07
4.62741e+07
4.49932e+07
4.36753e+07
4.23245e+07
4.09451e+07
3.95414e+07
3.81179e+07
3.66788e+07
3.52286e+07
3.37716e+07
3.23122e+07
3.0855e+07
2.94043e+07
2.79649e+07
2.65412e+07
2.51377e+07
2.3759e+07
2.24095e+07
2.10939e+07
1.98168e+07
1.85831e+07
1.73975e+07
1.62648e+07
1.51901e+07
1.41783e+07
1.32347e+07
1.23643e+07
1.15726e+07
1.08648e+07
1.02463e+07
9.72275e+06
9.29944e+06
8.98183e+06
8.77531e+06
8.68509e+06
8.7163e+06
8.87381e+06
9.16219e+06
9.58566e+06
1.0148e+07
1.08526e+07
1.1702e+07
1.26985e+07
1.38435e+07
1.51376e+07
1.65809e+07
1.81725e+07
1.99108e+07
2.17932e+07
2.38168e+07
2.59777e+07
2.82713e+07
3.06923e+07
3.32349e+07
3.58926e+07
3.86588e+07
4.1526e+07
4.44871e+07
4.75342e+07
5.06596e+07
5.38553e+07
5.71131e+07
6.0425e+07
6.37827e+07
6.71779e+07
7.06018e+07
7.40456e+07
7.75003e+07
8.09564e+07
8.4404e+07
8.78329e+07
9.12322e+07
9.45905e+07
9.78961e+07
1.01137e+08
1.043e+08
1.07373e+08
1.10344e+08
1.13201e+08
1.15933e+08
1.18529e+08
1.2098e+08
1.23279e+08
1.25418e+08
1.27393e+08
1.29199e+08
1.30835e+08
1.323e+08
1.33597e+08
1.34733e+08
1.35713e+08
1.36549e+08
1.3725e+08
1.37831e+08
1.38306e+08
1.3869e+08
1.39e+08
1.39256e+08
1.39479e+08
1.39691e+08
1.39919e+08
1.40192e+08
1.40542e+08
1.41004e+08
1.41619e+08
1.42428e+08
1.43479e+08
1.44823e+08
1.46516e+08
1.48618e+08
1.5119e+08
1.54295e+08
1.57995e+08
1.6235e+08
1.67416e+08
1.73245e+08
1.79883e+08
1.87365e+08
1.95719e+08
2.04959e+08
2.15089e+08
2.26101e+08
2.37975e+08
2.50685e+08
2.64191e+08
2.78448e+08
2.93396e+08
3.08986e+08
3.25154e+08
3.41834e+08
3.58952e+08
3.76436e+08
3.94206e+08
4.12175e+08
4.3025e+08
4.48311e+08
4.66221e+08
4.8382e+08
5.00943e+08
5.17362e+08
5.32843e+08
5.47101e+08
5.59838e+08
5.70717e+08
5.79419e+08
5.85617e+08
5.89022e+08
5.89375e+08
5.86499e+08
5.80264e+08
5.7068e+08
5.57823e+08
5.41948e+08
5.23362e+08
5.02546e+08
4.7996e+08
4.56114e+08
4.31375e+08
4.06171e+08
3.80712e+08
3.55238e+08
5.73531e+07
5.73e+07
5.71804e+07
5.69888e+07
5.6724e+07
5.63864e+07
5.59771e+07
5.54972e+07
5.49476e+07
5.43294e+07
5.36443e+07
5.28939e+07
5.208e+07
5.12048e+07
5.02706e+07
4.92798e+07
4.82354e+07
4.71404e+07
4.5998e+07
4.48118e+07
4.35855e+07
4.23228e+07
4.10279e+07
3.97046e+07
3.83571e+07
3.69893e+07
3.56053e+07
3.42093e+07
3.28056e+07
3.13984e+07
2.99922e+07
2.85913e+07
2.72001e+07
2.58229e+07
2.44641e+07
2.31279e+07
2.18188e+07
2.05413e+07
1.93e+07
1.80996e+07
1.69446e+07
1.58401e+07
1.47908e+07
1.38017e+07
1.28779e+07
1.20246e+07
1.12472e+07
1.05511e+07
9.94138e+06
9.4237e+06
9.00344e+06
8.68603e+06
8.47686e+06
8.38117e+06
8.40405e+06
8.55038e+06
8.82471e+06
9.23127e+06
9.77387e+06
1.04558e+07
1.12796e+07
1.22476e+07
1.33611e+07
1.46207e+07
1.60263e+07
1.75772e+07
1.92716e+07
2.11073e+07
2.3081e+07
2.51889e+07
2.74265e+07
2.97886e+07
3.22694e+07
3.48625e+07
3.75612e+07
4.03585e+07
4.3247e+07
4.62193e+07
4.92675e+07
5.23838e+07
5.55602e+07
5.87885e+07
6.20607e+07
6.53685e+07
6.87032e+07
7.20563e+07
7.54188e+07
7.87813e+07
8.21341e+07
8.54672e+07
8.87698e+07
9.20308e+07
9.52388e+07
9.8382e+07
1.01448e+08
1.04425e+08
1.07301e+08
1.10065e+08
1.12706e+08
1.15214e+08
1.17581e+08
1.198e+08
1.21864e+08
1.23768e+08
1.2551e+08
1.27087e+08
1.28498e+08
1.29748e+08
1.30842e+08
1.31786e+08
1.32591e+08
1.33266e+08
1.33826e+08
1.34282e+08
1.3465e+08
1.34945e+08
1.35187e+08
1.35395e+08
1.35592e+08
1.35802e+08
1.36052e+08
1.36374e+08
1.36801e+08
1.37372e+08
1.38127e+08
1.39113e+08
1.40378e+08
1.41978e+08
1.43969e+08
1.46413e+08
1.4937e+08
1.52901e+08
1.57064e+08
1.61913e+08
1.675e+08
1.73868e+08
1.81053e+08
1.89082e+08
1.9797e+08
2.0772e+08
2.18326e+08
2.29769e+08
2.42025e+08
2.55057e+08
2.68819e+08
2.83256e+08
2.98314e+08
3.13942e+08
3.30072e+08
3.46633e+08
3.63554e+08
3.80764e+08
3.98176e+08
4.157e+08
4.33219e+08
4.50608e+08
4.67706e+08
4.84353e+08
5.00334e+08
5.15418e+08
5.29342e+08
5.41812e+08
5.52508e+08
5.61126e+08
5.67346e+08
5.70897e+08
5.71529e+08
5.69067e+08
5.63378e+08
5.54449e+08
5.42353e+08
5.27315e+08
5.09622e+08
4.89728e+08
4.68059e+08
4.45093e+08
4.21205e+08
3.96795e+08
3.72088e+08
3.47255e+08
5.44567e+07
5.44073e+07
5.42952e+07
5.41159e+07
5.38689e+07
5.35551e+07
5.31754e+07
5.27303e+07
5.22205e+07
5.1647e+07
5.10109e+07
5.03134e+07
4.95561e+07
4.87407e+07
4.78693e+07
4.69442e+07
4.59679e+07
4.49434e+07
4.38735e+07
4.27616e+07
4.1611e+07
4.04253e+07
3.92081e+07
3.79629e+07
3.66932e+07
3.54028e+07
3.40953e+07
3.2775e+07
3.14456e+07
3.01116e+07
2.87769e+07
2.74456e+07
2.61218e+07
2.48096e+07
2.35131e+07
2.22364e+07
2.09837e+07
1.97596e+07
1.85683e+07
1.74145e+07
1.63026e+07
1.52374e+07
1.42238e+07
1.32666e+07
1.2371e+07
1.1542e+07
1.07849e+07
1.0105e+07
9.50767e+06
8.99837e+06
8.58248e+06
8.26543e+06
8.05258e+06
7.94915e+06
7.9602e+06
8.09061e+06
8.34498e+06
8.72749e+06
9.24189e+06
9.89141e+06
1.06787e+07
1.16059e+07
1.26744e+07
1.38847e+07
1.52368e+07
1.67296e+07
1.83617e+07
2.01307e+07
2.20336e+07
2.40665e+07
2.62248e+07
2.85036e+07
3.08971e+07
3.33991e+07
3.60029e+07
3.87018e+07
4.14886e+07
4.43559e+07
4.72961e+07
5.03014e+07
5.3364e+07
5.6476e+07
5.96292e+07
6.28155e+07
6.60265e+07
6.92536e+07
7.24881e+07
7.57208e+07
7.89422e+07
8.21423e+07
8.53108e+07
8.84367e+07
9.1509e+07
9.45162e+07
9.74467e+07
1.00289e+08
1.03032e+08
1.05665e+08
1.08179e+08
1.10564e+08
1.12813e+08
1.14918e+08
1.16876e+08
1.18681e+08
1.20329e+08
1.21821e+08
1.23156e+08
1.24339e+08
1.25373e+08
1.26265e+08
1.27025e+08
1.27662e+08
1.28189e+08
1.28617e+08
1.28961e+08
1.29234e+08
1.29455e+08
1.2964e+08
1.29813e+08
1.29996e+08
1.30213e+08
1.30494e+08
1.3087e+08
1.31376e+08
1.32054e+08
1.32946e+08
1.34101e+08
1.35569e+08
1.37405e+08
1.39667e+08
1.42414e+08
1.45706e+08
1.49598e+08
1.54143e+08
1.59389e+08
1.65379e+08
1.72147e+08
1.79721e+08
1.88116e+08
1.97336e+08
2.07374e+08
2.18216e+08
2.2984e+08
2.42214e+08
2.55288e+08
2.69015e+08
2.83338e+08
2.98218e+08
3.13588e+08
3.29382e+08
3.45529e+08
3.61967e+08
3.78612e+08
3.95374e+08
4.12143e+08
4.28804e+08
4.45202e+08
4.61181e+08
4.76542e+08
4.91063e+08
5.04496e+08
5.16564e+08
5.2697e+08
5.35428e+08
5.41634e+08
5.45333e+08
5.46284e+08
5.44322e+08
5.39312e+08
5.31227e+08
5.20127e+08
5.06202e+08
4.89716e+08
4.7108e+08
4.50677e+08
4.28948e+08
4.06257e+08
3.82978e+08
3.5935e+08
3.35524e+08
5.09317e+07
5.08878e+07
5.07858e+07
5.06227e+07
5.0399e+07
5.0115e+07
4.97711e+07
4.93676e+07
4.89052e+07
4.83846e+07
4.78062e+07
4.71712e+07
4.64808e+07
4.57366e+07
4.49402e+07
4.40937e+07
4.31995e+07
4.22598e+07
4.12774e+07
4.02551e+07
3.9196e+07
3.81032e+07
3.69796e+07
3.58283e+07
3.46525e+07
3.34556e+07
3.22412e+07
3.10128e+07
2.97744e+07
2.85297e+07
2.72824e+07
2.60362e+07
2.47947e+07
2.35619e+07
2.23415e+07
2.11374e+07
1.99539e+07
1.8795e+07
1.7665e+07
1.65682e+07
1.5509e+07
1.44922e+07
1.35223e+07
1.26043e+07
1.17431e+07
1.09438e+07
1.02115e+07
9.55164e+06
8.96944e+06
8.47035e+06
8.05975e+06
7.74302e+06
7.52552e+06
7.41247e+06
7.40889e+06
7.51961e+06
7.74918e+06
8.10174e+06
8.581e+06
9.19019e+06
9.93197e+06
1.08084e+07
1.18207e+07
1.29696e+07
1.42549e+07
1.56757e+07
1.72303e+07
1.89165e+07
2.07313e+07
2.26709e+07
2.47309e+07
2.69063e+07
2.91916e+07
3.15807e+07
3.40673e+07
3.66445e+07
3.93054e+07
4.2043e+07
4.48497e+07
4.77181e+07
5.06403e+07
5.36088e+07
5.66156e+07
5.96526e+07
6.27116e+07
6.5784e+07
6.88616e+07
7.19354e+07
7.49957e+07
7.80332e+07
8.10378e+07
8.39989e+07
8.6906e+07
8.97477e+07
9.25132e+07
9.51919e+07
9.77733e+07
1.00248e+08
1.02607e+08
1.04841e+08
1.06944e+08
1.08911e+08
1.10737e+08
1.12419e+08
1.13953e+08
1.15339e+08
1.1658e+08
1.17678e+08
1.18637e+08
1.19464e+08
1.20166e+08
1.20755e+08
1.21239e+08
1.21631e+08
1.21942e+08
1.22185e+08
1.22378e+08
1.22535e+08
1.22675e+08
1.22821e+08
1.22996e+08
1.23224e+08
1.23536e+08
1.23966e+08
1.24549e+08
1.25327e+08
1.26345e+08
1.27652e+08
1.29299e+08
1.31342e+08
1.33833e+08
1.36834e+08
1.40395e+08
1.44569e+08
1.49401e+08
1.54932e+08
1.61195e+08
1.68219e+08
1.76018e+08
1.84598e+08
1.93954e+08
2.04073e+08
2.14934e+08
2.26512e+08
2.38761e+08
2.51637e+08
2.65084e+08
2.79068e+08
2.9353e+08
3.0841e+08
3.23636e+08
3.39151e+08
3.54877e+08
3.70728e+08
3.86597e+08
4.02378e+08
4.17928e+08
4.33097e+08
4.47702e+08
4.61533e+08
4.74352e+08
4.85909e+08
4.95935e+08
5.04158e+08
5.103e+08
5.14118e+08
5.15387e+08
5.13954e+08
5.09692e+08
5.02556e+08
4.9259e+08
4.79947e+08
4.64869e+08
4.47716e+08
4.28822e+08
4.08595e+08
3.87363e+08
3.65477e+08
3.43186e+08
3.2065e+08
4.70015e+07
4.69644e+07
4.6875e+07
4.67312e+07
4.65335e+07
4.62822e+07
4.59774e+07
4.56195e+07
4.52087e+07
4.47451e+07
4.42294e+07
4.36624e+07
4.3045e+07
4.23786e+07
4.16645e+07
4.09044e+07
4.01002e+07
3.92539e+07
3.83679e+07
3.74446e+07
3.64866e+07
3.54962e+07
3.4476e+07
3.34286e+07
3.2357e+07
3.1264e+07
3.01531e+07
2.90275e+07
2.78906e+07
2.67455e+07
2.55956e+07
2.44443e+07
2.32949e+07
2.21509e+07
2.10158e+07
1.98934e+07
1.87875e+07
1.7702e+07
1.66409e+07
1.56083e+07
1.46087e+07
1.36463e+07
1.27258e+07
1.18519e+07
1.10295e+07
1.02636e+07
9.55926e+06
8.92181e+06
8.35654e+06
7.86882e+06
7.464e+06
7.14745e+06
6.92451e+06
6.80035e+06
6.77994e+06
6.86808e+06
7.06925e+06
7.38755e+06
7.82664e+06
8.38969e+06
9.07931e+06
9.89748e+06
1.08455e+07
1.1924e+07
1.31329e+07
1.44711e+07
1.59371e+07
1.75285e+07
1.92425e+07
2.10754e+07
2.3023e+07
2.50803e+07
2.72419e+07
2.95021e+07
3.18545e+07
3.42928e+07
3.68102e+07
3.93996e+07
4.20541e+07
4.47662e+07
4.75284e+07
5.03333e+07
5.3173e+07
5.60398e+07
5.89257e+07
6.18224e+07
6.47216e+07
6.76146e+07
7.04922e+07
7.33451e+07
7.61637e+07
7.89383e+07
8.16584e+07
8.43136e+07
8.68933e+07
8.93881e+07
9.17882e+07
9.40848e+07
9.62695e+07
9.8335e+07
1.00275e+08
1.02086e+08
1.03764e+08
1.05306e+08
1.06711e+08
1.07979e+08
1.09112e+08
1.10113e+08
1.10986e+08
1.11736e+08
1.12372e+08
1.12902e+08
1.13335e+08
1.13681e+08
1.13952e+08
1.14158e+08
1.14314e+08
1.14435e+08
1.14537e+08
1.14639e+08
1.14761e+08
1.14929e+08
1.15169e+08
1.1551e+08
1.15989e+08
1.16639e+08
1.17504e+08
1.1863e+08
1.20065e+08
1.21861e+08
1.24068e+08
1.26742e+08
1.29935e+08
1.33694e+08
1.38064e+08
1.43083e+08
1.48785e+08
1.55198e+08
1.62336e+08
1.70206e+08
1.78807e+08
1.88127e+08
1.98147e+08
2.08846e+08
2.20186e+08
2.32127e+08
2.44616e+08
2.57619e+08
2.71086e+08
2.84963e+08
2.99181e+08
3.13684e+08
3.28401e+08
3.43247e+08
3.58124e+08
3.72932e+08
3.87543e+08
4.01807e+08
4.1556e+08
4.2861e+08
4.40729e+08
4.51688e+08
4.61253e+08
4.6917e+08
4.75186e+08
4.79071e+08
4.80623e+08
4.79705e+08
4.7619e+08
4.70025e+08
4.61235e+08
4.49948e+08
4.36373e+08
4.2082e+08
4.03576e+08
3.85012e+08
3.6541e+08
3.45098e+08
3.24325e+08
3.03281e+08
4.2891e+07
4.28614e+07
4.27855e+07
4.26621e+07
4.24915e+07
4.2274e+07
4.20095e+07
4.16982e+07
4.13399e+07
4.09347e+07
4.04832e+07
3.99859e+07
3.94436e+07
3.88572e+07
3.82279e+07
3.75569e+07
3.68457e+07
3.60962e+07
3.53101e+07
3.44893e+07
3.36357e+07
3.27513e+07
3.18382e+07
3.08988e+07
2.99354e+07
2.89509e+07
2.79481e+07
2.69298e+07
2.58987e+07
2.48577e+07
2.38098e+07
2.27579e+07
2.1705e+07
2.06543e+07
1.9609e+07
1.85726e+07
1.75485e+07
1.65404e+07
1.55521e+07
1.45875e+07
1.36506e+07
1.27458e+07
1.18775e+07
1.10502e+07
1.02687e+07
9.53807e+06
8.86325e+06
8.24946e+06
7.70198e+06
7.22614e+06
6.82727e+06
6.51067e+06
6.28163e+06
6.1453e+06
6.10662e+06
6.17032e+06
6.34085e+06
6.62222e+06
7.01804e+06
7.53142e+06
8.1649e+06
8.9204e+06
9.7992e+06
1.08019e+07
1.19283e+07
1.31775e+07
1.45479e+07
1.60372e+07
1.76426e+07
1.93604e+07
2.11865e+07
2.31163e+07
2.51445e+07
2.72654e+07
2.94731e+07
3.17612e+07
3.41234e+07
3.65529e+07
3.90428e+07
4.1586e+07
4.41752e+07
4.68032e+07
4.94625e+07
5.21454e+07
5.48443e+07
5.75512e+07
6.02577e+07
6.29556e+07
6.56361e+07
6.82902e+07
7.09088e+07
7.34825e+07
7.60017e+07
7.84566e+07
8.08376e+07
8.31358e+07
8.53424e+07
8.74497e+07
8.94499e+07
9.13367e+07
9.31048e+07
9.47505e+07
9.62712e+07
9.76654e+07
9.8933e+07
1.00075e+08
1.01092e+08
1.01987e+08
1.02766e+08
1.03433e+08
1.03995e+08
1.04459e+08
1.04833e+08
1.05126e+08
1.05349e+08
1.05511e+08
1.05626e+08
1.05704e+08
1.05761e+08
1.05813e+08
1.05879e+08
1.0598e+08
1.06141e+08
1.06389e+08
1.06755e+08
1.07271e+08
1.07975e+08
1.08909e+08
1.1012e+08
1.11656e+08
1.13564e+08
1.15897e+08
1.18701e+08
1.22024e+08
1.25908e+08
1.3039e+08
1.35505e+08
1.41278e+08
1.47725e+08
1.54854e+08
1.62667e+08
1.71156e+08
1.80303e+08
1.90092e+08
2.0049e+08
2.11461e+08
2.2296e+08
2.34954e+08
2.47395e+08
2.60235e+08
2.73411e+08
2.86869e+08
3.00539e+08
3.14341e+08
3.28187e+08
3.41981e+08
3.55604e+08
3.68913e+08
3.81757e+08
3.93962e+08
4.05318e+08
4.15617e+08
4.24646e+08
4.32186e+08
4.38006e+08
4.41889e+08
4.4366e+08
4.43199e+08
4.40378e+08
4.3514e+08
4.27492e+08
4.1755e+08
4.05484e+08
3.91556e+08
3.76011e+08
3.59175e+08
3.41287e+08
3.22647e+08
3.03498e+08
2.84063e+08
3.88135e+07
3.87915e+07
3.87289e+07
3.86256e+07
3.84818e+07
3.82974e+07
3.80723e+07
3.78061e+07
3.7499e+07
3.71511e+07
3.67625e+07
3.63336e+07
3.58648e+07
3.53569e+07
3.48107e+07
3.42271e+07
3.36073e+07
3.29526e+07
3.22643e+07
3.15438e+07
3.07927e+07
3.00124e+07
2.92048e+07
2.83719e+07
2.75156e+07
2.66384e+07
2.57425e+07
2.48303e+07
2.39041e+07
2.29664e+07
2.20197e+07
2.10666e+07
2.01097e+07
1.91519e+07
1.81961e+07
1.72454e+07
1.63029e+07
1.53721e+07
1.44564e+07
1.35596e+07
1.26854e+07
1.18381e+07
1.10219e+07
1.02412e+07
9.5007e+06
8.80528e+06
8.15991e+06
7.56973e+06
7.03992e+06
6.5758e+06
6.18261e+06
5.86565e+06
5.63012e+06
5.48111e+06
5.42356e+06
5.46213e+06
5.60119e+06
5.8447e+06
6.19618e+06
6.65868e+06
7.23466e+06
7.92597e+06
8.73384e+06
9.6588e+06
1.07007e+07
1.18586e+07
1.31308e+07
1.45152e+07
1.60088e+07
1.76083e+07
1.93096e+07
2.1108e+07
2.29987e+07
2.4976e+07
2.70343e+07
2.91674e+07
3.13693e+07
3.36333e+07
3.59528e+07
3.83211e+07
4.07312e+07
4.31759e+07
4.56482e+07
4.81405e+07
5.06454e+07
5.31552e+07
5.56619e+07
5.81576e+07
6.06338e+07
6.3082e+07
6.54936e+07
6.78597e+07
7.01713e+07
7.24197e+07
7.45961e+07
7.66923e+07
7.87005e+07
8.06139e+07
8.24254e+07
8.41301e+07
8.57229e+07
8.72009e+07
8.8562e+07
8.98057e+07
9.0933e+07
9.19444e+07
9.28419e+07
9.36288e+07
9.43092e+07
9.48877e+07
9.53702e+07
9.57632e+07
9.60731e+07
9.63082e+07
9.64776e+07
9.65907e+07
9.66569e+07
9.66879e+07
9.66955e+07
9.66938e+07
9.66989e+07
9.67311e+07
9.68107e+07
9.69623e+07
9.72133e+07
9.7593e+07
9.81347e+07
9.88779e+07
9.98641e+07
1.01139e+08
1.02748e+08
1.04737e+08
1.07153e+08
1.10038e+08
1.13435e+08
1.1738e+08
1.21907e+08
1.27039e+08
1.32797e+08
1.39188e+08
1.46217e+08
1.53879e+08
1.6216e+08
1.71047e+08
1.80512e+08
1.90525e+08
2.01046e+08
2.12045e+08
2.23475e+08
2.3529e+08
2.47435e+08
2.59857e+08
2.72488e+08
2.85254e+08
2.98071e+08
3.10848e+08
3.23471e+08
3.35808e+08
3.4772e+08
3.59049e+08
3.69602e+08
3.79193e+08
3.87631e+08
3.94723e+08
4.00269e+08
4.04069e+08
4.05977e+08
4.05877e+08
4.03655e+08
3.99248e+08
3.92655e+08
3.83976e+08
3.73349e+08
3.60998e+08
3.47121e+08
3.32e+08
3.15833e+08
2.98891e+08
2.81405e+08
2.63628e+08
3.49565e+07
3.49412e+07
3.48909e+07
3.48063e+07
3.46874e+07
3.45339e+07
3.43455e+07
3.41218e+07
3.38629e+07
3.35686e+07
3.32389e+07
3.2874e+07
3.24742e+07
3.20398e+07
3.15715e+07
3.10699e+07
3.05357e+07
2.99699e+07
2.93732e+07
2.87469e+07
2.80921e+07
2.74099e+07
2.67017e+07
2.59692e+07
2.5214e+07
2.4438e+07
2.3643e+07
2.28311e+07
2.2004e+07
2.11639e+07
2.03129e+07
1.94533e+07
1.85874e+07
1.77177e+07
1.68468e+07
1.59774e+07
1.51124e+07
1.42549e+07
1.34081e+07
1.25756e+07
1.1761e+07
1.09683e+07
1.02016e+07
9.46519e+06
8.76362e+06
8.10168e+06
7.48426e+06
6.9164e+06
6.40323e+06
5.94999e+06
5.56188e+06
5.24412e+06
5.00188e+06
4.84023e+06
4.76402e+06
4.77786e+06
4.88604e+06
5.09246e+06
5.40054e+06
5.81322e+06
6.33288e+06
6.96132e+06
7.69966e+06
8.54836e+06
9.50721e+06
1.05753e+07
1.17509e+07
1.30319e+07
1.44154e+07
1.5898e+07
1.74757e+07
1.91442e+07
2.08986e+07
2.27335e+07
2.46434e+07
2.66225e+07
2.86647e+07
3.07638e+07
3.29133e+07
3.51069e+07
3.73378e+07
3.95991e+07
4.1884e+07
4.41852e+07
4.64955e+07
4.88075e+07
5.11136e+07
5.34063e+07
5.56774e+07
5.79189e+07
6.01229e+07
6.22809e+07
6.43848e+07
6.64268e+07
6.83988e+07
7.02935e+07
7.2104e+07
7.38241e+07
7.5448e+07
7.69715e+07
7.83905e+07
7.97021e+07
8.09056e+07
8.20008e+07
8.29888e+07
8.38708e+07
8.46487e+07
8.53259e+07
8.59062e+07
8.63941e+07
8.67948e+07
8.71137e+07
8.73559e+07
8.75287e+07
8.76404e+07
8.76993e+07
8.77135e+07
8.76926e+07
8.76471e+07
8.75887e+07
8.7532e+07
8.74939e+07
8.74922e+07
8.75483e+07
8.76865e+07
8.79335e+07
8.83193e+07
8.88792e+07
8.96511e+07
9.06762e+07
9.19968e+07
9.36559e+07
9.5696e+07
9.81598e+07
1.01087e+08
1.04515e+08
1.08474e+08
1.1299e+08
1.18083e+08
1.23766e+08
1.30042e+08
1.36912e+08
1.44364e+08
1.5239e+08
1.60965e+08
1.70063e+08
1.79651e+08
1.89701e+08
2.0017e+08
2.11008e+08
2.22166e+08
2.33593e+08
2.45225e+08
2.56993e+08
2.68813e+08
2.80599e+08
2.9224e+08
3.03613e+08
3.14595e+08
3.25037e+08
3.34769e+08
3.43621e+08
3.51423e+08
3.58006e+08
3.63202e+08
3.66831e+08
3.68772e+08
3.68921e+08
3.67174e+08
3.63469e+08
3.57808e+08
3.50266e+08
3.40958e+08
3.30076e+08
3.17777e+08
3.04295e+08
2.89797e+08
2.74519e+08
2.58679e+08
2.42553e+08
3.14715e+07
3.14618e+07
3.14223e+07
3.13542e+07
3.12575e+07
3.11316e+07
3.09763e+07
3.0791e+07
3.05755e+07
3.03296e+07
3.00531e+07
2.9746e+07
2.94084e+07
2.90403e+07
2.86422e+07
2.82144e+07
2.77572e+07
2.72712e+07
2.67571e+07
2.62156e+07
2.56475e+07
2.50536e+07
2.44351e+07
2.37932e+07
2.31291e+07
2.24444e+07
2.17405e+07
2.1019e+07
2.02814e+07
1.95294e+07
1.87649e+07
1.79898e+07
1.72061e+07
1.64159e+07
1.56216e+07
1.48256e+07
1.40306e+07
1.32393e+07
1.24549e+07
1.16805e+07
1.09198e+07
1.01765e+07
9.45449e+06
8.75805e+06
8.09162e+06
7.45985e+06
6.86756e+06
6.31972e+06
5.82136e+06
5.37763e+06
4.99371e+06
4.67474e+06
4.42585e+06
4.25207e+06
4.1582e+06
4.14876e+06
4.22795e+06
4.39957e+06
4.66694e+06
5.03288e+06
5.49968e+06
6.06902e+06
6.74195e+06
7.51885e+06
8.39941e+06
9.38263e+06
1.04669e+07
1.16499e+07
1.29288e+07
1.43002e+07
1.57602e+07
1.73046e+07
1.89287e+07
2.06272e+07
2.23947e+07
2.42256e+07
2.61141e+07
2.8054e+07
3.00392e+07
3.20635e+07
3.41204e+07
3.62035e+07
3.83059e+07
4.04209e+07
4.25414e+07
4.46604e+07
4.67706e+07
4.88649e+07
5.09357e+07
5.29753e+07
5.49764e+07
5.69313e+07
5.88327e+07
6.06732e+07
6.24459e+07
6.41441e+07
6.57617e+07
6.72935e+07
6.87349e+07
7.00821e+07
7.1332e+07
7.24823e+07
7.35328e+07
7.44836e+07
7.53361e+07
7.60915e+07
7.6752e+07
7.73208e+07
7.78014e+07
7.81982e+07
7.85157e+07
7.87581e+07
7.89304e+07
7.90388e+07
7.909e+07
7.90914e+07
7.90502e+07
7.89743e+07
7.88731e+07
7.87566e+07
7.86376e+07
7.85305e+07
7.84503e+07
7.84156e+07
7.84478e+07
7.85713e+07
7.88129e+07
7.9204e+07
7.97784e+07
8.05729e+07
8.16263e+07
8.29793e+07
8.46714e+07
8.67432e+07
8.92336e+07
9.21779e+07
9.5607e+07
9.95472e+07
1.04021e+08
1.09042e+08
1.14617e+08
1.20749e+08
1.27432e+08
1.34658e+08
1.42409e+08
1.5066e+08
1.59385e+08
1.68554e+08
1.7813e+08
1.88064e+08
1.98303e+08
2.08801e+08
2.195e+08
2.30326e+08
2.41203e+08
2.5204e+08
2.62737e+08
2.73176e+08
2.83245e+08
2.92807e+08
3.01713e+08
3.09808e+08
3.1694e+08
3.22962e+08
3.27738e+08
3.31105e+08
3.32971e+08
3.33246e+08
3.31839e+08
3.28697e+08
3.23818e+08
3.17261e+08
3.09124e+08
2.99563e+08
2.8871e+08
2.76748e+08
2.63822e+08
2.50128e+08
2.35872e+08
2.21341e+08
2.84687e+07
2.84632e+07
2.84323e+07
2.83781e+07
2.83003e+07
2.81983e+07
2.80716e+07
2.79196e+07
2.77419e+07
2.75381e+07
2.73079e+07
2.70511e+07
2.67675e+07
2.64571e+07
2.61198e+07
2.57558e+07
2.53653e+07
2.49485e+07
2.45058e+07
2.40375e+07
2.35442e+07
2.30266e+07
2.24854e+07
2.19216e+07
2.13361e+07
2.073e+07
2.01045e+07
1.94608e+07
1.88002e+07
1.81241e+07
1.7434e+07
1.67315e+07
1.60183e+07
1.52964e+07
1.45679e+07
1.38349e+07
1.30999e+07
1.23655e+07
1.16345e+07
1.09101e+07
1.01956e+07
9.49467e+06
8.81105e+06
8.14887e+06
7.51251e+06
6.9065e+06
6.33561e+06
5.80471e+06
5.31876e+06
4.88284e+06
4.50207e+06
4.18157e+06
3.9264e+06
3.74151e+06
3.63161e+06
3.60115e+06
3.65425e+06
3.79461e+06
4.02543e+06
4.3494e+06
4.76867e+06
5.2848e+06
5.89872e+06
6.61069e+06
7.42029e+06
8.32645e+06
9.32745e+06
1.0421e+07
1.16042e+07
1.28736e+07
1.42253e+07
1.56552e+07
1.71587e+07
1.87306e+07
2.03657e+07
2.20584e+07
2.3803e+07
2.55936e+07
2.74242e+07
2.92889e+07
3.11814e+07
3.30956e+07
3.50249e+07
3.69628e+07
3.89026e+07
4.08376e+07
4.27609e+07
4.46656e+07
4.65448e+07
4.83915e+07
5.01986e+07
5.19593e+07
5.36668e+07
5.53146e+07
5.68964e+07
5.84065e+07
5.98396e+07
6.11914e+07
6.24582e+07
6.36367e+07
6.47248e+07
6.57209e+07
6.66247e+07
6.74368e+07
6.81587e+07
6.87918e+07
6.93382e+07
6.9801e+07
7.01836e+07