/*--------------------------------*- C++ -*----------------------------------*\
| =========                 |                                                 |
| \\      /  F ield         | OpenFOAM: The Open Source CFD Toolbox           |
|  \\    /   O peration     | Version:  dev                                   |
|   \\  /    A nd           | Web:      http://www.openfoam.org               |
|    \\/     M anipulation  |                                                 |
\*---------------------------------------------------------------------------*/
FoamFile
{
    version     2.0;
    format      ascii;
    class       volScalarField;
    object      rho_0;
    location    "9.124";
}
// * * * * * * * * * * * * * * * * * * * * * * * * * * * * * * * * * * * * * //

dimensions      [1 -3 0 0 0 0 0];

internalField   nonuniform List<scalar> 
12225
(
1.16625
1.16281
1.16262
1.16169
1.16095
1.15911
1.15769
1.15577
1.15366
1.15248
1.14945
1.14947
1.14518
1.14675
1.14085
1.14284
1.14051
1.13212
1.16317
1.16224
1.16495
1.16577
1.16628
1.16629
1.16471
1.16492
1.16091
1.16327
1.15617
1.1616
1.15161
1.15931
1.14945
1.15476
1.14882
1.13712
1.16289
1.16246
1.16507
1.16648
1.16711
1.16801
1.16711
1.16813
1.16544
1.16698
1.16284
1.16437
1.15902
1.16076
1.15706
1.15754
1.15151
1.14083
1.16336
1.16188
1.16551
1.16518
1.16737
1.1659
1.16737
1.16528
1.16681
1.16339
1.16502
1.1613
1.16186
1.15905
1.15918
1.15678
1.15408
1.14486
1.16532
1.16099
1.16635
1.16372
1.16736
1.16455
1.16703
1.1638
1.16602
1.16211
1.16421
1.16084
1.16148
1.15949
1.15881
1.15727
1.15522
1.14998
1.16553
1.16053
1.16732
1.16342
1.16804
1.16455
1.16759
1.16383
1.16646
1.16204
1.16468
1.16066
1.16203
1.15897
1.15882
1.15606
1.1558
1.15359
1.16681
1.16098
1.16847
1.16358
1.16894
1.16492
1.16798
1.16384
1.16674
1.16237
1.16475
1.16113
1.16218
1.15956
1.15912
1.15714
1.15645
1.1555
1.16815
1.16099
1.16928
1.1634
1.16935
1.16505
1.16838
1.16385
1.16733
1.16265
1.16542
1.16153
1.16274
1.15986
1.16023
1.15795
1.15798
1.15683
1.16891
1.1616
1.1698
1.164
1.17014
1.16585
1.16901
1.16481
1.16791
1.16364
1.16589
1.16238
1.16292
1.16089
1.16069
1.15895
1.15838
1.15774
1.17008
1.16254
1.17059
1.16484
1.1711
1.1665
1.16967
1.16551
1.16837
1.16415
1.16605
1.16251
1.16258
1.16121
1.16008
1.15896
1.15793
1.15732
1.17087
1.16428
1.17115
1.16633
1.17173
1.16712
1.16989
1.16632
1.1677
1.16456
1.16475
1.16215
1.16194
1.16014
1.1595
1.15853
1.15678
1.15644
1.172
1.16655
1.17164
1.16825
1.17159
1.16789
1.16948
1.16682
1.16695
1.16436
1.16369
1.16192
1.16048
1.15971
1.15851
1.15683
1.15599
1.15492
1.17339
1.16948
1.17237
1.17033
1.17144
1.16891
1.16916
1.16712
1.16592
1.16411
1.16262
1.16088
1.15968
1.15814
1.15675
1.15579
1.15396
1.15294
1.17557
1.17269
1.17395
1.17259
1.1721
1.17027
1.16945
1.16759
1.166
1.16428
1.16251
1.16089
1.15909
1.15751
1.15604
1.15442
1.15294
1.15159
1.17909
1.17666
1.17679
1.17558
1.17421
1.1726
1.17101
1.16901
1.16717
1.16537
1.16332
1.16146
1.15945
1.15762
1.15585
1.15419
1.15242
1.1507
1.18397
1.18169
1.18122
1.17973
1.17796
1.17611
1.17404
1.17184
1.16973
1.16764
1.16542
1.16334
1.16112
1.15922
1.15729
1.15545
1.15356
1.15164
1.19007
1.18819
1.18734
1.18562
1.18384
1.18193
1.17982
1.17769
1.17552
1.17329
1.171
1.16868
1.1664
1.16437
1.16226
1.16028
1.15826
1.15625
1.19697
1.19603
1.1956
1.19419
1.19259
1.19073
1.18894
1.18701
1.18504
1.1831
1.18107
1.17888
1.17684
1.17486
1.17297
1.171
1.16903
1.16711
1.20299
1.20371
1.20397
1.20311
1.2021
1.20091
1.19994
1.19858
1.19733
1.19594
1.19435
1.19264
1.1909
1.18918
1.18761
1.18595
1.18436
1.18272
1.20822
1.21051
1.21168
1.21169
1.21163
1.21125
1.21102
1.21047
1.20999
1.20905
1.20815
1.20685
1.2055
1.20412
1.20285
1.20166
1.20047
1.19923
1.21287
1.21647
1.21845
1.21932
1.22013
1.22048
1.221
1.22121
1.22145
1.22123
1.22106
1.22027
1.2196
1.21848
1.2177
1.21675
1.21586
1.21493
1.21599
1.22112
1.22409
1.22573
1.22734
1.22853
1.22966
1.23057
1.23161
1.23201
1.23233
1.23215
1.23181
1.23119
1.23063
1.22993
1.22932
1.22855
1.21859
1.22482
1.22834
1.23069
1.23291
1.23481
1.23664
1.23824
1.23978
1.24086
1.2418
1.24212
1.2422
1.24196
1.2415
1.24105
1.24037
1.23976
1.22041
1.22768
1.23202
1.23491
1.23755
1.23988
1.2421
1.24409
1.24601
1.24761
1.24893
1.24975
1.25016
1.25017
1.25004
1.24958
1.24911
1.24842
1.22186
1.22975
1.23449
1.23786
1.24104
1.24375
1.24631
1.24855
1.25058
1.25238
1.25397
1.25514
1.25594
1.25637
1.25652
1.25636
1.25597
1.2554
1.22323
1.2314
1.23625
1.23982
1.24328
1.24634
1.24915
1.25155
1.25371
1.25559
1.25728
1.25863
1.25967
1.26038
1.26083
1.26092
1.26076
1.26038
1.22361
1.23202
1.23719
1.24099
1.24465
1.24792
1.25095
1.25364
1.25618
1.2584
1.26039
1.26195
1.26323
1.26411
1.26476
1.26504
1.26512
1.26497
1.22414
1.23282
1.2381
1.24217
1.2461
1.24966
1.25297
1.25599
1.25891
1.26144
1.26373
1.26551
1.26703
1.26802
1.26884
1.26911
1.26925
1.26884
1.22403
1.23297
1.2385
1.24278
1.24687
1.25066
1.25411
1.25719
1.25992
1.26203
1.26371
1.2649
1.26564
1.26594
1.26601
1.26552
1.265
1.26388
1.22406
1.23046
1.23427
1.23727
1.24004
1.24237
1.24424
1.24576
1.24695
1.2477
1.2482
1.24842
1.24836
1.24805
1.24751
1.24669
1.24581
1.24526
1.18361
1.23252
1.2188
1.21499
1.21055
1.20032
1.19265
1.18542
1.18063
1.17734
1.17606
1.17567
1.17535
1.17516
1.17584
1.17613
1.17652
1.17696
1.1772
1.17709
1.17697
1.1773
1.17689
1.17649
1.17664
1.17621
1.1759
1.17563
1.17508
1.17512
1.17533
1.17506
1.17578
1.1765
1.17577
1.17728
1.17775
1.17536
1.17745
1.18041
1.17583
1.16865
1.16618
1.16903
1.17414
1.17775
1.1775
1.17723
1.17783
1.18207
1.18818
1.19287
1.19555
1.19831
1.20047
1.19859
1.1943
1.19035
1.18226
1.17449
1.17824
1.18491
1.19188
1.19785
1.18818
1.16267
1.15014
1.16193
1.18008
1.19306
1.20145
1.20759
1.21224
1.21643
1.22018
1.22383
1.22713
1.23031
1.23342
1.23664
1.23999
1.24333
1.24632
1.24911
1.25207
1.25526
1.25855
1.26152
1.26451
1.2673
1.27051
1.27289
1.27535
1.27764
1.28059
1.28261
1.28316
1.28597
1.28673
1.2868
1.28757
1.28702
1.2857
1.28436
1.28265
1.28166
1.28049
1.27891
1.27515
1.27011
1.26595
1.26241
1.2597
1.25603
1.25075
1.24785
1.24612
1.24294
1.2392
1.24214
1.24482
1.2384
1.22913
1.22194
1.21761
1.21438
1.21179
1.21453
1.22209
1.23102
1.23837
1.2477
1.25395
1.26438
1.26606
1.27709
1.2973
1.29601
1.31998
1.31943
1.32556
1.33213
1.34493
1.35696
1.36914
1.37964
1.39147
1.40174
1.41209
1.42267
1.43282
1.44442
1.45548
1.46564
1.47453
1.48205
1.49033
1.49779
1.50802
1.51678
1.52845
1.53656
1.5483
1.55832
1.55896
1.55874
1.56155
1.54314
1.54362
1.51534
1.51608
1.50754
1.51209
1.50661
1.50999
1.49179
1.47052
1.44515
1.43758
1.41604
1.17025
1.24353
1.2614
1.24582
1.21871
1.18846
1.16513
1.14978
1.13937
1.13215
1.12874
1.12774
1.1279
1.12842
1.12994
1.13148
1.13333
1.13561
1.13726
1.13853
1.1406
1.14407
1.14442
1.14519
1.14936
1.15012
1.15212
1.15409
1.15345
1.15702
1.15714
1.15921
1.16073
1.16063
1.16451
1.16388
1.16667
1.16856
1.17046
1.17185
1.17233
1.18027
1.17467
1.16948
1.18784
1.2097
1.21496
1.21151
1.20814
1.21391
1.22049
1.22188
1.21686
1.2143
1.22959
1.23743
1.22062
1.21601
1.21385
1.20359
1.20787
1.20282
1.19621
1.21089
1.22436
1.22973
1.23541
1.24274
1.2475
1.25016
1.25153
1.25233
1.25331
1.25443
1.25589
1.2573
1.25918
1.26011
1.26152
1.26308
1.26549
1.26934
1.27192
1.27329
1.27541
1.27911
1.28405
1.28774
1.29229
1.29534
1.30362
1.30769
1.31363
1.3165
1.32317
1.33294
1.33684
1.33856
1.35223
1.35362
1.36019
1.36561
1.37157
1.37554
1.37853
1.38005
1.38138
1.38294
1.38227
1.37768
1.3721
1.36652
1.36172
1.35612
1.34553
1.33805
1.33813
1.33899
1.33218
1.32822
1.34033
1.33929
1.29641
1.25287
1.23515
1.22719
1.23084
1.23854
1.24787
1.25864
1.26397
1.27277
1.27611
1.28812
1.28866
1.28187
1.33974
1.30988
1.35612
1.36077
1.3558
1.34958
1.35477
1.36376
1.37859
1.38626
1.39868
1.40594
1.41251
1.42153
1.42286
1.43928
1.46121
1.48759
1.50845
1.52339
1.53534
1.54258
1.55068
1.56251
1.57889
1.59788
1.61258
1.63389
1.6614
1.67515
1.70289
1.6836
1.65364
1.52752
1.53496
1.50347
1.51635
1.61022
1.69605
1.64427
1.59093
1.50316
1.49304
1.46549
1.15441
1.21957
1.26735
1.2792
1.2587
1.21417
1.17362
1.14893
1.13345
1.12421
1.12004
1.11877
1.11952
1.12146
1.12363
1.12633
1.12931
1.13238
1.13447
1.13804
1.14165
1.14538
1.14712
1.14839
1.1542
1.15661
1.1579
1.16062
1.15879
1.16295
1.16472
1.16525
1.16569
1.16641
1.16628
1.1646
1.16902
1.16441
1.16603
1.16711
1.16549
1.17013
1.16308
1.17078
1.1733
1.15699
1.16356
1.19092
1.20836
1.22241
1.22611
1.21755
1.20854
1.20791
1.21647
1.22197
1.21917
1.22927
1.21985
1.19051
1.18422
1.2052
1.22533
1.23242
1.23071
1.22602
1.22107
1.2153
1.20949
1.20435
1.19973
1.19631
1.1945
1.19283
1.19225
1.19181
1.19154
1.191
1.19097
1.19025
1.191
1.19234
1.19352
1.19403
1.19422
1.19591
1.19685
1.1992
1.20169
1.20159
1.20614
1.20924
1.21539
1.21688
1.21839
1.22691
1.23628
1.23106
1.24819
1.25305
1.26051
1.26931
1.28405
1.2977
1.31252
1.32264
1.3314
1.34018
1.35169
1.36327
1.37074
1.37126
1.37041
1.36854
1.36619
1.35971
1.34886
1.36617
1.38491
1.36073
1.35202
1.37898
1.35084
1.27808
1.23186
1.22062
1.22827
1.24049
1.25462
1.27047
1.27412
1.28253
1.29224
1.30442
1.33751
1.31007
1.3373
1.3118
1.33292
1.3626
1.38106
1.38588
1.37389
1.36208
1.36725
1.37229
1.3833
1.38774
1.39376
1.39706
1.37802
1.37546
1.38638
1.41902
1.4455
1.47733
1.50288
1.52872
1.52204
1.52373
1.515
1.53245
1.53262
1.50414
1.57536
1.6536
1.69809
1.75222
1.67548
1.54906
1.55542
1.50278
1.42883
1.57556
1.77729
1.67459
1.53838
1.46595
1.46211
1.38963
1.14509
1.19798
1.25569
1.29368
1.29276
1.24951
1.19725
1.15743
1.13244
1.11929
1.11598
1.11868
1.12343
1.12904
1.13526
1.1411
1.14692
1.15247
1.15638
1.16191
1.16648
1.16838
1.17062
1.17248
1.17446
1.17587
1.17541
1.17573
1.17318
1.17552
1.17313
1.17482
1.17513
1.1726
1.17469
1.17472
1.17527
1.17279
1.17578
1.17716
1.16716
1.17317
1.17186
1.17287
1.18013
1.17639
1.17926
1.17789
1.17547
1.19238
1.20606
1.20175
1.19723
1.20668
1.21914
1.22373
1.21788
1.20929
1.19646
1.19769
1.21451
1.22691
1.22672
1.21975
1.21005
1.202
1.19579
1.19155
1.18957
1.18885
1.18956
1.19076
1.19346
1.19538
1.19758
1.19936
1.19965
1.20063
1.20193
1.20402
1.20641
1.20575
1.2044
1.20386
1.20346
1.20779
1.20397
1.20578
1.20541
1.20539
1.205
1.20397
1.20365
1.20404
1.20528
1.20457
1.20504
1.20377
1.20451
1.20346
1.20539
1.20411
1.20695
1.20973
1.21528
1.22363
1.23132
1.23863
1.25008
1.2631
1.278
1.28163
1.29183
1.31093
1.3307
1.35253
1.35076
1.32863
1.36653
1.39337
1.3486
1.35713
1.36929
1.29638
1.22172
1.2045
1.22472
1.24847
1.27093
1.29242
1.29689
1.30009
1.32107
1.3377
1.34348
1.35636
1.34628
1.32508
1.32695
1.31509
1.33465
1.35192
1.38501
1.38767
1.40094
1.39926
1.40126
1.39388
1.40385
1.4169
1.38649
1.35672
1.35107
1.3824
1.39593
1.41227
1.40771
1.45282
1.48234
1.5294
1.51713
1.49438
1.48664
1.39877
1.42884
1.58543
1.62117
1.78194
1.69037
1.65157
1.631
1.587
1.46141
1.53307
1.7078
1.63474
1.53301
1.6228
1.68586
1.53724
1.13862
1.18291
1.24154
1.29085
1.28866
1.23235
1.17023
1.12571
1.10477
1.10141
1.10869
1.12009
1.13137
1.14223
1.15254
1.1617
1.1694
1.17418
1.17783
1.17959
1.17985
1.17817
1.17516
1.17323
1.17029
1.16781
1.1668
1.16542
1.16247
1.16212
1.16157
1.16036
1.16002
1.15888
1.16343
1.16282
1.16067
1.17225
1.17146
1.16943
1.17526
1.18108
1.16405
1.16643
1.17115
1.17005
1.16832
1.15615
1.16213
1.18044
1.18746
1.18801
1.19304
1.20297
1.21333
1.21699
1.21371
1.20966
1.21161
1.22021
1.2251
1.22115
1.21095
1.19921
1.19043
1.18634
1.18481
1.18661
1.1896
1.19334
1.19803
1.20128
1.20566
1.2094
1.21245
1.21452
1.21563
1.21601
1.21661
1.2195
1.21952
1.21824
1.21607
1.21694
1.21255
1.21796
1.21262
1.21398
1.21456
1.21188
1.20869
1.20963
1.21057
1.21065
1.21151
1.21247
1.21588
1.21568
1.2187
1.2177
1.2182
1.21673
1.21568
1.21399
1.211
1.20806
1.20802
1.20316
1.20886
1.20957
1.21962
1.2342
1.22955
1.21995
1.2287
1.25069
1.306
1.33641
1.33073
1.36055
1.36917
1.33763
1.34611
1.33396
1.27448
1.23218
1.22095
1.24755
1.27404
1.28873
1.30627
1.32314
1.32994
1.33974
1.38203
1.33254
1.35155
1.34417
1.36518
1.3449
1.33885
1.31719
1.33697
1.3211
1.35607
1.3668
1.37347
1.35187
1.34845
1.3911
1.38291
1.3315
1.29672
1.37317
1.41637
1.42304
1.36413
1.39068
1.41461
1.46687
1.48897
1.47577
1.52245
1.43376
1.3659
1.50391
1.54174
1.74612
1.71412
1.67328
1.59879
1.5664
1.47621
1.45125
1.50436
1.49451
1.51207
1.66044
1.73282
1.63603
1.13267
1.16743
1.21512
1.24972
1.22725
1.16806
1.12107
1.09998
1.10288
1.11815
1.13651
1.15394
1.16902
1.1819
1.19184
1.19811
1.19804
1.1924
1.18386
1.17454
1.16699
1.1612
1.15741
1.15643
1.1562
1.15663
1.15721
1.157
1.1569
1.15545
1.15666
1.15436
1.15091
1.14729
1.14864
1.15134
1.14614
1.15083
1.15301
1.16126
1.16976
1.1741
1.17727
1.18049
1.16728
1.1722
1.18841
1.18014
1.17458
1.17107
1.17254
1.19236
1.21096
1.21681
1.21771
1.21798
1.21736
1.2188
1.22075
1.22021
1.21299
1.20019
1.1882
1.18094
1.18069
1.18416
1.19141
1.19972
1.20776
1.2148
1.22048
1.22421
1.2264
1.22802
1.22902
1.22838
1.22763
1.22771
1.22881
1.22915
1.2283
1.22441
1.21997
1.22313
1.21756
1.22075
1.21891
1.2227
1.2264
1.22492
1.21674
1.21341
1.21379
1.209
1.20705
1.20191
1.20611
1.20571
1.20877
1.20979
1.21382
1.21471
1.21827
1.21697
1.2186
1.21883
1.2134
1.20894
1.20831
1.20219
1.19798
1.19721
1.2033
1.19739
1.19971
1.21436
1.22469
1.23613
1.25
1.28145
1.34122
1.37334
1.35604
1.32867
1.2828
1.26195
1.26043
1.26733
1.27533
1.2869
1.29109
1.25382
1.344
1.30354
1.36277
1.35662
1.36799
1.35803
1.35213
1.32884
1.34395
1.33828
1.35135
1.31445
1.31213
1.31425
1.33411
1.33516
1.3025
1.33043
1.36658
1.36125
1.27977
1.33536
1.39169
1.41609
1.32652
1.32682
1.37405
1.42412
1.44032
1.40291
1.49019
1.45751
1.36026
1.43947
1.49447
1.68195
1.70959
1.67407
1.63112
1.56728
1.47589
1.45674
1.47763
1.49576
1.49149
1.51052
1.50676
1.49346
1.12666
1.14944
1.17694
1.18691
1.15559
1.11842
1.10043
1.10394
1.12062
1.14022
1.15953
1.17648
1.19476
1.20112
1.18589
1.16306
1.14729
1.14141
1.1421
1.14663
1.15307
1.1595
1.16366
1.16691
1.16912
1.17222
1.17522
1.17572
1.17598
1.17585
1.17374
1.17002
1.1685
1.16385
1.157
1.15436
1.14953
1.14815
1.14354
1.14561
1.14793
1.15523
1.1715
1.17443
1.16208
1.16727
1.16773
1.15305
1.15134
1.15996
1.17727
1.19426
1.20654
1.21466
1.21678
1.21657
1.21608
1.21518
1.2108
1.20207
1.19049
1.18076
1.17808
1.18267
1.19189
1.20228
1.21394
1.22173
1.22721
1.22961
1.22924
1.22748
1.22387
1.22102
1.21813
1.21332
1.20749
1.20543
1.20679
1.20436
1.20224
1.19815
1.19599
1.19774
1.19574
1.19794
1.19897
1.20567
1.21594
1.22436
1.21976
1.21642
1.22433
1.23317
1.22766
1.21889
1.21974
1.21957
1.21956
1.21499
1.21624
1.21852
1.21776
1.22268
1.2184
1.22139
1.2265
1.22091
1.21491
1.21135
1.21431
1.20477
1.19605
1.19497
1.19584
1.19708
1.19097
1.19884
1.21318
1.21087
1.22851
1.27441
1.34039
1.36935
1.35034
1.27412
1.26148
1.25389
1.25422
1.2487
1.28306
1.23686
1.29368
1.28527
1.34132
1.35863
1.34336
1.33679
1.36007
1.32934
1.30503
1.28588
1.30368
1.29927
1.29636
1.29064
1.30205
1.32952
1.31529
1.31121
1.31169
1.34545
1.29642
1.31045
1.35162
1.41406
1.36756
1.31902
1.35235
1.39467
1.40188
1.32378
1.40778
1.43245
1.34187
1.37469
1.44441
1.61708
1.67009
1.66491
1.63421
1.56772
1.46258
1.39738
1.4802
1.53848
1.41446
1.32968
1.35941
1.45865
1.12145
1.13358
1.14351
1.13764
1.11492
1.09942
1.09908
1.11576
1.14103
1.17669
1.22428
1.21453
1.15649
1.13247
1.14257
1.15714
1.16952
1.17888
1.18319
1.18307
1.1812
1.17897
1.17704
1.1741
1.1711
1.17164
1.17299
1.17367
1.17629
1.17744
1.17832
1.17911
1.17738
1.17482
1.17499
1.17375
1.16776
1.16576
1.16035
1.15573
1.14646
1.14687
1.16179
1.17211
1.17424
1.17481
1.16982
1.16421
1.16318
1.16687
1.18235
1.1986
1.20435
1.20413
1.20865
1.21185
1.21056
1.20489
1.19494
1.1847
1.17815
1.17906
1.18578
1.19545
1.2058
1.21509
1.22113
1.22196
1.22054
1.21484
1.20712
1.20013
1.19478
1.19332
1.1915
1.18637
1.17924
1.17646
1.17784
1.17821
1.17827
1.17745
1.17543
1.17306
1.16987
1.16652
1.16767
1.16717
1.17077
1.18119
1.18643
1.18216
1.18584
1.21075
1.22468
1.21364
1.21592
1.22943
1.2347
1.23232
1.22301
1.22956
1.22523
1.22775
1.22836
1.22381
1.22325
1.22154
1.22687
1.21594
1.21289
1.21769
1.2094
1.20275
1.19223
1.20069
1.19376
1.17602
1.19175
1.19573
1.20098
1.20298
1.2404
1.2804
1.34299
1.34652
1.32925
1.297
1.29692
1.2371
1.29716
1.2864
1.33741
1.31971
1.34536
1.37281
1.34072
1.31873
1.30891
1.28611
1.27505
1.26785
1.27994
1.26211
1.25769
1.26525
1.27307
1.28789
1.28193
1.29801
1.27966
1.3026
1.2956
1.29607
1.29856
1.35326
1.38191
1.33989
1.35964
1.39677
1.41171
1.30682
1.33817
1.40683
1.3287
1.32844
1.40084
1.55628
1.61839
1.65186
1.61353
1.60931
1.55765
1.33502
1.3342
1.42958
1.34824
1.2754
1.31287
1.43163
1.11762
1.12266
1.12277
1.11175
1.097
1.09347
1.11337
1.15565
1.20143
1.19133
1.13504
1.13648
1.17833
1.1918
1.19203
1.18787
1.17313
1.16241
1.15471
1.14912
1.14613
1.14557
1.14718
1.14814
1.15016
1.1535
1.15468
1.15754
1.16084
1.1641
1.16665
1.16679
1.16566
1.16512
1.16353
1.16106
1.16342
1.16553
1.15815
1.15482
1.15002
1.14555
1.14847
1.15959
1.16933
1.17381
1.18095
1.17958
1.1703
1.17263
1.18462
1.19229
1.20354
1.2098
1.20679
1.20078
1.19424
1.18676
1.1793
1.17525
1.17645
1.18316
1.19234
1.20271
1.21224
1.21951
1.22158
1.21864
1.21161
1.20317
1.19724
1.19261
1.19141
1.19663
1.19988
1.19747
1.19385
1.1948
1.19756
1.20015
1.20323
1.20307
1.20166
1.1988
1.19572
1.18747
1.18548
1.18043
1.17762
1.17234
1.17732
1.17446
1.16544
1.16959
1.19364
1.19193
1.18736
1.20342
1.22008
1.22845
1.21631
1.22883
1.2273
1.23278
1.23308
1.2265
1.23733
1.22379
1.23029
1.22359
1.222
1.21705
1.21755
1.21104
1.21048
1.20004
1.20997
1.18831
1.18964
1.17746
1.19791
1.17832
1.19629
1.20879
1.24036
1.29053
1.32141
1.30371
1.37406
1.30178
1.34044
1.29652
1.35745
1.3341
1.32317
1.3317
1.28808
1.28502
1.26746
1.25463
1.24264
1.23022
1.24262
1.23323
1.23615
1.24302
1.25094
1.27904
1.27075
1.27991
1.24501
1.26625
1.30405
1.32032
1.28936
1.31529
1.37373
1.34575
1.364
1.39297
1.39784
1.31106
1.29646
1.39086
1.31597
1.28608
1.36856
1.49361
1.58057
1.61456
1.57733
1.60365
1.54669
1.38904
1.35561
1.4031
1.36824
1.34335
1.41413
1.49159
1.11468
1.11481
1.10886
1.09625
1.09018
1.11014
1.15735
1.19418
1.18971
1.17305
1.17798
1.19056
1.17694
1.16299
1.15543
1.14778
1.15187
1.15301
1.15636
1.15895
1.16059
1.15954
1.16148
1.16219
1.16434
1.16529
1.16493
1.16788
1.17057
1.17418
1.17659
1.17919
1.17646
1.16966
1.16619
1.16669
1.16584
1.16007
1.15381
1.15508
1.15606
1.15503
1.15403
1.15148
1.15126
1.15444
1.16518
1.1684
1.15842
1.15962
1.18116
1.19623
1.19813
1.19664
1.19767
1.19705
1.19203
1.1841
1.17751
1.1758
1.17962
1.18881
1.19874
1.20911
1.21768
1.22308
1.22084
1.21403
1.20672
1.20547
1.20782
1.20674
1.20689
1.2133
1.21935
1.22068
1.22028
1.22126
1.22187
1.22248
1.22482
1.22443
1.22476
1.22381
1.22336
1.21764
1.21304
1.20698
1.20619
1.19884
1.18818
1.18795
1.18536
1.16765
1.17304
1.18235
1.17614
1.18156
1.19233
1.20681
1.19152
1.20984
1.21313
1.21242
1.22652
1.21215
1.23365
1.22022
1.2295
1.22275
1.23092
1.20605
1.22894
1.19488
1.22021
1.19912
1.21352
1.18822
1.21219
1.1753
1.19926
1.17202
1.18025
1.19182
1.1743
1.21374
1.2633
1.20733
1.31877
1.27425
1.32691
1.28859
1.30744
1.26241
1.26454
1.28097
1.24852
1.25259
1.22547
1.2269
1.22411
1.22866
1.23556
1.22029
1.23239
1.22956
1.2254
1.24523
1.24
1.2617
1.22278
1.2464
1.31288
1.34162
1.28375
1.2931
1.39184
1.36315
1.36782
1.39087
1.37668
1.32162
1.28345
1.38947
1.30534
1.24818
1.33755
1.44397
1.53337
1.56957
1.54446
1.54698
1.41241
1.33449
1.37532
1.45418
1.42943
1.42244
1.48049
1.53029
1.11238
1.1091
1.10026
1.09169
1.10364
1.14523
1.18445
1.19076
1.17258
1.16851
1.18162
1.1745
1.16195
1.15575
1.15848
1.16952
1.16857
1.16574
1.16479
1.15694
1.15643
1.14891
1.15019
1.15096
1.1547
1.154
1.15242
1.15372
1.15814
1.1633
1.16789
1.17593
1.17846
1.17179
1.16542
1.16469
1.16746
1.17289
1.16979
1.15687
1.14376
1.15083
1.16658
1.16965
1.15936
1.15917
1.16229
1.15164
1.14671
1.1603
1.17895
1.18996
1.19807
1.19975
1.19363
1.18537
1.17737
1.17091
1.16885
1.17273
1.18059
1.19074
1.20098
1.21197
1.22319
1.23025
1.2263
1.21644
1.21083
1.21721
1.22573
1.22814
1.22819
1.22924
1.22982
1.22872
1.22768
1.22718
1.22622
1.22493
1.22463
1.22437
1.2245
1.22693
1.23233
1.23492
1.23571
1.23315
1.22943
1.23098
1.21706
1.20007
1.19601
1.18703
1.17399
1.18362
1.18144
1.17972
1.18376
1.19629
1.18935
1.18843
1.20349
1.20271
1.21074
1.20332
1.21847
1.21826
1.21912
1.21443
1.23945
1.20089
1.23597
1.20399
1.22275
1.20107
1.21947
1.19233
1.21097
1.18745
1.2092
1.1754
1.1777
1.20707
1.16164
1.16944
1.21779
1.16465
1.24074
1.20586
1.24833
1.22223
1.24146
1.22442
1.23211
1.21424
1.2058
1.21445
1.19645
1.21005
1.20056
1.21143
1.21425
1.19977
1.21654
1.20658
1.21735
1.24034
1.22272
1.2395
1.19959
1.23531
1.30109
1.36523
1.32816
1.3041
1.40586
1.37126
1.34955
1.36553
1.35533
1.32622
1.27449
1.39103
1.2982
1.21922
1.30791
1.4031
1.48842
1.53096
1.50724
1.48346
1.36555
1.33813
1.37979
1.47608
1.46935
1.48402
1.5306
1.51086
1.11053
1.10437
1.09267
1.08542
1.10958
1.16493
1.19473
1.17734
1.16373
1.16828
1.17327
1.16597
1.15874
1.1596
1.16542
1.16894
1.16004
1.16061
1.1546
1.15248
1.15822
1.15673
1.15925
1.16165
1.16841
1.16729
1.16063
1.15879
1.16153
1.16537
1.16591
1.17527
1.18979
1.18541
1.16828
1.15754
1.15602
1.16593
1.17797
1.17771
1.15705
1.14314
1.1416
1.15886
1.16657
1.17018
1.174
1.15868
1.14718
1.15941
1.18269
1.19395
1.19272
1.19061
1.18887
1.18454
1.17843
1.17217
1.16996
1.17324
1.18066
1.19053
1.20133
1.21655
1.23092
1.23536
1.22759
1.21718
1.21715
1.23196
1.24346
1.24339
1.23826
1.23153
1.22413
1.21577
1.20771
1.20218
1.19927
1.1979
1.19922
1.20011
1.20103
1.19901
1.2044
1.21598
1.22527
1.23702
1.24778
1.25442
1.25446
1.23635
1.2208
1.20909
1.1921
1.18935
1.19266
1.1859
1.18488
1.18987
1.19284
1.18437
1.19587
1.20402
1.1968
1.20188
1.20781
1.21028
1.20939
1.20503
1.2267
1.20818
1.22428
1.20997
1.22451
1.20443
1.21797
1.2067
1.20281
1.19848
1.21747
1.18524
1.18173
1.21068
1.18488
1.17442
1.19039
1.16916
1.2017
1.18704
1.20399
1.19114
1.19514
1.1828
1.18952
1.18835
1.2099
1.19616
1.18648
1.19132
1.18531
1.20731
1.19564
1.18857
1.21534
1.20036
1.20918
1.22356
1.20093
1.21462
1.20184
1.24602
1.2766
1.33044
1.35286
1.31587
1.40437
1.38607
1.34207
1.34612
1.34193
1.32462
1.25583
1.38401
1.3014
1.20036
1.28443
1.36364
1.466
1.49098
1.49356
1.42359
1.31751
1.35043
1.44644
1.54249
1.51017
1.50642
1.56316
1.49559
1.10938
1.10228
1.09531
1.11106
1.15305
1.17822
1.18141
1.17284
1.17416
1.18689
1.17458
1.16048
1.17007
1.17679
1.17986
1.17953
1.16993
1.17276
1.1667
1.16485
1.16486
1.16733
1.1666
1.16729
1.17189
1.1684
1.15543
1.15214
1.15543
1.16227
1.15864
1.15352
1.17253
1.19283
1.19025
1.17515
1.15972
1.1498
1.15543
1.16943
1.18192
1.17719
1.14894
1.13904
1.15103
1.16283
1.16832
1.15889
1.15787
1.17112
1.1817
1.18797
1.19282
1.19217
1.18665
1.17876
1.1717
1.16661
1.16745
1.17371
1.18217
1.19123
1.20127
1.21621
1.23179
1.24422
1.24733
1.23807
1.22514
1.22368
1.22957
1.23515
1.23263
1.22152
1.21018
1.20052
1.18991
1.18095
1.17839
1.17684
1.17717
1.1791
1.18543
1.18131
1.17879
1.18174
1.19046
1.19902
1.2221
1.24975
1.26702
1.26231
1.25222
1.23865
1.21902
1.20842
1.20548
1.2008
1.1957
1.19477
1.19676
1.19258
1.19442
1.20763
1.20181
1.19826
1.2083
1.20822
1.1998
1.20659
1.2164
1.21137
1.21701
1.21652
1.22589
1.2075
1.2125
1.2157
1.19886
1.19991
1.21428
1.19848
1.19025
1.19922
1.19828
1.19014
1.18471
1.17959
1.18284
1.18324
1.18884
1.1866
1.18166
1.18468
1.182
1.1817
1.18225
1.17589
1.20381
1.19617
1.1885
1.20731
1.18543
1.19368
1.20947
1.17889
1.19936
1.21682
1.18116
1.18906
1.22151
1.27297
1.30191
1.3214
1.36715
1.30189
1.36778
1.38876
1.32922
1.31597
1.31472
1.3219
1.23836
1.36173
1.31145
1.19891
1.25033
1.32572
1.44442
1.45102
1.49068
1.375
1.30633
1.36072
1.46786
1.56829
1.50286
1.50185
1.54863
1.46776
1.10874
1.10069
1.09346
1.11292
1.1647
1.19401
1.18894
1.18357
1.1791
1.17219
1.16108
1.15658
1.16144
1.16091
1.179
1.19789
1.18573
1.17123
1.15749
1.15289
1.15388
1.1601
1.16429
1.16893
1.17743
1.17442
1.1575
1.14848
1.1502
1.16274
1.17314
1.15747
1.14772
1.16174
1.17899
1.18503
1.18247
1.16998
1.15803
1.15185
1.16072
1.17578
1.17171
1.15506
1.14194
1.14145
1.15207
1.15284
1.15112
1.16812
1.18921
1.19184
1.1879
1.18772
1.18652
1.18169
1.1742
1.16794
1.16583
1.16887
1.17406
1.17873
1.18659
1.2015
1.22053
1.24085
1.25534
1.25878
1.25459
1.25111
1.24749
1.24174
1.23183
1.21866
1.2043
1.19268
1.18248
1.17649
1.18251
1.19142
1.19387
1.19535
1.20542
1.2113
1.2087
1.20211
1.19457
1.18932
1.19588
1.22289
1.25992
1.2743
1.26749
1.25997
1.23896
1.22561
1.22157
1.20889
1.20665
1.20886
1.20326
1.20587
1.204
1.2044
1.20812
1.19863
1.20539
1.20949
1.20235
1.20263
1.20805
1.21092
1.2057
1.21278
1.21786
1.20729
1.20686
1.2133
1.20457
1.20211
1.20538
1.20637
1.19804
1.19596
1.19522
1.19351
1.19074
1.18749
1.18244
1.18269
1.18182
1.18414
1.18456
1.18361
1.17638
1.1946
1.18676
1.18259
1.19021
1.18025
1.19425
1.19671
1.17482
1.20067
1.19104
1.16687
1.20302
1.19718
1.15105
1.18311
1.24769
1.26694
1.29587
1.3262
1.38277
1.31112
1.36582
1.38103
1.3213
1.30585
1.30232
1.32223
1.23409
1.33658
1.32124
1.21284
1.21158
1.29143
1.40429
1.41988
1.48359
1.32544
1.31117
1.40042
1.51763
1.58866
1.49211
1.52137
1.52539
1.47975
1.10871
1.10082
1.09265
1.10462
1.1478
1.18418
1.18183
1.17044
1.17426
1.1769
1.16156
1.15078
1.16023
1.16774
1.17604
1.18027
1.16595
1.15441
1.15333
1.1562
1.16352
1.16996
1.17262
1.17498
1.17939
1.1718
1.15612
1.1474
1.14422
1.14232
1.16328
1.17708
1.16464
1.15189
1.15269
1.15991
1.16826
1.17317
1.16944
1.16508
1.15906
1.1634
1.16952
1.17522
1.16239
1.14564
1.14268
1.14654
1.14766
1.15228
1.17322
1.19048
1.1919
1.18781
1.18426
1.17948
1.173
1.16688
1.16467
1.16731
1.17159
1.17587
1.18215
1.19477
1.20762
1.22359
1.23953
1.24941
1.24919
1.2459
1.24532
1.24352
1.23066
1.21065
1.19069
1.18412
1.18662
1.18757
1.19177
1.20617
1.21806
1.2188
1.22432
1.23929
1.2458
1.25063
1.24112
1.21924
1.20837
1.21956
1.2487
1.27675
1.28391
1.27945
1.26271
1.238
1.22857
1.21813
1.21095
1.21995
1.22166
1.22013
1.22195
1.21806
1.21202
1.20869
1.20948
1.20765
1.21106
1.20707
1.21048
1.21305
1.21073
1.20919
1.21229
1.21111
1.2054
1.20635
1.20891
1.20501
1.20557
1.2095
1.20452
1.19929
1.19271
1.19482
1.19232
1.19088
1.18626
1.18705
1.18456
1.18333
1.18564
1.18705
1.1855
1.18704
1.18128
1.19305
1.19015
1.17907
1.19329
1.18087
1.17247
1.2013
1.16006
1.16738
1.20038
1.16001
1.14617
1.20316
1.25451
1.26214
1.29093
1.34696
1.39356
1.33657
1.38588
1.33315
1.27126
1.2841
1.2938
1.31007
1.2266
1.31602
1.31796
1.22782
1.17575
1.26184
1.35482
1.39885
1.45344
1.28882
1.32203
1.42409
1.54176
1.5774
1.49403
1.53238
1.47749
1.47342
1.10886
1.1008
1.09095
1.09655
1.13605
1.18548
1.2051
1.19307
1.17692
1.17169
1.16443
1.15139
1.14686
1.14684
1.14858
1.14898
1.14641
1.14629
1.15083
1.15536
1.16126
1.16559
1.16165
1.15754
1.15604
1.15007
1.14568
1.14533
1.15257
1.14837
1.13623
1.14687
1.16424
1.16521
1.15683
1.15652
1.16099
1.16794
1.16839
1.16497
1.16207
1.15898
1.15926
1.17917
1.17983
1.16297
1.15742
1.1549
1.14929
1.14436
1.15441
1.17536
1.18822
1.18806
1.18414
1.17911
1.17323
1.1672
1.16364
1.16479
1.16766
1.17042
1.17454
1.18216
1.18819
1.19581
1.20562
1.21375
1.21695
1.2177
1.20884
1.19886
1.19079
1.18556
1.18115
1.18075
1.18684
1.19848
1.20417
1.20863
1.22064
1.21732
1.21069
1.21402
1.2187
1.23074
1.24545
1.24077
1.2283
1.2359
1.25774
1.27987
1.29234
1.29538
1.28201
1.25914
1.23994
1.2216
1.21522
1.22095
1.22659
1.23138
1.23609
1.2349
1.22519
1.22355
1.21861
1.21458
1.21476
1.21283
1.21072
1.21157
1.2136
1.20272
1.20903
1.21097
1.20734
1.20845
1.20883
1.20822
1.20758
1.20691
1.20227
1.19954
1.1949
1.19504
1.19234
1.19081
1.18993
1.18928
1.18886
1.18843
1.18958
1.18583
1.19265
1.18707
1.18482
1.18995
1.18424
1.17897
1.19136
1.16615
1.17921
1.18494
1.13721
1.17865
1.18057
1.1274
1.16073
1.20977
1.25199
1.28861
1.32787
1.36721
1.36249
1.279
1.32647
1.27083
1.20975
1.2441
1.27655
1.29125
1.21005
1.28898
1.30398
1.23688
1.14565
1.23395
1.296
1.39153
1.40091
1.26564
1.34573
1.45686
1.54476
1.56369
1.49923
1.48984
1.43293
1.45929
1.10986
1.10302
1.09292
1.08863
1.10777
1.14526
1.18094
1.19936
1.19821
1.19092
1.18326
1.17377
1.16722
1.1597
1.15575
1.15485
1.15422
1.15634
1.15991
1.16089
1.15958
1.15494
1.15184
1.15297
1.15174
1.14866
1.15048
1.15005
1.14616
1.1593
1.16728
1.15471
1.14226
1.14453
1.1448
1.14033
1.14177
1.15309
1.17201
1.17609
1.17056
1.1631
1.15336
1.16734
1.1843
1.17317
1.16815
1.17106
1.16458
1.1507
1.1473
1.16119
1.1795
1.18885
1.18814
1.18344
1.17671
1.16943
1.16425
1.1645
1.16665
1.16886
1.17019
1.17421
1.17732
1.18153
1.18943
1.19607
1.1987
1.19912
1.19441
1.18956
1.18355
1.18011
1.18575
1.1928
1.19837
1.20774
1.20758
1.20419
1.21349
1.21797
1.21096
1.20349
1.19436
1.1989
1.21674
1.22006
1.22448
1.23783
1.26098
1.28319
1.2971
1.30297
1.29298
1.26644
1.25111
1.23391
1.22624
1.23044
1.22977
1.23636
1.2437
1.24184
1.23997
1.24099
1.23298
1.22991
1.22659
1.22461
1.21462
1.2184
1.21422
1.20726
1.21329
1.21297
1.21121
1.20745
1.2079
1.21157
1.20708
1.20434
1.19887
1.19967
1.19382
1.19382
1.18982
1.19257
1.19377
1.19133
1.19508
1.18962
1.19466
1.18848
1.1926
1.18352
1.18789
1.18926
1.17526
1.17856
1.18235
1.15619
1.18292
1.15236
1.13638
1.18621
1.14342
1.11205
1.17842
1.22269
1.26915
1.29505
1.34203
1.36105
1.33274
1.22898
1.24933
1.2201
1.16182
1.1989
1.25657
1.27022
1.19343
1.26347
1.2897
1.23409
1.12877
1.21478
1.2532
1.39699
1.33535
1.26047
1.37464
1.4744
1.5589
1.55645
1.49495
1.4657
1.41709
1.46305
1.11142
1.10633
1.09659
1.08756
1.09236
1.11227
1.13669
1.16243
1.18062
1.18801
1.1887
1.18878
1.18489
1.17876
1.17486
1.17037
1.1685
1.16598
1.16329
1.16089
1.15775
1.15438
1.1547
1.1559
1.15557
1.15376
1.14803
1.14682
1.14369
1.13523
1.14118
1.1589
1.16238
1.15745
1.15311
1.15049
1.14711
1.12974
1.13106
1.16016
1.17115
1.17274
1.15826
1.15667
1.1733
1.17531
1.17416
1.17979
1.17698
1.16425
1.15709
1.16219
1.17312
1.18362
1.18921
1.18902
1.18393
1.17648
1.16816
1.16473
1.16504
1.1658
1.16613
1.16782
1.17015
1.17408
1.18005
1.1862
1.18918
1.18994
1.18738
1.18828
1.19484
1.19323
1.19945
1.21016
1.20955
1.21541
1.20457
1.19045
1.19613
1.21204
1.2254
1.23158
1.22243
1.22224
1.23758
1.23789
1.22991
1.24287
1.26361
1.28667