/*--------------------------------*- C++ -*----------------------------------*\
| =========                 |                                                 |
| \\      /  F ield         | OpenFOAM: The Open Source CFD Toolbox           |
|  \\    /   O peration     | Version:  dev                                   |
|   \\  /    A nd           | Web:      http://www.openfoam.org               |
|    \\/     M anipulation  |                                                 |
\*---------------------------------------------------------------------------*/
FoamFile
{
    version     2.0;
    format      ascii;
    class       volScalarField;
    object      T;
    location    "9.124";
}
// * * * * * * * * * * * * * * * * * * * * * * * * * * * * * * * * * * * * * //

dimensions      [0 0 0 1 0 0 0];

internalField   nonuniform List<scalar> 
12225
(
296.156
296.5
296.065
295.713
295.227
294.977
294.595
294.338
294.153
293.729
293.837
293.14
293.602
292.513
293.386
292.225
291.66
292.687
296.776
296.605
295.466
294.666
293.86
293.139
292.78
291.984
292.249
290.934
292.036
289.97
291.838
289.21
291.035
288.956
288.97
291.408
296.906
296.605
295.493
294.53
293.704
292.743
292.234
291.218
291.175
290.049
290.421
289.321
290.027
288.928
289.209
288.308
288.582
290.715
296.884
296.83
295.481
294.937
293.735
293.352
292.26
292.017
290.915
291.04
289.969
290.204
289.435
289.477
288.8
288.671
288.306
289.961
296.522
297.192
295.414
295.455
293.893
293.862
292.507
292.566
291.277
291.551
290.346
290.511
289.717
289.561
289.089
288.806
288.486
289.026
296.641
297.535
295.378
295.753
293.947
294.098
292.599
292.806
291.412
291.827
290.482
290.822
289.847
289.967
289.375
289.469
288.904
288.615
296.616
297.71
295.37
296.007
294.018
294.314
292.813
293.129
291.681
292.086
290.819
291.071
290.185
290.215
289.736
289.652
289.275
288.878
296.581
298.039
295.487
296.398
294.267
294.647
293.082
293.519
291.927
292.419
291.064
291.388
290.472
290.598
289.938
289.942
289.437
289.163
296.732
298.252
295.715
296.632
294.456
294.839
293.325
293.693
292.197
292.6
291.377
291.616
290.882
290.821
290.304
290.208
289.872
289.529
296.896
298.496
295.991
296.924
294.711
295.185
293.68
294.053
292.615
293.028
291.887
292.153
291.57
291.346
291.085
290.867
290.652
290.348
297.294
298.695
296.479
297.217
295.195
295.711
294.314
294.554
293.494
293.659
292.951
293.031
292.509
292.423
292.075
291.806
291.797
291.458
297.818
298.954
297.204
297.596
296.094
296.426
295.339
295.37
294.648
294.689
294.235
294.108
293.92
293.596
293.371
293.33
293.106
292.938
298.535
299.309
298.145
298.204
297.306
297.371
296.656
296.542
296.2
296.063
295.839
295.729
295.493
295.36
295.233
295.005
295.026
294.883
299.366
299.93
299.233
299.13
298.699
298.616
298.212
298.084
297.89
297.746
297.629
297.497
297.428
297.334
297.226
297.176
297.123
297.043
300.322
300.803
300.445
300.333
300.193
300.088
299.934
299.886
299.8
299.706
299.691
299.644
299.65
299.631
299.614
299.585
299.595
299.608
301.405
301.929
301.774
301.789
301.823
301.836
301.876
301.939
301.975
301.999
302.068
302.103
302.19
302.205
302.235
302.25
302.286
302.342
302.68
303.247
303.268
303.425
303.552
303.664
303.798
303.919
304.034
304.156
304.289
304.423
304.554
304.615
304.697
304.746
304.805
304.868
304.091
304.56
304.555
304.727
304.902
305.105
305.261
305.419
305.564
305.681
305.8
305.948
306.045
306.112
306.144
306.183
306.22
306.237
305.461
305.649
305.551
305.681
305.812
305.948
305.992
306.095
306.139
306.182
306.245
306.312
306.36
306.382
306.341
306.302
306.23
306.156
306.565
306.468
306.207
306.199
306.178
306.194
306.135
306.115
306.034
306.03
305.973
305.976
305.959
305.914
305.809
305.655
305.475
305.288
307.363
307.016
306.603
306.445
306.276
306.183
306.01
305.869
305.674
305.548
305.357
305.275
305.115
305.025
304.809
304.599
304.343
304.068
308.099
307.453
306.835
306.536
306.226
305.986
305.721
305.468
305.13
304.896
304.629
304.428
304.214
304.022
303.763
303.5
303.175
302.859
308.645
307.755
307.034
306.603
306.184
305.817
305.43
305.052
304.633
304.274
303.887
303.596
303.304
303.033
302.765
302.447
302.142
301.787
309.073
307.968
307.064
306.527
306.044
305.607
305.16
304.721
304.244
303.786
303.335
302.945
302.592
302.277
301.942
301.633
301.284
300.948
309.369
308.127
307.133
306.5
305.908
305.409
304.907
304.434
303.957
303.475
302.981
302.521
302.09
301.688
301.293
300.921
300.554
300.192
309.483
308.182
307.174
306.506
305.867
305.3
304.759
304.27
303.782
303.301
302.797
302.311
301.832
301.37
300.91
300.48
300.063
299.655
309.701
308.346
307.265
306.551
305.877
305.275
304.695
304.149
303.587
303.036
302.471
301.942
301.416
300.918
300.414
299.942
299.471
299.006
309.751
308.347
307.24
306.47
305.736
305.074
304.435
303.819
303.172
302.551
301.922
301.345
300.764
300.243
299.701
299.234
298.749
298.347
309.887
308.415
307.243
306.422
305.648
304.931
304.262
303.634
303.036
302.519
302.037
301.604
301.213
300.857
300.496
300.209
299.882
299.64
309.71
308.845
308.133
307.659
307.23
306.881
306.6
306.352
306.128
305.939
305.743
305.543
305.344
305.137
304.925
304.723
304.479
304.107
281.857
270.664
273.73
274.63
275.778
278.259
280.149
281.945
283.167
284.043
284.441
284.651
284.854
285.03
285.014
285.111
285.193
285.28
285.433
285.682
285.938
286.103
286.471
286.835
287.076
287.478
287.852
288.229
288.686
288.99
289.278
289.674
289.835
290.023
290.535
290.513
290.785
291.697
291.489
291.191
292.768
294.858
295.699
295.233
294.264
293.726
294.132
294.493
294.593
293.769
292.524
291.651
291.258
290.83
290.506
291.154
292.404
293.559
295.749
297.802
296.922
295.319
293.74
292.417
294.847
301.35
304.807
301.876
297.297
294.117
292.124
290.708
289.665
288.741
287.932
287.157
286.473
285.823
285.193
284.541
283.866
283.195
282.606
282.059
281.469
280.824
280.155
279.552
278.941
278.352
277.682
277.184
276.663
276.178
275.542
275.095
274.973
274.357
274.165
274.13
273.937
274.012
274.261
274.513
274.845
275.025
275.23
275.508
276.253
277.308
278.207
278.99
279.595
280.429
281.709
282.538
283.133
284.115
285.386
285.232
285.13
287.252
290.329
293.134
295.374
297.464
299.538
300.466
300.345
300.038
300.288
300.24
301.039
301.044
303.208
303.293
301.211
304.412
301.673
304.75
306.344
307.858
307.939
308.216
308.417
308.998
309.242
309.794
310.261
310.533
310.84
310.626
310.342
310.042
309.885
309.901
309.643
309.414
308.453
307.606
306.022
304.995
303.163
301.501
301.479
301.554
300.665
303.653
302.634
306.947
305.033
304.789
301.712
299.959
296.396
297.044
298.338
300.56
299.056
300.51
285.122
268.25
264.419
267.848
273.992
281.14
286.873
290.767
293.498
295.432
296.385
296.734
296.8
296.78
296.519
296.272
295.953
295.551
295.339
295.213
294.879
294.254
294.452
294.478
293.688
293.807
293.595
293.435
293.913
293.329
293.644
293.46
293.448
293.806
293.197
293.724
293.356
293.258
293.142
293.152
293.336
291.759
293.559
295
290.599
285.806
285.041
286.178
287.167
286.005
284.757
284.754
286.192
286.958
283.585
281.968
285.996
287.297
287.988
290.549
289.674
290.968
292.706
289.31
286.167
285.014
283.82
282.226
281.214
280.679
280.439
280.334
280.189
280.022
279.787
279.566
279.253
279.155
278.945
278.701
278.264
277.526
277.079
276.881
276.504
275.782
274.798
274.079
273.174
272.579
270.886
270.077
268.877
268.305
266.979
265.021
264.219
263.916
261.237
260.924
259.672
258.622
257.475
256.692
256.094
255.771
255.492
255.155
255.201
255.977
256.975
258.012
258.917
259.969
262.06
263.714
263.958
263.962
265.547
266.906
265.09
265.577
274.922
285.718
291.274
294.547
295.093
294.77
294.211
293.476
294.206
294.298
295.708
295.326
297.547
301.757
291.572
301.011
293.548
295.247
299.067
303.268
305.17
306.257
305.919
307.116
307.207
308.41
309.674
310.279
312.701
311.681
309.242
305.472
302.786
301.156
300.082
299.745
299.376
298.094
295.922
292.976
290.829
287.803
282.922
280.202
275.216
277.368
281.565
303.514
300.532
304.923
301.226
280.903
263.463
268.981
275.572
288.749
287.858
290.655
289.052
273.613
263.161
260.674
265.069
275.026
284.653
290.847
294.9
297.37
298.505
298.877
298.732
298.303
297.835
297.249
296.613
295.995
295.632
294.885
294.175
293.507
293.341
293.229
292.055
291.801
291.795
291.478
292.258
291.528
291.481
291.702
291.951
292.144
292.549
293.305
292.594
294.13
294.052
294.162
294.928
294.14
296.23
294.587
294.407
298.87
297.281
290.731
286.921
283.958
283.46
285.776
288.133
288.427
286.603
285.491
286.305
284.11
286.353
293.623
295.482
290.536
285.79
284.262
284.774
285.956
287.19
288.629
290.103
291.442
292.672
293.611
294.169
294.7
294.968
295.208
295.409
295.68
295.826
296.139
296.077
295.874
295.714
295.719
295.788
295.48
295.343
294.851
294.318
294.418
293.364
292.671
291.223
290.877
290.565
288.602
286.344
287.619
283.725
282.557
280.912
279.009
275.837
272.924
269.803
267.678
265.888
264.15
261.9
259.621
258.094
257.933
258.097
258.464
258.894
260.104
262.484
259.666
256.132
260.755
263.365
258.782
264.228
280.157
292.321
296.534
296.025
294.511
292.732
290.766
291.816
291.956
291.723
291.194
286.475
294.611
291.848
300.069
298.339
294.898
293.547
295.068
299.968
305.361
306.988
308.733
309.128
310.988
312.203
313.757
320.79
324.424
324.638
319.03
314.959
309.741
306.196
301.626
303.472
303.579
306.329
303.945
304.214
311.836
298.999
283.486
275.71
265.37
276.349
297.316
294.755
302.818
317.566
286.803
251.416
263.416
284.102
294.707
291.971
304.63
291.336
278.519
265.613
257.712
258.066
267.346
279.283
289.034
295.385
298.711
299.432
298.613
297.337
295.891
294.34
292.941
291.597
290.395
289.604
288.458
287.64
287.484
287.231
287.073
286.946
286.958
287.392
287.674
288.598
288.384
289.312
289.225
289.525
290.485
290.266
290.615
290.887
291.755
291.379
291.449
294.25
293.084
293.799
293.858
292.416
293.681
293.299
294.027
294.904
290.959
288.034
289.403
290.684
288.577
285.829
284.955
286.505
288.712
292.042
292.056
288.142
285.342
285.534
287.309
289.736
291.79
293.425
294.599
295.233
295.562
295.541
295.387
294.874
294.565
294.183
293.92
294.014
293.921
293.752
293.398
292.987
293.321
293.799
294.072
294.297
293.377
294.438
294.1
294.288
294.385
294.558
294.879
295.018
294.979
294.709
294.905
294.802
295.131
294.946
295.214
294.735
295.042
294.37
293.698
292.395
290.409
288.563
286.888
284.296
281.383
277.993
277.132
275.145
271.343
267.393
262.969
262.933
267.649
260.964
255.674
264.317
263.818
261.701
276.489
294.686
300.702
297.331
292.996
289.245
286.076
286.737
287.852
285.265
283.926
284.723
284.72
289.311
296.136
298.252
304.158
302.772
302.135
297.221
299.469
298.751
301.533
303.643
308.194
308.803
307.392
315.836
325.869
330.772
324.281
322.332
320.271
324.303
315.854
310.29
300.685
302.766
308.282
309.229
329.773
327.239
294.409
287.604
259.775
271.794
277.002
279.428
284.946
307.216
293.67
262.313
269.946
284.445
265.774
252.271
273.034
292.889
281.98
268.679
258.536
259.444
271.769
286.287
297.333
302.472
302.922
300.646
297.484
294.521
291.783
289.307
287.221
285.627
284.817
284.3
284.275
284.594
285.344
286.367
287.109
288.112
288.968
289.476
290.138
291.132
291.543
291.975
292.647
293.104
293.707
292.906
293.418
294.294
291.701
292.287
293.075
291.901
290.871
295.458
295.185
294.392
295.019
295.804
299.241
297.945
293.694
292.371
292.46
291.361
289.208
287.038
286.45
287.466
288.645
288.398
286.581
285.618
286.728
289.341
292.347
294.662
295.846
296.414
296.151
295.603
294.864
293.905
293.294
292.397
291.684
291.147
290.85
290.79
290.894
290.931
290.437
290.647
291.154
291.857
291.838
293.065
291.927
293.375
293.189
293.171
293.928
294.83
294.72
294.573
294.628
294.488
294.333
293.538
293.612
292.902
293.13
293.008
293.338
293.57
293.933
294.605
295.31
295.254
296.466
295.095
294.935
292.661
289.054
289.859
292.368
290.723
286.142
274.241
267.623
269.061
263.619
261.488
267.893
267.138
269.812
282.963
293.937
298.24
293.488
288.914
287.235
285.078
283.854
283.302
284.127
276.763
289.229
287.284
290.985
289.08
295.964
299.778
307.586
305.937
312.982
307.912
307.904
308.338
315.381
319.91
312.064
314.076
327.245
340.966
324.073
314.447
313.273
329.801
326.439
321.755
310.964
306.017
309.943
299.052
315.689
335.668
307.111
299.433
263.504
265.651
270.985
282.311
286.815
301.981
306.857
295.352
293.708
287.77
260.803
247.588
257.636
294.296
285.665
274.698
267.555
273.022
286.911
298.424
303.374
301.933
297.473
292.57
288.213
284.582
281.737
279.908
279.068
279.632
281.332
283.603
285.974
287.877
289.35
290.343
290.701
290.923
290.995
291.088
291.421
291.731
292.39
292.455
293.463
294.704
295.974
296.055
295.807
297.523
296.734
296.553
294.773
293.02
292.285
291.756
291.358
295.034
294.091
290.477
292.931
294.663
295.884
295.744
291.026
286.849
285.808
285.924
286.135
286.517
286.417
286.207
286.576
288.542
291.859
295.016
297.029
297.306
296.656
295.086
293.277
291.559
290.097
288.972
288.321
288.02
287.86
287.866
288.255
288.659
288.879
288.878
289.063
289.543
290.731
292.009
291.495
293.066
292.508
293.159
292.439
291.713
292.175
294.269
295.249
295.25
296.491
297.052
298.451
297.523
297.662
296.961
296.752
295.784
295.563
294.667
294.927
294.516
294.321
295.497
296.562
296.631
298.008
299.029
299.341
297.754
299.096
298.765
295.363
293.186
290.829
287.916
281.727
269.585
262.81
265.838
271.457
281.621
287.764
289.35
289.336
289.1
288.245
288.494
299.902
281.085
291.843
281
283.076
283.468
287.64
290.929
298.539
298.031
301.631
300.875
311.245
315.095
317.428
314.935
315.481
325.912
322.847
316.198
316.317
338.773
329.403
317.47
310.895
332.233
336.563
326.458
315.622
311.983
323.045
304.085
307.538
331.091
316.433
304.931
270.762
263.863
268.036
273.45
283.325
299.51
303.051
296.276
289.619
290.198
286.607
285.329
282.807
295.679
290.028
283.676
281.847
289.672
298.816
302.973
301.337
296.471
291.117
286.014
282.435
279.249
278.668
282.667
288.213
291.857
293.014
292.641
291.445
289.918
288.54
287.777
287.285
287.031
286.517
286.095
286.28
286.47
286.803
287.677
288.859
289.567
291.118
293.177
294.247
295.86
296.663
298.302
298.228
298.119
296.589
292.807
292.479
295.932
295.001
295.36
299.499
300.229
298.281
294.163
290.336
287.782
286.225
286.057
286.41
286.802
287.3
288.628
291
294.099
296.775
297.678
296.769
294.747
292.472
289.941
288.372
287.349
287.05
287.391
288.074
289.201
290.165
291.174
292.654
294.353
295.132
295.142
296.097
296.969
298.309
299.144
299.022
299.834
299.564
299.588
298.202
295.938
294.051
295.287
296.346
294.661
292.547
293.805
296.071
296.035
296.124
296.122
297.281
297.095
296.518
296.73
295.465
296.42
295.769
294.35
295.443
296.785
297.669
296.754
298.774
300.972
301.277
301.086
300.665
302.358
300.932
297.416
298.389
295.267
285.797
271.754
265.532
268.338
284.738
289.021
292.339
293.518
297.334
289.917
301.783
291.041
294.2
284.549
281.95
287.799
291.626
288.755
297.3
305.556
312.5
310.422
313.228
316.108
319.541
319.374
314.366
318.834
322.023
325.71
318.275
329.392
329.839
323.27
308.815
316.349
330.64
325.307
316.4
314.049
335.546
318.469
309.621
330.327
326.103
311.147
277.877
267.086
266.215
270.001
279.213
296.593
314.222
296.272
280.925
303.477
322.417
313.925
288.279
296.779
293.805
291.642
293.497
299.323
303.012
302.376
297.135
290.096
281.692
272.233
275.656
289.301
294.467
291.178
287.392
284.593
282.706
282.124
282.569
283.359
284.183
284.9
285.88
286.762
286.797
286.752
286.78
286.362
286.334
286.352
286.458
287.241
288.12
288.351
289.079
290.826
291.662
293.478
295.122
297.926
298.187
294.797
292.599
292.436
292.715
294.363
296.142
296.797
296.198
292.645
289.114
288.186
288.59
287.806
287.402
288.084
289.8
292.537
295.347
297.243
297.29
295.908
293.831
291.631
289.738
288.646
288.779
289.439
291.136
293.334
295.369
297.019
297.757
298.641
300.364
302.545
303.58
303.592
303.901
304.275
304.873
305.767
306.748
307.933
309.166
309.195
309.672
309.083
306.689
305.514
306.847
306.368
300.351
296.729
299.459
299.258
296.082
294.703
295.125
297.527
296.001
296.976
296.4
296.095
297.112
297.16
297.566
295.985
298.349
299.154
297.744
299.386
300.853
303.525
301.441
302.622
307.624
304.024
303.166
301.934
302.7
294.862
286.548
273.257
271.384
274.831
282.76
282.608
298.411
286.21
289.722
280.064
285.264
283.022
278.968
287.765
294.316
299.338
306.139
310.498
314.19
313.206
319.705
322.741
322.521
322.596
320.541
323.796
321
328.567
324.828
325.157
326.284
329.876
319.084
310.017
319.664
317.268
310.125
306.051
331.289
328.822
310.562
327.767
331.446
315.48
284.358
271.753
264.821
270.269
268.884
274.645
320.785
324.313
300.928
314.285
329.85
319.271
291.023
297.459
296.264
296.506
299.598
303.349
303.58
297.172
285.95
275.971
279.95
294.177
292.258
281.351
278.749
279.292
280.921
284.752
287.471
289.417
290.824
291.583
291.796
291.484
291.377
290.956
290.389
290.391
289.869
289.327
288.781
288.48
288.778
289.423
289.993
290.821
291.719
291.4
291.422
293.713
294.852
296.398
297.943
297.643
295.26
293.252
292.547
291.186
291.976
294.717
294.479
291.879
290.402
288.087
287.083
288.278
290.118
292.062
294.242
296.428
297.761
297.771
296.419
294.487
292.319
290.41
289.098
289.031
290.152
292.243
294.71
296.595
298.144
298.793
297.906
297.619
298.716
300.026
300.161
299.882
299.659
299.324
299.796
300.552
301.656
302.802
305.271
306.15
307.823
308.893
310.694
309.771
310.71
313.421
312.985
306.868
307.181
308.725
304.996
300.851
298.492
301.608
298.643
298.892
297.579
297.226
298.906
296.015
299.084
297.42
298.72
298.827
300.007
299.436
300.974
300.577
303.311
300.382
305.668
305.252
309.088
303.675
309.182
305.55
303.165
297.458
286.216
278.815
284.349
268.697
283.916
277.038
288.078
277.201
283.669
287.994
287.659
298.967
300.786
307.023
311.207
315.708
320.373
319.09
323.191
323.677
324.051
324.268
318.487
322.041
320.831
332.269
328.702
318.087
313.747
324.584
321.79
306.627
312.666
310.511
305.196
304.299
323.222
331.904
308.504
324.821
336.226
317.167
291.286
273.955
267.021
272.592
267.272
277.45
304.858
311.362
300.274
304.933
308.755
292.388
276.092
297.854
297.909
299.684
303.096
304.189
297.731
285.299
277.436
279.737
283.427
281.067
278.613
283
286.587
288.362
289.901
288.642
288.36
287.526
287.096
286.855
287.388
287.045
287.058
286.704
286.839
287.206
286.735
286.308
285.679
285.362
284.964
286.001
288.123
289.341
289.546
290.204
292.022
293.897
294.094
294.406
294.98
295.587
296.764
297.363
296.958
294.691
294.424
297.403
297.413
292.377
289.222
289.296
290.086
290.239
290.843
292.533
294.913
296.937
297.726
297.114
295.201
293.173
291.101
289.533
288.775
289.812
291.888
294.076
294.846
294.812
295.593
295.964
294.813
293.872
294.092
294.682
294.924
295.271
295.608
295.54
296.123
296.514
297.185
297.696
299.465
300.982
302.878
303.448
305.566
308.769
309.289
310.101
315.189
314.419
312.041
313.822
312.799
310.274
306.309
310.352
305.973
304.811
305.129
301.334
304.895
299.453
302.317
299.935
301.343
298.648
304.895
298.596
306.913
300.317
305.222
301.232
307.565
301.069
310.429
304.35
311.453
310.106
306.789
313.119
304.83
292.377
308.014
282.655
292.663
281.858
290.829
288.418
299.862
300.509
298.455
306.643
306.777
315.019
315.475
317.676
317.227
317.14
322.842
320.712
323.422
325.968
322.342
325.553
320.783
332.603
327.879
311.676
303.461
317.735
320.06
296.845
302.549
304.238
300.18
303.487
314.704
328.054
302.838
321.002
339.717
318.707
295.682
277.754
270.275
273.95
273.098
300.005
315.331
304.52
285.936
288.68
288.971
277.452
267.95
298.028
298.963
301.479
303.704
299.698
288.165
279.154
278.782
283.228
283.667
280.689
282.964
285.903
287.046
285.989
283.307
284.027
284.797
285.378
287.466
287.636
289.619
289.323
289.234
288.426
288.952
289.715
289.666
288.779
287.782
286.962
285.211
284.771
286.798
288.921
289.588
289.237
288.111
289.199
292.983
296.906
295.49
292.015
291.7
294.747
295.237
294.998
298.282
299.978
296.866
292.667
290.487
289.038
289.191
291.204
293.701
296.137
298.19
299.119
298.551
297.009
294.938
292.904
290.759
288.644
287.588
289.106
291.953
293.746
292.716
291.285
291.308
291.815
292.064
292.468
293.303
294.133
294.846
295.678
296.578
297.232
297.867
298.394
298.369
297.574
297.369
297.568
298.515
299.779
299.65
303.233
308.028
309.555
312.08
316.162
314.058
314.678
315.456
314.786
311.513
313.127
313.807
309.875
309.876
307.715
309.497
305.641
305.209
304.687
305.931
298.893
308.14
299.21
306.313
301.451
306.468
301.466
307.743
303.165
308.532
302.817
311.206
311.459
303.35
315.111
315.064
303.126
317.038
299.788
308.574
299.63
306.417
302.98
307.478
306.477
312.404
314.404
313.885
319.251
316.908
320.754
318.575
319.604
324.488
320.718
325.027
323.102
318.278
324.684
321.623
332.513
324.064
310.278
295.2
300.303
309.837
288.681
294.64
302.253
300.215
302.433
308.033
324.21
296.965
316.056
340.56
319.757
298.627
280.816
272.388
275.63
280.432
304.438
308.294
298.194
278.048
278.299
275.223
266.018
269.689
298.04
299.694
302.859
304.325
297.027
283.275
277.049
281.513
284.39
282.99
282.268
284.232
285.628
285.129
283.721
283.277
285.641
285.452
287.133
287.49
286.182
286.504
286.035
285.555
284.107
284.793
286.937
287.642
287.189
286.512
286.793
284.951
281.626
282.826
287.324
290.481
291.399
289.498
286.922
287.279
292.622
296.718
297.9
294.003
292.46
292.023
291.636
296.046
299.467
296.755
291.455
289.311
290.18
291.221
292.185
293.797
295.856
297.938
298.983
298.63
297.242
295.282
293.133
290.018
287.275
286.959
289.469
292.475
292.871
289.842
287.847
288.574
290.403
292.596
294.995
297.682
300.341
302.41
303.837
304.874
305.217
305.655
306.033
307.232
306.586
304.308
302.541
300.168
297.863
296.469
296.456
300.93
305.181
308.469
313.313
314.698
314.041
315.994
316.639
315.58
314.647
317.032
314.304
311.775
313.527
312.242
310.462
309.476
309.346
310.342
304.379
308.262
304.021
306.847
302.726
307.196
303.603
305.386
306.469
307.171
301.946
309.32
310.834
303.605
309.018
312.447
309.472
314.501
307.981
311.458
308.484
311.839
312.138
315.701
315.169
315.902
310.921
315.648
317.682
318.169
320.759
315.618
320.409
322.639
316.585
322.188
320.61
317.807
325.514
323.245
324.754
314.103
308.681
298.644
290.68
301.709
284.734
285.868
297.324
298.598
299.84
302.495
322.813
293.538
308.762
338.154
319.591
301.727
279.702
274.924
272.828
287.122
310.316
301.871
280.554
262.423
268.319
269.274
258.866
270.355
297.828
299.683
301.484
296.637
285.384
279.869
279.731
281.599
281.063
278.339
281.643
284.831
282.201
280.698
279.871
279.864
282.207
281.826
283.538
284.076
284.232
283.606
283.902
283.804
282.872
284.104
287.747
288.849
288.207
286.662
287.756
289.636
285.526
280.871
281.511
285.312
289.501
292.652
291.894
288.911
286.06
287.585
295.24
298.481
295.97
293.534
292.689
295.567
296.331
293.522
291.48
290.524
289.931
290.697
292.648
295.185
297.522
299.366
299.687
298.64
297.059
295.352
293.447
290.435
287.42
285.312
285.44
288.342
291.958
292.787
291.971
291.354
292.684
296.06
299.548
302.699
306.152
309.231
310.636
311.742
312.38
312.609
311.575
313.24
314.65
314.727
313.259
311.915
306.827
300.355
296.142
297.128
299.727
303.201
308.464
311.746
312.878
314.343
315.91
316.385
315.958
316.991
316.811
313.244
314.268
315.317
312.512
311.929
313.869
311.92
308.89
309.43
307.681
307.097
304.037
307.867
306.442
304.638
308.343
307.89
303.923
306.785
308.853
306.968
306.543
308.326
310.139
311.262
311.475
311.373
310.653
311.217
313.079
312.497
314.169
314.259
315.716
317.931
310.768
313.714
315.817
312.324
319.117
316.586
314.414
323.674
318.122
314.787
325.981
324.298
313.475
302.705
296.355
293.529
282.362
298.437
286.606
280.57
293.865
298.869
300.296
297.244
320.203
293.319
300.706
330.51
322.377
304.818
279.097
277.558
268.526
292.391
306.978
294.417
272.981
255.383
267.18
266.877
259.427
272.662
297.477
299.551
301.536
296.283
283.082
276.053
277.359
278.666
279.719
281.521
284.224
285.221
284.037
284.079
279.579
275.351
278.484
282.24
285.491
286.541
286.184
284.687
283.749
282.747
280.943
282.053
286.461
288.983
288.833
286.146
283.579
287.482
290.656
287.948
284.129
282.801
283.514
286.773
290.329
292.539
290.961
287.688
288.944
293.56
297.694
298.535
296.39
296.723
297.738
293.992
289.386
289.378
290.952
291.608
292.543
294.389
296.903
299.117
300.26
300.084
299.375
298.812
297.467
294.431
290.506
286.478
283.97
284.019
285.74
287.224
288.744
290.784
293.856
297.797
302.15
305.904
309.329
311.714
310.941
309.312
309.336
309.743
307.936
306.934
308.086
310.317
313.039
315.471
315.042
309.177
300.414
296.729
298.311
300.204
305.5
309.467
310.815
314.353
315.351
314.763
316.27
315.643
316.038
316.019
314.758
317.021
315.229
313.635
314.874
314.564
312.718
311.187
311.982
309.665
307.554
309.236
308.948
306.605
307.761
307.921
306.76
305.597
307.131
307.583
307.625
307.633
308.118
308.78
310.279
310.32
310.885
310.493
310.394
310.943
313.244
308.844
311.308
312.267
311.817
315.075
311.162
311.959
317.869
310.902
315.793
321.614
312.184
316.034
328.683
319.104
302.221
299.65
293.484
286.107
274.049
288.975
279.391
278.088
291.212
295.022
296.795
291.766
314.444
293.244
293.673
319.565
326.242
307.187
282.514
278.675
265.44
298.28
301.102
281.679
259.923
249.023
265.35
259.873
261.062
267.609
296.98
298.977
301.26
298.254
287.221
278.107
278.329
281.097
280.322
279.689
283.324
286.055
283.856
282.048
280.337
279.697
283.047
285.681
285.68
284.88
283.101
281.716
281.396
281.183
280.527
282.599
286.351
288.55
289.48
290.529
286.014
282.555
285.478
289.195
289.779
288.471
286.723
285.677
286.875
288.42
290.592
290.256
289.222
288.045
291.752
296.772
298.27
297.922
298.293
297.78
293.122
289.492
289.798
291.459
292.993
294.853
297.176
299.435
300.703
300.721
300.321
299.94
299.066
296.619
294.149
291.02
288.04
286.564
287.432
289.014
289.973
291.208
295.059
300.768
306.711
309.346
309.544
310.077
309.879
307.086
304.781
305.404
305.082
302.226
301.252
300.47
302.896
308.852
312.794
311.21
304.885
298.388
296.593
297.605
301.529
307.988
310.945
313.915
316.255
314.158
313.507
313.852
313.219
313.945
315.419
316.046
315.613
315.788
314.326
314.804
313.467
312.092
311.806
311.699
310.127
309.35
310.018
309.123
307.508
307.655
306.911
305.251
305.755
306.527
307.871
306.941
307.248
307.318
308.233
307.954
308.492
308.913
308.354
308.149
308.218
308.732
310.299
307.198
308.479
311.519
308.176
312.573
313.987
307.441
319.978
316.171
308.954
321.668
323.357
308.199
296.428
294.258
287.81
275.97
268.319
280.819
271.338
283.746
299.274
295.932
293.369
289.44
310.757
292.346
289.961
309.817
329.488
308.647
288.204
277.813
266.935
301.441
293.804
273.025
252.862
247.724
261.103
255.818
266.781
266.538
296.475
298.482
301.206
299.986
289.978
277.855
272.772
275.066
278.874
280.241
281.851
284.991
286.346
286.586
286.348
286.346
286.811
286.688
285.565
284.569
283.403
282.669
283.843
285.026
285.662
287.207
288.151
288.29
286.789
287.775
291.413
289.565
285.597
285.446
287.905
288.617
288.06
286.695
286.692
287.907
289.154
290.65
291.323
286.899
287.073
291.842
293.955
295.297
297.461
299.522
297.706
293.09
290.55
291.276
292.96
294.938
297.153
299.439
301.116
301.59
301.614
301.68
301.409
300.239
299.494
298.391
296.797
295.653
295.753
296.443
299.478
302.907
305.938
308.245
310.303
311.336
310.709
308.549
307.961
307.891
305.72
307.207
309.897
310.22
310.138
308.066
304.703
305.89
309.536
308.618
304.069
299.275
296.542
295.807
298.795
304.423
309.462
314.54
316.709
315.551
314.163
312.817
311.38
311.27
313.415
313.538
314.457
315.098
314.605
314.421
314.457
313.529
312.079
314.125
311.719
310.179
310.086
308.971
307.972
307.087
306.464
305.905
306.328
306.211
306.769
306.233
306.469
306.362
306.095
306.062
305.762
305.806
305.262
306.375
304.397
306.069
306.358
305.413
307.258
308.261
305.434
312.595
308.138
308.639
320.984
308.557
310.556
325.33
313.649
301.724
291.778
283.088
274.223
267.448
270.159
290.652
281.521
292.392
308.927
301.258
292.521
288.532
309.497
293.231
288.498
302.56
331.255
309.733
296.349
274.292
272.898
301.753
283.976
262.724
248.454
246.1
256.619
260.21
271.081
265.957
295.812
297.434
300.164
301.632
297.061
287.793
278.988
274.117
273.832
275.286
276.928
278.97
280.48
282.344
283.418
283.727
283.904
283.489
282.781
282.693
283.231
284.616
285.444
285.201
285.61
286.472
286.271
286.603
288.113
285.276
283.137
286.314
290.079
290.038
290.268
291.879
292.131
290.191
285.956
284.913
286.586
288.942
292.174
289.55
285.84
289.004
290.941
290.886
293.157
297.474
299.264
296.549
292.657
291.024
291.919
293.851
296.315
298.966
301.123
301.891
302.162
302.414
302.917
302.734
302.809
302.653
301.567
300.789
301.037
301.841
303.965
306.156
308.657
310.594
310.128
309.179
308.734
307.249
308.216
310.286
309.021
308.435
310.661
313.293
316.806
316.952
313.083
312.699
312.344
309.79
304.815
299.921
296.866
295.572
297.698
304.186
308.284
312.79
315.189
314.303
314.578
312.953
310.813
310.894
310.967
310.24
311.77
312.102
312.42
312.198
314.148
312.379
312.572
313.36
310.969
309.959
309.357
309.346
308.303
306.31
306.498
306.223
306.696
305.589
306.317
305.57
305.964
304.566
303.71
303.914
302.504
303.655
302.061
303.45
302.179
304.53
302.929
302.748
306.482
305.019
304.774
311.178
303.868
313.475
315.92
302.785
316.558
323.838
304.013
293.159
282.916
277.759
267.989
265.438
271.589
295.083
292.789
298.019
314.39
307.365
292.28
288.163
308.077
293.977
286.961
298.74
329.549
308.913
300.943
268.438
282.141
297.972
273.711
255.704
242.52
243.839
253.726
260.414
269.524
261.406
295.116
296.257
298.721
301.184
300.39
295.706
289.732
283.296
278.573
276.475
276.045
275.826
276.579
277.92
278.863
279.974
280.508
281.249
281.992
282.662
283.531
284.338
284.295
284.205
284.5
285.104
286.744
287.306
288.039
290.389
289.615
285.427
284.634
286.172
287.608
288.747
289.682
294.654
295.751
288.924
286.257
286.109
290.282
291.683
288.329
288.31
289.219
288.5
289.803
293.722
296.454
296.078
294.147
292.287
291.654
292.47
294.535
297.243
300.237
302.017
302.832
303.51
304.327
304.811
305.162
305.133
304.571
303.937
304.123
304.883
306.541
307.392
306.636
308.003
307.54
305.751
306.911
306.281
309.671
314.571
314.637
311.582
308.672
307.343
310.309
311.49
308.409
308.624
311.537
309.471
305.25