/*--------------------------------*- C++ -*----------------------------------*\
| =========                 |                                                 |
| \\      /  F ield         | OpenFOAM: The Open Source CFD Toolbox           |
|  \\    /   O peration     | Version:  dev                                   |
|   \\  /    A nd           | Web:      http://www.openfoam.org               |
|    \\/     M anipulation  |                                                 |
\*---------------------------------------------------------------------------*/
FoamFile
{
    version     2.0;
    format      ascii;
    class       volVectorField;
    object      U_0;
    location    "9.124";
}
// * * * * * * * * * * * * * * * * * * * * * * * * * * * * * * * * * * * * * //

dimensions      [0 1 -1 0 0 0 0];

internalField   nonuniform List<vector> 
12225
(
(7.11067 0.726799 0)
(4.43119 0.531515 0)
(2.61542 0.365763 0)
(2.8606 0.332615 0)
(1.79134 0.326779 0)
(3.23521 0.306926 0)
(2.13956 0.306509 0)
(4.25525 0.24889 0)
(2.95602 0.317073 0)
(5.71343 0.174161 0)
(4.44095 0.318442 0)
(7.9744 0.0763238 0)
(6.56784 0.210201 0)
(11.2142 -0.0273185 0)
(11.7267 0.186154 0)
(15.7307 -0.997165 0)
(30.88 -3.51309 0)
(34.2541 3.68346 0)
(9.4848 2.05825 0)
(9.28454 1.9792 0)
(6.2915 1.54984 0)
(7.29065 1.30836 0)
(3.69783 1.15912 0)
(6.81742 1.11205 0)
(2.60683 1.02077 0)
(7.39305 0.975021 0)
(2.15707 0.937469 0)
(9.10503 0.798776 0)
(2.87008 0.792787 0)
(11.9675 0.387615 0)
(4.95999 0.510608 0)
(15.6646 -0.640251 0)
(9.94287 -0.0585876 0)
(21.0315 -5.11711 0)
(22.4727 -3.61989 0)
(25.5344 -1.15037 0)
(9.07615 2.57766 0)
(12.2016 2.88955 0)
(8.013 2.53476 0)
(11.6974 2.39591 0)
(5.90849 2.12087 0)
(11.3838 2.11987 0)
(4.62158 1.84314 0)
(11.9741 1.8696 0)
(4.21212 1.58738 0)
(13.3369 1.38949 0)
(5.68751 1.40223 0)
(14.5199 0.547742 0)
(8.11241 1.18954 0)
(15.8102 -0.440708 0)
(11.4924 0.0866667 0)
(17.8428 -4.22582 0)
(17.3338 -2.25759 0)
(23.7073 -0.0438015 0)
(7.03876 3.14395 0)
(14.1888 3.82823 0)
(7.88667 3.46917 0)
(14.1536 3.40906 0)
(7.88642 3.20016 0)
(13.8901 3.0382 0)
(8.01574 2.8862 0)
(14.0878 2.68622 0)
(8.48399 2.6549 0)
(14.1648 1.79728 0)
(9.57744 2.45655 0)
(14.4243 0.773434 0)
(10.9123 2.02342 0)
(15.7713 -0.461872 0)
(12.4215 0.441721 0)
(15.681 -6.00369 0)
(15.4467 -4.11248 0)
(22.7153 2.18929 0)
(6.81044 4.18322 0)
(13.3194 4.3315 0)
(9.25876 4.61094 0)
(12.9899 4.02052 0)
(10.2527 4.47111 0)
(12.6233 3.69547 0)
(10.5899 4.11089 0)
(12.7343 3.29946 0)
(11.3191 3.9431 0)
(12.7339 2.38119 0)
(12.0786 3.82178 0)
(13.2703 1.31415 0)
(12.8845 3.36734 0)
(14.7515 0.0367435 0)
(14.2483 2.84786 0)
(16.0206 -5.25892 0)
(13.729 -1.35375 0)
(16.0283 -0.99706 0)
(8.97614 5.16582 0)
(10.5588 4.97119 0)
(10.0411 5.69515 0)
(10.3517 4.83846 0)
(10.708 5.61508 0)
(10.4569 4.6612 0)
(10.9189 5.1982 0)
(10.8906 4.19852 0)
(11.7894 4.95345 0)
(11.5649 3.2728 0)
(12.6425 4.66924 0)
(12.7207 2.20489 0)
(13.781 3.74697 0)
(14.0224 0.840804 0)
(15.1152 2.57596 0)
(15.2785 -1.93489 0)
(12.2565 0.104216 0)
(10.5848 -1.85286 0)
(10.3562 6.54648 0)
(9.45714 5.86144 0)
(10.3887 7.28143 0)
(9.73687 5.55868 0)
(10.6157 7.22354 0)
(10.144 5.37561 0)
(11.0778 6.83495 0)
(10.6471 4.73323 0)
(11.9952 6.60275 0)
(11.6986 3.82944 0)
(12.7789 6.26658 0)
(13.1124 2.73893 0)
(13.8799 5.32453 0)
(14.0577 1.28938 0)
(14.7625 3.8406 0)
(14.5167 -1.71088 0)
(13.0131 1.81349 0)
(11.1821 -0.982445 0)
(10.4775 7.30101 0)
(9.76187 6.98026 0)
(10.5021 8.25887 0)
(10.1889 6.65065 0)
(10.6034 8.10924 0)
(10.5156 6.42926 0)
(11.1259 7.59675 0)
(10.8684 5.88725 0)
(11.9929 6.99842 0)
(11.6793 5.15167 0)
(12.7119 6.34852 0)
(12.8678 4.13827 0)
(13.577 5.26563 0)
(13.6863 2.85232 0)
(14.2388 4.03663 0)
(14.1064 1.4016 0)
(13.1619 2.5214 0)
(12.7808 0.86301 0)
(10.7252 8.45513 0)
(9.45521 7.68025 0)
(10.7524 9.39195 0)
(9.72419 7.32908 0)
(10.7232 9.27802 0)
(10.1444 7.07218 0)
(11.1457 8.82776 0)
(10.7043 6.48859 0)
(11.7654 8.25578 0)
(11.6152 5.72054 0)
(12.357 7.43308 0)
(12.6751 4.78935 0)
(13.1045 6.28154 0)
(13.4188 3.52593 0)
(13.5243 4.88238 0)
(13.867 2.36171 0)
(13.1427 3.39792 0)
(13.0502 1.96243 0)
(10.7637 9.18184 0)
(10.0823 9.12607 0)
(10.6431 10.4581 0)
(10.11 8.85752 0)
(10.4406 10.1064 0)
(10.3855 8.5729 0)
(10.7968 9.54894 0)
(10.8342 8.07124 0)
(11.3196 8.8033 0)
(11.5957 7.32162 0)
(11.8594 7.89489 0)
(12.5366 6.38906 0)
(12.6477 6.69982 0)
(13.1507 5.17958 0)
(13.095 5.40286 0)
(13.5695 4.001 0)
(13.2596 3.90387 0)
(13.3327 3.34534 0)
(10.6604 10.5424 0)
(9.89639 10.1994 0)
(10.5236 11.7666 0)
(9.95826 9.9281 0)
(10.3493 11.4262 0)
(10.1263 9.60516 0)
(10.6057 10.8723 0)
(10.5424 9.06725 0)
(11.1265 10.0698 0)
(11.2809 8.25016 0)
(11.7003 8.93858 0)
(12.1477 7.36396 0)
(12.2971 7.61926 0)
(12.6327 6.2654 0)
(12.6927 6.26295 0)
(12.9644 5.24015 0)
(12.8425 4.88513 0)
(12.9444 4.30926 0)
(10.4369 11.4701 0)
(10.0048 12.0568 0)
(10.1287 12.8263 0)
(9.86062 11.8196 0)
(9.96282 12.3845 0)
(10.0406 11.5097 0)
(10.2876 11.7648 0)
(10.4798 10.8832 0)
(10.8014 10.941 0)
(11.1056 9.93585 0)
(11.3053 9.92049 0)
(11.7468 8.90606 0)
(11.8264 8.70851 0)
(12.0916 7.8691 0)
(12.2156 7.48021 0)
(12.3717 6.77042 0)
(12.3414 6.24057 0)
(12.4749 5.64962 0)
(10.2533 13.0029 0)
(9.93642 13.6358 0)
(9.7645 14.4081 0)
(9.57915 13.3974 0)
(9.62321 13.9169 0)
(9.73033 13.0079 0)
(9.96749 13.1843 0)
(10.1493 12.3022 0)
(10.4192 12.2971 0)
(10.6047 11.3825 0)
(10.7978 11.218 0)
(11.0818 10.3828 0)
(11.2381 9.95736 0)
(11.4092 9.25668 0)
(11.5423 8.72863 0)
(11.6757 8.05552 0)
(11.7108 7.50612 0)
(11.8837 6.91111 0)
(10.1984 14.4359 0)
(9.8569 15.7211 0)
(9.54185 15.7531 0)
(9.36391 15.2879 0)
(9.33671 15.2287 0)
(9.45563 14.7662 0)
(9.63974 14.4977 0)
(9.87906 13.9782 0)
(10.068 13.6173 0)
(10.2987 13.0204 0)
(10.458 12.6082 0)
(10.6454 11.983 0)
(10.812 11.4245 0)
(10.9116 10.797 0)
(11.0063 10.2124 0)
(11.0691 9.59525 0)
(11.0148 9.01948 0)
(11.1454 8.43277 0)
(10.0211 15.8696 0)
(9.83214 17.4898 0)
(9.50799 17.3496 0)
(9.24023 16.9951 0)
(9.09417 16.7653 0)
(9.04897 16.3388 0)
(9.06993 16.014 0)
(9.15465 15.5313 0)
(9.24114 15.098 0)
(9.35748 14.5886 0)
(9.48135 14.0723 0)
(9.61381 13.5336 0)
(9.73779 12.9702 0)
(9.87852 12.374 0)
(9.9456 11.7802 0)
(10.0197 11.1627 0)
(10.0367 10.5863 0)
(10.1905 9.98586 0)
(10.0293 17.1396 0)
(9.57573 19.1618 0)
(9.19464 18.8182 0)
(8.9297 18.4768 0)
(8.75204 18.1566 0)
(8.65854 17.8223 0)
(8.56426 17.4983 0)
(8.55026 17.0833 0)
(8.56986 16.6144 0)
(8.64318 16.071 0)
(8.69686 15.5267 0)
(8.80529 14.9302 0)
(8.86565 14.3644 0)
(8.94665 13.7507 0)
(8.99268 13.1486 0)
(9.07842 12.5406 0)
(9.07116 11.9696 0)
(9.22392 11.3636 0)
(9.90038 18.3978 0)
(9.39123 20.5585 0)
(8.94237 20.1431 0)
(8.58855 19.7683 0)
(8.33294 19.3863 0)
(8.1871 18.9861 0)
(8.03797 18.59 0)
(7.95709 18.1665 0)
(7.8832 17.7007 0)
(7.89671 17.1745 0)
(7.88937 16.639 0)
(7.9133 16.0762 0)
(7.90255 15.5115 0)
(7.92932 14.9239 0)
(7.91669 14.3382 0)
(7.95757 13.7495 0)
(7.9112 13.1854 0)
(8.03971 12.6098 0)
(10.0075 18.6688 0)
(9.39957 21.0203 0)
(8.90081 20.5618 0)
(8.46749 20.1467 0)
(8.08183 19.7679 0)
(7.79603 19.4273 0)
(7.54861 19.0798 0)
(7.39207 18.6882 0)
(7.2433 18.2467 0)
(7.16815 17.7581 0)
(7.08521 17.2238 0)
(7.05002 16.6506 0)
(6.98698 16.0677 0)
(6.96201 15.4595 0)
(6.90147 14.849 0)
(6.87349 14.2497 0)
(6.76748 13.6831 0)
(6.83912 13.1237 0)
(9.73535 18.4901 0)
(9.04131 20.5271 0)
(8.52431 20.129 0)
(8.01983 19.8138 0)
(7.51144 19.4598 0)
(7.11885 19.0609 0)
(6.81171 18.62 0)
(6.64983 18.1611 0)
(6.53737 17.6951 0)
(6.48014 17.2324 0)
(6.37145 16.7701 0)
(6.30631 16.3041 0)
(6.22287 15.8109 0)
(6.15172 15.2934 0)
(6.04921 14.7585 0)
(5.96556 14.2071 0)
(5.81923 13.6862 0)
(5.83765 13.1515 0)
(9.71542 17.2979 0)
(8.87122 19.3351 0)
(8.32514 18.9241 0)
(7.84922 18.6145 0)
(7.39049 18.2929 0)
(7.01082 17.9173 0)
(6.65965 17.4818 0)
(6.39669 17.0232 0)
(6.17289 16.5628 0)
(6.02266 16.1178 0)
(5.86368 15.6987 0)
(5.71574 15.3087 0)
(5.54083 14.9082 0)
(5.4269 14.4643 0)
(5.29885 13.9786 0)
(5.20175 13.4691 0)
(5.06762 12.9744 0)
(5.04186 12.4656 0)
(9.47034 15.617 0)
(8.73588 17.4157 0)
(8.16883 17.0549 0)
(7.63864 16.7809 0)
(7.14525 16.5002 0)
(6.75428 16.1867 0)
(6.38881 15.8105 0)
(6.07987 15.4038 0)
(5.77774 14.995 0)
(5.55488 14.6002 0)
(5.36742 14.2079 0)
(5.22938 13.8393 0)
(5.06987 13.4863 0)
(4.93365 13.1224 0)
(4.81994 12.7024 0)
(4.72257 12.2718 0)
(4.58767 11.8338 0)
(4.53066 11.3973 0)
(9.58918 14.0859 0)
(8.6989 15.4312 0)
(8.15786 15.0957 0)
(7.63408 14.8268 0)
(7.12597 14.5278 0)
(6.67371 14.2249 0)
(6.24201 13.9086 0)
(5.86119 13.5774 0)
(5.50985 13.2375 0)
(5.2349 12.8852 0)
(5.01506 12.5231 0)
(4.87231 12.1684 0)
(4.72995 11.8059 0)
(4.59089 11.4836 0)
(4.45501 11.1415 0)
(4.33707 10.7845 0)
(4.19663 10.4273 0)
(4.12145 10.0581 0)
(9.39555 12.1538 0)
(8.60534 13.1061 0)
(8.10226 12.7416 0)
(7.57719 12.5325 0)
(7.07247 12.3444 0)
(6.60383 12.1411 0)
(6.14453 11.8882 0)
(5.72726 11.601 0)
(5.34578 11.2853 0)
(5.03052 10.9788 0)
(4.78223 10.6665 0)
(4.59781 10.3775 0)
(4.46028 10.0692 0)
(4.35954 9.77467 0)
(4.23761 9.47792 0)
(4.12687 9.16374 0)
(3.99848 8.86885 0)
(3.92123 8.56223 0)
(9.55508 9.99868 0)
(8.76219 10.9011 0)
(8.24278 10.6222 0)
(7.67556 10.4013 0)
(7.13623 10.2061 0)
(6.65209 10.0487 0)
(6.19675 9.86769 0)
(5.76974 9.66491 0)
(5.37032 9.40953 0)
(5.0188 9.13485 0)
(4.72727 8.84536 0)
(4.49604 8.58176 0)
(4.31893 8.32745 0)
(4.18458 8.06529 0)
(4.06247 7.78608 0)
(3.96028 7.52621 0)
(3.85136 7.2736 0)
(3.76451 7.02756 0)
(9.44699 8.0183 0)
(8.66703 8.62715 0)
(8.26001 8.37746 0)
(7.74465 8.22923 0)
(7.1713 8.10769 0)
(6.64281 8.00657 0)
(6.16626 7.87826 0)
(5.77217 7.71832 0)
(5.42093 7.51718 0)
(5.0987 7.29023 0)
(4.79049 7.05291 0)
(4.50363 6.82983 0)
(4.24162 6.62375 0)
(4.00986 6.40256 0)
(3.81806 6.1894 0)
(3.66264 5.99822 0)
(3.5196 5.80339 0)
(3.42341 5.6065 0)
(9.32092 6.21457 0)
(8.70209 6.57377 0)
(8.42706 6.34465 0)
(7.93635 6.24338 0)
(7.35776 6.17169 0)
(6.80225 6.11379 0)
(6.31092 6.00819 0)
(5.88546 5.88166 0)
(5.51076 5.73257 0)
(5.15974 5.57361 0)
(4.81303 5.4128 0)
(4.47555 5.26316 0)
(4.14504 5.09708 0)
(3.85164 4.92409 0)
(3.58827 4.74711 0)
(3.34962 4.58886 0)
(3.12466 4.42907 0)
(2.94741 4.26118 0)
(9.38277 4.39484 0)
(8.9748 4.45937 0)
(8.74169 4.3277 0)
(8.19279 4.3359 0)
(7.53226 4.35142 0)
(6.87086 4.34468 0)
(6.24991 4.28283 0)
(5.64444 4.19976 0)
(5.07156 4.09451 0)
(4.52381 3.98917 0)
(4.02625 3.88917 0)
(3.56837 3.78163 0)
(3.14614 3.66489 0)
(2.76212 3.56137 0)
(2.37704 3.42399 0)
(2.01515 3.31965 0)
(1.65921 3.19175 0)
(1.31729 3.09275 0)
(9.65692 2.75184 0)
(9.34459 2.63566 0)
(8.85955 2.62157 0)
(7.88626 2.71057 0)
(6.80604 2.7909 0)
(5.80744 2.84801 0)
(4.87061 2.8445 0)
(3.99649 2.82426 0)
(3.16917 2.78017 0)
(2.37821 2.71099 0)
(1.68706 2.64272 0)
(1.04816 2.56712 0)
(0.459153 2.49833 0)
(-0.104924 2.43538 0)
(-0.64434 2.35706 0)
(-1.14592 2.27936 0)
(-1.61701 2.19737 0)
(-2.03018 2.14887 0)
(9.91094 1.1132 0)
(8.71662 0.962522 0)
(7.18808 1.13847 0)
(5.39136 1.36435 0)
(3.76107 1.52594 0)
(2.40548 1.63329 0)
(1.22769 1.6674 0)
(0.227661 1.67477 0)
(-0.669112 1.6642 0)
(-1.47069 1.62248 0)
(-2.16124 1.57308 0)
(-2.77898 1.54123 0)
(-3.34275 1.50541 0)
(-3.8619 1.4658 0)
(-4.32496 1.42636 0)
(-4.74632 1.3685 0)
(-5.12865 1.32557 0)
(-5.47533 1.26818 0)
(8.12422 0.0892684 0)
(4.65094 0.256513 0)
(2.01738 0.502312 0)
(0.0383834 0.621797 0)
(-1.27781 0.642601 0)
(-2.20337 0.633596 0)
(-2.95671 0.611974 0)
(-3.58338 0.596135 0)
(-4.13512 0.584548 0)
(-4.62309 0.563775 0)
(-5.0337 0.544398 0)
(-5.40163 0.534564 0)
(-5.75331 0.517481 0)
(-6.06976 0.501623 0)
(-6.34878 0.491167 0)
(-6.61206 0.472091 0)
(-6.85557 0.447409 0)
(-7.11219 0.424962 0)
(-0.242594 -0.922312 0)
(-0.970475 -0.796065 0)
(-1.82285 -0.965948 0)
(-2.58356 -0.984352 0)
(-3.27662 -1.01222 0)
(-3.84133 -1.11352 0)
(-4.30035 -1.20403 1.10612e-17)
(-4.63654 -1.30478 -1.10503e-17)
(-4.87258 -1.38297 0)
(-5.01767 -1.43608 -1.09723e-17)
(-5.1001 -1.43259 0)
(-5.17249 -1.41325 0)
(-5.252 -1.38249 0)
(-5.36092 -1.36578 1.0694e-17)
(-5.4616 -1.30692 0)
(-5.57711 -1.28741 0)
(-5.72077 -1.26069 -1.04661e-17)
(-5.8219 -1.23137 0)
(-5.91534 -1.20976 0)
(-6.01712 -1.19451 0)
(-6.09809 -1.1975 1.01865e-17)
(-6.14187 -1.17339 0)
(-6.16807 -1.15436 1.00542e-17)
(-6.15346 -1.14983 0)
(-6.11313 -1.13249 0)
(-6.05592 -1.11684 9.86722e-18)
(-5.96576 -1.09712 0)
(-5.87812 -1.06574 -9.74701e-18)
(-5.74937 -1.04384 0)
(-5.59181 -1.00282 9.62909e-18)
(-5.45068 -0.945122 0)
(-5.34037 -0.88681 0)
(-5.21739 -0.797762 0)
(-5.09357 -0.701022 0)
(-5.07544 -0.638376 0)
(-5.08605 -0.526749 -9.25883e-18)
(-5.17037 -0.402603 0)
(-5.35623 -0.369524 1.83211e-17)
(-5.52457 -0.247678 0)
(-5.77761 -0.00176107 -1.80238e-17)
(-6.19165 0.0651319 0)
(-6.6073 -0.23549 0)
(-6.87441 -0.648623 1.79255e-17)
(-6.99306 -0.867648 0)
(-7.02324 -0.798495 1.75954e-17)
(-6.87173 -0.626038 -1.74362e-17)
(-6.65455 -0.440507 0)
(-6.40833 -0.326946 -1.72322e-17)
(-6.25296 -0.238506 -1.71188e-17)
(-6.23745 -0.149021 0)
(-6.20234 -0.205717 0)
(-5.83286 -0.504193 0)
(-4.93686 -0.746318 0)
(-3.63477 -0.771999 0)
(-2.22147 -0.623169 1.61734e-17)
(-0.895154 -0.185793 0)
(-0.283063 0.247881 -1.60276e-17)
(-0.461977 0.640042 0)
(-0.95724 0.846804 0)
(-2.12611 0.589137 1.59846e-17)
(-3.25073 0.258143 0)
(-3.34199 -0.22544 -1.56569e-17)
(-2.48968 -0.819225 0)
(-1.11007 -1.50531 0)
(0.121978 -1.96602 0)
(0.848218 -1.49279 1.55345e-17)
(0.67784 -0.181854 0)
(-0.250704 0.889138 0)
(-1.3702 1.28886 1.50039e-17)
(-2.4316 1.28679 0)
(-3.25637 1.18303 1.45465e-17)
(-3.93669 1.04295 0)
(-4.43626 0.967782 0)
(-4.78563 0.870183 0)
(-4.99557 0.806786 -1.3959e-17)
(-5.08961 0.734701 0)
(-5.09553 0.699842 0)
(-5.02063 0.655885 -1.3583e-17)
(-4.89218 0.624443 -1.34635e-17)
(-4.68783 0.587998 0)
(-4.39705 0.537789 -1.32254e-17)
(-4.03768 0.501473 0)
(-3.64134 0.493405 -2.59881e-17)
(-3.21285 0.482441 0)
(-2.73428 0.460184 -2.55451e-17)
(-2.20664 0.443008 0)
(-1.6407 0.431173 2.50933e-17)
(-1.07048 0.422845 0)
(-0.505775 0.412797 0)
(0.0919932 0.403401 0)
(0.677812 0.425328 -2.4222e-17)
(1.29213 0.443286 0)
(1.89617 0.435928 2.38142e-17)
(2.43779 0.4367 0)
(3.00826 0.442604 -2.34027e-17)
(3.60475 0.44836 -2.32096e-17)
(4.14175 0.522494 -2.30431e-17)
(4.67868 0.445083 0)
(5.17759 0.482304 0)
(5.65483 0.481867 0)
(6.17534 0.472993 0)
(6.64902 0.440647 0)
(7.05328 0.442517 0)
(7.44941 0.428149 0)
(7.79398 0.402239 0)
(8.0931 0.379964 2.16941e-17)
(8.3773 0.336286 2.15657e-17)
(8.61762 0.289968 0)
(8.83616 0.260823 0)
(9.01075 0.218642 0)
(9.06863 0.18816 2.12273e-17)
(9.07475 0.151878 0)
(9.0974 0.0651097 0)
(9.14707 0.0170367 0)
(9.23532 -0.047808 0)
(9.27634 -0.116183 -2.08519e-17)
(9.21333 -0.182564 0)
(9.12371 -0.269315 0)
(8.93373 -0.324234 2.06452e-17)
(8.74802 -0.403554 -2.04938e-17)
(8.7419 -0.461605 0)
(8.58591 -0.499695 -2.03833e-17)
(8.10418 -0.643318 0)
(7.75174 -0.814364 2.05159e-17)
(7.62863 -0.932958 0)
(7.35532 -0.943305 0)
(6.64921 -0.793648 0)
(5.49093 -0.707161 0)
(3.95652 -0.658165 0)
(2.779 -0.85063 -4.03307e-17)
(1.2213 -0.885265 -4.00997e-17)
(0.51934 -1.19938 0)
(-1.22446 -1.12075 0)
(-0.638523 -1.75284 0)
(-1.76338 -1.45169 3.94652e-17)
(-1.08368 -2.04234 0)
(-1.09842 -1.92508 0)
(-1.24389 -1.89387 0)
(-1.41381 -2.25272 3.82845e-17)
(-0.690801 -2.22093 -3.84187e-17)
(-0.990624 -2.32674 0)
(-0.428186 -2.38597 0)
(-0.280605 -2.42043 -3.80565e-17)
(0.32697 -2.49511 -3.78369e-17)
(0.577116 -2.53148 0)
(0.865393 -2.58812 0)
(1.23393 -2.70554 3.72339e-17)
(1.7344 -2.80663 -3.70573e-17)
(2.69458 -2.89514 0)
(3.61498 -2.89763 0)
(4.8729 -3.02396 -3.64378e-17)
(6.25928 -3.07325 0)
(7.66251 -3.08832 0)
(8.45271 -2.99877 -3.56517e-17)
(8.80324 -2.97112 0)
(8.70806 -2.97576 -3.52097e-17)
(8.77589 -3.05229 0)
(8.70555 -2.91942 0)
(8.54553 -2.81293 0)
(7.96682 -2.72372 3.41245e-17)
(7.47824 -2.77056 0)
(7.01775 -2.81565 0)
(6.7197 -2.85345 0)
(7.10624 -3.04 0)
(8.15543 -3.11139 0)
(8.80454 -2.86838 0)
(8.71462 -2.68839 3.20578e-17)
(7.73596 -2.34421 3.22043e-17)
(4.93355 -1.91982 0)
(1.70228 -1.74398 0)
(-0.715237 -1.83889 0)
(-1.7784 -2.07925 -3.15282e-17)
(0.860099 -2.37612 0)
(1.8748 -1.76214 6.13664e-17)
(0.100531 -1.55858 -6.03484e-17)
(-0.714705 -1.57763 -6.01417e-17)
(-1.39958 -1.35744 6.00392e-17)
(-3.47267 -1.00568 -6.01028e-17)
(-4.38099 -1.1447 5.94288e-17)
(-4.75027 -1.22944 0)
(-0.133551 -3.27415 0)
(-0.576516 -2.52028 0)
(-1.28451 -2.40331 -2.15369e-17)
(-2.14038 -2.65539 0)
(-2.92387 -2.99521 2.19697e-17)
(-3.61334 -3.35709 2.23657e-17)
(-4.16 -3.71305 1.13274e-17)
(-4.50605 -4.07149 1.13965e-17)
(-4.75953 -4.33591 0)
(-4.89531 -4.4966 1.14159e-17)
(-4.98828 -4.52814 0)
(-5.0831 -4.48086 0)
(-5.19395 -4.36893 -2.24564e-17)
(-5.32091 -4.29293 -1.11474e-17)
(-5.44695 -4.18553 2.21155e-17)
(-5.61712 -4.0817 2.19381e-17)
(-5.75474 -4.0231 1.08791e-17)
(-5.8479 -3.97237 0)
(-5.93099 -3.91065 0)
(-6.02067 -3.85798 0)
(-6.07281 -3.89217 1.05287e-17)
(-6.03723 -3.8309 0)
(-6.01565 -3.77197 -3.10817e-17)
(-5.95132 -3.81001 0)
(-5.82372 -3.76479 0)
(-5.68072 -3.70424 -1.01182e-17)
(-5.48119 -3.6604 0)
(-5.29312 -3.58292 9.95928e-18)
(-5.05507 -3.55909 1.98014e-17)
(-4.76114 -3.43458 -9.8127e-18)
(-4.50983 -3.30745 0)
(-4.21608 -3.20009 0)
(-3.96842 -2.96212 0)
(-3.743 -2.74553 1.90873e-17)
(-3.50281 -2.50041 1.89077e-17)
(-3.3249 -2.27432 9.4043e-18)
(-3.20873 -1.99979 0)
(-3.12087 -1.6496 -1.85054e-17)
(-3.09037 -1.47348 0)
(-3.14145 -1.16412 1.82278e-17)
(-3.26135 -0.818453 0)
(-3.13584 -0.775467 0)
(-3.28722 -0.64312 -1.78553e-17)
(-3.80954 -0.392162 0)
(-4.25024 -0.696766 -5.23709e-17)
(-4.43933 -1.33837 1.70439e-17)
(-4.83532 -1.40875 0)
(-4.91267 -1.31476 1.68122e-17)
(-4.98907 -0.91484 1.67601e-17)
(-4.86861 -0.462126 0)
(-4.53439 -0.670151 0)
(-3.93027 -1.75177 0)
(-3.00138 -2.87443 0)
(-1.85896 -3.13171 0)
(-0.473192 -2.81174 -1.58722e-17)
(0.928197 -2.08295 -3.13284e-17)
(1.73708 -0.353727 1.57778e-17)
(2.30852 1.02633 0)
(2.28149 1.54657 -3.12763e-17)
(1.08127 2.71545 1.56634e-17)
(0.900531 2.78444 0)
(1.7268 0.258177 1.5477e-17)
(1.61209 -1.48493 0)
(0.143228 -0.451719 0)
(-2.07664 1.22938 2.9794e-17)
(-4.05159 2.28991 -1.47295e-17)
(-5.50501 2.88332 2.91356e-17)
(-6.53686 3.06436 -2.87786e-17)
(-7.22768 2.97408 -1.42408e-17)
(-7.69252 2.7324 0)
(-8.05959 2.45735 -1.40173e-17)
(-8.29382 2.18179 0)
(-8.36445 1.96828 0)
(-8.38107 1.74392 0)
(-8.26473 1.59615 -1.36341e-17)
(-8.09329 1.44486 0)
(-7.86163 1.34155 -2.68385e-17)
(-7.57414 1.22243 3.99633e-17)
(-7.23028 1.1225 1.32147e-17)
(-6.81072 1.01096 0)
(-6.30059 0.915339 1.30064e-17)
(-5.7564 0.862849 0)
(-5.21045 0.83588 2.55507e-17)
(-4.61916 0.777492 0)
(-3.97888 0.719611 2.51545e-17)
(-3.31516 0.675224 -4.99004e-17)
(-2.66396 0.67967 -2.46628e-17)
(-1.95892 0.682621 0)
(-1.31166 0.665858 0)
(-0.552267 0.639763 0)
(0.0594697 0.689688 2.36591e-17)
(0.769459 0.701083 0)
(1.40557 0.712989 -2.31667e-17)
(2.04511 0.741105 0)
(2.66515 0.769043 6.81452e-17)
(3.30008 0.792324 2.23721e-17)
(3.86185 0.867864 2.21563e-17)
(4.42912 0.765886 0)
(4.90801 0.836422 0)
(5.47328 0.86221 0)
(5.93919 0.826497 0)
(6.44622 0.796892 0)
(6.85678 0.796029 4.15245e-17)
(7.26595 0.794068 4.11221e-17)
(7.63353 0.777817 0)
(7.97513 0.726206 -2.01785e-17)
(8.27051 0.636052 -2.00215e-17)
(8.543 0.532149 0)
(8.79077 0.466339 -3.95477e-17)
(9.00327 0.392628 0)
(9.11497 0.334419 1.96876e-17)
(9.14074 0.20565 0)
(9.21658 0.00406492 0)
(9.34311 -0.272968 -3.89964e-17)
(9.48703 -0.469476 0)
(9.55083 -0.626591 1.94845e-17)
(9.40944 -0.75894 0)
(9.36281 -0.854528 0)
(9.31321 -1.00124 1.92996e-17)
(9.0293 -1.3535 1.92067e-17)
(8.77923 -1.70151 0)
(8.84176 -1.59783 -1.89373e-17)
(8.55014 -1.62 0)
(7.82808 -2.03656 2.01003e-17)
(7.10203 -2.30915 4.06017e-17)
(6.26338 -2.25211 0)
(5.01147 -2.03574 0)
(3.74457 -2.03019 0)
(2.40955 -2.13436 0)
(1.50886 -2.68104 3.95373e-17)
(0.0768089 -2.81469 1.18173e-16)
(-0.0750783 -3.51923 0)
(-2.03857 -3.8145 0)
(0.401048 -5.25934 0)
(-2.82667 -4.77937 -3.88825e-17)
(1.42032 -6.22227 0)
(-2.00215 -5.53031 0)
(0.415567 -5.94837 7.70464e-17)
(-1.52305 -6.59886 3.72878e-17)
(0.630385 -6.68954 3.73458e-17)
(-0.0193676 -6.90185 0)
(1.08199 -7.42334 0)
(0.828829 -7.58389 3.78895e-17)
(1.75014 -7.8403 -3.76191e-17)
(1.8512 -7.76904 0)
(2.50902 -7.97991 0)
(2.93335 -8.26001 -3.7145e-17)
(3.70485 -8.64956 1.10965e-16)
(5.08481 -9.11227 0)
(5.97042 -9.08505 0)
(7.71898 -9.61989 3.6809e-17)
(9.43622 -9.69648 0)
(11.601 -9.56817 7.14773e-17)
(12.6277 -8.98041 -3.49793e-17)
(13.3608 -8.68655 0)
(13.3601 -8.493 3.4373e-17)
(13.8982 -8.68355 6.78572e-17)
(13.8006 -8.55262 0)
(13.4496 -8.40738 0)
(12.3273 -8.12263 -3.32174e-17)
(11.4931 -8.07747 0)
(10.7307 -8.05483 6.41917e-17)
(10.1729 -8.13243 0)
(10.344 -8.72613 0)
(11.3745 -8.86485 0)
(11.654 -8.22639 0)
(11.0325 -7.56065 -2.94805e-17)
(9.00728 -6.35207 -2.96192e-17)
(5.19379 -5.34654 0)
(1.26696 -5.415 0)
(-1.69814 -5.87624 0)
(-2.93742 -7.26933 3.17016e-17)
(1.3477 -8.22053 0)
(4.34851 -5.76574 -5.7552e-17)
(3.42117 -4.69165 5.39051e-17)
(2.57551 -4.85964 5.47497e-17)
(1.82066 -4.10018 5.54716e-17)
(-1.11187 -3.25841 5.79691e-17)
(-1.18705 -3.71576 5.72957e-17)
(-1.55664 -4.08261 0)
(-0.110781 -5.99605 0)
(-0.348732 -4.94771 0)
(-0.71122 -4.26231 2.14193e-17)
(-1.34848 -4.19166 2.10859e-17)
(-2.1057 -4.51597 -2.12709e-17)
(-2.85515 -5.1441 -2.18893e-17)
(-3.45467 -5.89414 3.98456e-21)
(-3.80358 -6.60564 0)
(-4.03977 -7.08766 0)
(-4.21266 -7.31332 0)
(-4.38681 -7.32679 0)
(-4.57527 -7.22565 0)
(-4.78078 -7.04505 6.7886e-17)
(-5.02158 -6.85259 0)
(-5.26172 -6.72594 -2.22462e-17)
(-5.50614 -6.57368 -2.2046e-17)
(-5.70545 -6.48344 0)
(-5.84999 -6.44905 0)
(-5.98998 -6.41262 0)
(-6.07567 -6.35653 0)
(-6.11871 -6.37453 -2.10518e-17)
(-6.15332 -6.35272 0)
(-6.10579 -6.29012 2.06832e-17)
(-5.9869 -6.35915 0)
(-5.84616 -6.31743 0)
(-5.6384 -6.22902 0)
(-5.39565 -6.1886 3.9952e-17)
(-5.1336 -6.0814 0)
(-4.88468 -5.96983 -1.97223e-17)
(-4.55732 -5.77719 3.90497e-17)
(-4.19427 -5.62695 0)
(-3.7982 -5.45136 0)
(-3.51676 -5.04725 0)
(-3.25242 -4.67733 -1.90098e-17)
(-2.87249 -4.34999 -1.88979e-17)
(-2.65165 -3.9757 0)
(-2.48273 -3.45557 0)
(-2.31933 -3.02347 3.71603e-17)
(-2.19388 -2.66888 3.6887e-17)
(-2.17267 -2.17277 -3.66287e-17)
(-2.26805 -1.8215 0)
(-2.19949 -1.69722 0)
(-2.49534 -1.52341 0)
(-2.60922 -1.36469 0)
(-2.40417 -1.00545 3.53599e-17)
(-2.409 -0.926329 3.56289e-17)
(-3.01996 -0.77114 -3.52294e-17)
(-3.04058 -1.12761 0)
(-3.14421 -1.47603 0)
(-3.01205 -1.40233 0)
(-2.52155 -1.79156 0)
(-1.96716 -2.97384 3.26664e-17)
(-1.25297 -4.33556 0)
(-0.369511 -4.85439 0)
(0.644441 -4.35719 3.2081e-17)
(1.32129 -3.01769 3.17459e-17)
(1.61918 -1.44081 0)
(2.18677 0.394735 -6.22854e-17)
(1.99127 2.93932 3.11891e-17)
(1.46047 3.20554 -3.17359e-17)
(1.67592 0.762158 0)
(0.51641 0.535375 0)
(-2.29558 2.38719 0)
(-4.85845 3.8034 0)
(-6.64528 4.40483 -2.96719e-17)
(-7.79653 4.57516 -5.92164e-17)
(-8.50194 4.60908 -2.95357e-17)
(-8.86249 4.53254 2.94923e-17)
(-9.01945 4.30014 0)
(-9.01167 3.97922 -5.88158e-17)
(-8.89578 3.62053 -5.8676e-17)
(-8.76892 3.27696 -5.84774e-17)
(-8.51741 2.96429 5.81979e-17)
(-8.25672 2.7019 0)
(-7.95109 2.49408 8.63346e-17)
(-7.60384 2.31468 0)
(-7.25358 2.18572 -2.84757e-17)
(-6.85588 2.03417 -2.82397e-17)
(-6.43401 1.8887 0)
(-5.96544 1.72156 0)
(-5.38959 1.57311 -5.54892e-17)
(-4.76407 1.50627 0)
(-4.16935 1.49535 -5.46737e-17)
(-3.53307 1.41733 0)
(-2.8829 1.32719 5.39493e-17)
(-2.12003 1.2585 1.06952e-16)
(-1.4858 1.29926 0)
(-0.692159 1.31308 0)
(-0.0936542 1.28328 0)
(0.748294 1.26646 5.19076e-17)
(1.3139 1.3903 0)
(2.12045 1.3826 5.09033e-17)
(2.75649 1.49507 0)
(3.48619 1.52782 0)
(4.05167 1.57976 -9.89127e-17)
(4.71142 1.63818 0)
(5.2211 1.69733 -4.81532e-17)
(5.91814 1.6646 0)
(6.31832 1.72758 -4.70453e-17)
(6.95307 1.72725 0)
(7.33294 1.67689 0)
(7.83457 1.63756 0)
(8.20505 1.56323 -1.33358e-16)
(8.58172 1.50569 -4.36003e-17)
(8.87229 1.41924 0)
(9.15553 1.28691 0)
(9.36058 1.13087 0)
(9.54523 0.953305 0)
(9.63184 0.787329 4.04451e-17)
(9.66585 0.62158 -7.98899e-17)
(9.62488 0.491095 -3.93505e-17)
(9.5583 0.257973 7.8373e-17)
(9.5411 -0.0605976 7.79038e-17)
(9.57862 -0.502939 3.86468e-17)
(9.63205 -0.758519 0)
(9.67694 -0.828178 7.7052e-17)
(9.4415 -1.06668 0)
(9.05248 -1.58748 -7.57432e-17)
(8.98538 -1.70495 -3.7088e-17)
(9.03495 -1.93955 0)
(8.47466 -2.70512 7.53973e-17)
(8.14027 -2.99032 3.67368e-17)
(8.2671 -2.69549 0)
(7.79787 -2.96057 3.95268e-17)
(6.59093 -3.32807 -1.22301e-16)
(5.47827 -3.35277 0)
(4.40594 -3.13536 0)
(3.49833 -3.40471 0)
(2.37353 -3.86845 0)
(1.97747 -4.62123 -7.84698e-17)
(0.453567 -4.9362 -7.82084e-17)
(0.837622 -6.14063 0)
(-2.03493 -7.15262 0)
(2.55845 -8.44207 0)
(-2.87013 -8.57237 0)
(3.45511 -10.4268 0)
(-2.02373 -8.76804 0)
(2.1344 -10.0411 -7.69444e-17)
(-1.03841 -10.7023 -1.05868e-19)
(1.36609 -11.4852 0)
(0.858065 -11.3958 0)
(2.83842 -11.8863 -7.34998e-17)
(2.87885 -12.077 0)
(3.98933 -12.762 7.54738e-17)
(3.84065 -12.7777 7.51699e-17)
(4.54307 -13.3269 0)
(4.8683 -13.6592 0)
(5.47961 -14.383 -7.48693e-17)
(7.07223 -15.0989 -1.48753e-16)
(7.6059 -15.0034 0)
(8.97737 -16.0019 0)
(10.3718 -16.3289 0)
(13.3084 -16.1661 -7.5287e-17)
(14.5487 -14.9992 7.35541e-17)
(15.1499 -14.5017 0)
(14.8013 -14.2945 1.40203e-16)
(15.7414 -14.6109 6.8298e-17)
(16.3567 -13.9815 -1.34947e-16)
(16.7222 -13.3802 0)
(15.8485 -12.7795 0)
(15.0245 -12.987 -1.35029e-16)
(13.9325 -13.0983 -6.68691e-17)
(13.2914 -13.2173 0)
(12.6674 -14.148 0)
(13.4389 -14.302 0)
(13.5122 -13.1502 0)
(12.8757 -11.8586 -1.16712e-16)
(10.6696 -9.61951 0)
(6.54138 -8.19577 0)
(1.73776 -8.36924 0)
(-1.52016 -9.36777 0)
(-3.07742 -12.609 0)
(-1.67326 -15.1368 0)
(3.27732 -10.7005 -1.167e-16)
(5.34829 -8.00392 0)
(5.08001 -7.64673 0)
(3.50214 -6.06909 -2.29618e-16)
(-0.0291961 -5.18421 1.18588e-16)
(0.284513 -6.55591 -1.17423e-16)
(-0.967847 -7.26518 1.21303e-16)
(-0.125021 -8.70263 0)
(-0.30417 -7.63618 -4.55026e-17)
(-0.53451 -6.58762 0)
(-0.992476 -6.08467 -2.0834e-17)
(-1.57434 -6.19887 0)
(-2.17452 -6.91249 0)
(-2.62571 -7.97371 2.20288e-17)
(-2.90744 -8.98883 0)
(-3.15205 -9.64079 0)
(-3.40894 -9.88922 0)
(-3.72695 -9.83732 0)
(-4.07632 -9.62312 0)
(-4.45404 -9.38355 -9.01837e-17)
(-4.79089 -9.16336 -4.45686e-17)
(-5.11612 -9.01421 4.40289e-17)
(-5.41938 -8.90268 0)
(-5.67012 -8.83475 0)
(-5.86099 -8.77977 0)
(-6.01212 -8.77955 0)
(-6.14619 -8.77791 0)
(-6.18688 -8.76123 -4.11731e-17)
(-6.23814 -8.7936 -4.08358e-17)
(-6.19187 -8.79681 4.04935e-17)
(-6.12073 -8.84855 -4.01697e-17)
(-6.00565 -8.84902 0)
(-5.81214 -8.79256 0)
(-5.58352 -8.78381 -3.93322e-17)
(-5.27927 -8.56399 0)
(-5.03244 -8.38795 0)
(-4.67458 -8.24111 -3.86095e-17)
(-4.24032 -8.07371 -3.84288e-17)
(-3.86708 -7.72568 -3.81437e-17)
(-3.51432 -7.15084 0)
(-3.07218 -6.90379 0)
(-2.53079 -6.49751 3.74694e-17)
(-2.25828 -5.72432 0)
(-1.86864 -5.12897 0)
(-1.46271 -4.64822 -3.69014e-17)
(-1.2796 -4.01312 3.65334e-17)
(-1.23307 -3.11682 -3.62701e-17)
(-1.10321 -2.77098 0)
(-1.36152 -2.30016 0)
(-1.42579 -2.05261 -7.16248e-17)
(-1.88637 -1.93783 0)
(-1.90757 -2.03192 -7.02749e-17)
(-1.96519 -2.11214 -1.05147e-16)
(-1.99609 -1.57725 1.04257e-16)
(-1.64856 -1.6325 -6.91499e-17)
(-1.66326 -1.77531 0)
(-1.71329 -1.6568 0)
(-1.33663 -2.28768 -6.63338e-17)
(-0.880821 -3.79805 -3.30953e-17)
(-0.614172 -5.27063 0)
(-0.331127 -5.67244 0)
(-0.0371532 -4.82201 -3.2004e-17)
(0.119582 -3.09615 -6.33361e-17)
(-0.0746183 -0.941528 0)
(-0.543899 1.22781 6.33069e-17)
(-0.870065 2.68521 -6.35674e-17)
(-1.33922 3.36591 6.3062e-17)
(-2.80386 4.24628 0)
(-4.89237 5.33065 0)
(-6.72559 5.96671 0)
(-7.91223 6.10686 0)
(-8.6181 6.04007 0)
(-8.98348 5.79557 6.04926e-17)
(-9.06543 5.50571 0)
(-8.98955 5.14664 0)
(-8.78691 4.745 0)
(-8.50784 4.36537 1.19361e-16)
(-8.19995 3.98306 5.92425e-17)
(-7.934 3.64421 5.88071e-17)
(-7.59007 3.3493 -1.16666e-16)
(-7.25693 3.06525 5.79071e-17)
(-6.91068 2.80169 -5.73601e-17)
(-6.55335 2.62422 0)
(-6.15659 2.5039 5.65341e-17)
(-5.77068 2.34848 0)
(-5.3841 2.16896 0)
(-4.94082 1.93019 0)
(-4.40911 1.71169 1.09734e-16)
(-3.75423 1.60046 -5.46133e-17)
(-3.13611 1.6296 -5.44627e-17)
(-2.45082 1.56524 -1.0804e-16)
(-1.89887 1.41193 -1.60962e-16)
(-1.04129 1.39631 -5.30273e-17)
(-0.418689 1.39919 0)
(0.30963 1.40549 -1.05172e-16)
(0.975519 1.3398 0)
(1.81269 1.34217 -1.55626e-16)
(2.45936 1.45578 0)
(3.27437 1.43893 -1.53784e-16)
(3.81884 1.64892 0)
(4.59971 1.71973 0)
(5.07852 1.7818 -5.04297e-17)
(5.86214 1.80957 0)
(6.36013 2.02026 4.94224e-17)
(7.03333 1.9274 9.86386e-17)
(7.4535 2.08011 4.87787e-17)
(8.13625 2.09444 9.73391e-17)
(8.58291 2.06477 -9.65271e-17)
(9.16146 2.08589 -9.59734e-17)
(9.60715 2.0285 1.89826e-16)
(10.0611 2.03604 0)
(10.4395 1.97637 0)
(10.7924 1.81502 9.18695e-17)
(11.0448 1.66258 -9.06687e-17)
(11.2532 1.42899 0)
(11.3382 1.2296 0)
(11.3432 1.0374 8.62334e-17)
(11.2376 0.838683 0)
(11.1338 0.508154 3.10437e-19)
(10.9993 -0.0668081 3.02311e-19)
(10.8061 -0.765789 8.11559e-17)
(10.4129 -1.15273 0)
(9.96238 -1.34759 -7.74093e-17)
(9.67861 -1.47257 0)
(9.50138 -2.03183 7.79128e-17)
(9.02685 -2.63159 0)
(9.09922 -2.87328 0)
(8.882 -3.35627 -7.56362e-17)
(7.90646 -4.17559 -7.49683e-17)
(7.5615 -4.16161 0)
(7.5859 -4.02842 -7.78414e-17)
(6.95986 -4.18462 1.64786e-16)
(6.11245 -4.52022 0)
(4.94115 -4.73088 0)
(4.53442 -5.16994 0)
(3.45481 -5.67787 0)
(3.44697 -6.71264 7.71197e-17)
(1.36956 -7.08882 -1.53822e-16)
(3.437 -8.14483 0)
(-0.323965 -10.47 0)
(3.86922 -11.6959 0)
(-0.496937 -11.8267 0)
(3.60069 -13.7136 0)
(-1.49855 -12.1993 0)
(3.16458 -14.1658 0)
(0.649391 -14.2479 7.5849e-17)
(2.34048 -16.0294 0)
(1.4357 -16.4756 0)
(3.21816 -17.2949 7.51923e-17)
(3.56545 -17.0447 0)
(5.28744 -17.5918 0)
(6.0044 -17.3472 -7.31921e-17)
(6.7956 -17.9149 0)
(7.25124 -18.3615 0)
(7.53112 -19.6199 1.47261e-16)
(9.40112 -20.374 1.47261e-16)
(10.1481 -20.094 1.45353e-16)
(10.9516 -21.4979 0)
(10.7533 -22.7058 1.51999e-16)
(13.8798 -22.8244 0)
(16.2622 -20.6253 -1.48893e-16)
(17.0642 -19.5348 0)
(15.8219 -19.3715 -1.46755e-16)
(16.3292 -20.4029 -1.23592e-18)
(17.4335 -19.6337 1.41613e-16)
(18.7492 -18.7446 -1.37256e-16)