/*--------------------------------*- C++ -*----------------------------------*\
| =========                 |                                                 |
| \\      /  F ield         | OpenFOAM: The Open Source CFD Toolbox           |
|  \\    /   O peration     | Version:  dev                                   |
|   \\  /    A nd           | Web:      http://www.openfoam.org               |
|    \\/     M anipulation  |                                                 |
\*---------------------------------------------------------------------------*/
FoamFile
{
    version     2.0;
    format      ascii;
    class       volVectorField;
    object      UMean;
    location    "9.124";
}
// * * * * * * * * * * * * * * * * * * * * * * * * * * * * * * * * * * * * * //

dimensions      [0 1 -1 0 0 0 0];

internalField   nonuniform List<vector> 
12225
(
(7.00366 0.430268 0)
(4.43882 0.192538 0)
(2.55684 0.0311474 0)
(2.51094 -0.0166567 0)
(1.38448 0.0193565 0)
(2.2675 -0.0342794 0)
(0.98946 0.0489782 0)
(2.18287 -0.0591783 0)
(0.797379 0.0716591 0)
(2.29217 -0.0978608 0)
(0.688561 0.0993841 0)
(2.74409 -0.138642 0)
(0.947784 0.102613 0)
(3.3972 -0.172119 0)
(3.52956 -0.168408 0)
(4.69434 0.050158 0)
(14.8378 -2.43326 0)
(7.11599 5.13126 0)
(9.54627 0.981604 0)
(9.5434 0.860853 0)
(6.68689 0.466275 0)
(7.59061 0.214551 0)
(4.09064 0.140299 0)
(6.84356 0.0108191 0)
(2.66499 0.132621 0)
(6.68997 -0.0903287 0)
(1.82235 0.14182 0)
(7.0402 -0.165067 0)
(1.26022 0.123899 0)
(8.12298 -0.414385 0)
(1.3849 0.25252 0)
(9.9553 -1.44191 0)
(3.43484 0.272753 0)
(12.3861 -4.06634 0)
(10.4239 -1.92621 0)
(7.7733 0.482807 0)
(9.11849 0.763503 0)
(12.1669 0.95135 0)
(8.32955 0.623922 0)
(11.8322 0.443361 0)
(6.22602 0.310253 0)
(11.4133 0.2065 0)
(4.58239 0.221422 0)
(11.3156 -0.0194942 0)
(3.8735 0.192864 0)
(11.3775 -0.277869 0)
(4.34968 0.187231 0)
(11.2542 -0.723286 0)
(5.72761 0.176309 0)
(11.0914 -1.49174 0)
(7.21392 0.0535452 0)
(12.1174 -3.86409 0)
(6.93338 0.350524 0)
(9.35352 -2.39247 0)
(7.21888 0.525008 0)
(13.993 0.960939 0)
(7.92973 0.609416 0)
(14.2954 0.553793 0)
(7.47432 0.420851 0)
(14.1166 0.271112 0)
(7.17565 0.396609 0)
(13.7388 -0.145045 0)
(7.25656 0.459492 0)
(13.27 -0.698684 0)
(7.65887 0.576687 0)
(12.8749 -1.42266 0)
(8.26564 0.699634 0)
(12.6518 -2.31312 0)
(9.02099 0.043392 0)
(11.8891 -3.63644 0)
(8.68534 -1.431 0)
(8.36603 0.68056 0)
(6.4242 0.569966 0)
(14.0108 0.56583 0)
(8.4739 0.674361 0)
(13.9578 0.284468 0)
(9.16994 0.636597 0)
(13.6431 -0.00254923 0)
(9.51783 0.657728 0)
(13.2134 -0.388624 0)
(9.59278 0.734243 0)
(12.8122 -0.871197 0)
(9.44612 0.876821 0)
(12.5813 -1.5212 0)
(9.14983 1.09005 0)
(12.5687 -2.48932 0)
(8.82691 1.13285 0)
(11.6145 -5.027 0)
(8.54379 1.26746 0)
(8.72271 0.123609 0)
(7.95709 0.61691 0)
(11.8024 0.152291 0)
(9.50602 0.654715 0)
(11.7386 0.0501388 0)
(10.0893 0.693923 0)
(11.5995 -0.165728 0)
(10.3216 0.725839 0)
(11.4752 -0.457564 0)
(10.3016 0.7831 0)
(11.3882 -0.853589 0)
(10.0341 0.832343 0)
(11.3536 -1.40014 0)
(9.49411 0.802052 0)
(11.4157 -2.13845 0)
(8.80357 0.72767 0)
(10.9956 -3.9204 0)
(7.7377 1.33637 0)
(9.48921 -0.22049 0)
(9.34524 0.812673 0)
(10.4376 -0.266103 0)
(10.142 0.930429 0)
(10.5527 -0.304659 0)
(10.4 1.01996 0)
(10.5807 -0.503013 0)
(10.5215 1.07547 0)
(10.6242 -0.781277 0)
(10.565 1.1535 0)
(10.6705 -1.15787 0)
(10.5174 1.23541 0)
(10.6986 -1.63585 0)
(10.3696 1.26172 0)
(10.6865 -2.32714 0)
(10.0572 1.27209 0)
(10.3752 -3.95323 0)
(8.30385 2.01805 0)
(9.69661 -0.954877 0)
(9.85027 0.701204 0)
(10.1547 -0.326204 0)
(10.4078 0.855047 0)
(10.3888 -0.350106 0)
(10.5815 0.906896 0)
(10.4696 -0.494229 0)
(10.7029 0.893035 0)
(10.5512 -0.686532 0)
(10.8067 0.872861 0)
(10.6432 -0.935511 0)
(10.8825 0.824208 0)
(10.7349 -1.23296 0)
(10.91 0.672008 0)
(10.7535 -1.67259 0)
(10.726 0.520317 0)
(10.4928 -2.47343 0)
(8.89756 0.979292 0)
(9.96384 -0.485769 0)
(10.0868 0.802161 0)
(10.0186 -0.583609 0)
(10.5366 1.02134 0)
(10.3098 -0.604658 0)
(10.6763 1.07494 0)
(10.4392 -0.725141 0)
(10.7787 1.04816 0)
(10.5702 -0.890188 0)
(10.8583 1.00362 0)
(10.7108 -1.11789 0)
(10.8998 0.9211 0)
(10.8313 -1.395 0)
(10.8752 0.734781 0)
(10.8219 -1.76069 0)
(10.6036 0.505474 0)
(10.5207 -2.0682 0)
(9.35242 0.584694 0)
(10.0231 -0.392695 0)
(10.14 0.64865 0)
(10.0414 -0.51216 0)
(10.5111 0.878092 0)
(10.3327 -0.456753 0)
(10.6221 0.869281 0)
(10.4813 -0.493901 0)
(10.6985 0.778314 0)
(10.6284 -0.572401 0)
(10.7347 0.657945 0)
(10.7631 -0.695585 0)
(10.7183 0.495586 0)
(10.8399 -0.845108 0)
(10.6187 0.264081 0)
(10.7652 -1.032 0)
(10.283 0.0700449 0)
(10.4794 -1.05249 0)
(9.62467 0.12316 0)
(10.2065 -0.0334136 0)
(10.1416 0.699918 0)
(10.0701 -0.692004 0)
(10.4529 0.902443 0)
(10.2982 -0.619061 0)
(10.5378 0.847534 0)
(10.4299 -0.645641 0)
(10.6035 0.735143 0)
(10.5603 -0.707485 0)
(10.6275 0.58662 0)
(10.6601 -0.791294 0)
(10.6094 0.382954 0)
(10.6811 -0.869198 0)
(10.5272 0.116829 0)
(10.5709 -0.921841 0)
(10.2921 -0.114235 0)
(10.361 -0.764832 0)
(10.0207 -0.154998 0)
(10.2454 -0.125683 0)
(10.0971 0.467985 0)
(10.1506 -0.495291 0)
(10.3538 0.595733 0)
(10.2933 -0.374802 0)
(10.4205 0.527496 0)
(10.4093 -0.354964 0)
(10.485 0.418816 0)
(10.5238 -0.374355 0)
(10.5133 0.275639 0)
(10.5993 -0.414794 0)
(10.5158 0.0931936 0)
(10.597 -0.461686 0)
(10.4769 -0.103499 0)
(10.4996 -0.50006 0)
(10.3575 -0.232432 0)
(10.3647 -0.405693 0)
(10.2664 -0.220345 0)
(10.3739 -0.110661 0)
(10.0501 0.410892 0)
(10.1753 -0.487349 0)
(10.2548 0.437096 0)
(10.2378 -0.367567 0)
(10.3088 0.367227 0)
(10.3306 -0.34564 0)
(10.3793 0.250708 0)
(10.4246 -0.355352 0)
(10.4226 0.0993154 0)
(10.4822 -0.374932 0)
(10.4463 -0.079874 0)
(10.4818 -0.403441 0)
(10.4331 -0.246868 0)
(10.4262 -0.43129 0)
(10.3774 -0.339449 0)
(10.3687 -0.392825 0)
(10.3572 -0.320874 0)
(10.4223 -0.276891 0)
(10.0154 0.19957 0)
(10.1907 -0.285902 0)
(10.1932 0.167233 0)
(10.2052 -0.179362 0)
(10.2293 0.131542 0)
(10.2792 -0.171433 0)
(10.3062 0.0471079 0)
(10.3626 -0.197846 0)
(10.366 -0.0588468 0)
(10.4142 -0.235811 0)
(10.4055 -0.176145 0)
(10.4267 -0.286522 0)
(10.4124 -0.275147 0)
(10.4113 -0.331782 0)
(10.3995 -0.324333 0)
(10.4066 -0.337409 0)
(10.4109 -0.316296 0)
(10.4697 -0.305133 0)
(9.99663 0.0970811 0)
(10.1444 -0.185937 0)
(10.1463 0.0215653 0)
(10.15 -0.133703 0)
(10.1621 -0.00873792 0)
(10.2089 -0.146216 0)
(10.2409 -0.07707 0)
(10.2919 -0.186803 0)
(10.311 -0.159514 0)
(10.3485 -0.238062 0)
(10.3575 -0.244911 0)
(10.3791 -0.298432 0)
(10.3805 -0.316428 0)
(10.3939 -0.350232 0)
(10.3959 -0.361211 0)
(10.4185 -0.380409 0)
(10.4238 -0.381294 0)
(10.4788 -0.387508 0)
(9.99371 0.0154962 0)
(10.106 -0.0858403 0)
(10.1089 -0.0443838 0)
(10.1138 -0.0932931 0)
(10.1188 -0.0749605 0)
(10.1675 -0.118995 0)
(10.198 -0.12069 0)
(10.2518 -0.163911 0)
(10.274 -0.180669 0)
(10.3153 -0.219258 0)
(10.3278 -0.244046 0)
(10.3597 -0.277939 0)
(10.3659 -0.301472 0)
(10.3939 -0.329151 0)
(10.3995 -0.347159 0)
(10.4329 -0.370986 0)
(10.4355 -0.383986 0)
(10.4883 -0.39722 0)
(9.99178 0.00478706 0)
(10.0636 -0.0251638 0)
(10.0567 -0.0349413 0)
(10.0678 -0.066498 0)
(10.0778 -0.0757587 0)
(10.128 -0.0998106 0)
(10.1573 -0.116005 0)
(10.2109 -0.14477 0)
(10.2337 -0.169056 0)
(10.2781 -0.199658 0)
(10.292 -0.226665 0)
(10.33 -0.257146 0)
(10.3384 -0.283444 0)
(10.3731 -0.312189 0)
(10.3788 -0.336957 0)
(10.4152 -0.365699 0)
(10.4146 -0.388222 0)
(10.4634 -0.407651 0)
(9.99152 0.0142308 0)
(10.0466 0.0162122 0)
(10.0398 -0.0105437 0)
(10.0575 -0.0376566 0)
(10.0747 -0.0565254 0)
(10.1254 -0.0778548 0)
(10.1553 -0.0988832 0)
(10.207 -0.123848 0)
(10.231 -0.149033 0)
(10.2753 -0.176677 0)
(10.291 -0.203495 0)
(10.3292 -0.232232 0)
(10.3393 -0.259454 0)
(10.3736 -0.288404 0)
(10.38 -0.315746 0)
(10.414 -0.345819 0)
(10.4131 -0.371681 0)
(10.4566 -0.393505 0)
(9.99163 0.0330071 0)
(10.0501 0.0497393 0)
(10.0565 0.0100083 0)
(10.0798 -0.018009 0)
(10.1006 -0.0401908 0)
(10.1505 -0.0614384 0)
(10.1818 -0.0835884 0)
(10.2315 -0.106396 0)
(10.2561 -0.130553 0)
(10.2983 -0.155524 0)
(10.3149 -0.181103 0)
(10.3506 -0.20736 0)
(10.3613 -0.233607 0)
(10.3925 -0.260464 0)
(10.3989 -0.287094 0)
(10.4286 -0.315354 0)
(10.4279 -0.341087 0)
(10.4651 -0.362872 0)
(9.98988 0.0408159 0)
(10.0547 0.0527845 0)
(10.0827 -0.00623789 0)
(10.1166 -0.0405859 0)
(10.1419 -0.0640541 0)
(10.1903 -0.0822171 0)
(10.2222 -0.102064 0)
(10.2689 -0.120987 0)
(10.2934 -0.14274 0)
(10.3319 -0.163996 0)
(10.3482 -0.187419 0)
(10.38 -0.210114 0)
(10.3903 -0.234431 0)
(10.4172 -0.257956 0)
(10.4227 -0.28283 0)
(10.4472 -0.30787 0)
(10.446 -0.3325 0)
(10.4766 -0.352903 0)
(9.99053 0.0317039 0)
(10.0685 0.0221524 0)
(10.1261 -0.055637 0)
(10.1769 -0.0966715 0)
(10.2125 -0.11972 0)
(10.2609 -0.132695 0)
(10.2937 -0.147745 0)
(10.336 -0.161635 0)
(10.36 -0.179823 0)
(10.394 -0.196916 0)
(10.4102 -0.217367 0)
(10.4376 -0.236254 0)
(10.4477 -0.258011 0)
(10.47 -0.278081 0)
(10.4752 -0.300771 0)
(10.4944 -0.322397 0)
(10.4937 -0.345253 0)
(10.5185 -0.363538 0)
(9.99118 0.00996349 0)
(10.092 -0.0295985 0)
(10.1869 -0.120756 0)
(10.2595 -0.162709 0)
(10.3093 -0.181086 0)
(10.3589 -0.18713 0)
(10.3928 -0.196019 0)
(10.4304 -0.204354 0)
(10.4541 -0.218105 0)
(10.4836 -0.230746 0)
(10.5 -0.247613 0)
(10.5231 -0.262647 0)
(10.5336 -0.281361 0)
(10.5515 -0.298051 0)
(10.557 -0.318115 0)
(10.5717 -0.336451 0)
(10.5721 -0.357029 0)
(10.5918 -0.373166 0)
(9.99279 -0.0232488 0)
(10.1275 -0.10347 0)
(10.2671 -0.204815 0)
(10.3665 -0.241507 0)
(10.4319 -0.250746 0)
(10.4835 -0.248345 0)
(10.5183 -0.250864 0)
(10.5517 -0.253667 0)
(10.5753 -0.262951 0)
(10.6011 -0.271319 0)
(10.618 -0.284656 0)
(10.6377 -0.296282 0)
(10.6485 -0.3121 0)
(10.663 -0.325862 0)
(10.669 -0.343403 0)
(10.6799 -0.358852 0)
(10.6812 -0.377162 0)
(10.6966 -0.391311 0)
(9.99059 -0.0715286 0)
(10.1745 -0.201074 0)
(10.368 -0.305387 0)
(10.5002 -0.327808 0)
(10.5806 -0.322528 0)
(10.6344 -0.310169 0)
(10.669 -0.305559 0)
(10.6997 -0.302557 0)
(10.7226 -0.306702 0)
(10.746 -0.310589 0)
(10.7624 -0.319919 0)
(10.7793 -0.328065 0)
(10.7894 -0.340608 0)
(10.8005 -0.351388 0)
(10.8054 -0.365986 0)
(10.8122 -0.378546 0)
(10.812 -0.394102 0)
(10.822 -0.406053 0)
(9.99202 -0.136281 0)
(10.2447 -0.322909 0)
(10.5027 -0.418918 0)
(10.6712 -0.417559 0)
(10.7627 -0.394117 0)
(10.8175 -0.371057 0)
(10.8493 -0.358905 0)
(10.8771 -0.350557 0)
(10.8959 -0.350082 0)
(10.9147 -0.350485 0)
(10.9252 -0.356383 0)
(10.9353 -0.361517 0)
(10.9372 -0.370824 0)
(10.9391 -0.378689 0)
(10.9337 -0.38989 0)
(10.9289 -0.399473 0)
(10.9161 -0.411397 0)
(10.9112 -0.420544 0)
(9.98976 -0.219844 0)
(10.3369 -0.46806 0)
(10.6737 -0.53968 0)
(10.8758 -0.508181 0)
(10.9697 -0.46482 0)
(11.0135 -0.428037 0)
(11.0285 -0.404795 0)
(11.0352 -0.38838 0)
(11.0289 -0.381423 0)
(11.0193 -0.376976 0)
(10.9978 -0.378195 0)
(10.9733 -0.379103 0)
(10.9374 -0.383827 0)
(10.8996 -0.387307 0)
(10.8519 -0.393676 0)
(10.8038 -0.398999 0)
(10.7457 -0.40532 0)
(10.694 -0.410093 0)
(9.98337 -0.332026 0)
(10.4677 -0.642261 0)
(10.883 -0.667054 0)
(11.0725 -0.602605 0)
(11.103 -0.537158 0)
(11.0583 -0.483097 0)
(10.9742 -0.444964 0)
(10.873 -0.416219 0)
(10.7576 -0.39801 0)
(10.6348 -0.383275 0)
(10.5032 -0.374895 0)
(10.3662 -0.366338 0)
(10.2237 -0.362456 0)
(10.077 -0.357005 0)
(9.92813 -0.35586 0)
(9.7765 -0.353267 0)
(9.62527 -0.352969 0)
(9.4753 -0.351131 0)
(10.0025 -0.453651 0)
(10.619 -0.818929 0)
(10.9017 -0.752049 0)
(10.7932 -0.62374 0)
(10.4937 -0.512519 0)
(10.1376 -0.429176 0)
(9.77001 -0.373554 0)
(9.41745 -0.33472 0)
(9.07658 -0.307294 0)
(8.75518 -0.284611 0)
(8.44613 -0.267658 0)
(8.15299 -0.251336 0)
(7.87218 -0.240048 0)
(7.60255 -0.227342 0)
(7.3477 -0.221137 0)
(7.09812 -0.211824 0)
(6.86965 -0.210851 0)
(6.64018 -0.204173 0)
(10.0975 -0.750778 0)
(10.0459 -1.01318 0)
(9.425 -0.801075 0)
(8.51446 -0.572178 0)
(7.65501 -0.378726 0)
(6.92885 -0.244889 0)
(6.32725 -0.16753 0)
(5.83149 -0.126259 0)
(5.40902 -0.104709 0)
(5.04838 -0.0923242 0)
(4.72825 -0.0849622 0)
(4.44748 -0.07935 0)
(4.19103 -0.0758079 0)
(3.96209 -0.0718881 0)
(3.75034 -0.0721295 0)
(3.55514 -0.0690751 0)
(3.38288 -0.0802506 0)
(3.21793 -0.0828432 0)
(8.51677 -0.436044 0)
(6.1103 -0.380882 0)
(4.29837 -0.138045 0)
(3.12387 -0.0213801 0)
(2.48106 0.0191351 0)
(2.1204 0.0224741 0)
(1.89612 0.0137169 0)
(1.73477 0.00461708 0)
(1.5987 -0.00156667 0)
(1.47793 -0.00478877 0)
(1.36581 -0.006403 0)
(1.26363 -0.00671866 0)
(1.16794 -0.00670654 0)
(1.08119 -0.0063882 0)
(0.999144 -0.00665467 0)
(0.918905 -0.00702933 0)
(0.851383 -0.0185953 0)
(0.730901 -0.0061276 0)
(-0.0520461 0.138012 0)
(-0.157048 0.0715213 0)
(-0.20703 0.0164483 0)
(-0.195172 -0.0443781 0)
(-0.117894 -0.0991103 0)
(0.0123564 -0.145163 0)
(0.186497 -0.175717 1.11353e-17)
(0.388366 -0.193687 -1.10603e-17)
(0.606731 -0.19808 0)
(0.829257 -0.192819 -1.09171e-17)
(1.04655 -0.178486 0)
(1.24964 -0.157728 0)
(1.43194 -0.131091 0)
(1.58819 -0.101712 1.06425e-17)
(1.71574 -0.0704333 0)
(1.81184 -0.0383239 0)
(1.87561 -0.00613726 -1.04454e-17)
(1.90777 0.0241363 0)
(1.90998 0.0505663 0)
(1.88434 0.0722168 0)
(1.83453 0.0891383 1.01959e-17)
(1.76312 0.100712 0)
(1.67401 0.108641 1.0074e-17)
(1.56891 0.111573 0)
(1.45248 0.109649 0)
(1.32746 0.107917 9.89534e-18)
(1.1941 0.111145 0)
(1.05163 0.116228 -9.77901e-18)
(0.903218 0.121478 0)
(0.749434 0.126563 9.66414e-18)
(0.591802 0.13062 0)
(0.432597 0.13314 0)
(0.274079 0.134348 0)
(0.116731 0.134163 0)
(-0.0391216 0.131301 0)
(-0.191423 0.12663 -9.32954e-18)
(-0.338501 0.120533 0)
(-0.47993 0.11404 1.84404e-17)
(-0.614256 0.107541 0)
(-0.74103 0.100289 -1.82216e-17)
(-0.858771 0.0932222 0)
(-0.967636 0.086415 0)
(-1.06807 0.0786455 1.78884e-17)
(-1.1596 0.070259 0)
(-1.24285 0.0625345 1.76651e-17)
(-1.31793 0.055287 -1.75531e-17)
(-1.38434 0.0482886 0)
(-1.44291 0.0422353 -1.73282e-17)
(-1.49474 0.0369023 -1.72151e-17)
(-1.53881 0.0332211 0)
(-1.57528 0.031632 0)
(-1.60606 0.03161 0)
(-1.63326 0.0316973 0)
(-1.65786 0.0316653 0)
(-1.68128 0.0325135 1.65281e-17)
(-1.70531 0.0340321 0)
(-1.73128 0.0362362 -1.62989e-17)
(-1.75793 0.0382526 0)
(-1.78403 0.0388765 0)
(-1.80958 0.0394936 1.59524e-17)
(-1.83531 0.0412964 0)
(-1.86314 0.0425892 -1.57211e-17)
(-1.89304 0.0443641 0)
(-1.92485 0.0459813 0)
(-1.95811 0.0469439 0)
(-1.9922 0.048195 1.52556e-17)
(-2.02674 0.0500113 0)
(-2.06196 0.0521679 0)
(-2.09763 0.0545014 1.49059e-17)
(-2.13402 0.055898 0)
(-2.16815 0.0560673 1.46711e-17)
(-2.19912 0.056399 0)
(-2.22682 0.0565338 0)
(-2.25021 0.0563342 0)
(-2.26833 0.0557088 -1.42051e-17)
(-2.28051 0.054468 0)
(-2.28744 0.0537524 0)
(-2.29106 0.0536978 -1.38613e-17)
(-2.29179 0.0527415 -1.37479e-17)
(-2.28791 0.0511003 0)
(-2.27765 0.0488499 -1.35226e-17)
(-2.26087 0.045958 0)
(-2.23723 0.0428486 -2.66023e-17)
(-2.20672 0.0394471 0)
(-2.16986 0.0357872 -2.61669e-17)
(-2.12646 0.0327064 0)
(-2.07755 0.0302735 2.57382e-17)
(-2.02394 0.0282776 0)
(-1.9657 0.0267966 0)
(-1.90348 0.0257707 0)
(-1.83881 0.0251531 -2.49012e-17)
(-1.77148 0.0248746 0)
(-1.70309 0.024826 2.44995e-17)
(-1.63376 0.0254664 0)
(-1.56427 0.0265883 -2.41101e-17)
(-1.49652 0.0291475 -2.39215e-17)
(-1.42965 0.0303082 -2.37372e-17)
(-1.36274 0.0314005 0)
(-1.29763 0.0314528 0)
(-1.23307 0.0326286 0)
(-1.16719 0.0333547 0)
(-1.10224 0.0329041 0)
(-1.0322 0.0317734 0)
(-0.963512 0.0332264 0)
(-0.89243 0.0328483 0)
(-0.825668 0.035405 2.22131e-17)
(-0.758153 0.0357582 2.2061e-17)
(-0.695764 0.0401908 0)
(-0.635031 0.0413862 0)
(-0.57973 0.0412063 0)
(-0.512566 0.0384952 2.14805e-17)
(-0.450618 0.0426869 0)
(-0.382319 0.0409722 0)
(-0.317844 0.0438416 0)
(-0.247594 0.0408709 0)
(-0.175494 0.0434135 -2.0806e-17)
(-0.101538 0.0451276 0)
(-0.0222625 0.0441621 0)
(0.0618897 0.0455145 2.04288e-17)
(0.14983 0.04522 -2.03073e-17)
(0.241511 0.0444122 0)
(0.33785 0.0482239 -2.00747e-17)
(0.42965 0.0511066 0)
(0.522686 0.0542622 1.98483e-17)
(0.605638 0.0590479 0)
(0.677303 0.062031 0)
(0.752984 0.0623686 0)
(0.822422 0.0631439 0)
(0.902191 0.0603374 0)
(0.97578 0.0609186 -3.83966e-17)
(1.05158 0.0626424 -3.81776e-17)
(1.11139 0.0676003 0)
(1.16183 0.0663131 0)
(1.20722 0.067363 0)
(1.24551 0.0633541 3.7253e-17)
(1.29463 0.0587257 0)
(1.34507 0.0570722 0)
(1.39088 0.0559249 0)
(1.4397 0.0541066 3.62329e-17)
(1.47686 0.0567578 -3.59648e-17)
(1.52008 0.0526635 0)
(1.55933 0.0526587 0)
(1.60107 0.0531325 -3.51502e-17)
(1.6273 0.0582328 -3.48773e-17)
(1.6574 0.05495 0)
(1.68588 0.0587014 0)
(1.72507 0.0557085 3.40444e-17)
(1.76161 0.0659041 -3.3765e-17)
(1.77003 0.0713309 0)
(1.78381 0.0706649 0)
(1.80943 0.0710206 -3.29282e-17)
(1.84302 0.0757111 0)
(1.8569 0.0833012 0)
(1.86868 0.0890186 -3.20842e-17)
(1.86832 0.093117 0)
(1.88281 0.0979672 -3.15241e-17)
(1.885 0.104999 0)
(1.8907 0.109153 0)
(1.87785 0.120759 0)
(1.8647 0.126569 3.04343e-17)
(1.84997 0.132997 0)
(1.81812 0.142946 0)
(1.74568 0.154691 0)
(1.66884 0.154726 0)
(1.60271 0.157047 0)
(1.51228 0.16584 0)
(1.38347 0.172579 2.88922e-17)
(1.26445 0.173858 2.87382e-17)
(1.08028 0.181887 0)
(0.87333 0.184587 0)
(0.630001 0.183551 0)
(0.414498 0.169748 -2.83207e-17)
(0.192567 0.162817 0)
(0.0403848 0.146635 5.63465e-17)
(-0.160644 0.144041 -5.62371e-17)
(-0.263887 0.123684 -5.60579e-17)
(-0.425191 0.126833 5.59541e-17)
(-0.460602 0.0966782 -5.57517e-17)
(-0.618321 0.129169 5.57318e-17)
(-0.56568 -0.00408021 0)
(0.0101562 0.248762 0)
(0.0147549 0.191985 0)
(0.0499402 0.00773763 -2.27957e-17)
(0.121365 -0.198382 0)
(0.236361 -0.384436 2.2364e-17)
(0.388766 -0.535948 2.22174e-17)
(0.570003 -0.644928 1.10433e-17)
(0.769974 -0.710938 1.0981e-17)
(0.977343 -0.737596 0)
(1.18157 -0.731324 1.08539e-17)
(1.37399 -0.695438 0)
(1.54735 -0.637065 0)
(1.69765 -0.562351 -2.13195e-17)
(1.82018 -0.477841 -1.05946e-17)
(1.91487 -0.385906 2.1055e-17)
(1.97995 -0.291389 2.09216e-17)
(2.01678 -0.199064 1.03952e-17)
(2.02545 -0.111003 0)
(2.00838 -0.0279927 0)
(1.96557 0.0467213 0)
(1.90088 0.112161 1.01363e-17)
(1.81438 0.1712 0)
(1.71074 0.224014 -3.00365e-17)
(1.58876 0.26676 0)
(1.45074 0.301655 0)
(1.29719 0.332172 -9.83161e-18)
(1.13159 0.356141 0)
(0.956697 0.373443 9.71528e-18)
(0.776351 0.38454 1.93122e-17)
(0.591438 0.391895 -9.59731e-18)
(0.404745 0.394093 0)
(0.217512 0.390402 0)
(0.029442 0.383249 0)
(-0.159009 0.3764 1.87307e-17)
(-0.346049 0.36792 1.86162e-17)
(-0.530406 0.355745 9.25113e-18)
(-0.709298 0.341067 0)
(-0.883275 0.324054 -1.82759e-17)
(-1.04837 0.303553 0)
(-1.20687 0.281668 1.80506e-17)
(-1.35713 0.25918 0)
(-1.50083 0.236327 0)
(-1.63638 0.215898 -1.77164e-17)
(-1.76473 0.196769 0)
(-1.88832 0.1788 -5.2486e-17)
(-2.00621 0.160042 1.73855e-17)
(-2.1175 0.14116 0)
(-2.22182 0.124303 1.71654e-17)
(-2.32 0.106699 1.70551e-17)
(-2.41079 0.08719 0)
(-2.49236 0.0682907 0)
(-2.56684 0.0537568 0)
(-2.63607 0.0442703 0)
(-2.70198 0.0393708 0)
(-2.76402 0.0379047 -1.63737e-17)
(-2.82413 0.0372942 -3.25151e-17)
(-2.88266 0.0372383 1.61414e-17)
(-2.93673 0.0345011 0)
(-2.98844 0.0304378 -3.1813e-17)
(-3.03793 0.0290335 1.57874e-17)
(-3.08455 0.0299816 0)
(-3.13221 0.0309479 1.55499e-17)
(-3.17764 0.033756 0)
(-3.22105 0.0352919 0)
(-3.26279 0.0349012 3.03753e-17)
(-3.30351 0.0342765 -1.50673e-17)
(-3.33971 0.0322071 2.98918e-17)
(-3.3734 0.0294178 -2.96504e-17)
(-3.40109 0.0256794 -1.47046e-17)
(-3.42559 0.0207715 0)
(-3.44367 0.0130811 -1.44629e-17)
(-3.45497 0.00275686 0)
(-3.46054 -0.00809861 0)
(-3.45762 -0.0207195 0)
(-3.44545 -0.0350511 -1.3983e-17)
(-3.42498 -0.0491243 0)
(-3.39798 -0.0592879 -2.74952e-17)
(-3.36517 -0.0664215 4.08944e-17)
(-3.327 -0.074932 1.35163e-17)
(-3.28253 -0.0859506 0)
(-3.23018 -0.0985962 1.32879e-17)
(-3.17259 -0.111164 0)
(-3.10942 -0.123093 2.61243e-17)
(-3.04113 -0.13398 0)
(-2.96792 -0.144371 2.56813e-17)
(-2.88968 -0.153673 -5.09227e-17)
(-2.80757 -0.162542 -2.52475e-17)
(-2.72313 -0.170535 0)
(-2.63363 -0.178152 0)
(-2.54194 -0.183865 0)
(-2.44796 -0.188076 2.44073e-17)
(-2.35071 -0.192134 0)
(-2.25221 -0.194783 -2.4001e-17)
(-2.15374 -0.195077 0)
(-2.05472 -0.196572 7.08216e-17)
(-1.95587 -0.195815 2.3417e-17)
(-1.85644 -0.196714 2.3231e-17)
(-1.75921 -0.19382 0)
(-1.66438 -0.193299 0)
(-1.56897 -0.194348 0)
(-1.47093 -0.19511 0)
(-1.37412 -0.197454 0)
(-1.27135 -0.201799 4.4322e-17)
(-1.17532 -0.199649 4.39857e-17)
(-1.07538 -0.199872 0)
(-0.988395 -0.194056 -2.16749e-17)
(-0.891755 -0.195429 -2.1523e-17)
(-0.80517 -0.188277 0)
(-0.710522 -0.187081 -4.24432e-17)
(-0.633048 -0.185855 0)
(-0.537264 -0.196288 2.09374e-17)
(-0.452086 -0.190256 0)
(-0.347013 -0.198532 0)
(-0.252988 -0.19523 -4.10572e-17)
(-0.140515 -0.203684 0)
(-0.0370552 -0.203629 2.0272e-17)
(0.0873433 -0.211065 0)
(0.212736 -0.218911 0)
(0.348206 -0.223448 1.98868e-17)
(0.488223 -0.228636 1.97706e-17)
(0.63369 -0.234553 0)
(0.782944 -0.235379 -1.95334e-17)
(0.942668 -0.236818 0)
(1.1018 -0.229026 1.92968e-17)
(1.26716 -0.219241 3.83635e-17)
(1.41476 -0.212875 0)
(1.5719 -0.213868 0)
(1.71671 -0.213853 0)
(1.87636 -0.215291 0)
(2.02279 -0.21031 3.72312e-17)
(2.17709 -0.20708 1.11009e-16)
(2.31315 -0.187869 0)
(2.4372 -0.183392 0)
(2.55647 -0.173312 0)
(2.66268 -0.175513 -3.60809e-17)
(2.76586 -0.179921 0)
(2.86832 -0.179319 0)
(2.964 -0.177474 7.06182e-17)
(3.05856 -0.176534 3.50348e-17)
(3.13229 -0.170492 3.47659e-17)
(3.22004 -0.179862 0)
(3.28397 -0.17393 0)
(3.35269 -0.175259 3.39218e-17)
(3.399 -0.164295 -3.36162e-17)
(3.44546 -0.178366 0)
(3.47501 -0.175055 0)
(3.50979 -0.191143 -3.27237e-17)
(3.53816 -0.173371 9.71948e-17)
(3.55304 -0.169014 0)
(3.5641 -0.180038 0)
(3.57575 -0.191674 3.14621e-17)
(3.59688 -0.189659 0)
(3.59286 -0.183081 6.16305e-17)
(3.59146 -0.181326 -3.0474e-17)
(3.56439 -0.185567 0)
(3.5607 -0.194515 2.98477e-17)
(3.53638 -0.190833 5.90601e-17)
(3.52483 -0.192303 0)
(3.47805 -0.185589 0)
(3.45457 -0.194623 -2.85759e-17)
(3.41412 -0.18655 0)
(3.35692 -0.169146 5.58889e-17)
(3.25954 -0.149928 0)
(3.16756 -0.1549 0)
(3.04723 -0.146369 0)
(2.91838 -0.121355 0)
(2.72269 -0.102359 -2.66522e-17)
(2.5637 -0.0757758 -2.6463e-17)
(2.27911 -0.0262992 0)
(2.00607 -0.00150547 0)
(1.67617 0.0227151 0)
(1.38158 0.0186371 2.59578e-17)
(1.04819 0.0234197 0)
(0.840595 0.0143236 -5.16675e-17)
(0.519288 0.0333252 5.16409e-17)
(0.404231 0.00105968 5.14926e-17)
(0.123191 0.0320749 5.14835e-17)
(0.123163 -0.0157802 5.13305e-17)
(-0.173471 0.0788053 5.14947e-17)
(0.0136435 -0.117463 0)
(0.0290558 0.070784 0)
(0.12124 -0.0387196 0)
(0.228361 -0.241819 2.29125e-17)
(0.340562 -0.468671 2.26639e-17)
(0.475092 -0.693286 -2.25123e-17)
(0.619304 -0.875254 -2.23997e-17)
(0.773588 -1.00397 -1.48248e-21)
(0.92493 -1.07428 0)
(1.07006 -1.08507 0)
(1.19686 -1.0459 0)
(1.30564 -0.966091 0)
(1.39163 -0.856863 0)
(1.45725 -0.726392 6.47113e-17)
(1.498 -0.586184 0)
(1.5167 -0.44137 -2.13047e-17)
(1.51155 -0.294962 -2.11685e-17)
(1.48545 -0.153613 0)
(1.43699 -0.0201934 0)
(1.37079 0.103589 0)
(1.28659 0.215991 0)
(1.18669 0.315284 -2.05024e-17)
(1.07191 0.398289 0)
(0.947248 0.470653 2.02485e-17)
(0.809978 0.535806 0)
(0.662974 0.590699 0)
(0.507594 0.63566 0)
(0.349264 0.671662 3.95249e-17)
(0.186953 0.698924 0)
(0.0231775 0.718412 -1.95222e-17)
(-0.141615 0.728888 3.87998e-17)
(-0.305704 0.732151 0)
(-0.472104 0.733995 0)
(-0.638714 0.731135 0)
(-0.804184 0.721753 -1.89165e-17)
(-0.96606 0.706634 -1.87957e-17)
(-1.12477 0.685258 0)
(-1.27872 0.658057 0)
(-1.42715 0.626629 3.68588e-17)
(-1.56861 0.592635 3.66191e-17)
(-1.70837 0.558317 -3.63808e-17)
(-1.84312 0.525601 0)
(-1.97608 0.492068 0)
(-2.10341 0.459866 0)
(-2.22704 0.430471 0)
(-2.34647 0.402744 3.52e-17)
(-2.45989 0.373475 3.49663e-17)
(-2.56814 0.343847 -3.47344e-17)
(-2.6708 0.315309 0)
(-2.7674 0.287388 0)
(-2.85868 0.258398 0)
(-2.94463 0.231592 0)
(-3.03058 0.213763 3.35753e-17)
(-3.11061 0.197824 0)
(-3.18561 0.184598 0)
(-3.25407 0.17675 3.28777e-17)
(-3.31783 0.17145 3.26462e-17)
(-3.37619 0.164429 0)
(-3.42688 0.154874 -6.43593e-17)
(-3.47558 0.147778 3.19484e-17)
(-3.52024 0.141195 -3.1714e-17)
(-3.55909 0.137408 0)
(-3.59499 0.134762 0)
(-3.62476 0.130613 0)
(-3.64953 0.126418 0)
(-3.67171 0.121236 -3.05526e-17)
(-3.68959 0.113876 -6.06461e-17)
(-3.70124 0.105927 -3.00975e-17)
(-3.70914 0.0974563 2.98726e-17)
(-3.70981 0.0857903 0)
(-3.70538 0.0724466 -5.88398e-17)
(-3.69295 0.0562254 -5.83915e-17)
(-3.67526 0.0398805 -5.79466e-17)
(-3.65333 0.0218977 5.75049e-17)
(-3.62256 -0.000594196 0)
(-3.58482 -0.0234794 8.49419e-17)
(-3.54118 -0.0430666 0)
(-3.49277 -0.0585321 -2.78777e-17)
(-3.43578 -0.0722955 -2.76648e-17)
(-3.37082 -0.087895 0)
(-3.29961 -0.104641 0)
(-3.22492 -0.121249 -5.40411e-17)
(-3.148 -0.135926 0)
(-3.06711 -0.149958 -5.31938e-17)
(-2.98368 -0.163427 0)
(-2.89569 -0.177635 5.23549e-17)
(-2.80424 -0.188883 1.03882e-16)
(-2.70914 -0.198536 0)
(-2.61329 -0.207729 0)
(-2.5144 -0.21528 0)
(-2.41684 -0.221624 5.02914e-17)
(-2.31743 -0.227524 0)
(-2.21477 -0.232288 4.94696e-17)
(-2.10917 -0.235593 0)
(-2.00315 -0.23475 0)
(-1.89467 -0.234756 -9.65059e-17)
(-1.7891 -0.232196 0)
(-1.68155 -0.231557 -4.74615e-17)
(-1.57834 -0.225423 0)
(-1.47083 -0.226197 -4.66934e-17)
(-1.36426 -0.225534 0)
(-1.25529 -0.224725 0)
(-1.14803 -0.228437 0)
(-1.03735 -0.230981 -1.3569e-16)
(-0.937498 -0.22227 -4.48683e-17)
(-0.82794 -0.219234 0)
(-0.735323 -0.208328 0)
(-0.633438 -0.210173 0)
(-0.548785 -0.197217 0)
(-0.444597 -0.19336 4.32339e-17)
(-0.359591 -0.187361 -8.58319e-17)
(-0.253196 -0.204412 -4.2631e-17)
(-0.166601 -0.19666 8.46542e-17)
(-0.0472835 -0.212568 8.40914e-17)
(0.0539679 -0.208767 4.176e-17)
(0.183426 -0.223605 0)
(0.295665 -0.224134 8.23944e-17)
(0.433993 -0.239738 0)
(0.565448 -0.24908 -8.12835e-17)
(0.713253 -0.256035 -4.03839e-17)
(0.858864 -0.261505 0)
(1.01353 -0.270287 7.97631e-17)
(1.16232 -0.273451 3.96285e-17)
(1.32436 -0.28176 0)
(1.48256 -0.280185 3.90906e-17)
(1.65672 -0.26941 -1.1651e-16)
(1.81562 -0.257185 0)
(1.98021 -0.256147 0)
(2.1319 -0.25572 0)
(2.29213 -0.258883 0)
(2.44825 -0.254283 -7.51566e-17)
(2.60412 -0.251281 -7.4658e-17)
(2.75514 -0.220163 0)
(2.89331 -0.214906 0)
(3.02431 -0.202547 0)
(3.14691 -0.20118 0)
(3.25374 -0.206151 0)
(3.3749 -0.209216 0)
(3.488 -0.208096 -7.09562e-17)
(3.60272 -0.20548 -1.65046e-20)
(3.69589 -0.196202 0)
(3.80697 -0.20951 0)
(3.89486 -0.197146 -6.86115e-17)
(3.98868 -0.197845 0)
(4.06709 -0.177018 6.74307e-17)
(4.13763 -0.187905 6.68136e-17)
(4.17927 -0.170647 0)
(4.23425 -0.189073 0)
(4.27294 -0.16517 -6.49051e-17)
(4.32349 -0.156365 -1.28521e-16)
(4.35163 -0.160759 0)
(4.38489 -0.172811 0)
(4.42722 -0.163939 0)
(4.4406 -0.149437 -6.16959e-17)
(4.46993 -0.136363 6.10079e-17)
(4.4693 -0.13585 0)
(4.48937 -0.141893 1.1938e-16)
(4.47281 -0.129726 5.90349e-17)
(4.48989 -0.128105 -1.16776e-16)
(4.46707 -0.109726 0)
(4.46629 -0.116881 0)
(4.43543 -0.0954892 -1.12755e-16)
(4.39509 -0.0676309 -5.5717e-17)
(4.31064 -0.0380904 0)
(4.24691 -0.0356543 0)
(4.11381 -0.0172476 0)
(4.00364 0.0254676 0)
(3.79087 0.0529455 -1.05585e-16)
(3.622 0.0959499 0)
(3.3237 0.167225 0)
(3.06501 0.191867 0)
(2.71458 0.219595 0)
(2.40083 0.202535 0)
(2.01191 0.187192 0)
(1.77464 0.154191 -1.00632e-16)
(1.36879 0.151725 0)
(1.23926 0.0830015 0)
(0.855114 0.105414 -1.99413e-16)
(0.850318 0.0229147 9.92445e-17)
(0.464661 0.111386 -9.94001e-17)
(0.660305 -0.128739 9.87803e-17)
(0.0206048 -0.0945606 0)
(0.12503 -0.269945 -4.69561e-17)
(0.247835 -0.490433 0)
(0.375827 -0.75588 -2.27965e-17)
(0.502494 -0.999501 0)
(0.618577 -1.18833 0)
(0.723098 -1.30584 2.24453e-17)
(0.803608 -1.34897 0)
(0.866327 -1.31906 0)
(0.905415 -1.23327 0)
(0.927373 -1.11055 0)
(0.930026 -0.961373 0)
(0.918259 -0.794303 -8.6615e-17)
(0.889446 -0.617244 -4.30248e-17)
(0.847081 -0.4346 4.27454e-17)
(0.79086 -0.253665 0)
(0.72284 -0.0811045 0)
(0.641634 0.0801725 0)
(0.550719 0.228776 0)
(0.449575 0.362032 0)
(0.340975 0.479537 -4.11505e-17)
(0.223101 0.581418 -4.08979e-17)
(0.097265 0.672226 4.06488e-17)
(-0.0343777 0.748373 -4.04011e-17)
(-0.170176 0.811263 0)
(-0.308758 0.859481 0)
(-0.448877 0.895646 -3.96579e-17)
(-0.589385 0.920499 0)
(-0.730838 0.934792 0)
(-0.872864 0.943586 -3.89248e-17)
(-1.01551 0.949266 -3.86816e-17)
(-1.15603 0.947169 -3.84371e-17)
(-1.29349 0.938297 0)
(-1.42776 0.923203 0)
(-1.5575 0.901954 3.76935e-17)
(-1.68228 0.872505 0)
(-1.80318 0.837169 0)
(-1.92051 0.797856 -3.69486e-17)
(-2.0349 0.759997 3.6697e-17)
(-2.14775 0.721998 -3.64482e-17)
(-2.25418 0.683324 0)
(-2.35896 0.643984 0)
(-2.45969 0.607686 -7.14189e-17)
(-2.55766 0.57349 0)
(-2.65032 0.535385 -7.04529e-17)
(-2.7395 0.497305 -1.04962e-16)
(-2.82502 0.461475 1.04241e-16)
(-2.90524 0.425154 -6.9014e-17)
(-2.98229 0.387858 0)
(-3.05672 0.352184 0)
(-3.13068 0.323962 -6.76015e-17)
(-3.20187 0.299368 -3.35703e-17)
(-3.26671 0.273727 0)
(-3.32734 0.252611 0)
(-3.38334 0.23716 -3.28781e-17)
(-3.4339 0.220125 -6.52964e-17)
(-3.47818 0.20098 0)
(-3.51644 0.182778 6.43786e-17)
(-3.5508 0.168108 -6.39196e-17)
(-3.57976 0.154327 6.34638e-17)
(-3.60288 0.140345 0)
(-3.61968 0.126964 0)
(-3.63199 0.115686 0)
(-3.63889 0.104427 0)
(-3.64212 0.0942639 0)
(-3.63992 0.0784144 6.07742e-17)
(-3.63336 0.0611675 0)
(-3.62009 0.0423809 0)
(-3.60101 0.0211869 0)
(-3.5778 -0.000931842 1.18048e-16)
(-3.54907 -0.025067 5.85917e-17)
(-3.51561 -0.0492458 5.81583e-17)
(-3.4772 -0.0764314 -1.15458e-16)
(-3.4324 -0.108056 5.73043e-17)
(-3.38421 -0.138322 -5.6885e-17)
(-3.32976 -0.165985 0)
(-3.2704 -0.191984 5.60378e-17)
(-3.20108 -0.218708 0)
(-3.1276 -0.244005 0)
(-3.04848 -0.265962 0)
(-2.96787 -0.286701 1.0872e-16)
(-2.88508 -0.305709 -5.39464e-17)
(-2.79898 -0.324593 -5.35328e-17)
(-2.71163 -0.34331 -1.06271e-16)
(-2.62027 -0.363035 -1.58216e-16)
(-2.52805 -0.378717 -5.23433e-17)
(-2.43107 -0.391484 0)
(-2.33456 -0.402918 -1.03071e-16)
(-2.23652 -0.411033 0)
(-2.1386 -0.417513 -1.52206e-16)
(-2.03989 -0.427565 0)
(-1.94237 -0.434046 -1.49834e-16)
(-1.83868 -0.440412 0)
(-1.73454 -0.441043 0)
(-1.62548 -0.442537 -4.87475e-17)
(-1.51801 -0.439143 0)
(-1.40715 -0.438592 4.79726e-17)
(-1.30117 -0.433835 9.51568e-17)
(-1.18732 -0.435556 4.72037e-17)
(-1.07761 -0.437492 9.36498e-17)
(-0.959167 -0.438117 -9.28927e-17)
(-0.84864 -0.439931 -9.21506e-17)
(-0.736736 -0.439089 1.82888e-16)