/*--------------------------------*- C++ -*----------------------------------*\
| =========                 |                                                 |
| \\      /  F ield         | OpenFOAM: The Open Source CFD Toolbox           |
|  \\    /   O peration     | Version:  dev                                   |
|   \\  /    A nd           | Web:      http://www.openfoam.org               |
|    \\/     M anipulation  |                                                 |
\*---------------------------------------------------------------------------*/
FoamFile
{
    version     2.0;
    format      ascii;
    class       volScalarField;
    object      k;
    location    "9.162";
}
// * * * * * * * * * * * * * * * * * * * * * * * * * * * * * * * * * * * * * //

dimensions      [0 2 -2 0 0 0 0];

internalField   nonuniform List<scalar> 
12225
(
7.68619
7.88347
4.34894
4.2028
3.04733
3.87797
4.27033
4.54389
6.36061
5.51199
8.22147
6.45923
9.27316
7.96063
10.8883
12.6555
19.9889
18.4807
1.58909
5.88769
4.91836
6.25223
4.04781
6.09198
3.65677
6.11925
4.35563
6.18094
5.11902
6.03585
6.24522
5.8994
8.15104
8.04329
18.0464
17.3777
0.136633
1.9989
2.14771
3.53844
2.84339
3.87242
3.03438
3.68407
3.28357
3.16383
3.40525
2.40425
3.61327
2.14923
4.48216
3.31519
14.2894
19.6279
0.0180265
0.415283
0.573327
0.976241
1.28491
1.37105
1.90409
1.57362
2.23343
1.50375
2.20607
1.15299
2.01064
0.938392
2.16953
1.62943
11.545
21.7363
0.00223177
0.0869829
0.156371
0.283541
0.556578
0.594004
0.868124
0.7505
1.00401
0.720575
1.06834
0.59283
1.0771
0.518417
1.15876
0.936672
8.74168
21.5889
0.00516579
0.0749143
0.0997433
0.146776
0.239904
0.239922
0.348084
0.295047
0.423015
0.291183
0.487797
0.270511
0.552103
0.272111
0.654187
0.575329
3.82046
11.0755
0.00264098
0.0104386
0.0351967
0.0343124
0.0744338
0.0641044
0.12343
0.092231
0.162713
0.103151
0.201791
0.114354
0.247842
0.137425
0.323755
0.304365
1.28984
2.04261
0.002224
0.00347289
0.0103076
0.0100358
0.0245086
0.020128
0.0439252
0.0318299
0.0621783
0.0403194
0.0813329
0.0504502
0.105607
0.0653641
0.150362
0.123555
0.512714
0.455281
0.00315055
0.00342258
0.00538072
0.00573124
0.0103663
0.00940731
0.0181237
0.0149192
0.0262156
0.0202332
0.0350215
0.0265154
0.0469347
0.0358959
0.0700222
0.0601965
0.197259
0.167919
0.00625163
0.00583434
0.00530557
0.00545766
0.00659523
0.00691568
0.00967443
0.00974607
0.0135455
0.0132236
0.0176467
0.0167475
0.0229705
0.0219314
0.0335566
0.0315255
0.0758665
0.0688393
0.0119114
0.0102628
0.00725572
0.00698355
0.00655248
0.00693255
0.00791667
0.00887286
0.010674
0.0117405
0.0132031
0.0140712
0.015795
0.0166265
0.020895
0.0205029
0.0336896
0.0333067
0.0200208
0.0162727
0.0115101
0.0108388
0.00903167
0.00940701
0.00927064
0.0101002
0.0110469
0.0124947
0.0131097
0.0141203
0.0147506
0.0156137
0.0174734
0.0175478
0.0212748
0.0225621
0.0376555
0.0289911
0.0208252
0.0183133
0.0146877
0.0143789
0.0135694
0.0142746
0.0143819
0.0156012
0.0157712
0.0163119
0.016307
0.0164613
0.0174754
0.0176517
0.0193184
0.0205518
0.0670668
0.0494858
0.0361894
0.0297425
0.0234875
0.0214126
0.0199628
0.0199711
0.0198485
0.0204076
0.0210184
0.0217244
0.021932
0.0218946
0.0218662
0.0217179
0.021735
0.0220957
0.112574
0.0806504
0.0587774
0.0467851
0.0386442
0.0340556
0.0311393
0.0297232
0.0290611
0.0289075
0.028947
0.0293225
0.0297469
0.0301343
0.0304746
0.0305583
0.030356
0.0300671
0.173736
0.126648
0.0920173
0.0705242
0.0561002
0.0471055
0.0417413
0.0388026
0.0372731
0.0365531
0.0361742
0.0360406
0.0359838
0.0359256
0.0357579
0.0354737
0.0347936
0.0343279
0.208039
0.147933
0.105188
0.0791552
0.0620018
0.051203
0.0448744
0.0414706
0.0397132
0.0388487
0.0383518
0.0380969
0.0378694
0.0376664
0.0372734
0.0367979
0.0358301
0.0352198
0.209139
0.147944
0.105065
0.078816
0.0616169
0.0509226
0.0446817
0.0413024
0.0395398
0.0386978
0.0382042
0.0379547
0.0376932
0.0374158
0.0368942
0.0363324
0.0352939
0.0346622
0.16752
0.124391
0.0913418
0.0696269
0.0550947
0.0460389
0.0407488
0.0378477
0.0363605
0.0356917
0.0353399
0.0351959
0.035031
0.0348385
0.0343714
0.0338375
0.0328699
0.032308
0.106123
0.0788907
0.0592041
0.046369
0.037684
0.0323584
0.0294179
0.0279365
0.0274191
0.0273135
0.0274589
0.0276473
0.0277051
0.0276785
0.0275082
0.0271967
0.0265879
0.0261732
0.0624596
0.0473006
0.0362578
0.028455
0.0233248
0.0203398
0.0186163
0.0175921
0.0170154
0.0167579
0.016638
0.0165451
0.0164275
0.0163556
0.0163012
0.0162622
0.0161241
0.0159989
0.0345599
0.0265212
0.0211462
0.0173611
0.014762
0.0130223
0.011808
0.0111473
0.0109301
0.0109569
0.0110498
0.0112548
0.0115843
0.0120315
0.0125138
0.0129127
0.0131267
0.0131791
0.0178832
0.0142021
0.0118815
0.00972206
0.00866556
0.00852493
0.00871753
0.00884363
0.00909206
0.00938656
0.00972883
0.0102264
0.0109057
0.0117362
0.0125651
0.0132424
0.013707
0.0139284
0.00920827
0.00708238
0.0061224
0.00655176
0.00704614
0.00807492
0.00935156
0.0104704
0.0115489
0.0124357
0.0134715
0.0149496
0.0168185
0.0188813
0.0208084
0.0222637
0.0232521
0.0236694
0.00300844
0.00344916
0.00465145
0.00747059
0.0123815
0.0188465
0.0241573
0.0287643
0.0329633
0.0364792
0.0403232
0.0452911
0.0509529
0.0565072
0.0611818
0.0643213
0.0659866
0.0662194
0.000750522
0.00404028
0.0145422
0.0352741
0.0642652
0.0931128
0.113432
0.128746
0.141973
0.153219
0.16403
0.176347
0.188104
0.197879
0.204571
0.20792
0.207452
0.205677
0.00302297
0.0368646
0.129937
0.259593
0.375584
0.45969
0.506931
0.536073
0.561488
0.582682
0.599803
0.616188
0.625918
0.626581
0.622827
0.616741
0.604401
0.594109
0.0472424
0.410384
1.03075
1.42375
1.71111
1.81692
1.82572
1.80229
1.77804
1.74872
1.72684
1.7082
1.67491
1.62932
1.57908
1.53086
1.47668
1.43843
0.85981
3.41243
4.57441
4.63654
4.42767
4.17744
3.92344
3.70127
3.52157
3.36829
3.22768
3.08776
2.95776
2.83556
2.72471
2.61139
2.51411
2.37544
6.67381
8.88749
7.2788
5.2856
4.21652
3.74848
3.57316
3.53737
3.5635
3.6269
3.70773
3.79178
3.86937
3.92983
3.97188
3.98331
3.95451
3.71427
0.0410761
0.0509703
0.0602539
0.0786236
0.107808
0.147757
0.1851
0.227326
0.266808
0.308616
0.348474
0.390121
0.440797
0.504406
0.570784
0.632531
0.69477
0.759424
0.81624
0.860392
0.900177
0.932252
0.958868
0.986638
1.01496
1.05479
1.10058
1.13618
1.17593
1.23231
1.2999
1.40766
1.59034
1.72497
1.77088
1.81172
1.85222
1.88377
1.97001
2.09873
2.26688
2.45034
2.8335
3.42041
4.00871
4.56764
5.07833
5.5227
5.89193
6.17513
6.36716
6.47473
6.52183
6.52651
6.46148
6.34592
6.19256
6.01318
5.8213
5.62747
5.43848
5.24498
5.08153
4.92391
4.77051
4.61619
4.48772
4.34892
4.22882
4.11387
3.98513
3.85513
3.74778
3.62792
3.50516
3.39367
3.28075
3.18316
3.0932
3.02638
2.9672
2.92923
2.8953
2.87805
2.87679
2.87019
2.8437
2.80716
2.76547
2.7264
2.69887
2.70007
2.71845
2.74624
2.74691
2.70947
2.63453
2.56259
2.47988
2.39609
2.32897
2.26528
2.18685
2.10829
2.03534
1.95551
1.86116
1.75029
1.64479
1.56415
1.50359
1.4725
1.49961
1.63031
1.92851
2.34677
2.6302
2.66873
2.50124
2.06582
1.92882
2.03146
2.64495
2.89265
2.98106
3.0784
3.24972
3.25729
3.04936
3.12419
3.36296
3.68541
4.01535
4.45497
5.15821
6.0767
7.25143
8.88573
10.5128
12.5103
14.2261
15.8898
16.9591
17.65
18.0626
18.7409
19.4762
20.135
20.6395
20.739
20.8967
20.8447
21.3958
21.745
22.0546
23.1831
26.2239
27.6669
26.6375
25.859
26.6912
28.4671
27.7947
22.1995
15.4992
13.0486
13.1749
14.8187
16.1075
12.9735
11.4672
8.64059
10.5764
10.6547
11.5328
12.855
12.9144
13.4147
15.2168
19.0172
0.147628
0.107696
0.129725
0.191302
0.263174
0.324971
0.325964
0.31124
0.282089
0.257302
0.232639
0.208915
0.187556
0.176084
0.166485
0.168026
0.173772
0.186009
0.211361
0.237732
0.264181
0.302871
0.335534
0.360326
0.389515
0.429991
0.446052
0.441596
0.415928
0.40266
0.402202
0.405932
0.519676
0.586257
0.646854
0.721817
0.81557
1.13774
1.98975
2.56673
2.82708
3.05211
3.36402
3.66369
3.83126
3.86752
3.7351
3.48314
3.16664
2.82318
2.4713
2.13058
1.81833
1.5368
1.28627
1.10041
0.966985
0.888996
0.819371
0.775389
0.743567
0.716869
0.700535
0.685996
0.672133
0.66249
0.657942
0.651026
0.644737
0.63515
0.618831
0.607881
0.601158
0.586485
0.566144
0.552028
0.534201
0.522916
0.514601
0.513846
0.516667
0.530987
0.542226
0.559698
0.605697
0.650651
0.675416
0.687039
0.687878
0.680498
0.664288
0.665065
0.685
0.7566
0.870572
0.946416
0.976999
0.999266
1.0123
1.0116
1.01286
1.0264
1.04978
1.06201
1.07607
1.08511
1.08439
1.06172
1.0091
0.975726
0.93012
0.845358
0.761323
0.739099
0.776806
0.88253
1.03526
1.20937
1.25344
1.34663
1.8564
2.44149
2.49027
2.0368
1.80316
1.6709
1.59431
1.4078
1.2147
1.33287
1.38185
1.30795
1.43874
1.61468
1.789
1.96631
2.12628
2.26598
2.4237
2.68844
3.11634
3.5551
4.09284
4.45019
4.67207
4.80691
5.00586
5.32405
5.88869
6.54318
6.83591
6.81283
6.79665
6.748
6.53858
6.56576
6.9327
7.76881
7.84485
7.64726
7.83319
8.71911
9.28242
8.69615
7.26296
8.0948
10.9678
12.4917
7.59428
6.03378
6.09522
5.77397
5.3096
5.86449
6.77829
7.6648
8.34542
8.50592
8.90351
9.42069
0.367721
0.23202
0.300149
0.472711
0.490641
0.455671
0.385384
0.325854
0.271801
0.226432
0.193621
0.167206
0.147292
0.13377
0.124921
0.118067
0.109475
0.105163
0.106008
0.108209
0.11091
0.116095
0.126889
0.134987
0.141396
0.154819
0.190414
0.201007
0.195325
0.204722
0.257416
0.478746
0.649058
0.861699
1.42404
1.76852
1.80114
1.91833
2.18866
2.32436
2.35682
2.31449
2.1742
2.00893
1.732
1.41577
1.14333
0.91011
0.70934
0.551858
0.428583
0.334054
0.275808
0.232669
0.209227
0.200062
0.196143
0.19375
0.191905
0.190731
0.189409
0.18758
0.185637
0.182189
0.179782
0.178478
0.178012
0.177804
0.177104
0.17722
0.178475
0.181105
0.184409
0.187182
0.189684
0.192116
0.193591
0.193581
0.195026
0.195703
0.19624
0.199225
0.202485
0.20757
0.221128
0.236974
0.248478
0.256222
0.258982
0.256799
0.245333
0.238292
0.241283
0.257901
0.313666
0.381775
0.42224
0.445078
0.470023
0.487465
0.498518
0.512474
0.539652
0.577665
0.60821
0.618647
0.625349
0.641922
0.673575
0.711977
0.726036
0.690899
0.579973
0.530577
0.541456
0.607508
0.681263
0.7752
0.924534
1.26985
2.08003
2.25355
1.49349
1.10046
0.948209
0.886612
0.85195
0.821777
0.808731
0.882751
0.841315
0.822078
0.924349
0.973166
1.12411
1.23617
1.41349
1.47482
1.43418
1.41733
1.4987
1.64951
1.89051
2.05183
2.13198
2.15891
2.19518
2.29382
2.46841
2.89322
3.50544
3.77026
3.90969
3.86746
3.71757
3.89585
4.14584
4.78265
4.89107
4.80534
5.0567
5.45923
5.86706
5.81788
5.98579
7.88133
10.0496
6.81284
4.48174
4.12573
4.64032
5.7972
5.24403
4.48851
4.58327
5.13755
5.02244
5.17438
5.22991
5.42215
0.743221
0.539192
0.740545
0.730952
0.605384
0.437893
0.297815
0.204846
0.147949
0.11727
0.100202
0.0910843
0.0863107
0.0838148
0.0832158
0.0833229
0.0832148
0.0826442
0.0823961
0.0812026
0.0774389
0.0772347
0.0789594
0.0847211
0.0902556
0.0989429
0.115902
0.13461
0.187014
0.293769
0.513955
1.21567
1.56073
1.5109
1.54457
1.61054
1.6119
1.62071
1.55701
1.40745
1.24774
1.08341
0.882666
0.72088
0.575074
0.427637
0.333637
0.263358
0.215503
0.188541
0.174798
0.169983
0.169369
0.170408
0.173024
0.175506
0.177038
0.178254
0.178793
0.178254
0.17726
0.176435
0.174641
0.170693
0.165775
0.161148
0.15765
0.154979
0.151287
0.147198
0.146249
0.146875
0.148473
0.151504
0.155516
0.161309
0.166268
0.168159
0.170988
0.171728
0.170456
0.167784
0.165318
0.164969
0.166337
0.168617
0.169181
0.1692
0.170143
0.169217
0.162907
0.155394
0.154713
0.159242
0.177557
0.220078
0.247853
0.259944
0.271742
0.286678
0.295721
0.303285
0.315374
0.344726
0.378897
0.392191
0.391825
0.386533
0.380945
0.383855
0.40612
0.430204
0.434962
0.432791
0.449777
0.552607
0.636891
0.700137
0.877719
1.39785
2.04234
1.73205
1.03349
0.818098
0.674256
0.629439
0.613707
0.624221
0.678966
0.769929
0.769284
0.73309
0.823539
0.831882
0.872974
0.883824
1.03078
1.23124
1.18791
1.10417
1.08075
1.14343
1.27169
1.35887
1.38978
1.3945
1.381
1.42095
1.52478
1.68407
2.01022
2.4623
2.81565
2.86519
2.86371
3.24393
3.73261
3.91402
3.8047
3.83176
4.15784
4.39475
4.37989
4.51082
5.39313
7.95525
8.20782
4.89358
3.72996
3.46695
3.59341
4.04071
5.18253
4.20711
4.1901
4.33198
4.03746
4.14994
4.14074
4.12127
1.27881
1.20959
1.1161
0.792213
0.433799
0.226401
0.142399
0.107295
0.0909475
0.083099
0.0793875
0.0791585
0.080093
0.0812975
0.0842849
0.0858391
0.0856968
0.0849564
0.0830756
0.0785414
0.073429
0.0724179
0.0735663
0.0769144
0.079766
0.0837931
0.0967073
0.141501
0.260765
0.977471
1.43099
1.43738
1.41443
1.31105
1.23638
1.14583
1.06403
0.928909
0.80643
0.694544
0.572867
0.464684
0.35518
0.281406
0.22913
0.186576
0.168139
0.160958
0.159365
0.161061
0.16429
0.168723
0.171394
0.173396
0.175183
0.176698
0.177521
0.177998
0.177993
0.176648
0.17496
0.174545
0.174221
0.172027
0.168868
0.164396
0.160071
0.156239
0.152066
0.145185
0.141363
0.138723
0.137506
0.138386
0.142033
0.148914
0.155442
0.160572
0.164026
0.166508
0.166577
0.16336
0.157874
0.154761
0.154219
0.153428
0.152215
0.149016
0.146928
0.145866
0.141986
0.136359
0.134346
0.134712
0.141157
0.165862
0.186871
0.19207
0.196006
0.204313
0.207904
0.211096
0.217849
0.238338
0.2707
0.286017
0.285916
0.278946
0.261633
0.254466
0.259631
0.277618
0.286852
0.299784
0.347217
0.519216
0.633162
0.695935
0.890535
1.43963
1.81622
1.3134
0.851695
0.703978
0.573281
0.533983
0.518286
0.515489
0.520799
0.632274
0.750548
0.688384
0.790766
0.791923
0.766851
0.664552
0.631806
0.892704
1.04045
0.97611
0.903584
0.919351
1.00103
1.11077
1.14201
1.1464
1.1127
1.12083
1.17916
1.34531
1.46032
1.80301
2.26755
2.40823
2.47817
2.89997
3.70916
3.59479
3.33348
3.54358
3.84028
3.88473
3.75126
3.86357
5.06739
7.71198
7.13534
4.52101
3.68488
3.40092
3.39697
3.23131
3.65426
3.7072
4.0833
3.89356
3.66461
3.61161
3.57395
3.49263
1.952
1.88193
1.18589
0.48223
0.210249
0.127475
0.101023
0.0895294
0.0832101
0.0831785
0.0861111
0.0970826
0.106474
0.111568
0.11627
0.116056
0.114043
0.107661
0.0968444
0.0879074
0.0815249
0.0772333
0.0756642
0.0763508
0.0790915
0.0903755
0.125898
0.324731
1.03992
1.3926
1.36578
1.18068
0.997286
0.867769
0.761126
0.678314
0.589869
0.500266
0.408389
0.335589
0.269817
0.223674
0.181037
0.159976
0.150537
0.147432
0.149547
0.154186
0.161072
0.164639
0.168337
0.170564
0.171563
0.171823
0.17146
0.169777
0.167352
0.165579
0.164032
0.161125
0.157795
0.155666
0.155302
0.155406
0.156992
0.159025
0.159868
0.157811
0.15624
0.151189
0.143912
0.137343
0.132134
0.127578
0.124101
0.126197
0.131646
0.141402
0.146058
0.150291
0.153703
0.154559
0.15269
0.146444
0.144209
0.143255
0.142956
0.140629
0.13609
0.135194
0.133149
0.128988
0.127001
0.125782
0.126414
0.137568
0.157186
0.159459
0.160228
0.164791
0.165921
0.166069
0.169527
0.184858
0.215092
0.23314
0.23427
0.229196
0.21424
0.204701
0.205184
0.216211
0.234323
0.254661
0.314561
0.493931
0.632893
0.705414
0.894431
1.44514
1.50763
1.07574
0.746776
0.615115
0.537065
0.490908
0.469432
0.447037
0.450783
0.488565
0.60119
0.588964
0.732633
0.722553
0.706206
0.619412
0.528646
0.602592
0.846443
0.873031
0.828282
0.809698
0.859492
0.985946
1.03913
1.07398
1.03244
1.00754
1.02453
1.15995
1.36882
1.46202
1.90059
2.11971
2.28797
2.67194
3.46537
3.32343
3.12869
3.58024
3.70971
3.56645
3.42095
3.55112
4.88144
7.04979
6.37139
4.62197
4.08324
3.66751
3.37517
2.95628
3.19922
3.20295
3.68738
3.44814
3.4261
3.17352
2.95102
2.8187
2.67823
2.19901
0.84234
0.280276
0.137424
0.104642
0.093957
0.0928561
0.0957547
0.104448
0.12084
0.141632
0.154336
0.162276
0.169837
0.16916
0.165154
0.153248
0.135764
0.122823
0.112437
0.0994547
0.0945278
0.0969022
0.113522
0.205256
0.610193
1.05888
1.22734
1.24247
0.976281
0.736213
0.629515
0.536792
0.458193
0.390721
0.330524
0.275873
0.221462
0.187651
0.160421
0.14402
0.136894
0.135563
0.13916
0.146467
0.153739
0.158547
0.162176
0.163936
0.164383
0.162796
0.159555
0.155254
0.150906
0.147387
0.145986
0.145722
0.146963
0.148788
0.146827
0.143439
0.143076
0.142276
0.142789
0.143541
0.146709
0.152043
0.156155
0.157862
0.15741
0.151323
0.139697
0.128409
0.119221
0.112796
0.108685
0.11114
0.116651
0.121552
0.126416
0.128979
0.130129
0.129264
0.125805
0.124121
0.123954
0.123764
0.122255
0.122222
0.123747
0.122743
0.119066
0.117717
0.116718
0.117122
0.126966
0.131531
0.132489
0.134178
0.13885
0.141499
0.144648
0.153371
0.18047
0.199866
0.202826
0.201119
0.192055
0.18363
0.182263
0.190278
0.211164
0.234515
0.298078
0.481913
0.623456
0.719871
0.892744
1.40098
1.35606
0.910504
0.639029
0.587219
0.525703
0.463162
0.429611
0.413056
0.408294
0.413342
0.453366
0.441375
0.534679
0.586061
0.586545
0.600187
0.501095
0.505944
0.71791
0.805951
0.772002
0.727744
0.757007
0.865669
0.957695
1.05176
1.02384
0.969819
0.936201
1.04586
1.34255
1.38538
1.69394
1.80426
2.15246
2.65474
2.82672
2.76155
3.05342
3.99812
3.66876
3.29997
3.18242
3.36525
4.82366
6.09535
5.3723
5.17522
5.29382
4.31166
3.50689
2.82886
2.88804
2.85055
2.95233
2.93496
2.97239
2.66688
2.46966
2.34712
3.32475
2.24345
0.649403
0.191127
0.115338
0.100524
0.101545
0.109635
0.128956
0.152841
0.177495
0.19732
0.212824
0.224544
0.234048
0.242266
0.249916
0.252067
0.244961
0.232924
0.211659
0.193259
0.198055
0.268794
0.466576
0.735354
0.963898
1.05755
1.04234
0.760266
0.58087
0.466553
0.392845
0.326232
0.279112
0.234808
0.196903
0.170474
0.145904
0.132017
0.125867
0.124447
0.127407
0.134757
0.143143
0.15072
0.155228
0.157303
0.157444
0.152776
0.142583
0.131212
0.124829
0.122611
0.12242
0.123544
0.124172
0.124983
0.12609
0.129231
0.132801
0.137452
0.1397
0.140552
0.141796
0.141635
0.142328
0.143925
0.14785
0.156677
0.159894
0.160393
0.157648
0.146604
0.12549
0.111164
0.101716
0.0970883
0.0970332
0.0995574
0.104675
0.107808
0.109172
0.109109
0.107073
0.104964
0.104123
0.103671
0.101818
0.100574
0.103066
0.108233
0.108945
0.107515
0.106949
0.106573
0.108416
0.115612
0.118985
0.119307
0.121883
0.126699
0.128987
0.130289
0.135001
0.166092
0.182931
0.182085
0.176259
0.169437
0.167825
0.174901
0.19765
0.222868
0.283332
0.4657
0.597399
0.752656
0.907156
1.32521
1.24079
0.794847
0.585711
0.578013
0.522397
0.45203
0.410346
0.391755
0.387072
0.379802
0.407114
0.398352
0.420736
0.513689
0.519618
0.549328
0.491663
0.450801
0.557276
0.724119
0.709133
0.638157
0.633053
0.697869
0.829894
1.02037
1.03901
0.959891
0.890096
0.997968
1.28892
1.34227
1.56154
1.63665
1.98696
2.66286
2.58999
2.48238
3.10005
4.2766
3.54681
3.00434
2.97644
3.21301
4.66278
5.20716
5.18177
6.6956
6.31432
4.55323
3.57969
2.77713
2.73408
2.60984
2.55494
2.35444
2.32998
2.07894
2.01993
2.10235
3.80093
2.01305
0.438867
0.14241
0.109464
0.109437
0.123733
0.150344
0.179996
0.206169
0.231061
0.255994
0.272081
0.284758
0.305966
0.322398
0.338368
0.357332
0.371713
0.387132
0.406921
0.438559
0.496531
0.596783
0.716331
0.828468
0.890244
0.825258
0.590416
0.4404
0.359141
0.296454
0.249203
0.206058
0.178336
0.155987
0.136891
0.125237
0.117281
0.114975
0.115681
0.121292
0.128958
0.140112
0.147403
0.150736
0.151895
0.148702
0.137875
0.122027
0.114231
0.111022
0.110159
0.110602
0.113346
0.11862
0.121736
0.122971
0.123257
0.124209
0.126662
0.130867
0.135055
0.139836
0.14276
0.144588
0.145303
0.144684
0.14405
0.145253
0.153971
0.159754
0.159998
0.156089
0.142993
0.11794
0.101903
0.0939629
0.0914907
0.0917806
0.0957756
0.100409
0.102238
0.103182
0.102554
0.100043
0.0975875
0.0969475
0.0939383
0.0892589
0.088375
0.0908759
0.0927885
0.0927753
0.093215
0.0939898
0.096148
0.103541
0.109408
0.109231
0.109138
0.111091
0.112188
0.112609
0.114027
0.130007
0.162001
0.164397
0.161276
0.151839
0.148479
0.153575
0.180743
0.209784
0.263368
0.44554
0.564745
0.754181
0.932938
1.22025
1.11058
0.714497
0.574318
0.575788
0.527602
0.457534
0.39847
0.360992
0.357035
0.351204
0.363444
0.378276
0.404204
0.452043
0.450561
0.477929
0.477408
0.421432
0.492436
0.614105
0.636195
0.610411
0.574173
0.577814
0.657445
0.905238
1.00215
0.91554
0.863158
0.970676
1.10071
1.25527
1.48592
1.54495
1.76714
2.62642
2.50131
2.42182
3.54289
4.24282
3.24238
2.76236
2.76178
3.041
4.32874
4.64246
5.15939
7.23041
6.06743
4.29086
3.51094
2.74643
2.64166
2.49761
2.35629
2.00953
1.9253
1.79523
1.80779
1.98965
4.08491
1.84786
0.355057
0.12928
0.112924
0.122188
0.14767
0.179252
0.209116
0.238985
0.266685
0.290665
0.313847
0.333987
0.355585
0.374003
0.393564
0.416502
0.43666
0.46157
0.491508
0.530442
0.580226
0.642651
0.694056
0.715507
0.609117
0.456408
0.345235
0.273544
0.231098
0.19391
0.166323
0.143233
0.129188
0.119113
0.111581
0.108482
0.107477
0.110204
0.115324
0.123591
0.13522
0.142804
0.146236
0.146885
0.142789
0.131822
0.118975
0.109999
0.105924
0.104932
0.105251
0.106454
0.109702
0.116624
0.125216
0.133484
0.136994
0.134716
0.132472
0.132228
0.133999
0.13851
0.14098
0.144533
0.146066
0.146018
0.14377
0.139586
0.138689
0.145573
0.153132
0.15394
0.148855
0.131725
0.108557
0.0951786
0.0906027
0.0902138
0.0926118
0.0980232
0.100145
0.101396
0.101283
0.0995072
0.0961484
0.0954554
0.0925129
0.0867393
0.0841286
0.0845883
0.0863426
0.0860355
0.0851373
0.0850595
0.0861281
0.0903031
0.100183
0.101625
0.0998253
0.0986667
0.0983121
0.0989382
0.102705
0.113685
0.142195
0.14777
0.14313
0.131225
0.127512
0.130017
0.154124
0.189419
0.242687
0.415342
0.531648
0.718253
0.944445
1.15228
1.04036
0.696217
0.579695
0.591284
0.562833
0.48426
0.382227
0.334277
0.328376
0.324994
0.326863
0.351674
0.397163
0.403323
0.37929
0.376534
0.431112
0.395106
0.464004
0.562019
0.59972
0.605279
0.559087
0.541434
0.560007
0.712325
0.862563
0.806019
0.818188
0.9075
0.922816
1.15614
1.40139
1.43407
1.60189
2.54018
2.42361
2.38799
3.65138
3.90615
2.9053
2.5545
2.5578
2.91206
3.97249
4.38593
5.17263
5.99867
4.53532
3.88176
3.36659
2.71757
2.57694
2.42257
2.18853
1.84897
1.76169
1.66184
1.69892
1.90243
4.33877
1.81274
0.331944
0.129241
0.11889
0.133701
0.167078
0.204695
0.237764
0.266386
0.2911
0.309891
0.334058
0.359462
0.375827
0.390214
0.408777
0.428241
0.446321
0.470648
0.497157
0.529399
0.558974
0.573182
0.527316
0.439606
0.351288
0.273136
0.219197
0.180274
0.157246
0.135783
0.121889
0.1109
0.104902
0.10191
0.100603
0.101512
0.104455
0.109278
0.11639
0.126681
0.136766
0.141013
0.141828
0.139367
0.133372
0.124327
0.11647
0.111046
0.106708
0.105211
0.105398
0.106523
0.109223
0.114805
0.124571
0.138003
0.15283
0.161839
0.161636
0.154151
0.14565
0.141433
0.140277
0.140015
0.140808
0.142145
0.142586
0.137272
0.130685
0.124674
0.128875
0.136048
0.139892
0.13649
0.12047
0.102747
0.0933385
0.0908118
0.0917085
0.096801
0.100063
0.101274
0.101516
0.101321
0.09743
0.095642
0.0932026
0.0867683
0.0832027
0.0820277
0.0831156
0.0832473
0.0820697
0.0819016
0.082663
0.084075
0.0891036
0.09122
0.0901882
0.0900129
0.0908358
0.0925076
0.0990967
0.103606
0.109531
0.117245
0.116054
0.111654
0.110764
0.113929
0.128453
0.165776
0.223334
0.38209
0.519041
0.647271
0.915587
1.11658
1.02129
0.705976
0.609037
0.619387
0.616115
0.516429
0.376078
0.321074
0.319021
0.317858
0.319806
0.335865
0.366443
0.387105
0.374196
0.350693
0.381427
0.386163
0.444351
0.529968
0.571337
0.602373
0.5583
0.530029
0.548229
0.623034
0.706427
0.69804
0.761555
0.892493
0.89172
1.10036
1.28442
1.30865
1.45996
2.41372
2.3225
2.34602
3.56474
3.37487
2.71195
2.41089
2.42034
2.86663
3.65041
4.08723
4.7481
3.3183
3.36493
3.61565
3.11364
2.66928
2.52708
2.39434
2.06821
1.72009
1.67083
1.56348
1.5819
1.73495
4.62174
1.75572
0.308315
0.130091
0.122045
0.140627
0.177556
0.216704
0.248573
0.276024
0.302971
0.32189
0.340811
0.363502
0.376612
0.388416
0.404293
0.419757
0.433218
0.44819
0.455588
0.45097
0.422873
0.377141
0.317909
0.264675
0.214702
0.174418
0.147554
0.126827
0.115586
0.104956
0.0992539
0.0961042
0.0949652
0.0953123
0.0970027
0.100034
0.104365
0.11039
0.119931
0.129479
0.136802
0.139539
0.139893
0.138618
0.134355
0.126609
0.120245
0.117202
0.11502
0.113353
0.113609
0.114633
0.116369
0.118984
0.122809
0.131599
0.149313
0.166198
0.175985
0.17731
0.171962
0.160176
0.149354
0.139594
0.135648
0.132038
0.131028
0.131917
0.12775
0.117635
0.110044
0.109195
0.117995
0.12356
0.121511
0.10823
0.0963515
0.0915381
0.0911681
0.0946306
0.0993852
0.100362
0.101145
0.101676
0.0992825
0.0963998
0.0950696
0.0904983
0.0839996
0.0805914
0.080739
0.0810929
0.0800982
0.0801
0.0807044
0.0810315
0.0826844
0.0859022
0.0853575
0.0836699
0.0836661
0.0864499
0.0973287
0.0993086
0.0988962
0.100401
0.101439
0.100842
0.101846
0.106379
0.118131
0.146666
0.197653
0.32929
0.502786
0.585364
0.811304
1.05219
1.00042
0.750113
0.650307
0.649454
0.642701
0.532467
0.37594
0.318391
0.312469
0.313636
0.318965
0.33244
0.334958
0.368974
0.373252
0.344147
0.359972
0.381889
0.437674
0.508639
0.537967
0.588494
0.556852
0.528524
0.547514
0.617753
0.666186
0.674031
0.760417
0.896702
0.878692
1.06852
1.17228
1.21524
1.36496
2.24902
2.17064
2.24697
3.28398
2.90929
2.62448
2.32397
2.34535
2.83538
3.29381
3.66464
4.3489
2.64051
2.71145
3.16179
2.80262
2.64917
2.48466
2.3616
1.95258
1.67617
1.6199
1.47454
1.43636
1.50044
4.94155
1.73862
0.303898
0.129937
0.124629
0.144713
0.180807
0.218584
0.251063
0.279757
0.304193
0.319675
0.332928
0.346229
0.352878
0.357322
0.360326
0.36147
0.35576
0.342417
0.325218
0.29639
0.266356
0.233986
0.19714
0.167431
0.141763
0.121543
0.109368
0.100271
0.0957562
0.0926907
0.0916223
0.0919016
0.0929916
0.0946405
0.0973491
0.100915
0.106002
0.1139
0.122982
0.131632
0.137973
0.140542
0.141009
0.140488
0.13744
0.132584
0.129728
0.127342
0.124942
0.121664
0.120187
0.120021
0.12043
0.121682
0.12379
0.125529
0.129176
0.144164
0.165813
0.176332
0.17609
0.168716
0.161512
0.15313
0.143762
0.133134
0.127765
0.126513
0.123431
0.116898
0.107249
0.0987824
0.0945559
0.0979853
0.104009
0.103512
0.0943071
0.0885379
0.0865122
0.0870956
0.0926928
0.0948069
0.0959751
0.0973381
0.0970067
0.094228
0.0937215
0.0915244
0.0850208
0.0795681
0.0780143
0.0783025
0.078001
0.0778959
0.0779944
0.0778598
0.0787215
0.082054
0.0814638
0.0783585
0.0795718
0.083996
0.0929551
0.0960096
0.0950637
0.0946599
0.0955139
0.097247
0.0991909
0.104174
0.114926
0.139537
0.178722
0.273831
0.462337
0.556644
0.685758
0.914039
0.923858
0.774908
0.664195
0.659329
0.652334
0.544907
0.381875
0.321915
0.310059
0.311928
0.325785
0.332834
0.330369
0.355291
0.368616
0.342046
0.350585
0.377443
0.436213
0.492394
0.51946
0.58323
0.560865
0.530152
0.548884
0.61945
0.658296
0.674301
0.802536
0.908182
0.871841
1.01183
1.06978
1.10276
1.27895
2.06806
2.00971
2.10732
3.04555
2.484
2.58333
2.30049
2.2888
2.7383
2.99206
3.39867
3.78635
2.52435
2.3305
2.85331
2.69592
2.61399
2.42621
2.30191
1.83166
1.63036
1.5584
1.3727
1.31622
1.43654
5.40254
1.83955
0.326959
0.131809
0.124783
0.143203
0.178689
0.216638
0.247322
0.273189
0.288848
0.296388
0.299899
0.301152
0.298826
0.291264
0.28321
0.268635
0.255736
0.240738
0.222381
0.199218
0.177122
0.155122
0.132933
0.117147
0.105555
0.0970684
0.0926082
0.0902597
0.0895561
0.0898393
0.0908672
0.0921117
0.0936932
0.0960217
0.100693
0.106617
0.1136
0.120906
0.127801
0.134916
0.140757
0.143461
0.144541
0.144844
0.144191
0.142039
0.137699
0.132026
0.127615
0.122578
0.118903
0.117935
0.118258
0.119843
0.120481
0.120733
0.12074
0.121542
0.126791
0.142803
0.154329
0.156112
0.155544
0.15428
0.1535
0.150909
0.14186
0.134493
0.126279
0.120748
0.111394
0.100662
0.0908797
0.0827646
0.0766448
0.0771377
0.0775157
0.0751392
0.0739285
0.0732497
0.0743801
0.0770957
0.0792026
0.0830545
0.086826
0.0869457
0.0871301
0.0874011
0.0838867
0.0776727
0.074556
0.0742607
0.0740182
0.0732226
0.0729514
0.0725406
0.0740574
0.0778133
0.0777219
0.0754309
0.0769713
0.0832608
0.0881312
0.0948757
0.0943063
0.0929811
0.0932632
0.095699
0.0987349
0.103869
0.114417
0.13862
0.173328
0.232321
0.402509
0.527544
0.61118
0.748239
0.794894
0.749408
0.659658
0.657072
0.650289
0.546402
0.398512
0.340682
0.311601
0.31197
0.336631
0.341535
0.330417
0.35082
0.355723
0.341447
0.350757
0.37855
0.437927
0.489981
0.517121
0.581933
0.57803
0.529622
0.547864
0.65104
0.678011
0.701717
0.884435
0.913202
0.853799
0.94561
1.00402
1.02862
1.18699
1.87742
1.86387
1.96504
2.90706
2.23604
2.53943
2.29332
2.24281
2.5003
2.8153
3.16897
2.95929
2.40545
2.34858
2.80682
2.57095
2.46825
2.36125
2.16927
1.72963
1.58644
1.48875
1.31084
1.30275
1.43486
6.00732
2.02196
0.362069
0.134112
0.122197
0.132049
0.16271
0.201418
0.226036
0.251882
0.267207
0.269951
0.269402
0.262225
0.249802
0.239783
0.22834
0.211952
0.195506
0.180724
0.165409
0.149249
0.134331
0.120457
0.107163
0.0993812
0.0934948
0.090337
0.0889613
0.0885744
0.0891593
0.0906389
0.0927741
0.0946623
0.0967397
0.0998591
0.105393
0.111833
0.119101
0.127471
0.134141
0.141264
0.147309
0.149943
0.150799
0.150522
0.149151
0.145811
0.139709
0.130596
0.122149
0.116053
0.112458
0.111072
0.112117
0.116664
0.118709
0.118543
0.116531
0.114469
0.113341
0.11461
0.117118
0.115288
0.119063
0.131671
0.144784
0.151468
0.151441
0.149096
0.143952
0.137782
0.128804
0.114551
0.0965863
0.0831182
0.0701804
0.0608483
0.0562374
0.0544758
0.0545127
0.0560582
0.0601974
0.0649373
0.0681897
0.0720136
0.0754051
0.0762653
0.0767894
0.0777455
0.0778483
0.0734872
0.0699066
0.0690403
0.0693691
0.0695633
0.0695624
0.070105
0.0723302
0.074506
0.0739786
0.0729103
0.0751094
0.0830375
0.0861721
0.0935509
0.0939143
0.0928267
0.0930771
0.0951937
0.100448
0.105777
0.115537
0.138473
0.172655
0.219611
0.335698
0.497426
0.576703
0.654161
0.68124
0.664035
0.633025
0.641361
0.634857
0.531423
0.405365
0.357002
0.314336
0.317279
0.344135
0.343928
0.337096
0.349938
0.345351
0.345568
0.364038
0.398385
0.450179
0.501824
0.532602
0.576928
0.58018
0.535328
0.567372
0.739349
0.750012
0.775787
0.949656
0.916903
0.805818
0.866816
0.932056
0.962731
1.11646
1.75783
1.74763
1.82618
2.63097
1.996
2.50841
2.29635
2.18118
2.24861
2.69615
2.77574
2.62976
2.39221
2.38029
2.64498
2.36844
2.33763
2.29474
2.02121
1.66269
1.54544
1.40948
1.2828
1.31081
1.44877
6.8293
2.21465
0.392253
0.139764
0.122518
0.123213
0.137037
0.17096
0.205312
0.220343
0.233933
0.243301
0.246304
0.245441
0.234409
0.214337
0.197884
0.182029
0.165126
0.150929
0.138168
0.127388
0.11802
0.110162
0.102075
0.0969087
0.092625
0.0905797
0.0898971
0.0901015
0.0921118
0.0965778
0.102298
0.106988
0.110564
0.114519
0.118049
0.122902
0.129161
0.135779
0.139635
0.144717
0.149397
0.151191
0.151185
0.15068
0.148697
0.140449
0.126878
0.117455
0.112986
0.110539
0.109109
0.108985
0.110856
0.117189
0.119461
0.1185
0.114031
0.106909
0.104796
0.105294