/*--------------------------------*- C++ -*----------------------------------*\
| =========                 |                                                 |
| \\      /  F ield         | OpenFOAM: The Open Source CFD Toolbox           |
|  \\    /   O peration     | Version:  dev                                   |
|   \\  /    A nd           | Web:      http://www.openfoam.org               |
|    \\/     M anipulation  |                                                 |
\*---------------------------------------------------------------------------*/
FoamFile
{
    version     2.0;
    format      ascii;
    class       volScalarField;
    object      muSgs;
    location    "9.162";
}
// * * * * * * * * * * * * * * * * * * * * * * * * * * * * * * * * * * * * * //

dimensions      [1 -1 -1 0 0 0 0];

internalField   nonuniform List<scalar> 
12225
(
0.000216974
0.000215536
0.000156899
0.000151064
0.000125971
0.000139119
0.000142891
0.000144263
0.000166973
0.000152094
0.000181632
0.000157493
0.000184433
0.000167086
0.000190926
0.000200898
0.000247399
0.000231653
0.000103598
0.000195937
0.000175608
0.000193947
0.000152809
0.000183587
0.000139167
0.000176279
0.000145395
0.000169553
0.000150794
0.000160231
0.000159235
0.000151334
0.000173754
0.000168578
0.000247545
0.000236676
3.19023e-05
0.000119947
0.000121909
0.000153332
0.000134552
0.000153856
0.00013322
0.000143808
0.000132718
0.000127548
0.000129311
0.000106357
0.000127311
9.61224e-05
0.000135553
0.000114048
0.000231373
0.00026473
1.21695e-05
5.74221e-05
6.61296e-05
8.45865e-05
9.49838e-05
9.61464e-05
0.000110867
9.86792e-05
0.00011504
9.23357e-05
0.000109409
7.73345e-05
9.98374e-05
6.66746e-05
9.91078e-05
8.4045e-05
0.000218537
0.000292679
4.49492e-06
2.76e-05
3.62672e-05
4.7872e-05
6.5657e-05
6.64406e-05
7.86208e-05
7.15392e-05
8.0991e-05
6.71111e-05
7.99559e-05
5.82302e-05
7.67634e-05
5.20467e-05
7.60452e-05
6.68977e-05
0.000199511
0.000306647
7.18617e-06
2.6888e-05
3.04266e-05
3.61565e-05
4.52772e-05
4.43188e-05
5.22962e-05
4.70717e-05
5.52364e-05
4.47847e-05
5.67663e-05
4.12958e-05
5.77446e-05
3.96026e-05
6.00306e-05
5.49664e-05
0.000138414
0.000230691
5.39378e-06
1.05374e-05
1.89699e-05
1.83574e-05
2.64717e-05
2.40566e-05
3.27e-05
2.76488e-05
3.59781e-05
2.80076e-05
3.83417e-05
2.82069e-05
4.06336e-05
2.95777e-05
4.43798e-05
4.20508e-05
8.46013e-05
0.000104163
4.37515e-06
5.36696e-06
9.07618e-06
8.76742e-06
1.34249e-05
1.19048e-05
1.72345e-05
1.4349e-05
1.96514e-05
1.54673e-05
2.15112e-05
1.65494e-05
2.34443e-05
1.80178e-05
2.67314e-05
2.36802e-05
4.71617e-05
4.34616e-05
5.6211e-06
5.75539e-06
7.07933e-06
7.15652e-06
9.42426e-06
8.78995e-06
1.19476e-05
1.06088e-05
1.37702e-05
1.18323e-05
1.52374e-05
1.29603e-05
1.68702e-05
1.44223e-05
1.97018e-05
1.78556e-05
3.15959e-05
2.85057e-05
8.55196e-06
8.1119e-06
7.5904e-06
7.53524e-06
8.11764e-06
8.13424e-06
9.42573e-06
9.25495e-06
1.06841e-05
1.03242e-05
1.16759e-05
1.11194e-05
1.27386e-05
1.2169e-05
1.47229e-05
1.39528e-05
2.11576e-05
1.97089e-05
1.27457e-05
1.16137e-05
9.58035e-06
9.20288e-06
8.73509e-06
8.79332e-06
9.20448e-06
9.53502e-06
1.02388e-05
1.05031e-05
1.08998e-05
1.10043e-05
1.14049e-05
1.14407e-05
1.25418e-05
1.21507e-05
1.5227e-05
1.48096e-05
1.78372e-05
1.57884e-05
1.30238e-05
1.23755e-05
1.10683e-05
1.10564e-05
1.07489e-05
1.09773e-05
1.1237e-05
1.16901e-05
1.17177e-05
1.18954e-05
1.18941e-05
1.19647e-05
1.23766e-05
1.21313e-05
1.30633e-05
1.31608e-05
2.63996e-05
2.27463e-05
1.89038e-05
1.73595e-05
1.52277e-05
1.47474e-05
1.40256e-05
1.40779e-05
1.38296e-05
1.40941e-05
1.38651e-05
1.37938e-05
1.34928e-05
1.32598e-05
1.33615e-05
1.3133e-05
1.34398e-05
1.35612e-05
3.80254e-05
3.20703e-05
2.6885e-05
2.38653e-05
2.07683e-05
1.94077e-05
1.83474e-05
1.79586e-05
1.75229e-05
1.73861e-05
1.72649e-05
1.71729e-05
1.68785e-05
1.64963e-05
1.61247e-05
1.57185e-05
1.53834e-05
1.51727e-05
5.31721e-05
4.41563e-05
3.69404e-05
3.22722e-05
2.87223e-05
2.63892e-05
2.47064e-05
2.36205e-05
2.28627e-05
2.23087e-05
2.18464e-05
2.15127e-05
2.11947e-05
2.08697e-05
2.0529e-05
2.01088e-05
1.96072e-05
1.90899e-05
7.12708e-05
5.96659e-05
4.98328e-05
4.27151e-05
3.72988e-05
3.34522e-05
3.08305e-05
2.90855e-05
2.79054e-05
2.70379e-05
2.63214e-05
2.57011e-05
2.51259e-05
2.45622e-05
2.39713e-05
2.33559e-05
2.26283e-05
2.19951e-05
8.40854e-05
6.94983e-05
5.74213e-05
4.87703e-05
4.22495e-05
3.75814e-05
3.44389e-05
3.23964e-05
3.10314e-05
3.00279e-05
2.91954e-05
2.8469e-05
2.77707e-05
2.70913e-05
2.63675e-05
2.56335e-05
2.47451e-05
2.40054e-05
8.46349e-05
6.97623e-05
5.75878e-05
4.88371e-05
4.22538e-05
3.75991e-05
3.44676e-05
3.24292e-05
3.10565e-05
3.00615e-05
2.92312e-05
2.85057e-05
2.77921e-05
2.70929e-05
2.63196e-05
2.55542e-05
2.46433e-05
2.38967e-05
7.13902e-05
6.02573e-05
5.05745e-05
4.323e-05
3.76301e-05
3.36737e-05
3.09989e-05
2.9241e-05
2.80487e-05
2.71892e-05
2.64787e-05
2.58508e-05
2.52345e-05
2.46212e-05
2.39269e-05
2.3232e-05
2.24022e-05
2.17336e-05
5.35644e-05
4.52144e-05
3.83764e-05
3.32441e-05
2.93349e-05
2.66051e-05
2.48235e-05
2.36765e-05
2.29526e-05
2.24182e-05
2.1995e-05
2.15931e-05
2.11519e-05
2.06811e-05
2.0177e-05
1.96275e-05
1.89904e-05
1.8438e-05
3.87438e-05
3.30022e-05
2.83108e-05
2.45547e-05
2.17595e-05
1.98808e-05
1.86154e-05
1.77087e-05
1.70431e-05
1.65549e-05
1.61408e-05
1.57507e-05
1.53542e-05
1.49901e-05
1.46421e-05
1.43085e-05
1.39427e-05
1.35884e-05
2.71784e-05
2.3301e-05
2.03884e-05
1.80829e-05
1.63183e-05
1.50021e-05
1.39805e-05
1.32931e-05
1.28847e-05
1.26227e-05
1.24048e-05
1.22506e-05
1.21598e-05
1.21261e-05
1.20994e-05
1.20263e-05
1.18648e-05
1.16335e-05
1.84386e-05
1.60852e-05
1.44143e-05
1.2764e-05
1.17969e-05
1.14502e-05
1.13322e-05
1.11708e-05
1.10839e-05
1.10212e-05
1.09794e-05
1.10143e-05
1.11293e-05
1.12963e-05
1.14369e-05
1.14881e-05
1.14379e-05
1.12815e-05
1.24866e-05
1.07135e-05
9.76078e-06
9.88673e-06
1.00348e-05
1.05145e-05
1.10742e-05
1.14666e-05
1.17861e-05
1.19674e-05
1.21879e-05
1.25643e-05
1.3038e-05
1.35191e-05
1.38854e-05
1.4055e-05
1.40551e-05
1.38761e-05
6.73153e-06
7.05555e-06
8.029e-06
9.96034e-06
1.25515e-05
1.51558e-05
1.67925e-05
1.79323e-05
1.87852e-05
1.93372e-05
1.9895e-05
2.06313e-05
2.14133e-05
2.20664e-05
2.24672e-05
2.25437e-05
2.23425e-05
2.19041e-05
3.17327e-06
7.20478e-06
1.33938e-05
2.04225e-05
2.69818e-05
3.17879e-05
3.43372e-05
3.58004e-05
3.67898e-05
3.73999e-05
3.78657e-05
3.84182e-05
3.88248e-05
3.89652e-05
3.87671e-05
3.82442e-05
3.73822e-05
3.64246e-05
6.01084e-06
2.05378e-05
3.77814e-05
5.22818e-05
6.15566e-05
6.66551e-05
6.85054e-05
6.89422e-05
6.90471e-05
6.88287e-05
6.83312e-05
6.7768e-05
6.68303e-05
6.54274e-05
6.38286e-05
6.21525e-05
6.02084e-05
5.84157e-05
2.24265e-05
6.46697e-05
0.000100433
0.000115565
0.000124012
0.000125074
0.000122704
0.000119309
0.000115964
0.000112533
0.000109418
0.000106479
0.000103161
9.95519e-05
9.58922e-05
9.23838e-05
8.87839e-05
8.57462e-05
9.02791e-05
0.000175983
0.000199663
0.000196803
0.000188255
0.000178976
0.000169751
0.000161343
0.000153992
0.000147351
0.00014112
0.000135037
0.0001293
0.000123862
0.000118793
0.00011379
0.000109249
0.000103917
0.000237739
0.000268171
0.000237677
0.000198244
0.000173296
0.000159901
0.000152765
0.000148722
0.000146045
0.000144151
0.000142593
0.000141081
0.000139437
0.000137491
0.000135249
0.000132534
0.000129225
0.000122571
1.60736e-05
1.82718e-05
2.00916e-05
2.31073e-05
2.71792e-05
3.19353e-05
3.58772e-05
3.99075e-05
4.34135e-05
4.68987e-05
5.00648e-05
5.32278e-05
5.68524e-05
6.11009e-05
6.52977e-05
6.9076e-05
7.27442e-05
7.63848e-05
7.95244e-05
8.1947e-05
8.40203e-05
8.56505e-05
8.69888e-05
8.83353e-05
8.96425e-05
9.12952e-05
9.32479e-05
9.50617e-05
9.71331e-05
9.95708e-05
0.000102477
0.000107186
0.000114389
0.000120017
0.000123053
0.000125688
0.000127253
0.000127961
0.000130844
0.000135375
0.000140806
0.000146446
0.000157786
0.000173773
0.000188635
0.000202068
0.00021398
0.000224212
0.000232754
0.000239518
0.000244496
0.000247864
0.000250097
0.000251533
0.000251634
0.000250732
0.000249038
0.000246748
0.000244113
0.000241336
0.000238556
0.000235567
0.000233146
0.000230774
0.000228412
0.000225937
0.000224008
0.000221745
0.000219887
0.0002181
0.000215876
0.000213529
0.000211729
0.000209508
0.000207117
0.000204971
0.000202706
0.000200837
0.000199157
0.000198203
0.000197481
0.000197464
0.000197543
0.000198206
0.000199417
0.000200342
0.000200494
0.000200234
0.00019972
0.000199295
0.00019929
0.000200451
0.000202387
0.000204759
0.000206092
0.000205964
0.000204355
0.000202759
0.00020067
0.00019837
0.000196535
0.000194826
0.000192715
0.000190525
0.000188505
0.000186269
0.000183262
0.000179296
0.000175003
0.000171601
0.000168987
0.000167907
0.000170284
0.000178551
0.000195047
0.000214765
0.000225785
0.000225267
0.000217962
0.000200213
0.000192984
0.000198677
0.000228023
0.000239877
0.000247222
0.000253467
0.000260793
0.00026112
0.000253868
0.000259735
0.000273544
0.000282857
0.000302084
0.000321359
0.000348214
0.000381107
0.000419534
0.000467951
0.000512825
0.000563226
0.000604176
0.000642805
0.000667979
0.000686009
0.000698476
0.000716551
0.00073559
0.000754516
0.000771236
0.000781983
0.000794095
0.000803253
0.000825269
0.00084344
0.000866868
0.000902003
0.000972456
0.00101374
0.00101697
0.00102408
0.00105136
0.00108768
0.00108179
0.000989007
0.000852412
0.000778463
0.000763455
0.000796973
0.00086307
0.000801489
0.000749949
0.000674483
0.000728667
0.000741205
0.000745226
0.00077248
0.000766488
0.00078244
0.000824272
0.000908811
3.05047e-05
2.6636e-05
2.94773e-05
3.58395e-05
4.20625e-05
4.68409e-05
4.70897e-05
4.61999e-05
4.41977e-05
4.24588e-05
4.0598e-05
3.8704e-05
3.68899e-05
3.59393e-05
3.51514e-05
3.55106e-05
3.63327e-05
3.78586e-05
4.06364e-05
4.34889e-05
4.62411e-05
4.98172e-05
5.28024e-05
5.49546e-05
5.72217e-05
6.04075e-05
6.15487e-05
6.11946e-05
5.9834e-05
5.89277e-05
5.89225e-05
6.00769e-05
6.82573e-05
7.1873e-05
7.5617e-05
8.14054e-05
8.70011e-05
0.000100729
0.00013071
0.000147538
0.000155009
0.000161644
0.000170442
0.00017873
0.000183728
0.00018563
0.000183473
0.000178207
0.00017087
0.000162233
0.000152634
0.000142502
0.000132376
0.000122373
0.000112569
0.000104687
9.86712e-05
9.51258e-05
9.18261e-05
8.98182e-05
8.84314e-05
8.73024e-05
8.67693e-05
8.63372e-05
8.59265e-05
8.577e-05
8.59319e-05
8.59361e-05
8.59856e-05
8.58076e-05
8.51652e-05
8.48657e-05
8.48517e-05
8.42726e-05
8.32547e-05
8.26611e-05
8.17749e-05
8.13625e-05
8.11571e-05
8.15971e-05
8.23175e-05
8.40188e-05
8.54555e-05
8.74474e-05
9.1761e-05
9.58735e-05
9.83094e-05
9.97122e-05
0.000100159
9.99544e-05
9.89657e-05
9.92106e-05
0.00010117
0.000107244
0.000116341
0.000122575
0.000125722
0.00012814
0.000130131
0.000131287
0.000132138
0.00013379
0.000136774
0.000138715
0.000140282
0.000142431
0.00014463
0.00014507
0.00014227
0.000140246
0.000137397
0.000130961
0.000124167
0.00012286
0.000127445
0.000136701
0.000148668
0.000159288
0.000160632
0.000166593
0.000191727
0.000219481
0.000224235
0.000205692
0.000195589
0.000186563
0.000181636
0.000171877
0.00015973
0.000168429
0.000172998
0.000164188
0.000178916
0.000191811
0.000202441
0.000214724
0.00022515
0.000235567
0.000247248
0.000264237
0.000288904
0.000313471
0.000340847
0.000357655
0.000367412
0.0003747
0.000384902
0.000401183
0.00042639
0.000455636
0.000471706
0.000478013
0.000485608
0.000491909
0.000499832
0.000508107
0.000533146
0.000583395
0.000607584
0.000614305
0.000638139
0.000672357
0.000688311
0.000696382
0.000667521
0.00066671
0.0007344
0.000798101
0.000667287
0.000578667
0.000587954
0.000606867
0.000561641
0.00059535
0.00061466
0.000643656
0.000669954
0.000692237
0.000717046
0.000732512
4.79272e-05
3.8636e-05
4.40694e-05
5.5378e-05
5.66534e-05
5.49841e-05
5.0978e-05
4.72483e-05
4.34673e-05
3.99778e-05
3.72105e-05
3.4778e-05
3.28389e-05
3.147e-05
3.05034e-05
2.97372e-05
2.87429e-05
2.82046e-05
2.84472e-05
2.8933e-05
2.94961e-05
3.04678e-05
3.20513e-05
3.34552e-05
3.47267e-05
3.62776e-05
4.02033e-05
4.18068e-05
4.14684e-05
4.22374e-05
4.72669e-05
6.61283e-05
7.79337e-05
8.73114e-05
0.000109057
0.00012071
0.000121939
0.000125925
0.000134908
0.000139727
0.000141527
0.000141112
0.000137602
0.000133079
0.000124298
0.00011302
0.000102106
9.15576e-05
8.12347e-05
7.19953e-05
6.37617e-05
5.65873e-05
5.16781e-05
4.77142e-05
4.54864e-05
4.47115e-05
4.45087e-05
4.44732e-05
4.45024e-05
4.46086e-05
4.46983e-05
4.47257e-05
4.47409e-05
4.45726e-05
4.45255e-05
4.46158e-05
4.4808e-05
4.50302e-05
4.51864e-05
4.54406e-05
4.58518e-05
4.64416e-05
4.71161e-05
4.77115e-05
4.82798e-05
4.88388e-05
4.92928e-05
4.9573e-05
4.99503e-05
5.03415e-05
5.06224e-05
5.12598e-05
5.19465e-05
5.28761e-05
5.49395e-05
5.73206e-05
5.91008e-05
6.04306e-05
6.1104e-05
6.12171e-05
6.00886e-05
5.92028e-05
5.96341e-05
6.17419e-05
6.88022e-05
7.69341e-05
8.16187e-05
8.43044e-05
8.77591e-05
9.06036e-05
9.22854e-05
9.43071e-05
9.7458e-05
0.000101305
0.000104838
0.000106543
0.000107739
0.000110229
0.000113953
0.000117462
0.000119098
0.000116769
0.000107099
0.000101927
0.000103543
0.000111228
0.000118095
0.000125813
0.000137932
0.000161825
0.000203313
0.000211306
0.000173408
0.000151013
0.000139665
0.000133256
0.000131187
0.000130922
0.000128749
0.000135184
0.000132109
0.000130104
0.000140226
0.000144357
0.000154914
0.000163199
0.000174967
0.000181069
0.000180478
0.000181289
0.000189511
0.000202773
0.000223107
0.000236587
0.000243225
0.000245215
0.000247638
0.000255564
0.000269592
0.000297863
0.000334886
0.000354661
0.000366241
0.000373269
0.000376151
0.000379386
0.000399433
0.000461176
0.000485558
0.000467886
0.000486473
0.000522197
0.000557085
0.000599036
0.000627801
0.000660669
0.000724059
0.000617735
0.00050155
0.000460239
0.000508183
0.000564559
0.000548862
0.000511515
0.00051093
0.000533385
0.000531306
0.000550106
0.000570262
0.000589026
6.79284e-05
5.84395e-05
6.87698e-05
6.88901e-05
6.33707e-05
5.45555e-05
4.54928e-05
3.81093e-05
3.26795e-05
2.93374e-05
2.73104e-05
2.6179e-05
2.56286e-05
2.53922e-05
2.53867e-05
2.54726e-05
2.5519e-05
2.54871e-05
2.55105e-05
2.53261e-05
2.47846e-05
2.48651e-05
2.52357e-05
2.61197e-05
2.71152e-05
2.91064e-05
3.18699e-05
3.4044e-05
4.07681e-05
5.25952e-05
6.85442e-05
0.000101136
0.000112752
0.000110653
0.000111952
0.000114768
0.000115367
0.000116278
0.00011459
0.000109559
0.000103719
9.7104e-05
8.80493e-05
7.98924e-05
7.1637e-05
6.20128e-05
5.49821e-05
4.90502e-05
4.45756e-05
4.18961e-05
4.05446e-05
4.01937e-05
4.03394e-05
4.06799e-05
4.12175e-05
4.17375e-05
4.21455e-05
4.25194e-05
4.28111e-05
4.29651e-05
4.30725e-05
4.31921e-05
4.31964e-05
4.2922e-05
4.25195e-05
4.21535e-05
4.19322e-05
4.18251e-05
4.15661e-05
4.12297e-05
4.13308e-05
4.16745e-05
4.21485e-05
4.28079e-05
4.36091e-05
4.46523e-05
4.55994e-05
4.61998e-05
4.66898e-05
4.71958e-05
4.72362e-05
4.71118e-05
4.70422e-05
4.72643e-05
4.7746e-05
4.83319e-05
4.87272e-05
4.90139e-05
4.93573e-05
4.94811e-05
4.89181e-05
4.80507e-05
4.82073e-05
4.88807e-05
5.19769e-05
5.88436e-05
6.27954e-05
6.37567e-05
6.55847e-05
6.84085e-05
6.98524e-05
7.11208e-05
7.29893e-05
7.68723e-05
8.1464e-05
8.31929e-05
8.26124e-05
8.14367e-05
8.06525e-05
8.08129e-05
8.3867e-05
8.8718e-05
9.07045e-05
9.04646e-05
9.32488e-05
0.000105299
0.000113603
0.000119725
0.000134683
0.000169378
0.000200685
0.000184469
0.000145158
0.000131112
0.000117158
0.000111913
0.000111151
0.000112606
0.000115931
0.000125829
0.000127749
0.000123226
0.000132389
0.000133805
0.000136759
0.000137207
0.000147667
0.000163981
0.000163258
0.000158211
0.000157892
0.000163808
0.00017652
0.00018558
0.000193511
0.000197791
0.000198052
0.000199058
0.00020659
0.000219698
0.000246355
0.000281569
0.00030035
0.000316837
0.000330148
0.000332531
0.00035395
0.000400825
0.000424639
0.000409248
0.000405068
0.000430921
0.000471131
0.000537354
0.000598428
0.000657346
0.000636349
0.000526413
0.000465812
0.000435262
0.000444054
0.000453645
0.000513603
0.000467459
0.000481815
0.000489763
0.00048114
0.000480792
0.000491327
0.000500893
8.89875e-05
8.72149e-05
8.46616e-05
7.23229e-05
5.42458e-05
3.97055e-05
3.17788e-05
2.77902e-05
2.57656e-05
2.47834e-05
2.43505e-05
2.4343e-05
2.45472e-05
2.4853e-05
2.54168e-05
2.57382e-05
2.58508e-05
2.58751e-05
2.57373e-05
2.51399e-05
2.4216e-05
2.40067e-05
2.45966e-05
2.54925e-05
2.60612e-05
2.68434e-05
2.87041e-05
3.53056e-05
4.91277e-05
9.30374e-05
0.000108948
0.000107813
0.000106933
0.000103144
0.000100534
9.7134e-05
9.40058e-05
8.81677e-05
8.25008e-05
7.68774e-05
7.00968e-05
6.33686e-05
5.56006e-05
4.96757e-05
4.50107e-05
4.0803e-05
3.89505e-05
3.83313e-05
3.83741e-05
3.88256e-05
3.94648e-05
4.02445e-05
4.08111e-05
4.12984e-05
4.17543e-05
4.21801e-05
4.25238e-05
4.28118e-05
4.30436e-05
4.31044e-05
4.3115e-05
4.32652e-05
4.34167e-05
4.33174e-05
4.30817e-05
4.26728e-05
4.22749e-05
4.19464e-05
4.1582e-05
4.08075e-05
4.04618e-05
4.032e-05
4.03474e-05
4.06915e-05
4.14509e-05
4.26483e-05
4.38098e-05
4.48827e-05
4.54126e-05
4.60815e-05
4.63251e-05
4.61026e-05
4.55728e-05
4.535e-05
4.56077e-05
4.58428e-05
4.60399e-05
4.60034e-05
4.60116e-05
4.60379e-05
4.54978e-05
4.46408e-05
4.4586e-05
4.49292e-05
4.60991e-05
5.06624e-05
5.46561e-05
5.49629e-05
5.53381e-05
5.72938e-05
5.79687e-05
5.81581e-05
5.90139e-05
6.21984e-05
6.70131e-05
6.93277e-05
6.95259e-05
6.83345e-05
6.55652e-05
6.39967e-05
6.46549e-05
6.80456e-05
7.02171e-05
7.20706e-05
7.89086e-05
9.97053e-05
0.000112749
0.000120187
0.000135863
0.000171516
0.000190089
0.000162696
0.0001332
0.000121216
0.000107727
0.000103944
0.00010294
0.000101366
0.000101919
0.000112976
0.000123832
0.000119288
0.000127828
0.000129596
0.000127305
0.000118457
0.000114272
0.000136752
0.000150284
0.00014764
0.000143574
0.000145448
0.000156071
0.000164621
0.000169838
0.000174192
0.000176782
0.000177183
0.000181733
0.000194009
0.000205438
0.00023853
0.000258858
0.000281064
0.000304784
0.000304144
0.000327743
0.000355995
0.000389381
0.000403678
0.000384282
0.000386539
0.000428308
0.000498644
0.000575336
0.000650065
0.00060451
0.000518043
0.000477632
0.000451321
0.000445442
0.000420508
0.000431004
0.000420266
0.000461304
0.000451325
0.000447949
0.000431819
0.000434383
0.000431004
0.000110031
0.000109134
8.80992e-05
5.70281e-05
3.81514e-05
3.00669e-05
2.69198e-05
2.54517e-05
2.46311e-05
2.46715e-05
2.5098e-05
2.65678e-05
2.78334e-05
2.85826e-05
2.92603e-05
2.93168e-05
2.92183e-05
2.86668e-05
2.74033e-05
2.64436e-05
2.57431e-05
2.5056e-05
2.50167e-05
2.5304e-05
2.56223e-05
2.74723e-05
3.31536e-05
5.41595e-05
9.52369e-05
0.000106745
0.000104216
9.68723e-05
8.92506e-05
8.35632e-05
7.85943e-05
7.44997e-05
6.98098e-05
6.4608e-05
5.86615e-05
5.3422e-05
4.80991e-05
4.39666e-05
3.97222e-05
3.75212e-05
3.6609e-05
3.64625e-05
3.69716e-05
3.77912e-05
3.88792e-05
3.95511e-05
4.02242e-05
4.07207e-05
4.10683e-05
4.13239e-05
4.15033e-05
4.15332e-05
4.14691e-05
4.14847e-05
4.15361e-05
4.14111e-05
4.12354e-05
4.11992e-05
4.13888e-05
4.16152e-05
4.20271e-05
4.24725e-05
4.27548e-05
4.2621e-05
4.25842e-05
4.2035e-05
4.11703e-05
4.04276e-05
3.98457e-05
3.93505e-05
3.90158e-05
3.95326e-05
4.05854e-05
4.2314e-05
4.31835e-05
4.39762e-05
4.46908e-05
4.50254e-05
4.49424e-05
4.41702e-05
4.39659e-05
4.40426e-05
4.41241e-05
4.40805e-05
4.37844e-05
4.40568e-05
4.41673e-05
4.37875e-05
4.338e-05
4.33366e-05
4.36279e-05
4.55416e-05
4.92322e-05
4.97792e-05
4.99099e-05
5.1109e-05
5.18306e-05
5.16034e-05
5.16873e-05
5.42808e-05
5.91222e-05
6.16542e-05
6.1982e-05
6.11111e-05
5.89711e-05
5.81048e-05
5.86837e-05
6.05114e-05
6.29738e-05
6.60049e-05
7.51416e-05
9.71606e-05
0.000112946
0.000121292
0.000136644
0.000171612
0.000174506
0.000147566
0.000121756
0.000111399
0.000104697
0.000100466
9.78973e-05
9.4635e-05
9.5635e-05
9.90465e-05
0.000109709
0.000110242
0.000122092
0.000125066
0.000122655
0.000116233
0.00010634
0.000112706
0.000133879
0.000138404
0.000137817
0.000136603
0.000145055
0.000156542
0.000161189
0.000163796
0.0001653
0.000164973
0.000167138
0.000178145
0.000193676
0.000215298
0.000231251
0.000254746
0.000285809
0.000283096
0.000296201
0.00031663
0.000365372
0.000392847
0.000365269
0.000360187
0.000404321
0.000473591
0.000556208
0.000618618
0.000572229
0.000514895
0.000502909
0.000490335
0.000468931
0.000405357
0.000399379
0.000390995
0.00042927
0.000424408
0.000421963
0.000405946
0.00039364
0.000379313
0.000129179
0.000118694
7.47629e-05
4.3663e-05
3.09476e-05
2.72515e-05
2.58464e-05
2.56771e-05
2.60221e-05
2.7125e-05
2.90832e-05
3.13383e-05
3.26592e-05
3.36064e-05
3.45479e-05
3.46116e-05
3.42571e-05
3.3109e-05
3.15047e-05
3.04965e-05
2.9502e-05
2.77579e-05
2.7313e-05
2.80701e-05
3.08625e-05
4.21992e-05
7.30339e-05
9.4741e-05
9.96728e-05
9.89645e-05
8.7665e-05
7.64197e-05
7.09553e-05
6.58602e-05
6.11533e-05
5.67756e-05
5.24732e-05
4.81667e-05
4.33233e-05
4.00023e-05
3.71134e-05
3.52961e-05
3.45743e-05
3.46201e-05
3.53178e-05
3.64907e-05
3.76264e-05
3.8428e-05
3.90671e-05
3.94645e-05
3.97174e-05
3.97239e-05
3.95135e-05
3.91745e-05
3.88127e-05
3.85456e-05
3.85498e-05
3.87086e-05
3.90823e-05
3.95522e-05
3.95468e-05
3.93408e-05
3.95776e-05
3.97367e-05
4.00746e-05
4.04243e-05
4.11002e-05
4.20361e-05
4.27931e-05
4.31855e-05
4.32951e-05
4.26163e-05
4.11307e-05
3.96112e-05
3.83782e-05
3.74581e-05
3.70167e-05
3.7536e-05
3.86305e-05
3.96554e-05
4.05311e-05
4.1115e-05
4.15125e-05
4.16335e-05
4.12269e-05
4.1216e-05
4.13252e-05
4.13282e-05
4.11396e-05
4.13204e-05
4.18809e-05
4.23099e-05
4.1919e-05
4.1662e-05
4.18239e-05
4.20395e-05
4.39834e-05
4.50648e-05
4.55351e-05
4.61034e-05
4.75204e-05
4.82862e-05
4.84097e-05
4.95655e-05
5.36966e-05
5.63957e-05
5.73458e-05
5.72017e-05
5.55914e-05
5.4694e-05
5.50918e-05
5.66738e-05
5.96424e-05
6.29304e-05
7.28094e-05
9.55726e-05
0.000111968
0.000122057
0.00013711
0.000168985
0.00016615
0.000134502
0.000111657
0.000109255
0.000102271
9.58793e-05
9.1826e-05
9.09584e-05
9.01766e-05
9.05931e-05
9.49346e-05
9.38299e-05
0.00010308
0.000111697
0.000109511
0.00011287
0.000103449
0.000102828
0.000122324
0.000130037
0.00013081
0.000128133
0.000134618
0.000146722
0.000156824
0.000163287
0.000165034
0.000161893
0.000162754
0.000172287
0.000187623
0.000211198
0.000213126
0.000229801
0.000271118
0.000283699
0.000263275
0.000280082
0.00035435
0.000394554
0.000346573
0.000339489
0.000388595
0.000456144
0.000538453
0.000551245
0.000509459
0.000532819
0.000567808
0.000552882
0.000483964
0.000407196
0.000379867
0.000360233
0.000369783
0.000387332
0.00039495
0.000379164
0.000368117
0.000350576
0.000144294
0.000120373
6.59107e-05
3.62077e-05
2.84391e-05
2.65974e-05
2.65485e-05
2.74644e-05
2.96736e-05
3.22068e-05
3.46249e-05
3.65817e-05
3.81463e-05
3.93888e-05
4.05078e-05
4.14954e-05
4.24519e-05
4.28805e-05
4.25172e-05
4.17403e-05
4.00974e-05
3.87539e-05
3.99737e-05
4.7381e-05
6.29011e-05
7.87478e-05
8.89033e-05
9.16475e-05
9.02036e-05
7.70224e-05
6.7651e-05
6.09508e-05
5.62338e-05
5.1541e-05
4.79069e-05
4.41375e-05
4.05626e-05
3.78574e-05
3.51215e-05
3.35236e-05
3.28664e-05
3.28714e-05
3.3489e-05
3.47098e-05
3.6033e-05
3.71958e-05
3.79331e-05
3.83463e-05
3.85288e-05
3.81404e-05
3.70372e-05
3.57199e-05
3.50318e-05
3.4905e-05
3.505e-05
3.53764e-05
3.56281e-05
3.58988e-05
3.62103e-05
3.68091e-05
3.75176e-05
3.83609e-05
3.89307e-05
3.93021e-05
3.97293e-05
3.99884e-05
4.03546e-05
4.08599e-05
4.16814e-05
4.3156e-05
4.38411e-05
4.40918e-05
4.39428e-05
4.24823e-05
3.95921e-05
3.73185e-05
3.59689e-05
3.52798e-05
3.52672e-05
3.59243e-05
3.69249e-05
3.7562e-05
3.78893e-05
3.81499e-05
3.79193e-05
3.77604e-05
3.78153e-05
3.80115e-05
3.77648e-05
3.75673e-05
3.8069e-05
3.93298e-05
3.99396e-05
3.97814e-05
3.98515e-05
3.99146e-05
4.0425e-05
4.19313e-05
4.30792e-05
4.3485e-05
4.42261e-05
4.53025e-05
4.55435e-05
4.56772e-05
4.66453e-05
5.12066e-05
5.38035e-05
5.3706e-05
5.2429e-05
5.17311e-05
5.22883e-05
5.41498e-05
5.76448e-05
6.10191e-05
7.06686e-05
9.31935e-05
0.000109425
0.000123648
0.00013893
0.000164742
0.000158632
0.000124907
0.000107881
0.000108402
9.91651e-05
9.31727e-05
8.97119e-05
8.862e-05
8.82077e-05
8.65335e-05
9.07209e-05
9.01668e-05
9.19475e-05
0.000103607
0.000102368
0.000106674
0.000102817
9.65091e-05
0.000107332
0.00012257
0.00012439
0.000119433
0.000121736
0.000130719
0.000146831
0.000161554
0.000165556
0.000158729
0.000160238
0.000167344
0.000180117
0.000208293
0.00020116
0.000215455
0.000253053
0.000291461
0.000263942
0.000276185
0.000352823
0.000388028
0.000332696
0.000322156
0.00037553
0.000437956
0.000519027
0.00049489
0.000494596
0.000603347
0.000593916
0.000547604
0.000480304
0.000406087
0.000365216
0.000340586
0.000343938
0.000333646
0.000347924
0.000331018
0.000331671
0.00033634
0.00015475
0.000114567
5.44461e-05
3.12622e-05
2.74339e-05
2.71505e-05
2.85414e-05
3.14156e-05
3.44186e-05
3.70114e-05
3.96157e-05
4.23301e-05
4.39775e-05
4.4956e-05
4.65262e-05
4.81802e-05
5.00443e-05
5.18798e-05
5.32325e-05
5.47035e-05
5.65352e-05
5.92461e-05
6.34808e-05
6.97024e-05
7.60185e-05
8.1071e-05
8.33528e-05
7.99868e-05
6.77981e-05
5.88639e-05
5.34987e-05
4.8871e-05
4.50449e-05
4.11314e-05
3.84108e-05
3.60566e-05
3.38757e-05
3.25153e-05
3.15631e-05
3.13864e-05
3.16614e-05
3.26412e-05
3.3905e-05
3.55715e-05
3.66601e-05
3.72097e-05
3.74777e-05
3.72366e-05
3.60381e-05
3.41012e-05
3.3194e-05
3.2923e-05
3.29742e-05
3.3216e-05
3.37978e-05
3.47437e-05
3.53644e-05
3.57015e-05
3.59122e-05
3.61619e-05
3.66884e-05
3.745e-05
3.82757e-05
3.91538e-05
3.97827e-05
4.02519e-05
4.05515e-05
4.06984e-05
4.08478e-05
4.12978e-05
4.28354e-05
4.39001e-05
4.43302e-05
4.38997e-05
4.24064e-05
3.86524e-05
3.6161e-05
3.49721e-05
3.45472e-05
3.461e-05
3.53946e-05
3.63152e-05
3.66621e-05
3.69865e-05
3.71546e-05
3.69029e-05
3.6477e-05
3.64625e-05
3.61851e-05
3.54811e-05
3.53163e-05
3.57702e-05
3.64444e-05
3.67586e-05
3.70873e-05
3.74172e-05
3.79778e-05
3.93943e-05
4.08021e-05
4.13489e-05
4.16491e-05
4.22501e-05
4.21602e-05
4.18553e-05
4.25337e-05
4.52296e-05
5.02542e-05
5.08638e-05
5.01003e-05
4.86546e-05
4.86382e-05
5.02659e-05
5.49181e-05
5.89222e-05
6.7734e-05
9.03919e-05
0.0001056
0.000123443
0.000140142
0.000159391
0.000149705
0.000117758
0.000109206
0.000107647
0.000100119
9.33994e-05
8.66774e-05
8.2323e-05
8.23686e-05
8.23217e-05
8.38094e-05
8.75898e-05
8.9994e-05
9.54351e-05
9.34181e-05
9.80007e-05
0.000100698
9.43167e-05
0.000100145
0.00011197
0.000117062
0.000117871
0.000116353
0.000118558
0.000130615
0.000151991
0.000162109
0.000156099
0.000159833
0.000163189
0.00016609
0.000199886
0.000196806
0.000205307
0.000233466
0.000287011
0.000266795
0.000289297
0.000366849
0.000363717
0.000313985
0.000311802
0.000362518
0.000417026
0.000493013
0.000471366
0.000499907
0.000567616
0.000526404
0.000504237
0.00047756
0.000400727
0.000344689
0.000328829
0.000329628
0.000307859
0.000307594
0.000299447
0.000307404
0.000325927
0.000160893
0.000110005
4.88856e-05
2.95643e-05
2.7543e-05
2.83397e-05
3.09162e-05
3.42756e-05
3.75038e-05
4.05994e-05
4.29088e-05
4.47909e-05
4.69758e-05
4.88869e-05
5.03465e-05
5.20424e-05
5.39449e-05
5.58206e-05
5.76875e-05
5.97001e-05
6.19291e-05
6.45782e-05
6.76429e-05
7.1028e-05
7.34866e-05
7.44534e-05
6.86774e-05
5.96236e-05
5.21322e-05
4.66637e-05
4.3108e-05
3.96488e-05
3.68713e-05
3.43549e-05
3.27381e-05
3.15293e-05
3.06212e-05
3.03006e-05
3.03062e-05
3.08763e-05
3.17844e-05
3.31137e-05
3.48307e-05
3.59474e-05
3.64951e-05
3.67067e-05
3.63476e-05
3.5115e-05
3.35668e-05
3.24796e-05
3.20617e-05
3.20941e-05
3.23121e-05
3.26589e-05
3.33102e-05
3.45038e-05
3.59286e-05
3.72573e-05
3.79588e-05
3.77781e-05
3.76086e-05
3.76876e-05
3.81531e-05
3.8976e-05
3.95806e-05
4.03085e-05
4.0738e-05
4.09081e-05
4.07539e-05
4.03204e-05
4.03836e-05
4.16312e-05
4.31214e-05
4.35429e-05
4.32407e-05
4.10402e-05
3.75211e-05
3.5267e-05
3.45571e-05
3.44628e-05
3.49424e-05
3.60084e-05
3.6493e-05
3.65676e-05
3.67532e-05
3.67746e-05
3.63119e-05
3.6101e-05
3.57552e-05
3.49962e-05
3.46257e-05
3.46019e-05
3.49879e-05
3.52191e-05
3.52917e-05
3.55078e-05
3.58732e-05
3.6684e-05
3.8668e-05
3.94348e-05
3.94585e-05
3.95875e-05
3.97635e-05
3.94203e-05
4.05007e-05
4.27271e-05
4.70083e-05
4.76886e-05
4.69512e-05
4.52287e-05
4.52725e-05
4.64418e-05
5.08631e-05
5.57394e-05
6.45243e-05
8.66346e-05
0.000100963
0.000120158
0.000139346
0.000155303
0.000145416
0.000115985
0.000110342
0.000110973
0.000105489
9.5203e-05
8.35823e-05
7.90508e-05
7.91193e-05
7.89335e-05
7.88041e-05
8.32417e-05
8.96256e-05
9.03259e-05
8.46103e-05
8.57479e-05
9.32386e-05
9.11844e-05
9.73906e-05
0.000107701
0.000112578
0.000116329
0.000114499
0.000113808
0.000119064
0.000132592
0.000147821
0.00014642
0.00015499
0.000155967
0.000153797
0.000190349
0.000190424
0.000195537
0.000220267
0.000275573
0.000260359
0.000293441
0.000354321
0.000329468
0.000295985
0.00030524
0.000348654
0.000398116
0.000462946
0.000467559
0.000514504
0.00050589
0.000456985
0.000481313
0.000441836
0.00037724
0.000336212
0.000321011
0.000313776
0.000296549
0.000295417
0.000287243
0.000294581
0.000313086
0.00016616
0.000109012
4.73123e-05
2.95975e-05
2.82815e-05
2.97253e-05
3.31415e-05
3.70895e-05
4.03238e-05
4.28052e-05
4.47565e-05
4.64583e-05
4.85909e-05
5.08998e-05
5.22324e-05
5.34338e-05
5.49254e-05
5.64289e-05
5.79074e-05
5.95223e-05
6.13378e-05
6.34277e-05
6.51504e-05
6.60155e-05
6.34546e-05
5.80934e-05
5.21856e-05
4.62623e-05
4.16694e-05
3.79639e-05
3.55964e-05
3.32101e-05
3.1589e-05
3.02475e-05
2.95593e-05
2.92594e-05
2.92059e-05
2.94681e-05
3.00295e-05
3.08716e-05
3.20211e-05
3.35854e-05
3.50531e-05
3.57366e-05
3.59673e-05
3.57989e-05
3.51862e-05
3.4158e-05
3.32522e-05
3.26595e-05
3.21974e-05
3.21492e-05
3.23569e-05
3.27009e-05
3.32834e-05
3.42797e-05
3.5884e-05
3.79134e-05
4.01038e-05
4.14615e-05
4.16311e-05
4.07416e-05
3.97356e-05
3.92847e-05
3.92964e-05
3.9455e-05
3.98308e-05
4.02524e-05
4.05457e-05
3.99792e-05
3.90594e-05
3.83148e-05
3.90755e-05
4.05422e-05
4.14707e-05
4.14235e-05
3.9466e-05
3.65491e-05
3.49334e-05
3.4487e-05
3.46372e-05
3.55666e-05
3.66007e-05
3.68085e-05
3.68272e-05
3.69381e-05
3.64075e-05
3.59936e-05
3.56785e-05
3.4852e-05
3.43265e-05
3.40373e-05
3.41798e-05
3.44349e-05
3.45635e-05
3.49114e-05
3.50922e-05
3.52423e-05
3.61405e-05
3.69958e-05
3.72347e-05
3.73915e-05
3.81703e-05
3.82977e-05
3.9382e-05
4.06147e-05
4.12201e-05
4.2351e-05
4.20948e-05