/*--------------------------------*- C++ -*----------------------------------*\
| =========                 |                                                 |
| \\      /  F ield         | OpenFOAM: The Open Source CFD Toolbox           |
|  \\    /   O peration     | Version:  dev                                   |
|   \\  /    A nd           | Web:      http://www.openfoam.org               |
|    \\/     M anipulation  |                                                 |
\*---------------------------------------------------------------------------*/
FoamFile
{
    version     2.0;
    format      ascii;
    class       volScalarField;
    object      p;
    location    "9.162";
}
// * * * * * * * * * * * * * * * * * * * * * * * * * * * * * * * * * * * * * //

dimensions      [1 -1 -2 0 0 0 0];

internalField   nonuniform List<scalar> 
12225
(
103713
103709
103678
103629
103545
103443
103299
103145
102947
102743
102493
102250
101945
101666
101300
100964
100495
99925.4
103709
103708
103677
103628
103544
103442
103298
103144
102946
102742
102492
102249
101944
101662
101297
100957
100502
99956.6
103706
103705
103674
103625
103540
103438
103294
103140
102943
102737
102491
102243
101947
101654
101306
100950
100523
100026
103700
103700
103668
103619
103533
103431
103288
103133
102937
102731
102488
102236
101948
101650
101316
100960
100557
100099
103689
103691
103659
103608
103523
103420
103278
103122
102928
102721
102481
102228
101946
101649
101327
100978
100608
100236
103675
103676
103643
103593
103507
103403
103263
103106
102914
102707
102470
102217
101942
101650
101339
101009
100672
100328
103651
103654
103622
103569
103485
103379
103241
103082
102894
102685
102454
102203
101935
101649
101352
101042
100739
100413
103625
103628
103597
103542
103459
103351
103216
103055
102870
102662
102435
102187
101926
101647
101361
101068
100779
100479
103601
103601
103570
103513
103431
103322
103188
103026
102844
102637
102414
102169
101914
101643
101368
101086
100810
100530
103566
103564
103534
103475
103394
103283
103150
102988
102808
102603
102384
102144
101896
101633
101369
101101
100837
100575
103518
103515
103486
103425
103343
103231
103098
102937
102759
102556
102341
102107
101867
101614
101362
101106
100857
100612
103460
103452
103422
103359
103275
103162
103028
102868
102691
102492
102281
102055
101822
101581
101340
101098
100863
100634
103375
103368
103335
103271
103183
103069
102934
102775
102599
102405
102198
101979
101754
101525
101295
101068
100846
100633
103262
103257
103221
103153
103062
102945
102808
102650
102475
102284
102082
101871
101655
101436
101218
101004
100796
100595
103118
103112
103070
102998
102901
102782
102641
102483
102308
102121
101923
101719
101511
101302
101095
100893
100697
100508
102942
102926
102875
102796
102692
102567
102423
102262
102087
101902
101708
101510
101309
101109
100911
100719
100532
100354
102708
102687
102626
102537
102425
102293
102143
101979
101802
101617
101425
101230
101035
100841
100651
100466
100287
100116
102462
102416
102341
102241
102119
101979
101822
101652
101472
101285
101093
100899
100706
100515
100329
100148
99974.7
99808.3
102206
102150
102066
101958
101828
101680
101516
101340
101155
100964
100770
100575
100382
100192
100007
99828.8
99657.1
99493.1
101971
101919
101832
101718
101581
101426
101256
101074
100884
100689
100492
100295
100101
99910.4
99725.7
99547.5
99376.5
99213.2
101798
101736
101643
101522
101380
101218
101043
100856
100661
100463
100263
100064
99867.5
99676
99490.5
99311.9
99140.9
98977.6
101658
101592
101493
101368
101220
101054
100873
100682
100484
100282
100080
99878.3
99680.6
99487.8
99301.3
99122.1
98950.6
98787.2
101547
101480
101378
101249
101097
100927
100743
100548
100347
100143
99937.6
99734.5
99535.2
99341.3
99154
98974
98802
98638.3
101470
101398
101292
101160
101005
100832
100645
100447
100244
100037
99830.3
99625.8
99425.3
99230.5
99042.4
98861.9
98689.5
98525.4
101407
101336
101230
101095
100938
100762
100573
100374
100168
99960.1
99751.9
99546.1
99344.7
99149.2
98960.5
98779.5
98606.8
98442.5
101367
101294
101186
101049
100890
100713
100522
100322
100115
99905.6
99696.4
99489.8
99287.7
99091.6
98902.5
98721.2
98548.2
98383.7
101339
101266
101156
101019
100859
100680
100488
100287
100079
99868.9
99658.9
99451.7
99249.1
99052.7
98863.3
98681.8
98508.6
98343.9
101324
101249
101138
101000
100839
100660
100467
100265
100057
99845.8
99635.4
99427.7
99224.8
99028.2
98838.7
98657
98483.7
98318.9
101317
101240
101128
100989
100828
100648
100455
100252
100044
99832.9
99622.2
99414.3
99211.3
99014.7
98824.9
98643.2
98469.8
98305.1
101314
101238
101125
100985
100823
100644
100450
100247
100039
99827.7
99616.9
99408.9
99205.8
99009.1
98819.3
98637.5
98464.2
98299.5
90501.1
90503
90507.2
90513.7
90522.7
90534.4
90548.2
90564.5
90583.2
90604.5
90628.5
90655.5
90685.7
90719.3
90756.4
90797.3
90842.1
90890.8
90943.7
91000.8
91062.2
91128.1
91198.5
91273.4
91353.1
91437.5
91526.6
91620.6
91720
91824.8
91934.3
92049.4
92169.6
92293.9
92424.4
92562.6
92706.7
92855.3
93008.3
93165.6
93326.5
93494.9
93670.7
93853.4
94041.4
94234
94431.1
94632.7
94838.9
95049.9
95265.8
95486.5
95712.1
95942.1
96176.3
96414.7
96656.8
96902.3
97150.7
97401.7
97654.8
97909.6
98165.8
98423
98680.8
98939.5
99197.7
99455.7
99713.4
99970.5
100227
100483
100738
100993
101248
101502
101756
102009
102262
102514
102766
103018
103269
103519
103768
104016
104262
104506
104747
104983
105213
105436
105650
105854
106045
106223
106386
106533
106663
106774
106865
106937
106989
107022
107036
107034
107017
106988
106950
106905
106857
106809
106766
106734
106714
106706
106719
106761
106842
106963
107128
107336
107592
107897
108248
108641
109071
109537
110033
110555
111110
111696
112271
112879
113516
114166
114831
115481
116136
116805
117492
118207
118947
119721
120528
121372
122249
123164
124112
125099
126129
127197
128322
129476
130666
131905
133136
134329
135538
136822
138112
139323
140471
141598
142685
143635
144378
144982
145536
145935
146161
146186
145974
145524
144529
143298
141894
140393
138747
137013
90534.5
90536.4
90540.6
90547
90556
90567.3
90581
90597
90615.5
90636.6
90660.6
90687.5
90717.7
90751.2
90788.3
90829.1
90873.7
90922.3
90975
91032
91093.3
91159
91229.4
91304.4
91384.1
91468.7
91558.2
91652.7
91752.2
91857.1
91966.5
92081.9
92203.4
92328.2
92456
92592
92737.3
92888.1
93043.1
93200.7
93357.5
93523.5
93697.2
93878.8
94066.3
94258.7
94455.6
94657.2
94863.5
95074.6
95290.7
95511.8
95738
95967.3
96201.5
96439.9
96682.1
96927.5
97175.9
97426.8
97679.8
97934.5
98190.6
98447.7
98705.5
98963.9
99222
99479.8
99737.8
99994.6
100251
100507
100762
101017
101271
101525
101778
102031
102284
102536
102787
103038
103288
103537
103785
104032
104277
104520
104759
104993
105222
105443
105655
105856
106045
106221
106382
106528
106655
106764
106854
106924
106975
107006
107019
107015
106997
106967
106929
106884
106835
106786
106742
106709
106690
106685
106699
106743
106824
106946
107110
107317
107571
107871
108217
108603
109026
109484
109973
110490
111037
111610
112187
112787
113417
114060
114718
115363
116012
116675
117358
118070
118805
119575
120377
121215
122084
122990
123928
124903
125921
126973
128085
129226
130402
131623
132840
134027
135238
136516
137801
139012
140175
141326
142419
143347
144074
144685
145218
145566
145766
145761
145524
145037
144108
142922
141552
140082
138466
136749
90601.5
90603.1
90607.1
90613.4
90621.8
90632.6
90645.7
90661.2
90679.4
90700.2
90724.1
90751
90781.3
90815.2
90851.9
90892.6
90937.2
90985.8
91038.5
91095.4
91156.7
91222.5
91292.9
91367.9
91448
91533.2
91623.2
91718.4
91819.3
91924.7
92034.1
92148.4
92271.4
92400
92533.6
92665.3
92801
92945.1
93096.8
93254.3
93415.7
93582.3
93754.8
93934
94119.4
94310.2
94506.2
94707.1
94913
95123.9
95339.7
95560.2
95784.9
96015.8
96250.5
96489.1
96731.1
96976.5
97224.7
97475.4
97728.1
97982.6
98238.5
98495.4
98753
99011
99269
99526.6
99784.1
100041
100297
100552
100807
101061
101315
101569
101821
102074
102325
102576
102826
103076
103324
103571
103817
104062
104304
104544
104780
105011
105235
105453
105661
105858
106044
106216
106373
106515
106639
106744
106830
106897
106944
106972
106982
106975
106955
106923
106884
106838
106790
106740
106694
106660
106642
106640
106658
106705
106787
106908
107069
107273
107521
107812
108148
108522
108931
109376
109851
110356
110887
111444
112019
112602
113216
113845
114489
115124
115763
116414
117086
117788
118515
119276
120068
120894
121748
122636
123553
124506
125498
126520
127604
128717
129867
131047
132228
133396
134611
135873
137133
138344
139542
140739
141836
142733
143443
144052
144534
144807
144949
144872
144602
144076
143233
142132
140824
139403
137842
136172
90701.7
90703.4
90707.1
90712.8
90720.7
90730.8
90743.3
90758.4
90776.2
90797
90820.7
90847.7
90877.6
90910.6
90948
90988.8
91033.3
91081.5
91134
91191
91252.4
91318.3
91388.9
91464.3
91544.3
91629.7
91721
91817
91918.3
92026
92140.5
92259.8
92373.5
92493.2
92620.3
92753.5
92891.6
93034.7
93183.8
93339
93499.8
93666.1
93838.1
94015.9
94199.5
94388.8
94583.4
94783.4
94988.6
95198.9
95414.3
95634.3
95859.5
96089.5
96323.7
96561.8
96803.5
97048.4
97296.2
97546.4
97798.6
98052.7
98308.1
98564.6
98821.8
99079.3
99337.3
99594.5
99851.2
100107
100363
100618
100872
101125
101378
101630
101882
102133
102384
102633
102881
103129
103374
103619
103862
104103
104341
104576
104807
105033
105252
105464
105667
105859
106039
106205
106357
106492
106610
106709
106790
106851
106894
106918
106924
106914
106889
106854
106812
106765
106717
106668
106622
106587
106570
106571
106593
106643
106726
106847
107005
107202
107441
107719
108039
108394
108785
109210
109664
110150
110664
111200
111766
112325
112918
113530
114149
114770
115396
116032
116689
117377
118092
118839
119611
120418
121250
122115
123005
123927
124882
125862
126899
127970
129085
130212
131339
132468
133688
134940
136152
137348
138591
139841
140943
141807
142494
143072
143494
143693
143741
143588
143265
142707
141947
140951
139731
138379
136895
135292
90836
90837.6
90841
90846.3
90853.6
90863.4
90875.8
90891.1
90909.2
90930.2
90954.3
90981.4
91011.3
91044.4
91080.8
91120.7
91164.2
91211.6
91263.3
91319.6
91380.6
91446
91516.4
91592.2
91673.3
91759.5
91850.7
91947.2
92052
92163.3
92269.4
92382.2
92497.5
92616.9
92741.4
92872.1
93008.7
93151
93298.7
93452.2
93611.5
93776.5
93947.1
94123.3
94305.3
94492.9
94686
94884.8
95089
95298.5
95513.1
95732.7
95957.3
96186.5
96419.9
96657.3
96898.2
97142.4
97389.3
97638.6
97889.9
98143.2
98398
98653.7
98910.1
99167.5
99424.6
99680.9
99937
100192
100447
100700
100953
101205
101457
101708
101958
102208
102456
102703
102949
103193
103436
103676
103915
104151
104384
104614
104838
105058
105270
105474
105669
105853
106025
106185
106330
106456
106566
106658
106731
106785
106822
106840
106842
106827
106799
106760
106715
106665
106615
106567
106522
106488
106471
106475
106501
106555
106639
106759
106911
107099
107323
107584
107882
108216
108584
108983
109413
109874
110365
110876
111426
111956
112536
113113
113700
114305
114914
115532
116172
116842
117541
118272
119021
119798
120597
121432
122293
123179
124088
125020
126001
127015
128079
129155
130221
131294
132514
133750
134908
136087
137364
138654
139753
140587
141229
141762
142098
142228
142176
141934
141559
141008
140324
139427
138314
137067
135683
134170
91004.8
91006.3
91009.6
91014.7
91022.2
91032.2
91045
91060.6
91078.9
91100.1
91123.9
91150.6
91180
91212.8
91247.5
91285.9
91328.2
91374.6
91425.4
91480.9
91541.3
91606.7
91677.3
91753.3
91834.3
91920.3
92012.3
92111.6
92216.2
92321.1
92426.2
92534.8
92647.8
92766
92889.4
93018.5
93153.3
93294
93440.3
93592.3
93749.9
93913.1
94081.8
94256.2
94436.3
94622.3
94814
95011.4
95214.4
95423
95636.3
95854.8
96078.2
96306.2
96538.4
96774.5
97014.2
97257
97502.5
97750.4
98000.5
98252.5
98506.1
98760.8
99016.4
99272.4
99528.2
99783.6
100039
100293
100546
100798
101050
101300
101549
101798
102046
102293
102539
102783
103026
103266
103504
103740
103973
104203
104429
104651
104869
105080
105284
105479
105664
105839
106001
106151
106286
106403
106504
106587
106652
106698
106726
106737
106733
106713
106681
106638
106590
106538
106486
106436
106392
106360
106344
106349
106378
106435
106519
106635
106781
106956
107162
107401
107676
107984
108323
108694
109095
109525
109987
110471
110995
111498
112056
112600
113157
113736
114325
114920
115539
116186
116864
117574
118303
119048
119807
120600
121425
122271
123128
124012
124931
125879
126883
127913
128923
129942
131135
132324
133424
134591
135894
137204
138284
139077
139659
140124
140362
140420
140264
139938
139519
139014
138417
137607
136621
135492
134232
132841
91209.2
91210.6
91213.7
91218.8
91226.5
91236.8
91249.8
91265.2
91282.9
91302.9
91325.2
91349.9
91377.1
91407.1
91441.3
91478.8
91520.3
91566
91616.2
91671.4
91731.7
91797
91867.4
91943.4
92025
92112.9
92206.5
92303.4
92401.9
92501.9
92604.8
92712
92823.9
92941
93063.6
93191.6
93325.2
93464.4
93609.1
93759.2
93914.8
94075.7
94242.2
94414.5
94592.7
94776.9
94966.8
95162.4
95363.4
95569.6
95781.3
95998
96219.5
96445.6
96675.9
96910.2
97148.1
97389
97632.6
97878.9
98127.3
98377.5
98629.2
98882.2
99136.8
99390.9
99645.1
99899.2
100153
100406
100657
100908
101157
101404
101651
101896
102141
102385
102628
102868
103107
103342
103575
103805
104031
104254
104472
104686
104894
105094
105288
105473
105647
105811
105962
106099
106222
106330
106419
106492
106548
106585
106603
106606
106594
106568
106531
106483
106430
106377
106323
106273
106229
106197
106182
106188
106218
106275
106358
106468
106604
106763
106949
107166
107414
107689
107997
108338
108708
109104
109533
109987
110475
110958
111475
111991
112519
113069
113635
114204
114799
115419
116071
116751
117455
118171
118890
119633
120413
121213
122010
122848
123707
124590
125530
126514
127468
128452
129589
130696
131730
132887
134203
135510
136562
137304
137814
138180
138299
138287
138038
137651
137211
136762
136250
135530
134671
133654
132532
131289
91448.9
91450.1
91453.2
91458.4
91466.2
91476.6
91488.9
91503
91518.9
91536.8
91556.7
91579
91604.2
91632.8
91665.4
91701.5
91741.5
91785.9
91835.3
91889.9
91949.5
92014.5
92085.8
92164.1
92246.5
92333.5
92423.7
92516.1
92610.5
92708.1
92809.7
92916.1
93027.2
93143.6
93265.2
93392.1
93524.2
93661.6
93804.1
93951.8
94104.8
94263.3
94427.4
94597.5
94773.6
94955.4
95142.8
95335.5
95533.7
95736.8
95945.3
96159.1
96377.8
96601.2
96828.9
97060.7
97296
97534.5
97775.9
98019.9
98266.2
98514.2
98763.5
99014.8
99266.5
99518.5
99770.7
100023
100275
100526
100775
101024
101270
101515
101758
101999
102240
102479
102718
102954
103187
103417
103643
103866
104084
104299
104508
104712
104909
105098
105280
105452
105614
105764
105902
106026
106136
106230
106308
106369
106413
106439
106448
106442
106421
106388
106345
106292
106234
106176
106121
106070
106026
105993
105978
105984
106014
106067
106150
106249
106373
106514
106680
106873
107089
107332
107606
107914
108249
108612
109005
109425
109877
110339
110805
111294
111794
112313
112853
113395
113961
114554
115174
115816
116485
117164
117845
118540
119270
120012
120747
121541
122340
123163
124044
124974
125861
126819
127886
128885
129863
131006
132311
133590
134610
135305
135735
135975
135959
135877
135572
135129
134693
134326
133887
133258
132499
131591
130606
129512
91724.3
91725.3
91728.3
91733.1
91740.7
91750.1
91761
91773.2
91787.2
91803.3
91822
91843.4
91867.7
91895.2
91926.2
91960.9
91999.8
92043.3
92091.5
92145
92204
92268.8
92339.5
92415.6
92495.8
92579.2
92665.4
92754.3
92846.5
92942.7
93043.4
93148.8
93259
93374.1
93494.1
93619.1
93749.1
93884.1
94024.1
94169.1
94319.3
94475.2
94636.7
94804
94976.8
95155.1
95338.5
95527.2
95721.2
95920.5
96125.5
96335.6
96550.9
96770.8
96995.2
97223.6
97455.6
97690.9
97929.3
98170.3
98413.6
98658.4
98904.6
99152.8
99401.8
99650.9
99900.4
100150
100399
100647
100894
101140
101384
101625
101864
102101
102337
102572
102804
103035
103261
103484
103703
103917
104127
104331
104531
104723
104909
105086
105254
105413
105560
105696
105819
105928
106023
106102
106167
106214
106246
106261
106258
106241
106212
106171
106120
106062
105999
105937
105878
105825
105779
105745
105728
105731
105759
105807
105883
105975
106081
106202
106348
106516
106699
106912
107148
107419
107720
108046
108402
108788
109203
109640
110060
110516
110988
111474
111986
112500
113036
113596
114182
114782
115405
116037
116676
117327
118009
118687
119359
120108
120847
121606
122438
123306
124124
125044
126029
126913
127843
128967
130243
131466
132451
133105
133466
133533
133426
133278
132906
132439
132038
131753
131372
130831
130168
129367
128512
127547
92034.6
92034.8
92037.4
92041.9
92048.3
92056.2
92065.6
92076.7
92089.9
92105.7
92124.1
92144.9
92168
92194.8
92225
92258.8
92296.8
92339.2
92386.4
92438.7
92496.1
92558.7
92626.3
92698.3
92774
92853.1
92935.7
93022
93112.3
93207
93306.1
93409.8
93518.1
93631.2
93748.9
93871.4
93998.7
94130.8
94267.7
94409.8
94557
94709.6
94867.6
95030.9
95199.2
95372.7
95551.4
95735.4
95924.2
96119.2
96319.8
96525.6
96736.4
96951.9
97171.9
97396
97623.9
97855.2
98089.7
98327.1
98566.1
98806.7
99048.8
99293.3
99537.8
99783.3
100029
100275
100521
100765
101009
101251
101492
101730
101965
102198
102428
102657
102883
103106
103325
103539
103749
103954
104154
104348
104535
104715
104888
105051
105206
105349
105481
105601
105708
105802
105881
105944
105992
106026
106043
106046
106033
106004
105965
105914
105855
105791
105723
105656
105593
105536
105488
105449
105429
105426
105447
105490
105554
105637
105725
105824
105948
106089
106243
106424
106623
106857
107125
107413
107728
108079
108458
108859
109249
109668
110108
110564
111042
111530
112032
112553
113099
113657
114234
114815
115407
116011
116643
117263
117872
118562
119243
119939
120721
121525
122280
123137
124033
124817
125696
126788
128017
129160
130096
130699
130992
130916
130772
130520
130086
129637
129288
129080
128747
128276
127707
127017
126288
125458
92379
92379
92380.9
92384.6
92390
92396.9
92405.4
92415.9
92428.8
92444
92461.3
92481.4
92505.1
92530.8
92559.9
92592.6
92629.4
92670.2
92715.5
92765.4
92819.8
92878.8
92942.2
93009.5
93080.8
93156
93235.3
93318.8
93406.7
93499
93595.7
93696.8
93802.4
93912.6
94027.4
94146.9
94271
94399.9
94533.5
94672
94815.3
94963.7
95117
95275.3
95438.3
95606.5
95780
95959.6
96142.4
96331.5
96526.3
96726.3
96931.3
97141.1
97355.5
97574.4
97797.2
98023.6
98253.6
98486.1
98720.3
98955.8
99192.9
99431.4
99671
99911.6
100153
100395
100636
100877
101116
101353
101589
101823
102054
102281
102506
102729
102947
103162
103372
103577
103777
103972
104160
104342
104517
104684
104842
104991
105130
105257
105373
105476
105567
105644
105706
105752
105784
105803
105805
105794
105770
105729
105677
105617
105548
105477
105403
105331
105263
105201
105148
105104
105076
105066
105076
105110
105159
105230
105300
105376
105476
105592
105719
105864
106032
106231
106464
106716
106991
107312
107645
108008
108374
108760
109165
109594
110037
110495
110956
111433
111938
112458
112990
113519
114060
114614
115191
115756
116300
116922
117546
118183
118913
119658
120356
121134
121937
122624
123444
124492
125654
126702
127565
128098
128303
128154
128009
127667
127206
126789
126506
126350
126058
125640
125147
124573
123977
123282
92757.9
92757.6
92758.9
92761.8
92766.3
92772.3
92779.9
92789.5
92801.2
92815.1
92831.5
92850.5
92872.2
92896.8
92924.3
92955.3
92990
93028.5
93071.1
93117.8
93168.7
93223.8
93283.1
93346.4
93414
93485.7
93561.8
93642.3
93727.1
93816.3
93909.7
94007.6
94109.9
94216.8
94328.2
94444.1
94564.5
94689.3
94818.7
94952.7
95091.3
95234.5
95382.3
95534.7
95691.8
95853.7
96020.3
96191.5
96370.3
96553.8
96742.2
96935.6
97133.9
97337
97544.7
97757.3
97973.4
98193.5
98417.3
98644.1
98873.1
99102.6
99333.1
99564.9
99798
100032
100268
100504
100740
100975
101209
101442
101672
101900
102125
102347
102565
102780
102991
103197
103397
103592
103782
103965
104142
104312
104473
104625
104768
104901
105024
105135
105233
105319
105392
105451
105496
105526
105541
105543
105531
105504
105466
105414
105349
105278
105200
105121
105041
104962
104886
104818
104759
104707
104669
104650
104645
104665
104700
104752
104806
104860
104934
105023
105120
105233
105370
105536
105737
105956
106198
106478
106774
107097
107433
107794
108165
108562
108974
109401
109820
110252
110716
111198
111689
112167
112648
113150
113669
114182
114663
115219
115792
116369
117042
117727
118365
119059
119778
120371
121117
122098
123170
124123
124900
125366
125486
125338
125125
124740
124290
123923
123736
123599
123318
122954
122532
122073
121610
121047
93170.5
93169.6
93170.1
93172
93175.3
93180.1
93186.6
93194.7
93204.9
93217.2
93231.5
93248.2
93267.6
93289.9
93315.2
93343.7
93375.5
93410.9
93450.1
93493.2
93540.4
93591.7
93647.2
93706.9
93770.9
93839.1
93911.8
93988.6
94069.8
94155.1
94244.8
94338.9
94437.4
94540.3
94647.5
94758.9
94874.6
94994.5
95118.7
95247.3
95380.2
95517.5
95659.1
95805.2
95955.9
96111.4
96271.6
96437
96608.1
96784.4
96965.7
97151.7
97342.4
97537.7
97737
97943.7
98151.1
98362.9
98578.8
98798
99019.8
99243.2
99467
99691.5
99917.1
100144
100371
100600
100829
101058
101286
101513
101737
101958
102176
102391
102602
102808
103010
103206
103397
103582
103760
103932
104095
104251
104399
104536
104663
104780
104886
104980
105060
105127
105183
105224
105251
105264
105262
105247
105219
105177
105125
105060
104983
104901
104812
104724
104635
104548
104464
104387
104319
104260
104210
104177
104157
104157
104174
104205
104242
104278
104324
104384
104451
104535
104642
104777
104944
105133
105340
105587
105850
106135
106442
106774
107117
107479
107859
108257
108641
109031
109454
109894
110346
110775
111197
111638
112092
112555
112984
113480
114010
114527
115133
115759
116335
116939
117580
118112
118756
119624
120589
121452
122149
122560
122643
122515
122226
121805
121374
121095
120974
120838
120557
120250
119894
119546
119204
118778
93615.2
93613.6
93613.1
93613.7
93615.5
93618.6
93623.1
93629.2
93636.9
93646.6
93658.4
93672.4
93688.9
93708
93730
93755
93783.3
93815.2
93850.7
93890
93933.2
93980.6
94032.1
94087.9
94147.9
94212.2
94280.6
94353.2
94430
94511
94596.3
94685.9
94779.7
94877.8
94980.1
95086.3
95196.5
95310.8
95429.3
95551.8
95678.5
95809.2
95944.2
96083.6
96227.5
96376
96529.2
96687.3
96850.6
97018.9
97192.4
97370.5
97552.9
97739.8
97931.1
98126.7
98325.7
98528.5
98735
98945
99158.1
99373.4
99589.8
99806.7
100024
100243
100461
100681
100902
101123
101343
101562
101779
101993
102204
102411
102613
102810
103002
103188
103368
103542
103709
103868
104018
104160
104292
104415
104526
104626
104715
104791
104854
104902
104939
104963
104972
104967
104948
104915
104871
104816
104748
104670
104580
104486
104387
104287
104188
104092
104000
103911
103832
103762
103700
103652
103614
103592
103586
103594
103610
103630
103650
103679
103717
103775
103855
103959
104092
104251
104432
104645
104877
105133
105411
105712
106027
106357
106705
107075
107437
107796
108177
108575
108984
109361
109724
110094
110475
110891
111282
111733
112218
112675
113214
113779
114296
114807
115381
115882
116407
117108
117953
118725
119346
119704
119790
119646
119341
118912
118533
118339
118253
118081
117816
117562
117272
117022
116782
116508
94090.4
94087.9
94086.2
94085.2
94084.9
94085.6
94087.7
94090.8
94095.3
94101.5
94109.6
94119.9
94132.5
94147.8
94165.7
94186.8
94211.1
94238.6
94269.9
94305
94344.1
94387.2
94434.4
94485.6
94541
94600.5
94664.1
94731.8
94803.6
94879.6
94959.7
95044.1
95132.6
95225.2
95321.7
95422
95526.3
95634.4
95746.5
95862.3
95982.2
96106
96233.6
96365.3
96501.7
96642.4
96787.9
96937.9
97093
97252.8
97417.4
97586.7
97760.2
97937.7
98119.5
98305.2
98494.1
98686.5
98882.8
99082.5
99285.6
99491.2
99698.2
99906
100115
100325
100535
100745
100956
101167
101378
101589
101798
102004
102205
102403
102596
102783
102965
103141
103309
103471
103625
103771
103908
104035
104152
104259
104355
104438
104509
104568
104613
104644
104662
104667
104659
104637
104601
104552
104491
104422
104338
104246
104144
104036
103926
103816
103706
103598
103495
103394
103300
103218
103141
103076
103020
102975
102944
102925
102918
102915
102911
102912
102927
102961
103013
103088
103193
103327
103484
103662
103865
104098
104350
104620
104905
105204
105528
105872
106221
106558
106899
107252
107609
107933
108236
108535
108851
109229
109587
109998
110437
110836
111314
111813
112268
112690
113213
113667
114081
114596
115308
115988
116509
116817
116902
116733
116452
116075
115807
115660
115562
115350
115118
114902
114700
114531
114387
114279
94594
94590.4
94587.1
94583.9
94580.8
94578
94576
94575.8
94576.5
94578.4
94581.9
94587.6
94595.2
94605.6
94618.7
94634.9
94654.4
94677.2
94703.6
94733.8
94767.8
94805.8
94848
94894.1
94944.2
94998.4
95056.6
95118.9
95185.1
95255.5
95330
95408.4
95490.9
95577.2
95667.3
95761
95858.6
95959.7
96064.6
96173.2
96285.6
96401.4
96520.8
96643.4
96772.6
96905.6
97042.9
97184.4
97330.5
97481.1
97636.3
97795.8
97959.4
98126.4
98297.3
98472.4
98650.8
98832.3
99017.4
99205.9
99398.1
99593
99789.3
99986.7
100185
100386
100587
100788
100988
101189
101390
101590
101789
101986
102179
102366
102549
102726
102897
103061
103218
103367
103509
103641
103764
103877
103979
104070
104149
104216
104270
104311
104339
104353
104353
104340
104315
104276
104223
104158
104082
103997
103899
103792
103676
103555
103435
103313
103192
103071
102956
102840
102730
102631
102539
102455
102381
102313
102256
102208
102174
102144
102115
102094
102091
102105
102132
102183
102263
102371
102502
102650
102827
103036
103267
103505
103761
104038
104345
104666
104996
105311
105613
105920
106225
106495
106738
106982
107254
107600
107924
108288
108689
109031
109446
109879
110267
110614
111084
111465
111767
112120
112686
113271
113665
113931
113990
113844
113603
113344
113194
113037
112903
112666
112461
112288
112205
112101
112062
112100
95124.3
95119.3
95113.8
95107.8
95100.9
95093.4
95086
95081.3
95077
95073.4
95071
95070.6
95072.4
95076.6
95083.8
95094.1
95107.8
95125.2
95146.1
95170.8
95199.2
95231.4
95267.6
95307.8
95351.9
95400.1
95452.2
95508.3
95568.5
95632.7
95700.8
95772.8
95848.5
95928
96011
96097.7
96187.8
96281.4
96378.5
96479.4
96583.9
96691.8
96804
96921
97039.1
97162.1
97289.6
97421.7
97558.1
97698.5
97843.3
97992.2
98144.8
98300.6
98459.9
98623.7
98791.4
98961.6
99134.9
99311.4
99491.9
99675.4
99860.2
100046
100233
100423
100615
100806
100996
101186
101376
101565
101754
101939
102121
102298
102470
102636
102795
102948
103093
103230
103358
103478
103586
103685
103772
103847
103910
103961
103999
104023
104034
104032
104015
103985
103943
103887
103818
103737
103646
103545
103433
103311
103183
103048
102916
102783
102648
102515
102385
102254
102127
102008
101899
101796
101702
101612
101531
101455
101391
101333
101277
101238
101220
101219
101226
101255
101310
101391
101496
101618
101773
101955
102163
102373
102609
102875
103166
103463
103758
104041
104301
104564
104825
105056
105252
105459
105703
106013
106304
106621
106980
107271
107621
107989
108308
108603
109007
109312
109497
109713
110131
110605
110881
111102
111132
111028
110850
110735
110656
110461
110284
110037
109856
109735
109764
109751
109813
109949
95680.3
95672.8
95666
95656.1
95644.8
95632.8
95620.8
95606.7
95593.7
95582.1
95571.9
95563.7
95558.1
95555.2
95555.5
95559.1
95566
95576.6
95591.1
95609.5
95631.8
95657.9
95687.7
95721.4
95758.7
95800
95845.2
95894.3
95947.4
96004.5
96065.6
96130.4
96198.8
96270.8
96346.4
96425.6
96508.1
96593.9
96682.6
96775.4
96872
96970.8
97073.7
97180.3
97290.1
97403.9
97521.9
97643.9
97769.7
97899.2
98032.8
98170.7
98312.1
98456.7
98604.3
98755.8
98911.8
99070.8
99232.1
99396
99563.7
99735.2
99908.5
100083
100258
100436
100616
100797
100977
101156
101334
101513
101690
101864
102035
102200
102360
102514
102662
102803
102936
103060
103175
103281
103376
103460
103532
103592
103640
103676
103697
103706
103701
103683
103651
103604
103546
103475
103390
103294
103188
103072
102946
102809
102669
102521
102377
102230
102081
101934
101788
101643
101497
101359
101229
101106
100991
100879
100775
100677
100584
100500
100419
100358
100325
100309
100300
100310
100340
100395
100473
100571
100708
100870
101048
101236
101463
101724
101995
102253
102497
102734
102957
103179
103413
103629
103798
103982
104204
104473
104729
105003
105316
105562
105850
106157
106416
106669
107004
107255
107353
107419
107685
108027
108216
108393
108387
108324
108230
108215
108137
107909
107691
107452
107315
107253
107355
107460
107617
107799
96170.6
96162.8
96149.1
96134.6
96116.7
96097.5
96076.9
96055.3
96033.9
96014.7
95997.2
95981.8
95968.8
95959
95952.5
95949.9
95950.9
95955.6
95964.2
95976.7
95993.2
96013.6
96038
96066.1
96097.9
96133.3
96172.5
96215.5
96262.2
96312.7
96367.2
96425.5
96487.3
96552.3
96621.2
96693.6
96768.8
96847.4
96929.4
97013.8
97101.3
97193.8
97289.1
97387.8
97489.8
97595.1
97704.4
97817.7
97934.5
98054.8
98178.8
98306.9
98438.7
98573.4
98711
98851.7
98996.5
99144.8
99295.8
99449.2
99605.8
99766.6
99929.6
100093
100258
100425
100595
100765
100935
101104
101273
101442
101609
101773
101933
102088
102237
102380
102517
102646
102768
102881
102984
103078
103161
103233
103293
103340
103375
103397
103405
103400
103381
103350
103303
103243
103172
103088
102989
102879
102760
102631
102492
102342
102189
102031
101874
101714
101552
101390
101229
101069
100906
100750
100598
100455
100318
100185
100058
99940.2
99826.3
99719.5
99618.6
99535
99483.7
99449.6
99425.9
99418
99427.6
99458.6
99510.3
99589.7
99712.1
99857.5
100010
100184
100402
100642
100877
101084
101279
101469
101665
101866
102079
102287
102449
102622
102822
103050
103269
103500
103770
103972
104200
104454
104668
104881
105152
105372
105410
105344
105448
105626
105749
105881
105838
105804
105791
105785
105673
105436
105198
104985
104879
104860
104968
105226
105445
105675
96559.2
96544.6
96536.9
96520.6
96497.3
96468.8
96437.3
96407.1
96377.5
96351.4
96327.4
96306
96287.4
96272
96260.1
96252.1
96248.3
96248.4
96252.4
96260.5
96272.3
96288.2
96308
96331.6
96358.9
96390
96424.7
96463
96504.7
96550.2
96599.6
96652.8
96709.5
96768
96831.7
96898.4
96968
97040.5
97115.6
97194.6
97277
97362.8