/*--------------------------------*- C++ -*----------------------------------*\
| =========                 |                                                 |
| \\      /  F ield         | OpenFOAM: The Open Source CFD Toolbox           |
|  \\    /   O peration     | Version:  dev                                   |
|   \\  /    A nd           | Web:      http://www.openfoam.org               |
|    \\/     M anipulation  |                                                 |
\*---------------------------------------------------------------------------*/
FoamFile
{
    version     2.0;
    format      ascii;
    class       volScalarField;
    object      p_0;
    location    "9.162";
}
// * * * * * * * * * * * * * * * * * * * * * * * * * * * * * * * * * * * * * //

dimensions      [1 -1 -2 0 0 0 0];

internalField   nonuniform List<scalar> 
12225
(
101041
101048
101052
101053
101030
100997
100931
100857
100746
100627
100466
100309
100095
99888.7
99623.6
99349.3
99013.6
98479.9
101040
101050
101054
101055
101032
100999
100933
100859
100748
100629
100468
100312
100097
99891.1
99621.5
99338.9
99037.6
98490.5
101044
101056
101059
101060
101036
101003
100937
100864
100752
100633
100472
100317
100103
99897.9
99627.2
99348.4
99072.3
98555.4
101047
101064
101068
101068
101043
101010
100944
100870
100760
100641
100484
100323
100118
99906.2
99650.2
99375.6
99101.5
98667.8
101055
101075
101080
101079
101054
101021
100955
100881
100771
100652
100498
100336
100138
99925.7
99681.4
99421.3
99154.4
98806.8
101068
101092
101096
101095
101070
101035
100970
100894
100787
100667
100517
100354
100164
99955.4
99724.5
99479.2
99236
98959.8
101089
101114
101118
101116
101091
101054
100991
100912
100808
100686
100542
100379
100197
99994.8
99777.7
99546.2
99356.6
99041.1
101116
101138
101143
101138
101115
101075
101013
100933
100831
100709
100568
100408
100232
100037
99830.7
99611.4
99422.6
99153.1
101143
101164
101170
101163
101140
101098
101037
100955
100855
100733
100596
100438
100268
100079
99883.1
99677.6
99481.2
99253
101179
101199
101206
101196
101172
101128
101067
100984
100886
100765
100631
100476
100312
100131
99945.2
99751.2
99561
99358.8
101229
101246
101252
101239
101214
101167
101106
101022
100924
100804
100673
100523
100365
100192
100017
99834.3
99655.1
99472.3
101297
101308
101311
101295
101267
101218
101155
101069
100971
100853
100725
100580
100428
100264
100099
99927.7
99760.2
99593.2
101375
101387
101386
101366
101333
101281
101214
101128
101029
100913
100786
100646
100500
100345
100189
100030
99872.8
99719.1
101489
101488
101479
101454
101415
101358
101286
101199
101097
100982
100856
100721
100580
100433
100285
100136
99988.6
99845.2
101612
101610
101592
101559
101512
101450
101372
101280
101175
101059
100934
100802
100664
100523
100381
100240
100100
99964.4
101771
101754
101724
101681
101624
101553
101468
101369
101260
101140
101013
100881
100745
100607
100469
100332
100197
100066
101924
101905
101867
101814
101747
101664
101568
101461
101343
101217
101086
100950
100812
100674
100536
100400
100267
100138
102082
102052
102005
101941
101861
101766
101657
101538
101409
101274
101134
100992
100849
100706
100565
100427
100292
100161
102199
102170
102116
102042
101950
101842
101720
101588
101448
101303
101154
101004
100853
100705
100558
100415
100276
100142
102291
102260
102201
102117
102014
101894
101761
101617
101467
101312
101154
100996
100838
100683
100531
100383
100240
100101
102367
102332
102264
102172
102059
101929
101786
101633
101473
101310
101144
100979
100815
100654
100497
100344
100196
100054
102439
102388
102313
102212
102091
101952
101801
101640
101473
101302
101130
100959
100790
100624
100463
100306
100154
100008
102482
102429
102348
102241
102113
101968
101810
101643
101470
101294
101116
100940
100767
100597
100432
100272
100117
99968.3
102516
102460
102374
102262
102129
101979
101816
101644
101466
101285
101104
100924
100748
100575
100407
100244
100087
99936.2
102543
102482
102392
102277
102140
101986
101819
101644
101462
101278
101094
100912
100733
100557
100387
100223
100064
99911.6
102554
102497
102405
102287
102147
101991
101822
101643
101460
101273
101087
100902
100721
100545
100373
100207
100047
99893.7
102568
102508
102414
102294
102153
101994
101823
101643
101458
101270
101082
100896
100713
100536
100363
100196
100036
99881.4
102581
102516
102420
102299
102156
101997
101824
101643
101456
101267
101078
100892
100708
100530
100357
100190
100028
99873.6
102590
102522
102424
102302
102158
101998
101825
101643
101456
101266
101077
100889
100706
100527
100353
100186
100024
99869.5
102600
102526
102426
102303
102159
101999
101825
101643
101456
101266
101076
100889
100705
100526
100352
100184
100023
99868
90604.2
90606.8
90612.4
90621
90633.1
90648.1
90666.3
90687.6
90712
90739.7
90770.7
90805.1
90843.2
90885.2
90931
90980.8
91034.6
91092.6
91154.5
91220.5
91290.6
91364.6
91442.6
91524.5
91610.2
91699.8
91793.1
91889.9
91990.9
92096
92204.5
92316.7
92432.7
92551.4
92674.1
92802.6
92934.4
93068.5
93205
93345.5
93489.3
93637
93790.6
93948.8
94110.2
94274.2
94440.6
94609.6
94781.6
94956.5
95134.6
95316.1
95500.8
95688.6
95879.1
96072.2
96267.6
96465.1
96664.2
96864.4
97065.2
97266.4
97467.6
97668.1
97867.8
98066.7
98263.5
98458.2
98650.9
98841.1
99028.6
99213.4
99395.4
99574.5
99750.7
99923.9
100094
100261
100426
100587
100746
100902
101055
101206
101354
101499
101642
101781
101918
102050
102178
102299
102414
102520
102616
102702
102777
102839
102888
102922
102941
102943
102929
102898
102850
102787
102708
102617
102514
102401
102279
102152
102025
101901
101781
101668
101571
101503
101471
101480
101534
101635
101787
101992
102249
102560
102914
103311
103754
104224
104730
105285
105826
106406
107019
107641
108275
108900
109522
110147
110776
111417
112064
112728
113406
114098
114802
115517
116238
116966
117705
118447
119209
119962
120711
121471
122166
122762
123328
123941
124534
125035
125484
125972
126579
127277
127943
128576
129265
129956
130572
131076
131417
131553
131228
130677
129984
129222
128373
127478
90627.5
90630
90635.5
90644.2
90655.9
90670.8
90688.7
90709.7
90733.9
90761.3
90792
90826.3
90864.3
90906
90951.7
91001.3
91055
91112.6
91174.3
91240
91309.9
91383.8
91461.7
91543.6
91629.4
91719.1
91812.8
91910.2
92011.4
92116.6
92225
92337.8
92455
92573.9
92695.2
92821.9
92954
93090.9
93231.2
93371.6
93511.2
93656
93808.5
93966.1
94127.3
94291.5
94458.3
94628
94800.6
94976.3
95155.2
95337.4
95523
95712
95902.6
96096.4
96292.6
96490.8
96690.5
96891.3
97092.8
97294.6
97496.3
97697.3
97897
98098.2
98295
98490.2
98683.4
98874.3
99062.5
99248.1
99430.7
99610.5
99787.3
99961.2
100132
100300
100465
100627
100787
100943
101097
101248
101396
101542
101685
101825
101962
102094
102221
102343
102457
102563
102659
102745
102820
102882
102931
102964
102983
102985
102971
102940
102892
102829
102751
102660
102558
102446
102325
102198
102069
101945
101827
101717
101622
101554
101523
101533
101588
101690
101843
102046
102303
102611
102961
103355
103794
104263
104766
105310
105856
106433
107042
107660
108292
108916
109536
110159
110788
111428
112075
112738
113415
114106
114807
115521
116240
116965
117700
118436
119197
119946
120693
121457
122159
122755
123326
123953
124563
125070
125523
126020
126634
127330
127982
128606
129280
129925
130508
130988
131292
131381
131077
130540
129853
129095
128249
127346
90674.2
90676.6
90682
90690.2
90701.5
90715.8
90733.1
90753.6
90777.2
90804.2
90834.6
90868.6
90906.4
90947.9
90993.4
91042.8
91096.3
91153.7
91215.1
91280.6
91350.2
91423.9
91501.7
91583.5
91669.5
91759.8
91853.8
91951.9
92054.3
92160.2
92269
92381.6
92498.8
92619.4
92744.3
92869.7
92994.1
93126.7
93264.7
93406.3
93550
93697.1
93848.6
94004.6
94164.8
94328.5
94495.5
94665.7
94839.2
95015.9
95196
95379.4
95566
95755.2
95948.5
96143.9
96341.5
96540.9
96741.8
96943.9
97146.6
97349.6
97552.5
97754.9
97956.6
98157.2
98355.8
98552.5
98747
98939
99128.6
99315.4
99499.4
99680.4
99858.7
100034
100206
100376
100542
100706
100866
101024
101178
101330
101480
101626
101770
101910
102046
102179
102306
102427
102541
102647
102743
102828
102902
102965
103013
103046
103064
103066
103052
103021
102973
102910
102833
102744
102644
102534
102415
102287
102158
102034
101919
101812
101720
101655
101626
101637
101693
101796
101950
102148
102404
102705
103048
103436
103868
104332
104825
105356
105911
106477
107077
107689
108314
108935
109551
110170
110796
111436
112083
112747
113421
114109
114806
115516
116231
116953
117680
118405
119166
119907
120647
121413
122126
122727
123306
123949
124592
125121
125590
126111
126741
127422
128054
128660
129283
129834
130357
130774
131026
131048
130754
130239
129562
128807
127963
127054
90744.5
90746.9
90751.9
90759.7
90770.3
90783.8
90800.4
90820.1
90843.2
90869.7
90899.9
90933.8
90971.2
91012.3
91057.4
91106.4
91159.3
91216
91277
91342.4
91411.8
91485.3
91563.1
91645
91730.7
91821
91916.1
92014.7
92117.3
92225.1
92337.8
92453.1
92568.2
92676.4
92799.5
92925.7
93054.1
93186
93322.1
93462.4
93606.6
93754.5
93906.3
94062.2
94222.1
94385.9
94553.3
94724.3
94898.8
95077
95258.6
95443.7
95631.9
95823.4
96017.8
96214.8
96414
96615.1
96817.7
97021.4
97225.8
97430.5
97635
97839.4
98042.7
98244.8
98445.3
98643.8
98840.1
99034
99225.2
99413.8
99599.6
99782.5
99962.6
100140
100314
100485
100654
100819
100981
101141
101297
101450
101600
101748
101892
102032
102169
102301
102428
102548
102662
102767
102863
102948
103021
103082
103130
103162
103178
103180
103166
103135
103087
103024
102946
102857
102759
102651
102535
102412
102285
102163
102050
101947
101860
101799
101773
101787
101844
101947
102097
102294
102543
102834
103169
103547
103965
104422
104905
105417
105984
106531
107117
107716
108328
108946
109558
110171
110792
111431
112078
112742
113414
114099
114788
115492
116201
116919
117639
118347
119103
119834
120564
121320
122043
122658
123257
123909
124569
125136
125653
126226
126876
127530
128133
128706
129242
129676
130097
130420
130607
130552
130261
129771
129105
128351
127508
126596
90839.3
90841.5
90846.3
90853.6
90863.5
90876.4
90892.6
90912.1
90935.1
90961.5
90991.4
91025
91062
91102.4
91146.5
91194.4
91246
91301.6
91361.6
91426.1
91494.9
91567.7
91645
91727.2
91813.8
91904.6
91999.5
92098.6
92203.8
92313.7
92423.1
92533.1
92645.4
92759.8
92879
93002.8
93130.7
93262.6
93398.4
93538.2
93682.3
93830.4
93982.5
94138.7
94298.8
94463
94631.2
94803.3
94979.2
95159
95342.5
95529.4
95719.7
95913.2
96109.5
96308.5
96509.7
96712.7
96917.3
97123
97329.6
97536.3
97742.9
97949.2
98154.6
98358.8
98561.5
98762.2
98960.8
99157
99350.4
99541.1
99729
99913.9
100096
100276
100452
100626
100797
100965
101129
101290
101448
101603
101754
101903
102048
102189
102326
102457
102583
102702
102815
102919
103014
103099
103171
103229
103274
103304
103319
103318
103303
103272
103224
103161
103083
102994
102895
102787
102674
102557
102437
102320
102211
102114
102033
101979
101957
101976
102033
102135
102282
102472
102709
102989
103313
103677
104078
104524
104997
105487
106058
106586
107155
107735
108329
108940
109549
110154
110769
111402
112049
112713
113382
114063
114742
115436
116136
116848
117562
118248
118992
119714
120430
121162
121887
122517
123164
123839
124488
125086
125680
126329
127001
127627
128184
128717
129146
129449
129732
129932
130030
129910
129620
129137
128487
127736
126898
125986
90959.5
90961.7
90966.1
90973.1
90982.9
90995.7
91012
91031.6
91054.6
91080.9
91110.6
91143.1
91178.5
91217.3
91259.7
91305.9
91356
91410.3
91469
91532.2
91600.2
91672.8
91750
91832.1
91918.6
92009.1
92104.7
92206.4
92312
92418
92523.6
92631.2
92742.1
92856.7
92975.5
93098.4
93225.8
93357.4
93493.2
93633.2
93777.4
93925.7
94078.1
94234.6
94395.4
94560.5
94729.8
94903.4
95081
95262.6
95448
95637
95829.5
96025.1
96223.6
96424.7
96628.1
96833.3
97040.1
97248
97456.7
97665.6
97874.8
98083.2
98290.8
98497.4
98702.6
98906
99107.2
99306
99501.9
99695
99885.2
100072
100257
100439
100618
100794
100968
101138
101305
101468
101627
101783
101936
102086
102231
102373
102510
102641
102766
102884
102994
103096
103189
103272
103342
103398
103439
103467
103479
103475
103457
103425
103377
103314
103237
103147
103049
102943
102831
102717
102604
102494
102392
102303
102232
102186
102169
102190
102248
102348
102488
102668
102894
103161
103470
103815
104199
104625
105083
105556
106113
106628
107179
107740
108313
108909
109511
110109
110716
111341
111984
112644
113311
113985
114652
115331
116019
116722
117428
118097
118821
119525
120225
120926
121636
122282
122997
123712
124339
124960
125643
126381
127074
127675
128177
128657
128975
129139
129267
129316
129301
129132
128842
128350
127714
126969
126143
125244
91106.3
91108.3
91112.6
91119.4
91129.2
91142.2
91158.3
91177.4
91199.6
91224.6
91252.6
91283.6
91316.6
91353.2
91393.7
91438.2
91486.7
91539.6
91597.1
91659.4
91726.7
91798.6
91875.3
91957
92043.9
92136.1
92233
92332.7
92433.5
92535.1
92638.8
92745.7
92856.3
92970.9
93089.8
93213
93340.4
93472.2
93608.2
93748.3
93892.6
94041
94193.7
94350.9
94512.5
94678.8
94849.5
95024.6
95203.8
95387.2
95574.3
95765.1
95959.5
96157.2
96357.8
96561.1
96766.6
96974.2
97183.7
97393.9
97605
97816.2
98027.6
98238.6
98448.8
98658
98866
99072.2
99276.3
99478.1
99676.8
99872.6
100065
100255
100441
100625
100807
100986
101162
101334
101504
101669
101831
101988
102142
102292
102437
102578
102714
102844
102969
103085
103193
103292
103382
103460
103527
103580
103618
103642
103652
103645
103622
103587
103537
103474
103397
103308
103211
103108
102999
102889
102781
102679
102586
102506
102444
102406
102394
102416
102475
102569
102697
102868
103082
103332
103620
103948
104311
104714
105151
105609
106132
106642
107170
107715
108266
108842
109432
110020
110619
111233
111871
112523
113184
113851
114506
115165
115834
116528
117217
117875
118574
119256
119940
120608
121281
121948
122738
123477
124075
124729
125509
126337
127043
127607
128045
128461
128676
128724
128686
128565
128436
128209
127897
127414
126787
126049
125238
124361
91280.6
91282.4
91286.5
91293.2
91302.9
91315.7
91331.1
91348.8
91368.9
91391.5
91416.6
91444.3
91476
91511.3
91550.1
91592.7
91639.3
91690.4
91746.5
91807.5
91873.6
91944.7
92021.5
92104.1
92191.6
92282.8
92376.8
92472.5
92570
92669.8
92772.8
92879.7
92990.4
93105.3
93224.5
93347.9
93475.6
93607.4
93743.4
93883.4
94027.8
94176.4
94329.6
94487.5
94650.2
94817.6
94989.4
95165.4
95345.8
95530.5
95718.7
95911
96107.1
96306.7
96509.4
96714.7
96922.5
97132.4
97344
97556.5
97770.7
97984.4
98198
98411.5
98624.4
98836.5
99047.2
99256.4
99463.6
99668.5
99870.5
100069
100265
100457
100645
100831
101014
101195
101374
101549
101720
101888
102050
102209
102363
102513
102659
102799
102933
103061
103183
103297
103402
103497
103583
103657
103719
103768
103803
103822
103827
103816
103790
103750
103697
103631
103555
103466
103369
103268
103163
103058
102955
102861
102777
102708
102655
102624
102620
102640
102696
102781
102897
103057
103252
103484
103752
104063
104401
104778
105193
105631
106117
106615
107118
107644
108176
108728
109303
109876
110465
111068
111696
112336
112988
113644
114285
114922
115573
116248
116904
117562
118227
118895
119565
120214
120834
121522
122372
123104
123670
124368
125246
126153
126861
127367
127739
128118
128207
128151
127957
127682
127437
127152
126809
126326
125708
124975
124178
123327
91482.7
91484.3
91488.3
91494.8
91504.1
91516
91529.9
91545.7
91563.9
91584.5
91607.9
91634.6
91664.8
91698.3
91735.3
91776
91820.9
91870.4
91924.7
91984.1
92048.8
92119
92194.9
92275.7
92360.5
92448.4
92538.8
92631.7
92727.4
92826.4
92929.2
93035.9
93146.7
93261.7
93380.7
93504
93631.5
93763.1
93898.9
94038.9
94183.3
94332.4
94486.1
94644.7
94807.9
94975.6
95147.6
95324
95504.9
95690.5
95879.5
96073.1
96270.9
96472.2
96676.6
96884
97093.8
97305.6
97519.2
97734.1
97950.8
98166.4
98382.1
98597.9
98813.3
99028
99241.6
99453.6
99663.6
99871.5
100077
100279
100478
100672
100863
101051
101236
101419
101599
101776
101948
102116
102280
102439
102593
102743
102887
103026
103159
103283
103401
103512
103613
103704
103784
103852
103908
103951
103982
103996
103995
103979
103946
103902
103846
103777
103699
103610
103513
103413
103312
103212
103115
103028
102954
102893
102850
102824
102827
102847
102896
102971
103075
103218
103391
103606
103851
104137
104450
104797
105192
105608
106059
106536
107010
107514
108031
108555
109112
109668
110246
110837
111449
112072
112708
113344
113969
114584
115221
115863
116479
117140
117770
118417
119079
119728
120313
121010
121874
122565
123116
123863
124828
125790
126505
126947
127258
127520
127470
127361
127067
126663
126300
125974
125601
125096
124490
123756
122974
122153
91713.2
91714.4
91717.9
91723.9
91732.3
91742.8
91755.2
91769.7
91786.8
91806.7
91829.7
91855.5
91884.2
91916.1
91951.4
91990.6
92034
92082
92134.7
92192.4
92255.2
92323
92395.7
92472.7
92553.4
92637.4
92724.6
92815.2
92909.5
93007.5
93109.6
93215.6
93325.8
93440.1
93558.6
93681.4
93808.3
93939.5
94074.9
94214.8
94359.3
94508.5
94662.4
94820.8
94983.7
95151
95322.8
95499
95679.9
95864.8
96055.8
96250.7
96449.5
96652.1
96858
97066.8
97278.3
97491.5
97706.2
97925.8
98142
98359.1
98576.6
98794.2
99011.6
99228.5
99444.5
99658.9
99871.5
100082
100290
100495
100697
100895
101089
101279
101466
101651
101831
102009
102181
102350
102513
102672
102825
102974
103116
103252
103381
103503
103616
103721
103817
103903
103976
104037
104086
104122
104146
104154
104147
104125
104087
104036
103976
103902
103821
103732
103635
103537
103438
103341
103250
103168
103102
103048
103014
102994
102998
103022
103062
103124
103217
103339
103491
103683
103902
104157
104447
104767
105126
105522
105942
106389
106838
107316
107814
108317
108848
109389
109952
110528
111117
111717
112332
112941
113545
114139
114761
115366
115946
116592
117195
117809
118463
119100
119676
120381
121199
121843
122399
123196
124232
125217
125938
126331
126583
126648
126517
126349
125972
125464
125023
124672
124268
123746
123143
122414
121650
120861
91972.8
91973.1
91976.2
91981.5
91988.9
91998.2
92009.6
92023.3
92039.8
92058.9
92080.4
92104.9
92132.6
92163.5
92197.7
92235.6
92277.6
92323.7
92374.2
92429.5
92489.2
92553.6
92622.2
92694.9
92771.5
92851.8
92936
93024.3
93116.6
93213.1
93313.6
93418.3
93527.2
93640.3
93757.8
93879.6
94005.8
94136.4
94271.4
94410.9
94554.9
94703.5
94856.8
95014.5
95176.6
95343.3
95514.6
95690.8
95871.8
96057.2
96247.6
96442.4
96641.3
96844.3
97050.7
97260.5
97472.8
97687
97905.3
98123.3
98341.4
98559.6
98778
98996.6
99215.2
99433.5
99651.2
99867.6
100082
100295
100505
100712
100916
101117
101314
101507
101696
101881
102063
102240
102412
102580
102742
102899
103051
103197
103336
103468
103594
103711
103819
103917
104006
104084
104151
104204
104245
104272
104286
104288
104273
104244
104202
104143
104077
104000
103913
103821
103725
103627
103531
103438
103350
103271
103210
103161
103132
103119
103121
103145
103178
103226
103307
103411
103542
103703
103894
104120
104383
104673
104998
105364
105756
106174
106598
107048
107520
108006
108509
109032
109570
110124
110687
111263
111852
112429
113005
113580
114182
114752
115300
115911
116481
117066
117710
118329
118894
119596
120332
120930
121513
122360
123436
124414
125123
125482
125668
125540
125421
125172
124680
124119
123622
123248
122824
122280
121676
120964
120226
119469
92261.7
92262.1
92264.7
92269
92275.3
92283.7
92294.1
92306.8
92322
92339.7
92359.9
92382.9
92409.1
92438.3
92470.7
92506.8
92546.6
92590.3
92638.1
92690.2
92746.5
92807.1
92871.8
92940.7
93013.7
93090.8
93172.2
93257.9
93347.9
93442.1
93540.5
93643.3
93750.5
93862.2
93978.3
94098.9
94223.9
94353.3
94487.3
94625.8
94768.7
94916.2
95068.3
95224.8
95385.9
95551.5
95722
95897.2
96077.4
96262.7
96452.6
96646.9
96845.3
97047.6
97253.5
97464
97676.1
97890.9
98108.3
98327
98546.2
98765.1
98983.6
99202.1
99420.6
99638.9
99857
100074
100290
100505
100716
100925
101131
101333
101532
101727
101917
102103
102284
102461
102632
102798
102960
103114
103263
103406
103541
103668
103787
103899
104001
104091
104171
104241
104299
104344
104376
104393
104397
104389
104367
104328
104280
104214
104140
104057
103966
103871
103774
103676
103581
103490
103404
103327
103267
103223
103192
103182
103184
103202
103229
103264
103330
103418
103525
103654
103815
104011
104247
104509
104802
105134
105493
105882
106277
106700
107144
107609
108085
108589
109096
109621
110161
110712
111272
111812
112348
112902
113478
114016
114528
115098
115634
116190
116815
117420
117964
118644
119302
119835
120450
121343
122426
123375
124052
124386
124467
124218
124053
123735
123187
122625
122113
121719
121265
120705
120098
119413
118711
117989
92581.4
92581.3
92582.9
92586.4
92591.8
92598.9
92608
92619.2
92632.6
92648.5
92666.8
92687.8
92711.7
92738.7
92768.8
92802.3
92839.3
92879.9
92924.5
92973.1
93025.8
93082.7
93143.8
93209.2
93278.9
93353
93431.5
93514.3
93601.5
93693
93789
93889.5
93994.5
94104.2
94218.3
94337
94460.1
94587.8
94720
94856.7
94998
95143.9
95294.4
95449.4
95609.1
95773.5
95942.8
96117
96296.2
96480.8
96669.8
96863.1
97060.6
97262
97466.8
97674.9
97885.8
98099.5
98315.6
98533.6
98752.9
98972.3
99190.7
99408.4
99625.8
99842.9
100060
100276
100492
100707
100919
101129
101335
101538
101738
101933
102124
102310
102490
102665
102835
102999
103158
103309
103454
103592
103723
103844
103957
104061
104155
104237
104307
104367
104415
104451
104471
104478
104471
104452
104421
104372
104315
104243
104159
104071
103973
103875
103775
103676
103579
103488
103404
103327
103265
103221
103187
103175
103175
103187
103205
103228
103276
103346
103428
103529
103659
103826
104034
104268
104526
104825
105149
105504
105871
106266
106682
107121
107572
108052
108531
109022
109536
110057
110588
111092
111587
112113
112655
113156
113630
114156
114666
115188
115783
116371
116895
117532
118124
118591
119219
120125
121186
122094
122735
123042
122999
122748
122463
122082
121519
120981
120483
120084
119590
119029
118423
117774
117118
116436
92932
92931.4
92932.1
92934.4
92938.2
92943.6
92950.9
92960.1
92971.2
92984.7
93000.5
93018.9
93040
93063.9
93090.9
93121.1
93154.8
93192.1
93233.1
93278.1
93327.2
93380.4
93438
93499.8
93566.1
93636.8
93711.8
93791.2
93875.1
93963.5
94056.5
94154.2
94256.5
94363.5
94475.2
94591.3
94712
94837.3
94967.3
95101.9
95241
95384.9
95533.5
95686.7
95844.7
96007.3
96175.2
96348
96525.8
96708.5
96895.9
97087.8
97283.4
97482.8
97685.7
97891.5
98100
98311.4
98525
98740.7
98958.2
99176.5
99394.3
99611
99827.1
100042
100257
100471
100685
100898
101110
101319
101525
101728
101927
102121
102311
102495
102674
102847
103014
103175
103330
103479
103619
103750
103875
103991
104095
104190
104275
104348
104408
104456
104493
104517
104526
104521
104502
104471
104428
104372
104303
104224
104131
104035
103932
103827
103722
103620
103520
103426
103343
103264
103198
103150
103112
103091
103085
103090
103099
103113
103140
103187
103244
103320
103423
103562
103734
103938
104165
104428
104721
105041
105380
105746
106133
106545
106969
107424
107878
108334
108816
109306
109806
110273
110732
111218
111707
112168
112607
113103
113583
114068
114629
115193
115700
116275
116812
117230
117848
118714
119722
120579
121189
121459
121357
121108
120750
120309
119734
119235
118762
118337
117822
117270
116670
116064
115457
114832
93313.8
93312.3
93312
93312.7
93314.6
93317.8
93322.6
93329.1
93337.4
93347.6
93360.1
93375
93392.5
93413
93436.3
93462.9
93492.8
93526.3
93563.5
93604.6
93649.9
93699.3
93753
93811
93873.3
93940
94011.1
94086.7
94166.8
94251.5
94341
94435.2
94534.2
94638
94746.5
94859.5
94977.3
95099.8
95227
95358.8
95495.5
95637
95783.1
95933.7
96089.3
96249.8
96415.3
96585.8
96761.5
96942
97127
97316.4
97509.7
97706.2
97906.4
98109.5
98314.7
98522.4
98732.6
98945
99159.3
99374.7
99589.9
99804.2
100018
100232
100444
100655
100866
101075
101284
101492
101697
101898
102095
102287
102475
102656
102832
103002
103165
103322
103472
103615
103750
103876
103992
104100
104196
104282
104356
104418
104468
104503
104527
104538
104535
104518
104487
104442
104387
104321
104241
104152
104049
103944
103834
103723
103613
103505
103402
103302
103214
103133
103060
103005
102961
102928
102911
102905
102905
102907
102916
102936
102969
103021
103100
103207
103345
103519
103718
103945
104206
104496
104806
105143
105500
105880
106282
106708
107140
107567
108019
108476
108940
109368
109787
110219
110646
111078
111481
111955
112405
112848
113377
113905
114390
114889
115397
115766
116358
117135
118065
118864
119433
119657
119559
119232
118858
118382
117852
117389
116943
116487
115980
115430
114857
114296
113748
113208
93726.7
93724.4
93722.6
93721.4
93720.9
93721.2
93722.8
93725.7
93730.2
93736.4
93744.8
93755.5
93768.6
93784.7
93803.7
93826
93851.7
93881
93913.9
93950.8
93991.6
94036.7
94086
94139.6
94197.5
94259.8
94326.5
94397.8
94473.6
94554.1
94639.5
94729.7
94824.8
94924.7
95029.3
95138.6
95252.7
95371.4
95495.1
95623.8
95756.9
95895.2
96038.2
96186
96338.5
96495.8
96658.8
96826.8
96999.5
97176.9
97358.9
97545
97734.9
97927.7
98123.6
98322.8
98524.3
98727.6
98933.4
99141.3
99351.4
99562.7
99773.9
99984.4
100195
100405
100615
100822
101029
101235
101439
101643
101844
102043
102237
102426
102610
102787
102959
103124
103283
103435
103579
103716
103844
103962
104070
104168
104255
104330
104393
104444
104481
104504
104514
104512
104496
104465
104421
104363
104295
104217
104125
104024
103913
103796
103679
103560
103444
103329
103221
103113
103017
102931
102850
102784
102731
102685
102653
102630
102618
102605
102596
102592
102603
102633
102685
102762
102871
103017
103185
103380
103610
103868
104154
104459
104786
105137
105521
105919
106326
106729
107148
107572
107994
108377
108749
109127
109505
109915
110281
110723
111155
111550
112042
112529
112979
113400
113892
114217
114746
115405
116237
116978
117480
117671
117564
117197
116806
116342
115910
115457
115036
114562
114063
113519
113008
112502
112021
111578
94171.5
94168
94164.2
94160.6
94156.8
94153.2
94150.3
94148.6
94148.3
94149.5
94152.6
94158.1
94166.1
94176.9
94190.9
94208.1
94228.8
94253.3
94281.5
94313.6
94349.7
94389.8
94434.1
94482.6
94535.5
94592.8
94654.6
94720.9
94792
94867.7
94948.3
95033.8
95124.3
95219.6
95319.8
95425
95535.2
95648.3
95768.2
95892.9
96022.4
96156.8
96296.3
96440.7
96590
96744.4
96903.2
97067
97235.8
97408.9
97586.5
97768.3
97953.5
98141.4
98332.1
98526.6
98723.9
98922.3
99122.6
99324.9
99529.8
99736.1
99942
100147
100352
100559
100765
100969
101171
101371
101571
101769
101966
102159
102349
102533
102712
102885
103051
103211
103364
103510
103647
103776
103895
104005
104103
104191
104268
104332
104383
104421
104446
104456
104453
104436
104406
104361
104303
104232
104150
104059
103956
103841
103721
103592
103466
103340
103214
103091
102976
102860
102752
102656
102567
102488
102423
102364
102316
102272
102241
102212
102182
102160
102151
102160
102187
102238
102321
102435
102574
102740
102940
103164
103425
103700
104000
104329
104693
105066
105441
105819
106197
106581
106964
107308
107633
107964
108302
108687
109024
109430
109842
110193
110639
111082
111480
111849
112313
112620
113033
113563
114278
114951
115369
115535
115419
115058
114678
114277
113927
113468
113054
112559
112073
111565
111128
110699
110298
109930
94648.9
94643.8
94638.4
94630.7
94622.1
94613.3
94604.5
94596.4
94589.6
94584.5
94581.2
94580.2
94582
94586.8
94595
94606.5
94621.5
94640.3
94663
94689.7
94720.5
94755.2
94794.1
94837.1
94884.3
94935.9
94992
95052.6
95117.9
95188.1
95263.1
95343.2
95428.4
95518.4
95613.5
95713.7
95818.6
95928.3
96043
96162.9
96287.9
96417.7
96552.6
96692.4
96836.9
96986.4
97140.8
97300.1
97463.9
97631.7
97804
97980.6
98160.6
98343.2
98528.1
98716.4
98908.2
99101.6
99296
99491.8
99689.9
99890.2
100090
100290
100489
100689
100890
101089
101286
101481
101675
101868
102058
102246
102429
102606
102778
102945
103105
103259
103405
103543
103672
103792
103903
104003
104091
104168
104233
104285
104323
104349
104361
104358
104341
104309
104265
104207
104133
104048
103952
103848
103732
103605
103473
103333
103198
103061
102925
102793
102666
102542
102421
102311
102212
102119
102039
101966
101901
101840
101786
101738
101687
101646
101621
101611
101615
101642
101699
101782
101891
102027
102198
102395
102625
102872
103153
103469
103809
104148
104484
104825
105159
105499
105851
106176
106463
106750
107055
107410
107725
108092
108477
108789
109186
109585
109931
110263
110685
110990
111289
111666
112248
112830
113156
113299
113176
112849
112508
112194
111870
111403
110970
110473
110021
109591
109207
108884
108563
108247
95081.4
95075
95064
95051.5
95037.3
95022.5
95006.7
94991.3
94977.3
94965.5
94955.9
94948.9
94944.6
94943.7
94946.2
94952.5
94962.6
94976.3
94994
95015.7
95041.5
95071.3
95105.4
95143.6
95186.1
95232.7
95283.7
95339
95399
95463.9
95533.9
95608.7
95688.7
95773.9
95864.1
95959.3
96059.5
96164.5
96274.7
96389.9
96510.1
96635.4
96765
96900.1
97040.4
97185.3
97335.4
97490.4
97649.5
97812.6
97979.9
98151.6
98326.6
98504.1
98684
98866.4
99051.8
99239.6
99428.5
99618.6
99810.5
100005
100200
100394
100587
100781
100976
101170
101361
101551
101739
101926
102111
102292
102469
102640
102805
102965
103118
103264
103402
103533
103654
103766
103868
103959
104038
104105
104159
104200
104227
104240
104240
104225
104195
104150
104093
104023
103936
103837
103729
103612
103483
103344
103201
103051
102906
102758
102612
102470
102331
102197
102063
101941
101827
101721
101624
101536
101453
101377
101304
101235
101166
101105
101065
101037
101023
101027
101060
101113
101191
101302
101448
101625
101826
102047
102311
102605
102913
103208
103505
103798
104096
104408
104733
105042
105305
105563
105846
106168
106456
106781
107133
107411
107755
108113
108415
108713
109087
109390
109595
109826
110250
110704
110940
111070
110928
110652
110368
110103
109773
109298
108843
108380
107965
107609
107251
107061
106799
106543
95430.9
95421.3
95410.8
95395
95375.5
95352.6
95328.6
95306.3
95285.8
95268
95253
95241.1
95232.2
95226.8
95224.8
95226.8
95232.8
95242.7
95256.5
95274.4
95296.2
95322.1
95352.1
95386.4
95424.9
95467.7
95514.9
95566.2
95622
95682.9
95748.7
95819.5
95895.3
95976.2
96062.1
96153.1
96249.1
96350.1
96456.2
96567.3
96683.5
96804.1
96930.3
97061.8