/*--------------------------------*- C++ -*----------------------------------*\
| =========                 |                                                 |
| \\      /  F ield         | OpenFOAM: The Open Source CFD Toolbox           |
|  \\    /   O peration     | Version:  dev                                   |
|   \\  /    A nd           | Web:      http://www.openfoam.org               |
|    \\/     M anipulation  |                                                 |
\*---------------------------------------------------------------------------*/
FoamFile
{
    version     2.0;
    format      ascii;
    class       surfaceScalarField;
    object      phi;
    location    "9.162";
}
// * * * * * * * * * * * * * * * * * * * * * * * * * * * * * * * * * * * * * //

dimensions      [1 0 -1 0 0 0 0];

internalField   nonuniform List<scalar> 
24170
(
1.92627e-06
6.34806e-07
7.88656e-07
3.80146e-08
2.17217e-07
-4.60466e-07
-1.0839e-07
-6.41903e-07
-3.46114e-07
-6.59901e-07
-3.98776e-07
-7.82656e-07
-6.2362e-07
-5.45785e-07
-4.92822e-07
-8.42586e-07
-6.74673e-07
-4.7309e-07
-3.61564e-07
-9.14244e-07
-5.31203e-07
-3.8228e-07
4.42255e-08
-1.07975e-06
-6.54988e-08
-3.50662e-07
9.22751e-07
-1.41219e-06
1.29654e-06
-7.57003e-07
4.64002e-06
-3.69598e-06
8.02707e-06
-3.69382e-06
3.50704e-07
7.41278e-06
3.53957e-06
-1.12872e-07
2.61425e-06
-2.03476e-07
1.8696e-06
-8.22826e-07
1.26286e-06
-1.0749e-06
8.20761e-07
-1.18534e-06
3.44838e-07
-1.20517e-06
1.40358e-07
-1.16935e-06
-4.40668e-08
-1.4226e-06
-1.44378e-07
-1.07347e-06
3.50931e-08
-1.73849e-06
-2.48915e-09
-9.33591e-07
5.94112e-07
-2.21741e-06
4.37985e-07
-6.8518e-07
1.34928e-06
-2.7783e-06
1.46546e-06
-1.28288e-06
3.29019e-06
-5.90884e-06
3.97931e-06
-4.70085e-06
-1.82005e-06
5.8503e-06
4.46318e-06
-1.34707e-06
3.9303e-06
-9.53075e-07
3.43945e-06
-1.5491e-06
2.8608e-06
-1.63987e-06
2.36442e-06
-1.75271e-06
1.92577e-06
-1.75403e-06
1.61249e-06
-1.76734e-06
1.42725e-06
-2.07684e-06
1.32875e-06
-1.74668e-06
1.44916e-06
-2.56688e-06
1.47076e-06
-1.60495e-06
2.00181e-06
-3.34031e-06
1.92875e-06
-1.15458e-06
2.79397e-06
-4.13722e-06
2.93638e-06
-1.87791e-06
3.65338e-06
-7.0503e-06
3.23064e-06
-4.62314e-06
-1.63618e-06
2.69939e-06
4.6272e-06
-2.63233e-06
4.6862e-06
-2.42043e-06
4.34718e-06
-2.54433e-06
4.16045e-06
-2.70653e-06
3.60254e-06
-2.36089e-06
3.66938e-06
-2.9021e-06
3.09017e-06
-2.18731e-06
3.28828e-06
-3.19336e-06
2.81771e-06
-2.12134e-06
3.09932e-06
-3.62247e-06
2.62779e-06
-1.84364e-06
3.0313e-06
-4.39057e-06
2.82131e-06
-1.53717e-06
3.30168e-06
-5.15617e-06
3.21097e-06
-2.27905e-06
3.55359e-06
-7.84402e-06
3.17593e-06
-4.62792e-06
-1.18713e-06
2.35464e-06
4.97121e-06
-3.76016e-06
5.51103e-06
-4.49875e-06
4.87914e-06
-3.37124e-06
5.1749e-06
-4.37046e-06
4.41519e-06
-2.87593e-06
4.70365e-06
-4.36998e-06
4.01271e-06
-2.58797e-06
4.22774e-06
-4.40966e-06
3.61601e-06
-2.43203e-06
3.86499e-06
-4.71449e-06
3.34291e-06
-2.09511e-06
3.53458e-06
-5.28622e-06
3.33685e-06
-1.98469e-06
3.41385e-06
-5.8216e-06
3.17102e-06
-2.57141e-06
2.85991e-06
-8.00959e-06
1.29196e-06
-3.48286e-06
-2.15229e-06
1.84705e-06
5.09134e-06
-4.69674e-06
5.47896e-06
-6.56181e-06
4.68859e-06
-4.16773e-06
4.99739e-06
-6.16721e-06
4.31838e-06
-3.58267e-06
4.61122e-06
-5.94476e-06
4.07415e-06
-3.23757e-06
4.26801e-06
-5.69219e-06
3.76726e-06
-2.93266e-06
4.0189e-06
-5.88272e-06
3.65503e-06
-2.56974e-06
3.77855e-06
-6.17397e-06
3.63589e-06
-2.53956e-06
3.65784e-06
-6.48224e-06
3.52358e-06
-3.01875e-06
2.67081e-06
-7.68044e-06
1.02314e-06
-2.30075e-06
-3.9674e-06
2.41678e-06
5.85771e-06
-6.01117e-06
5.98379e-06
-8.49894e-06
5.20985e-06
-5.11067e-06
5.30149e-06
-7.86604e-06
4.71535e-06
-4.49447e-06
4.84733e-06
-7.46012e-06
4.35001e-06
-4.02057e-06
4.54226e-06
-7.06059e-06
4.13823e-06
-3.60829e-06
4.31375e-06
-7.04652e-06
4.19813e-06
-3.35732e-06
4.18813e-06
-6.9858e-06
4.31165e-06
-3.4119e-06
4.17981e-06
-7.03312e-06
4.16982e-06
-3.63244e-06
3.02534e-06
-7.10749e-06
2.74198e-06
-2.50378e-06
-5.486e-06
3.78605e-06
4.67143e-06
-6.96728e-06
4.72514e-06
-9.93685e-06
4.25455e-06
-5.95162e-06
4.2178e-06
-9.05743e-06
3.80533e-06
-5.22475e-06
3.81164e-06
-8.52232e-06
3.48113e-06
-4.66437e-06
3.48786e-06
-7.9625e-06
3.38617e-06
-4.32742e-06
3.27498e-06
-7.68557e-06
3.39252e-06
-4.16064e-06
3.22191e-06
-7.43882e-06
3.42112e-06
-4.17804e-06
3.19246e-06
-7.32004e-06
3.26414e-06
-4.1737e-06
2.67619e-06
-6.94805e-06
3.17375e-06
-3.37618e-06
-5.68568e-06
3.02019e-06
5.68394e-06
-8.13811e-06
5.55532e-06
-1.13855e-05
5.04559e-06
-6.9332e-06
4.86435e-06
-1.02728e-05
4.45818e-06
-6.11792e-06
4.25255e-06
-9.51738e-06
4.13269e-06
-5.65139e-06
3.8787e-06
-8.7242e-06
3.96661e-06
-5.34515e-06
3.73003e-06
-8.29815e-06
3.93681e-06
-5.14201e-06
3.65224e-06
-7.85999e-06
3.8651e-06
-5.02923e-06
3.53042e-06
-7.56579e-06
3.65612e-06
-4.82604e-06
3.19507e-06
-6.96542e-06
3.69235e-06
-4.303e-06
-5.80689e-06
3.41979e-06
6.68903e-06
-9.38818e-06
6.28227e-06
-1.27553e-05
5.85716e-06
-8.19129e-06
5.40324e-06
-1.13906e-05
5.23117e-06
-7.41019e-06
4.72533e-06
-1.03626e-05
4.73292e-06
-6.90528e-06
4.34883e-06
-9.48234e-06
4.53922e-06
-6.58055e-06
4.18581e-06
-8.89623e-06
4.44329e-06
-6.26571e-06
4.09631e-06
-8.30049e-06
4.35941e-06
-6.00526e-06
3.97883e-06
-7.83018e-06
4.1967e-06
-5.62711e-06
3.84382e-06
-7.14155e-06
4.29293e-06
-5.23026e-06
-6.07525e-06
4.12567e-06
7.86098e-06
-1.1033e-05
7.14894e-06
-1.40253e-05
6.94568e-06
-9.86102e-06
6.19936e-06
-1.23969e-05
6.11243e-06
-8.95073e-06
5.44295e-06
-1.11967e-05
5.52116e-06
-8.36518e-06
5.01754e-06
-1.02448e-05
5.24921e-06
-7.96747e-06
4.84556e-06
-9.544e-06
5.1611e-06
-7.53435e-06
4.80198e-06
-8.806e-06
5.11897e-06
-7.10423e-06
4.7131e-06
-8.13049e-06
5.03231e-06
-6.58154e-06
4.69788e-06
-7.38094e-06
5.11238e-06
-6.16333e-06
-6.41241e-06
4.97928e-06
9.24293e-06
-1.2756e-05
8.27786e-06
-1.52306e-05
8.10175e-06
-1.17353e-05
7.14732e-06
-1.33583e-05
7.14179e-06
-1.07214e-05
6.37461e-06
-1.20674e-05
6.55251e-06
-1.00455e-05
5.98423e-06
-1.10498e-05
6.26197e-06
-9.49501e-06
5.79421e-06
-1.0211e-05
6.0787e-06
-8.84476e-06
5.64709e-06
-9.30077e-06
5.89954e-06
-8.19211e-06
5.4812e-06
-8.46488e-06
5.78806e-06
-7.5634e-06
5.49323e-06
-7.69099e-06
5.87455e-06
-7.08886e-06
-6.9208e-06
5.89335e-06
1.07903e-05
-1.48568e-05
9.64985e-06
-1.64035e-05
9.44959e-06
-1.37217e-05
8.47325e-06
-1.44232e-05
8.47061e-06
-1.26072e-05
7.69246e-06
-1.30261e-05
7.74078e-06
-1.16832e-05
7.07183e-06
-1.18298e-05
7.16816e-06
-1.09057e-05
6.64818e-06
-1.08803e-05
6.77331e-06
-1.00409e-05
6.40256e-06
-9.89185e-06
6.60202e-06
-9.25203e-06
6.37274e-06
-9.00654e-06
6.61049e-06
-8.48965e-06
6.53069e-06
-8.22374e-06
6.76912e-06
-7.873e-06
-7.58681e-06
6.94899e-06
1.26717e-05
-1.68383e-05
1.13282e-05
-1.74285e-05
1.0922e-05
-1.55585e-05
9.82747e-06
-1.54209e-05
9.62885e-06
-1.43402e-05
8.8519e-06
-1.40188e-05
8.72724e-06
-1.31723e-05
8.1495e-06
-1.27153e-05
7.99884e-06
-1.20762e-05
7.56923e-06
-1.16365e-05
7.50844e-06
-1.10407e-05
7.27727e-06
-1.06061e-05
7.32603e-06
-1.01383e-05
7.2991e-06
-9.72041e-06
7.45342e-06
-9.29732e-06
7.56005e-06
-8.90487e-06
7.72524e-06
-8.54261e-06
-8.21806e-06
7.9146e-06
1.41713e-05
-1.83542e-05
1.29686e-05
-1.85204e-05
1.2495e-05
-1.72553e-05
1.17207e-05
-1.66653e-05
1.13466e-05
-1.58221e-05
1.0754e-05
-1.51176e-05
1.04004e-05
-1.43492e-05
9.93537e-06
-1.36253e-05
9.59228e-06
-1.29628e-05
9.24492e-06
-1.23802e-05
9.00597e-06
-1.17637e-05
8.80592e-06
-1.12495e-05
8.6958e-06
-1.07633e-05
8.66459e-06
-1.03259e-05
8.69913e-06
-9.88052e-06
8.78216e-06
-9.45727e-06
8.89464e-06
-9.0543e-06
-8.66924e-06
9.00642e-06
1.64447e-05
-1.89831e-05
1.5391e-05
-1.9477e-05
1.46642e-05
-1.84305e-05
1.38439e-05
-1.76051e-05
1.31356e-05
-1.67137e-05
1.24551e-05
-1.58768e-05
1.18952e-05
-1.50719e-05
1.14479e-05
-1.431e-05
1.11072e-05
-1.36112e-05
1.08204e-05
-1.29499e-05
1.06606e-05
-1.23361e-05
1.05469e-05
-1.17538e-05
1.0485e-05
-1.12154e-05
1.0454e-05
-1.07151e-05
1.04571e-05
-1.0222e-05
1.05071e-05
-9.77323e-06
1.05974e-05
-9.34481e-06
-8.94518e-06
1.07269e-05
1.97639e-05
-1.93164e-05
1.85316e-05
-1.96939e-05
1.73726e-05
-1.86238e-05
1.6203e-05
-1.76656e-05
1.51242e-05
-1.67204e-05
1.42033e-05
-1.58977e-05
1.34979e-05
-1.51671e-05
1.29871e-05
-1.44669e-05
1.26222e-05
-1.3788e-05
1.23594e-05
-1.31127e-05
1.21842e-05
-1.2478e-05
1.20831e-05
-1.18724e-05
1.20336e-05
-1.12973e-05
1.2038e-05
-1.07721e-05
1.20973e-05
-1.02636e-05
1.21852e-05
-9.78575e-06
1.22816e-05
-9.31659e-06
-8.88306e-06
1.23867e-05
1.94674e-05
-1.87194e-05
1.84162e-05
-1.91653e-05
1.7446e-05
-1.81021e-05
1.65714e-05
-1.7154e-05
1.58146e-05
-1.62279e-05
1.51795e-05
-1.54289e-05
1.46569e-05
-1.47152e-05
1.42096e-05
-1.40019e-05
1.38271e-05
-1.3304e-05
1.34754e-05
-1.25837e-05
1.31493e-05
-1.19058e-05
1.2872e-05
-1.12876e-05
1.26452e-05
-1.07077e-05
1.24894e-05
-1.02077e-05
1.24074e-05
-9.73382e-06
1.23857e-05
-9.28445e-06
1.24186e-05
-8.84512e-06
-8.4182e-06
1.24758e-05
1.75569e-05
-1.74605e-05
1.64622e-05
-1.77801e-05
1.56089e-05
-1.69167e-05
1.49241e-05
-1.60918e-05
1.43434e-05
-1.52236e-05
1.37933e-05
-1.44068e-05
1.3262e-05
-1.36673e-05
1.28011e-05
-1.29823e-05
1.24285e-05
-1.23349e-05
1.21677e-05
-1.16923e-05
1.19904e-05
-1.10672e-05
1.18599e-05
-1.04715e-05
1.17636e-05
-9.90491e-06
1.16533e-05
-9.37399e-06
1.15695e-05
-8.91606e-06
1.14987e-05
-8.47316e-06
1.14505e-05
-8.05594e-06
-7.66547e-06
1.14362e-05
1.54231e-05
-1.5761e-05
1.4584e-05
-1.61215e-05
1.38537e-05
-1.53551e-05
1.32494e-05
-1.46477e-05
1.27499e-05
-1.38727e-05
1.22846e-05
-1.30754e-05
1.18561e-05
-1.23631e-05
1.14984e-05
-1.17378e-05
1.12064e-05
-1.11485e-05
1.10075e-05
-1.0595e-05
1.08832e-05
-1.00404e-05
1.08089e-05
-9.49446e-06
1.07772e-05
-8.9717e-06
1.07654e-05
-8.46487e-06
1.07297e-05
-7.98968e-06
1.07119e-05
-7.57514e-06
1.07026e-05
-7.17943e-06
-6.82484e-06
1.0713e-05
1.41607e-05
-1.39555e-05
1.34907e-05
-1.43277e-05
1.29474e-05
-1.36917e-05
1.24547e-05
-1.30495e-05
1.19861e-05
-1.23109e-05
1.1551e-05
-1.15586e-05
1.11621e-05
-1.09027e-05
1.08012e-05
-1.03164e-05
1.04798e-05
-9.77861e-06
1.01964e-05
-9.27447e-06
9.96875e-06
-8.78969e-06
9.80504e-06
-8.32303e-06
9.69503e-06
-7.86915e-06
9.64502e-06
-7.43993e-06
9.62734e-06
-7.01502e-06
9.62904e-06
-6.64023e-06
9.66174e-06
-6.29771e-06
-5.97588e-06
9.70383e-06
1.2587e-05
-1.19205e-05
1.19628e-05
-1.24234e-05
1.14465e-05
-1.1917e-05
1.09532e-05
-1.13285e-05
1.05166e-05
-1.0672e-05
1.01871e-05
-1.00522e-05
9.91083e-06
-9.47452e-06
9.66756e-06
-8.94408e-06
9.44678e-06
-8.45192e-06
9.23726e-06
-7.98215e-06
9.06166e-06
-7.55347e-06
8.91869e-06
-7.14275e-06
8.81832e-06
-6.75549e-06
8.76006e-06
-6.39233e-06
8.7614e-06
-6.05247e-06
8.77336e-06
-5.7141e-06
8.81408e-06
-5.42723e-06
-5.15349e-06
8.875e-06
1.11788e-05
-1.03084e-05
1.07688e-05
-1.06837e-05
1.03777e-05
-1.02292e-05
9.98648e-06
-9.67897e-06
9.62861e-06
-9.09012e-06
9.31311e-06
-8.54587e-06
9.03664e-06
-8.03798e-06
8.79637e-06
-7.57423e-06
8.57879e-06
-7.13354e-06
8.39062e-06
-6.72172e-06
8.22281e-06
-6.34127e-06
8.08556e-06
-5.98887e-06
7.9858e-06
-5.66646e-06
7.92537e-06
-5.37041e-06
7.89922e-06
-5.09271e-06
7.92404e-06
-4.83351e-06
7.96095e-06
-4.58775e-06
-4.35546e-06
8.01041e-06
1.01001e-05
-8.35312e-06
9.68661e-06
-8.96499e-06
9.33566e-06
-8.60647e-06
8.96768e-06
-8.08097e-06
8.6087e-06
-7.53833e-06
8.29681e-06
-7.07711e-06
8.04622e-06
-6.66561e-06
7.84708e-06
-6.28624e-06
7.69796e-06
-5.92742e-06
7.57718e-06
-5.5751e-06
7.48152e-06
-5.24931e-06
7.40626e-06
-4.94683e-06
7.34856e-06
-4.67083e-06
7.30937e-06
-4.42191e-06
7.28295e-06
-4.18586e-06
7.26567e-06
-3.96438e-06
7.25865e-06
-3.75785e-06
-3.56703e-06
7.26416e-06
8.99158e-06
-6.93587e-06
8.67847e-06
-7.40667e-06
8.39305e-06
-7.11372e-06
8.14288e-06
-6.66514e-06
7.91851e-06
-6.18597e-06
7.71126e-06
-5.77843e-06
7.50902e-06
-5.40701e-06
7.32028e-06
-5.07518e-06
7.15492e-06
-4.77197e-06
7.01889e-06
-4.47995e-06
6.91252e-06
-4.21373e-06
6.83853e-06
-3.9725e-06
6.79189e-06
-3.75227e-06
6.76724e-06
-3.55328e-06
6.75934e-06
-3.36191e-06
6.76384e-06
-3.18055e-06
6.77155e-06
-3.00509e-06
-2.84737e-06
6.78474e-06
8.13933e-06
-5.62457e-06
7.92333e-06
-6.03356e-06
7.70207e-06
-5.76919e-06
7.44136e-06
-5.32209e-06
7.19982e-06
-4.89862e-06
6.97253e-06
-4.5407e-06
6.76963e-06
-4.22785e-06
6.59887e-06
-3.9608e-06
6.46184e-06
-3.72259e-06
6.35621e-06
-3.4919e-06
6.2689e-06
-3.27255e-06
6.19674e-06
-3.07422e-06
6.13604e-06
-2.89241e-06
6.0846e-06
-2.72916e-06
6.0452e-06
-2.57613e-06
6.02524e-06
-2.44005e-06
6.02376e-06
-2.3091e-06
-2.18586e-06
6.03115e-06
7.2476e-06
-4.28412e-06
7.12639e-06
-4.85238e-06
6.93323e-06
-4.54806e-06
6.70243e-06
-4.10114e-06
6.46354e-06
-3.70384e-06
6.21543e-06
-3.36976e-06
5.97225e-06
-3.09379e-06
5.74779e-06
-2.87611e-06
5.56426e-06
-2.70813e-06
5.42136e-06
-2.54604e-06
5.3111e-06
-2.38608e-06
5.22104e-06
-2.23376e-06
5.14296e-06
-2.08903e-06
5.06857e-06
-1.95402e-06
5.00485e-06
-1.83581e-06
4.95597e-06
-1.73843e-06
4.91865e-06
-1.64272e-06
-1.55412e-06
4.89245e-06
6.60235e-06
-3.07832e-06
6.46026e-06
-3.74834e-06
6.15689e-06
-3.31239e-06
5.78544e-06
-2.83239e-06
5.39913e-06
-2.45195e-06
5.02093e-06
-2.15654e-06
4.66955e-06
-1.93678e-06
4.3467e-06
-1.77579e-06
4.06402e-06
-1.67489e-06
3.81547e-06
-1.57256e-06
3.60464e-06
-1.47485e-06
3.42572e-06
-1.37807e-06
3.27893e-06
-1.28846e-06
3.16378e-06
-1.20761e-06
3.07547e-06
-1.13825e-06
2.99271e-06
-1.06813e-06
2.938e-06
-1.02196e-06
-9.69687e-07
2.89832e-06
5.76785e-06
-2.27607e-06
5.17146e-06
-2.28702e-06
4.38628e-06
-1.68892e-06
3.67046e-06
-1.30953e-06
3.06883e-06
-1.07192e-06
2.5845e-06
-9.21555e-07
2.19751e-06
-8.25882e-07
1.88525e-06
-7.65273e-07
1.60038e-06
-7.16222e-07
1.36116e-06
-6.82792e-07
1.16157e-06
-6.46986e-07
1.00141e-06
-6.11042e-07
8.75514e-07
-5.76556e-07
7.74488e-07
-5.41075e-07
6.9612e-07
-5.1424e-07
6.4137e-07
-4.87311e-07
6.02695e-07
-4.76562e-07
-4.5689e-07
5.77458e-07
3.76316e-06
2.23053e-06
1.27482e-06
6.74425e-07
2.88098e-07
2.86039e-08
-1.58125e-07
-3.06301e-07
-4.2648e-07
-5.33267e-07
-6.23423e-07
-6.96119e-07
-7.5235e-07
-7.90791e-07
-8.19649e-07
-8.38599e-07
-8.6369e-07
-8.85744e-07
-1.998e-07
1.59208e-07
-3.70167e-07
1.23582e-07
-4.59679e-07
4.37433e-08
-4.16465e-07
-8.63963e-08
-2.05031e-07
-2.51012e-07
1.63435e-07
-4.04916e-07
6.30399e-07
-5.00239e-07
1.15715e-06
-5.56508e-07
1.70726e-06
-5.75822e-07
2.23073e-06
-5.45026e-07
2.67677e-06
-4.62951e-07
3.02871e-06
-3.63965e-07
3.29436e-06
-2.72802e-07
3.46491e-06
-1.72541e-07
3.51633e-06
-4.73767e-08
3.45836e-06
6.84676e-08
3.30333e-06
1.70984e-07
3.0472e-06
2.77633e-07
2.70685e-06
3.6787e-07
2.29876e-06
4.41037e-07
1.84603e-06
4.91352e-07
1.375e-06
5.16422e-07
9.03881e-07
5.23831e-07
4.40449e-07
5.22646e-07
2.03217e-08
4.84658e-07
-3.31359e-07
4.20437e-07
-6.64575e-07
4.04464e-07
-9.53135e-07
3.61138e-07
-1.02034e-06
1.4049e-07
-9.37758e-07
-1.09205e-08
-8.66996e-07
-1.21806e-09
-5.06046e-07
-2.98884e-07
-1.86543e-07
-2.59309e-07
-2.27361e-07
1.05746e-07
7.76732e-08
-2.43334e-07
8.53114e-07
-7.254e-07
1.52921e-06
-6.42884e-07
1.91735e-06
-3.62905e-07
2.19561e-06
-2.56926e-07
2.4954e-06
-2.85992e-07
2.66005e-06
-1.6604e-07
2.35564e-06
2.86727e-07
1.49581e-06
8.29243e-07
2.88998e-07
1.16267e-06
-1.02686e-06
1.25695e-06
-2.32733e-06
1.22391e-06
-3.54426e-06
1.11932e-06
-4.63546e-06
9.70193e-07
-5.57714e-06
7.95621e-07
-6.35277e-06
6.02862e-07
-6.95837e-06
4.04606e-07
-7.39753e-06
2.08427e-07
-7.67291e-06
1.35741e-08
-7.79639e-06
-1.70634e-07
-7.77788e-06
-3.46662e-07
-7.63365e-06
-5.07919e-07
-7.38064e-06
-6.53574e-07
-7.03782e-06
-7.81717e-07
-6.6192e-06
-8.97491e-07
-6.13359e-06
-1.00602e-06
-5.59703e-06
-1.10022e-06
-5.0019e-06
-1.20367e-06
-4.38586e-06
-1.27117e-06
-3.75058e-06
-1.33931e-06
-3.09607e-06
-1.4093e-06
-2.41672e-06
-1.48685e-06
-1.74483e-06
-1.53446e-06
-1.07146e-06
-1.5934e-06
-4.01335e-07
-1.65025e-06
2.53403e-07
-1.69734e-06
9.08015e-07
-1.76253e-06
1.56879e-06
-1.83685e-06
2.21404e-06
-1.89248e-06
2.87252e-06
-1.9801e-06
3.54447e-06
-2.0712e-06
4.21496e-06
-2.15055e-06
4.90825e-06
-2.25756e-06
5.60155e-06
-2.34485e-06
6.31057e-06
-2.45034e-06
6.98873e-06
-2.51308e-06
7.65394e-06
-2.59676e-06
8.26394e-06
-2.64303e-06
8.84259e-06
-2.71569e-06
9.37099e-06
-2.77274e-06
9.79591e-06
-2.7843e-06
1.01032e-05
-2.78475e-06
1.03435e-05
-2.83373e-06
1.05277e-05
-2.89296e-06
1.06721e-05
-2.96458e-06
1.08086e-05
-3.06565e-06
1.09646e-05
-3.18955e-06
1.11331e-05
-3.30212e-06
1.12445e-05
-3.35105e-06
1.12758e-05
-3.3884e-06
1.11974e-05
-3.40318e-06
1.10331e-05
-3.43903e-06
1.08365e-05
-3.52635e-06
1.0659e-05
-3.66068e-06
1.04756e-05
-3.7724e-06
1.03012e-05
-3.9029e-06
1.01379e-05
-4.02418e-06
9.93779e-06
-4.08592e-06
9.73103e-06
-4.1929e-06
9.58548e-06
-4.3733e-06
9.41865e-06
-4.46068e-06
9.19987e-06
-4.53702e-06
8.90364e-06
-4.60956e-06
8.61827e-06
-4.78543e-06
8.53505e-06
-5.1487e-06
8.61928e-06
-5.46864e-06
8.76688e-06
-5.6884e-06
9.0274e-06
-5.94874e-06
9.67667e-06
-6.49228e-06
1.08214e-05
-7.18112e-06
1.19258e-05
-7.40394e-06
1.21708e-05
-6.79779e-06
1.14619e-05
-6.04873e-06
1.02454e-05
-5.61961e-06
9.03193e-06
-5.66975e-06
7.93847e-06
-6.00272e-06
6.96227e-06
-6.24781e-06
4.60343e-06
-4.98424e-06
1.04066e-06
-3.95775e-06
-2.13623e-06
-4.54429e-06
-4.70038e-06
-5.37229e-06
-6.62927e-06
-6.07874e-06
-8.05264e-06
-6.62316e-06
-8.79519e-06
-7.39362e-06
-8.14238e-06
-8.8776e-06
-8.4411e-06
-8.05499e-06
-8.68044e-06
-8.12415e-06
-6.41233e-06
-1.04659e-05
-6.16384e-06
-8.79345e-06
-5.99125e-06
-8.7446e-06
-4.71894e-06
-9.84804e-06
-3.22248e-06
-1.01441e-05
-1.03177e-06
-1.0891e-05
9.21754e-07
-1.07311e-05
2.45932e-06
-1.04164e-05
3.72137e-06
-1.02613e-05
4.59612e-06
-1.00178e-05
5.36828e-06
-1.00915e-05
5.71662e-06
-9.85111e-06
6.09222e-06
-1.00554e-05
6.54081e-06
-1.03103e-05
7.21621e-06
-1.07655e-05
7.97262e-06
-1.11043e-05
8.91331e-06
-1.16039e-05
9.89222e-06
-1.19929e-05
1.0877e-05
-1.2419e-05
1.20751e-05
-1.31071e-05
1.31414e-05
-1.35087e-05
1.48821e-05
-1.48199e-05
1.6392e-05
-1.52376e-05
1.79318e-05
-1.61832e-05
2.1366e-05
-1.90232e-05
2.51984e-05
-2.04556e-05
2.68162e-05
-1.93989e-05
2.64092e-05
-1.87453e-05
2.73903e-05
-2.18564e-05
2.90494e-05
-2.43955e-05
2.94294e-05
-2.43551e-05
2.70726e-05
-2.24237e-05
2.16202e-05
-2.07799e-05
1.62637e-05
-2.28814e-05
1.32682e-05
-2.53909e-05
8.60629e-06
-2.26596e-05
-2.51921e-06
-1.561e-05
-1.35371e-05
-1.65455e-05
-1.86188e-05
-2.20354e-05
-2.02379e-05
-2.49004e-05
-2.00642e-05
-2.66302e-05
-1.51392e-05
-2.95407e-05
-2.16675e-06
-3.71713e-05
1.82331e-06
-2.59435e-05
-3.09748e-08
-1.86206e-05
-4.80195e-06
-1.44736e-05
-8.8185e-06
-1.43536e-05
-1.34695e-05
-1.24391e-05
-1.18369e-05
-1.73746e-05
-1.61194e-07
2.74257e-07
-3.09082e-07
2.17188e-07
-3.08057e-07
-8.97248e-09
-9.10882e-08
-3.50624e-07
3.13153e-07
-6.99405e-07
8.42191e-07
-9.76062e-07
1.43588e-06
-1.1345e-06
2.01524e-06
-1.17479e-06
2.55873e-06
-1.15422e-06
3.04613e-06
-1.06345e-06
3.45198e-06
-8.9556e-07
3.77201e-06
-7.05116e-07
4.01127e-06
-5.29085e-07
4.18204e-06
-3.55131e-07
4.252e-06
-1.22797e-07
4.22126e-06
9.97403e-08
4.12993e-06
2.71424e-07
3.97489e-06
4.48325e-07
3.72477e-06
6.41522e-07
3.41345e-06
7.84419e-07
3.05564e-06
8.82261e-07
2.64279e-06
9.66454e-07
2.21845e-06
9.90077e-07
1.82261e-06
9.64147e-07
1.42967e-06
9.32581e-07
1.01189e-06
8.97078e-07
7.8125e-07
6.94046e-07
8.2682e-07
3.79255e-07
8.43366e-07
1.88246e-07
5.60265e-07
3.31468e-07
1.55128e-07
4.6353e-07
4.68695e-07
-5.5888e-07
1.55292e-06
-1.31242e-06
2.49382e-06
-7.95236e-07
2.66833e-06
-3.49673e-07
2.39006e-06
-3.72839e-07
1.76157e-06
1.95309e-09
6.37791e-07
7.44898e-07
-9.38495e-07
1.32143e-06
-2.79389e-06
1.58026e-06
-4.61544e-06
1.65727e-06
-6.14918e-06
1.80534e-06
-7.35717e-06
2.0048e-06
-8.38496e-06
2.14165e-06
-9.30443e-06
2.10911e-06
-1.01303e-05
1.96204e-06
-1.08439e-05
1.72296e-06
-1.14322e-05
1.42612e-06
-1.18825e-05
1.09009e-06
-1.21963e-05
7.34648e-07
-1.23741e-05
3.72823e-07
-1.24116e-05
7.53479e-09
-1.23009e-05
-3.66698e-07
-1.20645e-05
-7.06356e-07
-1.17296e-05
-1.01395e-06
-1.12971e-05
-1.30718e-06
-1.07882e-05
-1.56534e-06
-1.02063e-05
-1.80403e-06
-9.56044e-06
-2.02291e-06
-8.85386e-06
-2.23249e-06
-8.1225e-06
-2.39374e-06
-7.37417e-06
-2.55842e-06
-6.59752e-06
-2.70065e-06
-5.81373e-06
-2.8245e-06
-5.01334e-06
-2.96195e-06
-4.22538e-06
-3.07636e-06
-3.42043e-06
-3.19635e-06
-2.62054e-06
-3.30757e-06
-1.82799e-06
-3.417e-06
-1.02486e-06
-3.53595e-06
-1.96249e-07
-3.69099e-06
6.04651e-07
-3.80483e-06
1.37195e-06
-3.89689e-06
2.14351e-06
-4.06127e-06
2.94218e-06
-4.25544e-06
3.73546e-06
-4.40804e-06
4.56921e-06
-4.63787e-06
5.37081e-06
-4.7797e-06
6.19494e-06
-4.99089e-06
6.98936e-06
-5.11512e-06
7.78724e-06
-5.29041e-06
8.5283e-06
-5.37355e-06
9.23716e-06
-5.51069e-06
9.9275e-06
-5.64035e-06
1.05117e-05
-5.64996e-06
1.09876e-05
-5.66872e-06
1.13648e-05
-5.74603e-06
1.16374e-05
-5.83055e-06
1.18276e-05
-5.94452e-06
1.19979e-05
-6.14785e-06
1.2202e-05
-6.41881e-06
1.25208e-05
-6.71743e-06
1.28992e-05
-6.87671e-06
1.323e-05
-6.92102e-06
1.33558e-05
-6.85005e-06
1.32781e-05
-6.83688e-06
1.30922e-05
-6.95803e-06
1.28687e-05
-7.17108e-06
1.2609e-05
-7.37749e-06
1.22902e-05
-7.61285e-06
1.19291e-05
-7.82888e-06
1.16023e-05
-8.01621e-06
1.13308e-05
-8.28693e-06
1.10224e-05
-8.57557e-06
1.06535e-05
-8.71373e-06
1.03488e-05
-8.93321e-06
1.01721e-05
-9.26133e-06
1.00836e-05
-9.73426e-06
1.01214e-05
-1.04346e-05
1.03286e-05
-1.10619e-05
1.06013e-05
-1.15086e-05
1.0736e-05
-1.18136e-05
1.09791e-05
-1.25854e-05
1.17355e-05
-1.38354e-05
1.29819e-05
-1.47491e-05
1.3975e-05
-1.42354e-05
1.4045e-05
-1.28975e-05
1.29815e-05
-1.15994e-05
1.15348e-05
-1.13749e-05
9.16712e-06
-1.09646e-05
5.27914e-06
-9.66539e-06
9.3332e-07
-7.94413e-06
-2.37882e-06
-8.14699e-06
-4.80208e-06
-9.88084e-06
-6.576e-06
-1.13954e-05
-7.78712e-06
-1.25523e-05
-8.61446e-06
-1.35965e-05
-8.8145e-06
-1.51834e-05
-8.85703e-06
-1.67555e-05
-9.12422e-06
-1.57886e-05
-8.73117e-06
-1.63744e-05
-6.67327e-06
-2.03669e-05
-5.95539e-06
-1.76715e-05
-5.57401e-06
-1.719e-05
-3.95783e-06
-1.94236e-05
-2.03651e-06
-2.00427e-05
9.99602e-07
-2.18431e-05
3.78883e-06
-2.1538e-05
6.16992e-06
-2.09132e-05
8.3814e-06
-2.06952e-05
1.02654e-05
-2.03261e-05
1.19913e-05
-2.05099e-05
1.28478e-05
-1.98396e-05
1.33367e-05
-2.00253e-05
1.38209e-05
-2.0484e-05
1.47244e-05
-2.14926e-05
1.59368e-05
-2.22863e-05
1.73992e-05
-2.33101e-05
1.84723e-05
-2.37162e-05
1.92585e-05
-2.43602e-05
1.99422e-05
-2.55309e-05
2.02869e-05
-2.6214e-05
2.16961e-05
-2.92111e-05
2.25022e-05
-2.97378e-05
2.34882e-05
-3.19302e-05
2.748e-05
-3.82184e-05
3.22647e-05
-4.12506e-05
3.33808e-05
-3.86884e-05
3.14776e-05
-3.70835e-05
3.27832e-05
-4.42334e-05
3.65897e-05
-5.12106e-05
3.76985e-05
-5.10883e-05
3.3836e-05
-4.52053e-05
2.66798e-05
-4.26303e-05
1.84662e-05
-4.70218e-05
9.68058e-06
-4.72335e-05
-5.11209e-07
-4.10688e-05
-1.28839e-05
-3.23946e-05
-2.10718e-05
-3.7752e-05
-2.39777e-05
-4.59706e-05
-2.2096e-05
-5.47429e-05
-1.95557e-05
-5.568e-05
-1.63231e-05
-5.82963e-05
-4.1643e-06
-7.42617e-05
3.48047e-06
-5.68972e-05
5.6962e-06
-4.25737e-05
2.99505e-06
-3.23774e-05
-3.92269e-07
-3.09978e-05
-5.31951e-06
-2.68127e-05
-2.49587e-05
-1.02866e-05
-6.42775e-08
2.83535e-07
-7.53052e-08
1.63952e-07
1.78489e-07
-3.24868e-07
6.88725e-07
-9.20955e-07
1.33231e-06
-1.4023e-06
1.99213e-06
-1.69476e-06
2.60977e-06
-1.8106e-06
3.15701e-06
-1.78056e-06
3.58038e-06
-1.63353e-06
3.90542e-06
-1.44078e-06
4.14406e-06
-1.18385e-06
4.33406e-06
-9.38426e-07
4.44972e-06
-6.80797e-07
4.50416e-06
-4.45076e-07
4.47875e-06
-1.30452e-07
4.36839e-06
1.87048e-07
4.21162e-06
4.09317e-07
4.04517e-06
6.02797e-07
3.81288e-06
8.78707e-07
3.50898e-06
1.09977e-06
3.18074e-06
1.22756e-06
2.79866e-06
1.368e-06
2.40067e-06
1.4104e-06
2.05153e-06
1.34456e-06
1.73762e-06
1.27208e-06
1.48011e-06
1.1811e-06
1.15371e-06
1.064e-06
5.71119e-07
1.00775e-06
6.47242e-08
7.40705e-07
3.83636e-07
5.35991e-08
1.23427e-06
-3.40837e-07
1.27278e-06
-5.23526e-07
7.25103e-07
-7.07695e-07
-1.03878e-07
5.82051e-08
-1.50605e-06
1.08052e-06
-3.40397e-06
1.56444e-06
-5.18239e-06
1.80855e-06
-6.55929e-06
2.13469e-06
-7.65356e-06
2.41753e-06
-8.73584e-06
2.65403e-06
-9.86162e-06
2.76257e-06
-1.08975e-05
2.80735e-06
-1.17328e-05
2.79196e-06
-1.23465e-05
2.69159e-06
-1.28074e-05
2.49002e-06
-1.3148e-05
2.20589e-06
-1.33843e-05
1.84484e-06
-1.35159e-05
1.42264e-06
-1.35471e-05
9.64782e-07
-1.34808e-05
4.87983e-07
-1.33178e-05
1.25684e-09
-1.30515e-05
-4.94474e-07
-1.27129e-05
-9.68316e-07
-1.2292e-05
-1.42295e-06
-1.17926e-05
-1.83942e-06
-1.12308e-05
-2.22782e-06
-1.06122e-05
-2.57739e-06
-9.93367e-06
-2.91206e-06
-9.20981e-06
-3.21368e-06
-8.4802e-06
-3.4673e-06
-7.72467e-06
-3.69468e-06
-6.94746e-06
-3.92274e-06
-6.17257e-06
-4.1068e-06
-5.3895e-06
-4.28393e-06
-4.6e-06
-4.47504e-06
-3.79199e-06
-4.65773e-06
-3.01095e-06
-4.80371e-06
-2.23145e-06
-4.96938e-06
-1.4496e-06
-5.13935e-06
-6.9568e-07
-5.29048e-06
8.33044e-08
-5.53342e-06
8.71948e-07
-5.72414e-06
1.64559e-06
-5.87109e-06
2.42803e-06
-6.11549e-06
3.23022e-06
-6.40372e-06
4.03391e-06
-6.6345e-06
4.89385e-06
-7.0008e-06
5.69003e-06
-7.17357e-06
6.5334e-06
-7.50484e-06
7.32925e-06
-7.68123e-06
8.0964e-06
-7.91876e-06
8.84071e-06
-8.06582e-06
9.51383e-06
-8.22634e-06
1.0145e-05
-8.40278e-06
1.0747e-05
-8.46607e-06
1.13051e-05
-8.53649e-06
1.1797e-05
-8.6594e-06
1.21809e-05
-8.7501e-06
1.25049e-05
-8.91446e-06
1.27003e-05
-9.11009e-06
1.27594e-05
-9.40877e-06
1.28601e-05
-9.88101e-06
1.30996e-05
-1.02709e-05
1.35588e-05
-1.05331e-05
1.39968e-05
-1.04582e-05
1.41357e-05
-1.03101e-05
1.39846e-05
-1.02865e-05
1.39515e-05
-1.06098e-05
1.39756e-05
-1.09213e-05
1.37649e-05
-1.11145e-05
1.3471e-05
-1.13884e-05
1.32996e-05
-1.17992e-05
1.32346e-05
-1.22817e-05
1.30979e-05
-1.25893e-05
1.28613e-05
-1.27569e-05
1.26762e-05
-1.31223e-05
1.2538e-05
-1.34705e-05
1.25895e-05
-1.40959e-05
1.28536e-05
-1.50915e-05
1.32865e-05
-1.59752e-05
1.3682e-05
-1.65351e-05
1.37875e-05
-1.69412e-05
1.35239e-05
-1.76935e-05
1.32352e-05
-1.89833e-05
1.33073e-05
-2.03268e-05
1.34198e-05
-2.02346e-05
1.31534e-05
-1.88464e-05
1.20456e-05
-1.69868e-05
1.01735e-05
-1.62607e-05
7.20913e-06
-1.49768e-05
3.10146e-06
-1.25557e-05
-6.9329e-07
-1.11923e-05
-3.23494e-06
-1.28804e-05
-5.35052e-06
-1.5246e-05
-6.67502e-06
-1.73647e-05
-7.47199e-06
-1.90222e-05
-8.11351e-06
-2.04566e-05
-8.43455e-06
-2.23928e-05
-8.71151e-06
-2.37876e-05
-8.20569e-06
-2.38459e-05
-8.21056e-06
-2.40107e-05
-7.59084e-06
-2.87146e-05
-6.46614e-06
-2.64245e-05
-6.27547e-06
-2.49166e-05
-4.82803e-06
-2.82982e-05
-3.06318e-06
-2.90845e-05
1.03893e-07
-3.20997e-05
3.18869e-06
-3.1827e-05
5.54403e-06
-3.05517e-05
7.57017e-06
-2.99466e-05
9.75108e-06
-2.97358e-05
1.22615e-05
-3.02233e-05
1.39225e-05
-2.9054e-05
1.52071e-05
-2.93005e-05
1.58451e-05
-2.9794e-05
1.65193e-05
-3.1289e-05
1.74961e-05
-3.25285e-05
1.94784e-05
-3.43711e-05
2.1247e-05
-3.46329e-05
2.27516e-05
-3.53173e-05
2.35115e-05
-3.64143e-05
2.32906e-05
-3.70632e-05
2.51889e-05
-4.22604e-05
2.5682e-05
-4.25354e-05
2.49245e-05
-4.51e-05
2.83762e-05
-5.4447e-05
3.44151e-05
-5.87396e-05
3.59332e-05
-5.48762e-05
3.21323e-05
-5.23216e-05
3.1758e-05
-6.25148e-05
3.66075e-05
-7.21815e-05
3.96088e-05
-7.25448e-05
3.69809e-05
-6.54711e-05
2.91558e-05
-6.27875e-05
1.86585e-05
-6.76644e-05
8.15315e-06
-6.4993e-05
-4.26366e-06
-5.53278e-05
-1.48798e-05
-5.00682e-05
-1.96205e-05
-5.97447e-05
-2.31325e-05
-6.79204e-05
-2.26101e-05
-8.05386e-05
-1.70768e-05
-8.22393e-05
-1.1125e-05
-8.52035e-05
-5.68923e-06
-9.92533e-05
-6.60911e-07
-8.33079e-05
3.58668e-06
-6.74566e-05
3.46063e-06
-5.23418e-05
3.33634e-06
-4.93555e-05
1.10243e-06
-4.25549e-05
-3.84768e-05
-2.77041e-06
1.11616e-08
2.04043e-07
2.33486e-07
-1.37167e-07
8.25978e-07
-9.95625e-07
1.58361e-06
-1.75714e-06
2.31285e-06
-2.21034e-06
2.91485e-06
-2.37594e-06
3.36582e-06
-2.33941e-06
3.62097e-06
-2.11079e-06
3.77862e-06
-1.86348e-06
3.84253e-06
-1.5738e-06
3.8847e-06
-1.29361e-06
3.90862e-06
-1.02391e-06
3.92755e-06
-7.53652e-07
3.88603e-06
-4.55453e-07
3.82503e-06
-1.20463e-07
3.78766e-06
1.78974e-07
3.73534e-06
4.22345e-07
3.64067e-06
6.66477e-07
3.43203e-06
1.06226e-06
3.14324e-06
1.3702e-06
2.83529e-06
1.52408e-06
2.48832e-06
1.70363e-06
2.05859e-06
1.83782e-06
1.57075e-06
1.83948e-06
1.13552e-06
1.72676e-06
6.89845e-07
1.65571e-06
-1.17589e-07
1.88491e-06
-7.88542e-07
1.69311e-06
-6.55429e-07
6.17567e-07
-2.38062e-07
-3.36914e-07
-2.66818e-07
-2.76176e-07
-1.48653e-06
7.27226e-07
-3.55235e-06
1.41514e-06
-5.30584e-06
1.83543e-06
-6.60244e-06
2.38776e-06
-7.81042e-06
2.77617e-06
-9.03526e-06
3.03101e-06
-1.01531e-05
3.24429e-06
-1.11114e-05
3.35934e-06
-1.18846e-05
3.40079e-06
-1.25465e-05
3.39058e-06
-1.30895e-05
3.30689e-06
-1.34985e-05
3.14617e-06
-1.37778e-05
2.90377e-06
-1.39413e-05
2.57087e-06
-1.40117e-05
2.17769e-06
-1.4003e-05
1.71893e-06
-1.39258e-05
1.20458e-06
-1.37731e-05
6.46588e-07
-1.35428e-05
6.79033e-08
-1.32341e-05
-5.23921e-07
-1.28611e-05
-1.11183e-06
-1.24102e-05
-1.69201e-06
-1.18922e-05
-2.24376e-06
-1.13252e-05
-2.74056e-06
-1.06938e-05
-3.22526e-06
-1.00029e-05
-3.66827e-06
-9.29723e-06
-4.05226e-06
-8.57018e-06
-4.40999e-06
-7.82421e-06
-4.71954e-06
-7.03276e-06
-5.03076e-06
-6.2574e-06
-5.28125e-06
-5.4586e-06
-5.52854e-06
-4.67093e-06
-5.73398e-06
-3.90178e-06
-5.94833e-06
-3.13477e-06
-6.17226e-06
-2.36084e-06
-6.37078e-06
-1.57617e-06
-6.59479e-06
-8.20181e-07
-6.78726e-06
-1.04862e-07
-6.95038e-06
6.1268e-07
-7.2513e-06
1.34408e-06
-7.51848e-06
2.06996e-06
-7.72328e-06
2.81446e-06
-8.05377e-06
3.57205e-06
-8.42558e-06
4.35782e-06
-8.75457e-06
5.22874e-06
-9.27551e-06
6.02613e-06
-9.47531e-06
6.88149e-06
-9.92439e-06
7.72598e-06
-1.01738e-05
8.48249e-06
-1.04248e-05
9.21322e-06
-1.06292e-05
9.87361e-06
-1.08104e-05
1.04933e-05
-1.10375e-05
1.10803e-05
-1.11724e-05
1.16044e-05
-1.12776e-05
1.20778e-05
-1.14567e-05
1.24746e-05
-1.16037e-05
1.28712e-05
-1.18805e-05
1.32017e-05
-1.2079e-05
1.33351e-05
-1.22622e-05
1.32682e-05
-1.26481e-05
1.31269e-05
-1.31287e-05
1.32338e-05
-1.37457e-05
1.37488e-05
-1.40168e-05
1.40914e-05
-1.38305e-05
1.3924e-05
-1.36222e-05
1.38668e-05
-1.40306e-05
1.4038e-05
-1.43985e-05
1.39896e-05