/*--------------------------------*- C++ -*----------------------------------*\
| =========                 |                                                 |
| \\      /  F ield         | OpenFOAM: The Open Source CFD Toolbox           |
|  \\    /   O peration     | Version:  dev                                   |
|   \\  /    A nd           | Web:      http://www.openfoam.org               |
|    \\/     M anipulation  |                                                 |
\*---------------------------------------------------------------------------*/
FoamFile
{
    version     2.0;
    format      ascii;
    class       surfaceScalarField;
    object      phi_0;
    location    "9.162";
}
// * * * * * * * * * * * * * * * * * * * * * * * * * * * * * * * * * * * * * //

dimensions      [1 0 -1 0 0 0 0];

internalField   nonuniform List<scalar> 
24170
(
1.88532e-06
6.11942e-07
7.21543e-07
5.45967e-08
1.11564e-07
-4.41886e-07
-2.62486e-07
-6.21691e-07
-5.57833e-07
-6.42236e-07
-6.81299e-07
-7.5988e-07
-9.73782e-07
-5.35086e-07
-9.2721e-07
-8.19951e-07
-1.19375e-06
-4.53097e-07
-9.69932e-07
-8.90315e-07
-1.23266e-06
-3.53337e-07
-7.69943e-07
-1.03155e-06
-9.73921e-07
-3.19638e-07
-6.12505e-08
-1.3954e-06
2.55982e-07
-7.59024e-07
3.56062e-06
-3.71047e-06
6.36694e-06
-3.18332e-06
1.24053e-06
4.80091e-06
3.46796e-06
-1.49355e-07
2.50754e-06
-1.78702e-07
1.72394e-06
-8.00515e-07
1.07096e-06
-1.05094e-06
5.7519e-07
-1.16804e-06
4.22129e-08
-1.18778e-06
-2.54226e-07
-1.13884e-06
-5.16211e-07
-1.39907e-06
-7.22956e-07
-1.02729e-06
-6.26402e-07
-1.71123e-06
-7.97808e-07
-8.49499e-07
-2.58712e-07
-2.18963e-06
-6.21095e-07
-5.23588e-07
1.76353e-07
-2.71974e-06
-3.3819e-08
-1.02833e-06
1.51526e-06
-5.70877e-06
1.91187e-06
-3.99165e-06
-2.56912e-07
3.04178e-06
4.38446e-06
-1.42835e-06
3.79511e-06
-9.02819e-07
3.25545e-06
-1.51627e-06
2.61531e-06
-1.60196e-06
2.06192e-06
-1.73856e-06
1.53865e-06
-1.72179e-06
1.15509e-06
-1.74641e-06
8.65415e-07
-2.03435e-06
6.87515e-07
-1.70999e-06
6.72015e-07
-2.49171e-06
6.04901e-07
-1.51815e-06
9.79281e-07
-3.24379e-06
8.00961e-07
-9.69743e-07
1.46539e-06
-3.96194e-06
1.44397e-06
-1.53542e-06
1.80176e-06
-6.56059e-06
1.1929e-06
-3.83826e-06
5.82947e-09
5.15976e-07
4.55108e-06
-2.79915e-06
4.53441e-06
-2.32888e-06
4.1441e-06
-2.50356e-06
3.87119e-06
-2.63587e-06
3.25055e-06
-2.35111e-06
3.21752e-06
-2.84814e-06
2.55886e-06
-2.17548e-06
2.65051e-06
-3.13967e-06
2.08715e-06
-2.09068e-06
2.25035e-06
-3.52763e-06
1.68914e-06
-1.76421e-06
1.94524e-06
-4.24396e-06
1.6398e-06
-1.35023e-06
1.9177e-06
-4.86966e-06
1.67556e-06
-1.87072e-06
1.73604e-06
-7.14953e-06
1.0003e-06
-3.59837e-06
5.49463e-07
-2.24322e-09
4.89478e-06
-3.95633e-06
5.35086e-06
-4.36176e-06
4.67306e-06
-3.33392e-06
4.87775e-06
-4.26947e-06
4.0467e-06
-2.8702e-06
4.23366e-06
-4.30229e-06
3.44997e-06
-2.58195e-06
3.55229e-06
-4.34937e-06
2.83718e-06
-2.40784e-06
2.96416e-06
-4.60819e-06
2.32909e-06
-2.01178e-06
2.37873e-06
-5.1056e-06
2.0534e-06
-1.77222e-06
1.95469e-06
-5.45889e-06
1.53628e-06
-2.08428e-06
1.08611e-06
-7.26682e-06
-7.99911e-07
-2.24626e-06
-5.97951e-07
-1.44819e-07
5.00754e-06
-5.02471e-06
5.32807e-06
-6.40154e-06
4.48045e-06
-4.13004e-06
4.70663e-06
-6.05343e-06
3.93974e-06
-3.57454e-06
4.12795e-06
-5.87168e-06
3.48047e-06
-3.23163e-06
3.55103e-06
-5.62732e-06
2.93036e-06
-2.91147e-06
3.05188e-06
-5.77017e-06
2.55091e-06
-2.47225e-06
2.53102e-06
-5.97049e-06
2.24197e-06
-2.29641e-06
2.1041e-06
-6.07053e-06
1.81495e-06
-2.48454e-06
8.65653e-07
-6.9398e-06
-8.46293e-07
-1.1127e-06
-2.37002e-06
3.93224e-07
5.75712e-06
-6.38238e-06
5.80622e-06
-8.31327e-06
4.95006e-06
-5.05739e-06
4.96111e-06
-7.75266e-06
4.27359e-06
-4.48286e-06
4.29927e-06
-7.39349e-06
3.68347e-06
-4.02096e-06
3.74958e-06
-7.00288e-06
3.21025e-06
-3.5897e-06
3.25373e-06
-6.94105e-06
2.99226e-06
-3.25187e-06
2.83828e-06
-6.77341e-06
2.80207e-06
-3.13964e-06
2.53384e-06
-6.60872e-06
2.37756e-06
-3.06281e-06
1.12113e-06
-6.36007e-06
9.32936e-07
-1.55698e-06
-4.08405e-06
2.07978e-06
4.58386e-06
-7.3173e-06
4.58217e-06
-9.73954e-06
4.04352e-06
-5.88608e-06
3.9436e-06
-8.94751e-06
3.45502e-06
-5.21661e-06
3.3826e-06
-8.46751e-06
2.95963e-06
-4.67204e-06
2.87451e-06
-7.91892e-06
2.66772e-06
-4.31321e-06
2.45893e-06
-7.593e-06
2.46482e-06
-4.05294e-06
2.19595e-06
-7.2352e-06
2.28375e-06
-3.89779e-06
1.96534e-06
-6.90427e-06
1.94392e-06
-3.60235e-06
1.2806e-06
-6.21085e-06
1.73611e-06
-2.48533e-06
-4.4453e-06
1.65847e-06
5.57695e-06
-8.60372e-06
5.39143e-06
-1.11873e-05
4.80559e-06
-6.86107e-06
4.55312e-06
-1.0174e-05
4.05572e-06
-6.11514e-06
3.76477e-06
-9.48618e-06
3.53382e-06
-5.66702e-06
3.17839e-06
-8.70499e-06
3.14104e-06
-5.3354e-06
2.7985e-06
-8.23045e-06
2.87997e-06
-5.03867e-06
2.4891e-06
-7.67669e-06
2.58625e-06
-4.75581e-06
2.16045e-06
-7.17628e-06
2.1955e-06
-4.27572e-06
1.679e-06
-6.28172e-06
2.11906e-06
-3.45798e-06
-4.72673e-06
1.90429e-06
6.56134e-06
-9.95381e-06
6.09827e-06
-1.25742e-05
5.57868e-06
-8.11292e-06
5.04626e-06
-1.13157e-05
4.75934e-06
-7.41101e-06
4.15646e-06
-1.03663e-05
4.03648e-06
-6.9364e-06
3.539e-06
-9.49983e-06
3.59101e-06
-6.58661e-06
3.11788e-06
-8.86393e-06
3.23976e-06
-6.18055e-06
2.77529e-06
-8.14967e-06
2.91773e-06
-5.7562e-06
2.4412e-06
-7.48423e-06
2.57307e-06
-5.12448e-06
2.16667e-06
-6.53276e-06
2.56316e-06
-4.45495e-06
-5.14787e-06
2.43493e-06
7.71609e-06
-1.15778e-05
6.93013e-06
-1.38684e-05
6.61217e-06
-9.78203e-06
5.77732e-06
-1.23627e-05
5.55799e-06
-8.96534e-06
4.77379e-06
-1.12463e-05
4.70552e-06
-8.42244e-06
4.0724e-06
-1.03128e-05
4.15289e-06
-8.00623e-06
3.61719e-06
-9.56379e-06
3.78789e-06
-7.48649e-06
3.30578e-06
-8.71009e-06
3.50196e-06
-6.90637e-06
2.9971e-06
-7.85079e-06
3.24234e-06
-6.1635e-06
2.85197e-06
-6.86803e-06
3.23881e-06
-5.5043e-06
-5.64227e-06
3.1281e-06
9.05529e-06
-1.35381e-05
8.01225e-06
-1.51304e-05
7.70678e-06
-1.16767e-05
6.64116e-06
-1.33776e-05
6.48939e-06
-1.07714e-05
5.58468e-06
-1.21763e-05
5.60408e-06
-1.01528e-05
4.88776e-06
-1.11854e-05
5.00703e-06
-9.59428e-06
4.39413e-06
-1.03041e-05
4.53302e-06
-8.86685e-06
3.97214e-06
-9.2858e-06
4.10375e-06
-8.07666e-06
3.58654e-06
-8.28146e-06
3.82274e-06
-7.2617e-06
3.47511e-06
-7.30449e-06
3.84192e-06
-6.58577e-06
-6.33105e-06
3.87937e-06
1.05943e-05
-1.57511e-05
9.33028e-06
-1.63685e-05
8.98599e-06
-1.37182e-05
7.87308e-06
-1.45172e-05
7.71094e-06
-1.27241e-05
6.77117e-06
-1.32142e-05
6.64898e-06
-1.18716e-05
5.81297e-06
-1.20563e-05
5.74733e-06
-1.1103e-05
5.0687e-06
-1.1073e-05
5.04959e-06
-1.01721e-05
4.54005e-06
-9.98467e-06
4.62329e-06
-9.25889e-06
4.29173e-06
-8.95015e-06
4.45962e-06
-8.33755e-06
4.33304e-06
-8.00047e-06
4.55933e-06
-7.55846e-06
-7.20564e-06
4.75657e-06
1.24624e-05
-1.79202e-05
1.09437e-05
-1.74844e-05
1.0369e-05
-1.56516e-05
9.1053e-06
-1.56164e-05
8.73371e-06
-1.45661e-05
7.77051e-06
-1.43142e-05
7.4612e-06
-1.34783e-05
6.69259e-06
-1.30572e-05
6.36563e-06
-1.24031e-05
5.76398e-06
-1.19589e-05
5.55438e-06
-1.13181e-05
5.18394e-06
-1.08454e-05
5.12408e-06
-1.03119e-05
5.0032e-06
-9.83473e-06
5.09706e-06
-9.33826e-06
5.16308e-06
-8.88363e-06
5.32329e-06
-8.45497e-06
-8.07492e-06
5.52914e-06
1.39383e-05
-1.9578e-05
1.25076e-05
-1.86961e-05
1.18305e-05
-1.74879e-05
1.08471e-05
-1.69931e-05
1.02756e-05
-1.61968e-05
9.47113e-06
-1.55539e-05
8.91654e-06
-1.48113e-05
8.24199e-06
-1.4115e-05
7.7081e-06
-1.34521e-05
7.17672e-06
-1.28639e-05
6.78064e-06
-1.22192e-05
6.44033e-06
-1.16715e-05
6.22221e-06
-1.11389e-05
6.10562e-06
-1.06518e-05
6.08643e-06
-1.01514e-05
6.13831e-06
-9.6758e-06
6.24779e-06
-9.22237e-06
-8.79056e-06
6.3771e-06
1.60651e-05
-2.05838e-05
1.47805e-05
-1.98715e-05
1.38251e-05
-1.88636e-05
1.2776e-05
-1.81194e-05
1.18519e-05
-1.72843e-05
1.09459e-05
-1.64988e-05
1.01678e-05
-1.57248e-05
9.50134e-06
-1.49835e-05
8.95683e-06
-1.42903e-05
8.47965e-06
-1.36238e-05
8.15548e-06
-1.29928e-05
7.90077e-06
-1.23841e-05
7.72667e-06
-1.18123e-05
7.61134e-06
-1.12737e-05
7.55909e-06
-1.07388e-05
7.57928e-06
-1.02481e-05
7.66399e-06
-9.77978e-06
-9.34115e-06
7.809e-06
1.93309e-05
-2.09974e-05
1.7767e-05
-2.02843e-05
1.63209e-05
-1.9268e-05
1.48753e-05
-1.838e-05
1.35337e-05
-1.74913e-05
1.23546e-05
-1.67155e-05
1.14029e-05
-1.60164e-05
1.06589e-05
-1.53362e-05
1.00815e-05
-1.4666e-05
9.63055e-06
-1.39903e-05
9.29568e-06
-1.3346e-05
9.06356e-06
-1.27215e-05
8.91184e-06
-1.21207e-05
8.84124e-06
-1.15647e-05
8.85066e-06
-1.10216e-05
8.91236e-06
-1.05082e-05
9.003e-06
-1.00035e-05
-9.53558e-06
9.12143e-06
1.88911e-05
-2.06845e-05
1.75727e-05
-1.99774e-05
1.63191e-05
-1.89213e-05
1.51567e-05
-1.80159e-05
1.41191e-05
-1.71356e-05
1.32177e-05
-1.63815e-05
1.24499e-05
-1.57015e-05
1.17798e-05
-1.50099e-05
1.11996e-05
-1.43225e-05
1.06757e-05
-1.3603e-05
1.02051e-05
-1.29191e-05
9.81253e-06
-1.22874e-05
9.49779e-06
-1.16875e-05
9.28091e-06
-1.11634e-05
9.16241e-06
-1.06611e-05
9.12483e-06
-1.01807e-05
9.15888e-06
-9.70828e-06
-9.24739e-06
9.23089e-06
1.70164e-05
-1.95341e-05
1.56617e-05
-1.86965e-05
1.45468e-05
-1.7822e-05
1.36044e-05
-1.70248e-05
1.27733e-05
-1.61911e-05
1.19879e-05
-1.54141e-05
1.12434e-05
-1.47079e-05
1.05927e-05
-1.40444e-05
1.00556e-05
-1.34076e-05
9.6531e-06
-1.27644e-05
9.35666e-06
-1.21322e-05
9.12984e-06
-1.15237e-05
8.95944e-06
-1.09398e-05
8.79544e-06
-1.03876e-05
8.67846e-06
-9.90683e-06
8.59263e-06
-9.43764e-06
8.54516e-06
-8.99163e-06
-8.5697e-06
8.54378e-06
1.49822e-05
-1.75916e-05
1.38452e-05
-1.70029e-05
1.2849e-05
-1.62515e-05
1.20007e-05
-1.55772e-05
1.12741e-05
-1.48337e-05
1.05987e-05
-1.40701e-05
9.98086e-06
-1.3388e-05
9.45853e-06
-1.27838e-05
9.02722e-06
-1.22057e-05
8.71456e-06
-1.16539e-05
8.49934e-06
-1.10926e-05
8.35405e-06
-1.05343e-05
8.26922e-06
-9.99449e-06
8.22002e-06
-9.46714e-06
8.15896e-06
-8.96882e-06
8.12956e-06
-8.53077e-06
8.11975e-06
-8.1091e-06
-7.72634e-06
8.14037e-06
1.37309e-05
-1.56194e-05
1.28066e-05
-1.51497e-05
1.20209e-05
-1.45342e-05
1.13029e-05
-1.39252e-05
1.06271e-05
-1.32151e-05
1.00023e-05
-1.24904e-05
9.44366e-06
-1.18601e-05
8.93596e-06
-1.1293e-05
8.49135e-06
-1.07667e-05
8.10923e-06
-1.02664e-05
7.80523e-06
-9.77735e-06
7.58514e-06
-9.30043e-06
7.43532e-06
-8.83071e-06
7.35941e-06
-8.38243e-06
7.32717e-06
-7.93506e-06
7.32312e-06
-7.53748e-06
7.35909e-06
-7.17119e-06
-6.82323e-06
7.4116e-06
1.2186e-05
-1.3448e-05
1.13373e-05
-1.31778e-05
1.06006e-05
-1.26792e-05
9.90166e-06
-1.21189e-05
9.27786e-06
-1.14882e-05
8.78042e-06
-1.08916e-05
8.35503e-06
-1.03341e-05
7.98244e-06
-9.81929e-06
7.6529e-06
-9.33678e-06
7.35512e-06
-8.8707e-06
7.11114e-06
-8.43972e-06
6.91769e-06
-8.02083e-06
6.78319e-06
-7.62097e-06
6.70391e-06
-7.24105e-06
6.69612e-06
-6.88192e-06
6.70686e-06
-6.52208e-06
6.75384e-06
-6.2139e-06
-5.91664e-06
6.82729e-06
1.08354e-05
-1.15633e-05
1.01982e-05
-1.13327e-05
9.60218e-06
-1.08904e-05
9.02261e-06
-1.0365e-05
8.49503e-06
-9.79927e-06
8.02986e-06
-9.2754e-06
7.62248e-06
-8.78379e-06
7.26978e-06
-8.33194e-06
6.95782e-06
-7.89827e-06
6.69277e-06
-7.4891e-06
6.46498e-06
-7.10687e-06
6.28355e-06
-6.74823e-06
6.1538e-06
-6.41591e-06
6.07625e-06
-6.10672e-06
6.04363e-06
-5.8131e-06
6.07116e-06
-5.53628e-06
6.1171e-06
-5.27167e-06
-5.0187e-06
6.18084e-06
9.76149e-06
-9.44882e-06
9.16661e-06
-9.52586e-06
8.63249e-06
-9.16186e-06
8.0924e-06
-8.65274e-06
7.57815e-06
-8.12981e-06
7.13006e-06
-7.68684e-06
6.76259e-06
-7.2895e-06
6.46494e-06
-6.92005e-06
6.2344e-06
-6.56654e-06
6.04794e-06
-6.21566e-06
5.90106e-06
-5.88809e-06
5.78791e-06
-5.58034e-06
5.70419e-06
-5.29629e-06
5.64939e-06
-5.03667e-06
5.61656e-06
-4.78772e-06
5.60054e-06
-4.55195e-06
5.60151e-06
-4.33021e-06
-4.12249e-06
5.62022e-06
8.70589e-06
-7.80487e-06
8.20781e-06
-7.85568e-06
7.75645e-06
-7.5614e-06
7.35409e-06
-7.12461e-06
6.99086e-06
-6.65979e-06
6.66096e-06
-6.26703e-06
6.35324e-06
-5.90744e-06
6.07622e-06
-5.58421e-06
5.83898e-06
-5.28559e-06
5.64613e-06
-4.99499e-06
5.49681e-06
-4.72779e-06
5.3922e-06
-4.48266e-06
5.32539e-06
-4.25607e-06
5.28952e-06
-4.04831e-06
5.27769e-06
-3.84621e-06
5.28428e-06
-3.6529e-06
5.29889e-06
-3.46479e-06
-3.29375e-06
5.32362e-06
7.88656e-06
-6.30734e-06
7.50241e-06
-6.36982e-06
7.12964e-06
-6.11005e-06
6.73259e-06
-5.67338e-06
6.36929e-06
-5.26169e-06
6.03567e-06
-4.91612e-06
5.74181e-06
-4.61274e-06
5.49482e-06
-4.35224e-06
5.29537e-06
-4.11705e-06
5.1401e-06
-3.88695e-06
5.01492e-06
-3.66666e-06
4.91582e-06
-3.46564e-06
4.83766e-06
-3.27912e-06
4.77697e-06
-3.10929e-06
4.73545e-06
-2.94826e-06
4.71914e-06
-2.80311e-06
4.72571e-06
-2.6622e-06
-2.52875e-06
4.745e-06
7.01848e-06
-4.72876e-06
6.75239e-06
-5.08937e-06
6.42551e-06
-4.79082e-06
6.07474e-06
-4.35303e-06
5.72909e-06
-3.96517e-06
5.38744e-06
-3.64051e-06
5.06448e-06
-3.37178e-06
4.77396e-06
-3.15922e-06
4.5376e-06
-2.99372e-06
4.35357e-06
-2.83168e-06
4.21233e-06
-2.67049e-06
4.10027e-06
-2.51577e-06
4.00768e-06
-2.36688e-06
3.92479e-06
-2.22603e-06
3.85863e-06
-2.10218e-06
3.81231e-06
-1.99827e-06
3.78135e-06
-1.89502e-06
-1.79957e-06
3.76541e-06
6.39712e-06
-3.37726e-06
6.13677e-06
-3.90632e-06
5.72111e-06
-3.47235e-06
5.24695e-06
-2.99738e-06
4.76751e-06
-2.62191e-06
4.3058e-06
-2.33104e-06
3.88169e-06
-2.11495e-06
3.49741e-06
-1.95676e-06
3.16476e-06
-1.85746e-06
2.87675e-06
-1.75477e-06
2.63603e-06
-1.65605e-06
2.43578e-06
-1.55774e-06
2.27487e-06
-1.465e-06
2.15058e-06
-1.37855e-06
2.05897e-06
-1.30614e-06
1.97685e-06
-1.23131e-06
1.92639e-06
-1.18003e-06
-1.12344e-06
1.89385e-06
5.6135e-06
-2.49295e-06
4.90226e-06
-2.3647e-06
4.0097e-06
-1.76621e-06
3.19602e-06
-1.38911e-06
2.50534e-06
-1.15274e-06
1.9413e-06
-1.00331e-06
1.48485e-06
-9.08731e-07
1.1137e-06
-8.49305e-07
7.79494e-07
-8.00442e-07
5.01005e-07
-7.67019e-07
2.70775e-07
-7.30535e-07
8.67555e-08
-6.93048e-07
-5.58942e-08
-6.57067e-07
-1.6422e-07
-6.21173e-07
-2.46666e-07
-5.91698e-07
-3.01402e-07
-5.62315e-07
-3.36224e-07
-5.49312e-07
-5.26892e-07
-3.55826e-07
3.61098e-06
1.95984e-06
8.97909e-07
2.01215e-07
-2.70661e-07
-6.04551e-07
-8.55034e-07
-1.05708e-06
-1.22141e-06
-1.36357e-06
-1.48094e-06
-1.57312e-06
-1.64233e-06
-1.68946e-06
-1.72169e-06
-1.73977e-06
-1.76075e-06
-1.77552e-06
-1.52168e-07
2.95231e-07
-2.69621e-07
2.5952e-07
-3.04205e-07
1.80085e-07
-2.05569e-07
5.08032e-08
6.18064e-08
-1.13703e-07
4.88102e-07
-2.6801e-07
1.01343e-06
-3.62449e-07
1.59967e-06
-4.18355e-07
2.21003e-06
-4.36772e-07
2.79353e-06
-4.04039e-07
3.2994e-06
-3.20092e-07
3.71207e-06
-2.20316e-07
4.03903e-06
-1.28211e-07
4.27019e-06
-2.58178e-08
4.38217e-06
1.00992e-07
4.38597e-06
2.17186e-07
4.29324e-06
3.2036e-07
4.09987e-06
4.27778e-07
3.82369e-06
5.17699e-07
3.48077e-06
5.90304e-07
3.09378e-06
6.40135e-07
2.68896e-06
6.6506e-07
2.28401e-06
6.72946e-07
1.88649e-06
6.71931e-07
1.53097e-06
6.33952e-07
1.24089e-06
5.72499e-07
9.69692e-07
5.59584e-07
7.48972e-07
5.14453e-07
7.50038e-07
2.9281e-07
8.9116e-07
1.49384e-07
1.02338e-06
1.59671e-07
1.45108e-06
-1.39718e-07
1.81687e-06
-7.60304e-08
1.83633e-06
2.8298e-07
2.24363e-06
-1.03744e-07
3.09819e-06
-5.72116e-07
3.81466e-06
-4.6405e-07
4.23098e-06
-1.75006e-07
4.55309e-06
-7.91559e-08
4.89258e-06
-1.05849e-07
5.10381e-06
5.85829e-10
4.81247e-06
4.86744e-07
3.97488e-06
1.02275e-06
2.8054e-06
1.34089e-06
1.53524e-06
1.4269e-06
2.83181e-07
1.39201e-06
-8.84696e-07
1.28759e-06
-1.92809e-06
1.13992e-06
-2.82454e-06
9.67287e-07
-3.55805e-06
7.7685e-07
-4.12523e-06
5.81353e-07
-4.53012e-06
3.88706e-07
-4.77853e-06
1.99791e-07
-4.87724e-06
1.6038e-08
-4.83717e-06
-1.58114e-07
-4.67534e-06
-3.16625e-07
-4.40963e-06
-4.58745e-07
-4.05943e-06
-5.83017e-07
-3.63829e-06
-6.9478e-07
-3.15532e-06
-7.99318e-07
-2.62641e-06
-8.89302e-07
-2.04375e-06
-9.88731e-07
-1.44494e-06
-1.05211e-06
-8.31124e-07
-1.11568e-06
-2.0165e-07
-1.18151e-06
4.46179e-07
-1.25216e-06
1.08441e-06
-1.2959e-06
1.72232e-06
-1.35051e-06
2.35273e-06
-1.39985e-06
2.96677e-06
-1.44231e-06
3.57886e-06
-1.50152e-06
4.1958e-06
-1.56985e-06
4.7976e-06
-1.62059e-06
5.41294e-06
-1.70275e-06
6.0405e-06
-1.78654e-06
6.66688e-06
-1.85984e-06
7.31441e-06
-1.95883e-06
7.96178e-06
-2.03969e-06
8.62226e-06
-2.13666e-06
9.2515e-06
-2.19364e-06
9.86497e-06
-2.27024e-06
1.04223e-05
-2.31253e-06
1.09468e-05
-2.38207e-06
1.14157e-05
-2.43356e-06
1.17776e-05
-2.44352e-06
1.20216e-05
-2.44714e-06
1.21963e-05
-2.49885e-06
1.23107e-05
-2.56069e-06
1.23806e-05
-2.63638e-06
1.24351e-05
-2.74032e-06
1.24971e-05
-2.86377e-06
1.25534e-05
-2.97176e-06
1.25374e-05
-3.02094e-06
1.24312e-05
-3.06403e-06
1.22114e-05
-3.08968e-06
1.19045e-05
-3.13773e-06
1.15617e-05
-3.23445e-06
1.12305e-05
-3.37295e-06
1.08875e-05
-3.48847e-06
1.05514e-05
-3.62266e-06
1.02245e-05
-3.74432e-06
9.86273e-06
-3.80788e-06
9.50129e-06
-3.91743e-06
9.20811e-06
-4.095e-06
8.90617e-06
-4.18137e-06
8.56925e-06
-4.25664e-06
8.17624e-06
-4.32558e-06
7.81923e-06
-4.49377e-06
7.68153e-06
-4.83518e-06
7.72404e-06
-5.12498e-06
7.85633e-06
-5.32326e-06
8.14949e-06
-5.58058e-06
8.86938e-06
-6.10884e-06
1.00725e-05
-6.7299e-06
1.12072e-05
-6.85982e-06
1.15294e-05
-6.23138e-06
1.10089e-05
-5.53084e-06
1.00901e-05
-5.16448e-06
9.2226e-06
-5.22987e-06
8.50293e-06
-5.56238e-06
7.90133e-06
-5.80028e-06
5.97067e-06
-4.58746e-06
2.8954e-06
-3.62684e-06
1.96569e-07
-4.21034e-06
-1.952e-06
-4.99786e-06
-3.54042e-06
-5.70936e-06
-4.6667e-06
-6.27582e-06
-5.19825e-06
-7.0292e-06
-4.38196e-06
-8.50288e-06
-4.45414e-06
-7.80206e-06
-4.55704e-06
-7.89618e-06
-2.34788e-06
-1.01388e-05
-1.98037e-06
-8.64861e-06
-1.69001e-06
-8.70996e-06
-4.34093e-07
-9.76667e-06
1.04302e-06
-1.01212e-05
3.11798e-06
-1.08374e-05
4.96819e-06
-1.07604e-05
6.45297e-06
-1.05604e-05
7.69479e-06
-1.04963e-05
8.59134e-06
-1.03422e-05
9.38794e-06
-1.04597e-05
9.8183e-06
-1.031e-05
1.02866e-05
-1.05588e-05
1.08313e-05
-1.08595e-05
1.15716e-05
-1.13355e-05
1.23862e-05
-1.17263e-05
1.33597e-05
-1.22663e-05
1.4392e-05
-1.27482e-05
1.54452e-05
-1.32718e-05
1.66917e-05
-1.40245e-05
1.78885e-05
-1.45964e-05
1.95956e-05
-1.58334e-05
2.11075e-05
-1.63554e-05
2.26993e-05
-1.74288e-05
2.5806e-05
-1.99642e-05
2.89953e-05
-2.1073e-05
3.02995e-05
-2.0206e-05
3.00347e-05
-1.98555e-05
3.08474e-05
-2.25406e-05
3.17931e-05
-2.42816e-05
3.15596e-05
-2.3949e-05
2.9118e-05
-2.22394e-05
2.396e-05
-2.07402e-05
1.87076e-05
-2.25411e-05
1.55071e-05
-2.49694e-05
1.09408e-05
-2.28889e-05
5.94605e-07
-1.67945e-05
-9.99901e-06
-1.77786e-05
-1.5351e-05
-2.32832e-05
-1.78905e-05
-2.59839e-05
-1.89238e-05
-2.81989e-05
-1.55241e-05
-3.11869e-05
-5.23398e-06
-3.79566e-05
-2.52498e-06
-2.8179e-05
-4.9404e-06
-2.16367e-05
-9.8235e-06
-1.79305e-05
-1.4052e-05
-1.76351e-05
-1.87555e-05
-1.57189e-05
-1.50654e-05
-2.26347e-05
-1.13083e-07
5.45972e-07
-2.08003e-07
4.87928e-07
-1.52691e-07
2.61612e-07
1.19297e-07
-7.99598e-08
5.79775e-07
-4.28738e-07
1.16564e-06
-7.04363e-07
1.81704e-06
-8.6056e-07
2.45464e-06
-8.98785e-07
3.0578e-06
-8.76312e-07
3.60556e-06
-7.81989e-07
4.07163e-06
-6.10032e-07
4.45248e-06
-4.17487e-07
4.75311e-06
-2.39439e-07
4.9843e-06
-6.06078e-08
5.11452e-06
1.74909e-07
5.14526e-06
3.97975e-07
5.11729e-06
5.70655e-07
5.02495e-06
7.50678e-07
4.83831e-06
9.45821e-07
4.59336e-06
1.08858e-06
4.30145e-06
1.18719e-06
3.95497e-06
1.27263e-06
3.59944e-06
1.29531e-06
3.27114e-06
1.26984e-06
2.94461e-06
1.24233e-06
2.59519e-06
1.20713e-06
2.43437e-06
1.00153e-06
2.54652e-06
6.95679e-07
2.61761e-06
5.18468e-07
2.3801e-06
6.71564e-07
2.04979e-06
7.87234e-07
2.46818e-06
-2.58512e-07
3.61583e-06
-9.67581e-07
4.56456e-06
-4.09022e-07
4.79282e-06
-2.55012e-08
4.59059e-06
-5.49782e-08
3.97203e-06
3.67723e-07
2.84684e-06
1.10402e-06
1.28989e-06
1.66178e-06
-5.04156e-07
1.90101e-06
-2.28724e-06
1.99671e-06
-3.75071e-06
2.14887e-06
-4.88762e-06
2.34986e-06
-5.86003e-06
2.48519e-06
-6.72902e-06
2.44897e-06
-7.50581e-06
2.30128e-06
-8.17208e-06
2.06369e-06
-8.71495e-06
1.76907e-06
-9.12191e-06
1.43571e-06
-9.39512e-06
1.08402e-06
-9.53517e-06
7.26609e-07
-9.53608e-06
3.64603e-07
-9.41057e-06
1.69705e-08
-9.14815e-06
-3.3731e-07
-8.78899e-06
-6.41863e-07
-8.33868e-06
-9.27513e-07
-7.81752e-06
-1.17821e-06
-7.22853e-06
-1.40955e-06
-6.58041e-06
-1.62112e-06
-5.87632e-06
-1.82352e-06
-5.15261e-06
-1.9767e-06
-4.417e-06
-2.13329e-06
-3.65781e-06
-2.26712e-06
-2.89632e-06
-2.38115e-06
-2.12331e-06
-2.50773e-06
-1.36634e-06
-2.61649e-06
-5.96808e-07
-2.72546e-06
1.63794e-07
-2.82588e-06
9.19548e-07
-2.92689e-06
1.68333e-06
-3.03566e-06
2.4699e-06
-3.17852e-06
3.22643e-06
-3.28006e-06
3.94945e-06
-3.36255e-06
4.67673e-06
-3.51638e-06
5.42938e-06
-3.69624e-06
6.17707e-06
-3.8376e-06
6.96219e-06
-4.05067e-06
7.71558e-06
-4.18092e-06
8.48817e-06
-4.37537e-06
9.23143e-06
-4.48897e-06
9.9761e-06
-4.65141e-06
1.06608e-05
-4.7252e-06
1.13134e-05
-4.85783e-06
1.19439e-05
-4.97702e-06
1.24617e-05
-4.98135e-06
1.28663e-05
-5.00503e-06
1.3168e-05
-5.08852e-06
1.33613e-05
-5.18107e-06
1.34678e-05
-5.3058e-06
1.3553e-05
-5.5221e-06
1.36701e-05
-5.80109e-06
1.38884e-05
-6.09136e-06
1.41424e-05
-6.2379e-06
1.43198e-05
-6.27787e-06
1.42801e-05
-6.22673e-06
1.40441e-05
-6.24769e-06
1.3706e-05
-6.39764e-06
1.33204e-05
-6.62084e-06
1.28917e-05
-6.83658e-06
1.24085e-05
-7.08546e-06
1.18885e-05
-7.30844e-06
1.14059e-05
-7.49954e-06
1.09758e-05
-7.76876e-06
1.05168e-05
-8.05524e-06
1.00193e-05
-8.19841e-06
9.60436e-06
-8.42075e-06
9.33328e-06
-8.74676e-06
9.16397e-06
-9.19986e-06
9.13425e-06
-9.85178e-06
9.28461e-06
-1.04188e-05
9.52263e-06
-1.08194e-05
9.67823e-06
-1.11147e-05
1.00104e-05
-1.1878e-05
1.08918e-05
-1.30516e-05
1.22422e-05
-1.38033e-05
1.33283e-05
-1.31837e-05
1.35356e-05
-1.18676e-05
1.27225e-05
-1.06843e-05
1.16031e-05
-1.05092e-05
9.61917e-06
-1.01329e-05
6.22961e-06
-8.94658e-06
2.44651e-06
-7.33859e-06
-3.66888e-07
-7.54118e-06
-2.34714e-06
-9.22841e-06
-3.76419e-06
-1.06948e-05
-4.69085e-06
-1.187e-05
-5.25139e-06
-1.29473e-05
-5.24068e-06
-1.45282e-05
-5.07652e-06
-1.61625e-05
-5.17243e-06
-1.53363e-05
-4.64947e-06
-1.60316e-05
-2.55979e-06
-1.98583e-05
-1.77082e-06
-1.73924e-05
-1.27295e-06
-1.72161e-05
3.37503e-07
-1.93651e-05
2.25671e-06
-2.01043e-05
5.13556e-06
-2.17963e-05
7.77315e-06
-2.16367e-05
1.00719e-05
-2.12566e-05
1.2245e-05
-2.12409e-05
1.40986e-05
-2.10341e-05
1.57464e-05
-2.12914e-05
1.65955e-05
-2.08467e-05
1.71129e-05
-2.11595e-05
1.76857e-05
-2.1738e-05
1.86561e-05
-2.27732e-05
1.99062e-05
-2.36484e-05
2.13092e-05
-2.47213e-05
2.23393e-05
-2.53435e-05
2.31063e-05
-2.6218e-05
2.38095e-05
-2.75873e-05
2.43227e-05
-2.86675e-05
2.56508e-05
-3.14768e-05
2.648e-05
-3.22657e-05
2.76451e-05
-3.47956e-05
3.13378e-05
-4.04896e-05
3.52718e-05
-4.29013e-05
3.5965e-05
-4.08036e-05
3.4386e-05
-3.99015e-05
3.57589e-05
-4.63055e-05
3.86366e-05
-5.18096e-05
3.87938e-05
-5.0942e-05
3.48225e-05
-4.54428e-05
2.81276e-05
-4.31941e-05
2.02979e-05
-4.7048e-05
1.19901e-05
-4.75808e-05
2.72276e-06
-4.28091e-05
-8.76282e-06
-3.52468e-05
-1.70526e-05
-4.03772e-05
-2.0438e-05
-4.8733e-05
-1.97063e-05
-5.71587e-05
-1.86738e-05
-5.93466e-05
-1.70118e-05
-6.23169e-05
-6.80707e-06
-7.74506e-05
-5.1556e-07
-6.18427e-05
6.59321e-07
-4.86444e-05
-2.4337e-06
-3.96043e-05
-6.17587e-06
-3.81803e-05
-1.11661e-05
-3.41974e-05
-3.22995e-05
-1.60541e-05
-1.43079e-08
6.89085e-07
2.59305e-08
5.68551e-07
3.32292e-07
7.85288e-08
8.9672e-07
-5.16719e-07
1.59575e-06
-9.95462e-07
2.3124e-06
-1.28394e-06
2.98768e-06
-1.39464e-06
3.59391e-06
-1.36069e-06
4.07546e-06
-1.20794e-06
4.45901e-06
-1.00946e-06
4.75721e-06
-7.47689e-07
5.00938e-06
-5.01195e-07
5.18829e-06
-2.41117e-07
5.29055e-06
1.57747e-08
5.32793e-06
3.1797e-07
5.28021e-06
6.36878e-07
5.18807e-06
8.57553e-07
5.08567e-06
1.05551e-06
4.91727e-06
1.33685e-06
4.67864e-06
1.55723e-06
4.41727e-06
1.68651e-06
4.10165e-06
1.82992e-06
3.7724e-06
1.87226e-06
3.49735e-06
1.8083e-06
3.25407e-06
1.73673e-06
3.05891e-06
1.64894e-06
2.79006e-06
1.54759e-06
2.27264e-06
1.49753e-06
1.83973e-06
1.22465e-06
2.23441e-06
5.43295e-07
3.14891e-06
1.68568e-07
3.26058e-06
-4.42656e-08
2.73732e-06
-1.93717e-07
1.9208e-06
5.84456e-07
5.13762e-07
1.58253e-06
-1.359e-06
2.05329e-06
-3.06419e-06
2.30579e-06
-4.37349e-06
2.6353e-06
-5.4085e-06
2.91553e-06
-6.44404e-06
3.14925e-06
-7.50674e-06
3.26164e-06
-8.47818e-06
3.30934e-06
-9.24925e-06
3.29612e-06
-9.80372e-06
3.19802e-06
-1.02122e-05
2.99764e-06
-1.05045e-05
2.71464e-06
-1.0696e-05
2.35608e-06
-1.07859e-05
1.93716e-06
-1.07784e-05
1.48308e-06
-1.06765e-05
1.01137e-06
-1.04812e-05
5.31202e-07
-1.01914e-05
4.56514e-08
-9.81143e-06
-4.21984e-07
-9.36772e-06
-8.72035e-07
-8.85219e-06
-1.28211e-06
-8.2768e-06
-1.66274e-06
-7.64809e-06
-2.00352e-06
-6.96361e-06
-2.32867e-06
-6.23843e-06
-2.62039e-06
-5.51266e-06
-2.86373e-06
-4.76579e-06
-3.08003e-06
-4.00199e-06
-3.29698e-06
-3.24471e-06
-3.46925e-06
-2.48345e-06
-3.6334e-06
-1.71798e-06
-3.81236e-06
-9.41897e-07
-3.98236e-06
-1.96882e-07
-4.11267e-06
5.44098e-07
-4.26389e-06
1.28473e-06
-4.42107e-06
1.99802e-06
-4.56044e-06
2.73592e-06
-4.78789e-06
3.48156e-06
-4.96113e-06
4.21189e-06
-5.09488e-06
4.95101e-06
-5.32493e-06
5.7092e-06
-5.59379e-06
6.46864e-06
-5.80847e-06
7.2796e-06
-6.14859e-06
8.02697e-06
-6.30584e-06
8.81813e-06
-6.61478e-06
9.55889e-06
-6.77339e-06
1.02722e-05
-6.99782e-06
1.09594e-05
-7.13074e-06
1.15745e-05
-7.28542e-06
1.21476e-05
-7.45098e-06
1.26886e-05
-7.50738e-06
1.31789e-05
-7.58297e-06
1.35942e-05
-7.71167e-06
1.38958e-05
-7.81354e-06
1.41259e-05
-7.98873e-06
1.42176e-05
-8.20445e-06
1.41771e-05
-8.53326e-06
1.41886e-05
-9.01876e-06
1.43394e-05
-9.40017e-06
1.46785e-05
-9.63528e-06
1.49462e-05
-9.55458e-06
1.49003e-05
-9.44694e-06
1.45953e-05
-9.4889e-06
1.44071e-05
-9.83996e-06
1.42466e-05
-1.01617e-05
1.38539e-05
-1.03845e-05
1.33959e-05
-1.06857e-05
1.30631e-05
-1.1108e-05
1.28273e-05
-1.15818e-05
1.25263e-05
-1.18898e-05
1.21488e-05
-1.20712e-05
1.18543e-05
-1.24459e-05
1.16364e-05
-1.28024e-05
1.16196e-05
-1.3415e-05
1.18141e-05
-1.43498e-05
1.21735e-05
-1.51511e-05
1.24918e-05
-1.56446e-05
1.25581e-05
-1.60214e-05
1.23525e-05
-1.67704e-05
1.22164e-05
-1.80151e-05
1.24868e-05
-1.92067e-05
1.28105e-05
-1.89492e-05
1.27518e-05
-1.75009e-05
1.1896e-05
-1.57365e-05
1.03644e-05
-1.51002e-05
7.79976e-06
-1.38896e-05
4.16566e-06
-1.16552e-05
8.45561e-07
-1.04031e-05
-1.27383e-06
-1.20394e-05
-2.98594e-06
-1.43681e-05
-3.99592e-06
-1.64508e-05
-4.51864e-06
-1.81239e-05
-4.86903e-06
-1.96193e-05
-4.94089e-06
-2.16304e-05
-5.01344e-06
-2.31152e-05
-4.41149e-06
-2.32477e-05
-4.2681e-06
-2.36493e-05
-3.4963e-06
-2.82406e-05
-2.37472e-06
-2.61301e-05
-2.07189e-06
-2.51294e-05
-6.26111e-07
-2.83813e-05
1.17808e-06
-2.93781e-05
4.32009e-06
-3.22786e-05
7.21872e-06
-3.20589e-05
9.4869e-06
-3.11757e-05
1.15558e-05
-3.09338e-05
1.38231e-05
-3.09697e-05
1.62749e-05
-3.14563e-05
1.78583e-05
-3.0578e-05
1.90498e-05
-3.10811e-05
1.96444e-05
-3.18355e-05
2.03405e-05
-3.3429e-05
2.14715e-05
-3.4833e-05
2.34914e-05
-3.66439e-05
2.51693e-05
-3.7121e-05
2.65051e-05
-3.81421e-05
2.71673e-05
-3.96939e-05
2.72279e-05
-4.11652e-05
2.90449e-05
-4.60439e-05
2.94375e-05
-4.67192e-05
2.90007e-05
-4.99324e-05
3.24667e-05
-5.83753e-05
3.76033e-05
-6.18276e-05
3.8419e-05
-5.89534e-05
3.4809e-05
-5.73357e-05
3.48935e-05
-6.61757e-05
3.92818e-05
-7.41708e-05
4.12648e-05
-7.39878e-05
3.81142e-05
-6.70855e-05
3.04618e-05
-6.47109e-05
2.04735e-05
-6.91619e-05
1.05219e-05
-6.69417e-05
-1.0771e-06
-5.91299e-05
-1.13377e-05
-5.48409e-05
-1.65705e-05
-6.38175e-05
-2.03814e-05
-7.23689e-05
-2.06282e-05
-8.50661e-05
-1.63726e-05
-8.79014e-05
-1.25283e-05
-9.11876e-05
-8.22067e-06
-0.000106163
-3.9585e-06
-9.1924e-05
-7.71711e-07
-7.6808e-05
-1.56664e-06
-6.32621e-05
-2.31282e-06
-6.02733e-05
-4.96636e-06
-5.38627e-05
-4.99369e-05
-8.96427e-06
5.85073e-08
7.46911e-07
3.31527e-07
4.02297e-07
9.77102e-07
-4.56057e-07
1.78975e-06
-1.21284e-06
2.57517e-06
-1.65907e-06
3.23363e-06
-1.81621e-06
3.74232e-06
-1.77278e-06
4.05317e-06
-1.53602e-06
4.26796e-06
-1.2823e-06
4.38883e-06
-9.85209e-07
4.48955e-06
-7.00935e-07
4.56876e-06
-4.26845e-07
4.64065e-06
-1.51259e-07
4.66833e-06
1.51838e-07
4.66443e-06
4.87238e-07
4.69009e-06
7.83118e-07
4.70161e-06
1.02521e-06
4.67008e-06
1.27633e-06
4.52439e-06
1.67759e-06
4.3015e-06
1.98162e-06
4.06128e-06
2.13524e-06
3.78074e-06
2.31841e-06
3.41539e-06
2.45596e-06
2.99103e-06
2.46323e-06
2.6294e-06
2.35877e-06
2.25832e-06
2.29964e-06
1.51367e-06
2.53018e-06
9.37366e-07
2.31886e-06
1.18927e-06
1.25513e-06
1.66088e-06
3.40756e-07
1.63183e-06
3.94603e-07
3.74083e-07
1.38952e-06
-1.66878e-06
2.07361e-06
-3.35574e-06
2.49707e-06
-4.59077e-06
3.04745e-06
-5.74412e-06
3.43125e-06
-6.904e-06
3.6846e-06
-7.95306e-06
3.89791e-06
-8.84619e-06
4.01418e-06
-9.55946e-06
4.05694e-06
-1.01616e-05
4.04828e-06
-1.06459e-05
3.96612e-06
-1.0998e-05
3.8068e-06
-1.12233e-05
3.56671e-06
-1.13365e-05
3.2365e-06
-1.13609e-05
2.84637e-06
-1.13087e-05
2.39158e-06
-1.11907e-05
1.88272e-06
-1.10002e-05
1.33093e-06
-1.07358e-05
7.60001e-07
-1.03967e-05
1.77504e-07
-9.99199e-06
-4.03088e-07
-9.51238e-06
-9.75331e-07
-8.97078e-06
-1.51941e-06
-8.38543e-06
-2.00692e-06
-7.74004e-06
-2.48221e-06
-7.03952e-06
-2.91477e-06
-6.32871e-06
-3.28761e-06
-5.60086e-06
-3.63431e-06
-4.85866e-06
-3.93181e-06
-4.07546e-06
-4.22963e-06
-3.3141e-06
-4.46619e-06
-2.5345e-06
-4.69867e-06
-1.77068e-06
-4.88973e-06
-1.02982e-06
-5.08907e-06
-2.98282e-07
-5.29404e-06
4.41256e-07
-5.47794e-06
1.18864e-06
-5.68502e-06
1.90209e-06
-5.85991e-06
2.57374e-06
-6.01009e-06
3.24923e-06
-6.29558e-06
3.93823e-06
-6.54276e-06
4.62128e-06
-6.73293e-06
5.32297e-06
-7.04706e-06
6.03913e-06
-7.39795e-06
6.78372e-06
-7.70776e-06
7.60938e-06
-8.19429e-06
8.35475e-06
-8.37166e-06
9.15974e-06
-8.79711e-06
9.94478e-06
-9.01759e-06
1.064e-05
-9.25614e-06
1.1313e-05
-9.4485e-06
1.19159e-05
-9.62573e-06
1.24775e-05
-9.84601e-06
1.30001e-05
-9.97297e-06
1.3456e-05
-1.00858e-05
1.38535e-05
-1.02731e-05
1.4171e-05
-1.04376e-05
1.44788e-05
-1.0721e-05
1.46996e-05
-1.09268e-05
1.47118e-05
-1.11475e-05
1.45285e-05
-1.15758e-05
1.42942e-05
-1.20928e-05
1.43326e-05
-1.27048e-05
1.47311e-05
-1.29365e-05
1.48761e-05
-1.27579e-05
1.45262e-05
-1.2638e-05
1.43255e-05
-1.30979e-05
1.43252e-05
-1.3476e-05
1.40921e-05
-1.36235e-05
1.37877e-05
-1.39832e-05