/*--------------------------------*- C++ -*----------------------------------*\
| =========                 |                                                 |
| \\      /  F ield         | OpenFOAM: The Open Source CFD Toolbox           |
|  \\    /   O peration     | Version:  dev                                   |
|   \\  /    A nd           | Web:      http://www.openfoam.org               |
|    \\/     M anipulation  |                                                 |
\*---------------------------------------------------------------------------*/
FoamFile
{
    version     2.0;
    format      ascii;
    class       volScalarField;
    object      rho;
    location    "9.162";
}
// * * * * * * * * * * * * * * * * * * * * * * * * * * * * * * * * * * * * * //

dimensions      [1 -3 0 0 0 0 0];

internalField   nonuniform List<scalar> 
12225
(
1.18212
1.18339
1.18372
1.18322
1.1826
1.18158
1.18035
1.17904
1.17717
1.17559
1.17319
1.17132
1.16837
1.16595
1.16265
1.15812
1.15818
1.15108
1.182
1.18532
1.18627
1.18595
1.18521
1.1846
1.1829
1.18214
1.17949
1.17842
1.17536
1.17384
1.17044
1.16808
1.16445
1.16073
1.16134
1.15482
1.18198
1.1858
1.18665
1.18673
1.18565
1.18565
1.18365
1.18349
1.18074
1.17983
1.1767
1.17553
1.17147
1.17044
1.16651
1.16468
1.16154
1.15731
1.18199
1.18591
1.18631
1.1868
1.18556
1.18568
1.18406
1.18317
1.18165
1.17967
1.17782
1.17529
1.17264
1.16993
1.16727
1.16572
1.16221
1.15773
1.18146
1.18595
1.18622
1.18674
1.18565
1.1853
1.18411
1.18268
1.18146
1.1794
1.17775
1.17516
1.17299
1.16997
1.16694
1.16532
1.16105
1.15894
1.18217
1.18543
1.1865
1.18623
1.18584
1.1846
1.1844
1.18179
1.18202
1.17891
1.1783
1.17477
1.17353
1.17004
1.16741
1.16331
1.16019
1.15908
1.18164
1.18506
1.18577
1.1861
1.18519
1.1845
1.18423
1.1822
1.18205
1.1795
1.17824
1.17516
1.1736
1.17087
1.16817
1.16509
1.16211
1.16041
1.18183
1.18403
1.1862
1.18518
1.1852
1.18364
1.18383
1.1817
1.18177
1.17888
1.17814
1.17455
1.17371
1.17019
1.16824
1.16517
1.16262
1.1604
1.18115
1.18421
1.18566
1.18527
1.18448
1.18359
1.18293
1.18153
1.18078
1.17869
1.1775
1.17472
1.173
1.17028
1.16821
1.1654
1.16266
1.16031
1.18114
1.18362
1.18532
1.18409
1.1843
1.18277
1.18265
1.18077
1.18006
1.17786
1.17687
1.17417
1.17223
1.16964
1.16759
1.16511
1.16234
1.16008
1.18077
1.18297
1.18449
1.18367
1.18376
1.18238
1.18204
1.18046
1.17951
1.17745
1.17599
1.17374
1.17182
1.16933
1.16701
1.16489
1.16228
1.16031
1.18011
1.18249
1.1837
1.18296
1.1829
1.18166
1.18105
1.17934
1.17814
1.17618
1.17468
1.1727
1.17087
1.16838
1.16601
1.16396
1.16176
1.15996
1.17915
1.18174
1.18263
1.18196
1.18157
1.18035
1.17938
1.17793
1.17658
1.17497
1.17332
1.17142
1.16963
1.1676
1.16542
1.16323
1.16133
1.15951
1.17831
1.18075
1.18132
1.18054
1.17988
1.17855
1.17767
1.17622
1.17493
1.17336
1.17177
1.17004
1.1681
1.16616
1.16412
1.16211
1.16031
1.15841
1.17749
1.17906
1.17922
1.1785
1.17783
1.1765
1.17563
1.17411
1.17299
1.17124
1.16979
1.16809
1.16612
1.16433
1.16237
1.16044
1.15864
1.15682
1.17628
1.17713
1.17715
1.1763
1.17536
1.17409
1.17318
1.17157
1.17048
1.1688
1.16732
1.16545
1.16375
1.16201
1.16012
1.15823
1.1564
1.15495
1.17421
1.1746
1.17461
1.17374
1.17255
1.17136
1.17022
1.16869
1.16751
1.16578
1.16428
1.16256
1.16087
1.15891
1.15723
1.15558
1.15378
1.1522
1.17208
1.17233
1.17202
1.17119
1.16965
1.16847
1.16706
1.1656
1.16437
1.16272
1.16133
1.15962
1.15787
1.15625
1.15446
1.15278
1.15116
1.14961
1.17035
1.16998
1.16954
1.16861
1.1671
1.16603
1.16445
1.16321
1.16182
1.16013
1.15881
1.15699
1.15538
1.15369
1.152
1.15055
1.14885
1.14737
1.16887
1.16792
1.16786
1.1667
1.16552
1.16423
1.16272
1.16146
1.15993
1.15849
1.15696
1.15525
1.15375
1.15186
1.15047
1.14871
1.14722
1.14577
1.16758
1.1664
1.16638
1.16546
1.16423
1.16255
1.16126
1.15981
1.15835
1.15713
1.15557
1.15409
1.15231
1.15068
1.14903
1.14734
1.14592
1.14425
1.16655
1.1652
1.16531
1.16415
1.16275
1.16157
1.16018
1.15874
1.1576
1.15601
1.15456
1.15305
1.15135
1.14982
1.14813
1.14656
1.14501
1.14354
1.16562
1.16455
1.16445
1.16338
1.16236
1.16088
1.15957
1.15824
1.15676
1.15535
1.15382
1.15223
1.15064
1.14902
1.14744
1.14584
1.14443
1.14284
1.16545
1.16369
1.16378
1.16299
1.16168
1.16045
1.15914
1.15763
1.1563
1.15475
1.15318
1.15174
1.15002
1.14861
1.14692
1.14546
1.14394
1.14243
1.16458
1.16346
1.16359
1.16248
1.16131
1.16
1.15862
1.15721
1.15573
1.1542
1.15274
1.15116
1.14966
1.14816
1.14661
1.1452
1.14365
1.14228
1.16449
1.163
1.16308
1.16213
1.16094
1.15968
1.15833
1.15694
1.15549
1.15401
1.15248
1.15095
1.14939
1.14786
1.14632
1.14482
1.14335
1.1419
1.16444
1.16278
1.16283
1.16188
1.16074
1.15949
1.15816
1.15677
1.15532
1.15381
1.15226
1.15069
1.1491
1.14754
1.14599
1.14449
1.14302
1.14159
1.16434
1.16263
1.16276
1.16186
1.16071
1.15945
1.1581
1.1567
1.15523
1.15369
1.15208
1.15045
1.1488
1.14717
1.14556
1.14398
1.14245
1.14096
1.16401
1.16242
1.16254
1.16162
1.16049
1.15925
1.1579
1.15644
1.15486
1.15319
1.15146
1.14972
1.14798
1.14627
1.1446
1.14299
1.14145
1.13998
1.16565
1.16287
1.1623
1.1611
1.15979
1.15837
1.15684
1.15523
1.15354
1.15183
1.1501
1.1484
1.14672
1.1451
1.14352
1.14201
1.14056
1.13925
1.09039
1.10866
1.11716
1.12068
1.1216
1.12161
1.1217
1.12179
1.12235
1.12324
1.12432
1.12565
1.12699
1.12816
1.12928
1.13071
1.13206
1.13288
1.13355
1.13361
1.13221
1.13006
1.1276
1.12476
1.12132
1.11619
1.11209
1.11181
1.11266
1.11019
1.1085
1.11018
1.11068
1.11492
1.12417
1.13118
1.12862
1.12134
1.11723
1.11592
1.11284
1.10927
1.10748
1.10618
1.10525
1.10521
1.10602
1.10737
1.10902
1.11083
1.11274
1.11471
1.11672
1.11878
1.12088
1.12302
1.12519
1.12737
1.12958
1.13182
1.13407
1.13633
1.1386
1.14091
1.14324
1.14558
1.14793
1.1503
1.15272
1.15519
1.1577
1.16022
1.16275
1.16536
1.168
1.17068
1.17343
1.17623
1.17915
1.1823
1.1856
1.18906
1.19237
1.19585
1.19929
1.20212
1.20449
1.2066
1.20841
1.21031
1.21231
1.21495
1.21839
1.22226
1.22591
1.22941
1.23286
1.2361
1.23941
1.24225
1.24419
1.24639
1.2506
1.255
1.25953
1.2655
1.27199
1.279
1.28353
1.28633
1.28771
1.28865
1.29075
1.29375
1.29515
1.28852
1.27537
1.25909
1.25427
1.26362
1.2564
1.25626
1.25949
1.26285
1.27792
1.28516
1.28283
1.27881
1.28086
1.29051
1.30579
1.28571
1.31128
1.32012
1.32514
1.33198
1.33802
1.34396
1.34981
1.3547
1.35847
1.36329
1.367
1.37186
1.37645
1.38198
1.38735
1.39525
1.40428
1.41606
1.42816
1.44201
1.45786
1.47345
1.49915
1.51686
1.53296
1.55111
1.58108
1.61107
1.62313
1.62114
1.62689
1.65934
1.70655
1.69355
1.64806
1.61744
1.67515
1.72832
1.71513
1.77188
1.72521
1.74342
1.68
1.64475
1.6236
1.62159
1.59941
1.573
1.09156
1.11186
1.11704
1.11433
1.11097
1.10929
1.10944
1.10988
1.11124
1.1137
1.11585
1.11851
1.12107
1.12311
1.12563
1.12781
1.13058
1.13454
1.13828
1.14449
1.15023
1.15316
1.15706
1.15787
1.15541
1.15674
1.15302
1.14802
1.15246
1.14941
1.14584
1.15874
1.15939
1.14528
1.14302
1.1607
1.16285
1.13581
1.11054
1.09974
1.09701
1.09707
1.09794
1.09931
1.10114
1.10339
1.10579
1.10828
1.11055
1.11276
1.11502
1.1172
1.11943
1.12168
1.12385
1.126
1.12817
1.13035
1.13257
1.13479
1.13693
1.13912
1.14128
1.14355
1.14578
1.14796
1.15007
1.1522
1.15444
1.15667
1.15901
1.16125
1.16348
1.16586
1.16823
1.17058
1.17313
1.17567
1.17806
1.18124
1.18433
1.1883
1.19192
1.1964
1.20267
1.20824
1.21186
1.21455
1.2151
1.21502
1.21345
1.21162
1.21331
1.21964
1.22927
1.23797
1.24551
1.25101
1.25799
1.26533
1.26846
1.27155
1.28105
1.2874
1.2891
1.29904
1.31513
1.32872
1.33217
1.33106
1.33119
1.32653
1.32093
1.32216
1.33339
1.33742
1.33853
1.32255
1.30578
1.30227
1.27232
1.26592
1.27645
1.29049
1.29996
1.28395
1.27559
1.28039
1.27688
1.28122
1.28831
1.25274
1.29744
1.30881
1.30815
1.31929
1.32608
1.33974
1.35537
1.37101
1.38791
1.40553
1.41989
1.42439
1.42363
1.42692
1.4319
1.44271
1.4535
1.46894
1.48326
1.50103
1.52204
1.54262
1.58753
1.60559
1.63457
1.68455
1.74062
1.77712
1.81858
1.81073
1.79123
1.86678
1.95223
1.84151
1.73755
1.76416
1.88621
1.82974
1.84435
1.95026
1.87677
1.88751
1.80744
1.77481
1.76535
1.80166
1.81894
1.80137
1.08664
1.09877
1.0979
1.09534
1.0959
1.09965
1.10458
1.10932
1.11336
1.11782
1.12107
1.12343
1.12613
1.12832
1.12763
1.12668
1.12684
1.1241
1.12517
1.1286
1.13237
1.13913
1.1421
1.15165
1.16381
1.15771
1.15272
1.16249
1.16553
1.15542
1.14896
1.17447
1.18449
1.14758
1.11104
1.09956
1.09672
1.09352
1.09288
1.09446
1.09699
1.0998
1.10256
1.10538
1.10798
1.11034
1.11229
1.11393
1.11554
1.11692
1.1185
1.12039
1.12209
1.124
1.12598
1.12788
1.12993
1.13199
1.13417
1.13637
1.13862
1.14085
1.14318
1.14558
1.14798
1.15048
1.15291
1.15527
1.15752
1.15961
1.16193
1.16425
1.16647
1.16837
1.1704
1.17236
1.17468
1.17731
1.17779
1.18089
1.18177
1.18357
1.18565
1.18791
1.19174
1.19699
1.20114
1.20534
1.20812
1.21136
1.21236
1.20789
1.20502
1.20266
1.21112
1.22339
1.22996
1.23324
1.24504
1.25794
1.26276
1.26846
1.27313
1.27482
1.28144
1.28693
1.29008
1.29842
1.30601
1.30507
1.30604
1.30832
1.30538
1.29461
1.29757
1.31159
1.31072
1.30476
1.30554
1.30268
1.27462
1.26857
1.27465
1.28896
1.28008
1.25897
1.26032
1.27653
1.26136
1.26359
1.26085
1.25214
1.26864
1.26879
1.26284
1.26463
1.26391
1.27647
1.28613
1.29548
1.31283
1.33476
1.36752
1.38763
1.39513
1.39341
1.39118
1.40016
1.41943
1.44413
1.47052
1.49707
1.5135
1.54622
1.58443
1.55634
1.5836
1.69719
1.76169
1.70752
1.72549
1.77729
1.82351
1.96326
2.02248
1.84938
1.78963
1.84896
1.84549
1.7599
1.827
1.81066
1.84549
1.8537
1.8271
1.79643
1.80467
1.83568
1.88746
1.90931
1.08332
1.09022
1.09073
1.09578
1.10357
1.11301
1.12133
1.12849
1.13454
1.13986
1.14375
1.14577
1.14811
1.15015
1.14985
1.14883
1.1475
1.14586
1.14449
1.14041
1.1387
1.13979
1.13995
1.13495
1.1374
1.16191
1.17124
1.15678
1.17103
1.20107
1.17916
1.12721
1.10512
1.09834
1.09513
1.09551
1.09683
1.09855
1.10059
1.10283
1.10489
1.10615
1.10728
1.10779
1.10819
1.10851
1.10876
1.10938
1.11056
1.112
1.11368
1.11561
1.11773
1.11976
1.12198
1.1241
1.12619
1.12832
1.13037
1.13216
1.13418
1.13599
1.13793
1.1397
1.14164
1.14394
1.14648
1.14935
1.15206
1.15447
1.15702
1.16011
1.16293
1.1652
1.16754
1.16975
1.17255
1.17722
1.17575
1.18185
1.18319
1.18534
1.1883
1.19107
1.19415
1.1965
1.20016
1.20304
1.20399
1.20618
1.2112
1.21401
1.2165
1.21171
1.21607
1.23242
1.23512
1.22039
1.2237
1.23851
1.24099
1.24348
1.24726
1.25225
1.26156
1.26209
1.24969
1.23619
1.22914
1.22284
1.22969
1.2597
1.27662
1.27222
1.28214
1.3019
1.30404
1.30649
1.30835
1.29956
1.2697
1.26322
1.28265
1.29793
1.2734
1.25488
1.25814
1.25976
1.23957
1.25937
1.27503
1.25586
1.26894
1.272
1.26509
1.25742
1.24913
1.26519
1.27834
1.2809
1.28803
1.29509
1.3192
1.3375
1.37477
1.39844
1.40276
1.38563
1.38396
1.39613
1.42852
1.47072
1.4626
1.52483
1.58447
1.49493
1.47892
1.63057
1.74683
1.67253
1.58446
1.63464
1.78487
2.00005
2.03102
1.83151
1.74039
1.85911
1.87879
1.81565
1.81416
1.7427
1.73716
1.74979
1.80201
1.79635
1.82275
1.79149
1.82761
1.86233
1.08191
1.0863
1.09378
1.10501
1.11596
1.12656
1.13278
1.13706
1.1409
1.14389
1.14571
1.14286
1.14155
1.14302
1.14389
1.14367
1.14547
1.14737
1.14994
1.15104
1.14255
1.13644
1.15108
1.16255
1.16285
1.16441
1.15485
1.17007
1.19505
1.16474
1.12322
1.10507
1.10095
1.09907
1.09919
1.09924
1.10003
1.10027
1.10103
1.1016
1.10204
1.10223
1.10226
1.10245
1.10309
1.10423
1.10645
1.10894
1.11176
1.11495
1.11815
1.12119
1.1241
1.12695
1.12957
1.13218
1.13475
1.1369
1.13906
1.14098
1.14273
1.14406
1.14511
1.14573
1.14609
1.14654
1.14707
1.14802
1.14954
1.15054
1.1521
1.15491
1.15678
1.1589
1.16124
1.16282
1.1651
1.17036
1.16761
1.1719
1.1738
1.17555
1.17801
1.17992
1.18464
1.18973
1.1955
1.20319
1.20779
1.20875
1.20666
1.20401
1.2074
1.21092
1.20965
1.22225
1.23808
1.22392
1.21574
1.2287
1.22825
1.21882
1.21335
1.21854
1.22778
1.23158
1.23121
1.22106
1.20571
1.18936
1.18564
1.20273
1.21694
1.2178
1.23485
1.27177
1.29805
1.31548
1.31028
1.29672
1.27533
1.27943
1.29654
1.29357
1.26983
1.26541
1.26792
1.2479
1.24427
1.24777
1.25127
1.25459
1.25035
1.26268
1.25648
1.25193
1.23469
1.23912
1.25738
1.2713
1.28092
1.28243
1.31465
1.31228
1.33107
1.35834
1.39493
1.38871
1.38441
1.3794
1.39766
1.45599
1.40465
1.47543
1.57241
1.44612
1.37374
1.51114
1.71126
1.71554
1.56407
1.55956
1.75334
2.00542
2.01443
1.83957
1.77321
1.90344
1.93822
1.90083
1.87171
1.80643
1.73606
1.67585
1.74771
1.74608
1.78125
1.72476
1.7392
1.74074
1.08278
1.08978
1.10419
1.11679
1.12738
1.13689
1.13927
1.14003
1.14024
1.13818
1.13384
1.12629
1.12262
1.12214
1.1212
1.12033
1.12231
1.12919
1.134
1.14442
1.15272
1.14855
1.1544
1.15821
1.14813
1.14748
1.16905
1.18484
1.16009
1.11959
1.09979
1.09557
1.09433
1.09447
1.09521
1.09577
1.09715
1.09865
1.10012
1.10126
1.10186
1.10228
1.10301
1.10441
1.10689
1.11006
1.11361
1.11707
1.12041
1.12337
1.12588
1.12831
1.13062
1.13279
1.1349
1.13731
1.13973
1.14222
1.14498
1.14775
1.15083
1.1536
1.1562
1.15808
1.15955
1.16027
1.16083
1.16066
1.16142
1.16138
1.16184
1.1638
1.16538
1.16721
1.16933
1.17087
1.17285
1.1758
1.17661
1.17715
1.17886
1.18032
1.18127
1.18141
1.18096
1.1829
1.18227
1.18677
1.19421
1.20152
1.20962
1.21427
1.20823
1.20875
1.20972
1.20642
1.21597
1.21657
1.21274
1.22044
1.22931
1.21928
1.20469
1.20749
1.21518
1.21313
1.21259
1.20469
1.1984
1.20399
1.21053
1.21197
1.20756
1.21009
1.23543
1.27063
1.30059
1.31862
1.31494
1.29497
1.28503
1.28223
1.26566
1.27179
1.27504
1.27561
1.26701
1.25105
1.25496
1.24445
1.23864
1.25349
1.24072
1.2757
1.26149
1.2724
1.2561
1.243
1.24187
1.26017
1.28423
1.28342
1.31862
1.32452
1.32434
1.31964
1.35408
1.36376
1.36593
1.36406
1.36097
1.45941
1.37065
1.42538
1.53459
1.40231
1.28446
1.39784
1.65747
1.66094
1.51262
1.5167
1.73321
1.98668
1.9842
1.83095
1.7763
1.8711
1.93869
1.98867
1.97676
1.82054
1.71928
1.67737
1.71143
1.74477
1.73534
1.72972
1.73446
1.7053
1.08526
1.09646
1.11183
1.12158
1.13115
1.13732
1.13422
1.12933
1.12296
1.11671
1.10913
1.09992
1.09411
1.09398
1.09533
1.09556
1.09345
1.09312
1.10111
1.11657
1.12487
1.12128
1.12762
1.14047
1.15433
1.16958
1.16977
1.14779
1.11758
1.09891
1.09422
1.09448
1.09504
1.09676
1.09833
1.1003
1.1017
1.10298
1.1033
1.10276
1.10262
1.10278
1.10405
1.10698
1.11065
1.11457
1.11777
1.12016
1.12199
1.12331
1.12498
1.12665
1.12801
1.12972
1.1313
1.13284
1.13438
1.13608
1.13819
1.14077
1.14418
1.14755
1.15188
1.1557
1.15937
1.16235
1.16488
1.16624
1.16743
1.16768
1.16825
1.16876
1.16995
1.17114
1.17352
1.17349
1.17731
1.17649
1.17778
1.18033
1.17888
1.17986
1.18192
1.18525
1.18563
1.18925
1.18913
1.18607
1.18387
1.18518
1.18977
1.20277
1.20581
1.20119
1.20691
1.20694
1.20872
1.21266
1.21676
1.22005
1.23207
1.23599
1.22148
1.2105
1.20489
1.19848
1.20571
1.20376
1.19319
1.19657
1.20578
1.20999
1.20476
1.20226
1.22974
1.26535
1.29905
1.31354
1.32067
1.29509
1.29007
1.27035
1.25473
1.27659
1.25888
1.25331
1.24229
1.25093
1.24338
1.23749
1.23427
1.23241
1.22619
1.26508
1.23586
1.25522
1.25509
1.23764
1.23208
1.23228
1.26258
1.26981
1.30395
1.32487
1.34214
1.32936
1.35757
1.36408
1.39144
1.3893
1.33127
1.47069
1.33805
1.39369
1.50083
1.40984
1.26409
1.35646
1.62716
1.57858
1.44318
1.48614
1.7271
1.96563
1.93233
1.75463
1.72224
1.82981
1.92237
2.06807
2.00145
1.86954
1.72113
1.63815
1.6476
1.72596
1.74381
1.7624
1.77304
1.7272
1.08801
1.1009
1.11633
1.12629
1.13463
1.13253
1.12066
1.11167
1.10344
1.0961
1.08953
1.08779
1.08826
1.09002
1.09402
1.09753
1.10152
1.10388
1.10628
1.10975
1.11431
1.12301
1.14012
1.15584
1.16048
1.15309
1.13296
1.11101
1.0975
1.09335
1.09471
1.09657
1.09859
1.10098
1.10241
1.1034
1.10339
1.1028
1.10195
1.10182
1.10235
1.10485
1.10849
1.11316
1.11726
1.11996
1.12147
1.12219
1.12303
1.12458
1.12642
1.12845
1.13065
1.13269
1.13427
1.1356
1.13678
1.13768
1.13849
1.13916
1.14135
1.14308
1.14666
1.15005
1.1534
1.15753
1.16122
1.16514
1.16861
1.17129
1.17376
1.17454
1.17662
1.1755
1.18001
1.17766
1.18252
1.18309
1.17893
1.18149
1.18027
1.179
1.17776
1.18214
1.18206
1.1848
1.18723
1.19192
1.19084
1.18786
1.18504
1.19064
1.20106
1.20015
1.20136
1.20131
1.20222
1.20351
1.21471
1.22038
1.22386
1.22547
1.21693
1.21032
1.21016
1.19372
1.19116
1.1878
1.17465
1.1782
1.19264
1.20585
1.20356
1.19582
1.22425
1.25515
1.29694
1.30136
1.32753
1.29817
1.28763
1.26264
1.26627
1.27667
1.22451
1.23283
1.24185
1.25147
1.24913
1.23312
1.24468
1.24661
1.23301
1.25339
1.2274
1.24002
1.25933
1.23058
1.22704
1.22539
1.25272
1.26395
1.28946
1.31463
1.34992
1.33533
1.35188
1.34432
1.40496
1.38144
1.30433
1.47356
1.31538
1.37195
1.458
1.4462
1.32394
1.41079
1.60791
1.50107
1.40901
1.47803
1.72581
1.93145
1.89448
1.70431
1.70245
1.82164
1.84112
1.99325
1.96602
1.88173
1.7007
1.61865
1.64732
1.65993
1.73508
1.74265
1.76641
1.75087
1.09132
1.10614
1.12175
1.12657
1.12351
1.108
1.09143
1.08588
1.08334
1.08454
1.09257
1.1051
1.10961
1.10475
1.099
1.10468
1.11597
1.12171
1.1244
1.12814
1.13311
1.13968
1.14351
1.14115
1.13188
1.11841
1.10529
1.09767
1.09603
1.09787
1.10097
1.10301
1.10488
1.10553
1.10578
1.10591
1.10517
1.10509
1.10456
1.10538
1.1077
1.11129
1.1155
1.11879
1.12016
1.12032
1.12009
1.12079
1.12251
1.12505
1.12788
1.13072
1.13289
1.13489
1.13669
1.13821
1.1396
1.14065
1.14202
1.14153
1.14286
1.14367
1.14659
1.14864
1.15104
1.15319
1.15487
1.15749
1.16024
1.16409
1.16868
1.17177
1.17825
1.17724
1.18401
1.1842
1.18775
1.19212
1.18933
1.18551
1.18275
1.18111
1.17763
1.17855
1.18346
1.18603
1.18295
1.18233
1.18792
1.19088
1.18721
1.18178
1.18754
1.1938
1.19757
1.19917
1.19933
1.19479
1.1998
1.21277
1.21799
1.22055
1.20793
1.19294
1.2007
1.19177
1.18227
1.18391
1.17346
1.17059
1.17944
1.19456
1.19906
1.19019
1.21707
1.24465
1.28728
1.2979
1.32048
1.3089
1.28444
1.25552
1.29447
1.27023
1.23017
1.22837
1.2176
1.21106
1.21452
1.21993
1.21698
1.2427
1.23124
1.23073
1.20287
1.22133
1.25165
1.24383
1.21792
1.21556
1.24466
1.27545
1.29409
1.31035
1.34916
1.33378
1.34785
1.35369
1.42311
1.36594
1.30152
1.46227
1.31925
1.34557
1.42636
1.43396
1.36176
1.49613
1.56386
1.41261
1.3908
1.49186
1.72955
1.89044
1.86767
1.7192
1.72447
1.64916
1.66471
1.89068
1.97383
1.86724
1.63295
1.5975
1.64398
1.65788
1.68748
1.69644
1.73056
1.74405
1.09449
1.10855
1.11976
1.11818
1.11056
1.09452
1.08219
1.08501
1.09517
1.10498
1.10152
1.09739
1.10358
1.10928
1.10315
1.10786
1.11541
1.11791
1.12424
1.12754
1.12937
1.12955
1.12718
1.12059
1.1116
1.10523
1.10097
1.10024
1.10213
1.10431
1.10592
1.10646
1.10703
1.10754
1.10733
1.10667
1.10651
1.10649
1.10789
1.11071
1.11372
1.11684
1.1191
1.1199
1.11955
1.11957
1.12042
1.12256
1.12552
1.12862
1.13131
1.13378
1.13573
1.13739
1.13875
1.13998
1.14158
1.14252
1.14498
1.1451
1.14554
1.14498
1.14741
1.14889
1.1524
1.15504
1.15715
1.15813
1.1587
1.15938
1.1609
1.16408
1.17153
1.17579
1.1833
1.18975
1.19406
1.19447
1.19548
1.19068
1.18742
1.1853
1.18438
1.17542
1.17799
1.18509
1.18637
1.17972
1.18281
1.19154
1.19301
1.18491
1.18187
1.18776
1.19243
1.19622
1.19695
1.19135
1.18824
1.19913
1.20655
1.2135
1.217
1.19866
1.20468
1.20394
1.18042
1.17079
1.16733
1.17052
1.18465
1.1995
1.20261
1.18488
1.20779
1.23552
1.26848
1.29456
1.30496
1.31241
1.28905
1.25276
1.30186
1.29221
1.25493
1.21705
1.19881
1.2085
1.21645
1.21598
1.20663
1.22487
1.23703
1.2332
1.18741
1.20394
1.21958
1.24193
1.22017
1.22219
1.23285
1.26409
1.29054
1.29943
1.33255
1.31168
1.32477
1.35327
1.4174
1.35017
1.31624
1.45097
1.3144
1.33017
1.41343
1.4
1.35005
1.52828
1.48785
1.3336
1.38504
1.51872
1.72846
1.84424
1.83072
1.75447
1.77254
1.61368
1.67155
1.89744
1.86492
1.76711
1.61266
1.58349
1.6238
1.66487
1.69427
1.69135
1.71068
1.71332
1.09675
1.10914
1.12082
1.1196
1.11136
1.0975
1.09062
1.0987
1.10431
1.10348
1.09971
1.10236
1.10645
1.11328
1.11323
1.1136
1.11435
1.11449
1.11624
1.11329
1.11221
1.11052
1.1061
1.10282
1.1012
1.10019
1.10161
1.10353
1.10557
1.1067
1.10709
1.10752
1.1079
1.10819
1.10952
1.11029
1.11145
1.11242
1.11354
1.11524
1.11687
1.11885
1.11987
1.12039
1.12038
1.12095
1.12226
1.1244
1.1269
1.12951
1.13192
1.13422
1.13651
1.13849
1.14032
1.14151
1.14311
1.14344
1.1453
1.14661
1.14798
1.14638
1.14621
1.14595
1.14699
1.14867
1.15231
1.15498
1.15756
1.15922
1.15671
1.15766
1.15722
1.16452
1.17065
1.17971
1.19223
1.19143
1.19066
1.18758
1.18283
1.17813
1.18836
1.18387
1.17901
1.17965
1.18165
1.17506
1.1759
1.18643
1.18926
1.18363
1.17677
1.18061
1.18945
1.19859
1.19519
1.18617
1.17759
1.18739
1.19784
1.20002
1.21537
1.20432
1.19254
1.19879
1.17936
1.16728
1.16228
1.16554
1.18026
1.19981
1.20912
1.18808
1.19942
1.23259
1.25053
1.28495
1.29343
1.30962
1.28527
1.249
1.29768
1.30537
1.27842
1.21718
1.1906
1.19152
1.2085
1.20721
1.20404
1.20477
1.21763
1.23656
1.19879
1.19662
1.20987
1.2282
1.20576
1.22122
1.2271
1.24848
1.2847
1.29022
1.31505
1.29186
1.30398
1.3477
1.41127
1.34291
1.31287
1.43519
1.29507
1.31452
1.39569
1.38862
1.34087
1.52074
1.4335
1.26603
1.38497
1.55069
1.729
1.801
1.79736
1.77656
1.79188
1.6119
1.70683
1.85374
1.78645
1.7515
1.54462
1.56295
1.61743
1.63736
1.67561
1.66386
1.67317
1.67145
1.09969
1.1129
1.12435
1.11951
1.10997
1.09992
1.09609
1.10245
1.10288
1.10487
1.10858
1.11126
1.10503
1.10397
1.10414
1.10599
1.10724
1.10743
1.10968
1.10771
1.10929
1.10786
1.10735
1.10758
1.10779
1.10891
1.11087
1.11242
1.1137
1.1144
1.11559
1.11695
1.11851
1.12006
1.1205
1.12112
1.12127
1.12183
1.12303
1.12375
1.12424
1.12421
1.12382
1.12309
1.12257
1.12257
1.12307
1.12471
1.12696
1.12997
1.13321
1.13626
1.13904
1.14093
1.14336
1.14554
1.14814
1.14934
1.15055
1.15128
1.15313
1.15333
1.15232
1.15157
1.15075
1.14966
1.14941
1.15057
1.15154
1.15653
1.15795
1.16132
1.1573
1.16053
1.16478
1.16888
1.1793
1.18323
1.18321
1.18061
1.18369
1.17343
1.17607
1.17967
1.18261
1.18378
1.1884
1.18308
1.17539
1.18275
1.1881
1.18762
1.17838
1.1731
1.17941
1.19107
1.18961
1.18283
1.176
1.18162
1.19298
1.19209
1.19974
1.20671
1.18009
1.18135
1.17152
1.1647
1.16317
1.16703
1.17401
1.19459
1.21399
1.19369
1.18657
1.22361
1.23292
1.2658
1.28913
1.30849
1.27995
1.24496
1.28415
1.31351
1.27503
1.21804
1.19215
1.19776
1.21494
1.23341
1.21703
1.21473
1.21105
1.22052
1.20242
1.18829
1.2013
1.23661
1.21369
1.21547
1.21423
1.22248
1.27963
1.29094
1.30906
1.28274
1.29555
1.34264
1.39952
1.33568
1.29507
1.40767
1.27741
1.28827
1.3705
1.36553
1.3364
1.50096
1.41404
1.21293
1.38249
1.57917
1.72817
1.75992
1.76047
1.7652
1.70362
1.57142
1.59152
1.69741
1.68501
1.63364
1.49906
1.56124
1.60593
1.63602
1.64837
1.62956
1.63132
1.63682
1.10292
1.11553
1.12531
1.12027
1.11077
1.10026
1.09619
1.10665
1.10825
1.10653
1.10483
1.1094
1.11016
1.11122
1.11346
1.11052
1.11063
1.10751
1.10827
1.10685
1.10792
1.10812
1.10965
1.11125
1.1133
1.11535
1.11592
1.11686
1.11646
1.11675
1.11755
1.11893
1.11923
1.1204
1.12049
1.1198
1.11947
1.11878
1.11922
1.11949
1.12014
1.12058
1.12095
1.12078
1.12069
1.12136
1.12234
1.1243
1.12711
1.131
1.13499
1.13769
1.14019
1.14145
1.1428
1.14452
1.14737
1.15005
1.15345
1.15584
1.1586
1.16024
1.16002
1.15937
1.15955
1.16118
1.16038
1.15999
1.15686
1.15458
1.15494
1.15593
1.1582
1.15724
1.15952
1.16549
1.17017
1.17285
1.1796
1.17244
1.17665
1.17946
1.17811
1.17807
1.17807
1.17301
1.17777
1.18572
1.17961
1.1779
1.17958
1.18439
1.17981
1.17184
1.17699
1.18886
1.18647
1.18101
1.17497
1.17421
1.18026
1.18933
1.18706
1.2069
1.18403
1.17852
1.17279
1.16232
1.16151
1.16737
1.17419
1.18156
1.21405
1.20448
1.18363
1.2107
1.22387
1.24321
1.27662
1.30837
1.28098
1.25484
1.28288
1.30665
1.26673
1.21972
1.19077
1.19903
1.22195
1.2283
1.21646
1.20528
1.20584
1.19365
1.19244
1.1933
1.17952
1.21223
1.21372
1.21338
1.20314
1.19074
1.25213
1.26575
1.28437
1.26514
1.29937
1.35283
1.38954
1.32819
1.26668
1.37143
1.25331
1.25907
1.35222
1.33644
1.33038
1.46978
1.38766
1.15881
1.36724
1.59027
1.70659
1.72088
1.72965
1.72886
1.62582
1.59831
1.58652
1.64338
1.64831
1.54863
1.46466
1.55711
1.58489
1.61089
1.61915
1.6024
1.61364
1.61213
1.10595
1.11752
1.12832
1.12479
1.11603
1.10854
1.10063
1.10864
1.11108
1.11076
1.11356
1.11508
1.11245
1.10909
1.10702
1.10779
1.10952
1.11266
1.11446
1.11432
1.11824
1.11777
1.11917
1.12069
1.11988
1.12142
1.12046
1.12158
1.12176
1.123
1.12365
1.12411
1.12456
1.12452
1.12457
1.1244
1.12465
1.12537
1.12545
1.12494
1.1252
1.1253
1.12559
1.12584
1.12589
1.12643
1.12731
1.12908
1.13184
1.13445
1.13822
1.14118
1.14354
1.14562
1.14757
1.14858
1.14986
1.15006
1.15234
1.1552
1.1584
1.16172
1.16238
1.16283
1.16144
1.16333
1.16675
1.16971
1.17362
1.16976
1.17093
1.16514
1.16541
1.16642
1.16102
1.16128
1.16469
1.15965
1.16693
1.16852
1.16645
1.1717
1.17108
1.17651
1.18738
1.18331
1.17568
1.18452
1.18394
1.17874
1.17613
1.18332
1.18273
1.16903
1.16941
1.1799
1.18021
1.17997
1.17255
1.17134
1.16467
1.18693
1.18339
1.19675
1.18486
1.16668
1.16698
1.15701
1.15836
1.16191
1.17533
1.17516
1.20355
1.21168
1.18579
1.19647
1.21514
1.22837
1.25013
1.29578
1.28161
1.27467
1.29506
1.29718
1.25705
1.20797
1.20552
1.21635
1.22259
1.2202
1.21222
1.21282
1.20533
1.18185
1.18324
1.19789
1.19
1.20933
1.21685
1.20462
1.17131
1.14823
1.21091
1.23758
1.26576
1.2471
1.2971
1.35225
1.36307
1.31467
1.22741
1.33912
1.23487
1.22826
1.33174
1.31026
1.31936
1.42228
1.35641
1.12256
1.33947
1.58902
1.67582
1.68165
1.70426
1.68659
1.65724
1.57305
1.5889
1.59637
1.54816
1.47084
1.45578
1.553
1.56635
1.59301
1.57425
1.56158
1.58967
1.56741
1.10911
1.11981
1.13056
1.12684
1.11648
1.11183
1.10414
1.10996
1.11606
1.11443
1.11173
1.11611
1.11422
1.11699
1.11808
1.1174
1.11855
1.11594
1.11683
1.11828
1.11986
1.12232
1.12366
1.126
1.12575
1.12629
1.12515
1.12556
1.12583
1.12646
1.12779
1.12843
1.12931
1.12922
1.12754
1.12764
1.12875
1.12979
1.13042
1.13141
1.133
1.13307
1.13276
1.13281
1.13296
1.13309
1.1331
1.13443
1.13784
1.13972
1.14285
1.14666
1.14902
1.15124
1.15425
1.15442
1.15423
1.15417
1.1538
1.15654
1.15794
1.16121
1.16211
1.16206
1.16302
1.16126
1.16341
1.16209
1.1669
1.16711
1.16791
1.16941
1.16629
1.16848
1.17048
1.16724
1.16999
1.1677
1.16772
1.17191
1.16691
1.17431
1.17321
1.16811
1.17497
1.1805
1.1723
1.17834
1.18309
1.17836
1.17062
1.17888
1.1845
1.17213
1.16841
1.17378
1.17534
1.17722
1.17055
1.16732
1.15476
1.18041
1.18348
1.18484
1.1894
1.1592
1.15449
1.14545
1.15457
1.15824
1.17924
1.17693
1.19303
1.2175
1.19422
1.18601
1.20404
1.218
1.23103
1.26623
1.27375
1.28862
1.30613
1.28807
1.23631
1.20038
1.19644
1.18507
1.19671
1.20055
1.19285
1.20084
1.19273
1.16405
1.17425
1.184
1.17602
1.18474
1.20449
1.19497
1.15248
1.12571
1.19001
1.23641
1.27343
1.25979
1.30824
1.32899
1.30741
1.29177
1.19533
1.30151
1.22009
1.20007
1.30756
1.28657
1.3039
1.36288
1.32574
1.12466
1.30986
1.55602
1.6423
1.65082
1.69752
1.66532
1.70234
1.56562
1.54401
1.48307
1.46749
1.38373
1.4349
1.54351
1.53132
1.57016
1.53231
1.52804
1.55338
1.50982
1.11285
1.12341
1.13419
1.13225
1.12382
1.12062
1.11135
1.11141
1.11649
1.12013
1.11916
1.12168
1.12231
1.11594
1.11691
1.11476
1.11746
1.12383
1.12426
1.12639
1.1272
1.12653
1.12629
1.12696
1.12672
1.1277
1.12818
1.12864
1.12952
1.13103
1.13311
1.13469
1.1353
1.13474
1.13339
1.13317
1.13246
1.13137
1.13244
1.13361
1.13254
1.13134
1.13254
1.13315
1.13211
1.13318
1.13597
1.13739
1.14041
1.14435
1.14802
1.1513
1.15353
1.15341
1.15479
1.15818
1.15795
1.15873
1.15728
1.15865
1.16079
1.16107
1.16445
1.16355
1.16627
1.16688
1.16934
1.17299
1.17231
1.17783
1.17563
1.17356
1.1716
1.16664
1.1666
1.16503
1.16658
1.16775
1.16298
1.17063
1.168
1.17135
1.177
1.17669
1.17595
1.18238
1.17467
1.1757
1.18067
1.17757
1.16902
1.17432
1.17928
1.16929
1.16442
1.16643
1.16992
1.17447
1.17019
1.16407
1.15055
1.17167
1.18252
1.17153
1.18666
1.15197
1.15205
1.14481
1.14708
1.15025
1.17582
1.17712
1.18208
1.20842
1.20724
1.18342
1.19059
1.20695
1.21795
1.234
1.25464
1.27975
1.30191
1.27543
1.21888
1.18329
1.16057
1.15759
1.18975
1.18767
1.19078
1.2027
1.181
1.15648
1.17479
1.19053
1.18199
1.1748
1.18854
1.17424
1.14933
1.1323
1.18049
1.23738
1.27408
1.25145
1.29716
1.2957
1.25915
1.26329
1.17059
1.2638
1.20466
1.175
1.28423
1.26758
1.27855
1.30855
1.28652
1.16129
1.28016
1.49752
1.59626
1.62458
1.68011
1.65908
1.71332
1.57495
1.52877
1.41503
1.39655
1.37314
1.47264
1.54659
1.51461
1.54394
1.48783
1.48596
1.50188
1.4633
1.11727
1.12816
1.13741
1.13395
1.12471
1.12222
1.11616
1.11477
1.11913
1.12114
1.12155
1.11997
1.12506
1.12567
1.12546
1.12599
1.12137
1.122
1.12552
1.12825
1.13254
1.13493
1.13432
1.13374
1.13171
1.12955
1.12838
1.12838
1.12898
1.12931
1.13038
1.13243
1.13405
1.13468
1.13496
1.13547
1.13574
1.13544
1.13522
1.13519
1.13641
1.13745
1.13821
1.13852
1.13967
1.1398
1.14198
1.1464
1.14784
1.14887
1.15127
1.15381
1.1557
1.15623
1.15498
1.15709
1.15754
1.15975
1.1598
1.15899
1.16024
1.16029
1.1597
1.16047
1.15987
1.16418
1.16161
1.16355
1.16411
1.16693
1.17456
1.17699
1.17625
1.17208
1.17111
1.16855
1.16458
1.17287
1.16926
1.17379
1.17269
1.17002
1.17164
1.1735
1.17104
1.17821
1.17264
1.17165
1.17597
1.17462
1.16725
1.17147
1.17534
1.16932
1.1673
1.16295
1.16582
1.17248
1.16605
1.1599
1.14669
1.16494
1.18368
1.16887
1.18135
1.14186
1.14602
1.14487
1.14342
1.15089
1.17031
1.18238
1.17171
1.18619
1.2107
1.18563
1.18169
1.1974
1.2063
1.21767
1.22363
1.25799
1.27538
1.25354
1.20593
1.1732
1.14102
1.1374
1.17514
1.16979
1.18639
1.19718
1.1567
1.15382
1.17317
1.17347
1.15833
1.15042
1.16659
1.16255
1.17869
1.18168
1.20866
1.26489
1.29744
1.26447
1.29078
1.24702
1.1933
1.21272
1.14523
1.22754
1.18722
1.15416
1.26533
1.25495
1.24905
1.26752
1.24557
1.19155
1.24149
1.43784
1.54603
1.61023
1.61827
1.62401
1.70453
1.55969
1.48594
1.37842
1.38186
1.37242
1.45694
1.50098
1.47856
1.52124
1.46644
1.45477
1.45714
1.44613
1.12272
1.13726
1.14928
1.13915
1.12841
1.13027
1.12539
1.11894
1.12022
1.12428
1.12938
1.12863
1.1268
1.12718
1.1258
1.12804
1.13045
1.12801
1.12796
1.12875
1.13035
1.13533
1.13885
1.1412
1.14182
1.14053
1.13803
1.13529
1.13348
1.13244
1.13313
1.1336
1.13399
1.13585
1.13768
1.1388
1.13998
1.14034
1.14129
1.14295
1.14254
1.14224
1.14395
1.14306
1.14454
1.14625
1.14642
1.14846
1.14967
1.15134
1.15244
1.15416
1.15615
1.15838
1.15763
1.15841
1.15559
1.15712
1.15611
1.158
1.15818
1.15917
1.15965
1.16002
1.16502
1.16799
1.17123
1.16765
1.16644
1.16669
1.17149
1.17493
1.17694
1.17462
1.16633
1.16809
1.16298
1.16685
1.1633
1.1681
1.17382
1.17317
1.17663
1.17637
1.16882
1.17696
1.17548
1.17149
1.17277
1.17574
1.16729
1.1673
1.16846
1.16647