/*--------------------------------*- C++ -*----------------------------------*\
| =========                 |                                                 |
| \\      /  F ield         | OpenFOAM: The Open Source CFD Toolbox           |
|  \\    /   O peration     | Version:  dev                                   |
|   \\  /    A nd           | Web:      http://www.openfoam.org               |
|    \\/     M anipulation  |                                                 |
\*---------------------------------------------------------------------------*/
FoamFile
{
    version     2.0;
    format      ascii;
    class       volScalarField;
    object      rho_0;
    location    "9.162";
}
// * * * * * * * * * * * * * * * * * * * * * * * * * * * * * * * * * * * * * //

dimensions      [1 -3 0 0 0 0 0];

internalField   nonuniform List<scalar> 
12225
(
1.15853
1.16092
1.16165
1.16157
1.16155
1.16107
1.16051
1.15986
1.15869
1.15784
1.15616
1.15504
1.15284
1.15103
1.14854
1.14459
1.14563
1.13976
1.1592
1.16358
1.16469
1.16475
1.16454
1.16449
1.16347
1.16335
1.16145
1.16106
1.15877
1.15789
1.15532
1.15345
1.15067
1.14716
1.14927
1.1432
1.15924
1.16412
1.16513
1.16559
1.16503
1.16561
1.16425
1.16477
1.16272
1.16253
1.1601
1.15969
1.15632
1.15599
1.15271
1.1512
1.14959
1.14526
1.15938
1.16432
1.16491
1.16578
1.16506
1.16577
1.16477
1.16459
1.16374
1.16251
1.16135
1.15959
1.15761
1.15564
1.15365
1.15269
1.1503
1.1459
1.15896
1.16455
1.165
1.16591
1.16531
1.16559
1.16499
1.16429
1.16372
1.16242
1.16146
1.15964
1.15813
1.15581
1.15347
1.15277
1.14921
1.14719
1.1599
1.16429
1.16555
1.16567
1.16577
1.16514
1.16553
1.16364
1.16454
1.16215
1.16226
1.15947
1.15893
1.15607
1.15412
1.15081
1.14843
1.14791
1.15976
1.16431
1.16518
1.16593
1.16549
1.16543
1.16573
1.16439
1.16492
1.16308
1.16253
1.1602
1.15934
1.15728
1.15523
1.15272
1.15077
1.14924
1.16036
1.16369
1.16603
1.16541
1.16593
1.16497
1.16577
1.16431
1.16505
1.16287
1.16282
1.15997
1.15984
1.15701
1.15569
1.15322
1.15153
1.1496
1.1601
1.16431
1.16596
1.16596
1.16565
1.16535
1.1653
1.16457
1.16451
1.16312
1.16262
1.16053
1.15956
1.1575
1.15608
1.15386
1.15181
1.14991
1.16065
1.16435
1.16621
1.16541
1.16605
1.16512
1.16558
1.16437
1.16432
1.16285
1.16254
1.16053
1.1593
1.15739
1.15599
1.1541
1.15192
1.15017
1.16113
1.16447
1.16619
1.16574
1.1663
1.16548
1.16575
1.16479
1.16452
1.16315
1.1624
1.16082
1.15958
1.15774
1.15609
1.15455
1.15251
1.15103
1.16152
1.16502
1.16643
1.16606
1.16647
1.16578
1.16576
1.16468
1.16415
1.16286
1.16204
1.16073
1.15955
1.15768
1.15595
1.1545
1.15283
1.15154
1.16194
1.16564
1.16672
1.1664
1.16649
1.16579
1.16539
1.16455
1.16383
1.16287
1.16188
1.16063
1.15949
1.15805
1.15647
1.15486
1.15348
1.15216
1.16295
1.16643
1.16715
1.16671
1.16649
1.16568
1.16534
1.16447
1.16379
1.16284
1.16188
1.16077
1.15946
1.1581
1.15663
1.15516
1.15386
1.15243
1.16435
1.16695
1.16726
1.16685
1.1666
1.16575
1.1654
1.16444
1.16388
1.16272
1.16187
1.16076
1.15937
1.15813
1.1567
1.15527
1.15394
1.15254
1.16593
1.16774
1.16789
1.16732
1.16679
1.16597
1.16554
1.16445
1.1639
1.16275
1.16183
1.16049
1.15932
1.1581
1.15668
1.15525
1.15385
1.15278
1.16704
1.16843
1.16859
1.16799
1.16718
1.1664
1.16571
1.16464
1.16395
1.1627
1.16169
1.16045
1.15923
1.15771
1.15647
1.15521
1.15378
1.15254
1.16825
1.16958
1.16947
1.16891
1.16771
1.1669
1.16589
1.16484
1.16403
1.16281
1.16183
1.16054
1.1592
1.15796
1.15653
1.15519
1.15388
1.15261
1.16957
1.17035
1.17013
1.16946
1.16824
1.16751
1.16628
1.16539
1.16436
1.16304
1.16208
1.16061
1.15934
1.15799
1.1566
1.15544
1.15399
1.15275
1.1708
1.1709
1.17105
1.17011
1.16919
1.1682
1.16698
1.16604
1.16482
1.16369
1.16247
1.16106
1.15986
1.15825
1.15713
1.15561
1.15434
1.15308
1.17155
1.17144
1.17165
1.17092
1.16991
1.16848
1.16746
1.16628
1.16509
1.16416
1.16286
1.16164
1.16012
1.15872
1.1573
1.15582
1.15458
1.15307
1.17227
1.17187
1.17218
1.17118
1.16999
1.16903
1.16787
1.16667
1.16578
1.16443
1.16323
1.16196
1.16047
1.15915
1.15765
1.15626
1.15487
1.15353
1.17262
1.17248
1.17254
1.17162
1.17078
1.1695
1.1684
1.16729
1.16603
1.16484
1.16353
1.16215
1.16076
1.15933
1.15793
1.15648
1.1552
1.15373
1.17335
1.17252
1.17279
1.17213
1.17099
1.16995
1.16882
1.16751
1.16638
1.16504
1.16367
1.16241
1.16088
1.15964
1.1581
1.15678
1.15538
1.15397
1.17324
1.17299
1.17326
1.17227
1.17126
1.17012
1.16892
1.16768
1.1664
1.16506
1.16378
1.16239
1.16106
1.15972
1.15831
1.15702
1.15558
1.1543
1.17355
1.17299
1.17322
1.17237
1.17134
1.17024
1.16906
1.16784
1.16657
1.16527
1.16392
1.16256
1.16116
1.15978
1.15838
1.157
1.15563
1.15426
1.17383
1.17308
1.17328
1.17244
1.17144
1.17035
1.16918
1.16796
1.16668
1.16534
1.16396
1.16255
1.16112
1.15971
1.1583
1.15691
1.15553
1.15418
1.17396
1.17314
1.17341
1.17262
1.17161
1.17049
1.1693
1.16806
1.16676
1.16539
1.16395
1.16248
1.16099
1.1595
1.15801
1.15655
1.15511
1.1537
1.17375
1.17303
1.1733
1.17249
1.1715
1.17041
1.16921
1.16791
1.16649
1.16499
1.16342
1.16184
1.16025
1.15868
1.15713
1.15564
1.15418
1.15279
1.17532
1.17318
1.17281
1.17177
1.17063
1.16938
1.16802
1.16657
1.16506
1.16352
1.16197
1.16043
1.15892
1.15744
1.156
1.1546
1.15326
1.15204
1.09112
1.10932
1.11785
1.12141
1.12239
1.12245
1.1226
1.12274
1.12336
1.12432
1.12547
1.12688
1.12828
1.12953
1.13073
1.13225
1.13367
1.13456
1.13531
1.13543
1.13409
1.13202
1.12964
1.12687
1.12347
1.11838
1.11431
1.11406
1.11489
1.11237
1.11065
1.11224
1.11272
1.11705
1.12627
1.13305
1.13018
1.12278
1.11864
1.11722
1.1139
1.11014
1.10819
1.10673
1.10562
1.10538
1.10595
1.10703
1.10839
1.1099
1.11148
1.11312
1.1148
1.1165
1.11823
1.11999
1.12177
1.12356
1.12536
1.12718
1.12899
1.13081
1.13263
1.13447
1.13631
1.13817
1.14001
1.14186
1.14375
1.14567
1.14761
1.14954
1.15147
1.15346
1.15546
1.15747
1.15953
1.16162
1.16383
1.16624
1.16876
1.17142
1.17392
1.17655
1.17909
1.18099
1.18246
1.18369
1.18465
1.18574
1.18697
1.18889
1.19155
1.19456
1.1973
1.19995
1.20257
1.20503
1.20756
1.20961
1.21087
1.21251
1.21606
1.21978
1.22373
1.229
1.23465
1.24075
1.24441
1.24645
1.24707
1.24733
1.24871
1.25074
1.25069
1.24271
1.22857
1.21218
1.20745
1.21568
1.20791
1.20728
1.2096
1.2119
1.22578
1.23268
1.23025
1.22581
1.22748
1.23649
1.25176
1.23287
1.25651
1.26524
1.27036
1.27692
1.28281
1.28843
1.29383
1.29818
1.3013
1.30529
1.30817
1.31225
1.31602
1.32043
1.32453
1.33081
1.33804
1.34761
1.35721
1.36825
1.38073
1.39298
1.41383
1.42659
1.43753
1.45018
1.47352
1.49495
1.49814
1.49106
1.49393
1.51989
1.55745
1.54402
1.50426
1.47702
1.53041
1.5852
1.57485
1.63113
1.59374
1.6141
1.56244
1.53503
1.52048
1.52335
1.50814
1.48891
1.09219
1.11239
1.11762
1.11496
1.11166
1.11003
1.1102
1.11067
1.11211
1.11463
1.11685
1.1196
1.12222
1.12434
1.12694
1.12921
1.1321
1.13615
1.14002
1.14635
1.15209
1.15507
1.15902
1.15985
1.15752
1.15887
1.15511
1.1502
1.15464
1.15146
1.14796
1.16081
1.16101
1.14696
1.1452
1.16294
1.16405
1.13645
1.11149
1.10091
1.09812
1.09799
1.09866
1.09984
1.10144
1.10344
1.10559
1.10782
1.10981
1.11172
1.11367
1.11552
1.11741
1.11932
1.12115
1.12293
1.12472
1.12651
1.12832
1.13013
1.13185
1.1336
1.13531
1.13712
1.13886
1.14057
1.14218
1.14378
1.14549
1.14718
1.14896
1.15062
1.15226
1.15403
1.15577
1.15747
1.15935
1.16118
1.16292
1.16537
1.16777
1.171
1.17387
1.17766
1.18311
1.18766
1.19027
1.19194
1.1915
1.19049
1.18809
1.18579
1.18719
1.19318
1.20192
1.20947
1.21598
1.22068
1.22675
1.23296
1.2352
1.23779
1.24666
1.25212
1.25322
1.26284
1.27823
1.29053
1.29275
1.29098
1.2903
1.28474
1.27871
1.28001
1.2902
1.29221
1.29141
1.27402
1.25693
1.25255
1.2231
1.21705
1.22656
1.23913
1.24848
1.23335
1.22446
1.22816
1.22523
1.22924
1.23727
1.20206
1.24502
1.25694
1.25707
1.26826
1.27557
1.28877
1.30395
1.31908
1.33489
1.35099
1.36284
1.36546
1.36381
1.36662
1.37097
1.38029
1.38885
1.40151
1.41267
1.42715
1.44477
1.46171
1.50098
1.51664
1.54115
1.58012
1.6262
1.65887
1.68976
1.66953
1.64695
1.71157
1.78032
1.67898
1.58608
1.61037
1.73051
1.68697
1.69559
1.80738
1.73899
1.75255
1.68188
1.65766
1.65423
1.69362
1.71503
1.70401
1.08713
1.09912
1.09828
1.09576
1.09636
1.10014
1.1051
1.10985
1.11395
1.11847
1.12177
1.12422
1.12703
1.12922
1.12856
1.12774
1.12795
1.12531
1.12663
1.13014
1.13399
1.14078
1.14379
1.1535
1.16551
1.15936
1.15468
1.16449
1.16744
1.15722
1.15099
1.17686
1.18626
1.14866
1.11229
1.1011
1.09816
1.09477
1.09403
1.09551
1.09788
1.10053
1.10311
1.10573
1.10813
1.11028
1.11201
1.11341
1.11476
1.11587
1.11713
1.11871
1.1201
1.12167
1.12331
1.12486
1.12655
1.12823
1.13002
1.13183
1.13367
1.13549
1.13739
1.13936
1.14131
1.14333
1.14528
1.14712
1.14885
1.1504
1.15217
1.1539
1.15552
1.15682
1.15823
1.15956
1.16122
1.16306
1.16297
1.16525
1.16541
1.16654
1.16787
1.16946
1.17266
1.17717
1.18044
1.18374
1.18567
1.18795
1.18763
1.18216
1.17869
1.17651
1.18492
1.19592
1.20146
1.20493
1.21644
1.22792
1.23179
1.23688
1.24091
1.24211
1.24798
1.25304
1.25668
1.26554
1.27275
1.27142
1.27153
1.27129
1.26629
1.25549
1.25832
1.27005
1.2673
1.25981
1.25917
1.25512
1.22724
1.22122
1.22601
1.23915
1.23161
1.2109
1.21095
1.22698
1.2134
1.21421
1.21099
1.20192
1.21914
1.21996
1.21484
1.21776
1.21837
1.23031
1.23966
1.2496
1.26711
1.28931
1.31997
1.33731
1.3408
1.33675
1.3342
1.34457
1.36347
1.38629
1.40873
1.43012
1.44597
1.47223
1.50201
1.48086
1.51447
1.60996
1.65236
1.60285
1.63353
1.67167
1.69641
1.81129
1.85484
1.69767
1.64679
1.69797
1.70252
1.62415
1.69102
1.69626
1.73041
1.7446
1.71026
1.68408
1.69552
1.73487
1.78951
1.81474
1.08359
1.09032
1.09087
1.09595
1.10378
1.11324
1.1216
1.12882
1.13492
1.14029
1.14421
1.14631
1.14876
1.15082
1.15053
1.14958
1.14835
1.14683
1.14553
1.14152
1.13991
1.14098
1.14125
1.1364
1.13913
1.1638
1.17272
1.15831
1.17275
1.20279
1.18047
1.12838
1.10679
1.09974
1.09643
1.09673
1.09798
1.09961
1.10155
1.10365
1.10561
1.10673
1.1077
1.10805
1.10825
1.10837
1.1084
1.10874
1.10964
1.1108
1.11219
1.11381
1.11561
1.11731
1.11919
1.12097
1.1227
1.12447
1.12615
1.12756
1.12919
1.13062
1.13217
1.13356
1.13509
1.13699
1.13911
1.14154
1.14379
1.14573
1.14779
1.15034
1.1526
1.1543
1.15604
1.15768
1.15992
1.16371
1.16179
1.16722
1.1677
1.16921
1.17144
1.17349
1.17573
1.17731
1.18012
1.18193
1.18203
1.18375
1.18816
1.19006
1.19123
1.18573
1.19076
1.20598
1.20614
1.19187
1.19669
1.21054
1.21215
1.21489
1.21872
1.22322
1.23155
1.23077
1.21775
1.20518
1.19941
1.19442
1.2025
1.23094
1.24443
1.23864
1.24764
1.26392
1.26253
1.26267
1.2636
1.25412
1.22431
1.21739
1.23505
1.2502
1.22703
1.2076
1.21009
1.21421
1.19354
1.21214
1.22764
1.20808
1.22236
1.22477
1.21839
1.21157
1.20536
1.2219
1.23364
1.23558
1.24309
1.25173
1.27473
1.29435
1.32936
1.34805
1.34662
1.33012
1.33042
1.34483
1.37634
1.41066
1.4083
1.46432
1.50642
1.42677
1.43302
1.57369
1.65075
1.56037
1.50094
1.56086
1.68422
1.8622
1.87628
1.68881
1.60865
1.71498
1.73224
1.67033
1.6818
1.62392
1.63367
1.66265
1.70053
1.69617
1.7225
1.70478
1.74606
1.7857
1.08189
1.08609
1.09359
1.10485
1.11583
1.12642
1.13265
1.13702
1.14095
1.14401
1.14584
1.14301
1.14182
1.14335
1.1442
1.14401
1.14589
1.14787
1.15049
1.1516
1.14319
1.13745
1.15249
1.16391
1.16391
1.16522
1.15586
1.17156
1.19615
1.16551
1.12441
1.10621
1.10199
1.10006
1.10015
1.10013
1.10087
1.10103
1.10167
1.10214
1.10246
1.10254
1.10242
1.10244
1.10289
1.10377
1.10573
1.10798
1.11053
1.11343
1.11636
1.11912
1.12173
1.12428
1.12659
1.12887
1.13111
1.13291
1.13469
1.13623
1.13758
1.13848
1.13911
1.13931
1.13925
1.13928
1.13941
1.13999
1.1411
1.14169
1.14283
1.14517
1.14653
1.14813
1.1499
1.15093
1.15273
1.15727
1.15382
1.15782
1.15896
1.1601
1.16197
1.16343
1.16773
1.17217
1.17752
1.18427
1.18749
1.18715
1.18406
1.18099
1.18442
1.18683
1.18562
1.19915
1.21247
1.19626
1.18937
1.20222
1.19993
1.19078
1.18669
1.19206
1.20067
1.20375
1.20184
1.19073
1.17502
1.15822
1.15545
1.17419
1.18811
1.18793
1.20413
1.2382
1.25993
1.27391
1.26747
1.25392
1.23184
1.23541
1.25327
1.25045
1.22539
1.21925
1.22255
1.2045
1.19859
1.20444
1.20974
1.21005
1.20874
1.21775
1.21253
1.20654
1.19091
1.19877
1.2183
1.23
1.23749
1.24034
1.27015
1.2685
1.29086
1.32014
1.35043
1.33949
1.33441
1.33114
1.35349
1.39895
1.35781
1.43046
1.50609
1.38402
1.34257
1.48318
1.64086
1.61212
1.47721
1.49269
1.67017
1.88577
1.87713
1.70737
1.6455
1.77102
1.79901
1.75154
1.72626
1.68171
1.63396
1.58784
1.65891
1.65524
1.69621
1.64342
1.66366
1.67425
1.08238
1.08917
1.10361
1.11623
1.12682
1.13633
1.13875
1.13963
1.13994
1.13793
1.13361
1.12611
1.12251
1.12201
1.12102
1.12017
1.12222
1.12905
1.13383
1.14443
1.15274
1.14853
1.15438
1.15817
1.14837
1.14812
1.16994
1.18514
1.16023
1.12022
1.1005
1.09615
1.09485
1.09496
1.09568
1.09621
1.09749
1.09895
1.10035
1.10143
1.10197
1.10226
1.10283
1.10402
1.10627
1.10922
1.11257
1.11582
1.11897
1.12175
1.12405
1.12626
1.12834
1.13027
1.13211
1.13425
1.1364
1.1386
1.14104
1.14347
1.14616
1.14852
1.15067
1.15206
1.15302
1.15323
1.15329
1.15265
1.15297
1.1525
1.15255
1.15411
1.15522
1.15657
1.15814
1.1592
1.16056
1.16317
1.16311
1.16316
1.16447
1.16531
1.16557
1.16495
1.16418
1.16552
1.16473
1.16953
1.17677
1.18338
1.19024
1.19265
1.18598
1.18674
1.18658
1.18396
1.19371
1.19214
1.18763
1.19589
1.2025
1.19043
1.17701
1.18148
1.18944
1.18728
1.18552
1.17666
1.17043
1.17449
1.17923
1.18075
1.17741
1.18065
1.20496
1.2384
1.26518
1.2808
1.2746
1.25515
1.24432
1.24245
1.22784
1.23188
1.2345
1.23514
1.22821
1.20991
1.21405
1.20505
1.19997
1.21525
1.20347
1.2344
1.22364
1.23138
1.21365
1.20411
1.20669
1.22656
1.24701
1.24596
1.27982
1.28185
1.28162
1.28234
1.31609
1.32183
1.31917
1.31628
1.32648
1.4062
1.32807
1.3896
1.48074
1.33971
1.25302
1.38004
1.60589
1.58983
1.44809
1.45898
1.66249
1.88563
1.86878
1.72408
1.67195
1.76541
1.82047
1.84029
1.83567
1.70416
1.62534
1.59284
1.63857
1.65747
1.65451
1.64299
1.65256
1.63448
1.08439
1.09536
1.11074
1.12049
1.13008
1.13636
1.13339
1.12859
1.12228
1.11606
1.10844
1.09919
1.09344
1.09338
1.0947
1.09488
1.09276
1.09253
1.10069
1.11605
1.12402
1.12056
1.12729
1.14045
1.15456
1.16953
1.1691
1.14718
1.11748
1.09906
1.0943
1.09453
1.0951
1.09682
1.09837
1.10033
1.10169
1.10293
1.10325
1.10263
1.10236
1.10239
1.10343
1.10614
1.10962
1.1134
1.11651
1.11879
1.1205
1.12166
1.12312
1.1246
1.12575
1.12723
1.12858
1.12991
1.13123
1.1327
1.13458
1.13693
1.14008
1.14318
1.14716
1.15061
1.15386
1.15634
1.15836
1.15915
1.15979
1.15948
1.15952
1.15965
1.16037
1.16125
1.16298
1.16269
1.16578
1.16451
1.16565
1.1674
1.16555
1.16628
1.16799
1.17038
1.17021
1.17313
1.17191
1.16822
1.16628
1.16804
1.17326
1.18532
1.18589
1.18115
1.18654
1.18577
1.18785
1.19129
1.19384
1.19724
1.20902
1.21045
1.19483
1.18486
1.17984
1.17495
1.18205
1.17873
1.16892
1.17278
1.18053
1.18247
1.17649
1.17571
1.20292
1.23726
1.26729
1.28071
1.28349
1.2584
1.25331
1.23501
1.21825
1.23895
1.22646
1.22044
1.20782
1.21349
1.207
1.2023
1.19705
1.19716
1.19135
1.23112
1.20489
1.22359
1.21884
1.20478
1.2001
1.2038
1.23287
1.23882
1.2735
1.29062
1.30202
1.29149
1.32164
1.32921
1.34673
1.34359
1.30414
1.424
1.30133
1.36428
1.45961
1.3392
1.21017
1.32373
1.58233
1.52826
1.39423
1.43854
1.66763
1.8821
1.83684
1.67443
1.63986
1.73808
1.83497
1.95395
1.8949
1.75894
1.63587
1.56917
1.58193
1.6606
1.665
1.68275
1.69414
1.65326
1.0866
1.09922
1.11464
1.12463
1.13316
1.13135
1.11965
1.11066
1.10238
1.09494
1.08821
1.08633
1.0868
1.08871
1.09281
1.09638
1.10048
1.103
1.10548
1.10891
1.1135
1.12241
1.13944
1.1548
1.15907
1.15157
1.13173
1.1102
1.09696
1.09285
1.0942
1.09609
1.09812
1.10051
1.10197
1.10297
1.10296
1.10235
1.10141
1.10117
1.10154
1.10385
1.10733
1.11186
1.11592
1.11861
1.12008
1.12071
1.12137
1.12271
1.12436
1.12618
1.12818
1.13005
1.13144
1.13257
1.13352
1.13422
1.13481
1.13531
1.1373
1.13885
1.14218
1.14537
1.14848
1.15234
1.15577
1.1593
1.16232
1.16443
1.16626
1.16649
1.16781
1.16647
1.17022
1.16744
1.17188
1.17132
1.16705
1.16962
1.16785
1.16629
1.1652
1.16919
1.16821
1.17066
1.17287
1.17665
1.17417
1.17063
1.1685
1.1755
1.1847
1.18216
1.18317
1.18261
1.18339
1.18546
1.19619
1.20031
1.20378
1.20457
1.19549
1.18949
1.18751
1.17132
1.17045
1.16597
1.15324
1.1583
1.17246
1.18303
1.17847
1.17223
1.2009
1.23141
1.26959
1.27274
1.29541
1.26429
1.2553
1.23129
1.23032
1.24426
1.19541
1.20299
1.21189
1.2234
1.22032
1.20333
1.21461
1.21302
1.20086
1.22677
1.20187
1.2146
1.22839
1.19957
1.20009
1.19987
1.22684
1.23467
1.26246
1.2876
1.3177
1.30347
1.32186
1.31596
1.36772
1.34709
1.2818
1.43744
1.28022
1.35048
1.43059
1.38719
1.25656
1.35498
1.5698
1.47093
1.36593
1.43471
1.67666
1.86734
1.81413
1.62953
1.6262
1.7752
1.81249
1.93763
1.87865
1.79139
1.64383
1.55706
1.57804
1.60554
1.67485
1.68417
1.70444
1.68383
1.08928
1.10381
1.11947
1.12446
1.12173
1.10651
1.08993
1.08417
1.08134
1.08228
1.09024
1.10288
1.10756
1.10284
1.09709
1.10263
1.11399
1.11991
1.12273
1.12651
1.13142
1.13788
1.14151
1.13902
1.12984
1.11666
1.10384
1.09642
1.09488
1.09672
1.09984
1.10192
1.10384
1.10453
1.10476
1.10489
1.10414
1.10405
1.10351
1.10421
1.10639
1.10981
1.11394
1.11724
1.11865
1.1188
1.11847
1.11898
1.12051
1.12288
1.12556
1.12829
1.13035
1.13223
1.13389
1.13525
1.13645
1.13731
1.13844
1.13775
1.13891
1.13957
1.14228
1.14418
1.1463
1.14825
1.14973
1.15223
1.15488
1.15857
1.16288
1.16554
1.17116
1.1695
1.17569
1.17481
1.17814
1.18177
1.17788
1.17422
1.17125
1.16922
1.16551
1.16738
1.1716
1.173
1.16951
1.16974
1.17463
1.17581
1.17116
1.16707
1.17395
1.17909
1.18201
1.18279
1.18242
1.17856
1.1852
1.19719
1.20127
1.2022
1.18774
1.17482
1.18175
1.1706
1.16367
1.1655
1.15375
1.15158
1.16071
1.1747
1.17713
1.16995
1.19767
1.22481
1.26598
1.27273
1.29499
1.27901
1.25562
1.22843
1.2624
1.23999
1.1992
1.20245
1.19534
1.18916
1.19142
1.19497
1.19551
1.21822
1.20351
1.20786
1.18454
1.20236
1.23235
1.21568
1.19436
1.19298
1.22506
1.25198
1.27059
1.28957
1.32699
1.31257
1.32746
1.32965
1.39454
1.33992
1.2782
1.43715
1.28682
1.33035
1.40632
1.40202
1.31705
1.44183
1.54099
1.40324
1.35659
1.45174
1.69078
1.84548
1.80637
1.64446
1.64874
1.63238
1.65038
1.85237
1.92105
1.81719
1.59003
1.5459
1.58805
1.59714
1.63548
1.64642
1.67994
1.69055
1.09178
1.10558
1.11686
1.11542
1.10802
1.09205
1.07946
1.0819
1.09187
1.10194
1.09886
1.09468
1.1007
1.10668
1.10058
1.10494
1.11255
1.115
1.12127
1.12461
1.12642
1.12656
1.12429
1.118
1.10925
1.10306
1.09902
1.09833
1.10024
1.10244
1.10409
1.10466
1.10522
1.10577
1.10568
1.10505
1.10492
1.10485
1.10614
1.10888
1.11184
1.11493
1.11722
1.11808
1.11773
1.11766
1.11837
1.12036
1.12321
1.12625
1.12891
1.13134
1.13322
1.1348
1.13606
1.13718
1.13864
1.13944
1.14174
1.14166
1.14192
1.14127
1.14365
1.14504
1.14843
1.15088
1.15262
1.15333
1.15364
1.15423
1.15601
1.15921
1.16684
1.17023
1.1775
1.18281
1.1859
1.1862
1.18646
1.18112
1.17784
1.17564
1.17294
1.16443
1.16814
1.17484
1.17475
1.16848
1.17224
1.17976
1.17957
1.17121
1.16971
1.17574
1.17949
1.18215
1.18257
1.17716
1.17596
1.18716
1.19362
1.20003
1.19935
1.18107
1.1894
1.18548
1.16301
1.15561
1.15187
1.15484
1.16822
1.18148
1.18237
1.1668
1.19225
1.21862
1.25283
1.27448
1.28492
1.2884
1.26451
1.23001
1.27729
1.26375
1.22515
1.19535
1.17986
1.18869
1.19477
1.19573
1.18699
1.20909
1.21687
1.21062
1.1683
1.18857
1.2075
1.22425
1.20265
1.20239
1.21819
1.25072
1.27431
1.28568
1.32007
1.30093
1.31549
1.33868
1.39939
1.33119
1.29817
1.43419
1.29328
1.32045
1.39933
1.38029
1.32973
1.49745
1.47816
1.33963
1.36088
1.48374
1.70022
1.81665
1.79073
1.69213
1.70582
1.57839
1.62394
1.8584
1.84968
1.73672
1.58371
1.5429
1.58017
1.61755
1.64504
1.64603
1.66879
1.6734
1.09332
1.1054
1.11709
1.116
1.10795
1.09407
1.08685
1.09472
1.10063
1.10013
1.09624
1.09866
1.10266
1.10966
1.10985
1.11022
1.11096
1.11101
1.11289
1.10998
1.1088
1.10726
1.10297
1.09972
1.09829
1.09739
1.0989
1.10092
1.10303
1.10425
1.1047
1.1052
1.10565
1.10596
1.10731
1.10816
1.10934
1.11034
1.11143
1.11306
1.11462
1.11656
1.1176
1.11815
1.11815
1.11866
1.1199
1.12198
1.12447
1.12708
1.12948
1.13174
1.13398
1.13591
1.13767
1.13875
1.14022
1.14043
1.14223
1.1434
1.14459
1.14281
1.14267
1.14238
1.14352
1.14529
1.14892
1.15139
1.15372
1.15474
1.15201
1.15278
1.15316
1.16045
1.16663
1.17579
1.18709
1.18522
1.18419
1.18047
1.17495
1.17139
1.18084
1.17436
1.16954
1.17066
1.1717
1.16487
1.16722
1.17749
1.17888
1.17203
1.16619
1.17154
1.18011
1.18763
1.18347
1.17433
1.16705
1.17793
1.18737
1.19043
1.20413
1.18942
1.18203
1.18727
1.16569
1.15399
1.14929
1.15309
1.16885
1.18669
1.19208
1.17165
1.18806
1.21933
1.23924
1.2713
1.27723
1.2909
1.26606
1.23117
1.2806
1.28269
1.25542
1.19811
1.17352
1.17527
1.19079
1.18692
1.18505
1.18969
1.20527
1.22109
1.17967
1.18459
1.19858
1.21385
1.19272
1.20868
1.21776
1.24368
1.27436
1.28002
1.30704
1.28547
1.30013
1.34155
1.40154
1.32972
1.30742
1.42818
1.28454
1.31433
1.3922
1.3763
1.32939
1.50947
1.4231
1.28119
1.373
1.52388
1.71031
1.78867
1.77694
1.73854
1.76483
1.59042
1.69461
1.86412
1.79333
1.73992
1.53597
1.53159
1.58172
1.60239
1.64226
1.63322
1.64451
1.64131
1.09548
1.10836
1.11988
1.11523
1.10585
1.09577
1.09167
1.09796
1.09853
1.10044
1.1041
1.10718
1.10116
1.09991
1.09996
1.10175
1.10309
1.10319
1.10557
1.10367
1.10529
1.10407
1.10367
1.10405
1.10438
1.10556
1.10752
1.10914
1.11045
1.11117
1.11239
1.11381
1.11541
1.11709
1.11758
1.11823
1.11839
1.11891
1.12013
1.1209
1.12145
1.12148
1.12116
1.12049
1.11999
1.12001
1.12051
1.12216
1.12441
1.12741
1.13066
1.13372
1.13654
1.13846
1.1409
1.14305
1.14557
1.14662
1.14769
1.14826
1.14993
1.14984
1.14872
1.14787
1.14697
1.14574
1.14567
1.14692
1.14824
1.15335
1.15437
1.15737
1.15301
1.15699
1.16133
1.16569
1.17643
1.17935
1.17828
1.17598
1.17764
1.16667
1.17072
1.17363
1.17588
1.17744
1.18112
1.1738
1.1674
1.17621
1.18095
1.17864
1.16904
1.16559
1.17278
1.18352
1.18102
1.17364
1.16718
1.17463
1.18582
1.18412
1.19364
1.19543
1.17031
1.17334
1.16146
1.15478
1.15305
1.15679
1.16536
1.18727
1.20146
1.17908
1.17807
1.21546
1.22478
1.25877
1.27807
1.29417
1.2648
1.23052
1.27251
1.29805
1.2604
1.20281
1.17855
1.18347
1.19943
1.21608
1.20148
1.20205
1.2013
1.21612
1.19123
1.17861
1.19785
1.22913
1.20205
1.20796
1.21042
1.22642
1.27869
1.28857
1.3076
1.28119
1.29289
1.34012
1.39737
1.32916
1.30132
1.41199
1.27552
1.29789
1.37557
1.36618
1.33239
1.50375
1.40529
1.23571
1.3855
1.56595
1.72332
1.76134
1.75695
1.75387
1.71587
1.55382
1.60739
1.73253
1.69835
1.65844
1.49701
1.53607
1.58392
1.60983
1.62711
1.60831
1.60826
1.61153
1.09793
1.11024
1.12007
1.11517
1.10584
1.09532
1.09093
1.10127
1.10315
1.10159
1.09971
1.10421
1.10513
1.10614
1.10862
1.10582
1.10602
1.10294
1.10366
1.1023
1.10337
1.10363
1.10518
1.10685
1.10892
1.11113
1.11175
1.11279
1.11245
1.11276
1.11354
1.11499
1.11534
1.11655
1.11678
1.11616
1.11591
1.11527
1.11573
1.11604
1.11677
1.11732
1.11782
1.11777
1.11774
1.11847
1.11951
1.12151
1.12436
1.12831
1.13239
1.13518
1.13777
1.13908
1.1405
1.14227
1.14522
1.14798
1.15133
1.15358
1.15622
1.1576
1.15719
1.1564
1.15657
1.15785
1.15663
1.15592
1.15241
1.15078
1.15107
1.15274
1.15442
1.1536
1.15684
1.16306
1.16806
1.17139
1.17682
1.16915
1.17405
1.175
1.17376
1.17335
1.17227
1.16795
1.1742
1.17998
1.17285
1.17271
1.17524
1.17879
1.17281
1.16625
1.17277
1.18418
1.18074
1.17444
1.16874
1.16935
1.17757
1.18363
1.18315
1.20081
1.17549
1.17297
1.16555
1.15573
1.15517
1.16121
1.16733
1.1782
1.20794
1.19282
1.17615
1.20707
1.2185
1.24033
1.2733
1.29996
1.2698
1.24245
1.27335
1.29823
1.25763
1.2104
1.17944
1.1871
1.21136
1.22095
1.20796
1.19718
1.19904
1.19395
1.1888
1.18438
1.17671
1.2123
1.20746
1.21098
1.20729
1.20326
1.26363
1.27464
1.29156
1.27217
1.30112
1.35394
1.39529
1.3286
1.2835
1.38396
1.25876
1.27664
1.36363
1.34649
1.33555
1.48629
1.38903
1.18644
1.38683
1.59279
1.71848
1.73562
1.73911
1.73776
1.63239
1.58607
1.58244
1.66574
1.67295
1.57744
1.46277
1.54208
1.57416
1.5984
1.6115
1.59133
1.59421
1.5951
1.10019
1.11145
1.12226
1.11887
1.11026
1.10282
1.09469
1.10253
1.10515
1.10483
1.10759
1.10935
1.10699
1.10369
1.10147
1.10211
1.10376
1.10694
1.10898
1.10882
1.11284
1.11264
1.11398
1.11572
1.11493
1.1165
1.1156
1.1167
1.11697
1.11826
1.11904
1.11957
1.12014
1.12017
1.12028
1.12021
1.12056
1.12143
1.12166
1.12126
1.12161
1.1218
1.12218
1.12254
1.12268
1.12329
1.12426
1.12611
1.12895
1.1317
1.13559
1.13862
1.14108
1.14321
1.14514
1.1463
1.14778
1.14822
1.1508
1.1537
1.15705
1.16023
1.16078
1.16113
1.15971
1.16194
1.16512
1.1681
1.17108
1.16692
1.16789
1.16198
1.1628
1.16321
1.15779
1.15912
1.16236
1.15791
1.16588
1.16592
1.16484
1.16955
1.16892
1.17525
1.18473
1.1788
1.17314
1.18222
1.17983
1.17498
1.17385
1.18058
1.17796
1.16495
1.1674
1.17842
1.17773
1.17637
1.16905
1.16827
1.16476
1.18498
1.18064
1.19537
1.17896
1.16454
1.16485
1.15476
1.15534
1.15958
1.17095
1.17283
1.20303
1.20438
1.17957
1.19612
1.21383
1.2278
1.25235
1.29575
1.2764
1.26632
1.28804
1.29343
1.25393
1.20459
1.19934
1.2132
1.22173
1.22016
1.21186
1.20932
1.20371
1.18476
1.18441
1.19698
1.18914
1.21402
1.21701
1.20739
1.18142
1.1642
1.22699
1.24789
1.27222
1.25333
1.30262
1.36366
1.38235
1.3235
1.25077
1.3587
1.24416
1.25131
1.35047
1.32648
1.33331
1.45205
1.36677
1.1412
1.371
1.60964
1.70049
1.70701
1.72203
1.70741
1.64752
1.58167
1.60156
1.64097
1.59458
1.51515
1.46077
1.54916
1.56869
1.58892
1.57886
1.56024
1.58033
1.56393
1.10256
1.11296
1.12373
1.12018
1.10992
1.10531
1.09748
1.10307
1.10933
1.10797
1.10512
1.10951
1.10772
1.1104
1.11171
1.11105
1.11237
1.10988
1.1106
1.11211
1.11364
1.11618
1.11755
1.12002
1.11995
1.12059
1.11957
1.11998
1.12033
1.121
1.12244
1.12321
1.12423
1.12434
1.12274
1.12286
1.12404
1.12521
1.12599
1.12712
1.12888
1.12913
1.12899
1.12919
1.1295
1.12979
1.12992
1.1314
1.13496
1.13696
1.14025
1.14419
1.14669
1.14916
1.15229
1.15242
1.15243
1.15244
1.15246
1.15543
1.157
1.16055
1.16122
1.16132
1.16194
1.16037
1.1626
1.16135
1.16653
1.16579
1.16692
1.16792
1.16503
1.16786
1.16911
1.1661
1.16894
1.16602
1.16742
1.17064
1.16591
1.17354
1.17121
1.16718
1.1755
1.17917
1.17118
1.17855
1.18211
1.1767
1.17029
1.17928
1.18326
1.17025
1.16807
1.17455
1.17554
1.17654
1.16935
1.16653
1.1562
1.18242
1.18288
1.18707
1.18683
1.15859
1.15478
1.14603
1.15544
1.1596
1.17856
1.17616
1.19618
1.21616
1.18918
1.18719
1.20703
1.22047
1.23544
1.27325
1.27609
1.28801
1.30449
1.28821
1.23845
1.20219
1.20163
1.19336
1.20196
1.20573
1.19672
1.20269
1.19702
1.16999
1.17736
1.18667
1.17933
1.19487
1.2128
1.20366
1.16148
1.13683
1.2054
1.24603
1.28052
1.26757
1.3187
1.34979
1.33601
1.30859
1.21964
1.32779
1.23361
1.22616
1.33227
1.30742
1.32634
1.40093
1.34567
1.12461
1.34673
1.59715
1.67937
1.68445
1.72374
1.69154
1.7031
1.57372
1.56994
1.54488
1.5184
1.42095
1.43617
1.54489
1.54164
1.57619
1.54563
1.53443
1.55679
1.51474
1.10555
1.1158
1.12659
1.1248
1.11645
1.11336
1.1041
1.10396
1.10895
1.11274
1.11183
1.11433
1.11535
1.10903
1.10991
1.10776
1.11007
1.11661
1.1173
1.1195
1.12054
1.11999
1.11974
1.12044
1.12023
1.12121
1.12179
1.12233
1.12326
1.12481
1.12699
1.12876
1.12957
1.12922
1.12802
1.12794
1.12738
1.12638
1.12756
1.12894
1.12808
1.12705
1.12844
1.12928
1.12843
1.12971
1.13267
1.13424
1.13754
1.14171
1.14561
1.14912
1.15153
1.15168
1.15354
1.15699
1.15685
1.15763
1.15633
1.15821
1.16046
1.16116
1.16472
1.16385
1.16684
1.16707
1.17012
1.1734
1.17318
1.17838
1.17533
1.17322
1.17099
1.16674
1.16705
1.16552
1.16777
1.16763
1.16362
1.17127
1.16817
1.1729
1.17801
1.17684
1.1774
1.18328
1.17518
1.17758
1.18234
1.17835
1.17031
1.17669
1.18106
1.17005
1.16577
1.16924
1.17268
1.17642
1.17168
1.16558
1.15347
1.17644
1.1841
1.17537
1.18829
1.1543
1.15436
1.14631
1.15042
1.15408
1.1796
1.17842
1.18807
1.21479
1.20578
1.18531
1.19648
1.21278
1.22448
1.24355
1.26424
1.28745
1.3083
1.28041
1.22369
1.18906
1.17145
1.16918
1.19742
1.19669
1.19605
1.2068
1.19104
1.16294
1.18021
1.19738
1.19007
1.18791
1.20243
1.18708
1.15274
1.13198
1.19007
1.24539
1.2816
1.26269
1.31459
1.32455
1.29467
1.29029
1.19648
1.29429
1.22309
1.20272
1.31243
1.29084
1.30825
1.34784
1.31616
1.15142
1.32108
1.55135
1.64507
1.66452
1.72475
1.69655
1.734
1.59014
1.55873
1.46349
1.43894
1.39429
1.47688
1.56343
1.5321
1.55734
1.50395
1.49884
1.51465
1.46692
1.10924
1.11981
1.12903
1.12586
1.11672
1.11423
1.1082
1.10671
1.11102
1.11312
1.11366
1.11198
1.11704
1.1179
1.11774
1.11854
1.114
1.11431
1.1178
1.12053
1.12489
1.1276
1.12723
1.12682
1.12495
1.12282
1.12163
1.12162
1.12228
1.12267
1.12378
1.12592
1.12773
1.12856
1.12904
1.12973
1.13021
1.13011
1.13007
1.13022
1.13166
1.13293
1.1339
1.13444
1.13581
1.13617
1.13869
1.14333
1.14501
1.14639
1.14918
1.15203
1.15416
1.15478
1.15394
1.15649
1.15735
1.15973
1.15988
1.1593
1.16095
1.16107
1.16089
1.16169
1.16121
1.16538
1.1628
1.16556
1.16633
1.16999
1.17702
1.17865
1.17731
1.17303
1.17297
1.17
1.16723
1.17522
1.17142
1.17633
1.17415
1.17215
1.17424
1.176
1.17454
1.18141
1.175
1.17512
1.1798
1.17741
1.17044
1.17581
1.17962
1.17256
1.17026
1.16747
1.17093
1.17655
1.16962
1.16344
1.15131
1.17186
1.18815
1.17366
1.18567
1.14566
1.15153
1.14885
1.14852
1.15585
1.17689
1.18596
1.17834
1.19773
1.21668
1.18882
1.18959
1.20619
1.2152
1.22772
1.23679
1.27214
1.28905
1.26432
1.21353
1.17874
1.15108
1.14883
1.18539
1.17872
1.19198
1.2057
1.17053
1.16096
1.17855
1.18436
1.17327
1.16718
1.18288
1.17348
1.17651
1.17465
1.21263
1.27073
1.30622
1.27728
1.31314
1.28192
1.23146
1.24436
1.17019
1.25924
1.20956
1.18263
1.29564
1.28031
1.2829
1.30662
1.28182
1.19613
1.29072
1.49667
1.60216
1.65317
1.68086
1.67841
1.7465
1.58778
1.53142
1.41725
1.40717
1.38676
1.47095
1.5263
1.50136
1.53919
1.47679
1.46742
1.4698
1.44257
1.11397
1.12824
1.14055
1.13066
1.1196
1.12155
1.11685
1.11035
1.11155
1.11558
1.12079
1.12024
1.11845
1.11889
1.11753
1.11971
1.12236
1.12008
1.11999
1.12079
1.12228
1.12724
1.13092
1.13348
1.13434
1.13329
1.13097
1.12832
1.12657
1.12557
1.12634
1.12693
1.12743
1.12942
1.13143
1.13275
1.13414
1.13471
1.13588
1.13778
1.1376
1.13757
1.13955
1.13892
1.14076
1.14269
1.14318
1.14564
1.14707
1.14903
1.15053
1.15271
1.15525
1.15751
1.1571
1.1583
1.15593
1.15794
1.15708
1.15936
1.1593
1.16069
1.16105
1.16248
1.16739
1.17034
1.1728
1.16943
1.16879
1.16966
1.17489
1.17791
1.17973
1.17651
1.16899
1.17073
1.16623
1.17096
1.16722
1.17342
1.17853
1.17831
1.18166
1.18046
1.17366
1.18251