/*--------------------------------*- C++ -*----------------------------------*\
| =========                 |                                                 |
| \\      /  F ield         | OpenFOAM: The Open Source CFD Toolbox           |
|  \\    /   O peration     | Version:  dev                                   |
|   \\  /    A nd           | Web:      http://www.openfoam.org               |
|    \\/     M anipulation  |                                                 |
\*---------------------------------------------------------------------------*/
FoamFile
{
    version     2.0;
    format      ascii;
    class       volScalarField;
    object      T;
    location    "9.162";
}
// * * * * * * * * * * * * * * * * * * * * * * * * * * * * * * * * * * * * * //

dimensions      [0 0 0 1 0 0 0];

internalField   nonuniform List<scalar> 
12225
(
304.952
304.614
304.439
304.424
304.335
304.296
304.192
304.075
303.973
303.78
303.659
303.424
303.28
303.079
302.846
303.022
301.6
301.74
304.972
304.114
303.782
303.72
303.661
303.52
303.531
303.276
303.371
303.045
303.096
302.77
302.742
302.514
302.37
302.318
300.798
300.857
304.968
303.983
303.676
303.51
303.539
303.238
303.33
302.918
303.041
302.672
302.749
302.315
302.486
301.881
301.862
301.275
300.81
300.417
304.949
303.939
303.745
303.475
303.541
303.211
303.205
302.979
302.794
302.694
302.451
302.357
302.185
302
301.694
301.034
300.738
300.527
305.051
303.903
303.739
303.46
303.488
303.276
303.165
303.073
302.814
302.735
302.446
302.367
302.091
301.989
301.811
301.192
301.191
300.626
304.829
303.992
303.623
303.545
303.393
303.407
303.044
303.253
302.628
302.816
302.272
302.435
301.939
301.972
301.726
301.804
301.606
300.863
304.894
304.024
303.747
303.509
303.493
303.362
303.024
303.079
302.564
302.601
302.242
302.293
301.902
301.757
301.568
301.443
301.308
300.773
304.769
304.213
303.563
303.666
303.415
303.5
303.051
303.126
302.566
302.693
302.213
302.403
301.845
301.925
301.58
301.498
301.295
300.975
304.873
304.085
303.625
303.557
303.518
303.425
303.2
303.084
302.741
302.666
302.315
302.305
301.994
301.889
301.605
301.495
301.378
301.147
304.775
304.13
303.605
303.747
303.455
303.521
303.161
303.167
302.821
302.779
302.387
302.373
302.137
302.027
301.77
301.611
301.544
301.343
304.728
304.153
303.677
303.709
303.445
303.467
303.165
303.098
302.816
302.748
302.487
302.375
302.157
302.051
301.897
301.685
301.616
301.394
304.729
304.092
303.691
303.697
303.466
303.449
303.215
303.181
302.969
302.885
302.648
302.488
302.27
302.196
302.09
301.901
301.77
301.552
304.724
304.038
303.71
303.694
303.536
303.515
303.366
303.271
303.1
302.938
302.752
302.594
302.388
302.232
302.111
302
301.832
301.665
304.608
303.966
303.712
303.715
303.613
303.613
303.433
303.342
303.156
302.999
302.809
302.629
302.488
302.341
302.219
302.1
301.946
301.84
304.397
303.973
303.806
303.783
303.666
303.657
303.467
303.39
303.164
303.061
302.848
302.682
302.573
302.415
302.307
302.204
302.085
301.993
304.189
303.922
303.765
303.752
303.687
303.645
303.454
303.395
303.158
303.043
302.849
302.745
302.587
302.441
302.342
302.256
302.176
302.017
304.034
303.867
303.686
303.647
303.624
303.54
303.391
303.3
303.08
302.977
302.797
302.661
302.516
302.447
302.314
302.189
302.122
302.021
303.856
303.652
303.511
303.429
303.469
303.358
303.257
303.13
302.913
302.781
302.57
302.435
302.311
302.162
302.072
301.966
301.868
301.771
303.544
303.473
303.34
303.26
303.265
303.101
303.022
302.819
302.628
302.496
302.259
302.149
301.99
301.859
301.746
301.586
301.514
301.406
303.229
303.322
303.078
303.04
302.94
302.812
302.695
302.48
302.309
302.1
301.909
301.762
301.569
301.49
301.295
301.217
301.09
300.977
303.051
303.173
302.897
302.778
302.673
302.628
302.438
302.256
302.054
301.775
301.582
301.369
301.242
301.091
300.963
300.864
300.718
300.661
302.9
303.055
302.73
302.659
302.581
302.391
302.211
302.016
301.716
301.526
301.293
301.081
300.93
300.748
300.626
300.493
300.379
300.269
302.81
302.889
302.613
302.504
302.316
302.19
301.981
301.742
301.524
301.278
301.058
300.861
300.675
300.513
300.358
300.232
300.079
300
302.623
302.867
302.529
302.34
302.215
302.017
301.798
301.599
301.335
301.116
300.902
300.663
300.506
300.286
300.158
299.992
299.867
299.765
302.664
302.742
302.391
302.279
302.111
301.926
301.718
301.488
301.255
301.028
300.782
300.572
300.356
300.155
299.989
299.812
299.693
299.551
302.566
302.736
302.393
302.233
302.066
301.863
301.642
301.402
301.158
300.913
300.682
300.458
300.254
300.062
299.89
299.734
299.592
299.472
302.497
302.708
302.37
302.204
302.024
301.814
301.583
301.34
301.093
300.854
300.626
300.411
300.213
300.027
299.857
299.7
299.559
299.433
302.479
302.698
302.334
302.153
301.97
301.763
301.535
301.293
301.051
300.818
300.601
300.401
300.217
300.048
299.896
299.758
299.633
299.522
302.544
302.728
302.362
302.184
301.994
301.779
301.552
301.325
301.109
300.908
300.724
300.551
300.392
300.243
300.106
299.974
299.853
299.737
302.109
302.603
302.412
302.308
302.163
301.994
301.813
301.625
301.437
301.248
301.062
300.88
300.704
300.534
300.372
300.217
300.07
299.911
288.491
283.742
281.597
280.733
280.532
280.566
280.585
280.613
280.532
280.374
280.179
279.931
279.693
279.505
279.343
279.115
278.92
278.867
278.865
279.026
279.558
280.293
281.121
282.063
283.175
284.739
286.069
286.434
286.526
287.491
288.273
288.195
288.443
287.735
285.768
284.424
285.512
287.826
289.361
290.19
291.497
292.962
293.989
294.907
295.747
296.363
296.764
297.035
297.241
297.417
297.581
297.743
297.908
298.076
298.243
298.413
298.586
298.764
298.943
299.123
299.307
299.489
299.674
299.852
300.025
300.195
300.363
300.524
300.669
300.801
300.92
301.033
301.14
301.227
301.303
301.369
301.414
301.446
301.444
301.381
301.283
301.142
301.036
300.888
300.747
300.757
300.875
301.051
301.293
301.497
301.662
301.642
301.401
301.026
300.673
300.318
299.937
299.565
299.129
298.755
298.547
298.219
297.36
296.409
295.382
293.98
292.434
290.752
289.625
288.874
288.434
288.094
287.511
286.757
286.393
287.845
290.848
294.726
296.081
294.226
296.372
296.979
296.927
296.975
294.425
293.831
295.531
297.726
298.596
297.767
295.76
301.964
297.6
297.207
297.753
297.92
298.303
298.666
299.058
299.694
300.622
301.382
302.443
303.334
304.361
305.265
306.282
306.827
307.2
307.066
306.973
306.597
305.946
305.432
302.956
302.258
301.875
301.015
297.968
295.191
295.761
298.72
300.116
296.607
290.618
294.797
304.5
311.564
301.98
293.492
296.207
286.768
294.1
290.131
299.026
302.833
303.77
300.932
301.525
302.756
288.29
283.032
281.731
282.438
283.32
283.783
283.788
283.727
283.436
282.877
282.406
281.819
281.268
280.86
280.348
279.931
279.383
278.557
277.8
276.466
275.272
274.771
274.056
274.089
274.912
274.851
276.008
277.497
276.728
277.779
278.976
276.215
276.425
280.209
281.154
277.277
277.2
284.259
291.214
294.572
295.801
296.31
296.627
296.829
296.93
296.931
296.903
296.868
296.909
296.977
297.05
297.158
297.268
297.384
297.532
297.7
297.873
298.053
298.233
298.417
298.63
298.833
299.047
299.233
299.435
299.647
299.877
300.103
300.297
300.488
300.65
300.837
301.022
301.168
301.314
301.463
301.559
301.655
301.786
301.716
301.667
301.393
301.205
300.802
299.95
299.278
299.087
299.118
299.668
300.357
301.399
302.491
302.677
301.679
299.851
298.237
296.882
295.981
294.692
293.281
292.802
292.284
290.252
288.905
288.56
286.342
282.79
279.821
278.994
279.109
278.957
279.807
280.877
280.53
278.117
277.265
277.074
280.536
284.356
285.446
292.612
294.661
292.922
290.542
289.35
294.005
297.084
297.215
299.363
299.75
299.577
309.673
300.548
299.532
301.357
300.507
300.692
299.299
297.514
295.802
293.909
291.984
290.831
291.794
293.906
295.268
296.352
296.314
296.357
295.55
295.081
294.024
292.506
291.174
285.51
284.942
282.479
276.547
270.057
267.01
263.38
266.846
272.007
263.142
253.569
270.568
288.21
285.066
267.604
276.524
274.711
259.782
269.516
267.086
277.131
279.905
278.705
270.253
264.597
263.865
289.807
286.613
286.854
287.544
287.424
286.477
285.24
284.071
283.095
282.032
281.288
280.781
280.201
279.762
280.045
280.408
280.504
281.338
281.235
280.555
279.81
278.349
277.839
275.761
273.119
274.814
276.276
274.239
273.823
276.537
278.424
272.715
270.767
279.865
289.489
292.928
294.114
295.435
296.09
296.161
295.992
295.762
295.565
295.375
295.264
295.233
295.328
295.519
295.734
296.025
296.277
296.463
296.71
296.918
297.122
297.357
297.56
297.772
297.961
298.151
298.335
298.527
298.696
298.848
299.003
299.135
299.28
299.445
299.635
299.866
300.032
300.198
300.386
300.655
300.887
301.132
301.288
301.359
301.978
301.926
302.436
302.707
302.904
303.052
302.796
302.178
301.835
301.475
301.457
301.316
301.711
303.454
304.775
305.945
304.341
301.778
300.609
300.209
297.71
294.946
294.059
292.919
291.975
291.665
290.186
288.929
288.168
286.233
284.463
284.547
284.207
283.58
284.094
286.367
285.666
282.606
282.842
284.259
284.307
285.255
291.973
293.925
293.2
290.73
293.658
299.613
300.422
297.819
302.708
303.564
305.689
309.361
306.912
308.473
311.616
312.904
314.854
313.485
312.855
312.344
309.998
306.734
301.233
298.774
299.139
301.57
304.185
304.438
302.552
299.672
296.638
293.751
293.05
289.352
284.896
292.675
290.229
273.196
265.589
276.585
276.243
270.558
265.985
249.17
243.76
268.262
278.598
270.802
272.22
285.996
275.764
278.105
272.347
270.156
272.484
275.006
271.232
263.959
253.843
247.897
291.018
289.182
289.059
287.745
285.738
283.346
281.283
279.544
278.108
276.873
276.003
275.599
275.129
274.741
274.924
275.292
275.745
276.286
276.776
277.941
278.545
278.481
278.657
280.115
279.755
274.111
272.198
275.889
272.831
266.319
271.605
284.491
290.536
292.707
293.97
294.29
294.372
294.366
294.291
294.183
294.138
294.326
294.567
294.989
295.458
295.967
296.51
296.971
297.298
297.571
297.793
297.962
298.1
298.272
298.408
298.581
298.772
298.962
299.184
299.477
299.718
300.017
300.286
300.601
300.875
301.052
301.167
301.193
301.259
301.401
301.505
301.464
301.494
301.662
301.81
301.989
302.014
301.559
302.675
301.847
302.235
302.41
302.378
302.385
302.313
302.42
302.188
302.145
302.573
302.673
302.048
301.955
301.916
303.66
303.085
299.536
299.306
303.304
302.82
299.477
299.105
298.677
297.89
296.771
294.596
294.444
297.297
300.446
302.051
303.475
301.648
294.326
290.3
291.207
288.907
284.525
284.117
283.719
283.537
285.778
292.93
294.976
291.152
288.471
294.901
300.238
300.539
301.326
307.506
304.012
301.679
307.768
306.148
306.937
310.246
313.828
317.631
315.309
313.765
314.864
314.895
315.026
311.15
308.834
302.415
299.302
300.443
306.324
308.931
308.533
303.86
297.458
301.575
291.708
283.172
302.757
308.681
282.378
266.013
280.431
298.68
292.053
269.892
243.028
241.207
269.122
284.584
267.492
265.471
275.083
275.402
286.389
286.657
283.48
273.798
272.734
266.456
268.484
260.355
252.509
291.828
290.653
288.678
285.761
282.98
280.346
278.845
277.843
276.964
276.303
275.937
276.708
277.117
276.86
276.76
276.936
276.632
276.317
275.856
275.762
277.996
279.691
276.346
273.847
274.018
273.908
276.451
273.142
267.736
275.036
285.532
290.575
292.027
292.904
293.267
293.667
293.886
294.273
294.536
294.869
295.253
295.722
296.252
296.755
297.156
297.441
297.451
297.406
297.289
297.093
296.91
296.786
296.713
296.669
296.699
296.742
296.808
296.994
297.185
297.443
297.751
298.177
298.675
299.289
299.973
300.637
301.276
301.803
302.178
302.686
303.045
303.071
303.342
303.543
303.684
304.02
304.172
303.546
305.001
304.619
304.854
305.12
305.2
305.413
304.896
304.282
303.491
302.215
301.71
302.102
303.237
304.492
304.198
303.843
304.656
301.97
298.515
302.328
304.678
301.724
302.04
304.533
306.008
304.76
302.47
301.493
301.505
303.901
307.641
311.724
312.555
307.974
304.249
303.938
299.694
291.005
285.183
281.548
282.889
286.166
291.38
290.96
287.72
289.079
295.303
297.25
297.67
303.559
305.643
306.07
306.578
307.184
309.752
308.186
311.313
314.045
320.085
320.636
317.666
315.874
315.239
316.683
310.772
313.27
310.804
306.551
300.501
303.937
307.042
310.39
308.596
298.457
311.792
299.224
283.122
310.431
329.487
301.997
269.158
270.992
299.81
303.301
272.313
240.32
241.141
265.638
276.837
258.871
254.828
260.079
264.027
273.102
283.422
292.463
279.078
277.551
269.899
276.227
271.167
267.906
292.137
290.265
286.487
283.271
280.633
278.315
277.774
277.636
277.64
278.207
279.345
281.3
282.311
282.535
282.878
283.216
282.849
281.267
280.23
277.848
276.029
277.23
276.037
275.356
278.019
278.438
273.574
270.219
276.298
286.617
292.11
293.58
294.271
294.608
294.801
295.06
295.116
295.158
295.227
295.401
295.737
296.139
296.475
296.647
296.548
296.285
295.939
295.636
295.383
295.25
295.251
295.287
295.371
295.506
295.668
295.762
295.865
295.959
295.991
296.027
295.992
296.04
296.135
296.42
296.809
297.394
298.015
298.825
299.393
300.163
300.801
301.05
301.389
301.661
301.857
302.196
302.422
302.395
302.912
303.496
303.772
304.101
304.558
305.215
306.016
306.192
307.019
306.506
305.228
303.983
302.534
301.933
303.975
304.347
304.569
305.834
303.817
304.005
305.251
303.563
301.558
304.169
307.931
307.251
305.293
305.754
305.798
307.679
309.153
307.569
305.757
305.253
306.24
305.507
299.195
290.921
284.297
280.56
281.567
286.22
288.829
289.935
294.295
293.531
293.533
294.239
297.168
301.99
302.159
305.913
308.644
306.33
310.951
303.794
308.753
307.594
313.127
318.044
319.982
316.977
312.714
314.663
308.052
308.544
310.498
313.565
307.539
307.375
308.986
311.566
314.462
295.357
316.816
306.963
287.392
317.053
348.876
323.113
275.002
276.914
306.595
308.444
272.527
240.048
242.241
264.023
273.283
260.302
251.654
245.431
246.634
267.176
282.064
288.065
281.119
274.134
273.649
272.269
269
270.765
292.124
289.143
285.157
282.693
280.324
278.837
279.638
280.896
282.545
284.187
286.201
288.674
290.294
290.423
290.175
290.232
290.925
291.157
289.202
285.37
283.451
284.562
283.179
280.22
277.101
273.747
273.982
279.523
287.383
292.584
294.165
294.433
294.639
294.549
294.516
294.393
294.44
294.537
294.906
295.524
296.054
296.516
296.699
296.455
296.035
295.568
295.312
295.289
295.43
295.72
295.935
296.166
296.49
296.738
297.032
297.345
297.67
297.962
298.155
298.23
298.096
297.978
297.618
297.395
297.217
297.216
297.328
297.738
298.19
298.88
299.483
300.096
300.531
300.96
301.08
301.815
301.558
302.488
302.874
302.929
304.003
304.445
304.598
304.415
304.983
304.706
305.376
306.79
307.968
308.216
307.593
304.804
304.537
306.182
305.165
305.552
305.458
304.774
304
303.389
300.588
299.739
303.35
306.11
307.499
309.072
307.108
307.469
310.041
309.006
306.492
305.283
306.48
307.026
300.122
291.693
284.206
281.22
279.922
285.745
287.226
292.119
296.272
291.788
296.576
298.66
302.168
301.031
303.89
306.451
308.46
310.202
313.161
304.861
313.523
310.116
311.611
317.547
320.576
322.133
316.037
315.936
309.403
306.3
304.184
308.981
304.401
304.841
300.794
303.259
318.559
290.342
321.352
310.727
290.722
311.91
350.499
329.15
276.822
287.778
317.267
310.801
270.088
239.624
245.646
271.992
278.138
262.482
250.06
232.422
239.725
255.922
277.101
290.184
287.439
272.94
268.433
263.595
259.814
264.21
292.151
288.733
284.752
282.25
280.198
280.751
283.764
286.102
288.285
290.273
292.087
292.626
292.581
292.198
291.234
290.415
289.492
289.012
288.54
287.808
286.818
284.796
280.739
277.156
276.296
278.327
283.551
289.442
293.303
294.727
294.683
294.521
294.331
294.058
294.06
294.197
294.617
295.207
295.883
296.386
296.724
296.552
296.091
295.381
294.845
294.698
294.884
295.291
295.682
295.904
296.064
296.19
296.286
296.436
296.721
297.083
297.496
297.988
298.513
299.083
299.258
299.56
299.381
299.257
299.147
298.837
298.642
298.388
298.253
298.315
298.427
298.963
299.161
300.171
299.737
301.048
300.518
301.077
302.844
302.881
303.881
304.887
305.875
305.396
306.06
305.98
305.967
305.36
306.211
307.534
308.799
307.848
305.647
306.313
306.402
306.774
306.86
306.802
304.198
302.958
302.219
301.898
304.042
305.683
305.666
309.778
310.317
311.041
314.351
313.235
309.281
305.746
306.199
308.087
300.89
293.499
284.12
283.298
277.929
284.483
287.144
293.215
292.832
290.971
303.978
302.613
301.18
299.723
301.216
306.147
304.404
305.104
309.744
305.987
313.786
311.965
308.56
317.234
319.682
321.647
316.203
315.023
310.463
306.214
299.932
304.978
302.994
306.495
295.073
301.962
321.773
286.693
323.278
312.033
295.72
300.367
330.432
312.452
276.453
298.444
320.355
308.084
266.479
240.41
246.972
275.947
277.125
259.453
256.677
236.943
239.686
249.605
275.283
288.448
282.502
279.039
265.433
262.469
257
257.109
292.142
288.231
284.23
283.027
283.822
287.825
292.23
293.761
294.497
294.222
292.119
288.874
287.775
289.129
290.738
289.353
286.548
285.215
284.682
283.903
282.839
281.405
280.678
281.49
284.042
287.722
291.409
293.714
294.444
294.257
293.745
293.535
293.383
293.574
293.884
294.242
294.85
295.296
295.877
296.113
295.964
295.497
294.885
294.537
294.713
295.224
295.853
296.255
296.401
296.346
296.236
296.138
296.231
296.382
296.599
296.901
297.246
297.69
298.057
298.92
299.311
299.845
299.826
300.042
300.167
300.359
300.673
300.743
300.775
300.521
300.078
300.014
299.084
300.054
299.039
299.688
299.482
299.068
300.448
302.091
303.461
304.539
306.085
306.479
305.823
305.76
307.142
307.87
306.964
306.717
308.158
310.04
308.968
307.742
307.131
307.039
307.271
308.67
307.568
304.416
303.2
302.605
305.761
309.552
307.47
309.651
311.991
311.388
313.974
314.561
312.025
307.923
306.633
308.819
301.951
295.267
285.564
283.359
278.714
281.421
287.068
294.016
285.561
291.47
301.478
302.523
305.873
308.3
308.287
307.846
309.611
304.28
308.284
309.646
318.033
314.524
308.215
311.512
319.601
321.69
315.666
309.572
306.686
304.471
297.32
302.395
300.885
301.258
288.228
302.017
318.761
285.501
318.397
314.13
298.364
298.887
316.822
290.504
280.113
312.28
319.503
300.478
261.747
241.718
246.499
269.11
269.015
281.441
278.589
245.021
234.043
246.533
281.053
286.668
277.758
274.297
268.117
265.061
258.118
254.198
292.282
288.575
285.693
286.111
288.093
292.341
295.703
294.969
292.274
289.729
290.699
291.859
290.293
288.886
290.586
289.458
287.617
287.106
285.635
284.958
284.674
284.821
285.628
287.532
290.093
292.016
293.407
293.872
293.653
293.372
293.256
293.439
293.627
293.848
294.273
294.834
295.276
295.696
295.752
295.446
295.105
294.757
294.651
294.948
295.563
296.097
296.427
296.43
296.235
296.021
295.933
295.919
296.058
296.284
296.602
296.964
297.243
297.703
297.773
298.464
299.073
299.949
300.049
300.403
300.224
300.278
300.468
300.954
301.541
302.097
302.431
302.329
301.119
300.733
299.516
298.572
298.165
298.728
299.131
300.99
302.455
303.625
304.476
307.406
307.321
306.051
306.268
308.527
308.228
306.446
306.519
309.035
310.218
309.03
308.134
307.429
307.469
309.099
310.05
307.331
305.491
303.75
302.838
307.39
305.741
305.781
311.698
314.072
314.8
313.747
309.818
305.816
304.887
309.336
303.409
296.591
288.943
283.235
281.15
279.774
285.08
293.615
282.872
285.363
294.267
303.941
309.145
307.338
306.097
307.038
310.325
306.7
304.75
306.826
319.8
316.617
313.813
309.44
316.322
317.187
315.86
309.484
304.612
304.022
297.972
304.252
302.797
297.971
286.04
301.879
311.269
284.018
315.329
313.412
296.873
301.716
314.822
280.059
289.761
325.319
315.442
290.176
257.438
243.429
247.004
258.933
256.868
281.99
271.93
239.094
242.457
254.992
278.66
283.337
275.592
267.811
261.996
261.029
256.597
254.521
292.77
289.501
286.489
286.811
288.955
292.628
294.499
292.368
290.924
291.19
292.242
291.602
290.599
288.898
289.001
289.007
288.927
289.018
288.706
289.626
290.077
290.704
292.066
293.146
293.802
294.309
294.179
293.931
293.666
293.656
293.856
294.058
294.289
294.558
294.564
294.733
294.814
294.96
295.081
295.064
295.078
295.018
295.225
295.579
296.087
296.458
296.65
296.64
296.546
296.441
296.408
296.42
296.451
296.576
296.753
297.109
297.372
297.974
298.187
298.553
298.904
300.036
300.799
301.59
302.045
302.329
302.103
302.132
302.185
302.472
303.847
304.31
305.136
303.919
303.013
301.359
298.85
299.698
300.53
301.937
303.767
305.585
303.539
305.261
307.075
307.445
307.441
309.656
309.904
307.589
307.263
309.099
311.241
310.536
308.492
306.362
307.414
309.889
312.238
309.716
307.022
306.431
302.492
305.15
308.015
306.231
311.076
314.084
315.213
314.117
309.998
304.767
302.269
307.493
304.504
296.281
292.059
284.327
282.595
279.29
284.77
293.253
282.519
281.162
287.435
302.31
309.551
309.894
306.209
307.262
308.865
309.603
307.285
303.6
314.228
315.919
313.622
310.156
317.203
314.49
314.29
310.236
302.855
302.961
298.647
305.432
304.034
295.6
283.707
299.611
307.906
283.172
315.482
312.499
296.143
299.515
311.991
276.866
295.666
336.66
309.809
279.048
252.604
244.528
246.693
250.625
248.88
276.348
260.684
239.381
247.502
251.612
284.676
280.989
270.897
266.713
259.602
260.237
257.551
256.371
293.185
289.705
286.758
288.007
290.497
293.169
294.216
292.551
292.473
291.989
291.066
290.423
292.128
292.486
292.527
292.136
291.915
291.984
291.526
292.19
291.935
292.485
292.805
292.943
293.099
293.027
292.75
292.592
292.52
292.617
292.596
292.544
292.453
292.379
292.612
292.809
293.142
293.382
293.47
293.697
293.998
294.447
295.006
295.669
296.294
296.796
297.18
297.274
297.232
297.004
296.733
296.529
296.411
296.538
296.54
296.619
296.602
296.959
297.321
297.819
298.032
298.671
299.629
300.523
301.44
302.435
303.214
303.621
304.076
303.474
303.803
303.618
305.363
305.195
304.754
304.344
302.299
301.927
302.55
303.821
303.622
306.855
306.728
306.33
306.087
306.283
305.565
307.384
309.818
308.282
307.254
307.702
310.404
312.056
310.601
307.734
308.242
310.097
311.943
310.466
307.474
307.622
305.554
303.637
310.296
309.756
312.123
313.716
313.89
312.615
310.533
304.983
299.941
304.893
306.61
297.273
295.015
287.406
282.3
278.26
284.612
292.764
284.029
277.916
286.565
300.296
307.218
306.263
302.506
298.593
303.303
304.678
306.455
304.996
310.558
315.307
312.966
305.143
312.088
312.851
314.37
313.477
300.738
299.399
296.561
303.938
302.227
292.926
282.308
297.135
307.746
284.502
315.072
313.973
296.84
299.665
307.858
275.711
294.426
344.942
304.511
268.746
247.731
245.142
246.6
246.857
256.026
277.236
273.271
255.434
256.387
263.668
286.905
275.173
266.906
261.224
258.377
260.382
259.113
257.048
293.628
290.306
287.783
289.085
291.566
294.368
295.48
292.713
292.323
292.816
293.31
292.156
292.016
291.807
291.3
292.16
292.23
293.164
293.087
293.598
293.462
293.57
293.339
293.103
292.763
292.438
292.515
292.507
292.865
293.055
293.125
293.055
293.282
293.294
293.605
294.131
294.576
295.132
295.4
295.729
295.97
296.278
296.62
297.118
297.61
297.914
298.15
298.142
297.925
297.444
296.953
296.815
296.746
297.015
297.268
297.45
297.339
297.288
297.06
297.106
297.064
297.313
298.04
298.88
299.511
299.768
300.656
301.443
302.946
304.235
304.827
305.247
305.319
306.237
306.29
305.362
304.767
304.682
303.533
305.967
305.437
305.254
306.131
306.647
307.131
308.918
308.104
306.441
308.401
309.196
309.065
308.086
309.517
311.824
310.622
307.644
308.342
309.804
311.39
311.547
309.868
307.382
307.818
302.573
308.191
309.388
310.637
313.169
313.123
311.293
309.237
307.08
298.669
300.87
306.026
299.087
295.81
291.21
283.635
276.833
282.852
288.847
282.658
277.675
286.607
297.893
305.449
303.737
298.516
297.505
300.994
304.499
305.114
309.061
310.266
311.014
315.655
308.177
308.886
310.112
313.861
318.268
303.841
301.78
298.627
304.344
297.454
286.835
280.391
294.554
310.037
287.612
316.189
316.168
295.946
301.07
303.947
276.547
294.517
354.276
301.906
261.461
245.606
245.31
245.467
246.404
262.199
266.435
267.782
257.626
255.946
271.795
287.089
269.738
264.395
259.466
257.378
259.313
256.77
256.093
294.219
291.169
288.381
289.287
291.565
293.544
295.668
293.551
292.93
293.044
292.343
291.99
292.731
293.678
294.297
294.171
293.799
293.07
292.708
292.867
291.975
292.244
292.039
291.817
292.213
292.01
292.473
292.407
292.598
292.526
292.621
292.777
292.95
293.265
293.568
293.941
294.215
294.379
294.724
295.237
295.561
295.938
296.278
296.642
297.073
297.389
297.629
297.649
297.425
297.256
296.803
296.575
296.517
296.546
296.622
296.952
297.225
297.784
297.819
297.712
297.529
297.324
297.801
298.336
299.345
299.51
299.284
299.179
298.836
300.479
300.833
302.983
303.559
303.932
305.978
306.528
306.235
308.157
306.804
306.942
308.023
307.156
307.816
306.864
304.495
305.959
308.336
306.395
306.871
308.521
309.467
307.811
308.146
311.905
311.911
309.207
309.155
309.203
311.104
311.328
312.979
306.949
307.666
304.005
306.791
311.292
310.918
313.296
312.634
311.392
307.562
307.343
299.867
297.655
303.973
301.117
296.382
293.128
288.01
277.883
281.002
282.585
278.188
277.811
286.788
298.606
299.442
297.075
295.934
296.968
299.443
299.904
302.439
309.2
309.653
306.739
309.692
305.69
304.796
308.96
318.82
326.314
310.516
304.944
299.275
304.805
294.028
282.99
281.712
293.183
315.133
290.016
315.865
318.859
295.488
301.833
301.112
280.572
295.668
358.813
302.071
256.164
244.649
245.397
243.407
246.695
251.244
264.373
261.068
258.912
266.125
279.655
282.343
264.283
261.443
256.513
258.929
260.473
255.347
258.366
294.871
292.046
289.264
290.216
292.907
294.135
296.189
294.646
293.05
293.497
294.235
293.114
293.65
292.969
292.741
292.984
292.758
293.528
293.392
293.121
292.829
292.318
292.117
291.667
291.903
291.947
292.439
292.541
292.693
292.764
292.665
292.76
292.804
293.114
293.847
294.13
294.163
294.223
294.404
294.503
294.456
294.82
295.29
295.681
296.061
296.459
296.902
297.015
296.598
296.596
296.285
295.814
295.731
295.696
295.473
295.989
296.604
297.2
297.887
297.781
298.031
297.807
298.195
298.829
299.208
300.29
300.363
301.331
300.716
301.291
301.714
301.953
303.385
303.428
303.509
304.939
304.798
305.951
306.487
305.912
307.725
306.265
307.009
308.784
307.386
306.32
308.81
307.542
306.588
308.064
310.312
308.31
306.982
310.312
311.355
309.945
309.51
308.951
310.606
311.316
314.52
307.481
306.439
305.817
304.345
311.952
312.895
315.029
312.21
310.897
305.054
305.353
300.96
294.676
300.198
302.087
297.402
293.865
290.667
282.533
280.848
277.597
273.865
277.708
289.376
298.137
299.269
302.361
299.724
299.152
301.543
300.05
302.683
310.836
308.883
307.131
310.059
308.655
304.526
307.951
320.361
329.017
312.237
301.51
293.723
297.795
287.572
283.864
289.387
293.91
318.663
293.764
314.618
321.023
295.902
302.078
299.278
287.401
296.823
351.297
302.727
255.986
244.043
244.216
238.565
243.821
238.692
259.159
262.155
272.043
274.295
290.532
279.935
259.757
261.299
254.358
260.182
260.525
255.953
263.09
295.454
292.665
289.874
290.361
292.527
293.355
295.796
295.778
294.436
293.485
293.75
293.106
292.965
294.67
294.455
295.073
294.422
292.823
292.794
292.333
292.227
292.52
292.71
292.679
292.897
292.809
292.864
292.935
292.911
292.737
292.428
292.261
292.356
292.764
293.39
293.734
294.218
294.811
294.855
294.885
295.508
296.177
296.229
296.446
297.114
297.242
296.934
296.993
296.652
296.09
295.612
295.252
295.174
295.709
295.869
295.528
296.122
296.467
297.396
297.609
297.637
298.149
297.869
298.688
298.583
299.025
298.993
298.658
299.426
298.614
299.767
300.89
301.984
303.855
304.437
305.407
305.547
305.767
307.532
306.01
307.165
306.731
305.676
306.147
306.704
305.367
307.673
307.672
306.612
307.615
310.024
308.748
307.534
310.203
311.5
310.925
309.92
308.605
309.577
311.009
314.435
308.514
305.396
307.942
303.68
312.457
312.073
313.679
312.689
311.461
304.35
303.669
302.073
295.203
295.228
300.924
298.895
294.648
291.824
287.891
283.063
277.426
272.628
278.229
291.132
299.929
305.881
306.819
298.76
299.601
299.199
296.663
302.635
309.679
305.535
302.192
305.128
307.815
305.155
309.82
317.534
323.275
310.968
297.534
289.795
295.783
286.015
286.992
296.074
296.054
320.46
297.828
313.602
322.532
296.223
301.303
299.772
293.821
300.119
333.625
303.466
260.24
245.375
242.348
235.152
238.69
231.254
251.25
258.289
278.416
281.725
286.133
266.484
253.21
258.084
252.792
262.132
262.218
259.349
266.276
295.935
293.061
290.663
291.53
293.904
294.534
296.108
296.462
295.294
294.755
294.638
295.053
293.725
293.578
293.655
293.549
294.802
294.689
293.832
293.198
292.174
291.657
291.924
292.196
292.857
293.564
294.029
294.204
294.233
294.345
294.275
293.964
293.774
293.855
294.037
294.17
294.377
294.739
295.096
295.413
295.415
295.473
295.619
295.896
295.958
296.298
296.12
295.38
295.423
295.583
295.402
295.203
295.178
295.511
296.31
296.261
296.651
296.596
297.102
297.839
298.058
298.594
299.302
299.658
300.375
299.829
301.067
301.137
301.559
301.394
299.999
299.938
300.685
302.306
303.095
304.287
305.836
304.165
305.58
304.854
305.57
306.674
306.628
306.495
307.463
305.882
307.592
308.075
307.131
307.634
309.689
308.646
307.663
309.24
309.724
310.792
309.903
307.976
309.47
310.868
314.172
308.951
303.73
307.214
303.594
313.681
312.141
312.052
312.039
309.609
304.087
300.596
302.957
298.911
292.546
298.431
299.148
294.962
292.552
289.605
288.012
279.986
276.017
280.715
291.746
299.882
308.363
309.431
299.657
301.267
297.361
295.032
305.824
307.138
302.688
303.232
307.901
310.824
307.383
309.339
305.971
306.03
299.948
287.335
280.828
288.783
283.425
293.949
307.893
303.851
322.639
301.903
313.21
323.056
295.634
299.1
301.4
297.816
304.192
318.872
306.564
265.221
247.601
238.753
238.158
237.791
226.618
247.432
259.297
279.232
278.339
279.76
263.108
254.815
258.252
250.733
260.169
262.225
261.949
264.267
296.22
292.407
289.329
291.871
294.616
294.093
295.331
296.99
296.612
295.504
294.138
294.309
294.768
294.661
295.022
294.447
293.842
294.511
294.569
294.417
294.07
292.859
292.046
291.546
291.502
291.957
292.736
293.595
294.225
294.671
294.679
294.756
294.864
294.6
294.358
294.31
294.258
294.425
294.452
294.307
294.704
295.083
294.954
295.508
295.46
295.364
295.677
295.521
295.591
295.553
295.675
295.65
295.567
295.43
296.064
296.321
297.512
297.596
298.341
298.347
298.804
299.063
299.457
299.884
299.122
298.889
298.599
300.051
300.898
301.367
300.664
300.311
300.322
301.43
304.08
304.115
305.928
305.373
306.745
305.904
304.806
305.344
304.787
305.166
307.419
305.542
306.141
307.362
307.17
306.498
308.781
308.803
308.484
308.955
308.764
311.131
310.371