/*--------------------------------*- C++ -*----------------------------------*\
| =========                 |                                                 |
| \\      /  F ield         | OpenFOAM: The Open Source CFD Toolbox           |
|  \\    /   O peration     | Version:  dev                                   |
|   \\  /    A nd           | Web:      http://www.openfoam.org               |
|    \\/     M anipulation  |                                                 |
\*---------------------------------------------------------------------------*/
FoamFile
{
    version     2.0;
    format      ascii;
    class       volVectorField;
    object      U;
    location    "9.162";
}
// * * * * * * * * * * * * * * * * * * * * * * * * * * * * * * * * * * * * * //

dimensions      [0 1 -1 0 0 0 0];

internalField   nonuniform List<vector> 
12225
(
(6.8002 0.214645 0)
(3.30007 -0.0648453 0)
(0.879648 -0.22573 0)
(0.449197 -0.261383 0)
(-1.19984 -0.244886 0)
(-0.340588 -0.306667 0)
(-2.18829 -0.197061 0)
(-0.673812 -0.364398 0)
(-2.52015 -0.173083 0)
(-0.440191 -0.417079 0)
(-2.25204 -0.13976 0)
(0.363667 -0.481109 0)
(-1.03898 -0.187017 0)
(1.8414 -0.640922 0)
(2.85872 -0.510141 0)
(5.06119 -2.14259 0)
(21.8922 -3.09797 0)
(20.7407 0.965326 0)
(9.02253 0.312888 0)
(8.04696 0.112982 0)
(4.61035 -0.307216 0)
(5.00931 -0.509304 0)
(0.884392 -0.58486 0)
(3.41425 -0.693715 0)
(-1.72616 -0.58042 0)
(2.66546 -0.846925 0)
(-3.23637 -0.561758 0)
(3.03995 -1.0389 0)
(-3.411 -0.537136 0)
(4.18089 -1.36844 0)
(-1.66202 -0.479114 0)
(4.74068 -2.10254 0)
(1.53679 -1.32519 0)
(6.12892 -6.06532 0)
(10.4479 -4.32417 0)
(8.89837 -0.529 0)
(9.01115 -0.411252 0)
(10.9691 -0.317602 0)
(6.34201 -0.644593 0)
(9.42749 -0.796185 0)
(2.87592 -0.921045 0)
(8.09856 -0.918139 0)
(0.0574899 -1.05153 0)
(7.4756 -1.1663 0)
(-1.37646 -1.11196 0)
(7.49404 -1.62525 0)
(-1.15511 -1.05348 0)
(7.7503 -2.40313 0)
(0.948249 -0.798718 0)
(7.81735 -3.19902 0)
(4.28434 -1.22774 0)
(8.79995 -6.09884 0)
(8.24936 -5.24867 0)
(5.92927 -3.18962 0)
(6.38422 -1.12557 0)
(13.1088 -0.813021 0)
(5.63914 -1.21816 0)
(12.3285 -1.16845 0)
(4.01485 -1.34017 0)
(11.0763 -1.40598 0)
(3.14909 -1.372 0)
(9.93075 -1.8628 0)
(2.76038 -1.46374 0)
(9.21387 -2.42014 0)
(2.77156 -1.41173 0)
(8.4257 -3.346 0)
(3.44601 -1.21436 0)
(8.39146 -4.4566 0)
(4.82679 -2.14827 0)
(8.46424 -7.30735 0)
(6.54516 -4.80402 0)
(6.48533 -0.614502 0)
(5.8904 -1.7346 0)
(13.332 -1.90409 0)
(6.59092 -1.68819 0)
(11.7604 -2.12265 0)
(6.64124 -1.57274 0)
(10.1921 -2.41073 0)
(6.32319 -1.55408 0)
(9.10288 -2.74014 0)
(5.69067 -1.65561 0)
(8.25873 -3.24599 0)
(5.29834 -1.54593 0)
(7.55516 -4.06663 0)
(5.10165 -1.47566 0)
(7.55431 -4.98294 0)
(4.88847 -2.25644 0)
(6.97855 -8.55566 0)
(4.07864 -4.64002 0)
(2.95453 -1.17888 0)
(7.69683 -2.29705 0)
(9.94728 -3.12252 0)
(7.78242 -2.31324 0)
(8.34696 -3.22365 0)
(7.63481 -2.10545 0)
(7.37359 -3.40736 0)
(7.2229 -2.062 0)
(7.00666 -3.58136 0)
(6.51633 -2.05377 0)
(6.62423 -4.12171 0)
(6.1987 -1.93936 0)
(6.45306 -4.8416 0)
(5.89294 -2.09328 0)
(6.48273 -5.63745 0)
(5.58528 -2.63804 0)
(6.1523 -7.49045 0)
(3.27327 -2.46592 0)
(0.232541 -3.57283 0)
(9.37225 -2.76531 0)
(8.68731 -4.26966 0)
(8.77298 -2.57652 0)
(7.4799 -4.34624 0)
(7.92921 -2.44468 0)
(6.86642 -4.50576 0)
(7.14913 -2.35627 0)
(6.50269 -4.62518 0)
(6.71508 -2.26516 0)
(6.17188 -5.1452 0)
(6.59779 -2.17879 0)
(6.21549 -5.66895 0)
(6.60871 -2.38439 0)
(6.28178 -6.34286 0)
(6.39412 -3.1146 0)
(5.93383 -7.43832 0)
(3.90184 -1.84008 0)
(3.48433 -5.561 0)
(9.60494 -3.61305 0)
(8.81571 -5.1817 0)
(8.89663 -3.32653 0)
(7.97976 -5.11981 0)
(7.87969 -3.11135 0)
(7.23873 -5.23485 0)
(7.09575 -3.0083 0)
(6.65643 -5.35937 0)
(6.72503 -2.99372 0)
(6.28764 -5.6817 0)
(6.57172 -3.08857 0)
(6.31616 -6.00967 0)
(6.48702 -3.35489 0)
(6.4438 -6.50122 0)
(6.11433 -3.81045 0)
(6.17015 -7.02014 0)
(4.69128 -3.43701 0)
(6.38061 -6.07284 0)
(9.99676 -3.86783 0)
(8.97973 -6.00071 0)
(8.99095 -3.61769 0)
(8.01073 -5.96066 0)
(7.91499 -3.52598 0)
(7.04233 -6.07223 0)
(7.06664 -3.46776 0)
(6.47415 -6.02667 0)
(6.62112 -3.4781 0)
(6.24063 -6.2502 0)
(6.44153 -3.68866 0)
(6.25419 -6.55475 0)
(6.26526 -4.06666 0)
(6.17572 -6.95184 0)
(5.79674 -4.32946 0)
(6.0337 -7.07105 0)
(5.01096 -4.03404 0)
(6.42547 -6.24667 0)
(10.0455 -4.88286 0)
(8.93677 -6.80145 0)
(8.70503 -4.48588 0)
(7.95702 -6.5433 0)
(7.61476 -4.28754 0)
(7.02156 -6.41772 0)
(6.69061 -4.3149 0)
(6.42201 -6.40219 0)
(6.29136 -4.46685 0)
(6.22336 -6.58558 0)
(6.06105 -4.66052 0)
(6.15732 -6.72422 0)
(5.92237 -4.87305 0)
(6.05051 -6.95992 0)
(5.58857 -5.02425 0)
(6.05164 -6.90818 0)
(5.2819 -4.9736 0)
(6.39229 -6.40392 0)
(10.0695 -5.3651 0)
(8.92176 -7.5726 0)
(8.68362 -5.1411 0)
(7.93207 -7.29562 0)
(7.48701 -5.09436 0)
(7.04147 -7.19112 0)
(6.58578 -5.19729 0)
(6.44163 -7.14299 0)
(6.18314 -5.3978 0)
(6.18967 -7.23124 0)
(6.00575 -5.57946 0)
(6.17657 -7.32226 0)
(5.94631 -5.82007 0)
(6.09295 -7.43089 0)
(5.79081 -5.94732 0)
(6.12718 -7.29786 0)
(5.7257 -6.0822 0)
(6.34281 -6.86891 0)
(9.96905 -6.46345 0)
(9.08921 -8.16561 0)
(8.57766 -6.31203 0)
(7.92208 -7.73813 0)
(7.39326 -6.22583 0)
(7.07429 -7.59195 0)
(6.65592 -6.31243 0)
(6.57293 -7.56842 0)
(6.34241 -6.56917 0)
(6.32813 -7.65374 0)
(6.16329 -6.703 0)
(6.18259 -7.62954 0)
(5.98563 -6.76632 0)
(5.99913 -7.59164 0)
(5.84042 -6.79442 0)
(5.95593 -7.49038 0)
(5.882 -6.92858 0)
(6.14614 -7.31702 0)
(9.96247 -7.33542 0)
(9.13962 -8.89809 0)
(8.53351 -7.43831 0)
(7.98646 -8.5007 0)
(7.53387 -7.42791 0)
(7.24788 -8.32638 0)
(6.87859 -7.52426 0)
(6.64051 -8.23483 0)
(6.35251 -7.68355 0)
(6.19515 -8.19795 0)
(5.99874 -7.76292 0)
(5.90852 -8.11076 0)
(5.81296 -7.76744 0)
(5.8317 -8.0275 0)
(5.83171 -7.75771 0)
(5.88789 -7.94847 0)
(5.98037 -7.81963 0)
(6.13414 -7.93936 0)
(9.96053 -8.63118 0)
(9.26208 -9.45129 0)
(8.51163 -8.60113 0)
(7.928 -9.03479 0)
(7.42935 -8.59329 0)
(7.08757 -8.89265 0)
(6.73626 -8.60324 0)
(6.48558 -8.75988 0)
(6.19053 -8.59995 0)
(5.97784 -8.73654 0)
(5.77306 -8.61759 0)
(5.66987 -8.69305 0)
(5.59648 -8.6238 0)
(5.60141 -8.63557 0)
(5.66471 -8.57122 0)
(5.77004 -8.60015 0)
(5.88419 -8.60206 0)
(6.01068 -8.65378 0)
(9.60128 -9.45435 0)
(8.96411 -9.99582 0)
(8.36769 -9.57773 0)
(7.96545 -9.71344 0)
(7.57605 -9.57927 0)
(7.26315 -9.62961 0)
(6.94001 -9.53754 0)
(6.68615 -9.48818 0)
(6.40269 -9.40245 0)
(6.17914 -9.3461 0)
(5.97431 -9.29941 0)
(5.85612 -9.29077 0)
(5.73931 -9.26796 0)
(5.70254 -9.29027 0)
(5.72276 -9.26804 0)
(5.76641 -9.2527 0)
(5.83136 -9.2541 0)
(5.89396 -9.25667 0)
(9.54528 -9.96528 0)
(8.98204 -10.6106 0)
(8.51727 -10.4944 0)
(8.06882 -10.5219 0)
(7.60183 -10.422 0)
(7.18531 -10.314 0)
(6.82806 -10.169 0)
(6.5532 -10.0337 0)
(6.33096 -9.92532 0)
(6.16994 -9.83475 0)
(6.03726 -9.77127 0)
(5.98107 -9.737 0)
(5.92944 -9.71038 0)
(5.92363 -9.69794 0)
(5.9112 -9.67827 0)
(5.9416 -9.67335 0)
(5.98654 -9.64969 0)
(6.01406 -9.65513 0)
(9.94079 -10.3801 0)
(9.21986 -11.0478 0)
(8.7028 -10.8373 0)
(8.13077 -10.7239 0)
(7.55764 -10.5965 0)
(7.04343 -10.5065 0)
(6.65211 -10.4315 0)
(6.3735 -10.3645 0)
(6.16713 -10.2913 0)
(6.03201 -10.2204 0)
(5.92623 -10.1504 0)
(5.8745 -10.0776 0)
(5.84311 -10.0056 0)
(5.84381 -9.95332 0)
(5.866 -9.88348 0)
(5.91418 -9.83652 0)
(5.96922 -9.78931 0)
(5.99831 -9.75518 0)
(9.69202 -10.2275 0)
(9.06248 -10.8852 0)
(8.56 -10.7198 0)
(8.10679 -10.5611 0)
(7.72767 -10.4043 0)
(7.38107 -10.3077 0)
(7.11664 -10.2647 0)
(6.89453 -10.214 0)
(6.7022 -10.15 0)
(6.54363 -10.0523 0)
(6.37983 -9.95992 0)
(6.25044 -9.88207 0)
(6.13074 -9.80228 0)
(6.04765 -9.75141 0)
(6.00322 -9.70232 0)
(5.98513 -9.64412 0)
(5.99956 -9.56312 0)
(6.00614 -9.49133 0)
(9.8675 -9.75232 0)
(9.12814 -10.3545 0)
(8.59492 -10.2371 0)
(8.17468 -10.1296 0)
(7.84965 -9.99573 0)
(7.5618 -9.90101 0)
(7.26149 -9.83062 0)
(7.00192 -9.72841 0)
(6.77818 -9.61528 0)
(6.62404 -9.45351 0)
(6.50959 -9.29524 0)
(6.45162 -9.17162 0)
(6.39909 -9.06987 0)
(6.35881 -9.00056 0)
(6.31102 -8.94966 0)
(6.28228 -8.91721 0)
(6.26326 -8.88797 0)
(6.23222 -8.81983 0)
(9.71561 -8.9665 0)
(9.06222 -9.52311 0)
(8.56644 -9.41917 0)
(8.16169 -9.34315 0)
(7.83563 -9.20487 0)
(7.56688 -9.04785 0)
(7.28433 -8.92385 0)
(7.0664 -8.83905 0)
(6.86221 -8.7708 0)
(6.73459 -8.71229 0)
(6.64291 -8.62734 0)
(6.59758 -8.52563 0)
(6.58214 -8.40259 0)
(6.58851 -8.2881 0)
(6.58421 -8.15943 0)
(6.59209 -8.04192 0)
(6.59426 -7.93802 0)
(6.61078 -7.87144 0)
(9.97802 -7.92411 0)
(9.36539 -8.46577 0)
(8.98171 -8.43988 0)
(8.61583 -8.40744 0)
(8.29921 -8.30562 0)
(7.99819 -8.14937 0)
(7.7239 -8.01884 0)
(7.47966 -7.93144 0)
(7.25283 -7.84425 0)
(7.06012 -7.76102 0)
(6.89553 -7.66468 0)
(6.76806 -7.55436 0)
(6.68956 -7.45326 0)
(6.65881 -7.34788 0)
(6.65285 -7.25008 0)
(6.66927 -7.16199 0)
(6.69015 -7.09085 0)
(6.73486 -7.02158 0)
(9.91352 -7.04376 0)
(9.33091 -7.5296 0)
(8.94699 -7.49274 0)
(8.548 -7.42396 0)
(8.1877 -7.2787 0)
(7.91051 -7.11912 0)
(7.69067 -7.00377 0)
(7.50347 -6.89208 0)
(7.34305 -6.80401 0)
(7.18785 -6.7232 0)
(7.04982 -6.64831 0)
(6.94135 -6.57336 0)
(6.84462 -6.48817 0)
(6.80933 -6.40149 0)
(6.81521 -6.31947 0)
(6.83162 -6.21859 0)
(6.86403 -6.12353 0)
(6.91396 -6.05032 0)
(9.84809 -5.96451 0)
(9.37492 -6.43034 0)
(9.08011 -6.42742 0)
(8.73028 -6.36331 0)
(8.42045 -6.25039 0)
(8.1559 -6.15648 0)
(7.905 -6.03992 0)
(7.70502 -5.94268 0)
(7.50973 -5.84242 0)
(7.34874 -5.7366 0)
(7.1981 -5.64872 0)
(7.07437 -5.56544 0)
(6.99181 -5.49533 0)
(6.93359 -5.43535 0)
(6.91367 -5.37783 0)
(6.93236 -5.34082 0)
(6.96638 -5.30364 0)
(7.02292 -5.256 0)
(9.95177 -5.0674 0)
(9.47039 -5.54112 0)
(9.16048 -5.51289 0)
(8.81832 -5.40845 0)
(8.48779 -5.2807 0)
(8.19671 -5.16019 0)
(7.9286 -5.06148 0)
(7.71614 -4.97141 0)
(7.55551 -4.87779 0)
(7.42794 -4.79176 0)
(7.33438 -4.7128 0)
(7.27028 -4.63854 0)
(7.21642 -4.57713 0)
(7.19273 -4.52385 0)
(7.16775 -4.47729 0)
(7.15817 -4.42744 0)
(7.16345 -4.38732 0)
(7.16947 -4.35209 0)
(9.93331 -4.12225 0)
(9.4971 -4.55474 0)
(9.18362 -4.5531 0)
(8.94364 -4.45405 0)
(8.74098 -4.32368 0)
(8.54293 -4.2352 0)
(8.3135 -4.15808 0)
(8.09581 -4.08838 0)
(7.90261 -4.02606 0)
(7.74505 -3.94672 0)
(7.62274 -3.87245 0)
(7.54336 -3.80445 0)
(7.48948 -3.74191 0)
(7.46855 -3.69731 0)
(7.46406 -3.65111 0)
(7.4736 -3.61171 0)
(7.49367 -3.57731 0)
(7.52203 -3.54467 0)
(10.023 -3.37038 0)
(9.66068 -3.78288 0)
(9.4616 -3.78648 0)
(9.22626 -3.68795 0)
(8.97317 -3.55147 0)
(8.69856 -3.43342 0)
(8.4198 -3.32725 0)
(8.18603 -3.24395 0)
(8.00057 -3.171 0)
(7.86776 -3.10068 0)
(7.76172 -3.03939 0)
(7.68441 -2.99099 0)
(7.61399 -2.95372 0)
(7.55883 -2.92412 0)
(7.51203 -2.89872 0)
(7.48997 -2.86914 0)
(7.48399 -2.82853 0)
(7.50814 -2.7811 0)
(9.8998 -2.71073 0)
(9.68824 -3.05294 0)
(9.5927 -3.00598 0)
(9.36619 -2.86612 0)
(9.07635 -2.73589 0)
(8.73502 -2.63961 0)
(8.38611 -2.5663 0)
(8.05198 -2.51 0)
(7.77503 -2.46567 0)
(7.5629 -2.41197 0)
(7.4041 -2.35279 0)
(7.28634 -2.29914 0)
(7.18232 -2.24607 0)
(7.09318 -2.20283 0)
(7.00406 -2.16738 0)
(6.93579 -2.14018 0)
(6.88201 -2.10505 0)
(6.85252 -2.0752 0)
(9.98347 -1.85596 0)
(9.93386 -2.39123 0)
(9.72754 -2.32508 0)
(9.24773 -2.15991 0)
(8.6456 -2.00229 0)
(8.04338 -1.86749 0)
(7.47341 -1.76944 0)
(6.94894 -1.70204 0)
(6.48825 -1.67557 0)
(6.0862 -1.64816 0)
(5.74383 -1.61709 0)
(5.4533 -1.58007 0)
(5.20861 -1.53878 0)
(5.00932 -1.4968 0)
(4.84522 -1.46476 0)
(4.71573 -1.43439 0)
(4.63309 -1.41624 0)
(4.56493 -1.39776 0)
(9.95345 -1.62464 0)
(9.4164 -1.93022 0)
(8.2819 -1.65699 0)
(6.97209 -1.40357 0)
(5.79714 -1.20434 0)
(4.86275 -1.05906 0)
(4.11779 -0.971089 0)
(3.51225 -0.922094 0)
(3.00161 -0.898422 0)
(2.56729 -0.879292 0)
(2.19374 -0.858952 0)
(1.88889 -0.837724 0)
(1.6419 -0.820207 0)
(1.45378 -0.806292 0)
(1.30386 -0.802003 0)
(1.19458 -0.782791 0)
(1.12008 -0.79264 0)
(1.05236 -0.7911 0)
(8.4688 -0.646328 0)
(5.41721 -0.640913 0)
(3.2275 -0.391298 0)
(1.78272 -0.281139 0)
(0.87886 -0.248247 0)
(0.293177 -0.241323 0)
(-0.12581 -0.2442 0)
(-0.441957 -0.247944 0)
(-0.699302 -0.248639 0)
(-0.919268 -0.251544 0)
(-1.11159 -0.251238 0)
(-1.26918 -0.250001 0)
(-1.39499 -0.247625 0)
(-1.48537 -0.243147 0)
(-1.55261 -0.240335 0)
(-1.59717 -0.238886 0)
(-1.6343 -0.247972 0)
(-1.67956 -0.244414 0)
(-0.08901 0.132756 0)
(-0.241904 0.103802 0)
(-0.348716 0.0565692 0)
(-0.371495 -0.0220144 0)
(-0.26891 -0.13299 0)
(-0.0285216 -0.251716 0)
(0.309979 -0.328389 1.11021e-17)
(0.701153 -0.389539 -1.10205e-17)
(1.11832 -0.410787 0)
(1.54291 -0.37744 -1.08483e-17)
(1.93087 -0.309235 0)
(2.25029 -0.234116 0)
(2.49608 -0.158969 0)
(2.6803 -0.0661381 1.04982e-17)
(2.77708 0.0287861 0)
(2.77194 0.117279 0)
(2.68499 0.209098 -1.0246e-17)
(2.52211 0.292114 0)
(2.28685 0.346131 0)
(1.99675 0.400472 0)
(1.65853 0.429944 9.9725e-18)
(1.28298 0.430025 0)
(0.914422 0.432855 9.88338e-18)
(0.538905 0.409834 0)
(0.18711 0.370534 0)
(-0.118947 0.31142 9.79485e-18)
(-0.415566 0.213437 0)
(-0.681678 0.130409 -9.71181e-18)
(-0.797586 0.0549893 0)
(-0.787642 -0.0260683 9.60751e-18)
(-0.752764 -0.0855096 0)
(-0.541505 -0.147685 0)
(-0.269972 0.0357205 0)
(-0.16764 0.264476 0)
(-0.0809771 0.124399 0)
(0.305491 0.0852418 -9.09908e-18)
(0.988363 0.200236 0)
(1.48892 -0.198021 1.81528e-17)
(1.65512 -0.99454 0)
(1.79095 -1.70543 -1.80378e-17)
(2.12535 -1.87661 0)
(2.3022 -1.22542 0)
(1.80056 -0.189336 1.78755e-17)
(0.81274 0.491944 0)
(-0.277627 0.748713 1.77141e-17)
(-1.36733 0.813774 -1.762e-17)
(-2.4128 0.800503 0)
(-3.36116 0.74283 -1.74049e-17)
(-4.18807 0.654942 -1.72926e-17)
(-4.88817 0.547074 0)
(-5.45325 0.430206 0)
(-5.86324 0.308472 0)
(-6.13946 0.188095 0)
(-6.29096 0.0801232 0)
(-6.32841 -0.023798 1.66409e-17)
(-6.2493 -0.1207 0)
(-6.08085 -0.208385 -1.64344e-17)
(-5.84159 -0.281332 0)
(-5.52407 -0.346728 0)
(-5.14284 -0.408338 1.61327e-17)
(-4.71783 -0.463908 0)
(-4.2519 -0.52001 -1.59357e-17)
(-3.75171 -0.552342 0)
(-3.2425 -0.589727 0)
(-2.72385 -0.619812 0)
(-2.18317 -0.659732 1.55479e-17)
(-1.63818 -0.678687 0)
(-1.107 -0.709472 0)
(-0.586466 -0.71901 1.52618e-17)
(-0.0781348 -0.733735 0)
(0.464034 -0.752496 1.50714e-17)
(1.01642 -0.788039 0)
(1.53211 -0.807622 0)
(2.04029 -0.837534 0)
(2.57591 -0.871923 -1.46946e-17)
(3.1031 -0.903732 0)
(3.63782 -0.938744 0)
(4.17889 -0.970355 -1.44128e-17)
(4.72639 -1.00455 -1.43179e-17)
(5.2575 -1.02903 0)
(5.78053 -1.05246 -1.41222e-17)
(6.26812 -1.06708 0)
(6.71891 -1.0861 -2.78502e-17)
(7.13949 -1.09862 0)
(7.49173 -1.10877 -2.74574e-17)
(7.76372 -1.10643 0)
(7.97162 -1.12153 2.7109e-17)
(8.12626 -1.13568 0)
(8.23171 -1.14695 0)
(8.33416 -1.15582 0)
(8.44394 -1.17063 -2.6472e-17)
(8.58399 -1.19153 0)
(8.685 -1.21499 2.60992e-17)
(8.71604 -1.2468 0)
(8.66344 -1.26374 -2.56934e-17)
(8.5515 -1.2792 -2.5495e-17)
(8.42181 -1.31891 -2.52968e-17)
(8.25644 -1.3781 0)
(8.07243 -1.40972 0)
(7.91881 -1.43679 0)
(7.81348 -1.47071 0)
(7.66563 -1.49829 0)
(7.48657 -1.50315 0)
(7.3369 -1.50234 0)
(7.18982 -1.50164 0)
(7.02999 -1.50748 2.33888e-17)
(6.79071 -1.50482 2.31188e-17)
(6.52855 -1.52618 0)
(6.37101 -1.59144 0)
(6.36677 -1.64866 0)
(6.46328 -1.70137 2.22398e-17)
(6.60409 -1.79793 0)
(6.91249 -1.96277 0)
(7.613 -2.10872 0)
(8.568 -1.96224 0)
(9.21379 -1.68694 -2.15039e-17)
(9.14669 -1.55689 0)
(8.43165 -1.59233 0)
(7.48207 -1.66084 2.17077e-17)
(6.5692 -1.91897 -2.14436e-17)
(5.88336 -2.38579 0)
(5.05223 -1.82084 -2.13692e-17)
(2.25901 -1.09645 0)
(-0.580008 -1.16962 2.10888e-17)
(-2.70988 -1.42352 0)
(-4.42047 -1.62687 0)
(-5.582 -1.73807 0)
(-6.80858 -1.88622 0)
(-6.5667 -2.49726 0)
(-5.9022 -2.2145 -4.06614e-17)
(-6.95586 -1.96363 -4.01029e-17)
(-5.73431 -2.64913 0)
(-4.40586 -2.1684 0)
(-4.61474 -2.14267 0)
(-3.95575 -2.36702 3.92719e-17)
(-2.90026 -2.406 0)
(-1.50077 -2.52058 0)
(0.145612 -2.42647 0)
(1.41785 -2.3436 3.83282e-17)
(2.513 -2.28001 -3.81358e-17)
(3.26958 -2.22424 0)
(3.92942 -2.27668 0)
(4.25766 -2.21852 -3.77111e-17)
(4.54842 -2.2486 -3.75797e-17)
(4.78037 -2.28056 0)
(5.23488 -2.35536 0)
(5.73145 -2.43247 3.72308e-17)
(6.32479 -2.54802 -3.70649e-17)
(6.9629 -2.63563 0)
(7.5814 -2.73065 0)
(8.38045 -2.85721 -3.64175e-17)
(9.02086 -2.89635 0)
(10.0781 -3.07763 0)
(11.0443 -3.0952 -3.56109e-17)
(11.9478 -3.15613 0)
(13.5268 -3.56433 -3.48504e-17)
(16.0627 -3.75237 0)
(17.8548 -3.57871 0)
(17.7389 -3.38729 0)
(17.7384 -3.71895 3.33774e-17)
(18.5315 -4.01757 0)
(19.3493 -4.06925 0)
(18.8689 -3.94094 0)
(15.6996 -3.56868 0)
(11.9295 -3.6837 0)
(9.47345 -4.39761 0)
(8.09784 -4.46743 3.33611e-17)
(3.13865 -3.05285 3.38885e-17)
(-6.10839 -2.0412 0)
(-10.3739 -2.87854 0)
(-12.7636 -3.27549 0)
(-11.8741 -3.72005 -3.03748e-17)
(-12.6274 -4.43365 0)
(-4.58106 -4.99348 6.05099e-17)
(0.848145 -3.21696 -6.18673e-17)
(1.09072 -2.34651 -6.21777e-17)
(-1.74315 -2.04628 6.19375e-17)
(-4.70023 -2.07998 -6.09448e-17)
(-7.70384 -1.84436 6.06167e-17)
(-10.8743 -1.90764 0)
(-0.0630583 0.388539 0)
(-0.206164 0.299454 0)
(-0.28723 0.0775405 -2.29711e-17)
(-0.19217 -0.2774 0)
(0.0724786 -0.695342 2.2753e-17)
(0.460122 -1.06354 2.26205e-17)
(0.910126 -1.27602 1.1234e-17)
(1.38526 -1.37755 1.11387e-17)
(1.81781 -1.40543 0)
(2.22306 -1.3274 1.09466e-17)
(2.57623 -1.13021 0)
(2.87134 -0.894004 0)
(3.09239 -0.685098 -2.13153e-17)
(3.25827 -0.462896 -1.05601e-17)
(3.36593 -0.182573 2.09406e-17)
(3.37032 0.0734723 2.07582e-17)
(3.30748 0.276193 1.02782e-17)
(3.21426 0.503981 0)
(3.04214 0.720523 0)
(2.79726 0.851141 0)
(2.54062 0.957858 9.84539e-18)
(2.23062 1.01482 0)
(1.88316 1.01616 -2.89592e-17)
(1.57556 1.03662 0)
(1.26977 0.966474 0)
(0.964464 0.829756 -9.46856e-18)
(0.659632 0.895105 0)
(0.558186 0.855003 9.42285e-18)
(0.764613 0.289462 1.86701e-17)
(0.601958 -0.0397083 -9.29867e-18)
(0.227271 0.0372865 0)
(0.161671 -0.64721 0)
(0.566646 -0.690244 0)
(1.69493 -0.0354845 1.82314e-17)
(2.27016 -0.812894 1.81592e-17)
(1.94486 -2.1023 8.88426e-18)
(1.77255 -1.87023 0)
(1.2496 -0.65389 -1.79467e-17)
(-0.0388881 0.41611 0)
(-1.63307 1.06071 1.83127e-17)
(-3.18524 1.46928 0)
(-4.50306 1.81375 0)
(-5.57853 2.08766 -1.80472e-17)
(-6.47119 2.2128 0)
(-7.2602 2.18412 -5.34412e-17)
(-7.98313 2.03989 1.76848e-17)
(-8.60692 1.79979 0)
(-9.11914 1.50337 1.74404e-17)
(-9.51588 1.17914 1.73252e-17)
(-9.81336 0.837027 0)
(-9.98939 0.498601 0)
(-10.0532 0.169851 0)
(-10.0072 -0.145164 0)
(-9.84889 -0.443861 0)
(-9.60099 -0.727186 -1.66776e-17)
(-9.27176 -0.974702 -3.31626e-17)
(-8.88923 -1.19889 1.64725e-17)
(-8.43696 -1.39119 0)
(-7.94444 -1.56416 -3.25498e-17)
(-7.40289 -1.72025 1.61798e-17)
(-6.82735 -1.8425 0)
(-6.21331 -1.96139 1.59695e-17)
(-5.58959 -2.05478 0)
(-4.96234 -2.13868 0)
(-4.32821 -2.22682 3.13642e-17)
(-3.67516 -2.29649 -1.55802e-17)
(-3.02797 -2.35932 3.09835e-17)
(-2.37824 -2.41867 -3.07963e-17)
(-1.74391 -2.47979 -1.52982e-17)
(-1.12918 -2.54061 0)
(-0.491167 -2.61663 -1.511e-17)
(0.154156 -2.68078 0)
(0.775806 -2.7257 0)
(1.3925 -2.81791 0)
(2.04364 -2.92205 -1.47506e-17)
(2.66114 -3.00291 0)
(3.32404 -3.12151 -2.91226e-17)
(3.95656 -3.20396 4.34022e-17)
(4.59921 -3.30461 1.43741e-17)
(5.21614 -3.35761 0)
(5.84659 -3.42726 1.41776e-17)
(6.42346 -3.44091 0)
(6.98635 -3.49522 2.79354e-17)
(7.49151 -3.52126 0)
(7.95125 -3.46887 2.74479e-17)
(8.35747 -3.42601 -5.44212e-17)
(8.65897 -3.44433 -2.70078e-17)
(8.89448 -3.48864 0)
(9.0738 -3.56244 0)
(9.2295 -3.67817 0)
(9.35739 -3.81497 2.65099e-17)
(9.60719 -3.91746 0)
(9.88529 -3.90522 -2.62663e-17)
(10.1587 -3.85396 0)
(10.2518 -3.79677 7.70079e-17)
(10.1962 -3.77315 2.53631e-17)
(10.0491 -3.79753 2.50825e-17)
(9.85167 -3.86633 0)
(9.60894 -3.94563 0)
(9.34593 -4.04488 0)
(9.09913 -4.13044 0)
(8.78503 -4.13274 0)
(8.52836 -4.18642 4.71456e-17)
(8.29547 -4.36655 4.66232e-17)
(7.99311 -4.4352 0)
(7.72578 -4.42664 -2.28097e-17)
(7.4432 -4.43178 -2.23802e-17)
(7.28207 -4.55617 0)
(7.2533 -4.89025 -4.35972e-17)
(7.3692 -5.18474 0)
(7.56594 -5.37583 2.15169e-17)
(7.71041 -5.59138 0)
(7.88063 -6.05885 0)
(8.25298 -6.67028 -4.24822e-17)
(8.88684 -6.9045 0)
(9.85391 -6.41567 2.0741e-17)
(10.3667 -5.63052 0)
(10.2091 -5.126 0)
(9.14713 -5.14022 2.08748e-17)
(8.24716 -5.18008 2.08344e-17)
(5.84163 -5.01207 0)
(2.29008 -3.988 -2.12076e-17)
(-0.833164 -3.44144 0)
(-2.81472 -4.01469 2.06505e-17)
(-4.41743 -4.60985 4.08753e-17)
(-5.49085 -5.18219 0)
(-6.39489 -5.65545 0)
(-6.91154 -6.36013 0)
(-6.49419 -7.38453 0)
(-7.10992 -6.56083 4.10194e-17)
(-6.94118 -6.71561 1.22038e-16)
(-6.17858 -8.82834 0)
(-4.40356 -7.08738 0)
(-4.43801 -6.85659 0)
(-3.62239 -7.64119 -3.98659e-17)
(-2.19483 -7.76104 0)
(-0.317389 -8.2642 0)
(2.10236 -8.04518 7.74721e-17)
(3.84523 -7.66965 3.81855e-17)
(5.6468 -7.46186 3.78343e-17)
(6.91332 -7.12583 0)
(8.33705 -7.04322 0)
(9.05349 -6.7712 3.64906e-17)
(9.52485 -6.82696 -3.62538e-17)
(9.6934 -6.94691 0)
(10.2811 -7.16398 0)
(11.0424 -7.27019 -3.6274e-17)
(12.0299 -7.46598 1.07975e-16)
(12.8662 -7.57661 0)
(13.2797 -7.70048 0)
(13.8591 -7.97839 3.52555e-17)
(13.6538 -8.07462 0)
(14.4646 -8.76673 6.89116e-17)
(14.8663 -8.81983 -3.40055e-17)
(14.9839 -9.14284 0)
(16.4262 -10.6084 3.30985e-17)
(19.3244 -11.1743 6.50097e-17)
(20.8566 -10.1901 0)
(19.5728 -9.44929 0)
(18.8383 -10.8252 -3.04113e-17)
(20.2884 -11.9376 0)
(22.3689 -11.8399 6.00828e-17)
(21.7687 -10.666 0)
(17.2162 -9.52282 0)
(12.8167 -10.1478 0)
(8.91808 -11.2846 0)
(3.05025 -9.98243 -3.17382e-17)
(-3.87139 -6.66985 -3.1199e-17)
(-10.8006 -7.71384 0)
(-13.4206 -10.0733 0)
(-14.6948 -11.2775 0)
(-9.79412 -11.0545 2.76149e-17)
(-11.9215 -12.6709 0)
(-5.75672 -16.5265 -5.60328e-17)
(0.112565 -11.8939 5.77334e-17)
(3.77497 -8.55575 5.78663e-17)
(2.75906 -6.44622 5.67735e-17)
(0.791638 -6.09986 5.50898e-17)
(-1.63155 -5.2353 5.3224e-17)
(-4.944 -4.94195 0)
(-0.0199733 0.5163 0)
(-0.093932 0.401179 0)
(-0.0288371 -0.131305 2.33532e-17)
(0.33009 -0.913161 2.32522e-17)
(0.823605 -1.63926 -2.30502e-17)
(1.36283 -2.16122 -2.28102e-17)
(1.85433 -2.44107 2.01948e-20)
(2.31436 -2.43692 0)
(2.67725 -2.30246 0)
(2.97352 -2.07394 0)
(3.19406 -1.72656 0)
(3.34991 -1.33852 0)
(3.47275 -0.975011 6.37173e-17)
(3.55262 -0.638971 0)
(3.57627 -0.234402 -2.09117e-17)
(3.51899 0.164298 -2.07878e-17)
(3.39508 0.467702 0)
(3.29007 0.757915 0)
(3.14182 1.09723 0)
(2.9032 1.36501 0)
(2.64891 1.50283 -2.00056e-17)
(2.37323 1.66698 0)
(2.03887 1.71588 1.95791e-17)
(1.71976 1.5689 0)
(1.47058 1.54215 0)
(1.26337 1.62376 0)
(1.07437 1.00673 3.78558e-17)
(0.740893 0.20417 0)
(0.199108 0.282051 -1.84745e-17)
(-0.0708898 0.981509 3.708e-17)
(0.622819 1.15826 0)
(1.11653 -0.855013 0)
(0.771531 -2.69293 0)
(0.555603 -1.88761 -1.81838e-17)
(-0.473103 0.0024961 -1.8665e-17)
(-2.16374 1.22128 0)
(-3.61398 1.82277 0)
(-4.83296 2.27948 3.73125e-17)
(-5.82978 2.59517 3.71238e-17)
(-6.7546 2.79778 -3.68668e-17)
(-7.69664 2.92489 0)
(-8.57543 3.04625 0)
(-9.28838 3.13752 0)
(-9.83142 3.09972 0)
(-10.2503 2.90817 3.54807e-17)
(-10.5604 2.60924 3.52644e-17)
(-10.7816 2.21865 -3.50397e-17)
(-10.9189 1.77181 0)
(-10.9769 1.28979 0)
(-10.9428 0.795409 0)
(-10.8372 0.291771 0)
(-10.6527 -0.200902 3.40083e-17)
(-10.3888 -0.662825 0)
(-10.0717 -1.10467 0)
(-9.69041 -1.51205 3.33899e-17)
(-9.25366 -1.88054 3.31648e-17)
(-8.77625 -2.20595 0)
(-8.25003 -2.50361 -6.55487e-17)
(-7.70188 -2.76251 3.25484e-17)
(-7.11053 -2.98202 -3.23443e-17)
(-6.49972 -3.16373 0)
(-5.87769 -3.33398 0)
(-5.22512 -3.47353 0)
(-4.59606 -3.60219 0)
(-3.97648 -3.73966 -3.13374e-17)
(-3.34578 -3.84893 -6.23097e-17)
(-2.71946 -3.94289 -3.09391e-17)
(-2.06721 -4.03542 3.07452e-17)
(-1.42317 -4.13635 0)
(-0.821786 -4.24337 -6.0777e-17)
(-0.209302 -4.40021 -6.03981e-17)
(0.423775 -4.49427 -6.00223e-17)
(1.03623 -4.55526 5.96537e-17)
(1.6397 -4.70009 0)
(2.2898 -4.87851 8.84093e-17)
(2.88261 -4.9988 0)
(3.58347 -5.2191 -2.91338e-17)
(4.19998 -5.31054 -2.8917e-17)
(4.85607 -5.50729 0)
(5.48213 -5.56714 0)
(6.11983 -5.73826 -5.69124e-17)
(6.68909 -5.77313 0)
(7.25059 -5.8602 -5.62409e-17)
(7.75173 -5.94692 0)
(8.20575 -5.90287 5.5468e-17)
(8.63911 -5.85123 1.09946e-16)
(9.03517 -5.84774 0)
(9.33763 -5.83783 0)
(9.60433 -5.86199 0)
(9.79671 -5.98266 5.33829e-17)
(9.87501 -6.21153 0)
(10.0086 -6.53366 5.30647e-17)
(10.1098 -6.71943 0)
(10.4509 -6.75039 0)
(10.7754 -6.52063 -1.04269e-16)
(10.9578 -6.35968 0)
(10.8598 -6.35872 -5.08141e-17)
(10.7016 -6.459 0)
(10.6708 -6.51685 -4.96332e-17)
(10.5088 -6.58302 0)
(10.268 -6.6701 0)
(10.019 -6.81415 0)
(9.95084 -6.9942 -1.42259e-16)
(9.90608 -7.07954 -4.70702e-17)
(9.65623 -7.069 0)
(9.52055 -7.19882 0)
(9.36297 -7.39577 0)
(9.23749 -7.64243 0)
(9.33586 -8.01899 4.44095e-17)
(9.66608 -8.40902 -8.82202e-17)
(9.9642 -8.67661 -4.3802e-17)
(10.1289 -8.85234 8.68609e-17)
(10.145 -9.36548 8.65256e-17)
(10.0712 -10.2514 4.33604e-17)
(9.78284 -10.8839 0)
(9.86294 -10.4703 8.4471e-17)
(9.91791 -9.49693 0)
(9.67216 -8.45507 -8.39519e-17)
(8.40708 -8.14483 -4.17428e-17)
(6.87009 -7.63269 0)
(4.20899 -6.4792 8.45702e-17)
(0.563282 -5.4137 4.23133e-17)
(-1.65039 -6.04645 0)
(-3.26729 -7.29556 4.13054e-17)
(-4.79262 -8.2586 -1.24426e-16)
(-5.47393 -9.10096 0)
(-6.10119 -9.73394 0)
(-6.49198 -10.5166 0)
(-6.41379 -11.2772 0)
(-7.06339 -10.8415 -8.29558e-17)
(-5.81377 -11.3123 -8.3133e-17)
(-6.79571 -13.7883 0)
(-4.95153 -11.861 0)
(-5.08622 -11.3151 0)
(-4.30622 -12.8147 0)
(-3.01539 -13.0429 0)
(-1.32135 -14.1746 0)
(1.71897 -13.7344 -8.13158e-17)
(3.60573 -13.0809 -2.14438e-19)
(5.36722 -12.7131 0)
(6.68045 -12.2924 0)
(8.62255 -12.065 -7.72558e-17)
(9.93841 -11.327 0)
(11 -11.1751 7.45376e-17)
(11.5032 -11.2769 7.39815e-17)
(12.0287 -11.8294 0)
(12.5308 -12.2533 0)
(13.569 -12.6213 -7.41619e-17)
(15.0265 -12.5055 -1.4589e-16)
(15.714 -12.5451 0)
(16.6013 -12.8246 0)
(15.9294 -12.7765 0)
(16.613 -14.069 -6.92287e-17)
(17.4027 -13.8824 6.80102e-17)
(16.6255 -14.3865 0)
(17.4832 -17.3807 1.3528e-16)
(20.8156 -18.2869 6.60799e-17)
(22.2978 -16.0054 -1.24629e-16)
(20.561 -14.6744 0)
(19.2152 -17.7163 0)
(20.7502 -20.1668 -1.23996e-16)
(23.3229 -19.7176 -6.07807e-17)
(22.8184 -17.0542 0)
(18.2453 -15.0248 0)
(13.1746 -15.8078 0)
(8.28954 -16.4938 0)
(1.64008 -15.1164 -1.21814e-16)
(-6.67796 -12.4286 0)
(-10.3666 -13.5885 0)
(-13.241 -16.8956 0)
(-14.3595 -19.6913 0)
(-11.7776 -19.446 0)
(-7.95966 -19.5936 0)
(-4.40338 -24.3298 -1.1211e-16)
(-2.85971 -19.9965 0)
(1.73207 -15.5031 0)
(2.16849 -11.6905 -2.22308e-16)
(2.04619 -10.8119 1.07032e-16)
(1.52052 -9.0013 -1.02865e-16)
(-0.620473 -8.16 9.92545e-17)
(-0.0126382 0.448576 0)
(0.0159788 0.14197 -4.74414e-17)
(0.387671 -0.973051 0)
(0.987072 -2.19305 -2.32284e-17)
(1.59459 -3.0595 0)
(2.10371 -3.48573 0)
(2.48279 -3.55095 2.22997e-17)
(2.75861 -3.34002 0)
(2.88782 -3.0128 0)
(2.97383 -2.57432 0)
(3.02677 -2.05702 0)
(3.00713 -1.58006 0)
(3.04021 -1.15693 -8.34431e-17)
(3.05862 -0.734552 -4.13884e-17)
(2.99775 -0.233639 4.11171e-17)
(2.93099 0.285801 0)
(2.90844 0.61723 0)
(2.89435 0.874717 0)
(2.81038 1.34303 0)
(2.57509 1.72938 0)
(2.36079 1.92252 -3.98856e-17)
(2.12106 2.14094 -3.959e-17)
(1.83578 2.22136 3.93289e-17)
(1.45473 2.17815 -3.92491e-17)
(1.03139 1.94275 0)
(0.761954 1.50118 0)
(0.307447 1.74828 -3.72739e-17)
(-0.464192 2.39499 0)
(-0.735959 1.5377 0)
(-0.409175 -0.897659 -3.56649e-17)
(0.235489 -1.9078 -3.61225e-17)
(-0.37648 -0.418293 -3.75296e-17)
(-2.20002 0.981421 0)
(-3.66143 1.81281 0)
(-4.94193 2.49431 3.7954e-17)
(-5.94312 2.88293 0)
(-6.93594 3.20404 0)
(-7.88086 3.5746 -3.71638e-17)
(-8.73158 3.8219 3.69762e-17)
(-9.4018 3.90337 -3.67069e-17)
(-9.97662 3.90226 0)
(-10.4564 3.83771 0)
(-10.8316 3.69688 -7.19389e-17)
(-11.104 3.45376 0)
(-11.2795 3.10161 -7.11823e-17)
(-11.3827 2.66172 -1.062e-16)
(-11.4061 2.15537 1.05673e-16)
(-11.3696 1.5765 -7.01002e-17)
(-11.2712 0.969084 0)
(-11.1074 0.343756 0)
(-10.8708 -0.276696 -6.8852e-17)
(-10.5806 -0.88688 -3.41757e-17)
(-10.2335 -1.46496 0)
(-9.82967 -2.01101 0)
(-9.38036 -2.51714 -3.35181e-17)
(-8.89504 -2.97939 -6.66667e-17)
(-8.37097 -3.38042 0)
(-7.80919 -3.742 6.57715e-17)
(-7.19975 -4.0572 -6.54194e-17)
(-6.58826 -4.32349 6.50302e-17)
(-5.98774 -4.57259 0)
(-5.34939 -4.77549 0)
(-4.67903 -4.9483 0)
(-4.03396 -5.10386 0)
(-3.40946 -5.25889 0)
(-2.77611 -5.42884 6.26667e-17)
(-2.17495 -5.55359 0)
(-1.54915 -5.68949 0)
(-0.908129 -5.80154 0)
(-0.346744 -5.92008 1.22135e-16)
(0.238552 -6.13551 6.06503e-17)
(0.809147 -6.29632 6.02314e-17)
(1.38392 -6.40382 -1.19701e-16)
(1.9576 -6.6076 5.95001e-17)
(2.58643 -6.8491 -5.90856e-17)
(3.11073 -7.03312 0)
(3.86247 -7.35016 5.83306e-17)
(4.44067 -7.42273 0)
(5.1454 -7.72449 0)
(5.76956 -7.77754 0)
(6.42075 -7.95812 1.1369e-16)
(6.97977 -8.05306 -5.65142e-17)
(7.50641 -8.10896 -5.61611e-17)
(8.01071 -8.17781 -1.11513e-16)
(8.46542 -8.18155 -1.6609e-16)
(8.87373 -8.1959 -5.49978e-17)
(9.27592 -8.23845 0)
(9.57617 -8.25451 -1.08491e-16)
(9.87807 -8.36196 0)
(10.1792 -8.39021 -1.6084e-16)
(10.3322 -8.47355 0)
(10.3724 -8.76803 -1.5833e-16)
(10.2239 -9.10191 0)
(10.2058 -9.41808 0)
(10.4162 -9.32813 -5.19085e-17)
(10.7833 -8.95998 0)
(10.8199 -8.77696 5.06132e-17)
(10.7553 -9.09677 1.01862e-16)
(10.8454 -9.24655 5.04953e-17)
(10.7742 -9.13971 9.9175e-17)
(10.6609 -9.24972 -9.84064e-17)
(10.5631 -9.46476 -9.75935e-17)
(10.6404 -9.76447 1.93398e-16)
(10.6441 -9.91403 0)
(10.5255 -9.94734 0)
(10.4494 -10.15 9.37079e-17)
(10.2473 -10.4045 -9.40218e-17)
(10.2274 -10.8568 0)
(10.3994 -11.552 0)
(10.9169 -12.1657 9.40976e-17)
(11.4116 -12.3589 0)
(11.8323 -12.2713 -7.30947e-20)
(12.1253 -12.4821 -7.10587e-20)
(11.9176 -13.1632 8.79842e-17)
(11.2209 -13.9063 0)
(10.4033 -13.7549 -8.49985e-17)
(9.64439 -12.8766 0)
(9.07439 -11.5955 8.38005e-17)
(7.68348 -10.8639 0)
(5.63951 -9.82375 0)
(3.15153 -8.37855 -8.48267e-17)
(0.07129 -7.8557 -8.48346e-17)
(-0.818507 -8.95191 0)
(-2.63763 -10.0227 -8.20333e-17)
(-4.08889 -11.5268 1.66533e-16)
(-5.06026 -12.7883 0)
(-5.62536 -13.5966 0)
(-6.63564 -14.5922 0)
(-6.96743 -15.6953 0)
(-6.86837 -15.6835 8.31797e-17)
(-5.50657 -15.1402 -1.63571e-16)
(-6.19044 -18.0009 0)
(-4.9247 -16.7101 0)
(-4.55871 -15.4428 0)
(-3.72089 -17.6197 0)
(-2.50594 -17.9236 0)
(-1.86866 -19.9046 0)
(1.41875 -19.3811 0)
(3.7648 -18.1986 8.02736e-17)
(5.58547 -17.5829 0)
(6.16304 -17.281 0)
(7.75737 -17.3756 7.96332e-17)
(9.44677 -16.1731 0)
(10.9921 -15.996 0)