/*--------------------------------*- C++ -*----------------------------------*\
| =========                 |                                                 |
| \\      /  F ield         | OpenFOAM: The Open Source CFD Toolbox           |
|  \\    /   O peration     | Version:  dev                                   |
|   \\  /    A nd           | Web:      http://www.openfoam.org               |
|    \\/     M anipulation  |                                                 |
\*---------------------------------------------------------------------------*/
FoamFile
{
    version     2.0;
    format      ascii;
    class       volVectorField;
    object      UMean;
    location    "9.162";
}
// * * * * * * * * * * * * * * * * * * * * * * * * * * * * * * * * * * * * * //

dimensions      [0 1 -1 0 0 0 0];

internalField   nonuniform List<vector> 
12225
(
(7.00354 0.430262 0)
(4.43868 0.192544 0)
(2.55676 0.0311565 0)
(2.51076 -0.0166519 0)
(1.38445 0.0193601 0)
(2.26722 -0.0342718 0)
(0.989459 0.0489777 0)
(2.18248 -0.059167 0)
(0.797328 0.07165 0)
(2.29169 -0.0978472 0)
(0.688432 0.0993712 0)
(2.74355 -0.13864 0)
(0.947612 0.102609 0)
(3.39715 -0.172137 0)
(3.53019 -0.168445 0)
(4.6959 0.0499893 0)
(14.8424 -2.43366 0)
(7.1182 5.13302 0)
(9.54628 0.98157 0)
(9.54319 0.860842 0)
(6.68683 0.466275 0)
(7.59021 0.214542 0)
(4.09067 0.140321 0)
(6.8429 0.0108348 0)
(2.6651 0.132649 0)
(6.68899 -0.0902971 0)
(1.82237 0.14185 0)
(7.03887 -0.165028 0)
(1.26006 0.1239 0)
(8.12148 -0.414366 0)
(1.38431 0.252376 0)
(9.95506 -1.4422 0)
(3.43377 0.272055 0)
(12.3888 -4.06784 0)
(10.4257 -1.92711 0)
(7.7746 0.484065 0)
(9.11857 0.76357 0)
(12.1665 0.951395 0)
(8.32962 0.623996 0)
(11.8318 0.443379 0)
(6.22622 0.310338 0)
(11.4127 0.206512 0)
(4.58287 0.221519 0)
(11.3147 -0.0194191 0)
(3.87401 0.192948 0)
(11.3762 -0.277722 0)
(4.35006 0.187247 0)
(11.2526 -0.72306 0)
(5.72817 0.175944 0)
(11.0898 -1.49159 0)
(7.21456 0.0526959 0)
(12.1162 -3.86582 0)
(6.93321 0.350994 0)
(9.35246 -2.39195 0)
(7.21924 0.524998 0)
(13.9927 0.960961 0)
(7.93001 0.60951 0)
(14.295 0.553808 0)
(7.47458 0.42095 0)
(14.1162 0.271105 0)
(7.17593 0.396712 0)
(13.7383 -0.144974 0)
(7.25686 0.459619 0)
(13.2696 -0.698572 0)
(7.65938 0.576812 0)
(12.8745 -1.42266 0)
(8.26672 0.699509 0)
(12.6509 -2.31333 0)
(9.02335 0.0424202 0)
(11.887 -3.63748 0)
(8.68638 -1.4314 0)
(8.36354 0.681234 0)
(6.42454 0.570115 0)
(14.0104 0.565882 0)
(8.47391 0.674567 0)
(13.9575 0.284522 0)
(9.16974 0.636769 0)
(13.6429 -0.002501 0)
(9.51753 0.657899 0)
(13.2133 -0.388547 0)
(9.59248 0.734396 0)
(12.8123 -0.871101 0)
(9.446 0.876903 0)
(12.5818 -1.52117 0)
(9.15005 1.08999 0)
(12.5696 -2.48977 0)
(8.82742 1.13259 0)
(11.6158 -5.02797 0)
(8.54214 1.26737 0)
(8.72148 0.126152 0)
(7.95721 0.616974 0)
(11.8022 0.152362 0)
(9.50555 0.654847 0)
(11.7386 0.0502089 0)
(10.0886 0.694 0)
(11.5996 -0.165643 0)
(10.3208 0.725917 0)
(11.4754 -0.457479 0)
(10.3008 0.783117 0)
(11.3888 -0.853527 0)
(10.0331 0.832191 0)
(11.3546 -1.40006 0)
(9.49278 0.801546 0)
(11.4174 -2.13844 0)
(8.80129 0.726459 0)
(10.9979 -3.92006 0)
(7.73334 1.33669 0)
(9.48883 -0.218738 0)
(9.34468 0.81277 0)
(10.4384 -0.265921 0)
(10.1411 0.930644 0)
(10.5534 -0.304533 0)
(10.3991 1.02008 0)
(10.5814 -0.502857 0)
(10.5205 1.0756 0)
(10.625 -0.781089 0)
(10.5639 1.15359 0)
(10.6714 -1.15757 0)
(10.5159 1.23536 0)
(10.6997 -1.63541 0)
(10.3675 1.2614 0)
(10.6879 -2.32685 0)
(10.0537 1.27138 0)
(10.3759 -3.95318 0)
(8.29948 2.01892 0)
(9.69703 -0.952577 0)
(9.84932 0.701244 0)
(10.1558 -0.32593 0)
(10.4067 0.855246 0)
(10.3897 -0.349903 0)
(10.5804 0.907026 0)
(10.4705 -0.49398 0)
(10.7017 0.893147 0)
(10.5519 -0.686252 0)
(10.8054 0.872889 0)
(10.6438 -0.935146 0)
(10.8811 0.824029 0)
(10.7353 -1.23255 0)
(10.9081 0.671576 0)
(10.7538 -1.67229 0)
(10.723 0.519893 0)
(10.4925 -2.47319 0)
(8.89425 0.980486 0)
(9.96396 -0.483823 0)
(10.0858 0.80233 0)
(10.0196 -0.583332 0)
(10.5355 1.02164 0)
(10.3106 -0.604464 0)
(10.6751 1.07515 0)
(10.4399 -0.724907 0)
(10.7775 1.04836 0)
(10.5708 -0.889928 0)
(10.8572 1.0038 0)
(10.7113 -1.11759 0)
(10.8988 0.921243 0)
(10.8316 -1.39469 0)
(10.8739 0.734931 0)
(10.822 -1.7605 0)
(10.6021 0.505889 0)
(10.5205 -2.0681 0)
(9.35042 0.586333 0)
(10.0234 -0.391463 0)
(10.1391 0.6487 0)
(10.0423 -0.511886 0)
(10.5102 0.878206 0)
(10.3334 -0.456469 0)
(10.6213 0.869363 0)
(10.4819 -0.49361 0)
(10.6978 0.778408 0)
(10.629 -0.572079 0)
(10.7341 0.658048 0)
(10.7635 -0.695254 0)
(10.7179 0.495709 0)
(10.8401 -0.844846 0)
(10.6182 0.264266 0)
(10.7654 -1.03189 0)
(10.2824 0.0704205 0)
(10.4794 -1.05237 0)
(9.62367 0.124085 0)
(10.2069 -0.0326997 0)
(10.141 0.70006 0)
(10.0706 -0.691758 0)
(10.4524 0.902655 0)
(10.2985 -0.618782 0)
(10.5374 0.847748 0)
(10.4301 -0.645389 0)
(10.6032 0.735392 0)
(10.5605 -0.707225 0)
(10.6272 0.5869 0)
(10.6603 -0.791055 0)
(10.6091 0.383306 0)
(10.6811 -0.869068 0)
(10.5268 0.117319 0)
(10.5709 -0.921815 0)
(10.2915 -0.113475 0)
(10.3609 -0.764715 0)
(10.02 -0.153871 0)
(10.2455 -0.125124 0)
(10.0968 0.468042 0)
(10.1509 -0.494955 0)
(10.3536 0.595855 0)
(10.2934 -0.37447 0)
(10.4203 0.527621 0)
(10.4093 -0.354641 0)
(10.4848 0.418972 0)
(10.5238 -0.374023 0)
(10.5131 0.275843 0)
(10.5992 -0.414472 0)
(10.5156 0.0934805 0)
(10.5969 -0.461438 0)
(10.4766 -0.103085 0)
(10.4995 -0.499844 0)
(10.3571 -0.231857 0)
(10.3646 -0.405313 0)
(10.2659 -0.21958 0)
(10.3738 -0.110024 0)
(10.0501 0.411031 0)
(10.1754 -0.487024 0)
(10.2548 0.43728 0)
(10.2378 -0.367272 0)
(10.3087 0.367444 0)
(10.3306 -0.34534 0)
(10.3792 0.250955 0)
(10.4245 -0.355048 0)
(10.4225 0.0996199 0)
(10.4821 -0.374639 0)
(10.4461 -0.0795023 0)
(10.4816 -0.403163 0)
(10.4328 -0.246412 0)
(10.426 -0.430968 0)
(10.3771 -0.338897 0)
(10.3685 -0.392331 0)
(10.357 -0.320227 0)
(10.4222 -0.276218 0)
(10.0153 0.199665 0)
(10.1906 -0.285572 0)
(10.1931 0.167405 0)
(10.2051 -0.17909 0)
(10.2292 0.131758 0)
(10.2791 -0.17115 0)
(10.3061 0.0473569 0)
(10.3625 -0.197565 0)
(10.3659 -0.0585462 0)
(10.414 -0.235517 0)
(10.4053 -0.175809 0)
(10.4265 -0.286196 0)
(10.4122 -0.274747 0)
(10.4111 -0.331385 0)
(10.3993 -0.323845 0)
(10.4064 -0.33689 0)
(10.4107 -0.315715 0)
(10.4696 -0.304512 0)
(9.99664 0.0971634 0)
(10.1444 -0.18565 0)
(10.1463 0.0217769 0)
(10.1501 -0.133455 0)
(10.1622 -0.00848374 0)
(10.2089 -0.145938 0)
(10.2409 -0.0767871 0)
(10.2918 -0.186508 0)
(10.3109 -0.159192 0)
(10.3485 -0.237727 0)
(10.3574 -0.244554 0)
(10.379 -0.298048 0)
(10.3804 -0.31601 0)
(10.3937 -0.349781 0)
(10.3957 -0.360712 0)
(10.4183 -0.379863 0)
(10.4237 -0.380709 0)
(10.4787 -0.386883 0)
(9.99365 0.0155326 0)
(10.1059 -0.0856627 0)
(10.1088 -0.0442029 0)
(10.1138 -0.0931037 0)
(10.1187 -0.0747458 0)
(10.1674 -0.118775 0)
(10.1979 -0.120445 0)
(10.2517 -0.163656 0)
(10.2739 -0.180385 0)
(10.3152 -0.21896 0)
(10.3277 -0.243718 0)
(10.3595 -0.27759 0)
(10.3657 -0.30109 0)
(10.3937 -0.328739 0)
(10.3993 -0.346711 0)
(10.4326 -0.3705 0)
(10.4353 -0.383472 0)
(10.4881 -0.396676 0)
(9.99174 0.0047747 0)
(10.0635 -0.0250943 0)
(10.0567 -0.0348388 0)
(10.0678 -0.0663793 0)
(10.0778 -0.0756195 0)
(10.1279 -0.0996592 0)
(10.1572 -0.115824 0)
(10.2109 -0.144572 0)
(10.2336 -0.168829 0)
(10.278 -0.199414 0)
(10.2919 -0.22639 0)
(10.3298 -0.256848 0)
(10.3382 -0.283112 0)
(10.3729 -0.311829 0)
(10.3786 -0.336561 0)
(10.415 -0.365275 0)
(10.4144 -0.387773 0)
(10.4632 -0.407174 0)
(9.99156 0.0141272 0)
(10.0466 0.0161121 0)
(10.0398 -0.0106015 0)
(10.0575 -0.0376932 0)
(10.0748 -0.0565322 0)
(10.1254 -0.0778401 0)
(10.1553 -0.0988334 0)
(10.207 -0.123774 0)
(10.231 -0.148925 0)
(10.2752 -0.176544 0)
(10.291 -0.203328 0)
(10.3291 -0.232039 0)
(10.3393 -0.259227 0)
(10.3735 -0.288153 0)
(10.38 -0.31546 0)
(10.4139 -0.345508 0)
(10.4131 -0.371347 0)
(10.4565 -0.393148 0)
(9.9917 0.0328537 0)
(10.0502 0.0495206 0)
(10.0566 0.0098399 0)
(10.0799 -0.0181526 0)
(10.1006 -0.0402933 0)
(10.1506 -0.0615154 0)
(10.1818 -0.0836244 0)
(10.2315 -0.106404 0)
(10.2562 -0.130522 0)
(10.2983 -0.155466 0)
(10.3149 -0.181012 0)
(10.3506 -0.207244 0)
(10.3613 -0.233461 0)
(10.3925 -0.260297 0)
(10.399 -0.286898 0)
(10.4286 -0.315136 0)
(10.428 -0.34085 0)
(10.4652 -0.36261 0)
(9.98987 0.0406096 0)
(10.0546 0.052489 0)
(10.0827 -0.00646652 0)
(10.1166 -0.0407762 0)
(10.1418 -0.0641994 0)
(10.1903 -0.0823296 0)
(10.2223 -0.102135 0)
(10.2689 -0.121029 0)
(10.2934 -0.142745 0)
(10.3319 -0.163971 0)
(10.3482 -0.187364 0)
(10.3801 -0.210034 0)
(10.3903 -0.234319 0)
(10.4173 -0.257821 0)
(10.4228 -0.282668 0)
(10.4472 -0.307686 0)
(10.4461 -0.3323 0)
(10.4767 -0.352677 0)
(9.99052 0.0314976 0)
(10.0684 0.0218425 0)
(10.1261 -0.0558753 0)
(10.1769 -0.0968677 0)
(10.2125 -0.11987 0)
(10.2609 -0.132811 0)
(10.2937 -0.147819 0)
(10.336 -0.16168 0)
(10.36 -0.179831 0)
(10.394 -0.196899 0)
(10.4103 -0.21732 0)
(10.4376 -0.236185 0)
(10.4478 -0.25791 0)
(10.4701 -0.277958 0)
(10.4753 -0.300619 0)
(10.4945 -0.322226 0)
(10.4939 -0.345062 0)
(10.5186 -0.363328 0)
(9.99117 0.00977349 0)
(10.0919 -0.029885 0)
(10.1869 -0.120971 0)
(10.2594 -0.162882 0)
(10.3092 -0.181209 0)
(10.3589 -0.18722 0)
(10.3928 -0.196069 0)
(10.4304 -0.204379 0)
(10.4541 -0.218096 0)
(10.4836 -0.230717 0)
(10.5001 -0.247555 0)
(10.5232 -0.262566 0)
(10.5337 -0.281252 0)
(10.5517 -0.297921 0)
(10.5572 -0.317956 0)
(10.5719 -0.336277 0)
(10.5723 -0.356839 0)
(10.592 -0.372961 0)
(9.99283 -0.0234681 0)
(10.1275 -0.103765 0)
(10.267 -0.205045 0)
(10.3664 -0.241684 0)
(10.4319 -0.250871 0)
(10.4835 -0.248424 0)
(10.5183 -0.250906 0)
(10.5517 -0.253683 0)
(10.5753 -0.262941 0)
(10.6011 -0.271282 0)
(10.6181 -0.284593 0)
(10.6378 -0.296194 0)
(10.6486 -0.311986 0)
(10.6631 -0.325725 0)
(10.6692 -0.34324 0)
(10.6801 -0.358674 0)
(10.6814 -0.376972 0)
(10.6968 -0.391103 0)
(9.99042 -0.071651 0)
(10.1743 -0.201284 0)
(10.3677 -0.305549 0)
(10.4999 -0.327925 0)
(10.5804 -0.322593 0)
(10.6342 -0.310193 0)
(10.6688 -0.30555 0)
(10.6996 -0.302526 0)
(10.7225 -0.306646 0)
(10.7459 -0.310508 0)
(10.7623 -0.31981 0)
(10.7793 -0.327939 0)
(10.7894 -0.340453 0)
(10.8005 -0.351216 0)
(10.8055 -0.365792 0)
(10.8124 -0.378337 0)
(10.8122 -0.393881 0)
(10.8222 -0.405821 0)
(9.99202 -0.136425 0)
(10.2447 -0.323114 0)
(10.5026 -0.419085 0)
(10.6711 -0.417678 0)
(10.7626 -0.39418 0)
(10.8174 -0.371083 0)
(10.8493 -0.358895 0)
(10.8771 -0.350524 0)
(10.8959 -0.350017 0)
(10.9148 -0.350396 0)
(10.9253 -0.356261 0)
(10.9355 -0.36138 0)
(10.9375 -0.370663 0)
(10.9394 -0.378515 0)
(10.934 -0.389696 0)
(10.9292 -0.399269 0)
(10.9165 -0.411178 0)
(10.9117 -0.420318 0)
(9.98973 -0.219971 0)
(10.3368 -0.468213 0)
(10.6735 -0.539795 0)
(10.8756 -0.508234 0)
(10.9696 -0.464819 0)
(11.0133 -0.428004 0)
(11.0284 -0.404733 0)
(11.0351 -0.388292 0)
(11.029 -0.381308 0)
(11.0194 -0.376845 0)
(10.998 -0.37804 0)
(10.9736 -0.378937 0)
(10.9378 -0.383648 0)
(10.9001 -0.387118 0)
(10.8524 -0.393475 0)
(10.8044 -0.398792 0)
(10.7465 -0.405105 0)
(10.6949 -0.409874 0)
(9.98331 -0.332115 0)
(10.4675 -0.642377 0)
(10.8827 -0.667138 0)
(11.0723 -0.602624 0)
(11.1029 -0.53715 0)
(11.0583 -0.483066 0)
(10.9743 -0.444914 0)
(10.8732 -0.416145 0)
(10.7579 -0.397918 0)
(10.6352 -0.383173 0)
(10.5038 -0.374779 0)
(10.3669 -0.366217 0)
(10.2246 -0.362328 0)
(10.078 -0.356874 0)
(9.92929 -0.355724 0)
(9.77781 -0.353133 0)
(9.62674 -0.352832 0)
(9.47693 -0.350996 0)
(10.0025 -0.45368 0)
(10.6189 -0.818985 0)
(10.9015 -0.752055 0)
(10.7932 -0.623697 0)
(10.4938 -0.512484 0)
(10.1377 -0.42914 0)
(9.77032 -0.37351 0)
(9.41789 -0.334664 0)
(9.0772 -0.307232 0)
(8.75596 -0.284547 0)
(8.44709 -0.26759 0)
(8.15411 -0.251269 0)
(7.87348 -0.239981 0)
(7.60401 -0.227283 0)
(7.34932 -0.22108 0)
(7.0999 -0.211774 0)
(6.87158 -0.210804 0)
(6.64225 -0.204132 0)
(10.0974 -0.750791 0)
(10.0458 -1.0132 0)
(9.42486 -0.801054 0)
(8.51447 -0.57214 0)
(7.65514 -0.378702 0)
(6.92909 -0.244871 0)
(6.32762 -0.167508 0)
(5.832 -0.126238 0)
(5.40967 -0.104689 0)
(5.04917 -0.0923079 0)
(4.72917 -0.084949 0)
(4.44852 -0.0793378 0)
(4.19221 -0.0757976 0)
(3.96338 -0.0718827 0)
(3.75174 -0.0721293 0)
(3.55662 -0.0690775 0)
(3.38446 -0.0802607 0)
(3.21959 -0.0828567 0)
(8.5167 -0.436076 0)
(6.11016 -0.38089 0)
(4.29829 -0.138047 0)
(3.12394 -0.0213866 0)
(2.48122 0.0191327 0)
(2.12063 0.0224736 0)
(1.89644 0.0137177 0)
(1.73516 0.00461703 0)
(1.59917 -0.00156733 0)
(1.47847 -0.00479055 0)
(1.36641 -0.00640403 0)
(1.26429 -0.00671749 0)
(1.16865 -0.00670668 0)
(1.08195 -0.00638866 0)
(0.999945 -0.00665672 0)
(0.919732 -0.00703183 0)
(0.852244 -0.0186068 0)
(0.731752 -0.00613029 0)
(-0.0520076 0.137882 0)
(-0.15703 0.0715012 0)
(-0.207026 0.0164994 0)
(-0.195206 -0.0442999 0)
(-0.117988 -0.0990014 0)
(0.0121421 -0.145025 0)
(0.186133 -0.175569 1.11358e-17)
(0.387814 -0.193539 -1.10608e-17)
(0.605986 -0.197942 0)
(0.828319 -0.192694 -1.09176e-17)
(1.04544 -0.178368 0)
(1.24837 -0.157621 0)
(1.43055 -0.131005 0)
(1.58673 -0.101664 1.0643e-17)
(1.71426 -0.0704312 0)
(1.81037 -0.0383815 0)
(1.87417 -0.00625891 -1.04459e-17)
(1.90637 0.0239789 0)
(1.90864 0.0504342 0)
(1.88305 0.0721651 0)
(1.8333 0.0891399 1.01964e-17)
(1.76195 0.100694 0)
(1.67289 0.108552 1.00745e-17)
(1.56782 0.111444 0)
(1.45138 0.109553 0)
(1.32629 0.107919 9.89579e-18)
(1.19281 0.11123 0)
(1.05018 0.116355 -9.77946e-18)
(0.901593 0.121588 0)
(0.747655 0.126625 9.66457e-18)
(0.589919 0.130625 0)
(0.430652 0.133083 0)
(0.272114 0.134238 0)
(0.114786 0.133999 0)
(-0.0410247 0.131096 0)
(-0.193254 0.126434 -9.32978e-18)
(-0.340274 0.120358 0)
(-0.481665 0.11391 1.84408e-17)
(-0.615967 0.107501 0)
(-0.742756 0.100377 -1.82218e-17)
(-0.860563 0.0934457 0)
(-0.969549 0.0867486 0)
(-1.07013 0.0790245 1.78885e-17)
(-1.16181 0.0706619 0)
(-1.24522 0.0629303 1.76653e-17)
(-1.32044 0.0556595 -1.75532e-17)
(-1.38696 0.0485298 0)
(-1.4455 0.0422265 -1.73283e-17)
(-1.49713 0.0367157 -1.72152e-17)
(-1.54092 0.0329632 0)
(-1.57706 0.0313674 0)
(-1.60745 0.0313751 0)
(-1.63422 0.0315273 0)
(-1.65834 0.0315471 0)
(-1.68123 0.0324217 1.65282e-17)
(-1.70478 0.0339665 0)
(-1.73036 0.0361935 -1.6299e-17)
(-1.75675 0.0382661 0)
(-1.7827 0.0388884 0)
(-1.80822 0.0394594 1.59525e-17)
(-1.83394 0.0411783 0)
(-1.86157 0.042354 -1.57212e-17)
(-1.89114 0.043985 0)
(-1.92236 0.0454258 0)
(-1.95474 0.0461786 0)
(-1.98764 0.0472996 1.52556e-17)
(-2.02105 0.0492561 0)
(-2.05505 0.0515212 0)
(-2.08974 0.0539116 1.49059e-17)
(-2.1254 0.055243 0)
(-2.15926 0.0554864 1.46713e-17)
(-2.19022 0.056168 0)
(-2.21839 0.056747 0)
(-2.24262 0.0567584 0)
(-2.26163 0.0561792 -1.42053e-17)
(-2.27482 0.054977 0)
(-2.28276 0.0542157 0)
(-2.28729 0.0541127 -1.38615e-17)
(-2.28884 0.0531078 -1.37481e-17)
(-2.2857 0.0514256 0)
(-2.27608 0.0491304 -1.35228e-17)
(-2.25988 0.0461816 0)
(-2.23669 0.0430018 -2.66027e-17)
(-2.20653 0.039545 0)
(-2.16991 0.0358478 -2.61673e-17)
(-2.12669 0.0327667 0)
(-2.07792 0.0303387 2.57385e-17)
(-2.02445 0.0283578 0)
(-1.9664 0.0269213 0)
(-1.90442 0.0259471 0)
(-1.84006 0.0253554 -2.49015e-17)
(-1.77307 0.0250874 0)
(-1.70507 0.0250407 2.44997e-17)
(-1.63609 0.0256165 0)
(-1.56682 0.0266363 -2.41104e-17)
(-1.49917 0.0291259 -2.39218e-17)
(-1.43237 0.0302821 -2.37375e-17)
(-1.36538 0.0313347 0)
(-1.30017 0.0313572 0)
(-1.2356 0.0325426 0)
(-1.16997 0.0333986 0)
(-1.10527 0.0330392 0)
(-1.03558 0.0318996 0)
(-0.966895 0.0331696 0)
(-0.896043 0.0327728 0)
(-0.828953 0.0351521 2.22136e-17)
(-0.761437 0.0356044 2.20613e-17)
(-0.698839 0.0399446 0)
(-0.637987 0.0412704 0)
(-0.581953 0.0409121 0)
(-0.514001 0.0382945 2.14808e-17)
(-0.451293 0.0425213 0)
(-0.38251 0.0408656 0)
(-0.31767 0.0437581 0)
(-0.247 0.0407868 0)
(-0.174221 0.0431365 -2.08064e-17)
(-0.0990949 0.0446112 0)
(-0.0180147 0.0435114 0)
(0.0673011 0.0449363 2.04292e-17)
(0.156196 0.0447992 -2.03076e-17)
(0.248416 0.0441816 0)
(0.344243 0.0482092 -2.00749e-17)
(0.435988 0.0511999 0)
(0.528248 0.0549257 1.98484e-17)
(0.60925 0.0595232 0)
(0.680585 0.0624313 0)
(0.755635 0.0625997 0)
(0.825311 0.063324 0)
(0.90499 0.0604094 0)
(0.979322 0.0608738 -3.8396e-17)
(1.05524 0.0624336 -3.81768e-17)
(1.11605 0.0671647 0)
(1.16707 0.066309 0)
(1.2122 0.0676728 0)
(1.24903 0.0636389 3.72525e-17)
(1.29689 0.0588483 0)
(1.34614 0.057225 0)
(1.39091 0.0561034 0)
(1.43931 0.0538847 3.62324e-17)
(1.47825 0.0560884 -3.59645e-17)
(1.52249 0.0527963 0)
(1.56092 0.0528297 0)
(1.60202 0.0532709 -3.51496e-17)
(1.62807 0.058295 -3.48766e-17)
(1.65774 0.0549723 0)
(1.68631 0.0586717 0)
(1.72553 0.05569 3.40433e-17)
(1.76234 0.0659498 -3.37638e-17)
(1.77052 0.0713459 0)
(1.78426 0.070756 0)
(1.8093 0.0711404 -3.29269e-17)
(1.84254 0.0758528 0)
(1.85595 0.0834407 0)
(1.86692 0.089129 -3.20827e-17)
(1.86609 0.0932532 0)
(1.88053 0.098074 -3.15222e-17)
(1.883 0.105074 0)
(1.88897 0.10919 0)
(1.87624 0.120816 0)
(1.8625 0.126745 3.04332e-17)
(1.84657 0.133144 0)
(1.81453 0.14291 0)
(1.74194 0.154643 0)
(1.66438 0.154823 0)
(1.59762 0.157305 0)
(1.5066 0.166024 0)
(1.37939 0.1724 2.88924e-17)
(1.26141 0.173939 2.8738e-17)
(1.07689 0.182074 0)
(0.871834 0.184418 0)
(0.629874 0.1835 0)
(0.414999 0.169814 -2.83204e-17)
(0.193274 0.162839 0)
(0.0415261 0.14661 5.63454e-17)
(-0.157587 0.143869 -5.62358e-17)
(-0.259579 0.123821 -5.60567e-17)
(-0.42142 0.126847 5.59524e-17)
(-0.45549 0.0965617 -5.57497e-17)
(-0.612624 0.129549 5.57303e-17)
(-0.562913 -0.0035162 0)
(0.0100907 0.24893 0)
(0.0143522 0.19225 0)
(0.0493002 0.00796831 -2.27969e-17)
(0.120489 -0.198136 0)
(0.235273 -0.384058 2.23658e-17)
(0.387451 -0.535391 2.22192e-17)
(0.568516 -0.644244 1.10442e-17)
(0.768318 -0.710195 1.09818e-17)
(0.975586 -0.736829 0)
(1.17973 -0.730585 1.08547e-17)
(1.37212 -0.694774 0)
(1.54545 -0.636519 0)
(1.69576 -0.561954 -2.1321e-17)
(1.8183 -0.477602 -1.05953e-17)
(1.91301 -0.385767 2.10565e-17)
(1.97812 -0.291279 2.09229e-17)
(2.01495 -0.198967 1.03958e-17)
(2.02363 -0.110929 0)
(2.0066 -0.0279697 0)
(1.96382 0.0466467 0)
(1.89912 0.112048 1.01368e-17)
(1.81256 0.171166 0)
(1.70876 0.224094 -3.00379e-17)
(1.58656 0.266959 0)
(1.44831 0.301971 0)
(1.29452 0.33259 -9.83206e-18)
(1.1287 0.356612 0)
(0.953593 0.373945 9.71568e-18)
(0.773012 0.385037 1.9313e-17)
(0.587875 0.392326 -9.5977e-18)
(0.400988 0.394415 0)
(0.213586 0.39064 0)
(0.0253243 0.383421 0)
(-0.163343 0.376508 1.87313e-17)
(-0.350622 0.367982 1.86168e-17)
(-0.535138 0.355829 9.25142e-18)
(-0.71415 0.341164 0)
(-0.888178 0.324129 -1.82765e-17)
(-1.05324 0.303614 0)
(-1.21161 0.281726 1.8051e-17)
(-1.36167 0.259239 0)
(-1.50504 0.236416 0)
(-1.64021 0.215959 -1.77168e-17)
(-1.76811 0.196821 0)
(-1.89119 0.178826 -5.24871e-17)
(-2.00854 0.159991 1.73859e-17)
(-2.11928 0.141005 0)
(-2.22301 0.124007 1.71657e-17)
(-2.32064 0.106271 1.70554e-17)
(-2.41091 0.0865975 0)
(-2.49193 0.0675463 0)
(-2.56581 0.052888 0)
(-2.63443 0.0432223 0)
(-2.69972 0.0381214 0)
(-2.76104 0.0366318 -1.63738e-17)
(-2.82049 0.0362119 -3.25154e-17)
(-2.87832 0.0364301 1.61415e-17)
(-2.9319 0.0340406 0)
(-2.98306 0.0301916 -3.18132e-17)
(-3.03216 0.0289676 1.57876e-17)
(-3.07856 0.0298464 0)
(-3.12574 0.0304627 1.555e-17)
(-3.17085 0.0329 0)
(-3.21368 0.0339974 0)
(-3.25473 0.0330497 3.03754e-17)
(-3.29458 0.0320985 -1.50674e-17)
(-3.33005 0.0300113 2.98921e-17)
(-3.36309 0.0271931 -2.96508e-17)
(-3.39083 0.0242045 -1.47049e-17)
(-3.4156 0.0203714 0)
(-3.43433 0.0133451 -1.44632e-17)
(-3.44608 0.00351802 0)
(-3.45221 -0.00690869 0)
(-3.44995 -0.0192566 0)
(-3.43853 -0.0333789 -1.39834e-17)
(-3.41894 -0.0473797 0)
(-3.3928 -0.0575995 -2.74958e-17)
(-3.36086 -0.0648804 4.08953e-17)
(-3.32349 -0.0735612 1.35166e-17)
(-3.27984 -0.0847496 0)
(-3.22821 -0.0975472 1.32882e-17)
(-3.17129 -0.110279 0)
(-3.10869 -0.122385 2.61249e-17)
(-3.04093 -0.13343 0)
(-2.96813 -0.143966 2.56819e-17)
(-2.89019 -0.153388 -5.09239e-17)
(-2.80831 -0.162317 -2.5248e-17)
(-2.724 -0.170289 0)
(-2.63471 -0.177802 0)
(-2.5432 -0.183403 0)
(-2.44953 -0.187575 2.44078e-17)
(-2.35255 -0.191582 0)
(-2.2544 -0.194252 -2.40015e-17)
(-2.15627 -0.194623 0)
(-2.05762 -0.196204 7.08236e-17)
(-1.95898 -0.195571 2.34178e-17)
(-1.85972 -0.196613 2.32319e-17)
(-1.76254 -0.193916 0)
(-1.66787 -0.193228 0)
(-1.57262 -0.193957 0)
(-1.4748 -0.194662 0)
(-1.37802 -0.197081 0)
(-1.27554 -0.201412 4.43241e-17)
(-1.17945 -0.19952 4.3988e-17)
(-1.07992 -0.199734 0)
(-0.992532 -0.194259 -2.16763e-17)
(-0.896258 -0.195293 -2.15242e-17)
(-0.80917 -0.188599 0)
(-0.714585 -0.187549 -4.24457e-17)
(-0.635808 -0.187116 0)
(-0.538969 -0.197353 2.09387e-17)
(-0.452579 -0.191176 0)
(-0.347063 -0.199099 0)
(-0.25246 -0.195847 -4.10594e-17)
(-0.139196 -0.204403 0)
(-0.0350068 -0.204866 2.0273e-17)
(0.0904241 -0.212908 0)
(0.217345 -0.220663 0)
(0.353392 -0.224629 1.98876e-17)
(0.494115 -0.229312 1.97712e-17)
(0.639663 -0.23447 0)
(0.788613 -0.234912 -1.95337e-17)
(0.948028 -0.236613 0)
(1.10741 -0.227417 1.92969e-17)
(1.27093 -0.218315 3.83635e-17)
(1.41921 -0.212448 0)
(1.5764 -0.213948 0)
(1.7221 -0.214118 0)
(1.88203 -0.2159 0)
(2.02984 -0.210972 3.72305e-17)
(2.18448 -0.207595 1.11006e-16)
(2.32144 -0.188894 0)
(2.44571 -0.1835 0)
(2.56512 -0.172462 0)
(2.66992 -0.174045 -3.60798e-17)
(2.77191 -0.17848 0)
(2.8723 -0.17807 0)
(2.96686 -0.176602 7.06158e-17)
(3.06018 -0.177031 3.5034e-17)
(3.13562 -0.172431 3.47654e-17)
(3.22372 -0.179718 0)
(3.2876 -0.173408 0)
(3.35484 -0.174812 3.39205e-17)
(3.40169 -0.164014 -3.36144e-17)
(3.44671 -0.178154 0)
(3.47652 -0.175109 0)
(3.51051 -0.191303 -3.27215e-17)
(3.53944 -0.173403 9.71872e-17)
(3.55368 -0.168916 0)
(3.5645 -0.179747 0)
(3.57536 -0.191209 3.14591e-17)
(3.59577 -0.189278 0)
(3.59114 -0.182463 6.16243e-17)
(3.58832 -0.180657 -3.04707e-17)
(3.56062 -0.185358 0)
(3.55705 -0.194738 2.98437e-17)
(3.53329 -0.191167 5.90524e-17)
(3.52228 -0.192577 0)
(3.47598 -0.185452 0)
(3.45207 -0.19375 -2.8573e-17)
(3.41027 -0.185849 0)
(3.35223 -0.168912 5.5886e-17)
(3.25322 -0.149299 0)
(3.15954 -0.154129 0)
(3.03862 -0.146022 0)
(2.90926 -0.121765 0)
(2.71588 -0.103671 -2.66528e-17)
(2.55785 -0.0764559 -2.64633e-17)
(2.27436 -0.0272286 0)
(2.00465 -0.0031176 0)
(1.67593 0.0216095 0)
(1.38276 0.0180445 2.59579e-17)
(1.04921 0.0228714 0)
(0.842668 0.0132497 -5.16682e-17)
(0.524178 0.0316657 5.16418e-17)
(0.411059 0.000593818 5.14928e-17)
(0.129727 0.0314689 5.14829e-17)
(0.130936 -0.0167241 5.13307e-17)
(-0.164997 0.0795764 5.14935e-17)
(0.0194584 -0.115503 0)
(0.0290171 0.0716927 0)
(0.120829 -0.0374714 0)
(0.227635 -0.240711 2.29139e-17)
(0.339513 -0.467632 2.26655e-17)
(0.47379 -0.692238 -2.2514e-17)
(0.617809 -0.874237 -2.24014e-17)
(0.77203 -1.00303 -1.47977e-21)
(0.923373 -1.07348 0)
(1.06862 -1.08441 0)
(1.19552 -1.04538 0)
(1.30444 -0.965674 0)
(1.39053 -0.856532 0)
(1.45624 -0.726138 6.47138e-17)
(1.49705 -0.586056 0)
(1.51581 -0.441328 -2.13054e-17)
(1.5107 -0.29495 -2.11691e-17)
(1.48463 -0.15364 0)
(1.43617 -0.0202838 0)
(1.36987 0.103492 0)
(1.28545 0.216015 0)
(1.1852 0.315524 -2.05028e-17)
(1.07002 0.398748 0)
(0.944912 0.471276 2.02487e-17)
(0.807218 0.536523 0)
(0.659807 0.591525 0)
(0.504038 0.636564 0)
(0.345315 0.672606 3.95252e-17)
(0.182632 0.699886 0)
(0.0184946 0.719348 -1.95224e-17)
(-0.146634 0.729708 3.88e-17)
(-0.311082 0.732828 0)
(-0.477849 0.734599 0)
(-0.644818 0.731725 0)
(-0.810576 0.722336 -1.89168e-17)
(-0.97267 0.707085 -1.8796e-17)
(-1.13147 0.685526 0)
(-1.28538 0.658141 0)
(-1.43364 0.626518 3.68596e-17)
(-1.57484 0.592374 3.662e-17)
(-1.71423 0.557912 -3.63818e-17)
(-1.84851 0.525035 0)
(-1.98088 0.491378 0)
(-2.10755 0.45904 0)
(-2.23046 0.429488 0)
(-2.34904 0.401673 3.5201e-17)
(-2.46163 0.37229 3.49673e-17)
(-2.56906 0.342485 -3.47353e-17)
(-2.6709 0.313794 0)
(-2.7667 0.285783 0)
(-2.85724 0.25663 0)
(-2.94245 0.229697 0)
(-3.02772 0.211842 3.35759e-17)
(-3.10705 0.195944 0)
(-3.18146 0.182685 0)
(-3.24933 0.174814 3.28783e-17)
(-3.31262 0.169611 3.26467e-17)
(-3.37039 0.162775 0)
(-3.42059 0.15357 -6.43602e-17)
(-3.46857 0.146658 3.19487e-17)
(-3.51281 0.140425 -3.17143e-17)
(-3.55101 0.136515 0)
(-3.58642 0.133594 0)
(-3.61588 0.129198 0)
(-3.64039 0.124409 0)
(-3.66227 0.118718 -3.05524e-17)
(-3.68005 0.110929 -6.06462e-17)
(-3.69217 0.103587 -3.00976e-17)
(-3.70082 0.0964741 2.98727e-17)
(-3.70211 0.0853493 0)
(-3.69794 0.0726033 -5.88401e-17)
(-3.68593 0.0568655 -5.83917e-17)
(-3.66843 0.0410398 -5.79468e-17)
(-3.64686 0.0235408 5.7505e-17)
(-3.61642 0.00145676 0)
(-3.57915 -0.0210919 8.4942e-17)
(-3.53599 -0.0405619 0)
(-3.48818 -0.0560677 -2.78779e-17)
(-3.43177 -0.0699775 -2.76651e-17)
(-3.36744 -0.0856778 0)
(-3.29695 -0.102583 0)
(-3.22296 -0.119368 -5.40422e-17)
(-3.14671 -0.13428 0)
(-3.06644 -0.148559 -5.31953e-17)
(-2.98355 -0.162265 0)
(-2.89606 -0.176704 5.23567e-17)
(-2.80499 -0.188191 1.03885e-16)
(-2.71021 -0.19804 0)
(-2.6145 -0.207299 0)
(-2.51574 -0.214796 0)
(-2.41824 -0.22092 5.02923e-17)
(-2.31907 -0.226771 0)
(-2.21655 -0.231449 4.94704e-17)
(-2.11126 -0.234698 0)
(-2.00549 -0.233944 0)
(-1.89745 -0.234124 -9.65084e-17)
(-1.79209 -0.231823 0)
(-1.6848 -0.231351 -4.74637e-17)
(-1.58176 -0.225334 0)
(-1.47452 -0.226039 -4.66962e-17)
(-1.36795 -0.225181 0)
(-1.25908 -0.224338 0)
(-1.15173 -0.228071 0)
(-1.0414 -0.230475 -1.35698e-16)
(-0.941486 -0.222095 -4.48714e-17)
(-0.832469 -0.218999 0)
(-0.73948 -0.208653 0)
(-0.637855 -0.210142 0)
(-0.552263 -0.19793 0)
(-0.448305 -0.194263 4.32367e-17)
(-0.36221 -0.189681 -8.58381e-17)
(-0.255049 -0.206448 -4.26338e-17)
(-0.167631 -0.198206 8.46589e-17)
(-0.0478859 -0.213433 8.40952e-17)
(0.0538352 -0.210008 4.17619e-17)
(0.183981 -0.224832 0)
(0.296726 -0.22586 8.23981e-17)
(0.435272 -0.24225 0)
(0.567353 -0.251603 -8.12865e-17)
(0.715607 -0.257671 -4.0385e-17)
(0.86152 -0.262477 0)
(1.01637 -0.270383 7.97629e-17)
(1.16545 -0.272865 3.96283e-17)
(1.32745 -0.281678 0)
(1.48612 -0.277959 3.90901e-17)
(1.65875 -0.268288 -1.16509e-16)
(1.81893 -0.257059 0)
(1.98394 -0.256689 0)
(2.13664 -0.256322 0)
(2.29755 -0.260033 0)
(2.45473 -0.255651 -7.51546e-17)
(2.61131 -0.252421 -7.46556e-17)
(2.76318 -0.221722 0)
(2.90145 -0.21499 0)
(3.03286 -0.201278 0)
(3.15467 -0.19927 0)
(3.2615 -0.203992 0)
(3.38098 -0.207159 0)
(3.49373 -0.206375 -7.09519e-17)
(3.60627 -0.205929 -1.65145e-20)
(3.70128 -0.198492 0)
(3.81066 -0.209202 0)
(3.9007 -0.196424 -6.86064e-17)
(3.99239 -0.197198 0)
(4.07216 -0.176435 6.74243e-17)
(4.14066 -0.187246 6.68066e-17)
(4.18247 -0.170366 0)
(4.23621 -0.188979 0)
(4.27476 -0.165007 -6.48992e-17)
(4.32447 -0.155932 -1.28509e-16)
(4.352 -0.160142 0)
(4.38453 -0.171861 0)
(4.42607 -0.163113 0)
(4.43876 -0.148279 -6.16877e-17)
(4.46653 -0.135238 6.09999e-17)
(4.46516 -0.135496 0)
(4.48516 -0.142264 1.19364e-16)
(4.46889 -0.130343 5.9028e-17)
(4.48636 -0.128695 -1.16761e-16)
(4.46403 -0.10988 0)
(4.46384 -0.116074 0)
(4.43205 -0.0942702 -1.12741e-16)
(4.39022 -0.0665248 -5.57143e-17)
(4.30348 -0.0364696 0)
(4.23857 -0.0345679 0)
(4.10527 -0.0168396 0)
(3.99455 0.024765 0)
(3.78382 0.0507908 -1.05591e-16)
(3.61552 0.094917 0)
(3.31876 0.165571 0)
(3.06333 0.189425 0)
(2.71462 0.218137 0)
(2.4022 0.201896 0)
(2.0127 0.186554 0)
(1.77653 0.152386 -1.00639e-16)
(1.37277 0.149035 0)
(1.24528 0.0823961 0)
(0.860568 0.104905 -1.9943e-16)
(0.856757 0.0216694 9.92527e-17)
(0.472024 0.112482 -9.94031e-17)
(0.667681 -0.125828 9.87827e-17)
(0.0206382 -0.0933262 0)
(0.124869 -0.268118 -4.69572e-17)
(0.247466 -0.488767 0)
(0.375285 -0.754352 -2.27976e-17)
(0.501884 -0.998118 0)
(0.617951 -1.18713 0)
(0.722607 -1.30492 2.24466e-17)
(0.803262 -1.3484 0)
(0.866165 -1.31867 0)
(0.905383 -1.233 0)
(0.927435 -1.11033 0)
(0.930183 -0.961173 0)
(0.918508 -0.794185 -8.66178e-17)
(0.889709 -0.617166 -4.3026e-17)
(0.847326 -0.434512 4.27466e-17)
(0.791065 -0.253603 0)
(0.722915 -0.081069 0)
(0.641426 0.0804308 0)
(0.550052 0.229441 0)
(0.448341 0.363045 0)
(0.339151 0.48086 -4.1151e-17)
(0.220698 0.582972 -4.08984e-17)
(0.0943087 0.673876 4.06492e-17)
(-0.0378622 0.750043 -4.04015e-17)
(-0.174132 0.812962 0)
(-0.313146 0.86123 0)
(-0.453688 0.897424 -3.96583e-17)
(-0.594577 0.922213 0)
(-0.736383 0.936382 0)
(-0.878752 0.945098 -3.89252e-17)
(-1.02174 0.950757 -3.8682e-17)
(-1.16261 0.948564 -3.84376e-17)
(-1.30034 0.939447 0)
(-1.43474 0.924092 0)
(-1.56451 0.902499 3.76939e-17)
(-1.68925 0.872698 0)
(-1.80996 0.836972 0)
(-1.92703 0.797294 -3.69491e-17)
(-2.04101 0.759075 3.66975e-17)
(-2.15334 0.72075 -3.64488e-17)
(-2.25915 0.681813 0)
(-2.36327 0.642257 0)
(-2.4633 0.60569 -7.14204e-17)
(-2.56049 0.571238 0)
(-2.65227 0.533017 -7.04544e-17)
(-2.74058 0.494798 -1.04964e-16)
(-2.82521 0.458836 1.04243e-16)
(-2.90458 0.422449 -6.90153e-17)
(-2.98075 0.385121 0)
(-3.05439 0.349367 0)
(-3.12766 0.32113 -6.7603e-17)
(-3.19825 0.296571 -3.35711e-17)
(-3.26249 0.270901 0)
(-3.32258 0.249699 0)
(-3.37802 0.234306 -3.2879e-17)
(-3.42808 0.217512 -6.52982e-17)
(-3.47183 0.198605 0)
(-3.50965 0.180719 6.438e-17)
(-3.54341 0.166262 -6.39208e-17)
(-3.57204 0.152675 6.34649e-17)
(-3.59452 0.138557 0)
(-3.61124 0.125362 0)
(-3.62337 0.114014 0)
(-3.63038 0.102421 0)
(-3.63378 0.091918 0)
(-3.6324 0.0767122 6.07746e-17)
(-3.62669 0.060219 0)
(-3.61377 0.0418947 0)
(-3.59508 0.0212433 0)
(-3.57208 -0.000347666 1.18048e-16)
(-3.54363 -0.0240421 5.85919e-17)
(-3.51032 -0.04773 5.81583e-17)
(-3.47214 -0.0744683 -1.15458e-16)
(-3.42752 -0.105622 5.73042e-17)
(-3.37961 -0.135531 -5.68849e-17)
(-3.32543 -0.163001 0)
(-3.26649 -0.189054 5.60382e-17)
(-3.19762 -0.215844 0)
(-3.12468 -0.24116 0)
(-3.04609 -0.263204 0)
(-2.96607 -0.284132 1.08721e-16)
(-2.88384 -0.303453 -5.3947e-17)
(-2.79836 -0.322621 -5.35337e-17)
(-2.71154 -0.341611 -1.06272e-16)
(-2.62078 -0.361652 -1.58219e-16)
(-2.52893 -0.37767 -5.23445e-17)
(-2.43236 -0.390809 0)
(-2.33604 -0.402385 -1.03073e-16)
(-2.23822 -0.410466 0)
(-2.14041 -0.416673 -1.52208e-16)
(-2.04193 -0.426603 0)
(-1.94447 -0.433022 -1.49834e-16)
(-1.84095 -0.439301 0)
(-1.73691 -0.439948 0)
(-1.6282 -0.441534 -4.87481e-17)
(-1.52097 -0.438435 0)
(-1.41046 -0.438119 4.79741e-17)
(-1.30478 -0.433517 9.516e-17)
(-1.19113 -0.435317 4.72055e-17)
(-1.08139 -0.437074 9.36533e-17)
(-0.962987 -0.437686 -9.28964e-17)