/*--------------------------------*- C++ -*----------------------------------*\
| =========                 |                                                 |
| \\      /  F ield         | OpenFOAM: The Open Source CFD Toolbox           |
|  \\    /   O peration     | Version:  dev                                   |
|   \\  /    A nd           | Web:      http://www.openfoam.org               |
|    \\/     M anipulation  |                                                 |
\*---------------------------------------------------------------------------*/
FoamFile
{
    version     2.0;
    format      ascii;
    class       volScalarField;
    object      k;
    location    "9.132";
}
// * * * * * * * * * * * * * * * * * * * * * * * * * * * * * * * * * * * * * //

dimensions      [0 2 -2 0 0 0 0];

internalField   nonuniform List<scalar> 
12225
(
8.5793
10.5815
7.2006
9.70938
8.51247
14.8298
13.8565
22.7763
21.4176
33.1276
31.4629
47.3624
46.7533
64.1906
80.8077
114.416
138.762
218.393
1.15963
5.75068
5.00929
6.56875
5.0905
6.72023
6.12364
7.46572
7.18381
8.09525
7.97443
8.57109
8.72934
8.56461
10.2059
10.6971
9.72223
19.0826
0.0934396
1.98227
2.26115
3.92154
3.31138
4.11177
3.74788
3.93882
3.91483
3.6921
3.79988
3.48247
3.55276
2.9628
3.12512
2.93819
3.84281
7.48586
0.0211951
0.480129
0.647825
1.22504
1.51009
1.54384
1.82218
1.58216
1.73012
1.48227
1.52688
1.35742
1.38575
1.27403
1.32029
1.72066
4.47428
10.689
0.00257636
0.0943357
0.164959
0.296837
0.644345
0.674751
0.794321
0.714671
0.783467
0.700029
0.724585
0.677398
0.747086
0.784811
0.983169
1.54454
4.29592
15.2825
0.00681327
0.129463
0.143517
0.24517
0.313839
0.341169
0.394115
0.362113
0.402202
0.380202
0.401034
0.424878
0.471699
0.567095
0.885225
1.54639
3.68839
16.0688
0.00444403
0.0436745
0.0926076
0.104487
0.13566
0.15013
0.193519
0.186502
0.219078
0.216145
0.234301
0.260626
0.315083
0.417937
0.595383
1.23522
2.91689
14.5181
0.00133931
0.00932881
0.038102
0.0493241
0.0748614
0.0885988
0.1207
0.127269
0.148455
0.155618
0.171588
0.187284
0.232565
0.256884
0.28785
0.562812
1.88622
7.97007
0.00316764
0.00901866
0.0242183
0.0432164
0.0651468
0.0852082
0.107942
0.118973
0.136306
0.147078
0.156621
0.170806
0.188866
0.203529
0.235462
0.286856
1.44811
2.31029
0.00285749
0.01932
0.0272248
0.0608388
0.0745329
0.107308
0.119106
0.141223
0.146497
0.15759
0.164891
0.173019
0.190682
0.201475
0.22302
0.249251
0.641078
1.00139
0.00382596
0.026952
0.0394502
0.0950582
0.114292
0.160504
0.170132
0.18984
0.188777
0.196681
0.198183
0.203043
0.205507
0.209332
0.217954
0.232396
0.323633
0.391795
0.00714174
0.0503988
0.0739766
0.160663
0.191397
0.252535
0.26169
0.280886
0.276803
0.281451
0.274798
0.271509
0.260706
0.258106
0.24994
0.246423
0.258198
0.27951
0.0179415
0.107996
0.152073
0.280328
0.324948
0.394728
0.401089
0.412203
0.407505
0.408328
0.403082
0.396438
0.376359
0.361818
0.336914
0.304123
0.283927
0.277858
0.0722745
0.24345
0.30815
0.44483
0.494642
0.567044
0.57645
0.586567
0.585807
0.585084
0.5756
0.561319
0.524636
0.495834
0.462782
0.431501
0.394368
0.366925
0.218211
0.41279
0.539154
0.713724
0.80038
0.870408
0.885534
0.89049
0.884154
0.858245
0.808365
0.759554
0.703764
0.653087
0.599441
0.553058
0.504844
0.46804
0.427441
0.674089
0.848586
0.980033
1.04423
1.06915
1.07076
1.06227
1.02884
0.971079
0.908144
0.845873
0.780318
0.719171
0.656007
0.601299
0.544941
0.501797
0.529757
0.763969
0.94493
1.0627
1.11764
1.12994
1.12862
1.1161
1.07249
1.00697
0.938987
0.872325
0.80306
0.738101
0.671524
0.613662
0.554622
0.508896
0.524935
0.752401
0.935927
1.05447
1.11023
1.12255
1.12096
1.10804
1.06338
0.99685
0.928519
0.861659
0.792665
0.728332
0.662093
0.604394
0.54564
0.5001
0.396677
0.617103
0.805114
0.937045
1.00781
1.03134
1.03214
1.02362
0.991332
0.932094
0.868521
0.806483
0.742397
0.683004
0.621094
0.566478
0.510231
0.466811
0.223874
0.353863
0.51442
0.659792
0.759229
0.808107
0.819423
0.818186
0.809225
0.778119
0.727671
0.679616
0.628797
0.581841
0.530709
0.483583
0.433591
0.394589
0.14477
0.230166
0.322464
0.406708
0.467479
0.496914
0.504686
0.504487
0.502811
0.497879
0.478164
0.45388
0.426427
0.399198
0.366575
0.334427
0.297771
0.268861
0.0823119
0.120104
0.171557
0.231769
0.285825
0.319629
0.333282
0.333684
0.330177
0.319162
0.301074
0.283404
0.265268
0.251112
0.236071
0.224187
0.209751
0.199768
0.035638
0.0578969
0.0833618
0.12222
0.159025
0.181539
0.190272
0.192831
0.195086
0.197863
0.201436
0.20382
0.203992
0.202662
0.198517
0.19536
0.189394
0.18511
0.0163718
0.0318001
0.0478918
0.0611723
0.0813094
0.10368
0.124748
0.142272
0.156944
0.169453
0.180547
0.189254
0.193976
0.195523
0.195563
0.19478
0.191996
0.190291
0.0055114
0.0119457
0.022406
0.040179
0.0637355
0.0917368
0.120492
0.145053
0.167215
0.188631
0.208372
0.223315
0.234394
0.240926
0.244663
0.246985
0.24886
0.253099
0.00137344
0.00815776
0.0250951
0.0634515
0.116151
0.175925
0.235824
0.2814
0.319494
0.355527
0.38712
0.408397
0.426933
0.439606
0.448959
0.459016
0.468255
0.483828
0.00313937
0.0457049
0.15636
0.344152
0.505502
0.64226
0.758077
0.835596
0.895101
0.948258
0.98648
1.01026
1.03245
1.04915
1.06257
1.07866
1.09624
1.09608
0.0438429
0.426454
1.09426
1.72586
2.07358
2.21095
2.30189
2.36608
2.41787
2.45732
2.46798
2.46768
2.45737
2.43901
2.40897
2.36339
2.31477
2.22651
0.783239
3.25404
4.57084
4.88676
4.90171
4.89258
4.85818
4.81487
4.80991
4.82267
4.83874
4.84145
4.83052
4.80615
4.74463
4.63825
4.5268
4.27506
6.99945
9.87764
8.91189
7.43084
7.13431
7.43627
8.19143
9.09567
9.98475
10.8086
11.5391
12.1553
12.6442
13.0214
13.2711
13.2937
13.1717
12.7461
0.14441
0.112711
0.0932269
0.0933674
0.100254
0.115111
0.135333
0.162181
0.195106
0.235842
0.284713
0.338267
0.398391
0.463978
0.535574
0.625025
0.73307
0.862361
1.01385
1.18655
1.4558
1.85573
2.33728
2.90817
3.5898
4.33737
5.054
5.6894
6.2589
6.78331
7.26107
7.68358
8.05944
8.39994
8.70308
8.97919
9.22842
9.46028
9.68826
9.8925
10.0831
10.2891
10.5004
10.7168
10.9133
11.153
11.4098
11.6215
11.8038
11.9689
12.1234
12.263
12.3976
12.5243
12.6455
12.7188
12.8221
12.9341
12.9568
12.9309
12.8741
12.83
12.8527
12.8791
12.8542
12.752
12.585
12.3956
12.2407
12.158
12.1405
12.1019
12.0007
11.8645
11.6644
11.4187
11.1431
10.8364
10.4424
10.0122
9.56131
9.01768
8.2355
7.34736
6.87205
6.64085
6.47487
6.22246
6.03951
5.99546
5.9122
5.44288
4.74975
4.38192
4.12942
3.89765
3.99598
4.99727
6.02936
6.42582
6.43608
6.17519
6.06133
6.06323
6.33905
6.58051
6.61735
6.19344
5.29618
4.17035
3.04838
2.20597
1.66175
1.63652
1.67562
1.58797
1.63002
1.78765
2.00286
2.28713
2.668
3.2449
3.9266
4.71227
5.51667
6.28628
7.04213
7.91016
8.77125
9.46711
9.93541
10.166
10.2621
10.3101
10.3894
10.5004
10.5965
10.6845
10.8305
11.0343
11.3088
11.5771
11.7035
11.7054
11.6355
11.3878
10.883
9.91375
8.63699
7.35261
6.60902
6.34261
6.43548
6.3843
6.44704
7.68645
9.22052
9.55447
9.35422
9.36235
10.4847
11.2231
11.2931
10.9155
9.07767
9.12107
10.9824
12.7962
15.4545
17.3327
18.1523
18.4197
18.5021
18.2355
17.839
17.0325
16.2233
15.4767
14.515
13.6159
0.532659
0.26263
0.127426
0.0964117
0.0949362
0.101269
0.117718
0.140301
0.158731
0.17705
0.19319
0.224316
0.280948
0.328494
0.376427
0.484722
0.666824
0.860325
1.10699
1.37707
1.65414
1.95
2.21568
2.4341
2.54091
2.56236
2.52722
2.38988
2.22336
2.05054
1.87314
1.70885
1.56916
1.43481
1.32835
1.24563
1.17705
1.10832
1.06724
1.02628
1.0101
1.0099
1.01794
1.04002
1.0785
1.13924
1.17272
1.18834
1.19638
1.20708
1.22417
1.2501
1.2926
1.33513
1.38931
1.45637
1.58838
1.65435
1.66032
1.64278
1.63129
1.65737
1.75931
1.9295
2.03725
2.06417
2.04986
1.97441
1.94477
1.96251
2.05145
2.22289
2.42841
2.54587
2.6218
2.66721
2.75677
2.9522
3.26024
3.45273
3.4734
3.38019
3.04526
2.28215
1.8256
1.70326
1.67894
1.62141
1.58629
1.64387
1.81052
2.03451
2.26446
2.91607
3.81532
4.54162
4.82869
4.627
3.94764
3.18426
2.79209
2.50038
2.38361
2.36472
2.39528
2.34095
2.15564
1.87325
1.60016
1.3687
1.23736
1.2132
1.33759
1.45272
1.47806
1.36174
1.42755
1.42983
1.44779
1.49001
1.56959
1.72469
1.97147
2.2651
2.57556
2.92627
3.29461
3.71611
4.19324
4.70645
5.21393
5.75414
6.12146
6.35554
6.64072
6.86012
6.98361
7.0479
7.09291
7.13178
7.10015
7.04676
7.02587
7.08216
7.1511
7.05011
6.8251
6.27452
5.34001
4.61646
4.32353
4.5069
5.53079
7.02115
7.17591
7.20992
6.68819
5.96359
5.5773
5.42023
5.7687
5.7887
5.50904
5.05988
4.02079
3.91055
4.17494
4.71637
5.70579
6.74443
7.43995
7.74068
7.91895
7.99561
8.14512
8.08014
7.8237
7.34628
6.8775
6.38968
1.13293
0.437364
0.157713
0.100889
0.0970145
0.108259
0.138774
0.182896
0.203745
0.222993
0.246093
0.30494
0.410462
0.504497
0.591036
0.737566
0.910768
1.06195
1.2186
1.32521
1.35743
1.35723
1.27153
1.16965
1.04585
0.909075
0.771143
0.646944
0.542444
0.451134
0.386657
0.333787
0.298665
0.269065
0.250476
0.238601
0.228461
0.218473
0.212224
0.207388
0.205613
0.205516
0.206546
0.210595
0.218177
0.226495
0.22992
0.230721
0.230663
0.229023
0.228346
0.229475
0.233122
0.238685
0.248525
0.266673
0.293042
0.300878
0.301125
0.296969
0.295879
0.301847
0.324748
0.366403
0.392447
0.396853
0.393449
0.369437
0.3603
0.36178
0.382472
0.435728
0.533282
0.595892
0.62424
0.64727
0.694202
0.797789
1.01359
1.36094
1.57881
1.6482
1.60785
1.29242
0.9332
0.802257
0.769997
0.771909
0.81535
0.930711
1.16093
1.75616
2.84493
3.59244
3.75276
3.93377
3.37603
2.28753
1.53823
1.26222
1.13748
1.08592
1.07492
1.12684
1.16403
1.16367
1.1262
1.03509
0.940348
0.855621
0.837441
0.936212
1.2457
1.35652
1.05328
1.11446
1.27821
1.26498
1.25564
1.23185
1.21728
1.22619
1.26801
1.34874
1.45843
1.54096
1.65611
1.82134
1.98129
2.22659
2.48793
2.76253
2.98361
3.15693
3.40753
3.63687
3.79455
3.91869
4.02319
4.15784
4.25468
4.21292
4.14197
4.15121
4.2708
4.34414
4.2903
4.04293
3.42598
3.11399
3.18235
4.19279
5.80783
6.86795
6.40162
4.9872
4.31543
3.96587
3.85373
3.82138
3.89962
3.66048
3.06803
2.82448
2.31843
2.25683
2.15292
2.27948
2.67838
3.21112
3.54156
3.69229
3.76486
3.87387
4.25036
4.67022
4.68005
4.50058
3.98885
3.68671
1.93014
0.743613
0.250439
0.120252
0.100053
0.113388
0.17257
0.248604
0.27338
0.295394
0.320178
0.389584
0.50186
0.601046
0.693818
0.802768
0.88755
0.907058
0.901905
0.82603
0.723155
0.616242
0.538082
0.45781
0.383705
0.317614
0.261993
0.230597
0.205454
0.189423
0.182243
0.178942
0.177616
0.17722
0.177937
0.179694
0.181673
0.18224
0.182234
0.181557
0.179756
0.177962
0.176165
0.175696
0.176126
0.178011
0.180351
0.18261
0.185434
0.185689
0.185378
0.184967
0.18478
0.185484
0.187847
0.192432
0.197331
0.200685
0.200741
0.200564
0.202362
0.209245
0.216839
0.221853
0.223518
0.222138
0.212601
0.197287
0.193647
0.194046
0.201477
0.218525
0.253922
0.287588
0.299608
0.306117
0.31682
0.351249
0.420431
0.560977
0.738686
0.888222
0.968524
0.937886
0.822731
0.683128
0.646566
0.675988
0.815087
1.117
1.71484
2.45184
3.00335
3.29669
3.04784
2.37819
1.6231
1.08139
0.857354
0.777571
0.750322
0.740902
0.764087
0.806874
0.830704
0.84149
0.846127
0.831009
0.787425
0.72568
0.714881
0.818167
0.952259
0.942049
0.749574
0.882783
1.04765
1.13435
1.18142
1.16861
1.14097
1.11186
1.08059
1.09118
1.13408
1.15768
1.18874
1.27768
1.36733
1.50994
1.7124
1.8731
1.97514
2.08799
2.22998
2.37429
2.50416
2.62907
2.73392
2.83191
2.96063
3.01156
2.99618
2.98966
3.09773
3.24177
3.26905
3.14815
2.77705
2.66742
3.02419
4.42656
5.79477
6.02465
4.92343
4.16701
3.80058
3.60293
3.52004
3.63823
3.81173
3.34654
2.56116
2.39554
1.80951
1.70473
1.62127
1.63805
1.80849
2.17633
2.33055
2.33605
2.32793
2.37847
2.7101
3.19463
3.4187
3.38937
3.0114
2.66502
2.93642
1.1433
0.376128
0.149609
0.109642
0.125567
0.198216
0.279037
0.310522
0.341591
0.391103
0.467985
0.555146
0.610286
0.651083
0.661631
0.643831
0.566606
0.494798
0.416955
0.351664
0.297749
0.25955
0.224108
0.19927
0.182215
0.1721
0.168867
0.167682
0.167535
0.169769
0.172421
0.175332
0.177977
0.180454
0.18289
0.186811
0.190571
0.193222
0.195214
0.195771
0.195532
0.192664
0.185249
0.176887
0.173735
0.172602
0.172566
0.174573
0.180498
0.186733
0.189356
0.189337
0.188957
0.187675
0.185541
0.184756
0.185131
0.187314
0.192409
0.198605
0.210215
0.217352
0.217845
0.212062
0.205693
0.195896
0.182809
0.178894
0.178394
0.180237
0.183772
0.194611
0.214575
0.234448
0.245414
0.254201
0.264079
0.275619
0.310516
0.384953
0.459817
0.557847
0.59398
0.599957
0.600673
0.623369
0.76373
1.17763
1.67603
2.16709
2.51351
2.72093
2.23776
1.78553
1.4233
0.955806
0.737524
0.661671
0.632779
0.623203
0.62598
0.653264
0.688279
0.707096
0.711154
0.680132
0.613845
0.582739
0.574433
0.597924
0.651054
0.6441
0.630987
0.667556
0.798825
0.904795
0.958499
1.05314
1.06522
1.04978
1.03084
0.977556
0.956327
0.995443
1.01035
1.02687
1.06212
1.133
1.23145
1.40512
1.58798
1.61271
1.67984
1.76278
1.82748
1.91214
2.01838
2.1324
2.23337
2.31988
2.36649
2.39349
2.43433
2.56806
2.7093
2.75625
2.69742
2.49188
2.50588
3.05736
4.76174
5.65629
5.07767
4.00616
3.29404
3.01713
2.92052
3.00612
3.37319
3.74882
3.39579
2.5886
2.33943
1.57531
1.42786
1.40581
1.39532
1.47459
1.80028
1.89341
1.89442
1.78876
1.78978
1.96546
2.51482
2.75169
2.84021
2.60601
2.16375
4.04969
1.43535
0.400289
0.155387
0.125959
0.148142
0.209832
0.286418
0.330593
0.360979
0.418818
0.481705
0.507053
0.508113
0.480715
0.43724
0.386918
0.338692
0.292384
0.243865
0.209082
0.193656
0.181715
0.171105
0.164558
0.162011
0.161215
0.161563
0.163811
0.164815
0.165286
0.165725
0.165861
0.165724
0.165776
0.166777
0.169768
0.175549
0.183196
0.18926
0.193412
0.197026
0.197242
0.195798
0.190318
0.180247
0.171712
0.169988
0.169692
0.171823
0.179299
0.191337
0.201443
0.202549
0.200199
0.19072
0.183364
0.180682
0.180788
0.185067
0.194273
0.207097
0.220621
0.222332
0.214136
0.205883
0.201782
0.191978
0.17916
0.175011
0.173749
0.17316
0.175354
0.186726
0.201631
0.223898
0.24053
0.243191
0.243274
0.255493
0.283903
0.304087
0.349373
0.413615
0.449388
0.493229
0.621146
1.04827
1.51478
1.86899
2.1588
2.30742
1.90329
1.38577
1.13911
0.96713
0.731797
0.627001
0.586804
0.561752
0.549485
0.543717
0.560522
0.622244
0.653348
0.661367
0.629623
0.549292
0.496061
0.467698
0.456332
0.476806
0.513383
0.539799
0.647353
0.777273
0.848112
0.884629
0.890066
0.916031
0.858612
0.869565
0.841792
0.804313
0.846537
0.971377
0.966032
0.98681
1.02999
1.05181
1.14031
1.34938
1.45781
1.50438
1.54781
1.59119
1.65092
1.70956
1.76819
1.87516
1.96371
2.0073
2.0459
2.12313
2.29082
2.42855
2.45768
2.40958
2.32573
2.41052
3.23801
4.7777
5.24959
4.10418
3.07743
2.51656
2.34313
2.16806
2.06473
2.21385
2.72474
3.25211
2.65481
2.25263
1.48465
1.31312
1.28628
1.26411
1.31539
1.59906
1.741
1.75174
1.65689
1.51572
1.57457
1.89285
2.38097
2.51618
2.35991
1.90341
5.1682
1.63259
0.395428
0.161515
0.154495
0.188069
0.224633
0.281117
0.330892
0.367998
0.410788
0.416663
0.399653
0.359763
0.322918
0.283129
0.256616
0.227566
0.204169
0.184725
0.173849
0.16913
0.164228
0.158054
0.155935
0.155268
0.155129
0.154972
0.153719
0.150286
0.144132
0.138869
0.1372
0.13666
0.136715
0.137744
0.1404
0.145167
0.1529
0.16232
0.172541
0.183563
0.192503
0.19786
0.198444
0.196227
0.18652
0.173808
0.171392
0.171818
0.176766
0.1897
0.207766
0.223438
0.225761
0.221771
0.207158
0.187051
0.18153
0.181259
0.185289
0.192931
0.207012
0.215545
0.212594
0.20449
0.203427
0.201559
0.18675
0.168975
0.161075
0.160881
0.167263
0.176
0.182685
0.203099
0.224953
0.232244
0.237473
0.246413
0.250516
0.252385
0.275315
0.331019
0.379696
0.442864
0.643052
1.25859
1.64966
1.86115
2.00319
1.78829
1.21473
0.936578
0.824139
0.730666
0.584802
0.524081
0.494902
0.475618
0.455213
0.441912
0.441585
0.468028
0.521682
0.573514
0.586517
0.534259
0.47019
0.402919
0.366279
0.400106
0.458332
0.498903
0.616504
0.747487
0.749708
0.826792
0.752176
0.736684
0.718953
0.682951
0.711276
0.69595
0.731402
0.952045
0.948452
0.943831
0.978837
0.960831
0.984483
1.10073
1.27327
1.37256
1.42805
1.46207
1.54515
1.60936
1.60128
1.64658
1.72866
1.77646
1.81285
1.89534
2.05223
2.21414
2.241
2.20637
2.17475
2.32684
3.34803
4.71647
4.71579
3.32248
2.50875
2.17376
2.06366
1.79807
1.64157
1.51971
1.60652
2.17342
2.53054
1.92333
1.2638
1.17855
1.21416
1.20228
1.21862
1.44799
1.68584
1.70698
1.65383
1.4535
1.4239
1.52696
1.96037
2.30228
2.21491
1.82079
6.3291
1.91948
0.419384
0.178518
0.180751
0.209286
0.229179
0.263192
0.30269
0.333054
0.350949
0.349398
0.315808
0.274483
0.244964
0.20879
0.194773
0.185386
0.175216
0.167283
0.161767
0.158429
0.154002
0.150312
0.148271
0.146671
0.143404
0.137749
0.131362
0.129201
0.128713
0.128995
0.130489
0.131694
0.132425
0.133379
0.134979
0.137895
0.143657
0.152638
0.164359
0.176436
0.184848
0.190417
0.196305
0.202763
0.203209
0.198684
0.185362
0.178489
0.178963
0.184168
0.199639
0.221703
0.234646
0.236648
0.231631
0.211352
0.191087
0.184651
0.18507
0.189521
0.195545
0.207555
0.209349
0.202337
0.199576
0.197546
0.185081
0.166565
0.156753
0.156259
0.164817
0.169207
0.171761
0.194491
0.217579
0.226789
0.232902
0.237442
0.23584
0.242299
0.267494
0.300513
0.333895
0.411441
0.712925
1.37816
1.65112
1.75791
1.65603
1.2633
0.844293
0.697288
0.63892
0.567508
0.484187
0.453364
0.438328
0.423541
0.399102
0.385661
0.379199
0.374887
0.375091
0.394563
0.488443
0.521457
0.468851
0.366675
0.330265
0.362115
0.423535
0.472098
0.549122
0.667293
0.664194
0.703526
0.659349
0.588919
0.581373
0.549248
0.610493
0.652195
0.660129
0.9248
0.930778
0.890042
0.883872
0.896324
0.911376
0.95617
1.11519
1.22317
1.31688
1.32301
1.38975
1.49349
1.50833
1.54428
1.6124
1.64354
1.65234
1.71349
1.82216
2.00799
2.07228
2.04499
2.0503
2.24955
3.3561
4.47067
4.19238
2.79126
2.16103
1.96063
1.77771
1.51595
1.35007
1.16348
1.21349
1.47874
1.88614
1.54948
1.12836
1.08762
1.10433
1.11398
1.13028
1.32532
1.61891
1.68252
1.64791
1.467
1.39073
1.38796
1.58597
2.09451
2.0498
1.74965
7.53037
2.24425
0.475268
0.194193
0.190509
0.210075
0.2165
0.226228
0.250466
0.273227
0.280743
0.276787
0.245735
0.209424
0.189186
0.171818
0.169012
0.169684
0.170053
0.166129
0.159466
0.153531
0.146683
0.141425
0.137377
0.132041
0.125824
0.121406
0.12029
0.120242
0.121573
0.125306
0.129946
0.133133
0.134893
0.135406
0.135601
0.136802
0.140088
0.146688
0.158944
0.174143
0.185498
0.18948
0.191467
0.193649
0.199935
0.205782
0.205492
0.201626
0.193413
0.190346
0.191149
0.19793
0.215665
0.230065
0.229937
0.220948
0.204662
0.197004
0.195648
0.197259
0.198681
0.202839
0.20933
0.208282
0.199825
0.184083
0.164413
0.157314
0.155539
0.155432
0.158841
0.15922
0.165246
0.195482
0.219234
0.22832
0.232668
0.23528
0.237835
0.251294
0.274603
0.290194
0.314575
0.404226
0.778007
1.40378
1.6095
1.53768
1.33704
0.939262
0.671025
0.586662
0.54807
0.481724
0.433688
0.415152
0.403446
0.384709
0.369889
0.364626
0.356512
0.343939
0.323922
0.312135
0.358238
0.454504
0.456103
0.354225
0.308263
0.327075
0.392541
0.417993
0.481114
0.615914
0.634181
0.628009
0.561854
0.506417
0.503043
0.485998
0.565436
0.625915
0.627955
0.770119
0.895848
0.796756
0.795845
0.857287
0.852632
0.873897
1.0244
1.0924
1.16754
1.19526
1.23982
1.31998
1.38666
1.42484
1.5046
1.56663
1.56252
1.60028
1.64761
1.79543
1.92871
1.90763
1.93592
2.17248
3.34103
4.18697
3.67695
2.39745
1.91301
1.77355
1.50375
1.33442
1.20052
1.03407
1.05706
1.10699
1.4189
1.2378
1.01306
1.05296
1.02956
1.02031
1.0502
1.22713
1.35408
1.50193
1.57178
1.43987
1.36831
1.34167
1.41509
1.82535
1.80516
1.66886
8.85274
2.7232
0.60516
0.208532
0.191274
0.208626
0.210424
0.206249
0.217039
0.228132
0.227912
0.209263
0.185199
0.168375
0.155096
0.148792
0.148676
0.151002
0.152228
0.15193
0.148553
0.141847
0.13407
0.129407
0.126162
0.122336
0.117961
0.116349
0.116042
0.116328
0.118024
0.121828
0.128467
0.136522
0.14246
0.144262
0.144005
0.141219
0.13994
0.140489
0.145658
0.158067
0.181843
0.194525
0.196266
0.194002
0.191953
0.194553
0.203949
0.205917
0.204013
0.197007
0.188734
0.18626
0.189783
0.206171
0.218471
0.218184
0.211371
0.208868
0.208251
0.208308
0.206994
0.205216
0.209303
0.209956
0.200729
0.18041
0.155924
0.149705
0.149584
0.148948
0.148832
0.154138
0.16402
0.194255
0.217498
0.226392
0.231048
0.235718
0.247949
0.273347
0.286246
0.291888
0.3155
0.411867
0.858537
1.38207
1.47629
1.31323
1.07049
0.766227
0.577288
0.515045
0.475332
0.425256
0.402641
0.391795
0.375018
0.347832
0.337378
0.329938
0.327947
0.323098
0.302046
0.280146
0.287208
0.321578
0.371318
0.326707
0.288973
0.299148
0.348429
0.370111
0.450331
0.553011
0.590404
0.572198
0.498524
0.458875
0.467139
0.468746
0.509842
0.612701
0.609648
0.662207
0.745709
0.70599
0.746218
0.837252
0.807804
0.822577
0.958884
0.9993
1.05473
1.11335
1.1192
1.15826
1.2649
1.29858
1.37069
1.48304
1.48412
1.4952
1.52008
1.60882
1.79467
1.80204
1.83447
2.10851
3.27276
3.89129
3.26126
2.12091
1.7657
1.68165
1.38572
1.27
1.15746
0.970815
0.92356
1.01285
1.17116
1.06127
0.918066
0.960487
0.930239
0.959337
0.990441
1.11213
1.1308
1.16501
1.31493
1.30261
1.34573
1.34697
1.35985
1.58549
1.65734
1.61678
10.344
3.24139
0.797634
0.236566
0.185353
0.205074
0.20862
0.197675
0.194373
0.200745
0.201257
0.181051
0.155378
0.146487
0.141989
0.140457
0.141531
0.145968
0.147655
0.147305
0.144105
0.138057
0.13155
0.126993
0.123733
0.121208
0.118029
0.116216
0.116016
0.116345
0.117237
0.11909
0.122578
0.129132
0.139912
0.146864
0.148474
0.14799
0.143871
0.140694
0.140395
0.143402
0.15535
0.181237
0.195694
0.196699
0.190762
0.184615
0.185342
0.194075
0.197371
0.193946
0.18524
0.1746
0.174847
0.182853
0.206029
0.215725
0.218285
0.21864
0.217043
0.213274
0.211749
0.207151
0.207043
0.206051
0.197218
0.174561
0.150917
0.143494
0.142822
0.143435
0.1451
0.152173
0.160463
0.184278
0.206642
0.215312
0.221069
0.230354
0.250628
0.277921
0.290411
0.297491
0.325123
0.443663
0.941216
1.31215
1.31694
1.06648
0.857664
0.656091
0.510335
0.455663
0.417
0.388894
0.378279
0.368161
0.340024
0.313113
0.303068
0.292461
0.288557
0.291349
0.284101
0.272821
0.264919
0.267842
0.290903
0.301012
0.281677
0.287429
0.319239
0.345941
0.425042
0.528322
0.542474
0.527971
0.453586
0.431306
0.445932
0.45355
0.474179
0.58695
0.605217
0.611271
0.632874
0.667433
0.724006
0.805481
0.773392
0.772618
0.869568
0.912796
0.955669
1.052
1.03007
1.03817
1.14521
1.17778
1.22482
1.36046
1.41037
1.40331
1.42372
1.4754
1.66168
1.71065
1.73831
2.03524
3.11959
3.57034
2.91862
1.94524
1.6741
1.64114
1.35785
1.20571
1.13707
0.968554
0.886696
0.947343
1.02556
0.937977
0.864194
0.925316
0.878577
0.91768
0.924464
0.973714
0.990193
1.02524
1.2033
1.25528
1.36158
1.39196
1.36421
1.45233
1.60184
1.60101
12.1252
3.83968
1.14359
0.308046
0.179573
0.189279
0.202324
0.197518
0.188844
0.187014
0.1876
0.176943
0.149775
0.135378
0.132198
0.133448
0.138629
0.146551
0.14987
0.150106
0.147392
0.142238
0.136021
0.130681
0.126215
0.123159
0.120286
0.117584
0.116828
0.116825
0.117288
0.11843
0.119875
0.122694
0.128568
0.138923
0.146834
0.148059
0.14652
0.141611
0.13941
0.139378
0.144046
0.158161
0.18445
0.192102
0.191034
0.181619
0.177247
0.177408
0.179494
0.17862
0.174665
0.16766
0.167182
0.173135
0.194556
0.214758
0.221291
0.223213
0.221054
0.211465
0.209319
0.207159
0.205195
0.202285
0.19038
0.164235
0.143012
0.137493
0.137984
0.141546
0.142779
0.15056
0.157533
0.170136
0.193144
0.205066
0.215168
0.232372
0.264035
0.293646
0.306377
0.317648
0.35208
0.489673
0.983904
1.24284
1.18443
0.873507
0.695573
0.573707
0.461802
0.410965
0.382216
0.369464
0.366568
0.346798
0.311336
0.293144
0.288026
0.277715
0.271034
0.26649
0.256134
0.263359
0.255601
0.244257
0.256609
0.284227
0.269278
0.267484
0.29754
0.326764
0.399127
0.50554
0.51645
0.494226
0.435925
0.419643
0.427679
0.435944
0.451448
0.527851
0.596073
0.539545
0.565458
0.664739
0.708199
0.743859
0.706955
0.703296
0.752241
0.773309
0.820651
0.960105
0.954718
0.956853
1.02896
1.07855
1.0955
1.21315
1.32128
1.3152
1.33244
1.36431
1.53515
1.63273
1.65365
1.92975
2.96323
3.30342
2.66784
1.85389
1.61936
1.60823
1.35609
1.16881
1.11691
0.953564
0.888108
0.891805
0.956591
0.892607
0.834343
0.855888
0.839982
0.869527
0.86283
0.882423
0.900269
0.981295
1.18886
1.27757
1.44459
1.44053
1.3697
1.41277
1.60335
1.62508
14.249
4.36848
1.40831
0.446758
0.196776
0.174027
0.186343
0.19675
0.19157
0.184528
0.182164
0.177203
0.157301
0.13627
0.127333
0.125301
0.127407
0.134959
0.144256
0.147239
0.146869
0.143876
0.138983
0.134965
0.129676
0.124957
0.122355
0.120301
0.119401
0.119456
0.120197
0.121307
0.122687
0.124734
0.128485
0.137059
0.148901
0.152505
0.152562
0.148098
0.14164
0.140108
0.141101
0.150035
0.172922
0.189357
0.189791
0.182469
0.175412
0.174391
0.174794
0.173751
0.167249
0.163953
0.164569
0.170124
0.188956
0.215496
0.220183
0.219597
0.217883
0.205795
0.201835
0.200925
0.197832
0.190556
0.176433
0.153934
0.137891
0.131495
0.130816
0.136038
0.14034
0.151112
0.157381
0.165165
0.183079
0.199368
0.215584
0.246133
0.309806
0.350815
0.368124
0.379672
0.41611
0.565525
0.99056
1.17875
1.09145
0.752421
0.585179
0.507689
0.426873
0.380929
0.362169
0.362531
0.363556
0.340379
0.296305
0.282941
0.273553
0.268677
0.263946
0.245816
0.235352
0.239329
0.238178
0.231653
0.241121
0.263835
0.25255
0.253185
0.282493
0.308708
0.388791
0.488807
0.504264
0.470851
0.427353
0.413166
0.41547
0.424815
0.44047
0.497828
0.537156
0.487606
0.535627
0.661248
0.669023
0.584923
0.584702
0.602817
0.608758
0.633098
0.706736
0.859643
0.874544
0.856576
0.893641
0.945241
0.970032
1.0563
1.19773
1.20445
1.23951
1.26752
1.42591
1.55672
1.56575
1.78456
2.75248
3.07887
2.52057
1.8099
1.58807
1.5467
1.32943
1.12834
1.0754
0.933793
0.872241
0.891348
0.923389
0.843268
0.805802
0.81087
0.797238
0.807083
0.798436
0.815404
0.852338
1.00118
1.28369
1.41932
1.4959
1.4869
1.40235
1.42265
1.63039
1.66227
16.7902
4.71074
1.47743
0.605496
0.256251
0.190771
0.189345
0.197308
0.196077
0.190603
0.184717
0.180086
0.169895
0.150574
0.135383
0.127698
0.125489
0.126299
0.130362
0.135953
0.139046
0.139484
0.138749
0.137376
0.134272
0.130436
0.128693
0.127891
0.127829
0.129394
0.132842
0.136815
0.138917
0.139895
0.141247
0.145679
0.155876
0.160109
0.159047
0.152675
0.144026
0.140525
0.140306
0.144698
0.159392
0.176043
0.177992
0.174903
0.17308
0.17272
0.172686
0.172733
0.167643
0.164025
0.163438
0.16837
0.177455
0.199775
0.206009
0.201122
0.194924
0.193106
0.193589
0.191218
0.183636
0.164161
0.144728
0.134009
0.127547
0.123345
0.122627
0.127119
0.136359
0.151251
0.15743
0.163951
0.176597
0.195796
0.218137
0.271121
0.354632
0.422956
0.464201
0.486343
0.530225
0.686081
0.981942
1.08223
0.993489
0.671797
0.514342
0.452995
0.394381
0.35896
0.348934
0.353603
0.361719
0.341278
0.293166
0.279808
0.271378
0.25631
0.248711
0.233081
0.226131
0.2294
0.227267
0.223144
0.232281
0.249692
0.241513
0.240234
0.265791
0.297698
0.378939
0.481658
0.487054
0.46722
0.424131
0.411561
0.411346
0.423271
0.438057
0.473615
0.488249
0.466474
0.519409
0.643575
0.528966
0.455255
0.491063
0.505174
0.497091
0.55264
0.643413
0.721899
0.742176
0.755127
0.776679
0.813415
0.849422
0.93269
1.06967
1.093
1.1548
1.18259
1.32093
1.48422
1.49557
1.64327
2.48106
2.85727
2.43331
1.79727
1.57208
1.49964
1.28502
1.1113
1.03844
0.919476
0.871843
0.884637
0.897303
0.829505
0.769284
0.794094
0.778685
0.75749
0.756155
0.777047
0.846701
1.16703
1.4801
1.48475
1.48584
1.52013
1.45673
1.46784
1.67261
1.69479
20.0226
4.86626
1.45909
0.705558
0.425091
0.327758
0.287681
0.253653
0.22724
0.206726
0.191883
0.184148
0.18069
0.172747
0.155408
0.140514
0.133858
0.131877
0.132053
0.134202
0.137532
0.139905
0.140478
0.140364
0.140135
0.141822
0.145123
0.147257
0.149959
0.154783
0.159959
0.162998
0.162305
0.157054
0.154273
0.155256
0.160216
0.162287
0.158608
0.151074
0.143419
0.139594
0.138384
0.140333
0.150894
0.16393
0.165824
0.164
0.165469
0.169225
0.170801
0.171268
0.168403
0.164124
0.161624
0.164136
0.168383
0.169868
0.169667
0.181047
0.185814
0.186532
0.184125
0.171923
0.155693
0.138431
0.130161
0.121808
0.118332
0.117601
0.118009
0.123314
0.133834
0.150061
0.156719
0.162875
0.172342
0.192649
0.218695
0.281683
0.375553
0.459691
0.524075
0.571156
0.62612
0.767888
0.944128
0.978367
0.883931
0.593789
0.455291
0.410053
0.366224
0.338718
0.334512
0.345815
0.358179
0.342296
0.294962
0.280035
0.271166
0.249703
0.232433
0.226109
0.221045
0.217725
0.21732
0.214793
0.221713
0.23435
0.229445
0.2301
0.255573
0.288527
0.372934
0.475777
0.476438
0.45731
0.42515
0.412894
0.412858
0.424587
0.44019
0.460318
0.464526
0.454625
0.49003
0.517385
0.416906
0.392644
0.443822
0.433791
0.435515
0.528403
0.594354
0.600604
0.629943
0.695699
0.707393
0.729389
0.770314
0.839677
0.948262
0.990679
1.08225
1.10899
1.21595
1.39047
1.42113
1.5187
2.19233
2.60052
2.32778
1.80347
1.54135
1.42615
1.24191
1.10291
1.01464
0.908439
0.873892
0.889914
0.896678
0.828153
0.754286
0.771177
0.755414
0.727345
0.736873
0.77078
0.908441
1.32416
1.54708
1.48417
1.44641
1.52323
1.4737
1.50552
1.69578
1.66753
23.6726
4.84413
1.45056
1.03086
1.01459
0.947423
0.816676
0.58418
0.382993
0.270281
0.224336
0.201428
0.192741
0.188376
0.181178
0.170507
0.158153
0.147888
0.141588
0.140737
0.141234
0.143501
0.147427
0.15084
0.15497
0.161038
0.166094
0.16972
0.172482
0.173552
0.17248
0.169696
0.166361
0.160796
0.157172
0.157888
0.161698
0.161263
0.152418
0.142332
0.139939
0.139324
0.138391
0.139549
0.146222
0.154311
0.157572
0.161658
0.163524
0.165201
0.169278
0.170919
0.169117
0.163939
0.158653
0.153549
0.150954
0.150072
0.161505
0.177083
0.183027
0.180164
0.172427
0.151371
0.139088
0.133021
0.125235
0.116685
0.113614
0.113705
0.114197
0.119579
0.131641
0.146244
0.153926
0.160255
0.168505
0.187306
0.216765
0.28365
0.382937
0.4743
0.554434
0.62439
0.688376
0.80631
0.904532
0.91018
0.817357
0.560014
0.424375
0.380602
0.349574
0.323621
0.318841
0.334371
0.35032
0.339539
0.296375
0.279895
0.270503
0.246673
0.226757
0.220786
0.215676
0.211984
0.208159
0.207587
0.217895
0.232152
0.227056
0.226991
0.249506
0.284168
0.372089
0.466317
0.472461
0.456635
0.430882
0.419571
0.42058
0.431537
0.44513
0.456808
0.459548
0.452359
0.444137
0.416828
0.369033
0.362988
0.424148
0.401029
0.416718
0.532584
0.573419
0.535563
0.580027
0.675302
0.670906
0.683546
0.729316
0.78246
0.851395
0.904574
1.02096
1.05165
1.13312
1.29272
1.35113
1.42556
1.94026
2.33529
2.1926
1.81017
1.50226
1.31245
1.17336
1.08528
0.974434
0.896848
0.878767
0.897782
0.899495