/*--------------------------------*- C++ -*----------------------------------*\
| =========                 |                                                 |
| \\      /  F ield         | OpenFOAM: The Open Source CFD Toolbox           |
|  \\    /   O peration     | Version:  dev                                   |
|   \\  /    A nd           | Web:      http://www.openfoam.org               |
|    \\/     M anipulation  |                                                 |
\*---------------------------------------------------------------------------*/
FoamFile
{
    version     2.0;
    format      ascii;
    class       volScalarField;
    object      k_0;
    location    "9.132";
}
// * * * * * * * * * * * * * * * * * * * * * * * * * * * * * * * * * * * * * //

dimensions      [0 2 -2 0 0 0 0];

internalField   nonuniform List<scalar> 
12225
(
8.42698
9.78709
6.26999
8.07968
7.19074
11.8486
11.383
17.7968
16.8783
25.3941
23.9792
35.8394
34.8886
49.2311
63.1406
87.4158
115.674
231.058
1.11778
5.81331
5.04884
6.68745
5.09404
6.87013
6.22059
7.56349
7.28777
8.07764
8.04925
8.38236
8.47406
8.05592
8.9965
9.06625
10.4082
20.2761
0.0911215
2.04656
2.31055
4.0487
3.31279
4.23843
3.78159
4.02756
4.00095
3.75764
3.93998
3.56563
3.69035
3.0633
3.20338
3.27496
6.1041
12.3158
0.0223549
0.489259
0.657477
1.26169
1.526
1.5604
1.86396
1.5778
1.77286
1.4775
1.57469
1.37465
1.44108
1.31267
1.48027
2.13515
8.35888
15.2629
0.00267816
0.0966304
0.170662
0.309444
0.66846
0.683563
0.813367
0.714702
0.806852
0.703013
0.743821
0.691245
0.780391
0.829139
1.14492
1.98779
9.11682
18.6942
0.00663631
0.132619
0.145994
0.25006
0.318431
0.34485
0.400126
0.361667
0.41489
0.384654
0.41666
0.445798
0.497611
0.630764
1.06887
2.05612
7.39689
20.9726
0.00412008
0.0452937
0.0942533
0.104106
0.13767
0.152616
0.197659
0.187673
0.227698
0.219862
0.247189
0.28086
0.347866
0.479502
0.760158
1.69511
5.98296
20.7576
0.00143767
0.0099491
0.0389842
0.0510809
0.0771134
0.0922429
0.123999
0.130391
0.153598
0.159148
0.180074
0.195
0.2571
0.279106
0.356569
0.930994
3.66279
14.9013
0.00358321
0.00958103
0.0254753
0.045644
0.0682903
0.0888504
0.111389
0.122688
0.14015
0.150046
0.161337
0.176134
0.195519
0.213889
0.260693
0.392611
2.32787
4.05304
0.00344008
0.0201128
0.0284686
0.0649908
0.0779042
0.112054
0.122772
0.14434
0.148461
0.160221
0.167035
0.176744
0.193477
0.205395
0.232994
0.280925
0.987905
1.41033
0.00468825
0.0283618
0.0420824
0.101926
0.119829
0.166618
0.174245
0.192723
0.189446
0.198208
0.19819
0.203429
0.205442
0.209229
0.223192
0.240156
0.392983
0.437127
0.00863922
0.0536976
0.0792153
0.171482
0.200485
0.260254
0.266449
0.285067
0.277406
0.282351
0.272255
0.268128
0.256298
0.253031
0.246675
0.244679
0.26952
0.284001
0.0222165
0.114857
0.162351
0.2964
0.337983
0.404549
0.40665
0.417329
0.409407
0.409662
0.401199
0.39179
0.3687
0.351937
0.324066
0.291826
0.277862
0.273958
0.0844869
0.256099
0.323761
0.462612
0.510785
0.580203
0.585117
0.593427
0.59028
0.587065
0.573783
0.554958
0.51376
0.483938
0.44916
0.415436
0.378126
0.350243
0.242099
0.43139
0.562871
0.738951
0.822413
0.888221
0.898557
0.901416
0.89061
0.856784
0.80314
0.751138
0.69272
0.640224
0.585452
0.538457
0.490545
0.452734
0.465204
0.699492
0.875461
1.00468
1.0642
1.08523
1.08483
1.07213
1.0306
0.968989
0.903041
0.838069
0.77033
0.707389
0.643207
0.587874
0.531749
0.4876
0.570015
0.788513
0.97012
1.08483
1.13527
1.14456
1.14156
1.12468
1.0724
1.00401
0.933641
0.864598
0.793403
0.726786
0.659263
0.60084
0.542098
0.495511
0.564302
0.775693
0.960104
1.07566
1.12713
1.13654
1.1334
1.11629
1.06325
0.994238
0.923797
0.85477
0.784067
0.718164
0.650967
0.592719
0.534279
0.487919
0.423601
0.636715
0.826571
0.956621
1.02363
1.04396
1.04365
1.03215
0.992894
0.930747
0.865232
0.801402
0.735851
0.675048
0.612135
0.556824
0.500794
0.456561
0.238427
0.36676
0.531605
0.677381
0.774122
0.819247
0.828249
0.826341
0.814978
0.778031
0.726345
0.677142
0.625217
0.576941
0.524549
0.476437
0.426431
0.386805
0.15525
0.237712
0.331978
0.416383
0.475541
0.502728
0.509284
0.509068
0.507584
0.501585
0.478392
0.454085
0.42591
0.397493
0.363549
0.330151
0.29311
0.263775
0.0867441
0.123305
0.176969
0.238612
0.292409
0.324638
0.336639
0.336591
0.332053
0.319571
0.301014
0.283077
0.264869
0.250651
0.23542
0.223177
0.208491
0.198051
0.0373708
0.0595184
0.0863962
0.126632
0.163254
0.184547
0.192283
0.194565
0.196997
0.200082
0.203735
0.205826
0.205679
0.203531
0.199057
0.195503
0.189194
0.184282
0.0173502
0.0328764
0.0492494
0.063025
0.0839594
0.106761
0.127919
0.14542
0.160131
0.172678
0.183663
0.191874
0.195865
0.196874
0.19659
0.19531
0.192167
0.19037
0.00583616
0.0124951
0.0235018
0.0421911
0.0667374
0.095544
0.124548
0.149139
0.171531
0.193133
0.212529
0.226716
0.236896
0.242522
0.245626
0.247529
0.249322
0.253453
0.00145646
0.00872079
0.0271261
0.0677047
0.122107
0.183359
0.243215
0.288015
0.32597
0.36184
0.39221
0.412307
0.429805
0.441227
0.449955
0.459589
0.469063
0.483129
0.00353696
0.0491389
0.165826
0.356688
0.519622
0.657775
0.772089
0.847027
0.905228
0.956687
0.992123
1.01391
1.03478
1.04984
1.06249
1.07841
1.09334
1.09019
0.0498079
0.448664
1.1311
1.77006
2.1052
2.23395
2.322
2.38391
2.43368
2.46962
2.47646
2.47403
2.46037
2.43985
2.40654
2.35816
2.30308
2.19935
0.823369
3.30528
4.63628
4.93744
4.95032
4.94638
4.91096
4.87259
4.87239
4.88985
4.90609
4.90878
4.89445
4.8664
4.79475
4.6801
4.54821
4.22476
6.88479
9.46146
8.31799
6.83197
6.52003
6.79884
7.5095
8.35037
9.18121
9.95605
10.6461
11.2334
11.7049
12.078
12.3285
12.3625
12.242
11.7527
0.142858
0.111857
0.0927035
0.0928995
0.0996724
0.114402
0.134422
0.161056
0.193823
0.234352
0.282944
0.335791
0.394834
0.459362
0.529011
0.614594
0.717357
0.840069
0.983868
1.14396
1.38811
1.75237
2.19402
2.71624
3.3356
4.0166
4.67341
5.25375
5.76587
6.23045
6.65027
7.01699
7.33682
7.62158
7.87025
8.09422
8.29585
8.47966
8.66168
8.8269
8.97925
9.14539
9.32181
9.5114
9.68322
9.89399
10.1303
10.3343
10.5095
10.6735
10.8328
10.9837
11.1374
11.285
11.4349
11.547
11.687
11.8471
11.9308
11.9639
11.9621
11.9844
12.0649
12.1618
12.2093
12.1865
12.0939
11.9741
11.8809
11.8574
11.9239
11.965
11.9396
11.8616
11.7174
11.5264
11.2994
11.035
10.6618
10.2239
9.76624
9.2216
8.41416
7.48337
6.9788
6.79454
6.67545
6.46408
6.29617
6.28298
6.21211
5.72034
4.98537
4.58741
4.30433
4.04107
4.09041
5.04076
6.07627
6.49101
6.50441
6.23162
6.09431
6.07501
6.33116
6.58953
6.64848
6.2613
5.39564
4.29067
3.16834
2.29996
1.70918
1.66669
1.73504
1.6375
1.67457
1.83061
2.04211
2.32924
2.72672
3.32812
4.03598
4.85093
5.6822
6.48808
7.29637
8.22416
9.14483
9.89418
10.4049
10.6616
10.7753
10.8265
10.8898
10.9666
11.0202
11.0564
11.1486
11.2957
11.5293
11.7838
11.9286
11.9529
11.9047
11.6966
11.2391
10.2925
9.00739
7.72411
6.99401
6.73334
6.81403
6.7121
6.70639
7.95135
9.58377
9.99069
9.83369
9.89915
11.1243
11.9635
12.0523
11.6569
9.36123
9.20322
10.7372
12.2669
14.6932
16.375
17.1213
17.3922
17.4977
17.254
16.8823
16.1612
15.4294
14.7788
13.9106
13.1196
0.528979
0.261649
0.127147
0.0960096
0.0944702
0.100529
0.116558
0.138846
0.157291
0.175681
0.191553
0.22139
0.277039
0.324414
0.369989
0.47201
0.647359
0.833047
1.07081
1.33336
1.60348
1.89596
2.16601
2.38556
2.51147
2.54052
2.51602
2.39223
2.22927
2.05751
1.87982
1.71153
1.56952
1.43212
1.31962
1.2319
1.1621
1.09088
1.04395
1.00097
0.97465
0.968709
0.970151
0.982469
1.01106
1.06374
1.1007
1.11307
1.1177
1.12271
1.13309
1.15052
1.18491
1.22042
1.26349
1.31607
1.43237
1.52
1.53124
1.5181
1.49841
1.50736
1.57956
1.73489
1.86397
1.90027
1.89388
1.82753
1.78299
1.78712
1.85181
2.00364
2.21212
2.34077
2.42331
2.47161
2.55421
2.7401
3.05208
3.28144
3.32789
3.26436
2.96966
2.23134
1.7461
1.61043
1.58349
1.53215
1.49787
1.54892
1.70687
1.9654
2.23666
2.90274
3.80487
4.54422
4.89851
4.67898
3.84956
3.03694
2.62869
2.33394
2.21199
2.18858
2.21024
2.1544
1.97949
1.72583
1.50055
1.32345
1.22141
1.20747
1.35294
1.48347
1.50669
1.37948
1.45687
1.44566
1.45052
1.47462
1.54058
1.68111
1.91018
2.18121
2.46088
2.7748
3.11677
3.51341
3.96241
4.45445
4.94689
5.47059
5.82475
6.06202
6.3558
6.585
6.71983
6.79515
6.84814
6.90512
6.89068
6.84693
6.83029
6.88859
6.97818
6.91086
6.72336
6.21235
5.30023
4.6054
4.3398
4.58573
5.66307
7.16558
7.29878
7.23723
6.57278
5.8359
5.47375
5.33141
5.64479
5.63597
5.33266
4.92983
3.98998
3.85152
4.07616
4.55952
5.47922
6.44663
7.09444
7.37177
7.54633
7.6512
7.84517
7.80623
7.5572
7.09199
6.62155
6.1352
1.13086
0.436215
0.157341
0.100398
0.0964194
0.10706
0.136414
0.180153
0.201413
0.220556
0.242429
0.297784
0.400364
0.493333
0.575898
0.71576
0.88617
1.03559
1.18852
1.31016
1.34717
1.34918
1.26807
1.17057
1.05669
0.923669
0.785944
0.65997
0.554204
0.460109
0.392908
0.33786
0.301163
0.270484
0.250187
0.237724
0.227962
0.217866
0.211051
0.205958
0.203172
0.202525
0.202768
0.205384
0.211675
0.219624
0.224201
0.225275
0.225257
0.223667
0.222044
0.222249
0.2246
0.228493
0.235645
0.250075
0.274752
0.286971
0.287996
0.284617
0.282297
0.284794
0.300552
0.336021
0.367111
0.373512
0.371676
0.350097
0.336372
0.335518
0.348998
0.391108
0.482786
0.549319
0.579794
0.60118
0.63946
0.72635
0.921093
1.26287
1.50023
1.59229
1.57158
1.29665
0.942888
0.797459
0.76204
0.767248
0.815769
0.932348
1.16036
1.75449
2.86601
3.63902
3.75135
3.83332
3.21328
2.11339
1.43477
1.17649
1.06311
1.0211
1.01769
1.07015
1.11473
1.1203
1.09499
1.01935
0.936773
0.856233
0.837172
0.93163
1.26296
1.38905
1.05163
1.11888
1.29924
1.2807
1.27154
1.23999
1.21866
1.21938
1.25195
1.32428
1.42014
1.47687
1.57569
1.73037
1.87427
2.10797
2.35751
2.60123
2.78838
2.94939
3.18588
3.40529
3.56519
3.70103
3.81356
3.94785
4.06183
4.04652
3.99523
4.00833
4.12521
4.22261
4.19184
3.97996
3.40226
3.11661
3.21896
4.2857
5.92842
6.90818
6.31766
4.86757
4.25803
3.94435
3.87263
3.88955
3.96391
3.66651
3.02724
2.81241
2.32678
2.25146
2.12731
2.24747
2.64752
3.13005
3.40497
3.52183
3.58361
3.70376
4.13089
4.55171
4.56967
4.37412
3.84771
3.55549
1.93471
0.741692
0.248948
0.119618
0.0993397
0.111636
0.16815
0.245047
0.270396
0.292054
0.31483
0.379986
0.489891
0.588138
0.678061
0.782418
0.87792
0.901193
0.898446
0.828052
0.731985
0.623986
0.543779
0.464508
0.390525
0.324428
0.26645
0.232745
0.207249
0.189733
0.181607
0.177965
0.176666
0.176292
0.176933
0.178603
0.18083
0.181901
0.182095
0.18175
0.180205
0.178373
0.176397
0.175387
0.175489
0.177031
0.17945
0.181608
0.184992
0.186104
0.186046
0.185666
0.185187
0.185417
0.187218
0.191143
0.195466
0.200248
0.200907
0.200775
0.201844
0.20802
0.215558
0.220511
0.222679
0.22208
0.213936
0.197568
0.191442
0.191143
0.196627
0.210098
0.241563
0.276894
0.291635
0.297925
0.304929
0.332965
0.389385
0.51077
0.682743
0.835389
0.929857
0.920436
0.824561
0.683327
0.651087
0.683426
0.821709
1.15688
1.7854
2.51125
3.00957
3.2271
2.91002
2.26514
1.52244
1.0118
0.818065
0.744822
0.721397
0.716877
0.743721
0.788217
0.816092
0.828471
0.834939
0.82303
0.786077
0.727397
0.715575
0.814489
0.933549
0.909524
0.742293
0.886465
1.05635
1.14216
1.19583
1.17887
1.14779
1.11546
1.07058
1.07661
1.12292
1.13224
1.1505
1.23882
1.31973
1.45214
1.66445
1.82076
1.89384
1.98906
2.11976
2.24569
2.36276
2.48247
2.59647
2.70322
2.83097
2.8864
2.88668
2.89958
3.01856
3.17118
3.20517
3.10789
2.77424
2.6893
3.07528
4.55976
5.8932
5.9305
4.77542
4.04923
3.73332
3.57819
3.55188
3.76142
3.97477
3.43698
2.59889
2.42954
1.80884
1.71226
1.61909
1.63004
1.82644
2.17657
2.28251
2.25778
2.23165
2.29365
2.66256
3.13827
3.35372
3.31775
2.90517
2.57322
2.94881
1.14368
0.377237
0.149781
0.108626
0.123077
0.193191
0.275049
0.306801
0.336555
0.383258
0.457575
0.544353
0.600177
0.645023
0.656961
0.643216
0.571915
0.501041
0.423285
0.356769
0.301379
0.26223
0.226433
0.200452
0.183185
0.171347
0.167712
0.166548
0.166397
0.168457
0.171142
0.174156
0.176982
0.179568
0.181795
0.185538
0.189549
0.19247
0.194909
0.195903
0.196084
0.194376
0.187898
0.178939
0.174171
0.172546
0.172229
0.17353
0.179077
0.185846
0.190372
0.191017
0.190814
0.189558
0.187179
0.185707
0.185764
0.187536
0.192447
0.198156
0.209191
0.219294
0.220576
0.215434
0.209435
0.200096
0.185897
0.180154
0.179356
0.180685
0.182884
0.191498
0.210599
0.232034
0.244719
0.253822
0.262602
0.269638
0.295259
0.361453
0.428309
0.523151
0.568852
0.580882
0.590817
0.623251
0.778879
1.22707
1.71473
2.18783
2.52478
2.6523
2.1023
1.6639
1.34746
0.916813
0.713429
0.64419
0.616397
0.608528
0.614569
0.642148
0.681892
0.705619
0.711187
0.677688
0.604945
0.571429
0.565587
0.588319
0.639132
0.627367
0.61708
0.67345
0.811114
0.912661
0.962149
1.05498
1.06617
1.04082
1.02963
0.963903
0.926353
0.983048
1.00961
1.00838
1.04383
1.11391
1.18712
1.35715
1.55784
1.57992
1.63125
1.70532
1.76334
1.84166
1.93413
2.03305
2.1404
2.23555
2.28273
2.31064
2.36887
2.52536
2.67476
2.71649
2.66645
2.49259
2.52347
3.11842
4.84564
5.68028
4.90244
3.80122
3.12856
2.89068
2.80489
2.91606
3.33397
3.83433
3.52313
2.65939
2.37379
1.56551
1.43771
1.41368
1.39274
1.49538
1.83343
1.89982
1.87887
1.74882
1.75048
1.95742
2.49053
2.72161
2.79717
2.52133
2.08966
4.07238
1.44107
0.403139
0.155322
0.124293
0.145037
0.205492
0.281936
0.326395
0.35535
0.410783
0.473152
0.503481
0.505642
0.480386
0.439331
0.389615
0.341797
0.29626
0.248228
0.210263
0.193435
0.181391
0.170816
0.163596
0.160847
0.160017
0.160329
0.16261
0.164104
0.164701
0.165176
0.165446
0.165276
0.165177
0.165785
0.16813
0.173223
0.180886
0.187664
0.191945
0.196824
0.19769
0.197062
0.192941
0.184014
0.172895
0.169902
0.169288
0.17065
0.176759
0.188297
0.201389
0.204894
0.204152
0.195126
0.186248
0.182028
0.181428
0.184765
0.193152
0.204825
0.221447
0.225806
0.218639
0.209385
0.205546
0.196867
0.182455
0.176705
0.174498
0.173071
0.174637
0.185348
0.199452
0.221662
0.242035
0.245448
0.243993
0.25371
0.278214
0.292564
0.330946
0.397711
0.434948
0.479689
0.610097
1.07595
1.54083
1.87583
2.15444
2.2448
1.78877
1.29089
1.06715
0.916416
0.708923
0.610348
0.572968
0.549523
0.536339
0.528936
0.542247
0.607003
0.650042
0.663794
0.634368
0.552251
0.49388
0.45983
0.443746
0.463817
0.507603
0.536341
0.654808
0.789785
0.848622
0.887326
0.874668
0.900919
0.834387
0.845297
0.826992
0.769784
0.819228
0.987557
0.961574
0.971689
1.02455
1.02751
1.09598
1.30327
1.42346
1.47095
1.51255
1.55019
1.61603
1.68014
1.71684
1.80618
1.90069
1.94805
1.98072
2.06437
2.25134
2.40674
2.43037
2.38296
2.32021
2.41798
3.31091
4.84158
5.17882
3.8921
2.92106
2.43915
2.27585
2.08548
1.95209
2.0307
2.50302
3.25901
2.73486
2.26041
1.4596
1.31271
1.29025
1.2679
1.33078
1.63425
1.77956
1.77592
1.6534
1.50633
1.57159
1.88557
2.3687
2.48323
2.3
1.8521
5.20372
1.6395
0.39793
0.160414
0.152259
0.184892
0.221364
0.277155
0.326376
0.361326
0.406563
0.414637
0.400019
0.361323
0.324589
0.284098
0.257428
0.228684
0.204886
0.185073
0.172802
0.167709
0.163238
0.156977
0.154711
0.154086
0.154085
0.154217
0.153412
0.150581
0.144993
0.139032
0.136824
0.136044
0.135979
0.13668
0.138866
0.142919
0.149945
0.159008
0.169025
0.180284
0.189818
0.19718
0.199015
0.19831
0.191133
0.176916
0.171598
0.171172
0.174483
0.185895
0.203121
0.222507
0.228062
0.22679
0.214867
0.193401
0.183283
0.181836
0.185218
0.191568
0.203804
0.21691
0.216252
0.206744
0.205835
0.205358
0.192376
0.17339
0.16187
0.160062
0.166611
0.175893
0.18147
0.200727
0.225158
0.233767
0.238979
0.248823
0.251209
0.250991
0.270872
0.323058
0.369072
0.431595
0.636095
1.27209
1.65493
1.85379
1.95318
1.71116
1.13067
0.877037
0.778019
0.694108
0.564796
0.510294
0.483664
0.46424
0.441594
0.427086
0.425278
0.444013
0.491922
0.550453
0.586266
0.544349
0.476777
0.39957
0.358731
0.395061
0.456063
0.500941
0.621173
0.751948
0.741857
0.820166
0.730772
0.704936
0.693526
0.648495
0.693772
0.677515
0.708807
0.97631
0.954409
0.925213
0.964401
0.944412
0.957711
1.06277
1.23206
1.32943
1.39832
1.42243
1.49673
1.57913
1.57421
1.60679
1.69079
1.73887
1.76126
1.83706
1.99683
2.18178
2.21814
2.18291
2.16132
2.32493
3.3846
4.7327
4.59627
3.15389
2.41501
2.13886
2.00312
1.73174
1.5562
1.41434
1.49768
2.01772
2.52574
1.84246
1.23237
1.17776
1.21019
1.20208
1.22648
1.4784
1.7269
1.74464
1.66698
1.45262
1.42483
1.52157
1.94949
2.27466
2.16987
1.78047
6.37367
1.92555
0.419915
0.176676
0.178715
0.207225
0.226575
0.260343
0.299766
0.329447
0.348887
0.348379
0.316833
0.275502
0.246705
0.209249
0.194129
0.184623
0.174504
0.166386
0.160478
0.157016
0.15281
0.149261
0.147252
0.145873
0.143152
0.138033
0.13142
0.128551
0.127886
0.128044
0.129406
0.130698
0.131398
0.132249
0.133621
0.136022
0.140981
0.149093
0.160287
0.17275
0.182117
0.18806
0.193607
0.201499
0.20376
0.201706
0.190222
0.179879
0.178789
0.181792
0.194694
0.21613
0.233745
0.237873
0.235672
0.218143
0.197503
0.186646
0.185885
0.189884
0.19423
0.206872
0.211239
0.204546
0.201087
0.19953
0.189489
0.171351
0.15845
0.156273
0.164737
0.170002
0.171143
0.19286
0.217613
0.228068
0.234879
0.240362
0.237855
0.242753
0.267604
0.297607
0.327287
0.401089
0.705959
1.37696
1.652
1.72185
1.5983
1.19678
0.798729
0.665228
0.610392
0.543357
0.471717
0.444315
0.430563
0.415039
0.391945
0.380401
0.372694
0.363164
0.355614
0.367926
0.464247
0.526231
0.477087
0.364831
0.325559
0.358017
0.420708
0.470906
0.543379
0.662556
0.659323
0.687267
0.640001
0.56429
0.55963
0.52962
0.600071
0.644071
0.649297
0.93603
0.940095
0.863363
0.863638
0.888658
0.888522
0.932054
1.09144
1.17531
1.27202
1.28118
1.33286
1.44332
1.47716
1.5054
1.57594
1.62171
1.62058
1.66589
1.76166
1.95297
2.04583
2.02037
2.03065
2.24041
3.38377
4.42887
4.04501
2.65987
2.09356
1.92283
1.70664
1.47054
1.30265
1.12524
1.17328
1.39218
1.78067
1.47892
1.10794
1.09028
1.10067
1.10971
1.13751
1.35241
1.62482
1.71362
1.65935
1.45997
1.38705
1.38512
1.57885
2.05305
1.98493
1.71138
7.57195
2.2455
0.472592
0.192223
0.188952
0.208682
0.215178
0.224445
0.248165
0.27123
0.279009
0.27592
0.246464
0.210006
0.189674
0.170746
0.167077
0.167376
0.167841
0.164456
0.158058
0.152306
0.14565
0.140465
0.136694
0.1317
0.12573
0.120775
0.11934
0.119167
0.120136
0.123429
0.128016
0.131387
0.133454
0.134107
0.13424
0.135152
0.137896
0.143365
0.154321
0.169222
0.182276
0.18749
0.189595
0.191224
0.196697
0.204888
0.20604
0.203859
0.196405
0.191703
0.190955
0.194649
0.209286
0.227908
0.230519
0.224315
0.209545
0.20049
0.19837
0.199876
0.200427
0.202143
0.210304
0.210276
0.202388
0.187664
0.165509
0.157666
0.156457
0.156204
0.159717
0.159785
0.16416
0.192898
0.218849
0.229848
0.235056
0.237915
0.240799
0.256059
0.279059
0.291473
0.313471
0.395888
0.772311
1.39566
1.59305
1.49301
1.28068
0.902177
0.648102
0.568315
0.529181
0.467637
0.427141
0.41055
0.398445
0.378035
0.365055
0.359085
0.350454
0.338232
0.316594
0.300609
0.33692
0.430193
0.453263
0.351918
0.306031
0.323573
0.389361
0.41178
0.478449
0.613112
0.627505
0.613029
0.538204
0.494693
0.494134
0.480252
0.561251
0.63134
0.625765
0.73376
0.88093
0.764192
0.77814
0.858323
0.835526
0.85475
1.00956
1.0552
1.12241
1.16103
1.18531
1.25688
1.34828
1.37987
1.45511
1.54237
1.53849
1.56012
1.59487
1.72695
1.89446
1.88546
1.91213
2.15933
3.35703
4.12672
3.53076
2.29958
1.8723
1.75751
1.4727
1.32396
1.19746
1.0272
1.02705
1.08867
1.36889
1.18298
0.996919
1.04827
1.01573
1.01538
1.06289
1.23638
1.30405
1.44701
1.54435
1.41442
1.36685
1.34955
1.41904
1.77824
1.75205
1.64638
8.86665
2.71649
0.597069
0.206218
0.189909
0.207365
0.209172
0.204815
0.215216
0.226819
0.226903
0.209083
0.18501
0.167999
0.154712
0.147435
0.146858
0.148759
0.150005
0.149787
0.146895
0.140687
0.133107
0.128365
0.125187
0.121594
0.117252
0.115296
0.114899
0.11504
0.116327
0.119483
0.125444
0.133261
0.139562
0.142192
0.142313
0.139993
0.138181
0.138284
0.14216
0.152153
0.174385
0.191363
0.194312
0.192816
0.189852
0.191145
0.201084
0.205799
0.20536
0.199359
0.190987
0.185807
0.186879
0.19984
0.216177
0.218356
0.213437
0.211313
0.210858
0.21065
0.209551
0.206155
0.209553
0.211578
0.203882
0.184649
0.157878
0.149749
0.14959
0.148303
0.148661
0.154059
0.162285
0.19128
0.217087
0.227995
0.232697
0.237364
0.249654
0.275446
0.288459
0.293786
0.31594
0.408098
0.857631
1.36892
1.44227
1.25948
1.01887
0.745261
0.563073
0.499646
0.459704
0.416307
0.399522
0.38872
0.36951
0.34072
0.33036
0.321215
0.321698
0.320529
0.300577
0.277992
0.278905
0.301732
0.348165
0.322635
0.288957
0.298418
0.343759
0.366538
0.452651
0.550651
0.581267
0.558529
0.484213
0.451473
0.464757
0.465367
0.500454
0.622973
0.615415
0.634757
0.701703
0.692668
0.740364
0.834222
0.794262
0.802363
0.932978
0.965028
1.01745
1.0921
1.07843
1.10257
1.22158
1.25242
1.30792
1.43735
1.45778
1.4578
1.47658
1.54457
1.75043
1.78058
1.80964
2.08766
3.24825
3.80417
3.14093
2.06327
1.75294
1.6893
1.39352
1.27074
1.17079
0.978934
0.924129
1.01267
1.13942
1.02195
0.90692
0.95569
0.9219
0.962416
0.994274
1.10125
1.0936
1.12691
1.30362
1.30133
1.35918
1.36002
1.37272
1.5627
1.64517
1.6158
10.2851
3.22217
0.777754
0.232186
0.184237
0.20409
0.207337
0.196018
0.192451
0.198961
0.19968
0.180496
0.154503
0.145323
0.140663
0.138851
0.139561
0.143629
0.145407
0.145166
0.142326
0.136651
0.130339
0.125788
0.122489
0.120033
0.117021
0.11496
0.114628
0.114811
0.115493
0.117001
0.119923
0.125633
0.135807
0.143738
0.145882
0.145738
0.142328
0.138645
0.138018
0.139878
0.149134
0.172738
0.191981
0.19445
0.190301
0.182796
0.182482
0.190224
0.195939
0.194464
0.188031
0.175094
0.173438
0.178338
0.199888
0.213743
0.218207
0.220255
0.219433
0.214885
0.213429
0.207766
0.20674
0.206271
0.199323
0.177977
0.153348
0.143956
0.142719
0.142741
0.144588
0.152283
0.159581
0.180083
0.203939
0.213992
0.220661
0.230633
0.251634
0.279765
0.292845
0.301282
0.329478
0.447317
0.942267
1.29781
1.28707
1.01405
0.811867
0.638562
0.498962
0.442705
0.405964
0.384473
0.376716
0.36408
0.332887
0.307464
0.297803
0.287846
0.283752
0.285141
0.279396
0.272172
0.262478
0.259435
0.278565
0.298181
0.280799
0.284617
0.315648
0.344587
0.426864
0.525192
0.532465
0.513146
0.447803
0.429538
0.444646
0.452302
0.465568
0.578369
0.610041
0.58347
0.601115
0.669913
0.721702
0.793367
0.75348
0.742394
0.826173
0.863264
0.906623
1.0245
0.998673
0.994402
1.09356
1.13138
1.16023
1.29296
1.37459
1.36608
1.38305
1.41886
1.60903
1.68738
1.71246
1.99824
3.07849
3.4792
2.82909
1.93113
1.67943
1.65571
1.37881
1.20867
1.15361
0.977081
0.899246
0.946397
1.01546
0.917133
0.859904
0.912657
0.874978
0.92234
0.917282
0.958028
0.968508
1.02555
1.23299
1.28374
1.39803
1.40908
1.37616
1.45489
1.61749
1.61828
11.9286
3.8085
1.10772
0.29702
0.177256
0.188959
0.201547
0.195706
0.186618
0.18457
0.185031
0.17475
0.14835
0.133784
0.130362
0.131273
0.135996
0.143631
0.14704
0.147374
0.145006
0.140228
0.134276
0.129073
0.124669
0.121669
0.118916
0.116143
0.115252
0.115158
0.115508
0.11648
0.117792
0.12032
0.125537
0.135056
0.143981
0.145651
0.144568
0.140043
0.137352
0.137091
0.140392
0.151644
0.177319
0.188832
0.189169
0.181599
0.176039
0.175682
0.177993
0.177707
0.174664
0.167902
0.165677
0.169524
0.188043
0.211497
0.220089
0.223731
0.222888
0.212488
0.209669
0.207443
0.204728
0.201822
0.191319
0.16714
0.144655
0.137051
0.13736
0.140681
0.142319
0.150888
0.157448
0.167353
0.190461
0.204602
0.215828
0.234097
0.271543
0.303702
0.317707
0.330091
0.364876
0.50141
0.982546
1.23168
1.16528
0.838609
0.660394
0.556789
0.453172
0.401915
0.376517
0.369133
0.367389
0.344939
0.306619
0.290758
0.28542
0.276655
0.268598
0.258689
0.249925
0.261747
0.253321
0.240781
0.251964
0.281391
0.266801
0.265181
0.297038
0.325842
0.40205
0.504267
0.509678
0.485494
0.432815
0.420613
0.427062
0.435911
0.449237
0.519185
0.58811
0.513702
0.551461
0.670972
0.698398
0.693843
0.663895
0.659395
0.69321
0.711769
0.764839
0.918034
0.923176
0.914216
0.967665
1.02257
1.03326
1.13307
1.26673
1.2698
1.29018
1.31215
1.47977
1.60712
1.62615
1.8718
2.89142
3.22363
2.6257
1.87064
1.63732
1.61306
1.37052
1.17325
1.1155
0.953968
0.899348
0.906546
0.957781
0.877217
0.828035
0.845794
0.832558
0.86265
0.847901
0.868327
0.897331
1.01109
1.23644
1.35328
1.47928
1.4522
1.38108
1.431
1.64458
1.65999
13.8344
4.32444
1.37692
0.425382
0.19017
0.171239
0.184442
0.19455
0.188934
0.181801
0.179282
0.174156
0.154532
0.134075
0.125454
0.123401
0.125236
0.132353
0.141445
0.144515
0.144347
0.141646
0.137019
0.133288
0.128269
0.123651
0.121084
0.119069
0.118103
0.118046
0.118627
0.119587
0.120726
0.122515
0.125795
0.133375
0.145181
0.149386
0.149837
0.146346
0.139898
0.138052
0.138438
0.145083
0.164912
0.184643
0.186702
0.181933
0.174651
0.173184
0.173299
0.172923
0.167257
0.163227
0.163064
0.166655
0.181693
0.211065
0.218608
0.21854
0.218025
0.205656
0.200975
0.199826
0.197002
0.189678
0.175412
0.154277
0.138784
0.130973
0.129812
0.133965
0.138565
0.151002
0.157898
0.164353
0.181136
0.198954
0.215912
0.250005
0.319801
0.368681
0.392342
0.406264
0.442805
0.591623
0.990575
1.16134
1.07482
0.733059
0.561336
0.491556
0.418854
0.375109
0.360091
0.36297
0.365113
0.340975
0.295334
0.282902
0.272698
0.267118
0.260416
0.241482
0.233336
0.235819
0.235427
0.230242
0.239215
0.260095
0.249469
0.250485
0.280781
0.308591
0.3929
0.487828
0.497316
0.467223
0.428053
0.415069
0.417068
0.427321
0.442221
0.494774
0.517926
0.473546
0.531583
0.66577
0.626253
0.521125
0.537881
0.553692
0.549902
0.587548
0.665512
0.800822
0.824797
0.8087
0.831169
0.878917
0.908716
0.982192
1.13105
1.15109
1.19916
1.22151
1.37054
1.52729
1.53994
1.7205
2.63569
2.99192
2.51334
1.84214
1.60919
1.54354
1.32245
1.13482
1.07176
0.935445
0.885108
0.908022
0.925522
0.835675
0.797634
0.811874
0.794949
0.796804
0.786154
0.809478
0.870064
1.09202
1.40058
1.48579
1.50602
1.4991
1.42942
1.45396
1.68042
1.68916
16.0498
4.6503
1.44997
0.579044
0.23921
0.181309
0.182767
0.192527
0.191991
0.186748
0.181234
0.176583
0.166045
0.146778
0.13222
0.125141
0.123213
0.124127
0.128164
0.133641
0.136719
0.137341
0.136849
0.135714
0.132771
0.129012
0.127335
0.12653
0.12634
0.12758
0.130651
0.134361
0.136292
0.137157
0.138222
0.141905
0.151342
0.156222
0.155618
0.150185
0.142279
0.138728
0.138162
0.141027
0.153121
0.170963
0.174229
0.172607
0.171548
0.171382
0.171105
0.171383
0.167087
0.162841
0.161801
0.165267
0.172732
0.192976
0.202159
0.198957
0.193088
0.191953
0.192565
0.189934
0.182302
0.163406
0.143314
0.132709
0.127143
0.122657
0.121538
0.125337
0.133947
0.150748
0.157933
0.163764
0.174951
0.194998
0.217775
0.27279
0.360317
0.436079
0.485173
0.513598
0.560634
0.714882
0.978259
1.05646
0.969751
0.654896
0.496471
0.438508
0.385524
0.353854
0.346935
0.353202
0.361802
0.342065
0.294014
0.281185
0.272229
0.2536
0.244094
0.231549
0.225511
0.226092
0.224489
0.222223
0.230803
0.244587
0.23843
0.238123
0.265233
0.298632
0.384079
0.479999
0.480422
0.463377
0.425743
0.414822
0.414033
0.427245
0.442204
0.471239
0.478309
0.460448
0.517049
0.61475
0.465957
0.413842
0.462251
0.465607
0.458399
0.535549
0.618625
0.658599
0.68413
0.719625
0.733065
0.763204
0.801538
0.875915
1.00314
1.04125
1.12093
1.14316
1.26426
1.44434
1.46999
1.58679
2.33482
2.7457
2.42149
1.8343
1.58497
1.48336
1.27415
1.11875
1.03735
0.919627
0.886411
0.905034
0.908427
0.826582
0.767006
0.793984
0.774516
0.748246
0.749641
0.784619
0.885042
1.2877
1.55007
1.51498
1.47852
1.5276
1.47613
1.51176
1.70966
1.6967
18.8431
4.79243
1.42949
0.666625
0.376216
0.284762
0.254526
0.232545
0.214891
0.19926
0.186715
0.179982
0.17654
0.168177
0.150967
0.136697
0.13056
0.128858
0.129281
0.131687
0.13502
0.137368
0.138021
0.138032
0.137855
0.13953
0.142781
0.144845
0.147435
0.1521
0.157193
0.160251
0.159396
0.154156
0.151457
0.152212
0.156512
0.15857
0.155348
0.148634
0.141643
0.138302
0.136946
0.137919
0.146351
0.159584
0.162338
0.16162
0.163819
0.167524
0.169223
0.169418
0.167374
0.162984
0.160069
0.161276
0.16542
0.166217
0.165932
0.178123
0.184346
0.185504
0.183564
0.171903
0.155096
0.137943
0.129516
0.120866
0.117589
0.116907
0.116965
0.121905
0.131165
0.148134
0.156607
0.162759
0.170884
0.191312
0.217374
0.280268
0.376327
0.464798
0.535505
0.589457
0.648006
0.783774
0.932756
0.954789
0.861974
0.581658
0.442816
0.398708
0.358615
0.333571
0.330633
0.344138
0.356137
0.341899
0.295806
0.281352
0.271902
0.248069
0.229413
0.224815
0.219958
0.215708
0.215575
0.213691
0.220449
0.231636
0.227772
0.228853
0.256327
0.290892
0.379048
0.471746
0.471389
0.456327
0.427283
0.416936
0.416622
0.428879
0.444502
0.459836
0.461033
0.451996
0.472055
0.458368
0.378944
0.371024
0.430096
0.410967
0.419863
0.528234
0.580053
0.559424
0.597315
0.682217
0.684457
0.701716
0.743602
0.800949
0.890521
0.945036
1.05469
1.07783
1.16523
1.33962
1.39257
1.47431
2.04997
2.46772
2.28754
1.83637
1.54125
1.38251
1.2188
1.10692
1.00656
0.910523
0.8925
0.913006
0.910156
0.822954
0.754901
0.77559
0.758014
0.724707
0.735977
0.783311
0.970024
1.40175
1.56414
1.47294
1.43543
1.53075
1.48442
1.54981
1.68018
1.58357
21.9649
4.73965
1.39776
0.922176
0.867936
0.796192
0.682823
0.492148
0.332825
0.248044
0.213079
0.194468
0.187427
0.183121
0.175521
0.164939
0.153297
0.14398
0.138391
0.137858
0.138567
0.141126
0.145057
0.148456
0.152802
0.159025
0.164021
0.16759
0.170334
0.171437
0.170454
0.167817
0.164451
0.158751
0.15521
0.155654
0.158734
0.158277
0.15052
0.140656
0.138497
0.13833
0.137266
0.137497
0.142835
0.150496
0.154377
0.159509
0.162191
0.163463
0.16681
0.168506
0.167481
0.162883
0.15715
0.151665
0.14851
0.147471
0.158287
0.173996
0.181689
0.179516
0.171564
0.151318
0.13816
0.13263
0.125104
0.116138
0.112547
0.112638
0.112822
0.118282
0.129235
0.143011
0.152747
0.159492
0.166752
0.184876
0.214107
0.280804
0.381102
0.473826
0.558521
0.632377
0.698957
0.808833
0.892979
0.891704
0.804535
0.558448
0.421302
0.372721
0.342019
0.316969
0.312452
0.328712
0.345041
0.336222
0.296032
0.281097
0.27025
0.245251
0.225402
0.218847
0.213634
0.20984
0.206378
0.206652
0.217044
0.229155
0.225328
0.225696
0.250938
0.287168
0.376999
0.462204
0.467734
0.457189
0.436636
0.426389
0.427516
0.439737
0.450349
0.458037
0.459908
0.45175
0.426912
0.381693
0.349847
0.351896
0.413267
0.392311
0.415085
0.542134
0.562129
0.519724
0.573962
0.674718
0.660371
0.668392
0.712285
0.754336
0.808884
0.8682
1.00078
1.02804
1.09167
1.23781
1.31927
1.3876
1.81763
2.19953
2.12598
1.82879
1.49229
1.26158
1.1415
1.07275
0.963991