/*--------------------------------*- C++ -*----------------------------------*\
| =========                 |                                                 |
| \\      /  F ield         | OpenFOAM: The Open Source CFD Toolbox           |
|  \\    /   O peration     | Version:  dev                                   |
|   \\  /    A nd           | Web:      http://www.openfoam.org               |
|    \\/     M anipulation  |                                                 |
\*---------------------------------------------------------------------------*/
FoamFile
{
    version     2.0;
    format      ascii;
    class       volScalarField;
    object      muSgs;
    location    "9.132";
}
// * * * * * * * * * * * * * * * * * * * * * * * * * * * * * * * * * * * * * //

dimensions      [1 -1 -1 0 0 0 0];

internalField   nonuniform List<scalar> 
12225
(
0.000234163
0.000252959
0.000204
0.000231902
0.000212388
0.000274547
0.000259293
0.000325674
0.000308281
0.00037552
0.000357133
0.000429235
0.000415781
0.000477694
0.000522873
0.000606332
0.000659087
0.000800134
9.00175e-05
0.000195022
0.000178343
0.000200212
0.000172313
0.000194372
0.000180859
0.000196287
0.000187481
0.000195451
0.000188933
0.000192353
0.000188885
0.000183719
0.000195908
0.000195433
0.000183573
0.000251131
2.68164e-05
0.000120286
0.000125824
0.000162706
0.000145995
0.00016
0.000148884
0.000149987
0.000145905
0.000138887
0.000137599
0.000129041
0.000127305
0.000113654
0.000114305
0.000108349
0.00012131
0.000165215
1.34067e-05
6.21964e-05
7.06919e-05
9.55204e-05
0.000103615
0.000102771
0.000109284
9.95337e-05
0.000102041
9.22358e-05
9.1719e-05
8.44732e-05
8.35906e-05
7.82922e-05
7.80191e-05
8.70427e-05
0.000137577
0.000207257
4.90828e-06
2.89457e-05
3.74542e-05
4.93116e-05
7.11124e-05
7.12064e-05
7.57405e-05
7.01723e-05
7.20605e-05
6.65239e-05
6.63399e-05
6.26487e-05
6.4448e-05
6.45261e-05
7.07078e-05
8.65976e-05
0.00014149
0.000260291
8.39077e-06
3.55325e-05
3.66861e-05
4.70029e-05
5.20864e-05
5.31315e-05
5.59715e-05
5.24297e-05
5.41418e-05
5.14632e-05
5.17535e-05
5.20783e-05
5.37401e-05
5.75339e-05
7.04301e-05
9.08607e-05
0.000137654
0.000280478
7.12045e-06
2.16379e-05
3.0969e-05
3.21826e-05
3.59596e-05
3.69552e-05
4.11841e-05
3.94523e-05
4.19367e-05
4.06896e-05
4.14937e-05
4.27969e-05
4.60616e-05
5.18286e-05
6.05971e-05
8.53161e-05
0.000128314
0.000280492
3.45499e-06
8.8301e-06
1.75505e-05
1.95037e-05
2.35854e-05
2.50626e-05
2.87117e-05
2.87652e-05
3.05024e-05
3.04603e-05
3.13614e-05
3.20169e-05
3.49449e-05
3.58622e-05
3.71994e-05
5.08692e-05
9.11765e-05
0.000183278
5.73233e-06
9.36595e-06
1.51085e-05
1.96954e-05
2.37364e-05
2.65363e-05
2.92791e-05
3.00089e-05
3.15384e-05
3.19671e-05
3.23164e-05
3.30134e-05
3.39722e-05
3.44583e-05
3.63054e-05
3.91898e-05
8.63152e-05
0.000106537
5.87726e-06
1.47941e-05
1.72975e-05
2.52104e-05
2.74256e-05
3.21276e-05
3.32016e-05
3.52805e-05
3.52836e-05
3.5712e-05
3.57925e-05
3.58267e-05
3.68454e-05
3.69904e-05
3.81285e-05
3.9406e-05
6.19186e-05
7.57839e-05
7.33534e-06
1.88491e-05
2.24636e-05
3.39862e-05
3.66715e-05
4.23664e-05
4.28322e-05
4.41209e-05
4.31949e-05
4.30361e-05
4.23176e-05
4.18271e-05
4.1255e-05
4.06798e-05
4.06118e-05
4.10087e-05
4.74217e-05
5.10761e-05
1.07979e-05
2.78087e-05
3.31436e-05
4.76744e-05
5.11398e-05
5.73203e-05
5.72554e-05
5.78731e-05
5.63523e-05
5.54786e-05
5.36714e-05
5.21135e-05
5.00277e-05
4.86537e-05
4.68032e-05
4.54721e-05
4.55808e-05
4.64541e-05
1.84333e-05
4.38997e-05
5.11688e-05
6.79074e-05
7.17162e-05
7.72163e-05
7.62555e-05
7.55069e-05
7.35266e-05
7.19167e-05
6.99075e-05
6.77633e-05
6.46055e-05
6.19402e-05
5.84302e-05
5.43243e-05
5.1368e-05
4.97492e-05
3.98197e-05
7.1029e-05
7.83865e-05
9.21584e-05
9.5178e-05
9.96456e-05
9.82966e-05
9.69378e-05
9.47442e-05
9.257e-05
8.9782e-05
8.66903e-05
8.19529e-05
7.79169e-05
7.3607e-05
6.95389e-05
6.50309e-05
6.1379e-05
7.44378e-05
9.95613e-05
0.000111528
0.000125598
0.000130169
0.000132756
0.000130947
0.000128404
0.00012507
0.000120484
0.000114288
0.000108305
0.000101928
9.6019e-05
8.99309e-05
8.44973e-05
7.89594e-05
7.43878e-05
0.000112004
0.000136821
0.000150355
0.000158141
0.000159731
0.000158071
0.000154703
0.000150651
0.000144905
0.000137622
0.000130064
0.000122704
0.000115208
0.00010813
0.00010097
9.45572e-05
8.80118e-05
8.26249e-05
0.000133866
0.000156429
0.000170378
0.000176862
0.00017746
0.000174495
0.000170529
0.000165773
0.000158837
0.000150441
0.000142004
0.000133779
0.000125489
0.000117619
0.000109692
0.000102549
9.53234e-05
8.93441e-05
0.000133196
0.00015523
0.00016956
0.00017619
0.000176859
0.00017395
0.000169959
0.000165214
0.000158235
0.000149767
0.000141304
0.000133067
0.000124792
0.000116955
0.000109045
0.000101915
9.47034e-05
8.87053e-05
0.000108695
0.000131976
0.000147644
0.000155944
0.000158264
0.000156664
0.000153282
0.000149309
0.00014371
0.000136261
0.000128631
0.000121215
0.000113725
0.000106701
9.95162e-05
9.29882e-05
8.63324e-05
8.0806e-05
7.66764e-05
9.38753e-05
0.0001109
0.000123011
0.000129198
0.000130448
0.000128551
0.000125673
0.000122295
0.000117298
0.000110983
0.000104915
9.87287e-05
9.29199e-05
8.6827e-05
8.11109e-05
7.51649e-05
7.01707e-05
5.79669e-05
7.12096e-05
8.26016e-05
9.08798e-05
9.54036e-05
9.62894e-05
9.5016e-05
9.29808e-05
9.0856e-05
8.84831e-05
8.48621e-05
8.09002e-05
7.67484e-05
7.26579e-05
6.81562e-05
6.3707e-05
5.88516e-05
5.4737e-05
4.11248e-05
4.84265e-05
5.67288e-05
6.45993e-05
7.02606e-05
7.27701e-05
7.27674e-05
7.13002e-05
6.94397e-05
6.68486e-05
6.35569e-05
6.03699e-05
5.71672e-05
5.44497e-05
5.1676e-05
4.92974e-05
4.66805e-05
4.46007e-05
2.54825e-05
3.16608e-05
3.72445e-05
4.42029e-05
4.9402e-05
5.17048e-05
5.18485e-05
5.11173e-05
5.0357e-05
4.96571e-05
4.90715e-05
4.8327e-05
4.7342e-05
4.62017e-05
4.47702e-05
4.34857e-05
4.19223e-05
4.05799e-05
1.62778e-05
2.21157e-05
2.66085e-05
2.94802e-05
3.33081e-05
3.6849e-05
3.95994e-05
4.14226e-05
4.26105e-05
4.33675e-05
4.38405e-05
4.39588e-05
4.3585e-05
4.28494e-05
4.19673e-05
4.10116e-05
3.98713e-05
3.88677e-05
8.90306e-06
1.2779e-05
1.7162e-05
2.25303e-05
2.78092e-05
3.26931e-05
3.67084e-05
3.94558e-05
4.15002e-05
4.31756e-05
4.44548e-05
4.50802e-05
4.52392e-05
4.49223e-05
4.4334e-05
4.36203e-05
4.2875e-05
4.23365e-05
4.19077e-06
9.95778e-06
1.71275e-05
2.67048e-05
3.54143e-05
4.27103e-05
4.84555e-05
5.18586e-05
5.41351e-05
5.59444e-05
5.71898e-05
5.75435e-05
5.76339e-05
5.72843e-05
5.66993e-05
5.61452e-05
5.55312e-05
5.52734e-05
5.97644e-06
2.22422e-05
4.03395e-05
5.86735e-05
6.96963e-05
7.69918e-05
8.19711e-05
8.43302e-05
8.55258e-05
8.62548e-05
8.62044e-05
8.54729e-05
8.46554e-05
8.35951e-05
8.24007e-05
8.13055e-05
8.02626e-05
7.85792e-05
2.1077e-05
6.4099e-05
0.000100689
0.000123983
0.000133209
0.000134822
0.000134837
0.000133991
0.000132758
0.000131166
0.000128813
0.000126197
0.00012336
0.000120354
0.000117116
0.000113557
0.000110001
0.000105567
8.40873e-05
0.000167092
0.000194151
0.000196817
0.000193238
0.00018926
0.000184872
0.000180384
0.000176659
0.000173275
0.000169965
0.000166434
0.000162705
0.000158807
0.000154375
0.000149325
0.000144301
0.000137161
0.000237693
0.000275306
0.000256035
0.000228982
0.000219783
0.000219787
0.000225908
0.000233081
0.000239066
0.000243458
0.000246186
0.000247253
0.000246751
0.000245001
0.000241996
0.00023697
0.000230778
0.000222159
3.26699e-05
2.98487e-05
2.75767e-05
2.77641e-05
2.8847e-05
3.09747e-05
3.36525e-05
3.69151e-05
4.05639e-05
4.46712e-05
4.91499e-05
5.36432e-05
5.83005e-05
6.301e-05
6.77519e-05
7.32295e-05
7.92916e-05
8.59758e-05
9.32496e-05
0.00010065
0.000111007
0.000125166
0.000140597
0.000157036
0.000174742
0.000192537
0.000208593
0.000222222
0.000234011
0.000244537
0.000253927
0.000262149
0.000269443
0.000276067
0.000282017
0.000287486
0.000292502
0.000297236
0.000301903
0.000306204
0.000310289
0.000314607
0.000319007
0.00032347
0.000327636
0.000332429
0.000337482
0.000341901
0.000345916
0.000349724
0.000353446
0.000357006
0.000360549
0.000364012
0.000367431
0.000370208
0.000373471
0.000376831
0.000378836
0.000380083
0.000380896
0.000381976
0.000384138
0.000386396
0.000387897
0.000388214
0.000387505
0.000386437
0.000386009
0.000386876
0.000388876
0.000390508
0.000391018
0.000390987
0.000390058
0.000388482
0.000386461
0.000383987
0.000380094
0.000375335
0.000369324
0.000360775
0.00034761
0.000331729
0.000323893
0.000320979
0.000319242
0.000315739
0.000313916
0.000315229
0.000315658
0.000306108
0.000287161
0.000275974
0.000266533
0.000256645
0.000260099
0.000292326
0.000323982
0.000334995
0.000336844
0.000334525
0.000335095
0.000338759
0.000350315
0.000359128
0.000358443
0.000343099
0.000315811
0.000281865
0.000243206
0.000208933
0.000183559
0.000183302
0.000183318
0.000180399
0.000182909
0.000191808
0.000203072
0.000216867
0.000233984
0.000257966
0.000283811
0.000310889
0.000335971
0.000358013
0.000378128
0.000399745
0.000419997
0.000435341
0.000445326
0.000450046
0.000451955
0.000452676
0.000454377
0.000457377
0.000461067
0.000464693
0.000469387
0.000474861
0.000482096
0.000489419
0.000493806
0.000495689
0.000495706
0.000491953
0.000483269
0.000465107
0.000438394
0.000408849
0.000390172
0.000382543
0.000381884
0.000374903
0.000374137
0.000414379
0.000460908
0.000474166
0.000472051
0.000471439
0.000496607
0.000514909
0.000515784
0.000501974
0.000456204
0.000467895
0.000515762
0.000562237
0.0006214
0.000658498
0.000674374
0.000680859
0.000684106
0.00068043
0.000673977
0.000658598
0.000644652
0.000630393
0.000613043
0.000592717
6.27633e-05
4.59148e-05
3.24424e-05
2.82866e-05
2.81511e-05
2.91888e-05
3.15845e-05
3.45734e-05
3.67977e-05
3.886e-05
4.06027e-05
4.38424e-05
4.92298e-05
5.33161e-05
5.69031e-05
6.42593e-05
7.52589e-05
8.55862e-05
9.70504e-05
0.000108029
0.000118209
0.000128568
0.000137403
0.000144317
0.000147951
0.000149035
0.000148482
0.000144913
0.000140332
0.000135301
0.000129793
0.000124465
0.000119703
0.000114885
0.000110955
0.000107796
0.000105157
0.000102411
0.000100844
9.92386e-05
9.87773e-05
9.90794e-05
9.97911e-05
0.000101167
0.00010333
0.000106493
0.000108354
0.000109437
0.000110182
0.000111084
0.00011235
0.000114044
0.000116524
0.000118999
0.000122027
0.00012568
0.000132097
0.000135577
0.000136345
0.000136002
0.000135999
0.000137825
0.000142984
0.00015081
0.000155966
0.000157746
0.000157667
0.000155027
0.000154388
0.000156058
0.000160954
0.000169098
0.000177887
0.000182765
0.000186219
0.000189156
0.00019397
0.000202336
0.000214243
0.000222847
0.000226701
0.000226239
0.000216039
0.000187825
0.000169677
0.000166423
0.000166792
0.000165221
0.000165749
0.000169426
0.00017832
0.000194787
0.000208745
0.000231146
0.000259571
0.000283554
0.000294171
0.000288645
0.00026933
0.000244874
0.000230038
0.000217069
0.000213647
0.000214695
0.000216583
0.00021356
0.000202684
0.00018706
0.000172053
0.000158895
0.000150755
0.00015039
0.000161514
0.000172829
0.000167633
0.000164855
0.000169111
0.000170174
0.000171822
0.000174421
0.000178739
0.000187356
0.000200835
0.000216304
0.000231679
0.000247688
0.000263224
0.00027956
0.000297423
0.000316014
0.000333681
0.00035135
0.00036387
0.000372651
0.000382188
0.00038857
0.000393214
0.000397833
0.00040247
0.000406482
0.000407195
0.000406224
0.000406782
0.000411127
0.000416923
0.000417074
0.000410936
0.000397343
0.000373787
0.000356436
0.000348715
0.000353605
0.000377187
0.000410835
0.000418512
0.000427665
0.000416113
0.000394952
0.000380336
0.000373399
0.000379501
0.000377273
0.000368375
0.000343491
0.00029772
0.000298498
0.000308373
0.000338007
0.00038465
0.000428482
0.000456708
0.000470588
0.0004803
0.000483909
0.000488547
0.000483536
0.000477522
0.000461839
0.000452706
0.000434755
9.09927e-05
5.85953e-05
3.5653e-05
2.87063e-05
2.82621e-05
2.99809e-05
3.41779e-05
3.93517e-05
4.13712e-05
4.30788e-05
4.51311e-05
5.01476e-05
5.816e-05
6.47476e-05
7.027e-05
7.84348e-05
8.72412e-05
9.40292e-05
0.000100633
0.000105063
0.000106588
0.00010694
0.000103779
9.99526e-05
9.49918e-05
8.89746e-05
8.24241e-05
7.59247e-05
6.98681e-05
6.40063e-05
5.95259e-05
5.55389e-05
5.27234e-05
5.02248e-05
4.86335e-05
4.76361e-05
4.67496e-05
4.58579e-05
4.53367e-05
4.49683e-05
4.49044e-05
4.50031e-05
4.52316e-05
4.57749e-05
4.6692e-05
4.76516e-05
4.80444e-05
4.82087e-05
4.82647e-05
4.8168e-05
4.82359e-05
4.8497e-05
4.90532e-05
4.9821e-05
5.10885e-05
5.32337e-05
5.61231e-05
5.71053e-05
5.72232e-05
5.69124e-05
5.70574e-05
5.80845e-05
6.07945e-05
6.50796e-05
6.77162e-05
6.82833e-05
6.80848e-05
6.60072e-05
6.54653e-05
6.62059e-05
6.89063e-05
7.43227e-05
8.28222e-05
8.80638e-05
9.06126e-05
9.31386e-05
9.72473e-05
0.00010472
0.000118688
0.000138582
0.000152137
0.000158802
0.000155647
0.000137061
0.000116976
0.000110364
0.000110362
0.00011261
0.000118649
0.000128669
0.000146181
0.000182058
0.000227271
0.000253322
0.0002618
0.000268019
0.00024628
0.000201496
0.000166653
0.000150871
0.00014251
0.00013994
0.000141275
0.000145071
0.000147872
0.00014788
0.000145447
0.000139552
0.000132514
0.000125506
0.000123167
0.000131135
0.000152914
0.000161286
0.000139245
0.000146031
0.000156719
0.000157427
0.000158192
0.000157438
0.000156457
0.000156933
0.000159254
0.000164176
0.000171233
0.000176352
0.000182307
0.000191218
0.000200153
0.00021311
0.000226491
0.000240087
0.000250882
0.00026
0.000272253
0.000283723
0.000291948
0.000298543
0.000303991
0.000310355
0.000318086
0.000321469
0.000321846
0.000324193
0.000331283
0.000338148
0.000337198
0.000329198
0.000310505
0.000303453
0.00030626
0.000342373
0.000388264
0.000411588
0.000406441
0.000365889
0.000338331
0.000319789
0.000315355
0.000320335
0.000323712
0.000302913
0.000287298
0.000269352
0.00022489
0.000222692
0.000214736
0.000224335
0.000250125
0.000285222
0.000310392
0.00032178
0.000328864
0.000337718
0.000361598
0.000380595
0.000383503
0.00037483
0.000356539
0.000339996
0.000118195
7.5799e-05
4.47139e-05
3.11623e-05
2.85558e-05
3.06246e-05
3.80797e-05
4.55143e-05
4.70796e-05
4.88337e-05
5.11851e-05
5.65779e-05
6.42782e-05
7.02724e-05
7.54881e-05
8.11871e-05
8.5123e-05
8.64017e-05
8.64642e-05
8.29168e-05
7.79008e-05
7.2391e-05
6.81014e-05
6.33351e-05
5.84117e-05
5.35152e-05
4.89467e-05
4.61047e-05
4.36937e-05
4.20986e-05
4.13704e-05
4.11251e-05
4.10899e-05
4.1183e-05
4.13938e-05
4.17434e-05
4.21441e-05
4.23597e-05
4.25053e-05
4.25404e-05
4.25011e-05
4.24529e-05
4.23466e-05
4.24407e-05
4.26539e-05
4.30169e-05
4.33999e-05
4.37862e-05
4.41814e-05
4.42695e-05
4.4288e-05
4.43118e-05
4.43664e-05
4.45253e-05
4.48828e-05
4.55279e-05
4.61748e-05
4.66413e-05
4.67557e-05
4.68572e-05
4.72936e-05
4.83598e-05
4.94472e-05
5.01267e-05
5.0402e-05
5.04278e-05
4.96042e-05
4.7943e-05
4.765e-05
4.7997e-05
4.94247e-05
5.2116e-05
5.68369e-05
6.11379e-05
6.24459e-05
6.31833e-05
6.53473e-05
6.92471e-05
7.57221e-05
8.8332e-05
0.000102121
0.000113341
0.000119935
0.000119459
0.000112677
0.000101793
0.000100198
0.000105658
0.000119297
0.000141927
0.000178297
0.000213227
0.000232449
0.000243646
0.00023493
0.00020643
0.000168779
0.000138371
0.000124564
0.000117977
0.000115724
0.000115613
0.000118072
0.000120991
0.000123287
0.000123968
0.000124884
0.000124205
0.000120976
0.000115848
0.00011415
0.00012251
0.000132155
0.000130128
0.000117393
0.000128061
0.000138979
0.0001463
0.000151041
0.000152351
0.000151228
0.000149964
0.000148015
0.000148537
0.000151502
0.000153199
0.000153763
0.000158351
0.000164303
0.000173585
0.00018607
0.000196614
0.000203089
0.000209734
0.000217368
0.000225335
0.000233872
0.000242864
0.000251336
0.000256525
0.000262506
0.000267585
0.000270172
0.000273176
0.000282508
0.000293982
0.000298057
0.000295129
0.000284516
0.000283441
0.00029777
0.000348017
0.000389824
0.000399815
0.000375222
0.000340675
0.000312917
0.000293521
0.000293563
0.000303381
0.000323103
0.000303968
0.000269496
0.000250798
0.00019231
0.000190426
0.000188726
0.000192796
0.000202502
0.000228519
0.00024757
0.000253698
0.000252288
0.000250989
0.000274578
0.000311651
0.000331325
0.000329705
0.00030802
0.000286457
0.000145285
9.32565e-05
5.45347e-05
3.47107e-05
2.99495e-05
3.24329e-05
4.08428e-05
4.77632e-05
5.01567e-05
5.27678e-05
5.63759e-05
6.15905e-05
6.70785e-05
7.04722e-05
7.2629e-05
7.36452e-05
7.30248e-05
6.83087e-05
6.41345e-05
5.91624e-05
5.47575e-05
5.1012e-05
4.80589e-05
4.49656e-05
4.26383e-05
4.0874e-05
3.97975e-05
3.94484e-05
3.93925e-05
3.95101e-05
3.98748e-05
4.03472e-05
4.08736e-05
4.13348e-05
4.17832e-05
4.22221e-05
4.28478e-05
4.34232e-05
4.38612e-05
4.42179e-05
4.44257e-05
4.45152e-05
4.42808e-05
4.35604e-05
4.27125e-05
4.24512e-05
4.2477e-05
4.26726e-05
4.31018e-05
4.40246e-05
4.4979e-05
4.54727e-05
4.5626e-05
4.57318e-05
4.56633e-05
4.55097e-05
4.54896e-05
4.55977e-05
4.60031e-05
4.67376e-05
4.76177e-05
4.90662e-05
4.99596e-05
4.99726e-05
4.9273e-05
4.87288e-05
4.79067e-05
4.65072e-05
4.60472e-05
4.59646e-05
4.63137e-05
4.71173e-05
4.89417e-05
5.204e-05
5.49863e-05
5.65399e-05
5.83561e-05
5.96832e-05
6.09633e-05
6.60456e-05
7.39338e-05
8.07829e-05
9.04894e-05
9.49289e-05
9.55536e-05
9.47686e-05
9.92146e-05
0.000113408
0.000143124
0.0001738
0.000199969
0.000213386
0.000218588
0.000198449
0.000179351
0.000160742
0.000130693
0.000114984
0.000108145
0.000104168
0.000102922
0.000102923
0.000105274
0.000109021
0.000112122
0.000113242
0.000111836
0.000106772
0.000104514
0.000103731
0.000104203
0.000108526
0.000109196
0.000108272
0.000112665
0.000122616
0.000128558
0.00013284
0.000139381
0.000141822
0.000140809
0.000140164
0.000137603
0.000136256
0.00014045
0.000143377
0.000142798
0.000142821
0.000146861
0.000152332
0.000163407
0.000177943
0.00018234
0.000186296
0.000191597
0.000196192
0.000200867
0.00020673
0.000215887
0.000224291
0.000230205
0.00023521
0.000237637
0.000240025
0.000251021
0.000264899
0.000273023
0.000275208
0.000271736
0.000274878
0.000298295
0.000359076
0.000388066
0.000372118
0.00032622
0.000277894
0.000255349
0.000243853
0.000251602
0.000266108
0.000291834
0.000296216
0.000274767
0.000236095
0.000180627
0.000171662
0.000172245
0.000178503
0.000182965
0.000206085
0.000219298
0.000226162
0.000218832
0.000209166
0.000217073
0.000261275
0.000291502
0.000304795
0.000278198
0.000249235
0.000170387
0.000104174
5.61211e-05
3.54084e-05
3.22379e-05
3.52101e-05
4.18492e-05
4.84899e-05
5.16329e-05
5.36408e-05
5.82464e-05
6.24254e-05
6.35951e-05
6.37686e-05
6.20708e-05
5.89525e-05
5.59612e-05
5.27119e-05
4.95036e-05
4.58917e-05
4.30385e-05
4.17423e-05
4.05485e-05
3.944e-05
3.87173e-05
3.84227e-05
3.84626e-05
3.86816e-05
3.91536e-05
3.95334e-05
3.98218e-05
4.0095e-05
4.03365e-05
4.04758e-05
4.06571e-05
4.08967e-05
4.13863e-05
4.22595e-05
4.32835e-05
4.41014e-05
4.47122e-05
4.52271e-05
4.53521e-05
4.52946e-05
4.47247e-05
4.35576e-05
4.25185e-05
4.22882e-05
4.22709e-05
4.259e-05
4.36337e-05
4.52494e-05
4.666e-05
4.70886e-05
4.70255e-05
4.61859e-05
4.54865e-05
4.53272e-05
4.54433e-05
4.6093e-05
4.73982e-05
4.90184e-05
5.07538e-05
5.119e-05
5.02658e-05
4.93955e-05
4.92342e-05
4.81651e-05
4.62839e-05
4.55047e-05
4.5399e-05
4.55674e-05
4.61146e-05
4.79207e-05
5.04155e-05
5.3704e-05
5.63364e-05
5.6985e-05
5.77697e-05
6.08076e-05
6.38814e-05
6.49818e-05
7.0206e-05
7.82188e-05
8.20396e-05
8.50721e-05
9.83009e-05
0.000132267
0.000161656
0.000183276
0.000199735
0.000203746
0.000182658
0.000158042
0.000145886
0.000132928
0.00011291
0.000103491
9.85748e-05
9.61074e-05
9.54094e-05
9.51283e-05
9.65393e-05
0.000102796
0.000106188
0.000107645
0.00010673
0.000100529
9.65267e-05
9.33706e-05
8.98084e-05
9.15645e-05
9.67352e-05
0.000101096
0.000110192
0.000121808
0.000123904
0.000128133
0.000127709
0.000131276
0.000127113
0.000127272
0.000127056
0.000122898
0.000126358
0.000140044
0.000139979
0.00013832
0.000140659
0.000140247
0.0001429
0.000158235
0.000170936
0.00017512
0.000178221
0.000183458
0.000188507
0.000191399
0.00019527
0.000201854
0.000207063
0.00021372
0.000218052
0.000219617
0.000229313
0.000243322
0.000253704
0.000259683
0.000263054
0.000269026
0.00030635
0.00035994
0.000373804
0.000328424
0.000270913
0.00023485
0.000221387
0.000209126
0.00020795
0.00021524
0.000230433
0.000249692
0.000265109
0.00021634
0.000174476
0.000169101
0.000168009
0.00017214
0.000173819
0.000194674
0.000209982
0.000216747
0.000213141
0.000194928
0.000188691
0.000213556
0.000259317
0.000286859
0.000260154
0.000228626
0.000192467
0.000111177
5.59383e-05
3.62524e-05
3.57547e-05
3.95591e-05
4.32111e-05
4.76406e-05
5.12971e-05
5.39431e-05
5.69367e-05
5.74559e-05
5.61088e-05
5.34987e-05
5.13579e-05
4.84076e-05
4.63994e-05
4.42098e-05
4.22463e-05
4.04723e-05
3.94369e-05
3.89866e-05
3.8487e-05
3.78328e-05
3.76148e-05
3.77249e-05
3.8023e-05
3.8258e-05
3.83408e-05
3.8108e-05
3.7428e-05
3.68196e-05
3.66784e-05
3.66349e-05
3.67109e-05
3.68999e-05
3.73016e-05
3.80587e-05
3.91965e-05
4.05318e-05
4.19298e-05
4.33895e-05
4.46078e-05
4.5433e-05
4.57226e-05
4.56877e-05
4.46809e-05
4.31513e-05
4.28032e-05
4.27745e-05
4.33076e-05
4.48447e-05
4.69916e-05
4.89404e-05
4.93371e-05
4.92202e-05
4.7698e-05
4.55305e-05
4.49734e-05
4.50304e-05
4.57723e-05
4.6896e-05
4.86715e-05
5.01894e-05
5.01887e-05
4.91564e-05
4.9292e-05
4.95146e-05
4.76413e-05
4.51615e-05
4.42479e-05
4.43915e-05
4.51973e-05
4.63425e-05
4.76698e-05
5.0844e-05
5.39856e-05
5.52374e-05
5.63156e-05
5.77343e-05
5.78906e-05
5.82588e-05
6.23965e-05
7.01153e-05
7.4909e-05
8.04873e-05
0.000100589
0.000145261
0.000168397
0.000182205
0.000189792
0.000176085
0.000143894
0.000129073
0.000121651
0.000111275
9.74039e-05
9.20233e-05
8.88314e-05
8.72413e-05
8.56091e-05
8.45617e-05
8.42721e-05
8.70428e-05
9.15985e-05
9.64494e-05
9.91872e-05
9.64446e-05
9.32142e-05
8.65427e-05
8.0934e-05
8.4771e-05
9.23412e-05
9.55678e-05
0.000105564
0.000115862
0.000112024
0.000119489
0.000114313
0.000114397
0.000115314
0.000111737
0.000116758
0.000115494
0.0001152
0.000134248
0.000137092
0.000133596
0.000135783
0.000135566
0.000133334
0.000139448
0.000155353
0.000164608
0.000169157
0.000174577
0.000182087
0.000187019
0.000187942
0.000189863
0.000192528
0.000198999
0.000204586
0.000205115
0.000210806
0.000224484
0.00023661
0.000246449
0.000253915
0.000263755
0.000311534
0.000359719
0.000353734
0.000290322
0.000242125
0.000228626
0.000220257
0.000203839
0.000196087
0.000182825
0.000185205
0.000221162
0.00023823
0.000203117
0.000159003
0.000156786
0.000161579
0.000168069
0.000167452
0.000182332
0.000203082
0.00021107
0.000216001
0.000200713
0.000185746
0.000189752
0.000225297
0.000268797
0.000253384
0.000228603
0.000212893
0.000120428
5.76705e-05
3.8138e-05
3.85033e-05
4.10623e-05
4.28291e-05
4.62314e-05
4.94961e-05
5.13918e-05
5.22575e-05
5.22993e-05
5.0109e-05
4.69409e-05
4.45337e-05
4.16377e-05
4.07437e-05
4.01976e-05
3.94191e-05
3.87174e-05
3.8149e-05
3.77711e-05
3.72441e-05
3.68917e-05
3.68692e-05
3.69858e-05
3.68154e-05
3.62171e-05
3.55041e-05
3.52869e-05
3.52705e-05
3.53855e-05
3.56386e-05
3.58385e-05
3.59452e-05
3.60591e-05
3.63362e-05
3.68392e-05
3.77292e-05
3.90411e-05
4.06285e-05
4.21746e-05
4.32288e-05
4.39461e-05
4.47996e-05
4.58375e-05
4.6238e-05
4.59984e-05
4.45376e-05
4.36784e-05
4.3723e-05
4.43066e-05
4.61926e-05
4.87783e-05
5.03728e-05
5.08061e-05
5.05012e-05
4.83113e-05
4.61559e-05
4.55124e-05
4.5638e-05
4.64479e-05
4.7078e-05
4.86143e-05
4.93364e-05
4.84421e-05
4.81361e-05
4.84731e-05
4.73549e-05
4.52783e-05
4.43488e-05
4.39191e-05
4.42909e-05
4.47963e-05
4.58619e-05
4.96295e-05
5.29249e-05
5.4443e-05
5.56606e-05
5.66898e-05
5.71331e-05
5.88447e-05
6.23416e-05
6.60538e-05
6.90655e-05
7.74972e-05
0.000106476
0.000152189
0.000168026
0.000175936
0.00017014
0.000145833
0.000119263
0.000110261
0.00010424
9.54552e-05
8.79284e-05
8.55525e-05
8.37322e-05
8.16673e-05
7.9695e-05
7.96129e-05
7.95342e-05
7.93978e-05
7.91091e-05
8.09009e-05
9.02284e-05
9.41335e-05
9.20372e-05
8.26553e-05
7.78906e-05
8.14914e-05
8.90929e-05
9.42372e-05
0.000101527
0.000108944
0.000106382
0.000107604
0.000106182
0.000100212
0.000102068
9.99258e-05
0.000106706
0.000112976
0.00011137
0.000130973
0.000133786
0.000129334
0.000128074
0.000130805
0.000129927
0.000130765
0.000144076
0.000153443
0.000160362
0.00016443
0.000170282
0.000177907
0.000182726
0.000185918
0.000186574
0.000190764
0.000195866
0.000195465
0.000195653
0.000207841
0.000222046
0.000234486
0.000245611
0.000258733
0.00031231
0.000352713
0.000334756
0.000263346
0.00022666
0.000222927
0.000206144
0.000189161
0.000178498
0.000164344
0.00017112
0.0001834
0.000197096
0.000180899
0.000151758
0.000152971
0.000152593
0.000159262
0.000160297
0.000173173
0.000193113
0.000201083
0.000211826
0.000204885
0.0001872
0.000183922
0.000195481
0.000248542
0.000245948
0.000230338
0.000232159
0.000130109
6.14913e-05
3.9816e-05
3.92295e-05
4.0894e-05
4.13559e-05
4.21214e-05
4.45298e-05
4.67028e-05
4.73088e-05
4.66753e-05
4.40913e-05
4.11165e-05
3.93238e-05
3.78955e-05
3.80906e-05
3.84655e-05
3.86718e-05
3.82955e-05
3.76209e-05
3.7111e-05
3.64551e-05
3.59431e-05
3.56394e-05
3.52345e-05
3.45571e-05
3.39651e-05
3.38736e-05
3.39728e-05
3.43137e-05
3.50573e-05
3.58389e-05
3.63619e-05
3.66135e-05
3.6642e-05
3.66742e-05
3.6915e-05
3.75047e-05
3.85869e-05
4.03674e-05
4.23697e-05
4.3757e-05
4.41458e-05
4.4253e-05
4.447e-05
4.53555e-05
4.63821e-05
4.67118e-05
4.64111e-05
4.54234e-05
4.48551e-05
4.49627e-05
4.57189e-05
4.80687e-05
4.9699e-05
5.01865e-05
4.94322e-05
4.77788e-05
4.72485e-05
4.70629e-05
4.74722e-05
4.78687e-05
4.81721e-05
4.93159e-05
4.93215e-05
4.79605e-05
4.60969e-05
4.38545e-05
4.35799e-05
4.40989e-05
4.34994e-05
4.30547e-05
4.35339e-05
4.53338e-05
5.00142e-05
5.3372e-05
5.48225e-05
5.56868e-05
5.63252e-05
5.69931e-05
5.86338e-05
6.10442e-05
6.31062e-05
6.6337e-05
7.69893e-05
0.00011146
0.000153198
0.000165422
0.000163777
0.000152167
0.000125773
0.000106935
0.000100751
9.55066e-05
8.73051e-05
8.28653e-05
8.1369e-05
7.96617e-05
7.70507e-05
7.63604e-05
7.74953e-05
7.69499e-05
7.57733e-05
7.38772e-05
7.22516e-05
7.69425e-05
8.65492e-05
8.82602e-05
7.9884e-05
7.46044e-05
7.64994e-05
8.37301e-05
8.66844e-05
9.30412e-05
0.000102418
0.00010373
0.000101547
9.79686e-05
9.4913e-05
9.58159e-05
9.66514e-05
0.000103463
0.000109219
0.000110694
0.000121969
0.000131415
0.000123407
0.000123486
0.000129877
0.000127802
0.000126892
0.000138701
0.000143974
0.000148699
0.000154744
0.00015904
0.000163809
0.000172319
0.000177886
0.000179918
0.000185716
0.000191205
0.000190473
0.00018545
0.000193164
0.000210025
0.000223907
0.000237709
0.000254008
0.000312264
0.000343199
0.000314068
0.000242204
0.000215148
0.000214102
0.000190949
0.000182935
0.000173507
0.000165315
0.000167578
0.000157631
0.000175945
0.000162719
0.000142399
0.000150254
0.000148249
0.000151777
0.000151525
0.000165077
0.000172314
0.000180491
0.000196196
0.000195279
0.000181727
0.000182021
0.000178723
0.00022087
0.000227798
0.000226101
0.000251584
0.000142936
6.92144e-05
4.13318e-05
3.95501e-05
4.07596e-05
4.08173e-05
4.02959e-05
4.10354e-05
4.21438e-05
4.25668e-05
4.10979e-05
3.88468e-05
3.7451e-05
3.62075e-05
3.58489e-05
3.62354e-05
3.66111e-05
3.67398e-05
3.67185e-05
3.62971e-05
3.55508e-05
3.47654e-05
3.44227e-05
3.42491e-05
3.39366e-05
3.3359e-05
3.3076e-05
3.30773e-05
3.32539e-05
3.368e-05
3.44492e-05
3.55611e-05
3.67769e-05
3.7618e-05
3.7827e-05
3.77232e-05
3.73508e-05
3.7288e-05
3.75645e-05
3.84888e-05
4.02993e-05
4.33722e-05
4.49381e-05
4.51246e-05
4.47452e-05
4.43593e-05
4.46685e-05
4.5903e-05
4.63246e-05
4.62798e-05
4.5519e-05
4.47251e-05
4.44092e-05
4.5027e-05
4.70295e-05
4.85486e-05
4.89218e-05
4.8204e-05
4.81738e-05
4.8285e-05
4.82886e-05
4.85151e-05
4.82795e-05
4.90537e-05
4.97072e-05
4.84882e-05
4.58283e-05
4.24893e-05
4.18489e-05
4.25284e-05
4.22632e-05
4.17118e-05
4.30973e-05
4.52437e-05
4.89887e-05
5.14725e-05
5.3022e-05
5.48028e-05
5.65319e-05
5.90012e-05
6.18755e-05
6.31069e-05
6.42064e-05
6.73914e-05
7.85163e-05
0.000117614
0.000151543
0.000157424
0.000150553
0.000135828
0.000114073
9.87514e-05
9.28226e-05
8.71594e-05
8.10658e-05
7.92235e-05
7.87341e-05
7.64898e-05
7.31068e-05
7.24943e-05
7.22328e-05
7.1994e-05
7.19407e-05
7.07675e-05
6.91325e-05
6.96151e-05
7.27073e-05
7.75151e-05
7.5087e-05
7.2327e-05
7.37972e-05
8.02416e-05
8.27352e-05
9.05136e-05
9.74217e-05
9.7573e-05
9.71555e-05
9.16697e-05
9.22658e-05
9.50423e-05
9.78431e-05
0.000102191
0.000111119
0.000112493
0.000115995
0.000123427
0.000119958
0.000121446
0.000129475
0.000127486
0.000126285
0.000136399
0.000139225
0.000141207
0.000148318
0.000150459
0.00015151
0.000161913
0.000168769
0.00017125
0.000179421
0.000186126
0.000185973
0.00017931
0.000181652
0.000199407
0.000215033
0.000230006
0.00025009
0.000309869
0.000332365
0.000294823
0.000226364
0.000208033
0.000209185
0.000188128
0.000181625
0.0001737
0.00016514
0.000158064
0.000164243
0.000162066
0.000152248
0.00013679
0.000142196
0.000138218
0.000147016
0.000146437
0.000154859
0.0001563
0.000158135
0.000174053
0.000180354
0.000177114
0.000182976
0.000173781
0.000197168
0.000216086
0.000221927
0.000271845
0.000155526
7.92109e-05
4.39561e-05
3.89788e-05
4.05668e-05
4.05303e-05
3.96965e-05
3.93401e-05
3.98251e-05
3.98496e-05
3.80348e-05
3.54486e-05
3.47843e-05
3.44726e-05
3.4631e-05
3.52373e-05
3.60726e-05
3.63786e-05
3.64911e-05
3.61804e-05
3.54718e-05
3.4782e-05
3.43729e-05
3.40721e-05
3.37997e-05
3.33018e-05
3.29656e-05
3.29685e-05
3.31299e-05
3.33921e-05
3.37887e-05
3.4409e-05
3.54728e-05
3.71244e-05
3.82254e-05
3.85579e-05
3.85458e-05
3.80618e-05
3.77745e-05
3.79401e-05
3.85549e-05
4.02617e-05
4.34645e-05
4.50705e-05
4.51223e-05
4.43591e-05
4.35153e-05
4.35427e-05
4.46798e-05
4.52004e-05
4.49508e-05
4.40007e-05
4.29107e-05
4.29454e-05
4.43392e-05
4.71241e-05
4.85705e-05
4.90566e-05
4.91174e-05
4.91335e-05
4.86231e-05
4.86469e-05
4.81103e-05
4.80561e-05
4.8467e-05
4.78338e-05
4.52087e-05
4.18533e-05
4.07822e-05
4.14896e-05
4.15504e-05
4.09404e-05
4.20725e-05
4.40414e-05
4.73028e-05
5.01304e-05
5.21653e-05
5.4473e-05
5.72545e-05
6.1062e-05
6.4749e-05
6.62905e-05
6.74248e-05
7.03394e-05
8.26043e-05
0.000123633
0.000146845
0.000147401
0.000134583
0.000121146
0.000105367
9.22047e-05
8.59225e-05
8.07548e-05
7.67359e-05
7.58582e-05
7.51753e-05
7.22641e-05
6.91519e-05
6.83649e-05
6.75859e-05
6.80121e-05
6.88685e-05
6.83682e-05
6.8523e-05
6.85583e-05
6.80952e-05
6.89598e-05
7.17827e-05
7.16857e-05