/*--------------------------------*- C++ -*----------------------------------*\
| =========                 |                                                 |
| \\      /  F ield         | OpenFOAM: The Open Source CFD Toolbox           |
|  \\    /   O peration     | Version:  dev                                   |
|   \\  /    A nd           | Web:      http://www.openfoam.org               |
|    \\/     M anipulation  |                                                 |
\*---------------------------------------------------------------------------*/
FoamFile
{
    version     2.0;
    format      ascii;
    class       volScalarField;
    object      p;
    location    "9.132";
}
// * * * * * * * * * * * * * * * * * * * * * * * * * * * * * * * * * * * * * //

dimensions      [1 -1 -2 0 0 0 0];

internalField   nonuniform List<scalar> 
12225
(
105427
105312
105155
104963
104730
104477
104195
103910
103604
103301
102982
102673
102339
102032
101636
101225
100905
99553.1
105416
105305
105148
104956
104723
104470
104188
103902
103596
103293
102975
102665
102332
102023
101629
101265
100892
100103
105397
105289
105133
104941
104707
104454
104172
103886
103581
103277
102960
102647
102323
102002
101633
101277
100971
100451
105368
105262
105107
104915
104681
104427
104148
103860
103556
103251
102935
102621
102302
101977
101628
101308
101013
100536
105320
105220
105067
104875
104643
104388
104112
103820
103518
103211
102899
102582
102270
101943
101614
101314
101009
100645
105259
105160
105009
104818
104587
104331
104056
103764
103463
103156
102846
102531
102221
101899
101579
101290
100977
100692
105174
105077
104927
104736
104508
104252
103978
103687
103387
103082
102773
102460
102150
101840
101531
101253
100924
100648
105077
104983
104834
104644
104417
104163
103890
103600
103302
102998
102690
102380
102072
101767
101469
101193
100905
100588
104973
104880
104734
104544
104320
104067
103794
103507
103211
102907
102602
102295
101990
101691
101398
101117
100872
100567
104839
104745
104602
104413
104191
103939
103669
103383
103090
102788
102487
102181
101884
101592
101308
101031
100784
100532
104665
104568
104426
104240
104020
103771
103502
103219
102929
102630
102333
102033
101741
101454
101182
100916
100677
100461
104437
104335
104195
104011
103795
103548
103283
103004
102717
102423
102130
101837
101551
101272
101005
100751
100519
100308
104131
104030
103892
103711
103497
103256
102996
102721
102440
102152
101864
101579
101300
101030
100770
100524
100295
100087
103735
103632
103496
103321
103112
102877
102622
102355
102079
101799
101519
101243
100972
100710
100458
100220
99995.9
99789
103215
103120
102988
102819
102617
102390
102143
101884
101617
101347
101076
100809
100548
100295
100052
99821.1
99602.7
99397.9
102557
102470
102346
102185
101993
101775
101539
101290
101034
100776
100517
100261
100011
99769.2
99535.7
99312.3
99100.6
98900.3
101756
101674
101557
101405
101223
101018
100795
100560
100319
100074
99829.7
99587.9
99351.1
99120.8
98898.3
98684.4
98480.6
98286.9
100881
100800
100688
100546
100376
100185
99977.4
99758.6
99533.1
99304.4
99075.5
98848.6
98625.8
98408.7
98198.1
97994.9
97800.2
97614.3
100066
99988.9
99884.7
99752.4
99595.4
99417.9
99224.9
99021.1
98810.7
98596.8
98382.1
98169
97959.1
97754
97554.7
97361.6
97175.6
96997.5
99374.1
99313.1
99217.8
99094.8
98948.4
98782.6
98601.9
98410.6
98212.5
98010.7
97807.9
97606.1
97406.9
97211.6
97021.4
96836.9
96658.6
96487.1
98838.3
98772.6
98681.4
98565.6
98427.8
98271.6
98100.9
97919.7
97731.6
97539.6
97346.2
97153.6
96963
96775.7
96592.8
96415
96243
96077.2
98404
98342.9
98259
98150.1
98019.6
97871.1
97708.3
97535
97354.7
97170.5
96984.6
96799
96615.1
96434.1
96256.9
96084.5
95917.4
95756
98064.4
98014.4
97936.2
97832.4
97707.2
97564.5
97407.8
97240.5
97066.2
96888
96707.8
96527.6
96348.8
96172.6
95999.9
95831.6
95668.3
95510.3
97819.3
97770.2
97694.8
97594.6
97473.5
97335.2
97183
97020.3
96850.7
96676.9
96501
96324.8
96149.9
95977.3
95808.1
95642.9
95482.3
95327
97645.5
97593.5
97519.3
97421.3
97303.1
97168
97019.3
96860.2
96694
96523.5
96350.7
96177.5
96005.3
95835.4
95668.5
95505.5
95347.2
95193.8
97511.7
97467.8
97395.3
97298.9
97182.9
97050.2
96904
96747.4
96583.7
96415.5
96244.9
96073.8
95903.6
95735.5
95570.3
95408.9
95252
95100
97428.4
97383.5
97311.3
97216
97101.5
96970.7
96826.2
96671.4
96509.3
96342.7
96173.7
96004
95835.1
95668.2
95504.2
95343.9
95187.8
95036.7
97376
97330
97257.7
97163.3
97050.1
96920.5
96777.2
96623.5
96462.5
96296.9
96128.8
95960
95792
95625.7
95462.4
95302.7
95147.2
94996.7
97349.4
97300.3
97227.2
97133.5
97021.2
96892.5
96750
96597
96436.6
96271.5
96103.9
95935.6
95767.9
95602
95439
95279.6
95124.4
94973.8
97344.6
97288.8
97214.8
97121.3
97009.2
96880.7
96738.6
96585.9
96425.8
96261
96093.6
95925.4
95757.9
95592.1
95429.2
95269.9
95114.7
94964.1
99743.5
99744.5
99746.4
99749.4
99753.5
99758.7
99765
99772.4
99781
99790.7
99801.6
99813.8
99827.2
99841.8
99857.8
99875.2
99893.9
99913.6
99934.4
99956.6
99980.2
100005
100031
100058
100085
100113
100141
100170
100200
100230
100262
100295
100329
100365
100403
100442
100483
100527
100572
100618
100666
100715
100766
100819
100873
100928
100986
101046
101108
101173
101240
101311
101385
101463
101546
101635
101728
101828
101935
102048
102168
102295
102432
102578
102733
102898
103073
103257
103450
103653
103867
104092
104326
104570
104823
105085
105355
105633
105917
106206
106499
106791
107083
107373
107661
107951
108241
108530
108817
109099
109376
109644
109903
110146
110363
110559
110748
110902
111032
111140
111230
111304
111363
111407
111433
111438
111418
111374
111306
111215
111101
110963
110799
110598
110364
110100
109801
109468
109101
108701
108268
107802
107307
106787
106246
105688
105114
104531
103943
103382
102811
102256
101719
101201
100703
100222
99757.5
99310.7
98883.7
98478
98093.3
97729.6
97390.6
97081.9
96804.8
96555.8
96340.7
96172.9
96070.8
96064
96170.6
96389
96677.7
96991.9
97298
97587.9
97858
98102.6
98328.4
98548.7
98777.6
99000.2
99226.2
99446.4
99651.1
99834.5
100010
100179
100346
100513
100682
100855
101024
101178
101303
101384
101396
101328
101176
100941
99765.8
99766.7
99768.7
99771.7
99775.7
99780.7
99786.9
99794
99802.1
99811.4
99822
99834.1
99847.4
99861.8
99877.3
99894.1
99912.5
99932
99952.7
99974
99996.1
100019
100043
100067
100093
100120
100147
100175
100204
100234
100265
100297
100331
100367
100404
100442
100483
100526
100569
100615
100662
100710
100759
100810
100864
100919
100975
101033
101093
101157
101223
101293
101366
101442
101523
101610
101703
101802
101907
102018
102136
102263
102398
102542
102697
102861
103034
103216
103408
103608
103820
104043
104277
104519
104770
105030
105299
105576
105858
106145
106437
106731
107023
107312
107602
107892
108182
108470
108757
109040
109316
109582
109840
110084
110302
110497
110673
110826
110957
111067
111160
111238
111301
111348
111378
111387
111373
111335
111274
111191
111084
110953
110791
110593
110366
110107
109813
109487
109125
108731
108302
107842
107353
106838
106301
105746
105177
104599
104019
103449
102884
102332
101798
101284
100789
100311
99849.7
99405.7
98981.9
98580.1
98200
97840.1
97504.3
97199.4
96926.2
96680.3
96466.9
96299.7
96197.5
96193.3
96302.3
96526.3
96810.4
97114.5
97409.7
97692.4
97957.8
98197.7
98417.1
98631
98851.6
99072
99294.6
99513
99718.3
99901.2
100073
100238
100400
100563
100731
100902
101072
101226
101350
101430
101441
101372
101217
100974
99809.9
99810.9
99812.8
99815.6
99819.4
99824.2
99830.1
99837
99845
99853.9
99863.9
99875.2
99887.3
99900.5
99915.2
99931.3
99948.1
99965.6
99984
100003
100023
100044
100065
100087
100111
100135
100160
100186
100214
100242
100272
100304
100336
100371
100407
100444
100483
100524
100565
100608
100653
100700
100747
100796
100847
100900
100953
101008
101066
101126
101190
101257
101327
101401
101479
101563
101653
101750
101852
101960
102075
102199
102332
102474
102626
102787
102958
103136
103324
103521
103730
103949
104179
104419
104666
104923
105191
105465
105744
106028
106317
106611
106905
107195
107484
107774
108064
108352
108639
108920
109193
109461
109714
109950
110165
110357
110528
110677
110810
110927
111027
111112
111183
111237
111275
111292
111289
111263
111214
111144
111051
110928
110773
110584
110368
110120
109837
109523
109172
108789
108371
107922
107445
106940
106411
105864
105303
104734
104162
103596
103037
102492
101963
101454
100965
100494
100037
99601
99185.7
98792
98420.7
98070.2
97743.3
97448.2
97185.6
96948.2
96739.2
96573.7
96474.1
96475.7
96587.6
96813.5
97081.2
97367.2
97648.3
97918.7
98172.1
98400.2
98606.9
98810.3
99017
99227.6
99442.9
99657.1
99855.2
100033
100199
100356
100513
100670
100836
101007
101177
101331
101455
101533
101541
101469
101307
101050
99874.5
99875.4
99877.2
99879.9
99883.5
99888.1
99893.9
99900.5
99907.7
99915.5
99924.6
99935
99946.3
99958.4
99971.2
99984.8
99999
100014
100029
100045
100062
100080
100099
100118
100139
100160
100183
100207
100232
100258
100286
100315
100345
100377
100411
100446
100482
100520
100558
100598
100640
100683
100726
100772
100819
100868
100918
100969
101023
101080
101139
101202
101269
101339
101413
101494
101580
101671
101769
101874
101986
102106
102235
102372
102519
102677
102843
103019
103201
103393
103596
103810
104035
104271
104515
104766
105029
105301
105577
105858
106142
106431
106724
107016
107312
107603
107889
108175
108460
108738
109007
109267
109514
109743
109951
110140
110310
110463
110602
110726
110835
110930
111010
111076
111126
111158
111169
111160
111127
111073
110995
110885
110743
110571
110368
110133
109867
109569
109236
108869
108468
108037
107576
107088
106573
106036
105485
104928
104369
103814
103264
102728
102206
101705
101224
100759
100313
99884.8
99483.2
99102.4
98744.4
98408.4
98096
97817.6
97573.6
97352.1
97152.2
96990.1
96895.9
96904.6
97019.2
97230
97476.4
97741.9
98008.9
98255
98488.5
98693.5
98886
99079.1
99277.2
99474
99680.4
99882.6
100063
100230
100387
100533
100680
100831
100994
101163
101331
101484
101609
101686
101693
101613
101439
101165
99957.7
99958.6
99960.2
99962.6
99966
99970.4
99975.9
99981.9
99988.4
99995.5
100003
100012
100021
100031
100041
100052
100063
100075
100087
100100
100114
100128
100144
100160
100178
100196
100215
100235
100257
100280
100304
100330
100357
100386
100415
100447
100479
100512
100547
100583
100619
100657
100697
100738
100780
100823
100867
100913
100962
101013
101067
101125
101186
101251
101321
101397
101478
101564
101657
101757
101864
101980
102103
102236
102378
102529
102690
102860
103038
103224
103421
103627
103845
104074
104314
104562
104818
105085
105357
105635
105915
106198
106486
106779
107078
107368
107653
107939
108220
108494
108758
109008
109244
109465
109669
109858
110029
110186
110332
110466
110587
110693
110785
110865
110930
110978
111008
111017
111003
110968
110907
110816
110693
110544
110359
110142
109897
109620
109308
108963
108583
108174
107735
107269
106775
106254
105717
105174
104629
104087
103554
103032
102523
102031
101560
101103
100666
100252
99864.3
99499.4
99160.4
98842.8
98548.2
98290.8
98072.2
97875
97691.2
97537.4
97451.5
97465.2
97576.8
97765.5
97992.8
98235.5
98468.9
98670.9
98875
99051.3
99229.8
99414.9
99603.1
99792.5
99995
100173
100338
100490
100635
100769
100905
101049
101204
101368
101529
101676
101802
101881
101890
101800
101605
101313
100057
100058
100060
100062
100065
100069
100073
100079
100084
100090
100097
100103
100110
100117
100124
100131
100139
100147
100156
100166
100177
100188
100200
100212
100225
100239
100253
100269
100286
100304
100324
100346
100370
100394
100419
100445
100472
100500
100529
100559
100590
100623
100656
100691
100727
100764
100802
100842
100883
100927
100974
101024
101078
101137
101201
101270
101345
101426
101512
101605
101706
101815
101933
102061
102197
102341
102495
102659
102831
103011
103202
103402
103611
103830
104062
104304
104554
104814
105081
105354
105633
105912
106195
106486
106781
107069
107353
107637
107914
108182
108439
108680
108905
109119
109322
109510
109683
109847
110001
110148
110282
110403
110509
110603
110682
110745
110794
110824
110835
110822
110783
110716
110616
110487
110323
110133
109910
109663
109378
109061
108710
108326
107914
107471
107000
106504
105988
105463
104935
104407
103889
103387
102897
102420
101963
101520
101098
100700
100326
99975.3
99656.4
99362.2
99089.1
98853.7
98661.9
98495.1
98335.6
98198.6
98124.4
98141.7
98245.8
98411.2
98619.2
98832
99017.7
99179.3
99346.8
99491.4
99649.2
99814.3
99980.9
100171
100369
100524
100675
100807
100938
101061
101184
101320
101468
101624
101777
101915
102035
102110
102124
102024
101804
101493
100171
100172
100173
100175
100177
100181
100184
100188
100192
100197
100201
100205
100209
100213
100217
100221
100226
100231
100237
100243
100249
100256
100263
100270
100277
100285
100295
100305
100317
100331
100346
100363
100381
100399
100418
100438
100458
100480
100503
100527
100551
100576
100602
100629
100657
100687
100718
100751
100785
100821
100859
100901
100947
100998
101055
101116
101183
101256
101335
101420
101513
101615
101724
101844
101975
102111
102256
102413
102578
102752
102936
103128
103328
103540
103763
103998
104241
104493
104754
105021
105296
105573
105851
106136
106424
106708
106991
107270
107541
107801
108049
108280
108498
108709
108910
109100
109280
109455
109620
109776
109922
110059
110184
110294
110388
110468
110532
110583
110618
110632
110620
110580
110502
110396
110261
110095
109902
109682
109433
109147
108834
108482
108101
107688
107238
106768
106280
105778
105273
104767
104266
103782
103314
102856
102417
101993
101589
101211
100857
100525
100228
99957.1
99707
99494.2
99330.4
99195.8
99067.9
98955.1
98896.8
98917.4
99012.4
99160.1
99343.2
99517.7
99656.8
99786.7
99916.1
100037
100163
100290
100435
100616
100791
100937
101061
101176
101288
101397
101510
101636
101778
101925
102074
102204
102309
102373
102385
102280
102040
101710
100296
100297
100298
100299
100300
100302
100305
100307
100309
100311
100314
100315
100316
100317
100318
100319
100321
100322
100324
100326
100328
100329
100330
100331
100332
100334
100337
100342
100349
100357
100366
100377
100388
100400
100413
100426
100439
100454
100470
100486
100502
100519
100537
100554
100572
100592
100614
100638
100663
100691
100720
100752
100790
100833
100881
100934
100993
101056
101126
101203
101287
101380
101482
101591
101712
101841
101974
102121
102279
102445
102622
102806
102995
103199
103414
103641
103877
104121
104375
104637
104905
105175
105448
105724
106004
106283
106562
106837
107102
107354
107593
107818
108034
108243
108445
108638
108826
109008
109182
109344
109501
109656
109799
109928
110043
110142
110224
110292
110341
110382
110400
110384
110336
110261
110158
110021
109867
109676
109468
109219
108943
108633
108282
107904
107490
107048
106587
106114
105638
105158
104676
104212
103764
103326
102907
102509
102124
101765
101434
101129
100860
100616
100390
100199
100065
99963.1
99869.1
99786.7
99749.1
99774.7
99860.3
99992.8
100146
100276
100375
100476
100569
100675
100759
100849
100964
101113
101272
101392
101494
101591
101680
101775
101874
101990
102116
102255
102400
102521
102615
102664
102660
102552
102301
101958
100428
100428
100429
100429
100430
100431
100431
100432
100432
100432
100431
100430
100428
100426
100424
100422
100420
100418
100415
100411
100407
100402
100397
100392
100386
100382
100379
100377
100376
100377
100379
100383
100388
100393
100399
100404
100409
100416
100423
100431
100440
100447
100455
100462
100471
100480
100490
100503
100518
100535
100555
100577
100605
100638
100677
100720
100769
100823
100882
100949
101024
101107
101201
101302
101413
101533
101658
101789
101933
102089
102259
102435
102615
102809
103015
103230
103456
103693
103942
104199
104462
104725
104990
105258
105529
105800
106070
106337
106595
106841
107075
107296
107510
107718
107920
108116
108308
108496
108677
108849
109016
109178
109332
109478
109618
109745
109852
109943
109997
110065
110111
110127
110112
110070
109999
109901
109782
109638
109466
109272
109039
108776
108459
108110
107744
107341
106911
106466
106021
105567
105109
104666
104240
103822
103424
103053
102694
102358
102047
101771
101537
101320
101119
100956
100851
100783
100721
100675
100660
100696
100775
100890
101009
101102
101174
101251
101317
101399
101446
101491
101560
101681
101805
101889
101969
102041
102107
102190
102270
102371
102480
102610
102740
102856
102944
102978
102945
102826
102577
102224
100561
100561
100562
100562
100561
100561
100560
100559
100557
100555
100552
100547
100542
100537
100531
100525
100519
100512
100504
100495
100485
100474
100462
100450
100438
100426
100415
100405
100396
100389
100383
100378
100374
100370
100367
100366
100363
100360
100357
100355
100354
100353
100350
100348
100346
100345
100344
100345
100348
100354
100362
100375
100392
100415
100443
100476
100513
100556
100605
100661
100725
100797
100880
100971
101069
101180
101299
101421
101550
101692
101850
102017
102187
102369
102566
102771
102985
103214
103458
103711
103972
104233
104491
104749
105007
105263
105520
105774
106022
106261
106491
106713
106925
107133
107336
107535
107731
107925
108113
108296
108471
108639
108805
108969
109125
109277
109413
109523
109604
109689
109762
109809
109826
109820
109785
109728
109639
109544
109416
109276
109097
108877
108613
108308
107980
107610
107223
106817
106397
105970
105547
105130
104724
104334
103959
103612
103283
102978
102692
102444
102247
102054
101874
101747
101676
101637
101606
101599
101612
101662
101741
101841
101925
101983
102039
102095
102147
102193
102208
102219
102239
102324
102381
102429
102479
102522
102564
102628
102691
102774
102871
102995
103107
103222
103294
103309
103246
103115
102876
102497
100691
100691
100691
100691
100690
100688
100686
100683
100679
100675
100669
100663
100655
100646
100636
100626
100615
100602
100589
100574
100557
100540
100521
100502
100482
100463
100444
100425
100407
100391
100374
100359
100342
100328
100315
100302
100291
100279
100267
100254
100241
100230
100220
100210
100197
100184
100172
100161
100152
100146
100143
100144
100150
100161
100177
100199
100225
100257
100295
100339
100392
100453
100525
100604
100689
100785
100892
101007
101129
101257
101401
101557
101714
101883
102070
102266
102469
102686
102918
103163
103416
103672
103926
104176
104423
104666
104910
105151
105387
105619
105846
106067
106282
106493
106701
106903
107102
107297
107492
107683
107867
108049
108235
108408
108567
108727
108888
109027
109139
109238
109333
109407
109458
109488
109494
109473
109431
109373
109310
109213
109081
108906
108697
108446
108155
107821
107482
107126
106732
106339
105958
105575
105195
104837
104495
104171
103873
103601
103350
103135
102961
102807
102639
102551
102520
102507
102509
102535
102582
102650
102738
102824
102880
102905
102947
102985
103017
103036
103029
103000
102987
102984
102998
103000
103017
103027
103048
103082
103131
103195
103279
103398
103495
103596
103647
103650
103566
103432
103178
102761
100811
100812
100812
100811
100809
100807
100803
100799
100794
100787
100779
100769
100758
100746
100732
100717
100701
100683
100664
100643
100620
100596
100570
100543
100516
100489
100461
100434
100407
100380
100356
100331
100307
100283
100259
100236
100212
100187
100161
100137
100112
100089
100067
100046
100022
99997.3
99972.2
99948.8
99928.1
99910
99895.2
99884.3
99878.1
99877.2
99880.9
99889.6
99904.4
99923.7
99949.3
99982.4
100024
100073
100131
100200
100275
100358
100449
100551
100663
100781
100913
101058
101203
101357
101530
101715
101903
102105
102322
102552
102791
103036
103282
103527
103768
104004
104240
104473
104700
104925
105149
105369
105583
105798
106011
106219
106419
106617
106811
107009
107196
107385
107580
107758
107930
108101
108277
108442
108587
108705
108821
108926
109013
109076
109120
109134
109137
109124
109116
109071
108983
108861
108699
108487
108239
107969
107673
107347
106994
106654
106318
105973
105633
105311
105004
104708
104443
104206
103987
103804
103662
103540
103404
103345
103365
103372
103407
103462
103544
103637
103739
103817
103849
103858
103887
103910
103916
103914
103881
103812
103748
103687
103645
103590
103562
103538
103540
103544
103574
103622
103698
103803
103882
103949
103995
104001
103901
103751
103450
103013
100915
100916
100916
100916
100914
100911
100907
100901
100894
100885
100874
100862
100848
100832
100814
100794
100772
100749
100724
100697
100667
100636
100604
100570
100536
100501
100465
100430
100396
100360
100324
100288
100253
100218
100183
100148
100113
100077
100040
100001
99966.3
99929.1
99893.1
99858.2
99821.7
99784.1
99746.3
99709.5
99675.2
99644.1
99617.1
99594.5
99576.3
99562.9
99554.8
99550.6
99552.2
99559.5
99572.8
99592.7
99622.2
99660.4
99704.8
99758.2
99820.5
99893.1
99974.1
100062
100161
100268
100385
100520
100656
100794
100951
101123
101297
101482
101683
101897
102121
102352
102586
102821
103056
103287
103518
103746
103967
104187
104409
104627
104839
105054
105273
105486
105687
105885
106082
106282
106472
106659
106846
107037
107239
107430
107605
107786
107955
108095
108229
108364
108478
108579
108659
108717
108755
108797
108828
108835
108806
108737
108623
108460
108266
108054
107792
107494
107201
106914
106620
106312
106017
105731
105456
105193
104968
104770
104583
104430
104325
104236
104143
104108
104172
104216
104272
104358
104476
104597
104717
104789
104809
104821
104836
104846
104834
104808
104731
104645
104523
104402
104288
104186
104107
104063
104028
104006
104018
104055
104130
104192
104248
104297
104347
104343
104219
104031
103686
103259
100996
100997
100999
100999
100999
100996
100991
100984
100975
100964
100951
100936
100918
100898
100876
100852
100825
100796
100764
100731
100696
100658
100619
100579
100537
100493
100447
100401
100354
100308
100263
100218
100172
100127
100082
100037
99990.3
99942.2
99891.9
99839.1
99784.9
99733
99683.4
99636
99592.4
99543.5
99492.5
99442.3
99395
99351.6
99312.1
99276.8
99246.3
99219.7
99198.4
99182.2
99171.1
99165
99165.8
99173.9
99189.3
99214.3
99247.3
99288.9
99336.9
99394.5
99464.5
99540.3
99626.5
99722.6
99825.1
99944.7
100072
100197
100337
100496
100657
100825
101010
101209
101418
101635
101857
102080
102305
102531
102756
102977
103195
103410
103629
103849
104059
104273
104492
104711
104913
105107
105299
105497
105692
105883
106068
106274
106487
106678
106856
107051
107241
107401
107551
107708
107854
107984
108102
108199
108279
108366
108450
108507
108541
108527
108467
108364
108226
108055
107830
107589
107365
107114
106852
106586
106331
106079
105835
105611
105423
105267
105118
104999
104930
104873
104818
104825
104918
104999
105097
105196
105350
105505
105647
105714
105734
105761
105763
105760
105737
105686
105570
105446
105282
105091
104922
104775
104647
104575
104502
104460
104459
104493
104541
104557
104626
104669
104684
104641
104495
104257
103923
103496
101046
101048
101051
101054
101056
101055
101051
101043
101032
101019
101003
100985
100964
100940
100914
100885
100853
100819
100781
100741
100699
100654
100606
100556
100504
100453
100400
100347
100290
100236
100182
100126
100071
100015
99958
99900.7
99842.1
99781.2
99717.9
99652.8
99586.5
99521
99457.7
99395.2
99332.2
99271.4
99209.1
99147
99087.4
99031.7
98980.1
98932.3
98888.9
98849.8
98814.9
98785.3
98761.1
98743.2
98730.7
98725.9
98729
98740.2
98758.8
98788.1
98825.9
98870.1
98927.5
98992
99063.7
99148.2
99238
99341.9
99459.9
99573
99694.5
99838
99988
100140
100309
100492
100688
100890
101100
101313
101529
101747
101965
102182
102393
102603
102815
103041
103256
103463
103675
103890
104090
104280
104466
104658
104854
105056
105257
105461
105656
105849
106051
106256
106457
106633
106805
106981
107151
107311
107462
107590
107711
107838
107968
108082
108164
108208
108200
108150
108063
107941
107775
107596
107418
107203
106979
106772
106557
106340
106140
105968
105812
105687
105569
105487
105451
105430
105408
105458
105583
105698
105831
105959
106136
106328
106497
106571
106602
106635
106636
106611
106578
106497
106347
106184
105993
105755
105522
105324
105163
105053
104954
104890
104877
104899
104904
104931
105023
105017
104979
104905
104762
104487
104172
103706
101059
101062
101067
101074
101079
101082
101079
101072
101060
101044
101026
101006
100982
100954
100924
100891
100854
100815
100772
100726
100677
100625
100571
100514
100456
100396
100334
100272
100208
100143
100078
100011
99944.5
99876.7
99807.7
99737.5
99665.5
99591.3
99515.4
99438.3
99360.4
99282.3
99204.9
99128.4
99052.9
98979
98901.7
98826.3
98754.6
98687
98623.4
98563.7
98507
98454.6
98406.7
98364.5
98327.3
98296.5
98272.4
98254.9
98244.4
98243.4
98250
98264.9
98290.8
98322.4
98365.2
98419.7
98478.3
98549.6
98629.2
98715.9
98822.2
98928.5
99033.2
99158.9
99297.4
99434.3
99586.1
99753
99934.6
100124
100322
100527
100734
100942
101153
101366
101572
101771
101981
102206
102425
102628
102831
103035
103232
103417
103605
103798
103996
104198
104405
104595
104781
104992
105203
105399
105602
105793
105978
106175
106368
106554
106731
106893
107048
107220
107386
107545
107674
107764
107797
107800
107769
107694
107590
107464
107319
107151
106978
106836
106672
106491
106345
106224
106111
106006
105920
105876
105861
105869
105900
105982
106137
106288
106443
106606
106812
107040
107221
107325
107374
107405
107418
107369
107316
107207
107034
106857
106632
106340
106060
105832
105643
105499
105380
105287
105259
105262
105257
105308
105365
105295
105225
105164
105023
104723
104379
103875
101025
101030
101039
101050
101059
101063
101061
101054
101045
101032
101015
100993
100968
100938
100904
100866
100825
100780
100732
100680
100625
100567
100506
100443
100377
100309
100239
100168
100095
100021
99945
99867.9
99789.5
99709.8
99628.4
99545.4
99460.2
99373.5
99285.7
99196.8
99106.7
99016
98925.1
98834.2
98743.7
98652.9
98566.5
98481.3
98398.9
98320.3
98244.9
98172.2
98103
98037.6
97976.9
97921.5
97872.3
97828.9
97791.9
97762.6
97740.2
97725.9
97721.7
97724.3
97738
97758.9
97787
97828.5
97876.9
97933.5
98003.8
98076.8
98165.4
98267.2
98360.1
98465.6
98591.9
98717
98849.8
99001.1
99166.2
99345
99530.2
99727.2
99925.6
100125
100328
100535
100739
100934
101133
101348
101568
101773
101971
102170
102366
102549
102734
102925
103121
103310
103505
103694
103887
104097
104291
104481
104691
104897
105095
105310
105524
105729
105929
106119
106305
106502
106705
106904
107077
107202
107280
107348
107372
107334
107273
107196
107094
106974
106854
106755
106641
106514
106421
106338
106258
106179
106142
106136
106145
106187
106259
106373
106556
106743
106918
107108
107345
107596
107800
107938
108009
108045
108062
108011
107925
107792
107618
107431
107169
106843
106533
106278
106063
105885
105756
105638
105597
105584
105596
105615
105615
105551
105454
105386
105215
104909
104517
103994
100939
100946
100961
100976
100991
100998
100998
100995
100991
100983
100969
100947
100920
100888
100851
100810
100764
100714
100660
100602
100542
100478
100410
100340
100267
100192
100114
100035
99952.7
99868.8
99783.2
99695.5
99606.1
99515
99421.9
99326.6
99229.8
99131.6
99031.7
98930.2
98827.4
98723.6
98619.5
98516
98413.6
98312.7
98213.9
98117.9
98024.7
97934.2
97846.3
97760.6
97679.9
97602.5
97529.9
97462.2
97400.2
97344.3
97295.1
97252.8
97219.8
97193.4
97176.9
97167.9
97168.1
97179.3
97196.5
97225
97264.4
97308.4
97366
97432.5
97503.2
97594
97682.9
97769.3
97878.2
97995.8
98112.3
98247.5
98394.5
98561.1
98735.7
98920
99111.6
99305.3
99500.2
99698.4
99897.8
100091
100282
100483
100696
100901
101099
101297
101499
101689
101864
102047
102232
102409
102593
102782
102967
103151
103339
103541
103757
103967
104174
104397
104625
104847
105067
105280
105490
105703
105933
106167
106371
106521
106666
106804
106865
106864
106846
106810
106750
106677
106607
106534
106455
106389
106354
106304
106244
106212
106222
106250
106288
106363
106473
106618
106812
107035
107234
107446
107703
107978
108212
108376
108474
108520
108539
108505
108393
108234
108070
107883
107594
107242
106913
106630
106408
106210
106074
105942
105889
105855
105861
105838
105805
105760
105663
105534
105315
105016
104611
104065
100799
100808
100823
100846
100877
100912
100938
100947
100944
100933
100915
100889
100856
100818
100777
100732
100683
100629
100571
100509
100444
100374
100302
100226
100147
100065
99981.1
99894.2
99805
99713.6
99619.8
99523.7
99425.7
99325.5
99222.8
99118.5
99011
98901.6
98790.5
98678.3
98565
98451.3
98337.9
98225.9
98115.3
98005.9
97898.6
97793.2
97689.7
97588.6
97490.2
97395.5
97302.2
97213.8
97130.1
97051.7
96979.3
96912.8
96853.1
96799.9
96755.4
96719.1
96691.6
96674.1
96663.7
96664.9
96673.5
96690.7
96720.6
96757.5
96801.5
96860.9
96922.3
96996.7
97084.6
97162.8
97251.8
97360.6
97467.3
97585.8
97719.5
97870.2
98036.9
98208.8
98392
98580
98768.4
98957.3
99147.8
99337.6
99522.3
99712.1
99912.4
100113
100308
100505
100706
100904
101077
101249
101424
101591
101761
101937
102099
102277
102473
102668
102873
103084
103295
103526
103763
103992
104223
104452
104673
104902
105152
105407
105629
105808
106025
106205
106280
106309
106328
106323
106303
106273
106240
106198
106157
106145
106144
106128
106109
106130
106170
106219
106285
106387
106526
106693
106897
107131
107359
107591
107861
108158
108416
108611
108737
108788
108814
108808
108685
108507
108358
108183
107865
107497
107174
106886
106669
106461
106314
106183
106119
106057
106044
106012
105937
105855
105791
105609
105361
105054
104647
104092
100634
100649
100668
100700
100754
100821
100878
100901
100897
100880
100856
100825
100788
100746
100700
100652
100601
100546
100486
100421
100352
100278
100201
100120
100037
99949.6
99859.7
99767.1
99672.1
99574.5
99474.3
99371.8
99266.8
99159.1
99049
98936.7
98821.2
98703.4
98584.2
98464
98343.2
98222.8
98103.3
97985.3
97868.3
97752
97636.9
97523
97410.8
97300.8
97193.4
97089.3
96988
96890.7
96797.9
96710.8
96629.5
96554.6
96485.8
96424.1
96370.4
96326.3
96289.8
96264.7
96246.3
96238.3
96240.2
96248.6
96268
96298.8
96333.7
96382
96439.7
96500.2
96580.7
96660.4
96735.7
96831.7
96932.9
97036.9
97158.9
97294.4
97450
97615.6
97786.4
97967.9
98151.5
98331.7
98512.8
98696.7
98876.1
99055.5
99244.2
99436.3
99623.7
99816.2
100010
100204
100379