/*--------------------------------*- C++ -*----------------------------------*\
| =========                 |                                                 |
| \\      /  F ield         | OpenFOAM: The Open Source CFD Toolbox           |
|  \\    /   O peration     | Version:  dev                                   |
|   \\  /    A nd           | Web:      http://www.openfoam.org               |
|    \\/     M anipulation  |                                                 |
\*---------------------------------------------------------------------------*/
FoamFile
{
    version     2.0;
    format      ascii;
    class       volScalarField;
    object      p_0;
    location    "9.132";
}
// * * * * * * * * * * * * * * * * * * * * * * * * * * * * * * * * * * * * * //

dimensions      [1 -1 -2 0 0 0 0];

internalField   nonuniform List<scalar> 
12225
(
107652
107538
107358
107127
106838
106513
106146
105760
105343
104920
104473
104027
103554
103090
102530
102000
101399
99755.1
107641
107530
107350
107119
106829
106505
106137
105752
105335
104912
104466
104020
103547
103080
102525
102029
101374
100328
107622
107511
107333
107101
106811
106486
106119
105733
105317
104894
104449
104001
103536
103060
102529
102025
101448
100655
107587
107480
107302
107070
106780
106455
106089
105702
105288
104864
104421
103972
103512
103033
102524
102031
101476
100791
107537
107430
107253
107022
106733
106407
106043
105655
105243
104818
104379
103930
103475
102997
102508
102024
101491
100929
107461
107358
107182
106951
106664
106338
105976
105588
105178
104754
104319
103872
103421
102948
102470
101998
101490
101026
107359
107257
107083
106852
106567
106242
105883
105496
105089
104667
104235
103791
103343
102884
102420
101965
101458
101048
107243
107143
106970
106740
106458
106134
105777
105392
104989
104569
104140
103700
103256
102806
102358
101921
101455
101030
107120
107019
106848
106618
106339
106016
105662
105280
104881
104464
104039
103604
103166
102725
102286
101858
101449
101022
106953
106854
106686
106458
106181
105861
105511
105132
104738
104325
103906
103477
103049
102620
102196
101777
101384
101000
106736
106636
106472
106246
105973
105657
105310
104937
104548
104142
103730
103310
102892
102475
102069
101669
101296
100950
106446
106350
106189
105967
105699
105388
105047
104681
104299
103901
103498
103089
102683
102280
101888
101509
101153
100821
106072
105976
105820
105603
105340
105036
104703
104346
103973
103587
103195
102800
102408
102022
101645
101283
100940
100621
105583
105493
105341
105132
104876
104581
104258
103912
103551
103179
102802
102424
102048
101680
101321
100976
100647
100338
104967
104877
104731
104530
104284
104001
103690
103359
103014
102659
102300
101940
101584
101235
100895
100567
100255
99958.3
104182
104105
103968
103777
103543
103275
102981
102668
102341
102007
101669
101331
100997
100669
100349
100041
99746.5
99465.5
103248
103172
103041
102862
102643
102392
102118
101827
101523
101213
100899
100585
100275
99970.5
99673.8
99386.8
99111.6
98848.5
102246
102161
102035
101868
101666
101435
101182
100914
100635
100349
100060
99771.3
99485.2
99204.2
98930
98664.2
98408.5
98163.4
101304
101234
101119
100966
100779
100566
100333
100085
99826.9
99562.5
99295.1
99027.4
98761.9
98500.9
98246
97998.3
97759.4
97530
100558
100481
100371
100227
100054
99854.9
99637.2
99405.4
99163.8
98916.1
98665.4
98414.3
98164.9
97919.2
97679.1
97445.7
97220.1
97003.1
99947.5
99878.8
99775.5
99639.7
99475.7
99288.3
99082.6
98863.4
98634.6
98399.7
98161.7
97923.2
97686.1
97452.4
97223.5
97001
96785.7
96578.4
99464.6
99408.1
99311.8
99182.8
99026.4
98847.5
98651
98441.2
98222.1
97997.1
97768.7
97539.7
97311.9
97087.1
96866.8
96652.4
96444.9
96245
99101.9
99051.4
98959.8
98835.5
98684.7
98512.1
98322.5
98119.7
97907.8
97690
97468.9
97246.9
97026
96807.9
96594
96385.7
96184
95989.5
98836.8
98787.3
98698.2
98577.3
98430.4
98262.5
98077.8
97880.4
97673.8
97461.4
97245.6
97028.7
96812.8
96599.6
96390.5
96186.7
95989.1
95798.8
98646.5
98597
98509
98390
98245.9
98081.4
97900.3
97706.7
97504.1
97295.5
97083.5
96870.3
96658
96448.3
96242.5
96041.9
95847.6
95660.1
98515.5
98464
98376.2
98258.4
98116.3
97954.1
97775.7
97584.8
97384.9
97179
96969.7
96759.1
96549.3
96342
96138.5
95940.1
95747.9
95562.5
98429.3
98375.3
98286.9
98169.7
98028.9
97868.4
97691.9
97502.9
97304.8
97100.8
96893.1
96684.3
96476.2
96270.4
96068.5
95871.6
95680.7
95496.7
98377.2
98319.7
98230.4
98113.7
97973.9
97814.6
97639.2
97451.4
97254.5
97051.6
96845.1
96637.3
96430.2
96225.3
96024.3
95828.3
95638.3
95455.1
98348
98288.9
98198.6
98082.2
97943.1
97784.6
97610
97422.9
97226.7
97024.3
96818.4
96611.2
96404.6
96200.2
95999.6
95804.1
95614.4
95431.5
98338.6
98276.9
98185.7
98069.4
97930.5
97772.2
97597.9
97411.1
97215.2
97013.1
96807.4
96600.4
96394
96189.8
95989.4
95794
95604.5
95421.5
98333.5
98334.3
98335.9
98338.5
98342
98346.5
98352.1
98358.9
98367
98376.5
98387.7
98400.7
98415.7
98432.7
98452.1
98474.3
98499.2
98527
98557.9
98592.5
98631
98673.5
98720
98770.9
98826.2
98885.8
98950.1
99019.2
99093.4
99173.2
99259.1
99351.4
99450.2
99555.8
99668
99787.2
99913.8
100047
100188
100334
100487
100646
100812
100983
101160
101342
101529
101721
101918
102119
102325
102536
102752
102972
103198
103429
103666
103909
104158
104412
104673
104940
105214
105497
105788
106087
106395
106710
107033
107365
107707
108059
108419
108787
109163
109547
109939
110338
110741
111149
111559
111969
112375
112779
113180
113580
113975
114363
114742
115108
115458
115790
116121
116413
116680
116924
117143
117344
117514
117662
117791
117905
118005
118090
118157
118201
118221
118214
118182
118125
118039
117922
117771
117584
117359
117103
116812
116483
116123
115726
115290
114816
114308
113769
113204
112618
112010
111396
110783
110181
109600
109048
108524
108029
107569
107144
106757
106414
106117
105862
105645
105460
105306
105182
105082
104998
104933
104894
104891
104953
105105
105337
105612
105885
106116
106292
106420
106507
106569
106622
106684
106733
106781
106790
106823
106875
106927
106975
107020
107066
107112
107154
107184
107191
107158
107069
106897
106630
106259
105790
98347.8
98348.6
98350.3
98352.8
98356.2
98360.5
98365.9
98372.3
98379.9
98388.9
98399.6
98412.3
98427
98443.6
98462.6
98484
98508.3
98535.8
98566.3
98599.9
98636.7
98677.1
98721.5
98770.1
98823.5
98881.4
98944.1
99011.8
99084.9
99163.7
99248.6
99339.8
99437.5
99541.9
99653
99771
99896.1
100028
100166
100311
100463
100621
100784
100953
101129
101309
101494
101683
101877
102077
102280
102489
102702
102920
103143
103372
103607
103849
104095
104347
104605
104869
105141
105422
105711
106008
106314
106626
106946
107275
107613
107962
108320
108686
109060
109441
109830
110226
110626
111030
111437
111845
112249
112648
113045
113442
113835
114222
114600
114967
115316
115649
115968
116262
116530
116769
116984
117177
117347
117497
117628
117745
117849
117937
118007
118056
118081
118080
118053
118001
117921
117810
117666
117483
117267
117018
116731
116411
116056
115667
115239
114773
114273
113742
113183
112603
112005
111397
110791
110194
109618
109071
108552
108064
107612
107194
106813
106476
106183
105934
105723
105544
105394
105274
105178
105098
105037
105000
105000
105065
105222
105454
105721
105979
106197
106365
106489
106573
106633
106684
106737
106787
106831
106849
106885
106933
106978
107020
107060
107102
107145
107185
107214
107218
107183
107091
106918
106649
106273
105793
98376.4
98377.2
98378.8
98381.1
98384.2
98388.2
98393.2
98399.2
98406.5
98414.9
98424.9
98436.5
98449.5
98464.1
98482.1
98502.7
98525.5
98550.7
98578.7
98609.8
98644.2
98682
98723.6
98769.3
98819.5
98874.4
98934.3
98999.5
99070.3
99146.8
99229.4
99318.4
99413.8
99515.6
99624
99739
99860.9
99989.8
100125
100266
100415
100569
100729
100894
101066
101243
101423
101608
101798
101993
102193
102397
102606
102819
103038
103262
103493
103730
103972
104219
104472
104732
105000
105276
105560
105853
106153
106461
106775
107097
107430
107773
108126
108487
108856
109232
109616
110006
110400
110796
111196
111599
112001
112394
112786
113174
113560
113942
114316
114677
115024
115357
115668
115955
116217
116452
116662
116850
117020
117173
117311
117434
117544
117638
117716
117774
117810
117822
117807
117767
117698
117599
117464
117291
117088
116849
116573
116268
115926
115551
115138
114689
114205
113689
113143
112576
111992
111399
110808
110225
109658
109120
108613
108138
107698
107294
106926
106602
106322
106083
105883
105715
105575
105466
105381
105312
105257
105227
105234
105308
105472
105695
105938
106173
106373
106524
106638
106718
106774
106821
106864
106907
106950
106974
107005
107044
107081
107113
107145
107180
107220
107256
107280
107278
107238
107142
106965
106690
106304
105809
98418.4
98419.2
98420.6
98422.6
98425.5
98429.2
98433.9
98439.4
98445.6
98452.8
98461.4
98472
98484.2
98498.1
98513.1
98530.4
98550
98571.9
98596.5
98624
98654.6
98688.7
98726.7
98768.8
98815.3
98866.7
98923
98984.6
99051.7
99124.7
99203.6
99288.6
99380
99477.6
99581.6
99692
99809.3
99933.4
100063
100200
100342
100491
100645
100804
100970
101140
101315
101494
101678
101867
102060
102258
102461
102669
102881
103100
103324
103554
103789
104030
104278
104532
104794
105062
105339
105625
105919
106220
106528
106841
107164
107496
107839
108194
108556
108923
109298
109681
110067
110457
110847
111238
111629
112018
112415
112795
113169
113541
113905
114258
114596
114917
115218
115496
115749
115978
116185
116374
116547
116706
116852
116984
117102
117207
117296
117367
117418
117445
117448
117424
117371
117287
117168
117013
116825
116598
116339
116051
115730
115374
114983
114558
114098
113605
113082
112534
111969
111396
110826
110265
109718
109193
108702
108243
107819
107434
107086
106778
106515
106294
106110
105956
105831
105739
105674
105623
105580
105560
105580
105668
105829
106033
106245
106452
106627
106748
106853
106923
106978
107023
107063
107102
107141
107158
107178
107205
107230
107249
107270
107297
107331
107359
107374
107362
107316
107215
107033
106748
106345
105831
98472.8
98473.5
98474.7
98476.4
98478.9
98482.2
98486.3
98491
98496.2
98502.1
98509
98517.2
98526.7
98537.7
98549.9
98564
98580.1
98598.3
98618.9
98642.2
98668.7
98698.8
98732.6
98770.4
98812.4
98859.1
98910.5
98967
99028.8
99096.5
99170.2
99249.9
99335.7
99427.6
99525.7
99630.3
99741.3
99858.9
99981.9
100111
100245
100386
100534
100686
100843
101004
101169
101339
101515
101694
101879
102069
102263
102463
102668
102879
103096
103317
103545
103778
104018
104264
104518
104780
105049
105325
105610
105903
106203
106508
106820
107140
107468
107808
108159
108517
108883
109256
109632
110012
110395
110773
111149
111525
111928
112294
112659
113021
113373
113713
114039
114344
114629
114895
115141
115366
115570
115760
115938
116107
116264
116406
116535
116652
116753
116838
116904
116949
116972
116967
116933
116869
116772
116643
116466
116262
116024
115761
115464
115134
114773
114376
113946
113482
112987
112467
111929
111382
110838
110300
109779
109279
108812
108374
107971
107609
107285
106994
106751
106552
106390
106256
106149
106074
106032
106004
105981
105978
106020
106121
106273
106449
106632
106804
106930
107018
107112
107172
107227
107272
107304
107342
107385
107382
107398
107409
107422
107428
107434
107451
107473
107491
107492
107466
107410
107301
107117
106818
106390
105859
98538.8
98539.3
98540.2
98541.5
98543.3
98545.8
98549
98552.7
98556.7
98561
98565.8
98571.4
98577.9
98585.3
98593.9
98603.9
98615.7
98629.7
98646
98665
98687.1
98712.6
98741.3
98773.6
98809.8
98850.1
98894.9
98944.9
99000.3
99061.6
99128.7
99201.8
99280.7
99365.6
99457
99553.4
99653.9
99760.7
99875.3
99996.4
100123
100255
100393
100537
100683
100834
100990
101150
101314
101483
101656
101834
102017
102205
102400
102602
102808
103020
103237
103460
103690
103927
104171
104424
104684
104949
105224
105508
105798
106093
106395
106702
107017
107341
107676
108022
108375
108734
109097
109466
109839
110207
110572
110940
111319
111678
112033
112383
112721
113046
113355
113643
113912
114166
114403
114621
114826
115022
115210
115389
115558
115716
115858
115985
116096
116192
116271
116335
116381
116401
116392
116352
116277
116165
116010
115830
115619
115387
115125
114831
114506
114143
113747
113315
112848
112361
111858
111345
110833
110327
109832
109361
108923
108515
108139
107805
107513
107248
107025
106850
106708
106596
106515
106462
106438
106433
106435
106458
106527
106640
106781
106929
107084
107213
107297
107374
107450
107496
107541
107572
107588
107630
107663
107649
107655
107648
107645
107638
107631
107635
107645
107649
107638
107597
107523
107399
107209
106896
106444
105896
98615.4
98615.7
98616.2
98616.8
98617.8
98619.2
98620.9
98623
98625.2
98627.5
98629.7
98632.3
98635.2
98638.9
98643.6
98649.4
98656.9
98666.4
98678.1
98692.3
98709.2
98728.7
98750.8
98776
98804.9
98837.7
98875.1
98917.7
98965.8
99019.4
99078.8
99143.5
99213.5
99288.6
99368.7
99455
99548.2
99646.8
99751.4
99861.5
99976.8
100097
100222
100351
100487
100629
100774
100922
101075
101232
101392
101558
101728
101905
102087
102276
102470
102669
102875
103086
103303
103528
103759
103999
104248
104502
104761
105032
105311
105596
105888
106182
106482
106791
107113
107444
107782
108127
108478
108832
109192
109549
109902
110255
110610
110958
111300
111636
111957
112263
112553
112824
113080
113323
113552
113769
113981
114188
114384
114569
114747
114919
115077
115219
115344
115452
115542
115618
115682
115728
115747
115733
115678
115590
115467
115309
115132
114929
114709
114454
114172
113850
113491
113099
112664
112209
111744
111271
110798
110332
109874
109434
109024
108647
108302
107999
107739
107507
107315
107173
107056
106961
106907
106888
106882
106896
106924
106977
107078
107204
107335
107465
107587
107673
107731
107806
107859
107900
107925
107929
107940
107968
107968
107956
107933
107911
107887
107865
107846
107838
107834
107823
107804
107748
107651
107506
107298
106975
106507
105944
98701.5
98701.6
98701.5
98701.3
98701.1
98700.9
98700.5
98700
98699.8
98699.6
98699.3
98698.8
98698.2
98698
98698.6
98700.2
98703.1
98707.8
98714.3
98722.5
98732.8
98745
98759.4
98776.7
98797.5
98822
98851.2
98885.5
98925
98969.7
99020
99075.9
99137.3
99200.9
99271.4
99347.5
99428.9
99516.5
99609.2
99707
99809.9
99918.3
100031
100147
100268
100393
100523
100658
100797
100940
101087
101238
101395
101558
101728
101903
102084
102270
102461
102659
102863
103074
103293
103518
103752
103993
104236
104488
104750
105020
105301
105584
105870
106165
106471
106786
107108
107438
107775
108117
108461
108802
109139
109475
109810
110141
110466
110786
111089
111378
111652
111910
112156
112390
112615
112833
113049
113259
113460
113649
113834
114016
114187
114344
114490
114616
114721
114807
114878
114943
114988
114998
114970
114914
114825
114700
114564
114396
114218
114008
113767
113494
113168
112816
112434
112018
111589
111159
110729
110305
109888
109486
109109
108761
108448
108179
107952
107748
107586
107483
107406
107336
107307
107325
107349
107378
107428
107511
107646
107790
107913
108027
108116
108164
108205
108268
108301
108348
108349
108340
108333
108324
108312
108274
108230
108191
108142
108106
108070
108048
108022
107997
107965
107890
107775
107613
107374
107039
106563
105988
98795.8
98795.6
98795
98793.9
98792.3
98790.2
98787.7
98784.8
98781.5
98777.9
98774.4
98770.5
98766.3
98762.1
98758.2
98755.1
98752.9
98752
98752
98753.2
98755.8
98760
98766.3
98775.1
98787.1
98802.8
98822.8
98847.5
98876.9
98911.5
98951.6
98997
99043.5
99098.7
99158.6
99223.2
99292.9
99367.4
99446.3
99530.5
99620.2
99714.8
99813.8
99916.8
100023
100133
100248
100363
100484
100612
100743
100880
101022
101170
101325
101484
101650
101821
101997
102179
102369
102565
102770
102982
103200
103428
103658
103892
104132
104383
104647
104918
105190
105469
105758
106054
106357
106671
106995
107324
107655
107982
108303
108621
108936
109243
109546
109843
110128
110401
110662
110909
111144
111370
111592
111810
112025
112236
112441
112637
112826
113009
113185
113355
113519
113671
113800
113903
113979
114060
114128
114165
114168
114142
114084
113999
113893
113777
113639
113487
113293
113066
112784
112466
112139
111773
111389
111002
110615
110230
109860
109500
109161
108850
108567
108334
108143
107976
107826
107766
107735
107694
107690
107744
107807
107858
107926
108040
108204
108374
108495
108594
108651
108676
108712
108763
108795
108836
108821
108794
108745
108721
108676
108600
108533
108469
108400
108352
108295
108255
108211
108173
108115
108024
107896
107712
107436
107080
106607
106015
98896.2
98895.8
98894.6
98892.4
98889.3
98885.5
98881
98875.7
98869.6
98862.9
98855.6
98847.4
98838.7
98829.7
98820.8
98812.1
98803.9
98796.5
98789.6
98783.5
98778.1
98773.9
98771.3
98770.8
98773.1
98778.7
98788.2
98802
98820.2
98843.2
98870.8
98899.2
98937.2
98980.8
99029.6
99082.7
99139.3
99199.4
99263.8
99333.2
99407.5
99486.3
99569.4
99656.7
99747.5
99841.3
99939
100039
100142
100251
100366
100485
100611
100744
100882
101026
101174
101329
101489
101654
101827
102007
102196
102391
102592
102803
103022
103243
103466
103697
103942
104195
104448
104707
104981
105259
105543
105839
106146
106462
106781
107097
107405
107703
107992
108273
108551
108823
109086
109342
109591
109830
110057
110278
110499
110716
110930
111140
111349
111552
111744
111929
112115
112295
112465
112633
112788
112912
113005
113094
113181
113242
113271
113278
113254
113206
113131
113058
112969
112865
112719
112532
112307
112043
111754
111428
111103
110773
110420
110078
109763
109451
109153
108891
108648
108446
108295
108166
108059
108017
108015
108016
108025
108127
108232
108310
108398
108540
108730
108927
109064
109150
109181
109193
109240
109266
109318
109339
109315
109273
109197
109141
109032
108924
108833
108744
108654
108585
108513
108452
108399
108358
108271
108167
108011
107802
107494
107120
106644
106017
99000.7
99000.2
98998.5
98995.2
98990.5
98984.6
98977.7
98969.7
98960.5
98950.3
98939.2
98927.1
98914
98899.5
98884.9
98870
98855.2
98840.6
98826
98811.6
98797.7
98784.6
98772.6
98762.3
98754.3
98749.2
98747.5
98749.1
98755
98765.9
98777.4
98798.2
98824
98854
98888.4
98926.9
98969.2
99014.7
99063.7
99116.7
99174.1
99236
99302.5
99373.2
99446.5
99521.4
99598.5
99684.7
99771.5
99862.9
99958.8
100061
100169
100283
100402
100529
100661
100798
100941
101090
101246
101409
101581
101759
101942
102132
102331
102538
102749
102962
103187
103423
103656
103895
104149
104412
104675
104949
105233
105527
105825
106124
106417
106699
106969
107230
107486
107737
107981
108221
108459
108689
108911
109133
109356
109572
109783
109988
110198
110403
110598
110790
110988
111170
111339
111505
111675
111825
111946
112042
112138
112218
112275
112310
112321
112303
112274
112235
112204
112134
112026
111879
111704
111491
111241
110966
110697
110423
110116
109826
109567
109309
109061
108856
108663
108494
108381
108297
108227
108215
108240
108273
108316
108442
108603
108709
108819
108985
109202
109422
109586
109671
109691
109701
109744
109777
109815
109828
109801
109735
109650
109512
109377
109232
109116
108998
108898
108797
108712
108634
108572
108526
108420
108283
108098
107872
107544
107160
106649
105981
99106.5
99105.9
99104
99099.6
99093.4
99085.4
99076
99065
99052.3
99037.8
99021.8
99004.3
98985.3
98966.1
98945.8
98925
98903.5
98881.4
98858.9
98836.1
98813.3
98790.8
98769
98748.5
98729.8
98713.5
98699.6
98688.6
98680.9
98677.7
98681.9
98689.8
98701.4
98716.4
98735.1
98757.5
98783.6
98813.1
98845.9
98881.8
98921.1
98964.6
99012.9
99065.4
99120.9
99178
99237
99300.1
99370.6
99445.4
99524.4
99608
99695.7
99791.1
99893.2
100000
100114
100233
100358
100489
100628
100774
100926
101087
101255
101428
101607
101792
101986
102183
102389
102609
102826
103043
103275
103516
103756
104004
104263
104530
104802
105078
105351
105617
105874
106123
106365
106603
106831
107058
107286
107507
107723
107944
108167
108385
108591
108794
108998
109202
109395
109587
109781
109964
110146
110320
110490
110657
110802
110911
111018
111120
111202
111262
111303
111315
111320
111323
111328
111299
111227
111125
110990
110812
110609
110406
110180
109936
109690
109472
109266
109059
108872
108721
108579
108450
108379
108338
108304
108322
108382
108449
108533
108680
108874
109016
109172
109346
109588
109839
110029
110125
110153
110177
110223
110252
110273
110281
110237
110152
110036
109868
109689
109505
109354
109214
109102
108974
108874
108787
108725
108656
108523
108341
108150
107919
107570
107158
106584
105913
99210.7
99209.9
99207.4
99202.5
99195.1
99185.3
99173.2
99159
99142.8
99124.3
99103.9
99081.4
99056.9
99030.9
99003.4
98974.7
98945.4
98915.5
98885.2
98854.4
98822.1
98790.1
98758.5
98728
98698.9
98671.8
98647.4
98624.8
98606.1
98590.1
98578.5
98570.8
98566.8
98566.1
98568.8
98575
98584.5
98596.9
98612.1
98630
98650.8
98675.2
98704.2
98737.7
98774.5
98813.3
98853.9
98897.5
98945.6
98997.9
99057.1
99123
99196.3
99274.2
99357.8
99446.3
99540.8
99641.3
99748
99860.7
99981.3
100110
100244
100385
100532
100688
100851
101018
101193
101373
101559
101760
101962
102158
102366
102586
102805
103026
103259
103500
103747
103998
104248
104496
104739
104977
105208
105434
105652
105866
106087
106303
106513
106729
106952
107171
107373
107570
107768
107969
108161
108347
108528
108719
108920
109104
109265
109437
109595
109718
109833
109952
110050
110135
110202
110250
110282
110327
110357
110363
110340
110280
110184
110055
109909
109761
109569
109362
109193
109033
108871
108711
108580
108472
108375
108291
108265
108268
108273
108320
108416
108518
108638
108819
109039
109219
109407
109615
109867
110150
110373
110481
110532
110586
110629
110656
110673
110670
110592
110512
110364
110160
109934
109728
109544
109399
109255
109110
109000
108912
108851
108725
108572
108369
108169
107914
107534
107067
106465
105824
99308.8
99307.9
99305.6
99300.7
99292.9
99281.6
99267
99249.4
99229.1
99206.2
99180.8
99152.9
99122.7
99090.2
99056
99020
98980.9
98942.6
98902.8
98861.9
98821.4
98780.1
98738.8
98698.1
98658.1
98619.2
98581.5
98547.2
98515.5
98486.1
98459.8
98437
98417.7
98401.6
98388.9
98379.3
98372.4
98367.3
98364
98362.7
98364
98368.7
98378.1
98392.3
98410.2
98430
98451.2
98475.1
98503.7
98538.2
98578.6
98624.9
98677.9
98736
98800
98870.4
98946.7
99028
99115.4
99210.7
99312.1
99421.7
99538.3
99662.2
99791.2
99926.3
100072
100221
100377
100541
100708
100887
101073
101251
101434
101633
101832
102029
102237
102454
102677
102905
103134
103363
103590
103816
104036
104251
104462
104658
104875
105093
105301
105510
105727
105943
106141
106329
106517
106710
106902
107089
107270
107466
107660
107834
107997
108170
108336
108470
108593
108722
108840
108941
109032
109105
109168
109239
109305
109345
109364
109347
109295
109219
109125
109015
108867
108726
108626
108502
108374
108271
108184
108108
108058
108024
108030
108073
108122
108205
108331
108462
108617
108831
109082
109300
109515
109752
110032
110332
110578
110708
110794
110879
110921
110949
110972
110957
110862
110762
110603
110362
110111
109886
109676
109516
109348
109195
109083
108999
108903
108735
108605
108389
108133
107825
107429
106907
106345
105706
99396.3
99395.8
99394.2
99390.1
99383
99371.6
99355.3
99334.1
99309.1
99281
99249.9
99216.1
99179.7
99140.7
99099.3
99055.5
99009.6
98962.1
98913.1
98862.8
98811.6
98759.9
98708
98656
98603.9
98553.9
98505
98458.2
98413.2
98370.5
98330.4
98293
98258.4
98226.7
98197.6
98171.2
98146.8
98123.6
98101.6
98081.3
98063.3
98048.6
98038
98031.6
98028.8
98028.6
98030.7
98036.1
98046.2
98061.9
98083.7
98111.2
98144.7
98184
98228.7
98279.4
98335.6
98398.7
98466.1
98543.6
98627.8
98718.8
98815.7
98920.9
99034.1
99151.4
99278.3
99411.7
99548.5
99694.9
99844.7
100002
100171
100332
100492
100667
100848
101023
101207
101400
101603
101808
102020
102232
102444
102656
102864
103070
103268
103461
103669
103886
104097
104297
104501
104705
104899
105081
105260
105444
105632
105825
106017
106202
106371
106543
106717
106886
107051
107191
107324
107461
107588
107705
107815
107905
107992
108085
108175
108249
108296
108314
108300
108271
108222
108154
108069
107989
107923
107835
107751
107717
107676
107630
107637
107666
107695
107762
107844
107963
108112
108274
108458
108702
108980
109231
109474
109736
110039
110366
110628
110793
110914
111015
111075
111099
111128
111097
110999
110889
110728
110474
110192
109947
109735
109552
109374
109213
109100
109005
108863
108726
108605
108330
108017
107687
107304
106758
106213
105539
99469.7
99469.6
99468.7
99466.4
99460.7
99450.2
99433.2
99409.3
99380.1
99346.7
99309.9
99270
99226.8
99180.6
99131.7
99080.3
99026.5
98970.4
98912.3
98852.6
98791.7
98729.9
98667.6
98605
98542.5
98480.7
98419.8
98360.4
98302.3
98245.8
98191.2
98138.8
98088.6
98040.5
97994.4
97950.1
97907.3
97865.6
97825.3
97786.8
97750.5
97716.9
97686.6
97660.1
97637.2
97617.3
97600.1
97586.6
97578.4
97576
97579.5
97588.8
97602.8
97622.4
97647.7
97679.9
97718
97762.8
97815.2
97873.2
97937.2
98009.6
98089.7
98176.1
98271.5
98371.3
98478.7
98595.9
98716
98844.4
98979.1
99114.3
99263.7
99413.4
99553.1
99703.9
99865.4
100020
100180
100351
100533
100721
100915
101114
101313
101510
101707
101905
102097
102281
102476
102688
102900
103096
103289
103481
103670
103848
104027
104210
104397
104582
104769
104935
105092
105270
105438
105587
105745
105891
106025
106170
106306
106433
106553
106661
106765
106879
106984
107079
107148
107188
107204
107222
107219
107186
107151
107115
107073
107027
106998
107024
107031
107033
107089
107173
107244
107318
107432
107578
107748
107943
108151
108419
108717
108997
109263
109549
109873
110218
110501
110710
110860
110970
111063
111094
111113
111074
110992
110900
110724
110446
110159
109919
109708
109509
109331
109157
109039
108923
108785
108666
108482
108159
107832
107524
107139
106589
106008
105309
99521.6
99522.1
99523.9
99523.9
99519.1
99506.9
99487.2
99461.3
99430.9
99395.5
99355.3
99310.6
99261.9
99209.2
99152.5
99092.6
99030
98965.2
98898.2
98829.3
98758.7
98686.9
98614.2
98540.9
98467.5
98394.2
98321.3
98249.3
98178.2
98108
98039.2
97971.7
97905.7
97841.3
97778.5
97716.6
97655.8
97596.3
97538.7
97482.8
97428.7
97376.7
97327.1
97280.3
97237
97197.5
97162.2
97131.4
97105.7
97086
97071.4
97061.7
97057
97057.6
97064.4
97077.3
97097.4
97124
97157.8
97197.7
97245.2
97299.5
97363.1
97432.6
97510.8
97595.7
97685
97784.3
97889.6
97998.7
98118.3
98238
98364
98501.4
98626.8
98752.7
98894.6
99033.2
99170.2
99321.5
99481.6
99654.2
99831.2
100017
100204
100391
100576
100765
100953
101132
101313
101511
101719
101916
102104
102293
102484
102662
102836
103013
103193
103360
103527
103686
103843
104006
104152
104291
104446
104595
104733
104879
105020
105151
105278
105397
105512
105627
105744
105853
105938
105993
106050
106119
106151
106142
106134
106134
106126
106119
106141
106190
106234
106293
106405
106515
106611
106719
106878
107052
107239
107457
107694
107973
108283
108590
108878
109179
109520
109876
110184
110432
110610
110740
110857
110923
110922
110880
110840
110765
110570
110291
110014
109781
109575
109363
109193
109016
108894
108763
108643
108484
108230
107937
107611
107287
106860
106329
105710
105010
99551.1
99553.3
99558.6
99559.1
99555
99540.5
99517.5
99491.4
99462.3
99427.8
99385.6
99336.6
99281.9
99222.8
99159.4
99091.6
99020.2
98945.9
98869.3
98790.7
98710.5
98628.8
98545.9
98462.2
98378
98293.5
98209
98124.7
98040.7
97957.3
97874.7
97792.6
97711.6
97631.9
97552.6
97474.1
97396.8
97320.9
97246.1
97172.4
97100.1
97029.4
96961
96895.7
96834.5
96777.4
96724.6
96676.9
96634.4
96596.7
96564.1
96536
96513.2
96495.8
96484.5
96479.4
96481
96489.2
96505.1
96526.8
96558.2
96596.1
96642.4
96695.8
96755.8
96825.3
96899.7
96981.8
97073
97166.3
97267.3
97376
97483.1
97603
97721.4
97827.5
97946.5
98072.2
98190.9
98323.1
98462.2
98617.7
98782.1
98951.8
99127.9
99307
99483
99661.4
99841.2
100018
100190
100373
100569
100764
100952
101142
101337
101523
101689
101855
102021
102174
102326
102479
102619
102754
102892
103033
103181
103322
103457
103599
103739
103870
104000
104125
104243
104357
104475
104592
104682
104747
104860
104972
105015
105026
105047
105071
105093
105126
105183
105244
105315
105430
105583
105711
105832
105998
106194
106387
106589
106827
107082
107360
107675
108004
108312
108624
108972
109337
109669
109944
110156
110306
110449
110563
110560
110517
110519
110468
110262
109988
109734
109511
109329
109122
108961
108796
108670
108517
108384
108191
107903
107627
107331
106942
106467
105957
105351
104651
99543.5
99544.6
99546.9
99551.2
99557.2
99561.5
99554.4
99532.8
99500.6
99460.4
99411.4
99354.1
99290.4
99222.2
99150.8
99076.5
98998.5
98917
98832.5
98745.7
98657
98566.7
98475.1
98382.5
98289.2
98195.2
98100.8
98006.3
97911.9
97817.8
97723.8
97630.2
97537.2
97444.7
97352.4
97260.6
97169.6
97078.7
96988.7
96899.9
96812.6
96727.3
96644.9
96566.3
96491.7
96420.9
96354.4
96292.2
96234.4
96181
96132.2
96088.2
96049.5
96016.5
95989.4
95968.8
95955.1
95948.4
95947.6
95953
95969.5
95993.9
96024.9
96065.6
96111.8
96167
96228.8
96296.2
96372.9
96455.4
96540.2
96636
96732.1
96832.9
96945.2
97043.6
97143.1
97254.1
97362.6
97475.9
97599.6
97736.4
97890
98048.7
98210.9
98382.4
98551.7
98720.1
98889.5
99060
99227.2
99398.4
99581.3
99769
99952.8
100140
100332
100522
100687
100841
100995
101138
101276
101411
101529
101658
101796
101922
102054
102188
102316
102453
102588
102713
102839
102963
103074
103184
103301
103414
103501
103582
103742
103861
103898
103923
103964
104006
104054
104117
104196
104279
104383
104533
104695
104848
105019
105232
105441
105638
105853
106101
106356
106626
106932
107276
107598
107920
108266
108635
108975
109280
109522
109688
109856
110017
110033
110000
110038
110009
109790
109537
109328
109139
108983
108789
108627
108489
108361
108183
108026
107835
107515
107194
106930
106504
106017
105508
104916
104240
99498.5
99503.6
99506.7
99516.4
99539.7
99568.4
99584.6
99569.4
99531.9
99481.8
99424.1
99358.6
99287.1
99211.4
99132.8
99052.5
98970.1
98884.4
98795.2
98702.7
98607.8
98510.8
98412.2
98312.4
98211.7
98110
98007.7
97905.1
97802.5
97699.8
97597
97494.5
97392
97289.5
97187.2
97084.7
96982.3
96880.1
96778.8
96678.9
96580.7
96485.1
96392.8
96304.4
96219.5
96137.7
96059.6
95985
95914.3
95847.9
95786.1
95729.4
95677.6
95631.8