/*--------------------------------*- C++ -*----------------------------------*\
| =========                 |                                                 |
| \\      /  F ield         | OpenFOAM: The Open Source CFD Toolbox           |
|  \\    /   O peration     | Version:  dev                                   |
|   \\  /    A nd           | Web:      http://www.openfoam.org               |
|    \\/     M anipulation  |                                                 |
\*---------------------------------------------------------------------------*/
FoamFile
{
    version     2.0;
    format      ascii;
    class       surfaceScalarField;
    object      phi;
    location    "9.132";
}
// * * * * * * * * * * * * * * * * * * * * * * * * * * * * * * * * * * * * * //

dimensions      [1 0 -1 0 0 0 0];

internalField   nonuniform List<scalar> 
24170
(
3.00688e-06
1.81327e-06
2.92982e-06
1.13907e-06
3.37697e-06
5.75935e-07
4.03005e-06
3.11047e-07
4.66309e-06
2.75279e-07
5.48303e-06
1.84768e-08
5.97778e-06
2.83247e-07
6.83158e-06
-1.464e-07
7.29433e-06
1.81065e-07
8.18735e-06
-3.15253e-07
8.6809e-06
2.47344e-08
9.76023e-06
-6.27216e-07
9.97467e-06
1.83814e-07
1.21489e-05
-1.82727e-06
1.18453e-05
5.61592e-07
1.36216e-05
-1.4982e-06
2.0589e-05
-6.74947e-06
-7.29683e-06
2.79916e-05
4.92321e-06
2.27885e-06
5.14e-06
2.12895e-06
5.54155e-06
1.34615e-06
5.89412e-06
1.0632e-06
6.49123e-06
7.194e-07
7.18625e-06
2.87827e-07
7.81679e-06
5.46902e-07
8.79243e-06
-3.01616e-07
9.39837e-06
3.17157e-07
1.04715e-05
-7.14654e-07
1.11818e-05
-8.17395e-08
1.23795e-05
-1.29479e-06
1.32877e-05
-2.58206e-07
1.5196e-05
-3.30835e-06
1.70158e-05
-9.4565e-07
1.99911e-05
-4.14503e-06
2.43126e-05
-1.07678e-05
-1.5665e-05
3.27759e-05
5.89795e-06
2.45009e-06
6.65951e-06
2.70697e-06
7.48094e-06
1.82484e-06
7.93705e-06
1.83084e-06
8.59372e-06
1.21651e-06
9.2698e-06
6.85384e-07
1.00049e-05
8.02155e-07
1.12031e-05
-5.81646e-07
1.18337e-05
5.12302e-07
1.32362e-05
-1.36512e-06
1.37431e-05
8.4568e-08
1.53974e-05
-2.34993e-06
1.59348e-05
-2.82848e-07
1.74785e-05
-4.39162e-06
1.96816e-05
-2.75409e-06
2.3275e-05
-7.41718e-06
2.4033e-05
-1.12962e-05
-1.85111e-05
2.69556e-05
6.27343e-06
2.78764e-06
7.59934e-06
2.85482e-06
8.69062e-06
2.16264e-06
9.73714e-06
2.13325e-06
1.04533e-05
1.76191e-06
1.16551e-05
6.70053e-07
1.22688e-05
1.27172e-06
1.36221e-05
-9.29936e-07
1.40828e-05
9.64907e-07
1.55957e-05
-2.05367e-06
1.61145e-05
3.07599e-07
1.76889e-05
-3.26504e-06
1.86315e-05
-6.47116e-07
2.00362e-05
-5.29932e-06
2.12405e-05
-3.53382e-06
2.37434e-05
-9.55353e-06
2.57305e-05
-1.30371e-05
-1.57892e-05
2.31537e-05
6.58982e-06
3.37721e-06
8.81234e-06
2.24761e-06
9.8439e-06
2.69537e-06
1.16803e-05
1.7791e-06
1.23181e-05
2.50398e-06
1.35772e-05
7.07711e-07
1.41511e-05
1.88765e-06
1.53666e-05
-1.04481e-06
1.59606e-05
1.37418e-06
1.69351e-05
-2.12077e-06
1.78576e-05
2.00763e-07
1.89254e-05
-3.6103e-06
2.00751e-05
-1.16065e-06
2.14037e-05
-6.07811e-06
2.21688e-05
-3.83562e-06
2.43375e-05
-1.13291e-05
2.35085e-05
-1.19324e-05
-1.01911e-05
1.8087e-05
7.27974e-06
4.04119e-06
9.30485e-06
1.98492e-06
1.01331e-05
3.58502e-06
1.20651e-05
1.46557e-06
1.31435e-05
2.93791e-06
1.44413e-05
8.26558e-07
1.52652e-05
2.3681e-06
1.63828e-05
-9.62377e-07
1.72125e-05
1.64203e-06
1.79671e-05
-1.88315e-06
1.9104e-05
-4.53379e-08
1.95414e-05
-3.25077e-06
2.06177e-05
-1.54821e-06
2.15063e-05
-6.36234e-06
2.23981e-05
-4.22463e-06
2.35143e-05
-1.20203e-05
2.24171e-05
-1.04993e-05
-8.62489e-06
2.10517e-05
7.99333e-06
4.70751e-06
9.54489e-06
2.35962e-06
1.05375e-05
4.47039e-06
1.25909e-05
1.17462e-06
1.38831e-05
3.29365e-06
1.52691e-05
9.85231e-07
1.64862e-05
2.57367e-06
1.76679e-05
-8.39645e-07
1.86657e-05
1.84326e-06
1.95482e-05
-1.68819e-06
2.04743e-05
5.75132e-09
2.11156e-05
-3.0245e-06
2.1935e-05
-1.61611e-06
2.19475e-05
-5.71477e-06
2.33181e-05
-5.03274e-06
2.23428e-05
-1.05986e-05
2.19582e-05
-9.72808e-06
-1.34112e-05
2.70197e-05
6.41953e-06
5.40625e-06
7.39806e-06
2.86578e-06
8.45011e-06
4.8626e-06
9.92375e-06
1.05784e-06
1.08361e-05
3.65551e-06
1.1993e-05
1.01927e-06
1.29717e-05
2.68923e-06
1.38383e-05
-6.94101e-07
1.465e-05
1.95339e-06
1.55123e-05
-1.72327e-06
1.61035e-05
1.70769e-07
1.70009e-05
-3.25474e-06
1.74293e-05
-1.46473e-06
1.79031e-05
-5.68174e-06
1.81778e-05
-4.86459e-06
1.7214e-05
-9.27457e-06
1.59636e-05
-8.19545e-06
-1.41892e-05
1.69857e-05
7.1635e-06
6.07751e-06
8.61984e-06
3.12441e-06
1.01716e-05
4.97472e-06
1.16631e-05
1.12405e-06
1.27288e-05
4.06367e-06
1.40605e-05
1.0557e-06
1.52077e-05
2.79883e-06
1.6081e-05
-3.98032e-07
1.71311e-05
1.96762e-06
1.80614e-05
-1.70685e-06
1.88512e-05
2.53293e-07
1.98781e-05
-3.51195e-06
2.06935e-05
-1.61548e-06
2.13934e-05
-5.79608e-06
2.15765e-05
-4.53959e-06
2.13026e-05
-8.56659e-06
1.81529e-05
-4.70398e-06
-1.0689e-05
1.49284e-05
8.48875e-06
6.84406e-06
1.03599e-05
3.22114e-06
1.19727e-05
5.26744e-06
1.34303e-05
1.45437e-06
1.48048e-05
4.38216e-06
1.61146e-05
1.30813e-06
1.74297e-05
2.92771e-06
1.84132e-05
-4.50357e-08
1.97336e-05
1.86778e-06
2.05374e-05
-1.42312e-06
2.17412e-05
3.86732e-08
2.22978e-05
-3.18504e-06
2.33428e-05
-1.89205e-06
2.35237e-05
-5.30875e-06
2.38037e-05
-4.23646e-06
2.34064e-05
-7.67589e-06
2.38161e-05
-4.69177e-06
-7.9491e-06
2.13896e-05
9.98901e-06
7.86708e-06
1.21071e-05
3.34364e-06
1.38969e-05
5.64256e-06
1.52563e-05
2.1381e-06
1.70374e-05
4.52326e-06
1.84764e-05
1.64531e-06
1.99484e-05
3.10212e-06
2.11186e-05
2.97373e-07
2.26626e-05
1.71332e-06
2.35325e-05
-1.05476e-06
2.48185e-05
-1.3273e-07
2.53951e-05
-2.75551e-06
2.63755e-05
-1.9809e-06
2.64112e-05
-4.59339e-06
2.71539e-05
-4.32245e-06
2.65708e-05
-6.51698e-06
2.7414e-05
-5.04678e-06
-6.69046e-06
2.65469e-05
1.17655e-05
8.39697e-06
1.38272e-05
3.80809e-06
1.60923e-05
5.81986e-06
1.75738e-05
2.96699e-06
1.96476e-05
4.61102e-06
2.1115e-05
2.18511e-06
2.28901e-05
3.17887e-06
2.41343e-05
7.55281e-07
2.58074e-05
1.59901e-06
2.67576e-05
-6.11465e-07
2.82098e-05
-3.2934e-07
2.88361e-05
-2.25224e-06
2.9983e-05
-2.12259e-06
3.01317e-05
-3.8939e-06
3.07858e-05
-4.2329e-06
3.02903e-05
-5.36426e-06
3.09918e-05
-5.18034e-06
-5.84882e-06
3.06101e-05
1.40064e-05
8.99299e-06
1.6116e-05
4.51227e-06
1.85917e-05
6.07092e-06
2.02396e-05
3.89543e-06
2.24966e-05
4.76065e-06
2.41457e-05
2.76954e-06
2.62283e-05
3.15426e-06
2.75937e-05
1.28138e-06
2.94796e-05
1.44015e-06
3.05739e-05
-1.51809e-07
3.20684e-05
-4.24963e-07
3.28068e-05
-1.7403e-06
3.39661e-05
-2.17093e-06
3.43364e-05
-3.30748e-06
3.47808e-05
-3.84094e-06
3.47599e-05
-4.6109e-06
3.52012e-05
-4.99472e-06
-5.39216e-06
3.52646e-05
1.60957e-05
9.10735e-06
1.84633e-05
5.23488e-06
2.14468e-05
6.09004e-06
2.3511e-05
4.66082e-06
2.60766e-05
4.83599e-06
2.79412e-05
3.35372e-06
3.01512e-05
3.20099e-06
3.1671e-05
1.83075e-06
3.35275e-05
1.46806e-06
3.47327e-05
3.48401e-07
3.61687e-05
-3.27271e-07
3.70337e-05
-1.23727e-06
3.80243e-05
-1.94901e-06
3.85274e-05
-2.74908e-06
3.90346e-05
-3.42162e-06
3.92377e-05
-4.01239e-06
3.94289e-05
-4.50382e-06
-4.87611e-06
3.94808e-05
1.87016e-05
9.5035e-06
2.12226e-05
6.04385e-06
2.44073e-05
6.14196e-06
2.68966e-05
5.2168e-06
2.97227e-05
4.85141e-06
3.18953e-05
3.81397e-06
3.42733e-05
3.25145e-06
3.60424e-05
2.28412e-06
3.78971e-05
1.63624e-06
3.9267e-05
8.07672e-07
4.06024e-05
-2.26068e-08
4.16294e-05
-7.96455e-07
4.25188e-05
-1.53519e-06
4.31437e-05
-2.23413e-06
4.35736e-05
-2.85651e-06
4.38604e-05
-3.43445e-06
4.40152e-05
-3.91725e-06
-4.30569e-06
4.40691e-05
2.1276e-05
9.64619e-06
2.44315e-05
6.3808e-06
2.79414e-05
6.03172e-06
3.09096e-05
5.44927e-06
3.38823e-05
4.86526e-06
3.63649e-05
4.09875e-06
3.87597e-05
3.40612e-06
4.07143e-05
2.65614e-06
4.25525e-05
1.91456e-06
4.41121e-05
1.16087e-06
4.54363e-05
3.69682e-07
4.65528e-05
-3.77262e-07
4.74834e-05
-1.1053e-06
4.8196e-05
-1.75095e-06
4.87137e-05
-2.32347e-06
4.90122e-05
-2.82803e-06
4.91134e-05
-3.24361e-06
-3.58329e-06
4.90511e-05
2.42401e-05
9.43984e-06
2.78289e-05
6.35857e-06
3.15008e-05
5.83474e-06
3.48825e-05
5.33613e-06
3.80323e-05
4.75777e-06
4.08525e-05
4.09427e-06
4.34352e-05
3.41303e-06
4.57781e-05
2.67809e-06
4.78686e-05
1.97579e-06
4.96951e-05
1.28154e-06
5.12048e-05
6.07249e-07
5.24142e-05
-2.54853e-08
5.33039e-05
-6.0829e-07
5.39659e-05
-1.1946e-06
5.44009e-05
-1.69179e-06
5.4639e-05
-2.14723e-06
5.47225e-05
-2.53035e-06
-2.86621e-06
5.46831e-05
2.44521e-05
9.1586e-06
2.79446e-05
5.95563e-06
3.13841e-05
5.40299e-06
3.45664e-05
4.97642e-06
3.7439e-05
4.51258e-06
4.00258e-05
3.93857e-06
4.23649e-05
3.3081e-06
4.44693e-05
2.61999e-06
4.63311e-05
1.97382e-06
4.7971e-05
1.32189e-06
4.93397e-05
7.47072e-07
5.04623e-05
2.00262e-07
5.13339e-05
-2.84355e-07
5.19596e-05
-7.69792e-07
5.2425e-05
-1.23203e-06
5.27326e-05
-1.65547e-06
5.28873e-05
-1.9993e-06
-2.31059e-06
5.29137e-05
2.17484e-05
8.38186e-06
2.46704e-05
5.37101e-06
2.75223e-05
4.84375e-06
3.01816e-05
4.4737e-06
3.26288e-05
4.07902e-06
3.48413e-05
3.58864e-06
3.68246e-05
3.03755e-06
3.85732e-05
2.44217e-06
4.00938e-05
1.87889e-06
4.14129e-05
1.29025e-06
4.25444e-05
7.73315e-07
4.34733e-05
3.01076e-07
4.42327e-05
-1.28688e-07
4.47711e-05
-5.03169e-07
4.51673e-05
-9.24608e-07
4.54109e-05
-1.28922e-06
4.55569e-05
-1.62325e-06
-1.88587e-06
4.55774e-05
1.95211e-05
7.18774e-06
2.20004e-05
4.71898e-06
2.43719e-05
4.26227e-06
2.66075e-05
3.92237e-06
2.86768e-05
3.57933e-06
3.0549e-05
3.16949e-06
3.22428e-05
2.68174e-06
3.37502e-05
2.16033e-06
3.50689e-05
1.67325e-06
3.62034e-05
1.16145e-06
3.71612e-05
7.19555e-07
3.79459e-05
3.20001e-07
3.85829e-05
-5.20769e-08
3.90654e-05
-3.59367e-07
3.93717e-05
-6.83717e-07
3.95775e-05
-1.02001e-06
3.96553e-05
-1.29768e-06
-1.5358e-06
3.96472e-05
1.71678e-05
6.53695e-06
1.91425e-05
4.18783e-06
2.12201e-05
3.60761e-06
2.32479e-05
3.232e-06
2.51178e-05
2.95492e-06
2.68006e-05
2.64548e-06
2.8289e-05
2.26231e-06
2.95872e-05
1.8386e-06
3.07255e-05
1.42387e-06
3.1706e-05
9.83886e-07
3.25676e-05
5.7528e-07
3.32871e-05
2.40408e-07
3.38721e-05
-7.29551e-08
3.43484e-05
-3.40085e-07
3.4656e-05
-5.59506e-07
3.48445e-05
-8.3663e-07
3.49323e-05
-1.06654e-06
-1.26837e-06
3.49322e-05
1.47558e-05
5.49577e-06
1.6853e-05
3.26121e-06
1.88066e-05
2.80884e-06
2.06025e-05
2.52146e-06
2.22432e-05
2.32911e-06
2.3718e-05
2.1136e-06
2.50089e-05
1.84067e-06
2.61312e-05
1.51203e-06
2.71274e-05
1.15236e-06
2.79832e-05
7.81625e-07
2.87029e-05
4.40616e-07
2.93142e-05
1.47972e-07
2.98031e-05
-1.055e-07
3.01896e-05
-3.27734e-07
3.04867e-05
-5.12023e-07
3.06503e-05
-7.0379e-07
3.07582e-05
-9.22458e-07
-1.08921e-06
3.07896e-05
1.34316e-05
4.33701e-06
1.5197e-05
2.46204e-06
1.68403e-05
2.1256e-06
1.83436e-05
1.92224e-06
1.97329e-05
1.78223e-06
2.10087e-05
1.61841e-06
2.2154e-05
1.41388e-06
2.31678e-05
1.15679e-06
2.40757e-05
8.42557e-07
2.48435e-05
5.54728e-07
2.54936e-05
2.74682e-07
2.60293e-05
4.0519e-08
2.64695e-05
-1.67614e-07
2.68171e-05
-3.47041e-07
2.70915e-05
-5.02805e-07
2.72506e-05
-6.20296e-07
2.73103e-05
-7.77593e-07
-9.2447e-07
2.73164e-05
1.17603e-05
3.41293e-06
1.33325e-05
1.70513e-06
1.48285e-05
1.44021e-06
1.61749e-05
1.33925e-06
1.74257e-05
1.24183e-06
1.85962e-05
1.10565e-06
1.96904e-05
9.25019e-07
2.06597e-05
7.40005e-07
2.14831e-05
5.22007e-07
2.21736e-05
3.18145e-07
2.27336e-05
1.20461e-07
2.31995e-05
-6.46645e-08
2.35634e-05
-2.1547e-07
2.38404e-05
-3.4894e-07
2.40318e-05
-4.57569e-07
2.41759e-05
-5.6364e-07
2.42359e-05
-6.68843e-07
-7.80444e-07
2.42308e-05
1.07785e-05
2.69751e-06
1.20982e-05
1.08375e-06
1.34652e-05
7.68743e-07
1.47133e-05
7.4415e-07
1.5827e-05
7.36032e-07
1.68302e-05
6.64834e-07
1.77346e-05
5.37091e-07
1.85321e-05
4.15129e-07
1.92163e-05
2.67285e-07
1.97955e-05
1.27113e-07
2.02754e-05
-1.11639e-08
2.06522e-05
-1.32877e-07
2.09535e-05
-2.4628e-07
2.11833e-05
-3.44968e-07
2.13651e-05
-4.39793e-07
2.14945e-05
-5.24737e-07
2.15733e-05
-6.07961e-07
-7.00623e-07
2.16085e-05
9.73057e-06
1.4143e-06
1.10708e-05
3.50312e-07
1.22321e-05
2.11926e-07
1.32672e-05
2.76528e-07
1.42134e-05
3.16577e-07
1.50715e-05
2.93877e-07
1.5845e-05
2.11179e-07
1.6521e-05
1.47717e-07
1.70997e-05
5.95777e-08
1.7591e-05
-2.934e-08
1.79975e-05
-1.17874e-07
1.83169e-05
-1.86615e-07
1.85706e-05
-2.6747e-07
1.87632e-05
-3.36642e-07
1.88972e-05
-4.02775e-07
1.89843e-05
-4.68188e-07
1.90287e-05
-5.33227e-07
-5.68144e-07
1.89937e-05
8.36135e-06
5.96827e-07
9.70421e-06
-4.58599e-07
1.084e-05
-3.9637e-07
1.18068e-05
-1.95492e-07
1.26315e-05
-4.81146e-08
1.33334e-05
1.77716e-08
1.39334e-05
2.6382e-09
1.44452e-05
-6.07411e-09
1.48683e-05
-3.81803e-08
1.52098e-05
-7.70714e-08
1.5471e-05
-1.16468e-07
1.56731e-05
-1.56296e-07
1.58117e-05
-2.03239e-07
1.58983e-05
-2.48788e-07
1.59347e-05
-2.91369e-07
1.5919e-05
-3.2905e-07
1.58567e-05
-3.69708e-07
-4.08918e-07
1.57791e-05
7.80011e-06
-2.01812e-07
8.8194e-06
-1.0084e-06
9.5938e-06
-7.04868e-07
1.02196e-05
-3.84786e-07
1.07257e-05
-1.48801e-07
1.11302e-05
-1.11755e-08
1.14498e-05
2.87494e-08
1.17214e-05
3.8878e-08
1.19434e-05
2.73416e-08
1.21158e-05
9.1943e-09
1.22405e-05
-1.11995e-08
1.23225e-05
-3.63257e-08
1.2357e-05
-6.32053e-08
1.23585e-05
-1.01534e-07
1.2309e-05
-1.16958e-07
1.22238e-05
-1.40756e-07
1.21235e-05
-1.86533e-07
-2.04859e-07
1.19855e-05
6.82438e-06
-8.28789e-07
7.16973e-06
-9.42337e-07
7.34823e-06
-4.74022e-07
7.51361e-06
-1.65479e-07
7.69389e-06
2.90223e-08
7.8908e-06
1.23375e-07
8.08706e-06
1.36926e-07
8.28063e-06
1.22352e-07
8.45273e-06
1.04659e-07
8.60671e-06
7.73351e-08
8.73429e-06
5.65682e-08
8.83287e-06
3.46567e-08
8.89985e-06
1.5236e-08
8.93445e-06
-1.2965e-08
8.93767e-06
-1.73108e-08
8.91525e-06
-3.39768e-08
8.88104e-06
-8.46068e-08
-9.37903e-08
8.82568e-06
4.7016e-06
4.13732e-06
4.02909e-06
4.20597e-06
4.55335e-06
4.97058e-06
5.37682e-06
5.7443e-06
6.07047e-06
6.34638e-06
6.57939e-06
6.76935e-06
6.91996e-06
7.02376e-06
7.10603e-06
7.15586e-06
7.14163e-06
7.10669e-06
-2.29558e-07
-5.38806e-07
-4.29768e-07
-6.00786e-07
-6.55778e-07
-5.88235e-07
-8.76575e-07
-5.98115e-07
-1.08801e-06
-6.11815e-07
-1.30429e-06
-6.12082e-07
-1.52253e-06
-6.15371e-07
-1.7446e-06
-6.1626e-07
-2.00449e-06
-5.81907e-07
-2.31988e-06
-5.29107e-07
-2.70877e-06
-4.57962e-07
-3.13811e-06
-4.20383e-07
-3.53509e-06
-4.55772e-07
-3.9214e-06
-4.66832e-07
-4.44518e-06
-3.26465e-07
-5.1188e-06
-1.7163e-07
-5.80166e-06
-1.56447e-07
-6.48211e-06
-1.55328e-07
-7.21751e-06
-8.59897e-08
-8.10229e-06
9.15836e-08
-9.22786e-06
3.42943e-07
-1.05529e-05
5.35752e-07
-1.20396e-05
7.00787e-07
-1.36882e-05
8.76363e-07
-1.54865e-05
1.03812e-06
-1.73755e-05
1.13312e-06
-1.92627e-05
1.13788e-06
-2.10643e-05
1.07204e-06
-2.27579e-05
9.93877e-07
-2.43382e-05
9.14884e-07
-2.57971e-05
8.30443e-07
-2.71282e-05
7.42687e-07
-2.8343e-05
6.6948e-07
-2.94448e-05
6.03687e-07
-3.0438e-05
5.47236e-07
-3.13351e-05
5.07453e-07
-3.21423e-05
4.77632e-07
-3.28461e-05
4.38247e-07
-3.34829e-05
4.39997e-07
-3.40335e-05
4.27258e-07
-3.44968e-05
4.18433e-07
-3.48987e-05
4.39553e-07
-3.52447e-05
4.7081e-07
-3.55451e-05
5.1623e-07
-3.57815e-05
5.47107e-07
-3.59918e-05
6.18763e-07
-3.61774e-05
6.92043e-07
-3.63314e-05
7.61042e-07
-3.64246e-05
8.0326e-07
-3.64566e-05
8.46181e-07
-3.6429e-05
8.92837e-07
-3.63408e-05
9.41761e-07
-3.62028e-05
1.005e-06
-3.60148e-05
1.0711e-06
-3.58022e-05
1.16374e-06
-3.55205e-05
1.2131e-06
-3.52252e-05
1.32409e-06
-3.4929e-05
1.45288e-06
-3.45574e-05
1.50667e-06
-3.4077e-05
1.52241e-06
-3.34933e-05
1.53838e-06
-3.28788e-05
1.62657e-06
-3.22922e-05
1.77801e-06
-3.17232e-05
1.92403e-06
-3.11309e-05
2.03116e-06
-3.05479e-05
2.17151e-06
-2.98838e-05
2.21795e-06
-2.90976e-05
2.21685e-06
-2.82193e-05
2.24331e-06
-2.73405e-05
2.36893e-06
-2.65076e-05
2.55362e-06
-2.57501e-05
2.77647e-06
-2.503e-05
2.95424e-06
-2.43027e-05
3.07462e-06
-2.35943e-05
3.22094e-06
-2.28622e-05
3.33292e-06
-2.21167e-05
3.46011e-06
-2.1394e-05
3.62257e-06
-2.07183e-05
3.81879e-06
-2.01924e-05
4.15076e-06
-1.97772e-05
4.45673e-06
-1.94439e-05
4.68461e-06
-1.92332e-05
4.92119e-06
-1.86167e-05
4.66272e-06
-1.71626e-05
4.01623e-06
-1.54308e-05
3.93677e-06
-1.37312e-05
4.1271e-06
-1.19053e-05
4.15045e-06
-9.91236e-06
4.16064e-06
-8.03518e-06
4.42309e-06
-6.77954e-06
5.16946e-06
-5.8903e-06
5.75194e-06
-4.59769e-06
5.51664e-06
-2.85066e-06
5.06187e-06
-1.65974e-06
5.61187e-06
-1.74018e-06
6.90122e-06
-3.13706e-06
8.28209e-06
-5.29694e-06
9.12849e-06
-7.38676e-06
9.1942e-06
-8.93739e-06
8.75958e-06
-1.01425e-05
8.42392e-06
-1.11418e-05
8.27789e-06
-1.19255e-05
8.20027e-06
-1.26656e-05
8.28267e-06
-1.34549e-05
8.4739e-06
-1.39648e-05
8.37788e-06
-1.39555e-05
7.9629e-06
-1.33956e-05
7.36343e-06
-1.20924e-05
6.50872e-06
-9.5801e-06
5.2969e-06
-6.06936e-06
4.39672e-06
-3.10057e-06
5.05293e-06
-1.79898e-06
6.87658e-06
-1.49773e-06
8.04856e-06
9.05599e-07
5.77924e-06
2.70665e-06
6.51634e-06
4.23036e-06
6.80623e-06
5.40065e-06
7.1853e-06
6.26445e-06
7.50443e-06
6.65866e-06
7.9732e-06
7.02011e-06
7.99193e-06
7.43154e-06
7.93174e-06
7.71749e-06
8.04688e-06
7.80631e-06
8.22754e-06
7.57495e-06
8.51801e-06
7.00799e-06
8.81382e-06
6.15865e-06
9.0384e-06
5.07036e-06
9.21699e-06
3.8266e-06
9.33045e-06
2.24959e-06
9.59184e-06
4.92862e-07
9.76122e-06
-1.55732e-06
1.00686e-05
-3.63753e-06
1.01317e-05
-5.61006e-06
1.00707e-05
-7.54995e-06
1.00982e-05
-9.3995e-06
1.00703e-05
-1.10196e-05
9.95662e-06
-1.24796e-05
9.99057e-06
-1.37067e-05
1.00062e-05
-1.46657e-05
1.00032e-05
-1.53309e-05
9.97893e-06
-1.56397e-05
9.90248e-06
-1.56425e-05
9.89714e-06
-1.54542e-05
1.00374e-05
-1.52104e-05
1.03125e-05
-1.46672e-05
1.02835e-05
-1.3808e-05
1.01682e-05
-1.26743e-05
1.01315e-05
-1.11009e-05
9.97115e-06
-8.57908e-06
9.31255e-06
-5.44051e-06
8.91255e-06
-2.17025e-06
8.84643e-06
7.14449e-07
9.02562e-06
2.22731e-06
1.01253e-05
1.59231e-06
1.22874e-05
-3.97656e-07
1.38316e-05
-2.06446e-06
1.35356e-05
-2.68869e-06
1.24178e-05
-2.20441e-06
1.11465e-05
-1.1623e-06
1.03651e-05
-4.15372e-07
1.03787e-05
6.05603e-07
9.89019e-06
2.09516e-06
9.18848e-06
4.52049e-06
7.78522e-06
1.00141e-05
4.48903e-06
1.45519e-05
5.57861e-06
1.78789e-05
6.63918e-06
1.99364e-05
7.96851e-06
2.0815e-05
9.09648e-06
2.09655e-05
9.74335e-06
2.08732e-05
9.93072e-06
2.06957e-05
9.95159e-06
2.03185e-05
1.00646e-05
2.00276e-05
9.83573e-06
1.97458e-05
9.65688e-06
1.92992e-05
9.6393e-06
1.8902e-05
9.4408e-06
1.85686e-05
9.15346e-06
1.77189e-05
9.46853e-06
9.44695e-06
1.65504e-05
-3.01888e-07
-1.00811e-06
-5.97649e-07
-1.11088e-06
-9.32273e-07
-1.07077e-06
-1.28042e-06
-1.07193e-06
-1.61136e-06
-1.11007e-06
-1.89757e-06
-1.16263e-06
-2.10411e-06
-1.25312e-06
-2.26164e-06
-1.30558e-06
-2.43072e-06
-1.257e-06
-2.66708e-06
-1.13626e-06
-3.10053e-06
-8.73323e-07
-3.71211e-06
-6.66023e-07
-4.42424e-06
-6.02952e-07
-5.15233e-06
-5.85099e-07
-5.93981e-06
-3.65904e-07
-6.89909e-06
-3.75147e-08
-8.13081e-06
2.3662e-07
-9.62633e-06
5.03926e-07
-1.13133e-05
7.89175e-07
-1.30986e-05
1.08668e-06
-1.49421e-05
1.38858e-06
-1.68391e-05
1.62028e-06
-1.8715e-05
1.7754e-06
-2.05023e-05
1.87098e-06
-2.21656e-05
1.91799e-06
-2.36929e-05
1.89943e-06
-2.51189e-05
1.8197e-06
-2.6492e-05
1.71554e-06
-2.779e-05
1.58475e-06
-2.90061e-05
1.45843e-06
-3.01267e-05
1.31208e-06
-3.11782e-05
1.1945e-06
-3.21223e-05
1.06058e-06
-3.30016e-05
9.75179e-07
-3.37893e-05
8.85441e-07
-3.4485e-05
8.13353e-07
-3.51098e-05
7.67102e-07
-3.56843e-05
7.4386e-07
-3.61677e-05
7.25503e-07
-3.65754e-05
7.1464e-07
-3.69104e-05
7.18291e-07
-3.71876e-05
7.66186e-07
-3.74049e-05
8.27882e-07
-3.75714e-05
9.16807e-07
-3.77215e-05
1.02921e-06
-3.78419e-05
1.17071e-06
-3.79402e-05
1.30975e-06
-3.79781e-05
1.40979e-06
-3.79804e-05
1.51371e-06
-3.79383e-05
1.6016e-06
-3.78128e-05
1.65986e-06
-3.76173e-05
1.74139e-06
-3.73567e-05
1.84785e-06
-3.70408e-05
1.96703e-06
-3.66531e-05
2.08761e-06
-3.62798e-05
2.25336e-06
-3.58709e-05
2.4595e-06
-3.54237e-05
2.72038e-06
-3.48578e-05
2.82554e-06
-3.41674e-05
2.84021e-06
-3.33879e-05
2.84405e-06
-3.25896e-05
2.9865e-06
-3.18359e-05
3.29118e-06
-3.11235e-05
3.62369e-06
-3.03957e-05
3.88602e-06
-2.95478e-05
4.08523e-06
-2.86617e-05
4.25453e-06
-2.76723e-05
4.25569e-06
-2.66265e-05
4.28883e-06
-2.55155e-05
4.42071e-06
-2.44129e-05
4.73418e-06
-2.33086e-05
5.14444e-06
-2.23045e-05
5.63814e-06
-2.13809e-05
5.99927e-06
-2.0388e-05
6.16909e-06
-1.93668e-05
6.35986e-06
-1.84652e-05
6.75518e-06
-1.7894e-05
7.40126e-06
-1.77118e-05
8.10362e-06
-1.7834e-05
8.83806e-06
-1.7853e-05
9.26108e-06
-1.75489e-05
9.4809e-06
-1.72354e-05
9.85224e-06
-1.666e-05
9.31008e-06
-1.51833e-05
7.83866e-06
-1.32459e-05
7.54278e-06
-1.11307e-05
7.83132e-06
-8.98501e-06
8.0042e-06
-6.74043e-06
8.17957e-06
-4.78516e-06
8.93792e-06
-3.24975e-06
1.02269e-05
-1.85352e-06
1.12031e-05
-1.55696e-06
1.21447e-05
-3.24556e-06
1.3611e-05
-6.35789e-06
1.56884e-05
-9.82476e-06
1.74087e-05
-1.27311e-05
1.82474e-05
-1.46236e-05
1.80351e-05
-1.57775e-05
1.7403e-05
-1.65311e-05
1.67033e-05
-1.67421e-05
1.59553e-05
-1.67179e-05
1.55485e-05
-1.65734e-05
1.54033e-05
-1.64861e-05
1.56574e-05
-1.63102e-05
1.58909e-05
-1.59126e-05
1.57015e-05
-1.53157e-05
1.51678e-05
-1.4165e-05
1.4011e-05
-1.22936e-05
1.23736e-05
-9.66981e-06
1.03577e-05
-6.72857e-06
9.06669e-06
-4.83059e-06
1.07559e-05
-3.18063e-06
1.29341e-05
-1.16136e-06
1.40145e-05
1.47178e-06
1.09375e-05
3.02563e-06
1.29422e-05
5.05516e-06
1.27764e-05
6.46079e-06
1.38707e-05
7.64111e-06
1.44783e-05
8.23231e-06
1.55603e-05
8.78094e-06
1.56106e-05
9.4565e-06
1.54265e-05
1.01794e-05
1.54931e-05
1.08806e-05
1.56975e-05
1.12914e-05
1.62813e-05
1.12291e-05
1.7026e-05
1.1001e-05
1.73391e-05
1.06895e-05
1.75577e-05
1.01917e-05
1.78718e-05
9.53249e-06
1.83077e-05
8.62252e-06
1.87617e-05
7.27297e-06
1.95768e-05
5.39884e-06
2.02516e-05
3.32087e-06
2.05152e-05
1.1999e-06
2.07259e-05
-9.44856e-07
2.08767e-05
-3.24028e-06
2.10769e-05
-5.37212e-06
2.11531e-05
-7.22579e-06
2.11421e-05
-8.7487e-06
2.11134e-05
-9.90329e-06
2.11439e-05
-1.06021e-05
2.10352e-05
-1.08963e-05
2.09697e-05
-1.09614e-05
2.12172e-05
-1.08634e-05
2.17353e-05
-1.04433e-05
2.18406e-05
-9.782e-06
2.17021e-05
-8.95135e-06
2.16553e-05
-7.2818e-06
2.10715e-05
-4.76187e-06
2.00848e-05
-1.51978e-06
1.91643e-05
9.6025e-07
1.95935e-05
8.87669e-07
2.17101e-05
-2.10102e-06
2.53594e-05
-5.19368e-06
2.80609e-05
-6.99647e-06
2.855e-05
-7.62495e-06
2.6809e-05
-6.97202e-06
2.40389e-05
-5.95729e-06
2.21632e-05
-4.40534e-06
2.08601e-05
-2.80521e-06
2.05534e-05
-7.56342e-07
1.8961e-05
1.49461e-06
1.81362e-05
5.7979e-06
1.38903e-05
1.12369e-05
8.63131e-06
1.5348e-05
1.10228e-05
1.96817e-05
1.18075e-05
2.27794e-05
1.48629e-05
2.50642e-05
1.70581e-05
2.61192e-05
1.90989e-05
2.62762e-05
2.03033e-05
2.60293e-05
2.07143e-05
2.57126e-05
2.08251e-05
2.49166e-05
2.09276e-05
2.40311e-05
2.07682e-05
2.28616e-05
2.08968e-05
2.20001e-05
2.0304e-05
2.098e-05
1.9967e-05
1.99554e-05
2.01643e-05
1.97799e-05
1.88514e-05
-3.75871e-07
-1.40279e-06
-7.96417e-07
-1.48635e-06
-1.27333e-06
-1.40634e-06
-1.7452e-06
-1.42005e-06
-2.20996e-06
-1.47179e-06
-2.63542e-06
-1.5771e-06
-2.9873e-06
-1.75048e-06
-3.39415e-06
-1.7305e-06
-3.93486e-06
-1.52436e-06
-4.50446e-06
-1.37416e-06
-5.17626e-06
-1.0202e-06
-6.01041e-06
-6.57121e-07
-6.96697e-06
-4.90223e-07
-8.18017e-06
-2.28645e-07
-9.48866e-06
1.02367e-07
-1.08958e-05
5.36386e-07
-1.24179e-05
9.35512e-07
-1.40531e-05
1.33545e-06
-1.57517e-05
1.67493e-06
-1.74182e-05
1.92485e-06
-1.89731e-05
2.10694e-06
-2.04229e-05
2.24465e-06
-2.17846e-05
2.3163e-06
-2.30572e-05
2.31357e-06
-2.42544e-05
2.2959e-06
-2.53805e-05
2.21397e-06
-2.64706e-05
2.10444e-06
-2.75195e-05
1.98918e-06
-2.852e-05
1.84814e-06
-2.94787e-05
1.71244e-06
-3.04037e-05
1.56763e-06
-3.12368e-05
1.40857e-06
-3.20449e-05
1.29914e-06
-3.27699e-05
1.17565e-06
-3.34372e-05
1.07931e-06
-3.40552e-05
1.02449e-06
-3.4615e-05
9.88331e-07
-3.5125e-05
9.77537e-07
-3.56085e-05
9.9731e-07
-3.60477e-05
1.01931e-06
-3.64249e-05
1.05665e-06
-3.6744e-05
1.1358e-06
-3.70436e-05
1.26909e-06
-3.72714e-05
1.38536e-06
-3.74406e-05
1.54631e-06
-3.7538e-05
1.74195e-06
-3.75924e-05
1.93751e-06
-3.76172e-05
2.09989e-06
-3.7609e-05
2.27613e-06
-3.76021e-05
2.43959e-06
-3.75438e-05
2.52605e-06
-3.74302e-05
2.64802e-06
-3.7233e-05
2.76448e-06
-3.70246e-05
2.95694e-06
-3.68056e-05
3.13937e-06
-3.64564e-05
3.27458e-06
-3.60492e-05
3.56848e-06
-3.55061e-05
3.87935e-06
-3.48758e-05
4.05749e-06
-3.42262e-05
4.11888e-06
-3.35653e-05
4.12414e-06
-3.28962e-05
4.30725e-06
-3.22098e-05
4.72233e-06
-3.14429e-05
5.15268e-06
-3.05165e-05
5.44907e-06
-2.94985e-05
5.73353e-06
-2.84593e-05
6.0356e-06
-2.75372e-05
6.2284e-06
-2.67054e-05
6.35188e-06
-2.58475e-05
6.48938e-06
-2.49187e-05
6.87124e-06
-2.39074e-05
7.42258e-06
-2.27643e-05
8.00104e-06
-2.16021e-05
8.53093e-06
-2.02473e-05
8.59156e-06
-1.87622e-05
8.74697e-06
-1.73737e-05
9.47021e-06
-1.59792e-05
1.02637e-05
-1.4735e-05
1.11841e-05
-1.40864e-05
1.25545e-05
-1.39534e-05
1.35369e-05
-1.36958e-05
1.40252e-05
-1.34667e-05
1.48522e-05
-1.34211e-05
1.45287e-05
-1.29761e-05
1.25393e-05
-1.19198e-05
1.15789e-05
-1.02802e-05
1.14977e-05
-8.09272e-06
1.14565e-05
-5.91495e-06
1.19946e-05
-4.27216e-06
1.35909e-05
-3.53841e-06
1.60692e-05
-4.43e-06
1.87134e-05
-7.23169e-06
2.1375e-05
-1.05755e-05
2.34959e-05
-1.33977e-05
2.53134e-05
-1.55527e-05
2.64918e-05
-1.68841e-05
2.63974e-05
-1.75431e-05
2.54405e-05
-1.76654e-05
2.43559e-05
-1.73905e-05
2.32581e-05
-1.71336e-05
2.24724e-05
-1.68722e-05
2.20459e-05
-1.636e-05
2.17802e-05
-1.56975e-05
2.19432e-05
-1.46611e-05
2.1914e-05
-1.35253e-05
2.17122e-05
-1.24365e-05
2.14132e-05
-1.117e-05
2.02681e-05
-9.65935e-06
1.84893e-05
-7.9214e-06
1.62414e-05
-6.34889e-06
1.49995e-05
-5.05978e-06
1.69531e-05
-2.78474e-06
1.80686e-05
1.33279e-07
1.83117e-05
1.96649e-06
1.66655e-05
3.32761e-06
1.91263e-05
5.44871e-06
1.81848e-05
6.88314e-06
2.00983e-05
8.16091e-06
2.09883e-05
8.96765e-06
2.2676e-05
9.46601e-06
2.30763e-05
9.90057e-06
2.29908e-05
1.03656e-05
2.29934e-05
1.09668e-05
2.3006e-05
1.13979e-05
2.37205e-05
1.12289e-05
2.49823e-05
1.08784e-05
2.52686e-05
1.0607e-05
2.53061e-05
1.02784e-05
2.56885e-05
1.00071e-05
2.6085e-05
9.61662e-06
2.67035e-05
8.9352e-06
2.79334e-05
7.67722e-06
2.92568e-05
6.26173e-06
2.97521e-05
4.53621e-06
3.03594e-05
2.67757e-06
3.08165e-05
8.87862e-07
3.12093e-05
-8.56173e-07
3.15464e-05
-2.53561e-06
3.18231e-05
-4.29292e-06
3.20556e-05
-5.95532e-06
3.2237e-05
-6.95399e-06
3.198e-05
-7.2185e-06
3.1718e-05
-7.21377e-06
3.21542e-05
-7.36723e-06
3.3297e-05
-7.52629e-06
3.39722e-05
-7.38044e-06
3.39487e-05
-6.93059e-06
3.38008e-05
-5.46228e-06
3.2676e-05
-3.07672e-06
3.11234e-05
-1.07436e-06
3.04068e-05
-7.77468e-07
3.18865e-05
-2.77804e-06
3.61721e-05
-5.99049e-06
4.14393e-05
-8.00247e-06
4.37027e-05
-8.60062e-06
4.22986e-05
-7.98653e-06
3.83011e-05
-6.72788e-06
3.38648e-05
-5.06147e-06
3.16157e-05
-2.13624e-06
2.93899e-05
2.8344e-07
3.02482e-05
3.18092e-06
2.78355e-05
5.76204e-06
2.75356e-05
8.58065e-06
2.17969e-05
1.2846e-05
1.33838e-05
1.66106e-05
1.63932e-05
1.94006e-05
1.81724e-05
2.23117e-05
2.14057e-05
2.52012e-05
2.36856e-05
2.74364e-05
2.67397e-05
2.85746e-05
2.92761e-05
2.88594e-05
3.03728e-05
2.88972e-05
3.0443e-05
2.86984e-05
3.05524e-05
2.81449e-05
3.0975e-05
2.6982e-05
3.2097e-05
2.58188e-05
3.16178e-05
2.4634e-05
3.10782e-05
2.31776e-05
3.09812e-05
3.00987e-05
2.17268e-05
-3.58891e-07
-1.81985e-06
-7.1173e-07
-1.92975e-06
-1.10291e-06
-1.83298e-06
-1.47e-06
-1.87946e-06
-1.896e-06
-1.88586e-06
-2.49139e-06
-1.84218e-06
-3.31111e-06
-1.77923e-06
-4.13917e-06
-1.69561e-06
-4.88244e-06
-1.5705e-06
-5.74572e-06
-1.3522e-06
-6.64398e-06
-9.81107e-07
-7.6135e-06
-5.3512e-07
-8.71925e-06
-2.21603e-07
-1.00419e-05
2.63386e-07
-1.15535e-05
7.80507e-07
-1.30994e-05
1.2724e-06
-1.46319e-05
1.63721e-06
-1.61094e-05
1.93748e-06
-1.74885e-05
2.19988e-06
-1.87684e-05
2.35236e-06
-1.9971e-05
2.42343e-06
-2.10772e-05
2.45085e-06
-2.21293e-05
2.46081e-06
-2.31516e-05
2.42749e-06
-2.41474e-05
2.40405e-06
-2.51657e-05
2.35503e-06
-2.61639e-05
2.27134e-06
-2.71164e-05
2.16307e-06
-2.80342e-05
2.01694e-06
-2.88829e-05
1.87044e-06
-2.96859e-05
1.71566e-06
-3.046e-05
1.5513e-06
-3.11567e-05
1.40386e-06
-3.17876e-05
1.25661e-06
-3.23948e-05
1.18472e-06
-3.29542e-05
1.12027e-06
-3.34497e-05
1.07861e-06
-3.38907e-05
1.08726e-06
-3.42824e-05
1.14072e-06
-3.46755e-05
1.22613e-06
-3.50706e-05
1.32218e-06
-3.54373e-05
1.48103e-06
-3.57736e-05
1.6747e-06
-3.61011e-05
1.85111e-06
-3.6382e-05
2.06774e-06
-3.65865e-05
2.31241e-06
-3.66936e-05
2.52431e-06
-3.66972e-05
2.7095e-06
-3.6631e-05
2.95024e-06
-3.64966e-05
3.15851e-06
-3.6358e-05
3.34588e-06
-3.62129e-05
3.56562e-06
-3.60268e-05
3.75331e-06
-3.58023e-05
4.02341e-06
-3.55192e-05
4.24812e-06
-3.52304e-05
4.49037e-06
-3.48431e-05
4.80582e-06
-3.43067e-05
5.06409e-06
-3.36968e-05
5.27074e-06
-3.31279e-05
5.4492e-06
-3.25817e-05
5.54345e-06
-3.1944e-05
5.74943e-06
-3.11865e-05
6.20177e-06
-3.03551e-05
6.69212e-06
-2.94967e-05
7.03457e-06
-2.84826e-05
7.22821e-06
-2.7439e-05
7.6477e-06
-2.65911e-05
8.20408e-06
-2.59358e-05
8.58685e-06
-2.53467e-05
8.78314e-06
-2.46663e-05
9.09312e-06
-2.37845e-05
9.56242e-06
-2.27492e-05
1.01647e-05
-2.14314e-05
1.07175e-05
-1.99337e-05
1.08544e-05
-1.86378e-05
1.11518e-05
-1.74926e-05
1.21691e-05
-1.59756e-05
1.28717e-05
-1.42113e-05
1.35917e-05
-1.27187e-05
1.54129e-05
-1.13421e-05
1.65473e-05
-1.0219e-05
1.72434e-05
-9.54398e-06
1.8868e-05
-8.97403e-06
1.91187e-05
-8.69639e-06
1.76124e-05
-8.80748e-06
1.68885e-05
-8.36445e-06
1.63147e-05
-7.32219e-06
1.59627e-05
-6.78365e-06
1.72547e-05
-7.10997e-06
1.99817e-05
-8.3684e-06
2.3583e-05
-1.04034e-05
2.69764e-05
-1.25179e-05
2.97057e-05
-1.45624e-05
3.18359e-05
-1.60957e-05
3.33148e-05
-1.67179e-05
3.38004e-05
-1.67782e-05
3.305e-05
-1.66045e-05
3.18468e-05
-1.63647e-05
3.06461e-05
-1.62651e-05
2.95998e-05
-1.63557e-05
2.89563e-05
-1.60974e-05
2.81092e-05
-1.54538e-05
2.74593e-05
-1.4549e-05
2.75056e-05
-1.33072e-05
2.73654e-05
-1.20301e-05
2.72705e-05
-1.07821e-05
2.71802e-05
-9.49817e-06
2.61454e-05
-8.06242e-06
2.4386e-05
-6.45702e-06
2.20725e-05
-4.89427e-06
2.07431e-05
-3.04765e-06
2.23523e-05
-7.29081e-07
2.30643e-05
1.37848e-06
2.34093e-05
2.49626e-06
2.31664e-05
4.10754e-06
2.49107e-05
5.94783e-06
2.35598e-05
7.41004e-06
2.58963e-05
8.741e-06
2.69141e-05
9.93947e-06
2.88653e-05