/*--------------------------------*- C++ -*----------------------------------*\
| =========                 |                                                 |
| \\      /  F ield         | OpenFOAM: The Open Source CFD Toolbox           |
|  \\    /   O peration     | Version:  dev                                   |
|   \\  /    A nd           | Web:      http://www.openfoam.org               |
|    \\/     M anipulation  |                                                 |
\*---------------------------------------------------------------------------*/
FoamFile
{
    version     2.0;
    format      ascii;
    class       surfaceScalarField;
    object      phi_0;
    location    "9.132";
}
// * * * * * * * * * * * * * * * * * * * * * * * * * * * * * * * * * * * * * //

dimensions      [1 0 -1 0 0 0 0];

internalField   nonuniform List<scalar> 
24170
(
2.90236e-06
1.47578e-06
2.71655e-06
8.01889e-07
3.08061e-06
2.42591e-07
3.6581e-06
-5.70946e-09
4.25084e-06
-5.23656e-08
5.03112e-06
-2.87483e-07
5.50808e-06
-2.27682e-08
6.34671e-06
-4.35063e-07
6.80951e-06
-1.01907e-07
7.71014e-06
-5.88448e-07
8.24134e-06
-2.59181e-07
9.32532e-06
-8.60787e-07
9.6983e-06
-1.8158e-07
1.18242e-05
-1.97681e-06
1.15785e-05
3.39037e-07
1.43079e-05
-2.58787e-06
2.12199e-05
-6.84373e-06
-7.89652e-06
2.90869e-05
4.81131e-06
1.62077e-06
4.88709e-06
1.46439e-06
5.14807e-06
7.0807e-07
5.37785e-06
4.48795e-07
5.8815e-06
9.07558e-08
6.48099e-06
-2.93021e-07
7.05021e-06
-4.41367e-08
7.95571e-06
-8.45734e-07
8.5116e-06
-2.19051e-07
9.5388e-06
-1.22625e-06
1.02282e-05
-6.10392e-07
1.13955e-05
-1.74393e-06
1.23608e-05
-9.02807e-07
1.4379e-05
-3.78141e-06
1.61683e-05
-1.31257e-06
1.97502e-05
-5.98774e-06
2.55643e-05
-1.25279e-05
-1.34028e-05
3.10159e-05
5.79882e-06
1.41591e-06
6.42256e-06
1.66328e-06
7.09197e-06
8.4638e-07
7.41285e-06
8.87663e-07
7.95594e-06
2.66423e-07
8.52875e-06
-2.005e-07
9.20969e-06
-1.17665e-07
1.032e-05
-1.39585e-06
1.09167e-05
-3.26264e-07
1.22373e-05
-2.10736e-06
1.27364e-05
-7.29808e-07
1.43271e-05
-3.00784e-06
1.4863e-05
-1.17466e-06
1.66256e-05
-5.30737e-06
1.90831e-05
-3.58352e-06
2.20844e-05
-8.86318e-06
2.33764e-05
-1.37661e-05
-1.58071e-05
2.57112e-05
6.16785e-06
1.27011e-06
7.35072e-06
1.38646e-06
8.29475e-06
7.91726e-07
9.19601e-06
8.26398e-07
9.79692e-06
4.50091e-07
1.08866e-05
-5.50253e-07
1.14258e-05
6.65085e-09
1.2675e-05
-2.02946e-06
1.3089e-05
-1.95111e-07
1.45422e-05
-3.07753e-06
1.50249e-05
-7.90906e-07
1.65915e-05
-4.21053e-06
1.75103e-05
-1.78923e-06
1.88634e-05
-6.41164e-06
2.03029e-05
-4.81965e-06
2.27899e-05
-1.11956e-05
2.36408e-05
-1.45665e-05
-1.22751e-05
2.00921e-05
6.49008e-06
1.44574e-06
8.55885e-06
3.14127e-07
9.4473e-06
8.77669e-07
1.11307e-05
6.95131e-08
1.16125e-05
8.27046e-07
1.27514e-05
-8.7932e-07
1.32217e-05
2.70661e-07
1.43413e-05
-2.47444e-06
1.48363e-05
-8.65548e-08
1.57926e-05
-3.50002e-06
1.66539e-05
-1.18514e-06
1.77288e-05
-4.8855e-06
1.88844e-05
-2.60589e-06
2.00864e-05
-7.33598e-06
2.10567e-05
-5.57061e-06
2.28989e-05
-1.28718e-05
2.06276e-05
-1.22306e-05
-7.23089e-06
1.55835e-05
7.16617e-06
1.58092e-06
9.00092e-06
-4.2842e-07
9.67121e-06
1.28135e-06
1.14711e-05
-7.16176e-07
1.23838e-05
8.59087e-07
1.35365e-05
-1.14544e-06
1.42392e-05
3.75601e-07
1.52554e-05
-2.75338e-06
1.59611e-05
-1.28751e-07
1.66645e-05
-3.61623e-06
1.77052e-05
-1.71159e-06
1.81022e-05
-4.83707e-06
1.91826e-05
-3.31895e-06
2.00179e-05
-7.86147e-06
2.08406e-05
-6.15632e-06
2.19328e-05
-1.37766e-05
2.02355e-05
-1.04269e-05
-5.55634e-06
1.85791e-05
7.84768e-06
1.7422e-06
9.18966e-06
-5.70431e-07
1.00144e-05
1.63547e-06
1.1923e-05
-1.51593e-06
1.30318e-05
7.83561e-07
1.42769e-05
-1.4193e-06
1.53568e-05
1.80322e-07
1.64092e-05
-3.0005e-06
1.72756e-05
-2.66662e-07
1.80601e-05
-3.75797e-06
1.88695e-05
-1.951e-06
1.93884e-05
-4.86673e-06
2.0071e-05
-3.59596e-06
2.01214e-05
-7.56699e-06
2.12079e-05
-6.97263e-06
2.0378e-05
-1.27574e-05
2.06934e-05
-1.05893e-05
-9.87335e-06
2.50657e-05
6.29413e-06
2.05544e-06
7.12972e-06
-4.76086e-07
8.04971e-06
1.62561e-06
9.39001e-06
-1.99843e-06
1.01688e-05
8.09576e-07
1.12268e-05
-1.72617e-06
1.20856e-05
6.77614e-09
1.28625e-05
-3.14738e-06
1.35869e-05
-4.29034e-07
1.43498e-05
-4.02442e-06
1.48844e-05
-2.03927e-06
1.56635e-05
-5.26742e-06
1.59552e-05
-3.57094e-06
1.63455e-05
-7.68881e-06
1.63881e-05
-6.79319e-06
1.50371e-05
-1.12505e-05
1.42927e-05
-9.73817e-06
-1.15975e-05
1.61007e-05
7.02264e-06
2.30378e-06
8.32803e-06
-6.99198e-07
9.71311e-06
1.29448e-06
1.10347e-05
-2.33202e-06
1.19552e-05
8.25739e-07
1.31707e-05
-2.07589e-06
1.41796e-05
-2.11996e-07
1.49507e-05
-3.18431e-06
1.59177e-05
-7.41608e-07
1.67406e-05
-4.27731e-06
1.74536e-05
-2.23091e-06
1.84363e-05
-5.80882e-06
1.9108e-05
-3.87641e-06
1.96877e-05
-7.9534e-06
1.9717e-05
-6.56126e-06
1.87876e-05
-1.01159e-05
1.5274e-05
-6.08871e-06
-1.08387e-05
1.46123e-05
8.33996e-06
2.64412e-06
1.00171e-05
-1.12223e-06
1.14211e-05
1.10734e-06
1.26958e-05
-2.46328e-06
1.38984e-05
7.05223e-07
1.50643e-05
-2.24535e-06
1.62318e-05
-4.64576e-07
1.71064e-05
-3.21302e-06
1.83034e-05
-1.17904e-06
1.90212e-05
-4.3327e-06
2.01056e-05
-2.71945e-06
2.05979e-05
-5.78219e-06
2.15233e-05
-4.37069e-06
2.16123e-05
-7.67737e-06
2.17356e-05
-6.37739e-06
2.12414e-05
-9.377e-06
2.13726e-05
-6.03007e-06
-9.47313e-06
2.01089e-05
9.81215e-06
3.09972e-06
1.17095e-05
-1.57346e-06
1.3239e-05
9.7798e-07
1.43946e-05
-2.29819e-06
1.5991e-05
3.50889e-07
1.72523e-05
-2.36199e-06
1.8555e-05
-7.10457e-07
1.96067e-05
-3.29757e-06
2.10034e-05
-1.69601e-06
2.17578e-05
-4.32047e-06
2.29233e-05
-3.20258e-06
2.34027e-05
-5.65425e-06
2.42449e-05
-4.69503e-06
2.4209e-05
-7.22662e-06
2.48467e-05
-6.65609e-06
2.43296e-05
-8.55794e-06
2.52776e-05
-6.7427e-06
-8.52797e-06
2.44882e-05
1.1552e-05
2.93874e-06
1.33618e-05
-1.72663e-06
1.5341e-05
6.05149e-07
1.65772e-05
-2.02048e-06
1.84254e-05
-7.64358e-08
1.96905e-05
-2.31354e-06
2.12735e-05
-1.08231e-06
2.23695e-05
-3.28673e-06
2.38874e-05
-2.20625e-06
2.47057e-05
-4.25466e-06
2.60237e-05
-3.73092e-06
2.65482e-05
-5.47906e-06
2.75762e-05
-5.1162e-06
2.76197e-05
-6.78192e-06
2.82121e-05
-6.82413e-06
2.77693e-05
-7.74998e-06
2.86088e-05
-7.28528e-06
-8.02932e-06
2.83166e-05
1.37522e-05
2.92884e-06
1.55681e-05
-1.6575e-06
1.77141e-05
2.9194e-07
1.907e-05
-1.65444e-06
2.10835e-05
-4.77174e-07
2.25009e-05
-2.2377e-06
2.43699e-05
-1.57277e-06
2.55556e-05
-3.21208e-06
2.72715e-05
-2.77427e-06
2.82104e-05
-4.17487e-06
2.95703e-05
-4.18121e-06
3.01917e-05
-5.29962e-06
3.12558e-05
-5.4805e-06
3.15121e-05
-6.45493e-06
3.19263e-05
-6.73715e-06
3.19223e-05
-7.31806e-06
3.24697e-05
-7.48381e-06
-7.80834e-06
3.25148e-05
1.57957e-05
2.32733e-06
1.78354e-05
-1.56412e-06
2.04713e-05
-2.68778e-07
2.21919e-05
-1.42847e-06
2.44648e-05
-9.28855e-07
2.60517e-05
-2.1367e-06
2.80178e-05
-1.97932e-06
2.93198e-05
-3.08861e-06
3.09921e-05
-3.14963e-06
3.20216e-05
-4.03904e-06
3.33174e-05
-4.43587e-06
3.40544e-05
-5.11833e-06
3.496e-05
-5.58146e-06
3.5373e-05
-6.17596e-06
3.58453e-05
-6.61653e-06
3.60409e-05
-7.01325e-06
3.62839e-05
-7.31684e-06
-7.55024e-06
3.63491e-05
1.8356e-05
2.15237e-06
2.0497e-05
-1.31009e-06
2.32965e-05
-7.37504e-07
2.5406e-05
-1.35276e-06
2.78953e-05
-1.37552e-06
2.9753e-05
-2.09766e-06
3.18569e-05
-2.32837e-06
3.33721e-05
-2.99682e-06
3.50161e-05
-3.33062e-06
3.61872e-05
-3.8908e-06
3.73712e-05
-4.4408e-06
3.82641e-05
-4.95994e-06
3.90567e-05
-5.44742e-06
3.95976e-05
-5.91449e-06
3.99884e-05
-6.31312e-06
4.02583e-05
-6.68751e-06
4.04202e-05
-6.9781e-06
-7.19398e-06
4.0473e-05
2.09373e-05
2.00279e-06
2.36359e-05
-1.32727e-06
2.67091e-05
-1.21217e-06
2.92448e-05
-1.44921e-06
3.18299e-05
-1.67916e-06
3.39547e-05
-2.099e-06
3.60366e-05
-2.44507e-06
3.77084e-05
-2.86815e-06
3.93117e-05
-3.2905e-06
4.0661e-05
-3.75197e-06
4.18162e-05
-4.25937e-06
4.27899e-05
-4.73644e-06
4.36084e-05
-5.20601e-06
4.42329e-05
-5.60692e-06
4.46884e-05
-5.9509e-06
4.49445e-05
-6.24219e-06
4.50257e-05
-6.45984e-06
-6.61717e-06
4.49571e-05
2.38392e-05
1.73262e-06
2.69292e-05
-1.42802e-06
3.01204e-05
-1.50923e-06
3.3034e-05
-1.64797e-06
3.5757e-05
-1.86577e-06
3.81926e-05
-2.17224e-06
4.04406e-05
-2.50349e-06
4.24875e-05
-2.9004e-06
4.43203e-05
-3.27728e-06
4.59145e-05
-3.66468e-06
4.72209e-05
-4.04792e-06
4.82585e-05
-4.40818e-06
4.90085e-05
-4.7346e-06
4.95624e-05
-5.07899e-06
4.9919e-05
-5.3523e-06
5.01057e-05
-5.59663e-06
5.01565e-05
-5.7801e-06
-5.92847e-06
5.00956e-05
2.39999e-05
1.58912e-06
2.70654e-05
-1.61704e-06
3.00624e-05
-1.70486e-06
3.28079e-05
-1.76405e-06
3.52735e-05
-1.87149e-06
3.74943e-05
-2.09948e-06
3.95136e-05
-2.39383e-06
4.13385e-05
-2.75581e-06
4.29539e-05
-3.08455e-06
4.43776e-05
-3.43708e-06
4.55584e-05
-3.72904e-06
4.65198e-05
-4.01235e-06
4.72563e-05
-4.25026e-06
4.77747e-05
-4.50594e-06
4.8157e-05
-4.7557e-06
4.84044e-05
-4.98004e-06
4.85185e-05
-5.13315e-06
-5.2616e-06
4.85194e-05
2.13955e-05
1.30893e-06
2.39429e-05
-1.68038e-06
2.64261e-05
-1.76471e-06
2.87276e-05
-1.78637e-06
3.08389e-05
-1.84539e-06
3.27449e-05
-2.01141e-06
3.44528e-05
-2.24851e-06
3.59581e-05
-2.54128e-06
3.72646e-05
-2.80985e-06
3.83996e-05
-3.12322e-06
3.9371e-05
-3.37798e-06
4.01621e-05
-3.60502e-06
4.08052e-05
-3.80654e-06
4.1247e-05
-3.96856e-06
4.15653e-05
-4.19376e-06
4.17484e-05
-4.37517e-06
4.1851e-05
-4.53406e-06
-4.62704e-06
4.18421e-05
1.92966e-05
8.20033e-07
2.14125e-05
-1.62637e-06
2.34683e-05
-1.69349e-06
2.54013e-05
-1.7157e-06
2.71869e-05
-1.75354e-06
2.88006e-05
-1.87096e-06
3.0262e-05
-2.07716e-06
3.15612e-05
-2.32499e-06
3.26951e-05
-2.54603e-06
3.36675e-05
-2.81148e-06
3.44833e-05
-3.01739e-06
3.51451e-05
-3.19627e-06
3.56771e-05
-3.36389e-06
3.60708e-05
-3.47922e-06
3.63028e-05
-3.62691e-06
3.64503e-05
-3.8006e-06
3.64843e-05
-3.92232e-06
-4.00735e-06
3.64456e-05
1.69252e-05
9.00159e-07
1.86413e-05
-1.41305e-06
2.04671e-05
-1.63737e-06
2.22442e-05
-1.72309e-06
2.38735e-05
-1.72475e-06
2.53323e-05
-1.77514e-06
2.66182e-05
-1.91255e-06
2.77351e-05
-2.09713e-06
2.87158e-05
-2.28179e-06
2.95572e-05
-2.50748e-06
3.02975e-05
-2.70908e-06
3.09101e-05
-2.84927e-06
3.14021e-05
-2.98204e-06
3.17982e-05
-3.0793e-06
3.20378e-05
-3.14298e-06
3.21702e-05
-3.27699e-06
3.22139e-05
-3.37095e-06
-3.43991e-06
3.21829e-05
1.45881e-05
5.95573e-07
1.6461e-05
-1.55791e-06
1.81847e-05
-1.6896e-06
1.97589e-05
-1.72688e-06
2.11901e-05
-1.68119e-06
2.24701e-05
-1.67325e-06
2.3583e-05
-1.73509e-06
2.45473e-05
-1.86152e-06
2.54058e-05
-2.02813e-06
2.6139e-05
-2.21514e-06
2.67504e-05
-2.37896e-06
2.72666e-05
-2.50405e-06
2.76724e-05
-2.60173e-06
2.79891e-05
-2.67931e-06
2.82282e-05
-2.72998e-06
2.83444e-05
-2.79934e-06
2.84158e-05
-2.90211e-06
-2.95509e-06
2.84213e-05
1.33427e-05
2.97721e-07
1.48779e-05
-1.5542e-06
1.63138e-05
-1.63465e-06
1.76222e-05
-1.63381e-06
1.88309e-05
-1.57615e-06
1.99404e-05
-1.55277e-06
2.09322e-05
-1.57857e-06
2.18077e-05
-1.66713e-06
2.25934e-05
-1.82197e-06
2.32518e-05
-1.95588e-06
2.38061e-05
-2.08873e-06
2.42576e-05
-2.18193e-06
2.46242e-05
-2.25918e-06
2.49082e-05
-2.31652e-06
2.51283e-05
-2.35972e-06
2.5242e-05
-2.37436e-06
2.52665e-05
-2.43603e-06
-2.48857e-06
2.52476e-05
1.16822e-05
1.50329e-07
1.30619e-05
-1.56649e-06
1.43766e-05
-1.62276e-06
1.55519e-05
-1.56025e-06
1.66474e-05
-1.50078e-06
1.76763e-05
-1.48514e-06
1.86399e-05
-1.51778e-06
1.94887e-05
-1.5629e-06
2.02015e-05
-1.64916e-06
2.07922e-05
-1.72713e-06
2.12634e-05
-1.80491e-06
2.16523e-05
-1.87643e-06
2.19492e-05
-1.92028e-06
2.2169e-05
-1.95449e-06
2.23134e-05
-1.97238e-06
2.24197e-05
-1.99544e-06
2.24498e-05
-2.02287e-06
-2.05903e-06
2.24245e-05
1.06948e-05
5.1688e-08
1.18626e-05
-1.51739e-06
1.30798e-05
-1.65727e-06
1.41785e-05
-1.54688e-06
1.51515e-05
-1.42984e-06
1.60263e-05
-1.3823e-06
1.68141e-05
-1.3927e-06
1.75054e-05
-1.40293e-06
1.80927e-05
-1.44567e-06
1.85843e-05
-1.48557e-06
1.8986e-05
-1.5293e-06
1.92944e-05
-1.56219e-06
1.95379e-05
-1.59261e-06
1.97191e-05
-1.61376e-06
1.98606e-05
-1.63731e-06
1.99575e-05
-1.65733e-06
2.00119e-05
-1.6802e-06
-1.71254e-06
2.0029e-05
9.71303e-06
-5.60316e-07
1.08792e-05
-1.60107e-06
1.18981e-05
-1.62115e-06
1.28003e-05
-1.45638e-06
1.3624e-05
-1.3226e-06
1.43692e-05
-1.25519e-06
1.50395e-05
-1.24797e-06
1.56212e-05
-1.22551e-06
1.6115e-05
-1.2338e-06
1.65299e-05
-1.24665e-06
1.68681e-05
-1.26348e-06
1.71275e-05
-1.26568e-06
1.73302e-05
-1.28519e-06
1.74801e-05
-1.29672e-06
1.75788e-05
-1.30943e-06
1.76369e-05
-1.32582e-06
1.76574e-05
-1.34457e-06
-1.33327e-06
1.76043e-05
8.33077e-06
-7.91562e-07
9.54234e-06
-1.84536e-06
1.05556e-05
-1.69584e-06
1.14038e-05
-1.42122e-06
1.21171e-05
-1.20641e-06
1.27156e-05
-1.07605e-06
1.3222e-05
-1.02712e-06
1.36493e-05
-9.74516e-07
1.3996e-05
-9.49905e-07
1.42689e-05
-9.34888e-07
1.44694e-05
-9.24013e-07
1.46188e-05
-9.18044e-07
1.47125e-05
-9.23061e-07
1.47613e-05
-9.28467e-07
1.47663e-05
-9.33423e-07
1.47255e-05
-9.37182e-07
1.46435e-05
-9.45009e-07
-9.50687e-07
1.45515e-05
7.77147e-06
-1.08003e-06
8.67192e-06
-1.88379e-06
9.33825e-06
-1.52405e-06
9.85731e-06
-1.15215e-06
1.02603e-05
-8.69569e-07
1.05687e-05
-6.90356e-07
1.08023e-05
-6.11138e-07
1.09975e-05
-5.63231e-07
1.11512e-05
-5.39732e-07
1.12634e-05
-5.24808e-07
1.13352e-05
-5.14214e-07
1.13705e-05
-5.11113e-07
1.13643e-05
-5.12159e-07
1.13312e-05
-5.25739e-07
1.12528e-05
-5.17704e-07
1.11457e-05
-5.22636e-07
1.10308e-05
-5.49902e-07
-5.46733e-07
1.08832e-05
6.79171e-06
-1.18941e-06
7.01993e-06
-1.34806e-06
7.091e-06
-8.51598e-07
7.15616e-06
-5.16657e-07
7.24391e-06
-2.98716e-07
7.3557e-06
-1.8422e-07
7.4757e-06
-1.53277e-07
7.60203e-06
-1.51464e-07
7.71446e-06
-1.53562e-07
7.81626e-06
-1.66736e-07
7.89821e-06
-1.73907e-07
7.95694e-06
-1.83473e-07
7.98963e-06
-1.91931e-07
7.99593e-06
-2.09931e-07
7.97638e-06
-2.04271e-07
7.9365e-06
-2.14703e-07
7.8906e-06
-2.59269e-07
-2.59952e-07
7.8298e-06
4.66008e-06
3.99887e-06
3.80571e-06
3.90897e-06
4.19269e-06
4.55407e-06
4.91038e-06
5.23337e-06
5.52007e-06
5.76047e-06
5.96188e-06
6.12353e-06
6.24847e-06
6.32922e-06
6.39144e-06
6.4211e-06
6.38675e-06
6.33406e-06
-2.07238e-07
-4.48934e-07
-3.84953e-07
-5.07234e-07
-5.86798e-07
-4.94444e-07
-7.83324e-07
-5.03793e-07
-9.7032e-07
-5.17099e-07
-1.16181e-06
-5.17104e-07
-1.3552e-06
-5.19876e-07
-1.55149e-06
-5.21282e-07
-1.78343e-06
-4.88941e-07
-2.06796e-06
-4.3907e-07
-2.42258e-06
-3.71409e-07
-2.81795e-06
-3.33603e-07
-3.18136e-06
-3.68823e-07
-3.52833e-06
-3.86449e-07
-4.00508e-06
-2.55154e-07
-4.63242e-06
-1.01268e-07
-5.27273e-06
-8.43323e-08
-5.90944e-06
-8.6695e-08
-6.58876e-06
-3.37261e-08
-7.40945e-06
1.31036e-07
-8.46391e-06
3.7345e-07
-9.71496e-06
5.61694e-07
-1.11218e-05
7.16748e-07
-1.26843e-05
8.81156e-07
-1.43963e-05
1.03908e-06
-1.62075e-05
1.1389e-06
-1.80301e-05
1.15099e-06
-1.97777e-05
1.08733e-06
-2.14242e-05
1.00699e-06
-2.29634e-05
9.25353e-07
-2.43874e-05
8.37807e-07
-2.56882e-05
7.44887e-07
-2.68767e-05
6.65063e-07
-2.7957e-05
5.92309e-07
-2.8932e-05
5.26634e-07
-2.9814e-05
4.7732e-07
-3.06118e-05
4.39944e-07
-3.13104e-05
3.91225e-07
-3.19452e-05
3.81119e-07
-3.24995e-05
3.58709e-07
-3.29677e-05
3.35904e-07
-3.33752e-05
3.42694e-07
-3.37281e-05
3.60391e-07
-3.40368e-05
3.92561e-07
-3.42801e-05
4.07921e-07
-3.44973e-05
4.66651e-07
-3.46937e-05
5.31658e-07
-3.48623e-05
5.92204e-07
-3.49697e-05
6.22642e-07
-3.50144e-05
6.53465e-07
-3.49976e-05
6.8771e-07
-3.49157e-05
7.21756e-07
-3.47807e-05
7.71846e-07
-3.45894e-05
8.22986e-07
-3.43679e-05
9.02303e-07
-3.40653e-05
9.31591e-07
-3.37385e-05
1.02375e-06
-3.34162e-05
1.15118e-06
-3.30283e-05
1.21024e-06
-3.25273e-05
1.21824e-06
-3.19016e-05
1.20948e-06
-3.12178e-05
1.26537e-06
-3.05472e-05
1.39555e-06
-2.98951e-05
1.53458e-06
-2.92285e-05
1.64258e-06
-2.85824e-05
1.78456e-06
-2.78617e-05
1.82827e-06
-2.70111e-05
1.81089e-06
-2.60463e-05
1.80534e-06
-2.50566e-05
1.89353e-06
-2.41063e-05
2.05711e-06
-2.32421e-05
2.27295e-06
-2.24323e-05
2.45281e-06
-2.16263e-05
2.57021e-06
-2.08425e-05
2.70264e-06
-2.00343e-05
2.79635e-06
-1.92194e-05
2.91297e-06
-1.84415e-05
3.07159e-06
-1.77237e-05
3.25837e-06
-1.71808e-05
3.58687e-06
-1.67778e-05
3.8968e-06
-1.64785e-05
4.13347e-06
-1.6349e-05
4.40515e-06
-1.58264e-05
4.13712e-06
-1.43911e-05
3.39373e-06
-1.26364e-05
3.25477e-06
-1.09225e-05
3.43881e-06
-9.08807e-06
3.45307e-06
-7.09209e-06
3.44976e-06
-5.23753e-06
3.72851e-06
-4.04958e-06
4.51893e-06
-3.27162e-06
5.13632e-06
-2.13777e-06
4.88697e-06
-5.81875e-07
4.47072e-06
3.3967e-07
5.09974e-06
-9.94775e-08
6.49179e-06
-1.80342e-06
7.85723e-06
-4.27001e-06
8.68866e-06
-6.6335e-06
8.72261e-06
-8.41125e-06
8.24943e-06
-9.79849e-06
7.88504e-06
-1.0964e-05
7.72777e-06
-1.19111e-05
7.65024e-06
-1.28325e-05
7.75973e-06
-1.38469e-05
8.00576e-06
-1.46128e-05
7.96373e-06
-1.4861e-05
7.59546e-06
-1.4533e-05
7.01649e-06
-1.34227e-05
6.1513e-06
-1.10259e-05
4.89067e-06
-7.52617e-06
3.92591e-06
-4.59201e-06
4.65222e-06
-3.46239e-06
6.64301e-06
-3.41506e-06
7.98155e-06
-1.09639e-06
5.62013e-06
5.35306e-07
6.49674e-06
1.9252e-06
6.84311e-06
2.91839e-06
7.36998e-06
3.59261e-06
7.80678e-06
3.76227e-06
8.40852e-06
3.91746e-06
8.5129e-06
4.15859e-06
8.53177e-06
4.29737e-06
8.74942e-06
4.26854e-06
9.0348e-06
3.94012e-06
9.43932e-06
3.2832e-06
9.85984e-06
2.3804e-06
1.01926e-05
1.27328e-06
1.04725e-05
2.74061e-09
1.07232e-05
-1.42715e-06
1.09866e-05
-3.03554e-06
1.12861e-05
-4.96599e-06
1.17345e-05
-6.93708e-06
1.19173e-05
-8.79107e-06
1.19469e-05
-1.0631e-05
1.208e-05
-1.23971e-05
1.21569e-05
-1.39324e-05
1.21393e-05
-1.53008e-05
1.22692e-05
-1.64349e-05
1.23837e-05
-1.73065e-05
1.24809e-05
-1.78876e-05
1.25561e-05
-1.80889e-05
1.2559e-05
-1.79517e-05
1.26312e-05
-1.76111e-05
1.28798e-05
-1.72275e-05
1.33032e-05
-1.65002e-05
1.33788e-05
-1.53771e-05
1.33302e-05
-1.3879e-05
1.33525e-05
-1.17493e-05
1.31728e-05
-8.47252e-06
1.24554e-05
-4.51747e-06
1.20342e-05
-6.55783e-07
1.20975e-05
2.42677e-06
1.24467e-05
3.72587e-06
1.37516e-05
2.70247e-06
1.60034e-05
3.61218e-07
1.7439e-05
-1.5653e-06
1.68907e-05
-2.30843e-06
1.5455e-05
-1.80543e-06
1.38924e-05
-6.33822e-07
1.28506e-05
1.84038e-07
1.27299e-05
1.27999e-06
1.20964e-05
2.89278e-06
1.12271e-05
5.47511e-06
9.52997e-06
1.14489e-05
5.89975e-06
1.62866e-05
7.19068e-06
1.97553e-05
8.32377e-06
2.18315e-05
9.7585e-06
2.26987e-05
1.08888e-05
2.28033e-05
1.15294e-05
2.26537e-05
1.16829e-05
2.23831e-05
1.16786e-05
2.18429e-05
1.17682e-05
2.1326e-05
1.14762e-05
2.07492e-05
1.12431e-05
1.98872e-05
1.12073e-05
1.90375e-05
1.0925e-05
1.82244e-05
1.0573e-05
1.69201e-05
1.07934e-05
1.05691e-05
1.54291e-05
-2.76975e-07
-8.33164e-07
-5.48215e-07
-9.28399e-07
-8.56712e-07
-8.88225e-07
-1.17875e-06
-8.88202e-07
-1.48406e-06
-9.2456e-07
-1.74608e-06
-9.74436e-07
-1.92961e-06
-1.06228e-06
-2.06256e-06
-1.11681e-06
-2.20353e-06
-1.07457e-06
-2.40509e-06
-9.63907e-07
-2.79733e-06
-7.1071e-07
-3.36554e-06
-5.05208e-07
-4.0362e-06
-4.40828e-07
-4.72154e-06
-4.328e-07
-5.4594e-06
-2.31731e-07
-6.35317e-06
7.9938e-08
-7.50828e-06
3.43615e-07
-8.92126e-06
5.97767e-07
-1.05314e-05
8.67274e-07
-1.22379e-05
1.1484e-06
-1.39987e-05
1.43825e-06
-1.58159e-05
1.66541e-06
-1.76239e-05
1.81716e-06
-1.93537e-05
1.90813e-06
-2.09675e-05
1.95366e-06
-2.2447e-05
1.93562e-06
-2.38215e-05
1.85525e-06
-2.51444e-05
1.74837e-06
-2.6397e-05
1.61101e-06
-2.75724e-05
1.4772e-06
-2.86547e-05
1.32137e-06
-2.96722e-05
1.19205e-06
-3.05859e-05
1.04442e-06
-3.14412e-05
9.46592e-07
-3.22103e-05
8.39318e-07
-3.28876e-05
7.47251e-07
-3.34973e-05
6.84176e-07
-3.40638e-05
6.41525e-07
-3.45443e-05
6.01451e-07
-3.49534e-05
5.69361e-07
-3.52923e-05
5.46644e-07
-3.55744e-05
5.66802e-07
-3.57993e-05
6.02585e-07
-3.59729e-05
6.63448e-07
-3.61296e-05
7.46064e-07
-3.62537e-05
8.61293e-07
-3.63576e-05
9.84978e-07
-3.64053e-05
1.06896e-06
-3.64176e-05
1.15172e-06
-3.63898e-05
1.22348e-06
-3.62789e-05
1.25878e-06
-3.60913e-05
1.30812e-06
-3.58306e-05
1.38406e-06
-3.55073e-05
1.47464e-06
-3.51055e-05
1.56992e-06
-3.47112e-05
1.69866e-06
-3.42715e-05
1.85902e-06
-3.38039e-05
2.11429e-06
-3.32263e-05
2.233e-06
-3.25117e-05
2.23732e-06
-3.16793e-05
2.19383e-06
-3.07997e-05
2.26914e-06
-2.9957e-05
2.52973e-06
-2.91645e-05
2.84801e-06
-2.83635e-05
3.10287e-06
-2.74426e-05
3.29467e-06
-2.64863e-05
3.46135e-06
-2.54258e-05
3.44927e-06
-2.42963e-05
3.43396e-06
-2.30828e-05
3.49647e-06
-2.18599e-05
3.74812e-06
-2.0635e-05
4.12725e-06
-1.95212e-05
4.60948e-06
-1.85069e-05
4.97594e-06
-1.74243e-05
5.12477e-06
-1.62991e-05
5.26681e-06
-1.5292e-05
5.63141e-06
-1.46295e-05
6.27044e-06
-1.43829e-05
6.97693e-06
-1.44936e-05
7.742e-06
-1.45528e-05
8.17605e-06
-1.4312e-05
8.39013e-06
-1.40936e-05
8.8287e-06
-1.36254e-05
8.29382e-06
-1.21994e-05
6.65445e-06
-1.02604e-05
6.21022e-06
-8.12713e-06
6.44884e-06
-5.94958e-06
6.5897e-06
-3.69811e-06
6.74641e-06
-1.78407e-06
7.54149e-06
-3.15944e-07
8.92122e-06
9.16782e-07
1.00203e-05
8.45142e-07
1.10599e-05
-1.27743e-06
1.26156e-05
-4.81229e-06
1.48066e-05
-8.6484e-06
1.66006e-05
-1.18976e-05
1.74076e-05
-1.40497e-05
1.70985e-05
-1.5401e-05
1.63695e-05
-1.63273e-05
1.56006e-05
-1.66818e-05
1.48088e-05
-1.67737e-05
1.43799e-05
-1.67335e-05
1.42227e-05
-1.6768e-05
1.45281e-05
-1.67311e-05
1.48505e-05
-1.64974e-05
1.4764e-05
-1.61016e-05
1.43532e-05
-1.51619e-05
1.32708e-05
-1.34761e-05
1.1638e-05
-1.09769e-05
9.55055e-06
-8.1098e-06
8.18622e-06
-6.35994e-06
1.00212e-05
-4.88433e-06
1.24167e-05
-2.97558e-06
1.36937e-05
-4.26386e-07
1.06016e-05
9.30239e-07
1.28738e-05
2.84919e-06
1.27746e-05
4.08148e-06
1.41677e-05
5.09122e-06
1.50014e-05
5.47623e-06
1.63581e-05
5.83033e-06
1.65887e-05
6.33984e-06
1.65653e-05
6.92594e-06
1.68172e-05
7.52969e-06
1.72092e-05
7.86459e-06
1.80213e-05
7.72023e-06
1.90317e-05
7.46758e-06
1.95277e-05
7.20535e-06
1.99162e-05
6.8318e-06
2.04395e-05
6.30242e-06
2.10317e-05
5.59879e-06
2.16904e-05
4.45014e-06
2.27894e-05
2.74808e-06
2.37372e-05
8.33351e-07
2.42199e-05
-1.1394e-06
2.46627e-05
-3.158e-06
2.50559e-05
-5.32958e-06
2.54669e-05
-7.33247e-06
2.57509e-05
-9.07032e-06
2.59694e-05
-1.05187e-05
2.61822e-05
-1.16313e-05
2.64679e-05
-1.22529e-05
2.65629e-05
-1.23986e-05
2.66563e-05
-1.23007e-05
2.71356e-05
-1.2086e-05
2.80034e-05
-1.15284e-05
2.83996e-05
-1.06575e-05
2.8442e-05
-9.53022e-06
2.85305e-05
-7.32611e-06
2.79285e-05
-4.07807e-06
2.6875e-05
-1.62416e-07
2.59731e-05
2.58215e-06
2.668e-05
2.2351e-06
2.91896e-05
-1.35598e-06
3.32344e-05
-4.84951e-06
3.58805e-05
-6.85042e-06
3.59134e-05
-7.57448e-06
3.35175e-05
-6.91115e-06
3.00212e-05
-5.79822e-06
2.76186e-05
-4.02616e-06
2.58676e-05
-2.23631e-06
2.53409e-05
2.19222e-09
2.33562e-05
2.45673e-06
2.23137e-05
6.97489e-06
1.74248e-05
1.27051e-05
1.15436e-05
1.70502e-05
1.41996e-05
2.15376e-05
1.50853e-05
2.47131e-05
1.83586e-05
2.707e-05
2.0569e-05
2.81113e-05
2.27131e-05
2.82049e-05
2.39242e-05
2.78471e-05
2.42882e-05
2.73669e-05
2.43249e-05
2.63207e-05
2.43304e-05
2.51044e-05
2.41132e-05
2.34832e-05
2.42248e-05
2.21447e-05
2.34542e-05
2.06177e-05
2.29697e-05
1.91212e-05
2.29382e-05
2.21863e-05
1.76151e-05
-3.48781e-07
-1.14985e-06
-7.45134e-07
-1.22156e-06
-1.1963e-06
-1.14113e-06
-1.64231e-06
-1.15265e-06
-2.08059e-06
-1.20221e-06
-2.47843e-06
-1.30442e-06
-2.79843e-06
-1.47874e-06
-3.16911e-06
-1.4677e-06
-3.6752e-06
-1.26894e-06
-4.20895e-06
-1.12941e-06
-4.83863e-06
-7.90389e-07
-5.62652e-06
-4.32904e-07
-6.52724e-06
-2.73253e-07
-7.67107e-06
-3.56719e-08
-8.91197e-06
2.75385e-07
-1.02541e-05
6.92918e-07
-1.17081e-05
1.0757e-06
-1.32713e-05
1.45731e-06
-1.4903e-05
1.78785e-06
-1.65137e-05
2.03193e-06
-1.80198e-05
2.20473e-06
-1.9421e-05
2.3337e-06
-2.07323e-05
2.39971e-06
-2.1956e-05
2.3908e-06
-2.31072e-05
2.36881e-06
-2.41848e-05
2.28114e-06
-2.52238e-05
2.16147e-06
-2.62248e-05
2.03576e-06
-2.71812e-05
1.88387e-06
-2.80968e-05
1.73466e-06
-2.89838e-05
1.57425e-06
-2.97849e-05
1.39717e-06
-3.05645e-05
1.26785e-06
-3.12608e-05
1.12131e-06
-3.19045e-05
9.9783e-07
-3.25056e-05
9.13442e-07
-3.30473e-05
8.46708e-07
-3.35377e-05
8.0405e-07
-3.40061e-05
7.92489e-07
-3.44384e-05
7.83214e-07
-3.48163e-05
7.85132e-07
-3.51346e-05
8.2189e-07
-3.54409e-05
9.21489e-07
-3.56832e-05
1.00145e-06
-3.58725e-05
1.11931e-06
-3.59866e-05
1.27182e-06
-3.60492e-05
1.4381e-06
-3.60791e-05
1.5701e-06
-3.60701e-05
1.71195e-06
-3.6064e-05
1.85814e-06
-3.60113e-05
1.91602e-06
-3.59058e-05
1.99774e-06
-3.57066e-05
2.06816e-06
-3.54815e-05
2.21541e-06
-3.52475e-05
2.36851e-06
-3.48906e-05
2.45843e-06
-3.44862e-05
2.69717e-06
-3.39385e-05
2.98271e-06
-3.32786e-05
3.15914e-06
-3.25782e-05
3.21008e-06
-3.18535e-05
3.16056e-06
-3.11106e-05
3.25131e-06
-3.03538e-05
3.60326e-06
-2.95317e-05
4.01641e-06
-2.85543e-05
4.29659e-06
-2.74639e-05
4.54251e-06
-2.63264e-05
4.81464e-06
-2.52996e-05
4.9997e-06
-2.43744e-05
5.0916e-06
-2.343e-05
5.14957e-06
-2.24175e-05
5.43924e-06
-2.13211e-05
5.92664e-06
-2.00869e-05
6.46727e-06
-1.88377e-05
6.99443e-06
-1.73887e-05
7.02945e-06
-1.57905e-05
7.09509e-06
-1.43065e-05
7.76639e-06
-1.28111e-05
8.53683e-06
-1.14344e-05
9.42505e-06
-1.06693e-05
1.08475e-05
-1.04637e-05
1.18709e-05
-1.02039e-05
1.23231e-05
-1.0051e-05
1.32147e-05
-1.00955e-05
1.29513e-05
-9.76595e-06
1.08701e-05
-8.8081e-06
9.74552e-06
-7.21425e-06
9.52779e-06
-5.0372e-06
9.38472e-06
-2.91505e-06
9.90822e-06
-1.42075e-06
1.15877e-05
-9.43626e-07
1.42424e-05
-2.17721e-06
1.70559e-05
-5.36516e-06
1.98621e-05
-9.07067e-06
2.20593e-05
-1.21905e-05
2.39176e-05
-1.45609e-05
2.51021e-05
-1.60478e-05
2.49351e-05
-1.68401e-05
2.38648e-05
-1.71005e-05
2.26783e-05
-1.6956e-05
2.15139e-05
-1.68363e-05
2.07003e-05
-1.67099e-05
2.02425e-05
-1.63221e-05
1.99507e-05
-1.57786e-05
2.01801e-05
-1.48494e-05
2.0243e-05
-1.38209e-05
2.01583e-05
-1.28785e-05
2.00304e-05
-1.17876e-05
1.90153e-05
-1.04643e-05
1.72991e-05
-8.90002e-06
1.50133e-05
-7.49853e-06
1.3729e-05
-6.41662e-06
1.5896e-05
-4.28591e-06
1.72238e-05
-1.45359e-06
1.76738e-05
1.79151e-07
1.61891e-05
1.35699e-06
1.89299e-05
3.36053e-06
1.80597e-05
4.61724e-06
2.0394e-05
5.73669e-06
2.15815e-05
6.36395e-06
2.36756e-05
6.68189e-06
2.43623e-05
6.94969e-06
2.45416e-05
7.22777e-06
2.4872e-05
7.66678e-06
2.5156e-05
7.99765e-06
2.61646e-05
7.72413e-06
2.78409e-05
7.30196e-06
2.83792e-05
7.04482e-06
2.85984e-05
6.7675e-06
2.92786e-05
6.56233e-06
2.99478e-05
6.37132e-06
3.07697e-05
5.94339e-06
3.23929e-05
4.89573e-06
3.41653e-05
3.66502e-06
3.49918e-05
2.14667e-06
3.58904e-05
5.07548e-07
3.66813e-05
-1.12115e-06
3.74612e-05
-2.70018e-06
3.81136e-05
-4.19802e-06
3.8753e-05
-5.77281e-06
3.9328e-05
-7.33193e-06
3.99014e-05
-8.27027e-06
4.00348e-05
-8.42474e-06
4.00489e-05
-8.23875e-06
4.07798e-05
-8.22884e-06
4.24511e-05
-8.27791e-06
4.37012e-05
-7.98464e-06
4.41068e-05
-7.27907e-06
4.42189e-05
-5.31215e-06
4.30903e-05
-2.35039e-06
4.14622e-05
-3.67151e-08
4.08706e-05
1.77464e-07
4.26854e-05
-2.14346e-06
4.75423e-05
-5.57696e-06
5.32538e-05
-7.68445e-06
5.52695e-05
-8.36386e-06
5.28514e-05
-7.83647e-06
4.77494e-05
-6.63217e-06
4.21928e-05
-4.82338e-06
3.92291e-05
-1.4872e-06
3.62742e-05
1.37974e-06
3.69861e-05
4.54639e-06
3.43991e-05
7.2091e-06
3.40048e-05
1.00393e-05
2.72116e-05
1.43963e-05
1.77931e-05
1.82857e-05
2.11277e-05
2.10748e-05
2.31282e-05
2.40733e-05
2.64643e-05
2.71037e-05
2.86237e-05
2.94234e-05
3.18786e-05
3.05461e-05
3.45135e-05
3.07268e-05
3.55377e-05
3.05956e-05
3.54031e-05
3.02107e-05
3.52576e-05
2.94083e-05
3.56858e-05
2.78557e-05
3.69708e-05
2.62076e-05
3.63299e-05
2.44592e-05
3.55846e-05
2.24484e-05
3.50192e-05
3.35904e-05
2.05528e-05
-3.32688e-07
-1.49443e-06
-6.66692e-07
-1.58504e-06
-1.03645e-06
-1.48772e-06
-1.37969e-06
-1.53314e-06
-1.77625e-06
-1.54109e-06
-2.33283e-06
-1.5016e-06
-3.11115e-06
-1.44479e-06
-3.9072e-06
-1.36585e-06
-4.61613e-06
-1.24836e-06
-5.43582e-06
-1.04605e-06
-6.28705e-06
-6.94364e-07
-7.20511e-06
-2.60335e-07
-8.25144e-06
3.77238e-08
-9.51096e-06
4.92462e-07
-1.09588e-05
9.8652e-07
-1.24451e-05
1.46529e-06
-1.39194e-05
1.82144e-06
-1.5347e-05
2.10898e-06
-1.66827e-05
2.36202e-06
-1.79162e-05
2.50952e-06
-1.90739e-05
2.57378e-06
-2.01358e-05
2.58936e-06
-2.11406e-05
2.588e-06
-2.21147e-05
2.54173e-06
-2.30564e-05
2.50268e-06
-2.40201e-05
2.43985e-06
-2.49717e-05
2.34143e-06
-2.58813e-05
2.22014e-06
-2.67616e-05
2.05962e-06
-2.75749e-05
1.89131e-06
-2.83404e-05
1.71503e-06
-2.90825e-05
1.52913e-06
-2.97515e-05
1.35381e-06
-3.03567e-05
1.17422e-06
-3.09388e-05
1.0642e-06
-3.1477e-05
9.61902e-07
-3.19573e-05
8.78112e-07
-3.23846e-05
8.39274e-07
-3.27596e-05
8.46662e-07
-3.31329e-05
8.90674e-07
-3.35147e-05
9.38796e-07
-3.38737e-05
1.03958e-06
-3.41972e-05
1.18825e-06
-3.45235e-05
1.32671e-06
-3.48156e-05
1.48959e-06
-3.50456e-05
1.68826e-06
-3.51817e-05
1.86046e-06
-3.52102e-05
1.99394e-06
-3.51633e-05
2.18319e-06
-3.50303e-05
2.34982e-06
-3.48797e-05
2.48691e-06
-3.47234e-05
2.65711e-06
-3.45255e-05
2.78726e-06
-3.42866e-05
3.00335e-06
-3.399e-05
3.19553e-06
-3.36906e-05
3.38732e-06
-3.32992e-05
3.65144e-06
-3.27516e-05
3.87575e-06
-3.20976e-05
4.04482e-06
-3.14607e-05
4.19197e-06
-3.08568e-05
4.23759e-06
-3.01722e-05
4.34791e-06
-2.93508e-05
4.71162e-06
-2.84498e-05
5.18541e-06
-2.75326e-05
5.52735e-06
-2.64444e-05
5.64998e-06
-2.52991e-05
5.98301e-06
-2.4337e-05
6.51296e-06
-2.35834e-05
6.90033e-06
-2.29084e-05
7.04012e-06
-2.21524e-05
7.25603e-06
-2.12036e-05
7.63778e-06
-2.01026e-05
8.16425e-06
-1.87095e-05
8.66035e-06
-1.71129e-05
8.75006e-06
-1.5688e-05
8.94902e-06
-1.44616e-05
9.91503e-06
-1.28985e-05
1.05892e-05
-1.10479e-05
1.12366e-05
-9.46271e-06
1.30862e-05
-7.97197e-06
1.42527e-05
-6.7463e-06
1.49025e-05
-6.03667e-06
1.65804e-05
-5.47198e-06
1.68858e-05
-5.32204e-06
1.53583e-05
-5.57473e-06
1.45141e-05
-5.24076e-06
1.38053e-05
-4.32087e-06
1.33416e-05
-3.9782e-06
1.46358e-05
-4.60849e-06
1.75025e-05
-6.22628e-06
2.13055e-05
-8.59231e-06
2.48405e-05
-1.09479e-05
2.76259e-05
-1.31617e-05
2.97573e-05
-1.48224e-05
3.12296e-05
-1.55426e-05
3.16843e-05
-1.56841e-05
3.08529e-05
-1.5608e-05
2.95422e-05
-1.54905e-05
2.82456e-05
-1.55321e-05
2.71721e-05
-1.57898e-05
2.65445e-05
-1.56676e-05
2.56506e-05
-1.51483e-05
2.4954e-05
-1.43676e-05
2.50641e-05
-1.32454e-05
2.50087e-05
-1.20832e-05
2.5044e-05
-1.09811e-05
2.51668e-05
-9.86777e-06
2.43018e-05
-8.61413e-06
2.2644e-05