/*--------------------------------*- C++ -*----------------------------------*\
| =========                 |                                                 |
| \\      /  F ield         | OpenFOAM: The Open Source CFD Toolbox           |
|  \\    /   O peration     | Version:  dev                                   |
|   \\  /    A nd           | Web:      http://www.openfoam.org               |
|    \\/     M anipulation  |                                                 |
\*---------------------------------------------------------------------------*/
FoamFile
{
    version     2.0;
    format      ascii;
    class       volScalarField;
    object      pPrime2Mean;
    location    "9.132";
}
// * * * * * * * * * * * * * * * * * * * * * * * * * * * * * * * * * * * * * //

dimensions      [2 -2 -4 0 0 0 0];

internalField   nonuniform List<scalar> 
12225
(
5.03821e+07
4.9917e+07
4.89563e+07
4.76051e+07
4.59513e+07
4.40843e+07
4.20633e+07
3.99603e+07
3.78162e+07
3.5679e+07
3.35863e+07
3.15412e+07
2.96175e+07
2.77462e+07
2.59984e+07
2.44373e+07
2.28752e+07
2.12948e+07
5.02742e+07
4.98091e+07
4.88492e+07
4.74997e+07
4.58473e+07
4.39827e+07
4.19646e+07
3.98642e+07
3.7724e+07
3.55894e+07
3.35015e+07
3.146e+07
2.9541e+07
2.76765e+07
2.59462e+07
2.43852e+07
2.2876e+07
2.15412e+07
5.0024e+07
4.95595e+07
4.86e+07
4.72535e+07
4.56057e+07
4.37459e+07
4.17345e+07
3.96403e+07
3.75083e+07
3.53818e+07
3.33023e+07
3.12726e+07
2.93596e+07
2.75124e+07
2.58019e+07
2.42458e+07
2.28104e+07
2.15967e+07
4.95881e+07
4.91266e+07
4.81694e+07
4.68281e+07
4.51882e+07
4.33369e+07
4.13371e+07
3.92535e+07
3.71363e+07
3.50233e+07
3.29596e+07
3.09477e+07
2.9052e+07
2.72241e+07
2.55433e+07
2.40119e+07
2.26252e+07
2.15238e+07
4.89227e+07
4.84614e+07
4.75089e+07
4.61771e+07
4.45491e+07
4.27123e+07
4.07283e+07
3.86641e+07
3.65658e+07
3.4477e+07
3.24336e+07
3.04524e+07
2.85793e+07
2.67875e+07
2.5159e+07
2.36501e+07
2.23687e+07
2.13038e+07
4.7973e+07
4.75091e+07
4.65662e+07
4.52478e+07
4.36377e+07
4.18207e+07
3.98615e+07
3.78228e+07
3.57547e+07
3.36955e+07
3.16864e+07
2.97394e+07
2.79046e+07
2.61594e+07
2.45804e+07
2.3141e+07
2.1914e+07
2.08573e+07
4.66774e+07
4.62122e+07
4.52848e+07
4.39827e+07
4.23987e+07
4.06074e+07
3.86838e+07
3.66785e+07
3.46533e+07
3.26331e+07
3.06724e+07
2.87711e+07
2.69876e+07
2.53002e+07
2.37783e+07
2.2399e+07
2.12304e+07
2.02024e+07
4.52346e+07
4.4771e+07
4.386e+07
4.25757e+07
4.10205e+07
3.92588e+07
3.73737e+07
3.54074e+07
3.34275e+07
3.14536e+07
2.95427e+07
2.76951e+07
2.59631e+07
2.43389e+07
2.28655e+07
2.15494e+07
2.04135e+07
1.94536e+07
4.37191e+07
4.3259e+07
4.23642e+07
4.10997e+07
3.9574e+07
3.78447e+07
3.59991e+07
3.40752e+07
3.21415e+07
3.02171e+07
2.83572e+07
2.65653e+07
2.48871e+07
2.33237e+07
2.19023e+07
2.06424e+07
1.95485e+07
1.86498e+07
4.17779e+07
4.13246e+07
4.04492e+07
3.92123e+07
3.77231e+07
3.60378e+07
3.4241e+07
3.23733e+07
3.04969e+07
2.86374e+07
2.68403e+07
2.512e+07
2.35079e+07
2.20192e+07
2.06642e+07
1.9472e+07
1.84349e+07
1.75821e+07
3.93281e+07
3.88847e+07
3.80329e+07
3.68328e+07
3.53894e+07
3.37613e+07
3.20265e+07
3.02299e+07
2.84267e+07
2.66474e+07
2.49307e+07
2.32964e+07
2.17682e+07
2.03656e+07
1.90937e+07
1.79783e+07
1.70081e+07
1.62016e+07
3.63033e+07
3.58748e+07
3.50511e+07
3.39e+07
3.25139e+07
3.0959e+07
2.93016e+07
2.75941e+07
2.58814e+07
2.42011e+07
2.25826e+07
2.10514e+07
1.9624e+07
1.83208e+07
1.71455e+07
1.61144e+07
1.522e+07
1.44667e+07
3.26885e+07
3.22787e+07
3.14915e+07
3.04015e+07
2.90876e+07
2.76218e+07
2.60602e+07
2.44592e+07
2.28567e+07
2.1293e+07
1.97913e+07
1.83791e+07
1.70683e+07
1.58773e+07
1.48086e+07
1.38712e+07
1.306e+07
1.23719e+07
2.8575e+07
2.8188e+07
2.74475e+07
2.64299e+07
2.52044e+07
2.3842e+07
2.23945e+07
2.09156e+07
1.94413e+07
1.80085e+07
1.66397e+07
1.53582e+07
1.41759e+07
1.31056e+07
1.21505e+07
1.13135e+07
1.05911e+07
9.97713e+06
2.42485e+07
2.38878e+07
2.32034e+07
2.22666e+07
2.11413e+07
1.98932e+07
1.85712e+07
1.72247e+07
1.58881e+07
1.45941e+07
1.33643e+07
1.2218e+07
1.11661e+07
1.02176e+07
9.37493e+06
8.63809e+06
8.0039e+06
7.46568e+06
2.02996e+07
1.99677e+07
1.93429e+07
1.84878e+07
1.74639e+07
1.6329e+07
1.51307e+07
1.39124e+07
1.27076e+07
1.15444e+07
1.04434e+07
9.42035e+06
8.4852e+06
7.64401e+06
6.89866e+06
6.24787e+06
5.68849e+06
5.21427e+06
1.77329e+07
1.74265e+07
1.68519e+07
1.60647e+07
1.51231e+07
1.40792e+07
1.29783e+07
1.18595e+07
1.07543e+07
9.68791e+06
8.67934e+06
7.7421e+06
6.88493e+06
6.11259e+06
5.42645e+06
4.82513e+06
4.30564e+06
3.86262e+06
1.78413e+07
1.75468e+07
1.69944e+07
1.62368e+07
1.53299e+07
1.4323e+07
1.32595e+07
1.21766e+07
1.11042e+07
1.0066e+07
9.07992e+06
8.15846e+06
7.30978e+06
6.53838e+06
5.84566e+06
5.23078e+06
4.69123e+06
4.22267e+06
2.07202e+07
2.04213e+07
1.9859e+07
1.90863e+07
1.816e+07
1.71291e+07
1.6037e+07
1.49206e+07
1.38096e+07
1.27275e+07
1.16919e+07
1.07154e+07
9.80626e+06
8.96935e+06
8.20654e+06
7.51775e+06
6.90114e+06
6.35334e+06
2.52104e+07
2.48984e+07
2.43082e+07
2.34944e+07
2.25165e+07
2.14253e+07
2.02654e+07
1.90744e+07
1.78829e+07
1.67149e+07
1.55886e+07
1.4517e+07
1.3509e+07
1.257e+07
1.17027e+07
1.09077e+07
1.01838e+07
9.52872e+06
3.02732e+07
2.99472e+07
2.93237e+07
2.84604e+07
2.742e+07
2.62556e+07
2.50136e+07
2.37331e+07
2.2446e+07
2.11771e+07
1.99455e+07
1.8765e+07
1.76453e+07
1.65925e+07
1.56099e+07
1.4699e+07
1.38593e+07
1.30893e+07
3.51904e+07
3.48527e+07
3.41981e+07
3.32877e+07
3.21871e+07
3.09515e+07
2.96292e+07
2.82611e+07
2.68803e+07
2.55128e+07
2.41787e+07
2.28926e+07
2.16649e+07
2.05025e+07
1.94095e+07
1.8388e+07
1.74383e+07
1.65592e+07
3.95426e+07
3.91965e+07
3.85165e+07
3.75664e+07
3.64142e+07
3.51167e+07
3.37244e+07
3.22793e+07
3.0816e+07
2.93616e+07
2.7937e+07
2.65577e+07
2.5235e+07
2.39762e+07
2.27863e+07
2.16679e+07
2.06218e+07
1.96475e+07
4.31407e+07
4.27895e+07
4.20903e+07
4.11091e+07
3.99157e+07
3.85684e+07
3.7119e+07
3.5611e+07
3.408e+07
3.25542e+07
3.10551e+07
2.95992e+07
2.81981e+07
2.68601e+07
2.55906e+07
2.43925e+07
2.32672e+07
2.22146e+07
4.5951e+07
4.55968e+07
4.48837e+07
4.38797e+07
4.26552e+07
4.12698e+07
3.97765e+07
3.82198e+07
3.66364e+07
3.50549e+07
3.3498e+07
3.19824e+07
3.05204e+07
2.91208e+07
2.77892e+07
2.65292e+07
2.53423e+07
2.42288e+07
4.80305e+07
4.76747e+07
4.6952e+07
4.59318e+07
4.4685e+07
4.32719e+07
4.17464e+07
4.01541e+07
3.8532e+07
3.69097e+07
3.53101e+07
3.37505e+07
3.22437e+07
3.07987e+07
2.94214e+07
2.81158e+07
2.68835e+07
2.57251e+07
4.94803e+07
4.91237e+07
4.83943e+07
4.73632e+07
4.61011e+07
4.46691e+07
4.31216e+07
4.15047e+07
3.9856e+07
3.82054e+07
3.65763e+07
3.49863e+07
3.34484e+07
3.19719e+07
3.0563e+07
2.92257e+07
2.79621e+07
2.67725e+07
5.04159e+07
5.00582e+07
4.93247e+07
4.82869e+07
4.7015e+07
4.5571e+07
4.40095e+07
4.2377e+07
4.07113e+07
3.90427e+07
3.73947e+07
3.57851e+07
3.42273e+07
3.27305e+07
3.13013e+07
2.99436e+07
2.86598e+07
2.74503e+07
5.09453e+07
5.05873e+07
4.98522e+07
4.88113e+07
4.7534e+07
4.60835e+07
4.45142e+07
4.28727e+07
4.11972e+07
3.95181e+07
3.78592e+07
3.62384e+07
3.4669e+07
3.31606e+07
3.17197e+07
3.03504e+07
2.90551e+07
2.78346e+07
5.11676e+07
5.08111e+07
5.00741e+07
4.90314e+07
4.77516e+07
4.62982e+07
4.47255e+07
4.30802e+07
4.14004e+07
3.97168e+07
3.80532e+07
3.64276e+07
3.48534e+07
3.334e+07
3.1894e+07
3.05198e+07
2.92199e+07
2.79949e+07
6.0487e+07
6.04279e+07
6.02972e+07
6.00913e+07
5.98085e+07
5.94479e+07
5.90098e+07
5.84947e+07
5.79039e+07
5.72388e+07
5.65013e+07
5.56934e+07
5.48175e+07
5.38762e+07
5.28722e+07
5.18085e+07
5.06884e+07
4.95153e+07
4.82928e+07
4.7025e+07
4.57157e+07
4.43691e+07
4.29893e+07
4.15808e+07
4.0148e+07
3.86955e+07
3.72277e+07
3.57491e+07
3.42642e+07
3.27775e+07
3.12937e+07
2.98174e+07
2.8353e+07
2.69053e+07
2.54788e+07
2.40781e+07
2.27078e+07
2.13725e+07
2.00772e+07
1.88265e+07
1.76252e+07
1.64783e+07
1.53906e+07
1.43674e+07
1.34138e+07
1.25349e+07
1.1736e+07
1.10226e+07
1.04001e+07
9.8739e+06
9.44945e+06
9.13219e+06
8.92752e+06
8.84071e+06
8.87685e+06
9.04077e+06
9.337e+06
9.76981e+06
1.0343e+07
1.106e+07
1.19234e+07
1.29353e+07
1.40973e+07
1.541e+07
1.68735e+07
1.84869e+07
2.02485e+07
2.21559e+07
2.42061e+07
2.63951e+07
2.87184e+07
3.11706e+07
3.3746e+07
3.64379e+07
3.92397e+07
4.2144e+07
4.51434e+07
4.82301e+07
5.13963e+07
5.46339e+07
5.79348e+07
6.1291e+07
6.46939e+07
6.81352e+07
7.1606e+07
7.50976e+07
7.86007e+07
8.21059e+07
8.56032e+07
8.90821e+07
9.25317e+07
9.59406e+07
9.92966e+07
1.02587e+08
1.058e+08
1.08923e+08
1.11942e+08
1.14846e+08
1.17623e+08
1.20263e+08
1.22757e+08
1.25095e+08
1.27272e+08
1.29281e+08
1.31119e+08
1.32783e+08
1.34274e+08
1.35595e+08
1.3675e+08
1.37748e+08
1.38598e+08
1.39311e+08
1.39902e+08
1.40384e+08
1.40775e+08
1.41091e+08
1.41352e+08
1.41581e+08
1.418e+08
1.42035e+08
1.42318e+08
1.42681e+08
1.4316e+08
1.43795e+08
1.4463e+08
1.45713e+08
1.47096e+08
1.48835e+08
1.50993e+08
1.5363e+08
1.5681e+08
1.60596e+08
1.65049e+08
1.70225e+08
1.76179e+08
1.82954e+08
1.90589e+08
1.99108e+08
2.08527e+08
2.18849e+08
2.30068e+08
2.4216e+08
2.55099e+08
2.68843e+08
2.83348e+08
2.98553e+08
3.14408e+08
3.30842e+08
3.47793e+08
3.65184e+08
3.82943e+08
4.00985e+08
4.19222e+08
4.37559e+08
4.55875e+08
4.7403e+08
4.91862e+08
5.09201e+08
5.25813e+08
5.41464e+08
5.55855e+08
5.68688e+08
5.7962e+08
5.88328e+08
5.94478e+08
5.97773e+08
5.97953e+08
5.94836e+08
5.88296e+08
5.7836e+08
5.65109e+08
5.48809e+08
5.29779e+08
5.08513e+08
4.85483e+08
4.61214e+08
4.36073e+08
4.10497e+08
3.84695e+08
3.58993e+08
5.94114e+07
5.93557e+07
5.92305e+07
5.90306e+07
5.87542e+07
5.84013e+07
5.79725e+07
5.74688e+07
5.68915e+07
5.6242e+07
5.55221e+07
5.47337e+07
5.3879e+07
5.29604e+07
5.19804e+07
5.0942e+07
4.9848e+07
4.87018e+07
4.7507e+07
4.62674e+07
4.49866e+07
4.36688e+07
4.23182e+07
4.09389e+07
3.95353e+07
3.81119e+07
3.6673e+07
3.52229e+07
3.3766e+07
3.23067e+07
3.08495e+07
2.9399e+07
2.79596e+07
2.6536e+07
2.51325e+07
2.37539e+07
2.24044e+07
2.10889e+07
1.98119e+07
1.85783e+07
1.73928e+07
1.62603e+07
1.51857e+07
1.41741e+07
1.32307e+07
1.23606e+07
1.15691e+07
1.08615e+07
1.02434e+07
9.72021e+06
9.2973e+06
8.98014e+06
8.77409e+06
8.68439e+06
8.71616e+06
8.87428e+06
9.16331e+06
9.58748e+06
1.01506e+07
1.08559e+07
1.17062e+07
1.27036e+07
1.38495e+07
1.51445e+07
1.65888e+07
1.81815e+07
1.99208e+07
2.18044e+07
2.38292e+07
2.59913e+07
2.82861e+07
3.07083e+07
3.32522e+07
3.59112e+07
3.86786e+07
4.15471e+07
4.45095e+07
4.75579e+07
5.06845e+07
5.38813e+07
5.71403e+07
6.04534e+07
6.38122e+07
6.72083e+07
7.06332e+07
7.4078e+07
7.75334e+07
8.09902e+07
8.44385e+07
8.78679e+07
9.12676e+07
9.46263e+07
9.7932e+07
1.01173e+08
1.04336e+08
1.07409e+08
1.1038e+08
1.13236e+08
1.15967e+08
1.18563e+08
1.21013e+08
1.23311e+08
1.2545e+08
1.27423e+08
1.29228e+08
1.30863e+08
1.32326e+08
1.33623e+08
1.34756e+08
1.35735e+08
1.36569e+08
1.37269e+08
1.37849e+08
1.38321e+08
1.38704e+08
1.39013e+08
1.39267e+08
1.39488e+08
1.39699e+08
1.39926e+08
1.40197e+08
1.40546e+08
1.41008e+08
1.41622e+08
1.4243e+08
1.43481e+08
1.44825e+08
1.46518e+08
1.4862e+08
1.51193e+08
1.54299e+08
1.58e+08
1.62356e+08
1.67424e+08
1.73255e+08
1.79894e+08
1.87378e+08
1.95734e+08
2.04976e+08
2.15106e+08
2.2612e+08
2.37994e+08
2.50704e+08
2.64209e+08
2.78464e+08
2.9341e+08
3.08996e+08
3.25161e+08
3.41835e+08
3.58946e+08
3.76424e+08
3.94186e+08
4.12146e+08
4.30211e+08
4.48261e+08
4.66161e+08
4.83749e+08
5.00861e+08
5.17269e+08
5.32738e+08
5.46985e+08
5.59711e+08
5.7058e+08
5.79272e+08
5.85462e+08
5.88859e+08
5.89206e+08
5.86326e+08
5.80087e+08
5.70502e+08
5.57645e+08
5.41772e+08
5.2319e+08
5.02378e+08
4.79798e+08
4.55959e+08
4.31228e+08
4.06032e+08
3.80583e+08
3.55119e+08
5.73449e+07
5.72918e+07
5.71722e+07
5.69807e+07
5.67159e+07
5.63784e+07
5.59692e+07
5.54893e+07
5.49398e+07
5.43218e+07
5.36368e+07
5.28865e+07
5.20728e+07
5.11977e+07
5.02636e+07
4.9273e+07
4.82287e+07
4.71339e+07
4.59917e+07
4.48056e+07
4.35794e+07
4.23169e+07
4.10221e+07
3.96989e+07
3.83515e+07
3.69839e+07
3.55999e+07
3.4204e+07
3.28004e+07
3.13933e+07
2.99871e+07
2.85863e+07
2.71951e+07
2.5818e+07
2.44592e+07
2.31231e+07
2.18141e+07
2.05366e+07
1.92954e+07
1.8095e+07
1.69402e+07
1.58357e+07
1.47866e+07
1.37976e+07
1.2874e+07
1.2021e+07
1.12439e+07
1.05479e+07
9.93857e+06
9.42124e+06
9.00136e+06
8.68437e+06
8.47566e+06
8.38047e+06
8.40389e+06
8.5508e+06
8.82577e+06
9.233e+06
9.77632e+06
1.0459e+07
1.12837e+07
1.22525e+07
1.33668e+07
1.46274e+07
1.6034e+07
1.75859e+07
1.92814e+07
2.11181e+07
2.3093e+07
2.52021e+07
2.74409e+07
2.98042e+07
3.22862e+07
3.48806e+07
3.75805e+07
4.03791e+07
4.32689e+07
4.62424e+07
4.92919e+07
5.24093e+07
5.55869e+07
5.88164e+07
6.20897e+07
6.53984e+07
6.87341e+07
7.20881e+07
7.54514e+07
7.88146e+07
8.21681e+07
8.55018e+07
8.88048e+07
9.20661e+07
9.52743e+07
9.84176e+07
1.01484e+08
1.0446e+08
1.07336e+08
1.10099e+08
1.1274e+08
1.15248e+08
1.17614e+08
1.19832e+08
1.21895e+08
1.23799e+08
1.25539e+08
1.27115e+08
1.28525e+08
1.29774e+08
1.30866e+08
1.31808e+08
1.32612e+08
1.33285e+08
1.33843e+08
1.34298e+08
1.34664e+08
1.34958e+08
1.35198e+08
1.35405e+08
1.356e+08
1.35809e+08
1.36058e+08
1.36379e+08
1.36805e+08
1.37375e+08
1.38129e+08
1.39115e+08
1.4038e+08
1.4198e+08
1.43972e+08
1.46416e+08
1.49374e+08
1.52906e+08
1.5707e+08
1.61921e+08
1.67509e+08
1.73879e+08
1.81065e+08
1.89096e+08
1.97985e+08
2.07737e+08
2.18343e+08
2.29787e+08
2.42043e+08
2.55075e+08
2.68835e+08
2.8327e+08
2.98324e+08
3.13948e+08
3.30074e+08
3.46629e+08
3.63543e+08
3.80746e+08
3.9815e+08
4.15664e+08
4.33174e+08
4.50553e+08
4.6764e+08
4.84276e+08
5.00246e+08
5.1532e+08
5.29233e+08
5.41693e+08
5.52378e+08
5.60986e+08
5.67198e+08
5.70742e+08
5.71367e+08
5.68901e+08
5.63209e+08
5.54278e+08
5.42182e+08
5.27146e+08
5.09455e+08
4.89565e+08
4.67901e+08
4.44942e+08
4.21061e+08
3.96659e+08
3.71961e+08
3.47139e+08
5.44495e+07
5.44002e+07
5.42881e+07
5.41088e+07
5.38618e+07
5.35481e+07
5.31685e+07
5.27235e+07
5.22138e+07
5.16403e+07
5.10043e+07
5.0307e+07
4.95498e+07
4.87345e+07
4.78632e+07
4.69382e+07
4.59621e+07
4.49377e+07
4.3868e+07
4.27562e+07
4.16057e+07
4.04201e+07
3.9203e+07
3.79579e+07
3.66883e+07
3.53979e+07
3.40906e+07
3.27702e+07
3.1441e+07
3.0107e+07
2.87723e+07
2.74411e+07
2.61173e+07
2.48052e+07
2.35086e+07
2.22319e+07
2.09793e+07
1.97552e+07
1.8564e+07
1.74102e+07
1.62984e+07
1.52334e+07
1.42198e+07
1.32628e+07
1.23674e+07
1.15386e+07
1.07817e+07
1.0102e+07
9.50499e+06
8.99601e+06
8.58048e+06
8.26382e+06
8.05141e+06
7.94844e+06
7.96001e+06
8.09098e+06
8.34595e+06
8.7291e+06
9.24418e+06
9.89443e+06
1.06825e+07
1.16106e+07
1.26799e+07
1.38911e+07
1.52441e+07
1.6738e+07
1.83711e+07
2.01411e+07
2.20451e+07
2.40791e+07
2.62386e+07
2.85186e+07
3.09133e+07
3.34165e+07
3.60216e+07
3.87218e+07
4.15098e+07
4.43783e+07
4.73197e+07
5.03262e+07
5.339e+07
5.65031e+07
5.96574e+07
6.28447e+07
6.60567e+07
6.92846e+07
7.25199e+07
7.57534e+07
7.89755e+07
8.21762e+07
8.53451e+07
8.84714e+07
9.15439e+07
9.45512e+07
9.74817e+07
1.00324e+08
1.03067e+08
1.057e+08
1.08213e+08
1.10597e+08
1.12845e+08
1.1495e+08
1.16907e+08
1.18711e+08
1.20358e+08
1.21849e+08
1.23183e+08
1.24364e+08
1.25397e+08
1.26287e+08
1.27046e+08
1.27681e+08
1.28207e+08
1.28633e+08
1.28975e+08
1.29247e+08
1.29466e+08
1.2965e+08
1.29822e+08
1.30003e+08
1.30219e+08
1.30498e+08
1.30873e+08
1.31379e+08
1.32056e+08
1.32948e+08
1.34102e+08
1.3557e+08
1.37407e+08
1.3967e+08
1.42417e+08
1.4571e+08
1.49603e+08
1.5415e+08
1.59397e+08
1.65389e+08
1.72158e+08
1.79733e+08
1.88129e+08
1.97351e+08
2.0739e+08
2.18233e+08
2.29857e+08
2.4223e+08
2.55303e+08
2.69028e+08
2.83349e+08
2.98225e+08
3.13591e+08
3.2938e+08
3.45521e+08
3.61952e+08
3.78589e+08
3.95343e+08
4.12103e+08
4.28755e+08
4.45143e+08
4.61112e+08
4.76463e+08
4.90974e+08
5.04396e+08
5.16454e+08
5.2685e+08
5.35299e+08
5.41497e+08
5.45188e+08
5.46134e+08
5.44166e+08
5.39153e+08
5.31066e+08
5.19965e+08
5.06041e+08
4.89557e+08
4.70924e+08
4.50526e+08
4.28803e+08
4.06119e+08
3.82848e+08
3.59228e+08
3.35411e+08
5.09258e+07
5.08818e+07
5.07799e+07
5.06169e+07
5.03931e+07
5.01092e+07
4.97654e+07
4.93619e+07
4.88997e+07
4.83791e+07
4.78008e+07
4.71659e+07
4.64756e+07
4.57314e+07
4.49352e+07
4.40888e+07
4.31946e+07
4.22551e+07
4.12727e+07
4.02506e+07
3.91916e+07
3.80988e+07
3.69753e+07
3.58241e+07
3.46484e+07
3.34515e+07
3.22371e+07
3.10088e+07
2.97704e+07
2.85257e+07
2.72784e+07
2.60322e+07
2.47908e+07
2.35579e+07
2.23375e+07
2.11335e+07
1.995e+07
1.87911e+07
1.76611e+07
1.65643e+07
1.55052e+07
1.44885e+07
1.35187e+07
1.26008e+07
1.17398e+07
1.09406e+07
1.02085e+07
9.54886e+06
8.96691e+06
8.46811e+06
8.05784e+06
7.74147e+06
7.52438e+06
7.41176e+06
7.40865e+06
7.5199e+06
7.75003e+06
8.10319e+06
8.58309e+06
9.19298e+06
9.93549e+06
1.08127e+07
1.18258e+07
1.29756e+07
1.42618e+07
1.56835e+07
1.72391e+07
1.89263e+07
2.07421e+07
2.26828e+07
2.4744e+07
2.69206e+07
2.9207e+07
3.15973e+07
3.40851e+07
3.66635e+07
3.93257e+07
4.20644e+07
4.48724e+07
4.77419e+07
5.06653e+07
5.36349e+07
5.66427e+07
5.96807e+07
6.27407e+07
6.58141e+07
6.88925e+07
7.1967e+07
7.50281e+07
7.80661e+07
8.10712e+07
8.40327e+07
8.694e+07
8.97819e+07
9.25475e+07
9.52261e+07
9.78073e+07
1.00282e+08
1.0264e+08
1.04874e+08
1.06976e+08
1.08942e+08
1.10768e+08
1.12448e+08
1.13981e+08
1.15367e+08
1.16607e+08
1.17703e+08
1.18661e+08
1.19486e+08
1.20187e+08
1.20774e+08
1.21258e+08
1.21648e+08
1.21957e+08
1.22199e+08
1.22389e+08
1.22545e+08
1.22684e+08
1.22829e+08
1.23002e+08
1.23229e+08
1.2354e+08
1.23969e+08
1.24551e+08
1.25329e+08
1.26346e+08
1.27653e+08
1.29301e+08
1.31343e+08
1.33836e+08
1.36837e+08
1.40399e+08
1.44574e+08
1.49408e+08
1.5494e+08
1.61204e+08
1.6823e+08
1.7603e+08
1.84611e+08
1.93968e+08
2.04088e+08
2.14949e+08
2.26527e+08
2.38775e+08
2.51649e+08
2.65095e+08
2.79075e+08
2.93534e+08
3.08409e+08
3.2363e+08
3.39139e+08
3.54858e+08
3.70702e+08
3.86563e+08
4.02336e+08
4.17877e+08
4.33037e+08
4.47632e+08
4.61454e+08
4.74263e+08
4.85811e+08
4.95827e+08
5.04042e+08
5.10175e+08
5.13986e+08
5.1525e+08
5.13811e+08
5.09545e+08
5.02406e+08
4.92439e+08
4.79796e+08
4.6472e+08
4.47569e+08
4.2868e+08
4.08458e+08
3.87232e+08
3.65353e+08
3.4307e+08
3.20543e+08
4.69968e+07
4.69598e+07
4.68704e+07
4.67266e+07
4.65289e+07
4.62777e+07
4.5973e+07
4.56151e+07
4.52043e+07
4.47408e+07
4.42252e+07
4.36582e+07
4.3041e+07
4.23746e+07
4.16606e+07
4.09005e+07
4.00964e+07
3.92502e+07
3.83643e+07
3.74411e+07
3.64831e+07
3.54927e+07
3.44726e+07
3.34253e+07
3.23536e+07
3.12607e+07
3.01498e+07
2.90243e+07
2.78873e+07
2.67422e+07
2.55923e+07
2.4441e+07
2.32916e+07
2.21475e+07
2.10124e+07
1.989e+07
1.8784e+07
1.76985e+07
1.66374e+07
1.56049e+07
1.46053e+07
1.3643e+07
1.27225e+07
1.18488e+07
1.10264e+07
1.02606e+07
9.55649e+06
8.91923e+06
8.35419e+06
7.86672e+06
7.46219e+06
7.14597e+06
6.9234e+06
6.79963e+06
6.77966e+06
6.86827e+06
7.06995e+06
7.38882e+06
7.8285e+06
8.3922e+06
9.0825e+06
9.9014e+06
1.08502e+07
1.19295e+07
1.31392e+07
1.44783e+07
1.59452e+07
1.75376e+07
1.92526e+07
2.10866e+07
2.30352e+07
2.50936e+07
2.72564e+07
2.95177e+07
3.18713e+07
3.43108e+07
3.68293e+07
3.942e+07
4.20756e+07
4.47889e+07
4.75522e+07
5.03582e+07
5.31989e+07
5.60668e+07
5.89537e+07
6.18513e+07
6.47513e+07
6.7645e+07
7.05234e+07
7.33769e+07
7.6196e+07
7.89709e+07
8.16914e+07
8.43467e+07
8.69266e+07
8.94213e+07
9.18213e+07
9.41176e+07
9.6302e+07
9.8367e+07
1.00306e+08
1.02117e+08
1.03794e+08
1.05335e+08
1.06739e+08
1.08007e+08
1.09139e+08
1.10138e+08
1.1101e+08
1.11759e+08
1.12393e+08
1.12922e+08
1.13353e+08
1.13698e+08
1.13967e+08
1.14172e+08
1.14326e+08
1.14446e+08
1.14546e+08
1.14646e+08
1.14768e+08
1.14934e+08
1.15173e+08
1.15513e+08
1.15991e+08
1.16641e+08
1.17505e+08
1.18631e+08
1.20066e+08
1.21862e+08
1.24069e+08
1.26744e+08
1.29938e+08
1.33698e+08
1.38069e+08
1.43089e+08
1.48793e+08
1.55206e+08
1.62346e+08
1.70217e+08
1.78819e+08
1.8814e+08
1.9816e+08
2.08859e+08
2.20199e+08
2.32139e+08
2.44626e+08
2.57626e+08
2.71091e+08
2.84964e+08
2.99178e+08
3.13676e+08
3.28387e+08
3.43226e+08
3.58097e+08
3.72898e+08
3.875e+08
4.01757e+08
4.15501e+08
4.28542e+08
4.40652e+08
4.51603e+08
4.61158e+08
4.69067e+08
4.75076e+08
4.78953e+08
4.80499e+08
4.79576e+08
4.76057e+08
4.69889e+08
4.61097e+08
4.49809e+08
4.36236e+08
4.20684e+08
4.03444e+08
3.84883e+08
3.65288e+08
3.44981e+08
3.24216e+08
3.0318e+08
4.28876e+07
4.28581e+07
4.27822e+07
4.26588e+07
4.24882e+07
4.22707e+07
4.20063e+07
4.1695e+07
4.13367e+07
4.09316e+07
4.04801e+07
3.99829e+07
3.94407e+07
3.88544e+07
3.82251e+07
3.75541e+07
3.6843e+07
3.60935e+07
3.53074e+07
3.44867e+07
3.36331e+07
3.27487e+07
3.18357e+07
3.08962e+07
2.99329e+07
2.89484e+07
2.79456e+07
2.69272e+07
2.58961e+07
2.48551e+07
2.38072e+07
2.27552e+07
2.17023e+07
2.06515e+07
1.96062e+07
1.85697e+07
1.75456e+07
1.65375e+07
1.55491e+07
1.45845e+07
1.36477e+07
1.27429e+07
1.18745e+07
1.10473e+07
1.0266e+07
9.53541e+06
8.86072e+06
8.2471e+06
7.69981e+06
7.22419e+06
6.82557e+06
6.50926e+06
6.28055e+06
6.14457e+06
6.10628e+06
6.17041e+06
6.3414e+06
6.62328e+06
7.01965e+06
7.53363e+06
8.16773e+06
8.92391e+06
9.80341e+06
1.08068e+07
1.1934e+07
1.31841e+07
1.45554e+07
1.60456e+07
1.76519e+07
1.93706e+07
2.11978e+07
2.31287e+07
2.51579e+07
2.72799e+07
2.94887e+07
3.17781e+07
3.41414e+07
3.65721e+07
3.90631e+07
4.16074e+07
4.41977e+07
4.68268e+07
4.94871e+07
5.2171e+07
5.48709e+07
5.75786e+07
6.0286e+07
6.29848e+07
6.5666e+07
6.83207e+07
7.09398e+07
7.35139e+07
7.60334e+07
7.84885e+07
8.08696e+07
8.31678e+07
8.53744e+07
8.74814e+07
8.94813e+07
9.13678e+07
9.31354e+07
9.47806e+07
9.63006e+07
9.76941e+07
9.89608e+07
1.00101e+08
1.01117e+08
1.02012e+08
1.0279e+08
1.03455e+08
1.04016e+08
1.04478e+08
1.04851e+08
1.05143e+08
1.05364e+08
1.05525e+08
1.05638e+08
1.05715e+08
1.0577e+08
1.05821e+08
1.05885e+08
1.05985e+08
1.06145e+08
1.06392e+08
1.06757e+08
1.07272e+08
1.07976e+08
1.0891e+08
1.10121e+08
1.11656e+08
1.13565e+08
1.15898e+08
1.18703e+08
1.22027e+08
1.25912e+08
1.30395e+08
1.3551e+08
1.41284e+08
1.47733e+08
1.54863e+08
1.62677e+08
1.71166e+08
1.80314e+08
1.90103e+08
2.00501e+08
2.11472e+08
2.22969e+08
2.34961e+08
2.474e+08
2.60237e+08
2.7341e+08
2.86864e+08
3.0053e+08
3.14326e+08
3.28167e+08
3.41954e+08
3.5557e+08
3.68872e+08
3.81708e+08
3.93906e+08
4.05254e+08
4.15544e+08
4.24565e+08
4.32097e+08
4.3791e+08
4.41786e+08
4.43551e+08
4.43084e+08
4.40259e+08
4.35018e+08
4.27367e+08
4.17424e+08
4.05358e+08
3.91432e+08
3.75889e+08
3.59056e+08
3.41173e+08
3.22539e+08
3.03396e+08
2.83968e+08
3.88114e+07
3.87893e+07
3.87268e+07
3.86235e+07
3.84797e+07
3.82953e+07
3.80702e+07
3.78041e+07
3.7497e+07
3.71491e+07
3.67605e+07
3.63316e+07
3.5863e+07
3.53551e+07
3.48089e+07
3.42253e+07
3.36056e+07
3.29509e+07
3.22626e+07
3.15421e+07
3.0791e+07
3.00107e+07
2.92031e+07
2.83701e+07
2.75139e+07
2.66366e+07
2.57407e+07
2.48284e+07
2.39022e+07
2.29645e+07
2.20177e+07
2.10645e+07
2.01075e+07
1.91497e+07
1.81938e+07
1.7243e+07
1.63005e+07
1.53697e+07
1.44539e+07
1.3557e+07
1.26829e+07
1.18355e+07
1.10193e+07
1.02387e+07
9.49824e+06
8.80289e+06
8.15763e+06
7.56757e+06
7.03793e+06
6.57399e+06
6.18102e+06
5.86431e+06
5.62905e+06
5.48036e+06
5.42315e+06
5.46211e+06
5.60159e+06
5.84555e+06
6.19753e+06
6.66056e+06
7.23712e+06
7.92903e+06
8.73756e+06
9.66321e+06
1.07058e+07
1.18645e+07
1.31375e+07
1.45228e+07
1.60173e+07
1.76176e+07
1.93199e+07
2.11193e+07
2.3011e+07
2.49894e+07
2.70487e+07
2.9183e+07
3.1386e+07
3.36511e+07
3.59718e+07
3.83411e+07
4.07522e+07
4.31981e+07
4.56713e+07
4.81646e+07
5.06705e+07
5.31812e+07
5.56888e+07
5.81852e+07
6.06622e+07
6.3111e+07
6.55231e+07
6.78896e+07
7.02015e+07
7.24502e+07
7.46267e+07
7.67229e+07
7.87311e+07
8.06443e+07
8.24556e+07
8.41599e+07
8.57524e+07
8.72299e+07
8.85903e+07
8.98334e+07
9.09599e+07
9.19705e+07
9.2867e+07
9.36529e+07
9.43322e+07
9.49095e+07
9.53907e+07
9.57824e+07
9.6091e+07
9.63246e+07
9.64926e+07
9.66042e+07
9.66689e+07
9.66984e+07
9.67046e+07
9.67016e+07
9.67054e+07
9.67363e+07
9.68148e+07
9.69653e+07
9.72154e+07
9.75943e+07
9.81353e+07
9.88781e+07
9.9864e+07
1.01139e+08
1.02748e+08
1.04738e+08
1.07153e+08
1.10039e+08
1.13437e+08
1.17383e+08
1.2191e+08
1.27044e+08
1.32802e+08
1.39195e+08
1.46225e+08
1.53887e+08
1.62169e+08
1.71057e+08
1.80522e+08
1.90534e+08
2.01054e+08
2.12052e+08
2.23481e+08
2.35294e+08
2.47436e+08
2.59855e+08
2.72482e+08
2.85243e+08
2.98056e+08
3.10828e+08
3.23445e+08
3.35775e+08
3.47681e+08
3.59003e+08
3.69548e+08
3.79132e+08
3.87562e+08
3.94647e+08
4.00186e+08
4.0398e+08
4.05881e+08
4.05776e+08
4.0355e+08
3.99139e+08
3.92544e+08
3.83864e+08
3.73236e+08
3.60885e+08
3.4701e+08
3.31891e+08
3.15728e+08
2.98791e+08
2.81311e+08
2.63541e+08
3.49553e+07
3.49401e+07
3.48898e+07
3.48052e+07
3.46863e+07
3.45328e+07
3.43444e+07
3.41208e+07
3.38618e+07
3.35675e+07
3.32379e+07
3.2873e+07
3.24732e+07
3.20389e+07
3.15706e+07
3.1069e+07
3.05348e+07
2.99689e+07
2.93723e+07
2.8746e+07
2.80911e+07
2.74089e+07
2.67007e+07
2.59681e+07
2.52129e+07
2.44368e+07
2.36418e+07
2.28298e+07
2.20027e+07
2.11625e+07
2.03114e+07
1.94517e+07
1.85858e+07
1.7716e+07
1.68449e+07
1.59755e+07
1.51104e+07
1.42528e+07
1.3406e+07
1.25735e+07
1.17589e+07
1.09661e+07
1.01994e+07
9.46297e+06
8.76143e+06
8.09955e+06
7.4822e+06
6.91444e+06
6.4014e+06
5.94831e+06
5.56038e+06
5.24283e+06
5.00083e+06
4.83946e+06
4.76355e+06
4.77772e+06
4.88627e+06
5.0931e+06
5.40162e+06
5.81478e+06
6.33495e+06
6.96394e+06
7.70287e+06
8.55221e+06
9.51172e+06
1.05805e+07
1.17569e+07
1.30387e+07
1.4423e+07
1.59064e+07
1.7485e+07
1.91544e+07
2.09097e+07
2.27457e+07
2.46566e+07
2.66367e+07
2.868e+07
3.07802e+07
3.29308e+07
3.51254e+07
3.73573e+07
3.96197e+07
4.19055e+07
4.42077e+07
4.65189e+07
4.88319e+07
5.11388e+07
5.34322e+07
5.57041e+07
5.79462e+07
6.01507e+07
6.23091e+07
6.44134e+07
6.64557e+07
6.84278e+07
7.03226e+07
7.2133e+07
7.3853e+07
7.54768e+07
7.7e+07
7.84186e+07
7.97297e+07
8.09327e+07
8.20273e+07
8.30146e+07
8.38957e+07
8.46728e+07
8.5349e+07
8.59282e+07
8.6415e+07
8.68145e+07
8.71322e+07
8.73731e+07
8.75445e+07
8.76548e+07
8.77122e+07
8.7725e+07
8.77028e+07
8.76559e+07
8.75962e+07
8.75382e+07
8.74989e+07
8.74961e+07
8.7551e+07
8.76883e+07
8.79345e+07
8.83195e+07
8.88789e+07
8.96503e+07
9.06752e+07
9.19958e+07
9.36549e+07
9.56953e+07
9.81595e+07
1.01088e+08
1.04516e+08
1.08476e+08
1.12993e+08
1.18087e+08
1.2377e+08
1.30048e+08
1.36918e+08
1.44371e+08
1.52398e+08
1.60973e+08
1.70071e+08
1.79659e+08
1.89708e+08
2.00176e+08
2.11013e+08
2.22169e+08
2.33593e+08
2.45223e+08
2.56986e+08
2.68803e+08
2.80584e+08
2.92221e+08
3.03588e+08
3.14565e+08
3.25e+08
3.34725e+08
3.43571e+08
3.51366e+08
3.57942e+08
3.63132e+08
3.66754e+08
3.6869e+08
3.68833e+08
3.67082e+08
3.63374e+08
3.57709e+08
3.50166e+08
3.40857e+08
3.29974e+08
3.17677e+08
3.04197e+08
2.89702e+08
2.74428e+08
2.58593e+08
2.42472e+08
3.14711e+07
3.14615e+07
3.14219e+07
3.13539e+07
3.12572e+07
3.11313e+07
3.0976e+07
3.07907e+07
3.05753e+07
3.03294e+07
3.00528e+07
2.97457e+07
2.94081e+07
2.90401e+07
2.86419e+07
2.82141e+07
2.77569e+07
2.72709e+07
2.67568e+07
2.62152e+07
2.56471e+07
2.50532e+07
2.44346e+07
2.37926e+07
2.31285e+07
2.24438e+07
2.17398e+07
2.10182e+07
2.02805e+07
1.95284e+07
1.87639e+07
1.79887e+07
1.72048e+07
1.64146e+07
1.56202e+07
1.48241e+07
1.4029e+07
1.32376e+07
1.24531e+07
1.16787e+07
1.09179e+07
1.01745e+07
9.45254e+06
8.75609e+06
8.08967e+06
7.45793e+06
6.86569e+06
6.31793e+06
5.81967e+06
5.37606e+06
4.99229e+06
4.67349e+06
4.42481e+06
4.25127e+06
4.15766e+06
4.1485e+06
4.22801e+06
4.39999e+06
4.66775e+06
5.03412e+06
5.50137e+06
6.07121e+06
6.74467e+06
7.52213e+06
8.40329e+06
9.38716e+06
1.04721e+07
1.16558e+07
1.29355e+07
1.43076e+07
1.57685e+07
1.73138e+07
1.89387e+07
2.06381e+07
2.24066e+07
2.42386e+07
2.6128e+07
2.8069e+07
3.00552e+07
3.20804e+07
3.41384e+07
3.62225e+07
3.83259e+07
4.04417e+07
4.25631e+07
4.4683e+07
4.6794e+07
4.8889e+07
5.09605e+07
5.30007e+07
5.50024e+07
5.69578e+07
5.88595e+07
6.07003e+07
6.24731e+07
6.41714e+07
6.57891e+07
6.73208e+07
6.87619e+07
7.01089e+07
7.13585e+07
7.25084e+07
7.35584e+07
7.45086e+07
7.53604e+07
7.6115e+07
7.67747e+07
7.73425e+07
7.78222e+07
7.82179e+07
7.85343e+07
7.87755e+07
7.89466e+07
7.90536e+07
7.91035e+07
7.91035e+07
7.9061e+07
7.89837e+07
7.88813e+07
7.87635e+07
7.86433e+07
7.8535e+07
7.84537e+07
7.84179e+07
7.84491e+07
7.85717e+07
7.88126e+07
7.9203e+07
7.9777e+07
8.05712e+07
8.16244e+07
8.29773e+07
8.46696e+07
8.67417e+07
8.92325e+07
9.21773e+07
9.56071e+07
9.95481e+07
1.04022e+08
1.09044e+08
1.1462e+08
1.20754e+08
1.27437e+08
1.34664e+08
1.42415e+08
1.50667e+08
1.59391e+08
1.68561e+08
1.78137e+08
1.88069e+08
1.98307e+08
2.08803e+08
2.195e+08
2.30323e+08
2.41197e+08
2.5203e+08
2.62723e+08
2.73157e+08
2.83222e+08
2.92777e+08
3.01678e+08
3.09767e+08
3.16893e+08
3.22909e+08
3.27679e+08
3.3104e+08
3.329e+08
3.3317e+08
3.31758e+08
3.28613e+08
3.23731e+08
3.17172e+08
3.09033e+08
2.99472e+08
2.8862e+08
2.7666e+08
2.63737e+08
2.50046e+08
2.35794e+08
2.21267e+08
2.84689e+07
2.84634e+07
2.84325e+07
2.83783e+07
2.83006e+07
2.81985e+07
2.80718e+07
2.79198e+07
2.77421e+07
2.75383e+07
2.73081e+07
2.70513e+07
2.67677e+07
2.64572e+07
2.612e+07
2.5756e+07
2.53654e+07
2.49486e+07
2.45058e+07
2.40375e+07
2.35442e+07
2.30265e+07
2.24853e+07
2.19214e+07
2.13358e+07
2.07297e+07
2.01041e+07
1.94603e+07
1.87996e+07
1.81234e+07
1.74332e+07
1.67306e+07
1.60174e+07
1.52954e+07
1.45667e+07
1.38337e+07
1.30986e+07
1.2364e+07
1.1633e+07
1.09085e+07
1.0194e+07
9.49296e+06
8.80931e+06
8.14711e+06
7.51074e+06
6.90475e+06
6.33389e+06
5.80305e+06
5.31718e+06
4.88136e+06
4.50071e+06
4.18036e+06
3.92536e+06
3.74067e+06
3.63099e+06
3.60078e+06
3.65416e+06
3.79482e+06
4.02598e+06
4.35032e+06
4.76999e+06
5.28656e+06
5.90096e+06
6.61343e+06
7.42358e+06
8.33031e+06
9.33192e+06
1.04261e+07
1.161e+07
1.28801e+07
1.42326e+07
1.56633e+07
1.71676e+07
1.87403e+07
2.03763e+07
2.207e+07
2.38155e+07
2.56071e+07
2.74387e+07
2.93043e+07
3.11978e+07
3.31129e+07
3.50432e+07
3.69819e+07
3.89226e+07
4.08584e+07
4.27824e+07
4.46879e+07
4.65678e+07
4.8415e+07
5.02227e+07
5.19838e+07
5.36916e+07
5.53397e+07
5.69217e+07
5.84318e+07
5.98649e+07
6.12166e+07
6.24833e+07
6.36617e+07
6.47494e+07
6.57451e+07
6.66485e+07
6.746e+07
6.81812e+07
6.88136e+07
6.93592e+07
6.98212e+07
7.02029e+07
7.0508e+07
7.07406e+07
7.09044e+07
7.10041e+07
7.1045e+07