/*--------------------------------*- C++ -*----------------------------------*\
| =========                 |                                                 |
| \\      /  F ield         | OpenFOAM: The Open Source CFD Toolbox           |
|  \\    /   O peration     | Version:  dev                                   |
|   \\  /    A nd           | Web:      http://www.openfoam.org               |
|    \\/     M anipulation  |                                                 |
\*---------------------------------------------------------------------------*/
FoamFile
{
    version     2.0;
    format      ascii;
    class       volScalarField;
    object      rho;
    location    "9.132";
}
// * * * * * * * * * * * * * * * * * * * * * * * * * * * * * * * * * * * * * //

dimensions      [1 -3 0 0 0 0 0];

internalField   nonuniform List<scalar> 
12225
(
1.20755
1.19879
1.19609
1.19504
1.19297
1.19242
1.18905
1.18886
1.18441
1.18395
1.17918
1.17892
1.17305
1.17389
1.16879
1.16248
1.17107
1.15657
1.20228
1.19376
1.19375
1.1944
1.19177
1.19413
1.18794
1.19171
1.18427
1.18699
1.17987
1.18253
1.17434
1.1769
1.17333
1.16684
1.17335
1.16933
1.20144
1.19413
1.19364
1.1962
1.1921
1.19658
1.19026
1.19376
1.18881
1.18926
1.18532
1.18507
1.18134
1.17869
1.17801
1.17533
1.17436
1.16953
1.20088
1.19463
1.19301
1.1964
1.19297
1.19436
1.1931
1.19019
1.19086
1.1869
1.18683
1.18317
1.18265
1.17902
1.17791
1.17486
1.17528
1.1691
1.20074
1.19432
1.19273
1.19474
1.1935
1.19189
1.19254
1.18881
1.18998
1.18611
1.18656
1.18278
1.18247
1.17889
1.17795
1.17472
1.17457
1.16922
1.20191
1.19167
1.19263
1.19317
1.19271
1.19093
1.19131
1.18818
1.1882
1.18556
1.18478
1.18213
1.18157
1.17746
1.17743
1.17293
1.1743
1.16996
1.20253
1.18968
1.1934
1.19159
1.19256
1.18901
1.19115
1.18627
1.18741
1.18378
1.18334
1.18106
1.17991
1.17649
1.1762
1.17339
1.17206
1.17208
1.20263
1.18859
1.19302
1.18926
1.1914
1.1877
1.18975
1.1847
1.18712
1.18172
1.18254
1.17936
1.17892
1.17488
1.17499
1.17275
1.17186
1.16955
1.20127
1.18717
1.19271
1.1879
1.19004
1.18726
1.18786
1.18354
1.18602
1.18112
1.18091
1.17899
1.17753
1.17424
1.17393
1.17173
1.17227
1.16912
1.20064
1.18623
1.19245
1.18654
1.19022
1.18594
1.18726
1.18247
1.18501
1.18022
1.18022
1.17702
1.17681
1.17303
1.1729
1.17026
1.17019
1.16955
1.19904
1.18476
1.19109
1.18482
1.18992
1.18394
1.18654
1.18089
1.18324
1.17874
1.17844
1.17446
1.17515
1.17177
1.17006
1.16776
1.16787
1.16677
1.19611
1.18347
1.18821
1.18365
1.18725
1.18237
1.18408
1.17903
1.1803
1.1761
1.17519
1.17162
1.17143
1.16856
1.16586
1.16425
1.1636
1.16326
1.19278
1.18168
1.18461
1.18177
1.18308
1.17955
1.1794
1.1757
1.17516
1.17192
1.17018
1.16731
1.16574
1.16336
1.1607
1.15922
1.15781
1.15685
1.18862
1.17903
1.18034
1.1788
1.17827
1.17587
1.17414
1.17152
1.16935
1.16677
1.16441
1.16198
1.15963
1.15745
1.15511
1.15341
1.15152
1.14997
1.18399
1.17509
1.17551
1.17428
1.17291
1.17072
1.16844
1.16609
1.16335
1.16091
1.15805
1.15546
1.15297
1.1507
1.1481
1.14619
1.14414
1.14253
1.17852
1.17002
1.16956
1.16823
1.16668
1.16452
1.1623
1.15978
1.15687
1.15422
1.15123
1.14853
1.14588
1.14334
1.14087
1.13894
1.13651
1.13477
1.17147
1.1634
1.16284
1.16168
1.16001
1.15776
1.15543
1.15275
1.14996
1.1472
1.14447
1.14166
1.13913
1.13662
1.13421
1.13206
1.12969
1.12814
1.16429
1.15673
1.15621
1.15518
1.15335
1.15137
1.14894
1.14649
1.14397
1.14133
1.13873
1.1361
1.13373
1.1313
1.12908
1.12722
1.12512
1.12347
1.15798
1.15048
1.15002
1.14911
1.14768
1.14616
1.14408
1.1421
1.14004
1.13773
1.13554
1.13334
1.13108
1.12919
1.12714
1.12552
1.12373
1.12227
1.15201
1.14494
1.14492
1.14446
1.14361
1.14227
1.14088
1.13917
1.13763
1.13566
1.13402
1.13213
1.1304
1.12876
1.12714
1.12576
1.12443
1.12304
1.14742
1.14092
1.14114
1.14096
1.1402
1.13917
1.13839
1.13718
1.13596
1.13466
1.1333
1.13176
1.13051
1.12894
1.12787
1.12649
1.12554
1.12438
1.14377
1.13796
1.13835
1.13823
1.13775
1.13728
1.13664
1.13597
1.1351
1.13433
1.13327
1.13234
1.13115
1.13013
1.12899
1.12796
1.12697
1.12606
1.14114
1.13528
1.1359
1.13631
1.13627
1.13598
1.1356
1.13504
1.13457
1.1338
1.13332
1.13243
1.13172
1.1309
1.13005
1.12925
1.12844
1.12763
1.13943
1.13365
1.13432
1.13489
1.1351
1.13498
1.13484
1.13448
1.134
1.13361
1.13307
1.13254
1.13201
1.13132
1.13074
1.13001
1.12932
1.12859
1.13798
1.13232
1.13323
1.13385
1.13407
1.13417
1.13406
1.13384
1.13362
1.13329
1.13309
1.13278
1.13244
1.132
1.13144
1.1308
1.13009
1.1293
1.13684
1.13121
1.13219
1.13303
1.13343
1.13357
1.13366
1.13356
1.13342
1.13323
1.13304
1.13281
1.13254
1.13218
1.13172
1.13114
1.1305
1.12979
1.1361
1.13096
1.13181
1.13247
1.13282
1.13307
1.13325
1.13334
1.13342
1.13345
1.1335
1.13345
1.13335
1.13307
1.13267
1.13209
1.13141
1.13057
1.13591
1.13045
1.13139
1.13215
1.13259
1.13298
1.13337
1.13376
1.13412
1.13438
1.13452
1.13444
1.13414
1.13354
1.13276
1.13171
1.13054
1.12905
1.13593
1.13023
1.13088
1.13158
1.13215
1.13274
1.13325
1.13358
1.13362
1.1333
1.13266
1.13166
1.13037
1.12886
1.12719
1.12546
1.12358
1.12162
1.13799
1.13239
1.13156
1.13109
1.1308
1.13044
1.12987
1.12907
1.12806
1.12688
1.12556
1.1241
1.12257
1.12097
1.11934
1.11772
1.11607
1.11466
1.18199
1.21793
1.23272
1.23565
1.23446
1.23251
1.23049
1.22853
1.22632
1.22388
1.22113
1.21829
1.21565
1.21304
1.20962
1.20587
1.20128
1.1966
1.19264
1.18563
1.17627
1.17049
1.16733
1.16464
1.16225
1.16084
1.16089
1.16145
1.16191
1.16211
1.16218
1.16218
1.16215
1.16217
1.16218
1.1622
1.16223
1.16232
1.16243
1.1626
1.16277
1.16294
1.16312
1.16328
1.16346
1.16358
1.16376
1.16407
1.16448
1.16501
1.16575
1.16664
1.16766
1.16877
1.16994
1.17124
1.17266
1.17393
1.17501
1.17591
1.17689
1.17811
1.17959
1.18116
1.18275
1.18431
1.18581
1.1874
1.18941
1.19197
1.19483
1.19758
1.20002
1.20261
1.20581
1.2096
1.21389
1.21885
1.22481
1.23093
1.23519
1.23817
1.24407
1.25264
1.26031
1.26617
1.27101
1.27793
1.28525
1.29096
1.29736
1.30677
1.30784
1.30415
1.29308
1.27726
1.27411
1.27619
1.28332
1.28104
1.28276
1.2962
1.30616
1.31582
1.32633
1.33006
1.31942
1.3011
1.2908
1.29398
1.30158
1.31009
1.32175
1.32565
1.3059
1.31576
1.31242
1.30989
1.30591
1.30082
1.29522
1.29062
1.2866
1.28234
1.27664
1.27028
1.26352
1.25628
1.24943
1.24257
1.23678
1.23169
1.22718
1.22237
1.21839
1.21606
1.21644
1.21709
1.21722
1.21616
1.21578
1.21604
1.21649
1.21722
1.21711
1.21718
1.21932
1.22572
1.23396
1.24343
1.24776
1.24497
1.23006
1.20871
1.19672
1.2102
1.22531
1.2346
1.23844
1.23259
1.22327
1.22226
1.21691
1.20107
1.19343
1.2175
1.21945
1.22792
1.2313
1.2285
1.22582
1.22504
1.2246
1.22337
1.22165
1.21823
1.21833
1.21633
1.21796
1.21242
1.18235
1.22733
1.24045
1.23887
1.23796
1.23829
1.23827
1.23707
1.23336
1.22879
1.22463
1.22273
1.22238
1.21986
1.21181
1.20159
1.19548
1.19259
1.18788
1.18124
1.1751
1.17288
1.17169
1.16991
1.16967
1.16908
1.16859
1.1686
1.16907
1.16948
1.16959
1.17004
1.17009
1.17019
1.17038
1.17001
1.16996
1.17
1.16988
1.16983
1.1695
1.16902
1.16859
1.16789
1.16723
1.1663
1.16547
1.16522
1.16505
1.16524
1.16612
1.16724
1.16871
1.17023
1.17223
1.17505
1.17845
1.18096
1.18135
1.1805
1.18047
1.18272
1.18675
1.19105
1.19456
1.1961
1.19548
1.19354
1.19348
1.19675
1.20305
1.20999
1.21361
1.21356
1.21425
1.21863
1.22493
1.23048
1.23555
1.24453
1.25794
1.2682
1.2715
1.27259
1.28097
1.29629
1.30407
1.31003
1.32415
1.32508
1.32439
1.3601
1.37689
1.339
1.31011
1.30731
1.31089
1.30957
1.31846
1.33023
1.33003
1.32179
1.32798
1.33533
1.33398
1.3261
1.30718
1.28985
1.27937
1.27329
1.26635
1.27158
1.2963
1.32663
1.27147
1.29843
1.29662
1.29946
1.29962
1.2962
1.28996
1.28572
1.28489
1.28686
1.28841
1.28809
1.28593
1.28182
1.27966
1.27927
1.27926
1.27811
1.27923
1.28166
1.28184
1.27817
1.2779
1.28294
1.28969
1.2949
1.29598
1.29372
1.29336
1.29791
1.30578
1.31149
1.30925
1.31624
1.33804
1.36806
1.37878
1.36519
1.31054
1.26306
1.26885
1.28962
1.29887
1.30163
1.29225
1.28307
1.26026
1.24697
1.24437
1.20713
1.17024
1.18622
1.18254
1.21594
1.25438
1.28149
1.29672
1.30613
1.3142
1.31393
1.31053
1.29857
1.29957
1.29341
1.30663
1.29817
1.17536
1.21372
1.22534
1.22904
1.22946
1.23014
1.23411
1.23322
1.22393
1.21378
1.20606
1.19952
1.19475
1.19539
1.19427
1.18898
1.18579
1.17931
1.17398
1.17107
1.16965
1.16937
1.1682
1.16889
1.17055
1.17177
1.17435
1.17679
1.17838
1.17949
1.18062
1.18133
1.1813
1.18136
1.18138
1.18136
1.18059
1.18002
1.17944
1.1792
1.17839
1.17705
1.17588
1.17432
1.17267
1.17042
1.1671
1.16491
1.16228
1.15998
1.15923
1.15853
1.15851
1.15875
1.16036
1.16311
1.16566
1.1664
1.16422
1.16188
1.1629
1.16796
1.17444
1.17946
1.18169
1.18081
1.17834
1.17482
1.17575
1.18249
1.19281
1.2012
1.20577
1.20865
1.21086
1.21805
1.2238
1.22507
1.22759
1.23273
1.25214
1.2748
1.26071
1.23401
1.23517
1.25257
1.27415
1.29405
1.32211
1.33741
1.35583
1.36826
1.33743
1.32211
1.33233
1.32773
1.31252
1.30016
1.30693
1.30174
1.29092
1.29303
1.30764
1.30709
1.3065
1.30241
1.29778
1.29451
1.28537
1.27202
1.25761
1.26219
1.27173
1.28117
1.25112
1.27138
1.26986
1.27805
1.28481
1.28676
1.28218
1.27724
1.27043
1.26578
1.26546
1.26381
1.25618
1.25235
1.25281
1.25425
1.25701
1.26047
1.26337
1.26878
1.27473
1.28178
1.28716
1.29113
1.29342
1.29485
1.3078
1.32408
1.33276
1.33681
1.34259
1.35458
1.35501
1.35852
1.38769
1.41812
1.41144
1.37045
1.31646
1.27941
1.30465
1.32661
1.31474
1.29238
1.28899
1.31094
1.30748
1.25904
1.30047
1.26695
1.16411
1.16492
1.14671
1.16083
1.19053
1.23626
1.27734
1.29314
1.30504
1.31739
1.34277
1.34444
1.34944
1.34115
1.35125
1.33654
1.16969
1.20412
1.21951
1.22206
1.22323
1.22781
1.23303
1.22342
1.20241
1.19548
1.1992
1.19733
1.19416
1.18862
1.18412
1.17966
1.17204
1.17253
1.17248
1.17064
1.17121
1.17476
1.17843
1.18388
1.18834
1.19234
1.19644
1.19692
1.19742
1.19723
1.19517
1.1947
1.19383
1.19359
1.19299
1.1929
1.19349
1.19346
1.19331
1.19225
1.19284
1.19322
1.19203
1.19202
1.1923
1.19182
1.19037
1.18929
1.18663
1.18398
1.18128
1.17905
1.17693
1.17474
1.17256
1.17102
1.1687
1.16649
1.16508
1.16402
1.16553
1.16794
1.169
1.1675
1.16545
1.16558
1.16789
1.16768
1.16733
1.17054
1.17881
1.18939
1.19915
1.20785
1.20451
1.20154
1.2173
1.22087
1.21605
1.22384
1.22877
1.23941
1.25166
1.26255
1.26713
1.25198
1.2624
1.29745
1.32955
1.34658
1.36066
1.35624
1.33134
1.32743
1.32666
1.31522
1.29726
1.29858
1.30847
1.29692
1.29071
1.29328
1.29625
1.28827
1.28943
1.28392
1.28557
1.28587
1.28236
1.27493
1.26151
1.26138
1.25708
1.24039
1.25034
1.25272
1.24388
1.25424
1.26468
1.27844
1.2801
1.28173
1.27908
1.27321
1.2697
1.26666
1.25055
1.23824
1.23796
1.24061
1.24475
1.25359
1.25695
1.25849
1.25809
1.25993
1.26927
1.28232
1.29726
1.29684
1.29383
1.30357
1.31542
1.32734
1.34434
1.36326
1.37211
1.3802
1.41232
1.43119
1.40774
1.35576
1.32323
1.32695
1.37339
1.3513
1.29573
1.24454
1.2555
1.27242
1.31998
1.32136
1.33515
1.28095
1.1268
1.14615
1.16136
1.17686
1.17298
1.20313
1.25592
1.28178
1.2732
1.24951
1.27691
1.33109
1.36406
1.35939
1.34353
1.32445
1.16567
1.19475
1.21367
1.22038
1.22554
1.23564
1.23398
1.21184
1.20194
1.20126
1.19507
1.18922
1.18487
1.18294
1.17606
1.17869
1.18053
1.17288
1.17416
1.17565
1.18056
1.19093
1.19739
1.20131
1.2037
1.20235
1.20026
1.19675
1.19497
1.19476
1.19353
1.19406
1.19526
1.19543
1.19579
1.19599
1.19662
1.19638
1.19585
1.19513
1.19477
1.19365
1.19191
1.19151
1.19137
1.19053
1.19092
1.19229
1.1931
1.19424
1.19534
1.19583
1.19569
1.19543
1.1935
1.19209
1.18989
1.18732
1.1867
1.1854
1.18457
1.18226
1.17972
1.17457
1.16971
1.17046
1.17503
1.17671
1.17366
1.16912
1.16788
1.17258
1.17948
1.19024
1.19898
1.20084
1.2136
1.21356
1.20918
1.22993
1.23232
1.22777
1.24434
1.26072
1.25836
1.24301
1.27305
1.31019
1.32705
1.34618
1.3575
1.34049
1.31532
1.3123
1.32324
1.32382
1.30903
1.30666
1.2931
1.26939
1.25957
1.25257
1.24994
1.25685
1.27103
1.27578
1.28408
1.28614
1.28781
1.2831
1.25918
1.25262
1.26296
1.26104
1.27156
1.26091
1.23811
1.23892
1.23609
1.24651
1.2426
1.24416
1.2502
1.24757
1.25637
1.26895
1.24957
1.2249
1.21559
1.20555
1.20677
1.23219
1.24892
1.24628
1.24725
1.25037
1.24755
1.24577
1.2617
1.27682
1.28178
1.29262
1.29451
1.29247
1.31191
1.34369
1.36881
1.39042
1.42397
1.43199
1.40255
1.34871
1.33329
1.34527
1.32369
1.23976
1.18671
1.1484
1.1644
1.15911
1.2022
1.27829
1.35403
1.22023
1.13428
1.12895
1.13827
1.18059
1.17369
1.19298
1.23425
1.26887
1.25984
1.20039
1.18539
1.25774
1.33768
1.37281
1.30442
1.27889
1.1641
1.19113
1.21069
1.22155
1.23077
1.23502
1.22889
1.21432
1.19917
1.18789
1.19316
1.18806
1.1754
1.17311
1.16972
1.16066
1.16699
1.17065
1.17898
1.19244
1.20339
1.20837
1.2074
1.2059
1.20278
1.19864
1.19853
1.19972
1.20167
1.20529
1.208
1.21033
1.21276
1.21309
1.21398
1.21311
1.21243
1.21311
1.21196
1.21059
1.20979
1.20813
1.2065
1.20511
1.20267
1.19929
1.19517
1.19048
1.18681
1.18413
1.18339
1.18378
1.18547
1.18889
1.19003
1.19326
1.19432
1.19472
1.19323
1.19202
1.19218
1.18997
1.18956
1.19098
1.18749
1.18593
1.18985
1.1892
1.17881
1.16855
1.166
1.16824
1.17078
1.17492
1.18541
1.19416
1.20443
1.20743
1.21963
1.24838
1.23986
1.21446
1.21991
1.24486
1.24833
1.23138
1.26358
1.30429
1.32158
1.3443
1.35851
1.33588
1.31417
1.32806
1.34756
1.32807
1.29246
1.27551
1.25161
1.243
1.24348
1.2422
1.23743
1.24639
1.2523
1.25755
1.27365
1.28011
1.28912
1.27997
1.24225
1.23495
1.2532
1.27304
1.2629
1.26985
1.23252
1.24392
1.23197
1.24423
1.24035
1.23004
1.24399
1.227
1.2257
1.26406
1.26288
1.23073
1.22109
1.20095
1.17146
1.18865
1.23144
1.23795
1.23813
1.25303
1.26
1.25323
1.25324
1.25405
1.25312
1.27528
1.28477
1.26628
1.26892
1.30364
1.347
1.38813
1.42686
1.42895
1.39967
1.34969
1.33311
1.32064
1.25423
1.1987
1.16752
1.14306
1.16123
1.15727
1.11344
1.10106
1.29004
1.13946
1.12862
1.15967
1.16072
1.19614
1.18057
1.19572
1.23247
1.2646
1.27497
1.21562
1.15122
1.18495
1.27928
1.3727
1.28184
1.2508
1.164
1.19194
1.21414
1.2267
1.23254
1.23149
1.22637
1.20424
1.19083
1.18314
1.17768
1.17573
1.1681
1.16963
1.18086
1.18437
1.18812
1.1978
1.20404
1.20829
1.20927
1.20766
1.20548
1.20357
1.2004
1.20216
1.20784
1.21155
1.21474
1.2167
1.21586
1.21418
1.2125
1.20911
1.20704
1.2044
1.20163
1.20142
1.20134
1.20139
1.20116
1.20079
1.20122
1.20247
1.20407
1.20563
1.20507
1.20135
1.19578
1.18928
1.18293
1.17825
1.17559
1.17646
1.17572
1.17928
1.17827
1.17947
1.17847
1.17671
1.17887
1.1795
1.17766
1.18594
1.18996
1.1842
1.18642
1.19311
1.18847
1.18027
1.18029
1.18073
1.17491
1.17034
1.17754
1.18704
1.19346
1.19767
1.20337
1.20693
1.19612
1.19514
1.22136
1.24736
1.24003
1.22948
1.27078
1.30727
1.31921
1.33926
1.34009
1.31142
1.29588
1.31933
1.3211
1.27905
1.24725
1.24054
1.22817
1.22625
1.22586
1.22482
1.21699
1.2169
1.2089
1.20999
1.22637
1.24526
1.27867
1.27818
1.24956
1.24811
1.26608
1.25178
1.23977
1.23169
1.18523
1.19989
1.19957
1.20904
1.22966
1.21853
1.24363
1.2396
1.2022
1.22399
1.24825
1.21546
1.20917
1.21459
1.17638
1.15982
1.19754
1.21823
1.22343
1.24391
1.25806
1.2621
1.26752
1.25876
1.24185
1.26224
1.28057
1.25172
1.23245
1.2596
1.31557
1.37672
1.4243
1.42593
1.39977
1.35759
1.33102
1.29751
1.24151
1.25557
1.23771
1.22344
1.22803
1.18643
1.16546
1.19297
1.18737
1.15779
1.11478
1.13495
1.14898
1.1975
1.18162
1.17689
1.21132
1.24752
1.29328
1.27821
1.1917
1.17225
1.22489
1.34469
1.2887
1.27873
1.16347
1.19073
1.21547
1.22752
1.22711
1.21176
1.20341
1.20776
1.20136
1.18484
1.16942
1.1687
1.17353
1.17492
1.17565
1.18631
1.19753
1.20665
1.21274
1.21467
1.21268
1.20887
1.20467
1.20347
1.20663
1.21265
1.21635
1.21651
1.21683
1.21508
1.21246
1.21073
1.20804
1.20492
1.20086
1.19606
1.19381
1.19319
1.19299
1.19334
1.1925
1.19051
1.18794
1.18563
1.18617
1.18993
1.19476
1.19777
1.19643
1.19149
1.18692
1.18146
1.17889
1.17714
1.17746
1.17839
1.17977
1.17736
1.17883
1.17833
1.1761
1.17869
1.17202
1.17062
1.17878
1.17319
1.16972
1.17982
1.18664
1.19185
1.19918
1.18531
1.15986
1.15377
1.16835
1.18405
1.18968
1.19456
1.20099
1.20728
1.21664
1.23203
1.23799
1.23331
1.2192
1.22818
1.27754
1.30886
1.31572
1.33061
1.32126
1.29223
1.28832
1.3062
1.28567
1.24498
1.23738
1.24
1.23011
1.21643
1.21875
1.23438
1.23946
1.24027
1.23129
1.22363
1.22248
1.23025
1.26433
1.27968
1.26644
1.26119
1.27074
1.26891
1.2634
1.22577
1.19579
1.17139
1.19009
1.18456
1.21035
1.21515
1.22679
1.25259
1.22337
1.21159
1.22965
1.21172
1.20023
1.21337
1.19141
1.16693
1.18672
1.20296
1.2078
1.23164
1.24053
1.24631
1.26974
1.27278
1.24608
1.25798
1.28416
1.25453
1.21393
1.22462
1.28387
1.3606
1.41892
1.4226
1.40157
1.36726
1.33593
1.28407
1.25223
1.2891
1.2481
1.23648
1.23267
1.21888
1.23899
1.19934
1.13786
1.14882
1.12603
1.15269
1.13776
1.17886
1.1745
1.16836
1.17542
1.1971
1.27056
1.29875
1.21527
1.19177
1.18159
1.30358
1.30029
1.31437
1.16317
1.18974
1.21741
1.22872
1.21782
1.20453
1.19556
1.18689
1.18817
1.18878
1.18367
1.17187
1.1706
1.17819
1.18127
1.19019
1.20185
1.2069
1.20767
1.2056
1.20449
1.20655
1.2082
1.20881
1.21175
1.21755
1.21889
1.21523
1.2132
1.21263
1.21371
1.21703
1.21736
1.21589
1.21194
1.20626
1.20214
1.20042
1.2009
1.20314
1.20485
1.20386
1.20035
1.19396
1.18641
1.18128
1.18151
1.18674
1.19179
1.19119
1.18613
1.17652
1.17271
1.16769
1.172
1.16909
1.17673
1.17823
1.17911
1.1843
1.17958
1.18082
1.18226
1.17338
1.17834
1.17731
1.16473
1.16229
1.16595
1.18039
1.19707
1.1771
1.1485
1.15589
1.17744
1.1902
1.19519
1.19884
1.20216
1.20501
1.20856
1.20544
1.19643
1.19904
1.20645
1.23097
1.28017
1.30546
1.31198
1.32439
1.31512
1.29251
1.29573
1.3012
1.27184
1.23592
1.23215
1.23245
1.21985
1.2042
1.21299
1.23572
1.23675
1.23575
1.23735
1.22865
1.21727
1.21158
1.22927
1.25832
1.25555
1.24574
1.2405
1.24045
1.23692
1.19944
1.19325
1.17003
1.1895
1.20987
1.22148
1.24947
1.23599
1.2361
1.24671
1.23643
1.23118
1.22201
1.21956
1.23188
1.21161
1.18447
1.192
1.19437
1.18942
1.21946
1.22669
1.22064
1.24885
1.26781
1.24393
1.25439
1.28912
1.26499
1.21004
1.20363
1.25875
1.34518
1.41325
1.42118
1.40452
1.37471
1.33834
1.27429
1.26333
1.30173
1.25701
1.27452
1.27064
1.30054
1.30003
1.1914
1.17111
1.15617
1.1151
1.1507
1.1448
1.1739
1.15178
1.15743
1.14681
1.13728
1.20497
1.24947
1.18937
1.19963
1.14366
1.24092
1.28334
1.32105
1.16254
1.18654
1.21438
1.23086
1.22531
1.20473
1.1969
1.18918
1.17623
1.17399
1.18204
1.1867
1.18802
1.19685
1.20126
1.2099
1.219
1.2177
1.21266
1.20876
1.20403
1.20248
1.20518
1.21024
1.21513
1.21833
1.21522
1.20887
1.20617
1.20677
1.20907
1.21286
1.21487
1.21441
1.21167
1.20644
1.19991
1.19544
1.1946
1.19682
1.20003
1.20186
1.20169
1.19953
1.19489
1.18751
1.17934
1.17542
1.17558
1.17652
1.17668
1.17357
1.17395
1.16924
1.17031
1.16864
1.16782
1.17343
1.17057
1.1727
1.17302
1.16884
1.17392
1.16917
1.17215
1.18178
1.17489
1.16722
1.16
1.16196
1.1772
1.16828
1.14949
1.16301
1.17949
1.16947
1.15724
1.1644
1.18721
1.20831
1.22536
1.2197
1.21145
1.2164
1.22383
1.24369
1.28595
1.30146
1.30365
1.31739
1.31194
1.29791
1.29006
1.27945
1.24633
1.22141
1.22257
1.22757
1.21486
1.2016
1.20579
1.21084
1.20644
1.2105
1.22744
1.24092
1.23001
1.21002
1.19654
1.23156
1.2572
1.25658
1.26183
1.25819
1.24377
1.20407
1.1633
1.17275
1.1816
1.23555
1.25732
1.28794
1.28563
1.27109
1.28585
1.26806
1.26742
1.2619
1.23865
1.24268
1.2417
1.21502
1.21159
1.20758
1.18836
1.21105
1.22144
1.20523
1.22862
1.25995
1.24049
1.24556
1.2876
1.27777
1.21806
1.19574
1.23894
1.32917
1.40476
1.42033
1.4082
1.38097
1.334
1.26622
1.2715
1.30613
1.2901
1.29709
1.2955
1.34082
1.31186
1.29779
1.18736
1.16828
1.12523
1.14021
1.12288
1.17265
1.14619
1.14055
1.1383
1.13136
1.16872
1.21325
1.16886
1.20355
1.1344
1.18859
1.2705
1.31739
1.1621
1.18336
1.21053
1.229
1.22675
1.20937
1.19361
1.19662
1.19157
1.18265
1.17758
1.18072
1.18357
1.19178
1.19532
1.20298
1.21498
1.2203
1.21918
1.21999
1.21854
1.21617
1.21725
1.21992
1.22066
1.21905
1.21279
1.20553
1.20234
1.20219
1.20275
1.20321
1.20341
1.2044
1.20661
1.2083
1.20786
1.20514
1.20262
1.20264
1.20489
1.2072
1.20688
1.20197
1.1952
1.18928
1.18301
1.17549
1.16977
1.16885
1.16841
1.16803
1.16578
1.1669
1.16291
1.16994
1.16728
1.17162
1.17226
1.16864
1.16921
1.16315
1.16382
1.15962
1.15456
1.16316
1.1693
1.17057
1.16144
1.15658
1.17531
1.17044
1.14265
1.14266
1.1608
1.15939
1.1563
1.17469
1.20641
1.23792
1.26137
1.26579
1.2634
1.26529
1.25832
1.26068
1.29102
1.29428
1.2924
1.3068
1.30728
1.29557
1.28112
1.25914
1.23287
1.20901
1.20775
1.20912
1.20536
1.19795
1.19975
1.20335
1.21501
1.22031
1.2227
1.24638
1.26127
1.24175
1.20264
1.22659
1.26208
1.26149
1.23935
1.25356
1.24879
1.21558
1.1708
1.17016
1.20577
1.24457
1.27459
1.29854
1.3006
1.31163
1.32392
1.27361
1.28252
1.31218
1.2661
1.24471
1.25732
1.23258
1.2215
1.22245
1.19759
1.21014
1.2308
1.20827
1.2151
1.25059
1.23689
1.23547
1.28212
1.28924
1.23136
1.19645
1.22624
1.31685
1.39913
1.42145
1.41318
1.3868
1.32873
1.26687
1.2882
1.30793
1.31959
1.32662
1.32738
1.40447
1.40797
1.29446
1.21284
1.16926
1.12599
1.16306
1.13867
1.1579
1.13688
1.11876
1.12457
1.15102
1.18071
1.21909
1.16592
1.21086
1.1535
1.19656
1.29333
1.30805
1.16144
1.17891
1.2034
1.22868
1.23141
1.22084
1.20183
1.19115
1.18942
1.18885
1.18727
1.18968
1.19316
1.20273
1.20771
1.20701
1.20609
1.20598
1.205
1.2063
1.21055
1.21382
1.21698
1.22078
1.22244
1.22239
1.22024
1.21676
1.21273
1.2099
1.20875
1.20758
1.20462
1.20048
1.19805
1.19973
1.20575
1.21096
1.21144
1.20834
1.20527
1.20631
1.20978
1.2094
1.2028
1.19341
1.18615
1.18136
1.17591
1.17193
1.16752
1.16806
1.16499
1.16795
1.16107
1.16376
1.16434
1.16479
1.16758
1.16586
1.16631
1.15885
1.16004
1.16584
1.16028
1.15877
1.15597
1.15665
1.15961
1.1543
1.16812
1.16453
1.12989
1.13039
1.16013
1.16109
1.14989
1.16931
1.20607
1.2417
1.26599
1.28007
1.28653
1.28903
1.27795
1.27255
1.29608
1.29128
1.28287
1.29542
1.2987
1.28666
1.26431
1.24629
1.22604
1.20925
1.20405
1.19997
1.20367
1.20126
1.19798
1.2111
1.23628
1.22564
1.20921
1.21456
1.24407
1.24256
1.2106
1.2093
1.24254
1.24594
1.24801
1.24715
1.24096
1.18351
1.16123
1.15631
1.2252
1.27218
1.28392
1.3099
1.30978
1.31473
1.31085
1.26325
1.27613
1.31387
1.25546
1.23724
1.26417
1.2384
1.22724
1.24554
1.21773
1.21116
1.23922
1.21944
1.21094
1.24624
1.23719
1.22613
1.27193
1.29716
1.24847
1.20307
1.21946
1.30245
1.39065
1.42147
1.41931
1.39564
1.33062
1.28381
1.3146
1.32312
1.33785
1.34835
1.36667
1.41727
1.43228
1.34436
1.23158
1.19125
1.13757
1.13791
1.15225
1.16114
1.13929
1.11718
1.12554
1.16785
1.20434
1.22204
1.16617
1.2183
1.18464
1.23618
1.3114
1.28348
1.16106
1.17499
1.19452
1.22128
1.23598
1.22973
1.2174
1.20287
1.19436
1.19034
1.18872
1.1901
1.19278
1.19759
1.20438
1.21046
1.2171
1.21984
1.21893
1.21536
1.21263
1.21159
1.21158
1.21197
1.21167
1.21094
1.20975
1.20647
1.20168
1.19929
1.20015
1.20283
1.20363
1.19892
1.19168
1.18717
1.18812
1.19372
1.19957
1.20087
1.19813
1.19778
1.20137
1.20337
1.19957
1.19112
1.18272
1.17556
1.17111
1.16862
1.16574
1.16312
1.15636
1.15732
1.15815
1.15651
1.1593
1.15856
1.16031
1.15282
1.15638
1.15387
1.14495
1.14862
1.14985
1.15669
1.157
1.15162
1.1528
1.1453
1.15228
1.16762
1.13784
1.12487
1.14946
1.15579
1.14186
1.16064
1.20032
1.23684
1.26229
1.27769
1.28832
1.2906
1.28173
1.27569
1.29306
1.2887
1.27619
1.28969
1.29467
1.27389
1.24254
1.22837
1.222
1.20552
1.1941
1.19008
1.19505
1.19621
1.18278
1.19084
1.20959
1.19753
1.20646
1.21761
1.2322
1.24666
1.22677
1.20671
1.24514
1.25881
1.23876
1.25563
1.25466
1.1957
1.15279
1.16531
1.22059
1.27624
1.29111
1.30788
1.30984
1.30385
1.28542
1.26027
1.27181
1.28365
1.21927
1.2178
1.25414
1.22105
1.21484
1.25524
1.22999
1.21286
1.24932
1.23046
1.20487
1.23742
1.2354
1.21768
1.25847
1.30026
1.26458
1.21177
1.21664
1.28984
1.38204
1.41997
1.42582
1.40475
1.34483
1.31383
1.35356
1.34172
1.35871
1.37297
1.3713
1.4373
1.46607
1.36756
1.24594
1.18438
1.14342
1.14933
1.15342
1.13676
1.11946
1.10532
1.14239
1.18451
1.21832
1.20286
1.17344
1.24289
1.22511
1.28408
1.2892
1.25246
1.16114
1.17287
1.18736
1.20818
1.23182
1.24011
1.23461
1.22173
1.20759
1.19666
1.19169
1.18948
1.18948
1.1923
1.20145
1.21167
1.21835
1.21828
1.21521
1.21156
1.20966
1.20974
1.21074
1.21177
1.21279
1.21331
1.21255
1.21036
1.21023
1.21216
1.21418
1.21528
1.21227
1.20354
1.19347
1.18611
1.18337
1.18603
1.19224
1.19738
1.19743
1.19812
1.20509
1.21286
1.21092
1.19967
1.18758
1.17981
1.17482
1.16966
1.16311
1.1604
1.16039
1.15742
1.16312
1.15888
1.16027
1.15116
1.15507
1.14858
1.14588
1.15169
1.14739
1.14909
1.13973
1.14287
1.14962
1.14368
1.1443
1.14299
1.14259
1.16132
1.13883
1.1162
1.13857
1.15591
1.1383
1.15343
1.18942
1.22741
1.25329
1.27317
1.28179
1.28518
1.27759
1.27775
1.29128
1.28186
1.26627
1.27883
1.2863
1.25966
1.21644
1.20833
1.21707
1.21306
1.19043
1.18115
1.19461
1.20697
1.19454
1.19039
1.18597
1.19015
1.22464
1.22748
1.21884
1.2503
1.24017
1.20212
1.22183
1.24749
1.2326
1.23799
1.23647
1.18536
1.14796
1.17887
1.24805
1.28423
1.30816
1.32113
1.31215
1.30024
1.2853
1.2696
1.25658
1.24744
1.21476
1.22946
1.25542
1.20981
1.21243
1.26117
1.22198
1.19589
1.2458
1.23437
1.20041
1.22874
1.23001
1.20886
1.24354
1.29904
1.27816
1.22214
1.21579
1.27793
1.37143
1.41895
1.43113
1.41222
1.36974
1.35329
1.38983
1.36269
1.37828
1.39546
1.37555
1.43832
1.48129
1.37636
1.2458
1.20531
1.14239
1.14788
1.17029
1.14098
1.12601
1.1137
1.18278
1.18968
1.22044
1.1979
1.18863
1.25648
1.22913
1.27149
1.23195
1.23699
1.16173
1.17321
1.18471
1.19745
1.21359
1.22833
1.23625
1.23732
1.23227
1.22272
1.21025
1.19857
1.19375
1.19351
1.19513
1.19618
1.1984
1.20447
1.21129
1.21538
1.21526
1.21245
1.20807
1.20399
1.2013
1.1993
1.1975
1.19721
1.19824
1.19803
1.19491
1.19406
1.19874
1.20102
1.19842
1.19662
1.19549
1.19412
1.19486
1.19567
1.19433
1.19514
1.20079
1.20805
1.20841
1.20202
1.19384
1.1842
1.17282
1.16362
1.15917
1.15242
1.15582
1.15055
1.15176
1.14813
1.15191
1.14902
1.14504
1.14498
1.1415
1.14339
1.13681
1.14561
1.14273
1.13805
1.14757
1.14068
1.13701
1.13935
1.13236
1.15127
1.14394
1.11154
1.12229
1.14791
1.13545
1.14475
1.18113
1.21989
1.24677
1.26466
1.27441
1.27805
1.27254
1.27672
1.28832
1.27222
1.25171
1.26291
1.27816
1.25538
1.20793
1.19493
1.21398
1.22197
1.19217
1.17325
1.17972
1.18684
1.17492
1.17779
1.16555
1.17877
1.21635
1.21241
1.20115
1.23904
1.24001
1.19363
1.21667
1.24202
1.22846
1.23736
1.24082
1.17642
1.13946
1.16791
1.2506
1.2981
1.31977
1.33813
1.32764
1.30881
1.28733
1.27545
1.24885
1.23407
1.23212
1.24805
1.25077
1.20342
1.2127
1.2545
1.2049
1.18067
1.23279
1.22148
1.1872
1.21744
1.22022
1.19719
1.22814
1.29383
1.28752
1.23174
1.21709
1.26794
1.35938
1.41773
1.43303
1.41612
1.398
1.39493
1.41399
1.37657
1.39372
1.40938
1.3722
1.42891
1.47646
1.38876
1.24879
1.20099
1.15579
1.14668
1.15302
1.12113
1.11693
1.12703
1.20248
1.18069
1.25939
1.24876
1.21115
1.23318
1.21899
1.20764
1.21214
1.2439
1.16348
1.1783
1.19242
1.20018
1.20613
1.21104
1.21739
1.22571
1.22949
1.23031
1.23023
1.22738
1.21951
1.20746
1.19904
1.19763
1.20162
1.20532
1.20758
1.20918
1.20897
1.20935
1.21025
1.21074
1.20963
1.20908
1.2081
1.20469
1.20343
1.20554
1.20222
1.19912
1.20027
1.19885
1.19709
1.19993
1.20573
1.20598
1.20055
1.19578
1.19132
1.18912
1.19474
1.20571
1.20871
1.1988
1.18586
1.17416
1.16483
1.15519
1.15371
1.1504
1.1473
1.14874
1.14968
1.15297
1.14503
1.1453
1.14063
1.13827
1.13405
1.13956
1.13268
1.13253
1.13335
1.12677
1.1385
1.13912
1.12843
1.13501
1.12649
1.13553
1.14725
1.11074
1.10735
1.13698
1.13602
1.13473
1.17236
1.20547
1.241
1.25349
1.26849
1.26963
1.26884
1.27213
1.28228
1.26744
1.24105
1.24337
1.2635
1.25803
1.2169
1.19173
1.21247
1.2157
1.18274
1.15589
1.16028
1.16475
1.14914
1.1626
1.17459
1.1841
1.19776
1.20866
1.2092
1.24606
1.25508
1.19401
1.21147
1.24662
1.22474
1.233
1.23897
1.17855
1.14517
1.19044
1.25956
1.30709
1.33209
1.34096
1.31832
1.30123
1.27754
1.26542
1.2519
1.24326
1.24561
1.25571
1.24207
1.21414
1.22921
1.24163
1.18879
1.18589
1.23576
1.21105
1.17387
1.20528
1.20538
1.18131
1.21313
1.28624
1.29219
1.23768
1.21762
1.25949
1.34364
1.41481
1.43028
1.41772
1.42448
1.42358
1.43188
1.37628
1.40404
1.40992
1.3612
1.41358
1.48059
1.39054
1.24994
1.20406
1.15494
1.14925
1.16953
1.13085
1.12726
1.14359
1.1998
1.20266
1.32104
1.28014
1.20802
1.21233
1.26047
1.20878
1.24176
1.26698
1.16687
1.18447
1.19798
1.20356
1.19659
1.19222
1.18948
1.19763
1.21458
1.22553
1.22429
1.22045
1.22156
1.22651
1.22675
1.2174
1.20653
1.20002
1.19786
1.19762
1.19932
1.1999
1.20002
1.20049
1.19982
1.20003
1.19992
1.19728
1.19888
1.20039
1.19785
1.19925
1.20029
1.19672
1.19884
1.20756
1.20667
1.19402
1.18562
1.18553
1.18784
1.19389
1.20212
1.20328
1.19943
1.19722
1.19221
1.1783
1.16464
1.15707
1.14754
1.14691
1.14465
1.14752
1.14185
1.14198
1.13869
1.13849
1.13557
1.13974
1.13423
1.13377
1.13263
1.12825
1.13303
1.12551
1.12388
1.12962
1.11969
1.12292
1.1278
1.11693
1.13807
1.1195
1.09526
1.12181
1.13697
1.12404
1.15651
1.1891
1.22828
1.24468
1.25819
1.26504
1.26441
1.26516
1.27173
1.26436
1.242
1.2326
1.24399
1.25417
1.23212
1.2004
1.21308
1.20672
1.16705
1.12661
1.13491
1.14559
1.13835
1.15134
1.17966
1.17628
1.18263
1.21965
1.20888
1.22074
1.23481
1.18292
1.18535
1.23146
1.21488
1.21681
1.22285
1.16008
1.12428
1.18227
1.26862
1.3166
1.34502
1.34178
1.30135
1.28599
1.27204
1.25593
1.24254
1.23779
1.238
1.24091
1.22189
1.21594
1.23648
1.22187
1.17866
1.20253
1.23921
1.19004
1.15834
1.19265
1.18549
1.1625
1.19969
1.27787
1.29188
1.23949
1.21779
1.25327
1.32874
1.4092
1.4233
1.42251
1.44455
1.43947
1.44175
1.37729
1.4012
1.4005
1.35147
1.4088
1.47154
1.38743
1.23935
1.20263
1.17371
1.14371
1.16078
1.1238
1.12943
1.15018
1.21834
1.24532
1.34005
1.28458
1.2002
1.22538
1.31926
1.27371
1.27662
1.29661
1.17871
1.20545
1.17371
1.15714
1.17015
1.16969
1.16905
1.17451
1.1843
1.20008
1.21832
1.22761
1.2239
1.21936
1.22478
1.23531
1.23827
1.23275
1.22436
1.21683
1.21168
1.20772
1.2044
1.20019
1.19706
1.1945
1.1916
1.18951
1.18978
1.18819
1.18673
1.18877
1.18563
1.18338
1.18995
1.18851
1.17853
1.17638
1.18428
1.1915
1.19776
1.20578
1.20486
1.19472
1.18836
1.17961
1.16651
1.15807
1.1481
1.14459
1.14338
1.14354
1.14342
1.13795
1.13652
1.13475
1.13468
1.13562
1.13181
1.12893
1.12901
1.12208
1.12858
1.11924
1.12278
1.12432
1.11941
1.12344
1.12338
1.1146
1.12663
1.11659
1.11945
1.12854
1.09602
1.09779
1.12969
1.12163
1.13464
1.1703
1.20367
1.23493
1.24243
1.25634
1.2587
1.25915
1.25951
1.25598
1.24417
1.23359
1.23144
1.24372
1.23991