/*--------------------------------*- C++ -*----------------------------------*\
| =========                 |                                                 |
| \\      /  F ield         | OpenFOAM: The Open Source CFD Toolbox           |
|  \\    /   O peration     | Version:  dev                                   |
|   \\  /    A nd           | Web:      http://www.openfoam.org               |
|    \\/     M anipulation  |                                                 |
\*---------------------------------------------------------------------------*/
FoamFile
{
    version     2.0;
    format      ascii;
    class       volScalarField;
    object      rho_0;
    location    "9.132";
}
// * * * * * * * * * * * * * * * * * * * * * * * * * * * * * * * * * * * * * //

dimensions      [1 -3 0 0 0 0 0];

internalField   nonuniform List<scalar> 
12225
(
1.22439
1.21629
1.21377
1.21238
1.21
1.20872
1.20476
1.20363
1.19834
1.19683
1.1911
1.18955
1.18271
1.1824
1.17509
1.17018
1.17654
1.15821
1.21923
1.21212
1.2124
1.21269
1.20973
1.21139
1.2046
1.20753
1.19908
1.2009
1.19273
1.19412
1.18486
1.18682
1.18058
1.17531
1.18086
1.17027
1.21847
1.21264
1.21242
1.21458
1.21018
1.21405
1.207
1.20988
1.20377
1.20339
1.19835
1.19701
1.19179
1.18844
1.18649
1.18216
1.17889
1.16977
1.21793
1.2131
1.21173
1.2148
1.21087
1.21191
1.20969
1.20621
1.2059
1.20096
1.19988
1.19514
1.1934
1.1885
1.18621
1.18205
1.17963
1.17112
1.21784
1.2127
1.21132
1.2131
1.21126
1.2093
1.2091
1.20473
1.205
1.20016
1.1996
1.19468
1.19325
1.18843
1.18615
1.18173
1.17909
1.17176
1.2189
1.20987
1.21117
1.21136
1.21039
1.20818
1.2078
1.20393
1.20313
1.19952
1.19772
1.19407
1.19215
1.187
1.18548
1.17988
1.17958
1.17266
1.2194
1.20775
1.21181
1.20959
1.21005
1.2061
1.20748
1.20182
1.20223
1.19757
1.19627
1.19288
1.19042
1.186
1.18443
1.17995
1.17785
1.17582
1.21926
1.20646
1.21117
1.20703
1.20877
1.2046
1.20587
1.20021
1.20173
1.19531
1.1954
1.19103
1.18934
1.18427
1.18338
1.17957
1.17722
1.17425
1.21781
1.20491
1.21067
1.20542
1.20731
1.20393
1.20376
1.19894
1.20053
1.19446
1.19368
1.19057
1.1878
1.1836
1.18225
1.17894
1.17791
1.17369
1.21693
1.20375
1.21014
1.20383
1.20727
1.20231
1.20298
1.19762
1.19933
1.19342
1.19267
1.1885
1.18705
1.18223
1.18116
1.17739
1.17636
1.17395
1.21492
1.20194
1.20841
1.20184
1.20659
1.19996
1.20199
1.19565
1.19731
1.1917
1.19055
1.18578
1.18547
1.18067
1.17812
1.17502
1.17412
1.17172
1.21153
1.20018
1.20508
1.20024
1.20343
1.19799
1.19909
1.19336
1.19394
1.18872
1.187
1.18262
1.18154
1.1773
1.17381
1.1715
1.17
1.16842
1.20763
1.19778
1.20089
1.19777
1.19866
1.19459
1.19384
1.18949
1.18826
1.18413
1.1816
1.17788
1.17547
1.17198
1.1685
1.16627
1.164
1.16205
1.2028
1.19437
1.1959
1.19404
1.19311
1.19019
1.18789
1.18464
1.18178
1.17845
1.17533
1.17207
1.16891
1.16585
1.1627
1.16019
1.15744
1.15501
1.19741
1.18952
1.19014
1.1886
1.18684
1.18417
1.18137
1.17841
1.17503
1.17189
1.16829
1.16499
1.16175
1.15867
1.15532
1.15269
1.1499
1.14752
1.191
1.18335
1.18307
1.18148
1.17957
1.17698
1.17427
1.17116
1.16766
1.16438
1.16073
1.15738
1.15404
1.1508
1.1477
1.14505
1.14195
1.13958
1.18294
1.17554
1.17514
1.17374
1.17171
1.16907
1.16629
1.1631
1.15979
1.15649
1.15317
1.14977
1.14665
1.14353
1.14053
1.13776
1.13485
1.13273
1.17485
1.16767
1.1673
1.16603
1.16389
1.16156
1.15873
1.15587
1.15288
1.14975
1.14664
1.14351
1.14062
1.13765
1.13495
1.13256
1.12995
1.1278
1.16762
1.16039
1.16012
1.159
1.15732
1.15549
1.15305
1.15072
1.14823
1.14548
1.14285
1.14018
1.13748
1.13512
1.13262
1.13055
1.12831
1.12644
1.16126
1.15416
1.15432
1.15367
1.15258
1.15096
1.14926
1.14721
1.1453
1.14293
1.1409
1.13858
1.13644
1.13439
1.13236
1.13059
1.12883
1.12706
1.15612
1.14961
1.15001
1.14965
1.14866
1.14741
1.14635
1.14481
1.14327
1.1416
1.13985
1.13793
1.13629
1.13434
1.1329
1.13114
1.12984
1.12832
1.15214
1.1463
1.14684
1.14655
1.14588
1.14519
1.14429
1.14333
1.14215
1.14104
1.13962
1.13832
1.13675
1.13537
1.13386
1.13249
1.13116
1.12991
1.14936
1.14335
1.14415
1.1444
1.14416
1.14364
1.14301
1.14218
1.14141
1.14034
1.13952
1.13828
1.13722
1.13604
1.13484
1.13371
1.13257
1.13144
1.14754
1.14154
1.1424
1.14282
1.14283
1.14248
1.1421
1.14146
1.14071
1.14002
1.13915
1.1383
1.13741
1.13639
1.13547
1.13441
1.1334
1.13235
1.14598
1.1401
1.14119
1.14165
1.14168
1.14156
1.1412
1.14072
1.14023
1.13962
1.13911
1.13848
1.1378
1.13702
1.13611
1.13514
1.13411
1.13303
1.14486
1.13891
1.14008
1.14077
1.14096
1.14089
1.14074
1.14038
1.13996
1.13949
1.139
1.13846
1.13786
1.13716
1.13636
1.13545
1.13449
1.13349
1.14413
1.13864
1.13963
1.14013
1.1403
1.14034
1.14028
1.14013
1.13994
1.13969
1.13944
1.13907
1.13864
1.13802
1.13728
1.13637
1.13536
1.13422
1.14396
1.1381
1.1392
1.1398
1.14004
1.14023
1.1404
1.14054
1.14064
1.1406
1.14043
1.14002
1.13937
1.13841
1.13728
1.13589
1.13438
1.1326
1.14395
1.1378
1.13863
1.13918
1.13958
1.13996
1.14024
1.1403
1.14004
1.13941
1.13842
1.13706
1.13541
1.13355
1.13155
1.12949
1.12729
1.1251
1.14642
1.14008
1.13928
1.13866
1.13818
1.13761
1.13679
1.13573
1.13444
1.13296
1.13133
1.12955
1.1277
1.12578
1.12385
1.12192
1.12
1.11835
1.16992
1.20542
1.22011
1.22305
1.22189
1.21996
1.21794
1.21601
1.21384
1.21145
1.20876
1.20596
1.20336
1.20084
1.19755
1.19396
1.18953
1.18498
1.18128
1.17474
1.16559
1.15979
1.15673
1.15429
1.15212
1.15082
1.151
1.15184
1.15272
1.15339
1.15396
1.15448
1.15501
1.15561
1.15627
1.15696
1.15771
1.15855
1.15947
1.16048
1.16153
1.16262
1.16378
1.16494
1.16615
1.16733
1.16855
1.16993
1.17142
1.17304
1.17486
1.17686
1.17903
1.1813
1.18363
1.1861
1.18872
1.19125
1.19356
1.19564
1.19772
1.20002
1.2026
1.20531
1.20803
1.21071
1.21329
1.21586
1.21881
1.22236
1.2263
1.2302
1.23371
1.23723
1.24134
1.24608
1.25136
1.25728
1.26426
1.27167
1.27731
1.28125
1.28782
1.29729
1.30624
1.31344
1.31925
1.32707
1.3355
1.34207
1.34916
1.35998
1.36188
1.35782
1.34632
1.33033
1.32746
1.32983
1.33768
1.33588
1.33734
1.35089
1.36157
1.37187
1.38314
1.388
1.37794
1.35901
1.34756
1.3504
1.35849
1.36761
1.38018
1.38523
1.36414
1.37477
1.37145
1.36904
1.36509
1.35995
1.35423
1.34956
1.34552
1.34122
1.33541
1.32888
1.32186
1.31433
1.30732
1.30019
1.29444
1.2895
1.28526
1.28079
1.27721
1.27528
1.27641
1.27829
1.27996
1.28049
1.28171
1.28362
1.28582
1.2885
1.29036
1.29204
1.29534
1.30314
1.31305
1.32417
1.32939
1.32624
1.30904
1.28509
1.2725
1.28644
1.30087
1.30889
1.31103
1.30315
1.29139
1.28843
1.28111
1.26184
1.25254
1.27692
1.27748
1.28585
1.28851
1.28479
1.28133
1.27967
1.27816
1.27553
1.27229
1.26729
1.26605
1.2624
1.26258
1.25493
1.17021
1.21473
1.22776
1.2262
1.22527
1.22559
1.22554
1.2244
1.22082
1.21635
1.21221
1.21027
1.20997
1.20773
1.20005
1.18994
1.18372
1.18093
1.17663
1.17038
1.16421
1.16185
1.16087
1.15927
1.15919
1.15895
1.15874
1.15899
1.15976
1.16065
1.16121
1.16217
1.16282
1.16349
1.1644
1.16476
1.16536
1.16617
1.16688
1.16771
1.16835
1.16882
1.1694
1.16974
1.17015
1.17031
1.17042
1.17114
1.17199
1.1731
1.17495
1.1771
1.17967
1.18228
1.18527
1.18906
1.1937
1.19788
1.19997
1.20034
1.20102
1.20385
1.2088
1.21437
1.21942
1.22257
1.22339
1.22233
1.22268
1.22639
1.23358
1.24205
1.24743
1.24864
1.24993
1.255
1.26236
1.26901
1.27483
1.28436
1.29933
1.31199
1.31626
1.31685
1.32555
1.34258
1.3523
1.35942
1.37534
1.37754
1.37764
1.4151
1.43178
1.39289
1.36468
1.36224
1.36562
1.36356
1.37238
1.38485
1.38539
1.37662
1.38282
1.39073
1.39009
1.38292
1.36437
1.34677
1.33555
1.32885
1.32113
1.32595
1.35114
1.38346
1.32687
1.35487
1.35315
1.35655
1.35713
1.35385
1.34752
1.34331
1.34248
1.34452
1.34618
1.34579
1.34321
1.33894
1.33703
1.33691
1.3373
1.33672
1.3385
1.3418
1.34294
1.34032
1.34114
1.3475
1.35584
1.36289
1.36657
1.36696
1.36873
1.37528
1.38559
1.39417
1.39326
1.40114
1.42557
1.45869
1.46997
1.45355
1.39398
1.34357
1.35153
1.37274
1.37921
1.37867
1.36713
1.35747
1.33249
1.31455
1.31189
1.26918
1.22688
1.24231
1.23788
1.27364
1.31305
1.34068
1.3561
1.36483
1.37185
1.37013
1.36579
1.35251
1.35245
1.34464
1.3567
1.34556
1.1632
1.20124
1.21269
1.21637
1.21678
1.21736
1.22127
1.22074
1.21189
1.20185
1.19406
1.18751
1.18255
1.18308
1.18228
1.17717
1.17421
1.16809
1.16272
1.15967
1.15819
1.15812
1.15709
1.15771
1.15957
1.16095
1.16366
1.16651
1.16865
1.17022
1.17181
1.17317
1.17379
1.17442
1.17506
1.17584
1.17591
1.17608
1.17625
1.17688
1.17716
1.17684
1.17668
1.17622
1.17572
1.17486
1.17263
1.1714
1.1699
1.16837
1.16841
1.16866
1.16959
1.17068
1.17297
1.17665
1.1806
1.18319
1.18266
1.18098
1.18201
1.18739
1.19496
1.20162
1.20563
1.20637
1.20527
1.20235
1.2031
1.2099
1.22127
1.23152
1.23787
1.24228
1.24505
1.25282
1.26035
1.26273
1.26559
1.27084
1.29035
1.31593
1.30505
1.27847
1.27845
1.29513
1.31816
1.34051
1.37111
1.38848
1.4088
1.42104
1.38826
1.37359
1.38558
1.38171
1.3653
1.352
1.35905
1.35356
1.34198
1.34357
1.35885
1.3585
1.35846
1.35474
1.35121
1.34911
1.34053
1.32694
1.31142
1.31558
1.3244
1.33232
1.30461
1.32453
1.3228
1.33178
1.33936
1.34224
1.33793
1.33326
1.32627
1.32124
1.32074
1.31866
1.30965
1.30515
1.30577
1.30744
1.31064
1.31513
1.31862
1.32451
1.33099
1.3392
1.34631
1.35222
1.35683
1.35936
1.37362
1.3931
1.40513
1.41189
1.42051
1.4361
1.43935
1.44423
1.47643
1.5086
1.49983
1.45363
1.39832
1.36355
1.39233
1.40959
1.39023
1.3608
1.35723
1.38063
1.38078
1.33023
1.37226
1.33024
1.21708
1.2184
1.19994
1.21526
1.24473
1.29209
1.33397
1.3482
1.35774
1.36815
1.39435
1.39773
1.40277
1.3927
1.39913
1.38158
1.15741
1.19158
1.20673
1.20924
1.21029
1.21466
1.22015
1.21148
1.19063
1.183
1.18654
1.18492
1.182
1.17665
1.17217
1.16815
1.16035
1.16026
1.16056
1.15886
1.15904
1.16246
1.1661
1.17159
1.17639
1.18058
1.18531
1.18656
1.18748
1.18807
1.18653
1.18638
1.18601
1.1863
1.18631
1.18668
1.18795
1.18879
1.18963
1.18932
1.19052
1.19211
1.19198
1.19272
1.19409
1.19498
1.19476
1.19502
1.19381
1.19236
1.19074
1.18957
1.18857
1.18756
1.18637
1.18593
1.18479
1.18351
1.18306
1.18269
1.18475
1.18816
1.19069
1.19046
1.18903
1.1896
1.19311
1.19438
1.19457
1.19756
1.20581
1.21725
1.2284
1.23964
1.23848
1.23479
1.2515
1.25729
1.25264
1.26174
1.26676
1.27667
1.29154
1.30613
1.31187
1.29518
1.30598
1.34314
1.37688
1.39564
1.41088
1.40584
1.38051
1.37691
1.37721
1.36721
1.34815
1.34896
1.35807
1.34557
1.33868
1.34041
1.34306
1.33588
1.33844
1.33374
1.33644
1.33755
1.33506
1.32819
1.31356
1.31276
1.30882
1.29125
1.30384
1.30456
1.29427
1.30478
1.31505
1.32966
1.33114
1.3333
1.33149
1.3256
1.323
1.32098
1.30305
1.28878
1.28793
1.28949
1.29369
1.30517
1.31044
1.31163
1.31138
1.31395
1.32358
1.33717
1.35521
1.35799
1.35585
1.36732
1.38065
1.39362
1.41412
1.43808
1.45221
1.46439
1.4999
1.51877
1.49268
1.43622
1.40503
1.41285
1.4528
1.41649
1.35472
1.299
1.31128
1.32666
1.37873
1.39003
1.40542
1.33398
1.17702
1.20027
1.21625
1.23252
1.22603
1.25806
1.31157
1.33457
1.31948
1.29022
1.31883
1.37917
1.41438
1.40836
1.38295
1.36103
1.15317
1.18206
1.2007
1.20723
1.21213
1.22222
1.22131
1.19965
1.18933
1.18866
1.18274
1.17694
1.17243
1.17077
1.16362
1.16547
1.16836
1.16096
1.16158
1.16297
1.16709
1.17726
1.18442
1.18885
1.19197
1.19135
1.18986
1.18673
1.18488
1.18502
1.18418
1.18481
1.18655
1.1874
1.18837
1.18915
1.19052
1.1912
1.19154
1.19163
1.19217
1.19219
1.19132
1.19162
1.19252
1.19262
1.19366
1.19596
1.19787
1.20005
1.2024
1.20426
1.20543
1.20671
1.20617
1.20605
1.20526
1.20366
1.20396
1.20377
1.20413
1.20298
1.20179
1.19806
1.19344
1.19398
1.19951
1.2031
1.20132
1.19695
1.19526
1.19983
1.20687
1.21832
1.22946
1.2326
1.24638
1.24818
1.24433
1.26738
1.27103
1.26424
1.28062
1.29964
1.29878
1.28259
1.31431
1.35389
1.3714
1.3921
1.4056
1.38825
1.36215
1.35972
1.37343
1.37436
1.35707
1.35265
1.33644
1.31262
1.30283
1.29545
1.29172
1.2998
1.31509
1.32143
1.3317
1.3349
1.33815
1.33371
1.3073
1.29968
1.31217
1.31328
1.32248
1.3119
1.28612
1.28757
1.28313
1.29386
1.28936
1.29024
1.29812
1.29419
1.30374
1.32033
1.30112
1.27375
1.26379
1.25137
1.24917
1.27639
1.29828
1.29662
1.29848
1.30459
1.30283
1.29985
1.31553
1.33223
1.33872
1.35372
1.3579
1.35296
1.3716
1.4081
1.44111
1.47054
1.50871
1.51659
1.4857
1.42884
1.41286
1.42081
1.3815
1.2931
1.24086
1.20273
1.21911
1.21138
1.24571
1.32263
1.41315
1.26138
1.18625
1.18369
1.19358
1.23747
1.22705
1.24765
1.28915
1.32132
1.30681
1.24037
1.22295
1.29965
1.38431
1.4191
1.33636
1.31011
1.15131
1.17809
1.19732
1.20793
1.21706
1.22159
1.21595
1.20184
1.18694
1.17508
1.18009
1.17593
1.16324
1.16047
1.15784
1.14816
1.15344
1.15707
1.16454
1.17763
1.18925
1.19534
1.19513
1.19401
1.19142
1.18729
1.18688
1.18817
1.19013
1.19395
1.19721
1.19996
1.20311
1.20419
1.20583
1.20585
1.20558
1.20701
1.20695
1.20636
1.20644
1.20581
1.20508
1.20478
1.20364
1.20158
1.19873
1.19499
1.192
1.18979
1.18948
1.19046
1.19268
1.19727
1.19957
1.20402
1.2066
1.20858
1.20841
1.20803
1.20946
1.20848
1.20861
1.21183
1.21007
1.20845
1.21311
1.21515
1.20656
1.19609
1.19322
1.19571
1.19835
1.20196
1.21303
1.22326
1.23464
1.23868
1.25121
1.28106
1.2743
1.24868
1.25408
1.28111
1.2858
1.26867
1.30204
1.34466
1.36275
1.38657
1.40201
1.37895
1.35616
1.37222
1.39278
1.36958
1.3309
1.31313
1.2889
1.28166
1.28314
1.28315
1.27759
1.28583
1.28999
1.29495
1.31248
1.32145
1.33473
1.32664
1.2875
1.28013
1.2998
1.31892
1.30665
1.31325
1.27269
1.28579
1.27416
1.2869
1.28552
1.27438
1.29091
1.27328
1.26769
1.30792
1.31024
1.27594
1.26714
1.24882
1.21444
1.22773
1.27412
1.28393
1.28555
1.30467
1.31552
1.311
1.3116
1.31055
1.30693
1.33262
1.34769
1.32602
1.32278
1.35839
1.40997
1.46189
1.5075
1.51058
1.48107
1.4302
1.4093
1.38705
1.3139
1.27431
1.24488
1.21977
1.23436
1.22404
1.17073
1.15339
1.33216
1.18557
1.18131
1.21492
1.21577
1.2517
1.23258
1.24742
1.28475
1.31574
1.3267
1.26408
1.19363
1.22685
1.32269
1.41529
1.315
1.28764
1.15088
1.17855
1.20032
1.21273
1.21876
1.21811
1.21351
1.19164
1.17808
1.17032
1.16472
1.16292
1.1552
1.15557
1.16655
1.17073
1.17406
1.18351
1.19011
1.19467
1.19609
1.1948
1.19278
1.1912
1.18799
1.18906
1.19467
1.19886
1.2025
1.20524
1.20527
1.20414
1.20317
1.20039
1.19876
1.19684
1.19441
1.19446
1.19503
1.19585
1.19648
1.19686
1.19788
1.1998
1.20226
1.20512
1.20642
1.20463
1.20061
1.19527
1.18966
1.18537
1.1828
1.18428
1.18415
1.18871
1.18909
1.19124
1.19178
1.1907
1.19344
1.19581
1.19386
1.20225
1.2093
1.2046
1.20607
1.21476
1.21327
1.20628
1.20704
1.20798
1.2015
1.19597
1.20333
1.21432
1.22174
1.22693
1.23312
1.23649
1.22752
1.22911
1.2559
1.28117
1.27334
1.26442
1.30783
1.34559
1.35749
1.37793
1.37808
1.34838
1.33266
1.3566
1.35567
1.31092
1.28124
1.27668
1.26585
1.26256
1.26253
1.26439
1.25785
1.257
1.24734
1.24645
1.26097
1.28046
1.31809
1.32114
1.29424
1.29292
1.31066
1.29403
1.28226
1.26836
1.22207
1.23325
1.23667
1.24481
1.26919
1.26048
1.28603
1.28644
1.24552
1.26255
1.2881
1.25615
1.2507
1.26088
1.22301
1.2017
1.23761
1.25973
1.26616
1.28994
1.30551
1.31263
1.32458
1.31879
1.29813
1.31849
1.34304
1.31348
1.28585
1.30926
1.37097
1.44368
1.50027
1.50432
1.47907
1.43767
1.40618
1.36171
1.31067
1.34153
1.31895
1.30455
1.30395
1.25869
1.24306
1.26396
1.22582
1.21187
1.16577
1.18773
1.20015
1.24859
1.22973
1.22395
1.25646
1.29201
1.34385
1.32925
1.23555
1.21644
1.26338
1.38264
1.3279
1.32467
1.15006
1.17709
1.20135
1.21336
1.21359
1.19864
1.18994
1.1941
1.18826
1.17225
1.15647
1.15492
1.1596
1.16121
1.16128
1.17118
1.18239
1.19168
1.19816
1.20064
1.1992
1.19583
1.19168
1.19
1.1926
1.19868
1.20312
1.20383
1.20461
1.20357
1.20137
1.20011
1.19809
1.19565
1.19239
1.18798
1.18578
1.1855
1.18581
1.18693
1.18719
1.18627
1.18461
1.1827
1.18314
1.18699
1.19273
1.19762
1.19862
1.19534
1.19195
1.18712
1.18501
1.18372
1.18479
1.18638
1.18947
1.18813
1.19041
1.19169
1.18981
1.19388
1.18886
1.18604
1.1955
1.19232
1.18747
1.19686
1.20538
1.21277
1.22372
1.21187
1.18451
1.17692
1.19196
1.20951
1.21658
1.2222
1.22921
1.23613
1.24719
1.26341
1.26715
1.26099
1.24824
1.25995
1.31117
1.34356
1.35063
1.36589
1.35707
1.32816
1.3251
1.34133
1.31804
1.27669
1.27153
1.27545
1.26587
1.24949
1.25239
1.27173
1.27857
1.27973
1.27228
1.2632
1.25843
1.26305
1.29607
1.31589
1.30544
1.29932
1.30658
1.30637
1.30105
1.25854
1.23278
1.20447
1.22669
1.22364
1.24929
1.25987
1.26699
1.29263
1.27031
1.25458
1.26858
1.25386
1.24358
1.25821
1.23864
1.21309
1.22956
1.24286
1.24604
1.27346
1.28245
1.28682
1.31647
1.32767
1.30066
1.31235
1.34526
1.31852
1.26989
1.27356
1.33473
1.4217
1.49011
1.49759
1.47814
1.44463
1.40883
1.34632
1.32275
1.36442
1.3169
1.31034
1.30417
1.30137
1.31949
1.25544
1.19068
1.20138
1.17728
1.20612
1.18785
1.22737
1.21812
1.21269
1.2138
1.2326
1.31001
1.33501
1.24888
1.23313
1.21366
1.33477
1.33849
1.35875
1.14947
1.17588
1.2031
1.21438
1.20394
1.19091
1.18197
1.1732
1.17426
1.17494
1.17023
1.15843
1.15642
1.16377
1.16673
1.17506
1.18672
1.19223
1.19336
1.19141
1.19003
1.19193
1.19389
1.19461
1.1972
1.20316
1.20552
1.20247
1.20043
1.19987
1.20086
1.20459
1.20585
1.20537
1.2025
1.19748
1.1935
1.19179
1.19236
1.19504
1.19785
1.19835
1.19642
1.19152
1.18474
1.17941
1.17889
1.18404
1.19066
1.19244
1.18972
1.18104
1.17774
1.17252
1.17753
1.1751
1.18304
1.18665
1.18793
1.19484
1.19171
1.19287
1.19683
1.18837
1.19312
1.1954
1.1837
1.17967
1.18173
1.19558
1.21642
1.20088
1.17095
1.177
1.19945
1.2122
1.21684
1.22135
1.22687
1.23181
1.23713
1.23305
1.22252
1.22602
1.23581
1.26136
1.31105
1.33615
1.3425
1.35586
1.34861
1.32779
1.32921
1.33105
1.30038
1.26548
1.26193
1.26302
1.25029
1.23405
1.24247
1.26405
1.26437
1.26406
1.26966
1.26425
1.2515
1.24189
1.25376
1.2862
1.28846
1.27911
1.27347
1.27325
1.26777
1.22899
1.22067
1.20277
1.22244
1.25263
1.26492
1.29712
1.28125
1.27668
1.29461
1.282
1.2752
1.26953
1.26459
1.27542
1.25915
1.23189
1.23671
1.23632
1.22705
1.25832
1.26764
1.25775
1.28715
1.3146
1.29337
1.3037
1.34535
1.32827
1.26845
1.25388
1.30674
1.40096
1.47896
1.49252
1.47787
1.44823
1.40501
1.33379
1.33102
1.3694
1.33105
1.35115
1.34721
1.38751
1.37276
1.2613
1.23181
1.20869
1.16414
1.19978
1.19166
1.22143
1.19295
1.19771
1.18395
1.17463
1.23988
1.27754
1.21842
1.23683
1.17376
1.26693
1.31981
1.35929
1.14862
1.1726
1.20002
1.21623
1.2109
1.19063
1.1829
1.17522
1.16232
1.15963
1.16738
1.17213
1.17326
1.18185
1.18615
1.19444
1.20382
1.20318
1.19836
1.19461
1.1899
1.18792
1.1902
1.19513
1.20015
1.20396
1.2018
1.19574
1.19273
1.19314
1.19539
1.19944
1.20222
1.20271
1.201
1.19677
1.19079
1.18631
1.18526
1.18755
1.19139
1.1943
1.1954
1.19463
1.19153
1.18554
1.17783
1.17351
1.17359
1.17527
1.17691
1.17495
1.1765
1.17282
1.17423
1.17402
1.17297
1.1798
1.17831
1.1806
1.18276
1.17868
1.18463
1.18119
1.18315
1.19487
1.19136
1.18486
1.17686
1.17639
1.19328
1.1886
1.1687
1.17989
1.19852
1.18974
1.17608
1.18304
1.20859
1.23383
1.25517
1.25224
1.24527
1.25068
1.25678
1.27372
1.31461
1.32829
1.32914
1.34376
1.34089
1.32862
1.3173
1.30238
1.26965
1.24539
1.24626
1.25179
1.24106
1.22885
1.23166
1.23413
1.2319
1.23671
1.25369
1.27228
1.26515
1.24274
1.22168
1.25694
1.28795
1.28824
1.29124
1.28932
1.27375
1.23298
1.18722
1.20111
1.2147
1.27281
1.29797
1.32815
1.32792
1.31741
1.33199
1.30569
1.3097
1.31279
1.28007
1.27872
1.28527
1.2589
1.25321
1.25095
1.2282
1.24835
1.26385
1.24496
1.26461
1.30188
1.28576
1.28906
1.33698
1.33793
1.27736
1.24706
1.28493
1.38022
1.46517
1.48752
1.47796
1.45056
1.3949
1.32561
1.33939
1.36901
1.36686
1.37057
1.37036
1.42463
1.3925
1.36844
1.24241
1.21826
1.1737
1.18978
1.16993
1.21703
1.18629
1.17654
1.17683
1.17827
1.21217
1.24901
1.20183
1.24061
1.16957
1.22421
1.31425
1.34947
1.14802
1.16942
1.19629
1.21427
1.21199
1.19472
1.17912
1.1821
1.17712
1.16825
1.16303
1.16594
1.16854
1.17658
1.18
1.18719
1.19902
1.20474
1.2038
1.20466
1.20352
1.20116
1.20202
1.20471
1.20573
1.20466
1.19904
1.19188
1.18843
1.18821
1.18894
1.18973
1.19026
1.19146
1.194
1.19636
1.19681
1.19485
1.19265
1.19275
1.19531
1.19847
1.19963
1.19625
1.19044
1.18528
1.18006
1.17341
1.16769
1.16685
1.16703
1.16781
1.16614
1.16858
1.16461
1.17246
1.17107
1.17575
1.17835
1.17548
1.17715
1.17178
1.17286
1.1705
1.16477
1.17253
1.18014
1.18389
1.17675
1.16997
1.18929
1.18879
1.15963
1.15601
1.17608
1.17754
1.17392
1.19246
1.22601
1.26054
1.28688
1.2953
1.29566
1.29827
1.28954
1.28831
1.31679
1.31784
1.31377
1.32813
1.33088
1.31949
1.30214
1.27896
1.25487
1.23164
1.22858
1.22826
1.22768
1.22209
1.2224
1.22767
1.24439
1.24708
1.24428
1.26696
1.28791
1.27036
1.22872
1.24859
1.28541
1.28431
1.26185
1.27691
1.2719
1.23388
1.19246
1.19146
1.23926
1.27757
1.30603
1.32928
1.33155
1.34681
1.35367
1.29796
1.31224
1.34988
1.29496
1.27174
1.29163
1.2665
1.25557
1.26417
1.23806
1.24515
1.2723
1.2499
1.25009
1.28872
1.27874
1.27408
1.32444
1.34391
1.28944
1.24745
1.27071
1.36252
1.45363
1.48347
1.47895
1.45302
1.38797
1.33104
1.35971
1.37149
1.39038
1.39871
1.40473
1.48406
1.48915
1.35188
1.26725
1.21796
1.17372
1.20887
1.18854
1.19893
1.17545
1.15491
1.16563
1.20201
1.23163
1.25726
1.20028
1.24905
1.19543
1.24708
1.33712
1.32931
1.14729
1.16507
1.18948
1.21412
1.21625
1.20558
1.18671
1.17641
1.17469
1.17403
1.17235
1.17465
1.17791
1.18731
1.19231
1.19163
1.19063
1.19046
1.18942
1.1905
1.19463
1.19792
1.20102
1.20486
1.20671
1.20694
1.20514
1.20199
1.19816
1.19543
1.19445
1.19369
1.19127
1.18752
1.18513
1.18659
1.19266
1.19866
1.2003
1.19807
1.19525
1.19624
1.20038
1.20166
1.19678
1.18829
1.18134
1.17715
1.17246
1.16918
1.16504
1.16619
1.16354
1.16768
1.16184
1.16435
1.16614
1.16701
1.17087
1.17003
1.17193
1.16541
1.1658
1.17323
1.16935
1.16835
1.16577
1.16614
1.17093
1.16534
1.17868
1.18056
1.14587
1.14175
1.17268
1.17728
1.16443
1.18216
1.21995
1.25766
1.28385
1.30036
1.30926
1.31273
1.30192
1.29519
1.31735
1.31203
1.30123
1.31361
1.3183
1.30449
1.27822
1.26148
1.24507
1.22933
1.22175
1.21657
1.22202
1.22122
1.21503
1.22912
1.25522
1.24138
1.22684
1.2309
1.26024
1.26294
1.23331
1.22662
1.26098
1.26578
1.2678
1.26711
1.25952
1.19692
1.1757
1.17594
1.25011
1.29933
1.30833
1.33323
1.33255
1.33378
1.32276
1.28141
1.29664
1.32813
1.26549
1.2552
1.28809
1.25943
1.25161
1.28158
1.25358
1.24133
1.27606
1.25811
1.2424
1.27921
1.27439
1.25996
1.30666
1.34473
1.30302
1.2519
1.26177
1.34229
1.43809
1.47694
1.48013
1.45776
1.39212
1.35403
1.38998
1.38792
1.40422
1.41675
1.43382
1.48434
1.49986
1.40502
1.27989
1.23607
1.18188
1.17945
1.19857
1.19687
1.17329
1.15308
1.17221
1.21735
1.25209
1.25106
1.20128
1.25995
1.23046
1.2895
1.33739
1.29522
1.14692
1.16121
1.18094
1.20748
1.22106
1.21409
1.20149
1.18722
1.17913
1.17535
1.17374
1.17508
1.17766
1.18235
1.18889
1.19472
1.20122
1.20395
1.20311
1.19955
1.19676
1.19565
1.19559
1.19596
1.19572
1.1951
1.1941
1.19111
1.18651
1.18415
1.18501
1.18787
1.18927
1.18536
1.17859
1.17408
1.1748
1.1804
1.18683
1.18917
1.18709
1.18678
1.19068
1.19387
1.1917
1.18447
1.17671
1.16991
1.16577
1.16383
1.16166
1.1601
1.1539
1.15475
1.15694
1.15573
1.15926
1.15904
1.16219
1.15515
1.15886
1.15866
1.1498
1.15323
1.15463
1.16243
1.16499
1.15976
1.16148
1.15454
1.1594
1.17937
1.15291
1.13512
1.15842
1.1689
1.15411
1.17056
1.21023
1.24843
1.27551
1.29251
1.30408
1.30711
1.29895
1.29361
1.30975
1.30494
1.29054
1.30386
1.31035
1.28682
1.25049
1.2377
1.23721
1.22312
1.20783
1.20268
1.20972
1.21344
1.19822
1.2035
1.21668
1.20762
1.22579
1.23627
1.24474
1.26373
1.24559
1.22122
1.2589
1.27413
1.25119
1.2696
1.26663
1.20682
1.16318
1.1853
1.24217
1.29508
1.31151
1.32585
1.32546
1.31577
1.29521
1.27732
1.28378
1.28411
1.22734
1.23603
1.27164
1.23338
1.23293
1.28187
1.25297
1.23271
1.27754
1.26153
1.23051
1.26362
1.26541
1.24589
1.28598
1.33981
1.31319
1.25686
1.25549
1.32465
1.42224
1.46896
1.48029
1.46055
1.40916
1.38749
1.42755
1.40341
1.42199
1.43742
1.42587
1.49921
1.5289
1.41505
1.28641
1.22604
1.1839
1.19277
1.19602
1.16882
1.15277
1.14343
1.19658
1.22855
1.25851
1.22959
1.2121
1.28357
1.26306
1.31724
1.29297
1.26445
1.14711
1.15913
1.17388
1.19513
1.21829
1.22528
1.21875
1.20533
1.19127
1.18074
1.1762
1.17429
1.17438
1.1772
1.18625
1.19625
1.20267
1.20237
1.19917
1.19545
1.19351
1.19356
1.19452
1.19553
1.19656
1.19713
1.19648
1.19442
1.19435
1.19634
1.19853
1.19995
1.19748
1.18931
1.17959
1.17234
1.16957
1.17218
1.17858
1.1844
1.18518
1.18592
1.19282
1.20162
1.20163
1.19195
1.18045
1.17288
1.16826
1.16382
1.15776
1.15513
1.15609
1.15322
1.15974
1.15652
1.1591
1.15047
1.15464
1.14967
1.14653
1.15332
1.15008
1.15316
1.14422
1.14612
1.15469
1.1497
1.15019
1.15035
1.14815
1.16882
1.15112
1.12469
1.14403
1.16569
1.14875
1.16106
1.19646
1.23573
1.26295
1.28398
1.29316
1.29716
1.29009
1.2916
1.30463
1.29331
1.27549
1.28711
1.29719
1.27054
1.22357
1.21499
1.22883
1.22918
1.20242
1.19036
1.20448
1.21737
1.20478
1.20004
1.19063
1.20046
1.23935
1.23809
1.22637
1.26162
1.25167
1.21014
1.22999
1.25611
1.24104
1.24541
1.24219
1.18815
1.15437
1.19137
1.26604
1.29945
1.32394
1.33645
1.3243
1.31
1.29462
1.28169
1.26124
1.24726
1.2304
1.25054
1.26782
1.22002
1.22892
1.27773
1.23213
1.20694
1.26277
1.25325
1.2182
1.2484
1.2518
1.22994
1.26435
1.33012
1.31931
1.26218
1.25028
1.30746
1.40371
1.46124
1.47727
1.46
1.43314
1.42549
1.45366
1.41712
1.43501
1.45127
1.42274
1.48778
1.53107
1.41763
1.28096
1.24431
1.18066
1.18593
1.20669
1.17072
1.15933
1.15658
1.23431
1.22427
1.26596
1.23931
1.22751
1.28089
1.25294
1.27383
1.23682
1.25686
1.14789
1.15936
1.17078
1.18414
1.20096
1.21553
1.22247
1.22224
1.21625
1.20615
1.19354
1.18217
1.17789
1.17808
1.1799
1.18093
1.18309
1.18899
1.19552
1.1993
1.19898
1.19607
1.19167
1.18762
1.18497
1.183
1.18124
1.18104
1.18217
1.18205
1.17911
1.17842
1.1832
1.18569
1.18331
1.1817
1.1808
1.17977
1.18087
1.18216
1.18124
1.18213
1.1878
1.19572
1.19738
1.19216
1.18488
1.17612
1.16536
1.1563
1.15242
1.14574
1.1496
1.14524
1.14689
1.14395
1.14806
1.1467
1.14292
1.14366
1.14067
1.14344
1.1369
1.14592
1.14522
1.13974
1.15024
1.14531
1.14073
1.14441
1.13639
1.15474
1.15358
1.11946
1.12522
1.15338
1.14379
1.14978
1.18578
1.22477
1.25386
1.2716
1.28265
1.28637
1.28181
1.28618
1.29756
1.28084
1.25765
1.26619
1.28404
1.26573
1.2186
1.20191
1.22332
1.23142
1.1987
1.17665
1.18206
1.18725
1.1747
1.18128
1.1729
1.18815
1.22109
1.21717
1.20892
1.24769
1.24743
1.1982
1.22389
1.24887
1.23297
1.24279
1.24408
1.17632
1.14329
1.17827
1.26097
1.30841
1.32904
1.34524
1.33071
1.31091
1.28808
1.27702
1.2516
1.23882
1.24543
1.26073
1.25414
1.21372
1.2282
1.25993
1.20814
1.19363
1.24666
1.2308
1.19679
1.23007
1.23303
1.20992
1.24268
1.31669
1.31984
1.26445
1.24617
1.29225
1.38303
1.45223
1.46929
1.45566
1.45559
1.45679
1.46602
1.4184
1.44167
1.45232
1.40885
1.46935
1.51968
1.42373
1.27911
1.23271
1.19134
1.18097
1.18564
1.14961
1.14999
1.16973
1.24082
1.21963
1.31867
1.29364
1.23844
1.24663
1.24966
1.21546
1.23725
1.26988
1.14993
1.16452
1.17824
1.18628
1.19365
1.19955
1.20632
1.21371
1.21582
1.21552
1.21484
1.21138
1.20292
1.19069
1.18273
1.18199
1.1863
1.18993
1.19204
1.19342
1.193
1.19326
1.19404
1.19438
1.19319
1.19261
1.19155
1.1882
1.18709
1.18919
1.18587
1.18294
1.18428
1.18307
1.18146
1.18435
1.19033
1.19107
1.18617
1.18181
1.17768
1.17551
1.18091
1.19226
1.19662
1.18809
1.176
1.16475
1.15593
1.14648
1.14515
1.14262
1.13973
1.14171
1.14299
1.14752
1.1402
1.14101
1.13717
1.13562
1.13148
1.13767
1.1321
1.13131
1.13355
1.12675
1.13773
1.14109
1.13012
1.13704
1.13
1.13577
1.15235
1.1184
1.10904
1.13876
1.14228
1.13758
1.1739
1.20671
1.24447
1.25756
1.2733
1.27527
1.27512
1.27764
1.28698
1.27399
1.24713
1.24505
1.26395
1.26467
1.22843
1.20004
1.21944
1.21824
1.18228
1.15187
1.15777
1.16259
1.14848
1.16482
1.18398
1.18987
1.19843
1.21574
1.21666
1.24917
1.25503
1.19333
1.21184
1.24812
1.22382
1.23168
1.23444
1.17243
1.14307
1.19719
1.2661
1.31144
1.33574
1.33812
1.30868
1.29302
1.27145
1.25867
1.2486
1.24336
1.24653
1.25381
1.23601
1.22026
1.23905
1.2373
1.18877
1.20115
1.24695
1.21143
1.17704
1.21129
1.20893
1.18602
1.22207
1.3016
1.31494
1.26165
1.24028
1.27846
1.35942
1.44029
1.4564
1.45117
1.4723
1.46964
1.47268
1.409
1.43955
1.43897
1.39056
1.45068
1.51726
1.41616
1.27263
1.23276
1.18824
1.17958
1.20133
1.1589
1.16018
1.18064
1.23675
1.25369
1.36973
1.30798
1.22505
1.23555
1.30507
1.24536
1.27551
1.29406
1.15316
1.16979
1.1867
1.19438
1.1864
1.18223
1.17993
1.18849
1.20459
1.21326
1.21011
1.20577
1.20707
1.21154
1.2104
1.20008
1.18942
1.18356
1.18185
1.18183
1.18349
1.18393
1.18398
1.18438
1.18366
1.18387
1.18366
1.18106
1.18278
1.18422
1.1817
1.18316
1.18423
1.1808
1.18299
1.19179
1.19127
1.17907
1.1708
1.17074
1.17314
1.17924
1.18786
1.18977
1.18647
1.18475
1.18074
1.16784
1.1545
1.1474
1.13809
1.13769
1.13584
1.13932
1.1343
1.13477
1.13227
1.13266
1.13014
1.13501
1.13058
1.12985
1.1302
1.12559
1.13117
1.12512
1.12221
1.12899
1.12055
1.12225
1.1299
1.1172
1.13788
1.12588
1.09757
1.11977
1.1399
1.12613
1.15463
1.18753
1.22686
1.24627
1.25898
1.26772
1.26765
1.26781
1.27254
1.26703
1.24745
1.23566
1.24247
1.25538
1.23992
1.20847
1.21754
1.20735
1.16615
1.12392
1.13238
1.14461
1.14116
1.1532
1.1836
1.17819
1.18649
1.22564
1.2089
1.21764
1.23003
1.17813
1.18442
1.23058
1.21144
1.2128
1.21504
1.15094
1.12047
1.18199
1.26897
1.31564
1.34018
1.32644
1.28309
1.27568
1.26506
1.24607
1.23206
1.23007
1.22963
1.22866
1.21024
1.21054
1.22717
1.20476
1.17451
1.20817
1.23274
1.17497
1.15348
1.19059
1.1799
1.16058
1.20386
1.28588
1.30441
1.25432
1.23384
1.26575
1.3377
1.4247
1.44065
1.45017
1.48031
1.4703
1.47221
1.40779
1.42394
1.41669
1.37785
1.446
1.50055
1.40561
1.25868
1.22646
1.2033
1.16826
1.18705
1.14846
1.15933
1.18028
1.25775
1.29086
1.3615
1.30741
1.22628
1.25943
1.35496
1.31762
1.3056
1.31976
1.16625
1.19454
1.16546
1.14616
1.1606
1.15798
1.15763
1.16337
1.17414
1.18991
1.2069
1.21424
1.20973
1.20624
1.21272
1.22215
1.22286
1.21593
1.20719
1.19983
1.19493
1.19109
1.18773
1.18355
1.1805
1.17792
1.17503
1.17304
1.17345
1.17191
1.17052
1.17265
1.16957
1.16748
1.17415
1.17288
1.16305
1.16081
1.16863
1.17597
1.18236
1.19074
1.19057
1.18104
1.17512
1.16699
1.15429
1.14628
1.13672
1.1334
1.13259
1.13313
1.13372
1.1287
1.1278
1.12648
1.12694
1.12843
1.12551
1.12249
1.12387
1.11674
1.1241
1.11551
1.11839
1.12161
1.11684
1.12062
1.12286
1.11309
1.12497
1.11759
1.11678
1.13079
1.10081
1.09484
1.12746
1.12313
1.1311
1.16645
1.19834
1.23299
1.24071
1.25494
1.25905
1.25964
1.2583
1.25474
1.24608
1.2365
1.23022
1.24177
1.24238
1.21751
1.2175