/*--------------------------------*- C++ -*----------------------------------*\
| =========                 |                                                 |
| \\      /  F ield         | OpenFOAM: The Open Source CFD Toolbox           |
|  \\    /   O peration     | Version:  dev                                   |
|   \\  /    A nd           | Web:      http://www.openfoam.org               |
|    \\/     M anipulation  |                                                 |
\*---------------------------------------------------------------------------*/
FoamFile
{
    version     2.0;
    format      ascii;
    class       volScalarField;
    object      T;
    location    "9.132";
}
// * * * * * * * * * * * * * * * * * * * * * * * * * * * * * * * * * * * * * //

dimensions      [0 0 0 1 0 0 0];

internalField   nonuniform List<scalar> 
12225
(
303.466
305.351
305.58
305.292
305.142
304.545
304.587
303.799
304.042
303.27
303.557
302.715
303.241
302.116
302.256
302.663
299.497
299.188
304.763
306.615
306.158
305.435
305.43
304.088
304.847
303.05
304.057
302.473
303.358
301.766
302.887
301.313
301.064
301.653
298.876
297.559
304.922
306.472
306.144
304.933
305.297
303.42
304.207
302.485
302.851
301.85
301.92
301.069
301.064
300.797
299.88
299.512
298.852
298.541
304.979
306.265
306.233
304.805
305.001
303.906
303.412
303.314
302.257
302.371
301.465
301.472
300.671
300.636
299.889
299.721
298.744
298.904
304.878
306.222
306.188
305.113
304.754
304.419
303.451
303.551
302.37
302.457
301.427
301.461
300.62
300.57
299.837
299.776
298.91
299.197
304.402
306.729
306.042
305.348
304.792
304.501
303.6
303.548
302.661
302.437
301.726
301.475
300.704
300.806
299.868
300.161
298.884
299.146
304
307
305.605
305.513
304.599
304.762
303.416
303.811
302.641
302.672
301.878
301.541
300.921
300.878
300.039
299.933
299.299
298.477
303.694
307.006
305.431
305.844
304.633
304.837
303.516
303.958
302.466
302.951
301.837
301.737
300.943
301.075
300.167
299.921
299.295
298.942
303.736
307.073
305.22
305.901
304.696
304.667
303.717
303.982
302.478
302.84
301.997
301.581
301.056
301.013
300.225
299.958
299.093
298.989
303.507
306.921
304.902
305.868
304.272
304.633
303.503
303.892
302.382
302.718
301.833
301.752
300.927
301.03
300.224
300.077
299.36
298.776
303.409
306.779
304.737
305.803
303.85
304.653
303.199
303.816
302.362
302.634
301.832
301.97
300.929
300.945
300.577
300.378
299.637
299.277
303.489
306.43
304.798
305.434
303.875
304.405
303.186
303.662
302.491
302.703
302.068
302.121
301.32
301.229
301.132
300.789
300.266
299.723
303.444
305.998
304.838
305.038
304.07
304.272
303.542
303.687
302.994
302.977
302.572
302.468
302.042
301.853
301.767
301.416
301.094
300.721
303.349
305.514
304.772
304.656
304.175
304.103
303.796
303.681
303.426
303.264
303.041
302.85
302.65
302.435
302.289
302.016
301.838
301.619
303.011
305.021
304.525
304.344
304.1
303.993
303.853
303.691
303.61
303.438
303.375
303.254
303.122
302.956
302.906
302.71
302.589
302.393
302.476
304.416
304.165
304.032
303.864
303.777
303.649
303.566
303.56
303.478
303.485
303.426
303.37
303.308
303.252
303.084
303.086
302.937
301.92
303.767
303.565
303.412
303.306
303.278
303.218
303.217
303.223
303.211
303.19
303.202
303.152
303.117
303.078
302.997
303.008
302.827
301.168
302.894
302.694
302.534
302.504
302.447
302.459
302.442
302.423
302.426
302.416
302.422
302.371
302.354
302.302
302.172
302.136
302.005
300.362
302.087
301.893
301.734
301.634
301.494
301.457
301.359
301.263
301.222
301.144
301.076
301.031
300.904
300.836
300.673
300.577
300.416
299.832
301.498
301.213
300.963
300.74
300.589
300.403
300.272
300.072
299.976
299.787
299.67
299.516
299.348
299.194
298.988
298.792
298.632
299.407
300.915
300.579
300.273
300.053
299.847
299.532
299.298
299.042
298.798
298.562
298.378
298.121
297.959
297.678
297.495
297.215
297.007
299.043
300.385
300.025
299.725
299.453
299.122
298.793
298.438
298.116
297.753
297.462
297.135
296.884
296.594
296.349
296.087
295.832
295.573
298.698
300.088
299.685
299.26
298.887
298.527
298.146
297.782
297.371
297.026
296.599
296.278
295.916
295.588
295.281
294.972
294.681
294.406
298.4
299.771
299.361
298.905
298.478
298.088
297.658
297.255
296.859
296.428
296.03
295.628
295.23
294.88
294.511
294.193
293.879
293.591
298.249
299.58
299.111
298.649
298.228
297.787
297.362
296.931
296.478
296.041
295.565
295.114
294.675
294.267
293.899
293.564
293.262
292.995
298.138
299.489
299.007
298.489
298.028
297.583
297.111
296.657
296.193
295.727
295.252
294.786
294.334
293.913
293.525
293.179
292.864
292.58
298.077
299.295
298.849
298.383
297.938
297.472
296.982
296.483
295.966
295.446
294.915
294.407
293.915
293.474
293.076
292.733
292.432
292.183
297.968
299.265
298.796
298.304
297.842
297.34
296.798
296.227
295.639
295.064
294.512
294.016
293.577
293.224
292.925
292.705
292.531
292.453
297.881
299.233
298.835
298.364
297.868
297.319
296.747
296.193
295.69
295.266
294.918
294.664
294.484
294.366
294.298
294.259
294.273
294.321
297.326
298.625
298.619
298.454
298.186
297.885
297.599
297.341
297.112
296.915
296.747
296.612
296.498
296.407
296.332
296.268
296.223
296.126
293.313
284.662
281.25
280.592
280.875
281.333
281.814
282.283
282.816
283.408
284.077
284.775
285.432
286.088
286.941
287.883
289.037
290.225
291.251
293.037
295.44
296.972
297.853
298.619
299.316
299.763
299.835
299.777
299.748
299.786
299.863
299.963
300.072
300.176
300.284
300.397
300.513
300.621
300.724
300.819
300.918
301.022
301.126
301.242
301.359
301.492
301.619
301.717
301.797
301.851
301.863
301.844
301.8
301.747
301.691
301.617
301.531
301.499
301.538
301.639
301.744
301.809
301.833
301.86
301.91
301.999
302.128
302.263
302.317
302.259
302.157
302.115
302.181
302.234
302.16
301.967
301.673
301.238
300.578
299.899
299.69
299.79
299.182
297.942
296.924
296.342
296.009
295.192
294.284
293.746
293.037
291.639
292.092
293.565
296.66
300.868
302.127
302.054
300.729
301.559
301.397
298.47
296.351
294.292
292.029
291.22
293.518
297.532
299.723
298.743
296.692
294.401
291.371
289.987
293.752
290.851
290.799
290.476
290.387
290.455
290.547
290.329
289.899
289.452
289.272
289.191
289.161
289.216
289.165
289.19
288.94
288.568
288.107
287.77
287.289
286.464
285.047
283.618
282.368
281.456
280.443
279.343
278.273
277.224
276.456
275.732
274.634
272.723
270.616
268.535
267.899
269.109
273.187
278.916
282.601
280.285
277.596
276.196
275.972
277.902
280.672
281.535
283.419
287.794
290.234
285.019
285.061
283.576
283.268
284.385
285.487
286.158
286.74
287.469
288.228
289.269
289.277
289.561
288.738
289.386
293.29
282.544
279.561
279.925
280.143
280.082
280.104
280.396
281.262
282.335
283.322
283.798
283.918
284.546
286.48
288.966
290.494
291.256
292.471
294.177
295.781
296.408
296.778
297.304
297.442
297.671
297.876
297.957
297.924
297.908
297.973
297.955
298.043
298.122
298.183
298.392
298.528
298.643
298.804
298.952
299.175
299.441
299.699
300.03
300.36
300.763
301.144
301.381
301.604
301.746
301.714
301.634
301.472
301.308
301.032
300.567
299.975
299.627
299.836
300.38
300.736
300.536
299.912
299.251
298.82
298.912
299.571
300.588
301.161
300.922
299.957
298.876
298.656
299.361
299.909
299.573
298.797
298.229
297.8
296.453
294.1
292.526
292.564
293.105
291.973
289.298
288.347
287.8
285.483
286.025
286.899
280.048
277.284
285.763
292.641
293.789
293.453
294.152
292.515
290.217
290.501
292.517
291.318
289.838
290.208
291.957
296.146
300.021
302.315
303.531
304.901
303.289
297.069
289.76
301.711
294.754
294.377
292.86
291.857
291.568
291.824
291.542
290.409
288.573
286.777
285.351
284.291
283.636
282.538
281.078
279.544
278.295
276.6
274.681
273.301
272.787
271.588
269.319
266.767
264.614
263.375
262.869
262.038
260.303
258.008
256.233
256.105
254.304
249.893
244.399
242.774
245.762
256.764
267.252
266.842
263.306
262.141
262.225
264.72
267.192
272.637
276.157
277.355
286.541
296.183
292.73
294.145
286.537
278.206
272.761
270.007
268.52
267.319
267.783
268.807
271.495
271.317
272.424
269.253
270.356
295.165
285.837
283.133
282.289
282.204
282.06
281.171
281.391
283.551
285.948
287.806
289.407
290.599
290.483
290.798
292.139
292.972
294.634
296.028
296.818
297.238
297.371
297.734
297.625
297.271
297.034
296.455
295.919
295.598
295.404
295.211
295.126
295.229
295.316
295.417
295.532
295.839
296.101
296.37
296.557
296.894
297.367
297.804
298.343
298.915
299.646
300.659
301.387
302.241
303.022
303.41
303.794
304.011
304.169
303.979
303.51
303.117
303.213
304.084
305.019
305.098
304.143
302.859
301.988
301.867
302.565
303.703
305.142
305.455
304.295
302.27
300.792
300.316
300.288
300.45
299.411
298.763
299.231
299.407
298.961
295.129
290.685
294.743
301.937
302.469
299.072
294.797
291.036
285.613
283.078
279.931
278.07
285.136
289.06
287.403
288.903
292.703
295.884
294.706
296.193
298.944
298.685
295.534
295.804
296.039
297.016
298.067
298.75
300.741
303.706
306.927
305.478
302.761
300.018
306.625
301.06
300.646
297.863
295.348
293.865
293.783
293.698
293.964
293.66
292.281
291.156
291.373
290.683
288.993
287.091
284.914
282.63
280.526
277.935
275.305
272.513
270.14
268.136
266.546
265.194
261.581
257.444
254.915
253.377
251.605
248.77
248.154
247.089
241.646
236.465
237.86
245.547
256.325
264.523
260.155
256.556
259.544
264.646
265.9
261.988
263.231
273.939
265.788
273.407
298.151
298.475
303.719
300.494
293.454
283.041
274.391
271.497
269.474
267.357
262.624
262.498
261.547
262.975
260.594
262.793
296.787
288.304
284.67
284.083
283.824
282.777
281.596
283.827
288.808
290.505
289.629
290.112
290.915
292.305
293.455
294.604
296.561
296.481
296.541
297.055
296.959
296.115
295.247
293.946
292.903
291.982
291.049
291
290.951
291.075
291.656
291.856
292.157
292.31
292.553
292.677
292.638
292.756
292.904
293.28
293.257
293.289
293.709
293.844
293.914
294.174
294.677
295.096
295.914
296.744
297.598
298.346
299.081
299.844
300.623
301.257
302.111
302.956
303.614
304.202
304.141
303.874
303.981
304.781
305.756
306.19
306.081
306.656
307.293
307.021
305.465
303.374
301.555
300.063
301.598
303.071
299.899
299.794
301.771
300.648
300.247
298.48
296.37
294.619
294.365
298.737
297.06
289.801
283.547
280.68
278.463
280.037
285.919
287.36
288.071
291.077
295.563
295.672
293.807
296.755
298.478
298.136
297.671
299.691
299.557
300.928
300.574
300.478
301.212
302.818
305.827
305.556
306.208
309.843
306.817
305.581
307.009
303.648
300.223
295.997
294.523
292.978
292.333
292.35
291.748
290.973
293.191
294.542
293.039
290.859
288.356
284.836
282.63
280.902
279.662
277.969
274.703
270.747
266.554
265.619
265.275
262.397
259.207
256.15
252.281
248.215
246.107
244.257
238.471
235.347
239.55
249.276
256.05
256.028
248.046
252.735
264.201
275.64
273.765
270.653
261.423
261.668
259.501
271.031
308.665
303.962
300.448
296.924
298.341
291.301
279.509
274.328
276.636
282.306
276.588
265.532
259.13
259.816
262.435
265.494
298.059
290.806
286.279
284.711
283.522
281.216
281.61
286.773
289.152
289.337
290.86
292.314
293.417
293.922
295.671
295.043
294.618
296.573
296.287
295.948
294.759
292.234
290.704
289.802
289.277
289.656
290.214
291.124
291.621
291.738
292.109
292.055
291.842
291.882
291.882
291.924
291.864
292.019
292.25
292.528
292.724
293.11
293.653
293.871
294.03
294.36
294.393
294.188
294.131
294
293.885
293.934
294.147
294.399
295.08
295.65
296.433
297.326
297.754
298.372
298.898
299.82
300.832
302.544
304.221
304.473
303.766
303.835
305.153
306.892
307.8
307.179
306.024
303.927
302.408
302.656
300.209
300.982
302.855
298.529
298.74
300.649
297.45
294.394
295.771
300.234
293.929
286.355
283.454
280.131
278.472
282.655
288.688
289.936
288.076
288.445
292.16
293.107
296.572
302.479
305.171
307.17
308.074
306.599
303.358
302.358
300.485
300.028
299.602
300.606
306.148
307.5
304.645
304.698
301.67
303.622
308.522
307.544
307.371
303.84
303.734
302.209
299.529
298.862
295.402
291.048
294.068
298.449
299.175
300.104
298.268
290.64
285.328
284.563
283.028
281.052
280.47
279.717
275.116
270.865
268.898
265.787
264.608
264.335
259.837
253.182
248.07
243.83
237.875
236.576
241.819
251.959
255.464
253.816
258.567
276.639
289.602
299.796
296.211
298.118
287.978
271.351
256.691
285.347
307.471
309.392
307.3
296.681
298.828
294.417
285.007
277.68
280.114
294.413
298.507
281.554
264.752
257.748
270.745
275.353
298.758
291.98
287.268
284.721
282.595
281.636
283.052
286.464
290.099
292.871
291.595
292.869
296.042
296.639
297.521
299.864
298.261
297.355
295.279
291.975
289.349
288.189
288.455
288.85
289.636
290.675
290.745
290.499
290.078
289.26
288.669
288.178
287.667
287.656
287.517
287.798
288.038
287.955
288.313
288.726
289.007
289.496
289.985
290.42
291.113
292.04
293.158
294.429
295.46
296.256
296.58
296.629
296.366
295.685
295.587
294.99
294.947
295.081
295.702
296.273
296.528
297.398
297.844
297.863
299.139
299.952
299.415
300.057
303.208
306.407
307.645
307.65
307.604
307.168
305.131
303.6
301.733
301.729
299.47
293.335
296.132
303.128
302.579
297.326
297.322
302.225
295.306
286.845
283.821
279.718
277.449
282.778
288.045
285.591
281.981
286.61
294.974
299.34
305.486
308.011
308.266
308.922
310.414
308.442
307.205
306.1
302.361
300.919
298.844
300.946
309.975
311.617
306.802
301.671
303.639
301.457
309.96
306.428
308.596
304.671
304.641
306.109
301.524
304.444
303.432
292.859
291.713
297.851
298.7
302.178
308.25
302.323
290.437
287.57
286.244
281.613
278.888
279.292
278.252
277.103
276.422
270.817
268.078
271.347
270.257
262.615
253.75
245.887
239.032
238.725
243.978
253.437
257.132
260.121
274.408
287.589
295.769
302.536
298.276
299.791
312.111
316.22
270.43
306.642
310.052
302.144
302.265
293.671
297.907
294.526
286.164
279.32
277.466
291.409
308.071
299.522
277.475
258.336
276.054
282.038
299.125
292.114
286.776
283.845
282.507
282.757
283.949
289.177
292.445
294.36
295.738
296.24
298.188
297.809
294.988
294.128
293.21
290.857
289.365
288.365
288.15
288.555
289.095
289.575
290.36
289.959
288.621
287.767
287.047
286.625
286.867
287.311
287.76
288.619
289.169
289.86
290.587
290.701
290.786
290.844
290.97
291.13
291.103
290.876
290.573
290.282
290.508
291.501
292.958
294.665
296.359
297.661
298.47
298.399
298.753
298.035
298.488
298.397
298.882
299.582
299.308
299.446
300.237
298.491
297.867
299.713
299.579
298.356
300.005
302.601
303.137
303.591
305.685
307.509
306.288
304.523
303.591
303.258
302.574
302.453
305.984
307.039
301.242
295.753
298.309
301.673
292.642
285.216
283.349
279.783
280.25
286.991
291.017
286.4
286.546
296.482
304.544
306.679
310.238
311.163
311.678
312.331
314.696
315.036
317.391
317.334
313.279
308.667
300.697
300.849
307.709
307.954
303.367
306.541
309.13
310.69
322.303
317.727
317.091
313.785
307.638
309.443
302.135
301.96
310.049
303.197
295.945
302.494
302.616
299.819
308.075
311.025
299.868
293.468
290.971
284.999
280.676
278.737
276.576
277.582
280.531
275.254
270.634
276.282
280.14
273.73
261.747
249.835
241.347
241.122
245.864
253.881
259.426
266.594
279.008
276.243
280.594
284.212
283.504
293.817
299.536
293.156
295.052
303.029
315.103
309.858
306.414
294.315
298.602
300.175
292.05
283.985
274.338
277.925
298.408
303.549
290.535
264.379
275.22
276.469
299.634
292.775
286.82
284.007
284.105
287.71
289.713
288.675
290.22
294.275
298.161
298.35
297.125
296.777
296.596
293.934
291.181
288.987
287.541
287.09
287.565
288.474
289.483
289.773
289.018
287.589
286.724
286.7
286.644
287.079
287.728
288.169
288.842
289.626
290.642
291.846
292.434
292.628
292.724
292.686
292.939
293.479
294.165
294.788
294.708
293.834
292.71
292.045
292.446
293.737
294.953
296.413
297.171
297.738
297.801
297.722
297.546
298.341
298.176
298.529
299.342
298.96
300.963
301.647
299.919
301.728
303.02
300.856
299.589
298.767
297.452
301.47
308.654
310.896
307.659
304.245
303.495
302.966
302.079
301.258
299.703
296.724
296.06
297.963
302.21
300.79
289.927
283.719
282.938
280.431
283.046
290.009
291.472
288.041
293.186
303.305
305.697
305.56
308.509
312.441
312.295
308.776
307.912
308.072
310.642
312.87
313.399
311.611
303.347
299.82
303.002
304.22
301.803
302.032
303.066
311.982
319.355
325.442
319.718
320.48
312.859
310.738
306.793
299.426
305.402
307.104
301.29
304.391
305.926
301.238
305.384
310.41
303.921
298.552
296.151
289.294
286.142
283.813
277.669
276.173
281.343
278.006
271.728
277.617
286.518
283.727
270.378
254.92
244.351
243.78
247.651
254.203
260.561
271.438
278.613
270.918
280.077
283.006
284.118
287.587
283.243
293.04
309.357
306.771
313.293
306.341
310.631
300.082
301.488
303.419
301.969
296.904
280.134
274.376
293.493
299.427
301.992
273.443
273.464
269.628
300.105
293.404
286.735
284.099
286.644
289.808
291.984
294.117
293.803
293.65
294.916
297.882
298.201
296.274
295.495
293.273
290.423
289.202
289.007
289.495
289.749
289.241
288.83
288.67
287.955
286.569
286.244
287.101
287.58
287.717
287.469
286.696
286.63
286.992
287.943
289.315
290.32
290.757
290.66
290.144
289.757
290.015
290.887
292.465
294.352
295.655
295.629
294.362
293.159
293.358
294.667
297.142
298.19
299.569
298.581
299.455
297.654
297.434
297.387
296.28
297.685
297.618
297.532
300.082
299.145
299.763
303.373
304.403
303.873
300.617
296.922
302.478
310.557
309.154
304.103
301.472
300.87
300.642
300.533
300.563
300.435
301.971
305.015
305.129
304.034
298.743
287.995
283.127
282.404
280.402
282.998
288.544
288.4
287.745
294.938
304.062
305.533
305.989
309.664
314.186
312.386
307.099
307.274
307.934
307.928
310.468
313.677
315.411
311.024
304.033
304.831
307.274
308.531
308.425
309.106
318.48
319.787
325.705
319.871
313.929
310.284
302.599
305.008
304
300.392
301.758
301.828
302.831
302.17
297.865
301.534
307.146
303.963
302.144
302.238
293.735
290.986
291.47
284.022
279.018
283.719
280.751
272.647
277.399
289.695
291.042
278.125
260.138
247.571
246.278
249.394
255.094
262.334
275.773
278.364
270.359
280.159
276.532
277.507
271.248
271.538
296.649
302.157
306.315
317.845
308.228
310.02
302.58
308.629
307.429
310.605
313.606
296.365
286.131
300.848
298.372
312.873
288.02
277.824
268.963
300.665
294.585
287.831
283.978
285.263
290.135
292.03
293.924
297.155
297.716
295.678
294.504
294.161
291.977
290.888
288.793
286.619
286.905
288.076
288.978
290.084
290.426
289.741
288.496
287.299
286.512
287.214
288.694
289.315
289.149
288.581
287.665
287.18
287.276
287.917
289.162
290.729
291.805
292.003
291.455
290.673
290.227
290.259
290.775
291.899
293.71
295.742
296.73
296.701
296.481
296.465
297.286
297.243
298.51
298.319
298.843
299.164
297.861
298.734
298.356
298.464
299.747
298.695
300.178
299.706
297.591
299.688
302.021
304.287
304.199
300.728
303.519
308.995
305.947
302.254
305.451
309.322
308.105
302.897
298.339
294.926
297.04
299.803
299.319
298.233
294.189
285.216
282.495
282.679
280.363
282.139
285.781
288.091
291.045
299.344
306.019
306.285
305.586
309.324
313.266
312.683
311.862
313.477
312.895
309.02
306.089
309.187
314.611
318.392
309.575
303.467
303.746
302.528
303.386
306.805
316.758
327.594
324.67
321.862
307.415
301.599
293.832
293.647
296.173
291.888
294.968
294.054
294.223
298.567
296.404
295.454
300.749
300.434
300.31
304.072
297.376
293.913
296.984
290.525
282.615
286.498
284.792
275.007
276.777
290.141
295.444
285.057
265.686
251.423
248.789
251.127
256.331
265.574
279.95
278.942
271.695
275.21
273.848
274.225
264.984
270.889
274.051
299.708
304.744
316.56
312.533
317.484
304.198
311.413
313.207
314.122
316.431
306.645
295.72
307.167
298.357
316.348
301.546
281.45
270.432
301.167
295.757
289.119
284.773
285.293
289.386
293.201
292.455
293.685
295.887
297.144
296.335
295.598
293.535
292.638
290.745
287.843
286.551
286.775
286.543
286.836
287.346
287.037
286.354
286.125
286.447
287.871
289.552
290.269
290.256
290.073
289.918
289.823
289.545
288.975
288.533
288.606
289.223
289.797
289.754
289.175
288.59
288.637
289.785
291.391
292.803
294.319
296.17
297.592
297.807
297.911
298.011
298.606
298.351
299.423
297.688
298.445
297.431
297.384
298.434
298.447
300.185
300.226
301.553
303.129
301.173
299.909
299.927
302.649
304.304
299.882
301.592
309.406
309.917
305.636
306.594
308.023
303.843
296.524
289.662
284.975
284.683
285.918
286.181
288.447
288.577
282.454
282.388
283.434
280.927
281.429
284.565
288.358
293.972
300.822
307.341
308.236
308.447
309.971
312.441
312.507
312.097
309.632
308.783
308.631
303.212
300.077
305.182
315.432
309.553
301.109
301.456
306.984
303.587
304.762
313.029
324.878
324.881
315.106
305.013
297.468
291.513
290.493
287.384
283.952
294.256
291.296
283.768
293.014
296.951
292.919
297.718
299.339
298.09
303.284
299.208
293.342
298.032
295.639
286.65
289.338
289.236
278.256
276.483
289.39
297.796
290.57
270.641
254.844
251.008
252.695
257.717
269.126
282.333
277.774
273.684
271.349
269.961
269.789
254.909
254.244
276.531
295.177
306.187
318.007
307.899
314.56
309.437
315.308
320.613
319.218
312.242
304.678
295.371
308.993
297.536
312.076
300.455
277.294
273.064
301.696
297.228
291.18
285.187
284.549
287.006
291.535
294.138
294.55
294.67
295.039
294.413
293.524
291.153
289.911
290.037
290.212
290.189
290.368
289.995
288.91
288.061
287.241
286.27
285.805
285.737
286.165
286.906
287.781
288.375
288.58
288.79
289.429
290.357
290.878
290.401
288.884
287.569
287.381
288.049
288.711
288.396
287.505
287.533
289.043
291.247
292.954
294.074
295.375
296.326
297.401
297.231
297.994
297.238
299.01
298.344
298.239
298.182
297.546
298.084
298.091
300.16
300.024
298.737
300.395
301.034
302.037
302.166
301.732
303.475
300.274
301.634
311.328
311.662
304.194
304.496
308.028
303.511
294.89
287.072
282.219
279.782
279.041
279.157
282.235
284.077
279.553
281.22
283.679
281.532
281.423
284.649
290.27
295.067
300.543
305.314
307.211
308.827
308.439
309.631
311.022
308.196
302.464
305.595
310.244
309.367
302.518
303.349
311.773
312.447
304.414
303.875
303.614
304
305.638
320.514
326.675
328.026
309.558
298.006
295.039
288.865
288.462
286.816
287.007
297.077
293.272
283.988
296.222
299.629
292.323
297.435
299.18
293.885
299.722
300.496
292.949
297.026
298.481
289.516
291.237
293.517
282.576
276.922
287.775
298.658
294.742
276.109
258.801
253.418
254.054
258.557
271.275
281.19
274.68
272.974
269.982
267.874
264.2
254.599
251.775
268.083
292.515
302.258
316.432
316.265
312.336
309.958
315.991
322.396
320.237
308.949
299.813
295.664
309.966
296.72
304.854
291.724
274.195
278.973
302.107
298.529
293.649
287.214
283.793
285.226
288.104
291.566
293.624
294.589
294.96
294.583
293.878
292.65
290.948
289.431
287.789
287.078
287.219
287.986
288.549
288.708
288.618
288.43
288.402
288.474
288.657
289.339
290.392
290.87
290.555
289.804
289.511
290.545
292.21
293.218
292.882
291.401
289.873
289.45
290.008
289.986
289.015
288.433
289.242
291.182
293.142
294.818
295.837
296.374
297.024
297.628
299.313
299.023
298.784
299.195
298.48
298.694
298.284
300.279
299.445
300.211
302.686
301.88
301.744
300.179
300.342
302.008
301.999
304.3
302.812
299.233
307.482
311.454
305.267
304.111
308.35
303.914
294.45
286.359
281.201
278.442
276.774
276.917
279.47
281.425
278.265
279.822
283.168
280.794
280.31
285.479
293.273
297.264
299.438
304.147
307.639
309.257
308.542
308.824
312.893
311.32
307.03
310.675
308.96
306.676
303.538
300.522
305.873
311.36
302.125
299.216
304.381
300.569
301.025
316.037
327.914
324.518
309.909
296.412
292.923
288.981
288.247
289.136
292.757
298.015
294.594
291.071
305.605
305.155
295.497
302.628
303.331
292.778
298.009
301.465
292.042
295.959
301.704
293.34
293.525
297.538
287.638
278.3
286.33
298.936
297.897
281.223
262.759
256.037
255.278
259.283
270.89
277.313
269.213
271.615
268.185
265.334
265.461
253.064
247.809
265.352
290.936
305.762
316.472
314.712
313.491
318.018
322.968
327.219
316.828
305.744
297.42
301.381
309.085
291.805
295.688
281.599
279.55
286.567
302.328
299.308
295.661
290.567
284.991
283.078
284.326
287.303
290.639
293.262
294.448
294.95
294.898
294.144
291.839
289.308
287.644
287.579
288.215
288.987
289.34
289.212
288.862
288.502
288.138
287.889
287.939
288.326
288.221
287.634
287.023
286.634
287.216
289.168
291.478
293.154
293.696
292.896
291.224
289.822
289.651
289.333
287.518
285.539
285.872
288.411
291.198
292.967
294.074
295.24
296.785
297.373
297.284
297.967
296.442
297.48
297.09
299.421
298.411
300.123
300.876
299.433
300.655
300.336
302.948
302.292
300.728
302.522
302.618
303.257
303.675
299.137
305.433
312.012
306.309
302.194
307.363
303.836
295.182
286.609
281.27
277.471
276.206
276.082
278.335
278.916
276.597
279.231
283.263
281.068
280.029
286.556
297.339
299.949
298.422
300.036
306.329
309.304
306.38
303.813
307.542
309.17
310.864
310.375
302.238
302.079
304.729
297.605
300.566
310.541
305.959
300.105
304.143
303.184
303.886
317.275
327.854
319.513
302.037
293.682
288.397
285.531
287.328
289.682
292.676
295.83
298.272
299.783
307.208
302.827
295.839
306.229
304.836
292.358
301.043
306.96
294.135
296.418
304.374
297.022
296.519
301.542
292.979
280.481
285.316
298.624
300.465
286.124
267.006
258.444
256.589
260.192
268.312
271.641
264.503
269.765
266.654
263.246
266.761
254.823
247.045
265.397
292.739
302.151
318.398
316.658
310.38
318.224
322.451
326.12
307.216
305.482
297.977
303.71
306.122
289.472
295.502
285.004
293.21
290.817
302.326
299.375
296.476
293.33
289.435
285.96
284.116
283.849
284.98
287.167
290.082
292.855
293.977
293.968
293.493
293.153
292.516
290.942
289.197
288.11
288.016
288.555
289.462
290.298
290.799
291.134
291.421
291.338
290.922
290.815
291.417
291.464
290.163
289.45
289.915
290.183
290.288
290.444
290.08
289.694
289.825
289.44
287.893
285.984
285.718
287.06
288.845
291.015
293.663
295.817
296.798
298.393
297.384
298.629
298.21
299.063
298.009
298.705
299.705
299.707
300.628
300.166
301.959
299.729
300.601
301.97
299.639
301.646
302.838
302.474
304.617
299.927
302.209
311.37
308.765
302.309
306.083
304.06
295.191
286.335
280.704
277.292
275.743
275.538
277.319
277.004
275.1
279.171
284.335
282.39
279.597
285.296
297.121
300.957
296.842
295.51
303.483
308.938
307.792
306.508
310.197
310.037
313.894
310.973
301.924
303.46
306.886
298.077
298.407
310.516
305.126
299.39
303.178
301.447
301.029
317.885
328.565
320.94
300.081
289.404
284.869
281.076
283.276
287.218
291.774
294.16
299.966
303.052
303.029
298.563
297.29
308.392
305.415
294.636
306.189
311.966
298.336
300.742
309.084
301.172
300.382
306.1
298.323
283.312
285.036
298.27
302.239
290.47
271.383
260.685
258.311
261.576
265.045
265.711
262.131
269.194
265.799
262.644
269.384
258.296
249.526
264.689
293.708
304.825
316.258
318.439
316.389
325.19
326.374
323.518
303.231
308.91
289.858
292.308
301.277
295.685
298.721
300.735
298.717
289.787
301.91
298.122
294.608
292.721
291.292
290.118
288.599
286.617
285.703
285.468
285.437
286.04
287.818
290.613
292.567
292.813
291.734
290.725
290.057
289.541
289.45
289.212
288.842
288.561
288.658
288.616
288.675
289.311
289.43
288.735
289.344
289.9
289.428
289.575
289.8
288.911
287.312
287.041
288.12
289.043
289.899
290.207
288.617
285.77
284.843
286.984
289.889
292.554
294.683
296.939
297.128
297.804
298.436
297.902
297.516
296.538
298.483
298.318
299.466
300.033
301.119
299.658
301.5
301.586
301.446
303.304
300.31
300.313
303.339
301.799
304.327
302.168
299.405
309.579
310.855
303.139
303.818
304.581
295.255
287.627
279.901
277.637
274.897
275.212
275.95
275.805
274.193
277.989
284.476
284.501
280.548
282.389
292.56
299.329
294.79
294.592
303.38
310.983
310.37
309.754
314.56
311.525
308.955
307.031
304.071
301.934
302.405
294.008
292.457
307.973
304.062
296.04
301.875
300.376
299.428
315.255
324.916
313.062
296.34
285.988
280.957
279.331
284.213
287.956
293.213
295.814
298.72
300.442
299.471
296.599
299.372
305.851
301.639
298.113
310.936
311.341
298.461
304.25
313.633
305.331
305.264
311.507
303.423
286.398
285.496
298.495
303.855
294.206
276.312
262.972
260.566
263.131
262.002
262.243
260.753
271.166
265.674
264.296
273.315
262.751
250.332
265.813
294.933
305.513
317.939
319.078
313.19
323.616
324.563
319.937
304.932
304.356
277.23
285.898
302.767
301.516
289.611
301.133
292.169
284.972
300.931
296.475
293.157
291.831
293.557
294.642
295.314
293.288
289.166
286.546
286.787
287.63
287.297
286.052
285.901
287.987
290.463
291.909
292.294
292.204
291.632
291.321
291.117
290.819
290.791
290.543
290.367
290.801
290.201
289.621
290.013
289.454
288.975
289.605
288.857
286.532
286.497
289.281
291.072
290.835
290.005
288.273
286.035
285.497
286.15
286.416
287.367
290.509
293.671
295.354
297.58
297.524
297.901
296.956
298.247
298.045
298.754
298.676
299.329
298.144
299.525
299.603
299.892
301.063
299.837
301.904
302.429
301.018
303.838
303.139
302.045
305.212
299.814
305.103
312.15
305.088
301.407
305.262
297.089
289.389
280.626
277.427
274.959
274.013
274.695
275.081
274.212
276.381
281.927
284.628
282.576
280.88
286.529
294.69
292.177
294.292
304.88
316.387
314.641
312.286
314.869
311.889
304.978
306.41
305.333
296.663
299.864
297.491
294.693
308.227
308.174
297.243
301.911
302.017
301.097
317.957
328.657
313.113
292.356
282.229
276.713
277.704
286.54
290.145
293.394
297.053
300.082
301.02
300.679
299.639
303.962
305.166
299.776
302.999
313.835
307.366
298.041
310.126
318.502
309.32
311.217
317.495
307.861
289.339
286.693
299.336
305.169
297.055
280.804
265.389
263.26
263.743
259.89
260.893
260.521
272.586
267.722
267.524
276.784
265.059
253.139
267.669
298.779
307.166
314.098
321.797
316.674
326.733
324.976
319.077
301.26
294.786
273.946
285.602
305.4
298.934
277.21
286.289
284.569
278.78
297.655
291.072
298.987
303.313
299.988
300.126
300.288
298.887
296.404
292.484
288.061
285.82
286.61
287.587
286.209
283.652
282.845
283.971
285.764
287.368
288.416
289.178
289.781
290.594
291.143
291.548
292.029
292.31
292.004
292.149
292.257
291.5
292.01
292.297
290.411
290.486
292.66
292.903
290.658
288.599
286.792
284.587
284.503
286.618
287.851
289.688
292.648
294.493
296.768
297.402
297.451
297.148
296.934
298.126
298.279
298.537
298.366
297.947
298.798
299.431
299.307
301.076
299.29
301.759
300.808
300.432
301.801
300.808
300.947
303.453
300.391
303.299
302.744
300.584
309.785
309.559
301.154
303.682
300.556
291.801
284.135
277.412
276.225
273.678
273.694
274.13
274.588
275.909
279.087
282.024
283.053
280.821
282.281