/*--------------------------------*- C++ -*----------------------------------*\
| =========                 |                                                 |
| \\      /  F ield         | OpenFOAM: The Open Source CFD Toolbox           |
|  \\    /   O peration     | Version:  dev                                   |
|   \\  /    A nd           | Web:      http://www.openfoam.org               |
|    \\/     M anipulation  |                                                 |
\*---------------------------------------------------------------------------*/
FoamFile
{
    version     2.0;
    format      ascii;
    class       volVectorField;
    object      U;
    location    "9.132";
}
// * * * * * * * * * * * * * * * * * * * * * * * * * * * * * * * * * * * * * //

dimensions      [0 1 -1 0 0 0 0];

internalField   nonuniform List<vector> 
12225
(
(7.81653 0.499951 0)
(7.58481 0.237876 0)
(7.78798 0.0651407 0)
(10.3832 0.00481397 0)
(10.804 0.0715077 0)
(14.3045 -0.0416457 0)
(14.4807 0.090947 0)
(17.888 -0.0829945 0)
(18.1253 0.0801907 0)
(21.5931 -0.141056 0)
(21.7788 0.0424941 0)
(25.5644 -0.278239 0)
(26.1829 0.124991 0)
(29.3176 -0.664593 0)
(35.117 0.133357 0)
(33.162 1.09573 0)
(49.5252 -8.44044 0)
(43.897 7.02664 0)
(10.5093 1.25294 0)
(12.8291 1.05701 0)
(11.6317 0.621713 0)
(15.4764 0.376931 0)
(12.5415 0.286502 0)
(19.1153 0.0183727 0)
(15.2839 0.281372 0)
(22.9929 -0.180406 0)
(19.0055 0.163758 0)
(27.2318 -0.406309 0)
(23.0315 -0.0801962 0)
(32.269 -0.885414 0)
(27.6995 0.0719299 0)
(39.0663 -3.21825 0)
(34.1775 0.726475 0)
(54.4771 -4.05188 0)
(42.0915 -9.00535 0)
(65.4125 -13.5899 0)
(10.1129 1.2205 0)
(15.8094 1.32824 0)
(12.9794 0.953095 0)
(20.0994 0.898642 0)
(13.9626 0.609649 0)
(23.9941 0.356613 0)
(16.0507 0.439849 0)
(28.2083 -0.291136 0)
(20.2576 0.268646 0)
(32.1097 -0.756534 0)
(25.37 -0.0641191 0)
(35.7915 -1.48464 0)
(31.5547 -0.34677 0)
(40.0203 -3.26692 0)
(38.0991 -2.3705 0)
(52.6156 -5.313 0)
(47.8591 -9.57723 0)
(50.8622 -25.1881 0)
(7.51037 1.34473 0)
(18.0926 1.64615 0)
(11.7669 1.13411 0)
(22.9923 1.3137 0)
(14.9441 0.88301 0)
(26.9509 0.474539 0)
(18.6823 0.703338 0)
(30.4668 -0.585477 0)
(23.1612 0.557431 0)
(33.4469 -1.50458 0)
(28.0354 0.195989 0)
(36.9577 -2.61141 0)
(33.466 -0.339857 0)
(41.4974 -4.53025 0)
(40.1263 -3.10569 0)
(47.5584 -8.17771 0)
(45.178 -13.7128 0)
(51.4892 -19.6064 0)
(6.02425 1.54701 0)
(18.6487 1.44678 0)
(12.7159 1.39418 0)
(23.0962 1.24895 0)
(18.1906 1.42488 0)
(26.6434 0.41453 0)
(21.6926 1.06198 0)
(29.6927 -0.768931 0)
(25.3629 0.931212 0)
(32.6178 -1.73242 0)
(28.2074 0.413802 0)
(37.0117 -2.94144 0)
(31.7553 -0.626858 0)
(41.4746 -5.08662 0)
(37.7617 -3.29329 0)
(43.7969 -10.1275 0)
(43.0779 -11.4749 0)
(41.3338 -13.4505 0)
(8.36971 2.06725 0)
(16.2067 1.05954 0)
(13.6701 1.70971 0)
(19.8895 0.890867 0)
(18.7748 1.71299 0)
(24.5763 0.50594 0)
(22.1793 1.45621 0)
(27.9494 -0.675582 0)
(25.5109 1.10317 0)
(31.2385 -1.41848 0)
(27.703 -0.020171 0)
(35.2083 -2.80501 0)
(29.3871 -1.38686 0)
(38.8531 -5.72892 0)
(33.0916 -3.84789 0)
(41.1899 -11.7793 0)
(34.5833 -11.7325 0)
(39.8558 -7.9907 0)
(10.3821 2.24821 0)
(13.7108 1.10506 0)
(13.9609 2.39383 0)
(17.6769 0.758203 0)
(18.9557 1.93159 0)
(22.5032 0.539803 0)
(22.411 1.71429 0)
(26.5259 -0.618734 0)
(25.7762 1.31039 0)
(29.6932 -1.37438 0)
(28.3247 0.00839634 0)
(32.8645 -2.5574 0)
(30.2845 -1.36654 0)
(35.7068 -5.49962 0)
(30.1992 -4.44576 0)
(41.0012 -12.5657 0)
(22.8846 -11.8564 0)
(47.3124 -11.9916 0)
(11.9306 2.56482 0)
(12.439 1.48058 0)
(15.0305 2.70011 0)
(17.4477 0.644394 0)
(19.6705 2.13305 0)
(21.7457 0.696505 0)
(23.4935 1.73407 0)
(25.8928 -0.544367 0)
(26.5861 1.35823 0)
(29.4156 -1.3001 0)
(29.7066 -0.130266 0)
(32.0928 -2.49434 0)
(33.1504 -1.63824 0)
(34.0958 -5.03517 0)
(34.6466 -4.63569 0)
(36.798 -8.3384 0)
(27.4628 -8.22583 0)
(35.9779 -16.7047 0)
(11.4716 3.093 0)
(11.8308 1.60072 0)
(15.7693 2.87764 0)
(17.6697 0.560124 0)
(19.9054 2.4252 0)
(21.7331 0.524334 0)
(23.8853 1.90542 0)
(25.7481 -0.444535 0)
(26.7329 1.5304 0)
(29.2688 -1.41778 0)
(30.0132 0.388826 0)
(31.8385 -3.20613 0)
(33.3057 -0.987915 0)
(34.8439 -5.43816 0)
(35.0067 -4.51828 0)
(36.0497 -9.3218 0)
(33.9676 -6.46142 0)
(24.8184 -13.7649 0)
(10.8802 3.34018 0)
(12.9992 1.81059 0)
(15.92 2.82416 0)
(17.6769 0.806299 0)
(19.7689 2.64008 0)
(21.5761 0.841465 0)
(23.5649 1.89798 0)
(25.1004 -0.0882373 0)
(26.6767 1.4522 0)
(28.3725 -1.22057 0)
(29.5303 0.178804 0)
(31.2917 -2.63183 0)
(31.9579 -1.44912 0)
(33.5752 -4.95918 0)
(32.8719 -3.8696 0)
(34.5069 -8.25681 0)
(32.0225 -4.81298 0)
(32.7104 -8.53555 0)
(10.5602 3.89776 0)
(13.6058 1.66431 0)
(15.6711 3.14387 0)
(17.6248 0.991924 0)
(19.1073 2.76565 0)
(21.4637 0.87644 0)
(23.0136 2.01467 0)
(24.7585 0.0327151 0)
(26.234 1.22285 0)
(27.9454 -0.882745 0)
(29.0611 -0.115203 0)
(30.522 -2.47938 0)
(31.3325 -1.72991 0)
(32.3244 -4.56354 0)
(32.2046 -4.10116 0)
(33.2387 -7.00076 0)
(31.9821 -4.90104 0)
(33.8267 -8.10941 0)
(10.7481 4.30519 0)
(13.336 2.01421 0)
(15.4774 3.2644 0)
(17.3496 1.61375 0)
(19.0525 2.84857 0)
(21.0297 1.26445 0)
(22.6315 2.16677 0)
(24.3537 0.348986 0)
(25.6498 1.25926 0)
(27.3408 -0.695613 0)
(28.4426 -0.195345 0)
(29.7611 -2.09137 0)
(30.5586 -1.8493 0)
(31.5037 -3.77797 0)
(31.817 -4.26653 0)
(32.1153 -5.66421 0)
(32.0617 -5.62892 0)
(32.3518 -6.52349 0)
(10.9811 4.62256 0)
(13.4948 2.22549 0)
(15.4038 3.41211 0)
(17.1514 1.97015 0)
(18.8527 2.88622 0)
(20.6221 1.57499 0)
(22.299 2.09019 0)
(24.0081 0.733383 0)
(25.2476 1.04691 0)
(26.8719 -0.241771 0)
(27.9369 -0.34296 0)
(29.0656 -1.65308 0)
(29.93 -1.97559 0)
(30.6979 -3.30388 0)
(31.1134 -3.92576 0)
(31.4095 -5.0244 0)
(31.6074 -5.49851 0)
(31.7747 -6.31448 0)
(10.9712 4.71303 0)
(13.2241 2.70784 0)
(15.1992 3.51603 0)
(17.1031 2.6608 0)
(18.8346 3.02251 0)
(20.5671 2.00554 0)
(22.1689 2.14056 0)
(23.6864 1.10712 0)
(24.9037 1.02208 0)
(26.246 0.0833836 0)
(27.287 -0.397012 0)
(28.2134 -1.25695 0)
(29.0047 -1.89553 0)
(29.6346 -2.79086 0)
(30.1335 -3.54676 0)
(30.4512 -4.33677 0)
(30.6748 -5.02862 0)
(30.7192 -5.75134 0)
(11.0931 4.96403 0)
(13.1225 3.17404 0)
(14.9371 3.48247 0)
(16.7801 2.95097 0)
(18.5337 2.97495 0)
(20.2108 2.34835 0)
(21.7567 2.16478 0)
(23.1975 1.48063 0)
(24.3935 1.12742 0)
(25.5357 0.470826 0)
(26.4957 -0.129633 0)
(27.3212 -0.8418 0)
(28.0253 -1.53591 0)
(28.5945 -2.30415 0)
(29.0442 -3.04263 0)
(29.3639 -3.79174 0)
(29.5998 -4.50579 0)
(29.6645 -5.19134 0)
(10.9205 5.10865 0)
(12.9204 3.49692 0)
(14.7938 3.52486 0)
(16.6014 3.31661 0)
(18.2773 3.09361 0)
(19.8542 2.66136 0)
(21.2898 2.29572 0)
(22.5894 1.8019 0)
(23.6968 1.33122 0)
(24.7256 0.777018 0)
(25.5954 0.151666 0)
(26.3942 -0.508278 0)
(27.0546 -1.20094 0)
(27.576 -1.89386 0)
(28.0104 -2.56843 0)
(28.32 -3.22753 0)
(28.49 -3.84273 0)
(28.4975 -4.42634 0)
(10.8454 5.15438 0)
(12.6491 3.67987 0)
(14.4088 3.52316 0)
(16.116 3.32366 0)
(17.713 3.07392 0)
(19.2162 2.76883 0)
(20.5813 2.43873 0)
(21.8641 2.02702 0)
(22.9892 1.5808 0)
(24.0199 1.05778 0)
(24.8979 0.478107 0)
(25.6417 -0.132764 0)
(26.212 -0.771264 0)
(26.668 -1.39093 0)
(27.0057 -1.98676 0)
(27.2547 -2.57345 0)
(27.4035 -3.10974 0)
(27.4087 -3.61268 0)
(10.9025 5.06478 0)
(12.6472 3.53382 0)
(14.327 3.39384 0)
(15.9267 3.27005 0)
(17.4012 3.07096 0)
(18.7725 2.7587 0)
(20.0091 2.37712 0)
(21.1597 1.92782 0)
(22.1791 1.48368 0)
(23.0988 1.02653 0)
(23.8714 0.57927 0)
(24.5469 0.112175 0)
(25.0977 -0.368988 0)
(25.5247 -0.871804 0)
(25.8562 -1.37841 0)
(26.1176 -1.9172 0)
(26.2796 -2.42051 0)
(26.3402 -2.89594 0)
(10.9784 4.85241 0)
(12.6527 3.29178 0)
(14.24 3.07093 0)
(15.7381 2.95573 0)
(17.1247 2.82891 0)
(18.4503 2.62032 0)
(19.6328 2.34682 0)
(20.7213 1.98557 0)
(21.6525 1.58672 0)
(22.4796 1.15608 0)
(23.2039 0.73163 0)
(23.8242 0.292376 0)
(24.3378 -0.151086 0)
(24.7558 -0.603676 0)
(25.0612 -1.04224 0)
(25.3053 -1.49472 0)
(25.4783 -1.92828 0)
(25.5291 -2.32935 0)
(11.1594 4.32414 0)
(12.778 3.0114 0)
(14.2719 2.86805 0)
(15.6936 2.77568 0)
(17.0003 2.63309 0)
(18.249 2.41175 0)
(19.3704 2.1175 0)
(20.4204 1.77676 0)
(21.3218 1.40567 0)
(22.1288 1.05355 0)
(22.8118 0.703281 0)
(23.3915 0.355891 0)
(23.8657 -0.00159083 0)
(24.264 -0.368452 0)
(24.5467 -0.749449 0)
(24.7537 -1.1153 0)
(24.8852 -1.50557 0)
(24.9425 -1.84788 0)
(11.0452 3.84849 0)
(12.5655 2.67291 0)
(14.0041 2.44099 0)
(15.4348 2.31216 0)
(16.7728 2.21161 0)
(18.0239 2.07209 0)
(19.1375 1.85277 0)
(20.1435 1.57551 0)
(21.014 1.27719 0)
(21.7922 0.964606 0)
(22.4721 0.642247 0)
(23.0512 0.335441 0)
(23.5281 0.0269718 0)
(23.9353 -0.288321 0)
(24.2298 -0.591595 0)
(24.4543 -0.899212 0)
(24.5856 -1.19816 0)
(24.6486 -1.48654 0)
(10.564 3.30279 0)
(12.3689 2.25721 0)
(13.9501 2.05535 0)
(15.423 1.91741 0)
(16.7498 1.83051 0)
(17.969 1.71121 0)
(19.0409 1.54047 0)
(20.0032 1.30269 0)
(20.8453 1.04721 0)
(21.5902 0.776288 0)
(22.2354 0.492153 0)
(22.7864 0.241346 0)
(23.2392 -0.0203795 0)
(23.6053 -0.262909 0)
(23.9022 -0.504137 0)
(24.1156 -0.756382 0)
(24.2562 -1.0042 0)
(24.3414 -1.24458 0)
(10.9199 2.73945 0)
(12.5826 1.72244 0)
(14.1088 1.53576 0)
(15.5079 1.44244 0)
(16.7486 1.40088 0)
(17.9075 1.34249 0)
(18.9624 1.23017 0)
(19.9339 1.05622 0)
(20.7974 0.846972 0)
(21.5304 0.617472 0)
(22.1723 0.386403 0)
(22.7223 0.162638 0)
(23.1644 -0.0431061 0)
(23.5476 -0.249159 0)
(23.8315 -0.455136 0)
(24.0365 -0.672687 0)
(24.17 -0.896132 0)
(24.2304 -1.08928 0)
(10.7039 2.17083 0)
(12.3924 1.27801 0)
(13.9613 1.16744 0)
(15.3727 1.11727 0)
(16.6183 1.07039 0)
(17.7986 0.999189 0)
(18.8983 0.889129 0)
(19.9288 0.762545 0)
(20.8253 0.590718 0)
(21.5852 0.406866 0)
(22.2216 0.20715 0)
(22.7528 0.0209506 0)
(23.1668 -0.144231 0)
(23.5002 -0.297082 0)
(23.7432 -0.441847 0)
(23.92 -0.581421 0)
(24.0547 -0.738101 0)
(24.1151 -0.90417 0)
(11.0972 1.7409 0)
(12.6444 0.859274 0)
(14.2169 0.700041 0)
(15.726 0.680018 0)
(17.0069 0.664434 0)
(18.1413 0.612973 0)
(19.1756 0.531034 0)
(20.1212 0.450523 0)
(20.9431 0.336071 0)
(21.6584 0.217654 0)
(22.2441 0.0909353 0)
(22.741 -0.0348379 0)
(23.1255 -0.156753 0)
(23.4284 -0.277681 0)
(23.6855 -0.395903 0)
(23.8741 -0.519887 0)
(24.0015 -0.659296 0)
(24.0901 -0.812703 0)
(11.1087 1.20161 0)
(12.966 0.47842 0)
(14.5783 0.33706 0)
(15.9927 0.354448 0)
(17.1885 0.390188 0)
(18.2747 0.384315 0)
(19.2642 0.32377 0)
(20.1607 0.259958 0)
(20.9429 0.164747 0)
(21.6193 0.0714074 0)
(22.1814 -0.0277454 0)
(22.6516 -0.116089 0)
(23.0113 -0.218187 0)
(23.2949 -0.310401 0)
(23.5196 -0.402537 0)
(23.6723 -0.504068 0)
(23.7735 -0.610078 0)
(23.8095 -0.703178 0)
(10.5691 0.550273 0)
(12.6168 0.0198997 0)
(14.4713 -0.0114146 0)
(15.9785 0.0443656 0)
(17.1905 0.092174 0)
(18.2085 0.0838118 0)
(19.0904 0.0492336 0)
(19.8492 0.0252476 0)
(20.5045 -0.0187471 0)
(21.038 -0.0653597 0)
(21.465 -0.115463 0)
(21.7956 -0.158931 0)
(22.0257 -0.220987 0)
(22.193 -0.281815 0)
(22.2966 -0.350595 0)
(22.3207 -0.417207 0)
(22.3073 -0.495233 0)
(22.2315 -0.568804 0)
(11.0691 0.118956 0)
(13.0736 -0.459356 0)
(14.5822 -0.380892 0)
(15.6993 -0.216794 0)
(16.5396 -0.0947675 0)
(17.2 -0.0324354 0)
(17.7289 -0.0176931 0)
(18.1826 -0.0122978 0)
(18.5681 -0.0228239 0)
(18.8627 -0.0414185 0)
(19.1059 -0.0621436 0)
(19.274 -0.095195 0)
(19.3811 -0.138134 0)
(19.4245 -0.180114 0)
(19.4008 -0.216304 0)
(19.3111 -0.251766 0)
(19.179 -0.299302 0)
(19.0203 -0.341569 0)
(11.0699 -0.339776 0)
(12.3758 -0.716391 0)
(12.9087 -0.527584 0)
(13.1624 -0.309936 0)
(13.4201 -0.101313 0)
(13.7315 0.0248108 0)
(14.0629 0.0759401 0)
(14.4041 0.0866252 0)
(14.737 0.0783939 0)
(15.0301 0.0580733 0)
(15.2929 0.0376831 0)
(15.5056 0.0133717 0)
(15.672 -0.00706854 0)
(15.7827 -0.0429817 0)
(15.8443 -0.05628 0)
(15.86 -0.0784126 0)
(15.837 -0.140847 0)
(15.7883 -0.171286 0)
(9.34067 -0.319855 0)
(8.43944 -0.302781 0)
(7.96007 -0.053669 0)
(8.06549 0.0622221 0)
(8.63179 0.111442 0)
(9.42307 0.108404 0)
(10.2549 0.0911946 0)
(11.0366 0.0737975 0)
(11.7428 0.0634206 0)
(12.3562 0.0507216 0)
(12.884 0.0409024 0)
(13.3268 0.0301349 0)
(13.6945 0.020345 0)
(13.9934 0.00607136 0)
(14.2112 0.00204648 0)
(14.3483 -0.0112092 0)
(14.4219 -0.0456894 0)
(14.3426 -0.0536395 0)
(-0.0979193 -0.455122 0)
(-0.232371 -0.477763 0)
(-0.383526 -0.458773 0)
(-0.546339 -0.465464 0)
(-0.698819 -0.478862 0)
(-0.850159 -0.484255 0)
(-1.00928 -0.485356 1.11893e-17)
(-1.16889 -0.477121 -1.11252e-17)
(-1.33788 -0.439819 0)
(-1.54697 -0.376818 -1.10048e-17)
(-1.80423 -0.285417 0)
(-2.11169 -0.203988 0)
(-2.4307 -0.186309 0)
(-2.72445 -0.207997 1.07831e-17)
(-3.03959 -0.184552 0)
(-3.48066 -0.19738 0)
(-4.02503 -0.286671 -1.06523e-17)
(-4.571 -0.377112 0)
(-5.11375 -0.478829 0)
(-5.7224 -0.416457 0)
(-6.49074 -0.19453 1.0562e-17)
(-7.48122 -0.066154 0)
(-8.59584 0.0333621 1.04846e-17)
(-9.80156 0.276645 0)
(-11.1547 0.585538 0)
(-12.643 0.803 1.03067e-17)
(-14.1269 0.877929 0)
(-15.5411 0.857334 -1.01495e-17)
(-16.8999 0.818596 0)
(-18.1728 0.769539 9.99629e-18)
(-19.3424 0.711226 0)
(-20.4138 0.645012 0)
(-21.4008 0.587165 0)
(-22.2982 0.537299 0)
(-23.1245 0.48617 0)
(-23.8868 0.449358 -9.57578e-18)
(-24.5292 0.429137 0)
(-25.095 0.409828 1.88816e-17)
(-25.6163 0.394645 0)
(-26.0729 0.376565 -1.86134e-17)
(-26.478 0.36867 0)
(-26.8224 0.380046 0)
(-27.1068 0.382462 1.82176e-17)
(-27.3455 0.394975 0)
(-27.5528 0.397816 1.79592e-17)
(-27.7444 0.442261 -1.78323e-17)
(-27.9289 0.486609 0)
(-28.047 0.530166 -1.75788e-17)
(-28.1255 0.546973 -1.74521e-17)
(-28.1717 0.566541 0)
(-28.1653 0.590042 0)
(-28.1118 0.611706 0)
(-28.0166 0.642582 0)
(-27.91 0.681724 0)
(-27.7325 0.728937 1.66809e-17)
(-27.4913 0.742136 0)
(-27.2395 0.798307 -1.64254e-17)
(-26.9909 0.84105 0)
(-26.7265 0.857256 0)
(-26.3944 0.867429 1.60699e-17)
(-25.9751 0.887941 0)
(-25.4958 0.939115 -1.58451e-17)
(-25.0189 1.00895 0)
(-24.5741 1.05619 0)
(-24.174 1.08233 0)
(-23.7095 1.11194 1.53957e-17)
(-23.1765 1.11259 0)
(-22.6044 1.12707 0)
(-21.934 1.17609 1.50815e-17)
(-21.2248 1.26541 0)
(-20.5274 1.35516 1.48554e-17)
(-19.8858 1.38801 0)
(-19.3132 1.4013 0)
(-18.8005 1.38913 0)
(-18.2283 1.39772 -1.44316e-17)
(-17.5917 1.39338 0)
(-16.9809 1.38405 0)
(-16.3726 1.40917 -1.40839e-17)
(-15.8031 1.49396 -1.39541e-17)
(-15.2784 1.66134 0)
(-14.8266 1.80727 -1.37166e-17)
(-14.5787 1.94512 0)
(-14.4325 2.05961 -2.70198e-17)
(-14.0657 1.95296 0)
(-13.1775 1.7297 -2.64577e-17)
(-11.9136 1.66237 0)
(-10.6495 1.6072 2.60066e-17)
(-9.31903 1.56558 0)
(-7.8954 1.55011 0)
(-6.42785 1.64085 0)
(-5.2617 1.94674 -2.50392e-17)
(-4.57043 2.2711 0)
(-3.80534 2.22496 2.46192e-17)
(-2.71024 1.66525 0)
(-1.57978 1.10168 -2.46766e-17)
(-0.964003 1.23464 -2.48572e-17)
(-1.54304 2.25704 -2.479e-17)
(-3.11317 3.1147 0)
(-4.7263 3.45922 0)
(-6.1229 3.15962 0)
(-7.02364 2.84094 0)
(-7.74588 2.78422 0)
(-8.3533 2.75967 0)
(-8.80903 2.77274 0)
(-9.31744 2.77703 0)
(-9.84605 2.79914 2.24731e-17)
(-10.1691 2.74285 2.24975e-17)
(-10.1346 2.56226 0)
(-9.56888 2.33625 0)
(-8.05682 1.94489 0)
(-5.66707 1.51206 2.22073e-17)
(-3.27142 1.60513 0)
(-1.19427 2.03788 0)
(-1.48838 2.51976 0)
(-0.313865 1.82563 0)
(1.57634 1.93534 -2.10999e-17)
(2.49761 2.09852 0)
(3.66372 2.18386 0)
(4.39182 2.29493 2.06613e-17)
(4.85712 2.3827 -2.0531e-17)
(5.12316 2.39193 0)
(5.48971 2.41 -2.02512e-17)
(5.79008 2.45255 0)
(5.98719 2.51382 1.99213e-17)
(6.00687 2.5811 0)
(5.63649 2.65019 0)
(5.00801 2.73351 0)
(4.39705 2.80129 0)
(3.57253 2.88683 0)
(2.50825 2.9009 -3.82771e-17)
(1.30985 2.86514 -3.80015e-17)
(-0.212205 2.88242 0)
(-1.84714 2.82886 0)
(-3.53523 2.80267 0)
(-5.12633 2.79202 3.6844e-17)
(-6.82025 2.7287 0)
(-8.36603 2.69339 0)
(-9.64387 2.71423 0)
(-10.6698 2.72475 3.52986e-17)
(-11.5401 2.70115 -3.4953e-17)
(-12.2222 2.60802 0)
(-12.6882 2.5359 0)
(-12.931 2.52651 -3.38808e-17)
(-12.9009 2.60594 -3.35326e-17)
(-12.6373 2.72623 0)
(-12.1933 2.68613 0)
(-11.6177 2.60433 3.26005e-17)
(-10.7757 2.54355 -3.2187e-17)
(-9.76614 2.48513 0)
(-8.2265 2.35856 0)
(-5.92547 2.30938 -3.10788e-17)
(-3.11976 2.23702 0)
(-0.417894 1.99154 0)
(1.69148 1.98552 -3.17484e-17)
(2.09902 2.7825 0)
(0.555582 3.35708 -3.14816e-17)
(-1.25353 3.30085 0)
(-2.33563 3.07261 0)
(-2.23073 2.66467 0)
(-1.34141 2.30213 3.04516e-17)
(-0.629674 2.4625 0)
(-0.134401 2.41203 0)
(1.22622 2.32632 0)
(1.94024 2.11366 0)
(6.68264 1.29338 0)
(10.0926 1.31786 0)
(14.2962 1.73641 2.99871e-17)
(16.2437 1.95667 2.96337e-17)
(17.3063 2.14773 0)
(17.7483 2.16289 0)
(17.6856 2.12458 0)
(17.5221 2.06054 -2.91532e-17)
(17.3983 2.07175 0)
(17.1795 1.97574 5.79059e-17)
(17.0401 1.91716 -5.77377e-17)
(16.7572 1.89543 -5.76342e-17)
(16.5603 1.84254 5.73287e-17)
(16.2458 1.78872 -5.70877e-17)
(15.6869 1.85898 5.66371e-17)
(15.0612 1.77709 0)
(-0.124773 -1.30472 0)
(-0.31528 -1.40816 0)
(-0.535111 -1.35229 -2.28605e-17)
(-0.784987 -1.35821 0)
(-1.03398 -1.36866 2.2584e-17)
(-1.25735 -1.34676 2.2415e-17)
(-1.43433 -1.34463 1.113e-17)
(-1.56527 -1.35576 1.10524e-17)
(-1.67842 -1.29905 0)
(-1.83163 -1.21317 1.0966e-17)
(-2.04702 -1.08725 0)
(-2.44224 -1.04974 0)
(-2.94188 -1.15259 -2.15793e-17)
(-3.49394 -1.13724 -1.07298e-17)
(-4.05764 -0.744329 2.14506e-17)
(-4.69047 -0.287171 2.14752e-17)
(-5.5563 -0.131557 1.07105e-17)
(-6.58452 -0.0195248 0)
(-7.81738 0.288419 0)
(-9.17641 0.736625 0)
(-10.5899 1.22411 1.0583e-17)
(-12.0867 1.60215 0)
(-13.578 1.90352 -3.13732e-17)
(-14.9967 2.11014 0)
(-16.3119 2.20255 0)
(-17.5417 2.20671 -1.02591e-17)
(-18.6967 2.12082 0)
(-19.7911 1.96007 1.01229e-17)
(-20.8181 1.78114 2.01015e-17)
(-21.7793 1.60647 -9.97797e-18)
(-22.6668 1.43944 0)
(-23.4902 1.27596 0)
(-24.254 1.13659 0)
(-24.9632 1.00452 1.94063e-17)
(-25.6108 0.901285 1.92695e-17)
(-26.1981 0.836041 9.57135e-18)
(-26.7024 0.776892 0)
(-27.1548 0.716732 -1.88807e-17)
(-27.5793 0.690591 0)
(-27.9384 0.665869 1.86234e-17)
(-28.2296 0.655546 0)
(-28.4981 0.69583 0)
(-28.724 0.74094 -1.82573e-17)
(-28.9095 0.815484 0)
(-29.0236 0.892619 -5.40705e-17)
(-29.1172 1.01356 1.7914e-17)
(-29.2473 1.12679 0)
(-29.3276 1.20586 1.76857e-17)
(-29.3737 1.26393 1.75679e-17)
(-29.342 1.32083 0)
(-29.2587 1.38218 0)
(-29.1113 1.44515 0)
(-28.8888 1.53395 0)
(-28.6656 1.61321 0)
(-28.4266 1.71468 -1.67716e-17)
(-28.0617 1.79758 -3.3232e-17)
(-27.6321 1.93951 1.64642e-17)
(-27.2548 2.15102 0)
(-26.8653 2.23652 -3.24045e-17)
(-26.4147 2.24132 1.61059e-17)
(-25.8752 2.2146 0)
(-25.2381 2.28319 1.58979e-17)
(-24.6052 2.46547 0)
(-23.9914 2.68868 0)
(-23.3641 2.88225 3.0896e-17)
(-22.7286 3.0453 -1.53452e-17)
(-22.0809 3.11154 3.05147e-17)
(-21.4427 3.08782 -3.03987e-17)
(-20.7109 3.04804 -1.513e-17)
(-19.8662 3.1258 0)
(-18.9328 3.35117 -1.4854e-17)
(-17.9694 3.60637 0)
(-17.0891 3.85979 0)
(-16.4264 4.08185 0)
(-15.7556 4.26726 -1.43945e-17)
(-14.9387 4.42704 0)
(-14.1184 4.61062 -2.82918e-17)
(-13.4858 4.79858 4.20584e-17)
(-13.1927 4.9542 1.39055e-17)
(-13.2256 5.16906 0)
(-13.0818 5.36794 1.35356e-17)
(-12.8518 5.52696 0)
(-12.7322 5.67626 2.65468e-17)
(-12.4346 5.20973 0)
(-11.5902 4.36986 2.61574e-17)
(-10.1272 4.33333 -5.1427e-17)
(-8.62938 4.63508 -2.54625e-17)
(-7.07925 4.64928 0)
(-5.47031 4.54512 0)
(-3.94269 4.88808 0)
(-2.85644 5.56601 2.46173e-17)
(-1.75541 5.67876 0)
(-0.743364 5.17484 -2.34603e-17)
(-1.20056 5.49794 0)
(-3.33451 7.07877 7.31314e-17)
(-5.87163 8.49867 2.43163e-17)
(-8.16003 9.32876 2.41297e-17)
(-10.0094 9.3835 0)
(-10.8721 8.91984 0)
(-11.5874 8.50105 0)
(-11.9372 8.22821 0)
(-11.9739 7.94897 0)
(-11.8619 7.7571 4.60551e-17)
(-11.7045 7.69479 4.55169e-17)
(-11.68 7.75985 0)
(-11.5607 7.56066 -2.26291e-17)
(-11.4477 7.2046 -2.27977e-17)
(-11.0176 6.57077 0)
(-10.0354 5.67208 -4.59325e-17)
(-8.25236 4.57491 0)
(-5.93774 3.85094 2.28726e-17)
(-4.31542 4.62727 0)
(-2.75592 6.00748 0)
(-2.05436 6.80573 -4.26539e-17)
(0.675086 4.96377 0)
(1.43559 5.59563 2.1413e-17)
(3.08341 5.7356 0)
(4.35335 6.04332 0)
(5.34779 6.38186 2.08093e-17)
(6.01688 6.65055 2.06424e-17)
(6.34902 6.60211 0)
(6.85401 6.4986 -2.03996e-17)
(7.38833 6.52316 0)
(8.00035 6.57652 1.99402e-17)
(8.53205 6.77012 3.93543e-17)
(8.61419 6.9474 0)
(8.33311 7.06444 0)
(8.17496 7.19379 0)
(7.94198 7.33795 0)
(7.48154 7.59932 3.73407e-17)
(7.08242 7.67079 1.10783e-16)
(6.16453 7.81119 0)
(4.83809 7.87424 0)
(3.37754 7.8007 0)
(1.82112 7.77367 -3.51629e-17)
(0.0283227 7.79135 0)
(-1.70073 7.70216 0)
(-3.27023 7.56937 6.80763e-17)
(-4.73335 7.38898 3.35527e-17)
(-6.05912 7.28855 3.29637e-17)
(-7.09486 7.33882 0)
(-7.81404 7.37058 0)
(-8.23407 7.31939 3.19978e-17)
(-8.33824 7.24811 -3.16995e-17)
(-8.34417 7.2693 0)
(-8.06646 7.23856 0)
(-7.65512 7.20252 -3.04815e-17)
(-7.15179 7.09084 9.03987e-17)
(-6.3914 6.77789 0)
(-4.75743 6.19599 0)
(-2.3212 5.72772 2.82166e-17)
(0.224202 5.59831 0)
(1.47491 6.34598 5.90321e-17)
(-0.0708118 7.75248 -3.05735e-17)
(-3.12631 8.85275 0)
(-5.12279 9.23739 2.96298e-17)
(-6.16235 8.60744 5.87536e-17)
(-6.0636 7.78479 0)
(-5.17213 7.24324 0)
(-4.10157 6.72643 -2.93771e-17)
(-3.16209 6.83601 0)
(-1.73151 6.34366 6.00959e-17)
(0.494658 5.815 0)
(1.68944 4.49581 0)
(9.00658 2.99905 0)
(10.467 3.4233 0)
(15.8329 3.7624 -3.10886e-17)
(17.9635 4.65549 -3.00913e-17)
(19.9208 5.26406 0)
(20.8593 5.65364 0)
(20.9774 5.74617 0)
(20.7425 5.72605 2.75261e-17)
(20.4607 5.74927 0)
(20.0262 5.72177 -5.42772e-17)
(19.7109 5.59056 5.41686e-17)
(18.8276 5.64744 5.43959e-17)
(18.2068 5.47207 5.41366e-17)
(17.3294 5.33892 5.39889e-17)
(16.5161 5.28506 5.31552e-17)
(15.8886 5.1677 0)
(-0.142573 -1.97631 0)
(-0.40956 -2.06242 0)
(-0.742095 -1.93525 2.31367e-17)
(-1.08702 -1.90781 2.29231e-17)
(-1.41986 -1.99762 -2.27399e-17)
(-1.75629 -2.15996 -2.25632e-17)
(-2.01122 -2.40338 1.19682e-20)
(-2.28554 -2.52062 0)
(-2.62963 -2.40993 0)
(-3.10962 -2.07688 0)
(-3.53858 -1.39655 0)
(-4.0666 -0.816346 0)
(-4.80016 -0.607164 6.62373e-17)
(-5.64718 -0.602584 0)
(-6.56423 -0.342448 -2.17591e-17)
(-7.53428 0.218276 -2.16956e-17)
(-8.74116 0.817687 0)
(-9.97073 1.41702 0)
(-11.3297 1.89046 0)
(-12.6521 2.25848 0)
(-13.8862 2.58917 -2.12742e-17)
(-15.0647 2.8427 0)
(-16.1475 2.96045 2.10068e-17)
(-17.1786 3.00929 0)
(-18.0939 2.99286 0)
(-18.9617 2.88345 0)
(-19.7737 2.70945 4.06833e-17)
(-20.5448 2.52728 0)
(-21.3097 2.33667 -1.99928e-17)
(-22.0447 2.14057 3.96811e-17)
(-22.7386 1.93249 0)
(-23.3949 1.74816 0)
(-24.0227 1.59242 0)
(-24.6007 1.44196 -1.92664e-17)
(-25.1341 1.31453 -1.91324e-17)
(-25.6469 1.2266 0)
(-26.1014 1.17792 0)
(-26.5077 1.12702 3.75125e-17)
(-26.9217 1.10087 3.72697e-17)
(-27.3208 1.08355 -3.7016e-17)
(-27.6406 1.09574 0)
(-27.9374 1.16688 0)
(-28.2574 1.25873 0)
(-28.51 1.37284 0)
(-28.6808 1.53851 3.59418e-17)
(-28.7997 1.72952 3.57485e-17)
(-28.95 1.92999 -3.56021e-17)
(-29.0707 2.0665 0)
(-29.1709 2.20911 0)
(-29.1965 2.32764 0)
(-29.2033 2.36502 0)
(-29.161 2.45462 3.46648e-17)
(-29.0222 2.55659 0)
(-28.8794 2.70149 0)
(-28.719 2.84743 3.39292e-17)
(-28.494 2.98912 3.36451e-17)
(-28.1425 3.24502 0)
(-27.7048 3.54256 -6.61657e-17)
(-27.2894 3.6522 3.29519e-17)
(-26.8554 3.60809 -3.28186e-17)
(-26.3541 3.55677 0)
(-25.7502 3.69159 0)
(-25.1063 4.03356 0)
(-24.5088 4.38788 0)
(-23.841 4.66483 -3.13077e-17)
(-23.0758 4.87446 -6.22346e-17)
(-22.2767 5.04046 -3.10321e-17)
(-21.6007 5.04909 3.0959e-17)
(-20.9879 4.96772 0)
(-20.2773 4.99944 -6.08344e-17)
(-19.4227 5.25953 -5.99856e-17)
(-18.5682 5.75395 -5.9237e-17)
(-17.6387 6.17328 5.86913e-17)
(-16.7334 6.48747 0)
(-15.8489 6.48312 8.68283e-17)
(-14.7166 6.50312 0)
(-13.4917 6.90014 -2.83105e-17)
(-12.4666 7.64634 -2.82184e-17)
(-11.378 8.51867 0)
(-10.7487 9.32588 0)
(-10.348 9.452 -5.4411e-17)
(-9.91035 9.34008 0)
(-10.016 9.77569 -5.34773e-17)
(-10.0805 9.39421 0)
(-9.89195 7.75337 5.4183e-17)
(-9.35803 7.0858 1.06556e-16)
(-8.18131 7.06776 0)
(-6.59502 6.97254 0)
(-4.87992 7.04521 0)
(-3.54283 7.63403 4.89362e-17)
(-2.44181 8.36704 0)
(-2.19588 9.50701 4.73666e-17)
(-3.83694 11.4753 0)
(-6.38897 13.1224 0)
(-8.50355 14.089 -9.58586e-17)
(-10.3067 15.003 0)
(-11.7377 15.2759 -4.81401e-17)
(-12.5835 14.8989 0)
(-12.7838 14.1064 -4.78831e-17)
(-12.7958 13.3281 0)
(-12.5921 12.7084 0)
(-12.4727 12.2946 0)
(-12.0732 11.9962 -1.40437e-16)
(-11.6462 12.1628 -4.65801e-17)
(-11.0933 12.2762 0)
(-10.2306 12.1667 0)
(-9.58588 11.8743 0)
(-8.70051 11.0047 0)
(-7.82748 9.81688 4.576e-17)
(-6.60114 8.41529 -9.17671e-17)
(-5.12639 7.69808 -4.60958e-17)
(-4.44038 8.77931 9.11328e-17)
(-3.13802 9.68044 8.97521e-17)
(-1.15567 9.86048 4.42122e-17)
(1.48383 8.2568 0)
(1.50572 9.70791 8.75479e-17)
(3.53323 9.24424 0)
(4.72862 10.0115 -8.55108e-17)
(5.75495 10.5468 -4.21038e-17)
(6.58074 11.0808 0)
(7.02203 11.1062 8.27489e-17)
(7.43818 10.9097 4.10672e-17)
(7.76215 10.8946 0)
(8.19689 10.9458 4.06422e-17)
(8.77067 11.2364 -1.20421e-16)
(8.88887 11.7493 0)
(8.47056 11.8893 0)
(8.22953 11.8925 0)
(8.09901 12.0318 0)
(7.72371 12.3387 -7.65148e-17)
(7.64416 12.6583 -7.53181e-17)
(7.49667 12.8436 0)
(6.63689 13.2058 0)
(5.5023 13.2383 0)
(4.24699 13.2477 0)
(2.71332 13.1552 0)
(1.24079 13.1928 0)
(-0.012876 13.2517 -6.77469e-17)
(-1.15885 13.2633 1.69223e-19)
(-2.48704 13.1151 0)
(-3.88623 12.6936 0)
(-4.87096 12.2018 -6.35425e-17)
(-5.36721 11.9854 0)
(-5.34216 12.099 6.15255e-17)
(-5.34229 12.3495 6.08895e-17)
(-5.43093 12.2326 0)
(-5.40004 12.0729 0)
(-5.30637 11.9858 -5.8482e-17)
(-4.72066 11.3001 -1.14132e-16)
(-3.14641 10.4255 0)
(-1.24174 9.92674 0)
(-0.223206 10.6304 0)
(-0.864995 12.763 -5.87665e-17)
(-3.28345 14.9421 6.0216e-17)
(-5.94479 15.6673 0)
(-6.59326 14.8473 1.15767e-16)
(-6.82256 13.7663 5.84209e-17)
(-5.8672 12.7495 -1.18205e-16)
(-4.93122 11.7094 0)
(-2.83295 10.5098 0)
(-0.615066 10.6346 -1.15335e-16)
(1.05441 10.0447 -5.95397e-17)
(4.02005 9.40308 0)
(4.82958 7.0962 0)
(10.5274 5.04515 0)
(12.7671 6.06862 0)
(16.5999 6.51778 -1.28758e-16)
(18.0936 7.94889 0)
(20.7738 8.77141 0)
(22.3821 9.60657 0)
(22.9461 9.81336 0)
(22.9307 9.82981 0)
(22.8943 9.69563 0)
(22.5759 9.66692 -1.08771e-16)
(22.5354 9.33426 0)
(21.4014 9.48129 0)
(20.7172 9.15809 -2.08867e-16)
(19.5334 8.99606 1.04493e-16)
(18.7132 8.83149 -1.02933e-16)
(17.8955 8.57274 1.03447e-16)
(-0.151229 -2.59108 0)
(-0.376278 -2.58945 -4.74013e-17)
(-0.663964 -2.40363 0)
(-0.931305 -2.41941 -2.30506e-17)
(-1.19995 -2.42631 0)
(-1.54638 -2.52513 0)
(-2.02387 -2.73908 2.23861e-17)
(-2.72688 -2.54651 0)
(-3.32498 -2.09282 0)
(-3.95938 -2.00953 0)
(-4.60816 -1.64882 0)
(-5.21912 -1.11977 0)
(-6.04148 -0.739076 -8.83814e-17)
(-6.96538 -0.00136033 -4.40846e-17)
(-8.14501 0.758239 4.39308e-17)
(-9.28006 1.42774 0)
(-10.5362 1.9141 0)
(-11.705 2.42055 0)
(-12.8109 2.88447 0)
(-13.8412 3.18655 0)
(-14.7916 3.30482 -4.2579e-17)
(-15.6393 3.34116 -4.21627e-17)
(-16.3968 3.34832 4.17454e-17)
(-17.1287 3.2685 -4.12691e-17)
(-17.8042 3.13493 0)
(-18.5082 2.97474 0)
(-19.2116 2.82169 -3.99816e-17)
(-19.9321 2.67331 0)
(-20.646 2.47466 0)
(-21.3084 2.28229 -3.91211e-17)
(-21.9602 2.11253 -3.89218e-17)
(-22.5792 1.91823 -3.8666e-17)
(-23.1356 1.72909 0)
(-23.6471 1.56572 0)
(-24.1277 1.45139 3.79109e-17)
(-24.588 1.35831 0)
(-24.9671 1.2976 0)
(-25.3127 1.29882 -3.71035e-17)
(-25.6556 1.34801 3.68399e-17)
(-26.0011 1.41913 -3.66144e-17)
(-26.2782 1.47837 0)
(-26.5386 1.57621 0)
(-26.8676 1.74328 -7.17176e-17)
(-27.124 1.87886 0)
(-27.3274 2.0426 -7.07034e-17)
(-27.5408 2.262 -1.05358e-16)
(-27.7104 2.47085 1.04747e-16)
(-27.8004 2.66748 -6.93923e-17)
(-27.8567 2.92279 0)
(-27.8035 3.14046 0)
(-27.7724 3.26501 -6.84206e-17)
(-27.7352 3.42309 -3.40639e-17)
(-27.6524 3.54542 0)
(-27.5769 3.79037 0)
(-27.5487 3.98748 -3.35702e-17)
(-27.3184 4.15394 -6.6731e-17)
(-27.1016 4.44786 0)
(-26.8024 4.71248 6.6181e-17)
(-26.347 4.88526 -6.5778e-17)
(-25.9299 4.96727 6.54292e-17)
(-25.4967 4.94575 0)
(-25.0391 5.1251 0)
(-24.465 5.56687 0)
(-23.9806 5.97554 0)
(-23.4021 6.21044 0)
(-22.6019 6.36808 6.31038e-17)
(-21.7068 6.66046 0)
(-20.9277 6.99422 0)
(-20.409 7.20515 0)
(-20.0005 7.28827 1.22891e-16)
(-19.3611 7.48357 6.0756e-17)
(-18.6829 7.79803 5.99035e-17)
(-17.8212 8.18675 -1.18107e-16)
(-16.6563 8.59446 5.82535e-17)
(-15.6389 8.75065 -5.82027e-17)
(-14.7558 8.90972 0)
(-13.5819 9.30078 5.70756e-17)
(-12.6154 9.79274 0)
(-11.3902 10.4153 0)
(-10.1058 11.6482 0)
(-9.02042 12.6853 1.1087e-16)
(-7.79442 13.0008 -5.468e-17)
(-7.45977 13.5824 -5.37631e-17)
(-6.68423 13.3543 -1.06263e-16)
(-6.1373 11.8255 -1.58226e-16)
(-6.63117 11.1195 -5.32532e-17)
(-6.50304 10.5746 0)
(-5.64226 9.92119 -1.01714e-16)
(-4.76489 10.082 0)
(-4.70909 11.3312 -1.45676e-16)
(-5.13138 13.5262 0)
(-6.36965 15.7126 -1.4322e-16)
(-7.99494 17.7574 0)
(-9.52115 19.198 0)
(-10.8886 20.3227 -4.79385e-17)
(-11.846 20.9434 0)
(-12.1948 20.669 4.87712e-17)
(-12.1535 19.5924 9.67687e-17)
(-11.8933 18.4301 4.78893e-17)
(-11.8172 17.7087 9.59176e-17)
(-11.9286 17.2109 -9.58542e-17)
(-12.0149 16.6449 -9.51399e-17)
(-11.5386 16.1481 1.88908e-16)
(-11.1103 16.1221 0)
(-10.2784 15.8168 0)
(-9.33227 15.6326 9.34308e-17)
(-8.52307 15.3905 -9.26873e-17)
(-7.51061 14.643 0)
(-6.56722 13.5354 0)
(-5.51275 12.0811 9.15946e-17)
(-4.10698 11.3347 0)
(-3.12667 12.3362 -4.61995e-20)
(-1.53067 12.6614 -3.27194e-20)
(0.56061 12.894 9.12821e-17)
(1.57459 12.2102 0)
(2.3018 13.4154 -8.88645e-17)
(3.90844 12.5989 0)
(5.21616 13.7488 8.71689e-17)
(6.18694 14.2714 0)
(7.23311 14.8894 0)
(7.89612 15.0325 -8.29509e-17)
(8.62438 14.9308 -8.20813e-17)
(9.08269 14.8345 0)
(8.94882 14.7722 -8.07687e-17)
(9.44179 15.1817 1.60295e-16)
(9.65343 16.0136 0)
(9.06363 16.2597 0)
(8.60005 16.2464 0)
(8.38737 16.2756 0)
(7.5188 16.3162 7.74381e-17)
(6.90666 16.6297 -1.52941e-16)
(7.2043 17.1777 0)
(6.97191 17.6617 0)
(5.72676 17.8231 0)
(4.64625 18.1768 0)
(3.586 18.4013 0)
(2.32721 18.2166 0)
(0.981841 17.8606 0)
(-0.26188 17.6349 6.74153e-17)
(-1.11571 17.8287 0)
(-1.96534 18.1825 0)
(-2.91663 17.9275 6.46089e-17)
(-3.83719 17.2704 0)
(-4.15866 16.9541 0)
(-3.88721 17.1916 -6.08848e-17)
(-3.67657 17.3416 0)
(-3.8328 17.2777 0)
(-3.92591 17.0528 1.16152e-16)
(-3.5945 16.0638 1.12167e-16)
(-2.41757 14.9506 1.10591e-16)
(-1.57005 14.9602 0)
(-1.72214 16.3661 1.15585e-16)
(-3.47216 19.1282 0)
(-5.18598 20.7734 -1.1698e-16)
(-6.15469 20.4075 0)
(-6.72195 19.8297 -1.13979e-16)