/*--------------------------------*- C++ -*----------------------------------*\
| =========                 |                                                 |
| \\      /  F ield         | OpenFOAM: The Open Source CFD Toolbox           |
|  \\    /   O peration     | Version:  dev                                   |
|   \\  /    A nd           | Web:      http://www.openfoam.org               |
|    \\/     M anipulation  |                                                 |
\*---------------------------------------------------------------------------*/
FoamFile
{
    version     2.0;
    format      ascii;
    class       volVectorField;
    object      U_0;
    location    "9.132";
}
// * * * * * * * * * * * * * * * * * * * * * * * * * * * * * * * * * * * * * //

dimensions      [0 1 -1 0 0 0 0];

internalField   nonuniform List<vector> 
12225
(
(7.69451 0.410355 0)
(7.06457 0.136062 0)
(6.99658 -0.03799 0)
(9.37567 -0.0981156 0)
(9.62536 -0.0371005 0)
(13.011 -0.151646 0)
(13.0781 -0.0268064 0)
(16.4483 -0.19646 0)
(16.637 -0.0393281 0)
(20.1261 -0.258085 0)
(20.3314 -0.0915587 0)
(24.2278 -0.394672 0)
(24.8762 -0.0449802 0)
(28.4638 -0.772808 0)
(34.1686 0.180248 0)
(33.3987 0.0399703 0)
(48.5909 -7.01804 0)
(49.6192 6.6497 0)
(10.3871 0.983825 0)
(12.2132 0.770199 0)
(10.7183 0.338655 0)
(14.1504 0.0928577 0)
(11.0623 -0.00903372 0)
(17.2761 -0.265626 0)
(13.373 -0.0154775 0)
(20.7622 -0.467202 0)
(16.7775 -0.131687 0)
(24.6873 -0.70028 0)
(20.6223 -0.400945 0)
(29.5155 -1.14936 0)
(25.3273 -0.463734 0)
(36.0964 -3.34979 0)
(33.1713 0.359795 0)
(50.9543 -5.88408 0)
(41.621 -10.8593 0)
(73.9256 -13.9757 0)
(10.0208 0.765157 0)
(15.2167 0.846892 0)
(12.1648 0.485961 0)
(18.8003 0.427438 0)
(12.5572 0.116721 0)
(22.1495 -0.123207 0)
(14.2263 -0.0586932 0)
(26.027 -0.761061 0)
(18.0824 -0.22842 0)
(29.6955 -1.22359 0)
(22.8879 -0.592213 0)
(33.2733 -1.92716 0)
(28.8674 -0.985906 0)
(37.2767 -3.95332 0)
(36.8884 -2.87249 0)
(50.8394 -6.5977 0)
(42.571 -12.5636 0)
(53.6981 -20.043 0)
(7.43762 0.664528 0)
(17.4906 0.941586 0)
(10.998 0.453461 0)
(21.7567 0.632002 0)
(13.5686 0.172918 0)
(25.2142 -0.206708 0)
(16.8477 -0.00837161 0)
(28.385 -1.24461 0)
(20.9277 -0.180548 0)
(31.1341 -2.1518 0)
(25.5888 -0.573989 0)
(34.485 -3.23398 0)
(30.9779 -1.23375 0)
(38.9036 -5.45025 0)
(37.7834 -4.13676 0)
(45.5897 -9.91304 0)
(41.8915 -15.519 0)
(47.5881 -15.9741 0)
(5.95388 0.63656 0)
(18.1033 0.507292 0)
(11.9467 0.474307 0)
(21.9889 0.353727 0)
(16.8069 0.485371 0)
(24.9589 -0.496628 0)
(19.8275 0.101494 0)
(27.649 -1.63841 0)
(23.1305 -0.0354578 0)
(30.2063 -2.62155 0)
(25.9167 -0.569548 0)
(34.4228 -3.84523 0)
(29.3945 -1.71987 0)
(39.046 -6.13322 0)
(35.0827 -4.73681 0)
(41.8002 -11.514 0)
(39.3018 -12.3279 0)
(35.2883 -9.99212 0)
(8.29022 0.897766 0)
(15.6778 -0.1405 0)
(12.8225 0.520376 0)
(18.8051 -0.260713 0)
(17.4458 0.541797 0)
(22.9201 -0.640841 0)
(20.3281 0.229752 0)
(25.9099 -1.79789 0)
(23.3049 -0.0791039 0)
(28.7923 -2.60615 0)
(25.3274 -1.24078 0)
(32.49 -3.9887 0)
(26.8053 -2.79084 0)
(36.2904 -6.89085 0)
(30.4337 -5.53253 0)
(38.1019 -13.1303 0)
(32.2943 -11.175 0)
(35.1268 -5.0144 0)
(10.274 0.814497 0)
(13.1582 -0.363034 0)
(13.1059 0.913174 0)
(16.5948 -0.698285 0)
(17.6108 0.493666 0)
(20.8547 -0.871103 0)
(20.5952 0.227075 0)
(24.4822 -1.99563 0)
(23.5417 -0.118 0)
(27.2661 -2.80821 0)
(25.7817 -1.42047 0)
(30.1435 -3.96691 0)
(27.3588 -2.98847 0)
(32.6447 -7.04736 0)
(27.5019 -6.45567 0)
(36.7718 -14.7616 0)
(21.0364 -12.0313 0)
(45.6046 -7.73795 0)
(11.7839 0.897022 0)
(11.8828 -0.254619 0)
(14.2221 0.942573 0)
(16.3444 -1.0659 0)
(18.2941 0.462221 0)
(20.1227 -0.969559 0)
(21.6828 -0.00763303 0)
(23.8239 -2.15262 0)
(24.3969 -0.290775 0)
(27.0305 -2.96797 0)
(27.1186 -1.77357 0)
(29.5274 -4.0719 0)
(30.1226 -3.40355 0)
(31.0565 -6.71097 0)
(31.3649 -6.27203 0)
(32.7479 -10.367 0)
(22.7091 -9.88379 0)
(34.9019 -12.8216 0)
(11.3268 1.20142 0)
(11.3065 -0.387103 0)
(15.0024 0.876393 0)
(16.5471 -1.38061 0)
(18.526 0.516226 0)
(20.1263 -1.37423 0)
(22.081 -0.0340739 0)
(23.6795 -2.27888 0)
(24.5674 -0.344655 0)
(26.9515 -3.24984 0)
(27.4688 -1.51753 0)
(29.3075 -4.95131 0)
(30.6303 -2.874 0)
(31.8725 -7.35077 0)
(31.9713 -6.42517 0)
(32.6919 -10.8275 0)
(28.3721 -7.83991 0)
(21.7903 -12.5262 0)
(10.7463 1.23457 0)
(12.4904 -0.449667 0)
(15.1166 0.559457 0)
(16.5519 -1.38554 0)
(18.3949 0.477671 0)
(19.9651 -1.32905 0)
(21.7392 -0.274272 0)
(23.0769 -2.17345 0)
(24.5009 -0.671432 0)
(26.0449 -3.30997 0)
(27.0678 -1.88773 0)
(28.6964 -4.67395 0)
(29.2874 -3.4837 0)
(30.7019 -6.9541 0)
(29.9454 -5.82615 0)
(31.3619 -9.8368 0)
(28.6093 -6.12644 0)
(29.5937 -10.3778 0)
(10.4143 1.52114 0)
(13.1102 -0.895406 0)
(14.8509 0.595482 0)
(16.4888 -1.50836 0)
(17.7466 0.307838 0)
(19.8726 -1.57742 0)
(21.1875 -0.428711 0)
(22.7562 -2.35096 0)
(24.0795 -1.1444 0)
(25.6247 -3.23843 0)
(26.5991 -2.45151 0)
(27.9518 -4.74655 0)
(28.6235 -3.97923 0)
(29.4954 -6.80444 0)
(29.2989 -6.16733 0)
(30.2933 -8.80214 0)
(29.1789 -6.46063 0)
(31.209 -9.65088 0)
(10.6192 1.57947 0)
(12.8301 -0.880755 0)
(14.6671 0.411229 0)
(16.2401 -1.21073 0)
(17.6941 0.0588548 0)
(19.4406 -1.50027 0)
(20.8264 -0.578979 0)
(22.3569 -2.34752 0)
(23.5053 -1.40528 0)
(25.0491 -3.3451 0)
(26.0053 -2.77897 0)
(27.2182 -4.64276 0)
(27.9056 -4.31394 0)
(28.7669 -6.2941 0)
(28.959 -6.57187 0)
(29.3108 -7.84627 0)
(29.2974 -7.53855 0)
(29.8533 -8.72558 0)
(10.8454 1.56054 0)
(12.987 -1.02332 0)
(14.5916 0.219091 0)
(16.0464 -1.20062 0)
(17.5005 -0.241434 0)
(19.0479 -1.52824 0)
(20.5246 -0.969957 0)
(22.0364 -2.29374 0)
(23.1262 -1.91497 0)
(24.6132 -3.19219 0)
(25.5309 -3.21863 0)
(26.5721 -4.49541 0)
(27.341 -4.72597 0)
(28.0359 -6.03775 0)
(28.3779 -6.53659 0)
(28.6963 -7.54751 0)
(28.9513 -7.89524 0)
(29.1987 -8.75648 0)
(10.8514 1.27462 0)
(12.7176 -0.898144 0)
(14.4193 -0.014361 0)
(16.0407 -0.852653 0)
(17.5164 -0.451698 0)
(19.0222 -1.43845 0)
(20.418 -1.25111 0)
(21.7461 -2.24859 0)
(22.8072 -2.26272 0)
(24.0212 -3.17717 0)
(24.9284 -3.57246 0)
(25.7665 -4.38761 0)
(26.4784 -4.94353 0)
(27.0554 -5.79465 0)
(27.5108 -6.45306 0)
(27.8288 -7.17917 0)
(28.0719 -7.79676 0)
(28.1569 -8.51247 0)
(10.9674 1.1862 0)
(12.6249 -0.780958 0)
(14.1745 -0.382022 0)
(15.7527 -0.887084 0)
(17.2568 -0.816365 0)
(18.7096 -1.40678 0)
(20.0545 -1.53299 0)
(21.3133 -2.17256 0)
(22.3501 -2.45437 0)
(23.3619 -3.06727 0)
(24.2027 -3.59718 0)
(24.9389 -4.25082 0)
(25.5716 -4.87399 0)
(26.0892 -5.58099 0)
(26.505 -6.24851 0)
(26.8193 -6.93673 0)
(27.0571 -7.59202 0)
(27.1244 -8.22977 0)
(10.8147 1.08428 0)
(12.4638 -0.730839 0)
(14.0719 -0.608381 0)
(15.6188 -0.787869 0)
(17.0501 -0.967962 0)
(18.4066 -1.35338 0)
(19.6451 -1.65699 0)
(20.7687 -2.09356 0)
(21.7252 -2.49703 0)
(22.6266 -2.99358 0)
(23.3882 -3.55366 0)
(24.1026 -4.1486 0)
(24.691 -4.77203 0)
(25.1614 -5.3966 0)
(25.5615 -6.00428 0)
(25.8495 -6.60057 0)
(26.0018 -7.15923 0)
(26.002 -7.693 0)
(10.7442 1.00785 0)
(12.2033 -0.692785 0)
(13.7168 -0.76907 0)
(15.1789 -0.932082 0)
(16.5466 -1.13263 0)
(17.8419 -1.381 0)
(19.0249 -1.64833 0)
(20.1475 -1.99685 0)
(21.1322 -2.37769 0)
(22.0414 -2.8386 0)
(22.8114 -3.35275 0)
(23.4629 -3.89841 0)
(23.9582 -4.46865 0)
(24.358 -5.0184 0)
(24.6557 -5.54909 0)
(24.8818 -6.07211 0)
(25.0086 -6.54851 0)
(24.9965 -6.99287 0)
(10.786 0.911814 0)
(12.2043 -0.823144 0)
(13.6664 -0.87556 0)
(15.0403 -0.957537 0)
(16.3005 -1.11071 0)
(17.4758 -1.36951 0)
(18.5396 -1.69072 0)
(19.5397 -2.0714 0)
(20.4277 -2.44099 0)
(21.232 -2.82397 0)
(21.9047 -3.19896 0)
(22.4966 -3.59888 0)
(22.9751 -4.01647 0)
(23.3447 -4.45869 0)
(23.6351 -4.90965 0)
(23.8678 -5.39248 0)
(24.0051 -5.83856 0)
(24.045 -6.25364 0)
(10.879 0.854225 0)
(12.2417 -0.879773 0)
(13.6208 -1.00331 0)
(14.908 -1.06586 0)
(16.0971 -1.13925 0)
(17.2397 -1.29126 0)
(18.257 -1.50682 0)
(19.1988 -1.80642 0)
(20.0004 -2.13926 0)
(20.7175 -2.50215 0)
(21.3467 -2.85819 0)
(21.8855 -3.23232 0)
(22.331 -3.61368 0)
(22.6915 -4.00558 0)
(22.9518 -4.38814 0)
(23.1658 -4.78755 0)
(23.31 -5.16683 0)
(23.3348 -5.51119 0)
(11.0989 0.670366 0)
(12.4102 -0.812095 0)
(13.6948 -0.870798 0)
(14.9154 -0.916578 0)
(16.0342 -1.01045 0)
(17.1093 -1.18028 0)
(18.0747 -1.41814 0)
(18.9851 -1.69938 0)
(19.7621 -2.00583 0)
(20.461 -2.29244 0)
(21.0494 -2.57848 0)
(21.5476 -2.86571 0)
(21.9541 -3.16684 0)
(22.2944 -3.48176 0)
(22.5286 -3.81212 0)
(22.7 -4.13105 0)
(22.8033 -4.47345 0)
(22.8343 -4.76334 0)
(10.9513 0.572878 0)
(12.1992 -0.75473 0)
(13.4559 -0.906511 0)
(14.7035 -0.98387 0)
(15.8632 -1.03448 0)
(16.9463 -1.1259 0)
(17.9071 -1.29537 0)
(18.7764 -1.5195 0)
(19.5267 -1.76197 0)
(20.2023 -2.01799 0)
(20.7919 -2.28282 0)
(21.2917 -2.53438 0)
(21.7024 -2.79108 0)
(22.0513 -3.05763 0)
(22.2969 -3.31476 0)
(22.4825 -3.57967 0)
(22.5814 -3.8359 0)
(22.6176 -4.0787 0)
(10.4974 0.382327 0)
(12.046 -0.739071 0)
(13.4431 -0.861631 0)
(14.7305 -0.953106 0)
(15.8819 -0.994127 0)
(16.9374 -1.06913 0)
(17.8588 -1.19632 0)
(18.6874 -1.38875 0)
(19.4123 -1.59555 0)
(20.056 -1.81703 0)
(20.612 -2.04966 0)
(21.0852 -2.25063 0)
(21.4702 -2.46645 0)
(21.7803 -2.66417 0)
(22.0306 -2.86668 0)
(22.2059 -3.08227 0)
(22.3172 -3.2936 0)
(22.3788 -3.49534 0)
(10.8871 0.274345 0)
(12.2944 -0.824813 0)
(13.6269 -0.942145 0)
(14.8395 -0.994621 0)
(15.9091 -0.995387 0)
(16.9114 -1.01538 0)
(17.8221 -1.09109 0)
(18.6638 -1.22777 0)
(19.4105 -1.39632 0)
(20.0412 -1.58408 0)
(20.5955 -1.77177 0)
(21.0671 -1.95289 0)
(21.4435 -2.11842 0)
(21.7704 -2.28781 0)
(22.005 -2.46076 0)
(22.171 -2.64901 0)
(22.2721 -2.84021 0)
(22.308 -2.99953 0)
(10.6629 0.163895 0)
(12.1164 -0.823557 0)
(13.4965 -0.882418 0)
(14.7229 -0.903495 0)
(15.8012 -0.919117 0)
(16.8313 -0.95796 0)
(17.7939 -1.03403 0)
(18.6982 -1.12699 0)
(19.4781 -1.26537 0)
(20.1336 -1.41565 0)
(20.6788 -1.58065 0)
(21.13 -1.73052 0)
(21.476 -1.86036 0)
(21.7522 -1.98031 0)
(21.9467 -2.0954 0)
(22.0878 -2.21014 0)
(22.1928 -2.34456 0)
(22.2293 -2.48478 0)
(11.0434 0.0952473 0)
(12.359 -0.840382 0)
(13.7642 -0.951116 0)
(15.0967 -0.945837 0)
(16.2077 -0.937559 0)
(17.1892 -0.963269 0)
(18.0857 -1.0157 0)
(18.9058 -1.06666 0)
(19.6143 -1.15294 0)
(20.2271 -1.24298 0)
(20.7228 -1.34183 0)
(21.1413 -1.43983 0)
(21.458 -1.53519 0)
(21.7076 -1.63126 0)
(21.9205 -1.7272 0)
(22.0721 -1.83214 0)
(22.1721 -1.95491 0)
(22.2422 -2.08852 0)
(11.1232 -0.0871403 0)
(12.721 -0.840862 0)
(14.1372 -0.9454 0)
(15.3708 -0.905479 0)
(16.4014 -0.849598 0)
(17.3382 -0.83648 0)
(18.191 -0.875137 0)
(18.9631 -0.916459 0)
(19.6332 -0.989849 0)
(20.2098 -1.06048 0)
(20.684 -1.13707 0)
(21.077 -1.20432 0)
(21.3706 -1.2866 0)
(21.6013 -1.35941 0)
(21.782 -1.43467 0)
(21.8997 -1.52152 0)
(21.9732 -1.61223 0)
(21.9865 -1.68942 0)
(10.5443 -0.370703 0)
(12.3795 -0.939569 0)
(14.0492 -0.952102 0)
(15.3755 -0.882463 0)
(16.4199 -0.820895 0)
(17.2848 -0.81479 0)
(18.0275 -0.830687 0)
(18.6616 -0.836579 0)
(19.205 -0.864088 0)
(19.6387 -0.893801 0)
(19.9787 -0.92712 0)
(20.2332 -0.955644 0)
(20.3996 -1.00489 0)
(20.5155 -1.05325 0)
(20.5747 -1.10999 0)
(20.5648 -1.16612 0)
(20.5267 -1.23424 0)
(20.4311 -1.29467 0)
(11.0449 -0.504894 0)
(12.8268 -1.10871 0)
(14.1538 -1.01188 0)
(15.0951 -0.836636 0)
(15.7667 -0.705687 0)
(16.2686 -0.6342 0)
(16.6554 -0.607982 0)
(16.9842 -0.5904 0)
(17.2581 -0.589531 0)
(17.4554 -0.596837 0)
(17.6145 -0.607213 0)
(17.7086 -0.631432 0)
(17.7524 -0.666074 0)
(17.7415 -0.699207 0)
(17.6717 -0.727375 0)
(17.5461 -0.756735 0)
(17.3904 -0.79817 0)
(17.2185 -0.832306 0)
(11.0404 -0.677958 0)
(12.1147 -1.08149 0)
(12.448 -0.884254 0)
(12.5179 -0.657652 0)
(12.6081 -0.440849 0)
(12.7642 -0.310756 0)
(12.9554 -0.254536 0)
(13.1724 -0.237767 0)
(13.3954 -0.240136 0)
(13.5922 -0.254495 0)
(13.7711 -0.269071 0)
(13.9104 -0.288113 0)
(14.0133 -0.304607 0)
(14.0705 -0.336375 0)
(14.0881 -0.345564 0)
(14.0695 -0.367873 0)
(14.0222 -0.429074 0)
(13.9618 -0.451224 0)
(9.29989 -0.411946 0)
(8.18334 -0.414193 0)
(7.53552 -0.162898 0)
(7.48427 -0.0454826 0)
(7.91529 0.00648881 0)
(8.58538 0.00419725 0)
(9.30926 -0.0107173 0)
(9.99429 -0.0255902 0)
(10.6145 -0.0340487 0)
(11.1515 -0.0452087 0)
(11.6114 -0.0538231 0)
(11.9939 -0.0637763 0)
(12.3079 -0.0729839 0)
(12.5593 -0.086726 0)
(12.7345 -0.0908485 0)
(12.8328 -0.106361 0)
(12.8656 -0.142402 0)
(12.7567 -0.152778 0)
(-0.0898916 -0.386629 0)
(-0.210015 -0.40953 0)
(-0.345995 -0.391462 0)
(-0.492907 -0.398326 0)
(-0.629179 -0.411939 0)
(-0.763951 -0.417892 0)
(-0.906392 -0.419778 1.11363e-17)
(-1.04907 -0.412926 -1.10725e-17)
(-1.19994 -0.377797 0)
(-1.38916 -0.317392 -1.09524e-17)
(-1.62441 -0.227929 0)
(-1.90874 -0.146186 0)
(-2.20559 -0.126886 0)
(-2.47536 -0.149776 1.07317e-17)
(-2.76049 -0.129107 0)
(-3.16841 -0.141954 0)
(-3.68249 -0.230808 -1.0601e-17)
(-4.20053 -0.321129 0)
(-4.70922 -0.429369 0)
(-5.27433 -0.382484 0)
(-5.99197 -0.166644 1.05099e-17)
(-6.93121 -0.038591 0)
(-7.99592 0.0464959 1.04381e-17)
(-9.14563 0.26785 0)
(-10.4369 0.569498 0)
(-11.8696 0.79761 1.02667e-17)
(-13.3108 0.88692 0)
(-14.6875 0.8718 -1.01153e-17)
(-16.0117 0.832287 0)
(-17.2547 0.782458 9.96548e-18)
(-18.3969 0.723355 0)
(-19.4418 0.654063 0)
(-20.4042 0.590816 0)
(-21.2789 0.536569 0)
(-22.0802 0.480382 0)
(-22.8225 0.435731 -9.55894e-18)
(-23.4481 0.408569 0)
(-23.9928 0.383206 1.88591e-17)
(-24.4965 0.362298 0)
(-24.9382 0.338047 -1.86031e-17)
(-25.3288 0.321401 0)
(-25.6594 0.326084 0)
(-25.9286 0.321157 1.82256e-17)
(-26.1513 0.326977 0)
(-26.3414 0.320118 1.79794e-17)
(-26.512 0.354357 -1.78584e-17)
(-26.6807 0.392474 0)
(-26.7871 0.431952 -1.76181e-17)
(-26.8498 0.444264 -1.74978e-17)
(-26.8817 0.456577 0)
(-26.8612 0.473541 0)
(-26.7913 0.487537 0)
(-26.6731 0.510401 0)
(-26.5421 0.540344 0)
(-26.3408 0.582742 1.6764e-17)
(-26.0648 0.587182 0)
(-25.7672 0.634741 -1.6519e-17)
(-25.471 0.679181 0)
(-25.1678 0.694624 0)
(-24.8048 0.697344 1.61754e-17)
(-24.3484 0.704027 0)
(-23.8132 0.74101 -1.59608e-17)
(-23.264 0.805022 0)
(-22.7396 0.853505 0)
(-22.2691 0.878724 0)
(-21.7469 0.907603 1.55276e-17)
(-21.159 0.903698 0)
(-20.5386 0.905297 0)
(-19.8155 0.937173 1.52274e-17)
(-19.0353 1.01364 0)
(-18.2551 1.10073 1.50086e-17)
(-17.5312 1.13604 0)
(-16.8858 1.1513 0)
(-16.3177 1.13659 0)
(-15.7014 1.13861 -1.45982e-17)
(-15.0188 1.12872 0)
(-14.3659 1.11341 0)
(-13.7275 1.12981 -1.42602e-17)
(-13.1397 1.20146 -1.41333e-17)
(-12.6099 1.36168 0)
(-12.1612 1.50927 -1.38939e-17)
(-11.9291 1.65327 0)
(-11.8339 1.78303 -2.73892e-17)
(-11.557 1.67884 0)
(-10.7501 1.43343 -2.68319e-17)
(-9.52224 1.35331 0)
(-8.28528 1.29834 2.63759e-17)
(-7.00024 1.25334 0)
(-5.63172 1.23482 0)
(-4.22625 1.32849 0)
(-3.13779 1.6453 -2.54078e-17)
(-2.52972 1.97702 0)
(-1.88575 1.90952 2.4974e-17)
(-0.977736 1.35124 0)
(-0.0354845 0.815995 -2.50504e-17)
(0.410096 0.989757 -2.52311e-17)
(-0.376354 2.00394 -2.51577e-17)
(-2.15426 2.84504 0)
(-3.90944 3.1838 0)
(-5.42657 2.88731 0)
(-6.43586 2.56424 0)
(-7.25363 2.50593 0)
(-7.95399 2.48723 0)
(-8.5079 2.51127 0)
(-9.13052 2.53166 0)
(-9.79635 2.56638 2.2827e-17)
(-10.2836 2.52389 2.28401e-17)
(-10.4278 2.35084 0)
(-10.0529 2.13008 0)
(-8.72299 1.74373 0)
(-6.45892 1.30495 2.25763e-17)
(-4.16519 1.40867 0)
(-2.20852 1.88546 0)
(-2.66593 2.41665 0)
(-1.67499 1.70493 0)
(0.0584844 1.84275 -2.14414e-17)
(0.820518 2.02546 0)
(1.82077 2.14418 0)
(2.38058 2.28444 2.09889e-17)
(2.66684 2.40201 -2.08558e-17)
(2.75273 2.43287 0)
(2.95978 2.47282 -2.0569e-17)
(3.12127 2.54163 0)
(3.20464 2.62823 2.0227e-17)
(3.13114 2.72195 0)
(2.68063 2.81722 0)
(2.00072 2.92747 0)
(1.38117 3.02219 0)
(0.633829 3.14324 0)
(-0.341754 3.15585 -3.88203e-17)
(-1.44581 3.14869 -3.85344e-17)
(-2.8135 3.19644 0)
(-4.29284 3.16626 0)
(-5.82901 3.1576 0)
(-7.26509 3.1694 3.73698e-17)
(-8.81115 3.13039 0)
(-10.2149 3.10854 0)
(-11.3487 3.13976 0)
(-12.232 3.16289 3.58551e-17)
(-12.9686 3.1601 -3.5517e-17)
(-13.5296 3.09296 0)
(-13.8782 3.03701 0)
(-13.9948 3.03354 -3.44838e-17)
(-13.831 3.11969 -3.4141e-17)
(-13.4464 3.26123 0)
(-12.8802 3.24172 0)
(-12.1546 3.16842 3.32302e-17)
(-11.1114 3.10759 -3.28222e-17)
(-9.81477 3.03846 0)
(-7.88582 2.89455 0)
(-5.1419 2.83683 -3.16813e-17)
(-1.96954 2.77806 0)
(0.894632 2.54929 0)
(2.88765 2.57887 -3.24168e-17)
(3.00087 3.39438 0)
(1.23783 3.94312 -3.20886e-17)
(-0.699947 3.83103 0)
(-1.86507 3.54691 0)
(-1.7996 3.0936 0)
(-0.89148 2.69255 3.10379e-17)
(-0.163662 2.82617 0)
(0.346103 2.75418 0)
(1.70462 2.63874 0)
(2.46823 2.38851 0)
(7.37994 1.52836 0)
(10.854 1.58272 0)
(15.1025 2.00541 3.05303e-17)
(16.9634 2.22322 3.01486e-17)
(17.9994 2.40436 0)
(18.4105 2.40869 0)
(18.3181 2.36393 0)
(18.1209 2.29715 -2.95886e-17)
(17.9263 2.30609 0)
(17.5848 2.19909 5.8719e-17)
(17.2688 2.13538 -5.85287e-17)
(16.7238 2.11116 -5.84008e-17)
(16.2082 2.0473 5.80585e-17)
(15.5301 1.9869 -5.77814e-17)
(14.6181 2.03999 5.72807e-17)
(13.7151 1.92417 0)
(-0.115629 -1.10364 0)
(-0.291573 -1.20851 0)
(-0.495331 -1.15553 -2.27511e-17)
(-0.728641 -1.16193 0)
(-0.961274 -1.17308 2.24763e-17)
(-1.16869 -1.15155 2.23082e-17)
(-1.33061 -1.14874 1.10758e-17)
(-1.44576 -1.16136 1.10009e-17)
(-1.54055 -1.10862 0)
(-1.67162 -1.02903 1.09137e-17)
(-1.86126 -0.909894 0)
(-2.2286 -0.874437 0)
(-2.7011 -0.983251 -2.14755e-17)
(-3.22569 -0.987521 -1.06778e-17)
(-3.7601 -0.612983 2.13398e-17)
(-4.35376 -0.154093 2.13652e-17)
(-5.17199 0.00590883 1.06597e-17)
(-6.14766 0.102247 0)
(-7.32523 0.381965 0)
(-8.63325 0.803186 0)
(-9.99474 1.27739 1.05295e-17)
(-11.439 1.64981 0)
(-12.8846 1.9457 -3.12334e-17)
(-14.2661 2.15192 0)
(-15.55 2.24647 0)
(-16.7485 2.25409 -1.02178e-17)
(-17.87 2.17374 0)
(-18.9294 2.01338 1.00858e-17)
(-19.9224 1.82663 2.00282e-17)
(-20.8512 1.64095 -9.94463e-18)
(-21.7071 1.46315 0)
(-22.4991 1.28645 0)
(-23.232 1.13281 0)
(-23.9128 0.985313 1.93523e-17)
(-24.5336 0.861615 1.92191e-17)
(-25.0961 0.778005 9.55043e-18)
(-25.5775 0.705148 0)
(-26.0039 0.625581 -1.88513e-17)
(-26.4064 0.578026 0)
(-26.7502 0.535042 1.86048e-17)
(-27.022 0.500393 0)
(-27.2702 0.516561 0)
(-27.4775 0.537605 -1.82547e-17)
(-27.6464 0.588557 0)
(-27.7438 0.642598 -5.40842e-17)
(-27.8094 0.742631 1.79281e-17)
(-27.9165 0.845348 0)
(-27.9815 0.91275 1.77161e-17)
(-28.0126 0.953673 1.76058e-17)
(-27.9688 0.991713 0)
(-27.8733 1.03322 0)
(-27.7158 1.07259 0)
(-27.4741 1.14118 0)
(-27.2197 1.2005 0)
(-26.9578 1.28115 -1.68584e-17)
(-26.5714 1.33835 -3.34085e-17)
(-26.0961 1.44564 1.65657e-17)
(-25.665 1.65156 0)
(-25.2353 1.74913 -3.2584e-17)
(-24.7516 1.74895 1.61905e-17)
(-24.1786 1.69196 0)
(-23.4904 1.71423 1.60218e-17)
(-22.7868 1.86223 0)
(-22.1022 2.07205 0)
(-21.4062 2.26164 3.11503e-17)
(-20.7019 2.42517 -1.54786e-17)
(-19.9857 2.49374 3.07616e-17)
(-19.2894 2.45676 -3.06556e-17)
(-18.5118 2.37899 -1.52794e-17)
(-17.6161 2.40659 0)
(-16.6196 2.59757 -1.50225e-17)
(-15.5824 2.83926 0)
(-14.617 3.08759 0)
(-13.8791 3.30442 0)
(-13.1602 3.47313 -1.45444e-17)
(-12.2983 3.61357 0)
(-11.4238 3.79111 -2.86299e-17)
(-10.7371 3.98248 4.25815e-17)
(-10.3907 4.13913 1.40919e-17)
(-10.4107 4.35608 0)
(-10.3035 4.54959 1.37289e-17)
(-10.1154 4.70762 0)
(-10.0501 4.8973 2.69121e-17)
(-9.83863 4.44198 0)
(-9.10557 3.52154 2.65725e-17)
(-7.72085 3.41971 -5.2192e-17)
(-6.2602 3.71212 -2.58533e-17)
(-4.74747 3.72815 0)
(-3.19741 3.62569 0)
(-1.73473 3.97042 0)
(-0.729351 4.66159 2.49769e-17)
(0.217325 4.82714 0)
(1.01632 4.3654 -2.38347e-17)
(0.335837 4.72129 0)
(-1.99848 6.32023 7.41589e-17)
(-4.70684 7.76212 2.46738e-17)
(-7.15097 8.56232 2.44939e-17)
(-9.14691 8.59435 0)
(-10.1315 8.10696 0)
(-10.9402 7.67065 0)
(-11.3853 7.39179 0)
(-11.5115 7.11549 0)
(-11.4783 6.93652 4.6795e-17)
(-11.3996 6.90624 4.62533e-17)
(-11.4617 7.01993 0)
(-11.4363 6.87423 -2.30051e-17)
(-11.4516 6.5686 -2.31619e-17)
(-11.1882 5.97285 0)
(-10.4064 5.09594 -4.66237e-17)
(-8.82444 3.9917 0)
(-6.65983 3.23942 2.32113e-17)
(-5.1868 4.05636 0)
(-3.79615 5.53695 0)
(-3.19866 6.44555 -4.33756e-17)
(-0.666145 4.59594 0)
(-0.0691814 5.33139 2.17928e-17)
(1.43083 5.50781 0)
(2.54224 5.92182 0)
(3.37059 6.34634 2.11156e-17)
(3.86796 6.71039 2.09921e-17)
(4.02368 6.72957 0)
(4.36739 6.68901 -2.06953e-17)
(4.7607 6.78821 0)
(5.26283 6.91496 2.02308e-17)
(5.71339 7.18551 3.99677e-17)
(5.72743 7.44824 0)
(5.40261 7.63514 0)
(5.24894 7.829 0)
(5.08422 8.05471 0)
(4.72574 8.34727 3.79363e-17)
(4.46774 8.49278 1.12464e-16)
(3.74165 8.7102 0)
(2.60693 8.85045 0)
(1.33992 8.83518 0)
(-0.0270445 8.86754 -3.56982e-17)
(-1.64388 8.94719 0)
(-3.19456 8.91947 0)
(-4.57313 8.84599 6.9105e-17)
(-5.84955 8.72076 3.40585e-17)
(-7.02377 8.6612 3.35144e-17)
(-7.95252 8.74067 0)
(-8.57444 8.80149 0)
(-8.87845 8.7898 3.25277e-17)
(-8.83826 8.77309 -3.22088e-17)
(-8.72051 8.85819 0)
(-8.35423 8.86388 0)
(-7.83311 8.85738 -3.10167e-17)
(-7.18328 8.76565 9.20355e-17)
(-6.18911 8.40919 0)
(-4.21983 7.76933 0)
(-1.42959 7.2794 2.87472e-17)
(1.31121 7.23325 0)
(2.50616 8.13698 6.02498e-17)
(0.727663 9.67895 -3.11654e-17)
(-2.55779 10.704 0)
(-4.61715 10.9003 3.01589e-17)
(-5.71451 10.1258 5.98527e-17)
(-5.6428 9.16186 0)
(-4.78529 8.50063 0)
(-3.64839 7.86696 -2.99261e-17)
(-2.61555 7.91902 0)
(-1.14201 7.36599 6.12355e-17)
(1.1149 6.76186 0)
(2.3798 5.33962 0)
(9.72398 3.769 0)
(11.2199 4.24734 0)
(16.603 4.59798 -3.16731e-17)
(18.5849 5.5008 -3.06016e-17)
(20.5327 6.05777 0)
(21.4137 6.41794 0)
(21.4865 6.47917 0)
(21.2088 6.43955 2.79209e-17)
(20.8594 6.44265 0)
(20.3147 6.39032 -5.50178e-17)
(19.8301 6.23646 5.48559e-17)
(18.6824 6.28873 5.50353e-17)
(17.7646 6.07118 5.46855e-17)
(16.5337 5.91218 5.4541e-17)
(15.4168 5.79987 5.36171e-17)
(14.4955 5.59842 0)
(-0.132175 -1.64913 0)
(-0.385152 -1.73525 0)
(-0.702505 -1.61289 2.3029e-17)
(-1.03232 -1.58592 2.28117e-17)
(-1.34939 -1.67504 -2.26336e-17)
(-1.67005 -1.83539 -2.24596e-17)
(-1.90712 -2.07984 7.67963e-21)
(-2.15806 -2.20728 0)
(-2.477 -2.11165 0)
(-2.93374 -1.79766 0)
(-3.33951 -1.13273 0)
(-3.83826 -0.549151 0)
(-4.53854 -0.330556 6.59163e-17)
(-5.34655 -0.341263 0)
(-6.22227 -0.120144 -2.16551e-17)
(-7.14684 0.407479 -2.15913e-17)
(-8.31127 0.98295 0)
(-9.49519 1.56899 0)
(-10.8071 2.03768 0)
(-12.0972 2.39378 0)
(-13.3023 2.70836 -2.1181e-17)
(-14.453 2.95757 0)
(-15.5044 3.07314 2.09172e-17)
(-16.5072 3.11255 0)
(-17.3953 3.09101 0)
(-18.2314 2.97962 0)
(-19.0125 2.79604 4.05331e-17)
(-19.7469 2.59867 0)
(-20.4742 2.39257 -1.99261e-17)
(-21.175 2.18261 3.95406e-17)
(-21.8359 1.95654 0)
(-22.459 1.74689 0)
(-23.0558 1.56803 0)
(-23.6061 1.39564 -1.92157e-17)
(-24.1085 1.23974 -1.9087e-17)
(-24.5925 1.11793 0)
(-25.0229 1.0404 0)
(-25.3991 0.962725 3.74294e-17)
(-25.7792 0.906808 3.71991e-17)
(-26.1549 0.857752 -3.69562e-17)
(-26.4554 0.82961 0)
(-26.7224 0.860867 0)
(-27.0177 0.917371 0)
(-27.2574 0.991468 0)
(-27.4165 1.11487 3.59428e-17)
(-27.5136 1.26833 3.57304e-17)
(-27.6394 1.44637 -3.55936e-17)
(-27.7386 1.56251 0)
(-27.8161 1.67748 0)
(-27.8188 1.78258 0)
(-27.8028 1.79428 0)
(-27.7482 1.8422 3.47431e-17)
(-27.5923 1.90396 0)
(-27.4185 2.01148 0)
(-27.2292 2.12931 3.40701e-17)
(-26.982 2.22722 3.38309e-17)
(-26.6101 2.42962 0)
(-26.1351 2.71526 -6.64806e-17)
(-25.6691 2.84203 3.31289e-17)
(-25.19 2.79016 -3.30153e-17)
(-24.6515 2.68528 0)
(-24.0063 2.74267 0)
(-23.2992 3.03445 0)
(-22.6382 3.37298 0)
(-21.9189 3.63914 -3.15814e-17)
(-21.0939 3.8294 -6.27131e-17)
(-20.2128 3.98673 -3.12981e-17)
(-19.4473 3.99023 3.12406e-17)
(-18.7746 3.87465 0)
(-18.0292 3.83848 -6.14837e-17)
(-17.1314 4.02736 -6.06571e-17)
(-16.2248 4.4775 -5.98868e-17)
(-15.2382 4.88399 5.93162e-17)
(-14.2679 5.2097 0)
(-13.338 5.1964 8.782e-17)
(-12.1737 5.16169 0)
(-10.8931 5.50705 -2.86047e-17)
(-9.82267 6.22428 -2.85797e-17)
(-8.67829 7.09078 0)
(-7.97621 7.94448 0)
(-7.56182 8.12292 -5.51994e-17)
(-7.13182 8.00399 0)
(-7.22049 8.44253 -5.41146e-17)
(-7.26731 8.07664 0)
(-7.1721 6.38484 5.49013e-17)
(-6.78929 5.63053 1.08244e-16)
(-5.73735 5.56341 0)
(-4.24262 5.44441 0)
(-2.63757 5.52733 0)
(-1.43481 6.14736 4.95995e-17)
(-0.505878 6.96546 0)
(-0.487408 8.20346 4.80326e-17)
(-2.31585 10.2109 0)
(-5.01477 11.868 0)
(-7.27569 12.8522 -9.7259e-17)
(-9.17475 13.7552 0)
(-10.6639 13.9766 -4.88127e-17)
(-11.5713 13.5355 0)
(-11.8685 12.7147 -4.85896e-17)
(-11.9709 11.9136 0)
(-11.8652 11.2791 0)
(-11.8601 10.8717 0)
(-11.5655 10.5888 -1.42841e-16)
(-11.2379 10.7935 -4.74413e-17)
(-10.7825 10.9658 0)
(-10.0125 10.9361 0)
(-9.47348 10.7488 0)
(-8.72404 9.97307 0)
(-8.01582 8.84379 4.65032e-17)
(-6.98766 7.44955 -9.30745e-17)
(-5.68959 6.7153 -4.68706e-17)
(-5.17667 7.88628 9.25445e-17)
(-4.07299 8.88955 9.12311e-17)
(-2.20248 9.18637 4.50963e-17)
(0.187295 7.65484 0)
(0.0665439 9.24787 8.89873e-17)
(1.91728 8.83287 0)
(2.96541 9.77821 -8.6912e-17)
(3.82782 10.4432 -4.28621e-17)
(4.50252 11.1305 0)
(4.7795 11.2742 8.40072e-17)
(5.04349 11.1943 4.1756e-17)
(5.21277 11.3012 0)
(5.46992 11.4713 4.11806e-17)
(5.93217 11.8981 -1.22319e-16)
(5.97064 12.5656 0)
(5.47035 12.8139 0)
(5.20474 12.912 0)
(5.11601 13.16 0)
(4.78292 13.5471 -7.77809e-17)
(4.79154 13.9668 -7.6667e-17)
(4.85196 14.288 0)
(4.21706 14.78 0)
(3.26008 14.9131 0)
(2.21049 15.0367 0)
(0.907533 15.0485 0)
(-0.353917 15.1674 0)
(-1.41329 15.282 -6.8994e-17)
(-2.37028 15.3842 1.0628e-19)
(-3.48441 15.3656 0)
(-4.69196 15.0668 0)
(-5.54867 14.624 -6.4784e-17)
(-5.96095 14.4162 0)
(-5.82615 14.5853 6.27726e-17)
(-5.66537 14.9624 6.2061e-17)
(-5.62509 14.9492 0)
(-5.5046 14.8547 0)
(-5.27997 14.799 -5.96183e-17)
(-4.4827 14.033 -1.16257e-16)
(-2.62226 13.0753 0)
(-0.490397 12.6322 0)
(0.563515 13.5154 0)
(-0.260058 15.8692 -6.00734e-17)
(-2.70908 18.11 6.12939e-17)
(-5.27176 18.5681 0)
(-5.95693 17.4861 1.17902e-16)
(-6.27661 16.2032 5.96815e-17)
(-5.43201 14.9893 -1.21269e-16)
(-4.58635 13.75 0)
(-2.35836 12.3273 0)
(0.0644985 12.3677 -1.17426e-16)
(2.0021 11.689 -6.05244e-17)
(4.82992 10.9497 0)
(5.71056 8.49198 0)
(11.2822 6.39614 0)
(13.5284 7.46953 0)
(17.2678 7.95882 -1.31132e-16)
(18.6175 9.37135 0)
(21.3389 10.107 0)
(22.9126 10.9058 0)
(23.4514 11.0456 0)
(23.401 11.0203 0)
(23.2982 10.8456 0)
(22.8842 10.7727 -1.10641e-16)
(22.7184 10.4037 0)
(21.3376 10.5436 0)
(20.3915 10.1562 -2.11252e-16)
(18.8429 9.94305 1.05575e-16)
(17.7034 9.67846 -1.04194e-16)
(16.573 9.29827 1.04589e-16)
(-0.140299 -2.14611 0)
(-0.353794 -2.13766 -4.71664e-17)
(-0.629739 -1.95932 0)
(-0.883938 -1.97613 -2.29438e-17)
(-1.13656 -1.98499 0)
(-1.4631 -2.08838 0)
(-1.91413 -2.31857 2.22701e-17)
(-2.59327 -2.14235 0)
(-3.17204 -1.68355 0)
(-3.78273 -1.60954 0)
(-4.40734 -1.27755 0)
(-4.98749 -0.762566 0)
(-5.77381 -0.409302 -8.79361e-17)
(-6.65593 0.291969 -4.38542e-17)
(-7.79643 1.03109 4.37037e-17)
(-8.8935 1.6938 0)
(-10.1117 2.16675 0)
(-11.2564 2.64468 0)
(-12.3356 3.09468 0)
(-13.3397 3.39903 0)
(-14.2669 3.5142 -4.23931e-17)
(-15.0952 3.53285 -4.19899e-17)
(-15.8265 3.52578 4.1583e-17)
(-16.5316 3.43571 -4.11157e-17)
(-17.1744 3.28719 0)
(-17.8393 3.106 0)
(-18.5052 2.9268 -3.98452e-17)
(-19.1864 2.75891 0)
(-19.8687 2.54072 0)
(-20.4993 2.31886 -3.89773e-17)
(-21.1154 2.12304 -3.87653e-17)
(-21.7066 1.90515 -3.8523e-17)
(-22.237 1.68579 0)
(-22.7219 1.48354 0)
(-23.1726 1.3288 3.7797e-17)
(-23.6087 1.19757 0)
(-23.9676 1.09059 0)
(-24.2858 1.04075 -3.70455e-17)
(-24.5965 1.04406 3.674e-17)
(-24.9144 1.07822 -3.65257e-17)
(-25.171 1.09528 0)
(-25.3959 1.13691 0)
(-25.6915 1.26175 -7.16454e-17)
(-25.932 1.36164 0)
(-26.1137 1.47051 -7.06895e-17)
(-26.3082 1.63655 -1.05372e-16)
(-26.4724 1.80342 1.04781e-16)
(-26.5509 1.95074 -6.9405e-17)
(-26.5941 2.15922 0)
(-26.5205 2.35204 0)
(-26.451 2.44258 -6.84756e-17)
(-26.381 2.5593 -3.41375e-17)
(-26.2663 2.6255 0)
(-26.1422 2.81558 0)
(-26.0849 2.98497 -3.36817e-17)
(-25.8266 3.1017 -6.69097e-17)
(-25.5679 3.33734 0)
(-25.2509 3.56927 6.64797e-17)
(-24.7593 3.72299 -6.60331e-17)
(-24.28 3.7939 6.57252e-17)
(-23.7903 3.72682 0)
(-23.2908 3.81015 0)
(-22.6569 4.18308 0)
(-22.0938 4.58029 0)
(-21.4679 4.80127 0)
(-20.6283 4.90332 6.365e-17)
(-19.6639 5.13866 0)
(-18.7848 5.4529 0)
(-18.1746 5.65762 0)
(-17.7222 5.6992 1.24121e-16)
(-17.0523 5.83026 6.1486e-17)
(-16.3385 6.0829 6.06643e-17)
(-15.4574 6.41762 -1.19547e-16)
(-14.2526 6.80085 5.88712e-17)
(-13.1523 6.92491 -5.885e-17)
(-12.209 7.02295 0)
(-11.0078 7.39592 5.78332e-17)
(-10.0115 7.84895 0)
(-8.76466 8.39692 0)
(-7.45454 9.63741 0)
(-6.32907 10.7104 1.12337e-16)
(-5.06996 11.0286 -5.54505e-17)
(-4.72289 11.6536 -5.43747e-17)
(-3.93773 11.4752 -1.07465e-16)
(-3.45994 9.95989 -1.60137e-16)
(-4.04007 9.16574 -5.4041e-17)
(-4.02349 8.54807 0)
(-3.32691 7.87962 -1.03048e-16)
(-2.62084 8.08331 0)
(-2.75762 9.39916 -1.47697e-16)
(-3.40561 11.6893 0)
(-4.84648 13.9359 -1.45305e-16)
(-6.59111 15.9606 0)
(-8.17886 17.3764 0)
(-9.58936 18.4705 -4.84604e-17)
(-10.5681 19.0313 0)
(-10.9471 18.7043 4.95106e-17)
(-10.9785 17.6011 9.80579e-17)
(-10.8206 16.4415 4.8703e-17)
(-10.8364 15.7236 9.73647e-17)
(-11.0571 15.2595 -9.735e-17)
(-11.2656 14.7165 -9.67141e-17)
(-10.8918 14.2301 1.92398e-16)
(-10.5632 14.237 0)
(-9.83392 13.9865 0)
(-8.9924 13.869 9.48587e-17)
(-8.29529 13.7441 -9.40559e-17)
(-7.432 13.1114 0)
(-6.63839 12.0931 0)
(-5.77302 10.68 9.30525e-17)
(-4.55574 9.94741 0)
(-3.72763 11.0642 -2.88417e-19)
(-2.30275 11.5164 -2.72156e-19)
(-0.403324 11.8915 9.26094e-17)
(0.35327 11.3593 0)
(0.972041 12.6967 -9.03794e-17)
(2.34492 11.9688 0)
(3.51486 13.356 8.87777e-17)
(4.30664 14.048 0)
(5.24779 14.8879 0)
(5.76244 15.2032 -8.45492e-17)
(6.34652 15.2595 -8.3429e-17)
(6.72436 15.3794 0)
(6.36685 15.4852 -8.22313e-17)
(6.66849 16.0286 1.62858e-16)
(6.86321 17.0849 0)
(6.19512 17.5117 0)
(5.63986 17.6158 0)
(5.48406 17.8135 0)
(4.65293 18.0102 7.89778e-17)
(4.02907 18.3743 -1.5572e-16)
(4.45207 19.0651 0)
(4.44361 19.7556 0)
(3.36731 20.09 0)
(2.449 20.5478 0)
(1.62656 20.9148 0)
(0.605851 20.9017 0)
(-0.511381 20.6942 0)
(-1.57864 20.5453 6.86952e-17)
(-2.2809 20.8061 0)
(-2.91714 21.3131 0)
(-3.6402 21.2313 6.60916e-17)
(-4.43478 20.6745 0)
(-4.72026 20.3978 0)
(-4.33077 20.7253 -6.24563e-17)
(-3.93077 21.0136 0)
(-3.95101 21.0807 0)
(-3.87205 20.9106 1.18393e-16)
(-3.33732 19.8285 1.14489e-16)