/*--------------------------------*- C++ -*----------------------------------*\
| =========                 |                                                 |
| \\      /  F ield         | OpenFOAM: The Open Source CFD Toolbox           |
|  \\    /   O peration     | Version:  dev                                   |
|   \\  /    A nd           | Web:      http://www.openfoam.org               |
|    \\/     M anipulation  |                                                 |
\*---------------------------------------------------------------------------*/
FoamFile
{
    version     2.0;
    format      ascii;
    class       volVectorField;
    object      UMean;
    location    "9.132";
}
// * * * * * * * * * * * * * * * * * * * * * * * * * * * * * * * * * * * * * //

dimensions      [0 1 -1 0 0 0 0];

internalField   nonuniform List<vector> 
12225
(
(7.00366 0.430273 0)
(4.43881 0.192541 0)
(2.55677 0.0311482 0)
(2.51101 -0.0166619 0)
(1.38441 0.0193607 0)
(2.26759 -0.0342897 0)
(0.989451 0.0489862 0)
(2.18298 -0.0591952 0)
(0.797405 0.0716759 0)
(2.29237 -0.097883 0)
(0.68859 0.0994064 0)
(2.74439 -0.138672 0)
(0.947941 0.102633 0)
(3.39755 -0.172159 0)
(3.53046 -0.168419 0)
(4.69484 0.05008 0)
(14.8408 -2.43364 0)
(7.11704 5.13203 0)
(9.54624 0.981602 0)
(9.54341 0.860861 0)
(6.68669 0.466263 0)
(7.5907 0.214545 0)
(4.09032 0.140301 0)
(6.84375 0.0107897 0)
(2.66468 0.132637 0)
(6.6903 -0.0903659 0)
(1.82204 0.141832 0)
(7.04078 -0.165116 0)
(1.25989 0.123926 0)
(8.12389 -0.414511 0)
(1.38474 0.252618 0)
(9.95642 -1.44223 0)
(3.43529 0.272691 0)
(12.3875 -4.06698 0)
(10.4265 -1.92687 0)
(7.77458 0.483792 0)
(9.11834 0.763506 0)
(12.167 0.951375 0)
(8.32917 0.623898 0)
(11.8324 0.443385 0)
(6.22546 0.31024 0)
(11.4137 0.206464 0)
(4.58184 0.221424 0)
(11.3162 -0.0195674 0)
(3.87313 0.192872 0)
(11.3783 -0.277981 0)
(4.34955 0.187268 0)
(11.2551 -0.723469 0)
(5.72767 0.176416 0)
(11.0922 -1.49204 0)
(7.21413 0.0535112 0)
(12.1184 -3.86492 0)
(6.93387 0.350007 0)
(9.35377 -2.39121 0)
(7.2186 0.524977 0)
(13.9934 0.960991 0)
(7.92943 0.60937 0)
(14.2957 0.553844 0)
(7.47404 0.420819 0)
(14.117 0.271063 0)
(7.17546 0.396602 0)
(13.7391 -0.145195 0)
(7.2565 0.459518 0)
(13.2704 -0.698915 0)
(7.65893 0.576769 0)
(12.8753 -1.42301 0)
(8.26591 0.699792 0)
(12.6524 -2.31359 0)
(9.02149 0.0433224 0)
(11.8894 -3.63718 0)
(8.6855 -1.43131 0)
(8.36506 0.681326 0)
(6.42411 0.570004 0)
(14.0109 0.565824 0)
(8.47396 0.674367 0)
(13.9579 0.284472 0)
(9.17008 0.636606 0)
(13.6432 -0.00262025 0)
(9.51796 0.657758 0)
(13.2135 -0.388788 0)
(9.59285 0.734319 0)
(12.8123 -0.871453 0)
(9.44611 0.876972 0)
(12.5816 -1.52158 0)
(9.14981 1.09029 0)
(12.5694 -2.48983 0)
(8.82703 1.13298 0)
(11.6153 -5.028 0)
(8.54367 1.26737 0)
(8.7232 0.124855 0)
(7.95725 0.616896 0)
(11.8021 0.152277 0)
(9.50609 0.654663 0)
(11.7384 0.0501398 0)
(10.0893 0.693869 0)
(11.5994 -0.165764 0)
(10.3216 0.725812 0)
(11.4751 -0.457686 0)
(10.3015 0.783124 0)
(11.3882 -0.853815 0)
(10.0339 0.832397 0)
(11.3538 -1.40047 0)
(9.49366 0.802062 0)
(11.4162 -2.13891 0)
(8.80289 0.727678 0)
(10.9963 -3.92123 0)
(7.73662 1.33663 0)
(9.48896 -0.21995 0)
(9.34548 0.812713 0)
(10.4373 -0.266145 0)
(10.1421 0.930469 0)
(10.5525 -0.304713 0)
(10.4001 1.01999 0)
(10.5805 -0.503097 0)
(10.5216 1.07552 0)
(10.6241 -0.781449 0)
(10.5652 1.1536 0)
(10.6705 -1.15812 0)
(10.5175 1.23552 0)
(10.6986 -1.63612 0)
(10.3697 1.26177 0)
(10.6865 -2.32755 0)
(10.0569 1.27221 0)
(10.375 -3.95417 0)
(8.30272 2.01906 0)
(9.6962 -0.954877 0)
(9.85042 0.701151 0)
(10.1546 -0.326193 0)
(10.4079 0.855014 0)
(10.3887 -0.350123 0)
(10.5816 0.90685 0)
(10.4696 -0.494265 0)
(10.703 0.892989 0)
(10.5512 -0.686655 0)
(10.8068 0.872877 0)
(10.6433 -0.935712 0)
(10.8826 0.824226 0)
(10.735 -1.2332 0)
(10.9102 0.671988 0)
(10.7535 -1.6729 0)
(10.7262 0.520361 0)
(10.4925 -2.47374 0)
(8.89715 0.979875 0)
(9.96381 -0.485636 0)
(10.0869 0.802215 0)
(10.0186 -0.583665 0)
(10.5367 1.0214 0)
(10.3098 -0.604752 0)
(10.6764 1.07498 0)
(10.4392 -0.725254 0)
(10.7787 1.04819 0)
(10.5703 -0.890373 0)
(10.8583 1.0037 0)
(10.711 -1.11815 0)
(10.8999 0.921194 0)
(10.8315 -1.39532 0)
(10.8753 0.734908 0)
(10.822 -1.76109 0)
(10.6036 0.505672 0)
(10.5208 -2.06856 0)
(9.35239 0.584885 0)
(10.0234 -0.392593 0)
(10.1401 0.648593 0)
(10.0413 -0.512163 0)
(10.5111 0.878044 0)
(10.3327 -0.456762 0)
(10.6221 0.869208 0)
(10.4813 -0.493932 0)
(10.6985 0.778232 0)
(10.6285 -0.572474 0)
(10.7348 0.657882 0)
(10.7632 -0.695702 0)
(10.7184 0.495511 0)
(10.84 -0.845234 0)
(10.6188 0.264 0)
(10.7653 -1.03218 0)
(10.2831 0.0700402 0)
(10.4796 -1.05266 0)
(9.62478 0.123215 0)
(10.2068 -0.0333756 0)
(10.1417 0.699924 0)
(10.0701 -0.692081 0)
(10.453 0.90247 0)
(10.2982 -0.619162 0)
(10.5379 0.847538 0)
(10.4299 -0.645778 0)
(10.6036 0.735144 0)
(10.5604 -0.707652 0)
(10.6276 0.586616 0)
(10.6603 -0.791479 0)
(10.6095 0.382916 0)
(10.6812 -0.869387 0)
(10.5273 0.116758 0)
(10.571 -0.922039 0)
(10.2922 -0.1143 0)
(10.3611 -0.764954 0)
(10.0209 -0.155071 0)
(10.2457 -0.125763 0)
(10.0971 0.467912 0)
(10.1506 -0.495271 0)
(10.3538 0.595675 0)
(10.2933 -0.374814 0)
(10.4205 0.527418 0)
(10.4093 -0.355018 0)
(10.485 0.418733 0)
(10.5239 -0.37443 0)
(10.5133 0.275539 0)
(10.5994 -0.414894 0)
(10.5159 0.093078 0)
(10.5971 -0.461816 0)
(10.4769 -0.103616 0)
(10.4997 -0.500218 0)
(10.3576 -0.232537 0)
(10.3649 -0.405825 0)
(10.2665 -0.22047 0)
(10.3742 -0.110789 0)
(10.0501 0.410852 0)
(10.1753 -0.487403 0)
(10.2548 0.437067 0)
(10.2378 -0.367654 0)
(10.3088 0.36718 0)
(10.3306 -0.345758 0)
(10.3793 0.250639 0)
(10.4246 -0.355475 0)
(10.4227 0.0992141 0)
(10.4823 -0.375061 0)
(10.4463 -0.0800022 0)
(10.4819 -0.403587 0)
(10.4331 -0.247009 0)
(10.4263 -0.431451 0)
(10.3775 -0.339599 0)
(10.3688 -0.392988 0)
(10.3574 -0.321048 0)
(10.4225 -0.277089 0)
(10.0153 0.199497 0)
(10.1907 -0.285914 0)
(10.1932 0.167172 0)
(10.2051 -0.179423 0)
(10.2293 0.131463 0)
(10.2791 -0.171537 0)
(10.3062 0.0470097 0)
(10.3626 -0.197972 0)
(10.366 -0.0589623 0)
(10.4142 -0.235951 0)
(10.4055 -0.176286 0)
(10.4267 -0.28668 0)
(10.4124 -0.275304 0)
(10.4113 -0.331952 0)
(10.3996 -0.324506 0)
(10.4067 -0.337597 0)
(10.411 -0.316499 0)
(10.4699 -0.305364 0)
(9.99662 0.0970141 0)
(10.1444 -0.18598 0)
(10.1463 0.0215056 0)
(10.15 -0.133787 0)
(10.1621 -0.00881772 0)
(10.2089 -0.146329 0)
(10.2409 -0.0771759 0)
(10.2919 -0.18693 0)
(10.311 -0.159643 0)
(10.3486 -0.238203 0)
(10.3575 -0.245065 0)
(10.3791 -0.298593 0)
(10.3805 -0.316602 0)
(10.3939 -0.350416 0)
(10.3959 -0.361407 0)
(10.4186 -0.380619 0)
(10.4239 -0.381523 0)
(10.4789 -0.387764 0)
(9.99369 0.0154063 0)
(10.106 -0.0859069 0)
(10.1088 -0.0444547 0)
(10.1138 -0.0933872 0)
(10.1188 -0.0750536 0)
(10.1674 -0.119111 0)
(10.198 -0.12081 0)
(10.2518 -0.164048 0)
(10.274 -0.180813 0)
(10.3153 -0.219413 0)
(10.3278 -0.244213 0)
(10.3597 -0.278116 0)
(10.3659 -0.301661 0)
(10.394 -0.329352 0)
(10.3995 -0.347376 0)
(10.4329 -0.371216 0)
(10.4356 -0.384236 0)
(10.4884 -0.397496 0)
(9.99181 0.00470369 0)
(10.0636 -0.025229 0)
(10.0567 -0.0350096 0)
(10.0678 -0.0665782 0)
(10.0778 -0.0758419 0)
(10.128 -0.0999072 0)
(10.1573 -0.116113 0)
(10.211 -0.144895 0)
(10.2337 -0.169194 0)
(10.2782 -0.199812 0)
(10.292 -0.226832 0)
(10.33 -0.257327 0)
(10.3384 -0.283639 0)
(10.3731 -0.312397 0)
(10.3788 -0.33718 0)
(10.4152 -0.365937 0)
(10.4146 -0.388478 0)
(10.4634 -0.407932 0)
(9.99153 0.0141223 0)
(10.0466 0.0161121 0)
(10.0398 -0.0106475 0)
(10.0575 -0.0377686 0)
(10.0748 -0.0566424 0)
(10.1254 -0.0779807 0)
(10.1553 -0.099016 0)
(10.2071 -0.123992 0)
(10.2311 -0.149184 0)
(10.2753 -0.176838 0)
(10.2911 -0.203665 0)
(10.3292 -0.232415 0)
(10.3394 -0.259648 0)
(10.3736 -0.288614 0)
(10.38 -0.31597 0)
(10.414 -0.346061 0)
(10.4131 -0.37194 0)
(10.4566 -0.393789 0)
(9.99165 0.0329054 0)
(10.0502 0.0496321 0)
(10.0566 0.00989578 0)
(10.0798 -0.0181279 0)
(10.1006 -0.0403117 0)
(10.1506 -0.0615667 0)
(10.1818 -0.0837214 0)
(10.2315 -0.106538 0)
(10.2562 -0.130703 0)
(10.2983 -0.155684 0)
(10.3149 -0.181273 0)
(10.3506 -0.207542 0)
(10.3613 -0.233799 0)
(10.3925 -0.260671 0)
(10.3989 -0.287313 0)
(10.4286 -0.315589 0)
(10.428 -0.341338 0)
(10.4652 -0.363143 0)
(9.98988 0.0407121 0)
(10.0547 0.0526818 0)
(10.0828 -0.00634143 0)
(10.1167 -0.0406942 0)
(10.1419 -0.0641676 0)
(10.1903 -0.0823377 0)
(10.2223 -0.102192 0)
(10.2689 -0.121123 0)
(10.2934 -0.142885 0)
(10.3319 -0.164148 0)
(10.3482 -0.18758 0)
(10.3801 -0.210284 0)
(10.3903 -0.234611 0)
(10.4173 -0.258146 0)
(10.4227 -0.283033 0)
(10.4472 -0.308086 0)
(10.446 -0.332731 0)
(10.4766 -0.353151 0)
(9.99051 0.0316058 0)
(10.0685 0.0220551 0)
(10.1261 -0.0557331 0)
(10.1769 -0.0967703 0)
(10.2125 -0.119824 0)
(10.2609 -0.132808 0)
(10.2937 -0.147868 0)
(10.336 -0.161769 0)
(10.36 -0.179966 0)
(10.394 -0.197068 0)
(10.4102 -0.217527 0)
(10.4376 -0.236424 0)
(10.4477 -0.258188 0)
(10.47 -0.27827 0)
(10.4752 -0.30097 0)
(10.4944 -0.322609 0)
(10.4937 -0.345477 0)
(10.5185 -0.36378 0)
(9.99118 0.00988631 0)
(10.092 -0.0296754 0)
(10.187 -0.120832 0)
(10.2595 -0.162786 0)
(10.3093 -0.181168 0)
(10.359 -0.187222 0)
(10.3929 -0.196122 0)
(10.4304 -0.20447 0)
(10.4541 -0.218231 0)
(10.4836 -0.23088 0)
(10.5001 -0.247753 0)
(10.5232 -0.262796 0)
(10.5336 -0.28152 0)
(10.5516 -0.298222 0)
(10.5571 -0.318296 0)
(10.5717 -0.336645 0)
(10.5721 -0.357237 0)
(10.5918 -0.373394 0)
(9.99279 -0.0233317 0)
(10.1275 -0.103551 0)
(10.2671 -0.204896 0)
(10.3665 -0.241584 0)
(10.4319 -0.250827 0)
(10.4835 -0.248433 0)
(10.5183 -0.250963 0)
(10.5517 -0.253778 0)
(10.5753 -0.263074 0)
(10.6011 -0.271448 0)
(10.618 -0.284794 0)
(10.6377 -0.296428 0)
(10.6486 -0.312257 0)
(10.663 -0.326029 0)
(10.669 -0.343581 0)
(10.68 -0.359044 0)
(10.6812 -0.377368 0)
(10.6966 -0.391534 0)
(9.99054 -0.0715735 0)
(10.1745 -0.201124 0)
(10.368 -0.305439 0)
(10.5002 -0.32786 0)
(10.5806 -0.322587 0)
(10.6344 -0.310236 0)
(10.669 -0.305635 0)
(10.6997 -0.302645 0)
(10.7227 -0.306799 0)
(10.746 -0.310696 0)
(10.7624 -0.320034 0)
(10.7793 -0.328191 0)
(10.7894 -0.340743 0)
(10.8005 -0.351535 0)
(10.8054 -0.366144 0)
(10.8123 -0.378718 0)
(10.812 -0.394289 0)
(10.822 -0.406257 0)
(9.99201 -0.136344 0)
(10.2447 -0.322972 0)
(10.5027 -0.418978 0)
(10.6712 -0.41762 0)
(10.7627 -0.394185 0)
(10.8175 -0.371132 0)
(10.8494 -0.358983 0)
(10.8771 -0.350642 0)
(10.896 -0.350173 0)
(10.9148 -0.350587 0)
(10.9252 -0.356492 0)
(10.9354 -0.361639 0)
(10.9373 -0.370957 0)
(10.9392 -0.378834 0)
(10.9337 -0.390048 0)
(10.9289 -0.399646 0)
(10.9161 -0.411583 0)
(10.9113 -0.420747 0)
(9.98979 -0.219881 0)
(10.3369 -0.468091 0)
(10.6737 -0.539711 0)
(10.8758 -0.508215 0)
(10.9697 -0.464863 0)
(11.0135 -0.428086 0)
(11.0285 -0.40485 0)
(11.0352 -0.388437 0)
(11.029 -0.381489 0)
(11.0193 -0.377051 0)
(10.9978 -0.378281 0)
(10.9733 -0.379201 0)
(10.9375 -0.383938 0)
(10.8996 -0.387429 0)
(10.8519 -0.393811 0)
(10.8037 -0.399147 0)
(10.7457 -0.405479 0)
(10.6939 -0.410268 0)
(9.98331 -0.332054 0)
(10.4676 -0.642291 0)
(10.8829 -0.66709 0)
(11.0725 -0.602647 0)
(11.103 -0.537208 0)
(11.0583 -0.483149 0)
(10.9742 -0.445021 0)
(10.873 -0.416275 0)
(10.7576 -0.398073 0)
(10.6348 -0.383343 0)
(10.5032 -0.374973 0)
(10.3662 -0.366425 0)
(10.2237 -0.362553 0)
(10.0769 -0.357112 0)
(9.92801 -0.355976 0)
(9.77635 -0.353392 0)
(9.62507 -0.353104 0)
(9.47506 -0.351276 0)
(10.0025 -0.453668 0)
(10.619 -0.818948 0)
(10.9017 -0.752073 0)
(10.7933 -0.623767 0)
(10.4937 -0.512553 0)
(10.1376 -0.429212 0)
(9.76999 -0.373591 0)
(9.41741 -0.334757 0)
(9.07653 -0.307333 0)
(8.75511 -0.284657 0)
(8.44603 -0.267709 0)
(8.15285 -0.251393 0)
(7.872 -0.240107 0)
(7.60232 -0.227409 0)
(7.34741 -0.221208 0)
(7.09779 -0.2119 0)
(6.86925 -0.210934 0)
(6.63972 -0.20426 0)
(10.0974 -0.750787 0)
(10.0459 -1.01319 0)
(9.425 -0.801093 0)
(8.51445 -0.572195 0)
(7.65497 -0.378741 0)
(6.92879 -0.244901 0)
(6.32717 -0.167543 0)
(5.83139 -0.126273 0)
(5.4089 -0.104728 0)
(5.04824 -0.0923478 0)
(4.72807 -0.084989 0)
(4.44726 -0.0793777 0)
(4.19078 -0.0758348 0)
(3.96181 -0.071918 0)
(3.75002 -0.072161 0)
(3.55477 -0.0691103 0)
(3.38247 -0.0802914 0)
(3.21749 -0.0828846 0)
(8.51677 -0.436045 0)
(6.11029 -0.380886 0)
(4.29836 -0.138053 0)
(3.12384 -0.0213877 0)
(2.48103 0.0191307 0)
(2.12038 0.022469 0)
(1.89611 0.0137102 0)
(1.73476 0.0046119 0)
(1.59868 -0.00157323 0)
(1.47791 -0.00479449 0)
(1.36578 -0.00640819 0)
(1.26358 -0.00672307 0)
(1.16788 -0.00671068 0)
(1.08112 -0.00639275 0)
(0.999056 -0.00666039 0)
(0.918797 -0.00703669 0)
(0.851261 -0.018607 0)
(0.730739 -0.00613984 0)
(-0.0520177 0.137937 0)
(-0.157021 0.071501 0)
(-0.207047 0.0164893 0)
(-0.195289 -0.0442837 0)
(-0.118132 -0.0989865 0)
(0.0119669 -0.145019 0)
(0.185936 -0.175568 1.11353e-17)
(0.38762 -0.193536 -1.10604e-17)
(0.605786 -0.19793 0)
(0.828107 -0.19267 -1.09172e-17)
(1.0452 -0.178334 0)
(1.24809 -0.157574 0)
(1.43021 -0.130944 0)
(1.58629 -0.101589 1.06427e-17)
(1.71369 -0.0703452 0)
(1.80964 -0.038291 0)
(1.87326 -0.00615318 -1.04455e-17)
(1.90529 0.0241003 0)
(1.90738 0.0505569 0)
(1.88159 0.0722751 0)
(1.83163 0.0892389 1.01961e-17)
(1.76007 0.100806 0)
(1.67085 0.108721 1.00742e-17)
(1.56564 0.111654 0)
(1.44912 0.109738 0)
(1.32404 0.10801 9.89547e-18)
(1.19064 0.111227 0)
(1.04816 0.116291 -9.77913e-18)
(0.899772 0.121515 0)
(0.746055 0.126568 9.66424e-18)
(0.588532 0.130596 0)
(0.429471 0.133087 0)
(0.271137 0.134266 0)
(0.114012 0.134058 0)
(-0.0415936 0.131177 0)
(-0.193613 0.126491 -9.32958e-18)
(-0.340389 0.120384 0)
(-0.481495 0.113884 1.84405e-17)
(-0.615485 0.107385 0)
(-0.741919 0.100142 -1.82216e-17)
(-0.859332 0.0930882 0)
(-0.967878 0.0862901 0)
(-1.06801 0.0785184 1.78884e-17)
(-1.15924 0.0701321 0)
(-1.24222 0.062412 1.76651e-17)
(-1.31703 0.0551703 -1.75531e-17)
(-1.38317 0.0481804 0)
(-1.44149 0.0421456 -1.73281e-17)
(-1.49309 0.0368334 -1.72151e-17)
(-1.53694 0.0331665 0)
(-1.57321 0.0315843 0)
(-1.6038 0.0315747 0)
(-1.63082 0.0316756 0)
(-1.65527 0.0316547 0)
(-1.67855 0.0325196 1.65281e-17)
(-1.70246 0.0340631 0)
(-1.72837 0.0362978 -1.62988e-17)
(-1.755 0.0383454 0)
(-1.78116 0.0389894 0)
(-1.80681 0.0396221 1.59524e-17)
(-1.83269 0.0414162 0)
(-1.86066 0.0426493 -1.57211e-17)
(-1.89061 0.0443042 0)
(-1.92237 0.0457989 0)
(-1.95549 0.0466661 0)
(-1.98939 0.0478678 1.52556e-17)
(-2.02372 0.049694 0)
(-2.05874 0.0519077 0)
(-2.09423 0.0543071 1.49058e-17)
(-2.1305 0.0557684 0)
(-2.16455 0.0560056 1.46711e-17)
(-2.19551 0.0563893 0)
(-2.22325 0.0565809 0)
(-2.24674 0.0564223 0)
(-2.26505 0.0558312 -1.4205e-17)
(-2.27745 0.0546184 0)
(-2.28465 0.053912 0)
(-2.28857 0.0538626 -1.38612e-17)
(-2.28964 0.0529145 -1.37478e-17)
(-2.28611 0.0512717 0)
(-2.2762 0.0490127 -1.35225e-17)
(-2.25976 0.0460864 0)
(-2.2364 0.0429234 -2.66021e-17)
(-2.20611 0.0394847 0)
(-2.16944 0.0358074 -2.61667e-17)
(-2.12624 0.032752 0)
(-2.07752 0.0303553 2.57379e-17)
(-2.02413 0.0283836 0)
(-1.96614 0.0269398 0)
(-1.9042 0.0259511 0)
(-1.83986 0.0253448 -2.49008e-17)
(-1.77289 0.0250634 0)
(-1.70489 0.0250154 2.44991e-17)
(-1.63595 0.0256477 0)
(-1.56683 0.0267743 -2.41098e-17)
(-1.49946 0.0293624 -2.39212e-17)
(-1.43297 0.0305503 -2.37369e-17)
(-1.36637 0.0316037 0)
(-1.30147 0.0316106 0)
(-1.23703 0.032734 0)
(-1.17117 0.033397 0)
(-1.10604 0.0328645 0)
(-1.03589 0.0317299 0)
(-0.96678 0.0330535 0)
(-0.895487 0.0326991 0)
(-0.828039 0.0351386 2.22129e-17)
(-0.760244 0.0356303 2.20606e-17)
(-0.697374 0.0399308 0)
(-0.636227 0.0411743 0)
(-0.580238 0.0408974 0)
(-0.512484 0.0383217 2.14801e-17)
(-0.450152 0.0425141 0)
(-0.381181 0.0407467 0)
(-0.316282 0.0437227 0)
(-0.245685 0.0407254 0)
(-0.173169 0.0433009 -2.08057e-17)
(-0.098915 0.0450434 0)
(-0.0193646 0.0441064 0)
(0.0649669 0.0454864 2.04287e-17)
(0.153035 0.0452164 -2.03072e-17)
(0.244779 0.0444294 0)
(0.341159 0.0482581 -2.00746e-17)
(0.432925 0.0511603 0)
(0.525883 0.054316 1.98482e-17)
(0.608714 0.0590948 0)
(0.680256 0.0620747 0)
(0.755756 0.0624298 0)
(0.824985 0.063219 0)
(0.90442 0.0604378 0)
(0.97769 0.0610211 -3.83968e-17)
(1.05305 0.0627432 -3.81778e-17)
(1.11249 0.0676736 0)
(1.16244 0.0663976 0)
(1.20763 0.0673625 0)
(1.24555 0.0633714 3.72532e-17)
(1.29458 0.058678 0)
(1.34487 0.0570677 0)
(1.39044 0.0559165 0)
(1.43911 0.0540773 3.62329e-17)
(1.47612 0.0567592 -3.59648e-17)
(1.51909 0.0526673 0)
(1.55821 0.0526935 0)
(1.5997 0.053166 -3.51501e-17)
(1.62579 0.0582846 -3.48773e-17)
(1.65566 0.0549777 0)
(1.68395 0.0587637 0)
(1.72294 0.0557259 3.40444e-17)
(1.75927 0.0659575 -3.3765e-17)
(1.76752 0.0713599 0)
(1.78108 0.0707321 0)
(1.80648 0.0710684 -3.29284e-17)
(1.83976 0.0758212 0)
(1.85337 0.0833774 0)
(1.86479 0.08917 -3.20845e-17)
(1.86403 0.093264 0)
(1.87828 0.0980818 -3.15244e-17)
(1.88047 0.105013 0)
(1.88653 0.109073 0)
(1.87424 0.120632 0)
(1.86144 0.126457 3.04349e-17)
(1.84731 0.13284 0)
(1.81595 0.142809 0)
(1.74404 0.154557 0)
(1.66762 0.154548 0)
(1.60248 0.156812 0)
(1.51277 0.165663 0)
(1.3845 0.172469 2.88929e-17)
(1.26569 0.173794 2.87389e-17)
(1.08169 0.181829 0)
(0.874727 0.18454 0)
(0.631485 0.183509 0)
(0.415845 0.16972 -2.83213e-17)
(0.194043 0.162747 0)
(0.0420404 0.146601 5.63475e-17)
(-0.158922 0.144038 -5.62379e-17)
(-0.262377 0.123706 -5.60587e-17)
(-0.423738 0.126786 5.59546e-17)
(-0.459108 0.0966598 -5.57521e-17)
(-0.61669 0.129153 5.57322e-17)
(-0.564351 -0.00401816 0)
(0.0101323 0.248764 0)
(0.0145631 0.19214 0)
(0.0495746 0.0080345 -2.27957e-17)
(0.120784 -0.197995 0)
(0.235558 -0.383967 2.23645e-17)
(0.387736 -0.535395 2.22179e-17)
(0.568751 -0.644315 1.10436e-17)
(0.768505 -0.710283 1.09812e-17)
(0.975665 -0.736911 0)
(1.17969 -0.73064 1.08542e-17)
(1.37191 -0.694791 0)
(1.54504 -0.636474 0)
(1.69511 -0.561815 -2.132e-17)
(1.8174 -0.477332 -1.05948e-17)
(1.91183 -0.385363 2.10555e-17)
(1.97665 -0.290808 2.09221e-17)
(2.0132 -0.198491 1.03954e-17)
(2.0216 -0.110462 0)
(2.00429 -0.0274737 0)
(1.96127 0.0472132 0)
(1.89639 0.11261 1.01365e-17)
(1.80973 0.171607 0)
(1.70596 0.224364 -3.0037e-17)
(1.58387 0.267033 0)
(1.4458 0.301849 0)
(1.29224 0.332287 -9.83178e-18)
(1.12669 0.356156 0)
(0.951882 0.373365 9.71544e-18)
(0.771665 0.384366 1.93125e-17)
(0.586928 0.391612 -9.59745e-18)
(0.400447 0.393707 0)
(0.213477 0.389929 0)
(0.0256949 0.382677 0)
(-0.16241 0.375753 1.87309e-17)
(-0.349085 0.367203 1.86165e-17)
(-0.533027 0.354966 9.25123e-18)
(-0.711496 0.340237 0)
(-0.885007 0.323189 -1.82761e-17)
(-1.04964 0.30267 0)
(-1.20765 0.280787 1.80507e-17)
(-1.35744 0.258318 0)
(-1.50066 0.235506 0)
(-1.63575 0.21512 -1.77166e-17)
(-1.76367 0.196043 0)
(-1.88685 0.178124 -5.24863e-17)
(-2.00435 0.159383 1.73856e-17)
(-2.11527 0.140505 0)
(-2.21921 0.123674 1.71654e-17)
(-2.31703 0.106126 1.70552e-17)
(-2.40747 0.086661 0)
(-2.48869 0.0677798 0)
(-2.56282 0.0532753 0)
(-2.63172 0.0438229 0)
(-2.69731 0.0389551 0)
(-2.75906 0.0375417 -1.63736e-17)
(-2.81891 0.037022 -3.2515e-17)
(-2.87723 0.0370745 1.61414e-17)
(-2.93113 0.0344794 0)
(-2.98275 0.0305414 -3.18129e-17)
(-3.03223 0.0292185 1.57874e-17)
(-3.07889 0.0302021 0)
(-3.12655 0.0311249 1.55499e-17)
(-3.17202 0.0338091 0)
(-3.21551 0.0352157 0)
(-3.25736 0.0347513 3.03752e-17)
(-3.29822 0.0340869 -1.50673e-17)
(-3.33453 0.0319988 2.98917e-17)
(-3.36828 0.0292022 -2.96504e-17)
(-3.39603 0.0254776 -1.47046e-17)
(-3.42058 0.0206164 0)
(-3.43875 0.0130095 -1.44628e-17)
(-3.45018 0.00278318 0)
(-3.45591 -0.00796174 0)
(-3.45322 -0.0204846 0)
(-3.44131 -0.0347108 -1.39829e-17)
(-3.42116 -0.0486916 0)
(-3.39454 -0.0587857 -2.74948e-17)
(-3.36217 -0.0658692 4.08937e-17)
(-3.32446 -0.074354 1.35161e-17)
(-3.28047 -0.0853672 0)
(-3.22857 -0.0980306 1.32876e-17)
(-3.17144 -0.110635 0)
(-3.1087 -0.122634 2.61237e-17)
(-3.04084 -0.133582 0)
(-2.96802 -0.143993 2.56807e-17)
(-2.89016 -0.153314 -5.09215e-17)
(-2.80842 -0.162201 -2.52469e-17)
(-2.72434 -0.170197 0)
(-2.63522 -0.177766 0)
(-2.5439 -0.183416 0)
(-2.45037 -0.187559 2.44069e-17)
(-2.35357 -0.191572 0)
(-2.25554 -0.194226 -2.40007e-17)
(-2.15757 -0.194505 0)
(-2.05899 -0.195998 7.0821e-17)
(-1.96044 -0.195309 2.34168e-17)
(-1.86124 -0.196306 2.32308e-17)
(-1.76411 -0.193562 0)
(-1.66929 -0.193179 0)
(-1.57377 -0.194375 0)
(-1.47562 -0.195268 0)
(-1.37841 -0.197787 0)
(-1.27548 -0.202116 4.43216e-17)
(-1.17882 -0.20026 4.39856e-17)
(-1.0787 -0.200385 0)
(-0.990756 -0.194847 -2.16749e-17)
(-0.89389 -0.195834 -2.15227e-17)
(-0.806496 -0.188985 0)
(-0.711626 -0.18771 -4.24427e-17)
(-0.633205 -0.186779 0)
(-0.536849 -0.196901 2.09371e-17)
(-0.451065 -0.190936 0)
(-0.345358 -0.199289 0)
(-0.250769 -0.195677 -4.10564e-17)
(-0.137826 -0.204184 0)
(-0.0338908 -0.204059 2.02716e-17)
(0.0908749 -0.211429 0)
(0.216615 -0.219192 0)
(0.352335 -0.223644 1.98864e-17)
(0.492578 -0.228764 1.97701e-17)
(0.638172 -0.234632 0)
(0.787559 -0.23541 -1.95329e-17)
(0.947347 -0.236762 0)
(1.10649 -0.228924 1.92963e-17)
(1.27176 -0.219107 3.83626e-17)
(1.41927 -0.212708 0)
(1.57619 -0.21363 0)
(1.72077 -0.213544 0)
(1.88006 -0.214894 0)
(2.02613 -0.209888 3.7231e-17)
(2.17991 -0.206575 1.11009e-16)
(2.31554 -0.18736 0)
(2.43887 -0.182918 0)
(2.55786 -0.17298 0)
(2.66337 -0.175114 -3.60808e-17)
(2.76651 -0.179733 0)
(2.86811 -0.178974 0)
(2.96369 -0.17717 7.06178e-17)
(3.05753 -0.176271 3.50345e-17)
(3.13123 -0.170171 3.47656e-17)
(3.21824 -0.179583 0)
(3.28203 -0.173638 0)
(3.35015 -0.175018 3.39215e-17)
(3.39625 -0.164005 -3.36159e-17)
(3.44221 -0.178111 0)
(3.47146 -0.174729 0)
(3.50583 -0.190889 -3.27234e-17)
(3.5338 -0.173033 9.71942e-17)
(3.54841 -0.168765 0)
(3.55899 -0.17968 0)
(3.57041 -0.191383 3.14622e-17)
(3.591 -0.189258 0)
(3.58682 -0.182799 6.16314e-17)
(3.585 -0.180906 -3.04747e-17)
(3.55805 -0.185353 0)
(3.55441 -0.194426 2.98486e-17)
(3.53069 -0.190998 5.90623e-17)
(3.51977 -0.192655 0)
(3.47409 -0.185981 0)
(3.45103 -0.194931 -2.85774e-17)
(3.41172 -0.186944 0)
(3.35485 -0.169493 5.58922e-17)
(3.25858 -0.150246 0)
(3.16699 -0.155354 0)
(3.04805 -0.147028 0)
(2.91986 -0.121777 0)
(2.72501 -0.102593 -2.66537e-17)
(2.56632 -0.0758423 -2.64644e-17)
(2.28209 -0.0263037 0)
(2.009 -0.00143036 0)
(1.67924 0.0227854 0)
(1.38435 0.0187391 2.59588e-17)
(1.05109 0.0233459 0)
(0.843612 0.014302 -5.16694e-17)
(0.522569 0.0333723 5.1642e-17)
(0.407283 0.00122151 5.14937e-17)
(0.126297 0.0320763 5.1484e-17)
(0.126191 -0.0158016 5.13312e-17)
(-0.170156 0.0788028 5.14948e-17)
(0.0165534 -0.11727 0)
(0.0290318 0.0711756 0)
(0.120949 -0.0380129 0)
(0.227783 -0.240961 2.29127e-17)
(0.33968 -0.467681 2.26642e-17)
(0.473948 -0.692237 -2.25128e-17)
(0.617901 -0.874185 -2.24002e-17)
(0.771963 -1.00292 -1.48202e-21)
(0.923119 -1.07326 0)
(1.06808 -1.08407 0)
(1.19469 -1.04491 0)
(1.30325 -0.965056 0)
(1.389 -0.855762 0)
(1.45434 -0.72526 6.47122e-17)
(1.4948 -0.585062 0)
(1.51321 -0.440282 -2.1305e-17)
(1.5078 -0.293905 -2.11687e-17)
(1.48144 -0.152603 0)
(1.43272 -0.0192316 0)
(1.36629 0.104493 0)
(1.28188 0.216825 0)
(1.18181 0.316022 -2.05026e-17)
(1.0669 0.398918 0)
(0.942154 0.471157 2.02486e-17)
(0.804843 0.536157 0)
(0.657843 0.590895 0)
(0.502516 0.635698 0)
(0.344276 0.671527 3.95252e-17)
(0.1821 0.69862 0)
(0.0184958 0.717941 -1.95224e-17)
(-0.146093 0.728241 3.88e-17)
(-0.309939 0.73134 0)
(-0.476045 0.733027 0)
(-0.642346 0.729999 0)
(-0.807453 0.720499 -1.89166e-17)
(-0.968946 0.705257 -1.87958e-17)
(-1.12723 0.683776 0)
(-1.28073 0.656493 0)
(-1.42866 0.625007 3.6859e-17)
(-1.56964 0.590995 3.66193e-17)
(-1.70891 0.556684 -3.63811e-17)
(-1.84316 0.523997 0)
(-1.97564 0.490526 0)
(-2.1025 0.458399 0)
(-2.22569 0.429076 0)
(-2.34467 0.401447 3.52002e-17)
(-2.45764 0.372238 3.49666e-17)
(-2.56549 0.342645 -3.47346e-17)
(-2.66774 0.314158 0)
(-2.76393 0.286305 0)
(-2.8548 0.257343 0)
(-2.94034 0.230552 0)
(-3.02592 0.212789 3.35754e-17)
(-3.10558 0.196922 0)
(-3.18021 0.183744 0)
(-3.24834 0.175982 3.28779e-17)
(-3.31179 0.170831 3.26462e-17)
(-3.36988 0.163968 0)
(-3.42036 0.154621 -6.43593e-17)
(-3.4689 0.147777 3.19483e-17)
(-3.51348 0.141366 -3.17139e-17)
(-3.55232 0.137621 0)
(-3.58824 0.134938 0)
(-3.61815 0.130775 0)
(-3.64315 0.126547 0)
(-3.66561 0.121319 -3.05525e-17)
(-3.68376 0.113888 -6.06459e-17)
(-3.69565 0.105881 -3.00973e-17)
(-3.70377 0.0973636 2.98724e-17)
(-3.70465 0.0857222 0)
(-3.7004 0.0724566 -5.88392e-17)
(-3.68818 0.0563607 -5.83908e-17)
(-3.6707 0.0401547 -5.79458e-17)
(-3.64898 0.0223157 5.7504e-17)
(-3.61844 -2.7888e-05 0)
(-3.58096 -0.0227545 8.49404e-17)
(-3.53761 -0.0421879 0)
(-3.48954 -0.0575196 -2.78772e-17)
(-3.43295 -0.0711746 -2.76642e-17)
(-3.36844 -0.0867252 0)
(-3.29775 -0.103453 0)
(-3.22356 -0.120096 -5.40402e-17)
(-3.14718 -0.134831 0)
(-3.06682 -0.148964 -5.3193e-17)
(-2.9839 -0.162528 0)
(-2.89642 -0.176772 5.23542e-17)
(-2.80543 -0.188036 1.03881e-16)
(-2.71076 -0.197692 0)
(-2.61534 -0.206871 0)
(-2.51689 -0.214373 0)
(-2.41978 -0.220608 5.02913e-17)
(-2.32085 -0.226433 0)
(-2.21863 -0.231149 4.94697e-17)
(-2.11348 -0.234468 0)
(-2.0078 -0.233724 0)
(-1.8996 -0.233883 -9.65067e-17)
(-1.79415 -0.231499 0)
(-1.68669 -0.231051 -4.7462e-17)
(-1.5834 -0.225141 0)
(-1.47579 -0.226129 -4.66941e-17)
(-1.36897 -0.225662 0)
(-1.2599 -0.22506 0)
(-1.15213 -0.22907 0)
(-1.04135 -0.231543 -1.35693e-16)
(-0.940764 -0.223298 -4.48692e-17)
(-0.831164 -0.220136 0)
(-0.737498 -0.209694 0)
(-0.635349 -0.210968 0)
(-0.549667 -0.198451 0)
(-0.445369 -0.194438 4.32343e-17)
(-0.359443 -0.188956 -8.58332e-17)
(-0.252444 -0.20556 -4.26315e-17)
(-0.16522 -0.197807 8.4655e-17)
(-0.0454507 -0.213861 8.4092e-17)
(0.0563614 -0.209664 4.176e-17)
(0.186387 -0.224533 0)
(0.299042 -0.224887 8.2394e-17)
(0.437744 -0.240384 0)
(0.56953 -0.24957 -8.12825e-17)
(0.717533 -0.256417 -4.03833e-17)
(0.863375 -0.261759 0)
(1.01815 -0.270452 7.97612e-17)
(1.16705 -0.273561 3.96273e-17)
(1.32914 -0.28175 0)
(1.48741 -0.280068 3.90893e-17)
(1.66147 -0.269196 -1.16507e-16)
(1.82025 -0.256911 0)
(1.9846 -0.255745 0)
(2.13609 -0.255211 0)
(2.29597 -0.258244 0)
(2.45182 -0.253569 -7.5155e-17)
(2.60715 -0.250498 -7.46565e-17)
(2.75784 -0.219385 0)
(2.89537 -0.21407 0)
(3.02625 -0.201937 0)
(3.14789 -0.200602 0)
(3.25507 -0.205678 0)
(3.37476 -0.20853 0)
(3.48809 -0.207574 -7.09545e-17)
(3.60165 -0.205026 -1.65069e-20)
(3.69496 -0.195686 0)
(3.80504 -0.208953 0)
(3.89291 -0.196599 -6.86095e-17)
(3.98597 -0.197306 0)
(4.06416 -0.176425 6.74289e-17)
(4.13412 -0.187369 6.68119e-17)
(4.17537 -0.170027 0)
(4.22998 -0.18857 0)
(4.26808 -0.164576 -6.4904e-17)
(4.31851 -0.155885 -1.28519e-16)
(4.34597 -0.160135 0)
(4.37917 -0.172324 0)
(4.42073 -0.163262 0)
(4.43434 -0.149025 -6.16974e-17)
(4.46311 -0.135903 6.10099e-17)
(4.46315 -0.135717 0)
(4.48321 -0.141995 1.19385e-16)
(4.46763 -0.130205 5.90386e-17)
(4.48514 -0.128905 -1.16784e-16)
(4.46382 -0.110549 0)
(4.46333 -0.117624 0)
(4.43402 -0.0962601 -1.12765e-16)
(4.39377 -0.0683081 -5.57222e-17)
(4.3106 -0.0388398 0)
(4.24729 -0.0365284 0)
(4.11548 -0.0184191 0)
(4.00588 0.0246665 0)
(3.79393 0.0524335 -1.05594e-16)
(3.62536 0.095743 0)
(3.32753 0.167155 0)
(3.06871 0.191974 0)
(2.7184 0.219761 0)
(2.40435 0.20274 0)
(2.0155 0.187107 0)
(1.77811 0.154135 -1.00637e-16)
(1.37268 0.151761 0)
(1.243 0.0832336 0)
(0.859036 0.105432 -1.99416e-16)
(0.854061 0.0229335 9.9247e-17)
(0.468621 0.111427 -9.94016e-17)
(0.66398 -0.128447 9.87822e-17)
(0.0206151 -0.0938788 0)
(0.124842 -0.268618 -4.69555e-17)
(0.247404 -0.488911 0)
(0.375167 -0.754327 -2.27966e-17)
(0.501645 -0.997954 0)
(0.617518 -1.18678 0)
(0.721844 -1.30437 2.24456e-17)
(0.802128 -1.34758 0)
(0.8646 -1.31764 0)
(0.903425 -1.23178 0)
(0.925095 -1.10901 0)
(0.927468 -0.959765 0)
(0.915406 -0.792669 -8.66155e-17)
(0.886303 -0.615605 -4.3025e-17)
(0.843635 -0.432971 4.27455e-17)
(0.787119 -0.252072 0)
(0.718819 -0.079577 0)
(0.637359 0.0816069 0)
(0.546225 0.230088 0)
(0.444902 0.363198 0)
(0.336171 0.480531 -4.11508e-17)
(0.218213 0.582216 -4.08982e-17)
(0.0923482 0.672804 4.0649e-17)
(-0.0392809 0.748722 -4.04013e-17)
(-0.175018 0.811376 0)
(-0.313505 0.859356 0)
(-0.453496 0.895284 -3.9658e-17)
(-0.593839 0.919913 0)
(-0.7351 0.93398 0)
(-0.876903 0.942542 -3.89248e-17)
(-1.01929 0.947991 -3.86815e-17)
(-1.15952 0.945683 -3.84371e-17)
(-1.2967 0.936608 0)
(-1.43062 0.921348 0)
(-1.55997 0.899911 3.76935e-17)
(-1.68435 0.870316 0)
(-1.80479 0.834837 0)
(-1.92165 0.795444 -3.69486e-17)
(-2.03553 0.75755 3.6697e-17)
(-2.14788 0.719567 -3.64482e-17)
(-2.25382 0.680954 0)
(-2.35811 0.641717 0)
(-2.45839 0.605526 -7.1419e-17)
(-2.55594 0.571422 0)
(-2.64817 0.533415 -7.04531e-17)
(-2.73693 0.495406 -1.04962e-16)
(-2.82205 0.459616 1.04241e-16)
(-2.90188 0.423344 -6.90141e-17)
(-2.97852 0.386109 0)
(-3.05254 0.350495 0)
(-3.12613 0.322335 -6.76018e-17)
(-3.19694 0.297851 -3.35704e-17)
(-3.2614 0.272294 0)
(-3.32169 0.251239 0)
(-3.37739 0.235921 -3.28783e-17)
(-3.42766 0.219082 -6.52968e-17)
(-3.47171 0.200153 0)
(-3.50978 0.18226 6.43789e-17)
(-3.54401 0.167917 -6.39198e-17)
(-3.57286 0.154359 6.3464e-17)
(-3.59597 0.140516 0)
(-3.61285 0.127288 0)
(-3.62535 0.116143 0)
(-3.63251 0.10493 0)
(-3.63601 0.0947418 0)
(-3.6341 0.0788246 6.07742e-17)
(-3.62784 0.061523 0)
(-3.61491 0.0426868 0)
(-3.59616 0.0215147 0)
(-3.57325 -0.000535159 1.18046e-16)
(-3.54481 -0.0245731 5.85909e-17)
(-3.51161 -0.048634 5.81573e-17)
(-3.47343 -0.0756999 -1.15456e-16)
(-3.42887 -0.107183 5.73032e-17)
(-3.3809 -0.137305 -5.68838e-17)
(-3.32671 -0.164801 0)
(-3.26761 -0.19064 5.60366e-17)
(-3.19862 -0.217214 0)
(-3.12552 -0.242392 0)
(-3.04685 -0.264272 0)
(-2.96672 -0.285001 1.08717e-16)
(-2.88448 -0.304052 -5.39452e-17)
(-2.79894 -0.323015 -5.35318e-17)
(-2.71219 -0.341834 -1.06269e-16)
(-2.62148 -0.361652 -1.58213e-16)
(-2.52982 -0.377422 -5.23425e-17)
(-2.43336 -0.390276 0)
(-2.33733 -0.401696 -1.03069e-16)
(-2.23977 -0.409755 0)
(-2.14232 -0.41613 -1.52205e-16)
(-2.04403 -0.426133 0)
(-1.94683 -0.432639 -1.49833e-16)
(-1.84344 -0.439111 0)
(-1.73948 -0.439911 0)
(-1.63061 -0.441621 -4.87475e-17)
(-1.52315 -0.43849 0)
(-1.41226 -0.438202 4.79728e-17)
(-1.30614 -0.43376 9.51575e-17)
(-1.19211 -0.435764 4.72041e-17)
(-1.08205 -0.437904 9.36507e-17)
(-0.96348 -0.438756 -9.28938e-17)