/*--------------------------------*- C++ -*----------------------------------*\
| =========                 |                                                 |
| \\      /  F ield         | OpenFOAM: The Open Source CFD Toolbox           |
|  \\    /   O peration     | Version:  dev                                   |
|   \\  /    A nd           | Web:      http://www.openfoam.org               |
|    \\/     M anipulation  |                                                 |
\*---------------------------------------------------------------------------*/
FoamFile
{
    version     2.0;
    format      ascii;
    class       volScalarField;
    object      k;
    location    "9.147";
}
// * * * * * * * * * * * * * * * * * * * * * * * * * * * * * * * * * * * * * //

dimensions      [0 2 -2 0 0 0 0];

internalField   nonuniform List<scalar> 
12225
(
7.60612
9.56319
5.85642
6.55005
4.92149
6.29769
6.04065
6.98631
7.89579
8.25851
10.3039
10.1414
13.6446
12.3397
17.8163
14.1835
20.7446
26.2043
1.30739
6.31609
5.16102
6.76078
4.73303
6.33929
4.56298
5.99425
4.67922
5.8682
5.06467
5.79257
5.73847
5.96635
7.41905
6.52233
17.9878
26.5185
0.120378
1.65324
1.90465
2.79045
2.80096
2.89106
3.1424
2.92484
3.06522
2.65098
3.01813
2.37073
2.92668
2.14343
3.74956
2.5316
9.51644
18.6616
0.0100528
0.209019
0.575615
0.72547
1.21252
1.11323
1.46579
1.2559
1.53602
1.21997
1.53522
1.11743
1.42342
0.973499
1.72764
1.19423
3.62305
7.38564
0.00633779
0.087849
0.210807
0.277117
0.474303
0.467191
0.606027
0.557849
0.672
0.569064
0.698188
0.551567
0.712109
0.478366
0.825519
0.614415
1.30743
2.09535
0.00713457
0.0205646
0.0684732
0.0785125
0.180683
0.162354
0.239437
0.224614
0.306723
0.251943
0.333383
0.270616
0.362062
0.258854
0.420036
0.351823
0.600628
0.655195
0.00758996
0.0133951
0.0284593
0.0313933
0.0692791
0.0624317
0.0941175
0.0912695
0.137478
0.109142
0.150568
0.127734
0.173054
0.139264
0.214397
0.183177
0.280142
0.277875
0.0101655
0.0168711
0.0215778
0.0229196
0.0338177
0.0304983
0.0439447
0.0437121
0.0648138
0.0550817
0.0725145
0.0651796
0.0838594
0.0735311
0.10353
0.0958412
0.129134
0.13813
0.0159911
0.0246719
0.0237574
0.0233269
0.0257277
0.0249433
0.0290658
0.0293075
0.0380035
0.03577
0.0431576
0.0407544
0.0478333
0.0458177
0.0575102
0.0578055
0.0740658
0.0821501
0.0277877
0.0374851
0.0319131
0.0295828
0.0263692
0.0243687
0.0251627
0.0253546
0.0285076
0.0272672
0.0309223
0.0291665
0.0318754
0.0315394
0.0375578
0.0391952
0.0459842
0.0516874
0.0548353
0.0643945
0.0528504
0.0474676
0.0343471
0.0281087
0.0272187
0.0256701
0.027004
0.025002
0.0254284
0.0239779
0.0247126
0.0244369
0.0267095
0.0279021
0.0300387
0.0335568
0.106814
0.116282
0.0929757
0.0797198
0.0573934
0.0431426
0.0345418
0.0292233
0.0273351
0.0247999
0.0236505
0.0223384
0.0222818
0.022244
0.0225742
0.0233458
0.02494
0.0281872
0.185462
0.196922
0.157136
0.121746
0.0880791
0.0683031
0.0520351
0.0392506
0.0315672
0.0267415
0.0241008
0.0225186
0.0218895
0.0218599
0.0222051
0.0229515
0.0239986
0.0265914
0.321061
0.323101
0.253129
0.191214
0.138325
0.101683
0.0754512
0.0562308
0.0425979
0.0333937
0.0280624
0.0252565
0.024174
0.0241001
0.0241958
0.0246457
0.0259816
0.0295545
0.540054
0.53343
0.412285
0.305841
0.225044
0.164802
0.121025
0.0896447
0.0667868
0.0509437
0.0409605
0.0355768
0.0335046
0.0330517
0.033072
0.0336123
0.0357453
0.0431163
0.83089
0.800404
0.59787
0.426156
0.301532
0.212465
0.150408
0.108275
0.0801128
0.0620106
0.0511354
0.0453123
0.0429041
0.0422986
0.0423161
0.0429727
0.0454057
0.0542441
0.95836
0.900806
0.655293
0.461069
0.323388
0.226399
0.159297
0.113893
0.0839081
0.0649201
0.0537168
0.0477728
0.0452333
0.0445511
0.0445868
0.0451852
0.0474357
0.0558047
0.962731
0.895154
0.647381
0.455639
0.320049
0.22494
0.15904
0.114066
0.0841223
0.06501
0.0537092
0.0477263
0.0451101
0.0443369
0.0444124
0.0449552
0.0468714
0.0539491
0.757949
0.729984
0.561383
0.403219
0.287857
0.205398
0.147299
0.107053
0.079901
0.0622995
0.0516692
0.0458397
0.0430558
0.041971
0.0419065
0.0422234
0.0435448
0.0486551
0.466786
0.450146
0.36237
0.269485
0.199246
0.147698
0.11027
0.0834933
0.0647375
0.0519192
0.0436475
0.0387088
0.036178
0.0347746
0.0342999
0.0343231
0.0349622
0.0378282
0.290107
0.275159
0.21247
0.15635
0.115784
0.0870093
0.0659207
0.0500445
0.039172
0.0322417
0.0280167
0.0257556
0.0247581
0.0245312
0.024676
0.0253951
0.0264668
0.0286791
0.154971
0.149888
0.122807
0.0948073
0.0718613
0.0543225
0.0414255
0.0336065
0.028638
0.025678
0.023934
0.0228912
0.0225517
0.0226141
0.0230253
0.0244241
0.0255444
0.0270842
0.0809795
0.0787643
0.0670522
0.0506898
0.040434
0.0354858
0.032504
0.0294289
0.0268179
0.0253411
0.0245398
0.0244556
0.0246067
0.0252908
0.0264963
0.028192
0.0291774
0.0302366
0.0388142
0.0382797
0.0326128
0.0303908
0.0315561
0.0327642
0.0334531
0.0342454
0.0347548
0.0354011
0.0362223
0.0379009
0.0400358
0.0431014
0.0452744
0.0471195
0.0480778
0.0487004
0.0148304
0.0170316
0.0214583
0.0274793
0.0389863
0.0528112
0.0629562
0.0716383
0.0776229
0.0835887
0.0878602
0.094442
0.10082
0.106636
0.110042
0.112286
0.113095
0.113863
0.00448957
0.0125684
0.0309089
0.0674998
0.121543
0.170845
0.204002
0.225425
0.239529
0.251722
0.261137
0.273215
0.283574
0.290445
0.293314
0.294714
0.29459
0.295875
0.00436006
0.0535599
0.175008
0.339111
0.504153
0.623713
0.68595
0.713579
0.727094
0.737504
0.746226
0.756188
0.760055
0.757167
0.752246
0.747519
0.74286
0.744001
0.0546545
0.499137
1.15634
1.53366
1.80256
1.94115
1.96606
1.95019
1.92318
1.8939
1.86576
1.83402
1.78522
1.73021
1.6862
1.64591
1.61141
1.58971
0.902322
3.68603
4.88022
4.92833
4.72878
4.35423
3.99634
3.71382
3.48179
3.27735
3.10016
2.94858
2.82253
2.70104
2.58656
2.46663
2.36126
2.26885
6.90634
10.1594
9.04841
7.14546
5.78223
5.0266
4.64272
4.4528
4.3645
4.33127
4.31436
4.3072
4.2955
4.27268
4.2307
4.18036
4.11568
3.99885
0.0538867
0.101258
0.120375
0.141865
0.168343
0.189549
0.205742
0.217709
0.228547
0.242911
0.252688
0.263716
0.27655
0.295241
0.322166
0.35578
0.402622
0.458109
0.519873
0.604581
0.725067
0.86895
1.03048
1.21043
1.40137
1.64818
1.92
2.18948
2.54348
2.90119
3.2788
3.77955
4.20258
4.58123
5.00707
5.21417
5.32472
5.44242
5.43378
5.19471
4.35357
3.70973
3.35418
3.08732
2.88599
2.77674
2.75671
2.78764
2.8319
2.87351
2.91545
2.95518
2.98824
3.02497
3.08595
3.21673
3.48509
3.77428
3.93422
3.97883
3.93517
3.86025
3.76469
3.65832
3.50741
3.59236
3.74504
3.8131
3.76984
3.81848
4.0072
4.10759
4.30411
4.84174
6.16477
7.22529
7.96932
8.60838
9.09357
9.42126
9.62567
9.725
9.6564
9.5058
9.26303
8.9932
8.67278
8.35811
7.99171
7.59558
7.11825
6.62056
6.07016
5.56417
5.00215
4.42952
3.90656
3.54547
3.19303
2.88904
2.54745
2.35343
2.19213
2.06428
1.97206
1.89916
1.85874
1.83548
1.82333
1.82282
1.84782
1.86135
1.87421
1.96335
2.09257
2.10705
2.06259
2.07374
2.0673
1.95869
1.91198
2.0075
2.35391
2.91762
3.48279
3.86317
3.98413
3.94907
3.97113
4.13461
4.37758
4.58084
4.95242
5.48364
6.56616
7.99808
8.80114
8.80366
8.44845
8.48691
8.95515
9.82452
10.3966
10.604
10.8543
10.7909
10.6669
11.1091
11.4325
11.5535
11.4238
11.067
10.8244
9.89779
8.77167
8.20819
8.09449
7.73176
7.05831
6.60045
6.15796
5.70555
5.09209
4.41151
3.76238
3.36873
3.21204
3.20092
3.23426
3.32629
3.5777
3.93532
4.53632
5.17682
6.5981
7.91055
8.93014
10.9499
13.7859
17.2154
0.261246
0.103322
0.101121
0.117012
0.141073
0.168121
0.188536
0.196471
0.196667
0.190151
0.175351
0.162994
0.157138
0.15662
0.158392
0.163916
0.17807
0.192424
0.198857
0.200162
0.198496
0.19817
0.19979
0.205771
0.215619
0.232096
0.254003
0.273452
0.2999
0.331173
0.360165
0.42187
0.513657
0.635778
0.758315
0.988155
1.2441
1.40214
1.72315
2.04416
2.19128
2.21577
2.19756
2.10092
1.79349
1.45885
1.24826
1.12296
1.04732
1.02378
1.01656
0.996369
0.899993
0.778041
0.688453
0.676257
0.723511
0.923031
1.36553
1.89628
2.07668
2.00638
1.6725
1.29845
1.17892
1.24134
1.43757
1.545
1.77932
2.53199
3.8202
4.23543
4.39941
4.72671
4.93599
4.67018
4.2899
3.90461
3.5182
3.15921
2.84924
2.58353
2.34816
2.1427
1.99382
1.85486
1.76163
1.65018
1.54105
1.42557
1.32221
1.22306
1.13132
1.04713
0.95143
0.901937
0.885217
0.879968
0.85143
0.821756
0.811386
0.81635
0.824929
0.831891
0.857751
0.871603
0.910494
0.962319
1.00768
1.0243
1.08228
1.13036
1.13012
1.15844
1.28525
1.39363
1.41143
1.43938
1.48799
1.47986
1.45389
1.44434
1.48223
1.69054
1.93365
2.25192
2.45808
2.42864
2.3211
2.38317
2.65682
2.78898
2.96607
3.42331
4.674
6.18415
6.26508
4.90297
3.99719
4.05076
4.78857
6.0963
6.56747
6.43917
6.27406
5.39501
5.02128
5.57414
6.81178
7.01745
7.01742
6.87721
6.69538
5.60875
5.10711
5.22736
5.72826
5.63866
5.21052
5.04178
4.96563
4.85005
4.52067
4.01065
3.42646
3.06916
2.9891
3.00303
3.1939
3.2994
3.33389
3.48468
3.6634
3.84129
4.316
4.88678
5.23166
5.75757
6.79832
8.92112
0.74334
0.148151
0.0983995
0.105497
0.134548
0.178588
0.207847
0.210024
0.196553
0.160166
0.135964
0.127072
0.126727
0.129874
0.137278
0.144776
0.152461
0.15598
0.155628
0.149797
0.140406
0.136331
0.136229
0.137254
0.138203
0.13791
0.137957
0.138601
0.139718
0.140035
0.139489
0.13981
0.143142
0.152374
0.166541
0.19421
0.256955
0.304765
0.385985
0.525363
0.661735
0.821852
0.980501
1.21622
1.32444
1.32091
1.25866
1.04924
0.811313
0.646816
0.538195
0.462262
0.39109
0.342452
0.310926
0.307165
0.325662
0.39782
0.483981
0.665648
0.880862
1.18541
1.27234
1.16913
1.19343
1.63109
2.18056
2.38267
2.64013
2.94129
3.26787
3.10993
2.82305
2.36235
1.95483
1.61247
1.35772
1.07806
0.922237
0.773589
0.692224
0.608023
0.567434
0.529908
0.514144
0.502546
0.496027
0.483055
0.465922
0.450875
0.440724
0.433132
0.424936
0.413567
0.406569
0.408643
0.426648
0.445191
0.448156
0.450095
0.456819
0.472029
0.474189
0.4734
0.480383
0.48625
0.500983
0.532487
0.566318
0.577769
0.614829
0.668895
0.674082
0.678294
0.733819
0.842571
0.910833
0.947002
0.982281
1.0673
1.20195
1.14928
1.0511
1.16242
1.39456
1.50971
1.59324
1.57445
1.49477
1.49614
1.58054
1.78888
2.03006
2.62211
3.64435
4.30709
3.89897
2.76715
2.4615
2.56497
3.09346
3.79734
3.92856
3.83487
3.64293
2.997
2.73924
2.98035
3.85603
4.19456
4.26937
4.38663
4.45262
3.74388
3.3437
3.52742
4.05535
4.02771
3.7398
3.64275
3.69659
3.80607
3.78285
3.61092
3.31146
3.04573
2.97141
3.01511
3.31417
3.41652
3.40094
3.4132
3.44219
3.46324
3.61731
3.73789
3.57138
3.45372
3.60923
4.42483
1.66275
0.273642
0.108661
0.111365
0.151493
0.237361
0.249298
0.228298
0.182917
0.145221
0.127642
0.123829
0.126268
0.137165
0.143774
0.144716
0.141901
0.135197
0.12899
0.12466
0.124005
0.125013
0.128218
0.129318
0.128648
0.128066
0.128492
0.130187
0.131561
0.131563
0.130577
0.129017
0.126519
0.125939
0.124549
0.124658
0.127585
0.134072
0.146821
0.168699
0.222545
0.266559
0.362539
0.465672
0.573133
0.873719
1.00338
0.992672
0.899699
0.730696
0.56766
0.460408
0.385698
0.325227
0.284938
0.269868
0.270709
0.303971
0.368189
0.409414
0.472878
0.731606
0.871233
1.03637
1.61097
2.32866
2.28563
2.15461
2.23779
2.13194
1.75847
1.55648
1.24487
0.980088
0.744209
0.582086
0.49159
0.407336
0.368684
0.337546
0.322188
0.310792
0.306918
0.3058
0.30887
0.314945
0.32078
0.321434
0.321642
0.320562
0.320456
0.320787
0.320626
0.319908
0.323034
0.335414
0.348225
0.355254
0.36011
0.368847
0.374881
0.391331
0.398651
0.394113
0.38629
0.384224
0.378938
0.386724
0.406803
0.411432
0.429517
0.480386
0.49303
0.500423
0.533985
0.637747
0.714319
0.734144
0.767934
0.880938
1.04217
0.99795
0.921053
0.966167
1.23172
1.33055
1.30816
1.25544
1.19573
1.18761
1.23375
1.42979
1.69579
2.29339
3.13336
3.36359
2.93117
2.28151
2.17593
2.36135
2.64286
2.83266
2.86259
2.75299
2.6257
2.29502
2.15882
2.22462
2.60226
2.9504
3.042
3.24573
3.43901
3.00189
2.71701
2.80048
3.16682
3.1943
3.01754
2.94366
3.06038
3.32961
3.45664
3.37983
3.16074
2.97022
2.89828
3.034
3.4402
3.52643
3.47496
3.43608
3.33742
3.36797
3.52351
3.50613
3.10436
2.70843
2.67505
2.91239
2.9531
0.489612
0.14155
0.144367
0.245651
0.290685
0.268451
0.21744
0.165855
0.138711
0.12829
0.130644
0.140919
0.144634
0.141787
0.133429
0.130142
0.128468
0.125474
0.124193
0.124608
0.127081
0.128914
0.129798
0.130816
0.133407
0.1348
0.136719
0.141541
0.142639
0.141762
0.141706
0.140861
0.136763
0.131715
0.12739
0.122793
0.121524
0.118542
0.118727
0.12321
0.133425
0.154163
0.197313
0.245456
0.335527
0.515552
0.717122
0.749
0.718861
0.610248
0.517982
0.441443
0.359788
0.298835
0.266267
0.262102
0.283241
0.346303
0.406648
0.439192
0.483623
0.609165
1.11232
2.08263
2.25398
1.86591
1.60083
1.43522
1.14563
0.918707
0.696616
0.558297
0.431801
0.356361
0.304915
0.279709
0.266946
0.263153
0.262818
0.265631
0.269469
0.272672
0.274495
0.276923
0.277121
0.278425
0.280079
0.28623
0.2877
0.288084
0.28804
0.288076
0.289612
0.299483
0.31518
0.318929
0.31939
0.326303
0.333715
0.337037
0.349994
0.366025
0.369516
0.353654
0.34873
0.336776
0.32976
0.338866
0.340866
0.348357
0.38293
0.413718
0.418607
0.444356
0.549277
0.634248
0.637759
0.667581
0.791986
0.886583
0.899325
0.948158
0.932158
1.0125
1.2531
1.23074
1.13364
1.07005
1.07087
1.12539
1.26391
1.59262
1.99452
2.68537
2.84619
2.76121
2.30612
2.09032
2.16166
2.54992
2.45659
2.47733
2.32704
2.19777
2.02293
1.95025
1.98058
2.1319
2.41832
2.56747
2.78618
2.96669
2.73218
2.53947
2.4627
2.63759
2.73218
2.67386
2.52607
2.57314
2.85082
3.17879
3.29208
3.13635
2.92663
2.82017
3.08889
3.45546
3.43451
3.43637
3.41975
3.16134
3.27953
3.51097
3.492
3.09249
2.453
2.30493
2.37725
4.49801
0.738904
0.218606
0.264532
0.329821
0.308227
0.246462
0.186054
0.151778
0.137088
0.138583
0.145571
0.147314
0.144578
0.135822
0.133048
0.133838
0.134808
0.133792
0.133003
0.133474
0.136449
0.138657
0.139775
0.141755
0.146328
0.150344
0.152508
0.154405
0.154833
0.154468
0.152988
0.149798
0.147023
0.143626
0.136152
0.131258
0.127519
0.120722
0.11484
0.112885
0.113041
0.115027
0.121189
0.134688
0.161521
0.219163
0.335555
0.480899
0.542904
0.53981
0.500776
0.448332
0.376237
0.302172
0.273652
0.273373
0.312838
0.379928
0.406627
0.418537
0.456138
0.633653
1.34633
2.12685
2.05412
1.36191
1.08046
0.827359
0.601839
0.475896
0.359118
0.308305
0.266175
0.24816
0.241737
0.241025
0.244708
0.250113
0.257184
0.264384
0.270592
0.274587
0.275511
0.274746
0.269772
0.259766
0.249062
0.241163
0.238041
0.238122
0.241789
0.252271
0.267021
0.275711
0.279627
0.279881
0.286029
0.293025
0.298603
0.30301
0.303622
0.309218
0.32896
0.325982
0.323495
0.318384
0.302912
0.304372
0.31029
0.315093
0.333728
0.382504
0.380978
0.388345
0.47513
0.55642
0.582245
0.607248
0.732389
0.821955
0.82392
0.88643
0.906774
0.868891
1.02195
1.10844
1.05686
0.992861
0.999262
1.0386
1.14356
1.54389
1.85769
2.27758
2.40796
2.4629
2.34902
2.09166
1.91795
2.1297
2.28163
2.28234
2.14033
2.02014
1.89302
1.81755
1.87555
1.99176
2.27874
2.42281
2.551
2.63842
2.61625
2.54548
2.36969
2.43949
2.52936
2.52699
2.36313
2.26782
2.42467
2.74107
3.1096
3.11716
2.99801
2.85143
3.08115
3.34543
3.10136
2.9739
2.96156
2.77724
3.17269
3.58631
3.4705
3.15483
2.38996
2.14773
2.16058
6.25799
0.995192
0.339135
0.363649
0.347179
0.275316
0.200754
0.161861
0.144862
0.144001
0.148247
0.149287
0.145312
0.138697
0.137152
0.140065
0.149442
0.153893
0.152298
0.151334
0.15249
0.156669
0.158667
0.15879
0.158249
0.158448
0.161062
0.163946
0.163921
0.162963
0.160197
0.154259
0.150703
0.146062
0.141632
0.138045
0.132634
0.127337
0.12075
0.115163
0.113965
0.114202
0.112784
0.112374
0.114125
0.119045
0.131576
0.169148
0.252899
0.316185
0.356459
0.359838
0.353308
0.326374
0.282671
0.275218
0.286231
0.363434
0.466434
0.497463
0.512183
0.554991
0.718114
1.41694
2.01894
1.70835
0.985001
0.720472
0.479702
0.35946
0.295066
0.253128
0.235076
0.227059
0.226155
0.23127
0.239224
0.250128
0.262209
0.273064
0.281938
0.28506
0.28617
0.284052
0.27746
0.269007
0.255168
0.240909
0.221489
0.203228
0.193933
0.191243
0.196014
0.214377
0.220366
0.214738
0.215568
0.226353
0.223529
0.235764
0.240971
0.259361
0.261894
0.270427
0.274224
0.270424
0.280918
0.282539
0.280344
0.286024
0.300225
0.312306
0.34068
0.353172
0.354612
0.384929
0.491557
0.520837
0.558061
0.607725
0.726309
0.73961
0.737167
0.752788
0.773722
0.867219
0.969902
0.948013
0.917045
0.928134
0.955392
1.07352
1.56496
1.91366
2.02932
2.16633
2.14031
2.14559
2.06472
1.81889
1.80745
2.01558
2.04403
2.01613
1.97032
1.82297
1.77439
1.85652
2.02324
2.24909
2.31608
2.31594
2.43998
2.56711
2.66339
2.38509
2.40889
2.41879
2.38415
2.29163
2.11205
2.17281
2.37654
2.71076
2.98167
3.04882
3.02618
3.08526
3.25735
3.03092
2.69209
2.80052
2.64657
2.8827
3.63573
3.4683
3.20224
2.43993
2.06548
2.03872
8.16371
1.29632
0.454319
0.393008
0.320565
0.227939
0.178386
0.152652
0.144578
0.146908
0.148881
0.143012
0.13747
0.139074
0.147734
0.163311
0.172434
0.177908
0.18722
0.193127
0.190857
0.183829
0.175669
0.173134
0.173349
0.175898
0.176123
0.174945
0.171562
0.167476
0.162462
0.155754
0.148998
0.142203
0.137598
0.132372
0.12417
0.117447
0.115043
0.115639
0.118587
0.123789
0.125005
0.124402
0.121399
0.12123
0.124955
0.14142
0.18826
0.237302
0.2684
0.279847
0.280525
0.27223
0.267048
0.27249
0.301435
0.438214
0.690349
0.723565
0.647051
0.630939
0.856947
1.57171
1.7886
1.21125
0.655339
0.445267
0.31107
0.25915
0.230569
0.217264
0.211905
0.217498
0.226856
0.242659
0.261888
0.272822
0.279031
0.282083
0.284732
0.284932
0.283095
0.278658
0.266639
0.253996
0.238569
0.22693
0.212973
0.191428
0.176222
0.169925
0.165694
0.166258
0.165256
0.161617
0.165272
0.167689
0.167808
0.181896
0.195544
0.205755
0.220851
0.229908
0.23867
0.238477
0.240754
0.248921
0.249049
0.252842
0.279699
0.297415
0.305859
0.313075
0.315705
0.336412
0.408786
0.439243
0.450506
0.475236
0.582233
0.656189
0.653483
0.665979
0.730226
0.822041
0.884739
0.864334
0.846993
0.855215
0.896406
1.1106
1.82324
2.01079
1.97684
2.06036
1.99228
1.9668
1.89331
1.77323
1.61377
1.76024
1.83186
1.92639
1.91976
1.76796
1.75848
1.95198
2.02293
2.10211
2.15224
2.22018
2.44411
2.63473
2.74065
2.40326
2.4365
2.36221
2.22105
2.19251
2.05068
2.00531
2.13232
2.32506
2.59837
2.89491
3.0864
3.17842
3.26538
3.07216
2.61557
2.77026
2.64494
2.57975
3.37448
3.50029
3.18947
2.48247
2.04987
2.00146
10.0807
1.6103
0.521123
0.390019
0.279496
0.207591
0.162996
0.147446
0.143761
0.139802
0.133427
0.132909
0.139254
0.152667
0.181822
0.208774
0.225267
0.234465
0.234927
0.224191
0.211348
0.204737
0.199938
0.196403
0.190953
0.183517
0.177521
0.172873
0.168486
0.164351
0.1595
0.154463
0.148837
0.140606
0.134175
0.122784
0.111979
0.108475
0.109541
0.114272
0.119858
0.127062
0.134632
0.141455
0.143446
0.146724
0.154533
0.174542
0.206205
0.242953
0.265248
0.272192
0.272704
0.270586
0.271617
0.282868
0.325763
0.504675
0.767401
0.784792
0.676241
0.68432
1.0971
1.59321
1.43761
0.745753
0.430721
0.299579
0.23986
0.216125
0.203862
0.202461
0.209028
0.224052
0.24886
0.264785
0.271921
0.274843
0.27388
0.270135
0.262589
0.253573
0.240865
0.23182
0.213672
0.193962
0.185824
0.183088
0.18184
0.173511
0.16265
0.159595
0.154747
0.151723
0.143466
0.13971
0.138617
0.135857
0.141376
0.147793
0.175114
0.182329
0.192676
0.207998
0.218124
0.227007
0.222302
0.225442
0.227788
0.230108
0.245429
0.268223
0.281916
0.286702
0.291273
0.302838
0.341784
0.367266
0.38767
0.410889
0.507749
0.620844
0.615482
0.634573
0.717654
0.783078
0.840272
0.822122
0.80427
0.808908
0.864647
1.42835
1.97803
2.09354
1.94279
2.04314
1.94316
1.82669
1.81767
1.74624
1.47796
1.48534
1.62903
1.89258
1.86243
1.6758
1.70695
2.0743
2.03339
2.01914
2.05369
2.11681
2.3682
2.65228
2.71291
2.44629
2.55898
2.42748
2.16819
2.1283
2.02747
1.92572
1.98909
2.09764
2.21379
2.46544
2.91046
3.11754
3.26946
3.14948
2.67532
2.75319
2.70654
2.45088
2.75043
3.46582
3.12878
2.50564
2.06481
2.00449
11.9746
1.84784
0.53153
0.348108
0.256269
0.178848
0.144136
0.132098
0.128111
0.125683
0.129522
0.137563
0.159518
0.198374
0.235491
0.25555
0.262551
0.259361
0.255929
0.250133
0.24572
0.240173
0.229074
0.214609
0.198303
0.183012
0.172206
0.165022
0.16111
0.159416
0.157932
0.155472
0.151546
0.144659
0.136663
0.122973
0.110963
0.105891
0.104895
0.106098
0.110311
0.119725
0.138362
0.161443
0.18369
0.198868
0.21629
0.232533
0.249472
0.272984
0.28837
0.294193
0.294471
0.294961
0.299581
0.316782
0.361832
0.520319
0.782777
0.814999
0.731315
0.836901
1.33109
1.46674
0.993968
0.476812
0.300775
0.231654
0.207407
0.195544
0.193473
0.201851
0.219356
0.249574
0.26336
0.26765
0.267246
0.261094
0.243831
0.223729
0.202675
0.189935
0.178192
0.173239
0.168662
0.164149
0.163055
0.163017
0.16321
0.164371
0.158371
0.156623
0.153159
0.147342
0.134255
0.129327
0.122496
0.120586
0.123801
0.12696
0.147719
0.172427
0.179055
0.195339
0.207164
0.212741
0.212258
0.213617
0.216218
0.214253
0.222306
0.24511
0.254164
0.266999
0.275126
0.285026
0.311247
0.328161
0.361507
0.393588
0.471243
0.613293
0.595322
0.610967
0.690003
0.690512
0.75978
0.767331
0.759936
0.770997
0.866357
1.57629
1.95456
1.87627
1.77689
2.00967
1.85422
1.73296
1.79807
1.7156
1.43679
1.41685
1.60653
1.8864
1.76979
1.64378
1.67389
2.08665
2.0978
1.98799
1.97469
1.93525
2.19411
2.58891
2.52611
2.52399
2.57534
2.63085
2.23786
2.10371
2.01928
1.91313
1.89962
1.95274
1.99559
2.12651
2.53641
2.73191
3.05791
3.08295
2.74688
2.64722
2.73183
2.45678
2.35275
3.23273
3.0064
2.5075
2.10241
2.05057
13.7622
1.97224
0.511325
0.30515
0.215724
0.15406
0.135058
0.127247
0.123662
0.124403
0.13427
0.15993
0.197162
0.233086
0.259918
0.272756
0.283614
0.297799
0.314381
0.322956
0.326147
0.319191
0.291872
0.259918
0.231668
0.204804
0.185671
0.172519
0.165847
0.163535
0.163677
0.165404
0.165723
0.16329
0.156147
0.142673
0.121792
0.112335
0.109384
0.109777
0.113289
0.122848
0.143396
0.16841
0.195716
0.221802
0.249469
0.28199
0.321933
0.353293
0.372432
0.395999
0.414904
0.436201
0.441134
0.450465
0.478233
0.595158
0.812327
0.838961
0.815133
1.08076
1.39479
1.2459
0.623084
0.328651
0.234964
0.203205
0.19193
0.187317
0.195248
0.220008
0.250687
0.262703
0.265018
0.261645
0.248579
0.226418
0.209999
0.192987
0.180437
0.171559
0.162877
0.158581
0.158048
0.158272
0.158943
0.159698
0.15873
0.160875
0.155988
0.154787
0.15334
0.144964
0.129351
0.120031
0.112694
0.109957
0.114924
0.119471
0.131523
0.163837
0.169095
0.180367
0.201174
0.205276
0.207021
0.206414
0.210167
0.2089
0.211126
0.230983
0.2382
0.245868
0.261137
0.275755
0.287573
0.306552
0.345559
0.388569
0.448525
0.57019
0.57563
0.60312
0.660811
0.651075
0.706758
0.720167
0.720864
0.743809
0.927068
1.62912
1.81505
1.67088
1.63299
1.57695
1.46802
1.5437
1.70882
1.66051
1.44857
1.46451
1.71099
1.76348
1.71475
1.679
1.69885
2.01754
2.08486
1.94329
1.91761
1.84644
1.96469
2.3744
2.39605
2.51935
2.55161
2.61238
2.277
2.0938
2.01436
1.91763
1.85843
1.86314
1.88257
1.96149
2.25364
2.35573
2.55536
2.80793
2.69099
2.45988
2.68466
2.50835
2.28374
2.93653
2.9208
2.49231
2.18891
2.15865
15.3402
2.02006
0.455909
0.264093
0.186867
0.152446
0.136395
0.127329
0.124563
0.128135
0.144929
0.173756
0.206919
0.247131
0.29191
0.319932
0.345078
0.368295
0.384209
0.397171
0.415962
0.42503
0.428542
0.397281
0.34337
0.289461
0.250738
0.216273
0.194632
0.186146
0.182734
0.181287
0.178306
0.171737
0.165212
0.15924
0.147958
0.139519
0.135078
0.13295
0.13534
0.14817
0.178691
0.215842
0.250055
0.290224
0.344428
0.401938
0.449371
0.515194
0.593033
0.66328
0.710074
0.750584
0.768549
0.773857
0.785775
0.831326
0.874408
0.875584
0.975659
1.2987
1.35969
0.928641
0.413803
0.249833
0.20009
0.188098
0.186223
0.191533
0.222262
0.255495
0.265561
0.265903
0.26098
0.246743
0.229371
0.214569
0.203535
0.188391
0.17742
0.169167
0.161769
0.156066
0.155787
0.158129
0.15869
0.161407
0.159081
0.161051
0.154736
0.150299
0.146375
0.134483
0.119445
0.106135
0.106016
0.101528
0.108766
0.116871
0.122575
0.14829
0.161763
0.173605
0.188807
0.198637
0.204051
0.201206
0.205636
0.208321
0.206322
0.214282
0.228003
0.229435
0.241183
0.268657
0.277595
0.297139
0.318374
0.373263
0.449645
0.503997
0.542472
0.580932
0.592137
0.595462
0.680976
0.693244
0.69686
0.732533
0.998581
1.59887
1.70696
1.59925
1.51329
1.29084
1.30606
1.49728
1.54457
1.5252
1.45627
1.46384
1.60666
1.75287
1.76169
1.83776
1.81239
1.96054
1.96698
1.83516
1.77727
1.73179
1.84481
2.1436
2.36443
2.4579
2.51091
2.38242
2.18293
2.00715
1.98806
1.93806
1.87678
1.83636
1.76196
1.9256
2.21946
2.21542
2.28697
2.50046
2.47304
2.29984
2.53236
2.49795
2.27471
2.73032
2.81865
2.44912
2.25661
2.25079
17.3811
2.1213
0.446812
0.257234
0.187383
0.15593
0.14161
0.131779
0.129929
0.135664
0.15369
0.183258
0.225797
0.280814
0.33004
0.351651
0.373297
0.388003
0.395317
0.405157
0.426509
0.452632
0.490826
0.508492
0.504536
0.444549
0.374341
0.319402
0.249987
0.217596
0.204002
0.198228
0.195305
0.191247
0.186142
0.180882
0.175016
0.171459
0.171604
0.175827
0.188811
0.21183
0.243841
0.281234
0.322098
0.374961
0.440623
0.534124
0.635275
0.735651
0.825026
0.897268
0.932027
0.934992
0.92853
0.925299
0.926129
0.925992
0.907153
0.949164
1.15532
1.31466
1.20881
0.596225
0.293952
0.209182
0.187943
0.186251
0.192345
0.224906
0.257659
0.2685
0.269116
0.262471
0.248683
0.232484
0.224052
0.214696
0.205975
0.1942
0.180822
0.170935
0.165734
0.15592
0.152067
0.154391
0.15135
0.154237
0.151847
0.154429
0.149766
0.138129
0.127536
0.113192
0.105459
0.101542
0.10194
0.0994576
0.102674
0.113069
0.121912
0.139998
0.154428
0.161925
0.17277
0.179991
0.197691
0.199831
0.199148
0.202291
0.203429
0.205938
0.219517
0.223757
0.227192
0.245902
0.267754
0.281093
0.313341
0.335514
0.414883
0.470196
0.494928
0.516444
0.520309
0.531444
0.644544
0.668194
0.67808
0.733352
1.04697
1.43375
1.63999
1.59729
1.44397
1.20269
1.26417
1.37853
1.33696
1.35695
1.44087
1.47455
1.56594
1.68778
1.85204
1.88157
1.73637
1.70244
1.77472
1.7633
1.75701
1.67997
1.70106
1.96338
2.33821
2.37351
2.38485
2.14745
1.90263
1.81783
1.92893
1.93437
2.03128
1.88806
1.69958
1.928
2.25894
2.15127
2.13293
2.23542
2.21874
2.10796
2.30037
2.38384
2.27626
2.55166
2.70298
2.37783
2.30946
2.28743
18.8477
2.30855
0.468257
0.271146
0.215018
0.194677
0.177049
0.15227
0.139848
0.144257
0.160803
0.195288
0.247606
0.295458
0.334005
0.351932
0.37004
0.379001
0.381522
0.381024
0.384587
0.405865
0.466754
0.534814
0.565191
0.55658
0.456441
0.398109
0.346567
0.264779
0.219986
0.205168
0.201027
0.198792
0.195687
0.191584
0.186626
0.183714
0.184159
0.190816
0.207891
0.231854
0.265266
0.304417
0.350909
0.433798
0.570144
0.67411
0.775998
0.841122
0.893689
0.937765
0.956084
0.946419
0.928589
0.930226
0.927249
0.919517
0.93964
1.04621
1.18791
1.23738
0.814792
0.370825
0.229646
0.194525
0.187406
0.19358
0.229028
0.259721
0.27056
0.273084
0.270109
0.25951
0.243918
0.229221
0.221008
0.217176
0.212441
0.206381
0.193034
0.176372
0.166347
0.15574
0.145114
0.139215
0.129226
0.125865
0.122769
0.119902
0.123713
0.114577
0.104845
0.106293
0.100093
0.100961
0.0947556
0.0971989
0.102296
0.109663
0.121915
0.132029
0.152231
0.153264
0.161718
0.172448
0.178738
0.186152
0.192337
0.195627
0.195716
0.198698
0.208506
0.21825
0.223354
0.231835
0.249575
0.268985
0.303667
0.322273
0.357386
0.378753
0.425175
0.453223
0.477781
0.503059
0.60928
0.637145
0.660468
0.738199
1.04167
1.25603
1.59746
1.61615
1.37268
1.17631
1.28845
1.27443
1.15805
1.17621
1.42975
1.51557
1.58809
1.66658
1.74692
1.63685
1.47906
1.46716
1.61464
1.73169
1.80584
1.72529
1.66697
1.85116
2.25455
2.22772
2.13154
2.07206
1.79638
1.72555
1.88297
1.95678
2.15409
2.05727
1.70118
1.76654
2.09817
2.00837
1.95984
2.0268
2.02617
1.94598
2.10421
2.25665
2.26593
2.4805
2.60672
2.33675
2.32993
2.28154
20.5176
2.80828
0.582251
0.339932
0.29305
0.272079
0.28658
0.280052
0.201252
0.191317
0.191545
0.205976
0.246707
0.290669
0.323221
0.342357
0.354876
0.355008
0.336166
0.297089
0.281907
0.288207
0.345523
0.464148
0.5718
0.613096
0.52481
0.432143
0.390592
0.338506
0.262548
0.217272
0.205455
0.201631
0.199089
0.195354
0.190343
0.186185
0.185198
0.191574
0.208073
0.232246
0.264
0.313169
0.404565
0.546009
0.646898
0.713459
0.790578
0.835371
0.844939
0.875749
0.901569
0.888558
0.874341
0.887566
0.892151
0.903356
0.955009
1.05453
1.13804
0.909161
0.459827
0.25855
0.20427
0.192304
0.193459
0.223521
0.259519
0.273079
0.279249
0.280107
0.274194
0.261235
0.247661
0.232768
0.219162
0.212792
0.210185
0.20617
0.196327
0.180249
0.165738
0.15377
0.141093
0.132081
0.119466
0.112709
0.108467
0.101255
0.100979
0.101484
0.0984946
0.103509
0.0977049
0.10021
0.0941934
0.095331
0.099572
0.104719
0.121209
0.131533
0.152132
0.15357
0.155055
0.164599
0.169922
0.17813
0.178922
0.182227
0.185156
0.190546
0.205332
0.216496
0.220544
0.229829
0.235392
0.250634
0.285358
0.305739
0.325115
0.352767
0.373491
0.390227
0.449006
0.479759
0.58552
0.61445
0.647143
0.743178
0.938729
1.10193
1.57442
1.61663
1.31388
1.15559
1.31905
1.19834
1.07982
1.11795
1.4721
1.61052
1.57478
1.41653
1.46995
1.46413
1.31921
1.31853
1.48145
1.72036
1.85244
1.83858
1.74562
1.85258
2.21236
2.16725
2.07195
2.05293
1.79764
1.69968
1.78896
1.97712
2.16793
2.19593
1.79905
1.70801
1.7878
1.83301
1.83533
1.85966
1.86983
1.83049
1.97029
2.19564
2.27034
2.45636
2.51583
2.29973
2.32337
2.19359
20.5861
4.08516
1.30251
0.704543
0.492479
0.362193
0.357145
0.384019
0.294345
0.22318
0.201558
0.201985
0.230885
0.260627
0.277506
0.29412
0.30742
0.303348
0.292161
0.264201
0.252
0.255335
0.293354
0.368582
0.516476
0.606831
0.576031
0.446046
0.389275
0.35999
0.311744
0.251056
0.218471
0.208773
0.206175
0.203116
0.196443
0.188198
0.180625
0.18075
0.188699
0.210287
0.252881
0.339831
0.483536
0.584589
0.645027
0.678561
0.711459
0.750861
0.795095
0.836048
0.86243
0.863698
0.854941
0.859118
0.870763
0.896373
0.947645
1.00297
0.875449
0.515686
0.296619
0.217884
0.199278
0.195822
0.209937
0.249211
0.274156
0.290536
0.299537
0.305095
0.296515
0.27193
0.254449
0.241013
0.22249
0.207826
0.196966
0.192201
0.190218
0.179787
0.161224
0.145776
0.129034
0.122284
0.114274
0.107547
0.103286
0.0948443
0.0933194
0.0948453
0.0963023
0.0991197
0.0980803
0.0978713
0.0946703
0.0933968
0.0982483
0.104233
0.121121
0.132249
0.151566
0.153974
0.154947
0.161258
0.166611
0.171638
0.173488
0.177799
0.180946
0.186387
0.202382
0.213203
0.219354
0.228749
0.233968
0.238808
0.267096
0.281597
0.295392
0.339731
0.351213
0.363036
0.416242
0.451492
0.556062
0.590025
0.637081
0.75897
0.858622
1.01952
1.58384
1.61602
1.30287