/*--------------------------------*- C++ -*----------------------------------*\
| =========                 |                                                 |
| \\      /  F ield         | OpenFOAM: The Open Source CFD Toolbox           |
|  \\    /   O peration     | Version:  dev                                   |
|   \\  /    A nd           | Web:      http://www.openfoam.org               |
|    \\/     M anipulation  |                                                 |
\*---------------------------------------------------------------------------*/
FoamFile
{
    version     2.0;
    format      ascii;
    class       volScalarField;
    object      k_0;
    location    "9.147";
}
// * * * * * * * * * * * * * * * * * * * * * * * * * * * * * * * * * * * * * //

dimensions      [0 2 -2 0 0 0 0];

internalField   nonuniform List<scalar> 
12225
(
7.72818
9.97132
6.2215
7.05098
5.19202
6.83085
6.26258
7.5022
8.03779
8.75167
10.3512
10.5829
13.6907
12.7803
18.0191
15.1535
22.0039
28.6987
1.234
6.26848
5.16882
6.76433
4.77389
6.34114
4.59298
6.00335
4.67023
5.89589
5.01067
5.81885
5.64403
5.95542
7.39477
6.35595
17.1479
26.6454
0.106368
1.59193
1.85154
2.69535
2.75957
2.8276
3.11325
2.8847
3.02602
2.62258
2.96128
2.34824
2.8471
2.09232
3.60795
2.31447
8.31397
16.2229
0.00872641
0.196129
0.557062
0.7031
1.17597
1.09276
1.42871
1.23797
1.49646
1.20845
1.49136
1.11176
1.37258
0.964904
1.6221
1.12594
3.06165
5.33597
0.0054736
0.0863378
0.203591
0.269415
0.454313
0.454496
0.586641
0.54672
0.649468
0.55988
0.674176
0.543129
0.684055
0.474072
0.776191
0.579435
1.11633
1.53449
0.00677864
0.0202193
0.0653435
0.0767921
0.171647
0.157408
0.229773
0.218548
0.293442
0.246801
0.319898
0.264718
0.345755
0.253568
0.395729
0.32856
0.539391
0.537201
0.00783704
0.0136377
0.027278
0.0308679
0.0657265
0.0603046
0.0893374
0.0880083
0.129904
0.105779
0.142669
0.123295
0.163494
0.133426
0.200414
0.171345
0.250293
0.246315
0.0107499
0.0172776
0.0213397
0.0227629
0.0324117
0.0296059
0.0416919
0.0422539
0.0612762
0.0527762
0.0684023
0.0626893
0.0787444
0.0700896
0.0956076
0.0896857
0.115479
0.124438
0.0167079
0.0250601
0.0239305
0.0231643
0.0253295
0.0243062
0.0281071
0.0286534
0.0365486
0.0343904
0.0413457
0.0393687
0.0454695
0.0436163
0.0537024
0.0543801
0.0678634
0.0752424
0.0295628
0.0378791
0.0323602
0.0294713
0.0262702
0.0239348
0.0249109
0.0250553
0.0281006
0.0267457
0.0301324
0.0282827
0.0307124
0.0301991
0.0356762
0.0373831
0.0428249
0.0479046
0.0594085
0.0654846
0.053845
0.0473729
0.0348222
0.0280022
0.0273145
0.0254368
0.0268773
0.024668
0.0251008
0.0235063
0.0242189
0.0238275
0.0258777
0.0270257
0.0288291
0.0321107
0.113906
0.118269
0.0942594
0.0797969
0.0580529
0.043278
0.0349007
0.0292174
0.0272098
0.0245041
0.0234222
0.0220887
0.0220933
0.0219892
0.0222756
0.0230531
0.0246258
0.0278293
0.196108
0.200375
0.158018
0.121856
0.0888277
0.0686811
0.0524317
0.0394288
0.0317547
0.0267199
0.0239717
0.0223575
0.0217236
0.0217425
0.0221245
0.022855
0.023897
0.0265495
0.339473
0.327985
0.254172
0.191762
0.139123
0.102139
0.0759412
0.0566262
0.0429399
0.0336529
0.028258
0.0254073
0.0243387
0.0242817
0.0243787
0.0248377
0.0262658
0.0301391
0.56758
0.539473
0.411888
0.305727
0.225005
0.164706
0.120943
0.0896168
0.0668092
0.0510734
0.0412195
0.0359307
0.0339404
0.0335383
0.0336186
0.0342569
0.036554
0.0445516
0.863551
0.801922
0.591795
0.422002
0.298359
0.210161
0.148833
0.107257
0.0795016
0.0617076
0.0510604
0.045391
0.0430841
0.0425385
0.0425964
0.043322
0.0458917
0.0552525
0.986903
0.893711
0.643482
0.453154
0.317834
0.222584
0.156752
0.112237
0.0828599
0.0642806
0.0533495
0.0475813
0.0451501
0.0445278
0.0445934
0.0452435
0.0476113
0.0564854
0.987779
0.884867
0.634178
0.446643
0.313801
0.220655
0.156135
0.112112
0.0828249
0.0641729
0.0531903
0.0474059
0.0449058
0.0441914
0.0442836
0.0448576
0.0468539
0.0543209
0.762393
0.715219
0.545565
0.392399
0.280313
0.20017
0.143713
0.104631
0.07829
0.0612463
0.050975
0.0453445
0.0426628
0.0416293
0.0415694
0.0418983
0.0432772
0.0486844
0.47125
0.438937
0.350151
0.26001
0.192298
0.142666
0.106649
0.0808896
0.0628518
0.0505421
0.0426235
0.0378938
0.035482
0.0341607
0.0337242
0.0337641
0.0344662
0.0375287
0.291021
0.267136
0.204543
0.150499
0.111514
0.0838513
0.063537
0.0482747
0.0378801
0.0312896
0.0272975
0.0252005
0.024282
0.0241076
0.024296
0.0250692
0.0261631
0.0283994
0.154447
0.145302
0.118453
0.0914446
0.0693212
0.0524478
0.0400929
0.0326875
0.0279966
0.0252218
0.0235831
0.0226096
0.0223162
0.022393
0.022844
0.0242924
0.0253917
0.0269289
0.0808151
0.0763275
0.0646286
0.0487831
0.0391593
0.0346592
0.0319142
0.0289429
0.0264281
0.0250279
0.024309
0.0243076
0.0245155
0.0252862
0.0265681
0.0282842
0.029253
0.0302986
0.0387552
0.037062
0.031527
0.0297584
0.031228
0.0324198
0.0331684
0.0341502
0.0348339
0.03563
0.0365771
0.0383816
0.0406605
0.0438719
0.0460613
0.0478952
0.048849
0.0494853
0.014695
0.0167447
0.0214229
0.0275609
0.0394573
0.0536061
0.0639353
0.0727941
0.0789485
0.0851611
0.0896797
0.0966022
0.103164
0.109058
0.112488
0.114771
0.115619
0.116497
0.00466653
0.0129558
0.032168
0.070052
0.125095
0.174542
0.207756
0.229371
0.243856
0.256445
0.266353
0.278867
0.289419
0.296382
0.2993
0.300828
0.300812
0.302375
0.00497681
0.0575351
0.181927
0.348459
0.514512
0.633422
0.695128
0.722992
0.737172
0.748318
0.757682
0.767898
0.771753
0.768686
0.763922
0.759315
0.754946
0.756357
0.0628237
0.515707
1.16994
1.5467
1.81769
1.9558
1.97938
1.96262
1.93611
1.90703
1.87879
1.84645
1.7967
1.74136
1.69713
1.65686
1.62226
1.60033
0.970912
3.70918
4.88889
4.92483
4.71617
4.344
3.98924
3.71045
3.48096
3.27815
3.10224
2.95233
2.82827
2.70854
2.59502
2.47559
2.37004
2.28123
6.90754
10.2565
9.25277
7.39099
6.0158
5.24573
4.8502
4.65075
4.55381
4.5138
4.48991
4.47653
4.45867
4.43034
4.38259
4.32775
4.25927
4.14929
0.0541622
0.101265
0.120388
0.141854
0.168438
0.189892
0.206344
0.218519
0.229524
0.243989
0.253956
0.265233
0.278276
0.297198
0.324398
0.35829
0.405333
0.460728
0.522866
0.608828
0.730259
0.874028
1.03473
1.21264
1.40252
1.64793
1.91267
2.17972
2.53072
2.8786
3.25618
3.74514
4.14337
4.51176
4.90954
5.08868
5.19826
5.30238
5.27966
4.99732
4.14034
3.55782
3.22399
2.96622
2.78312
2.69648
2.68978
2.73155
2.77762
2.82312
2.87209
2.91879
2.95795
3.00213
3.06906
3.20745
3.47243
3.7476
3.89592
3.93401
3.88677
3.80508
3.72521
3.62031
3.46162
3.50791
3.61664
3.65612
3.62935
3.72106
3.94865
4.05948
4.27721
4.92432
6.34429
7.43722
8.20378
8.86398
9.35955
9.68778
9.88949
9.98835
9.9114
9.74811
9.48962
9.20225
8.86191
8.52883
8.14682
7.73746
7.24655
6.7362
6.17291
5.65833
5.08947
4.50716
3.97177
3.60215
3.24538
2.93782
2.59015
2.39107
2.22608
2.09498
1.99944
1.92343
1.87968
1.85276
1.83778
1.83334
1.85392
1.86363
1.8746
1.96359
2.08416
2.09235
2.04545
2.05546
2.04523
1.93297
1.89184
1.99748
2.3447
2.88901
3.42899
3.78094
3.8862
3.84725
3.87205
4.05384
4.30388
4.51077
4.87927
5.42371
6.53121
8.00313
8.88299
8.91151
8.4504
8.37964
8.78351
9.68298
10.2802
10.4903
10.8103
10.7086
10.4522
10.7503
11.1004
11.241
11.1773
10.8312
10.6927
9.76687
8.64073
8.03577
7.95052
7.63537
6.99061
6.56142
6.127
5.68871
5.08414
4.41585
3.78129
3.39673
3.23624
3.21287
3.23437
3.31182
3.51386
3.85915
4.44479
5.03988
6.48532
7.82013
8.73993
10.6905
13.4867
17.0072
0.26433
0.103366
0.101226
0.117092
0.14128
0.168594
0.189233
0.197193
0.197257
0.190889
0.176136
0.163692
0.157817
0.1573
0.159037
0.164741
0.179116
0.193209
0.199277
0.200491
0.199005
0.199035
0.201124
0.2078
0.218439
0.236163
0.258819
0.279249
0.3072
0.339276
0.371608
0.440159
0.538048
0.662274
0.794284
1.03075
1.27414
1.43577
1.77036
2.07172
2.20375
2.22019
2.1936
2.08172
1.74637
1.42622
1.22996
1.11326
1.04355
1.02428
1.01748
0.993017
0.886645
0.77078
0.689072
0.682856
0.745263
0.979315
1.44434
1.96479
2.10859
2.00562
1.63872
1.27816
1.17096
1.24939
1.43981
1.5603
1.82822
2.67392
3.89937
4.2472
4.4005
4.7355
4.91935
4.64588
4.27231
3.89856
3.52558
3.17942
2.87874
2.61695
2.3832
2.17679
2.02661
1.88546
1.7911
1.67944
1.56972
1.45287
1.34749
1.24624
1.1524
1.06711
0.968747
0.915307
0.896753
0.890465
0.862095
0.831451
0.820378
0.824912
0.833865
0.841268
0.867533
0.88176
0.92155
0.974132
1.0193
1.03592
1.09539
1.14219
1.14124
1.17187
1.30413
1.40926
1.42445
1.45239
1.50025
1.4889
1.46282
1.45607
1.50152
1.72118
1.97006
2.29618
2.49369
2.45086
2.344
2.42041
2.70957
2.83948
3.02986
3.5234
4.84926
6.33509
6.37035
4.9206
4.06917
4.14678
4.969
6.28154
6.70571
6.54723
6.37683
5.46467
5.1305
5.78995
6.9982
7.15648
7.14229
6.97763
6.78097
5.62901
5.17407
5.31532
5.81787
5.69728
5.25422
5.09219
5.01252
4.88937
4.54356
4.02178
3.43103
3.07297
2.99237
3.00333
3.1904
3.30073
3.33584
3.48292
3.66442
3.84292
4.32531
4.91255
5.26159
5.78374
6.81229
9.05054
0.756406
0.146846
0.0986031
0.105812
0.135044
0.179309
0.208561
0.210538
0.197082
0.160447
0.136308
0.127444
0.127056
0.130264
0.137596
0.145194
0.152999
0.156465
0.156145
0.149711
0.140186
0.136271
0.136124
0.137147
0.137987
0.137644
0.137704
0.138457
0.139509
0.139743
0.139202
0.140063
0.144714
0.155112
0.171085
0.20357
0.26714
0.315729
0.404965
0.547491
0.686708
0.85136
1.01743
1.24954
1.33391
1.31885
1.2418
1.01133
0.78272
0.627472
0.524738
0.451461
0.382876
0.337817
0.309921
0.308761
0.334495
0.41278
0.505485
0.700706
0.926207
1.22799
1.28802
1.16446
1.1997
1.69517
2.22775
2.4057
2.65717
2.96226
3.2724
3.09743
2.80708
2.33442
1.93534
1.59777
1.35117
1.07748
0.927418
0.780951
0.700544
0.615896
0.575057
0.536465
0.52006
0.50789
0.501054
0.4883
0.470995
0.455448
0.44479
0.436755
0.428278
0.41666
0.408816
0.410031
0.426955
0.446106
0.449469
0.451331
0.45772
0.472917
0.475351
0.475328
0.482818
0.489202
0.505092
0.537362
0.57163
0.58365
0.622254
0.675747
0.681222
0.685166
0.744539
0.85403
0.921712
0.95696
0.991789
1.08042
1.21325
1.15311
1.05675
1.18274
1.40656
1.52579
1.61154
1.58558
1.50501
1.51084
1.60984
1.82527
2.07997
2.71014
3.74637
4.38032
3.90193
2.76916
2.48559
2.60006
3.17896
3.88495
3.98841
3.88007
3.67983
3.0092
2.77479
3.0673
3.97904
4.27526
4.33937
4.4521
4.50545
3.74023
3.37133
3.58906
4.11481
4.0686
3.76465
3.67707
3.73391
3.83479
3.80148
3.61955
3.31558
3.04803
2.97454
3.01477
3.31063
3.42067
3.40584
3.4146
3.4494
3.46655
3.61499
3.75407
3.59899
3.48036
3.63269
4.4739
1.7037
0.268999
0.10873
0.111878
0.152365
0.238329
0.249789
0.228687
0.183117
0.145419
0.127932
0.12425
0.126646
0.137487
0.143955
0.145045
0.142079
0.13517
0.128777
0.124392
0.123783
0.124827
0.127892
0.128784
0.128031
0.127498
0.12799
0.129769
0.130938
0.130861
0.12965
0.128128
0.125829
0.125356
0.124057
0.124563
0.12842
0.135809
0.149905
0.174781
0.231088
0.277589
0.381539
0.483478
0.609675
0.91916
1.01286
0.98791
0.872841
0.703156
0.546396
0.446245
0.374823
0.317398
0.281214
0.269761
0.272938
0.31563
0.377036
0.418381
0.491955
0.776741
0.899493
1.06929
1.693
2.36432
2.27766
2.16346
2.24915
2.12485
1.74228
1.54328
1.23242
0.971254
0.739051
0.579455
0.491483
0.408708
0.370367
0.33915
0.32359
0.311696
0.307435
0.306169
0.308919
0.314967
0.320966
0.321687
0.32172
0.320668
0.320569
0.320875
0.320622
0.319884
0.322449
0.334031
0.347134
0.354665
0.359507
0.368159
0.374362
0.390853
0.397544
0.393146
0.386151
0.384238
0.379942
0.38869
0.409024
0.414464
0.433625
0.484398
0.497038
0.505788
0.541124
0.646509
0.721004
0.74041
0.774665
0.894258
1.05318
1.00021
0.919883
0.971124
1.24262
1.32797
1.30879
1.25908
1.20178
1.19449
1.24939
1.46387
1.73697
2.36859
3.20394
3.40575
2.91706
2.27374
2.19561
2.40346
2.66937
2.86888
2.89363
2.77004
2.6441
2.30188
2.17895
2.25269
2.67348
3.00674
3.08427
3.29264
3.47438
2.99088
2.72263
2.8322
3.20988
3.22592
3.03141
2.96732
3.09546
3.36079
3.47459
3.3821
3.1596
2.97327
2.90441
3.03465
3.44603
3.53347
3.47486
3.42397
3.34355
3.37225
3.52339
3.51122
3.11963
2.73001
2.69758
2.94159
3.04924
0.480279
0.141517
0.145136
0.247206
0.291251
0.268809
0.217789
0.166031
0.138949
0.128656
0.130908
0.141152
0.144883
0.142032
0.13342
0.130231
0.128434
0.125304
0.123987
0.124373
0.126823
0.128478
0.129297
0.130306
0.132866
0.134207
0.136296
0.140999
0.141966
0.141115
0.140764
0.139863
0.135434
0.130502
0.126256
0.122056
0.120799
0.117965
0.118724
0.124578
0.136061
0.159945
0.20517
0.258491
0.36155
0.553384
0.737542
0.751976
0.704972
0.591644
0.503856
0.427754
0.34742
0.291456
0.264144
0.262851
0.293985
0.357585
0.413791
0.445305
0.49602
0.644085
1.21981
2.1424
2.25985
1.83452
1.58963
1.4234
1.13194
0.908379
0.6877
0.552795
0.428585
0.355041
0.304437
0.279633
0.266594
0.262532
0.261967
0.264485
0.268186
0.271307
0.273126
0.275649
0.276237
0.27811
0.280097
0.28637
0.288035
0.288566
0.288484
0.288214
0.289346
0.298399
0.314165
0.318388
0.319243
0.325733
0.333232
0.336671
0.350102
0.365783
0.368402
0.353022
0.348058
0.336316
0.330313
0.339746
0.34201
0.350398
0.385898
0.415425
0.421512
0.449087
0.558158
0.640521
0.641928
0.671968
0.799825
0.892331
0.905385
0.953733
0.936037
1.03021
1.25383
1.2257
1.13207
1.07382
1.07746
1.14146
1.29
1.63079
2.052
2.7384
2.87849
2.76932
2.29018
2.09419
2.19939
2.57478
2.46593
2.49829
2.32912
2.20535
2.03132
1.96843
2.00125
2.1675
2.4539
2.5969
2.82232
2.99299
2.72358
2.53235
2.46686
2.66542
2.75242
2.67913
2.53404
2.59615
2.891
3.20665
3.30174
3.13078
2.92402
2.82034
3.09289
3.46253
3.44603
3.44066
3.41768
3.17167
3.26768
3.50106
3.49614
3.10631
2.46961
2.31767
2.39156
4.68055
0.725041
0.21899
0.266438
0.330525
0.308683
0.247027
0.18666
0.15226
0.137524
0.138843
0.145876
0.147705
0.144979
0.135965
0.133249
0.133718
0.134323
0.133103
0.132278
0.132744
0.135746
0.137856
0.138966
0.141102
0.145828
0.149666
0.151784
0.15376
0.154162
0.153927
0.152502
0.149263
0.146582
0.142803
0.135207
0.130499
0.126314
0.119392
0.113964
0.112358
0.112798
0.115446
0.122847
0.138398
0.168999
0.237069
0.361381
0.501357
0.547805
0.538208
0.490822
0.436828
0.362315
0.293403
0.271974
0.275143
0.326167
0.387398
0.410056
0.422096
0.468718
0.679693
1.45423
2.16558
2.02945
1.31842
1.06376
0.813695
0.592528
0.469811
0.355471
0.306189
0.26504
0.247322
0.24095
0.240152
0.243638
0.248803
0.255645
0.262443
0.268492
0.272395
0.273518
0.272988
0.2684
0.258899
0.248555
0.241678
0.239251
0.239614
0.243199
0.253215
0.267388
0.276037
0.280806
0.281562
0.287019
0.294338
0.299835
0.304027
0.304642
0.311032
0.329635
0.32665
0.324211
0.317956
0.303352
0.305077
0.310748
0.3165
0.335749
0.383237
0.382112
0.391535
0.483188
0.562201
0.587633
0.612869
0.742284
0.823943
0.827177
0.899572
0.915421
0.879138
1.04288
1.11004
1.05542
0.995498
1.00693
1.0505
1.16527
1.58412
1.89354
2.31778
2.43256
2.47735
2.35119
2.08759
1.92938
2.17225
2.29947
2.30009
2.14094
2.02092
1.89616
1.8262
1.88936
2.00679
2.30686
2.44438
2.57467
2.65932
2.61847
2.53733
2.36136
2.44472
2.542
2.53397
2.35285
2.27399
2.45728
2.77762
3.13166
3.11944
2.98898
2.84453
3.08302
3.35689
3.11501
2.99952
2.9794
2.78534
3.14634
3.54086
3.47125
3.16343
2.40095
2.15799
2.17119
6.56252
0.976737
0.340265
0.364967
0.348103
0.276223
0.20169
0.162542
0.14545
0.144465
0.148725
0.149749
0.145739
0.138844
0.137141
0.139601
0.148598
0.152847
0.151041
0.149935
0.151163
0.155595
0.157727
0.157836
0.157227
0.157404
0.159898
0.162706
0.162904
0.162042
0.159191
0.153666
0.150352
0.145663
0.141402
0.137597
0.132038
0.126532
0.119626
0.114431
0.11348
0.113579
0.112181
0.112194
0.114547
0.120445
0.135571
0.182917
0.267066
0.326192
0.359987
0.360195
0.350977
0.318381
0.278701
0.275249
0.29263
0.38402
0.474624
0.499103
0.514602
0.563723
0.762284
1.51486
2.04518
1.64877
0.947935
0.701622
0.468236
0.353653
0.291745
0.251413
0.233993
0.226289
0.225454
0.230391
0.238
0.248315
0.26001
0.270789
0.279848
0.283193
0.284263
0.282249
0.275939
0.267703
0.254317
0.240262
0.221172
0.20334
0.194517
0.192074
0.197499
0.216666
0.222799
0.218159
0.21859
0.22892
0.227173
0.238482
0.243655
0.261094
0.263678
0.27233
0.275638
0.272723
0.282224
0.283283
0.281893
0.287253
0.301585
0.314122
0.342006
0.354266
0.357568
0.391023
0.496054
0.526788
0.566784
0.620572
0.732883
0.739739
0.745748
0.765306
0.785036
0.880936
0.974254
0.949368
0.921057
0.936394
0.96339
1.09358
1.60998
1.9403
2.05355
2.17775
2.14176
2.17024
2.06733
1.81156
1.82602
2.04964
2.0631
2.02858
1.97608
1.82029
1.77875
1.86989
2.04308
2.26903
2.32002
2.31894
2.45893
2.56138
2.65084
2.36955
2.39791
2.42665
2.38666
2.28327
2.10832
2.18869
2.40767
2.74474
2.99991
3.04922
3.01081
3.07869
3.25614
3.03687
2.70079
2.80701
2.64159
2.87517
3.57772
3.45319
3.21129
2.4508
2.07047
2.04322
8.62509
1.27244
0.455432
0.394375
0.32194
0.229067
0.179266
0.153344
0.145192
0.1474
0.149314
0.143411
0.137521
0.138877
0.146797
0.161946
0.171022
0.176228
0.185211
0.191296
0.189321
0.182444
0.174358
0.171826
0.171993
0.174531
0.175289
0.174151
0.170745
0.166769
0.161728
0.155028
0.1484
0.141873
0.137401
0.132126
0.123711
0.117144
0.114918
0.115469
0.118675
0.12347
0.124176
0.123074
0.120529
0.121225
0.12651
0.148951
0.198524
0.245532
0.272861
0.281559
0.281425
0.270893
0.267473
0.275606
0.312285
0.479335
0.708468
0.722049
0.633987
0.633885
0.929355
1.63038
1.78787
1.13937
0.626573
0.431485
0.30479
0.25594
0.228904
0.216347
0.211294
0.216927
0.225991
0.24119
0.26016
0.271321
0.277621
0.280758
0.283564
0.283942
0.28259
0.278389
0.267023
0.254897
0.23941
0.227455
0.213084
0.191518
0.176563
0.170213
0.166307
0.167236
0.166789
0.163554
0.167217
0.170265
0.170431
0.184406
0.197105
0.208022
0.222172
0.2312
0.239229
0.23864
0.242589
0.249443
0.250716
0.255043
0.281633
0.299349
0.308039
0.314264
0.318217
0.341345
0.414441
0.443327
0.45801
0.48601
0.595205
0.65985
0.657413
0.672911
0.741943
0.834141
0.888072
0.864735
0.851037
0.862086
0.90701
1.13826
1.86123
2.01097
1.98291
2.05711
1.99726
1.98464
1.90266
1.76499
1.62286
1.79977
1.85792
1.94209
1.93007
1.7662
1.76644
1.9601
2.03117
2.11528
2.16343
2.23961
2.46412
2.62275
2.73018
2.38383
2.41135
2.35313
2.21701
2.18025
2.04038
2.0091
2.15096
2.3529
2.62786
2.9175
3.08313
3.16985
3.25626
3.06121
2.60665
2.76767
2.64034
2.59339
3.36543
3.45938
3.19721
2.4915
2.05295
2.00109
10.7221
1.58238
0.522127
0.391706
0.281075
0.208634
0.163691
0.148087
0.14428
0.1404
0.133761
0.132909
0.138774
0.151314
0.179818
0.206589
0.222955
0.23245
0.233332
0.222927
0.210034
0.203129
0.198204
0.194786
0.189725
0.182883
0.17716
0.172752
0.168392
0.164152
0.159193
0.154027
0.148295
0.140141
0.133727
0.122123
0.111655
0.108564
0.109783
0.114696
0.120177
0.127537
0.134987
0.141255
0.142941
0.147227
0.156463
0.179525
0.212631
0.248806
0.268467
0.273666
0.273826
0.271329
0.273171
0.288163
0.339995
0.548004
0.783711
0.782052
0.664442
0.697233
1.17493
1.61946
1.39303
0.697187
0.413083
0.291877
0.236565
0.21424
0.20296
0.201989
0.208645
0.22338
0.247762
0.263712
0.27087
0.273931
0.273514
0.270493
0.264254
0.256307
0.244532
0.235667
0.217247
0.197186
0.188217
0.184936
0.182931
0.173515
0.1625
0.159229
0.154313
0.151458
0.143915
0.140295
0.139585
0.137319
0.142517
0.150011
0.176212
0.183045
0.193583
0.208493
0.218757
0.226164
0.22286
0.226224
0.22784
0.232271
0.24835
0.270241
0.284356
0.288161
0.292591
0.306235
0.346616
0.37142
0.391692
0.41574
0.519415
0.620517
0.617343
0.641605
0.728105
0.798959
0.845363
0.822818
0.807685
0.813568
0.875908
1.47787
2.0036
2.08797
1.9422
2.0279
1.93546
1.83703
1.82285
1.73557
1.46496
1.49529
1.65657
1.91584
1.86587
1.67158
1.72642
2.09442
2.02934
2.02414
2.0676
2.13759
2.39519
2.65468
2.707
2.42275
2.52004
2.3781
2.15043
2.11155
2.01259
1.91627
1.99413
2.11398
2.23473
2.49631
2.93234
3.12432
3.26426
3.13182
2.66112
2.7543
2.69722
2.44477
2.81539
3.40653
3.13509
2.51496
2.06591
2.00309
12.8147
1.81684
0.532483
0.350283
0.257777
0.179691
0.144994
0.132741
0.128627
0.125804
0.12936
0.136853
0.157757
0.195956
0.233017
0.253582
0.26112
0.258015
0.254317
0.24794
0.242864
0.237274
0.22681
0.213107
0.19739
0.182585
0.171978
0.164962
0.161131
0.159428
0.157854
0.155192
0.151033
0.143916
0.135849
0.122057
0.110459
0.105803
0.105022
0.10654
0.111207
0.121357
0.140666
0.163812
0.185483
0.200328
0.218039
0.234561
0.252557
0.27616
0.290552
0.295968
0.296381
0.29762
0.304302
0.325338
0.377455
0.562526
0.801553
0.812285
0.723187
0.882677
1.37549
1.46303
0.928118
0.448774
0.290582
0.227711
0.205488
0.194614
0.19315
0.201774
0.219096
0.248934
0.262495
0.266755
0.266699
0.261361
0.245139
0.225834
0.205032
0.192039
0.180061
0.174951
0.169695
0.164495
0.163093
0.162971
0.163142
0.1637
0.15753
0.155709
0.152091
0.146653
0.134194
0.12925
0.123049
0.121503
0.124433
0.128121
0.149545
0.1724
0.179847
0.195667
0.207374
0.212803
0.211622
0.214284
0.215854
0.214914
0.224581
0.246003
0.256551
0.26953
0.276592
0.287017
0.314979
0.331955
0.3656
0.396587
0.480539
0.610421
0.592466
0.615087
0.694821
0.701505
0.770328
0.771753
0.763117
0.776159
0.882244
1.63483
1.9796
1.88769
1.78944
2.00368
1.84508
1.74407
1.80597
1.70372
1.41678
1.41346
1.64515
1.91124
1.7612
1.63701
1.68313
2.11293
2.10013
1.98308
1.98301
1.94419
2.22929
2.60275
2.53368
2.52537
2.55417
2.58346
2.19552
2.09026
2.00162
1.90131
1.89578
1.96148
2.00611
2.14988
2.57126
2.76119
3.0832
3.07897
2.73981
2.66046
2.72301
2.44609
2.35423
3.18751
3.00601
2.51649
2.09843
2.04353
14.8105
1.93182
0.51225
0.306713
0.216895
0.155229
0.135849
0.127694
0.123859
0.124379
0.133416
0.158095
0.194741
0.230628
0.258023
0.27117
0.28152
0.294512
0.310112
0.318396
0.3208
0.314287
0.288217
0.256267
0.228742
0.202722
0.184171
0.17179
0.165608
0.163475
0.163668
0.165273
0.165455
0.162808
0.155202
0.141095
0.120243
0.111447
0.108968
0.1097
0.113756
0.124384
0.145839
0.171417
0.198845
0.224689
0.252524
0.286076
0.326413
0.356379
0.37526
0.400213
0.421423
0.443677
0.449543
0.461328
0.494927
0.633921
0.827492
0.835566
0.816947
1.13873
1.41169
1.20583
0.574409
0.312325
0.229259
0.20111
0.191057
0.187101
0.195466
0.220481
0.250365
0.261956
0.264273
0.261155
0.248562
0.226788
0.209998
0.192931
0.180321
0.171447
0.162626
0.158539
0.157727
0.157651
0.158291
0.158986
0.158224
0.160064
0.155313
0.154095
0.152411
0.144421
0.129184
0.120656
0.112949
0.110935
0.115376
0.119516
0.133677
0.164149
0.169637
0.181465
0.20079
0.20557
0.20639
0.206779
0.210012
0.208157
0.212489
0.232578
0.238958
0.248882
0.26367
0.277259
0.289382
0.308888
0.351034
0.393286
0.453626
0.574553
0.573985
0.607181
0.664377
0.658576
0.714489
0.724321
0.723284
0.750701
0.954968
1.68204
1.83567
1.67852
1.64084
1.6017
1.49285
1.56994
1.72724
1.66523
1.43652
1.47789
1.73977
1.76293
1.6951
1.66128
1.69307
2.05213
2.0942
1.93494
1.9339
1.85235
1.98843
2.39519
2.38998
2.52517
2.54553
2.58757
2.23868
2.08069
1.9997
1.90408
1.841
1.86268
1.89137
1.96512
2.26557
2.37308
2.59077
2.82347
2.69623
2.47886
2.68207
2.50502
2.26728
2.91835
2.91157
2.50118
2.18035
2.14855
16.5904
1.9737
0.457569
0.26628
0.188782
0.153481
0.137081
0.127711
0.124688
0.127764
0.143876
0.172063
0.204746
0.244273
0.288943
0.317195
0.342303
0.366172
0.382964
0.396117
0.41473
0.423756
0.423329
0.391994
0.337843
0.284813
0.246912
0.21332
0.193352
0.185763
0.18278
0.181415
0.178355
0.171684
0.164955
0.1585
0.146694
0.138242
0.13392
0.132075
0.135056
0.149524
0.181044
0.218384
0.253069
0.294753
0.349982
0.406589
0.454933
0.524482
0.604138
0.674549
0.723074
0.765192
0.782779
0.788576
0.802927
0.847383
0.874931
0.873135
1.01357
1.32365
1.36018
0.861924
0.383942
0.240652
0.197425
0.187359
0.186015
0.191808
0.223527
0.255479
0.264966
0.265398
0.260551
0.246574
0.228831
0.213793
0.202694
0.187414
0.176635
0.168487
0.160843
0.155595
0.155377
0.157384
0.157983
0.160468
0.158325
0.160218
0.154103
0.150264
0.146874
0.135564
0.120077
0.10682
0.106094
0.101419
0.109818
0.116553
0.122985
0.149977
0.162051
0.174948
0.189625
0.199917
0.203966
0.200539
0.206307
0.207702
0.20632
0.21649
0.228238
0.229965
0.245291
0.271489
0.279472
0.299255
0.321285
0.381819
0.455539
0.514027
0.545605
0.585686
0.5985
0.60659
0.689965
0.696665
0.698325
0.740703
1.03511
1.63831
1.71701
1.58866
1.51025
1.29688
1.32812
1.50841
1.56399
1.5446
1.45655
1.46839
1.62257
1.74234
1.73971
1.82857
1.813
1.98756
1.98115
1.82789
1.77877
1.73547
1.86696
2.16562
2.3623
2.45137
2.49298
2.39181
2.17839
2.00598
1.97954
1.93176
1.84744
1.8205
1.76322
1.91159
2.19814
2.21878
2.30185
2.51488
2.49151
2.3207
2.54469
2.50092
2.26236
2.72665
2.80814
2.45793
2.24591
2.24252
18.8564
2.0616
0.449268
0.260023
0.189502
0.157779
0.143082
0.132367
0.12995
0.135269
0.152598
0.181451
0.223103
0.277353
0.328143
0.350676
0.372631
0.388216
0.396231
0.406025
0.427788
0.454051
0.493049
0.508684
0.501502
0.441855
0.372723
0.317357
0.247683
0.217001
0.204583
0.199247
0.196317
0.191888
0.186468
0.181021
0.175014
0.171468
0.171629
0.176231
0.189876
0.213663
0.246441
0.284861
0.326623
0.380222
0.447557
0.543514
0.646577
0.749472
0.841391
0.912515
0.94368
0.945162
0.93773
0.935255
0.934006
0.928848
0.906198
0.968007
1.18349
1.32455
1.16874
0.540606
0.277065
0.204761
0.187003
0.185938
0.192901
0.226747
0.257972
0.268045
0.268681
0.261675
0.248128
0.23203
0.223607
0.213799
0.204645
0.192153
0.179196
0.169939
0.164697
0.155118
0.152013
0.154606
0.152012
0.155209
0.152913
0.155475
0.150232
0.139356
0.12974
0.114251
0.105973
0.10101
0.102631
0.0990005
0.102834
0.113568
0.121256
0.141983
0.154231
0.164131
0.174266
0.181694
0.199478
0.199394
0.199832
0.203092
0.203302
0.207218
0.221333
0.224124
0.227598
0.250605
0.270755
0.284012
0.312879
0.340302
0.426204
0.483976
0.502286
0.52343
0.525537
0.541262
0.656255
0.672437
0.680542
0.744183
1.08148
1.46833
1.64944
1.58531
1.41856
1.19721
1.27544
1.37884
1.36255
1.39052
1.45125
1.47575
1.57121
1.6999
1.85722
1.88736
1.74324
1.72577
1.7867
1.75911
1.75083
1.66943
1.70888
1.99278
2.34227
2.36392
2.38519
2.13075
1.92184
1.82713
1.92552
1.92645
1.99006
1.85078
1.68557
1.9217
2.22678
2.14869
2.13968
2.24318
2.23551
2.1302
2.32285
2.3949
2.26884
2.55204
2.68789
2.38284
2.29797
2.28875
20.4415
2.24719
0.472145
0.273696
0.21534
0.197018
0.181888
0.156024
0.14137
0.145257
0.160672
0.193826
0.245466
0.29345
0.333029
0.352071
0.370763
0.381017
0.384468
0.385514
0.39111
0.413139
0.472384
0.539311
0.569431
0.555007
0.458128
0.399533
0.344791
0.263134
0.220239
0.206444
0.202489
0.200237
0.197031
0.192815
0.187793
0.185042
0.18565
0.192904
0.210656
0.23527
0.269466
0.308937
0.356761
0.442787
0.581638
0.688597
0.791155
0.854436
0.907113
0.950026
0.966231
0.954057
0.937136
0.93915
0.933663
0.923984
0.950394
1.06606
1.20056
1.22878
0.748389
0.343305
0.222103
0.192899
0.186855
0.194307
0.231509
0.260305
0.270379
0.272612
0.269394
0.258469
0.242899
0.22833
0.220698
0.21674
0.21177
0.205301
0.191177
0.174835
0.165503
0.154962
0.144983
0.139812
0.130605
0.12807
0.12541
0.123391
0.126874
0.116241
0.106011
0.106116
0.100514
0.100322
0.0946954
0.097446
0.101701
0.110827
0.12136
0.132802
0.152206
0.152898
0.164088
0.17316
0.181174
0.187788
0.192979
0.197147
0.196831
0.199191
0.209934
0.219247
0.223871
0.232562
0.253758
0.272959
0.305767
0.323698
0.363871
0.388802
0.434852
0.462428
0.483434
0.511161
0.619415
0.641347
0.665372
0.750468
1.07124
1.28794
1.61199
1.60864
1.34144
1.17516
1.28576
1.27276
1.16655
1.20247
1.45067
1.51533
1.59628
1.68653
1.77479
1.65552
1.49844
1.48624
1.63395
1.73406
1.79556
1.70653
1.64556
1.86443
2.26339
2.23506
2.14256
2.04015
1.77805
1.72337
1.89105
1.94434
2.13669
1.99138
1.67884
1.77033
2.09105
2.01035
1.96899
2.03107
2.03804
1.96308
2.12197
2.2649
2.25166
2.46441
2.59058
2.33791
2.32478
2.29015
22.1655
2.77323
0.60017
0.35319
0.305319
0.277958
0.291704
0.28949
0.206952
0.193725
0.192714
0.205548
0.245523
0.289841
0.323098
0.343013
0.356998
0.358019
0.341195
0.303351
0.286883
0.293085
0.351812
0.472921
0.576731
0.61898
0.526286
0.43638
0.395315
0.339595
0.261064
0.218017
0.206924
0.203264
0.200671
0.196869
0.191843
0.187801
0.187134
0.194041
0.211146
0.235839
0.268558
0.319464
0.413348
0.557802
0.660212
0.726908
0.803797
0.846349
0.855556
0.887835
0.911516
0.896725
0.882632
0.895515
0.89903
0.912683
0.968591
1.06715
1.13646
0.852132
0.42531
0.247752
0.201684
0.191575
0.193712
0.226228
0.260512
0.273085
0.278779
0.279295
0.272829
0.260018
0.246214
0.231168
0.218496
0.212972
0.210364
0.206081
0.195384
0.179238
0.165094
0.15344
0.141267
0.132266
0.119592
0.113109
0.108721
0.102251
0.102161
0.102202
0.0987319
0.103532
0.097052
0.100164
0.0933405
0.095851
0.0996614
0.105191
0.121797
0.131422
0.152607
0.152651
0.155505
0.165916
0.170164
0.179829
0.180286
0.18284
0.186692
0.192023
0.206287
0.217748
0.221413
0.229865
0.236429
0.255154
0.289878
0.307449
0.329843
0.35695
0.379667
0.398163
0.456621
0.488426
0.595064
0.617824
0.653426
0.755235
0.96008
1.13139
1.59477
1.60973
1.28508
1.16142
1.30888
1.18438
1.07653
1.12433
1.49088
1.6085
1.57912
1.43914
1.49157
1.46663
1.32327
1.32738
1.50414
1.72441
1.8432
1.76863
1.69499
1.84759
2.18799
2.15205
2.05399
2.02153
1.76294
1.68803
1.80729
1.96988
2.15463
2.15481
1.75146
1.68705
1.78388
1.8416
1.81837
1.85984
1.87662
1.82951
1.97878
2.19939
2.25331
2.43946
2.49172
2.29871
2.32256
2.2174
22.1238
4.02922
1.33552
0.72258
0.500803
0.36702
0.359701
0.384926
0.296539
0.224746
0.202526
0.20276
0.23072
0.260677
0.277947
0.294732
0.309281
0.305764
0.295449
0.267358
0.254094
0.257398
0.2956
0.372575
0.523648
0.612382
0.576823
0.448395
0.395147
0.364384
0.314635
0.251061
0.219743
0.210399
0.20772
0.204555
0.197791
0.189718
0.182265
0.182862
0.191617
0.214088
0.258222
0.34781
0.493387
0.595607
0.65568
0.689932
0.722849
0.761938
0.806037
0.847161
0.872425
0.872982
0.864471
0.868714
0.880535
0.907032
0.957392
1.00099
0.835428
0.482324
0.282939
0.214291
0.198377
0.195869
0.212097
0.251321
0.275094
0.290819
0.299072
0.303902
0.294124
0.269959
0.25343
0.240034
0.22119
0.207336
0.197393
0.193464
0.191236
0.179105
0.161079
0.145938
0.129749
0.123455
0.114731
0.107967
0.103405
0.0951054
0.0939952
0.09546
0.0961664
0.0992808
0.0972026
0.0979833
0.0938571
0.0930053
0.0985216
0.104221
0.12221
0.132413
0.152184
0.153424
0.154917
0.162186
0.166551
0.172175
0.174142
0.177958
0.181531
0.187414
0.203153
0.213764
0.220358
0.229269
0.233824
0.240358
0.271357
0.284204
0.299877
0.343275
0.354778
0.36666
0.423126
0.46049
0.566232
0.595078
0.645085
0.767968
0.873186
1.04622
1.60534
1.60585
1.26866
1.1114
1.21982