/*--------------------------------*- C++ -*----------------------------------*\
| =========                 |                                                 |
| \\      /  F ield         | OpenFOAM: The Open Source CFD Toolbox           |
|  \\    /   O peration     | Version:  dev                                   |
|   \\  /    A nd           | Web:      http://www.openfoam.org               |
|    \\/     M anipulation  |                                                 |
\*---------------------------------------------------------------------------*/
FoamFile
{
    version     2.0;
    format      ascii;
    class       volScalarField;
    object      muSgs;
    location    "9.147";
}
// * * * * * * * * * * * * * * * * * * * * * * * * * * * * * * * * * * * * * //

dimensions      [1 -1 -1 0 0 0 0];

internalField   nonuniform List<scalar> 
12225
(
0.000214226
0.000235771
0.000180848
0.000187395
0.000159148
0.000176313
0.000169137
0.000178087
0.00018542
0.000185611
0.000203043
0.00019709
0.000223917
0.000208153
0.000245044
0.000213413
0.0002535
0.000278944
9.33315e-05
0.000201712
0.000178747
0.000200584
0.000164414
0.000186431
0.000154861
0.000173777
0.00015033
0.000164698
0.000149855
0.000156622
0.000152863
0.000151974
0.000166431
0.000151633
0.000247902
0.000294134
2.97284e-05
0.000108374
0.000114023
0.000135326
0.000132894
0.000132261
0.000135118
0.000127521
0.000127979
0.000116306
0.00012166
0.000105221
0.000114753
9.57188e-05
0.000124367
9.94237e-05
0.000189177
0.000259139
9.01974e-06
4.04391e-05
6.58322e-05
7.23815e-05
9.18203e-05
8.61184e-05
9.69596e-05
8.76916e-05
9.51562e-05
8.28876e-05
9.11757e-05
7.58703e-05
8.40495e-05
6.78083e-05
8.87282e-05
7.18634e-05
0.000122743
0.000171274
7.52123e-06
2.751e-05
4.18286e-05
4.69228e-05
6.02568e-05
5.8562e-05
6.54541e-05
6.13327e-05
6.60458e-05
5.94615e-05
6.45455e-05
5.59595e-05
6.24381e-05
4.99646e-05
6.43834e-05
5.42191e-05
7.75725e-05
9.57261e-05
8.37682e-06
1.39696e-05
2.50157e-05
2.62201e-05
3.90489e-05
3.62468e-05
4.31588e-05
4.08328e-05
4.68561e-05
4.15391e-05
4.67762e-05
4.11825e-05
4.67249e-05
3.86153e-05
4.81776e-05
4.31038e-05
5.51203e-05
5.62337e-05
9.06162e-06
1.18286e-05
1.69167e-05
1.73992e-05
2.53598e-05
2.35754e-05
2.8382e-05
2.73394e-05
3.28993e-05
2.86823e-05
3.29747e-05
2.97287e-05
3.38791e-05
2.97221e-05
3.61152e-05
3.26191e-05
3.94446e-05
3.8473e-05
9.26029e-06
1.17171e-05
1.30002e-05
1.31208e-05
1.5631e-05
1.45399e-05
1.71138e-05
1.67111e-05
1.99402e-05
1.7975e-05
2.02112e-05
1.87488e-05
2.08152e-05
1.90626e-05
2.21518e-05
2.08481e-05
2.36594e-05
2.39619e-05
1.25313e-05
1.52817e-05
1.47143e-05
1.42743e-05
1.47097e-05
1.4184e-05
1.50195e-05
1.4763e-05
1.64739e-05
1.56338e-05
1.68174e-05
1.59858e-05
1.69542e-05
1.62409e-05
1.78172e-05
1.74911e-05
1.93498e-05
1.99518e-05
1.78058e-05
2.03073e-05
1.83885e-05
1.73339e-05
1.60623e-05
1.51163e-05
1.50691e-05
1.48027e-05
1.53842e-05
1.47193e-05
1.53467e-05
1.45748e-05
1.49172e-05
1.45256e-05
1.55265e-05
1.55358e-05
1.64528e-05
1.7072e-05
2.6956e-05
2.86856e-05
2.54973e-05
2.36673e-05
1.97459e-05
1.74875e-05
1.68716e-05
1.60429e-05
1.61255e-05
1.51827e-05
1.49849e-05
1.42366e-05
1.41526e-05
1.37832e-05
1.41138e-05
1.41233e-05
1.43357e-05
1.48411e-05
4.05237e-05
4.15135e-05
3.64155e-05
3.3027e-05
2.74741e-05
2.33262e-05
2.04563e-05
1.84291e-05
1.74649e-05
1.62822e-05
1.55663e-05
1.48059e-05
1.44795e-05
1.41688e-05
1.39817e-05
1.3923e-05
1.40872e-05
1.4666e-05
5.74464e-05
5.81412e-05
5.09273e-05
4.3902e-05
3.65995e-05
3.15713e-05
2.70036e-05
2.29727e-05
2.01841e-05
1.81867e-05
1.69074e-05
1.59979e-05
1.54469e-05
1.51188e-05
1.49242e-05
1.48564e-05
1.48783e-05
1.53383e-05
8.12481e-05
8.00791e-05
6.94448e-05
5.91275e-05
4.92699e-05
4.13897e-05
3.49231e-05
2.95362e-05
2.51773e-05
2.18297e-05
1.95983e-05
1.82064e-05
1.74453e-05
1.70612e-05
1.67428e-05
1.65528e-05
1.6646e-05
1.73898e-05
0.000113133
0.000110458
9.51059e-05
8.02387e-05
6.74218e-05
5.65312e-05
4.74496e-05
4.00127e-05
3.38265e-05
2.89379e-05
2.54139e-05
2.31988e-05
2.20513e-05
2.14567e-05
2.10243e-05
2.07663e-05
2.09793e-05
2.25755e-05
0.000150412
0.000144999
0.000122729
0.000101494
8.36362e-05
6.87758e-05
5.66845e-05
4.71176e-05
3.97001e-05
3.42146e-05
3.0435e-05
2.8067e-05
2.67567e-05
2.60339e-05
2.55135e-05
2.51949e-05
2.53774e-05
2.71828e-05
0.000172905
0.000164672
0.000137504
0.00011295
9.26675e-05
7.59561e-05
6.24223e-05
5.17098e-05
4.34845e-05
3.74714e-05
3.33988e-05
3.08614e-05
2.94258e-05
2.86225e-05
2.80658e-05
2.76891e-05
2.78046e-05
2.95601e-05
0.000172562
0.00016351
0.000136129
0.000111841
9.18285e-05
7.5422e-05
6.21399e-05
5.15699e-05
4.33895e-05
3.73698e-05
3.3294e-05
3.07546e-05
2.92977e-05
2.8482e-05
2.79561e-05
2.75623e-05
2.75872e-05
2.90176e-05
0.000143208
0.000138189
0.000118656
9.8488e-05
8.15303e-05
6.74745e-05
5.59979e-05
4.6797e-05
3.96116e-05
3.42709e-05
3.05992e-05
2.82483e-05
2.682e-05
2.59729e-05
2.54601e-05
2.50423e-05
2.49342e-05
2.58434e-05
0.000105271
0.000101709
8.93871e-05
7.55076e-05
6.36203e-05
5.36709e-05
4.545e-05
3.87735e-05
3.34561e-05
2.93474e-05
2.63853e-05
2.43711e-05
2.30877e-05
2.21959e-05
2.16253e-05
2.11958e-05
2.09742e-05
2.1402e-05
7.79015e-05
7.46429e-05
6.42638e-05
5.40174e-05
4.55582e-05
3.86999e-05
3.30111e-05
2.82083e-05
2.44602e-05
2.17237e-05
1.98518e-05
1.8688e-05
1.79652e-05
1.7524e-05
1.72406e-05
1.7138e-05
1.71573e-05
1.75257e-05
5.34949e-05
5.17869e-05
4.5932e-05
3.95486e-05
3.37472e-05
2.87589e-05
2.46162e-05
2.17429e-05
1.96824e-05
1.82486e-05
1.72635e-05
1.65749e-05
1.61323e-05
1.58305e-05
1.56676e-05
1.58189e-05
1.5868e-05
1.60372e-05
3.63711e-05
3.53215e-05
3.19371e-05
2.72153e-05
2.38273e-05
2.18827e-05
2.05289e-05
1.91451e-05
1.79225e-05
1.70808e-05
1.64719e-05
1.61244e-05
1.58611e-05
1.57599e-05
1.58251e-05
1.60129e-05
1.59786e-05
1.59623e-05
2.36988e-05
2.31853e-05
2.09743e-05
1.98486e-05
1.9829e-05
1.98094e-05
1.96237e-05
1.9459e-05
1.92149e-05
1.90193e-05
1.88643e-05
1.89126e-05
1.90569e-05
1.93882e-05
1.94933e-05
1.95114e-05
1.93305e-05
1.90878e-05
1.38038e-05
1.45747e-05
1.60361e-05
1.7789e-05
2.07726e-05
2.3703e-05
2.53765e-05
2.65362e-05
2.70707e-05
2.75458e-05
2.76948e-05
2.81428e-05
2.85128e-05
2.87602e-05
2.86484e-05
2.83895e-05
2.79504e-05
2.75083e-05
7.15874e-06
1.18038e-05
1.81459e-05
2.62889e-05
3.45854e-05
4.01991e-05
4.30669e-05
4.4386e-05
4.48561e-05
4.50799e-05
4.50109e-05
4.51448e-05
4.51027e-05
4.47579e-05
4.41156e-05
4.33718e-05
4.25334e-05
4.18217e-05
6.65269e-06
2.29777e-05
4.07192e-05
5.55725e-05
6.64425e-05
7.24578e-05
7.44976e-05
7.44923e-05
7.37203e-05
7.27884e-05
7.17823e-05
7.08464e-05
6.96453e-05
6.81721e-05
6.66452e-05
6.51684e-05
6.37316e-05
6.25734e-05
2.22193e-05
6.61825e-05
9.87557e-05
0.000111503
0.000118528
0.000120592
0.000118986
0.000116175
0.0001131
0.000110026
0.000107068
0.000104084
0.000100706
9.72388e-05
9.41678e-05
9.12779e-05
8.86214e-05
8.63819e-05
8.51866e-05
0.000169746
0.000191471
0.000188627
0.000181152
0.000170413
0.000160039
0.000151228
0.000143542
0.000136532
0.000130212
0.000124539
0.000119525
0.000114708
0.000110146
0.000105551
0.000101359
9.75123e-05
0.000221972
0.000265237
0.000245403
0.000213805
0.000188567
0.000172362
0.000162396
0.000155923
0.000151358
0.000147855
0.00014472
0.000141826
0.000138932
0.000135931
0.000132705
0.000129426
0.000126007
0.000121872
1.88661e-05
2.65465e-05
2.89689e-05
3.16032e-05
3.44924e-05
3.66161e-05
3.81311e-05
3.92235e-05
4.02189e-05
4.15224e-05
4.24487e-05
4.34751e-05
4.46314e-05
4.62303e-05
4.84125e-05
5.10101e-05
5.4419e-05
5.82277e-05
6.21747e-05
6.71867e-05
7.38213e-05
8.11126e-05
8.86381e-05
9.64605e-05
0.000104222
0.000113542
0.000123006
0.000131747
0.000142607
0.00015279
0.000162771
0.00017561
0.000185945
0.000194417
0.000204657
0.000210288
0.000212481
0.000216413
0.000219077
0.000214143
0.000194312
0.000178577
0.000170429
0.000164949
0.00016086
0.000158958
0.00015937
0.000161211
0.000163492
0.000165666
0.000167791
0.000169848
0.000171714
0.000173632
0.000176184
0.000180606
0.000188624
0.000196015
0.000197888
0.000197921
0.00019906
0.00019992
0.000199097
0.000198578
0.000196748
0.00020024
0.000204044
0.000206838
0.000205897
0.000206843
0.000212204
0.000217265
0.000220636
0.000230868
0.000263833
0.000290466
0.000307755
0.000321957
0.000332672
0.000340171
0.000345285
0.000348403
0.00034845
0.000346931
0.000343586
0.000339573
0.000334395
0.000329128
0.000322628
0.000315308
0.000306059
0.000295947
0.000284103
0.000272416
0.000258894
0.000244217
0.000230239
0.00022016
0.000209361
0.000199351
0.000187961
0.000181125
0.000175188
0.000170422
0.000166907
0.00016405
0.000162466
0.000161624
0.000161267
0.00016162
0.000163282
0.000164692
0.000165801
0.000169917
0.000175785
0.000177287
0.00017675
0.000178617
0.000179733
0.000176591
0.000175715
0.00018084
0.000197724
0.000222084
0.000241508
0.000252612
0.000259142
0.000262443
0.000261738
0.000260828
0.00026637
0.000273624
0.000284722
0.000298061
0.000322687
0.000353919
0.000373353
0.000374569
0.000365976
0.000371829
0.000382672
0.000397465
0.000409233
0.000416911
0.000423433
0.000424273
0.000424318
0.000431762
0.000437434
0.000443615
0.000444001
0.000440748
0.00043762
0.000428467
0.000406178
0.000392488
0.000385428
0.000378388
0.000363633
0.000351114
0.000339171
0.000326127
0.000308758
0.000287539
0.000266507
0.000253574
0.000249057
0.000249709
0.000252983
0.000255842
0.000266472
0.000282905
0.000299796
0.000320917
0.000358877
0.000390915
0.000420025
0.000468487
0.000521157
0.000577116
4.14869e-05
2.72163e-05
2.71684e-05
2.92022e-05
3.19666e-05
3.46142e-05
3.62927e-05
3.68137e-05
3.67426e-05
3.61134e-05
3.47395e-05
3.35879e-05
3.30708e-05
3.31023e-05
3.33599e-05
3.39937e-05
3.55001e-05
3.70382e-05
3.77828e-05
3.80032e-05
3.80196e-05
3.82295e-05
3.85241e-05
3.92634e-05
4.04476e-05
4.22359e-05
4.43812e-05
4.62549e-05
4.87234e-05
5.13041e-05
5.38316e-05
5.86198e-05
6.45664e-05
7.23086e-05
7.92125e-05
9.01294e-05
0.000102382
0.000108921
0.000120418
0.000133764
0.000139266
0.000138997
0.000141164
0.000140712
0.000129062
0.000115558
0.00010799
0.000104065
0.000101556
0.000101101
0.000101419
0.000100851
9.5986e-05
8.92682e-05
8.41301e-05
8.35332e-05
8.68597e-05
9.82756e-05
0.00012021
0.00014266
0.000149367
0.000147833
0.000133458
0.000119354
0.000116625
0.000120166
0.00012894
0.00013457
0.000143224
0.000169765
0.000209772
0.000222962
0.000228595
0.000238745
0.000246344
0.000241148
0.000232178
0.000222199
0.000211544
0.00020101
0.000191387
0.000182758
0.000174642
0.000167248
0.000161657
0.000156297
0.000152592
0.000147906
0.000143066
0.000137792
0.000132938
0.000128144
0.000123347
0.000118386
0.000113026
0.0001101
0.000109991
0.000110585
0.00010903
0.000106783
0.000106797
0.000107881
0.00010887
0.000109693
0.000112081
0.000113183
0.000116038
0.000119813
0.000122921
0.000123684
0.000127365
0.000131192
0.000131984
0.000133587
0.000141248
0.00014849
0.000150821
0.000152726
0.000157541
0.000160888
0.000159808
0.000152337
0.000149002
0.000165471
0.00018787
0.000207368
0.000216591
0.000220811
0.000225154
0.000228185
0.000233394
0.000232217
0.000235383
0.000248373
0.000282198
0.000318332
0.000323727
0.000285521
0.000255854
0.000265438
0.000296343
0.000328458
0.000340629
0.000343347
0.000337913
0.000309751
0.000301936
0.000319957
0.000353479
0.000364526
0.000371262
0.000376716
0.000374048
0.000360101
0.000345943
0.000351531
0.000363168
0.000361972
0.000353121
0.000346812
0.000342291
0.000334758
0.000322936
0.000304132
0.000283183
0.000271477
0.000271152
0.00027363
0.000285299
0.00029085
0.000296181
0.000310403
0.000312805
0.000321987
0.000330878
0.000346383
0.000372714
0.000402538
0.000424642
0.000466394
6.93392e-05
3.22115e-05
2.6832e-05
2.80197e-05
3.14131e-05
3.54832e-05
3.76874e-05
3.75889e-05
3.63356e-05
3.28924e-05
3.0438e-05
2.95579e-05
2.96311e-05
3.00897e-05
3.1e-05
3.18793e-05
3.27741e-05
3.3344e-05
3.3587e-05
3.32145e-05
3.23955e-05
3.21849e-05
3.23748e-05
3.26838e-05
3.30269e-05
3.32741e-05
3.35408e-05
3.37319e-05
3.40528e-05
3.43105e-05
3.44046e-05
3.46206e-05
3.49901e-05
3.61494e-05
3.78744e-05
4.06095e-05
4.67713e-05
5.11311e-05
5.71856e-05
6.70344e-05
7.59567e-05
8.44466e-05
9.28226e-05
0.000104451
0.000109542
0.000110956
0.000109702
0.000100518
8.87957e-05
7.97445e-05
7.28683e-05
6.76604e-05
6.25961e-05
5.87667e-05
5.63105e-05
5.59822e-05
5.78668e-05
6.43874e-05
7.13015e-05
8.35785e-05
9.66029e-05
0.000113875
0.000117227
0.000114042
0.000116769
0.000134971
0.000156006
0.000165139
0.000174988
0.000185686
0.000197164
0.000193267
0.000184671
0.000169172
0.000154019
0.000139817
0.000128218
0.000114233
0.000105664
9.68383e-05
9.1731e-05
8.61468e-05
8.34017e-05
8.07419e-05
7.96467e-05
7.88055e-05
7.83822e-05
7.74183e-05
7.61445e-05
7.50154e-05
7.41988e-05
7.37841e-05
7.30676e-05
7.20262e-05
7.14075e-05
7.1457e-05
7.3246e-05
7.52405e-05
7.59686e-05
7.60812e-05
7.68562e-05
7.87195e-05
7.9459e-05
7.93802e-05
8.05524e-05
8.1324e-05
8.27428e-05
8.59043e-05
9.00019e-05
9.0732e-05
9.44288e-05
0.000100743
0.000101306
0.000100326
0.000105668
0.000115784
0.000121606
0.000122143
0.000127081
0.000139499
0.000146083
0.000129624
0.000115895
0.000122355
0.000142297
0.000159836
0.00017433
0.000182413
0.00018561
0.000188213
0.000189954
0.000194464
0.000200134
0.000219591
0.000253198
0.000271621
0.00025879
0.000216594
0.000200623
0.000210013
0.000245229
0.000261656
0.0002734
0.000270678
0.000261091
0.000229184
0.000221152
0.000234082
0.000267758
0.00028453
0.000294791
0.000308921
0.000317326
0.000297126
0.000277116
0.00028301
0.000316024
0.000320577
0.000311218
0.000309216
0.000314206
0.000315796
0.00031057
0.000302047
0.00029155
0.000283079
0.00028085
0.000286999
0.000297679
0.000301855
0.000307924
0.000314303
0.000323852
0.000334072
0.000328919
0.000324532
0.000334632
0.000345387
0.000343153
0.00036464
0.000103268
4.34037e-05
2.80642e-05
2.86458e-05
3.29764e-05
4.04173e-05
4.09442e-05
3.91029e-05
3.51665e-05
3.1561e-05
2.97787e-05
2.94071e-05
2.96992e-05
3.09618e-05
3.16843e-05
3.18896e-05
3.18153e-05
3.13867e-05
3.1075e-05
3.08248e-05
3.09047e-05
3.12735e-05
3.18693e-05
3.21242e-05
3.22785e-05
3.25248e-05
3.28404e-05
3.32453e-05
3.36213e-05
3.38961e-05
3.39904e-05
3.3917e-05
3.36358e-05
3.35624e-05
3.34379e-05
3.33927e-05
3.37293e-05
3.45766e-05
3.59437e-05
3.85128e-05
4.43549e-05
4.83686e-05
5.66629e-05
6.45139e-05
7.14239e-05
8.88377e-05
9.65559e-05
9.69859e-05
9.28343e-05
8.41691e-05
7.47377e-05
6.7811e-05
6.22848e-05
5.7453e-05
5.43371e-05
5.30332e-05
5.32014e-05
5.64142e-05
6.26407e-05
6.61982e-05
7.17215e-05
9.00314e-05
9.79045e-05
0.000107986
0.000135256
0.000161787
0.000161589
0.000158899
0.000162388
0.000158799
0.000144326
0.000135497
0.000121075
0.000107426
9.37389e-05
8.2983e-05
7.6472e-05
6.97927e-05
6.65754e-05
6.38965e-05
6.26089e-05
6.16971e-05
6.14965e-05
6.15304e-05
6.18886e-05
6.25129e-05
6.30863e-05
6.32916e-05
6.33616e-05
6.35212e-05
6.34579e-05
6.38007e-05
6.36658e-05
6.38402e-05
6.39493e-05
6.52773e-05
6.64346e-05
6.70517e-05
6.74548e-05
6.84191e-05
6.90886e-05
7.05895e-05
7.15967e-05
7.14418e-05
7.06858e-05
7.07551e-05
7.05056e-05
7.09211e-05
7.4139e-05
7.38262e-05
7.50806e-05
8.34934e-05
8.69428e-05
8.46916e-05
8.83089e-05
0.000102455
0.000108079
0.000103408
0.000109258
0.00012785
0.000135323
0.000123843
0.0001186
0.000117528
0.000129506
0.000140113
0.000151568
0.000161973
0.000164787
0.000165968
0.000168978
0.000174847
0.000184701
0.000207225
0.000235939
0.000244531
0.000232316
0.00020549
0.000191355
0.00019702
0.000218376
0.000227844
0.000232389
0.000225335
0.000223271
0.000203989
0.000196478
0.000202914
0.000220289
0.000238889
0.000250504
0.000267529
0.000284875
0.000265137
0.000249184
0.000242528
0.000269912
0.000282883
0.000277322
0.000272129
0.000282286
0.000302427
0.000307416
0.000301891
0.000291898
0.000284218
0.000276965
0.000288185
0.00029326
0.000294511
0.000300268
0.000297386
0.000310423
0.000329951
0.000336732
0.000330432
0.000327156
0.000313817
0.000300887
0.000309758
0.000137224
5.75213e-05
3.16411e-05
3.20218e-05
4.11314e-05
4.41939e-05
4.23399e-05
3.82433e-05
3.36432e-05
3.09447e-05
2.97793e-05
2.99627e-05
3.10565e-05
3.16202e-05
3.15548e-05
3.10041e-05
3.11255e-05
3.12335e-05
3.10464e-05
3.09474e-05
3.09729e-05
3.13078e-05
3.16063e-05
3.18081e-05
3.20725e-05
3.26187e-05
3.30097e-05
3.34744e-05
3.42637e-05
3.46378e-05
3.49456e-05
3.52212e-05
3.52126e-05
3.49472e-05
3.45221e-05
3.40455e-05
3.34516e-05
3.32928e-05
3.29604e-05
3.28936e-05
3.34823e-05
3.4953e-05
3.75726e-05
4.27164e-05
4.76998e-05
5.54351e-05
6.90564e-05
8.25075e-05
8.47519e-05
8.33815e-05
7.80654e-05
7.31679e-05
6.76275e-05
6.10834e-05
5.59318e-05
5.28149e-05
5.25358e-05
5.4076e-05
6.03305e-05
6.63969e-05
6.87146e-05
7.19477e-05
8.13604e-05
0.000111484
0.000154493
0.000161905
0.000147558
0.000136415
0.000128411
0.000114429
0.000102171
8.91071e-05
8.01774e-05
7.10334e-05
6.49168e-05
6.04452e-05
5.82794e-05
5.72067e-05
5.70499e-05
5.71828e-05
5.76269e-05
5.81607e-05
5.8598e-05
5.89248e-05
5.91955e-05
5.93272e-05
5.94161e-05
5.9705e-05
6.02236e-05
6.04589e-05
6.04569e-05
6.06471e-05
6.08208e-05
6.11066e-05
6.19134e-05
6.33696e-05
6.38328e-05
6.41239e-05
6.46676e-05
6.54577e-05
6.57435e-05
6.70817e-05
6.81294e-05
6.89068e-05
6.76737e-05
6.68271e-05
6.64326e-05
6.51777e-05
6.67545e-05
6.73044e-05
6.65099e-05
7.15347e-05
7.8407e-05
7.66479e-05
7.68425e-05
9.31382e-05
0.000103691
9.71414e-05
9.8618e-05
0.000116156
0.00012314
0.000122181
0.000127236
0.000121295
0.000118752
0.000130263
0.000140258
0.000150042
0.000152345
0.000154406
0.000159319
0.000161823
0.000179214
0.000194278
0.000219136
0.000227801
0.00022465
0.000209617
0.000190194
0.000191722
0.000197207
0.000210652
0.00021629
0.000202096
0.000200889
0.00018848
0.000182218
0.000190366
0.0001992
0.000214806
0.000232841
0.000250562
0.000269197
0.000256868
0.00024389
0.000228498
0.000243254
0.00025695
0.000255298
0.000243702
0.000244004
0.00027104
0.000294329
0.000303487
0.00029805
0.000284673
0.000269787
0.000283046
0.000279998
0.000279515
0.000285211
0.000284268
0.000289295
0.000307234
0.000326061
0.000336487
0.000335105
0.000299483
0.000278491
0.000283647
0.000169035
6.99912e-05
3.8669e-05
4.23598e-05
4.68465e-05
4.52576e-05
4.06132e-05
3.54842e-05
3.22191e-05
3.06848e-05
3.08733e-05
3.17414e-05
3.21126e-05
3.22579e-05
3.18773e-05
3.19932e-05
3.20643e-05
3.18612e-05
3.15879e-05
3.14853e-05
3.15781e-05
3.20365e-05
3.24825e-05
3.28193e-05
3.31943e-05
3.38804e-05
3.44578e-05
3.47715e-05
3.51946e-05
3.54791e-05
3.56091e-05
3.58179e-05
3.58184e-05
3.57522e-05
3.57336e-05
3.49942e-05
3.46443e-05
3.45205e-05
3.35848e-05
3.29612e-05
3.27391e-05
3.25427e-05
3.3202e-05
3.43009e-05
3.58426e-05
3.92157e-05
4.56575e-05
5.6223e-05
6.75643e-05
7.19753e-05
7.21352e-05
7.075e-05
6.73213e-05
6.18087e-05
5.5806e-05
5.36155e-05
5.36085e-05
5.64993e-05
6.35649e-05
6.73768e-05
6.75462e-05
6.99539e-05
8.30263e-05
0.000122639
0.000155345
0.000154025
0.000125564
0.000110923
9.66877e-05
8.253e-05
7.37601e-05
6.4821e-05
6.06487e-05
5.67222e-05
5.49632e-05
5.44834e-05
5.45209e-05
5.5024e-05
5.56757e-05
5.6496e-05
5.72708e-05
5.8002e-05
5.84205e-05
5.86608e-05
5.85903e-05
5.82501e-05
5.72193e-05
5.61076e-05
5.5196e-05
5.47756e-05
5.47525e-05
5.51629e-05
5.63699e-05
5.8107e-05
5.90971e-05
5.95997e-05
5.95874e-05
6.01383e-05
6.08021e-05
6.15544e-05
6.21768e-05
6.24674e-05
6.30939e-05
6.46307e-05
6.53373e-05
6.43218e-05
6.43915e-05
6.33424e-05
6.26795e-05
6.3797e-05
6.46167e-05
6.57992e-05
7.26898e-05
7.35191e-05
7.12827e-05
8.12403e-05
9.43999e-05
9.6533e-05
9.73713e-05
0.000109863
0.000118421
0.000118928
0.000122937
0.000119711
0.00011115
0.000116036
0.000128062
0.000139788
0.000142199
0.000145623
0.000149682
0.000152693
0.000173464
0.000187008
0.000199394
0.000209782
0.000209202
0.000211215
0.000188782
0.000183432
0.000185957
0.000196842
0.000206476
0.000193765
0.000190868
0.000180907
0.000175086
0.000182215
0.000193943
0.000213533
0.000227981
0.000232765
0.00025297
0.000250282
0.000241664
0.000225315
0.000232308
0.000243966
0.000244514
0.000236036
0.000223348
0.000238125
0.000265117
0.000291739
0.000302258
0.000295434
0.000273413
0.000275136
0.000270976
0.000264833
0.000261171
0.00026292
0.000267947
0.000283927
0.00030508
0.000329724
0.000340077
0.000298259
0.000268903
0.000269132
0.000199199
8.05476e-05
4.73976e-05
4.89443e-05
4.78915e-05
4.28993e-05
3.68022e-05
3.3191e-05
3.15404e-05
3.15722e-05
3.21846e-05
3.25312e-05
3.24866e-05
3.22886e-05
3.23601e-05
3.22994e-05
3.29251e-05
3.35577e-05
3.38632e-05
3.40947e-05
3.44095e-05
3.50142e-05
3.53877e-05
3.55116e-05
3.55667e-05
3.57041e-05
3.60708e-05
3.63689e-05
3.63408e-05
3.63374e-05
3.60805e-05
3.54946e-05
3.53409e-05
3.49577e-05
3.45497e-05
3.45499e-05
3.41956e-05
3.37687e-05
3.35323e-05
3.29337e-05
3.2825e-05
3.32741e-05
3.32382e-05
3.34752e-05
3.41931e-05
3.46559e-05
3.60973e-05
4.12407e-05
5.02341e-05
5.51867e-05
5.88628e-05
6.04105e-05
5.99547e-05
5.7428e-05
5.37466e-05
5.36584e-05
5.44348e-05
6.08615e-05
7.13735e-05
7.53141e-05
7.52155e-05
7.74777e-05
8.84159e-05
0.000125284
0.000149904
0.00013885
0.000104738
8.85706e-05
7.29627e-05
6.39244e-05
5.87711e-05
5.50109e-05
5.31073e-05
5.21518e-05
5.20405e-05
5.26908e-05
5.3553e-05
5.47923e-05
5.60977e-05
5.72862e-05
5.81903e-05
5.86115e-05
5.8735e-05
5.86892e-05
5.81079e-05
5.73812e-05
5.61046e-05
5.47041e-05
5.26495e-05
5.05889e-05
4.94468e-05
4.92276e-05
4.97149e-05
5.20006e-05
5.2767e-05
5.22382e-05
5.21906e-05
5.34692e-05
5.31635e-05
5.42523e-05
5.5205e-05
5.69473e-05
5.7831e-05
5.8276e-05
5.92826e-05
5.87472e-05
5.93563e-05
6.06942e-05
6.06405e-05
6.0159e-05
6.30624e-05
6.46392e-05
6.69684e-05
6.93089e-05
6.88225e-05
7.13669e-05
8.49806e-05
8.98003e-05
9.29838e-05
9.72914e-05
0.000108868
0.000110829
0.000111115
0.000109727
0.000106384
0.000109579
0.000119337
0.000129022
0.000132931
0.000137611
0.000140041
0.000146435
0.000177773
0.000198572
0.000196859
0.000199593
0.000197381
0.000200067
0.000183959
0.000174639
0.000177044
0.000183556
0.000192853
0.00018848
0.00018773
0.000175519
0.000172549
0.000181381
0.000199724
0.000216333
0.000217347
0.000212437
0.000241416
0.000242588
0.000246108
0.000232492
0.000231837
0.000238554
0.000233851
0.000232332
0.000220053
0.00021952
0.000239683
0.000264734
0.00029223
0.000304188
0.000290808
0.000273621
0.000266536
0.000265425
0.000252699
0.000254775
0.000262352
0.000258811
0.000278816
0.000314648
0.000337351
0.000303773
0.000263218
0.000258232
0.000227611
9.14954e-05
5.44517e-05
5.08631e-05
4.61939e-05
3.91521e-05
3.47859e-05
3.23537e-05
3.16241e-05
3.20009e-05
3.24766e-05
3.23571e-05
3.23366e-05
3.26574e-05
3.33328e-05
3.50775e-05
3.66098e-05
3.74865e-05
3.83338e-05
3.8823e-05
3.8755e-05
3.82566e-05
3.76327e-05
3.74974e-05
3.75791e-05
3.79135e-05
3.80325e-05
3.7935e-05
3.75438e-05
3.71345e-05
3.66751e-05
3.59836e-05
3.52778e-05
3.45006e-05
3.41165e-05
3.38894e-05
3.32295e-05
3.2835e-05
3.28942e-05
3.31409e-05
3.37532e-05
3.47154e-05
3.51936e-05
3.54399e-05
3.5318e-05
3.5509e-05
3.59169e-05
3.79949e-05
4.37992e-05
4.90978e-05
5.2289e-05
5.32148e-05
5.29409e-05
5.27339e-05
5.2726e-05
5.35647e-05
5.59711e-05
6.73499e-05
8.73171e-05
9.01013e-05
8.37549e-05
8.23283e-05
9.66571e-05
0.000132263
0.000141728
0.00011715
8.51543e-05
7.02062e-05
5.98011e-05
5.50267e-05
5.21988e-05
5.05676e-05
4.9731e-05
5.03544e-05
5.15731e-05
5.34888e-05
5.5641e-05
5.68718e-05
5.74646e-05
5.77173e-05
5.7872e-05
5.78015e-05
5.7564e-05
5.7135e-05
5.60625e-05
5.4858e-05
5.33631e-05
5.23988e-05
5.11309e-05
4.89897e-05
4.71119e-05
4.63945e-05
4.58739e-05
4.60636e-05
4.60466e-05
4.55477e-05
4.57472e-05
4.61987e-05
4.61521e-05
4.7948e-05
4.98238e-05
5.11118e-05
5.26183e-05
5.39308e-05
5.49544e-05
5.52412e-05
5.52312e-05
5.57698e-05
5.71966e-05
5.66885e-05
5.94849e-05
6.3132e-05
6.35108e-05
6.40133e-05
6.50388e-05
6.69673e-05
7.49749e-05
7.95041e-05
8.17565e-05
8.39234e-05
9.48842e-05
0.00010201
0.000104388
0.000104972
0.000103321
0.000107841
0.000115553
0.000122196
0.000125586
0.000129547
0.000132904
0.000148758
0.000196305
0.000186001
0.000187622
0.000191719
0.000192317
0.000195769
0.000180342
0.000169936
0.000170309
0.000173655
0.000180908
0.000184211
0.000183724
0.000171461
0.000170765
0.000187595
0.000198937
0.000210601
0.000207367
0.000211905
0.000247944
0.000243223
0.000248013
0.000236847
0.000232108
0.00023484
0.000224308
0.0002257
0.000221932
0.000211097
0.000223255
0.000239064
0.000263508
0.00029442
0.00030443
0.000287147
0.000271193
0.000272177
0.000256941
0.000254225
0.00026327
0.000239614
0.000245641
0.000297671
0.000327247
0.000307068
0.000262174
0.000254177
0.000253408
0.000101956
5.83867e-05
5.07988e-05
4.32375e-05
3.75205e-05
3.34242e-05
3.19216e-05
3.17453e-05
3.17479e-05
3.16256e-05
3.20083e-05
3.26947e-05
3.40392e-05
3.73539e-05
4.00708e-05
4.10387e-05
4.14681e-05
4.17714e-05
4.12991e-05
4.05476e-05
4.01438e-05
3.98627e-05
3.96091e-05
3.90983e-05
3.83394e-05
3.78367e-05
3.75263e-05
3.72468e-05
3.69399e-05
3.65455e-05
3.60256e-05
3.53887e-05
3.45086e-05
3.39466e-05
3.28998e-05
3.19186e-05
3.17876e-05
3.21958e-05
3.30265e-05
3.38543e-05
3.50615e-05
3.6399e-05
3.76447e-05
3.80832e-05
3.87795e-05
3.99453e-05
4.24864e-05
4.5673e-05
4.91e-05
5.18741e-05
5.323e-05
5.31747e-05
5.29838e-05
5.28915e-05
5.41411e-05
5.84528e-05
7.29957e-05
9.21079e-05
9.34194e-05
8.54376e-05
8.5871e-05
0.000110035
0.000134046
0.000127512
9.10759e-05
6.84867e-05
5.79734e-05
5.26716e-05
5.00059e-05
4.87492e-05
4.85722e-05
4.94988e-05
5.15408e-05
5.45448e-05
5.62756e-05
5.68798e-05
5.69373e-05
5.64881e-05
5.5781e-05
5.48025e-05
5.37422e-05
5.23685e-05
5.14425e-05
4.9535e-05
4.73724e-05
4.62497e-05
4.58271e-05
4.57209e-05
4.52922e-05
4.44371e-05
4.43525e-05
4.37999e-05
4.3585e-05
4.25796e-05
4.21351e-05
4.18474e-05
4.13992e-05
4.20459e-05
4.30701e-05
4.64799e-05
4.8263e-05
4.89736e-05
5.10519e-05
5.25999e-05
5.3208e-05
5.356e-05
5.3147e-05
5.40094e-05
5.48995e-05
5.54968e-05
5.90759e-05
6.14659e-05
6.10972e-05
6.15824e-05
6.34664e-05
6.79235e-05
7.12131e-05
7.46203e-05
7.60979e-05
8.44157e-05
9.23177e-05
9.78698e-05
0.000103721
0.000102263
0.000104093
0.000113544
0.000119571
0.000121608
0.000124023
0.000129899
0.000169735
0.000199168
0.000171611
0.000175028
0.000174238
0.000180122
0.000190392
0.000178007
0.000164639
0.000162433
0.00016175
0.000169341
0.000184126
0.000179989
0.000166124
0.000168477
0.00019296
0.000202221
0.000206973
0.000201278
0.000204089
0.000237772
0.000246415
0.00024916
0.000243306
0.000233294
0.000232166
0.000223938
0.000227414
0.000225901
0.000212055
0.000214787
0.000225631
0.000235888
0.000259694
0.00029567
0.000295459
0.000281579
0.000283716
0.000269217
0.000256471
0.000268723
0.000233419
0.000210269
0.000279341
0.000313939
0.00030756
0.000262996
0.000254003
0.000276994
0.000109496
5.91537e-05
4.81613e-05
4.17182e-05
3.50965e-05
3.16357e-05
3.05121e-05
3.0397e-05
3.05711e-05
3.14558e-05
3.25654e-05
3.50833e-05
3.89744e-05
4.17239e-05
4.29853e-05
4.40551e-05
4.45069e-05
4.44615e-05
4.40398e-05
4.37657e-05
4.33646e-05
4.2504e-05
4.12508e-05
3.98179e-05
3.83789e-05
3.74005e-05
3.68053e-05
3.66087e-05
3.66569e-05
3.67264e-05
3.65841e-05
3.61422e-05
3.53506e-05
3.457e-05
3.30934e-05
3.1818e-05
3.15303e-05
3.16579e-05
3.18815e-05
3.25116e-05
3.39136e-05
3.6597e-05
3.97735e-05
4.2587e-05
4.44108e-05
4.64223e-05
4.8464e-05
5.05235e-05
5.31335e-05
5.42577e-05
5.432e-05
5.47708e-05
5.55596e-05
5.57957e-05
5.77147e-05
6.23918e-05
7.45564e-05
9.22504e-05
9.46673e-05
8.93305e-05
9.54658e-05
0.000122058
0.000129164
0.000105265
7.18122e-05
5.74207e-05
5.16402e-05
4.92715e-05
4.78893e-05
4.78816e-05
4.88927e-05
5.09136e-05
5.42013e-05
5.53995e-05
5.54605e-05
5.50914e-05
5.41024e-05
5.20473e-05
4.97578e-05
4.75492e-05
4.63205e-05
4.51449e-05
4.48417e-05
4.46019e-05
4.456e-05
4.45255e-05
4.41618e-05
4.34466e-05
4.33733e-05
4.28126e-05
4.30978e-05
4.30411e-05
4.24511e-05
4.06158e-05
4.02604e-05
3.92443e-05
3.90135e-05
3.92282e-05
4.00507e-05
4.26534e-05
4.63753e-05
4.73113e-05
4.89744e-05
5.1538e-05
5.14134e-05
5.16597e-05
5.21462e-05
5.19956e-05
5.25944e-05
5.30224e-05
5.5674e-05
5.81259e-05
5.93435e-05
5.95975e-05
6.13087e-05
6.44795e-05
6.66981e-05
7.16979e-05
7.41112e-05
7.90602e-05
8.5932e-05
9.14552e-05
9.94987e-05
9.84421e-05
9.58098e-05
0.000107251
0.000114759
0.000117271
0.000119486
0.000130485
0.000179334
0.000188692
0.000162615
0.000170803
0.00016546
0.000162839
0.000175696
0.000169303
0.000163175
0.000162201
0.000167166
0.000179861
0.000189552
0.000175999
0.000165386
0.000169388
0.000190628
0.000207396
0.000201918
0.000197541
0.000193128
0.000216794
0.000246634
0.000243414
0.000249407
0.000237111
0.000241354
0.000230864
0.000229499
0.000228663
0.000218181
0.000209829
0.000217095
0.000222116
0.000232673
0.000269306
0.000280718
0.000280371
0.000287066
0.000281788
0.000253585
0.000270971
0.000239342
0.000196155
0.000257211
0.000298916
0.000305479
0.000264563
0.000257059
0.000297951
0.000113475
5.82087e-05
4.54156e-05
3.85238e-05
3.26047e-05
3.06635e-05
3.01933e-05
3.03168e-05
3.08836e-05
3.22272e-05
3.48487e-05
3.81074e-05
4.08766e-05
4.32431e-05
4.4931e-05
4.60338e-05
4.72258e-05
4.87225e-05
4.96664e-05
5.00941e-05
4.97999e-05
4.78918e-05
4.54271e-05
4.31418e-05
4.07462e-05
3.89448e-05
3.76836e-05
3.71153e-05
3.7062e-05
3.73399e-05
3.7787e-05
3.80062e-05
3.78157e-05
3.71337e-05
3.57597e-05
3.33514e-05
3.23656e-05
3.21793e-05
3.23581e-05
3.28858e-05
3.41864e-05
3.69341e-05
4.01667e-05
4.36498e-05
4.68299e-05
4.98631e-05
5.28906e-05
5.63805e-05
5.91976e-05
6.14659e-05
6.40842e-05
6.55432e-05
6.71384e-05
6.77887e-05
6.91934e-05
7.14916e-05
7.907e-05
9.29152e-05
9.60148e-05
9.52973e-05
0.000109375
0.000125711
0.000118425
8.22269e-05
5.96583e-05
5.15533e-05
4.88305e-05
4.72921e-05
4.66414e-05
4.75865e-05
5.02508e-05
5.33619e-05
5.44681e-05
5.46875e-05
5.44195e-05
5.32585e-05
5.08758e-05
4.89299e-05
4.68833e-05
4.55833e-05
4.47191e-05
4.36961e-05
4.31915e-05
4.32226e-05
4.37616e-05
4.42593e-05
4.45428e-05
4.38936e-05
4.38245e-05
4.29434e-05
4.27798e-05
4.28625e-05
4.20762e-05
3.96933e-05
3.87333e-05
3.72289e-05
3.70971e-05
3.77342e-05
3.85936e-05
4.07491e-05
4.48428e-05
4.6264e-05
4.72294e-05
5.00331e-05
5.1058e-05
5.07953e-05