/*--------------------------------*- C++ -*----------------------------------*\
| =========                 |                                                 |
| \\      /  F ield         | OpenFOAM: The Open Source CFD Toolbox           |
|  \\    /   O peration     | Version:  dev                                   |
|   \\  /    A nd           | Web:      http://www.openfoam.org               |
|    \\/     M anipulation  |                                                 |
\*---------------------------------------------------------------------------*/
FoamFile
{
    version     2.0;
    format      ascii;
    class       volScalarField;
    object      p;
    location    "9.147";
}
// * * * * * * * * * * * * * * * * * * * * * * * * * * * * * * * * * * * * * //

dimensions      [1 -1 -2 0 0 0 0];

internalField   nonuniform List<scalar> 
12225
(
102836
102835
102827
102823
102800
102775
102728
102671
102592
102503
102392
102272
102130
101976
101788
101599
101325
100695
102823
102823
102816
102813
102790
102766
102718
102663
102582
102496
102383
102266
102123
101973
101786
101599
101331
100888
102796
102798
102792
102788
102766
102743
102694
102641
102560
102476
102363
102248
102107
101962
101775
101586
101333
100978
102750
102755
102749
102745
102724
102701
102653
102601
102521
102440
102327
102214
102076
101931
101753
101574
101354
101116
102679
102688
102682
102679
102659
102637
102590
102539
102462
102382
102272
102161
102029
101878
101721
101553
101363
101176
102578
102592
102586
102582
102564
102543
102500
102449
102377
102298
102195
102085
101963
101818
101673
101517
101351
101185
102440
102457
102452
102449
102433
102412
102374
102325
102258
102181
102088
101980
101871
101731
101600
101458
101314
101167
102286
102301
102300
102298
102285
102263
102231
102184
102123
102049
101965
101860
101765
101629
101512
101380
101255
101126
102119
102130
102136
102135
102125
102105
102076
102033
101978
101908
101830
101732
101645
101518
101412
101292
101182
101070
101897
101913
101920
101921
101915
101898
101872
101832
101784
101720
101649
101562
101482
101370
101276
101170
101075
100981
101605
101622
101634
101636
101636
101623
101602
101568
101527
101471
101410
101335
101261
101170
101089
101000
100920
100845
101226
101241
101260
101266
101270
101261
101247
101220
101187
101142
101092
101032
100969
100899
100832
100765
100702
100646
100729
100751
100772
100783
100791
100790
100783
100766
100742
100710
100673
100630
100583
100535
100487
100441
100400
100365
100094
100117
100141
100158
100172
100179
100180
100175
100164
100147
100126
100102
100076
100050
100025
100004
99986.5
99975.1
99287.1
99311.4
99337.3
99360.8
99381.5
99397.9
99410.3
99418.2
99422.6
99423.5
99422.2
99419.5
99416.6
99415
99415.9
99420.4
99429.4
99443.5
98279.8
98307.1
98335.8
98365.1
98393.9
98420.6
98445.2
98467.9
98489.2
98509.6
98529.8
98550.7
98573.2
98598.2
98626.6
98658.8
98695.5
98737.1
97072.1
97092.7
97123.5
97158.7
97195.3
97232.1
97269.3
97307.2
97346.1
97386.5
97429.2
97474.6
97523.1
97575.5
97632.1
97693
97758.4
97828.3
95752.2
95779.5
95814.3
95854.1
95896.8
95942
95989.7
96040.6
96094.9
96153.1
96215.6
96282.7
96354.5
96431.4
96513.3
96600.1
96691.5
96787.5
94566.8
94598.5
94634.1
94675.2
94720.7
94770.5
94824.9
94884.4
94949.4
95020.1
95097
95180
95269.2
95364.2
95465.1
95571.4
95682.8
95799
93612.1
93639.6
93672
93712.1
93758.2
93810.1
93868.1
93932.7
94004.3
94083
94169.1
94262.8
94363.6
94471
94585
94705.1
94830.6
94961
92858.2
92877.4
92907.3
92946.3
92992.3
93044.9
93104.6
93172
93247.5
93331.1
93423.1
93523.4
93631.8
93747.7
93870.7
94000.4
94135.8
94276.4
92271.5
92286.3
92314.1
92351.6
92396.8
92449.2
92509.5
92578.2
92655.9
92742.8
92838.5
92943
93056.3
93177.9
93307.2
93443.4
93585.7
93733.4
91808.9
91831.8
91860.8
91898.3
91943.2
91995.5
92056
92125.3
92204
92292.5
92390.5
92497.9
92614.5
92739.9
92873.4
93014.1
93161.2
93313.9
91472.4
91496.8
91524.5
91561.2
91605
91657.1
91717.9
91787.6
91866.9
91956.3
92055.7
92164.9
92283.8
92411.7
92548
92691.8
92842.2
92998.3
91232
91254.4
91283.8
91318.8
91360.5
91411.3
91472
91541.8
91621.4
91711.3
91811.5
91921.9
92042.3
92171.9
92310.1
92456
92608.7
92767.2
91062
91084.3
91112.3
91147.9
91191.6
91242.1
91299.8
91368.9
91448.5
91538.6
91639.2
91750.4
91871.8
92002.6
92142.1
92289.3
92443.5
92603.6
90949.3
90968.6
90995.5
91030.6
91073.9
91124.6
91184
91251.9
91331.5
91421.6
91522.6
91634.4
91756.3
91887.9
92028.2
92176.3
92331.5
92492.7
90876.2
90894.8
90921.1
90956.1
90999.2
91050
91109.4
91178.1
91257.3
91347.5
91448.8
91560.9
91683.2
91815.2
91956
92104.8
92260.6
92422.5
90834.9
90853
90878.5
90913.7
90957
91007.9
91067.4
91136.5
91215.6
91305.9
91407.3
91519.6
91642
91774.3
91915.4
92064.5
92220.7
92382.9
90820.6
90835.9
90860.8
90895.9
90939
90989.8
91049.4
91118.6
91197.9
91288.2
91389.7
91502
91624.6
91757
91898.2
92047.4
92203.8
92366.3
91398.5
91398.1
91397.6
91397.3
91397.2
91397.4
91397.8
91398.6
91399.4
91400.4
91401.6
91402.6
91404.3
91406.5
91409.5
91413.3
91418.2
91424.3
91431.7
91440.7
91451.7
91464.6
91479.7
91497.3
91517.8
91541.5
91568.8
91600.3
91636.3
91677.2
91723.4
91775.4
91833.6
91897.1
91967.1
92043.8
92127.1
92217.5
92315.6
92420.2
92530.6
92647.6
92771.2
92901.3
93039.5
93185.7
93338.7
93496
93658.3
93825.4
93996.9
94172.2
94350.3
94530.5
94711.5
94893.3
95074.7
95253.2
95426.2
95594
95754
95908.1
96056.4
96195.8
96325
96443.2
96543.5
96627.6
96697.9
96752.9
96794.9
96821
96829.2
96823.1
96804.1
96764.4
96702.7
96621.4
96522.2
96407.1
96276.8
96133
95976.5
95808.6
95630.1
95441.9
95245.3
95041.1
94830.1
94613.4
94391.7
94166
93937.2
93706.4
93474.4
93242.1
93009.8
92778.6
92549.9
92325
92105
91890.2
91682.2
91482.5
91291.9
91111.8
90941.9
90783.9
90637.6
90503.9
90382.4
90272.3
90173.5
90086.7
90010.8
89943.8
89884.9
89833.2
89786.5
89742
89697.7
89651.8
89602.6
89542.6
89464.7
89364.8
89239.7
89086
88903.1
88695.5
88468.7
88226.3
87969.9
87701.4
87425.2
87146.7
86861.4
86577.3
86300.8
86023.2
85739.2
85464.1
85201.2
84948.8
84710.3
84487
84271.6
84050
83818.7
83577.5
83321
83049.3
82765.1
82460.3
82135.6
81781.5
81387.7
80970.1
80537.3
80090.8
79636
79183.6
78747.9
78346.9
77988.7
77694
77471.2
77326.2
77256.3
77249.5
77300.8
77421.7
77605.4
77855.2
78164.9
78516.5
78935.6
79439.3
80015.5
80635.3
91450.6
91450
91449.3
91448.7
91448.6
91448.7
91449.3
91449.9
91450.7
91451.5
91452.4
91453.6
91455.1
91457.3
91460.1
91463.9
91468.8
91474.8
91482
91490.9
91501.5
91514.2
91529.2
91546.8
91567.1
91590.6
91617.7
91648.9
91684.7
91725.3
91770.9
91822
91879.5
91944.2
92013.4
92089.4
92171.9
92261.6
92359.1
92462.9
92571.3
92687.1
92812.5
92945.5
93084.1
93227.9
93376.3
93531
93691.5
93857.2
94027
94200.3
94376.2
94554.8
94733.1
94912.9
95092.7
95270.1
95442
95607.4
95765.6
95919.6
96065.9
96202.4
96329.5
96443.7
96541.1
96622
96691.5
96751.2
96795.4
96818.7
96820.4
96810.4
96789.1
96747.3
96684.5
96602.4
96502.9
96386.7
96256
96111.6
95954.8
95786.4
95607.4
95418.9
95221.7
95016.8
94805.4
94588.1
94366
94139.9
93910.7
93679.7
93447.5
93215.2
92983.3
92752.3
92523.5
92298.9
92079.5
91865.3
91657.7
91458.6
91268.5
91088.9
90920.3
90763.1
90617.7
90484.6
90364.5
90255.3
90157
90071.1
89996.7
89930.8
89872.3
89821.4
89776.2
89732.5
89687.6
89640.8
89592.4
89535
89460
89362.2
89239
89088.2
88907.5
88699.9
88472.3
88230.9
87976.4
87710.1
87436.5
87162.2
86876.6
86592.7
86318.5
86044.9
85763.6
85489.7
85227.8
84976.9
84738.9
84517.2
84303.8
84084.2
83853.5
83612.9
83357.5
83085.5
82800
82495.6
82171.6
81818.5
81423.1
81004.7
80570.2
80122.6
79667.8
79214.7
78778.7
78377.5
78020.7
77724.9
77503
77358.5
77290
77284.1
77336.3
77458.5
77641.2
77891.5
78201.2
78548
78963.9
79468.2
80047
80668.3
91555.5
91554.9
91554
91553.3
91552.6
91552.3
91552.1
91552.4
91552.7
91553
91553.5
91554.4
91555.7
91557.7
91560.3
91563.9
91568.4
91574.1
91581.2
91589.9
91600.4
91613.1
91628.1
91645.5
91665.7
91689
91715.7
91746.5
91781.6
91821.3
91865.8
91915.8
91971.5
92033.4
92104.3
92179.4
92261.3
92350.2
92446.1
92548.4
92656.7
92772.9
92896.8
93025.1
93159.3
93302.2
93450.6
93602.4
93758.8
93920.3
94085.9
94255
94426.6
94599.3
94775.5
94952.2
95128.9
95304.2
95474.7
95639.3
95796.7
95944.2
96086.7
96220.4
96343.5
96451.9
96545
96624.5
96685.4
96736.8
96779.6
96803.3
96806.7
96793.3
96764.1
96716.2
96649.6
96565.1
96463.5
96346.8
96215.1
96069.8
95911.9
95742.5
95562.6
95373.1
95174.9
94969.1
94756.7
94538.4
94315.5
94088.6
93858.9
93627.2
93394.4
93162
92930.3
92699.7
92471.6
92247.5
92028.8
91815.7
91609.2
91411.1
91221.9
91043.7
90876.7
90721.4
90577.8
90446.3
90328.3
90221.4
90124.2
90039.7
89968.1
89904.6
89847.1
89797.6
89755
89712.9
89667.7
89620.9
89572.9
89517.1
89446.6
89354.8
89236.1
89088.4
88911
88707.3
88482.4
88243.1
87992.4
87730.7
87461.1
87185.1
86904.8
86624.1
86353.7
86088.3
85815.7
85544.5
85283.7
85035.2
84797.6
84577
84367.6
84152.3
83923
83683.8
83430.8
83159.7
82872.3
82566
82242.9
81894.3
81499.1
81077.6
80640
80192.4
79738.6
79283.7
78846.2
78444.3
78088.5
77793.4
77573.4
77430
77363.9
77359.2
77414.6
77541.1
77721.7
77973.4
78281.2
78617.5
79031.7
79535.2
80114.3
80735.7
91712.3
91711.8
91710.9
91710.1
91709.2
91708.2
91707.1
91706.2
91705.4
91704.9
91704.9
91705.4
91706.6
91708.2
91710.5
91713.6
91717.8
91723.4
91730.6
91739.7
91750.5
91763.4
91778.6
91796.1
91816.3
91839.7
91866.4
91897
91931.5
91970.3
92014
92062.6
92116.9
92177
92242.8
92317.9
92398.3
92484.9
92578.5
92678.6
92784.9
92898.2
93018.1
93143.7
93276
93414.9
93558
93704.8
93857
94014.2
94174.8
94338.5
94505
94673
94842.8
95014
95185.7
95355.9
95522.1
95682.3
95835.1
95980.3
96119.2
96249.3
96367.1
96470.8
96556.8
96634.7
96697.9
96740
96768.5
96783.7
96781.4
96762.8
96727.4
96674.2
96603.4
96515.4
96411.1
96291.5
96157.5
96010.1
95850.2
95679.1
95497.7
95306.6
95107.1
94899.9
94686
94466.3
94242.1
94014.2
93783.5
93551
93317.7
93084.9
92853.1
92623.1
92395.8
92172.8
91955
91743.5
91538.8
91342.5
91154.4
90978.3
90813.3
90660.4
90519.3
90390.2
90274.9
90171.5
90076.7
89993.9
89925.9
89866
89810.3
89762.9
89723.5
89684.3
89640.4
89593.8
89545
89490
89424.4
89340.9
89229.3
89087
88914.2
88716.8
88498.1
88264.5
88020.1
87764.9
87503
87231.8
86954.9
86675.7
86409.3
86152.8
85894.6
85629
85368
85123.2
84889.6
84669.7
84463.9
84253.2
84026.3
83789.3
83539.6
83271.4
82982.4
82673.2
82347.8
81999
81608.5
81188.5
80748.8
80300.7
79850.1
79395.1
78954.6
78551.4
78195.1
77900.5
77684
77542.9
77479
77472.9
77533.1
77664.8
77848.4
78105.8
78409.6
78729.8
79143.3
79644.9
80220.4
80838.9
91919.7
91919.2
91918.5
91917.6
91916.2
91914.2
91912.2
91910.3
91908.8
91907.8
91907.3
91907.2
91907.5
91908.4
91910.2
91913.3
91918.2
91924.7
91932.6
91941.9
91952.8
91965.6
91980.6
91997.9
92018
92041.2
92067.9
92098.4
92132.6
92170.6
92213.3
92261.1
92313.5
92371.2
92435.2
92505.2
92582.3
92665.9
92755.8
92852.3
92954.8
93064
93180
93301.6
93428.9
93562.4
93700.7
93843.4
93990.3
94140.4
94293.7
94450.9
94611.5
94773.5
94935.6
95099.6
95263.8
95426.1
95584.5
95738.6
95886.6
96026.9
96159.9
96284.5
96396.1
96492.8
96575.4
96639.5
96691.2
96727.7
96749.8
96756.8
96747.7
96722.3
96680.2
96620.9
96544.5
96451.7
96343.2
96219.9
96082.6
95932.2
95769.9
95596.6
95413
95219.9
95018.5
94809.5
94593.9
94372.6
94146.7
93917.4
93685.6
93452.2
93218.3
92985.5
92753.9
92524.2
92297.8
92076
91859.9
91650.2
91447.4
91253.8
91067.8
90894.1
90732
90581.7
90444
90318.4
90206.1
90106.4
90016
89936.3
89871.1
89816
89764.1
89718.9
89682.2
89647.2
89607.2
89561.6
89511.8
89457.4
89395.8
89321
89218.3
89083.6
88918.2
88729
88518.8
88294.3
88059.9
87814.9
87563.9
87297.8
87029.5
86753.5
86492
86240.2
85991.9
85740.6
85479.2
85237.4
85012.5
84796.5
84594.2
84388.7
84164.2
83929.5
83687
83424.8
83130.5
82817.8
82490.3
82135.4
81749.4
81334.3
80894.8
80443.4
79994.1
79544.4
79104.5
78701.3
78344
78047.3
77832
77694.7
77630.7
77619.3
77683.3
77820
78014.4
78283
78589.2
78883.2
79298.6
79793
80364.9
80979
92175.9
92175.4
92174.6
92173.3
92171.1
92168.4
92165.7
92163.3
92161.3
92159.8
92158.6
92157.7
92157.6
92158.5
92160.9
92165.3
92171
92177.3
92184.4
92192.8
92202.8
92214.8
92229.1
92246
92265.8
92288.8
92315
92344.9
92378.4
92415.9
92457.6
92503.9
92554.9
92610.8
92672.3
92739.7
92813.1
92892.7
92979
93070.5
93168.6
93272.7
93382.5
93498.3
93620.1
93747.3
93879.1
94015.3
94155.3
94298.1
94443.8
94593
94745.5
94899
95051.4
95206.4
95361.2
95513.8
95662.7
95807.7
95946.8
96078.5
96203.7
96319.9
96423.2
96511
96583.2
96639.6
96681.7
96709.7
96723.9
96723
96705.8
96672.5
96622.8
96555.8
96473
96374.6
96261
96133.2
95992
95838.3
95673.1
95497.2
95311.1
95115.8
94912.1
94701.1
94483.3
94260
94032
93801.2
93568.2
93334.2
93100
92866.7
92634.8
92405.8
92180.6
91960.2
91746
91539
91337.2
91147.1
90964
90793
90634.8
90487.8
90353.5
90232.9
90124.7
90028.5
89943.8
89869
89806.4
89756.2
89710
89668.2
89633.5
89603.3
89568.5
89526.2
89477.2
89423.4
89364.9
89296.8
89203.9
89079.2
88924
88745.4
88546.3
88332.5
88110.6
87880.2
87641.4
87388.6
87127.3
86857.9
86601.4
86359.3
86110.6
85871.4
85618.1
85379.7
85163.9
84956
84757.1
84557.1
84336.6
84105.3
83871.3
83614.6
83319.5
83004.2
82673.3
82311.3
81929.1
81517.6
81079.4
80621.4
80165.5
79722.8
79290.3
78892.4
78540.4
78239
78019.2
77882.6
77816.8
77800.4
77862.7
78007.6
78216.2
78497.5
78813.4
79070.2
79498.7
79975.8
80546.2
81157.9
92479.2
92478.3
92477.1
92475.3
92473
92469.6
92466.5
92463.8
92461.5
92459.7
92458.2
92457.2
92457.4
92459.2
92462.6
92466.9
92471.5
92476.6
92482.9
92490.7
92500.1
92511.5
92525.3
92541.6
92560.7
92582.7
92607.8
92636.1
92667.9
92703.3
92743.1
92787.3
92835.9
92890
92949.2
93013
93082.8
93158.6
93239.9
93328.5
93421.8
93520.3
93624
93733.1
93848.1
93968.1
94092
94219.9
94351.4
94485.3
94621.7
94761.4
94903.6
95046.8
95191.4
95334.4
95477.4
95618
95756
95890
96015.3
96135.7
96250.1
96354.8
96447.9
96526.7
96589.1
96636.2
96669.1
96687.9
96692.6
96682.5
96656.1
96613.9
96554.9
96480.9
96391.4
96286.8
96167.7
96035
95889.6
95732.2
95563.8
95384.9
95195.9
94998
94791.8
94578.2
94358.1
94132.4
93902
93669.3
93434.7
93199.7
92965.1
92731.3
92499.4
92271.3
92047
91828.2
91616
91411.8
91212.2
91024.8
90846.2
90678.4
90523.8
90381.9
90251.4
90135
90032.7
89940.9
89861.6
89793.1
89734.5
89688.7
89649.6
89612.6
89580.3
89554
89525
89487.6
89442.7
89391.5
89336.3
89272.4
89188.2
89074.8
88932.3
88766.2
88580.1
88380
88172.1
87963.4
87737.4
87502.7
87248.6
86985.2
86733.8
86504.5
86260.3
86024.1
85784.4
85554
85346.7
85148.4
84955.6
84759.8
84546.5
84319.9
84090.5
83834.9
83541.5
83229.7
82896.1
82530.6
82151.4
81741.1
81302.8
80840.6
80372.5
79931.2
79508.9
79118.6
78779.1
78482.7
78250.8
78108.1
78042.2
78025.3
78078.6
78235.3
78455.6
78743.4
79072.4
79296.6
79732.8
80193.2
80764.6
81375.7
92828.2
92826.6
92824.7
92822.2
92819.2
92816.4
92813.5
92810.6
92808.3
92806.6
92804.9
92804.3
92805.5
92808.1
92811.3
92814.8
92819.2
92824.6
92831
92838.4
92846.6
92857.4
92870.4
92885.9
92903.8
92924.4
92947.4
92973.1
93001.9
93034.4
93070.8
93111.9
93158
93208.7
93264.3
93325.1
93391.2
93463.3
93541.3
93624.7
93713.8
93807.3
93903.9
94005.4
94112
94222.7
94337.5
94456.1
94577.5
94700.7
94825.5
94952.7
95082
95213.3
95346.3
95479.1
95610.9
95740.4
95866.9
95988
96100.2
96205.8
96306.1
96397.4
96477.4
96543.6
96594.6
96631.2
96653.9
96662.3
96656.4
96636
96600.1
96549.1
96481.9
96400.2
96303.6
96192.4
96067.7
95929.9
95779.9
95618.6
95446.6
95264.4
95072.3
94871
94661.6
94444.9
94222.1
93993.8
93760.4
93525.6
93289.1
93052.4
92817.2
92582.8
92351.4
92124.1
91901.3
91683.2
91474.1
91271.1
91076.4
90891.6
90716.8
90553.6
90402.6
90265.5
90140.7
90028.5
89931.8
89845.8
89771.5
89710.2
89657.7
89615.4
89582.5
89552.4
89524.8
89501.7
89478.5
89448.4
89408.6
89361.2
89311.2
89253.4
89176.1
89073.1
88944.4
88793.2
88621.2
88435.9
88242.5
88061
87856
87639.7
87397.5
87138.5
86890.9
86672.3
86439.9
86203.8
85977.8
85759.5
85562.8
85373.7
85189.4
85001.4
84795.6
84577.4
84347.4
84090.9
83794.7
83485.6
83154.6
82795
82418.6
82008.9
81563.9
81099.1
80625.6
80177
79764.5
79378.7
79049.5
78769.5
78533.2
78379.4
78312.2
78296.6
78339.2
78506.3
78734.3
79017.7
79333.8
79584.3
80004.7
80448.6
81023.1
81632
93222
93219.4
93217
93214.3
93211
93208
93204.9
93202
93199.2
93197
93196.1
93197
93199.2
93201.9
93205.2
93208.8
93212.6
93216.6
93221.6
93227.9
93235.8
93245.9
93257.9
93272.1
93288.3
93307.3
93328.1
93351.5
93377.7
93407.3
93440.6
93478.3
93520.8
93568
93620.3
93678
93741.1
93809.5
93882.8
93960.6
94042.8
94128.5
94218.1
94311.4
94408.9
94510.3
94614.7
94721.1
94829
94938.9
95051.3
95165.6
95280.4
95396.6
95515.3
95635
95754.4
95872.1
95987.1
96095.2
96194
96285.2
96370.2
96446.6
96511.5
96563.1
96601.2
96626.1
96637.1
96634.3
96617.1
96586.5
96540.7
96479.4
96405.4
96315.9
96212.2
96094.7
95964.4
95821.7
95666.9
95501.2
95324.9
95138.8
94943
94737.4
94523.8
94303.4
94077.8
93848.3
93612.4
93375.4
93137.2
92898.1
92662.2
92427.6
92195.6
91968.7
91748.6
91528.8
91324.8
91123.9
90931.9
90751.1
90580
90421.5
90275.6
90142.3
90023.7
89916.4
89825.1
89746.5
89677.2
89621.7
89576.8
89539.8
89511.9
89488.7
89467
89448
89430.7
89409.3
89376.7
89335.4
89291.8
89240.6
89170.8
89078.2
88963.4
88828
88671.5
88500.7
88324.8
88160
87978.2
87787.2
87567.8
87322.3
87079.5
86865.4
86644.9
86413.3
86201.1
86000.1
85814.5
85634.4
85456.6
85283.2
85084.8
84874.9
84643
84390.4
84107.6
83781.3
83450.1
83103
82726.8
82321.2
81870
81401.7
80928.2
80467.2
80063.3
79678.6
79355.5
79096.2
78868
78705.5
78636
78626.4
78652.6
78828.7
79057.1
79321.6
79621.9
79912.6
80309.7
80745.1
81324.5
81928.5
93657.8
93654.7
93652.3
93649.6
93646.5
93643.4
93640.1
93636.6
93633.7
93631.9
93631.9
93633.4
93635.4
93637.4
93638.8
93640
93641.4
93643.8
93648
93653.8
93661.3
93670.4
93681.2
93693.9
93708.6
93725.6
93745.2
93767.3
93792
93819.7
93850.8
93885.6
93924.6
93968.3
94016.9
94070.6
94129.3
94192.5
94259.8
94330.7
94404.8
94482.2
94562.8
94646.2
94732.6
94822.7
94914.5
95008.1
95103.4
95200
95296.8
95394.3
95493.5
95594.2
95697.1
95801.7
95907.5
96012.1
96114.1
96209.5
96294.7
96371.5
96441.2
96501.7
96550.3
96587.1
96611.8
96623.8
96622.4
96607.3
96578.1
96535
96478.2
96409.8
96329.3
96232.2
96121.3
95997.2
95861.1
95713.4
95552.4
95381.3
95199.9
95008.7
94809
94599.3
94381
94156.7
93927.2
93696.8
93459.9
93221.6
92982.9
92740.7
92504.8
92270.1
92036.9
91810
91590.9
91375.4
91170
90973.9
90784.9
90606.8
90440.6
90285.8
90145.6
90016.8
89904
89802.8
89715.9
89644.9
89582.5
89531.8
89494
89463.4
89440.5
89424.2
89409.3
89395
89382.8
89369.4
89346.1
89315
89278.4
89233.7
89172.9
89092.9
88992.5
88872.5
88732.9
88577.3
88421.8
88269
88110.8
87938.4
87737.5
87523.4
87299.6
87088.3
86877.2
86655.7
86457.5
86279.6
86104.9
85931.4
85758
85597.1
85413.6
85212.7
84981
84724.9
84450.3
84122.9
83790.2
83459.1
83084.6
82679.3
82230.6
81762.9
81287.2
80810.8
80409.9
80026.4
79704.1
79463.5
79248.1
79078.2
79012.3
79012.3
79031
79211.3
79431.4
79665
79951.3
80285.3
80642.5
81080.4
81668.6
82266.3
94131.8
94128.7
94126
94123.1
94120.1
94117
94113.6
94110.1
94107.3
94105.5
94104.8
94104.5
94103.7
94102.6
94101.1
94100.2
94100.9
94103.4
94107
94112
94118.5
94126.6
94136.5
94148.4
94162.3
94178.5
94197
94218.1
94241.8
94268.3
94297.5
94329.7
94365.3
94404.8
94448.8
94497.3
94550.2
94607
94666.8
94729.2
94793.9
94860.9
94930.6
95003
95077.3
95153.2
95231.9
95312.2
95394.1
95478.4
95561.5
95641.3
95719.6
95800.8
95886.2
95975.1
96066.5
96157.4
96245.7
96327.5
96399.6
96462.8
96517.5
96561.6
96594.5
96616.6
96627.3
96625.4
96610.5
96582.6
96541.8
96488.6
96423.4
96346.2
96255.8
96151.6
96033.6
95902.6
95759.3
95604.3
95437.4
95259.8
95072.7
94876.1
94673
94460.9
94238.9
94012
93776.9
93545.2
93306.4
93066.7
92830.1
92581.9
92347.4
92112.1
91880.8
91654.6
91434.7
91222.9
91017.7
90823.7
90639.1
90463.8
90303
90152.1
90016.4
89892.8
89784.6
89691.1
89609.1
89543.4
89490
89445.1
89412.6
89388.9
89371.6
89361.6
89354.3
89345.8
89338.7
89331.7
89319.6
89299.4
89272
89235.8
89185.9
89119.5
89034.9
88929.7
88808.1
88671.9
88534.3
88399.9
88266.1
88113.7
87923.7
87740
87542.4
87345
87145.6
86944.7
86763.4
86598.8
86434
86266.5
86100
85942.9
85779.1
85589
85364.4
85105.9
84826.4
84510.2
84179.9
83864.5
83503.3
83091.6
82647
82182.3
81705.8
81215.9
80807.3
80425.5
80102.8
79876.5
79677.2
79500.7
79443.1
79457.1
79479.1
79644.1
79858.8
80063.3
80340
80697.7
81013.4
81459.3
82057.2
82646.1
94639.3
94635.8
94632.7
94629.5
94626.1
94622.5
94618.5
94614.8
94611.4
94608
94604.8
94601.1
94596.9
94592.8
94589.7
94588.1
94587.9
94588.8
94591.1
94594.8
94600.4
94608.3
94618.3
94630.2
94644.1
94659.8
94677.5
94697.6
94720.1
94745.2
94772.7
94802.7
94835.2
94870.7
94909.4
94951.7
94997.4
95046.1
95097.2
95150.1
95204.9
95261.4
95319.4
95379.1
95440.6
95503.6
95567.4
95630.3
95691
95749.1
95809.3
95874.3
95944
96009.2
96077.1
96149.8
96226.3
96303.8
96379.2
96449
96508.9
96558.5
96597.9
96626.4
96644.3
96651.7
96647.7
96631.7
96603.9
96564.5
96513.3
96450.8
96375.7
96288.7
96188.9
96076
95949.9
95811.2
95660.4
95498.2
95324.8
95141.1
94948.9
94747.4
94540.4
94327.4
94099.1
93874.5
93630.1
93400.6
93160.2
92916.2
92676.7
92433.7
92195.8
91961.3
91730.4
91505.4
91285.9
91075.6
90873.4
90679.6
90499.6
90327.3
90169.9
90024
89892.3
89775.6
89671.1
89583.9
89509.2
89447.9
89401.4
89364.4
89337.4
89320.2
89308.9
89305
89306.3
89304.9
89302.7
89304
89304.7
89294
89277.2
89252.3
89215.2
89162.5
89093.9
89003.8
88903
88787.2
88668.7
88554.1
88444.6
88311.5
88149.9
87988.1
87813
87635.4
87452.7
87273.8
87108.3
86952.4
86797.5
86643.6
86489.6
86338
86187.8
86005.1
85789.4
85539.8
85258.4
84942
84613.4
84301.4
83959.2
83549
83103.7
82644
82177.6
81686.2
81260.9
80882.5
80551.8
80331.9
80155.8
79977
79926
79959.3
79985.5
80132.4
80344.1
80525.9
80789.5
81153.3
81434.9
81888.1
82491.1
83071.3
95173.9
95169.8
95166.3
95162.3
95157.9
95153
95147.8
95143
95138.1
95132.4
95126.2
95120
95113.5
95107.5
95102.7
95098.9
95096
95094.6
95096.9
95097.1
95101.2
95109.1
95119.7
95132.5
95147
95162.9
95180.4
95199.7
95220.9
95244.3
95269.8
95297.5
95327.2
95359
95392.8
95428.7
95466.5
95506.3
95547.7
95590.6
95634.8
95680.3
95726.9
95774.4
95822.6
95871.2
95919.7
95966.8
96011.7
96055.1
96097.5
96138.7
96180.7
96231.4
96283
96339
96399.6
96461.9
96523.6
96580
96625.8
96660.6
96684.7
96698
96701.2
96693.8
96675.4
96646
96605.7
96554.8
96492.8
96419.7
96334.5
96237.5
96128.3
96006.7
95872.8
95726.7
95568.7
95399.3
95219.6
95030.4
94833.9
94628.9
94416
94197.1
93969.9
93738.9
93499.6
93261.7
93021.3
92777.1
92535.5
92294
92054.4
91820.2
91590.9
91366.5
91149.6
90939
90739.9
90548.5
90370.2
90201.9
90047
89906.8
89778.3
89667.5
89569.4
89486
89418.3
89363.3
89321
89291.6
89271.8
89261.4
89256.6
89258.9
89269.3
89277.5
89281.9
89293.4
89305.1
89304.2
89297.7
89286.3
89263.2
89225.4
89173.2
89099.7
89021.7
88927.3
88831.5
88737.9
88656.4
88534.6
88413
88264.8
88114.1
87962.8
87799.8
87635.2
87487
87345.6
87205.8
87070.8
86932
86790.5
86647.2
86471.1
86264.1
86020.7
85745
85422.8
85095.3
84763.5
84423.6
84031.2
83584
83132.5
82689.8
82214.9
81785.3
81406.1
81054.5
80822.9
80676.8
80503.5
80462.4
80512.7
80542
80681
80889
81053.5
81298.8
81658.4
81916.5
82370.7
82972.7
83545.9
95728
95723.5
95719.1
95713.9
95707.4
95700.5
95694.1
95688.3
95682.6
95675.7
95667.4
95658.9
95650.5
95642.2
95634.2
95625.8
95617.3
95610.4
95606.1
95609.8
95615.9
95625.6
95637.8
95652.1
95668
95684.6
95702.1
95720.6
95740.4
95761.6
95784.3
95808.7
95834.8
95862.2
95890.6
95920.2
95950.8
95982.1
96014.2
96047
96080.3
96114.2
96149
96184.6
96220.5
96255.7
96289.6
96321.2
96350.8
96379.3
96405.4
96429.3
96454.7
96485.1
96516.8
96553.6
96595.9
96641.4
96686.7
96726
96755.2
96773.6
96781.7
96779.5
96767.4
96745.1
96712.4
96669.8
96617.3
96554.7
96481.7
96397.4
96302
96195.2
96076.7
95946.8
95805.3
95652.2
95488.1
95312.9
95128.1
94933.7
94731.3
94522.1
94305
94081.8
93852.8
93618.8
93379.8
93137.6
92896.2
92653.4
92409.8
92169.6
91930.5
91695.7
91468.5
91243.8
91028.9
90819.8
90621.2
90434.2
90257
90093.6
89941
89805.2
89681.8
89573.4
89482.3
89403.3
89340.1
89292.3
89256
89231.8
89219
89216.3
89219.2
89227.5
89245.5
89265.8
89280.7
89300.4
89321.5
89332.7
89337
89340.2
89333.1
89311.8
89276.6
89223.6
89168.9
89096.8
89026
88957.8
88901.2
88801.3
88712.8
88578.8
88438.8
88315.9
88183.8
88040
87911.6
87786.1
87667.8
87554.2
87432.6
87296.5
87159.4
86994.6
86804.1
86580.3
86304.1
85965.6
85635.6
85273.5
84921.4
84543.2
84103.8
83656.6
83242.7
82796.8
82381.7
82001.1
81622.1
81367.1
81237.3
81080.3
81058.8
81112.5
81145.9
81287.2
81492.6
81640.2
81876.7
82222
82454.7
82909.4
83501.8
84070.9
96294.7
96289.7
96284.3
96277.8
96270.2
96262.2
96255.2
96248.4
96240.6
96232.3
96222.6
96211.9
96201.7
96191
96179.3
96167.1
96155.5
96146.7
96141.4
96142.4
96148.1
96158
96171.1
96186.7
96203.9
96221.2
96238.5
96255.9
96273.6
96292.2
96311.7
96332.1
96353.6
96376.1
96399
96422.1
96445.6
96469.1
96492.4
96515.9
96539.3
96562.9
96586.7
96610.5
96633.6
96655
96674.7
96692.7
96709.2
96723.9
96735.6
96743.6
96758.2
96768.5
96781
96798.9
96822.2
96847.9
96872.9
96891.4
96901.1
96901
96891.6
96872.9
96844.9
96807.4
96760.6
96705.1
96640.3
96565.9
96481.5
96386.8
96281.6
96165.7
96038.4
95900.3
95751.4
95591.5
95422.2
95242.5
95052.6
94853.2
94645.8
94432.4
94211.7
93985.2
93754.7
93517.7
93277.7
93034.8
92791.7
92549.5
92305.4
92065
91828.8
91594
91368
91144.3
90928.3
90722
90524.5
90340.3
90165.8
90006.5
89857.9
89724.4
89606.5
89501.1
89413.8
89340.8
89281.4
89238.3
89209.3
89190.9
89184.3
89189.1
89201
89217.6
89242.3
89273
89299.9
89328.6
89360.2
89384.5
89402.9
89419
89429.9
89425.8
89408.5
89380.2
89347.2
89301
89256.6
89217.4
89176.6
89113.3
89045
88935.4
88799.3
88690.4
88593.2
88486.7
88385.4
88275.8
88182.3
88091.9
87988.6
87857.6
87734.5
87582.9
87413.2
87239.8
86948.4
86586
86242.9
85856.3
85493.6
85107.7
84685
84245.2
83845.3
83441.2
83044.9
82663.4
82266.1
81989.2
81842
81713
81719.8
81761.6
81800.4
81954.3
82154.2
82291.3
82513.1
82850.1
83053.7
83504.8
84081.3
84645.9
96868.3
96863
96856.8
96850
96842.2
96833.8
96826
96818.4
96808.7
96798.4
96787
96774.3
96761.6
96748.6
96734.5
96720.5
96707.8
96697.6
96691.1
96689.1
96693.4
96702.6
96715.9
96731.7
96749.5
96767.6
96784.5
96800.6
96816.4
96832.2
96848.2
96864.2
96880.7
96897.7
96915.1
96932.4
96949
96965.2
96980.7
96995.6
97010
97023.7
97036.5
97048
97058
97066.3
97073
97078.8
97083.1
97085.5
97087
97089.2
97082
97075.7
97071.1
97070.1
97072.7
97076.8
97079.6
97075.2
97063.5
97043.8
97015.7
96979.8
96935.6
96883
96822.6
96754.1
96677.2
96591.4
96496.4
96391.6
96277.2
96153
96017.9
95872.4
95716.5
95549.5
95374.4
95190.9
94997.5
94794.9
94583.9
94366.9
94142.6
93912.4
93679.2
93440.2
93198.5
92955.7
92711.7
92469.1
92226.9
91986.2
91751.5
91519.1
91292.3
91071.3
90855.8
90651
90455.3
90273
90101.7
89944.8
89800.6
89670.6
89555.7
89455.5
89370.7
89302.4
89247.9
89208.7
89185.3
89173.3
89173.1
89185.1
89206.1
89232.8
89266.1
89305.4
89345.1
89384.6
89428.3
89465
89500.7
89529.1
89558.8
89571.7
89574
89571.9
89560.1
89542.1
89526.6
89516.1
89492.3
89461.9
89400.5
89310.3
89201.7
89112
89051.4
88987.7
88908.6
88823.7
88758
88693.8
88602.2
88483.8
88378.5
88242.2
88085.4
87939.7
87667.3
87288.1
86909.2
86503.7
86137
85752.8
85324.8
84912.3
84509.4
84153.5
83782.1
83392.7
82990.5
82700.3
82510.7
82417.8
82447.1
82462.1
82513.9
82691.8
82874.1
83008.5
83230
83530.8
83711.9
84160.6
84714.4
85273.1
97440.6
97434.4
97427.5
97420
97411.7
97402.9
97393.9
97383.8
97372.8
97361.4
97349.3
97336.2
97322.6
97308.9
97295.1
97281.5
97268.6
97257.9
97250.5
97246.8
97248.8
97258.6
97272
97285.7
97303.8
97320.9
97336.1
97350.4
97363.6
97376.3
97388.6
97400.5
97412
97423.2
97434.6
97446.1
97456.7
97466.1
97474.3
97481
97486.3
97490.3
97492.3
97492.1
97489.9
97486.1
97480.4
97474.1
97466.7
97456.6
97444
97429.7
97413.1
97394.9
97375.6
97357
97338.5
97319.6
97302.3
97274.3
97241
97201.5
97155.1
97102.1
97042.1
96974.9
96900.7
96819.5
96730.6
96633.7
96528.9
96415.4
96293
96160.9
96018.5
95866.6
95705.3
95533.3
95352.4
95163.9
94966.5
94760.6
94546.8
94326.6
94100.4
93868.9
93633
93392.8
93150.1
92906.6
92662.3
92418.8
92177.8
91939
91704.7
91474.3
91248.1
91028.6
90815.3
90613.2
90419.7
90239.7
90071.4
89916
89774.9
89647.7
89535.7
89440
89358
89294
89244
89208.9
89190.4
89184.8
89191.5
89210.9
89240.3
89276.9
89320.7
89369.2
89421.8
89473
89530.1
89580.1
89633.9
89676.5
89724.4
89756.6
89779
89801.7
89811.7
89823.1
89839.4
89852.8
89854.9
89849.1
89812.8
89740.8
89665.1
89610.1
89583.8
89554.9
89488.7
89440.4
89412
89375.7
89285.5
89189.2
89094.1
88975
88820.3
88661.9
88436.1
88071.7
87644
87225.1
86845.2
86497.4
86049.8
85655.1
85256.6
84927.4
84590.1
84198.6
83804.5
83504.7
83274.2
83215.7
83242.1
83220.6
83301.6
83505.6
83654.7
83792.9
84029.5
84268.8
84436.5
84878.7
85407.7
85958.8
98009.1
98001.5
97992.5
97983
97972.5
97960.8
97948.4
97935.6
97922.5
97909.8
97897.2
97885.1
97872.8
97860.6
97849.2
97838.1
97827.9
97819.3
97814.3
97813.9
97816.3
97822.6
97833.9
97845.7
97857.7
97872.3
97886
97897.3
97906.7
97915.8
97924.7
97933.2
97940.9
97947.3
97952.7
97957.7
97962.3
97965.6
97967.1
97966.7
97963.6
97958.2
97950.3
97939.8
97926.7
97912
97896.7
97878
97855.8
97832.3
97806.7
97778.4
97748.4
97720
97685.6
97650.9
97613.8
97575.6
97533.5
97485.8
97433.1
97374.9
97311.3
97241.9
97166.7
97085.4
96998.1
96904.4
96804.4
96697.6
96583.8
96462
96332.3
96193.6
96044.6
95886.9
95720.9
95545.2
95360.1
95167.2
94966.2
94757.2
94540.4
94317.5
94088.7
93855.6
93618.4
93378.1
93135.9
92892.5
92648.3
92405.3
92165
91928.1
91694.7
91465.9
91241.2
91023.8
90812.7
90613.4
90423.4
90244.4
90080.4
89926.4
89787.7
89661.9
89552.7
89460
89380.4
89319.7
89274.8
89243.4
89229.8
89231.3
89244.4
89271.5
89309.6
89356
89409.9
89468.4
89534.2
89598.7
89669
89734.1
89805.6
89866.7
89929.6
89985
90029.2
90074.1
90107.3
90149.8
90198.2
90234.5
90267.4
90289.9
90295.5
90267.9
90219.4
90202.7
90202.9
90191.7
90150.4
90138.2
90146.4
90139.7
90061.9
89983.6
89884.4
89775
89637
89468.6
89272.6
88923.3
88486.7
88079
87666.3
87332.5
86882.3
86484.8
86098.5
85766.2
85462.2
85090.5