/*--------------------------------*- C++ -*----------------------------------*\
| =========                 |                                                 |
| \\      /  F ield         | OpenFOAM: The Open Source CFD Toolbox           |
|  \\    /   O peration     | Version:  dev                                   |
|   \\  /    A nd           | Web:      http://www.openfoam.org               |
|    \\/     M anipulation  |                                                 |
\*---------------------------------------------------------------------------*/
FoamFile
{
    version     2.0;
    format      ascii;
    class       surfaceScalarField;
    object      phi_0;
    location    "9.147";
}
// * * * * * * * * * * * * * * * * * * * * * * * * * * * * * * * * * * * * * //

dimensions      [1 0 -1 0 0 0 0];

internalField   nonuniform List<scalar> 
24170
(
1.62756e-06
1.71218e-06
4.74765e-07
8.99725e-07
-2.35117e-07
4.7738e-07
-7.0016e-07
2.44565e-07
-1.18446e-06
2.85213e-07
-1.43265e-06
6.38646e-08
-1.92705e-06
3.30923e-07
-2.12726e-06
5.68638e-08
-2.59563e-06
3.50166e-07
-2.69012e-06
5.3014e-10
-3.20826e-06
4.48479e-07
-3.27116e-06
1.74885e-08
-3.84003e-06
5.47944e-07
-3.6898e-06
-1.50079e-07
-4.44897e-06
7.85167e-07
-3.47918e-06
-9.3028e-07
-3.06353e-06
-3.73989e-07
1.64539e-06
-4.6723e-06
3.43442e-06
2.26725e-06
2.49175e-06
1.61492e-06
1.62615e-06
1.12121e-06
1.00875e-06
6.55701e-07
3.49782e-07
7.52733e-07
-1.32715e-07
3.75752e-07
-6.04025e-07
6.49101e-07
-9.92939e-07
3.17187e-07
-1.4456e-06
7.00008e-07
-1.76719e-06
2.46661e-07
-2.25885e-06
8.90238e-07
-2.39564e-06
1.28919e-07
-2.90847e-06
1.06583e-06
-3.07631e-06
3.89453e-08
-3.92931e-06
1.69777e-06
-3.77468e-06
-1.01889e-06
-6.15551e-06
2.08319e-06
2.5307e-07
-4.69091e-06
4.08342e-06
2.38877e-06
3.73288e-06
1.70961e-06
3.0432e-06
1.56203e-06
2.62351e-06
8.44278e-07
1.84216e-06
1.32005e-06
1.60545e-06
4.2014e-07
8.62193e-07
1.22083e-06
5.79615e-07
4.544e-07
4.9094e-08
1.11396e-06
-2.89141e-07
5.01097e-07
-9.14866e-07
1.45752e-06
-1.01575e-06
2.00362e-07
-1.89413e-06
1.94517e-06
-1.82892e-06
-3.76753e-09
-3.37897e-06
3.3085e-06
-3.64499e-06
-6.76729e-07
-5.21398e-06
3.74513e-06
2.96597e-06
-7.81142e-06
4.19701e-06
2.82546e-06
4.53538e-06
1.08897e-06
3.79273e-06
2.02926e-06
3.8306e-06
5.50345e-07
2.79587e-06
2.11784e-06
2.80546e-06
1.97341e-07
1.98022e-06
1.8557e-06
1.82155e-06
4.50911e-07
9.31887e-07
1.8731e-06
8.9038e-07
4.46001e-07
1.96657e-07
2.0847e-06
-2.27682e-07
5.94821e-07
-1.03102e-06
2.7433e-06
-1.07482e-06
6.19297e-08
-1.89125e-06
4.18526e-06
-2.67093e-06
1.84348e-07
-3.78918e-06
4.97687e-06
4.90023e-06
-5.58084e-06
4.27335e-06
3.70918e-06
4.59091e-06
4.57048e-07
3.79071e-06
2.52281e-06
4.14022e-06
-8.33598e-08
2.98006e-06
3.01677e-06
2.79265e-06
1.48825e-07
2.09183e-06
2.34443e-06
1.91952e-06
4.42647e-07
1.0957e-06
2.55199e-06
9.93557e-07
4.37959e-07
3.29198e-07
2.67326e-06
-1.37988e-08
8.98042e-07
-6.62995e-07
3.38758e-06
-8.75105e-07
2.99249e-07
-1.29577e-06
4.66413e-06
-2.62661e-06
1.60228e-06
-3.05474e-06
5.52399e-06
5.39634e-06
-3.40098e-06
4.83835e-06
4.43225e-06
4.64503e-06
2.99787e-07
3.85015e-06
2.97751e-06
3.86998e-06
-4.17924e-07
2.83834e-06
3.75854e-06
2.66959e-06
5.34296e-08
2.14017e-06
2.63675e-06
1.77358e-06
6.08624e-07
8.95303e-07
3.26785e-06
7.39495e-07
4.67511e-07
1.96787e-07
3.12789e-06
-1.46027e-07
1.19419e-06
-4.65805e-07
3.69867e-06
-1.07146e-06
9.28739e-07
-1.17746e-06
4.83206e-06
-2.46883e-06
2.98577e-06
-2.33854e-06
5.50655e-06
5.81391e-06
-2.59949e-06
5.68149e-06
4.87753e-06
5.5352e-06
5.608e-08
4.60109e-06
3.53278e-06
4.33757e-06
-5.06065e-07
3.70992e-06
4.05883e-06
3.51227e-06
-4.3998e-08
2.67963e-06
3.20533e-06
2.11812e-06
9.45018e-07
1.34259e-06
3.85655e-06
9.46741e-07
7.18482e-07
5.4964e-07
3.42363e-06
-1.98665e-08
1.70748e-06
-2.00724e-07
3.85834e-06
-1.17117e-06
1.92171e-06
-9.80787e-07
4.71583e-06
-1.62213e-06
3.71484e-06
-1.57685e-06
5.58138e-06
6.30676e-06
-1.90987e-06
4.25876e-06
5.30227e-06
4.27975e-06
-2.75438e-07
3.74314e-06
3.76979e-06
3.43472e-06
-4.76479e-07
3.07433e-06
4.1607e-06
2.64209e-06
1.54542e-07
2.05269e-06
3.5868e-06
1.59365e-06
1.22455e-06
1.39752e-06
3.90256e-06
6.82491e-07
1.3161e-06
4.23227e-07
3.59892e-06
6.82394e-09
2.07388e-06
-8.50498e-08
3.92374e-06
-6.66238e-07
2.5149e-06
-5.16588e-07
4.62153e-06
-1.0076e-06
4.27144e-06
-9.59229e-07
5.62771e-06
6.49491e-06
-1.03181e-06
5.01689e-06
5.77028e-06
4.72427e-06
-3.509e-07
4.38519e-06
3.75517e-06
3.927e-06
-3.4762e-07
3.65393e-06
4.13087e-06
2.8338e-06
6.97616e-07
2.35533e-06
3.81909e-06
1.79426e-06
1.57094e-06
1.58374e-06
3.93422e-06
7.68571e-07
1.98951e-06
5.49625e-07
3.71182e-06
1.35039e-07
2.42314e-06
5.46829e-08
3.96427e-06
-5.91793e-07
3.16948e-06
-6.48492e-07
4.73161e-06
-1.12943e-06
4.82317e-06
-9.6848e-07
5.56974e-06
6.38372e-06
-7.32067e-07
6.36519e-06
6.12126e-06
5.45751e-06
1.22261e-07
4.90277e-06
3.89126e-06
4.04587e-06
1.18631e-07
3.86591e-06
3.94857e-06
3.00037e-06
1.23215e-06
2.69133e-06
3.83059e-06
2.00167e-06
2.00233e-06
1.88896e-06
3.82913e-06
1.2729e-06
2.43132e-06
1.19998e-06
3.65294e-06
5.8199e-07
2.9537e-06
5.10324e-07
3.98495e-06
-1.60702e-07
3.84069e-06
-2.04913e-07
4.81253e-06
-3.35853e-07
5.02629e-06
-2.17936e-07
5.55633e-06
6.28812e-06
9.75198e-09
7.43085e-06
6.45869e-06
6.3453e-06
6.91633e-07
6.01445e-06
3.72447e-06
4.73885e-06
9.27707e-07
4.48169e-06
3.76982e-06
3.52037e-06
1.79611e-06
3.38537e-06
3.6072e-06
2.59846e-06
2.47802e-06
2.51387e-06
3.64765e-06
1.7983e-06
2.93102e-06
1.68472e-06
3.60021e-06
1.05649e-06
3.46758e-06
8.78123e-07
4.09559e-06
3.2051e-07
4.38184e-06
3.20734e-07
4.83864e-06
2.06024e-07
5.20693e-06
2.50277e-07
5.61605e-06
6.15282e-06
5.21624e-07
8.53685e-06
6.5088e-06
7.36599e-06
1.24875e-06
7.19421e-06
3.30203e-06
5.90741e-06
1.65469e-06
5.69652e-06
3.45759e-06
4.53174e-06
2.48253e-06
4.32049e-06
3.38716e-06
3.40219e-06
3.01782e-06
3.15827e-06
3.56539e-06
2.36382e-06
3.45659e-06
1.98914e-06
3.7646e-06
1.38898e-06
3.91558e-06
1.15292e-06
4.23565e-06
8.37544e-07
4.65385e-06
6.4737e-07
5.03458e-06
5.69006e-07
5.33621e-06
6.31456e-07
5.64706e-06
5.91463e-06
9.96624e-07
1.01236e-05
6.65953e-06
8.64469e-06
1.99721e-06
8.07768e-06
3.15446e-06
6.67976e-06
2.37791e-06
6.28778e-06
3.21886e-06
5.30835e-06
2.88262e-06
4.90125e-06
3.26854e-06
4.09335e-06
3.36004e-06
3.66854e-06
3.585e-06
3.01039e-06
3.77492e-06
2.52061e-06
3.98056e-06
1.98955e-06
4.23873e-06
1.56156e-06
4.51927e-06
1.34216e-06
4.78868e-06
1.24514e-06
5.10001e-06
1.28351e-06
5.31701e-06
1.37987e-06
5.61517e-06
5.80752e-06
1.58968e-06
1.18794e-05
6.58296e-06
1.03983e-05
2.59876e-06
9.7117e-06
2.97824e-06
8.37571e-06
2.89784e-06
7.63604e-06
3.193e-06
6.53065e-06
3.28061e-06
5.76035e-06
3.3934e-06
4.94981e-06
3.59407e-06
4.29758e-06
3.73073e-06
3.70615e-06
3.93468e-06
3.20034e-06
4.12872e-06
2.80092e-06
4.35458e-06
2.5007e-06
4.6066e-06
2.30718e-06
4.83611e-06
2.28503e-06
5.03634e-06
2.33205e-06
5.23974e-06
2.55365e-06
5.41204e-06
5.58929e-06
2.83402e-06
1.32767e-05
6.6407e-06
1.19898e-05
2.82197e-06
1.10294e-05
2.89528e-06
9.86922e-06
3.06704e-06
8.94265e-06
3.18754e-06
8.04677e-06
3.31023e-06
7.22456e-06
3.42192e-06
6.49491e-06
3.60784e-06
5.80478e-06
3.78533e-06
5.21285e-06
3.97441e-06
4.69372e-06
4.17845e-06
4.28666e-06
4.37407e-06
4.00865e-06
4.57539e-06
3.85866e-06
4.75049e-06
3.84083e-06
4.88596e-06
3.92164e-06
5.05104e-06
4.11106e-06
5.16844e-06
5.31295e-06
4.38128e-06
1.52281e-05
6.79665e-06
1.39317e-05
2.82669e-06
1.28224e-05
2.74307e-06
1.1734e-05
2.9527e-06
1.0641e-05
3.14418e-06
9.59752e-06
3.29205e-06
8.64593e-06
3.39523e-06
7.85701e-06
3.50592e-06
7.18479e-06
3.65764e-06
6.63189e-06
3.81974e-06
6.18622e-06
4.00875e-06
5.81974e-06
4.2147e-06
5.54568e-06
4.40937e-06
5.37303e-06
4.56296e-06
5.28383e-06
4.68854e-06
5.30644e-06
4.80805e-06
5.42121e-06
4.89285e-06
4.97996e-06
5.64473e-06
1.8282e-05
6.4594e-06
1.68534e-05
2.7002e-06
1.54134e-05
2.65721e-06
1.40939e-05
2.8128e-06
1.28549e-05
3.00039e-06
1.1707e-05
3.14371e-06
1.06822e-05
3.21829e-06
9.8122e-06
3.27337e-06
9.10013e-06
3.36867e-06
8.52049e-06
3.50066e-06
8.06577e-06
3.66613e-06
7.71724e-06
3.86234e-06
7.45147e-06
4.06657e-06
7.28445e-06
4.20845e-06
7.22298e-06
4.3076e-06
7.26281e-06
4.39558e-06
7.40081e-06
4.4463e-06
4.48422e-06
7.64443e-06
1.7914e-05
5.92526e-06
1.66863e-05
2.31272e-06
1.53718e-05
2.38328e-06
1.41576e-05
2.50591e-06
1.31377e-05
2.57695e-06
1.22701e-05
2.65517e-06
1.14729e-05
2.75442e-06
1.07105e-05
2.87201e-06
9.98231e-06
3.0305e-06
9.31298e-06
3.20371e-06
8.78722e-06
3.32191e-06
8.43253e-06
3.43644e-06
8.23053e-06
3.57568e-06
8.15343e-06
3.67603e-06
8.25627e-06
3.66574e-06
8.43498e-06
3.74081e-06
8.67581e-06
3.79054e-06
3.81777e-06
8.97993e-06
1.63865e-05
5.52825e-06
1.52315e-05
1.98311e-06
1.41636e-05
2.00113e-06
1.32327e-05
2.0536e-06
1.24118e-05
2.08745e-06
1.16596e-05
2.17708e-06
1.0957e-05
2.31302e-06
1.03056e-05
2.46379e-06
9.73035e-06
2.62943e-06
9.25355e-06
2.79089e-06
8.89406e-06
2.87372e-06
8.65e-06
2.94664e-06
8.45543e-06
3.11104e-06
8.42077e-06
3.12213e-06
8.44193e-06
3.11121e-06
8.51941e-06
3.18129e-06
8.6493e-06
3.22953e-06
3.25291e-06
8.8255e-06
1.49559e-05
5.14195e-06
1.36203e-05
1.97773e-06
1.25938e-05
1.71812e-06
1.17621e-05
1.63909e-06
1.10361e-05
1.63559e-06
1.03685e-05
1.73991e-06
9.74987e-06
1.90503e-06
9.2062e-06
2.05621e-06
8.77085e-06
2.18508e-06
8.45059e-06
2.30676e-06
8.20384e-06
2.39052e-06
8.02175e-06
2.46267e-06
7.92164e-06
2.60567e-06
7.87814e-06
2.61809e-06
7.85131e-06
2.63673e-06
7.88157e-06
2.69274e-06
7.9585e-06
2.73915e-06
2.75112e-06
8.08319e-06
1.28016e-05
4.25827e-06
1.2101e-05
1.46852e-06
1.13918e-05
1.25277e-06
1.07103e-05
1.20531e-06
1.00386e-05
1.25421e-06
9.42125e-06
1.3704e-06
8.89114e-06
1.52059e-06
8.45443e-06
1.64683e-06
8.10403e-06
1.74926e-06
7.83832e-06
1.85226e-06
7.63642e-06
1.94363e-06
7.47595e-06
2.03104e-06
7.40826e-06
2.12649e-06
7.37914e-06
2.14864e-06
7.3703e-06
2.18868e-06
7.41929e-06
2.22466e-06
7.53007e-06
2.24848e-06
2.24572e-06
7.685e-06
1.15057e-05
3.3807e-06
1.07951e-05
1.09864e-06
1.01056e-05
8.91746e-07
9.48701e-06
8.27806e-07
8.93886e-06
8.64298e-07
8.46461e-06
9.67782e-07
8.09631e-06
1.07635e-06
7.80177e-06
1.19137e-06
7.5325e-06
1.32252e-06
7.29667e-06
1.44844e-06
7.12542e-06
1.53822e-06
6.9798e-06
1.64977e-06
6.87278e-06
1.74541e-06
6.82825e-06
1.74717e-06
6.81531e-06
1.79329e-06
6.84033e-06
1.82504e-06
6.92321e-06
1.82362e-06
1.82281e-06
7.02783e-06
1.0229e-05
2.692e-06
9.74922e-06
6.15614e-07
9.1803e-06
5.24032e-07
8.60709e-06
5.13968e-07
8.07499e-06
5.62349e-07
7.60853e-06
6.55251e-07
7.20939e-06
7.52085e-07
6.87227e-06
8.62219e-07
6.60935e-06
9.73561e-07
6.43371e-06
1.0617e-06
6.33619e-06
1.1218e-06
6.28526e-06
1.23108e-06
6.31198e-06
1.28694e-06
6.3418e-06
1.32302e-06
6.41023e-06
1.36482e-06
6.48948e-06
1.41359e-06
6.56938e-06
1.43696e-06
1.46274e-06
6.64307e-06
9.24909e-06
2.22761e-06
8.81609e-06
1.91767e-07
8.38769e-06
1.18751e-07
7.93234e-06
1.80414e-07
7.50507e-06
2.48089e-07
7.12842e-06
3.40334e-07
6.79653e-06
4.42148e-07
6.49862e-06
5.6823e-07
6.2509e-06
6.7971e-07
6.02787e-06
7.89468e-07
5.81567e-06
8.79042e-07
5.68032e-06
9.49537e-07
5.61712e-06
9.69369e-07
5.57803e-06
1.01455e-06
5.57924e-06
1.04488e-06
5.61701e-06
1.08068e-06
5.67764e-06
1.1024e-06
1.10721e-06
5.77722e-06
8.2948e-06
1.45413e-06
7.87231e-06
-1.48332e-07
7.45996e-06
-2.11772e-07
7.075e-06
-1.376e-07
6.73061e-06
-6.75169e-08
6.4234e-06
3.34883e-08
6.12505e-06
1.71932e-07
5.85186e-06
3.16593e-07
5.61585e-06
4.35229e-07
5.43053e-06
5.36428e-07
5.28276e-06
6.24513e-07
5.20424e-06
6.60004e-07
5.16059e-06
6.77518e-07
5.15568e-06
7.11292e-07
5.18128e-06
7.35811e-07
5.23564e-06
7.64976e-07
5.3096e-06
7.85183e-07
7.85686e-07
5.40439e-06
7.56155e-06
8.15894e-07
7.25614e-06
-5.20808e-07
6.91294e-06
-5.30101e-07
6.5446e-06
-3.94924e-07
6.1741e-06
-2.84385e-07
5.82022e-06
-1.59008e-07
5.50065e-06
-1.32979e-08
5.22526e-06
1.27635e-07
4.99891e-06
2.35811e-07
4.83056e-06
3.14975e-07
4.73537e-06
3.63754e-07
4.67464e-06
3.96042e-07
4.63434e-06
4.20247e-07
4.6184e-06
4.54235e-07
4.62549e-06
4.7773e-07
4.65482e-06
5.03402e-07
4.70624e-06
5.18512e-07
5.23068e-07
4.76804e-06
6.78372e-06
2.45421e-08
6.64842e-06
-9.88806e-07
6.36272e-06
-8.3323e-07
5.98347e-06
-5.7199e-07
5.58239e-06
-4.05233e-07
5.19794e-06
-2.60252e-07
4.8557e-06
-1.19773e-07
4.57319e-06
-2.25301e-09
4.33797e-06
9.32144e-08
4.15497e-06
1.52519e-07
4.00803e-06
1.95161e-07
3.89264e-06
2.23127e-07
3.79871e-06
2.50565e-07
3.73029e-06
2.81057e-07
3.68621e-06
2.99509e-07
3.66802e-06
3.16248e-07
3.66904e-06
3.26786e-07
3.24625e-07
3.68946e-06
6.01636e-06
-4.61891e-07
5.81657e-06
-1.32611e-06
5.44264e-06
-9.84022e-07
5.00288e-06
-6.27923e-07
4.51505e-06
-3.8218e-07
4.03923e-06
-2.16564e-07
3.61219e-06
-9.17045e-08
3.24729e-06
-3.89363e-09
2.94456e-06
6.03572e-08
2.68945e-06
1.01046e-07
2.47208e-06
1.32731e-07
2.28644e-06
1.53345e-07
2.13281e-06
1.70669e-07
2.01168e-06
1.88092e-07
1.91509e-06
1.99145e-07
1.83283e-06
2.16504e-07
1.7741e-06
2.16483e-07
2.2634e-07
1.71455e-06
5.35559e-06
-8.95556e-07
4.67923e-06
-1.12409e-06
3.88413e-06
-6.5408e-07
3.14741e-06
-3.31305e-07
2.49318e-06
-1.40778e-07
1.93173e-06
-3.90012e-08
1.46952e-06
1.61802e-08
1.09526e-06
4.5081e-08
7.93529e-07
6.45281e-08
5.46913e-07
7.60102e-08
3.48062e-07
8.37404e-08
1.80775e-07
9.43322e-08
4.82663e-08
9.61936e-08
-5.82399e-08
1.04714e-07
-1.42419e-07
1.08515e-07
-2.04406e-07
1.16781e-07
-2.51856e-07
1.13591e-07
1.236e-07
-2.89722e-07
3.50081e-06
2.00016e-06
9.76653e-07
2.91545e-07
-1.83787e-07
-5.35059e-07
-8.07281e-07
-1.02672e-06
-1.20382e-06
-1.34802e-06
-1.46489e-06
-1.55344e-06
-1.62436e-06
-1.67285e-06
-1.70543e-06
-1.71927e-06
-1.72733e-06
-1.7181e-06
-3.05747e-07
4.01422e-07
-6.98259e-07
4.91654e-07
-1.05551e-06
4.59229e-07
-1.34442e-06
3.93033e-07
-1.55495e-06
3.19434e-07
-1.64993e-06
2.0814e-07
-1.55708e-06
2.42004e-08
-1.30706e-06
-1.28893e-07
-9.23061e-07
-2.57991e-07
-4.36953e-07
-3.5425e-07
1.02363e-07
-4.00595e-07
6.62853e-07
-4.14357e-07
1.23648e-06
-4.19582e-07
1.84465e-06
-4.45421e-07
2.49904e-06
-4.82078e-07
3.20223e-06
-5.2028e-07
3.95512e-06
-5.58687e-07
4.73482e-06
-5.76422e-07
5.55221e-06
-6.06635e-07
6.45674e-06
-6.8005e-07
7.43949e-06
-7.42388e-07
8.44894e-06
-7.58469e-07
9.46353e-06
-7.50716e-07
1.04714e-05
-7.29957e-07
1.14547e-05
-6.9365e-07
1.23951e-05
-6.44e-07
1.32403e-05
-5.49771e-07
1.40229e-05
-4.76208e-07
1.47439e-05
-4.07753e-07
1.53799e-05
-3.32719e-07
1.59569e-05
-2.56192e-07
1.64186e-05
-1.22453e-07
1.67088e-05
2.43248e-08
1.68671e-05
1.82682e-07
1.6921e-05
3.29517e-07
1.67094e-05
5.30731e-07
1.63544e-05
6.81588e-07
1.60028e-05
7.75296e-07
1.53321e-05
1.00857e-06
1.42864e-05
1.21276e-06
1.33987e-05
1.03045e-06
1.29158e-05
7.01599e-07
1.26707e-05
5.33006e-07
1.26444e-05
3.21619e-07
1.28598e-05
4.61891e-08
1.30914e-05
-7.0922e-09
1.30867e-05
1.94113e-07
1.28901e-05
3.5875e-07
1.26228e-05
3.98036e-07
1.23361e-05
3.78054e-07
1.20479e-05
3.38507e-07
1.17655e-05
2.90875e-07
1.15606e-05
1.66581e-07
1.15247e-05
-5.41826e-08
1.1694e-05
-3.14531e-07
1.19917e-05
-5.04231e-07
1.22071e-05
-5.13553e-07
1.20119e-05
-2.41875e-07
1.14944e-05
8.50469e-09
1.11076e-05
-4.8735e-08
1.08858e-05
-1.71157e-07
1.08923e-05
-4.85472e-07
1.12107e-05
-8.69561e-07
1.17694e-05
-1.16385e-06
1.30975e-05
-2.06236e-06
1.48269e-05
-2.62553e-06
1.57949e-05
-1.92582e-06
1.64723e-05
-1.68217e-06
1.65537e-05
-1.19276e-06
1.61125e-05
-7.15099e-07
1.5808e-05
-8.19229e-07
1.52167e-05
-6.77705e-07
1.37314e-05
3.46002e-09
1.13431e-05
1.03607e-06
8.74538e-06
1.3575e-06
6.25358e-06
1.1453e-06
3.96985e-06
8.34894e-07
1.92084e-06
5.46548e-07
1.12204e-07
2.68427e-07
-1.4856e-06
3.08854e-08
-2.87949e-06
-1.89929e-07
-4.10509e-06
-3.67141e-07
-5.13087e-06
-5.68407e-07
-6.01827e-06
-6.99837e-07
-6.75651e-06
-8.34792e-07
-7.37664e-06
-9.32198e-07
-7.8937e-06
-1.00861e-06
-8.32534e-06
-1.06261e-06
-8.64627e-06
-1.13838e-06
-8.85195e-06
-1.21741e-06
-8.94121e-06
-1.29543e-06
-8.92129e-06
-1.364e-06
-8.76856e-06
-1.44971e-06
-8.47615e-06
-1.5438e-06
-8.01434e-06
-1.67683e-06
-7.41864e-06
-1.77761e-06
-6.78387e-06
-1.79248e-06
-6.19986e-06
-1.70977e-06
-5.49919e-06
-1.79217e-06
-4.6911e-06
-1.87831e-06
-3.81027e-06
-1.94177e-06
-3.02596e-06
-1.83411e-06
-2.28525e-06
-1.78509e-06
-1.52903e-06
-1.79979e-06
-8.34758e-07
-1.74377e-06
-1.11149e-07
-1.78011e-06
5.65987e-07
-1.74534e-06
1.20367e-06
-1.7205e-06
1.76936e-06
-1.66169e-06
2.43815e-06
-1.77498e-06
3.0661e-06
-1.74584e-06
3.53296e-06
-1.60579e-06
3.97178e-06
-1.60532e-06
4.46573e-06
-1.67947e-06
4.75632e-06
-1.48701e-06
4.90606e-06
-1.35939e-06
5.02888e-06
-1.35344e-06
5.15198e-06
-1.37576e-06
5.11896e-06
-1.24795e-06
5.13928e-06
-1.34644e-06
5.27237e-06
-1.49521e-06
5.83442e-06
-1.88501e-06
7.07347e-06
-2.49639e-06
8.16986e-06
-2.46839e-06
8.7357e-06
-2.08316e-06
8.89845e-06
-1.62292e-06
8.9615e-06
-1.39497e-06
8.95669e-06
-1.3963e-06
8.68589e-06
-1.31878e-06
8.19106e-06
-1.05661e-06
7.95754e-06
-1.14927e-06
8.21758e-06
-1.56766e-06
8.76783e-06
-1.8544e-06
9.21541e-06
-1.74489e-06
9.23479e-06
-1.25066e-06
8.56272e-06
-4.40016e-07
7.70734e-06
-1.82991e-07
8.02649e-06
-1.38013e-06
1.00373e-05
-3.02381e-06
1.18045e-05
-2.77831e-06
1.19258e-05
-1.24309e-06
1.17023e-05
-8.78684e-07
1.13418e-05
-6.54454e-07
1.11408e-05
-8.32372e-07
1.09024e-05
-8.56513e-07
1.18874e-05
-2.14284e-06
1.31966e-05
-2.63075e-06
1.31561e-05
-1.42823e-06
1.249e-05
-8.3085e-07
1.21225e-05
-1.21457e-06
1.15533e-05
-1.14261e-06
1.08433e-05
-1.15756e-06
9.95144e-06
-1.05951e-06
9.37932e-06
-1.5421e-06
9.30036e-06
-2.33598e-06
8.97078e-06
-2.27414e-06
7.69317e-06
-1.28993e-06
6.65873e-06
-1.50399e-06
5.87505e-06
-1.86483e-06
5.03389e-06
-1.84746e-06
4.24285e-06
-1.88117e-06
3.50215e-06
-1.90596e-06
2.85144e-06
-1.97225e-06
1.83326e-06
-1.60579e-06
5.36201e-07
-1.31351e-06
-9.01518e-07
-1.21757e-06
-2.23149e-06
-1.37349e-06
-3.39635e-06
-1.5892e-06
-4.15923e-06
-2.02977e-06
-5.21223e-06
-1.71326e-06
-6.57889e-06
-1.39145e-06
-7.01452e-06
-2.27791e-06
-7.47027e-06
-2.11675e-06
-7.83642e-06
-2.13337e-06
-7.79009e-06
-2.3828e-06
-8.26138e-06
-1.75183e-06
-9.5258e-06
-8.91354e-07
-1.04094e-05
-1.12625e-06
-1.07792e-05
-1.4629e-06
-1.87284e-06
-1.06589e-05
-6.20502e-08
5.62843e-07
-2.87322e-07
8.16375e-07
-5.12376e-07
7.9216e-07
-7.00233e-07
6.94184e-07
-8.47733e-07
5.83719e-07
-8.57945e-07
3.36716e-07
-6.99007e-07
-1.49068e-08
-3.81185e-07
-3.24726e-07
3.57036e-08
-5.48938e-07
4.98056e-07
-6.85751e-07
9.93761e-07
-7.58993e-07
1.51574e-06
-7.9182e-07
2.0344e-06
-7.86404e-07
2.56313e-06
-8.14585e-07
3.12951e-06
-8.81067e-07
3.75423e-06
-9.68364e-07
4.49123e-06
-1.10532e-06
5.32776e-06
-1.21108e-06
6.18968e-06
-1.26271e-06
7.09333e-06
-1.36642e-06
8.04034e-06
-1.44929e-06
8.98465e-06
-1.45782e-06
9.93686e-06
-1.45668e-06
1.09357e-05
-1.45724e-06
1.19799e-05
-1.44482e-06
1.30423e-05
-1.41577e-06
1.40474e-05
-1.26656e-06
1.50094e-05
-1.13011e-06
1.59415e-05
-1.04329e-06
1.68151e-05
-8.97704e-07
1.76676e-05
-7.64651e-07
1.83493e-05
-5.26015e-07
1.893e-05
-2.60425e-07
1.94752e-05
-2.56294e-08
1.9758e-05
2.91567e-07
2.00231e-05
6.07589e-07
2.02057e-05
8.74096e-07
2.00932e-05
1.11104e-06
2.01444e-05
1.35445e-06
2.01825e-05
1.61964e-06
1.97234e-05
1.66307e-06
1.90572e-05
1.69738e-06
1.82241e-05
1.90165e-06
1.70734e-05
1.70385e-06
1.59539e-05
1.17921e-06
1.52724e-05
8.41943e-07
1.49621e-05
8.16551e-07
1.48075e-05
7.81913e-07
1.46436e-05
7.28101e-07
1.43908e-05
7.35478e-07
1.40164e-05
7.59496e-07
1.36025e-05
6.72491e-07
1.32388e-05
4.29313e-07
1.3063e-05
-1.94492e-08
1.31887e-05
-6.17849e-07
1.36412e-05
-1.16134e-06
1.43682e-05
-1.4996e-06
1.50117e-05
-1.1999e-06
1.56534e-05
-9.62564e-07
1.54527e-05
-2.77789e-07
1.45873e-05
1.90014e-07
1.40883e-05
-6.35877e-07
1.35463e-05
-9.72331e-07
1.39545e-05
-2.04933e-06
1.50151e-05
-3.77187e-06
1.63233e-05
-4.81851e-06
1.69934e-05
-3.53306e-06
1.60314e-05
-1.79322e-06
1.46595e-05
-1.04309e-06
1.23253e-05
4.65267e-07
9.32587e-06
1.05594e-06
6.1882e-06
1.2567e-06
3.47685e-06
1.43444e-06
1.50251e-06
1.69787e-06
-2.18453e-07
1.68701e-06
-1.90235e-06
1.36564e-06
-3.51297e-06
9.32786e-07
-4.97758e-06
4.62825e-07
-6.26018e-06
-2.27702e-08
-7.40285e-06
-4.183e-07
-8.39597e-06
-8.00465e-07
-9.18447e-06
-1.18465e-06
-9.87329e-06
-1.48137e-06
-1.03701e-05
-1.79188e-06
-1.07869e-05
-1.98932e-06
-1.10914e-05
-2.17394e-06
-1.13436e-05
-2.26961e-06
-1.14698e-05
-2.41008e-06
-1.14976e-05
-2.54616e-06
-1.14133e-05
-2.70137e-06
-1.12252e-05
-2.84417e-06
-1.09201e-05
-2.98388e-06
-1.04894e-05
-3.12281e-06
-9.92005e-06
-3.31014e-06
-9.26574e-06
-3.49599e-06
-8.52358e-06
-3.66542e-06
-7.73988e-06
-3.71747e-06
-6.88759e-06
-3.6523e-06
-5.93114e-06
-3.77754e-06
-4.95816e-06
-3.86341e-06
-3.95114e-06
-3.96443e-06
-3.04409e-06
-3.75017e-06
-2.16782e-06
-3.66618e-06
-1.27303e-06
-3.69192e-06
-4.01093e-07
-3.62401e-06
4.96326e-07
-3.69273e-06
1.38377e-06
-3.6588e-06
2.22078e-06
-3.60474e-06
2.90284e-06
-3.44191e-06
3.65885e-06
-3.63866e-06
4.39612e-06
-3.60415e-06
4.70132e-06
-3.0747e-06
5.13334e-06
-3.23348e-06
6.0375e-06
-3.77483e-06
6.81911e-06
-3.47223e-06
7.07765e-06
-2.85635e-06
7.20785e-06
-2.77617e-06
7.56353e-06
-2.99803e-06
7.78657e-06
-2.71606e-06
7.46939e-06
-2.42208e-06
6.80689e-06
-2.46283e-06
6.55941e-06
-3.20411e-06
7.75411e-06
-4.75388e-06
9.79665e-06
-5.16309e-06
1.13741e-05
-4.53887e-06
1.20776e-05
-3.71018e-06
1.208e-05
-2.84649e-06
1.20302e-05
-2.60507e-06
1.20475e-05
-2.79865e-06
1.17071e-05
-2.58774e-06
1.10481e-05
-2.43989e-06
1.07322e-05
-3.03384e-06
1.05532e-05
-3.30943e-06
1.03391e-05
-3.11318e-06
9.48145e-06
-1.88476e-06
7.68243e-06
1.23937e-07
6.53891e-06
-1.77988e-07
6.90713e-06
-2.95878e-06
8.66489e-06
-5.83461e-06
1.1174e-05
-6.20715e-06
1.23387e-05
-3.64486e-06
1.19576e-05
-1.79611e-06
1.12746e-05
-1.09404e-06
1.0703e-05
-1.43737e-06
1.03478e-05
-1.8903e-06
1.12052e-05
-4.36055e-06
1.35575e-05
-6.37103e-06
1.47969e-05
-4.25713e-06
1.42574e-05
-1.92529e-06
1.34561e-05
-2.08044e-06
1.2534e-05
-2.01912e-06
1.13497e-05
-2.03884e-06
9.94831e-06
-1.81131e-06
9.4193e-06
-3.39382e-06
9.86824e-06
-5.56043e-06
1.04513e-05
-5.81562e-06
9.22143e-06
-3.10593e-06
8.24247e-06
-3.54703e-06
7.13088e-06
-3.90352e-06
6.45792e-06
-4.45686e-06
5.83539e-06
-4.58611e-06
4.85544e-06
-4.17948e-06
3.67157e-06
-3.9537e-06
2.21785e-06
-3.27131e-06
5.81324e-07
-2.78885e-06
-8.8895e-07
-2.93288e-06
-2.1564e-06
-3.37048e-06
-3.15342e-06
-3.9562e-06
-3.64785e-06
-4.93386e-06
-4.78693e-06
-3.94403e-06
-6.02681e-06
-3.56777e-06
-6.1345e-06
-5.58013e-06
-6.38406e-06
-5.19761e-06
-6.46287e-06
-5.32806e-06
-6.03821e-06
-5.82384e-06
-6.7775e-06
-3.89458e-06
-7.91587e-06
-2.681e-06
-8.43353e-06
-3.31578e-06
-8.55726e-06
-3.63935e-06
-3.96875e-06
-8.60212e-06
1.39828e-07
5.32613e-07
1.62644e-07
8.96665e-07
9.16003e-08
9.7252e-07
-3.40267e-08
9.34699e-07
-8.24363e-08
7.46393e-07
4.25363e-08
3.245e-07
3.05743e-07
-1.62322e-07
6.75246e-07
-5.7341e-07
1.05228e-06
-7.98916e-07
1.3811e-06
-8.81316e-07
1.66738e-06
-9.05242e-07
1.96209e-06
-9.38477e-07
2.3059e-06
-9.73249e-07
2.73407e-06
-1.07749e-06
3.22413e-06
-1.19781e-06
3.7753e-06
-1.33877e-06
4.42234e-06
-1.55728e-06
5.21895e-06
-1.79161e-06
6.09174e-06
-1.90836e-06
6.94463e-06
-1.98503e-06
7.79083e-06
-2.04589e-06
8.64316e-06
-2.05269e-06
9.51575e-06
-2.06984e-06
1.04617e-05
-2.12369e-06
1.14358e-05
-2.11191e-06
1.24037e-05
-2.06247e-06
1.33633e-05
-1.9249e-06
1.42931e-05
-1.75886e-06
1.52397e-05
-1.65601e-06
1.61829e-05
-1.50761e-06
1.70522e-05
-1.30434e-06
1.78019e-05
-9.89711e-07
1.84909e-05
-6.85726e-07
1.91285e-05
-3.70551e-07
1.96536e-05
-2.48121e-08
2.01423e-05
3.35605e-07
2.06254e-05
7.01614e-07
2.09304e-05
1.02414e-06
2.12098e-05
1.31439e-06
2.15586e-05
1.64293e-06
2.15718e-05
1.91569e-06
2.14663e-05
2.03845e-06
2.14487e-05
2.25975e-06
2.10052e-05
2.43605e-06
2.00308e-05
2.46973e-06
1.88375e-05
2.39737e-06
1.76743e-05
2.20213e-06
1.67705e-05
1.81129e-06
1.6212e-05
1.40291e-06
1.5896e-05
1.10793e-06
1.57144e-05
9.32701e-07
1.56185e-05
7.55889e-07
1.54971e-05
5.07099e-07
1.53296e-05
5.62373e-08
1.52228e-05
-6.75577e-07
1.5278e-05
-1.44212e-06
1.57045e-05
-2.15246e-06
1.64818e-05
-2.26501e-06
1.71748e-05
-2.06427e-06
1.74637e-05
-1.01198e-06
1.78424e-05
-5.59666e-07
1.70325e-05
-3.59894e-07
1.57765e-05
-3.26324e-07
1.55111e-05
-2.3219e-06
1.5348e-05
-4.40538e-06
1.36584e-05
-4.04936e-06
1.13137e-05
-2.03021e-06
8.84064e-06
-2.11378e-07
6.45586e-06
3.22949e-07
4.62256e-06
1.21874e-06
2.84202e-06
1.68396e-06
1.00957e-06
1.85494e-06
-7.54035e-07
1.89961e-06
-2.20322e-06
1.79123e-06
-3.3475e-06
1.42352e-06
-4.36497e-06
9.37342e-07
-5.35308e-06
4.44952e-07
-6.2848e-06
-1.05107e-07
-7.18773e-06
-6.38606e-07
-7.98719e-06
-1.15314e-06
-8.69432e-06
-1.63966e-06
-9.29668e-06
-2.13315e-06
-9.79287e-06
-2.53137e-06
-1.01396e-05
-2.97654e-06
-1.04248e-05
-3.21147e-06
-1.06189e-05
-3.45888e-06
-1.07234e-05
-3.61326e-06
-1.07626e-05
-3.78912e-06
-1.06997e-05
-3.99384e-06
-1.06268e-05
-4.12018e-06
-1.04456e-05
-4.33314e-06
-1.01584e-05
-4.54125e-06
-9.69064e-06
-4.79054e-06
-9.12844e-06
-5.04155e-06
-8.55806e-06
-5.1783e-06
-7.94006e-06
-5.37192e-06
-7.18897e-06
-5.53356e-06
-6.22794e-06
-5.63949e-06
-5.22283e-06
-5.74851e-06
-4.28287e-06
-5.74357e-06
-3.29881e-06
-5.87703e-06
-2.31614e-06
-5.64313e-06
-1.4078e-06
-5.47409e-06
-5.68258e-07
-5.42781e-06
2.76414e-07
-5.35401e-06
1.13426e-06
-5.44392e-06
1.99681e-06
-5.42202e-06
2.94412e-06
-5.42496e-06
3.73146e-06
-5.17698e-06
4.54437e-06
-5.38651e-06
5.51406e-06
-5.44918e-06
5.93332e-06
-4.54276e-06
5.82533e-06
-4.3359e-06
6.40658e-06
-5.45075e-06
7.47932e-06
-5.57368e-06
7.85561e-06
-4.42524e-06
7.72884e-06
-3.96898e-06
8.18338e-06
-4.60034e-06
8.96955e-06
-4.47836e-06
8.66552e-06
-3.43884e-06
7.24381e-06
-2.90708e-06
6.29892e-06
-4.11759e-06
6.75222e-06
-6.75469e-06
8.57285e-06
-7.89164e-06
1.09232e-05
-7.21637e-06
1.26453e-05
-5.81698e-06
1.33837e-05
-4.34872e-06
1.36326e-05
-3.86548e-06
1.35363e-05
-3.99685e-06
1.32852e-05
-4.04043e-06
1.26468e-05
-3.80971e-06
1.18563e-05
-4.22743e-06
1.09001e-05
-4.18792e-06
9.86025e-06
-3.70004e-06
8.84779e-06
-2.29115e-06
7.75485e-06
-3.46176e-08
7.19019e-06
-8.41078e-07
7.13691e-06
-4.26734e-06
7.56291e-06
-7.40611e-06
9.04348e-06
-8.37649e-06
1.02425e-05
-5.92409e-06
1.03177e-05
-3.15995e-06
1.07829e-05
-2.656e-06
1.10074e-05
-2.99871e-06
1.06261e-05
-3.1056e-06
1.11163e-05
-6.38694e-06
1.27842e-05
-9.36722e-06
1.47782e-05
-7.77174e-06
1.48983e-05
-3.64775e-06
1.43862e-05
-3.17349e-06
1.35436e-05
-2.89247e-06
1.24672e-05
-2.94782e-06
1.05269e-05
-2.19189e-06
9.52153e-06
-5.00996e-06
1.05571e-05
-9.40519e-06
1.16678e-05
-9.34466e-06
1.0492e-05
-4.59231e-06
9.26132e-06
-5.36058e-06
8.56995e-06
-6.35248e-06
8.07989e-06
-7.11943e-06
7.59013e-06
-7.41387e-06
6.58473e-06
-6.65546e-06
5.28239e-06
-6.04988e-06
3.78101e-06
-5.05168e-06
1.96264e-06
-4.23301e-06
3.709e-07
-4.66867e-06
-7.48701e-07
-5.59157e-06
-1.61005e-06
-6.52112e-06
-2.28718e-06
-7.4843e-06
-3.79454e-06
-5.69661e-06
-4.77422e-06
-5.93578e-06
-4.56589e-06
-8.98402e-06
-4.92948e-06
-8.28549e-06
-4.83821e-06
-8.91335e-06
-4.53386e-06
-9.45236e-06
-5.41725e-06
-6.16422e-06
-6.38649e-06
-5.05065e-06
-6.65876e-06
-6.16724e-06
-6.38969e-06
-6.56472e-06
-6.58485e-06
-6.22732e-06
1.61702e-07
4.96414e-07
2.32389e-07
9.42415e-07
2.48118e-07
1.07325e-06
2.66777e-07
1.02813e-06
4.02451e-07
7.18257e-07
7.03725e-07
1.36025e-07
1.06401e-06
-4.00274e-07
1.408e-06
-7.8468e-07
1.65958e-06
-9.07554e-07
1.77529e-06
-8.4544e-07
1.81645e-06
-7.88685e-07
1.91013e-06
-8.68902e-07
2.16216e-06
-1.05365e-06
2.61225e-06
-1.34996e-06
3.17444e-06
-1.57561e-06
3.78488e-06
-1.75205e-06
4.38826e-06
-1.94985e-06
4.98955e-06
-2.15797e-06
5.63319e-06
-2.30162e-06
6.26768e-06
-2.3702e-06
6.918e-06
-2.42606e-06
7.67093e-06
-2.50892e-06
8.47505e-06
-2.57506e-06
9.25432e-06
-2.5817e-06
1.00792e-05
-2.5688e-06
1.09062e-05
-2.50559e-06
1.17633e-05
-2.40841e-06
1.26594e-05
-2.28323e-06
1.35449e-05
-2.14305e-06
1.44603e-05
-2.01526e-06
1.53414e-05
-1.8117e-06
1.61642e-05
-1.47585e-06
1.69408e-05
-1.15412e-06
1.77341e-05
-8.55704e-07
1.84499e-05
-4.55999e-07
1.91474e-05
-1.08845e-07
1.98344e-05
2.77462e-07
2.03497e-05
7.10761e-07
2.08474e-05
1.02257e-06
2.13756e-05
1.39768e-06
2.17361e-05
1.77695e-06
2.20516e-05
1.96582e-06
2.23691e-05
2.24137e-06
2.2383e-05
2.61936e-06
2.22344e-05
2.8418e-06
2.20268e-05
2.95593e-06
2.14943e-05
3.05589e-06
2.06321e-05
2.87805e-06
1.97081e-05
2.46862e-06
1.89731e-05
1.97462e-06
1.86e-05
1.41817e-06
1.85078e-05
8.8371e-07
1.85203e-05
4.62585e-07
1.84531e-05
1.06834e-07
1.82254e-05
-5.4183e-07
1.79794e-05
-1.42556e-06
1.78197e-05
-2.28088e-06
1.80917e-05
-2.79385e-06
1.83344e-05
-2.62475e-06
1.87398e-05
-1.80682e-06
1.8651e-05
-8.52543e-07
1.73312e-05
4.01837e-07
1.66139e-05
-2.06735e-07
1.54899e-05
-1.80443e-06
1.34453e-05
-3.16014e-06
1.02014e-05
-1.66317e-06
7.3533e-06
-7.31331e-09
5.58732e-06
6.30054e-07
3.33541e-06
1.54141e-06
1.55465e-06
1.89952e-06
9.56499e-08
1.97548e-06
-1.18955e-06
1.91676e-06
-2.28116e-06
1.71954e-06
-3.24957e-06
1.44184e-06
-4.14629e-06
9.59401e-07
-5.02949e-06
4.18223e-07
-5.84974e-06
-1.78313e-07
-6.66465e-06
-7.68406e-07
-7.41173e-06
-1.40311e-06
-8.09371e-06
-2.00965e-06
-8.69302e-06
-2.59911e-06
-9.23406e-06
-3.16271e-06
-9.67409e-06
-3.66064e-06
-1.00002e-05
-4.20645e-06
-1.02197e-05
-4.52141e-06
-1.03805e-05
-4.80461e-06
-1.03355e-05
-5.14442e-06
-1.02905e-05
-5.29802e-06
-1.01703e-05
-5.5459e-06
-1.00767e-05
-5.60169e-06
-9.91608e-06
-5.84161e-06
-9.63441e-06
-6.12895e-06
-9.13278e-06
-6.56003e-06
-8.6802e-06
-6.72704e-06
-8.18951e-06
-6.83946e-06
-7.56098e-06
-7.13885e-06
-6.72729e-06
-7.45854e-06
-5.82076e-06
-7.6085e-06
-4.90111e-06
-7.68542e-06
-3.95107e-06
-7.69849e-06
-2.95022e-06
-7.84983e-06
-1.91387e-06
-7.62594e-06
-8.2859e-07
-7.45438e-06
8.59647e-08
-7.256e-06
8.91246e-07
-7.06535e-06
1.73628e-06
-7.16811e-06
2.3943e-06
-7.00864e-06
3.25706e-06
-7.15116e-06
4.07843e-06
-6.8915e-06
4.74026e-06
-7.01307e-06
5.79293e-06
-7.21494e-06
6.87215e-06
-6.31793e-06
6.95606e-06
-5.56685e-06
7.00263e-06
-6.61605e-06
7.92827e-06
-7.17321e-06
8.36871e-06
-5.88847e-06
7.99699e-06
-5.16627e-06
8.19366e-06