/*--------------------------------*- C++ -*----------------------------------*\
| =========                 |                                                 |
| \\      /  F ield         | OpenFOAM: The Open Source CFD Toolbox           |
|  \\    /   O peration     | Version:  dev                                   |
|   \\  /    A nd           | Web:      http://www.openfoam.org               |
|    \\/     M anipulation  |                                                 |
\*---------------------------------------------------------------------------*/
FoamFile
{
    version     2.0;
    format      ascii;
    class       volScalarField;
    object      pPrime2Mean;
    location    "9.147";
}
// * * * * * * * * * * * * * * * * * * * * * * * * * * * * * * * * * * * * * //

dimensions      [2 -2 -4 0 0 0 0];

internalField   nonuniform List<scalar> 
12225
(
5.03699e+07
4.99046e+07
4.89436e+07
4.75919e+07
4.59376e+07
4.407e+07
4.20484e+07
3.99448e+07
3.78001e+07
3.56624e+07
3.35692e+07
3.15238e+07
2.95999e+07
2.77284e+07
2.59807e+07
2.442e+07
2.2858e+07
2.1278e+07
5.02621e+07
4.97968e+07
4.88366e+07
4.74866e+07
4.58337e+07
4.39685e+07
4.19498e+07
3.98488e+07
3.7708e+07
3.55729e+07
3.34845e+07
3.14427e+07
2.95234e+07
2.76588e+07
2.59285e+07
2.43679e+07
2.2859e+07
2.15248e+07
5.00121e+07
4.95474e+07
4.85876e+07
4.72406e+07
4.55922e+07
4.37318e+07
4.17198e+07
3.96251e+07
3.74924e+07
3.53654e+07
3.32855e+07
3.12554e+07
2.93422e+07
2.74948e+07
2.57843e+07
2.42286e+07
2.27934e+07
2.15805e+07
4.95765e+07
4.91148e+07
4.81572e+07
4.68155e+07
4.51751e+07
4.33232e+07
4.13228e+07
3.92386e+07
3.71207e+07
3.50072e+07
3.29431e+07
3.09308e+07
2.90348e+07
2.72068e+07
2.55259e+07
2.39948e+07
2.26083e+07
2.15077e+07
4.89116e+07
4.845e+07
4.74973e+07
4.6165e+07
4.45364e+07
4.2699e+07
4.07144e+07
3.86496e+07
3.65507e+07
3.44613e+07
3.24175e+07
3.0436e+07
2.85625e+07
2.67706e+07
2.5142e+07
2.36332e+07
2.2352e+07
2.12878e+07
4.79626e+07
4.74985e+07
4.65552e+07
4.52364e+07
4.36257e+07
4.18081e+07
3.98483e+07
3.7809e+07
3.57403e+07
3.36805e+07
3.16709e+07
2.97236e+07
2.78884e+07
2.6143e+07
2.45639e+07
2.31245e+07
2.18977e+07
2.08413e+07
4.66679e+07
4.62025e+07
4.52748e+07
4.39722e+07
4.23877e+07
4.05957e+07
3.86715e+07
3.66656e+07
3.46398e+07
3.2619e+07
3.06578e+07
2.8756e+07
2.69722e+07
2.52846e+07
2.37625e+07
2.23832e+07
2.12147e+07
2.01868e+07
4.52261e+07
4.47624e+07
4.3851e+07
4.25663e+07
4.10105e+07
3.92481e+07
3.73624e+07
3.53955e+07
3.3415e+07
3.14404e+07
2.9529e+07
2.76809e+07
2.59486e+07
2.43242e+07
2.28506e+07
2.15345e+07
2.03986e+07
1.94388e+07
4.37116e+07
4.32514e+07
4.23562e+07
4.10913e+07
3.9565e+07
3.78352e+07
3.59889e+07
3.40643e+07
3.213e+07
3.0205e+07
2.83445e+07
2.65521e+07
2.48736e+07
2.33098e+07
2.18883e+07
2.06283e+07
1.95343e+07
1.86357e+07
4.17719e+07
4.13183e+07
4.04427e+07
3.92053e+07
3.77155e+07
3.60296e+07
3.42321e+07
3.23638e+07
3.04867e+07
2.86265e+07
2.68289e+07
2.51081e+07
2.34956e+07
2.20066e+07
2.06513e+07
1.94589e+07
1.84218e+07
1.75691e+07
3.93238e+07
3.88802e+07
3.80281e+07
3.68275e+07
3.53836e+07
3.37548e+07
3.20194e+07
3.0222e+07
2.84181e+07
2.66382e+07
2.49209e+07
2.3286e+07
2.17574e+07
2.03544e+07
1.90822e+07
1.79666e+07
1.69964e+07
1.61898e+07
3.63011e+07
3.58724e+07
3.50484e+07
3.38968e+07
3.25101e+07
3.09546e+07
2.92965e+07
2.75883e+07
2.58749e+07
2.41939e+07
2.25748e+07
2.1043e+07
1.96151e+07
1.83115e+07
1.71359e+07
1.61046e+07
1.521e+07
1.44566e+07
3.26888e+07
3.22788e+07
3.14912e+07
3.04008e+07
2.90863e+07
2.76198e+07
2.60575e+07
2.44558e+07
2.28526e+07
2.12882e+07
1.97858e+07
1.8373e+07
1.70616e+07
1.58702e+07
1.48011e+07
1.38634e+07
1.30521e+07
1.23638e+07
2.85781e+07
2.81909e+07
2.74501e+07
2.64319e+07
2.52058e+07
2.38428e+07
2.23945e+07
2.0915e+07
1.94399e+07
1.80063e+07
1.66369e+07
1.53547e+07
1.41719e+07
1.31011e+07
1.21456e+07
1.13082e+07
1.05855e+07
9.97131e+06
2.42545e+07
2.38937e+07
2.32089e+07
2.22716e+07
2.11457e+07
1.98968e+07
1.85742e+07
1.72269e+07
1.58895e+07
1.45948e+07
1.33642e+07
1.22172e+07
1.11648e+07
1.02157e+07
9.37257e+06
8.63533e+06
8.0008e+06
7.46231e+06
2.03082e+07
1.99761e+07
1.9351e+07
1.84953e+07
1.74709e+07
1.63352e+07
1.51363e+07
1.39172e+07
1.27116e+07
1.15476e+07
1.04459e+07
9.42217e+06
8.48639e+06
7.64463e+06
6.89877e+06
6.24754e+06
5.68778e+06
5.21324e+06
1.77431e+07
1.74366e+07
1.68616e+07
1.60739e+07
1.51318e+07
1.40872e+07
1.29856e+07
1.1866e+07
1.076e+07
9.69293e+06
8.68364e+06
7.74574e+06
6.88794e+06
6.11503e+06
5.42837e+06
4.82659e+06
4.3067e+06
3.86334e+06
1.78514e+07
1.75567e+07
1.7004e+07
1.62459e+07
1.53385e+07
1.43309e+07
1.32669e+07
1.21832e+07
1.11101e+07
1.00713e+07
9.08451e+06
8.16242e+06
7.31316e+06
6.54123e+06
5.84802e+06
5.23271e+06
4.69277e+06
4.22388e+06
2.07282e+07
2.04291e+07
1.98666e+07
1.90935e+07
1.81667e+07
1.71353e+07
1.60427e+07
1.49256e+07
1.3814e+07
1.27313e+07
1.16951e+07
1.07181e+07
9.80843e+06
8.97105e+06
8.20781e+06
7.51864e+06
6.9017e+06
6.3536e+06
2.52152e+07
2.49031e+07
2.43127e+07
2.34986e+07
2.25203e+07
2.14286e+07
2.02682e+07
1.90767e+07
1.78847e+07
1.67162e+07
1.55894e+07
1.45173e+07
1.35089e+07
1.25696e+07
1.17019e+07
1.09065e+07
1.01824e+07
9.52707e+06
3.02745e+07
2.99483e+07
2.93247e+07
2.84611e+07
2.74204e+07
2.62556e+07
2.50132e+07
2.37323e+07
2.24447e+07
2.11754e+07
1.99434e+07
1.87626e+07
1.76425e+07
1.65894e+07
1.56065e+07
1.46953e+07
1.38555e+07
1.30853e+07
3.51882e+07
3.48504e+07
3.41957e+07
3.3285e+07
3.21842e+07
3.09482e+07
2.96256e+07
2.82572e+07
2.6876e+07
2.55082e+07
2.41738e+07
2.28873e+07
2.16593e+07
2.04967e+07
1.94035e+07
1.83818e+07
1.74319e+07
1.65528e+07
3.95372e+07
3.91911e+07
3.8511e+07
3.75607e+07
3.64082e+07
3.51105e+07
3.37179e+07
3.22725e+07
3.08089e+07
2.93542e+07
2.79294e+07
2.65499e+07
2.52269e+07
2.39679e+07
2.27779e+07
2.16594e+07
2.06132e+07
1.96388e+07
4.31328e+07
4.27815e+07
4.20821e+07
4.11008e+07
3.99073e+07
3.85598e+07
3.71101e+07
3.56019e+07
3.40706e+07
3.25445e+07
3.10453e+07
2.95891e+07
2.81879e+07
2.68498e+07
2.55801e+07
2.43819e+07
2.32566e+07
2.2204e+07
4.5941e+07
4.55868e+07
4.48736e+07
4.38694e+07
4.26448e+07
4.12592e+07
3.97656e+07
3.82088e+07
3.66251e+07
3.50435e+07
3.34863e+07
3.19706e+07
3.05085e+07
2.91087e+07
2.77771e+07
2.6517e+07
2.53301e+07
2.42166e+07
4.8019e+07
4.76632e+07
4.69403e+07
4.592e+07
4.46731e+07
4.32598e+07
4.17341e+07
4.01416e+07
3.85193e+07
3.68968e+07
3.52971e+07
3.37374e+07
3.22305e+07
3.07854e+07
2.94081e+07
2.81024e+07
2.68702e+07
2.57118e+07
4.94677e+07
4.91111e+07
4.83816e+07
4.73504e+07
4.60881e+07
4.46559e+07
4.31083e+07
4.14913e+07
3.98423e+07
3.81916e+07
3.65624e+07
3.49722e+07
3.34343e+07
3.19577e+07
3.05488e+07
2.92115e+07
2.79479e+07
2.67584e+07
5.04026e+07
5.00449e+07
4.93113e+07
4.82734e+07
4.70014e+07
4.55572e+07
4.39956e+07
4.23629e+07
4.06971e+07
3.90283e+07
3.73801e+07
3.57705e+07
3.42126e+07
3.27158e+07
3.12865e+07
2.99289e+07
2.86451e+07
2.74357e+07
5.09316e+07
5.05736e+07
4.98384e+07
4.87974e+07
4.752e+07
4.60693e+07
4.44999e+07
4.28582e+07
4.11825e+07
3.95033e+07
3.78443e+07
3.62234e+07
3.4654e+07
3.31456e+07
3.17046e+07
3.03353e+07
2.90401e+07
2.78197e+07
5.11538e+07
5.07972e+07
5.00601e+07
4.90173e+07
4.77374e+07
4.62838e+07
4.4711e+07
4.30655e+07
4.13856e+07
3.97019e+07
3.80382e+07
3.64125e+07
3.48382e+07
3.33248e+07
3.18788e+07
3.05046e+07
2.92047e+07
2.79798e+07
6.0487e+07
6.04279e+07
6.02972e+07
6.00915e+07
5.98087e+07
5.94484e+07
5.90104e+07
5.84956e+07
5.79051e+07
5.72403e+07
5.65031e+07
5.56956e+07
5.48201e+07
5.38792e+07
5.28757e+07
5.18124e+07
5.06927e+07
4.952e+07
4.8298e+07
4.70305e+07
4.57216e+07
4.43753e+07
4.29959e+07
4.15876e+07
4.01551e+07
3.87027e+07
3.72351e+07
3.57566e+07
3.42717e+07
3.2785e+07
3.13011e+07
2.98246e+07
2.83601e+07
2.69121e+07
2.54853e+07
2.40842e+07
2.27135e+07
2.13778e+07
2.0082e+07
1.88307e+07
1.76289e+07
1.64814e+07
1.53932e+07
1.43694e+07
1.34152e+07
1.25358e+07
1.17364e+07
1.10226e+07
1.03996e+07
9.87308e+06
9.44832e+06
9.13083e+06
8.92601e+06
8.83912e+06
8.87528e+06
9.0393e+06
9.33573e+06
9.76883e+06
1.03425e+07
1.10599e+07
1.19238e+07
1.29365e+07
1.40992e+07
1.54128e+07
1.68772e+07
1.84916e+07
2.02543e+07
2.21628e+07
2.42142e+07
2.64044e+07
2.8729e+07
3.11825e+07
3.37591e+07
3.64524e+07
3.92556e+07
4.21612e+07
4.5162e+07
4.825e+07
5.14175e+07
5.46564e+07
5.79586e+07
6.1316e+07
6.47201e+07
6.81625e+07
7.16345e+07
7.51271e+07
7.86313e+07
8.21375e+07
8.56357e+07
8.91156e+07
9.25661e+07
9.59758e+07
9.93327e+07
1.02624e+08
1.05838e+08
1.08961e+08
1.11981e+08
1.14886e+08
1.17664e+08
1.20304e+08
1.22799e+08
1.25138e+08
1.27316e+08
1.29326e+08
1.31165e+08
1.32831e+08
1.34324e+08
1.35647e+08
1.36804e+08
1.37804e+08
1.38656e+08
1.39371e+08
1.39965e+08
1.40449e+08
1.40842e+08
1.4116e+08
1.41424e+08
1.41654e+08
1.41875e+08
1.42113e+08
1.42398e+08
1.42763e+08
1.43244e+08
1.43881e+08
1.44719e+08
1.45804e+08
1.4719e+08
1.48933e+08
1.51093e+08
1.53734e+08
1.56919e+08
1.60709e+08
1.65168e+08
1.7035e+08
1.7631e+08
1.83093e+08
1.90734e+08
1.99262e+08
2.0869e+08
2.19021e+08
2.30249e+08
2.42351e+08
2.55301e+08
2.69055e+08
2.83571e+08
2.98786e+08
3.14652e+08
3.31096e+08
3.48056e+08
3.65456e+08
3.83222e+08
4.01271e+08
4.19511e+08
4.3785e+08
4.56166e+08
4.74319e+08
4.92146e+08
5.09477e+08
5.26079e+08
5.41719e+08
5.56096e+08
5.68912e+08
5.79827e+08
5.88518e+08
5.94649e+08
5.97926e+08
5.98086e+08
5.94951e+08
5.88393e+08
5.7844e+08
5.65172e+08
5.48856e+08
5.29812e+08
5.08531e+08
4.85488e+08
4.61207e+08
4.36057e+08
4.10471e+08
3.84663e+08
3.58955e+08
5.94121e+07
5.93565e+07
5.92313e+07
5.90315e+07
5.87552e+07
5.84025e+07
5.79738e+07
5.74704e+07
5.68934e+07
5.62442e+07
5.55246e+07
5.47366e+07
5.38822e+07
5.2964e+07
5.19845e+07
5.09464e+07
4.98528e+07
4.87071e+07
4.75127e+07
4.62734e+07
4.4993e+07
4.36755e+07
4.23251e+07
4.09461e+07
3.95427e+07
3.81195e+07
3.66807e+07
3.52307e+07
3.37738e+07
3.23144e+07
3.08571e+07
2.94064e+07
2.79669e+07
2.65429e+07
2.51392e+07
2.37601e+07
2.24103e+07
2.10943e+07
1.98168e+07
1.85826e+07
1.73966e+07
1.62635e+07
1.51884e+07
1.41762e+07
1.32322e+07
1.23616e+07
1.15696e+07
1.08616e+07
1.0243e+07
9.71946e+06
9.29625e+06
8.97885e+06
8.77264e+06
8.68287e+06
8.71466e+06
8.87288e+06
9.16211e+06
9.58657e+06
1.015e+07
1.08559e+07
1.17068e+07
1.27048e+07
1.38514e+07
1.51474e+07
1.65926e+07
1.81862e+07
1.99266e+07
2.18114e+07
2.38373e+07
2.60006e+07
2.82967e+07
3.07202e+07
3.32654e+07
3.59257e+07
3.86945e+07
4.15644e+07
4.45281e+07
4.75778e+07
5.07057e+07
5.39039e+07
5.71642e+07
6.04784e+07
6.38384e+07
6.72357e+07
7.06617e+07
7.41076e+07
7.75641e+07
8.10219e+07
8.44712e+07
8.79015e+07
9.13021e+07
9.46617e+07
9.79683e+07
1.0121e+08
1.04374e+08
1.07447e+08
1.10419e+08
1.13276e+08
1.16008e+08
1.18604e+08
1.21055e+08
1.23354e+08
1.25494e+08
1.27468e+08
1.29274e+08
1.30911e+08
1.32376e+08
1.33674e+08
1.3481e+08
1.35791e+08
1.36627e+08
1.37329e+08
1.37911e+08
1.38386e+08
1.3877e+08
1.39081e+08
1.39338e+08
1.39561e+08
1.39774e+08
1.40002e+08
1.40276e+08
1.40627e+08
1.41091e+08
1.41707e+08
1.42517e+08
1.4357e+08
1.44917e+08
1.46614e+08
1.48719e+08
1.51296e+08
1.54406e+08
1.58112e+08
1.62473e+08
1.67546e+08
1.73384e+08
1.8003e+08
1.87522e+08
1.95885e+08
2.05135e+08
2.15275e+08
2.26298e+08
2.38182e+08
2.50902e+08
2.64417e+08
2.78683e+08
2.9364e+08
3.09236e+08
3.2541e+08
3.42094e+08
3.59214e+08
3.76699e+08
3.94467e+08
4.12431e+08
4.30498e+08
4.48549e+08
4.66446e+08
4.84028e+08
5.01133e+08
5.17531e+08
5.32989e+08
5.47223e+08
5.59933e+08
5.70785e+08
5.7946e+08
5.85632e+08
5.89011e+08
5.89339e+08
5.8644e+08
5.80184e+08
5.70581e+08
5.57708e+08
5.4182e+08
5.23222e+08
5.02397e+08
4.79803e+08
4.55952e+08
4.31211e+08
4.06007e+08
3.80551e+08
3.55081e+08
5.73471e+07
5.7294e+07
5.71744e+07
5.6983e+07
5.67183e+07
5.6381e+07
5.59719e+07
5.54923e+07
5.4943e+07
5.43253e+07
5.36406e+07
5.28906e+07
5.20772e+07
5.12025e+07
5.02688e+07
4.92785e+07
4.82346e+07
4.71401e+07
4.59983e+07
4.48125e+07
4.35866e+07
4.23244e+07
4.10298e+07
3.97068e+07
3.83596e+07
3.6992e+07
3.56082e+07
3.42123e+07
3.28086e+07
3.14014e+07
2.99952e+07
2.85941e+07
2.72027e+07
2.58252e+07
2.44661e+07
2.31296e+07
2.18201e+07
2.05422e+07
1.93004e+07
1.80995e+07
1.69442e+07
1.58391e+07
1.47894e+07
1.37999e+07
1.28757e+07
1.20222e+07
1.12445e+07
1.05481e+07
9.93833e+06
9.42063e+06
9.00044e+06
8.68321e+06
8.47435e+06
8.37909e+06
8.40252e+06
8.54954e+06
8.82469e+06
9.23222e+06
9.77592e+06
1.04591e+07
1.12843e+07
1.22538e+07
1.33689e+07
1.46303e+07
1.60378e+07
1.75907e+07
1.92873e+07
2.11251e+07
2.31011e+07
2.52115e+07
2.74516e+07
2.98162e+07
3.22995e+07
3.48952e+07
3.75965e+07
4.03964e+07
4.32876e+07
4.62624e+07
4.93132e+07
5.2432e+07
5.56108e+07
5.88415e+07
6.2116e+07
6.54259e+07
6.87628e+07
7.21179e+07
7.54822e+07
7.88465e+07
8.2201e+07
8.55356e+07
8.88395e+07
9.21017e+07
9.53108e+07
9.84548e+07
1.01522e+08
1.04499e+08
1.07375e+08
1.10139e+08
1.12781e+08
1.15289e+08
1.17657e+08
1.19875e+08
1.21939e+08
1.23844e+08
1.25586e+08
1.27162e+08
1.28574e+08
1.29825e+08
1.30918e+08
1.31863e+08
1.32668e+08
1.33344e+08
1.33904e+08
1.34361e+08
1.34729e+08
1.35025e+08
1.35267e+08
1.35476e+08
1.35673e+08
1.35883e+08
1.36134e+08
1.36457e+08
1.36885e+08
1.37457e+08
1.38213e+08
1.39201e+08
1.40469e+08
1.42072e+08
1.44067e+08
1.46515e+08
1.49477e+08
1.53013e+08
1.57182e+08
1.62039e+08
1.67633e+08
1.7401e+08
1.81203e+08
1.89242e+08
1.9814e+08
2.07899e+08
2.18515e+08
2.29968e+08
2.42234e+08
2.55277e+08
2.69047e+08
2.83492e+08
2.98556e+08
3.1419e+08
3.30324e+08
3.46888e+08
3.63809e+08
3.81017e+08
3.98426e+08
4.15942e+08
4.33452e+08
4.50828e+08
4.6791e+08
4.84539e+08
5.00501e+08
5.15563e+08
5.29464e+08
5.41909e+08
5.52579e+08
5.61171e+08
5.67366e+08
5.70892e+08
5.71499e+08
5.69014e+08
5.63304e+08
5.54356e+08
5.42244e+08
5.27193e+08
5.09487e+08
4.89583e+08
4.67906e+08
4.44935e+08
4.21045e+08
3.96635e+08
3.7193e+08
3.47101e+08
5.44537e+07
5.44044e+07
5.42923e+07
5.41131e+07
5.38662e+07
5.35526e+07
5.31732e+07
5.27283e+07
5.22188e+07
5.16456e+07
5.10099e+07
5.03128e+07
4.95559e+07
4.87409e+07
4.78699e+07
4.69452e+07
4.59695e+07
4.49453e+07
4.38759e+07
4.27643e+07
4.16141e+07
4.04287e+07
3.92117e+07
3.79667e+07
3.66972e+07
3.54069e+07
3.40996e+07
3.27792e+07
3.14499e+07
3.01157e+07
2.87808e+07
2.74494e+07
2.61253e+07
2.48128e+07
2.35159e+07
2.22388e+07
2.09857e+07
1.97611e+07
1.85694e+07
1.7415e+07
1.63027e+07
1.5237e+07
1.42229e+07
1.32653e+07
1.23693e+07
1.15399e+07
1.07825e+07
1.01024e+07
9.50494e+06
8.99559e+06
8.57975e+06
8.26286e+06
8.05029e+06
7.94725e+06
7.95882e+06
8.0899e+06
8.34506e+06
8.72849e+06
9.24396e+06
9.89468e+06
1.06834e+07
1.1612e+07
1.26821e+07
1.38941e+07
1.5248e+07
1.67429e+07
1.83771e+07
2.01482e+07
2.20533e+07
2.40886e+07
2.62493e+07
2.85306e+07
3.09266e+07
3.34311e+07
3.60376e+07
3.87391e+07
4.15285e+07
4.43983e+07
4.73411e+07
5.03489e+07
5.3414e+07
5.65283e+07
5.96838e+07
6.28724e+07
6.60854e+07
6.93145e+07
7.25509e+07
7.57855e+07
7.90085e+07
8.22102e+07
8.53801e+07
8.85072e+07
9.15806e+07
9.45887e+07
9.75199e+07
1.00363e+08
1.03106e+08
1.0574e+08
1.08254e+08
1.10639e+08
1.12888e+08
1.14993e+08
1.16951e+08
1.18756e+08
1.20404e+08
1.21896e+08
1.23232e+08
1.24414e+08
1.25449e+08
1.26341e+08
1.27101e+08
1.27739e+08
1.28266e+08
1.28694e+08
1.29038e+08
1.29312e+08
1.29532e+08
1.29718e+08
1.29891e+08
1.30074e+08
1.30292e+08
1.30573e+08
1.30949e+08
1.31457e+08
1.32136e+08
1.3303e+08
1.34187e+08
1.35658e+08
1.37497e+08
1.39764e+08
1.42515e+08
1.45812e+08
1.4971e+08
1.54262e+08
1.59515e+08
1.65513e+08
1.72289e+08
1.79872e+08
1.88276e+08
1.97506e+08
2.07554e+08
2.18406e+08
2.30039e+08
2.42422e+08
2.55505e+08
2.6924e+08
2.8357e+08
2.98455e+08
3.1383e+08
3.29627e+08
3.45774e+08
3.62211e+08
3.78852e+08
3.95608e+08
4.12369e+08
4.29018e+08
4.45402e+08
4.61364e+08
4.76707e+08
4.91207e+08
5.04619e+08
5.16664e+08
5.27045e+08
5.35479e+08
5.4166e+08
5.45335e+08
5.46263e+08
5.44277e+08
5.39247e+08
5.31143e+08
5.20027e+08
5.06088e+08
4.89588e+08
4.70941e+08
4.5053e+08
4.28797e+08
4.06103e+08
3.82824e+08
3.59197e+08
3.35375e+08
5.09323e+07
5.08883e+07
5.07864e+07
5.06234e+07
5.03998e+07
5.0116e+07
4.97722e+07
4.9369e+07
4.89068e+07
4.83864e+07
4.78084e+07
4.71737e+07
4.64836e+07
4.57397e+07
4.49437e+07
4.40976e+07
4.32036e+07
4.22642e+07
4.12821e+07
4.02601e+07
3.92013e+07
3.81086e+07
3.69852e+07
3.5834e+07
3.46583e+07
3.34614e+07
3.22469e+07
3.10185e+07
2.978e+07
2.85351e+07
2.72876e+07
2.6041e+07
2.47993e+07
2.35661e+07
2.23452e+07
2.11407e+07
1.99567e+07
1.87973e+07
1.76667e+07
1.65694e+07
1.55097e+07
1.44924e+07
1.3522e+07
1.26035e+07
1.17419e+07
1.09422e+07
1.02096e+07
9.54947e+06
8.9671e+06
8.46792e+06
8.05734e+06
7.74074e+06
7.52349e+06
7.41079e+06
7.40769e+06
7.51904e+06
7.74935e+06
8.10279e+06
8.58307e+06
9.19342e+06
9.93648e+06
1.08143e+07
1.18282e+07
1.29788e+07
1.42658e+07
1.56885e+07
1.72451e+07
1.89334e+07
2.07504e+07
2.26923e+07
2.47547e+07
2.69326e+07
2.92204e+07
3.1612e+07
3.41011e+07
3.66809e+07
3.93444e+07
4.20845e+07
4.48938e+07
4.77646e+07
5.06893e+07
5.36601e+07
5.66692e+07
5.97084e+07
6.27695e+07
6.58441e+07
6.89236e+07
7.19992e+07
7.50613e+07
7.81003e+07
8.11063e+07
8.40688e+07
8.69769e+07
8.98196e+07
9.25859e+07
9.52652e+07
9.78471e+07
1.00322e+08
1.02681e+08
1.04915e+08
1.07018e+08
1.08985e+08
1.10812e+08
1.12493e+08
1.14027e+08
1.15414e+08
1.16655e+08
1.17753e+08
1.18712e+08
1.19538e+08
1.20241e+08
1.2083e+08
1.21314e+08
1.21706e+08
1.22017e+08
1.2226e+08
1.22452e+08
1.22609e+08
1.2275e+08
1.22896e+08
1.2307e+08
1.23299e+08
1.23612e+08
1.24041e+08
1.24626e+08
1.25405e+08
1.26425e+08
1.27735e+08
1.29385e+08
1.31431e+08
1.33926e+08
1.36932e+08
1.40498e+08
1.44679e+08
1.49518e+08
1.55056e+08
1.61327e+08
1.68359e+08
1.76167e+08
1.84757e+08
1.94122e+08
2.04251e+08
2.15121e+08
2.26708e+08
2.38966e+08
2.51849e+08
2.65304e+08
2.79293e+08
2.9376e+08
3.08642e+08
3.23869e+08
3.39383e+08
3.55106e+08
3.70952e+08
3.86814e+08
4.02584e+08
4.18122e+08
4.33276e+08
4.47864e+08
4.61676e+08
4.74475e+08
4.86011e+08
4.96015e+08
5.04215e+08
5.10333e+08
5.14129e+08
5.15376e+08
5.13921e+08
5.09637e+08
5.02482e+08
4.92499e+08
4.79842e+08
4.64751e+08
4.47586e+08
4.28684e+08
4.08452e+08
3.87216e+08
3.6533e+08
3.43039e+08
3.20506e+08
4.70057e+07
4.69687e+07
4.68793e+07
4.67355e+07
4.65379e+07
4.62867e+07
4.59821e+07
4.56244e+07
4.52137e+07
4.47504e+07
4.42349e+07
4.36681e+07
4.3051e+07
4.23848e+07
4.16709e+07
4.0911e+07
4.0107e+07
3.9261e+07
3.83751e+07
3.7452e+07
3.64941e+07
3.55037e+07
3.44836e+07
3.34363e+07
3.23646e+07
3.12716e+07
3.01605e+07
2.90348e+07
2.78976e+07
2.67522e+07
2.5602e+07
2.44504e+07
2.33005e+07
2.21561e+07
2.10205e+07
1.98976e+07
1.87911e+07
1.77051e+07
1.66434e+07
1.56103e+07
1.46101e+07
1.36471e+07
1.27261e+07
1.18517e+07
1.10288e+07
1.02625e+07
9.55781e+06
8.92008e+06
8.35461e+06
7.86678e+06
7.46195e+06
7.14549e+06
6.92275e+06
6.79891e+06
6.77894e+06
6.86764e+06
7.06951e+06
7.38864e+06
7.82869e+06
8.39284e+06
9.08367e+06
9.9032e+06
1.08527e+07
1.19328e+07
1.31434e+07
1.44834e+07
1.59513e+07
1.75448e+07
1.92609e+07
2.10961e+07
2.30459e+07
2.51056e+07
2.72697e+07
2.95323e+07
3.18872e+07
3.4328e+07
3.68479e+07
3.94399e+07
4.20969e+07
4.48114e+07
4.75761e+07
5.03833e+07
5.32253e+07
5.60943e+07
5.89824e+07
6.18812e+07
6.47823e+07
6.76771e+07
7.05565e+07
7.3411e+07
7.62312e+07
7.9007e+07
8.17283e+07
8.43844e+07
8.6965e+07
8.94604e+07
9.1861e+07
9.4158e+07
9.63429e+07
9.84085e+07
1.00349e+08
1.02159e+08
1.03837e+08
1.05379e+08
1.06784e+08
1.08052e+08
1.09185e+08
1.10186e+08
1.11059e+08
1.11809e+08
1.12445e+08
1.12975e+08
1.13407e+08
1.13754e+08
1.14023e+08
1.14229e+08
1.14385e+08
1.14506e+08
1.14607e+08
1.14709e+08
1.14831e+08
1.14999e+08
1.15239e+08
1.15581e+08
1.1606e+08
1.16711e+08
1.17578e+08
1.18706e+08
1.20143e+08
1.21942e+08
1.24153e+08
1.26831e+08
1.30029e+08
1.33794e+08
1.3817e+08
1.43196e+08
1.48905e+08
1.55326e+08
1.62473e+08
1.70352e+08
1.78962e+08
1.88291e+08
1.9832e+08
2.09028e+08
2.20377e+08
2.32325e+08
2.44821e+08
2.5783e+08
2.71302e+08
2.85181e+08
2.99401e+08
3.13904e+08
3.28619e+08
3.4346e+08
3.58331e+08
3.7313e+08
3.8773e+08
4.01982e+08
4.15719e+08
4.28753e+08
4.40852e+08
4.51793e+08
4.61337e+08
4.69233e+08
4.75228e+08
4.7909e+08
4.80621e+08
4.79682e+08
4.76146e+08
4.69963e+08
4.61156e+08
4.49854e+08
4.36265e+08
4.207e+08
4.03448e+08
3.84878e+08
3.65273e+08
3.44959e+08
3.24186e+08
3.03145e+08
4.28988e+07
4.28692e+07
4.27934e+07
4.267e+07
4.24994e+07
4.2282e+07
4.20176e+07
4.17064e+07
4.13482e+07
4.09432e+07
4.04918e+07
3.99947e+07
3.94526e+07
3.88663e+07
3.82371e+07
3.75662e+07
3.68552e+07
3.61057e+07
3.53197e+07
3.44989e+07
3.36453e+07
3.27609e+07
3.18477e+07
3.09082e+07
2.99448e+07
2.89601e+07
2.7957e+07
2.69384e+07
2.5907e+07
2.48657e+07
2.38174e+07
2.27651e+07
2.17117e+07
2.06605e+07
1.96146e+07
1.85776e+07
1.7553e+07
1.65443e+07
1.55554e+07
1.45901e+07
1.36527e+07
1.27473e+07
1.18783e+07
1.10505e+07
1.02686e+07
9.53747e+06
8.86227e+06
8.24818e+06
7.70047e+06
7.22449e+06
6.82557e+06
6.50903e+06
6.28015e+06
6.14409e+06
6.1058e+06
6.17002e+06
6.34118e+06
6.62332e+06
7.02004e+06
7.53444e+06
8.16907e+06
8.92584e+06
9.80604e+06
1.08102e+07
1.19383e+07
1.31892e+07
1.45615e+07
1.60527e+07
1.76601e+07
1.93801e+07
2.12084e+07
2.31405e+07
2.5171e+07
2.72943e+07
2.95044e+07
3.1795e+07
3.41597e+07
3.65917e+07
3.9084e+07
4.16296e+07
4.42212e+07
4.68516e+07
4.95131e+07
5.21983e+07
5.48993e+07
5.76082e+07
6.03168e+07
6.30166e+07
6.56989e+07
6.83546e+07
7.09747e+07
7.35498e+07
7.60701e+07
7.8526e+07
8.09078e+07
8.32067e+07
8.54138e+07
8.75214e+07
8.95218e+07
9.14088e+07
9.31769e+07
9.48226e+07
9.63431e+07
9.77372e+07
9.90046e+07
1.00146e+08
1.01163e+08
1.02058e+08
1.02837e+08
1.03503e+08
1.04064e+08
1.04528e+08
1.04902e+08
1.05195e+08
1.05417e+08
1.05579e+08
1.05692e+08
1.0577e+08
1.05827e+08
1.05878e+08
1.05943e+08
1.06044e+08
1.06205e+08
1.06454e+08
1.0682e+08
1.07337e+08
1.08041e+08
1.08978e+08
1.10191e+08
1.11729e+08
1.1364e+08
1.15976e+08
1.18785e+08
1.22113e+08
1.26003e+08
1.30491e+08
1.35613e+08
1.41393e+08
1.47849e+08
1.54987e+08
1.62808e+08
1.71306e+08
1.80462e+08
1.90259e+08
2.00665e+08
2.11645e+08
2.2315e+08
2.3515e+08
2.47596e+08
2.60439e+08
2.73617e+08
2.87075e+08
3.00744e+08
3.14543e+08
3.28383e+08
3.4217e+08
3.55783e+08
3.69081e+08
3.81912e+08
3.94103e+08
4.05442e+08
4.15723e+08
4.24734e+08
4.32254e+08
4.38054e+08
4.41917e+08
4.43667e+08
4.43186e+08
4.40346e+08
4.35089e+08
4.27424e+08
4.17467e+08
4.05387e+08
3.91447e+08
3.75894e+08
3.59051e+08
3.41159e+08
3.22517e+08
3.03368e+08
2.83935e+08
3.88245e+07
3.88024e+07
3.87399e+07
3.86366e+07
3.84928e+07
3.83085e+07
3.80834e+07
3.78173e+07
3.75103e+07
3.71624e+07
3.67739e+07
3.6345e+07
3.58764e+07
3.53685e+07
3.48223e+07
3.42388e+07
3.3619e+07
3.29643e+07
3.2276e+07
3.15554e+07
3.08042e+07
3.00238e+07
2.9216e+07
2.83829e+07
2.75264e+07
2.66489e+07
2.57527e+07
2.48402e+07
2.39136e+07
2.29755e+07
2.20283e+07
2.10747e+07
2.01173e+07
1.91589e+07
1.82025e+07
1.72512e+07
1.63081e+07
1.53767e+07
1.44603e+07
1.35628e+07
1.26881e+07
1.18401e+07
1.10233e+07
1.0242e+07
9.50102e+06
8.80513e+06
8.15936e+06
7.56885e+06
7.03879e+06
6.5745e+06
6.18124e+06
5.8643e+06
5.62888e+06
5.48011e+06
5.4229e+06
5.46193e+06
5.60157e+06
5.84577e+06
6.19808e+06
6.66152e+06
7.23857e+06
7.93107e+06
8.74024e+06
9.66663e+06
1.071e+07
1.18696e+07
1.31436e+07
1.45298e+07
1.60254e+07
1.76268e+07
1.93302e+07
2.11309e+07
2.30237e+07
2.50034e+07
2.7064e+07
2.91995e+07
3.14038e+07
3.36702e+07
3.59922e+07
3.83628e+07
4.07752e+07
4.32223e+07
4.56968e+07
4.81913e+07
5.06983e+07
5.32102e+07
5.57189e+07
5.82165e+07
6.06945e+07
6.31443e+07
6.55575e+07
6.79249e+07
7.02377e+07
7.24871e+07
7.46643e+07
7.67612e+07
7.87699e+07
8.06836e+07
8.24954e+07
8.42001e+07
8.57929e+07
8.72708e+07
8.86317e+07
8.98752e+07
9.10021e+07
9.20132e+07
9.29103e+07
9.36967e+07
9.43766e+07
9.49546e+07
9.54366e+07
9.5829e+07
9.61383e+07
9.63726e+07
9.65413e+07
9.66535e+07
9.67189e+07
9.67491e+07
9.67559e+07
9.67535e+07
9.6758e+07
9.67898e+07
9.68691e+07
9.70205e+07
9.72716e+07
9.76517e+07
9.81942e+07
9.89387e+07
9.99267e+07
1.01204e+08
1.02815e+08
1.04808e+08
1.07227e+08
1.10116e+08
1.13518e+08
1.1747e+08
1.22002e+08
1.27143e+08
1.32908e+08
1.39307e+08
1.46345e+08
1.54015e+08
1.62305e+08
1.712e+08
1.80673e+08
1.90694e+08
2.01221e+08
2.12226e+08
2.23661e+08
2.35479e+08
2.47626e+08
2.60049e+08
2.72679e+08
2.85442e+08
2.98255e+08
3.11026e+08
3.23641e+08
3.35968e+08
3.47869e+08
3.59186e+08
3.69724e+08
3.79299e+08
3.8772e+08
3.94795e+08
4.00322e+08
4.04104e+08
4.05992e+08
4.05873e+08
4.03632e+08
3.99207e+08
3.92598e+08
3.83904e+08
3.73263e+08
3.609e+08
3.47014e+08
3.31887e+08
3.15715e+08
2.9877e+08
2.81283e+08
2.63508e+08
3.49699e+07
3.49546e+07
3.49043e+07
3.48197e+07
3.47009e+07
3.45474e+07
3.43589e+07
3.41353e+07
3.38764e+07
3.35821e+07
3.32524e+07
3.28876e+07
3.24877e+07
3.20534e+07
3.1585e+07
3.10834e+07
3.05491e+07
2.99832e+07
2.93864e+07
2.876e+07
2.81049e+07
2.74225e+07
2.67141e+07
2.59813e+07
2.52258e+07
2.44495e+07
2.36542e+07
2.28418e+07
2.20143e+07
2.11737e+07
2.03222e+07
1.94621e+07
1.85956e+07
1.77253e+07
1.68538e+07
1.59837e+07
1.51181e+07
1.42599e+07
1.34125e+07
1.25793e+07
1.17641e+07
1.09707e+07
1.02034e+07
9.46641e+06
8.76431e+06
8.1019e+06
7.48406e+06
6.91586e+06
6.40243e+06
5.94899e+06
5.56078e+06
5.24301e+06
5.00085e+06
4.83939e+06
4.76348e+06
4.77771e+06
4.88641e+06
5.09346e+06
5.40229e+06
5.81583e+06
6.33647e+06
6.966e+06
7.70555e+06
8.55557e+06
9.51585e+06
1.05854e+07
1.17627e+07
1.30455e+07
1.44308e+07
1.59152e+07
1.74949e+07
1.91655e+07
2.0922e+07
2.27591e+07
2.46713e+07
2.66526e+07
2.86972e+07
3.07986e+07
3.29504e+07
3.51463e+07
3.73795e+07
3.96431e+07
4.19301e+07
4.42335e+07
4.65459e+07
4.886e+07
5.11681e+07
5.34626e+07
5.57355e+07
5.79787e+07
6.01841e+07
6.23435e+07
6.44486e+07
6.64916e+07
6.84644e+07
7.03598e+07
7.21707e+07
7.38912e+07
7.55153e+07
7.70388e+07
7.84577e+07
7.97692e+07
8.09724e+07
8.20673e+07
8.30548e+07
8.39363e+07
8.47137e+07
8.53902e+07
8.59699e+07
8.64571e+07
8.68571e+07
8.71752e+07
8.74166e+07
8.75885e+07
8.76992e+07
8.7757e+07
8.77702e+07
8.77484e+07
8.7702e+07
8.76428e+07
8.75853e+07
8.75466e+07
8.75444e+07
8.76e+07
8.77381e+07
8.79853e+07
8.83716e+07
8.89324e+07
8.97056e+07
9.07324e+07
9.20552e+07
9.37169e+07
9.57603e+07
9.8228e+07
1.0116e+08
1.04594e+08
1.08559e+08
1.13081e+08
1.18182e+08
1.23872e+08
1.30156e+08
1.37034e+08
1.44494e+08
1.52528e+08
1.61111e+08
1.70216e+08
1.79811e+08
1.89866e+08
2.0034e+08
2.11182e+08
2.22342e+08
2.3377e+08
2.45402e+08
2.57168e+08
2.68985e+08
2.80765e+08
2.924e+08
3.03765e+08
3.14738e+08
3.25169e+08
3.34887e+08
3.43726e+08
3.51512e+08
3.58079e+08
3.63258e+08
3.6687e+08
3.68793e+08
3.68924e+08
3.67158e+08
3.63437e+08
3.5776e+08
3.50204e+08
3.40882e+08
3.29988e+08
3.17681e+08
3.04192e+08
2.89689e+08
2.74407e+08
2.58567e+08
2.42441e+08
3.14865e+07
3.14769e+07
3.14373e+07
3.13692e+07
3.12725e+07
3.11466e+07
3.09913e+07
3.0806e+07
3.05905e+07
3.03446e+07
3.0068e+07
2.97609e+07
2.94232e+07
2.90551e+07
2.86569e+07
2.82289e+07
2.77716e+07
2.72855e+07
2.67712e+07
2.62295e+07
2.56611e+07
2.5067e+07
2.44482e+07
2.38059e+07
2.31415e+07
2.24564e+07
2.17521e+07
2.10301e+07
2.0292e+07
1.95396e+07
1.87746e+07
1.79989e+07
1.72146e+07
1.64238e+07
1.56289e+07
1.48322e+07
1.40365e+07
1.32446e+07
1.24595e+07
1.16844e+07
1.09231e+07
1.01791e+07
9.45653e+06
8.75952e+06
8.09256e+06
7.46032e+06
6.86762e+06
6.31943e+06
5.82079e+06
5.37686e+06
4.99281e+06
4.6738e+06
4.42497e+06
4.25134e+06
4.15772e+06
4.14862e+06
4.22826e+06
4.40043e+06
4.66847e+06
5.03519e+06
5.50287e+06
6.07321e+06
6.74724e+06
7.52535e+06
8.40721e+06
9.39185e+06
1.04776e+07
1.16622e+07
1.29428e+07
1.4316e+07
1.57779e+07
1.73242e+07
1.89503e+07
2.06508e+07
2.24205e+07
2.42536e+07
2.61442e+07
2.80864e+07
3.00738e+07
3.21002e+07
3.41594e+07
3.62447e+07
3.83493e+07
4.04663e+07
4.25889e+07
4.47098e+07
4.6822e+07
4.89181e+07
5.09906e+07
5.30319e+07
5.50345e+07
5.69907e+07
5.88933e+07
6.07348e+07
6.25083e+07
6.42071e+07
6.58252e+07
6.73573e+07
6.87988e+07
7.0146e+07
7.13958e+07
7.25458e+07
7.3596e+07
7.45463e+07
7.53982e+07
7.6153e+07
7.68129e+07
7.73809e+07
7.78607e+07
7.82566e+07
7.85733e+07
7.88147e+07
7.8986e+07
7.90933e+07
7.91434e+07
7.91436e+07
7.91013e+07
7.90244e+07
7.89223e+07
7.88048e+07
7.8685e+07
7.85771e+07
7.84962e+07
7.84609e+07
7.84929e+07
7.86163e+07
7.88581e+07
7.92499e+07
7.98253e+07
8.06212e+07
8.16765e+07
8.30317e+07
8.47267e+07
8.6802e+07
8.92966e+07
9.22459e+07
9.56806e+07
9.9627e+07
1.04107e+08
1.09135e+08
1.14718e+08
1.20858e+08
1.27548e+08
1.34782e+08
1.4254e+08
1.50798e+08
1.59529e+08
1.68704e+08
1.78284e+08
1.88221e+08
1.98463e+08
2.08963e+08
2.19662e+08
2.30487e+08
2.41362e+08
2.52195e+08
2.62886e+08
2.73319e+08
2.8338e+08
2.92931e+08
3.01826e+08
3.09909e+08
3.17027e+08
3.23035e+08
3.27795e+08
3.31147e+08
3.32996e+08
3.33253e+08
3.31829e+08
3.28672e+08
3.23778e+08
3.17207e+08
3.09057e+08
2.99485e+08
2.88623e+08
2.76655e+08
2.63724e+08
2.50026e+08
2.35769e+08
2.21238e+08
2.84844e+07
2.84789e+07
2.8448e+07
2.83938e+07
2.8316e+07
2.8214e+07
2.80872e+07
2.79351e+07
2.77574e+07
2.75536e+07
2.73233e+07
2.70664e+07
2.67827e+07
2.64722e+07
2.61348e+07
2.57707e+07
2.538e+07
2.4963e+07
2.452e+07
2.40515e+07
2.3558e+07
2.304e+07
2.24985e+07
2.19343e+07
2.13484e+07
2.0742e+07
2.01161e+07
1.94719e+07
1.88108e+07
1.81341e+07
1.74435e+07
1.67405e+07
1.60267e+07
1.53042e+07
1.45751e+07
1.38415e+07
1.31058e+07
1.23707e+07
1.16391e+07
1.09141e+07
1.01989e+07
9.49736e+06
8.81315e+06
8.15042e+06
7.51355e+06
6.90709e+06
6.33579e+06
5.80455e+06
5.31832e+06
4.88219e+06
4.50129e+06
4.18074e+06
3.9256e+06
3.74082e+06
3.63112e+06
3.60095e+06
3.65444e+06
3.79528e+06
4.02668e+06
4.35134e+06
4.77139e+06
5.28842e+06
5.90333e+06
6.61639e+06
7.42717e+06
8.33461e+06
9.33698e+06
1.0432e+07
1.16167e+07
1.28877e+07
1.42412e+07
1.56729e+07
1.71782e+07
1.8752e+07
2.03891e+07
2.20838e+07
2.38305e+07
2.56232e+07
2.74559e+07
2.93227e+07
3.12174e+07
3.31336e+07
3.5065e+07
3.70049e+07
3.89467e+07
4.08836e+07
4.28087e+07
4.47152e+07
4.65961e+07
4.84443e+07
5.02529e+07
5.20149e+07
5.37236e+07
5.53723e+07
5.69549e+07
5.84655e+07
5.9899e+07
6.12511e+07
6.2518e+07
6.36965e+07
6.47844e+07
6.57801e+07
6.66835e+07
6.7495e+07
6.82162e+07
6.88486e+07
6.93942e+07
6.98562e+07