/*--------------------------------*- C++ -*----------------------------------*\
| =========                 |                                                 |
| \\      /  F ield         | OpenFOAM: The Open Source CFD Toolbox           |
|  \\    /   O peration     | Version:  dev                                   |
|   \\  /    A nd           | Web:      http://www.openfoam.org               |
|    \\/     M anipulation  |                                                 |
\*---------------------------------------------------------------------------*/
FoamFile
{
    version     2.0;
    format      ascii;
    class       volScalarField;
    object      T;
    location    "9.147";
}
// * * * * * * * * * * * * * * * * * * * * * * * * * * * * * * * * * * * * * //

dimensions      [0 0 0 1 0 0 0];

internalField   nonuniform List<scalar> 
12225
(
304.653
304.122
303.984
303.978
303.933
304
303.964
304.028
303.93
303.982
303.802
303.877
303.564
303.82
303.288
303.88
302.327
300.684
304.427
303.356
303.183
302.975
302.963
302.904
302.992
303.062
303.044
303.255
303.052
303.49
302.827
303.872
302.617
304.585
302.351
301.838
304.491
303.299
303.153
302.922
302.746
302.741
302.578
302.903
302.507
303.062
302.567
303.454
302.5
303.662
302.321
303.9
302.657
302.096
304.437
303.394
303.015
303.145
302.644
302.878
302.318
303.012
302.352
302.858
302.291
303.336
302.398
303.29
302.014
303.235
302.336
302.394
304.229
303.448
302.899
303.325
302.721
302.835
302.227
303.052
302.421
302.639
302.258
303.29
302.232
302.857
302.054
302.693
301.829
302.832
304.068
303.353
302.858
303.149
302.511
302.629
302.3
303.076
302.197
302.473
302.447
302.934
302.239
302.555
302.247
302.476
302.322
302.762
304.067
303.258
302.827
302.985
302.528
302.627
302.304
302.667
302.263
302.449
302.487
302.471
302.379
302.537
302.305
302.709
302.898
302.608
303.872
303.19
302.802
302.958
302.634
302.665
302.343
302.44
302.227
302.617
302.32
302.434
302.469
302.626
302.428
302.544
302.835
302.627
303.689
303.117
302.703
302.949
302.482
302.578
302.148
302.314
302.115
302.413
302.336
302.554
302.56
302.505
302.379
302.217
302.662
302.559
303.638
303.03
302.566
302.8
302.267
302.479
302.031
302.292
302.053
302.332
302.356
302.698
302.703
302.644
302.455
302.243
302.605
302.664
303.436
302.81
302.441
302.562
302.259
302.476
302.23
302.336
302.155
302.394
302.568
302.792
302.759
302.625
302.494
302.464
302.7
302.58
303.126
302.549
302.241
302.372
302.202
302.349
302.227
302.257
302.146
302.332
302.438
302.61
302.615
302.543
302.425
302.412
302.501
302.499
302.826
302.157
301.991
302.165
302.094
302.167
302.108
302.149
302.108
302.275
302.334
302.492
302.505
302.479
302.457
302.532
302.543
302.578
302.349
301.595
301.687
301.798
301.87
301.897
301.996
302.02
302.125
302.247
302.326
302.437
302.483
302.51
302.565
302.571
302.639
302.702
301.713
300.992
301.207
301.361
301.503
301.558
301.705
301.733
301.864
301.962
302.082
302.18
302.273
302.312
302.399
302.431
302.512
302.562
300.933
300.288
300.523
300.705
300.845
300.983
301.135
301.242
301.394
301.532
301.671
301.784
301.889
301.933
302.023
302.085
302.177
302.248
299.928
299.222
299.561
299.834
300.005
300.179
300.318
300.475
300.621
300.794
300.913
301.05
301.181
301.251
301.322
301.447
301.574
301.678
298.808
298.03
298.393
298.673
298.852
299.028
299.173
299.293
299.487
299.698
299.779
299.958
300.169
300.169
300.155
300.387
300.546
300.658
297.812
296.869
297.187
297.449
297.611
297.792
297.906
297.955
298.172
298.4
298.459
298.63
298.961
298.945
298.898
299.208
299.362
299.51
297.063
295.93
296.12
296.33
296.455
296.615
296.725
296.754
296.951
297.294
297.339
297.333
297.622
297.73
297.726
298.109
298.308
298.366
296.3
295.147
295.259
295.37
295.439
295.58
295.718
295.657
295.81
296.345
296.486
296.197
296.335
296.665
296.717
297.11
297.286
297.285
295.783
294.469
294.544
294.622
294.676
294.744
294.828
294.795
294.801
295.284
295.572
295.326
295.451
295.802
295.907
296.189
296.324
296.281
295.341
293.949
293.996
294.036
294.043
294.056
294.13
294.265
294.266
294.371
294.637
294.749
294.872
295.189
295.25
295.353
295.506
295.536
295.108
293.593
293.601
293.571
293.54
293.526
293.555
293.704
293.846
293.855
293.955
294.218
294.423
294.617
294.697
294.759
294.941
295.047
294.823
293.268
293.238
293.214
293.186
293.175
293.149
293.232
293.426
293.49
293.557
293.818
293.976
294.101
294.313
294.42
294.551
294.742
294.682
293.062
293.011
292.964
292.928
292.928
292.934
292.973
293.058
293.189
293.366
293.501
293.641
293.841
293.987
294.162
294.336
294.452
294.586
292.964
292.891
292.82
292.737
292.71
292.728
292.778
292.861
292.987
293.138
293.31
293.484
293.637
293.793
293.934
294.07
294.207
294.517
292.84
292.762
292.702
292.636
292.618
292.631
292.698
292.795
292.935
293.082
293.235
293.369
293.496
293.601
293.691
293.763
293.817
294.479
292.724
292.66
292.621
292.58
292.588
292.642
292.743
292.855
292.977
293.074
293.166
293.225
293.281
293.305
293.337
293.339
293.368
295.065
293.501
293.415
293.35
293.308
293.31
293.34
293.388
293.442
293.501
293.558
293.62
293.681
293.75
293.819
293.898
293.982
294.081
284.311
277.988
278.765
278.414
278.895
279.795
280.943
281.976
282.788
283.419
283.791
284.106
284.436
284.765
285.099
285.391
285.628
285.798
286.184
286.66
286.782
286.803
286.888
286.804
286.71
286.518
286.564
286.84
286.758
287.006
287.579
287.377
287.401
288.223
287.49
286.782
288.103
287.284
284.884
286.306
290.232
292.931
293.288
292.174
291.131
290.469
290.175
289.98
289.72
289.549
289.51
289.506
289.522
289.652
289.892
290.3
290.899
292.889
297.784
300.999
299.177
296.555
295.561
293.567
291.529
291.266
293.172
293.103
294.005
295.737
296.462
294.261
297.671
302.754
299.917
295.821
294.055
292.901
292.054
291.372
290.762
290.206
289.665
289.142
288.655
288.2
287.793
287.41
287.044
286.658
286.193
285.726
285.272
285.106
284.703
284.268
283.419
282.613
282.289
282.262
281.386
280.954
280.65
280.287
280.075
280.019
280.136
280.274
280.441
280.307
279.902
279.103
278.808
279.101
279.204
278.503
277.114
275.703
274.32
272.523
271.346
270.905
269.027
267.348
269.241
271.673
269.434
265.27
267.037
273.668
275.914
274.89
274.759
276.217
279.195
280.941
279.338
278.439
279.157
275.367
274.802
277.098
276.868
274.51
273.536
272.324
270.874
271.792
272.234
269.911
268.159
265.833
264.684
258.343
256.316
256.266
258.68
256.974
254.891
254.622
253.913
253.494
252.308
251.635
250.318
248.734
247.302
246.491
245.059
246.44
246.265
244.364
248.883
249.893
254.009
257.215
256.435
256.936
261.778
266.965
284.837
274.052
272.585
273.797
275.637
278.902
282.72
285.564
287.304
288.477
289.031
289.267
289.518
289.822
290.266
290.843
291.345
291.355
291.424
291.764
291.508
290.758
290.806
290.672
289.943
289.195
289.035
288.884
288.352
288.936
288.346
287.771
289.508
288.839
289.206
291.431
289.159
289.861
292.004
287.657
287.421
290.978
286.738
282.671
286.186
289.746
288.279
285.222
283.742
283.299
282.923
283.194
284.323
285.799
286.809
287.845
287.885
288.944
288.849
288.331
289.677
289.162
293.92
291.007
285.15
285.31
287.432
286.749
290.352
293.412
292.82
291.162
290.445
289.228
287.376
286.42
285.92
285.772
285.617
285.476
285.337
285.088
284.935
284.694
284.566
284.297
284.171
284.108
284.178
284.1
283.897
283.543
283.58
284.522
284.327
284.447
282.327
280.226
279.828
280.957
279.416
277.74
276.96
276.366
274.997
274.886
274.445
273.697
273.461
274.513
274.566
272.987
271.922
272.644
272.275
270.385
268.608
268.6
265.484
259.973
260.142
272.747
283.254
273.107
257.879
252.669
253.209
247.257
237.339
237.505
245.33
252.75
257.224
261.929
269.389
274.704
271.857
272.646
274.718
266.561
259.563
264.216
264.455
259.831
260.684
263.84
261.276
259.905
260.155
256.104
251.46
245.282
243.65
231.494
229.734
228.438
231.049
229.502
225.612
225.386
226.021
227.781
227.382
226.929
224.907
221.848
219.217
217.969
216.036
215.995
213.978
209.677
214.457
214.644
222.925
228.246
221.27
216.914
225.701
237.899
287.803
277.591
272.576
271.257
274.241
280.731
286.182
289.485
290.762
291.005
290.795
290.553
290.499
290.66
291.118
291.784
292.324
291.697
290.33
289.105
288.044
286.764
286.053
285.495
284.59
283.266
282.158
282.322
281.906
281.236
281.062
280.788
282.296
283.119
283.74
287.026
287.94
288.152
291.289
291.265
289.861
291.958
291.543
289.981
289.992
287.372
285.188
285.648
285.828
285.679
286.696
287.685
287.557
288.157
288.098
289.586
290.024
289.634
290.019
291.685
291.802
288.617
291.915
289.053
286.587
291.198
292.596
290.189
289.462
289.081
288.096
287.785
287.961
288.51
289.184
290.18
291.165
291.968
292.644
293.107
293.311
293.278
293.169
293.131
293.161
293.352
293.41
293.521
293.435
293.326
293.504
292.891
293.231
293.735
294.027
294.834
294.163
292.784
291.206
291.678
291.173
289.276
287.556
287.943
286.202
285.607
285.358
283.826
279.865
280.93
279.014
273.365
273.506
277.694
274.921
269.548
267.543
272.346
267.343
254.577
258.696
285.866
306.599
306.207
289.098
268.381
253.265
240.988
231.049
228.169
232.521
241.755
250.328
259.345
265.193
268.749
268.365
270.107
275.041
268.228
252.26
261.936
254.998
254.525
257.264
265.965
263.669
259.977
258.614
253.885
247.235
239.099
234.415
229.414
232.258
233.302
223.615
219.21
217.061
215.06
212.632
214.085
216.469
216.994
214.942
212.13
211.211
208.425
211.114
211.988
208.088
205.158
200.998
196.641
205.511
213.25
203.799
195.965
203.676
214.478
289.515
280.46
274.329
273.076
277.677
284.618
288.981
290.617
290.303
289.265
288.47
288.767
289.784
290.77
291.97
292.105
290.991
288.975
286.151
284.646
284.221
283.069
282.379
282.408
281.404
279.717
278.572
278.079
277.516
276.377
275.694
275.769
276.521
277.664
278.348
280.075
281.767
283.038
286.232
287.686
288.258
290.687
290.789
290.883
292.939
292.261
289.631
288.274
288.202
287.964
287.346
286.724
287.233
287.461
286.015
286.716
287.784
289.115
288.075
288.946
288.087
286.897
289.331
287.495
287.526
290.326
289.247
286.819
287.209
287.796
288.673
290.338
291.584
292.553
293.059
293.628
293.613
293.595
293.511
293.264
293.008
292.589
292.225
292.012
292.223
292.551
292.954
292.663
292.773
291.864
292.407
291.271
292.09
291.231
292.412
292.16
292.761
293.242
293.744
293.375
293.191
293.495
292.387
291.699
292.253
291.595
291.049
292.783
287.762
291.172
293.13
279.371
272.408
282.41
280.488
264.901
266.475
283.128
274.844
252.279
259.963
278.731
280.374
290.541
298.456
287.376
263.935
242.346
232.771
230.557
230.978
240.44
247.987
257.119
264.013
263.948
259.352
258.669
271.294
274.539
262.077
260.06
256.337
259.316
255.686
261.774
263.77
259.421
258.548
253.931
245.909
237.809
229.786
230.511
233.13
242.885
231.675
221.533
219.103
219.969
215.649
209.383
209.335
210.331
210.03
208.93
211.823
208.52
218.657
221.066
216.033
217.902
206.814
196.674
198.447
203.135
194.624
191.259
200.243
205.095
291.013
283.717
278.338
278.765
284.127
288.702
290.639
290.642
289.591
288.976
289.833
291.748
293.397
293.005
291.769
289.123
285.472
283.694
283.106
283.61
284.911
285.717
286.129
286.371
286.214
285.293
284.486
283.64
283.071
282.226
280.012
278.909
279.302
278.47
277.832
278.263
279.275
280.406
281.01
283.102
284.654
285.102
286.466
286.451
287.524
290.701
290.726
288.441
288.446
288.707
285.59
282.193
283.332
284.681
284.834
286.232
286.995
291.364
290.27
287.275
289.942
292.03
291.252
288.602
286.298
285.488
286.249
287.988
290.852
292.737
294.686
295.273
294.773
293.548
292.687
291.595
290.436
289.774
289.171
288.94
288.826
288.776
288.822
288.646
289.029
288.895
289.518
289.323
290.294
290.216
290.712
290.057
289.515
289.188
290.5
291.424
291.284
290.431
291.358
291.372
291.841
291.778
294.132
292.557
291.804
293.857
290.942
293.93
291.448
290.479
297.778
290.915
276.517
285.217
293.869
270.284
261.588
280.775
283.776
263.177
263.4
268.104
265.064
276.419
295.005
299.908
276.614
248.594
238.193
235.358
234.03
244.339
247.794
255.905
263.336
260.829
260.533
255.169
267.784
270.207
285.384
262.289
256.548
266.185
260.363
266.388
270.741
261.334
259.218
256.099
243.482
235.685
226.257
227.388
230.675
242.154
235.007
225.967
224.447
227.944
229.175
216.587
210.069
206.886
205.289
207.451
214.918
214.638
229.971
230.305
226.61
227.869
216.446
208.897
205.046
199.465
190.016
191.084
201.184
202.705
292.38
287.242
283.822
286.05
289.862
291.1
291.123
290.551
290.067
290.507
291.357
291.5
290.903
287.937
283.447
280.55
281.795
285.669
288.115
289.27
290.007
290.111
289.52
288.795
288.647
288.437
288.588
289.167
288.603
287.834
287.606
285.722
283.896
282.957
281.005
280.583
279.495
277.701
278.98
278.512
279.292
282.49
280.63
280.162
284.024
285.68
287.243
290.079
290.432
291.145
291.148
287.38
287.24
288.081
287.416
286.162
287.53
293.345
288.801
283.294
288.119
291.85
291.221
288.739
287.815
286.535
287.414
290.969
293.255
294.128
293.709
291.334
289.459
288.474
288.305
287.851
287.977
288.217
288.627
289.04
289.665
289.884
290.421
290.179
290.554
289.992
290.06
289.994
290.394
291.026
291.485
291.811
291.952
291.646
291.644
291.486
291.936
292.685
293.281
292.726
292.228
291.482
291.57
293.955
289.842
293.722
291.54
289.573
293.88
292.105
291.239
295.001
286.563
283.464
295.938
288.003
268.965
269.815
273.965
267.446
263.609
263.533
265.149
276.132
291.875
303.963
287.465
257.621
245.828
241.111
239.375
246.419
252.207
256.763
266.766
260.788
264.523
255.891
270.214
266.389
276.971
270.923
258.368
266.703
263.193
268.985
272.539
266.216
257.872
250.604
242.098
243.314
227.576
228.881
233.593
241.409
237.179
229.504
228.339
228.134
235.551
227.864
217.073
209.674
202.317
202.814
213.752
221.065
234.374
231.522
230.746
229.826
219.6
222.941
222.117
203.41
189.592
189.82
201.581
204.119
293.61
290.618
289.355
291.216
291.855
291.194
290.899
290.672
290.424
290.315
290.006
288.967
286.522
282.672
281.501
286.057
290.929
290.731
287.669
285.867
285.39
285.341
285.195
285.387
285.545
285.721
286.245
287.55
288.887
289.216
289.956
290.406
289.476
289.31
289.472
287.003
285.469
284.494
280.234
279.91
280.65
278.434
278.295
277.129
274.727
278.179
282.147
281.385
283.866
290.355
290.483
285.809
286.797
289.23
289.063
287.135
290.101
293.837
285.264
280.561
286.431
290.837
291.265
290.065
290.671
289.914
293.049
297.557
295.868
293.406
290.16
288.09
288.5
289.61
290.479
290.903
291.837
292.357
293.016
293.422
294.086
294.113
294.559
294.154
294.054
293.602
292.822
292.146
291.371
290.764
290.876
290.404
291.381
291.586
291.59
291.008
292.092
292.417
292.533
294.693
293.096
295.104
292.351
295.189
292.61
293.661
296.717
291.526
291.196
297.087
290.994
290.215
293.279
289.258
292.668
294.869
280.634
274.153
274.865
274.952
269.41
267.816
267.42
274.389
287.673
296.428
288.511
264.34
252.751
245.957
245.485
249.09
247.941
245.659
255.33
260.325
261.726
258.566
275.928
272.94
268.469
273.555
262.288
266.651
264.84
272.681
273.883
266.717
253.007
246.373
248.935
254.686
229.935
234.547
235.259
235.34
236.807
230.152
232.543
228.858
231.317
234.597
224.19
216.355
205.283
199.258
207.648
223.082
235.802
229.027
227.531
231.308
219.614
233.862
245.514
213.699
193.122
188.825
202.501
207.203
294.596
293.097
292.617
292.416
291.841
291.405
291.197
290.672
290.455
290.388
289.093
285.417
281.031
280.914
284.703
285.491
282.112
280.884
282.813
284.672
284.542
283.948
283.236
283.267
283.903
284.547
284.931
285.813
287.104
287.924
288.28
288.852
289.349
290.238
289.923
287.483
285.183
281.91
279.737
279.618
279.282
278.702
277.534
276.218
275.093
274.719
277.058
279.97
281.573
283.381
284.362
286.707
289.955
288.17
286.866
286.643
289.939
291.942
284.006
283.122
289.373
292.041
291.217
289.504
289.458
289.387
294.019
295.096
290.646
289.332
288.682
290.214
292.339
293.367
293.344
293.289
293.623
293.879
294.772
295.677
296.825
297.814
298.565
298.895
298.392
298.015
297.275
295.601
293.776
290.979
290.578
290.012
289.878
289.423
288.903
289.081
291.313
290.833
291.506
292.419
292.091
292.402
294.624
293.677
294.064
292.869
294.808
297.411
290.63
296.074
297.428
289.667
292.722
294.601
291.961
293.531
289.855
284.178
280.701
281.706
276.62
273.948
267.908
269.683
287.676
293.191
284.539
266.5
257.148
250.871
250.671
249.557
242.549
269.133
264.772
264.717
259.602
253.439
270.014
277.487
264.259
270.781
265.294
267.33
267.797
275.617
276.259
265.182
254.737
245.416
252.287
250.755
224.75
237.725
237.552
232.635
238.655
231.799
234.749
231.169
226.713
235.087
228.718
222.618
213.252
201.339
201.043
216.509
232.84
225.642
221.308
231.351
219.558
239.789
269.361
227.749
199.366
189.02
203.185
209.233
295.284
294.393
293.507
292.903
292.367
291.411
290.915
290.761
289.743
286.736
282.227
279.326
280.938
283.573
283.042
283.768
288.868
292.725
291.956
289.533
287.389
286.769
286.455
286.805
287.577
288.599
288.719
288.378
287.946
287.877
287.792
288.447
289.408
289.649
288.825
286.283
283.001
280.892
279.907
279.924
280.92
280.532
279.415
278.194
278.194
277.584
277.851
278.931
283.349
287.444
285.628
283.311
285.222
286.494
288.915
289.413
289.049
289.465
284.217
284.703
290.285
291.837
289.637
287.748
288.542
292.136
296.395
293.111
289.716
290.67
290.539
291.513
291.531
290.691
290.271
290.942
292.4
294.327
296.768
299.054
300.66
301.798
302.334
302.389
301.904
301.152
302.274
303.135
303.11
299.179
295.501
293.525
292.927
291.719
290.615
290.057
291.16
291.633
293.207
292.943
295.814
291.031
295.202
294.628
293.263
296.226
291.715
296.599
293.968
291.291
298.279
293.645
290.076
295.084
295.909
293.613
292.322
289.9
285.108
288.704
290.2
294.317
277.218
266.345
288.077
296.419
282.185
265.631
258.83
254.951
252.03
248.22
249.235
297.977
281.76
290.545
274.274
251.672
268.617
284.861
265.786
267.697
267.959
265.84
270.033
277.804
276.742
266.647
252.105
245.602
254.788
255.13
231.558
236.26
236.095
229.328
244.247
238.592
233.193
226.886
222.298
230.165
230.471
224.885
220.738
211.524
201.87
209.259
225.319
220.095
214.469
229.556
218.485
240.849
285.122
242.492
206.615
190.295
204.043
210.296
295.801
295.015
293.946
293.235
291.507
290.517
290.382
289.269
286.982
283.654
280.875
280.621
281.525
283.634
289.721
294.019
291.843
288.168
287.599
288.104
288.403
288.836
288.868
289.174
289.06
289.196
288.966
288.553
287.752
286.973
286.213
286.211
287.177
288.023
287.447
286.02
283.776
280.933
279.679
280.515
281.711
282.588
282.758
282.291
282.48
283.121
283.748
283.096
282.555
282.336
285.469
289.322
288.393
285.843
288.178
287.808
285.855
288.185
286.986
286.646
289.021
290.56
287.82
286.688
290.747
296.328
295.446
289.353
287.952
288.624
288.051
289.011
290.16
291.531
293.769
296.553
299.003
301.596
303.58
304.757
304.071
302.666
301.256
299.474
297.475
294.099
293.671
296.362
301.713
303.585
302.159
298.752
296.066
294.656
294.223
291.568
291.358
291.052
293.58
291.492
295.564
294.054
294.098
297.161
291.24
296.331
295.108
293.848
297.102
293.024
296.767
297.524
290.947
292.885
296.894
294.621
293.623
292.372
286.357
289.964
298.352
314.119
291.663
272.373
293.392
302.39
284.079
267.432
260.984
258.485
251.319
247.014
261.794
298.064
276.542
303.966
296.935
266.246
281.611
285.614
263.135
253.69
251.283
258.646
270.111
277.324
273.535
271.707
250.642
250.795
255.582
258.811
245.448
234.164
234.15
228.217
242.124
239.968
230.815
224.513
220.14
223.921
231.548
226.494
223.549
220.28
207.897
207.152
219.895
216.273
208.623
228.762
218.713
236.188
283.849
255.532
213.594
192.459
205.539
211.037
296.3
295.587
294.468
292.617
291.096
291.709
291.467
288.357
284.13
280.765
280.542
284.173
289.588
294.6
295.134
292.031
291.709
292.435
292.304
291.701
291.708
291.361
290.792
290.384
289.757
289.548
289.541
289.544
289.347
288.854
287.95
287.167
286.92
287.39
287.356
286.402
284.899
283.128
282.187
282.321
283.402
285.103
286.338
286.572
285.516
284.544
284.656
286.573
288.513
289.133
287.17
285.262
286.738
288.28
288.396
286.788
287.278
291.06
290.659
287.099
286.341
288.472
286.291
288.365
294.831
296.229
290.898
286.602
288.558
289.971
291.054
293.434
295.79
297.439
298.301
298.566
298.023
298.373
299.364
300.058
298.918
297.573
297.172
297.057
296.725
293.625
291.249
290.374
294.041
296.766
298.473
298.706
296.986
294.368
295.009
291.468
294.087
291.791
293.557
292.95
291.436
295.942
291.802
295.628
295.181
292.677
295.98
292.65
295.548
293.194
292.811
297.4
295.916
293.988
296.202
296.373
295.579
294.143
288.716
289.696
299.889
319.429
296.102
279.554
298.713
303.92
282.818
268.964
263.515
259.657
250.337
247.418
269.641
299.528
282.823
308.2
291.62
273.005
289.142
280.834
255.959
247.487
250.114
265.824
272.19
275.267
270.078
269.199
251.576
255.416
256.32
254.711
249.192
233.427
234.024
234.936
242.824
239.444
233.069
230.11
222.929
219.783
233.753
227.533
224.164
226.792
215.289
207.897
220.134
217.197
206.513
229.803
221.322
229.722
270.873
265.388
220.033
194.673
207.407
211.687
296.777
295.889
293.955
291.81
291.849
293.306
293.034
290.329
287.244
285.756
288.095
292.038
293.735
294.249
292.991
291.134
291.212
292.48
293.11
293.165
293.496
293.219
293.032
292.774
292.308
291.964
291.83
291.713
291.704
291.477
290.886
289.953
288.883
288.096
287.405
286.717
286.361
286.213
286.169
286.472
286.776
286.623
286.413
286.995
288.218
289.541
289.419
288.062
286.944
287.542
288.824
289.841
289.47
288.372
288.522
288.648
289.991
292.395
289.952
284.397
284.811
287.932
286.526
292.844
297.927
292.991
288.409
289.359
292.675
293.849
294.771
295.711
295.579
295.114
294.099
293.218
293.12
294.244
296.08
297.322
297.326
297.953
298.423
299.169
300.702
300.295
299.054
297.642
299.13
297.534
298.554
297.462
296.582
296.372
296.349
294.565
293.839
294.279
291.74
295.096
289.787
293.844
295.405
289.747
297.038
291.764
296.093
294.674
294.084
295.497
294.292
294.595
296.585
294.778
293.628
294.689
294.705
295.62
293.439
287.935
291.417
312.364
295.431
281.91
299.035
306.502
283.365
272.197
267.281
259.303
251.504
249.55
272.956
298.017
288.666
315.323
275.847
281.308
294.933
284.044
256.94
254.296
259.28
269.589
272.854
268.155
261.01
262.728
254.455
259.355
259.28
254.349
244.791
234.158
236.976
256.929
262.239
248.737
245.885
243.86
231.206
218.874
234.461
228.951
227.783
239.243
226.794
210.449
225.254
224.261
208.949
231.963
225.854
225.287
259.407
270.202
224.759
198.016
210.132
212.773
297.266
296.239
294.167
293.025
295.197
297.073
294.855
292.349
290.362
288.261
289.597
292.751
293.692
292.861
291.323
291.916
294.678
295.442
294.532
295.314
295.736
295.69
295.831
295.734
295.403
295.02
294.263
293.481
293.232
293.289
293.188
292.667
291.769
290.847
289.996
289.05
288.375
288.235
287.882
287.889
288.419
289.312
290.474
290.384
288.89
287.729
288.058
289.969
291.106
290.087
289.634
289.611
288.325
287.713
287.492
287.512
288.643
289.372
285.466
282.93
285.512
289.648
290.886
296.621
296.553
289.951
288.325
292.096
294.218
294.019
293.822
293.533
292.639
291.964
291.192
290.766
290.868
291.332
291.619
293.106
296.309
300.127
301.616
301.026
300.349
300.169
299.53
295.384
297.518
295.137
297.118
296.491
295.574
294.839
294.065
296.57
293.19
298.154
292.608
293.64
295.263
289.151
297.898
289.275
295.836
292.716
292.687
297.555
293.757
291.685
295.184
294.792
295.124
298.038
298.053
296.921
294.573
295.778
301.024
293.343
285.399
306.625
296.981
280.724
297.052
308.36
286.177
275.453
271.071
257.041
255.841
253.435
273.277
294.124
300.267
316.454
275.276
289.78
296.574
283.179
257.379
257.039
261.398
266.833
263.694
261.638
258.309
260.576
259.266
257.854
255.01
250.107
242.306
233.702
239.644
282.18
289.553
266.185
261.683
259.833
243.837
223.086
231.69
229.42
229.436
247.142
240.648
215.104
231.298
235.323
214.498
235.097
232.222
224.012
252.314
272.834
229.108
201.154
212.456
214.247
297.819
296.734
294.572
293.139
294.017
294.845
294.853
296.145
294.791
290.178
290.359
293.766
292.155
291.036
292.122
294.295
296.564
295.038
294.879
295.713
294.911
295.029
295.144
295.092
295.161
295.382
295.403
294.987
294.513
294.278
294.354
294.552
294.135
293.268
292.675
292.182
291.271
290.878
290.832
290.59
290.745
290.791
290.277
288.357
287.061
289.082
291.97
291.886
290.258
289.831
290.256
288.466
286.654
285.954
284.497
285.613
286.491
286.83
284.414
286.066
289.591
291.501
294.414
295.506
291.748
288.788
290.107
293.999
294.671
294.375
293.765
293.458
293.048
292.866
292.743
292.626
291.802
291.695
291.998
292.926
295.538
296.723
296.847
296.766
297.4
296.169
298.452
294.78
293.267
291.781
294.471
292.429
293.918
295.312
292.186
298.963
294.159
294.043
298.265
290.431
298.002
291.528
296.006
293.114
292.012
296.133
292.216
293.06
296.877
293.995
294.978
297.415
293.235
292.099
295.081
298.078
293.809
291.325
302.296
299.402
283.98
302.697
301.556
281.884
295.449
308.607
289.65
280.047
274.408
255.066
261.299
255.237
270.412
289.924
310.08
306.668
282.961
281.907
304.441
298.13
264.343
259.218
261.858
265.824
260.948
259.738
257.398
261.417
258.999
255.126
249.566
233.612
234.099
229.435
246.916
289.642
294.935
277.511
265.59
264.982
253.414
228.776
234.416
230.607
225.357
242.923
252.055
221.003
236.214
245.888
220.315
238.164
239.08
225.245
248.927
273.187
231.014
204.549
215.144
216.176
298.514
297.95
296.524
295.484
295.498
296.134
294.327
293.457
295.95
293.724
291.007
292.643
292.757
292.5
295.814
297.715
295.981
294.355
294.957
294.84
294.369
294.998
295.345
295.63
295.574
295.295
295.471
295.538
295.753
295.938
295.894
296.456
297.197
296.836
295.683
295.176
294.798
293.611
292.705
291.364
289.333
287.588
287.011
287.635
288.885
291.411
293.008
290.568
289.858
291.897
291.739
288.189
286.874
286.011
283.26
285.022
286.014
286.235
287.23
288.935
292.948
292.992
294.16
292.081
288.276
289.854
292.224
294.789
294.682
294.714
294.143
294.006
293.722
293.067
292.643
293.276
293.822
293.819
293.739
291.379
291.039
291.958
295.209
297.001
299.039
301.16
300.178
296.99
298.134
295.295
297.738
295.939
293.172
298.631
297.243
295.459
302.145
292.097
297.188
293.537
294.674
295.519
293.88
298.705
293.189
293.263
295.966
292.903
294.425
293.819
292.155
295.978
297.068
295.563
295.284
300.67
299.049
291.52
299.684
302.887
286.029
299.602
305.069
284.375
294.326
308.033
292.312
284.815
275.918
255.855
265.906
253.552
266.89
290.344
312.924
301.249
298.874
286.93
295.875
299.413
269.748
259.515
264.603
264.39
261.362
261.78
261.109
261.06
257.996
252.05
244.674
232.513
228.315
227.005
259.292
288.167
286.179
277.081
265.396
261.528
260.009
234.354
238.169
235.281
222.154
234.172
256.956
224.396
239.22
254.399
225.146
240.719
246.134
227.775
247.671
272.808
233.164
207.608
217.481
217.56
299.129
299.263
298.322
297.159
296.074
295.056
294.715
295.033
294.52
292.833
291.301
289.076
291.822
293.724
294.868
296.351
294.827
294.223
295.475
296.082
296.127
296.06
296.192
296.758
296.863
296.487
296.198
295.42
294.24
294.364
294.73
295.004
296.195
297.666
297.705
296.358
295.703
294.774
292.857
291.449
290.002
288.312
287.49
288.323
290.29
292.167
293.659
291.618
290.427
292.528
292.634
289.552
287.338
286.991
285.73
286.463
288.042
288.142
290.579
291.186
293.105
292.976
292.26
290.317
288.463
291.454
294.583
295.229
294.485
293.466
292.697
292.323
292.441
292.302
291.644
290.558
290.216
292.217
296.947
296.415
295.765
295.004
294.96
295.577
293.053
295.085
299.105
295.095
298.912
298.366
298.489
298.604
296.687
295.573
301.223
296.978
300.6
294.335
291.436
292.932
290.138
293.304
292.869
296.7
295.241
296.07
296.709
294.775
295.662
295.902
293.858
295.369
295.618
293.417
292.132
297.383
298.388
290.046
295.253
303.045
287.908
295.548
307.033
286.107
294.103
306.088
296.679
289.288
277.73
259.766
267.817
248.874
265.288
292.216
311.13
306.114
305.385
293.796
288.507
285.791
263.359
258.987
268.566
260.632
258.289
260.254
263.645
257.065
258.403
249.928
248.705
260.065
237.228
231.585
272.658
288.125
282.547
267.559
262.202
258.846
259.258
242.689
243.757
239.989
220.366
227.646
252.071
222.719
242.082
261.672
227.939
242.774
252.561
231.296
248.281
272.54
233.38
210.29
220.454
219.086
299.104
298.591
298.796
298.587
298.353
298.066
298.142
297.243
295.413
296.272
296.113
291.199
292.072
294.031
294.101
295.129
295.062
295.681
297.17
297.705
297.022
296.039
295.187
295.131
295.999
296.828
297.201
297.693
296.636
295.202
294.83
294.871
294.945
295.834
297.835
298.387
296.968
295.883
294.466
292.383
290.985
289.776
289.075
289.74
291.858
293.765
293.151
291.768
292.015
292.912
291.726
292.197
291.802
289.397
288.4
288.247
288.904
289.759
290.94
291.895
292.677
292.197
291.157
290.666
290.487
291.941
293.929
293.944
293.571
293.424
294.014
293.658
291.793
290.428
290.181
290.602
290.801
291.459
295.543
295.929
295.247
296.976
297.71
297.892
299.073
297.962
296.307
294.37
295.445
296.837
295.955
294.445
295.799
297.31
298.923
295.155
295.868
291.601
288.519
292.124
290.059
292.237
291.735
294.949
292.916
295.078
296.449
294.832
294.422
296.182
292.705
293.377
296.785
296.406
294.488
298.168
299.653
291.743
295.78
303.051
290.257
292.909
309.048
285.636
295.625
302.922
302.039
292.282
279.245
266.448
267.163
245.2
266.605
294.866
310.358
309.678
296.687
272.243
268.651
267.523
256.836
264.51
267.919
256.071
252.726
258.137
257.262
249.914
261.868
252.157
254.968
274.572
249.72
240.752
274.915
276.196
272.71
262.875
252.093
256.645
254.609
250.724
253.478
244.517
221.072
226.263
242.583
219.503
245.485
265.05
228.683
245.351
258.49
234.929
249.974
272.344
233.692
213.581
222.913
219.967
299.022
297.612
297.574
297.141
297.696
298.325
298.022
296.749
295.609
298.051
299.142
295.876
295.154
295.709
295.551
296.076
296.351
296.691
297.326
297.421
296.411
296.329
296.566
296.191
296.652
297.371
296.572
296.141
297.033
297.332
297.093
296.044
295.291
294.911
295.636
297.789
298.777
297.728
296.21
294.192
292.124
292.038
291.725
290.292
290.804
293.548
295.127
292.801
292.403
295.093
293.484
292.238
293.067
291.245
291.168
292.385
291.625
292.894
292.687
292.359
293.107
292.139
291.408
291.661
292.036
293.509
293.813
294.06
293.481
293.219
293.171
292.966
291.577
289.43
289.693
292.148
291.678
293.213
296.221
296.861
297.643
295.784
294.421
293.939
292.615
296.192
294.274
296.58
298.545