/*--------------------------------*- C++ -*----------------------------------*\
| =========                 |                                                 |
| \\      /  F ield         | OpenFOAM: The Open Source CFD Toolbox           |
|  \\    /   O peration     | Version:  dev                                   |
|   \\  /    A nd           | Web:      http://www.openfoam.org               |
|    \\/     M anipulation  |                                                 |
\*---------------------------------------------------------------------------*/
FoamFile
{
    version     2.0;
    format      ascii;
    class       volVectorField;
    object      U;
    location    "9.147";
}
// * * * * * * * * * * * * * * * * * * * * * * * * * * * * * * * * * * * * * //

dimensions      [0 1 -1 0 0 0 0];

internalField   nonuniform List<vector> 
12225
(
(6.14145 0.647397 0)
(2.62241 0.33692 0)
(-0.167681 0.190679 0)
(-0.786389 0.155055 0)
(-2.99167 0.197278 0)
(-2.66408 0.121053 0)
(-4.83805 0.24351 0)
(-4.34526 0.122756 0)
(-6.48238 0.262758 0)
(-5.64713 0.0793737 0)
(-7.90393 0.314033 0)
(-6.79429 0.077854 0)
(-9.29703 0.339753 0)
(-7.35884 -0.0328709 0)
(-10.2978 0.312107 0)
(-6.42903 0.0593534 0)
(-3.1218 0.300592 0)
(-12.2076 8.21409 0)
(8.77698 1.59827 0)
(8.10442 1.27998 0)
(3.78163 0.953802 0)
(4.74193 0.715171 0)
(-0.139983 0.73129 0)
(2.32863 0.541646 0)
(-2.69529 0.718758 0)
(0.246686 0.508701 0)
(-4.79344 0.777615 0)
(-1.18068 0.435949 0)
(-6.71089 0.877311 0)
(-2.24278 0.406644 0)
(-8.69739 0.992736 0)
(-2.61922 0.185786 0)
(-11.0188 1.34646 0)
(-3.3969 -1.58135 0)
(-11.6033 -0.822154 0)
(-16.9537 -1.3293 0)
(7.72809 1.94686 0)
(11.1568 1.79746 0)
(5.15469 1.55987 0)
(9.05748 1.26556 0)
(2.25657 1.35377 0)
(6.71018 1.05672 0)
(0.257015 1.34183 0)
(4.53018 0.985707 0)
(-1.72987 1.28402 0)
(2.80051 0.995367 0)
(-3.08932 1.49711 0)
(0.740647 0.776024 0)
(-3.98476 1.65676 0)
(-1.77994 0.709396 0)
(-4.89904 2.24571 0)
(-6.12536 -0.400875 0)
(-7.745 3.42943 0)
(-15.7352 0.815114 0)
(5.70086 2.28475 0)
(12.4181 1.95118 0)
(5.60793 2.13937 0)
(10.4425 1.59456 0)
(4.67021 2.17619 0)
(7.55165 1.28762 0)
(3.49873 2.10543 0)
(5.65063 1.35761 0)
(1.77906 2.09995 0)
(3.53746 1.23902 0)
(0.346392 2.45084 0)
(1.89806 1.03562 0)
(-1.33485 2.91324 0)
(-0.51412 0.459618 0)
(-1.71305 4.32321 0)
(-2.68853 -0.259146 0)
(-5.31903 4.11407 0)
(-10.008 4.51917 0)
(6.94606 3.26814 0)
(9.76194 1.82452 0)
(6.59664 2.8501 0)
(8.01999 1.53983 0)
(6.66872 3.02705 0)
(5.24006 1.4836 0)
(4.66753 2.85741 0)
(4.14984 1.67332 0)
(2.97183 2.90242 0)
(2.55076 1.68639 0)
(1.5202 3.08351 0)
(1.37815 1.87862 0)
(0.0605934 3.80367 0)
(-0.346483 1.29857 0)
(-0.480333 5.20325 0)
(-1.93116 1.87483 0)
(-4.93395 6.07427 0)
(-5.64288 4.26618 0)
(8.91888 3.98937 0)
(7.787 2.07633 0)
(7.07777 3.36216 0)
(6.45236 1.66451 0)
(5.95817 3.98237 0)
(4.35471 1.97051 0)
(4.31034 3.49911 0)
(3.80541 2.07392 0)
(2.36924 3.87562 0)
(1.8576 1.91863 0)
(1.33288 3.9984 0)
(0.768357 2.41795 0)
(0.40233 4.50132 0)
(-0.305635 1.80528 0)
(-0.83343 5.66174 0)
(-1.38595 3.20292 0)
(-3.80773 6.23432 0)
(-2.62555 6.37668 0)
(9.09408 4.7662 0)
(8.72867 2.50112 0)
(7.4471 4.33543 0)
(7.06544 1.97572 0)
(5.74641 4.91151 0)
(6.05368 2.24234 0)
(4.62499 4.15964 0)
(4.22143 2.71467 0)
(2.76563 4.82679 0)
(2.16217 2.53773 0)
(1.87606 4.43685 0)
(0.678058 3.12996 0)
(0.816371 5.02143 0)
(-0.0807641 3.12386 0)
(-0.896724 5.94089 0)
(-0.459895 4.66015 0)
(-1.96763 6.38287 0)
(-1.63516 7.33742 0)
(8.83645 5.32267 0)
(8.29627 2.73763 0)
(7.84985 4.86456 0)
(7.03735 2.36711 0)
(6.35447 5.18843 0)
(5.92987 2.67473 0)
(4.74162 4.89046 0)
(3.66761 3.33077 0)
(3.35418 5.37348 0)
(2.54315 3.12948 0)
(1.35653 5.18072 0)
(0.912908 3.86123 0)
(0.616409 5.40106 0)
(0.206199 4.00626 0)
(-0.49964 6.10085 0)
(-0.21783 5.45257 0)
(-1.26862 7.19645 0)
(-1.28105 7.98683 0)
(9.12552 5.99233 0)
(7.995 2.76141 0)
(7.52381 5.35288 0)
(7.20974 2.7865 0)
(6.32044 5.70467 0)
(5.96482 3.23261 0)
(4.12346 5.49807 0)
(3.86573 3.85048 0)
(3.01564 5.70954 0)
(2.54126 4.13253 0)
(1.23136 5.57234 0)
(1.06947 4.38029 0)
(0.73666 5.85867 0)
(0.414253 4.81116 0)
(-0.528375 6.47482 0)
(-0.601709 6.43041 0)
(-1.14977 7.48375 0)
(-0.917709 8.42072 0)
(9.72298 6.58287 0)
(8.4584 3.64352 0)
(7.23406 5.70081 0)
(6.69075 3.38454 0)
(5.42339 5.94754 0)
(5.44395 4.18185 0)
(3.76501 6.04664 0)
(3.83692 4.61451 0)
(2.74951 6.19099 0)
(2.77887 4.90091 0)
(1.95063 6.10592 0)
(1.86516 5.15551 0)
(1.21505 6.21124 0)
(0.799457 5.87146 0)
(0.130488 7.02505 0)
(0.239179 7.17952 0)
(0.178081 7.77631 0)
(0.289664 8.56269 0)
(9.69559 7.25502 0)
(8.37283 4.14234 0)
(7.63566 6.3248 0)
(6.64836 4.27949 0)
(5.55279 6.39596 0)
(5.06102 4.65902 0)
(4.18664 6.29843 0)
(3.87642 5.22436 0)
(3.27035 6.37157 0)
(2.95801 5.54629 0)
(2.39204 6.22329 0)
(2.10249 5.99061 0)
(1.61192 6.82479 0)
(1.15318 6.72148 0)
(0.823965 7.26025 0)
(0.780125 7.60112 0)
(0.717755 8.22962 0)
(0.877158 8.96046 0)
(9.35992 7.74043 0)
(8.42258 5.165 0)
(7.64971 6.45261 0)
(6.9288 5.23966 0)
(6.05847 6.63939 0)
(5.47669 5.90788 0)
(4.64418 6.72756 0)
(4.1764 6.25592 0)
(3.60774 6.78893 0)
(3.11873 6.55317 0)
(2.53179 6.8708 0)
(2.03506 6.88887 0)
(1.63541 7.24684 0)
(1.3842 7.64224 0)
(1.12938 8.11748 0)
(0.945773 8.41063 0)
(0.862394 8.75713 0)
(1.12999 9.25172 0)
(9.52606 8.36267 0)
(8.58993 5.89772 0)
(7.57163 6.94537 0)
(6.62372 6.15042 0)
(5.80905 6.99985 0)
(5.24904 6.53185 0)
(4.65026 7.00631 0)
(4.10525 6.95821 0)
(3.60741 7.19099 0)
(3.14084 7.29865 0)
(2.65435 7.48477 0)
(2.19691 7.69776 0)
(1.78793 7.98676 0)
(1.44407 8.28458 0)
(1.29133 8.59406 0)
(1.27999 8.93347 0)
(1.25438 9.30116 0)
(1.42204 9.5799 0)
(9.55066 8.80862 0)
(8.79683 6.93674 0)
(7.80574 7.22592 0)
(6.9964 7.13054 0)
(6.196 7.43533 0)
(5.4749 7.48246 0)
(4.76413 7.59361 0)
(4.12138 7.73644 0)
(3.60581 7.88231 0)
(3.09173 8.06307 0)
(2.68135 8.24676 0)
(2.32153 8.46607 0)
(2.03577 8.71866 0)
(1.8211 8.98852 0)
(1.69335 9.2728 0)
(1.66717 9.49979 0)
(1.71261 9.73451 0)
(1.91278 10.0136 0)
(9.28025 9.26838 0)
(8.53916 7.60152 0)
(7.74125 7.69758 0)
(6.92972 7.78362 0)
(6.21316 7.93058 0)
(5.58432 8.05481 0)
(4.99154 8.17289 0)
(4.4553 8.33433 0)
(3.97738 8.45551 0)
(3.52567 8.60317 0)
(3.13318 8.77794 0)
(2.80221 8.96223 0)
(2.53998 9.18905 0)
(2.3627 9.40586 0)
(2.26571 9.63787 0)
(2.23425 9.86896 0)
(2.25766 10.0794 0)
(2.41158 10.2941 0)
(9.2841 9.81231 0)
(8.43433 8.03523 0)
(7.7125 8.03744 0)
(7.02757 8.2216 0)
(6.32029 8.34147 0)
(5.6526 8.43212 0)
(5.01688 8.53905 0)
(4.49584 8.69272 0)
(4.04373 8.89246 0)
(3.66629 9.09297 0)
(3.33334 9.29317 0)
(3.07439 9.49476 0)
(2.83 9.68568 0)
(2.65206 9.85952 0)
(2.51963 10.0279 0)
(2.45529 10.2039 0)
(2.40808 10.3696 0)
(2.48903 10.5585 0)
(9.60429 9.978 0)
(8.77693 8.25234 0)
(7.96614 8.18311 0)
(7.20975 8.34484 0)
(6.50117 8.57189 0)
(5.85312 8.77666 0)
(5.24478 8.89426 0)
(4.72586 8.96365 0)
(4.27387 9.04244 0)
(3.91298 9.1484 0)
(3.58581 9.31457 0)
(3.33871 9.53542 0)
(3.1086 9.77506 0)
(2.94693 9.99172 0)
(2.80491 10.1854 0)
(2.74372 10.3593 0)
(2.68875 10.5017 0)
(2.75655 10.6383 0)
(9.29594 9.68608 0)
(8.61493 8.03861 0)
(7.85933 8.09187 0)
(7.12957 8.23293 0)
(6.50581 8.34864 0)
(5.98507 8.44969 0)
(5.5062 8.5418 0)
(5.05623 8.64483 0)
(4.61483 8.79634 0)
(4.18964 8.98217 0)
(3.79624 9.16328 0)
(3.49965 9.35924 0)
(3.27265 9.57725 0)
(3.12489 9.71686 0)
(3.04177 9.82992 0)
(3.04058 9.97008 0)
(3.04891 10.0794 0)
(3.14547 10.1879 0)
(9.58175 9.11179 0)
(8.90278 7.52132 0)
(8.16156 7.56415 0)
(7.50473 7.69615 0)
(6.93848 7.78893 0)
(6.42764 7.89687 0)
(5.93103 8.0334 0)
(5.47243 8.18492 0)
(5.02976 8.36375 0)
(4.64448 8.54835 0)
(4.30265 8.65151 0)
(4.04265 8.74599 0)
(3.83594 8.88709 0)
(3.66693 8.96006 0)
(3.55169 9.00202 0)
(3.50618 9.14509 0)
(3.4635 9.27397 0)
(3.48938 9.40557 0)
(9.92418 8.38373 0)
(9.09876 6.83837 0)
(8.27047 6.78747 0)
(7.56122 6.84054 0)
(6.97925 6.89851 0)
(6.45656 7.00995 0)
(5.95196 7.15849 0)
(5.48552 7.31752 0)
(5.06444 7.48925 0)
(4.73108 7.67037 0)
(4.4427 7.79811 0)
(4.20813 7.91229 0)
(4.00559 8.07171 0)
(3.87213 8.17777 0)
(3.7335 8.22857 0)
(3.64045 8.3595 0)
(3.57088 8.45715 0)
(3.56115 8.54303 0)
(9.44249 7.41838 0)
(9.04019 6.18529 0)
(8.42536 6.04698 0)
(7.79575 6.02305 0)
(7.20494 6.05689 0)
(6.64853 6.17121 0)
(6.13466 6.343 0)
(5.68484 6.48829 0)
(5.29853 6.60435 0)
(4.97039 6.71937 0)
(4.69195 6.81242 0)
(4.45173 6.88149 0)
(4.24363 6.95869 0)
(4.10661 7.08789 0)
(3.98092 7.18643 0)
(3.86781 7.29446 0)
(3.82109 7.41009 0)
(3.83512 7.50512 0)
(9.67748 6.3958 0)
(9.12374 5.15578 0)
(8.47372 4.99342 0)
(7.82182 5.00459 0)
(7.22717 5.09754 0)
(6.72634 5.20895 0)
(6.28966 5.32461 0)
(5.92108 5.44258 0)
(5.58291 5.56483 0)
(5.25361 5.7111 0)
(4.96697 5.84986 0)
(4.74047 5.96095 0)
(4.48838 6.04285 0)
(4.30487 6.15445 0)
(4.17067 6.24027 0)
(4.03303 6.30723 0)
(3.96841 6.33957 0)
(3.95506 6.37325 0)
(9.55631 5.2134 0)
(9.22046 4.24682 0)
(8.648 4.17901 0)
(8.02384 4.15481 0)
(7.42267 4.18066 0)
(6.87764 4.27507 0)
(6.38397 4.37104 0)
(5.92663 4.47697 0)
(5.51536 4.6097 0)
(5.18108 4.73279 0)
(4.93576 4.8079 0)
(4.76556 4.91052 0)
(4.60529 5.03247 0)
(4.49889 5.10025 0)
(4.42371 5.18258 0)
(4.36624 5.26964 0)
(4.31379 5.31921 0)
(4.28477 5.39968 0)
(9.71974 4.50684 0)
(9.34578 3.38413 0)
(8.86051 3.26423 0)
(8.31276 3.29096 0)
(7.77485 3.3467 0)
(7.27406 3.43572 0)
(6.79978 3.5325 0)
(6.34826 3.64344 0)
(5.93217 3.73741 0)
(5.57024 3.80831 0)
(5.21251 3.87322 0)
(4.87999 3.93981 0)
(4.64675 4.02813 0)
(4.47121 4.11927 0)
(4.30062 4.18625 0)
(4.19594 4.26044 0)
(4.11791 4.3204 0)
(4.07354 4.38877 0)
(9.72177 3.27609 0)
(9.40016 2.41362 0)
(8.85905 2.39769 0)
(8.34415 2.46944 0)
(7.85314 2.51638 0)
(7.37988 2.57084 0)
(6.90334 2.65789 0)
(6.44234 2.77021 0)
(6.01096 2.88178 0)
(5.63471 3.01959 0)
(5.30808 3.11563 0)
(5.03086 3.17027 0)
(4.82064 3.22837 0)
(4.66353 3.28411 0)
(4.53141 3.32757 0)
(4.44175 3.37844 0)
(4.38948 3.41937 0)
(4.36107 3.44184 0)
(9.88429 2.5191 0)
(9.6616 1.79394 0)
(9.21881 1.69633 0)
(8.73822 1.71313 0)
(8.17519 1.75519 0)
(7.58773 1.84024 0)
(7.00907 1.96515 0)
(6.48326 2.09896 0)
(6.02297 2.20143 0)
(5.62616 2.26029 0)
(5.31399 2.30642 0)
(5.07754 2.36309 0)
(4.87399 2.39409 0)
(4.69735 2.43806 0)
(4.54753 2.47211 0)
(4.43381 2.51176 0)
(4.34547 2.54815 0)
(4.31143 2.57924 0)
(9.80795 1.49651 0)
(9.83163 0.924644 0)
(9.56146 0.94454 0)
(9.0518 1.03503 0)
(8.36699 1.12737 0)
(7.64799 1.21846 0)
(6.97502 1.3086 0)
(6.37635 1.40575 0)
(5.87502 1.49411 0)
(5.42182 1.55079 0)
(5.04422 1.60991 0)
(4.70724 1.64848 0)
(4.41759 1.68407 0)
(4.15155 1.72295 0)
(3.92979 1.75425 0)
(3.73685 1.78559 0)
(3.57778 1.79848 0)
(3.45529 1.81526 0)
(9.70769 0.830582 0)
(9.74125 0.209156 0)
(9.31722 0.331883 0)
(8.59449 0.521726 0)
(7.69036 0.653658 0)
(6.73749 0.751405 0)
(5.85277 0.846218 0)
(5.06551 0.922766 0)
(4.38448 0.986031 0)
(3.78546 1.02881 0)
(3.26313 1.07131 0)
(2.78684 1.09976 0)
(2.36137 1.12643 0)
(1.98994 1.15586 0)
(1.66827 1.17552 0)
(1.36992 1.19319 0)
(1.14444 1.209 0)
(0.911597 1.2075 0)
(9.90777 -0.022979 0)
(9.29133 -0.44138 0)
(7.90881 -0.233821 0)
(6.37065 0.0369614 0)
(4.93274 0.242897 0)
(3.6626 0.390408 0)
(2.59537 0.493061 0)
(1.70313 0.551513 0)
(0.948389 0.596706 0)
(0.311576 0.623604 0)
(-0.236516 0.647238 0)
(-0.70526 0.664155 0)
(-1.11246 0.674189 0)
(-1.45753 0.686416 0)
(-1.77467 0.692055 0)
(-2.03406 0.711664 0)
(-2.25942 0.712008 0)
(-2.48429 0.712663 0)
(8.40399 -0.150382 0)
(5.37548 -0.188117 0)
(2.80109 0.065459 0)
(0.977085 0.197982 0)
(-0.285029 0.234204 0)
(-1.21654 0.235894 0)
(-1.95175 0.22952 0)
(-2.56868 0.22263 0)
(-3.09362 0.219183 0)
(-3.54594 0.219036 0)
(-3.94373 0.219765 0)
(-4.28142 0.223062 0)
(-4.57809 0.224231 0)
(-4.8279 0.229565 0)
(-5.04312 0.234412 0)
(-5.21587 0.24128 0)
(-5.35417 0.236228 0)
(-5.49622 0.260842 0)
(-0.0866551 0.14902 0)
(-0.409922 0.165156 0)
(-0.723906 0.193498 0)
(-0.987935 0.160867 0)
(-1.2032 0.0685041 0)
(-1.3542 -0.0415887 0)
(-1.35089 -0.166637 1.11292e-17)
(-1.21756 -0.303667 -1.10885e-17)
(-0.981285 -0.400832 0)
(-0.638786 -0.473422 -1.0983e-17)
(-0.241168 -0.501755 0)
(0.173487 -0.514331 0)
(0.61112 -0.527136 0)
(1.06262 -0.551032 1.07169e-17)
(1.54373 -0.57215 0)
(2.06174 -0.586934 0)
(2.62581 -0.596632 -1.05139e-17)
(3.21809 -0.595419 0)
(3.83072 -0.616867 0)
(4.47895 -0.690095 0)
(5.19984 -0.731515 1.02462e-17)
(5.97432 -0.724983 0)
(6.75503 -0.697664 1.00966e-17)
(7.52544 -0.643258 0)
(8.28178 -0.591965 0)
(9.02073 -0.535046 9.8577e-18)
(9.71212 -0.457181 0)
(10.3323 -0.398174 -9.72109e-18)
(10.8904 -0.359102 0)
(11.4027 -0.291521 9.58108e-18)
(11.8627 -0.234457 0)
(12.2434 -0.147844 0)
(12.5287 0.00827882 0)
(12.6768 0.105838 0)
(12.6906 0.214556 0)
(12.5955 0.41029 -9.15333e-18)
(12.3377 0.448064 0)
(11.9682 0.442033 1.80711e-17)
(11.4821 0.694458 0)
(10.7399 0.930453 -1.77713e-17)
(9.98283 0.564735 0)
(9.39629 -0.213723 0)
(9.01671 -0.696873 1.78394e-17)
(8.84618 -0.601911 0)
(8.86265 -0.301711 1.74652e-17)
(8.97591 -0.0946327 -1.73044e-17)
(9.02301 -0.0207106 0)
(8.90997 -0.017566 -1.70326e-17)
(8.6822 -0.00401663 -1.68968e-17)
(8.43921 0.0403902 0)
(8.17849 0.0620431 0)
(7.90136 0.0346084 0)
(7.67685 -0.00583029 0)
(7.56974 -0.0786569 0)
(7.63893 -0.145146 1.62034e-17)
(7.8825 -0.13877 0)
(8.19205 -0.0357549 -1.60287e-17)
(8.38621 0.249107 0)
(8.3083 0.235179 0)
(7.99774 -0.204978 1.62344e-17)
(7.67015 -0.551522 0)
(7.75002 -0.553176 -1.57712e-17)
(7.83545 -0.529902 0)
(8.10496 -0.674733 0)
(8.91913 -0.943553 0)
(10.4864 -1.17149 1.5076e-17)
(11.72 -0.503613 0)
(12.7045 -0.200865 0)
(13.0364 -0.0258796 1.49055e-17)
(13.4016 -0.516018 0)
(13.0701 -1.61876 1.4817e-17)
(12.6628 -2.02245 0)
(12.5318 -1.39658 0)
(11.3684 0.0506346 0)
(9.02768 0.85394 -1.45606e-17)
(6.8586 0.803195 0)
(4.98885 0.630569 0)
(3.30872 0.480305 -1.39228e-17)
(1.82565 0.354569 -1.37865e-17)
(0.529713 0.244221 0)
(-0.618514 0.141345 -1.35378e-17)
(-1.61386 0.0510265 0)
(-2.47681 -0.0217293 -2.66081e-17)
(-3.19457 -0.0945423 0)
(-3.80825 -0.148451 -2.61587e-17)
(-4.31895 -0.192699 0)
(-4.74416 -0.222581 2.57304e-17)
(-5.10257 -0.250143 0)
(-5.39577 -0.266298 0)
(-5.60014 -0.287722 0)
(-5.71838 -0.316989 -2.49087e-17)
(-5.73777 -0.344046 0)
(-5.65998 -0.379452 2.45014e-17)
(-5.4835 -0.407685 0)
(-5.17039 -0.434889 -2.41337e-17)
(-4.71588 -0.515409 -2.39409e-17)
(-4.20865 -0.536081 -2.37152e-17)
(-3.72599 -0.491483 0)
(-3.22996 -0.501753 0)
(-2.64185 -0.545654 0)
(-1.93533 -0.581454 0)
(-1.30595 -0.54198 0)
(-0.733342 -0.513689 0)
(-0.163911 -0.51776 0)
(0.363019 -0.492643 0)
(0.886666 -0.507083 2.20945e-17)
(1.40958 -0.491089 2.1959e-17)
(1.90449 -0.491026 0)
(2.29224 -0.474952 0)
(2.74881 -0.509625 0)
(3.2656 -0.504182 2.137e-17)
(3.60991 -0.436215 0)
(3.86758 -0.365285 0)
(4.25702 -0.370492 0)
(4.5538 -0.385483 0)
(4.67995 -0.34471 -2.05714e-17)
(4.69832 -0.372191 0)
(4.77688 -0.424164 0)
(4.74976 -0.453977 1.98686e-17)
(4.69644 -0.426097 -1.96121e-17)
(4.72683 -0.428057 0)
(4.89219 -0.546692 -1.92389e-17)
(5.76639 -0.677322 0)
(6.95271 -0.537645 1.87243e-17)
(7.88546 -0.340259 0)
(8.39118 -0.279513 0)
(8.47185 -0.426925 0)
(8.44727 -0.450256 0)
(8.66232 -0.235746 0)
(8.69594 -0.108888 -3.68707e-17)
(8.50049 -0.344137 -3.69187e-17)
(8.58709 -0.546958 0)
(9.13062 -0.603496 0)
(9.73983 -0.549855 0)
(10.2371 -0.616333 3.6381e-17)
(10.1029 -0.454568 0)
(9.01059 0.0466024 0)
(8.35947 -0.168529 0)
(9.88985 -0.812426 3.54408e-17)
(11.7225 -0.571097 -3.47424e-17)
(12.8913 -0.0319801 0)
(12.6663 -0.20707 0)
(12.2775 -0.497623 -3.42558e-17)
(11.9764 -0.435478 -3.37514e-17)
(11.4908 -0.290122 0)
(11.6536 -0.519501 0)
(13.0712 -0.553725 3.27096e-17)
(14.1145 -0.325907 -3.26209e-17)
(13.4911 -0.322737 0)
(13.2214 -0.522083 0)
(12.6455 -0.452583 -3.15984e-17)
(12.2788 -0.470274 0)
(11.4798 -0.465706 0)
(10.6611 -0.365551 -2.99235e-17)
(10.4835 -0.458842 0)
(10.6211 -0.473058 -2.93731e-17)
(10.0581 -0.380998 0)
(8.91213 -0.406244 0)
(8.12973 -0.46804 0)
(7.31191 -0.463796 2.85181e-17)
(6.68737 -0.578227 0)
(5.84004 -0.557297 0)
(5.06506 -0.525977 0)
(4.15547 -0.399919 0)
(2.80125 -0.277601 0)
(0.95023 -0.199324 0)
(-0.764613 -0.220538 2.66598e-17)
(-2.39743 -0.282029 2.64185e-17)
(-3.44457 -0.323612 0)
(-4.50861 -0.253902 0)
(-6.60972 -0.166164 0)
(-7.23687 -0.429045 -2.55683e-17)
(-7.98437 -0.496385 0)
(-9.15269 -0.528474 5.16231e-17)
(-9.2527 -0.581057 -5.2103e-17)
(-9.6082 -0.430673 -5.2406e-17)
(-11.0703 -0.194967 5.19045e-17)
(-12.3903 -0.272966 -5.16358e-17)
(-13.2584 -0.416251 5.22213e-17)
(-13.5741 -0.634427 0)
(0.0255738 0.24061 0)
(-0.137657 0.510441 0)
(-0.335626 0.371497 -2.22577e-17)
(-0.496916 0.181673 0)
(-0.658634 0.0291782 2.21764e-17)
(-0.761231 -0.235334 2.22725e-17)
(-0.708228 -0.644525 1.12149e-17)
(-0.522778 -1.04697 1.12261e-17)
(-0.219776 -1.3399 0)
(0.10615 -1.56162 1.11773e-17)
(0.504074 -1.66851 0)
(0.88914 -1.70158 0)
(1.28847 -1.69557 -2.19727e-17)
(1.68966 -1.74305 -1.09093e-17)
(2.11772 -1.82483 2.17117e-17)
(2.58443 -1.91105 2.15966e-17)
(3.10744 -2.00073 1.07291e-17)
(3.72007 -2.03857 0)
(4.40238 -2.06742 0)
(5.09077 -2.23138 0)
(5.80492 -2.38543 1.0444e-17)
(6.54115 -2.42597 0)
(7.26235 -2.41367 -3.07748e-17)
(8.0026 -2.35734 0)
(8.77027 -2.30544 0)
(9.55342 -2.21271 -9.97497e-18)
(10.3739 -2.0261 0)
(11.1217 -1.866 9.81991e-18)
(11.8272 -1.68768 1.94775e-17)
(12.5193 -1.53087 -9.67992e-18)
(13.152 -1.39731 0)
(13.7454 -1.15741 0)
(14.2528 -0.914979 0)
(14.6522 -0.622736 1.88033e-17)
(15.0403 -0.36385 1.86942e-17)
(15.1997 -0.0477952 9.3394e-18)
(15.2891 0.304804 0)
(15.3748 0.540884 -1.83093e-17)
(15.1615 0.87762 0)
(14.8983 1.19815 1.78867e-17)
(14.9179 1.19002 0)
(14.6751 1.30008 0)
(13.7118 1.44879 -1.74489e-17)
(12.6628 0.895866 0)
(11.8294 -0.149937 -5.16251e-17)
(11.107 -0.579134 1.72923e-17)
(10.5865 -0.210018 0)
(10.2667 0.217605 1.67802e-17)
(10.0799 0.355274 1.65801e-17)
(9.92024 0.306607 0)
(9.62581 0.200723 0)
(9.28112 0.119043 0)
(8.98193 -0.0987022 0)
(8.76733 -0.456722 0)
(8.81603 -0.881948 -1.60782e-17)
(9.04833 -1.28025 -3.20548e-17)
(9.65547 -1.47103 1.59105e-17)
(10.2039 -1.19952 0)
(10.8648 -0.578439 -3.14642e-17)
(11.4285 -0.267294 1.55932e-17)
(10.61 -0.0843854 0)
(10.6208 -0.686175 1.54175e-17)
(9.97372 -1.47717 0)
(9.93987 -1.8321 0)
(10.3888 -3.34478 2.97885e-17)
(11.7081 -4.47692 -1.48036e-17)
(12.4945 -3.80435 2.96168e-17)
(13.1054 -3.55901 -2.93453e-17)
(12.0684 -2.57145 -1.4757e-17)
(11.575 -0.839496 0)
(8.97718 0.200547 -1.4655e-17)
(6.29484 0.798273 0)
(4.08586 1.24295 0)
(2.48676 1.65565 0)
(1.08982 1.60101 -1.39866e-17)
(-0.200412 1.32962 0)
(-1.41661 0.984096 -2.74715e-17)
(-2.56294 0.646477 4.09191e-17)
(-3.54368 0.30838 1.35452e-17)
(-4.438 0.0303974 0)
(-5.21485 -0.265234 1.33532e-17)
(-5.88209 -0.487027 0)
(-6.40373 -0.723295 2.63133e-17)
(-6.83697 -0.895729 0)
(-7.13931 -1.04511 2.59258e-17)
(-7.41555 -1.13738 -5.14322e-17)
(-7.59891 -1.19787 -2.55387e-17)
(-7.76185 -1.26918 0)
(-7.79391 -1.36747 0)
(-7.78158 -1.45788 0)
(-7.65321 -1.53772 2.48268e-17)
(-7.47051 -1.60108 0)
(-7.15187 -1.68139 -2.44624e-17)
(-6.76642 -1.77688 0)
(-6.27577 -1.93038 7.25712e-17)
(-5.68919 -2.02846 2.40448e-17)
(-5.05946 -1.98306 2.37051e-17)
(-4.41645 -1.85932 0)
(-3.62273 -1.95168 0)
(-2.93084 -2.05467 0)
(-2.05836 -2.08205 0)
(-1.40261 -1.95945 0)
(-0.660319 -1.9089 4.46547e-17)
(-0.00110498 -1.91582 4.42628e-17)
(0.640788 -1.83645 0)
(1.32684 -1.8776 -2.17313e-17)
(1.96295 -1.82453 -2.15522e-17)
(2.63454 -1.76926 0)
(3.12563 -1.68184 -4.2374e-17)
(3.67765 -1.82778 0)
(4.31428 -1.78549 2.0986e-17)
(4.61572 -1.64183 0)
(4.70582 -1.69648 0)
(5.23948 -1.80762 -4.08766e-17)
(6.03486 -1.59073 0)
(6.37444 -1.43117 2.00051e-17)
(6.32065 -1.38089 0)
(6.56809 -1.31725 0)
(6.77295 -1.13021 1.92483e-17)
(6.61794 -1.23209 1.8736e-17)
(6.22851 -1.46515 0)
(5.8097 -1.87359 -1.94061e-17)
(6.44646 -2.5496 0)
(7.92247 -2.53897 1.91325e-17)
(9.32319 -2.25736 3.59029e-17)
(10.2586 -1.78323 0)
(10.6239 -1.30004 0)
(10.3626 -1.21759 0)
(10.2217 -1.34492 0)
(10.327 -1.21452 3.20795e-17)
(10.3592 -1.16272 9.88141e-17)
(10.2604 -1.47998 0)
(10.3974 -1.77062 0)
(10.5042 -1.7963 0)
(10.6903 -1.15054 -3.5212e-17)
(9.69317 -0.369192 0)
(7.53447 -0.522679 0)
(7.39989 -1.74237 6.99345e-17)
(8.60141 -3.15237 3.50239e-17)
(10.0656 -3.26146 3.37353e-17)
(12.3793 -1.98955 0)
(12.7139 -1.32986 0)
(11.7345 -0.697651 3.284e-17)
(11.4746 -0.90731 -3.21017e-17)
(10.3781 -1.09132 0)
(10.8617 -2.29951 0)
(12.0715 -3.05415 -3.16753e-17)
(14.8196 -1.97434 9.39919e-17)
(14.6179 -1.21593 0)
(14.1452 -1.41186 0)
(12.7884 -1.41407 2.9736e-17)
(12.3191 -1.37896 0)
(10.7055 -1.22361 5.70027e-17)
(9.32571 -1.71273 -2.69473e-17)
(9.43568 -2.39039 0)
(10.6756 -2.48827 2.62668e-17)
(10.4448 -1.55649 5.28637e-17)
(9.24842 -1.66986 0)
(8.39687 -1.89382 0)
(7.72051 -1.94727 -2.53256e-17)
(7.37423 -1.91216 0)
(6.61399 -1.87991 5.06409e-17)
(5.6179 -1.92024 0)
(4.29495 -1.7031 0)
(2.64202 -1.49204 0)
(0.75635 -1.45594 0)
(-0.567802 -1.56094 -2.36794e-17)
(-2.057 -1.73789 -2.34094e-17)
(-2.70598 -2.07319 0)
(-3.49782 -1.83354 0)
(-5.48854 -1.63934 0)
(-5.52676 -2.23144 2.19889e-17)
(-6.17457 -1.97571 0)
(-6.91256 -1.98701 -4.44793e-17)
(-6.68722 -2.22134 4.58926e-17)
(-7.26363 -1.64736 4.67044e-17)
(-8.65682 -1.07205 4.50647e-17)
(-9.04916 -1.16294 4.38296e-17)
(-9.8618 -1.32214 4.53378e-17)
(-10.2616 -1.54105 0)
(0.0867237 -0.196594 0)
(0.12092 0.332569 0)
(0.0963214 0.364018 2.22288e-17)
(-0.00737612 0.255284 2.19925e-17)
(-0.12136 0.0252505 -2.20377e-17)
(-0.114971 -0.497152 -2.23902e-17)
(0.0626788 -1.18636 3.19165e-20)
(0.315763 -1.82566 0)
(0.639105 -2.22267 0)
(0.894796 -2.44405 0)
(1.13595 -2.55046 0)
(1.32398 -2.60593 0)
(1.57926 -2.58216 6.61384e-17)
(1.87033 -2.61228 0)
(2.22574 -2.72075 -2.17533e-17)
(2.64872 -2.88272 -2.16449e-17)
(3.10152 -3.14901 0)
(3.63205 -3.37778 0)
(4.29308 -3.49468 0)
(4.94125 -3.62002 0)
(5.57415 -3.69731 -2.06078e-17)
(6.21371 -3.64184 0)
(6.82282 -3.60641 2.01726e-17)
(7.47925 -3.61142 0)
(8.20655 -3.57762 0)
(8.88748 -3.58038 0)
(9.60049 -3.4049 3.87141e-17)
(10.3152 -3.15781 0)
(10.9743 -3.0669 -1.90363e-17)
(11.6505 -2.80007 3.77608e-17)
(12.3286 -2.48844 0)
(12.9368 -2.16998 0)
(13.5025 -1.74655 0)
(14.0193 -1.38901 -1.84438e-17)
(14.4977 -0.876056 -1.83553e-17)
(14.9698 -0.392425 0)
(15.3679 0.00333707 0)
(15.7088 0.379432 3.65105e-17)
(15.9634 0.648962 3.66378e-17)
(16.115 1.05429 -3.6342e-17)
(16.339 1.33264 0)
(16.3086 1.32093 0)
(15.9628 1.52384 0)
(15.9177 1.76235 0)
(15.49 1.67324 3.484e-17)
(14.2499 1.36316 3.43083e-17)
(13.0253 0.892998 -3.38199e-17)
(12.1836 0.378987 0)
(11.5741 0.0520288 0)
(11.1735 0.0733663 0)
(10.9987 0.295511 0)
(10.8983 0.343957 3.29741e-17)
(10.8342 0.122215 0)
(10.7034 -0.40898 0)
(10.6587 -1.20736 3.23393e-17)
(10.6278 -2.00457 3.22625e-17)
(10.9379 -2.54119 0)
(11.2863 -2.23371 -6.36406e-17)
(12.0931 -2.28127 3.16241e-17)
(12.7203 -1.07765 -3.1575e-17)
(12.6887 0.0949214 0)
(13.6387 -0.990696 0)
(11.9301 -0.852972 0)
(11.5987 -2.49571 0)
(11.5726 -4.3254 -2.99469e-17)
(11.5566 -5.41265 -6.04407e-17)
(9.73623 -3.61731 -3.01335e-17)
(7.82637 -0.325405 2.96759e-17)
(5.70841 0.0184702 0)
(4.57455 1.10654 -5.83117e-17)
(2.89484 1.40091 -5.77069e-17)
(1.78521 1.52924 -5.72593e-17)
(0.325405 1.74989 5.69198e-17)
(-0.66624 1.87832 0)
(-1.665 1.73727 8.46397e-17)
(-2.3603 1.35428 0)
(-3.15832 0.937926 -2.80219e-17)
(-3.81785 0.474564 -2.79392e-17)
(-4.534 0.0397072 0)
(-5.13558 -0.381999 0)
(-5.70812 -0.767707 -5.49965e-17)
(-6.17625 -1.1386 0)
(-6.58971 -1.43282 -5.42289e-17)
(-6.85222 -1.76292 0)
(-7.11129 -1.89832 5.34873e-17)
(-7.23026 -2.08811 1.06339e-16)
(-7.39477 -2.13453 0)
(-7.36991 -2.27439 0)
(-7.4272 -2.38731 0)
(-7.28288 -2.51622 5.17005e-17)
(-7.28222 -2.6282 0)
(-7.00101 -2.74439 5.09158e-17)
(-6.73722 -2.85151 0)
(-6.21855 -3.05303 0)
(-5.86554 -3.18947 -1.00171e-16)
(-5.33058 -3.33116 0)
(-4.78925 -3.37986 -4.94106e-17)
(-4.09507 -3.33938 0)
(-3.1338 -3.40394 -4.82484e-17)
(-2.47229 -3.39439 0)
(-1.55919 -3.44335 0)
(-0.875356 -3.24959 0)
(-0.0354215 -3.15187 -1.39164e-16)
(0.641879 -3.1796 -4.61618e-17)
(1.22666 -3.10392 0)
(1.96496 -3.17051 0)
(2.51715 -3.15675 0)
(3.23661 -3.08254 0)
(3.91776 -2.81863 4.33962e-17)
(4.46547 -3.03283 -8.65013e-17)
(5.17606 -2.96246 -4.26818e-17)
(5.73837 -2.31779 8.30655e-17)
(5.63337 -2.45375 8.25993e-17)
(5.66311 -3.21547 4.16653e-17)
(6.40894 -3.01124 0)
(7.03726 -2.26742 7.97784e-17)
(6.88988 -2.15475 0)
(6.98013 -2.56296 -7.9549e-17)
(7.45194 -2.29383 -3.87755e-17)
(7.64354 -1.75295 0)
(7.00159 -1.45557 7.41679e-17)
(6.18673 -2.08718 4.07398e-17)
(6.35987 -3.90268 0)
(7.57382 -4.42448 4.2957e-17)
(9.45256 -3.71785 -1.20697e-16)
(10.8899 -2.87616 0)
(11.3916 -2.18423 0)
(11.3293 -1.88385 0)
(11.0346 -1.8796 0)
(10.8568 -1.76126 -6.16482e-17)
(11.0421 -1.69949 -6.24659e-17)
(11.0217 -2.17662 0)
(10.8814 -2.33794 0)
(10.3442 -2.35332 0)
(9.78408 -1.72485 0)
(9.18143 -0.253419 0)
(7.7873 -0.289542 0)
(8.12456 -2.24052 -6.93608e-17)
(8.21148 -4.47634 3.68938e-20)
(8.76397 -5.01586 0)
(9.69476 -3.11188 0)
(11.1547 -1.81907 -6.5602e-17)
(9.79317 -1.57006 0)
(11.5927 -1.66504 6.2903e-17)
(10.2935 -1.94249 6.32931e-17)
(11.5988 -3.60992 0)
(11.3545 -5.25338 0)
(14.2152 -4.05535 -6.27104e-17)
(14.9122 -2.19334 -1.24078e-16)
(14.8624 -2.00883 0)
(13.2408 -1.93052 0)
(13.0086 -1.95641 0)
(11.1812 -1.81448 -5.48535e-17)
(9.55953 -2.71013 5.3399e-17)
(9.40522 -4.15373 0)
(11.8775 -4.19749 1.0735e-16)
(11.2433 -2.73123 5.12036e-17)
(9.78197 -2.83506 -9.97607e-17)
(9.09363 -2.87164 0)
(8.57553 -3.18047 0)
(8.36093 -3.3103 -9.51264e-17)
(7.69641 -3.10224 -4.75777e-17)
(6.796 -2.77065 0)
(5.43116 -2.45031 0)
(3.81192 -2.20995 0)
(1.7779 -2.31072 0)
(0.562903 -2.50701 -9.13231e-17)
(-0.689935 -2.85359 0)
(-1.34218 -3.37442 0)
(-2.51413 -2.74259 0)
(-4.64526 -2.56887 0)
(-4.14728 -3.5792 0)
(-4.56003 -3.34478 0)
(-5.09257 -3.4746 -8.15934e-17)
(-4.74609 -3.68748 0)
(-5.40374 -2.62017 0)
(-6.758 -2.08757 -1.66065e-16)
(-6.71196 -2.36798 7.93677e-17)
(-7.4572 -2.52689 -8.18462e-17)
(-7.58532 -2.62942 8.57011e-17)
(0.0890508 -0.726477 0)
(0.144677 -0.0488406 -4.60888e-17)
(0.180016 0.131545 0)
(0.155747 0.0986751 -2.20975e-17)
(0.178588 -0.260105 0)
(0.360946 -1.08359 0)
(0.667018 -1.99994 2.29557e-17)
(0.960213 -2.71352 0)
(1.19949 -3.04146 0)
(1.31745 -3.06639 0)
(1.34503 -2.98855 0)
(1.34668 -2.99741 0)
(1.47963 -3.13288 -8.79361e-17)
(1.7423 -3.3971 -4.38391e-17)
(2.16672 -3.68109 4.37014e-17)
(2.64457 -3.9463 0)
(3.08321 -4.29585 0)
(3.50076 -4.62735 0)
(3.94529 -4.79379 0)
(4.41081 -4.83714 0)
(4.86805 -4.8785 -4.07345e-17)
(5.37414 -4.89385 -4.02726e-17)
(5.91703 -4.90721 3.98844e-17)
(6.52753 -4.96921 -3.95991e-17)
(7.10515 -4.95118 0)
(7.64059 -4.77165 0)
(8.25572 -4.57851 -3.8145e-17)
(8.88061 -4.34756 0)
(9.47555 -4.11165 0)
(10.1135 -3.94207 -3.70342e-17)
(10.7171 -3.59702 -3.67526e-17)
(11.3962 -3.15353 -3.65048e-17)
(11.98 -2.78454 0)
(12.5319 -2.33897 0)
(13.2108 -1.95766 3.60674e-17)
(13.6975 -1.49842 0)
(14.2767 -0.954788 0)
(14.8912 -0.489856 -3.58366e-17)
(15.2673 0.00719336 3.61042e-17)
(15.7147 0.427925 -3.60099e-17)
(16.1667 0.810776 0)
(16.4174 1.15514 0)
(16.6127 1.46307 -7.10733e-17)
(16.8477 1.8276 0)
(16.8578 2.03407 -7.05607e-17)
(16.5336 2.12164 -1.04706e-16)
(16.0986 2.16486 1.02997e-16)
(15.548 1.86882 -6.79104e-17)
(14.756 1.38421 0)
(13.9447 0.837489 0)
(13.3951 0.253844 -6.63172e-17)
(13.1779 -0.171006 -3.28289e-17)
(13.163 -0.412773 0)
(13.1787 -0.6881 0)
(13.0865 -1.30694 -3.20764e-17)
(12.9863 -2.14503 -6.3928e-17)
(12.9388 -3.07828 0)
(12.811 -3.71994 6.35022e-17)
(13.3512 -3.36026 -6.28593e-17)
(13.1856 -2.30845 6.26075e-17)
(14.1505 -2.32218 0)
(13.2886 -0.563361 0)
(12.6373 -0.29161 0)
(12.0026 -2.29015 0)
(11.274 -4.53014 0)
(9.22881 -3.10035 6.02164e-17)
(6.12192 -1.01531 0)
(5.11825 -0.554109 0)
(3.20132 0.627251 0)
(2.04713 1.4631 1.16188e-16)
(0.690032 1.80804 5.78973e-17)
(-0.128586 1.9158 5.78551e-17)
(-1.0646 1.79957 -1.15438e-16)
(-1.65067 1.62401 5.75247e-17)
(-2.41712 1.29961 -5.72722e-17)
(-2.93233 0.855816 0)
(-3.62693 0.394752 5.66305e-17)
(-4.12034 -0.121622 0)
(-4.77746 -0.617209 0)
(-5.2018 -1.10332 0)
(-5.74322 -1.55099 1.09996e-16)
(-6.0488 -2.01145 -5.4527e-17)
(-6.51028 -2.37624 -5.40461e-17)
(-6.64059 -2.76631 -1.0735e-16)
(-6.95376 -2.98908 -1.6007e-16)
(-6.93719 -3.21421 -5.30771e-17)
(-7.1497 -3.38087 0)
(-6.89187 -3.49126 -1.0465e-16)
(-7.008 -3.64089 0)
(-6.7394 -3.65159 -1.54432e-16)
(-6.78904 -3.83708 0)
(-6.48202 -4.00261 -1.51999e-16)
(-6.2344 -4.24582 0)
(-5.73565 -4.45777 0)
(-5.47297 -4.50441 -4.97608e-17)
(-5.01149 -4.66625 0)
(-4.37454 -4.86025 4.92344e-17)
(-3.65547 -5.00243 9.78677e-17)
(-2.91652 -5.03077 4.87296e-17)
(-2.18201 -4.9574 9.65909e-17)
(-1.31441 -5.05255 -9.58798e-17)
(-0.525819 -4.82218 -9.53322e-17)
(0.319703 -4.62201 1.88741e-16)
(1.24331 -4.53632 0)
(1.80185 -4.44456 0)
(2.5183 -4.50018 9.22159e-17)
(3.10858 -4.44558 -9.14479e-17)
(3.5923 -4.53682 0)
(4.29699 -4.26003 0)
(4.90384 -4.42231 8.97587e-17)
(5.4629 -4.55427 0)
(6.22402 -3.61143 -5.41341e-20)
(6.62182 -3.16444 -4.94333e-20)
(6.65375 -4.02712 8.47455e-17)
(6.85714 -4.44313 0)
(7.24073 -3.48908 -7.84211e-17)
(7.28438 -2.77899 0)
(7.32012 -3.49494 8.27846e-17)
(7.72517 -3.44616 0)
(8.06373 -2.45164 0)
(7.48192 -1.97285 -7.45531e-17)
(6.73291 -3.18527 -7.93974e-17)
(6.31766 -5.58184 0)
(6.2127 -6.76675 -8.17684e-17)
(8.12825 -6.41199 1.66537e-16)
(10.5132 -4.87157 0)
(11.8267 -3.32078 0)
(11.8904 -2.57485 0)
(11.5035 -2.55824 0)
(11.3901 -2.82281 6.22802e-17)
(11.6516 -2.63728 -1.24116e-16)
(11.2531 -2.90535 0)
(10.9274 -2.93022 0)
(10.6293 -2.67779 0)
(9.68058 -1.82106 0)
(8.91191 -0.809061 0)
(8.0515 -1.53897 0)
(8.9702 -3.56062 0)
(9.39553 -5.5258 6.94058e-17)
(9.4203 -6.04329 0)
(8.46856 -4.93679 0)
(11.6424 -3.30102 6.50756e-17)
(9.77478 -2.67823 0)
(12.2309 -3.00218 0)
(11.3888 -2.86077 -6.28471e-17)
(12.8145 -4.9391 0)
(12.2548 -7.01336 0)
(13.4204 -6.47729 1.25382e-16)
(14.8011 -3.78336 1.24004e-16)
(14.8949 -3.15666 1.21157e-16)
(13.2539 -2.87213 0)
(13.7765 -2.76 1.1212e-16)
(11.5596 -2.07556 0)