/*--------------------------------*- C++ -*----------------------------------*\
| =========                 |                                                 |
| \\      /  F ield         | OpenFOAM: The Open Source CFD Toolbox           |
|  \\    /   O peration     | Version:  dev                                   |
|   \\  /    A nd           | Web:      http://www.openfoam.org               |
|    \\/     M anipulation  |                                                 |
\*---------------------------------------------------------------------------*/
FoamFile
{
    version     2.0;
    format      ascii;
    class       volVectorField;
    object      UMean;
    location    "9.147";
}
// * * * * * * * * * * * * * * * * * * * * * * * * * * * * * * * * * * * * * //

dimensions      [0 1 -1 0 0 0 0];

internalField   nonuniform List<vector> 
12225
(
(7.00366 0.430271 0)
(4.43881 0.192552 0)
(2.55668 0.0311616 0)
(2.5108 -0.0166624 0)
(1.38436 0.0193753 0)
(2.26725 -0.0342875 0)
(0.989461 0.0489954 0)
(2.18244 -0.059183 0)
(0.797493 0.0716636 0)
(2.29158 -0.0978518 0)
(0.688841 0.0993629 0)
(2.74341 -0.13863 0)
(0.948444 0.102595 0)
(3.39687 -0.172131 0)
(3.53248 -0.168586 0)
(4.69629 0.0499499 0)
(14.8487 -2.43462 0)
(7.12052 5.1342 0)
(9.54627 0.981586 0)
(9.54344 0.86088 0)
(6.68669 0.466308 0)
(7.59034 0.214536 0)
(4.09028 0.140336 0)
(6.84302 0.0107763 0)
(2.6649 0.132694 0)
(6.68898 -0.0903678 0)
(1.82267 0.141888 0)
(7.03864 -0.165128 0)
(1.26109 0.123949 0)
(8.12095 -0.414521 0)
(1.38587 0.252408 0)
(9.95474 -1.44256 0)
(3.4361 0.2714 0)
(12.3898 -4.06877 0)
(10.4315 -1.92886 0)
(7.77651 0.486502 0)
(9.11843 0.7635 0)
(12.1669 0.951387 0)
(8.32941 0.624015 0)
(11.8322 0.443385 0)
(6.22571 0.310362 0)
(11.4131 0.206399 0)
(4.58253 0.221609 0)
(11.3149 -0.0196574 0)
(3.87448 0.193096 0)
(11.3761 -0.278028 0)
(4.3514 0.187383 0)
(11.252 -0.723209 0)
(5.72995 0.175847 0)
(11.0895 -1.49165 0)
(7.21655 0.0519696 0)
(12.1182 -3.86703 0)
(6.93298 0.349977 0)
(9.3538 -2.39029 0)
(7.21888 0.524943 0)
(13.9933 0.961032 0)
(7.9294 0.609502 0)
(14.2957 0.553829 0)
(7.47384 0.420963 0)
(14.1168 0.270949 0)
(7.17531 0.396804 0)
(13.7389 -0.145335 0)
(7.25652 0.459748 0)
(13.2702 -0.699027 0)
(7.65952 0.576895 0)
(12.8753 -1.42302 0)
(8.26774 0.69928 0)
(12.652 -2.31341 0)
(9.02555 0.0405394 0)
(11.888 -3.63661 0)
(8.68725 -1.4341 0)
(8.36345 0.682644 0)
(6.4232 0.569993 0)
(14.0121 0.565945 0)
(8.4728 0.674561 0)
(13.9591 0.284487 0)
(9.16866 0.636812 0)
(13.6445 -0.00269756 0)
(9.51642 0.658009 0)
(13.2149 -0.388909 0)
(9.59125 0.734559 0)
(12.8141 -0.871587 0)
(9.44467 0.877049 0)
(12.584 -1.52172 0)
(9.14882 1.08989 0)
(12.5723 -2.49042 0)
(8.82657 1.13139 0)
(11.618 -5.02853 0)
(8.54212 1.26505 0)
(8.72199 0.131212 0)
(7.95554 0.616776 0)
(11.804 0.152448 0)
(9.50457 0.654696 0)
(11.7402 0.0502468 0)
(10.0878 0.693899 0)
(11.6011 -0.165684 0)
(10.3201 0.725818 0)
(11.4769 -0.457571 0)
(10.2999 0.782962 0)
(11.3902 -0.853654 0)
(10.0319 0.831892 0)
(11.356 -1.4002 0)
(9.49095 0.80094 0)
(11.419 -2.13865 0)
(8.79857 0.725259 0)
(10.9989 -3.92134 0)
(7.73176 1.33511 0)
(9.48896 -0.216182 0)
(9.34361 0.812738 0)
(10.4392 -0.266032 0)
(10.1404 0.930556 0)
(10.554 -0.304622 0)
(10.3985 1.02007 0)
(10.582 -0.502994 0)
(10.52 1.0756 0)
(10.6255 -0.781269 0)
(10.5632 1.15357 0)
(10.6718 -1.15782 0)
(10.5151 1.23531 0)
(10.7 -1.63578 0)
(10.3664 1.26125 0)
(10.688 -2.32752 0)
(10.0523 1.27121 0)
(10.3757 -3.95541 0)
(8.2977 2.01999 0)
(9.69684 -0.951605 0)
(9.84882 0.701117 0)
(10.1562 -0.325998 0)
(10.4064 0.855008 0)
(10.3899 -0.349905 0)
(10.5802 0.906835 0)
(10.4706 -0.493994 0)
(10.7016 0.892951 0)
(10.552 -0.686299 0)
(10.8053 0.872694 0)
(10.6438 -0.935274 0)
(10.881 0.823831 0)
(10.7352 -1.23279 0)
(10.9082 0.671312 0)
(10.7536 -1.67281 0)
(10.7234 0.519632 0)
(10.492 -2.47477 0)
(8.89302 0.981261 0)
(9.96346 -0.484013 0)
(10.0856 0.802311 0)
(10.0199 -0.583501 0)
(10.5354 1.0215 0)
(10.3108 -0.604604 0)
(10.675 1.0751 0)
(10.4401 -0.725093 0)
(10.7775 1.04834 0)
(10.5709 -0.890201 0)
(10.8572 1.00381 0)
(10.7115 -1.11798 0)
(10.8988 0.921301 0)
(10.8319 -1.39524 0)
(10.8742 0.734973 0)
(10.8222 -1.76141 0)
(10.6025 0.505888 0)
(10.5205 -2.06971 0)
(9.34958 0.586636 0)
(10.0232 -0.391729 0)
(10.139 0.64863 0)
(10.0424 -0.511968 0)
(10.5103 0.878008 0)
(10.3335 -0.456539 0)
(10.6213 0.869245 0)
(10.482 -0.493686 0)
(10.6978 0.778288 0)
(10.629 -0.572206 0)
(10.7342 0.657932 0)
(10.7636 -0.695453 0)
(10.7179 0.495583 0)
(10.8403 -0.845164 0)
(10.6182 0.264084 0)
(10.7655 -1.03249 0)
(10.2822 0.070247 0)
(10.4793 -1.05333 0)
(9.6228 0.124208 0)
(10.2067 -0.0328749 0)
(10.141 0.700083 0)
(10.0706 -0.692048 0)
(10.4525 0.902612 0)
(10.2985 -0.6191 0)
(10.5374 0.84777 0)
(10.4302 -0.645727 0)
(10.6032 0.735421 0)
(10.5607 -0.707618 0)
(10.6272 0.586924 0)
(10.6604 -0.791516 0)
(10.6092 0.383282 0)
(10.6813 -0.869604 0)
(10.5269 0.117181 0)
(10.5709 -0.9225 0)
(10.2913 -0.113684 0)
(10.3608 -0.765439 0)
(10.0195 -0.154014 0)
(10.2454 -0.125311 0)
(10.0968 0.468034 0)
(10.1509 -0.495177 0)
(10.3536 0.595798 0)
(10.2934 -0.374702 0)
(10.4203 0.527594 0)
(10.4093 -0.354875 0)
(10.4848 0.418939 0)
(10.5239 -0.374283 0)
(10.5131 0.275779 0)
(10.5993 -0.414771 0)
(10.5157 0.0933538 0)
(10.597 -0.461782 0)
(10.4766 -0.103305 0)
(10.4995 -0.500271 0)
(10.357 -0.232126 0)
(10.3645 -0.405725 0)
(10.2658 -0.219833 0)
(10.3737 -0.110202 0)
(10.0501 0.411076 0)
(10.1755 -0.487409 0)
(10.2549 0.437298 0)
(10.2379 -0.367662 0)
(10.3088 0.367455 0)
(10.3307 -0.345726 0)
(10.3793 0.250942 0)
(10.4246 -0.355435 0)
(10.4226 0.099541 0)
(10.4823 -0.375026 0)
(10.4462 -0.0796715 0)
(10.4818 -0.40356 0)
(10.4329 -0.246687 0)
(10.4261 -0.431395 0)
(10.3772 -0.339238 0)
(10.3685 -0.392734 0)
(10.357 -0.320571 0)
(10.4222 -0.276544 0)
(10.0153 0.199661 0)
(10.1907 -0.285877 0)
(10.1932 0.167362 0)
(10.2052 -0.179367 0)
(10.2293 0.131692 0)
(10.2792 -0.171426 0)
(10.3062 0.0472593 0)
(10.3626 -0.197838 0)
(10.366 -0.0586959 0)
(10.4142 -0.235796 0)
(10.4055 -0.176027 0)
(10.4267 -0.286497 0)
(10.4123 -0.275032 0)
(10.4112 -0.331714 0)
(10.3994 -0.324166 0)
(10.4065 -0.337226 0)
(10.4108 -0.316041 0)
(10.4697 -0.30484 0)
(9.99664 0.0971518 0)
(10.1445 -0.185932 0)
(10.1463 0.0216817 0)
(10.1501 -0.133709 0)
(10.1622 -0.00861238 0)
(10.2089 -0.1462 0)
(10.241 -0.0769544 0)
(10.2919 -0.186775 0)
(10.311 -0.159407 0)
(10.3486 -0.23801 0)
(10.3575 -0.244823 0)
(10.3791 -0.298361 0)
(10.3805 -0.316328 0)
(10.3938 -0.350124 0)
(10.3958 -0.361061 0)
(10.4184 -0.38023 0)
(10.4238 -0.381082 0)
(10.4788 -0.387268 0)
(9.99366 0.0154965 0)
(10.106 -0.0858269 0)
(10.1089 -0.0443228 0)
(10.1138 -0.0932705 0)
(10.1188 -0.0748895 0)
(10.1675 -0.118958 0)
(10.198 -0.120618 0)
(10.2518 -0.16386 0)
(10.274 -0.180592 0)
(10.3153 -0.219192 0)
(10.3278 -0.243963 0)
(10.3597 -0.277858 0)
(10.3658 -0.301373 0)
(10.3939 -0.32904 0)
(10.3995 -0.347023 0)
(10.4328 -0.370829 0)
(10.4355 -0.383813 0)
(10.4883 -0.397029 0)
(9.99176 0.00475006 0)
(10.0636 -0.0251697 0)
(10.0567 -0.0349181 0)
(10.0678 -0.0664774 0)
(10.0778 -0.0757166 0)
(10.128 -0.0997763 0)
(10.1573 -0.115955 0)
(10.211 -0.144726 0)
(10.2337 -0.168998 0)
(10.2781 -0.199602 0)
(10.292 -0.226594 0)
(10.33 -0.257072 0)
(10.3384 -0.283355 0)
(10.373 -0.312092 0)
(10.3788 -0.336842 0)
(10.4152 -0.365575 0)
(10.4145 -0.388089 0)
(10.4634 -0.407506 0)
(9.99161 0.0141415 0)
(10.0467 0.0161324 0)
(10.0399 -0.0106024 0)
(10.0576 -0.0377093 0)
(10.0749 -0.0565591 0)
(10.1255 -0.0778816 0)
(10.1554 -0.0988914 0)
(10.2072 -0.123851 0)
(10.2312 -0.14902 0)
(10.2754 -0.176658 0)
(10.2912 -0.20346 0)
(10.3293 -0.232191 0)
(10.3395 -0.259399 0)
(10.3737 -0.288345 0)
(10.3801 -0.315672 0)
(10.4141 -0.345741 0)
(10.4132 -0.371598 0)
(10.4567 -0.393413 0)
(9.99172 0.0329179 0)
(10.0502 0.0496217 0)
(10.0567 0.0099129 0)
(10.0799 -0.018099 0)
(10.1007 -0.0402579 0)
(10.1507 -0.0615005 0)
(10.1819 -0.0836308 0)
(10.2316 -0.106433 0)
(10.2563 -0.130573 0)
(10.2984 -0.155539 0)
(10.315 -0.181104 0)
(10.3508 -0.207355 0)
(10.3615 -0.233588 0)
(10.3926 -0.26044 0)
(10.3991 -0.287056 0)
(10.4288 -0.31531 0)
(10.4281 -0.34104 0)
(10.4653 -0.362814 0)
(9.98992 0.040685 0)
(10.0547 0.0526283 0)
(10.0828 -0.00635709 0)
(10.1167 -0.0406865 0)
(10.142 -0.0641277 0)
(10.1904 -0.0822786 0)
(10.2224 -0.102106 0)
(10.269 -0.121021 0)
(10.2935 -0.142759 0)
(10.3321 -0.164006 0)
(10.3483 -0.187418 0)
(10.3802 -0.210105 0)
(10.3905 -0.234409 0)
(10.4174 -0.257927 0)
(10.4229 -0.282789 0)
(10.4473 -0.307821 0)
(10.4462 -0.332448 0)
(10.4768 -0.352838 0)
(9.99054 0.0315596 0)
(10.0685 0.0219815 0)
(10.1262 -0.0557705 0)
(10.177 -0.0967826 0)
(10.2126 -0.119805 0)
(10.2609 -0.132765 0)
(10.2938 -0.147799 0)
(10.3361 -0.161683 0)
(10.3601 -0.179858 0)
(10.3941 -0.196944 0)
(10.4104 -0.217385 0)
(10.4377 -0.236265 0)
(10.4479 -0.258004 0)
(10.4702 -0.278066 0)
(10.4754 -0.300741 0)
(10.4946 -0.32236 0)
(10.494 -0.345207 0)
(10.5187 -0.363483 0)
(9.99117 0.00985316 0)
(10.092 -0.0297395 0)
(10.187 -0.120863 0)
(10.2595 -0.162792 0)
(10.3093 -0.181143 0)
(10.359 -0.187174 0)
(10.3929 -0.196049 0)
(10.4305 -0.204381 0)
(10.4542 -0.218119 0)
(10.4837 -0.230754 0)
(10.5002 -0.247609 0)
(10.5233 -0.262635 0)
(10.5338 -0.281337 0)
(10.5517 -0.298019 0)
(10.5572 -0.31807 0)
(10.5719 -0.336401 0)
(10.5723 -0.356974 0)
(10.592 -0.373104 0)
(9.99282 -0.0233943 0)
(10.1275 -0.103638 0)
(10.2671 -0.204954 0)
(10.3665 -0.241618 0)
(10.432 -0.25083 0)
(10.4836 -0.248408 0)
(10.5183 -0.250914 0)
(10.5518 -0.253708 0)
(10.5754 -0.262983 0)
(10.6012 -0.271339 0)
(10.6182 -0.284665 0)
(10.6379 -0.29628 0)
(10.6487 -0.312087 0)
(10.6632 -0.325838 0)
(10.6692 -0.343365 0)
(10.6802 -0.358809 0)
(10.6814 -0.377118 0)
(10.6969 -0.391258 0)
(9.99046 -0.0716001 0)
(10.1744 -0.201182 0)
(10.3678 -0.305476 0)
(10.5001 -0.327876 0)
(10.5805 -0.322573 0)
(10.6343 -0.310199 0)
(10.6689 -0.305574 0)
(10.6997 -0.302562 0)
(10.7226 -0.306696 0)
(10.746 -0.310573 0)
(10.7624 -0.31989 0)
(10.7794 -0.328033 0)
(10.7895 -0.340562 0)
(10.8006 -0.351335 0)
(10.8055 -0.365921 0)
(10.8124 -0.378475 0)
(10.8122 -0.394029 0)
(10.8222 -0.405975 0)
(9.99201 -0.136387 0)
(10.2447 -0.323031 0)
(10.5027 -0.419027 0)
(10.6712 -0.417648 0)
(10.7627 -0.394185 0)
(10.8175 -0.371112 0)
(10.8494 -0.35894 0)
(10.8772 -0.350579 0)
(10.896 -0.350085 0)
(10.9149 -0.350479 0)
(10.9253 -0.356361 0)
(10.9355 -0.361493 0)
(10.9375 -0.370789 0)
(10.9394 -0.378648 0)
(10.934 -0.38984 0)
(10.9292 -0.39942 0)
(10.9165 -0.411337 0)
(10.9116 -0.42048 0)
(9.98973 -0.219922 0)
(10.3368 -0.468142 0)
(10.6736 -0.53975 0)
(10.8757 -0.508228 0)
(10.9697 -0.464852 0)
(11.0134 -0.428056 0)
(11.0285 -0.404799 0)
(11.0352 -0.38837 0)
(11.029 -0.3814 0)
(11.0194 -0.376949 0)
(10.998 -0.378156 0)
(10.9735 -0.379062 0)
(10.9377 -0.383779 0)
(10.9 -0.387254 0)
(10.8523 -0.393617 0)
(10.8042 -0.398937 0)
(10.7462 -0.405252 0)
(10.6945 -0.410022 0)
(9.98329 -0.332092 0)
(10.4676 -0.642335 0)
(10.8829 -0.66712 0)
(11.0724 -0.602649 0)
(11.1029 -0.537197 0)
(11.0583 -0.483122 0)
(10.9743 -0.44498 0)
(10.8731 -0.416217 0)
(10.7577 -0.398004 0)
(10.635 -0.383263 0)
(10.5035 -0.374878 0)
(10.3666 -0.366318 0)
(10.2242 -0.362432 0)
(10.0775 -0.35698 0)
(9.92869 -0.355831 0)
(9.77713 -0.353236 0)
(9.62597 -0.352934 0)
(9.47606 -0.351096 0)
(10.0025 -0.453668 0)
(10.619 -0.818964 0)
(10.9016 -0.752077 0)
(10.7933 -0.623756 0)
(10.4938 -0.512544 0)
(10.1376 -0.429196 0)
(9.77012 -0.373567 0)
(9.4176 -0.334722 0)
(9.0768 -0.307293 0)
(8.75546 -0.284607 0)
(8.44648 -0.267651 0)
(8.15339 -0.251326 0)
(7.87265 -0.240036 0)
(7.60308 -0.227333 0)
(7.34828 -0.221126 0)
(7.09876 -0.211815 0)
(6.87035 -0.210841 0)
(6.64094 -0.204162 0)
(10.0974 -0.750792 0)
(10.0459 -1.01321 0)
(9.42494 -0.801095 0)
(8.51443 -0.572186 0)
(7.65498 -0.37873 0)
(6.92883 -0.244886 0)
(6.32725 -0.167523 0)
(5.83153 -0.126253 0)
(5.40911 -0.104706 0)
(5.04852 -0.0923254 0)
(4.72843 -0.0849653 0)
(4.44771 -0.0793535 0)
(4.19132 -0.0758098 0)
(3.96243 -0.0718923 0)
(3.75074 -0.0721361 0)
(3.55558 -0.0690831 0)
(3.38338 -0.0802672 0)
(3.21849 -0.0828609 0)
(8.51678 -0.436073 0)
(6.11026 -0.380899 0)
(4.29833 -0.138059 0)
(3.12386 -0.0213931 0)
(2.48108 0.0191286 0)
(2.12046 0.0224683 0)
(1.89623 0.0137093 0)
(1.73492 0.0046113 0)
(1.5989 -0.00157299 0)
(1.47816 -0.00479385 0)
(1.36608 -0.00640674 0)
(1.26392 -0.00672023 0)
(1.16827 -0.00670771 0)
(1.08155 -0.00638976 0)
(0.999521 -0.00665819 0)
(0.919294 -0.00703391 0)
(0.8518 -0.0186121 0)
(0.731278 -0.0061393 0)
(-0.0520435 0.138009 0)
(-0.157096 0.0715187 0)
(-0.207064 0.0164339 0)
(-0.195165 -0.0444111 0)
(-0.117827 -0.0991467 0)
(0.0124483 -0.145189 0)
(0.1866 -0.175744 1.11354e-17)
(0.38846 -0.193717 -1.10604e-17)
(0.606822 -0.198122 0)
(0.829357 -0.192868 -1.09172e-17)
(1.04668 -0.178532 0)
(1.24982 -0.157768 0)
(1.43219 -0.13113 0)
(1.58854 -0.101764 1.06427e-17)
(1.7162 -0.0705006 0)
(1.81238 -0.0384096 0)
(1.87621 -0.00623352 -1.04455e-17)
(1.90841 0.0240664 0)
(1.91065 0.050564 0)
(1.88497 0.0723129 0)
(1.83508 0.0892968 1.01961e-17)
(1.76356 0.100863 0)
(1.67433 0.108755 1.00742e-17)
(1.56909 0.111675 0)
(1.45248 0.109789 0)
(1.32724 0.108142 9.8955e-18)
(1.19362 0.111442 0)
(1.05086 0.116565 -9.77917e-18)
(0.90216 0.121802 0)
(0.748114 0.126831 9.6643e-18)
(0.590271 0.130809 0)
(0.430913 0.133239 0)
(0.272309 0.134371 0)
(0.114941 0.134122 0)
(-0.0408701 0.131203 0)
(-0.193049 0.126492 -9.32962e-18)
(-0.339938 0.120357 0)
(-0.481126 0.113832 1.84405e-17)
(-0.615172 0.107316 0)
(-0.741648 0.100064 -1.82216e-17)
(-0.859088 0.0930113 0)
(-0.967658 0.0862451 0)
(-1.06781 0.0785197 1.78884e-17)
(-1.15906 0.0701892 0)
(-1.24207 0.0625122 1.76651e-17)
(-1.31692 0.0552894 -1.75531e-17)
(-1.38308 0.0482961 0)
(-1.44141 0.0422393 -1.73281e-17)
(-1.493 0.0369036 -1.72151e-17)
(-1.53682 0.0332121 0)
(-1.57304 0.031602 0)
(-1.60354 0.0315605 0)
(-1.63045 0.0316352 0)
(-1.65477 0.0315964 0)
(-1.67792 0.0324583 1.65281e-17)
(-1.70171 0.0340154 0)
(-1.72755 0.0362823 -1.62989e-17)
(-1.75418 0.0383779 0)
(-1.78042 0.0390478 0)
(-1.80623 0.0396671 1.59524e-17)
(-1.83226 0.0414237 0)
(-1.86035 0.042646 -1.57212e-17)
(-1.89042 0.0443067 0)
(-1.92224 0.0457846 0)
(-1.95533 0.0466103 0)
(-1.98913 0.0477762 1.52556e-17)
(-2.02334 0.0496314 0)
(-2.05811 0.0517582 0)
(-2.09341 0.0540287 1.49059e-17)
(-2.12958 0.0552481 0)
(-2.16378 0.0554779 1.46711e-17)
(-2.19499 0.0562281 0)
(-2.22337 0.0569141 0)
(-2.24778 0.0569769 0)
(-2.26689 0.0563634 -1.4205e-17)
(-2.28003 0.0551079 0)
(-2.28783 0.0543231 0)
(-2.29223 0.0542037 -1.38612e-17)
(-2.29365 0.0531856 -1.37477e-17)
(-2.29038 0.0514828 0)
(-2.28062 0.0491692 -1.35225e-17)
(-2.26424 0.0461878 0)
(-2.24083 0.0429723 -2.6602e-17)
(-2.2104 0.0394793 0)
(-2.17348 0.0357474 -2.61665e-17)
(-2.12993 0.0326418 0)
(-2.0808 0.0302051 2.57377e-17)
(-2.02699 0.0282189 0)
(-1.9686 0.0267767 0)
(-1.90628 0.025804 0)
(-1.84158 0.0252136 -2.49006e-17)
(-1.77424 0.0249548 0)
(-1.70589 0.0249142 2.44989e-17)
(-1.63655 0.0254983 0)
(-1.56694 0.0265359 -2.41095e-17)
(-1.49897 0.0290406 -2.3921e-17)
(-1.43182 0.0301774 -2.37367e-17)
(-1.36452 0.0312283 0)
(-1.29905 0.031341 0)
(-1.23425 0.0325437 0)
(-1.16828 0.0333218 0)
(-1.10325 0.0329406 0)
(-1.0333 0.0318499 0)
(-0.964483 0.0332082 0)
(-0.893589 0.0328614 0)
(-0.826561 0.0352214 2.22129e-17)
(-0.759271 0.0357486 2.20607e-17)
(-0.697065 0.0401459 0)
(-0.636542 0.0414216 0)
(-0.581013 0.0410905 0)
(-0.513647 0.0384775 2.14802e-17)
(-0.451545 0.0426218 0)
(-0.382693 0.0408159 0)
(-0.317915 0.0437471 0)
(-0.247208 0.0406969 0)
(-0.174438 0.043151 -2.08059e-17)
(-0.0994631 0.0446766 0)
(-0.0189427 0.0436942 0)
(0.0661723 0.0450774 2.04288e-17)
(0.154887 0.0451042 -2.03072e-17)
(0.246583 0.0444117 0)
(0.34281 0.0483273 -2.00746e-17)
(0.434171 0.051356 0)
(0.526534 0.0545977 1.98481e-17)
(0.608638 0.0593333 0)
(0.679703 0.0623627 0)
(0.754792 0.0626232 0)
(0.824217 0.0633308 0)
(0.903891 0.0604761 0)
(0.977581 0.0609735 -3.83963e-17)
(1.05336 0.0625008 -3.81773e-17)
(1.1137 0.0672583 0)
(1.1645 0.0663687 0)
(1.20942 0.0677117 0)
(1.24612 0.0636623 3.72528e-17)
(1.29399 0.0588618 0)
(1.34337 0.0571837 0)
(1.3884 0.05605 0)
(1.43695 0.0538773 3.62324e-17)
(1.47598 0.0560867 -3.59645e-17)
(1.52038 0.0527223 0)
(1.55921 0.0527651 0)
(1.60061 0.0532496 -3.51496e-17)
(1.62713 0.0582934 -3.48766e-17)
(1.65711 0.0549956 0)
(1.68617 0.0586856 0)
(1.72551 0.0557675 3.40434e-17)
(1.76205 0.066038 -3.3764e-17)
(1.77012 0.0714309 0)
(1.78364 0.0707903 0)
(1.80882 0.0711479 -3.29271e-17)
(1.84201 0.0758833 0)
(1.8553 0.0834453 0)
(1.86671 0.0891731 -3.2083e-17)
(1.86593 0.0933085 0)
(1.88012 0.0981457 -3.15229e-17)
(1.88184 0.105138 0)
(1.88743 0.109188 0)
(1.87442 0.120741 0)
(1.861 0.126581 3.04337e-17)
(1.84593 0.133093 0)
(1.81404 0.142917 0)
(1.74215 0.154549 0)
(1.66542 0.15459 0)
(1.60012 0.156903 0)
(1.51028 0.165777 0)
(1.38225 0.172539 2.88932e-17)
(1.26316 0.173878 2.87392e-17)
(1.07899 0.181809 0)
(0.872648 0.184444 0)
(0.6298 0.183482 0)
(0.413655 0.169745 -2.83218e-17)
(0.191844 0.162683 0)
(0.0398813 0.14651 5.63489e-17)
(-0.1603 0.143886 -5.6239e-17)
(-0.26315 0.123625 -5.60598e-17)
(-0.424368 0.126665 5.59559e-17)
(-0.459502 0.0965444 -5.57539e-17)
(-0.61741 0.129116 5.57338e-17)
(-0.56552 -0.00401014 0)
(0.0101356 0.24894 0)
(0.0145657 0.192169 0)
(0.0496634 0.00773671 -2.27961e-17)
(0.120993 -0.198502 0)
(0.235907 -0.384525 2.23649e-17)
(0.388224 -0.535927 2.22182e-17)
(0.569421 -0.644832 1.10438e-17)
(0.76937 -0.710825 1.09814e-17)
(0.976789 -0.7375 0)
(1.1811 -0.731287 1.08543e-17)
(1.37365 -0.695488 0)
(1.54714 -0.637207 0)
(1.69758 -0.56258 -2.13204e-17)
(1.82023 -0.47811 -1.0595e-17)
(1.91505 -0.38612 2.10559e-17)
(1.98023 -0.291494 2.09224e-17)
(2.01711 -0.199095 1.03956e-17)
(2.0258 -0.110978 0)
(2.00871 -0.0279025 0)
(1.96584 0.0468885 0)
(1.90105 0.112419 1.01366e-17)
(1.81441 0.171569 0)
(1.7106 0.224478 -3.00373e-17)
(1.58844 0.267302 0)
(1.45025 0.302269 0)
(1.29655 0.332851 -9.83185e-18)
(1.13083 0.356829 0)
(0.955817 0.374116 9.71549e-18)
(0.775354 0.385176 1.93126e-17)
(0.590327 0.392446 -9.59751e-18)
(0.403516 0.394546 0)
(0.216186 0.390753 0)
(0.0280292 0.383458 0)
(-0.160472 0.376451 1.8731e-17)
(-0.347524 0.367794 1.86165e-17)
(-0.531828 0.355449 9.25125e-18)
(-0.710652 0.340617 0)
(-0.884515 0.323486 -1.82761e-17)
(-1.04947 0.302919 0)
(-1.20779 0.281006 1.80507e-17)
(-1.35785 0.258514 0)
(-1.50129 0.235675 0)
(-1.63654 0.21523 -1.77165e-17)
(-1.76452 0.196094 0)
(-1.8877 0.178132 -5.24862e-17)
(-2.00514 0.159367 1.73856e-17)
(-2.11596 0.140471 0)
(-2.21976 0.123604 1.71654e-17)
(-2.31743 0.106018 1.70551e-17)
(-2.4077 0.0865096 0)
(-2.48877 0.0675881 0)
(-2.56274 0.0530427 0)
(-2.6315 0.0435583 0)
(-2.69698 0.0386805 0)
(-2.75863 0.0372935 -1.63736e-17)
(-2.81844 0.0368569 -3.25149e-17)
(-2.87673 0.0370431 1.61413e-17)
(-2.93068 0.03461 0)
(-2.98237 0.0308182 -3.18128e-17)
(-3.03199 0.0295783 1.57874e-17)
(-3.07886 0.0305756 0)
(-3.12669 0.0314159 1.55499e-17)
(-3.17241 0.0340409 0)
(-3.21595 0.0352975 0)
(-3.25784 0.0346335 3.03751e-17)
(-3.29864 0.0338506 -1.50672e-17)
(-3.33488 0.0316621 2.98916e-17)
(-3.36881 0.0286496 -2.96503e-17)
(-3.39721 0.0254407 -1.47046e-17)
(-3.42265 0.0213509 0)
(-3.44185 0.0140615 -1.44628e-17)
(-3.4539 0.00402005 0)
(-3.46014 -0.0066106 0)
(-3.45786 -0.0191794 0)
(-3.44632 -0.0335088 -1.39828e-17)
(-3.4265 -0.0476623 0)
(-3.4001 -0.0579636 -2.74948e-17)
(-3.36784 -0.0652567 4.08937e-17)
(-3.33015 -0.0739104 1.35161e-17)
(-3.28615 -0.0850858 0)
(-3.23418 -0.0979084 1.32877e-17)
(-3.17689 -0.110692 0)
(-3.1139 -0.122848 2.61238e-17)
(-3.04572 -0.133961 0)
(-2.97248 -0.144532 2.56808e-17)
(-2.89411 -0.153958 -5.09216e-17)
(-2.81178 -0.162887 -2.52469e-17)
(-2.72705 -0.170843 0)
(-2.63735 -0.178361 0)
(-2.54545 -0.183964 0)
(-2.45139 -0.188143 2.44065e-17)
(-2.35403 -0.192164 0)
(-2.25548 -0.194845 -2.40003e-17)
(-2.15697 -0.195213 0)
(-2.05791 -0.196787 7.08199e-17)
(-1.9589 -0.196141 2.34166e-17)
(-1.85929 -0.197147 2.32306e-17)
(-1.76177 -0.194374 0)
(-1.66666 -0.193694 0)
(-1.57096 -0.194525 0)
(-1.47287 -0.195157 0)
(-1.37573 -0.19756 0)
(-1.27304 -0.201716 4.43213e-17)
(-1.17675 -0.199742 4.39853e-17)
(-1.07715 -0.199786 0)
(-0.989887 -0.194068 -2.16751e-17)
(-0.893804 -0.1949 -2.1523e-17)
(-0.806987 -0.188113 0)
(-0.712567 -0.187018 -4.24433e-17)
(-0.634425 -0.186277 0)
(-0.538257 -0.196535 2.09375e-17)
(-0.452609 -0.190751 0)
(-0.347136 -0.199148 0)
(-0.252729 -0.195646 -4.10572e-17)
(-0.139753 -0.204434 0)
(-0.0358149 -0.204606 2.02719e-17)
(0.0893798 -0.212491 0)
(0.21563 -0.220119 0)
(0.351532 -0.224525 1.98866e-17)
(0.492119 -0.229011 1.97703e-17)
(0.637417 -0.234485 0)
(0.786719 -0.235073 -1.9533e-17)
(0.946178 -0.236266 0)
(1.10511 -0.228163 1.92963e-17)
(1.2696 -0.218557 3.83624e-17)
(1.41723 -0.212291 0)
(1.57416 -0.213704 0)
(1.7194 -0.213929 0)
(1.87918 -0.215463 0)
(2.02611 -0.210453 3.72306e-17)
(2.18048 -0.20725 1.11007e-16)
(2.31678 -0.188441 0)
(2.44073 -0.183266 0)
(2.55995 -0.172251 0)
(2.66458 -0.173966 -3.60803e-17)
(2.76659 -0.178562 0)
(2.86721 -0.17826 0)
(2.96218 -0.17682 7.06163e-17)
(3.05569 -0.177161 3.50342e-17)
(3.13143 -0.1725 3.47658e-17)
(3.21964 -0.180001 0)
(3.28395 -0.173736 0)
(3.35154 -0.175233 3.3921e-17)
(3.3991 -0.164501 -3.3615e-17)
(3.44476 -0.178593 0)
(3.47543 -0.175503 0)
(3.51005 -0.191245 -3.27219e-17)
(3.53884 -0.173239 9.7189e-17)
(3.55326 -0.168711 0)
(3.56387 -0.179657 0)
(3.57502 -0.191244 3.146e-17)
(3.59569 -0.189156 0)
(3.591 -0.182616 6.16262e-17)
(3.58911 -0.180925 -3.04719e-17)
(3.56173 -0.185281 0)
(3.55784 -0.194233 2.98458e-17)
(3.53319 -0.190533 5.90571e-17)
(3.52158 -0.192141 0)
(3.47451 -0.185271 0)
(3.45035 -0.194222 -2.85752e-17)
(3.40982 -0.186272 0)
(3.35238 -0.169358 5.589e-17)
(3.25517 -0.150008 0)
(3.16305 -0.155043 0)
(3.04383 -0.146907 0)
(2.91554 -0.121815 0)
(2.72125 -0.102602 -2.66542e-17)
(2.56218 -0.0756729 -2.64649e-17)
(2.27775 -0.0264951 0)
(2.00543 -0.0018164 0)
(1.67626 0.022877 0)
(1.38073 0.0190507 2.59599e-17)
(1.0475 0.0233505 0)
(0.840037 0.0141178 -5.16723e-17)
(0.520134 0.0327823 5.1645e-17)
(0.405812 0.00100122 5.14969e-17)
(0.124769 0.0319384 5.14877e-17)
(0.124442 -0.0156912 5.13358e-17)
(-0.17294 0.0792591 5.14992e-17)
(0.0130143 -0.116837 0)
(0.0290389 0.0712762 0)
(0.121097 -0.0381126 0)
(0.228109 -0.241395 2.29131e-17)
(0.340126 -0.468316 2.26646e-17)
(0.474487 -0.692956 -2.25131e-17)
(0.618565 -0.874986 -2.24005e-17)
(0.772828 -1.00381 -1.48121e-21)
(0.924226 -1.0743 0)
(1.06953 -1.08528 0)
(1.19652 -1.04628 0)
(1.30553 -0.966527 0)
(1.39174 -0.85728 0)
(1.45758 -0.7268 6.47138e-17)
(1.49849 -0.586616 0)
(1.51733 -0.44178 -2.13055e-17)
(1.51229 -0.295275 -2.11692e-17)
(1.48623 -0.153777 0)
(1.43774 -0.0201513 0)
(1.37143 0.103858 0)
(1.28708 0.216462 0)
(1.18702 0.315896 -2.05028e-17)
(1.07207 0.398991 0)
(0.947273 0.471397 2.02488e-17)
(0.809892 0.536544 0)
(0.6628 0.591451 0)
(0.507352 0.636427 0)
(0.348934 0.672441 3.95252e-17)
(0.186543 0.699702 0)
(0.0226686 0.719172 -1.95223e-17)
(-0.142225 0.729578 3.87999e-17)
(-0.306405 0.73273 0)
(-0.472864 0.734423 0)
(-0.639534 0.731355 0)
(-0.805044 0.721791 -1.89165e-17)
(-0.966953 0.706477 -1.87957e-17)
(-1.12567 0.684923 0)
(-1.2796 0.657566 0)
(-1.42795 0.625998 3.68589e-17)
(-1.56932 0.591898 3.66193e-17)
(-1.70891 0.557482 -3.63811e-17)
(-1.84344 0.524669 0)
(-1.97614 0.491049 0)
(-2.10316 0.458759 0)
(-2.22645 0.429272 0)
(-2.34547 0.401489 3.52004e-17)
(-2.45844 0.372153 3.49667e-17)
(-2.56625 0.342451 -3.47348e-17)
(-2.66844 0.313878 0)
(-2.76455 0.285963 0)
(-2.85534 0.256969 0)
(-2.94081 0.230161 0)
(-3.02633 0.212389 3.35755e-17)
(-3.10597 0.196541 0)
(-3.18062 0.183424 0)
(-3.24877 0.175744 3.2878e-17)
(-3.31227 0.17072 3.26464e-17)
(-3.37038 0.164016 0)
(-3.4209 0.154856 -6.43596e-17)
(-3.46948 0.148153 3.19484e-17)
(-3.51415 0.141903 -3.1714e-17)
(-3.5531 0.138171 0)
(-3.58916 0.135465 0)
(-3.61928 0.131197 0)
(-3.64442 0.126722 0)
(-3.66704 0.121375 -3.05522e-17)
(-3.6854 0.113639 -6.06456e-17)
(-3.69795 0.106073 -3.00973e-17)
(-3.70715 0.0985124 2.98724e-17)
(-3.70883 0.0870873 0)
(-3.7051 0.0739595 -5.88391e-17)
(-3.69341 0.0578678 -5.83906e-17)
(-3.67617 0.0417112 -5.79456e-17)
(-3.65469 0.0238768 5.75038e-17)
(-3.62423 0.001452 0)
(-3.58684 -0.0213874 8.49402e-17)
(-3.5435 -0.0410796 0)
(-3.49542 -0.0567204 -2.78773e-17)
(-3.4387 -0.0706947 -2.76645e-17)
(-3.37403 -0.0864268 0)
(-3.30314 -0.103357 0)
(-3.22874 -0.120183 -5.40408e-17)
(-3.15208 -0.13517 0)
(-3.0714 -0.149513 -5.3194e-17)
(-2.98811 -0.163289 0)
(-2.90023 -0.177774 5.23553e-17)
(-2.80877 -0.189252 1.03883e-16)
(-2.71357 -0.199075 0)
(-2.61746 -0.208289 0)
(-2.51832 -0.21575 0)
(-2.42045 -0.221843 5.02907e-17)
(-2.32091 -0.227666 0)
(-2.21806 -0.232325 4.94686e-17)
(-2.11246 -0.235572 0)
(-2.00639 -0.234814 0)
(-1.89798 -0.234972 -9.65046e-17)
(-1.79232 -0.232632 0)
(-1.68472 -0.232144 -4.74615e-17)
(-1.58128 -0.226181 0)
(-1.47359 -0.226846 -4.6694e-17)
(-1.36669 -0.225934 0)
(-1.25763 -0.224968 0)
(-1.14998 -0.22872 0)
(-1.03953 -0.230852 -1.35692e-16)
(-0.939415 -0.222283 -4.48692e-17)
(-0.830412 -0.218879 0)
(-0.737363 -0.208295 0)
(-0.635751 -0.209589 0)
(-0.550367 -0.197294 0)
(-0.44635 -0.193514 4.32343e-17)
(-0.360623 -0.188353 -8.58334e-17)
(-0.253875 -0.205092 -4.26314e-17)
(-0.167064 -0.19735 8.46545e-17)
(-0.0477816 -0.213478 8.40916e-17)
(0.0537181 -0.209496 4.17597e-17)
(0.183444 -0.224616 0)
(0.295834 -0.2254 8.23936e-17)
(0.43431 -0.241601 0)
(0.566012 -0.250662 -8.12827e-17)
(0.714021 -0.257367 -4.03833e-17)
(0.859951 -0.261907 0)
(1.01452 -0.270218 7.9761e-17)
(1.16349 -0.273182 3.96275e-17)
(1.32547 -0.281167 0)
(1.48396 -0.278936 3.90891e-17)
(1.65747 -0.268569 -1.16506e-16)
(1.81696 -0.256656 0)
(1.98135 -0.256109 0)
(2.13335 -0.255894 0)
(2.29369 -0.259248 0)
(2.45025 -0.2547 -7.51536e-17)
(2.60628 -0.251665 -7.46554e-17)
(2.75761 -0.220899 0)
(2.89546 -0.214551 0)
(3.02671 -0.20097 0)
(3.14834 -0.199106 0)
(3.25514 -0.204122 0)
(3.3747 -0.207549 0)
(3.48781 -0.206816 -7.0952e-17)
(3.60068 -0.206266 -1.65176e-20)
(3.69616 -0.198726 0)
(3.806 -0.209651 0)
(3.89623 -0.196947 -6.86081e-17)
(3.98841 -0.197832 0)
(4.06862 -0.177252 6.74269e-17)
(4.13784 -0.188075 6.68091e-17)
(4.18037 -0.171232 0)
(4.23498 -0.189171 0)
(4.2739 -0.164958 -6.49007e-17)
(4.32422 -0.155795 -1.28511e-16)
(4.35177 -0.160082 0)
(4.3847 -0.172127 0)
(4.42641 -0.163099 0)
(4.43939 -0.148687 -6.16912e-17)
(4.46811 -0.13576 6.10038e-17)
(4.46742 -0.135325 0)
(4.48725 -0.141451 1.19373e-16)
(4.4706 -0.129285 5.90326e-17)
(4.48754 -0.12788 -1.16772e-16)
(4.46466 -0.109203 0)
(4.46312 -0.116542 0)
(4.43251 -0.0950462 -1.12754e-16)
(4.39137 -0.0674828 -5.57208e-17)
(4.3065 -0.0380599 0)
(4.24284 -0.0361345 0)
(4.11042 -0.018368 0)
(4.00073 0.0244085 0)
(3.78907 0.0523125 -1.05596e-16)
(3.62044 0.096093 0)
(3.32223 0.166895 0)
(3.06393 0.191322 0)
(2.71483 0.219659 0)
(2.40026 0.203094 0)
(2.01114 0.186946 0)
(1.77397 0.153566 -1.00642e-16)
(1.36938 0.150538 0)
(1.24044 0.0828903 0)
(0.855839 0.105477 -1.99437e-16)
(0.850117 0.0233813 9.92591e-17)
(0.463856 0.112184 -9.94122e-17)
(0.659383 -0.127755 9.87919e-17)
(0.0206234 -0.0939919 0)
(0.125036 -0.269216 -4.69564e-17)
(0.247762 -0.489782 0)
(0.375639 -0.755237 -2.27969e-17)
(0.502247 -0.998926 0)
(0.618313 -1.18791 0)
(0.72294 -1.30574 2.24461e-17)
(0.803596 -1.34927 0)
(0.866557 -1.31963 0)
(0.905869 -1.23407 0)
(0.928064 -1.11151 0)
(0.930961 -0.96237 0)
(0.919409 -0.795273 -8.6618e-17)
(0.890722 -0.618081 -4.30262e-17)
(0.848414 -0.435219 4.27467e-17)
(0.792185 -0.254013 0)
(0.724088 -0.0811632 0)
(0.642789 0.0804136 0)
(0.551749 0.22929 0)
(0.450476 0.362764 0)
(0.341746 0.480418 -4.1151e-17)
(0.223745 0.582367 -4.08982e-17)
(0.097811 0.67317 4.0649e-17)
(-0.0339283 0.749286 -4.04013e-17)
(-0.169799 0.812179 0)
(-0.308434 0.860426 0)
(-0.448613 0.896615 -3.96579e-17)
(-0.589165 0.921464 0)
(-0.73066 0.935715 0)
(-0.872721 0.944422 -3.89246e-17)
(-1.01539 0.949964 -3.86812e-17)
(-1.15596 0.947706 -3.84367e-17)
(-1.2935 0.938642 0)
(-1.42783 0.923365 0)
(-1.5576 0.901876 3.76931e-17)
(-1.68241 0.872203 0)
(-1.80326 0.836606 0)
(-1.92052 0.797064 -3.69484e-17)
(-2.03475 0.758978 3.66969e-17)
(-2.14739 0.720796 -3.64482e-17)
(-2.25357 0.681988 0)
(-2.35809 0.642528 0)
(-2.45857 0.606074 -7.14192e-17)
(-2.55624 0.571711 0)
(-2.64855 0.533512 -7.04532e-17)
(-2.73737 0.49536 -1.04962e-16)
(-2.82254 0.459444 1.04242e-16)
(-2.90242 0.423064 -6.90142e-17)
(-2.97909 0.385749 0)
(-3.05317 0.350088 0)
(-3.12682 0.321921 -6.76019e-17)
(-3.19773 0.297479 -3.35705e-17)
(-3.2623 0.271985 0)
(-3.3227 0.250992 0)
(-3.37849 0.235725 -3.28786e-17)
(-3.42883 0.218995 -6.52973e-17)
(-3.47293 0.200206 0)
(-3.51106 0.182496 6.43792e-17)
(-3.54532 0.168324 -6.392e-17)
(-3.57425 0.154915 6.34642e-17)
(-3.59742 0.141173 0)
(-3.61452 0.128038 0)
(-3.62715 0.116808 0)
(-3.63467 0.105478 0)
(-3.63848 0.0950988 0)
(-3.63735 0.079673 6.07743e-17)
(-3.63193 0.0630099 0)
(-3.61944 0.0444253 0)
(-3.60106 0.0234212 0)
(-3.57845 0.00143317 1.18047e-16)
(-3.55025 -0.0227112 5.85911e-17)
(-3.51716 -0.046858 5.81575e-17)
(-3.47907 -0.0740683 -1.15457e-16)
(-3.43448 -0.105666 5.73035e-17)
(-3.38652 -0.135952 -5.68841e-17)
(-3.33224 -0.163723 0)
(-3.27312 -0.18998 5.60373e-17)
(-3.20402 -0.216915 0)
(-3.13077 -0.242298 0)
(-3.05184 -0.26439 0)
(-2.97146 -0.285342 1.08719e-16)
(-2.88886 -0.304729 -5.39461e-17)
(-2.803 -0.323962 -5.35329e-17)
(-2.71583 -0.343001 -1.06271e-16)
(-2.62471 -0.363097 -1.58217e-16)
(-2.53254 -0.379125 -5.23437e-17)
(-2.43558 -0.392232 0)
(-2.33888 -0.403774 -1.03071e-16)
(-2.24065 -0.411811 0)
(-2.14245 -0.417998 -1.52205e-16)
(-2.04356 -0.427878 0)
(-1.94579 -0.434256 -1.49831e-16)
(-1.84196 -0.440513 0)
(-1.73768 -0.441185 0)
(-1.62868 -0.442739 -4.87466e-17)
(-1.52118 -0.439613 0)
(-1.41036 -0.439296 4.79724e-17)
(-1.30428 -0.434766 9.51566e-17)
(-1.19031 -0.436449 4.72037e-17)
(-1.08033 -0.438119 9.36498e-17)
(-0.961827 -0.438542 -9.28928e-17)