/*--------------------------------*- C++ -*----------------------------------*\
| =========                 |                                                 |
| \\      /  F ield         | OpenFOAM: The Open Source CFD Toolbox           |
|  \\    /   O peration     | Version:  dev                                   |
|   \\  /    A nd           | Web:      http://www.openfoam.org               |
|    \\/     M anipulation  |                                                 |
\*---------------------------------------------------------------------------*/
FoamFile
{
    version     2.0;
    format      ascii;
    class       volSymmTensorField;
    object      UPrime2Mean;
    location    "9.147";
}
// * * * * * * * * * * * * * * * * * * * * * * * * * * * * * * * * * * * * * //

dimensions      [0 2 -2 0 0 0 0];

internalField   nonuniform List<symmTensor> 
12225
(
(0.329448 0.0192633 0 0.0692444 0 0)
(2.9881 0.0796698 0 0.0781646 0 0)
(7.88547 0.11226 0 0.0768687 0 0)
(14.5438 0.148153 0 0.0755451 0 0)
(22.7175 0.132895 0 0.0764923 0 0)
(32.0876 0.200974 0 0.0746487 0 0)
(42.4065 0.0958256 0 0.0765908 0 0)
(53.5569 0.200224 0 0.0738297 0 0)
(65.6579 -0.0285813 0 0.0775927 0 0)
(78.2625 0.125437 0 0.0736007 0 0)
(93.0173 -0.306366 0 0.0812948 0 0)
(107.366 -0.116086 0 0.0769756 0 0)
(127.988 -0.672276 0 0.086298 0 0)
(145.696 -1.27741 0 0.134712 0 0)
(186.042 -1.41127 0 0.116459 0 0)
(198.618 -0.390561 0 2.39495 0 0)
(272.419 -33.5516 0 5.81082 0 0)
(576.045 -52.9679 0 18.8368 0 0)
(0.377643 0.0567835 0 0.688753 0 0)
(3.15816 0.252163 0 0.732029 0 0)
(8.41627 0.362003 0 0.713898 0 0)
(15.4835 0.485218 0 0.706396 0 0)
(24.2128 0.452749 0 0.703267 0 0)
(34.4786 0.632567 0 0.683101 0 0)
(45.5527 0.295768 0 0.691904 0 0)
(58.5166 0.608698 0 0.658581 0 0)
(71.5146 -0.135463 0 0.682447 0 0)
(87.1997 0.28216 0 0.645794 0 0)
(102.842 -1.06543 0 0.711119 0 0)
(121.497 -0.766739 0 0.655348 0 0)
(142.932 -2.54309 0 1.06898 0 0)
(166.406 -4.49188 0 1.0468 0 0)
(199.883 -0.925122 0 3.10411 0 0)
(274.535 -9.97651 0 6.61041 0 0)
(281.158 -20.8468 0 8.73915 0 0)
(800.263 -185.267 0 64.7294 0 0)
(0.505223 0.0583405 0 2.1399 0 0)
(3.06588 0.424501 0 2.20179 0 0)
(8.47107 0.570349 0 2.15074 0 0)
(14.862 0.851633 0 2.14223 0 0)
(24.2903 0.864186 0 2.11915 0 0)
(33.1712 1.05272 0 2.08195 0 0)
(45.2972 0.755846 0 2.07773 0 0)
(56.2365 0.885857 0 2.00696 0 0)
(69.726 0.171771 0 2.05114 0 0)
(83.499 0.0161498 0 1.95879 0 0)
(98.2439 -1.12398 0 2.12207 0 0)
(115.735 -2.44992 0 2.09416 0 0)
(138.703 -3.59742 0 2.62225 0 0)
(154.969 -7.20148 0 2.83171 0 0)
(211.144 -13.016 0 6.12538 0 0)
(223.533 -7.88566 0 6.37977 0 0)
(353.269 -62.2965 0 31.0926 0 0)
(534.875 -192.639 0 98.3043 0 0)
(1.03002 0.0923058 0 4.669 0 0)
(3.55142 0.619308 0 4.76552 0 0)
(9.07407 0.815575 0 4.64137 0 0)
(15.0756 1.14959 0 4.60063 0 0)
(24.6511 1.31245 0 4.55639 0 0)
(33.0041 1.34936 0 4.48207 0 0)
(45.0323 1.26076 0 4.44713 0 0)
(55.2021 0.972766 0 4.34863 0 0)
(68.6417 0.474971 0 4.38047 0 0)
(80.7639 -0.283823 0 4.25683 0 0)
(96.0933 -1.33238 0 4.50634 0 0)
(110.584 -3.34413 0 4.37152 0 0)
(131.553 -4.79625 0 5.30181 0 0)
(152.355 -10.9782 0 5.60887 0 0)
(187.972 -11.4319 0 9.28904 0 0)
(238.586 -28.8787 0 16.835 0 0)
(291.684 -58.9685 0 32.6902 0 0)
(415.029 -178.377 0 107.848 0 0)
(1.86358 0.36496 0 8.52006 0 0)
(5.01088 0.720133 0 8.72154 0 0)
(9.44165 1.13973 0 8.47042 0 0)
(16.2509 1.29421 0 8.36735 0 0)
(24.6646 1.70028 0 8.27776 0 0)
(33.9669 1.50184 0 8.14273 0 0)
(44.8487 1.59696 0 8.04211 0 0)
(55.5568 0.99198 0 7.91011 0 0)
(68.4581 0.598932 0 7.85716 0 0)
(80.1712 -0.595592 0 7.75945 0 0)
(95.4306 -1.78148 0 7.96135 0 0)
(108.624 -4.23105 0 7.90886 0 0)
(128.176 -6.88483 0 9.02645 0 0)
(145.313 -12.2941 0 9.26884 0 0)
(174.068 -19.2102 0 14.5924 0 0)
(218.04 -25.9699 0 17.2183 0 0)
(233.8 -55.6137 0 46.2755 0 0)
(326.845 -171.817 0 138.699 0 0)
(2.56343 0.750673 0 14.0356 0 0)
(6.32934 0.807103 0 14.3874 0 0)
(9.30689 1.5397 0 13.9576 0 0)
(17.1079 1.59401 0 13.763 0 0)
(24.1572 2.12004 0 13.5883 0 0)
(34.2884 1.93575 0 13.3564 0 0)
(44.005 1.99001 0 13.1514 0 0)
(55.2067 1.41381 0 12.9107 0 0)
(67.3728 0.892574 0 12.7743 0 0)
(78.9602 -0.388688 0 12.5735 0 0)
(94.4889 -1.74152 0 12.7744 0 0)
(105.897 -4.31645 0 12.6832 0 0)
(128.2 -7.27188 0 13.9865 0 0)
(138.023 -13.1633 0 14.6671 0 0)
(171.085 -21.8457 0 21.2534 0 0)
(191.612 -33.0556 0 24.6091 0 0)
(211.167 -55.9347 0 51.591 0 0)
(265.865 -145.742 0 130.686 0 0)
(2.24718 0.722021 0 21.5258 0 0)
(5.54925 0.941225 0 22.1418 0 0)
(9.20754 1.76344 0 21.3676 0 0)
(16.3525 2.07693 0 21.18 0 0)
(23.9907 2.44905 0 20.7814 0 0)
(33.3881 2.54164 0 20.5483 0 0)
(43.6429 2.2726 0 20.0802 0 0)
(54.0877 1.92619 0 19.8504 0 0)
(66.5334 0.894176 0 19.4328 0 0)
(77.4159 -0.2216 0 19.28 0 0)
(92.5842 -2.37608 0 19.2207 0 0)
(103.57 -4.82793 0 19.2634 0 0)
(123.731 -8.98764 0 20.4743 0 0)
(134.014 -14.2687 0 21.453 0 0)
(161.657 -24.4143 0 28.5209 0 0)
(169.498 -32.4235 0 32.0562 0 0)
(203.506 -59.0355 0 56.8885 0 0)
(190.404 -108.85 0 114.198 0 0)
(1.42646 0.598944 0 29.7452 0 0)
(4.32623 1.13469 0 30.6306 0 0)
(8.58997 1.92364 0 29.4835 0 0)
(15.2629 2.47194 0 29.3124 0 0)
(23.2238 2.77623 0 28.6672 0 0)
(32.2887 2.96184 0 28.4063 0 0)
(42.4497 2.59605 0 27.6548 0 0)
(52.8268 2.18845 0 27.3744 0 0)
(64.4735 1.00374 0 26.6509 0 0)
(75.6673 -0.367862 0 26.486 0 0)
(88.7082 -2.75759 0 26.103 0 0)
(100.499 -5.74238 0 26.328 0 0)
(115.627 -10.3303 0 27.0851 0 0)
(128.163 -15.8104 0 28.6006 0 0)
(144.765 -26.5061 0 33.9183 0 0)
(152.129 -33.4755 0 37.4827 0 0)
(180.463 -54.9252 0 53.2044 0 0)
(139.68 -71.3492 0 83.7235 0 0)
(1.00878 0.521459 0 38.5135 0 0)
(3.78153 1.28772 0 39.7077 0 0)
(8.18603 2.03529 0 38.1705 0 0)
(14.7379 2.77883 0 38.0295 0 0)
(22.6686 3.00431 0 37.1198 0 0)
(31.6077 3.31377 0 36.8448 0 0)
(41.5329 2.80205 0 35.794 0 0)
(51.809 2.46964 0 35.4756 0 0)
(62.872 1.0336 0 34.4672 0 0)
(73.8922 -0.287131 0 34.2674 0 0)
(85.717 -3.05348 0 33.6371 0 0)
(97.081 -5.91254 0 33.897 0 0)
(109.416 -10.9599 0 34.4071 0 0)
(121.295 -16.0525 0 36.127 0 0)
(131.31 -25.5795 0 40.0127 0 0)
(138.235 -33.226 0 44.7423 0 0)
(150.092 -47.3469 0 52.4756 0 0)
(123.279 -58.7793 0 73.1407 0 0)
(0.612682 0.48453 0 49.6964 0 0)
(3.23799 1.44559 0 51.2843 0 0)
(7.74634 2.18578 0 49.1883 0 0)
(14.2069 3.03465 0 49.101 0 0)
(22.0051 3.27143 0 47.8119 0 0)
(30.8674 3.57643 0 47.5327 0 0)
(40.4969 3.06116 0 46.0717 0 0)
(50.6365 2.63174 0 45.7033 0 0)
(61.1657 1.1555 0 44.2842 0 0)
(71.8388 -0.30106 0 44.0409 0 0)
(82.7257 -3.15193 0 42.9972 0 0)
(93.2732 -6.05029 0 43.3166 0 0)
(103.919 -11.1077 0 43.3179 0 0)
(113.787 -15.8612 0 45.175 0 0)
(121.401 -24.5246 0 47.6805 0 0)
(125.841 -30.5905 0 51.951 0 0)
(129.178 -40.7412 0 56.4746 0 0)
(116.071 -48.4148 0 69.0421 0 0)
(0.434391 0.516069 0 63.8863 0 0)
(2.98059 1.62682 0 65.9408 0 0)
(7.47347 2.38238 0 63.2498 0 0)
(13.8527 3.3085 0 63.1379 0 0)
(21.5023 3.56699 0 61.5044 0 0)
(30.2042 3.85556 0 61.09 0 0)
(39.5669 3.35136 0 59.2825 0 0)
(49.4093 2.8121 0 58.6878 0 0)
(59.4833 1.36133 0 56.9676 0 0)
(69.5904 -0.277509 0 56.45 0 0)
(79.6898 -2.99411 0 55.1481 0 0)
(89.2283 -6.09599 0 55.2044 0 0)
(98.5495 -10.5699 0 54.8593 0 0)
(106.429 -15.4346 0 56.4076 0 0)
(112.597 -22.1523 0 57.853 0 0)
(115.131 -28.0693 0 61.5833 0 0)
(116.076 -35.2181 0 64.5503 0 0)
(109.622 -40.8191 0 71.4514 0 0)
(0.356513 0.54034 0 81.3741 0 0)
(2.83279 1.74399 0 84.0586 0 0)
(7.26503 2.55329 0 80.5918 0 0)
(13.5221 3.49891 0 80.4825 0 0)
(20.9981 3.80547 0 78.3965 0 0)
(29.4798 4.03206 0 77.8435 0 0)
(38.5402 3.5545 0 75.5548 0 0)
(48.0129 2.91159 0 74.7305 0 0)
(57.5692 1.47156 0 72.5389 0 0)
(67.0649 -0.234142 0 71.7523 0 0)
(76.2806 -2.88563 0 69.9975 0 0)
(84.869 -5.87233 0 69.7389 0 0)
(92.7777 -9.97855 0 68.9043 0 0)
(99.2086 -14.3086 0 69.8587 0 0)
(103.924 -19.7573 0 70.5023 0 0)
(105.869 -24.6718 0 73.0076 0 0)
(106.024 -29.8389 0 74.9506 0 0)
(101.777 -33.3245 0 78.6087 0 0)
(0.329399 0.568743 0 102.446 0 0)
(2.73727 1.80553 0 105.654 0 0)
(7.07176 2.68097 0 101.629 0 0)
(13.1605 3.58025 0 101.16 0 0)
(20.4411 3.92917 0 98.8964 0 0)
(28.6276 4.04912 0 97.8169 0 0)
(37.3632 3.60813 0 95.3029 0 0)
(46.3658 2.82508 0 93.8538 0 0)
(55.3966 1.46403 0 91.418 0 0)
(64.1795 -0.35409 0 89.9673 0 0)
(72.5605 -2.77333 0 87.9413 0 0)
(80.1522 -5.70563 0 86.9677 0 0)
(86.8753 -9.21721 0 85.7566 0 0)
(92.1374 -13.1076 0 85.7646 0 0)
(95.8402 -17.3271 0 85.7154 0 0)
(97.4252 -21.395 0 86.858 0 0)
(97.5278 -25.2407 0 87.886 0 0)
(94.7228 -27.6967 0 89.492 0 0)
(0.313783 0.572914 0 126.433 0 0)
(2.64185 1.77257 0 130.361 0 0)
(6.85081 2.66512 0 125.653 0 0)
(12.7361 3.4597 0 124.843 0 0)
(19.7744 3.7866 0 122.312 0 0)
(27.6269 3.79971 0 120.736 0 0)
(35.9703 3.32529 0 117.853 0 0)
(44.4818 2.47748 0 115.82 0 0)
(52.9206 1.12168 0 112.96 0 0)
(61.0161 -0.642565 0 110.87 0 0)
(68.5667 -2.91163 0 108.38 0 0)
(75.2917 -5.54461 0 106.654 0 0)
(81.031 -8.60101 0 104.886 0 0)
(85.4813 -11.8256 0 103.883 0 0)
(88.5275 -15.1896 0 103.052 0 0)
(89.9655 -18.3582 0 102.878 0 0)
(90.2679 -21.2781 0 102.892 0 0)
(88.3045 -22.9257 0 103.045 0 0)
(0.299385 0.524416 0 151.842 0 0)
(2.53386 1.58019 0 156.342 0 0)
(6.58651 2.37492 0 151.214 0 0)
(12.238 2.98421 0 149.775 0 0)
(18.981 3.20692 0 147.217 0 0)
(26.4618 3.06418 0 144.904 0 0)
(34.3642 2.52302 0 141.816 0 0)
(42.3554 1.59022 0 139.01 0 0)
(50.1941 0.260128 0 135.811 0 0)
(57.6151 -1.4455 0 132.935 0 0)
(64.4297 -3.50809 0 129.984 0 0)
(70.41 -5.84655 0 127.412 0 0)
(75.4253 -8.42434 0 125.009 0 0)
(79.3131 -11.0773 0 123.008 0 0)
(82.012 -13.7162 0 121.294 0 0)
(83.4303 -16.1817 0 119.955 0 0)
(84.0129 -18.3809 0 118.867 0 0)
(82.8056 -19.4278 0 117.756 0 0)
(0.284093 0.3937 0 175.058 0 0)
(2.41539 1.14397 0 180.256 0 0)
(6.28614 1.66801 0 174.649 0 0)
(11.676 1.99945 0 172.767 0 0)
(18.0851 1.99591 0 170.085 0 0)
(25.1673 1.65842 0 167.235 0 0)
(32.6016 0.977157 0 163.848 0 0)
(40.0724 -0.0324186 0 160.452 0 0)
(47.3323 -1.36741 0 156.835 0 0)
(54.1479 -2.97994 0 153.322 0 0)
(60.3412 -4.8489 0 149.835 0 0)
(65.7479 -6.88036 0 146.544 0 0)
(70.2632 -9.03526 0 143.447 0 0)
(73.8138 -11.1838 0 140.593 0 0)
(76.3702 -13.2483 0 138.002 0 0)
(77.8968 -15.1484 0 135.677 0 0)
(78.779 -16.7964 0 133.566 0 0)
(78.2304 -17.3948 0 131.368 0 0)
(0.268867 0.155965 0 190.165 0 0)
(2.29448 0.389764 0 195.836 0 0)
(5.9695 0.486904 0 189.942 0 0)
(11.0801 0.407656 0 187.8 0 0)
(17.1389 0.070354 0 185.054 0 0)
(23.8132 -0.53866 0 181.884 0 0)
(30.7856 -1.40846 0 178.305 0 0)
(37.7605 -2.53133 0 174.552 0 0)
(44.5018 -3.88162 0 170.641 0 0)
(50.8032 -5.4222 0 166.723 0 0)
(56.5116 -7.1096 0 162.831 0 0)
(61.5055 -8.8787 0 159.052 0 0)
(65.7093 -10.675 0 155.416 0 0)
(69.0936 -12.4206 0 151.955 0 0)
(71.6513 -14.0394 0 148.69 0 0)
(73.3713 -15.5099 0 145.646 0 0)
(74.5665 -16.7464 0 142.754 0 0)
(74.6113 -17.068 0 139.76 0 0)
(0.259218 -0.14281 0 190.137 0 0)
(2.19693 -0.535299 0 195.767 0 0)
(5.69276 -0.939442 0 189.936 0 0)
(10.5471 -1.49532 0 187.785 0 0)
(16.2901 -2.21642 0 185.082 0 0)
(22.604 -3.11947 0 181.918 0 0)
(29.1808 -4.19363 0 178.364 0 0)
(35.7474 -5.43313 0 174.615 0 0)
(42.0813 -6.80751 0 170.69 0 0)
(48.0047 -8.28814 0 166.739 0 0)
(53.3814 -9.82824 0 162.765 0 0)
(58.123 -11.3853 0 158.88 0 0)
(62.1685 -12.9064 0 155.068 0 0)
(65.5117 -14.3483 0 151.405 0 0)
(68.1515 -15.6455 0 147.864 0 0)
(70.0931 -16.8054 0 144.526 0 0)
(71.5701 -17.7523 0 141.278 0 0)
(72.1045 -17.9575 0 137.949 0 0)
(0.256049 -0.396575 0 174.324 0 0)
(2.13773 -1.30703 0 179.274 0 0)
(5.50193 -2.12903 0 173.946 0 0)
(10.1663 -3.078 0 171.953 0 0)
(15.6757 -4.10696 0 169.472 0 0)
(21.7254 -5.23664 0 166.583 0 0)
(28.0181 -6.45996 0 163.332 0 0)
(34.299 -7.7738 0 159.909 0 0)
(40.3581 -9.14971 0 156.304 0 0)
(46.0387 -10.5678 0 152.676 0 0)
(51.2155 -11.986 0 148.993 0 0)
(55.8202 -13.378 0 145.387 0 0)
(59.7994 -14.6987 0 141.805 0 0)
(63.1572 -15.925 0 138.354 0 0)
(65.8916 -17.0054 0 134.971 0 0)
(68.0202 -17.9551 0 131.77 0 0)
(69.7118 -18.7128 0 128.616 0 0)
(70.6095 -18.9007 0 125.417 0 0)
(0.25749 -0.545608 0 148.896 0 0)
(2.1099 -1.74786 0 152.853 0 0)
(5.38742 -2.82367 0 148.318 0 0)
(9.92409 -4.00739 0 146.601 0 0)
(15.2768 -5.21141 0 144.48 0 0)
(21.1495 -6.46072 0 142.027 0 0)
(27.2543 -7.74732 0 139.263 0 0)
(33.3492 -9.07303 0 136.359 0 0)
(39.2342 -10.4105 0 133.288 0 0)
(44.7657 -11.7498 0 130.196 0 0)
(49.8281 -13.0526 0 127.041 0 0)
(54.3623 -14.3057 0 123.947 0 0)
(58.322 -15.4699 0 120.853 0 0)
(61.7128 -16.5361 0 117.865 0 0)
(64.5337 -17.4607 0 114.917 0 0)
(66.807 -18.2628 0 112.12 0 0)
(68.6577 -18.8918 0 109.348 0 0)
(69.8185 -19.1014 0 106.558 0 0)
(0.26035 -0.601325 0 120.003 0 0)
(2.10095 -1.88989 0 122.971 0 0)
(5.32133 -3.06803 0 119.324 0 0)
(9.77258 -4.34117 0 117.931 0 0)
(15.0203 -5.59961 0 116.225 0 0)
(20.7754 -6.86947 0 114.261 0 0)
(26.7564 -8.14048 0 112.049 0 0)
(32.7305 -9.41795 0 109.722 0 0)
(38.5051 -10.6765 0 107.259 0 0)
(43.9449 -11.9131 0 104.775 0 0)
(48.9421 -13.0939 0 102.234 0 0)
(53.4424 -14.2143 0 99.7361 0 0)
(57.4043 -15.24 0 97.232 0 0)
(60.8326 -16.1709 0 94.8072 0 0)
(63.7276 -16.97 0 92.4095 0 0)
(66.1142 -17.6568 0 90.1266 0 0)
(68.0871 -18.1904 0 87.8623 0 0)
(69.4467 -18.4261 0 85.5877 0 0)
(0.263303 -0.59054 0 91.8612 0 0)
(2.1006 -1.83006 0 93.9757 0 0)
(5.28353 -2.99681 0 91.1855 0 0)
(9.67787 -4.24726 0 90.1122 0 0)
(14.8551 -5.4676 0 88.8131 0 0)
(20.5315 -6.68026 0 87.3187 0 0)
(26.4307 -7.87477 0 85.6384 0 0)
(32.3259 -9.05612 0 83.8668 0 0)
(38.0304 -10.2036 0 81.9915 0 0)
(43.4138 -11.3159 0 80.0948 0 0)
(48.3746 -12.3661 0 78.1544 0 0)
(52.8603 -13.3525 0 76.2403 0 0)
(56.8335 -14.2478 0 74.3226 0 0)
(60.2972 -15.0543 0 72.4597 0 0)
(63.2531 -15.744 0 70.6188 0 0)
(65.7284 -16.3319 0 68.8592 0 0)
(67.7957 -16.7887 0 67.1169 0 0)
(69.3082 -17.0382 0 65.3643 0 0)
(0.266373 -0.53672 0 66.9152 0 0)
(2.10443 -1.65086 0 68.355 0 0)
(5.26219 -2.73069 0 66.3238 0 0)
(9.61877 -3.88354 0 65.5411 0 0)
(14.7487 -5.00312 0 64.6031 0 0)
(20.3727 -6.10532 0 63.5215 0 0)
(26.2183 -7.18208 0 62.3075 0 0)
(32.0624 -8.23529 0 61.0221 0 0)
(37.7229 -9.25014 0 59.6634 0 0)
(43.0728 -10.2241 0 58.2839 0 0)
(48.0145 -11.1381 0 56.8752 0 0)
(52.4972 -11.9895 0 55.4809 0 0)
(56.4853 -12.759 0 54.0872 0 0)
(59.9811 -13.4482 0 52.7287 0 0)
(62.9871 -14.0376 0 51.389 0 0)
(65.5314 -14.5365 0 50.1034 0 0)
(67.6712 -14.9265 0 48.834 0 0)
(69.3015 -15.1743 0 47.5532 0 0)
(0.268215 -0.462856 0 46.2768 0 0)
(2.10884 -1.41592 0 47.2152 0 0)
(5.25033 -2.36376 0 45.8149 0 0)
(9.58194 -3.37507 0 45.2769 0 0)
(14.6802 -4.35615 0 44.6358 0 0)
(20.2696 -5.31642 0 43.8922 0 0)
(26.0806 -6.25087 0 43.0583 0 0)
(31.8923 -7.15775 0 42.1712 0 0)
(37.526 -8.02815 0 41.2359 0 0)
(42.8566 -8.85735 0 40.2829 0 0)
(47.7891 -9.63312 0 39.3131 0 0)
(52.2737 -10.3514 0 38.3507 0 0)
(56.2764 -11 0 37.3914 0 0)
(59.7981 -11.5781 0 36.4535 0 0)
(62.8421 -12.0737 0 35.5305 0 0)
(65.4373 -12.4905 0 34.6416 0 0)
(67.6291 -12.8185 0 33.7669 0 0)
(69.3454 -13.0489 0 32.881 0 0)
(0.269387 -0.383063 0 30.1497 0 0)
(2.11238 -1.16468 0 30.7338 0 0)
(5.24358 -1.95832 0 29.8238 0 0)
(9.55845 -2.8073 0 29.4767 0 0)
(14.6354 -3.63097 0 29.0647 0 0)
(20.2015 -4.43552 0 28.5842 0 0)
(25.9894 -5.21719 0 28.0451 0 0)
(31.7791 -5.97295 0 27.4695 0 0)
(37.3939 -6.69628 0 26.8636 0 0)
(42.7099 -7.38243 0 26.2453 0 0)
(47.6341 -8.02285 0 25.6175 0 0)
(52.1161 -8.61339 0 24.9932 0 0)
(56.1241 -9.14609 0 24.3723 0 0)
(59.658 -9.61906 0 23.7638 0 0)
(62.7217 -10.0247 0 23.1658 0 0)
(65.3427 -10.3635 0 22.5882 0 0)
(67.5615 -10.6306 0 22.0214 0 0)
(69.3308 -10.8283 0 21.4459 0 0)
(0.269712 -0.304591 0 18.2066 0 0)
(2.11415 -0.919812 0 18.5506 0 0)
(5.23821 -1.55413 0 18.0001 0 0)
(9.53903 -2.23704 0 17.7941 0 0)
(14.5969 -2.9012 0 17.5511 0 0)
(20.141 -3.55122 0 17.2666 0 0)
(25.9045 -4.18234 0 16.9465 0 0)
(31.6685 -4.79125 0 16.6036 0 0)
(37.2577 -5.37139 0 16.2419 0 0)
(42.5484 -5.91929 0 15.872 0 0)
(47.45 -6.42766 0 15.4954 0 0)
(51.911 -6.89414 0 15.1204 0 0)
(55.9032 -7.31192 0 14.747 0 0)
(59.4243 -7.6807 0 14.3803 0 0)
(62.4828 -7.99468 0 14.0199 0 0)
(65.101 -8.25444 0 13.671 0 0)
(67.3229 -8.45915 0 13.3291 0 0)
(69.1197 -8.60957 0 12.9824 0 0)
(0.269356 -0.228263 0 9.87932 0 0)
(2.11188 -0.69127 0 10.0628 0 0)
(5.22098 -1.17866 0 9.76567 0 0)
(9.49553 -1.70837 0 9.66332 0 0)
(14.5232 -2.22278 0 9.53894 0 0)
(20.0338 -2.72321 0 9.38977 0 0)
(25.7603 -3.20531 0 9.21913 0 0)
(31.4864 -3.66662 0 9.03495 0 0)
(37.0364 -4.10137 0 8.83924 0 0)
(42.29 -4.50801 0 8.63829 0 0)
(47.1555 -4.88094 0 8.43269 0 0)
(51.5864 -5.22031 0 8.2276 0 0)
(55.5533 -5.52033 0 8.02249 0 0)
(59.0581 -5.78321 0 7.82128 0 0)
(62.1083 -6.00282 0 7.62305 0 0)
(64.7255 -6.18272 0 7.43179 0 0)
(66.9511 -6.32587 0 7.24507 0 0)
(68.7812 -6.42794 0 7.05691 0 0)
(0.268207 -0.154796 0 4.48471 0 0)
(2.08501 -0.497851 0 4.5803 0 0)
(5.15967 -0.852315 0 4.45515 0 0)
(9.39467 -1.22866 0 4.41952 0 0)
(14.3967 -1.58568 0 4.36845 0 0)
(19.8818 -1.92799 0 4.30404 0 0)
(25.5818 -2.25295 0 4.22674 0 0)
(31.2818 -2.5583 0 4.14027 0 0)
(36.8088 -2.84245 0 4.04726 0 0)
(42.0416 -3.10657 0 3.95146 0 0)
(46.8904 -3.34776 0 3.85367 0 0)
(51.3119 -3.56686 0 3.75661 0 0)
(55.273 -3.76013 0 3.65974 0 0)
(58.7837 -3.92964 0 3.56578 0 0)
(61.8404 -4.06926 0 3.47314 0 0)
(64.4765 -4.18431 0 3.3857 0 0)
(66.6992 -4.27481 0 3.30047 0 0)
(68.5575 -4.34487 0 3.21629 0 0)
(0.255309 -0.0881836 0 1.42057 0 0)
(2.06904 -0.313414 0 1.48628 0 0)
(5.20816 -0.525924 0 1.44624 0 0)
(9.50166 -0.734266 0 1.43309 0 0)
(14.5571 -0.924338 0 1.41298 0 0)
(20.0936 -1.10694 0 1.38972 0 0)
(25.8498 -1.28358 0 1.36308 0 0)
(31.6091 -1.45169 0 1.33376 0 0)
(37.1975 -1.60962 0 1.30278 0 0)
(42.4894 -1.7572 0 1.27118 0 0)
(47.3979 -1.89292 0 1.23937 0 0)
(51.8718 -2.01681 0 1.20796 0 0)
(55.8827 -2.12684 0 1.17692 0 0)
(59.4333 -2.22365 0 1.14696 0 0)
(62.5234 -2.30318 0 1.11771 0 0)
(65.191 -2.36939 0 1.09123 0 0)
(67.4136 -2.422 0 1.06602 0 0)
(69.2639 -2.46148 0 1.03907 0 0)
(0.245988 -0.025325 0 0.141801 0 0)
(2.06686 -0.0978104 0 0.15358 0 0)
(5.18703 -0.165533 0 0.150795 0 0)
(9.44966 -0.230763 0 0.149626 0 0)
(14.4864 -0.29365 0 0.147324 0 0)
(20.0101 -0.353972 0 0.144596 0 0)
(25.7598 -0.412786 0 0.141598 0 0)
(31.5166 -0.469277 0 0.138468 0 0)
(37.1122 -0.522616 0 0.135246 0 0)
(42.422 -0.572615 0 0.131995 0 0)
(47.3608 -0.618971 0 0.128738 0 0)
(51.8756 -0.661653 0 0.125536 0 0)
(55.94 -0.700091 0 0.122394 0 0)
(59.5491 -0.73414 0 0.119371 0 0)
(62.7095 -0.763065 0 0.116546 0 0)
(65.4539 -0.78831 0 0.11421 0 0)
(67.7667 -0.806527 0 0.112137 0 0)
(69.6947 -0.815816 0 0.111752 0 0)
(0.0244806 0.0357599 0 0.717215 0 0)
(0.26724 0.0990973 0 0.678288 0 0)
(0.785395 0.180901 0 0.671126 0 0)
(1.53878 0.294923 0 0.661915 0 0)
(2.4857 0.423887 0 0.660317 0 0)
(3.60796 0.568638 0 0.657044 0 0)
(4.88361 0.715652 -2.38346e-19 0.65507 -6.48264e-20 1.47776e-37)
(6.30975 0.866532 2.42346e-19 0.650752 6.91239e-20 1.48227e-37)
(7.87969 1.01347 0 0.644735 0 0)
(9.59143 1.16087 2.44755e-19 0.63716 6.85414e-20 1.46011e-37)
(11.4398 1.30487 0 0.628582 0 0)
(13.4189 1.4477 0 0.619496 0 0)
(15.5221 1.58475 0 0.611551 0 0)
(17.7431 1.71637 -2.77233e-19 0.605092 -5.16722e-20 1.34666e-37)
(20.0759 1.8394 0 0.598887 0 0)
(22.5209 1.95292 0 0.593667 0 0)
(25.0784 2.05273 3.40337e-19 0.589379 3.903e-20 1.22023e-37)
(27.7468 2.14049 0 0.584931 0 0)
(30.5214 2.21888 0 0.580269 0 0)
(33.3961 2.29013 0 0.575829 0 0)
(36.3553 2.35328 -4.56163e-19 0.572497 -1.95806e-20 1.01731e-37)
(39.3893 2.40907 0 0.56874 0 0)
(42.4841 2.45559 -5.15909e-19 0.566477 -1.03027e-20 9.24784e-38)
(45.6307 2.4927 0 0.567677 0 0)
(48.8127 2.52656 0 0.568442 0 0)
(52.016 2.54978 -6.04068e-19 0.570623 1.2235e-21 7.97317e-38)
(55.2337 2.55212 0 0.572463 0 0)
(58.47 2.53485 6.57719e-19 0.570937 -6.94742e-21 7.21281e-38)
(61.7188 2.50397 0 0.56307 0 0)
(64.986 2.46133 -7.02482e-19 0.552665 1.04977e-20 6.53675e-38)
(68.27 2.40951 0 0.5391 0 0)
(71.5584 2.35099 0 0.52328 0 0)
(74.8435 2.28564 0 0.509252 0 0)
(78.127 2.20967 0 0.497879 0 0)
(81.4027 2.12251 0 0.486331 0 0)
(84.6673 2.02705 7.79556e-19 0.475428 -1.40032e-20 4.59758e-38)
(87.9197 1.92314 0 0.463807 0 0)
(91.161 1.81067 -1.56229e-18 0.447785 2.7154e-20 1.61325e-37)
(94.3896 1.69121 0 0.432209 0 0)
(97.6008 1.56364 1.55231e-18 0.41757 -2.61743e-20 1.3994e-37)
(100.788 1.43052 0 0.402411 0 0)
(103.949 1.28828 0 0.390741 0 0)
(107.076 1.13787 -1.51448e-18 0.378178 2.15863e-20 1.1126e-37)
(110.151 0.985218 0 0.36536 0 0)
(113.159 0.830549 -1.47607e-18 0.354545 1.82898e-20 9.43298e-38)
(116.085 0.672676 1.45364e-18 0.345673 -1.65548e-20 8.6637e-38)
(118.913 0.508958 0 0.339536 0 0)
(121.635 0.339001 1.40284e-18 0.334749 -1.25305e-20 7.34211e-38)
(124.235 0.163623 1.37463e-18 0.330851 -1.06644e-20 6.7958e-38)
(126.713 -0.0142778 0 0.327601 0 0)
(129.054 -0.193643 0 0.325477 0 0)
(131.241 -0.37725 0 0.3228 0 0)
(133.251 -0.565849 0 0.321593 0 0)
(135.064 -0.756679 0 0.323639 0 0)
(136.654 -0.946419 -1.17434e-18 0.32786 -4.39917e-21 5.01588e-38)
(137.993 -1.13756 0 0.331988 0 0)
(139.067 -1.33344 1.07962e-18 0.335713 1.1477e-20 4.75049e-38)
(139.88 -1.53601 0 0.340984 0 0)
(140.428 -1.74494 0 0.347798 0 0)
(140.696 -1.95112 -9.11641e-19 0.357063 -2.24378e-20 4.75136e-38)
(140.679 -2.15544 0 0.368984 0 0)
(140.358 -2.36052 7.80274e-19 0.380979 3.12395e-20 4.96814e-38)
(139.742 -2.56444 0 0.391267 0 0)
(138.826 -2.76831 0 0.404045 0 0)
(137.618 -2.97128 0 0.418212 0 0)
(136.132 -3.16702 -4.82015e-19 0.432654 -4.76026e-20 6.03344e-38)
(134.371 -3.35619 0 0.447346 0 0)
(132.349 -3.5394 0 0.46048 0 0)
(130.077 -3.7157 -2.26283e-19 0.474371 -6.12126e-20 7.303e-38)
(127.575 -3.89023 0 0.490158 0 0)
(124.878 -4.05588 -5.067e-20 0.505387 -6.99213e-20 8.30139e-38)
(122 -4.20774 0 0.520221 0 0)
(118.956 -4.348 0 0.536364 0 0)
(115.78 -4.47913 0 0.553664 0 0)
(112.495 -4.60096 -3.04764e-19 0.571638 8.31504e-20 1.04528e-37)
(109.119 -4.7106 0 0.589612 0 0)
(105.669 -4.80462 0 0.607445 0 0)
(102.154 -4.88343 -5.64127e-19 0.625465 9.03254e-20 1.2015e-37)
(98.5881 -4.95141 -6.45962e-19 0.644181 9.1871e-20 1.25262e-37)
(94.9976 -5.00829 0 0.662946 0 0)
(91.4135 -5.05322 -7.99046e-19 0.682639 9.46455e-20 1.34683e-37)
(87.8566 -5.08693 0 0.703804 0 0)
(84.3474 -5.10881 -1.87771e-18 0.725356 1.92604e-19 5.74392e-37)
(80.9005 -5.11772 0 0.748 0 0)
(77.5336 -5.11215 -2.12257e-18 0.770582 1.93734e-19 6.07542e-37)
(74.2653 -5.09021 0 0.793536 0 0)
(71.11 -5.05527 2.32513e-18 0.819512 -1.93881e-19 6.36509e-37)
(68.0852 -5.00713 0 0.844539 0 0)
(65.2052 -4.94039 0 0.866853 0 0)
(62.4701 -4.85487 0 0.889558 0 0)
(59.8841 -4.75267 -2.58601e-18 0.91457 1.86299e-19 6.79865e-37)
(57.4531 -4.63619 0 0.939176 0 0)
(55.1862 -4.50369 2.64697e-18 0.963438 -1.80023e-19 6.9459e-37)
(53.0864 -4.35492 0 0.987191 0 0)
(51.1424 -4.18395 -2.65902e-18 1.01076 1.73673e-19 7.03452e-37)
(49.349 -3.99633 -2.6499e-18 1.03207 1.70438e-19 7.06977e-37)
(47.6943 -3.79607 -2.63096e-18 1.05332 1.66274e-19 7.09669e-37)
(46.1738 -3.58675 0 1.07572 0 0)
(44.7609 -3.3673 0 1.09883 0 0)
(43.4659 -3.13882 0 1.1184 0 0)
(42.27 -2.90136 0 1.1382 0 0)
(41.1682 -2.66205 0 1.15809 0 0)
(40.1424 -2.4223 0 1.1771 0 0)
(39.189 -2.17963 0 1.1922 0 0)
(38.2624 -1.93628 0 1.2082 0 0)
(37.3603 -1.69966 2.02627e-18 1.22353 -1.316e-19 7.07521e-37)
(36.4501 -1.47138 1.91225e-18 1.24071 -1.24271e-19 7.06897e-37)
(35.5558 -1.2523 0 1.25239 0 0)
(34.643 -1.04217 0 1.26541 0 0)
(33.7218 -0.855539 0 1.27944 0 0)
(32.7396 -0.679192 1.35439e-18 1.29206 -1.04638e-19 6.91112e-37)
(31.7966 -0.528865 0 1.29934 0 0)
(30.7853 -0.386592 0 1.30917 0 0)
(29.8283 -0.28373 0 1.31926 0 0)
(28.8997 -0.200189 0 1.33251 0 0)
(28.069 -0.149916 -4.38594e-19 1.34096 7.57571e-20 6.66238e-37)
(27.3686 -0.123856 0 1.35033 0 0)
(26.8312 -0.133199 0 1.36378 0 0)
(26.5415 -0.176096 -2.23516e-19 1.3717 -6.5552e-20 6.42844e-37)
(26.4985 -0.245288 4.50553e-19 1.38444 6.11641e-20 6.30209e-37)
(26.7529 -0.354938 0 1.40136 0 0)
(27.3581 -0.511638 9.13192e-19 1.41879 6.00828e-20 6.05372e-37)
(28.3802 -0.708715 0 1.43787 0 0)
(29.8795 -0.960699 -1.35476e-18 1.45554 -6.45258e-20 5.75659e-37)
(31.8766 -1.24718 0 1.47833 0 0)
(34.4465 -1.58311 0 1.50539 0 0)
(37.4855 -1.9609 0 1.53806 0 0)
(41.1024 -2.38907 0 1.57232 0 0)
(45.1503 -2.8433 0 1.61051 0 0)
(49.6355 -3.34514 4.89961e-18 1.65273 2.04746e-19 1.97218e-36)
(54.4987 -3.89097 5.15486e-18 1.69897 2.30559e-19 1.93762e-36)
(59.7598 -4.47288 0 1.74748 0 0)
(65.2238 -5.07522 0 1.80315 0 0)
(70.843 -5.70216 0 1.8584 0 0)
(76.4694 -6.31597 -5.6952e-18 1.91918 -3.52381e-19 1.91766e-36)
(81.88 -6.93086 0 1.99025 0 0)
(87.0361 -7.55252 0 2.06256 0 0)
(91.8787 -8.16707 0 2.13892 0 0)
(96.3262 -8.75784 -5.33559e-18 2.21736 -5.33574e-19 2.07254e-36)
(100.343 -9.32349 5.10207e-18 2.30225 5.83333e-19 2.13494e-36)
(103.752 -9.84644 0 2.39168 0 0)
(106.657 -10.356 0 2.48431 0 0)
(109.028 -10.81 4.08148e-18 2.57876 7.3557e-19 2.36681e-36)
(110.863 -11.2284 3.65183e-18 2.67209 7.845e-19 2.45206e-36)
(112.015 -11.5722 0 2.77235 0 0)
(112.579 -11.8862 0 2.87228 0 0)
(112.453 -12.1281 -2.05341e-18 2.97622 -9.45962e-19 2.71983e-36)
(111.768 -12.3519 1.42377e-18 3.07115 9.89534e-19 2.79859e-36)
(110.568 -12.5052 0 3.1679 0 0)
(108.653 -12.6043 0 3.26847 0 0)
(106.143 -12.6369 -5.20622e-19 3.35933 1.11732e-18 3.06933e-36)
(103.002 -12.6158 0 3.44976 0 0)
(99.5148 -12.5567 0 3.53326 0 0)
(95.5208 -12.4068 -2.54704e-18 3.60569 1.20619e-18 3.30211e-36)
(91.2187 -12.1852 0 3.67764 0 0)
(86.5956 -11.8526 -3.83038e-18 3.73905 1.25715e-18 3.44481e-36)
(81.7099 -11.4347 0 3.7947 0 0)
(76.6028 -10.8988 0 3.8338 0 0)
(71.6612 -10.2649 0 3.85781 0 0)
(66.7827 -9.46685 5.86876e-18 3.87654 -1.27773e-18 3.68244e-36)
(62.1306 -8.54923 0 3.87997 0 0)
(57.92 -7.47956 0 3.86793 0 0)
(54.4704 -6.29013 0 3.83999 0 0)
(51.6225 -4.91165 0 3.79793 0 0)
(49.5318 -3.45288 0 3.74743 0 0)
(48.8155 -1.89955 0 3.67531 0 0)
(49.6582 -0.276564 6.0205e-18 3.58552 -1.10413e-18 3.72714e-36)
(51.7271 1.43601 5.60484e-18 3.48727 -1.04971e-18 3.70946e-36)
(55.4375 3.12766 0 3.37578 0 0)
(60.6982 4.75373 0 3.25787 0 0)
(67.5106 6.33316 0 3.12831 0 0)
(75.4528 7.80592 -3.05036e-18 2.99863 7.94861e-19 3.38362e-36)
(84.5822 9.10714 0 2.87046 0 0)
(94.139 10.2951 2.94409e-18 2.73555 -1.3504e-18 1.23615e-35)
(104.02 11.252 -1.30778e-18 2.60503 1.21766e-18 1.16606e-35)
(113.649 12.0412 3.19659e-19 2.47367 1.10475e-18 1.10179e-35)
(123.294 12.6907 -2.02446e-18 2.34884 -1.01404e-18 1.03335e-35)
(131.402 13.2309 3.6777e-18 2.22989 9.22635e-19 9.7593e-36)
(139.268 13.7066 -5.28357e-18 2.12258 -9.03206e-19 8.99382e-36)
(143.015 14.3984 0 2.06666 0 0)
(0.0183103 0.174209 0 6.09532 0 0)
(0.202689 0.387872 0 6.03342 0 0)
(0.629414 0.609715 1.31729e-19 5.86078 1.75891e-19 6.76185e-37)
(1.32694 0.854091 0 5.74007 0 0)
(2.26908 1.13319 -1.92357e-19 5.68025 -3.53425e-19 9.1881e-37)
(3.4453 1.43779 -1.84057e-19 5.65301 -4.41145e-19 9.71807e-37)
(4.83443 1.76231 -8.08013e-20 5.63748 -2.5122e-19 2.4878e-37)
(6.42215 2.10275 -6.91327e-20 5.61934 -2.70108e-19 2.61034e-37)
(8.20063 2.4518 0 5.59096 0 0)
(10.1679 2.80496 -4.2406e-20 5.54838 -2.6897e-19 2.59215e-37)
(12.3252 3.15338 0 5.49654 0 0)
(14.6711 3.49471 0 5.437 0 0)
(17.197 3.82375 9.50683e-20 5.36884 4.23769e-19 9.50484e-37)
(19.904 4.14009 6.96383e-20 5.29711 1.86961e-19 2.33983e-37)
(22.7813 4.43399 -1.85572e-19 5.22207 -3.26468e-19 8.93098e-37)
(25.823 4.70551 -2.51682e-19 5.14401 -2.81514e-19 8.65413e-37)
(29.0179 4.95616 -1.71105e-19 5.05973 -1.18633e-19 2.12627e-37)
(32.3595 5.18744 0 4.96903 0 0)
(35.836 5.39767 0 4.87337 0 0)
(39.4389 5.59141 0 4.77068 0 0)
(43.1447 5.76796 -3.86292e-19 4.66573 -3.68807e-20 1.80294e-37)
(46.9445 5.92459 0 4.56116 0 0)
(50.8156 6.05293 1.6078e-18 4.45456 -1.5944e-20 1.55095e-36)
(54.7452 6.15667 0 4.35153 0 0)
(58.7164 6.23742 0 4.24628 0 0)
(62.7117 6.29532 7.74452e-19 4.14196 -5.76431e-20 1.56405e-37)
(66.7033 6.3271 0 4.03588 0 0)
(70.6725 6.34199 -9.32638e-19 3.93518 8.17462e-20 1.45906e-37)
(74.5855 6.3336 -1.99293e-18 3.83512 1.81437e-19 5.56751e-37)
(78.4325 6.29669 1.07674e-18 3.73232 -9.86828e-20 1.36539e-37)
(82.2095 6.22825 0 3.62449 0 0)
(85.9165 6.13179 0 3.51919 0 0)
(89.54 6.00974 0 3.41591 0 0)
(93.084 5.86319 -2.57604e-18 3.30786 2.22669e-19 4.71121e-37)
(96.5402 5.68668 -2.65434e-18 3.20054 2.20218e-19 4.54988e-37)
(99.9223 5.48056 -1.37338e-18 3.09969 1.07555e-19 1.10722e-37)
(103.239 5.24316 0 3.00789 0 0)
(106.482 4.96957 2.83767e-18 2.91986 -2.03e-19 4.12718e-37)
(109.662 4.65777 0 2.83474 0 0)
(112.772 4.3171 -2.87456e-18 2.75323 1.88445e-19 3.81494e-37)
(115.82 3.94869 0 2.67286 0 0)
(118.801 3.56043 0 2.60063 0 0)
(121.722 3.15623 2.82786e-18 2.52959 -1.54124e-19 3.31644e-37)
(124.569 2.73334 0 2.46417 0 0)
(127.323 2.28529 8.16108e-18 2.40614 -3.93651e-19 2.68416e-36)
(129.982 1.8078 -2.68929e-18 2.36079 1.19262e-19 2.83666e-37)
(132.55 1.30504 0 2.33364 0 0)
(135.041 0.77695 -2.5497e-18 2.31785 9.09944e-20 2.5172e-37)
(137.442 0.216071 -2.46906e-18 2.31161 7.67547e-20 2.36146e-37)
(139.749 -0.37117 0 2.31396 0 0)
(141.94 -0.970198 0 2.32738 0 0)
(143.996 -1.56685 0 2.34243 0 0)
(145.902 -2.15162 0 2.35595 0 0)
(147.621 -2.72874 0 2.37948 0 0)
(149.14 -3.30707 1.88401e-18 2.4122 1.44736e-20 1.71968e-37)
(150.438 -3.89403 3.45249e-18 2.45549 7.10999e-20 6.55382e-37)
(151.495 -4.48442 -1.64508e-18 2.50665 -5.59082e-20 1.5998e-37)
(152.32 -5.09305 0 2.56292 0 0)
(152.889 -5.70332 2.68812e-18 2.62626 1.90296e-19 6.00987e-37)
(153.172 -6.29366 -1.17036e-18 2.69454 -1.1327e-19 1.46746e-37)
(153.197 -6.87942 0 2.77126 0 0)
(152.915 -7.45964 -9.78197e-19 2.8609 -1.48585e-19 1.49385e-37)
(152.337 -8.01799 0 2.95399 0 0)
(151.459 -8.56713 0 3.05496 0 0)
(150.275 -9.09796 -1.04761e-18 3.16132 -3.96732e-19 6.25145e-37)
(148.775 -9.60003 4.22593e-19 3.27261 2.1511e-19 1.63653e-37)
(146.996 -10.0949 -4.88884e-19 3.39288 -4.62172e-19 6.68043e-37)
(144.928 -10.5686 2.11979e-19 3.51844 4.89217e-19 6.9182e-37)
(142.6 -11.0136 9.90752e-21 3.64332 2.54498e-19 1.8261e-37)
(140 -11.4346 0 3.77507 0 0)