/*--------------------------------*- C++ -*----------------------------------*\
| =========                 |                                                 |
| \\      /  F ield         | OpenFOAM: The Open Source CFD Toolbox           |
|  \\    /   O peration     | Version:  dev                                   |
|   \\  /    A nd           | Web:      http://www.openfoam.org               |
|    \\/     M anipulation  |                                                 |
\*---------------------------------------------------------------------------*/
FoamFile
{
    version     2.0;
    format      ascii;
    class       volScalarField;
    object      k_0;
    location    "9.14";
}
// * * * * * * * * * * * * * * * * * * * * * * * * * * * * * * * * * * * * * //

dimensions      [0 2 -2 0 0 0 0];

internalField   nonuniform List<scalar> 
12225
(
8.8925
10.7659
7.24975
8.47903
6.60939
10.0453
8.86946
14.5666
13.3418
21.1399
19.3842
31.904
30.0351
46.9456
54.648
78.9101
94.953
155.427
1.52791
5.71223
4.95402
6.05357
4.72979
5.68172
4.7612
5.79472
5.36312
6.21501
6.02584
6.41147
6.69016
6.60118
7.17781
7.82406
7.39406
12.0798
0.131864
1.78834
2.05463
3.26137
3.0298
3.64948
3.21664
3.37253
3.20483
3.31932
3.31883
2.93915
2.84905
2.44492
2.39863
2.20024
2.49556
2.94094
0.0206502
0.422288
0.600981
0.940924
1.16024
1.46604
1.60071
1.48948
1.54837
1.45783
1.52825
1.37099
1.34421
1.18727
1.2716
1.30629
2.0372
3.23453
0.00565372
0.184433
0.27128
0.391042
0.593652
0.677487
0.872924
0.882606
0.908159
0.865303
0.894895
0.870534
0.866803
0.807659
0.878859
1.0831
1.92991
3.52035
0.0197218
0.284402
0.288986
0.380295
0.409405
0.4638
0.600262
0.64062
0.628855
0.530954
0.580139
0.618282
0.637021
0.583113
0.574303
0.63663
0.885976
1.61225
0.0117848
0.0509779
0.156446
0.171522
0.192663
0.204178
0.306241
0.29688
0.2883
0.222299
0.264001
0.261735
0.275377
0.249435
0.243455
0.249659
0.299625
0.25278
0.010772
0.0197239
0.0529408
0.0592678
0.0828995
0.0855808
0.139737
0.140037
0.140085
0.110951
0.140289
0.143179
0.154806
0.139419
0.161313
0.164657
0.270208
0.924195
0.0182466
0.0227717
0.0344176
0.0412773
0.0532783
0.0536477
0.0776696
0.0839362
0.0845455
0.0745913
0.0920593
0.0965287
0.104444
0.0986006
0.107572
0.119181
0.178392
0.250436
0.0382627
0.0413203
0.040233
0.0421177
0.0448112
0.0462349
0.0599707
0.062229
0.0631776
0.0613801
0.0698831
0.0757991
0.0822939
0.0837181
0.0858346
0.0993962
0.111076
0.163189
0.0856199
0.0877174
0.0691366
0.061073
0.0527777
0.0510193
0.0555098
0.057855
0.0589743
0.0587661
0.0624441
0.0706423
0.0741168
0.0800982
0.0822988
0.0908915
0.0954351
0.12057
0.149886
0.146502
0.118786
0.107817
0.0823555
0.0725016
0.0662787
0.0643911
0.0639774
0.0637435
0.0656557
0.070331
0.0748189
0.0781061
0.0821291
0.0872139
0.0907698
0.101646
0.25514
0.250647
0.196434
0.174368
0.13854
0.125072
0.0994465
0.0912757
0.0851486
0.084441
0.08238
0.0832733
0.0840784
0.0852697
0.0865816
0.0889367
0.0926768
0.101724
0.438225
0.407989
0.318439
0.270216
0.217823
0.192869
0.162193
0.148461
0.136239
0.131317
0.125914
0.120393
0.116402
0.114106
0.112986
0.113221
0.11392
0.11663
0.69956
0.64694
0.520701
0.434884
0.367566
0.317395
0.270417
0.235456
0.208606
0.190202
0.175434
0.164765
0.157563
0.152898
0.149967
0.148436
0.148567
0.149324
1.04891
0.963876
0.74139
0.585104
0.471494
0.387732
0.322777
0.274251
0.238101
0.211922
0.192677
0.179142
0.169799
0.163604
0.159931
0.157982
0.157374
0.157463
1.24133
1.08059
0.807358
0.628289
0.499796
0.406407
0.336441
0.284323
0.24542
0.216987
0.196383
0.181781
0.171876
0.165289
0.161315
0.15929
0.158645
0.158599
1.21309
1.05818
0.797768
0.622556
0.495591
0.402945
0.33404
0.282381
0.243686
0.215049
0.194355
0.179679
0.169664
0.162986
0.158823
0.156505
0.155722
0.155485
0.987573
0.881237
0.690758
0.550789
0.445249
0.366692
0.307279
0.261847
0.227255
0.201295
0.182365
0.168724
0.1592
0.152659
0.148278
0.145533
0.144146
0.143682
0.629794
0.568716
0.457595
0.378166
0.318238
0.272366
0.23594
0.20629
0.182632
0.164311
0.150476
0.140058
0.132454
0.126627
0.12232
0.118997
0.116736
0.115933
0.379913
0.337926
0.271607
0.223741
0.187726
0.160972
0.140466
0.123625
0.109882
0.0992911
0.0911782
0.0852152
0.0806436
0.0768104
0.073842
0.0717108
0.0704298
0.0701947
0.209012
0.192919
0.16116
0.135786
0.116212
0.100181
0.0871584
0.0770657
0.0695669
0.0650151
0.0619186
0.0598779
0.0584912
0.0577278
0.0572882
0.0572022
0.0573757
0.0582092
0.107444
0.101562
0.0880082
0.0757785
0.0642421
0.0587179
0.0576601
0.057091
0.0565832
0.0562966
0.0558755
0.0553843
0.0552759
0.0553873
0.0555961
0.0561744
0.0566342
0.0578094
0.0510445
0.0487486
0.0422594
0.0417915
0.0442054
0.0483547
0.0533755
0.0565165
0.0586789
0.0614776
0.0629052
0.0649236
0.0667947
0.0686249
0.0694983
0.0708616
0.0715781
0.0731307
0.0193019
0.0213741
0.0260314
0.0355068
0.0469122
0.0629006
0.0798304
0.090647
0.0993208
0.107521
0.112545
0.119003
0.124715
0.12901
0.130682
0.132626
0.13336
0.134624
0.00636692
0.015474
0.0359839
0.0795763
0.126526
0.17824
0.224679
0.251688
0.271495
0.286662
0.294374
0.304149
0.312395
0.31715
0.317956
0.31776
0.316623
0.314962
0.00464234
0.0544972
0.190698
0.376198
0.533312
0.657538
0.741899
0.780888
0.800719
0.810419
0.811089
0.812523
0.813426
0.811041
0.801783
0.791862
0.78107
0.770969
0.0467277
0.460104
1.14672
1.67163
2.02664
2.17438
2.19121
2.17136
2.09315
2.03122
1.98828
1.95317
1.91922
1.87593
1.82798
1.7828
1.73633
1.69153
0.788179
3.36485
4.65492
4.70433
4.5232
4.22494
3.95378
3.76114
3.64121
3.53985
3.43953
3.33843
3.24627
3.14532
3.06128
2.96614
2.89112
2.77305
7.30721
10.4328
9.37973
7.2618
6.06556
5.57095
5.44714
5.48863
5.62784
5.81363
5.98051
6.11776
6.20614
6.25404
6.26535
6.22476
6.13494
5.90931
0.113356
0.190655
0.21641
0.253292
0.280233
0.296717
0.31174
0.323301
0.342972
0.366907
0.396552
0.439427
0.503641
0.592102
0.669229
0.737094
0.884144
1.05408
1.1956
1.43152
1.66415
1.88433
2.16702
2.35064
2.53824
2.72191
2.77546
2.80548
2.80558
2.79062
2.84026
2.94449
3.01234
3.10514
3.29862
3.5247
3.78613
3.94502
3.99938
4.05743
4.29187
4.70931
5.1902
5.5943
5.96416
6.32872
6.67491
7.00868
7.3147
7.58424
7.82703
8.05936
8.28629
8.50481
8.71706
8.92871
9.13852
9.32523
9.48467
9.64337
9.79342
9.92398
10.0306
10.0818
10.1039
10.1082
10.0747
10.0221
9.90371
9.77188
9.62712
9.42935
9.17307
8.85282
8.46481
8.03542
7.57459
7.10067
6.63045
6.14757
5.70102
5.24602
4.78809
4.36444
3.98142
3.67246
3.45913
3.33352
3.23389
3.13129
3.05214
3.01747
2.99942
2.979
2.93097
2.8921
2.92622
3.04149
3.24963
3.53875
4.00501
4.41188
4.56734
4.72362
4.68554
4.27748
3.82441
3.38542
2.86145
2.51335
2.45974
2.54113
2.68519
2.67769
2.51771
2.16411
1.9107
2.0683
3.20828
4.64782
5.98568
7.97874
10.3033
11.1542
11.2511
10.5026
10.0771
9.8121
9.54218
9.47787
9.46602
8.94095
8.81598
10.7798
12.4865
13.7488
14.6419
15.8232
17.4635
17.3004
16.5398
15.8434
15.2536
15.7804
16.6094
17.2161
17.4662
16.7823
15.8729
15.0974
14.523
13.6145
12.689
12.1989
11.472
11.0741
11.0384
10.5456
9.74904
8.24219
6.93555
6.02422
6.61312
8.91892
9.76113
8.57992
7.62605
7.66248
7.82898
9.25445
11.013
12.2266
14.1947
16.3032
17.5562
18.2994
18.858
19.6173
21.8462
25.6629
0.356269
0.21684
0.256061
0.295179
0.283641
0.253686
0.225686
0.217428
0.219769
0.226494
0.236585
0.238859
0.243361
0.261077
0.273275
0.274469
0.280457
0.285611
0.287083
0.298279
0.32639
0.369334
0.497965
0.620741
0.811152
1.04866
1.2327
1.47879
1.51869
1.42659
1.35827
1.14889
0.849676
0.747971
0.731329
0.758302
0.882941
0.947469
0.967999
0.987356
1.04282
1.26983
1.7407
2.05988
2.20557
2.28763
2.29789
2.28725
2.27117
2.27037
2.2815
2.31783
2.37784
2.46069
2.54654
2.6422
2.73117
2.79126
2.8261
2.85655
2.86199
2.85844
2.81925
2.72709
2.60837
2.50619
2.4066
2.31029
2.22239
2.14762
2.03797
1.90404
1.74558
1.59441
1.45962
1.33271
1.21369
1.11861
1.03515
0.945219
0.884741
0.801484
0.727342
0.689244
0.678215
0.695323
0.748312
0.828074
0.857073
0.862297
0.848332
0.872028
0.899821
0.907694
0.893779
0.859065
0.862617
0.897479
0.927878
0.96672
1.03868
1.2113
1.35732
1.59963
1.95773
1.98985
1.84862
1.73345
1.51197
1.22062
1.14422
1.19715
1.35632
1.53984
1.81544
2.1838
2.87986
3.46696
3.61738
3.95329
4.41155
4.76279
4.76276
3.96386
3.2328
2.96868
2.91621
2.98855
3.02065
3.04317
2.98321
2.9118
3.42829
4.57736
6.25278
6.94507
6.89907
7.00568
7.01556
5.8223
5.0264
4.78263
5.47327
6.42234
6.92678
8.20702
9.39355
9.40595
9.14522
8.69828
8.70083
8.52345
7.76359
7.5051
7.34951
6.96228
7.26445
7.11309
6.88555
5.79722
4.9933
4.83232
5.66176
8.68935
9.78545
6.47875
6.10075
6.08616
6.29282
6.53261
7.01219
7.36658
7.62526
8.02311
8.363
8.88425
10.0559
11.9653
14.1944
15.2924
0.931752
0.360965
0.376279
0.356855
0.286069
0.230633
0.212244
0.212786
0.222227
0.233168
0.248553
0.256413
0.252078
0.251177
0.256057
0.252275
0.247033
0.242871
0.225617
0.213712
0.206165
0.203229
0.211485
0.230297
0.273101
0.337808
0.428078
0.586147
0.682689
0.749263
0.755665
0.711748
0.609236
0.540506
0.546555
0.63578
0.781091
0.839952
1.01681
1.16255
1.22674
1.25914
1.25217
1.20694
1.11487
1.03158
0.953995
0.898842
0.883441
0.88237
0.895618
0.941407
0.985725
0.991537
0.989287
0.977875
0.956153
0.930946
0.918877
0.907213
0.879832
0.834405
0.763258
0.686834
0.627597
0.592251
0.565238
0.546832
0.529181
0.503877
0.47109
0.434832
0.403518
0.37631
0.3546
0.333807
0.315698
0.30326
0.292105
0.278981
0.270479
0.258532
0.253928
0.253151
0.259959
0.282119
0.320799
0.362714
0.380049
0.384672
0.380645
0.395003
0.428741
0.448199
0.454325
0.470604
0.518309
0.579123
0.578812
0.550771
0.517425
0.528661
0.562591
0.637144
0.847389
1.01565
1.01935
0.996017
0.929464
0.842383
0.856195
1.00258
1.18718
1.37845
1.82013
2.64227
3.04524
2.92649
2.5762
2.45925
2.58941
2.5886
2.37633
1.95096
1.67096
1.59419
1.56303
1.58478
1.60291
1.70632
1.99614
2.25483
2.46511
2.64818
3.1829
3.78829
3.80898
4.14001
4.21489
3.81673
3.17404
2.91666
3.01912
3.16631
3.93853
4.88501
4.93156
4.87279
4.75336
4.60942
4.70728
4.90248
4.73649
4.62176
4.6044
4.46762
4.6664
4.7413
4.84972
4.5791
4.22039
4.4863
5.96376
7.43665
7.72941
5.7408
5.7941
5.5424
5.3104
5.62994
5.67053
5.03228
4.68117
4.73361
5.07268
5.86593
7.14613
8.47231
8.60303
7.56489
2.02112
0.738715
0.5289
0.362234
0.267818
0.24306
0.258068
0.282335
0.305408
0.310866
0.296725
0.278208
0.259576
0.24823
0.241601
0.231555
0.212618
0.194684
0.175403
0.161965
0.155577
0.15044
0.151034
0.15582
0.16919
0.191077
0.222735
0.288086
0.400553
0.470094
0.484893
0.496875
0.535456
0.631079
0.760018
0.976756
1.08947
1.04935
0.929224
0.871883
0.779256
0.688022
0.628018
0.567544
0.509185
0.455221
0.411308
0.395126
0.391908
0.395543
0.415553
0.45703
0.471263
0.470198
0.455216
0.417058
0.366468
0.347313
0.340174
0.335149
0.325833
0.305045
0.273977
0.250936
0.244168
0.242445
0.24271
0.245709
0.247611
0.246823
0.242654
0.236987
0.232556
0.228244
0.225096
0.223408
0.222906
0.223058
0.22346
0.223272
0.222434
0.219683
0.218814
0.219852
0.223012
0.231973
0.24562
0.263253
0.270302
0.270719
0.265101
0.274782
0.303989
0.333331
0.352904
0.394075
0.456244
0.497579
0.486537
0.430406
0.393657
0.395556
0.408767
0.423566
0.476231
0.590025
0.623232
0.640328
0.664334
0.698956
0.818542
1.0283
1.26766
1.48063
2.06089
2.72639
2.68102
1.89374
1.72503
1.74364
1.81358
1.7848
1.6836
1.56344
1.41553
1.3691
1.34297
1.26766
1.27407
1.42775
1.6747
2.02754
2.37505
2.42632
2.42011
2.68838
3.27102
3.90796
3.85341
3.66199
2.8426
2.51068
2.57771
2.9093
3.48799
3.90964
3.89103
3.5514
3.38809
3.37734
3.38505
3.50518
3.6485
3.64261
3.57036
3.71968
3.70283
3.8986
3.77395
3.98272
4.14248
4.31878
6.00253
7.00477
5.71704
5.63955
5.92993
5.67868
4.80295
4.95934
5.02091
4.35359
3.81446
3.86441
4.33576
5.24091
6.10806
6.40705
5.47679
4.5513
3.44949
1.24107
0.58935
0.349952
0.302114
0.348005
0.401898
0.429721
0.419816
0.388846
0.342301
0.29504
0.262137
0.248331
0.239292
0.225013
0.201566
0.172647
0.149585
0.135744
0.127292
0.122888
0.122443
0.12468
0.130029
0.141198
0.164819
0.19994
0.256621
0.336916
0.437664
0.520126
0.648084
0.921945
1.07929
1.03366
0.835228
0.672446
0.548412
0.469803
0.405586
0.361619
0.318953
0.281898
0.247833
0.221451
0.209925
0.206581
0.206713
0.211857
0.227387
0.249617
0.255699
0.256028
0.251437
0.236321
0.210854
0.194427
0.190608
0.189032
0.188013
0.185285
0.180781
0.18019
0.181357
0.18543
0.19153
0.198876
0.205069
0.206228
0.206043
0.20478
0.204331
0.204243
0.205142
0.207288
0.210405
0.213698
0.216915
0.221265
0.223719
0.224528
0.225275
0.227901
0.228968
0.229779
0.233374
0.240249
0.242497
0.241938
0.237124
0.240697
0.25454
0.281506
0.311676
0.352657
0.355203
0.346773
0.338655
0.337454
0.353936
0.382171
0.382777
0.379338
0.399329
0.443639
0.462634
0.49358
0.557131
0.671179
0.93291
1.18461
1.43277
1.80939
2.30711
2.58041
1.87063
1.45227
1.42003
1.47655
1.48824
1.47822
1.48507
1.43343
1.34117
1.32445
1.26342
1.14178
1.15058
1.2181
1.25666
1.49015
2.37047
2.49222
2.36672
2.54117
3.42103
3.69972
3.71912
3.44939
2.65154
2.17091
2.20249
2.74904
2.92678
2.74319
3.21557
3.09656
2.9195
2.92711
2.85674
2.85444
3.05351
3.13908
3.03977
3.28401
3.15765
3.67204
3.39107
3.42539
3.81108
4.29476
5.54248
7.0915
5.236
5.27912
5.70685
5.49737
4.59599
4.28876
4.48792
3.99849
3.48445
3.55172
4.13423
4.8689
5.20999
5.00124
3.88286
3.38363
5.10366
1.65763
0.638886
0.409848
0.454918
0.578206
0.632801
0.624505
0.595149
0.526807
0.453522
0.379239
0.316067
0.280907
0.262539
0.237748
0.201067
0.167332
0.142449
0.127791
0.120369
0.117299
0.116432
0.117658
0.122726
0.136059
0.160448
0.201012
0.282482
0.385215
0.492375
0.689717
0.961394
1.00965
0.90271
0.654478
0.439219
0.34232
0.291808
0.247815
0.220035
0.200035
0.18093
0.165013
0.15308
0.145688
0.143721
0.143589
0.145248
0.150795
0.16095
0.16925
0.171419
0.17195
0.171391
0.167649
0.160608
0.158268
0.158345
0.159903
0.163774
0.167817
0.170607
0.173544
0.177378
0.181139
0.185339
0.188876
0.192891
0.195111
0.19554
0.195593
0.19627
0.198283
0.201189
0.205208
0.209756
0.214551
0.219659
0.227404
0.233272
0.238183
0.239658
0.241086
0.241731
0.241573
0.239898
0.23941
0.238376
0.238349
0.234762
0.23455
0.235375
0.246943
0.264715
0.252935
0.239407
0.241019
0.276143
0.309582
0.360875
0.405334
0.400322
0.396127
0.407133
0.415505
0.420979
0.451083
0.521706
0.703385
1.22097
1.37726
1.49873
1.90609
2.27336
2.11163
1.39076
1.21935
1.22156
1.23236
1.21494
1.2144
1.2006
1.15664
1.19082
1.24216
1.11718
0.937443
0.957315
0.945744
0.925508
1.14632
2.11246
2.60199
2.52265
2.59525
3.21048
3.32901
2.90656
2.53895
2.34559
1.67475
1.73118
2.36003
2.40395
2.3448
2.69663
2.88448
2.73058
2.62732
2.55876
2.54077
2.62387
2.79765
2.76605
2.76623
2.78134
3.26478
3.42802
3.17544
3.29107
3.96412
5.09911
6.85029
5.22012
4.48951
4.46704
4.57482
3.87161
3.6069
3.95913
3.68528
3.31983
3.40829
4.01617
4.41934
4.41676
3.84281
3.07228
2.82413
6.98639
2.13707
0.782306
0.605158
0.757173
0.936819
0.964689
0.845554
0.727001
0.649267
0.566544
0.457333
0.374362
0.336079
0.309364
0.273696
0.219038
0.170732
0.14227
0.127887
0.1222
0.120609
0.120398
0.122229
0.130658
0.149999
0.178624
0.232461
0.331099
0.485527
0.729392
0.916181
0.91977
0.759274
0.456056
0.296226
0.233285
0.189838
0.168813
0.154193
0.144621
0.138877
0.133068
0.129461
0.12849
0.12859
0.129431
0.131694
0.135328
0.139714
0.144912
0.150083
0.154128
0.156103
0.156975
0.157353
0.157427
0.157529
0.158469
0.160641
0.16472
0.169571
0.173444
0.176401
0.18015
0.182931
0.184337
0.186585
0.188089
0.189593
0.190843
0.19175
0.193544
0.196689
0.200587
0.205854
0.213185
0.22091
0.227549
0.23564
0.239624
0.242983
0.243228
0.242999
0.239451
0.23908
0.241166
0.244099
0.243636
0.242784
0.238416
0.232311
0.226164
0.220102
0.219416
0.207402
0.203088
0.21232
0.256456
0.319457
0.390398
0.438843
0.454033
0.465084
0.463795
0.42446
0.423273
0.442539
0.504229
0.807438
1.37451
1.48618
1.57641
1.90545
2.09072
1.54259
1.09833
1.01605
1.02083
1.00754
0.995654
1.01134
1.00509
0.967815
1.00724
1.02893
0.863782
0.789341
0.837063
0.815431
0.796137
0.947699
1.67173
2.70579
2.94729
2.8011
3.23106
2.99827
2.429
1.81525
1.77173
1.45377
1.54412
1.96475
2.29773
2.25789
2.4123
2.73517
2.57513
2.39064
2.42418
2.39543
2.46347
2.6766
2.65831
2.50001
2.7143
2.82639
3.39136
3.29223
3.19799
3.39511
4.55303
5.93087
4.89314
4.51231
3.94286
3.45994
3.12405
3.07685
3.52706
3.43795
3.21864
3.31931
3.83383
4.0354
3.7643
3.07125
2.61977
2.49842
9.09912
2.67461
1.06926
1.04024
1.31272
1.40751
1.13688
0.890458
0.742918
0.663367
0.582561
0.467838
0.383712
0.356266
0.339562
0.303513
0.238753
0.184143
0.156914
0.142793
0.13466
0.129806
0.128688
0.130643
0.144253
0.174084
0.224318
0.32243
0.505625
0.733445
0.812023
0.779782
0.599365
0.320686
0.221635
0.174157
0.150826
0.137883
0.131679
0.128414
0.12658
0.125603
0.125536
0.125767
0.127022
0.130077
0.134654
0.140094
0.146078
0.151563
0.156513
0.161746
0.165943
0.168625
0.170479
0.172236
0.174662
0.175405
0.175646
0.175843
0.176479
0.17839
0.181199
0.182522
0.184473
0.184917
0.184547
0.184623
0.186286
0.187972
0.190016
0.192058
0.195154
0.200567
0.206794
0.214667
0.22437
0.232926
0.237298
0.24475
0.2499
0.251518
0.250717
0.249896
0.243938
0.234628
0.23171
0.232383
0.238849
0.242614
0.241013
0.231428
0.222326
0.20916
0.202111
0.197259
0.193991
0.204325
0.234575
0.31229
0.392129
0.4404
0.460066
0.480417
0.481548
0.44942
0.434043
0.442304
0.512395
0.996614
1.46235
1.50528
1.59495
1.84642
1.71551
1.16499
0.931402
0.888232
0.883289
0.846754
0.839426
0.883355
0.880256
0.844578
0.863828
0.868656
0.735516
0.721142
0.756692
0.763392
0.754528
0.85205
1.30991
2.46693
3.46506
3.71228
3.19256
2.82142
1.98133
1.52916
1.46175
1.45386
1.43739
1.78119
2.18505
2.0519
2.18771
2.49115
2.42038
2.28085
2.24288
2.23278
2.49426
2.68646
2.64007
2.45212
2.49148
2.61193
3.25752
3.35822
3.37389
3.14833
3.7709
5.01297
4.58899
4.41794
4.09369
3.18979
2.78486
2.81618
3.29367
3.21332
3.10088
3.20209
3.5892
3.69525
3.25469
2.63054
2.38039
2.31952
11.4885
3.2859
1.62131
1.88199
2.00059
1.5729
1.13319
0.874078
0.72707
0.635436
0.555753
0.447767
0.376669
0.359685
0.350248
0.314346
0.254253
0.211668
0.183776
0.167219
0.155968
0.149631
0.149961
0.15957
0.190783
0.258793
0.390165
0.561465
0.682622
0.70271
0.648849
0.470557
0.253553
0.182553
0.145556
0.127885
0.11928
0.115729
0.114775
0.114904
0.11625
0.119477
0.1218
0.123373
0.126592
0.130997
0.136352
0.143032
0.151006
0.160079
0.170495
0.179351
0.183893
0.186209
0.187182
0.188368
0.190861
0.19209
0.192147
0.191349
0.188012
0.186246
0.185757
0.18561
0.185354
0.185025
0.18607
0.187415
0.190811
0.193834
0.195404
0.198331
0.202834
0.210728
0.219902
0.229443
0.240503
0.248403
0.255557
0.261906
0.264263
0.263851
0.264779
0.260551
0.259064
0.250617
0.240715
0.230707
0.227836
0.228197
0.229926
0.22784
0.222146
0.206413
0.194229
0.193404
0.18894
0.199216
0.217365
0.264965
0.367562
0.429996
0.454186
0.47742
0.483111
0.469552
0.443323
0.450054
0.567705
1.18568
1.4627
1.48181
1.56466
1.61777
1.36235
0.978732
0.852582
0.815014
0.783712
0.73376
0.723598
0.754916
0.757966
0.755475
0.814442
0.814145
0.720356
0.707347
0.734893
0.73347
0.728017
0.782426
1.02516
1.69469
3.23519
3.87961
2.9751
2.37459
1.60386
1.3622
1.40452
1.47382
1.47336
1.77617
2.15884
1.89634
1.94342
2.19351
2.2515
2.21387
2.14616
2.21167
2.6251
2.64614
2.62885
2.42932
2.34773
2.40752
3.07869
3.29222
3.50335
3.16454
3.30614
4.46161
4.41944
4.29182
4.11784
3.25438
2.57856
2.60233
3.15641
3.08252
3.00931
3.11223
3.32983
3.34138
2.91315
2.39956
2.25161
2.25444
14.2614
4.0605
2.77274
2.86929
2.18093
1.49909
0.939378
0.742656
0.648922
0.534342
0.437281
0.369225
0.348693
0.359525
0.355379
0.319306
0.264131
0.236798
0.220923
0.21028
0.205651
0.209902
0.23439
0.289394
0.375449
0.469364
0.55702
0.599508
0.590379
0.518544
0.348414
0.211346
0.158098
0.126799
0.112693
0.105913
0.102873
0.101777
0.101628
0.102355
0.104977
0.108733
0.111669
0.114208
0.117477
0.122053
0.127789
0.13597
0.145957
0.156231
0.165664
0.172565
0.177908
0.182695
0.183761
0.183136
0.182064
0.181892
0.182493
0.183552
0.18328
0.182923
0.184439
0.185947
0.186835
0.188807
0.193683
0.198878
0.203046
0.206777
0.209812
0.213173
0.217091
0.224071
0.231531
0.239699
0.252076
0.260865
0.267755
0.271262
0.272193
0.268189
0.268941
0.262091
0.261817
0.257299
0.254955
0.246263
0.236246
0.226
0.222404
0.219665
0.214064
0.20018
0.185707
0.1865
0.185743
0.195492
0.212184
0.242189
0.338961
0.42723
0.456817
0.478324
0.493443
0.488583
0.462126
0.477077
0.758414
1.2852
1.37228
1.35463
1.44445
1.39901
1.13783
0.863355
0.783043
0.757636
0.729356
0.67992
0.668722
0.684989
0.680495
0.682511
0.707198
0.712432
0.675483
0.703312
0.753355
0.722832
0.712577
0.743694
0.855125
1.06827
1.77255
2.62984
2.15753
1.84153
1.334
1.22014
1.39707
1.42254
1.52367
1.96986
2.335
1.88546
1.80107
1.8293
2.03973
2.05465
2.09284
2.24174
2.64183
2.44924
2.57701
2.39274
2.33848
2.27077
2.7627
3.05937
3.47957
3.30375
3.14779
4.00578
4.14493
4.20456
3.97864
3.2959
2.50353
2.51186
3.07404
2.98114
2.91325
2.99759
3.10853
3.05331
2.70346
2.26054
2.12941
2.16619
17.6392
5.23122
4.44345
3.07128
1.97083
1.01189
0.600678
0.514721
0.470021
0.394694
0.354943
0.341062
0.342947
0.360296
0.361695
0.333666
0.309976
0.305745
0.31032
0.317302
0.326333
0.34855
0.38577
0.426057
0.470529
0.510506
0.514539
0.486838
0.40515
0.26026
0.184051
0.144191
0.116717
0.104058
0.0978732
0.095085
0.0941146
0.0940018
0.0944505
0.0958354
0.098165
0.100894
0.103318
0.106017
0.109269
0.112855
0.116849
0.122117
0.128856
0.137397
0.14962
0.168392
0.179071
0.181165
0.180349
0.174386
0.168583
0.166134
0.165528
0.16452
0.16419
0.167369
0.176909
0.186955
0.194544
0.20245
0.211844
0.217348
0.221729
0.227335
0.231143
0.233221
0.237039
0.244542
0.257363
0.271593
0.291914
0.307744
0.312874
0.312001
0.300685
0.281385
0.268854
0.253751
0.248016
0.248555
0.24885
0.245965
0.238104
0.22942
0.225772
0.220658
0.208894
0.200227
0.185008
0.185157
0.186241
0.188376
0.20643
0.232655
0.315555
0.42101
0.46368
0.487697
0.530068
0.524268
0.507969
0.546345
0.906726
1.28524
1.18845
1.14993
1.24264
1.1903
0.968355
0.774144
0.704431
0.687022
0.679255
0.654744
0.648209
0.649706
0.621304
0.608866
0.603625
0.621547
0.617191
0.703174
0.76925
0.702562
0.635003
0.66374
0.808458
0.820047
1.09715
1.54663
1.60676
1.39582
1.10868
1.24815
1.40229
1.40625
1.50074
2.02063
2.35826
1.84365
1.48695
1.57308
1.87662
1.85962
1.93113
2.17926
2.48184
2.12491
2.33273
2.24388
2.34269
2.25863
2.44857
2.76001
3.38273
3.34568
3.13003
3.56604
3.74763
3.97168
3.59104
3.23147
2.46609
2.49026
3.07617
2.92753
2.82164
2.86333
2.89448
2.8176
2.48962
2.11537
2.01151
2.04568
22.0823
7.15954
4.92734
2.78897
1.2348
0.585472
0.451851
0.440116
0.414204
0.368211
0.351411
0.354349
0.362834
0.365308
0.364041
0.355156
0.354466
0.361327
0.366989
0.370178
0.379273
0.392854
0.415446
0.437654
0.446282
0.434579
0.394617
0.302255
0.21438
0.167258
0.131245
0.111366
0.0996565
0.0943933
0.0921749
0.0914465
0.0913291
0.091571
0.0926476
0.0941843
0.0961458
0.0987192
0.101364
0.104453
0.108066
0.111779
0.115825
0.120616
0.126045
0.131919
0.139003
0.148845
0.158471
0.167902
0.179383
0.184719
0.184588
0.174701
0.162489
0.160771
0.161969
0.166371
0.176835
0.19171
0.204932
0.219371
0.229074
0.237243
0.245841
0.251548
0.258682
0.266115
0.272895
0.287969
0.318899
0.356038
0.39805
0.434039
0.449308
0.452999
0.418103
0.365267
0.300194
0.264893
0.235087
0.223873
0.225444
0.233323
0.231245
0.225051
0.220731
0.217693
0.203941
0.205507
0.19282
0.180806
0.17853
0.179361
0.202926
0.227112
0.287783
0.406617
0.463122
0.501878
0.597104
0.61536
0.595857
0.707998
1.01998
1.18419
1.04306
0.998887
1.06394
1.03577
0.87663
0.737062
0.666346
0.626136
0.608909
0.599217
0.630512
0.632469
0.597854
0.582546
0.56036
0.575939
0.598927
0.69077
0.738612
0.649971
0.592088
0.571486
0.725654
0.78151
0.867679
1.16705
1.29969
1.09786
1.11712
1.36284
1.33345
1.26698
1.35797
1.78928
1.81649
1.45285
1.19886
1.37333
1.80649
1.77925
1.82922
2.04273
2.18492
1.94687
2.07448
2.02783
2.3506
2.28573
2.18189
2.50496
3.04395
3.31344
3.13963
3.22007
3.43582
3.64661
3.33179
3.03962
2.36699
2.396
3.07613
2.90832
2.75874
2.75255
2.68614
2.55101
2.26482
2.00003
1.91616
1.95323
28.5045
9.25664
4.86293
1.94021
0.783868
0.461395
0.417293
0.425035
0.410799
0.376113
0.389534
0.424034
0.41718
0.372869
0.361135
0.359429
0.367013
0.376696
0.378477
0.378939
0.384003
0.390739
0.393357
0.383598
0.357583
0.299425
0.228431
0.182142
0.145256
0.121373
0.105749
0.095692
0.0918878
0.0904103
0.0899972
0.0899903
0.0903475
0.0913015
0.0926558
0.094607
0.0974186
0.100205
0.102676
0.105623
0.109538
0.114004
0.119739
0.126575
0.133568
0.139125
0.143284
0.148211
0.155829
0.163632
0.171663
0.182525
0.194113
0.2002
0.197722
0.179346
0.175878
0.177644
0.188426
0.208503
0.232593
0.247243
0.255773
0.270231
0.288143
0.297352
0.300938
0.306859
0.313695
0.332657
0.366084
0.402764
0.437294
0.477108
0.510482
0.533546
0.532639
0.515044
0.427395
0.339488
0.25558
0.220857
0.202111
0.20049
0.220344
0.220382
0.214513
0.210548
0.195311
0.195446
0.197615
0.178507
0.165476
0.166441
0.190035
0.217847
0.262998
0.382135
0.459152
0.505138
0.630003
0.700205
0.706411
0.836784
1.0668
1.04724
0.914963
0.905068
0.961386
0.951255
0.845776
0.73204
0.654182
0.586778
0.564391
0.556881
0.596013
0.614832
0.586703
0.577172
0.545403
0.559462
0.566236
0.627954
0.68963
0.637627
0.588769
0.514516
0.636963
0.780185
0.817368
0.994512
1.05869
0.973878
1.08924
1.31831
1.22034
1.13861
1.14089
1.3346
1.26752
1.20054
1.06159
1.28639
1.72034
1.73452
1.80273
2.00206
2.03232
1.84528
1.90529
1.91885
2.28967
2.27018
2.14225
2.24065
2.57348
2.86334
2.93646
3.0648
3.20287
3.34007
3.08326
2.91651
2.2898
2.30186
3.04348
2.87976
2.69017
2.6005
2.50502
2.34156
2.08662
1.92671
1.89058
1.93876
37.4215
9.86796
3.98796
1.30426
0.571652
0.415635
0.4111
0.421225
0.416129
0.403066
0.436211
0.457915
0.419761
0.356157
0.345241
0.353858
0.364828
0.368863
0.367873
0.363979
0.358599
0.346943
0.324045
0.28374
0.233318
0.193497
0.1611
0.13502
0.116229
0.104126
0.0961247
0.0914265
0.0896435
0.0889603
0.0888486
0.0891055
0.0902311
0.0922281
0.0948407
0.0981907
0.102204
0.105851
0.109569
0.11476
0.12142
0.128768
0.137239
0.146965
0.15676
0.16314
0.169174
0.174257
0.177728
0.180961
0.18444
0.192378
0.204283
0.214176
0.227762
0.232688
0.226251
0.215939
0.21516
0.225335
0.250764
0.265716
0.281093
0.300842
0.321734
0.32796
0.328076
0.328219
0.33245
0.34804
0.37586
0.408452
0.435797
0.467366
0.492279
0.529701
0.541425
0.544469
0.504986
0.440698
0.342392
0.251435
0.20837
0.188551
0.188629
0.213158
0.212581
0.210685
0.198818
0.191097
0.192725
0.180968
0.160392
0.155399
0.161927
0.194932
0.232689
0.340864
0.444754
0.504824
0.629143
0.768442
0.828065
0.895216
1.07637
1.00473
0.859357
0.860557
0.920252
0.91717
0.83534
0.73448
0.653212
0.571905
0.541888
0.533507
0.532066
0.560757
0.566687
0.559661
0.542154
0.53666
0.57844
0.601261
0.582786
0.620246
0.588329
0.492101
0.623382
0.798454
0.855446
0.959664
0.980805
0.952932
1.04213
1.14941
1.16494
1.03207
1.05829
1.06714
1.03763
1.07846
1.03341
1.27257
1.56298
1.62925
1.8036
2.01227
1.99344
1.80072
1.80188
1.85678
2.26805
2.2854
2.22381
2.09562
2.19392
2.42479
2.57894
2.95957
3.05335
3.16119
2.95264
2.70065
2.18568
2.24676
3.03856
2.8693
2.62481
2.40946
2.32349
2.14283
1.94446
1.87542
2.01279
1.9723
48.1744
9.89165
2.48059
0.757051
0.458867
0.402729
0.409957
0.405605
0.399909
0.402331
0.429788
0.434777
0.371564
0.338254
0.339485
0.35215
0.357546
0.355246
0.343981
0.324495
0.299129
0.265412
0.227649
0.196679
0.168976
0.144228
0.125172
0.112705
0.102886
0.0970962
0.0931499
0.0908905
0.0896943
0.0891316
0.0892829
0.0902883
0.0928459
0.0966899
0.101562
0.107556
0.114139
0.12068
0.128156
0.137898
0.150427
0.164666
0.178677
0.192536
0.206146
0.215069
0.22201
0.227313
0.232441
0.235707
0.235267
0.232596
0.234015
0.251758
0.266089
0.277653
0.282646
0.283141
0.274779
0.271617
0.273257
0.291365
0.30747
0.329109
0.353047
0.361318
0.362047
0.356821
0.353874
0.361046
0.382976
0.413327
0.422509
0.419804
0.418284
0.430763
0.465322
0.487869
0.49068
0.452302
0.388994
0.299851
0.23291
0.196986
0.1799
0.189026
0.204618
0.208849
0.207555
0.197155
0.195183
0.184868
0.160767
0.153128
0.148538
0.168789
0.203982
0.283863
0.416984
0.500895
0.610437
0.837778
0.894057
0.931257
1.04907
0.960911
0.803523
0.803814
0.875183
0.876849
0.822246
0.734341
0.649519
0.563254
0.526029
0.519088
0.50351
0.497554
0.512079
0.527721
0.538607
0.521542
0.579754
0.580136
0.534294
0.523578
0.534769
0.488137
0.62841
0.929386
0.990265
0.988269
0.970428
0.956302
1.02982
1.04067
1.03674
0.901818
0.955124
0.93195
0.929099
0.993133
1.04284
1.30863
1.46127
1.53741
1.78
2.1341
2.01496
1.81065
1.77787
1.85996
2.37574
2.40869
2.30761
2.06291
1.93511
2.24186
2.3258
2.66201
2.97978
3.00943
2.86206
2.5862
2.14144
2.21644
3.03748
2.86818
2.58599
2.22848
2.13096
1.94288
1.81333
1.83371
2.10253
2.19846
56.5465
8.10276
1.53494
0.628117
0.432596
0.400715
0.408584
0.386041
0.390435
0.393363
0.402443
0.390123
0.333187
0.313247
0.315729
0.325424
0.327593
0.320238
0.292806
0.261699
0.2296
0.203322
0.179024
0.154437
0.135154
0.119976
0.109805
0.102363
0.0970902
0.0938417
0.0916867
0.0905846
0.0901032
0.0903189
0.0912698
0.0939938
0.0994597
0.106931
0.114391
0.122143
0.131734
0.143465
0.154903
0.165833
0.176072
0.189195
0.203988
0.216915
0.226386
0.236248
0.243743
0.249767
0.25995
0.26951
0.276056
0.279941
0.280406
0.28011
0.292874
0.317494
0.333055
0.344114
0.346626
0.343719
0.34266
0.348842
0.368273
0.394971
0.414425
0.418978
0.414918
0.403841
0.392972
0.39196
0.399829
0.421391
0.422585
0.40494
0.388949
0.374137
0.379242
0.375788
0.38913
0.390118
0.374866
0.313595
0.243469
0.207212
0.179801
0.179477
0.187782
0.200341
0.204706
0.19794
0.197627
0.191199
0.16477
0.153138
0.147519
0.152866
0.183975
0.227433
0.357505
0.479086
0.592339
0.852098
0.903254
0.970459
0.987719
0.886344
0.707491
0.701469
0.771538
0.788661
0.768627
0.712698
0.629095
0.546818
0.501765
0.501348
0.487852
0.476979
0.484747
0.502257
0.522791
0.515023
0.569226
0.54522
0.475518
0.482885
0.44589
0.488981
0.638735
1.02302
1.10829
1.1249
1.04488
1.02508
1.01672
0.983253
0.915349
0.828081
0.862169
0.867379
0.895935
0.947511
1.07394
1.34757
1.47038