/*--------------------------------*- C++ -*----------------------------------*\
| =========                 |                                                 |
| \\      /  F ield         | OpenFOAM: The Open Source CFD Toolbox           |
|  \\    /   O peration     | Version:  dev                                   |
|   \\  /    A nd           | Web:      http://www.openfoam.org               |
|    \\/     M anipulation  |                                                 |
\*---------------------------------------------------------------------------*/
FoamFile
{
    version     2.0;
    format      ascii;
    class       volScalarField;
    object      muSgs;
    location    "9.14";
}
// * * * * * * * * * * * * * * * * * * * * * * * * * * * * * * * * * * * * * //

dimensions      [1 -1 -1 0 0 0 0];

internalField   nonuniform List<scalar> 
12225
(
0.000227732
0.000250004
0.000206147
0.0002227
0.000195456
0.000238106
0.000219301
0.000276285
0.000258899
0.000318554
0.000297948
0.000371369
0.000351958
0.000423379
0.000442167
0.000521646
0.000536634
0.000646519
0.000102566
0.000186017
0.000169236
0.000182504
0.000158837
0.000170071
0.000152927
0.000165615
0.000156073
0.000165931
0.000159988
0.000163041
0.000165753
0.000161313
0.000169639
0.000173318
0.00016281
0.000205932
3.27835e-05
0.000109535
0.00011431
0.000140178
0.000132833
0.00014203
0.000131418
0.000131485
0.00012539
0.000124572
0.000122301
0.000113685
0.000110177
9.84982e-05
9.7012e-05
8.942e-05
9.18514e-05
0.000100434
1.28603e-05
5.64626e-05
6.57337e-05
8.07545e-05
8.66424e-05
9.54359e-05
9.79843e-05
9.26503e-05
9.21103e-05
8.72588e-05
8.751e-05
8.11596e-05
7.95301e-05
7.22702e-05
7.31996e-05
7.10346e-05
7.96723e-05
0.000109813
7.02132e-06
3.81165e-05
4.56257e-05
5.35355e-05
6.45044e-05
6.77019e-05
7.54593e-05
7.43461e-05
7.4062e-05
7.07898e-05
7.01484e-05
6.77578e-05
6.62913e-05
6.23798e-05
6.27839e-05
6.55298e-05
8.50653e-05
0.000110106
1.45936e-05
4.91878e-05
4.88832e-05
5.49133e-05
5.67012e-05
5.89672e-05
6.52195e-05
6.66173e-05
6.51994e-05
5.89738e-05
5.90669e-05
5.97986e-05
5.97561e-05
5.63562e-05
5.45721e-05
5.35249e-05
5.98602e-05
5.56556e-05
1.19462e-05
2.47467e-05
3.92025e-05
4.0908e-05
4.18102e-05
4.17296e-05
4.94076e-05
4.85125e-05
4.73981e-05
4.06292e-05
4.21303e-05
4.12177e-05
4.14863e-05
3.87612e-05
3.71618e-05
3.5917e-05
3.67926e-05
3.75624e-05
9.47323e-06
1.24369e-05
2.04732e-05
2.12835e-05
2.43891e-05
2.40287e-05
2.97024e-05
2.95569e-05
2.91893e-05
2.53766e-05
2.70262e-05
2.68164e-05
2.75844e-05
2.55302e-05
2.67789e-05
2.58202e-05
3.1816e-05
5.782e-05
1.28042e-05
1.38081e-05
1.71728e-05
1.83654e-05
2.07133e-05
2.0303e-05
2.37152e-05
2.44145e-05
2.4216e-05
2.22242e-05
2.34363e-05
2.35816e-05
2.44683e-05
2.31976e-05
2.34513e-05
2.3747e-05
2.827e-05
3.22404e-05
1.95363e-05
1.95679e-05
1.95462e-05
1.97817e-05
2.02024e-05
2.0073e-05
2.22068e-05
2.24432e-05
2.22721e-05
2.14271e-05
2.19422e-05
2.24905e-05
2.31485e-05
2.29262e-05
2.26421e-05
2.3941e-05
2.41008e-05
2.84056e-05
3.15382e-05
3.1193e-05
2.73934e-05
2.51895e-05
2.33318e-05
2.25241e-05
2.30355e-05
2.31705e-05
2.30095e-05
2.24659e-05
2.23951e-05
2.33845e-05
2.3512e-05
2.41838e-05
2.39356e-05
2.47691e-05
2.45624e-05
2.71673e-05
4.61316e-05
4.38102e-05
3.88954e-05
3.63613e-05
3.12325e-05
2.86577e-05
2.69767e-05
2.62244e-05
2.56417e-05
2.51335e-05
2.47945e-05
2.52638e-05
2.55337e-05
2.57284e-05
2.57646e-05
2.61531e-05
2.60051e-05
2.67964e-05
6.51895e-05
6.19095e-05
5.4251e-05
5.00861e-05
4.37479e-05
4.08339e-05
3.56748e-05
3.33784e-05
3.159e-05
3.08674e-05
2.99107e-05
2.95238e-05
2.91857e-05
2.89025e-05
2.85538e-05
2.83872e-05
2.83e-05
2.89088e-05
9.30401e-05
8.58654e-05
7.45624e-05
6.73331e-05
5.91277e-05
5.46341e-05
4.9011e-05
4.59636e-05
4.31286e-05
4.16158e-05
4.00004e-05
3.84173e-05
3.70176e-05
3.59376e-05
3.50581e-05
3.44137e-05
3.38538e-05
3.34459e-05
0.000127717
0.00011714
0.000103307
9.26002e-05
8.34979e-05
7.6262e-05
6.90631e-05
6.32051e-05
5.83072e-05
5.46267e-05
5.14055e-05
4.87829e-05
4.67258e-05
4.50598e-05
4.37164e-05
4.26028e-05
4.17447e-05
4.10182e-05
0.000169785
0.000155961
0.000134857
0.000117377
0.000103396
9.20118e-05
8.22958e-05
7.43151e-05
6.7838e-05
6.26848e-05
5.84595e-05
5.51535e-05
5.2547e-05
5.04412e-05
4.88284e-05
4.75035e-05
4.64081e-05
4.54923e-05
0.000202509
0.000180591
0.000153067
0.000132263
0.000115623
0.000102151
9.10305e-05
8.19463e-05
7.45617e-05
6.85898e-05
6.37976e-05
6.005e-05
5.70933e-05
5.47538e-05
5.29395e-05
5.14611e-05
5.02823e-05
4.92502e-05
0.000202716
0.000180451
0.000153391
0.000132713
0.000116022
0.000102476
9.13805e-05
8.22624e-05
7.48011e-05
6.87191e-05
6.39012e-05
6.00964e-05
5.70887e-05
5.47406e-05
5.28581e-05
5.1335e-05
5.01338e-05
4.90562e-05
0.000174303
0.000157328
0.000136102
0.00011886
0.000104576
9.28775e-05
8.32093e-05
7.51438e-05
6.84747e-05
6.30139e-05
5.86466e-05
5.5143e-05
5.23862e-05
5.01775e-05
4.8368e-05
4.68972e-05
4.5666e-05
4.46531e-05
0.000131917
0.000120141
0.000105652
9.39225e-05
8.43437e-05
7.63355e-05
6.94778e-05
6.35395e-05
5.8488e-05
5.42291e-05
5.07e-05
4.78313e-05
4.54729e-05
4.34945e-05
4.18436e-05
4.03777e-05
3.91221e-05
3.81589e-05
9.71932e-05
8.79984e-05
7.71283e-05
6.85063e-05
6.15516e-05
5.57668e-05
5.09683e-05
4.68025e-05
4.31864e-05
4.01038e-05
3.75585e-05
3.55221e-05
3.37614e-05
3.22381e-05
3.09015e-05
2.97456e-05
2.88178e-05
2.81294e-05
6.81903e-05
6.28522e-05
5.61679e-05
5.0527e-05
4.57679e-05
4.15793e-05
3.79258e-05
3.48243e-05
3.23317e-05
3.04623e-05
2.9002e-05
2.78924e-05
2.69e-05
2.61331e-05
2.54579e-05
2.48519e-05
2.43612e-05
2.39833e-05
4.62886e-05
4.31478e-05
3.93656e-05
3.58457e-05
3.21851e-05
2.98958e-05
2.87858e-05
2.78845e-05
2.71354e-05
2.64369e-05
2.57734e-05
2.51254e-05
2.45223e-05
2.40385e-05
2.35658e-05
2.31583e-05
2.2789e-05
2.25035e-05
3.02351e-05
2.84517e-05
2.58579e-05
2.48793e-05
2.46432e-05
2.50566e-05
2.57712e-05
2.59571e-05
2.58047e-05
2.58339e-05
2.55606e-05
2.53432e-05
2.51774e-05
2.49624e-05
2.45976e-05
2.43436e-05
2.39383e-05
2.37138e-05
1.7682e-05
1.77849e-05
1.86695e-05
2.10342e-05
2.34573e-05
2.62841e-05
2.8974e-05
3.02426e-05
3.09563e-05
3.16451e-05
3.16967e-05
3.19073e-05
3.20743e-05
3.19748e-05
3.15819e-05
3.12128e-05
3.06464e-05
3.02242e-05
9.52742e-06
1.37071e-05
1.97083e-05
2.83594e-05
3.50666e-05
4.09289e-05
4.52612e-05
4.71457e-05
4.80921e-05
4.85318e-05
4.82608e-05
4.81041e-05
4.78519e-05
4.73278e-05
4.64912e-05
4.55904e-05
4.46152e-05
4.36368e-05
7.20834e-06
2.24846e-05
4.15171e-05
5.80935e-05
6.82787e-05
7.47031e-05
7.81823e-05
7.89028e-05
7.84641e-05
7.74989e-05
7.60701e-05
7.46707e-05
7.32873e-05
7.17816e-05
7.00249e-05
6.82201e-05
6.64299e-05
6.47147e-05
1.96402e-05
6.20203e-05
9.83427e-05
0.000117198
0.000127165
0.000129934
0.000128368
0.000125588
0.000121187
0.000117005
0.000113469
0.000110248
0.000107157
0.00010388
0.000100526
9.73035e-05
9.41297e-05
9.1133e-05
7.71775e-05
0.000164233
0.000191481
0.000189995
0.000183471
0.000173924
0.000164883
0.000157446
0.000151637
0.000146403
0.000141353
0.000136438
0.000131831
0.000127146
0.000122888
0.000118508
0.000114648
0.000110198
0.000239106
0.000283299
0.000265312
0.000230461
0.00020737
0.000195167
0.000189213
0.000186063
0.000184402
0.00018343
0.000182056
0.000180148
0.000177495
0.00017431
0.00017064
0.000166464
0.000161728
0.00015562
3.09405e-05
4.04363e-05
4.31726e-05
4.70423e-05
4.96693e-05
5.13078e-05
5.26887e-05
5.38273e-05
5.56234e-05
5.76729e-05
6.0052e-05
6.33448e-05
6.80405e-05
7.38663e-05
7.8533e-05
8.26232e-05
9.06174e-05
9.90098e-05
0.000105712
0.000115913
0.000125258
0.000133765
0.000143892
0.00015025
0.000156882
0.000162478
0.00016432
0.000165676
0.000165936
0.000166187
0.000169295
0.000173747
0.000176858
0.000181211
0.000188227
0.000194786
0.000201013
0.000204774
0.00020762
0.000210265
0.000216061
0.000225004
0.000235073
0.000243318
0.000251184
0.000259485
0.000267752
0.000275741
0.000282977
0.000289344
0.000295224
0.000300945
0.00030649
0.000311877
0.000317142
0.000322373
0.000327503
0.00033218
0.000336394
0.000340579
0.000344808
0.000348805
0.000352321
0.000355016
0.000357172
0.000359018
0.000360203
0.000361031
0.000360525
0.000359728
0.000358532
0.000356174
0.000352603
0.000347599
0.000341028
0.000333292
0.000324567
0.000315184
0.000305426
0.000294997
0.000284864
0.000273835
0.000262188
0.000250966
0.000240553
0.000232201
0.000226463
0.00022305
0.000220236
0.000217395
0.00021522
0.000214201
0.000214243
0.000214339
0.000214056
0.000214043
0.000215984
0.000220742
0.000228788
0.00023919
0.00025421
0.000266507
0.000272227
0.000278093
0.000277123
0.00026587
0.00025327
0.00024257
0.000230634
0.000223028
0.000221157
0.000222563
0.000226044
0.000222444
0.000213727
0.000196977
0.000184335
0.000192512
0.000241783
0.00029579
0.000340005
0.000394229
0.000448024
0.000464963
0.000468507
0.000456819
0.000450886
0.000444861
0.000437099
0.000435034
0.000434313
0.00042163
0.00040431
0.000449057
0.000485432
0.000512751
0.000534685
0.000555236
0.000572366
0.000560505
0.000551562
0.000533686
0.000523209
0.0005374
0.000553001
0.000563028
0.000571834
0.000564419
0.00055297
0.000543492
0.000536655
0.000524955
0.000510912
0.00050245
0.000490249
0.000487731
0.000487488
0.000483577
0.000465599
0.000436151
0.000403994
0.000384811
0.0004003
0.000451225
0.000462104
0.000450878
0.000428201
0.000432364
0.000439672
0.000477897
0.000519608
0.000547079
0.000592629
0.000639624
0.000668596
0.000686224
0.000695905
0.000704874
0.000733376
0.000788245
5.52598e-05
4.33028e-05
4.70489e-05
5.05057e-05
4.95814e-05
4.70213e-05
4.469e-05
4.41949e-05
4.4693e-05
4.56049e-05
4.67118e-05
4.69415e-05
4.76811e-05
4.96893e-05
5.0685e-05
5.08869e-05
5.16044e-05
5.20714e-05
5.2379e-05
5.33651e-05
5.59975e-05
5.98422e-05
6.93738e-05
7.82957e-05
8.97026e-05
0.000101865
0.00011247
0.000122147
0.000121629
0.000119013
0.000116633
0.000105642
9.18572e-05
8.91882e-05
9.1199e-05
9.51799e-05
0.000102317
0.000102548
0.000103002
0.000107013
0.000111602
0.000120306
0.000135614
0.000144641
0.000149553
0.000152174
0.000153064
0.000153378
0.000153783
0.000154634
0.000156016
0.000158282
0.000161344
0.000165057
0.000168838
0.000172946
0.000176774
0.000179662
0.000181887
0.000183687
0.000184701
0.000185258
0.000184348
0.000181722
0.00017847
0.000175888
0.000173236
0.000170643
0.000168126
0.000165728
0.000161657
0.000156488
0.000150161
0.000143949
0.00013805
0.000132192
0.000126605
0.000122025
0.000117747
0.000113022
0.000109693
0.000104615
0.000100214
9.85093e-05
9.88673e-05
0.000101645
0.000107225
0.000114172
0.00011776
0.00011967
0.000118858
0.000122366
0.000125751
0.0001277
0.000127834
0.000125858
0.0001258
0.000128214
0.000130791
0.000134673
0.000140697
0.000152926
0.000165052
0.000179618
0.000195404
0.000200152
0.000195126
0.000185813
0.000178698
0.000171024
0.000167034
0.000165867
0.000174607
0.000181044
0.000188179
0.000203339
0.000234341
0.000259803
0.000266556
0.000282392
0.000304493
0.000313394
0.000310561
0.000285557
0.000264856
0.000259597
0.000256732
0.000256558
0.000256208
0.000258895
0.000255066
0.000254644
0.000268992
0.000308541
0.000359568
0.000381928
0.000388007
0.000385122
0.000364517
0.000325913
0.000313049
0.000296422
0.00031867
0.00035471
0.000373934
0.000411785
0.000452239
0.000461876
0.000459531
0.000454319
0.000457043
0.000458915
0.000444654
0.000443771
0.000438317
0.00043631
0.000441318
0.000451094
0.000444272
0.000417532
0.000400284
0.000395485
0.000398412
0.000458425
0.000496148
0.000438386
0.000421763
0.000427671
0.00043827
0.000451805
0.000464895
0.000481754
0.00049961
0.000510819
0.000515547
0.000520083
0.000537048
0.000571919
0.000620204
0.000655144
9.03266e-05
5.5762e-05
5.65323e-05
5.47876e-05
4.92469e-05
4.4666e-05
4.32068e-05
4.35108e-05
4.45457e-05
4.56006e-05
4.72431e-05
4.80078e-05
4.76127e-05
4.8032e-05
4.82722e-05
4.76296e-05
4.77475e-05
4.71747e-05
4.54923e-05
4.47714e-05
4.3732e-05
4.38471e-05
4.49967e-05
4.67382e-05
5.17579e-05
5.7598e-05
6.42239e-05
7.69216e-05
8.5156e-05
8.70397e-05
8.62628e-05
8.54048e-05
7.93258e-05
7.59607e-05
7.79968e-05
8.57552e-05
9.46889e-05
9.73243e-05
0.000104629
0.000109592
0.000111765
0.000112414
0.000112025
0.00010999
0.000106036
0.0001026
9.92937e-05
9.76087e-05
9.77313e-05
9.84048e-05
0.000100028
0.000103216
0.000105158
0.000105554
0.000105807
0.000105731
0.000105188
0.000104494
0.000104262
0.000103598
0.000101695
9.85704e-05
9.39494e-05
8.92889e-05
8.58696e-05
8.39208e-05
8.232e-05
8.12063e-05
7.98853e-05
7.78162e-05
7.51139e-05
7.2219e-05
6.97154e-05
6.74785e-05
6.56258e-05
6.37365e-05
6.21335e-05
6.10638e-05
6.00089e-05
5.87811e-05
5.80231e-05
5.69475e-05
5.67768e-05
5.7084e-05
5.84496e-05
6.1583e-05
6.65541e-05
7.1698e-05
7.4258e-05
7.53425e-05
7.49707e-05
7.80823e-05
8.29237e-05
8.61214e-05
8.72364e-05
8.78667e-05
9.05812e-05
9.43624e-05
9.4506e-05
9.3029e-05
9.18894e-05
9.43596e-05
9.89636e-05
0.000108922
0.000128119
0.00014529
0.000148773
0.000142865
0.000139802
0.000136939
0.000135809
0.000141822
0.000152487
0.000162498
0.000185974
0.000224729
0.000243023
0.000240273
0.000226698
0.000225607
0.000234583
0.000229651
0.000218405
0.000199797
0.000187511
0.00018543
0.000183424
0.000181806
0.000185584
0.000194464
0.000202975
0.000214495
0.000226947
0.000228378
0.000258509
0.000283896
0.000286522
0.000305664
0.000273268
0.000272832
0.000260214
0.000237817
0.000241434
0.000249403
0.000267516
0.000296967
0.000320236
0.000334001
0.000338133
0.000337541
0.000343856
0.000359312
0.000359386
0.000361136
0.00036277
0.000363394
0.000369802
0.000381519
0.000388612
0.000391257
0.000391472
0.000378736
0.000394788
0.000419361
0.000462899
0.000447249
0.000432755
0.000417967
0.000400385
0.000421937
0.000435558
0.000426593
0.000423142
0.000419332
0.000417289
0.000427214
0.000454833
0.000489534
0.000504144
0.000488913
0.000133474
7.86725e-05
6.62774e-05
5.50636e-05
4.79204e-05
4.61795e-05
4.7885e-05
5.01815e-05
5.19935e-05
5.20502e-05
5.08033e-05
4.96299e-05
4.80555e-05
4.71185e-05
4.66579e-05
4.55196e-05
4.41921e-05
4.24376e-05
4.03135e-05
3.94534e-05
3.85718e-05
3.80126e-05
3.85495e-05
3.8644e-05
4.0373e-05
4.37512e-05
4.6955e-05
5.23293e-05
6.15264e-05
6.85095e-05
7.1435e-05
7.09473e-05
7.43553e-05
8.60732e-05
9.64222e-05
0.000104469
0.000104543
0.000101152
9.49412e-05
9.1915e-05
8.67663e-05
8.19623e-05
7.87893e-05
7.50807e-05
7.12853e-05
6.75943e-05
6.49473e-05
6.44658e-05
6.48446e-05
6.59721e-05
6.8633e-05
7.20324e-05
7.26813e-05
7.23251e-05
7.05539e-05
6.69743e-05
6.32983e-05
6.24989e-05
6.23063e-05
6.21088e-05
6.11451e-05
5.87974e-05
5.54829e-05
5.36783e-05
5.33761e-05
5.3541e-05
5.37992e-05
5.42844e-05
5.44884e-05
5.44095e-05
5.39414e-05
5.3402e-05
5.30856e-05
5.28279e-05
5.27308e-05
5.28076e-05
5.30003e-05
5.32553e-05
5.35033e-05
5.36464e-05
5.36612e-05
5.35159e-05
5.35989e-05
5.37957e-05
5.42513e-05
5.52624e-05
5.6952e-05
5.91516e-05
6.0052e-05
6.04754e-05
6.02361e-05
6.21345e-05
6.65901e-05
7.0141e-05
7.248e-05
7.61212e-05
8.05646e-05
8.23859e-05
8.2439e-05
7.90538e-05
7.7658e-05
7.95727e-05
7.99162e-05
8.27299e-05
9.18323e-05
0.000105417
0.000112945
0.000115293
0.000117037
0.000122002
0.000132649
0.000145012
0.000156877
0.000168848
0.000199035
0.000229838
0.000229764
0.000193349
0.000187045
0.000190673
0.000191999
0.000186837
0.000182976
0.000177467
0.000168489
0.000168062
0.000166661
0.000158926
0.000163686
0.000174524
0.000182776
0.00020219
0.000221282
0.000217959
0.000219233
0.000234197
0.000277183
0.00031123
0.000256668
0.000264022
0.000236538
0.000208556
0.000225595
0.000251858
0.000238947
0.000246989
0.000273598
0.00027701
0.000281982
0.000282778
0.000283536
0.000305076
0.000315639
0.000316714
0.000322654
0.000326174
0.00032722
0.000353158
0.000344576
0.000362555
0.000402771
0.000379826
0.000401507
0.00043394
0.00041036
0.00044945
0.000475127
0.000467523
0.000404442
0.000390166
0.00041491
0.000410421
0.000392789
0.00038543
0.000385475
0.000400873
0.000423212
0.000436516
0.000420628
0.000390958
0.00017538
0.000100918
6.98951e-05
5.43018e-05
5.122e-05
5.55052e-05
5.95501e-05
6.12737e-05
6.04546e-05
5.80169e-05
5.43856e-05
5.06362e-05
4.79986e-05
4.67576e-05
4.59864e-05
4.496e-05
4.33562e-05
4.05569e-05
3.81176e-05
3.70174e-05
3.56551e-05
3.48953e-05
3.57179e-05
3.59365e-05
3.58112e-05
3.74831e-05
4.08641e-05
4.51286e-05
5.15982e-05
5.90775e-05
6.63984e-05
7.46315e-05
8.75514e-05
0.000101798
0.000103368
9.85352e-05
8.72911e-05
7.83446e-05
7.11278e-05
6.62556e-05
6.19436e-05
5.88121e-05
5.53878e-05
5.22556e-05
4.92034e-05
4.6987e-05
4.63417e-05
4.6388e-05
4.68388e-05
4.80635e-05
5.0514e-05
5.29524e-05
5.35872e-05
5.36981e-05
5.29488e-05
5.08493e-05
4.77321e-05
4.62835e-05
4.58794e-05
4.57808e-05
4.57819e-05
4.54874e-05
4.5123e-05
4.5187e-05
4.55344e-05
4.62786e-05
4.72417e-05
4.83281e-05
4.90749e-05
4.93259e-05
4.94245e-05
4.94041e-05
4.95356e-05
4.97205e-05
4.99875e-05
5.03563e-05
5.08069e-05
5.13051e-05
5.18371e-05
5.25398e-05
5.30166e-05
5.33241e-05
5.36755e-05
5.4072e-05
5.44276e-05
5.47761e-05
5.5235e-05
5.60018e-05
5.6204e-05
5.6314e-05
5.61971e-05
5.70888e-05
5.96831e-05
6.30158e-05
6.70132e-05
7.08506e-05
7.01323e-05
6.75146e-05
6.82953e-05
7.00914e-05
7.29005e-05
7.70212e-05
7.77889e-05
7.91138e-05
8.35989e-05
8.88005e-05
9.38831e-05
9.70725e-05
0.000103624
0.000116483
0.00013414
0.000150322
0.000167113
0.000188638
0.000212167
0.000224703
0.000195323
0.000172343
0.000173826
0.000176695
0.000174536
0.000175433
0.000176877
0.000168907
0.000163223
0.000166354
0.000156929
0.000146541
0.000151276
0.000157076
0.000158115
0.000177306
0.000221182
0.00022534
0.000218058
0.000233027
0.00028171
0.000268115
0.000258576
0.000251916
0.000222331
0.000188517
0.000206246
0.000250236
0.000213762
0.000206191
0.000247884
0.000254107
0.000259993
0.00025495
0.000249381
0.000273799
0.000286376
0.000285196
0.000293364
0.000287803
0.000293472
0.000325828
0.00034389
0.00031809
0.000372527
0.000389438
0.000385936
0.00047587
0.000423255
0.000381851
0.000388114
0.000439472
0.0004132
0.000365088
0.000391767
0.000400049
0.000377783
0.000367601
0.000372079
0.000384332
0.000394636
0.00039611
0.000361537
0.000336523
0.000214588
0.000116356
7.2853e-05
5.93052e-05
6.33947e-05
7.14815e-05
7.42055e-05
7.35335e-05
7.14536e-05
6.73422e-05
6.25792e-05
5.73804e-05
5.25758e-05
4.97322e-05
4.83757e-05
4.6551e-05
4.37887e-05
4.07544e-05
3.75518e-05
3.51598e-05
3.41838e-05
3.45061e-05
3.51519e-05
3.5225e-05
3.58066e-05
3.80042e-05
4.09979e-05
4.51214e-05
5.2932e-05
6.24859e-05
7.35956e-05
8.93021e-05
0.000100117
9.84314e-05
9.03034e-05
7.50317e-05
6.17148e-05
5.53434e-05
5.1506e-05
4.77647e-05
4.54216e-05
4.35682e-05
4.16281e-05
3.99886e-05
3.87391e-05
3.81523e-05
3.81588e-05
3.83874e-05
3.89945e-05
4.02216e-05
4.19854e-05
4.31716e-05
4.36709e-05
4.39105e-05
4.38586e-05
4.31841e-05
4.21215e-05
4.16632e-05
4.14274e-05
4.15812e-05
4.22373e-05
4.30104e-05
4.36515e-05
4.42899e-05
4.4946e-05
4.55354e-05
4.61666e-05
4.67658e-05
4.74866e-05
4.79087e-05
4.81246e-05
4.82746e-05
4.85284e-05
4.89879e-05
4.95382e-05
5.01738e-05
5.08278e-05
5.14988e-05
5.21677e-05
5.30868e-05
5.38555e-05
5.44588e-05
5.49615e-05
5.53727e-05
5.59059e-05
5.63046e-05
5.66674e-05
5.67727e-05
5.65222e-05
5.61483e-05
5.58891e-05
5.59966e-05
5.65155e-05
5.82186e-05
6.04548e-05
5.93053e-05
5.79618e-05
5.65764e-05
6.2161e-05
6.91531e-05
7.61199e-05
8.00208e-05
8.1187e-05
8.22855e-05
8.18059e-05
8.30673e-05
8.69185e-05
8.93938e-05
9.86918e-05
0.000115925
0.000151191
0.000164326
0.000172789
0.000195574
0.000211605
0.000207521
0.000169677
0.000158222
0.000159994
0.000158742
0.00015616
0.000157584
0.000153287
0.000147119
0.000152192
0.000154801
0.000138808
0.000129546
0.00013457
0.000134363
0.000132633
0.000154355
0.000215145
0.000233663
0.000229092
0.000239697
0.000248694
0.000245973
0.000233498
0.000215313
0.000213339
0.000177857
0.000196282
0.000238214
0.000205225
0.000200343
0.000228049
0.000239083
0.000245817
0.000234339
0.000230463
0.000257258
0.000262665
0.000259695
0.000280869
0.000247548
0.00027544
0.000278005
0.000351793
0.000306682
0.000322178
0.00037402
0.000383591
0.000467391
0.000438259
0.000365445
0.000331456
0.000377942
0.000368136
0.000329182
0.000363675
0.0003861
0.000368119
0.000356435
0.000364123
0.000366064
0.000365849
0.000353523
0.000319827
0.000300764
0.000251895
0.000131637
8.10142e-05
7.30163e-05
8.17565e-05
8.99498e-05
8.99256e-05
8.29373e-05
7.68286e-05
7.32736e-05
6.8592e-05
6.17852e-05
5.63227e-05
5.40168e-05
5.24852e-05
5.00552e-05
4.55665e-05
4.04915e-05
3.67684e-05
3.45164e-05
3.3693e-05
3.37153e-05
3.40102e-05
3.45106e-05
3.60127e-05
3.87357e-05
4.22786e-05
4.87398e-05
5.95181e-05
7.41649e-05
9.02956e-05
9.59448e-05
9.27131e-05
8.07059e-05
6.04364e-05
5.02759e-05
4.50138e-05
4.10527e-05
3.91126e-05
3.76242e-05
3.66582e-05
3.60619e-05
3.54391e-05
3.52108e-05
3.53289e-05
3.5618e-05
3.6079e-05
3.67666e-05
3.75965e-05
3.84349e-05
3.92647e-05
3.99793e-05
4.04958e-05
4.07738e-05
4.09675e-05
4.1058e-05
4.10509e-05
4.10595e-05
4.12637e-05
4.17304e-05
4.25093e-05
4.3381e-05
4.41089e-05
4.47226e-05
4.54095e-05
4.59461e-05
4.63346e-05
4.68277e-05
4.72289e-05
4.75945e-05
4.78356e-05
4.80152e-05
4.83438e-05
4.88547e-05
4.94474e-05
5.02048e-05
5.11345e-05
5.21935e-05
5.32541e-05
5.43087e-05
5.50179e-05
5.53026e-05
5.55957e-05
5.54281e-05
5.53571e-05
5.55225e-05
5.6406e-05
5.71919e-05
5.77168e-05
5.78656e-05
5.71109e-05
5.64236e-05
5.55739e-05
5.50769e-05
5.49989e-05
5.4039e-05
5.55344e-05
5.50978e-05
6.1447e-05
7.16567e-05
8.19309e-05
8.74287e-05
8.99761e-05
9.13806e-05
8.81538e-05
8.68231e-05
8.9372e-05
8.82672e-05
9.61969e-05
0.000121633
0.000162994
0.000174875
0.000179569
0.000196005
0.000205998
0.000178013
0.000149004
0.000143294
0.000144025
0.000139931
0.00013695
0.000138328
0.000134619
0.000130878
0.000133891
0.000132751
0.000119081
0.00011912
0.000124757
0.000122128
0.000122114
0.000138603
0.000192009
0.000240275
0.000250984
0.000249277
0.000243729
0.000242069
0.000212077
0.000186156
0.000184053
0.000161393
0.000177519
0.000211718
0.000220246
0.000211247
0.000221773
0.000232851
0.000234888
0.000220017
0.000222043
0.000247584
0.000256224
0.000251876
0.000279096
0.00023984
0.000277892
0.000252286
0.000336834
0.000328486
0.000318053
0.000331029
0.000386949
0.000426253
0.000425355
0.000382994
0.000326934
0.000320515
0.000326268
0.000298326
0.000335832
0.000372224
0.000361706
0.000349206
0.000355106
0.000349277
0.000340164
0.000316073
0.000290631
0.000278246
0.000287837
0.000146537
9.52825e-05
9.57342e-05
0.00010628
0.000107014
9.50965e-05
8.45542e-05
7.72975e-05
7.33863e-05
6.92266e-05
6.22293e-05
5.64877e-05
5.49177e-05
5.43355e-05
5.21296e-05
4.7317e-05
4.23778e-05
3.94068e-05
3.74006e-05
3.61287e-05
3.54571e-05
3.53353e-05
3.56869e-05
3.78202e-05
4.21457e-05
4.89302e-05
6.01813e-05
7.54658e-05
8.75793e-05
8.83189e-05
8.32063e-05
6.95363e-05
5.0538e-05
4.32726e-05
3.90356e-05
3.68922e-05
3.57149e-05
3.52058e-05
3.49555e-05
3.48352e-05
3.48299e-05
3.49099e-05
3.5025e-05
3.52936e-05
3.58042e-05
3.65036e-05
3.73066e-05
3.81826e-05
3.90431e-05
3.99272e-05
4.08686e-05
4.16227e-05
4.20719e-05
4.23266e-05
4.25888e-05
4.29717e-05
4.31966e-05
4.33997e-05
4.36266e-05
4.39767e-05
4.45051e-05
4.50852e-05
4.55073e-05
4.60154e-05
4.6236e-05
4.62682e-05
4.63296e-05
4.65745e-05
4.67985e-05
4.7025e-05
4.72258e-05
4.75874e-05
4.82508e-05
4.90538e-05
5.01777e-05
5.14279e-05
5.25653e-05
5.3371e-05
5.44656e-05
5.54563e-05
5.59311e-05
5.65168e-05
5.65549e-05
5.64038e-05
5.56342e-05
5.5454e-05
5.57332e-05
5.63831e-05
5.71941e-05
5.73616e-05
5.65867e-05
5.56815e-05
5.4747e-05
5.4017e-05
5.36591e-05
5.52561e-05
5.4509e-05
5.72196e-05
6.78923e-05
7.81536e-05
8.45779e-05
8.80515e-05
9.1323e-05
9.10751e-05
9.14418e-05
9.1066e-05
8.77225e-05
9.68049e-05
0.000135245
0.000169372
0.000176173
0.000181116
0.000193981
0.000187928
0.000152377
0.000135555
0.000133826
0.000132389
0.000125732
0.000123118
0.00012647
0.000124877
0.000122856
0.000124751
0.000124468
0.000114043
0.000116771
0.000120424
0.000119723
0.000119417
0.000129552
0.00017041
0.000234055
0.000266743
0.000265943
0.000251569
0.000240191
0.000195462
0.000173158
0.00017069
0.000171938
0.000171396
0.000199593
0.000223497
0.000202784
0.00021495
0.000226518
0.000230674
0.000218603
0.000209345
0.000232017
0.000262527
0.000253953
0.000280046
0.000244727
0.000268828
0.0002424
0.000311152
0.000341365
0.000340193
0.000312927
0.000346808
0.000399634
0.000416167
0.000383455
0.000351704
0.000317618
0.000309849
0.00028294
0.000320881
0.000359337
0.000353007
0.000340629
0.000343817
0.000335522
0.000317394
0.000290316
0.000274585
0.000267659
0.000323266
0.000161686
0.000117603
0.000126836
0.000126103
0.000110827
9.38362e-05
8.27846e-05
7.59593e-05
7.08439e-05
6.62258e-05
5.98253e-05
5.54756e-05
5.50588e-05
5.51861e-05
5.2914e-05
4.83727e-05
4.5126e-05
4.2767e-05
4.10186e-05
3.9532e-05
3.8929e-05
3.93105e-05
4.11176e-05
4.55262e-05
5.38251e-05
6.57416e-05
7.69937e-05
8.16979e-05
8.04292e-05
7.47951e-05
6.11324e-05
4.55977e-05
3.96717e-05
3.61983e-05
3.45483e-05
3.38457e-05
3.36642e-05
3.37318e-05
3.38757e-05
3.41859e-05
3.47075e-05
3.50595e-05
3.53682e-05
3.59565e-05
3.66824e-05
3.74996e-05
3.84083e-05
3.94212e-05
4.05228e-05
4.17491e-05
4.27366e-05
4.32782e-05
4.36493e-05
4.39439e-05
4.43275e-05
4.48751e-05
4.52126e-05
4.5489e-05
4.56324e-05
4.54429e-05
4.54791e-05
4.56622e-05
4.59192e-05
4.60801e-05
4.61205e-05
4.61836e-05
4.62709e-05
4.66038e-05
4.67895e-05
4.68332e-05
4.71391e-05
4.7817e-05
4.89315e-05
5.01696e-05
5.1591e-05
5.30581e-05
5.42299e-05
5.51289e-05
5.60268e-05
5.62191e-05
5.65236e-05
5.66915e-05
5.639e-05
5.65213e-05
5.60855e-05
5.54659e-05
5.53649e-05
5.52098e-05
5.56527e-05
5.60495e-05
5.62393e-05
5.58322e-05
5.44077e-05
5.29737e-05
5.15651e-05
5.29928e-05
5.48e-05
5.494e-05
6.24365e-05
7.54539e-05
8.27923e-05
8.66338e-05
8.99416e-05
9.13064e-05
9.34106e-05
9.00762e-05
8.85613e-05
0.000101585
0.000148715
0.000169562
0.000174557
0.000178898
0.000183417
0.000167614
0.000138414
0.000129655
0.000127156
0.00012241
0.000115143
0.000112933
0.000114784
0.000114234
0.000113667
0.000118166
0.000120575
0.000114601
0.00011438
0.000118303
0.000120018
0.000120903
0.000127481
0.000147928
0.000194996
0.000260077
0.000281997
0.000250443
0.000225535
0.000176978
0.00015912
0.000167488
0.000172771
0.000176048
0.000204977
0.000220914
0.000192817
0.00020001
0.000212434
0.000223839
0.00022042
0.000207546
0.000229196
0.000270313
0.000243335
0.000273176
0.000244848
0.000257499
0.000232757
0.000285547
0.000328531
0.000352661
0.000325076
0.00031441
0.000368782
0.000408904
0.000387047
0.000356941
0.000324117
0.000298145
0.000270442
0.000311223
0.000351331
0.000346572
0.000334773
0.000331214
0.000319969
0.000300905
0.000276293
0.000268379
0.000266969
0.00035935
0.000179177
0.000152742
0.000149655
0.000129603
0.00010594
8.35594e-05
7.44254e-05
7.03831e-05
6.37318e-05
5.77271e-05
5.40416e-05
5.33554e-05
5.48183e-05
5.53908e-05
5.33485e-05
4.92973e-05
4.75554e-05
4.6661e-05
4.60032e-05
4.58191e-05
4.68808e-05
5.02467e-05
5.60823e-05
6.33534e-05
6.94599e-05
7.40373e-05
7.4779e-05
7.24234e-05
6.59214e-05
5.25261e-05
4.19189e-05
3.69431e-05
3.38069e-05
3.24286e-05
3.18438e-05
3.16543e-05
3.1687e-05
3.18278e-05
3.21167e-05
3.26631e-05
3.32935e-05
3.37551e-05
3.41638e-05
3.46919e-05
3.54188e-05
3.63701e-05
3.77167e-05
3.92598e-05
4.07351e-05
4.19751e-05
4.28142e-05
4.34876e-05
4.40171e-05
4.41441e-05
4.41114e-05
4.41008e-05
4.42137e-05
4.44477e-05
4.4763e-05
4.49777e-05
4.5242e-05
4.56688e-05
4.59936e-05
4.61832e-05
4.63782e-05
4.6773e-05
4.71844e-05
4.74848e-05
4.77633e-05
4.82246e-05
4.90896e-05
5.01522e-05
5.14532e-05
5.274e-05
5.4243e-05
5.59975e-05
5.74106e-05
5.81195e-05
5.88235e-05
5.87485e-05
5.87463e-05
5.84981e-05
5.79221e-05
5.755e-05
5.67217e-05
5.60564e-05
5.50999e-05
5.4297e-05
5.40928e-05
5.43256e-05
5.45906e-05
5.42752e-05
5.2485e-05
5.14541e-05
5.04789e-05
5.17583e-05
5.53945e-05
5.50409e-05
5.93481e-05
7.32703e-05
8.43065e-05
8.89862e-05
9.14493e-05
9.35864e-05
9.52969e-05
9.12723e-05
9.29467e-05
0.000118089
0.00015648
0.000165838
0.000169185
0.000173042
0.000168542
0.00015215
0.000130153
0.000123115
0.000119055
0.000115419
0.000110584
0.000109452
0.000108297
0.000106374
0.000105465
0.000107594
0.000108558
0.000107753
0.000109905
0.000114702
0.000117383
0.000120985
0.000125046
0.000135128
0.000156642
0.000206102
0.000258763
0.000231346
0.000198829
0.000159788
0.000150586
0.000168101
0.000168232
0.000179435
0.000212694
0.000223573
0.000199225
0.000195593
0.000197308
0.000211352
0.000206771
0.000211782
0.000233347
0.000262864
0.000226241
0.000255216
0.000236466
0.000254219
0.000228507
0.000252065
0.000307964
0.000342209
0.000343546
0.000314074
0.000339823
0.000386
0.00038546
0.000354202
0.000334985
0.000296437
0.000266246
0.000303636
0.000344291
0.000339605
0.000328699
0.000321037
0.000306087
0.000291613
0.000271473
0.000264981
0.000264509
0.00039871
0.000203867
0.000186185
0.00015249
0.000119827
8.38365e-05
6.5978e-05
6.22074e-05
6.00548e-05
5.57063e-05
5.33777e-05
5.26119e-05
5.30928e-05
5.49502e-05
5.58053e-05
5.43848e-05
5.33314e-05
5.37581e-05
5.48308e-05
5.59179e-05
5.69993e-05
5.8906e-05
6.16659e-05
6.42087e-05
6.67928e-05
6.827e-05
6.74516e-05
6.4388e-05
5.74658e-05
4.56992e-05
3.93432e-05
3.54644e-05
3.25639e-05
3.13438e-05
3.08014e-05
3.06302e-05
3.06511e-05
3.07428e-05
3.0873e-05
3.1121e-05
3.15274e-05
3.20202e-05
3.24754e-05
3.29919e-05
3.35516e-05
3.41017e-05
3.46519e-05
3.53556e-05
3.62606e-05
3.75393e-05
3.95216e-05
4.2289e-05
4.36136e-05
4.40215e-05
4.40607e-05
4.34371e-05
4.2934e-05
4.28845e-05
4.29552e-05
4.29055e-05
4.30296e-05
4.37394e-05
4.50837e-05
4.62705e-05
4.70354e-05
4.76859e-05
4.84215e-05
4.87567e-05
4.92836e-05
5.03122e-05
5.13982e-05
5.25671e-05
5.38383e-05
5.52376e-05
5.69496e-05
5.87415e-05
6.10012e-05
6.27541e-05
6.32981e-05
6.35272e-05
6.26645e-05
6.11212e-05
6.01097e-05
5.86528e-05
5.84316e-05
5.83701e-05
5.82615e-05
5.7029e-05
5.53537e-05
5.36863e-05
5.34743e-05
5.35424e-05
5.26454e-05
5.15532e-05
5.22469e-05
5.25335e-05
5.12854e-05
5.38102e-05
5.43173e-05
5.65551e-05
6.82239e-05
8.14586e-05
8.80021e-05
9.11085e-05
9.59596e-05
9.76634e-05
9.6599e-05
0.000100387
0.000131575
0.000157074
0.000154579