/*--------------------------------*- C++ -*----------------------------------*\
| =========                 |                                                 |
| \\      /  F ield         | OpenFOAM: The Open Source CFD Toolbox           |
|  \\    /   O peration     | Version:  dev                                   |
|   \\  /    A nd           | Web:      http://www.openfoam.org               |
|    \\/     M anipulation  |                                                 |
\*---------------------------------------------------------------------------*/
FoamFile
{
    version     2.0;
    format      ascii;
    class       volScalarField;
    object      p;
    location    "9.14";
}
// * * * * * * * * * * * * * * * * * * * * * * * * * * * * * * * * * * * * * //

dimensions      [1 -1 -2 0 0 0 0];

internalField   nonuniform List<scalar> 
12225
(
98296.2
98181.6
98043.8
97892.7
97728.7
97564.9
97404.9
97262.6
97134.2
97033.3
96950.5
96904.3
96865.7
96874.8
96867.3
96871
96913.3
96585.7
98290.4
98178.6
98041.8
97890.9
97727
97563.2
97403.2
97260.7
97132.5
97031.4
96948.7
96901.9
96864.7
96872.6
96861.4
96899
96927.8
96937.3
98283.7
98174.4
98039.4
97888.4
97724.6
97560.7
97401
97258.5
97130.4
97028.9
96946.6
96894.5
96864.3
96865.9
96881.4
96914
97012.7
97165.4
98274.3
98168.7
98035.9
97884.9
97721.5
97557.5
97398.8
97255.9
97128.8
97026.1
96945.1
96891.6
96861.7
96863.2
96859.2
96937.8
97092.3
97150.5
98264.8
98161.7
98030.8
97880
97717.5
97553.3
97396.8
97253.1
97127.6
97023.4
96944.6
96888.6
96863.7
96863.8
96883.4
96961.2
97071.9
97154.2
98252.6
98153.1
98022.9
97873.5
97712
97548.4
97393.1
97250.1
97124.8
97021.9
96943.4
96888.5
96865
96867.5
96893
96959.9
97055.8
97108.7
98238.6
98142.3
98011.7
97863.9
97703.9
97542.2
97387.9
97245.8
97120.8
97017.9
96940.7
96888.1
96864.1
96864.6
96893.9
96943.3
97050.8
97112.6
98228
98130
98000
97853.2
97695.1
97535.5
97382.5
97241.7
97117.9
97015.7
96938.8
96885.7
96861.3
96861.1
96895
96942.3
97065.9
97147.1
98215.2
98116.2
97987.1
97841.8
97685.9
97528.4
97376.8
97237.4
97115.4
97013.6
96936.6
96884.6
96861.3
96854.9
96894.3
96947.5
97048
97142.9
98194.2
98096.2
97969.1
97826.2
97673
97518.8
97368.9
97231.4
97111.1
97010.7
96935.3
96882.2
96858.6
96863.8
96890.7
96936.5
97022.8
97102.2
98162.1
98068.3
97944.4
97805.2
97655.5
97504.8
97357.9
97223.1
97104.8
97006.4
96930.4
96877.2
96852
96852
96874
96919.1
96978.7
97042.1
98119.5
98028.6
97910.6
97775.7
97630.7
97484
97342
97210
97093.9
96996
96921.3
96867.3
96838.2
96832.1
96845
96872.9
96917.3
96972.4
98058.9
97973.9
97862.6
97733.3
97594.6
97453
97315.8
97188
97075
96979.4
96904
96848.4
96815.7
96802.6
96806.4
96823.5
96850.6
96885.5
97982.9
97896.7
97792.6
97671
97540.3
97405.7
97275.1
97152.7
97043.6
96949.9
96874.1
96817.8
96779.5
96758.2
96751.4
96757
96772.3
96794.5
97865
97783.9
97689.9
97578.9
97458.8
97333.8
97211.6
97095.7
96991.3
96900.2
96825.2
96766.5
96723.2
96694.3
96678
96672.5
96675.4
96685.1
97668.3
97617
97540.2
97444.2
97337
97224.2
97112.1
97004.8
96906.8
96820.3
96746.3
96685.7
96637.9
96602.2
96577.1
96560.7
96551.4
96548
97429.4
97390
97329
97248.9
97156.8
97058.3
96958.6
96862.2
96772.5
96691.5
96620.5
96560
96509.7
96469.3
96437.2
96412.4
96393.3
96379.1
97131.7
97106.3
97059.3
96994.3
96917.7
96834.3
96748.8
96664.6
96584.5
96511.1
96445.5
96387.5
96337.3
96294.8
96259.3
96229.5
96204.2
96183.1
96850.5
96819.3
96777.7
96723.6
96659.9
96589.9
96516.9
96444
96373.9
96308.8
96249.3
96195.8
96148.3
96106.7
96070.7
96039.4
96011.8
95987.5
96577.1
96552.4
96517.5
96472.5
96419.3
96360
96297.3
96234.1
96173.1
96115.3
96061.5
96012.7
95968.9
95929.9
95895.4
95864.9
95837.4
95812.5
96337.3
96319
96290.4
96252.9
96207.9
96156.9
96102.6
96047.4
95993.6
95941.6
95893.1
95848.8
95809
95773.4
95741.5
95712.8
95686.6
95662.5
96131.5
96121.4
96099.3
96068.6
96029.8
95985.3
95937.8
95889.2
95840.8
95794.1
95750.5
95710.5
95674.4
95642.1
95612.8
95586
95561.5
95538.8
95961.9
95961.6
95945.5
95919.2
95885.1
95845.8
95803.5
95760
95716.2
95674.1
95634.8
95598.6
95565.8
95536.3
95509.3
95484.5
95461.6
95440.1
95835.8
95839.9
95826.9
95803.4
95772.8
95737.2
95698.8
95658.8
95618.9
95580.6
95544.7
95511.6
95481.5
95454.2
95429.1
95405.9
95384.3
95364
95747.3
95750.1
95738.4
95716.8
95688.7
95656
95620.3
95583.3
95546.3
95510.8
95477.4
95446.6
95418.4
95392.7
95369.2
95347.3
95326.7
95307.4
95679.9
95685.5
95674.5
95654
95627.7
95597.2
95563.7
95528.9
95494.1
95460.6
95429
95399.8
95372.9
95348.4
95326
95305
95285.4
95266.9
95640.2
95641.6
95629.9
95610.2
95585.4
95556.5
95524.6
95491.4
95458.2
95426.1
95395.7
95367.6
95341.8
95318.1
95296.3
95276.1
95257.1
95239
95613.5
95612.7
95600.4
95581.4
95557.8
95530.1
95499.5
95467.3
95435.2
95403.9
95374.4
95347.1
95321.8
95298.5
95277.2
95257.4
95238.8
95221.1
95598.8
95595.1
95582.5
95564.4
95541.8
95515
95485.1
95453.7
95422.1
95391.4
95362.3
95335.3
95310.3
95287.4
95266.3
95246.7
95228.3
95210.6
95599
95590.6
95574.9
95557.1
95534.8
95508.4
95478.9
95447.7
95416.3
95385.8
95356.9
95330.1
95305.2
95282.4
95261.4
95242
95223.6
95205.9
105059
105058
105057
105055
105052
105048
105041
105032
105020
105005
104987
104966
104942
104914
104883
104849
104810
104769
104724
104676
104625
104572
104515
104457
104395
104331
104264
104193
104120
104044
103966
103885
103803
103716
103627
103535
103440
103341
103241
103140
103036
102933
102829
102726
102623
102520
102417
102313
102209
102106
102004
101903
101803
101705
101609
101515
101425
101338
101254
101175
101101
101031
100967
100908
100856
100810
100771
100738
100714
100696
100687
100686
100693
100708
100732
100765
100805
100854
100910
100973
101043
101120
101202
101289
101380
101476
101575
101678
101783
101891
101999
102108
102219
102331
102443
102555
102667
102782
102900
103023
103151
103284
103422
103564
103711
103857
104007
104156
104296
104458
104622
104789
104955
105113
105252
105365
105447
105493
105498
105458
105368
105229
105036
104790
104494
104151
103762
103330
102861
102360
101831
101278
100737
100228
99712.5
99178.1
98630.8
98083.7
97562
97068.5
96609.6
96197.9
95838.3
95526.6
95249.9
95010.4
94806.9
94626.8
94476.7
94364.2
94292.3
94236.4
94198.7
94168.5
94141.9
94107.3
94076.5
94037.9
94016.7
93998.7
93999.6
94058.6
94121.4
94230.5
94330.7
94382.3
94523.4
94767.1
95060.5
95443.8
95900.7
96415.5
97001.5
97630
98251.2
98814.8
99278.3
99615.3
99810.3
99841.5
105031
105030
105029
105027
105024
105019
105012
105003
104991
104976
104958
104937
104913
104885
104854
104820
104782
104740
104695
104648
104597
104543
104487
104428
104367
104302
104235
104164
104090
104014
103936
103854
103770
103683
103592
103498
103401
103299
103197
103096
102994
102892
102788
102684
102580
102476
102371
102266
102161
102057
101954
101853
101752
101653
101556
101462
101371
101283
101199
101120
101045
100975
100911
100852
100800
100754
100715
100683
100658
100641
100632
100632
100639
100656
100681
100714
100756
100806
100863
100928
101000
101078
101162
101250
101344
101441
101542
101646
101753
101863
101973
102084
102198
102312
102426
102541
102656
102772
102892
103017
103147
103282
103421
103566
103715
103865
104018
104170
104319
104479
104647
104817
104983
105140
105280
105395
105476
105519
105520
105479
105391
105252
105063
104825
104539
104203
103821
103396
102933
102438
101914
101362
100813
100300
99787.9
99256.8
98711.3
98160.9
97640.7
97151.7
96696.1
96290
95933.7
95621.6
95346.2
95099.9
94890.4
94712.4
94563.2
94451.4
94379.7
94322.9
94286.9
94258.4
94230.3
94201.9
94174.3
94131.3
94117.4
94102.2
94103.1
94185.1
94238.5
94342
94425.4
94487.9
94636.5
94888.4
95188.4
95574.4
96018.7
96520
97101.7
97731.6
98355.3
98916.3
99372.1
99699.7
99886
99904.6
104976
104975
104974
104972
104968
104962
104955
104945
104933
104918
104900
104879
104854
104826
104795
104761
104723
104682
104637
104589
104539
104485
104429
104370
104308
104243
104175
104105
104031
103953
103873
103790
103704
103613
103519
103422
103322
103221
103118
103013
102907
102804
102701
102596
102490
102384
102278
102171
102065
101960
101855
101752
101650
101548
101450
101355
101263
101175
101091
101011
100936
100865
100801
100743
100691
100646
100607
100575
100552
100536
100528
100528
100537
100555
100583
100618
100662
100714
100775
100842
100917
100998
101085
101178
101274
101375
101479
101586
101697
101809
101923
102037
102155
102273
102393
102514
102633
102754
102877
103005
103139
103278
103421
103569
103723
103880
104040
104201
104359
104524
104696
104868
105034
105190
105329
105445
105523
105562
105561
105522
105438
105305
105127
104902
104630
104310
103941
103529
103079
102593
102080
101537
100982
100456
99945.4
99419.8
98879.3
98331.8
97808.8
97330.8
96880
96479.6
96125.5
95809.4
95534.3
95281
95065.6
94891.6
94745.5
94638.1
94566.6
94506.9
94477
94453.7
94425
94413.7
94387.5
94343.2
94334.8
94328.7
94345.3
94434.7
94502.8
94566.8
94626.8
94731
94895
95158.5
95470
95862.2
96283.5
96763.1
97335.5
97964
98584.7
99133.6
99570.4
99877.5
100047
100049
104892
104892
104891
104888
104884
104877
104869
104859
104846
104830
104812
104790
104766
104738
104707
104673
104634
104593
104549
104501
104451
104397
104341
104282
104220
104155
104086
104015
103939
103861
103780
103693
103603
103510
103413
103312
103208
103104
103000
102896
102790
102683
102576
102467
102358
102249
102139
102030
101922
101815
101708
101603
101500
101397
101297
101200
101106
101016
100932
100851
100777
100707
100643
100585
100533
100489
100451
100419
100397
100382
100375
100377
100388
100408
100437
100475
100522
100578
100642
100714
100793
100879
100972
101069
101172
101278
101387
101499
101614
101732
101851
101971
102093
102217
102344
102471
102598
102724
102853
102987
103127
103273
103422
103575
103736
103899
104068
104240
104409
104581
104759
104934
105101
105257
105395
105507
105581
105618
105622
105589
105513
105392
105230
105024
104770
104466
104114
103720
103288
102818
102320
101794
101245
100705
100190
99666.7
99138.4
98601.3
98079.5
97613.9
97170.6
96768.4
96412.8
96093.2
95803.5
95541.7
95326.7
95159.8
95019.2
94918.9
94844.2
94785.1
94765.1
94745.1
94716.7
94732.8
94707.2
94680.2
94665.4
94668.2
94712
94812.3
94889.4
94933.7
94956.7
95116.4
95329.7
95584.3
95900.5
96295.3
96692.8
97150.6
97713.4
98330.8
98933.7
99460.1
99865.9
100144
100291
100276
104779
104779
104777
104774
104770
104763
104755
104744
104731
104714
104695
104673
104649
104621
104590
104557
104519
104478
104433
104385
104334
104281
104224
104164
104102
104036
103967
103895
103819
103739
103654
103564
103472
103374
103271
103167
103065
102960
102852
102744
102634
102523
102412
102299
102186
102073
101961
101848
101737
101626
101517
101409
101303
101199
101097
100999
100905
100814
100728
100647
100572
100502
100439
100381
100330
100285
100247
100216
100194
100180
100175
100178
100191
100213
100245
100286
100336
100396
100464
100541
100626
100719
100818
100923
101033
101147
101265
101384
101506
101630
101756
101882
102011
102142
102276
102411
102548
102683
102818
102961
103110
103263
103421
103582
103749
103919
104098
104281
104460
104644
104827
105003
105173
105330
105466
105574
105648
105689
105703
105681
105617
105514
105370
105183
104949
104665
104333
103960
103547
103099
102623
102120
101587
101047
100525
99998.6
99475.2
98945.8
98447.1
97989.3
97549.6
97142.3
96781.2
96459.3
96142.3
95875.3
95671.3
95512.2
95380.6
95285.9
95207.5
95154.3
95139.5
95119.9
95095.1
95130.3
95120.3
95124.8
95096.7
95130
95187.3
95282.8
95393.8
95435.5
95463.4
95615.6
95874
96147.8
96480
96861.8
97238.8
97676.6
98228
98822.7
99395.9
99886.2
100250
100491
100612
100577
104635
104635
104634
104630
104626
104619
104611
104600
104586
104570
104551
104529
104505
104478
104448
104414
104377
104336
104291
104242
104191
104136
104078
104018
103955
103889
103820
103747
103668
103585
103498
103406
103307
103204
103102
102998
102891
102782
102671
102559
102444
102329
102212
102095
101978
101861
101745
101628
101513
101398
101285
101174
101064
100958
100855
100756
100661
100570
100483
100402
100326
100256
100192
100134
100083
100038
100000
99970
99947.8
99934.4
99930
99934.8
99949.4
99973.9
100008
100053
100108
100173
100247
100331
100422
100521
100626
100738
100856
100978
101106
101235
101367
101499
101633
101768
101905
102044
102185
102329
102477
102626
102770
102922
103084
103246
103414
103585
103759
103939
104128
104319
104510
104704
104892
105072
105243
105400
105534
105641
105718
105769
105793
105782
105733
105650
105523
105358
105147
104883
104576
104233
103844
103422
102973
102499
101995
101467
100940
100415
99872.9
99352.9
98877.2
98437.6
98005.3
97597.6
97233.1
96891.8
96561.2
96300.6
96104.1
95946.9
95820.9
95726.5
95648.4
95609.4
95592.9
95582.1
95562.1
95602.9
95630.6
95667.2
95639.5
95693.8
95757.8
95853.9
95986
96039.9
96085.2
96248.9
96528.7
96811.5
97166.1
97541.7
97907.1
98329.3
98862.9
99426.7
99958.3
100397
100713
100914
101004
100948
104459
104460
104458
104455
104450
104443
104436
104425
104412
104396
104378
104357
104334
104308
104279
104246
104210
104170
104126
104078
104026
103971
103912
103851
103787
103719
103647
103571
103490
103404
103312
103215
103114
103011
102907
102799
102689
102576
102460
102343
102224
102104
101983
101861
101739
101617
101495
101374
101254
101135
101019
100904
100792
100683
100578
100477
100380
100288
100201
100119
100043
99972.1
99906.8
99847.6
99794.9
99749.4
99711.4
99680.9
99659
99646.1
99642.3
99648.4
99664.9
99691.7
99729.3
99777.6
99836.9
99907.1
99987.7
100078
100178
100285
100399
100519
100645
100775
100909
101047
101189
101333
101477
101623
101769
101919
102070
102223
102381
102547
102702
102858
103031
103208
103388
103573
103758
103951
104152
104349
104548
104752
104950
105135
105305
105461
105595
105701
105786
105850
105885
105887
105855
105793
105688
105549
105364
105122
104843
104535
104178
103781
103362
102915
102441
101944
101420
100891
100346
99843.5
99383.3
98960.2
98536
98126.5
97755.6
97384.5
97075
96824
96624.3
96464.7
96338.4
96240.8
96158.6
96133.5
96127.4
96135
96102
96172.9
96223
96297.7
96289.5
96357.2
96449.5
96527.7
96660.6
96765.1
96834.3
97024.6
97305.9
97594.1
97951.9
98326.3
98682.8
99092.8
99599.5
100123
100599
100981
101247
101413
101472
101396
104253
104253
104252
104249
104244
104237
104230
104220
104207
104192
104175
104156
104135
104111
104083
104052
104018
103979
103937
103891
103840
103785
103726
103664
103597
103526
103451
103370
103285
103193
103097
102999
102898
102793
102685
102574
102460
102342
102222
102100
101976
101851
101725
101598
101471
101344
101217
101091
100966
100843
100723
100605
100490
100378
100271
100168
100069
99975.1
99886.2
99802.2
99723.7
99651.1
99584.4
99523.9
99470.1
99423.4
99384.3
99353.7
99332.3
99320.1
99317.6
99325.2
99343.9
99373.1
99413.2
99464.9
99528.4
99603.5
99689.4
99785.7
99891.8
100007
100130
100259
100394
100534
100678
100826
100975
101127
101282
101439
101597
101757
101921
102085
102239
102440
102605
102763
102946
103136
103329
103528
103729
103937
104147
104354
104567
104782
104986
105175
105348
105507
105642
105752
105850
105931
105979
105996
105982
105942
105866
105753
105599
105391
105146
104867
104543
104177
103787
103370
102918
102453
101958
101417
100897
100413
99962.6
99541.2
99134.3
98731.3
98342.1
97952.6
97653.3
97406.9
97206.3
97042.6
96920.7
96826.5
96738.7
96715.6
96729.2
96736.4
96733.8
96804
96882.8
96980.8
97044.9
97109
97216.2
97316
97424.7
97586.2
97706.1
97899.8
98189.4
98502.3
98845.3
99206.6
99556.2
99951.4
100422
100895
101305
101630
101854
101988
102020
101926
104015
104016
104015
104012
104007
104001
103993
103984
103972
103959
103944
103927
103908
103886
103860
103831
103798
103761
103720
103675
103625
103571
103511
103447
103378
103304
103225
103140
103051
102958
102862
102762
102659
102551
102438
102322
102203
102080
101954
101827
101697
101567
101436
101304
101172
101040
100909
100779
100651
100525
100401
100280
100162
100048
99936.7
99830.2
99728.3
99631.6
99540.2
99454.1
99373.4
99298.7
99230
99167.8
99112.6
99065.1
99025.7
98995.5
98975.3
98964.9
98964.5
98974.2
98994.5
99025.5
99067.5
99121.4
99188.4
99268.4
99359.6
99462.6
99575
99697.2
99826.5
99963.5
100105
100254
100407
100565
100726
100888
101051
101217
101385
101553
101729
101904
102077
102281
102467
102644
102838
103040
103247
103457
103670
103889
104109
104331
104561
104783
104992
105187
105364
105528
105671
105792
105904
105998
106061
106098
106108
106087
106036
105946
105819
105650
105446
105195
104906
104587
104239
103858
103434
102990
102532
102018
101504
101022
100580
100158
99769.5
99374.3
98987.3
98600.9
98288.5
98045.8
97849.8
97671.3
97545
97448.4
97374.5
97352.3
97387
97384.6
97412
97492.3
97600.3
97723.8
97849.3
97934.2
98062.6
98193.8
98309.1
98463.9
98641.1
98879.9
99167.3
99506.4
99830.8
100177
100515
100890
101317
101731
102069
102340
102531
102628
102642
102529
103746
103747
103748
103745
103741
103735
103727
103719
103709
103698
103686
103671
103654
103634
103611
103583
103551
103515
103475
103430
103380
103326
103266
103200
103129
103053
102972
102887
102797
102703
102606
102503
102395
102282
102165
102043
101918
101789
101658
101525
101390
101254
101118
100981
100844
100708
100572
100438
100306
100176
100050
99925.8
99805.4
99688.5
99575.2
99466.2
99362.3
99263.2
99168.8
99079.4
98995.8
98918.7
98847.9
98784
98727.6
98679.6
98640.8
98611.7
98593
98584.2
98585
98595.5
98615.5
98645.6
98687.1
98741.5
98810.3
98894.7
98992.2
99102.5
99223.6
99354.5
99493
99638.8
99790.3
99946.2
100106
100269
100438
100609
100782
100956
101135
101309
101500
101693
101876
102085
102289
102482
102687
102904
103126
103350
103577
103807
104040
104278
104519
104745
104959
105163
105350
105517
105669
105806
105929
106035
106120
106181
106220
106220
106191
106129
106030
105891
105721
105515
105264
104978
104669
104335
103955
103533
103097
102627
102133
101659
101228
100827
100445
100054
99667
99302.9
98981.5
98745.2
98550.8
98360.8
98218.3
98099.3
98042.7
98036.6
98079.1
98091.4
98134.5
98233.1
98347.2
98520.5
98670.7
98793.6
98975.7
99127.7
99284.5
99444.8
99658.6
99937
100233
100581
100898
101222
101537
101889
102267
102617
102889
103108
103261
103321
103316
103183
103446
103448
103450
103448
103444
103439
103433
103428
103422
103415
103405
103393
103378
103360
103338
103311
103280
103245
103205
103160
103110
103055
102995
102929
102858
102781
102700
102615
102524
102428
102327
102220
102107
101989
101866
101739
101608
101474
101338
101200
101060
100919
100778
100636
100495
100354
100214
100076
99939.2
99805.1
99674.3
99547.1
99423.5
99303.6
99187.5
99076
98969.4
98867.7
98771.5
98680.3
98594.4
98515
98442.5
98377.2
98320.3
98272.6
98234.7
98207.1
98189.3
98180.4
98179.5
98186.7
98202.5
98228.2
98266.4
98319.2
98388.3
98475.4
98579.1
98696.4
98826.4
98966.2
99115.4
99270.2
99432.7
99599.3
99771.6
99945.2
100121
100297
100477
100657
100844
101031
101229
101437
101633
101845
102066
102275
102488
102715
102952
103192
103434
103679
103928
104181
104422
104656
104880
105095
105296
105471
105630
105782
105921
106043
106149
106233
106299
106329
106329
106299
106237
106137
105998
105835
105642
105379
105079
104786
104452
104054
103645
103208
102743
102302
101894
101515
101131
100759
100366
100028
99715.3
99460.9
99250.2
99069.2
98936.2
98817.7
98743.8
98750.8
98798.1
98837.1
98907.3
99024.1
99128.5
99321.2
99522.6
99651.8
99901.6
100096
100291
100506
100766
101043
101366
101702
102007
102308
102610
102932
103257
103541
103756
103921
104030
104056
104025
103863
103115
103117
103120
103120
103119
103117
103115
103113
103110
103105
103099
103089
103076
103060
103040
103015
102986
102952
102913
102868
102819
102764
102704
102639
102568
102492
102411
102324
102231
102132
102026
101914
101796
101673
101545
101413
101278
101140
100999
100856
100712
100567
100422
100276
100131
99986
99842.3
99700.5
99560.6
99423.3
99288.7
99157.3
99029.1
98904.6
98784.9
98670.3
98560.5
98456.6
98357.7
98263.8
98175.9
98094.6
98020.9
97955.4
97898.8
97851.5
97814.1
97786.5
97767.3
97755.1
97749.1
97750.2
97759.8
97780.3
97815.2
97867.1
97937.2
98026.8
98135.2
98258.7
98394.9
98540.5
98696
98858
99028.2
99203.5
99384.9
99571.6
99761.4
99951.4
100145
100325
100522
100716
100908
101126
101342
101562
101799
102024
102248
102483
102731
102985
103240
103498
103760
104027
104269
104512
104749
104974
105192
105385
105554
105716
105872
106014
106141
106248
106335
106402
106435
106436
106400
106338
106237
106103
105968
105770
105504
105233
104937
104563
104180
103782
103353
102935
102532
102165
101782
101428
101066
100729
100435
100181
99948.8
99776.1
99656.1
99558.6
99481.9
99491.2
99563.3
99561.8
99686.2
99833.5
99965.8
100101
100374
100545
100803
101063
101316
101566
101872
102159
102525
102857
103144
103418
103707
103998
104270
104488
104651
104762
104833
104825
104757
104574
102755
102758
102761
102762
102765
102767
102769
102770
102769
102768
102764
102758
102748
102735
102717
102695
102669
102637
102600
102557
102509
102455
102396
102331
102261
102184
102102
102012
101917
101814
101704
101588
101466
101339
101207
101071
100932
100791
100647
100501
100354
100205
100056
99907.2
99758.4
99610.3
99463.4
99318.3
99175.2
99034.6
98896.9
98762.5
98631.4
98504.1
98380.3
98260.6
98146.3
98038
97936.3
97841.2
97752.1
97669.1
97594.1
97527.5
97469.9
97421.6
97382.7
97352.6
97329.7
97312.2
97300.7
97296.5
97301.8
97319.3
97352.2
97403.7
97475.8
97568.5
97681.1
97809.4
97949.6
98098.8
98255.8
98420.9
98592.8
98773.9
98959.8
99153.5
99353.8
99548.6
99759.7
99963.1
100166
100371
100567
100782
101011
101237
101479
101720
101953
102198
102456
102725
102990
103258
103537
103809
104072
104318
104563
104800
105031
105240
105429
105610
105783
105943
106090
106218
106325
106419
106483
106525
106517
106484
106410
106317
106213
106079
105878
105650
105387
105054
104688
104319
103931
103536
103147
102774
102405
102070
101761
101415
101121
100887
100679
100503
100357
100278
100224
100218
100302
100300
100426
100596
100784
100893
101196
101456
101712
102012
102344
102641
102949
103277
103662
103999
104282
104544
104806
105063
105281
105435
105560
105621
105652
105617
105506
105323
102369
102372
102375
102377
102380
102384
102388
102392
102397
102402
102404
102404
102398
102389
102375
102356
102332
102303
102267
102227
102180
102128
102070
102006
101935
101858
101773
101682
101583
101477
101364
101245
101120
100990
100856
100718
100576
100432
100286
100138
99987.9
99837
99685.5
99533.6
99381.7
99230.6
99080.5
98932.1
98786
98642.4
98501.9
98364.6
98230.7
98100.2
97973.9
97852.5
97736.3
97624.6
97517.9
97417.6
97327
97243.2
97166.2
97097.3
97037.1
96985.7
96943
96908.5
96880.9
96859.5
96845
96838.5
96842
96857.8
96888.5
96938.5
97010.5
97104.2
97218.8
97351.7
97495.5
97647.3
97804.1
97969.6
98141.1
98322.2
98511.2
98702.5
98910
99115.2
99326.9
99546.3
99758.6
99979.9
100193
100403
100635
100862
101108
101364
101609
101861
102125
102404
102679
102964
103256
103531
103813
104070
104321
104570
104815
105040
105249
105451
105643
105815
105976
106128
106262
106375
106470
106548
106580
106606
106567
106521
106450
106334
106176
106002
105764
105470
105135
104793
104429
104066
103727
103367
103013
102686
102399
102086
101795
101550
101382
101216
101056
100973
100943
100930
100988
101033
101155
101324
101544
101723
102007
102324
102636
102957
103345
103733
104040
104393
104771
105117
105400
105651
105885
106106
106271
106363
106458
106477
106467
106422
106275
106077
101966
101968
101971
101974
101978
101982
101989
101997
102005
102016
102024
102028
102028
102023
102013
101998
101978
101951
101918
101880
101835
101784
101726
101662
101591
101513
101428
101334
101234
101126
101011
100890
100764
100633
100498
100358
100215
100070
99922.2
99772.2
99620.2
99466.7
99312
99156.7
99001.6
98847.1
98693.8
98542.2
98393
98246.6
98103.1
97963.2
97827.2
97695.4
97568
97444.8
97325.8
97212.2
97105.1
97004.4
96907.5
96819
96739
96666.8
96602.5
96546.7
96499.3
96459.9
96428.7
96405.1
96389.7
96382.6
96384.7
96398.3
96427.1
96473.1
96539.8
96630.3
96742.6
96875.8
97025.2
97179
97337.8
97500.4
97673
97851.5
98040.2
98233.6
98440.9
98655.8
98868
99091.8
99311.5
99537.2
99768.3
99983.2
100217
100451
100695
100962
101220
101476
101744
102026
102314
102615
102906
103201
103481
103755
104015
104275
104532
104778
105005
105223
105427
105615
105796
105969
106142
106285
106397
106494
106556
106637
106664
106656
106623
106522
106401
106266
106054
105781
105486
105190
104866
104531
104212
103882
103558
103250
102953
102675
102414
102174
102005
101854
101731
101650
101628
101603
101643
101750
101875
102045
102268
102532
102800
103112
103531
103892
104276
104751
105112
105469
105848
106190
106457
106687
106903
107102
107215
107259
107318
107299
107256
107189
107034
106779
101548
101551
101556
101562
101570
101578
101589
101600
101612
101625
101635
101643
101646
101645
101638
101626
101608
101585
101554
101518
101474
101424
101367
101304
101233
101154
101068
100974
100872
100764
100649
100528
100401
100270
100134
99993.9
99850.6
99704.1
99554.4
99402.1
99247.2
99090.2
98931.9
98773
98614
98456
98299.3
98144.5
97992.4
97843.4
97697.9
97556.8
97420.2
97287.5
97159
97035.5
96916.3
96801.7
96692.3
96588.9
96491.5
96400.8
96316.7
96239.7
96170.3
96109.4
96057.2
96013.8
95979.5
95954.2
95937.8
95929.8
95931
95943.4
95969.8
96011.8
96073.6
96157.8
96266.2
96393.3
96541.5
96696.7
96856.8
97017.8
97189.6
97366.6
97554.1
97747.9
97948.5
98165.6
98384.9
98608.8
98838.5
99063
99301.9
99529
99764.8
100010
100250
100514
100784
101043
101314
101595
101898
102195
102495
102808
103092
103374
103643
103911
104175
104438
104683
104915
105134
105347
105556
105746
105939
106122
106262
106370
106455
106550
106622
106648
106659
106602
106530
106430
106246
106001
105750
105499
105225
104926
104611
104295
104009
103739
103455
103183
102952
102750
102571
102417
102317
102261
102249
102237
102290
102407
102541
102726
102962
103238
103523
103841
104334
104732
105111
105639
106060
106450
106833
107153
107414
107631
107835
108022
108086
108101
108122
108073
107995
107893
107736
107397
101109
101113
101121
101131
101145
101161
101178
101195
101212
101228
101242
101252
101258
101259
101255
101246
101231
101209
101180
101145
101102
101053
100997
100934
100863
100784
100698
100604
100503
100395
100280
100159
100033
99901
99764.7
99623.9
99479.1
99330.4
99178.3
99023.2
98865.1
98704.7
98543.2
98381.1
98218.8
98057.1
97896.7
97738.9
97584.3
97433.2
97286.4
97144.3
97007
96874.4
96746.2
96622.4
96503.1
96388.9
96280.6
96177.7
96079.1
95985.5
95899.1
95819.6
95746.8
95681
95623.1
95574.6
95536.5
95508.9
95491
95482.6
95483
95495.1
95519.8
95559.4
95619.6
95701.2
95807
95928.8
96065.7
96211.4
96368.1
96528.6
96695.3
96870.5
97053.8
97247.5
97446.1
97654.4
97878.2
98102
98338.3
98566.6
98805.8
99045.6
99277.1
99528.2
99771.9
100028
100304
100570
100839
101120
101427
101718
102035
102350
102651
102939
103216
103487
103754
104024
104287
104536
104775
105013
105247
105453
105651
105860
106042
106184
106297
106413
106492
106562
106598
106597
106573
106497
106324
106122
105923
105706
105461
105204
104933
104650
104393
104140
103879
103632
103421
103245
103074
102925
102823
102768
102775
102813
102889
102990
103124
103326
103576
103846
104164
104522
105021
105460
105890
106424
106864
107308
107700
108000
108272
108477
108676
108847
108860
108861
108854
108796
108683
108577
108374
107939
100644
100650
100659
100674
100695
100722
100748
100774
100799
100821
100840
100853
100863
100867
100866
100859
100846
100826
100799
100765
100724
100675
100620
100557
100486
100408
100322
100229
100129
100021
99906.8
99786.2
99659.7
99527.7
99390.5
99248.4
99101.9
98951.2
98796.8
98639.1
98478.5
98315.5
98151.5
97987.1
97822.2
97657.7
97495.1
97335.4
97179.2
97027.4
96880.4
96738.2
96600.5
96466.7
96336.9
96211.2
96090.4
95974.5
95863.7
95758.2
95659.9
95568.8
95483.1
95403.3
95329.8
95262.5
95201.7
95148.4
95104.8
95073.3
95052.1
95041.7
95042
95053.7
95078.4
95115.8
95174.4
95251.9
95350.2
95465.3
95593.2
95730.7
95877.4
96035.4
96198.5
96370.2
96548.3
96735
96933.4
97135.6
97357.1
97581.9
97818.8
98053.3
98286.4
98533.4
98766.9
99016.4
99268.2
99517
99790.2
100064
100330
100611
100908
101210
101529
101845
102156
102451
102736
103014
103288
103559
103832
104095
104356
104606
104862
105092
105303
105515
105722
105914
106060
106187
106289
106399
106448
106491
106495
106425
106286
106137
105978
105790
105572
105355
105146
104917
104686
104439
104187
103975
103776
103607
103451
103334
103246
103192
103211
103281
103378
103478
103612
103837
104083
104370
104734
105138
105597
106105
106637
107129
107568
108052
108423
108720
109018
109217
109409
109549
109517
109517
109486
109435
109312
109196
108911
108460
100218
100228
100241
100267
100300
100337
100376
100412
100445
100473
100497
100515
100527
100534
100535
100530
100518
100500
100474
100441
100401
100353
100298
100235
100164
100086
100001
99907.5
99807.2
99699.9
99585.8
99465.1
99338.5
99206
99068.1
98925.2
98777.5
98625.5
98469.6
98310.4
98148.5
97984.3
97819.1
97653.2
97486.7
97320.8
97157.2
96997.1
96841.1
96689.6
96543
96400.9
96262.7
96128
95997.3
95870.3
95747.3
95628.9
95515
95405.7
95301.5
95207.6
95120.3
95039.5
94965.7
94900.3
94840
94786.9
94741.2
94705.2
94679.6
94665
94662.7
94671.7
94693.8
94730.1
94785.6
94859
94948.4
95055.6
95175.2
95307.4
95446.6
95597.1
95754.8
95921.2
96097.5
96280.3
96473.3
96672
96885.4
97111.1
97342.1
97581.4
97809.7
98054.6
98294.7
98539.3
98795.1
99043
99305.9
99583.9
99847.4
100124
100409
100720
101028
101348
101665
101963
102253
102541
102825
103103
103378
103649
103921
104176
104434
104694
104925
105131
105337
105554
105721
105848
105989
106121
106193
106272
106294
106240
106153
106044
105906
105743
105561
105408
105245
105048
104833
104604
104373
104184
104001
103839
103679
103584
103512
103485
103499
103568
103702
103837
103974
104234
104476
104796
105169
105619
106056
106634
107217
107672
108134
108628
108961
109283
109614
109806
109996
110094
110039
110050
109995
109946
109828
109679
109323
108944
99856.1
99869
99891.8
99932.9
99981.3
100033
100083
100130
100169
100202
100229
100250
100265
100274
100274
100272
100261