/*--------------------------------*- C++ -*----------------------------------*\
| =========                 |                                                 |
| \\      /  F ield         | OpenFOAM: The Open Source CFD Toolbox           |
|  \\    /   O peration     | Version:  dev                                   |
|   \\  /    A nd           | Web:      http://www.openfoam.org               |
|    \\/     M anipulation  |                                                 |
\*---------------------------------------------------------------------------*/
FoamFile
{
    version     2.0;
    format      ascii;
    class       volScalarField;
    object      p_0;
    location    "9.14";
}
// * * * * * * * * * * * * * * * * * * * * * * * * * * * * * * * * * * * * * //

dimensions      [1 -1 -2 0 0 0 0];

internalField   nonuniform List<scalar> 
12225
(
102621
102468
102270
102037
101771
101487
101191
100902
100617
100353
100103
99885.5
99678.7
99514.7
99334.3
99156.2
98964.1
98422.8
102608
102460
102263
102031
101765
101481
101185
100896
100611
100348
100098
99879.5
99673.6
99508.3
99323
99180.6
98981.8
98766.3
102588
102444
102249
102017
101751
101468
101173
100883
100599
100336
100087
99866.2
99665
99492.9
99324.7
99187.9
99077.5
99008.1
102557
102417
102225
101994
101729
101445
101152
100863
100580
100316
100069
99847.7
99647.8
99476.1
99304
99206.3
99141.4
99009.8
102512
102377
102189
101958
101695
101412
101122
100832
100552
100288
100044
99821.3
99627.5
99453.1
99297.7
99208.1
99128.9
99023.9
102449
102321
102135
101907
101645
101364
101077
100789
100511
100254
100006
99787.3
99593.8
99423.8
99275.7
99181.8
99109.5
98962.5
102367
102244
102060
101835
101576
101299
101014
100729
100452
100188
99952
99734.1
99545.7
99380.2
99242
99126.1
99077.9
98931.1
102272
102156
101975
101753
101498
101224
100942
100661
100387
100127
99891.9
99676.1
99490.5
99328.4
99196.6
99082.6
99040
98942.3
102175
102062
101884
101664
101414
101143
100865
100587
100317
100061
99827.7
99615.5
99432
99269.9
99143.8
99039.7
98981.8
98926.4
102047
101936
101763
101547
101301
101037
100762
100489
100224
99972.8
99743.6
99533.1
99352.1
99196.2
99070.7
98965.7
98904.6
98849.3
101880
101771
101602
101392
101152
100894
100626
100359
100100
99854.3
99627.8
99423.1
99244.8
99092.4
98965.8
98864.3
98788.5
98726.4
101666
101551
101389
101186
100955
100704
100445
100185
99933.3
99694.2
99474.4
99274.2
99098.9
98947.9
98822.1
98718.1
98631
98561.9
101369
101261
101106
100913
100692
100452
100203
99953.6
99711.4
99481.7
99268.3
99074.5
98903.4
98754.7
98627.1
98521.7
98426.9
98350.2
100975
100876
100733
100552
100344
100118
99883
99647
99417.2
99198.2
98994.1
98808.6
98642
98494.8
98365.7
98252.7
98160.5
98079.9
100471
100376
100245
100080
99888.7
99679.8
99462.5
99243.3
99029.1
98824.3
98632.5
98456.6
98297.3
98154.8
98028.4
97916.9
97819.8
97736.3
99790.5
99725.5
99614.2
99468.7
99298.7
99111.7
98915.9
98717.5
98522.6
98335.6
98160.2
97997.8
97849.3
97714.9
97594.1
97485.8
97389
97302.6
98959.9
98906
98815.2
98693.2
98548.3
98387.6
98218.1
98045.7
97875.4
97711.1
97556.2
97412
97279.1
97157.8
97047.4
96947.2
96856.3
96774
98014.7
97976.1
97905.7
97808.3
97690.4
97558.3
97417.7
97273.6
97130.4
96992.1
96861.3
96739.4
96626.6
96522.8
96427.5
96340.2
96260.2
96187.2
97121.4
97093.1
97040.5
96965.1
96871.8
96765.3
96650.9
96533.3
96416.5
96303.6
96196.8
96097
96004.5
95918.7
95839.8
95767
95699.7
95637.9
96368.8
96347.3
96307.3
96248.7
96174.2
96088.2
95995.7
95900.9
95807.2
95716.6
95630.9
95550.3
95474.9
95405
95340.4
95280.9
95225.8
95174.9
95767.6
95741.9
95709.2
95662.2
95601.3
95531.6
95457.5
95381.8
95307.2
95235.3
95166.6
95101.5
95040.1
94983.4
94931.1
94883
94838.6
94797.4
95279.8
95262.8
95236.2
95196.5
95146.2
95089.5
95029.6
94968.8
94909.1
94851.2
94795.6
94742.5
94692.9
94647.2
94605.2
94566.5
94531
94498.1
94905
94893.6
94870.4
94836.4
94794.6
94747.7
94698.5
94648.7
94599.7
94552.4
94506.6
94463.1
94422.9
94386.1
94352.4
94321.4
94293
94266.7
94627.6
94614.8
94593
94563.4
94528.1
94488.8
94447.6
94406.1
94365.1
94325.4
94287.3
94251.5
94218.7
94188.8
94161.6
94136.5
94113.5
94092.3
94420.9
94409.2
94389.1
94362.5
94331.7
94297.9
94262.4
94226.8
94191.7
94157.8
94125.7
94096
94068.6
94044
94021.6
94001
93982.1
93964.7
94272.7
94262.3
94243.5
94219
94191.4
94161.5
94130.1
94098.7
94068.1
94038.6
94010.9
93985.4
93962.1
93941.1
93922.3
93904.9
93889
93874.4
94172.7
94162
94143.9
94120.9
94095.6
94068.3
94039.9
94011.5
93983.8
93957.4
93932.8
93910.3
93889.8
93871.4
93854.8
93839.7
93825.9
93813.2
94110.9
94097.7
94080.2
94057.8
94034.3
94009
93982.5
93955.9
93930.2
93905.8
93883.2
93862.6
93843.9
93827
93812
93798.3
93785.8
93774.2
94072.1
94059.8
94040
94021.3
93999.4
93975.4
93950.1
93924.7
93900.1
93876.8
93855.3
93835.7
93817.9
93802
93787.8
93774.9
93763.1
93752.1
94064
94044.7
94024.6
94006
93984.6
93961.1
93936.3
93911.4
93887.3
93864.5
93843.4
93824.2
93806.8
93791.3
93777.4
93764.9
93753.4
93742.6
100931
100932
100933
100934
100936
100937
100938
100938
100938
100936
100933
100929
100924
100918
100911
100903
100895
100886
100877
100868
100859
100851
100844
100838
100833
100828
100825
100821
100818
100816
100814
100815
100817
100819
100823
100829
100834
100839
100846
100854
100863
100873
100885
100899
100915
100933
100952
100974
100998
101025
101055
101088
101124
101163
101206
101252
101303
101358
101418
101483
101553
101629
101711
101798
101891
101992
102099
102212
102332
102459
102593
102733
102881
103034
103195
103361
103533
103710
103891
104076
104264
104454
104647
104839
105032
105225
105418
105609
105799
105986
106170
106351
106531
106708
106882
107054
107225
107397
107572
107751
107936
108125
108318
108515
108714
108912
109108
109301
109492
109686
109880
110070
110253
110422
110569
110688
110776
110828
110840
110809
110732
110608
110435
110214
109949
109644
109301
108921
108507
108065
107595
107098
106616
106164
105707
105231
104740
104245
103772
103333
102935
102584
102290
102048
101838
101667
101536
101434
101373
101352
101372
101417
101478
101544
101623
101699
101788
101865
101974
102083
102230
102426
102637
102880
103074
103166
103325
103603
103909
104300
104746
105224
105761
106340
106910
107408
107760
107915
107848
107567
100969
100970
100970
100971
100973
100974
100974
100974
100973
100971
100967
100963
100957
100950
100943
100934
100925
100915
100906
100896
100886
100877
100869
100861
100854
100849
100843
100838
100834
100831
100829
100828
100828
100828
100829
100833
100836
100837
100839
100845
100854
100864
100873
100883
100896
100911
100928
100947
100968
100992
101020
101050
101083
101120
101160
101204
101252
101305
101362
101424
101493
101566
101646
101731
101822
101921
102025
102137
102255
102381
102513
102652
102798
102951
103110
103276
103447
103623
103804
103989
104177
104367
104559
104752
104945
105138
105331
105523
105713
105901
106086
106268
106449
106627
106804
106978
107150
107323
107499
107680
107867
108057
108252
108452
108654
108855
109056
109252
109444
109640
109839
110032
110214
110384
110533
110655
110742
110791
110801
110771
110696
110573
110405
110193
109940
109645
109310
108937
108532
108096
107634
107143
106653
106196
105743
105273
104788
104291
103819
103389
102998
102656
102367
102126
101916
101738
101602
101504
101444
101426
101446
101496
101564
101632
101712
101790
101883
101954
102078
102186
102344
102559
102757
102986
103158
103263
103428
103719
104034
104424
104855
105321
105856
106435
107005
107492
107830
107973
107896
107603
101042
101043
101043
101043
101044
101044
101044
101043
101041
101038
101034
101027
101020
101012
101003
100993
100982
100970
100959
100947
100936
100925
100915
100906
100897
100889
100882
100875
100869
100863
100857
100853
100849
100844
100841
100838
100836
100835
100834
100832
100832
100835
100842
100849
100857
100866
100878
100892
100908
100927
100950
100975
101003
101034
101069
101108
101151
101199
101252
101311
101374
101442
101517
101598
101686
101780
101881
101989
102105
102227
102356
102492
102636
102787
102945
103109
103279
103455
103635
103820
104008
104199
104392
104586
104780
104973
105166
105357
105548
105736
105921
106104
106286
106467
106648
106826
107002
107178
107356
107541
107732
107927
108123
108324
108530
108736
108944
109149
109347
109548
109752
109948
110133
110303
110454
110579
110665
110711
110720
110693
110623
110508
110353
110158
109923
109646
109326
108969
108580
108158
107708
107235
106742
106273
105824
105362
104887
104400
103925
103511
103134
102805
102525
102281
102069
101881
101741
101652
101596
101584
101602
101664
101747
101821
101904
101996
102098
102149
102307
102418
102597
102835
103004
103203
103347
103492
103673
103980
104304
104695
105100
105550
106079
106652
107206
107668
107977
108096
108001
107691
101145
101145
101145
101145
101145
101144
101143
101141
101137
101132
101126
101118
101109
101098
101087
101075
101061
101047
101034
101020
101006
100993
100980
100968
100958
100947
100937
100927
100916
100906
100898
100887
100875
100866
100858
100849
100836
100825
100817
100810
100805
100801
100798
100797
100797
100799
100803
100809
100818
100830
100845
100863
100884
100908
100936
100967
101002
101043
101089
101140
101197
101261
101329
101405
101487
101576
101672
101775
101885
102003
102128
102260
102400
102547
102702
102864
103032
103206
103386
103570
103759
103950
104145
104340
104537
104733
104928
105121
105312
105501
105689
105873
106057
106241
106426
106610
106793
106974
107154
107345
107541
107742
107943
108146
108355
108562
108776
108990
109198
109406
109616
109818
110007
110180
110331
110452
110537
110585
110601
110581
110521
110422
110287
110112
109899
109643
109344
109008
108641
108240
107812
107360
106882
106409
105957
105498
105037
104566
104105
103707
103345
103022
102751
102514
102283
102086
101950
101873
101827
101822
101836
101906
102018
102092
102184
102294
102424
102448
102630
102770
102965
103200
103380
103567
103672
103837
104080
104377
104709
105092
105472
105907
106427
106978
107497
107920
108188
108272
108155
107823
101270
101270
101270
101270
101269
101267
101264
101260
101255
101248
101239
101229
101218
101206
101192
101177
101161
101145
101129
101113
101096
101079
101062
101047
101032
101018
101003
100989
100974
100959
100941
100924
100908
100892
100871
100851
100832
100815
100797
100781
100766
100753
100740
100729
100719
100711
100706
100702
100701
100703
100708
100716
100728
100743
100762
100785
100812
100844
100880
100923
100971
101026
101088
101156
101231
101312
101400
101496
101600
101711
101830
101956
102091
102233
102384
102542
102707
102879
103057
103240
103429
103621
103817
104014
104214
104414
104614
104812
105006
105198
105389
105577
105764
105952
106140
106330
106524
106714
106892
107092
107294
107499
107708
107918
108127
108339
108559
108778
108995
109214
109428
109634
109827
110002
110151
110272
110358
110414
110441
110433
110389
110312
110198
110047
109859
109628
109353
109046
108704
108331
107932
107509
107058
106596
106145
105685
105222
104764
104345
103964
103617
103300
103032
102800
102547
102351
102228
102160
102128
102129
102149
102213
102363
102425
102534
102655
102816
102864
103028
103215
103407
103652
103862
104035
104170
104282
104567
104881
105235
105596
105954
106375
106881
107393
107863
108235
108450
108491
108346
107991
101411
101411
101411
101409
101407
101404
101400
101394
101387
101378
101367
101356
101343
101328
101313
101296
101278
101260
101241
101221
101200
101179
101158
101138
101118
101098
101079
101058
101035
101011
100988
100965
100939
100909
100880
100852
100823
100795
100768
100741
100715
100690
100666
100643
100623
100604
100586
100571
100558
100548
100541
100537
100537
100541
100550
100562
100580
100602
100629
100662
100700
100746
100797
100856
100922
100995
101074
101161
101255
101358
101469
101588
101716
101853
101998
102151
102313
102483
102660
102843
103031
103223
103419
103618
103818
104020
104223
104425
104627
104825
105020
105214
105405
105598
105790
105986
106189
106390
106567
106771
106983
107196
107412
107629
107843
108065
108292
108515
108741
108968
109188
109398
109592
109765
109915
110035
110127
110194
110234
110240
110214
110161
110070
109950
109790
109583
109342
109075
108763
108421
108056
107667
107252
106813
106366
105917
105438
105001
104612
104262
103930
103626
103364
103117
102876
102695
102579
102511
102487
102491
102524
102596
102760
102828
102950
103085
103271
103361
103499
103772
103938
104167
104410
104566
104717
104892
105175
105473
105836
106183
106526
106934
107414
107878
108288
108592
108747
108745
108568
108200
101558
101558
101557
101555
101552
101548
101542
101535
101526
101515
101503
101490
101476
101461
101444
101425
101406
101385
101362
101338
101313
101288
101262
101236
101210
101184
101156
101127
101097
101067
101034
100999
100961
100922
100883
100845
100805
100766
100727
100689
100651
100613
100577
100541
100507
100475
100445
100417
100391
100368
100348
100332
100319
100309
100305
100306
100311
100322
100338
100360
100388
100423
100463
100511
100565
100626
100695
100772
100856
100949
101051
101161
101282
101411
101550
101698
101855
102022
102196
102378
102567
102760
102957
103157
103359
103561
103764
103967
104172
104376
104578
104779
104978
105178
105376
105574
105781
105991
106178
106376
106592
106815
107041
107270
107499
107734
107969
108198
108430
108664
108889
109101
109295
109469
109619
109741
109845
109929
109983
110007
110003
109976
109915
109828
109701
109525
109320
109093
108820
108508
108177
107820
107435
107032
106599
106155
105698
105291
104923
104601
104285
103989
103725
103458
103266
103103
102990
102923
102901
102910
102951
103025
103196
103306
103418
103586
103775
103931
104080
104351
104572
104764
105013
105206
105376
105604
105902
106178
106515
106845
107170
107561
108000
108406
108743
108976
109074
109034
108832
108457
101703
101703
101701
101698
101693
101687
101680
101672
101662
101651
101638
101624
101610
101593
101575
101555
101533
101510
101484
101457
101429
101399
101368
101335
101302
101267
101231
101194
101155
101114
101069
101022
100975
100926
100877
100826
100776
100725
100673
100622
100571
100521
100471
100422
100375
100329
100285
100242
100202
100165
100131
100101
100074
100052
100035
100022
100014
100012
100015
100024
100039
100061
100089
100123
100165
100215
100271
100336
100410
100493
100585
100687
100800
100922
101053
101195
101347
101509
101680
101858
102044
102236
102433
102633
102836
103040
103245
103451
103656
103862
104068
104274
104479
104683
104891
105091
105301
105520
105720
105920
106139
106368
106602
106841
107083
107329
107572
107813
108057
108296
108523
108737
108932
109111
109266
109397
109516
109618
109690
109738
109760
109757
109729
109671
109580
109449
109284
109087
108856
108586
108293
107971
107608
107233
106837
106399
105989
105606
105258
104945
104661
104383
104113
103844
103667
103520
103420
103358
103347
103370
103421
103496
103660
103799
103898
104106
104319
104506
104702
104961
105236
105460
105658
105905
106121
106360
106670
106970
107264
107563
107870
108233
108617
108956
109211
109378
109430
109357
109140
108757
101836
101835
101833
101829
101823
101816
101808
101798
101787
101776
101763
101749
101734
101717
101697
101676
101653
101627
101600
101569
101536
101502
101465
101425
101384
101342
101297
101250
101200
101147
101092
101036
100978
100918
100857
100795
100732
100668
100603
100538
100473
100409
100345
100282
100221
100160
100102
100046
99991.7
99940.8
99892.6
99847.8
99807.3
99770.9
99738.7
99711.2
99689.1
99672.7
99662
99657.2
99658.4
99666.1
99680.5
99701.7
99730.3
99766.8
99811.6
99865.4
99929.2
100003
100086
100180
100283
100397
100520
100653
100799
100955
101122
101297
101480
101670
101865
102064
102264
102468
102673
102879
103087
103294
103503
103709
103917
104123
104338
104547
104758
104990
105206
105414
105637
105873
106115
106359
106608
106858
107110
107367
107621
107860
108090
108310
108509
108692
108857
109003
109134
109249
109346
109423
109478
109497
109494
109460
109397
109304
109184
109023
108832
108615
108373
108102
107779
107423
107064
106675
106279
105905
105579
105277
105020
104756
104508
104264
104079
103960
103875
103810
103796
103818
103906
103993
104141
104269
104393
104615
104871
105099
105318
105582
105902
106196
106402
106612
106869
107164
107452
107784
108051
108321
108599
108927
109246
109511
109684
109788
109807
109702
109475
109082
101946
101946
101944
101940
101933
101925
101915
101905
101895
101883
101870
101857
101841
101824
101804
101781
101756
101728
101697
101663
101626
101587
101544
101499
101450
101399
101345
101287
101227
101165
101100
101033
100964
100893
100820
100745
100668
100591
100513
100434
100355
100276
100198
100121
100044
99969.1
99895.6
99824.1
99755.4
99689.9
99627.7
99569.2
99514.5
99464
99417.5
99375.9
99339.8
99309.2
99283.7
99263.9
99250.3
99243.6
99243.8
99251.1
99266.5
99290.5
99323.8
99367
99420.8
99484.7
99558.2
99641
99732.7
99833.3
99943.8
100066
100201
100350
100512
100685
100867
101057
101253
101454
101658
101863
102069
102274
102479
102685
102894
103094
103305
103514
103736
103957
104168
104400
104629
104845
105070
105312
105562
105815
106072
106330
106594
106861
107116
107356
107591
107819
108030
108214
108387
108549
108693
108823
108946
109052
109140
109188
109211
109209
109179
109115
109027
108917
108770
108577
108368
108158
107900
107576
107236
106894
106531
106181
105886
105623
105373
105122
104878
104676
104502
104412
104339
104285
104259
104265
104370
104479
104609
104790
104895
105130
105388
105692
105914
106184
106557
106907
107186
107396
107656
107974
108262
108586
108850
109092
109331
109616
109865
110052
110158
110204
110180
110046
109806
109398
102027
102026
102026
102021
102014
102006
101997
101988
101979
101969
101957
101943
101928
101910
101888
101864
101837
101806
101771
101734
101692
101648
101600
101548
101492
101432
101370
101303
101234
101163
101088
101010
100930
100846
100761
100673
100584
100493
100401
100308
100215
100122
100030
99937.7
99846.8
99756.9
99668.7
99582.6
99498.8
99417.9
99340.4
99267
99197.7
99132.3
99071.3
99015.4
98964.9
98919.9
98880.7
98847.1
98819.2
98798.2
98784.5
98778.6
98781.1
98793.4
98815.7
98848.6
98891.7
98944
99003.9
99071.2
99146.1
99229.4
99323.9
99431.9
99555.3
99695.5
99851.5
100020
100201
100389
100587
100787
100994
101204
101417
101629
101841
102050
102252
102451
102658
102865
103081
103311
103527
103757
103999
104224
104450
104691
104946
105208
105471
105740
106013
106287
106535
106783
107027
107265
107491
107683
107863
108039
108199
108349
108493
108620
108733
108821
108880
108913
108920
108898
108839
108770
108686
108525
108321
108145
107943
107658
107348
107033
106711
106417
106157
105929
105681
105460
105220
105056
104912
104819
104740
104721
104718
104748
104826
104943
105087
105289
105451
105673
105895
106221
106519
106750
107156
107557
107908
108191
108471
108760
109076
109363
109613
109826
110043
110278
110455
110563
110614
110604
110535
110373
110114
109687
102069
102069
102069
102065
102060
102054
102047
102041
102033
102024
102012
101999
101983
101964
101942
101917
101887
101854
101817
101775
101730
101680
101626
101568
101505
101439
101368
101294
101217
101136
101051
100962
100870
100775
100677
100577
100475
100371
100266
100161
100055
99948.1
99841.7
99735.9
99631
99527.1
99424.7
99324.7
99227.1
99132.2
99040.5
98951.9
98866.9
98786.1
98710.2
98639.7
98574.2
98514.6
98461.3
98413.7
98372.3
98337.6
98310.8
98292.8
98284
98285
98296.2
98317.7
98347.8
98385
98427.9
98476.6
98532.9
98599.2
98679.1
98775.1
98888.9
99021.1
99171
99334.9
99510
99693.4
99885.2
100083
100287
100496
100709
100926
101143
101365
101579
101781
101986
102189
102387
102613
102843
103073
103321
103556
103785
104026
104284
104551
104818
105091
105369
105647
105898
106151
106405
106648
106886
107100
107292
107477
107655
107824
107986
108132
108261
108388
108484
108548
108579
108592
108569
108524
108487
108406
108250
108092
107925
107677
107400
107126
106851
106594
106343
106128
105898
105710
105528
105363
105255
105179
105096
105095
105116
105192
105264
105380
105581
105741
105944
106195
106427
106677
107080
107336
107686
108125
108547
108884
109194
109481
109839
110104
110324
110504
110699
110889
110993
111025
111032
110972
110865
110677
110390
109968
102067
102068
102068
102066
102064
102061
102057
102053
102046
102038
102028
102015
101999
101980
101958
101932
101901
101866
101826
101782
101732
101678
101619
101555
101487
101414
101337
101255
101169
101078
100983
100884
100782
100676
100567
100455
100341
100226
100110
99991.8
99873.4
99754.6
99635.7
99517.1
99399.3
99282.5
99167.4
99054.2
98943.4
98835.1
98729.9
98628.1
98530
98435.8
98345.3
98258.9
98178.4
98104.5
98037.1
97976.4
97922.2
97874.6
97835.3
97805.1
97784.1
97772.8
97771.3
97778.9
97793.7
97814.1
97839.9
97872
97913
97966.1
98034.5
98121.3
98227.2
98352.9
98497.4
98656.3
98823.8
98999.5
99181.9
99371.7
99567.1
99770.5
99976.8
100190
100405
100623
100845
101065
101277
101490
101687
101899
102130
102354
102597
102842
103074
103316
103573
103846
104116
104390
104677
104950
105222
105476
105731
105979
106225
106454
106664
106866
107062
107246
107421
107586
107734
107880
108006
108105
108159
108211
108213
108207
108183
108152
108072
107964
107822
107626
107380
107139
106907
106683
106462
106247
106052
105899
105788
105624
105524
105470
105438
105438
105435
105531
105638
105767
105978
106117
106329
106602
106886
107110
107562
107903
108209
108623
109109
109509
109802
110131
110492
110749
110953
111123
111283
111422
111454
111417
111393
111293
111151
110951
110633
110238
102018
102019
102019
102017
102016
102014
102012
102010
102008
102004
101998
101988
101974
101956
101934
101906
101875
101838
101796
101748
101695
101637
101574
101506
101432
101354
101270
101181
101087
100988
100884
100776
100664
100548
100429
100307
100183
100058
99930.6
99802.2
99672.8
99542.9
99412.8
99282.8
99153.3
99024.7
98897.5
98772.1
98649
98528.5
98411.1
98297
98186.3
98079.1
97976.2
97878.3
97785.6
97697.6
97615
97540.2
97473.3
97414.1
97362.6
97319.4
97285.5
97260.6
97244.7
97236.9
97236.1
97241.8
97254.2
97274.1
97303.7
97345.3
97401.9
97477.5
97573.8
97691
97828.9
97986.2
98147.8
98315.9
98487.3
98666.9
98851.7
99043.6
99241.6
99446.4
99659.3
99872.3
100086
100312
100528
100750
100963
101165
101387
101605
101842
102095
102333
102573
102827
103099
103371
103655
103940
104213
104494
104757
105010
105263
105516
105756
105982
106202
106411
106604
106789
106973
107150
107308
107449
107574
107663
107781
107821
107852
107851
107825
107785
107730
107607
107442
107249
107052
106844
106657
106499
106316
106155
106023
105931
105823
105737
105671
105691
105693
105699
105780
105910
106039
106238
106423
106638
106909
107227
107544
107955
108349
108716
109097
109573
110057
110353
110698
111035
111292
111488
111643
111770
111858
111820
111723
111673
111542
111372
111174
110837
110435
101924
101924
101924
101923
101922
101920
101920
101920
101920
101921
101919
101913
101902
101886
101864
101837
101805
101767
101723
101673
101617
101556
101489
101417
101339
101255
101165
101070
100969
100863
100751
100635
100515
100391
100264
100134
100002
99867.2
99731.1
99593.6
99454.8
99314.9
99174.2
99033.3
98892.8
98753
98614.6
98477.7
98343.3
98211.6
98082.7
97957.1
97835.5
97718
97604.9
97495.9
97391.2
97292.1
97199.4
97112.6
97031.7
96958.9
96894.4
96838
96790.8
96752.1
96721.8
96699.6
96685.5
96679.2
96681.1
96691.3
96710.4
96740.5
96784.3
96845.3
96926.2
97030.1
97153.9
97298.1
97467.6
97630.4
97796.1
97964.5
98141.2
98321.8
98511.3
98704.9
98909.3
99124
99334.1
99553
99768.7
99985
100208
100411
100629
100849
101074
101324
101570
101807
102056
102320
102598
102885
103160
103449
103719
103989
104244
104500
104755
105008
105245
105474
105690
105897
106100
106298
106504
106686
106837
106970
107079
107216
107322
107378
107414
107404
107395
107380
107277
107130
106988
106851
106697
106543
106407
106266
106151
106049
105947
105883
105837
105787
105796
105801
105870
105955
106084
106203
106399
106641
106873
107146
107473
107868
108230
108612
109122
109506
109900
110431
110798
111135
111454
111699
111882
112016
112120
112171
112072
111939
111850
111694
111504
111287
110954
110499
101784
101784
101786
101788
101791
101792
101796
101798
101801
101803
101802
101797
101787
101771
101750
101723
101691
101652
101606
101555
101497
101433
101363
101287
101205
101117
101023
100922
100815
100703
100585
100463
100336
100206
100072
99935.6
99796.3
99654.5
99510.6
99364.6
99216.6
99066.9
98916.2
98765.1
98614
98463.7
98314.7
98167.4
98022.7
97880.8
97742
97607.3
97476.9
97350.2
97227.7
97109.9
96996.7
96887.9
96784.6
96688.1
96597.8
96514.1
96437.3
96366.2
96304.9
96253
96209.6
96174.7
96148.8
96132.2
96124.6
96125.5
96135.6
96156.2
96187.6
96236.7
96306.2
96395.2
96502.9
96625
96784.8
96950.5
97113
97272.6
97440.2
97611.6
97791.2
97976.7
98166.4
98373.1
98584.6
98795.7
99012.9
99221
99442.2
99652.6
99864.4
100089
100304
100542
100790
101026
101268
101523
101805
102075
102355
102651
102922
103190
103445
103698
103949
104207
104453
104688
104914
105141
105367
105574
105780
105988
106163
106304
106423
106557
106675
106759
106836
106873
106908
106914
106835
106724
106633
106542
106441
106333
106215
106099
106025
105959
105875
105822
105808
105805
105789
105788
105880
105995
106137
106298
106505
106739
106987
107274
107617
107985
108334
108734
109332
109741
110084
110611
111030
111385
111690
111918
112111
112233
112319
112340
112191
112048
111920
111747
111535
111294
110955
110435
101592
101593
101599
101605
101613
101622
101630
101638
101644
101648
101647
101643
101633
101618
101597
101569
101535
101495
101448
101395
101335
101269
101196
101117
101032
100940
100842
100737
100626
100509
100387
100260
100129
99993.3
99854.1
99711.3
99565.4
99416.6
99265
99111
98954.4
98795.9
98636.4
98476.3
98315.9
98156
97997.3
97840.7
97686.8
97536
97388.9
97246.1
97107.7
96973.8
96844
96718.4
96597.4
96481.5
96371.2
96266.3
96167.3
96075.1
95989.9
95912.3
95837.6
95772.7
95715.7
95668.2
95630.9
95603.6
95586.5
95579.4
95581.5
95595
95620.8
95662
95723.4
95805.6
95912.4
96035.6
96164.1
96300.4
96449.9
96601.9
96756.4
96918.2
97086.1
97264.2
97448.9
97639.3
97846
98048.9
98262.6
98468.1
98680.6
98897.2
99100.3
99322
99537.6
99759.4
100004
100241
100474
100721
100993
101253
101542
101828
102108
102374
102628
102877
103122
103373
103625
103868
104107
104347
104585
104798
104997
105208
105410
105583
105722
105858
105965
106084
106177
106265
106334
106348
106284
106223
106181
106123
106049
105990
105931
105859
105808
105747
105684
105659
105657
105671
105665
105679
105759
105878
106054
106280
106501
106706
106959
107259
107602
107931
108310
108761
109327
109784
110199
110668
111066
111445
111745
111971
112187
112295
112367
112353
112163
112026
111875
111706
111480
111255
110858
110307
101342
101344
101352
101365
101380
101399
101416
101430
101442
101449
101451
101448
101439
101424
101402
101374
101340
101298
101250
101195
101133
101065
100990
100909
100821
100726
100625
100517
100403
100283
100158
100027
99891.8
99752.1
99607.9
99459.8
99308.2
99153.2
98995
98834.1
98670.4
98504.7
98337.9
98170.3
98002.2
97834.2
97667.8
97503.8
97342.8
97185.4
97032.3
96883.3
96738.5
96597.3
96459.7
96326.2
96197.4
96073.7
95955.6
95843.4
95737.8
95638.8
95546.9
95462.4
95385.4
95311.7
95245.2
95186.2
95136.9
95098.9
95071.2
95055.1
95050.8
95058.2
95079.3
95114.4
95168
95239.4
95331.4
95439.9
95557.1
95679.1
95810.1
95953.2
96098.6
96250.3
96407.7
96572.3
96749.7
96929
97124.6
97322.5
97528.4
97733.8
97933.7
98149.4
98351.7
98565.1
98783.3
98994.1
99226.2
99464.5
99689.2
99927.2
100179
100445
100724
101002
101282
101545
101798
102047
102294
102539
102787
103031
103278
103516
103755
103979
104182
104379
104582
104787
104946
105072
105198
105343
105446
105564
105644
105659
105638
105631
105615
105582
105540
105527
105529
105506
105465
105403
105348
105347
105342
105355
105363
105416
105509
105641
105832
106073
106319
106522
106781
107095
107424
107750
108172
108661
109144
109683
110210
110596
110958
111346
111609
111855
112099
112196
112252
112187
111981
111860
111690
111537
111327
111094
110632
110163
101068
101077
101091
101114
101141
101170
101197
101220
101237
101248
101253
101251
101242
101227
101206
101178
101142
101100
101051
100995
100932
100862
100785
100702
100612
100515
100412
100302
100186
100064
99936.1
99802.9
99664.6
99521.7
99374.3
99222.7
99067.2
98908.1
98745.5
98580
98411.9
98241.5
98069.8
97897.4
97724.2
97551
97379.7
97211.3
97046.4
96885.2
96728.2
96575.3
96425.8
96279.5
96136.9
95997.7
95862.5
95732.1
95606.6
95486.2
95371.9
95264.4
95164.7
95073.4
94990.3
94914.6
94844.8
94783.8
94729.4
94683.7
94647.8
94622.3
94610.6
94611.2
94625.9
94653.6
94698.1
94760
94836.4
94930.1
95035.1
95150.3
95269.9
95398.9
95534.5
95676.7
95828.9
95987.6
96153.2
96323.6
96504.4
96697.8
96893
97097.2
97289.3
97495.5
97699.7
97902.9
98118.6
98326.6
98542.7
98776.7
98996.1
99222.1
99455.4
99720
99979.7
100254
100530
100788
101038
101287
101537
101783
102024
102264
102507
102734
102956
103188
103399
103582
103770
103974
104133
104256
104409
104560
104683
104820
104904
104935
104962
104979
104976
104963
104964
105012
105045
105037
104994
104941
104906
104913
104908
104922
104929
105001
105106
105266
105451
105655
105944
106202
106447
106781
107110
107468
107870
108381
108805
109406
109974
110307
110684
111052
111279
111559
111823
111908
111950
111842
111651
111548
111363
111209
111017
110766
110275
109952
100810
100827
100851
100889
100932
100974
101011
101042
101064
101078
101084
101083
101074
101059
101036
101008
100972
100929
100879
100822
100758
100686
100608
100523
100431
100333
100228
100117
99999.2
99875.4
99745.9
99610.8
99470.6
99325.6
99175.9
99022
98864
98702.2
98536.8
98368.4
98197.5
98024.3
97849.5
97673.5
97496.7
97320.6
97146.5
96975.5
96807.9
96644.1
96484.6
96328.9
96176.3
96026.7
95880.1
95736.5
95596.2
95460.4
95329.1
95202.9
95082.7
94969.1
94861.3
94762.6
94668.3
94587.1
94515.5
94452
94396.8
94350
94311.2
94281.5
94264.4
94258.2
94265
94287
94323.5
94377.4
94445.1
94528.3
94620.6
94721.6