/*--------------------------------*- C++ -*----------------------------------*\
| =========                 |                                                 |
| \\      /  F ield         | OpenFOAM: The Open Source CFD Toolbox           |
|  \\    /   O peration     | Version:  dev                                   |
|   \\  /    A nd           | Web:      http://www.openfoam.org               |
|    \\/     M anipulation  |                                                 |
\*---------------------------------------------------------------------------*/
FoamFile
{
    version     2.0;
    format      ascii;
    class       surfaceScalarField;
    object      phi;
    location    "9.14";
}
// * * * * * * * * * * * * * * * * * * * * * * * * * * * * * * * * * * * * * //

dimensions      [1 0 -1 0 0 0 0];

internalField   nonuniform List<scalar> 
24170
(
3.00863e-06
2.68795e-06
2.79325e-06
2.04488e-06
3.08003e-06
1.44279e-06
3.6033e-06
1.09986e-06
4.08629e-06
1.02861e-06
4.63086e-06
8.58301e-07
5.03464e-06
8.8918e-07
5.58054e-06
6.42494e-07
5.8902e-06
7.75297e-07
6.41189e-06
4.6879e-07
6.65323e-06
6.55671e-07
7.31147e-06
1.5563e-07
7.31803e-06
7.22301e-07
8.55358e-06
-5.70293e-07
8.60372e-06
5.35968e-07
9.57967e-06
-4.54724e-07
1.38796e-05
-3.82155e-06
-3.44686e-06
1.77223e-05
4.75337e-06
4.01616e-06
4.96852e-06
3.82253e-06
5.28957e-06
3.02446e-06
5.69581e-06
2.48027e-06
6.09529e-06
2.29574e-06
6.5341e-06
1.96368e-06
7.00919e-06
1.83774e-06
7.62882e-06
1.32751e-06
8.06397e-06
1.53032e-06
8.6443e-06
9.72875e-07
9.14306e-06
1.13998e-06
9.94668e-06
2.42297e-07
1.04263e-05
1.037e-06
1.17132e-05
-1.13377e-06
1.27175e-05
1.61875e-07
1.46524e-05
-1.81274e-06
1.66189e-05
-5.25977e-06
-1.07919e-05
2.4368e-05
5.59263e-06
5.13395e-06
6.34961e-06
5.26892e-06
7.02185e-06
4.45402e-06
7.65884e-06
3.81653e-06
8.13346e-06
3.66165e-06
8.54941e-06
3.25394e-06
9.03635e-06
2.92556e-06
9.75078e-06
2.05722e-06
1.0136e-05
2.46136e-06
1.11672e-05
1.13888e-06
1.12706e-05
2.12482e-06
1.26967e-05
-1.94337e-07
1.25239e-05
2.09309e-06
1.42503e-05
-2.0748e-06
1.4948e-05
1.65935e-07
1.65297e-05
-2.75244e-06
1.9085e-05
-7.25967e-06
-1.12328e-05
1.99831e-05
6.11258e-06
6.52521e-06
7.30397e-06
6.49639e-06
8.09584e-06
5.96995e-06
9.2125e-06
4.86494e-06
9.86347e-06
5.03143e-06
1.06416e-05
4.34855e-06
1.10797e-05
4.21392e-06
1.186e-05
2.86558e-06
1.22049e-05
3.56521e-06
1.34655e-05
1.1902e-06
1.37004e-05
3.08128e-06
1.45761e-05
1.80191e-08
1.4647e-05
2.99511e-06
1.6333e-05
-2.89767e-06
1.66107e-05
6.5632e-07
1.82197e-05
-3.65697e-06
1.83723e-05
-6.79257e-06
-1.3717e-05
2.13521e-05
6.15202e-06
8.37954e-06
8.42871e-06
6.86902e-06
9.28202e-06
7.64221e-06
1.03647e-05
6.15529e-06
1.10666e-05
6.54493e-06
1.24108e-05
5.05324e-06
1.28265e-05
5.68638e-06
1.33871e-05
4.04649e-06
1.36312e-05
4.90584e-06
1.47986e-05
1.45668e-06
1.54409e-05
3.75004e-06
1.53721e-05
1.2747e-06
1.60427e-05
3.38097e-06
1.61015e-05
-2.01096e-06
1.67234e-05
8.8503e-07
1.84298e-05
-4.60444e-06
1.59934e-05
-3.68176e-06
-1.54306e-05
1.82745e-05
6.43551e-06
1.06767e-05
8.62602e-06
7.57031e-06
9.56362e-06
9.46688e-06
1.05964e-05
7.71791e-06
1.16727e-05
7.88244e-06
1.34694e-05
5.4863e-06
1.37404e-05
7.47971e-06
1.4433e-05
5.25572e-06
1.46596e-05
6.40168e-06
1.5719e-05
1.96706e-06
1.6296e-05
4.60939e-06
1.6965e-05
1.8997e-06
1.78682e-05
3.62421e-06
1.76218e-05
-7.31431e-07
1.8345e-05
1.10152e-06
1.89724e-05
-4.41857e-06
1.65225e-05
-5.08002e-07
-1.95719e-05
2.12918e-05
7.65823e-06
1.27395e-05
8.78239e-06
9.586e-06
1.02937e-05
1.09594e-05
1.15955e-05
9.2264e-06
1.24092e-05
9.68677e-06
1.39237e-05
6.39725e-06
1.4733e-05
8.92212e-06
1.56391e-05
6.412e-06
1.60572e-05
7.85304e-06
1.73856e-05
2.33252e-06
1.80639e-05
5.4874e-06
1.867e-05
2.69434e-06
1.95269e-05
4.0148e-06
2.06489e-05
-7.21658e-07
2.09846e-05
1.79836e-06
2.1745e-05
-4.2877e-06
2.28545e-05
-8.43692e-07
-1.6264e-05
2.02381e-05
6.30691e-06
1.39299e-05
7.31873e-06
1.09818e-05
8.44817e-06
1.21313e-05
9.37488e-06
1.04548e-05
9.75007e-06
1.1321e-05
1.07371e-05
7.27577e-06
1.13815e-05
1.00106e-05
1.20526e-05
7.32528e-06
1.29026e-05
8.43699e-06
1.34239e-05
3.10271e-06
1.40059e-05
6.09513e-06
1.47121e-05
3.0772e-06
1.52501e-05
4.44466e-06
1.52809e-05
1.08109e-07
1.61239e-05
1.74055e-06
1.62497e-05
-3.72549e-06
1.67657e-05
-7.64129e-07
-9.93191e-06
1.09577e-05
7.22826e-06
1.55524e-05
8.38666e-06
1.25831e-05
9.48529e-06
1.36639e-05
1.0795e-05
1.16148e-05
1.17958e-05
1.26157e-05
1.25267e-05
8.6846e-06
1.31279e-05
1.1395e-05
1.4056e-05
8.21025e-06
1.53029e-05
8.82279e-06
1.52794e-05
4.60136e-06
1.60255e-05
6.71514e-06
1.66375e-05
3.71584e-06
1.75248e-05
4.66202e-06
1.75109e-05
1.09452e-06
1.82685e-05
1.85975e-06
1.73403e-05
-2.01519e-06
1.80226e-05
-7.5404e-07
-5.23916e-06
1.39486e-05
8.80821e-06
1.70546e-05
9.9069e-06
1.46222e-05
1.10362e-05
1.55278e-05
1.24937e-05
1.29647e-05
1.37034e-05
1.40214e-05
1.42456e-05
1.0581e-05
1.55918e-05
1.23033e-05
1.66504e-05
9.19952e-06
1.76111e-05
9.7084e-06
1.7721e-05
6.1813e-06
1.87099e-05
7.27923e-06
1.91002e-05
4.72256e-06
2.0144e-05
4.86087e-06
2.01181e-05
2.21535e-06
2.09412e-05
2.02489e-06
1.98786e-05
-5.73038e-08
1.9975e-05
-5.66568e-08
-2.02529e-06
1.74683e-05
9.66004e-06
1.90355e-05
1.13272e-05
1.64895e-05
1.29764e-05
1.72482e-05
1.4391e-05
1.47145e-05
1.5857e-05
1.55101e-05
1.67925e-05
1.23904e-05
1.82177e-05
1.33986e-05
1.91287e-05
1.05833e-05
2.01778e-05
1.07471e-05
2.0532e-05
7.74215e-06
2.15205e-05
8.02475e-06
2.1984e-05
5.80243e-06
2.27597e-05
5.47015e-06
2.26646e-05
3.55586e-06
2.29031e-05
2.91004e-06
2.2368e-05
1.48273e-06
2.22726e-05
9.25114e-07
2.06815e-07
2.08293e-05
1.12668e-05
2.10553e-05
1.28693e-05
1.88207e-05
1.48224e-05
1.90443e-05
1.61928e-05
1.68707e-05
1.79916e-05
1.69936e-05
1.90588e-05
1.43615e-05
2.07698e-05
1.44722e-05
2.1758e-05
1.21485e-05
2.31337e-05
1.16964e-05
2.35428e-05
9.44557e-06
2.46048e-05
8.86752e-06
2.48762e-05
7.24019e-06
2.55717e-05
6.3186e-06
2.55067e-05
5.00234e-06
2.55958e-05
4.05433e-06
2.51988e-05
2.99039e-06
2.49775e-05
2.13196e-06
1.50856e-06
2.45503e-05
1.30565e-05
2.38573e-05
1.474e-05
2.14361e-05
1.69447e-05
2.09369e-05
1.86347e-05
1.90259e-05
2.06468e-05
1.85539e-05
2.20039e-05
1.63104e-05
2.37357e-05
1.57729e-05
2.48866e-05
1.37747e-05
2.61799e-05
1.29301e-05
2.69156e-05
1.1005e-05
2.78508e-05
9.99741e-06
2.82057e-05
8.73541e-06
2.86578e-05
7.53355e-06
2.87297e-05
6.41825e-06
2.87483e-05
5.36436e-06
2.85794e-05
4.35202e-06
2.81752e-05
3.58871e-06
2.86177e-06
2.77633e-05
1.49856e-05
2.5885e-05
1.71636e-05
2.3829e-05
1.97111e-05
2.27418e-05
2.16208e-05
2.1194e-05
2.38604e-05
2.01051e-05
2.53337e-05
1.8342e-05
2.70605e-05
1.72553e-05
2.81837e-05
1.55797e-05
2.95329e-05
1.42486e-05
3.03359e-05
1.26218e-05
3.11535e-05
1.1341e-05
3.17642e-05
1.00588e-05
3.22516e-05
8.78198e-06
3.24657e-05
7.74507e-06
3.24861e-05
6.72103e-06
3.23031e-05
5.75658e-06
3.20218e-05
4.95177e-06
4.1706e-06
3.16791e-05
1.77117e-05
2.79062e-05
2.00276e-05
2.61763e-05
2.24862e-05
2.47207e-05
2.46389e-05
2.31914e-05
2.69425e-05
2.16588e-05
2.88811e-05
1.99596e-05
3.08182e-05
1.85651e-05
3.23083e-05
1.7047e-05
3.36665e-05
1.55851e-05
3.46681e-05
1.40433e-05
3.54093e-05
1.27499e-05
3.59495e-05
1.14469e-05
3.62716e-05
1.01774e-05
3.64514e-05
9.08364e-06
3.64993e-05
8.02973e-06
3.63555e-05
7.08937e-06
3.60505e-05
6.30282e-06
5.5132e-06
3.56346e-05
2.0327e-05
2.99346e-05
2.28722e-05
2.80776e-05
2.56572e-05
2.61646e-05
2.82482e-05
2.45516e-05
3.0665e-05
2.29101e-05
3.27211e-05
2.12682e-05
3.45735e-05
1.97714e-05
3.6152e-05
1.82475e-05
3.75025e-05
1.67509e-05
3.84937e-05
1.52809e-05
3.92968e-05
1.39173e-05
3.99363e-05
1.25728e-05
4.0344e-05
1.13161e-05
4.05993e-05
1.01882e-05
4.06955e-05
9.13357e-06
4.06217e-05
8.19156e-06
4.04566e-05
7.36525e-06
6.58635e-06
4.01559e-05
2.27002e-05
3.06641e-05
2.60563e-05
2.84664e-05
2.92329e-05
2.65508e-05
3.2066e-05
2.50432e-05
3.45502e-05
2.34925e-05
3.66806e-05
2.19276e-05
3.85722e-05
2.04022e-05
4.02318e-05
1.88626e-05
4.16573e-05
1.73448e-05
4.28159e-05
1.58746e-05
4.3748e-05
1.45288e-05
4.44595e-05
1.32088e-05
4.49352e-05
1.19842e-05
4.5226e-05
1.08869e-05
4.53164e-05
9.873e-06
4.52301e-05
8.9634e-06
4.50253e-05
8.14334e-06
7.36703e-06
4.47013e-05
2.30045e-05
2.93756e-05
2.61585e-05
2.74715e-05
2.897e-05
2.58096e-05
3.14971e-05
2.44276e-05
3.37848e-05
2.29391e-05
3.58371e-05
2.14302e-05
3.76336e-05
1.99803e-05
3.92567e-05
1.8431e-05
4.05897e-05
1.70125e-05
4.1627e-05
1.56701e-05
4.24177e-05
1.4435e-05
4.29985e-05
1.31723e-05
4.33813e-05
1.20253e-05
4.35979e-05
1.09873e-05
4.36456e-05
1.00294e-05
4.35721e-05
9.16245e-06
4.33872e-05
8.37129e-06
7.62782e-06
4.31025e-05
2.0288e-05
2.78031e-05
2.25804e-05
2.57323e-05
2.49338e-05
2.40066e-05
2.71575e-05
2.26759e-05
2.91609e-05
2.13454e-05
3.08552e-05
2.00662e-05
3.23973e-05
1.86677e-05
3.36419e-05
1.73156e-05
3.46734e-05
1.6021e-05
3.549e-05
1.48164e-05
3.60988e-05
1.37088e-05
3.65255e-05
1.25648e-05
3.68417e-05
1.14766e-05
3.70188e-05
1.05176e-05
3.70982e-05
9.61922e-06
3.70657e-05
8.82281e-06
3.69607e-05
8.07177e-06
7.36385e-06
3.68012e-05
1.80939e-05
2.50949e-05
1.99943e-05
2.33215e-05
2.18359e-05
2.16757e-05
2.36265e-05
2.03978e-05
2.52528e-05
1.92518e-05
2.6732e-05
1.80797e-05
2.79585e-05
1.68945e-05
2.89765e-05
1.57281e-05
2.98422e-05
1.45635e-05
3.04869e-05
1.35413e-05
3.10448e-05
1.25056e-05
3.14907e-05
1.14721e-05
3.17834e-05
1.05111e-05
3.19941e-05
9.63355e-06
3.21089e-05
8.82047e-06
3.21398e-05
8.09544e-06
3.21091e-05
7.41562e-06
6.79022e-06
3.19897e-05
1.58941e-05
2.18781e-05
1.75579e-05
2.04768e-05
1.90462e-05
1.90551e-05
2.04854e-05
1.79072e-05
2.18507e-05
1.68561e-05
2.308e-05
1.58109e-05
2.41177e-05
1.48352e-05
2.50094e-05
1.3836e-05
2.57081e-05
1.28768e-05
2.62817e-05
1.19767e-05
2.67758e-05
1.10585e-05
2.71592e-05
1.01499e-05
2.74208e-05
9.31501e-06
2.76079e-05
8.54317e-06
2.76985e-05
7.82785e-06
2.77363e-05
7.17699e-06
2.76944e-05
6.60056e-06
6.02853e-06
2.76141e-05
1.41804e-05
1.89538e-05
1.55767e-05
1.75204e-05
1.69669e-05
1.62094e-05
1.8266e-05
1.52355e-05
1.93704e-05
1.43773e-05
2.03346e-05
1.35142e-05
2.12017e-05
1.26777e-05
2.19409e-05
1.18619e-05
2.25653e-05
1.10544e-05
2.31024e-05
1.02582e-05
2.35632e-05
9.48388e-06
2.3908e-05
8.71064e-06
2.41607e-05
7.99291e-06
2.43293e-05
7.35562e-06
2.44012e-05
6.74817e-06
2.44021e-05
6.20704e-06
2.43422e-05
5.72792e-06
5.24904e-06
2.42119e-05
1.26891e-05
1.5847e-05
1.38421e-05
1.46641e-05
1.50175e-05
1.34396e-05
1.61072e-05
1.25865e-05
1.70542e-05
1.19001e-05
1.78726e-05
1.12387e-05
1.86089e-05
1.05464e-05
1.92178e-05
9.92445e-06
1.97433e-05
9.23089e-06
2.02202e-05
8.53357e-06
2.06162e-05
7.90508e-06
2.09108e-05
7.25002e-06
2.11266e-05
6.66744e-06
2.12646e-05
6.15428e-06
2.13103e-05
5.66052e-06
2.12975e-05
5.23661e-06
2.12367e-05
4.83522e-06
4.47065e-06
2.11001e-05
1.13013e-05
1.27998e-05
1.2467e-05
1.17741e-05
1.35248e-05
1.07368e-05
1.44076e-05
1.00902e-05
1.51666e-05
9.58565e-06
1.58775e-05
9.0608e-06
1.65143e-05
8.51055e-06
1.70539e-05
8.01498e-06
1.75227e-05
7.45459e-06
1.79169e-05
6.90573e-06
1.82358e-05
6.37758e-06
1.84818e-05
5.85582e-06
1.86718e-05
5.38623e-06
1.87866e-05
4.97493e-06
1.8832e-05
4.61083e-06
1.88357e-05
4.26542e-06
1.87884e-05
3.95339e-06
3.64804e-06
1.87317e-05
1.02295e-05
1.01758e-05
1.1321e-05
8.99622e-06
1.22456e-05
8.19274e-06
1.2996e-05
7.77487e-06
1.36578e-05
7.42228e-06
1.42884e-05
7.00835e-06
1.48569e-05
6.56924e-06
1.53575e-05
6.18272e-06
1.57796e-05
5.7847e-06
1.6114e-05
5.37274e-06
1.6346e-05
4.98283e-06
1.65213e-05
4.59136e-06
1.66313e-05
4.22309e-06
1.66959e-05
3.89872e-06
1.67466e-05
3.60729e-06
1.67477e-05
3.33951e-06
1.67256e-05
3.09989e-06
2.84985e-06
1.66892e-05
8.85717e-06
7.46721e-06
9.87069e-06
6.3851e-06
1.07261e-05
5.80239e-06
1.14598e-05
5.56528e-06
1.21204e-05
5.34856e-06
1.26996e-05
5.07414e-06
1.31863e-05
4.78031e-06
1.36042e-05
4.52686e-06
1.39483e-05
4.26016e-06
1.4211e-05
3.97728e-06
1.4405e-05
3.71023e-06
1.45451e-05
3.42363e-06
1.46303e-05
3.15376e-06
1.46909e-05
2.90009e-06
1.47097e-05
2.69538e-06
1.47025e-05
2.49198e-06
1.46847e-05
2.30433e-06
2.11033e-06
1.46497e-05
8.08155e-06
4.99733e-06
9.04129e-06
3.94352e-06
9.76605e-06
3.65552e-06
1.0337e-05
3.6287e-06
1.08091e-05
3.56524e-06
1.12055e-05
3.42277e-06
1.15335e-05
3.25488e-06
1.18195e-05
3.09626e-06
1.20555e-05
2.93124e-06
1.22352e-05
2.75582e-06
1.23744e-05
2.57728e-06
1.24607e-05
2.38992e-06
1.25193e-05
2.19214e-06
1.25145e-05
2.04422e-06
1.25016e-05
1.88822e-06
1.24502e-05
1.76204e-06
1.23879e-05
1.62265e-06
1.49608e-06
1.22935e-05
7.35024e-06
2.58875e-06
8.16454e-06
1.77626e-06
8.68086e-06
1.84221e-06
9.02403e-06
2.03879e-06
9.2539e-06
2.14015e-06
9.39757e-06
2.13593e-06
9.48969e-06
2.0701e-06
9.56955e-06
1.97286e-06
9.63285e-06
1.87219e-06
9.68234e-06
1.75672e-06
9.71095e-06
1.64357e-06
9.71644e-06
1.52232e-06
9.68017e-06
1.4075e-06
9.62928e-06
1.31366e-06
9.56187e-06
1.21187e-06
9.48626e-06
1.12977e-06
9.39894e-06
1.03616e-06
9.60469e-07
9.29321e-06
6.46304e-06
4.94078e-07
6.64009e-06
3.76127e-07
6.59467e-06
7.11879e-07
6.5495e-06
9.56993e-07
6.53185e-06
1.07767e-06
6.5338e-06
1.10032e-06
6.55097e-06
1.06476e-06
6.56958e-06
1.01061e-06
6.60051e-06
9.41206e-07
6.62464e-06
8.75053e-07
6.63859e-06
8.13183e-07
6.63113e-06
7.52799e-07
6.60955e-06
6.89778e-07
6.57872e-06
6.41048e-07
6.53043e-06
5.90735e-07
6.47571e-06
5.4747e-07
6.41093e-06
4.94522e-07
4.58108e-07
6.33647e-06
4.32047e-06
3.61385e-06
3.2832e-06
3.23924e-06
3.35727e-06
3.53928e-06
3.72682e-06
3.90077e-06
4.04497e-06
4.16141e-06
4.25283e-06
4.31904e-06
4.35574e-06
4.37554e-06
4.37528e-06
4.36047e-06
4.32013e-06
4.27009e-06
-9.82171e-07
-1.21253e-06
-1.96038e-06
-1.26583e-06
-2.63581e-06
-1.57166e-06
-2.99487e-06
-1.90646e-06
-3.10589e-06
-2.16986e-06
-3.05973e-06
-2.34311e-06
-2.90974e-06
-2.45972e-06
-2.69957e-06
-2.53226e-06
-2.44544e-06
-2.58609e-06
-2.17704e-06
-2.60783e-06
-1.93985e-06
-2.58189e-06
-1.72347e-06
-2.56607e-06
-1.47583e-06
-2.60789e-06
-1.27713e-06
-2.56499e-06
-1.17143e-06
-2.46569e-06
-1.02527e-06
-2.50571e-06
-9.75113e-07
-2.40805e-06
-1.11789e-06
-2.20792e-06
-1.35649e-06
-2.10746e-06
-1.79591e-06
-1.89377e-06
-2.48307e-06
-1.63515e-06
-3.34714e-06
-1.44324e-06
-4.51507e-06
-1.11472e-06
-5.84138e-06
-9.36546e-07
-7.28763e-06
-7.82863e-07
-8.95675e-06
-5.13053e-07
-1.06062e-05
-4.93234e-07
-1.22426e-05
-4.52464e-07
-1.39409e-05
-3.5667e-07
-1.52412e-05
-7.79863e-07
-1.62197e-05
-1.10813e-06
-1.70967e-05
-1.17246e-06
-1.76993e-05
-1.41e-06
-1.81126e-05
-1.55788e-06
-1.84284e-05
-1.58012e-06
-1.84992e-05
-1.71655e-06
-1.85425e-05
-1.66415e-06
-1.89513e-05
-1.26623e-06
-1.93658e-05
-1.1889e-06
-1.94079e-05
-1.39478e-06
-1.93451e-05
-1.32208e-06
-1.94028e-05
-1.1043e-06
-1.9634e-05
-8.89355e-07
-1.99891e-05
-7.18437e-07
-2.05266e-05
-4.8097e-07
-2.12547e-05
-2.37263e-07
-2.20625e-05
-9.8386e-08
-2.28581e-05
-3.41522e-08
-2.36007e-05
2.3608e-09
-2.42769e-05
3.02718e-08
-2.48919e-05
6.52373e-08
-2.54353e-05
9.26433e-08
-2.59218e-05
1.38235e-07
-2.63648e-05
2.00156e-07
-2.67776e-05
2.78335e-07
-2.71821e-05
3.81074e-07
-2.75902e-05
4.98937e-07
-2.79888e-05
6.05617e-07
-2.83568e-05
6.9311e-07
-2.87263e-05
8.09441e-07
-2.90896e-05
9.15084e-07
-2.94458e-05
1.02284e-06
-2.97885e-05
1.1271e-06
-3.00924e-05
1.215e-06
-3.0349e-05
1.3009e-06
-3.05718e-05
1.40076e-06
-3.07565e-05
1.49553e-06
-3.08978e-05
1.58852e-06
-3.09627e-05
1.65405e-06
-3.09815e-05
1.74898e-06
-3.09547e-05
1.84076e-06
-3.08714e-05
1.91873e-06
-3.07021e-05
1.96695e-06
-3.04303e-05
2.00087e-06
-3.0044e-05
2.02451e-06
-2.95474e-05
2.04941e-06
-2.89496e-05
2.07726e-06
-2.82524e-05
2.10264e-06
-2.74751e-05
2.145e-06
-2.66024e-05
2.17254e-06
-2.56496e-05
2.21746e-06
-2.45755e-05
2.21674e-06
-2.33713e-05
2.19568e-06
-2.20368e-05
2.16148e-06
-2.06308e-05
2.18711e-06
-1.92618e-05
2.34785e-06
-1.79843e-05
2.5959e-06
-1.68505e-05
2.89805e-06
-1.58223e-05
3.1377e-06
-1.48128e-05
3.28483e-06
-1.36167e-05
3.20549e-06
-1.26067e-05
3.5053e-06
-1.17055e-05
3.71563e-06
-1.08659e-05
3.86456e-06
-9.94091e-06
3.87901e-06
-8.75721e-06
3.7289e-06
-7.36274e-06
3.60792e-06
-5.89519e-06
3.61415e-06
-4.43992e-06
3.70858e-06
-3.03042e-06
3.84218e-06
-1.85721e-06
4.14444e-06
-1.1964e-06
4.71407e-06
-8.71174e-07
5.1646e-06
-6.41301e-07
5.34861e-06
-8.59484e-07
5.8198e-06
-1.28195e-06
6.13961e-06
-1.41787e-06
5.94007e-06
-1.61954e-06
6.04896e-06
-1.60746e-06
6.09664e-06
-8.5323e-07
5.70158e-06
5.20532e-07
5.14502e-06
1.69809e-06
5.24377e-06
2.22042e-06
5.83879e-06
1.96829e-06
6.50935e-06
1.32904e-06
6.77817e-06
7.52998e-07
6.69309e-06
1.2695e-08
6.89828e-06
-1.5459e-06
7.79286e-06
-4.08221e-06
8.79309e-06
-6.90923e-06
9.12897e-06
-9.56539e-06
9.09844e-06
-1.24765e-05
9.34335e-06
-1.53547e-05
9.28683e-06
-1.74819e-05
8.55407e-06
-1.84714e-05
7.42351e-06
-1.86302e-05
6.70038e-06
-1.85167e-05
6.55659e-06
-1.81101e-05
6.3651e-06
-1.74968e-05
6.18907e-06
-1.66423e-05
5.94243e-06
-1.42165e-05
4.37452e-06
-9.40052e-06
2.3012e-06
-8.37856e-06
6.0573e-06
-1.08704e-05
9.44272e-06
-1.37962e-05
9.92963e-06
-1.62488e-05
9.52835e-06
-1.7612e-05
8.70117e-06
-1.85091e-05
8.47945e-06
-1.96335e-05
8.55246e-06
-1.96475e-05
7.06978e-06
-1.71294e-05
4.63436e-06
-1.31585e-05
3.28915e-06
-1.04138e-05
4.64221e-06
-9.63825e-06
6.89483e-06
-8.76645e-06
7.07041e-06
-9.17049e-06
8.54249e-06
-1.06649e-05
9.9011e-06
-1.14986e-05
9.48772e-06
-1.20047e-05
9.36386e-06
-1.20793e-05
9.18545e-06
-1.24019e-05
9.64806e-06
-1.21015e-05
9.32403e-06
-1.16119e-05
9.4348e-06
-1.08287e-05
9.39885e-06
-1.07505e-05
1.02526e-05
-9.52095e-06
9.44228e-06
-9.04772e-06
1.03646e-05
-8.62522e-06
1.08582e-05
-7.89244e-06
1.07389e-05
-7.03383e-06
1.10184e-05
-5.74707e-06
1.0996e-05
-3.11666e-06
1.00633e-05
6.11165e-07
8.89061e-06
1.30609e-06
1.14605e-05
-1.76663e-06
1.52439e-05
-3.04995e-06
1.43264e-05
-1.93496e-06
1.20097e-05
4.02729e-07
1.10019e-05
4.19536e-06
9.60876e-06
7.58068e-06
9.94405e-06
9.28533e-06
1.15064e-05
1.02922e-05
1.23386e-05
1.18525e-05
1.19361e-05
1.3556e-05
1.17704e-05
1.52586e-05
1.17342e-05
1.6989e-05
1.15628e-05
1.80889e-05
1.1943e-05
1.8253e-05
1.25987e-05
1.80779e-05
1.26472e-05
1.25938e-05
1.76994e-05
-5.30193e-07
-2.80922e-06
-1.22861e-06
-2.74715e-06
-1.74879e-06
-3.2346e-06
-2.01167e-06
-3.84326e-06
-2.1203e-06
-4.28558e-06
-2.12804e-06
-4.57387e-06
-2.08221e-06
-4.75062e-06
-1.98914e-06
-4.87551e-06
-1.83233e-06
-4.99084e-06
-1.59486e-06
-5.08846e-06
-1.31283e-06
-5.11811e-06
-1.09045e-06
-5.05139e-06
-9.17422e-07
-5.05188e-06
-6.70705e-07
-5.10851e-06
-4.09798e-07
-5.00724e-06
-2.22499e-07
-4.95556e-06
-7.50127e-08
-4.8473e-06
-5.54089e-08
-4.50425e-06
-1.48657e-07
-4.28756e-06
-4.11613e-07
-3.91686e-06
-8.56242e-07
-3.4569e-06
-1.48875e-06
-3.07773e-06
-2.30968e-06
-2.55552e-06
-3.3194e-06
-2.16642e-06
-4.45757e-06
-1.8567e-06
-5.70608e-06
-1.48359e-06
-7.01311e-06
-1.36525e-06
-8.34477e-06
-1.17643e-06
-9.48843e-06
-1.30211e-06
-1.08775e-05
-1.52836e-06
-1.25328e-05
-1.46096e-06
-1.36716e-05
-2.0167e-06
-1.43943e-05
-2.81642e-06
-1.54094e-05
-2.79076e-06
-1.64092e-05
-2.77058e-06
-1.64801e-05
-3.52123e-06
-1.57565e-05
-3.87582e-06
-1.52418e-05
-3.18077e-06
-1.56779e-05
-2.43171e-06
-1.67656e-05
-2.01654e-06
-1.78327e-05
-1.38278e-06
-1.90759e-05
-5.44678e-07
-2.05972e-05
-1.88762e-07
-2.22059e-05
-1.7601e-07
-2.36466e-05
-1.37814e-07
-2.47991e-05
-1.14047e-07
-2.57686e-05
-8.10241e-08
-2.66338e-05
-3.718e-08
-2.74403e-05
3.01679e-08
-2.82316e-05
1.37674e-07
-2.89855e-05
2.33503e-07
-2.97213e-05
3.44293e-07
-3.04205e-05
4.59538e-07
-3.11005e-05
6.07818e-07
-3.17632e-05
7.70876e-07
-3.24201e-05
9.68466e-07
-3.30547e-05
1.16778e-06
-3.36609e-05
1.36199e-06
-3.42131e-05
1.53165e-06
-3.46893e-05
1.71814e-06
-3.50667e-05
1.87236e-06
-3.53875e-05
2.06844e-06
-3.56301e-05
2.23095e-06
-3.58023e-05
2.37779e-06
-3.58925e-05
2.50223e-06
-3.59318e-05
2.67066e-06
-3.59195e-05
2.84067e-06
-3.58614e-05
3.02522e-06
-3.57806e-05
3.21551e-06
-3.56189e-05
3.3791e-06
-3.53478e-05
3.50322e-06
-3.49614e-05
3.60062e-06
-3.44666e-05
3.67359e-06
-3.38371e-05
3.70402e-06
-3.312e-05
3.76233e-06
-3.23206e-05
3.80815e-06
-3.14437e-05
3.84975e-06
-3.05199e-05
3.92437e-06
-2.95289e-05
4.00155e-06
-2.84682e-05
4.06599e-06
-2.73486e-05
4.16419e-06
-2.61338e-05
4.16279e-06
-2.48793e-05
4.16022e-06
-2.35437e-05
4.08247e-06
-2.21362e-05
4.08972e-06
-2.06771e-05
4.30221e-06
-1.92092e-05
4.692e-06
-1.78435e-05
5.27519e-06
-1.652e-05
5.76145e-06
-1.51975e-05
6.1875e-06
-1.37682e-05
6.08692e-06
-1.24946e-05
6.63321e-06
-1.13982e-05
7.20294e-06
-1.03521e-05
7.57623e-06
-9.20828e-06
7.63815e-06
-7.8959e-06
7.39089e-06
-6.27923e-06
6.97055e-06
-4.39591e-06
6.71891e-06
-2.64662e-06
6.97394e-06
-9.45033e-07
7.23173e-06
5.82469e-07
7.81156e-06
1.57236e-06
9.00762e-06
2.30151e-06
9.89656e-06
2.67833e-06
1.06184e-05
2.25361e-06
1.20101e-05
1.81698e-06
1.27253e-05
1.75613e-06
1.23205e-05
1.50625e-06
1.23881e-05
1.4004e-06
1.2508e-05
1.87222e-06
1.19226e-05
2.70876e-06
1.0929e-05
3.48336e-06
1.0834e-05
3.80432e-06
1.18113e-05
3.06432e-06
1.33811e-05
1.36154e-06
1.45635e-05
-8.81599e-07
1.51621e-05
-4.01536e-06
1.63178e-05
-7.74378e-06
1.7799e-05
-1.07543e-05
1.81582e-05
-1.32925e-05
1.80841e-05
-1.60798e-05
1.85721e-05
-1.85525e-05
1.85504e-05
-2.01806e-05
1.74288e-05
-2.10125e-05
1.57652e-05
-2.15508e-05
1.42918e-05
-2.20352e-05
1.38605e-05
-2.17298e-05
1.32513e-05
-2.04548e-05
1.20365e-05
-1.88188e-05
1.14638e-05
-1.72272e-05
1.13543e-05
-1.50786e-05
9.04744e-06
-1.11189e-05
5.68481e-06
-8.56487e-06
1.11127e-05
-9.18885e-06
1.70712e-05
-1.10465e-05
1.87866e-05
-1.39289e-05
1.95221e-05
-1.65502e-05
1.89088e-05
-1.78868e-05
1.83836e-05
-1.89687e-05
1.70922e-05
-1.86e-05
1.38062e-05
-1.73565e-05
1.09467e-05
-1.28624e-05
6.33628e-06
-8.73724e-06
7.82307e-06
-6.70338e-06
1.23097e-05
-4.31672e-06
1.21802e-05
-2.89607e-06
1.48151e-05
-3.46678e-06
1.88317e-05
-4.39204e-06
1.93908e-05
-5.10337e-06
1.94419e-05
-5.28183e-06
1.90957e-05
-5.9205e-06
2.02619e-05
-6.49533e-06
2.0313e-05
-6.11661e-06
1.99881e-05
-5.58508e-06
2.02728e-05
-5.40736e-06
2.17337e-05
-4.73871e-06
2.08654e-05
-4.83287e-06
2.26138e-05
-5.01769e-06
2.37782e-05
-5.11801e-06
2.38678e-05
-4.76232e-06
2.44474e-05
-3.67035e-06
2.47688e-05
-1.28725e-06
2.19861e-05
9.59339e-07
1.9498e-05
-7.12438e-07
2.4964e-05
-6.26841e-06
3.39378e-05
-6.43158e-06
3.00399e-05
-3.65546e-06
2.41441e-05
-3.55209e-07
2.24781e-05
4.53459e-06
1.92807e-05
8.71596e-06
2.06302e-05
9.66936e-06
2.56773e-05
1.03401e-05
2.74453e-05
1.22151e-05
2.61625e-05
1.4131e-05
2.55005e-05
1.61252e-05
2.47368e-05
1.74546e-05
2.44254e-05
1.71018e-05
2.58072e-05
1.59149e-05
2.6932e-05
1.36271e-05
2.81312e-05
2.72008e-05
1.22952e-05
-3.18405e-07
-4.50642e-06
-6.56766e-07
-4.45192e-06
-9.16931e-07
-5.0516e-06
-1.14023e-06
-5.73612e-06
-1.38614e-06
-6.17299e-06
-1.59323e-06
-6.48947e-06
-1.72639e-06
-6.7253e-06
-1.71416e-06
-6.9843e-06
-1.58191e-06
-7.20733e-06
-1.35932e-06
-7.37831e-06
-1.0498e-06
-7.51099e-06
-7.48738e-07
-7.48621e-06
-5.48254e-07
-7.39505e-06
-3.49255e-07
-7.44959e-06
-1.09631e-07
-7.4028e-06
7.43791e-08
-7.27688e-06
1.86289e-07
-7.14478e-06
2.22415e-07
-6.74231e-06
6.21055e-08
-6.31623e-06
-2.35337e-07
-5.85616e-06
-6.29408e-07
-5.26647e-06
-1.25402e-06
-4.64547e-06
-1.98175e-06
-4.01748e-06
-2.90988e-06
-3.37903e-06
-4.03881e-06
-2.86573e-06
-4.94114e-06
-2.66222e-06
-5.99739e-06
-2.39659e-06
-7.24896e-06
-2.10018e-06
-8.36379e-06
-2.20141e-06
-9.49001e-06
-2.2582e-06
-1.05736e-05
-2.40654e-06
-1.17479e-05
-2.88385e-06
-1.31648e-05
-3.25061e-06
-1.40298e-05
-3.83273e-06
-1.42929e-05
-4.43187e-06
-1.50665e-05
-4.46057e-06
-1.64089e-05
-3.99918e-06
-1.77275e-05
-3.06883e-06
-1.937e-05
-1.86688e-06
-2.12948e-05
-1.22417e-06
-2.30465e-05
-8.20761e-07
-2.42288e-05
-5.77415e-07
-2.52286e-05
-4.11995e-07
-2.62404e-05
-3.562e-07
-2.72114e-05
-2.94381e-07
-2.81343e-05
-2.45554e-07
-2.90076e-05
-1.84572e-07
-2.9819e-05
-1.17249e-07
-3.05865e-05
1.39757e-09
-3.13142e-05
1.81289e-07
-3.20439e-05
4.11956e-07
-3.27809e-05
6.65519e-07
-3.35114e-05
8.86513e-07
-3.42032e-05
1.06558e-06
-3.47962e-05
1.17473e-06
-3.52582e-05
1.31414e-06
-3.56019e-05
1.52745e-06
-3.58444e-05
1.79654e-06
-3.60687e-05
2.1346e-06
-3.62536e-05
2.46226e-06
-3.64014e-05
2.73694e-06
-3.64398e-05
2.94475e-06
-3.63671e-05
3.08327e-06
-3.62647e-05
3.27744e-06
-3.61756e-05
3.50524e-06
-3.60902e-05
3.78959e-06
-3.59656e-05
4.0448e-06
-3.57906e-05
4.31614e-06
-3.55065e-05
4.54965e-06
-3.51386e-05
4.76865e-06
-3.46938e-05
4.91988e-06
-3.41476e-05
5.00557e-06
-3.35103e-05
5.09463e-06
-3.27959e-05
5.17624e-06
-3.198e-05
5.27364e-06
-3.11153e-05
5.39955e-06
-3.02404e-05
5.54623e-06
-2.93138e-05
5.69035e-06
-2.83641e-05
5.86215e-06
-2.73908e-05
6.01028e-06
-2.64249e-05
6.21168e-06
-2.54256e-05
6.2694e-06
-2.44663e-05
6.38819e-06
-2.34749e-05
6.34534e-06
-2.2418e-05
6.35686e-06
-2.11935e-05
6.41959e-06
-1.98458e-05
6.67945e-06
-1.8407e-05
7.24192e-06
-1.68751e-05
7.78892e-06
-1.53519e-05
8.43062e-06
-1.39164e-05
8.43127e-06
-1.26122e-05
9.06995e-06
-1.13778e-05
9.87517e-06
-1.01336e-05
1.04207e-05
-8.94597e-06
1.07412e-05
-7.76161e-06
1.05811e-05
-6.18723e-06
9.71388e-06
-4.09425e-06
8.84691e-06
-2.16232e-06
9.30003e-06
-4.83899e-07
9.91985e-06
1.05341e-06
1.08391e-05
2.16675e-06
1.26122e-05
3.28342e-06
1.34159e-05
4.56916e-06
1.41687e-05
5.27777e-06
1.65845e-05
5.03915e-06
1.8487e-05
4.30109e-06
1.88361e-05
3.86689e-06
1.87356e-05
3.77982e-06
1.85652e-05
3.65218e-06
1.79927e-05
3.65864e-06
1.68204e-05
3.46636e-06
1.68e-05
2.7279e-06
1.81616e-05
1.39834e-06
2.04472e-05
-9.53925e-07
2.2958e-05
-4.35109e-06
2.46772e-05
-8.11676e-06
2.6177e-05
-1.10595e-05
2.66926e-05
-1.31013e-05
2.61934e-05
-1.52476e-05
2.63761e-05
-1.71168e-05
2.66905e-05
-1.79573e-05
2.56713e-05
-1.84225e-05
2.41645e-05
-1.88463e-05
2.25312e-05
-1.98501e-05
2.16004e-05
-2.08428e-05
2.129e-05
-2.11012e-05
2.02607e-05
-2.01574e-05
1.75469e-05
-1.9269e-05
1.71298e-05
-1.85203e-05
1.76966e-05
-1.691e-05
1.42537e-05
-1.49809e-05
1.03689e-05
-1.18589e-05
1.54466e-05
-1.05789e-05
2.30552e-05
-1.11866e-05
2.6313e-05
-1.29103e-05
2.81197e-05
-1.38947e-05
2.76695e-05
-1.48164e-05
2.91222e-05
-1.4282e-05
2.37352e-05
-1.24682e-05
1.92101e-05
-1.29279e-05
1.93835e-05
-1.21765e-05
1.32085e-05
-8.65721e-06
1.22345e-05
-8.03733e-06
2.01687e-05
-7.04148e-06
1.79738e-05
-3.69576e-06
1.78731e-05
-2.11654e-06
2.482e-05
-1.90082e-06
2.76394e-05
-2.40146e-06
2.90905e-05
-2.25572e-06
2.82998e-05
-2.46926e-06
2.99459e-05
-3.39189e-06
3.16207e-05
-3.73926e-06
3.11837e-05
-3.66174e-06
3.12951e-05
-3.58651e-06
3.34881e-05
-2.63917e-06
3.17592e-05
-1.85605e-06
3.40335e-05
-2.23838e-06
3.72245e-05
-2.91696e-06
3.75952e-05
-3.28254e-06
3.83578e-05
-2.77998e-06
4.01027e-05
-3.02615e-06
3.63054e-05
-3.46387e-06
3.22889e-05
-4.96705e-06
3.94534e-05
-7.23002e-06
4.98609e-05
-5.81226e-06
4.50003e-05
-2.56537e-06
3.7725e-05
2.72128e-07
3.59871e-05
4.99454e-06
2.92007e-05
9.78872e-06
3.0026e-05
1.14091e-05
3.97703e-05
1.2878e-05
4.31746e-05
1.49987e-05
4.14178e-05
1.66483e-05
4.01742e-05
1.72277e-05
3.90017e-05
1.6852e-05
3.83894e-05
1.49638e-05
4.08676e-05
1.2493e-05
4.28203e-05
9.94573e-06
4.48174e-05
4.26638e-05
8.62858e-06
-3.3072e-07
-6.07562e-06
-5.01163e-07
-6.20318e-06
-7.01963e-07
-6.84114e-06
-1.04253e-06
-7.40417e-06
-1.42044e-06
-7.77587e-06
-1.61785e-06
-8.23852e-06
-1.55417e-06
-8.71767e-06
-1.29844e-06
-9.16284e-06
-9.5867e-07
-9.48073e-06
-6.10562e-07
-9.67415e-06
-3.06134e-07
-9.76115e-06
-6.95938e-08
-9.69779e-06
1.00137e-07
-9.58472e-06
2.24027e-07
-9.56664e-06
3.40498e-07
-9.53864e-06
4.24202e-07
-9.43881e-06
3.65866e-07
-9.21146e-06
1.90858e-07
-8.7627e-06
-7.37362e-08
-8.27282e-06
-4.15313e-07
-7.76602e-06
-8.25081e-07
-7.07215e-06
-1.43096e-06
-6.19505e-06
-2.13443e-06
-5.49347e-06
-2.98217e-06
-4.65036e-06
-4.10259e-06
-3.80492e-06
-5.36096e-06
-3.4294e-06
-6.52933e-06
-3.10882e-06
-7.63089e-06
-2.81002e-06
-8.90256e-06
-2.92082e-06
-1.00349e-05
-3.24472e-06
-1.08563e-05
-3.37575e-06
-1.20093e-05
-3.36769e-06
-1.33346e-05
-4.05322e-06
-1.42989e-05
-5.08026e-06
-1.51815e-05
-4.96135e-06
-1.691e-05
-3.63879e-06
-1.94254e-05
-2.5323e-06
-2.17339e-05
-2.06733e-06
-2.31843e-05
-1.75638e-06
-2.42625e-05
-1.45406e-06
-2.52256e-05
-1.1388e-06
-2.61166e-05
-9.26491e-07
-2.69126e-05
-7.90145e-07
-2.76594e-05
-6.94255e-07
-2.83526e-05
-6.0176e-07
-2.90274e-05
-5.02361e-07
-2.97014e-05
-3.93188e-07
-3.0376e-05
-2.90679e-07
-3.10773e-05
-1.02422e-07
-3.17565e-05
1.32387e-07
-3.23736e-05
4.32341e-07
-3.29349e-05
8.10528e-07
-3.3468e-05
1.19803e-06
-3.3985e-05
1.52195e-06
-3.4513e-05
1.73427e-06
-3.49396e-05
1.80642e-06
-3.52325e-05
1.90349e-06
-3.5406e-05
2.09452e-06
-3.54721e-05
2.42143e-06
-3.5462e-05
2.83502e-06
-3.54283e-05
3.29196e-06
-3.53594e-05
3.64685e-06
-3.52864e-05
3.86715e-06
-3.52182e-05
4.08209e-06
-3.51427e-05
4.3465e-06
-3.49885e-05
4.67633e-06
-3.47614e-05
5.02389e-06
-3.44441e-05
5.35704e-06
-3.40884e-05
5.6939e-06
-3.36347e-05
5.95276e-06
-3.3143e-05
6.18454e-06
-3.26185e-05
6.33217e-06
-3.2031e-05
6.45451e-06
-3.13882e-05
6.59626e-06
-3.06825e-05
6.76316e-06
-2.99253e-05
6.9716e-06
-2.90693e-05
7.14767e-06
-2.81297e-05
7.34548e-06
-2.7149e-05
7.61834e-06
-2.6123e-05
7.86652e-06
-2.51042e-05
8.20821e-06
-2.40982e-05
8.40401e-06
-2.31475e-05
8.72046e-06
-2.21951e-05
8.78918e-06
-2.12984e-05
8.97526e-06
-2.03098e-05
9.00172e-06
-1.9204e-05
9.09252e-06
-1.79317e-05
9.45407e-06
-1.6531e-05
9.86555e-06
-1.50955e-05
1.05391e-05
-1.3907e-05
1.08823e-05
-1.27542e-05
1.14885e-05
-1.15041e-05
1.22878e-05
-1.02671e-05
1.29168e-05
-9.12336e-06
1.34865e-05
-7.93522e-06
1.34437e-05
-6.26147e-06
1.21175e-05
-4.15708e-06
1.06463e-05
-2.29432e-06
1.14521e-05
-5.24694e-07
1.24393e-05
8.96096e-07
1.39197e-05
2.04255e-06
1.61471e-05
3.41455e-06
1.67059e-05
5.08281e-06
1.72788e-05
6.24133e-06
2.04856e-05
6.54618e-06
2.30296e-05
6.43325e-06
2.40967e-05
6.18398e-06
2.43289e-05
5.7044e-06
2.44056e-05
5.49693e-06
2.38446e-05
5.21828e-06
2.2759e-05
4.13196e-06
2.35343e-05
2.10858e-06
2.59596e-05
-2.417e-07
2.89111e-05
-3.25607e-06
3.20452e-05
-6.90762e-06
3.42468e-05
-9.79725e-06
3.50935e-05
-1.1385e-05
3.44527e-05
-1.2605e-05
3.39088e-05
-1.41176e-05
3.4363e-05
-1.49041e-05
3.37253e-05