/*--------------------------------*- C++ -*----------------------------------*\
| =========                 |                                                 |
| \\      /  F ield         | OpenFOAM: The Open Source CFD Toolbox           |
|  \\    /   O peration     | Version:  dev                                   |
|   \\  /    A nd           | Web:      http://www.openfoam.org               |
|    \\/     M anipulation  |                                                 |
\*---------------------------------------------------------------------------*/
FoamFile
{
    version     2.0;
    format      ascii;
    class       surfaceScalarField;
    object      phi_0;
    location    "9.14";
}
// * * * * * * * * * * * * * * * * * * * * * * * * * * * * * * * * * * * * * //

dimensions      [1 0 -1 0 0 0 0];

internalField   nonuniform List<scalar> 
24170
(
2.95204e-06
2.70247e-06
2.65448e-06
1.9216e-06
2.8953e-06
1.31726e-06
3.39355e-06
9.78416e-07
3.87539e-06
9.12034e-07
4.44109e-06
7.40616e-07
4.89184e-06
7.69545e-07
5.49833e-06
5.2574e-07
5.88342e-06
6.62901e-07
6.49801e-06
3.50483e-07
6.86076e-06
5.24058e-07
7.62239e-06
4.87584e-08
7.82522e-06
5.32953e-07
9.2191e-06
-7.18543e-07
9.46444e-06
3.50797e-07
1.08181e-05
-8.06715e-07
1.50617e-05
-3.73574e-06
-5.385e-06
2.0865e-05
4.72189e-06
3.9454e-06
4.84709e-06
3.60165e-06
5.08712e-06
2.81955e-06
5.43403e-06
2.28376e-06
5.79329e-06
2.11129e-06
6.22373e-06
1.77121e-06
6.71768e-06
1.63914e-06
7.37037e-06
1.13831e-06
7.84898e-06
1.35337e-06
8.50263e-06
7.75068e-07
9.10302e-06
9.1353e-07
9.99735e-06
6.13699e-08
1.06455e-05
7.04049e-07
1.21065e-05
-1.4259e-06
1.32382e-05
-1.14304e-07
1.54913e-05
-2.43317e-06
1.90524e-05
-6.73146e-06
-1.18845e-05
2.59898e-05
5.57292e-06
4.94959e-06
6.24979e-06
4.92198e-06
6.84607e-06
4.14744e-06
7.43378e-06
3.52013e-06
7.85675e-06
3.40861e-06
8.26363e-06
2.9781e-06
8.76884e-06
2.64134e-06
9.51293e-06
1.79397e-06
9.96331e-06
2.19432e-06
1.10468e-05
8.81351e-07
1.1264e-05
1.79168e-06
1.27534e-05
-4.21828e-07
1.27575e-05
1.60666e-06
1.46894e-05
-2.53848e-06
1.54381e-05
-1.15902e-07
1.78048e-05
-4.11493e-06
2.04214e-05
-8.75816e-06
-1.1942e-05
2.09631e-05
6.07675e-06
6.35006e-06
7.19734e-06
5.99282e-06
7.91724e-06
5.53836e-06
8.99833e-06
4.43857e-06
9.59851e-06
4.69528e-06
1.03768e-05
3.96905e-06
1.08149e-05
3.8544e-06
1.16236e-05
2.52368e-06
1.20604e-05
3.17676e-06
1.3386e-05
8.58062e-07
1.36608e-05
2.71564e-06
1.46025e-05
-2.57437e-07
1.48775e-05
2.32859e-06
1.66932e-05
-3.45742e-06
1.72499e-05
1.39139e-07
1.9219e-05
-5.33324e-06
2.03748e-05
-9.26877e-06
-1.38357e-05
2.27945e-05
6.10376e-06
8.14057e-06
8.32624e-06
6.16932e-06
9.06841e-06
7.10364e-06
1.00893e-05
5.60675e-06
1.07851e-05
6.06456e-06
1.21372e-05
4.54941e-06
1.24973e-05
5.29824e-06
1.30733e-05
3.63119e-06
1.34391e-05
4.36077e-06
1.47235e-05
9.9563e-07
1.53212e-05
3.43552e-06
1.53508e-05
9.15921e-07
1.61491e-05
2.61483e-06
1.63759e-05
-2.70003e-06
1.73247e-05
8.6187e-08
1.8884e-05
-6.09163e-06
1.73551e-05
-7.03067e-06
-1.63993e-05
2.05098e-05
6.39081e-06
1.04203e-05
8.45861e-06
6.7173e-06
9.27441e-06
8.80705e-06
1.02667e-05
7.00292e-06
1.13724e-05
7.20282e-06
1.31219e-05
4.89908e-06
1.33232e-05
7.06591e-06
1.40585e-05
4.73114e-06
1.44027e-05
5.69692e-06
1.55779e-05
1.36687e-06
1.62261e-05
4.22542e-06
1.70345e-05
1.41113e-06
1.7991e-05
2.83302e-06
1.79022e-05
-1.53662e-06
1.87808e-05
1.88782e-07
1.89572e-05
-5.41841e-06
1.71189e-05
-4.43294e-06
-2.16229e-05
2.29992e-05
7.61506e-06
1.24842e-05
8.60503e-06
8.55886e-06
1.00431e-05
1.00996e-05
1.12498e-05
8.37367e-06
1.20163e-05
8.86394e-06
1.35201e-05
5.67329e-06
1.43163e-05
8.41006e-06
1.5231e-05
5.79849e-06
1.57928e-05
6.95523e-06
1.72535e-05
1.58497e-06
1.79561e-05
5.07866e-06
1.87295e-05
2.05178e-06
1.9804e-05
3.03297e-06
2.09799e-05
-1.54147e-06
2.14872e-05
7.48363e-07
2.22796e-05
-5.29085e-06
2.22259e-05
-3.57251e-06
-1.83726e-05
1.9698e-05
6.28301e-06
1.35735e-05
7.21305e-06
9.79432e-06
8.25799e-06
1.11398e-05
9.09556e-06
9.5067e-06
9.4458e-06
1.03711e-05
1.04275e-05
6.43775e-06
1.10573e-05
9.42149e-06
1.17884e-05
6.58504e-06
1.27041e-05
7.42916e-06
1.32411e-05
2.32174e-06
1.3939e-05
5.56907e-06
1.47409e-05
2.34668e-06
1.52657e-05
3.48775e-06
1.54783e-05
-8.70366e-07
1.65277e-05
5.09603e-07
1.67533e-05
-4.80689e-06
1.62908e-05
-2.49319e-06
-1.20355e-05
1.0498e-05
7.17883e-06
1.50696e-05
8.22788e-06
1.12179e-05
9.23761e-06
1.25054e-05
1.05006e-05
1.04933e-05
1.14552e-05
1.15307e-05
1.2112e-05
7.77636e-06
1.27671e-05
1.06388e-05
1.38026e-05
7.27721e-06
1.50177e-05
7.78964e-06
1.50064e-05
3.78305e-06
1.59247e-05
6.01125e-06
1.66493e-05
2.87419e-06
1.75583e-05
3.68983e-06
1.77002e-05
-2.2537e-08
1.84223e-05
6.9207e-07
1.7666e-05
-3.24225e-06
1.81515e-05
-2.2644e-06
-7.14812e-06
1.38979e-05
8.75274e-06
1.63921e-05
9.71435e-06
1.3054e-05
1.07658e-05
1.4143e-05
1.214e-05
1.16631e-05
1.32566e-05
1.28113e-05
1.37959e-05
9.4988e-06
1.52405e-05
1.13063e-05
1.62996e-05
8.15776e-06
1.72214e-05
8.64428e-06
1.74339e-05
5.22247e-06
1.85667e-05
6.41472e-06
1.90874e-05
3.74278e-06
2.02286e-05
3.79634e-06
2.02611e-05
1.06015e-06
2.10874e-05
8.81275e-07
2.00897e-05
-1.32411e-06
2.01153e-05
-1.47666e-06
-3.67116e-06
1.73616e-05
9.56967e-06
1.82421e-05
1.11017e-05
1.46488e-05
1.26471e-05
1.56038e-05
1.39488e-05
1.32103e-05
1.5357e-05
1.40917e-05
1.62886e-05
1.10922e-05
1.77378e-05
1.22017e-05
1.86524e-05
9.40782e-06
1.97343e-05
9.55952e-06
2.01775e-05
6.63247e-06
2.13062e-05
6.97423e-06
2.1876e-05
4.69588e-06
2.2718e-05
4.33983e-06
2.26897e-05
2.34555e-06
2.30501e-05
1.66187e-06
2.25405e-05
2.08177e-07
2.23822e-05
-4.1712e-07
-1.28137e-06
2.07957e-05
1.11796e-05
2.00612e-05
1.25847e-05
1.66868e-05
1.44048e-05
1.70985e-05
1.56665e-05
1.50938e-05
1.74086e-05
1.53067e-05
1.84485e-05
1.28198e-05
2.01829e-05
1.3035e-05
2.12043e-05
1.07705e-05
2.26077e-05
1.03566e-05
2.30911e-05
8.17109e-06
2.42629e-05
7.64479e-06
2.46348e-05
5.99835e-06
2.54267e-05
5.07568e-06
2.54306e-05
3.71806e-06
2.55949e-05
2.73124e-06
2.5299e-05
1.61616e-06
2.51551e-05
7.1739e-07
1.25862e-07
2.46305e-05
1.29294e-05
2.27105e-05
1.44211e-05
1.89121e-05
1.64858e-05
1.86103e-05
1.8063e-05
1.69023e-05
1.99951e-05
1.65527e-05
2.13049e-05
1.44846e-05
2.30328e-05
1.40688e-05
2.4197e-05
1.21672e-05
2.55312e-05
1.13828e-05
2.6342e-05
9.53068e-06
2.73621e-05
8.59736e-06
2.78139e-05
7.3352e-06
2.83753e-05
6.14086e-06
2.85431e-05
5.01208e-06
2.86498e-05
3.93668e-06
2.85182e-05
2.92102e-06
2.8161e-05
2.11735e-06
1.38735e-06
2.78343e-05
1.48578e-05
2.42461e-05
1.68334e-05
2.08231e-05
1.92021e-05
1.99758e-05
2.09673e-05
1.86665e-05
2.30948e-05
1.77412e-05
2.44985e-05
1.61802e-05
2.62029e-05
1.52363e-05
2.73388e-05
1.36861e-05
2.8732e-05
1.24404e-05
2.96003e-05
1.09101e-05
3.05227e-05
9.70436e-06
3.12377e-05
8.45892e-06
3.18202e-05
7.22384e-06
3.2113e-05
6.21085e-06
3.22106e-05
5.18354e-06
3.21073e-05
4.22526e-06
3.18682e-05
3.41572e-06
2.63948e-06
3.15606e-05
1.75404e-05
2.56248e-05
1.96386e-05
2.26005e-05
2.18832e-05
2.14538e-05
2.38774e-05
2.01837e-05
2.60589e-05
1.88563e-05
2.79297e-05
1.73815e-05
2.98296e-05
1.61748e-05
3.13187e-05
1.48185e-05
3.26997e-05
1.34798e-05
3.37504e-05
1.20625e-05
3.45673e-05
1.08645e-05
3.51929e-05
9.62862e-06
3.56061e-05
8.42334e-06
3.58805e-05
7.37699e-06
3.60088e-05
6.35146e-06
3.59272e-05
5.4483e-06
3.56755e-05
4.67632e-06
3.90102e-06
3.53034e-05
2.02358e-05
2.7428e-05
2.2476e-05
2.39646e-05
2.50203e-05
2.23557e-05
2.74149e-05
2.10316e-05
2.96638e-05
1.96454e-05
3.16034e-05
1.82564e-05
3.33887e-05
1.69799e-05
3.49505e-05
1.56448e-05
3.63107e-05
1.43082e-05
3.73439e-05
1.29855e-05
3.82236e-05
1.17452e-05
3.89477e-05
1.05017e-05
3.94405e-05
9.34246e-06
3.97818e-05
8.29248e-06
3.99464e-05
7.30265e-06
3.99336e-05
6.42405e-06
3.98157e-05
5.64234e-06
4.91331e-06
3.95359e-05
2.26464e-05
2.75522e-05
2.56926e-05
2.38325e-05
2.85742e-05
2.22593e-05
3.11549e-05
2.1062e-05
3.34343e-05
1.97918e-05
3.54252e-05
1.84938e-05
3.72373e-05
1.721e-05
3.88654e-05
1.58864e-05
4.02904e-05
1.45641e-05
4.14841e-05
1.32719e-05
4.24711e-05
1.20863e-05
4.32374e-05
1.09073e-05
4.3777e-05
9.81023e-06
4.41281e-05
8.82358e-06
4.42665e-05
7.90829e-06
4.42257e-05
7.08722e-06
4.40538e-05
6.33913e-06
5.63558e-06
4.37536e-05
2.30244e-05
2.60525e-05
2.58361e-05
2.26034e-05
2.83612e-05
2.12557e-05
3.06543e-05
2.01705e-05
3.27586e-05
1.8964e-05
3.46784e-05
1.77297e-05
3.63849e-05
1.65386e-05
3.79536e-05
1.52275e-05
3.92621e-05
1.40317e-05
4.03035e-05
1.28912e-05
4.11147e-05
1.18355e-05
4.1727e-05
1.07396e-05
4.21503e-05
9.74228e-06
4.24055e-05
8.83629e-06
4.24912e-05
7.99708e-06
4.2451e-05
7.23718e-06
4.22913e-05
6.53624e-06
5.88363e-06
4.20237e-05
2.01779e-05
2.42576e-05
2.22793e-05
2.08336e-05
2.44412e-05
1.94238e-05
2.64888e-05
1.83892e-05
2.83394e-05
1.7342e-05
2.99099e-05
1.63367e-05
3.13619e-05
1.51957e-05
3.2549e-05
1.40853e-05
3.3553e-05
1.30172e-05
3.43607e-05
1.2021e-05
3.49777e-05
1.10983e-05
3.54258e-05
1.01264e-05
3.57652e-05
9.20004e-06
3.59705e-05
8.38017e-06
3.60764e-05
7.60957e-06
3.60665e-05
6.92833e-06
3.59797e-05
6.27684e-06
5.6709e-06
3.58274e-05
1.80044e-05
2.15974e-05
1.97396e-05
1.86386e-05
2.14302e-05
1.72894e-05
2.30804e-05
1.62975e-05
2.45808e-05
1.54178e-05
2.59567e-05
1.45037e-05
2.71084e-05
1.35631e-05
2.80813e-05
1.2625e-05
2.8919e-05
1.16784e-05
2.95534e-05
1.0855e-05
3.01195e-05
1.00003e-05
3.05757e-05
9.13861e-06
3.08842e-05
8.33754e-06
3.11139e-05
7.59719e-06
3.12422e-05
6.91398e-06
3.12859e-05
6.30506e-06
3.12601e-05
5.72848e-06
5.20498e-06
3.11417e-05
1.58045e-05
1.85217e-05
1.73401e-05
1.61478e-05
1.87136e-05
1.50144e-05
2.00423e-05
1.4134e-05
2.13088e-05
1.332e-05
2.24573e-05
1.25127e-05
2.34359e-05
1.17639e-05
2.42869e-05
1.09756e-05
2.49584e-05
1.02145e-05
2.55229e-05
9.50017e-06
2.60186e-05
8.75168e-06
2.64048e-05
8.0059e-06
2.66784e-05
7.31663e-06
2.68726e-05
6.678e-06
2.69703e-05
6.08385e-06
2.70138e-05
5.54506e-06
2.69711e-05
5.06837e-06
4.59208e-06
2.68888e-05
1.41229e-05
1.59233e-05
1.54087e-05
1.3663e-05
1.67017e-05
1.26212e-05
1.79047e-05
1.18753e-05
1.89263e-05
1.12293e-05
1.98275e-05
1.05759e-05
2.0648e-05
9.94092e-06
2.13533e-05
9.31407e-06
2.19559e-05
8.68171e-06
2.2486e-05
8.05192e-06
2.29426e-05
7.43395e-06
2.32882e-05
6.80439e-06
2.35445e-05
6.22116e-06
2.3714e-05
5.70474e-06
2.37858e-05
5.2074e-06
2.37852e-05
4.77067e-06
2.37211e-05
4.37986e-06
3.98789e-06
2.35857e-05
1.26739e-05
1.32726e-05
1.37039e-05
1.13652e-05
1.47932e-05
1.03554e-05
1.58033e-05
9.69544e-06
1.66827e-05
9.19727e-06
1.74516e-05
8.71214e-06
1.81485e-05
8.19118e-06
1.87278e-05
7.72721e-06
1.92387e-05
7.18377e-06
1.97076e-05
6.63495e-06
2.00978e-05
6.14004e-06
2.03925e-05
5.6097e-06
2.06075e-05
5.14784e-06
2.07436e-05
4.73923e-06
2.07878e-05
4.34385e-06
2.07739e-05
4.0087e-06
2.071e-05
3.68342e-06
3.39415e-06
2.05704e-05
1.1301e-05
1.06873e-05
1.23588e-05
9.03529e-06
1.33358e-05
8.16971e-06
1.41503e-05
7.68704e-06
1.48569e-05
7.33606e-06
1.55298e-05
6.95647e-06
1.61347e-05
6.54828e-06
1.66501e-05
6.18598e-06
1.71061e-05
5.75257e-06
1.74911e-05
5.32465e-06
1.78043e-05
4.90835e-06
1.80494e-05
4.49338e-06
1.82373e-05
4.12344e-06
1.83499e-05
3.803e-06
1.83946e-05
3.52117e-06
1.8396e-05
3.24804e-06
1.83463e-05
3.00077e-06
2.75541e-06
1.82866e-05
1.02079e-05
8.39748e-06
1.12185e-05
6.79149e-06
1.20721e-05
6.1355e-06
1.27687e-05
5.84818e-06
1.33917e-05
5.61379e-06
1.39909e-05
5.31521e-06
1.45338e-05
4.99412e-06
1.50152e-05
4.71874e-06
1.54223e-05
4.42324e-06
1.57438e-05
4.10885e-06
1.59686e-05
3.80969e-06
1.61408e-05
3.50177e-06
1.62498e-05
3.21251e-06
1.63164e-05
2.96142e-06
1.63696e-05
2.73413e-06
1.63714e-05
2.52541e-06
1.63492e-05
2.33786e-06
2.13665e-06
1.63087e-05
8.85009e-06
6.16871e-06
9.78111e-06
4.69951e-06
1.05786e-05
4.22627e-06
1.12684e-05
4.08836e-06
1.18919e-05
3.96385e-06
1.24382e-05
3.78012e-06
1.28996e-05
3.57928e-06
1.32988e-05
3.41191e-06
1.36278e-05
3.22346e-06
1.38806e-05
3.01589e-06
1.40699e-05
2.81675e-06
1.42075e-05
2.5928e-06
1.4293e-05
2.38337e-06
1.43562e-05
2.18412e-06
1.43761e-05
2.02923e-06
1.43698e-05
1.87059e-06
1.43512e-05
1.72251e-06
1.56748e-06
1.43118e-05
8.07177e-06
4.04368e-06
8.96399e-06
2.73515e-06
9.63216e-06
2.53288e-06
1.01589e-05
2.57672e-06
1.0594e-05
2.58009e-06
1.09606e-05
2.50329e-06
1.12667e-05
2.4017e-06
1.15371e-05
2.30473e-06
1.17615e-05
2.19618e-06
1.19346e-05
2.07378e-06
1.20701e-05
1.94322e-06
1.21548e-05
1.79983e-06
1.22141e-05
1.64429e-06
1.221e-05
1.53563e-06
1.2198e-05
1.41427e-06
1.21473e-05
1.31927e-06
1.20838e-05
1.20806e-06
1.11052e-06
1.19858e-05
7.33603e-06
1.97035e-06
8.08396e-06
1.0107e-06
8.54527e-06
1.13843e-06
8.84596e-06
1.3798e-06
9.04034e-06
1.52435e-06
9.15691e-06
1.5603e-06
9.23134e-06
1.53429e-06
9.30088e-06
1.47455e-06
9.35869e-06
1.40898e-06
9.4066e-06
1.32643e-06
9.43568e-06
1.24353e-06
9.44316e-06
1.14946e-06
9.40937e-06
1.06167e-06
9.36179e-06
9.92024e-07
9.29733e-06
9.11638e-07
9.22379e-06
8.4868e-07
9.13704e-06
7.72549e-07
7.14619e-07
9.03179e-06
6.4345e-06
1.88826e-07
6.54499e-06
2.02669e-08
6.45725e-06
3.86892e-07
6.38052e-06
6.48425e-07
6.33973e-06
7.88041e-07
6.32505e-06
8.28792e-07
6.332e-06
8.11148e-07
6.34512e-06
7.74488e-07
6.37441e-06
7.21216e-07
6.39957e-06
6.70566e-07
6.41627e-06
6.22859e-07
6.4121e-06
5.75156e-07
6.39496e-06
5.24515e-07
6.36859e-06
4.86977e-07
6.32388e-06
4.46587e-07
6.27153e-06
4.11938e-07
6.20786e-06
3.66698e-07
3.3678e-07
6.13548e-06
4.30943e-06
3.56648e-06
3.22003e-06
3.16004e-06
3.26563e-06
3.4385e-06
3.62046e-06
3.7922e-06
3.93659e-06
4.05522e-06
4.14985e-06
4.21922e-06
4.25917e-06
4.28163e-06
4.28268e-06
4.26711e-06
4.22371e-06
4.16759e-06
-9.4908e-07
-1.1646e-06
-1.90115e-06
-1.21209e-06
-2.56901e-06
-1.49981e-06
-2.94078e-06
-1.81427e-06
-3.07794e-06
-2.06437e-06
-3.06584e-06
-2.23017e-06
-2.95464e-06
-2.34288e-06
-2.78675e-06
-2.41301e-06
-2.57843e-06
-2.46466e-06
-2.358e-06
-2.48571e-06
-2.16929e-06
-2.46083e-06
-1.99999e-06
-2.44849e-06
-1.79914e-06
-2.49241e-06
-1.64622e-06
-2.45196e-06
-1.58364e-06
-2.35828e-06
-1.48075e-06
-2.40162e-06
-1.46775e-06
-2.31256e-06
-1.63594e-06
-2.12758e-06
-1.8923e-06
-2.03843e-06
-2.33612e-06
-1.84161e-06
-3.01393e-06
-1.60122e-06
-3.85764e-06
-1.42578e-06
-4.99082e-06
-1.11654e-06
-6.27696e-06
-9.50295e-07
-7.67567e-06
-8.11618e-07
-9.29562e-06
-5.49674e-07
-1.09057e-05
-5.29395e-07
-1.25061e-05
-4.94938e-07
-1.4199e-05
-3.73465e-07
-1.55273e-05
-7.7041e-07
-1.65244e-05
-1.12535e-06
-1.74294e-05
-1.19471e-06
-1.80837e-05
-1.41887e-06
-1.8539e-05
-1.5905e-06
-1.8903e-05
-1.62528e-06
-1.90248e-05
-1.77302e-06
-1.90739e-05
-1.77516e-06
-1.94711e-05
-1.40824e-06
-1.99194e-05
-1.30953e-06
-2.00057e-05
-1.52571e-06
-1.99408e-05
-1.50686e-06
-1.99605e-05
-1.32379e-06
-2.01444e-05
-1.12203e-06
-2.04525e-05
-9.62204e-07
-2.09422e-05
-7.38894e-07
-2.16339e-05
-4.98458e-07
-2.2424e-05
-3.57446e-07
-2.32145e-05
-2.97846e-07
-2.39562e-05
-2.72913e-07
-2.46324e-05
-2.58103e-07
-2.52483e-05
-2.35828e-07
-2.57922e-05
-2.22321e-07
-2.62757e-05
-1.93296e-07
-2.67097e-05
-1.4986e-07
-2.71066e-05
-9.08004e-08
-2.74883e-05
-6.70537e-09
-2.78711e-05
9.74019e-08
-2.82454e-05
1.94519e-07
-2.85873e-05
2.70766e-07
-2.89262e-05
3.74786e-07
-2.92554e-05
4.68341e-07
-2.95749e-05
5.64766e-07
-2.98834e-05
6.63103e-07
-3.01576e-05
7.47003e-07
-3.0384e-05
8.2569e-07
-3.05739e-05
9.17708e-07
-3.07229e-05
1.00444e-06
-3.08286e-05
1.09239e-06
-3.0857e-05
1.15247e-06
-3.08358e-05
1.24131e-06
-3.07683e-05
1.33067e-06
-3.06461e-05
1.40914e-06
-3.04411e-05
1.45938e-06
-3.01351e-05
1.49442e-06
-2.97141e-05
1.51828e-06
-2.9181e-05
1.54381e-06
-2.85434e-05
1.5713e-06
-2.78033e-05
1.59633e-06
-2.69849e-05
1.64315e-06
-2.60714e-05
1.67397e-06
-2.50824e-05
1.72739e-06
-2.39763e-05
1.73714e-06
-2.27393e-05
1.72283e-06
-2.13648e-05
1.68899e-06
-1.99051e-05
1.70569e-06
-1.84742e-05
1.86088e-06
-1.71344e-05
2.11371e-06
-1.59527e-05
2.44038e-06
-1.48957e-05
2.7124e-06
-1.38782e-05
2.89699e-06
-1.2653e-05
2.81515e-06
-1.1608e-05
3.12861e-06
-1.06849e-05
3.37548e-06
-9.83398e-06
3.561e-06
-8.9012e-06
3.606e-06
-7.69422e-06
3.46815e-06
-6.24442e-06
3.34461e-06
-4.69151e-06
3.35202e-06
-3.13777e-06
3.46438e-06
-1.62492e-06
3.62285e-06
-3.62542e-07
3.96878e-06
3.55525e-07
4.60685e-06
7.24815e-07
5.10805e-06
9.78696e-07
5.34327e-06
7.26936e-07
5.90552e-06
2.59509e-07
6.28082e-06
1.21131e-07
6.08727e-06
-8.31221e-08
6.24431e-06
-1.06403e-07
6.3591e-06
6.98524e-07
5.90561e-06
2.117e-06
5.34208e-06
3.27861e-06
5.48826e-06
3.6962e-06
6.16227e-06
3.24002e-06
6.92303e-06
2.32438e-06
7.26065e-06
1.43769e-06
7.21429e-06
3.42733e-07
7.46589e-06
-1.62674e-06
8.41793e-06
-4.58188e-06
9.42742e-06
-7.83125e-06
9.77153e-06
-1.0911e-05
9.77525e-06
-1.42546e-05
1.00662e-05
-1.75907e-05
1.00699e-05
-2.01813e-05
9.39542e-06
-2.16084e-05
8.29472e-06
-2.21368e-05
7.58742e-06
-2.23286e-05
7.48705e-06
-2.21462e-05
7.33463e-06
-2.1709e-05
7.22717e-06
-2.11026e-05
7.16958e-06
-1.88844e-05
5.66957e-06
-1.36326e-05
3.20206e-06
-1.20171e-05
6.92164e-06
-1.44078e-05
1.08106e-05
-1.75292e-05
1.16764e-05
-2.02973e-05
1.14754e-05
-2.18224e-05
1.06229e-05
-2.26351e-05
1.03347e-05
-2.372e-05
1.04958e-05
-2.37223e-05
8.9973e-06
-2.09672e-05
6.39869e-06
-1.63376e-05
4.69776e-06
-1.28948e-05
6.08796e-06
-1.1752e-05
8.76234e-06
-1.05097e-05
9.00026e-06
-1.0564e-05
1.0513e-05
-1.19229e-05
1.21472e-05
-1.26226e-05
1.18268e-05
-1.2973e-05
1.17542e-05
-1.28406e-05
1.15656e-05
-1.30691e-05
1.21361e-05
-1.26932e-05
1.18713e-05
-1.21389e-05
1.2024e-05
-1.12621e-05
1.20382e-05
-1.12136e-05
1.30596e-05
-9.86066e-06
1.22452e-05
-9.39438e-06
1.34005e-05
-8.82667e-06
1.39471e-05
-8.05693e-06
1.40491e-05
-7.0154e-06
1.43862e-05
-5.36855e-06
1.44843e-05
-2.50321e-06
1.3793e-05
1.69255e-06
1.22972e-05
2.14777e-06
1.54732e-05
-1.57229e-06
1.9851e-05
-2.60468e-06
1.84146e-05
-8.64218e-07
1.57011e-05
2.00729e-06
1.47906e-05
6.61303e-06
1.31895e-05
1.05934e-05
1.3727e-05
1.25327e-05
1.55455e-05
1.38355e-05
1.62188e-05
1.57094e-05
1.55682e-05
1.74721e-05
1.53404e-05
1.89447e-05
1.52713e-05
2.0161e-05
1.50306e-05
2.04972e-05
1.53483e-05
1.97431e-05
1.59143e-05
1.86408e-05
1.57961e-05
1.53292e-05
1.76188e-05
-5.15764e-07
-2.70816e-06
-1.20899e-06
-2.63361e-06
-1.73479e-06
-3.0919e-06
-2.01316e-06
-3.66995e-06
-2.14156e-06
-4.09491e-06
-2.17277e-06
-4.37346e-06
-2.15567e-06
-4.54284e-06
-2.09907e-06
-4.65958e-06
-1.98582e-06
-4.76799e-06
-1.79766e-06
-4.86131e-06
-1.56733e-06
-4.89005e-06
-1.39407e-06
-4.83035e-06
-1.26724e-06
-4.83878e-06
-1.067e-06
-4.89802e-06
-8.52806e-07
-4.80362e-06
-7.0933e-07
-4.76283e-06
-6.00842e-07
-4.66849e-06
-6.14558e-07
-4.34952e-06
-7.29386e-07
-4.15879e-06
-1.00452e-06
-3.81683e-06
-1.45353e-06
-3.38894e-06
-2.07616e-06
-3.04329e-06
-2.88049e-06
-2.55349e-06
-3.86588e-06
-2.1905e-06
-4.97345e-06
-1.90603e-06
-6.19846e-06
-1.54714e-06
-7.4836e-06
-1.4391e-06
-8.7928e-06
-1.25411e-06
-9.90759e-06
-1.36608e-06
-1.12471e-05
-1.6109e-06
-1.28928e-05
-1.53837e-06
-1.40767e-05
-2.03462e-06
-1.48013e-05
-2.87278e-06
-1.58039e-05
-2.91581e-06
-1.68991e-05
-2.84716e-06
-1.71257e-05
-3.58689e-06
-1.64593e-05
-4.0788e-06
-1.58442e-05
-3.53061e-06
-1.61297e-05
-2.8242e-06
-1.71273e-05
-2.43787e-06
-1.81428e-05
-1.86295e-06
-1.93123e-05
-1.02841e-06
-2.07688e-05
-6.25903e-07
-2.23575e-05
-5.98798e-07
-2.38212e-05
-5.77626e-07
-2.49964e-05
-5.85432e-07
-2.59766e-05
-5.78889e-07
-2.68433e-05
-5.64637e-07
-2.76466e-05
-5.2869e-07
-2.84332e-05
-4.50705e-07
-2.91804e-05
-3.836e-07
-2.99083e-05
-3.01344e-07
-3.05964e-05
-2.18333e-07
-3.12599e-05
-1.04507e-07
-3.19041e-05
2.6914e-08
-3.25399e-05
1.91562e-07
-3.3156e-05
3.6649e-07
-3.37481e-05
5.40619e-07
-3.4293e-05
6.92804e-07
-3.47589e-05
8.56413e-07
-3.51282e-05
9.93478e-07
-3.54401e-05
1.17338e-06
-3.56692e-05
1.32342e-06
-3.58211e-05
1.45833e-06
-3.5885e-05
1.56787e-06
-3.58929e-05
1.71951e-06
-3.58455e-05
1.87242e-06
-3.575e-05
2.04424e-06
-3.5635e-05
2.22874e-06
-3.54443e-05
2.39139e-06
-3.51464e-05
2.51741e-06
-3.47312e-05
2.6145e-06
-3.42057e-05
2.68772e-06
-3.35412e-05
2.71611e-06
-3.27832e-05
2.77287e-06
-3.19367e-05
2.81851e-06
-3.10098e-05
2.85982e-06
-3.00377e-05
2.93656e-06
-2.90005e-05
3.02169e-06
-2.78957e-05
3.09297e-06
-2.67384e-05
3.20998e-06
-2.54871e-05
3.22917e-06
-2.41972e-05
3.24568e-06
-2.28267e-05
3.17632e-06
-2.13808e-05
3.17348e-06
-1.98769e-05
3.3733e-06
-1.83548e-05
3.75762e-06
-1.69384e-05
4.36984e-06
-1.55758e-05
4.90121e-06
-1.42325e-05
5.39325e-06
-1.27664e-05
5.30377e-06
-1.14416e-05
5.86132e-06
-1.03084e-05
6.49255e-06
-9.23922e-06
6.93566e-06
-8.08038e-06
7.06218e-06
-6.74995e-06
6.85456e-06
-5.07994e-06
6.42952e-06
-3.09021e-06
6.16098e-06
-1.22255e-06
6.45535e-06
5.94161e-07
6.77188e-06
2.21401e-06
7.44513e-06
3.27307e-06
8.7779e-06
4.08092e-06
9.73663e-06
4.50241e-06
1.05455e-05
4.07911e-06
1.21279e-05
3.63701e-06
1.2967e-05
3.51303e-06
1.2626e-05
3.20302e-06
1.27832e-05
3.14237e-06
1.29619e-05
3.63064e-06
1.2354e-05
4.4296e-06
1.13346e-05
5.12192e-06
1.13143e-05
5.28735e-06
1.244e-05
4.29116e-06
1.41845e-05
2.25004e-06
1.55467e-05
-4.07814e-07
1.62884e-05
-3.99385e-06
1.75282e-05
-8.14869e-06
1.90253e-05
-1.15234e-05
1.93352e-05
-1.44223e-05
1.92742e-05
-1.75957e-05
1.9852e-05
-2.04396e-05
1.99299e-05
-2.24451e-05
1.89207e-05
-2.36303e-05
1.73245e-05
-2.45162e-05
1.58934e-05
-2.54133e-05
1.56235e-05
-2.55099e-05
1.52123e-05
-2.45078e-05
1.40199e-05
-2.30329e-05
1.34924e-05
-2.1581e-05
1.37088e-05
-1.96098e-05
1.15571e-05
-1.55041e-05
7.70698e-06
-1.24294e-05
1.30172e-05
-1.27441e-05
1.96558e-05
-1.45345e-05
2.19953e-05
-1.75496e-05
2.32001e-05
-2.02855e-05
2.27065e-05
-2.15522e-05
2.24193e-05
-2.25328e-05
2.09598e-05
-2.20012e-05
1.75352e-05
-2.07432e-05
1.48474e-05
-1.58735e-05
9.55784e-06
-1.10414e-05
1.07357e-05
-8.6251e-06
1.60377e-05
-5.90074e-06
1.59114e-05
-3.91447e-06
1.83599e-05
-4.08802e-06
2.30208e-05
-4.78629e-06
2.40455e-05
-5.30279e-06
2.43438e-05
-5.2563e-06
2.4026e-05
-5.77502e-06
2.53886e-05
-6.32401e-06
2.57222e-05
-5.94917e-06
2.55393e-05
-5.35673e-06
2.59233e-05
-5.20656e-06
2.77431e-05
-4.41903e-06
2.68907e-05
-4.58336e-06
2.91279e-05
-4.60188e-06
3.04558e-05
-4.79646e-06
3.11008e-05
-4.37676e-06
3.18762e-05
-2.89685e-06
3.26323e-05
-3.05386e-07
2.98598e-05
1.51829e-06
2.71761e-05
-5.10851e-07
3.3175e-05
-6.51516e-06
4.3389e-05
-6.08331e-06
3.87439e-05
-2.56629e-06
3.21459e-05
1.34266e-06
3.06428e-05
6.95534e-06
2.69368e-05
1.17328e-05
2.86916e-05
1.28686e-05
3.45328e-05
1.38643e-05
3.60989e-05
1.60786e-05
3.42949e-05
1.79936e-05
3.33603e-05
1.96192e-05
3.2349e-05
2.02183e-05
3.17834e-05
1.8826e-05
3.30491e-05
1.65028e-05
3.3982e-05
1.31605e-05
3.48382e-05
3.3057e-05
1.11175e-05
-3.06551e-07
-4.37214e-06
-6.62173e-07
-4.28152e-06
-9.38102e-07
-4.85106e-06
-1.17018e-06
-5.51155e-06
-1.42258e-06
-5.93581e-06
-1.64656e-06
-6.23542e-06
-1.8134e-06
-6.44964e-06
-1.84894e-06
-6.68824e-06
-1.7708e-06
-6.89889e-06
-1.60373e-06
-7.06567e-06
-1.3476e-06
-7.20103e-06
-1.09463e-06
-7.18738e-06
-9.38362e-07
-7.11006e-06
-7.80748e-07
-7.17295e-06
-5.79069e-07
-7.13271e-06
-4.34788e-07
-7.01939e-06
-3.55147e-07
-6.91062e-06
-3.40646e-07
-6.53808e-06
-5.19176e-07
-6.14691e-06
-8.29709e-07
-5.72221e-06
-1.22793e-06
-5.17806e-06
-1.8512e-06
-4.60511e-06
-2.5692e-06
-4.01854e-06
-3.48003e-06
-3.42236e-06
-4.59484e-06
-2.94062e-06
-5.48036e-06
-2.75393e-06
-6.51124e-06
-2.51668e-06
-7.75226e-06
-2.23293e-06
-8.85547e-06
-2.32579e-06
-9.96776e-06
-2.38486e-06
-1.10523e-05
-2.52896e-06
-1.21975e-05
-3.01333e-06
-1.36185e-05
-3.37875e-06
-1.45773e-05
-3.93898e-06
-1.48678e-05
-4.60614e-06
-1.55336e-05
-4.79674e-06
-1.67449e-05
-4.49036e-06
-1.79699e-05
-3.65929e-06
-1.95267e-05
-2.47969e-06
-2.14127e-05
-1.80819e-06
-2.32011e-05
-1.39102e-06
-2.44312e-05
-1.16146e-06
-2.54454e-05
-1.011e-06
-2.64577e-05
-9.79161e-07
-2.74309e-05
-9.50791e-07
-2.83617e-05
-9.41018e-07
-2.92411e-05
-9.21503e-07
-3.00547e-05
-9.01672e-07
-3.08185e-05
-8.36481e-07
-3.15357e-05
-7.112e-07
-3.225e-05
-5.30881e-07
-3.29717e-05
-3.14837e-07
-3.36951e-05
-1.18227e-07
-3.43836e-05
3.33224e-08
-3.4986e-05
1.17891e-07
-3.54625e-05
2.10354e-07
-3.58131e-05
3.68181e-07
-3.60464e-05
5.83907e-07
-3.62473e-05
8.8035e-07
-3.64129e-05
1.18384e-06
-3.6544e-05
1.44931e-06
-3.6572e-05
1.65704e-06
-3.64804e-05
1.78091e-06
-3.63413e-05
1.94238e-06
-3.62037e-05
2.1329e-06
-3.60706e-05
2.39008e-06
-3.59059e-05
2.62777e-06
-3.56957e-05
2.88331e-06
-3.53781e-05
3.10849e-06
-3.49728e-05
3.32638e-06
-3.44867e-05
3.48061e-06
-3.38998e-05
3.56391e-06
-3.32209e-05
3.6426e-06
-3.24626e-05
3.71004e-06
-3.15942e-05
3.79179e-06
-3.06698e-05
3.90973e-06
-2.97361e-05
4.05569e-06
-2.87512e-05
4.20058e-06
-2.77445e-05
4.38278e-06
-2.67159e-05
4.54296e-06
-2.57015e-05
4.77449e-06
-2.46568e-05
4.86061e-06
-2.36616e-05
5.01733e-06
-2.26479e-05
5.00776e-06
-2.15809e-05
5.03847e-06
-2.03447e-05
5.11099e-06
-1.89717e-05
5.36524e-06
-1.74983e-05
5.9473e-06
-1.59274e-05
6.53334e-06
-1.43678e-05
7.25038e-06
-1.2895e-05
7.29417e-06
-1.15417e-05
7.94904e-06
-1.02655e-05
8.82063e-06
-8.98192e-06
9.44341e-06
-7.77008e-06
9.85019e-06
-6.57696e-06
9.76844e-06
-4.96446e-06
8.90559e-06
-2.76696e-06
7.99551e-06
-7.07654e-07
8.49635e-06
1.08166e-06
9.22362e-06
2.70225e-06
1.02835e-05
3.86898e-06
1.22412e-05
5.08705e-06
1.31156e-05
6.49308e-06
1.39738e-05
7.26555e-06
1.66628e-05
7.0291e-06
1.87442e-05
6.23827e-06
1.91852e-05
5.76184e-06
1.91973e-05
5.6705e-06
1.91147e-05
5.519e-06
1.85352e-05
5.43917e-06
1.73562e-05
5.07261e-06
1.75087e-05
4.07251e-06
1.91334e-05
2.44249e-06
2.16736e-05
-2.83479e-07
2.44528e-05
-4.10899e-06
2.63468e-05
-8.2484e-06
2.78755e-05
-1.14374e-05
2.82853e-05
-1.37139e-05
2.77436e-05
-1.61754e-05
2.80233e-05
-1.83644e-05
2.84216e-05
-1.94732e-05
2.75012e-05
-2.02392e-05
2.6183e-05
-2.09792e-05
2.46647e-05
-2.23015e-05
2.38357e-05
-2.37233e-05
2.3853e-05
-2.44791e-05
2.32191e-05
-2.39051e-05
2.045e-05
-2.33013e-05
2.00425e-05
-2.2772e-05
2.11255e-05
-2.13547e-05
1.79397e-05
-1.96174e-05
1.35226e-05
-1.6205e-05
1.8344e-05
-1.45076e-05
2.67453e-05
-1.4888e-05
3.07726e-05
-1.662e-05
3.32719e-05
-1.77125e-05
3.31877e-05
-1.83912e-05
3.51657e-05
-1.74113e-05
2.91652e-05
-1.51446e-05
2.43208e-05
-1.54124e-05
2.51651e-05
-1.47311e-05
1.84755e-05
-1.07479e-05
1.68517e-05
-9.99603e-06
2.63345e-05
-9.17618e-06
2.38022e-05
-5.29338e-06
2.2587e-05
-3.03737e-06
3.03428e-05
-2.41911e-06
3.41535e-05
-2.64171e-06
3.62494e-05
-2.25122e-06
3.54984e-05
-2.26804e-06
3.72725e-05
-3.04166e-06
3.9672e-05
-3.50508e-06
3.9617e-05
-3.49912e-06
3.9741e-05
-3.38599e-06
4.24843e-05
-2.39297e-06
4.06026e-05
-1.53479e-06
4.35663e-05
-1.71194e-06
4.73113e-05
-2.19767e-06
4.83925e-05
-2.56859e-06
4.94738e-05
-1.92499e-06
5.22777e-05
-2.37607e-06
4.83484e-05
-3.48317e-06
4.42265e-05
-5.4055e-06
5.26919e-05
-6.77779e-06
6.3383e-05
-4.38458e-06
5.73469e-05
-7.86639e-07
5.03405e-05
2.62061e-06
4.87738e-05
7.72331e-06
4.12002e-05
1.28701e-05
4.2049e-05
1.48975e-05
5.31615e-05
1.68376e-05
5.66585e-05
1.92471e-05
5.41142e-05
2.06786e-05
5.23126e-05
2.05338e-05
5.064e-05
1.91259e-05
4.95677e-05
1.60806e-05
5.19236e-05
1.25474e-05
5.3594e-05
9.12597e-06
5.49833e-05
5.15107e-05
7.2284e-06
-3.12748e-07
-5.94201e-06
-5.05343e-07
-5.99973e-06
-7.16438e-07
-6.61843e-06
-1.0602e-06
-7.16856e-06
-1.4554e-06
-7.5177e-06
-1.69812e-06
-7.93718e-06
-1.70029e-06
-8.37494e-06
-1.51515e-06
-8.79529e-06
-1.23686e-06
-9.10811e-06
-9.35688e-07
-9.31037e-06
-6.68271e-07
-9.41492e-06
-4.61687e-07
-9.37426e-06
-3.17748e-07
-9.27704e-06
-2.21297e-07
-9.26617e-06
-1.30185e-07
-9.24545e-06
-6.62852e-08
-9.15908e-06
-1.46013e-07
-8.95622e-06
-3.32241e-07
-8.54305e-06
-6.08747e-07
-8.09063e-06
-9.67705e-07
-7.626e-06
-1.38682e-06
-6.9866e-06
-2.00041e-06
-6.16339e-06
-2.70248e-06
-5.51233e-06
-3.53539e-06
-4.731e-06
-4.64199e-06
-3.93144e-06
-5.88692e-06
-3.57768e-06
-7.04565e-06
-3.27914e-06
-8.13849e-06
-2.98595e-06
-9.40614e-06
-3.09468e-06
-1.05575e-05
-3.44116e-06
-1.13657e-05
-3.608e-06
-1.24829e-05
-3.57332e-06
-1.38363e-05
-4.20936e-06
-1.48328e-05
-5.33954e-06
-1.55885e-05
-5.48127e-06
-1.71157e-05
-4.3049e-06
-1.95298e-05
-3.19211e-06
-2.18794e-05
-2.69249e-06
-2.34254e-05
-2.39188e-06
-2.45633e-05
-2.12e-06
-2.55491e-05
-1.84262e-06
-2.6457e-05
-1.66675e-06
-2.72683e-05
-1.56428e-06
-2.80255e-05
-1.50941e-06
-2.87209e-05
-1.46488e-06
-2.93903e-05
-1.41599e-06
-3.00505e-05
-1.36043e-06
-3.07076e-05
-1.31669e-06
-3.13949e-05
-1.19389e-06
-3.20677e-05
-1.02916e-06
-3.26849e-05
-8.00071e-07
-3.32423e-05
-4.85779e-07
-3.37625e-05
-1.4131e-07
-3.42656e-05
1.6074e-07
-3.47802e-05
3.64007e-07
-3.52101e-05
4.17139e-07
-3.55124e-05
4.64531e-07
-3.56874e-05
5.81467e-07
-3.57386e-05
8.28386e-07
-3.57015e-05
1.18116e-06
-3.56377e-05
1.6111e-06
-3.55313e-05
1.96599e-06
-3.54104e-05
2.18076e-06
-3.52897e-05
2.36217e-06
-3.51707e-05
2.57749e-06
-3.49819e-05
2.86323e-06
-3.47192e-05
3.17966e-06
-3.43607e-05
3.48747e-06
-3.39614e-05
3.80792e-06
-3.3459e-05
4.056e-06
-3.2911e-05
4.2832e-06
-3.23276e-05
4.42471e-06
-3.16801e-05
4.52845e-06
-3.09787e-05
4.6476e-06
-3.0216e-05
4.79355e-06
-2.94039e-05
4.99334e-06
-2.84948e-05
5.16781e-06
-2.74978e-05
5.35783e-06
-2.6457e-05
5.63409e-06
-2.53693e-05
5.8899e-06
-2.42885e-05
6.26095e-06
-2.32215e-05
6.48477e-06
-2.22189e-05
6.85022e-06
-2.12217e-05
6.96734e-06
-2.03002e-05
7.20239e-06
-1.93034e-05
7.28202e-06
-1.81925e-05
7.40316e-06
-1.69088e-05
7.79889e-06
-1.54872e-05
8.25118e-06
-1.4016e-05
8.97946e-06
-1.28029e-05
9.39059e-06
-1.16209e-05
1.00376e-05
-1.03374e-05
1.09017e-05
-9.05665e-06
1.16046e-05
-7.8796e-06
1.22669e-05
-6.67313e-06
1.23237e-05
-4.97273e-06
1.10261e-05
-2.79025e-06
9.50852e-06
-8.12459e-07
1.03653e-05
1.05678e-06
1.15046e-05
2.55765e-06
1.31666e-05
3.78078e-06
1.55591e-05
5.25278e-06
1.62088e-05
7.00375e-06
1.69816e-05
8.16277e-06
2.05145e-05
8.50791e-06
2.31982e-05
8.46957e-06
2.43334e-05
8.18925e-06
2.47176e-05
7.64689e-06
2.49857e-05
7.39537e-06
2.44395e-05
6.98958e-06
2.33713e-05
5.6822e-06
2.44314e-05
3.35372e-06
2.72706e-05
6.38716e-07
3.05611e-05
-2.74361e-06
3.39264e-05
-6.75318e-06
3.62727e-05
-9.88175e-06
3.70506e-05
-1.16509e-05
3.62679e-05
-1.31309e-05
3.57806e-05
-1.49297e-05
3.63421e-05