/*--------------------------------*- C++ -*----------------------------------*\
| =========                 |                                                 |
| \\      /  F ield         | OpenFOAM: The Open Source CFD Toolbox           |
|  \\    /   O peration     | Version:  dev                                   |
|   \\  /    A nd           | Web:      http://www.openfoam.org               |
|    \\/     M anipulation  |                                                 |
\*---------------------------------------------------------------------------*/
FoamFile
{
    version     2.0;
    format      ascii;
    class       volScalarField;
    object      pMean;
    location    "9.14";
}
// * * * * * * * * * * * * * * * * * * * * * * * * * * * * * * * * * * * * * //

dimensions      [1 -1 -2 0 0 0 0];

internalField   nonuniform List<scalar> 
12225
(
98312.2
98292.4
98278.6
98271.6
98257.4
98247.9
98229.5
98219.9
98198.4
98189.6
98164.9
98158.1
98127.1
98120.8
98080
98040.3
97951.1
97585
98307.7
98291.3
98278.1
98271.1
98256.8
98247.4
98228.8
98219.4
98197.7
98189.2
98164.2
98157.6
98126.7
98118.9
98078.3
98044.3
97952
97790.9
98303.9
98289.7
98277.1
98269.7
98255.3
98245.9
98227.3
98218
98196.3
98187.8
98163.4
98155.5
98127.3
98115.5
98080.5
98045.3
97977.9
97889
98298.8
98286.8
98275
98267.3
98252.9
98243.2
98225.2
98215.3
98194.5
98185.1
98162
98152.4
98126.2
98113.3
98081.5
98053.7
98005.2
97936.3
98292.2
98282.4
98271.4
98263.2
98249.4
98239.1
98222.2
98211.2
98192.1
98180.8
98160.5
98147.9
98126.4
98110
98083.4
98059.2
98019.3
97986.6
98283.9
98276.3
98265.5
98257.2
98243.7
98233.1
98217
98205.4
98187.7
98175.5
98157.3
98143.7
98125.3
98108.4
98087
98061.7
98039.5
98019.1
98273.7
98267.3
98257
98248.5
98235.9
98224.7
98209.9
98197.4
98181.6
98168.1
98152.7
98137.6
98123.1
98105.5
98091.2
98070.2
98059.9
98044.9
98262.9
98257.3
98247.6
98238.9
98227.2
98215.7
98202.1
98188.9
98174.9
98160.5
98147.4
98131.8
98120.2
98102.9
98094.2
98076.3
98074.6
98059.7
98252.1
98246.7
98237.8
98228.9
98218.1
98206.3
98193.7
98180.3
98167.7
98153
98141.6
98126.1
98116.4
98100.4
98094.1
98079.9
98079.6
98067.7
98238.5
98233
98225.3
98216.3
98206.4
98194.6
98183.1
98169.6
98158.3
98143.7
98133.8
98118.8
98110.6
98096.2
98091.3
98079.5
98078.7
98070.4
98221.6
98216.1
98209.5
98200.7
98191.6
98180.1
98169.3
98156.4
98145.9
98132.3
98122.9
98109.8
98101.7
98090.2
98084.6
98076
98073.3
98068.2
98201
98195.3
98190
98181.6
98173.2
98162.2
98152.3
98140
98130.4
98117.8
98109.2
98097.7
98090.1
98080.8
98075.1
98068.7
98065.1
98061.5
98176.2
98170.9
98166.4
98158.8
98150.9
98140.9
98131.5
98120.6
98111.4
98100.7
98092.3
98083
98075.7
98068.5
98063
98058.2
98054.6
98051.8
98148
98143.2
98139.2
98132.6
98125.4
98116.5
98107.8
98098.3
98089.8
98080.8
98073.1
98065.5
98059.1
98053.4
98048.7
98044.9
98041.9
98039.8
98117.8
98114.1
98110.3
98104.9
98098.4
98090.8
98083
98074.9
98067.3
98059.8
98053.1
98047
98041.7
98037.1
98033.4
98030.5
98028.3
98026.8
98090.1
98087.3
98084
98079.5
98073.8
98067.3
98060.5
98053.7
98047.1
98040.9
98035.3
98030.3
98026
98022.5
98019.6
98017.4
98015.9
98014.9
98071.5
98069.6
98066.8
98062.9
98057.9
98052.2
98046.3
98040.4
98034.7
98029.4
98024.7
98020.5
98016.9
98014
98011.7
98010
98008.8
98008.2
98071.7
98070.1
98067.5
98063.8
98059.1
98053.7
98048.1
98042.6
98037.2
98032.3
98027.8
98023.9
98020.5
98017.7
98015.4
98013.8
98012.5
98011.8
98091.5
98089.6
98086.8
98082.8
98077.9
98072.3
98066.5
98060.7
98055.2
98049.9
98045.1
98040.9
98037.1
98033.9
98031.3
98029.1
98027.4
98026.2
98122.2
98120.1
98116.7
98112.2
98106.7
98100.7
98094.4
98088
98081.9
98076
98070.6
98065.7
98061.3
98057.4
98054.1
98051.2
98048.8
98046.9
98157.1
98154.5
98150.4
98145.2
98139.2
98132.5
98125.5
98118.5
98111.7
98105.2
98099
98093.4
98088.2
98083.6
98079.5
98075.9
98072.7
98070
98191
98187.9
98183.1
98177.2
98170.5
98163.3
98155.7
98148.1
98140.7
98133.5
98126.6
98120.3
98114.4
98109
98104.2
98099.9
98096
98092.6
98221.2
98217.5
98212
98205.5
98198.2
98190.5
98182.5
98174.3
98166.3
98158.5
98151.1
98144.2
98137.7
98131.7
98126.2
98121.3
98116.8
98112.8
98246.5
98242.2
98235.9
98228.7
98221
98212.9
98204.5
98196
98187.6
98179.3
98171.4
98164
98157
98150.5
98144.5
98139.1
98134.1
98129.6
98266.8
98261.6
98254.4
98246.7
98238.7
98230.4
98221.7
98212.9
98204.2
98195.6
98187.3
98179.5
98172.1
98165.3
98158.9
98153
98147.7
98142.7
98282.4
98276.1
98268
98259.9
98251.7
98243.2
98234.4
98225.4
98216.4
98207.6
98199.1
98191
98183.4
98176.2
98169.5
98163.4
98157.7
98152.5
98294.2
98286.4
98277.3
98268.8
98260.5
98252
98243.1
98234.1
98225
98216
98207.3
98199
98191.2
98183.8
98177
98170.6
98164.8
98159.4
98302.9
98293.1
98283
98274.4
98266.1
98257.6
98248.8
98239.6
98230.5
98221.4
98212.6
98204.2
98196.2
98188.8
98181.8
98175.3
98169.3
98163.8
98309
98296.9
98285.8
98277.2
98269.1
98260.7
98252
98242.8
98233.6
98224.5
98215.7
98207.2
98199.1
98191.6
98184.5
98178
98171.9
98166.3
98315
98299.4
98287.4
98278.5
98270.3
98262
98253.2
98244.1
98234.9
98225.8
98216.9
98208.4
98200.3
98192.8
98185.7
98179.1
98173.1
98167.5
98311.9
98311.6
98310.8
98309.6
98308.1
98306.3
98304.1
98301.5
98298.4
98295
98291.1
98286.8
98282.2
98277.3
98272.1
98266.6
98260.9
98255
98248.9
98242.6
98236.2
98229.6
98222.9
98216.1
98209.2
98202.2
98195.2
98188.2
98181.1
98174
98166.9
98159.8
98152.8
98145.8
98139
98132.2
98125.6
98119.1
98112.8
98106.6
98100.7
98095
98089.6
98084.5
98079.7
98075.2
98071.1
98067.4
98064.1
98061.2
98058.8
98056.9
98055.6
98054.7
98054.4
98054.8
98055.8
98057.4
98059.7
98062.6
98066.3
98070.7
98075.8
98081.6
98088.1
98095.4
98103.4
98112
98121.4
98131.3
98141.9
98153.1
98164.9
98177.2
98190
98203.2
98216.8
98230.8
98245.1
98259.7
98274.5
98289.6
98304.7
98319.9
98335.2
98350.5
98365.7
98380.7
98395.7
98410.4
98424.8
98438.9
98452.7
98466.1
98479
98491.4
98503.3
98514.6
98525.4
98535.5
98545
98553.9
98562.1
98569.7
98576.6
98583
98588.7
98593.8
98598.4
98602.5
98606.2
98609.3
98612.2
98614.7
98616.9
98618.7
98620.4
98621.8
98623.1
98624.2
98625.3
98626.3
98627.5
98628.8
98630.4
98632.4
98635.1
98638.5
98642.9
98648.5
98655.6
98664.3
98675
98687.9
98703.3
98721.3
98742.1
98765.9
98792.7
98822.5
98855.5
98891.4
98930.3
98971.8
99016.1
99062.7
99111.6
99162.3
99214.9
99269.1
99324.6
99380.9
99437.9
99495.2
99552.5
99609
99664.4
99718.1
99769.1
99816.9
99860.4
99898.7
99930.7
99955.7
99972.4
99979.9
99977.2
99964.2
99940.1
99905.4
99860
99805.2
99741.3
99670.6
99593.6
99513.1
99428.5
99343.9
99257.1
99174
98305
98304.6
98303.8
98302.7
98301.1
98299.3
98297
98294.4
98291.4
98288
98284.2
98280.1
98275.6
98270.8
98265.7
98260.4
98254.9
98249.1
98243.2
98237.1
98230.9
98224.5
98218
98211.4
98204.6
98197.8
98191
98184.1
98177.1
98170.2
98163.2
98156.3
98149.5
98142.7
98135.9
98129.3
98122.8
98116.5
98110.3
98104.3
98098.5
98092.9
98087.6
98082.5
98077.8
98073.4
98069.4
98065.7
98062.5
98059.6
98057.2
98055.3
98053.9
98053.1
98052.8
98053.1
98054
98055.5
98057.7
98060.6
98064.2
98068.5
98073.5
98079.2
98085.6
98092.7
98100.5
98109
98118.2
98128
98138.4
98149.4
98160.9
98173
98185.6
98198.6
98212
98225.7
98239.8
98254.2
98268.8
98283.5
98298.4
98313.4
98328.4
98343.4
98358.3
98373.1
98387.7
98402.1
98416.3
98430.1
98443.6
98456.7
98469.3
98481.4
98493
98504.1
98514.6
98524.5
98533.8
98542.4
98550.4
98557.8
98564.6
98570.7
98576.3
98581.3
98585.8
98589.8
98593.3
98596.4
98599.2
98601.6
98603.8
98605.6
98607.2
98608.5
98609.7
98610.8
98611.7
98612.7
98613.7
98614.9
98616.4
98618.2
98620.6
98623.8
98627.9
98633.2
98639.9
98648.1
98658.3
98670.7
98685.4
98702.8
98722.9
98745.9
98771.8
98800.8
98832.8
98867.7
98905.5
98945.9
98989.1
99034.6
99082.3
99131.9
99183.3
99236.3
99290.6
99345.8
99401.7
99458
99514.2
99569.8
99624.2
99677.2
99727.4
99774.6
99817.7
99855.7
99887.6
99912.7
99929.8
99937.9
99936
99924.1
99901.3
99868.1
99824.3
99771.2
99709
99640.2
99564.9
99486.1
99403.2
99320.1
99234.3
99149.4
98292.3
98291.9
98291.1
98289.9
98288.3
98286.4
98284.1
98281.4
98278.4
98275
98271.3
98267.2
98262.9
98258.3
98253.5
98248.4
98243.2
98237.8
98232.2
98226.5
98220.6
98214.6
98208.5
98202.3
98195.9
98189.4
98182.9
98176.3
98169.7
98163
98156.3
98149.7
98143.1
98136.6
98130.1
98123.7
98117.5
98111.3
98105.4
98099.6
98094
98088.6
98083.4
98078.6
98074
98069.7
98065.7
98062.2
98059
98056.2
98053.8
98051.9
98050.4
98049.5
98049.1
98049.3
98050.1
98051.6
98053.6
98056.4
98059.8
98063.8
98068.6
98074
98080.2
98087
98094.5
98102.7
98111.6
98121
98131.1
98141.8
98152.9
98164.6
98176.8
98189.4
98202.4
98215.7
98229.3
98243.2
98257.3
98271.6
98286
98300.5
98315
98329.5
98343.9
98358.1
98372.2
98386.1
98399.7
98413
98425.9
98438.4
98450.4
98462
98473.1
98483.6
98493.6
98503.1
98511.9
98520.1
98527.7
98534.7
98541.1
98547
98552.2
98557
98561.3
98565
98568.4
98571.3
98574
98576.2
98578.2
98579.9
98581.4
98582.6
98583.6
98584.5
98585.4
98586.1
98586.9
98587.7
98588.8
98590.3
98592.2
98594.8
98598.2
98602.8
98608.7
98616
98625.3
98636.5
98650
98665.9
98684.6
98706
98730.3
98757.4
98787.5
98820.4
98856.1
98894.4
98935.3
98978.5
99023.9
99071.1
99120.2
99170.8
99222.7
99275.7
99329.3
99383.4
99437.5
99491
99543.6
99594.8
99643.5
99689.3
99731.2
99768.5
99799.9
99824.9
99842.3
99851.2
99850.7
99840.5
99820
99789.5
99748.8
99699.1
99640.5
99575.3
99503.7
99428.4
99348.9
99269
99186
99102.2
98274.8
98274.5
98273.7
98272.5
98270.9
98268.9
98266.6
98263.9
98260.9
98257.6
98254
98250.1
98246
98241.6
98237
98232.3
98227.4
98222.4
98217.3
98212
98206.5
98201
98195.3
98189.6
98183.7
98177.7
98171.6
98165.5
98159.4
98153.2
98147
98140.8
98134.6
98128.5
98122.4
98116.4
98110.4
98104.7
98099
98093.5
98088.1
98083
98078
98073.3
98068.9
98064.7
98060.9
98057.4
98054.3
98051.6
98049.3
98047.3
98045.9
98044.9
98044.4
98044.5
98045.2
98046.4
98048.3
98050.8
98053.9
98057.7
98062.1
98067.2
98073
98079.4
98086.5
98094.3
98102.7
98111.7
98121.2
98131.4
98142.1
98153.2
98164.8
98176.8
98189.2
98201.9
98214.9
98228.1
98241.6
98255.2
98268.9
98282.7
98296.5
98310.2
98323.9
98337.4
98350.7
98363.8
98376.7
98389.2
98401.4
98413.1
98424.4
98435.2
98445.6
98455.4
98464.7
98473.4
98481.6
98489.2
98496.2
98502.7
98508.6
98514
98518.9
98523.3
98527.2
98530.7
98533.8
98536.5
98538.9
98541
98542.7
98544.3
98545.5
98546.6
98547.4
98548.1
98548.6
98549
98549.4
98549.8
98550.4
98551.2
98552.5
98554.3
98556.8
98560.3
98565.1
98571.1
98578.9
98588.5
98600.3
98614.4
98631
98650.2
98672.1
98696.8
98724.2
98754.3
98787.1
98822.4
98860.3
98900.4
98942.6
98986.6
99032.5
99079.9
99128.7
99178.5
99229.2
99280.3
99331.5
99382.3
99432.2
99481
99527.6
99571.5
99611.8
99647.8
99678.3
99703
99720.7
99730.3
99731.2
99723
99705.3
99678.1
99641.2
99595.8
99541.9
99481.5
99414.7
99344.3
99269.5
99194
99115.3
99035.3
98253.6
98253.4
98252.6
98251.5
98249.9
98248
98245.8
98243.1
98240.2
98237
98233.5
98229.8
98225.9
98221.8
98217.5
98213.1
98208.6
98203.9
98199.2
98194.4
98189.4
98184.4
98179.2
98174
98168.6
98163.2
98157.7
98152.1
98146.6
98140.9
98135.3
98129.7
98124
98118.4
98112.8
98107.3
98101.9
98096.5
98091.3
98086.2
98081.2
98076.3
98071.7
98067.2
98063
98059.1
98055.4
98052.1
98049
98046.4
98044
98042.1
98040.6
98039.6
98039
98038.9
98039.4
98040.5
98042.1
98044.2
98047
98050.4
98054.4
98059.1
98064.4
98070.4
98076.9
98084.1
98091.9
98100.3
98109.3
98118.8
98128.8
98139.3
98150.1
98161.4
98173
98184.9
98197.1
98209.6
98222.2
98234.9
98247.7
98260.6
98273.5
98286.3
98299
98311.6
98324
98336.2
98348.1
98359.7
98370.9
98381.8
98392.1
98402.1
98411.5
98420.4
98428.8
98436.8
98444.1
98451
98457.3
98463.1
98468.5
98473.3
98477.6
98481.5
98485
98488.1
98490.8
98493.2
98495.4
98497.2
98498.7
98500
98501
98501.7
98502.3
98502.6
98502.8
98502.8
98502.7
98502.6
98502.5
98502.6
98503
98503.8
98505.2
98507.5
98510.8
98515.3
98521.3
98529
98538.7
98550.5
98564.6
98581.2
98600.2
98621.8
98646.1
98672.9
98702.2
98733.9
98768.1
98804.4
98842.8
98883.1
98925.1
98968.7
99013.8
99059.8
99106.8
99154.4
99202
99249.5
99296.3
99342.1
99386
99427.6
99465.8
99500.2
99529.6
99553.6
99571.3
99581.5
99583.8
99577.9
99563.1
99539.7
99507.2
99466.8
99418.2
99363.6
99302.5
99238.1
99169.1
99099.2
99026
98951.4
98230.2
98230
98229.3
98228.3
98226.9
98225.1
98222.9
98220.5
98217.7
98214.7
98211.4
98207.9
98204.2
98200.4
98196.4
98192.3
98188.1
98183.8
98179.5
98175.1
98170.6
98166
98161.3
98156.6
98151.8
98146.9
98142
98137.1
98132.1
98127.1
98122.1
98117
98112
98106.9
98101.9
98097
98092.1
98087.3
98082.5
98077.9
98073.3
98068.8
98064.6
98060.4
98056.5
98052.8
98049.4
98046.2
98043.3
98040.7
98038.4
98036.5
98035
98033.9
98033.2
98032.9
98033.2
98034
98035.3
98037.1
98039.6
98042.5
98046.1
98050.2
98055
98060.4
98066.3
98072.9
98080
98087.7
98095.9
98104.6
98113.9
98123.5
98133.5
98144
98154.7
98165.7
98177
98188.4
98200
98211.8
98223.6
98235.4
98247.2
98259
98270.6
98282.2
98293.5
98304.6
98315.4
98325.9
98336.1
98345.8
98355.2
98364
98372.5
98380.4
98387.9
98394.9
98401.4
98407.4
98412.9
98418
98422.6
98426.7
98430.5
98433.8
98436.8
98439.5
98441.8
98443.8
98445.6
98447
98448.2
98449.2
98449.8
98450.2
98450.4
98450.3
98450
98449.5
98448.9
98448.1
98447.3
98446.6
98446
98445.7
98445.8
98446.6
98448.3
98451.1
98455.1
98460.6
98467.9
98477.1
98488.5
98502
98517.9
98536.1
98556.9
98579.9
98605.4
98633.1
98663.2
98695.4
98729.6
98765.7
98803.5
98842.9
98883.8
98925.8
98968.7
99012.2
99056
99099.8
99143.1
99185.5
99226.3
99265.2
99301
99333.4
99361.3
99384.5
99401.8
99412.5
99416
99412.3
99400.5
99381
99353.1
99317.9
99275.1
99226.6
99171.9
99114.1
99051.6
98988.3
98921.4
98853.4
98205.7
98205.6
98205.1
98204.1
98202.9
98201.2
98199.3
98197.1
98194.5
98191.7
98188.7
98185.5
98182.1
98178.5
98174.9
98171.1
98167.2
98163.3
98159.4
98155.3
98151.2
98147.1
98142.9
98138.6
98134.4
98130
98125.7
98121.3
98116.9
98112.5
98108.1
98103.6
98099.2
98094.7
98090.3
98085.9
98081.6
98077.3
98073.1
98068.9
98064.7
98060.7
98056.8
98053
98049.4
98046
98042.8
98039.8
98037.1
98034.6
98032.4
98030.5
98028.9
98027.7
98026.9
98026.5
98026.6
98027.1
98028.1
98029.6
98031.6
98034.1
98037.2
98040.8
98044.9
98049.7
98054.9
98060.8
98067.2
98074.1
98081.5
98089.4
98097.7
98106.5
98115.6
98125
98134.8
98144.8
98155
98165.4
98175.9
98186.6
98197.3
98207.9
98218.6
98229.2
98239.7
98250
98260.2
98270.1
98279.7
98289
98298
98306.6
98314.8
98322.6
98329.9
98336.8
98343.3
98349.3
98354.9
98360
98364.7
98368.9
98372.7
98376.2
98379.3
98382
98384.4
98386.6
98388.4
98390
98391.3
98392.3
98393.1
98393.7
98393.9
98393.9
98393.6
98393.1
98392.3
98391.3
98390
98388.5
98386.8
98385.1
98383.5
98381.9
98380.6
98379.9
98379.9
98380.8
98382.6
98385.9
98390.6
98397.1
98405.5
98415.9
98428.4
98443
98460
98479.2
98500.6
98524.2
98550
98577.9
98607.7
98639.4
98672.8
98707.9
98744.3
98782.1
98820.6
98859.9
98899.6
98939.5
98979.1
99017.8
99055.2
99090.9
99124.2
99154.3
99180.3
99202.2
99218.9
99229.8
99234.4
99232.7
99223.7
99207.9
99184.4
99154.5
99117.5
99075.3
99027.3
98976.5
98921
98864.8
98804.8
98744.1
98181.6
98181.5
98181.1
98180.3
98179.2
98177.8
98176.1
98174.1
98171.9
98169.4
98166.6
98163.7
98160.6
98157.4
98154.1
98150.6
98147.1
98143.6
98139.9
98136.3
98132.6
98128.8
98125.1
98121.3
98117.5
98113.7
98109.8
98106
98102.1
98098.2
98094.3
98090.4
98086.5
98082.6
98078.8
98074.9
98071.1
98067.3
98063.5
98059.8
98056.1
98052.4
98048.9
98045.5
98042.2
98039
98036
98033.2
98030.6
98028.2
98026.1
98024.2
98022.6
98021.3
98020.4
98019.8
98019.7
98019.9
98020.6
98021.7
98023.3
98025.4
98027.9
98031
98034.5
98038.6
98043.2
98048.4
98054
98060.1
98066.6
98073.6
98081.1
98088.9
98097
98105.5
98114.2
98123.1
98132.3
98141.6
98151
98160.5
98170
98179.5
98188.9
98198.3
98207.5
98216.6
98225.5
98234.1
98242.5
98250.6
98258.4
98265.8
98272.8
98279.4
98285.6
98291.5
98296.9
98301.9
98306.5
98310.7
98314.5
98317.9
98320.9
98323.6
98326
98328.1
98329.9
98331.4
98332.8
98333.8
98334.6
98335.2
98335.5
98335.5
98335.3
98334.9
98334.1
98333.1
98331.7
98330
98328
98325.6
98323.1
98320.3
98317.5
98314.7
98312
98309.7
98307.9
98306.8
98306.5
98307.3
98309.5
98313.2
98318.6
98325.8
98334.9
98346
98359.1
98374.4
98391.9
98411.3
98432.8
98456.3
98481.6
98509.1
98538.1
98568.7
98600.7
98634.1
98668.2
98703.3
98738.9
98774.8
98810.5
98845.4
98879.2
98911.6
98941.8
98969.4
98993.1
99013.4
99029.1
99039.9
99045.2
99045.1
99038.6
99026.2
99006.7
98981.8
98950.3
98914.4
98873.1
98829.4
98780.9
98732.1
98679.4
98626.2
98158.7
98158.7
98158.4
98157.8
98156.9
98155.7
98154.2
98152.5
98150.5
98148.3
98145.9
98143.3
98140.6
98137.7
98134.7
98131.7
98128.5
98125.3
98122.1
98118.8
98115.5
98112.1
98108.8
98105.4
98102.1
98098.7
98095.3
98091.9
98088.5
98085.1
98081.6
98078.2
98074.8
98071.4
98068
98064.6
98061.2
98057.8
98054.5
98051.1
98047.8
98044.5
98041.3
98038.1
98035.1
98032.2
98029.4
98026.7
98024.2
98021.9
98019.8
98017.9
98016.3
98015
98013.9
98013.2
98012.8
98012.8
98013.1
98013.9
98015.1
98016.7
98018.7
98021.2
98024.2
98027.7
98031.6
98036
98040.9
98046.2
98051.9
98058
98064.5
98071.4
98078.6
98086
98093.7
98101.6
98109.6
98117.8
98126.1
98134.4
98142.7
98151
98159.2
98167.3
98175.3
98183.1
98190.8
98198.1
98205.3
98212.1
98218.6
98224.8
98230.6
98236.1
98241.2
98245.8
98250.2
98254.1
98257.7
98261
98263.9
98266.4
98268.7
98270.6
98272.3
98273.7
98274.8
98275.8
98276.5
98277
98277.3
98277.3
98277.1
98276.6
98275.9
98274.8
98273.5
98271.8
98269.8
98267.4
98264.6
98261.4
98257.9
98254.1
98250.1
98246
98242
98238.1
98234.5
98231.4
98229
98227.5
98227.1
98228.1
98230.5
98234.5
98240.2
98247.9
98257.3
98268.9
98282.4
98297.9
98315.2
98334.4
98355.6
98378.8
98403.5
98429.8
98457.5
98486.5
98516.4
98547.3
98578.8
98610.7
98642.3
98673.4
98703.5
98732.3
98759.3
98784.1
98805.4
98823.6
98837.9
98848.1
98853.7
98854.7
98850.1
98840.4
98824.7
98804.3
98777.9
98748
98713.2
98676.3
98634.8
98593.4
98548
98502.7
98138.1
98138.1
98137.9
98137.4
98136.7
98135.7
98134.5
98133.1
98131.4
98129.6
98127.5
98125.3
98122.9
98120.4
98117.7
98115
98112.2
98109.4
98106.5
98103.6
98100.7
98097.8
98094.8
98091.8
98088.9
98085.9
98082.9
98079.9
98076.9
98073.9
98070.8
98067.8
98064.8
98061.7
98058.7
98055.7
98052.7
98049.6
98046.6
98043.5
98040.5
98037.5
98034.5
98031.6
98028.7
98026
98023.3
98020.8
98018.4
98016.1
98014
98012.1
98010.4
98008.9
98007.8
98006.8
98006.2
98006
98006
98006.5
98007.3
98008.4
98010
98012
98014.5
98017.3
98020.6
98024.3
98028.4
98033
98037.9
98043.2
98048.8
98054.7
98061
98067.5
98074.2
98081
98088
98095.1
98102.2
98109.4
98116.5
98123.6
98130.7
98137.6
98144.3
98150.9
98157.3
98163.4
98169.3
98174.9
98180.2
98185.1
98189.7
98194
98197.9
98201.5
98204.8
98207.7
98210.3
98212.6
98214.6
98216.3
98217.7
98218.9
98219.8
98220.5
98220.9
98221.2
98221.3
98221.2
98220.9
98220.3
98219.5
98218.4
98217.1
98215.4
98213.4
98211.1
98208.3
98205.1
98201.5
98197.4
98193
98188.1
98183
98177.7
98172.3
98166.9
98161.6
98156.6
98152.2
98148.5
98145.7
98144
98143.6
98144.7
98147.2
98151.5
98157.5
98165.4
98175.2
98186.9
98200.4
98215.8
98232.9
98252.1
98272.8
98295
98318.5
98343.4
98369.2
98396.1
98423.5
98451.4
98479
98506.3
98532.7
98557.8
98581.4
98603.2
98621.9
98637.7
98650.1
98659.3
98664.4
98665.9
98662.6
98655.1
98642.5
98626
98604.2
98579.8
98551.1
98520.6
98485.9
98451.6
98413.4
98375.9
98120.2
98120.4
98120.3
98119.9
98119.3
98118.5
98117.6
98116.4
98115
98113.5
98111.7
98109.8
98107.8
98105.7
98103.4
98101.1
98098.7
98096.3
98093.8
98091.2
98088.7
98086.1
98083.5
98081
98078.3
98075.7
98073.1
98070.4
98067.7
98065
98062.3
98059.6
98056.9
98054.2
98051.4
98048.7
98045.9
98043.1
98040.3
98037.4
98034.6
98031.8
98029
98026.2
98023.5
98020.8
98018.2
98015.7
98013.4
98011.1
98009
98007
98005.2
98003.7
98002.3
98001.2
98000.4
97999.9
97999.7
97999.8
98000.2
98001
98002.2
98003.8
98005.7
98008
98010.7
98013.7
98017.2
98021
98025.2
98029.7
98034.5
98039.6
98045
98050.5
98056.3
98062.1
98068.1
98074.2
98080.2
98086.3
98092.4
98098.3
98104.2
98109.9
98115.5
98120.9
98126.1
98131
98135.6
98140
98144.1
98147.9
98151.4
98154.5
98157.3
98159.8
98161.9
98163.8
98165.4
98166.7
98167.8
98168.6
98169.2
98169.5
98169.7
98169.6
98169.4
98169
98168.3
98167.5
98166.5
98165.4
98163.9
98162.2
98160.2
98157.8
98155.1
98152
98148.4
98144.5
98140
98135
98129.6
98123.7
98117.6
98111
98104.4
98097.5
98090.7
98084.1
98077.8
98072
98067
98062.9
98059.9
98058.2
98057.8
98059
98061.9
98066.5
98072.8
98081.1
98091.1
98102.9
98116.4
98131.9
98148.8
98167.4
98187
98208
98230
98252.9
98276.6
98300.5
98324.2
98347.7
98370.3
98391.7
98411.9
98430.3
98446.2
98459.3
98469.5
98476.9
98481
98482.2
98479.6
98473.7
98463.6
98450.4
98432.7
98413.2
98389.9
98365.3
98336.8
98309.4
98278
98248
98105.6
98105.7
98105.7
98105.4
98105
98104.5
98103.7
98102.8
98101.7
98100.5
98099.1
98097.5
98095.9
98094.1
98092.2
98090.3
98088.3
98086.2
98084.1
98082
98079.8
98077.6
98075.4
98073.2
98070.9
98068.6
98066.2
98063.8
98061.4
98059
98056.5
98054.1
98051.5
98049
98046.5
98043.9
98041.3
98038.6
98035.9
98033.2
98030.5
98027.8
98025
98022.3
98019.7
98017
98014.5
98011.9
98009.5
98007.2
98005
98003
98001.1
97999.4
97997.9
97996.6
97995.6
97994.8
97994.4
97994.2
97994.4
97994.8
97995.6
97996.7
97998.2
98000
98002.2
98004.7
98007.6
98010.8
98014.3
98018.1
98022.1
98026.5
98031
98035.7
98040.6
98045.6
98050.6
98055.7
98060.8
98065.9
98070.9
98075.8
98080.6
98085.2
98089.7
98094
98098
98101.7
98105.3
98108.5
98111.4
98114.1
98116.4
98118.5
98120.2
98121.6
98122.7
98123.5
98124.1
98124.5
98124.6
98124.6
98124.2
98123.7
98123.1
98122.2
98121.2
98120
98118.6
98117.1
98115.4
98113.5
98111.3
98108.9
98106.1
98103
98099.5
98095.6
98091.3
98086.5
98081.2
98075.3
98069
98062.2
98055
98047.4
98039.5
98031.4
98023.1
98015
98007
97999.5
97992.5
97986.2
97980.8
97976.6
97973.7
97972.2
97972.2
97973.9
97977.3
97982.5
97989.3
97998
98008.3
98020.4
98034
98049.2
98065.4
98082.9
98101.3
98120.5
98140.5
98160.7
98180.6
98200.5
98219.2
98236.8
98253.3
98268.2
98281.1
98291.3
98298.9
98304.1
98306.5
98306.7
98304.1
98299.2
98290.9
98280.3
98266.1
98250.7
98232.1
98212.9
98190.2
98169
98144
98121.2
98094.1
98094.4
98094.4
98094.2
98094
98093.6
98093
98092.4
98091.5
98090.6
98089.5
98088.3
98087
98085.6
98084.2
98082.7
98081.1
98079.4
98077.7
98076
98074.2
98072.3
98070.5
98068.5
98066.6
98064.5
98062.4
98060.3
98058.1
98055.9
98053.6
98051.3
98048.9
98046.5
98044
98041.5
98039
98036.4
98033.8
98031.1
98028.4
98025.6
98022.9
98020.2
98017.5
98014.8
98012.2
98009.6
98007.1
98004.7
98002.4
98000.2
97998.2
97996.3
97994.7
97993.2
97992
97991.1
97990.4
97989.9
97989.8
97990
97990.5
97991.2
97992.3
97993.7
97995.5
97997.5
97999.8
98002.5
98005.4
98008.6
98012
98015.7
98019.5
98023.4
98027.5
98031.7
98035.9
98040.2
98044.4
98048.6
98052.6
98056.6
98060.4
98064
98067.4
98070.6
98073.6
98076.3
98078.7
98080.9
98082.7
98084.3
98085.6
98086.5
98087.2
98087.6
98087.7
98087.5
98087.1
98086.5
98085.7
98084.7
98083.5
98082.2
98080.6
98079
98077.1
98075.1
98073
98070.6
98068.2
98065.4
98062.5
98059.2
98055.7
98051.8
98047.5
98042.8
98037.7
98032.1
98025.9
98019.3
98012.1
98004.4
97996.2
97987.6
97978.6
97969.4
97959.9
97950.5
97941
97931.9
97923.1
97915
97907.6
97901.2
97896.1
97892.3
97889.9
97889
97889.8
97892.4
97896.5
97902.4
97909.9
97919.1
97929.7
97941.8
97954.9
97969.2
97984.3
98000.2
98016.7
98033.4
98049.8
98066
98080.9
98094.7
98107.4
98118.7
98128.2
98135.4
98140.1
98143
98143.2
98141.8
98138.6
98133.9
98126.6
98118.1
98106.7
98094.6
98080
98065.5
98047.9
98032.5
98013.3
97997.3
98085.7
98086
98086.1
98086
98085.9
98085.7
98085.4
98085
98084.4
98083.8
98083
98082.2
98081.3
98080.4
98079.3
98078.2
98077
98075.8
98074.5
98073.2
98071.8
98070.3
98068.7
98067.1
98065.4
98063.6
98061.7
98059.8
98057.8
98055.7
98053.5
98051.2
98048.9
98046.6
98044.1
98041.6
98039.1
98036.4
98033.8
98031
98028.3
98025.4
98022.6
98019.8
98017
98014.2
98011.4
98008.7
98006.1
98003.6
98001.1
97998.8
97996.6
97994.6
97992.8
97991.2
97989.8
97988.7
97987.8
97987.2
97986.8
97986.7
97986.9
97987.4
97988.2
97989.3
97990.6
97992.3
97994.2
97996.4
97998.8
98001.5
98004.3
98007.4
98010.6
98013.9
98017.3
98020.8
98024.3
98027.8
98031.2
98034.6
98037.8
98040.9
98043.8
98046.5
98049
98051.2
98053.2
98054.9
98056.3
98057.5
98058.3
98058.9
98059.2
98059.1
98058.8
98058.2
98057.3
98056.1
98054.8
98053.2
98051.5
98049.6
98047.5
98045.2
98042.9
98040.3
98037.6
98034.8
98031.8
98028.6
98025.3
98021.7
98017.9
98013.8
98009.4
98004.7
97999.6
97994.1
97988.2
97981.7
97974.8
97967.3
97959.3
97950.9
97941.8
97932.3
97922.5
97912.3
97901.9
97891.2
97880.6
97870.1
97859.8
97850.1
97841.1
97833
97825.9
97820.1
97815.7
97812.7
97811.3
97811.6
97813.5
97817
97821.9
97828.5
97836.5
97845.7
97856.1
97867.6
97879.7
97892.6
97905.8
97919.1
97932.1
97944.6
97955.9
97966
97974.9
97982.5
97988.5
97992.4
97994.1
97994.5
97992.3
97989
97984.5
97979.3
97972.6
97965.3
97956
97946.7
97935.3
97925
97911.8
97901.5
97887.5
97877.7
98079.7
98080
98080.2
98080.3
98080.3
98080.2
98080.1
98080
98079.7
98079.5
98079.1
98078.8
98078.3
98077.8
98077.2
98076.6
98075.9
98075.1
98074.3
98073.3
98072.3
98071.2
98069.9
98068.6
98067.1
98065.5
98063.8
98062
98060.1
98058.1
98056
98053.8
98051.4
98049
98046.6
98044
98041.3
98038.6
98035.8
98032.9
98030
98027.1
98024.1
98021.1
98018.2
98015.2
98012.3
98009.4
98006.6
98003.9
98001.3
97998.8
97996.5
97994.4
97992.4
97990.6
97989.1
97987.8
97986.7
97985.9
97985.3
97985.1
97985
97985.3
97985.8
97986.6
97987.7
97989
97990.6
97992.4
97994.5
97996.7
97999.2
98001.7
98004.4
98007.2
98010.1
98012.9
98015.8
98018.6
98021.4
98024
98026.5
98028.8
98030.9
98032.8
98034.4
98035.8
98036.9
98037.7
98038.2
98038.4
98038.3
98038
98037.3
98036.3
98035
98033.5
98031.6
98029.5
98027.2
98024.7
98022.1
98019.3
98016.3
98013.2
98009.9
98006.5
98002.9
97999.2
97995.3
97991.3
97987
97982.6
97977.9
97973
97967.7
97962.2
97956.2
97949.9
97943.2
97935.9
97928.2
97920
97911.3
97902.1
97892.4
97882.2
97871.6
97860.6
97849.3
97837.8
97826.2
97814.6
97803.1
97792.1
97781.7
97772.2
97763.7
97756.2
97750.1
97745.4
97742.2
97740.6
97740.4
97741.8
97744.6
97748.9
97754.5
97761.3
97769.2
97778.2
97787.7
97797.7
97807.8
97817.8
97827.5
97836.6
97844.3
97850.8
97855.9
97859.8
97862.1
97862.6
97861.3
97859
97854.4
97848.9
97842.8
97836.6
97829.8
97823.2
97815.2
97808
97799.3
97792.4
97783
97777.2
97767.8
97763.6
98075.4
98075.7
98075.9
98076.1
98076.2
98076.4
98076.6
98076.8
98077
98077.2
98077.4
98077.5
98077.7
98077.7
98077.7
98077.6
98077.3
98077
98076.6
98076
98075.3
98074.5
98073.6
98072.5
98071.2
98069.8
98068.2
98066.5
98064.7
98062.7
98060.6
98058.3
98055.9
98053.5
98050.9
98048.2
98045.4
98042.5
98039.6
98036.5
98033.4
98030.3
98027.2
98024
98020.8
98017.7
98014.6
98011.5
98008.5
98005.6
98002.9
98000.3
97997.8
97995.5
97993.4
97991.5
97989.8
97988.4
97987.1
97986.2
97985.5
97985
97984.9
97984.9
97985.3
97985.9
97986.7
97987.8
97989.2
97990.7
97992.4
97994.4
97996.4
97998.6
98000.9
98003.2
98005.6
98008
98010.3
98012.5
98014.7
98016.7
98018.5
98020.1
98021.5
98022.7
98023.6
98024.2
98024.5
98024.5
98024.1
98023.5
98022.6
98021.3
98019.8
98017.9
98015.7
98013.3
98010.6
98007.6
98004.4
98001
97997.4
97993.7
97989.9
97985.9
97981.7
97977.4
97973
97968.3
97963.6
97958.7
97953.5
97948.2
97942.6
97936.8
97930.7
97924.3
97917.6
97910.5
97903
97895
97886.6
97877.7
97868.4
97858.6
97848.3
97837.5
97826.3
97814.7
97802.7
97790.5
97778.1
97765.6
97753.3
97741.3
97729.9
97719.3
97709.5
97700.8
97693.3
97687.2
97682.4
97679.1
97677.2
97676.8
97677.8
97680.2
97683.7
97688.4
97694.1
97700.9
97708
97715.1
97722.2
97729.1
97735.7
97741.4
97745.8
97748.9
97750.2
97750.4
97748.9
97746
97741.5
97736.3
97729.3
97721.7
97713.7
97706.2
97698.8
97692.4
97685.2
97679.6
97672.8
97668.7
97662.4
97660.7
97655.3
97655.9
98071.6
98071.8
98072
98072.2
98072.5
98073
98073.6
98074.4
98075.2
98076.1
98077
98077.9
98078.7
98079.4
98079.9
98080.4
98080.7
98080.8
98080.8
98080.6
98080.2
98079.7
98079
98078.1
98077
98075.7
98074.2
98072.6
98070.7
98068.7
98066.6
98064.3
98061.8
98059.3
98056.5
98053.7
98050.8
98047.7
98044.6
98041.4
98038.1
98034.8
98031.4
98028
98024.7
98021.3
98018
98014.8
98011.6
98008.6
98005.7
98002.9
98000.3
97997.9
97995.7
97993.6
97991.8
97990.3
97989
97987.9
97987.1
97986.5
97986.2
97986.2
97986.4
97986.9
97987.5
97988.5
97989.6
97991
97992.5
97994.1
97995.9
97997.8
97999.7
98001.7
98003.6
98005.6
98007.4
98009.2
98010.8
98012.3
98013.5
98014.5
98015.3
98015.8
98016
98015.9
98015.5
98014.8
98013.7
98012.3
98010.6
98008.5
98006.2
98003.5
98000.5
97997.3
97993.7
97989.9
97985.8
97981.6
97977.2
97972.6
97967.9
97963.1
97958.1
97952.9
97947.6
97942.1
97936.5
97930.7
97924.6
97918.4
97912
97905.3
97898.4
97891.3
97883.8
97875.9
97867.7
97859
97850
97840.6
97830.7
97820.3
97809.5
97798.3
97786.6
97774.6
97762.1
97749.2
97736.2
97723.2
97710.3
97697.7
97685.5
97674
97663.2
97653.4
97644.8
97637.4
97631.3
97626.6
97623.3
97621.4
97620.9
97621.6
97623.3
97626
97629.8
97634.4
97639.3
97643.9
97648.3
97652.2
97655.7
97658.3
97659.5
97659.2
97656.9
97653.3
97648.2
97641.9
97634.2
97626
97616.6
97606.7
97596.9
97588.1
97579.8
97573.1
97566.3
97561.7
97556.5
97554.5
97550.7
97552.5
97550.7
97555.6
98066.7
98066.8
98066.8
98067.1
98067.9
98069.2
98070.6
98072.3
98074.1
98075.9
98077.7
98079.4
98080.9
98082.3
98083.5
98084.5
98085.3
98085.8
98086.2
98086.3
98086.2
98085.9
98085.4
98084.6
98083.7
98082.5
98081.1
98079.5
98077.6
98075.6
98073.4
98071
98068.5
98065.8
98063
98060
98056.9
98053.7
98050.4
98047
98043.5
98040
98036.5
98032.9
98029.4
98025.9
98022.4
98019
98015.7
98012.5
98009.5
98006.6
98003.9
98001.3
97999
97996.9
97995
97993.4
97992
97990.9
97990
97989.4
97989
97988.8
97989
97989.3
97989.9
97990.7
97991.7
97992.9
97994.2
97995.7
97997.2
97998.8
98000.5
98002.1
98003.7
98005.3
98006.7
98008
98009.2
98010.2
98010.9
98011.4
98011.6
98011.5
98011.1
98010.4
98009.3
98007.9
98006.2
98004.1
98001.6
97998.8
97995.7
97992.3
97988.6
97984.6
97980.3
97975.7
97970.8
97965.8
97960.6
97955.2
97949.7
97944.1
97938.2
97932.3
97926.1
97919.8
97913.4
97906.7
97899.9
97892.8
97885.6
97878.2
97870.5
97862.6
97854.4
97845.8
97836.9
97827.7
97818.2
97808.3
97797.9
97787.2
97776
97764.4
97752.4
97740
97727.1
97713.9
97700.4
97687