/*--------------------------------*- C++ -*----------------------------------*\
| =========                 |                                                 |
| \\      /  F ield         | OpenFOAM: The Open Source CFD Toolbox           |
|  \\    /   O peration     | Version:  dev                                   |
|   \\  /    A nd           | Web:      http://www.openfoam.org               |
|    \\/     M anipulation  |                                                 |
\*---------------------------------------------------------------------------*/
FoamFile
{
    version     2.0;
    format      ascii;
    class       volScalarField;
    object      pPrime2Mean;
    location    "9.14";
}
// * * * * * * * * * * * * * * * * * * * * * * * * * * * * * * * * * * * * * //

dimensions      [2 -2 -4 0 0 0 0];

internalField   nonuniform List<scalar> 
12225
(
5.03767e+07
4.99115e+07
4.89505e+07
4.75989e+07
4.59446e+07
4.40771e+07
4.20556e+07
3.99521e+07
3.78075e+07
3.56697e+07
3.35766e+07
3.15312e+07
2.96073e+07
2.77358e+07
2.5988e+07
2.44273e+07
2.28653e+07
2.12858e+07
5.02689e+07
4.98037e+07
4.88435e+07
4.74935e+07
4.58407e+07
4.39756e+07
4.19569e+07
3.9856e+07
3.77153e+07
3.55802e+07
3.34919e+07
3.14501e+07
2.95308e+07
2.76662e+07
2.59359e+07
2.43752e+07
2.28662e+07
2.15321e+07
5.00188e+07
4.95542e+07
4.85944e+07
4.72475e+07
4.55992e+07
4.37389e+07
4.17269e+07
3.96323e+07
3.74997e+07
3.53728e+07
3.32928e+07
3.12628e+07
2.93495e+07
2.75021e+07
2.57916e+07
2.42358e+07
2.28006e+07
2.15876e+07
4.95831e+07
4.91214e+07
4.8164e+07
4.68223e+07
4.5182e+07
4.33301e+07
4.13298e+07
3.92457e+07
3.71279e+07
3.50144e+07
3.29503e+07
3.09381e+07
2.9042e+07
2.7214e+07
2.55331e+07
2.40019e+07
2.26154e+07
2.15145e+07
4.8918e+07
4.84566e+07
4.75039e+07
4.61716e+07
4.45431e+07
4.27058e+07
4.07213e+07
3.86565e+07
3.65577e+07
3.44684e+07
3.24246e+07
3.04431e+07
2.85696e+07
2.67777e+07
2.51491e+07
2.36401e+07
2.23588e+07
2.12944e+07
4.79688e+07
4.75048e+07
4.65616e+07
4.52428e+07
4.36322e+07
4.18147e+07
3.98549e+07
3.78157e+07
3.5747e+07
3.36874e+07
3.16778e+07
2.97305e+07
2.78953e+07
2.61499e+07
2.45707e+07
2.31313e+07
2.19043e+07
2.08478e+07
4.66738e+07
4.62085e+07
4.52808e+07
4.39783e+07
4.23939e+07
4.0602e+07
3.86778e+07
3.6672e+07
3.46463e+07
3.26256e+07
3.06644e+07
2.87627e+07
2.69788e+07
2.52912e+07
2.37691e+07
2.23897e+07
2.12211e+07
2.01932e+07
4.52318e+07
4.4768e+07
4.38567e+07
4.2572e+07
4.10163e+07
3.92541e+07
3.73684e+07
3.54016e+07
3.34211e+07
3.14466e+07
2.95353e+07
2.76872e+07
2.5955e+07
2.43305e+07
2.28568e+07
2.15407e+07
2.04047e+07
1.94449e+07
4.37169e+07
4.32567e+07
4.23616e+07
4.10967e+07
3.95705e+07
3.78407e+07
3.59945e+07
3.40701e+07
3.21358e+07
3.02109e+07
2.83504e+07
2.65581e+07
2.48796e+07
2.33158e+07
2.18942e+07
2.06342e+07
1.95402e+07
1.86415e+07
4.17767e+07
4.13232e+07
4.04476e+07
3.92103e+07
3.77205e+07
3.60348e+07
3.42373e+07
3.23691e+07
3.0492e+07
2.8632e+07
2.68344e+07
2.51136e+07
2.35012e+07
2.20122e+07
2.06569e+07
1.94645e+07
1.84273e+07
1.75745e+07
3.93281e+07
3.88845e+07
3.80324e+07
3.68319e+07
3.5388e+07
3.37594e+07
3.2024e+07
3.02267e+07
2.84229e+07
2.66431e+07
2.49259e+07
2.3291e+07
2.17624e+07
2.03595e+07
1.90873e+07
1.79717e+07
1.70014e+07
1.61948e+07
3.63047e+07
3.5876e+07
3.50521e+07
3.39006e+07
3.25139e+07
3.09585e+07
2.93005e+07
2.75923e+07
2.5879e+07
2.41981e+07
2.25791e+07
2.10473e+07
1.96195e+07
1.83159e+07
1.71403e+07
1.6109e+07
1.52144e+07
1.44609e+07
3.26917e+07
3.22817e+07
3.14941e+07
3.04037e+07
2.90893e+07
2.76229e+07
2.60607e+07
2.44591e+07
2.2856e+07
2.12916e+07
1.97893e+07
1.83766e+07
1.70652e+07
1.58739e+07
1.48048e+07
1.38671e+07
1.30557e+07
1.23674e+07
2.85801e+07
2.81929e+07
2.74521e+07
2.6434e+07
2.5208e+07
2.38451e+07
2.23968e+07
2.09174e+07
1.94424e+07
1.80089e+07
1.66395e+07
1.53574e+07
1.41746e+07
1.31039e+07
1.21484e+07
1.1311e+07
1.05884e+07
9.97416e+06
2.42556e+07
2.38948e+07
2.32101e+07
2.22728e+07
2.11469e+07
1.98982e+07
1.85756e+07
1.72284e+07
1.58911e+07
1.45964e+07
1.33659e+07
1.2219e+07
1.11666e+07
1.02176e+07
9.37449e+06
8.63728e+06
8.00278e+06
7.46429e+06
2.03087e+07
1.99766e+07
1.93514e+07
1.84958e+07
1.74714e+07
1.63358e+07
1.51369e+07
1.39179e+07
1.27123e+07
1.15484e+07
1.04468e+07
9.4231e+06
8.48737e+06
7.64565e+06
6.89983e+06
6.24864e+06
5.6889e+06
5.21439e+06
1.77432e+07
1.74367e+07
1.68617e+07
1.6074e+07
1.51319e+07
1.40873e+07
1.29858e+07
1.18662e+07
1.07603e+07
9.6932e+06
8.68394e+06
7.74607e+06
6.8883e+06
6.11541e+06
5.42878e+06
4.82703e+06
4.30716e+06
3.86382e+06
1.78518e+07
1.75571e+07
1.70043e+07
1.62462e+07
1.53388e+07
1.43312e+07
1.32671e+07
1.21835e+07
1.11104e+07
1.00715e+07
9.08473e+06
8.16263e+06
7.31336e+06
6.54142e+06
5.84822e+06
5.23291e+06
4.69298e+06
4.22409e+06
2.07295e+07
2.04304e+07
1.98678e+07
1.90947e+07
1.81678e+07
1.71363e+07
1.60436e+07
1.49265e+07
1.38148e+07
1.2732e+07
1.16958e+07
1.07187e+07
9.80899e+06
8.97157e+06
8.2083e+06
7.5191e+06
6.90213e+06
6.35402e+06
2.52177e+07
2.49057e+07
2.43151e+07
2.35009e+07
2.25225e+07
2.14307e+07
2.02702e+07
1.90786e+07
1.78864e+07
1.67178e+07
1.55909e+07
1.45187e+07
1.35102e+07
1.25708e+07
1.1703e+07
1.09076e+07
1.01834e+07
9.52802e+06
3.02784e+07
2.99522e+07
2.93284e+07
2.84647e+07
2.74239e+07
2.62589e+07
2.50163e+07
2.37353e+07
2.24475e+07
2.1178e+07
1.99459e+07
1.87649e+07
1.76447e+07
1.65914e+07
1.56084e+07
1.46972e+07
1.38572e+07
1.30869e+07
3.51934e+07
3.48555e+07
3.42007e+07
3.32899e+07
3.21889e+07
3.09527e+07
2.96299e+07
2.82612e+07
2.68798e+07
2.55118e+07
2.41772e+07
2.28905e+07
2.16624e+07
2.04996e+07
1.94062e+07
1.83844e+07
1.74345e+07
1.65552e+07
3.95436e+07
3.91974e+07
3.85172e+07
3.75667e+07
3.6414e+07
3.5116e+07
3.37232e+07
3.22775e+07
3.08137e+07
2.93588e+07
2.79337e+07
2.6554e+07
2.52308e+07
2.39717e+07
2.27815e+07
2.16628e+07
2.06165e+07
1.9642e+07
4.31401e+07
4.27888e+07
4.20892e+07
4.11077e+07
3.9914e+07
3.85662e+07
3.71163e+07
3.56077e+07
3.40762e+07
3.25499e+07
3.10504e+07
2.9594e+07
2.81925e+07
2.68542e+07
2.55843e+07
2.4386e+07
2.32605e+07
2.22078e+07
4.59491e+07
4.55948e+07
4.48814e+07
4.3877e+07
4.26522e+07
4.12663e+07
3.97725e+07
3.82153e+07
3.66314e+07
3.50494e+07
3.3492e+07
3.1976e+07
3.05137e+07
2.91137e+07
2.77819e+07
2.65216e+07
2.53345e+07
2.42209e+07
4.80276e+07
4.76717e+07
4.69488e+07
4.59282e+07
4.4681e+07
4.32675e+07
4.17415e+07
4.01486e+07
3.85261e+07
3.69033e+07
3.53032e+07
3.37433e+07
3.22361e+07
3.07908e+07
2.94133e+07
2.81074e+07
2.6875e+07
2.57165e+07
4.94768e+07
4.912e+07
4.83904e+07
4.7359e+07
4.60965e+07
4.4664e+07
4.31161e+07
4.14987e+07
3.98494e+07
3.81984e+07
3.65688e+07
3.49784e+07
3.34402e+07
3.19634e+07
3.05543e+07
2.92168e+07
2.7953e+07
2.67633e+07
5.04119e+07
5.00541e+07
4.93203e+07
4.82822e+07
4.701e+07
4.55654e+07
4.40035e+07
4.23706e+07
4.07044e+07
3.90353e+07
3.73868e+07
3.57769e+07
3.42187e+07
3.27217e+07
3.12921e+07
2.99343e+07
2.86504e+07
2.74408e+07
5.09411e+07
5.0583e+07
4.98476e+07
4.88064e+07
4.75287e+07
4.60777e+07
4.4508e+07
4.2866e+07
4.119e+07
3.95104e+07
3.78511e+07
3.62299e+07
3.46603e+07
3.31516e+07
3.17104e+07
3.03409e+07
2.90455e+07
2.78249e+07
5.11633e+07
5.08067e+07
5.00694e+07
4.90264e+07
4.77462e+07
4.62923e+07
4.47192e+07
4.30733e+07
4.13931e+07
3.97091e+07
3.80451e+07
3.64191e+07
3.48445e+07
3.33308e+07
3.18846e+07
3.05102e+07
2.92101e+07
2.79851e+07
6.049e+07
6.04309e+07
6.03002e+07
6.00944e+07
5.98116e+07
5.94511e+07
5.90131e+07
5.84981e+07
5.79074e+07
5.72424e+07
5.6505e+07
5.56973e+07
5.48216e+07
5.38805e+07
5.28766e+07
5.18131e+07
5.06931e+07
4.95202e+07
4.82979e+07
4.70302e+07
4.5721e+07
4.43745e+07
4.29948e+07
4.15863e+07
4.01536e+07
3.8701e+07
3.72332e+07
3.57546e+07
3.42696e+07
3.27828e+07
3.12989e+07
2.98223e+07
2.83578e+07
2.69098e+07
2.54831e+07
2.4082e+07
2.27114e+07
2.13758e+07
2.00801e+07
1.88291e+07
1.76274e+07
1.64801e+07
1.53921e+07
1.43685e+07
1.34145e+07
1.25353e+07
1.17362e+07
1.10226e+07
1.03999e+07
9.87356e+06
9.44904e+06
9.13179e+06
8.92721e+06
8.84056e+06
8.87695e+06
9.0412e+06
9.33786e+06
9.77118e+06
1.0345e+07
1.10627e+07
1.19268e+07
1.29397e+07
1.41026e+07
1.54164e+07
1.6881e+07
1.84955e+07
2.02584e+07
2.21672e+07
2.42187e+07
2.64091e+07
2.87338e+07
3.11875e+07
3.37643e+07
3.64578e+07
3.9261e+07
4.21668e+07
4.51677e+07
4.82559e+07
5.14235e+07
5.46625e+07
5.79649e+07
6.13225e+07
6.47268e+07
6.81694e+07
7.16415e+07
7.51343e+07
7.86387e+07
8.21451e+07
8.56436e+07
8.91236e+07
9.25743e+07
9.59842e+07
9.93411e+07
1.02633e+08
1.05846e+08
1.0897e+08
1.11989e+08
1.14894e+08
1.17672e+08
1.20312e+08
1.22806e+08
1.25145e+08
1.27322e+08
1.29331e+08
1.31169e+08
1.32834e+08
1.34325e+08
1.35646e+08
1.36802e+08
1.378e+08
1.3865e+08
1.39364e+08
1.39955e+08
1.40437e+08
1.40828e+08
1.41145e+08
1.41407e+08
1.41636e+08
1.41855e+08
1.42091e+08
1.42375e+08
1.42738e+08
1.43218e+08
1.43855e+08
1.44691e+08
1.45775e+08
1.4716e+08
1.48902e+08
1.51062e+08
1.53702e+08
1.56885e+08
1.60674e+08
1.65131e+08
1.70312e+08
1.7627e+08
1.83051e+08
1.90691e+08
1.99215e+08
2.0864e+08
2.18968e+08
2.30193e+08
2.42292e+08
2.55237e+08
2.68987e+08
2.83498e+08
2.98709e+08
3.1457e+08
3.31009e+08
3.47964e+08
3.65359e+08
3.83121e+08
4.01165e+08
4.19402e+08
4.37738e+08
4.56052e+08
4.74203e+08
4.92028e+08
5.09359e+08
5.25962e+08
5.41602e+08
5.5598e+08
5.68797e+08
5.79714e+08
5.88406e+08
5.9454e+08
5.97818e+08
5.9798e+08
5.94846e+08
5.88289e+08
5.78338e+08
5.65072e+08
5.48759e+08
5.29718e+08
5.08442e+08
4.85404e+08
4.6113e+08
4.35985e+08
4.10406e+08
3.84604e+08
3.58902e+08
5.94149e+07
5.93592e+07
5.9234e+07
5.90341e+07
5.87578e+07
5.8405e+07
5.79762e+07
5.74726e+07
5.68955e+07
5.62461e+07
5.55263e+07
5.47381e+07
5.38835e+07
5.2965e+07
5.19853e+07
5.09469e+07
4.98531e+07
4.87071e+07
4.75124e+07
4.62728e+07
4.49922e+07
4.36745e+07
4.23239e+07
4.09447e+07
3.95411e+07
3.81177e+07
3.66788e+07
3.52286e+07
3.37716e+07
3.23122e+07
3.08548e+07
2.94041e+07
2.79645e+07
2.65406e+07
2.51369e+07
2.37579e+07
2.24081e+07
2.10922e+07
1.98149e+07
1.85809e+07
1.73951e+07
1.62622e+07
1.51872e+07
1.41753e+07
1.32315e+07
1.23611e+07
1.15693e+07
1.08616e+07
1.02433e+07
9.71991e+06
9.29693e+06
8.97977e+06
8.7738e+06
8.68427e+06
8.71628e+06
8.87473e+06
9.16418e+06
9.58886e+06
1.01525e+07
1.08586e+07
1.17097e+07
1.27079e+07
1.38548e+07
1.51509e+07
1.65963e+07
1.81901e+07
1.99307e+07
2.18156e+07
2.38417e+07
2.60052e+07
2.83014e+07
3.07251e+07
3.32704e+07
3.59309e+07
3.86998e+07
4.15699e+07
4.45337e+07
4.75836e+07
5.07116e+07
5.39099e+07
5.71703e+07
6.04848e+07
6.3845e+07
6.72424e+07
7.06686e+07
7.41146e+07
7.75713e+07
8.10294e+07
8.44788e+07
8.79093e+07
9.13101e+07
9.46698e+07
9.79765e+07
1.01218e+08
1.04382e+08
1.07456e+08
1.10427e+08
1.13284e+08
1.16016e+08
1.18611e+08
1.21062e+08
1.23361e+08
1.25499e+08
1.27473e+08
1.29278e+08
1.30913e+08
1.32377e+08
1.33674e+08
1.34808e+08
1.35787e+08
1.36621e+08
1.37321e+08
1.37901e+08
1.38375e+08
1.38757e+08
1.39066e+08
1.39321e+08
1.39543e+08
1.39754e+08
1.39981e+08
1.40253e+08
1.40603e+08
1.41066e+08
1.41681e+08
1.42491e+08
1.43543e+08
1.44888e+08
1.46584e+08
1.48688e+08
1.51264e+08
1.54373e+08
1.58078e+08
1.62438e+08
1.67509e+08
1.73345e+08
1.79989e+08
1.87479e+08
1.9584e+08
2.05087e+08
2.15223e+08
2.26242e+08
2.38123e+08
2.50839e+08
2.6435e+08
2.78612e+08
2.93563e+08
3.09155e+08
3.25324e+08
3.42003e+08
3.59118e+08
3.76599e+08
3.94363e+08
4.12323e+08
4.30387e+08
4.48435e+08
4.66331e+08
4.83912e+08
5.01016e+08
5.17415e+08
5.32874e+08
5.47108e+08
5.59819e+08
5.70673e+08
5.7935e+08
5.85524e+08
5.88904e+08
5.89234e+08
5.86336e+08
5.80081e+08
5.70481e+08
5.5761e+08
5.41723e+08
5.23129e+08
5.02308e+08
4.7972e+08
4.55876e+08
4.31141e+08
4.05943e+08
3.80493e+08
3.55029e+08
5.73493e+07
5.72962e+07
5.71766e+07
5.69851e+07
5.67204e+07
5.6383e+07
5.59738e+07
5.54941e+07
5.49446e+07
5.43267e+07
5.36418e+07
5.28917e+07
5.2078e+07
5.12031e+07
5.02692e+07
4.92787e+07
4.82345e+07
4.71398e+07
4.59977e+07
4.48117e+07
4.35856e+07
4.23231e+07
4.10283e+07
3.97052e+07
3.83578e+07
3.69901e+07
3.56061e+07
3.42101e+07
3.28063e+07
3.13991e+07
2.99928e+07
2.85917e+07
2.72003e+07
2.58229e+07
2.44638e+07
2.31273e+07
2.1818e+07
2.05402e+07
1.92986e+07
1.80978e+07
1.69426e+07
1.58378e+07
1.47882e+07
1.37989e+07
1.2875e+07
1.20216e+07
1.12442e+07
1.0548e+07
9.93848e+06
9.42101e+06
9.00106e+06
8.68406e+06
8.47543e+06
8.38039e+06
8.40405e+06
8.55128e+06
8.82666e+06
9.2344e+06
9.77831e+06
1.04616e+07
1.12871e+07
1.22568e+07
1.33721e+07
1.46336e+07
1.60414e+07
1.75944e+07
1.92912e+07
2.11292e+07
2.31054e+07
2.52159e+07
2.74561e+07
2.98208e+07
3.23043e+07
3.49001e+07
3.76016e+07
4.04017e+07
4.32929e+07
4.62679e+07
4.93188e+07
5.24377e+07
5.56167e+07
5.88476e+07
6.21222e+07
6.54323e+07
6.87694e+07
7.21246e+07
7.54892e+07
7.88536e+07
8.22083e+07
8.5543e+07
8.88471e+07
9.21095e+07
9.53187e+07
9.84628e+07
1.0153e+08
1.04507e+08
1.07383e+08
1.10147e+08
1.12788e+08
1.15296e+08
1.17663e+08
1.19881e+08
1.21945e+08
1.23848e+08
1.25589e+08
1.27165e+08
1.28575e+08
1.29824e+08
1.30917e+08
1.3186e+08
1.32663e+08
1.33337e+08
1.33895e+08
1.3435e+08
1.34717e+08
1.35011e+08
1.35251e+08
1.35458e+08
1.35654e+08
1.35863e+08
1.36113e+08
1.36434e+08
1.36861e+08
1.37432e+08
1.38188e+08
1.39175e+08
1.40442e+08
1.42044e+08
1.44038e+08
1.46484e+08
1.49445e+08
1.52981e+08
1.57148e+08
1.62003e+08
1.67596e+08
1.7397e+08
1.81162e+08
1.89198e+08
1.98092e+08
2.07849e+08
2.18462e+08
2.29911e+08
2.42173e+08
2.55211e+08
2.68977e+08
2.83417e+08
2.98477e+08
3.14106e+08
3.30235e+08
3.46794e+08
3.63712e+08
3.80916e+08
3.98321e+08
4.15834e+08
4.33342e+08
4.50716e+08
4.67797e+08
4.84426e+08
5.00388e+08
5.15451e+08
5.29352e+08
5.41799e+08
5.5247e+08
5.61064e+08
5.6726e+08
5.70787e+08
5.71396e+08
5.68913e+08
5.63205e+08
5.54259e+08
5.42148e+08
5.27099e+08
5.09397e+08
4.89497e+08
4.67826e+08
4.44861e+08
4.20977e+08
3.96572e+08
3.71874e+08
3.47051e+08
5.44552e+07
5.44059e+07
5.42938e+07
5.41145e+07
5.38676e+07
5.3554e+07
5.31744e+07
5.27294e+07
5.22198e+07
5.16464e+07
5.10105e+07
5.03132e+07
4.95561e+07
4.8741e+07
4.78698e+07
4.69449e+07
4.59689e+07
4.49445e+07
4.38749e+07
4.27631e+07
4.16127e+07
4.04271e+07
3.921e+07
3.79648e+07
3.66952e+07
3.54047e+07
3.40973e+07
3.27768e+07
3.14474e+07
3.01132e+07
2.87783e+07
2.74468e+07
2.61228e+07
2.48104e+07
2.35135e+07
2.22365e+07
2.09835e+07
1.9759e+07
1.85675e+07
1.74132e+07
1.63011e+07
1.52356e+07
1.42217e+07
1.32643e+07
1.23684e+07
1.15393e+07
1.07821e+07
1.01022e+07
9.50501e+06
8.99589e+06
8.58027e+06
8.26361e+06
8.05125e+06
7.94843e+06
7.96022e+06
8.0915e+06
8.34687e+06
8.73051e+06
9.24617e+06
9.89709e+06
1.0686e+07
1.16148e+07
1.2685e+07
1.38973e+07
1.52514e+07
1.67464e+07
1.83807e+07
2.0152e+07
2.20573e+07
2.40927e+07
2.62536e+07
2.85349e+07
3.09311e+07
3.34358e+07
3.60424e+07
3.8744e+07
4.15335e+07
4.44035e+07
4.73464e+07
5.03543e+07
5.34195e+07
5.6534e+07
5.96897e+07
6.28784e+07
6.60916e+07
6.93208e+07
7.25574e+07
7.57921e+07
7.90153e+07
8.22172e+07
8.53872e+07
8.85145e+07
9.1588e+07
9.45961e+07
9.75274e+07
1.0037e+08
1.03113e+08
1.05747e+08
1.08261e+08
1.10646e+08
1.12894e+08
1.14999e+08
1.16956e+08
1.1876e+08
1.20408e+08
1.21898e+08
1.23233e+08
1.24414e+08
1.25447e+08
1.26338e+08
1.27096e+08
1.27732e+08
1.28258e+08
1.28685e+08
1.29027e+08
1.29299e+08
1.29518e+08
1.29702e+08
1.29874e+08
1.30056e+08
1.30272e+08
1.30552e+08
1.30927e+08
1.31434e+08
1.32112e+08
1.33006e+08
1.34161e+08
1.35631e+08
1.37469e+08
1.39735e+08
1.42485e+08
1.45782e+08
1.49678e+08
1.54228e+08
1.5948e+08
1.65475e+08
1.72249e+08
1.7983e+08
1.88231e+08
1.97458e+08
2.07503e+08
2.18351e+08
2.2998e+08
2.42359e+08
2.55438e+08
2.69168e+08
2.83494e+08
2.98374e+08
3.13744e+08
3.29537e+08
3.4568e+08
3.62113e+08
3.78751e+08
3.95504e+08
4.12262e+08
4.2891e+08
4.45293e+08
4.61255e+08
4.76598e+08
4.91099e+08
5.04511e+08
5.16557e+08
5.2694e+08
5.35375e+08
5.41558e+08
5.45234e+08
5.46163e+08
5.4418e+08
5.39151e+08
5.3105e+08
5.19935e+08
5.05998e+08
4.89502e+08
4.7086e+08
4.50454e+08
4.28726e+08
4.06038e+08
3.82764e+08
3.59144e+08
3.35327e+08
5.0933e+07
5.0889e+07
5.07871e+07
5.06241e+07
5.04004e+07
5.01165e+07
4.97726e+07
4.93693e+07
4.8907e+07
4.83865e+07
4.78083e+07
4.71734e+07
4.64832e+07
4.57391e+07
4.49429e+07
4.40966e+07
4.32025e+07
4.22629e+07
4.12806e+07
4.02584e+07
3.91994e+07
3.81066e+07
3.69831e+07
3.58318e+07
3.4656e+07
3.3459e+07
3.22444e+07
3.1016e+07
2.97774e+07
2.85325e+07
2.72849e+07
2.60384e+07
2.47967e+07
2.35635e+07
2.23428e+07
2.11384e+07
1.99545e+07
1.87952e+07
1.76648e+07
1.65676e+07
1.55081e+07
1.44909e+07
1.35207e+07
1.26025e+07
1.1741e+07
1.09415e+07
1.02092e+07
9.54923e+06
8.96707e+06
8.46811e+06
8.05775e+06
7.74136e+06
7.52431e+06
7.41182e+06
7.40893e+06
7.52046e+06
7.75098e+06
8.10461e+06
8.58507e+06
9.19561e+06
9.93886e+06
1.08169e+07
1.18309e+07
1.29817e+07
1.42689e+07
1.56917e+07
1.72485e+07
1.8937e+07
2.07541e+07
2.26961e+07
2.47586e+07
2.69366e+07
2.92245e+07
3.16163e+07
3.41055e+07
3.66854e+07
3.9349e+07
4.20892e+07
4.48986e+07
4.77696e+07
5.06944e+07
5.36654e+07
5.66746e+07
5.9714e+07
6.27752e+07
6.58499e+07
6.89296e+07
7.20053e+07
7.50676e+07
7.81068e+07
8.11129e+07
8.40754e+07
8.69837e+07
8.98264e+07
9.25928e+07
9.5272e+07
9.78538e+07
1.00329e+08
1.02687e+08
1.04921e+08
1.07024e+08
1.0899e+08
1.10816e+08
1.12497e+08
1.1403e+08
1.15416e+08
1.16655e+08
1.17752e+08
1.1871e+08
1.19535e+08
1.20237e+08
1.20824e+08
1.21307e+08
1.21697e+08
1.22006e+08
1.22249e+08
1.22439e+08
1.22595e+08
1.22734e+08
1.22879e+08
1.23052e+08
1.2328e+08
1.23592e+08
1.24021e+08
1.24604e+08
1.25383e+08
1.26402e+08
1.27711e+08
1.2936e+08
1.31405e+08
1.33899e+08
1.36904e+08
1.40469e+08
1.44648e+08
1.49485e+08
1.55021e+08
1.6129e+08
1.6832e+08
1.76125e+08
1.84711e+08
1.94074e+08
2.04198e+08
2.15065e+08
2.26648e+08
2.38901e+08
2.51781e+08
2.6523e+08
2.79215e+08
2.93678e+08
3.08556e+08
3.2378e+08
3.3929e+08
3.5501e+08
3.70853e+08
3.86713e+08
4.02482e+08
4.18018e+08
4.33172e+08
4.4776e+08
4.61573e+08
4.74373e+08
4.8591e+08
4.95915e+08
5.04116e+08
5.10236e+08
5.14032e+08
5.1528e+08
5.13827e+08
5.09546e+08
5.02393e+08
4.92412e+08
4.79757e+08
4.6467e+08
4.4751e+08
4.28613e+08
4.08386e+08
3.87155e+08
3.65274e+08
3.4299e+08
3.20462e+08
4.70055e+07
4.69685e+07
4.68791e+07
4.67353e+07
4.65377e+07
4.62864e+07
4.59817e+07
4.56239e+07
4.52131e+07
4.47497e+07
4.42341e+07
4.36671e+07
4.30499e+07
4.23835e+07
4.16695e+07
4.09095e+07
4.01054e+07
3.92591e+07
3.83732e+07
3.74499e+07
3.64918e+07
3.55014e+07
3.44812e+07
3.34337e+07
3.2362e+07
3.12689e+07
3.01578e+07
2.9032e+07
2.78948e+07
2.67495e+07
2.55993e+07
2.44477e+07
2.32979e+07
2.21535e+07
2.1018e+07
1.98952e+07
1.87889e+07
1.77029e+07
1.66414e+07
1.56085e+07
1.46084e+07
1.36456e+07
1.27248e+07
1.18506e+07
1.10279e+07
1.02618e+07
9.55729e+06
8.91976e+06
8.3545e+06
7.86686e+06
7.46223e+06
7.14597e+06
6.92343e+06
6.79977e+06
6.78e+06
6.86888e+06
7.07093e+06
7.39024e+06
7.83046e+06
8.39478e+06
9.08579e+06
9.90548e+06
1.08552e+07
1.19354e+07
1.31461e+07
1.44863e+07
1.59544e+07
1.7548e+07
1.92642e+07
2.10995e+07
2.30495e+07
2.51093e+07
2.72734e+07
2.95361e+07
3.18912e+07
3.43321e+07
3.68521e+07
3.94442e+07
4.21013e+07
4.4816e+07
4.75807e+07
5.03881e+07
5.32302e+07
5.60994e+07
5.89876e+07
6.18865e+07
6.47878e+07
6.76827e+07
7.05622e+07
7.34169e+07
7.62371e+07
7.90131e+07
8.17345e+07
8.43906e+07
8.69712e+07
8.94665e+07
9.18671e+07
9.41639e+07
9.63486e+07
9.84139e+07
1.00354e+08
1.02164e+08
1.03841e+08
1.05383e+08
1.06787e+08
1.08054e+08
1.09186e+08
1.10186e+08
1.11057e+08
1.11806e+08
1.12441e+08
1.12969e+08
1.13401e+08
1.13746e+08
1.14014e+08
1.14219e+08
1.14374e+08
1.14493e+08
1.14593e+08
1.14694e+08
1.14815e+08
1.14982e+08
1.15221e+08
1.15562e+08
1.1604e+08
1.16691e+08
1.17556e+08
1.18684e+08
1.2012e+08
1.21919e+08
1.24128e+08
1.26806e+08
1.30002e+08
1.33766e+08
1.3814e+08
1.43164e+08
1.48871e+08
1.55289e+08
1.62433e+08
1.70309e+08
1.78916e+08
1.88242e+08
1.98267e+08
2.08972e+08
2.20316e+08
2.3226e+08
2.44752e+08
2.57756e+08
2.71224e+08
2.851e+08
2.99316e+08
3.13816e+08
3.28528e+08
3.43366e+08
3.58236e+08
3.73033e+08
3.87632e+08
4.01883e+08
4.15621e+08
4.28655e+08
4.40756e+08
4.51697e+08
4.61242e+08
4.69139e+08
4.75135e+08
4.78999e+08
4.80531e+08
4.79594e+08
4.7606e+08
4.69879e+08
4.61074e+08
4.49774e+08
4.3619e+08
4.2063e+08
4.03382e+08
3.84817e+08
3.65217e+08
3.44908e+08
3.24141e+08
3.03104e+08
4.28978e+07
4.28683e+07
4.27924e+07
4.2669e+07
4.24984e+07
4.22809e+07
4.20165e+07
4.17052e+07
4.13469e+07
4.09417e+07
4.04903e+07
3.99931e+07
3.94508e+07
3.88645e+07
3.82351e+07
3.75642e+07
3.6853e+07
3.61034e+07
3.53173e+07
3.44964e+07
3.36427e+07
3.27582e+07
3.1845e+07
3.09054e+07
2.99419e+07
2.89572e+07
2.79542e+07
2.69355e+07
2.59041e+07
2.48629e+07
2.38146e+07
2.27623e+07
2.1709e+07
2.06579e+07
1.96121e+07
1.85753e+07
1.75508e+07
1.65422e+07
1.55534e+07
1.45883e+07
1.3651e+07
1.27458e+07
1.1877e+07
1.10494e+07
1.02677e+07
9.53672e+06
8.8617e+06
8.2478e+06
7.70027e+06
7.22447e+06
6.82573e+06
6.50937e+06
6.28068e+06
6.14479e+06
6.10668e+06
6.17106e+06
6.34239e+06
6.6247e+06
7.02157e+06
7.53614e+06
8.17092e+06
8.92785e+06
9.8082e+06
1.08125e+07
1.19407e+07
1.31918e+07
1.45642e+07
1.60556e+07
1.76631e+07
1.93831e+07
2.12116e+07
2.31438e+07
2.51744e+07
2.72978e+07
2.9508e+07
3.17987e+07
3.41635e+07
3.65956e+07
3.9088e+07
4.16337e+07
4.42254e+07
4.68559e+07
4.95176e+07
5.22028e+07
5.4904e+07
5.76131e+07
6.03217e+07
6.30217e+07
6.57041e+07
6.83599e+07
7.09801e+07
7.35552e+07
7.60756e+07
7.85315e+07
8.09134e+07
8.32121e+07
8.54192e+07
8.75267e+07
8.95269e+07
9.14136e+07
9.31813e+07
9.48266e+07
9.63466e+07
9.77401e+07
9.90067e+07
1.00147e+08
1.01163e+08
1.02058e+08
1.02835e+08
1.03501e+08
1.04061e+08
1.04524e+08
1.04896e+08
1.05188e+08
1.05409e+08
1.0557e+08
1.05682e+08
1.05759e+08
1.05814e+08
1.05865e+08
1.05929e+08
1.06029e+08
1.0619e+08
1.06437e+08
1.06803e+08
1.07319e+08
1.08023e+08
1.08958e+08
1.1017e+08
1.11708e+08
1.13618e+08
1.15953e+08
1.18761e+08
1.22088e+08
1.25976e+08
1.30463e+08
1.35582e+08
1.4136e+08
1.47812e+08
1.54948e+08
1.62766e+08
1.7126e+08
1.80413e+08
1.90207e+08
2.00609e+08
2.11584e+08
2.23085e+08
2.35081e+08
2.47523e+08
2.60363e+08
2.73537e+08
2.86993e+08
3.00659e+08
3.14456e+08
3.28294e+08
3.42079e+08
3.55692e+08
3.68989e+08
3.8182e+08
3.94011e+08
4.05352e+08
4.15634e+08
4.24646e+08
4.32167e+08
4.37968e+08
4.41831e+08
4.43583e+08
4.43103e+08
4.40265e+08
4.35011e+08
4.27348e+08
4.17394e+08
4.05317e+08
3.91383e+08
3.75833e+08
3.58995e+08
3.41108e+08
3.22471e+08
3.03326e+08
2.83898e+08
3.88228e+07
3.88007e+07
3.87382e+07
3.86349e+07
3.84911e+07
3.83067e+07
3.80815e+07
3.78154e+07
3.75083e+07
3.71604e+07
3.67718e+07
3.63428e+07
3.58741e+07
3.53662e+07
3.48199e+07
3.42363e+07
3.36164e+07
3.29616e+07
3.22732e+07
3.15526e+07
3.08013e+07
3.00209e+07
2.92131e+07
2.83799e+07
2.75234e+07
2.66459e+07
2.57498e+07
2.48372e+07
2.39107e+07
2.29726e+07
2.20255e+07
2.1072e+07
2.01146e+07
1.91564e+07
1.82001e+07
1.72489e+07
1.63059e+07
1.53746e+07
1.44584e+07
1.35611e+07
1.26864e+07
1.18386e+07
1.1022e+07
1.02409e+07
9.50007e+06
8.80436e+06
8.15876e+06
7.56841e+06
7.03853e+06
6.5744e+06
6.1813e+06
5.86452e+06
5.62927e+06
5.48066e+06
5.4236e+06
5.46278e+06
5.60257e+06
5.84693e+06
6.19939e+06
6.66298e+06
7.24017e+06
7.93281e+06
8.74212e+06
9.66864e+06
1.07122e+07
1.18718e+07
1.3146e+07
1.45323e+07
1.6028e+07
1.76296e+07
1.9333e+07
2.11338e+07
2.30268e+07
2.50065e+07
2.70672e+07
2.92028e+07
3.14072e+07
3.36737e+07
3.59957e+07
3.83665e+07
4.0779e+07
4.32262e+07
4.57008e+07
4.81954e+07
5.07026e+07
5.32146e+07
5.57234e+07
5.8221e+07
6.06991e+07
6.31491e+07
6.55623e+07
6.79297e+07
7.02426e+07
7.2492e+07
7.46692e+07
7.6766e+07
7.87747e+07
8.06882e+07
8.24998e+07
8.42043e+07
8.57968e+07
8.72742e+07
8.86347e+07
8.98776e+07
9.10039e+07
9.20144e+07
9.29107e+07
9.36963e+07
9.43754e+07
9.49525e+07
9.54335e+07
9.5825e+07
9.61333e+07
9.63666e+07
9.65343e+07
9.66456e+07
9.671e+07
9.67393e+07
9.67453e+07
9.67421e+07
9.67459e+07
9.67769e+07
9.68554e+07
9.70061e+07
9.72565e+07
9.7636e+07
9.81778e+07
9.89216e+07
9.99087e+07
1.01185e+08
1.02795e+08
1.04787e+08
1.07205e+08
1.10094e+08
1.13494e+08
1.17444e+08
1.21975e+08
1.27112e+08
1.32875e+08
1.39272e+08
1.46306e+08
1.53973e+08
1.62259e+08
1.71151e+08
1.80621e+08
1.90637e+08
2.0116e+08
2.12162e+08
2.23594e+08
2.35409e+08
2.47553e+08
2.59974e+08
2.72601e+08
2.85362e+08
2.98173e+08
3.10943e+08
3.23557e+08
3.35884e+08
3.47784e+08
3.59101e+08
3.6964e+08
3.79216e+08
3.87638e+08
3.94713e+08
4.00242e+08
4.04024e+08
4.05914e+08
4.05796e+08
4.03557e+08
3.99134e+08
3.92528e+08
3.83837e+08
3.73199e+08
3.60841e+08
3.46959e+08
3.31836e+08
3.15668e+08
2.98728e+08
2.81247e+08
2.63476e+08
3.49676e+07
3.49524e+07
3.49021e+07
3.48175e+07
3.46986e+07
3.45451e+07
3.43566e+07
3.41329e+07
3.3874e+07
3.35796e+07
3.32499e+07
3.2885e+07
3.24851e+07
3.20507e+07
3.15823e+07
3.10806e+07
3.05463e+07
2.99802e+07
2.93835e+07
2.8757e+07
2.81019e+07
2.74195e+07
2.67111e+07
2.59783e+07
2.52228e+07
2.44465e+07
2.36512e+07
2.28388e+07
2.20114e+07
2.11709e+07
2.03195e+07
1.94594e+07
1.8593e+07
1.77228e+07
1.68514e+07
1.59815e+07
1.5116e+07
1.42579e+07
1.34107e+07
1.25776e+07
1.17625e+07
1.09694e+07
1.02022e+07
9.46533e+06
8.76339e+06
8.10114e+06
7.48345e+06
6.9154e+06
6.40211e+06
5.94883e+06
5.56076e+06
5.24313e+06
5.00112e+06
4.83981e+06
4.76403e+06
4.7784e+06
4.88724e+06
5.09443e+06
5.40339e+06
5.81706e+06
6.33783e+06
6.96749e+06
7.70717e+06
8.55732e+06
9.51771e+06
1.05874e+07
1.17648e+07
1.30477e+07
1.44331e+07
1.59176e+07
1.74974e+07
1.91681e+07
2.09247e+07
2.27619e+07
2.46742e+07
2.66556e+07
2.87002e+07
3.08017e+07
3.29537e+07
3.51496e+07
3.73829e+07
3.96466e+07
4.19338e+07
4.42372e+07
4.65497e+07
4.88639e+07
5.11721e+07
5.34667e+07
5.57397e+07
5.79829e+07
6.01884e+07
6.23478e+07
6.4453e+07
6.64959e+07
6.84687e+07
7.0364e+07
7.21749e+07
7.38952e+07
7.55191e+07
7.70424e+07
7.8461e+07
7.97721e+07
8.09749e+07
8.20693e+07
8.30563e+07
8.39372e+07
8.4714e+07
8.53898e+07
8.59687e+07
8.64552e+07
8.68544e+07
8.71717e+07
8.74123e+07
8.75833e+07
8.76932e+07
8.77502e+07
8.77626e+07
8.774e+07
8.76929e+07
8.7633e+07
8.75749e+07
8.75355e+07
8.75326e+07
8.75876e+07
8.7725e+07
8.79717e+07
8.83573e+07
8.89174e+07
8.96899e+07
9.0716e+07
9.2038e+07
9.3699e+07
9.57413e+07
9.82079e+07
1.01139e+08
1.0457e+08
1.08534e+08
1.13054e+08
1.18152e+08
1.2384e+08
1.30121e+08
1.36996e+08
1.44453e+08
1.52483e+08
1.61063e+08
1.70165e+08
1.79755e+08
1.89808e+08
2.00278e+08
2.11117e+08
2.22275e+08
2.33701e+08
2.45331e+08
2.57095e+08
2.68911e+08
2.8069e+08
2.92324e+08
3.03688e+08
3.1466e+08
3.25091e+08
3.3481e+08
3.4365e+08
3.51437e+08
3.58005e+08
3.63184e+08
3.66797e+08
3.68721e+08
3.68853e+08
3.6709e+08
3.63371e+08
3.57696e+08
3.50142e+08
3.40824e+08
3.29934e+08
3.17631e+08
3.04146e+08
2.89648e+08
2.7437e+08
2.58534e+08
2.42413e+08
3.14839e+07
3.14743e+07
3.14347e+07
3.13666e+07
3.12699e+07
3.1144e+07
3.09886e+07
3.08033e+07
3.05878e+07
3.03418e+07
3.00653e+07
2.97581e+07
2.94203e+07
2.90522e+07
2.8654e+07
2.8226e+07
2.77686e+07
2.72825e+07
2.67682e+07
2.62265e+07
2.56581e+07
2.5064e+07
2.44452e+07
2.3803e+07
2.31386e+07
2.24535e+07
2.17493e+07
2.10273e+07
2.02893e+07
1.95369e+07
1.8772e+07
1.79964e+07
1.72122e+07
1.64215e+07
1.56267e+07
1.48301e+07
1.40346e+07
1.32428e+07
1.24578e+07
1.16829e+07
1.09216e+07
1.01778e+07
9.45539e+06
8.75852e+06
8.0917e+06
7.4596e+06
6.86703e+06
6.31897e+06
5.82047e+06
5.37666e+06
4.99274e+06
4.67386e+06
4.42516e+06
4.25165e+06
4.15815e+06
4.14917e+06
4.22894e+06
4.40124e+06
4.6694e+06
5.03624e+06
5.50403e+06
6.07449e+06
6.74865e+06
7.52686e+06
8.40884e+06
9.39359e+06
1.04795e+07
1.16642e+07
1.29449e+07
1.43181e+07
1.57801e+07
1.73266e+07
1.89527e+07
2.06533e+07
2.24231e+07
2.42562e+07
2.6147e+07
2.80892e+07
3.00767e+07
3.21033e+07
3.41625e+07
3.62479e+07
3.83526e+07
4.04697e+07
4.25924e+07
4.47134e+07
4.68257e+07
4.89218e+07
5.09944e+07
5.30357e+07
5.50383e+07
5.69946e+07
5.88972e+07
6.07387e+07
6.25121e+07
6.42109e+07
6.58289e+07
6.73608e+07
6.88021e+07
7.01491e+07
7.13986e+07
7.25484e+07
7.35981e+07
7.4548e+07
7.53995e+07
7.61538e+07
7.68131e+07
7.73804e+07
7.78596e+07
7.82549e+07
7.85709e+07
7.88116e+07
7.89822e+07
7.90888e+07
7.91383e+07
7.91378e+07
7.90948e+07
7.90172e+07
7.89145e+07
7.87964e+07
7.8676e+07
7.85675e+07
7.8486e+07
7.84502e+07
7.84815e+07
7.86044e+07
7.88457e+07
7.92368e+07
7.98116e+07
8.06068e+07
8.16613e+07
8.30158e+07
8.47099e+07
8.67842e+07
8.92776e+07
9.22253e+07
9.56583e+07
9.96027e+07
1.04081e+08
1.09106e+08
1.14686e+08
1.20823e+08
1.2751e+08
1.34741e+08
1.42496e+08
1.50751e+08
1.59479e+08
1.68651e+08
1.78229e+08
1.88164e+08
1.98403e+08
2.08901e+08
2.19599e+08
2.30422e+08
2.41295e+08
2.52127e+08
2.62817e+08
2.73249e+08
2.8331e+08
2.92861e+08
3.01756e+08
3.0984e+08
3.16958e+08
3.22967e+08
3.27728e+08
3.3108e+08
3.3293e+08
3.33189e+08
3.31767e+08
3.28611e+08
3.2372e+08
3.17151e+08
3.09004e+08
2.99437e+08
2.88578e+08
2.76614e+08
2.63687e+08
2.49993e+08
2.3574e+08
2.21213e+08
2.84817e+07
2.84762e+07
2.84453e+07
2.83911e+07
2.83133e+07
2.82112e+07
2.80844e+07
2.79324e+07
2.77547e+07
2.75508e+07
2.73205e+07
2.70636e+07
2.67799e+07
2.64693e+07
2.61319e+07
2.57678e+07
2.53771e+07
2.49601e+07
2.45171e+07
2.40486e+07
2.35551e+07
2.30372e+07
2.24957e+07
2.19315e+07
2.13457e+07
2.07393e+07
2.01134e+07
1.94693e+07
1.88083e+07
1.81317e+07
1.74412e+07
1.67382e+07
1.60246e+07
1.53022e+07
1.45731e+07
1.38396e+07
1.3104e+07
1.23691e+07
1.16376e+07
1.09127e+07
1.01977e+07
9.49623e+06
8.81215e+06
8.14955e+06
7.5128e+06
6.90645e+06
6.33527e+06
5.80414e+06
5.31803e+06
4.88201e+06
4.50122e+06
4.18077e+06
3.92574e+06
3.74107e+06
3.63148e+06
3.60142e+06
3.65501e+06
3.79597e+06
4.02748e+06
4.35224e+06
4.77241e+06
5.28954e+06
5.90456e+06
6.61773e+06
7.42862e+06
8.33617e+06
9.33865e+06
1.04338e+07
1.16186e+07
1.28897e+07
1.42432e+07
1.56751e+07
1.71805e+07
1.87544e+07
2.03915e+07
2.20863e+07
2.38331e+07
2.56258e+07
2.74587e+07
2.93255e+07
3.12203e+07
3.31366e+07
3.50681e+07
3.70081e+07
3.89499e+07
4.08869e+07
4.28121e+07
4.47187e+07
4.65996e+07
4.84479e+07
5.02565e+07
5.20185e+07
5.37271e+07
5.53759e+07
5.69583e+07
5.84689e+07
5.99023e+07
6.12542e+07
6.25209e+07
6.36992e+07
6.47868e+07
6.57823e+07
6.66853e+07
6.74965e+07
6.82173e+07
6.88492e+07
6.93943e+07
6.98557e+07
7.02369e+07