/*--------------------------------*- C++ -*----------------------------------*\
| =========                 |                                                 |
| \\      /  F ield         | OpenFOAM: The Open Source CFD Toolbox           |
|  \\    /   O peration     | Version:  dev                                   |
|   \\  /    A nd           | Web:      http://www.openfoam.org               |
|    \\/     M anipulation  |                                                 |
\*---------------------------------------------------------------------------*/
FoamFile
{
    version     2.0;
    format      ascii;
    class       volScalarField;
    object      rho;
    location    "9.14";
}
// * * * * * * * * * * * * * * * * * * * * * * * * * * * * * * * * * * * * * //

dimensions      [1 -3 0 0 0 0 0];

internalField   nonuniform List<scalar> 
12225
(
1.14577
1.13828
1.13588
1.13471
1.1328
1.13185
1.13
1.12935
1.12751
1.12726
1.12572
1.12606
1.12499
1.12467
1.12667
1.1222
1.12816
1.12528
1.14124
1.13328
1.13308
1.13301
1.13205
1.13166
1.1298
1.12967
1.12722
1.12725
1.12546
1.12599
1.12523
1.12407
1.12646
1.12234
1.12844
1.12911
1.14053
1.13302
1.13306
1.13354
1.13279
1.13288
1.13145
1.13168
1.12999
1.1292
1.12823
1.12801
1.12878
1.12676
1.12783
1.12681
1.13091
1.1313
1.14083
1.13305
1.1333
1.13348
1.13303
1.13274
1.13203
1.13117
1.13168
1.1295
1.12966
1.12791
1.1305
1.12754
1.12929
1.12654
1.13272
1.13041
1.14032
1.13259
1.13294
1.13282
1.133
1.13221
1.13187
1.13053
1.1318
1.12907
1.12948
1.12882
1.12977
1.12787
1.12897
1.12887
1.13117
1.12974
1.14055
1.13255
1.13293
1.1332
1.13369
1.13154
1.13146
1.13036
1.13143
1.12828
1.1293
1.12912
1.12919
1.12762
1.12878
1.13003
1.12867
1.12906
1.14011
1.13248
1.13359
1.13291
1.13353
1.13089
1.1316
1.13049
1.13053
1.12808
1.12812
1.12907
1.12817
1.12757
1.12865
1.13054
1.12898
1.12882
1.14018
1.13153
1.13367
1.13161
1.13316
1.13057
1.13188
1.13112
1.13083
1.12799
1.12701
1.12808
1.12944
1.12768
1.12876
1.12985
1.12913
1.12921
1.1404
1.13132
1.13315
1.13131
1.13185
1.1301
1.13153
1.13114
1.13106
1.12749
1.12709
1.12765
1.13017
1.12778
1.12794
1.12785
1.12781
1.12837
1.14029
1.13161
1.13257
1.13134
1.13106
1.12954
1.13155
1.13039
1.13009
1.12668
1.12785
1.12709
1.12838
1.12713
1.12633
1.1266
1.12752
1.12767
1.13979
1.13142
1.13204
1.13063
1.13097
1.12917
1.13063
1.12889
1.12853
1.12655
1.12775
1.12643
1.12583
1.12543
1.12525
1.12622
1.12653
1.1264
1.139
1.1308
1.13103
1.13011
1.13064
1.12901
1.12892
1.12747
1.12747
1.12608
1.12602
1.12506
1.12455
1.12482
1.12435
1.12456
1.12489
1.12497
1.13861
1.13038
1.13017
1.12927
1.12925
1.128
1.12732
1.12597
1.12564
1.12484
1.12459
1.12368
1.12318
1.12325
1.12282
1.12303
1.12294
1.12267
1.13702
1.12976
1.12921
1.12813
1.12764
1.1268
1.12595
1.12463
1.12379
1.12351
1.12301
1.12191
1.12147
1.12107
1.12057
1.1208
1.12046
1.12034
1.13589
1.1286
1.12778
1.12656
1.12576
1.12497
1.12394
1.12263
1.12185
1.12174
1.12079
1.11978
1.11955
1.11882
1.11866
1.11883
1.11835
1.11854
1.13432
1.12739
1.1262
1.1248
1.12403
1.12324
1.12208
1.12079
1.12025
1.11984
1.11838
1.11768
1.11746
1.11655
1.11671
1.11658
1.11611
1.11643
1.13159
1.12549
1.12417
1.12285
1.12208
1.1211
1.11997
1.119
1.1187
1.11784
1.1166
1.11638
1.11568
1.11503
1.11506
1.11439
1.11424
1.11405
1.12899
1.12334
1.12229
1.12137
1.1206
1.1197
1.11895
1.11817
1.11758
1.11645
1.11594
1.1156
1.11471
1.11461
1.11408
1.1136
1.11355
1.11301
1.12663
1.12192
1.12134
1.12013
1.11934
1.11896
1.11859
1.11781
1.1171
1.11638
1.116
1.11532
1.11509
1.11478
1.1142
1.11414
1.11352
1.11348
1.12388
1.12079
1.12065
1.11875
1.1189
1.11879
1.11827
1.11768
1.11754
1.11699
1.11604
1.11614
1.11584
1.11546
1.11566
1.11502
1.1148
1.1147
1.12196
1.11985
1.11925
1.11802
1.11953
1.11869
1.11807
1.11793
1.11839
1.11745
1.11673
1.11761
1.11648
1.1169
1.11675
1.11595
1.1161
1.11546
1.12092
1.11777
1.11784
1.11933
1.11953
1.11892
1.11832
1.11752
1.11902
1.11784
1.11724
1.11877
1.11715
1.1179
1.11794
1.11683
1.11741
1.11657
1.11991
1.11581
1.11733
1.12053
1.11809
1.1185
1.11879
1.11818
1.11973
1.11858
1.11874
1.11953
1.11795
1.11889
1.11858
1.11752
1.11862
1.1172
1.11861
1.1162
1.11711
1.11977
1.11795
1.11715
1.12
1.11973
1.11833
1.11993
1.11972
1.11837
1.11984
1.1188
1.11857
1.11923
1.11801
1.11879
1.11698
1.11657
1.11673
1.11782
1.11838
1.11775
1.11997
1.11957
1.11842
1.12072
1.11968
1.1192
1.1208
1.11923
1.11963
1.12
1.11854
1.11964
1.11664
1.11619
1.11711
1.11755
1.11831
1.11914
1.11893
1.11933
1.11977
1.11978
1.11996
1.11992
1.12013
1.11997
1.11984
1.12003
1.11952
1.11962
1.11637
1.11593
1.11662
1.11759
1.1182
1.11864
1.11924
1.11967
1.11987
1.12004
1.12018
1.12019
1.1202
1.12019
1.1201
1.12002
1.11994
1.1198
1.1164
1.11587
1.11659
1.11745
1.11813
1.11877
1.11937
1.11982
1.12013
1.12028
1.12035
1.12033
1.1203
1.12025
1.12022
1.12017
1.12016
1.12011
1.11643
1.11602
1.11664
1.11745
1.11811
1.11872
1.11921
1.1195
1.11961
1.1196
1.11956
1.11949
1.11942
1.11935
1.11927
1.11916
1.11906
1.11884
1.11627
1.1162
1.11611
1.11624
1.11638
1.11645
1.11641
1.11628
1.1161
1.11589
1.11568
1.11547
1.11526
1.11506
1.11486
1.11466
1.11444
1.11431
1.23286
1.25386
1.24865
1.2508
1.25137
1.25245
1.25296
1.25378
1.25448
1.25436
1.25323
1.25309
1.25484
1.25467
1.25241
1.25189
1.2515
1.25019
1.24944
1.24844
1.24669
1.24555
1.24349
1.24058
1.23867
1.23444
1.2291
1.22392
1.21717
1.2153
1.21905
1.22308
1.22725
1.2312
1.23366
1.23172
1.2256
1.22275
1.22526
1.22319
1.21125
1.19631
1.186
1.17907
1.17376
1.17022
1.16867
1.16825
1.16803
1.16778
1.16751
1.16733
1.16715
1.16698
1.16682
1.16666
1.1665
1.1663
1.16614
1.16596
1.16627
1.16701
1.16814
1.16961
1.17093
1.17218
1.17339
1.17473
1.17586
1.17673
1.17749
1.17822
1.17904
1.17984
1.18049
1.1809
1.18126
1.18177
1.18252
1.18355
1.18469
1.18579
1.18716
1.18957
1.19401
1.20047
1.20712
1.21199
1.21589
1.22031
1.2236
1.22603
1.22923
1.23317
1.24069
1.24721
1.25073
1.25323
1.25556
1.25599
1.25226
1.24714
1.2474
1.24852
1.24364
1.24328
1.24819
1.26525
1.30366
1.34123
1.34039
1.32191
1.29953
1.27341
1.25523
1.24305
1.23785
1.23459
1.22732
1.23738
1.24322
1.23756
1.23567
1.23038
1.23075
1.23636
1.23853
1.23546
1.22876
1.22569
1.23023
1.23938
1.20141
1.19465
1.18987
1.18866
1.19386
1.18199
1.15456
1.13389
1.1445
1.14295
1.15283
1.16354
1.16761
1.16792
1.17306
1.1768
1.17964
1.18444
1.18731
1.19566
1.19881
1.20173
1.20152
1.21585
1.21361
1.22896
1.22742
1.24481
1.25411
1.2772
1.27014
1.2253
1.18378
1.22781
1.24477
1.25404
1.26184
1.25062
1.23217
1.22906
1.23459
1.23427
1.23222
1.22645
1.21576
1.20587
1.19916
1.19852
1.22554
1.25234
1.24665
1.24486
1.24763
1.25048
1.25116
1.25171
1.25209
1.25234
1.25042
1.24683
1.2513
1.25608
1.24926
1.2484
1.24935
1.24687
1.24936
1.24625
1.24872
1.25083
1.24684
1.25491
1.25093
1.24468
1.25941
1.25026
1.22968
1.24079
1.24582
1.23635
1.24099
1.26486
1.29559
1.31086
1.29773
1.26151
1.24892
1.27718
1.28037
1.23129
1.18844
1.17718
1.17776
1.17909
1.18075
1.18256
1.18437
1.18614
1.18778
1.18937
1.19084
1.19216
1.19365
1.1955
1.19792
1.2007
1.2033
1.20489
1.20569
1.20556
1.20478
1.20369
1.20251
1.20175
1.20108
1.20041
1.19914
1.1971
1.19422
1.19098
1.18741
1.18358
1.17948
1.17554
1.17251
1.17055
1.16922
1.16848
1.16804
1.16763
1.16916
1.17438
1.18494
1.19968
1.21631
1.23378
1.25125
1.26558
1.26324
1.27653
1.28792
1.29865
1.30763
1.3083
1.3028
1.29855
1.2957
1.29872
1.29736
1.29699
1.31917
1.32365
1.30144
1.32298
1.33744
1.3119
1.34891
1.43448
1.44673
1.40259
1.38373
1.3414
1.28468
1.2674
1.26853
1.27638
1.27634
1.27383
1.28624
1.26599
1.24385
1.24655
1.26304
1.28538
1.27941
1.26759
1.26129
1.27019
1.27435
1.29857
1.23919
1.20242
1.20227
1.21619
1.23511
1.21045
1.14067
1.12335
1.16261
1.13148
1.13061
1.15194
1.17146
1.18392
1.20967
1.23284
1.24237
1.25625
1.26031
1.27951
1.2972
1.31273
1.30662
1.33355
1.31577
1.35673
1.35844
1.3924
1.43689
1.44795
1.35043
1.24136
1.2589
1.36256
1.3589
1.37368
1.38491
1.39197
1.36221
1.36365
1.38126
1.36764
1.34662
1.31735
1.28109
1.25093
1.23817
1.24851
1.21239
1.23453
1.23236
1.235
1.23983
1.24135
1.23972
1.2373
1.23186
1.22626
1.22897
1.22893
1.22798
1.23931
1.23143
1.22137
1.2358
1.22848
1.22786
1.23913
1.22855
1.23694
1.23901
1.22799
1.24361
1.23832
1.2197
1.24672
1.27446
1.24565
1.23052
1.2574
1.25884
1.25282
1.26207
1.26727
1.26931
1.25469
1.22238
1.20147
1.19342
1.18841
1.18766
1.1901
1.19318
1.19632
1.19955
1.20278
1.20571
1.20816
1.20935
1.20888
1.20732
1.2061
1.20697
1.20987
1.21298
1.21421
1.2129
1.20922
1.20362
1.19706
1.19086
1.1859
1.18222
1.17936
1.17653
1.17367
1.16994
1.16514
1.1603
1.15674
1.15432
1.15239
1.15041
1.14808
1.1464
1.14527
1.14416
1.14361
1.14366
1.14496
1.14717
1.15122
1.15646
1.16225
1.17283
1.1882
1.20188
1.20886
1.2037
1.2233
1.24312
1.26168
1.26591
1.25084
1.22842
1.21351
1.20993
1.2123
1.22443
1.22977
1.24233
1.27777
1.29614
1.33979
1.36659
1.3256
1.34465
1.38879
1.37171
1.32624
1.30328
1.28194
1.27101
1.27521
1.27385
1.26054
1.25553
1.27334
1.28655
1.25699
1.24896
1.26684
1.27509
1.28479
1.28186
1.26381
1.27936
1.29172
1.25076
1.25339
1.26528
1.20113
1.21258
1.2246
1.23955
1.27077
1.12963
1.19915
1.23624
1.17892
1.17304
1.16109
1.11561
1.12026
1.18597
1.23296
1.25793
1.27511
1.27949
1.30779
1.33616
1.35711
1.36097
1.38788
1.37244
1.40189
1.40405
1.46491
1.53349
1.4334
1.29961
1.21838
1.29137
1.48949
1.43825
1.41154
1.37568
1.40501
1.42586
1.45996
1.495
1.46913
1.41394
1.34965
1.29604
1.26489
1.26973
1.29645
1.20289
1.21884
1.22792
1.23759
1.2401
1.23413
1.22667
1.22167
1.21702
1.20855
1.20903
1.22126
1.22399
1.22418
1.22552
1.21929
1.23397
1.23968
1.23837
1.25707
1.2505
1.24835
1.25883
1.2367
1.2345
1.25384
1.2365
1.20233
1.19858
1.23844
1.26167
1.22625
1.22402
1.28669
1.30383
1.25141
1.20517
1.19649
1.19451
1.19186
1.19129
1.19182
1.19329
1.19384
1.19353
1.19309
1.19334
1.19523
1.19904
1.20383
1.20801
1.2094
1.20703
1.20141
1.19481
1.18988
1.18775
1.18818
1.18977
1.1904
1.18822
1.18265
1.17615
1.17267
1.1729
1.17451
1.17471
1.17369
1.17226
1.17058
1.16893
1.1683
1.16924
1.17124
1.17365
1.17575
1.17795
1.18005
1.18146
1.18228
1.18202
1.18203
1.18088
1.17747
1.17278
1.16489
1.16022
1.16098
1.16245
1.16673
1.16725
1.17512
1.1921
1.1979
1.2006
1.19057
1.16802
1.14377
1.15258
1.16981
1.1964
1.21779
1.19826
1.20952
1.24952
1.27583
1.32442
1.33301
1.33208
1.36572
1.38051
1.3433
1.30461
1.2954
1.28859
1.27743
1.26648
1.25489
1.2693
1.28417
1.26694
1.24427
1.25748
1.27088
1.26467
1.27521
1.27289
1.24209
1.26838
1.26954
1.22367
1.23461
1.26634
1.22706
1.21466
1.21292
1.30745
1.35454
1.1346
1.19865
1.20131
1.11447
1.1884
1.22696
1.05813
1.04605
1.1589
1.21563
1.25583
1.2595
1.25579
1.31692
1.33756
1.34269
1.37584
1.3699
1.36855
1.44345
1.41845
1.44869
1.58707
1.46661
1.30977
1.3128
1.34962
1.51589
1.55909
1.55478
1.44698
1.37516
1.44461
1.51637
1.54753
1.50792
1.42901
1.34626
1.29843
1.28465
1.31028
1.33765
1.19897
1.21602
1.23231
1.23369
1.22573
1.21687
1.21005
1.20544
1.20363
1.20171
1.2001
1.20413
1.21272
1.21288
1.21255
1.22054
1.24236
1.25587
1.26526
1.28467
1.27245
1.2613
1.28861
1.28013
1.24339
1.24113
1.2442
1.23743
1.24061
1.23349
1.21428
1.24155
1.28265
1.25604
1.20624
1.18935
1.18679
1.1842
1.18261
1.18246
1.18258
1.18284
1.18278
1.18285
1.18292
1.18333
1.18456
1.18644
1.1898
1.19429
1.19955
1.20425
1.20666
1.2056
1.20093
1.19352
1.18518
1.17726
1.17119
1.16853
1.16867
1.16886
1.16746
1.16574
1.16495
1.16492
1.16528
1.16586
1.167
1.16786
1.16788
1.1676
1.16794
1.1688
1.1685
1.16713
1.16541
1.16433
1.16395
1.1649
1.16692
1.16889
1.1705
1.16855
1.16877
1.16692
1.16061
1.15553
1.1514
1.15253
1.15614
1.15947
1.17096
1.17081
1.17858
1.17178
1.14771
1.1145
1.13788
1.17132
1.19166
1.20969
1.21571
1.23392
1.25978
1.25593
1.29508
1.29036
1.295
1.33731
1.33032
1.31037
1.303
1.30779
1.28858
1.27473
1.27692
1.28293
1.30691
1.30073
1.27841
1.28635
1.29065
1.25897
1.25723
1.28591
1.2414
1.20442
1.23366
1.24107
1.21549
1.22696
1.25985
1.26379
1.23943
1.25238
1.30362
1.20389
1.16203
1.17112
1.1772
1.08536
1.16895
1.24431
1.02747
1.03351
1.15458
1.20559
1.25896
1.22593
1.21299
1.31885
1.32367
1.30241
1.35851
1.28062
1.33156
1.37252
1.51259
1.37706
1.51108
1.49999
1.29656
1.4243
1.4758
1.31749
1.29416
1.48008
1.49872
1.36498
1.43798
1.54296
1.56285
1.50676
1.41792
1.33178
1.29929
1.30648
1.3389
1.34944
1.1974
1.21744
1.22848
1.22271
1.21644
1.20954
1.20224
1.19781
1.19699
1.19571
1.19397
1.19761
1.20267
1.20716
1.21412
1.22669
1.25608
1.2808
1.2755
1.25502
1.25071
1.27341
1.29775
1.28872
1.27563
1.27721
1.25903
1.22391
1.20175
1.21144
1.24849
1.26651
1.23679
1.19989
1.18699
1.18163
1.17757
1.1749
1.17351
1.17325
1.17352
1.1742
1.1745
1.17424
1.17354
1.17263
1.17285
1.17448
1.17802
1.18358
1.1901
1.19652
1.20102
1.20261
1.20086
1.19518
1.18505
1.17195
1.15974
1.15241
1.15173
1.1557
1.16019
1.1627
1.16302
1.16203
1.16098
1.16134
1.16354
1.16573
1.16677
1.16685
1.16695
1.16799
1.1686
1.16828
1.16727
1.16594
1.16358
1.16088
1.1596
1.1584
1.1616
1.16297
1.16852
1.1741
1.18024
1.1775
1.16945
1.15788
1.15694
1.1542
1.15573
1.15325
1.15399
1.14767
1.1496
1.11806
1.15006
1.21089
1.2379
1.22981
1.25009
1.26655
1.23436
1.2311
1.27152
1.25152
1.28067
1.31525
1.3105
1.32297
1.31774
1.3098
1.28972
1.27917
1.28432
1.28409
1.29274
1.27313
1.25689
1.26345
1.23454
1.20315
1.22335
1.22669
1.16634
1.16987
1.2007
1.20253
1.18535
1.21239
1.25976
1.28296
1.27767
1.28196
1.19212
1.16305
1.16006
1.13315
1.18504
1.15687
1.24679
1.27212
1.09629
1.0919
1.15598
1.17945
1.23663
1.18863
1.18923
1.32241
1.31618
1.26472
1.37151
1.19842
1.33753
1.23824
1.54113
1.39531
1.42114
1.47415
1.34384
1.4108
1.52723
1.36795
1.22131
1.36484
1.43017
1.33502
1.41628
1.5512
1.56259
1.49361
1.40312
1.32116
1.29976
1.31842
1.34378
1.3335
1.19473
1.21326
1.22074
1.2178
1.2069
1.19708
1.19191
1.19021
1.19073
1.19761
1.19522
1.19547
1.20134
1.20707
1.21587
1.22938
1.25184
1.25986
1.24831
1.22911
1.22134
1.22568
1.23316
1.23583
1.23758
1.23233
1.22003
1.21689
1.23365
1.25818
1.25984
1.22863
1.19597
1.1799
1.17231
1.16709
1.16328
1.16087
1.15864
1.1569
1.15502
1.15333
1.15248
1.15252
1.15432
1.1583
1.16386
1.17007
1.17525
1.17774
1.17712
1.17452
1.17176
1.17012
1.16911
1.16684
1.16244
1.15739
1.15391
1.15309
1.15464
1.15782
1.16126
1.16394
1.16575
1.16748
1.16921
1.17076
1.17274
1.17386
1.1731
1.1714
1.16987
1.16875
1.16756
1.1663
1.1647
1.16532
1.16743
1.16672
1.16856
1.1637
1.16509
1.1585
1.15992
1.15922
1.16906
1.17552
1.18371
1.18412
1.17511
1.16952
1.16184
1.15881
1.15214
1.16297
1.20429
1.16327
1.17849
1.23715
1.27999
1.28572
1.30012
1.30357
1.25647
1.28001
1.3055
1.24994
1.27791
1.31062
1.31811
1.34357
1.33182
1.31055
1.2916
1.27353
1.27373
1.27347
1.26943
1.23639
1.21432
1.21724
1.19078
1.17177
1.16422
1.14436
1.12559
1.172
1.18866
1.1796
1.18579
1.20163
1.23392
1.27652
1.3077
1.31447
1.18308
1.20843
1.16035
1.15945
1.15992
1.13218
1.19359
1.24478
1.21234
1.16498
1.1885
1.17639
1.21913
1.17279
1.17362
1.31233
1.3424
1.26566
1.39947
1.2307
1.35857
1.20662
1.47841
1.47289
1.44212
1.41933
1.41383
1.36154
1.51649
1.4281
1.30055
1.33307
1.41988
1.31602
1.38938
1.54966
1.5579
1.48007
1.39026
1.31427
1.30187
1.32281
1.33642
1.32148
1.19107
1.20657
1.21335
1.20593
1.19233
1.18834
1.19082
1.19513
1.19275
1.19499
1.19832
1.1979
1.19671
1.2014
1.21081
1.22421
1.24781
1.26475
1.26585
1.25278
1.24211
1.23628
1.23194
1.22642
1.2241
1.22733
1.23729
1.25127
1.25879
1.24415
1.21118
1.18223
1.16902
1.16432
1.16324
1.16372
1.16481
1.16595
1.16616
1.16494
1.16317
1.16103
1.15897
1.15665
1.15385
1.15061
1.14758
1.14519
1.14416
1.1455
1.1494
1.15427
1.15812
1.15861
1.15616
1.15358
1.15316
1.15378
1.1545
1.15531
1.15733
1.15957
1.16153
1.16401
1.16732
1.16875
1.16742
1.16487
1.16172
1.15846
1.15458
1.15034
1.14653
1.1437
1.14247
1.14375
1.14343
1.14452
1.1479
1.14908
1.15537
1.15835
1.16851
1.16763
1.17523
1.17391
1.16991
1.1678
1.16188
1.16908
1.17338
1.17648
1.17647
1.18622
1.18355
1.18819
1.22739
1.17358
1.1436
1.18033
1.21449
1.23647
1.25626
1.27219
1.26423
1.31042
1.31302
1.24653
1.28619
1.31553
1.31679
1.33758
1.32962
1.31027
1.28855
1.26153
1.27006
1.2779
1.25703
1.21348
1.18984
1.19299
1.18182
1.18054
1.18472
1.18352
1.17316
1.20715
1.21298
1.19767
1.19789
1.19853
1.22201
1.24865
1.26333
1.24426
1.2282
1.23213
1.17689
1.17786
1.19131
1.20707
1.20293
1.25135
1.26193
1.1668
1.20341
1.18713
1.22978
1.19855
1.1499
1.27824
1.3765
1.27324
1.41358
1.274
1.3612
1.20201
1.39129
1.50121
1.5107
1.41722
1.39196
1.38739
1.53506
1.43976
1.37232
1.39703
1.44091
1.31051
1.38041
1.54979
1.54835
1.46731
1.38219
1.31335
1.3051
1.3267
1.33785
1.32878
1.18686
1.19831
1.19962
1.18873
1.18474
1.18742
1.19218
1.19339
1.19418
1.19171
1.18892
1.19076
1.19348
1.20166
1.21464
1.2257
1.2384
1.25378
1.26588
1.26519
1.25605
1.25252
1.25276
1.25389
1.2536
1.25568
1.25498
1.24552
1.22302
1.19627
1.17813
1.17161
1.17275
1.17585
1.18024
1.18504
1.18935
1.19115
1.19148
1.18996
1.18722
1.18389
1.18077
1.17807
1.17612
1.17391
1.17079
1.16553
1.15893
1.1516
1.14573
1.1422
1.14101
1.1414
1.14289
1.14506
1.14759
1.15002
1.15354
1.15697
1.15917
1.1603
1.16217
1.16507
1.16635
1.16452
1.15976
1.15422
1.14859
1.1422
1.13583
1.13154
1.13087
1.1311
1.13227
1.13672
1.1395
1.14315
1.14223
1.14319
1.13934
1.14157
1.14022
1.13897
1.14272
1.15114
1.15682
1.16968
1.16672
1.16747
1.16729
1.17533
1.17975
1.18699
1.1842
1.15363
1.1957
1.19981
1.1437
1.1652
1.20239
1.22307
1.24278
1.25502
1.26323
1.30888
1.28967
1.25622
1.31153
1.31502
1.31006
1.32988
1.32079
1.30489
1.28818
1.26403
1.2762
1.26987
1.24079
1.20157
1.18108
1.16958
1.15772
1.14838
1.15558
1.18243
1.18902
1.19552
1.21903
1.23286
1.24186
1.24583
1.20882
1.19372
1.22468
1.24782
1.24151
1.22521
1.17116
1.14637
1.19669
1.19888
1.22592
1.30613
1.27803
1.17114
1.18748
1.17274
1.22599
1.22046
1.16844
1.27258
1.38162
1.22595
1.38211
1.2822
1.3603
1.20024
1.3029
1.45479
1.51753
1.47756
1.3662
1.36666
1.5366
1.47817
1.37813
1.41325
1.4502
1.30729
1.3714
1.55033
1.54213
1.45963
1.37656
1.31282
1.3137
1.33658
1.35078
1.34855
1.18194
1.1878
1.18444
1.18321
1.18618
1.18831
1.19459
1.19195
1.19312
1.19111
1.18813
1.18868
1.19094
1.19751
1.21179
1.2267
1.23375
1.24256
1.25051
1.25426
1.25186
1.25336
1.25748
1.2599
1.25575
1.24554
1.22841
1.20797
1.1882
1.17655
1.17272
1.1737
1.177
1.18175
1.18725
1.19162
1.19364
1.19455
1.19515
1.19502
1.19361
1.19137
1.18861
1.18504
1.18121
1.17779
1.17607
1.1761
1.17686
1.17685
1.17495
1.1713
1.16698
1.16313
1.15974
1.15694
1.1551
1.15402
1.15384
1.15543
1.1585
1.16218
1.16434
1.16495
1.16357
1.15876
1.15098
1.14328
1.13587
1.12986
1.13007
1.13734
1.14689
1.15461
1.16146
1.16945
1.17463
1.18104
1.17619
1.17872
1.17145
1.17355
1.16298
1.16188
1.15118
1.14203
1.13052
1.12993
1.13206
1.14557
1.15417
1.16225
1.1636
1.16229
1.17879
1.15134
1.18079
1.22356
1.16184
1.16443
1.21378
1.24744
1.27217
1.27351
1.28336
1.31004
1.28668
1.29417
1.34158
1.30987
1.30298
1.32676
1.3126
1.28782
1.28422
1.26949
1.25866
1.23331
1.22164
1.21053
1.20088
1.16539
1.13975
1.12352
1.11714
1.12399
1.14578
1.16304
1.17603
1.20501
1.24433
1.25967
1.24396
1.20959
1.19936
1.28068
1.29495
1.21368
1.16051
1.15763
1.20355
1.18629
1.21731
1.30579
1.25992
1.22097
1.19824
1.18519
1.2129
1.18252
1.19985
1.28342
1.32943
1.16654
1.30027
1.24635
1.35558
1.22138
1.20258
1.39801
1.46996
1.52865
1.41676
1.33223
1.49096
1.48463
1.37972
1.44112
1.46553
1.31324
1.3611
1.5471
1.53347
1.45412
1.37829
1.31516
1.32558
1.35635
1.36793
1.35672
1.17783
1.181
1.18063
1.18349
1.18565
1.18851
1.1966
1.19304
1.19462
1.19283
1.18842
1.18604
1.18825
1.19885
1.21094
1.21943
1.22432
1.23217
1.24011
1.24576
1.24709
1.24474
1.24008
1.23032
1.21694
1.20108
1.18691
1.17596
1.17075
1.17076
1.17449
1.18047
1.18836
1.19618
1.20128
1.20354
1.20384
1.20284
1.19955
1.19532
1.19205
1.19022
1.18859
1.1871
1.18436
1.18015
1.17394
1.16675
1.16012
1.15732
1.16019
1.16642
1.17135
1.174
1.17591
1.17623
1.17641
1.17627
1.1748
1.17257
1.17188
1.17275
1.17079
1.16629
1.16008
1.15034
1.13961
1.13089
1.1287
1.13444
1.14718
1.16524
1.17977
1.1884
1.19312
1.19662
1.19679
1.19976
1.19685
1.19748
1.19567
1.19637
1.19396
1.193
1.19201
1.18719
1.1815
1.16287
1.14315
1.12669
1.12816
1.13879
1.14432
1.14271
1.20047
1.19807
1.16452
1.20758
1.16462
1.13708
1.17213
1.21262
1.24746
1.25892
1.27842
1.30322
1.31236
1.33103
1.34597
1.30234
1.29776
1.32565
1.31526
1.27188
1.25861
1.25593
1.23144
1.20113
1.20363
1.20678
1.20492
1.16568
1.13304
1.12128
1.12453
1.12193
1.13293
1.18049
1.20172
1.16452
1.16624
1.2346
1.2743
1.24071
1.18467
1.25301
1.26098
1.18937
1.18982
1.20768
1.2222
1.20852
1.19943
1.29462
1.23188
1.24038
1.19196
1.22232
1.20355
1.16001
1.22012
1.27328
1.23841
1.15476
1.22957
1.18101
1.28267
1.24365
1.11373
1.3073
1.41817
1.54142
1.4795
1.37057
1.45089
1.50018
1.37405
1.39757
1.45755
1.33653
1.36786
1.54636
1.52464
1.44759
1.3867
1.32498
1.33213
1.36635
1.38073
1.35174
1.1749
1.17801
1.1801
1.18194
1.18634
1.19338
1.19928
1.19792
1.19655
1.19727
1.19521
1.19538
1.19106
1.1979
1.21123
1.21458
1.21528
1.22121
1.22738
1.23081
1.22822
1.22238
1.21316
1.20155
1.19045
1.18095
1.17519
1.17251
1.17441
1.17892
1.18521
1.19252
1.19946
1.20295
1.20243
1.19893
1.19444
1.18948
1.18571
1.18328
1.18052
1.17599
1.17048
1.16612
1.16316
1.16196
1.16132
1.15943
1.1544
1.14682
1.13924
1.13608
1.14014
1.14992
1.16041
1.16533
1.16827
1.16972
1.17057
1.17269
1.17343
1.16834
1.16265
1.15353
1.14265
1.13326
1.12584
1.12639
1.1368
1.15456
1.17382
1.19282
1.20008
1.19641
1.18894
1.182
1.17428
1.16999
1.17036
1.1717
1.17641
1.17888
1.19141
1.18937
1.19682
1.18704
1.19534
1.19164
1.19192
1.17118
1.14577
1.12387
1.12469
1.10893
1.15292
1.18506
1.14144
1.19831
1.20087
1.15796
1.17715
1.20995
1.24619
1.25819
1.27028
1.30716
1.32488
1.35944
1.31345
1.28384
1.2904
1.3168
1.31786
1.27537
1.24825
1.24267
1.21063
1.17888
1.18932
1.19217
1.1902
1.16957
1.14885
1.13851
1.14249
1.14545
1.15091
1.19634
1.27608
1.25074
1.19228
1.22836
1.28442
1.24923
1.18176
1.22434
1.24043
1.20319
1.20582
1.24215
1.22308
1.19003
1.16218
1.27142
1.22733
1.25032
1.16388
1.23422
1.20481
1.19533
1.24027
1.26381
1.18944
1.19064
1.21604
1.16989
1.18831
1.23627
1.10181
1.20024
1.32874
1.51629
1.50954
1.41773
1.46164
1.4999
1.40314
1.39936
1.46076
1.33883
1.36295
1.54399
1.51831
1.4402
1.39417
1.33577
1.33717
1.37261
1.38606
1.33077
1.17198
1.17492
1.1768
1.18268
1.19146
1.19681
1.19712
1.19818
1.19392
1.19682
1.19538
1.20151
1.20045
1.19965
1.20656
1.20767
1.20529
1.20711
1.20776
1.20569
1.19807
1.192
1.18353
1.17716
1.17189
1.17058
1.17139
1.17579
1.18156
1.18847
1.19528
1.20131
1.20331
1.20096
1.19711
1.19391
1.19179
1.18857
1.18296
1.1758
1.16825
1.16213
1.15785
1.15421
1.15129
1.14917
1.14718
1.14534
1.1423
1.13835
1.13415
1.13053
1.12823
1.12472
1.12232
1.12679
1.14045
1.15367
1.16243
1.16361
1.15728
1.15209
1.14493
1.13407
1.12675
1.12131
1.1235
1.13608
1.15694
1.17812
1.19042
1.19355
1.18252
1.16606
1.15159
1.14027
1.13461
1.133
1.13384
1.13494
1.1399
1.1431
1.15714
1.16002
1.17801
1.18299
1.1889
1.18984
1.18923
1.19899
1.20346
1.16397
1.15655
1.12199
1.09362
1.15516
1.15303
1.1886
1.20776
1.15871
1.1588
1.19169
1.23334
1.25523
1.26068
1.2955
1.32088
1.36394
1.29555
1.2638
1.28593
1.30549
1.31302
1.27853
1.24588
1.23271
1.19877
1.17171
1.18227
1.17901
1.17066
1.17408
1.1623
1.14956
1.14799
1.13812
1.14459
1.16144
1.21106
1.2546
1.22152
1.23337
1.30138
1.28877
1.18448
1.19011
1.24888
1.22827
1.20388
1.22224
1.19354
1.17448
1.18175
1.22104
1.19713
1.25376
1.14678
1.23823
1.19867
1.22375
1.24889
1.27391
1.21415
1.22142
1.21306
1.19098
1.15157
1.18085
1.15162
1.16073
1.22497
1.44994
1.49841
1.43789
1.47101
1.49681
1.42666
1.39438
1.4497
1.34779
1.36483
1.54473
1.5127
1.43233
1.40201
1.34968
1.34103
1.36848
1.38829
1.33196
1.16913
1.17242
1.17686
1.18512
1.19212
1.19058
1.19039
1.19368
1.19058
1.18932
1.19029
1.19252
1.20047
1.20252
1.20061
1.1969
1.19687
1.19448
1.19118
1.18709
1.1795
1.17509
1.16997
1.16839
1.16827
1.17178
1.17575
1.18175
1.18809
1.19457
1.19947
1.20136
1.19821
1.19266
1.18743
1.18155
1.17398
1.16496
1.15831
1.15425
1.15087
1.14728
1.14297
1.13859
1.13573
1.13403
1.13332
1.13249
1.1319
1.13122
1.13024
1.12937
1.12826
1.12729
1.12572
1.12296
1.11805
1.1141
1.1236
1.14015
1.14608
1.13914
1.13216
1.12356
1.11796
1.11829
1.1296
1.1498
1.16944
1.18159
1.18353
1.17258
1.15335
1.13653
1.12597
1.1219
1.12436
1.12987
1.13472
1.13346
1.13034
1.13139
1.13681
1.14839
1.15002
1.16433
1.16463
1.18508
1.1792
1.16534
1.18952
1.18121
1.17121
1.17408
1.11246
1.15168
1.16262
1.15951
1.20084
1.17522
1.14618
1.17428
1.21328
1.25303
1.24624
1.27025
1.335
1.32427
1.306
1.26146
1.28093
1.29605
1.30797
1.27658
1.24638
1.23177
1.20045
1.17443
1.178
1.17607
1.15594
1.15559
1.15665
1.15661
1.16819
1.16164
1.14605
1.19085
1.20258
1.23441
1.23048
1.26523
1.30485
1.31971
1.20937
1.1884
1.22877
1.22287
1.21912
1.20694
1.16906
1.16362
1.2071
1.19636
1.19829
1.2418
1.17232
1.25815
1.16949
1.2075
1.25472
1.30918
1.26681
1.24139
1.20738
1.19779
1.14138
1.1354
1.20061
1.19398
1.16065
1.35222
1.46253
1.45048
1.45525
1.49157
1.44829
1.38982
1.43713
1.35301
1.3678
1.54168
1.50385
1.41772
1.4062
1.36356
1.34872
1.36987
1.38964
1.3704
1.16618
1.16979
1.17535
1.18467
1.18907
1.1835
1.18338
1.18816
1.19146
1.18642
1.18989
1.18088
1.18793
1.19517
1.19164
1.18651
1.1858
1.18237
1.17807
1.1734
1.1702
1.16785
1.16781
1.16962
1.17394
1.17938
1.18577
1.19215
1.19798
1.20123
1.20102
1.19585
1.18759
1.17961
1.17303
1.16503
1.15358
1.14183
1.13548
1.13304
1.13269
1.13347
1.1349
1.13636
1.13815
1.13875
1.13878
1.13835
1.13834
1.13658
1.1343
1.13397
1.13215
1.12861
1.12284
1.11754
1.11771
1.12008
1.11842
1.11053
1.11713
1.12525
1.12171
1.11672
1.11542
1.12031
1.13334
1.15178
1.16838
1.17514
1.17036
1.15571
1.1384
1.12264
1.11616
1.12088
1.13145
1.14068
1.14554
1.15439
1.13854
1.1361
1.12239
1.13861
1.14118
1.16221
1.16107
1.17066
1.1917
1.17999
1.17045
1.18526
1.148
1.17824
1.13979
1.1279
1.15457
1.1268
1.17423
1.19219
1.14903
1.15854
1.19517
1.2427
1.22944
1.27831
1.33133
1.29753
1.28788
1.26425
1.27274
1.28592
1.30046
1.27824
1.24892
1.23883
1.20869
1.17252
1.1603
1.16157
1.16762
1.15434
1.14393
1.14751
1.16559
1.21124
1.23113
1.26261
1.22523
1.24163
1.25453
1.29014
1.30724
1.28981
1.19637
1.19107
1.21478
1.21114
1.22034
1.1992
1.17406
1.17311
1.21156
1.21058
1.22079
1.22209
1.21196
1.26351
1.16914
1.19131
1.24449
1.29328
1.26653
1.23623
1.19585
1.18921
1.13742
1.15991
1.25089
1.25126
1.16149
1.28101
1.41815
1.45597
1.44249
1.49403
1.4706
1.39445
1.43009
1.35889
1.37371
1.54398
1.49409
1.39841
1.40577
1.37671
1.35492
1.39605
1.41101
1.39898
1.1631
1.16678
1.17364
1.1845
1.18482
1.17573
1.17744
1.18762
1.18881
1.19111
1.18938
1.18529
1.1878
1.19217
1.186
1.1794
1.1767
1.17295
1.17028
1.16483
1.16417
1.16338
1.16577
1.16924
1.17545
1.18179
1.18782
1.19313
1.1971
1.19792
1.19708
1.19245
1.18605
1.1799
1.17167
1.15985
1.14944
1.14566
1.14583
1.14634
1.14905
1.15258
1.15504
1.15613
1.15738
1.16071
1.16386
1.16647
1.16898
1.16857
1.16616
1.16337
1.15918
1.15264
1.1479
1.14185
1.13024
1.11821
1.11938
1.12193
1.11426
1.10951
1.10878
1.10814
1.10846
1.11381
1.12575
1.1408
1.1563
1.16164
1.15819
1.14979
1.1323
1.11781
1.11849
1.12102
1.12004
1.13331
1.13214
1.14672
1.14521
1.14128
1.12486
1.13009
1.13942
1.14004
1.15251
1.1536
1.16945
1.19836
1.16776
1.19224
1.15925
1.16681
1.16672
1.11973
1.1647
1.13406
1.14342
1.18698
1.15914
1.14251
1.17749
1.2214
1.23008
1.28711
1.29179
1.30469
1.26324
1.25487
1.25856
1.26836
1.28295
1.27644
1.24761
1.23781
1.19842
1.16085
1.15116
1.14844
1.17914
1.18719
1.15801
1.13932
1.13907
1.1866
1.25814
1.26895
1.23107
1.21579
1.24125
1.29067
1.29696
1.24972
1.16894
1.17836
1.22419
1.21413
1.20712
1.17447
1.1708
1.18551
1.20574
1.20362
1.22477
1.22543
1.2215
1.23526
1.19814
1.21278
1.22851
1.22595
1.23423
1.22539
1.19504
1.18453
1.14898
1.21308
1.26817
1.26553
1.20936
1.28129
1.36824
1.43914
1.44675
1.5049
1.48548
1.39464
1.42363
1.36766
1.38485
1.54577
1.48451
1.3823
1.3959
1.38073
1.36056
1.39097
1.40655
1.38231
1.15969
1.163
1.17024
1.17987
1.18113
1.17489
1.17802
1.18331
1.17935
1.18486
1.18163
1.18065
1.18561
1.18664
1.17879
1.17375
1.17014
1.16378
1.1631
1.15857
1.15859
1.16016
1.16388
1.16929
1.1755
1.18266
1.18805
1.19256
1.19599
1.1954
1.19265
1.1881
1.18436
1.18123
1.17554
1.16928
1.16667
1.16651
1.16566
1.1654
1.1698
1.17813
1.18325
1.17859
1.17619
1.18586
1.19319
1.19408
1.19349
1.19134
1.18692
1.18288
1.18277
1.18117
1.17471
1.16888
1.16336
1.15443
1.13959
1.12957
1.12565
1.12279
1.11738
1.10586
1.0966
1.09557
1.10432
1.1225
1.14033
1.15209
1.15614
1.14321
1.13114
1.1264
1.11507
1.11795
1.11636
1.11844
1.12069
1.11465
1.1235
1.1304
1.13394
1.11362
1.13767
1.1475
1.16557
1.16682
1.1427
1.18072
1.17596
1.18081
1.17444
1.14793
1.17613
1.12181
1.14508
1.15164
1.12273
1.16442
1.16764
1.13018
1.15773
1.19259
1.23992
1.24272
1.26456
1.29587
1.25459
1.2458
1.24425
1.24532
1.24157
1.25019
1.22957
1.21508
1.17648
1.15324
1.15633
1.1491
1.16452
1.18904
1.18322
1.15031
1.14382
1.20395
1.2522
1.24513
1.21362
1.21726
1.2741
1.31821
1.27447
1.20335
1.16944
1.18896
1.22782
1.21802
1.19935
1.1589
1.18509
1.20316
1.21088
1.20756
1.24949
1.26029
1.23872
1.21531
1.20859
1.21818
1.19163
1.19562
1.23598
1.22482
1.20254
1.19247
1.17493
1.24776
1.22674
1.22981
1.26479
1.30014
1.28887
1.38474
1.44162
1.49882
1.47968
1.38597
1.41622
1.37903
1.40033
1.55083
1.47166
1.37085
1.38521
1.37424
1.36289
1.3812
1.38576
1.30991
1.15604
1.15904
1.16436
1.17503
1.1866
1.18653
1.18273
1.18197
1.1762
1.17514
1.17961
1.17777
1.18051
1.17797
1.17296
1.17044
1.16823
1.16073
1.15868
1.15527
1.15444
1.15682
1.16023
1.16672
1.17333
1.18161
1.18834
1.19375
1.19799
1.19919
1.19782
1.19332
1.18845
1.1857
1.18264
1.17777
1.17579
1.17503
1.17436
1.17775
1.18308
1.18355
1.18467
1.18938
1.18954
1.18371
1.17856
1.1769
1.17542
1.17069
1.16159
1.15512
1.15199
1.15348
1.15976
1.16719
1.1678
1.16707
1.17109
1.16729
1.15578
1.14625
1.13659
1.12546
1.1186
1.10651
1.09155
1.0902
1.10639
1.12227
1.13505
1.14404
1.13814
1.1364
1.13347
1.12485
1.12286
1.12592
1.14117
1.12705
1.12863
1.11156
1.13375
1.13422
1.13433
1.13627
1.13617
1.16197
1.16727
1.1664
1.18706
1.1672
1.18771
1.14271
1.17086