/*--------------------------------*- C++ -*----------------------------------*\
| =========                 |                                                 |
| \\      /  F ield         | OpenFOAM: The Open Source CFD Toolbox           |
|  \\    /   O peration     | Version:  dev                                   |
|   \\  /    A nd           | Web:      http://www.openfoam.org               |
|    \\/     M anipulation  |                                                 |
\*---------------------------------------------------------------------------*/
FoamFile
{
    version     2.0;
    format      ascii;
    class       volScalarField;
    object      rho_0;
    location    "9.14";
}
// * * * * * * * * * * * * * * * * * * * * * * * * * * * * * * * * * * * * * //

dimensions      [1 -3 0 0 0 0 0];

internalField   nonuniform List<scalar> 
12225
(
1.1817
1.17335
1.17063
1.16881
1.16607
1.16414
1.16119
1.15933
1.15619
1.15464
1.1517
1.15069
1.14809
1.14668
1.14687
1.14115
1.14629
1.14071
1.17638
1.16821
1.16798
1.16728
1.16551
1.16411
1.16113
1.15974
1.15595
1.15468
1.15149
1.15067
1.14828
1.14603
1.14649
1.14165
1.14668
1.14362
1.17568
1.16805
1.16802
1.16785
1.16629
1.16539
1.16288
1.16186
1.1588
1.15664
1.15436
1.15286
1.15197
1.14838
1.1481
1.14613
1.14824
1.14606
1.17583
1.16791
1.16809
1.16761
1.16637
1.16508
1.16326
1.16127
1.16042
1.15675
1.15559
1.15269
1.15365
1.14904
1.14936
1.14575
1.15012
1.14498
1.17504
1.16721
1.16745
1.16673
1.16613
1.16427
1.16282
1.16043
1.16028
1.15608
1.15534
1.15331
1.15257
1.14925
1.1491
1.14757
1.14843
1.14476
1.17489
1.1668
1.16714
1.1668
1.16638
1.16316
1.16213
1.15994
1.15948
1.15504
1.15496
1.15327
1.15162
1.1488
1.14887
1.14813
1.14547
1.14418
1.17386
1.16617
1.16728
1.16586
1.16566
1.16206
1.16191
1.15953
1.15811
1.1543
1.15332
1.15278
1.15028
1.14858
1.14859
1.14844
1.14523
1.14396
1.17328
1.16458
1.16668
1.16393
1.1647
1.16123
1.1617
1.15966
1.15787
1.15354
1.15168
1.15167
1.15132
1.14808
1.14819
1.14754
1.14511
1.14389
1.17282
1.16376
1.16547
1.16303
1.16271
1.16022
1.16079
1.1591
1.15741
1.15249
1.15135
1.15084
1.15154
1.14748
1.14654
1.14513
1.14373
1.14316
1.17182
1.16319
1.16405
1.16221
1.16115
1.15892
1.15997
1.15741
1.15563
1.15118
1.15142
1.14925
1.14899
1.14614
1.14429
1.14354
1.14314
1.14216
1.17024
1.16185
1.16237
1.1604
1.16006
1.15745
1.15781
1.15481
1.15325
1.15029
1.15022
1.14736
1.14552
1.14393
1.14268
1.14247
1.14145
1.14025
1.16808
1.15974
1.15988
1.15848
1.15826
1.15577
1.1546
1.15214
1.15099
1.14845
1.14714
1.1449
1.1433
1.14234
1.14068
1.13989
1.13908
1.1381
1.16576
1.15741
1.15711
1.1557
1.15493
1.15288
1.15121
1.14888
1.14748
1.14561
1.14415
1.14202
1.14047
1.13937
1.13786
1.13708
1.13589
1.13475
1.16158
1.1543
1.15364
1.15205
1.15091
1.14931
1.14753
1.14525
1.14347
1.1422
1.14048
1.13828
1.13683
1.13534
1.1339
1.13315
1.13186
1.13094
1.15737
1.14995
1.14902
1.14733
1.14594
1.14444
1.14255
1.14039
1.1388
1.1377
1.13562
1.13371
1.13253
1.13083
1.12987
1.12909
1.12778
1.12724
1.15186
1.14477
1.14346
1.14165
1.14038
1.13893
1.13701
1.13501
1.13373
1.13235
1.12998
1.12856
1.12744
1.12574
1.12519
1.12418
1.12306
1.12268
1.14429
1.13798
1.13658
1.13494
1.13374
1.13219
1.13049
1.12894
1.12794
1.12626
1.12439
1.1235
1.12203
1.12079
1.12013
1.1188
1.11811
1.11729
1.1364
1.13049
1.12945
1.12826
1.12714
1.12584
1.12465
1.12336
1.12218
1.1205
1.11951
1.11856
1.11717
1.11658
1.11547
1.11457
1.11403
1.11307
1.129
1.12414
1.12363
1.12217
1.12121
1.12058
1.11982
1.11864
1.11753
1.11643
1.11563
1.11457
1.11399
1.11325
1.11235
1.1119
1.11094
1.11063
1.12228
1.11901
1.11885
1.11686
1.11701
1.1166
1.11578
1.11498
1.11458
1.11366
1.11249
1.1124
1.11174
1.11117
1.11107
1.11011
1.10974
1.10933
1.11741
1.11482
1.11423
1.11317
1.11454
1.11341
1.11267
1.11241
1.11267
1.11144
1.11071
1.11139
1.11001
1.11035
1.10989
1.10894
1.10896
1.10812
1.11403
1.11023
1.11055
1.11214
1.11198
1.11127
1.11059
1.10982
1.1112
1.10977
1.10932
1.1106
1.1088
1.10959
1.10931
1.10817
1.10869
1.10766
1.11123
1.10655
1.10835
1.11132
1.10863
1.10913
1.10942
1.10885
1.1102
1.10902
1.10927
1.10974
1.10823
1.10914
1.10858
1.10767
1.10861
1.10717
1.10863
1.10567
1.10667
1.10906
1.10716
1.10657
1.10946
1.10891
1.10757
1.10933
1.10882
1.10759
1.10911
1.10783
1.10779
1.10834
1.10709
1.10798
1.10606
1.10501
1.10518
1.10618
1.10671
1.10624
1.10835
1.10777
1.10691
1.10915
1.10794
1.10773
1.10918
1.10756
1.10815
1.10832
1.107
1.10813
1.10506
1.1039
1.10483
1.10523
1.106
1.10681
1.10655
1.10706
1.10754
1.10751
1.10775
1.10776
1.10796
1.10784
1.10776
1.10793
1.10748
1.10764
1.10429
1.10314
1.10385
1.1048
1.10538
1.10584
1.10649
1.10693
1.10717
1.10739
1.10756
1.10761
1.10766
1.1077
1.10765
1.10762
1.1076
1.10751
1.10403
1.10277
1.10352
1.10435
1.10502
1.10568
1.10631
1.10679
1.10714
1.10734
1.10745
1.10749
1.10752
1.10752
1.10756
1.10757
1.10761
1.10762
1.10386
1.10273
1.10336
1.10416
1.10482
1.10544
1.10595
1.10627
1.10643
1.10648
1.1065
1.1065
1.1065
1.1065
1.10648
1.10643
1.10638
1.10624
1.1039
1.10309
1.10296
1.10305
1.10317
1.10326
1.10325
1.10317
1.10305
1.10291
1.10277
1.10264
1.1025
1.10237
1.10223
1.1021
1.10194
1.1019
1.19766
1.21812
1.21312
1.21523
1.21581
1.2169
1.21746
1.21835
1.21914
1.21915
1.21819
1.21822
1.22005
1.22004
1.2181
1.21782
1.21769
1.2167
1.21624
1.21564
1.21425
1.21352
1.21201
1.20956
1.20829
1.20488
1.20024
1.19593
1.18981
1.18776
1.19151
1.19614
1.20092
1.20552
1.20902
1.20855
1.20356
1.20118
1.2046
1.20462
1.19495
1.18131
1.17158
1.16525
1.16061
1.15771
1.15685
1.15731
1.15812
1.15894
1.15976
1.16068
1.16163
1.1626
1.1636
1.16462
1.16565
1.16666
1.16771
1.16871
1.17012
1.172
1.17428
1.17697
1.17956
1.18209
1.18455
1.18714
1.18958
1.19174
1.19372
1.19565
1.19763
1.1996
1.20143
1.20298
1.2044
1.20593
1.20765
1.20965
1.21176
1.21378
1.21597
1.21906
1.22418
1.23152
1.23936
1.24542
1.2503
1.25565
1.25968
1.26291
1.2668
1.27131
1.2795
1.28676
1.29086
1.29384
1.29668
1.29764
1.29425
1.28943
1.29045
1.29206
1.28718
1.28758
1.29302
1.31028
1.3505
1.39041
1.38963
1.37005
1.34687
1.31967
1.30035
1.28775
1.28258
1.27959
1.27221
1.28232
1.28898
1.28309
1.28088
1.2756
1.27592
1.28224
1.28534
1.28306
1.27665
1.27362
1.27818
1.2899
1.25183
1.24403
1.23958
1.23881
1.24582
1.23583
1.20733
1.18388
1.19498
1.19403
1.20464
1.21709
1.22275
1.22406
1.23073
1.23593
1.23986
1.24597
1.24981
1.25973
1.26442
1.26871
1.26913
1.28541
1.28396
1.30199
1.30145
1.32126
1.33313
1.35833
1.34997
1.30171
1.26033
1.30962
1.32648
1.33644
1.34411
1.33186
1.31205
1.30896
1.31423
1.31244
1.30879
1.30083
1.28759
1.27525
1.26631
1.26374
1.19135
1.21752
1.21204
1.21024
1.21286
1.21574
1.21656
1.21727
1.21793
1.21848
1.21664
1.21316
1.21773
1.22237
1.21603
1.21564
1.2164
1.21435
1.21711
1.21403
1.21698
1.21929
1.21556
1.22412
1.22073
1.21452
1.22994
1.22268
1.20182
1.21235
1.21923
1.21033
1.21321
1.23557
1.26698
1.28623
1.27826
1.24352
1.2275
1.2551
1.26533
1.22205
1.17789
1.16366
1.1637
1.16578
1.16834
1.17114
1.17398
1.17682
1.17957
1.18229
1.18494
1.18741
1.19001
1.19293
1.19643
1.20039
1.20439
1.20748
1.20978
1.21112
1.21172
1.21192
1.2119
1.21227
1.21278
1.21337
1.21346
1.2128
1.21121
1.20918
1.20676
1.20406
1.201
1.19791
1.19558
1.19436
1.1938
1.19387
1.19429
1.19459
1.19648
1.20187
1.21271
1.22817
1.24593
1.26476
1.28379
1.30034
1.29861
1.31247
1.32519
1.33719
1.34721
1.34832
1.34273
1.33842
1.33564
1.33911
1.33838
1.33861
1.36201
1.3676
1.34622
1.37065
1.38604
1.35859
1.39732
1.48546
1.4965
1.45007
1.43036
1.38648
1.32924
1.31283
1.31411
1.32156
1.32181
1.31948
1.33361
1.31366
1.28983
1.29139
1.30729
1.33197
1.32848
1.31637
1.30978
1.3195
1.3223
1.35037
1.29338
1.25235
1.25188
1.26644
1.28859
1.27151
1.1938
1.17365
1.21599
1.18466
1.18201
1.20419
1.22341
1.23681
1.2669
1.2941
1.30607
1.32196
1.3271
1.34894
1.36952
1.38771
1.38297
1.41231
1.39466
1.43934
1.44255
1.4811
1.53264
1.53892
1.43133
1.31627
1.34196
1.46006
1.45205
1.46536
1.47431
1.48251
1.45393
1.45854
1.47653
1.45849
1.43201
1.39669
1.3556
1.32271
1.3096
1.31972
1.17985
1.20174
1.19928
1.20154
1.20633
1.20824
1.20707
1.20505
1.20003
1.19491
1.1976
1.19703
1.19617
1.20772
1.19988
1.1903
1.20426
1.19694
1.19671
1.20751
1.1976
1.20632
1.20864
1.19846
1.21428
1.20998
1.19141
1.21731
1.24738
1.22098
1.20367
1.23035
1.23448
1.22795
1.23687
1.24471
1.25004
1.23887
1.20835
1.18691
1.17823
1.17291
1.17203
1.17481
1.17866
1.18269
1.18685
1.19109
1.19511
1.19884
1.20152
1.20258
1.20232
1.20192
1.20328
1.2069
1.21136
1.21442
1.21507
1.21328
1.20934
1.20406
1.19874
1.19451
1.19164
1.1898
1.18811
1.18651
1.18418
1.18068
1.17677
1.17395
1.1724
1.17153
1.17073
1.16947
1.16871
1.16854
1.16836
1.16864
1.1694
1.17137
1.17416
1.17866
1.1844
1.19024
1.20063
1.21644
1.23127
1.23988
1.23474
1.25385
1.27487
1.29476
1.30048
1.28595
1.26298
1.24723
1.24383
1.24694
1.26047
1.26682
1.27868
1.31559
1.33725
1.38245
1.41072
1.37057
1.39004
1.43361
1.41569
1.36904
1.34472
1.32415
1.31524
1.31963
1.31782
1.30323
1.2983
1.31691
1.33059
1.30116
1.29288
1.31107
1.31897
1.32949
1.32885
1.30869
1.32471
1.34121
1.29864
1.29946
1.31758
1.25269
1.26152
1.27292
1.29368
1.33958
1.18088
1.24969
1.29197
1.23189
1.22816
1.2206
1.16266
1.16406
1.23739
1.29024
1.31973
1.33762
1.34217
1.37658
1.40725
1.42909
1.43764
1.46358
1.45048
1.48545
1.48801
1.55062
1.63333
1.52185
1.37693
1.30172
1.37887
1.58935
1.54078
1.51171
1.46506
1.49038
1.52034
1.56247
1.59649
1.56253
1.49729
1.42487
1.36841
1.33808
1.34595
1.37184
1.17201
1.1878
1.196
1.20559
1.20874
1.20353
1.19657
1.19188
1.18729
1.17883
1.17953
1.1915
1.19379
1.1946
1.19577
1.18892
1.20314
1.20808
1.20661
1.22503
1.21919
1.21809
1.22845
1.20733
1.20607
1.22604
1.21088
1.17785
1.17181
1.20991
1.23761
1.2047
1.1962
1.25723
1.28459
1.23924
1.19165
1.17978
1.17728
1.175
1.1748
1.17585
1.17813
1.1798
1.18055
1.18099
1.18188
1.1842
1.1885
1.19413
1.19974
1.20311
1.20293
1.19916
1.19368
1.18918
1.18723
1.18804
1.19056
1.1928
1.19271
1.18907
1.18351
1.18016
1.18068
1.18338
1.18512
1.18555
1.18542
1.18499
1.1844
1.18458
1.18629
1.18924
1.19275
1.19597
1.19922
1.20244
1.205
1.20699
1.20778
1.20873
1.20869
1.20614
1.20235
1.19484
1.18963
1.18996
1.19123
1.19588
1.19707
1.20426
1.22184
1.22807
1.23185
1.22297
1.20053
1.17485
1.18448
1.20379
1.23191
1.25436
1.23456
1.24682
1.28866
1.31309
1.36375
1.3733
1.37248
1.40811
1.42248
1.38491
1.34711
1.3402
1.33267
1.32006
1.30969
1.29892
1.3154
1.32981
1.31066
1.28935
1.3023
1.31294
1.30626
1.319
1.31609
1.28231
1.30889
1.31491
1.26921
1.27755
1.31401
1.28165
1.26596
1.26127
1.35916
1.40782
1.19129
1.24517
1.25126
1.15876
1.23807
1.29301
1.10575
1.08766
1.20781
1.26996
1.31613
1.31586
1.31073
1.3842
1.4047
1.40588
1.44778
1.43056
1.43818
1.51543
1.51139
1.52068
1.67303
1.56056
1.38802
1.41822
1.45793
1.58336
1.63126
1.65064
1.54202
1.45517
1.53662
1.61922
1.64473
1.5943
1.50521
1.41657
1.37037
1.36098
1.38929
1.41179
1.16991
1.18651
1.20241
1.20463
1.19739
1.18887
1.18228
1.17782
1.17591
1.1737
1.17234
1.17684
1.18522
1.1852
1.1846
1.19144
1.2121
1.22452
1.23418
1.25578
1.24426
1.23202
1.25887
1.2521
1.21676
1.21447
1.2183
1.21227
1.21638
1.21162
1.19098
1.21346
1.25839
1.24183
1.19426
1.1735
1.16933
1.16715
1.16597
1.16631
1.16711
1.16816
1.16892
1.16982
1.1707
1.17182
1.17371
1.17617
1.18004
1.18511
1.1912
1.19721
1.20144
1.20249
1.1999
1.19419
1.18702
1.17978
1.17385
1.17111
1.17172
1.1732
1.1733
1.17267
1.17269
1.1735
1.17479
1.17634
1.17856
1.18073
1.18203
1.18279
1.18399
1.18592
1.18684
1.18655
1.18564
1.18522
1.18537
1.18682
1.18953
1.1923
1.19518
1.1942
1.19541
1.19512
1.18996
1.18513
1.18074
1.18129
1.18525
1.18832
1.1999
1.19989
1.20818
1.20256
1.18011
1.14525
1.1697
1.20682
1.22863
1.24616
1.25528
1.27512
1.2966
1.29126
1.33121
1.32319
1.33203
1.37568
1.36643
1.35
1.34532
1.35038
1.32968
1.3154
1.31907
1.32556
1.34972
1.34135
1.31802
1.32816
1.33015
1.29431
1.29242
1.32369
1.27714
1.23984
1.26844
1.27983
1.25663
1.26749
1.30335
1.31633
1.29396
1.30745
1.34213
1.23839
1.21253
1.21389
1.22754
1.13669
1.22219
1.30864
1.08535
1.08292
1.20463
1.25665
1.31569
1.27684
1.26433
1.3847
1.38916
1.35921
1.43071
1.3284
1.40034
1.41718
1.61096
1.45139
1.57526
1.58612
1.37986
1.51908
1.59333
1.38427
1.34044
1.54816
1.58063
1.43961
1.52475
1.64268
1.65358
1.58536
1.48854
1.39944
1.37075
1.3827
1.41368
1.41581
1.17067
1.19045
1.20178
1.19643
1.19061
1.18408
1.17689
1.1724
1.17145
1.16952
1.16798
1.17194
1.1771
1.18118
1.18742
1.19928
1.22804
1.25315
1.24995
1.23209
1.22694
1.24801
1.27354
1.26532
1.25121
1.25352
1.23804
1.20429
1.18056
1.18621
1.22178
1.24587
1.2235
1.18675
1.17117
1.1653
1.16159
1.15929
1.15829
1.15851
1.15935
1.16075
1.1619
1.16254
1.1627
1.16246
1.16312
1.16506
1.16881
1.17472
1.1819
1.18942
1.19546
1.19886
1.1991
1.19562
1.18763
1.17594
1.16398
1.15595
1.15448
1.15855
1.16422
1.1684
1.1703
1.17059
1.17042
1.17137
1.17434
1.17769
1.18
1.18117
1.18208
1.18393
1.1856
1.18638
1.18636
1.18607
1.18476
1.18266
1.182
1.18085
1.18458
1.18628
1.19232
1.19861
1.20665
1.20577
1.19918
1.1876
1.18608
1.18317
1.18408
1.18178
1.18206
1.17695
1.18334
1.15015
1.1819
1.24644
1.27657
1.26864
1.29076
1.30643
1.26847
1.26968
1.30958
1.284
1.31749
1.35172
1.34812
1.36538
1.35972
1.34898
1.32874
1.31675
1.32161
1.32067
1.32678
1.30415
1.28645
1.29367
1.26323
1.23117
1.24948
1.2524
1.19468
1.20288
1.23437
1.23801
1.22303
1.24863
1.29782
1.32824
1.33157
1.34209
1.22812
1.21142
1.20676
1.17795
1.23072
1.20884
1.29968
1.32814
1.17438
1.15381
1.21156
1.22965
1.2888
1.23895
1.24052
1.38458
1.38699
1.32394
1.45029
1.25807
1.41337
1.28299
1.61386
1.49136
1.49581
1.54402
1.44219
1.47895
1.62249
1.46767
1.30133
1.43217
1.50373
1.40609
1.49817
1.64709
1.648
1.56717
1.47069
1.38774
1.37023
1.39118
1.4114
1.39433
1.17085
1.18961
1.1972
1.19458
1.18455
1.17477
1.16892
1.1665
1.16729
1.17378
1.17094
1.17167
1.17804
1.18366
1.1921
1.20515
1.22765
1.2366
1.22566
1.2066
1.19882
1.20404
1.21274
1.21546
1.21727
1.21302
1.20039
1.1947
1.20899
1.2349
1.2427
1.21674
1.18399
1.1659
1.15758
1.15242
1.14881
1.14675
1.14503
1.14388
1.14268
1.14157
1.1412
1.1416
1.14357
1.14772
1.15365
1.1606
1.16701
1.17106
1.17196
1.17049
1.16839
1.16726
1.16706
1.16606
1.16298
1.15881
1.15576
1.15521
1.15711
1.16088
1.16523
1.16907
1.17201
1.17477
1.17748
1.17988
1.18269
1.18489
1.18521
1.18432
1.18344
1.18296
1.18252
1.18217
1.1812
1.1823
1.18554
1.18576
1.18901
1.185
1.1875
1.18135
1.18309
1.18216
1.19177
1.199
1.20813
1.21075
1.20258
1.19761
1.19005
1.18809
1.18122
1.19262
1.23803
1.19483
1.206
1.2647
1.30953
1.31812
1.33315
1.33631
1.29167
1.32249
1.34297
1.28175
1.31402
1.34653
1.35442
1.38136
1.36928
1.34664
1.32736
1.30592
1.30666
1.30802
1.30092
1.2645
1.23993
1.24289
1.21966
1.20401
1.19546
1.17613
1.15999
1.20918
1.22718
1.21732
1.22471
1.23808
1.268
1.31168
1.34747
1.3569
1.23694
1.26319
1.20764
1.20913
1.20761
1.18422
1.2381
1.29437
1.29139
1.22461
1.24693
1.23055
1.27432
1.23079
1.22245
1.36572
1.41925
1.32911
1.47628
1.30805
1.4335
1.26661
1.52532
1.57056
1.5412
1.49187
1.49946
1.43778
1.60685
1.52097
1.39969
1.42168
1.50415
1.38682
1.47012
1.64294
1.6383
1.54989
1.45595
1.38022
1.37123
1.39259
1.40158
1.3844
1.17025
1.18634
1.19349
1.18696
1.17309
1.16817
1.16975
1.17365
1.17126
1.1745
1.17779
1.1772
1.17635
1.18078
1.18962
1.20275
1.22657
1.24316
1.24358
1.2302
1.21994
1.21484
1.21137
1.20627
1.20387
1.20639
1.21549
1.22989
1.24069
1.23127
1.20133
1.17128
1.15576
1.14987
1.1484
1.14889
1.1502
1.15186
1.15284
1.15247
1.15146
1.15004
1.1487
1.14718
1.14525
1.14282
1.14049
1.13864
1.1379
1.13928
1.14334
1.14882
1.1539
1.15598
1.15474
1.15269
1.15262
1.15389
1.15543
1.15694
1.15959
1.16262
1.16536
1.16852
1.17277
1.17551
1.17532
1.17359
1.17106
1.16836
1.1651
1.16143
1.15821
1.15586
1.15499
1.15711
1.15775
1.15935
1.16331
1.16501
1.1716
1.17531
1.18631
1.1865
1.19482
1.19511
1.19134
1.19008
1.18348
1.19074
1.19615
1.2007
1.20182
1.21283
1.21089
1.2124
1.25299
1.20193
1.16649
1.20158
1.23636
1.25995
1.28066
1.29737
1.29521
1.3449
1.34034
1.27711
1.3232
1.34819
1.34758
1.36835
1.36055
1.34185
1.32081
1.29202
1.30182
1.30916
1.28578
1.24128
1.21661
1.21697
1.20779
1.20721
1.21382
1.22063
1.21292
1.24188
1.25137
1.2401
1.24079
1.2401
1.25616
1.27631
1.29192
1.27592
1.28015
1.27779
1.22124
1.21857
1.24069
1.26129
1.25425
1.31304
1.32507
1.21828
1.25395
1.23807
1.28484
1.26113
1.20391
1.33046
1.4465
1.32336
1.47412
1.34499
1.42973
1.26374
1.42447
1.57172
1.60401
1.51194
1.45886
1.46658
1.62465
1.52904
1.46061
1.49194
1.52437
1.38063
1.46051
1.64029
1.62425
1.53449
1.44638
1.37807
1.374
1.39616
1.40534
1.39569
1.16926
1.18173
1.18389
1.17266
1.16729
1.16943
1.17367
1.17553
1.17588
1.17389
1.17179
1.17353
1.17592
1.18378
1.19608
1.20675
1.2204
1.23607
1.24792
1.2469
1.2377
1.2337
1.23359
1.2347
1.23474
1.23764
1.23892
1.23262
1.21311
1.18687
1.16694
1.15833
1.15841
1.16125
1.16563
1.17068
1.17566
1.17834
1.17954
1.1789
1.17696
1.17429
1.17173
1.16953
1.16816
1.16672
1.16461
1.16045
1.15481
1.14815
1.14256
1.13915
1.13813
1.13882
1.14075
1.14347
1.14664
1.14964
1.15373
1.15801
1.16123
1.16318
1.1656
1.16925
1.17167
1.17105
1.1672
1.16226
1.1572
1.1514
1.14559
1.14183
1.14194
1.14317
1.14497
1.15026
1.15403
1.15894
1.15854
1.16041
1.1564
1.15892
1.15737
1.15626
1.15902
1.16744
1.173
1.18668
1.1849
1.18628
1.18654
1.19524
1.20014
1.20688
1.2061
1.17281
1.21492
1.22683
1.16745
1.18715
1.22666
1.24905
1.26993
1.28125
1.29217
1.33622
1.31286
1.29068
1.34826
1.34193
1.33602
1.3572
1.34704
1.32929
1.31589
1.29368
1.30169
1.28991
1.26365
1.23017
1.21162
1.19343
1.17884
1.16669
1.17125
1.19934
1.21235
1.21812
1.24354
1.26444
1.28009
1.28918
1.24988
1.22517
1.25012
1.29217
1.29262
1.26263
1.20948
1.18419
1.2404
1.23846
1.26999
1.36345
1.32728
1.23044
1.23614
1.22305
1.27407
1.26791
1.23223
1.33115
1.42899
1.25977
1.41686
1.33404
1.42188
1.2652
1.32355
1.50211
1.58132
1.58236
1.45049
1.42964
1.60674
1.56464
1.45192
1.49908
1.52972
1.37673
1.44773
1.63669
1.61349
1.52418
1.44008
1.37585
1.38239
1.40766
1.41943
1.41245
1.1675
1.17447
1.17129
1.16883
1.17114
1.17327
1.17896
1.1768
1.1779
1.17584
1.17313
1.17411
1.17631
1.18243
1.19642
1.21138
1.21901
1.2282
1.23642
1.24005
1.23712
1.23828
1.24259
1.24603
1.24337
1.23506
1.21964
1.20002
1.17954
1.16616
1.16086
1.16103
1.16399
1.16863
1.17437
1.17944
1.18229
1.18382
1.18505
1.18565
1.18498
1.18336
1.18124
1.17829
1.175
1.17193
1.1704
1.17071
1.17201
1.17283
1.17187
1.16903
1.16533
1.16199
1.15912
1.15677
1.15536
1.15472
1.15487
1.15672
1.16018
1.16459
1.16766
1.16911
1.16869
1.16489
1.15777
1.15045
1.14356
1.13788
1.13823
1.14626
1.15724
1.16643
1.17414
1.18291
1.18869
1.19652
1.19246
1.19564
1.18896
1.19165
1.18167
1.18097
1.17077
1.16122
1.14891
1.14625
1.14724
1.15979
1.16893
1.17749
1.17917
1.17723
1.1994
1.17431
1.19791
1.24437
1.18287
1.18181
1.23198
1.26804
1.29474
1.29628
1.30806
1.3328
1.31354
1.33
1.37077
1.33113
1.32499
1.35089
1.33703
1.30619
1.30229
1.29196
1.27438
1.24449
1.23872
1.23533
1.22973
1.1901
1.16057
1.14386
1.13713
1.13915
1.1613
1.18698
1.20146
1.22219
1.26038
1.28884
1.2872
1.25211
1.22489
1.31382
1.33504
1.24513
1.20136
1.20604
1.24808
1.2289
1.25102
1.3468
1.29733
1.28132
1.2456
1.24408
1.25815
1.2202
1.26276
1.33818
1.35115
1.20783
1.32283
1.2792
1.39293
1.28845
1.21741
1.42701
1.51418
1.61923
1.51944
1.41087
1.5494
1.56385
1.44993
1.5115
1.53784
1.38478
1.43694
1.62898
1.59915
1.51446
1.44216
1.37815
1.3908
1.42431
1.43304
1.41023
1.16635
1.17022
1.1693
1.1718
1.17372
1.17606
1.18397
1.18017
1.18211
1.18007
1.17567
1.1734
1.17608
1.18636
1.19833
1.20776
1.21304
1.22085
1.2288
1.23457
1.23615
1.2345
1.231
1.22258
1.21014
1.19457
1.17987
1.16782
1.16118
1.16006
1.16308
1.16863
1.17637
1.18464
1.19063
1.19385
1.19498
1.19484
1.19238
1.18863
1.18555
1.18398
1.18275
1.18178
1.17972
1.17626
1.1708
1.16415
1.15759
1.15428
1.15659
1.16298
1.16868
1.17207
1.17467
1.17565
1.1764
1.17694
1.17622
1.17449
1.17405
1.17541
1.17429
1.17045
1.1649
1.15586
1.14549
1.13678
1.13452
1.1406
1.15384
1.17304
1.18902
1.1986
1.20354
1.20715
1.20716
1.21031
1.20834
1.20925
1.20843
1.20954
1.20876
1.20807
1.20861
1.20437
1.20062
1.18239
1.16253
1.14348
1.14236
1.15087
1.15652
1.15389
1.21448
1.2171
1.177
1.22218
1.18418
1.15287
1.1862
1.22707
1.26327
1.27595
1.29602
1.32272
1.33802
1.36132
1.36035
1.3169
1.31549
1.34424
1.33742
1.29059
1.27165
1.27066
1.2425
1.21061
1.21716
1.22279
1.22296
1.18767
1.15599
1.14488
1.15029
1.14759
1.15513
1.20722
1.24166
1.19969
1.18426
1.25521
1.30914
1.27939
1.21129
1.27245
1.28404
1.22204
1.23149
1.25739
1.26208
1.24662
1.22519
1.32747
1.26899
1.2909
1.22814
1.27884
1.24937
1.21314
1.27958
1.32208
1.25971
1.21555
1.26567
1.21861
1.29454
1.29878
1.14875
1.31893
1.44311
1.60758
1.57222
1.46606
1.52168
1.57493
1.44675
1.45867
1.52439
1.40349
1.44019
1.6234
1.58533
1.5026
1.44855
1.38682
1.3918
1.42695
1.4388
1.39427
1.16634
1.16994
1.17174
1.17318
1.17675
1.18338
1.19006
1.18807
1.18741
1.18763
1.18529
1.18474
1.18072
1.18824
1.20189
1.20604
1.20715
1.21315
1.21968
1.22381
1.22212
1.21683
1.2082
1.19663
1.18513
1.17475
1.168
1.16425
1.16526
1.16925
1.17528
1.18261
1.19013
1.19472
1.19531
1.19262
1.18864
1.18399
1.18036
1.17818
1.176
1.17215
1.16702
1.16278
1.15982
1.15864
1.15827
1.15706
1.1529
1.14596
1.13838
1.13448
1.13758
1.14698
1.15821
1.16421
1.16782
1.16982
1.17106
1.17358
1.17521
1.17092
1.16577
1.15722
1.14661
1.13738
1.12996
1.13039
1.14099
1.15948
1.17933
1.19903
1.20709
1.20354
1.1956
1.18827
1.18055
1.17596
1.17662
1.17816
1.18353
1.18603
1.19989
1.19853
1.20749
1.19843
1.20749
1.20549
1.20758
1.18918
1.16389
1.13822
1.13806
1.11983
1.15635
1.1939
1.15365
1.2109
1.21827
1.1731
1.18977
1.22238
1.25956
1.27274
1.2834
1.32197
1.34242
1.38001
1.32011
1.29222
1.30414
1.32908
1.33384
1.29333
1.26209
1.25419
1.22039
1.18903
1.20096
1.20269
1.19958
1.18755
1.17112
1.16068
1.16406
1.16606
1.17048
1.20996
1.29609
1.28926
1.22529
1.25138
1.31389
1.28583
1.20808
1.23913
1.26725
1.24086
1.23823
1.27534
1.24987
1.21764
1.19343
1.29138
1.25938
1.29536
1.196
1.28132
1.24707
1.25571
1.29471
1.31652
1.23845
1.2584
1.26349
1.22458
1.20811
1.26785
1.16851
1.2239
1.33444
1.55417
1.57776
1.50195
1.5379
1.5651
1.48036
1.46435
1.521
1.39817
1.42993
1.61634
1.57348
1.48907
1.45184
1.395
1.39206
1.42534
1.43682
1.37243
1.16629
1.16971
1.17127
1.17636
1.18468
1.19091
1.1919
1.19231
1.18828
1.19132
1.18948
1.19529
1.19315
1.19264
1.20071
1.20259
1.20016
1.20232
1.20361
1.20232
1.19513
1.18897
1.18026
1.17319
1.16706
1.16477
1.16477
1.16848
1.1739
1.1807
1.18764
1.19427
1.19736
1.19595
1.19255
1.18949
1.18764
1.18501
1.18002
1.17332
1.16595
1.15977
1.15546
1.15192
1.14908
1.1471
1.1453
1.14376
1.1411
1.13745
1.13342
1.12984
1.1278
1.12463
1.12184
1.12514
1.13821
1.15201
1.16201
1.16469
1.15914
1.15418
1.1476
1.13695
1.12959
1.12405
1.12606
1.13867
1.15992
1.18195
1.19498
1.19829
1.18722
1.17042
1.15575
1.14443
1.13913
1.13804
1.13931
1.14043
1.14526
1.14832
1.16227
1.16592
1.18376
1.19057
1.19621
1.19883
1.19785
1.20829
1.21654
1.17814
1.16996
1.13659
1.10007
1.163
1.16589
1.19544
1.21748
1.16973
1.16581
1.19902
1.24098
1.2659
1.26894
1.30243
1.33501
1.3689
1.30554
1.27137
1.29595
1.31342
1.32303
1.29061
1.2574
1.24252
1.20868
1.1826
1.19163
1.18778
1.17641
1.18344
1.17595
1.16573
1.16647
1.15604
1.15918
1.17682
1.21514
1.26768
1.2464
1.2586
1.3255
1.32449
1.21205
1.20593
1.27003
1.25707
1.2334
1.24259
1.21133
1.19908
1.22336
1.23965
1.22659
1.28946
1.18866
1.28506
1.22981
1.26614
1.29608
1.33357
1.28426
1.2809
1.25706
1.24441
1.18762
1.20334
1.23143
1.2172
1.23619
1.46162
1.54391
1.50855
1.53087
1.55687
1.4969
1.45005
1.50073
1.40438
1.42957
1.61089
1.56001
1.47251
1.45397
1.4054
1.39184
1.41642
1.4344
1.38432
1.16614
1.1699
1.17386
1.18164
1.18901
1.18875
1.18862
1.19136
1.18736
1.1869
1.18727
1.19057
1.19761
1.1991
1.19818
1.19482
1.19451
1.19249
1.18948
1.18569
1.17778
1.17297
1.16719
1.16486
1.16394
1.16685
1.1704
1.17615
1.18243
1.18913
1.1946
1.19746
1.19529
1.19022
1.18522
1.17976
1.17283
1.16413
1.15727
1.15296
1.14949
1.14595
1.14175
1.13732
1.13431
1.13253
1.13187
1.13117
1.1307
1.13021
1.12942
1.12871
1.1278
1.12707
1.12586
1.12357
1.11898
1.1141
1.12209
1.13883
1.14665
1.14093
1.13425
1.12584
1.12007
1.12001
1.13093
1.1513
1.17157
1.18427
1.18672
1.17597
1.15677
1.13966
1.12917
1.12571
1.12887
1.13502
1.14049
1.13992
1.13607
1.13684
1.14102
1.15344
1.15433
1.16966
1.16958
1.19073
1.18627
1.17098
1.19411
1.18971
1.17734
1.18527
1.12351
1.15681
1.16988
1.16048
1.20464
1.18477
1.15185
1.17855
1.21713
1.25928
1.24965
1.27699
1.34475
1.32039
1.31118
1.269
1.28601
1.29993
1.31294
1.28399
1.25449
1.24065
1.20966
1.18172
1.18085
1.18006
1.16422
1.16076
1.16162
1.16468
1.1804
1.18638
1.1754
1.2212
1.21798
1.24489
1.2498
1.28958
1.32193
1.336
1.22867
1.2068
1.24142
1.23977
1.24482
1.22593
1.19087
1.18963
1.24076
1.2255
1.23611
1.2685
1.22307
1.3009
1.20095
1.23674
1.29194
1.35291
1.32197
1.28686
1.24515
1.23906
1.18112
1.18196
1.27756
1.26961
1.19927
1.36146
1.49395
1.51151
1.50384
1.5497
1.51355
1.442
1.48384
1.40431
1.42888
1.60196
1.54254
1.44804
1.44998
1.41366
1.39497
1.42175
1.43682
1.42138
1.16569
1.16983
1.17506
1.18397
1.18912
1.18449
1.1841
1.18797
1.19071
1.18534
1.18908
1.18048
1.18755
1.19469
1.19172
1.18661
1.1859
1.18257
1.17817
1.1734
1.1696
1.16677
1.16605
1.16729
1.17105
1.17618
1.18237
1.18877
1.19482
1.19859
1.19908
1.19465
1.18675
1.17878
1.17235
1.1649
1.15392
1.14187
1.13482
1.13192
1.13126
1.13183
1.13317
1.1346
1.1365
1.13728
1.13747
1.13711
1.13728
1.13583
1.13361
1.13339
1.13198
1.12896
1.12354
1.11802
1.11784
1.12049
1.1196
1.11122
1.11674
1.12551
1.12289
1.11806
1.11658
1.12113
1.13381
1.15211
1.1692
1.17659
1.17239
1.15838
1.14127
1.12536
1.11908
1.12389
1.13436
1.14425
1.14898
1.15875
1.14314
1.14054
1.12593
1.14197
1.14506
1.16537
1.16488
1.17345
1.1957
1.18652
1.17342
1.19016
1.15129
1.18176
1.14786
1.12916
1.159
1.12881
1.1736
1.19687
1.15353
1.15941
1.19633
1.24312
1.23199
1.28624
1.328
1.29791
1.28268
1.26629
1.27202
1.28402
1.29819
1.28092
1.25197
1.24263
1.21001
1.1722
1.15865
1.16004
1.1768
1.16565
1.14959
1.14904
1.16423
1.22132
1.26032
1.28274
1.23702
1.24593
1.26563
1.30469
1.3168
1.28739
1.20033
1.20212
1.22954
1.22601
1.23489
1.21047
1.19583
1.20056
1.23432
1.23793
1.25525
1.24986
1.25414
1.28817
1.21232
1.22877
1.27066
1.30281
1.29404
1.26971
1.23202
1.22508
1.18145
1.23075
1.31181
1.31248
1.22851
1.3169
1.43755
1.50042
1.49288
1.5514
1.52631
1.4398
1.47223
1.40722
1.4326
1.59857
1.52463
1.42255
1.43911
1.41736
1.39516
1.4384
1.44816
1.42395
1.16489
1.16918
1.17573
1.18652
1.18744
1.17845
1.1794
1.18936
1.19127
1.19251
1.19146
1.18653
1.18891
1.19386
1.1882
1.18137
1.17863
1.17489
1.17193
1.16623
1.16507
1.1638
1.1657
1.16872
1.17461
1.18078
1.18681
1.19221
1.19641
1.19755
1.19703
1.19265
1.18621
1.18003
1.17212
1.1605
1.14956
1.14495
1.14476
1.1451
1.14757
1.15103
1.15364
1.15498
1.15622
1.15933
1.16247
1.16516
1.16795
1.16798
1.16586
1.16333
1.15947
1.15306
1.14844
1.14296
1.1319
1.11932
1.11977
1.12295
1.11567
1.11052
1.10964
1.10888
1.10882
1.11364
1.12517
1.14015
1.15601
1.16208
1.15943
1.15139
1.13427
1.12028
1.12056
1.12299
1.12148
1.13459
1.13346
1.14758
1.14677
1.143
1.12744
1.13151
1.14181
1.14184
1.15546
1.15602
1.1694
1.20069
1.17026
1.19381
1.16285
1.16615
1.17054
1.12091
1.16578
1.13768
1.14043
1.18541
1.1611
1.14032
1.17554
1.21676
1.23369
1.28274
1.28214
1.30417
1.25645
1.25124
1.25311
1.26018
1.26979
1.26859
1.24152
1.23028
1.18889
1.15595
1.15116
1.14718
1.179
1.19417
1.16659
1.14168
1.1373
1.18778
1.26307
1.26681
1.2304
1.21496
1.24975
1.30116
1.2964
1.23951
1.17194
1.18689
1.23692
1.22747
1.21623
1.18033
1.19023
1.2105
1.22527
1.22435
1.25575
1.26235
1.25506
1.24986
1.23746
1.24978
1.24293
1.23419
1.2632
1.25707
1.23335
1.2227
1.19927
1.27747
1.29337
1.29335
1.28745
1.335
1.36816
1.45895
1.49209
1.55005
1.52344
1.42797
1.46011
1.4135
1.4414
1.59317
1.50598
1.40309
1.42015
1.40935
1.39378
1.41666
1.42345
1.37203
1.16353
1.16744
1.17474
1.18439
1.1845
1.17711
1.18059
1.18725
1.18389
1.18955
1.18585
1.18428
1.18903
1.19076
1.18283
1.17724
1.17349
1.16707
1.16614
1.16129
1.16097
1.1621
1.1655
1.17057
1.17657
1.18356
1.1889
1.19338
1.19689
1.19644
1.19381
1.18926
1.18538
1.18222
1.17656
1.17002
1.16694
1.16663
1.16583
1.16526
1.1691
1.17738
1.1833
1.17914
1.17592
1.18507
1.19305
1.19449
1.19415
1.19227
1.18807
1.18386
1.1836
1.18216
1.17576
1.1698
1.16443
1.15595
1.14123
1.13089
1.12683
1.12416
1.11904
1.10749
1.0978
1.0959
1.10341
1.12077
1.13864
1.15097
1.1559
1.14382
1.13242
1.12838
1.11677
1.11917
1.11746
1.11916
1.12175
1.11493
1.12427
1.13035
1.13459
1.11464
1.13921
1.14889
1.1658
1.16712
1.14337
1.17988
1.17746
1.1788
1.17544
1.14558
1.17523
1.12339
1.14089
1.15163
1.11856
1.1578
1.16606
1.12674
1.15226
1.1858
1.23901
1.22862
1.25902
1.28813
1.24799
1.23962
1.23677
1.23356
1.22247
1.23105
1.21289
1.19788
1.16181
1.14699
1.15824
1.14865
1.15724
1.18381
1.18674
1.15784
1.15258
1.21033
1.24601
1.2409
1.20652
1.2193
1.28409
1.32195
1.26442
1.19192
1.17393
1.19744
1.22908
1.2204
1.20649
1.17096
1.20886
1.22383
1.22648
1.23025
1.28033
1.29533
1.26927
1.23413
1.23457
1.23689
1.20374
1.23292
1.28095
1.25393
1.23944
1.23204
1.22357
1.28122
1.22987
1.24832
1.33228
1.34496
1.29362
1.39927
1.46995
1.52155
1.49846
1.40921
1.45037
1.4235
1.45389
1.59023
1.484
1.38917
1.40501
1.39823
1.39141
1.41118
1.39509
1.28324
1.16173
1.16519
1.17107
1.18231
1.19313
1.19202
1.18878
1.18829
1.18204
1.18109
1.18479
1.18308
1.18606
1.18389
1.1783
1.17523
1.17283
1.16503
1.16292
1.15918
1.15817
1.16031
1.16352
1.16977
1.17621
1.18431
1.19088
1.19612
1.20025
1.20133
1.19989
1.19532
1.19035
1.18753
1.18445
1.17943
1.17727
1.17647
1.1756
1.17866
1.18405
1.18479
1.18588
1.19049
1.19091
1.18541
1.18033
1.17868
1.17745
1.17309
1.16406
1.15723
1.15372
1.15485
1.16086
1.16827
1.16883
1.16779
1.17174
1.16817
1.15684
1.14747
1.13811
1.12725
1.12062
1.10823
1.09256
1.08973
1.10448
1.11996
1.13278
1.14263
1.13743
1.13662
1.13433
1.12479
1.1235
1.1267
1.14129
1.12639
1.12778
1.11136
1.13408
1.13511
1.13422
1.1367
1.13662
1.16068
1.16642
1.16266
1.18628
1.1643
1.18602
1.14066
1.16529
1.15133