/*--------------------------------*- C++ -*----------------------------------*\
| =========                 |                                                 |
| \\      /  F ield         | OpenFOAM: The Open Source CFD Toolbox           |
|  \\    /   O peration     | Version:  dev                                   |
|   \\  /    A nd           | Web:      http://www.openfoam.org               |
|    \\/     M anipulation  |                                                 |
\*---------------------------------------------------------------------------*/
FoamFile
{
    version     2.0;
    format      ascii;
    class       volScalarField;
    object      T;
    location    "9.14";
}
// * * * * * * * * * * * * * * * * * * * * * * * * * * * * * * * * * * * * * //

dimensions      [0 0 0 1 0 0 0];

internalField   nonuniform List<scalar> 
12225
(
298.194
299.808
300.018
299.864
299.867
299.618
299.615
299.349
299.443
299.197
299.352
299.117
299.284
299.396
298.843
300.044
298.59
298.342
299.36
301.12
300.755
300.311
300.061
299.662
299.664
299.259
299.515
299.193
299.415
299.129
299.215
299.55
298.88
300.093
298.559
298.412
299.527
301.178
300.752
300.163
299.858
299.331
299.218
298.721
298.773
298.671
298.672
298.572
298.274
298.813
298.579
298.949
298.168
298.534
299.421
301.153
300.678
300.167
299.786
299.359
299.058
298.846
298.321
298.583
298.291
298.589
297.813
298.6
298.124
299.095
297.937
298.724
299.526
301.252
300.757
300.326
299.779
299.487
299.096
299.009
298.287
298.686
298.337
298.339
298.012
298.514
298.283
298.549
298.282
298.912
299.428
301.236
300.736
300.207
299.581
299.648
299.192
299.045
298.375
298.891
298.381
298.259
298.168
298.592
298.361
298.237
298.893
298.953
299.5
301.223
300.526
300.254
299.598
299.802
299.138
298.997
298.602
298.932
298.685
298.271
298.436
298.595
298.399
298.052
298.796
299.028
299.448
301.436
300.47
300.566
299.67
299.866
299.049
298.816
298.512
298.95
298.972
298.526
298.09
298.556
298.373
298.232
298.802
299.032
299.354
301.45
300.569
300.612
299.989
299.969
299.123
298.797
298.446
299.075
298.944
298.636
297.897
298.51
298.59
298.776
299.097
299.241
299.319
301.311
300.666
300.554
300.159
300.087
299.095
298.977
298.686
299.283
298.739
298.776
298.362
298.71
299.004
299.075
299.097
299.302
299.35
301.276
300.731
300.678
300.127
300.142
299.304
299.35
299.08
299.303
298.75
298.936
299.017
299.124
299.24
299.121
299.223
299.453
299.427
301.321
300.897
300.728
300.139
300.12
299.708
299.685
299.329
299.397
299.18
299.269
299.315
299.225
299.39
299.421
299.47
299.617
299.347
301.264
300.978
300.82
300.398
300.294
300.052
300.018
299.756
299.674
299.508
299.578
299.61
299.552
299.677
299.676
299.783
299.964
299.531
301.191
301.018
300.932
300.658
300.469
300.291
300.267
300.154
299.937
299.836
299.956
299.957
299.996
300.11
300.064
300.202
300.305
299.47
301.153
301.084
301.066
300.911
300.736
300.633
300.625
300.51
300.257
300.279
300.367
300.294
300.4
300.395
300.331
300.469
300.448
299.282
300.962
301.043
301.12
300.997
300.86
300.824
300.837
300.678
300.518
300.682
300.682
300.591
300.726
300.605
300.589
300.685
300.59
299.27
300.769
300.933
301.04
300.961
300.92
300.912
300.875
300.677
300.655
300.77
300.64
300.672
300.721
300.613
300.715
300.697
300.703
299.042
300.467
300.602
300.648
300.617
300.6
300.535
300.484
300.393
300.468
300.403
300.314
300.395
300.29
300.322
300.359
300.293
300.373
298.8
299.958
299.984
300.142
300.156
300.039
299.912
299.894
299.868
299.859
299.774
299.789
299.704
299.658
299.7
299.62
299.702
299.637
298.687
299.432
299.363
299.732
299.525
299.371
299.316
299.276
299.124
299.092
299.178
299.001
298.944
298.923
298.762
298.841
298.813
298.763
298.455
298.96
299.032
299.245
298.702
298.768
298.762
298.628
298.339
298.429
298.471
298.098
298.274
298.053
297.991
298.118
297.995
298.092
298.092
298.903
298.815
298.321
298.147
298.173
298.185
298.245
297.695
297.865
297.89
297.358
297.678
297.377
297.275
297.488
297.256
297.41
297.835
298.93
298.472
297.538
298.082
297.85
297.641
297.669
297.121
297.294
297.132
296.81
297.126
296.786
296.783
296.989
296.625
296.935
297.791
298.447
298.163
297.38
297.77
297.874
296.995
296.942
297.192
296.647
296.591
296.845
296.364
296.555
296.536
296.289
296.546
296.278
297.95
298.067
297.988
297.629
297.395
297.46
296.759
296.752
296.941
296.221
296.392
296.425
295.913
296.248
296.07
295.904
296.226
295.875
297.829
297.968
297.687
297.506
297.224
296.908
296.86
296.645
296.421
296.313
296.17
296.088
295.949
295.915
295.881
295.766
295.84
295.756
297.778
297.9
297.68
297.359
297.122
296.914
296.656
296.44
296.282
296.137
296.007
295.918
295.835
295.763
295.72
295.679
295.639
295.62
297.687
297.825
297.595
297.307
297.053
296.798
296.544
296.325
296.143
296.005
295.897
295.817
295.745
295.688
295.629
295.579
295.526
295.484
297.633
297.731
297.526
297.255
297.008
296.763
296.541
296.367
296.239
296.146
296.068
296.003
295.942
295.89
295.845
295.815
295.784
295.787
297.678
297.67
297.644
297.553
297.448
297.346
297.265
297.202
297.154
297.115
297.082
297.053
297.03
297.012
297.001
296.994
296.995
296.974
296.197
291.234
292.446
291.939
291.797
291.531
291.395
291.179
290.983
290.972
291.184
291.158
290.685
290.648
291.086
291.109
291.094
291.285
291.334
291.434
291.701
291.82
292.145
292.666
292.946
293.767
294.853
295.902
297.332
297.573
296.436
295.23
293.994
292.806
291.971
292.173
293.359
293.763
292.877
293.084
295.678
299.068
301.364
302.832
303.897
304.511
304.607
304.409
304.157
303.917
303.68
303.426
303.175
302.927
302.682
302.447
302.219
302.01
301.804
301.613
301.313
300.912
300.43
299.879
299.386
298.93
298.505
298.071
297.709
297.438
297.221
297.031
296.846
296.691
296.599
296.591
296.62
296.633
296.611
296.538
296.458
296.409
296.307
295.961
295.125
293.814
292.479
291.599
290.967
290.218
289.746
289.481
289.042
288.432
286.999
285.809
285.318
285.068
284.864
285.107
286.313
287.86
288.181
288.321
289.862
290.354
289.63
286.133
278.075
270.707
271.301
275.534
280.725
286.913
291.453
294.625
296.093
297.005
298.778
296.236
294.594
295.549
295.46
296.034
295.109
292.805
291.202
290.709
290.967
290.275
287.708
284.034
291.446
291.614
291.281
290.015
287.156
288.432
293.714
297.555
293.403
292.55
288.958
285.367
283.548
282.76
280.919
279.494
278.379
276.92
276.041
273.95
273.122
272.372
272.342
269.032
269.441
265.965
266.239
262.471
260.526
255.977
257.572
267.307
276.976
267.191
263.944
262.669
261.852
265.268
270.528
272.668
273.097
274.938
277.148
280.048
283.836
287.136
289.306
289.553
297.886
291.511
292.837
293.252
292.594
291.913
291.735
291.58
291.458
291.359
291.757
292.538
291.427
290.24
291.738
291.844
291.517
291.981
291.273
291.867
291.148
290.509
291.282
289.246
289.994
291.272
287.677
289.585
294.225
291.377
289.98
291.975
290.648
284.922
277.92
274.435
276.949
284.622
287.207
280.576
279.6
290.456
300.625
303.193
302.74
302.089
301.356
300.585
299.818
299.069
298.353
297.658
296.995
296.379
295.727
294.994
294.134
293.2
292.324
291.709
291.3
291.131
291.132
291.226
291.361
291.414
291.462
291.533
291.771
292.219
292.898
293.69
294.598
295.598
296.7
297.792
298.687
299.333
299.846
300.229
300.556
300.893
300.75
299.674
297.277
293.906
290.176
286.36
282.661
279.762
280.582
277.965
275.811
273.839
272.263
272.429
273.886
275.092
276.02
275.711
276.349
276.788
272.5
271.961
277
272.884
270.33
275.996
268.808
253.161
251.419
259.753
263.711
272.441
284.847
289.045
289.01
287.349
287.363
287.817
284.802
288.975
293.591
292.291
287.688
281.78
282.057
283.522
283.663
280.319
277.976
271.313
282.775
289.937
288.494
283.675
277.794
281.872
297.53
300.606
289.092
295.798
294.931
288.528
282.904
279.201
272.658
267.031
264.564
261.332
260.293
256.233
252.642
249.579
250.669
245.534
248.779
241.159
240.82
234.907
227.635
226.094
242.56
264.16
260.71
241.037
242.065
240.098
238.904
238.656
245.004
246.023
244.35
248.384
253.871
260.992
269.616
277.027
280.406
278.134
300.959
295.561
296.078
295.438
294.276
293.9
294.266
294.814
296.082
297.391
296.684
296.634
296.794
294.002
295.797
298.137
294.547
296.186
296.208
293.381
295.763
293.608
292.958
295.42
291.536
292.601
296.875
290.244
283.725
290.071
293.41
286.909
286.343
287.465
285.1
283.663
282.934
285.952
293.218
298.016
299.72
300.68
300.566
299.646
298.565
297.471
296.362
295.259
294.237
293.336
292.748
292.564
292.647
292.651
292.159
291.184
290.173
289.627
289.7
290.353
291.486
292.878
294.215
295.275
296.042
296.627
297.225
297.855
298.736
299.917
301.145
302.072
302.733
303.297
303.9
304.624
305.205
305.665
306.144
306.496
306.712
306.61
306.282
305.483
304.39
303.174
300.746
297.17
294.108
292.733
294.316
289.927
285.63
281.757
281.146
284.867
290.405
294.316
295.541
295.33
292.785
291.907
289.356
281.734
278.154
269.498
264.621
273.224
269.762
261.601
265.295
274.842
280.126
285.212
288.045
287.413
287.933
291.08
292.24
288.046
284.86
291.192
292.568
287.822
285.219
282.198
281.843
284.735
280.052
276.063
283.677
281.578
277.408
290.702
286.492
282.188
277.269
268.961
300.957
282.123
272.391
284.455
284.83
286.816
297.651
295.629
278.618
267.51
261.797
257.977
256.899
251.18
245.769
241.916
241.158
236.452
239.046
233.915
233.535
223.817
213.845
228.995
252.751
269.786
254.697
221.062
229.335
234.324
241.218
237.153
234.713
230.372
226.304
231.776
242.348
255.305
267.038
274.458
273.877
268.237
303.095
299.127
296.913
294.585
293.977
295.382
297.154
298.341
299.444
301.499
301.325
298.247
297.511
297.385
296.972
298.394
294.734
293.262
293.447
288.952
290.329
290.679
288.105
293.094
293.442
288.735
292.592
300.698
301.42
291.501
285.909
293.923
294.2
279.62
275.686
286.954
297.664
299.521
299.716
300.079
299.912
299.468
298.785
298.33
298.091
297.883
297.502
296.715
295.459
293.972
292.648
292.011
292.285
293.358
294.685
295.621
295.877
295.509
294.866
294.475
294.799
295.981
297.428
298.137
297.926
297.385
297.224
297.389
297.686
298.068
298.468
298.634
298.427
297.977
297.452
297.034
296.618
296.254
296.088
296.094
296.392
296.644
297.204
298.354
299.851
302.199
303.741
303.879
303.837
303.075
303.294
301.617
297.677
296.595
296.295
299.164
305.318
312.173
310.174
306.004
299.611
294.763
300
297.649
288.568
283.06
273.119
271.808
272.439
266.166
263.761
271.521
280.02
282.426
284.294
287.081
289.768
292.546
289.234
285.798
289.477
294.413
290.871
287.239
287.953
284.744
284.303
290.25
283.047
281.503
290.642
286.586
277.898
285.263
286.7
285.614
263.558
253.018
300.466
283.061
281.151
301.805
281.99
272.221
314.705
317.47
285.911
272.091
262.993
261.948
262.515
250.173
246.261
245.268
239.287
240.366
240.537
227.991
231.974
227.138
207.43
224.704
251.816
251.353
244.555
218.096
212.529
213.687
230.367
243.397
232.65
222.691
219.471
226.658
240.641
256.792
267.337
270.957
266.048
260.566
303.758
299.497
295.534
295.195
297.099
299.244
300.907
302.027
302.441
302.879
303.229
302.152
299.941
299.821
299.815
297.755
292.421
289.162
286.893
282.428
285.001
287.373
281.13
282.83
291.011
291.36
290.448
291.833
290.873
292.326
296.707
289.939
280.399
286.066
297.581
301.505
301.853
302.205
302.298
302.017
301.663
301.272
300.96
300.609
300.26
299.824
299.183
298.381
297.211
295.772
294.157
292.698
291.809
291.766
292.607
294.137
295.93
297.652
298.939
299.38
299.119
298.864
299.033
299.304
299.354
299.225
299.02
298.781
298.424
298.162
298.142
298.224
298.174
298.019
298.19
298.664
299.256
299.709
300.013
299.997
299.732
299.501
299.382
300.195
300.465
301.281
303.273
304.965
306.428
306.499
305.92
305.422
302.807
303.236
301.629
303.783
310.565
320.244
314.077
305.533
300.753
296.71
295.691
291.782
286.253
287.601
279.389
280.902
280.378
271.983
273.89
278.529
280.556
279.946
284.486
287.874
287.579
286.344
281.126
282.404
287.161
285.109
283.774
290.396
290.153
282.913
292.127
300.021
291.744
288.747
293.462
289.294
280.273
277.912
281.912
277.536
265.231
285.674
294.473
290.829
288.029
311.097
287.778
269.448
325.242
322.443
288.017
275.372
263.336
270.162
272.82
250.78
249.83
253.855
243.308
258.203
248.299
240.9
218.527
240.118
218.954
220.795
255.734
232.9
224.839
252.256
257.499
225.796
223.757
246.654
235.043
220.038
218.463
227.968
243.657
260.697
268.189
267.355
261.194
259.063
303.737
298.737
296.051
297.438
298.957
300.642
302.445
303.532
303.701
303.976
304.365
303.375
302.031
300.828
299.018
295.86
288.835
283.149
284.202
288.706
289.557
284.245
278.761
280.549
283.259
282.728
286.619
294.637
299.841
297.205
288.143
283.789
290.332
298.964
301.913
302.976
303.706
304.072
304.103
303.838
303.432
302.912
302.49
302.211
302.045
301.932
301.528
300.765
299.523
297.779
295.818
293.905
292.488
291.793
291.922
293.021
295.246
298.277
301.158
302.829
302.779
301.528
300.169
299.347
299.111
299.232
299.391
299.207
298.576
297.974
297.695
297.689
297.706
297.516
297.463
297.677
298.098
298.631
299.459
300.405
301.01
301.619
301.103
301.084
300.003
298.941
297.76
298.837
301.284
304.692
305.34
306.474
306.478
307.556
307.784
309.916
309.844
319.047
310.604
295.437
289.446
291.809
287.54
284.275
292.176
293.458
284.648
289.725
283.648
276.703
278.206
276.057
277.604
279.701
284.42
287.057
286.112
286.301
284.45
288.803
292.399
290.649
297.1
304.375
298.75
297.19
311.651
309.692
300.613
298.936
301.952
293.859
281.417
274.9
274.602
272.262
291.199
296.922
296.264
301.951
287.46
293.235
271.071
264.741
306.152
306.554
288.97
282.756
269.328
279.929
279.559
251.302
252.447
262.69
242.185
277.283
248.516
268.547
215.704
238.383
234.206
226.012
248.269
236.618
218.682
244.562
274.721
246.55
236.15
253.958
240.285
220.331
219.912
231.381
247.62
264.135
269.328
266.047
261.258
263.126
303.905
299.265
297.429
298.136
300.816
303.263
304.555
304.961
304.788
302.99
303.545
303.42
301.871
300.363
298.104
294.739
289.35
287.397
289.934
294.326
296.051
294.846
292.892
292.086
291.493
292.544
295.288
295.833
291.587
285.665
285.034
291.999
299.68
303.458
305.113
306.159
306.831
307.129
307.374
307.486
307.627
307.717
307.578
307.198
306.352
304.934
303.113
301.143
299.461
298.48
298.291
298.613
298.986
299.08
299.027
299.307
300.151
301.185
301.831
301.798
301.163
300.122
299.039
298.172
297.554
296.977
296.425
295.942
295.378
295.057
295.237
295.684
296.119
296.482
296.896
297.362
297.948
297.998
297.699
298.149
297.976
299.541
299.524
301.588
301.595
302.165
300.024
298.782
297.131
297.45
300.157
302.024
304.462
305.706
307.931
305.521
295.494
306.41
302.912
288.986
279.782
279.016
276.405
276.166
287.032
282.276
277.3
290.176
284.367
277.81
276.753
271.987
274.831
279.705
284.169
288.491
288.676
288.911
289.926
297.679
302.998
302.093
308.501
313.093
314.571
319.294
323.759
310.025
304.635
305.806
302.981
297.695
288.567
277.586
269.574
266.785
294.812
287.184
297.704
296.666
295.276
301.254
284.674
271.93
278.32
288.887
282.585
285.023
274.669
285.234
284.789
254.62
248.901
264.014
238.688
271.62
246.183
277.399
226.384
227.391
232.466
236.39
237.636
247.03
221.948
236.149
260.059
254.468
239.785
259.699
246.877
222.263
222.218
235.131
251.512
267.065
270.319
266.476
263.915
266.7
304.238
300.33
298.649
300.477
303.888
304.889
304.233
303.108
303.677
303.062
302.17
302.223
302.46
301.21
298.79
295.43
289.748
285.762
285.396
288.245
290.581
291.797
292.658
293.797
294.165
293.19
290.617
287.148
285.197
288.298
295.871
302.823
305.947
306.87
306.832
306.373
305.745
305.095
304.684
304.637
304.73
304.919
305.081
305.312
305.67
306.147
306.572
306.83
306.725
305.994
304.59
302.951
301.6
301.137
301.453
301.817
301.628
301.182
300.727
300.263
299.503
298.708
298.003
297.188
296.187
295.685
295.906
296.462
297.202
298.002
298.994
300.12
301.174
302.009
302.454
302.275
302.552
302.491
301.861
301.843
300.517
300.089
297.845
298.456
296.925
297.675
299.119
300.097
302.072
300.666
300.023
299.695
300.164
298.168
299.321
298.63
289.532
303.401
311.855
302.617
294.63
289.927
285.895
282.857
285.192
275.689
275.702
290.983
282.587
276.852
277.126
273.309
275.396
279.886
284.968
291.375
289.688
288.131
293.045
303.611
309.603
308.668
311.364
311.369
309.816
309.52
311.529
301.952
299.575
302.341
301.153
299.782
292.738
285.196
280.521
283.311
285.542
283.265
295.232
293.745
289.242
284.304
284.158
272.081
268.977
290.173
280.765
284.136
273.936
280.801
292.416
262.994
244.254
264.083
237.859
264.111
247.393
280.44
242.446
224.843
223.676
238.677
243.279
244.484
221.237
236.349
248.698
245.077
238.441
263.125
250.681
224.17
225.435
239.006
254.755
268.97
271.267
267.199
265.057
266.619
304.618
301.71
301.379
304.132
305.143
304.436
303.197
302.862
302.628
303.217
303.882
303.365
302.617
300.493
297.21
294.444
291.332
287.655
284.795
284.826
286.76
287.418
287.198
286.762
286.637
285.957
285.895
287.832
292.873
299.153
303.475
304.869
304.266
303.144
301.685
300.122
298.685
297.876
297.427
297.435
297.741
298.196
298.598
298.892
298.997
299.171
299.58
300.544
301.873
303.413
304.591
305.162
305.122
304.671
303.936
303.035
302.059
301.128
299.934
298.788
297.978
297.463
296.78
295.856
295.366
295.688
296.785
298.117
299.519
301.161
302.85
304.028
304.269
304.304
304.117
303.092
302.558
301.835
302.356
302.414
303.778
303.558
304.312
305.063
304.494
302.714
301.687
298.843
300.079
300.369
300.902
299.332
298.706
297.375
298.595
307.032
296.733
296.307
311.411
306.193
297.283
292.831
288.765
286.529
285.255
275.886
280.589
288.675
277.109
276.96
278.565
274.921
277.281
281.097
285.13
290.909
288.438
290.134
297.111
306.914
312.27
315.276
318.355
320.673
318.291
310.568
308.248
305.843
299.122
294.866
291.757
289.762
297.416
299.885
291.003
284.175
284.181
286.595
298.508
303.684
289.786
288.11
280.659
262.395
267.314
290.992
286.414
289.484
276.554
277.532
289.667
265.903
245.005
276.108
244.98
264.287
249.39
283.004
261.041
233.989
224.609
230.993
250.116
250.426
223.131
232.512
250.114
244.733
239.276
266.353
254.757
226.196
228.361
242.255
257.727
270.957
271.282
266.89
264.12
264.265
305.097
303.596
304.459
304.768
303.991
303.428
301.811
302.454
302.13
302.609
303.331
303.148
302.525
300.806
297.194
293.502
291.734
289.566
287.614
286.628
287.04
286.546
285.441
284.712
285.457
287.585
291.363
296.049
300.714
303.413
304.114
303.557
302.387
300.839
299.103
297.652
296.781
296.183
295.65
295.296
295.252
295.412
295.698
296.189
296.748
297.205
297.241
296.834
296.252
295.872
295.975
296.532
297.27
297.905
298.436
298.831
298.994
298.976
298.739
298.058
297.019
295.847
295.085
294.741
294.922
296.001
297.886
299.805
301.702
303.28
303.225
301.321
298.871
296.964
295.337
293.481
292.39
291.05
292.539
292.236
294.409
294.271
297.36
298.078
301.304
304.194
307.781
308.445
308.381
305.265
303.512
301.921
302.107
302.967
299.291
307.006
299.889
289.999
306.017
305.912
294.061
286.731
281.763
282.078
280.528
275.423
281.056
280.069
270.793
277.949
279.992
275.507
278.973
284.791
286.002
289.697
292.529
298.841
301.937
304.884
307.445
316.807
323.848
328.332
329.901
327.458
320.718
315.342
311.117
302.808
292.377
287.895
290.467
297.509
298.784
278.536
274.141
291.139
303.189
302.737
290.083
293.159
284.584
264.331
273.07
281.108
285.875
288.467
281.467
288.349
284.02
265.51
256.432
292.276
262.33
273.956
252.172
280.374
285.19
245.629
234.036
225.396
243.583
259.457
232.332
233.975
252.511
242.594
239.303
267.91
259.296
228.913
231.804
245.29
259.472
272.505
270.763
264.776
262.521
264.349
305.275
304.462
304.563
303.822
303.257
302.512
300.452
301.333
300.916
301.346
302.437
303.008
302.4
299.674
296.619
294.477
293.212
291.245
289.268
287.831
287.387
287.775
288.686
290.791
293.785
297.442
300.757
303.304
304.384
304.097
302.833
300.982
298.656
296.359
294.746
293.825
293.372
293.23
293.638
294.275
294.677
294.719
294.708
294.665
294.931
295.569
296.718
298.134
299.43
299.75
298.618
296.643
295.029
294.008
293.186
292.778
292.416
292.153
292.233
292.519
292.437
291.984
292.256
293.19
294.59
296.938
299.619
301.844
302.376
300.817
297.474
292.886
289.325
287.298
286.275
285.589
285.751
285.296
286.29
286.481
287.291
287.529
288.545
289.227
289.942
291.605
293.519
298.74
304.427
309.417
309.57
307.227
306.311
307.31
293.099
294.292
303.355
293.147
304.621
312.636
303.92
294.422
286.86
284.911
281.222
276.525
275.259
272.06
269.66
279.321
280.906
275.559
278.268
288.235
291.714
292.759
298.97
306.868
306.539
305.982
306.641
317.054
326.187
329.516
328.371
328.823
325.202
311.623
305.56
314.536
313.178
295.01
284.91
291.509
304.097
286.298
283.208
298.97
297.665
292.173
287.609
289.793
290.852
268.561
281.355
278.714
289.422
281.718
285.727
296.098
281.299
269.573
277.297
297.502
279.599
291.44
268.623
277.592
310.602
264.954
244.854
225.712
235.619
254.887
241.402
234.111
256.419
252.939
243.258
266.066
260.742
231.366
235.404
248.616
260.071
272.619
271.44
264.708
261.871
267.072
305.057
304.259
303.729
303.255
302.127
300.34
298.857
299.192
299.524
299.33
299.827
299.756
300.805
299.041
295.693
294.806
294.552
293.024
291.442
290.505
290.978
292.212
294.261
296.915
299.478
301.663
302.9
303.335
302.568
301.119
299.211
297.051
294.989
293.778
293.537
294.011
294.722
295.545
296.073
296.263
296.531
297.245
298.212
298.892
299.218
299.094
298.83
298.891
299.773
301.339
302.934
303.373
301.901
298.958
295.897
294.305
293.239
292.567
292.059
291.253
290.811
291.835
293.044
295.163
297.801
300.122
301.987
301.752
298.931
294.296
289.448
284.842
283.148
284.074
285.961
287.793
289.892
291.222
291.451
291.485
290.719
290.54
287.939
288.904
287.601
290.484
288.995
290.437
290.923
296.637
303.802
310.282
310.662
315.687
304.22
296.611
308.6
294.596
294.652
306.245
301.913
294.405
286.535
284.504
282.496
275.212
272.215
265.98
275.933
282.953
282.156
277.092
277.442
287.213
293.925
295.697
303.972
312.574
310.204
309.772
310.541
316.216
322.019
324.948
323.707
322.681
320.844
308.273
288.641
293.938
307.575
297.774
283.978
290.937
306.418
294.633
289.608
297.364
295.556
285.883
289.25
296.252
302.266
275.376
284.434
278.499
298.49
280.992
287.507
289.504
278.797
273.631
290.951
290.653
284.937
296.615
292.404
281.44
316.647
291.177
263.69
231.671
233.289
249.011
242.257
236.742
253.974
255.485
245.429
268.493
264.478
234.122
238.703
252.175
260.91
272.605
272.502
265.447
262.702
273.136
304.75
303.995
303.518
302.014
299.797
298.462
298.39
298.129
299.193
298.461
298.81
297.268
297.502
297.663
295.908
295.572
296.079
295.54
295.276
295.658
297.399
298.758
300.721
302.158
303.308
303.42
302.966
301.567
299.813
297.768
295.754
293.932
293.091
293.297
293.86
294.252
294.369
294.751
295.727
297.096
298.578
299.706
300.367
300.867
301.18
301.287
301.366
301.409
301.776
302.394
303.09
303.65
303.863
304.418
304.685
303.108
299.129
295.376
292.844
292.263
293.595
294.668
296.283
298.915
300.681
301.989
301.279
297.852
292.412
287.103
284.104
283.347
286.005
290.094
293.839
296.914
298.615
299.324
299.447
299.549
298.674
298.29
295.143
294.906
290.91
290.217
289.318
289.655
290.388
288.589
288.128
298.511
301.035
310.945
319.632
303.25
304.502
296.048
292.05
305.134
305.81
298.085
288.745
284.455
283.957
277.043
272.455
264.547
279.216
286.906
282.633
279.029
278.04
286.109
294.135
297.787
306.72
314.279
311.901
313.141
315.693
315.054
318.438
322.092
322.51
325.205
323.142
318.177
304.841
293.891
301.275
297.74
281.477
283.334
307.207
304.675
289.256
292.993
297.809
292.272
298.227
302.075
299.306
288.691
293.603
279.692
305.157
282.123
291.012
284.822
278.938
273.445
287.144
285.427
287.758
293.588
304.202
296.982
305.435
303.816
288.607
244.546
237.407
248.118
243.258
239.828
252.558
259.244
250.031
269.611
266.913
236.404
241.913
255.86
261.703
272.008
273.842
268.26
264.156
274.849
304.345
303.499
302.363
300.262
298.51
298.904
298.964
298.155
298.945
299.277
299.037
298.478
296.487
295.953
296.382
297.245
297.184
297.693
298.416
299.323
301.115
302.089
303.239
303.457
303.278
302.141
300.871
299.074
297.189
295.27
293.735
292.929
293.336
294.323
295.228
296.29
297.781
299.657
300.937
301.549
301.982
302.471
303.151
303.853
304.154
304.145
303.875
303.642
303.354
303.094
302.924
302.736
302.621
302.479
302.51
302.879
303.847
304.578
301.671
296.987
295.176
296.717
298.311
300.382
301.698
301.45
298.301
292.956
287.954
284.929
284.42
287.057
291.852
296.221
299.094
300.334
299.899
298.723
297.799
298.537
299.804
299.99
299.041
296.527
296.624
293.518
294.007
289.494
291.55
295.631
290.24
292.926
296.059
295.991
313.051
303.023
300.865
302.351
292.659
299.796
308.135
301.507
292.573
284.065
286.379
281.746
268.84
271.741
276.294
286.757
283.08
280.444
278.539
286.001
293.516
297.567
305.883
313.17
312.697
313.659
319.525
319.961
319.954
320.198
317.12
318.985
323.208
310.915
307.676
299.414
299.927
291.209
281.734
277.785
302.169
306.501
295.4
295.795
295.736
297.686
306.28
306.733
294.857
296.597
295.272
284.243
300.591
279.626
300.349
290.657
279.636
267.967
277.088
282.89
291.208
294.03
309.231
311.41
295.319
297.882
307.37
264.648
245.61
248.579
248.498
243.27
251.446
262.891
254.923
271.414
269.075
239.226
245.624
260.773
263.145
271.419
274.381
270.031
265.821
269.05
303.913
302.983
301.557
299.194
298.099
299.514
299.564
298.382
297.579
298.875
298.027
300.313
298.53
296.71
297.56
298.801
298.919
299.707
300.707
301.787
302.48
302.937
302.776
302.117
300.795
299.177
297.315
295.452
293.722
292.615
292.334
293.249
294.919
296.528
297.789
299.417
301.96
304.623
305.875
306.072
305.702
305.022
304.162
303.297
302.344
301.715
301.239
300.891
300.438
300.456
300.619
300.277
300.343
300.88
302.031
303.079
302.663
301.67
301.786
303.613
301.52
299.07
299.765
300.881
301.03
299.545
295.955
291.098
286.868
285.149
286.268
289.876
294.288
298.462
300.285
299.163
296.572
294.45
293.542
291.692
296.209
297.315
301.439
297.641
297.497
292.648
293.498
291.67
287.124
290.606
293.604
290.592
300.69
293.638
304.248
308.118
301.706
309.862
298.07
294.357
306.195
304.447
295.897
285.367
289.261
279.021
268.667
276.457
279.283
285.256
284.064
281.856
279.392
284.916
292.236
295.231
303.18
313.087
316.927
317.1
315.973
320.036
323.288
322.576
317.756
306.012
301.145
293.615
302.479
298.2
294.798
286.299
281.99
285.064
306.471
306.973
300.055
299.995
296.825
301.098
306.588
305.926
295.362
294.805
291.594
290.601
292.546
280.195
302.446
296.582
283.847
273.071
278.949
286.085
296.111
298.259
312.522
307.254
285.651
286.432
309.824
281.896
255.577
250.073
253.28
245.374
250.176
264.692
258.744
272.891
270.493
241.11
249.425
266.6
265.351
270.904
275.15
266.876
263.664
265.299
303.469
302.521
300.767
298.027
297.972
300.298
299.894
297.357
297.095
296.558
297.02
298.066
297.445
296.352
297.874
299.507
300.14
301.029
301.627
302.927
302.971
303.028
302.237
301.15
299.347
297.511
295.748
294.159
292.889
292.372
292.245
293.027
294.236
295.382
297.055
299.663
301.942
302.494
301.997
301.4
300.22
298.828
297.714
296.956
296.158
294.836
293.569
292.45
291.37
291.03
291.198
291.475
292.119
293.377
294.197
295.38
298.05
300.9
300.245
299.243
300.998
302.003
301.939
301.871
301.565
299.927
296.584
292.54
288.515
287.114
287.92
289.999
294.481
298.337
298.238
297.696
298.148
294.916
295.553
292.18
293.015
294.497
299.29
298.399
296.482
296.859
294.212
294.52
291.124
284.73
292.845
287.485
296.353
295.103
295.836
308.957
297.731
306.525
304.747
294.336
302.214
307.403
299.069
289.118
287.935
275.979
275.785
273.893
283.66
286.335
286.24
284.76
282.238
284.395
291.648
294.609
304.926
315.432
318.717
320.05
312.286
310.703
318.952
324.516
324.848
312.11
294.564
292.124
301.144
304.768
298.315
286.622
284.737
294.823
314.45
311.195
298.765
300.385
301.224
308.663
308.779
304.156
298.234
297.976
292.176
291.444
291.872
288.187
296.826
293.08
289.295
289.866
288.069
290.482
298.246
301.436
311.476
295.811
283.738
285.205
299.869
284.115
267.022
255.141
254.812
245.866
249.976
267.056
262.256
273.539
270.656
242.9
253.073
271.825
269.229
272.064
275.897
269.61
266.237
270.052
303.049
302.197
300.35
297.93
297.65
299.278
298.534
297.25
298.299
296.957
297.809
298.087
296.858
296.604
298.567
299.822
300.7
302.279
302.37
303.446
303.314
302.757
301.621
300.036
298.244
296.207
294.61
293.222
292.087
291.917
292.256
293.022
293.576
293.967
294.986
296.147
296.378
295.975
295.737
295.34
293.761
291.211
289.475
290.141
290.254
287.413
285.18
284.51
284.198
284.272
284.899
285.455
285.079
285.075
286.262
287.322
288.328
290.217
293.665
295.952
296.679
297.145
298.316
301.174
303.484
303.563
300.974
295.949
291.206
288.149
287.086
290.308
293.408
294.678
297.751
297.106
297.717
297.417
297.147
299.137
297.204
295.84
295.396
301.288
295.426
293.426
289.424
289.691
296.409
287.48
289.304
288.774
291.041
298.454
292.003
306.885
301.352
300.395
308.884
298.588
298.586
309.302
302.748
294.718
284.328
284.502
280.46
274.528
284.395
287.206
288.338
288.846
290.465
289.213
294.806
299.035
309.554
316.506
316.365
318.982
315.346
309.452
311.511
320.853
323.015
307.219
295.6
297.473
305.3
304.384
290.742
280.811
289.977
306.529
314.829
309.025
298.55
300.221
304.108
313.873
306.185
300.853
298.188
298.295
287.7
284.749
289.226
294.373
295.714
293.231
299.781
298.896
289.348
292.27
298.072
301.177
306.414
289.281
295.14
295.414
288.615
281.941
285.567
267.135
257.658
248.853
252.994
270.853
265.733
273.416
269.751
243.956
257.112
276.021
273.143
275.176
277.181
273.239
271.829
286.416
302.604
301.84
300.487
297.804
294.962
295.057
296.082
296.348
297.876
298.21
297.134
297.641
296.977
297.63
298.897
299.52
300.048
301.928
302.38
303.17
303.264
302.495
301.439
299.576
297.678
295.364
293.439
291.837
290.513
289.912
289.911
290.654
291.475
291.764
292.114
292.904
292.963
292.707
292.418
291.109
289.326
288.733
287.978
286.359
285.837
286.764
287.535
287.469
287.37
288.08
289.897
291.093
291.468
290.688
288.727
286.514
286.004
285.839
284.527
285.139
287.684
289.799
292.001
294.642
296.221
299.245
303.155
303.36
298.784
294.458
291.077
288.759
290.256
290.737
291.563
293.914
294.615
294.055
290.423
294.418
294.4
299.349
293.942
294.302
294.774
294.796
295.366
289.368
288.644
289.463
285.072
290.594
286.267
298.254
291.777
297.417
305.643