/*--------------------------------*- C++ -*----------------------------------*\
| =========                 |                                                 |
| \\      /  F ield         | OpenFOAM: The Open Source CFD Toolbox           |
|  \\    /   O peration     | Version:  dev                                   |
|   \\  /    A nd           | Web:      http://www.openfoam.org               |
|    \\/     M anipulation  |                                                 |
\*---------------------------------------------------------------------------*/
FoamFile
{
    version     2.0;
    format      ascii;
    class       volVectorField;
    object      U_0;
    location    "9.14";
}
// * * * * * * * * * * * * * * * * * * * * * * * * * * * * * * * * * * * * * //

dimensions      [0 1 -1 0 0 0 0];

internalField   nonuniform List<vector> 
12225
(
(8.06488 0.717653 0)
(7.18995 0.470471 0)
(7.04725 0.291157 0)
(8.87873 0.241393 0)
(9.37369 0.261259 0)
(11.8701 0.210491 0)
(12.0412 0.269791 0)
(14.8532 0.172651 0)
(14.905 0.268355 0)
(17.7277 0.11004 0)
(17.4616 0.270919 0)
(20.8509 0.0137179 0)
(20.4544 0.280237 0)
(23.9907 -0.0602572 0)
(26.461 -0.447071 0)
(28.3989 2.44328 0)
(37.6868 -7.25143 0)
(37.9373 5.045 0)
(10.3129 1.97326 0)
(12.3906 1.72512 0)
(11.2224 1.28534 0)
(14.2314 1.0035 0)
(12.2078 0.93877 0)
(16.5832 0.786316 0)
(13.8114 0.803775 0)
(19.691 0.563386 0)
(16.4347 0.745503 0)
(22.9643 0.42523 0)
(18.8863 0.543165 0)
(27.1528 0.0248173 0)
(22.28 0.604822 0)
(32.469 -1.54558 0)
(27.7121 0.999987 0)
(42.6802 -3.88399 0)
(32.8949 -2.16801 0)
(58.6643 -9.98319 0)
(9.75178 2.36715 0)
(15.1196 2.40788 0)
(12.549 2.07666 0)
(18.4342 1.81319 0)
(14.3286 1.78307 0)
(21.0815 1.60464 0)
(15.5194 1.45139 0)
(24.1559 1.09786 0)
(18.1282 1.27254 0)
(27.2616 0.758382 0)
(21.8576 0.976809 0)
(29.8313 -0.0660763 0)
(27.2256 0.744673 0)
(31.8141 -1.50045 0)
(34.7707 -0.797794 0)
(37.425 -2.12157 0)
(41.0519 -8.0569 0)
(51.2928 -19.7189 0)
(7.95711 2.94991 0)
(17.2652 3.15812 0)
(11.7043 2.78109 0)
(20.7435 2.5089 0)
(15.2745 2.55329 0)
(23.9807 2.34158 0)
(17.7177 2.25996 0)
(26.6838 1.46115 0)
(20.2345 2.10184 0)
(29.5278 0.544326 0)
(24.6529 2.02266 0)
(31.9197 -0.829625 0)
(27.5215 1.96691 0)
(34.5674 -3.43762 0)
(33.5742 -0.0693177 0)
(39.8121 -5.06723 0)
(37.2516 -10.8258 0)
(42.9422 -12.2282 0)
(6.09507 3.82997 0)
(17.1558 3.54628 0)
(13.2396 3.80459 0)
(20.5306 2.89675 0)
(16.1288 3.49406 0)
(23.9162 2.90039 0)
(20.4204 3.25586 0)
(26.0669 2.17921 0)
(21.9912 2.84022 0)
(28.1928 0.775641 0)
(26.1068 2.56124 0)
(31.0933 0.36118 0)
(26.385 2.52292 0)
(33.975 -3.11964 0)
(27.6239 0.999641 0)
(38.7885 -6.42013 0)
(28.5597 -10.4465 0)
(34.0531 -17.0719 0)
(8.82549 4.93076 0)
(13.0436 3.40875 0)
(14.6249 4.46075 0)
(16.7938 3.97158 0)
(16.9141 4.14392 0)
(21.4529 3.14504 0)
(21.9875 3.96823 0)
(22.9881 3.1483 0)
(23.7982 3.61452 0)
(25.0367 1.02051 0)
(26.9534 2.96674 0)
(28.0519 1.37331 0)
(29.5504 1.88728 0)
(31.0025 -1.46066 0)
(30.2338 -0.788343 0)
(35.5993 -5.81569 0)
(26.4028 -5.61002 0)
(32.2183 -22.7075 0)
(11.9033 6.26311 0)
(10.7439 4.17933 0)
(14.6217 5.7387 0)
(16.1777 4.44004 0)
(17.4526 5.02648 0)
(19.2558 3.3606 0)
(21.353 5.79385 0)
(22.3881 3.63619 0)
(23.8092 5.0365 0)
(24.3821 0.97857 0)
(28.2522 4.03899 0)
(26.8096 0.986622 0)
(30.751 3.09002 0)
(30.1115 -1.45617 0)
(34.4433 0.889278 0)
(31.6766 -5.54945 0)
(37.4579 -1.54753 0)
(28.192 -25.052 0)
(11.7883 6.86249 0)
(12.4164 5.26208 0)
(14.9014 6.00504 0)
(17.4333 5.56971 0)
(17.6556 6.11674 0)
(19.1688 4.01245 0)
(21.1572 5.81466 0)
(21.9775 4.64479 0)
(23.966 5.43551 0)
(25.4432 1.44519 0)
(26.6185 4.12455 0)
(27.8332 2.27096 0)
(30.3685 2.53525 0)
(29.3377 -1.31088 0)
(31.4948 0.67109 0)
(32.334 -4.52712 0)
(34.839 -4.30223 0)
(25.5021 -14.5254 0)
(11.794 7.78894 0)
(11.8602 5.70577 0)
(14.9061 6.95788 0)
(16.1017 5.96376 0)
(18.8923 7.00189 0)
(19.3961 4.51408 0)
(21.0359 7.18065 0)
(21.4729 4.82014 0)
(24.8316 5.66419 0)
(25.1747 2.29098 0)
(25.6217 5.26701 0)
(27.6034 1.67479 0)
(28.7072 3.66321 0)
(29.7864 -0.411471 0)
(30.4312 0.74612 0)
(30.4722 -4.81869 0)
(29.0994 -1.94764 0)
(28.2796 -9.68234 0)
(12.2345 8.27789 0)
(12.3082 6.99107 0)
(14.9546 7.71773 0)
(15.9123 6.79815 0)
(18.9414 7.61636 0)
(18.9149 5.95282 0)
(20.7056 7.52432 0)
(22.6364 5.76603 0)
(24.3727 6.04166 0)
(24.9119 3.85696 0)
(25.6558 4.75665 0)
(27.386 3.31827 0)
(28.202 3.08877 0)
(29.6367 0.866485 0)
(29.4636 0.638066 0)
(30.4316 -1.6796 0)
(28.2009 -2.47762 0)
(27.9638 -6.06311 0)
(11.0649 9.47678 0)
(12.299 7.58916 0)
(14.8588 8.82272 0)
(16.139 7.42378 0)
(18.3049 8.69017 0)
(19.201 6.72335 0)
(21.0726 8.14011 0)
(22.2514 6.15949 0)
(23.893 7.00774 0)
(24.5575 4.3533 0)
(25.5972 5.7283 0)
(26.7379 3.26903 0)
(27.8465 3.74676 0)
(28.1259 1.31689 0)
(28.397 1.27116 0)
(28.3144 -0.709599 0)
(27.9874 -1.17249 0)
(26.9353 -2.51969 0)
(10.8448 10.1522 0)
(12.4342 8.89484 0)
(14.3331 9.4569 0)
(15.6675 8.74238 0)
(17.5847 9.28242 0)
(18.8013 8.10829 0)
(20.4406 8.68401 0)
(21.8211 7.52592 0)
(23.3146 7.41271 0)
(24.3733 6.13625 0)
(25.0309 5.87466 0)
(26.1467 4.74747 0)
(26.656 4.14497 0)
(27.1893 3.07098 0)
(27.2149 2.20563 0)
(27.1341 0.930297 0)
(26.9627 0.0298953 0)
(26.6403 -0.620206 0)
(10.7941 11.5175 0)
(12.3406 9.9407 0)
(14.0269 10.5299 0)
(15.569 9.78724 0)
(17.3035 10.1997 0)
(18.7215 8.97873 0)
(20.1376 9.34949 0)
(21.4946 8.2546 0)
(22.6925 8.23474 0)
(23.6857 6.86759 0)
(24.5502 6.74977 0)
(25.3069 5.78558 0)
(25.7473 5.02467 0)
(26.0793 4.03675 0)
(26.2594 3.1656 0)
(26.2554 2.33703 0)
(26.0952 1.51708 0)
(25.7869 0.736457 0)
(10.5328 12.6821 0)
(12.4079 11.281 0)
(14.0188 11.2254 0)
(15.6217 10.8921 0)
(17.1918 10.8881 0)
(18.5798 10.3427 0)
(19.8022 10.2313 0)
(20.9618 9.54488 0)
(21.9806 9.06006 0)
(22.8913 8.1996 0)
(23.6304 7.60232 0)
(24.3091 6.79299 0)
(24.8735 5.99091 0)
(25.224 5.2902 0)
(25.3883 4.49796 0)
(25.4349 3.68496 0)
(25.3202 2.91128 0)
(25.1276 2.16242 0)
(10.8598 13.5136 0)
(12.4752 12.3172 0)
(13.9269 12.2878 0)
(15.3354 12.0641 0)
(16.7396 11.8209 0)
(18.1201 11.3224 0)
(19.4127 11.011 0)
(20.6153 10.4824 0)
(21.6065 9.94502 0)
(22.4432 9.19166 0)
(23.1025 8.53512 0)
(23.6282 7.82221 0)
(24.0149 7.05745 0)
(24.2705 6.3842 0)
(24.436 5.65093 0)
(24.4964 4.95213 0)
(24.3918 4.3613 0)
(24.2264 3.68482 0)
(10.8638 14.5312 0)
(12.2662 13.3773 0)
(13.7154 13.094 0)
(15.1573 12.8205 0)
(16.4949 12.4323 0)
(17.7006 11.999 0)
(18.7791 11.6447 0)
(19.8062 11.2264 0)
(20.6862 10.7318 0)
(21.4311 10.1304 0)
(22.0065 9.53714 0)
(22.5205 8.84415 0)
(22.9104 8.12825 0)
(23.1779 7.4815 0)
(23.3556 6.78078 0)
(23.4402 6.13134 0)
(23.4098 5.53575 0)
(23.3492 4.915 0)
(10.4283 15.1571 0)
(12.0192 13.8234 0)
(13.4665 13.4065 0)
(14.8641 13.1927 0)
(16.0737 12.921 0)
(17.1464 12.5946 0)
(18.102 12.2447 0)
(19.0087 11.7948 0)
(19.7977 11.2494 0)
(20.5018 10.6736 0)
(21.0732 10.0784 0)
(21.5782 9.4323 0)
(21.9276 8.81014 0)
(22.1789 8.20723 0)
(22.3292 7.60006 0)
(22.3816 7.04414 0)
(22.3432 6.50182 0)
(22.265 5.97326 0)
(10.7008 14.8644 0)
(12.1029 13.4934 0)
(13.3646 13.2456 0)
(14.5888 13.1295 0)
(15.6812 12.8795 0)
(16.7023 12.5509 0)
(17.6184 12.1482 0)
(18.4671 11.6888 0)
(19.2126 11.1931 0)
(19.8471 10.6828 0)
(20.3163 10.1354 0)
(20.7223 9.58785 0)
(21.004 9.0358 0)
(21.2189 8.5116 0)
(21.3054 8.00707 0)
(21.355 7.52327 0)
(21.3236 7.05562 0)
(21.2441 6.58238 0)
(10.6481 14.2442 0)
(11.8413 12.8381 0)
(13.0327 12.5338 0)
(14.2298 12.3885 0)
(15.3276 12.1373 0)
(16.3136 11.821 0)
(17.1562 11.4647 0)
(17.9291 11.0782 0)
(18.5614 10.679 0)
(19.1066 10.2451 0)
(19.523 9.79909 0)
(19.8619 9.34766 0)
(20.0947 8.87103 0)
(20.2938 8.40075 0)
(20.381 7.93862 0)
(20.4266 7.5058 0)
(20.423 7.07702 0)
(20.3909 6.65088 0)
(10.7443 13.0025 0)
(11.9122 11.6942 0)
(12.9879 11.2931 0)
(14.0546 11.1502 0)
(15.0441 10.9727 0)
(15.9731 10.7556 0)
(16.7712 10.4985 0)
(17.4608 10.1674 0)
(18.0409 9.76833 0)
(18.5447 9.37804 0)
(18.9299 8.99868 0)
(19.2868 8.57409 0)
(19.5313 8.19066 0)
(19.7269 7.80035 0)
(19.8672 7.38623 0)
(19.9288 7.03187 0)
(19.9562 6.64504 0)
(19.9402 6.27288 0)
(10.5805 11.4458 0)
(11.8436 10.3573 0)
(12.8567 9.99474 0)
(13.8164 9.80744 0)
(14.7311 9.61454 0)
(15.6059 9.43466 0)
(16.3585 9.24419 0)
(17.0266 8.97698 0)
(17.5668 8.63055 0)
(18.0344 8.35297 0)
(18.4227 8.02564 0)
(18.742 7.65922 0)
(18.9905 7.35071 0)
(19.187 6.98468 0)
(19.2943 6.63544 0)
(19.3683 6.31004 0)
(19.3728 5.982 0)
(19.3537 5.67521 0)
(10.6442 9.85518 0)
(11.8823 8.86655 0)
(12.9459 8.55782 0)
(13.9277 8.38715 0)
(14.8206 8.23275 0)
(15.5876 8.05443 0)
(16.2795 7.90425 0)
(16.9006 7.68896 0)
(17.4095 7.43036 0)
(17.883 7.19956 0)
(18.2866 6.91237 0)
(18.6024 6.62793 0)
(18.8721 6.34119 0)
(19.0389 6.04595 0)
(19.1176 5.75522 0)
(19.2009 5.46313 0)
(19.1444 5.22376 0)
(19.0936 4.94145 0)
(10.7619 8.38769 0)
(11.9588 7.40486 0)
(12.9285 7.09305 0)
(13.8664 6.95358 0)
(14.7476 6.87426 0)
(15.4808 6.74894 0)
(16.1389 6.58593 0)
(16.7102 6.43888 0)
(17.182 6.24511 0)
(17.632 6.03563 0)
(18.015 5.83828 0)
(18.331 5.58951 0)
(18.5867 5.34548 0)
(18.7223 5.12737 0)
(18.7965 4.88328 0)
(18.8409 4.69709 0)
(18.7892 4.49088 0)
(18.7195 4.29572 0)
(10.695 6.97157 0)
(12.0613 6.14217 0)
(13.1473 5.80936 0)
(14.0587 5.63653 0)
(14.8171 5.58377 0)
(15.52 5.52478 0)
(16.142 5.39992 0)
(16.7049 5.30369 0)
(17.2038 5.13746 0)
(17.609 4.94755 0)
(17.9641 4.77507 0)
(18.2745 4.55848 0)
(18.4672 4.35967 0)
(18.6299 4.18929 0)
(18.6975 4.01421 0)
(18.7208 3.86312 0)
(18.7305 3.69765 0)
(18.6389 3.54864 0)
(10.8344 5.46039 0)
(12.254 4.75728 0)
(13.4059 4.51789 0)
(14.3141 4.46117 0)
(15.025 4.43596 0)
(15.7263 4.36052 0)
(16.3484 4.25852 0)
(16.9289 4.17701 0)
(17.4427 4.06524 0)
(17.8362 3.92494 0)
(18.1621 3.76987 0)
(18.3734 3.61179 0)
(18.5214 3.44509 0)
(18.6238 3.32211 0)
(18.6543 3.21147 0)
(18.7018 3.0853 0)
(18.7139 2.99623 0)
(18.6852 2.86221 0)
(10.5126 4.2147 0)
(11.9489 3.4565 0)
(13.1434 3.24605 0)
(14.148 3.24501 0)
(14.9716 3.25863 0)
(15.7034 3.22475 0)
(16.3319 3.15661 0)
(16.8624 3.11985 0)
(17.3305 3.0607 0)
(17.6963 2.96998 0)
(17.9715 2.89097 0)
(18.175 2.76928 0)
(18.3071 2.65364 0)
(18.3882 2.53514 0)
(18.4179 2.43653 0)
(18.4483 2.3378 0)
(18.446 2.23972 0)
(18.41 2.12877 0)
(10.6661 2.97933 0)
(12.287 2.28855 0)
(13.5208 2.15293 0)
(14.4232 2.18407 0)
(15.0807 2.21157 0)
(15.6198 2.2 0)
(16.0754 2.18631 0)
(16.4719 2.18013 0)
(16.8311 2.15336 0)
(17.1026 2.10917 0)
(17.3265 2.05211 0)
(17.475 1.97449 0)
(17.5487 1.88698 0)
(17.5959 1.81351 0)
(17.5736 1.75299 0)
(17.5353 1.69249 0)
(17.4745 1.6206 0)
(17.3758 1.55036 0)
(10.8304 1.73225 0)
(12.5292 1.1156 0)
(13.6182 1.13486 0)
(14.2541 1.26788 0)
(14.5993 1.37499 0)
(14.7967 1.41505 0)
(14.911 1.42205 0)
(15.0095 1.41942 0)
(15.1043 1.41313 0)
(15.1792 1.39345 0)
(15.2457 1.36639 0)
(15.2629 1.32192 0)
(15.2433 1.26188 0)
(15.1991 1.23323 0)
(15.109 1.18058 0)
(15.0072 1.15187 0)
(14.8855 1.09043 0)
(14.7261 1.04826 0)
(10.9285 0.452576 0)
(11.8488 0.0912639 0)
(11.9355 0.282476 0)
(11.7526 0.504815 0)
(11.6002 0.692728 0)
(11.5192 0.810338 0)
(11.4859 0.866033 0)
(11.5085 0.881463 0)
(11.552 0.872424 0)
(11.6025 0.851494 0)
(11.6423 0.825024 0)
(11.6606 0.79216 0)
(11.6386 0.760497 0)
(11.611 0.738693 0)
(11.5451 0.707308 0)
(11.4648 0.680481 0)
(11.366 0.637819 0)
(11.2257 0.606127 0)
(9.03825 -0.0178668 0)
(7.75952 0.0226362 0)
(6.80817 0.234004 0)
(6.43579 0.339204 0)
(6.52687 0.367136 0)
(6.83876 0.361091 0)
(7.20725 0.339961 0)
(7.57578 0.323504 0)
(7.90281 0.304536 0)
(8.17585 0.291528 0)
(8.39758 0.280874 0)
(8.56697 0.27006 0)
(8.67603 0.256698 0)
(8.74974 0.246683 0)
(8.77576 0.234405 0)
(8.76703 0.223239 0)
(8.72317 0.204177 0)
(8.60523 0.206246 0)
(-0.334543 -0.819609 0)
(-1.10151 -0.969788 0)
(-1.70135 -1.16322 0)
(-2.07184 -1.38564 0)
(-2.22608 -1.55751 0)
(-2.26522 -1.67822 0)
(-2.20701 -1.75944 1.1517e-17)
(-2.10131 -1.79271 -1.14245e-17)
(-1.95927 -1.80549 0)
(-1.79784 -1.77913 -1.12496e-17)
(-1.64397 -1.74911 0)
(-1.52417 -1.76059 0)
(-1.38737 -1.75665 0)
(-1.22894 -1.66118 1.09093e-17)
(-1.17476 -1.57952 0)
(-1.11946 -1.57013 0)
(-1.03821 -1.50584 -1.06837e-17)
(-1.11137 -1.3727 0)
(-1.25125 -1.23467 0)
(-1.496 -1.12001 0)
(-1.95526 -0.908835 1.03882e-17)
(-2.48244 -0.72208 0)
(-3.20904 -0.598909 1.02481e-17)
(-4.12451 -0.350974 0)
(-5.11046 -0.284858 0)
(-6.29246 -0.221727 1.0076e-17)
(-7.5226 0.0445834 0)
(-8.77873 -0.108327 -1.00015e-17)
(-10.1714 -0.584062 0)
(-11.328 -0.906782 9.92709e-18)
(-12.153 -1.09806 0)
(-12.831 -1.1035 0)
(-13.343 -1.02784 0)
(-13.7185 -0.90332 0)
(-14.0217 -0.802748 0)
(-14.1423 -0.788582 -9.32907e-18)
(-14.2197 -0.689645 0)
(-14.5008 -0.462599 1.84923e-17)
(-14.8148 -0.38643 0)
(-14.9753 -0.425528 -1.81616e-17)
(-15.0754 -0.669725 0)
(-15.2363 -1.12378 0)
(-15.4588 -1.40989 1.82492e-17)
(-15.7349 -1.33619 0)
(-16.0755 -0.962142 1.81501e-17)
(-16.5864 -0.546958 -1.80627e-17)
(-17.2154 -0.293322 0)
(-17.8421 -0.212435 -1.78066e-17)
(-18.4501 -0.205199 -1.76643e-17)
(-19.015 -0.205244 0)
(-19.5059 -0.175328 0)
(-19.9552 -0.158353 0)
(-20.3502 -0.138942 0)
(-20.6941 -0.117631 0)
(-21.0084 -0.100759 1.68381e-17)
(-21.2902 -0.0803953 0)
(-21.5784 -0.0586388 -1.65733e-17)
(-21.857 -0.026353 0)
(-22.1387 -0.000924992 0)
(-22.3944 0.084119 1.61914e-17)
(-22.6274 0.164652 0)
(-22.8595 0.228623 -1.59307e-17)
(-23.0726 0.292971 0)
(-23.282 0.346614 0)
(-23.453 0.416262 0)
(-23.5686 0.49931 1.5389e-17)
(-23.6359 0.560393 0)
(-23.6981 0.597484 0)
(-23.7168 0.597338 1.50092e-17)
(-23.6802 0.642855 0)
(-23.6215 0.683347 1.47785e-17)
(-23.5299 0.730516 0)
(-23.3896 0.770527 0)
(-23.176 0.804149 0)
(-22.8729 0.821935 -1.43523e-17)
(-22.491 0.835914 0)
(-22.0295 0.839912 0)
(-21.4941 0.836213 -1.407e-17)
(-20.886 0.845462 -1.39767e-17)
(-20.2096 0.84427 0)
(-19.4749 0.856008 -1.37863e-17)
(-18.6696 0.856809 0)
(-17.7528 0.844116 -2.72007e-17)
(-16.7295 0.814004 0)
(-15.5986 0.804823 -2.67504e-17)
(-14.4198 0.850863 0)
(-13.271 0.940548 2.61523e-17)
(-12.2817 1.0423 0)
(-11.4429 1.12303 0)
(-10.6539 1.15645 0)
(-9.80755 1.11647 -2.51966e-17)
(-8.87997 1.22369 0)
(-8.15931 1.28085 2.47919e-17)
(-7.53074 1.33665 0)
(-6.87686 1.34804 -2.4291e-17)
(-6.06691 1.29555 -2.40272e-17)
(-5.08108 1.25508 -2.38241e-17)
(-3.98309 1.26046 0)
(-2.84916 1.29267 0)
(-1.70645 1.36975 0)
(-0.605558 1.47581 0)
(0.0917622 1.65621 0)
(0.388318 1.77884 0)
(0.721576 1.75932 0)
(0.688495 1.89616 0)
(0.332078 2.03291 2.27883e-17)
(0.171505 2.00222 2.25879e-17)
(-0.0566393 1.96146 0)
(-0.196281 1.88591 0)
(0.15507 1.70152 0)
(0.962088 1.64047 2.06301e-17)
(1.91531 1.7015 0)
(2.56562 1.99642 0)
(2.6494 2.18309 0)
(2.08292 2.09163 0)
(1.39981 1.99639 -2.17093e-17)
(0.711723 1.91523 0)
(-0.278005 2.00456 0)
(-2.13002 2.64443 2.1554e-17)
(-4.68296 3.02306 -2.12232e-17)
(-6.99605 2.77786 0)
(-9.30511 2.71174 -2.08632e-17)
(-11.9707 2.96003 0)
(-14.3749 3.0261 2.06219e-17)
(-15.8855 2.70289 0)
(-16.4108 2.32579 0)
(-16.5938 2.13887 0)
(-16.6167 2.17303 0)
(-16.4488 2.25794 0)
(-16.2388 2.28248 -3.89948e-17)
(-15.4157 1.65169 -3.84413e-17)
(-12.1048 1.05331 0)
(-8.89626 2.16742 0)
(-9.67189 3.31339 0)
(-12.302 3.25706 3.78904e-17)
(-15.0332 2.83894 0)
(-16.4152 2.52859 0)
(-17.2987 2.6011 0)
(-19.0453 2.99642 3.71631e-17)
(-19.9508 2.68986 -3.75258e-17)
(-18.7185 1.9603 0)
(-15.2137 1.85793 0)
(-11.2371 2.21652 -3.58331e-17)
(-10.0294 2.63682 -3.51422e-17)
(-9.08707 2.58973 0)
(-8.36414 2.88908 0)
(-9.0384 2.97874 3.38817e-17)
(-9.82231 2.84579 -3.34978e-17)
(-10.4247 2.82523 0)
(-10.3857 2.76583 0)
(-10.3698 2.83596 -3.2508e-17)
(-10.1914 2.73866 0)
(-10.2241 2.83074 0)
(-9.22143 2.87027 -3.15052e-17)
(-9.37643 2.97143 0)
(-8.34346 2.77977 -3.07709e-17)
(-7.84451 2.98114 0)
(-7.18388 3.10385 0)
(-6.56375 3.04037 0)
(-6.06714 3.10871 2.93491e-17)
(-4.76938 3.10927 0)
(-3.34029 3.14001 0)
(-0.689396 2.95596 0)
(3.22304 2.68794 0)
(0.292678 3.7353 0)
(-3.45994 4.27063 0)
(-1.04904 3.58793 2.83475e-17)
(-0.00832854 3.31306 2.80459e-17)
(3.02948 2.81177 0)
(7.12461 2.80428 0)
(9.7938 3.04274 0)
(10.3488 3.20697 -2.83355e-17)
(11.2556 3.1224 0)
(13.0338 3.0757 5.63689e-17)
(14.6282 3.01101 -5.64726e-17)
(16.0412 2.90812 -5.67356e-17)
(16.8155 2.93505 5.71635e-17)
(16.9132 2.85417 -5.74529e-17)
(16.1633 2.79578 5.74555e-17)
(15.2884 2.699 0)
(-0.122937 -2.91325 0)
(-0.6595 -2.81275 0)
(-1.13279 -3.42909 -2.38347e-17)
(-1.41387 -4.17066 0)
(-1.53121 -4.72329 2.34745e-17)
(-1.58671 -5.06263 2.32514e-17)
(-1.57474 -5.26532 1.15404e-17)
(-1.55966 -5.36881 1.1438e-17)
(-1.50273 -5.45144 0)
(-1.39204 -5.45441 1.12592e-17)
(-1.226 -5.35153 0)
(-1.06004 -5.28012 0)
(-0.984983 -5.35064 -2.20517e-17)
(-0.862194 -5.23601 -1.08983e-17)
(-0.679645 -5.01524 2.17574e-17)
(-0.571517 -5.07862 2.1602e-17)
(-0.461019 -4.85511 1.07111e-17)
(-0.409202 -4.43195 0)
(-0.457655 -4.28678 0)
(-0.590778 -3.81335 0)
(-0.861358 -3.35215 1.03993e-17)
(-1.21783 -3.06497 0)
(-1.79503 -2.36551 -3.07499e-17)
(-2.44999 -2.09777 0)
(-3.17916 -1.83692 0)
(-4.18489 -1.19129 -1.00234e-17)
(-4.91306 -1.38789 0)
(-5.97414 -1.14392 9.80069e-18)
(-7.09565 -0.427694 1.98063e-17)
(-7.66846 -1.11598 -9.74617e-18)
(-8.8932 -1.74892 0)
(-10.1617 -1.84097 0)
(-10.6704 -2.47954 0)
(-11.163 -3.0031 1.8609e-17)
(-11.7774 -3.12045 1.80115e-17)
(-12.0762 -3.40317 8.79548e-18)
(-11.8701 -3.41555 0)
(-11.6385 -2.75687 -1.79023e-17)
(-11.6901 -2.75393 0)
(-11.9952 -3.23183 1.75054e-17)
(-12.5518 -2.82595 0)
(-13.6902 -1.70561 0)
(-15.3826 -0.900305 -1.81926e-17)
(-16.8813 -0.648225 0)
(-18.0163 -0.571977 -5.45047e-17)
(-18.9788 -0.504256 1.80078e-17)
(-19.7512 -0.465063 0)
(-20.4281 -0.431338 1.76686e-17)
(-21.0737 -0.386145 1.74997e-17)
(-21.6388 -0.340693 0)
(-22.1724 -0.313397 0)
(-22.6833 -0.286715 0)
(-23.1504 -0.24039 0)
(-23.6249 -0.159702 0)
(-24.0787 -0.044902 -1.65409e-17)
(-24.5191 0.110277 -3.27471e-17)
(-24.9473 0.290251 1.62242e-17)
(-25.3534 0.445712 0)
(-25.7227 0.56733 -3.17649e-17)
(-26.0228 0.687629 1.57192e-17)
(-26.336 0.800268 0)
(-26.584 0.938366 1.54879e-17)
(-26.775 1.07482 0)
(-26.9189 1.17434 0)
(-26.9931 1.24559 3.03291e-17)
(-27.0255 1.32042 -1.50801e-17)
(-27.008 1.40036 2.99282e-17)
(-26.9962 1.49938 -2.97278e-17)
(-26.9045 1.60123 -1.47876e-17)
(-26.8142 1.70602 0)
(-26.6891 1.80514 -1.46371e-17)
(-26.4874 1.87092 0)
(-26.2011 1.90413 0)
(-25.8228 1.91965 0)
(-25.362 1.92929 -1.43917e-17)
(-24.8141 1.93048 0)
(-24.2042 1.92982 -2.8635e-17)
(-23.5197 1.95085 4.27838e-17)
(-22.7618 1.98214 1.42036e-17)
(-21.9537 1.99862 0)
(-21.109 2.04092 1.40484e-17)
(-20.183 2.01981 0)
(-19.1809 1.97338 2.7759e-17)
(-18.0922 1.8904 0)
(-16.8658 1.86821 2.71145e-17)
(-15.5768 2.00841 -5.32079e-17)
(-14.2051 2.27187 -2.61178e-17)
(-12.9339 2.61134 0)
(-11.7579 2.85764 0)
(-10.603 3.03671 0)
(-9.69994 2.93023 2.45233e-17)
(-8.48097 3.19116 0)
(-7.61131 3.4166 -2.37786e-17)
(-6.80455 3.56212 0)
(-6.04842 3.53707 6.93719e-17)
(-5.17663 3.36013 2.30016e-17)
(-4.16474 3.18093 2.29783e-17)
(-2.87689 3.1382 0)
(-1.52841 3.20503 0)
(-0.259935 3.28167 0)
(1.09671 3.6231 0)
(1.99115 4.23328 0)
(2.47552 4.62921 4.38702e-17)
(3.23647 4.93218 4.34572e-17)
(2.99663 5.58952 0)
(2.5356 5.76776 -2.14653e-17)
(2.58694 5.45308 -2.11228e-17)
(2.25777 5.68719 0)
(2.02418 5.57416 -4.14968e-17)
(2.15759 4.74768 0)
(2.56208 4.23019 1.91897e-17)
(3.12391 4.3493 0)
(3.52611 4.75092 0)
(3.5367 5.61997 -4.0833e-17)
(2.53173 6.45272 0)
(0.790167 6.61104 2.13183e-17)
(-1.38873 6.99092 0)
(-4.47175 7.84719 0)
(-7.35728 8.24239 2.07589e-17)
(-9.36287 8.14213 2.0672e-17)
(-11.5707 8.22117 0)
(-14.0738 8.62267 -2.04224e-17)
(-16.1553 8.35532 0)
(-17.2391 7.45022 2.04601e-17)
(-17.5951 6.50921 4.01101e-17)
(-18.0158 5.92096 0)
(-18.5408 6.0122 0)
(-18.3513 5.76966 0)
(-17.3473 5.57383 0)
(-16.2244 5.40599 3.78105e-17)
(-14.8827 4.18435 1.12064e-16)
(-13.0225 2.40785 0)
(-9.71806 4.91899 0)
(-9.14866 8.04901 0)
(-9.98305 9.02481 -3.76997e-17)
(-12.3107 9.05555 0)
(-14.3929 8.57202 0)
(-15.7388 8.37409 7.17033e-17)
(-19.1175 8.33497 3.78474e-17)
(-18.3097 7.04481 3.80643e-17)
(-17.7574 4.72283 0)
(-15.6229 3.29181 0)
(-10.1972 4.45066 3.67313e-17)
(-8.00677 6.27044 -3.58233e-17)
(-6.64685 6.19841 0)
(-3.53094 7.31516 0)
(-2.86624 8.49425 -3.31243e-17)
(-3.21065 8.22366 9.66139e-17)
(-3.97969 8.07605 0)
(-3.97346 7.86638 0)
(-4.21698 8.16897 3.07723e-17)
(-4.33758 7.87067 0)
(-5.11838 7.6846 5.90418e-17)
(-3.67112 7.7078 -2.90116e-17)
(-4.56628 8.18673 0)
(-3.2487 7.90876 2.81201e-17)
(-3.40483 8.33764 5.67307e-17)
(-3.10088 8.35615 0)
(-3.20102 8.32557 0)
(-3.62597 8.27399 -2.62691e-17)
(-2.4326 8.21527 0)
(-1.22341 7.23169 5.02661e-17)
(0.332202 6.88303 0)
(2.59434 9.53272 0)
(-3.45178 12.4175 0)
(-6.81774 10.1737 0)
(-2.71372 8.83031 -2.59696e-17)
(-0.817115 8.29647 -2.56627e-17)
(2.28431 6.8042 0)
(7.41964 7.16196 0)
(9.46659 8.57605 0)
(9.16187 8.89216 2.55387e-17)
(10.1014 8.50962 0)
(12.1165 8.3177 -5.10139e-17)
(13.7176 7.94763 5.1941e-17)
(15.0803 7.97156 5.32005e-17)
(15.5805 8.37407 5.47775e-17)
(14.4494 8.70997 5.57595e-17)
(11.8229 9.02211 5.60072e-17)
(9.53532 8.57068 0)
(-0.0806364 -5.69257 0)
(-0.385411 -5.32644 0)
(-0.614234 -6.09979 2.40678e-17)
(-0.772104 -7.06733 2.38737e-17)
(-0.952482 -7.73491 -2.3591e-17)
(-1.13918 -8.12852 -2.33848e-17)
(-1.28539 -8.34722 1.94394e-20)
(-1.36621 -8.49342 0)
(-1.3628 -8.64168 0)
(-1.26597 -8.80622 0)
(-1.1037 -8.87112 0)
(-0.897763 -8.67909 0)
(-0.729143 -8.55398 6.73526e-17)
(-0.648204 -8.64344 0)
(-0.472481 -8.54303 -2.20425e-17)
(-0.363371 -8.33776 -2.20562e-17)
(-0.308909 -8.11128 0)
(-0.209334 -7.59653 0)
(-0.293412 -7.07763 0)
(-0.493054 -6.51717 0)
(-0.684019 -5.74619 -2.11348e-17)
(-1.12117 -5.03899 0)
(-1.62278 -4.33819 2.06328e-17)
(-2.14605 -3.60626 0)
(-2.97364 -3.03269 0)
(-3.7178 -2.75861 0)
(-4.3931 -2.29769 4.06354e-17)
(-5.37265 -2.04646 0)
(-5.91713 -2.88074 -1.90956e-17)
(-6.77785 -2.75634 3.87263e-17)
(-8.07419 -1.87002 0)
(-8.41478 -3.07002 0)
(-9.25988 -4.31683 0)
(-10.6494 -3.70442 -1.87095e-17)
(-10.7843 -3.42688 -1.84424e-17)
(-10.7817 -4.72852 0)
(-11.6053 -6.00445 0)
(-12.5185 -5.33158 3.59225e-17)
(-13.8396 -3.38974 3.65451e-17)
(-15.6615 -1.95041 -3.69429e-17)
(-17.2865 -1.23992 0)
(-18.4009 -0.81103 0)
(-19.217 -0.663632 0)
(-19.9774 -0.723966 0)
(-20.6992 -0.797181 3.59226e-17)
(-21.3971 -0.812903 3.55246e-17)
(-22.0078 -0.802299 -3.51456e-17)
(-22.5511 -0.767317 0)
(-23.0736 -0.687552 0)
(-23.5545 -0.564314 0)
(-24.0427 -0.416054 0)
(-24.5688 -0.248343 3.34397e-17)
(-25.1319 -0.104072 0)
(-25.7113 0.049022 0)
(-26.1979 0.18085 3.27184e-17)
(-26.5327 0.359699 3.24329e-17)
(-26.7675 0.530469 0)
(-26.9212 0.728829 -6.34805e-17)
(-27.0748 0.944575 3.15408e-17)
(-27.2555 1.11624 -3.13673e-17)
(-27.4958 1.29088 0)
(-27.7222 1.4781 0)
(-27.8481 1.60594 0)
(-27.8619 1.75107 0)
(-27.8008 1.89207 -3.09124e-17)
(-27.7309 2.06163 -6.14257e-17)
(-27.6796 2.24218 -3.06146e-17)
(-27.5972 2.43907 3.04637e-17)
(-27.4394 2.63616 0)
(-27.2595 2.80151 -6.03607e-17)
(-27.016 2.90864 -6.01996e-17)
(-26.7142 2.97171 -5.9992e-17)
(-26.2803 3.01619 5.97229e-17)
(-25.7329 3.03115 0)
(-25.105 3.08076 8.87381e-17)
(-24.4497 3.13257 0)
(-23.7536 3.18992 -2.92206e-17)
(-23.01 3.25769 -2.9181e-17)
(-22.2588 3.33877 0)
(-21.4501 3.39749 0)
(-20.6994 3.50448 -5.72691e-17)
(-19.8171 3.49899 0)
(-19.0223 3.50773 -5.64449e-17)
(-18.1727 3.39741 0)
(-17.2725 3.34289 5.53866e-17)
(-16.3257 3.44242 1.09785e-16)
(-15.1605 3.68528 0)
(-13.9328 4.13984 0)
(-12.575 4.50809 0)
(-11.2933 4.92563 5.15619e-17)
(-10.2834 4.81349 0)
(-9.02844 5.14215 5.04851e-17)
(-7.97868 5.60806 0)
(-6.91521 5.86428 0)
(-6.00827 5.94882 -9.58791e-17)
(-5.17994 5.83812 0)
(-4.40406 5.47452 -4.88022e-17)
(-3.00628 5.15751 0)
(-1.28676 5.41974 -4.90515e-17)
(0.127916 5.6517 0)
(1.50175 6.05365 0)
(2.56534 7.16303 0)
(3.0468 7.74271 -1.40354e-16)
(4.33835 8.0362 -4.52872e-17)
(4.92987 9.24793 0)
(4.94716 9.56367 0)
(4.60794 9.1089 0)
(3.92848 9.38594 0)
(3.84377 9.26389 4.17665e-17)
(3.72592 8.67064 -8.05658e-17)
(3.70984 8.12715 -4.06376e-17)
(3.7255 8.34378 8.35365e-17)
(3.24486 9.24199 8.46338e-17)
(2.46975 10.5726 4.27733e-17)
(1.09955 11.7421 0)
(-1.40912 12.2887 8.47293e-17)
(-4.64196 13.1838 0)
(-7.57802 13.9687 -8.48096e-17)
(-9.33408 13.7955 -4.23367e-17)
(-10.8333 13.4691 0)
(-12.7953 13.5337 8.14138e-17)
(-14.079 13.4844 4.13348e-17)
(-14.7524 12.7388 0)
(-15.1129 11.5549 4.03502e-17)
(-15.5173 10.8418 -1.19415e-16)
(-16.5503 10.7134 0)
(-17.6735 10.2306 0)
(-17.8156 8.8429 0)
(-16.8768 8.31941 0)
(-16.4593 8.60449 -7.45643e-17)
(-16.2919 7.58017 -7.6147e-17)
(-15.566 5.7204 0)
(-13.0785 8.07395 0)
(-11.2443 12.5225 0)
(-10.663 13.9753 0)
(-12.0577 14.8518 0)
(-13.1167 14.3516 0)
(-12.3504 13.7527 -6.80438e-17)
(-16.4221 14.293 1.05568e-19)
(-11.718 10.8583 0)
(-11.6644 9.58468 0)
(-13.0843 6.38595 -7.14375e-17)
(-9.31792 6.86073 0)
(-7.5884 10.6243 7.06044e-17)
(-10.1923 10.3014 7.38001e-17)
(-6.46217 11.0102 0)
(-2.64788 13.3584 0)
(-1.86646 13.6074 -6.47797e-17)
(-1.96991 13.6008 -1.2598e-16)
(-1.86667 13.0654 0)
(-1.8864 13.6228 0)
(-1.48918 13.6793 0)
(-3.06561 13.1149 -5.75509e-17)
(-1.83881 12.8846 5.6369e-17)
(-2.99064 13.6622 0)
(-1.79904 12.9777 1.09153e-16)
(-1.51128 13.8893 5.49134e-17)
(-0.938151 14.4513 -1.06237e-16)
(-1.23764 14.6241 0)
(-2.00961 14.0497 0)
(-1.01653 13.634 -9.52608e-17)
(-1.36279 13.779 -5.08309e-17)
(-2.25272 14.185 0)
(-2.85619 18.0195 0)
(-5.92172 20.7035 0)
(-4.38523 15.5051 0)
(-1.59463 13.5064 -9.81984e-17)
(1.10572 13.7616 0)
(2.11611 11.5247 0)
(7.92029 11.8841 0)
(10.6611 14.4017 0)
(10.2547 14.534 0)
(11.3033 13.8306 0)
(13.1844 13.5841 -9.5775e-17)
(14.4381 13.3994 0)
(14.8037 13.8236 0)
(13.8973 14.6787 -2.17419e-16)
(11.3063 15.4157 1.1062e-16)
(7.99722 15.6223 -1.09048e-16)
(6.21495 14.3944 1.06288e-16)
(-0.140986 -8.36473 0)
(-0.335145 -8.13258 -4.89577e-17)
(-0.434304 -8.99782 0)
(-0.621247 -9.85483 -2.37777e-17)
(-0.923248 -10.335 0)
(-1.20004 -10.6959 0)
(-1.3138 -11.1163 2.34895e-17)
(-1.21857 -11.6029 0)
(-1.03676 -12.0101 0)
(-0.794806 -12.2993 0)
(-0.595161 -12.442 0)
(-0.417928 -12.3178 0)
(-0.255808 -12.0987 -8.99935e-17)
(-0.192643 -11.9571 -4.46517e-17)
(-0.119734 -11.8599 4.42844e-17)
(-0.0667712 -11.7049 0)
(-0.0755929 -11.2757 0)
(-0.128983 -10.6472 0)
(-0.351232 -9.8949 0)
(-0.598695 -9.02324 0)
(-0.771429 -8.22299 -4.15838e-17)
(-1.21363 -7.22702 -4.13049e-17)
(-1.72774 -6.25389 4.06563e-17)
(-2.20733 -5.49072 -4.10573e-17)
(-3.02694 -4.63043 0)
(-3.87734 -4.19915 0)
(-4.72516 -4.02214 -3.9969e-17)
(-5.72939 -3.43358 0)
(-6.80583 -2.88818 0)
(-7.57576 -3.31204 -3.91492e-17)
(-7.77858 -4.27234 -3.79519e-17)
(-8.70784 -4.08256 -3.86836e-17)
(-10.1454 -3.8767 0)
(-10.5277 -5.7215 0)
(-10.4474 -7.1113 3.54365e-17)
(-11.4657 -5.99577 0)
(-13.9674 -4.0678 0)
(-16.0711 -3.07532 -3.77356e-17)
(-17.4576 -2.56891 3.75435e-17)
(-18.4866 -2.25986 -3.7342e-17)
(-19.2834 -1.96292 0)
(-19.9896 -1.65409 0)
(-20.6352 -1.41884 -7.28991e-17)
(-21.2005 -1.28174 0)
(-21.7284 -1.18589 -7.1682e-17)
(-22.2529 -1.14672 -1.06729e-16)
(-22.7358 -1.11723 1.05887e-16)
(-23.2096 -1.08467 -6.99294e-17)
(-23.6474 -1.00365 0)
(-24.0658 -0.830047 0)
(-24.4578 -0.578763 -6.75233e-17)
(-24.8389 -0.26848 -3.34538e-17)
(-25.2434 0.0181213 0)
(-25.7548 0.209031 0)
(-26.2727 0.277561 -3.2986e-17)
(-26.7892 0.285832 -6.567e-17)
(-27.1741 0.405222 0)
(-27.3151 0.629845 6.49686e-17)
(-27.348 0.958261 -6.42719e-17)
(-27.3081 1.34154 6.36992e-17)
(-27.2623 1.68701 0)
(-27.2867 1.93128 0)
(-27.3353 2.04793 0)
(-27.303 2.17333 0)
(-27.2213 2.34987 0)
(-27.0582 2.61906 6.18404e-17)
(-26.8548 2.87443 0)
(-26.6642 3.12504 0)
(-26.3727 3.34249 0)
(-26.0399 3.52442 1.20256e-16)
(-25.6716 3.67244 5.98696e-17)
(-25.2216 3.72805 5.95083e-17)
(-24.7494 3.76322 -1.17998e-16)
(-24.1733 3.77437 5.84328e-17)
(-23.5368 3.8118 -5.80826e-17)
(-22.8985 3.91102 0)
(-22.1985 4.02562 5.71193e-17)
(-21.4115 4.13788 0)
(-20.6283 4.29924 0)
(-19.7596 4.44272 0)
(-19.0027 4.66297 1.10805e-16)
(-18.0995 4.73602 -5.49866e-17)
(-17.3999 4.92764 -5.45427e-17)
(-16.6324 4.93161 -1.09043e-16)
(-15.9961 4.97584 -1.6336e-16)
(-15.3451 4.95551 -5.46089e-17)
(-14.6355 5.07048 0)
(-13.7576 5.47171 -1.08312e-16)
(-12.6418 5.90382 0)
(-11.4909 6.37828 -1.60191e-16)
(-10.3644 6.48988 0)
(-9.52794 6.92786 -1.57488e-16)
(-8.38035 7.47453 0)
(-7.38796 7.88926 0)
(-6.4259 8.20392 -5.036e-17)
(-5.5622 8.21249 0)
(-4.60197 7.46137 5.13542e-17)
(-3.22421 6.61825 1.04216e-16)
(-1.41538 6.9974 5.15245e-17)
(0.0996587 7.54509 1.00635e-16)
(1.48261 8.22299 -9.78433e-17)
(2.48845 9.50639 -9.56091e-17)
(3.24779 10.2057 1.93508e-16)
(4.69789 10.5003 0)
(5.62621 11.9283 0)
(6.09864 13.3393 8.96152e-17)
(5.96159 13.4651 -8.58669e-17)
(5.76931 13.1699 0)
(5.45291 12.9182 0)
(4.95872 12.1644 8.20773e-17)
(4.87547 11.2862 0)
(4.58802 11.6991 -1.17959e-19)
(3.28588 13.1906 -1.17076e-19)
(1.37778 14.9112 8.4272e-17)
(-0.473201 16.8273 0)
(-3.43881 18.2629 -8.47409e-17)
(-6.50375 19.0705 0)
(-8.17789 18.8972 8.50982e-17)
(-8.93678 18.0182 0)
(-10.2663 17.9958 0)
(-11.6061 18.2591 -8.26821e-17)
(-11.9319 17.6758 -8.33e-17)
(-12.1888 16.5979 0)
(-12.8578 15.6298 -8.06915e-17)
(-13.5396 15.1237 1.60838e-16)
(-14.3206 15.1523 0)
(-15.9229 14.6404 0)
(-16.6357 12.8685 0)
(-17.1119 12.3491 0)
(-17.3363 13.0926 7.61294e-17)
(-17.5858 11.2509 -1.5619e-16)
(-16.8693 8.63908 0)
(-15.9026 10.5433 0)
(-12.5378 15.7255 0)
(-12.1671 18.4026 0)
(-11.6586 19.7554 0)
(-12.6796 18.2461 0)
(-13.3121 18.6974 0)
(-13.4119 17.6026 7.62051e-17)
(-9.10095 13.9666 0)
(-7.6502 15.3836 0)
(-9.53387 13.1139 7.60755e-17)
(-6.53631 10.4743 0)
(-5.3489 15.5298 0)
(-12.0949 16.0587 -7.75918e-17)
(-10.1482 13.9106 0)
(-4.17787 16.7907 0)
(-2.45905 18.2428 1.32333e-16)
(-1.65375 18.7438 1.26426e-16)
(-1.81504 18.1864 1.26101e-16)
(-1.79357 18.8559 0)
(0.10577 19.2271 1.18317e-16)
(-2.20481 18.8758 0)
(-1.60766 18.716 -1.15416e-16)
(-3.09099 19.1812 0)
(-2.14244 18.2529 -1.12009e-16)
(-1.85371 19.1276 3.88612e-19)
(-0.380223 19.3991 1.04346e-16)
(0.139341 20.7744 -1.04255e-16)
(-0.196697 20.516 1.03589e-16)
(0.607461 19.5916 1.8679e-16)