/*--------------------------------*- C++ -*----------------------------------*\
| =========                 |                                                 |
| \\      /  F ield         | OpenFOAM: The Open Source CFD Toolbox           |
|  \\    /   O peration     | Version:  dev                                   |
|   \\  /    A nd           | Web:      http://www.openfoam.org               |
|    \\/     M anipulation  |                                                 |
\*---------------------------------------------------------------------------*/
FoamFile
{
    version     2.0;
    format      ascii;
    class       volVectorField;
    object      UMean;
    location    "9.14";
}
// * * * * * * * * * * * * * * * * * * * * * * * * * * * * * * * * * * * * * //

dimensions      [0 1 -1 0 0 0 0];

internalField   nonuniform List<vector> 
12225
(
(7.00367 0.430273 0)
(4.43881 0.192553 0)
(2.5567 0.0311604 0)
(2.51082 -0.0166621 0)
(1.38435 0.0193747 0)
(2.26727 -0.0342861 0)
(0.98943 0.0489928 0)
(2.18249 -0.0591837 0)
(0.797414 0.0716665 0)
(2.2917 -0.097861 0)
(0.688672 0.0993789 0)
(2.74363 -0.138645 0)
(0.948171 0.102611 0)
(3.39716 -0.17214 0)
(3.53202 -0.168513 0)
(4.69633 0.0499541 0)
(14.8474 -2.43426 0)
(7.11945 5.13407 0)
(9.54629 0.981585 0)
(9.54342 0.860885 0)
(6.68671 0.4663 0)
(7.59033 0.214549 0)
(4.09024 0.140333 0)
(6.84304 0.0107827 0)
(2.66476 0.132688 0)
(6.68913 -0.0903582 0)
(1.82232 0.141878 0)
(7.03904 -0.165107 0)
(1.26038 0.123931 0)
(8.12172 -0.414512 0)
(1.38504 0.252424 0)
(9.95558 -1.4426 0)
(3.4357 0.271616 0)
(12.3899 -4.0687 0)
(10.4309 -1.92826 0)
(7.77641 0.48587 0)
(9.11848 0.763499 0)
(12.1669 0.951411 0)
(8.32944 0.623998 0)
(11.8321 0.44342 0)
(6.22562 0.310346 0)
(11.413 0.206433 0)
(4.58219 0.221574 0)
(11.315 -0.0195978 0)
(3.87375 0.19303 0)
(11.3766 -0.277946 0)
(4.35031 0.187297 0)
(11.2529 -0.723223 0)
(5.72862 0.175902 0)
(11.0905 -1.49186 0)
(7.21521 0.0523849 0)
(12.1187 -3.86701 0)
(6.93267 0.350368 0)
(9.35397 -2.39021 0)
(7.21892 0.524947 0)
(13.9931 0.961052 0)
(7.92951 0.609478 0)
(14.2955 0.553898 0)
(7.4739 0.420932 0)
(14.1166 0.271053 0)
(7.17523 0.396744 0)
(13.7387 -0.145195 0)
(7.25625 0.459663 0)
(13.27 -0.698875 0)
(7.65895 0.5768 0)
(12.8751 -1.42294 0)
(8.26668 0.699283 0)
(12.6519 -2.31354 0)
(9.02363 0.0410818 0)
(11.888 -3.6371 0)
(8.68528 -1.43307 0)
(8.36393 0.68219 0)
(6.42368 0.569964 0)
(14.0115 0.565997 0)
(8.47321 0.674488 0)
(13.9586 0.284582 0)
(9.16906 0.636734 0)
(13.644 -0.00256728 0)
(9.51685 0.657903 0)
(13.2144 -0.388756 0)
(9.59175 0.734438 0)
(12.8135 -0.871417 0)
(9.44522 0.876935 0)
(12.5831 -1.52154 0)
(9.1492 1.08984 0)
(12.5713 -2.49019 0)
(8.82652 1.13172 0)
(11.6173 -5.02863 0)
(8.54131 1.26579 0)
(8.72266 0.129523 0)
(7.95605 0.616788 0)
(11.8037 0.152503 0)
(9.50495 0.654719 0)
(11.7399 0.0503073 0)
(10.0882 0.693888 0)
(11.6009 -0.16561 0)
(10.3205 0.725807 0)
(11.4767 -0.457511 0)
(10.3005 0.782968 0)
(11.39 -0.853629 0)
(10.0328 0.831975 0)
(11.3558 -1.4002 0)
(9.49231 0.801087 0)
(11.4184 -2.1386 0)
(8.80048 0.725601 0)
(10.9981 -3.92099 0)
(7.7327 1.33542 0)
(9.48925 -0.217343 0)
(9.34374 0.812624 0)
(10.4392 -0.265935 0)
(10.1406 0.930481 0)
(10.5541 -0.304519 0)
(10.3987 1.01996 0)
(10.5822 -0.502859 0)
(10.5202 1.07549 0)
(10.6258 -0.781175 0)
(10.5635 1.1535 0)
(10.6722 -1.1578 0)
(10.5154 1.23534 0)
(10.7004 -1.63583 0)
(10.3669 1.26138 0)
(10.6884 -2.32751 0)
(10.0533 1.2714 0)
(10.376 -3.95454 0)
(8.29885 2.01945 0)
(9.69682 -0.951982 0)
(9.84879 0.701084 0)
(10.1563 -0.325971 0)
(10.4064 0.854987 0)
(10.3901 -0.349853 0)
(10.5801 0.906769 0)
(10.4709 -0.493926 0)
(10.7015 0.892894 0)
(10.5523 -0.686242 0)
(10.8053 0.872659 0)
(10.6442 -0.935275 0)
(10.8809 0.823872 0)
(10.7358 -1.23282 0)
(10.908 0.67141 0)
(10.7542 -1.67279 0)
(10.7231 0.519789 0)
(10.4928 -2.47433 0)
(8.89357 0.980807 0)
(9.96373 -0.484115 0)
(10.0855 0.802195 0)
(10.02 -0.58339 0)
(10.5354 1.02138 0)
(10.3109 -0.604455 0)
(10.675 1.07492 0)
(10.4402 -0.724923 0)
(10.7775 1.04816 0)
(10.571 -0.89005 0)
(10.8573 1.00362 0)
(10.7115 -1.11785 0)
(10.8989 0.92113 0)
(10.832 -1.39509 0)
(10.8742 0.734804 0)
(10.8223 -1.76113 0)
(10.6023 0.505768 0)
(10.5207 -2.06919 0)
(9.35 0.586462 0)
(10.0235 -0.391546 0)
(10.139 0.648624 0)
(10.0423 -0.511975 0)
(10.5103 0.877996 0)
(10.3334 -0.456528 0)
(10.6214 0.869202 0)
(10.4819 -0.493674 0)
(10.6979 0.77826 0)
(10.629 -0.572219 0)
(10.7343 0.657921 0)
(10.7636 -0.695475 0)
(10.718 0.495601 0)
(10.8403 -0.845152 0)
(10.6183 0.264106 0)
(10.7654 -1.0324 0)
(10.2824 0.0703036 0)
(10.4793 -1.05313 0)
(9.62327 0.124219 0)
(10.2068 -0.0330225 0)
(10.1409 0.699967 0)
(10.0707 -0.691908 0)
(10.4524 0.902464 0)
(10.2986 -0.618923 0)
(10.5374 0.8476 0)
(10.4302 -0.645535 0)
(10.6032 0.73525 0)
(10.5607 -0.707426 0)
(10.6272 0.586753 0)
(10.6605 -0.791314 0)
(10.6091 0.383116 0)
(10.6813 -0.869361 0)
(10.5269 0.117017 0)
(10.571 -0.922187 0)
(10.2915 -0.11383 0)
(10.3609 -0.765123 0)
(10.0198 -0.154254 0)
(10.2455 -0.125251 0)
(10.0968 0.468043 0)
(10.1509 -0.495186 0)
(10.3536 0.595778 0)
(10.2934 -0.374706 0)
(10.4202 0.527571 0)
(10.4094 -0.354892 0)
(10.4848 0.418927 0)
(10.5239 -0.374318 0)
(10.5131 0.275765 0)
(10.5994 -0.414811 0)
(10.5157 0.0933423 0)
(10.5971 -0.461797 0)
(10.4766 -0.103309 0)
(10.4995 -0.500251 0)
(10.3571 -0.23212 0)
(10.3646 -0.40574 0)
(10.2659 -0.219845 0)
(10.3738 -0.110281 0)
(10.0501 0.411004 0)
(10.1755 -0.487297 0)
(10.2548 0.437203 0)
(10.2379 -0.36754 0)
(10.3087 0.367369 0)
(10.3307 -0.345616 0)
(10.3792 0.250871 0)
(10.4247 -0.355334 0)
(10.4226 0.0994753 0)
(10.4823 -0.374928 0)
(10.4463 -0.0797179 0)
(10.4818 -0.40346 0)
(10.433 -0.246713 0)
(10.4261 -0.431299 0)
(10.3773 -0.33924 0)
(10.3686 -0.392679 0)
(10.3572 -0.320573 0)
(10.4224 -0.276556 0)
(10.0153 0.199647 0)
(10.1907 -0.285881 0)
(10.1932 0.167348 0)
(10.2052 -0.179367 0)
(10.2293 0.131686 0)
(10.2792 -0.171433 0)
(10.3062 0.04726 0)
(10.3626 -0.197847 0)
(10.366 -0.0587039 0)
(10.4142 -0.235802 0)
(10.4055 -0.176031 0)
(10.4267 -0.286503 0)
(10.4124 -0.275033 0)
(10.4112 -0.331718 0)
(10.3995 -0.324176 0)
(10.4066 -0.337246 0)
(10.4109 -0.316069 0)
(10.4698 -0.304887 0)
(9.99663 0.0971386 0)
(10.1445 -0.185897 0)
(10.1463 0.021679 0)
(10.1501 -0.133685 0)
(10.1622 -0.00861567 0)
(10.2089 -0.146184 0)
(10.241 -0.0769504 0)
(10.2919 -0.186755 0)
(10.311 -0.159405 0)
(10.3486 -0.237995 0)
(10.3575 -0.244815 0)
(10.3791 -0.298351 0)
(10.3805 -0.316321 0)
(10.3939 -0.350118 0)
(10.3959 -0.361065 0)
(10.4185 -0.380238 0)
(10.4239 -0.381099 0)
(10.4789 -0.3873 0)
(9.99368 0.0155156 0)
(10.106 -0.0858128 0)
(10.1089 -0.0443132 0)
(10.1138 -0.0932677 0)
(10.1188 -0.0748823 0)
(10.1675 -0.118954 0)
(10.198 -0.120611 0)
(10.2518 -0.163857 0)
(10.2741 -0.180591 0)
(10.3154 -0.219194 0)
(10.3279 -0.243968 0)
(10.3598 -0.277867 0)
(10.3659 -0.301386 0)
(10.394 -0.329059 0)
(10.3996 -0.347051 0)
(10.4329 -0.370864 0)
(10.4356 -0.383856 0)
(10.4884 -0.397086 0)
(9.99179 0.00476828 0)
(10.0636 -0.0251517 0)
(10.0567 -0.0349072 0)
(10.0679 -0.0664669 0)
(10.0778 -0.0757062 0)
(10.128 -0.099765 0)
(10.1573 -0.115948 0)
(10.211 -0.144722 0)
(10.2338 -0.169002 0)
(10.2782 -0.19961 0)
(10.292 -0.226611 0)
(10.3301 -0.257093 0)
(10.3385 -0.283383 0)
(10.3732 -0.312126 0)
(10.3789 -0.336884 0)
(10.4153 -0.365623 0)
(10.4147 -0.388145 0)
(10.4635 -0.407575 0)
(9.99159 0.0141737 0)
(10.0467 0.0161747 0)
(10.0399 -0.0105653 0)
(10.0576 -0.0376767 0)
(10.0749 -0.056531 0)
(10.1255 -0.0778594 0)
(10.1554 -0.0988763 0)
(10.2072 -0.123844 0)
(10.2312 -0.149021 0)
(10.2754 -0.176666 0)
(10.2912 -0.203476 0)
(10.3293 -0.232213 0)
(10.3395 -0.259428 0)
(10.3737 -0.28838 0)
(10.3802 -0.315715 0)
(10.4141 -0.345791 0)
(10.4133 -0.371656 0)
(10.4568 -0.393488 0)
(9.99166 0.032929 0)
(10.0502 0.0496541 0)
(10.0566 0.00993718 0)
(10.0799 -0.0180788 0)
(10.1007 -0.0402441 0)
(10.1506 -0.0614899 0)
(10.1819 -0.0836267 0)
(10.2316 -0.106433 0)
(10.2562 -0.130581 0)
(10.2984 -0.155553 0)
(10.315 -0.181125 0)
(10.3507 -0.207381 0)
(10.3614 -0.233623 0)
(10.3926 -0.260482 0)
(10.3991 -0.287109 0)
(10.4288 -0.315372 0)
(10.4281 -0.341113 0)
(10.4653 -0.362904 0)
(9.98989 0.040718 0)
(10.0547 0.0526795 0)
(10.0828 -0.00632003 0)
(10.1167 -0.0406564 0)
(10.1419 -0.0641087 0)
(10.1904 -0.082266 0)
(10.2223 -0.102105 0)
(10.269 -0.121026 0)
(10.2935 -0.142775 0)
(10.332 -0.164028 0)
(10.3483 -0.187448 0)
(10.3802 -0.210141 0)
(10.3904 -0.234452 0)
(10.4174 -0.257978 0)
(10.4229 -0.282851 0)
(10.4473 -0.307893 0)
(10.4462 -0.332531 0)
(10.4768 -0.352938 0)
(9.99051 0.0315921 0)
(10.0685 0.0220309 0)
(10.1261 -0.0557345 0)
(10.177 -0.0967545 0)
(10.2125 -0.119788 0)
(10.2609 -0.132756 0)
(10.2938 -0.147801 0)
(10.3361 -0.161691 0)
(10.3601 -0.179876 0)
(10.3941 -0.196967 0)
(10.4103 -0.217416 0)
(10.4377 -0.236303 0)
(10.4479 -0.258052 0)
(10.4702 -0.278125 0)
(10.4754 -0.300811 0)
(10.4946 -0.322441 0)
(10.494 -0.345299 0)
(10.5187 -0.36359 0)
(9.99118 0.00988096 0)
(10.092 -0.0296962 0)
(10.187 -0.120831 0)
(10.2595 -0.162773 0)
(10.3093 -0.181136 0)
(10.359 -0.187177 0)
(10.3929 -0.196062 0)
(10.4305 -0.204403 0)
(10.4542 -0.218149 0)
(10.4837 -0.23079 0)
(10.5002 -0.24765 0)
(10.5233 -0.262684 0)
(10.5338 -0.281395 0)
(10.5517 -0.298087 0)
(10.5572 -0.318149 0)
(10.5719 -0.336489 0)
(10.5723 -0.357072 0)
(10.592 -0.373218 0)
(9.99278 -0.0233554 0)
(10.1275 -0.103587 0)
(10.2671 -0.20491 0)
(10.3665 -0.241585 0)
(10.4319 -0.250808 0)
(10.4835 -0.248402 0)
(10.5183 -0.250917 0)
(10.5517 -0.253723 0)
(10.5753 -0.263004 0)
(10.6012 -0.27137 0)
(10.6181 -0.2847 0)
(10.6378 -0.296327 0)
(10.6487 -0.312142 0)
(10.6632 -0.325904 0)
(10.6692 -0.343444 0)
(10.6801 -0.358898 0)
(10.6814 -0.377217 0)
(10.6969 -0.391373 0)
(9.99046 -0.0715897 0)
(10.1744 -0.201158 0)
(10.3679 -0.305462 0)
(10.5001 -0.327869 0)
(10.5805 -0.322576 0)
(10.6344 -0.31021 0)
(10.669 -0.305594 0)
(10.6997 -0.302591 0)
(10.7227 -0.306733 0)
(10.746 -0.310617 0)
(10.7625 -0.319944 0)
(10.7794 -0.328093 0)
(10.7895 -0.340633 0)
(10.8006 -0.351415 0)
(10.8055 -0.366013 0)
(10.8124 -0.378579 0)
(10.8122 -0.394142 0)
(10.8222 -0.406102 0)
(9.99204 -0.136349 0)
(10.2448 -0.32299 0)
(10.5027 -0.418995 0)
(10.6712 -0.417626 0)
(10.7627 -0.394175 0)
(10.8175 -0.371111 0)
(10.8494 -0.358949 0)
(10.8772 -0.350597 0)
(10.896 -0.350115 0)
(10.9149 -0.350518 0)
(10.9253 -0.356411 0)
(10.9355 -0.361549 0)
(10.9375 -0.370855 0)
(10.9394 -0.378722 0)
(10.9339 -0.389925 0)
(10.9291 -0.399515 0)
(10.9164 -0.411443 0)
(10.9115 -0.420601 0)
(9.98975 -0.219912 0)
(10.3369 -0.468125 0)
(10.6737 -0.539737 0)
(10.8758 -0.508224 0)
(10.9697 -0.464857 0)
(11.0135 -0.428069 0)
(11.0285 -0.40482 0)
(11.0352 -0.388396 0)
(11.029 -0.381435 0)
(11.0194 -0.376989 0)
(10.998 -0.378208 0)
(10.9735 -0.37912 0)
(10.9377 -0.383847 0)
(10.8999 -0.387331 0)
(10.8522 -0.393702 0)
(10.8041 -0.399031 0)
(10.746 -0.405356 0)
(10.6944 -0.410137 0)
(9.98329 -0.332063 0)
(10.4676 -0.64231 0)
(10.8829 -0.667105 0)
(11.0724 -0.602646 0)
(11.1029 -0.537203 0)
(11.0583 -0.483133 0)
(10.9743 -0.444996 0)
(10.8731 -0.41624 0)
(10.7577 -0.39803 0)
(10.6349 -0.383294 0)
(10.5034 -0.374916 0)
(10.3665 -0.366363 0)
(10.224 -0.362484 0)
(10.0772 -0.357038 0)
(9.92844 -0.355895 0)
(9.77683 -0.353306 0)
(9.62563 -0.353012 0)
(9.47567 -0.35118 0)
(10.0025 -0.453665 0)
(10.619 -0.818956 0)
(10.9017 -0.752079 0)
(10.7933 -0.623763 0)
(10.4937 -0.512554 0)
(10.1376 -0.429208 0)
(9.77005 -0.373582 0)
(9.41751 -0.334741 0)
(9.07667 -0.307313 0)
(8.7553 -0.284631 0)
(8.44627 -0.267678 0)
(8.15314 -0.251358 0)
(7.87235 -0.240069 0)
(7.60273 -0.227368 0)
(7.34789 -0.221163 0)
(7.09832 -0.211853 0)
(6.86985 -0.210884 0)
(6.64038 -0.204209 0)
(10.0974 -0.750788 0)
(10.0458 -1.0132 0)
(9.42493 -0.801094 0)
(8.5144 -0.572188 0)
(7.65493 -0.37873 0)
(6.92875 -0.244887 0)
(6.32715 -0.167527 0)
(5.8314 -0.126258 0)
(5.40895 -0.104714 0)
(5.04832 -0.0923344 0)
(4.7282 -0.0849755 0)
(4.44744 -0.0793648 0)
(4.19101 -0.0758214 0)
(3.96209 -0.0719029 0)
(3.75036 -0.072147 0)
(3.55517 -0.0690951 0)
(3.38293 -0.0802811 0)
(3.218 -0.0828755 0)
(8.51678 -0.436063 0)
(6.11027 -0.380897 0)
(4.29833 -0.138061 0)
(3.12383 -0.0213942 0)
(2.48104 0.0191285 0)
(2.12041 0.0224673 0)
(1.89617 0.0137082 0)
(1.73484 0.00461017 0)
(1.59879 -0.0015736 0)
(1.47804 -0.00479476 0)
(1.36593 -0.00640801 0)
(1.26376 -0.00672208 0)
(1.16809 -0.00670948 0)
(1.08135 -0.00639137 0)
(0.999309 -0.00665963 0)
(0.919066 -0.00703646 0)
(0.851556 -0.0186143 0)
(0.731015 -0.00614309 0)
(-0.0520248 0.137915 0)
(-0.156966 0.0713996 0)
(-0.206811 0.0162818 0)
(-0.194803 -0.0445546 0)
(-0.117373 -0.0992753 0)
(0.0129906 -0.145297 0)
(0.187202 -0.175819 1.11353e-17)
(0.389094 -0.19375 -1.10604e-17)
(0.607441 -0.198108 0)
(0.829915 -0.192808 -1.09172e-17)
(1.04713 -0.178432 0)
(1.25011 -0.157625 0)
(1.43229 -0.130948 0)
(1.5884 -0.101548 1.06426e-17)
(1.71579 -0.0702604 0)
(1.81168 -0.0381565 0)
(1.8752 -0.00597141 -1.04455e-17)
(1.90708 0.0243249 0)
(1.90899 0.0508105 0)
(1.88301 0.072536 0)
(1.83283 0.0894845 1.01961e-17)
(1.76106 0.101003 0)
(1.67162 0.108839 1.00742e-17)
(1.56622 0.111696 0)
(1.4495 0.109738 0)
(1.32422 0.108021 9.89549e-18)
(1.19062 0.111256 0)
(1.04795 0.116314 -9.77917e-18)
(0.899406 0.121512 0)
(0.745562 0.126537 9.6643e-18)
(0.587951 0.130547 0)
(0.428836 0.13302 0)
(0.270463 0.134191 0)
(0.113311 0.133982 0)
(-0.0423195 0.131108 0)
(-0.194367 0.12644 -9.32965e-18)
(-0.341184 0.120341 0)
(-0.482345 0.113835 1.84406e-17)
(-0.616398 0.107322 0)
(-0.74291 0.100074 -1.82217e-17)
(-0.860428 0.0930334 0)
(-0.969107 0.0862743 0)
(-1.06939 0.0785603 1.78885e-17)
(-1.16079 0.0702349 0)
(-1.24393 0.062555 1.76653e-17)
(-1.3189 0.0553234 -1.75532e-17)
(-1.38516 0.0483186 0)
(-1.44357 0.0422607 -1.73282e-17)
(-1.49522 0.0369238 -1.72152e-17)
(-1.53911 0.0332367 0)
(-1.57539 0.0316367 0)
(-1.60597 0.0316102 0)
(-1.63297 0.0316991 0)
(-1.65738 0.0316668 0)
(-1.6806 0.0325212 1.65281e-17)
(-1.70445 0.034054 0)
(-1.73028 0.0362782 -1.62989e-17)
(-1.75681 0.0383139 0)
(-1.78286 0.0389465 0)
(-1.8084 0.0395726 1.59524e-17)
(-1.83415 0.041363 0)
(-1.86199 0.0425934 -1.57211e-17)
(-1.89182 0.0442481 0)
(-1.92345 0.0457402 0)
(-1.95645 0.0466114 0)
(-1.99022 0.0478175 1.52555e-17)
(-2.02443 0.0496452 0)
(-2.05933 0.0518605 0)
(-2.0947 0.0542598 1.49058e-17)
(-2.13085 0.0557269 0)
(-2.16478 0.0559727 1.46711e-17)
(-2.19564 0.0563616 0)
(-2.22331 0.0565585 0)
(-2.24674 0.0564005 0)
(-2.265 0.0558062 -1.4205e-17)
(-2.27736 0.054584 0)
(-2.2845 0.053866 0)
(-2.28834 0.0538013 -1.38612e-17)
(-2.28931 0.0528444 -1.37478e-17)
(-2.28569 0.0511975 0)
(-2.27568 0.0489393 -1.35225e-17)
(-2.25913 0.0460169 0)
(-2.23566 0.0428532 -2.66021e-17)
(-2.20524 0.0394099 0)
(-2.16841 0.0357202 -2.61666e-17)
(-2.12502 0.0326548 0)
(-2.0761 0.0302507 2.57377e-17)
(-2.02254 0.0282896 0)
(-1.96443 0.0268649 0)
(-1.90242 0.0259102 0)
(-1.83803 0.0253244 -2.49006e-17)
(-1.77101 0.025072 0)
(-1.70298 0.0250354 2.44988e-17)
(-1.63397 0.0256265 0)
(-1.5647 0.0266719 -2.41094e-17)
(-1.49713 0.0292088 -2.39209e-17)
(-1.43042 0.030363 -2.37365e-17)
(-1.36362 0.0314361 0)
(-1.29862 0.0315101 0)
(-1.23426 0.0327025 0)
(-1.16869 0.033475 0)
(-1.10406 0.0330802 0)
(-1.03447 0.0319473 0)
(-0.965907 0.0332656 0)
(-0.895199 0.0328996 0)
(-0.828327 0.0352405 2.22127e-17)
(-0.761124 0.0357376 2.20605e-17)
(-0.698949 0.0401219 0)
(-0.638393 0.0413889 0)
(-0.582806 0.0410688 0)
(-0.515371 0.0384584 2.14803e-17)
(-0.453209 0.0426134 0)
(-0.384313 0.0407984 0)
(-0.319517 0.043719 0)
(-0.248768 0.040672 0)
(-0.175972 0.0431695 -2.08062e-17)
(-0.101063 0.0447418 0)
(-0.0206448 0.043773 0)
(0.0644347 0.0450857 2.04291e-17)
(0.153347 0.0450598 -2.03076e-17)
(0.245344 0.0443559 0)
(0.342019 0.0482049 -2.00748e-17)
(0.433871 0.0512211 0)
(0.526657 0.0544774 1.98483e-17)
(0.609253 0.0591745 0)
(0.680847 0.0621746 0)
(0.756224 0.062476 0)
(0.825625 0.0632254 0)
(0.90522 0.0603932 0)
(0.978878 0.0609846 -3.83966e-17)
(1.05438 0.0626752 -3.81776e-17)
(1.11426 0.067521 0)
(1.16455 0.0664371 0)
(1.20952 0.067497 0)
(1.24706 0.0634655 3.72528e-17)
(1.29577 0.0587021 0)
(1.34597 0.0570334 0)
(1.39152 0.0558917 0)
(1.44025 0.054043 3.62323e-17)
(1.47749 0.0567097 -3.59642e-17)
(1.52074 0.052638 0)
(1.56003 0.0527134 0)
(1.60154 0.0531837 -3.51494e-17)
(1.62756 0.0583003 -3.48766e-17)
(1.65737 0.0549822 0)
(1.68565 0.0587675 0)
(1.72457 0.0557493 3.40436e-17)
(1.7608 0.0659939 -3.37642e-17)
(1.76894 0.071389 0)
(1.78239 0.0707746 0)
(1.80764 0.0710965 -3.29274e-17)
(1.84082 0.0758635 0)
(1.85435 0.0834065 0)
(1.86574 0.0891621 -3.20834e-17)
(1.86497 0.0932807 0)
(1.87918 0.0981367 -3.15233e-17)
(1.88104 0.105119 0)
(1.88673 0.109188 0)
(1.87385 0.12074 0)
(1.86051 0.126595 3.04341e-17)
(1.84552 0.133092 0)
(1.81371 0.142902 0)
(1.7419 0.154523 0)
(1.6651 0.154553 0)
(1.59986 0.156842 0)
(1.51044 0.165634 0)
(1.38275 0.172444 2.88936e-17)
(1.26389 0.173775 2.87395e-17)
(1.08004 0.181772 0)
(0.873165 0.184463 0)
(0.630062 0.183454 0)
(0.414141 0.169753 -2.83221e-17)
(0.192427 0.162661 0)
(0.0408265 0.146471 5.63493e-17)
(-0.159551 0.143904 -5.62397e-17)
(-0.262817 0.123675 -5.60603e-17)
(-0.424338 0.126728 5.59562e-17)
(-0.459512 0.0965812 -5.57537e-17)
(-0.617108 0.129117 5.57336e-17)
(-0.564939 -0.00403036 0)
(0.0101199 0.248684 0)
(0.014627 0.191754 0)
(0.0498394 0.00735221 -2.27961e-17)
(0.121287 -0.19882 0)
(0.236307 -0.384807 2.23648e-17)
(0.388699 -0.53617 2.22181e-17)
(0.569916 -0.644994 1.10436e-17)
(0.769838 -0.710869 1.09813e-17)
(0.977169 -0.737406 0)
(1.18134 -0.731047 1.08542e-17)
(1.37371 -0.695116 0)
(1.54697 -0.63671 0)
(1.69713 -0.561967 -2.13199e-17)
(1.81949 -0.477392 -1.05948e-17)
(1.91397 -0.385321 2.10554e-17)
(1.9788 -0.290642 2.09219e-17)
(2.01532 -0.198207 1.03954e-17)
(2.02363 -0.110088 0)
(2.00618 -0.0270318 0)
(1.96295 0.0477137 0)
(1.89783 0.113165 1.01364e-17)
(1.81088 0.172217 0)
(1.70679 0.225013 -3.00368e-17)
(1.58439 0.267699 0)
(1.446 0.302527 0)
(1.29215 0.332957 -9.83175e-18)
(1.12632 0.35678 0)
(0.95125 0.373928 9.71543e-18)
(0.770774 0.384845 1.93125e-17)
(0.585774 0.391987 -9.59747e-18)
(0.399037 0.394009 0)
(0.211835 0.390174 0)
(0.0238361 0.382881 0)
(-0.164484 0.375931 1.8731e-17)
(-0.351349 0.367372 1.86166e-17)
(-0.535475 0.355145 9.2513e-18)
(-0.714152 0.340448 0)
(-0.88791 0.323438 -1.82764e-17)
(-1.05282 0.302969 0)
(-1.21112 0.281161 1.8051e-17)
(-1.36117 0.258769 0)
(-1.50462 0.23599 0)
(-1.63989 0.21558 -1.77169e-17)
(-1.76791 0.196446 0)
(-1.89114 0.178453 -5.24872e-17)
(-2.00864 0.159634 1.73859e-17)
(-2.11953 0.140679 0)
(-2.22341 0.123779 1.71657e-17)
(-2.32114 0.106172 1.70554e-17)
(-2.41147 0.0866597 0)
(-2.49257 0.0677401 0)
(-2.56657 0.0531988 0)
(-2.63532 0.0437142 0)
(-2.70076 0.0388171 0)
(-2.76235 0.0373771 -1.63737e-17)
(-2.82202 0.0368331 -3.25152e-17)
(-2.88015 0.0368656 1.61414e-17)
(-2.93387 0.0342503 0)
(-2.98529 0.0302928 -3.1813e-17)
(-3.03455 0.0289531 1.57874e-17)
(-3.081 0.029924 0)
(-3.12844 0.0308419 1.55499e-17)
(-3.17368 0.0335274 0)
(-3.21694 0.0349403 0)
(-3.25856 0.0344842 3.03752e-17)
(-3.29919 0.0338299 -1.50673e-17)
(-3.33529 0.0317449 2.98917e-17)
(-3.36885 0.0289508 -2.96504e-17)
(-3.3964 0.0252253 -1.47046e-17)
(-3.42077 0.0203714 0)
(-3.43874 0.0127857 -1.44628e-17)
(-3.44999 0.00259208 0)
(-3.45554 -0.00810684 0)
(-3.4527 -0.020586 0)
(-3.44067 -0.0347777 -1.39829e-17)
(-3.42042 -0.0487616 0)
(-3.39369 -0.0588831 -2.74948e-17)
(-3.36116 -0.0659981 4.08938e-17)
(-3.3233 -0.0744748 1.35161e-17)
(-3.2792 -0.0854859 0)
(-3.22721 -0.0981484 1.32876e-17)
(-3.16998 -0.110783 0)
(-3.10714 -0.122804 2.61237e-17)
(-3.03917 -0.133795 0)
(-2.96622 -0.144266 2.56807e-17)
(-2.88818 -0.153607 -5.09214e-17)
(-2.80623 -0.162472 -2.52467e-17)
(-2.72191 -0.170378 0)
(-2.63263 -0.177866 0)
(-2.54117 -0.183443 0)
(-2.44754 -0.187621 2.44063e-17)
(-2.35061 -0.191651 0)
(-2.25247 -0.194328 -2.4e-17)
(-2.15438 -0.194678 0)
(-2.05571 -0.196235 7.08187e-17)
(-1.95715 -0.195515 2.34161e-17)
(-1.85802 -0.196478 2.32301e-17)
(-1.76105 -0.193643 0)
(-1.66648 -0.19306 0)
(-1.57135 -0.19395 0)
(-1.4737 -0.194602 0)
(-1.37705 -0.197008 0)
(-1.27476 -0.201291 4.43206e-17)
(-1.17882 -0.199429 4.39848e-17)
(-1.07953 -0.199537 0)
(-0.992517 -0.193884 -2.16748e-17)
(-0.896611 -0.1948 -2.15228e-17)
(-0.809909 -0.188095 0)
(-0.715518 -0.187082 -4.2443e-17)
(-0.637351 -0.186379 0)
(-0.541108 -0.196657 2.09377e-17)
(-0.455379 -0.19084 0)
(-0.349807 -0.199208 0)
(-0.255342 -0.195671 -4.10583e-17)
(-0.142273 -0.204474 0)
(-0.0382152 -0.204591 2.02725e-17)
(0.0870647 -0.212402 0)
(0.213515 -0.220095 0)
(0.349769 -0.224698 1.98873e-17)
(0.490894 -0.229373 1.97709e-17)
(0.636881 -0.235027 0)
(0.78681 -0.235673 -1.95335e-17)
(0.946867 -0.236817 0)
(1.1065 -0.228744 1.92968e-17)
(1.27169 -0.219142 3.83635e-17)
(1.41982 -0.212711 0)
(1.57682 -0.213765 0)
(1.72193 -0.213767 0)
(1.88155 -0.215283 0)
(2.02838 -0.210265 3.72312e-17)
(2.18262 -0.206889 1.11009e-16)
(2.3188 -0.187951 0)
(2.44265 -0.183008 0)
(2.56164 -0.172748 0)
(2.66699 -0.174813 -3.60804e-17)
(2.76981 -0.179516 0)
(2.87125 -0.178926 0)
(2.96669 -0.177175 7.06158e-17)
(3.06042 -0.176446 3.50337e-17)
(3.13441 -0.170494 3.4765e-17)
(3.22169 -0.179901 0)
(3.2857 -0.173787 0)
(3.3539 -0.175066 3.39203e-17)
(3.39994 -0.163979 -3.36146e-17)
(3.44579 -0.178105 0)
(3.47496 -0.174706 0)
(3.50922 -0.190839 -3.27218e-17)
(3.53703 -0.172958 9.71893e-17)
(3.55143 -0.168687 0)
(3.56179 -0.179569 0)
(3.57294 -0.191271 3.14603e-17)
(3.59335 -0.18919 0)
(3.58896 -0.182747 6.16272e-17)
(3.58689 -0.18087 -3.04725e-17)
(3.55946 -0.185289 0)
(3.55543 -0.194264 2.98465e-17)
(3.53098 -0.190671 5.90582e-17)
(3.51945 -0.192229 0)
(3.47263 -0.185403 0)
(3.44861 -0.194316 -2.85759e-17)
(3.40839 -0.18641 0)
(3.35106 -0.16944 5.58917e-17)
(3.25418 -0.150015 0)
(3.16201 -0.155017 0)
(3.04316 -0.147093 0)
(2.91542 -0.122105 0)
(2.72152 -0.102807 -2.66552e-17)
(2.56297 -0.0758773 -2.64659e-17)
(2.27909 -0.0263806 0)
(2.00603 -0.00143939 0)
(1.67656 0.022826 0)
(1.38166 0.0188797 2.59606e-17)
(1.04876 0.0231106 0)
(0.841766 0.0140052 -5.16736e-17)
(0.521314 0.0330123 5.16465e-17)
(0.406555 0.00126736 5.14978e-17)
(0.125282 0.0320766 5.14879e-17)
(0.125392 -0.0158662 5.13353e-17)
(-0.1711 0.07893 5.14985e-17)
(0.0154525 -0.117107 0)
(0.0290175 0.0710516 0)
(0.121076 -0.0386658 0)
(0.228128 -0.242079 2.29131e-17)
(0.340238 -0.468973 2.26645e-17)
(0.474677 -0.693503 -2.2513e-17)
(0.618759 -0.875337 -2.24003e-17)
(0.772942 -1.00394 -1.48142e-21)
(0.9242 -1.07417 0)
(1.06929 -1.08488 0)
(1.19603 -1.04562 0)
(1.30475 -0.965645 0)
(1.39065 -0.856196 0)
(1.45614 -0.725549 6.47123e-17)
(1.49668 -0.585223 0)
(1.51514 -0.440275 -2.1305e-17)
(1.50971 -0.293693 -2.11687e-17)
(1.48325 -0.152156 0)
(1.43435 -0.0185356 0)
(1.36766 0.105421 0)
(1.28295 0.217933 0)
(1.18255 0.317234 -2.05025e-17)
(1.0673 0.400162 0)
(0.942225 0.472378 2.02485e-17)
(0.8046 0.537316 0)
(0.657307 0.591996 0)
(0.501701 0.636739 0)
(0.343165 0.672519 3.9525e-17)
(0.180691 0.699557 0)
(0.0167838 0.718824 -1.95223e-17)
(-0.148117 0.729072 3.88e-17)
(-0.312272 0.732085 0)
(-0.478669 0.733677 0)
(-0.645262 0.730589 0)
(-0.810654 0.721055 -1.89166e-17)
(-0.972425 0.705783 -1.87959e-17)
(-1.13102 0.68432 0)
(-1.28483 0.657125 0)
(-1.43305 0.625749 3.68594e-17)
(-1.57428 0.591784 3.66198e-17)
(-1.71372 0.55744 -3.63815e-17)
(-1.84807 0.524675 0)
(-1.98058 0.4911 0)
(-2.10742 0.458859 0)
(-2.23056 0.429416 0)
(-2.34946 0.401665 3.52007e-17)
(-2.46233 0.372346 3.4967e-17)
(-2.57005 0.342651 -3.47351e-17)
(-2.67218 0.314071 0)
(-2.76822 0.286135 0)
(-2.85893 0.257105 0)
(-2.94431 0.230257 0)
(-3.02972 0.212447 3.35758e-17)
(-3.1092 0.196536 0)
(-3.18365 0.183329 0)
(-3.2516 0.175534 3.28781e-17)
(-3.31487 0.170358 3.26465e-17)
(-3.37277 0.16347 0)
(-3.42304 0.154094 -6.43598e-17)
(-3.47138 0.147215 3.19485e-17)
(-3.51574 0.140775 -3.17141e-17)
(-3.55435 0.137009 0)
(-3.59003 0.13432 0)
(-3.61969 0.130158 0)
(-3.64444 0.125939 0)
(-3.66662 0.120719 -3.05525e-17)
(-3.68452 0.11331 -6.0646e-17)
(-3.69616 0.105341 -3.00974e-17)
(-3.70408 0.0968556 2.98725e-17)
(-3.7048 0.0852278 0)
(-3.70044 0.071964 -5.88394e-17)
(-3.68808 0.0558802 -5.83909e-17)
(-3.67043 0.0397089 -5.79458e-17)
(-3.64855 0.0219193 5.75039e-17)
(-3.61785 -0.00035523 0)
(-3.5802 -0.023019 8.49402e-17)
(-3.53672 -0.0424703 0)
(-3.48849 -0.0578815 -2.78772e-17)
(-3.4317 -0.0715957 -2.76643e-17)
(-3.36696 -0.0870922 0)
(-3.29609 -0.103771 0)
(-3.22174 -0.120371 -5.40403e-17)
(-3.14521 -0.135124 0)
(-3.06472 -0.149265 -5.31934e-17)
(-2.9817 -0.162845 0)
(-2.89413 -0.177178 5.23546e-17)
(-2.80306 -0.188517 1.03881e-16)
(-2.70827 -0.198247 0)
(-2.61262 -0.207379 0)
(-2.51394 -0.214802 0)
(-2.41657 -0.220865 5.029e-17)
(-2.3175 -0.226698 0)
(-2.21514 -0.23139 4.9468e-17)
(-2.10997 -0.234655 0)
(-2.00435 -0.233888 0)
(-1.89633 -0.23404 -9.65027e-17)
(-1.79107 -0.23159 0)
(-1.68388 -0.231016 -4.74603e-17)
(-1.58089 -0.224925 0)
(-1.47368 -0.225657 -4.66926e-17)
(-1.36731 -0.224875 0)
(-1.25872 -0.223992 0)
(-1.1515 -0.227791 0)
(-1.04139 -0.230109 -1.35689e-16)
(-0.941596 -0.221674 -4.48683e-17)
(-0.832957 -0.218368 0)
(-0.740195 -0.20792 0)
(-0.638794 -0.209368 0)
(-0.553545 -0.197204 0)
(-0.44957 -0.193551 4.32344e-17)
(-0.36385 -0.188453 -8.5834e-17)
(-0.257034 -0.205265 -4.26321e-17)
(-0.170143 -0.197519 8.46564e-17)
(-0.0507123 -0.213631 8.40939e-17)
(0.0509232 -0.209644 4.1761e-17)
(0.180817 -0.22482 0)
(0.293412 -0.225531 8.23963e-17)
(0.432223 -0.241741 0)
(0.564407 -0.251014 -8.12856e-17)
(0.712961 -0.258056 -4.03847e-17)
(0.859559 -0.262849 0)
(1.01487 -0.271277 7.97633e-17)
(1.1644 -0.274238 3.96285e-17)
(1.32706 -0.282255 0)
(1.48627 -0.2801 3.90902e-17)
(1.66042 -0.269606 -1.16509e-16)
(1.82022 -0.257249 0)
(1.98468 -0.256187 0)
(2.13671 -0.255797 0)
(2.29701 -0.259104 0)
(2.45364 -0.254523 -7.51555e-17)
(2.60967 -0.251288 -7.46569e-17)
(2.76095 -0.220407 0)
(2.89903 -0.214318 0)
(3.03007 -0.201706 0)
(3.15172 -0.20022 0)
(3.25878 -0.205356 0)
(3.37844 -0.208441 0)
(3.49171 -0.20749 -7.09521e-17)
(3.60525 -0.205228 -1.65139e-20)
(3.69906 -0.196197 0)
(3.80928 -0.209393 0)
(3.89733 -0.196828 -6.86072e-17)
(3.99048 -0.197366 0)
(4.06861 -0.176364 6.74258e-17)
(4.13846 -0.187356 6.68086e-17)
(4.17968 -0.169938 0)
(4.23417 -0.188442 0)
(4.27213 -0.1644 -6.49e-17)
(4.32232 -0.155701 -1.2851e-16)
(4.34956 -0.159924 0)
(4.38246 -0.172103 0)
(4.42376 -0.163089 0)
(4.43704 -0.148833 -6.1692e-17)
(4.46541 -0.135634 6.10045e-17)
(4.46465 -0.135286 0)
(4.48416 -0.141446 1.19376e-16)
(4.4677 -0.129453 5.90342e-17)
(4.48462 -0.127995 -1.16775e-16)
(4.46197 -0.10939 0)
(4.46048 -0.116673 0)
(4.43028 -0.095267 -1.12759e-16)
(4.3892 -0.0676735 -5.5723e-17)
(4.30487 -0.0382241 0)
(4.24125 -0.036358 0)
(4.10949 -0.0188526 0)
(4.00038 0.023819 0)
(3.78892 0.0518582 -1.05601e-16)
(3.62086 0.0955141 0)
(3.3232 0.166976 0)
(3.06464 0.191819 0)
(2.71474 0.219513 0)
(2.40108 0.202731 0)
(2.01242 0.186635 0)
(1.77572 0.153567 -1.00648e-16)
(1.37054 0.151006 0)
(1.24171 0.0832111 0)
(0.857444 0.105472 -1.99437e-16)
(0.852659 0.0228403 9.92581e-17)
(0.46724 0.111571 -9.94116e-17)
(0.66299 -0.128151 9.87921e-17)
(0.0206191 -0.0941985 0)
(0.125061 -0.269763 -4.69561e-17)
(0.247804 -0.490528 0)
(0.375689 -0.755968 -2.27967e-17)
(0.502228 -0.999435 0)
(0.618144 -1.18805 0)
(0.722522 -1.3055 2.24456e-17)
(0.80289 -1.34863 0)
(0.865516 -1.31864 0)
(0.904505 -1.23278 0)
(0.926344 -1.10997 0)
(0.928888 -0.960594 0)
(0.916946 -0.7933 -8.66161e-17)
(0.887868 -0.615942 -4.30253e-17)
(0.845148 -0.43295 4.27458e-17)
(0.788523 -0.251664 0)
(0.720043 -0.0787863 0)
(0.638381 0.0827528 0)
(0.546998 0.231535 0)
(0.445412 0.364864 0)
(0.336393 0.482332 -4.11507e-17)
(0.218129 0.584059 -4.0898e-17)
(0.0919597 0.674612 4.06489e-17)
(-0.0399876 0.750452 -4.04012e-17)
(-0.176038 0.813051 0)
(-0.314815 0.861 0)
(-0.455102 0.896903 -3.9658e-17)
(-0.595733 0.921474 0)
(-0.73728 0.935462 0)
(-0.879357 0.94393 -3.89248e-17)
(-1.02202 0.949287 -3.86815e-17)
(-1.16256 0.946901 -3.8437e-17)
(-1.30005 0.937739 0)
(-1.43427 0.922434 0)
(-1.56393 0.901029 3.76935e-17)
(-1.68861 0.871485 0)
(-1.8093 0.835986 0)
(-1.92631 0.796515 -3.69489e-17)
(-2.04027 0.758501 3.66973e-17)
(-2.15264 0.720374 -3.64486e-17)
(-2.25854 0.681609 0)
(-2.36278 0.642217 0)
(-2.46297 0.605869 -7.14198e-17)
(-2.56041 0.57161 0)
(-2.65251 0.533464 -7.04539e-17)
(-2.74113 0.495328 -1.04964e-16)
(-2.82609 0.459423 1.04243e-16)
(-2.90577 0.423049 -6.90149e-17)
(-2.98224 0.385725 0)
(-3.0561 0.350037 0)
(-3.12951 0.32181 -6.76025e-17)
(-3.20015 0.297276 -3.35708e-17)
(-3.26444 0.271678 0)
(-3.32457 0.250594 0)
(-3.38012 0.235239 -3.28787e-17)
(-3.43023 0.218376 -6.52975e-17)
(-3.47412 0.199414 0)
(-3.51204 0.181487 6.43796e-17)
(-3.5461 0.167093 -6.39204e-17)
(-3.57476 0.15349 6.34647e-17)
(-3.59767 0.139607 0)
(-3.61434 0.126367 0)
(-3.62659 0.115207 0)
(-3.63349 0.103991 0)
(-3.63674 0.0938025 0)
(-3.63458 0.0779103 6.07746e-17)
(-3.62805 0.0606844 0)
(-3.61487 0.0419672 0)
(-3.59592 0.0209026 0)
(-3.57289 -0.00110385 1.18047e-16)
(-3.54435 -0.025138 5.85913e-17)
(-3.51105 -0.0491974 5.81577e-17)
(-3.47272 -0.0762266 -1.15457e-16)
(-3.42801 -0.107642 5.73034e-17)
(-3.37989 -0.13769 -5.68839e-17)
(-3.32553 -0.165211 0)
(-3.2663 -0.191195 5.6037e-17)
(-3.19717 -0.21785 0)
(-3.12387 -0.242948 0)
(-3.04499 -0.264745 0)
(-2.96464 -0.285409 1.08718e-16)
(-2.88219 -0.304506 -5.39456e-17)
(-2.79649 -0.323464 -5.35322e-17)
(-2.70959 -0.342244 -1.0627e-16)
(-2.61876 -0.362121 -1.58214e-16)
(-2.52698 -0.37796 -5.23429e-17)
(-2.43042 -0.390937 0)
(-2.33421 -0.402372 -1.03069e-16)
(-2.23644 -0.410364 0)
(-2.13876 -0.416514 -1.52202e-16)
(-2.04036 -0.42643 0)
(-1.9431 -0.432836 -1.49828e-16)
(-1.83978 -0.439163 0)
(-1.73599 -0.439847 0)
(-1.62746 -0.441462 -4.87457e-17)
(-1.52037 -0.438222 0)
(-1.40997 -0.437814 4.79713e-17)
(-1.30427 -0.433162 9.51546e-17)
(-1.19073 -0.434832 4.72027e-17)
(-1.08114 -0.436609 9.36478e-17)
(-0.96307 -0.437136 -9.28909e-17)