/*--------------------------------*- C++ -*----------------------------------*\
| =========                 |                                                 |
| \\      /  F ield         | OpenFOAM: The Open Source CFD Toolbox           |
|  \\    /   O peration     | Version:  dev                                   |
|   \\  /    A nd           | Web:      http://www.openfoam.org               |
|    \\/     M anipulation  |                                                 |
\*---------------------------------------------------------------------------*/
FoamFile
{
    version     2.0;
    format      ascii;
    class       volSymmTensorField;
    object      UPrime2Mean;
    location    "9.14";
}
// * * * * * * * * * * * * * * * * * * * * * * * * * * * * * * * * * * * * * //

dimensions      [0 2 -2 0 0 0 0];

internalField   nonuniform List<symmTensor> 
12225
(
(0.329434 0.0192627 0 0.0692607 0 0)
(2.98799 0.0796616 0 0.0781834 0 0)
(7.88517 0.112247 0 0.0768872 0 0)
(14.5432 0.148145 0 0.075564 0 0)
(22.7166 0.132883 0 0.0765091 0 0)
(32.0861 0.200968 0 0.0746676 0 0)
(42.4044 0.0958325 0 0.0766068 0 0)
(53.554 0.200233 0 0.0738475 0 0)
(65.6541 -0.0285405 0 0.0776069 0 0)
(78.2575 0.12549 0 0.0736172 0 0)
(93.011 -0.306288 0 0.0813061 0 0)
(107.359 -0.115946 0 0.0769917 0 0)
(127.978 -0.672132 0 0.0863025 0 0)
(145.684 -1.2774 0 0.134732 0 0)
(186.028 -1.41109 0 0.116475 0 0)
(198.598 -0.392611 0 2.39458 0 0)
(272.412 -33.5481 0 5.81027 0 0)
(575.999 -52.9595 0 18.8324 0 0)
(0.377631 0.0567766 0 0.688914 0 0)
(3.15804 0.252144 0 0.732202 0 0)
(8.41599 0.361964 0 0.714067 0 0)
(15.4829 0.485195 0 0.706565 0 0)
(24.2119 0.452707 0 0.703427 0 0)
(34.4771 0.632563 0 0.683272 0 0)
(45.5505 0.295768 0 0.69205 0 0)
(58.5135 0.608745 0 0.658746 0 0)
(71.5106 -0.135379 0 0.68258 0 0)
(87.1941 0.282376 0 0.645945 0 0)
(102.834 -1.06521 0 0.711236 0 0)
(121.488 -0.766322 0 0.655466 0 0)
(142.918 -2.5427 0 1.06905 0 0)
(166.392 -4.4916 0 1.04703 0 0)
(199.862 -0.9249 0 3.10406 0 0)
(274.505 -9.97612 0 6.61018 0 0)
(281.14 -20.8432 0 8.73854 0 0)
(800.18 -185.245 0 64.7206 0 0)
(0.505232 0.0583168 0 2.1404 0 0)
(3.06583 0.424476 0 2.20232 0 0)
(8.47098 0.570279 0 2.15125 0 0)
(14.8615 0.851596 0 2.14273 0 0)
(24.2898 0.864135 0 2.11965 0 0)
(33.1699 1.05271 0 2.08245 0 0)
(45.2957 0.755856 0 2.07819 0 0)
(56.2337 0.885914 0 2.00743 0 0)
(69.7224 0.171902 0 2.05155 0 0)
(83.4933 0.0163768 0 1.95921 0 0)
(98.2366 -1.12351 0 2.12242 0 0)
(115.724 -2.44908 0 2.09443 0 0)
(138.69 -3.59623 0 2.62242 0 0)
(154.954 -7.19969 0 2.8315 0 0)
(211.118 -13.013 0 6.12499 0 0)
(223.505 -7.88556 0 6.38048 0 0)
(353.191 -62.2815 0 31.0912 0 0)
(534.817 -192.607 0 98.2956 0 0)
(1.03026 0.0922918 0 4.67009 0 0)
(3.55167 0.619307 0 4.76665 0 0)
(9.07444 0.815511 0 4.64246 0 0)
(15.0753 1.14953 0 4.60171 0 0)
(24.651 1.31243 0 4.55746 0 0)
(33.003 1.34933 0 4.48311 0 0)
(45.031 1.26086 0 4.44815 0 0)
(55.1995 0.972824 0 4.3496 0 0)
(68.6389 0.47531 0 4.38139 0 0)
(80.759 -0.283573 0 4.25771 0 0)
(96.0885 -1.3316 0 4.50715 0 0)
(110.575 -3.34335 0 4.37228 0 0)
(131.545 -4.79446 0 5.30231 0 0)
(152.336 -10.975 0 5.60904 0 0)
(187.962 -11.4288 0 9.28832 0 0)
(238.556 -28.8689 0 16.8311 0 0)
(291.646 -58.951 0 32.6876 0 0)
(415.003 -178.368 0 107.847 0 0)
(1.86393 0.364962 0 8.52207 0 0)
(5.01081 0.720024 0 8.72357 0 0)
(9.4414 1.13964 0 8.47241 0 0)
(16.2499 1.29409 0 8.36929 0 0)
(24.6634 1.70025 0 8.27971 0 0)
(33.9646 1.50172 0 8.14461 0 0)
(44.8462 1.59711 0 8.04399 0 0)
(55.5528 0.992054 0 7.9119 0 0)
(68.4536 0.599454 0 7.85893 0 0)
(80.165 -0.595121 0 7.76108 0 0)
(95.4241 -1.7805 0 7.96292 0 0)
(108.616 -4.22965 0 7.91016 0 0)
(128.169 -6.88296 0 9.02756 0 0)
(145.299 -12.2907 0 9.26948 0 0)
(174.062 -19.2066 0 14.5923 0 0)
(218.018 -25.9593 0 17.2151 0 0)
(233.798 -55.596 0 46.2755 0 0)
(326.822 -171.801 0 138.695 0 0)
(2.56305 0.750583 0 14.0389 0 0)
(6.32817 0.806896 0 14.3908 0 0)
(9.30635 1.53945 0 13.9609 0 0)
(17.1063 1.59382 0 13.7662 0 0)
(24.1557 2.11984 0 13.5915 0 0)
(34.2862 1.93559 0 13.3595 0 0)
(44.0022 1.98996 0 13.1544 0 0)
(55.2037 1.41391 0 12.9136 0 0)
(67.3674 0.892798 0 12.7771 0 0)
(78.9556 -0.388099 0 12.5761 0 0)
(94.479 -1.74096 0 12.7767 0 0)
(105.89 -4.3151 0 12.6853 0 0)
(128.183 -7.27056 0 13.988 0 0)
(138.016 -13.1604 0 14.6684 0 0)
(171.061 -21.8443 0 21.2531 0 0)
(191.591 -33.0482 0 24.6057 0 0)
(211.171 -55.9272 0 51.5863 0 0)
(265.809 -145.717 0 130.675 0 0)
(2.24715 0.721907 0 21.5308 0 0)
(5.54937 0.941192 0 22.147 0 0)
(9.20733 1.7631 0 21.3726 0 0)
(16.352 2.07681 0 21.1849 0 0)
(23.9898 2.44874 0 20.7862 0 0)
(33.3868 2.54158 0 20.5531 0 0)
(43.6408 2.27243 0 20.0848 0 0)
(54.0852 1.92648 0 19.8549 0 0)
(66.5295 0.894348 0 19.4371 0 0)
(77.4114 -0.220596 0 19.2842 0 0)
(92.5775 -2.37541 0 19.2244 0 0)
(103.563 -4.82598 0 19.267 0 0)
(123.719 -8.98633 0 20.477 0 0)
(134.006 -14.2661 0 21.4555 0 0)
(161.632 -24.4106 0 28.52 0 0)
(169.481 -32.4217 0 32.0552 0 0)
(203.495 -59.0312 0 56.8775 0 0)
(190.362 -108.816 0 114.186 0 0)
(1.42674 0.598897 0 29.7522 0 0)
(4.32632 1.13465 0 30.6378 0 0)
(8.58992 1.92333 0 29.4903 0 0)
(15.2624 2.47183 0 29.3192 0 0)
(23.223 2.77597 0 28.6739 0 0)
(32.2871 2.96183 0 28.413 0 0)
(42.4477 2.59598 0 27.6611 0 0)
(52.8236 2.18885 0 27.3807 0 0)
(64.4699 1.00424 0 26.6567 0 0)
(75.662 -0.366688 0 26.4918 0 0)
(88.7026 -2.75649 0 26.1083 0 0)
(100.491 -5.74006 0 26.3332 0 0)
(115.619 -10.328 0 27.0894 0 0)
(128.15 -15.8066 0 28.6048 0 0)
(144.751 -26.5015 0 33.9197 0 0)
(152.113 -33.4723 0 37.4843 0 0)
(180.43 -54.9149 0 53.1954 0 0)
(139.671 -71.3332 0 83.7204 0 0)
(1.00866 0.521456 0 38.5225 0 0)
(3.78106 1.28754 0 39.7169 0 0)
(8.18566 2.03498 0 38.1794 0 0)
(14.737 2.77852 0 38.0383 0 0)
(22.6675 3.00407 0 37.1284 0 0)
(31.6061 3.31355 0 36.8533 0 0)
(41.5306 2.80206 0 35.8023 0 0)
(51.8061 2.46983 0 35.4837 0 0)
(62.8683 1.03418 0 34.475 0 0)
(73.8877 -0.286329 0 34.2751 0 0)
(85.7119 -3.05209 0 33.6442 0 0)
(97.0743 -5.9107 0 33.9041 0 0)
(109.409 -10.9569 0 34.4129 0 0)
(121.286 -16.0491 0 36.1326 0 0)
(131.302 -25.5747 0 40.0158 0 0)
(138.222 -33.2197 0 44.745 0 0)
(150.075 -47.3387 0 52.4759 0 0)
(123.273 -58.7738 0 73.1435 0 0)
(0.612706 0.484496 0 49.708 0 0)
(3.23797 1.44532 0 51.2962 0 0)
(7.74605 2.18541 0 49.1997 0 0)
(14.2064 3.03424 0 49.1124 0 0)
(22.0043 3.27104 0 47.823 0 0)
(30.8661 3.57616 0 47.5438 0 0)
(40.4951 3.06098 0 46.0824 0 0)
(50.6339 2.63188 0 45.7138 0 0)
(61.1627 1.15587 0 44.2943 0 0)
(71.8348 -0.300153 0 44.0508 0 0)
(82.7211 -3.15063 0 43.0065 0 0)
(93.2676 -6.04818 0 43.3256 0 0)
(103.913 -11.1049 0 43.3259 0 0)
(113.78 -15.8575 0 45.1826 0 0)
(121.393 -24.5196 0 47.6863 0 0)
(125.833 -30.5848 0 51.9566 0 0)
(129.172 -40.7348 0 56.4792 0 0)
(116.064 -48.4065 0 69.0444 0 0)
(0.434421 0.515991 0 63.9012 0 0)
(2.9805 1.62661 0 65.9562 0 0)
(7.47325 2.38199 0 63.2645 0 0)
(13.8522 3.30813 0 63.1526 0 0)
(21.5016 3.56653 0 61.5188 0 0)
(30.203 3.85528 0 61.1042 0 0)
(39.5653 3.35111 0 59.2962 0 0)
(49.4071 2.81222 0 58.7014 0 0)
(59.4805 1.36168 0 56.9806 0 0)
(69.5868 -0.276621 0 56.4628 0 0)
(79.6856 -2.99278 0 55.1601 0 0)
(89.2233 -6.09392 0 55.216 0 0)
(98.5438 -10.5672 0 54.8699 0 0)
(106.423 -15.4309 0 56.4174 0 0)
(112.59 -22.1475 0 57.8615 0 0)
(115.125 -28.0638 0 61.5911 0 0)
(116.07 -35.211 0 64.5573 0 0)
(109.616 -40.8105 0 71.4564 0 0)
(0.356504 0.540277 0 81.3929 0 0)
(2.83271 1.74372 0 84.0781 0 0)
(7.26482 2.55289 0 80.6105 0 0)
(13.5217 3.49845 0 80.5012 0 0)
(20.9974 3.80498 0 78.4148 0 0)
(29.4787 4.03165 0 77.8616 0 0)
(38.5386 3.55421 0 75.5725 0 0)
(48.0108 2.91161 0 74.7477 0 0)
(57.5667 1.47186 0 72.5557 0 0)
(67.0618 -0.233362 0 71.7685 0 0)
(76.2769 -2.8843 0 70.0131 0 0)
(84.8648 -5.87038 0 69.7537 0 0)
(92.7729 -9.97585 0 68.9184 0 0)
(99.2035 -14.3052 0 69.8717 0 0)
(103.919 -19.7529 0 70.5145 0 0)
(105.864 -24.6666 0 73.0186 0 0)
(106.019 -29.8329 0 74.9614 0 0)
(101.773 -33.318 0 78.6172 0 0)
(0.329387 0.568655 0 102.469 0 0)
(2.7372 1.80521 0 105.679 0 0)
(7.07156 2.6805 0 101.653 0 0)
(13.1601 3.57964 0 101.184 0 0)
(20.4405 3.92855 0 98.9193 0 0)
(28.6266 4.04852 0 97.8397 0 0)
(37.3619 3.60769 0 95.325 0 0)
(46.364 2.82487 0 93.8756 0 0)
(55.3944 1.46418 0 91.439 0 0)
(64.1769 -0.353538 0 89.9879 0 0)
(72.5574 -2.7722 0 87.9609 0 0)
(80.1487 -5.70391 0 86.9867 0 0)
(86.8715 -9.21477 0 85.7747 0 0)
(92.1334 -13.1044 0 85.7816 0 0)
(95.8362 -17.3232 0 85.7315 0 0)
(97.4213 -21.3904 0 86.873 0 0)
(97.5242 -25.2353 0 87.9001 0 0)
(94.7196 -27.6905 0 89.5046 0 0)
(0.313778 0.572791 0 126.462 0 0)
(2.64179 1.77221 0 130.391 0 0)
(6.85064 2.66454 0 125.682 0 0)
(12.7357 3.45896 0 124.872 0 0)
(19.7739 3.78579 0 122.341 0 0)
(27.6261 3.7989 0 120.764 0 0)
(35.9692 3.32459 0 117.881 0 0)
(44.4804 2.47698 0 115.847 0 0)
(52.9188 1.1215 0 112.986 0 0)
(61.0139 -0.642367 0 110.895 0 0)
(68.5643 -2.91089 0 108.404 0 0)
(75.289 -5.54334 0 106.677 0 0)
(81.0282 -8.59908 0 104.909 0 0)
(85.4783 -11.823 0 103.904 0 0)
(88.5246 -15.1863 0 103.072 0 0)
(89.9627 -18.3543 0 102.897 0 0)
(90.2654 -21.2736 0 102.91 0 0)
(88.3024 -22.9206 0 103.062 0 0)
(0.299377 0.524265 0 151.876 0 0)
(2.5338 1.57972 0 156.378 0 0)
(6.58638 2.37416 0 151.249 0 0)
(12.2377 2.98324 0 149.81 0 0)
(18.9805 3.20582 0 147.25 0 0)
(26.4612 3.06302 0 144.938 0 0)
(34.3634 2.52193 0 141.849 0 0)
(42.3544 1.58929 0 139.042 0 0)
(50.1928 0.259468 0 135.843 0 0)
(57.6136 -1.44581 0 132.965 0 0)
(64.428 -3.50794 0 130.013 0 0)
(70.4081 -5.8459 0 127.44 0 0)
(75.4234 -8.42312 0 125.037 0 0)
(79.3111 -11.0755 0 123.034 0 0)
(82.0101 -13.7138 0 121.32 0 0)
(83.4286 -16.1787 0 119.98 0 0)
(84.0114 -18.3774 0 118.89 0 0)
(82.8044 -19.4236 0 117.778 0 0)
(0.284085 0.39349 0 175.098 0 0)
(2.41535 1.14331 0 180.298 0 0)
(6.28606 1.66698 0 174.689 0 0)
(11.6758 1.99813 0 172.806 0 0)
(18.0848 1.99436 0 170.125 0 0)
(25.1669 1.65675 0 167.273 0 0)
(32.6011 0.975483 0 163.886 0 0)
(40.0717 -0.033996 0 160.49 0 0)
(47.3314 -1.36877 0 156.872 0 0)
(54.147 -2.98101 0 153.357 0 0)
(60.3402 -4.84959 0 149.869 0 0)
(65.7469 -6.88061 0 146.578 0 0)
(70.2621 -9.03502 0 143.48 0 0)
(73.8128 -11.1831 0 140.624 0 0)
(76.3694 -13.247 0 138.033 0 0)
(77.8962 -15.1467 0 135.707 0 0)
(78.7786 -16.7942 0 133.594 0 0)
(78.2302 -17.3919 0 131.395 0 0)
(0.268861 0.155669 0 190.208 0 0)
(2.29447 0.388844 0 195.881 0 0)
(5.96947 0.485496 0 189.986 0 0)
(11.08 0.405824 0 187.843 0 0)
(17.1388 0.0681995 0 185.096 0 0)
(23.813 -0.541025 0 181.926 0 0)
(30.7854 -1.41091 0 178.346 0 0)
(37.7602 -2.53376 0 174.593 0 0)
(44.5015 -3.88392 0 170.681 0 0)
(50.8029 -5.42427 0 166.762 0 0)
(56.5113 -7.11138 0 162.869 0 0)
(61.5052 -8.88012 0 159.089 0 0)
(65.7091 -10.6761 0 155.452 0 0)
(69.0935 -12.4212 0 151.99 0 0)
(71.6514 -14.0396 0 148.723 0 0)
(73.3716 -15.5097 0 145.679 0 0)
(74.567 -16.7458 0 142.786 0 0)
(74.6119 -17.0667 0 139.791 0 0)
(0.259218 -0.143189 0 190.18 0 0)
(2.19695 -0.536454 0 195.811 0 0)
(5.6928 -0.941226 0 189.98 0 0)
(10.5471 -1.49765 0 187.828 0 0)
(16.2902 -2.21917 0 185.124 0 0)
(22.6041 -3.12252 0 181.96 0 0)
(29.1809 -4.19684 0 178.406 0 0)
(35.7476 -5.43639 0 174.656 0 0)
(42.0815 -6.81072 0 170.73 0 0)
(48.005 -8.29121 0 166.778 0 0)
(53.3817 -9.83109 0 162.803 0 0)
(58.1235 -11.3879 0 158.917 0 0)
(62.1691 -12.9087 0 155.104 0 0)
(65.5125 -14.3502 0 151.44 0 0)
(68.1524 -15.6471 0 147.898 0 0)
(70.0942 -16.8065 0 144.56 0 0)
(71.5714 -17.7531 0 141.311 0 0)
(72.1059 -17.9578 0 137.981 0 0)
(0.25605 -0.396957 0 174.364 0 0)
(2.13777 -1.3083 0 179.315 0 0)
(5.50204 -2.131 0 173.986 0 0)
(10.1664 -3.08059 0 171.993 0 0)
(15.676 -4.11003 0 169.512 0 0)
(21.7258 -5.24006 0 166.622 0 0)
(28.0185 -6.4636 0 163.37 0 0)
(34.2996 -7.77755 0 159.947 0 0)
(40.3588 -9.15346 0 156.341 0 0)
(46.0395 -10.5715 0 152.712 0 0)
(51.2164 -11.9896 0 149.028 0 0)
(55.8212 -13.3813 0 145.422 0 0)
(59.8006 -14.7017 0 141.839 0 0)
(63.1586 -15.9277 0 138.386 0 0)
(65.8932 -17.0078 0 135.002 0 0)
(68.0218 -17.9572 0 131.801 0 0)
(69.7137 -18.7146 0 128.646 0 0)
(70.6115 -18.902 0 125.446 0 0)
(0.257508 -0.546014 0 148.93 0 0)
(2.11 -1.74917 0 152.888 0 0)
(5.38761 -2.82569 0 148.352 0 0)
(9.9244 -4.01002 0 146.634 0 0)
(15.2772 -5.21453 0 144.513 0 0)
(21.1501 -6.46421 0 142.06 0 0)
(27.2551 -7.75106 0 139.296 0 0)
(33.3501 -9.07692 0 136.391 0 0)
(39.2353 -10.4144 0 133.319 0 0)
(44.7668 -11.7537 0 130.227 0 0)
(49.8295 -13.0563 0 127.071 0 0)
(54.3638 -14.3093 0 123.976 0 0)
(58.3237 -15.4732 0 120.882 0 0)
(61.7146 -16.5392 0 117.893 0 0)
(64.5357 -17.4636 0 114.944 0 0)
(66.8091 -18.2654 0 112.147 0 0)
(68.6601 -18.8942 0 109.374 0 0)
(69.8209 -19.1034 0 106.583 0 0)
(0.260376 -0.601722 0 120.03 0 0)
(2.10108 -1.89111 0 123 0 0)
(5.32157 -3.0699 0 119.352 0 0)
(9.77298 -4.34364 0 117.958 0 0)
(15.0209 -5.60256 0 116.252 0 0)
(20.7762 -6.87279 0 114.288 0 0)
(26.7573 -8.14404 0 112.075 0 0)
(32.7316 -9.42167 0 109.748 0 0)
(38.5064 -10.6803 0 107.284 0 0)
(43.9464 -11.9169 0 104.8 0 0)
(48.9438 -13.0976 0 102.259 0 0)
(53.4442 -14.2179 0 99.76 0 0)
(57.4063 -15.2434 0 97.2553 0 0)
(60.8348 -16.1741 0 94.8299 0 0)
(63.7299 -16.9729 0 92.4318 0 0)
(66.1167 -17.6595 0 90.1483 0 0)
(68.0898 -18.1929 0 87.8835 0 0)
(69.4494 -18.4283 0 85.6084 0 0)
(0.263324 -0.590883 0 91.8824 0 0)
(2.10074 -1.83116 0 93.9975 0 0)
(5.28382 -2.9985 0 91.2066 0 0)
(9.67835 -4.24949 0 90.1331 0 0)
(14.8558 -5.47028 0 88.8338 0 0)
(20.5324 -6.68327 0 87.3391 0 0)
(26.4318 -7.87802 0 85.6585 0 0)
(32.3272 -9.05951 0 83.8866 0 0)
(38.0319 -10.2071 0 82.0109 0 0)
(43.4156 -11.3194 0 80.1139 0 0)
(48.3765 -12.3695 0 78.1731 0 0)
(52.8625 -13.3558 0 76.2586 0 0)
(56.8358 -14.251 0 74.3406 0 0)
(60.2996 -15.0573 0 72.4772 0 0)
(63.2557 -15.7468 0 70.6359 0 0)
(65.7311 -16.3345 0 68.876 0 0)
(67.7986 -16.7911 0 67.1332 0 0)
(69.3111 -17.0404 0 65.3803 0 0)
(0.266398 -0.537032 0 66.9307 0 0)
(2.10459 -1.6518 0 68.3708 0 0)
(5.2625 -2.73215 0 66.3392 0 0)
(9.6193 -3.88548 0 65.5563 0 0)
(14.7494 -5.00545 0 64.6182 0 0)
(20.3737 -6.10794 0 63.5363 0 0)
(26.2196 -7.18492 0 62.3221 0 0)
(32.0639 -8.23827 0 61.0365 0 0)
(37.7246 -9.25318 0 59.6776 0 0)
(43.0747 -10.2272 0 58.2978 0 0)
(48.0166 -11.1411 0 56.8889 0 0)
(52.4995 -11.9924 0 55.4942 0 0)
(56.4878 -12.7618 0 54.1003 0 0)
(59.9837 -13.4509 0 52.7416 0 0)
(62.9899 -14.0402 0 51.4015 0 0)
(65.5343 -14.539 0 50.1157 0 0)
(67.6743 -14.9288 0 48.846 0 0)
(69.3047 -15.1764 0 47.5649 0 0)
(0.268252 -0.463096 0 46.2876 0 0)
(2.10901 -1.41667 0 47.2262 0 0)
(5.25068 -2.36496 0 45.8255 0 0)
(9.58251 -3.37667 0 45.2875 0 0)
(14.681 -4.35809 0 44.6463 0 0)
(20.2706 -5.31862 0 43.9025 0 0)
(26.0819 -6.25324 0 43.0685 0 0)
(31.8939 -7.16025 0 42.1812 0 0)
(37.5278 -8.03071 0 41.2457 0 0)
(42.8587 -8.85993 0 40.2925 0 0)
(47.7914 -9.63567 0 39.3226 0 0)
(52.2762 -10.3539 0 38.36 0 0)
(56.279 -11.0024 0 37.4005 0 0)
(59.801 -11.5805 0 36.4624 0 0)
(62.8451 -12.0759 0 35.5392 0 0)
(65.4404 -12.4926 0 34.6501 0 0)
(67.6324 -12.8204 0 33.7752 0 0)
(69.3487 -13.0507 0 32.8891 0 0)
(0.269414 -0.38326 0 30.1567 0 0)
(2.11256 -1.16528 0 30.7409 0 0)
(5.24395 -1.95929 0 29.8308 0 0)
(9.55905 -2.80859 0 29.4836 0 0)
(14.6362 -3.63253 0 29.0715 0 0)
(20.2026 -4.4373 0 28.5909 0 0)
(25.9909 -5.21913 0 28.0517 0 0)
(31.7807 -5.97499 0 27.4761 0 0)
(37.3958 -6.69838 0 26.87 0 0)
(42.7121 -7.38455 0 26.2516 0 0)
(47.6365 -8.02495 0 25.6237 0 0)
(52.1186 -8.61546 0 24.9993 0 0)
(56.1269 -9.1481 0 24.3783 0 0)
(59.661 -9.621 0 23.7696 0 0)
(62.7248 -10.0266 0 23.1715 0 0)
(65.3459 -10.3652 0 22.5938 0 0)
(67.5648 -10.6323 0 22.0268 0 0)
(69.3342 -10.8298 0 21.4512 0 0)
(0.269737 -0.304749 0 18.2108 0 0)
(2.11432 -0.920277 0 18.555 0 0)
(5.23857 -1.55489 0 18.0043 0 0)
(9.53964 -2.23806 0 17.7983 0 0)
(14.5978 -2.90243 0 17.5552 0 0)
(20.1421 -3.55263 0 17.2707 0 0)
(25.9059 -4.18388 0 16.9505 0 0)
(31.6702 -4.79288 0 16.6076 0 0)
(37.2596 -5.37307 0 16.2458 0 0)
(42.5506 -5.92098 0 15.8758 0 0)
(47.4524 -6.42934 0 15.4992 0 0)
(51.9136 -6.8958 0 15.1241 0 0)
(55.906 -7.31354 0 14.7506 0 0)
(59.4273 -7.68226 0 14.3838 0 0)
(62.4859 -7.99618 0 14.0234 0 0)
(65.1042 -8.25587 0 13.6744 0 0)
(67.3263 -8.46051 0 13.3324 0 0)
(69.1232 -8.61085 0 12.9856 0 0)
(0.269384 -0.228379 0 9.88164 0 0)
(2.11207 -0.691608 0 10.0652 0 0)
(5.22135 -1.17921 0 9.76794 0 0)
(9.49615 -1.70912 0 9.66558 0 0)
(14.5241 -2.2237 0 9.54118 0 0)
(20.035 -2.72426 0 9.39198 0 0)
(25.7618 -3.20647 0 9.22131 0 0)
(31.4882 -3.66784 0 9.0371 0 0)
(37.0384 -4.10264 0 8.84136 0 0)
(42.2922 -4.50929 0 8.64038 0 0)
(47.158 -4.88222 0 8.43474 0 0)
(51.5891 -5.22157 0 8.22961 0 0)
(55.5562 -5.52156 0 8.02446 0 0)
(59.0612 -5.78439 0 7.82321 0 0)
(62.1115 -6.00394 0 7.62494 0 0)
(64.7289 -6.18379 0 7.43364 0 0)
(66.9547 -6.32689 0 7.24688 0 0)
(68.7849 -6.4289 0 7.05868 0 0)
(0.268239 -0.154874 0 4.48578 0 0)
(2.0852 -0.498089 0 4.58137 0 0)
(5.16004 -0.852702 0 4.45618 0 0)
(9.39528 -1.22918 0 4.42055 0 0)
(14.3976 -1.58632 0 4.36947 0 0)
(19.883 -1.92872 0 4.30505 0 0)
(25.5832 -2.25374 0 4.22774 0 0)
(31.2836 -2.55914 0 4.14125 0 0)
(36.8108 -2.84331 0 4.04823 0 0)
(42.0439 -3.10745 0 3.95241 0 0)
(46.893 -3.34863 0 3.85461 0 0)
(51.3147 -3.56771 0 3.75752 0 0)
(55.276 -3.76096 0 3.66064 0 0)
(58.787 -3.93043 0 3.56666 0 0)
(61.8438 -4.07002 0 3.474 0 0)
(64.48 -4.18504 0 3.38654 0 0)
(66.7029 -4.2755 0 3.30129 0 0)
(68.5613 -4.34552 0 3.2171 0 0)
(0.255337 -0.0882261 0 1.42091 0 0)
(2.06922 -0.313553 0 1.48663 0 0)
(5.20851 -0.526149 0 1.44657 0 0)
(9.50225 -0.734569 0 1.43342 0 0)
(14.558 -0.924703 0 1.41331 0 0)
(20.0947 -1.10736 0 1.39004 0 0)
(25.8513 -1.28403 0 1.3634 0 0)
(31.6108 -1.45216 0 1.33408 0 0)
(37.1996 -1.61011 0 1.30309 0 0)
(42.4917 -1.75769 0 1.27148 0 0)
(47.4004 -1.89342 0 1.23967 0 0)
(51.8746 -2.01729 0 1.20825 0 0)
(55.8857 -2.1273 0 1.17721 0 0)
(59.4365 -2.22411 0 1.14725 0 0)
(62.5268 -2.30361 0 1.11798 0 0)
(65.1945 -2.3698 0 1.0915 0 0)
(67.4172 -2.42239 0 1.06629 0 0)
(69.2676 -2.46185 0 1.03933 0 0)
(0.246012 -0.0253382 0 0.141835 0 0)
(2.06704 -0.097853 0 0.153614 0 0)
(5.18739 -0.165605 0 0.150829 0 0)
(9.45028 -0.230862 0 0.14966 0 0)
(14.4873 -0.293771 0 0.147358 0 0)
(20.0114 -0.354109 0 0.14463 0 0)
(25.7613 -0.412935 0 0.141632 0 0)
(31.5184 -0.469435 0 0.138501 0 0)
(37.1143 -0.522779 0 0.135279 0 0)
(42.4244 -0.57278 0 0.132027 0 0)
(47.3634 -0.619137 0 0.12877 0 0)
(51.8784 -0.661818 0 0.125568 0 0)
(55.943 -0.700252 0 0.122425 0 0)
(59.5524 -0.734295 0 0.119401 0 0)
(62.7129 -0.763213 0 0.116576 0 0)
(65.4575 -0.788455 0 0.114239 0 0)
(67.7704 -0.806667 0 0.112165 0 0)
(69.6985 -0.815947 0 0.111781 0 0)
(0.0244869 0.0357696 0 0.717427 0 0)
(0.267318 0.099122 0 0.678488 0 0)
(0.785636 0.18095 0 0.671318 0 0)
(1.53927 0.295006 0 0.662105 0 0)
(2.48651 0.424009 0 0.660511 0 0)
(3.60913 0.568807 0 0.657244 0 0)
(4.88519 0.715848 -2.38405e-19 0.655278 -6.4864e-20 1.47844e-37)
(6.31182 0.866743 2.4239e-19 0.650964 6.91627e-20 1.48294e-37)
(7.88237 1.01368 0 0.644944 0 0)
(9.59481 1.1611 2.44774e-19 0.637361 6.85726e-20 1.46074e-37)
(11.444 1.30513 0 0.628771 0 0)
(13.4238 1.44801 0 0.619671 0 0)
(15.5278 1.58513 0 0.611708 0 0)
(17.7495 1.71684 -2.77297e-19 0.605232 -5.16744e-20 1.3472e-37)
(20.0827 1.83998 0 0.599014 0 0)
(22.528 1.95362 0 0.593786 0 0)
(25.0855 2.05356 3.40505e-19 0.589494 3.90203e-20 1.22072e-37)
(27.7537 2.14143 0 0.585047 0 0)
(30.5277 2.21989 0 0.580389 0 0)
(33.4018 2.29118 0 0.575961 0 0)
(36.3601 2.35431 -4.56427e-19 0.572646 -1.95706e-20 1.01772e-37)
(39.3931 2.41002 0 0.568905 0 0)
(42.487 2.45639 -5.16173e-19 0.566656 -1.02946e-20 9.25164e-38)
(45.6328 2.4933 0 0.567861 0 0)
(48.8143 2.52691 0 0.568618 0 0)
(52.0174 2.54991 -6.04296e-19 0.570784 1.23368e-21 7.97645e-38)
(55.2352 2.55203 0 0.572594 0 0)
(58.4718 2.53459 6.57927e-19 0.57103 -6.95971e-21 7.21568e-38)
(61.7212 2.50363 0 0.56315 0 0)
(64.989 2.46094 -7.02685e-19 0.552754 1.05118e-20 6.53917e-38)
(68.2737 2.40909 0 0.539209 0 0)
(71.5629 2.3505 0 0.523394 0 0)
(74.8488 2.28509 0 0.509358 0 0)
(78.1331 2.2091 0 0.497982 0 0)
(81.4096 2.12192 0 0.486443 0 0)
(84.6749 2.02647 7.7975e-19 0.475556 -1.40062e-20 4.59921e-38)
(87.9278 1.92258 0 0.463949 0 0)
(91.1694 1.8101 -1.5626e-18 0.447924 2.71581e-20 1.61354e-37)
(94.3983 1.69067 0 0.432347 0 0)
(97.6093 1.56318 1.55253e-18 0.417726 -2.61798e-20 1.3994e-37)
(100.796 1.43016 0 0.402589 0 0)
(103.956 1.28799 0 0.39092 0 0)
(107.082 1.1376 -1.51449e-18 0.378342 2.15929e-20 1.1124e-37)
(110.156 0.984909 0 0.365502 0 0)
(113.164 0.830182 -1.47601e-18 0.354669 1.82937e-20 9.43087e-38)
(116.089 0.672251 1.45358e-18 0.345795 -1.65562e-20 8.66177e-38)
(118.916 0.508498 0 0.339666 0 0)
(121.637 0.338538 1.40279e-18 0.334887 -1.25214e-20 7.34097e-38)
(124.235 0.163157 1.37459e-18 0.330992 -1.06512e-20 6.79504e-38)
(126.712 -0.0147292 0 0.327743 0 0)
(129.053 -0.194055 0 0.325621 0 0)
(131.238 -0.377619 0 0.322947 0 0)
(133.247 -0.566197 0 0.321741 0 0)
(135.059 -0.757064 0 0.323785 0 0)
(136.648 -0.946916 -1.17424e-18 0.327997 -4.39776e-21 5.01694e-38)
(137.986 -1.13821 0 0.332102 0 0)
(139.06 -1.3343 1.07958e-18 0.335785 1.14629e-20 4.75224e-38)
(139.874 -1.53702 0 0.341005 0 0)
(140.424 -1.7459 0 0.3478 0 0)
(140.693 -1.9519 -9.11799e-19 0.357124 -2.24643e-20 4.75265e-38)
(140.676 -2.1561 0 0.369108 0 0)
(140.357 -2.36118 7.80369e-19 0.381118 3.1247e-20 4.96964e-38)
(139.741 -2.56506 0 0.39141 0 0)
(138.825 -2.76885 0 0.404203 0 0)
(137.617 -2.97179 0 0.418371 0 0)
(136.132 -3.16751 -4.82029e-19 0.432776 -4.76089e-20 6.03546e-38)
(134.37 -3.35664 0 0.447501 0 0)
(132.347 -3.53941 0 0.460579 0 0)
(130.073 -3.71485 -2.2629e-19 0.474237 -6.11999e-20 7.30557e-38)
(127.57 -3.88805 0 0.489313 0 0)
(124.875 -4.05396 -5.07166e-20 0.504493 -6.98447e-20 8.30398e-38)
(121.998 -4.20742 0 0.51995 0 0)
(118.957 -4.3487 0 0.535953 0 0)
(115.781 -4.47919 0 0.553095 0 0)
(112.494 -4.60033 -3.04954e-19 0.571239 8.3208e-20 1.0455e-37)
(109.115 -4.70938 0 0.589328 0 0)
(105.66 -4.80315 0 0.607293 0 0)
(102.14 -4.88186 -5.64289e-19 0.625398 9.03372e-20 1.20183e-37)
(98.5693 -4.94995 -6.46101e-19 0.644189 9.18793e-20 1.25297e-37)
(94.9746 -5.00702 0 0.663007 0 0)
(91.3873 -5.05223 -7.99178e-19 0.682743 9.46529e-20 1.34719e-37)
(87.8282 -5.08629 0 0.703942 0 0)
(84.3181 -5.10851 -1.87804e-18 0.725516 1.92623e-19 5.74544e-37)
(80.8713 -5.11779 0 0.748177 0 0)
(77.5057 -5.11252 -2.12303e-18 0.770769 1.93756e-19 6.07705e-37)
(74.2394 -5.09084 0 0.793726 0 0)
(71.0866 -5.05611 2.32576e-18 0.819703 -1.939e-19 6.3668e-37)
(68.0647 -5.00807 0 0.844728 0 0)
(65.1878 -4.94138 0 0.867039 0 0)
(62.4556 -4.85586 0 0.88974 0 0)
(59.8724 -4.7536 -2.5868e-18 0.914752 1.86292e-19 6.80038e-37)
(57.444 -4.63704 0 0.939357 0 0)
(55.1795 -4.50444 2.64769e-18 0.963618 -1.80007e-19 6.94753e-37)
(53.0818 -4.35558 0 0.987367 0 0)
(51.1397 -4.18446 -2.65957e-18 1.01094 1.73652e-19 7.03598e-37)
(49.3481 -3.99672 -2.65035e-18 1.03222 1.70412e-19 7.07117e-37)
(47.6949 -3.79624 -2.63126e-18 1.05346 1.66245e-19 7.09807e-37)
(46.1753 -3.58666 0 1.07584 0 0)
(44.7627 -3.36692 0 1.09898 0 0)
(43.4674 -3.13821 0 1.11853 0 0)
(42.2708 -2.90054 0 1.13833 0 0)
(41.1679 -2.66103 0 1.15822 0 0)
(40.1411 -2.42118 0 1.17723 0 0)
(39.1872 -2.17843 0 1.19232 0 0)
(38.2602 -1.93495 0 1.2083 0 0)
(37.358 -1.69823 2.02514e-18 1.22361 -1.31562e-19 7.07666e-37)
(36.4481 -1.46989 1.91098e-18 1.24078 -1.24237e-19 7.07026e-37)
(35.5545 -1.25075 0 1.25243 0 0)
(34.6428 -1.04054 0 1.26544 0 0)
(33.723 -0.853802 0 1.27946 0 0)
(32.7422 -0.677382 1.35353e-18 1.29206 -1.0464e-19 6.91028e-37)
(31.8006 -0.52699 0 1.29932 0 0)
(30.7905 -0.384705 0 1.30913 0 0)
(29.8347 -0.281881 0 1.31921 0 0)
(28.9072 -0.198379 0 1.33242 0 0)
(28.0774 -0.148072 -4.38285e-19 1.34084 7.57318e-20 6.66171e-37)
(27.3774 -0.121945 0 1.35017 0 0)
(26.84 -0.131349 0 1.36361 0 0)
(26.5505 -0.174515 -2.23366e-19 1.37149 -6.55339e-20 6.42542e-37)
(26.5084 -0.243767 4.50315e-19 1.38416 6.11386e-20 6.29965e-37)
(26.763 -0.353344 0 1.40103 0 0)
(27.3672 -0.509837 9.1279e-19 1.41836 6.01364e-20 6.05206e-37)
(28.3868 -0.706662 0 1.43741 0 0)
(29.8828 -0.958602 -1.35414e-18 1.45505 -6.45705e-20 5.75522e-37)
(31.8754 -1.24485 0 1.4778 0 0)
(34.4401 -1.58066 0 1.50488 0 0)
(37.4742 -1.95873 0 1.53765 0 0)
(41.0889 -2.38762 0 1.57195 0 0)
(45.1377 -2.84248 0 1.61008 0 0)
(49.6258 -3.34451 4.89948e-18 1.65226 2.04754e-19 1.97211e-36)
(54.4927 -3.89036 5.15445e-18 1.69839 2.30679e-19 1.93734e-36)
(59.7548 -4.47168 0 1.74666 0 0)
(65.2148 -5.07348 0 1.80251 0 0)
(70.83 -5.70046 0 1.85779 0 0)
(76.4532 -6.3134 -5.6942e-18 1.91865 -3.52364e-19 1.91762e-36)
(81.8574 -6.92758 0 1.98979 0 0)
(87.004 -7.54875 0 2.06201 0 0)
(91.8355 -8.16291 0 2.13851 0 0)
(96.2766 -8.75562 -5.33263e-18 2.21685 -5.33641e-19 2.07211e-36)
(100.308 -9.32226 5.09922e-18 2.30032 5.82385e-19 2.13409e-36)
(103.718 -9.84389 0 2.39108 0 0)
(106.625 -10.3531 0 2.48383 0 0)
(108.993 -10.8063 4.07949e-18 2.57834 7.35431e-19 2.3661e-36)
(110.829 -11.2254 3.65035e-18 2.6717 7.84254e-19 2.45136e-36)
(111.981 -11.5691 0 2.77197 0 0)
(112.55 -11.8839 0 2.8719 0 0)
(112.427 -12.1257 -2.0529e-18 2.97584 -9.45735e-19 2.71929e-36)
(111.746 -12.3495 1.4235e-18 3.07079 9.8933e-19 2.79802e-36)
(110.55 -12.5028 0 3.16754 0 0)
(108.637 -12.602 0 3.26812 0 0)
(106.131 -12.6349 -5.20432e-19 3.35896 1.11711e-18 3.06878e-36)
(102.995 -12.6139 0 3.44937 0 0)
(99.5107 -12.555 0 3.53289 0 0)
(95.5212 -12.4056 -2.54634e-18 3.6053 1.20595e-18 3.30149e-36)
(91.2233 -12.1843 0 3.67725 0 0)
(86.6041 -11.8519 -3.82958e-18 3.73864 1.25692e-18 3.44435e-36)
(81.7208 -11.4341 0 3.79428 0 0)
(76.6156 -10.8984 0 3.83335 0 0)
(71.6754 -10.2647 0 3.85736 0 0)
(66.7976 -9.46674 5.86773e-18 3.87607 -1.27753e-18 3.68216e-36)
(62.1457 -8.54926 0 3.87953 0 0)
(57.9353 -7.47974 0 3.86749 0 0)
(54.486 -6.29043 0 3.83957 0 0)
(51.6375 -4.91194 0 3.7975 0 0)
(49.5463 -3.45331 0 3.74701 0 0)
(48.8294 -1.89995 0 3.6748 0 0)
(49.6721 -0.277024 6.01849e-18 3.58502 -1.10396e-18 3.72716e-36)
(51.7395 1.43546 5.60267e-18 3.48673 -1.0496e-18 3.70955e-36)
(55.4491 3.12701 0 3.37524 0 0)
(60.7097 4.75303 0 3.25732 0 0)
(67.5172 6.33202 0 3.12787 0 0)
(75.456 7.80416 -3.04844e-18 2.99822 7.94743e-19 3.38351e-36)
(84.5803 9.10496 0 2.87011 0 0)
(94.1297 10.2923 2.94178e-18 2.73512 -1.35025e-18 1.23622e-35)
(104.006 11.2483 -1.30525e-18 2.60445 1.21741e-18 1.16608e-35)
(113.633 12.0372 3.2148e-19 2.4731 1.1045e-18 1.10171e-35)
(123.277 12.6868 -2.02517e-18 2.34835 -1.01386e-18 1.03319e-35)
(131.383 13.227 3.67671e-18 2.22941 9.22518e-19 9.75783e-36)
(139.245 13.7028 -5.28112e-18 2.12213 -9.03095e-19 8.99312e-36)
(142.985 14.3945 0 2.06622 0 0)
(0.0183148 0.174251 0 6.09706 0 0)
(0.202756 0.387976 0 6.03516 0 0)
(0.629612 0.609854 1.31746e-19 5.86252 1.75972e-19 6.76499e-37)
(1.32737 0.854238 0 5.7418 0 0)
(2.26985 1.13338 -1.92338e-19 5.68195 -3.5363e-19 9.19298e-37)
(3.44648 1.43803 -1.83965e-19 5.65472 -4.41445e-19 9.72329e-37)
(4.83617 1.76255 -8.07037e-20 5.63924 -2.51401e-19 2.48908e-37)
(6.42458 2.10297 -6.89856e-20 5.62112 -2.70288e-19 2.61154e-37)
(8.20387 2.45201 0 5.59271 0 0)
(10.172 2.8052 -4.22269e-20 5.55004 -2.69074e-19 2.59308e-37)
(12.3303 3.15373 0 5.49809 0 0)
(14.677 3.49523 0 5.4384 0 0)
(17.2037 3.82455 9.50309e-20 5.37005 4.23626e-19 9.50719e-37)
(19.9112 4.14124 6.97128e-20 5.29812 1.86831e-19 2.34035e-37)
(22.7889 4.43556 -1.85948e-19 5.2229 -3.26114e-19 8.93281e-37)
(25.8306 4.70754 -2.52304e-19 5.14471 -2.81089e-19 8.65582e-37)
(29.0252 4.95867 -1.71544e-19 5.06033 -1.18395e-19 2.12668e-37)
(32.3661 5.19038 0 4.96957 0 0)
(35.8417 5.40095 0 4.87391 0 0)
(39.4433 5.59491 0 4.77126 0 0)
(43.1477 5.77149 -3.87155e-19 4.6664 -3.66563e-20 1.80342e-37)
(46.9461 5.928 0 4.56194 0 0)
(50.8157 6.05603 1.61071e-18 4.45543 -1.64936e-20 1.55146e-36)
(54.744 6.15926 0 4.35249 0 0)
(58.714 6.23941 0 4.24729 0 0)
(62.7084 6.29657 7.75423e-19 4.14296 -5.777e-20 1.5647e-37)
(66.6995 6.32756 0 4.03684 0 0)
(70.6685 6.34171 -9.33527e-19 3.93609 8.18608e-20 1.45973e-37)
(74.5817 6.33249 -1.99466e-18 3.83591 1.81654e-19 5.57014e-37)
(78.4291 6.29487 1.07759e-18 3.73303 -9.87894e-20 1.36605e-37)
(82.2069 6.22593 0 3.6252 0 0)
(85.9151 6.12906 0 3.51993 0 0)
(89.5399 6.00675 0 3.4167 0 0)
(93.0854 5.86015 -2.57753e-18 3.30868 2.22871e-19 4.71387e-37)
(96.5434 5.68373 -2.65573e-18 3.20132 2.20384e-19 4.55235e-37)
(99.9273 5.47779 -1.374e-18 3.10039 1.076e-19 1.10772e-37)
(103.245 5.24069 0 3.00846 0 0)
(106.49 4.96739 2.83854e-18 2.92032 -2.02893e-19 4.12794e-37)
(109.671 4.65596 0 2.83516 0 0)
(112.782 4.31586 -2.87498e-18 2.75365 1.88277e-19 3.81528e-37)
(115.83 3.94805 0 2.67325 0 0)
(118.811 3.56018 0 2.60101 0 0)
(121.733 3.1563 2.82761e-18 2.53002 -1.53857e-19 3.3159e-37)
(124.579 2.73359 0 2.46465 0 0)
(127.332 2.28549 8.16008e-18 2.40663 -3.9288e-19 2.68366e-36)
(129.99 1.80778 -2.68887e-18 2.36126 1.19032e-19 2.83611e-37)
(132.556 1.30477 0 2.3341 0 0)
(135.045 0.776592 -2.54917e-18 2.3183 9.08167e-20 2.51676e-37)
(137.444 0.215699 -2.46852e-18 2.31207 7.6592e-20 2.36114e-37)
(139.749 -0.371461 0 2.31442 0 0)
(141.938 -0.970368 0 2.32787 0 0)
(143.992 -1.56688 0 2.34294 0 0)
(145.897 -2.15153 0 2.35652 0 0)
(147.614 -2.7287 0 2.38012 0 0)
(149.132 -3.30733 1.88343e-18 2.41289 1.45504e-20 1.72021e-37)
(150.429 -3.89493 3.4513e-18 2.4562 7.11998e-20 6.55617e-37)
(151.484 -4.48625 -1.64448e-18 2.50734 -5.59323e-20 1.60042e-37)
(152.31 -5.09591 0 2.56353 0 0)
(152.88 -5.70704 2.68719e-18 2.6267 1.90261e-19 6.01238e-37)
(153.165 -6.29764 -1.17008e-18 2.69483 -1.13266e-19 1.46815e-37)
(153.192 -6.88315 0 2.77161 0 0)
(152.913 -7.46268 -9.78187e-19 2.86152 -1.48647e-19 1.49465e-37)
(152.338 -8.02048 0 2.9548 0 0)
(151.46 -8.56897 0 3.05607 0 0)
(150.278 -9.09912 -1.04729e-18 3.16219 -3.97005e-19 6.2543e-37)
(148.778 -9.60039 4.22462e-19 3.27301 2.15282e-19 1.63722e-37)
(146.998 -10.0939 -4.88744e-19 3.39333 -4.62292e-19 6.6831e-37)
(144.932 -10.566 2.11617e-19 3.51785 4.89189e-19 6.921e-37)
(142.608 -11.0136 9.90235e-21 3.64353 2.54502e-19 1.8267e-37)