/*--------------------------------*- C++ -*----------------------------------*\
| =========                 |                                                 |
| \\      /  F ield         | OpenFOAM: The Open Source CFD Toolbox           |
|  \\    /   O peration     | Version:  dev                                   |
|   \\  /    A nd           | Web:      http://www.openfoam.org               |
|    \\/     M anipulation  |                                                 |
\*---------------------------------------------------------------------------*/
FoamFile
{
    version     2.0;
    format      ascii;
    class       volScalarField;
    object      k_0;
    location    "9.122";
}
// * * * * * * * * * * * * * * * * * * * * * * * * * * * * * * * * * * * * * //

dimensions      [0 2 -2 0 0 0 0];

internalField   nonuniform List<scalar> 
12225
(
8.94321
10.5876
7.3498
7.99663
6.12233
9.41039
7.67459
13.0883
10.4884
18.7443
14.5722
27.1161
21.8435
39.0968
38.4837
51.2792
58.0892
115.882
1.26065
5.2579
4.83036
5.90064
4.60392
5.58815
4.59681
5.58197
5.01786
5.82548
5.44403
5.93482
5.73201
5.9333
6.27664
6.17663
6.00873
9.75975
0.0979129
1.50062
1.86266
3.06882
2.96106
3.41733
3.35894
3.3502
3.45701
3.05439
3.12816
2.66075
2.66888
2.23258
2.31796
1.981
1.86785
2.85173
0.0158785
0.305289
0.490568
0.822778
1.16196
1.24126
1.61641
1.51346
1.74928
1.4996
1.54824
1.28593
1.26445
1.06703
1.11534
1.01308
0.98302
1.64121
0.0059616
0.126116
0.179831
0.295492
0.4743
0.545422
0.693105
0.692628
0.757006
0.691588
0.715803
0.619982
0.636922
0.550553
0.622678
0.597149
0.691408
0.754237
0.0084901
0.0743062
0.096234
0.13752
0.205543
0.234494
0.303169
0.309855
0.34762
0.331547
0.352799
0.325671
0.34685
0.319835
0.351196
0.352281
0.551673
0.536201
0.0256891
0.0517645
0.0734921
0.0886404
0.117465
0.130748
0.162522
0.171276
0.19688
0.198627
0.217083
0.215827
0.238037
0.23453
0.259183
0.264041
0.307664
0.636326
0.0485038
0.0679797
0.0763574
0.0881464
0.105112
0.115635
0.134202
0.144084
0.163376
0.170083
0.18789
0.192508
0.214321
0.218961
0.243367
0.250054
0.280509
0.327918
0.0918934
0.117505
0.107921
0.116002
0.118872
0.126259
0.138847
0.147846
0.164682
0.172057
0.189537
0.195791
0.215723
0.223913
0.243212
0.256819
0.279352
0.312985
0.182228
0.206753
0.186384
0.188647
0.177832
0.179568
0.1792
0.188324
0.19458
0.206886
0.219837
0.231907
0.250763
0.259819
0.280777
0.289005
0.306793
0.323738
0.364041
0.363058
0.321169
0.318106
0.294381
0.291519
0.281608
0.284454
0.284681
0.293198
0.300816
0.318051
0.326288
0.345706
0.35492
0.368903
0.379391
0.381086
0.628543
0.605505
0.535186
0.50797
0.46865
0.456121
0.445599
0.443719
0.442958
0.444293
0.45123
0.457207
0.468882
0.475726
0.483336
0.489922
0.490423
0.487024
1.05328
0.966934
0.844999
0.777762
0.693613
0.662646
0.639877
0.629926
0.621539
0.617685
0.613257
0.612141
0.609676
0.608147
0.605531
0.602127
0.599884
0.596317
1.69873
1.5263
1.33541
1.18415
1.04303
0.981763
0.936515
0.909897
0.885379
0.867474
0.847476
0.833443
0.816561
0.80298
0.784354
0.77056
0.749332
0.735264
2.64107
2.33231
2.03188
1.7777
1.56912
1.41731
1.29272
1.20236
1.1253
1.07066
1.01692
0.980195
0.938223
0.90959
0.873286
0.849528
0.8157
0.796648
3.65173
3.08516
2.54532
2.11724
1.79798
1.57591
1.41078
1.29421
1.19999
1.13255
1.06943
1.02537
0.976546
0.942959
0.901808
0.87488
0.837596
0.817427
3.96218
3.25854
2.64717
2.1831
1.84406
1.60783
1.43351
1.31058
1.21195
1.14164
1.0764
1.03086
0.980939
0.946404
0.904225
0.876709
0.839018
0.818791
3.85857
3.16353
2.57993
2.1303
1.80269
1.57335
1.40307
1.2828
1.18547
1.11668
1.05344
1.00908
0.960297
0.926897
0.884844
0.857619
0.820764
0.80129
3.01372
2.57478
2.21667
1.86815
1.60955
1.42511
1.28268
1.17924
1.09394
1.03381
0.978072
0.939573
0.895831
0.865227
0.826603
0.801063
0.766263
0.748166
1.96838
1.68221
1.51597
1.33851
1.20508
1.10423
1.01672
0.950538
0.892448
0.852091
0.814309
0.789244
0.757806
0.734502
0.703212
0.681801
0.652542
0.638133
1.11162
0.967982
0.876987
0.781781
0.709567
0.658827
0.616567
0.589916
0.568581
0.554958
0.542668
0.536062
0.524945
0.5136
0.496666
0.48292
0.46515
0.457052
0.630967
0.571468
0.531165
0.482716
0.450464
0.422687
0.393878
0.370262
0.353136
0.340573
0.336864
0.339161
0.342178
0.344946
0.345561
0.34612
0.345014
0.344823
0.304413
0.287662
0.27954
0.259223
0.24433
0.234443
0.234811
0.240007
0.248771
0.259538
0.271851
0.284947
0.296133
0.305824
0.312109
0.317707
0.32041
0.323479
0.149067
0.142597
0.134758
0.140664
0.154375
0.177163
0.197683
0.215765
0.231972
0.247855
0.263775
0.279309
0.29265
0.304041
0.311962
0.318969
0.322432
0.327091
0.0636246
0.0644303
0.0842761
0.116041
0.149317
0.18176
0.211694
0.236988
0.261532
0.286035
0.308524
0.329407
0.346279
0.359986
0.36967
0.377279
0.381798
0.386572
0.018451
0.0433918
0.0906651
0.172552
0.255212
0.322165
0.374557
0.412275
0.450072
0.486788
0.51792
0.545637
0.563776
0.576483
0.584599
0.588972
0.592727
0.592046
0.0112869
0.0981502
0.296936
0.559194
0.752112
0.86875
0.94618
0.994858
1.04336
1.08582
1.12156
1.14761
1.15381
1.15258
1.14882
1.14016
1.12666
1.10916
0.0904235
0.626139
1.37926
1.98967
2.32948
2.42253
2.43695
2.4266
2.40498
2.37558
2.3555
2.32791
2.2755
2.21525
2.15069
2.08595
2.01303
1.94385
1.09147
3.6977
4.92579
4.85132
4.60497
4.35786
4.14241
3.98634
3.89611
3.80629
3.68127
3.547
3.40922
3.27867
3.1578
3.04688
2.93847
2.77837
7.11987
10.7905
10.2218
8.2362
7.22528
7.01776
7.19529
7.49322
7.83191
8.15948
8.42325
8.60977
8.71763
8.73965
8.69435
8.57088
8.3324
7.95214
0.175706
0.150356
0.174164
0.200366
0.217902
0.24127
0.266102
0.293948
0.321443
0.347335
0.375223
0.408008
0.446711
0.494079
0.546053
0.614076
0.686753
0.768984
0.866008
0.969402
1.09804
1.22801
1.36757
1.52101
1.68477
1.86243
2.05221
2.25023
2.46862
2.68403
2.92292
3.17382
3.42401
3.69023
3.8903
3.95861
3.94736
3.85664
3.83666
3.81947
3.82732
3.91167
4.10429
4.25911
4.32679
4.34529
4.31208
4.25199
4.23794
4.22023
4.09082
4.18004
4.50948
4.71141
4.93359
5.10879
5.27576
5.50168
5.70141
5.9561
6.49772
7.28936
8.09311
8.77631
9.31611
9.72193
9.92583
9.99936
9.99038
9.8053
9.53408
9.1652
8.72361
8.24052
7.73936
7.22101
6.70826
6.21531
5.75901
5.34684
4.93405
4.55876
4.2474
3.94352
3.65908
3.42198
3.20168
3.00583
2.82478
2.66867
2.51601
2.40709
2.28426
2.18917
2.11641
2.04313
1.99196
1.95284
1.92173
1.90764
1.90414
1.90567
1.909
1.9203
1.94415
1.97587
2.02089
2.07239
2.13694
2.20754
2.29064
2.38577
2.46661
2.54141
2.59651
2.65694
2.75369
2.80541
2.81697
2.85399
2.96023
3.1542
3.37393
3.6256
3.93989
4.26834
4.56
4.72977
4.72286
4.69649
4.72748
4.43015
4.78713
4.33819
4.93044
4.47751
4.87761
4.87095
5.23898
5.765
5.99876
6.14359
6.67513
7.24445
7.95059
8.56293
9.11469
9.44213
9.59806
9.75339
9.90632
10.1371
10.3721
10.8172
11.2266
11.5412
11.5111
11.0113
10.13
8.70689
7.55607
6.47956
5.98149
5.59734
5.34666
5.55028
5.70074
5.82309
6.5994
7.95696
8.31612
8.86343
11.395
13.0429
11.624
8.53285
7.90417
8.43909
9.56242
9.86851
0.799995
0.324723
0.198283
0.185354
0.188861
0.199289
0.20461
0.204948
0.199178
0.189614
0.183953
0.181505
0.181509
0.184433
0.188283
0.195756
0.203703
0.214069
0.228
0.239511
0.259596
0.279617
0.298646
0.326205
0.350827
0.377198
0.419101
0.449311
0.503082
0.563503
0.625214
0.747413
0.860947
1.05661
1.30514
1.5606
1.88226
2.0411
2.05605
1.98954
1.76724
1.51769
1.43858
1.34961
1.08343
0.782684
0.663119
0.631485
0.648473
0.757081
0.936256
0.999305
1.01484
1.1257
1.24954
1.55801
2.46346
3.91728
4.65642
4.90906
4.95772
4.90934
4.61601
4.20792
3.78222
3.36618
2.98024
2.64965
2.37665
2.13307
1.93749
1.78282
1.63898
1.52891
1.44536
1.37162
1.31671
1.27151
1.2422
1.21214
1.17704
1.15884
1.14366
1.11468
1.10304
1.09965
1.08068
1.06789
1.0562
1.04221
1.02515
1.01696
0.997477
0.994978
0.996516
0.987199
0.988907
0.989298
0.992661
0.997438
1.00521
1.01201
1.01389
1.01423
1.01489
1.01407
1.01589
1.02006
1.02476
1.03259
1.04722
1.08103
1.1112
1.13935
1.16482
1.18953
1.23743
1.28634
1.32237
1.37268
1.46637
1.61967
1.73463
1.78928
1.84124
1.88815
1.90514
1.8751
1.81668
1.80546
1.79447
1.77815
1.91301
1.85876
2.08894
2.07837
2.19233
2.45217
2.55826
2.66378
2.44651
2.65426
3.06778
3.33671
3.62085
3.8925
4.31407
4.91142
5.45329
5.79128
5.92851
6.05147
6.1091
6.33584
6.8163
7.50575
7.8473
7.6268
7.17462
6.34208
5.60795
4.95713
4.52145
4.26891
3.88361
3.84898
3.99551
3.99019
4.24347
4.65072
4.70486
4.56932
4.93941
5.96666
5.97382
4.78298
3.88798
3.94417
4.8501
5.45336
2.00386
0.68289
0.269389
0.194922
0.1925
0.200614
0.202515
0.189201
0.162333
0.137395
0.122056
0.114711
0.112091
0.112053
0.113546
0.117451
0.123408
0.13262
0.142184
0.149822
0.159754
0.168703
0.17776
0.187511
0.195426
0.203371
0.211435
0.214736
0.221337
0.22881
0.232887
0.245433
0.2584
0.285379
0.347884
0.415157
0.551146
0.723325
0.883771
1.05344
1.13299
1.15881
1.14206
0.954577
0.588934
0.415829
0.372056
0.378636
0.46681
0.692341
0.99175
1.19811
1.38666
1.84534
2.2908
2.68517
2.91023
2.95214
2.84244
2.54996
2.31299
1.98646
1.66522
1.37946
1.13939
0.943865
0.817621
0.716546
0.646856
0.594383
0.563033
0.542161
0.525847
0.519115
0.516788
0.517224
0.521182
0.525218
0.526779
0.530721
0.533183
0.538339
0.538596
0.535766
0.535756
0.545561
0.547163
0.556404
0.560744
0.571959
0.579534
0.587068
0.589816
0.601272
0.619031
0.628034
0.650813
0.664166
0.690243
0.70681
0.726005
0.747334
0.76018
0.767295
0.768711
0.771293
0.772617
0.77491
0.778008
0.779674
0.780679
0.784871
0.794749
0.805191
0.810781
0.816583
0.826114
0.843539
0.879658
0.930917
0.965356
0.996125
1.03881
1.06202
1.08852
1.11722
1.14886
1.15582
1.15957
1.15597
1.14555
1.15974
1.16967
1.17309
1.19572
1.25019
1.25705
1.45022
1.55832
1.59913
1.46818
1.57741
1.77076
1.84629
1.88505
1.9051
2.03254
2.32975
2.86132
3.22802
3.3414
3.37082
3.29962
3.29471
3.43918
3.82374
4.43113
4.84944
4.98347
4.7883
4.30294
3.80758
3.45011
3.26171
2.80373
2.70004
2.82546
2.91966
3.23042
3.31013
3.13317
3.02905
3.1281
3.7433
3.98727
3.34367
2.48374
2.38491
2.70763
3.40725
3.60019
1.12459
0.377718
0.233089
0.227925
0.233278
0.21682
0.18442
0.147506
0.114751
0.0988068
0.095167
0.0955866
0.0985744
0.103428
0.110344
0.120026
0.133906
0.148696
0.163708
0.181952
0.198245
0.212058
0.222174
0.228216
0.231757
0.232498
0.230186
0.227342
0.223252
0.218293
0.214913
0.208653
0.203625
0.204878
0.210866
0.233389
0.277474
0.378558
0.492344
0.592983
0.765258
0.830564
0.783139
0.663065
0.490704
0.432447
0.448583
0.60184
1.07266
1.38367
1.4689
1.5626
1.78718
1.88499
1.90107
1.83153
1.56156
1.35932
1.14644
0.951173
0.764699
0.632987
0.516185
0.454824
0.402754
0.378528
0.361662
0.355983
0.355194
0.356823
0.361388
0.368972
0.376796
0.384607
0.391131
0.400439
0.409823
0.4138
0.416172
0.416357
0.419895
0.421318
0.415575
0.407625
0.405585
0.397773
0.39457
0.389104
0.390707
0.395166
0.407603
0.410942
0.421031
0.438253
0.448149
0.474798
0.487575
0.520475
0.541186
0.570078
0.599005
0.622506
0.642909
0.652718
0.66552
0.674411
0.683616
0.696318
0.705791
0.715229
0.721009
0.729871
0.745842
0.749525
0.749728
0.752785
0.760319
0.777971
0.828008
0.876563
0.896568
0.904687
0.923342
0.940549
0.97256
0.997897
1.00807
1.025
1.01744
1.00352
1.00999
1.00144
0.98201
0.97372
0.949473
1.0432
1.13177
1.21981
1.24564
1.19596
1.26817
1.4209
1.41815
1.37675
1.30765
1.36003
1.55931
1.88684
2.16321
2.24198
2.22215
2.20253
2.1584
2.17416
2.43082
2.84573
3.62488
4.07105
4.07429
3.74239
3.22283
2.89436
2.74669
2.29267
2.1887
2.26462
2.30259
2.78365
2.6813
2.48298
2.46907
2.84992
3.35795
3.45013
2.88912
2.15535
2.02102
2.10488
2.45606
5.40734
1.64719
0.539187
0.332902
0.294503
0.256876
0.212954
0.158573
0.110205
0.0928162
0.0892055
0.090192
0.0933339
0.0995377
0.108994
0.124778
0.147184
0.177155
0.205467
0.225824
0.237229
0.242803
0.246058
0.247842
0.248896
0.246983
0.243755
0.237729
0.23262
0.225613
0.220401
0.218335
0.211232
0.205338
0.200131
0.187014
0.182907
0.186965
0.205349
0.245309
0.322329
0.436852
0.525371
0.588377
0.593989
0.506568
0.488571
0.541169
0.846771
1.32778
1.39014
1.38268
1.35096
1.3234
1.24622
1.09384
0.949027
0.816773
0.664051
0.540823
0.456322
0.377165
0.338311
0.308618
0.295809
0.291679
0.291486
0.294919
0.30252
0.311618
0.320449
0.328987
0.33916
0.348504
0.357133
0.363245
0.368292
0.378697
0.384407
0.385885
0.383442
0.382643
0.385469
0.382603
0.374962
0.364489
0.353505
0.337864
0.3241
0.310978
0.300742
0.297308
0.297049
0.298154
0.302084
0.304207
0.312684
0.315894
0.326629
0.34545
0.36493
0.3883
0.411759
0.445613
0.472937
0.50063
0.529233
0.547048
0.569305
0.6124
0.653022
0.678072
0.699259
0.729504
0.745582
0.748153
0.751963
0.763527
0.770204
0.788086
0.844232
0.914015
0.92895
0.952819
0.956592
0.975728
0.982592
0.981579
0.994921
0.996794
0.962018
0.964586
0.963145
0.91774
0.953762
0.849072
1.04647
1.07909
1.14948
1.14428
1.0409
1.05524
1.13991
1.13064
1.07281
1.01669
1.07255
1.20337
1.4933
1.62972
1.67011
1.65983
1.60925
1.60672
1.64596
1.80447
2.07342
2.85699
3.53332
3.6561
3.45691
2.88314
2.57568
2.38886
2.06978
2.03628
1.978
1.85245
2.01918
2.03841
2.04697
2.04552
2.63912
3.26923
3.31181
2.74448
2.1091
1.93139
1.9037
2.01319
7.32103
2.23789
0.710461
0.418753
0.310478
0.242173
0.161941
0.105767
0.0899813
0.0870205
0.0881109
0.0924358
0.101344
0.116465
0.140745
0.181798
0.222655
0.239559
0.244004
0.24552
0.243989
0.241288
0.235518
0.226195
0.221556
0.214361
0.209261
0.203377
0.196074
0.192863
0.191995
0.193931
0.196357
0.198658
0.197093
0.190369
0.179284
0.170416
0.169181
0.177299
0.200948
0.248158
0.327015
0.432364
0.450676
0.452003
0.489381
0.578851
0.986009
1.36549
1.36689
1.17758
0.986207
0.88658
0.775199
0.650769
0.531055
0.455193
0.375542
0.322676
0.292749
0.270136
0.261463
0.258789
0.258724
0.26205
0.270136
0.279567
0.290072
0.301002
0.311072
0.319485
0.328015
0.336641
0.343233
0.34839
0.350559
0.35545
0.362582
0.363936
0.362053
0.359457
0.359449
0.357733
0.357988
0.344862
0.337212
0.314803
0.297928
0.276275
0.260136
0.246807
0.24416
0.242554
0.242182
0.242919
0.244173
0.244246
0.245531
0.253023
0.261597
0.26891
0.274811
0.287064
0.298556
0.31501
0.353609
0.389793
0.406911
0.428201
0.489888
0.560099
0.609849
0.653409
0.70363
0.730974
0.747695
0.782793
0.796982
0.800346
0.820314
0.891509
0.904777
0.948985
0.950883
0.960739
0.965224
0.956938
0.950959
0.964518
0.950203
0.903166
0.920567
0.852037
0.935302
0.810306
1.01188
1.00882
1.10899
1.10176
0.962366
0.859324
0.876649
0.873886
0.904561
0.936406
0.963651
1.04359
1.18176
1.19907
1.22412
1.34193
1.38182
1.38772
1.42876
1.5132
1.70705
2.36671
3.16899
3.33696
3.20946
2.67346
2.43974
2.14302
1.92032
1.95207
1.84856
1.63375
1.60675
1.72966
1.83744
1.76242
2.19732
3.11884
3.20804
2.65582
2.10614
1.95526
1.84971
1.81121
9.2776
2.93666
0.910779
0.452779
0.293424
0.169621
0.104721
0.0887426
0.0864351
0.0882337
0.0948634
0.109224
0.132233
0.171571
0.221017
0.243523
0.248944
0.248154
0.242303
0.230579
0.215588
0.200168
0.185964
0.1767
0.171898
0.166572
0.163201
0.159919
0.155315
0.1528
0.152506
0.153575
0.157952
0.171412
0.182381
0.186325
0.18124
0.168067
0.160204
0.159587
0.163756
0.178975
0.223047
0.286076
0.332651
0.407196
0.465345
0.601983
1.11947
1.34446
1.24673
0.899848
0.715111
0.61513
0.495222
0.420449
0.342503
0.305097
0.269581
0.251393
0.241375
0.238212
0.237779
0.240146
0.246966
0.255602
0.264434
0.274019
0.284398
0.293688
0.301682
0.305917
0.307661
0.30969
0.310336
0.310272
0.308483
0.30613
0.306405
0.305859
0.305692
0.303809
0.29905
0.299027
0.30258
0.300824
0.301405
0.291697
0.275509
0.250962
0.233183
0.212171
0.200744
0.20026
0.198004
0.201099
0.203481
0.203715
0.202115
0.204825
0.212261
0.21503
0.21533
0.219109
0.224786
0.231195
0.241106
0.26154
0.276219
0.285565
0.305691
0.355158
0.40669
0.460097
0.558686
0.65214
0.692599
0.759668
0.785352
0.809843
0.820042
0.86663
0.861558
0.899174
0.919846
0.91067
0.9254
0.894293
0.899198
0.862571
0.881628
0.795823
0.82055
0.749864
0.806394
0.706463
0.844641
0.818538
0.985916
0.957216
0.82227
0.73422
0.741034
0.759196
0.815955
0.877692
0.878038
0.915234
0.944035
0.938776
0.945701
1.06561
1.21729
1.21998
1.23654
1.31139
1.46778
1.97999
2.80863
3.02486
2.99591
2.5096
2.30866
2.0342
1.75024
1.74081
1.65455
1.4773
1.38317
1.54754
1.72225
1.75293
1.8237
2.70975
3.0156
2.59809
2.08807
1.99386
1.87097
1.71713
11.1495
3.6222
1.08074
0.452692
0.225427
0.113195
0.0892048
0.0867329
0.0901101
0.100886
0.121918
0.156812
0.20592
0.244947
0.25438
0.252209
0.244332
0.230837
0.212276
0.193852
0.180594
0.172302
0.166918
0.162642
0.158531
0.152951
0.15062
0.148088
0.145146
0.144023
0.143935
0.145413
0.148443
0.161851
0.172688
0.174101
0.174371
0.168228
0.158244
0.151936
0.151185
0.155232
0.170361
0.203477
0.265326
0.32634
0.39066
0.669345
1.22965
1.31383
1.07274
0.680395
0.53349
0.43482
0.352051
0.307696
0.266959
0.248524
0.23061
0.224209
0.222254
0.222299
0.226277
0.235081
0.244263
0.253568
0.262187
0.270217
0.276796
0.27849
0.277262
0.27298
0.267963
0.264036
0.263037
0.260454
0.253118
0.248382
0.241047
0.238161
0.237202
0.229346
0.218078
0.21883
0.218073
0.220553
0.225006
0.235495
0.233887
0.22002
0.207337
0.19054
0.175834
0.176224
0.173921
0.169185
0.172307
0.174191
0.172624
0.173343
0.179968
0.184897
0.184686
0.185949
0.189227
0.193476
0.197971
0.208348
0.215649
0.220549
0.230389
0.254244
0.283486
0.304164
0.33783
0.429004
0.517262
0.635506
0.700892
0.75845
0.793187
0.815506
0.818694
0.814424
0.850794
0.826642
0.830289
0.799277
0.807627
0.763701
0.78234
0.692488
0.696746
0.619887
0.678581
0.598235
0.650239
0.627343
0.717647
0.7031
0.678433
0.65759
0.663947
0.694721
0.746608
0.799954
0.787575
0.78048
0.778975
0.797207
0.832715
0.938601
1.16774
1.1639
1.13809
1.16056
1.28342
1.6794
2.52858
2.81453
2.82122
2.38715
2.16027
1.9577
1.60682
1.48963
1.45758
1.37953
1.33826
1.43762
1.73775
1.89146
1.77994
2.21393
2.70596
2.51304
2.06406
2.05642
1.90706
1.70137
12.8492
4.29826
1.16486
0.419785
0.159969
0.0943536
0.0878066
0.0923104
0.109419
0.13888
0.182799
0.23744
0.262554
0.266684
0.261175
0.248785
0.233294
0.216651
0.199763
0.184808
0.174304
0.167857
0.161457
0.153988
0.148006
0.144217
0.141912
0.140611
0.140205
0.141163
0.143421
0.147633
0.153787
0.165755
0.17273
0.173615
0.166685
0.157251
0.152393
0.151345
0.151144
0.149753
0.154805
0.175194
0.213499
0.266577
0.394786
0.827881
1.27212
1.25575
0.865418
0.532822
0.412892
0.328417
0.280465
0.255826
0.233145
0.220721
0.212562
0.210552
0.210523
0.214169
0.223084
0.23277
0.242868
0.251612
0.257393
0.258513
0.256437
0.250533
0.240181
0.229097
0.222641
0.21734
0.214745
0.209806
0.201213
0.194011
0.185242
0.184588
0.185215
0.178606
0.172712
0.172418
0.172689
0.173459
0.174073
0.179642
0.18718
0.185825
0.185603
0.179858
0.16661
0.166028
0.165798
0.158881
0.159698
0.16258
0.16133
0.160927
0.16647
0.169876
0.170784
0.171747
0.174828
0.178279
0.181517
0.187052
0.190615
0.195792
0.2037
0.212327
0.229171
0.240644
0.256359
0.291235
0.331078
0.381336
0.488148
0.561808
0.654564
0.688044
0.727849
0.718817
0.734618
0.721201
0.700033
0.687783
0.682305
0.622018
0.603996
0.552779
0.567344
0.525703
0.54484
0.520671
0.521689
0.525359
0.579667
0.586663
0.612781
0.599109
0.606642
0.657381
0.708604
0.755025
0.756083
0.732028
0.738949
0.762737
0.796122
0.845335
1.07189
1.11669
1.05011
0.992768
1.09266
1.40426
2.24469
2.61753
2.65782
2.33435
2.03894
1.8636
1.52348
1.3225
1.33092
1.27692
1.29108
1.4017
1.80787
1.89539
1.82193
1.92353
2.34393
2.30747
2.05565
2.09075
1.97388
1.70716
14.2438
4.81082
1.1766
0.336812
0.119133
0.0906582
0.0932008
0.114688
0.157724
0.209564
0.263822
0.282787
0.284388
0.27967
0.267556
0.250957
0.233825
0.216291
0.200676
0.187859
0.178359
0.169505
0.15902
0.150058
0.145016
0.142084
0.140389
0.139863
0.141175
0.144483
0.150115
0.159498
0.168218
0.170407
0.16972
0.165178
0.160757
0.159249
0.15719
0.15173
0.14913
0.149261
0.153914
0.167425
0.199978
0.268909
0.48843
1.11224
1.28712
1.12393
0.642551
0.421518
0.326092
0.272114
0.246414
0.229059
0.212809
0.20459
0.201683
0.201257
0.203787
0.211822
0.221366
0.230902
0.240349
0.243377
0.242935
0.239096
0.230258
0.218344
0.207739
0.204855
0.203619
0.198384
0.192522
0.183676
0.180585
0.171077
0.164155
0.162028
0.161225
0.159851
0.158134
0.156996
0.159175
0.160529
0.162808
0.165167
0.173873
0.173649
0.169784
0.172683
0.165286
0.159509
0.162326
0.156722
0.154756
0.158156
0.157481
0.156309
0.162053
0.164944
0.165662
0.167255
0.171557
0.173434
0.17632
0.180613
0.183233
0.187556
0.193939
0.198357
0.209491
0.215855
0.226316
0.242442
0.266621
0.284113
0.331443
0.361309
0.412214
0.46985
0.513249
0.50894
0.534458
0.533099
0.515341
0.503038
0.500328
0.48161
0.478499
0.471565
0.475274
0.458002
0.47035
0.482584
0.474407
0.490051
0.527425
0.530156
0.579302
0.600176
0.609901
0.672615
0.680086
0.733875
0.724955
0.691768
0.719538
0.76452
0.794279
0.800397
0.923126
0.993785
0.941771
0.867833
0.937116
1.16544
1.93778
2.37453
2.44613
2.25341
1.91944
1.78111
1.47508
1.23081
1.2204
1.17182
1.17382
1.38972
1.78845
1.83519
1.79549
1.73688
2.0283
2.13868
2.0559
2.07143
2.01203
1.77124
15.3082
5.16512
1.13313
0.245511
0.102329
0.0927932
0.112965
0.163811
0.229279
0.285033
0.305282
0.310155
0.311875
0.307736
0.29756
0.284503
0.261604
0.240337
0.225424
0.213944
0.200007
0.182945
0.169998
0.162468
0.158285
0.155778
0.154957
0.155835
0.159239
0.162643
0.167338
0.172902
0.178347
0.180292
0.179986
0.177902
0.174572
0.169869
0.164485
0.158727
0.157018
0.158144
0.163318
0.177204
0.222144
0.377746
0.883949
1.2272
1.20948
0.875528
0.466736
0.33576
0.27212
0.240742
0.223894
0.209842
0.198227
0.194441
0.193594
0.19475
0.201141
0.210478
0.219471
0.227976
0.230254
0.229577
0.226212
0.218466
0.207638
0.197504
0.194198
0.193363
0.192899
0.188601
0.180448
0.172328
0.168708
0.162246
0.158136
0.155685
0.155337
0.154824
0.154215
0.152904
0.154741
0.156351
0.159446
0.162133
0.169879
0.172772
0.167705
0.17002
0.168257
0.159014
0.160335
0.156772
0.153571
0.157165
0.156725
0.155527
0.160762
0.16421
0.164261
0.167301
0.171426
0.172757
0.175946
0.17959
0.181308
0.186101
0.193463
0.195677
0.202863
0.211531
0.218027
0.223677
0.241254
0.256756
0.271506
0.286575
0.319557
0.348367
0.370977
0.37259
0.388418
0.401892
0.406362
0.4006
0.407293
0.409034
0.411876
0.418035
0.42927
0.432269
0.439946
0.448593
0.449687
0.472229
0.499001
0.506048
0.579076
0.600067
0.621839
0.666486
0.648894
0.753853
0.723574
0.685694
0.716893
0.811214
0.833395
0.793524
0.830831
0.884462
0.85534
0.796031
0.831482
0.981474
1.61925
2.14225
2.29435
2.17795
1.84421
1.69055
1.40449
1.15377
1.11659
1.09682
1.09805
1.33777
1.59342
1.60324
1.72928
1.64852
1.85911
2.04969
2.04379
2.06087
2.11697
1.91677
15.9997
5.3373
1.01539
0.186975
0.100077
0.101809
0.151728
0.217584
0.29045
0.331567
0.350588
0.366446
0.372262
0.372861
0.36136
0.332658
0.317674
0.314077
0.306678
0.285943
0.258183
0.234901
0.219564
0.202405
0.191969
0.188927
0.188793
0.193618
0.19784
0.198793
0.198987
0.200029
0.202497
0.206188
0.206324
0.204634
0.20238
0.200298
0.198005
0.196867
0.196442
0.201665
0.216877
0.274278
0.441205
0.819861
1.11649
1.15412
1.00675
0.558151
0.359016
0.277519
0.238904
0.219955
0.207959
0.195199
0.188918
0.187374
0.187517
0.191537
0.199922
0.209201
0.21746
0.220805
0.22068
0.218729
0.213576
0.204367
0.194956
0.187311
0.184115
0.182707
0.181981
0.17933
0.172829
0.16837
0.163729
0.160111
0.157066
0.154515
0.154857
0.154502
0.154234
0.153676
0.155817
0.157109
0.159169
0.162942
0.169025
0.178215
0.175357
0.172681
0.173359
0.165344
0.164071
0.162913
0.158848
0.162515
0.162871
0.161637
0.165963
0.170326
0.169716
0.175156
0.178214
0.177865
0.181544
0.185085
0.185833
0.190161
0.196406
0.198284
0.201672
0.212262
0.217967
0.221989
0.235735
0.250477
0.254731
0.260366
0.282128
0.296888
0.313062
0.318961
0.327112
0.342147
0.355275
0.361494
0.368683
0.373874
0.383321
0.393762
0.403458
0.41295
0.41993
0.428904
0.454511
0.47146
0.481485
0.504833
0.589887
0.593257
0.6192
0.641005
0.645817
0.729724
0.719313
0.703285
0.776425
0.839222
0.856974
0.797423
0.787238
0.818391
0.803351
0.762114
0.78088
0.875879
1.35646
1.96366
2.13828
2.06265
1.8046
1.58683
1.32478
1.09454
1.03889
1.04186
1.08206
1.31581
1.46722
1.48208
1.64405
1.63264
1.78268
1.99201
2.00515
2.06134
2.1425
2.29211
16.3513
5.42871
0.912705
0.165272
0.102197
0.116442
0.185413
0.280922
0.361432
0.39379
0.408232
0.412255
0.40986
0.394837
0.386071
0.38803
0.396329
0.399831
0.401753
0.398076
0.38338
0.353885
0.318397
0.284808
0.253646
0.238655
0.234497
0.235322
0.246204
0.254209
0.254771
0.247129
0.243935
0.244785
0.254231
0.262619
0.270096
0.283197
0.299832
0.320336
0.353884
0.407966
0.482728
0.627993
0.830791
0.995936
1.03597
0.97435
0.651434
0.38529
0.285275
0.237723
0.214729
0.203026
0.194274
0.18509
0.182193
0.181689
0.18322
0.189465
0.198727
0.207451
0.21351
0.214594
0.21356
0.209172
0.199936
0.186822
0.178689
0.17512
0.173695
0.174039
0.17461
0.1727
0.170775
0.167583
0.163645
0.162916
0.160724
0.160274
0.160159
0.160324
0.159196
0.159604
0.164003
0.168224
0.168207
0.171133
0.178169
0.183517
0.185529
0.183746
0.18255
0.177583
0.175625
0.17535
0.173196
0.176284
0.17801
0.177833
0.183386
0.188125
0.18788
0.194407
0.196562
0.195613
0.19896
0.202259
0.201143
0.202897
0.209388
0.208835
0.208144
0.220297
0.224343
0.225897
0.23382
0.246445
0.250922
0.25672
0.26554
0.276903
0.293639
0.303238
0.305073
0.316188
0.332792
0.341488
0.351957
0.362248
0.373613
0.382102
0.389106
0.399819
0.406752
0.425779
0.450369
0.465438
0.481578
0.512552
0.596631
0.584777
0.621835
0.626296
0.656241
0.708724
0.719586
0.727177
0.830239
0.85004
0.857221
0.811527
0.777066
0.800296
0.786422
0.755977
0.766749
0.834379
1.15916
1.7507
1.93226
1.93129
1.77776
1.52375
1.26894
1.06388
1.00899
1.02547
1.08428
1.32177
1.43165
1.46382
1.5067
1.63686
1.76987
1.94089
1.94959
2.03919
2.15413
2.81972
16.4255
5.48385
0.887715
0.162701
0.108977
0.140527
0.222536
0.32752
0.391127
0.415349
0.41915
0.41856
0.41735
0.397745
0.385273
0.385646
0.401214
0.421451
0.439911
0.462239
0.480428
0.490964
0.490503
0.449866
0.393943
0.329915
0.303217
0.296188
0.302422
0.324883
0.335061
0.34136
0.335476
0.330362
0.340492
0.366643
0.39051
0.4178
0.450934
0.491365
0.540914
0.600725
0.680363
0.786133
0.877482
0.906343
0.868975
0.647875
0.419055
0.29272
0.238639
0.212323
0.199353
0.191895
0.184321
0.17891
0.177541
0.177493
0.180165
0.18723
0.197511
0.205274
0.208642
0.208697
0.2066
0.200626
0.189957
0.175527
0.168123
0.166417
0.167017
0.170851
0.171562
0.17025
0.170078
0.169818
0.171846
0.174525
0.174961
0.17625
0.175362
0.175605
0.172595
0.171087
0.169769
0.172429
0.173138
0.176648
0.18233
0.188132
0.188591
0.188771
0.190889
0.189747
0.190621
0.192984
0.192345
0.195552
0.20109
0.201077
0.206911
0.216862
0.217126
0.223108
0.225114
0.224201
0.226568
0.23261
0.231013
0.229208
0.232815
0.231063
0.228694
0.23572
0.237523
0.236356
0.239292
0.247836
0.251416
0.257648
0.265713
0.271911
0.285836
0.295086
0.298504
0.308775
0.317013
0.329602
0.345794
0.355953
0.366781
0.373863
0.378191
0.392041
0.401585
0.425339
0.442873
0.457078
0.485765
0.525938
0.597815
0.574909
0.616469
0.605036
0.694304
0.719303
0.72282
0.768374
0.837715
0.836258
0.856872
0.830646
0.782606
0.799532
0.782907
0.758301
0.766306
0.823987
1.02549
1.53184
1.7822
1.86016
1.76326
1.49342
1.23347
1.05287
1.0058
1.02547
1.13086
1.34833
1.43177
1.46816
1.42835
1.612
1.77492
1.85181
1.83053
1.94617
2.37256
2.99856
16.4904
5.74545
0.945293
0.173462
0.123845
0.156789
0.235862
0.344346
0.394604
0.41407
0.417733
0.414326
0.395496
0.380531
0.378943
0.382674
0.393832
0.405623
0.422934
0.45181
0.48621
0.526852
0.554533
0.565672
0.5637
0.521593
0.434102
0.372227
0.349557
0.344383
0.355228
0.382871
0.402884
0.402485
0.401014
0.416008
0.436382
0.464457
0.500647
0.54307
0.593407
0.649815
0.713572
0.756262
0.769244
0.719829
0.584709
0.435337
0.305606
0.244563
0.21308
0.197334
0.189381
0.184097
0.177692
0.174371
0.173687
0.174074
0.177667
0.185199
0.195214
0.200541
0.201389
0.200631
0.197277
0.189844
0.17902
0.16931
0.16336
0.162344
0.164042
0.169232
0.169989
0.169083
0.169177
0.17033
0.174772
0.179614
0.18196
0.182671
0.182989
0.183067
0.180329
0.177216
0.176471
0.174956
0.174743
0.178126
0.182198
0.186557
0.188323
0.189914
0.193973
0.196465
0.200373
0.205693
0.20664
0.211147
0.21966
0.220701
0.227022
0.236237
0.236821
0.242127
0.247691
0.247837
0.251714
0.255577
0.254186
0.25426
0.25956
0.257389
0.256596
0.261998
0.262336
0.261628
0.260748
0.261185
0.263293
0.267044
0.271448
0.273047
0.283271
0.291125
0.298245
0.302531
0.311412
0.326134
0.337182
0.349911
0.359612
0.366103
0.370651
0.382369
0.393638
0.419033
0.440498
0.457082
0.48815
0.527519
0.587566
0.549514
0.568305
0.602112
0.763379
0.754398
0.756118
0.835628
0.802114
0.819227
0.859423
0.861214
0.851036
0.828066
0.796027
0.801095
0.800216
0.840703
0.975883
1.37244
1.67357
1.76986
1.71091
1.47655
1.2155
1.05246
1.00983
1.03892
1.27161
1.423
1.46783
1.50481
1.38692
1.50098
1.71421
1.71292
1.7214
1.88457
2.49228
2.87533
16.7551
6.00883
1.01923
0.191587
0.133856
0.156001
0.229541
0.339863
0.384826
0.398965
0.403041
0.39711
0.375617
0.363282
0.361315
0.364156
0.375436
0.378616
0.382471
0.391874
0.416711
0.465908
0.529355
0.574039
0.589033
0.587501
0.550803
0.468891
0.388426
0.363324
0.360897
0.383678
0.4315
0.447128
0.44612
0.442616
0.447098
0.473148
0.509575
0.548453
0.588778
0.622838
0.637033
0.63614
0.587405
0.517509
0.420406
0.323805
0.253468
0.217701
0.198173
0.188549
0.183014
0.179099
0.173995
0.171783
0.17118
0.171364
0.174486
0.181431
0.191179
0.194894
0.195228
0.194203
0.190658
0.1826
0.170915
0.161118
0.15845
0.158603
0.161865
0.168057
0.168937
0.167412
0.16741
0.169771
0.174493
0.179827
0.182953
0.184215
0.184621
0.18433
0.18315
0.179153
0.178541
0.179195
0.18032
0.182141
0.184029
0.187234
0.190483
0.194232
0.202063
0.206515
0.211146
0.217455
0.218928
0.222622
0.231256
0.232275
0.235628
0.243942
0.245072
0.250057
0.258091
0.259937
0.262108
0.265984
0.264813
0.265107
0.271607
0.271438
0.271185
0.275759
0.275895
0.274761
0.275326
0.276496
0.275832
0.277012
0.277693
0.277577
0.283132
0.289445
0.297258
0.299665
0.308002
0.321303
0.332851
0.344089
0.3481
0.353748
0.360155
0.370422
0.385872
0.40975
0.435683
0.453105
0.488212
0.522889
0.539802
0.492902
0.508212