/*--------------------------------*- C++ -*----------------------------------*\
| =========                 |                                                 |
| \\      /  F ield         | OpenFOAM: The Open Source CFD Toolbox           |
|  \\    /   O peration     | Version:  dev                                   |
|   \\  /    A nd           | Web:      http://www.openfoam.org               |
|    \\/     M anipulation  |                                                 |
\*---------------------------------------------------------------------------*/
FoamFile
{
    version     2.0;
    format      ascii;
    class       volScalarField;
    object      muSgs;
    location    "9.122";
}
// * * * * * * * * * * * * * * * * * * * * * * * * * * * * * * * * * * * * * //

dimensions      [1 -1 -1 0 0 0 0];

internalField   nonuniform List<scalar> 
12225
(
0.000249369
0.00026872
0.000222881
0.00023155
0.00019948
0.000245414
0.000215922
0.000279781
0.000243675
0.00032218
0.000277109
0.000371018
0.00032618
0.000423521
0.000412022
0.00046724
0.000466214
0.00061402
0.000101463
0.000195957
0.000183804
0.00019898
0.000172794
0.000186062
0.000165396
0.000178895
0.000165285
0.000176069
0.000165652
0.000171891
0.000165528
0.000165383
0.000174366
0.00016761
0.000156105
0.000198951
2.95845e-05
0.000108698
0.000118617
0.000149133
0.000144382
0.000151101
0.000147649
0.000143979
0.000143507
0.000132528
0.000131257
0.000118591
0.000116595
0.000103775
0.000104627
9.48589e-05
8.63599e-05
0.000102782
1.17093e-05
5.116e-05
6.40114e-05
8.07668e-05
9.5219e-05
9.55933e-05
0.000107357
0.000101584
0.000107197
9.72639e-05
9.71225e-05
8.64723e-05
8.43001e-05
7.47773e-05
7.53015e-05
7.04204e-05
6.73352e-05
7.58407e-05
7.83601e-06
3.46741e-05
4.08041e-05
5.08485e-05
6.35397e-05
6.6391e-05
7.38531e-05
7.21537e-05
7.39035e-05
6.91958e-05
6.90197e-05
6.28387e-05
6.23873e-05
5.64458e-05
5.84956e-05
5.62778e-05
5.9053e-05
5.52442e-05
9.51457e-06
2.78929e-05
3.1259e-05
3.63217e-05
4.38709e-05
4.55291e-05
5.1147e-05
5.04074e-05
5.24955e-05
5.00371e-05
5.0692e-05
4.75292e-05
4.80848e-05
4.50654e-05
4.61328e-05
4.46853e-05
5.44343e-05
5.58684e-05
1.68905e-05
2.42852e-05
2.85923e-05
3.05544e-05
3.47754e-05
3.56437e-05
3.92047e-05
3.91892e-05
4.13635e-05
4.05491e-05
4.16019e-05
4.05407e-05
4.16934e-05
4.05954e-05
4.17194e-05
4.1186e-05
4.39428e-05
6.11463e-05
2.06053e-05
2.45877e-05
2.57532e-05
2.69533e-05
2.89656e-05
2.9568e-05
3.13698e-05
3.16468e-05
3.31803e-05
3.30144e-05
3.412e-05
3.37305e-05
3.48876e-05
3.46206e-05
3.57163e-05
3.55851e-05
3.65734e-05
3.95223e-05
3.05517e-05
3.49016e-05
3.29532e-05
3.33234e-05
3.31992e-05
3.33937e-05
3.43817e-05
3.46226e-05
3.58785e-05
3.58317e-05
3.68934e-05
3.6707e-05
3.76886e-05
3.77491e-05
3.83806e-05
3.88819e-05
3.93953e-05
4.11436e-05
4.63377e-05
4.99316e-05
4.67462e-05
4.59156e-05
4.37772e-05
4.2972e-05
4.20885e-05
4.20633e-05
4.19507e-05
4.22828e-05
4.27471e-05
4.29454e-05
4.38124e-05
4.37958e-05
4.45468e-05
4.4541e-05
4.46858e-05
4.52324e-05
7.09613e-05
7.13428e-05
6.60431e-05
6.41969e-05
6.0679e-05
5.90038e-05
5.68177e-05
5.58489e-05
5.46838e-05
5.42695e-05
5.37742e-05
5.42253e-05
5.37792e-05
5.43037e-05
5.39745e-05
5.40316e-05
5.37841e-05
5.28937e-05
0.000100396
9.91619e-05
9.15624e-05
8.73048e-05
8.21192e-05
7.92442e-05
7.66606e-05
7.48565e-05
7.32401e-05
7.18091e-05
7.07766e-05
6.98321e-05
6.92516e-05
6.84103e-05
6.76061e-05
6.67649e-05
6.55648e-05
6.41218e-05
0.00013954
0.000134836
0.000123446
0.000116011
0.000107247
0.000102471
9.85042e-05
9.56458e-05
9.30026e-05
9.07914e-05
8.85593e-05
8.67167e-05
8.47588e-05
8.29352e-05
8.11317e-05
7.92771e-05
7.75677e-05
7.5795e-05
0.000189808
0.000181494
0.000166272
0.000153411
0.00014093
0.00013365
0.000127707
0.000123175
0.000118941
0.000115261
0.00011154
0.000108355
0.00010502
0.000102031
9.87906e-05
9.59561e-05
9.27149e-05
8.99423e-05
0.000253836
0.000240288
0.000219503
0.000201098
0.000184899
0.000171923
0.000160642
0.0001516
0.0001435
0.000136983
0.000130676
0.000125615
0.000120307
0.000116022
0.000111331
0.000107554
0.000103236
9.98907e-05
0.000319137
0.000295442
0.000262474
0.000234501
0.000211496
0.000193694
0.000179261
0.000167962
0.000158215
0.000150409
0.000143057
0.00013712
0.000131007
0.000126076
0.000120732
0.000116468
0.0001116
0.000107961
0.00035447
0.0003238
0.000285233
0.000253704
0.000228187
0.000208452
0.000192575
0.000180156
0.000169512
0.000161046
0.000153086
0.000146663
0.000140117
0.000134805
0.000129039
0.000124451
0.000119228
0.000115363
0.000346384
0.000316022
0.000278947
0.000248386
0.000223719
0.000204576
0.000189107
0.000176973
0.000166558
0.000158294
0.000150574
0.000144354
0.000137989
0.000132852
0.000127189
0.000122665
0.000117564
0.000113816
0.000285922
0.000265231
0.000240594
0.000216702
0.000197068
0.00018161
0.000168785
0.000158521
0.000149597
0.000142477
0.000135815
0.00013047
0.000124902
0.000120357
0.000115335
0.000111287
0.000106684
0.000103322
0.00021589
0.000199916
0.000185446
0.000171047
0.00015913
0.000149352
0.000140557
0.000133248
0.000126602
0.00012128
0.00011626
0.000112243
0.000107907
0.000104233
0.000100066
9.66481e-05
9.26991e-05
8.98801e-05
0.000152114
0.000141895
0.000132023
0.000122414
0.000114418
0.000108146
0.000102624
9.84143e-05
9.47694e-05
9.18227e-05
8.90527e-05
8.68384e-05
8.43716e-05
8.1955e-05
7.91416e-05
7.65944e-05
7.37259e-05
7.16727e-05
0.000107367
0.000102069
9.63598e-05
9.02426e-05
8.55572e-05
8.13623e-05
7.71302e-05
7.3383e-05
7.03238e-05
6.77381e-05
6.60695e-05
6.49995e-05
6.411e-05
6.3215e-05
6.21282e-05
6.10407e-05
5.98342e-05
5.86915e-05
7.02111e-05
6.78757e-05
6.55302e-05
6.20957e-05
5.91431e-05
5.68781e-05
5.58908e-05
5.53704e-05
5.53541e-05
5.54967e-05
5.57576e-05
5.60635e-05
5.61577e-05
5.60756e-05
5.56583e-05
5.51598e-05
5.43982e-05
5.36724e-05
4.61422e-05
4.49205e-05
4.27762e-05
4.28492e-05
4.39765e-05
4.62794e-05
4.80543e-05
4.93447e-05
5.0279e-05
5.10553e-05
5.1746e-05
5.23201e-05
5.26344e-05
5.27303e-05
5.24859e-05
5.21455e-05
5.1491e-05
5.09397e-05
2.84334e-05
2.84668e-05
3.14166e-05
3.63905e-05
4.06425e-05
4.41227e-05
4.6856e-05
4.875e-05
5.03234e-05
5.17205e-05
5.27964e-05
5.36269e-05
5.40597e-05
5.4183e-05
5.39674e-05
5.35722e-05
5.29342e-05
5.23326e-05
1.42755e-05
2.15198e-05
3.05263e-05
4.1664e-05
5.00718e-05
5.54643e-05
5.89127e-05
6.07881e-05
6.24039e-05
6.38008e-05
6.4706e-05
6.5314e-05
6.52948e-05
6.49018e-05
6.424e-05
6.33448e-05
6.24304e-05
6.12903e-05
1.01454e-05
3.01476e-05
5.21682e-05
7.11147e-05
8.15089e-05
8.6286e-05
8.8621e-05
8.93357e-05
8.99144e-05
9.01805e-05
9.0135e-05
8.96984e-05
8.84767e-05
8.6935e-05
8.53194e-05
8.35472e-05
8.16168e-05
7.95934e-05
2.68608e-05
7.31857e-05
0.000107319
0.000126843
0.000135415
0.000136129
0.000134358
0.000131892
0.000129185
0.000126258
0.00012363
0.000120863
0.000117541
0.000114022
0.000110442
0.000106891
0.000103187
9.97021e-05
9.19979e-05
0.000170372
0.000193503
0.000189265
0.000181312
0.000173288
0.000166068
0.000160092
0.000155515
0.000151128
0.000146172
0.000141048
0.000135899
0.000130906
0.000126154
0.000121646
0.000117354
0.000112276
0.00022971
0.000280597
0.000269972
0.000240445
0.000221915
0.000215153
0.000213966
0.000214614
0.000215368
0.000215749
0.000215099
0.000213354
0.000210604
0.000206807
0.000202359
0.000197145
0.00019071
0.000183077
3.6808e-05
3.57353e-05
3.87577e-05
4.15019e-05
4.3441e-05
4.56985e-05
4.78455e-05
5.0131e-05
5.23414e-05
5.43697e-05
5.65723e-05
5.90948e-05
6.19282e-05
6.52874e-05
6.87679e-05
7.30667e-05
7.74171e-05
8.20753e-05
8.72747e-05
9.25189e-05
9.87438e-05
0.000104711
0.000110811
0.000117208
0.000123664
0.000130435
0.000137388
0.000144359
0.000151833
0.00015895
0.000166592
0.000174436
0.000182105
0.000190157
0.000196626
0.000199392
0.000198777
0.00019572
0.000195615
0.000196895
0.000199158
0.000203459
0.000210518
0.000216532
0.000219754
0.000220988
0.000220685
0.00021997
0.000220229
0.000220295
0.000219435
0.000221968
0.000231987
0.0002394
0.000246922
0.000252489
0.000256831
0.000263794
0.000270223
0.000273093
0.000282171
0.000303245
0.000326763
0.000345283
0.000359493
0.000370324
0.000376915
0.000380965
0.000383308
0.000381993
0.000378912
0.000373574
0.00036652
0.000358233
0.000349034
0.000338945
0.00032843
0.000317806
0.000307485
0.000297711
0.000287375
0.000277613
0.00026927
0.000260689
0.00025242
0.000245245
0.000238348
0.000232108
0.000226108
0.000220874
0.000215485
0.000211754
0.00020732
0.000203937
0.000201319
0.000198787
0.000197099
0.000195994
0.000195207
0.00019524
0.000195712
0.000196275
0.000197066
0.000198216
0.00020002
0.000202271
0.00020496
0.000207728
0.000210718
0.000213902
0.000217577
0.000221552
0.000224981
0.000228194
0.000230725
0.000233293
0.000236807
0.000238468
0.000238788
0.000239676
0.000242538
0.00024838
0.000255034
0.000262679
0.000272571
0.000282733
0.000291309
0.000296132
0.000296071
0.000295698
0.000296653
0.000287364
0.000298413
0.000284408
0.000302893
0.000288684
0.000300428
0.0002985
0.000313293
0.000325464
0.000333484
0.000336729
0.000351362
0.0003653
0.000382771
0.00039667
0.000408762
0.000415812
0.000419902
0.000424437
0.000429396
0.000436115
0.000443037
0.000454338
0.000464786
0.000473322
0.000475114
0.000467511
0.000450772
0.000422363
0.000398465
0.000375869
0.000367725
0.000362459
0.000361588
0.000368539
0.000377623
0.000387438
0.000413564
0.000455725
0.000465133
0.000486443
0.000547027
0.000583761
0.000561082
0.00049413
0.000482803
0.000497654
0.000529445
0.000537255
7.7733e-05
5.25169e-05
4.24042e-05
4.15572e-05
4.18847e-05
4.22429e-05
4.17677e-05
4.09679e-05
3.99078e-05
3.86629e-05
3.80075e-05
3.78115e-05
3.7874e-05
3.83196e-05
3.88331e-05
3.97331e-05
4.06541e-05
4.18381e-05
4.3327e-05
4.45331e-05
4.65966e-05
4.84968e-05
5.03921e-05
5.29155e-05
5.49935e-05
5.73876e-05
6.06727e-05
6.31136e-05
6.72095e-05
7.13556e-05
7.57754e-05
8.32862e-05
8.99463e-05
0.000100774
0.000112554
0.000124792
0.000138645
0.000144715
0.000148029
0.000145869
0.000137516
0.000131682
0.000128937
0.000123273
0.000109501
9.3329e-05
8.69779e-05
8.63241e-05
8.9012e-05
9.72895e-05
0.000108272
0.000110211
0.000111156
0.000119333
0.000127753
0.000143017
0.00017846
0.000223169
0.000242455
0.000249663
0.000252973
0.000253902
0.000247461
0.000237375
0.000226228
0.000214344
0.000202693
0.000192072
0.000182823
0.000173981
0.000166765
0.000160757
0.000154977
0.000150663
0.000147322
0.000144412
0.000142478
0.00014099
0.000140343
0.000139487
0.000138482
0.000138483
0.000138583
0.000137783
0.000138389
0.000139312
0.000139039
0.000139446
0.000139896
0.000140106
0.000140156
0.000140724
0.000140466
0.000142096
0.000143374
0.000143959
0.000145804
0.000146984
0.000148925
0.000150453
0.000152418
0.000154046
0.000155232
0.000156082
0.000156926
0.000157589
0.000158216
0.00015871
0.00015862
0.000158581
0.000159083
0.000160893
0.000162834
0.000165289
0.000168198
0.000170796
0.000173426
0.000176138
0.000178745
0.000181449
0.000185199
0.000189603
0.000189774
0.000189
0.000191096
0.000192167
0.00019159
0.00019052
0.000188094
0.000188066
0.000187883
0.000187206
0.000194147
0.000192046
0.00020233
0.000201963
0.000206673
0.00021149
0.000224186
0.000219042
0.000210875
0.000222143
0.000243085
0.00025319
0.00026513
0.00027566
0.000289411
0.000306299
0.000320433
0.000329003
0.000333559
0.000340132
0.000346904
0.000360023
0.000380714
0.000405506
0.000417952
0.000415151
0.000404179
0.000384435
0.000368082
0.00035147
0.000342096
0.000336366
0.000318059
0.000327229
0.00034643
0.000352363
0.000370498
0.000401538
0.000409395
0.000413485
0.000425752
0.000450419
0.000456601
0.000430427
0.000407831
0.000411698
0.000436262
0.000440746
0.00012183
7.50575e-05
4.92573e-05
4.27733e-05
4.20692e-05
4.1526e-05
4.03116e-05
3.80387e-05
3.48266e-05
3.18907e-05
3.00578e-05
2.9234e-05
2.9029e-05
2.91877e-05
2.95623e-05
3.02639e-05
3.12336e-05
3.26278e-05
3.40033e-05
3.51527e-05
3.65658e-05
3.77482e-05
3.9027e-05
4.03104e-05
4.12995e-05
4.24249e-05
4.34675e-05
4.39193e-05
4.49497e-05
4.57742e-05
4.63297e-05
4.78254e-05
4.90756e-05
5.19302e-05
5.7393e-05
6.30869e-05
7.32696e-05
8.43404e-05
9.46967e-05
0.000104619
0.000110174
0.000112099
0.000112284
0.000104741
8.14888e-05
6.87541e-05
6.50727e-05
6.68079e-05
7.50362e-05
9.17329e-05
0.000108973
0.000119354
0.000130378
0.000152182
0.000169622
0.000183651
0.000190437
0.000193282
0.000189436
0.000179633
0.00017125
0.000157828
0.000144308
0.000131136
0.000118953
0.000108579
0.000101341
9.50179e-05
9.06067e-05
8.70864e-05
8.51471e-05
8.37879e-05
8.2878e-05
8.27403e-05
8.2909e-05
8.3313e-05
8.40956e-05
8.47935e-05
8.54479e-05
8.62155e-05
8.70214e-05
8.78631e-05
8.84799e-05
8.87556e-05
8.95038e-05
9.10751e-05
9.1792e-05
9.32271e-05
9.43239e-05
9.59735e-05
9.74341e-05
9.88714e-05
9.94695e-05
0.000101739
0.000104322
0.000105792
0.000109425
0.000111359
0.000115519
0.00011824
0.000121522
0.000125213
0.000128076
0.000130131
0.000131566
0.000133071
0.000134575
0.000135787
0.000136906
0.00013736
0.000137137
0.000136815
0.000137174
0.000138162
0.000139473
0.000141927
0.00014511
0.000144798
0.000143093
0.000148487
0.000155267
0.000155506
0.000152582
0.000147884
0.000144909
0.000145713
0.00014809
0.000148683
0.000149096
0.000149212
0.000149474
0.000150931
0.000151061
0.000151743
0.000155336
0.000151505
0.000166207
0.000164572
0.000175943
0.000165868
0.000156333
0.000163932
0.000178462
0.000183104
0.000187837
0.000193976
0.000203868
0.000214228
0.000226686
0.000231392
0.000232172
0.000232942
0.000233919
0.000240237
0.000256358
0.000283256
0.000316098
0.000335195
0.000343397
0.000340751
0.0003283
0.000315133
0.000303148
0.00030108
0.000257333
0.000260154
0.000283824
0.000280729
0.000300008
0.000316672
0.000330867
0.000326046
0.000339778
0.000366936
0.000391433
0.000373891
0.000335146
0.000336807
0.000357444
0.000378051
0.000162053
9.46044e-05
5.69412e-05
4.54353e-05
4.42802e-05
4.35131e-05
4.09784e-05
3.73145e-05
3.31886e-05
2.92508e-05
2.72572e-05
2.69077e-05
2.71494e-05
2.77658e-05
2.86591e-05
2.98406e-05
3.14077e-05
3.34674e-05
3.55045e-05
3.75744e-05
3.98324e-05
4.17628e-05
4.33923e-05
4.46249e-05
4.53554e-05
4.59448e-05
4.62029e-05
4.61236e-05
4.6189e-05
4.58476e-05
4.55336e-05
4.55663e-05
4.49357e-05
4.47405e-05
4.49945e-05
4.56243e-05
4.8188e-05
5.25677e-05
6.16074e-05
7.08112e-05
7.89717e-05
9.03947e-05
9.48155e-05
9.3112e-05
8.65994e-05
7.52271e-05
7.12709e-05
7.45514e-05
8.65979e-05
0.000114221
0.00012815
0.000133934
0.000138516
0.000148966
0.000152462
0.000153529
0.00014988
0.000137169
0.000128215
0.000117168
0.000106107
9.51049e-05
8.64439e-05
7.82092e-05
7.38418e-05
6.97667e-05
6.79372e-05
6.6818e-05
6.65639e-05
6.67767e-05
6.71766e-05
6.79451e-05
6.89743e-05
6.99875e-05
7.10512e-05
7.19501e-05
7.32705e-05
7.43618e-05
7.5093e-05
7.55912e-05
7.61526e-05
7.67793e-05
7.72764e-05
7.71503e-05
7.68285e-05
7.71127e-05
7.68648e-05
7.69676e-05
7.69534e-05
7.74876e-05
7.84884e-05
8.0163e-05
8.09245e-05
8.22427e-05
8.4467e-05
8.57542e-05
8.89899e-05
9.06475e-05
9.44816e-05
9.7272e-05
0.000100731
0.00010435
0.00010771
0.000110716
0.000112736
0.00011452
0.000116568
0.000118815
0.000122627
0.000126934
0.000129966
0.000130495
0.000129809
0.000130719
0.000131903
0.000131874
0.000134583
0.000137786
0.000135416
0.000132966
0.000136893
0.000141615
0.000141011
0.000139416
0.000138805
0.000140834
0.00014275
0.000143711
0.000145864
0.000144856
0.000142172
0.000141616
0.000138148
0.000132535
0.00014185
0.000124722
0.000150726
0.000153796
0.000161937
0.000151189
0.000142039
0.000146285
0.00015498
0.000153812
0.000150491
0.000149565
0.000159878
0.000179481
0.000196202
0.00020094
0.000197985
0.000193399
0.000188684
0.000182864
0.000186833
0.000209198
0.000243811
0.000287024
0.000311031
0.000315545
0.000306782
0.000286984
0.000270388
0.000273246
0.000232322
0.000229391
0.000243749
0.000232948
0.000255946
0.000257363
0.000274572
0.000256794
0.000285851
0.000334759
0.000368132
0.000354959
0.00031191
0.000303928
0.000315767
0.000338554
0.000197519
0.00011251
6.5873e-05
5.20765e-05
4.82929e-05
4.42919e-05
3.97766e-05
3.39669e-05
2.82355e-05
2.60066e-05
2.5623e-05
2.59314e-05
2.65842e-05
2.7713e-05
2.93043e-05
3.17091e-05
3.48164e-05
3.84491e-05
4.15292e-05
4.36109e-05
4.48699e-05
4.55839e-05
4.61216e-05
4.64535e-05
4.68494e-05
4.69141e-05
4.65741e-05
4.64922e-05
4.6061e-05
4.55216e-05
4.53501e-05
4.52319e-05
4.46774e-05
4.44005e-05
4.40483e-05
4.28448e-05
4.2568e-05
4.32621e-05
4.55738e-05
4.99029e-05
5.76993e-05
6.79426e-05
7.54713e-05
7.91133e-05
8.08693e-05
7.59203e-05
7.51753e-05
8.2056e-05
0.000103973
0.000125847
0.000128259
0.000128394
0.000127119
0.000125937
0.000121354
0.000113084
0.000105126
9.70437e-05
8.69498e-05
7.86821e-05
7.23924e-05
6.60863e-05
6.28953e-05
6.05062e-05
5.95538e-05
5.94064e-05
5.96125e-05
6.01538e-05
6.11931e-05
6.22997e-05
6.33674e-05
6.44654e-05
6.57721e-05
6.6927e-05
6.80928e-05
6.8895e-05
6.97691e-05
7.12025e-05
7.2076e-05
7.2489e-05
7.27454e-05
7.30058e-05
7.3705e-05
7.38155e-05
7.34752e-05
7.2858e-05
7.22288e-05
7.10385e-05
7.01032e-05
6.91273e-05
6.85503e-05
6.85269e-05
6.89306e-05
6.9456e-05
7.01906e-05
7.08417e-05
7.20308e-05
7.28391e-05
7.44388e-05
7.68924e-05
7.95409e-05
8.25386e-05
8.56963e-05
8.96706e-05
9.32054e-05
9.66497e-05
0.000100294
0.000102386
0.00010432
0.000109096
0.000114222
0.000119816
0.000126361
0.000130718
0.000132454
0.000131114
0.000129863
0.000132047
0.000134272
0.000131732
0.000130285
0.000134361
0.00013626
0.000138713
0.000139004
0.000139257
0.000138723
0.000138681
0.000142105
0.000143033
0.000139072
0.000138036
0.000138233
0.000129453
0.000134061
0.000123458
0.000141542
0.000146819
0.000154397
0.000146109
0.000135927
0.000134771
0.000140727
0.000143126
0.000139978
0.000134932
0.000136419
0.000147591
0.000168326
0.000173781
0.000174062
0.000178414
0.000181284
0.000176802
0.000168932
0.000174455
0.000199418
0.000249255
0.000288841
0.000298401
0.000294072
0.000268976
0.000249881
0.000250825
0.000224371
0.000222962
0.00022512
0.000210394
0.000213937
0.000219643
0.000242371
0.000214427
0.000236001
0.000305197
0.000354412
0.000347721
0.000311486
0.00029959
0.000296315
0.000309634
0.000229226
0.000129616
7.38205e-05
5.64362e-05
4.7978e-05
4.18377e-05
3.38538e-05
2.74027e-05
2.54774e-05
2.52815e-05
2.5718e-05
2.66657e-05
2.82587e-05
3.06585e-05
3.40687e-05
3.89577e-05
4.31139e-05
4.48219e-05
4.55026e-05
4.59574e-05
4.6053e-05
4.61625e-05
4.58312e-05
4.49232e-05
4.48299e-05
4.42301e-05
4.36721e-05
4.34689e-05
4.26733e-05
4.257e-05
4.25824e-05
4.30004e-05
4.35218e-05
4.38246e-05
4.40042e-05
4.35403e-05
4.21497e-05
4.11249e-05
4.12484e-05
4.2685e-05
4.57531e-05
5.09735e-05
5.95356e-05
6.81731e-05
7.0965e-05
7.13976e-05
7.51597e-05
8.49332e-05
0.000110955
0.000125824
0.000125974
0.00011607
0.00010627
0.000100933
9.34736e-05
8.54045e-05
7.72096e-05
7.15565e-05
6.5112e-05
6.08498e-05
5.81695e-05
5.61024e-05
5.54758e-05
5.52528e-05
5.52572e-05
5.58055e-05
5.67485e-05
5.7904e-05
5.92177e-05
6.04715e-05
6.17726e-05
6.28028e-05
6.40145e-05
6.5161e-05
6.61824e-05
6.70691e-05
6.75722e-05
6.84727e-05
6.95018e-05
6.99879e-05
6.99983e-05
7.01611e-05
7.04797e-05
7.06391e-05
7.09877e-05
6.99294e-05
6.95914e-05
6.76176e-05
6.62822e-05
6.43415e-05
6.29435e-05
6.19295e-05
6.19973e-05
6.23031e-05
6.25357e-05
6.29996e-05
6.33322e-05
6.35723e-05
6.40173e-05
6.51461e-05
6.65412e-05
6.76191e-05
6.87656e-05
7.07625e-05
7.26408e-05
7.50441e-05
7.99737e-05
8.492e-05
8.72845e-05
8.95434e-05
9.76365e-05
0.000105071
0.000109826
0.000115684
0.000122664
0.000128878
0.000132293
0.000134464
0.000135142
0.000133325
0.000131715
0.000134277
0.000131812
0.000136078
0.000138073
0.000137493
0.000139563
0.000142343
0.000145743
0.000145287
0.000144355
0.000134004
0.000136551
0.000132287
0.000133293
0.000124964
0.000136591
0.000135945
0.000142325
0.00013978
0.000134989
0.000124266
0.000123429
0.0001242
0.000131606
0.000137757
0.000137963
0.000139853
0.000149489
0.000149966
0.000146726
0.00015445
0.000168152
0.000174044
0.000167515
0.000161545
0.000177905
0.000223279
0.000273309
0.000285385
0.000282572
0.00025852
0.000241347
0.000235264
0.00021538
0.000217283
0.000217921
0.000203047
0.00018798
0.000204144
0.000226892
0.000206114
0.000202124
0.000273601
0.000337635
0.000340317
0.000309969
0.000305099
0.000289511
0.00029329
0.000258049
0.000147485
8.2416e-05
5.75079e-05
4.58423e-05
3.45322e-05
2.72849e-05
2.5383e-05
2.53229e-05
2.59035e-05
2.72068e-05
2.95086e-05
3.27737e-05
3.76152e-05
4.2678e-05
4.48998e-05
4.57454e-05
4.6133e-05
4.60113e-05
4.52369e-05
4.40428e-05
4.26897e-05
4.13327e-05
4.04416e-05
3.98903e-05
3.91668e-05
3.88575e-05
3.85502e-05
3.80802e-05
3.78732e-05
3.78887e-05
3.83555e-05
3.89836e-05
4.07411e-05
4.23146e-05
4.29694e-05
4.25378e-05
4.11553e-05
4.0195e-05
4.01893e-05
4.10565e-05
4.36358e-05
4.96339e-05
5.62876e-05
6.12738e-05
6.7773e-05
7.40813e-05
8.76081e-05
0.000116782
0.000124593
0.000118539
9.96514e-05
8.91217e-05
8.24739e-05
7.38756e-05
6.81298e-05
6.17598e-05
5.87627e-05
5.53228e-05
5.34965e-05
5.25637e-05
5.22047e-05
5.21874e-05
5.24521e-05
5.34175e-05
5.44271e-05
5.5608e-05
5.68465e-05
5.81831e-05
5.94325e-05
6.05435e-05
6.13162e-05
6.19478e-05
6.2594e-05
6.30361e-05
6.35305e-05
6.37831e-05
6.40814e-05
6.436e-05
6.47807e-05
6.48366e-05
6.49213e-05
6.47439e-05
6.48683e-05
6.55042e-05
6.53671e-05
6.55581e-05
6.45246e-05
6.29474e-05
6.05268e-05
5.8764e-05
5.65979e-05
5.56445e-05
5.60562e-05
5.62231e-05
5.71081e-05
5.77546e-05
5.79681e-05
5.81423e-05
5.8589e-05
5.98062e-05
6.02668e-05
6.04278e-05
6.10181e-05
6.22497e-05
6.34031e-05
6.49785e-05
6.79696e-05
7.11212e-05
7.21364e-05
7.49904e-05
8.19969e-05
8.85083e-05
9.39532e-05
0.000103845
0.000114917
0.000122014
0.000130443
0.000134475
0.000136204
0.00013847
0.00014045
0.000134992
0.000137765
0.000140963
0.000139227
0.000140298
0.000138871
0.000142347
0.000136037
0.000138253
0.000125687
0.000129235
0.000120557
0.000128036
0.0001193
0.000126708
0.000126487
0.000136845
0.000131609
0.00012592
0.000117136
0.000119108
0.000118692
0.000124049
0.000127183
0.000125741
0.000125891
0.000129725
0.000132108
0.000129099
0.000133023
0.000151555
0.000161508
0.000159197
0.00015037
0.000162043
0.000200934
0.000254743
0.000269941
0.000271476
0.000250211
0.000233884
0.000229004
0.000204686
0.00020288
0.000207042
0.000196443
0.000174203
0.000194753
0.000214081
0.000228886
0.000200963
0.000244013
0.000315248
0.000333987
0.000304716
0.000306434
0.000285804
0.000285032
0.00028353
0.000163348
8.92475e-05
5.72123e-05
4.0029e-05
2.84276e-05
2.54986e-05
2.53699e-05
2.62317e-05
2.81373e-05
3.12733e-05
3.57806e-05
4.12729e-05
4.51637e-05
4.65217e-05
4.69597e-05
4.68351e-05
4.60886e-05
4.46103e-05
4.28976e-05
4.14913e-05
4.03328e-05
3.93912e-05
3.85424e-05
3.77493e-05
3.70752e-05
3.68445e-05
3.66204e-05
3.65107e-05
3.6543e-05
3.68682e-05
3.74865e-05
3.79285e-05
3.96008e-05
4.14468e-05
4.20825e-05
4.17445e-05
4.05558e-05
3.94521e-05
3.95791e-05
4.01871e-05
4.09706e-05
4.3039e-05
4.73933e-05
5.48235e-05
6.14076e-05
6.93774e-05
9.33287e-05
0.000119912
0.000122165
0.000107947
8.55241e-05
7.60633e-05
6.86593e-05
6.19298e-05
5.83622e-05
5.4612e-05
5.26266e-05
5.07261e-05
5.00495e-05
4.98803e-05
4.98982e-05
5.05547e-05
5.16998e-05
5.29129e-05
5.40206e-05
5.52144e-05
5.62628e-05
5.7176e-05
5.75969e-05
5.77724e-05
5.7706e-05
5.75976e-05
5.78383e-05
5.83067e-05
5.85528e-05
5.80148e-05
5.81788e-05
5.77335e-05
5.7863e-05
5.78717e-05
5.7157e-05
5.61306e-05
5.62949e-05
5.63915e-05
5.6811e-05
5.7548e-05
5.86967e-05
5.82594e-05
5.66153e-05
5.50454e-05
5.30274e-05
5.14667e-05
5.18606e-05
5.19638e-05
5.17989e-05
5.2746e-05
5.3115e-05
5.32762e-05
5.3582e-05
5.47492e-05
5.53068e-05
5.55103e-05
5.56241e-05
5.63287e-05
5.68628e-05
5.7973e-05
5.93775e-05
6.10679e-05
6.23365e-05
6.36237e-05
6.74934e-05
7.24766e-05
7.59273e-05
8.01896e-05
9.09731e-05
0.000100543
0.000114021
0.000122392
0.000127268
0.000133578
0.000137527
0.000135607
0.000135966
0.000141464
0.000136152
0.000137344
0.000134508
0.000134409
0.000126347
0.000129671
0.000119572
0.000121385
0.000109202
0.000114037
0.000110363
0.000110112
0.000107196
0.000116173
0.00011425
0.000113782
0.000106575
0.000109906
0.000110371
0.000117834
0.000121156
0.000120491
0.000116856
0.000116965
0.000121099
0.000123409
0.000124677
0.000145923
0.000156083
0.000154399
0.000142334
0.000149084
0.00018211
0.000240157
0.000260849
0.000263403
0.000244236
0.000225003
0.00022472
0.000195484
0.000184209
0.000193058
0.000190579
0.000174963
0.000187837
0.000210443
0.000246993
0.000219442
0.000219168
0.000289224
0.00032159
0.000299602
0.000306335
0.000284614
0.000281557
0.000305635
0.000177992
9.25644e-05
5.51053e-05
3.37882e-05
2.62148e-05
2.54947e-05
2.65497e-05
2.94173e-05
3.35752e-05
3.89206e-05
4.47096e-05
4.74562e-05
4.85876e-05
4.89101e-05
4.84479e-05
4.74219e-05
4.58833e-05
4.39715e-05
4.19284e-05
4.01671e-05
3.87989e-05
3.75257e-05
3.64832e-05
3.5956e-05
3.57576e-05
3.57535e-05
3.59729e-05
3.62564e-05
3.65347e-05
3.70043e-05
3.78537e-05
3.8708e-05
4.00859e-05
4.10785e-05
4.13362e-05
4.07715e-05
3.99507e-05
3.96606e-05
3.97858e-05
3.98186e-05
3.9934e-05
4.11451e-05
4.4619e-05
4.99417e-05
5.66484e-05
7.08504e-05
0.00010196
0.000120433
0.000117988
9.54298e-05
7.52823e-05
6.62905e-05
5.9467e-05
5.55188e-05
5.31972e-05
5.06522e-05
4.92606e-05
4.83685e-05
4.81526e-05
4.82187e-05
4.88109e-05
4.99979e-05
5.1158e-05
5.23041e-05
5.33695e-05
5.40486e-05
5.43186e-05
5.42977e-05
5.38277e-05
5.30594e-05
5.23352e-05
5.21971e-05
5.21541e-05
5.23735e-05
5.24867e-05
5.16783e-05
5.12676e-05
5.06379e-05
5.11299e-05
5.11716e-05
5.06034e-05
5.00872e-05
5.02505e-05
5.02532e-05
5.05541e-05
5.0928e-05
5.19891e-05
5.27321e-05
5.2548e-05
5.25824e-05
5.15264e-05
5.00981e-05
5.04156e-05
5.03487e-05
4.98496e-05
5.05858e-05
5.09937e-05
5.10728e-05
5.13331e-05
5.23778e-05
5.29027e-05
5.33055e-05
5.32786e-05
5.39792e-05
5.4365e-05
5.47411e-05
5.57669e-05
5.63771e-05
5.7106e-05
5.85445e-05
6.01979e-05
6.30269e-05
6.54012e-05
6.76976e-05
7.36633e-05
7.9107e-05
8.60451e-05
9.88031e-05
0.000105923
0.000117227
0.000120809
0.000124012
0.000123266
0.000128369
0.000123902
0.000123502
0.000122106
0.000124531
0.000112389
0.000110121
0.000105945
0.000108885
9.98717e-05
9.97943e-05
0.000100393
9.92952e-05
0.000100123
0.000105433
0.000104516
0.000108111
0.000101151
0.000104525
0.000105799
0.000112957
0.000114681
0.000116456
0.000113383
0.000116986
0.00012124
0.000125052
0.000119613
0.000135584
0.000147651
0.000146935
0.000131993
0.000135682
0.000163945
0.000223914
0.000251595
0.000255292
0.000242585
0.000218122
0.000218782
0.000191249
0.000172614
0.000182639
0.000180989
0.000173951
0.000189149
0.000215138
0.000229118
0.000222618
0.000207244
0.000261736
0.00030466
0.000295776
0.000300847
0.000292992
0.000284202
0.000323503
0.000188665
9.32834e-05
4.9314e-05
2.93185e-05
2.5894e-05
2.66443e-05
3.0183e-05
3.59981e-05
4.20212e-05
4.75585e-05
4.99335e-05
5.10468e-05
5.1677e-05
5.12658e-05
4.99228e-05
4.81011e-05
4.59327e-05
4.3832e-05
4.19384e-05
4.03788e-05
3.90462e-05
3.78341e-05
3.6964e-05
3.66128e-05
3.65975e-05
3.65995e-05
3.6541e-05
3.67109e-05
3.70268e-05
3.77301e-05
3.94001e-05
4.10315e-05
4.17066e-05
4.16639e-05
4.09206e-05
4.00783e-05
3.95432e-05
3.93031e-05
3.91855e-05
3.97519e-05
4.07844e-05
4.2103e-05
4.44666e-05
4.89693e-05
5.76757e-05
7.95927e-05
0.000114808
0.000120476
0.000110706
8.14509e-05
6.64494e-05
5.87507e-05
5.42626e-05
5.18904e-05
5.0063e-05
4.80295e-05
4.70642e-05
4.6689e-05
4.67608e-05
4.71721e-05
4.81956e-05
4.92844e-05
5.04496e-05
5.15121e-05
5.20348e-05
5.21438e-05
5.18948e-05
5.11528e-05
5.00999e-05
4.94371e-05
4.96087e-05
5.00061e-05
4.99504e-05
4.96673e-05
4.93434e-05
4.92258e-05
4.82416e-05
4.75546e-05
4.79705e-05
4.78458e-05
4.78572e-05
4.77627e-05
4.80166e-05
4.81475e-05
4.83701e-05
4.87469e-05
4.95551e-05
5.07213e-05
5.05654e-05
5.05508e-05
5.06646e-05
4.9699e-05
4.96639e-05
4.97958e-05
4.91672e-05
4.95304e-05
5.00726e-05
4.97988e-05
5.00607e-05
5.0964e-05
5.15042e-05
5.17817e-05
5.22214e-05
5.28557e-05
5.33674e-05
5.39481e-05
5.43084e-05
5.50134e-05
5.54618e-05
5.64106e-05
5.74232e-05
5.87228e-05
6.06259e-05
6.16921e-05
6.51486e-05
6.89958e-05
7.09963e-05
7.97304e-05
8.30272e-05
8.95114e-05
9.65627e-05
0.000103234
0.000101111
0.000104897
0.000103689
0.000102944
9.83289e-05
0.000102313
9.84608e-05
9.72364e-05
9.45696e-05
9.53626e-05
9.27942e-05
9.55471e-05
9.61375e-05
9.24417e-05
9.53031e-05
9.97467e-05
9.82754e-05
0.000103779
0.00010311
0.000108588
0.000110391
0.000112372
0.000115583
0.000115206
0.000110454
0.00011591
0.000121498
0.000126518
0.000119557
0.000125341
0.000136847
0.000140106
0.000126651
0.000125512
0.00014781
0.000206622
0.000239303
0.000243574
0.00023908
0.000210614
0.00021256
0.000189466
0.000167515
0.00017407
0.00017122
0.000165398
0.000193316
0.000213215
0.000211398
0.000218518
0.000201102
0.000241621
0.000283414
0.000293462
0.000292066
0.000292725
0.000291989
0.000337321
0.000196034
9.1765e-05
4.21952e-05
2.75489e-05
2.65211e-05
2.99645e-05
3.68217e-05
4.42256e-05
4.98275e-05
5.2435e-05
5.41466e-05
5.54303e-05
5.57396e-05
5.47018e-05
5.30788e-05
5.06405e-05
4.83873e-05
4.67025e-05
4.52855e-05
4.36344e-05
4.16042e-05
3.99274e-05
3.88867e-05
3.8495e-05
3.85075e-05
3.86411e-05
3.88833e-05
3.94387e-05
3.99433e-05
4.04916e-05
4.10498e-05
4.15473e-05
4.17735e-05
4.16262e-05
4.13875e-05
4.10799e-05
4.10396e-05
4.11332e-05
4.14393e-05
4.19742e-05
4.2716e-05
4.37789e-05
4.58359e-05
5.17994e-05
6.85299e-05
0.000103636
0.000118233
0.000116094
9.59418e-05
6.96445e-05
5.91348e-05
5.36979e-05
5.1079e-05
4.93029e-05
4.74756e-05
4.59513e-05
4.56103e-05
4.55282e-05
4.57619e-05
4.64902e-05
4.76344e-05
4.87911e-05
4.98706e-05
5.02805e-05
5.04179e-05
5.01854e-05
4.94767e-05
4.83907e-05
4.75753e-05
4.76748e-05
4.81895e-05
4.88519e-05
4.88549e-05
4.80057e-05
4.74681e-05
4.73791e-05
4.66857e-05
4.61184e-05
4.62629e-05
4.64422e-05
4.65489e-05
4.66528e-05
4.68093e-05
4.71805e-05
4.76534e-05
4.81712e-05
4.87957e-05
5.01155e-05
5.01124e-05
5.00572e-05
5.06363e-05
4.9927e-05
4.95529e-05
4.96282e-05
4.89926e-05
4.92666e-05
4.97646e-05
4.94394e-05
4.97844e-05
5.05523e-05
5.10724e-05
5.11816e-05
5.16699e-05
5.27153e-05
5.27313e-05
5.34182e-05
5.39395e-05
5.43039e-05
5.51261e-05