/*--------------------------------*- C++ -*----------------------------------*\
| =========                 |                                                 |
| \\      /  F ield         | OpenFOAM: The Open Source CFD Toolbox           |
|  \\    /   O peration     | Version:  dev                                   |
|   \\  /    A nd           | Web:      http://www.openfoam.org               |
|    \\/     M anipulation  |                                                 |
\*---------------------------------------------------------------------------*/
FoamFile
{
    version     2.0;
    format      ascii;
    class       volScalarField;
    object      p;
    location    "9.122";
}
// * * * * * * * * * * * * * * * * * * * * * * * * * * * * * * * * * * * * * //

dimensions      [1 -1 -2 0 0 0 0];

internalField   nonuniform List<scalar> 
12225
(
110937
110831
110681
110498
110282
110049
109802
109561
109320
109103
108897
108729
108566
108464
108334
108270
108211
107949
110913
110810
110661
110479
110262
110030
109783
109542
109302
109086
108879
108711
108550
108444
108315
108268
108201
108163
110865
110764
110616
110433
110217
109986
109740
109500
109261
109045
108840
108670
108513
108400
108288
108229
108199
108251
110780
110683
110537
110355
110141
109911
109667
109428
109192
108976
108774
108602
108447
108330
108211
108169
108154
108127
110653
110558
110415
110234
110023
109795
109555
109317
109086
108870
108672
108498
108350
108225
108136
108069
108047
108036
110472
110379
110237
110060
109852
109628
109392
109158
108931
108718
108524
108352
108209
108083
108002
107925
107930
107914
110222
110130
109992
109819
109616
109397
109168
108938
108718
108509
108321
108151
108014
107890
107813
107739
107751
107752
109936
109847
109714
109545
109349
109135
108913
108689
108476
108273
108091
107925
107791
107674
107596
107532
107524
107516
109623
109541
109415
109250
109061
108853
108639
108422
108215
108019
107843
107683
107552
107439
107359
107298
107277
107265
109217
109139
109019
108861
108680
108482
108277
108071
107872
107685
107516
107363
107236
107129
107047
106989
106954
106931
108679
108610
108499
108351
108181
107994
107801
107608
107421
107246
107086
106943
106821
106721
106640
106583
106538
106508
107984
107921
107819
107684
107528
107357
107180
107002
106832
106672
106525
106394
106281
106189
106112
106054
106007
105969
107086
107029
106939
106820
106681
106531
106374
106219
106068
105928
105799
105684
105584
105502
105433
105377
105331
105293
105937
105888
105812
105713
105597
105472
105342
105214
105091
104976
104871
104778
104696
104628
104570
104522
104482
104448
104485
104452
104395
104320
104232
104139
104043
103950
103861
103779
103704
103639
103583
103535
103495
103461
103432
103408
102720
102690
102652
102605
102552
102498
102445
102394
102348
102307
102271
102241
102217
102198
102183
102170
102160
102151
100602
100588
100574
100560
100549
100541
100537
100538
100542
100550
100562
100576
100592
100610
100628
100646
100662
100676
98354.9
98360.6
98373.3
98394.9
98426
98466.2
98514
98567.7
98625.7
98686.3
98748.3
98810.3
98871.2
98930.1
98986.1
99038.1
99085.3
99128.1
96389.9
96395.8
96425.4
96475.9
96543.1
96624.4
96716.8
96816.8
96921.4
97028.1
97134.9
97239.7
97340.9
97437.4
97528.2
97612.4
97689.3
97758.7
94805.1
94813.2
94858.1
94931.9
95028
95141.8
95268.8
95405.1
95546.6
95690
95832.4
95971.7
96105.6
96232.6
96351.8
96462.3
96563.6
96655.5
93539.6
93565.4
93626.7
93720
93838.7
93977.2
94130.7
94294.6
94464.5
94636.2
94806.4
94972.5
95132.1
95283.2
95424.8
95556
95676.6
95786.7
92579.6
92606.6
92679.5
92788
92924.1
93081.3
93254.5
93438.9
93630.1
93823.3
94014.8
94201.5
94380.7
94550.3
94709.2
94856.7
94992.3
95116
91854.1
91884.4
91966.1
92085.7
92234.4
92405.5
92593.4
92793.1
92999.7
93208.8
93416.1
93618.2
93812.2
93995.6
94167.7
94327.6
94474.5
94608.4
91315.8
91351.9
91439.5
91566.7
91724.4
91905.8
92104.7
92315.7
92533.6
92754.1
92972.7
93186
93390.9
93584.7
93766.3
93935.3
94090.7
94232.3
90924.7
90968.4
91059.9
91192.2
91356.2
91544.8
91751.6
91970.8
92197.1
92425.6
92652.3
92873.5
93086.1
93287.4
93476.1
93651.6
93813.3
93960.6
90657.9
90701.3
90794.4
90929.7
91098.1
91291.6
91503.9
91728.9
91961.1
92195.5
92427.8
92654.5
92872.4
93078.8
93272.5
93452.7
93618.7
93770.2
90480.2
90522.2
90615.9
90753.2
90924.5
91121.5
91337.5
91566.4
91802.6
92040.9
92277
92507.4
92728.7
92938.6
93135.7
93319
93487.9
93641.9
90372.7
90410.4
90503.2
90641.7
90814.8
91014.2
91232.7
91464.1
91702.9
91943.8
92182.2
92414.7
92638.2
92850.4
93049.7
93234.7
93405.2
93560.8
90313.4
90347.9
90439.9
90579
90753.4
90954.2
91174.3
91407.2
91647.4
91889.6
92129.3
92363
92587.8
92801.2
93001.5
93187.6
93358.9
93515.3
90293.3
90322.4
90413.7
90553.1
90727.9
90929.3
91150
91383.5
91624.3
91867
92107.4
92341.6
92566.8
92780.7
92981.5
93168
93339.7
93496.2
98710.5
98715
98727
98747.2
98775.9
98813.1
98857.3
98907.8
98964
99025.6
99092.4
99165.6
99243.5
99327.3
99417.2
99513.3
99615.6
99724.3
99839.4
99960.7
100088
100222
100361
100506
100656
100811
100971
101135
101303
101474
101648
101824
102004
102183
102363
102542
102720
102895
103066
103234
103402
103566
103725
103878
104026
104166
104300
104426
104544
104654
104755
104846
104930
105009
105082
105152
105215
105276
105335
105392
105448
105506
105568
105631
105698
105771
105851
105939
106037
106145
106264
106394
106537
106690
106855
107032
107219
107416
107623
107839
108063
108295
108535
108782
109035
109290
109548
109810
110075
110341
110608
110873
111135
111393
111645
111889
112124
112346
112556
112750
112925
113080
113213
113318
113393
113437
113448
113423
113359
113254
113105
112911
112671
112384
112049
111664
111232
110754
110236
109682
109099
108491
107866
107230
106584
105929
105269
104606
103944
103284
102635
101998
101377
100773
100184
99614.2
99060.3
98532.6
98023
97538.7
97075.1
96627
96190
95760.4
95335.5
94912.9
94496.4
94093.5
93709.1
93345.9
93004
92684.2
92389.4
92128.2
91906
91727.1
91592.6
91517.3
91514.9
91588.5
91745.6
91999.4
92353.4
92821.7
93408.9
94090.6
94866.4
95724.6
96668.5
97683.8
98714.3
99782.5
100859
101915
102935
103936
104915
105841
106673
107348
98865.7
98871.3
98882.3
98901.9
98930.9
98968.4
99012.5
99062.1
99116.6
99175.8
99240.1
99309.8
99385
99465.9
99552.8
99645.8
99745.1
99850.6
99962.6
100081
100205
100335
100471
100613
100760
100911
101067
101227
101391
101557
101727
101898
102072
102246
102421
102595
102767
102937
103106
103273
103433
103590
103743
103891
104032
104166
104293
104413
104525
104629
104721
104803
104879
104951
105021
105087
105148
105204
105253
105301
105352
105405
105459
105516
105577
105645
105720
105804
105897
106001
106116
106243
106381
106532
106694
106867
107051
107246
107450
107663
107884
108114
108350
108593
108842
109099
109357
109618
109882
110147
110413
110678
110939
111198
111450
111695
111931
112155
112367
112563
112741
112900
113036
113145
113224
113274
113292
113273
113217
113119
112979
112793
112561
112283
111957
111581
111158
110689
110179
109634
109059
108458
107841
107215
106578
105933
105282
104628
103973
103322
102681
102052
101437
100842
100258
99697.5
99143.6
98619.1
98113.7
97631.7
97174.5
96731.9
96298.5
95871.3
95448.6
95027.3
94610.4
94206.7
93823.2
93462.7
93123.8
92807.6
92514.6
92257.4
92039.9
91864.7
91729.4
91652.3
91646.9
91717.7
91873
92124.8
92477.3
92943.2
93533.7
94209.6
94980.5
95835.1
96777.4
97770.5
98809.2
99871
100934
101976
102983
103977
104951
105873
106702
107369
99174.6
99179.7
99191.9
99211.8
99240.3
99274.3
99313.8
99358.1
99407.1
99461
99519.9
99584.1
99653.9
99729.4
99810.9
99898.4
99992.2
100092
100199
100311
100430
100554
100684
100820
100960
101105
101253
101406
101561
101720
101881
102043
102207
102372
102537
102701
102864
103024
103182
103336
103487
103634
103775
103910
104042
104164
104278
104386
104486
104576
104654
104725
104790
104849
104902
104949
104999
105044
105085
105123
105160
105199
105242
105288
105340
105398
105464
105540
105626
105722
105831
105951
106083
106228
106384
106552
106730
106919
107118
107326
107542
107767
107999
108238
108483
108734
108991
109250
109512
109775
110040
110304
110566
110824
111077
111323
111559
111785
111998
112197
112378
112539
112681
112796
112884
112943
112971
112965
112923
112842
112719
112550
112335
112073
111764
111408
111003
110551
110061
109536
108982
108399
107798
107188
106571
105945
105311
104672
104034
103400
102773
102161
101559
100983
100407
99864.9
99319.9
98792.5
98296.4
97816
97367.5
96935.6
96511
96089.5
95673.4
95257.2
94842.6
94436.4
94048.8
93690.4
93355.1
93042.7
92752.2
92504.4
92303.5
92140.2
92009.9
91927.4
91922.1
91986.1
92139.4
92387.5
92739.5
93201.9
93785.1
94454.4
95217.7
96071.7
96997.6
97973.1
99001.9
100055
101091
102105
103093
104075
105039
105947
106763
107415
99624.2
99630.2
99642.4
99661.1
99684.5
99713.3
99746
99783.1
99824.9
99871.6
99923.5
99980.7
100043
100112
100186
100267
100354
100446
100545
100650
100761
100877
100998
101124
101254
101389
101527
101668
101812
101958
102106
102256
102406
102557
102707
102857
103004
103150
103292
103430
103565
103695
103819
103937
104049
104156
104256
104348
104432
104503
104564
104618
104664
104705
104739
104770
104797
104819
104840
104861
104882
104906
104933
104965
105004
105049
105103
105167
105241
105327
105426
105537
105660
105796
105944
106104
106274
106456
106648
106849
107059
107278
107505
107738
107979
108227
108479
108734
108994
109256
109519
109783
110047
110306
110561
110810
111049
111278
111495
111697
111882
112048
112193
112316
112414
112483
112523
112529
112500
112435
112331
112187
111998
111762
111478
111147
110770
110347
109882
109385
108861
108310
107739
107158
106565
105964
105356
104742
104128
103519
102911
102325
101739
101190
100634
100105
99588.4
99064.7
98576.6
98096.1
97652.6
97232.7
96819.5
96404.8
95994.5
95590.3
95189.7
94789.7
94396
94031.3
93697.3
93386
93094.8
92852.2
92673.6
92537.3
92422.6
92343.1
92331.5
92389.3
92542.5
92784.4
93131.2
93585.1
94148.6
94810.3
95561.9
96401.7
97309.7
98265.7
99277.6
100315
101318
102295
103257
104223
105173
106063
106854
107481
100196
100202
100213
100229
100249
100271
100297
100326
100360
100399
100442
100491
100546
100606
100672
100744
100822
100906
100995
101089
101189
101294
101404
101517
101635
101756
101880
102006
102134
102264
102395
102528
102661
102793
102925
103055
103184
103309
103431
103549
103663
103772
103876
103973
104065
104150
104226
104297
104358
104409
104449
104479
104500
104515
104525
104531
104533
104533
104532
104531
104532
104535
104544
104557
104578
104606
104644
104692
104751
104823
104908
105006
105117
105242
105379
105528
105688
105860
106043
106235
106437
106647
106866
107092
107326
107564
107812
108066
108323
108584
108848
109113
109379
109642
109902
110156
110402
110637
110862
111071
111263
111437
111592
111724
111833
111916
111970
111991
111978
111929
111845
111723
111559
111352
111101
110806
110466
110080
109654
109193
108703
108190
107654
107117
106556
105986
105414
104835
104254
103680
103096
102545
101977
101460
100927
100413
99927.8
99429
98954.8
98476.5
98035.5
97627.2
97227.3
96822.2
96415.8
96019.8
95631.4
95252.3
94868.7
94499.8
94171.1
93865.9
93566.7
93314.7
93149.5
93045.3
92955.7
92886.8
92870.2
92922.8
93073.6
93306.4
93642.8
94082.9
94626.3
95279
96003.2
96819.5
97703.5
98637.2
99620.5
100627
101596
102541
103472
104416
105349
106218
106973
107561
100872
100876
100885
100898
100912
100929
100947
100969
100995
101025
101060
101101
101147
101198
101255
101317
101383
101456
101533
101615
101702
101794
101890
101989
102091
102195
102301
102408
102517
102627
102738
102850
102962
103073
103183
103291
103396
103497
103595
103688
103777
103860
103938
104010
104076
104135
104186
104231
104265
104288
104300
104303
104297
104283
104265
104243
104219
104193
104166
104140
104116
104095
104080
104072
104071
104079
104097
104127
104168
104223
104292
104374
104471
104581
104704
104840
104988
105147
105318
105500
105691
105892
106102
106319
106545
106778
107019
107266
107519
107776
108038
108303
108570
108837
109101
109363
109618
109862
110096
110316
110521
110708
110875
111022
111146
111245
111315
111357
111368
111342
111279
111178
111037
110859
110643
110390
110093
109752
109372
108959
108517
108047
107557
107058
106541
106015
105486
104950
104410
103876
103327
102815
102273
101796
101287
100791
100337
99862.8
99412.3
98946.6
98516.2
98120.1
97733
97343.8
96945.6
96568.3
96183.2
95818.5
95446
95080.9
94760.6
94477.5
94192.5
93933.7
93761.7
93672.2
93605.4
93551.5
93533.7
93581.1
93728.3
93946.6
94270.8
94694.4
95220.5
95862.7
96541.8
97327.2
98190
99090.3
100026
100991
101929
102839
103739
104656
105563
106407
107114
107653
101636
101639
101645
101653
101662
101672
101685
101700
101719
101743
101770
101802
101838
101879
101923
101973
102027
102087
102152
102222
102296
102374
102455
102537
102619
102702
102785
102869
102954
103040
103127
103214
103301
103387
103471
103552
103631
103706
103776
103841
103900
103955
104004
104047
104083
104112
104133
104146
104149
104141
104122
104093
104056
104013
103965
103913
103859
103804
103748
103694
103643
103596
103556
103523
103498
103483
103479
103487
103509
103544
103593
103657
103735
103828
103934
104054
104186
104331
104488
104657
104835
105025
105225
105434
105652
105879
106114
106356
106603
106856
107114
107376
107644
107914
108177
108446
108709
108963
109208
109442
109661
109863
110048
110213
110356
110475
110568
110631
110666
110668
110632
110562
110455
110311
110127
109907
109651
109359
109034
108676
108290
107875
107438
106989
106523
106046
105566
105079
104588
104099
103603
103121
102633
102175
101707
101236
100816
100363
99943.2
99491.5
99091.3
98710.7
98334.1
97963.2
97581.6
97221.3
96841.2
96484.7
96124.4
95768.9
95454.3
95192
94936.6
94691
94510
94422
94372.2
94331.2
94315.5
94359.7
94498.3
94699.5
95013
95417
95925.9
96557.4
97179.7
97932.4
98767.7
99624.7
100503
101430
102329
103195
104054
104938
105811
106618
107267
107753
102475
102475
102478
102481
102486
102492
102499
102509
102521
102536
102555
102576
102601
102630
102663
102701
102744
102793
102846
102903
102963
103023
103083
103142
103200
103257
103315
103373
103431
103490
103551
103612
103671
103729
103785
103839
103887
103930
103967
104000
104029
104052
104068
104078
104080
104075
104062
104041
104011
103968
103916
103854
103784
103709
103630
103546
103461
103374
103289
103205
103125
103051
102983
102924
102873
102832
102804
102788
102786
102798
102826
102868
102925
102997
103083
103184
103296
103422
103562
103715
103879
104056
104245
104444
104654
104874
105105
105345
105589
105838
106095
106353
106619
106890
107156
107427
107697
107959
108213
108460
108694
108914
109119
109305
109471
109613
109731
109822
109883
109915
109914
109878
109807
109703
109559
109380
109165
108919
108644
108338
108009
107656
107281
106892
106487
106067
105646
105217
104780
104343
103901
103467
103026
102599
102174
101747
101338
100924
100527
100119
99741.8
99379.1
99021.3
98669.5
98305.9
97960.1
97591.4
97241.1
96894.4
96555.3
96247.7
96004.8
95783.8
95565.4
95380.4
95283.4
95244.4
95215.2
95206
95246
95373.7
95570
95863.9
96247.1
96727.9
97352.2
97904.3
98643.4
99433.4
100242
101071
101946
102798
103603
104407
105256
106092
106844
107431
107853
103370
103369
103368
103368
103369
103370
103372
103376
103381
103387
103397
103408
103423
103442
103466
103494
103527
103562
103600
103638
103675
103711
103744
103777
103809
103841
103873
103906
103939
103971
104004
104035
104063
104090
104114
104134
104148
104158
104161
104163
104159
104146
104127
104100
104067
104025
103977
103920
103852
103774
103686
103589
103486
103378
103266
103150
103032
102914
102798
102684
102575
102471
102374
102286
102208
102141
102087
102045
102019
102007
102011
102029
102063
102112
102174
102251
102341
102445
102563
102697
102844
103005
103180
103369
103568
103778
104002
104240
104484
104732
104988
105247
105511
105783
106053
106324
106599
106869
107130
107389
107638
107875
108099
108308
108498
108669
108815
108935
109029
109092
109127
109129
109096
109035
108937
108808
108642
108443
108221
107968
107694
107402
107091
106763
106426
106071
105715
105351
104978
104598
104215
103835
103446
103060
102677
102294
101917
101540
101172
100806
100455
100113
99772.6
99446.3
99101.5
98776.4
98423.2
98090.8
97759.7
97442.1
97143.1
96910.5
96719.3
96530.2
96348.3
96240.3
96207.6
96192.8
96196.5
96233.7
96350.1
96533.3
96824.9
97183.7
97615
98223.4
98737.4
99439.4
100181
100938
101725
102530
103332
104052
104794
105603
106396
107072
107602
107954
104302
104299
104296
104293
104290
104287
104283
104281
104279
104279
104281
104284
104291
104303
104317
104333
104349
104365
104380
104393
104404
104414
104423
104432
104440
104447
104454
104460
104465
104469
104471
104470
104468
104462
104452
104438
104419
104395
104366
104328
104283
104233
104176
104112
104040
103961
103874
103780
103675
103560
103436
103305
103168
103027
102881
102732
102582
102433
102285
102141
102002
101868
101742
101626
101520
101425
101344
101277
101224
101187
101166
101160
101169
101192
101228
101278
101344
101424
101519
101631
101760
101903
102062
102237
102425
102628
102845
103072
103313
103556
103812
104074
104334
104607
104882
105154
105432
105710
105980
106249
106512
106765
107007
107239
107454
107651
107828
107980
108108
108209
108282
108325
108335
108319
108267
108187
108076
107933
107768
107575
107361
107133
106884
106621
106351
106068
105775
105478
105172
104859
104535
104212
103881
103546
103212
102872
102536
102199
101870
101540
101222
100901
100592
100288
99969.4
99662.9
99327.5
99024.4
98719.2
98431
98144.4
97909.5
97734.5
97571.2
97399.1
97281
97251.7
97254.7
97276.5
97316.4
97423.4
97592.7
97868.1
98208.8
98612.9
99150
99664.5
100311
100997
101707
102449
103181
103912
104546
105225
105981
106709
107296
107770
108049
105246
105241
105236
105230
105224
105217
105210
105203
105197
105191
105187
105185
105185
105186
105186
105184
105179
105172
105162
105151
105139
105126
105112
105096
105079
105061
105041
105019
104995
104968
104938
104905
104869
104828
104782
104731
104675
104613
104547
104473
104392
104305
104210
104107
103997
103880
103755
103623
103480
103329
103170
103006
102836
102661
102482
102301
102120
101939
101761
101587
101417
101255
101101
100955
100821
100697
100589
100495
100416
100354
100307
100275
100258
100254
100264
100288
100329
100385
100458
100548
100656
100781
100923
101079
101253
101441
101654
101873
102107
102347
102594
102855
103116
103383
103661
103936
104218
104502
104782
105061
105338
105606
105868
106119
106357
106579
106783
106969
107131
107271
107385
107470
107528
107557
107557
107528
107471
107389
107280
107152
107003
106840
106657
106466
106263
106053
105827
105600
105359
105113
104857
104595
104324
104044
103764
103475
103185
102891
102604
102310
102031
101739
101462
101185
100900
100619
100320
100032
99762.1
99506.5
99239.1
98998.6
98826.8
98684.1
98529.7
98402.1
98371.6
98395.2
98430.6
98475.2
98573.9
98734.2
98992.9
99315.2
99685.9
100156
100656
101243
101875
102536
103216
103875
104521
105091
105700
106392
107020
107523
107921
108107
106175
106170
106163
106155
106147
106138
106128
106118
106108
106097
106088
106079
106069
106056
106038
106016
105990
105963
105934
105902
105868
105831
105791
105750
105707
105662
105614
105563
105508
105450
105387
105321
105250
105175
105094
105008
104915
104817
104713
104602
104483
104357
104224
104084
103936
103781
103620
103450
103272
103086
102895
102698
102495
102288
102077
101865
101653
101443
101235
101031
100833
100642
100459
100286
100123
99973.3
99836.9
99715.9
99611
99522.9
99450.4
99391
99346.1
99316.6
99301.7
99303
99321
99355.8
99408.5
99479.6
99568.3
99674.9
99799.9
99941.6
100097
100273
100468
100676
100897
101130
101369
101622
101881
102145
102421
102699
102982
103272
103559
103847
104138
104420
104699
104969
105224
105472
105704
105919
106115
106292
106444
106572
106679
106754
106809
106835
106833
106811
106764
106699
106616
106518
106407
106287
106152
106012
105861
105706
105533
105355
105167
104971
104764
104547
104321
104088
103849
103605
103364
103107
102866
102617
102378
102129
101882
101637
101370
101109
100869
100641
100407
100172
99999.9
99870.8
99733.3
99605.7
99566.3
99602
99648.2
99697.8
99791.9
99946.8
100186
100490
100821
101235
101700
102228
102807
103414
104009
104585
105149
105677
106216
106817
107328
107747
108041
108132
107064
107058
107050
107041
107030
107019
107008
106995
106982
106967
106951
106932
106909
106879
106846
106810
106771
106728
106681
106629
106573
106514
106451
106386
106317
106245
106168
106087
106002
105912
105818
105717
105612
105501
105385
105263
105133
104997
104855
104705
104549
104387
104216
104040
103857
103667
103470
103266
103054
102837
102614
102385
102151
101912
101672
101430
101190
100951
100715
100484
100258
100039
99828.6
99627.8
99438.5
99262.5
99100
98953.1
98822.1
98707.6
98608.6
98522.7
98451.1
98396.3
98359.3
98341.1
98340.9
98357.9
98392.5
98445.8
98516.7
98605.6
98712
98839.3
98983.7
99154.8
99326.2
99515.7
99718.6
99937.3
100166
100407
100660
100919
101191
101470
101752
102046
102340
102634
102936
103231
103519
103806
104079
104346
104605
104847
105074
105286
105476
105644
105798
105920
106025
106108
106164
106202
106220
106219
106204
106172
106131
106079
106019
105949
105871
105786
105688
105582
105462
105333
105192
105040
104877
104700
104512
104320
104125
103913
103717
103514
103317
103107
102905
102698
102465
102237
102018
101817
101629
101419
101249
101131
101007
100886
100833
100860
100920
100984
101077
101219
101432
101712
102005
102367
102790
103263
103784
104326
104826
105318
105805
106274
106740
107224
107623
107947
108146
108125
107886
107879
107870
107860
107848
107835
107821
107805
107788
107768
107743
107712
107675
107634
107589
107539
107484
107425
107360
107292
107220
107143
107062
106975
106883
106784
106678
106568
106453
106333
106207
106075
105935
105789
105637
105480
105315
105144
104966
104782
104590
104392
104189
103980
103763
103540
103310
103074
102831
102583
102330
102071
101808
101541
101273
101004
100737
100472
100209
99951.7
99699.9
99455
99218.5
98992.6
98778.6
98577.6
98390.1
98218.8
98063.8
97924.2
97798.7
97687
97592
97516.4
97461.4
97426.4
97410.3
97411.5
97430.5
97466.6
97520.6
97592.2
97682
97790.1
97921
98070
98230
98403.7
98592.2
98794.4
99009.9
99237.9
99480.3
99731.7
99995.6
100271
100551
100843
101142
101440
101746
102051
102347
102646
102937
103222
103502
103771
104023
104265
104493
104699
104893
105067
105220
105355
105470
105568
105649
105711
105766
105801
105830
105848
105863
105862
105860
105843
105819
105784
105735
105678
105602
105513
105413
105297
105169
105028
104880
104720
104569
104412
104258
104096
103942
103770
103581
103396
103200
103039
102900
102724
102564
102448
102339
102228
102159
102169
102232
102310
102400
102528
102714
102958
103218
103534
103911
104333
104793
105255
105665
106073
106481
106855
107238
107607
107898
108124
108234
108043
108614
108607
108598
108587
108575
108562
108546
108526
108503
108474
108438
108395
108345
108291
108231
108166
108096
108021
107942
107859
107771
107679
107581
107476
107364
107243
107114
106977
106833
106684
106529
106368
106199
106023
105841
105652
105456
105254
105045
104829
104606
104377
104143
103902
103654
103400
103140
102874
102603
102327
102047
101761
101471
101178
100884
100591
100299
100010
99723.4
99441.9
99166.4
98898.2
98638.7
98390.1
98154.2
97931.2
97721.7
97526.2
97348.9
97185.7
97035.6
96900
96784.3
96691.8
96621.3
96571.1
96539.6
96525.3
96529
96549.4
96587.4
96642.6
96717.4
96809.2
96927.4
97051.1
97192.8
97350.7
97525.4
97715
97917.6
98133.2
98362.8
98603.8
98858.3
99124.4
99400
99688.1
99987
100287
100590
100899
101202
101508
101814
102114
102409
102701
102979
103248
103509
103752
103983
104203
104405
104590
104760
104918
105057
105184
105302
105406
105504
105592
105677
105749
105820
105872
105924
105955
105981
105991
105984
105961
105923
105865
105794
105706
105617
105509
105404
105294
105188
105084
104970
104837
104698
104570
104406
104303
104216
104073
103934
103813
103712
103613
103529
103520
103569
103650
103736
103851
104012
104217
104444
104720
105051
105425
105819
106191
106515
106837
107155
107431
107730
107986
108165
108285
108275
107926
109224
109217
109209
109198
109186
109172
109155
109133
109105
109068
109023
108970
108908
108841
108768
108690
108607
108520
108427
108329
108226
108118
108004
107883
107754
107616
107468
107309
107141
106965
106783
106595
106401
106200
105991
105774
105551
105321
105084
104841
104591
104335
104072
103802
103527
103246
102959
102668
102371
102071
101765
101455
101142
100826
100511
100195
99881.6
99570.6
99263.5
98961.3
98664.9
98376.5
98097.7
97829.6
97574.2
97331.8
97103.5
96891.8
96690.4
96502.2
96330.6
96176.8
96044.7
95936.6
95850.5
95784.9
95737.6
95708.6
95697.2
95702.8
95725.9
95766.2
95822.6
95897.7
95998.1
96107.3
96232
96374.1
96533.5
96709.1
96898.7
97101.7
97319.4
97548.8
97792
98048.4
98315.9
98596.7
98887.9
99182.9
99483.2
99791.5
100099
100411
100726
101037
101345
101654
101955
102248
102538
102816
103083
103343
103590
103822
104045
104258
104454
104642
104819
104992
105154
105313
105463
105609
105745
105871
105992
106094
106192
106265
106326
106368
106392
106396
106380
106347
106308
106256
106204
106142
106085
106035
105968
105885
105804
105745
105654
105602
105559
105444
105327
105213
105105
105015
104921
104888
104919
104989
105071
105174
105308
105476
105667
105906
106193
106520
106839
107121
107362
107599
107827
108028
108231
108363
108420
108414
108240
107797
109695
109690
109683
109673
109662
109648
109629
109605
109574
109535
109486
109427
109353
109279
109197
109110
109017
108918
108814
108703
108586
108463
108334
108198
108053
107898
107733
107556
107369
107171
106965
106752
106534
106310
106078
105838
105591
105337
105077
104810
104536
104256
103969
103676
103378
103074
102765
102452
102134
101812
101486
101156
100823
100488
100153
99819.4
99487.8
99159.2
98834.5
98514.9
98201.4
97896.3
97601.3
97317
97044.9
96785.8
96540.9
96312.9
96101.4
95900.1
95706.4
95531.8
95383
95258.4
95156.1
95075.4
95013.8
94971.2
94946.8
94939.1
94948.6
94975.8
95018.6
95090.2
95165.4
95256.4
95364.4
95490.3
95633.5
95792.5
95966.9
96155.9
96360.6
96578.3
96809.5
97056
97311.7
97580.4
97858.8
98144.7
98439.8
98744.5
99053.3
99367.3
99687.2
100006
100325
100647
100967
101283
101597
101906
102205
102500
102788
103064
103335
103594
103845
104090
104326
104562
104787
105011
105224
105439
105638
105837
106020
106196
106356
106496
106622
106725
106808
106872
106911
106936
106946
106943
106945
106932
106930
106925
106911
106887
106882
106899
106902
106891
106879
106798
106698
106598
106489
106404
106311
106248
106267
106318
106393
106482
106581
106715
106870
107074
107318
107597
107831
108028
108194
108353
108494
108615
108696
108699
108634
108473
108105
107635
110008
110005
110001
109994
109985
109972
109953
109929
109898
109857
109807
109745
109673
109594
109507
109413
109312
109205
109091
108970
108842
108705
108561
108408
108247
108077
107897
107705
107501
107287
107063
106829
106590
106345
106095
105836
105570
105296
105017
104730
104437
104137
103832
103520
103203
102882
102555
102224
101890
101551
101209
100863
100514
100164
99814.8
99466.7
99121
98778.5
98440.1
98106.7
97779.6
97461.4
97153.4
96856.2
96571.2
96298.5
96040
95798.9
95572.4
95355.8
95151.5
94965.4
94801.3
94661.5
94545.2
94451.5
94377.9
94323.7
94287.8
94268.3
94266.3
94281.4
94319.2
94366.6
94427.4
94504.4
94597.7
94707.6
94834.3
94976
95133.4
95307.9
95498.1
95701.8
95917.7
96147.8
96389.5
96644.9
96910.6
97185.9
97474
97772.6
98078.8
98392.2
98711.9
99034.6
99362.6
99696.3
100032
100366
100703
101036
101362
101688
102009
102325
102637
102939
103241
103538
103831
104121
104407
104689
104965
105241
105503
105764
106011
106253
106470
106678
106860
107025
107163
107281
107373
107450
107512
107556
107609
107646
107699
107741
107778
107825
107899
107988
108053
108086
108095
108063
107997
107912
107820
107742
107656
107570
107571
107610
107673
107745
107809
107913
108030
108199
108401
108625
108774
108896
108998
109082
109127
109145
109090
108967
108763
108464
107959
107456
110118
110121
110120
110120
110116
110108
110093
110071
110041
110001
109951
109891
109820
109739
109650
109553
109448
109335
109214
109086
108949
108804
108650
108487
108316
108134
107942
107740
107525
107300
107066
106821
106568
106309
106044
105773
105494
105209
104917
104618
104312
104000
103682
103358
103030
102697
102359
102018
101673
101324
100971
100615
100257
99898.2
99539.7
99182.5
98827.9
98476.4
98128.9
97786.7
97451.3
97124.6
96808.1
96502.5
96209.1
95927.4
95659.2
95409
95172.7
94947.7
94736.2
94541.1
94366.7
94215.5
94089.2
93984.8
93900.6
93836.6
93791
93762.1
93750.5
93756
93779.2
93811.4
93859.9
93924
94003.8
94100
94212
94338.8
94481
94639.7
94813.3
95000.8
95201.4
95417.2
95645.5
95886.2
96139.3
96403.9
96683.2
96973.8
97273.4
97582.3
97898.7
98222.4
98555.8
98897.1
99241.1
99588.2
99938.4
100286
100633
100982
101327
101674
102018
102357
102701
103039
103376
103712
104048
104377
104709
105032
105350
105662
105966
106257
106529
106790
107023
107240
107426
107591
107730
107851
107958
108048
108143
108236
108337
108421
108510
108630
108774
108916
109017
109092
109124
109142
109131
109076
109010
108945
108867
108786
108754
108776
108832
108894
108939
109012
109098
109234
109399
109557
109631
109695
109741
109747
109696
109596
109412
109161
108812
108408
107819
107167
110115
110128
110130
110136
110139
110139
110130
110112
110084
110046
109997
109936
109866
109785
109695
109595
109487
109370
109244
109111
108970
108820
108660
108491
108313
108125
107927
107718
107495
107263
107020
106769
106509
106242
105967
105688
105401
105108
104808
104502
104188
103868
103543
103212
102876
102536
102192
101844
101493
101137
100779
100417
100054
99689.3
99325.5
98962.9
98602.7
98245.9
97892.7
97545
97204.8
96872.9
96550.7
96240.2
95941.5
95653.8
95379.9
95123.5
94881.8
94651.9
94435.6
94234.2
94051.9
93893.6
93759.1
93645.1
93552
93479.7
93426.1
93389.3
93369.8
93370
93377.5