/*--------------------------------*- C++ -*----------------------------------*\
| =========                 |                                                 |
| \\      /  F ield         | OpenFOAM: The Open Source CFD Toolbox           |
|  \\    /   O peration     | Version:  dev                                   |
|   \\  /    A nd           | Web:      http://www.openfoam.org               |
|    \\/     M anipulation  |                                                 |
\*---------------------------------------------------------------------------*/
FoamFile
{
    version     2.0;
    format      ascii;
    class       surfaceScalarField;
    object      phi;
    location    "9.122";
}
// * * * * * * * * * * * * * * * * * * * * * * * * * * * * * * * * * * * * * //

dimensions      [1 0 -1 0 0 0 0];

internalField   nonuniform List<scalar> 
24170
(
2.82091e-06
2.32142e-06
2.45947e-06
1.42317e-06
2.62626e-06
8.71634e-07
3.04606e-06
5.74242e-07
3.47721e-06
5.20018e-07
4.00668e-06
3.64416e-07
4.40631e-06
4.45834e-07
4.94786e-06
2.41332e-07
5.26572e-06
4.15194e-07
5.84927e-06
8.57258e-08
6.12818e-06
3.40193e-07
6.93328e-06
-2.48456e-07
6.99674e-06
4.38375e-07
8.47686e-06
-1.02836e-06
8.04721e-06
8.05111e-07
9.24288e-06
-8.36041e-07
1.28604e-05
-3.3116e-06
-4.7946e-06
1.78406e-05
4.67697e-06
3.08026e-06
4.77272e-06
2.56137e-06
4.99199e-06
1.85737e-06
5.24318e-06
1.47812e-06
5.65264e-06
1.21096e-06
6.00407e-06
1.05378e-06
6.50338e-06
9.29188e-07
6.96179e-06
6.99246e-07
7.51989e-06
7.1477e-07
8.156e-06
2.39732e-07
8.73156e-06
4.95452e-07
9.73248e-06
-5.83741e-07
1.02016e-05
5.66945e-07
1.18711e-05
-2.14711e-06
1.2082e-05
1.05126e-06
1.37608e-05
-2.06096e-06
1.51209e-05
-4.27408e-06
-1.20321e-05
2.26755e-05
5.5829e-06
3.85779e-06
6.23262e-06
3.2736e-06
6.84648e-06
2.57331e-06
7.30751e-06
2.28894e-06
7.76953e-06
1.9615e-06
8.23235e-06
1.73608e-06
8.66408e-06
1.58063e-06
9.31299e-06
1.06019e-06
9.67329e-06
1.29884e-06
1.07283e-05
5.64019e-08
1.0871e-05
1.15662e-06
1.22913e-05
-1.27382e-06
1.22237e-05
1.3001e-06
1.38499e-05
-3.18166e-06
1.41472e-05
1.28605e-06
1.57618e-05
-3.22123e-06
1.50202e-05
-3.11913e-06
-1.42747e-05
1.75897e-05
5.91081e-06
4.75965e-06
7.23515e-06
3.44125e-06
8.00255e-06
3.26423e-06
9.01141e-06
2.67009e-06
9.44854e-06
2.85208e-06
1.0495e-05
1.93917e-06
1.07532e-05
2.50511e-06
1.17802e-05
1.13663e-06
1.19122e-05
2.19562e-06
1.29091e-05
1.03319e-08
1.29714e-05
1.9726e-06
1.40468e-05
-1.55168e-06
1.41181e-05
1.95467e-06
1.53829e-05
-3.79131e-06
1.60027e-05
1.25613e-06
1.79428e-05
-4.68578e-06
1.59096e-05
-6.59491e-07
-1.84219e-05
2.04547e-05
6.18373e-06
5.99529e-06
7.95822e-06
3.29676e-06
8.63008e-06
4.18384e-06
1.00479e-05
2.7683e-06
1.04272e-05
3.9213e-06
1.16737e-05
2.056e-06
1.19603e-05
3.50772e-06
1.30162e-05
1.28451e-06
1.32793e-05
3.05322e-06
1.41815e-05
1.43927e-07
1.44716e-05
2.64007e-06
1.52832e-05
-1.49258e-06
1.57007e-05
2.32961e-06
1.62579e-05
-3.6377e-06
1.71818e-05
9.69012e-07
1.96783e-05
-6.63505e-06
1.87622e-05
7.37686e-07
-1.94347e-05
2.01747e-05
6.8534e-06
7.48157e-06
8.37644e-06
3.54827e-06
9.02066e-06
5.26802e-06
1.04431e-05
2.99475e-06
1.09921e-05
4.94513e-06
1.22484e-05
2.28112e-06
1.2738e-05
4.41873e-06
1.38456e-05
1.48357e-06
1.43429e-05
3.77137e-06
1.52935e-05
3.18054e-07
1.58622e-05
3.10934e-06
1.66614e-05
-1.34763e-06
1.75084e-05
2.34159e-06
1.79935e-05
-3.36031e-06
1.92958e-05
3.51574e-07
1.98186e-05
-6.5526e-06
2.19347e-05
-8.58762e-07
-1.70331e-05
1.99706e-05
7.64225e-06
8.73528e-06
9.11064e-06
3.99739e-06
9.98125e-06
6.26263e-06
1.13515e-05
3.40344e-06
1.21239e-05
5.87026e-06
1.33344e-05
2.66856e-06
1.40803e-05
5.18604e-06
1.51507e-05
1.82014e-06
1.59597e-05
4.27276e-06
1.6819e-05
6.71381e-07
1.78786e-05
3.16471e-06
1.84715e-05
-9.26234e-07
1.98598e-05
1.8784e-06
1.99773e-05
-2.65343e-06
2.14921e-05
-4.32016e-07
2.06646e-05
-5.08359e-06
2.26373e-05
-2.2766e-06
-1.0141e-05
1.62241e-05
6.15056e-06
9.61561e-06
7.19241e-06
4.41566e-06
8.01367e-06
6.86159e-06
8.95693e-06
3.81578e-06
9.71415e-06
6.40617e-06
1.04589e-05
3.14178e-06
1.1185e-05
5.61179e-06
1.18081e-05
2.26807e-06
1.26412e-05
4.43607e-06
1.31055e-05
1.12839e-06
1.40024e-05
3.113e-06
1.42478e-05
-4.02688e-07
1.52502e-05
1.57734e-06
1.50945e-05
-1.87425e-06
1.60737e-05
-8.56156e-07
1.5439e-05
-3.96822e-06
1.6585e-05
-3.00574e-06
-6.92193e-06
1.37412e-05
7.19172e-06
1.06234e-05
8.31496e-06
4.95275e-06
9.29746e-06
7.49157e-06
1.02333e-05
4.4209e-06
1.12722e-05
6.833e-06
1.20118e-05
3.7849e-06
1.30617e-05
5.86445e-06
1.36561e-05
2.88549e-06
1.46623e-05
4.55515e-06
1.51154e-05
1.71533e-06
1.60882e-05
3.09182e-06
1.6297e-05
2.5724e-07
1.72623e-05
1.39933e-06
1.71795e-05
-1.09283e-06
1.79758e-05
-1.02863e-06
1.74409e-05
-2.89047e-06
1.80545e-05
-3.14389e-06
-4.87373e-06
1.64257e-05
8.42498e-06
1.17686e-05
9.43723e-06
5.80952e-06
1.08183e-05
7.9232e-06
1.17579e-05
5.21304e-06
1.31547e-05
7.07868e-06
1.38997e-05
4.59034e-06
1.51814e-05
6.03795e-06
1.57765e-05
3.64481e-06
1.69365e-05
4.65253e-06
1.73797e-05
2.43194e-06
1.84615e-05
3.07036e-06
1.86681e-05
1.0182e-06
1.96371e-05
1.30451e-06
1.9633e-05
-3.12543e-07
2.02998e-05
-1.00195e-06
1.99793e-05
-1.96665e-06
2.01525e-05
-2.78896e-06
-3.15065e-06
1.88982e-05
9.51883e-06
1.29245e-05
1.07354e-05
6.67501e-06
1.24249e-05
8.24364e-06
1.3376e-05
6.18103e-06
1.4962e-05
7.30826e-06
1.58195e-05
5.44888e-06
1.72383e-05
6.22442e-06
1.80099e-05
4.3682e-06
1.92473e-05
4.80109e-06
1.98784e-05
3.07517e-06
2.0949e-05
3.16349e-06
2.13462e-05
1.68383e-06
2.21522e-05
1.4539e-06
2.23974e-05
2.92807e-07
2.26364e-05
-4.83982e-07
2.25719e-05
-1.23932e-06
2.24e-05
-2.03509e-06
-2.31749e-06
2.20724e-05
1.12767e-05
1.40299e-05
1.25267e-05
7.69989e-06
1.44444e-05
8.51855e-06
1.54462e-05
7.2698e-06
1.71595e-05
7.56857e-06
1.81558e-05
6.3165e-06
1.97796e-05
6.34001e-06
2.06461e-05
5.12265e-06
2.20265e-05
4.92143e-06
2.27291e-05
3.74808e-06
2.38705e-05
3.28033e-06
2.43519e-05
2.34781e-06
2.51146e-05
1.71473e-06
2.53347e-05
9.85415e-07
2.55222e-05
1.36643e-07
2.55915e-05
-6.02528e-07
2.53624e-05
-1.18699e-06
-1.59403e-06
2.5173e-05
1.32582e-05
1.50431e-05
1.4719e-05
8.66622e-06
1.6787e-05
8.79138e-06
1.80775e-05
8.20571e-06
1.97741e-05
7.97206e-06
2.10176e-05
7.05123e-06
2.25743e-05
6.6274e-06
2.3683e-05
5.7307e-06
2.50058e-05
5.1822e-06
2.59241e-05
4.27874e-06
2.69002e-05
3.62785e-06
2.76465e-05
2.79812e-06
2.82521e-05
2.17415e-06
2.87119e-05
1.47424e-06
2.88631e-05
8.20603e-07
2.88213e-05
1.68635e-07
2.87296e-05
-4.58845e-07
-8.37096e-07
2.85157e-05
1.52189e-05
1.63044e-05
1.68094e-05
9.58977e-06
1.89258e-05
9.10119e-06
2.06428e-05
8.7879e-06
2.25478e-05
8.23198e-06
2.41152e-05
7.51605e-06
2.57559e-05
6.88106e-06
2.71069e-05
6.13795e-06
2.84905e-05
5.41476e-06
2.95564e-05
4.68869e-06
3.05385e-05
3.98847e-06
3.13524e-05
3.18864e-06
3.19735e-05
2.62148e-06
3.23755e-05
2.01934e-06
3.26054e-05
1.41717e-06
3.26012e-05
8.89315e-07
3.24054e-05
3.53042e-07
-1.87358e-07
3.22756e-05
1.75223e-05
1.66394e-05
1.97756e-05
9.84202e-06
2.20213e-05
9.27054e-06
2.41712e-05
8.91928e-06
2.61657e-05
8.38007e-06
2.79664e-05
7.71994e-06
2.96009e-05
7.11176e-06
3.10679e-05
6.39441e-06
3.23639e-05
5.69559e-06
3.34958e-05
4.99177e-06
3.44564e-05
4.32381e-06
3.51621e-05
3.63433e-06
3.58492e-05
2.95132e-06
3.63069e-05
2.45368e-06
3.65591e-05
1.9323e-06
3.66624e-05
1.44266e-06
3.65686e-05
9.98796e-07
5.79803e-07
3.62564e-05
2.03672e-05
1.64825e-05
2.29228e-05
9.65706e-06
2.53745e-05
9.10062e-06
2.76741e-05
8.76689e-06
2.97907e-05
8.27379e-06
3.17593e-05
7.62624e-06
3.36125e-05
6.99766e-06
3.5295e-05
6.30995e-06
3.67883e-05
5.65761e-06
3.80714e-05
5.02493e-06
3.9147e-05
4.42175e-06
3.99723e-05
3.83942e-06
4.05551e-05
3.2693e-06
4.10719e-05
2.70918e-06
4.13359e-05
2.31635e-06
4.14208e-05
1.89561e-06
4.13669e-05
1.48705e-06
1.15425e-06
4.11326e-05
2.36681e-05
1.56533e-05
2.65052e-05
8.95405e-06
2.92401e-05
8.40622e-06
3.17498e-05
8.16345e-06
3.40575e-05
7.74044e-06
3.61897e-05
7.14225e-06
3.82241e-05
6.48217e-06
4.00623e-05
5.85502e-06
4.16776e-05
5.29318e-06
4.30472e-05
4.77203e-06
4.41643e-05
4.27862e-06
4.50419e-05
3.80103e-06
4.56984e-05
3.32854e-06
4.61354e-05
2.85933e-06
4.64362e-05
2.48179e-06
4.6568e-05
2.1237e-06
4.65383e-05
1.78003e-06
1.45221e-06
4.64158e-05
2.35481e-05
1.41362e-05
2.63591e-05
7.76872e-06
2.90215e-05
7.28548e-06
3.14956e-05
7.11597e-06
3.37678e-05
6.7858e-06
3.58171e-05
6.30679e-06
3.76528e-05
5.75131e-06
3.92831e-05
5.21858e-06
4.07228e-05
4.73968e-06
4.19688e-05
4.29847e-06
4.3027e-05
3.87754e-06
4.39057e-05
3.47116e-06
4.46109e-05
3.06813e-06
4.51211e-05
2.68597e-06
4.55022e-05
2.33176e-06
4.57333e-05
2.03412e-06
4.582e-05
1.75757e-06
1.50921e-06
4.57495e-05
2.10065e-05
1.2762e-05
2.31555e-05
6.74424e-06
2.53778e-05
6.12275e-06
2.75453e-05
5.92283e-06
2.95579e-05
5.66438e-06
3.13162e-05
5.36058e-06
3.28167e-05
4.98199e-06
3.41769e-05
4.5077e-06
3.53991e-05
4.08261e-06
3.6466e-05
3.70981e-06
3.73841e-05
3.35211e-06
3.81333e-05
3.02812e-06
3.87283e-05
2.6986e-06
3.91772e-05
2.38134e-06
3.94727e-05
2.0986e-06
3.96505e-05
1.85054e-06
3.97203e-05
1.61999e-06
1.39505e-06
3.97052e-05
1.8378e-05
1.11116e-05
2.03593e-05
5.58696e-06
2.23277e-05
4.93699e-06
2.41678e-05
4.80077e-06
2.58446e-05
4.63567e-06
2.73545e-05
4.43323e-06
2.87152e-05
4.13944e-06
2.98915e-05
3.78371e-06
3.0959e-05
3.39974e-06
3.18851e-05
3.09881e-06
3.26629e-05
2.81721e-06
3.33075e-05
2.55542e-06
3.38313e-05
2.28194e-06
3.42293e-05
2.02751e-06
3.45281e-05
1.78174e-06
3.47189e-05
1.58238e-06
3.48108e-05
1.39855e-06
1.21638e-06
3.48098e-05
1.64575e-05
9.24359e-06
1.81184e-05
4.57743e-06
1.96603e-05
4.01718e-06
2.11801e-05
3.85151e-06
2.26311e-05
3.69422e-06
2.39915e-05
3.52469e-06
2.52486e-05
3.27731e-06
2.63658e-05
3.00515e-06
2.73441e-05
2.70288e-06
2.82043e-05
2.45902e-06
2.89171e-05
2.26465e-06
2.9501e-05
2.07261e-06
2.99539e-05
1.8745e-06
3.03131e-05
1.66256e-06
3.05432e-05
1.4927e-06
3.0697e-05
1.31962e-06
3.07881e-05
1.1563e-06
1.01109e-06
3.07988e-05
1.45654e-05
7.73755e-06
1.60472e-05
3.63607e-06
1.75128e-05
3.07748e-06
1.89273e-05
2.91588e-06
2.0249e-05
2.79467e-06
2.14618e-05
2.68337e-06
2.25159e-05
2.54509e-06
2.3432e-05
2.36051e-06
2.42073e-05
2.14796e-06
2.49093e-05
1.92525e-06
2.55315e-05
1.75721e-06
2.60566e-05
1.61175e-06
2.64778e-05
1.4701e-06
2.6793e-05
1.31608e-06
2.70281e-05
1.18181e-06
2.71846e-05
1.04633e-06
2.72687e-05
9.17507e-07
7.92633e-07
2.72979e-05
1.30724e-05
6.17973e-06
1.44459e-05
2.73394e-06
1.57479e-05
2.23579e-06
1.69695e-05
2.11077e-06
1.80863e-05
2.04309e-06
1.90893e-05
1.99979e-06
1.99943e-05
1.91441e-06
2.07759e-05
1.80847e-06
2.14497e-05
1.65875e-06
2.20326e-05
1.48045e-06
2.25583e-05
1.32296e-06
2.30081e-05
1.20874e-06
2.33922e-05
1.08821e-06
2.36888e-05
9.79473e-07
2.39314e-05
8.60751e-07
2.40896e-05
7.73004e-07
2.42014e-05
6.57215e-07
5.47042e-07
2.42676e-05
1.17878e-05
4.88337e-06
1.29036e-05
2.04275e-06
1.40026e-05
1.5474e-06
1.50818e-05
1.4021e-06
1.61035e-05
1.34573e-06
1.70516e-05
1.3324e-06
1.79006e-05
1.3046e-06
1.86568e-05
1.2515e-06
1.93026e-05
1.17149e-06
1.9848e-05
1.0533e-06
2.03146e-05
9.32779e-07
2.07111e-05
8.47301e-07
2.10407e-05
7.54463e-07
2.12994e-05
6.79509e-07
2.14927e-05
5.91448e-07
2.1628e-05
5.29721e-07
2.1714e-05
4.33636e-07
3.56652e-07
2.17406e-05
1.03638e-05
3.6244e-06
1.14735e-05
1.32073e-06
1.24739e-05
9.16547e-07
1.34055e-05
8.02553e-07
1.42689e-05
7.72176e-07
1.50671e-05
7.84255e-07
1.57998e-05
7.84803e-07
1.64627e-05
7.65056e-07
1.70623e-05
7.11039e-07
1.75946e-05
6.2287e-07
1.8045e-05
5.47217e-07
1.84282e-05
4.93322e-07
1.87381e-05
4.38732e-07
1.89781e-05
4.00636e-07
1.91424e-05
3.572e-07
1.92644e-05
3.08704e-07
1.93043e-05
2.6931e-07
2.0942e-07
1.93041e-05
8.99327e-06
2.4954e-06
1.018e-05
4.83601e-07
1.12385e-05
1.88989e-07
1.21501e-05
1.8836e-07
1.29178e-05
2.64184e-07
1.35729e-05
3.53388e-07
1.41584e-05
3.89867e-07
1.46895e-05
3.91333e-07
1.51746e-05
3.50349e-07
1.56006e-05
2.88395e-07
1.5963e-05
2.43344e-07
1.6269e-05
2.1338e-07
1.65e-05
2.02362e-07
1.66647e-05
2.00958e-07
1.67798e-05
1.78905e-07
1.68384e-05
1.61236e-07
1.68707e-05
1.25457e-07
1.2974e-07
1.68184e-05
8.2323e-06
1.25253e-06
9.31564e-06
-2.87213e-07
1.01723e-05
-3.70163e-07
1.08887e-05
-2.60418e-07
1.14819e-05
-9.51331e-08
1.19756e-05
6.16121e-08
1.24117e-05
1.24945e-07
1.27898e-05
1.54502e-07
1.31166e-05
1.35484e-07
1.3398e-05
8.97479e-08
1.36275e-05
6.78716e-08
1.37749e-05
9.16893e-08
1.3854e-05
1.21269e-07
1.39009e-05
1.25724e-07
1.392e-05
1.06338e-07
1.39113e-05
9.36603e-08
1.38369e-05
1.03119e-07
1.01372e-07
1.37496e-05
7.39607e-06
3.0818e-07
8.27275e-06
-8.85674e-07
8.88193e-06
-7.14053e-07
9.32263e-06
-4.61492e-07
9.65035e-06
-2.1275e-07
9.91231e-06
-1.86999e-08
1.01415e-05
4.99418e-08
1.0329e-05
9.43546e-08
1.04838e-05
8.19596e-08
1.05468e-05
1.02335e-07
1.05834e-05
8.14025e-08
1.06066e-05
9.30523e-08
1.06076e-05
1.19821e-07
1.05917e-05
1.17442e-07
1.05256e-05
1.25713e-07
1.04461e-05
1.05481e-07
1.03662e-05
9.59226e-08
1.08254e-07
1.02546e-05
6.48515e-06
-6.08965e-07
6.80029e-06
-9.53256e-07
6.8566e-06
-5.34504e-07
6.85568e-06
-2.47251e-07
6.88355e-06
-5.32032e-08
6.97856e-06
4.81831e-08
7.06499e-06
1.00638e-07
7.1699e-06
1.0238e-07
7.25611e-06
8.51036e-08
7.33569e-06
8.86924e-08
7.37355e-06
8.58299e-08
7.40847e-06
7.712e-08
7.4435e-06
8.096e-08
7.45617e-06
7.95455e-08
7.44457e-06
9.12795e-08
7.4041e-06
8.11713e-08
7.34975e-06
6.74818e-08
7.41137e-08
7.28656e-06
4.51772e-06
3.85919e-06
3.59557e-06
3.58697e-06
3.7422e-06
3.9717e-06
4.22841e-06
4.46256e-06
4.65573e-06
4.82907e-06
4.97639e-06
5.09246e-06
5.19057e-06
5.26649e-06
5.33443e-06
5.37401e-06
5.38347e-06
5.38744e-06
-1.97095e-07
-7.13005e-07
-6.35498e-07
-5.26382e-07
-1.16325e-06
-4.52107e-07
-1.63929e-06
-5.12566e-07
-1.98604e-06
-6.48815e-07
-2.18316e-06
-7.91658e-07
-2.20969e-06
-9.532e-07
-2.0706e-06
-1.11432e-06
-1.83147e-06
-1.21552e-06
-1.53386e-06
-1.27762e-06
-1.23294e-06
-1.28912e-06
-9.65146e-07
-1.26648e-06
-7.20065e-07
-1.25321e-06
-5.30338e-07
-1.20903e-06
-3.68811e-07
-1.19109e-06
-2.32233e-07
-1.17695e-06
-1.22963e-07
-1.16046e-06
-2.0104e-08
-1.16526e-06
7.05349e-08
-1.16432e-06
1.53733e-07
-1.16827e-06
2.03016e-07
-1.14795e-06
2.17773e-07
-1.12619e-06
1.94901e-07
-1.10313e-06
1.18688e-07
-1.06436e-06
6.94277e-10
-1.03554e-06
-1.63944e-07
-1.00425e-06
-3.95106e-07
-9.51367e-07
-6.89966e-07
-9.0202e-07
-1.07539e-06
-8.26563e-07
-1.53612e-06
-7.64161e-07
-2.10388e-06
-6.72448e-07
-2.79786e-06
-5.59951e-07
-3.64565e-06
-4.21524e-07
-4.69662e-06
-2.37556e-07
-5.95827e-06
-3.46974e-08
-7.40694e-06
1.77408e-07
-8.94863e-06
3.22466e-07
-1.03265e-05
1.54261e-07
-1.14906e-05
-1.28634e-07
-1.25653e-05
-2.57607e-07
-1.34011e-05
-4.93689e-07
-1.41443e-05
-5.84612e-07
-1.50313e-05
-4.3726e-07
-1.60024e-05
-3.26765e-07
-1.68163e-05
-4.26399e-07
-1.73697e-05
-6.3061e-07
-1.76611e-05
-8.66966e-07
-1.76515e-05
-1.14423e-06
-1.75832e-05
-1.16976e-06
-1.74287e-05
-1.28196e-06
-1.65023e-05
-1.97239e-06
-1.58205e-05
-1.60079e-06
-1.58367e-05
-8.89374e-07
-1.60547e-05
-6.12755e-07
-1.64473e-05
-2.78671e-07
-1.69319e-05
-1.63261e-09
-1.73945e-05
5.71267e-08
-1.78436e-05
6.82531e-08
-1.82028e-05
2.37573e-07
-1.8808e-05
7.85248e-07
-2.02165e-05
1.48617e-06
-2.23148e-05
1.94116e-06
-2.43964e-05
1.9769e-06
-2.61956e-05
1.90368e-06
-2.7694e-05
1.77438e-06
-2.89502e-05
1.67805e-06
-2.99428e-05
1.55046e-06
-3.06715e-05
1.42022e-06
-3.11774e-05
1.32896e-06
-3.14494e-05
1.2225e-06
-3.15282e-05
1.15395e-06
-3.14284e-05
1.09656e-06
-3.11547e-05
1.0418e-06
-3.07219e-05
1.0025e-06
-3.01462e-05
9.76778e-07
-2.94489e-05
9.70849e-07
-2.86566e-05
9.92745e-07
-2.77788e-05
1.02483e-06
-2.68527e-05
1.09369e-06
-2.58979e-05
1.17913e-06
-2.48973e-05
1.25019e-06
-2.3887e-05
1.35882e-06
-2.28993e-05
1.49914e-06
-2.19015e-05
1.60638e-06
-2.08792e-05
1.70954e-06
-1.99082e-05
1.89649e-06
-1.89421e-05
2.03419e-06
-1.79839e-05
2.1825e-06
-1.70409e-05
2.3443e-06
-1.60912e-05
2.48754e-06
-1.51079e-05
2.61e-06
-1.41418e-05
2.78207e-06
-1.30954e-05
2.86057e-06
-1.20481e-05
3.03829e-06
-1.10236e-05
3.22543e-06
-9.92283e-06
3.31847e-06
-8.84042e-06
3.5133e-06
-7.73329e-06
3.65436e-06
-6.62415e-06
3.82017e-06
-5.5248e-06
3.98529e-06
-4.4818e-06
4.19093e-06
-3.4648e-06
4.34548e-06
-2.50559e-06
4.53001e-06
-1.55118e-06
4.63559e-06
-6.65657e-07
4.78893e-06
2.14792e-07
4.86496e-06
1.05287e-06
4.9547e-06
1.83658e-06
5.03005e-06
2.57464e-06
5.06348e-06
3.26223e-06
5.08648e-06
3.89679e-06
5.09716e-06
4.40109e-06
5.17188e-06
4.80073e-06
5.22507e-06
5.06558e-06
5.31655e-06
5.22691e-06
5.38447e-06
5.2998e-06
5.41851e-06
5.27705e-06
5.42678e-06
5.15744e-06
5.44932e-06
4.97274e-06
5.45056e-06
4.58164e-06
5.56558e-06
3.85152e-06
5.77933e-06
2.85056e-06
5.89148e-06
1.74484e-06
5.81945e-06
5.8141e-07
5.735e-06
-6.92395e-07
5.74739e-06
-1.99101e-06
5.66503e-06
-3.21726e-06
5.47817e-06
-4.2649e-06
5.20647e-06
-4.89114e-06
4.69625e-06
-5.37781e-06
4.46492e-06
-5.8425e-06
4.34392e-06
-5.72747e-06
3.66156e-06
-6.61115e-06
4.54037e-06
-6.161e-06
3.10382e-06
-7.00961e-06
4.27819e-06
-6.20934e-06
2.55145e-06
-6.46753e-06
3.5271e-06
-6.73645e-06
3.36945e-06
-7.29026e-06
3.69246e-06
-7.95335e-06
3.65302e-06
-7.14022e-06
2.13985e-06
-6.42607e-06
2.25515e-06
-6.28186e-06
2.85372e-06
-6.16498e-06
2.89226e-06
-6.09417e-06
2.97661e-06
-5.76162e-06
2.76015e-06
-5.55661e-06
2.92785e-06
-5.36229e-06
2.97393e-06
-5.1406e-06
2.98215e-06
-4.94127e-06
3.03841e-06
-4.92965e-06
3.25684e-06
-5.11694e-06
3.47983e-06
-5.30892e-06
3.49094e-06
-5.28351e-06
3.27703e-06
-5.41218e-06
3.43955e-06
-5.73632e-06
3.6555e-06
-5.94651e-06
3.56939e-06
-6.11129e-06
3.53964e-06
-6.63077e-06
3.91452e-06
-7.50309e-06
4.33739e-06
-8.73831e-06
4.84776e-06
-1.0487e-05
5.58367e-06
-1.16839e-05
5.37307e-06
-1.28408e-05
5.71913e-06
-1.26991e-05
4.8448e-06
-1.20567e-05
5.01703e-06
-1.15813e-05
5.85442e-06
-1.0372e-05
5.82136e-06
-8.19931e-06
5.52932e-06
-6.26782e-06
6.58298e-06
-4.66109e-06
7.53503e-06
-2.05463e-06
7.17826e-06
7.56842e-07
7.32893e-06
2.3219e-06
8.87407e-06
2.99291e-06
1.04366e-05
3.7606e-06
1.12448e-05
5.39658e-06
1.10751e-05
7.51104e-06
1.08552e-05
9.51421e-06
1.1021e-05
1.20692e-05
1.05828e-05
-6.81026e-08
-1.53446e-06
-1.78806e-07
-1.36581e-06
-4.96095e-07
-1.14048e-06
-9.21673e-07
-1.1171e-06
-1.28302e-06
-1.29994e-06
-1.49361e-06
-1.54582e-06
-1.51735e-06
-1.85132e-06
-1.40632e-06
-2.12628e-06
-1.19895e-06
-2.3193e-06
-9.34845e-07
-2.44201e-06
-6.74683e-07
-2.45907e-06
-4.3362e-07
-2.4285e-06
-2.17467e-07
-2.4023e-06
-3.54105e-08
-2.33765e-06
1.16046e-07
-2.30267e-06
2.51123e-07
-2.2863e-06
3.55767e-07
-2.25429e-06
4.47406e-07
-2.26145e-06
5.24053e-07
-2.26042e-06
6.02314e-07
-2.28112e-06
6.91923e-07
-2.28849e-06
7.32038e-07
-2.23173e-06
7.7423e-07
-2.22788e-06
7.65729e-07
-2.15664e-06
7.13047e-07
-2.09781e-06
6.46047e-07
-2.06973e-06
4.98383e-07
-1.95297e-06
3.47506e-07
-1.91295e-06
1.60515e-07
-1.81996e-06
-1.16852e-07
-1.67972e-06
-4.00795e-07
-1.59487e-06
-8.19645e-07
-1.36251e-06
-1.30308e-06
-1.1737e-06
-1.84295e-06
-9.46823e-07
-2.52696e-06
-6.17082e-07
-3.29854e-06
-3.44706e-07
-4.20506e-06
-6.7182e-08
-5.55174e-06
1.65228e-07
-7.32395e-06
2.95117e-07
-9.24198e-06
3.49001e-07
-1.12707e-05
8.93622e-08
-1.30405e-05
-2.75654e-07
-1.44115e-05
-2.96015e-07
-1.56461e-05
-2.92517e-07
-1.66235e-05
-6.78738e-07
-1.71268e-05
-1.28568e-06
-1.73435e-05
-1.83049e-06
-1.72626e-05
-2.44175e-06
-1.69799e-05
-2.53003e-06
-1.61941e-05
-3.07073e-06
-1.52249e-05
-3.81479e-06
-1.44907e-05
-3.09616e-06
-1.45721e-05
-1.68062e-06
-1.52883e-05
-7.95024e-07
-1.6263e-05
1.01601e-07
-1.75815e-05
1.03982e-06
-1.97859e-05
1.94078e-06
-2.27601e-05
2.57174e-06
-2.59521e-05
2.9918e-06
-2.8682e-05
3.19947e-06
-3.07931e-05
3.39262e-06
-3.24261e-05
3.49727e-06
-3.37554e-05
3.40017e-06
-3.48835e-05
3.27297e-06
-3.57808e-05
3.05287e-06
-3.64223e-05
2.83864e-06
-3.68858e-05
2.6527e-06
-3.70985e-05
2.3988e-06
-3.71308e-05
2.24466e-06
-3.69456e-05
2.03432e-06
-3.65998e-05
1.91592e-06
-3.61068e-05
1.81795e-06
-3.54582e-05
1.71145e-06
-3.46764e-05
1.64957e-06
-3.37873e-05
1.62105e-06
-3.28004e-05
1.61476e-06
-3.17506e-05
1.67737e-06
-3.06475e-05
1.76154e-06
-2.94938e-05
1.89246e-06
-2.83213e-05
2.06436e-06
-2.71379e-05
2.22603e-06
-2.59555e-05
2.43966e-06
-2.47932e-05
2.72204e-06
-2.36247e-05
2.92308e-06
-2.24978e-05
3.17136e-06
-2.13601e-05
3.49399e-06
-2.02637e-05
3.79349e-06
-1.91837e-05
4.0733e-06
-1.81085e-05
4.38162e-06
-1.7007e-05
4.64441e-06
-1.59294e-05
4.94078e-06
-1.47965e-05
5.22139e-06
-1.36626e-05
5.4125e-06
-1.2523e-05
5.76176e-06
-1.13407e-05
6.10758e-06
-1.0139e-05
6.3286e-06
-8.96135e-06
6.75664e-06
-7.74881e-06
7.03392e-06
-6.56921e-06
7.44547e-06
-5.40356e-06
7.8126e-06
-4.23131e-06
8.20134e-06
-3.13137e-06
8.61974e-06
-2.06453e-06
9.01151e-06
-1.01722e-06
9.28172e-06
3.90502e-09
9.586e-06
9.80409e-07
9.80869e-06
1.85492e-06
1.00873e-05
2.64005e-06
1.0302e-05
3.33396e-06
1.04452e-05
3.96275e-06
1.05194e-05
4.5255e-06
1.05467e-05
4.95061e-06
1.06879e-05
5.21913e-06
1.08445e-05
5.38078e-06
1.1029e-05
5.39046e-06
1.12573e-05
5.30704e-06
1.13915e-05
5.04376e-06
1.15747e-05
4.65076e-06
1.15957e-05
4.14961e-06
1.14564e-05
3.60942e-06
1.15695e-05
2.82171e-06
1.20757e-05
1.55448e-06
1.24618e-05
-5.24845e-08
1.23843e-05
-1.54954e-06
1.18658e-05
-2.83373e-06
1.14235e-05
-3.89316e-06
1.10134e-05
-4.71608e-06
1.05043e-05
-5.33367e-06
9.94008e-06
-5.53415e-06
8.94081e-06
-5.61002e-06
8.50168e-06
-5.66478e-06
8.29394e-06
-5.45293e-06
7.25782e-06
-5.46104e-06
8.23656e-06
-5.01444e-06
6.2641e-06
-5.32566e-06
8.1253e-06
-4.44927e-06
4.99483e-06
-4.77215e-06
7.44956e-06
-5.09536e-06
6.74204e-06
-5.89271e-06
7.70642e-06
-6.56352e-06
7.23929e-06
-5.95826e-06
4.2947e-06
-4.70228e-06
3.78346e-06
-4.25855e-06
5.29615e-06
-3.66014e-06
5.22745e-06
-2.88385e-06
5.19711e-06
-2.20936e-06
5.1964e-06
-1.63841e-06
5.5449e-06
-1.30452e-06
5.795e-06
-1.41488e-06
6.13755e-06
-1.49724e-06
6.06997e-06
-1.48857e-06
6.16089e-06
-1.22593e-06
6.12984e-06
-5.06927e-07
5.75491e-06
6.35793e-08
5.78106e-06
3.81537e-07
6.31278e-06
1.60696e-07
7.19808e-06
-5.72404e-07
7.74365e-06
-1.70935e-06
8.1659e-06
-3.35233e-06
9.09489e-06
-5.47404e-06
1.00955e-05
-7.71609e-06
1.09214e-05
-9.96169e-06
1.19653e-05
-1.14991e-05
1.13918e-05
-1.28181e-05
1.22197e-05
-1.19021e-05
8.8991e-06
-1.09089e-05
9.49915e-06
-1.04043e-05
1.19947e-05
-8.1529e-06
1.0754e-05
-5.01649e-06
1.04405e-05
-2.2582e-06
1.29482e-05
-3.68468e-07
1.59804e-05
2.81272e-06
1.50301e-05
6.10975e-06
1.5555e-05
6.93353e-06
1.97945e-05
6.71174e-06
2.36673e-05
6.99789e-06
2.53492e-05
9.22498e-06
2.43838e-05
1.19573e-05
2.40281e-05
1.35148e-05
2.49506e-05
2.67648e-05
1.38983e-05
-5.76126e-08
-2.34436e-06
-1.32902e-07
-2.1943e-06
-2.83583e-07
-1.94534e-06
-5.12501e-07
-1.86533e-06
-7.31441e-07
-2.02531e-06
-8.22376e-07
-2.3486e-06
-7.90452e-07
-2.75189e-06
-6.76315e-07
-3.10943e-06
-5.2363e-07
-3.35044e-06
-3.53482e-07
-3.50295e-06
-1.93832e-07
-3.52291e-06
-5.04428e-08
-3.48851e-06
4.19296e-08
-3.42573e-06
1.41723e-07
-3.38272e-06
2.18429e-07
-3.3412e-06
2.79538e-07
-3.32586e-06
3.24524e-07
-3.29671e-06
3.71393e-07
-3.32374e-06
4.39782e-07
-3.36019e-06
5.17111e-07
-3.40887e-06
5.84874e-07
-3.42122e-06
6.51581e-07
-3.37925e-06
6.8148e-07
-3.35322e-06
7.12204e-07
-3.29828e-06
7.06511e-07
-3.21571e-06
6.67162e-07
-3.16741e-06
5.7839e-07
-3.01722e-06
4.16417e-07
-2.91486e-06
2.18006e-07
-2.80147e-06
-2.31608e-08
-2.62746e-06
-3.62201e-07
-2.45221e-06
-7.35596e-07
-2.19814e-06
-1.1421e-06
-1.97984e-06
-1.62429e-06
-1.68331e-06
-2.09758e-06
-1.36426e-06
-2.58363e-06
-1.0845e-06
-3.24701e-06
-6.32608e-07
-4.02074e-06
-3.13243e-07
-4.93877e-06
-6.95032e-08
-6.21652e-06
3.19447e-07
-7.84825e-06
4.19121e-07
-9.78572e-06
3.6297e-07
-1.19317e-05
3.92883e-07
-1.39023e-05
2.59969e-07
-1.52937e-05
-3.50658e-07
-1.63361e-05
-1.13351e-06
-1.70673e-05
-2.11224e-06
-1.74546e-05
-3.07106e-06
-1.70078e-05
-3.83949e-06
-1.64675e-05
-4.49377e-06
-1.74882e-05
-3.67005e-06
-1.90036e-05
-2.49227e-06
-2.06879e-05
-9.04657e-07
-2.28134e-05
5.40182e-07
-2.51254e-05
1.74343e-06
-2.73531e-05
2.65866e-06
-2.93585e-05
3.40213e-06
-3.10545e-05
3.84007e-06
-3.24803e-05
4.15423e-06
-3.38278e-05
4.38894e-06
-3.48614e-05
4.43361e-06
-3.55399e-05
4.3331e-06
-3.60696e-05
4.17709e-06
-3.63763e-05
3.97015e-06
-3.65717e-05
3.73319e-06
-3.66195e-05
3.46174e-06
-3.65075e-05
3.2259e-06
-3.63415e-05
3.00614e-06
-3.60088e-05
2.78776e-06
-3.5575e-05
2.57362e-06
-3.50013e-05
2.39968e-06
-3.42868e-05
2.26006e-06
-3.34704e-05
2.13513e-06
-3.25741e-05
2.08605e-06
-3.15883e-05
2.0634e-06
-3.05315e-05
2.06063e-06
-2.94134e-05
2.15464e-06
-2.82618e-05
2.28874e-06
-2.7084e-05
2.48666e-06
-2.58803e-05
2.71841e-06
-2.47012e-05
2.99685e-06
-2.35046e-05
3.28044e-06
-2.23336e-05
3.68267e-06
-2.11987e-05
4.01306e-06
-2.01281e-05
4.38191e-06
-1.9008e-05
4.76818e-06
-1.79245e-05
5.2219e-06
-1.69015e-05
5.64431e-06
-1.58599e-05
6.03419e-06
-1.48266e-05
6.40141e-06
-1.37856e-05
6.79796e-06
-1.27214e-05
7.20759e-06
-1.16323e-05
7.46509e-06
-1.05687e-05
7.90398e-06
-9.39092e-06
8.29846e-06
-8.24624e-06
8.64567e-06
-7.1211e-06
9.2233e-06
-5.91626e-06
9.54314e-06
-4.78006e-06
1.01471e-05
-3.63565e-06
1.06743e-05
-2.5548e-06
1.12528e-05
-1.49984e-06
1.18503e-05
-5.05595e-07
1.24614e-05
4.61613e-07
1.2909e-05
1.38763e-06
1.33861e-05
2.17498e-06
1.38389e-05
2.8375e-06
1.43641e-05
3.4231e-06
1.47787e-05
4.01114e-06
1.51305e-05
4.62064e-06
1.54112e-05
5.1295e-06
1.56447e-05
5.34874e-06
1.60502e-05
5.32686e-06
1.63461e-05
5.30084e-06
1.64899e-05
5.36474e-06
1.66521e-05
5.40383e-06
1.67865e-05
5.31192e-06
1.71996e-05
4.75965e-06
1.76361e-05
3.80513e-06
1.75209e-05
2.86553e-06
1.72615e-05
2.11305e-06
1.76359e-05
1.35096e-06
1.82768e-05
3.71841e-07
1.84141e-05
-5.49019e-07
1.76455e-05
-1.44441e-06
1.69452e-05
-2.10843e-06
1.62225e-05
-2.55058e-06
1.54456e-05
-2.82087e-06
1.46219e-05
-2.77361e-06
1.32247e-05
-2.88319e-06
1.27869e-05
-2.99953e-06
1.24249e-05
-3.09229e-06
1.11989e-05
-2.9363e-06
1.17318e-05
-2.71735e-06
9.39062e-06
-2.79737e-06
1.1975e-05
-1.90641e-06
7.06367e-06
-1.84395e-06
1.11971e-05
-1.9968e-06
1.04562e-05
-3.188e-06
1.2475e-05
-4.37921e-06
1.16043e-05
-4.71636e-06
7.40924e-06
-3.55055e-06
5.32964e-06
-3.08925e-06
7.54791e-06
-2.69685e-06
7.56917e-06
-2.51923e-06
7.72268e-06
-1.32628e-06
6.90852e-06
1.99632e-07
7.22078e-06
5.86141e-07
8.79769e-06
9.21153e-08
9.95099e-06
-3.84728e-07
9.60158e-06
-5.77617e-07
9.23826e-06
-4.06012e-07
8.70811e-06
-3.64151e-07
8.35383e-06
3.93426e-07
7.60051e-06
1.66837e-06
7.72581e-06
2.3708e-06
9.40661e-06
2.13716e-06
1.12364e-05
5.03743e-07
1.32459e-05
-1.67837e-06
1.48769e-05
-4.27669e-06
1.64043e-05
-6.60585e-06
1.71031e-05
-8.64116e-06
1.80576e-05
-1.00536e-05
1.69874e-05
-1.12629e-05
1.88552e-05
-1.09955e-05
1.36577e-05
-1.00708e-05
1.33879e-05
-9.19142e-06
1.69554e-05
-7.23696e-06
1.47784e-05
-2.61891e-06
1.23864e-05
5.10933e-07
1.69245e-05
2.15192e-06
2.30839e-05
5.23593e-06
2.04942e-05
8.61347e-06
2.19443e-05
9.72414e-06
3.00042e-05
9.13216e-06
3.77411e-05
8.97626e-06
4.0033e-05
1.08828e-05
3.74772e-05
1.50405e-05
3.55773e-05
1.75198e-05
3.86502e-05
4.28316e-05
1.78888e-05
-1.32609e-07
-3.059e-06
-2.39558e-07
-2.94475e-06
-3.32102e-07
-2.72322e-06
-3.8291e-07
-2.6804e-06
-3.35934e-07
-2.91326e-06
-1.68974e-07
-3.34787e-06
1.049e-08
-3.77616e-06
1.6007e-07
-4.11947e-06
2.63177e-07
-4.32523e-06
2.9851e-07
-4.41881e-06
2.96541e-07
-4.41218e-06
2.7981e-07
-4.37633e-06
2.80008e-07
-4.34502e-06
2.92956e-07
-4.3312e-06
3.09394e-07
-4.31039e-06
3.22457e-07
-4.30882e-06
3.66606e-07
-4.32603e-06
4.52429e-07
-4.40785e-06
6.00556e-07
-4.51805e-06
7.59039e-07
-4.58767e-06
9.62935e-07
-4.65785e-06
1.16852e-06
-4.63177e-06
1.376e-06
-4.61782e-06
1.57414e-06
-4.56507e-06
1.70934e-06
-4.43832e-06
1.77112e-06
-4.32635e-06
1.76785e-06
-4.11257e-06
1.64318e-06
-3.9132e-06
1.42758e-06
-3.7112e-06
1.03665e-06
-3.37766e-06
5.50577e-07
-3.12218e-06
2.75574e-08
-2.83623e-06
-6.23609e-07
-2.50335e-06
-1.24163e-06
-2.24939e-06
-1.82754e-06
-1.96356e-06
-2.47357e-06
-1.62425e-06
-3.02074e-06
-1.26253e-06
-3.60294e-06
-8.9879e-07
-4.41369e-06
-4.34936e-07
-5.30103e-06
-2.03144e-10
-6.26391e-06
1.61311e-07
-7.67847e-06
5.56739e-07
-9.28289e-06
7.4038e-07
-1.07257e-05
4.02842e-07
-1.23154e-05
7.37176e-09
-1.39915e-05
-5.13695e-07
-1.54146e-05
-1.75316e-06
-1.649e-05
-2.88028e-06
-1.69958e-05
-4.03081e-06
-1.86313e-05
-3.8525e-06
-2.12836e-05
-2.16278e-06
-2.38312e-05
-8.43988e-07
-2.58826e-05
4.17347e-07
-2.78282e-05
1.77394e-06
-2.94321e-05
2.76282e-06
-3.09732e-05
3.71648e-06
-3.21777e-05
4.27294e-06
-3.31854e-05
4.62176e-06
-3.39398e-05
4.78805e-06
-3.44048e-05
4.88828e-06
-3.47689e-05
4.89035e-06
-3.50433e-05
4.77918e-06
-3.51829e-05
4.60922e-06
-3.52396e-05
4.37791e-06
-3.52417e-05
4.17324e-06
-3.51427e-05
3.91457e-06
-3.49951e-05
3.70034e-06
-3.47318e-05
3.46981e-06
-3.43469e-05
3.22952e-06
-3.38902e-05
3.03268e-06
-3.32899e-05
2.81757e-06
-3.25437e-05
2.617e-06
-3.1709e-05
2.50766e-06
-3.07549e-05
2.42737e-06
-2.9704e-05
2.41125e-06
-2.85825e-05
2.4179e-06
-2.73981e-05
2.54036e-06
-2.61427e-05
2.70684e-06
-2.49103e-05
3.01828e-06
-2.36743e-05
3.31852e-06
-2.24578e-05
3.71548e-06
-2.12181e-05
4.07747e-06
-1.99913e-05
4.56162e-06
-1.88685e-05
5.10511e-06
-1.77966e-05
5.61784e-06
-1.67092e-05
6.06035e-06
-1.56704e-05
6.67728e-06
-1.46382e-05
7.20864e-06
-1.36675e-05
7.77254e-06
-1.26928e-05
8.23374e-06
-1.16882e-05
8.69528e-06
-1.06509e-05
9.17774e-06
-9.59509e-06
9.55946e-06
-8.49976e-06
1.00367e-05
-7.39436e-06
1.05051e-05
-6.21677e-06
1.08859e-05
-5.05644e-06
1.15257e-05
-3.84013e-06
1.18968e-05
-2.69918e-06
1.2607e-05
-1.48161e-06
1.31351e-05
-3.65416e-07
1.38729e-05
7.11029e-07
1.455e-05
1.73656e-06
1.52736e-05
2.65025e-06
1.58885e-05
3.43619e-06
1.65608e-05
4.13559e-06
1.71515e-05
4.79294e-06
1.77934e-05
5.46806e-06
1.82462e-05
6.08765e-06
1.8697e-05
6.39909e-06
1.93881e-05
6.33846e-06
2.01051e-05
6.16102e-06
2.08803e-05
6.19805e-06
2.1347e-05
6.36469e-06
2.151e-05
6.46947e-06
2.16957e-05
6.27257e-06
2.18713e-05
5.93523e-06
2.22139e-05
5.54219e-06
2.28045e-05
4.84575e-06
2.31241e-05
3.60495e-06
2.28677e-05
2.24215e-06
2.26934e-05
1.40559e-06
2.28406e-05
7.69401e-07