/*--------------------------------*- C++ -*----------------------------------*\
| =========                 |                                                 |
| \\      /  F ield         | OpenFOAM: The Open Source CFD Toolbox           |
|  \\    /   O peration     | Version:  dev                                   |
|   \\  /    A nd           | Web:      http://www.openfoam.org               |
|    \\/     M anipulation  |                                                 |
\*---------------------------------------------------------------------------*/
FoamFile
{
    version     2.0;
    format      ascii;
    class       surfaceScalarField;
    object      phi_0;
    location    "9.122";
}
// * * * * * * * * * * * * * * * * * * * * * * * * * * * * * * * * * * * * * //

dimensions      [1 0 -1 0 0 0 0];

internalField   nonuniform List<scalar> 
24170
(
2.70953e-06
1.42429e-06
2.25396e-06
5.15295e-07
2.33975e-06
5.54155e-09
2.69217e-06
-2.45497e-07
3.08007e-06
-2.6102e-07
3.58372e-06
-3.72396e-07
3.98271e-06
-2.54968e-07
4.53707e-06
-4.15794e-07
4.89023e-06
-2.08954e-07
5.52196e-06
-5.03293e-07
5.88666e-06
-2.38252e-07
6.75867e-06
-7.70482e-07
6.98778e-06
-1.40722e-07
8.52145e-06
-1.46833e-06
8.23677e-06
3.08038e-07
9.8311e-06
-1.55476e-06
1.38193e-05
-4.00984e-06
-6.52516e-06
2.02379e-05
4.55967e-06
1.23101e-06
4.53238e-06
6.92214e-07
4.63277e-06
7.78105e-08
4.79098e-06
-2.16511e-07
5.12624e-06
-3.98708e-07
5.4251e-06
-4.63698e-07
5.89756e-06
-5.13997e-07
6.34481e-06
-6.5048e-07
6.92352e-06
-5.76225e-07
7.58379e-06
-9.63546e-07
8.23846e-06
-7.03354e-07
9.28064e-06
-1.64309e-06
9.90107e-06
-6.17226e-07
1.15924e-05
-3.0304e-06
1.18323e-05
1.44698e-07
1.4024e-05
-3.64491e-06
1.67629e-05
-6.69253e-06
-1.32723e-05
2.34945e-05
5.46067e-06
8.5627e-07
5.99339e-06
3.32316e-07
6.48191e-06
-2.16545e-07
6.83693e-06
-3.58833e-07
7.21373e-06
-5.55166e-07
7.60981e-06
-6.25489e-07
8.01181e-06
-6.77662e-07
8.63777e-06
-1.03537e-06
9.03261e-06
-7.36829e-07
1.00974e-05
-1.80023e-06
1.03276e-05
-7.25252e-07
1.17747e-05
-2.8991e-06
1.18483e-05
-5.25867e-07
1.35617e-05
-4.6076e-06
1.38801e-05
-6.45169e-08
1.5608e-05
-5.3088e-06
1.56072e-05
-6.63639e-06
-1.69487e-05
1.92443e-05
5.78973e-06
5.93761e-07
6.99284e-06
-6.73824e-07
7.64026e-06
-6.47515e-07
8.53146e-06
-1.0121e-06
8.88806e-06
-6.65926e-07
9.86235e-06
-1.34137e-06
1.00832e-05
-6.34439e-07
1.10854e-05
-1.77087e-06
1.12271e-05
-6.2026e-07
1.22443e-05
-2.5668e-06
1.23679e-05
-6.15457e-07
1.34995e-05
-3.8211e-06
1.36763e-05
-5.1831e-07
1.50813e-05
-5.85471e-06
1.59043e-05
-7.69561e-07
1.74922e-05
-6.85003e-06
1.64317e-05
-5.54155e-06
-2.17955e-05
2.12941e-05
6.05816e-06
4.997e-07
7.71186e-06
-2.10686e-06
8.25896e-06
-9.49829e-07
9.55936e-06
-2.04948e-06
9.84338e-06
-6.72991e-07
1.10234e-05
-2.2365e-06
1.12593e-05
-5.7614e-07
1.22968e-05
-2.51568e-06
1.25616e-05
-5.98902e-07
1.34866e-05
-3.21831e-06
1.38219e-05
-6.91532e-07
1.47068e-05
-4.47524e-06
1.51753e-05
-7.81511e-07
1.59441e-05
-6.45299e-06
1.7253e-05
-1.94317e-06
1.9482e-05
-9.00163e-06
1.83481e-05
-4.37e-06
-2.41811e-05
2.0726e-05
6.70714e-06
5.89802e-07
8.10435e-06
-3.25575e-06
8.60378e-06
-1.17108e-06
9.91195e-06
-3.0631e-06
1.03551e-05
-8.0709e-07
1.15422e-05
-3.10636e-06
1.19806e-05
-6.88375e-07
1.30688e-05
-3.28062e-06
1.35666e-05
-7.81975e-07
1.45482e-05
-3.89701e-06
1.51554e-05
-1.01513e-06
1.60465e-05
-5.11035e-06
1.69314e-05
-1.44202e-06
1.76009e-05
-6.9409e-06
1.90899e-05
-3.28446e-06
1.99252e-05
-9.73213e-06
2.11094e-05
-5.50428e-06
-2.21844e-05
1.91111e-05
7.47359e-06
3.05323e-07
8.80687e-06
-4.30039e-06
9.50693e-06
-1.55358e-06
1.07541e-05
-3.97419e-06
1.14109e-05
-1.11514e-06
1.25557e-05
-3.89422e-06
1.32441e-05
-1.01117e-06
1.43119e-05
-3.99019e-06
1.51104e-05
-1.23144e-06
1.60289e-05
-4.47981e-06
1.71068e-05
-1.7826e-06
1.7833e-05
-5.55503e-06
1.9249e-05
-2.60804e-06
1.95125e-05
-7.00088e-06
2.10361e-05
-4.65073e-06
2.05412e-05
-9.1254e-06
2.18309e-05
-6.73366e-06
-1.53564e-05
1.50134e-05
6.02219e-06
9.10158e-08
6.96325e-06
-5.00495e-06
7.66151e-06
-1.99308e-06
8.50934e-06
-4.55094e-06
9.17589e-06
-1.50099e-06
9.86797e-06
-4.30139e-06
1.05496e-05
-1.40252e-06
1.11713e-05
-4.32842e-06
1.1997e-05
-1.78209e-06
1.25073e-05
-4.72702e-06
1.34164e-05
-2.44829e-06
1.37511e-05
-5.6701e-06
1.47789e-05
-3.43915e-06
1.47243e-05
-6.78593e-06
1.57381e-05
-5.53652e-06
1.52812e-05
-8.58391e-06
1.62437e-05
-7.64266e-06
-1.20147e-05
1.29349e-05
7.06478e-06
-2.5697e-07
8.06288e-06
-5.71406e-06
8.90493e-06
-2.51814e-06
9.73473e-06
-5.05428e-06
1.06744e-05
-2.10302e-06
1.13547e-05
-4.64197e-06
1.23531e-05
-2.05645e-06
1.29387e-05
-4.58017e-06
1.39375e-05
-2.45544e-06
1.44299e-05
-4.91196e-06
1.54186e-05
-3.15045e-06
1.57088e-05
-5.70179e-06
1.67117e-05
-4.21168e-06
1.67039e-05
-6.59138e-06
1.75433e-05
-6.2206e-06
1.71233e-05
-8.05698e-06
1.77221e-05
-8.16665e-06
-9.98781e-06
1.57383e-05
8.28789e-06
-3.95002e-07
9.16197e-06
-6.22904e-06
1.03881e-05
-3.35399e-06
1.12093e-05
-5.47737e-06
1.25003e-05
-2.98571e-06
1.31759e-05
-4.90979e-06
1.44011e-05
-2.87291e-06
1.49769e-05
-4.76064e-06
1.61291e-05
-3.22338e-06
1.66025e-05
-5.02438e-06
1.77087e-05
-3.92056e-06
1.79761e-05
-5.66512e-06
1.89985e-05
-4.96516e-06
1.90527e-05
-6.42404e-06
1.97832e-05
-6.76703e-06
1.94963e-05
-7.63812e-06
1.96397e-05
-8.21614e-06
-8.5414e-06
1.82567e-05
9.38857e-06
-7.38394e-07
1.04328e-05
-6.81573e-06
1.19555e-05
-4.38891e-06
1.27698e-05
-5.80295e-06
1.42502e-05
-3.96701e-06
1.50275e-05
-5.19359e-06
1.63919e-05
-3.74705e-06
1.71356e-05
-5.03372e-06
1.83689e-05
-4.00115e-06
1.90139e-05
-5.24706e-06
2.01208e-05
-4.63435e-06
2.05573e-05
-5.746e-06
2.14306e-05
-5.52637e-06
2.17015e-05
-6.43361e-06
2.20157e-05
-6.86488e-06
2.19594e-05
-7.41713e-06
2.18218e-05
-7.95841e-06
-8.00191e-06
2.13594e-05
1.1136e-05
-1.20088e-06
1.21924e-05
-7.28343e-06
1.39336e-05
-5.51297e-06
1.47834e-05
-6.04316e-06
1.63877e-05
-4.95832e-06
1.73004e-05
-5.50478e-06
1.88716e-05
-4.72897e-06
1.97059e-05
-5.30227e-06
2.10803e-05
-4.83438e-06
2.17923e-05
-5.45849e-06
2.29674e-05
-5.34536e-06
2.34773e-05
-5.83697e-06
2.43e-05
-5.98579e-06
2.45456e-05
-6.3692e-06
2.47886e-05
-6.85265e-06
2.48654e-05
-7.29489e-06
2.46457e-05
-7.58889e-06
-7.71521e-06
2.44587e-05
1.31471e-05
-1.62797e-06
1.44027e-05
-7.76988e-06
1.62861e-05
-6.60756e-06
1.74064e-05
-6.39104e-06
1.89861e-05
-5.77568e-06
2.01322e-05
-5.90954e-06
2.16421e-05
-5.52292e-06
2.27088e-05
-5.68567e-06
2.4031e-05
-5.51202e-06
2.49451e-05
-5.77747e-06
2.59533e-05
-5.80577e-06
2.67174e-05
-6.11097e-06
2.73778e-05
-6.22164e-06
2.78554e-05
-6.48191e-06
2.8035e-05
-6.73025e-06
2.8001e-05
-7.01969e-06
2.79084e-05
-7.31019e-06
-7.35536e-06
2.76757e-05
1.51111e-05
-1.75771e-06
1.65139e-05
-8.14911e-06
1.84568e-05
-7.523e-06
2.00137e-05
-6.95289e-06
2.1804e-05
-6.60326e-06
2.3277e-05
-6.45655e-06
2.4865e-05
-6.22716e-06
2.61783e-05
-6.1644e-06
2.75533e-05
-6.10912e-06
2.86164e-05
-6.12531e-06
2.96161e-05
-6.1534e-06
3.04395e-05
-6.35603e-06
3.10857e-05
-6.36581e-06
3.15004e-05
-6.46463e-06
3.17381e-05
-6.60994e-06
3.17302e-05
-6.72267e-06
3.15174e-05
-6.87313e-06
-7.04126e-06
3.13633e-05
1.75311e-05
-2.24936e-06
1.9564e-05
-8.80434e-06
2.16469e-05
-8.24855e-06
2.36619e-05
-7.66717e-06
2.55613e-05
-7.26197e-06
2.72789e-05
-6.99708e-06
2.88607e-05
-6.70017e-06
3.02863e-05
-6.55658e-06
3.15659e-05
-6.43733e-06
3.26871e-05
-6.37797e-06
3.3652e-05
-6.33575e-06
3.43606e-05
-6.3754e-06
3.50546e-05
-6.4603e-06
3.55109e-05
-6.40676e-06
3.57497e-05
-6.42265e-06
3.58293e-05
-6.45489e-06
3.57019e-05
-6.47539e-06
-6.48981e-06
3.53484e-05
2.04067e-05
-2.90769e-06
2.2845e-05
-9.38493e-06
2.5192e-05
-8.78185e-06
2.74095e-05
-8.16279e-06
2.94727e-05
-7.70071e-06
3.14005e-05
-7.40174e-06
3.32216e-05
-7.10488e-06
3.48759e-05
-6.90667e-06
3.63455e-05
-6.7183e-06
3.7607e-05
-6.56496e-06
3.8663e-05
-6.43612e-06
3.94664e-05
-6.34112e-06
4.00217e-05
-6.28782e-06
4.05071e-05
-6.27443e-06
4.07324e-05
-6.13626e-06
4.07663e-05
-6.07146e-06
4.06508e-05
-6.03247e-06
-5.93946e-06
4.03448e-05
2.38439e-05
-3.35944e-06
2.66547e-05
-9.66572e-06
2.9387e-05
-9.05721e-06
3.18994e-05
-8.36373e-06
3.42211e-05
-7.86446e-06
3.63714e-05
-7.54857e-06
3.84183e-05
-7.30967e-06
4.02561e-05
-7.06657e-06
4.18569e-05
-6.80131e-06
4.31978e-05
-6.54747e-06
4.4276e-05
-6.31939e-06
4.51081e-05
-6.12997e-06
4.57078e-05
-5.98541e-06
4.60748e-05
-5.88257e-06
4.62965e-05
-5.7316e-06
4.63418e-05
-5.6057e-06
4.62146e-05
-5.50068e-06
-5.40222e-06
4.59849e-05
2.39102e-05
-3.45372e-06
2.67896e-05
-9.54788e-06
2.95693e-05
-8.96986e-06
3.21533e-05
-8.26816e-06
3.45204e-05
-7.74517e-06
3.66457e-05
-7.38161e-06
3.85352e-05
-7.10872e-06
4.01975e-05
-6.83801e-06
4.16445e-05
-6.54957e-06
4.28752e-05
-6.26828e-06
4.3896e-05
-6.01433e-06
4.47178e-05
-5.79519e-06
4.53486e-05
-5.61909e-06
4.57672e-05
-5.46199e-06
4.60407e-05
-5.31497e-06
4.61521e-05
-5.15241e-06
4.61079e-05
-5.00406e-06
-4.84782e-06
4.58988e-05
2.13426e-05
-3.19417e-06
2.37048e-05
-8.92159e-06
2.61565e-05
-8.56248e-06
2.85203e-05
-7.96237e-06
3.06904e-05
-7.44478e-06
3.25662e-05
-6.9859e-06
3.4149e-05
-6.62322e-06
3.55651e-05
-6.3866e-06
3.68129e-05
-6.12693e-06
3.78752e-05
-5.85001e-06
3.87594e-05
-5.59796e-06
3.94491e-05
-5.35454e-06
3.99627e-05
-5.15836e-06
4.03129e-05
-4.98737e-06
4.04966e-05
-4.8162e-06
4.05509e-05
-4.64543e-06
4.04872e-05
-4.4883e-06
-4.34444e-06
4.03332e-05
1.87405e-05
-3.14986e-06
2.10013e-05
-8.26655e-06
2.32416e-05
-8.01552e-06
2.5309e-05
-7.43019e-06
2.71736e-05
-6.90964e-06
2.88303e-05
-6.44047e-06
3.02982e-05
-6.08525e-06
3.15395e-05
-5.81666e-06
3.26386e-05
-5.60485e-06
3.35636e-05
-5.33789e-06
3.43117e-05
-5.08509e-06
3.49014e-05
-4.84847e-06
3.53498e-05
-4.65976e-06
3.56524e-05
-4.48202e-06
3.58401e-05
-4.32714e-06
3.5907e-05
-4.15507e-06
3.58657e-05
-3.9951e-06
-3.84886e-06
3.57248e-05
1.69159e-05
-2.99772e-06
1.88143e-05
-7.3697e-06
2.06213e-05
-7.15867e-06
2.2377e-05
-6.70441e-06
2.40274e-05
-6.27086e-06
2.55501e-05
-5.86408e-06
2.69303e-05
-5.55471e-06
2.81285e-05
-5.28853e-06
2.9146e-05
-5.07531e-06
3.00093e-05
-4.83031e-06
3.06943e-05
-4.56478e-06
3.12238e-05
-4.32772e-06
3.16007e-05
-4.12857e-06
3.18669e-05
-3.96908e-06
3.19884e-05
-3.79233e-06
3.20243e-05
-3.64618e-06
3.19892e-05
-3.51221e-06
-3.37372e-06
3.187e-05
1.50149e-05
-2.56548e-06
1.67591e-05
-6.45928e-06
1.84854e-05
-6.3754e-06
2.01284e-05
-6.01727e-06
2.16424e-05
-5.63807e-06
2.30121e-05
-5.26427e-06
2.41854e-05
-4.93326e-06
2.51846e-05
-4.66612e-06
2.60076e-05
-4.44444e-06
2.67246e-05
-4.2565e-06
2.73302e-05
-4.03509e-06
2.78099e-05
-3.81601e-06
2.81606e-05
-3.61971e-06
2.83865e-05
-3.45917e-06
2.85188e-05
-3.30039e-06
2.85618e-05
-3.166e-06
2.85252e-05
-3.04353e-06
-2.92854e-06
2.84309e-05
1.35088e-05
-2.38376e-06
1.51431e-05
-5.62624e-06
1.6694e-05
-5.59785e-06
1.81301e-05
-5.29359e-06
1.9428e-05
-4.94655e-06
2.05774e-05
-4.58809e-06
2.15953e-05
-4.28658e-06
2.24545e-05
-4.0194e-06
2.31745e-05
-3.81251e-06
2.37731e-05
-3.6528e-06
2.42866e-05
-3.48899e-06
2.47e-05
-3.30247e-06
2.50242e-05
-3.1411e-06
2.52426e-05
-2.98823e-06
2.53925e-05
-2.86324e-06
2.54469e-05
-2.72677e-06
2.54492e-05
-2.63574e-06
-2.54597e-06
2.54016e-05
1.2205e-05
-2.08063e-06
1.3559e-05
-4.72083e-06
1.48944e-05
-4.80039e-06
1.61813e-05
-4.60083e-06
1.73787e-05
-4.31923e-06
1.84676e-05
-4.00352e-06
1.94221e-05
-3.71552e-06
2.02508e-05
-3.46673e-06
2.09378e-05
-3.25864e-06
2.14951e-05
-3.10397e-06
2.19481e-05
-2.96589e-06
2.2308e-05
-2.80874e-06
2.25814e-05
-2.67332e-06
2.27675e-05
-2.53665e-06
2.28762e-05
-2.42818e-06
2.29166e-05
-2.3078e-06
2.29016e-05
-2.2375e-06
-2.15359e-06
2.28251e-05
1.0776e-05
-1.7778e-06
1.20853e-05
-3.97758e-06
1.32917e-05
-4.06849e-06
1.44098e-05
-3.91864e-06
1.54354e-05
-3.68475e-06
1.63684e-05
-3.41355e-06
1.72055e-05
-3.16352e-06
1.79421e-05
-2.94538e-06
1.85867e-05
-2.77375e-06
1.91353e-05
-2.64665e-06
1.95746e-05
-2.51647e-06
1.99237e-05
-2.37871e-06
2.01814e-05
-2.25417e-06
2.03536e-05
-2.12571e-06
2.04387e-05
-2.01527e-06
2.04741e-05
-1.92234e-06
2.04207e-05
-1.83086e-06
-1.76543e-06
2.03251e-05
9.359e-06
-1.57481e-06
1.07441e-05
-3.50843e-06
1.19953e-05
-3.56874e-06
1.30727e-05
-3.36894e-06
1.3982e-05
-3.0931e-06
1.47564e-05
-2.81022e-06
1.54375e-05
-2.58779e-06
1.60385e-05
-2.40813e-06
1.65671e-05
-2.2795e-06
1.7011e-05
-2.17862e-06
1.73672e-05
-2.0666e-06
1.76455e-05
-1.95081e-06
1.78312e-05
-1.82612e-06
1.79368e-05
-1.70251e-06
1.79829e-05
-1.60981e-06
1.79636e-05
-1.52081e-06
1.79116e-05
-1.4579e-06
-1.36076e-06
1.77734e-05
8.56717e-06
-1.58779e-06
9.82578e-06
-3.103e-06
1.08586e-05
-3.02626e-06
1.17291e-05
-2.77477e-06
1.24527e-05
-2.46526e-06
1.30544e-05
-2.1715e-06
1.35759e-05
-1.97812e-06
1.40154e-05
-1.82311e-06
1.43794e-05
-1.7223e-06
1.46755e-05
-1.65284e-06
1.48996e-05
-1.56298e-06
1.50232e-05
-1.43555e-06
1.50632e-05
-1.30994e-06
1.50577e-05
-1.21695e-06
1.50159e-05
-1.15726e-06
1.494e-05
-1.09626e-06
1.47928e-05
-1.01731e-06
-9.5399e-07
1.46298e-05
7.68759e-06
-1.48591e-06
8.73535e-06
-2.66321e-06
9.50482e-06
-2.38552e-06
1.00823e-05
-2.03964e-06
1.05249e-05
-1.69567e-06
1.08803e-05
-1.41391e-06
1.11821e-05
-1.26426e-06
1.14207e-05
-1.14144e-06
1.16054e-05
-1.07867e-06
1.1678e-05
-9.85332e-07
1.17092e-05
-9.37879e-07
1.17119e-05
-8.6124e-07
1.16789e-05
-7.7408e-07
1.16193e-05
-7.22241e-07
1.1501e-05
-6.65842e-07
1.13623e-05
-6.40519e-07
1.12182e-05
-6.06583e-07
-5.55395e-07
1.10413e-05
6.75022e-06
-1.41798e-06
7.20519e-06
-1.79095e-06
7.39067e-06
-1.31261e-06
7.50327e-06
-9.7984e-07
7.63199e-06
-7.40622e-07
7.81192e-06
-5.98205e-07
7.96339e-06
-5.07033e-07
8.11434e-06
-4.68883e-07
8.22858e-06
-4.51713e-07
8.31987e-06
-4.14647e-07
8.35457e-06
-3.86375e-07
8.37349e-06
-3.65403e-07
8.38173e-06
-3.3418e-07
8.35766e-06
-3.10988e-07
8.29971e-06
-2.76875e-07
8.20714e-06
-2.67155e-07
8.09731e-06
-2.61735e-07
-2.40108e-07
7.97838e-06
4.74084e-06
4.20226e-06
4.06367e-06
4.16847e-06
4.42621e-06
4.74323e-06
5.07056e-06
5.35726e-06
5.5851e-06
5.77705e-06
5.92798e-06
6.03486e-06
6.11256e-06
6.15789e-06
6.18654e-06
6.17904e-06
6.13648e-06
6.08209e-06
-1.11397e-07
-9.36961e-09
-4.09928e-07
1.68572e-07
-7.84174e-07
2.43689e-07
-1.10727e-06
1.8771e-07
-1.30539e-06
5.58886e-08
-1.38296e-06
-6.86552e-08
-1.3063e-06
-2.28421e-07
-1.07815e-06
-3.87194e-07
-7.55558e-07
-4.90035e-07
-3.77237e-07
-5.57072e-07
5.59722e-09
-5.73653e-07
3.60995e-07
-5.60411e-07
6.94529e-07
-5.53855e-07
9.73182e-07
-5.16302e-07
1.2239e-06
-5.06678e-07
1.4498e-06
-5.01161e-07
1.6478e-06
-4.93908e-07
1.8381e-06
-5.07976e-07
2.01351e-06
-5.16372e-07
2.17794e-06
-5.29476e-07
2.30483e-06
-5.18355e-07
2.39296e-06
-5.07739e-07
2.43874e-06
-4.95505e-07
2.42599e-06
-4.68973e-07
2.36561e-06
-4.53378e-07
2.254e-06
-4.35715e-07
2.07016e-06
-3.98239e-07
1.81696e-06
-3.64671e-07
1.4678e-06
-3.05944e-07
1.0383e-06
-2.63284e-07
4.96561e-07
-1.90301e-07
-1.74023e-07
-1.00736e-07
-1.00017e-06
1.42011e-08
-2.02498e-06
1.68931e-07
-3.26459e-06
3.39386e-07
-4.70453e-06
5.22553e-07
-6.26437e-06
6.46461e-07
-7.67622e-06
4.67558e-07
-8.87457e-06
1.72685e-07
-9.95161e-06
-1.76811e-08
-1.08346e-05
-2.45339e-07
-1.16167e-05
-3.80076e-07
-1.25381e-05
-2.75212e-07
-1.35663e-05
-1.86081e-07
-1.44679e-05
-3.02799e-07
-1.51295e-05
-5.2956e-07
-1.55381e-05
-7.94528e-07
-1.56423e-05
-1.11506e-06
-1.56779e-05
-1.18778e-06
-1.56754e-05
-1.289e-06
-1.4891e-05
-2.04741e-06
-1.42418e-05
-1.82733e-06
-1.42564e-05
-1.17992e-06
-1.44879e-05
-9.40278e-07
-1.48996e-05
-6.59846e-07
-1.54242e-05
-4.03763e-07
-1.59209e-05
-3.74275e-07
-1.64006e-05
-4.12786e-07
-1.67683e-05
-3.41735e-07
-1.73185e-05
1.13107e-07
-1.86171e-05
7.80695e-07
-2.06383e-05
1.24695e-06
-2.27068e-05
1.26822e-06
-2.45177e-05
1.15333e-06
-2.60236e-05
9.74947e-07
-2.72812e-05
8.3034e-07
-2.82665e-05
6.5132e-07
-2.89786e-05
4.67604e-07
-2.94615e-05
3.26493e-07
-2.97014e-05
1.6806e-07
-2.97395e-05
4.77529e-08
-2.95928e-05
-5.904e-08
-2.92671e-05
-1.63084e-07
-2.87757e-05
-2.53705e-07
-2.81386e-05
-3.26855e-07
-2.73757e-05
-3.82344e-07
-2.65154e-05
-4.08947e-07
-2.55679e-05
-4.24769e-07
-2.45712e-05
-4.02802e-07
-2.35478e-05
-3.60635e-07
-2.24802e-05
-3.34228e-07
-2.14016e-05
-2.72442e-07
-2.03504e-05
-1.72151e-07
-1.92956e-05
-1.01734e-07
-1.82446e-05
-1.53829e-08
-1.72344e-05
1.12887e-07
-1.62341e-05
2.09322e-07
-1.5251e-05
3.19545e-07
-1.42938e-05
4.45508e-07
-1.33447e-05
5.5881e-07
-1.2376e-05
6.51724e-07
-1.1442e-05
8.00636e-07
-1.04354e-05
8.47832e-07
-9.44947e-06
1.00352e-06
-8.50721e-06
1.17735e-06
-7.5015e-06
1.24866e-06
-6.53769e-06
1.43347e-06
-5.56292e-06
1.5618e-06
-4.60913e-06
1.72281e-06
-3.68886e-06
1.89103e-06
-2.84929e-06
2.10497e-06
-2.05563e-06
2.27133e-06
-1.34908e-06
2.46664e-06
-6.74484e-07
2.60495e-06
-7.07165e-08
2.77962e-06
5.08421e-07
2.89747e-06
1.0255e-06
3.03776e-06
1.47221e-06
3.17126e-06
1.86452e-06
3.27041e-06
2.19421e-06
3.37176e-06
2.46642e-06
3.46361e-06
2.60957e-06
3.62594e-06
2.64728e-06
3.76996e-06
2.55008e-06
3.96178e-06
2.34863e-06
4.13847e-06
2.07237e-06
4.28297e-06
1.7254e-06
4.40673e-06
1.3133e-06
4.53726e-06
8.7662e-07
4.64356e-06
2.74899e-07
4.88374e-06
-6.17552e-07
5.22739e-06
-1.73042e-06
5.4579e-06
-2.91427e-06
5.51121e-06
-4.13918e-06
5.55969e-06
-5.46525e-06
5.70647e-06
-6.80206e-06
5.75662e-06
-8.05475e-06
5.69876e-06
-9.11916e-06
5.55209e-06
-9.71543e-06
5.136e-06
-1.01322e-05
5.01262e-06
-1.05165e-05
5.02709e-06
-1.02402e-05
4.41086e-06
-1.10256e-05
5.48332e-06
-1.03883e-05
4.09671e-06
-1.11214e-05
5.46072e-06
-1.01335e-05
3.79096e-06
-1.01642e-05
4.85166e-06
-1.02461e-05
4.77636e-06
-1.06106e-05
5.2355e-06
-1.11795e-05
5.32485e-06
-1.02308e-05
3.8261e-06
-9.33052e-06
3.97829e-06
-9.06707e-06
4.72568e-06
-8.87458e-06
4.85989e-06
-8.75167e-06
5.02592e-06
-8.32493e-06
4.83938e-06
-7.99338e-06
5.04644e-06
-7.65162e-06
5.13942e-06
-7.28382e-06
5.22035e-06
-6.94763e-06
5.3663e-06
-6.81263e-06
5.67736e-06
-6.86788e-06
5.99064e-06
-6.85857e-06
6.06307e-06
-6.58023e-06
5.93964e-06
-6.43995e-06
6.23711e-06
-6.49904e-06
6.5758e-06
-6.39577e-06
6.53973e-06
-6.13807e-06
6.50091e-06
-6.22291e-06
6.92668e-06
-6.61247e-06
7.3791e-06
-7.31299e-06
7.92841e-06
-8.53205e-06
8.70564e-06
-9.14448e-06
8.47583e-06
-9.78276e-06
8.88799e-06
-9.15257e-06
7.93971e-06
-8.00958e-06
7.99195e-06
-7.14526e-06
8.8428e-06
-5.49441e-06
8.67086e-06
-2.94891e-06
8.29624e-06
-6.00168e-07
9.05351e-06
1.00977e-06
1.01715e-05
3.63938e-06
9.53671e-06
6.39957e-06
9.41101e-06
7.76401e-06
1.09163e-05
8.22899e-06
1.24047e-05
8.81339e-06
1.30127e-05
1.02059e-05
1.2533e-05
1.18754e-05
1.20947e-05
1.3118e-05
1.22009e-05
1.32259e-05
1.31396e-05
3.49615e-08
-1.7511e-07
2.54114e-08
3.33708e-08
-1.30877e-07
2.4598e-07
-3.84291e-07
2.81837e-07
-5.94913e-07
1.05226e-07
-6.92572e-07
-1.29417e-07
-6.28842e-07
-4.48076e-07
-4.43131e-07
-7.32098e-07
-1.62146e-07
-9.36215e-07
1.79264e-07
-1.07256e-06
5.22023e-07
-1.10182e-06
8.46072e-07
-1.0835e-06
1.14837e-06
-1.07045e-06
1.41811e-06
-1.01762e-06
1.65825e-06
-9.97143e-07
1.88241e-06
-9.95321e-07
2.07584e-06
-9.78679e-07
2.25564e-06
-1.00135e-06
2.4167e-06
-1.01605e-06
2.5764e-06
-1.05161e-06
2.74134e-06
-1.07309e-06
2.85265e-06
-1.03688e-06
2.96213e-06
-1.05056e-06
3.0143e-06
-1.00284e-06
3.01655e-06
-9.67407e-07
3.00006e-06
-9.63377e-07
2.8957e-06
-8.76258e-07
2.78603e-06
-8.67295e-07
2.63327e-06
-8.05544e-07
2.38331e-06
-7.01332e-07
2.12466e-06
-6.5463e-07
1.72098e-06
-4.63431e-07
1.25328e-06
-3.20769e-07
7.14293e-07
-1.36517e-07
2.47767e-08
1.37535e-07
-7.47083e-07
3.57658e-07
-1.65906e-06
5.81928e-07
-2.98993e-06
7.62113e-07
-4.73535e-06
8.39693e-07
-6.68422e-06
8.42019e-07
-8.70868e-06
5.53557e-07
-1.05014e-05
1.22692e-07
-1.19335e-05
1.36104e-08
-1.32455e-05
-1.21248e-08
-1.43178e-05
-4.31283e-07
-1.49392e-05
-1.08564e-06
-1.52676e-05
-1.6906e-06
-1.52995e-05
-2.38674e-06
-1.51693e-05
-2.5417e-06
-1.45384e-05
-3.10937e-06
-1.36477e-05
-4.04419e-06
-1.29178e-05
-3.57861e-06
-1.29502e-05
-2.29527e-06
-1.36335e-05
-1.48685e-06
-1.4594e-05
-7.12762e-07
-1.58963e-05
1.61956e-07
-1.8001e-05
9.58866e-07
-2.08918e-05
1.53586e-06
-2.40849e-05
1.88393e-06
-2.68872e-05
2.0102e-06
-2.90743e-05
2.12137e-06
-3.07553e-05
2.1659e-06
-3.21102e-05
1.99113e-06
-3.32516e-05
1.77625e-06
-3.41611e-05
1.47085e-06
-3.48007e-05
1.1601e-06
-3.52548e-05
8.81374e-07
-3.54494e-05
5.31046e-07
-3.5457e-05
2.87437e-07
-3.52392e-05
-1.60405e-08
-3.48491e-05
-2.32841e-07
-3.4306e-05
-4.21237e-07
-3.36013e-05
-6.20123e-07
-3.27596e-05
-7.75663e-07
-3.18065e-05
-8.92006e-07
-3.07511e-05
-9.90593e-07
-2.96304e-05
-1.01979e-06
-2.84559e-05
-1.02486e-06
-2.72317e-05
-9.82414e-07
-2.59885e-05
-8.93097e-07
-2.47366e-05
-8.1554e-07
-2.34869e-05
-6.89155e-07
-2.2266e-05
-4.82439e-07
-2.10395e-05
-3.54035e-07
-1.98406e-05
-1.81196e-07
-1.86855e-05
8.90088e-08
-1.7554e-05
2.91873e-07
-1.64453e-05
4.98394e-07
-1.53559e-05
7.39179e-07
-1.42507e-05
9.38994e-07
-1.31855e-05
1.17677e-06
-1.20826e-05
1.40779e-06
-1.09841e-05
1.54883e-06
-9.90229e-06
1.84521e-06
-8.80218e-06
2.1521e-06
-7.68816e-06
2.32863e-06
-6.63052e-06
2.72081e-06
-5.54295e-06
2.9616e-06
-4.51489e-06
3.33982e-06
-3.53197e-06
3.69926e-06
-2.55201e-06
4.06728e-06
-1.66484e-06
4.47519e-06
-8.50698e-07
4.88211e-06
-6.39344e-08
5.17548e-06
6.66567e-07
5.52424e-06
1.34782e-06
5.80055e-06
1.90369e-06
6.16487e-06
2.35636e-06
6.48048e-06
2.70607e-06
6.74705e-06
2.97435e-06
6.98076e-06
3.17087e-06
7.17864e-06
3.22904e-06
7.50588e-06
3.13219e-06
7.8482e-06
2.92972e-06
8.22255e-06
2.57437e-06
8.65921e-06
2.14102e-06
9.00969e-06
1.54442e-06
9.43262e-06
8.52775e-07
9.684e-06
9.47228e-08
9.78661e-06
-6.65966e-07
1.01623e-05
-1.62395e-06
1.09598e-05
-2.98091e-06
1.16352e-05
-4.64019e-06
1.18294e-05
-6.1912e-06
1.15476e-05
-7.52712e-06
1.13557e-05
-8.61714e-06
1.12071e-05
-9.45485e-06
1.09315e-05
-1.00749e-05
1.05951e-05
-1.02262e-05
9.78316e-06
-1.0228e-05
9.57635e-06
-1.01785e-05
9.62166e-06
-9.83136e-06
8.77509e-06
-9.67479e-06
1.00439e-05
-9.0821e-06
8.28713e-06
-9.23612e-06
1.04833e-05
-8.20504e-06
7.45281e-06
-8.26084e-06
1.0214e-05
-8.38887e-06
9.54302e-06
-9.00042e-06
1.08228e-05
-9.56253e-06
1.05429e-05
-8.88541e-06
7.59537e-06
-7.4647e-06
7.10493e-06
-6.89183e-06
8.93229e-06
-6.1959e-06
9.06758e-06
-5.35626e-06
9.22839e-06
-4.57629e-06
9.35769e-06
-3.83479e-06
9.81096e-06
-3.31117e-06
1.01237e-05
-3.27713e-06
1.05417e-05
-3.24415e-06
1.05624e-05
-3.13622e-06
1.07778e-05
-2.74005e-06
1.08629e-05
-1.78156e-06
1.05809e-05
-9.30632e-07
1.08303e-05
-2.96203e-07
1.17181e-05
-2.165e-07
1.29838e-05
-6.37366e-07
1.38095e-05
-1.42354e-06
1.43101e-05
-2.68874e-06
1.54049e-05
-4.38256e-06
1.64811e-05
-6.1298e-06
1.73999e-05
-7.84624e-06
1.85247e-05
-8.81036e-06
1.78984e-05
-9.58443e-06
1.88793e-05
-8.24281e-06
1.51115e-05
-6.70132e-06
1.54882e-05
-5.67153e-06
1.80324e-05
-3.09172e-06
1.66884e-05
6.38681e-07
1.58704e-05
3.5399e-06
1.83164e-05
5.58753e-06
2.14625e-05
8.81119e-06
1.99541e-05
1.20681e-05
1.98764e-05
1.25964e-05
2.41768e-05
1.21286e-05
2.80972e-05
1.22359e-05
2.9379e-05
1.42606e-05
2.76463e-05
1.65886e-05
2.66365e-05
1.73219e-05
2.73995e-05
2.92038e-05
1.66243e-05
4.5978e-08
-3.7526e-07
9.63534e-08
-1.83734e-07
8.49047e-08
7.58313e-08
1.33774e-08
1.59432e-07
-1.04986e-07
2.6798e-08
-1.01096e-07
-3.23393e-07
3.51141e-09
-7.38665e-07
1.89381e-07
-1.1073e-06
4.17109e-07
-1.36033e-06
6.6615e-07
-1.52746e-06
9.08111e-07
-1.56112e-06
1.13635e-06
-1.54112e-06
1.31544e-06
-1.49305e-06
1.50403e-06
-1.46523e-06
1.67012e-06
-1.43982e-06
1.82062e-06
-1.44112e-06
1.95543e-06
-1.42961e-06
2.09008e-06
-1.47464e-06
2.24126e-06
-1.52937e-06
2.39921e-06
-1.59656e-06
2.54431e-06
-1.63224e-06
2.67853e-06
-1.61311e-06
2.77663e-06
-1.61708e-06
2.86401e-06
-1.59376e-06
2.90632e-06
-1.5427e-06
2.91099e-06
-1.53103e-06
2.86043e-06
-1.42768e-06
2.73465e-06
-1.37214e-06
2.56851e-06
-1.30628e-06
2.34846e-06
-1.18734e-06
2.02946e-06
-1.07022e-06
1.67005e-06
-8.77548e-07
1.26793e-06
-7.25078e-07
7.89164e-07
-4.97602e-07
3.04817e-07
-2.52708e-07
-1.9626e-07
-4.94221e-08
-8.81687e-07
3.23254e-07
-1.67052e-06
5.61167e-07
-2.59827e-06
7.20505e-07
-3.8803e-06
1.0233e-06
-5.49915e-06
1.04249e-06
-7.44129e-06
9.02227e-07
-9.599e-06
8.46598e-07
-1.16079e-05
6.4398e-07
-1.31192e-05
-1.79971e-08
-1.42713e-05
-8.8588e-07
-1.5112e-05
-1.92694e-06
-1.5656e-05
-2.97467e-06
-1.53781e-05
-3.84094e-06
-1.4809e-05
-4.72973e-06
-1.57167e-05
-4.20698e-06
-1.72141e-05
-3.22483e-06
-1.88921e-05
-1.80475e-06
-2.10147e-05
-4.8603e-07
-2.33692e-05
6.05122e-07
-2.56144e-05
1.39666e-06
-2.76828e-05
2.03352e-06
-2.9451e-05
2.38082e-06
-3.09509e-05
2.59265e-06
-3.2359e-05
2.70406e-06
-3.34546e-05
2.63237e-06
-3.41659e-05
2.42454e-06
-3.47128e-05
2.1523e-06
-3.50258e-05
1.81777e-06
-3.52096e-05
1.45803e-06
-3.52422e-05
1.05765e-06
-3.51013e-05
6.87177e-07
-3.48986e-05
3.3429e-07
-3.4527e-05
-6.07175e-09
-3.40388e-05
-3.58483e-07
-3.34088e-05
-6.63239e-07
-3.26315e-05
-9.32561e-07
-3.17462e-05
-1.18731e-06
-3.07802e-05
-1.36498e-06
-2.97211e-05
-1.51176e-06
-2.85868e-05
-1.64145e-06
-2.7391e-05
-1.67629e-06
-2.61585e-05
-1.66612e-06
-2.49033e-05
-1.5881e-06
-2.36209e-05
-1.47167e-06
-2.23675e-05
-1.31031e-06
-2.10966e-05
-1.14362e-06
-1.9856e-05
-8.46737e-07
-1.86561e-05
-6.16809e-07
-1.75195e-05
-3.49238e-07
-1.63473e-05
-4.05371e-08
-1.52269e-05
2.98194e-07
-1.41708e-05
6.26823e-07
-1.31085e-05
9.31135e-07
-1.2063e-05
1.21955e-06
-1.10249e-05
1.54027e-06
-9.9862e-06
1.88502e-06
-8.93559e-06
2.0881e-06
-7.91835e-06
2.47533e-06
-6.81608e-06
2.82047e-06
-5.75893e-06
3.12639e-06
-4.74528e-06
3.66376e-06
-3.66877e-06
3.94795e-06
-2.68219e-06
4.52168e-06
-1.70481e-06
5.00344e-06
-8.11853e-07
5.56451e-06
2.58012e-08
6.14622e-06
7.92382e-07
6.74521e-06
1.51031e-06
7.20632e-06
2.16266e-06
7.72112e-06
2.66012e-06
8.23191e-06
3.01558e-06
8.8365e-06
3.28907e-06
9.33808e-06
3.54984e-06
9.78339e-06
3.80598e-06
1.02065e-05
3.93792e-06
1.06468e-05
3.77495e-06
1.13189e-05
3.38412e-06
1.19013e-05
3.00584e-06
1.23138e-05
2.71967e-06
1.27558e-05
2.41274e-06
1.31908e-05
1.98226e-06
1.39472e-05
1.14875e-06
1.47686e-05
-2.62494e-08
1.50238e-05
-1.21571e-06
1.51223e-05
-2.17792e-06
1.58813e-05
-3.03664e-06
1.69704e-05
-4.03503e-06
1.75532e-05
-4.9554e-06
1.7185e-05
-5.86595e-06
1.68474e-05
-6.55748e-06
1.6463e-05
-7.01767e-06
1.60346e-05
-7.27925e-06
1.55638e-05
-7.16313e-06
1.44567e-05
-7.20622e-06
1.43939e-05
-7.21153e-06
1.43701e-05
-7.20098e-06
1.34889e-05
-6.89526e-06
1.43847e-05
-6.59701e-06
1.23425e-05
-6.46971e-06
1.55026e-05
-5.53917e-06
1.05801e-05
-5.24845e-06
1.53318e-05
-5.1021e-06
1.47707e-05
-6.08975e-06
1.7264e-05
-7.12011e-06
1.65985e-05
-7.44435e-06
1.23529e-05
-6.16794e-06
1.01923e-05
-5.58813e-06
1.27668e-05
-5.09898e-06
1.30641e-05
-4.93103e-06
1.34969e-05
-3.69661e-06
1.28844e-05
-2.01025e-06
1.3493e-05
-1.39617e-06
1.53921e-05
-1.65183e-06
1.66557e-05
-1.98e-06
1.63585e-05
-2.06081e-06
1.60647e-05
-1.73381e-06
1.55763e-05
-1.53203e-06
1.52751e-05
-5.43822e-07
1.46202e-05
9.93156e-07
1.51852e-05
1.94685e-06
1.75648e-05
2.06511e-06
2.00312e-05
7.27928e-07
2.24946e-05
-1.00911e-06
2.43623e-05
-3.13302e-06
2.60289e-05
-4.95152e-06
2.68742e-05
-6.43495e-06
2.7861e-05
-7.27507e-06
2.6585e-05
-7.97826e-06
2.86787e-05
-7.35997e-06
2.27039e-05
-5.85014e-06
2.19795e-05
-4.62621e-06
2.57382e-05
-2.31428e-06
2.29e-05
2.88749e-06
1.96743e-05
6.298e-06
2.43329e-05
8.07765e-06
3.08239e-05
1.11021e-05
2.71388e-05
1.44758e-05
2.79513e-05
1.5387e-05
3.64709e-05
1.46099e-05
4.44902e-05
1.42501e-05
4.61194e-05
1.58741e-05
4.2379e-05
1.97529e-05
3.93073e-05
2.15476e-05
4.20728e-05
4.63535e-05
2.08715e-05
-7.43371e-09
-5.58686e-07
5.59165e-09
-3.97812e-07
2.35255e-08
-1.57561e-07
5.93231e-08
-1.03939e-07
1.95933e-07
-3.37863e-07
4.28219e-07
-7.78479e-07
6.76057e-07
-1.20893e-06
9.01409e-07
-1.55864e-06
1.08415e-06
-1.77423e-06
1.20008e-06
-1.88108e-06
1.28157e-06
-1.88922e-06
1.35095e-06
-1.86882e-06
1.43923e-06
-1.85297e-06
1.54195e-06
-1.85475e-06
1.6488e-06
-1.85025e-06
1.75221e-06
-1.86637e-06
1.885e-06
-1.90327e-06
2.05465e-06
-2.00703e-06
2.27941e-06
-2.13805e-06
2.51516e-06
-2.2373e-06
2.78654e-06
-2.33451e-06
3.0573e-06
-2.33981e-06
3.32182e-06
-2.363e-06
3.56532e-06
-2.34987e-06
3.74678e-06
-2.26882e-06
3.85144e-06
-2.20818e-06
3.8707e-06
-2.0509e-06
3.77538e-06
-1.91516e-06
3.57736e-06
-1.77731e-06
3.19858e-06
-1.5192e-06
2.73339e-06
-1.34177e-06
2.22014e-06
-1.13641e-06
1.57524e-06
-8.90019e-07
9.61423e-07
-7.24726e-07
3.6545e-07
-5.33347e-07
-2.97131e-07
-2.91879e-07
-8.67973e-07
-3.42897e-08
-1.48165e-06
2.23638e-07
-2.32114e-06
5.73565e-07
-3.23269e-06
8.95661e-07
-4.21605e-06
9.41186e-07
-5.6478e-06
1.2187e-06
-7.2764e-06
1.3027e-06
-8.75724e-06
8.70134e-07
-1.03705e-05
3.57959e-07
-1.21146e-05
-2.52775e-07
-1.36316e-05
-1.55992e-06
-1.48355e-05
-2.8039e-06
-1.53689e-05
-4.16412e-06
-1.68653e-05
-4.36214e-06
-1.94748e-05
-2.93522e-06
-2.21173e-05
-1.76023e-06
-2.42593e-05
-6.91331e-07
-2.62768e-05
4.99029e-07
-2.79566e-05
1.34337e-06
-2.95898e-05
2.15539e-06
-3.08877e-05
2.57777e-06
-3.19596e-05
2.79014e-06
-3.27738e-05
2.82167e-06
-3.32917e-05
2.77178e-06
-3.36828e-05
2.62045e-06
-3.39688e-05
2.35062e-06
-3.4104e-05
2.02407e-06
-3.41439e-05
1.6274e-06
-3.41207e-05
1.25487e-06
-3.39856e-05
8.27884e-07
-3.37928e-05
4.40428e-07
-3.34854e-05
4.30792e-08
-3.30409e-05
-3.65516e-07
-3.25251e-05
-7.33076e-07
-3.18622e-05
-1.11404e-06
-3.10461e-05
-1.4846e-06
-3.01377e-05
-1.76416e-06
-2.91054e-05
-2.01016e-06
-2.79745e-05
-2.18983e-06
-2.67693e-05
-2.34404e-06
-2.55028e-05
-2.3855e-06
-2.41623e-05
-2.38438e-06
-2.28445e-05
-2.22704e-06
-2.1522e-05
-2.07564e-06
-2.02229e-05
-1.83302e-06
-1.8904e-05
-1.61522e-06
-1.75945e-05
-1.27282e-06
-1.63943e-05
-8.65784e-07
-1.52488e-05
-4.82053e-07
-1.41101e-05
-1.1894e-07
-1.30252e-05
3.45972e-07
-1.19473e-05
7.52092e-07
-1.09463e-05
1.20931e-06
-9.95273e-06
1.57456e-06
-8.94182e-06
1.9447e-06
-7.91059e-06
2.35022e-06
-6.89066e-06
2.66445e-06
-5.8394e-06
3.09231e-06
-4.79601e-06
3.52105e-06
-3.70948e-06
3.86936e-06
-2.64577e-06
4.49027e-06
-1.55475e-06
4.83684e-06
-5.48201e-07
5.5492e-06
5.03398e-07
6.05806e-06
1.43529e-06
6.80115e-06
2.3199e-06
7.48393e-06
3.12751e-06
8.22109e-06
3.80519e-06
8.86542e-06
4.32933e-06