/*--------------------------------*- C++ -*----------------------------------*\
| =========                 |                                                 |
| \\      /  F ield         | OpenFOAM: The Open Source CFD Toolbox           |
|  \\    /   O peration     | Version:  dev                                   |
|   \\  /    A nd           | Web:      http://www.openfoam.org               |
|    \\/     M anipulation  |                                                 |
\*---------------------------------------------------------------------------*/
FoamFile
{
    version     2.0;
    format      ascii;
    class       volScalarField;
    object      pMean;
    location    "9.122";
}
// * * * * * * * * * * * * * * * * * * * * * * * * * * * * * * * * * * * * * //

dimensions      [1 -1 -2 0 0 0 0];

internalField   nonuniform List<scalar> 
12225
(
98312.6
98292.8
98279.1
98272
98257.8
98248.4
98229.9
98220.3
98198.9
98190.1
98165.4
98158.6
98127.6
98121.3
98080.6
98040.9
97951.8
97586
98308.1
98291.7
98278.5
98271.5
98257.2
98247.8
98229.2
98219.8
98198.1
98189.7
98164.7
98158.1
98127.2
98119.4
98078.8
98044.9
97952.7
97791.7
98304.3
98290.1
98277.5
98270.1
98255.8
98246.3
98227.7
98218.4
98196.7
98188.2
98163.9
98156
98127.8
98116
98081.1
98045.9
97978.5
97889.8
98299.2
98287.2
98275.4
98267.7
98253.4
98243.6
98225.6
98215.8
98195
98185.5
98162.5
98152.9
98126.7
98113.8
98082
98054.3
98005.8
97937
98292.6
98282.8
98271.8
98263.7
98249.8
98239.5
98222.6
98211.6
98192.5
98181.2
98161
98148.4
98126.9
98110.6
98084
98059.8
98019.9
97987.2
98284.3
98276.6
98265.9
98257.6
98244.1
98233.6
98217.5
98205.9
98188.1
98176
98157.8
98144.2
98125.8
98108.9
98087.5
98062.2
98040.1
98019.7
98274
98267.7
98257.4
98248.9
98236.3
98225.2
98210.4
98197.8
98182.1
98168.5
98153.2
98138.1
98123.6
98106
98091.7
98070.7
98060.4
98045.5
98263.3
98257.6
98248
98239.3
98227.6
98216.1
98202.5
98189.3
98175.3
98161
98147.9
98132.2
98120.7
98103.4
98094.7
98076.9
98075.1
98060.2
98252.5
98247
98238.2
98229.3
98218.5
98206.7
98194.2
98180.7
98168.1
98153.5
98142
98126.5
98116.8
98100.9
98094.6
98080.4
98080.1
98068.2
98238.8
98233.4
98225.7
98216.7
98206.8
98195
98183.5
98170
98158.7
98144.1
98134.2
98119.3
98111.1
98096.7
98091.7
98080
98079.2
98070.9
98221.9
98216.4
98209.9
98201.1
98192
98180.5
98169.7
98156.8
98146.3
98132.7
98123.3
98110.2
98102.2
98090.7
98085
98076.5
98073.8
98068.6
98201.3
98195.6
98190.4
98181.9
98173.6
98162.5
98152.7
98140.4
98130.8
98118.2
98109.6
98098.1
98090.6
98081.3
98075.6
98069.2
98065.6
98061.9
98176.5
98171.2
98166.7
98159.2
98151.2
98141.3
98131.9
98121
98111.8
98101.1
98092.7
98083.4
98076.1
98068.9
98063.5
98058.6
98055
98052.3
98148.3
98143.5
98139.5
98132.9
98125.7
98116.8
98108.2
98098.7
98090.1
98081.2
98073.5
98065.9
98059.5
98053.8
98049.1
98045.3
98042.4
98040.3
98118.1
98114.4
98110.6
98105.2
98098.7
98091.1
98083.3
98075.2
98067.6
98060.2
98053.5
98047.4
98042.1
98037.5
98033.8
98030.9
98028.7
98027.2
98090.4
98087.6
98084.3
98079.8
98074.2
98067.7
98060.9
98054
98047.4
98041.3
98035.7
98030.7
98026.4
98022.8
98020
98017.8
98016.3
98015.3
98071.8
98069.8
98067.1
98063.2
98058.2
98052.6
98046.6
98040.7
98035
98029.8
98025
98020.8
98017.3
98014.4
98012.1
98010.4
98009.2
98008.6
98072
98070.4
98067.8
98064.1
98059.4
98054
98048.5
98042.9
98037.6
98032.6
98028.2
98024.2
98020.8
98018.1
98015.8
98014.1
98012.9
98012.2
98091.7
98089.9
98087.1
98083.1
98078.2
98072.6
98066.9
98061.1
98055.5
98050.3
98045.5
98041.2
98037.5
98034.3
98031.6
98029.5
98027.8
98026.6
98122.5
98120.4
98117
98112.5
98107.1
98101
98094.7
98088.4
98082.2
98076.4
98071
98066.1
98061.7
98057.8
98054.5
98051.6
98049.2
98047.3
98157.4
98154.8
98150.7
98145.6
98139.5
98132.8
98125.9
98118.9
98112.1
98105.6
98099.4
98093.8
98088.6
98084
98079.9
98076.3
98073.2
98070.5
98191.3
98188.2
98183.4
98177.6
98170.9
98163.7
98156.1
98148.5
98141
98133.8
98127
98120.7
98114.8
98109.5
98104.6
98100.3
98096.5
98093.1
98221.5
98217.9
98212.4
98205.9
98198.6
98190.9
98182.8
98174.7
98166.7
98159
98151.5
98144.6
98138.1
98132.1
98126.7
98121.7
98117.2
98113.2
98246.9
98242.5
98236.2
98229.1
98221.4
98213.3
98204.9
98196.4
98188
98179.8
98171.9
98164.4
98157.4
98151
98145
98139.5
98134.5
98130
98267.1
98262
98254.8
98247.1
98239.1
98230.8
98222.1
98213.4
98204.6
98196
98187.8
98179.9
98172.6
98165.7
98159.4
98153.5
98148.1
98143.2
98282.8
98276.5
98268.4
98260.3
98252.1
98243.6
98234.8
98225.9
98216.9
98208.1
98199.6
98191.5
98183.8
98176.7
98170
98163.9
98158.2
98153
98294.6
98286.8
98277.7
98269.2
98260.9
98252.4
98243.6
98234.5
98225.4
98216.4
98207.8
98199.5
98191.6
98184.3
98177.5
98171.1
98165.2
98159.9
98303.3
98293.5
98283.4
98274.8
98266.5
98258.1
98249.2
98240.1
98230.9
98221.9
98213.1
98204.7
98196.7
98189.2
98182.3
98175.8
98169.8
98164.3
98309.4
98297.3
98286.2
98277.6
98269.5
98261.2
98252.4
98243.3
98234.1
98225
98216.1
98207.6
98199.6
98192.1
98185
98178.5
98172.4
98166.8
98315.4
98299.9
98287.8
98278.9
98270.8
98262.4
98253.7
98244.6
98235.4
98226.2
98217.4
98208.9
98200.8
98193.2
98186.2
98179.6
98173.5
98167.9
98312.4
98312
98311.2
98310.1
98308.6
98306.7
98304.5
98301.9
98298.8
98295.4
98291.5
98287.3
98282.7
98277.7
98272.5
98267
98261.3
98255.4
98249.3
98243
98236.6
98230
98223.3
98216.5
98209.6
98202.7
98195.6
98188.6
98181.5
98174.4
98167.3
98160.2
98153.2
98146.3
98139.4
98132.7
98126
98119.5
98113.2
98107.1
98101.2
98095.5
98090.1
98084.9
98080.1
98075.6
98071.5
98067.8
98064.5
98061.7
98059.3
98057.4
98056
98055.2
98054.9
98055.2
98056.2
98057.8
98060.1
98063.1
98066.7
98071.1
98076.2
98082
98088.5
98095.8
98103.8
98112.4
98121.7
98131.7
98142.3
98153.5
98165.2
98177.5
98190.3
98203.5
98217.1
98231.1
98245.4
98260
98274.8
98289.8
98304.9
98320.2
98335.4
98350.7
98365.9
98380.9
98395.8
98410.5
98425
98439.1
98452.9
98466.2
98479.1
98491.6
98503.4
98514.8
98525.5
98535.7
98545.2
98554.1
98562.3
98569.9
98576.8
98583.1
98588.9
98594
98598.6
98602.7
98606.3
98609.5
98612.4
98614.9
98617.1
98618.9
98620.6
98622
98623.3
98624.4
98625.5
98626.6
98627.7
98629
98630.6
98632.7
98635.3
98638.7
98643.1
98648.7
98655.8
98664.5
98675.2
98688.1
98703.4
98721.4
98742.2
98766
98792.8
98822.6
98855.5
98891.4
98930.3
98971.7
99016.1
99062.6
99111.6
99162.2
99214.8
99269
99324.5
99380.9
99437.9
99495.2
99552.5
99609.1
99664.5
99718.3
99769.3
99817.2
99860.8
99899.2
99931.2
99956.3
99973.1
99980.7
99978.1
99965.1
99941.1
99906.5
99861.1
99806.4
99742.4
99671.7
99594.7
99514.2
99429.7
99345
99258.2
99175
98305.4
98305
98304.2
98303.1
98301.6
98299.7
98297.5
98294.8
98291.8
98288.4
98284.7
98280.5
98276
98271.2
98266.1
98260.8
98255.3
98249.6
98243.6
98237.6
98231.3
98224.9
98218.4
98211.8
98205
98198.2
98191.4
98184.5
98177.5
98170.6
98163.7
98156.7
98149.9
98143.1
98136.4
98129.8
98123.3
98116.9
98110.7
98104.7
98098.9
98093.4
98088
98083
98078.3
98073.9
98069.8
98066.2
98062.9
98060.1
98057.7
98055.8
98054.4
98053.5
98053.2
98053.5
98054.4
98056
98058.2
98061.1
98064.7
98068.9
98073.9
98079.6
98086
98093.1
98100.9
98109.4
98118.5
98128.3
98138.7
98149.7
98161.3
98173.3
98185.9
98198.9
98212.3
98226
98240.1
98254.4
98269
98283.8
98298.6
98313.6
98328.6
98343.6
98358.5
98373.3
98387.9
98402.3
98416.4
98430.3
98443.7
98456.8
98469.4
98481.6
98493.2
98504.3
98514.8
98524.6
98533.9
98542.6
98550.6
98558
98564.8
98570.9
98576.5
98581.5
98586
98590
98593.5
98596.6
98599.4
98601.8
98603.9
98605.8
98607.4
98608.7
98609.9
98611
98612
98612.9
98614
98615.2
98616.6
98618.5
98620.9
98624
98628.1
98633.4
98640.1
98648.3
98658.5
98670.8
98685.6
98702.9
98723
98746
98771.9
98800.8
98832.8
98867.7
98905.5
98945.9
98989.1
99034.5
99082.3
99131.8
99183.2
99236.2
99290.5
99345.8
99401.7
99458
99514.2
99569.8
99624.3
99677.3
99727.6
99774.9
99818
99856.2
99888.1
99913.4
99930.5
99938.6
99936.9
99925
99902.3
99869.1
99825.4
99772.4
99710.2
99641.3
99566.1
99487.3
99404.4
99321.2
99235.4
99150.4
98292.7
98292.3
98291.5
98290.3
98288.7
98286.8
98284.5
98281.8
98278.8
98275.4
98271.7
98267.7
98263.3
98258.7
98253.9
98248.8
98243.6
98238.2
98232.6
98226.9
98221
98215
98208.9
98202.7
98196.3
98189.8
98183.3
98176.7
98170.1
98163.4
98156.8
98150.1
98143.5
98137
98130.5
98124.1
98117.9
98111.8
98105.8
98100
98094.4
98089
98083.9
98079
98074.4
98070.1
98066.2
98062.6
98059.4
98056.6
98054.3
98052.3
98050.9
98050
98049.6
98049.8
98050.6
98052
98054.1
98056.8
98060.2
98064.3
98069
98074.5
98080.6
98087.4
98094.9
98103.1
98112
98121.4
98131.5
98142.1
98153.3
98165
98177.1
98189.7
98202.6
98216
98229.6
98243.5
98257.6
98271.9
98286.3
98300.7
98315.2
98329.7
98344.1
98358.3
98372.4
98386.2
98399.8
98413.1
98426
98438.5
98450.6
98462.2
98473.3
98483.8
98493.8
98503.2
98512
98520.2
98527.9
98534.9
98541.3
98547.1
98552.4
98557.2
98561.4
98565.2
98568.6
98571.5
98574.1
98576.4
98578.4
98580.1
98581.6
98582.8
98583.9
98584.8
98585.6
98586.3
98587.1
98588
98589.1
98590.5
98592.5
98595
98598.5
98603
98608.9
98616.3
98625.5
98636.7
98650.1
98666.1
98684.7
98706.1
98730.4
98757.5
98787.6
98820.4
98856.1
98894.4
98935.3
98978.4
99023.8
99071
99120.1
99170.8
99222.7
99275.6
99329.3
99383.4
99437.5
99491.1
99543.7
99594.9
99643.7
99689.6
99731.6
99768.9
99800.4
99825.5
99843
99851.9
99851.5
99841.4
99821
99790.5
99749.8
99700.2
99641.6
99576.4
99504.8
99429.6
99350
99270.1
99187.1
99103.2
98275.2
98274.9
98274.1
98272.9
98271.3
98269.3
98267
98264.3
98261.3
98258
98254.4
98250.5
98246.4
98242
98237.4
98232.7
98227.8
98222.8
98217.6
98212.4
98206.9
98201.4
98195.7
98190
98184.1
98178.1
98172
98165.9
98159.8
98153.6
98147.4
98141.2
98135
98128.9
98122.8
98116.8
98110.9
98105.1
98099.4
98093.9
98088.6
98083.4
98078.5
98073.8
98069.3
98065.2
98061.4
98057.9
98054.8
98052.1
98049.7
98047.8
98046.3
98045.3
98044.9
98045
98045.6
98046.9
98048.7
98051.2
98054.3
98058.1
98062.5
98067.6
98073.4
98079.8
98086.9
98094.7
98103
98112
98121.6
98131.7
98142.4
98153.5
98165.1
98177.1
98189.5
98202.2
98215.2
98228.4
98241.9
98255.4
98269.1
98282.9
98296.7
98310.4
98324.1
98337.6
98350.9
98364
98376.8
98389.4
98401.5
98413.3
98424.6
98435.4
98445.7
98455.5
98464.8
98473.6
98481.7
98489.4
98496.4
98502.9
98508.8
98514.2
98519.1
98523.5
98527.4
98530.8
98533.9
98536.6
98539.1
98541.2
98543
98544.5
98545.7
98546.8
98547.6
98548.3
98548.8
98549.3
98549.7
98550.1
98550.7
98551.5
98552.8
98554.5
98557.1
98560.6
98565.3
98571.4
98579.1
98588.8
98600.5
98614.6
98631.2
98650.4
98672.3
98696.9
98724.3
98754.4
98787.2
98822.5
98860.4
98900.4
98942.6
98986.6
99032.5
99079.9
99128.7
99178.5
99229.2
99280.4
99331.5
99382.4
99432.3
99481.1
99527.8
99571.7
99612.1
99648.2
99678.8
99703.6
99721.3
99731
99731.9
99723.9
99706.2
99679
99642.2
99596.9
99543
99482.6
99415.8
99345.4
99270.6
99195.1
99116.3
99036.3
98254
98253.7
98253
98251.9
98250.3
98248.4
98246.1
98243.5
98240.6
98237.4
98233.9
98230.2
98226.2
98222.1
98217.9
98213.5
98208.9
98204.3
98199.6
98194.7
98189.8
98184.8
98179.6
98174.4
98169
98163.6
98158.1
98152.5
98147
98141.3
98135.7
98130.1
98124.4
98118.8
98113.2
98107.7
98102.3
98097
98091.7
98086.6
98081.6
98076.8
98072.1
98067.7
98063.5
98059.5
98055.9
98052.5
98049.5
98046.8
98044.5
98042.6
98041.1
98040
98039.4
98039.4
98039.9
98040.9
98042.5
98044.7
98047.5
98050.9
98054.9
98059.5
98064.8
98070.8
98077.3
98084.5
98092.3
98100.7
98109.7
98119.1
98129.1
98139.6
98150.5
98161.7
98173.3
98185.2
98197.4
98209.8
98222.4
98235.2
98248
98260.8
98273.7
98286.5
98299.2
98311.8
98324.2
98336.4
98348.3
98359.9
98371.1
98381.9
98392.3
98402.2
98411.7
98420.6
98429
98436.9
98444.3
98451.2
98457.5
98463.3
98468.6
98473.5
98477.8
98481.7
98485.2
98488.3
98491
98493.4
98495.6
98497.4
98498.9
98500.2
98501.2
98502
98502.5
98502.9
98503
98503
98503
98502.8
98502.8
98502.9
98503.3
98504.1
98505.5
98507.8
98511.1
98515.6
98521.6
98529.3
98538.9
98550.7
98564.8
98581.3
98600.4
98622
98646.3
98673
98702.3
98734
98768.2
98804.5
98842.8
98883.1
98925.1
98968.7
99013.7
99059.8
99106.8
99154.4
99202.1
99249.6
99296.4
99342.2
99386.2
99427.8
99466.1
99500.6
99530
99554.2
99571.9
99582.2
99584.5
99578.6
99563.9
99540.5
99508.1
99467.8
99419.2
99364.6
99303.5
99239.1
99170.1
99100.2
99026.9
98952.3
98230.6
98230.4
98229.7
98228.7
98227.2
98225.4
98223.3
98220.9
98218.1
98215.1
98211.8
98208.3
98204.6
98200.7
98196.8
98192.7
98188.5
98184.2
98179.9
98175.4
98171
98166.4
98161.7
98157
98152.2
98147.3
98142.4
98137.5
98132.5
98127.5
98122.5
98117.4
98112.4
98107.4
98102.4
98097.4
98092.5
98087.7
98082.9
98078.3
98073.7
98069.3
98065
98060.9
98057
98053.3
98049.8
98046.6
98043.7
98041.1
98038.9
98037
98035.4
98034.3
98033.6
98033.4
98033.7
98034.4
98035.7
98037.6
98040
98043
98046.5
98050.7
98055.4
98060.8
98066.7
98073.3
98080.4
98088.1
98096.3
98105
98114.2
98123.8
98133.9
98144.3
98155
98166
98177.2
98188.7
98200.3
98212
98223.8
98235.6
98247.4
98259.2
98270.9
98282.4
98293.7
98304.8
98315.6
98326.1
98336.2
98346
98355.3
98364.2
98372.6
98380.6
98388.1
98395.1
98401.6
98407.6
98413.1
98418.1
98422.8
98426.9
98430.7
98434
98437
98439.7
98442
98444
98445.8
98447.3
98448.5
98449.4
98450.1
98450.5
98450.7
98450.6
98450.3
98449.8
98449.2
98448.4
98447.6
98446.9
98446.3
98446
98446.1
98446.9
98448.6
98451.4
98455.4
98460.9
98468.2
98477.4
98488.7
98502.3
98518.1
98536.3
98557
98580.1
98605.5
98633.2
98663.3
98695.5
98729.6
98765.7
98803.5
98842.9
98883.8
98925.8
98968.7
99012.3
99056.1
99099.9
99143.2
99185.6
99226.5
99265.3
99301.3
99333.8
99361.7
99384.9
99402.3
99413.1
99416.7
99413
99401.3
99381.8
99353.9
99318.8
99276
99227.5
99172.8
99115.1
99052.6
98989.2
98922.3
98854.3
98206.1
98206
98205.4
98204.5
98203.2
98201.6
98199.7
98197.4
98194.9
98192.1
98189.1
98185.8
98182.4
98178.9
98175.2
98171.5
98167.6
98163.7
98159.7
98155.7
98151.6
98147.5
98143.3
98139
98134.7
98130.4
98126.1
98121.7
98117.3
98112.9
98108.4
98104
98099.6
98095.1
98090.7
98086.4
98082
98077.7
98073.5
98069.3
98065.2
98061.2
98057.2
98053.5
98049.9
98046.5
98043.2
98040.2
98037.5
98035
98032.8
98030.9
98029.4
98028.2
98027.3
98027
98027
98027.5
98028.5
98030
98032
98034.5
98037.6
98041.2
98045.3
98050.1
98055.3
98061.2
98067.6
98074.5
98081.9
98089.7
98098.1
98106.8
98115.9
98125.4
98135.1
98145.1
98155.3
98165.7
98176.2
98186.8
98197.5
98208.2
98218.8
98229.4
98239.9
98250.2
98260.4
98270.3
98279.9
98289.2
98298.2
98306.8
98315
98322.8
98330.1
98337
98343.5
98349.5
98355.1
98360.2
98364.9
98369.1
98373
98376.4
98379.5
98382.2
98384.7
98386.8
98388.6
98390.2
98391.5
98392.6
98393.4
98393.9
98394.2
98394.2
98393.9
98393.4
98392.6
98391.6
98390.3
98388.8
98387.2
98385.4
98383.8
98382.2
98381
98380.2
98380.2
98381.1
98383
98386.2
98390.9
98397.4
98405.7
98416.1
98428.6
98443.3
98460.2
98479.3
98500.8
98524.4
98550.1
98578
98607.8
98639.5
98672.9
98707.9
98744.4
98782.1
98820.6
98860
98899.7
98939.6
98979.2
99017.9
99055.4
99091.1
99124.4
99154.6
99180.6
99202.6
99219.3
99230.3
99234.9
99233.3
99224.4
99208.6
99185.2
99155.3
99118.3
99076.2
99028.2
98977.4
98921.8
98865.6
98805.7
98744.9
98181.9
98181.8
98181.4
98180.6
98179.5
98178.1
98176.4
98174.4
98172.2
98169.7
98167
98164.1
98161
98157.8
98154.4
98151
98147.5
98143.9
98140.3
98136.6
98132.9
98129.2
98125.4
98121.7
98117.9
98114
98110.2
98106.4
98102.5
98098.6
98094.7
98090.8
98086.9
98083
98079.2
98075.3
98071.5
98067.7
98063.9
98060.2
98056.5
98052.9
98049.3
98045.9
98042.6
98039.4
98036.4
98033.6
98031
98028.6
98026.5
98024.6
98023
98021.8
98020.8
98020.3
98020.1
98020.4
98021
98022.2
98023.7
98025.8
98028.4
98031.4
98035
98039
98043.6
98048.7
98054.4
98060.4
98067
98074
98081.4
98089.2
98097.4
98105.8
98114.5
98123.5
98132.6
98141.9
98151.3
98160.7
98170.2
98179.7
98189.2
98198.5
98207.8
98216.8
98225.7
98234.4
98242.7
98250.8
98258.6
98266
98273
98279.6
98285.8
98291.7
98297.1
98302.1
98306.7
98310.9
98314.7
98318.1
98321.1
98323.8
98326.2
98328.3
98330.1
98331.7
98333
98334.1
98334.9
98335.4
98335.7
98335.8
98335.6
98335.2
98334.4
98333.4
98332
98330.3
98328.3
98326
98323.4
98320.7
98317.9
98315.1
98312.4
98310.1
98308.2
98307.2
98306.9
98307.7
98309.8
98313.5
98318.9
98326.1
98335.1
98346.2
98359.4
98374.6
98392.1
98411.5
98432.9
98456.4
98481.8
98509.2
98538.2
98568.8
98600.8
98634.2
98668.3
98703.4
98739
98774.9
98810.6
98845.5
98879.3
98911.7
98942
98969.6
98993.4
99013.7
99029.5
99040.3
99045.7
99045.7
99039.2
99026.8
99007.4
98982.5
98951.1
98915.2
98873.9
98830.2
98781.7
98732.9
98680.1
98627
98159
98159.1
98158.7
98158.1
98157.2
98156
98154.5
98152.8
98150.9
98148.7
98146.3
98143.7
98140.9
98138.1
98135.1
98132
98128.9
98125.7
98122.4
98119.1
98115.8
98112.5
98109.1
98105.8
98102.4
98099.1
98095.7
98092.3
98088.9
98085.5
98082
98078.6
98075.2
98071.8
98068.4
98065
98061.6
98058.3
98054.9
98051.5
98048.2
98044.9
98041.7
98038.6
98035.5
98032.6
98029.8
98027.1
98024.7
98022.4
98020.2
98018.4
98016.7
98015.4
98014.3
98013.6
98013.2
98013.2
98013.6
98014.3
98015.5
98017.1
98019.2
98021.7
98024.6
98028.1
98032
98036.4
98041.2
98046.5
98052.3
98058.4
98064.9
98071.7
98078.9
98086.4
98094
98101.9
98110
98118.1
98126.4
98134.7
98143
98151.3
98159.5
98167.6
98175.6
98183.4
98191
98198.4
98205.5
98212.3
98218.8
98225
98230.8
98236.3
98241.4
98246.1
98250.4
98254.4
98258
98261.2
98264.1
98266.7
98268.9
98270.9
98272.5
98273.9
98275.1
98276.1
98276.8
98277.3
98277.6
98277.6
98277.4
98276.9
98276.2
98275.2
98273.8
98272.2
98270.2
98267.8
98265
98261.8
98258.3
98254.5
98250.5
98246.4
98242.4
98238.5
98234.9
98231.8
98229.4
98227.9
98227.5
98228.4
98230.8
98234.9
98240.6
98248.2
98257.6
98269.1
98282.7
98298.1
98315.4
98334.6
98355.7
98378.9
98403.6
98429.9
98457.6
98486.6
98516.5
98547.4
98578.9
98610.8
98642.4
98673.5
98703.6
98732.5
98759.5
98784.3
98805.7
98823.9
98838.2
98848.5
98854.2
98855.2
98850.7
98841
98825.3
98804.9
98778.6
98748.7
98713.9
98677
98635.6
98594.1
98548.7
98503.4
98138.4
98138.5
98138.3
98137.8
98137
98136.1
98134.8
98133.4
98131.8
98129.9
98127.8
98125.6
98123.2
98120.7
98118.1
98115.4
98112.6
98109.7
98106.9
98104
98101
98098.1
98095.2
98092.2
98089.2
98086.3
98083.3
98080.3
98077.3
98074.2
98071.2
98068.2
98065.2
98062.1
98059.1
98056.1
98053.1
98050
98047
98043.9
98040.9
98037.9
98034.9
98032
98029.2
98026.4
98023.7
98021.2
98018.8
98016.5
98014.4
98012.5
98010.8
98009.4
98008.2
98007.3
98006.7
98006.4
98006.5
98006.9
98007.7
98008.9
98010.5
98012.5
98014.9
98017.7
98021
98024.7
98028.8
98033.4
98038.3
98043.5
98049.2
98055.1
98061.3
98067.8
98074.5
98081.4
98088.3
98095.4
98102.5
98109.7
98116.8
98123.9
98130.9
98137.8
98144.6
98151.2
98157.5
98163.6
98169.5
98175.1
98180.4
98185.4
98190
98194.3
98198.2
98201.8
98205
98207.9
98210.5
98212.8
98214.8
98216.5
98218
98219.1
98220
98220.7
98221.2
98221.5
98221.6
98221.5
98221.2
98220.7
98219.9
98218.8
98217.4
98215.8
98213.8
98211.4
98208.7
98205.5
98201.9
98197.9
98193.4
98188.5
98183.4
98178.1
98172.7
98167.3
98162
98157.1
98152.6
98148.9
98146.1
98144.4
98144
98145
98147.6
98151.8
98157.8
98165.8
98175.5
98187.2
98200.7
98216
98233.1
98252.3
98272.9
98295.1
98318.7
98343.5
98369.3
98396.2
98423.6
98451.5
98479.1
98506.4
98532.8
98558
98581.6
98603.4
98622.1
98638
98650.4
98659.6
98664.8
98666.3
98663.1
98655.6
98643.1
98626.6
98604.9
98580.5
98551.8
98521.3
98486.6
98452.2
98414
98376.6
98120.6
98120.7
98120.6
98120.2
98119.6
98118.8
98117.9
98116.7
98115.3
98113.8
98112.1
98110.2
98108.2
98106
98103.8
98101.4
98099
98096.6
98094.1
98091.6
98089
98086.5
98083.9
98081.3
98078.7
98076.1
98073.4
98070.8
98068.1
98065.4
98062.7
98060
98057.3
98054.6
98051.8
98049.1
98046.3
98043.5
98040.7
98037.9
98035
98032.2
98029.4
98026.6
98023.9
98021.2
98018.7
98016.2
98013.8
98011.5
98009.4
98007.4
98005.6
98004.1
98002.7
98001.6
98000.8
98000.3
98000.1
98000.2
98000.7
98001.5
98002.6
98004.2
98006.1
98008.4
98011.1
98014.2
98017.6
98021.4
98025.6
98030.1
98034.9
98040
98045.3
98050.9
98056.6
98062.5
98068.5
98074.5
98080.6
98086.7
98092.7
98098.7
98104.5
98110.2
98115.8
98121.2
98126.3
98131.2
98135.9
98140.3
98144.4
98148.2
98151.6
98154.8
98157.6
98160
98162.2
98164.1
98165.7
98167
98168.1
98168.9
98169.5
98169.9
98170
98169.9
98169.7
98169.3
98168.7
98167.9
98166.9
98165.7
98164.3
98162.6
98160.6
98158.2
98155.5
98152.4
98148.9
98144.9
98140.4
98135.5
98130.1
98124.2
98118
98111.5
98104.8
98098
98091.1
98084.5
98078.2
98072.5
98067.5
98063.3
98060.3
98058.6
98058.2
98059.4
98062.2
98066.9
98073.2
98081.5
98091.4
98103.2
98116.7
98132.1
98149.1
98167.6
98187.2
98208.2
98230.2
98253
98276.7
98300.6
98324.3
98347.8
98370.4
98391.9
98412
98430.5
98446.4
98459.6
98469.8
98477.3
98481.3
98482.6
98480.1
98474.2
98464.1
98450.9
98433.2
98413.7
98390.5
98365.9
98337.4
98309.9
98278.6
98248.6
98105.9
98106.1
98106
98105.8
98105.3
98104.8
98104
98103.1
98102
98100.8
98099.4
98097.9
98096.2
98094.4
98092.6
98090.6
98088.6
98086.6
98084.5
98082.4
98080.2
98078
98075.8
98073.5
98071.2
98068.9
98066.6
98064.2
98061.8
98059.4
98056.9
98054.4
98051.9
98049.4
98046.9
98044.3
98041.7
98039
98036.4
98033.6
98030.9
98028.2
98025.4
98022.7
98020.1
98017.4
98014.9
98012.4
98009.9
98007.6
98005.4
98003.4
98001.5
97999.8
97998.3
97997
97996
97995.3
97994.8
97994.6
97994.8
97995.2
97996
97997.2
97998.6
98000.5
98002.6
98005.1
98008
98011.2
98014.7
98018.5
98022.5
98026.8
98031.4
98036.1
98041
98045.9
98051
98056.1
98061.2
98066.2
98071.2
98076.1
98080.9
98085.6
98090
98094.3
98098.3
98102.1
98105.6
98108.8
98111.7
98114.4
98116.7
98118.8
98120.5
98121.9
98123
98123.9
98124.5
98124.8
98125
98124.9
98124.6
98124.1
98123.4
98122.6
98121.6
98120.4
98119
98117.5
98115.8
98113.9
98111.8
98109.3
98106.5
98103.4
98100
98096.1
98091.8
98087
98081.7
98075.8
98069.5
98062.7
98055.5
98047.9
98040
98031.9
98023.6
98015.5
98007.5
97999.9
97993
97986.6
97981.3
97977.1
97974.1
97972.6
97972.6
97974.3
97977.7
97982.9
97989.7
97998.3
98008.6
98020.7
98034.3
98049.5
98065.6
98083.1
98101.5
98120.7
98140.7
98160.8
98180.7
98200.6
98219.3
98237
98253.5
98268.4
98281.3
98291.6
98299.2
98304.5
98306.8
98307.1
98304.6
98299.6
98291.3
98280.8
98266.6
98251.2
98232.6
98213.4
98190.7
98169.5
98144.5
98121.7
98094.5
98094.7
98094.7
98094.6
98094.3
98093.9
98093.4
98092.7
98091.9
98090.9
98089.8
98088.7
98087.4
98086
98084.5
98083
98081.4
98079.8
98078.1
98076.3
98074.5
98072.7
98070.8
98068.9
98066.9
98064.9
98062.8
98060.7
98058.5
98056.3
98054
98051.7
98049.3
98046.9
98044.4
98041.9
98039.4
98036.8
98034.2
98031.5
98028.8
98026
98023.3
98020.6
98017.9
98015.2
98012.6
98010
98007.5
98005.1
98002.8
98000.6
97998.6
97996.7
97995.1
97993.6
97992.4
97991.5
97990.8
97990.4
97990.2
97990.4
97990.9
97991.7
97992.8
97994.2
97995.9
97997.9
98000.3
98002.9
98005.8
98009
98012.4
98016.1
98019.9
98023.8
98027.9
98032.1
98036.3
98040.6
98044.8
98048.9
98053
98056.9
98060.7
98064.3
98067.8
98071
98073.9
98076.6
98079
98081.2
98083.1
98084.6
98085.9
98086.9
98087.5
98087.9
98088
98087.9
98087.5
98086.9
98086.1
98085.1
98083.9
98082.6
98081.1
98079.4
98077.6
98075.6
98073.4
98071.1
98068.6
98065.9
98063
98059.7
98056.2
98052.3
98048
98043.3
98038.2
98032.6
98026.5
98019.8
98012.6
98004.9
97996.7
97988.1
97979.2
97969.9
97960.5
97951
97941.5
97932.4
97923.6
97915.5
97908.1
97901.7
97896.6
97892.8
97890.3
97889.5
97890.3
97892.8
97897
97902.8
97910.3
97919.5
97930.1
97942.1
97955.2
97969.5
97984.5
98000.4
98016.9
98033.5
98049.9
98066.1
98081
98094.9
98107.6
98118.9
98128.5
98135.7
98140.4
98143.3
98143.5
98142.2
98138.9
98134.2
98127
98118.5
98107.1
98095.1
98080.4
98066
98048.4
98033
98013.8
97997.7
98086.1
98086.3
98086.4
98086.4
98086.2
98086
98085.7
98085.3
98084.8
98084.1
98083.4
98082.6
98081.7
98080.7
98079.7
98078.6
98077.4
98076.2
98074.9
98073.6
98072.1
98070.7
98069.1
98067.5
98065.8
98064
98062.1
98060.2
98058.2
98056.1
98053.9
98051.7
98049.4
98047
98044.6
98042.1
98039.5
98036.9
98034.2
98031.4
98028.7
98025.9
98023
98020.2
98017.4
98014.6
98011.8
98009.1
98006.5
98004
98001.5
97999.2
97997
97995
97993.2
97991.6
97990.2
97989.1
97988.2
97987.6
97987.2
97987.1
97987.3
97987.8
97988.6
97989.7
97991
97992.7
97994.6
97996.8
97999.2
98001.9
98004.8
98007.8
98011
98014.3
98017.8
98021.2
98024.7
98028.2
98031.6
98035
98038.2
98041.3
98044.2
98046.9
98049.4
98051.6
98053.6
98055.3
98056.7
98057.8
98058.7
98059.3
98059.5
98059.5
98059.2
98058.5
98057.7
98056.5
98055.2
98053.6
98051.9
98050
98047.9
98045.7
98043.3
98040.8
98038.1
98035.3
98032.3
98029.1
98025.8
98022.2
98018.4
98014.4
98010
98005.3
98000.2
97994.7
97988.7
97982.3
97975.4
97967.9
97959.9
97951.4
97942.4
97932.9
97923
97912.9
97902.4
97891.8
97881.1
97870.6
97860.4
97850.6
97841.6
97833.5
97826.4
97820.6
97816.2
97813.2
97811.8
97812.1
97814
97817.4
97822.3
97828.9
97836.8
97846.1
97856.5
97867.9
97880
97892.8
97906.1
97919.3
97932.3
97944.8
97956.1
97966.2
97975.1
97982.8
97988.8
97992.7
97994.4
97994.8
97992.7
97989.3
97984.9
97979.7
97972.9
97965.7
97956.4
97947.1
97935.7
97925.4
97912.2
97901.9
97887.9
97878.1
98080.1
98080.4
98080.6
98080.6
98080.6
98080.6
98080.5
98080.3
98080.1
98079.8
98079.5
98079.1
98078.7
98078.2
98077.6
98077
98076.3
98075.5
98074.7
98073.7
98072.7
98071.6
98070.3
98069
98067.5
98065.9
98064.2
98062.4
98060.5
98058.5
98056.4
98054.2
98051.9
98049.5
98047
98044.4
98041.7
98039
98036.2
98033.3
98030.4
98027.5
98024.5
98021.5
98018.6
98015.6
98012.7
98009.8
98007
98004.3
98001.7
97999.2
97996.9
97994.8
97992.8
97991
97989.5
97988.2
97987.1
97986.3
97985.8
97985.5
97985.5
97985.7
97986.3
97987.1
97988.1
97989.5
97991.1
97992.9
97994.9
97997.2
97999.6
98002.2
98004.9
98007.6
98010.5
98013.4
98016.2
98019
98021.8
98024.4
98026.9
98029.2
98031.3
98033.2
98034.8
98036.2
98037.3
98038.1
98038.6
98038.8
98038.7
98038.4
98037.7
98036.7
98035.4
98033.9
98032
98030
98027.7
98025.2
98022.5
98019.7
98016.8
98013.7
98010.4
98007
98003.4
97999.7
97995.8
97991.8
97987.6
97983.1
97978.5
97973.5
97968.3
97962.7
97956.8
97950.5
97943.8
97936.6
97928.8
97920.6
97911.9
97902.8
97893
97882.8
97872.2
97861.2
97849.9
97838.4
97826.7
97815.1
97803.7
97792.6
97782.3
97772.8
97764.2
97756.8
97750.6
97745.9
97742.7
97741.1
97740.9
97742.3
97745
97749.3
97754.9
97761.7
97769.6
97778.6
97788.1
97798
97808.1
97818.1
97827.8
97836.8
97844.5
97851.1
97856.2
97860.1
97862.4
97862.9
97861.6
97859.3
97854.7
97849.3
97843.1
97836.9
97830.1
97823.5
97815.6
97808.4
97799.6
97792.7
97783.3
97777.6
97768.2
97763.9
98075.8
98076
98076.3
98076.5
98076.6
98076.8
98077
98077.2
98077.4
98077.6
98077.8
98077.9
98078
98078.1
98078.1
98077.9
98077.7
98077.4
98077
98076.4
98075.7
98074.9
98074
98072.9
98071.6
98070.2
98068.6
98066.9
98065.1
98063.1
98061
98058.7
98056.4
98053.9
98051.3
98048.6
98045.8
98042.9
98040
98036.9
98033.9
98030.7
98027.6
98024.4
98021.2
98018.1
98014.9
98011.9
98008.9
98006
98003.3
98000.7
97998.2
97995.9
97993.8
97991.9
97990.2
97988.8
97987.6
97986.6
97985.9
97985.5
97985.3
97985.4
97985.7
97986.3
97987.2
97988.3
97989.6
97991.1
97992.9
97994.8
97996.9
97999
98001.3
98003.7
98006
98008.4
98010.7
98013
98015.1
98017.1
98018.9
98020.6
98022
98023.1
98024
98024.6
98024.9
98024.9
98024.6
98023.9
98023
98021.8
98020.2
98018.3
98016.2
98013.7
98011
98008
98004.9
98001.5
97997.9
97994.3
97990.4
97986.4
97982.3
97978
97973.5
97968.9
97964.2
97959.3
97954.1
97948.8
97943.2
97937.4
97931.3
97925
97918.2
97911.1
97903.6
97895.6
97887.2
97878.4
97869.1
97859.2
97848.9
97838.1
97826.9
97815.3
97803.3
97791.1
97778.6
97766.2
97753.9
97741.9
97730.5
97719.9
97710.1
97701.3
97693.8
97687.7
97682.9
97679.6
97677.7
97677.3
97678.3
97680.7
97684.2
97688.8
97694.5
97701.2
97708.3
97715.5
97722.6
97729.4
97736
97741.7
97746.1
97749.1
97750.5
97750.7
97749.2
97746.3
97741.8
97736.6
97729.7
97722
97714
97706.6
97699.2
97692.8
97685.6
97679.9
97673.2
97669
97662.7
97661
97655.6
97656.2
98072
98072.2
98072.4
98072.6
98072.9
98073.4
98074
98074.8
98075.6
98076.5
98077.4
98078.3
98079.1
98079.8
98080.3
98080.8
98081.1
98081.2
98081.2
98081
98080.6
98080.1
98079.4
98078.5
98077.4
98076.1
98074.6
98073
98071.1
98069.1
98067
98064.7
98062.3
98059.7
98057
98054.1
98051.2
98048.1
98045
98041.8
98038.5
98035.2
98031.8
98028.4
98025.1
98021.7
98018.4
98015.2
98012
98009
98006.1
98003.3
98000.7
97998.3
97996.1
97994
97992.2
97990.7
97989.4
97988.3
97987.5
97987
97986.7
97986.6
97986.8
97987.3
97988
97988.9
97990.1
97991.4
97992.9
97994.6
97996.4
97998.2
98000.2
98002.1
98004.1
98006
98007.9
98009.6
98011.3
98012.7
98014
98015
98015.8
98016.3
98016.5
98016.4
98016
98015.2
98014.2
98012.8
98011
98009
98006.6
98004
98001
97997.8
97994.2
97990.4
97986.4
97982.1
97977.7
97973.2
97968.5
97963.7
97958.6
97953.5
97948.2
97942.7
97937.1
97931.3
97925.3
97919
97912.6
97906
97899.1
97891.9
97884.4
97876.6
97868.3
97859.7
97850.7
97841.2
97831.4
97821
97810.2
97798.9
97787.3
97775.2
97762.7
97749.8
97736.9
97723.8
97710.9
97698.3
97686.2
97674.6
97663.8
97654
97645.4
97638
97631.8
97627.1
97623.8
97621.9
97621.4
97622.1
97623.8
97626.5
97630.3
97634.8
97639.7
97644.3
97648.6
97652.5
97656
97658.6
97659.8
97659.5
97657.2
97653.6
97648.5
97642.2
97634.5
97626.3
97616.9
97607.1
97597.2
97588.4
97580.1
97573.5
97566.6
97562.1
97556.8
97554.8
97551
97552.7
97550.9
97555.8
98067.2
98067.2
98067.2
98067.6
98068.3
98069.6
98071
98072.8
98074.5
98076.4
98078.1
98079.8
98081.4
98082.8
98083.9
98084.9
98085.7
98086.2
98086.6
98086.7
98086.6
98086.3
98085.8
98085.1
98084.1
98082.9
98081.5
98079.9
98078
98076
98073.8
98071.5
98068.9
98066.2
98063.4
98060.4
98057.3
98054.1
98050.8
98047.4
98043.9
98040.4
98036.9
98033.3
98029.8
98026.3
98022.8
98019.4
98016.1
98012.9
98009.9
98007
98004.3
98001.7
97999.4
97997.3
97995.4
97993.8
97992.4
97991.3
97990.4
97989.8
97989.4
97989.3
97989.4
97989.8
97990.4
97991.2
97992.2
97993.3
97994.7
97996.1
97997.7
97999.3
98000.9
98002.6
98004.2
98005.7
98007.2
98008.5
98009.7
98010.6
98011.4
98011.9
98012.1
98012
98011.6
98010.9
98009.8
98008.4
98006.7
98004.6
98002.1
97999.3
97996.2
97992.8
97989.1
97985.1
97980.8
97976.2
97971.4
97966.4
97961.2
97955.8
97950.3
97944.7
97938.9
97932.9
97926.8
97920.5
97914.1
97907.4
97900.6
97893.5
97886.3
97878.9
97871.2
97863.3
97855.1
97846.6
97837.7
97828.5
97818.9
97809
97798.6
97787.9
97776.7
97765.1
97753.1
97740.6
97727.7