/*--------------------------------*- C++ -*----------------------------------*\
| =========                 |                                                 |
| \\      /  F ield         | OpenFOAM: The Open Source CFD Toolbox           |
|  \\    /   O peration     | Version:  dev                                   |
|   \\  /    A nd           | Web:      http://www.openfoam.org               |
|    \\/     M anipulation  |                                                 |
\*---------------------------------------------------------------------------*/
FoamFile
{
    version     2.0;
    format      ascii;
    class       volScalarField;
    object      rho;
    location    "9.122";
}
// * * * * * * * * * * * * * * * * * * * * * * * * * * * * * * * * * * * * * //

dimensions      [1 -3 0 0 0 0 0];

internalField   nonuniform List<scalar> 
12225
(
1.26031
1.2545
1.25342
1.25248
1.25102
1.24978
1.24767
1.24682
1.24388
1.24417
1.24041
1.24227
1.23798
1.23982
1.23957
1.23194
1.24879
1.23481
1.25582
1.25062
1.25213
1.25236
1.25283
1.25195
1.2512
1.25085
1.24817
1.24972
1.24518
1.24887
1.24347
1.24626
1.2454
1.24042
1.2519
1.24656
1.25508
1.24963
1.25223
1.25145
1.2538
1.25119
1.25327
1.25035
1.25183
1.24886
1.25022
1.24741
1.24821
1.24665
1.2464
1.24756
1.24557
1.24986
1.25571
1.24642
1.25321
1.24787
1.25437
1.24739
1.25297
1.24613
1.25139
1.24432
1.24953
1.24348
1.2476
1.243
1.24713
1.24445
1.24299
1.24407
1.25717
1.24335
1.25262
1.24528
1.25231
1.24552
1.25019
1.24473
1.24824
1.24332
1.24618
1.24297
1.24481
1.24301
1.24466
1.24441
1.24403
1.24543
1.2559
1.24225
1.25105
1.24421
1.25061
1.24418
1.24855
1.24326
1.24659
1.2415
1.24486
1.2408
1.24367
1.24076
1.24252
1.24138
1.2432
1.2428
1.2531
1.24114
1.24878
1.24268
1.24839
1.24258
1.24636
1.24199
1.24408
1.24021
1.24251
1.23916
1.24116
1.23937
1.24071
1.23939
1.2411
1.24072
1.25102
1.23832
1.24626
1.23965
1.24597
1.23975
1.24429
1.23923
1.24223
1.23756
1.24063
1.23643
1.23918
1.23664
1.23846
1.23681
1.23778
1.23681
1.24801
1.23624
1.24303
1.23767
1.24286
1.23779
1.24129
1.23718
1.23891
1.23552
1.23691
1.23415
1.23547
1.23387
1.234
1.23354
1.23303
1.23338
1.24433
1.23328
1.23901
1.23431
1.23866
1.23407
1.23688
1.23288
1.23412
1.23106
1.23175
1.22937
1.23009
1.2286
1.22834
1.22801
1.22707
1.22744
1.23862
1.22955
1.2335
1.23003
1.23248
1.22931
1.23058
1.22771
1.22767
1.22569
1.22486
1.2235
1.22316
1.22213
1.22147
1.2212
1.22048
1.22089
1.23177
1.22398
1.22596
1.22377
1.22443
1.22227
1.22223
1.22002
1.21942
1.21785
1.21656
1.21574
1.21498
1.21395
1.21342
1.21278
1.21216
1.21208
1.22406
1.21699
1.21704
1.21575
1.21505
1.21363
1.21256
1.21091
1.20979
1.20834
1.20694
1.2062
1.20504
1.20404
1.20337
1.20257
1.20205
1.20176
1.21418
1.20714
1.20638
1.20525
1.20401
1.20254
1.20111
1.19965
1.19831
1.19688
1.19559
1.19476
1.19342
1.19251
1.19169
1.19084
1.19024
1.18959
1.20193
1.19487
1.19351
1.19229
1.19084
1.18934
1.18777
1.18641
1.18492
1.18352
1.18231
1.18131
1.17996
1.17914
1.17822
1.17734
1.17669
1.17585
1.1875
1.18029
1.17845
1.17697
1.17539
1.17387
1.17244
1.17117
1.16983
1.16866
1.16769
1.16662
1.16558
1.16487
1.16393
1.16312
1.16237
1.16159
1.16974
1.16273
1.16095
1.15961
1.15821
1.15695
1.15593
1.15492
1.15397
1.15328
1.15261
1.15173
1.15113
1.15062
1.14985
1.14915
1.14851
1.14795
1.15092
1.14473
1.14328
1.14236
1.14156
1.14093
1.14056
1.14
1.13971
1.1395
1.13932
1.13907
1.13913
1.13915
1.13901
1.1386
1.13851
1.13834
1.13479
1.12953
1.12854
1.12821
1.12816
1.12818
1.12859
1.12885
1.12945
1.12981
1.13043
1.13088
1.13146
1.13205
1.13253
1.13269
1.13318
1.13337
1.12159
1.11727
1.11697
1.11748
1.11825
1.1189
1.12003
1.12104
1.12239
1.12353
1.12487
1.12585
1.12701
1.12812
1.1293
1.13021
1.13109
1.13183
1.11132
1.10784
1.10808
1.10935
1.11088
1.11227
1.11403
1.11563
1.11762
1.11937
1.12114
1.12274
1.12437
1.12593
1.12766
1.12895
1.13033
1.13155
1.10324
1.10071
1.10168
1.10363
1.10559
1.10746
1.10973
1.11191
1.1143
1.11655
1.11882
1.12079
1.12291
1.12488
1.12675
1.12852
1.1302
1.13175
1.09734
1.09518
1.09667
1.09915
1.10153
1.10393
1.10659
1.10921
1.11202
1.11473
1.11741
1.11988
1.12238
1.12454
1.12676
1.12876
1.13071
1.13246
1.09282
1.09111
1.09295
1.09578
1.0986
1.10141
1.10426
1.10716
1.11016
1.11309
1.11611
1.11879
1.12144
1.12385
1.12622
1.12838
1.13052
1.13241
1.08935
1.08831
1.09053
1.09364
1.09673
1.09976
1.10287
1.10603
1.10921
1.11227
1.1153
1.11813
1.12095
1.12349
1.12601
1.12829
1.13049
1.13261
1.08707
1.08648
1.08887
1.09205
1.09527
1.09843
1.10173
1.105
1.10835
1.11159
1.11482
1.11786
1.12078
1.12351
1.12611
1.12851
1.13084
1.13308
1.0855
1.08488
1.08747
1.09082
1.09424
1.09757
1.10106
1.10444
1.10796
1.11136
1.11483
1.11816
1.12143
1.1245
1.12749
1.13026
1.13299
1.13558
1.08473
1.08422
1.08669
1.0901
1.09368
1.09724
1.10096
1.10458
1.10836
1.11203
1.11585
1.11947
1.12309
1.12637
1.12969
1.13263
1.1356
1.13814
1.08466
1.0843
1.08658
1.08991
1.09351
1.09713
1.10082
1.1044
1.10799
1.11149
1.11496
1.11816
1.12124
1.12398
1.12672
1.12893
1.13131
1.13285
1.08463
1.08462
1.08574
1.08778
1.09013
1.09255
1.09498
1.09737
1.09975
1.1021
1.10441
1.10659
1.10872
1.11068
1.11255
1.1142
1.11573
1.11721
1.20194
1.26009
1.26604
1.25968
1.25973
1.25462
1.24629
1.23834
1.23257
1.228
1.22582
1.22446
1.22279
1.22219
1.22087
1.21961
1.2182
1.2168
1.21553
1.21415
1.21375
1.21314
1.21263
1.21219
1.21121
1.21105
1.21102
1.21103
1.21176
1.21222
1.21297
1.21412
1.21537
1.21739
1.22148
1.22326
1.21528
1.20293
1.19969
1.20488
1.21044
1.21444
1.21853
1.2239
1.22694
1.22644
1.22506
1.22555
1.22545
1.22702
1.23772
1.23483
1.23812
1.24552
1.24883
1.24461
1.23454
1.23248
1.23353
1.21164
1.18703
1.19319
1.21214
1.22405
1.23182
1.23775
1.24275
1.2471
1.25098
1.25456
1.25799
1.26139
1.26488
1.26846
1.27203
1.27581
1.27967
1.2836
1.28751
1.29152
1.29579
1.30001
1.30446
1.30915
1.31424
1.31884
1.32369
1.32885
1.33402
1.33923
1.34445
1.34932
1.35511
1.36042
1.36462
1.37018
1.37419
1.37842
1.38176
1.38457
1.38627
1.38638
1.38698
1.38691
1.38668
1.38656
1.38461
1.38096
1.37463
1.36807
1.3612
1.35312
1.34626
1.34025
1.336
1.33101
1.32279
1.31548
1.31041
1.30239
1.28966
1.27527
1.26198
1.24934
1.23837
1.2287
1.21927
1.21263
1.209
1.20588
1.20186
1.19803
1.19196
1.19018
1.18372
1.18401
1.17466
1.1669
1.17158
1.15615
1.16078
1.16036
1.15863
1.15475
1.15355
1.15117
1.14862
1.1462
1.14476
1.14454
1.1453
1.14722
1.14911
1.15182
1.15373
1.1563
1.1587
1.16193
1.16309
1.16803
1.17429
1.18108
1.19431
1.20317
1.22259
1.23094
1.24108
1.26303
1.27122
1.28271
1.27803
1.29344
1.28099
1.26923
1.28046
1.30942
1.32631
1.31816
1.3045
1.29509
1.19211
1.25727
1.29786
1.31186
1.30496
1.27632
1.24096
1.21212
1.19435
1.18234
1.17646
1.17472
1.17288
1.17331
1.17289
1.17301
1.17252
1.17286
1.17261
1.17177
1.1737
1.17293
1.17513
1.17673
1.17504
1.17849
1.17803
1.17912
1.18257
1.1818
1.1867
1.18811
1.18964
1.19693
1.1965
1.2064
1.21603
1.21799
1.23826
1.23922
1.24117
1.27314
1.27552
1.26252
1.26308
1.26008
1.25561
1.26308
1.26944
1.26541
1.27043
1.25631
1.25078
1.26534
1.27582
1.25391
1.23102
1.23315
1.24425
1.25247
1.26086
1.27037
1.27687
1.27989
1.28258
1.28317
1.28414
1.28452
1.28496
1.28547
1.28638
1.28756
1.28935
1.29161
1.29394
1.29703
1.30076
1.3047
1.30909
1.3131
1.31799
1.32316
1.32897
1.33343
1.34094
1.34776
1.35263
1.35987
1.36727
1.37426
1.38147
1.38851
1.39434
1.40758
1.41503
1.42278
1.43507
1.44176
1.45361
1.45987
1.46812
1.47371
1.47818
1.48061
1.48233
1.48349
1.48195
1.47738
1.46694
1.45483
1.44311
1.43044
1.42198
1.41943
1.42293
1.42468
1.4129
1.40225
1.39956
1.39093
1.36798
1.32566
1.27534
1.24456
1.23475
1.221
1.20763
1.20736
1.20935
1.20994
1.20947
1.20951
1.20384
1.20865
1.19429
1.20084
1.18548
1.14547
1.18377
1.13142
1.13723
1.14696
1.16224
1.15742
1.15986
1.16003
1.15309
1.14174
1.1327
1.12718
1.12656
1.1337
1.1477
1.1662
1.18492
1.19896
1.20596
1.21273
1.21494
1.22655
1.24471
1.26077
1.28125
1.29425
1.27906
1.31613
1.36328
1.3861
1.4091
1.44781
1.45896
1.49151
1.46564
1.4007
1.41311
1.48256
1.55592
1.55825
1.49071
1.40934
1.18352
1.2387
1.29142
1.3157
1.29723
1.24925
1.20234
1.17078
1.15383
1.14529
1.14156
1.1409
1.14167
1.14339
1.14551
1.14824
1.1512
1.15512
1.15797
1.1616
1.16548
1.16642
1.17057
1.17309
1.17334
1.17761
1.17946
1.17855
1.18418
1.18241
1.18253
1.18554
1.1818
1.18536
1.18156
1.18229
1.18508
1.18585
1.2004
1.2114
1.22815
1.23321
1.24576
1.28416
1.28362
1.25901
1.23898
1.24325
1.23018
1.22607
1.22618
1.22804
1.23573
1.24492
1.24673
1.24998
1.25415
1.26064
1.2624
1.26199
1.26196
1.25567
1.25151
1.24598
1.23944
1.23531
1.23062
1.22688
1.22431
1.22135
1.22006
1.21893
1.21834
1.21893
1.21923
1.22038
1.22267
1.22439
1.22771
1.2297
1.23366
1.23614
1.24043
1.24268
1.24741
1.25405
1.25706
1.26142
1.2667
1.27177
1.2785
1.28509
1.28551
1.2973
1.30714
1.31166
1.32862
1.33426
1.35357
1.36487
1.37971
1.39682
1.41211
1.42366
1.43304
1.44192
1.45176
1.45774
1.46253
1.46146
1.45329
1.43968
1.42791
1.42326
1.42659
1.44129
1.45923
1.43408
1.38077
1.38828
1.42168
1.39444
1.33214
1.27188
1.22701
1.21561
1.21643
1.21626
1.21659
1.21426
1.21954
1.2184
1.21216
1.21133
1.22134
1.16655
1.26863
1.1616
1.19213
1.10816
1.09279
1.10441
1.12854
1.12907
1.14119
1.16877
1.18456
1.1568
1.10043
1.05552
1.03861
1.03444
1.04681
1.07301
1.11727
1.16658
1.2065
1.22262
1.23375
1.24765
1.26515
1.28681
1.2968
1.32145
1.21624
1.24853
1.32429
1.28757
1.3133
1.35825
1.44526
1.45049
1.48707
1.45769
1.49327
1.54463
1.60601
1.65158
1.641
1.53336
1.17765
1.21769
1.25942
1.27512
1.25102
1.21135
1.18124
1.16355
1.15466
1.15054
1.15007
1.15121
1.15361
1.15666
1.16086
1.16524
1.17053
1.1752
1.17763
1.18154
1.18333
1.18527
1.18792
1.19024
1.19007
1.19276
1.19386
1.19403
1.19943
1.19753
1.19852
1.20462
1.20125
1.20665
1.20577
1.20084
1.20017
1.19343
1.19114
1.19553
1.20889
1.21632
1.22749
1.24428
1.26368
1.26753
1.25531
1.26577
1.2325
1.22307
1.23975
1.25616
1.24967
1.25539
1.25533
1.25612
1.25376
1.24835
1.24355
1.23645
1.22736
1.22329
1.21697
1.21212
1.21021
1.20738
1.20552
1.20579
1.20435
1.20535
1.20528
1.20642
1.20772
1.20875
1.21082
1.21152
1.21472
1.21568
1.21803
1.21908
1.22318
1.22371
1.2263
1.22945
1.23058
1.23365
1.23708
1.2388
1.24164
1.24225
1.24581
1.24907
1.25147
1.25126
1.25534
1.25583
1.26163
1.26385
1.27032
1.2787
1.2857
1.29516
1.30736
1.31854
1.32832
1.33223
1.34334
1.3559
1.38256
1.41749
1.43668
1.43273
1.41438
1.40642
1.41093
1.404
1.4238
1.44577
1.39824
1.32198
1.3179
1.34737
1.33198
1.30094
1.27932
1.27238
1.26819
1.26785
1.27377
1.26334
1.24577
1.22999
1.20424
1.15981
1.24489
1.1039
1.27236
1.24207
1.24773
1.15021
1.10081
1.10133
1.09782
1.08537
1.07074
1.08918
1.13963
1.1914
1.17874
1.12095
1.0812
1.05635
1.02948
1.00635
1.02443
1.08259
1.16075
1.21073
1.23668
1.25215
1.26865
1.27382
1.26318
1.30571
1.21458
1.22614
1.27024
1.20035
1.20462
1.22576
1.34772
1.26735
1.32418
1.4145
1.51944
1.58521
1.61509
1.63375
1.65473
1.61987
1.17403
1.19812
1.21956
1.22184
1.20166
1.17714
1.15935
1.14746
1.14013
1.1361
1.13544
1.13771
1.14132
1.14634
1.15176
1.15732
1.16189
1.16572
1.16806
1.16991
1.17299
1.175
1.17724
1.17794
1.18135
1.18357
1.17865
1.18689
1.18449
1.18413
1.18909
1.18677
1.18701
1.1922
1.19387
1.19725
1.19853
1.1996
1.19949
1.19379
1.19603
1.20631
1.22015
1.21156
1.23512
1.24923
1.24317
1.25707
1.24058
1.24536
1.24762
1.25019
1.24858
1.24739
1.24244
1.23502
1.22758
1.2227
1.21441
1.21016
1.20755
1.2054
1.20161
1.203
1.2001
1.19945
1.19967
1.19813
1.19857
1.19848
1.19851
1.19914
1.20085
1.20179
1.20437
1.20468
1.20674
1.2099
1.21319
1.21438
1.21843
1.21894
1.22244
1.22527
1.2286
1.2309
1.23502
1.23728
1.24152
1.24428
1.2484
1.24929
1.25245
1.25465
1.25427
1.25666
1.25443
1.25712
1.25712
1.25822
1.26113
1.26351
1.26923
1.27266
1.28015
1.28665
1.29558
1.29726
1.29177
1.29916
1.31768
1.35506
1.40448
1.41912
1.41834
1.39768
1.37712
1.38679
1.39853
1.34952
1.28329
1.2703
1.27383
1.27844
1.27347
1.25811
1.2442
1.24185
1.26042
1.26133
1.24725
1.22856
1.22985
1.17253
1.18974
1.15522
1.19265
1.21649
1.23223
1.16813
1.13165
1.10907
1.1095
1.1306
1.12969
1.11706
1.09666
1.11774
1.13927
1.11683
1.10129
1.13142
1.16206
1.12913
1.06525
1.04957
1.11451
1.18386
1.23254
1.24897
1.26413
1.26259
1.24021
1.28561
1.23319
1.23652
1.25834
1.21144
1.17463
1.19559
1.30987
1.16355
1.13714
1.30925
1.49769
1.5963
1.63515
1.65194
1.63866
1.64243
1.17322
1.18524
1.19044
1.1822
1.16491
1.14996
1.13999
1.13432
1.13383
1.13776
1.14481
1.15207
1.15838
1.16376
1.16792
1.17181
1.1748
1.17798
1.18295
1.18795
1.19108
1.19736
1.20102
1.19896
1.20509
1.20448
1.19928
1.2056
1.20107
1.20329
1.20122
1.20179
1.20278
1.19769
1.20199
1.20581
1.19893
1.19548
1.19886
1.20514
1.20546
1.2002
1.21135
1.21229
1.23801
1.23658
1.23516
1.25294
1.23823
1.23611
1.2425
1.24104
1.2345
1.22937
1.21804
1.21526
1.20976
1.20573
1.20554
1.2047
1.20209
1.19872
1.19664
1.19253
1.18845
1.18667
1.18349
1.18294
1.18357
1.18285
1.18523
1.1852
1.18806
1.19004
1.19341
1.19703
1.19786
1.19999
1.20334
1.20593
1.20561
1.20793
1.20921
1.21054
1.21294
1.21371
1.21714
1.22022
1.22411
1.22861
1.23317
1.2389
1.24178
1.24759
1.2486
1.25158
1.2502
1.24978
1.25007
1.24756
1.24772
1.24396
1.24497
1.24668
1.24859
1.25097
1.25542
1.26572
1.26777
1.26301
1.28466
1.29038
1.29148
1.31234
1.34389
1.38589
1.40456
1.39393
1.38457
1.35934
1.32217
1.28537
1.24632
1.25636
1.26833
1.25167
1.26384
1.28977
1.32053
1.29853
1.29898
1.22864
1.23832
1.24224
1.19015
1.1928
1.16572
1.15737
1.15665
1.14033
1.16937
1.1298
1.10424
1.11382
1.15813
1.19107
1.17161
1.13844
1.13456
1.1207
1.08108
1.08957
1.16868
1.19879
1.13259
1.06056
1.09725
1.16456
1.22967
1.24814
1.25904
1.2591
1.23043
1.27602
1.22936
1.22758
1.26049
1.24687
1.15836
1.20561
1.29649
1.211
1.0597
1.19915
1.44848
1.59103
1.62969
1.6704
1.62542
1.64529
1.1748
1.17855
1.17423
1.16163
1.14969
1.14306
1.14016
1.14109
1.14714
1.15455
1.16079
1.16398
1.16657
1.16957
1.17325
1.17897
1.18659
1.19565
1.20438
1.21291
1.21849
1.2215
1.22023
1.21807
1.21362
1.20618
1.20435
1.20228
1.20051
1.19958
1.1971
1.20307
1.20118
1.2001
1.20307
1.20369
1.20375
1.2059
1.2013
1.1987
1.20271
1.21316
1.22658
1.22607
1.23437
1.2258
1.24296
1.25878
1.23964
1.23764
1.23684
1.2318
1.21921
1.21198
1.20778
1.20418
1.20287
1.20299
1.19958
1.19306
1.18809
1.18208
1.17841
1.17317
1.17303
1.1709
1.17208
1.17273
1.17429
1.17689
1.17984
1.18397
1.18847
1.19287
1.19605
1.20112
1.20548
1.21026
1.21028
1.21471
1.21174
1.21381
1.2143
1.21175
1.21211
1.20984
1.2084
1.20725
1.20746
1.21205
1.21535
1.22169
1.22821
1.23403
1.24025
1.24561
1.24848
1.24734
1.25201
1.24837
1.24739
1.24358
1.24051
1.23672
1.24018
1.23931
1.23546
1.23449
1.25024
1.24046
1.23784
1.25302
1.25914
1.25355
1.25676
1.29367
1.33239
1.36468
1.38108
1.37678
1.3895
1.36162
1.30782
1.30021
1.31204
1.29673
1.29336
1.29377
1.31857
1.27815
1.28259
1.22145
1.23179
1.19912
1.21995
1.20829
1.1677
1.18265
1.16438
1.13446
1.17141
1.1513
1.15739
1.14257
1.14998
1.13669
1.11823
1.09156
1.09954
1.11739
1.08496
1.05562
1.12849
1.194
1.15828
1.05973
1.07697
1.14381
1.21578
1.23919
1.25022
1.25716
1.22241
1.27656
1.22199
1.20538
1.26104
1.2691
1.16051
1.2173
1.27378
1.35135
1.15199
1.13823
1.38922
1.57956
1.60996
1.65931
1.59514
1.64678
1.17832
1.17672
1.16802
1.15738
1.15181
1.14917
1.14741
1.151
1.15859
1.16398
1.16711
1.17136
1.1787
1.18859
1.20114
1.21591
1.22981
1.2426
1.25024
1.25169
1.24807
1.23636
1.22209
1.20754
1.19419
1.19004
1.18754
1.18587
1.18969
1.19041
1.19639
1.20582
1.2029
1.19803
1.21075
1.22032
1.20562
1.18853
1.18829
1.21066
1.22745
1.22852
1.22317
1.22246
1.22982
1.23559
1.25492
1.25465
1.2358
1.23418
1.23015
1.21634
1.20743
1.2017
1.19808
1.20009
1.19731
1.18979
1.1831
1.17681
1.17263
1.16844
1.16757
1.16673
1.16795
1.16668
1.16909
1.16956
1.17246
1.17497
1.17774
1.18226
1.18691
1.19475
1.20218
1.20931
1.21141
1.22147
1.22514
1.22904
1.22735
1.23039
1.23135
1.22789
1.22713
1.22448
1.22233
1.2161
1.20889
1.20859
1.20727
1.20935
1.21658
1.22
1.22543
1.23342
1.24009
1.23702
1.24265
1.24289
1.2422
1.23307
1.23444
1.22853
1.2289
1.22213
1.22629
1.21801
1.22418
1.23005
1.22281
1.22661
1.2384
1.2426
1.23418
1.23824
1.24934
1.2778
1.31141
1.31504
1.35356
1.36462
1.34115
1.34227
1.36118
1.32405
1.32697
1.32115
1.30477
1.25533
1.27052
1.23816
1.24616
1.18505
1.1822
1.21457
1.15196
1.14055
1.15018
1.14321
1.16404
1.1066
1.12858
1.11284
1.14413
1.13563
1.13409
1.09827
1.09626
1.11866
1.11041
1.05601
1.11036
1.18495
1.17335
1.06314
1.05658
1.1227
1.20626
1.24096
1.24825
1.26024
1.21383
1.27382
1.21843
1.18086
1.25278
1.27142
1.18234
1.22418
1.25771
1.40386
1.27372
1.12845
1.33688
1.54574
1.59435
1.63244
1.57306
1.63939
1.18353
1.17918
1.16995
1.16255
1.15787
1.15347
1.15386
1.16113
1.16905
1.17564
1.18409
1.19662
1.21143
1.22931
1.24814
1.26327
1.27239
1.27295
1.26543
1.24902
1.22667
1.203
1.1838
1.17547
1.17708
1.18114
1.18601
1.19417
1.20053
1.20096
1.20182
1.20651
1.20405
1.19774
1.20012
1.2015
1.20641
1.21215
1.21666
1.2204
1.21808
1.22148
1.22891
1.24098
1.24889
1.25691
1.26238
1.24473
1.23083
1.22664
1.22124
1.20836
1.19708
1.19617
1.19714
1.19338
1.18506
1.17856
1.17177
1.16676
1.16403
1.16235
1.16181
1.16006
1.15794
1.15767
1.15803
1.1584
1.15994
1.16146
1.16645
1.17289
1.18055
1.18834
1.19589
1.20886
1.21083
1.21955
1.22507
1.23341
1.22841
1.23386
1.23567
1.23549
1.23028
1.23029
1.23246
1.23232
1.22202
1.21961
1.21822
1.21048
1.21976
1.22431
1.21918
1.22909
1.23934
1.233
1.23574
1.24009
1.23954
1.23417
1.23637
1.22874
1.23039
1.22231
1.21565
1.21462
1.21087
1.20623
1.20753
1.20868
1.21031
1.21723
1.21363
1.22566
1.22371
1.22755
1.24818
1.2417
1.276
1.28487
1.28639
1.28178
1.31349
1.27668
1.28309
1.27919
1.30225
1.22354
1.21316
1.2203
1.23523
1.17531
1.15258
1.18666
1.16685
1.172
1.17014
1.1497
1.16635
1.10505
1.13161
1.10139
1.12701
1.10802
1.11848
1.09939
1.12757
1.15061
1.15545
1.06864
1.0717
1.14192
1.16013
1.06212
1.03716
1.09992
1.18939
1.23751
1.24279
1.26534
1.20925
1.26809
1.22486
1.17446
1.24235
1.25325
1.18966
1.25093
1.26017
1.29978
1.27659
1.14225
1.29641
1.52224
1.58027
1.58655
1.58731
1.65511
1.18978
1.18387
1.17468
1.16751
1.16091
1.15867
1.16433
1.17472
1.18664
1.19904
1.21328
1.23264
1.25409
1.27631
1.29058
1.29321
1.28666
1.2726
1.2548
1.23486
1.21602
1.20421
1.20168
1.2039
1.20813
1.21542
1.21808
1.21369
1.20856
1.19999
1.19469
1.2057
1.22041
1.22995
1.22812
1.21936
1.2059
1.19119
1.18808
1.20194
1.22367
1.24832
1.26163
1.26891
1.26783
1.26578
1.25956
1.23897
1.22982
1.2274
1.21315
1.19719
1.19165
1.19252
1.18939
1.18485
1.17448
1.1666
1.16016
1.15862
1.15601
1.1533
1.15
1.14875
1.14837
1.15118
1.15173
1.15352
1.15663
1.16065
1.16629
1.17282
1.18175
1.1926
1.20005
1.21413
1.21702
1.22179
1.22346
1.23647
1.23157
1.23351
1.23433
1.24026
1.23031
1.22698
1.22459
1.23074
1.2235
1.21727
1.22599
1.21412
1.21575
1.23258
1.21867
1.22178
1.23513
1.22961
1.22099
1.23
1.22533
1.22196
1.22305
1.22409
1.219
1.22013
1.21892
1.20761
1.21016
1.20321
1.19922
1.20127
1.18982
1.20464
1.19164
1.20503
1.20771
1.19331
1.22622
1.21142
1.21458
1.22993
1.2506
1.22641
1.24133
1.22799
1.23444
1.19162
1.23857
1.21883
1.20574
1.18133
1.18789
1.17676
1.19376
1.1831
1.1451
1.15896
1.16488
1.14273
1.15634
1.12415
1.1727
1.13245
1.14247
1.13244
1.13187
1.10574
1.1338
1.15739
1.17799
1.10179
1.06385
1.11426
1.16565
1.09089
1.0341
1.08405
1.17501
1.23211
1.23475
1.26716
1.20324
1.25804
1.22973
1.18004
1.2342
1.23784
1.18598
1.28097
1.24868
1.21151
1.25739
1.16848
1.29157
1.47978
1.56937
1.54579
1.57349
1.68129
1.19656
1.18958
1.18042
1.17363
1.16779
1.16975
1.1812
1.19739
1.21272
1.22777
1.24903
1.27485
1.29666
1.30628
1.29904
1.28664
1.27483
1.26322
1.25173
1.24188
1.23571
1.22909
1.21867
1.21011
1.20994
1.21537
1.21798
1.21687
1.21662
1.21576
1.21173
1.20543
1.19841
1.1954
1.18866
1.18538
1.18424
1.19586
1.21445
1.24045
1.25816
1.27076
1.2755
1.2729
1.26649
1.25868
1.24618
1.23525
1.22928
1.21982
1.2026
1.18937
1.18655
1.18968
1.1837
1.17359
1.16185
1.15863
1.15441
1.15181
1.14625
1.14421
1.14389
1.14612
1.14771
1.14977
1.15072
1.15229
1.15332
1.156
1.16218
1.17294
1.1865
1.19693
1.1986
1.20664
1.21173
1.21346
1.20924
1.21753
1.2191
1.21971
1.22182
1.22669
1.22499
1.22667
1.22355
1.22574
1.22422
1.21084
1.22472
1.22471
1.21192
1.23188
1.22344
1.21758
1.23426
1.22712
1.21627
1.22731
1.22188
1.2154
1.21544
1.21292
1.21693
1.20924
1.2099
1.20449
1.20335
1.20336
1.19667
1.19952
1.18405
1.20068
1.17937
1.18165
1.19824
1.17777
1.19707
1.19874
1.18904
1.2021
1.21574
1.19394
1.20203
1.21813
1.21194
1.17107
1.19572
1.19039
1.18884
1.18921
1.17856
1.16371
1.18808
1.18128
1.17308
1.17857
1.15861
1.14545
1.15248
1.13332
1.17113
1.10976
1.13799
1.16435
1.16624
1.15375
1.14054
1.1514
1.18669
1.13866
1.07793
1.10237
1.16255
1.11814
1.04383
1.06909
1.1557
1.22077
1.22636
1.27081
1.20194
1.24632
1.23037
1.19091
1.22498
1.23365
1.1966
1.27069
1.24043
1.1941
1.25316
1.22476
1.3044
1.47168
1.5408
1.50019
1.59239
1.70106
1.20376
1.1967
1.18869
1.18217
1.17558
1.18201
1.2016
1.21948
1.23354
1.25309
1.27993
1.30181
1.30681
1.29302
1.27896
1.27826
1.28031
1.28282
1.28475
1.2827
1.27144
1.25622
1.24665
1.24715
1.2505
1.24943
1.24025
1.22979
1.22316
1.21873
1.21435
1.21311
1.21543
1.22117
1.22896
1.24071
1.24958
1.25867
1.26085
1.26493
1.26184
1.26252
1.26452
1.25603
1.25229
1.24927
1.23708
1.22854
1.2226
1.20582
1.18869
1.18312
1.18616
1.18398
1.17356
1.16425
1.15547
1.15124
1.14616
1.14309
1.14048
1.1413
1.14204
1.14376
1.14632
1.14669
1.14486
1.14403
1.14692
1.156
1.16758
1.17817
1.1955
1.21013
1.20809
1.20579
1.20426
1.2007
1.19587
1.19609
1.19473
1.193
1.1989
1.19537
1.19311
1.19646
1.20576
1.20588
1.21393
1.20393
1.20687
1.22021
1.20539
1.21579
1.21631
1.19982
1.21948
1.2122
1.19781
1.21099
1.20965
1.19473
1.20756
1.2052
1.20309
1.20557
1.20043
1.19917
1.1976
1.19751
1.19338
1.1981
1.18408
1.19468
1.19041
1.1801
1.18405
1.17716
1.18065
1.18422
1.17113
1.1816
1.19538
1.18684
1.17367
1.1893
1.19156
1.18676
1.18976
1.16633
1.17136
1.17888
1.17949
1.17713
1.17529
1.1599
1.18129
1.19196
1.16024
1.15522
1.15405
1.14757
1.16657
1.12063
1.16649
1.15804
1.14853
1.1777
1.13832
1.14052
1.17882
1.17595
1.10951
1.09884
1.16633
1.14557
1.06707
1.06239
1.14084
1.2246
1.23678
1.28236
1.20296
1.22973
1.22461
1.19923
1.21915
1.23169
1.21581
1.24915
1.23425
1.20297
1.23386
1.29612
1.3686
1.49082
1.51447
1.49652
1.58678
1.66575
1.21119
1.20486
1.19781
1.19092
1.1872
1.19618
1.20852
1.22276
1.24836
1.28142
1.3067
1.30452
1.28452
1.27602
1.2917
1.31099
1.31846
1.3218
1.31539
1.30553
1.29864
1.29999
1.30111
1.30327
1.30237
1.30057
1.29287
1.28366
1.27949
1.28241
1.28519
1.2847
1.27986
1.27032
1.265
1.2659
1.26556
1.26075
1.25664
1.25652
1.25095
1.25076
1.25273
1.24438
1.24174
1.23793
1.2318
1.22221
1.21041
1.19449
1.18597
1.1826
1.18383
1.178
1.16608
1.15447
1.14764
1.14486
1.14161
1.13904
1.13788
1.14031
1.14317
1.14379
1.14308
1.14156
1.1406
1.14133
1.14472
1.15772
1.1791
1.1916
1.2032
1.21388
1.20651
1.20127
1.19503
1.18547
1.1766
1.18065
1.17777
1.1744
1.18201
1.18491
1.17878
1.17391
1.17878
1.18248
1.18507
1.19078
1.19341
1.20458
1.19584
1.19875
1.20672
1.19239
1.20681
1.20856
1.18672
1.20108
1.20303
1.18411
1.19708
1.19861
1.18656
1.1957
1.19555
1.18845
1.19381
1.2001
1.18453
1.18992
1.19342
1.18286
1.18638
1.18902
1.18486
1.17706
1.18041
1.18746
1.16705
1.16997
1.17962
1.1802
1.16476
1.17615
1.1719
1.17493
1.18204
1.17209
1.17335
1.16693
1.16115
1.17671
1.1835
1.17995
1.17607
1.16163
1.15815
1.17156
1.1629
1.15549
1.16344
1.15459
1.19892
1.14432
1.15554
1.19237
1.14239
1.13947
1.16658
1.19612
1.15493
1.10471
1.17044
1.17557
1.09749
1.06946
1.1334
1.21774
1.22316
1.27005
1.20227
1.21606
1.21733
1.20396
1.22156
1.23283
1.23021
1.23994
1.22321
1.22085
1.22597
1.36398
1.45121
1.50696
1.48357
1.49523
1.60112
1.65569
1.21806
1.21178
1.2044
1.19932
1.20308
1.21325
1.22224
1.24217
1.26772
1.28949
1.29679
1.28243
1.27888
1.29543
1.30625
1.29225
1.27771
1.27635
1.27867
1.28703
1.29318
1.29641
1.29713
1.30204
1.30275
1.3013
1.29063
1.27354
1.25727
1.25266
1.25551
1.25882
1.259
1.24951
1.23886
1.23825
1.24566
1.24548
1.24558
1.25207
1.24462
1.24392
1.24345
1.24255
1.23934
1.23039
1.22321
1.21376
1.20083
1.18747
1.1821
1.18159
1.17882
1.16796
1.15785
1.14877
1.14417
1.14069
1.13744
1.1369
1.13765
1.13908
1.14035
1.14106
1.13952
1.1376
1.13617
1.13703
1.13903
1.15294
1.18077
1.19695
1.20386
1.20633
1.19187
1.18462
1.1774
1.16924
1.15495
1.15824
1.15302
1.15204
1.15196
1.15893
1.16104
1.1652
1.16644
1.16856
1.16423
1.16578
1.17093
1.17741
1.1751
1.17611
1.18405
1.17778
1.18637
1.19316
1.17392
1.18625
1.1979
1.17349
1.18538
1.19381
1.17689
1.18287
1.1928
1.18162
1.18182
1.20046
1.18214
1.18055
1.19989
1.18505
1.18098
1.1907
1.18761
1.17406
1.18141
1.18748
1.17678
1.17261
1.17745
1.17804
1.17113
1.17333
1.166
1.17832
1.17168
1.17211
1.17137
1.17221
1.17253
1.17661
1.1738
1.18633
1.18311
1.17226
1.16522
1.16983
1.17095
1.16328
1.17499
1.17068
1.18426
1.14164
1.17956
1.17167
1.16632
1.17898
1.18521
1.22716
1.20573
1.13681
1.18234
1.2029
1.1382
1.08001
1.12833
1.20941
1.22155
1.27471
1.21538
1.20727
1.2099
1.20732
1.22629
1.23653
1.2443
1.23433
1.21488
1.24199
1.24406
1.38049
1.46784
1.48417
1.45437
1.5027
1.62853
1.64426
1.22463
1.21931
1.21355
1.21022
1.21489
1.2274
1.24646
1.27513
1.28805
1.28476
1.2857
1.28949
1.2832
1.27319
1.26446
1.25552
1.27069
1.27708
1.27142
1.26709
1.26441
1.26249
1.26331
1.26396
1.26486
1.269
1.27202
1.26848
1.25327
1.23556
1.22673
1.22628
1.23128
1.23591
1.23477
1.23529
1.24077
1.24257
1.23937
1.24546
1.24409
1.24209
1.23606
1.23296
1.22901
1.22273
1.21228
1.19948
1.18787
1.18169
1.17779
1.17515
1.17249
1.1624
1.15328
1.14414
1.14119
1.1382
1.13527
1.13414
1.13641
1.14005
1.13898
1.13728
1.13526
1.13188
1.12659
1.12877
1.13629
1.15694
1.18764
1.19766
1.19901
1.19973
1.18774
1.18059
1.17699
1.16458
1.15467
1.15614
1.14627
1.1414
1.14519
1.14458
1.14072
1.14449
1.15301
1.15482
1.15425
1.15362
1.15659
1.15882
1.1546
1.15637
1.16617
1.16324
1.1692
1.17208
1.16531
1.17257
1.18361
1.16546
1.17327
1.18161
1.16616
1.17371
1.18827
1.18268
1.17858
1.19201
1.17985
1.17415
1.19146
1.18821
1.18232
1.19024
1.18905
1.181
1.18675
1.18353
1.18326
1.17615
1.1808
1.17867
1.18021
1.17198
1.17861
1.17945
1.17521
1.17875
1.17342
1.17342
1.17867
1.1826
1.185
1.18564
1.17754
1.17496
1.17669
1.18264
1.17241
1.17271
1.19251
1.17532
1.14414
1.15587
1.18087
1.15632
1.21347
1.25734
1.21423
1.25805
1.24786
1.16547
1.20753
1.23109
1.18698
1.10059
1.12523
1.20705
1.22746
1.27545
1.22184
1.20128
1.2063
1.21178
1.2355
1.24413
1.25546
1.2279
1.21195
1.26305
1.28231
1.34246
1.41408
1.44078
1.44049
1.51788
1.64544
1.54936
1.23094
1.22811
1.2269
1.226
1.22657
1.23703
1.24944
1.26396
1.27519
1.29026
1.29888
1.28711
1.2862
1.29356
1.28202
1.2827
1.29152
1.28088
1.28505
1.28769
1.2887
1.28476
1.28298
1.27846
1.27604
1.27419
1.27498
1.27778
1.27846
1.2664
1.24727
1.23305
1.22808
1.23278
1.23848
1.24032
1.23659
1.23484
1.23766
1.23085
1.23208
1.23336
1.2307
1.22406
1.2153
1.20798
1.20158
1.19194
1.18317
1.17599
1.17516
1.17201
1.16738
1.15778
1.1505
1.14272
1.13757
1.13404
1.13285
1.13366
1.13383
1.13427
1.13192
1.13108
1.13302
1.13164
1.12006
1.11741
1.12761
1.15295
1.1846
1.18614
1.17901
1.1823
1.17729
1.17347
1.17326
1.1579
1.14539
1.14297
1.13459
1.1255
1.13029
1.12954
1.13097
1.13066
1.13825
1.13881
1.13698
1.13961
1.14309
1.14401
1.13947
1.14116
1.15131
1.14376
1.15082
1.15612
1.15012
1.16068
1.16681
1.15597
1.16359
1.16756
1.15743
1.16904
1.17749
1.17401
1.17385
1.18228
1.17915
1.17445
1.18428
1.18919
1.18514
1.18933
1.18774
1.19098
1.19268
1.18574
1.18758
1.18364
1.18648
1.18451
1.18236
1.17728
1.18928
1.1786
1.1869
1.18206
1.18085
1.18401
1.18385
1.18692
1.19006
1.18681
1.17964
1.18172
1.18849
1.18927
1.18373
1.18795
1.18675
1.17253
1.13157
1.1741
1.20681
1.23355
1.28508
1.3088
1.22943
1.26173
1.29278
1.2006
1.22398
1.24729
1.22392
1.13225
1.13628
1.21504
1.23521
1.27445
1.23503
1.20641
1.20714
1.21945
1.24367
1.25429
1.26357
1.2181
1.22014
1.29477
1.32908
1.31856
1.38677
1.43096
1.45248
1.55101
1.66771
1.53621
1.23635
1.23639
1.24249
1.25068
1.24895
1.24825
1.24987
1.25945
1.27464
1.29243
1.30108
1.29426
1.29652
1.29985
1.29305
1.29479
1.29517
1.29486
1.29829
1.29516
1.29256
1.29057
1.28935
1.28284
1.27838
1.28058
1.28195
1.27913
1.2776
1.27712
1.26661
1.24799
1.2339
1.23055
1.23188
1.23364
1.23692
1.22877
1.22635
1.23115
1.22261
1.21933
1.21585
1.2135
1.20925
1.19827
1.18937
1.18032
1.17973
1.17432
1.17348
1.17127
1.16763
1.15861
1.14888
1.14143
1.13551
1.13188
1.12881
1.13085
1.13026
1.1303
1.13143
1.12943
1.12737
1.1281
1.11543
1.10796
1.12064
1.14501
1.16762
1.16723
1.16621
1.18081
1.18071
1.17934
1.17293
1.15616
1.1433
1.13833
1.12417
1.11544
1.1173
1.10949
1.10444
1.11032
1.11692
1.11746
1.11738
1.12525
1.13116
1.12761
1.12808
1.12893
1.1364
1.13081
1.13427
1.14063
1.13815
1.1511
1.15169
1.14418
1.15352
1.15603
1.15446
1.16809
1.17001
1.16591
1.16608
1.17147
1.1708
1.17032
1.18118
1.18853
1.1899
1.19022
1.18979
1.20035
1.19412
1.18959
1.19195
1.19308
1.19
1.19015
1.18477
1.18952
1.19058
1.1853
1.1934
1.18443
1.1903
1.18859
1.19131
1.19071
1.18901
1.19002
1.18612
1.19245
1.19743
1.20054
1.19218
1.18834
1.19317
1.16134
1.14573
1.19465
1.27149
1.31041
1.31091
1.29864
1.23448
1.26706
1.30237
1.23169
1.23508
1.25303
1.25058
1.16584
1.14307
1.21112
1.23816
1.27416
1.24492
1.21215
1.21092
1.23178
1.25359
1.26862
1.26339
1.21063
1.24674
1.34256
1.38634
1.36349
1.4254
1.46518
1.50301
1.59171
1.66031
1.51099
1.24023
1.23901
1.24269
1.25509
1.26912
1.27181
1.26753
1.26587
1.26737
1.27459
1.28732
1.29137
1.29017
1.29432
1.29907
1.30192
1.30333
1.30696
1.30657
1.30441
1.30056
1.30071
1.29846
1.28923
1.27596
1.26775
1.26849
1.27462
1.27924
1.28367
1.28708
1.27506
1.24706
1.22827
1.23005
1.23188
1.22327
1.22993
1.22195
1.21809
1.21895
1.21494
1.20606
1.19752
1.19574
1.19253
1.18913
1.17877
1.1749
1.1713
1.17097
1.16671
1.1625
1.15609
1.14612
1.13761
1.13079
1.12881
1.12551
1.12705
1.12433
1.12232
1.12542
1.12627
1.12423
1.12774
1.11157
1.09675
1.11045
1.13141
1.14901
1.15233
1.15725
1.17158
1.1712
1.16962
1.164
1.14393
1.13037
1.12203
1.10729
1.10357
1.10503
1.10229
1.09825
1.09936
1.10029
1.09624
1.09899
1.10445
1.11076