/*--------------------------------*- C++ -*----------------------------------*\
| =========                 |                                                 |
| \\      /  F ield         | OpenFOAM: The Open Source CFD Toolbox           |
|  \\    /   O peration     | Version:  dev                                   |
|   \\  /    A nd           | Web:      http://www.openfoam.org               |
|    \\/     M anipulation  |                                                 |
\*---------------------------------------------------------------------------*/
FoamFile
{
    version     2.0;
    format      ascii;
    class       volScalarField;
    object      T;
    location    "9.122";
}
// * * * * * * * * * * * * * * * * * * * * * * * * * * * * * * * * * * * * * //

dimensions      [0 0 0 1 0 0 0];

internalField   nonuniform List<scalar> 
12225
(
305.957
307.081
306.929
306.651
306.409
306.065
305.894
305.43
305.48
304.804
305.148
304.222
304.818
304.079
303.775
305.479
301.191
303.864
306.984
307.976
307.19
306.627
305.911
305.481
304.98
304.394
304.379
303.4
303.928
302.564
303.427
302.453
302.302
303.384
300.418
301.595
307.033
308.091
307.041
306.723
305.552
305.546
304.358
304.401
303.378
303.496
302.597
302.803
302.175
302.236
301.983
301.538
301.938
301.045
306.643
308.659
306.581
307.386
305.2
306.268
304.226
305.228
303.291
304.41
302.579
303.571
302.137
302.927
301.594
302.125
302.438
302.1
305.937
309.071
306.385
307.69
305.374
306.405
304.59
305.264
303.76
304.359
303.107
303.406
302.541
302.631
301.982
301.855
301.887
301.516
305.744
308.843
306.278
307.467
305.314
306.268
304.537
305.179
303.731
304.379
303.018
303.525
302.426
302.781
302.128
302.19
301.761
301.813
305.732
308.422
306.153
307.169
305.201
306.013
304.448
304.877
303.749
304.109
303.024
303.363
302.492
302.583
302.039
302.153
301.769
301.864
305.447
308.331
305.996
307.151
305.047
305.978
304.241
304.856
303.522
304.098
302.837
303.4
302.35
302.64
301.977
302.202
301.94
302.156
305.315
307.99
305.952
306.817
305.005
305.67
304.21
304.613
303.606
303.887
303.05
303.278
302.586
302.66
302.401
302.344
302.409
302.288
305.08
307.596
305.836
306.557
304.973
305.547
304.277
304.683
303.817
304.046
303.396
303.552
303.017
303.081
302.913
302.832
302.963
302.805
304.979
307.033
305.735
306.181
305.091
305.351
304.492
304.654
304.136
304.131
303.884
303.813
303.553
303.524
303.457
303.361
303.414
303.226
304.714
306.473
305.688
305.852
305.244
305.297
304.804
304.852
304.516
304.451
304.354
304.184
304.051
304.045
303.96
303.954
303.974
303.884
304.081
305.686
305.415
305.401
305.179
305.104
304.925
304.896
304.744
304.706
304.688
304.545
304.55
304.565
304.536
304.576
304.577
304.539
303.268
304.895
304.869
304.869
304.849
304.858
304.847
304.848
304.83
304.861
304.885
304.826
304.929
304.963
305.004
305.082
305.12
305.187
302.158
303.848
304.028
304.121
304.237
304.347
304.469
304.544
304.666
304.785
304.878
304.944
305.128
305.199
305.319
305.447
305.53
305.675
300.664
302.412
302.772
303.016
303.268
303.498
303.71
303.891
304.1
304.281
304.429
304.619
304.817
304.947
305.148
305.325
305.49
305.669
298.936
300.696
301.115
301.422
301.753
302.058
302.313
302.579
302.842
303.047
303.257
303.533
303.739
303.927
304.187
304.424
304.642
304.836
297.038
298.662
299.078
299.385
299.69
299.977
300.221
300.531
300.784
301.027
301.262
301.517
301.688
301.863
302.071
302.337
302.507
302.682
295.242
296.633
296.986
297.229
297.449
297.693
297.87
298.109
298.273
298.506
298.67
298.875
299.033
299.171
299.323
299.54
299.646
299.809
293.805
294.966
295.186
295.28
295.374
295.556
295.654
295.809
295.891
296.035
296.122
296.294
296.403
296.503
296.559
296.66
296.741
296.828
292.561
293.562
293.691
293.647
293.613
293.679
293.693
293.783
293.79
293.864
293.926
294.021
294.089
294.148
294.134
294.201
294.214
294.235
291.68
292.436
292.409
292.234
292.143
292.142
292.087
292.091
292.062
292.074
292.077
292.142
292.145
292.158
292.164
292.159
292.142
292.122
290.951
291.62
291.482
291.203
291.044
290.95
290.841
290.779
290.691
290.635
290.584
290.57
290.524
290.532
290.49
290.469
290.42
290.381
290.441
291.013
290.801
290.452
290.207
290.039
289.917
289.819
289.717
289.642
289.541
289.509
289.461
289.439
289.391
289.357
289.288
289.24
290.119
290.536
290.235
289.832
289.534
289.332
289.168
289.032
288.91
288.83
288.754
288.709
288.643
288.611
288.549
288.505
288.442
288.353
289.874
290.169
289.831
289.416
289.101
288.883
288.685
288.538
288.396
288.288
288.176
288.098
288.024
287.963
287.895
287.837
287.754
287.651
289.725
290.023
289.633
289.182
288.821
288.569
288.336
288.174
288.001
287.865
287.705
287.565
287.412
287.275
287.122
286.982
286.807
286.624
289.586
289.842
289.482
289.017
288.62
288.317
288.03
287.815
287.584
287.388
287.146
286.94
286.706
286.527
286.297
286.123
285.895
285.733
289.414
289.622
289.308
288.867
288.471
288.155
287.884
287.684
287.506
287.357
287.21
287.116
287.021
286.982
286.902
286.914
286.836
286.926
289.359
289.455
289.448
289.351
289.284
289.283
289.341
289.451
289.585
289.734
289.885
290.049
290.199
290.357
290.494
290.646
290.781
290.885
285.457
272.298
271.05
272.473
272.542
273.756
275.708
277.621
279.079
280.291
280.979
281.499
282.106
282.483
283.044
283.611
284.229
284.867
285.495
286.165
286.624
287.151
287.673
288.193
288.856
289.339
289.805
290.275
290.58
290.96
291.278
291.508
291.721
291.748
291.285
291.37
293.792
297.313
298.613
297.81
296.924
296.415
295.874
295.01
294.7
295.218
295.929
296.167
296.526
296.459
294.181
295.127
294.577
293.046
292.473
293.66
296.234
296.901
296.812
302.34
308.772
307.349
302.718
299.955
298.251
297.026
296.055
295.267
294.623
294.084
293.608
293.177
292.758
292.353
291.985
291.6
291.228
290.871
290.546
290.226
289.87
289.55
289.202
288.82
288.37
288.037
287.66
287.229
286.806
286.381
285.957
285.609
285.059
284.607
284.374
283.839
283.602
283.294
283.137
283.048
283.142
283.507
283.717
283.996
284.232
284.365
284.793
285.483
286.636
287.742
288.816
290.043
290.901
291.46
291.516
291.603
292.279
292.643
292.401
292.72
294.039
295.7
297.093
298.328
299.158
299.661
300.099
299.841
298.836
297.708
296.827
295.929
295.624
294.302
294.178
292.432
293.121
293.499
290.816
293.24
290.682
289.447
288.567
288.243
287.264
286.581
285.958
285.34
284.53
283.483
282.257
280.815
279.46
278.016
276.885
275.733
274.757
273.77
273.488
272.551
271.564
270.75
268.78
268.154
265.564
265.687
265.689
263.433
264.316
264.702
268.472
268.144
273.672
279.1
279.421
275.898
274.948
279.092
284.231
288.11
288.265
273.341
264.82
262.047
263.509
269.525
277.328
284.067
288.454
291.557
293.205
293.846
294.53
294.662
295.024
295.269
295.687
295.914
296.308
296.873
296.753
297.334
297.178
297.194
298.054
297.628
298.205
298.401
298.012
298.695
297.959
298.107
298.229
296.92
297.533
295.595
293.744
293.759
289.423
289.668
289.66
282.815
282.705
286.024
286.284
287.337
288.709
287.333
286.202
287.396
286.512
289.96
291.453
288.298
286.12
291.303
296.891
296.534
294.029
292.232
290.426
288.396
287.077
286.554
286.118
286.171
286.157
286.3
286.456
286.622
286.729
286.81
286.785
286.688
286.607
286.388
286.06
285.713
285.297
284.989
284.516
284.007
283.385
283.07
282.129
281.366
281.015
280.186
279.339
278.589
277.806
277.058
276.553
274.59
273.764
272.872
271.106
270.388
268.689
268.004
266.921
266.281
265.797
265.616
265.494
265.405
265.721
266.499
268.262
270.263
272.119
274.078
275.143
274.956
273.481
272.23
273.457
274.372
273.634
273.971
277.104
284.373
293.914
299.432
300.021
301.562
303.028
301.212
298.834
296.82
295.089
293.275
292.881
290.003
291.79
288.576
290.692
299.254
288.087
299.935
297.005
293.146
287.994
287.911
286.04
284.735
285.193
286.798
287.91
288.207
287.322
284.542
280.185
274.972
269.99
266.32
264.386
262.687
262.195
259.915
256.556
253.982
250.879
249.609
254.177
248.803
242.165
240.32
238.723
234.724
235.405
232.742
239.37
253.054
253.31
243.774
234.455
236.162
248.793
264.803
291.264
278.302
266.974
262.101
265.909
276.216
287.108
294.978
299.458
301.856
303.02
303.393
303.398
303.172
302.857
302.402
301.909
301.187
300.765
300.161
299.516
299.645
298.967
298.727
299.079
298.421
298.392
299.072
298.107
299.02
299.46
299.177
300.607
300.186
301.637
301.933
301.701
301.974
298.771
296.501
292.884
292.098
289.546
281.254
281.728
287.574
292.543
291.842
295.225
296.468
296.664
296.414
294.753
292.74
292.464
291.835
291.001
289.628
289.338
289.537
289.645
291.204
292.29
293.717
295.412
296.564
297.881
299.003
299.876
300.877
301.504
302.126
302.649
302.914
303.286
303.476
303.418
303.527
303.268
303.364
303.001
303.027
302.628
302.747
302.283
301.38
301.367
301.04
300.502
300.024
299.164
298.344
298.956
296.93
295.367
295.001
291.855
291.208
287.6
285.727
283.111
280.043
277.36
275.39
273.801
272.258
270.48
269.354
268.373
268.377
269.59
271.731
273.448
273.703
272.311
268.674
264.407
267.949
277.059
274.246
266.448
270.2
281.27
292.928
301.891
302.934
300.92
299.134
297.231
295.986
292.916
291.446
291.219
289.767
285.753
297.558
272.121
295.617
286.599
306.809
309.698
305.08
297.249
295.813
291.402
283.289
278.297
283.755
297.067
308.524
312.425
312.634
307.976
299.653
287.159
274.535
265.074
261.346
258.972
256.265
253.142
249.552
248.572
245.151
268.025
262.957
249.917
259.349
256.72
250.721
238.1
239.764
236.288
243.468
239.966
234.197
227.334
222.972
226.138
243.491
294.042
284.391
275.001
271.666
276.965
286.118
293.507
298.08
300.502
301.717
301.998
301.873
301.432
300.844
299.979
299.09
297.998
297.088
296.766
296.093
295.968
295.825
295.519
295.313
295.735
295.46
295.589
295.96
295.043
295.936
296.12
295.053
296.315
295.423
296.071
297.721
298.314
300.422
301.415
300.71
297.774
296.328
293.982
290.344
286.195
285.621
288.675
286.544
294.514
296.988
293.164
289.481
291.116
289.9
290.01
289.912
290.532
291.856
293.04
294.78
297.025
298.079
299.706
300.997
301.583
302.419
303.042
303.157
303.734
303.731
304.033
304.066
304.094
304.224
304.129
304.411
304.097
304.378
304.338
304.649
304.225
304.715
304.713
304.592
304.994
304.933
304.794
305.088
305.116
305.7
305.564
305.5
305.645
306.417
306.128
306.696
305.947
306.039
305.071
303.621
302.469
300.706
298.287
296.081
294.157
293.474
291.15
288.469
282.833
275.703
271.77
272.168
275.237
276.211
274.629
275.164
270.416
265.29
273.154
287.604
287.112
279.412
281.147
286.305
289.534
289.47
288.76
287.154
284.143
284.812
287.134
289.162
293.655
303.259
280.979
315.2
272.058
277.225
274.609
296.44
308.341
306.872
306.545
308.731
311.62
305.054
290.328
276.544
278.353
291.574
301.218
307.28
314.318
320.704
314.437
297.108
276.758
265.105
259.51
256.463
253.549
253.18
256.265
249.128
269.431
268.768
261.494
279.15
280.781
278.649
256.042
275.126
265.949
251.37
236.208
228.527
226.344
225.651
224.451
230.627
296.641
290.695
285.615
285.13
289.973
296.08
300.701
303.904
305.962
307.166
307.477
307.014
306.208
305.049
303.814
302.571
301.614
300.873
300.536
300.34
299.848
299.646
299.4
299.557
299.037
298.83
300.443
298.729
299.709
300.183
299.314
300.288
300.615
299.693
299.658
299.189
299.241
299.34
299.721
301.496
301.261
299.007
295.911
298.29
292.856
289.786
291.413
288.384
292.39
291.41
290.993
290.477
290.912
291.23
292.42
294.192
295.982
297.163
299.19
300.238
300.887
301.433
302.41
302.101
302.888
303.134
303.188
303.718
303.779
304.009
304.248
304.372
304.262
304.383
304.127
304.477
304.419
304.12
303.819
304.072
303.635
304.107
303.861
303.801
303.638
303.744
303.427
303.586
303.269
303.326
303.061
303.582
303.552
303.75
304.561
304.686
305.909
305.905
306.526
306.834
306.657
306.558
305.599
305.138
303.649
302.338
300.399
300.067
301.306
299.459
295.031
286.581
276.09
272.735
272.269
275.56
278.815
275.904
272.529
281.238
294.427
296.034
293.75
291.231
290.836
292.814
294.488
293.426
287.501
285.712
287.309
290.123
288.212
300.768
294.861
302.125
291.23
284.097
279.131
293.023
301.115
305.965
304.594
297.664
296.653
298.776
303.101
296.208
289.438
294.106
297.219
288.366
279.869
287.254
303.943
308.139
289.904
272.719
261.901
258.602
255.915
256.868
262.447
254.368
266.713
267.829
265.184
277.794
289.115
286.761
264.351
300.6
310.544
272.229
240.14
227.359
223.942
223.493
226.905
227.63
298.848
295.831
294.566
296.655
301.103
305.065
307.791
309.397
309.609
308.633
306.839
305.027
303.503
302.254
301.344
300.528
299.96
299.364
298.333
297.319
296.791
295.502
294.879
295.672
294.463
294.912
296.498
295.252
296.68
296.452
297.284
297.465
297.544
299.13
298.378
297.744
299.76
300.919
300.352
299.055
299.233
300.785
298.24
298.216
292.204
292.711
293.189
289.152
292.685
293.25
291.776
292.129
293.657
294.844
297.535
298.152
299.439
300.365
300.335
300.47
301.052
301.838
302.319
303.337
304.375
304.855
305.729
305.958
305.915
306.264
305.851
306.099
305.646
305.458
304.955
304.427
304.645
304.565
304.213
304.083
304.712
304.707
304.988
305.278
305.319
305.793
305.618
305.553
305.298
304.91
304.517
303.853
303.897
303.225
303.716
303.718
304.762
305.545
306.127
307.356
307.885
309.338
309.553
309.538
309.411
309.096
308.198
305.803
305.34
306.416
301.083
299.477
298.842
293.619
286.168
276.86
272.447
273.674
274.569
278.61
285.28
292.177
299.966
296.187
291.976
294.4
290.112
282.833
274.825
278.052
276.485
290.867
287.071
284.83
295.81
293.708
299.175
299.91
298.743
301.601
292.83
301.867
307.637
303.775
290.958
281.811
285.349
292.551
292.41
294.894
304.671
301.394
280.144
272.359
287.75
306.998
296.522
279.223
264.387
260.608
258.758
259.347
266.307
257.945
269.223
271.432
266.218
271.315
294.637
285.684
268.166
289.869
334.329
298.089
248.937
228.637
225.148
221.416
229.056
227.429
300.71
299.759
300.879
304.168
307.353
309.168
309.994
309.786
308.213
306.302
304.738
303.999
303.433
302.774
301.956
300.637
298.867
296.774
294.811
292.939
291.811
291.312
291.845
292.595
293.905
295.958
296.647
297.4
298.084
298.565
299.437
298.202
298.921
299.44
298.945
299.023
299.235
298.919
300.267
301.105
300.274
297.842
294.723
294.967
293.086
295.22
291.202
287.576
292.025
292.475
292.611
293.728
296.653
298.299
299.199
299.945
300.114
299.924
300.616
302.101
303.216
304.619
305.448
306.716
306.68
307.193
306.872
306.725
306.381
305.807
305.187
304.312
303.388
302.539
302.043
301.116
300.407
299.637
300.084
299.471
300.717
300.747
301.201
302.435
302.97
304.189
305.228
306.214
306.872
306.435
306.342
305.497
304.633
303.957
303.17
302.616
302.654
303.638
303.185
304.721
305.569
307.072
308.349
309.757
309.295
309.846
311.072
311.494
307.669
310.099
310.655
306.698
304.911
305.87
304.583
295.3
286.05
278.539
274.413
274.365
270.887
275.376
285.542
286.015
282.202
284.255
283.704
282.307
275.703
283.092
280.768
293.447
289.608
296.172
289.781
291.222
300.096
294.969
298.345
304.829
294.028
298.015
295.315
298.017
294.943
297.29
301.017
307.237
303.868
297.908
305.804
313.439
292.413
275.654
283.614
309.699
304.581
286.658
269.642
264.673
262.723
261.83
270.164
259.804
272.853
278.435
267.859
268.219
295.82
284.467
274.249
260.892
308.754
315.13
260.346
230.918
228.443
223.339
233.737
227.433
302.286
302.697
304.957
307.772
309.275
310.002
310.5
309.561
307.571
306.192
305.425
304.381
302.56
300.125
297.085
293.583
290.389
287.537
285.928
285.754
286.75
289.634
293.188
296.891
300.376
301.593
302.395
302.991
302.188
302.177
300.845
298.667
299.565
300.951
297.949
295.765
299.51
303.943
304.113
298.589
294.584
294.394
295.729
295.927
294.164
292.775
288.229
288.233
292.545
292.808
293.62
296.776
298.766
299.972
300.648
299.905
300.351
301.998
303.453
304.829
305.678
306.554
306.58
306.625
306.151
306.364
305.649
305.479
304.716
304.103
303.469
302.433
301.416
299.646
298.044
296.575
296.384
294.302
293.817
293.317
294.184
293.957
294.261
295.655
296.433
297.698
298.879
301.096
303.593
304.387
305.456
305.673
304.619
304.535
303.941
302.736
301.864
303.35
302.685
303.318
304.142
307.013
307.249
309.254
309.629
311.75
311.026
313.4
311.995
310.595
312.432
311.361
308.198
306.865
308.554
307.039
303.712
296.279
287.958
286.355
277.36
274.212
278.041
276.799
271.92
278.443
276.728
276.817
279.129
288.912
284.25
290.459
287.365
300.932
300.405
291.177
305.769
307.569
303.794
304.407
297.83
312.151
304.971
308.186
298.652
299.829
299.107
307.753
307.219
300.013
301.278
316
299.839
280.324
282.548
311.522
313.326
294.785
274.338
266.779
265.576
263.59
274.51
262.629
275.939
286.556
271.637
269.674
292.316
284.618
279.323
252.409
280.525
319.116
271.454
236.684
231.29
227.495
237.38
228.672
303.585
304.698
307.1
309.055
310.307
311.496
311.397
309.456
307.374
305.671
303.516
300.371
296.742
292.479
288.133
284.761
282.809
282.781
284.565
288.41
293.769
299.653
304.612
306.867
306.542
305.581
304.421
302.437
300.929
300.917
300.795
299.714
300.409
302.071
301.541
301.253
300.068
298.672
297.576
296.668
297.223
296.358
294.512
291.574
289.634
287.67
286.289
290.19
293.278
294.058
295.107
297.974
300.483
300.397
299.831
300.436
302.2
303.518
304.931
305.904
306.293
306.426
306.278
306.478
306.803
306.674
306.414
306.193
305.707
305.273
303.978
302.363
300.502
298.674
296.969
294.004
293.785
291.978
290.999
289.41
291.004
290.171
290.238
290.81
292.604
293.197
293.313
294.018
297.189
298.482
299.552
302.214
300.665
300.322
302.355
300.684
298.967
301.265
301.332
301
301.832
303.814
303.903
306.382
306.507
309.019
311.129
311.738
312.971
314.357
314.119
313.827
313.31
311.355
311.996
308.57
308.59
307.059
301.366
302.231
293.361
290.546
289.362
289.515
281.633
288.786
286.378
286.263
280.197
297.144
298.588
295.76
291.09
304.787
309.643
299.629
303.594
301.141
300.529
304.762
299.367
314.896
306.461
313.84
305.642
309.861
305.866
310.126
301.356
294.361
292.228
315.211
313.69
293.824
288.668
314.951
322.423
303.979
281.124
270.297
269.472
265.174
278.311
266.383
277.008
290.695
276.249
275.791
292.699
280.468
280.583
274.183
281.348
316.629
280.967
241.132
234.021
234.575
235.626
226.712
304.711
306.222
308.608
310.497
312.251
312.845
311.315
308.552
305.451
302.291
298.747
294.066
289.057
284.052
280.952
280.424
281.895
285.052
289.136
293.842
298.427
301.383
302.042
301.512
300.48
298.698
298.065
299.162
300.447
302.603
303.948
301.172
297.535
295.21
295.622
297.706
300.973
304.619
305.333
301.701
296.219
290.228
287.009
285.187
285.234
285.477
286.649
291.147
293.017
293.269
296.359
299.929
300.925
300.294
300.658
301.374
303.591
305.194
306.448
306.423
306.694
307.012
307.515
307.495
307.278
306.241
305.849
305.173
304.195
303.029
301.501
299.803
297.565
294.924
293.197
289.943
289.441
288.537
288.415
285.697
287.197
287.149
287.404
286.521
289.371
290.73
291.912
291.095
293.503
295.699
294.32
297.948
298.294
294.99
299.139
299.154
296.703
298.821
301.698
300.248
302.138
303.691
304.11
304.51
306.394
306.67
307.48
310.797
310.51
312.596
313.847
313.438
316.483
312.542
315.8
312.06
311.048
314.386
305.48
308.659
307.242
302.765
297.067
302.181
297.795
300.228
297.834
307.668
295.149
299.036
301.349
306.625
303.961
305.849
300.519
302.231
311.239
306.507
303.966
308.854
304.264
311.985
298.153
307.815
304.147
305.9
305.024
311.28
302.64
295.607
289.592
308.879
319.322
304.367
290.433
309.961
326.885
311.833
287.759
274.534
274.25
267.7
282.716
271.341
278.73
292.051
280.682
281.673
296.002
275.976
285.179
296.029
287.248
310.991
283.179
248.937
236.34
241.265
238.066
223.378
305.726
307.505
309.877
311.653
313.193
312.649
309.595
305.388
301.511
297.798
292.719
286.783
281.961
279.888
281.449
284.153
286.773
289.389
292.018
294.305
295.739
297.295
299.796
301.873
301.866
300.465
299.765
299.976
299.968
300.103
301.015
302.494
304.159
304.806
306.402
307.101
307.229
304.066
299.22
292.741
288.398
285.301
283.98
284.282
285.417
286.864
289.395
291.582
292.595
294.433
298.191
301.027
301.247
299.943
300.931
302.988
305.507
305.814
306.397
306.562
307.534
307.59
307.205
306.168
305.336
304.417
303.836
303.139
302.633
301.741
299.997
297.152
293.704
291.135
290.758
288.891
287.795
287.545
288.756
287.048
286.988
287.2
287.107
286.411
287.301
287.439
288.779
288.882
289.907
293.797
291.168
291.914
295.741
291.704
294.506
296.707
293.491
296.004
299.445
297.543
299.654
302.016
302.754
304.105
303.782
306.353
306.771
308.685
309.446
309.848
311.91
311.416
315.654
311.367
316.993
316.295
311.753
316.927
311.503
310.697
312.795
308.926
304.936
309.949
307.276
302.613
303.513
313.432
306.27
306.922
306.574
305.714
307.676
310.766
303.572
304.469
305.74
303.448
307.815
310.459
307.722
312.032
301.134
316.92
308.187
300.371
298.991
301.362
304.029
300.39
290.675
302.202
318.672
311.158
294.588
305.892
327.568
319.904
296.037
280.384
279.387
270.053
286.273
276.98
281.617
292.323
285.609
285.256
295.924
280.477
289.226
302.366
289.906
298.245
281.66
251.28
241.424
249.125
235.568
220.901
306.579
308.374
310.431
312.122
313.846
312.111
306.996
302.466
298.99
294.295
288.097
283.232
282.123
285.096
288.182
288.278
287.748
287.112
286.601
286.973
289.422
292.823
294.962
294.729
293.82
293.946
295.988
298.361
299.822
300.745
301.651
301.77
300.992
299.362
297.236
294.179
291.835
289.455
288.667
287.432
287.808
287.306
286.485
288.034
288.485
288.751
291.143
292.686
293.604
297.152
300.875
301.712
300.346
300.29
302.331
304.117
305.79
306.278
307.005
307.21
307.31
306.507
305.752
304.765
303.59
303.039
303.11
302.963
301.88
299.246
296.06
293.225
288.844
285.267
285.704
286.254
286.67
287.621
288.935
289.088
289.675
290.406
289.34
290.606
291.607
291.303
289.619
290.191
288.899
291.974
291.948
289.478
293.784
292.023
292.689
297.519
293.527
296.122
300.512
298.068
299.235
303.791
301.365
302.734
304.003
304.091
306.066
307.011
307.983
308.521
310.031
309.181
313.156
310.593
311.869
314.671
313.614
315.385
314.315
313.178
316.431
313.339
309.402
311.278
314.371
309.832
308.803
309.597
308.312
313.974
312.07
309.499
308.731
308.707
308.524
311.918
305.566
302.121
309.658
310.229
309.819
310.814
305.04
316.775
303.583
305.064
306.782
298.413
308.002
306.713
296.058
296.086
313.276
315.91
297.221
302.221
324.326
325.87
303.604
282.978
280.456
270.907
289.479
284.037
286.164
293.422
289.953
288.49
293.912
287.756
292.906
302.186
296.212
283.396
269.759
249.045
246.329
250.255
236.664
225.634
307.251
308.848
310.641
312.411
313.361
310.976
307.769
304.148
297.874
290.146
284.49
284.918
289.29
291.137
287.514
283.188
281.482
280.658
281.899
283.89
285.247
284.792
284.379
283.734
283.747
283.945
285.43
287.258
287.964
287.065
286.189
286.026
286.823
288.674
289.568
289.026
288.747
289.475
290.026
289.64
290.498
290.089
289.16
290.608
290.715
291.076
291.97
293.68
295.935
299.244
300.74
300.926
299.926
300.707
303.062
305.386
306.473
306.492
306.646
306.634
306.255
304.937
303.532
302.759
302.37
302.236
301.997
301.355
300.066
296.351
290.687
287.387
284.409
281.75
283.364
284.549
286.034
288.391
290.666
289.826
290.744
291.842
290.276
289.937
291.872
293.589
292.881
292.522
292.478
291.715
291.737
289.727
292.582
292.621
291.472
295.789
293.065
293.486
299.749
297.017
297.407
303.024
300.581
301.026
304.884
303.33
304.122
306.647
305.93
304.941
309.504
308.593
308.138
311.25
310.631
310.184
311.438
313.614
312.776
310.917
316.31
315.427
312.726
312.418
316.379
313.107
314.013
312.951
310.78
313.105
312.414
313.748
314.888
310.274
308.014
308.422
308.882
312.149
312.502
308.296
310.004
311.383
308.668
310.399
298.338
311.945
308.212
298.03
310.4
310.582
302.805
294.717
304.716
318.199
299.96
298.294
319.347
327.805
309.499
288.243
287.23
277.015
293.249
290.72
291.256
295.535
292.48
291.138
293.232
292.449
297.871
299.847
299.977
270.821
255.657
247.316
252.148
250.937
234.772
226.992
307.863
309.439
311.31
312.599
311.587
308.938
306.626
301.662
295.535
290.492
288.789
291.936
292.648
288.798
286.286
289.256
292.398
292.548
291.841
289.76
288.187
287.265
286.888
285.574
285.172
285.225
287.3
290.854
294.299
295.05
294.034
292.893
292.466
294.281
296.387
296.09
293.868
293.434
292.914
290.882
292.087
291.7
291.244
290.867
291.013
292.499
293.564
295.173
297.649
300.27
300.891
300.261
300.188
302.187
304.019
305.609
306.027
306.152
306.224
305.584
304.612
303.483
302.424
301.548
301.303
301.197
301.002
300.251
299.25
295.22
287.892
283.676
281.772
280.977
284.227
285.863
287.57
289.58
293.219
292.496
293.982
294.448
294.739
293.292
293.151
292.549
292.715
292.699
294.351
294.562
293.907
292.961
294.255
294.745
293.543
295.919
294.594
293.77
299.47
297.229
295.229
302.273
300.109
298.86
304.016
303.316
301.607
305.251
305.944
301.895
307.242
308.262
303.855
308.17
309.682
307.551
308.687
312.539
310.831
309.427
312.401
313.616
312.412
312.308
314.197
313.604
315.567
312.219
313.917
313.698
313.753
313.358
313.046
311.7
312.148
308.513
308.973
311.416
312.856
311.149
310.402
311.979
308.414
309.072
305.075
315.938
305.226
306.733
307.556
303.778
301.774
290.959
295.669
313.24
300.858
295.393
311.976
328.815
314.93
294.039
291.372
279.569
293.752
296.428
296.531
298.072
294.528
293.277
292.731
296.396
302.314
296.859
297.502
269.042
253.941
252.01
257.87
250.098
231.008
228.397
308.278
309.601
311.045
311.873
310.639
307.433
302.688
295.83
292.801
293.472
293.159
292.181
293.479
295.636
297.514
299.452
295.687
294.004
295.096
295.876
296.262
296.458
295.996
295.555
295.037
293.745
292.696
293.136
296.294
300.122
301.843
301.496
299.795
298.179
297.94
297.284
295.422
294.428
294.601
292.559
292.258
292.087
292.853
292.91
293.152
293.937
295.723
298.11
300.229
300.988
301.155
300.986
300.811
302.547
304.053
305.592
305.492
305.409
305.322
304.765
303.313
301.527
301.018
300.708
300.521
300.734
301.499
300.316
297.784
291.98
283.993
281.224
280.572
280.134
282.758
284.32
285.097
288.094
290.578
290.269
292.885
294.301
293.554
293.99
295.344
294.748
292.995
293.013
293.683
294.415
294.268
294.349
296.115
296.387
294.655
296.191
295.501
295.63
298.239
297.281
295.399
300.919
299.815
298.598
303.466
302.403
299.563
301.833
303.704
301.065
304.94
307.14
303.349
304.824
306.934
305.433
306.235
308.789
307.702
308.91
309.327
311.505
310.564
311.386
311.231
313.631
312.077
312.005
313.284
312.438
313.934
313.961
312.541
311.439
310.693
310.355
312.282
312.708
311.984
310.095
312.491
312.085
306.594
310.772
318.895
315.258
308.176
314.334
299.059
288.341
298.327
287.543
289.504
309.606
298.533
292.539
303.167
326.935
319.927
298.472
293.753
283.014
295.891
301.548
300.945
300.375
295.542
294.535
292.968
300.597
305.485
294.01
290.457
278.157
264.804
260.516
260.998
247.967
228.721
242.122
308.421
309.112
309.392
309.589
309.412
306.756
303.662
300.113
297.391
293.82
291.749
294.273
294.316
292.459
294.896
294.528
292.293
294.484
293.276
292.412
291.903
292.506
292.605
293.311
293.516
293.564
292.979
291.907
291.295
293.585
297.579
300.482
301.149
299.432
297.469
296.419
296.686
296.459
295.118
296.064
295.064
294.035
293.927
294.759
296.096
297.081
297.835
299.392
300.74
301.689
300.999
300.888
301.148
302.697
303.66
304.768
305.188
305.186
304.563
303.421
302.464
301.464
301.235
300.635
299.335
298.956
301.338
301.394
298.048
290.929
282.652
281.836
283.151
282.045
282.99
283.719
283.628
287.303
290.408
291.038
293.259
295.753
294.672
295.099
295.036
295.45
293.861
294.151
295.112
294.966
294.645
295.025
296.864
297.123
295.239
297.966
296.945
296.429
298.855
297.019
296.355
300.061
299.014
298.924
302.488
300.409
299.162
300.962
301.896
300.606
302.258
304.29
302.545
302.057
303.817
303.424
304.48
304.274
304.41
306.744
306.789
308.318
308.053
309.031
310.036
311.803
309.054
312.227
310.401
311.972
312.577
311.958
312.18
311.496
310.744
311.604
313.451
312.802
310.907
310.551
311.853
310.562
310.71
314.333
325.503
313.467
304.737
297.965
285.77
280.454
298.437
290.479
283.188
304.603
298.476
292.647
297.969
321.991
320.946
300.339
295.669
286.845
296.377
303.892
304.258
301.871
296.793
295.186
293.895
305.67
305.845
288.852
281.994
284.773
271.274
263.217
259.454
242.958
225.594
243.902
308.394
308.369
306.837
304.799
305.191
305.321
304.875
302.49
298.802
294.583
292.494
293.877
293.165
292.216
293.531
292.904
292.57
292.374
291.32
291.73
292.001
292.121
292.048
293.16
293.791
292.866
292.104
292.267
292.107
291.68
293.535
297.322
300.104
300.287
299.308
298.205
296.72
297.969
297.821
295.905
297.194
297.195
297.225
296.963
297.146
298.989
300.323
301.704
300.919
301.352
300.602
300.189
300.133
301.464
303.006
303.968
304.538
304.505
304.333
302.802
301.996
301.046
299.84
299.496
299.205
298.212
300.835
302.148
298.075
291.118
284.905
284.481
284.286
280.405
280.128
280.213
281.564
285.519
288.658
289.894
293.574
295.956
295.598
297.901
299.501
298.199
296.773
297.021
297.49
295.899
294.889
296.401
296.906
297.353
296.107
298.328
298.202
297.356
298.855
296.358
297.095
299.972
298.472
298.768
300.139
297.585
298.045
300.052
300.964
300.515
301.62
302.661
300.76
299.76
300.258
300.98
301.88
299.979
302.271
304.14
304.227
304.623
306.071
306.686
308.704
308.099
308.405
310.364
308.789
311.645
310.576
311.433
311.089
311.545
312.233
312.156
313.296
311.704
310.439
309.625
311.803
312.774
311.5
320.023
324.338
310.989
292.181
283.55
283.447
286.098
300.933
292.974
284.763
300.822
299.688
295.159
295.48
316.77
323.135
305.128
298.674
290.477
297.578
306.008
306.762
302.141
297.562
294.801
296.667
310.161
301.639
280.523
272.018
276.886
265.057
257.867
251.227
236.874
226.317
247.603
308.307
308.604
307.677
304.619
301.224
300.552
301.517
301.846
301.403
299.586
296.487
295.39
295.471
294.311
293.003
292.109
291.525
290.43
290.212
290.371
290.888
290.489
290.607
292.275
294.877
296.32
295.653
293.707
292.094
290.505
289.131
291.22
297.092
300.944
299.8
298.624
299.969
297.573
298.721
298.85
297.804
297.93
299.24
300.471
299.998
299.868
299.771
301.43
301.434
301.356
300.423
300.487
300.534
301.15
302.709
303.912
304.681
304.161
304.008
302.563
302.284
301.841
300.058
298.913
298.575
296.805
300.314
303.607
299.154
292.947
287.842
286.451
284.739
280.843
280.587
280.689
281.824
286.604
289.932
292.027
295.907
296.952
296.679
297.565
298.853
298.795
298.836
300.29
299.939
298.901
297.698
299.076
298.811
298.093
297.523