/*--------------------------------*- C++ -*----------------------------------*\
| =========                 |                                                 |
| \\      /  F ield         | OpenFOAM: The Open Source CFD Toolbox           |
|  \\    /   O peration     | Version:  dev                                   |
|   \\  /    A nd           | Web:      http://www.openfoam.org               |
|    \\/     M anipulation  |                                                 |
\*---------------------------------------------------------------------------*/
FoamFile
{
    version     2.0;
    format      ascii;
    class       volVectorField;
    object      U;
    location    "9.122";
}
// * * * * * * * * * * * * * * * * * * * * * * * * * * * * * * * * * * * * * //

dimensions      [0 1 -1 0 0 0 0];

internalField   nonuniform List<vector> 
12225
(
(7.60621 0.64258 0)
(6.32212 0.309948 0)
(6.04057 0.148279 0)
(7.48636 0.0973158 0)
(7.70769 0.129887 0)
(10.1634 0.0715891 0)
(9.83083 0.157505 0)
(12.7483 0.0400745 0)
(11.9376 0.191714 0)
(15.3226 -0.00503657 0)
(13.9291 0.203786 0)
(18.0286 -0.0824379 0)
(16.4238 0.202244 0)
(20.7171 -0.16166 0)
(21.0701 -0.265609 0)
(23.0691 1.79106 0)
(27.8091 -5.52993 0)
(31.1571 3.49633 0)
(9.91201 1.57516 0)
(11.4456 1.21854 0)
(10.3534 0.834271 0)
(13.0188 0.583988 0)
(10.7847 0.490835 0)
(15.4599 0.379312 0)
(11.7619 0.409668 0)
(18.4319 0.2711 0)
(13.1962 0.338731 0)
(21.9201 0.117333 0)
(15.0735 0.219536 0)
(25.9529 -0.372181 0)
(18.0361 0.485278 0)
(30.5568 -1.94735 0)
(22.5244 1.64053 0)
(37.2996 -3.29433 0)
(23.3557 -1.55821 0)
(47.4807 -8.15968 0)
(9.53232 1.70847 0)
(14.0816 1.56114 0)
(11.8293 1.23925 0)
(17.1913 1.11277 0)
(12.893 0.918809 0)
(19.9251 0.926376 0)
(13.9263 0.741038 0)
(22.7194 0.651005 0)
(15.6344 0.619523 0)
(25.4251 0.132069 0)
(18.7041 0.503916 0)
(27.7499 -0.77514 0)
(22.8722 0.559097 0)
(29.6719 -2.12716 0)
(27.4768 0.483687 0)
(34.2906 -1.50703 0)
(28.6218 -4.52765 0)
(38.8692 -18.4645 0)
(7.69756 2.02918 0)
(15.5715 1.84613 0)
(11.7459 1.55041 0)
(19.0464 1.50731 0)
(14.664 1.3912 0)
(21.6697 1.20099 0)
(17.5132 1.32327 0)
(23.914 0.696564 0)
(20.1406 1.28116 0)
(25.8323 -0.119173 0)
(22.5098 1.26788 0)
(27.7348 -1.35785 0)
(24.9424 1.45715 0)
(29.9822 -3.38525 0)
(27.5939 1.49537 0)
(35.6874 -4.26509 0)
(30.5297 -3.07004 0)
(31.8746 -16.0036 0)
(8.13121 2.67412 0)
(14.0754 1.69359 0)
(13.0152 2.0105 0)
(17.2448 1.45672 0)
(16.8396 2.03885 0)
(19.6814 1.16213 0)
(19.8785 1.96929 0)
(21.9939 0.764412 0)
(22.3042 1.84016 0)
(24.0995 0.036898 0)
(24.4431 1.74486 0)
(26.118 -1.18858 0)
(26.2979 1.81274 0)
(28.5807 -3.32876 0)
(27.7398 1.43055 0)
(32.4418 -5.51726 0)
(34.7882 1.3837 0)
(29.4134 -22.4479 0)
(10.5654 3.40223 0)
(11.3869 1.86045 0)
(14.2176 2.51383 0)
(14.5834 1.66732 0)
(17.4721 2.50969 0)
(17.5048 1.34133 0)
(20.1565 2.45791 0)
(20.2784 0.909671 0)
(22.596 2.33403 0)
(22.7459 0.147984 0)
(24.9358 2.16823 0)
(25.0723 -1.22766 0)
(27.2654 1.94328 0)
(27.5538 -3.00059 0)
(29.7461 0.264124 0)
(29.9158 -6.1479 0)
(34.1349 1.1369 0)
(31.3752 -18.7482 0)
(11.0963 4.0596 0)
(10.7049 1.80115 0)
(14.5815 3.21001 0)
(14.2503 1.62706 0)
(17.5554 3.30451 0)
(17.2903 1.31994 0)
(20.1984 3.24818 0)
(20.1213 0.87823 0)
(22.7994 3.0228 0)
(22.7239 0.125581 0)
(25.3756 2.63036 0)
(25.3211 -1.12779 0)
(27.84 2.08507 0)
(27.9848 -2.6461 0)
(30.3345 0.452796 0)
(29.2961 -5.68191 0)
(32.0908 -2.3635 0)
(28.7319 -12.9575 0)
(11.1382 4.60473 0)
(11.324 2.27761 0)
(14.4844 3.51999 0)
(15.0432 2.05214 0)
(17.5607 3.51436 0)
(18.0435 1.7532 0)
(20.0991 3.33853 0)
(20.7009 1.34807 0)
(22.6396 2.84546 0)
(23.26 0.701097 0)
(24.9246 2.15062 0)
(25.8389 -0.446938 0)
(26.8547 1.09477 0)
(28.1046 -1.82669 0)
(28.213 -1.12429 0)
(29.0957 -3.98072 0)
(28.7018 -2.74774 0)
(28.8519 -7.31377 0)
(11.1208 5.07188 0)
(11.3789 2.24914 0)
(14.4902 3.89243 0)
(14.7892 2.11607 0)
(17.4633 4.01349 0)
(17.7407 1.94017 0)
(20.1365 3.85755 0)
(20.4766 1.52353 0)
(22.6873 3.24473 0)
(22.9591 0.77536 0)
(24.8394 2.43364 0)
(25.2164 -0.317366 0)
(26.562 1.35795 0)
(27.0007 -1.67479 0)
(27.7758 -0.519619 0)
(27.6124 -3.60139 0)
(27.9113 -3.04681 0)
(26.7333 -6.78302 0)
(10.9835 5.68417 0)
(11.5873 2.87916 0)
(14.0376 4.16813 0)
(15.0064 2.81012 0)
(17.0022 4.03166 0)
(18.0754 2.65412 0)
(19.7044 3.6968 0)
(20.8231 2.29061 0)
(22.1137 3.04807 0)
(23.2272 1.65999 0)
(24.0591 2.07382 0)
(25.3525 0.77279 0)
(25.6785 0.757365 0)
(26.7773 -0.31367 0)
(26.8583 -1.21291 0)
(27.3065 -2.00162 0)
(26.9701 -3.35764 0)
(26.5388 -3.91821 0)
(10.3753 6.15161 0)
(11.589 3.11307 0)
(13.64 4.3753 0)
(14.808 3.07823 0)
(16.5829 4.36264 0)
(17.6946 2.92827 0)
(19.3082 4.02884 0)
(20.356 2.46549 0)
(21.7837 3.40657 0)
(22.6881 1.78222 0)
(23.7573 2.40651 0)
(24.6834 0.842731 0)
(25.3837 1.15027 0)
(25.9378 -0.199595 0)
(26.3806 -0.59906 0)
(26.2808 -1.77465 0)
(26.3005 -2.55852 0)
(25.9185 -3.24313 0)
(10.4952 6.92632 0)
(11.9181 3.85854 0)
(13.5105 4.54835 0)
(14.8971 3.89286 0)
(16.3046 4.39588 0)
(17.6121 3.70182 0)
(18.9941 3.90975 0)
(20.2391 3.24873 0)
(21.4226 3.23249 0)
(22.4674 2.52376 0)
(23.3282 2.30805 0)
(24.3362 1.71093 0)
(24.8605 1.12973 0)
(25.3907 0.629108 0)
(25.633 -0.282615 0)
(25.7437 -0.843223 0)
(25.7163 -1.63559 0)
(25.4807 -2.17602 0)
(10.6185 7.34665 0)
(12.1268 4.28923 0)
(13.5955 4.83846 0)
(15.0172 4.39777 0)
(16.3312 4.65301 0)
(17.5824 4.09601 0)
(18.8425 4.19015 0)
(19.9964 3.58815 0)
(21.0984 3.53435 0)
(22.0685 2.85251 0)
(22.9603 2.69641 0)
(23.703 2.0315 0)
(24.3407 1.54148 0)
(24.7473 0.90575 0)
(25.0576 0.318716 0)
(25.1473 -0.306488 0)
(25.1116 -0.884592 0)
(24.9216 -1.42973 0)
(10.6277 8.10985 0)
(11.9495 5.01757 0)
(13.3107 5.09737 0)
(14.7258 4.98263 0)
(16.0874 4.86173 0)
(17.3943 4.62065 0)
(18.6261 4.35469 0)
(19.7589 4.01759 0)
(20.7973 3.65179 0)
(21.7486 3.27648 0)
(22.5635 2.84696 0)
(23.2601 2.45914 0)
(23.8109 1.93632 0)
(24.2333 1.43607 0)
(24.4549 0.944335 0)
(24.5559 0.432309 0)
(24.5908 -0.0629992 0)
(24.4015 -0.488683 0)
(10.4976 8.65319 0)
(12.078 5.45612 0)
(13.4875 5.28455 0)
(14.8636 5.16599 0)
(16.1964 5.02927 0)
(17.4595 4.81948 0)
(18.5876 4.58055 0)
(19.6221 4.24453 0)
(20.5402 3.92968 0)
(21.3602 3.55423 0)
(22.0823 3.20176 0)
(22.68 2.79008 0)
(23.1399 2.38922 0)
(23.5447 1.92378 0)
(23.8072 1.46575 0)
(23.9158 1.04354 0)
(23.9932 0.594305 0)
(23.8941 0.198493 0)
(10.5693 8.71533 0)
(12.1038 5.38658 0)
(13.4814 5.28709 0)
(14.7962 5.28933 0)
(16.0184 5.19896 0)
(17.2098 5.04505 0)
(18.2999 4.82371 0)
(19.3283 4.54274 0)
(20.2473 4.21842 0)
(21.0757 3.86181 0)
(21.7473 3.47639 0)
(22.3617 3.07324 0)
(22.8048 2.68769 0)
(23.1132 2.30723 0)
(23.3395 1.92925 0)
(23.4687 1.56558 0)
(23.5191 1.2286 0)
(23.4723 0.904596 0)
(10.6757 8.86299 0)
(12.176 5.40139 0)
(13.5008 5.27737 0)
(14.788 5.29241 0)
(15.956 5.1955 0)
(17.0768 4.97881 0)
(18.1022 4.68801 0)
(19.0869 4.39117 0)
(19.9536 4.1045 0)
(20.7124 3.82762 0)
(21.3402 3.5477 0)
(21.8675 3.26456 0)
(22.2654 2.94908 0)
(22.593 2.63547 0)
(22.7466 2.33256 0)
(22.8748 2.02939 0)
(22.9614 1.71804 0)
(22.9113 1.4309 0)
(10.609 8.18076 0)
(12.1899 4.8146 0)
(13.4665 4.75972 0)
(14.7348 4.883 0)
(15.9051 4.87561 0)
(16.9877 4.72214 0)
(17.9404 4.49169 0)
(18.8091 4.24628 0)
(19.5597 4.0125 0)
(20.2466 3.77578 0)
(20.8142 3.53226 0)
(21.3191 3.26122 0)
(21.7163 2.97446 0)
(22.0358 2.66633 0)
(22.2534 2.38501 0)
(22.4146 2.14181 0)
(22.502 1.88632 0)
(22.5128 1.65836 0)
(10.7792 7.75805 0)
(12.2882 4.40797 0)
(13.4605 4.21676 0)
(14.6807 4.24987 0)
(15.8569 4.21478 0)
(16.9267 4.10513 0)
(17.8124 3.93784 0)
(18.607 3.76001 0)
(19.3082 3.57133 0)
(19.9548 3.38297 0)
(20.5022 3.18526 0)
(20.973 2.99097 0)
(21.3428 2.76696 0)
(21.6401 2.54138 0)
(21.826 2.32347 0)
(21.9628 2.12036 0)
(22.0375 1.91631 0)
(22.0547 1.72358 0)
(10.6852 6.84556 0)
(12.2565 3.79629 0)
(13.5111 3.55654 0)
(14.7205 3.5625 0)
(15.8162 3.597 0)
(16.8043 3.56888 0)
(17.6795 3.47463 0)
(18.4807 3.33742 0)
(19.1584 3.17262 0)
(19.7664 3.01528 0)
(20.277 2.8402 0)
(20.7045 2.67699 0)
(21.0339 2.48915 0)
(21.3263 2.29551 0)
(21.5199 2.10411 0)
(21.6688 1.93572 0)
(21.7477 1.77027 0)
(21.7659 1.61999 0)
(10.8469 6.05085 0)
(12.4226 3.21769 0)
(13.5748 2.96275 0)
(14.6755 2.97202 0)
(15.7068 2.98523 0)
(16.682 2.90788 0)
(17.5893 2.80328 0)
(18.4144 2.677 0)
(19.1239 2.56057 0)
(19.7414 2.45594 0)
(20.252 2.34425 0)
(20.6694 2.22251 0)
(20.9845 2.07601 0)
(21.2504 1.9219 0)
(21.4316 1.76722 0)
(21.566 1.63144 0)
(21.6365 1.50123 0)
(21.6294 1.37656 0)
(10.8041 4.99303 0)
(12.4424 2.6384 0)
(13.662 2.414 0)
(14.8272 2.40094 0)
(15.8902 2.38694 0)
(16.873 2.33414 0)
(17.7524 2.23515 0)
(18.5008 2.12507 0)
(19.1316 2.01998 0)
(19.6683 1.95403 0)
(20.14 1.89463 0)
(20.5415 1.81366 0)
(20.8559 1.72699 0)
(21.1357 1.60195 0)
(21.3292 1.50788 0)
(21.4648 1.38456 0)
(21.536 1.25259 0)
(21.5361 1.13068 0)
(10.9454 4.19296 0)
(12.6311 2.0999 0)
(13.8973 1.84798 0)
(15.0387 1.80023 0)
(16.0508 1.78837 0)
(16.9694 1.80137 0)
(17.7861 1.77154 0)
(18.4948 1.69817 0)
(19.0977 1.60202 0)
(19.6017 1.52417 0)
(20.0304 1.44189 0)
(20.3979 1.3795 0)
(20.6902 1.29885 0)
(20.9873 1.20968 0)
(21.2068 1.12527 0)
(21.3322 1.03392 0)
(21.4375 0.929765 0)
(21.488 0.83461 0)
(11.1411 3.27779 0)
(12.7632 1.5393 0)
(13.9578 1.29651 0)
(15.0617 1.27289 0)
(16.0868 1.30739 0)
(17.0545 1.33694 0)
(17.9189 1.33394 0)
(18.6714 1.29226 0)
(19.3277 1.22574 0)
(19.8668 1.15123 0)
(20.3054 1.08806 0)
(20.6785 1.03823 0)
(20.9565 0.962149 0)
(21.218 0.90312 0)
(21.4186 0.796312 0)
(21.5313 0.740181 0)
(21.6034 0.649147 0)
(21.6338 0.568245 0)
(10.8921 2.63112 0)
(12.7319 1.18451 0)
(14.0072 0.92456 0)
(15.099 0.834835 0)
(16.0751 0.806864 0)
(16.9731 0.820562 0)
(17.7908 0.837949 0)
(18.5309 0.850309 0)
(19.1805 0.826597 0)
(19.761 0.768409 0)
(20.2611 0.710333 0)
(20.6653 0.660932 0)
(20.9669 0.606196 0)
(21.2281 0.573229 0)
(21.4229 0.538492 0)
(21.5236 0.497451 0)
(21.562 0.447784 0)
(21.5718 0.382796 0)
(10.5192 1.83637 0)
(12.5393 0.657217 0)
(14.1216 0.455003 0)
(15.3943 0.431024 0)
(16.3987 0.452225 0)
(17.2468 0.485528 0)
(17.9712 0.505929 0)
(18.6217 0.500085 0)
(19.2043 0.468555 0)
(19.7173 0.421175 0)
(20.1574 0.381549 0)
(20.5023 0.358087 0)
(20.7582 0.334566 0)
(20.9737 0.327927 0)
(21.1066 0.309966 0)
(21.1642 0.288358 0)
(21.1664 0.245987 0)
(21.1159 0.200302 0)
(10.7612 1.05766 0)
(12.9402 0.0796523 0)
(14.4594 -0.018894 0)
(15.5806 0.0118933 0)
(16.4424 0.0872787 0)
(17.1617 0.173928 0)
(17.7476 0.213014 0)
(18.2825 0.23761 0)
(18.704 0.227579 0)
(19.0641 0.177904 0)
(19.3461 0.150247 0)
(19.5051 0.145383 0)
(19.6337 0.146158 0)
(19.7029 0.165128 0)
(19.7014 0.149859 0)
(19.6361 0.139963 0)
(19.52 0.121788 0)
(19.3937 0.115363 0)
(10.8247 0.609186 0)
(12.9845 -0.296188 0)
(14.3478 -0.35154 0)
(15.1313 -0.250854 0)
(15.6504 -0.116353 0)
(16.0563 0.0182563 0)
(16.3621 0.0695106 0)
(16.6503 0.099278 0)
(16.8036 0.0854216 0)
(16.9415 0.0853766 0)
(16.9755 0.064769 0)
(16.9611 0.0827655 0)
(16.9355 0.110113 0)
(16.8479 0.130162 0)
(16.7329 0.137021 0)
(16.6071 0.115901 0)
(16.4386 0.122883 0)
(16.2436 0.126421 0)
(10.8117 -0.302557 0)
(12.3898 -0.808016 0)
(12.8285 -0.616905 0)
(12.7272 -0.390847 0)
(12.6526 -0.17705 0)
(12.676 -0.0163039 0)
(12.8127 0.0615304 0)
(12.9924 0.095161 0)
(13.0922 0.0896164 0)
(13.2048 0.104792 0)
(13.2682 0.101882 0)
(13.3126 0.10093 0)
(13.3261 0.112271 0)
(13.3116 0.118072 0)
(13.2919 0.127856 0)
(13.2363 0.116967 0)
(13.1234 0.103098 0)
(12.9993 0.100063 0)
(9.33747 -0.157627 0)
(8.42109 -0.274595 0)
(7.63527 -0.0617553 0)
(7.35266 0.0526602 0)
(7.55354 0.084798 0)
(7.95958 0.076445 0)
(8.46893 0.0694366 0)
(8.94835 0.0578417 0)
(9.36101 0.0472965 0)
(9.72763 0.0482762 0)
(10.0344 0.0458517 0)
(10.2813 0.0445656 0)
(10.4785 0.051147 0)
(10.6333 0.0506101 0)
(10.7637 0.0590882 0)
(10.8523 0.0552098 0)
(10.8941 0.0497825 0)
(10.8557 0.0645933 0)
(-0.0518817 -0.478858 0)
(-0.254843 -0.256637 0)
(-0.634542 -0.29023 0)
(-1.00508 -0.412379 0)
(-1.30664 -0.490856 0)
(-1.50751 -0.595912 0)
(-1.58507 -0.701224 1.09869e-17)
(-1.53238 -0.804559 -1.0981e-17)
(-1.42087 -0.853238 0)
(-1.22092 -0.885402 -1.09234e-17)
(-0.993732 -0.873538 0)
(-0.784803 -0.847448 0)
(-0.584576 -0.828347 0)
(-0.415211 -0.801145 1.06878e-17)
(-0.292644 -0.784827 0)
(-0.177328 -0.768534 0)
(-0.100351 -0.752803 -1.05163e-17)
(-0.0168903 -0.75129 0)
(0.0452367 -0.753156 0)
(0.0691785 -0.737934 0)
(0.134446 -0.699806 1.02924e-17)
(0.158773 -0.682512 0)
(0.152696 -0.645524 1.01764e-17)
(0.128002 -0.620414 0)
(0.0600513 -0.59712 0)
(-0.0432474 -0.556597 1.00079e-17)
(-0.208397 -0.523949 0)
(-0.413035 -0.461524 -9.89087e-18)
(-0.6448 -0.385527 0)
(-0.920017 -0.324085 9.76675e-18)
(-1.28356 -0.247441 0)
(-1.75532 -0.167654 0)
(-2.31246 -0.0550803 0)
(-3.03526 0.108304 0)
(-3.87785 0.267403 0)
(-4.84365 0.428876 -9.35162e-18)
(-6.05227 0.399723 0)
(-7.21679 -0.069229 1.88079e-17)
(-8.19485 -0.7022 0)
(-9.02062 -0.821247 -1.85785e-17)
(-9.6536 -0.508518 0)
(-10.163 -0.269181 0)
(-10.7405 -0.182075 1.80552e-17)
(-11.438 -0.155908 0)
(-12.0888 -0.18423 1.77163e-17)
(-12.5929 -0.294459 -1.76163e-17)
(-12.9733 -0.410007 0)
(-13.0509 -0.53345 -1.74177e-17)
(-12.9904 -0.579933 -1.73117e-17)
(-13.0049 -0.601124 0)
(-12.4186 -0.832527 0)
(-11.8041 -0.468981 0)
(-11.5582 0.00742438 0)
(-11.616 0.258308 0)
(-11.7647 0.621216 1.63181e-17)
(-12.1344 0.595591 0)
(-12.6653 -0.0416974 -1.62754e-17)
(-13.0829 -0.840596 0)
(-13.3187 -1.25993 0)
(-13.7428 -0.883579 1.62183e-17)
(-14.8213 0.114533 0)
(-16.2392 0.898335 -1.62624e-17)
(-17.6093 1.10331 0)
(-18.9056 1.09195 0)
(-20.0297 1.02772 0)
(-20.9591 0.957258 1.52349e-17)
(-21.7336 0.89761 0)
(-22.278 0.845573 0)
(-22.6611 0.779457 1.47794e-17)
(-22.8977 0.738774 0)
(-23.001 0.692845 1.45171e-17)
(-22.9277 0.664981 0)
(-22.7196 0.618792 0)
(-22.4202 0.594372 0)
(-21.994 0.56938 -1.40339e-17)
(-21.4848 0.55475 0)
(-20.8906 0.549247 0)
(-20.2435 0.550734 -1.36903e-17)
(-19.5488 0.573815 -1.358e-17)
(-18.8322 0.603662 0)
(-18.0856 0.618361 -1.33611e-17)
(-17.3208 0.648064 0)
(-16.5759 0.70016 -2.62916e-17)
(-15.8279 0.74536 0)
(-15.0496 0.778422 -2.58533e-17)
(-14.3099 0.8251 0)
(-13.603 0.875914 2.54319e-17)
(-12.888 0.919473 0)
(-12.1771 0.963014 0)
(-11.4879 1.00509 0)
(-10.7771 1.02418 -2.45832e-17)
(-10.0882 1.0915 0)
(-9.35319 1.09881 2.41657e-17)
(-8.58298 1.1359 0)
(-7.88213 1.18275 -2.37715e-17)
(-7.09898 1.2079 -2.35617e-17)
(-6.34204 1.2423 -2.33775e-17)
(-5.5892 1.27757 0)
(-4.80945 1.31442 0)
(-4.09004 1.33331 0)
(-3.34755 1.39643 0)
(-2.65604 1.42199 0)
(-2.02788 1.46404 0)
(-1.38172 1.49055 0)
(-0.764412 1.50643 0)
(-0.159793 1.5187 2.20366e-17)
(0.42524 1.53423 2.19238e-17)
(0.976871 1.55721 0)
(1.5073 1.57965 0)
(2.00223 1.58049 0)
(2.48838 1.57359 2.16626e-17)
(2.92884 1.56461 0)
(3.2743 1.54525 0)
(3.526 1.56195 0)
(3.69146 1.58227 0)
(3.81055 1.57998 -2.1191e-17)
(3.85288 1.56715 0)
(3.82159 1.61227 0)
(3.76316 1.63149 2.08603e-17)
(3.62503 1.60861 -2.07571e-17)
(3.26574 1.59283 0)
(2.633 1.61138 -2.07154e-17)
(1.84375 1.61263 0)
(1.0029 1.6924 2.06474e-17)
(0.0632408 1.73313 0)
(-0.97807 1.67805 0)
(-2.0115 1.65846 0)
(-2.97334 1.61386 0)
(-3.57092 1.46006 0)
(-4.00834 1.37176 -3.97365e-17)
(-4.6893 1.33526 -3.93855e-17)
(-4.20437 1.08362 0)
(-5.4491 1.37896 0)
(-4.57015 0.888788 0)
(-5.81327 1.26754 3.81206e-17)
(-5.14896 0.742443 0)
(-5.25788 1.07793 0)
(-5.18284 0.997911 0)
(-5.80042 1.07629 3.67845e-17)
(-6.80358 1.11114 -3.68596e-17)
(-6.4451 0.6788 0)
(-5.3527 0.77795 0)
(-5.44385 0.865986 -3.55928e-17)
(-5.3313 0.843364 -3.53228e-17)
(-5.19166 0.898946 0)
(-5.00914 0.807794 0)
(-4.80218 0.882523 3.4366e-17)
(-4.6464 0.930286 -3.40746e-17)
(-4.55424 0.944451 0)
(-4.55067 0.962012 0)
(-4.64787 0.978784 -3.30867e-17)
(-4.55846 1.02872 0)
(-4.62263 1.0115 0)
(-4.61629 0.917508 -3.20013e-17)
(-4.80392 0.893002 0)
(-5.0476 0.936717 -3.13543e-17)
(-5.27264 0.91124 0)
(-5.46334 0.947666 0)
(-5.64194 0.985518 0)
(-6.26851 0.996514 3.02978e-17)
(-6.99433 1.14369 0)
(-8.66987 1.31746 0)
(-9.5034 1.29727 0)
(-11.0005 1.41337 0)
(-11.4867 1.2685 0)
(-10.1662 1.22927 0)
(-10.3361 1.53839 2.82496e-17)
(-9.38097 1.35304 2.78135e-17)
(-7.86739 1.30013 0)
(-5.79904 1.48817 0)
(-4.66335 1.64705 0)
(-3.27874 1.63133 -2.74716e-17)
(-0.70385 1.70256 0)
(1.57976 1.82587 5.63156e-17)
(2.30294 2.0337 -5.6036e-17)
(2.28985 2.22471 -5.50323e-17)
(3.30618 2.21573 5.44906e-17)
(4.87845 2.09684 -5.49318e-17)
(6.98357 2.00748 5.55551e-17)
(8.09188 2.1198 0)
(-0.0355371 -1.77963 0)
(-0.070178 -1.35704 0)
(-0.201636 -1.07353 -2.17576e-17)
(-0.47535 -1.10621 0)
(-0.768726 -1.33766 2.13378e-17)
(-0.981228 -1.70928 2.16595e-17)
(-1.10806 -2.10769 1.10851e-17)
(-1.08309 -2.47132 1.12194e-17)
(-0.978357 -2.68903 0)
(-0.80436 -2.81498 1.13499e-17)
(-0.593547 -2.83682 0)
(-0.379734 -2.77065 0)
(-0.222929 -2.72753 -2.24859e-17)
(-0.0513048 -2.64435 -1.11436e-17)
(0.0543895 -2.59434 2.2197e-17)
(0.175287 -2.55041 2.20536e-17)
(0.24504 -2.4993 1.09413e-17)
(0.274404 -2.48842 0)
(0.396986 -2.45972 0)
(0.44008 -2.45703 0)
(0.543516 -2.41121 1.07017e-17)
(0.585294 -2.34701 0)
(0.612242 -2.29964 -3.16112e-17)
(0.648238 -2.20607 0)
(0.599561 -2.14277 0)
(0.582089 -2.07932 -1.03131e-17)
(0.495134 -1.95925 0)
(0.349521 -1.88444 1.01896e-17)
(0.269851 -1.7463 2.02296e-17)
(0.0134277 -1.59708 -1.00508e-17)
(-0.209299 -1.46028 0)
(-0.443677 -1.23896 0)
(-0.802453 -0.988419 0)
(-1.09407 -0.708005 1.94151e-17)
(-1.6112 -0.383398 1.93082e-17)
(-2.15759 -0.0582836 9.51199e-18)
(-2.69588 0.314859 0)
(-3.55722 0.397324 -1.86281e-17)
(-4.59738 0.422006 0)
(-5.90912 0.285617 1.81026e-17)
(-7.51742 -0.528272 0)
(-8.7204 -0.985396 0)
(-9.68451 -0.713236 -1.72916e-17)
(-10.7772 -0.474087 0)
(-11.5978 -0.675157 -5.18134e-17)
(-12.0966 -1.02374 1.72114e-17)
(-12.4984 -1.40279 0)
(-12.3693 -1.87745 1.69734e-17)
(-12.2483 -1.86483 1.67759e-17)
(-11.8639 -2.0031 0)
(-11.1461 -3.26636 0)
(-10.7746 -2.94251 0)
(-10.4091 -2.03101 0)
(-10.7179 -1.68333 0)
(-11.2116 -1.28688 -1.60252e-17)
(-12.1835 -0.523513 -3.23243e-17)
(-13.5443 0.352828 1.63639e-17)
(-15.6103 1.18858 0)
(-18.0483 1.86718 -3.18944e-17)
(-20.1212 2.40186 1.57091e-17)
(-21.6103 2.71253 0)
(-22.7038 2.74341 1.53152e-17)
(-23.6664 2.60334 0)
(-24.5554 2.46343 0)
(-25.2553 2.27009 2.9685e-17)
(-25.7688 2.09713 -1.47647e-17)
(-26.1688 1.90104 2.92658e-17)
(-26.404 1.72075 -2.9071e-17)
(-26.4745 1.57951 -1.44677e-17)
(-26.4222 1.42794 0)
(-26.2394 1.31824 -1.42769e-17)
(-25.9135 1.23125 0)
(-25.4891 1.13421 0)
(-24.9494 1.0839 0)
(-24.3249 1.04282 -1.38085e-17)
(-23.6114 1.02143 0)
(-22.8337 1.04272 -2.72326e-17)
(-22.0172 1.07365 4.05393e-17)
(-21.1609 1.13383 1.3418e-17)
(-20.3108 1.20014 0)
(-19.4197 1.2626 1.31925e-17)
(-18.5181 1.36953 0)
(-17.6576 1.50378 2.59091e-17)
(-16.7812 1.59553 0)
(-15.9134 1.72217 2.54335e-17)
(-15.0711 1.88768 -5.02387e-17)
(-14.2285 1.99386 -2.49747e-17)
(-13.4515 2.1145 0)
(-12.6302 2.26434 0)
(-11.8777 2.37199 0)
(-11.023 2.47373 2.40009e-17)
(-10.2975 2.578 0)
(-9.47063 2.63403 -2.35597e-17)
(-8.67315 2.74477 0)
(-7.8349 2.8792 6.88618e-17)
(-7.00477 2.92681 2.27588e-17)
(-6.21175 3.06119 2.24515e-17)
(-5.36519 3.15691 0)
(-4.59822 3.27187 0)
(-3.79283 3.40272 0)
(-3.04527 3.54094 0)
(-2.31251 3.68144 0)
(-1.64362 3.82552 4.21072e-17)
(-0.98376 3.9603 4.17912e-17)
(-0.334306 4.04662 0)
(0.307577 4.08413 -2.06442e-17)
(0.896102 4.12922 -2.05296e-17)
(1.43153 4.16352 0)
(1.91469 4.21586 -4.08234e-17)
(2.35419 4.21092 0)
(2.78672 4.22131 2.04059e-17)
(3.14052 4.30984 0)
(3.41561 4.40207 0)
(3.58889 4.46755 -4.05337e-17)
(3.61757 4.48823 0)
(3.62457 4.52016 1.98401e-17)
(3.56998 4.57156 0)
(3.33375 4.48725 0)
(3.00609 4.38885 1.95483e-17)
(2.71633 4.5777 1.94813e-17)
(2.39531 4.92557 0)
(1.71971 5.12953 -1.9951e-17)
(0.647421 5.15956 0)
(-0.565774 5.01284 2.07672e-17)
(-1.72475 4.91591 4.1385e-17)
(-2.59708 4.88489 0)
(-3.36711 4.72006 0)
(-4.04343 4.41398 0)
(-4.18827 3.93615 0)
(-4.3308 3.72491 3.97237e-17)
(-4.78414 3.58671 1.17818e-16)
(-3.71355 3.0478 0)
(-5.39996 3.712 0)
(-2.84328 2.52301 0)
(-5.83446 3.48715 -3.78931e-17)
(-2.29893 2.07881 0)
(-4.93804 2.97963 0)
(-2.92327 2.82892 7.64339e-17)
(-5.14252 3.00434 3.6615e-17)
(-5.33582 2.90175 3.77866e-17)
(-5.79159 1.52986 0)
(-4.12678 1.55977 0)
(-3.72396 2.10003 3.56085e-17)
(-3.25251 2.09742 -3.54927e-17)
(-2.93279 2.08097 0)
(-2.16907 2.05378 0)
(-1.51504 2.14224 -3.43748e-17)
(-1.17133 2.10698 1.03174e-16)
(-1.37995 2.20848 0)
(-1.41338 2.34548 0)
(-1.65426 2.48231 3.37769e-17)
(-1.2135 2.52626 0)
(-0.945107 2.47894 6.52107e-17)
(-0.160638 2.42617 -3.18724e-17)
(0.307741 2.57493 0)
(0.33401 2.72382 3.0371e-17)
(-0.187397 2.76848 6.00746e-17)
(-0.978862 2.71007 0)
(-2.15406 2.8655 0)
(-3.79212 3.0437 -2.89588e-17)
(-5.28469 3.20227 0)
(-7.71974 3.57967 5.60565e-17)
(-8.41681 3.49389 0)
(-10.2636 3.55131 0)
(-10.3289 2.58274 0)
(-8.68988 2.60391 0)
(-8.42378 3.3033 -2.58077e-17)
(-7.20201 2.69854 -2.54403e-17)
(-5.26339 2.60767 0)
(-2.27557 3.07609 0)
(-1.42991 3.73247 0)
(0.0576856 3.47946 2.39406e-17)
(3.2418 3.91304 0)
(5.40728 4.95504 -5.13115e-17)
(5.17007 5.7997 5.10153e-17)
(4.17969 5.81743 4.87997e-17)
(5.07656 5.42049 4.67011e-17)
(7.00705 5.37809 4.66712e-17)
(9.52692 5.7457 4.88695e-17)
(9.99098 6.39434 0)
(-0.0314679 -3.15859 0)
(-0.0746104 -2.74393 0)
(-0.132599 -2.24491 2.18463e-17)
(-0.258419 -2.07146 2.13824e-17)
(-0.421459 -2.2652 -2.14498e-17)
(-0.575214 -2.78894 -2.21149e-17)
(-0.621714 -3.42207 8.44073e-20)
(-0.55912 -3.99823 0)
(-0.449229 -4.36808 0)
(-0.311807 -4.52367 0)
(-0.186644 -4.5515 0)
(-0.0667811 -4.47157 0)
(0.0302993 -4.38766 6.94808e-17)
(0.100236 -4.28668 0)
(0.173181 -4.19341 -2.27375e-17)
(0.20986 -4.13611 -2.25397e-17)
(0.247247 -4.04704 0)
(0.226251 -4.01279 0)
(0.320453 -3.98038 0)
(0.357189 -3.96825 0)
(0.444061 -3.94165 -2.15289e-17)
(0.507721 -3.82657 0)
(0.543954 -3.77103 2.11793e-17)
(0.586529 -3.64435 0)
(0.572234 -3.50722 0)
(0.591611 -3.42714 0)
(0.523613 -3.21252 4.11591e-17)
(0.42677 -3.14 0)
(0.291771 -2.98607 -2.02186e-17)
(0.0846223 -2.74201 4.03466e-17)
(-0.170405 -2.61094 0)
(-0.407167 -2.21648 0)
(-0.671688 -1.94436 0)
(-0.987194 -1.6669 -1.96323e-17)
(-1.41202 -1.11598 -1.95819e-17)
(-1.73948 -0.804746 0)
(-2.1706 -0.435254 0)
(-2.76559 0.094781 3.83821e-17)
(-3.24494 0.306974 3.76906e-17)
(-4.10356 0.455251 -3.71257e-17)
(-5.10842 0.671066 0)
(-6.2519 0.448241 0)
(-8.00663 0.108248 0)
(-9.27619 -0.119175 0)
(-10.262 -0.67087 3.39911e-17)
(-11.3549 -1.6478 3.44437e-17)
(-12.4308 -2.4306 -3.48087e-17)
(-12.5349 -3.24519 0)
(-12.9434 -3.47468 0)
(-11.9686 -4.50472 0)
(-12.4301 -4.83726 0)
(-13.5637 -3.65221 3.39558e-17)
(-14.4836 -1.45785 0)
(-15.8366 0.127369 0)
(-17.517 1.41061 3.27254e-17)
(-19.1407 2.47719 3.24551e-17)
(-20.4869 3.25309 0)
(-21.8363 3.54465 -6.33458e-17)
(-22.9765 3.71996 3.14637e-17)
(-24.0203 3.80102 -3.12614e-17)
(-24.9162 3.90909 0)
(-25.6277 3.92332 0)
(-26.1524 3.71968 0)
(-26.5756 3.56152 0)
(-26.9061 3.34397 -3.07839e-17)
(-27.1282 3.06775 -6.12019e-17)
(-27.2473 2.85683 -3.06048e-17)
(-27.2041 2.61985 3.05028e-17)
(-27.0746 2.42692 0)
(-26.8755 2.22592 -6.0321e-17)
(-26.5107 2.06308 -6.00111e-17)
(-26.0716 1.9482 -5.96984e-17)
(-25.5237 1.84523 5.93704e-17)
(-24.9013 1.78495 0)
(-24.1875 1.75005 8.80586e-17)
(-23.3945 1.73141 0)
(-22.5617 1.78694 -2.8805e-17)
(-21.6689 1.86306 -2.88195e-17)
(-20.7829 1.97493 0)
(-19.8638 2.11533 0)
(-18.9462 2.25746 -5.61036e-17)
(-17.9651 2.45047 0)
(-17.095 2.6947 -5.52393e-17)
(-16.2147 2.86595 0)
(-15.2992 3.07834 5.44025e-17)
(-14.481 3.34663 1.07924e-16)
(-13.5827 3.57911 0)
(-12.8241 3.80089 0)
(-11.9647 4.03871 0)
(-11.2629 4.23026 5.2119e-17)
(-10.3449 4.44284 0)
(-9.66205 4.63386 5.10988e-17)
(-8.76322 4.76573 0)
(-7.99081 4.93759 0)
(-7.12726 5.10359 -9.929e-17)
(-6.22414 5.23952 0)
(-5.43152 5.45547 -4.82863e-17)
(-4.51236 5.58802 0)
(-3.73794 5.76124 -4.69331e-17)
(-2.84076 5.96028 0)
(-2.115 6.1118 0)
(-1.34803 6.28718 0)
(-0.650043 6.47922 -1.32257e-16)
(0.0125856 6.60816 -4.358e-17)
(0.610408 6.70719 0)
(1.16421 6.75561 0)
(1.61487 6.87074 0)
(2.00307 6.98139 0)
(2.36146 7.0789 4.10363e-17)
(2.78583 7.14907 -8.12448e-17)
(3.20141 7.22111 -4.065e-17)
(3.47 7.34039 8.11901e-17)
(3.55534 7.42897 8.1202e-17)
(3.54227 7.55471 4.04812e-17)
(3.54805 7.61674 0)
(3.5784 7.56728 7.83168e-17)
(3.57209 7.56484 0)
(3.46664 7.80118 -7.71458e-17)
(3.01069 7.91361 -3.97046e-17)
(2.27404 7.63479 0)
(1.71091 7.64234 7.53911e-17)
(1.29217 8.11626 3.80046e-17)
(0.707878 8.55574 0)
(0.00560056 8.61931 4.0652e-17)
(-0.754284 8.51125 -1.24963e-16)
(-1.37901 8.1617 0)
(-1.77542 7.68376 0)
(-2.23383 7.23107 0)
(-1.99089 6.43522 0)
(-2.05524 6.07166 -7.93071e-17)
(-2.79852 5.81223 -7.79519e-17)
(-1.35301 5.06669 0)
(-4.14607 5.51495 0)
(0.192778 4.26705 0)
(-4.96454 5.34812 0)
(0.703508 3.28304 0)
(-3.4884 4.89453 0)
(0.530563 4.80035 -7.53937e-17)
(-3.22879 5.43564 1.71202e-19)
(-2.79814 5.40848 0)
(-4.91938 3.26014 0)
(-3.15185 2.58904 -7.61408e-17)
(-3.02186 3.45046 0)
(-2.23525 3.33357 7.27141e-17)
(-2.52341 3.25886 7.13867e-17)
(-1.58282 2.98546 0)
(-0.53146 3.20347 0)
(0.751042 3.92895 -6.80156e-17)
(0.438094 4.77338 -1.41931e-16)
(-0.0291598 4.91297 0)
(-0.689397 4.84739 0)
(-0.515903 4.54231 0)
(-0.764689 4.13159 -7.15886e-17)
(-0.0969607 3.70351 6.92305e-17)
(0.845043 3.89584 0)
(2.07544 4.34503 1.25751e-16)
(2.34152 4.78077 6.05696e-17)
(1.42428 4.98873 -1.18272e-16)
(-0.337437 5.18148 0)
(-2.59436 5.59023 0)
(-4.24889 5.92219 -1.12546e-16)
(-6.71796 6.11633 -5.49469e-17)
(-7.11418 5.84364 0)
(-8.94077 6.09424 0)
(-9.89009 4.99295 0)
(-8.71423 4.89785 0)
(-7.41942 5.85563 -1.06889e-16)
(-7.54815 5.27706 0)
(-4.40796 4.76259 0)
(-0.32878 5.65363 0)
(0.502576 6.66045 0)
(1.49832 6.06381 0)
(5.02164 6.29715 0)
(7.10403 8.1795 -9.90615e-17)
(6.64258 9.87394 0)
(5.50179 10.1678 0)
(5.95774 9.25634 -1.81266e-16)
(7.55502 8.59176 8.83704e-17)
(11.3074 9.20314 -8.89291e-17)
(12.0004 10.6751 9.51178e-17)
(-0.0574735 -4.39547 0)
(-0.140781 -4.02782 -4.69539e-17)
(-0.201466 -3.4507 0)
(-0.254841 -3.224 -2.20383e-17)
(-0.269818 -3.55593 0)
(-0.188972 -4.26015 0)
(-0.0371246 -5.03371 2.35362e-17)
(0.0924491 -5.65126 0)
(0.186944 -6.01797 0)
(0.240506 -6.16968 0)
(0.255927 -6.14823 0)
(0.236844 -6.04691 0)
(0.236884 -5.92786 -9.19704e-17)
(0.231713 -5.82869 -4.56637e-17)
(0.249228 -5.70833 4.52011e-17)
(0.233989 -5.61379 0)
(0.24077 -5.50501 0)
(0.280375 -5.4907 0)
(0.411997 -5.50519 0)
(0.5218 -5.49556 0)
(0.693878 -5.48346 -4.26645e-17)
(0.833327 -5.38045 -4.23305e-17)
(0.999767 -5.29387 4.19751e-17)
(1.16128 -5.19083 -4.1637e-17)
(1.26665 -5.00826 0)
(1.33274 -4.86864 0)
(1.33007 -4.64131 -4.06399e-17)
(1.29642 -4.38674 0)
(1.14597 -4.15254 0)
(0.966327 -3.8726 -3.9821e-17)
(0.589202 -3.52885 -3.96635e-17)
(0.288294 -3.21883 -3.923e-17)
(-0.167713 -2.92207 0)
(-0.695639 -2.45309 0)
(-1.08098 -2.20613 3.8509e-17)
(-1.61666 -1.80694 0)
(-2.09226 -1.10462 0)
(-2.44501 -0.844911 -3.8157e-17)
(-2.93797 -0.446366 3.80943e-17)
(-3.71964 0.383158 -3.77158e-17)
(-4.23071 0.421766 0)
(-5.01136 0.370147 0)
(-6.29089 0.785157 -7.20338e-17)
(-7.30436 0.667172 0)
(-8.22849 -0.0427408 -6.91122e-17)
(-9.31849 -0.729067 -1.02675e-16)
(-10.7183 -1.95174 1.03043e-16)
(-11.348 -3.13792 -6.76394e-17)
(-12.2718 -4.53704 0)
(-12.6876 -4.91794 0)
(-14.7529 -2.60577 -6.76916e-17)
(-16.5369 -1.36538 -3.31827e-17)
(-17.9924 -0.214199 0)
(-19.4897 1.16319 0)
(-20.6617 2.23535 -3.25068e-17)
(-21.9425 3.20531 -6.43872e-17)
(-22.9353 3.91329 0)
(-23.8506 4.36292 6.40199e-17)
(-24.6181 4.52893 -6.36591e-17)
(-25.2503 4.63341 6.3567e-17)
(-25.7583 4.58993 0)
(-26.0878 4.4233 0)
(-26.3488 4.28547 0)
(-26.552 4.02722 0)
(-26.638 3.79017 0)
(-26.6807 3.52612 6.26876e-17)
(-26.6465 3.2956 0)
(-26.5238 3.07081 0)
(-26.3133 2.83169 0)
(-26.0057 2.60437 1.22078e-16)
(-25.5711 2.4115 6.07873e-17)
(-25.0423 2.23298 6.0357e-17)
(-24.4356 2.11006 -1.19577e-16)
(-23.7215 2.02576 5.92434e-17)
(-22.9779 1.99092 -5.90715e-17)
(-22.0971 1.97247 0)
(-21.2642 2.01698 5.8223e-17)
(-20.2734 2.14362 0)
(-19.3613 2.33841 0)
(-18.3756 2.54231 0)
(-17.4443 2.80047 1.12911e-16)
(-16.4831 3.02922 -5.59948e-17)
(-15.5065 3.37583 -5.53043e-17)
(-14.6463 3.65857 -1.10355e-16)
(-13.7911 3.94626 -1.64867e-16)
(-12.9677 4.25114 -5.47567e-17)
(-12.1523 4.60404 0)
(-11.346 4.93135 -1.07438e-16)
(-10.5987 5.24616 0)
(-9.89811 5.5127 -1.59499e-16)
(-9.09309 5.77366 0)
(-8.34017 6.10798 -1.57173e-16)
(-7.54606 6.26197 0)
(-6.7273 6.5831 0)
(-5.9718 6.81754 -5.10447e-17)
(-4.99703 7.03947 0)
(-4.2011 7.36802 5.08552e-17)
(-3.26356 7.53944 1.00513e-16)
(-2.44029 7.91043 5.00202e-17)
(-1.504 8.14382 9.83903e-17)
(-0.677048 8.47392 -9.73612e-17)
(0.135369 8.77303 -9.61549e-17)
(0.872367 9.06741 1.89959e-16)
(1.5617 9.27859 0)
(2.15198 9.52793 0)
(2.71074 9.78121 9.13795e-17)
(3.13775 9.95559 -9.00582e-17)
(3.56276 10.0168 0)
(3.90923 9.92678 0)
(4.20736 9.7065 8.39868e-17)
(4.23077 9.66549 0)
(4.08725 10.0435 -3.00694e-19)
(4.09196 10.4944 -2.83554e-19)
(4.20797 10.6583 8.15126e-17)
(4.38431 10.5682 0)
(4.35458 10.5473 -8.04712e-17)
(4.09657 10.5025 0)
(3.84311 10.5503 7.66383e-17)
(3.71438 10.9468 0)
(3.17826 11.4282 0)
(2.05639 11.4389 -8.14575e-17)
(1.27885 11.3039 -7.86954e-17)
(0.79618 11.4044 0)
(0.526132 11.16 -7.95725e-17)
(0.298846 10.79 1.59837e-16)
(0.0992916 10.2846 0)
(-0.0890813 9.73624 0)
(-0.609182 9.13479 0)
(-0.0623788 8.21477 0)
(0.00242995 8.08425 7.62465e-17)
(-0.938041 7.93093 -1.53076e-16)
(0.725831 7.38873 0)
(-2.6402 7.53848 0)
(1.48273 6.34874 0)
(-4.13369 7.36897 0)
(1.89676 4.88449 0)
(-4.24571 6.29968 0)
(2.34511 6.06014 0)
(-1.79617 7.27646 7.00516e-17)
(-0.344354 7.42923 0)
(-3.22854 5.17043 0)
(-1.8735 3.43544 7.6356e-17)
(-1.76787 5.00959 0)
(-0.366694 5.19143 0)
(-1.11349 5.46044 -7.60956e-17)
(-1.14448 4.50464 0)
(-0.835636 4.0134 0)
(1.26858 4.33323 1.331e-16)
(2.32417 5.33727 1.32565e-16)
(2.81192 5.84619 1.38619e-16)
(2.40501 5.97428 0)
(2.95011 5.96162 1.44318e-16)
(2.25179 6.35205 0)
(1.67175 6.0158 -1.48855e-16)
(1.15314 5.31149 0)
(2.12474 5.51708 -1.35586e-16)