/*--------------------------------*- C++ -*----------------------------------*\
| =========                 |                                                 |
| \\      /  F ield         | OpenFOAM: The Open Source CFD Toolbox           |
|  \\    /   O peration     | Version:  dev                                   |
|   \\  /    A nd           | Web:      http://www.openfoam.org               |
|    \\/     M anipulation  |                                                 |
\*---------------------------------------------------------------------------*/
FoamFile
{
    version     2.0;
    format      ascii;
    class       volVectorField;
    object      U_0;
    location    "9.122";
}
// * * * * * * * * * * * * * * * * * * * * * * * * * * * * * * * * * * * * * //

dimensions      [0 1 -1 0 0 0 0];

internalField   nonuniform List<vector> 
12225
(
(7.48058 0.426274 0)
(5.89172 0.0661738 0)
(5.37719 -0.0905892 0)
(6.62311 -0.138359 0)
(6.70547 -0.106285 0)
(9.06186 -0.159737 0)
(8.67938 -0.0750981 0)
(11.61 -0.186119 0)
(10.8465 -0.0383045 0)
(14.3471 -0.227629 0)
(13.1008 -0.0315439 0)
(17.4232 -0.306487 0)
(16.0554 -0.0316205 0)
(20.7149 -0.417222 0)
(21.3638 -0.382681 0)
(23.8407 1.2889 0)
(29.6079 -5.79837 0)
(35.5419 3.77173 0)
(9.80708 0.89936 0)
(10.9481 0.486436 0)
(9.61819 0.113033 0)
(11.9637 -0.13268 0)
(9.62359 -0.217409 0)
(14.0325 -0.315711 0)
(10.3666 -0.275831 0)
(16.8326 -0.40063 0)
(11.778 -0.326128 0)
(20.341 -0.535475 0)
(13.8294 -0.45937 0)
(24.6037 -0.985342 0)
(17.1561 -0.280833 0)
(29.5776 -2.4354 0)
(22.2934 0.908419 0)
(36.1511 -4.30611 0)
(25.3508 -2.84959 0)
(52.8459 -11.3385 0)
(9.42847 0.485062 0)
(13.5901 0.294321 0)
(11.1653 -0.00768083 0)
(16.1601 -0.125948 0)
(11.7738 -0.3001 0)
(18.5154 -0.27396 0)
(12.5288 -0.44547 0)
(21.1479 -0.504542 0)
(14.1565 -0.539853 0)
(23.9384 -0.977958 0)
(17.3062 -0.665677 0)
(26.5541 -1.82893 0)
(21.6833 -0.661934 0)
(28.8893 -3.13614 0)
(27.0117 -0.535219 0)
(33.4059 -3.39119 0)
(28.6813 -7.78727 0)
(40.552 -18.2382 0)
(7.60798 0.217022 0)
(15.1369 -0.0146332 0)
(11.1 -0.277134 0)
(18.1314 -0.298005 0)
(13.5486 -0.39433 0)
(20.4274 -0.540858 0)
(16.1055 -0.414928 0)
(22.508 -0.97826 0)
(18.6293 -0.417894 0)
(24.4356 -1.7242 0)
(21.0932 -0.435674 0)
(26.5309 -2.87785 0)
(23.8041 -0.341279 0)
(29.0371 -4.81963 0)
(27.396 -0.148433 0)
(35.2132 -6.35451 0)
(28.8395 -6.97063 0)
(35.608 -19.4322 0)
(7.98907 0.238629 0)
(13.7488 -0.814957 0)
(12.3315 -0.454665 0)
(16.4665 -0.966573 0)
(15.7227 -0.364878 0)
(18.5559 -1.1793 0)
(18.51 -0.354517 0)
(20.6785 -1.48826 0)
(20.8515 -0.421947 0)
(22.781 -2.12649 0)
(23.0667 -0.502911 0)
(24.9456 -3.25602 0)
(25.1733 -0.506412 0)
(27.6595 -5.39132 0)
(27.2611 -0.726585 0)
(33.0407 -7.46208 0)
(33.0772 -3.89237 0)
(29.789 -26.1965 0)
(10.3915 0.290938 0)
(11.0624 -1.35288 0)
(13.5301 -0.64661 0)
(13.7954 -1.43479 0)
(16.4018 -0.566679 0)
(16.3645 -1.65182 0)
(18.8477 -0.510046 0)
(18.964 -1.96163 0)
(21.1991 -0.546648 0)
(21.4336 -2.60264 0)
(23.6062 -0.681731 0)
(23.9157 -3.87831 0)
(26.146 -0.909316 0)
(26.7046 -5.77815 0)
(28.9459 -2.70214 0)
(30.1534 -8.4777 0)
(33.5445 -3.63612 0)
(29.4609 -24.5972 0)
(10.9584 0.18656 0)
(10.3116 -2.17892 0)
(13.9373 -0.688856 0)
(13.3836 -2.20929 0)
(16.5186 -0.482455 0)
(16.0956 -2.38135 0)
(18.9257 -0.400784 0)
(18.784 -2.67373 0)
(21.4508 -0.507974 0)
(21.4012 -3.29078 0)
(24.1187 -0.823347 0)
(24.1408 -4.44628 0)
(26.831 -1.32397 0)
(27.0934 -6.03634 0)
(29.5183 -3.10401 0)
(28.9107 -9.30808 0)
(31.619 -6.60303 0)
(26.5544 -17.7071 0)
(11.0179 0.0149337 0)
(10.9149 -2.40132 0)
(13.8788 -1.05129 0)
(14.2003 -2.45774 0)
(16.5589 -0.924358 0)
(16.8746 -2.60051 0)
(18.854 -0.934826 0)
(19.3928 -2.8355 0)
(21.3317 -1.27386 0)
(21.9554 -3.32695 0)
(23.721 -1.8568 0)
(24.6634 -4.38267 0)
(25.8721 -2.83149 0)
(27.1798 -5.82967 0)
(27.4717 -5.07882 0)
(28.5446 -7.96099 0)
(28.3191 -7.0965 0)
(27.5852 -12.7413 0)
(11.0157 -0.145544 0)
(11.0062 -3.06337 0)
(13.9031 -1.29599 0)
(13.9839 -2.99869 0)
(16.4984 -1.01055 0)
(16.6265 -2.998 0)
(18.941 -0.98232 0)
(19.2136 -3.22983 0)
(21.4222 -1.42071 0)
(21.689 -3.80242 0)
(23.6499 -2.08693 0)
(24.0648 -4.78264 0)
(25.5473 -3.06177 0)
(26.0854 -6.16285 0)
(26.9256 -4.97687 0)
(26.9811 -8.22367 0)
(27.2586 -7.75937 0)
(25.9757 -11.6688 0)
(10.8899 -0.193129 0)
(11.2227 -3.14955 0)
(13.4938 -1.70164 0)
(14.2284 -2.99675 0)
(16.0995 -1.64863 0)
(17.0067 -2.94661 0)
(18.5792 -1.76681 0)
(19.6028 -3.09225 0)
(20.911 -2.20455 0)
(21.9848 -3.53268 0)
(22.9159 -2.99597 0)
(24.2138 -4.2939 0)
(24.6606 -4.17616 0)
(25.8392 -5.37231 0)
(26.0088 -6.13898 0)
(26.5563 -7.11481 0)
(26.2307 -8.45916 0)
(25.6168 -9.40568 0)
(10.2988 -0.484916 0)
(11.2545 -3.67805 0)
(13.1177 -2.24424 0)
(14.0767 -3.46338 0)
(15.7173 -2.04886 0)
(16.7002 -3.38313 0)
(18.2351 -2.14163 0)
(19.2247 -3.59549 0)
(20.6327 -2.51673 0)
(21.5312 -4.05272 0)
(22.6417 -3.30977 0)
(23.617 -4.82016 0)
(24.3666 -4.40853 0)
(25.0234 -5.79128 0)
(25.4962 -6.14186 0)
(25.489 -7.38113 0)
(25.536 -8.17856 0)
(25.1052 -8.82964 0)
(10.4212 -0.488936 0)
(11.5949 -3.76391 0)
(13.0107 -2.87401 0)
(14.2034 -3.45756 0)
(15.4851 -2.79623 0)
(16.6783 -3.39123 0)
(17.9949 -3.0036 0)
(19.182 -3.5578 0)
(20.352 -3.39804 0)
(21.3818 -4.01463 0)
(22.282 -4.06443 0)
(23.3233 -4.61574 0)
(23.8879 -5.05872 0)
(24.4832 -5.56426 0)
(24.7727 -6.40891 0)
(24.9308 -6.98293 0)
(24.9243 -7.7774 0)
(24.6634 -8.33127 0)
(10.5647 -0.875731 0)
(11.8615 -4.16048 0)
(13.1583 -3.41077 0)
(14.4108 -3.76161 0)
(15.5932 -3.35666 0)
(16.7443 -3.77694 0)
(17.9382 -3.50725 0)
(19.0477 -3.95623 0)
(20.1294 -3.83907 0)
(21.0969 -4.37968 0)
(21.9998 -4.379 0)
(22.7779 -4.94385 0)
(23.4464 -5.31846 0)
(23.8976 -5.88154 0)
(24.2392 -6.40867 0)
(24.3556 -6.99345 0)
(24.3311 -7.54128 0)
(24.1152 -8.03965 0)
(10.5755 -0.914959 0)
(11.7183 -4.26263 0)
(12.938 -3.95826 0)
(14.2196 -3.96802 0)
(15.4693 -3.931 0)
(16.6906 -4.0219 0)
(17.8628 -4.09724 0)
(18.9569 -4.2625 0)
(19.9783 -4.43232 0)
(20.9252 -4.64493 0)
(21.7483 -4.89544 0)
(22.4611 -5.14485 0)
(23.0356 -5.54064 0)
(23.4775 -5.93255 0)
(23.7154 -6.33354 0)
(23.8383 -6.77923 0)
(23.8673 -7.20783 0)
(23.6297 -7.56964 0)
(10.5052 -1.04536 0)
(11.9246 -4.5209 0)
(13.2042 -4.4829 0)
(14.4777 -4.47534 0)
(15.7302 -4.45366 0)
(16.9286 -4.48732 0)
(18.0085 -4.53399 0)
(19.0104 -4.66953 0)
(19.9094 -4.78121 0)
(20.7236 -4.95969 0)
(21.4488 -5.12475 0)
(22.0521 -5.36441 0)
(22.5256 -5.6145 0)
(22.9451 -5.94647 0)
(23.2059 -6.28177 0)
(23.319 -6.60463 0)
(23.388 -6.96506 0)
(23.2204 -7.26172 0)
(10.5801 -1.46461 0)
(12.0016 -5.07905 0)
(13.3126 -4.96952 0)
(14.5663 -4.83999 0)
(15.7455 -4.76763 0)
(16.9063 -4.73265 0)
(17.973 -4.74665 0)
(18.9835 -4.81492 0)
(19.8897 -4.92383 0)
(20.7065 -5.07104 0)
(21.3739 -5.25301 0)
(21.9853 -5.46614 0)
(22.4183 -5.6727 0)
(22.7214 -5.89086 0)
(22.9404 -6.12417 0)
(23.0552 -6.3566 0)
(23.0844 -6.57667 0)
(22.9656 -6.78177 0)
(10.7159 -1.48079 0)
(12.154 -5.22194 0)
(13.4709 -5.12292 0)
(14.7501 -4.97624 0)
(15.9164 -4.91466 0)
(17.0421 -4.94263 0)
(18.0743 -5.01966 0)
(19.0635 -5.09019 0)
(19.9285 -5.14799 0)
(20.6809 -5.19985 0)
(21.299 -5.26444 0)
(21.8136 -5.34817 0)
(22.1979 -5.47548 0)
(22.5018 -5.61085 0)
(22.6277 -5.75277 0)
(22.7344 -5.9119 0)
(22.7808 -6.08769 0)
(22.6499 -6.23709 0)
(10.6889 -1.84326 0)
(12.2722 -5.47203 0)
(13.5927 -5.30538 0)
(14.9115 -5.04978 0)
(16.126 -4.90488 0)
(17.2474 -4.87907 0)
(18.2319 -4.90441 0)
(19.1237 -4.93112 0)
(19.8885 -4.9401 0)
(20.5791 -4.95589 0)
(21.1412 -4.98702 0)
(21.6324 -5.05691 0)
(22.0065 -5.15205 0)
(22.2962 -5.27812 0)
(22.4759 -5.38584 0)
(22.5949 -5.47421 0)
(22.6305 -5.58499 0)
(22.5518 -5.6652 0)
(10.8521 -1.54462 0)
(12.4132 -5.16734 0)
(13.7047 -5.14357 0)
(15.0404 -4.9776 0)
(16.3105 -4.86273 0)
(17.4522 -4.80168 0)
(18.3919 -4.77688 0)
(19.2281 -4.75053 0)
(19.9571 -4.72773 0)
(20.6164 -4.70831 0)
(21.1604 -4.70152 0)
(21.6145 -4.70345 0)
(21.9559 -4.7445 0)
(22.2132 -4.79546 0)
(22.3517 -4.84942 0)
(22.4371 -4.90227 0)
(22.4502 -4.9644 0)
(22.3769 -5.01586 0)
(10.781 -1.63952 0)
(12.4413 -4.85365 0)
(13.8678 -4.88178 0)
(15.2292 -4.74187 0)
(16.4502 -4.56179 0)
(17.5409 -4.43397 0)
(18.4956 -4.35773 0)
(19.3524 -4.31418 0)
(20.0642 -4.28856 0)
(20.689 -4.25727 0)
(21.1974 -4.24634 0)
(21.6067 -4.23271 0)
(21.9066 -4.25278 0)
(22.1564 -4.28635 0)
(22.2956 -4.32486 0)
(22.3847 -4.35241 0)
(22.3924 -4.38584 0)
(22.3171 -4.40552 0)
(10.9966 -1.43565 0)
(12.6882 -4.40674 0)
(14.0203 -4.45765 0)
(15.2944 -4.32158 0)
(16.4754 -4.17772 0)
(17.5766 -4.11645 0)
(18.5845 -4.06747 0)
(19.4831 -4.03262 0)
(20.238 -3.97888 0)
(20.877 -3.91652 0)
(21.3862 -3.86618 0)
(21.7826 -3.83343 0)
(22.0622 -3.83259 0)
(22.2795 -3.84507 0)
(22.4003 -3.86407 0)
(22.4691 -3.87299 0)
(22.4627 -3.88467 0)
(22.359 -3.89235 0)
(10.9572 -1.41885 0)
(12.7602 -3.90853 0)
(14.1849 -3.96083 0)
(15.5407 -3.8625 0)
(16.7664 -3.76297 0)
(17.8867 -3.69831 0)
(18.8748 -3.66819 0)
(19.7047 -3.64036 0)
(20.3907 -3.59821 0)
(20.959 -3.51557 0)
(21.4386 -3.43336 0)
(21.8229 -3.38017 0)
(22.1021 -3.34009 0)
(22.3294 -3.34306 0)
(22.4565 -3.32171 0)
(22.52 -3.33997 0)
(22.5068 -3.37032 0)
(22.4103 -3.39062 0)
(11.1193 -1.21536 0)
(12.9852 -3.40773 0)
(14.4793 -3.5141 0)
(15.8233 -3.46876 0)
(17.0081 -3.38208 0)
(18.0714 -3.26506 0)
(19.0036 -3.18782 0)
(19.799 -3.14944 0)
(20.4599 -3.1266 0)
(20.997 -3.08213 0)
(21.4355 -3.04261 0)
(21.7881 -2.98883 0)
(22.0493 -2.95991 0)
(22.298 -2.94539 0)
(22.4471 -2.93064 0)
(22.4981 -2.9329 0)
(22.5211 -2.95165 0)
(22.4728 -2.96125 0)
(11.3276 -1.18031 0)
(13.1428 -2.98918 0)
(14.5774 -3.11462 0)
(15.901 -3.059 0)
(17.1152 -2.9415 0)
(18.2399 -2.82533 0)
(19.2261 -2.73872 0)
(20.0693 -2.68846 0)
(20.7857 -2.65932 0)
(21.3549 -2.63538 0)
(21.8007 -2.59911 0)
(22.156 -2.55594 0)
(22.3978 -2.54168 0)
(22.6087 -2.5177 0)
(22.7387 -2.54297 0)
(22.7728 -2.52234 0)
(22.7603 -2.54448 0)
(22.6932 -2.5533 0)
(11.1075 -0.928868 0)
(13.1531 -2.43695 0)
(14.6517 -2.61101 0)
(15.9614 -2.64077 0)
(17.1315 -2.5993 0)
(18.1957 -2.51136 0)
(19.1481 -2.41728 0)
(19.9891 -2.3282 0)
(20.7085 -2.27694 0)
(21.3291 -2.25926 0)
(21.8383 -2.23944 0)
(22.2232 -2.21401 0)
(22.4861 -2.19539 0)
(22.693 -2.15757 0)
(22.8145 -2.12826 0)
(22.8321 -2.10971 0)
(22.7827 -2.10478 0)
(22.6945 -2.11677 0)
(10.7269 -0.900734 0)
(12.9744 -2.12911 0)
(14.7983 -2.2694 0)
(16.2891 -2.24904 0)
(17.4834 -2.1779 0)
(18.4953 -2.09015 0)
(19.3564 -2.01247 0)
(20.1139 -1.95959 0)
(20.7719 -1.93037 0)
(21.3295 -1.91635 0)
(21.7832 -1.894 0)
(22.1134 -1.85837 0)
(22.3336 -1.82579 0)
(22.495 -1.77882 0)
(22.5565 -1.74689 0)
(22.5334 -1.72405 0)
(22.4448 -1.72525 0)
(22.2941 -1.72998 0)
(10.9841 -0.94 0)
(13.3788 -1.96218 0)
(15.1436 -2.01622 0)
(16.4942 -1.95277 0)
(17.5562 -1.83862 0)
(18.444 -1.71259 0)
(19.1699 -1.63221 0)
(19.8115 -1.5649 0)
(20.3068 -1.53308 0)
(20.7112 -1.5381 0)
(21.0043 -1.51777 0)
(21.1502 -1.4788 0)
(21.2454 -1.43567 0)
(21.2592 -1.37769 0)
(21.1875 -1.35768 0)
(21.0412 -1.33423 0)
(20.8374 -1.3213 0)
(20.6164 -1.29736 0)
(11.0264 -0.727159 0)
(13.4285 -1.67127 0)
(15.0506 -1.69759 0)
(16.0679 -1.5732 0)
(16.7895 -1.41112 0)
(17.3631 -1.25014 0)
(17.8062 -1.17241 0)
(18.1955 -1.11428 0)
(18.4181 -1.09784 0)
(18.594 -1.06703 0)
(18.6361 -1.05599 0)
(18.6103 -1.00677 0)
(18.5489 -0.951446 0)
(18.4069 -0.905222 0)
(18.226 -0.87676 0)
(18.0218 -0.876128 0)
(17.7632 -0.847276 0)
(17.4746 -0.826603 0)
(11.0269 -1.04491 0)
(12.8419 -1.58504 0)
(13.5228 -1.37437 0)
(13.6429 -1.13468 0)
(13.769 -0.904306 0)
(13.9644 -0.728605 0)
(14.2413 -0.636286 0)
(14.5219 -0.587348 0)
(14.691 -0.576255 0)
(14.8434 -0.543455 0)
(14.9188 -0.530129 0)
(14.9522 -0.514694 0)
(14.9323 -0.487151 0)
(14.8687 -0.46692 0)
(14.7822 -0.445161 0)
(14.6458 -0.445998 0)
(14.4443 -0.449113 0)
(14.2297 -0.441566 0)
(9.54183 -0.387024 0)
(8.86578 -0.519633 0)
(8.35789 -0.299807 0)
(8.32534 -0.183524 0)
(8.75 -0.147358 0)
(9.349 -0.150607 0)
(10.0179 -0.151764 0)
(10.6194 -0.157987 0)
(11.1202 -0.163312 0)
(11.5419 -0.15726 0)
(11.8729 -0.154984 0)
(12.1171 -0.151542 0)
(12.2881 -0.140711 0)
(12.3966 -0.137492 0)
(12.4619 -0.125614 0)
(12.4696 -0.127429 0)
(12.4156 -0.129832 0)
(12.2792 -0.118342 0)
(-0.0201224 0.0603699 0)
(-0.145783 0.261263 0)
(-0.424584 0.222815 0)
(-0.687483 0.101838 0)
(-0.884 0.0247136 0)
(-0.988784 -0.0765437 0)
(-0.983188 -0.177601 1.09154e-17)
(-0.856372 -0.279193 -1.09092e-17)
(-0.676434 -0.330279 0)
(-0.413044 -0.368211 -1.08519e-17)
(-0.119439 -0.36289 0)
(0.154579 -0.346781 0)
(0.416394 -0.33568 0)
(0.652529 -0.317759 1.06182e-17)
(0.842929 -0.310764 0)
(1.02587 -0.303865 0)
(1.17057 -0.297638 -1.04484e-17)
(1.32182 -0.305738 0)
(1.44926 -0.317039 0)
(1.53705 -0.310567 0)
(1.66338 -0.281929 1.02265e-17)
(1.74544 -0.274747 0)
(1.79405 -0.247983 1.01119e-17)
(1.82006 -0.234133 0)
(1.79926 -0.221828 0)
(1.73769 -0.192983 9.94548e-18)
(1.60951 -0.172746 0)
(1.43754 -0.122824 -9.82998e-18)
(1.23322 -0.0602422 0)
(0.982233 -0.0126583 9.70768e-18)
(0.638965 0.0489808 0)
(0.186385 0.112308 0)
(-0.36261 0.204908 0)
(-1.08043 0.35287 0)
(-1.91971 0.490751 0)
(-2.88814 0.636941 -9.29849e-18)
(-4.09525 0.608795 0)
(-5.27218 0.147575 1.87e-17)
(-6.28567 -0.50658 0)
(-7.14575 -0.668716 -1.84951e-17)
(-7.81724 -0.397341 0)
(-8.3718 -0.168476 0)
(-8.98497 -0.0871346 1.79857e-17)
(-9.7274 -0.0744788 0)
(-10.4419 -0.116804 1.76486e-17)
(-11.0183 -0.242023 -1.75488e-17)
(-11.4852 -0.377038 0)
(-11.6572 -0.523445 -1.73634e-17)
(-11.6613 -0.595593 -1.72638e-17)
(-11.7782 -0.625246 0)
(-11.321 -0.898909 0)
(-10.7432 -0.608533 0)
(-10.4961 -0.159412 0)
(-10.5621 0.0739717 0)
(-10.7168 0.437205 1.62991e-17)
(-11.0874 0.459748 0)
(-11.6341 -0.145684 -1.62559e-17)
(-12.0792 -0.984185 0)
(-12.3175 -1.52025 0)
(-12.6764 -1.27654 1.61817e-17)
(-13.6683 -0.331346 0)
(-15.0505 0.496908 -1.63126e-17)
(-16.4127 0.746751 0)
(-17.7056 0.737276 0)
(-18.8286 0.658267 0)
(-19.7486 0.568356 1.52949e-17)
(-20.5098 0.488054 0)
(-21.0344 0.41798 0)
(-21.3883 0.332677 1.48481e-17)
(-21.5896 0.273432 0)
(-21.6553 0.209825 1.45923e-17)
(-21.5411 0.166251 0)
(-21.2845 0.104074 0)
(-20.9364 0.0637296 0)
(-20.4604 0.0244357 -1.41212e-17)
(-19.8996 -0.00472962 0)
(-19.2535 -0.0238371 0)
(-18.5542 -0.0364761 -1.37848e-17)
(-17.8079 -0.0269349 -1.36763e-17)
(-17.0418 -0.00773723 0)
(-16.2496 -0.00351802 -1.34612e-17)
(-15.439 0.0133487 0)
(-14.6508 0.0540001 -2.64985e-17)
(-13.867 0.0885223 0)
(-13.0647 0.108597 -2.60657e-17)
(-12.3056 0.155974 0)
(-11.5804 0.202384 2.56495e-17)
(-10.8533 0.240967 0)
(-10.1364 0.279975 0)
(-9.45137 0.318898 0)
(-8.75504 0.334268 -2.48099e-17)
(-8.09155 0.400133 0)
(-7.39374 0.405796 2.4397e-17)
(-6.6684 0.441054 0)
(-6.02697 0.489038 -2.40048e-17)
(-5.31712 0.515277 -2.37964e-17)
(-4.64349 0.5515 -2.36123e-17)
(-3.98873 0.589386 0)
(-3.3186 0.630731 0)
(-2.72503 0.655539 0)
(-2.12199 0.725431 0)
(-1.57935 0.758987 0)
(-1.12442 0.808082 0)
(-0.67417 0.8465 0)
(-0.258816 0.876167 0)
(0.138112 0.905227 2.22695e-17)
(0.503633 0.93817 2.2155e-17)
(0.821792 0.980242 0)
(1.10823 1.02392 0)
(1.34984 1.04827 0)
(1.57508 1.0658 2.18893e-17)
(1.74983 1.08232 0)
(1.82957 1.09048 0)
(1.81516 1.13708 0)
(1.715 1.18968 0)
(1.57153 1.2203 -2.1394e-17)
(1.35761 1.24052 0)
(1.08977 1.31517 0)
(0.824548 1.36463 2.10476e-17)
(0.507549 1.38046 -2.09388e-17)
(-0.00920127 1.40183 0)
(-0.773273 1.45068 -2.08935e-17)
(-1.65976 1.48313 0)
(-2.57549 1.59959 2.08293e-17)
(-3.57354 1.68222 0)
(-4.65822 1.66809 0)
(-5.72445 1.68601 0)
(-6.70801 1.67859 0)
(-7.30343 1.55582 0)
(-7.69207 1.49922 -4.00522e-17)
(-8.34329 1.50212 -3.96892e-17)
(-7.74212 1.26934 0)
(-8.92237 1.62027 0)
(-7.90735 1.14488 0)
(-9.06936 1.57176 3.83886e-17)
(-8.28144 1.06938 0)
(-8.27034 1.4159 0)
(-8.02325 1.36161 0)
(-8.46681 1.4654 3.70227e-17)
(-9.37754 1.53837 -3.71164e-17)
(-8.9562 1.11105 0)
(-7.72198 1.22305 0)
(-7.68822 1.34745 -3.58363e-17)
(-7.51449 1.34424 -3.5569e-17)
(-7.32294 1.41836 0)
(-7.08657 1.33634 0)
(-6.79627 1.41323 3.46122e-17)
(-6.53148 1.46373 -3.43251e-17)
(-6.32433 1.48816 0)
(-6.20567 1.52523 0)
(-6.20086 1.56108 -3.33482e-17)
(-5.99087 1.63021 0)
(-5.90337 1.6267 0)
(-5.69624 1.55275 -3.22433e-17)
(-5.65427 1.55132 0)
(-5.6592 1.61167 -3.15746e-17)
(-5.63043 1.58646 0)
(-5.50273 1.60863 0)
(-5.3015 1.64743 0)
(-5.51946 1.65057 3.05187e-17)
(-5.77527 1.7924 0)
(-6.9715 1.96572 0)
(-7.2947 1.92969 0)
(-8.3104 2.0409 0)
(-8.41418 1.86862 0)
(-6.69116 1.79176 0)
(-6.53769 2.08963 2.85498e-17)
(-5.36879 1.84647 2.81171e-17)
(-3.59969 1.7772 0)
(-1.40266 1.88693 0)
(-0.208671 2.06706 0)
(1.15196 1.99676 -2.78217e-17)
(3.7431 2.01211 0)
(5.91507 2.10637 5.71216e-17)
(6.37578 2.28055 -5.68202e-17)
(6.08731 2.42047 -5.57815e-17)
(6.85911 2.35543 5.52491e-17)
(8.13445 2.20148 -5.57423e-17)
(9.73547 2.09987 5.64269e-17)
(10.088 2.20182 0)
(0.00299374 -0.159705 0)
(0.0373471 0.186033 0)
(-0.00751842 0.421936 -2.16202e-17)
(-0.17113 0.373456 0)
(-0.353982 0.150805 2.12012e-17)
(-0.46554 -0.19455 2.15179e-17)
(-0.504841 -0.561826 1.10102e-17)
(-0.405585 -0.906239 1.11454e-17)
(-0.23587 -1.12159 0)
(0.0037902 -1.25555 1.12748e-17)
(0.28176 -1.29399 0)
(0.561802 -1.25447 0)
(0.785557 -1.23613 -2.23374e-17)
(1.02434 -1.18159 -1.10709e-17)
(1.19864 -1.15989 2.20524e-17)
(1.38868 -1.14448 2.19108e-17)
(1.52699 -1.12202 1.08711e-17)
(1.62545 -1.14033 0)
(1.81616 -1.14031 0)
(1.9254 -1.16557 0)
(2.08898 -1.15009 1.06349e-17)
(2.18888 -1.11526 0)
(2.26813 -1.10067 -3.14155e-17)
(2.35198 -1.03976 0)
(2.35138 -1.00866 0)
(2.37097 -0.982213 -1.02504e-17)
(2.32026 -0.898834 0)
(2.20668 -0.863596 1.01285e-17)
(2.15032 -0.766892 2.01121e-17)
(1.91611 -0.658604 -9.99196e-18)
(1.70584 -0.56903 0)
(1.48275 -0.394708 0)
(1.13204 -0.196181 0)
(0.83427 0.0309208 1.93102e-17)
(0.314308 0.303026 1.92082e-17)
(-0.255021 0.568759 9.46212e-18)
(-0.819284 0.888471 0)
(-1.69172 0.926586 -1.85387e-17)
(-2.75773 0.905489 0)
(-4.08028 0.75167 1.80142e-17)
(-5.7213 -0.102189 0)
(-6.99972 -0.660279 0)
(-7.99534 -0.477261 -1.72049e-17)
(-9.12057 -0.270789 0)
(-10.0212 -0.488251 -5.16031e-17)
(-10.5929 -0.879282 1.7136e-17)
(-11.0826 -1.30337 0)
(-11.0479 -1.85337 1.69275e-17)
(-11.006 -1.91835 1.67218e-17)
(-10.7403 -2.02564 0)
(-10.0892 -3.38422 0)
(-9.71896 -3.27721 0)
(-9.33715 -2.46342 0)
(-9.62517 -2.16411 0)
(-10.1019 -1.86239 -1.59948e-17)
(-11.0369 -1.21111 -3.22247e-17)
(-12.3412 -0.412325 1.633e-17)
(-14.341 0.369936 0)
(-16.7667 1.00341 -3.19503e-17)
(-18.8912 1.50326 1.57464e-17)
(-20.4538 1.80489 0)
(-21.5895 1.82602 1.53495e-17)
(-22.552 1.64427 0)
(-23.4344 1.45131 0)
(-24.1304 1.20396 2.97626e-17)
(-24.6264 0.974501 -1.48017e-17)
(-25.0013 0.725724 2.93561e-17)
(-25.2107 0.487371 -2.91677e-17)
(-25.2483 0.292585 -1.45172e-17)
(-25.1571 0.0880242 0)
(-24.9344 -0.0738871 -1.43358e-17)
(-24.562 -0.205563 0)
(-24.0886 -0.348842 0)
(-23.4988 -0.444847 0)
(-22.8229 -0.526778 -1.38856e-17)
(-22.0588 -0.590318 0)
(-21.2285 -0.608344 -2.74014e-17)
(-20.3609 -0.61408 4.08023e-17)
(-19.4537 -0.588341 1.35089e-17)
(-18.5552 -0.553642 0)
(-17.6214 -0.522679 1.32895e-17)
(-16.6761 -0.44805 0)
(-15.7777 -0.339113 2.61123e-17)
(-14.8683 -0.275086 0)
(-13.9658 -0.177229 2.56499e-17)
(-13.1024 -0.0244804 -5.06571e-17)
(-12.2483 0.0708847 -2.51962e-17)
(-11.4617 0.178165 0)
(-10.6374 0.318693 0)
(-9.89116 0.418616 0)
(-9.0509 0.514143 2.42392e-17)
(-8.35145 0.616686 0)
(-7.56036 0.667953 -2.38072e-17)
(-6.8151 0.783016 0)
(-6.03739 0.922442 6.95793e-17)
(-5.27784 0.973936 2.30118e-17)
(-4.5735 1.12021 2.2704e-17)
(-3.82078 1.22278 0)
(-3.16393 1.35216 0)
(-2.47899 1.50139 0)
(-1.86678 1.6565 0)
(-1.27819 1.8144 0)
(-0.771017 1.98022 4.25572e-17)
(-0.290526 2.14096 4.22353e-17)
(0.172731 2.26433 0)
(0.622387 2.34285 -2.08802e-17)
(1.00646 2.43261 -2.0762e-17)
(1.32565 2.51631 0)
(1.58177 2.62296 -4.12352e-17)
(1.78287 2.68038 0)
(1.96658 2.76026 2.05872e-17)
(2.0652 2.92061 0)
(2.08614 3.08877 0)
(2.01064 3.23973 -4.09141e-17)
(1.79975 3.3562 0)
(1.57173 3.48396 2.00306e-17)
(1.2729 3.62645 0)
(0.810944 3.6335 0)
(0.294685 3.63208 1.9705e-17)
(-0.170372 3.9166 1.96585e-17)
(-0.667487 4.36427 0)
(-1.51813 4.66857 -2.0066e-17)
(-2.7472 4.80187 0)
(-4.06116 4.76267 2.09135e-17)
(-5.27327 4.77898 4.17346e-17)
(-6.20157 4.86281 0)
(-7.00845 4.80831 0)
(-7.68957 4.61011 0)
(-7.80869 4.21711 0)
(-7.88332 4.09895 4.0049e-17)
(-8.30679 4.06975 1.18714e-16)
(-7.08842 3.59869 0)
(-8.75693 4.39315 0)
(-5.9806 3.2873 0)
(-8.9826 4.37585 -3.81401e-17)
(-5.25532 3.03618 0)
(-7.80806 4.0217 0)
(-5.65367 3.94478 7.69625e-17)
(-7.64178 4.1825 3.68405e-17)
(-7.79246 4.21948 3.80504e-17)
(-8.22418 2.85362 0)
(-6.4449 2.88385 0)
(-5.88546 3.50393 3.58929e-17)
(-5.33552 3.57026 -3.57803e-17)
(-4.97545 3.60293 0)
(-4.15367 3.60731 0)
(-3.40708 3.73553 -3.46106e-17)
(-2.92613 3.74101 1.03948e-16)
(-3.02297 3.87904 0)
(-2.95813 4.05933 0)
(-3.11288 4.23537 3.41313e-17)
(-2.55466 4.29713 0)
(-2.13119 4.24339 6.59216e-17)
(-1.12343 4.22353 -3.22184e-17)
(-0.399139 4.4536 0)
(-0.0956522 4.67629 3.06284e-17)
(-0.348983 4.75517 6.05444e-17)
(-0.841198 4.67551 0)
(-1.6812 4.83791 0)
(-2.96349 4.99133 -2.91688e-17)
(-4.02735 5.1285 0)
(-6.02705 5.47069 5.65014e-17)
(-6.23995 5.33221 0)
(-7.63962 5.37569 0)
(-7.31535 4.35277 0)
(-5.39858 4.2371 0)
(-4.88568 4.84461 -2.61267e-17)
(-3.5021 4.15557 -2.57829e-17)
(-1.33538 3.93241 0)
(1.73484 4.24844 0)
(2.59128 4.8815 0)
(3.98654 4.47522 2.42783e-17)
(7.20336 4.77841 0)
(9.3391 5.78197 -5.20103e-17)
(8.8107 6.53564 5.15621e-17)
(7.51481 6.40114 4.93037e-17)
(8.10591 5.83316 4.7197e-17)
(9.76577 5.67333 4.72752e-17)
(11.9397 6.00698 4.94739e-17)
(11.7987 6.63421 0)
(0.00920441 -0.500242 0)
(0.0427144 -0.186531 0)
(0.0718736 0.212061 2.17129e-17)
(0.0429597 0.338259 2.12491e-17)
(-0.0265389 0.163934 -2.13181e-17)
(-0.0959015 -0.291715 -2.19764e-17)
(-0.0629189 -0.860395 8.08372e-20)
(0.070958 -1.40484 0)
(0.24862 -1.77438 0)
(0.45232 -1.94858 0)
(0.643616 -2.00802 0)
(0.830285 -1.96832 0)
(0.994937 -1.92864 6.90511e-17)
(1.13338 -1.87386 0)
(1.27454 -1.82812 -2.25989e-17)
(1.37923 -1.8187 -2.24029e-17)
(1.48367 -1.7783 0)
(1.52856 -1.79446 0)
(1.68757 -1.81035 0)
(1.78432 -1.84929 0)
(1.92968 -1.87306 -2.14014e-17)
(2.04934 -1.80691 0)
(2.13427 -1.80736 2.10546e-17)
(2.22274 -1.73438 0)
(2.24975 -1.65369 0)
(2.30011 -1.63497 0)
(2.26116 -1.48147 4.09309e-17)
(2.1947 -1.47215 0)
(2.07724 -1.38783 -2.01042e-17)
(1.89121 -1.21077 4.01311e-17)
(1.6509 -1.15166 0)
(1.42213 -0.833591 0)
(1.16984 -0.637143 0)
(0.849969 -0.443985 -1.95264e-17)
(0.425445 0.0291576 -1.94786e-17)
(0.083543 0.252311 0)
(-0.371873 0.534256 0)
(-0.986718 0.981135 3.82128e-17)
(-1.50254 1.09662 3.7536e-17)
(-2.3933 1.14755 -3.69854e-17)
(-3.43154 1.28437 0)
(-4.58774 0.985517 0)
(-6.38507 0.550778 0)
(-7.74177 0.233391 0)
(-8.77612 -0.366315 3.38132e-17)
(-9.90253 -1.40723 3.42475e-17)
(-11.0702 -2.27436 -3.46688e-17)
(-11.2674 -3.20761 0)
(-11.805 -3.49314 0)
(-10.8956 -4.6125 0)
(-11.2337 -5.26403 0)
(-12.3536 -4.38104 3.39157e-17)
(-13.3019 -2.326 0)
(-14.6462 -0.796437 0)
(-16.3371 0.402416 3.27135e-17)
(-18.0048 1.38676 3.24386e-17)
(-19.3872 2.12441 0)
(-20.7802 2.37264 -6.34008e-17)
(-21.9639 2.47136 3.14631e-17)
(-23.0326 2.45856 -3.12695e-17)
(-23.9528 2.46703 0)
(-24.6773 2.40661 0)
(-25.1978 2.11915 0)
(-25.6017 1.85978 0)
(-25.9066 1.55566 -3.08128e-17)
(-26.098 1.18174 -6.13165e-17)
(-26.183 0.870303 -3.066e-17)
(-26.0986 0.539149 3.05734e-17)
(-25.9169 0.252587 0)
(-25.6678 -0.0364907 -6.0523e-17)
(-25.2494 -0.286837 -6.0239e-17)
(-24.7505 -0.483971 -5.99438e-17)
(-24.1424 -0.665625 5.96386e-17)
(-23.4586 -0.801523 0)
(-22.6843 -0.907074 8.85079e-17)
(-21.8293 -0.997649 0)
(-20.9359 -1.01 -2.89703e-17)
(-19.9817 -0.997226 -2.89979e-17)
(-19.0365 -0.943637 0)
(-18.0594 -0.859638 0)
(-17.0915 -0.769671 -5.64872e-17)
(-16.0568 -0.632192 0)
(-15.1363 -0.428709 -5.56419e-17)
(-14.2152 -0.299735 0)
(-13.2584 -0.128238 5.48361e-17)
(-12.4097 0.108582 1.08828e-16)
(-11.4838 0.312338 0)
(-10.7093 0.50782 0)
(-9.84065 0.726979 0)
(-9.14028 0.901934 5.25956e-17)
(-8.23241 1.10585 0)
(-7.57263 1.29567 5.15852e-17)
(-6.70427 1.41488 0)
(-5.98444 1.60144 0)
(-5.18714 1.78226 -1.00384e-16)
(-4.35423 1.9227 0)
(-3.66188 2.17492 -4.88295e-17)
(-2.84259 2.31916 0)
(-2.18683 2.53685 -4.7486e-17)
(-1.41932 2.76583 0)
(-0.846185 2.95791 0)
(-0.232353 3.18089 0)
(0.298183 3.42387 -1.33955e-16)
(0.78072 3.60551 -4.41802e-17)
(1.19325 3.7693 0)
(1.55165 3.8896 0)
(1.79903 4.08762 0)
(1.98005 4.27966 0)
(2.12573 4.46329 4.15763e-17)
(2.32453 4.6228 -8.21214e-17)
(2.49216 4.79575 -4.11293e-17)
(2.49845 5.03287 8.20024e-17)
(2.32656 5.25393 8.20147e-17)
(2.07101 5.5165 4.09419e-17)
(1.8489 5.72377 0)
(1.66602 5.84095 7.90834e-17)
(1.45811 6.01689 0)
(1.11262 6.3946 -7.77974e-17)
(0.400703 6.63616 -4.01119e-17)
(-0.470307 6.54852 0)
(-1.11551 6.75477 7.62017e-17)
(-1.68394 7.39312 3.83606e-17)
(-2.43233 7.98876 0)
(-3.2716 8.21212 4.08422e-17)
(-4.14124 8.27174 -1.25736e-16)
(-4.80629 8.09695 0)
(-5.20461 7.79054 0)
(-5.67647 7.51206 0)
(-5.4041 6.86731 0)
(-5.40039 6.6785 -7.97861e-17)
(-6.10847 6.58638 -7.8505e-17)
(-4.51747 6.00128 0)
(-7.32075 6.61048 0)
(-2.81103 5.53063 0)
(-7.90562 6.79372 0)
(-2.24795 4.87206 0)
(-6.17528 6.52896 0)
(-2.08312 6.63871 -7.56538e-17)
(-5.60829 7.39353 1.67957e-19)
(-5.12942 7.63234 0)
(-7.27026 5.54462 0)
(-5.44524 4.8344 -7.67964e-17)
(-5.16866 5.80366 0)
(-4.27518 5.7985 7.33963e-17)
(-4.52709 5.79582 7.21518e-17)
(-3.55303 5.5092 0)
(-2.43515 5.75369 0)
(-1.02797 6.59302 -6.8432e-17)
(-1.20888 7.59993 -1.42796e-16)
(-1.55967 7.8848 0)
(-2.13537 7.91211 0)
(-1.84762 7.65527 0)
(-1.9448 7.24733 -7.24135e-17)
(-1.07388 6.81488 7.01315e-17)
(0.0826568 7.03792 0)
(1.57089 7.56619 1.27343e-16)
(2.11819 8.05911 6.12366e-17)
(1.52436 8.28135 -1.19358e-16)
(0.10775 8.48135 0)
(-1.78598 8.85297 0)
(-2.99888 9.14724 -1.13576e-16)
(-5.03866 9.27608 -5.54676e-17)
(-4.94766 8.9257 0)
(-6.33705 9.10294 0)
(-6.71959 8.01891 0)
(-5.34413 7.70494 0)
(-3.83466 8.47539 -1.0866e-16)
(-3.73941 7.83523 0)
(-0.291814 7.00856 0)
(3.86123 7.76121 0)
(4.49653 8.6102 0)
(5.41759 7.77403 0)
(8.82576 7.73156 0)
(10.802 9.56219 -1.00711e-16)
(10.0268 11.1304 0)
(8.6887 11.172 0)
(8.85412 9.96752 -1.83885e-16)
(10.1046 9.05889 8.96964e-17)
(13.5199 9.59381 -9.03576e-17)
(13.7011 11.0117 9.61865e-17)
(-0.0049166 -0.804074 0)
(-0.008731 -0.522935 -4.66627e-17)
(0.007202 -0.0645432 0)
(0.0231529 0.108608 -2.19067e-17)
(0.077091 -0.186062 0)
(0.226338 -0.813981 0)
(0.439995 -1.53976 2.33875e-17)
(0.632423 -2.1464 0)
(0.791455 -2.53084 0)
(0.910018 -2.71702 0)
(0.990057 -2.74355 0)
(1.03659 -2.69596 0)
(1.10313 -2.63469 -9.14191e-17)
(1.16493 -2.59453 -4.53898e-17)
(1.2491 -2.53616 4.49315e-17)
(1.29983 -2.50421 0)
(1.37108 -2.46147 0)
(1.47329 -2.51289 0)
(1.66548 -2.58706 0)
(1.83156 -2.64204 0)
(2.05919 -2.6904 -4.2417e-17)
(2.24864 -2.6536 -4.20863e-17)
(2.4612 -2.63862 4.17337e-17)
(2.66058 -2.60893 -4.14006e-17)
(2.80292 -2.5016 0)
(2.89974 -2.44545 0)
(2.92257 -2.30078 -4.04071e-17)
(2.90905 -2.13357 0)
(2.76867 -1.99842 0)
(2.60241 -1.81169 -3.96022e-17)
(2.23456 -1.56864 -3.94588e-17)
(1.93667 -1.37084 -3.90295e-17)
(1.48737 -1.17245 0)
(0.953673 -0.818271 0)
(0.564329 -0.684175 3.83263e-17)
(0.0194782 -0.391988 0)
(-0.474752 0.195036 0)
(-0.84186 0.341366 -3.79666e-17)
(-1.35919 0.618039 3.79581e-17)
(-2.17594 1.32643 -3.75983e-17)
(-2.72914 1.23901 0)
(-3.54011 1.05439 0)
(-4.8566 1.35126 -7.18369e-17)
(-5.93174 1.13874 0)
(-6.91071 0.317136 -6.89514e-17)
(-8.02378 -0.45689 -1.02295e-16)
(-9.49208 -1.76421 1.02739e-16)
(-10.2037 -3.04922 -6.73947e-17)
(-11.1957 -4.60464 0)
(-11.5455 -5.42302 0)
(-13.5496 -3.39899 -6.77512e-17)
(-15.4137 -2.21802 -3.31426e-17)
(-16.916 -1.22626 0)
(-18.4858 0.0101133 0)
(-19.7073 0.968598 -3.24614e-17)
(-21.0332 1.82696 -6.43623e-17)
(-22.0863 2.42472 0)
(-23.0338 2.77298 6.39303e-17)
(-23.8285 2.82143 -6.36361e-17)
(-24.4764 2.79769 6.35289e-17)
(-24.9974 2.63574 0)
(-25.3282 2.33801 0)
(-25.5658 2.06918 0)
(-25.7466 1.68443 0)
(-25.8025 1.31671 0)
(-25.8009 0.922756 6.27904e-17)
(-25.7206 0.563732 0)
(-25.5494 0.221506 0)
(-25.2816 -0.136319 0)
(-24.9169 -0.474974 1.2252e-16)
(-24.4239 -0.778251 6.10154e-17)
(-23.8319 -1.06297 6.06096e-17)
(-23.1623 -1.28968 -1.2012e-16)
(-22.3801 -1.4742 5.95346e-17)
(-21.5726 -1.60014 -5.93698e-17)
(-20.6232 -1.71288 0)
(-19.7263 -1.75872 5.85546e-17)
(-18.6711 -1.72386 0)
(-17.6922 -1.60754 0)
(-16.6447 -1.48109 0)
(-15.6526 -1.29019 1.13651e-16)
(-14.6344 -1.13798 -5.63564e-17)
(-13.6 -0.853696 -5.5656e-17)
(-12.6858 -0.624234 -1.11114e-16)
(-11.7771 -0.398484 -1.66056e-16)
(-10.9168 -0.150924 -5.51902e-17)
(-10.0715 0.160583 0)
(-9.23763 0.45039 -1.08249e-16)
(-8.46657 0.736256 0)
(-7.75482 0.971648 -1.60803e-16)
(-6.95018 1.21385 0)
(-6.20651 1.5408 -1.58538e-16)
(-5.43846 1.69095 0)
(-4.65407 2.00509 0)
(-3.95302 2.25301 -5.14408e-17)
(-3.04428 2.48129 0)
(-2.33396 2.8387 5.14165e-17)
(-1.49395 3.02764 1.01503e-16)
(-0.783458 3.43968 5.06118e-17)
(0.0210067 3.70913 9.94421e-17)
(0.702422 4.08636 -9.84365e-17)
(1.3596 4.44141 -9.72559e-17)
(1.92913 4.80296 1.9236e-16)
(2.43978 5.09253 0)
(2.84042 5.4288 0)
(3.2013 5.76067 9.25185e-17)
(3.41869 6.04102 -9.11858e-17)
(3.62843 6.21897 0)
(3.75721 6.28729 0)
(3.8436 6.25639 8.52438e-17)
(3.65059 6.40023 0)
(3.27999 6.92346 -4.69317e-19)
(3.03947 7.48285 -4.51379e-19)
(2.90689 7.79499 8.22405e-17)
(2.84358 7.91105 0)
(2.56582 8.10734 -8.14071e-17)
(2.10835 8.33194 0)
(1.68801 8.64263 7.7562e-17)
(1.3281 9.21125 0)
(0.535948 9.85933 0)
(-0.701938 10.1433 -8.26436e-17)
(-1.51514 10.2874 -7.97271e-17)
(-2.08903 10.615 0)
(-2.44163 10.6011 -8.0291e-17)
(-2.73515 10.4494 1.60883e-16)
(-2.96426 10.176 0)
(-3.16481 9.87905 0)
(-3.71211 9.51469 0)
(-3.13946 8.78919 0)
(-3.04587 8.91493 7.67392e-17)
(-4.00058 8.97263 -1.53985e-16)
(-2.24516 8.69722 0)
(-5.60684 9.066 0)
(-1.47788 8.16903 0)
(-6.87257 9.34451 0)
(-1.05869 7.15978 0)
(-6.86925 8.53845 0)
(-0.228158 8.46366 0)
(-4.13317 9.93712 7.03996e-17)
(-2.60859 10.4279 0)