/*--------------------------------*- C++ -*----------------------------------*\
| =========                 |                                                 |
| \\      /  F ield         | OpenFOAM: The Open Source CFD Toolbox           |
|  \\    /   O peration     | Version:  dev                                   |
|   \\  /    A nd           | Web:      http://www.openfoam.org               |
|    \\/     M anipulation  |                                                 |
\*---------------------------------------------------------------------------*/
FoamFile
{
    version     2.0;
    format      ascii;
    class       volVectorField;
    object      UMean;
    location    "9.122";
}
// * * * * * * * * * * * * * * * * * * * * * * * * * * * * * * * * * * * * * //

dimensions      [0 1 -1 0 0 0 0];

internalField   nonuniform List<vector> 
12225
(
(7.00367 0.430266 0)
(4.43883 0.192538 0)
(2.55685 0.0311454 0)
(2.51095 -0.0166593 0)
(1.38451 0.019354 0)
(2.26749 -0.0342805 0)
(0.98951 0.0489749 0)
(2.18284 -0.0591782 0)
(0.797453 0.0716523 0)
(2.29211 -0.0978571 0)
(0.688647 0.0993744 0)
(2.74398 -0.138637 0)
(0.947866 0.102607 0)
(3.39706 -0.17212 0)
(3.52965 -0.168408 0)
(4.69426 0.0501211 0)
(14.8382 -2.43326 0)
(7.11597 5.13127 0)
(9.54629 0.981592 0)
(9.54342 0.86085 0)
(6.68692 0.46627 0)
(7.59059 0.214543 0)
(4.0907 0.140294 0)
(6.84351 0.0108093 0)
(2.66511 0.132621 0)
(6.68985 -0.0903383 0)
(1.82254 0.141822 0)
(7.03997 -0.165068 0)
(1.26045 0.123896 0)
(8.12261 -0.414369 0)
(1.38511 0.252492 0)
(9.95487 -1.44186 0)
(3.43503 0.272646 0)
(12.3856 -4.06645 0)
(10.4243 -1.92627 0)
(7.77297 0.482826 0)
(9.1185 0.763489 0)
(12.1669 0.951345 0)
(8.3296 0.62392 0)
(11.8322 0.443345 0)
(6.22609 0.310254 0)
(11.4133 0.206475 0)
(4.58251 0.221434 0)
(11.3154 -0.0195224 0)
(3.87366 0.192875 0)
(11.3773 -0.277864 0)
(4.3498 0.187232 0)
(11.254 -0.723248 0)
(5.72774 0.176271 0)
(11.0912 -1.4917 0)
(7.21419 0.0535219 0)
(12.1172 -3.86423 0)
(6.93344 0.350506 0)
(9.35315 -2.39246 0)
(7.21893 0.524986 0)
(13.993 0.960928 0)
(7.92974 0.609409 0)
(14.2954 0.553773 0)
(7.47429 0.420838 0)
(14.1166 0.271091 0)
(7.17559 0.396599 0)
(13.7388 -0.145065 0)
(7.2565 0.459478 0)
(13.27 -0.698667 0)
(7.65884 0.576664 0)
(12.875 -1.42262 0)
(8.26569 0.699567 0)
(12.6519 -2.31305 0)
(9.02119 0.0432188 0)
(11.8894 -3.63621 0)
(8.68501 -1.43114 0)
(8.36603 0.680533 0)
(6.42411 0.569929 0)
(14.011 0.565838 0)
(8.47379 0.674342 0)
(13.958 0.284462 0)
(9.1698 0.636573 0)
(13.6434 -0.00255787 0)
(9.51768 0.657712 0)
(13.2137 -0.388639 0)
(9.59264 0.734229 0)
(12.8125 -0.871193 0)
(9.44598 0.876783 0)
(12.5816 -1.52117 0)
(9.14972 1.08995 0)
(12.569 -2.48925 0)
(8.82671 1.13258 0)
(11.6149 -5.02661 0)
(8.5433 1.26725 0)
(8.7224 0.123931 0)
(7.95684 0.616873 0)
(11.8027 0.152286 0)
(9.50586 0.654679 0)
(11.7389 0.0501261 0)
(10.0891 0.693881 0)
(11.5998 -0.165734 0)
(10.3215 0.725802 0)
(11.4755 -0.45756 0)
(10.3015 0.783058 0)
(11.3885 -0.853564 0)
(10.0339 0.832268 0)
(11.3539 -1.40006 0)
(9.49385 0.801927 0)
(11.416 -2.13834 0)
(8.80307 0.727439 0)
(10.9957 -3.92026 0)
(7.73738 1.33626 0)
(9.4892 -0.220124 0)
(9.34499 0.812623 0)
(10.4378 -0.266112 0)
(10.1418 0.930368 0)
(10.5528 -0.304652 0)
(10.3998 1.01989 0)
(10.5808 -0.502993 0)
(10.5213 1.07541 0)
(10.6243 -0.781242 0)
(10.5649 1.15343 0)
(10.6707 -1.15782 0)
(10.5173 1.23532 0)
(10.6987 -1.63578 0)
(10.3694 1.26161 0)
(10.6865 -2.32706 0)
(10.0568 1.27201 0)
(10.3751 -3.95321 0)
(8.30363 2.01819 0)
(9.69659 -0.954497 0)
(9.85013 0.701156 0)
(10.1549 -0.326238 0)
(10.4077 0.854983 0)
(10.3889 -0.35012 0)
(10.5815 0.906831 0)
(10.4697 -0.494226 0)
(10.7028 0.89298 0)
(10.5512 -0.686519 0)
(10.8066 0.872823 0)
(10.6432 -0.935501 0)
(10.8825 0.824192 0)
(10.7348 -1.23293 0)
(10.91 0.672016 0)
(10.7534 -1.67256 0)
(10.7259 0.520393 0)
(10.4927 -2.47348 0)
(8.89746 0.979588 0)
(9.96378 -0.485802 0)
(10.0867 0.802126 0)
(10.0188 -0.583626 0)
(10.5365 1.02127 0)
(10.3099 -0.60466 0)
(10.6762 1.07487 0)
(10.4393 -0.725128 0)
(10.7786 1.0481 0)
(10.5702 -0.890169 0)
(10.8582 1.00357 0)
(10.7109 -1.11787 0)
(10.8998 0.921071 0)
(10.8314 -1.39496 0)
(10.8751 0.734773 0)
(10.8219 -1.76065 0)
(10.6035 0.505496 0)
(10.5207 -2.06823 0)
(9.35227 0.584775 0)
(10.0232 -0.392616 0)
(10.14 0.648612 0)
(10.0414 -0.512208 0)
(10.511 0.878024 0)
(10.3327 -0.456793 0)
(10.622 0.869229 0)
(10.4813 -0.493932 0)
(10.6984 0.778279 0)
(10.6284 -0.57243 0)
(10.7347 0.65794 0)
(10.7631 -0.695618 0)
(10.7183 0.495612 0)
(10.8398 -0.845142 0)
(10.6187 0.264139 0)
(10.7652 -1.03206 0)
(10.283 0.0701497 0)
(10.4794 -1.05255 0)
(9.62455 0.123352 0)
(10.2065 -0.0333705 0)
(10.1415 0.699879 0)
(10.0702 -0.692058 0)
(10.4529 0.902382 0)
(10.2982 -0.619096 0)
(10.5378 0.847483 0)
(10.4299 -0.645661 0)
(10.6035 0.735099 0)
(10.5604 -0.707497 0)
(10.6275 0.586591 0)
(10.6602 -0.791294 0)
(10.6094 0.382939 0)
(10.6811 -0.869197 0)
(10.5272 0.11684 0)
(10.5709 -0.921844 0)
(10.2921 -0.114178 0)
(10.361 -0.76482 0)
(10.0207 -0.154897 0)
(10.2455 -0.125596 0)
(10.0971 0.467948 0)
(10.1506 -0.495365 0)
(10.3538 0.595686 0)
(10.2933 -0.374873 0)
(10.4205 0.527464 0)
(10.4093 -0.355031 0)
(10.485 0.418797 0)
(10.5239 -0.374417 0)
(10.5133 0.275633 0)
(10.5993 -0.41484 0)
(10.5159 0.0931999 0)
(10.5971 -0.461722 0)
(10.4769 -0.103472 0)
(10.4996 -0.500081 0)
(10.3575 -0.23238 0)
(10.3648 -0.405669 0)
(10.2664 -0.220276 0)
(10.374 -0.110583 0)
(10.0501 0.410835 0)
(10.1753 -0.487434 0)
(10.2549 0.437032 0)
(10.2378 -0.367646 0)
(10.3088 0.367171 0)
(10.3306 -0.345708 0)
(10.3793 0.250662 0)
(10.4246 -0.355404 0)
(10.4227 0.0992787 0)
(10.4823 -0.374962 0)
(10.4463 -0.0798959 0)
(10.4818 -0.403458 0)
(10.4331 -0.246861 0)
(10.4262 -0.431291 0)
(10.3774 -0.339421 0)
(10.3687 -0.392792 0)
(10.3573 -0.320821 0)
(10.4224 -0.276819 0)
(10.0154 0.199516 0)
(10.1907 -0.285991 0)
(10.1932 0.16718 0)
(10.2052 -0.179449 0)
(10.2293 0.131493 0)
(10.2792 -0.171514 0)
(10.3062 0.0470635 0)
(10.3626 -0.197914 0)
(10.366 -0.0588837 0)
(10.4142 -0.235857 0)
(10.4055 -0.176175 0)
(10.4268 -0.28655 0)
(10.4124 -0.275156 0)
(10.4113 -0.331787 0)
(10.3996 -0.324322 0)
(10.4067 -0.337384 0)
(10.411 -0.316258 0)
(10.4698 -0.305078 0)
(9.99665 0.0969983 0)
(10.1445 -0.186044 0)
(10.1463 0.0214829 0)
(10.1501 -0.133794 0)
(10.1622 -0.00881165 0)
(10.2089 -0.146298 0)
(10.241 -0.0771402 0)
(10.2919 -0.186875 0)
(10.311 -0.159573 0)
(10.3486 -0.238118 0)
(10.3575 -0.244956 0)
(10.3791 -0.29847 0)
(10.3805 -0.316455 0)
(10.3939 -0.35025 0)
(10.3959 -0.361217 0)
(10.4186 -0.380401 0)
(10.4239 -0.381273 0)
(10.4789 -0.38747 0)
(9.99374 0.0154083 0)
(10.1061 -0.0859367 0)
(10.1089 -0.0444646 0)
(10.1138 -0.0933708 0)
(10.1188 -0.0750325 0)
(10.1675 -0.119068 0)
(10.198 -0.12076 0)
(10.2519 -0.16398 0)
(10.2741 -0.180733 0)
(10.3154 -0.219316 0)
(10.3279 -0.244098 0)
(10.3598 -0.277982 0)
(10.366 -0.301508 0)
(10.394 -0.329177 0)
(10.3996 -0.347176 0)
(10.4329 -0.370993 0)
(10.4356 -0.383983 0)
(10.4884 -0.397204 0)
(9.9918 0.00467742 0)
(10.0637 -0.0252781 0)
(10.0567 -0.0350454 0)
(10.0678 -0.066597 0)
(10.0778 -0.0758534 0)
(10.128 -0.0999021 0)
(10.1573 -0.116091 0)
(10.211 -0.144851 0)
(10.2337 -0.16913 0)
(10.2782 -0.199725 0)
(10.292 -0.226726 0)
(10.33 -0.2572 0)
(10.3384 -0.28349 0)
(10.3731 -0.312228 0)
(10.3789 -0.336988 0)
(10.4153 -0.365724 0)
(10.4147 -0.38824 0)
(10.4635 -0.407658 0)
(9.99152 0.0141212 0)
(10.0466 0.0160959 0)
(10.0398 -0.0106507 0)
(10.0575 -0.0377592 0)
(10.0748 -0.0566262 0)
(10.1254 -0.0779532 0)
(10.1553 -0.0989769 0)
(10.2071 -0.123936 0)
(10.2311 -0.149113 0)
(10.2753 -0.176751 0)
(10.2911 -0.203562 0)
(10.3292 -0.232293 0)
(10.3394 -0.259509 0)
(10.3736 -0.288453 0)
(10.3801 -0.315787 0)
(10.414 -0.345855 0)
(10.4132 -0.371715 0)
(10.4567 -0.393532 0)
(9.99163 0.0328973 0)
(10.0502 0.0496182 0)
(10.0565 0.00989649 0)
(10.0798 -0.0181149 0)
(10.1006 -0.0402917 0)
(10.1506 -0.0615349 0)
(10.1818 -0.0836794 0)
(10.2315 -0.106481 0)
(10.2562 -0.130634 0)
(10.2984 -0.1556 0)
(10.315 -0.181174 0)
(10.3507 -0.207427 0)
(10.3614 -0.233668 0)
(10.3926 -0.26052 0)
(10.399 -0.287143 0)
(10.4287 -0.315397 0)
(10.428 -0.341128 0)
(10.4652 -0.362907 0)
(9.98988 0.0406989 0)
(10.0547 0.0526598 0)
(10.0827 -0.00635198 0)
(10.1167 -0.0406913 0)
(10.1419 -0.0641525 0)
(10.1903 -0.0823104 0)
(10.2223 -0.102153 0)
(10.269 -0.121072 0)
(10.2934 -0.142822 0)
(10.332 -0.164076 0)
(10.3482 -0.187495 0)
(10.3801 -0.210186 0)
(10.3904 -0.234498 0)
(10.4173 -0.258017 0)
(10.4228 -0.282886 0)
(10.4473 -0.307919 0)
(10.4461 -0.332545 0)
(10.4767 -0.352942 0)
(9.99053 0.0316085 0)
(10.0685 0.0220429 0)
(10.1261 -0.0557397 0)
(10.1769 -0.0967672 0)
(10.2125 -0.11981 0)
(10.2609 -0.132781 0)
(10.2937 -0.147825 0)
(10.336 -0.161712 0)
(10.3601 -0.179897 0)
(10.394 -0.196988 0)
(10.4103 -0.217436 0)
(10.4376 -0.23632 0)
(10.4478 -0.258072 0)
(10.4701 -0.278138 0)
(10.4753 -0.300823 0)
(10.4945 -0.322444 0)
(10.4938 -0.345295 0)
(10.5186 -0.363574 0)
(9.99117 0.00987168 0)
(10.092 -0.0297037 0)
(10.1869 -0.120853 0)
(10.2595 -0.162799 0)
(10.3093 -0.181169 0)
(10.359 -0.187208 0)
(10.3929 -0.196091 0)
(10.4304 -0.204423 0)
(10.4541 -0.21817 0)
(10.4836 -0.230808 0)
(10.5001 -0.247672 0)
(10.5232 -0.262703 0)
(10.5336 -0.281415 0)
(10.5516 -0.298102 0)
(10.5571 -0.318162 0)
(10.5718 -0.336495 0)
(10.5722 -0.35707 0)
(10.5919 -0.373203 0)
(9.99279 -0.02332 0)
(10.1275 -0.103553 0)
(10.2671 -0.204895 0)
(10.3665 -0.241581 0)
(10.4319 -0.250814 0)
(10.4836 -0.248408 0)
(10.5183 -0.250922 0)
(10.5517 -0.253722 0)
(10.5753 -0.263003 0)
(10.6011 -0.271368 0)
(10.618 -0.284703 0)
(10.6377 -0.296327 0)
(10.6486 -0.312144 0)
(10.6631 -0.325902 0)
(10.6691 -0.34344 0)
(10.68 -0.358885 0)
(10.6813 -0.377194 0)
(10.6967 -0.391342 0)
(9.99057 -0.0716013 0)
(10.1745 -0.201152 0)
(10.368 -0.305458 0)
(10.5002 -0.327871 0)
(10.5806 -0.322584 0)
(10.6344 -0.31022 0)
(10.669 -0.305606 0)
(10.6997 -0.302602 0)
(10.7227 -0.306743 0)
(10.746 -0.310628 0)
(10.7624 -0.319954 0)
(10.7794 -0.3281 0)
(10.7895 -0.340642 0)
(10.8006 -0.351421 0)
(10.8054 -0.366015 0)
(10.8123 -0.378572 0)
(10.8121 -0.394129 0)
(10.8221 -0.40608 0)
(9.99204 -0.136331 0)
(10.2448 -0.322966 0)
(10.5027 -0.418972 0)
(10.6712 -0.417608 0)
(10.7627 -0.394159 0)
(10.8175 -0.371095 0)
(10.8494 -0.358938 0)
(10.8772 -0.350588 0)
(10.896 -0.35011 0)
(10.9148 -0.35051 0)
(10.9252 -0.356406 0)
(10.9354 -0.361539 0)
(10.9374 -0.370845 0)
(10.9393 -0.378708 0)
(10.9338 -0.389907 0)
(10.929 -0.399492 0)
(10.9162 -0.411415 0)
(10.9113 -0.420562 0)
(9.98979 -0.219887 0)
(10.3369 -0.468108 0)
(10.6737 -0.539724 0)
(10.8758 -0.50822 0)
(10.9698 -0.464852 0)
(11.0135 -0.428066 0)
(11.0286 -0.40482 0)
(11.0352 -0.388402 0)
(11.029 -0.381441 0)
(11.0194 -0.376992 0)
(10.9979 -0.378208 0)
(10.9734 -0.379114 0)
(10.9375 -0.383835 0)
(10.8998 -0.387315 0)
(10.852 -0.393685 0)
(10.8039 -0.39901 0)
(10.7458 -0.40533 0)
(10.6941 -0.410103 0)
(9.98338 -0.332056 0)
(10.4677 -0.64229 0)
(10.883 -0.66708 0)
(11.0725 -0.602626 0)
(11.103 -0.537175 0)
(11.0583 -0.483112 0)
(10.9743 -0.444977 0)
(10.8731 -0.41623 0)
(10.7576 -0.398019 0)
(10.6349 -0.383282 0)
(10.5033 -0.3749 0)
(10.3664 -0.366341 0)
(10.2239 -0.362457 0)
(10.0771 -0.357007 0)
(9.9283 -0.355865 0)
(9.77669 -0.353274 0)
(9.62547 -0.352975 0)
(9.47551 -0.351139 0)
(10.0025 -0.453673 0)
(10.619 -0.818952 0)
(10.9017 -0.752065 0)
(10.7933 -0.623753 0)
(10.4938 -0.51253 0)
(10.1376 -0.429187 0)
(9.77008 -0.373564 0)
(9.41753 -0.33473 0)
(9.07669 -0.307301 0)
(8.75531 -0.284617 0)
(8.44628 -0.267662 0)
(8.15317 -0.251339 0)
(7.87238 -0.240052 0)
(7.60277 -0.227347 0)
(7.34793 -0.221145 0)
(7.09837 -0.21183 0)
(6.86991 -0.210859 0)
(6.64045 -0.204182 0)
(10.0975 -0.750791 0)
(10.0459 -1.01319 0)
(9.42501 -0.80108 0)
(8.51449 -0.572182 0)
(7.65506 -0.378729 0)
(6.92891 -0.244893 0)
(6.32734 -0.167534 0)
(5.8316 -0.126263 0)
(5.40915 -0.104711 0)
(5.04853 -0.0923273 0)
(4.72842 -0.0849654 0)
(4.44767 -0.0793543 0)
(4.19123 -0.0758135 0)
(3.96231 -0.0718949 0)
(3.75057 -0.0721353 0)
(3.55538 -0.0690804 0)
(3.38313 -0.0802567 0)
(3.21819 -0.0828491 0)
(8.51678 -0.43605 0)
(6.1103 -0.380885 0)
(4.29838 -0.138048 0)
(3.1239 -0.0213832 0)
(2.48111 0.019133 0)
(2.12046 0.0224734 0)
(1.89621 0.0137166 0)
(1.73487 0.0046163 0)
(1.59881 -0.00156781 0)
(1.47805 -0.00479023 0)
(1.36595 -0.00640495 0)
(1.26378 -0.00672104 0)
(1.1681 -0.00670907 0)
(1.08136 -0.00639084 0)
(0.99932 -0.00665741 0)
(0.919086 -0.0070322 0)
(0.85157 -0.0185987 0)
(0.73109 -0.00613042 0)
(-0.0520507 0.137993 0)
(-0.157031 0.0714516 0)
(-0.20695 0.0163875 0)
(-0.195025 -0.044431 0)
(-0.117678 -0.0991639 0)
(0.0126274 -0.145205 0)
(0.186811 -0.175743 1.11353e-17)
(0.388702 -0.193695 -1.10603e-17)
(0.607074 -0.198073 0)
(0.829588 -0.192799 -1.09171e-17)
(1.04686 -0.17846 0)
(1.24992 -0.1577 0)
(1.43219 -0.131059 0)
(1.5884 -0.101679 1.06425e-17)
(1.71592 -0.0703993 0)
(1.81198 -0.0382843 0)
(1.87571 -0.00609612 -1.04454e-17)
(1.90782 0.0241821 0)
(1.90998 0.0506148 0)
(1.88427 0.0722694 0)
(1.8344 0.0891931 1.01959e-17)
(1.76293 0.100767 0)
(1.67375 0.108696 1.0074e-17)
(1.56858 0.111626 0)
(1.45207 0.109697 0)
(1.32698 0.10796 9.89533e-18)
(1.19355 0.111183 0)
(1.05101 0.11626 -9.77901e-18)
(0.902533 0.121501 0)
(0.748693 0.126577 9.66414e-18)
(0.591014 0.130624 0)
(0.431776 0.133131 0)
(0.273239 0.134324 0)
(0.115887 0.134121 0)
(-0.039947 0.131238 0)
(-0.192213 0.126544 -9.32955e-18)
(-0.339233 0.120423 0)
(-0.480579 0.113931 1.84405e-17)
(-0.614818 0.107484 0)
(-0.741522 0.100305 -1.82215e-17)
(-0.859218 0.0932843 0)
(-0.968066 0.0864827 0)
(-1.06851 0.0786952 1.78884e-17)
(-1.16005 0.0702865 0)
(-1.24331 0.0625435 1.76652e-17)
(-1.31842 0.0552953 -1.75531e-17)
(-1.38484 0.0483044 0)
(-1.44346 0.0422719 -1.73282e-17)
(-1.49536 0.0369555 -1.72152e-17)
(-1.53953 0.0332906 0)
(-1.57617 0.0317318 0)
(-1.60715 0.0317123 0)
(-1.63454 0.0317469 0)
(-1.65928 0.0316427 0)
(-1.68274 0.0324094 1.65282e-17)
(-1.70672 0.0338584 0)
(-1.73257 0.0360348 -1.6299e-17)
(-1.75905 0.0381022 0)
(-1.78502 0.0388579 0)
(-1.8105 0.0396185 1.59524e-17)
(-1.83623 0.0414978 0)
(-1.86406 0.0427875 -1.57211e-17)
(-1.8939 0.0444983 0)
(-1.92558 0.04602 0)
(-1.95863 0.0468788 0)
(-1.99246 0.0480416 1.52556e-17)
(-2.02673 0.049816 0)
(-2.06169 0.0519745 0)
(-2.09714 0.0543294 1.49059e-17)
(-2.13335 0.0557546 0)
(-2.16734 0.0559491 1.46712e-17)
(-2.19821 0.0563053 0)
(-2.22583 0.0564609 0)
(-2.24917 0.0562793 0)
(-2.26727 0.0556689 -1.42051e-17)
(-2.27944 0.054441 0)
(-2.28638 0.0537354 0)
(-2.29002 0.053689 -1.38613e-17)
(-2.29078 0.0527392 -1.37479e-17)
(-2.28695 0.0511034 0)
(-2.27674 0.0488576 -1.35227e-17)
(-2.26002 0.0459688 0)
(-2.23644 0.0428607 -2.66025e-17)
(-2.20599 0.0394605 0)
(-2.16919 0.0358 -2.61671e-17)
(-2.12585 0.0327196 0)
(-2.077 0.0302861 2.57384e-17)
(-2.02345 0.0282906 0)
(-1.96527 0.0268085 0)
(-1.90311 0.0257826 0)
(-1.8385 0.0251643 -2.49014e-17)
(-1.77122 0.0248829 0)
(-1.70289 0.0248348 2.44996e-17)
(-1.63361 0.0254724 0)
(-1.56416 0.0265955 -2.41103e-17)
(-1.49647 0.029156 -2.39217e-17)
(-1.42964 0.0303108 -2.37374e-17)
(-1.36277 0.031408 0)
(-1.2977 0.0314572 0)
(-1.23318 0.0326333 0)
(-1.16734 0.0333592 0)
(-1.10241 0.0329089 0)
(-1.0324 0.0317757 0)
(-0.96373 0.0332291 0)
(-0.892661 0.0328513 0)
(-0.825912 0.0354095 2.22132e-17)
(-0.758412 0.0357633 2.20611e-17)
(-0.696041 0.0401962 0)
(-0.635325 0.0413902 0)
(-0.580036 0.0412097 0)
(-0.512884 0.038498 2.14805e-17)
(-0.450955 0.0426911 0)
(-0.382678 0.0409798 0)
(-0.318223 0.0438482 0)
(-0.247988 0.0408778 0)
(-0.175891 0.0434207 -2.0806e-17)
(-0.101933 0.045136 0)
(-0.0226512 0.0441683 0)
(0.0615089 0.0455182 2.04288e-17)
(0.149442 0.0452273 -2.03073e-17)
(0.241126 0.0444206 0)
(0.337521 0.0482371 -2.00746e-17)
(0.429398 0.0511242 0)
(0.522494 0.0542667 1.98482e-17)
(0.605522 0.0590335 0)
(0.677347 0.0619964 0)
(0.753227 0.0623015 0)
(0.822883 0.0630717 0)
(0.902866 0.0602762 0)
(0.976523 0.0608973 -3.83963e-17)
(1.0525 0.0626149 -3.81774e-17)
(1.1122 0.0676275 0)
(1.16287 0.0662953 0)
(1.20798 0.0674391 0)
(1.24641 0.0633499 3.72528e-17)
(1.29529 0.0588229 0)
(1.34561 0.0571247 0)
(1.39135 0.0559471 0)
(1.44011 0.0541672 3.62328e-17)
(1.47718 0.0567704 -3.59646e-17)
(1.52046 0.0526821 0)
(1.55958 0.0526875 0)
(1.60127 0.0531576 -3.515e-17)
(1.6274 0.0582686 -3.48772e-17)
(1.65744 0.0549818 0)
(1.68581 0.0587399 0)
(1.72491 0.05575 3.40442e-17)
(1.76133 0.0659447 -3.37648e-17)
(1.76966 0.0713669 0)
(1.78336 0.0706935 0)
(1.80893 0.0710458 -3.29281e-17)
(1.84251 0.0757286 0)
(1.8564 0.0833195 0)
(1.86822 0.0890353 -3.2084e-17)
(1.86789 0.0931403 0)
(1.88245 0.0979926 -3.15239e-17)
(1.88467 0.10503 0)
(1.89043 0.109186 0)
(1.87758 0.120804 0)
(1.86446 0.126618 3.04342e-17)
(1.8497 0.133051 0)
(1.81788 0.142991 0)
(1.74543 0.154738 0)
(1.66865 0.154755 0)
(1.60262 0.157063 0)
(1.51219 0.165854 0)
(1.38348 0.172571 2.88921e-17)
(1.26469 0.173825 2.87381e-17)
(1.08068 0.181901 0)
(0.873395 0.184662 0)
(0.629722 0.183596 0)
(0.414101 0.169777 -2.83207e-17)
(0.19201 0.162848 0)
(0.0397599 0.146652 5.63466e-17)
(-0.161388 0.144073 -5.62372e-17)
(-0.2647 0.123696 -5.60579e-17)
(-0.426032 0.126828 5.59542e-17)
(-0.461364 0.0966644 -5.57517e-17)
(-0.619085 0.129175 5.57319e-17)
(-0.566302 -0.00410035 0)
(0.010158 0.24876 0)
(0.0147527 0.191878 0)
(0.0499687 0.00754475 -2.27959e-17)
(0.121465 -0.198596 0)
(0.236539 -0.384634 2.23642e-17)
(0.389016 -0.536107 2.22175e-17)
(0.570309 -0.645034 1.10433e-17)
(0.770308 -0.710981 1.09809e-17)
(0.977683 -0.737585 0)
(1.18189 -0.731271 1.08538e-17)
(1.3743 -0.695359 0)
(1.54762 -0.636976 0)
(1.69789 -0.562255 -2.13192e-17)
(1.82039 -0.477734 -1.05944e-17)
(1.91503 -0.385794 2.10548e-17)
(1.98006 -0.291267 2.09213e-17)
(2.01684 -0.198929 1.03951e-17)
(2.02546 -0.110856 0)
(2.00833 -0.0278336 0)
(1.96545 0.0468948 0)
(1.90069 0.112348 1.01362e-17)
(1.8141 0.171394 0)
(1.71038 0.22422 -3.00362e-17)
(1.5883 0.266971 0)
(1.45019 0.301866 0)
(1.29654 0.332383 -9.83153e-18)
(1.13085 0.356345 0)
(0.955859 0.373635 9.71521e-18)
(0.775421 0.384715 1.9312e-17)
(0.590421 0.392049 -9.59724e-18)
(0.40365 0.394221 0)
(0.216348 0.390498 0)
(0.0282163 0.383307 0)
(-0.160285 0.37642 1.87306e-17)
(-0.347363 0.367895 1.86162e-17)
(-0.531745 0.355671 9.25108e-18)
(-0.71065 0.340943 0)
(-0.884625 0.323885 -1.82759e-17)
(-1.0497 0.303356 0)
(-1.20814 0.281459 1.80505e-17)
(-1.3583 0.259002 0)
(-1.50186 0.236229 0)
(-1.63729 0.215872 -1.77165e-17)
(-1.76556 0.196778 0)
(-1.88908 0.178831 -5.24862e-17)
(-2.00695 0.160079 1.73856e-17)
(-2.11823 0.141211 0)
(-2.22263 0.12443 1.71654e-17)
(-2.32089 0.106882 1.70552e-17)
(-2.41186 0.0874956 0)
(-2.49367 0.0687301 0)
(-2.56836 0.0542337 0)
(-2.6378 0.0446553 0)
(-2.70386 0.0396028 0)
(-2.76598 0.0379776 -1.63737e-17)
(-2.8261 0.0372145 -3.25152e-17)
(-2.88458 0.0370474 1.61415e-17)
(-2.9385 0.0342542 0)
(-2.98999 0.030174 -3.1813e-17)
(-3.03918 0.0287813 1.57875e-17)
(-3.08546 0.0297476 0)
(-3.13271 0.0306652 1.55499e-17)
(-3.17772 0.0333585 0)
(-3.22075 0.0348016 0)
(-3.26217 0.0343777 3.03755e-17)
(-3.30264 0.0337698 -1.50674e-17)
(-3.33865 0.0317477 2.9892e-17)
(-3.37219 0.0290231 -2.96507e-17)
(-3.39977 0.0253571 -1.47047e-17)
(-3.42419 0.0205204 0)
(-3.44221 0.0128934 -1.4463e-17)
(-3.45348 0.00262642 0)
(-3.45905 -0.00818126 0)
(-3.45613 -0.0207606 0)
(-3.44399 -0.0350588 -1.39831e-17)
(-3.42356 -0.049104 0)
(-3.39661 -0.0592456 -2.74953e-17)
(-3.36386 -0.0663605 4.08946e-17)
(-3.32576 -0.0748564 1.35164e-17)
(-3.28135 -0.0858635 0)
(-3.22908 -0.0985012 1.32879e-17)
(-3.17157 -0.111063 0)
(-3.10848 -0.12299 2.61244e-17)
(-3.04028 -0.133875 0)
(-2.96715 -0.14427 2.56814e-17)
(-2.88899 -0.15357 -5.0923e-17)
(-2.80696 -0.162443 -2.52476e-17)
(-2.7226 -0.170439 0)
(-2.63317 -0.178059 0)
(-2.54155 -0.183774 0)
(-2.44765 -0.187989 2.44075e-17)
(-2.35046 -0.19205 0)
(-2.25202 -0.194702 -2.40012e-17)
(-2.15361 -0.195003 0)
(-2.05465 -0.196498 7.08224e-17)
(-1.95586 -0.195741 2.34173e-17)
(-1.85648 -0.196654 2.32313e-17)
(-1.7593 -0.193751 0)
(-1.66451 -0.193243 0)
(-1.56915 -0.194297 0)
(-1.47115 -0.195063 0)
(-1.37438 -0.197416 0)
(-1.27163 -0.201776 4.43227e-17)
(-1.17564 -0.199635 4.39864e-17)
(-1.07572 -0.199865 0)
(-0.988757 -0.194048 -2.16752e-17)
(-0.892138 -0.195423 -2.15233e-17)
(-0.805576 -0.188271 0)
(-0.710944 -0.187081 -4.24439e-17)
(-0.633482 -0.185856 0)
(-0.537707 -0.196287 2.09376e-17)
(-0.452542 -0.190248 0)
(-0.347484 -0.198525 0)
(-0.253472 -0.195226 -4.10575e-17)
(-0.140996 -0.203694 0)
(-0.037522 -0.203647 2.02721e-17)
(0.0868995 -0.211101 0)
(0.212322 -0.218949 0)
(0.347844 -0.223468 1.9887e-17)
(0.487906 -0.228653 1.97707e-17)
(0.63339 -0.234627 0)
(0.78271 -0.235513 -1.95334e-17)
(0.942626 -0.236954 0)
(1.10198 -0.22915 1.92966e-17)
(1.26754 -0.219405 3.8363e-17)
(1.41535 -0.213092 0)
(1.5727 -0.214108 0)
(1.71769 -0.214063 0)
(1.87748 -0.215457 0)
(2.02391 -0.210385 3.72308e-17)
(2.17838 -0.207168 1.11008e-16)
(2.31419 -0.187846 0)
(2.4386 -0.183446 0)
(2.55716 -0.173137 0)
(2.66401 -0.17552 -3.60805e-17)
(2.76624 -0.179683 0)
(2.86928 -0.179235 0)
(2.96438 -0.177412 7.06172e-17)
(3.05918 -0.176434 3.50346e-17)
(3.13263 -0.170467 3.47654e-17)
(3.22061 -0.179803 0)
(3.28434 -0.173787 0)
(3.35307 -0.175148 3.39213e-17)
(3.39917 -0.164174 -3.36157e-17)
(3.44555 -0.178249 0)
(3.4749 -0.174914 0)
(3.50955 -0.191003 -3.27233e-17)
(3.53771 -0.173224 9.71933e-17)
(3.55243 -0.168878 0)
(3.56333 -0.179929 0)
(3.57488 -0.191586 3.14616e-17)
(3.59594 -0.189608 0)
(3.59189 -0.183049 6.16295e-17)
(3.5905 -0.181314 -3.04735e-17)
(3.56341 -0.185562 0)
(3.55977 -0.194516 2.98473e-17)
(3.53547 -0.190822 5.90593e-17)
(3.52403 -0.19229 0)
(3.47728 -0.185554 0)
(3.45395 -0.194604 -2.85756e-17)
(3.41353 -0.186514 0)
(3.35651 -0.169141 5.58884e-17)
(3.2592 -0.14992 0)
(3.16739 -0.154935 0)
(3.04722 -0.146365 0)
(2.9184 -0.12135 0)
(2.72284 -0.102423 -2.66522e-17)
(2.56414 -0.0758758 -2.6463e-17)
(2.27971 -0.0261837 0)
(2.00628 -0.00118977 0)
(1.67591 0.0229438 0)
(1.38107 0.0187913 2.59577e-17)
(1.04734 0.0235679 0)
(0.839616 0.0144329 -5.16678e-17)
(0.518107 0.0334459 5.1641e-17)
(0.403002 0.00113072 5.14925e-17)
(0.121863 0.0321018 5.14836e-17)
(0.1219 -0.0157881 5.13306e-17)
(-0.174894 0.0787984 5.1495e-17)
(0.0124442 -0.117554 0)
(0.029059 0.0707791 0)
(0.121245 -0.038839 0)
(0.228375 -0.242083 2.29128e-17)
(0.340617 -0.469012 2.26642e-17)
(0.475209 -0.693638 -2.25126e-17)
(0.61948 -0.875556 -2.23998e-17)
(0.773804 -1.00417 -1.48239e-21)
(0.925159 -1.07436 0)
(1.07028 -1.08505 0)
(1.19706 -1.0458 0)
(1.30582 -0.965955 0)
(1.39178 -0.856703 0)
(1.45737 -0.726222 6.47104e-17)
(1.49809 -0.585999 0)
(1.51674 -0.44117 -2.13045e-17)
(1.51154 -0.294745 -2.11682e-17)
(1.4854 -0.153371 0)
(1.43687 -0.0199305 0)
(1.3706 0.103875 0)
(1.28633 0.2163 0)
(1.18635 0.315618 -2.05022e-17)
(1.07148 0.39864 0)
(0.946722 0.471021 2.02483e-17)
(0.809349 0.536188 0)
(0.662243 0.591083 0)
(0.506756 0.636043 0)
(0.34832 0.672035 3.95247e-17)
(0.185906 0.699278 0)
(0.0220371 0.718741 -1.95221e-17)
(-0.142847 0.729182 3.87996e-17)
(-0.307019 0.732405 0)
(-0.473492 0.734201 0)
(-0.640164 0.731285 0)
(-0.805689 0.721851 -1.89164e-17)
(-0.967609 0.70667 -1.87956e-17)
(-1.12636 0.685228 0)
(-1.28033 0.657964 0)
(-1.42877 0.626475 3.68586e-17)
(-1.57024 0.592424 3.66189e-17)
(-1.70999 0.558066 -3.63807e-17)
(-1.84471 0.52532 0)
(-1.97762 0.491772 0)
(-2.10486 0.459587 0)
(-2.22836 0.430246 0)
(-2.34766 0.402595 3.52002e-17)
(-2.46101 0.373446 3.49665e-17)
(-2.5692 0.343948 -3.47346e-17)
(-2.67188 0.315585 0)
(-2.76853 0.287827 0)
(-2.86001 0.25911 0)
(-2.94608 0.232414 0)
(-3.0321 0.21455 3.35754e-17)
(-3.11217 0.198409 0)
(-3.18716 0.184911 0)
(-3.25555 0.176766 3.28779e-17)
(-3.31918 0.171201 3.26463e-17)
(-3.37736 0.163963 0)
(-3.42782 0.154262 -6.43595e-17)
(-3.47621 0.147096 3.19485e-17)
(-3.52054 0.140493 -3.17141e-17)
(-3.55902 0.136646 0)
(-3.59456 0.133924 0)
(-3.62402 0.129749 0)
(-3.64856 0.125579 0)
(-3.67058 0.120451 -3.05527e-17)
(-3.68834 0.113167 -6.06463e-17)
(-3.6999 0.105308 -3.00975e-17)
(-3.70775 0.0969366 2.98726e-17)
(-3.70839 0.0853715 0)
(-3.70394 0.0721245 -5.88396e-17)
(-3.69152 0.0559915 -5.83913e-17)
(-3.67384 0.0397256 -5.79464e-17)
(-3.65195 0.0218106 5.75046e-17)
(-3.62121 -0.000623941 0)
(-3.58352 -0.0234625 8.49415e-17)
(-3.53993 -0.04301 0)
(-3.49158 -0.0584443 -2.78775e-17)
(-3.43466 -0.0721814 -2.76646e-17)
(-3.36976 -0.0877623 0)
(-3.29863 -0.104494 0)
(-3.22401 -0.121093 -5.40408e-17)
(-3.14718 -0.13576 0)
(-3.06636 -0.149792 -5.31935e-17)
(-2.98303 -0.163256 0)
(-2.8951 -0.177474 5.23546e-17)
(-2.80374 -0.18872 1.03881e-16)
(-2.70871 -0.198382 0)
(-2.61294 -0.207581 0)
(-2.51412 -0.215142 0)
(-2.41663 -0.221487 5.02912e-17)
(-2.31728 -0.227403 0)
(-2.21468 -0.232169 4.94695e-17)
(-2.10915 -0.235484 0)
(-2.00318 -0.234652 0)
(-1.89476 -0.234661 -9.65057e-17)
(-1.78925 -0.232108 0)
(-1.68174 -0.231484 -4.74615e-17)
(-1.5786 -0.225339 0)
(-1.47111 -0.226133 -4.66936e-17)
(-1.3646 -0.225474 0)
(-1.25565 -0.224668 0)
(-1.14843 -0.228389 0)
(-1.03777 -0.230945 -1.35692e-16)
(-0.937953 -0.222239 -4.48688e-17)
(-0.828411 -0.219207 0)
(-0.735811 -0.208294 0)
(-0.633928 -0.210144 0)
(-0.549279 -0.197191 0)
(-0.44508 -0.193343 4.32347e-17)
(-0.36007 -0.187349 -8.58334e-17)
(-0.253672 -0.204406 -4.26317e-17)
(-0.167088 -0.196648 8.46556e-17)
(-0.0477687 -0.212556 8.40927e-17)
(0.0534935 -0.208761 4.17606e-17)
(0.182982 -0.223627 0)
(0.295254 -0.22417 8.23956e-17)
(0.433622 -0.239779 0)
(0.565095 -0.249144 -8.12849e-17)
(0.712952 -0.256126 -4.03845e-17)
(0.858665 -0.261552 0)
(1.0134 -0.27034 7.97644e-17)
(1.16221 -0.273623 3.9629e-17)
(1.32435 -0.282036 0)
(1.48276 -0.280491 3.90903e-17)
(1.65715 -0.269744 -1.16509e-16)
(1.81623 -0.257544 0)
(1.98095 -0.256509 0)
(2.13273 -0.256013 0)
(2.29308 -0.259092 0)
(2.44912 -0.254356 -7.51562e-17)
(2.60524 -0.251349 -7.46575e-17)
(2.75587 -0.220093 0)
(2.89468 -0.214808 0)
(3.02451 -0.202275 0)
(3.14825 -0.201061 0)
(3.25361 -0.205719 0)
(3.37592 -0.209129 0)
(3.48801 -0.207883 -7.09555e-17)
(3.60322 -0.205323 -1.65071e-20)
(3.69588 -0.196142 0)
(3.8072 -0.209492 0)
(3.89487 -0.196967 -6.86103e-17)
(3.98885 -0.197681 0)
(4.06705 -0.176782 6.74293e-17)
(4.1376 -0.187674 6.68123e-17)
(4.17901 -0.170352 0)
(4.23391 -0.188786 0)
(4.27236 -0.164864 -6.49039e-17)
(4.32277 -0.156096 -1.28518e-16)
(4.35074 -0.160542 0)
(4.38386 -0.172634 0)
(4.4261 -0.163827 0)
(4.43942 -0.149354 -6.16944e-17)
(4.46875 -0.136314 6.10064e-17)
(4.46809 -0.13581 0)
(4.48821 -0.141875 1.19377e-16)
(4.4716 -0.129713 5.90336e-17)
(4.4888 -0.128111 -1.16773e-16)
(4.46599 -0.109711 0)
(4.46541 -0.116878 0)
(4.43462 -0.0954694 -1.12753e-16)
(4.39452 -0.067654 -5.57164e-17)
(4.31018 -0.0381022 0)
(4.24671 -0.0357208 0)
(4.11377 -0.0172656 0)
(4.00373 0.0254425 0)
(3.79096 0.0528086 -1.05585e-16)
(3.62247 0.0957433 0)
(3.32428 0.167365 0)
(3.06545 0.192392 0)
(2.71457 0.220027 0)
(2.40049 0.202866 0)
(2.01109 0.187478 0)
(1.7736 0.154364 -1.00631e-16)
(1.36751 0.151887 0)
(1.23803 0.0830737 0)
(0.853736 0.105441 -1.9941e-16)
(0.849028 0.0229344 9.92435e-17)
(0.463045 0.111416 -9.94003e-17)
(0.658837 -0.128858 9.87804e-17)
(0.0206086 -0.0945744 0)
(0.125047 -0.270068 -4.69563e-17)
(0.247862 -0.490731 0)
(0.375879 -0.7563 -2.27968e-17)
(0.502573 -0.999944 0)
(0.618671 -1.18869 0)
(0.723185 -1.30605 2.24453e-17)
(0.803671 -1.34902 0)
(0.86637 -1.319 0)
(0.905439 -1.23313 0)
(0.927382 -1.11036 0)
(0.930018 -0.961159 0)
(0.91823 -0.794071 -8.6614e-17)
(0.889386 -0.616988 -4.30243e-17)
(0.846983 -0.434314 4.27449e-17)
(0.790714 -0.253346 0)
(0.722634 -0.0807491 0)
(0.641362 0.0805595 0)
(0.55037 0.229202 0)
(0.44914 0.362493 0)
(0.340445 0.480034 -4.11503e-17)
(0.22247 0.581948 -4.08978e-17)
(0.0965256 0.672781 4.06486e-17)
(-0.0352296 0.748948 -4.0401e-17)
(-0.171143 0.811845 0)
(-0.309841 0.860058 0)
(-0.450072 0.896207 -3.96578e-17)
(-0.590692 0.921029 0)
(-0.732247 0.935287 0)
(-0.874371 0.944028 -3.89247e-17)
(-1.0171 0.949649 -3.86815e-17)
(-1.15769 0.947482 -3.8437e-17)
(-1.29522 0.938541 0)
(-1.42954 0.923373 0)
(-1.5593 0.902043 3.76934e-17)
(-1.68411 0.872522 0)
(-1.80502 0.837112 0)
(-1.92235 0.797723 -3.69485e-17)
(-2.03673 0.759803 3.66969e-17)
(-2.14958 0.721744 -3.64482e-17)
(-2.25598 0.683021 0)
(-2.36073 0.643646 0)
(-2.46142 0.607342 -7.14188e-17)
(-2.55933 0.573148 0)
(-2.65191 0.5351 -7.0453e-17)
(-2.74101 0.497097 -1.04963e-16)
(-2.82647 0.461445 1.04242e-16)
(-2.90659 0.425322 -6.90143e-17)
(-2.98364 0.388341 0)
(-3.05801 0.352889 0)
(-3.13184 0.324605 -6.76019e-17)
(-3.2029 0.29991 -3.35705e-17)
(-3.2676 0.274076 0)
(-3.32808 0.252672 0)
(-3.38393 0.236915 -3.28783e-17)
(-3.43429 0.21958 -6.52968e-17)
(-3.47838 0.200185 0)
(-3.51642 0.181804 6.4379e-17)
(-3.55055 0.167021 -6.39199e-17)
(-3.57926 0.153176 6.34641e-17)
(-3.60214 0.139173 0)
(-3.61876 0.125816 0)
(-3.63092 0.114597 0)
(-3.63773 0.103428 0)
(-3.64089 0.0933703 0)
(-3.63863 0.0776386 6.07741e-17)
(-3.63204 0.0605137 0)
(-3.61877 0.0418533 0)
(-3.59968 0.0207788 0)
(-3.57648 -0.00122778 1.18047e-16)
(-3.54777 -0.0252601 5.85915e-17)
(-3.51435 -0.0493481 5.8158e-17)
(-3.47597 -0.076455 -1.15458e-16)
(-3.43123 -0.108013 5.73041e-17)
(-3.38309 -0.138223 -5.68848e-17)
(-3.32871 -0.165839 0)
(-3.26941 -0.191803 5.60376e-17)
(-3.20016 -0.218498 0)
(-3.12675 -0.243776 0)
(-3.04771 -0.265715 0)
(-2.96716 -0.286445 1.08719e-16)
(-2.88447 -0.30544 -5.39462e-17)
(-2.79843 -0.324327 -5.35326e-17)
(-2.71117 -0.34304 -1.0627e-16)
(-2.61988 -0.362772 -1.58215e-16)
(-2.52775 -0.378457 -5.23431e-17)
(-2.43084 -0.391238 0)
(-2.33441 -0.402677 -1.0307e-16)
(-2.23641 -0.410804 0)
(-2.13858 -0.417286 -1.52206e-16)
(-2.03992 -0.427362 0)
(-1.94247 -0.433849 -1.49833e-16)
(-1.83883 -0.440227 0)
(-1.73475 -0.440883 0)
(-1.62573 -0.442377 -4.87472e-17)
(-1.51833 -0.438991 0)
(-1.4075 -0.438472 4.79723e-17)
(-1.30159 -0.433697 9.51561e-17)
(-1.18776 -0.435458 4.72034e-17)
(-1.07812 -0.437395 9.36492e-17)
(-0.959703 -0.438042 -9.28922e-17)