/*--------------------------------*- C++ -*----------------------------------*\
| =========                 |                                                 |
| \\      /  F ield         | OpenFOAM: The Open Source CFD Toolbox           |
|  \\    /   O peration     | Version:  dev                                   |
|   \\  /    A nd           | Web:      http://www.openfoam.org               |
|    \\/     M anipulation  |                                                 |
\*---------------------------------------------------------------------------*/
FoamFile
{
    version     2.0;
    format      ascii;
    class       volSymmTensorField;
    object      UPrime2Mean;
    location    "9.122";
}
// * * * * * * * * * * * * * * * * * * * * * * * * * * * * * * * * * * * * * //

dimensions      [0 2 -2 0 0 0 0];

internalField   nonuniform List<symmTensor> 
12225
(
(0.329216 0.019277 0 0.0692986 0 0)
(2.98552 0.0797105 0 0.0782248 0 0)
(7.87843 0.112347 0 0.076927 0 0)
(14.5304 0.148268 0 0.0756006 0 0)
(22.6965 0.133091 0 0.0765459 0 0)
(32.0573 0.201155 0 0.0746983 0 0)
(42.3662 0.0961305 0 0.076639 0 0)
(53.5055 0.200552 0 0.0738755 0 0)
(65.5949 -0.0281488 0 0.0776343 0 0)
(78.1863 0.125957 0 0.0736411 0 0)
(92.9276 -0.305763 0 0.0813294 0 0)
(107.263 -0.115246 0 0.0770088 0 0)
(127.864 -0.671607 0 0.0863213 0 0)
(145.567 -1.27654 0 0.134715 0 0)
(185.863 -1.4087 0 0.116392 0 0)
(198.449 -0.393005 0 2.39186 0 0)
(272.206 -33.5236 0 5.80702 0 0)
(575.626 -52.8931 0 18.808 0 0)
(0.377356 0.0568329 0 0.689303 0 0)
(3.15528 0.252285 0 0.732616 0 0)
(8.40861 0.362202 0 0.714462 0 0)
(15.4685 0.485507 0 0.70695 0 0)
(24.1898 0.45329 0 0.703809 0 0)
(34.4438 0.633031 0 0.683627 0 0)
(45.508 0.296641 0 0.692419 0 0)
(58.4556 0.609612 0 0.659077 0 0)
(71.4427 -0.13415 0 0.682916 0 0)
(87.1062 0.283849 0 0.646239 0 0)
(102.736 -1.06331 0 0.711492 0 0)
(121.366 -0.763924 0 0.655682 0 0)
(142.78 -2.5405 0 1.06876 0 0)
(166.244 -4.48853 0 1.04675 0 0)
(199.669 -0.927372 0 3.09907 0 0)
(274.26 -9.97591 0 6.60007 0 0)
(280.931 -20.8202 0 8.73739 0 0)
(799.515 -185.098 0 64.6813 0 0)
(0.505016 0.0584046 0 2.14163 0 0)
(3.06338 0.424738 0 2.20357 0 0)
(8.46387 0.57064 0 2.15246 0 0)
(14.8479 0.852184 0 2.14394 0 0)
(24.2683 0.865034 0 2.12083 0 0)
(33.1381 1.05362 0 2.0836 0 0)
(45.2554 0.757333 0 2.07933 0 0)
(56.1782 0.887483 0 2.00852 0 0)
(69.6593 0.174123 0 2.05261 0 0)
(83.409 0.0192265 0 1.96021 0 0)
(98.1451 -1.12018 0 2.12333 0 0)
(115.606 -2.44366 0 2.09507 0 0)
(138.557 -3.59169 0 2.62254 0 0)
(154.804 -7.19309 0 2.83091 0 0)
(210.906 -12.9981 0 6.11592 0 0)
(223.289 -7.89069 0 6.37051 0 0)
(352.847 -62.223 0 31.0694 0 0)
(534.256 -192.348 0 98.1543 0 0)
(1.03011 0.0924304 0 4.67274 0 0)
(3.54938 0.619709 0 4.76937 0 0)
(9.06752 0.816037 0 4.64508 0 0)
(15.0624 1.15046 0 4.60435 0 0)
(24.6295 1.31367 0 4.55999 0 0)
(32.9727 1.35085 0 4.48566 0 0)
(44.9899 1.26302 0 4.45058 0 0)
(55.1468 0.975249 0 4.35201 0 0)
(68.5742 0.478666 0 4.38364 0 0)
(80.6802 -0.279566 0 4.25988 0 0)
(95.9967 -1.32641 0 4.50893 0 0)
(110.466 -3.33635 0 4.37389 0 0)
(131.419 -4.78779 0 5.30239 0 0)
(152.177 -10.9607 0 5.60744 0 0)
(187.788 -11.4236 0 9.28227 0 0)
(238.279 -28.8402 0 16.8169 0 0)
(291.289 -58.8664 0 32.664 0 0)
(414.644 -178.204 0 107.772 0 0)
(1.8643 0.365137 0 8.5269 0 0)
(5.00926 0.720373 0 8.7285 0 0)
(9.43412 1.14043 0 8.47719 0 0)
(16.2379 1.29515 0 8.37408 0 0)
(24.6398 1.70179 0 8.28433 0 0)
(33.9356 1.50358 0 8.14927 0 0)
(44.8022 1.59982 0 8.0484 0 0)
(55.5017 0.995113 0 7.91627 0 0)
(68.386 0.603927 0 7.86301 0 0)
(80.0887 -0.589944 0 7.76498 0 0)
(95.3298 -1.77331 0 7.96614 0 0)
(108.511 -4.22081 0 7.91316 0 0)
(128.042 -6.8706 0 9.02826 0 0)
(145.159 -12.2786 0 9.27012 0 0)
(173.884 -19.1849 0 14.5846 0 0)
(217.81 -25.9362 0 17.2116 0 0)
(233.508 -55.5297 0 46.2647 0 0)
(326.546 -171.643 0 138.588 0 0)
(2.56126 0.750728 0 14.0468 0 0)
(6.3236 0.806886 0 14.3987 0 0)
(9.29491 1.54042 0 13.9687 0 0)
(17.092 1.59496 0 13.7739 0 0)
(24.129 2.12168 0 13.599 0 0)
(34.2547 1.93795 0 13.3669 0 0)
(43.9557 1.99329 0 13.1614 0 0)
(55.1501 1.41824 0 12.9204 0 0)
(67.2971 0.898581 0 12.7831 0 0)
(78.8764 -0.380889 0 12.5818 0 0)
(94.3815 -1.73187 0 12.7811 0 0)
(105.783 -4.30425 0 12.6893 0 0)
(128.053 -7.25756 0 13.9896 0 0)
(137.875 -13.1438 0 14.668 0 0)
(170.885 -21.8219 0 21.2442 0 0)
(191.406 -33.0149 0 24.5972 0 0)
(210.968 -55.8629 0 51.5705 0 0)
(265.56 -145.596 0 130.6 0 0)
(2.24216 0.721798 0 21.5429 0 0)
(5.54021 0.940326 0 22.159 0 0)
(9.19529 1.76413 0 21.3846 0 0)
(16.3341 2.07785 0 21.1967 0 0)
(23.9646 2.45108 0 20.7979 0 0)
(33.3519 2.5441 0 20.5646 0 0)
(43.5962 2.27681 0 20.0958 0 0)
(54.0284 1.93096 0 19.8657 0 0)
(66.4594 0.901675 0 19.4469 0 0)
(77.3296 -0.213506 0 19.2941 0 0)
(92.4777 -2.36452 0 19.2328 0 0)
(103.454 -4.81542 0 19.2756 0 0)
(123.584 -8.97 0 20.4825 0 0)
(133.865 -14.2482 0 21.4603 0 0)
(161.456 -24.3835 0 28.5165 0 0)
(169.291 -32.3856 0 32.0541 0 0)
(203.309 -58.9674 0 56.8606 0 0)
(190.153 -108.714 0 114.119 0 0)
(1.42094 0.598684 0 29.7689 0 0)
(4.31658 1.13398 0 30.6547 0 0)
(8.57707 1.92432 0 29.5069 0 0)
(15.2446 2.47316 0 29.3357 0 0)
(23.1963 2.77843 0 28.69 0 0)
(32.2528 2.96473 0 28.429 0 0)
(42.4021 2.60058 0 27.6766 0 0)
(52.7679 2.19401 0 27.396 0 0)
(64.4007 1.01144 0 26.6713 0 0)
(75.5832 -0.35825 0 26.5059 0 0)
(88.6058 -2.74544 0 26.1211 0 0)
(100.389 -5.72692 0 26.3452 0 0)
(115.487 -10.3106 0 27.0987 0 0)
(128.023 -15.786 0 28.6124 0 0)
(144.577 -26.4718 0 33.9203 0 0)
(151.952 -33.4351 0 37.4839 0 0)
(180.253 -54.8543 0 53.1798 0 0)
(139.506 -71.2528 0 83.6803 0 0)
(1.00178 0.521071 0 38.5442 0 0)
(3.77079 1.28699 0 39.7392 0 0)
(8.17127 2.03584 0 38.201 0 0)
(14.7191 2.77997 0 38.0599 0 0)
(22.6373 3.00647 0 37.1495 0 0)
(31.5725 3.31698 0 36.8745 0 0)
(41.4829 2.80703 0 35.8225 0 0)
(51.753 2.47581 0 35.504 0 0)
(62.7992 1.04227 0 34.494 0 0)
(73.8127 -0.276775 0 34.294 0 0)
(85.6178 -3.03964 0 33.6615 0 0)
(96.9762 -5.89595 0 33.9208 0 0)
(109.286 -10.9378 0 34.4268 0 0)
(121.163 -16.0257 0 36.1454 0 0)
(131.151 -25.5435 0 40.0217 0 0)
(138.078 -33.1823 0 44.7523 0 0)
(149.905 -47.2815 0 52.4663 0 0)
(123.142 -58.6998 0 73.1179 0 0)
(0.607035 0.484396 0 49.7361 0 0)
(3.22923 1.44572 0 51.3251 0 0)
(7.73506 2.18669 0 49.2274 0 0)
(14.19 3.03649 0 49.1402 0 0)
(21.9799 3.27431 0 47.8503 0 0)
(30.8347 3.58074 0 47.571 0 0)
(40.453 3.06681 0 46.1087 0 0)
(50.5835 2.63927 0 45.74 0 0)
(61.0998 1.16497 0 44.3194 0 0)
(71.7633 -0.288887 0 44.0753 0 0)
(82.6362 -3.13658 0 43.0295 0 0)
(93.1747 -6.03128 0 43.3475 0 0)
(103.804 -11.0834 0 43.3449 0 0)
(113.666 -15.8317 0 45.2003 0 0)
(121.265 -24.4866 0 47.6984 0 0)
(125.704 -30.545 0 51.9675 0 0)
(129.031 -40.683 0 56.4815 0 0)
(115.956 -48.3496 0 69.0394 0 0)
(0.432537 0.516218 0 63.9371 0 0)
(2.97633 1.62779 0 65.9934 0 0)
(7.46586 2.3839 0 63.3002 0 0)
(13.8384 3.31125 0 63.1887 0 0)
(21.4809 3.57071 0 61.5539 0 0)
(30.174 3.86072 0 61.1395 0 0)
(39.5267 3.35786 0 59.3303 0 0)
(49.3592 2.82059 0 58.7354 0 0)
(59.4216 1.37188 0 57.0131 0 0)
(69.5185 -0.264206 0 56.4949 0 0)
(79.6057 -2.97765 0 55.1902 0 0)
(89.135 -6.07567 0 55.245 0 0)
(98.4436 -10.5449 0 54.896 0 0)
(106.316 -15.4043 0 56.4421 0 0)
(112.474 -22.1143 0 57.8813 0 0)
(115.008 -28.0259 0 61.6094 0 0)
(115.951 -35.1658 0 64.5701 0 0)
(109.509 -40.7597 0 71.4634 0 0)
(0.35589 0.540717 0 81.4384 0 0)
(2.82995 1.74532 0 84.1255 0 0)
(7.25816 2.55534 0 80.656 0 0)
(13.5091 3.50212 0 80.547 0 0)
(20.9778 3.80978 0 78.4596 0 0)
(29.4508 4.03771 0 77.9065 0 0)
(38.5017 3.5617 0 75.6161 0 0)
(47.9644 2.9207 0 74.791 0 0)
(57.5102 1.48293 0 72.5974 0 0)
(66.9958 -0.220182 0 71.8094 0 0)
(76.201 -2.86834 0 70.0521 0 0)
(84.7803 -5.85153 0 69.7914 0 0)
(92.6792 -9.95309 0 68.9533 0 0)
(99.1038 -14.2787 0 69.9048 0 0)
(103.813 -19.721 0 70.5438 0 0)
(105.756 -24.6308 0 73.0455 0 0)
(105.911 -29.7918 0 74.9844 0 0)
(101.67 -33.2733 0 78.6357 0 0)
(0.329125 0.569145 0 102.526 0 0)
(2.73482 1.80698 0 105.738 0 0)
(7.06525 2.68326 0 101.71 0 0)
(13.1481 3.58365 0 101.241 0 0)
(20.4215 3.93376 0 98.9758 0 0)
(28.5996 4.05508 0 97.8961 0 0)
(37.3261 3.61572 0 95.3801 0 0)
(46.3191 2.83459 0 93.93 0 0)
(55.3401 1.47581 0 91.4919 0 0)
(64.1135 -0.339672 0 90.0397 0 0)
(72.4851 -2.75582 0 88.0108 0 0)
(80.0685 -5.68465 0 87.0349 0 0)
(86.7837 -9.1922 0 85.8204 0 0)
(92.0403 -13.0784 0 85.8252 0 0)
(95.7383 -17.2932 0 85.7721 0 0)
(97.322 -21.3569 0 86.9108 0 0)
(97.4242 -25.1984 0 87.935 0 0)
(94.6226 -27.6511 0 89.5358 0 0)
(0.31355 0.573376 0 126.532 0 0)
(2.63956 1.77415 0 130.464 0 0)
(6.84449 2.66758 0 125.752 0 0)
(12.724 3.46326 0 124.942 0 0)
(19.7554 3.79136 0 122.41 0 0)
(27.5998 3.80583 0 120.833 0 0)
(35.9345 3.33304 0 117.949 0 0)
(44.4371 2.48707 0 115.914 0 0)
(52.8667 1.13349 0 113.052 0 0)
(60.9534 -0.628262 0 110.96 0 0)
(68.4957 -2.89441 0 108.467 0 0)
(75.2133 -5.5243 0 106.738 0 0)
(80.9461 -8.57719 0 104.967 0 0)
(85.3915 -11.7983 0 103.96 0 0)
(88.4341 -15.1585 0 103.126 0 0)
(89.8704 -18.3237 0 102.948 0 0)
(90.1727 -21.2405 0 102.958 0 0)
(88.2113 -22.8854 0 103.107 0 0)
(0.299162 0.524897 0 151.96 0 0)
(2.53162 1.58172 0 156.466 0 0)
(6.58039 2.37733 0 151.334 0 0)
(12.2263 2.98763 0 149.895 0 0)
(18.9626 3.21148 0 147.334 0 0)
(26.4358 3.07002 0 145.021 0 0)
(34.33 2.53039 0 141.931 0 0)
(42.3128 1.59935 0 139.123 0 0)
(50.1431 0.271301 0 135.922 0 0)
(57.5561 -1.43202 0 133.043 0 0)
(64.3632 -3.49206 0 130.089 0 0)
(70.3369 -5.82779 0 127.514 0 0)
(75.3466 -8.40266 0 125.108 0 0)
(79.2301 -11.0527 0 123.104 0 0)
(81.926 -13.6887 0 121.387 0 0)
(83.3426 -16.1515 0 120.045 0 0)
(83.9248 -18.3484 0 118.952 0 0)
(82.7187 -19.3928 0 117.838 0 0)
(0.283857 0.394118 0 175.194 0 0)
(2.41321 1.14522 0 180.398 0 0)
(6.28024 1.66998 0 174.787 0 0)
(11.6648 2.00227 0 172.904 0 0)
(18.0675 1.99971 0 170.222 0 0)
(25.1425 1.66334 0 167.369 0 0)
(32.5691 0.983435 0 163.981 0 0)
(40.0321 -0.0245884 0 160.583 0 0)
(47.2842 -1.35779 0 156.964 0 0)
(54.0925 -2.96834 0 153.448 0 0)
(60.2791 -4.83514 0 149.958 0 0)
(65.68 -6.86432 0 146.664 0 0)
(70.1902 -9.01687 0 143.564 0 0)
(73.737 -11.1631 0 140.707 0 0)
(76.2907 -13.2253 0 138.113 0 0)
(77.8156 -15.1234 0 135.785 0 0)
(78.6971 -16.7696 0 133.67 0 0)
(78.1491 -17.3659 0 131.468 0 0)
(0.268647 0.156191 0 190.312 0 0)
(2.29237 0.390395 0 195.99 0 0)
(5.96381 0.487979 0 190.093 0 0)
(11.0694 0.40928 0 187.949 0 0)
(17.1221 0.0726993 0 185.202 0 0)
(23.7896 -0.535437 0 182.03 0 0)
(30.7549 -1.40415 0 178.45 0 0)
(37.7225 -2.52575 0 174.695 0 0)
(44.4567 -3.87459 0 170.782 0 0)
(50.7514 -5.41356 0 166.861 0 0)
(56.4537 -7.09924 0 162.966 0 0)
(61.4423 -8.86653 0 159.184 0 0)
(65.6415 -10.661 0 155.546 0 0)
(69.0223 -12.4048 0 152.082 0 0)
(71.5773 -14.0219 0 148.813 0 0)
(73.2955 -15.4909 0 145.767 0 0)
(74.4898 -16.7261 0 142.872 0 0)
(74.5345 -17.0459 0 139.875 0 0)
(0.258989 -0.142856 0 190.285 0 0)
(2.19487 -0.535413 0 195.921 0 0)
(5.68729 -0.939456 0 190.087 0 0)
(10.5368 -1.49512 0 187.935 0 0)
(16.2741 -2.21582 0 185.23 0 0)
(22.5817 -3.11829 0 182.065 0 0)
(29.1517 -4.19166 0 178.51 0 0)
(35.7116 -5.43021 0 174.758 0 0)
(42.039 -6.80348 0 170.832 0 0)
(47.9561 -8.28289 0 166.878 0 0)
(53.3272 -9.82167 0 162.902 0 0)
(58.0639 -11.3774 0 159.014 0 0)
(62.1051 -12.8971 0 155.199 0 0)
(65.4449 -14.3376 0 151.534 0 0)
(68.0819 -15.6337 0 147.99 0 0)
(70.0217 -16.7924 0 144.65 0 0)
(71.4975 -17.7384 0 141.399 0 0)
(72.0313 -17.9422 0 138.067 0 0)
(0.255836 -0.39677 0 174.46 0 0)
(2.13574 -1.30772 0 179.416 0 0)
(5.49668 -2.1299 0 174.084 0 0)
(10.1565 -3.07894 0 172.091 0 0)
(15.6605 -4.10776 0 169.609 0 0)
(21.7042 -5.23711 0 166.718 0 0)
(27.9905 -6.45991 0 163.466 0 0)
(34.265 -7.77307 0 160.041 0 0)
(40.3179 -9.14816 0 156.434 0 0)
(45.9926 -10.5653 0 152.804 0 0)
(51.1641 -11.9826 0 149.119 0 0)
(55.764 -13.3735 0 145.511 0 0)
(59.7391 -14.6932 0 141.926 0 0)
(63.0936 -15.9185 0 138.473 0 0)
(65.8253 -16.998 0 135.088 0 0)
(67.9518 -17.9468 0 131.885 0 0)
(69.6421 -18.7038 0 128.728 0 0)
(70.5389 -18.8906 0 125.527 0 0)
(0.257299 -0.545919 0 149.013 0 0)
(2.108 -1.74888 0 152.974 0 0)
(5.38238 -2.82502 0 148.436 0 0)
(9.91467 -4.00897 0 146.718 0 0)
(15.2622 -5.21302 0 144.596 0 0)
(21.1291 -6.46217 0 142.142 0 0)
(27.2278 -7.74844 0 139.378 0 0)
(33.3166 -9.07369 0 136.472 0 0)
(39.1956 -10.4106 0 133.399 0 0)
(44.7214 -11.7491 0 130.306 0 0)
(49.7787 -13.0512 0 127.149 0 0)
(54.3083 -14.3036 0 124.053 0 0)
(58.264 -15.4669 0 120.957 0 0)
(61.6514 -16.5324 0 117.968 0 0)
(64.4696 -17.4563 0 115.018 0 0)
(66.7407 -18.2578 0 112.219 0 0)
(68.59 -18.8863 0 109.445 0 0)
(69.7497 -19.0951 0 106.653 0 0)
(0.260171 -0.601667 0 120.097 0 0)
(2.09912 -1.89093 0 123.069 0 0)
(5.31644 -3.06944 0 119.419 0 0)
(9.76343 -4.34291 0 118.025 0 0)
(15.0061 -5.60148 0 116.319 0 0)
(20.7556 -6.87131 0 114.354 0 0)
(26.7307 -8.14212 0 112.141 0 0)
(32.6989 -9.41928 0 109.813 0 0)
(38.4677 -10.6774 0 107.349 0 0)
(43.9019 -11.9135 0 104.864 0 0)
(48.8942 -13.0938 0 102.322 0 0)
(53.3899 -14.2136 0 99.822 0 0)
(57.3478 -15.2387 0 97.3165 0 0)
(60.7728 -16.169 0 94.8903 0 0)
(63.665 -16.9675 0 92.4912 0 0)
(66.0494 -17.6538 0 90.2069 0 0)
(68.0207 -18.187 0 87.9412 0 0)
(69.3791 -18.4221 0 85.6652 0 0)
(0.263109 -0.59083 0 91.9339 0 0)
(2.09878 -1.83096 0 94.0507 0 0)
(5.27873 -2.9981 0 91.2585 0 0)
(9.66892 -4.2489 0 90.1847 0 0)
(14.8412 -5.46942 0 88.8852 0 0)
(20.5121 -6.68211 0 87.3901 0 0)
(26.4056 -7.87651 0 85.709 0 0)
(32.295 -9.05764 0 83.9367 0 0)
(37.9938 -10.2048 0 82.0604 0 0)
(43.3719 -11.3167 0 80.1628 0 0)
(48.3277 -12.3665 0 78.2214 0 0)
(52.809 -13.3525 0 76.3063 0 0)
(56.7782 -14.2473 0 74.3876 0 0)
(60.2385 -15.0534 0 72.5236 0 0)
(63.1917 -15.7427 0 70.6817 0 0)
(65.6647 -16.3302 0 68.9211 0 0)
(67.7303 -16.7867 0 67.1777 0 0)
(69.2415 -17.0358 0 65.4241 0 0)
(0.266211 -0.536964 0 66.9684 0 0)
(2.10266 -1.65159 0 68.4097 0 0)
(5.25749 -2.73177 0 66.377 0 0)
(9.60999 -3.88495 0 65.594 0 0)
(14.735 -5.00472 0 64.6556 0 0)
(20.3537 -6.10698 0 63.5736 0 0)
(26.1937 -7.18369 0 62.359 0 0)
(32.0321 -8.23676 0 61.073 0 0)
(37.687 -9.25139 0 59.7138 0 0)
(43.0316 -10.2251 0 58.3336 0 0)
(47.9684 -11.1387 0 56.9242 0 0)
(52.4466 -11.9898 0 55.5291 0 0)
(56.4309 -12.759 0 54.1347 0 0)
(59.9233 -13.4479 0 52.7755 0 0)
(62.9265 -14.037 0 51.435 0 0)
(65.4685 -14.5356 0 50.1487 0 0)
(67.6066 -14.9254 0 48.8785 0 0)
(69.2356 -15.1729 0 47.597 0 0)
(0.268023 -0.463049 0 46.3138 0 0)
(2.10708 -1.41647 0 47.2531 0 0)
(5.24567 -2.36462 0 45.8517 0 0)
(9.57325 -3.37621 0 45.3136 0 0)
(14.6667 -4.35748 0 44.6722 0 0)
(20.2508 -5.31783 0 43.9283 0 0)
(26.0563 -6.25226 0 43.0941 0 0)
(31.8624 -7.15905 0 42.2066 0 0)
(37.4906 -8.02929 0 41.2708 0 0)
(42.8159 -8.8583 0 40.3174 0 0)
(47.7436 -9.63384 0 39.3471 0 0)
(52.2238 -10.3519 0 38.3842 0 0)
(56.2226 -11.0002 0 37.4244 0 0)
(59.741 -11.5781 0 36.486 0 0)
(62.7821 -12.0735 0 35.5625 0 0)
(65.375 -12.4901 0 34.6731 0 0)
(67.565 -12.8179 0 33.7979 0 0)
(69.2799 -13.0481 0 32.9115 0 0)
(0.269212 -0.383212 0 30.1738 0 0)
(2.11066 -1.16508 0 30.7585 0 0)
(5.23899 -1.95897 0 29.8479 0 0)
(9.54986 -2.80819 0 29.5006 0 0)
(14.622 -3.63201 0 29.0884 0 0)
(20.1829 -4.43665 0 28.6078 0 0)
(25.9654 -5.21833 0 28.0684 0 0)
(31.7494 -5.97404 0 27.4926 0 0)
(37.3588 -6.69728 0 26.8865 0 0)
(42.6696 -7.38329 0 26.2679 0 0)
(47.5889 -8.02356 0 25.6397 0 0)
(52.0665 -8.61393 0 25.0151 0 0)
(56.0707 -9.14646 0 24.3939 0 0)
(59.6013 -9.61925 0 23.7851 0 0)
(62.6621 -10.0248 0 23.1868 0 0)
(65.2807 -10.3634 0 22.6089 0 0)
(67.4977 -10.6305 0 22.0417 0 0)
(69.2656 -10.8279 0 21.4659 0 0)
(0.26953 -0.304706 0 18.2212 0 0)
(2.11243 -0.920098 0 18.5656 0 0)
(5.23363 -1.55462 0 18.0147 0 0)
(9.53048 -2.23773 0 17.8086 0 0)
(14.5837 -2.90203 0 17.5655 0 0)
(20.1225 -3.55213 0 17.2809 0 0)
(25.8806 -4.18328 0 16.9606 0 0)
(31.6391 -4.79217 0 16.6176 0 0)
(37.2228 -5.37226 0 16.2558 0 0)
(42.5084 -5.92007 0 15.8857 0 0)
(47.4052 -6.42833 0 15.5089 0 0)
(51.8619 -6.8947 0 15.1337 0 0)
(55.8503 -7.31235 0 14.7601 0 0)
(59.368 -7.68101 0 14.3932 0 0)
(62.4237 -7.99489 0 14.0326 0 0)
(65.0396 -8.25455 0 13.6835 0 0)
(67.2598 -8.45918 0 13.3415 0 0)
(69.0552 -8.6095 0 12.9945 0 0)
(0.26916 -0.228347 0 9.88727 0 0)
(2.11018 -0.691476 0 10.0709 0 0)
(5.21642 -1.17901 0 9.77357 0 0)
(9.48704 -1.70889 0 9.67119 0 0)
(14.5101 -2.22342 0 9.54677 0 0)
(20.0155 -2.72393 0 9.39756 0 0)
(25.7367 -3.20608 0 9.22685 0 0)
(31.4573 -3.66739 0 9.0426 0 0)
(37.002 -4.10211 0 8.84681 0 0)
(42.2504 -4.5087 0 8.64577 0 0)
(47.1113 -4.88155 0 8.44007 0 0)
(51.5379 -5.22085 0 8.23488 0 0)
(55.5011 -5.52077 0 8.02965 0 0)
(59.0026 -5.78356 0 7.82834 0 0)
(62.0501 -6.00309 0 7.63 0 0)
(64.6651 -6.18293 0 7.43863 0 0)
(66.8891 -6.32601 0 7.25179 0 0)
(68.7179 -6.42802 0 7.06352 0 0)
(0.268043 -0.154846 0 4.48834 0 0)
(2.08333 -0.497994 0 4.58399 0 0)
(5.15517 -0.852579 0 4.45875 0 0)
(9.38629 -1.22905 0 4.42312 0 0)
(14.3838 -1.58618 0 4.37204 0 0)
(19.8638 -1.92855 0 4.30762 0 0)
(25.5584 -2.25354 0 4.23029 0 0)
(31.2531 -2.55888 0 4.14379 0 0)
(36.7748 -2.84301 0 4.05073 0 0)
(42.0026 -3.10709 0 3.95489 0 0)
(46.8468 -3.34822 0 3.85706 0 0)
(51.2641 -3.56727 0 3.75994 0 0)
(55.2215 -3.76047 0 3.66302 0 0)
(58.729 -3.92992 0 3.56901 0 0)
(61.783 -4.06949 0 3.47631 0 0)
(64.4168 -4.18451 0 3.38881 0 0)
(66.6379 -4.27497 0 3.30353 0 0)
(68.4949 -4.34499 0 3.21931 0 0)
(0.255136 -0.0882128 0 1.42173 0 0)
(2.06734 -0.313511 0 1.48748 0 0)
(5.20358 -0.5261 0 1.44741 0 0)
(9.49315 -0.734519 0 1.43426 0 0)
(14.544 -0.924651 0 1.41414 0 0)
(20.0752 -1.10728 0 1.39087 0 0)
(25.826 -1.28392 0 1.36423 0 0)
(31.5798 -1.45201 0 1.33489 0 0)
(37.1628 -1.60992 0 1.3039 0 0)
(42.4495 -1.75747 0 1.27228 0 0)
(47.3532 -1.89317 0 1.24045 0 0)
(51.8227 -2.01702 0 1.20903 0 0)
(55.8298 -2.12701 0 1.17798 0 0)
(59.3769 -2.22378 0 1.148 0 0)
(62.4642 -2.30328 0 1.11872 0 0)
(65.1294 -2.36948 0 1.09223 0 0)
(67.3501 -2.42206 0 1.06701 0 0)
(69.1991 -2.46153 0 1.04005 0 0)
(0.245822 -0.0253382 0 0.141917 0 0)
(2.06517 -0.0978391 0 0.153703 0 0)
(5.18248 -0.165589 0 0.150917 0 0)
(9.44123 -0.230842 0 0.149749 0 0)
(14.4734 -0.293744 0 0.147446 0 0)
(19.992 -0.35407 0 0.144717 0 0)
(25.7362 -0.412883 0 0.141718 0 0)
(31.4876 -0.469367 0 0.138587 0 0)
(37.0778 -0.522701 0 0.135363 0 0)
(42.3825 -0.572695 0 0.132111 0 0)
(47.3165 -0.619042 0 0.128853 0 0)
(51.827 -0.661712 0 0.12565 0 0)
(55.8875 -0.700139 0 0.122506 0 0)
(59.4933 -0.734177 0 0.119481 0 0)
(62.6507 -0.763095 0 0.116654 0 0)
(65.3927 -0.788336 0 0.114316 0 0)
(67.7035 -0.806545 0 0.11224 0 0)
(69.6301 -0.815856 0 0.111854 0 0)
(0.0244885 0.0357669 0 0.717982 0 0)
(0.267356 0.0991258 0 0.679001 0 0)
(0.785755 0.180965 0 0.671823 0 0)
(1.53942 0.295126 0 0.662565 0 0)
(2.48651 0.424263 0 0.660955 0 0)
(3.60884 0.569199 0 0.657688 0 0)
(4.8845 0.716338 -2.38565e-19 0.655741 -6.49524e-20 1.48e-37)
(6.3107 0.867302 2.4246e-19 0.651446 6.92682e-20 1.48454e-37)
(7.88075 1.01429 0 0.645439 0 0)
(9.59269 1.16175 2.44665e-19 0.637865 6.86841e-20 1.46229e-37)
(11.4413 1.30583 0 0.629277 0 0)
(13.4205 1.44873 0 0.620177 0 0)
(15.5239 1.58588 0 0.612216 0 0)
(17.7449 1.71758 -2.76923e-19 0.605746 -5.17547e-20 1.34848e-37)
(20.0776 1.8407 0 0.599529 0 0)
(22.5223 1.95426 0 0.594287 0 0)
(25.0793 2.0541 3.40035e-19 0.589971 3.90485e-20 1.22172e-37)
(27.747 2.1419 0 0.585505 0 0)
(30.5204 2.22038 0 0.580833 0 0)
(33.3936 2.29184 0 0.576375 0 0)
(36.3507 2.35521 -4.55951e-19 0.573033 -1.96039e-20 1.01839e-37)
(39.3822 2.41113 0 0.56929 0 0)
(42.4743 2.45762 -5.15731e-19 0.567024 -1.03088e-20 9.2581e-38)
(45.6179 2.49465 0 0.568194 0 0)
(48.7967 2.52844 0 0.5689 0 0)
(51.9966 2.55166 -6.03891e-19 0.571036 1.17762e-21 7.98176e-38)
(55.2105 2.55403 0 0.572889 0 0)
(58.4427 2.53674 6.57533e-19 0.57142 -6.90542e-21 7.22054e-38)
(61.6872 2.50577 0 0.563616 0 0)
(64.9501 2.46295 -7.02312e-19 0.553257 1.04839e-20 6.54386e-38)
(68.2299 2.41091 0 0.539727 0 0)
(71.5143 2.35213 0 0.523913 0 0)
(74.7956 2.28651 0 0.509864 0 0)
(78.0755 2.2103 0 0.498471 0 0)
(81.3478 2.12291 0 0.486903 0 0)
(84.6092 2.02728 7.79543e-19 0.475972 -1.40196e-20 4.60268e-38)
(87.8583 1.92329 0 0.464317 0 0)
(91.096 1.8109 -1.56227e-18 0.448266 2.71927e-20 1.6148e-37)
(94.3207 1.69165 0 0.432681 0 0)
(97.5275 1.56429 1.55231e-18 0.418023 -2.62105e-20 1.40059e-37)
(100.709 1.43128 0 0.402853 0 0)
(103.866 1.28905 0 0.391192 0 0)
(106.988 1.13854 -1.51427e-18 0.378635 2.15854e-20 1.11354e-37)
(110.057 0.985769 0 0.365824 0 0)
(113.06 0.831003 -1.47571e-18 0.355022 1.82763e-20 9.4411e-38)
(115.981 0.67313 1.45325e-18 0.346168 -1.65402e-20 8.67146e-38)
(118.804 0.509444 0 0.340047 0 0)
(121.521 0.339573 1.4024e-18 0.335264 -1.25101e-20 7.34959e-38)
(124.115 0.164244 1.37415e-18 0.331355 -1.06398e-20 6.80289e-38)
(126.589 -0.013554 0 0.328087 0 0)
(128.925 -0.192695 0 0.325923 0 0)
(131.107 -0.376174 0 0.323205 0 0)
(133.112 -0.564866 0 0.321986 0 0)
(134.921 -0.755983 0 0.324009 0 0)
(136.509 -0.946197 -1.17348e-18 0.328163 -4.37274e-21 5.0203e-38)
(137.847 -1.13777 0 0.332186 0 0)
(138.922 -1.33384 1.07892e-18 0.335814 1.14186e-20 4.75487e-38)
(139.738 -1.53604 0 0.34105 0 0)
(140.29 -1.7441 0 0.347854 0 0)
(140.562 -1.94934 -9.11495e-19 0.3571 -2.24907e-20 4.75564e-38)
(140.547 -2.15303 0 0.368988 0 0)
(140.229 -2.35771 7.80376e-19 0.380934 3.12735e-20 4.97176e-38)
(139.616 -2.56124 0 0.39118 0 0)
(138.702 -2.7648 0 0.403928 0 0)
(137.497 -2.96758 0 0.418078 0 0)
(136.013 -3.16319 -4.81843e-19 0.432495 -4.76242e-20 6.03483e-38)
(134.253 -3.35226 0 0.447254 0 0)
(132.231 -3.53502 0 0.460382 0 0)
(129.959 -3.71048 -2.26044e-19 0.474083 -6.11866e-20 7.30385e-38)
(127.457 -3.88379 0 0.4892 0 0)
(124.764 -4.04992 -5.05201e-20 0.504407 -6.98097e-20 8.30195e-38)
(121.889 -4.20363 0 0.51988 0 0)
(118.851 -4.34523 0 0.535886 0 0)
(115.679 -4.47599 0 0.553032 0 0)
(112.398 -4.5974 -3.04905e-19 0.571179 8.31517e-20 1.04526e-37)
(109.024 -4.70668 0 0.589277 0 0)
(105.576 -4.80053 0 0.607239 0 0)
(102.063 -4.87931 -5.64043e-19 0.62533 9.02737e-20 1.20147e-37)
(98.4989 -4.94745 -6.45773e-19 0.644092 9.18107e-20 1.25258e-37)
(94.9112 -5.00458 0 0.662886 0 0)
(91.3305 -5.04982 -7.9868e-19 0.682605 9.45836e-20 1.34672e-37)
(87.7781 -5.08387 0 0.703816 0 0)
(84.2742 -5.10605 -1.87696e-18 0.72539 1.92494e-19 5.74292e-37)
(80.8331 -5.11535 0 0.748035 0 0)
(77.4727 -5.11013 -2.12194e-18 0.770613 1.9363e-19 6.07411e-37)
(74.2111 -5.08862 0 0.793564 0 0)
(71.0626 -5.05404 2.32453e-18 0.819549 -1.93781e-19 6.36367e-37)
(68.0445 -5.00619 0 0.844609 0 0)
(65.1715 -4.93978 0 0.86694 0 0)
(62.4433 -4.85471 0 0.889668 0 0)
(59.8643 -4.75279 -2.58514e-18 0.914697 1.86158e-19 6.79668e-37)
(57.4403 -4.63653 0 0.939321 0 0)
(55.1801 -4.50408 2.6458e-18 0.963546 -1.79916e-19 6.94395e-37)
(53.0854 -4.35505 0 0.987248 0 0)
(51.1452 -4.18378 -2.65781e-18 1.01079 1.73644e-19 7.03193e-37)
(49.3547 -3.99609 -2.6488e-18 1.03208 1.70441e-19 7.06684e-37)
(47.7016 -3.79566 -2.63008e-18 1.05327 1.66297e-19 7.09348e-37)
(46.1809 -3.5861 0 1.07565 0 0)
(44.7662 -3.36658 0 1.09878 0 0)
(43.469 -3.13821 0 1.11836 0 0)
(42.2712 -2.90104 0 1.13818 0 0)
(41.1679 -2.66189 0 1.15794 0 0)
(40.1399 -2.42209 0 1.17699 0 0)
(39.1871 -2.17992 0 1.19209 0 0)
(38.2593 -1.93655 0 1.20806 0 0)
(37.36 -1.69977 2.02557e-18 1.22314 -1.31536e-19 7.07411e-37)
(36.45 -1.47139 1.9114e-18 1.2404 -1.24254e-19 7.06657e-37)
(35.5578 -1.25233 0 1.25184 0 0)
(34.644 -1.04172 0 1.26487 0 0)
(33.7234 -0.854895 0 1.27886 0 0)
(32.7397 -0.678455 1.35507e-18 1.29191 -1.04883e-19 6.90696e-37)
(31.7967 -0.528599 0 1.29925 0 0)
(30.7874 -0.386547 0 1.30904 0 0)
(29.8323 -0.284142 0 1.31919 0 0)
(28.909 -0.201108 0 1.33225 0 0)
(28.0838 -0.150939 -4.4081e-19 1.3406 7.56591e-20 6.65909e-37)
(27.3894 -0.12463 0 1.34971 0 0)
(26.854 -0.1331 0 1.36312 0 0)
(26.5618 -0.175095 -2.22467e-19 1.37071 -6.51039e-20 6.42234e-37)
(26.5108 -0.243713 4.49908e-19 1.38375 6.10207e-20 6.29823e-37)
(26.7575 -0.353461 0 1.40068 0 0)
(27.3552 -0.509868 9.1241e-19 1.4179 6.00909e-20 6.05216e-37)
(28.3686 -0.706371 0 1.43703 0 0)
(29.86 -0.95835 -1.35357e-18 1.45468 -6.46119e-20 5.75545e-37)
(31.8503 -1.24417 0 1.47739 0 0)
(34.4134 -1.57984 0 1.50438 0 0)
(37.4481 -1.9577 0 1.53709 0 0)
(41.0651 -2.38616 0 1.57134 0 0)
(45.1169 -2.8407 0 1.60937 0 0)
(49.6096 -3.34192 4.89719e-18 1.65154 2.04647e-19 1.9718e-36)
(54.4766 -3.88692 5.152e-18 1.69764 2.30588e-19 1.93698e-36)
(59.7408 -4.46793 0 1.74569 0 0)
(65.1965 -5.06891 0 1.80164 0 0)
(70.8157 -5.69616 0 1.85683 0 0)
(76.4369 -6.30801 -5.6921e-18 1.91775 -3.52146e-19 1.91701e-36)
(81.8433 -6.92258 0 1.98887 0 0)
(86.9889 -7.54341 0 2.06106 0 0)
(91.8199 -8.15771 0 2.13756 0 0)
(96.2604 -8.7508 -5.3311e-18 2.21584 -5.33284e-19 2.0713e-36)
(100.293 -9.31765 5.09703e-18 2.2993 5.81987e-19 2.1329e-36)
(103.703 -9.83999 0 2.3901 0 0)
(106.613 -10.3497 0 2.4829 0 0)
(108.985 -10.8037 4.07871e-18 2.57748 7.35002e-19 2.36493e-36)
(110.827 -11.2234 3.64977e-18 2.67087 7.83855e-19 2.45022e-36)
(111.983 -11.5681 0 2.77118 0 0)
(112.559 -11.8836 0 2.87114 0 0)
(112.443 -12.1265 -2.05254e-18 2.97515 -9.45373e-19 2.71816e-36)
(111.769 -12.3513 1.4228e-18 3.07018 9.89006e-19 2.79687e-36)
(110.581 -12.5058 0 3.16701 0 0)
(108.676 -12.606 0 3.2677 0 0)
(106.178 -12.64 -5.21566e-19 3.35864 1.11692e-18 3.06751e-36)
(103.047 -12.62 0 3.44917 0 0)
(99.5683 -12.5626 0 3.53281 0 0)
(95.5814 -12.4139 -2.5487e-18 3.60533 1.20595e-18 3.30001e-36)
(91.283 -12.1936 0 3.67737 0 0)
(86.6615 -11.8623 -3.8325e-18 3.73894 1.25693e-18 3.44298e-36)
(81.7751 -11.446 0 3.79472 0 0)
(76.6686 -10.9115 0 3.83389 0 0)
(71.7263 -10.2787 0 3.85804 0 0)
(66.8405 -9.48089 5.87173e-18 3.87685 -1.2777e-18 3.68127e-36)
(62.1768 -8.56358 0 3.88049 0 0)
(57.9512 -7.49415 0 3.86842 0 0)
(54.4876 -6.30487 0 3.84059 0 0)
(51.623 -4.92686 0 3.79862 0 0)
(49.5278 -3.4677 0 3.74797 0 0)
(48.8026 -1.91367 0 3.67605 0 0)
(49.6369 -0.28992 6.02116e-18 3.58641 -1.10428e-18 3.72726e-36)
(51.6907 1.42359 5.6054e-18 3.48814 -1.05011e-18 3.70988e-36)
(55.3915 3.11595 0 3.37657 0 0)
(60.648 4.74299 0 3.25864 0 0)
(67.4546 6.32356 0 3.12919 0 0)
(75.3905 7.79732 -3.052e-18 2.99947 7.95305e-19 3.3841e-36)
(84.5203 9.09908 0 2.87121 0 0)
(94.0822 10.2876 2.9472e-18 2.73614 -1.35081e-18 1.23645e-35)
(103.975 11.2454 -1.30909e-18 2.60539 1.218e-18 1.16632e-35)
(113.617 12.0362 3.19e-19 2.4741 1.10544e-18 1.10209e-35)
(123.277 12.6874 -2.02189e-18 2.34931 -1.01456e-18 1.03358e-35)
(131.402 13.2288 3.67444e-18 2.23032 9.2313e-19 9.76128e-36)
(139.28 13.7064 -5.27918e-18 2.12305 -9.03812e-19 8.99701e-36)
(143.034 14.3995 0 2.06712 0 0)
(0.0183123 0.174302 0 6.10175 0 0)
(0.202733 0.388077 0 6.03975 0 0)
(0.629506 0.610113 1.31901e-19 5.86658 1.75617e-19 6.76704e-37)
(1.32706 0.854803 0 5.74541 0 0)
(2.26917 1.13427 -1.92151e-19 5.68541 -3.53987e-19 9.19944e-37)
(3.44534 1.43916 -1.83372e-19 5.6582 -4.42228e-19 9.73212e-37)
(4.83455 1.7638 -8.01579e-20 5.64282 -2.51934e-19 2.49145e-37)
(6.42254 2.10429 -6.81922e-20 5.62482 -2.70882e-19 2.6138e-37)
(8.20141 2.45343 0 5.59647 0 0)
(10.1692 2.80673 -4.10761e-20 5.55386 -2.69643e-19 2.5949e-37)
(12.3271 3.15536 0 5.502 0 0)
(14.6733 3.49691 0 5.44241 0 0)
(17.1996 3.82623 9.23668e-20 5.37414 4.24408e-19 9.51388e-37)
(19.9065 4.14285 6.8366e-20 5.30223 1.87154e-19 2.34202e-37)
(22.7835 4.43724 -1.83241e-19 5.22695 -3.26663e-19 8.93923e-37)
(25.8244 4.70935 -2.49561e-19 5.14861 -2.81552e-19 8.66198e-37)
(29.0179 4.96061 -1.70179e-19 5.06414 -1.1857e-19 2.12821e-37)
(32.3576 5.19241 0 4.9733 0 0)
(35.832 5.40315 0 4.87751 0 0)
(39.4322 5.59736 0 4.77469 0 0)
(43.135 5.7743 -3.86001e-19 4.6696 -3.66891e-20 1.80469e-37)
(46.9312 5.93134 0 4.5649 0 0)
(50.798 6.06 1.6075e-18 4.45816 -1.63112e-20 1.55244e-36)
(54.723 6.16387 0 4.35498 0 0)
(58.6895 6.24453 0 4.24961 0 0)
(62.6802 6.30208 7.74553e-19 4.14529 -5.77338e-20 1.56572e-37)
(66.6677 6.3332 0 4.03928 0 0)
(70.633 6.34725 -9.32927e-19 3.93866 8.18672e-20 1.46071e-37)
(74.5426 6.3379 -1.99371e-18 3.83872 1.81711e-19 5.57392e-37)
(78.3864 6.30003 1.07721e-18 3.73597 -9.88363e-20 1.36697e-37)
(82.1605 6.23062 0 3.62816 0 0)
(85.8647 6.13331 0 3.52285 0 0)
(89.4855 6.01055 0 3.41943 0 0)
(93.0271 5.86349 -2.57749e-18 3.3112 2.22898e-19 4.71682e-37)
(96.481 5.68659 -2.65585e-18 3.20361 2.20369e-19 4.55518e-37)
(99.8607 5.48025 -1.37414e-18 3.10242 1.07586e-19 1.10847e-37)
(103.175 5.2428 0 3.01027 0 0)
(106.416 4.96936 2.83905e-18 2.92191 -2.02927e-19 4.13182e-37)
(109.594 4.65793 0 2.83652 0 0)
(112.7 4.31783 -2.87562e-18 2.75487 1.8834e-19 3.81927e-37)
(115.745 3.95021 0 2.67449 0 0)
(118.722 3.56285 0 2.60242 0 0)
(121.64 3.15938 2.82836e-18 2.5315 -1.53994e-19 3.31983e-37)
(124.482 2.73685 0 2.4662 0 0)
(127.23 2.2888 8.16223e-18 2.40831 -3.93337e-19 2.68704e-36)
(129.883 1.81108 -2.68955e-18 2.36303 1.19194e-19 2.83974e-37)
(132.445 1.30806 0 2.33588 0 0)
(134.93 0.780032 -2.54974e-18 2.31999 9.09585e-20 2.5201e-37)
(137.325 0.219213 -2.46897e-18 2.31367 7.66956e-20 2.36422e-37)
(139.625 -0.367353 0 2.31573 0 0)
(141.809 -0.965172 0 2.32863 0 0)
(143.857 -1.56103 0 2.34335 0 0)
(145.756 -2.14574 0 2.35703 0 0)
(147.469 -2.72348 0 2.38086 0 0)
(148.984 -3.30308 1.88318e-18 2.41376 1.45284e-20 1.72243e-37)
(150.279 -3.8919 3.45058e-18 2.45709 7.11518e-20 6.5645e-37)
(151.335 -4.48422 -1.64411e-18 2.50811 -5.59014e-20 1.60245e-37)
(152.164 -5.09447 0 2.56406 0 0)
(152.738 -5.70549 2.68681e-18 2.62704 1.90177e-19 6.02028e-37)
(153.028 -6.29518 -1.17001e-18 2.69505 -1.13223e-19 1.47008e-37)
(153.061 -6.87927 0 2.77172 0 0)
(152.787 -7.45715 -9.78303e-19 2.86153 -1.48559e-19 1.49636e-37)
(152.217 -8.01317 0 2.95466 0 0)
(151.344 -8.55993 0 3.0558 0 0)
(150.165 -9.08854 -1.04786e-18 3.16176 -3.96716e-19 6.25962e-37)
(148.667 -9.58848 4.22727e-19 3.27247 2.15143e-19 1.63845e-37)
(146.889 -10.0809 -4.89269e-19 3.39266 -4.62043e-19 6.6879e-37)
(144.823 -10.5522 2.12063e-19 3.51706 4.88967e-19 6.92565e-37)
(142.499 -10.9994 1.00584e-20 3.64262 2.54397e-19 1.82783e-37)