/*--------------------------------*- C++ -*----------------------------------*\
| =========                 |                                                 |
| \\      /  F ield         | OpenFOAM: The Open Source CFD Toolbox           |
|  \\    /   O peration     | Version:  dev                                   |
|   \\  /    A nd           | Web:      http://www.openfoam.org               |
|    \\/     M anipulation  |                                                 |
\*---------------------------------------------------------------------------*/
FoamFile
{
    version     2.0;
    format      ascii;
    class       volScalarField;
    object      k_0;
    location    "9.157";
}
// * * * * * * * * * * * * * * * * * * * * * * * * * * * * * * * * * * * * * //

dimensions      [0 2 -2 0 0 0 0];

internalField   nonuniform List<scalar> 
12225
(
8.52363
9.95626
6.34809
6.88027
4.82263
7.28976
5.72323
9.21279
7.35126
11.7713
9.29954
15.4525
12.0461
21.3742
17.8613
27.3301
34.5024
56.6163
1.32544
5.45417
4.6595
5.74119
4.21798
5.26497
3.99708
5.01485
4.23219
5.01653
4.54178
4.95493
4.72534
4.79609
4.81627
4.62249
4.75316
6.55775
0.106896
1.80466
2.0562
3.20533
2.85548
3.446
3.12911
3.18797
3.17774
2.87228
2.95324
2.53651
2.62452
2.21352
2.32546
1.99422
2.00479
2.81035
0.00881453
0.33829
0.506444
0.797633
1.163
1.25149
1.71318
1.54707
1.94532
1.6251
1.80085
1.44337
1.46536
1.19808
1.23874
1.0872
1.22153
1.49461
0.00158013
0.0802327
0.144034
0.233313
0.425673
0.500621
0.709906
0.702482
0.827805
0.73721
0.81577
0.681054
0.719078
0.599524
0.664562
0.593104
0.86644
0.947051
0.00239309
0.045029
0.0672709
0.0942331
0.158137
0.179289
0.263008
0.261826
0.321627
0.2943
0.341948
0.29421
0.322903
0.276763
0.325771
0.3048
0.423965
0.529608
0.00167777
0.00498221
0.0180133
0.0216972
0.0475305
0.0508601
0.0863335
0.0842569
0.115608
0.105728
0.133948
0.115866
0.134463
0.116287
0.144325
0.135666
0.205205
0.205691
0.00136918
0.0022889
0.00568125
0.00693133
0.0162389
0.0171831
0.0305187
0.0295577
0.0425007
0.03943
0.0514
0.0459799
0.054095
0.0490428
0.060514
0.0594511
0.0764021
0.0848516
0.00146798
0.00226012
0.00391219
0.00486807
0.00850479
0.00916275
0.0140455
0.0142099
0.0188629
0.0184381
0.0228495
0.0219822
0.0252975
0.0246904
0.0290234
0.0305299
0.0360259
0.04146
0.00179855
0.00419153
0.00481983
0.00537501
0.00710975
0.00760876
0.00962163
0.00994772
0.0115417
0.0114912
0.0130302
0.0130592
0.0145003
0.0147229
0.0165521
0.0177913
0.0197025
0.0240128
0.00330803
0.00725591
0.00754485
0.00822657
0.00851753
0.00865986
0.0094219
0.00947021
0.0102088
0.0100788
0.0107563
0.0107467
0.0113499
0.0116142
0.012294
0.0130494
0.0140563
0.0163652
0.00714176
0.0114567
0.0123501
0.013462
0.0133683
0.0130447
0.0125489
0.0117409
0.0112768
0.010856
0.010871
0.0107468
0.0108806
0.011096
0.0113333
0.0117722
0.0122818
0.0134357
0.0156701
0.020077
0.0211113
0.0219463
0.0219121
0.0212028
0.0195914
0.0178217
0.0153969
0.0141687
0.0129394
0.0123585
0.011881
0.0116782
0.0116492
0.0117702
0.0120758
0.0127532
0.0314052
0.0328012
0.0337884
0.0339612
0.0336502
0.0319422
0.0282582
0.024935
0.0218216
0.0195658
0.0174233
0.0157373
0.0142878
0.0133384
0.0127692
0.0125469
0.0125102
0.0127521
0.0521238
0.0534373
0.0544291
0.0538505
0.0521531
0.0481706
0.0426866
0.0372006
0.0321997
0.0278717
0.0242109
0.0212413
0.0189328
0.0171467
0.0158186
0.0149598
0.0144371
0.0142264
0.0773362
0.0813845
0.0831883
0.0814446
0.0756148
0.0669448
0.0574592
0.0485258
0.0407485
0.0342629
0.0289725
0.0247882
0.0215579
0.0191773
0.017479
0.016369
0.0157064
0.0154875
0.0957057
0.0943708
0.0953114
0.0922734
0.0834765
0.0726803
0.0616512
0.0516075
0.0430385
0.0359479
0.0302119
0.0256813
0.0221816
0.0196174
0.017796
0.0165833
0.0158454
0.0155871
0.0987584
0.094905
0.0953965
0.0921935
0.0831796
0.0721746
0.0609635
0.0507802
0.0421519
0.0350911
0.0294226
0.0249751
0.0215655
0.0190572
0.0172746
0.0160786
0.0153419
0.0150745
0.07673
0.0806316
0.0824489
0.0805082
0.0736593
0.0644855
0.0550273
0.0462089
0.0385049
0.0320158
0.0267265
0.0225725
0.0194121
0.017132
0.0155686
0.0145175
0.013826
0.0135719
0.0484522
0.0510005
0.0531461
0.0526582
0.0498838
0.0450521
0.0396816
0.034189
0.0289189
0.0241534
0.0201557
0.0170115
0.0145831
0.0128301
0.0116446
0.0108764
0.0103569
0.0101795
0.0297186
0.0320559
0.0330781
0.0324455
0.0302734
0.0272552
0.0238942
0.0207285
0.0179411
0.0153568
0.0130126
0.0110259
0.0096588
0.00874468
0.00816081
0.00782765
0.00765785
0.0076098
0.0158446
0.0177701
0.0190478
0.0191239
0.0188226
0.0176114
0.0156425
0.0134399
0.0116375
0.0104435
0.00955249
0.00889608
0.00826844
0.00779667
0.0075083
0.00740373
0.00741584
0.00744932
0.00732185
0.00942066
0.0104228
0.0104826
0.0104426
0.0101564
0.00961704
0.00938614
0.00931774
0.00919288
0.00909165
0.00897742
0.0090232
0.00916273
0.00943031
0.00985862
0.0104455
0.0109164
0.00362195
0.00431826
0.00490581
0.0058868
0.00738214
0.00807538
0.00863435
0.00943261
0.0109916
0.0127641
0.0143172
0.0155721
0.0172906
0.0192662
0.0214903
0.0238483
0.0261282
0.0277964
0.00131234
0.00213503
0.00331169
0.00563074
0.0102194
0.0139853
0.0184487
0.0241092
0.0318386
0.0396444
0.0464443
0.0524978
0.0591919
0.0659923
0.072984
0.0794118
0.0846872
0.0881358
0.000324953
0.00273413
0.010791
0.029034
0.0548228
0.0753841
0.0959229
0.118629
0.142966
0.165005
0.183616
0.199727
0.216121
0.231286
0.244918
0.255564
0.262143
0.264026
0.00210644
0.0332304
0.113457
0.241657
0.352164
0.430704
0.490298
0.541664
0.583627
0.617746
0.645788
0.668796
0.691432
0.709977
0.722454
0.72567
0.72354
0.716516
0.0418651
0.405185
1.01346
1.39626
1.68096
1.81352
1.86787
1.88999
1.8777
1.85923
1.84597
1.82749
1.8059
1.77177
1.73148
1.68637
1.63258
1.58835
0.802535
3.37588
4.45409
4.5415
4.37586
4.13411
3.91477
3.7346
3.57556
3.43551
3.2958
3.15779
3.02774
2.89338
2.77562
2.65532
2.55579
2.41971
7.05302
9.64681
8.42785
6.35217
5.23441
4.74528
4.58407
4.56617
4.60458
4.66791
4.71569
4.74138
4.74632
4.72646
4.68524
4.6246
4.52227
4.27387
0.075368
0.0637216
0.0607966
0.0637012
0.071431
0.0826923
0.0983637
0.118584
0.144115
0.175213
0.212722
0.256348
0.306342
0.362214
0.417755
0.470757
0.525933
0.58743
0.653488
0.716136
0.775463
0.839356
0.911706
0.994899
1.09476
1.20468
1.32097
1.4673
1.67914
1.97945
2.37616
2.82994
3.28246
3.69734
4.07847
4.43758
4.75895
5.04142
5.29091
5.50613
5.69462
5.84674
5.97422
6.08613
6.16958
6.2176
6.24066
6.22604
6.17522
6.10678
6.02402
5.94071
5.83921
5.7081
5.53755
5.35061
5.1645
4.99046
4.8344
4.68673
4.54657
4.42266
4.2992
4.18108
4.06978
3.95169
3.84202
3.73642
3.63282
3.5362
3.43467
3.3353
3.26844
3.24235
3.24495
3.29607
3.42743
3.59547
3.71097
3.81774
3.97544
4.22457
4.45671
4.60751
4.70687
4.81942
4.9021
4.92692
4.92624
4.92319
4.90014
4.80554
4.61277
4.333
3.99828
3.79294
3.8079
4.07352
4.35757
4.3501
4.23936
4.17319
4.18541
4.15934
4.0448
3.62533
3.30614
3.54578
3.94772
3.90282
3.47825
3.01433
2.80059
2.75371
2.9728
3.33404
3.42567
3.14062
2.23339
1.89608
2.62604
3.37978
3.14312
1.92858
1.48552
1.44385
1.54954
1.82874
2.23923
2.76951
3.38097
4.30788
5.59892
6.78033
7.51153
7.88675
8.08601
8.28322
8.66242
9.4065
10.3807
11.3998
12.0689
12.2839
12.2679
12.4848
12.9949
13.7234
14.2839
14.6911
14.8464
14.6764
14.2926
13.887
13.6331
13.1614
12.2503
11.6205
11.2726
11.309
11.0263
10.389
9.25321
8.853
11.928
18.7933
17.1709
22.1799
38.6544
44.1661
37.2498
26.2516
17.1283
10.3152
9.4059
10.1907
11.223
12.2953
16.2017
20.3569
0.314223
0.15479
0.0900605
0.0709357
0.0657366
0.0650513
0.0654703
0.0673147
0.0718111
0.0785201
0.0876099
0.0992903
0.113031
0.128979
0.145719
0.161825
0.184568
0.219509
0.262237
0.297969
0.3417
0.408046
0.516816
0.692703
0.929083
1.16841
1.38912
1.60959
1.81753
2.01035
2.13459
2.18125
2.18294
2.10269
1.99436
1.87338
1.73029
1.58947
1.46138
1.34431
1.23955
1.14924
1.06968
0.989475
0.917769
0.840905
0.773419
0.71568
0.670056
0.636266
0.613573
0.591322
0.56531
0.536272
0.498755
0.481904
0.476659
0.475895
0.482265
0.498223
0.516749
0.546496
0.561101
0.572663
0.584785
0.588799
0.595008
0.596298
0.595257
0.587139
0.568838
0.533216
0.493048
0.473255
0.46727
0.473639
0.506244
0.595492
0.65486
0.675334
0.694729
0.747232
0.896353
1.00188
1.03772
1.1
1.21624
1.27137
1.28035
1.30656
1.40357
1.50611
1.54185
1.51866
1.34865
1.06631
0.91652
0.917128
1.0872
1.2209
1.25575
1.33348
1.58125
2.26189
2.49453
2.56358
2.67935
2.62166
2.01657
1.31338
1.05876
0.973911
0.958236
0.993298
1.08839
1.11191
1.02071
0.913217
0.904327
1.11314
1.25634
1.12123
1.10672
1.25685
1.17919
1.14623
1.17525
1.15747
1.17701
1.2866
1.47707
1.76741
2.15877
2.6436
3.05056
3.42696
3.61607
3.69495
3.72795
3.83599
4.13665
4.7642
5.88671
7.1355
7.50832
7.32465
6.98868
6.71309
6.63621
6.70135
6.85013
6.91481
6.94486
7.114
7.66944
7.76546
7.0998
6.68208
6.82247
6.83253
7.01476
6.97786
6.86223
7.04279
10.732
13.6867
9.81403
8.23574
13.6869
19.5869
18.807
14.7669
11.8574
7.90091
6.72577
7.73961
6.7024
5.20317
6.06659
10.817
0.784279
0.326901
0.155508
0.0993878
0.077905
0.0680186
0.0626529
0.0601166
0.0588761
0.0588589
0.0598531
0.0623776
0.0682295
0.0791667
0.0941759
0.113031
0.146176
0.198713
0.269872
0.355659
0.479747
0.607094
0.737273
0.912269
1.07659
1.18321
1.2386
1.25851
1.22427
1.13034
1.02936
0.898475
0.777091
0.670667
0.577996
0.484406
0.410126
0.355569
0.310091
0.277606
0.252128
0.233343
0.218768
0.206535
0.195956
0.18874
0.18215
0.177893
0.176271
0.175769
0.175603
0.175397
0.175016
0.174032
0.172703
0.172612
0.173684
0.177169
0.182406
0.188021
0.194816
0.204137
0.209677
0.21318
0.216908
0.218166
0.218321
0.21633
0.210849
0.198785
0.187267
0.177759
0.166668
0.159334
0.155968
0.156201
0.162495
0.179147
0.189303
0.189449
0.190579
0.198789
0.226172
0.277073
0.308168
0.337795
0.387199
0.418507
0.432602
0.466108
0.534442
0.616189
0.712694
0.788972
0.799807
0.698704
0.519073
0.485737
0.521432
0.623083
0.766854
1.11431
2.06412
2.38026
2.08181
1.78948
1.68484
1.42219
0.881919
0.651704
0.5969
0.584896
0.611344
0.687362
0.732281
0.739605
0.695707
0.664121
0.684819
0.957691
1.16381
0.829735
0.97458
1.09769
1.16709
1.28058
1.25437
1.01987
0.909428
0.923167
0.966088
1.00115
1.17618
1.33024
1.49241
1.6579
1.76747
1.82238
1.83566
1.85221
1.92662
2.14711
2.58533
3.37043
4.87019
5.40007
5.16898
4.69537
4.22912
3.98858
3.91894
3.93857
4.05164
4.42416
5.14554
5.26434
4.74475
4.48099
4.82153
4.72263
4.70045
4.75742
5.04095
6.10158
7.96422
10.7438
7.8719
6.39073
6.79907
9.11171
9.73808
8.83188
8.19126
6.41658
5.73118
6.51059
4.85117
3.75429
3.95831
6.10563
1.45271
0.576355
0.270657
0.165192
0.114653
0.0846989
0.0683181
0.0615357
0.0584129
0.0570178
0.0572552
0.0591891
0.065508
0.0800234
0.101238
0.145721
0.220733
0.322666
0.442791
0.545638
0.637154
0.713613
0.781839
0.847161
0.870419
0.842428
0.748541
0.670376
0.582156
0.4871
0.403035
0.338442
0.282875
0.239407
0.209297
0.180436
0.16515
0.155772
0.1475
0.143564
0.141787
0.141176
0.141071
0.142032
0.143448
0.144876
0.146037
0.147807
0.150215
0.152903
0.155032
0.155923
0.156419
0.156819
0.157229
0.15853
0.160714
0.163935
0.166836
0.169423
0.17304
0.176004
0.178486
0.181888
0.184876
0.185501
0.184411
0.181022
0.173495
0.158607
0.142181
0.128828
0.121247
0.11912
0.120213
0.123857
0.131121
0.139395
0.142887
0.139435
0.130866
0.129331
0.132312
0.151395
0.184687
0.202533
0.215839
0.226038
0.237561
0.263277
0.287244
0.323661
0.354021
0.39571
0.416708
0.40797
0.374192
0.382291
0.426338
0.552418
1.07605
1.98117
2.28156
1.99974
1.37996
1.18091
1.08927
0.891315
0.600747
0.527734
0.507341
0.51051
0.549678
0.656677
0.709596
0.716022
0.689468
0.640992
0.601584
0.696404
0.997899
0.803914
0.996476
1.12813
1.16081
1.31838
1.17429
1.10905
0.86674
0.862647
0.849354
0.796586
0.864485
1.00117
1.1609
1.27049
1.34795
1.39657
1.41113
1.4054
1.39375
1.43799
1.61236
1.91036
2.55856
3.83867
4.34851
4.2555
3.81958
3.35607
3.1406
3.0742
3.11424
3.47063
4.19881
4.29113
3.87408
3.56468
3.80588
4.02114
3.98759
4.00742
4.09447
4.63626
6.55673
7.58528
6.08649
5.2429
5.5764
6.49036
6.79067
6.42643
6.12191
5.52619
5.30341
5.62722
4.31883
3.72586
3.5542
4.50785
2.27453
0.89159
0.418592
0.241886
0.149248
0.10396
0.0791631
0.0664037
0.0617503
0.060537
0.0615265
0.0652288
0.0730577
0.0942066
0.148897
0.275243
0.395508
0.444046
0.480365
0.544036
0.618244
0.648198
0.652338
0.606948
0.53908
0.484187
0.412592
0.34539
0.285417
0.235294
0.193228
0.170947
0.153501
0.140902
0.133633
0.128059
0.126164
0.125412
0.125182
0.125872
0.12751
0.129734
0.132904
0.135977
0.138666
0.140974
0.143016
0.14534
0.148347
0.151267
0.152901
0.153283
0.153269
0.153014
0.153146
0.154572
0.156525
0.158743
0.160549
0.162522
0.16322
0.163347
0.163942
0.166426
0.16859
0.169107
0.167972
0.165785
0.161293
0.152911
0.140275
0.126107
0.114736
0.109257
0.107479
0.111825
0.120763
0.127815
0.132541
0.129784
0.118881
0.116253
0.119473
0.133836
0.155516
0.168449
0.184833
0.194441
0.19925
0.205056
0.211988
0.223309
0.235324
0.25356
0.269761
0.28595
0.314836
0.370976
0.529704
1.08245
1.88935
2.14781
2.02647
1.28228
0.919062
0.786552
0.72199
0.57014
0.444211
0.410046
0.400241
0.412972
0.461802
0.558509
0.609974
0.634238
0.651602
0.607932
0.515538
0.506935
0.631896
0.767818
0.99717
1.16607
1.12679
1.03968
0.861453
1.16342
0.901586
0.84292
0.811237
0.713952
0.758648
0.909329
1.07515
1.22239
1.2812
1.32701
1.32675
1.30378
1.19114
1.15671
1.19246
1.37513
1.61112
2.29166
3.19991
3.43908
3.45662
3.14164
2.8403
2.70323
2.67898
2.94488
3.62032
3.75803
3.48102
3.0291
2.9808
3.75813
3.81923
3.94325
3.91793
3.7534
6.09054
5.90013
5.085
4.7232
5.13375
5.33542
5.47126
5.21069
4.90609
4.81457
5.09077
5.05145
4.27019
3.74686
3.35898
3.88623
3.19976
1.23883
0.546613
0.271968
0.158377
0.109144
0.0869879
0.0757408
0.0719542
0.0708776
0.0707228
0.0734424
0.0887461
0.137802
0.277115
0.392111
0.431245
0.451392
0.472551
0.483365
0.48417
0.462991
0.430416
0.388576
0.343157
0.289644
0.24283
0.203537
0.17179
0.148361
0.133242
0.126327
0.121339
0.118488
0.117437
0.117091
0.117128
0.117903
0.119231
0.121188
0.123765
0.127015
0.131039
0.134804
0.138101
0.141178
0.143934
0.146769
0.149919
0.152089
0.153317
0.153589
0.153408
0.152363
0.152037
0.151939
0.151318
0.149257
0.147855
0.147221
0.146204
0.145395
0.14498
0.144825
0.145419
0.145676
0.145101
0.144398
0.144683
0.145953
0.144863
0.138112
0.129176
0.114915
0.103824
0.0989695
0.0983515
0.101282
0.105461
0.107077
0.107973
0.111165
0.119722
0.134248
0.141378
0.149625
0.177588
0.19258
0.190126
0.190198
0.198544
0.203959
0.205396
0.211281
0.225915
0.256434
0.319203
0.49893
1.08897
1.68089
1.93621
1.91124
1.38536
0.862134
0.652968
0.552271
0.46881
0.372674
0.334688
0.327127
0.328668
0.338144
0.359697
0.399596
0.434471
0.473626
0.49435
0.47977
0.437344
0.43039
0.475933
0.632389
1.06451
1.3144
1.25525
0.942569
0.769398
1.11215
0.971002
0.740886
0.702863
0.657792
0.712094
0.876749
1.05953
1.24626
1.27426
1.29479
1.25838
1.18069
0.978564
0.917149
0.95391
1.16233
1.31545
1.54059
2.14253
2.64504
2.80865
2.8009
2.59651
2.47524
2.39484
2.55046
3.18575
3.39591
3.22933
2.80104
2.59116
3.15424
3.76661
4.35188
4.04046
3.79554
5.02573
5.33055
5.19716
4.71623
5.16284
4.90762
4.78503
4.58649
4.24698
4.30153
4.93891
4.53191
4.32497
3.77717
3.20614
3.47414
4.21846
1.63805
0.633545
0.276611
0.149416
0.107943
0.0908013
0.0820192
0.077934
0.0767876
0.0783081
0.0922344
0.13426
0.247472
0.362233
0.401733
0.41264
0.415579
0.410151
0.390166
0.367859
0.337465
0.310507
0.276461
0.231729
0.191838
0.167499
0.147184
0.129432
0.121008
0.116673
0.115064
0.114522
0.114461
0.115237
0.116342
0.117369
0.118842
0.12103
0.123876
0.127412
0.13156
0.136284
0.140474
0.144552
0.148896
0.15288
0.156685
0.16023
0.161724
0.162216
0.162158
0.161457
0.159022
0.156133
0.153944
0.151711
0.148506
0.145174
0.143326
0.140255
0.137674
0.134845
0.131637
0.129748
0.129147
0.128952
0.127773
0.125577
0.124583
0.129228
0.134605
0.13461
0.123942
0.108867
0.0970997
0.0926157
0.0925574
0.0944862
0.098014
0.099234
0.103052
0.11897
0.130635
0.131841
0.135019
0.161482
0.186334
0.18685
0.188621
0.198239
0.200168
0.198569
0.203766
0.218912
0.262917
0.413075
0.982779
1.48556
1.76512
1.80706
1.55755
1.01514
0.648921
0.476738
0.393103
0.336197
0.300663
0.290288
0.29411
0.299259
0.310504
0.329171
0.354769
0.386032
0.429935
0.443385
0.441938
0.421424
0.415693
0.434283
0.523635
0.965737
1.5223
1.33643
0.905101
0.646093
0.713215
0.915332
0.614939
0.583187
0.635529
0.672312
0.817579
1.01664
1.20919
1.19317
1.11381
1.00208
0.879586
0.799178
0.784331
0.842751
1.04801
1.22176
1.29982
1.51288
2.05357
2.41072
2.49175
2.3705
2.26632
2.16634
2.23732
2.70605
3.06616
3.02555
2.73207
2.48178
2.64856
3.32615
4.4646
5.11708
4.20095
3.78047
4.30549
4.75072
4.2462
4.72675
4.72115
4.49807
4.21519
3.91231
4.00092
4.69471
4.16558
4.29638
3.79976
3.19121
3.28446
5.27501
1.98319
0.660352
0.254616
0.138593
0.108898
0.0992046
0.0917349
0.0881848
0.0901797
0.104662
0.16795
0.256799
0.312077
0.358849
0.372987
0.36418
0.335564
0.322618
0.311886
0.292291
0.265794
0.237912
0.207381
0.173342
0.147248
0.134629
0.124233
0.117517
0.114508
0.113258
0.113109
0.113572
0.115231
0.118204
0.12198
0.126002
0.130114
0.135171
0.140801
0.146353
0.151671
0.156425
0.160461
0.164507
0.16817
0.171425
0.17386
0.176203
0.178392
0.180542
0.181257
0.180925
0.176644
0.170847
0.16394
0.158295
0.153523
0.147749
0.143603
0.140159
0.13654
0.133321
0.129846
0.126162
0.124609
0.124225
0.123334
0.121339
0.116718
0.111696
0.110053
0.113094
0.115868
0.110464
0.0989011
0.0927631
0.0911014
0.0920768
0.0964394
0.0988513
0.100856
0.108423
0.117659
0.120614
0.122905
0.133068
0.161479
0.178241
0.189889
0.195201
0.194562
0.195847
0.202071
0.222744
0.302787
0.754585
1.38808
1.6254
1.67131
1.52798
1.08312
0.669288
0.447632
0.347832
0.306172
0.285437
0.272007
0.269151
0.27596
0.283493
0.29553
0.316232
0.338742
0.365433
0.414359
0.423397
0.410091
0.401777
0.406521
0.407924
0.464864
0.557424
1.37414
1.08472
0.725082
0.528363
0.434189
0.622015
0.538627
0.52933
0.627816
0.592617
0.643114
0.820232
0.870683
0.796518
0.734006
0.765616
0.741135
0.733466
0.722751
0.797439
0.989597
1.16631
1.23545
1.25467
1.54818
2.02286
2.12587
2.13517
2.07333
1.99135
2.02514
2.29922
2.72592
2.77046
2.65325
2.38624
2.45087
2.70421
4.08274
5.50163
4.57846
3.23191
3.26683
3.71223
3.38522
3.993
4.47373
4.26286
3.98503
3.73986
3.876
4.45493
3.90886
4.09672
3.76042
3.19764
3.28728
6.34949
2.20003
0.651684
0.222685
0.137765
0.12379
0.120389
0.115107
0.116664
0.13807
0.187115
0.262848
0.298549
0.310063
0.317846
0.295795
0.271745
0.263185
0.258232
0.250275
0.235324
0.214373
0.188576
0.16071
0.138701
0.127409
0.121727
0.117532
0.113903
0.112085
0.11175
0.112141
0.113763
0.117122
0.121634
0.126392
0.131216
0.136751
0.143237
0.149214
0.15447
0.158856
0.162434
0.16611
0.169833
0.172086
0.174372
0.175542
0.177357
0.179875
0.183831
0.188558
0.191814
0.192702
0.191262
0.184777
0.172555
0.162335
0.156683
0.151518
0.145574
0.138717
0.133915
0.130752
0.126234
0.124184
0.123715
0.123064
0.121457
0.117515
0.110638
0.104389
0.101925
0.102103
0.103644
0.0986919
0.0916996
0.089863
0.0907676
0.0952008
0.0992608
0.0999395
0.0997721
0.101325
0.104584
0.109273
0.119729
0.1465
0.172945
0.189184
0.195559
0.197523
0.199873
0.204443
0.231589
0.391792
1.12297
1.56378
1.58269
1.40923
1.02746
0.6697
0.435299
0.330183
0.290154
0.275307
0.264264
0.257162
0.257441
0.267274
0.275317
0.287601
0.310592
0.332939
0.354187
0.400508
0.401205
0.371455
0.386296
0.389779
0.387793
0.431181
0.403583
0.711755
0.589654
0.534345
0.486204
0.397162
0.486619
0.522698
0.455154
0.605624
0.534953
0.563652
0.599798
0.578487
0.578611
0.588972
0.695958
0.701561
0.709606
0.682376
0.709618
0.878868
1.10475
1.21204
1.17683
1.25789
1.56573
1.79448
1.87207
1.89942
1.85855
1.8982
2.11518
2.47152
2.48344
2.47036
2.32586
2.37977
2.41906
2.59997
5.23911
4.56063
3.22005
2.78189
3.21911
2.68963
3.23762
4.04446
4.04794
3.95424
3.6778
3.77261
4.09768
3.6631
3.95951
3.56356
3.22904
3.52031
7.29975
2.24697
0.540179
0.192979
0.151687
0.158763
0.1617
0.163841
0.177479
0.199581
0.229289
0.271962
0.286164
0.281046
0.246394
0.224928
0.220662
0.220542
0.220523
0.217256
0.206259
0.187838
0.166558
0.143397
0.126809
0.119897
0.115659
0.111254
0.107661
0.10682
0.107067
0.108366
0.111331
0.115269
0.11999
0.125818
0.132062
0.138927
0.146104
0.152437
0.157211
0.160422
0.162036
0.162973
0.162886
0.161804
0.159269
0.155369
0.153395
0.152599
0.15423
0.159741
0.170634
0.183838
0.18858
0.188302
0.175992
0.162627
0.1573
0.154453
0.150935
0.144833
0.137249
0.131968
0.127986
0.12616
0.126183
0.127543
0.1271
0.120987
0.11117
0.104101
0.0982174
0.0963483
0.097836
0.09689
0.0907461
0.0877448
0.0880458
0.0898055
0.0914546
0.092413
0.094675
0.0975613
0.100598
0.105479
0.116499
0.143745
0.176097
0.199634
0.211986
0.215452
0.21396
0.214812
0.256495
0.586888
1.34302
1.56099
1.39349
0.931723
0.667916
0.460073
0.343036
0.286074
0.267452
0.258872
0.253711
0.249836
0.250077
0.261517
0.269833
0.279374
0.300992
0.324253
0.334221
0.35061
0.341173
0.340905
0.360274
0.351269
0.355688
0.370042
0.365186
0.441625
0.427062
0.426514
0.451258
0.383801
0.441048
0.501094
0.410808
0.49492
0.473955
0.517763
0.510689
0.45199
0.486725
0.512577
0.628872
0.647666
0.668103
0.647678
0.655283
0.747501
0.950177
1.18174
1.15124
1.14604
1.2695
1.48469
1.67091
1.6959
1.73256
1.76487
1.85232
2.15886
2.3182
2.31006
2.17768
2.32291
2.25019
2.09587
2.99625
3.69594
2.90012
2.36678
2.68042
2.61192
3.07883
3.80598
3.99141
3.92427
3.6812
3.64605
3.75074
3.45559
3.68536
3.48869
3.21921
3.71693
8.04292
2.23398
0.464437
0.188753
0.179207
0.188649
0.188629
0.189757
0.200362
0.214798
0.232966
0.25126
0.250991
0.223175
0.190904
0.183326
0.1829
0.184929
0.187537
0.188012
0.184329
0.17247
0.15544
0.138056
0.124015
0.116381
0.111852
0.105449
0.102808
0.102464
0.102912
0.104593
0.107757
0.112786
0.12051
0.130068
0.141004
0.152181
0.161947
0.167392
0.16906
0.16874
0.166321
0.162324
0.158203
0.154779
0.152296
0.148678
0.142915
0.135775
0.126112
0.120506
0.118924
0.123827
0.141592
0.159534
0.16444
0.152621
0.145742
0.144598
0.144903
0.144708
0.139283
0.132739
0.127055
0.124805
0.124279
0.127847
0.131258
0.130348
0.12053
0.106017
0.0960683
0.0894587
0.0883738
0.0903955
0.0891724
0.0852226
0.083666
0.083859
0.0845919
0.0866729
0.092029
0.0963237
0.100123
0.105564
0.120039
0.150831
0.180152
0.211929
0.236143
0.242395
0.236894
0.237905
0.306095
0.790319
1.41072
1.48043
1.05587
0.629354
0.466762
0.357516
0.292373
0.25853
0.249357
0.243942
0.245674
0.242493
0.242565
0.257171
0.267657
0.27388
0.289435
0.301576
0.312741
0.303507
0.287026
0.30919
0.309721
0.300843
0.29578
0.312108
0.34974
0.364394
0.353425
0.330791
0.405904
0.366781
0.367328
0.400408
0.329419
0.376072
0.431975
0.469824
0.423168
0.379123
0.454141
0.474074
0.563618
0.603244
0.618766
0.640912
0.638006
0.65849
0.822518
1.09044
1.12879
1.11252
1.14738
1.26876
1.47751
1.50208
1.58382
1.58353
1.5911
1.94981
2.26321
2.22686
2.02321
2.05506
1.94133
2.03242
2.21566
2.54759
2.27256
2.01732
2.32101
2.37655
2.93475
3.62239
4.01032
3.88521
3.67924
3.57074
3.50894
3.28341
3.24532
3.33213
3.13787
3.71462
8.60882
2.20388
0.433719
0.194146
0.190857
0.201246
0.19992
0.197604
0.203673
0.211816
0.214136
0.210506
0.196792
0.170506
0.155197
0.153077
0.155103
0.160775
0.165043
0.166017
0.164868
0.157886
0.146051
0.133577
0.123416
0.116428
0.111373
0.104688
0.101528
0.101137
0.101511
0.103325
0.107312
0.114436
0.125967
0.142576
0.160611
0.170532
0.17392
0.174561
0.173049
0.168963
0.164983
0.157703
0.149417
0.142423
0.139385
0.137874
0.135297
0.13008
0.120576
0.112729
0.106435
0.103241
0.103378
0.112216
0.12528
0.127303
0.120829
0.117406
0.12347
0.132316
0.13317
0.127994
0.121519
0.119118
0.118194
0.118618
0.124063
0.128132
0.124728
0.112036
0.0985885
0.0879944
0.0829311
0.0833644
0.0835983
0.0824482
0.0799206
0.0795538
0.0804499
0.0827228
0.0883545
0.0924768
0.0978999
0.109724
0.141854
0.170718
0.188692
0.220623
0.257414
0.271033
0.267289
0.273067
0.382003
0.953423
1.36295
1.28264
0.76929
0.462593
0.348182
0.290044
0.259121
0.241894
0.237297
0.237448
0.23644
0.232985
0.237314
0.254637
0.261842
0.261323
0.262216
0.251571
0.266452
0.269658
0.26084
0.255038
0.274571
0.283814
0.267185
0.278894
0.327086
0.336844
0.317099
0.280793
0.320143
0.335293
0.312955
0.314219
0.281095
0.306227
0.405826
0.408383
0.35118
0.354184
0.443618
0.46535
0.535642
0.581551
0.589827
0.612998
0.620723
0.606053
0.702061
0.955188
1.06081
1.1009
1.10885
1.16652
1.30379
1.32775
1.41332
1.42417
1.48786
1.8549
2.22728
2.19318
1.95573
1.8399
1.75898
1.86682
2.08942
1.99069
1.95656
1.855
2.10347
2.26965
2.6495
3.44559
3.9493
3.75011
3.6272
3.43928
3.21598
3.05373
2.94522
2.91425
2.82495
3.4975
8.9723
2.20907
0.426527
0.195787
0.195073
0.205876
0.202081
0.196932
0.196471
0.194191
0.180442
0.169489
0.161822
0.143633
0.139073
0.140006
0.144005
0.150808
0.157217
0.159076
0.159416
0.156271
0.147454
0.135349
0.12499
0.117373
0.111944
0.105727
0.101988
0.101532
0.102131
0.104369
0.109033
0.11862
0.136477
0.159404
0.169536
0.173389
0.174225
0.173001
0.167164
0.157351
0.14805
0.137681
0.12575
0.116921
0.112383
0.110866
0.110366
0.109684
0.107602
0.105196
0.103138
0.0985094
0.0972376
0.100133
0.112918
0.119586
0.115712
0.10665
0.103581
0.110216
0.118746
0.118761
0.112042
0.105129
0.103165
0.104915
0.111275
0.117044
0.118448
0.11121
0.0987683
0.0876026
0.0800043
0.0779371
0.0786728
0.0782226
0.0762783
0.0753442
0.0757748
0.0773855
0.082257
0.0872697
0.0946668
0.112636
0.151303
0.185537
0.207253
0.245898
0.288423
0.303178
0.299557
0.309762
0.470099
1.05639
1.21933
1.01775
0.58472
0.37868
0.287858
0.250696
0.24094
0.235048
0.231412
0.229276
0.223867
0.224783
0.233465
0.248463
0.247677
0.241192
0.237797
0.228398
0.227837
0.243152
0.25094
0.237246
0.236889
0.263152
0.256448
0.252319
0.281137
0.310986
0.296028
0.272356
0.276136
0.286965
0.273156
0.277121
0.258201
0.27291
0.350152
0.33987
0.320196
0.345274
0.443151
0.466687
0.530612
0.561295
0.571365
0.595036
0.595287
0.586027
0.604041
0.798336
0.981474
1.08279
1.07242
1.11409
1.19703
1.18364
1.24439
1.27703
1.46115
1.83844
2.19595
2.11826
1.90094
1.74308
1.68712
1.78145
2.00121
1.74903
1.7992
1.77231
1.92431
2.27753
2.55941
3.34499
3.9696
3.53249
3.43158
3.25051
2.99001
2.76748
2.62613
2.66877
2.5281
2.89077
9.40359
2.33638
0.45457
0.200513
0.194862
0.205756
0.201307
0.186746
0.170768
0.163496
0.159151
0.150163
0.14303
0.128784
0.124889
0.127202
0.13432
0.143877
0.153446
0.158993
0.160167
0.159431
0.154555
0.145299
0.134143
0.124199
0.116663
0.110637
0.105365
0.103553
0.103486
0.10528
0.110613
0.124469
0.149476
0.163622
0.1686
0.16921
0.164266
0.154991
0.144986
0.133819
0.124528
0.120197
0.115468
0.110327
0.104968
0.103221
0.103214
0.102689
0.098809
0.0959608
0.0963271
0.0971373
0.095734
0.0964682
0.105701
0.116795
0.115793
0.106712
0.100396
0.0993885
0.107006
0.114993
0.112602
0.102046
0.0942704
0.0920187
0.0940057
0.103112
0.107761
0.106468
0.0969563
0.086886
0.0789929
0.0748851
0.0737363
0.0734902
0.0734149
0.0735108
0.0737832
0.0749305
0.0769292
0.0806302
0.0883754
0.111974
0.152265
0.189766
0.234599
0.291686
0.319434
0.320177
0.317072
0.33589
0.564285
1.04156
1.06817
0.762947
0.455444
0.324682
0.258712
0.230949
0.227995
0.22889
0.225596
0.216846
0.21158
0.215376
0.229591
0.239755
0.237974
0.228834
0.226216
0.219489
0.210873
0.218181
0.238737
0.231512
0.22163
0.235191
0.240448
0.233059
0.239382
0.262998
0.271883
0.260304
0.253633
0.254287
0.245727
0.252893
0.247367
0.258333
0.316201
0.313805
0.312924
0.349756
0.439699
0.474314
0.535604
0.551124
0.56285
0.579822
0.579859
0.563692
0.564996
0.652056
0.890007
1.03812
1.03162
1.0767
1.10129
1.08048
1.1539
1.16603
1.43967
1.68226
1.90205
1.71139
1.79221
1.69301
1.65513
1.76554
1.94911
1.67056
1.72313
1.6938
1.78568
2.2053
2.55326
3.26049
3.94036
3.45931
3.05179
3.04082
2.80247
2.53891
2.43795
2.47822
2.37737
2.50626
9.805
2.46559
0.502114
0.201802
0.185368
0.20044
0.198265
0.179206
0.156387
0.146183
0.141956
0.138507
0.13569
0.126942
0.120862
0.120864
0.124126
0.129212
0.135823
0.146009
0.154457
0.156975
0.155453
0.149435
0.140766
0.130087
0.12051
0.113448
0.108047
0.104677
0.10408
0.105742
0.113812
0.136954
0.156166
0.162013
0.162294
0.156186
0.142468
0.122618
0.11247
0.107396
0.104017
0.103605
0.107156
0.106959
0.101788
0.0994363
0.100172
0.101322
0.0979311
0.0933685
0.0931475
0.0959665
0.0961026
0.0955648
0.10029
0.110522
0.115293
0.109311
0.100203
0.0979099
0.0995546
0.107561
0.109873
0.103973
0.094401
0.090099
0.0889902
0.0920488
0.0967801
0.0976877
0.0935734
0.0842173
0.0782862
0.074222
0.0718953
0.0706907
0.0704184
0.0702443
0.0703197
0.0704199
0.0718097
0.0754481
0.0832807
0.110164
0.151225
0.200739
0.270858
0.318903
0.3322
0.324564
0.322034
0.352942
0.631403
1.01919
0.971644
0.589115
0.359388
0.282364
0.235861
0.214075
0.214519
0.222686
0.218648
0.205683
0.203316
0.210816
0.220879
0.221632
0.218456
0.207673
0.205555
0.20616
0.203889
0.204224
0.216148
0.217906
0.20736
0.214012
0.230081
0.222327
0.223052
0.234272
0.246696
0.248394
0.246012
0.243671
0.241263
0.242987
0.245921
0.256239
0.301386
0.308196
0.316986
0.388179
0.446054
0.502964
0.54849
0.542838
0.551076
0.550805
0.548377
0.534527
0.5498
0.582379
0.785313
0.99145
0.998336
1.02817
1.03817
1.03122
1.10635
1.12336
1.30153
1.42477
1.48375
1.3844
1.50321
1.52776
1.53177
1.66296
1.90768
1.64503
1.68202
1.63323
1.70157
2.19705
2.66379
3.18014
3.87791
3.4919
2.8142
2.92451
2.64987
2.45357
2.38241
2.4072
2.33346
2.45017
10.3894
2.73345
0.603146
0.211056
0.172917
0.18484
0.186191
0.172536
0.148381
0.137904
0.135243
0.133315
0.132098
0.127718
0.121505
0.12067
0.122938
0.125902
0.129089
0.132694
0.136538
0.13991
0.141626
0.140293
0.135848
0.127605
0.11901
0.112936
0.108749
0.106304
0.106255
0.110351
0.128931
0.149871
0.157181
0.158714
0.153105
0.140077
0.119575
0.107017
0.100116
0.0980978
0.0969319
0.0948286
0.094809
0.0991985
0.100051
0.0945636
0.092491
0.0969631
0.0990197
0.0912962
0.0877488
0.0917459
0.0972364
0.0959215
0.0993797
0.107451
0.111959
0.112109
0.103732
0.0982005
0.0975141
0.101896
0.105168
0.10419
0.0946805
0.0892983
0.0876394
0.0887843
0.0925273
0.0927029
0.0891467
0.0809901
0.0763145
0.0736402