/*--------------------------------*- C++ -*----------------------------------*\
| =========                 |                                                 |
| \\      /  F ield         | OpenFOAM: The Open Source CFD Toolbox           |
|  \\    /   O peration     | Version:  dev                                   |
|   \\  /    A nd           | Web:      http://www.openfoam.org               |
|    \\/     M anipulation  |                                                 |
\*---------------------------------------------------------------------------*/
FoamFile
{
    version     2.0;
    format      ascii;
    class       volScalarField;
    object      p;
    location    "9.157";
}
// * * * * * * * * * * * * * * * * * * * * * * * * * * * * * * * * * * * * * //

dimensions      [1 -1 -2 0 0 0 0];

internalField   nonuniform List<scalar> 
12225
(
100875
100878
100882
100891
100892
100891
100880
100869
100845
100821
100784
100750
100701
100659
100587
100535
100421
100213
100869
100874
100878
100887
100887
100887
100876
100864
100841
100817
100779
100746
100696
100653
100583
100532
100419
100347
100860
100866
100870
100878
100878
100877
100866
100854
100830
100806
100769
100734
100685
100639
100575
100515
100436
100367
100844
100851
100855
100862
100861
100860
100849
100836
100813
100787
100751
100714
100667
100618
100559
100495
100421
100326
100818
100827
100830
100836
100835
100834
100823
100809
100786
100759
100724
100685
100639
100587
100534
100464
100411
100317
100785
100791
100793
100799
100797
100795
100784
100769
100747
100718
100684
100643
100599
100546
100496
100427
100385
100317
100738
100740
100742
100746
100745
100741
100731
100714
100693
100663
100629
100587
100544
100491
100443
100381
100338
100284
100684
100682
100683
100686
100685
100679
100670
100652
100630
100600
100566
100524
100481
100428
100380
100323
100278
100228
100622
100618
100620
100620
100620
100613
100603
100585
100563
100532
100498
100456
100412
100361
100311
100257
100209
100161
100538
100534
100536
100535
100534
100526
100516
100497
100474
100443
100408
100366
100321
100270
100219
100168
100116
100068
100429
100421
100423
100421
100420
100411
100399
100380
100356
100325
100289
100247
100201
100151
100099
100047
99993.8
99942.6
100282
100274
100275
100272
100269
100259
100246
100226
100201
100170
100133
100090
100044
99994
99940.6
99887.5
99832.7
99778.3
100088
100081
100080
100077
100071
100061
100046
100025
99998.6
99966.8
99929
99886.3
99838.7
99788.6
99734.7
99679.4
99622.7
99565
99842.2
99831.2
99827.6
99823.2
99815.5
99803.8
99786.9
99765.2
99737.4
99704.6
99666.1
99623.1
99574.9
99523.6
99469
99411.9
99353
99292.2
99514.9
99508.8
99503.3
99497.6
99488.2
99475.2
99456.8
99433.7
99404.9
99371.2
99332.1
99288.4
99239.9
99187.7
99132.1
99073.3
99012.3
98948.8
99113.8
99102.1
99095
99087.9
99077.5
99063.2
99043.9
99019.7
98990.4
98956.1
98916.6
98872.4
98823.7
98770.7
98714
98653.9
98591.2
98525.5
98610
98601.4
98595
98587.4
98576.5
98561.4
98541.6
98516.9
98487.5
98453.1
98413.8
98369.6
98320.8
98267.7
98210.5
98149.6
98085.4
98018.1
98067.2
98057.6
98050.1
98041.9
98031
98016.1
97996.7
97972.7
97944
97910.4
97871.9
97828.4
97780.2
97727.3
97670.3
97609.3
97544.7
97476.6
97567.8
97561.3
97553.9
97545.8
97535.2
97521
97502.6
97479.8
97452.3
97420
97382.8
97340.6
97293.4
97241.4
97184.9
97124.4
97060.1
96992.1
97164.2
97155.2
97147.3
97139
97128.7
97115.3
97098.1
97076.7
97050.8
97019.9
96984.1
96943.2
96897.2
96846.3
96790.6
96730.5
96666.7
96599.1
96840.5
96832.3
96824.2
96815.6
96805.3
96792.4
96776.2
96756.1
96731.6
96702.3
96667.8
96628.1
96583.3
96533.4
96478.5
96419.2
96355.9
96288.8
96590.7
96582.5
96573.9
96564.6
96554.2
96541.7
96526.3
96507.3
96484
96456
96422.7
96384.1
96340.2
96291.2
96237.2
96178.5
96115.8
96049.2
96400.3
96395.2
96384.9
96374.2
96363.3
96351.1
96336.4
96318.3
96296
96269
96236.8
96199.1
96156
96107.6
96054.3
95996.3
95934
95867.8
96272.8
96259
96245.4
96233.2
96221.6
96209.5
96195.4
96178.1
96156.5
96130.2
96098.7
96061.8
96019.3
95971.5
95918.7
95861.2
95799.3
95733.4
96179.1
96161.5
96145.2
96131.2
96118.9
96106.9
96093.2
96076.5
96055.6
96029.9
95998.9
95962.5
95920.5
95873.1
95820.7
95763.5
95701.9
95636.3
96117.7
96094.2
96075.1
96059.7
96046.9
96034.9
96021.6
96005.3
95984.8
95959.6
95929
95893
95851.3
95804.3
95752.1
95695.1
95633.7
95568.4
96071.4
96049
96028
96011.6
95998.6
95986.6
95973.5
95957.4
95937.3
95912.4
95882.1
95846.3
95805
95758.1
95706.1
95649.2
95587.9
95522.7
96044.3
96021.1
95998.5
95981.4
95968.2
95956.3
95943.3
95927.4
95907.5
95882.8
95852.7
95817.2
95775.9
95729.2
95677.3
95620.5
95559.2
95494.1
96033.4
96006.4
95981.9
95964.4
95951.2
95939.4
95926.6
95910.9
95891.1
95866.4
95836.5
95801
95759.8
95713.1
95661.3
95604.5
95543.3
95478.1
96034
96001.5
95975.7
95957.7
95944.4
95932.6
95919.8
95904.1
95884.4
95859.7
95829.8
95794.4
95753.2
95706.6
95654.7
95598
95536.7
95471.5
96919.8
96927
96941.9
96964.9
96996
97035.3
97082.9
97138.6
97202.6
97274.6
97354.6
97442.3
97537.4
97639.5
97748.3
97863.1
97983.5
98108.8
98238.1
98370.9
98506.7
98644.9
98784.5
98924.5
99063.8
99201.8
99337.8
99471
99600.6
99726.1
99846.4
99960.5
100067
100166
100257
100338
100410
100471
100523
100564
100594
100614
100623
100621
100609
100588
100557
100517
100469
100414
100352
100286
100215
100141
100067
99991.7
99918.1
99847
99779.8
99718.3
99663.8
99617.8
99581.5
99556.2
99543.3
99544.1
99559.5
99590.9
99639.2
99705.4
99789.9
99894.1
100018
100164
100330
100518
100729
100962
101218
101497
101798
102120
102463
102826
103209
103611
104028
104461
104906
105362
105825
106291
106755
107217
107670
108110
108534
108937
109311
109649
109955
110236
110463
110639
110766
110844
110876
110857
110790
110681
110535
110359
110157
109935
109693
109434
109162
108883
108607
108337
108076
107821
107602
107368
107152
106930
106721
106529
106345
106171
106015
105872
105736
105606
105476
105342
105198
105037
104860
104671
104476
104275
104066
103833
103564
103251
102889
102489
102064
101638
101232
100864
100559
100344
100223
100189
100241
100375
100614
100957
101401
101928
102565
103296
104124
104806
105361
106108
106644
107440
108196
109007
109857
110728
111635
112488
113138
113601
114015
114236
96968.8
96975.8
96990.5
97013.1
97043.8
97082.6
97129.6
97184.6
97247.8
97319.1
97398.3
97485.2
97579.6
97681.1
97789.1
97903.2
98022.7
98147.1
98275.4
98407.1
98541.8
98678.9
98817.1
98955.5
99093.1
99228.9
99362.5
99493.5
99620.9
99744.1
99862.3
99974.3
100079
100176
100265
100345
100415
100476
100526
100565
100595
100613
100621
100619
100606
100583
100551
100510
100461
100404
100341
100273
100202
100127
100051
99975.4
99900.5
99828.2
99759.9
99697
99641.1
99593.9
99556.4
99529.7
99515.4
99514.7
99528.8
99558.8
99605.7
99670.3
99753.4
99855.9
99978.5
100122
100286
100472
100680
100912
101166
101443
101743
102061
102401
102762
103143
103543
103958
104388
104831
105285
105745
106209
106671
107130
107581
108019
108441
108844
109217
109557
109864
110138
110367
110545
110670
110748
110779
110761
110696
110591
110452
110281
110084
109868
109632
109378
109113
108842
108574
108313
108052
107800
107559
107355
107150
106935
106735
106548
106371
106204
106055
105916
105780
105648
105518
105385
105243
105085
104911
104727
104536
104339
104132
103901
103638
103337
102986
102597
102179
101764
101366
101004
100706
100499
100383
100351
100414
100552
100787
101109
101539
102060
102695
103429
104230
104866
105388
106142
106763
107522
108254
109067
109918
110789
111694
112533
113167
113630
114022
114202
97065.9
97072.8
97087.2
97109.2
97139.2
97177.2
97223
97276.8
97338.6
97408.3
97486.1
97571.5
97664.3
97764.3
97871
97983.7
98101.2
98223
98349.2
98478.9
98610.7
98743.7
98877.8
99012.8
99147
99279.5
99409.6
99536.8
99660.3
99779.4
99893.3
100001
100103
100197
100282
100359
100427
100485
100532
100570
100596
100613
100618
100614
100598
100573
100539
100496
100444
100385
100320
100250
100176
100099
100021
99942.8
99865.4
99790.7
99719.9
99654.6
99596.3
99546.5
99506.3
99477
99459.9
99456.5
99468
99495.3
99539.3
99600.9
99680.9
99780.2
99899.5
100039
100200
100383
100588
100815
101065
101338
101630
101944
102280
102637
103013
103408
103818
104243
104681
105130
105585
106045
106504
106958
107405
107838
108257
108657
109029
109369
109676
109947
110173
110350
110474
110553
110584
110568
110510
110415
110286
110126
109941
109735
109510
109269
109017
108761
108508
108261
108012
107776
107553
107350
107148
106946
106763
106589
106422
106269
106132
106002
105869
105736
105607
105475
105336
105184
105017
104842
104660
104469
104265
104038
103784
103505
103181
102814
102419
102028
101655
101312
101026
100832
100721
100691
100765
100907
101144
101449
101849
102352
102982
103691
104493
105034
105486
106297
107010
107695
108412
109222
110065
110933
111823
112629
113238
113705
114035
114144
97207.8
97214.8
97228.5
97249.4
97278.4
97315.3
97360.4
97412.7
97472.6
97540.2
97616.2
97699.7
97790.6
97888.6
97992.9
98102.2
98215.9
98334.4
98456.6
98581.5
98708.2
98836.6
98965.9
99095.3
99223.6
99350.4
99475.1
99596.9
99715
99828.8
99937.7
100041
100137
100227
100308
100381
100444
100498
100542
100576
100599
100612
100614
100606
100588
100559
100522
100475
100419
100357
100289
100216
100138
100058
99976.3
99894.3
99813.2
99734.9
99660.6
99591.6
99529.7
99476.1
99432.1
99398.9
99377.8
99370.5
99378
99401.1
99440.8
99498.2
99573.8
99668.4
99782.9
99917.9
100074
100252
100451
100674
100919
101186
101473
101779
102106
102456
102825
103211
103613
104032
104463
104904
105352
105804
106256
106704
107145
107573
107986
108381
108750
109088
109394
109661
109883
110056
110181
110259
110293
110286
110240
110160
110045
109900
109730
109538
109329
109107
108876
108640
108407
108179
107953
107741
107540
107342
107145
106966
106803
106650
106497
106362
106242
106122
105998
105867
105739
105610
105476
105333
105176
105015
104841
104654
104452
104230
103991
103739
103449
103120
102763
102407
102076
101768
101502
101325
101221
101188
101263
101411
101649
101967
102342
102821
103435
104073
104845
105360
105881
106674
107346
107966
108662
109451
110278
111144
112011
112761
113361
113804
114054
114083
97389.6
97395.8
97409.4
97429.8
97457.6
97493
97535.8
97587
97645.3
97711.3
97785.1
97866
97953.8
98048
98148.1
98253.3
98362.7
98475.7
98592
98711
98832
98954.1
99076.4
99198.5
99319.9
99439.8
99557.7
99672.7
99784.4
99892.1
99994.9
100092
100183
100266
100342
100409
100467
100516
100555
100584
100602
100610
100608
100595
100572
100539
100497
100444
100385
100318
100246
100168
100086
100002
99915.3
99828.5
99742.9
99659.9
99580.9
99507.3
99440.6
99382
99332.9
99294.6
99268.6
99256.3
99258.6
99276.2
99310.5
99362.3
99432.4
99521.5
99630.2
99758.8
99908
100079
100272
100487
100726
100987
101268
101567
101885
102223
102582
102959
103353
103762
104185
104617
105055
105496
105937
106375
106807
107228
107634
108021
108382
108717
109019
109281
109499
109670
109796
109876
109917
109923
109893
109830
109732
109606
109456
109283
109095
108896
108688
108480
108273
108070
107871
107683
107506
107321
107136
106983
106848
106714
106588
106469
106365
106260
106150
106031
105907
105785
105657
105525
105376
105229
105068
104889
104687
104469
104245
104020
103777
103496
103185
102876
102594
102342
102110
101958
101868
101834
101900
102052
102288
102624
103002
103478
104020
104636
105302
105810
106402
107147
107774
108331
108999
109759
110559
111412
112250
112938
113522
113917
114085
114012
97608.9
97614.9
97627.5
97647.1
97673.8
97707.8
97749.2
97798
97854
97917.2
97987.6
98064.7
98148.1
98237.9
98333.7
98434
98537.5
98643.8
98752.7
98864.1
98977.3
99091.4
99205.9
99320.2
99433.8
99546
99656.3
99763.9
99868.2
99968.4
100064
100153
100237
100313
100382
100442
100493
100536
100568
100591
100603
100606
100597
100578
100549
100510
100460
100404
100340
100268
100190
100107
100020
99929.9
99837.8
99745.4
99654.3
99565.5
99480.7
99401.2
99328.3
99263.6
99208.5
99164.2
99132.2
99113.7
99109.6
99120.9
99148.7
99194
99257.7
99340.3
99442.5
99564.3
99706.2
99868.9
100053
100260
100489
100741
101013
101305
101615
101943
102289
102654
103039
103438
103850
104273
104701
105129
105556
105980
106398
106808
107205
107581
107935
108262
108558
108815
109027
109197
109325
109414
109468
109487
109475
109428
109351
109249
109124
108976
108814
108642
108461
108282
108105
107930
107760
107596
107447
107283
107120
106989
106883
106763
106669
106575
106484
106400
106306
106204
106091
105978
105860
105739
105597
105458
105309
105156
104968
104755
104543
104339
104148
103921
103672
103421
103190
102997
102820
102704
102642
102617
102668
102814
103052
103379
103753
104242
104723
105301
105891
106372
106962
107692
108294
108800
109434
110159
110918
111740
112533
113159
113699
114042
114116
113919
97859.1
97865.1
97876.9
97895.2
97920.2
97952.1
97991.2
98037.4
98090.5
98150.3
98216.6
98289.1
98367.9
98453.2
98543.9
98637.8
98733.9
98832.5
98933.6
99036.8
99141.3
99246.6
99352.4
99458
99562.9
99666.6
99768.4
99867.4
99962.9
100055
100141
100222
100297
100365
100425
100477
100521
100555
100580
100596
100601
100596
100581
100555
100519
100473
100418
100355
100284
100206
100122
100033
99939.5
99842.9
99744.6
99645.8
99548
99452.6
99360.9
99274.6
99194.8
99123
99060.7
99009.3
98970.1
98944.2
98932.8
98936.8
98957.3
98995.1
99051
99125.7
99220
99334.3
99468.5
99622.9
99798.1
99995.1
100215
100457
100718
100999
101298
101614
101947
102299
102669
103057
103457
103867
104283
104702
105117
105526
105928
106324
106707
107070
107411
107728
108013
108261
108470
108641
108775
108877
108946
108981
108984
108955
108901
108824
108725
108607
108476
108334
108188
108041
107894
107749
107612
107475
107350
107225
107079
106979
106892
106800
106720
106673
106598
106529
106455
106364
106269
106170
106063
105965
105830
105711
105564
105447
105278
105084
104882
104693
104548
104381
104190
104010
103841
103703
103594
103533
103514
103512
103556
103687
103907
104225
104559
105032
105464
106012
106598
106991
107591
108316
108862
109348
109962
110641
111345
112122
112847
113417
113881
114151
114118
113818
98136.2
98141.6
98152.6
98169.5
98192.6
98222.3
98258.9
98302
98351
98406.4
98468
98535.7
98609.6
98689
98772.2
98858.4
98946.4
99036.8
99129.7
99224.2
99319.8
99416.1
99512.7
99609.1
99704.5
99798.5
99890.6
99980
100066
100148
100224
100296
100360
100419
100469
100512
100546
100572
100588
100595
100592
100579
100557
100524
100480
100426
100364
100294
100216
100131
100040
99943.9
99843.6
99740.2
99634.9
99529.2
99424.2
99321.5
99222.4
99128.4
99041.1
98961.6
98891.4
98832
98784.8
98750.6
98730.9
98726.7
98738.9
98768.4
98815.8
98881.7
98966.7
99071.6
99197.1
99342.7
99508.3
99694.8
99903.5
100135
100386
100655
100942
101244
101563
101900
102255
102627
103014
103408
103809
104214
104616
105012
105400
105781
106149
106497
106822
107123
107396
107637
107847
108024
108167
108277
108357
108406
108424
108417
108387
108334
108260
108171
108072
107963
107852
107739
107627
107517
107412
107311
107217
107120
107005
106945
106871
106833
106771
106731
106704
106621
106591
106502
106427
106360
106254
106207
106050
105976
105831
105733
105577
105413
105244
105080
104969
104863
104717
104613
104515
104441
104397
104402
104443
104471
104528
104654
104838
105154
105427
105873
106242
106716
107337
107731
108340
108929
109433
109934
110541
111173
111813
112521
113164
113677
114047
114218
114087
113696
98432.5
98437.7
98447.2
98462.4
98483.7
98511.4
98545.1
98584.9
98629.9
98681
98737.9
98800.7
98868.6
98940.3
99015
99092.1
99171.4
99253.3
99337.3
99422.7
99508.9
99595.6
99682.2
99768.5
99853.6
99937.2
100019
100097
100172
100243
100309
100369
100423
100470
100510
100542
100566
100581
100588
100585
100574
100553
100522
100482
100428
100367
100297
100219
100134
100041
99942.4
99838.7
99731
99620.3
99507.7
99394.6
99282.1
99171.6
99064.7
98962.8
98867.2
98779.4
98700.9
98633.3
98577.5
98534.8
98506.3
98493
98496.1
98516.2
98554.5
98611.3
98687
98782
98897.4
99033.4
99189
99364.3
99560.4
99779
100019
100277
100550
100838
101142
101464
101804
102160
102529
102908
103292
103680
104066
104446
104820
105187
105539
105871
106181
106468
106730
106967
107177
107356
107503
107619
107708
107771
107809
107824
107818
107789
107740
107679
107610
107535
107458
107381
107305
107232
107161
107094
107035
106966
106901
106879
106837
106824
106793
106753
106755
106706
106678
106615
106534
106521
106405
106388
106256
106178
106066
105981
105855
105705
105597
105467
105381
105344
105257
105220
105196
105189
105207
105276
105374
105450
105527
105666
105828
106174
106310
106796
107128
107461
108053
108478
109000
109565
110035
110536
111119
111711
112299
112912
113465
113909
114184
114250
114001
113534
98741.4
98746.1
98754.7
98768.5
98787.8
98812.8
98843.1
98878.1
98920
98966.7
99018.7
99075.7
99136.5
99199.9
99265.9
99334.3
99404.8
99477.6
99552.2
99627.7
99703.9
99780.3
99856.2
99931.5
100005
100078
100147
100214
100277
100335
100389
100438
100479
100515
100542
100563
100576
100581
100577
100565
100543
100512
100470
100417
100359
100291
100214
100129
100035
99934.4
99827.6
99715.8
99600.1
99481.7
99361.5
99240.7
99120.3
99001.8
98886.7
98776.4
98672.6
98576.4
98489.3
98413
98348.6
98297.3
98260.2
98238
98231.7
98242.1
98270.2
98316.9
98382.7
98467.4
98571.7
98697.1
98843
99007.5
99190.7
99395
99620.3
99867.2
100126
100401
100690
100996
101319
101659
102010
102371
102737
103107
103475
103840
104199
104550
104886
105203
105497
105772
106023
106252
106457
106634
106783
106908
107008
107087
107144
107176
107187
107180
107157
107123
107084
107042
106999
106959
106923
106888
106852
106826
106796
106774
106749
106753
106745
106752
106756
106729
106751
106738
106715
106670
106613
106605
106517
106499
106409
106332
106256
106194
106107
105985
105912
105823
105770
105801
105782
105803
105855
105930
106003
106126
106279
106402
106523
106668
106843
107148
107298
107702
108039
108277
108760
109184
109670
110217
110661
111126
111685
112228
112779
113307
113749
114105
114270
114212
113868
113328
99055.5
99059
99066.9
99079.6
99097.2
99119.8
99147.1
99179.2
99216.2
99257.6
99303.3
99353
99405.7
99460.8
99518.2
99577.7
99639.3
99703
99768
99833.6
99899.3
99964.6
100029
100093
100155
100214
100271
100325
100375
100421
100462
100497
100526
100549
100564
100573
100575
100569
100555
100532
100500
100458
100407
100347
100279
100202
100116
100021
99919.1
99809.8
99694.4
99574.1
99450
99323.3
99195.3
99066.7
98938.5
98812
98688.5
98569.8
98457.4
98352.6
98257.1
98172.1
98099.1
98039.3
97993.6
97962.6
97947.3
97948.6
97966.8
98003
98058.5
98132.6
98225.5
98339.1
98474.2
98627.9
98798.8
98988.8
99200
99431.7
99676.7
99937
100212
100503
100809
101131
101464
101806
102153
102503
102853
103201
103544
103878
104198
104499
104779
105040
105281
105499
105699
105871
106026
106160
106269
106360
106428
106472
106494
106506
106509
106502
106494
106486
106482
106477
106475
106481
106484
106491
106501
106522
106520
106540
106566
106598
106640
106647
106679
106705
106680
106663
106633
106640
106581
106562
106504
106436
106373
106325
106290
106209
106160
106119
106124
106196
106268
106354
106467
106621
106755
106943
107164
107301
107463
107634
107799
108105
108266
108539
108889
109096
109500
109893
110352
110800
111211
111696
112234
112711
113208
113666
113997
114245
114302
114094
113679
113047
99364.9
99367.7
99374.9
99386.3
99402.1
99422.2
99446.5
99474.8
99507
99542.8
99582.1
99624.4
99669.1
99715.9
99764.8
99815.7
99868.4
99922.5
99977.4
100033
100087
100142
100195
100246
100296
100342
100386
100427
100463
100496
100523
100545
100560
100570
100573
100570
100560
100543
100518
100484
100441
100390
100330
100260
100182
100095
100000
99896.6
99785.3
99667
99542.7
99413.6
99280.8
99145.8
99009.7
98873.2
98737.2
98602.6
98471.1
98344
98223.1
98110
98006.2
97913
97831.8
97763.7
97709.4
97669.7
97645.3
97637.4
97646.3
97672.4
97717.3
97781.5
97863.8
97965.6
98088.5
98231.1
98390.1
98566.3
98762.9
98978.7
99209
99454.1
99713.8
99988.8
100279
100582
100896
101218
101546
101877
102209
102539
102864
103180
103482
103768
104035
104279
104513
104720
104914
105086
105242
105378
105491
105587
105664
105719
105759
105788
105812
105836
105858
105881
105913
105945
105975
106012
106055
106094
106136
106184
106228
106281
106336
106380
106441
106487
106527
106582
106571
106574
106572
106588
106550
106533
106500
106451
106412
106363
106354
106346
106323
106334
106404
106515
106691
106843
107014
107230
107420
107689
107990
108120
108271
108525
108703
108976
109181
109317
109650
109851
110212
110571
110942
111394
111736
112228
112728
113150
113572
113944
114172
114305
114272
113965
113408
112665
99660.8
99663.3
99669.7
99679.7
99693.6
99711
99732
99756.3
99783.8
99814.1
99847.1
99882.4
99919.7
99958.7
99999.5
100042
100086
100130
100175
100219
100263
100306
100347
100386
100422
100455
100486
100512
100535
100554
100567
100575
100578
100574
100565
100550
100529
100500
100463
100419
100366
100305
100234
100155
100066
99969.6
99864.5
99751.6
99631.1
99503.9
99371
99233.4
99092.5
98949.2
98804.6
98660
98516
98373.9
98234.7
98099.9
97971
97850.1
97738.7
97637.8
97548.7
97472.4
97409.8
97361.9
97329.2
97312.2
97311.9
97328.4
97362.6
97416.4
97488.2
97578.6
97690
97821.3
97968.5
98131.3
98314
98515
98729.9
98958.8
99201.9
99459.4
99732.4
100018
100313
100616
100924
101236
101549
101861
102167
102465
102750
103017
103267
103502
103725
103929
104117
104283
104434
104568
104684
104784
104868
104933
104985
105031
105075
105126
105180
105230
105286
105357
105423
105486
105564
105640
105707
105780
105867
105953
106037
106094
106165
106232
106290
106359
106369
106392
106418
106427
106411
106400
106391
106367
106361
106332
106336
106380
106405
106453
106584
106734
107001
107226
107474
107737
107985
108297
108673
108858
108963
109270
109498
109761
109986
110109
110363
110551
110864
111160
111495
111917
112233
112655
113115
113524
113892
114175
114281
114293
114160
113772
113104
112268
99934.7
99936.9
99942.5
99951.2
99963.1
99978
99995.6
100016
100039
100064
100091
100120
100150
100182
100215
100249
100283
100318
100353
100387
100420
100451
100480
100506
100529
100549
100565
100578
100587
100591
100591
100586
100575
100559
100537
100510
100476
100436
100388
100333
100269
100196
100115
100025
99927
99820.4
99705.7
99583.5
99454.4
99318.8
99177.6
99031.9
98883.2
98732.4
98580.1
98427.4
98275.7
98126.3
97980.2
97838.2
97702.1
97574.2
97456
97348.4
97252
97168.1
97097.6
97041.4
97000.8
96975.7
96966.8
96974.8
96999.5
97043
97105.1
97186.8
97285.9
97404.9
97540.2
97689.7
97859.2
98046.5
98246.1
98458.1
98683.7
98923.5
99178.6
99446.1
99722.8
100007
100296
100589
100884
101177
101465
101744
102011
102261
102495
102716
102927
103124
103306
103468
103614
103747
103863
103963
104046
104116
104180
104247
104312
104379
104462
104542
104620
104715
104813
104910
105005
105110
105219
105321
105422
105524
105632
105727
105817
105901
105975
106042
106069
106111
106153
106161
106166
106173
106176
106171
106183
106189
106218
106292
106379
106471
106645
106849
107154
107467
107795
108110
108423
108775
109176
109501
109659
109924
110159
110418
110667
110837
111007
111202
111451
111671
111968
112340
112606
112990
113381
113792
114115
114312
114305
114188
113950
113487
112780
111915
100179
100181
100186
100193
100203
100216
100230
100247
100265
100285
100306
100329
100353
100378
100403
100429
100454
100480
100504
100528
100549
100569
100586
100600
100610
100617
100620
100619
100614
100605
100591
100572
100548
100519
100484
100445
100399
100347
100288
100220
100145
100061
99969.6
99869.5
99761.5
99645.7
99522
99391.1
99253.7
99110.6
98961.8
98808.7
98653
98495.3
98336.1
98176.1
98017.2
97861.1
97708.7
97560.5
97418.2
97284.1
97160
97046.5
96944
96853.1
96775.2
96711.5
96663.2
96630.7
96614
96614
96630.6
96664.5
96718.7
96789.5
96877.8
96985.1
97109.8
97246.6
97403.2
97576.6
97762.1
97958.1
98166.8
98389.7
98627.4
98877
99134.8
99399.9
99670.9
99946.3
100222
100496
100765
101025
101275
101508
101727
101934
102130
102314
102485
102639
102782
102911
103026
103123
103207
103285
103362
103450
103533
103614
103710
103817
103924
104031
104151
104280
104399
104520
104656
104786
104909
105034
105157
105275
105381
105481
105567
105625
105676
105727
105764
105774
105799
105818
105819
105835
105870
105903
105967
106077
106216
106361
106575
106820
107163
107546
107944
108326
108709
109095
109530
109975
110214
110467
110697
110925
111182
111377
111507
111718
111915
112078
112334
112679
112863
113222
113533
113911
114148
114223
114159
113947
113614
113116
112378
111497
100385
100387
100391
100398
100407
100417
100429
100442
100456
100472
100488
100505
100523
100541
100558
100576
100593
100609
100623
100636
100647
100655
100660
100662
100660
100655
100645
100631
100613
100590
100562
100530
100493
100450
100403
100351
100293
100229
100157
100078
99991.6
99897.4
99795.5
99685.8
99568.8
99444.7
99313
99174
99029.2
98879.3
98724.1
98564.2
98401.7
98237.6
98072.2
97905.7
97740.8
97579.3
97421.8
97268.5
97121.2
96982.1
96853
96734.4
96626.5
96529.7
96445.4
96375.2
96319.9
96280.5
96256.8
96249.3
96258.5
96284.1
96330.2
96391.7
96469.5
96565.4
96680
96806.2
96949.2
97109.3
97281.9
97464
97657.3
97864
98084.9
98317.8
98557.8
98804.8
99057.1
99313.6
99570.4
99825.2
100075
100315
100547
100763
100967
101162
101343
101513
101671
101816
101949
102072
102181
102275
102365
102456
102541
102637
102733
102832
102937
103056
103188
103315
103449
103593
103737
103884
104034
104181
104330
104480
104613
104737
104853
104964
105053
105111
105178
105234
105263
105280
105311
105321
105327
105361
105425
105488
105584
105723
105901
106100
106348
106648
107018
107452
107911
108366
108810
109245
109707
110178
110493
110782
111044
111259
111504
111725
111856
112035
112175
112334
112594
112836
112978
113262
113520
113861
113993
113934
113837
113571
113139
112615
111845
110905
100548
100549
100553
100559
100567
100576
100586
100597
100608
100620
100631
100642
100654
100665
100675
100685
100693
100700
100705
100707
100707
100705
100698
100689
100675
100657
100635
100609
100577
100541
100501
100455
100405
100350
100291
100226
100156
100079
99996.1
99905.6
99808.2
99704.2
99593.4
99475
99349.5
99217.5
99078.6
98932.4
98780.4
98624.1
98463.3
98298
98130
97960.3
97789
97617.2
97447.7
97282.1
97120.5
96963.3
96812.3
96669.7
96536.7
96414
96301.5
96199.9
96110.5
96035.1
95974.3
95929
95899.3
95884.9
95887
95909.9
95946.1
95999.3
96067.7
96153.1
96257.2
96373.5
96503.5
96650.8
96811.3
96980.2
97158.3
97349
97553.5
97770.3
97994.9
98225.6
98460.2
98697.5
98936.2
99170.2
99402
99623.4
99834
100033
100221
100402
100572
100729
100875
101010
101134
101246
101348
101440
101532
101628
101721
101820
101926
102042
102156
102280
102423
102570
102721
102875
103028
103193
103363
103526
103691
103852
103992
104129
104253
104365
104444
104513
104584
104634
104657
104680
104699
104690
104722
104774
104847
104943
105071
105227
105441
105685
105962
106325
106717
107184
107689
108208
108702
109182
109671
110146
110508
110843
111160
111378
111612
111900
112040
112144
112238
112410
112712
112845
112950
113121
113324
113612
113696
113567
113413
113072
112534
111977
111209
110210
100660
100661
100665
100672
100679
100687
100696
100705
100714
100722
100729
100736
100742
100747
100750
100752
100752
100750
100745
100738
100728
100714
100698
100676
100651
100621
100587
100548
100505
100456
100403
100346
100284
100216
100145
100068
99985.8
99897.3
99803
99702.6
99595.4
99482.3
99362.9
99236.3
99102.9
98963.6
98818
98665.3
98507.4
98345.5
98179.4
98009.4
97836.4
97661.6
97486.1
97311.4
97139.5
96971.3
96807
96647.3
96494
96349
96213.3
96087.3
95971.2
95866.1
95773.3
95693.7
95628.7
95578.6
95544.4
95526
95525.7
95538.6
95566.1
95611.6
95673.1
95749.5
95843.4
95951.5
96070.5
96205.5
96354.2
96511
96675.4
96851.5
97040.8
97242.4
97451.7
97666.5
97884.1
98102.3
98323.2
98538.2
98751
98954.5
99146.2
99327.3
99498.5
99662.8
99819.4
99964.6
100099
100226
100339
100441
100537
100626
100715
100809
100906
101009
101122
101247
101364
101494
101644
101798
101963
102128
102292
102466
102646
102823
103001
103163
103311
103455
103582
103683
103755
103831
103897
103931
103940
103958
103956
103947
104006
104069
104134
104254
104407
104580
104835
105111
105428
105832
106245
106735
107275
107831
108377
108894
109403
109915
110330
110690
111047
111285
111502
111879
112006
112071
112157
112322
112640
112673
112744
112807
112942
113124
113211
113058
112836
112396
111800
111211
110490
109504
100705
100708
100714
100721
100730
100738
100747
100755
100762
100768
100772
100776
100777
100777
100774
100770
100763
100753
100741
100726
100707
100684
100658
100628
100594
100555
100511
100462
100409
100351
100288
100220
100147
100070
99988
99901.9
99810.4
99712.9
99610.4
99502.3
99387.4
99266.3
99139.7
99006.7
98867.1
98721.8
98570.7
98413
98250.2
98084
97913.7
97740.6
97564.7
97387.3
97209.9
97034
96861
96691.3
96525.7
96365
96210.9
96064.4
95926.8
95798.5
95680.3
95573
95478
95395.9
95328.1
95274.6
95235.8
95213
95208.3
95217.6
95240.2
95278.9
95334.7
95404.2
95489.6
95590.4
95701.6
95826.1
95964.9
96112.7
96266.4
96429.6
96605.2
96793.3
96989.3
97189.6
97392.2
97593.2
97797.3
97997.3
98192.2
98380
98555.5
98721
98876.7
99025.2
99165.7
99298.8
99420.9
99535.2
99638
99729.4
99818
99903.6
99992.1
100083
100180
100278
100392
100516
100630
100772
100928
101085
101251
101419
101591
101775
101959
102142
102321
102479
102631
102772
102891
102976
103051
103122
103165
103182
103177
103179
103164
103174
103232
103278
103345
103482
103644
103835
104121
104405
104774
105196
105613
106134
106686
107251
107852
108396
108918
109464
109933
110324
110710
111001
111208
111632
111763
111826
111945
112063
112342
112299
112330
112319
112351
112411
112479
112298
112009
111539
110954
110347
109681
108741
100711
100717
100724
100734
100745
100755
100763
100771
100777
100782
100784
100785
100783
100779
100772
100763
100750
100735
100717
100695
100669
100640
100607
100569
100528
100481
100430
100373
100312
100246
100175
100098
100019
99935
99845.7
99752.1
99654
99550
99440.8
99326.3
99205
99077.7
98945.5
98807.7
98663.7
98513.8
98357.8
98195.9