/*--------------------------------*- C++ -*----------------------------------*\
| =========                 |                                                 |
| \\      /  F ield         | OpenFOAM: The Open Source CFD Toolbox           |
|  \\    /   O peration     | Version:  dev                                   |
|   \\  /    A nd           | Web:      http://www.openfoam.org               |
|    \\/     M anipulation  |                                                 |
\*---------------------------------------------------------------------------*/
FoamFile
{
    version     2.0;
    format      ascii;
    class       volScalarField;
    object      p_0;
    location    "9.157";
}
// * * * * * * * * * * * * * * * * * * * * * * * * * * * * * * * * * * * * * //

dimensions      [1 -1 -2 0 0 0 0];

internalField   nonuniform List<scalar> 
12225
(
100244
100251
100272
100301
100326
100349
100361
100371
100365
100355
100325
100291
100234
100175
100079
99989.4
99821.1
99514.6
100238
100249
100270
100299
100324
100347
100359
100369
100363
100352
100322
100289
100232
100171
100077
99988
99821.3
99671.3
100233
100246
100267
100295
100319
100342
100354
100363
100357
100346
100317
100282
100226
100164
100075
99978.5
99846.4
99708.3
100222
100239
100260
100288
100310
100333
100345
100354
100348
100335
100307
100271
100216
100152
100068
99969.4
99848.8
99698.7
100207
100227
100248
100276
100297
100320
100331
100339
100334
100320
100292
100254
100202
100135
100059
99957.3
99859.1
99705.8
100190
100210
100230
100257
100278
100299
100311
100317
100312
100297
100270
100231
100181
100114
100043
99944.6
99862.1
99745.2
100163
100185
100205
100230
100251
100270
100282
100286
100282
100266
100240
100200
100152
100087
100019
99930.8
99854.2
99763.7
100135
100156
100176
100199
100220
100237
100250
100252
100248
100231
100205
100165
100118
100056
99989.8
99910
99836.4
99755.6
100106
100124
100145
100166
100187
100202
100214
100215
100211
100193
100168
100128
100081
100021
99956.4
99882.6
99810.1
99735.8
100068
100082
100104
100122
100143
100156
100166
100167
100161
100143
100117
100079
100032
99973.9
99910.4
99841.5
99769.6
99698.8
100011
100027
100048
100065
100083
100095
100103
100102
100095
100077
100050
100012
99965.5
99909.9
99847.5
99781.7
99711.3
99641.3
99933.8
99953.5
99973.6
99988.8
100004
100014
100020
100017
100008
99989.2
99961.3
99923.7
99877.3
99823.5
99762.2
99697.8
99629.1
99559
99844.3
99859.3
99875.8
99888.9
99900.7
99907.7
99910
99905.6
99893.4
99873.5
99844.4
99806.7
99760.4
99707.6
99647.7
99583.5
99515.6
99444.9
99735.3
99737.9
99748.5
99758.3
99765.4
99769
99767.1
99759.7
99744.7
99722.5
99691.9
99653.7
99607.1
99554.2
99494.9
99430.6
99362.5
99290.8
99583.9
99579.9
99584.5
99589.7
99591.6
99590.4
99583.9
99572.2
99553.7
99528.6
99495.7
99455.9
99408.5
99354.7
99295.1
99230.2
99161.1
99088
99372.8
99374.2
99375.3
99375.1
99371.4
99364.3
99352.5
99335.7
99313
99284.1
99248.3
99205.8
99156.7
99101.2
99040
98973.6
98902.9
98827.8
99119.7
99120.2
99116.2
99109.2
99099
99085.2
99067.2
99044.6
99016.8
98983.3
98943.7
98897.8
98845.7
98787.7
98724.2
98655.4
98582.2
98504.6
98853.9
98837.2
98825.7
98812.5
98796.1
98776.1
98752.2
98724
98691.1
98652.8
98608.9
98559.2
98503.5
98442.3
98375.8
98304.3
98228.3
98147.8
98579.5
98565.2
98552.4
98535.6
98514.8
98490
98461.2
98428.3
98390.8
98348.4
98300.8
98247.6
98188.7
98124.5
98055.1
97981
97902.6
97819.9
98354.7
98340.3
98324.6
98304.5
98280
98251.6
98219.3
98182.8
98142
98096.2
98045.4
97989.4
97928
97861.4
97789.7
97713.3
97632.8
97548.2
98180.3
98163
98142.7
98118.7
98090.9
98059.4
98024.3
97985.2
97941.8
97893.6
97840.4
97782.1
97718.7
97650.1
97576.6
97498.6
97416.5
97330.5
98045.8
98024.7
98000.4
97973.1
97942.7
97908.9
97871.6
97830.4
97785
97735
97680
97620
97554.9
97484.9
97410.1
97330.9
97247.7
97160.5
97948.5
97920.2
97891.8
97861.6
97829.1
97793.6
97754.7
97712
97665.2
97613.7
97557.5
97496.2
97429.9
97358.8
97283
97202.9
97118.8
97030.9
97872
97841.9
97810.7
97778.4
97744.3
97707.6
97667.6
97623.9
97575.9
97523.4
97466.1
97403.9
97336.7
97264.8
97188.4
97107.6
97022.9
96934.3
97816.7
97785.6
97752.1
97717.9
97682.5
97645
97604.3
97559.9
97511.2
97457.9
97399.9
97337
97269.2
97196.7
97119.8
97038.5
96953.3
96864.4
97785.5
97747.5
97711.1
97675.5
97639.2
97601.1
97560
97515
97465.8
97412
97353.5
97290.1
97221.9
97149.1
97071.7
96990.1
96904.5
96815.3
97767.8
97722.9
97683.6
97646.9
97610.2
97571.7
97530.2
97484.9
97435.3
97381.2
97322.4
97258.7
97190.3
97117.2
97039.5
96957.6
96871.8
96782.4
97758.7
97708.2
97666.6
97629
97592
97553.4
97511.7
97466.2
97416.4
97362
97303
97239.2
97170.6
97097.2
97019.4
96937.4
96851.3
96761.8
97755.5
97700.8
97657
97619
97582
97543.3
97501.5
97455.9
97406
97351.5
97292.3
97228.4
97159.7
97086.2
97008.3
96926.2
96840
96750.3
97756.3
97698.9
97653.7
97615.3
97578.1
97539.3
97497.4
97451.8
97401.8
97347.3
97288.1
97224.1
97155.3
97081.8
97003.8
96921.6
96835.4
96745.6
96606.9
96613.6
96627.5
96648.7
96677.5
96713.8
96757.7
96809.3
96868.6
96935.4
97009.7
97091.4
97180.3
97276.1
97378.6
97487.2
97601.8
97721.7
97845.9
97973.3
98106.3
98242.4
98380.7
98520.6
98661.4
98802.3
98942.9
99082.5
99220.4
99355.8
99487.9
99615.5
99737.7
99853.7
99963
100065
100159
100244
100320
100388
100446
100494
100533
100563
100582
100593
100594
100588
100573
100551
100523
100489
100452
100411
100368
100325
100283
100242
100205
100173
100147
100130
100122
100124
100139
100168
100211
100270
100347
100442
100556
100690
100845
101022
101221
101442
101688
101957
102250
102566
102906
103269
103654
104061
104490
104940
105410
105897
106400
106919
107449
107987
108529
109074
109618
110155
110682
111193
111680
112139
112568
112965
113314
113612
113860
114059
114207
114302
114342
114335
114286
114199
114079
113931
113758
113560
113344
113115
112881
112649
112421
112203
112015
111826
111661
111494
111351
111237
111145
111079
111043
111036
111059
111108
111179
111259
111341
111421
111499
111574
111646
111714
111781
111837
111865
111859
111812
111726
111616
111502
111392
111294
111220
111185
111188
111219
111283
111382
111549
111797
112135
112558
113133
113763
114621
115359
115996
116889
117623
118493
119371
120293
121202
122052
122825
123439
123763
123755
123567
123150
96636
96642.6
96656.2
96677.2
96705.6
96741.4
96784.9
96835.9
96894.5
96960.7
97034.3
97115.4
97203.7
97298.9
97400.8
97508.9
97622.8
97741.9
97864.3
97991.4
98123.2
98258.4
98396
98535.1
98674.9
98814.3
98953.1
99090.9
99226.9
99360.4
99490.6
99616.5
99737.1
99851.7
99959.7
100060
100153
100237
100313
100380
100437
100485
100523
100551
100570
100580
100581
100573
100557
100535
100506
100472
100433
100392
100349
100305
100261
100220
100182
100149
100122
100104
100095
100096
100110
100137
100180
100238
100313
100406
100519
100651
100805
100979
101176
101396
101639
101906
102197
102511
102848
103207
103589
103993
104419
104867
105333
105817
106318
106832
107357
107891
108429
108970
109509
110041
110563
111072
111557
112011
112436
112826
113178
113478
113721
113915
114060
114151
114192
114187
114141
114057
113941
113798
113629
113435
113223
112999
112771
112546
112321
112103
111901
111737
111580
111420
111284
111176
111090
111030
110999
110996
111019
111066
111138
111222
111307
111390
111471
111550
111625
111693
111759
111816
111848
111851
111814
111737
111636
111531
111430
111340
111273
111245
111253
111287
111362
111467
111640
111884
112220
112637
113217
113832
114680
115359
115973
116870
117665
118505
119360
120281
121191
122045
122812
123402
123694
123667
123477
123033
96693.9
96700.4
96713.7
96734.1
96761.9
96797
96839.5
96889.5
96947
97011.9
97084.3
97164
97251
97345
97445.9
97553.1
97665
97780.5
97902.4
98028.9
98158.5
98290.4
98424.7
98561.1
98698.2
98835.1
98971.2
99105.9
99238.7
99368.8
99495.6
99618.2
99735.8
99847.7
99953.3
100052
100142
100225
100299
100364
100419
100466
100502
100529
100547
100555
100554
100544
100527
100503
100473
100437
100397
100354
100309
100264
100218
100175
100135
100101
100072
100052
100041
100040
100052
100077
100117
100172
100245
100336
100445
100574
100724
100896
101089
101304
101543
101806
102093
102402
102734
103086
103461
103860
104280
104720
105179
105655
106148
106655
107173
107700
108231
108763
109292
109815
110329
110831
111310
111757
112176
112560
112902
113194
113433
113624
113763
113852
113894
113893
113854
113777
113668
113533
113372
113188
112987
112775
112560
112347
112132
111927
111738
111579
111420
111271
111149
111055
110980
110931
110909
110913
110940
110990
111061
111146
111237
111326
111417
111503
111582
111651
111713
111772
111811
111829
111812
111752
111670
111587
111510
111441
111389
111376
111394
111434
111518
111631
111817
112082
112414
112825
113408
113943
114871
115413
115966
116823
117741
118550
119389
120290
121181
122033
122780
123320
123567
123516
123295
122806
96779.1
96785.5
96798.4
96818.1
96845
96879
96920.3
96969
97025
97088.3
97159.1
97237.3
97322.8
97415.5
97513.2
97617.4
97726.4
97840.5
97959.4
98082
98207.5
98335.7
98466.1
98597.9
98730.3
98862.5
98994.1
99124.6
99253
99378.9
99501.6
99620.3
99734.1
99842.6
99944.8
100040
100128
100207
100278
100340
100394
100437
100472
100496
100511
100517
100513
100501
100482
100456
100424
100386
100343
100298
100251
100202
100155
100109
100067
100029
99997.8
99974.6
99960.5
99956.8
99964.9
99986.6
100023
100075
100144
100230
100335
100460
100605
100771
100959
101170
101403
101660
101941
102245
102568
102911
103276
103666
104076
104506
104954
105420
105903
106398
106904
107418
107937
108457
108975
109486
109987
110476
110942
111380
111791
112164
112494
112776
113007
113189
113323
113414
113461
113470
113438
113371
113272
113145
112995
112827
112643
112450
112254
112059
111859
111673
111507
111346
111186
111055
110950
110871
110814
110779
110771
110788
110823
110877
110945
111035
111131
111229
111329
111427
111515
111585
111638
111688
111737
111777
111789
111753
111701
111646
111601
111569
111543
111556
111591
111644
111735
111863
112053
112360
112707
113120
113707
114210
115024
115575
116216
117064
117882
118632
119448
120307
121161
122000
122713
123185
123410
123327
123027
122485
96889.3
96895.6
96908
96927
96952.8
96985.6
97025.4
97072.4
97126.7
97188.3
97257.3
97333.3
97415.9
97505.1
97600.3
97701.1
97806.7
97916.5
98030.5
98148.2
98269
98392.2
98516.8
98642.7
98769.3
98896
99022.1
99147.1
99270.4
99391.4
99509.2
99623.1
99732.4
99836.3
99934
100025
100109
100184
100251
100310
100360
100400
100430
100451
100463
100464
100458
100444
100422
100392
100357
100316
100271
100222
100171
100120
100069
100020
99973.9
99932.9
99898.2
99871.1
99852.9
99845
99849
99866.6
99898.4
99945.5
100009
100091
100190
100310
100449
100608
100789
100992
101218
101468
101739
102036
102352
102686
103040
103416
103814
104231
104667
105121
105590
106071
106561
107059
107560
108063
108564
109060
109546
110015
110460
110888
111286
111645
111960
112230
112452
112626
112759
112853
112909
112926
112904
112849
112764
112651
112516
112365
112200
112031
111860
111685
111506
111337
111193
111035
110882
110765
110683
110610
110585
110567
110571
110607
110655
110719
110790
110883
110985
111089
111193
111297
111408
111486
111534
111572
111612
111685
111738
111726
111716
111700
111682
111696
111715
111761
111828
111905
112008
112158
112358
112674
113046
113503
114035
114588
115196
115810
116555
117325
118083
118762
119542
120348
121143
121941
122606
123007
123198
123071
122689
122072
97022.5
97028.5
97039.8
97058.1
97083.3
97115.3
97153
97198
97250.1
97309.3
97375.5
97447.9
97527.2
97612.9
97704.8
97801.8
97902.6
98006.9
98114.9
98226.3
98340.6
98457.2
98575.5
98694.9
98815.1
98935.5
99055.4
99174.4
99291.6
99406.5
99518.4
99626.4
99729.9
99828.1
99920.2
100006
100084
100155
100217
100271
100316
100351
100377
100393
100400
100398
100388
100370
100344
100312
100272
100228
100179
100126
100071
100016
99960.7
99907.4
99857.2
99811.8
99772.3
99740.4
99717.4
99704.7
99703.8
99715.9
99742.2
99783.7
99841.6
99916.8
100010
100123
100256
100409
100582
100776
100993
101232
101494
101779
102084
102409
102753
103116
103497
103899
104321
104760
105214
105680
106155
106633
107112
107591
108069
108544
109008
109454
109884
110291
110671
111012
111311
111566
111778
111951
112088
112186
112249
112271
112261
112221
112154
112060
111945
111813
111671
111522
111371
111216
111063
110912
110781
110644
110509
110409
110350
110285
110278
110299
110315
110369
110427
110499
110578
110669
110779
110888
110999
111117
111230
111336
111397
111432
111465
111549
111628
111661
111694
111735
111748
111797
111875
111965
112077
112197
112321
112491
112713
113012
113360
113834
114334
114946
115459
116055
116742
117554
118284
118936
119672
120411
121131
121862
122450
122789
122918
122751
122261
121571
97175.5
97180.5
97191.8
97208.9
97231.9
97261.4
97298.5
97341.9
97391.7
97447.9
97510.6
97579.4
97654.4
97736.4
97824.1
97915.9
98010.7
98108.7
98210.2
98314.8
98421.9
98531.1
98642.1
98754.3
98867.3
98980.5
99093.4
99205.3
99315.3
99423.2
99528
99629
99725.5
99816.9
99902.4
99981.5
100054
100118
100175
100223
100262
100292
100313
100324
100326
100319
100305
100282
100252
100214
100171
100122
100068
100011
99951.7
99891.4
99831.4
99773.1
99717.8
99667.1
99622.2
99584.6
99555.8
99537.3
99530.3
99536.2
99556.1
99591.1
99642.2
99710.5
99796.7
99901.8
100026
100171
100336
100522
100728
100956
101207
101481
101773
102084
102414
102762
103127
103511
103915
104337
104773
105220
105676
106136
106595
107050
107503
107952
108390
108811
109215
109598
109953
110271
110553
110797
111003
111177
111316
111416
111481
111512
111514
111489
111436
111361
111267
111157
111037
110909
110779
110650
110526
110403
110288
110179
110056
109994
109952
109927
109918
109972
110011
110070
110141
110206
110297
110398
110516
110640
110750
110907
111008
111127
111199
111248
111288
111362
111471
111539
111613
111708
111773
111854
111992
112140
112307
112476
112642
112838
113074
113389
113667
114086
114555
115186
115793
116281
116987
117772
118447
119098
119797
120462
121098
121747
122234
122514
122555
122317
121708
120996
97348.5
97353.4
97363.6
97379.5
97401.3
97429.1
97463.1
97503.4
97549.8
97602.4
97661
97725.9
97796.9
97873.6
97955.1
98040.3
98128.3
98219.5
98314.2
98411.5
98511.1
98612.8
98716
98820.4
98925.3
99030.4
99135.2
99239
99341
99440.6
99537.3
99630.2
99718.5
99802
99879.8
99951.2
100016
100073
100123
100165
100198
100222
100237
100241
100238
100226
100205
100177
100142
100099
100050
99996.4
99938
99876.1
99811.9
99746.5
99681.1
99617.3
99556.4
99499.8
99449
99405.2
99370
99344.9
99331.2
99330
99342.5
99370.1
99413.6
99474.1
99552.3
99648.8
99764.2
99899.5
100055
100231
100427
100643
100881
101142
101422
101719
102033
102364
102711
103076
103459
103860
104276
104701
105134
105572
106009
106442
106870
107293
107704
108098
108472
108825
109152
109450
109718
109954
110155
110322
110456
110556
110625
110665
110680
110667
110628
110571
110496
110404
110306
110203
110100
109999
109904
109811
109721
109631
109540
109521
109493
109521
109524
109572
109649
109696
109791
109851
109949
110079
110195
110341
110449
110601
110709
110829
110906
110962
111042
111113
111256
111362
111458
111610
111730
111857
112043
112256
112475
112691
112916
113158
113418
113808
113986
114411
114794
115335
116074
116571
117273
117892
118530
119191
119855
120457
121010
121545
121928
122143
122095
121772
121044
120316
97535.7
97540.3
97549.5
97563.9
97584
97610
97642.1
97679.5
97722.5
97771.4
97826.1
97886.7
97952.8
98023.1
98097.3
98174.8
98255.3
98339.2
98426.2
98515.8
98607.4
98700.7
98795.4
98891.1
98987.3
99083.5
99179.2
99273.8
99366.6
99457.1
99544.4
99627.9
99707.1
99781.3
99850
99912.4
99968.2
100017
100059
100094
100120
100138
100143
100142
100133
100115
100089
100055
100014
99965.4
99911.1
99851.6
99787.8
99720.6
99651.1
99580.3
99509.4
99439.7
99372.7
99309.9
99252.6
99202.1
99160.2
99128.3
99107.4
99098.8
99103.7
99123.1
99158.2
99209.9
99279.2
99366.8
99472.9
99597.9
99742.7
99908.2
100094
100297
100520
100766
101032
101315
101614
101927
102255
102600
102963
103342
103735
104137
104545
104957
105369
105777
106181
106577
106960
107326
107671
107996
108297
108576
108829
109050
109238
109396
109524
109625
109701
109750
109774
109770
109743
109699
109641
109572
109496
109421
109345
109270
109200
109138
109077
109016
108974
108983
108981
109023
109055
109088
109194
109256
109356
109429
109524
109667
109771
109934
110029
110168
110291
110429
110517
110576
110699
110781
110945
111115
111240
111422
111605
111791
112020
112283
112541
112803
113094
113394
113734
114140
114353
114792
115116
115492
116224
116762
117347
117990
118591
119201
119803
120352
120843
121250
121523
121656
121527
121127
120279
119519
97735.9
97740.2
97748.5
97761.6
97779.9
97803.2
97832.2
97867
97906.9
97951.8
98002.1
98057.7
98117.7
98181.2
98247.9
98317.7
98390.6
98466.6
98545.4
98626.3
98709.1
98793.3
98878.7
98964.8
99051.3
99137.6
99223.1
99307.4
99389.8
99469.8
99546.8
99620
99688.7
99752.3
99810.6
99863.2
99909.7
99949.6
99981.9
100007
100024
100030
100032
100026
100010
99986.8
99954.7
99914.6
99866.9
99812.3
99751.6
99685.8
99616
99543.1
99468
99391.6
99314.8
99239.1
99165.8
99096.5
99032.6
98975.3
98926.3
98887
98858.9
98843
98840.4
98851.9
98878.5
98921
98980.5
99058.1
99154.4
99268.9
99402.3
99556.3
99730.4
99921.9
100131
100360
100610
100877
101159
101455
101765
102090
102431
102788
103157
103533
103915
104302
104688
105070
105447
105816
106171
106508
106825
107123
107399
107653
107885
108087
108260
108413
108537
108641
108719
108768
108792
108792
108774
108739
108699
108655
108608
108559
108511
108467
108424
108393
108359
108345
108326
108342
108365
108416
108481
108522
108640
108737
108826
108916
109017
109168
109263
109416
109520
109639
109770
109924
110050
110113
110235
110351
110520
110756
110927
111144
111381
111631
111904
112221
112527
112798
113153
113479
113898
114382
114620
115080
115421
115668
116293
116824
117389
118010
118571
119099
119651
120137
120575
120882
121030
121060
120844
120344
119451
118636
97945.3
97949.5
97957.1
97969.1
97985.8
98007.3
98033.7
98064.6
98100.3
98140.7
98185.7
98235.1
98288.2
98344.3
98403.5
98465.5
98530.4
98598.3
98668.5
98740.5
98814
98888.4
98963.6
99039.3
99115
99190.4
99264.8
99337.7
99408.6
99477.2
99542.7
99604.4
99661.6
99714
99761.4
99803.5
99840
99869.9
99892.7
99908
99914.5
99916.6
99910.8
99896.4
99873.6
99842.4
99803.1
99755.8
99701
99639.5
99572
99499.4
99422.8
99343.3
99262.2
99179.9
99097.3
99015.5
98935.9
98860
98789.2
98725
98668.9
98622.5
98587
98563.7
98553.6
98557.2
98575.6
98609.6
98659.8
98727.1
98812.9
98916.8
99038.4
99179.6
99341.2
99520.9
99715.8
99928.7
100162
100412
100677
100955
101247
101552
101872
102205
102549
102901
103257
103615
103973
104330
104680
105021
105347
105656
105945
106217
106466
106694
106902
107089
107254
107397
107515
107615
107688
107728
107749
107753
107745
107726
107704
107682
107663
107640
107614
107598
107587
107576
107574
107587
107586
107611
107654
107716
107807
107879
107993
108122
108198
108310
108425
108582
108675
108813
108921
109020
109136
109270
109433
109537
109648
109795
109994
110259
110506
110766
111032
111353
111686
112046
112439
112705
113064
113437
113877
114417
114754
115094
115533
115775
116316
116818
117339
117871
118353
118884
119402
119818
120170
120390
120426
120342
120052
119454
118552
117668
98159.5
98162.6
98169.5
98180.4
98195.5
98214.7
98237.9
98265.6
98297.2
98332.7
98372.1
98414.9
98460.8
98509.5
98561
98615.1
98671.9
98731.1
98792
98854.4
98918
98982.3
99046.9
99111.6
99175.9
99239.6
99301.9
99362.5
99421.1
99477.3
99530.5
99580
99625.1
99665.5
99701.5
99732.8
99758.7
99778.6
99791.9
99798.3
99798.1
99790.8
99775.6
99752.3
99720.8
99681.2
99633.8
99578.8
99516.5
99447.4
99372.5
99292.7
99209
99122.7
99035
98946.5
98857.8
98769.8
98683.8
98601.4
98524
98453.2
98390.3
98336.9
98294.4
98264
98246.3
98242.2
98252.3
98277.6
98318.9
98376.3
98451.5
98545.1
98655.7
98784
98931.8
99100
99281
99478.2
99694.1
99926.9
100174
100433
100706
100992
101291
101600
101919
102244
102573
102905
103237
103566
103889
104201
104499
104779
105041
105287
105513
105719
105907
106075
106226
106356
106463
106551
106616
106653
106672
106680
106681
106681
106679
106674
106677
106682
106679
106681
106699
106712
106725
106749
106789
106844
106904
106961
107051
107149
107259
107397
107480
107603
107733
107871
107965
108081
108188
108284
108400
108502
108664
108832
108952
109108
109339
109625
109954
110263
110571
110931
111312
111759
112222
112471
112782
113249
113717
114231
114673
114917
115403
115728
116229
116688
117109
117661
118047
118537
119011
119384
119640
119755
119690
119500
119152
118525
117577
116634
98372.5
98375.2
98381.3
98390.9
98404.1
98420.9
98441.3
98465.3
98492.5
98522.9
98556.4
98592.9
98631.9
98673.2
98717.1
98763.2
98811.6
98861.8
98913.4
98965.9
99019
99072.3
99125.7
99178.6
99230.8
99281.9
99331.5
99379.2
99424.8
99468
99508.2
99544.9
99577.5
99605.9
99630.1
99649.9
99664.6
99674
99677.7
99675.1
99665.6
99648.7
99623.9
99591.2
99550.4
99501.8
99445.5
99382
99311.6
99234.7
99152.3
99065.4
98974.9
98881.7
98787
98691.8
98596.6
98502.4
98410.5
98322
98238.3
98161.2
98092.2
98032.6
97983.4
97945.9
97920.9
97909.4
97911.8
97928.6
97961
98009.2
98073.8
98156.6
98256.7
98372.8
98506.3
98664
98830.5
99013
99212.8
99428.7
99657.2
99897.6
100150
100414
100692
100979
101273
101573
101876
102183
102488
102791
103086
103370
103640
103892
104126
104346
104551
104739
104909
105057
105189
105303
105399
105473
105527
105560
105577
105588
105595
105610
105631
105641
105653
105683
105707
105725
105757
105801
105834
105870
105930
106001
106081
106148
106236
106338
106449
106579
106670
106798
106934
107040
107137
107235
107339
107432
107553
107652
107801
107994
108153
108315
108558
108853
109239
109607
109978
110365
110770
111284
111827
112129
112410
112904
113384
113893
114384
114698
115138
115541
116000
116380
116777
117279
117621
118011
118431
118813
119010
119029
118849
118554
118137
117501
116574
115610
98579.4
98581.6
98587
98595.2
98606.6
98621
98638.2
98658.2
98681.1
98706.6
98734.4
98764.6
98797
98831.2
98867.4
98905.5
98945.2
98986.2
99028
99070.3
99112.8
99155.1
99196.8
99237.6
99277.2
99315.3
99351.6
99386
99418.1
99447.8
99474.6
99498.1
99518
99534
99546.1
99554.1
99557.5
99555.9
99548.8
99535.4
99515
99487.3
99452
99409.2
99358.8
99300.9
99235.7
99163.7
99085.2
99000.7
98910.9
98816.7
98719.5
98619.9
98518.6
98416.6
98314.9
98214.7
98117
98022.7
97933.3
97850.7
97776.3
97711.2
97655.9
97611.8
97579.9
97560.9
97556.2
97565.4
97589.6
97629.4
97684.5
97756.8
97846.7
97952
98073.8
98215.9
98370.2
98538.5
98723.4
98923.5
99134.4
99355.1
99586.9
99830.2
100086
100350
100621
100897
101176
101457
101737
102013
102281
102539
102782
103007
103215
103408
103590
103758
103908
104039
104155
104254
104336
104395
104434
104459
104478
104501
104518
104536
104569
104599
104624
104660
104704
104747
104781
104831
104900
104959
105018
105092
105180
105274
105371
105474
105582
105687
105781
105905
106026
106108
106205
106294
106382
106468
106576
106685
106832
107030
107230
107415
107664
107950
108361
108785
109220
109646
110090
110605
111218
111702
112036
112481
112915
113398
113931
114342
114740
115208
115608
115922
116289
116747
117009
117352
117673
118060
118204
118128
117873
117486
117003
116375
115529
114590
98775.6
98777.4
98782
98789
98798.5
98810.3
98824.4
98840.5
98858.8
98879.1
98901.6
98925.8
98951.5
98978.7
99007.2
99037
99067.8
99099.3
99131.2
99163
99194.5
99225.4
99255.4
99284.1
99311.2
99336.3
99359.4
99380.3
99398.7
99414.6
99427.7
99437.5
99443.9
99446.9
99446.2
99441.8
99433.1
99419.6
99400.5
99375.1
99343
99304
99257.9
99204.7
99144.6
99077.6
99003.5
98923
98836.7
98744.9
98648
98547
98443.3
98337.6
98230.4
98122.1
98014.2
97908.4
97805.5
97706.1
97611.5
97523.9
97444.7
97374.7
97314.4
97264.4
97226.1
97200.4
97188.6
97191
97207.7
97239.8
97286.9
97349.6
97429.5
97525.3
97634.1
97762.9
97905.4
98060.3
98230.5
98415.2
98609.8
98812.1
99024.3
99247.7
99482.3
99725.3
99972.9
100224
100480
100738
100992
101243
101484
101715
101933
102134
102318
102487
102644
102787
102915
103028
103128
103212
103278
103322
103351
103376
103398
103429
103454
103476
103509
103552
103596
103634
103685
103748
103801
103851
103921
104001
104080
104166
104254
104350
104446
104548
104645
104727
104824
104933
105018
105080
105169
105238
105299
105383
105487
105599
105750
105953
106177
106395
106651
106940
107348
107809
108295
108776
109265
109788
110407
111040
111479
111907
112317
112762
113300
113759
114153
114647
114990
115288
115655
116063
116240
116533
116760
117091
117148
116958
116700
116276
115742
115150
114365
113457
98955.9
98957.5
98961.4
98967.1
98974.8
98984.2
98995.4
99008.1
99022
99037.5
99054.5
99072.6
99091.8
99111.8
99132.5
99153.8
99175.6
99197.4
99219.2
99240.5
99260.5
99280
99298.1
99314.6
99329.1
99341.5
99351.5
99359
99363.5
99365.5
99364.6
99360.4
99353
99342.3
99328.3
99310.9
99289.3
99262.7
99230.7
99192.6
99148.4
99098
99041.1
98977.6
98907.9
98832
98749.6
98660.8
98566.7
98468.1
98364.8
98257.3
98147.3
98035.6
97922.7
97808.7
97695.4
97584.8
97477.5
97373.9
97275.3
97183.7
97100.4
97026.2
96961.4
96906.4
96862.4
96831
96812.8
96808.9
96819.1
96843.9
96883.8
96938.3
97008.5
97094.3
97193
97309.2
97440.1
97582.3
97738.1
97907.9
98087.8
98274.2
98468.5
98672.9
98887.8
99110.7
99337.3
99567.7
99799.3
100033
100263
100488
100704
100909
101101
101278
101439
101588
101722
101843
101949
102042
102123
102189
102239
102270
102298
102325
102346
102374
102403
102434
102465
102509
102566
102617
102670
102733
102800
102871
102945
103025
103116
103213
103298
103387
103477
103569
103646
103714
103803
103887
103938
103985
104047
104077
104127
104200
104304
104424
104579
104773
105005
105252
105514
105835
106233
106703
107223
107759
108281
108822
109430
110074
110593
111064
111520
111956
112479
112982
113406
113819
114108
114463
114879
115162
115306
115496
115667
115917
115909
115646
115390
114961
114373
113803
113073
112165
99116
99117.2
99120.4
99125.1
99131.3
99138.3
99147.2
99157.3
99167.2
99178
99189.4
99201.4
99213.9
99226.7
99239.6
99252.4
99265
99277.2
99288.6
99299
99308.2
99316
99322.1
99326.2
99328
99327.3
99324.1
99318
99309
99297.1
99282
99263.7
99242.2
99217.6
99190
99159.3
99123.8
99083.7
99038.7
98987.9
98931.5
98870.1
98803
98729.7
98650.3
98565.5
98474.9
98378.1
98276.5
98171
98061.5
97948.3
97832.7
97715.5
97596.8
97477.6
97360.2
97246
97135.1
97028.1
96926.4
96831.9
96745.6
96668.1
96599.4
96540.3
96491.9
96455.8
96432.6
96423.3
96427.8
96446
96478.8
96526.2
96587.8
96665.6
96755.6
96860.5
96980.2
97111
97252.7
97408.4
97574.4
97745.7
97922.7
98108.9
98304.9
98508.9
98716.5
98927.5
99138.4
99348.2
99556
99755.1
99948.3
100128
100295
100447
100586
100714
100830
100931
101019
101096
101158
101205
101239
101262
101283
101306
101326
101350
101383
101421
101451
101492
101550
101611
101675
101738
101801
101879
101967
102053
102146
102237
102318
102404
102484
102556
102606
102665
102734
102782
102801
102828
102847
102840
102899
102964
103045
103172
103327
103505
103744
104007
104279
104641
105032
105492
106029
106596
107136
107695
108288
108915
109476
109988
110510
110957
111466
112034
112475
112787
113058
113457
113925
114100
114215
114296
114401
114543
114548
114295
114015
113551
112918
112364
111716
110832
99250.8
99251.8
99254.3
99258.5
99263.6
99269.7
99276
99282.7
99289.5
99296.3
99302.7
99308.9
99314.7
99320.1
99325
99329.2
99332.7
99335.1
99336.2
99335.9
99333.9
99330.1
99324.3
99315.8
99304.9
99291.2
99274.6
99255
99232.3
99206.6
99177.7
99145.7
99109.9
99071.4
99029.9
98985.3
98936.3
98882.6
98824.8
98762
98693.8
98621.7
98544.2
98460.9
98372
98278.2
98179.5
98075.1
97966.2
97854
97738.4
97619.8
97498.6
97376.1
97252.9
97130.5
97010.7
96894.1
96781
96671.7
96568
96471.3
96382.8
96302.8
96231.2
96169.1
96117.6
96077.8
96050.9
96037
96036.8
96050
96076.5
96117.6
96171.5
96240.9
96323.6
96418.7
96528
96649.1
96778.6
96920.6
97073.4
97231.1
97392.8
97562.5
97741.4
97928.1
98117.4
98310.3
98501.3
98688.5
98874.5
99051
99221.1
99379
99522.2
99652.1
99769.1
99875.9
99972.4
100056
100127
100188
100233
100263
100285
100300
100313
100329
100346
100366
100398
100436
100463
100505
100564
100624
100692
100760
100829
100908
100996
101085
101179
101258
101333
101408
101471
101513
101543
101588
101624
101630
101612
101608
101585
101570
101627
101673
101724
101847
101993
102161
102408
102677
102972
103354
103738
104189
104730
105291
105848
106422
106993
107628
108230
108761
109320
109796
110289
110911
111339
111619
111920
112302
112764
112845
112936
112950
112969
112978
113015
112802
112499
112006
111395
110869
110322
109523
99337.6
99339.3
99342.9
99347.6
99352.8
99358.1
99362.9
99367.4
99371.3
99374.7
99377.2
99378.8
99379.2
99378.5
99376.6
99373.3
99368.8
99362.8
99355.2
99345.7
99334
99320
99303.5
99284.9
99263.4
99239.1
99211.8
99180.5
99145.7
99108
99066.7
99022.3
98976.1
98926.1
98872.6
98816.3
98756
98691.2
98622.9
98550.3
98472.4
98390
98303.4
98211.7
98114.8
98013.4
97907.4
97796.2
97681
97563.1
97442.5
97319.5
97194.5
97068.7
96943.1
96818.9
96697.7
96579.5
96465.1
96355
96250.4
96152.6
96062.3
95980.2
95906.8
95842.8
95789.5
95747.4
95717.9
95700.9
95696.6
95706.3
95727.3
95763.9
95813
95875.2
95951.4
96038.8
96138.8
96251.6
96372.2
96502.4
96644.2
96791.8
96941.6
97097.1
97261
97433.3
97610.6
97784.3
97957.7
98125.6
98291.9
98450.6
98600
98739.1
98863.2
98974.5
99072.8
99160.3
99237.4
99304.6
99359.2
99402.8
99432.9
99449.3
99459.6
99466.4
99475.7
99484.7
99497.9
99510.6
99538.8
99569.5
99591.2
99641.7
99699.5
99754.2
99818.1
99884.4
99957.7
100043
100129
100214
100292
100356
100420
100478
100517
100530
100548
100566
100558
100524
100474
100436
100386
100374
100396
100401
100442
100553
100679
100843
101085
101346
101674
102044
102415
102871
103391
103926
104498
105075
105628
106259
106889
107441
108017
108539
109012
109648
110074
110364
110713
111015
111408
111429
111474
111500
111406
111292
111307
111128
110824
110394
109855
109369
108898
108193
99387.5
99391
99395.6
99402.2
99408.6
99414.2
99418.4
99421.6
99423.5
99424.4