/*--------------------------------*- C++ -*----------------------------------*\
| =========                 |                                                 |
| \\      /  F ield         | OpenFOAM: The Open Source CFD Toolbox           |
|  \\    /   O peration     | Version:  dev                                   |
|   \\  /    A nd           | Web:      http://www.openfoam.org               |
|    \\/     M anipulation  |                                                 |
\*---------------------------------------------------------------------------*/
FoamFile
{
    version     2.0;
    format      ascii;
    class       surfaceScalarField;
    object      phi_0;
    location    "9.157";
}
// * * * * * * * * * * * * * * * * * * * * * * * * * * * * * * * * * * * * * //

dimensions      [1 0 -1 0 0 0 0];

internalField   nonuniform List<scalar> 
24170
(
2.34043e-06
7.98946e-07
1.74343e-06
2.47942e-07
1.64046e-06
-2.22817e-07
1.76108e-06
-4.27946e-07
1.95334e-06
-4.79837e-07
2.16993e-06
-4.89145e-07
2.35099e-06
-4.36028e-07
2.68395e-06
-5.75366e-07
2.86877e-06
-4.12291e-07
3.28552e-06
-6.34205e-07
3.52782e-06
-4.48869e-07
4.07543e-06
-7.47676e-07
4.44617e-06
-5.64856e-07
5.36249e-06
-1.10758e-06
5.44032e-06
-2.69821e-07
7.23337e-06
-1.97975e-06
9.58548e-06
-2.5583e-06
-6.32445e-06
1.57625e-05
4.12449e-06
3.25548e-07
3.74431e-06
2.62897e-07
3.58536e-06
-4.04273e-07
3.48343e-06
-6.46608e-07
3.56657e-06
-8.65399e-07
3.60278e-06
-8.09503e-07
3.79151e-06
-8.92944e-07
4.06921e-06
-1.10433e-06
4.29654e-06
-8.7863e-07
4.69983e-06
-1.26086e-06
5.08813e-06
-1.05363e-06
5.71683e-06
-1.58076e-06
6.19148e-06
-1.2408e-06
7.21277e-06
-2.32569e-06
7.73843e-06
-9.91683e-07
9.74644e-06
-4.18446e-06
1.11468e-05
-4.17664e-06
-9.51058e-06
1.42502e-05
4.84867e-06
-5.77556e-07
4.98427e-06
-2.69701e-07
5.15435e-06
-9.46027e-07
5.2007e-06
-1.04199e-06
5.28907e-06
-1.28407e-06
5.35431e-06
-1.18372e-06
5.512e-06
-1.34417e-06
5.7851e-06
-1.65067e-06
5.97545e-06
-1.33144e-06
6.66296e-06
-2.19266e-06
6.80084e-06
-1.42881e-06
7.78559e-06
-2.79138e-06
7.85422e-06
-1.52684e-06
9.02046e-06
-3.71035e-06
9.2121e-06
-1.3961e-06
1.04503e-05
-5.63797e-06
1.03618e-05
-4.32168e-06
-1.42171e-05
1.49543e-05
5.22242e-06
-1.38979e-06
6.00628e-06
-1.48489e-06
6.28878e-06
-1.63382e-06
6.74479e-06
-1.87728e-06
6.80672e-06
-1.70561e-06
7.40417e-06
-2.11595e-06
7.35849e-06
-1.61729e-06
7.93523e-06
-2.52333e-06
7.921e-06
-1.60067e-06
8.56122e-06
-3.09821e-06
8.51373e-06
-1.63909e-06
9.28741e-06
-3.81092e-06
9.37361e-06
-1.85025e-06
1.02781e-05
-4.8489e-06
1.05706e-05
-1.92983e-06
1.17401e-05
-7.04499e-06
1.12864e-05
-4.15597e-06
-1.65667e-05
1.34297e-05
5.55465e-06
-2.00974e-06
6.76243e-06
-3.15829e-06
6.92669e-06
-2.23653e-06
7.83925e-06
-3.19986e-06
7.78983e-06
-2.04447e-06
8.65066e-06
-3.33914e-06
8.58278e-06
-1.89311e-06
9.25635e-06
-3.51696e-06
9.29165e-06
-1.9403e-06
9.88752e-06
-3.97975e-06
9.93314e-06
-1.96159e-06
1.047e-05
-4.61163e-06
1.07035e-05
-2.33972e-06
1.14115e-05
-5.80913e-06
1.19852e-05
-2.75205e-06
1.25737e-05
-7.87889e-06
1.25923e-05
-4.47921e-06
-1.57526e-05
1.14659e-05
5.99388e-06
-2.42203e-06
6.99182e-06
-4.65665e-06
7.11913e-06
-2.83216e-06
8.06458e-06
-4.58685e-06
8.07253e-06
-2.46716e-06
8.87357e-06
-4.53084e-06
9.02798e-06
-2.41509e-06
9.70902e-06
-4.54095e-06
9.98967e-06
-2.54575e-06
1.05681e-05
-4.86713e-06
1.0902e-05
-2.58864e-06
1.14313e-05
-5.42274e-06
1.20182e-05
-3.19655e-06
1.24542e-05
-6.51476e-06
1.33914e-05
-3.94921e-06
1.34391e-05
-8.18043e-06
1.44361e-05
-5.73346e-06
-1.24696e-05
1.08513e-05
6.70642e-06
-3.42867e-06
7.5383e-06
-6.01991e-06
7.78899e-06
-3.57745e-06
8.6792e-06
-5.94473e-06
8.87696e-06
-3.10286e-06
9.60673e-06
-5.6722e-06
9.88819e-06
-3.08268e-06
1.05582e-05
-5.57399e-06
1.09282e-05
-3.25706e-06
1.14514e-05
-5.71759e-06
1.20664e-05
-3.50966e-06
1.24585e-05
-6.11036e-06
1.32338e-05
-4.25517e-06
1.34651e-05
-7.02495e-06
1.44252e-05
-5.18192e-06
1.40757e-05
-8.10342e-06
1.49119e-05
-6.82479e-06
-1.03802e-05
1.25476e-05
5.32751e-06
-4.1892e-06
6.04611e-06
-7.13395e-06
6.26033e-06
-4.16052e-06
6.81431e-06
-6.84627e-06
7.05445e-06
-3.66849e-06
7.48791e-06
-6.41029e-06
7.7842e-06
-3.66386e-06
8.13001e-06
-6.18809e-06
8.56348e-06
-3.94423e-06
8.83838e-06
-6.23219e-06
9.39551e-06
-4.29273e-06
9.59168e-06
-6.52433e-06
1.01741e-05
-5.04813e-06
1.02078e-05
-7.26255e-06
1.08291e-05
-6.00192e-06
1.06045e-05
-8.08065e-06
1.10378e-05
-7.45641e-06
-9.49123e-06
9.95364e-06
6.2667e-06
-5.18192e-06
6.86869e-06
-8.17136e-06
7.24486e-06
-4.94321e-06
7.76887e-06
-7.75374e-06
8.26266e-06
-4.52076e-06
8.66048e-06
-7.14404e-06
9.20646e-06
-4.52284e-06
9.49578e-06
-6.77128e-06
1.00686e-05
-4.79423e-06
1.0331e-05
-6.75752e-06
1.0931e-05
-5.13937e-06
1.11084e-05
-6.93915e-06
1.17072e-05
-5.87661e-06
1.17235e-05
-7.50279e-06
1.23047e-05
-6.79948e-06
1.21709e-05
-8.16489e-06
1.25147e-05
-8.01672e-06
-9.01321e-06
1.18214e-05
7.41055e-06
-6.03954e-06
7.96328e-06
-9.19401e-06
8.53321e-06
-5.95137e-06
8.9308e-06
-8.56297e-06
9.65643e-06
-5.63101e-06
9.99736e-06
-7.84454e-06
1.06713e-05
-5.53293e-06
1.09522e-05
-7.36502e-06
1.16118e-05
-5.74923e-06
1.18541e-05
-7.27848e-06
1.25372e-05
-6.08486e-06
1.27331e-05
-7.38603e-06
1.33632e-05
-6.75046e-06
1.34638e-05
-7.83957e-06
1.39638e-05
-7.52898e-06
1.38532e-05
-8.28298e-06
1.41158e-05
-8.50831e-06
-8.82414e-06
1.3702e-05
8.59033e-06
-7.40967e-06
9.17483e-06
-1.02678e-05
1.00559e-05
-7.28787e-06
1.03616e-05
-9.29698e-06
1.11992e-05
-6.86676e-06
1.14666e-05
-8.48281e-06
1.22842e-05
-6.6966e-06
1.26096e-05
-8.01296e-06
1.34053e-05
-6.84631e-06
1.3748e-05
-7.90488e-06
1.44851e-05
-7.09024e-06
1.4744e-05
-7.89956e-06
1.53078e-05
-7.56121e-06
1.53756e-05
-8.14741e-06
1.57692e-05
-8.15457e-06
1.57425e-05
-8.48671e-06
1.58106e-05
-8.80743e-06
-8.90138e-06
1.56605e-05
1.0279e-05
-8.79507e-06
1.07638e-05
-1.12336e-05
1.17893e-05
-8.75937e-06
1.20725e-05
-9.99901e-06
1.30701e-05
-8.2518e-06
1.34116e-05
-9.18438e-06
1.43337e-05
-7.95219e-06
1.46999e-05
-8.68783e-06
1.55114e-05
-7.94631e-06
1.585e-05
-8.5138e-06
1.65573e-05
-8.04962e-06
1.6861e-05
-8.44336e-06
1.73903e-05
-8.32283e-06
1.75857e-05
-8.56781e-06
1.79175e-05
-8.705e-06
1.80378e-05
-8.82179e-06
1.80092e-05
-8.99521e-06
-9.02405e-06
1.79198e-05
1.2083e-05
-1.03945e-05
1.24446e-05
-1.20256e-05
1.34529e-05
-1.01582e-05
1.37927e-05
-1.07049e-05
1.48642e-05
-9.65777e-06
1.53584e-05
-9.98611e-06
1.6354e-05
-9.22962e-06
1.68329e-05
-9.42587e-06
1.76498e-05
-9.00176e-06
1.80987e-05
-9.18667e-06
1.87841e-05
-8.94461e-06
1.91916e-05
-9.04439e-06
1.97287e-05
-9.04597e-06
2.00476e-05
-9.07038e-06
2.02966e-05
-9.13118e-06
2.04474e-05
-9.14559e-06
2.04307e-05
-9.15374e-06
-9.09782e-06
2.03291e-05
1.37938e-05
-1.20084e-05
1.4506e-05
-1.30476e-05
1.57242e-05
-1.16392e-05
1.62345e-05
-1.14566e-05
1.71817e-05
-1.08202e-05
1.7724e-05
-1.07202e-05
1.86211e-05
-1.02953e-05
1.92176e-05
-1.01722e-05
2.00061e-05
-9.92451e-06
2.05321e-05
-9.83497e-06
2.11647e-05
-9.68978e-06
2.16219e-05
-9.60491e-06
2.20616e-05
-9.58311e-06
2.24027e-05
-9.50815e-06
2.2626e-05
-9.44995e-06
2.27684e-05
-9.38304e-06
2.27942e-05
-9.27648e-06
-9.13674e-06
2.27314e-05
1.59189e-05
-1.28055e-05
1.66041e-05
-1.37934e-05
1.78083e-05
-1.28621e-05
1.86773e-05
-1.23325e-05
1.97313e-05
-1.18657e-05
2.05814e-05
-1.15476e-05
2.15438e-05
-1.12225e-05
2.23739e-05
-1.0957e-05
2.31999e-05
-1.06972e-05
2.3901e-05
-1.0479e-05
2.4547e-05
-1.02777e-05
2.50966e-05
-1.00944e-05
2.5491e-05
-9.91723e-06
2.57866e-05
-9.74917e-06
2.5983e-05
-9.59729e-06
2.61236e-05
-9.4812e-06
2.61796e-05
-9.29807e-06
-9.1071e-06
2.61733e-05
1.85476e-05
-1.35778e-05
1.95948e-05
-1.44525e-05
2.08294e-05
-1.36906e-05
2.20475e-05
-1.31576e-05
2.32539e-05
-1.26857e-05
2.42938e-05
-1.22049e-05
2.52061e-05
-1.17566e-05
2.59852e-05
-1.13651e-05
2.66796e-05
-1.10303e-05
2.72947e-05
-1.07443e-05
2.78545e-05
-1.0502e-05
2.83652e-05
-1.02836e-05
2.88184e-05
-1.00616e-05
2.92067e-05
-9.84247e-06
2.9506e-05
-9.61858e-06
2.96895e-05
-9.40446e-06
2.98124e-05
-9.176e-06
-8.92343e-06
2.98548e-05
2.18027e-05
-1.3755e-05
2.30903e-05
-1.46464e-05
2.44116e-05
-1.39381e-05
2.5661e-05
-1.33841e-05
2.68306e-05
-1.28756e-05
2.79483e-05
-1.23803e-05
2.89962e-05
-1.18978e-05
2.99625e-05
-1.146e-05
3.08353e-05
-1.10683e-05
3.16065e-05
-1.07158e-05
3.22618e-05
-1.03943e-05
3.27984e-05
-1.00944e-05
3.32365e-05
-9.81142e-06
3.3592e-05
-9.54467e-06
3.38672e-05
-9.27495e-06
3.40564e-05
-9.01006e-06
3.41703e-05
-8.74073e-06
-8.46444e-06
3.42279e-05
2.16455e-05
-1.31911e-05
2.3147e-05
-1.43613e-05
2.45304e-05
-1.3587e-05
2.57756e-05
-1.29874e-05
2.68845e-05
-1.24243e-05
2.7871e-05
-1.18788e-05
2.87681e-05
-1.13771e-05
2.95981e-05
-1.09387e-05
3.03839e-05
-1.05696e-05
3.11325e-05
-1.02443e-05
3.18283e-05
-9.93118e-06
3.24576e-05
-9.62295e-06
3.29914e-05
-9.30338e-06
3.34092e-05
-8.97749e-06
3.37418e-05
-8.67554e-06
3.39869e-05
-8.37539e-06
3.4158e-05
-8.08257e-06
-7.77198e-06
3.42487e-05
1.95253e-05
-1.23619e-05
2.06077e-05
-1.33284e-05
2.16492e-05
-1.25699e-05
2.26594e-05
-1.2049e-05
2.3659e-05
-1.15814e-05
2.46295e-05
-1.11015e-05
2.55378e-05
-1.06289e-05
2.63507e-05
-1.01799e-05
2.7042e-05
-9.7714e-06
2.76112e-05
-9.4044e-06
2.80874e-05
-9.07369e-06
2.85008e-05
-8.77602e-06
2.88821e-05
-8.49223e-06
2.92471e-05
-8.2158e-06
2.95593e-05
-7.92393e-06
2.98406e-05
-7.65144e-06
3.00819e-05
-7.37665e-06
-7.06946e-06
3.02729e-05
1.73151e-05
-1.13928e-05
1.84067e-05
-1.21543e-05
1.943e-05
-1.13942e-05
2.03191e-05
-1.08519e-05
2.10883e-05
-1.03816e-05
2.1817e-05
-9.96656e-06
2.25205e-05
-9.57307e-06
2.31984e-05
-9.1967e-06
2.38254e-05
-8.82847e-06
2.43782e-05
-8.47612e-06
2.48568e-05
-8.15194e-06
2.5262e-05
-7.85916e-06
2.56007e-05
-7.58261e-06
2.589e-05
-7.32759e-06
2.61618e-05
-7.08412e-06
2.63906e-05
-6.83085e-06
2.65779e-05
-6.57498e-06
-6.30556e-06
2.67473e-05
1.53848e-05
-9.84497e-06
1.62235e-05
-1.0701e-05
1.72117e-05
-1.01734e-05
1.81624e-05
-9.70285e-06
1.90012e-05
-9.23779e-06
1.97302e-05
-8.82023e-06
2.03914e-05
-8.46452e-06
2.09918e-05
-8.13154e-06
2.15471e-05
-7.81216e-06
2.20485e-05
-7.49929e-06
2.24967e-05
-7.20543e-06
2.28704e-05
-6.91801e-06
2.31818e-05
-6.65354e-06
2.34251e-05
-6.39999e-06
2.36084e-05
-6.16506e-06
2.37468e-05
-5.92817e-06
2.38439e-05
-5.69164e-06
-5.46495e-06
2.3928e-05
1.37668e-05
-8.75486e-06
1.46587e-05
-9.36246e-06
1.55068e-05
-8.87803e-06
1.62899e-05
-8.4521e-06
1.69971e-05
-8.02298e-06
1.76324e-05
-7.64034e-06
1.82181e-05
-7.33721e-06
1.87461e-05
-7.04842e-06
1.92115e-05
-6.75942e-06
1.96157e-05
-6.47684e-06
1.9957e-05
-6.20373e-06
2.02445e-05
-5.9407e-06
2.04928e-05
-5.71111e-06
2.0715e-05
-5.49784e-06
2.09022e-05
-5.29347e-06
2.10711e-05
-5.09781e-06
2.12043e-05
-4.88315e-06
-4.70016e-06
2.13274e-05
1.24491e-05
-7.03304e-06
1.30595e-05
-7.86862e-06
1.38488e-05
-7.63853e-06
1.46027e-05
-7.28353e-06
1.52613e-05
-6.86383e-06
1.58333e-05
-6.4977e-06
1.63349e-05
-6.22296e-06
1.67989e-05
-5.99161e-06
1.72315e-05
-5.76187e-06
1.76218e-05
-5.52144e-06
1.79618e-05
-5.27886e-06
1.8255e-05
-5.04357e-06
1.85053e-05
-4.84149e-06
1.87078e-05
-4.64615e-06
1.88681e-05
-4.46061e-06
1.89907e-05
-4.2847e-06
1.91017e-05
-4.11176e-06
-3.95895e-06
1.9192e-05
1.12954e-05
-5.65377e-06
1.18519e-05
-6.47408e-06
1.24909e-05
-6.39302e-06
1.31296e-05
-6.13645e-06
1.37585e-05
-5.80458e-06
1.43431e-05
-5.48895e-06
1.48539e-05
-5.23375e-06
1.52793e-05
-5.00552e-06
1.56306e-05
-4.78711e-06
1.59207e-05
-4.56509e-06
1.61696e-05
-4.35648e-06
1.63872e-05
-4.15956e-06
1.65722e-05
-3.98967e-06
1.67331e-05
-3.83133e-06
1.68811e-05
-3.68946e-06
1.69946e-05
-3.53293e-06
1.71097e-05
-3.41088e-06
-3.27663e-06
1.71958e-05
9.89601e-06
-4.76697e-06
1.07569e-05
-5.54766e-06
1.14992e-05
-5.40925e-06
1.20948e-05
-5.0942e-06
1.25898e-05
-4.75102e-06
1.30042e-05
-4.44237e-06
1.33475e-05
-4.20174e-06
1.36438e-05
-4.00837e-06
1.39102e-05
-3.83835e-06
1.41596e-05
-3.67306e-06
1.43975e-05
-3.52202e-06
1.46215e-05
-3.37606e-06
1.48244e-05
-3.24475e-06
1.50085e-05
-3.12368e-06
1.51529e-05
-2.99427e-06
1.52939e-05
-2.88277e-06
1.53946e-05
-2.76626e-06
-2.64303e-06
1.54635e-05
8.82366e-06
-3.94619e-06
9.50076e-06
-4.60374e-06
1.01204e-05
-4.46144e-06
1.0666e-05
-4.15167e-06
1.11665e-05
-3.84439e-06
1.16056e-05
-3.55406e-06
1.1972e-05
-3.31895e-06
1.22811e-05
-3.14358e-06
1.2544e-05
-2.99844e-06
1.27793e-05
-2.87268e-06
1.29872e-05
-2.75685e-06
1.31753e-05
-2.64967e-06
1.33429e-05
-2.55236e-06
1.34752e-05
-2.44686e-06
1.35963e-05
-2.35366e-06
1.36871e-05
-2.25615e-06
1.37502e-05
-2.15364e-06
-2.04814e-06
1.3792e-05
7.82855e-06
-3.24632e-06
8.58375e-06
-3.89666e-06
9.15035e-06
-3.61257e-06
9.61315e-06
-3.27073e-06
1.00191e-05
-2.97988e-06
1.03779e-05
-2.71472e-06
1.06814e-05
-2.49479e-06
1.09231e-05
-2.32546e-06
1.11099e-05
-2.19009e-06
1.12579e-05
-2.08624e-06
1.1371e-05
-1.99256e-06
1.14561e-05
-1.91031e-06
1.15161e-05
-1.83728e-06
1.1555e-05
-1.75644e-06
1.15721e-05
-1.68422e-06
1.15788e-05
-1.61625e-06
1.15744e-05
-1.54001e-06
-1.45817e-06
1.15584e-05
7.0175e-06
-2.52894e-06
7.63748e-06
-3.206e-06
8.04937e-06
-2.75371e-06
8.31323e-06
-2.32741e-06
8.47896e-06
-2.00438e-06
8.60362e-06
-1.76338e-06
8.70768e-06
-1.58646e-06
8.79392e-06
-1.46038e-06
8.85813e-06
-1.36098e-06
8.90563e-06
-1.29501e-06
8.92728e-06
-1.2265e-06
8.92956e-06
-1.17238e-06
8.91608e-06
-1.12773e-06
8.88411e-06
-1.06952e-06
8.8437e-06
-1.02727e-06
8.79029e-06
-9.82272e-07
8.74382e-06
-9.46707e-07
-8.96941e-07
8.6978e-06
6.34082e-06
-1.94925e-06
6.34298e-06
-2.04072e-06
6.17381e-06
-1.45014e-06
6.015e-06
-1.08979e-06
5.89836e-06
-8.67524e-07
5.83814e-06
-7.41565e-07
5.81866e-06
-6.62663e-07
5.82375e-06
-6.15937e-07
5.8407e-06
-5.8005e-07
5.85738e-06
-5.62271e-07
5.85734e-06
-5.22373e-07
5.8532e-06
-5.06436e-07
5.83788e-06
-4.90023e-07
5.82742e-06
-4.73487e-07
5.80608e-06
-4.54739e-07
5.78141e-06
-4.3853e-07
5.75429e-06
-4.30598e-07
-4.17242e-07
5.73553e-06
4.34207e-06
3.34767e-06
2.90821e-06
2.77876e-06
2.81914e-06
2.93322e-06
3.07546e-06
3.21603e-06
3.34681e-06
3.45243e-06
3.55774e-06
3.64141e-06
3.70645e-06
3.75532e-06
3.79238e-06
3.81707e-06
3.82302e-06
3.81733e-06
-5.70563e-08
7.42235e-08
-9.61556e-08
5.50055e-08
-1.51126e-07
6.98909e-08
-2.12339e-07
7.43064e-08
-2.70819e-07
6.8838e-08
-3.26971e-07
6.29259e-08
-3.90188e-07
6.56093e-08
-4.66642e-07
7.36384e-08
-5.57351e-07
8.18873e-08
-6.6309e-07
9.01817e-08
-7.92315e-07
1.06234e-07
-9.43576e-07
1.20121e-07
-1.11129e-06
1.27649e-07
-1.29258e-06
1.31048e-07
-1.46546e-06
1.10971e-07
-1.61192e-06
7.27407e-08
-1.74808e-06
5.16945e-08
-1.91151e-06
6.84366e-08
-2.10446e-06
8.62163e-08
-2.27585e-06
5.20654e-08
-2.4022e-06
-5.38894e-09
-2.52789e-06
-1.57796e-08
-2.705e-06
2.58348e-08
-2.94799e-06
8.00799e-08
-3.23188e-06
1.10994e-07
-3.58271e-06
1.72719e-07
-4.06659e-06
3.04194e-07
-4.7401e-06
4.87196e-07
-5.61936e-06
6.82472e-07
-6.71776e-06
8.96018e-07
-7.98621e-06
1.05675e-06
-9.37211e-06
1.15847e-06
-1.07864e-05
1.17845e-06
-1.21647e-05
1.14605e-06
-1.34818e-05
1.09465e-06
-1.47209e-05
1.0261e-06
-1.58709e-05
9.43169e-07
-1.69297e-05
8.57417e-07
-1.7902e-05
7.79185e-07
-1.87874e-05
7.03385e-07
-1.95829e-05
6.26786e-07
-2.02949e-05
5.59167e-07
-2.0929e-05
4.9938e-07
-2.14763e-05
4.32461e-07
-2.19432e-05
3.73639e-07
-2.23124e-05
2.98597e-07
-2.26011e-05
2.41289e-07
-2.28043e-05
1.79629e-07
-2.29179e-05
1.15151e-07
-2.2961e-05
7.1598e-08
-2.29311e-05
2.70511e-08
-2.28418e-05
-3.0738e-09
-2.26763e-05
-4.94782e-08
-2.24218e-05
-1.09073e-07
-2.20787e-05
-1.69552e-07
-2.16598e-05
-2.17758e-07
-2.11783e-05
-2.52736e-07
-2.0655e-05
-2.66361e-07
-2.00928e-05
-2.77018e-07
-1.95096e-05
-2.7047e-07
-1.89278e-05
-2.41368e-07
-1.83299e-05
-2.30007e-07
-1.77188e-05
-2.15428e-07
-1.70984e-05
-1.97412e-07
-1.64857e-05
-1.62901e-07
-1.58501e-05
-1.58052e-07
-1.52045e-05
-1.41211e-07
-1.45594e-05
-1.15324e-07
-1.39004e-05
-1.04668e-07
-1.32245e-05
-9.76498e-08
-1.25021e-05
-1.19685e-07
-1.17621e-05
-1.13725e-07
-1.09334e-05
-1.82514e-07
-1.00893e-05
-1.79671e-07
-9.17932e-06
-2.25689e-07
-8.26898e-06
-2.02307e-07
-7.46116e-06
-7.26025e-08
-6.78836e-06
9.09316e-08
-6.19959e-06
2.02637e-07
-5.58513e-06
2.03726e-07
-4.89442e-06
1.54169e-07
-4.2889e-06
2.67466e-07
-3.88105e-06
4.9385e-07
-3.5671e-06
6.16395e-07
-3.23565e-06
6.27577e-07
-2.88136e-06
6.34516e-07
-2.60188e-06
7.41686e-07
-2.36176e-06
8.17563e-07
-2.03006e-06
7.66695e-07
-1.6633e-06
7.74698e-07
-1.37757e-06
9.02369e-07
-1.27993e-06
1.14138e-06
-1.38636e-06
1.40604e-06
-1.53686e-06
1.52106e-06
-1.73959e-06
1.65246e-06
-1.75586e-06
1.53957e-06
-1.08588e-06
9.37229e-07
-2.847e-07
8.97909e-07
-7.82763e-08
1.59338e-06
-1.47978e-07
1.98488e-06
8.10712e-08
1.82242e-06
8.36494e-07
1.44096e-06
2.02294e-06
1.11488e-06
2.81841e-06
1.60388e-06
2.42362e-06
2.93084e-06
7.81381e-07
4.35156e-06
-1.4399e-06
5.10762e-06
-3.84508e-06
5.45379e-06
-6.06969e-06
5.43622e-06
-7.56051e-06
4.87059e-06
-8.27969e-06
4.29074e-06
-8.8034e-06
4.28335e-06
-9.36223e-06
4.49909e-06
-1.01139e-05
4.86941e-06
-1.11085e-05
5.25614e-06
-1.20725e-05
5.32375e-06
-1.26492e-05
5.07974e-06
-1.2011e-05
4.08424e-06
-1.00141e-05
2.88238e-06
-9.28516e-06
4.25763e-06
-1.14857e-05
7.35392e-06
-8.70831e-06
2.47446e-06
-2.27147e-06
-1.13642e-06
-4.88462e-06
8.10963e-06
-7.76716e-06
8.55345e-06
-9.06648e-06
7.11681e-06
-9.33038e-06
6.28546e-06
-1.0573e-05
7.43575e-06
-1.11304e-05
6.96728e-06
-1.04566e-05
6.01664e-06
-8.79957e-06
5.24575e-06
-7.72655e-06
6.08675e-06
-7.71512e-06
7.41276e-06
-8.93526e-06
8.88742e-06
-1.05221e-05
9.48851e-06
-1.22168e-05
9.87399e-06
-1.38509e-05
1.01773e-05
-1.53378e-05
1.04644e-05
-1.64127e-05
1.05286e-05
-1.69508e-05
1.04616e-05
-1.71403e-05
1.0555e-05
-1.71354e-05
1.08029e-05
-1.76769e-05
1.17856e-05
-1.87097e-05
1.27964e-05
-1.97895e-05
1.35019e-05
-2.09493e-05
1.43254e-05
-2.19889e-05
1.50155e-05
-2.26146e-05
1.54223e-05
-2.27797e-05
1.58246e-05
-2.25431e-05
1.63127e-05
-2.1951e-05
1.68354e-05
-2.0764e-05
1.69939e-05
-1.8994e-05
1.69845e-05
-1.67763e-05
1.69037e-05
-1.52407e-05
1.77775e-05
-1.4316e-05
1.88223e-05
-1.31684e-05
1.88822e-05
-1.09376e-05
1.81637e-05
-8.58453e-06
1.84224e-05
-7.72847e-06
1.94468e-05
-7.66116e-06
1.98494e-05
-6.98459e-06
1.93349e-05
-7.31163e-06
2.06394e-05
-8.59937e-06
2.20011e-05
-9.66388e-06
2.05805e-05
-1.9074e-05
2.73339e-05
-1.9202e-05
1.81669e-05
1.36236e-06
-4.69461e-06
1.33893e-05
4.88159e-06
1.46677e-05
1.70959e-05
1.31607e-05
2.17555e-05
1.20717e-05
2.23686e-05
1.18093e-05
2.2171e-05
1.39638e-05
2.01478e-05
1.6625e-05
1.84284e-05
1.526e-05
2.19261e-05
1.5201e-05
2.22313e-05
2.84425e-05
7.67586e-06
3.15239e-05
1.39351e-05
2.21248e-05
2.38521e-05
-7.70453e-08
1.54584e-07
-1.09002e-07
8.83518e-08
-1.4088e-07
1.01565e-07
-1.74483e-07
1.05629e-07
-2.00497e-07
8.96969e-08
-2.23217e-07
7.67877e-08
-2.59789e-07
8.88087e-08
-3.28961e-07
1.24043e-07
-4.28511e-07
1.5639e-07
-5.47779e-07
1.77526e-07
-6.90473e-07
2.09441e-07
-8.53508e-07
2.35196e-07
-1.01403e-06
2.31858e-07
-1.16233e-06
2.14307e-07
-1.31959e-06
1.91086e-07
-1.52818e-06
1.90498e-07
-1.76948e-06
1.91271e-07
-1.97736e-06
1.65773e-07
-2.09172e-06
8.01525e-08
-2.23672e-06
6.13171e-08
-2.55621e-06
1.68181e-07
-3.09699e-06
3.81752e-07
-3.86336e-06
6.44511e-07
-4.85161e-06
9.10641e-07
-6.02585e-06
1.11672e-06
-7.37418e-06
1.31983e-06
-8.85616e-06
1.56167e-06
-1.03682e-05
1.77833e-06
-1.18436e-05
1.93555e-06
-1.32587e-05
2.08744e-06
-1.45808e-05
2.16408e-06
-1.57791e-05
2.14517e-06
-1.69196e-05
2.09369e-06
-1.80268e-05
2.01613e-06
-1.90607e-05
1.89397e-06
-2.00374e-05
1.77328e-06
-2.09344e-05
1.61703e-06
-2.17639e-05
1.47049e-06
-2.25172e-05
1.32131e-06
-2.31901e-05
1.17658e-06
-2.37924e-05
1.04463e-06
-2.43168e-05
9.17623e-07
-2.4752e-05
7.90839e-07
-2.51102e-05
6.70527e-07
-2.53787e-05
5.45512e-07
-2.55775e-05
4.24565e-07
-2.56724e-05
2.85353e-07
-2.5682e-05
1.62119e-07
-2.56236e-05
5.61359e-08
-2.54877e-05
-3.6724e-08
-2.53079e-05
-9.36376e-08
-2.50545e-05
-1.6215e-07
-2.47149e-05
-2.57732e-07
-2.42795e-05
-3.80484e-07
-2.37616e-05
-4.99795e-07
-2.31826e-05
-5.90189e-07
-2.25625e-05
-6.47791e-07
-2.19069e-05
-6.76194e-07
-2.11984e-05
-7.14843e-07
-2.0458e-05
-7.14257e-07
-1.97049e-05
-6.7073e-07
-1.89653e-05
-6.10247e-07
-1.81972e-05
-5.84418e-07
-1.7433e-05
-5.30949e-07
-1.66797e-05
-4.47682e-07
-1.59038e-05
-4.23735e-07
-1.51131e-05
-3.89228e-07
-1.43065e-05
-3.49064e-07
-1.34971e-05
-3.17066e-07
-1.26505e-05
-3.28145e-07
-1.1813e-05
-3.20165e-07
-1.09067e-05
-3.63028e-07
-1.00272e-05
-3.94408e-07
-9.12236e-06
-4.11894e-07
-8.23947e-06
-4.30053e-07
-7.29356e-06
-4.57117e-07
-6.3229e-06
-3.29538e-07
-5.44779e-06
-3.59298e-08
-4.70949e-06
2.51452e-07
-3.93048e-06
2.47613e-07
-2.94104e-06
1.9462e-08
-1.90631e-06
1.18255e-07
-1.12569e-06
6.27208e-07
-5.57675e-07
9.95307e-07
-2.50534e-08
1.07801e-06
5.51457e-07
1.07658e-06
1.01291e-06
1.33216e-06
1.40284e-06
1.51668e-06
1.87392e-06
1.42582e-06
2.17821e-06
1.64462e-06
2.21403e-06
2.0852e-06
2.0888e-06
2.53875e-06
2.00995e-06
2.82297e-06
1.86379e-06
3.0809e-06
1.43359e-06
3.57807e-06
1.26384e-06
3.26633e-06
1.94202e-06
1.89161e-06
3.03922e-06
1.51466e-06
3.68376e-06
2.7502e-06
4.19484e-06
3.4287e-06
5.30192e-06
2.8745e-06
6.01016e-06
3.01692e-06
4.82731e-06
4.52647e-06
2.10354e-06
6.68763e-06
-8.10851e-07
8.43282e-06
-3.46577e-06
9.80028e-06
-6.36704e-06
1.10088e-05
-8.84853e-06
1.10554e-05
-1.00502e-05
9.89678e-06
-1.05403e-05
8.71675e-06
-1.10439e-05
8.32325e-06
-1.13629e-05
8.28606e-06
-1.13551e-05
8.32847e-06
-1.16848e-05
9.25094e-06
-1.24165e-05
1.02986e-05
-1.29888e-05
1.03059e-05
-1.31312e-05
9.72996e-06
-1.2343e-05
7.98916e-06
-1.07052e-05
5.9727e-06
-9.20129e-06
7.45811e-06
-8.55979e-06
1.19834e-05
-6.91108e-06
6.17417e-06
-4.57929e-06
1.75183e-06
-5.98593e-06
1.4992e-05
-8.06789e-06
1.63986e-05
-8.50972e-06
1.34327e-05
-8.09647e-06
1.1924e-05
-9.29056e-06
1.51294e-05
-1.03375e-05
1.44526e-05
-9.61659e-06
1.20985e-05
-7.95767e-06
1.04793e-05
-6.14453e-06
1.1426e-05
-4.5561e-06
1.33969e-05
-4.00051e-06
1.63224e-05
-4.55891e-06
1.82639e-05
-6.04041e-06
1.9778e-05
-7.86493e-06
2.07426e-05
-9.51284e-06
2.13805e-05
-1.05458e-05
2.14328e-05
-1.03723e-05
2.06848e-05
-9.18212e-06
2.01834e-05
-8.41943e-06
2.12856e-05
-9.00413e-06
2.40472e-05
-1.0912e-05
2.67491e-05
-1.36144e-05
2.86701e-05
-1.59348e-05
2.98951e-05
-1.7399e-05
3.08302e-05
-1.85941e-05
3.21305e-05
-1.91814e-05
3.31956e-05
-1.92512e-05
3.43288e-05
-1.87737e-05
3.57413e-05
-1.78015e-05
3.66841e-05
-1.65832e-05
3.70545e-05
-1.5138e-05
3.66233e-05
-1.5148e-05
3.88309e-05
-1.52744e-05
4.04506e-05
-1.49869e-05
3.93745e-05
-1.3022e-05
3.69006e-05
-8.69481e-06
3.59402e-05
-5.87507e-06
3.95997e-05
-5.68094e-06
4.20675e-05
-6.16509e-06
4.23755e-05
-6.99877e-06
4.50315e-05
-7.45452e-06
4.4497e-05
-9.19423e-06
4.53866e-05
-1.22244e-05
4.6668e-05
-1.1456e-05
3.83022e-05
9.54957e-07
1.50688e-06
1.46667e-05
7.87016e-06
1.98161e-05
3.00041e-05
2.21578e-05
4.09724e-05
2.26404e-05
4.56864e-05
2.13614e-05
4.87805e-05
2.16855e-05
4.63741e-05
2.0705e-05
4.35409e-05
1.58265e-05
5.01265e-05
1.61514e-05
4.67722e-05
3.00247e-05
1.64369e-05
3.58817e-05
2.89281e-05
4.63422e-05
2.81351e-05
-9.00346e-08
2.2141e-07
-1.00057e-07
7.20921e-08
-8.16472e-08
5.48533e-08
-6.94689e-08
6.2861e-08
-6.549e-08
5.21943e-08
-6.2589e-08
3.66159e-08
-7.03681e-08
5.47491e-08
-9.38238e-08
1.0018e-07
-1.73305e-07
1.82023e-07
-2.97758e-07
2.40853e-07
-4.26763e-07
2.69792e-07
-5.89613e-07
3.20349e-07
-8.1494e-07
3.67755e-07
-1.09362e-06
3.93508e-07
-1.44878e-06
4.39472e-07
-1.75702e-06
3.85206e-07
-1.96106e-06
2.723e-07
-2.23217e-06
3.00757e-07
-2.79822e-06
5.02508e-07
-3.62202e-06
7.38632e-07
-4.65722e-06
1.04591e-06
-5.82642e-06
1.37197e-06
-7.12663e-06
1.75177e-06
-8.55252e-06
2.14269e-06
-1.00281e-05
2.39773e-06
-1.14768e-05
2.56657e-06
-1.28449e-05
2.71966e-06
-1.41461e-05
2.85994e-06
-1.53598e-05
2.92694e-06
-1.6437e-05
2.94553e-06
-1.74424e-05
2.92959e-06
-1.84029e-05
2.84805e-06
-1.93058e-05
2.73949e-06
-2.01707e-05
2.62552e-06
-2.0993e-05
2.46459e-06
-2.17342e-05
2.27173e-06
-2.24481e-05
2.08823e-06
-2.31163e-05
1.89831e-06
-2.37168e-05
1.69603e-06
-2.42545e-05
1.49817e-06
-2.47104e-05
1.30123e-06
-2.50829e-05
1.11239e-06
-2.54048e-05
9.54328e-07
-2.5656e-05
7.86665e-07
-2.58343e-05
6.1124e-07
-2.59241e-05
4.25883e-07
-2.59398e-05
2.38266e-07
-2.58891e-05
7.75446e-08
-2.57682e-05
-6.7078e-08
-2.55917e-05
-1.86677e-07
-2.53375e-05
-2.8992e-07
-2.50111e-05
-3.97387e-07
-2.4604e-05
-5.41639e-07
-2.41399e-05
-6.88601e-07
-2.3626e-05
-8.33817e-07
-2.30752e-05
-9.38226e-07
-2.24904e-05
-1.00952e-06
-2.18532e-05
-1.07595e-06
-2.11311e-05
-1.17906e-06
-2.03772e-05
-1.18469e-06
-1.95996e-05
-1.13724e-06
-1.87658e-05
-1.09687e-06
-1.78988e-05
-1.06561e-06
-1.70233e-05
-9.92262e-07
-1.61224e-05
-8.90064e-07
-1.5196e-05
-8.4115e-07
-1.42922e-05
-7.49682e-07
-1.33761e-05
-6.89892e-07
-1.24514e-05
-6.44794e-07
-1.1561e-05
-6.12632e-07
-1.06694e-05
-5.9751e-07
-9.77768e-06
-6.31506e-07
-8.9244e-06
-6.11089e-07
-8.1215e-06
-5.59898e-07
-7.42848e-06
-4.5005e-07
-6.7762e-06
-4.18873e-07
-6.0429e-06
-3.56748e-07
-5.2281e-06
-1.15377e-07
-4.4842e-06
2.88358e-07
-3.7998e-06
3.82915e-07
-2.9957e-06
5.03052e-08
-2.03526e-06
1.09833e-08
-1.18598e-06
6.6482e-07
-6.24874e-07
1.36314e-06
-1.62411e-08
1.42882e-06
9.30998e-07
1.12227e-06
1.92194e-06
1.36974e-06
2.84775e-06
1.65771e-06
3.83115e-06
1.54742e-06
4.73233e-06
1.88889e-06
5.28443e-06
2.73624e-06
5.36568e-06
3.72048e-06
5.54511e-06
3.95398e-06
5.73181e-06
4.27762e-06
5.60758e-06
5.14275e-06
5.38551e-06
4.95845e-06
5.09658e-06
3.72426e-06
5.1806e-06
3.08298e-06
6.06766e-06
3.63724e-06
7.29727e-06
4.13248e-06
7.75502e-06
4.46738e-06
6.14318e-06
6.67635e-06
2.572e-06
1.02251e-05
-9.44625e-07
1.2538e-05
-3.57264e-06
1.35508e-05
-5.81294e-06
1.48361e-05
-7.56228e-06
1.56817e-05
-8.56976e-06
1.50825e-05
-9.18526e-06
1.35678e-05
-1.01096e-05
1.27696e-05
-1.12691e-05
1.27542e-05
-1.18407e-05
1.22565e-05
-1.1924e-05
1.18368e-05
-1.19453e-05
1.28691e-05
-1.15795e-05
1.38809e-05
-1.08474e-05
1.38056e-05
-1.04051e-05
1.36864e-05
-1.02122e-05
1.22809e-05
-9.95254e-06
1.01009e-05
-8.70816e-06
1.03079e-05
-4.98856e-06
1.28202e-05
-4.78523e-06
1.08799e-05
-6.94017e-06
8.62857e-06
-8.41981e-06
2.17503e-05
-9.79693e-06
2.31495e-05
-8.38166e-06
1.76422e-05
-6.95687e-06
1.59197e-05
-6.98985e-06
2.16343e-05
-8.13683e-06
2.20176e-05
-8.15507e-06
1.87e-05
-7.43818e-06
1.63103e-05
-7.12206e-06
1.76234e-05
-5.89499e-06
1.89706e-05
-5.14062e-06
2.29547e-05
-4.90441e-06
2.58429e-05
-5.52519e-06
2.86043e-05
-6.56691e-06
3.03928e-05
-7.40126e-06
3.15415e-05
-7.89151e-06
3.19226e-05
-8.03704e-06
3.1218e-05
-7.73375e-06
3.00227e-05
-6.33112e-06
3.00257e-05
-4.64254e-06
3.30774e-05
-4.71068e-06
3.84238e-05
-7.10657e-06
4.31865e-05
-1.05116e-05
4.56059e-05
-1.38305e-05
4.71837e-05
-1.62539e-05
4.85308e-05
-1.6798e-05
4.9071e-05
-1.71364e-05
5.10299e-05
-1.70129e-05
5.38922e-05
-1.64631e-05
5.63584e-05
-1.56486e-05
5.72646e-05
-1.51299e-05
5.70064e-05
-1.56856e-05
6.03426e-05
-1.58325e-05
6.14826e-05
-1.58397e-05
5.80503e-05
-1.50296e-05
5.36957e-05
-1.2268e-05
4.98443e-05
-6.78759e-06
5.58268e-05
-4.8309e-06
6.27611e-05
-4.05364e-06
6.43761e-05
-5.08454e-06
7.07421e-05
-1.53078e-06
5.68961e-05
2.99185e-06
6.7435e-05
2.59488e-06
6.12776e-05
5.33512e-06
4.89628e-05
8.5167e-06
1.69425e-05
1.44533e-05
1.88122e-05
1.8473e-05
4.55225e-05
2.25791e-05
5.86809e-05
2.52228e-05
6.4056e-05
2.51948e-05
7.20058e-05
2.48633e-05
7.25088e-05
2.32101e-05
6.90609e-05
1.9569e-05
7.69622e-05
2.16543e-05
6.85513e-05
2.71693e-05
3.21508e-05
3.12375e-05
4.35559e-05
6.59222e-05
2.89432e-05
-9.44953e-08
2.56031e-07
-8.27682e-08
-2.44362e-09
-2.79865e-09
-9.01856e-08
6.21283e-08
-6.98502e-08
1.00175e-07
-5.71426e-08
1.14737e-07
-5.36082e-08
9.42358e-08
-5.52896e-09
4.0987e-08
6.65128e-08
-4.51259e-08
1.74318e-07
-2.15406e-07
3.09577e-07
-4.3918e-07
3.83127e-07
-6.96825e-07
4.57353e-07
-1.11586e-06
6.52598e-07
-1.63543e-06
7.71216e-07
-2.02649e-06
6.95184e-07
-2.31494e-06
5.28417e-07
-2.84366e-06
6.29093e-07
-3.7596e-06
1.03475e-06
-4.91677e-06
1.48966e-06
-6.27633e-06
1.92182e-06
-7.64838e-06
2.21916e-06
-8.97464e-06
2.48541e-06
-1.02323e-05
2.79968e-06
-1.13785e-05
3.09174e-06
-1.2495e-05
3.30293e-06
-1.3605e-05
3.4344e-06
-1.46585e-05
3.5248e-06
-1.56465e-05
3.60911e-06
-1.65969e-05
3.61939e-06
-1.75051e-05
3.57614e-06
-1.83563e-05
3.50436e-06
-1.91895e-05
3.40698e-06
-1.99892e-05
3.26305e-06
-2.07293e-05
3.09547e-06
-2.14529e-05
2.92555e-06
-2.21633e-05
2.7167e-06
-2.28257e-05
2.49772e-06
-2.34168e-05
2.24561e-06
-2.39771e-05
2.01517e-06
-2.44543e-05
1.75699e-06
-2.48466e-05
1.49097e-06
-2.5196e-05
1.27742e-06
-2.54694e-05
1.06533e-06
-2.56712e-05
8.4087e-07
-2.58182e-05
6.25223e-07
-2.58701e-05
3.59751e-07
-2.5865e-05
1.43078e-07
-2.57796e-05
-6.21368e-08
-2.56207e-05
-2.4307e-07
-2.53977e-05
-3.99536e-07
-2.50884e-05
-5.62274e-07
-2.47326e-05
-6.92951e-07
-2.43269e-05
-8.70284e-07
-2.38653e-05
-1.04466e-06
-2.33603e-05
-1.19133e-06
-2.28022e-05
-1.30387e-06
-2.22058e-05
-1.37982e-06
-2.15462e-05
-1.48359e-06
-2.08349e-05
-1.60626e-06
-2.00958e-05
-1.60317e-06
-1.92946e-05
-1.59318e-06
-1.84434e-05
-1.58502e-06
-1.75584e-05
-1.56359e-06
-1.66403e-05
-1.49737e-06
-1.56483e-05
-1.44303e-06
-1.46345e-05
-1.38628e-06
-1.35917e-05
-1.29792e-06
-1.25584e-05
-1.20216e-06
-1.15617e-05
-1.0928e-06
-1.06233e-05
-9.78092e-07
-9.76806e-06
-8.59821e-07
-9.04211e-06
-7.56062e-07
-8.36865e-06
-6.68844e-07
-7.64623e-06
-6.3735e-07
-6.87517e-06
-5.39698e-07
-6.10682e-06
-4.69399e-07
-5.34041e-06
-3.80731e-07
-4.48778e-06
-2.04204e-07
-3.54607e-06
1.46671e-07
-2.70918e-06
3.8476e-07
-2.08668e-06
2.72594e-07
-1.62447e-06
3.88439e-07
-1.29634e-06
1.2031e-06
-9.64992e-07
1.93763e-06
-3.08524e-07
1.70116e-06
7.10293e-07
1.06267e-06
1.69323e-06
1.37487e-06
2.4736e-06
1.8987e-06
3.50772e-06
1.57228e-06
4.77898e-06
1.7271e-06
5.82685e-06
2.86229e-06
6.65725e-06
4.09921e-06
7.52895e-06
4.3366e-06
8.30993e-06
4.84263e-06
8.56176e-06
6.2742e-06
8.614e-06
6.34333e-06
8.65872e-06
5.23333e-06
8.97449e-06
4.3889e-06
9.58879e-06
4.7231e-06
9.20663e-06
6.38556e-06
6.47163e-06
9.16747e-06
2.32001e-06
1.27914e-05
-1.2433e-06
1.59013e-05
-3.65262e-06
1.72314e-05