/*--------------------------------*- C++ -*----------------------------------*\
| =========                 |                                                 |
| \\      /  F ield         | OpenFOAM: The Open Source CFD Toolbox           |
|  \\    /   O peration     | Version:  dev                                   |
|   \\  /    A nd           | Web:      http://www.openfoam.org               |
|    \\/     M anipulation  |                                                 |
\*---------------------------------------------------------------------------*/
FoamFile
{
    version     2.0;
    format      ascii;
    class       volScalarField;
    object      pMean;
    location    "9.157";
}
// * * * * * * * * * * * * * * * * * * * * * * * * * * * * * * * * * * * * * //

dimensions      [1 -1 -2 0 0 0 0];

internalField   nonuniform List<scalar> 
12225
(
98310.3
98290.5
98276.8
98269.8
98255.5
98246.1
98227.6
98218.1
98196.6
98187.8
98163.1
98156.3
98125.3
98119
98078.2
98038.5
97949.4
97583.4
98305.8
98289.5
98276.2
98269.3
98254.9
98245.5
98227
98217.5
98195.9
98187.4
98162.4
98155.8
98124.9
98117.1
98076.5
98042.6
97950.3
97789.2
98302.1
98287.9
98275.2
98267.9
98253.5
98244.1
98225.5
98216.2
98194.4
98185.9
98161.6
98153.7
98125.5
98113.7
98078.8
98043.5
97976.1
97887.3
98297
98285
98273.1
98265.4
98251.1
98241.4
98223.4
98213.5
98192.7
98183.2
98160.2
98150.6
98124.4
98111.5
98079.7
98051.9
98003.4
97934.6
98290.4
98280.6
98269.5
98261.4
98247.5
98237.2
98220.4
98209.3
98190.3
98179
98158.7
98146.1
98124.6
98108.3
98081.6
98057.4
98017.6
97984.9
98282.1
98274.4
98263.6
98255.4
98241.9
98231.3
98215.2
98203.6
98185.9
98173.7
98155.5
98141.9
98123.5
98106.6
98085.2
98059.9
98037.8
98017.3
98271.8
98265.5
98255.1
98246.7
98234.1
98222.9
98208.1
98195.6
98179.8
98166.3
98150.9
98135.9
98121.3
98103.7
98089.4
98068.5
98058.1
98043.2
98261.1
98255.4
98245.8
98237.1
98225.4
98213.8
98200.3
98187.1
98173.1
98158.8
98145.6
98130
98118.5
98101.2
98092.4
98074.6
98072.9
98057.9
98250.3
98244.8
98236
98227.1
98216.3
98204.5
98192
98178.5
98165.9
98151.2
98139.8
98124.3
98114.6
98098.6
98092.3
98078.2
98077.9
98065.9
98236.7
98231.2
98223.5
98214.5
98204.6
98192.8
98181.3
98167.8
98156.5
98141.9
98132
98117.1
98108.9
98094.5
98089.5
98077.7
98076.9
98068.7
98219.8
98214.3
98207.7
98199
98189.8
98178.3
98167.6
98154.6
98144.1
98130.5
98121.1
98108
98100
98088.5
98082.8
98074.3
98071.6
98066.4
98199.2
98193.5
98188.3
98179.8
98171.5
98160.4
98150.5
98138.2
98128.6
98116.1
98107.4
98095.9
98088.4
98079.1
98073.4
98067
98063.4
98059.8
98174.4
98169.2
98164.6
98157.1
98149.2
98139.2
98129.8
98118.9
98109.6
98099
98090.5
98081.2
98074
98066.8
98061.3
98056.5
98052.9
98050.1
98146.3
98141.4
98137.5
98130.9
98123.7
98114.8
98106.1
98096.6
98088.1
98079.1
98071.4
98063.8
98057.4
98051.7
98047
98043.2
98040.2
98038.1
98116.1
98112.4
98108.6
98103.2
98096.7
98089.1
98081.3
98073.2
98065.6
98058.1
98051.4
98045.3
98040
98035.5
98031.7
98028.8
98026.6
98025.1
98088.4
98085.7
98082.3
98077.8
98072.2
98065.7
98058.9
98052
98045.4
98039.3
98033.6
98028.7
98024.4
98020.8
98017.9
98015.8
98014.2
98013.3
98069.9
98067.9
98065.2
98061.2
98056.3
98050.6
98044.7
98038.7
98033
98027.8
98023
98018.8
98015.3
98012.3
98010.1
98008.4
98007.2
98006.6
98070.1
98068.4
98065.9
98062.1
98057.4
98052.1
98046.5
98040.9
98035.6
98030.6
98026.2
98022.2
98018.8
98016
98013.8
98012.1
98010.9
98010.2
98089.8
98088
98085.1
98081.2
98076.2
98070.7
98064.9
98059.1
98053.5
98048.3
98043.5
98039.2
98035.5
98032.3
98029.6
98027.5
98025.8
98024.5
98120.6
98118.4
98115
98110.5
98105.1
98099
98092.7
98086.3
98080.2
98074.4
98069
98064
98059.6
98055.8
98052.4
98049.6
98047.2
98045.2
98155.4
98152.8
98148.7
98143.5
98137.5
98130.8
98123.8
98116.9
98110
98103.5
98097.4
98091.7
98086.5
98081.9
98077.8
98074.2
98071.1
98068.4
98189.2
98186.2
98181.4
98175.5
98168.8
98161.6
98154
98146.4
98138.9
98131.7
98124.9
98118.6
98112.7
98107.3
98102.5
98098.2
98094.3
98090.9
98219.4
98215.8
98210.2
98203.7
98196.5
98188.7
98180.7
98172.6
98164.6
98156.8
98149.4
98142.4
98135.9
98130
98124.5
98119.6
98115.1
98111.1
98244.7
98240.4
98234.1
98227
98219.3
98211.2
98202.8
98194.3
98185.8
98177.6
98169.7
98162.2
98155.3
98148.8
98142.8
98137.4
98132.4
98127.8
98265
98259.8
98252.6
98244.9
98236.9
98228.6
98220
98211.2
98202.4
98193.8
98185.6
98177.8
98170.4
98163.5
98157.2
98151.3
98145.9
98141
98280.6
98274.3
98266.2
98258.1
98249.9
98241.4
98232.6
98223.6
98214.7
98205.9
98197.4
98189.2
98181.6
98174.4
98167.8
98161.6
98156
98150.8
98292.4
98284.6
98275.5
98267
98258.7
98250.2
98241.3
98232.3
98223.2
98214.2
98205.5
98197.3
98189.4
98182.1
98175.2
98168.9
98163
98157.6
98301.1
98291.3
98281.2
98272.6
98264.3
98255.8
98247
98237.8
98228.7
98219.6
98210.8
98202.4
98194.5
98187
98180
98173.6
98167.6
98162.1
98307.2
98295.1
98284
98275.3
98267.3
98258.9
98250.2
98241
98231.8
98222.7
98213.9
98205.4
98197.4
98189.8
98182.8
98176.2
98170.2
98164.6
98313.1
98297.6
98285.5
98276.7
98268.5
98260.2
98251.4
98242.3
98233.1
98224
98215.1
98206.6
98198.6
98191
98183.9
98177.4
98171.3
98165.7
98310.1
98309.8
98309
98307.8
98306.4
98304.5
98302.3
98299.7
98296.6
98293.2
98289.3
98285.1
98280.5
98275.5
98270.3
98264.9
98259.2
98253.2
98247.2
98240.9
98234.5
98227.9
98221.2
98214.4
98207.5
98200.5
98193.5
98186.5
98179.4
98172.3
98165.2
98158.1
98151.1
98144.2
98137.3
98130.5
98123.9
98117.4
98111.1
98105
98099
98093.4
98087.9
98082.8
98078
98073.5
98069.4
98065.7
98062.4
98059.6
98057.2
98055.3
98053.9
98053
98052.8
98053.1
98054.1
98055.7
98058
98060.9
98064.6
98069
98074.1
98079.9
98086.4
98093.7
98101.6
98110.3
98119.6
98129.6
98140.1
98151.3
98163.1
98175.4
98188.1
98201.4
98215
98229
98243.3
98257.9
98272.7
98287.7
98302.8
98318.1
98333.3
98348.6
98363.8
98378.9
98393.8
98408.5
98422.9
98437.1
98450.8
98464.2
98477.1
98489.5
98501.4
98512.8
98523.5
98533.7
98543.2
98552
98560.3
98567.9
98574.8
98581.1
98586.9
98592
98596.6
98600.7
98604.4
98607.6
98610.4
98612.9
98615.1
98617
98618.7
98620.1
98621.4
98622.5
98623.6
98624.7
98625.8
98627.1
98628.7
98630.8
98633.4
98636.8
98641.3
98646.9
98654
98662.7
98673.4
98686.3
98701.6
98719.6
98740.5
98764.3
98791.1
98820.9
98853.9
98889.8
98928.7
98970.2
99014.6
99061.2
99110.1
99160.8
99213.5
99267.7
99323.2
99379.6
99436.6
99493.9
99551.2
99607.8
99663.2
99717
99768
99815.9
99859.4
99897.7
99929.7
99954.8
99971.6
99979.1
99976.5
99963.5
99939.5
99904.8
99859.5
99804.7
99740.8
99670.1
99593
99512.5
99428
99343.3
99256.4
99173.2
98303.2
98302.8
98302
98300.9
98299.4
98297.5
98295.3
98292.6
98289.6
98286.3
98282.5
98278.3
98273.8
98269
98264
98258.7
98253.1
98247.4
98241.5
98235.4
98229.2
98222.8
98216.3
98209.6
98202.9
98196.1
98189.3
98182.3
98175.4
98168.5
98161.5
98154.6
98147.8
98141
98134.3
98127.6
98121.1
98114.8
98108.6
98102.6
98096.8
98091.2
98085.9
98080.9
98076.1
98071.7
98067.7
98064
98060.8
98058
98055.6
98053.7
98052.3
98051.4
98051.1
98051.4
98052.3
98053.8
98056.1
98058.9
98062.5
98066.8
98071.8
98077.4
98083.8
98091
98098.8
98107.2
98116.4
98126.2
98136.6
98147.6
98159.1
98171.2
98183.8
98196.8
98210.1
98223.9
98238
98252.3
98266.9
98281.7
98296.5
98311.5
98326.5
98341.5
98356.4
98371.2
98385.8
98400.2
98414.4
98428.2
98441.7
98454.8
98467.4
98479.5
98491.2
98502.2
98512.7
98522.6
98531.9
98540.6
98548.6
98556
98562.8
98568.9
98574.5
98579.5
98584
98588
98591.6
98594.7
98597.5
98599.9
98602
98603.9
98605.5
98606.8
98608
98609.1
98610.1
98611
98612.1
98613.3
98614.7
98616.5
98619
98622.1
98626.2
98631.5
98638.2
98646.5
98656.7
98669
98683.8
98701.1
98721.2
98744.2
98770.2
98799.2
98831.2
98866.1
98903.9
98944.4
98987.6
99033
99080.8
99130.4
99181.8
99234.9
99289.2
99344.5
99400.4
99456.7
99512.9
99568.5
99623
99676
99726.3
99773.5
99816.6
99854.7
99886.6
99911.8
99929
99937.1
99935.3
99923.4
99900.7
99867.5
99823.7
99770.7
99708.5
99639.6
99564.4
99485.6
99402.6
99319.4
99233.6
99148.6
98290.5
98290.2
98289.4
98288.2
98286.6
98284.6
98282.3
98279.6
98276.6
98273.2
98269.5
98265.5
98261.2
98256.6
98251.7
98246.7
98241.5
98236.1
98230.5
98224.8
98218.9
98212.9
98206.8
98200.5
98194.2
98187.7
98181.2
98174.6
98168
98161.3
98154.6
98148
98141.4
98134.9
98128.4
98122
98115.8
98109.7
98103.7
98097.9
98092.3
98086.9
98081.8
98076.9
98072.3
98068
98064.1
98060.5
98057.3
98054.5
98052.1
98050.2
98048.8
98047.8
98047.4
98047.6
98048.5
98049.9
98052
98054.7
98058.1
98062.1
98066.9
98072.3
98078.5
98085.3
98092.8
98101
98109.8
98119.3
98129.3
98140
98151.1
98162.8
98175
98187.6
98200.5
98213.8
98227.5
98241.4
98255.5
98269.8
98284.2
98298.6
98313.1
98327.6
98342
98356.2
98370.3
98384.2
98397.8
98411.1
98424
98436.5
98448.6
98460.2
98471.2
98481.8
98491.8
98501.2
98510
98518.2
98525.9
98532.9
98539.3
98545.1
98550.4
98555.2
98559.5
98563.2
98566.6
98569.6
98572.2
98574.5
98576.5
98578.2
98579.7
98580.9
98582
98582.9
98583.7
98584.4
98585.2
98586.1
98587.2
98588.6
98590.5
98593.1
98596.6
98601.1
98607
98614.4
98623.6
98634.8
98648.3
98664.3
98682.9
98704.4
98728.6
98755.8
98785.9
98818.8
98854.5
98892.8
98933.8
98976.9
99022.4
99069.6
99118.7
99169.4
99221.3
99274.3
99328
99382.1
99436.2
99489.8
99542.3
99593.6
99642.3
99688.2
99730.1
99767.4
99798.8
99824
99841.4
99850.3
99849.9
99839.7
99819.3
99788.8
99748.1
99698.5
99639.9
99574.7
99503.1
99427.8
99348.3
99268.3
99185.3
99101.4
98273
98272.7
98272
98270.8
98269.2
98267.2
98264.8
98262.2
98259.2
98255.9
98252.2
98248.4
98244.2
98239.9
98235.3
98230.6
98225.7
98220.7
98215.5
98210.2
98204.8
98199.3
98193.6
98187.9
98182
98176
98169.9
98163.8
98157.7
98151.5
98145.3
98139.1
98132.9
98126.8
98120.7
98114.7
98108.8
98103
98097.3
98091.8
98086.5
98081.3
98076.3
98071.6
98067.2
98063.1
98059.3
98055.8
98052.7
98049.9
98047.6
98045.7
98044.2
98043.2
98042.7
98042.8
98043.5
98044.7
98046.6
98049.1
98052.2
98056
98060.4
98065.5
98071.3
98077.7
98084.8
98092.5
98100.9
98109.9
98119.5
98129.6
98140.3
98151.4
98163
98175
98187.4
98200.1
98213.1
98226.3
98239.7
98253.3
98267.1
98280.8
98294.6
98308.3
98322
98335.5
98348.9
98362
98374.8
98387.3
98399.5
98411.2
98422.6
98433.4
98443.7
98453.5
98462.8
98471.6
98479.7
98487.4
98494.4
98500.9
98506.8
98512.2
98517.1
98521.5
98525.4
98528.9
98532
98534.7
98537.1
98539.2
98541
98542.6
98543.8
98544.9
98545.7
98546.4
98546.9
98547.3
98547.7
98548.1
98548.7
98549.6
98550.8
98552.6
98555.2
98558.7
98563.4
98569.5
98577.3
98586.9
98598.7
98612.8
98629.3
98648.6
98670.5
98695.1
98722.6
98752.7
98785.5
98820.8
98858.8
98898.8
98941
98985.1
99031
99078.5
99127.3
99177.1
99227.8
99279
99330.1
99381
99431
99479.7
99526.4
99570.3
99610.6
99646.7
99677.2
99702
99719.7
99729.3
99730.3
99722.2
99704.5
99677.3
99640.5
99595.2
99541.2
99480.9
99414
99343.6
99268.8
99193.3
99114.5
99034.4
98251.9
98251.6
98250.9
98249.8
98248.2
98246.3
98244
98241.4
98238.5
98235.3
98231.8
98228.1
98224.1
98220
98215.8
98211.4
98206.8
98202.2
98197.5
98192.6
98187.7
98182.7
98177.5
98172.3
98166.9
98161.5
98156
98150.4
98144.9
98139.2
98133.6
98128
98122.3
98116.7
98111.1
98105.6
98100.2
98094.8
98089.6
98084.5
98079.5
98074.7
98070
98065.6
98061.3
98057.4
98053.7
98050.4
98047.4
98044.7
98042.4
98040.5
98039
98037.9
98037.3
98037.3
98037.7
98038.8
98040.4
98042.6
98045.3
98048.7
98052.8
98057.4
98062.7
98068.6
98075.2
98082.4
98090.2
98098.6
98107.5
98117
98127
98137.5
98148.3
98159.6
98171.2
98183.1
98195.3
98207.7
98220.3
98233.1
98245.9
98258.7
98271.6
98284.4
98297.2
98309.8
98322.2
98334.4
98346.3
98357.9
98369.1
98379.9
98390.3
98400.2
98409.6
98418.6
98427
98434.9
98442.3
98449.2
98455.5
98461.3
98466.7
98471.5
98475.8
98479.7
98483.2
98486.3
98489.1
98491.5
98493.6
98495.5
98497
98498.3
98499.3
98500.1
98500.6
98500.9
98501.1
98501.1
98501
98500.9
98500.8
98500.9
98501.3
98502.1
98503.6
98505.8
98509.1
98513.6
98519.7
98527.4
98537
98548.8
98562.9
98579.5
98598.6
98620.2
98644.5
98671.3
98700.6
98732.3
98766.5
98802.9
98841.2
98881.5
98923.6
98967.2
99012.3
99058.4
99105.4
99153
99200.7
99248.2
99295
99340.8
99384.7
99426.3
99464.6
99499
99528.4
99552.5
99570.2
99580.5
99582.8
99576.9
99562.2
99538.8
99506.4
99466
99417.4
99362.8
99301.7
99237.3
99168.3
99098.4
99025
98950.4
98228.5
98228.3
98227.6
98226.6
98225.1
98223.4
98221.2
98218.8
98216
98213
98209.7
98206.2
98202.5
98198.7
98194.7
98190.6
98186.4
98182.1
98177.8
98173.4
98168.9
98164.3
98159.6
98154.9
98150.1
98145.2
98140.3
98135.4
98130.4
98125.4
98120.4
98115.3
98110.3
98105.2
98100.3
98095.3
98090.4
98085.6
98080.8
98076.2
98071.6
98067.2
98062.9
98058.8
98054.8
98051.2
98047.7
98044.5
98041.6
98039
98036.8
98034.9
98033.3
98032.2
98031.5
98031.3
98031.5
98032.3
98033.6
98035.5
98037.9
98040.8
98044.4
98048.5
98053.3
98058.7
98064.6
98071.1
98078.3
98085.9
98094.2
98102.9
98112.1
98121.7
98131.7
98142.1
98152.9
98163.9
98175.1
98186.6
98198.2
98209.9
98221.7
98233.5
98245.4
98257.1
98268.8
98280.3
98291.7
98302.7
98313.6
98324.1
98334.2
98344
98353.3
98362.2
98370.6
98378.6
98386.1
98393.1
98399.6
98405.6
98411.1
98416.2
98420.8
98425
98428.7
98432.1
98435.1
98437.7
98440.1
98442.1
98443.8
98445.3
98446.5
98447.5
98448.1
98448.5
98448.7
98448.7
98448.3
98447.9
98447.2
98446.4
98445.6
98444.9
98444.3
98444
98444.1
98444.9
98446.6
98449.4
98453.4
98459
98466.2
98475.5
98486.8
98500.4
98516.2
98534.5
98555.2
98578.3
98603.8
98631.5
98661.6
98693.8
98728
98764.1
98802
98841.4
98882.3
98924.3
98967.2
99010.8
99054.6
99098.4
99141.7
99184.1
99225
99263.8
99299.7
99332.2
99360.1
99383.3
99400.7
99411.4
99415
99411.3
99399.5
99380
99352.1
99317
99274.1
99225.7
99171
99113.2
99050.7
98987.3
98920.4
98852.3
98204
98203.9
98203.4
98202.4
98201.2
98199.5
98197.6
98195.4
98192.8
98190
98187
98183.8
98180.4
98176.8
98173.2
98169.4
98165.6
98161.6
98157.7
98153.6
98149.5
98145.4
98141.2
98136.9
98132.7
98128.3
98124
98119.6
98115.2
98110.8
98106.4
98101.9
98097.5
98093
98088.6
98084.3
98079.9
98075.6
98071.4
98067.2
98063.1
98059.1
98055.2
98051.4
98047.8
98044.4
98041.1
98038.1
98035.4
98032.9
98030.7
98028.8
98027.3
98026
98025.2
98024.8
98024.9
98025.4
98026.4
98027.9
98029.9
98032.4
98035.5
98039.1
98043.2
98048
98053.2
98059.1
98065.5
98072.4
98079.7
98087.6
98095.9
98104.7
98113.8
98123.2
98133
98143
98153.2
98163.6
98174.1
98184.7
98195.4
98206.1
98216.8
98227.4
98237.9
98248.2
98258.3
98268.2
98277.9
98287.2
98296.2
98304.8
98313
98320.8
98328.1
98335
98341.5
98347.5
98353.1
98358.2
98362.9
98367.1
98371
98374.4
98377.5
98380.3
98382.7
98384.8
98386.7
98388.3
98389.6
98390.6
98391.4
98392
98392.2
98392.2
98392
98391.4
98390.6
98389.6
98388.3
98386.8
98385.1
98383.4
98381.8
98380.2
98378.9
98378.2
98378.2
98379.1
98380.9
98384.2
98388.9
98395.4
98403.8
98414.2
98426.7
98441.4
98458.3
98477.5
98499
98522.6
98548.4
98576.3
98606.1
98637.8
98671.3
98706.3
98742.8
98780.5
98819.1
98858.4
98898.1
98938
98977.6
99016.4
99053.8
99089.6
99122.8
99152.9
99179
99200.9
99217.6
99228.5
99233.2
99231.5
99222.6
99206.8
99183.3
99153.5
99116.4
99074.3
99026.2
98975.5
98919.9
98863.7
98803.7
98742.9
98179.9
98179.8
98179.4
98178.6
98177.5
98176.1
98174.4
98172.4
98170.2
98167.7
98164.9
98162
98158.9
98155.7
98152.4
98149
98145.5
98141.9
98138.3
98134.6
98130.9
98127.2
98123.4
98119.6
98115.8
98112
98108.1
98104.3
98100.4
98096.5
98092.6
98088.7
98084.8
98080.9
98077.1
98073.2
98069.4
98065.6
98061.8
98058.1
98054.4
98050.8
98047.2
98043.8
98040.5
98037.3
98034.4
98031.6
98029
98026.6
98024.4
98022.5
98020.9
98019.7
98018.7
98018.2
98018
98018.3
98018.9
98020.1
98021.6
98023.7
98026.3
98029.3
98032.9
98036.9
98041.5
98046.6
98052.2
98058.3
98064.9
98071.9
98079.3
98087.1
98095.2
98103.7
98112.4
98121.3
98130.5
98139.7
98149.1
98158.6
98168.1
98177.6
98187.1
98196.4
98205.7
98214.8
98223.7
98232.3
98240.7
98248.8
98256.6
98264
98271
98277.6
98283.8
98289.7
98295.1
98300.1
98304.7
98308.9
98312.7
98316.1
98319.1
98321.9
98324.2
98326.3
98328.1
98329.7
98331
98332.1
98332.9
98333.5
98333.8
98333.9
98333.7
98333.2
98332.4
98331.4
98330
98328.3
98326.3
98323.9
98321.4
98318.6
98315.8
98313
98310.3
98308
98306.2
98305.1
98304.8
98305.6
98307.8
98311.5
98316.9
98324.1
98333.2
98344.3
98357.4
98372.7
98390.2
98409.7
98431.1
98454.6
98480
98507.5
98536.5
98567.1
98599.1
98632.5
98666.7
98701.7
98737.3
98773.3
98809
98843.9
98877.7
98910.1
98940.4
98968
98991.7
99012
99027.7
99038.5
99043.9
99043.8
99037.3
99024.9
99005.5
98980.6
98949.1
98913.2
98871.9
98828.2
98779.7
98730.9
98678.1
98625
98157
98157
98156.7
98156.1
98155.2
98154
98152.5
98150.8
98148.8
98146.6
98144.2
98141.7
98138.9
98136.1
98133.1
98130
98126.8
98123.6
98120.4
98117.1
98113.8
98110.4
98107.1
98103.7
98100.4
98097
98093.6
98090.2
98086.8
98083.4
98080
98076.5
98073.1
98069.7
98066.3
98062.9
98059.5
98056.2
98052.8
98049.4
98046.1
98042.8
98039.6
98036.5
98033.4
98030.5
98027.7
98025.1
98022.6
98020.3
98018.2
98016.3
98014.7
98013.3
98012.2
98011.5
98011.1
98011.1
98011.5
98012.2
98013.4
98015
98017.1
98019.6
98022.5
98026
98029.9
98034.3
98039.1
98044.4
98050.1
98056.2
98062.7
98069.6
98076.8
98084.2
98091.9
98099.8
98107.8
98116
98124.2
98132.6
98140.9
98149.2
98157.4
98165.5
98173.5
98181.3
98188.9
98196.3
98203.5
98210.3
98216.8
98223
98228.8
98234.3
98239.4
98244.1
98248.4
98252.3
98256
98259.2
98262.1
98264.7
98266.9
98268.9
98270.5
98272
98273.1
98274.1
98274.8
98275.3
98275.6
98275.6
98275.4
98274.9
98274.2
98273.1
98271.8
98270.1
98268.1
98265.7
98262.9
98259.7
98256.2
98252.4
98248.4
98244.3
98240.3
98236.3
98232.7
98229.7
98227.3
98225.8
98225.4
98226.3
98228.8
98232.8
98238.5
98246.2
98255.7
98267.2
98280.7
98296.2
98313.5
98332.8
98353.9
98377.1
98401.9
98428.1
98455.9
98484.9
98514.8
98545.7
98577.2
98609.1
98640.7
98671.8
98702
98730.8
98757.8
98782.6
98803.9
98822.1
98836.4
98846.7
98852.3
98853.3
98848.7
98839.1
98823.4
98802.9
98776.6
98746.6
98711.9
98675
98633.5
98592
98546.6
98501.3
98136.4
98136.5
98136.3
98135.8
98135
98134.1
98132.8
98131.4
98129.8
98127.9
98125.8
98123.6
98121.2
98118.7
98116.1
98113.3
98110.6
98107.7
98104.8
98101.9
98099
98096.1
98093.1
98090.2
98087.2
98084.2
98081.2
98078.2
98075.2
98072.2
98069.1
98066.1
98063.1
98060
98057
98054
98051
98047.9
98044.9
98041.8
98038.8
98035.8
98032.8
98029.9
98027.1
98024.3
98021.7
98019.1
98016.7
98014.4
98012.3
98010.4
98008.7
98007.3
98006.1
98005.2
98004.6
98004.3
98004.4
98004.8
98005.6
98006.8
98008.4
98010.4
98012.8
98015.6
98018.9
98022.6
98026.7
98031.2
98036.1
98041.4
98047
98053
98059.2
98065.7
98072.4
98079.2
98086.2
98093.3
98100.4
98107.6
98114.7
98121.8
98128.8
98135.7
98142.5
98149.1
98155.5
98161.6
98167.5
98173.1
98178.4
98183.3
98188
98192.3
98196.2
98199.8
98203
98205.9
98208.5
98210.8
98212.8
98214.5
98216
98217.1
98218
98218.7
98219.2
98219.5
98219.6
98219.5
98219.2
98218.6
98217.8
98216.8
98215.4
98213.7
98211.7
98209.4
98206.6
98203.4
98199.8
98195.7
98191.3
98186.4
98181.3
98175.9
98170.6
98165.1
98159.8
98154.9
98150.5
98146.8
98144
98142.3
98141.9
98143
98145.5
98149.8
98155.8
98163.7
98173.5
98185.3
98198.8
98214.1
98231.2
98250.4
98271.1
98293.3
98316.8
98341.7
98367.5
98394.4
98421.8
98449.7
98477.4
98504.7
98531
98556.3
98579.9
98601.6
98620.3
98636.2
98648.6
98657.7
98662.9
98664.4
98661.1
98653.6
98641
98624.5
98602.8
98578.4
98549.7
98519.2
98484.5
98450.2
98411.9
98374.5
98118.6
98118.7
98118.6
98118.2
98117.6
98116.9
98115.9
98114.7
98113.3
98111.8
98110.1
98108.2
98106.2
98104
98101.8
98099.4
98097
98094.6
98092.1
98089.6
98087
98084.4
98081.9
98079.3
98076.7
98074
98071.4
98068.7
98066
98063.3
98060.6
98057.9
98055.2
98052.5
98049.7
98047
98044.2
98041.4
98038.6
98035.8
98032.9
98030.1
98027.3
98024.5
98021.8
98019.2
98016.6
98014.1
98011.7
98009.4
98007.3
98005.3
98003.6
98002
98000.7
97999.6
97998.8
97998.2
97998
97998.1
97998.6
97999.4
98000.6
98002.1
98004
98006.3
98009
98012.1
98015.5
98019.3
98023.5
98027.9
98032.8
98037.8
98043.2
98048.7
98054.5
98060.3
98066.3
98072.4
98078.4
98084.5
98090.6
98096.5
98102.4
98108.1
98113.7
98119.1
98124.3
98129.2
98133.9
98138.3
98142.4
98146.1
98149.6
98152.7
98155.5
98158
98160.2
98162.1
98163.6
98165
98166.1
98166.9
98167.5
98167.8
98168
98167.9
98167.7
98167.3
98166.7
98165.8
98164.9
98163.7
98162.2
98160.5
98158.5
98156.1
98153.4
98150.3
98146.7
98142.8
98138.3
98133.3
98127.9
98122
98115.8
98109.3
98102.6
98095.8
98088.9
98082.3
98076
98070.3
98065.3
98061.1
98058.2
98056.4
98056
98057.3
98060.1
98064.8
98071.1
98079.4
98089.4
98101.2
98114.7
98130.1
98147.1
98165.6
98185.3
98206.3
98228.3
98251.2
98274.8
98298.7
98322.5
98346
98368.6
98390.1
98410.2
98428.7
98444.5
98457.7
98467.9
98475.3
98479.4
98480.6
98478
98472.1
98462
98448.8
98431.1
98411.6
98388.3
98363.8
98335.3
98307.8
98276.4
98246.5
98103.9
98104.1
98104
98103.8
98103.3
98102.8
98102
98101.1
98100
98098.8
98097.4
98095.9
98094.2
98092.4
98090.6
98088.6
98086.6
98084.5
98082.4
98080.3
98078.1
98075.9
98073.7
98071.5
98069.2
98066.9
98064.5
98062.1
98059.7
98057.3
98054.8
98052.4
98049.8
98047.3
98044.8
98042.2
98039.6
98036.9
98034.3
98031.6
98028.8
98026.1
98023.4
98020.7
98018
98015.4
98012.8
98010.3
98007.9
98005.6
98003.4
98001.3
97999.4
97997.7
97996.2
97995
97993.9
97993.2
97992.7
97992.6
97992.7
97993.2
97993.9
97995.1
97996.5
97998.4
98000.5
98003
98005.9
98009
98012.5
98016.3
98020.4
98024.7
98029.2
98033.9
98038.8
98043.8
98048.8
98053.9
98059
98064.1
98069.1
98074
98078.8
98083.4
98087.9
98092.2
98096.2
98100
98103.5
98106.7
98109.7
98112.3
98114.7
98116.7
98118.4
98119.8
98121
98121.8
98122.4
98122.8
98122.9
98122.8
98122.5
98122
98121.3
98120.5
98119.5
98118.3
98117
98115.4
98113.7
98111.8
98109.6
98107.2
98104.4
98101.3
98097.8
98093.9
98089.6
98084.8
98079.5
98073.6
98067.3
98060.5
98053.3
98045.6
98037.7
98029.6
98021.4
98013.3
98005.3
97997.7
97990.8
97984.4
97979.1
97974.9
97971.9
97970.4
97970.5
97972.2
97975.5
97980.7
97987.6
97996.2
98006.5
98018.7
98032.3
98047.5
98063.6
98081.1
98099.5
98118.7
98138.7
98158.9
98178.8
98198.7
98217.4
98235.1
98251.6
98266.5
98279.4
98289.6
98297.2
98302.5
98304.8
98305
98302.4
98297.5
98289.2
98278.6
98264.4
98249
98230.4
98211.3
98188.5
98167.4
98142.4
98119.6
98092.5
98092.7
98092.7
98092.6
98092.3
98091.9
98091.4
98090.7
98089.9
98088.9
98087.8
98086.6
98085.3
98084
98082.5
98081
98079.4
98077.7
98076
98074.3
98072.5
98070.6
98068.8
98066.8
98064.9
98062.8
98060.7
98058.6
98056.4
98054.2
98051.9
98049.6
98047.2
98044.8
98042.3
98039.8
98037.3
98034.7
98032.1
98029.4
98026.7
98024
98021.2
98018.5
98015.8
98013.1
98010.5
98007.9
98005.4
98003
98000.7
97998.5
97996.5
97994.7
97993
97991.6
97990.4
97989.4
97988.7
97988.3
97988.2
97988.3
97988.8
97989.6
97990.7
97992.1
97993.8
97995.8
97998.1
98000.8
98003.7
98006.9
98010.3
98013.9
98017.7
98021.7
98025.8
98029.9
98034.1
98038.4
98042.6
98046.7
98050.8
98054.8
98058.6
98062.2
98065.6
98068.9
98071.8
98074.5
98077
98079.1
98081
98082.5
98083.8
98084.8
98085.5
98085.8
98085.9
98085.8
98085.4
98084.8
98084
98083
98081.8
98080.5
98078.9
98077.3
98075.4
98073.4
98071.3
98069
98066.5
98063.8
98060.8
98057.6
98054
98050.1
98045.8
98041.1
98036
98030.4
98024.2
98017.5
98010.4
98002.6
97994.4
97985.8
97976.9
97967.6
97958.2
97948.7
97939.3
97930.1
97921.4
97913.2
97905.8
97899.5
97894.3
97890.5
97888.1
97887.3
97888
97890.6
97894.7
97900.6
97908.1
97917.3
97927.9
97940
97953.1
97967.4
97982.5
97998.4
98014.9
98031.5
98047.9
98064.2
98079.1
98092.9
98105.6
98116.9
98126.5
98133.6
98138.3
98141.2
98141.4
98140
98136.8
98132.1
98124.8
98116.3
98104.9
98092.9
98078.2
98063.8
98046.2
98030.8
98011.6
97995.6
98084
98084.3
98084.4
98084.3
98084.2
98084
98083.7
98083.3
98082.7
98082.1
98081.4
98080.5
98079.6
98078.7
98077.6
98076.5
98075.3
98074.1
98072.8
98071.5
98070.1
98068.6
98067
98065.4
98063.7
98061.9
98060
98058.1
98056
98053.9
98051.8
98049.5
98047.2
98044.9
98042.4
98039.9
98037.4
98034.7
98032.1
98029.3
98026.6
98023.8
98020.9
98018.1
98015.3
98012.5
98009.8
98007.1
98004.4
98001.9
97999.5
97997.1
97995
97993
97991.2
97989.6
97988.2
97987
97986.1
97985.5
97985.1
97985.1
97985.3
97985.7
97986.5
97987.6
97988.9
97990.6
97992.5
97994.6
97997.1
97999.7
98002.6
98005.7
98008.9
98012.2
98015.6
98019
98022.5
98026
98029.4
98032.8
98036
98039.1
98042
98044.7
98047.2
98049.5
98051.4
98053.1
98054.6
98055.7
98056.6
98057.1
98057.4
98057.4
98057
98056.4
98055.5
98054.4
98053
98051.5
98049.8
98047.8
98045.8
98043.5
98041.2
98038.6
98035.9
98033.1
98030.1
98026.9
98023.6
98020
98016.2
98012.2
98007.7
98003
97997.9
97992.4
97986.5
97980
97973.1
97965.6
97957.6
97949.1
97940.1
97930.6
97920.7
97910.6
97900.1
97889.5
97878.8
97868.3
97858.1
97848.3
97839.3
97831.2
97824.1
97818.3
97813.9
97810.9
97809.5
97809.8
97811.7
97815.1
97820.1
97826.7
97834.6
97843.9
97854.2
97865.7
97877.8
97890.7
97903.9
97917.2
97930.2
97942.8
97954
97964.2
97973.1
97980.7
97986.7
97990.6
97992.3
97992.7
97990.5
97987.1
97982.6
97977.4
97970.7
97963.4
97954.1
97944.8
97933.4
97923.1
97910
97899.7
97885.7
97875.9
98078.1
98078.3
98078.5
98078.6
98078.6
98078.6
98078.4
98078.3
98078
98077.8
98077.4
98077.1
98076.6
98076.1
98075.5
98074.9
98074.2
98073.4
98072.6
98071.6
98070.6
98069.4
98068.2
98066.9
98065.4
98063.8
98062.1
98060.3
98058.4
98056.4
98054.3
98052
98049.7
98047.3
98044.8
98042.3
98039.6
98036.9
98034.1
98031.2
98028.3
98025.4
98022.4
98019.5
98016.5
98013.5
98010.6
98007.7
98004.9
98002.2
97999.6
97997.2
97994.9
97992.7
97990.7
97989
97987.4
97986.1
97985.1
97984.2
97983.7
97983.4
97983.4
97983.6
97984.2
97985
97986
97987.4
97988.9
97990.7
97992.8
97995
97997.4
98000
98002.7
98005.5
98008.3
98011.2
98014
98016.8
98019.6
98022.2
98024.7
98027
98029.1
98031
98032.6
98034
98035.1
98035.9
98036.4
98036.7
98036.6
98036.2
98035.5
98034.5
98033.3
98031.7
98029.9
98027.8
98025.5
98023
98020.4
98017.5
98014.6
98011.5
98008.2
98004.8
98001.2
97997.5
97993.6
97989.6
97985.4
97980.9
97976.2
97971.3
97966
97960.5
97954.6
97948.2
97941.5
97934.2
97926.5
97918.3
97909.6
97900.4
97890.7
97880.5
97869.8
97858.9
97847.6
97836
97824.4
97812.8
97801.3
97790.3
97779.9
97770.4
97761.8
97754.4
97748.3
97743.6
97740.4
97738.7
97738.5
97739.9
97742.7
97747
97752.6
97759.4
97767.3
97776.3
97785.8
97795.7
97805.8
97815.9
97825.6
97834.6
97842.3
97848.9
97854
97857.9
97860.2
97860.7
97859.4
97857.1
97852.5
97847
97840.9
97834.6
97827.8
97821.3
97813.3
97806.1
97797.3
97790.5
97781.1
97775.3
97765.9
97761.7
98073.7
98074
98074.2
98074.4
98074.5
98074.7
98074.9
98075.1
98075.3
98075.5
98075.7
98075.8
98076
98076
98076
98075.8
98075.6
98075.3
98074.8
98074.3
98073.6
98072.8
98071.8
98070.7
98069.5
98068.1
98066.5
98064.8
98062.9
98060.9
98058.8
98056.6
98054.2
98051.7
98049.2
98046.5
98043.7
98040.8
98037.9
98034.8
98031.7
98028.6
98025.5
98022.3
98019.1
98016
98012.9
98009.8
98006.9
98004
98001.2
97998.6
97996.1
97993.8
97991.7
97989.8
97988.1
97986.7
97985.5
97984.5
97983.8
97983.4
97983.2
97983.3
97983.6
97984.2
97985
97986.1
97987.5
97989
97990.7
97992.6
97994.7
97996.9
97999.1
98001.5
98003.8
98006.2
98008.5
98010.8
98012.9
98014.9
98016.7
98018.3
98019.8
98020.9
98021.8
98022.4
98022.7
98022.7
98022.4
98021.7
98020.8
98019.6
98018
98016.2
98014
98011.5
98008.8
98005.8
98002.6
97999.3
97995.7
97992
97988.2
97984.2
97980
97975.7
97971.3
97966.6
97961.9
97957
97951.8
97946.5
97940.9
97935.1
97929
97922.6
97915.9
97908.8
97901.3
97893.3
97884.8
97876
97866.7
97856.9
97846.5
97835.7
97824.5
97812.9
97800.9
97788.7
97776.3
97763.9
97751.5
97739.5
97728.1
97717.5
97707.6
97698.9
97691.4
97685.3
97680.5
97677.2
97675.3
97674.9
97675.9
97678.3
97681.8
97686.4
97692.1
97698.9
97706
97713.1
97720.3
97727.1
97733.8
97739.5
97743.8
97746.9
97748.2
97748.4
97747
97744
97739.6
97734.4
97727.4
97719.7
97711.7
97704.3
97696.9
97690.5
97683.2
97677.6
97670.8
97666.7
97660.4
97658.7
97653.3
97654
98069.9
98070.1
98070.3
98070.5
98070.7
98071.3
98071.9
98072.7
98073.5
98074.4
98075.3
98076.2
98076.9
98077.6
98078.2
98078.6
98078.9
98079.1
98079
98078.8
98078.5
98077.9
98077.2
98076.3
98075.2
98074
98072.5
98070.8
98069
98067
98064.8
98062.5
98060.1
98057.5
98054.8
98052
98049.1
98046
98042.9
98039.7
98036.4
98033.1
98029.7
98026.4
98023
98019.6
98016.3
98013.1
98010
98006.9
98004
98001.2
97998.6
97996.2
97994
97992
97990.2
97988.6
97987.3
97986.2
97985.4
97984.9
97984.6
97984.5
97984.7
97985.2
97985.9
97986.8
97987.9
97989.2
97990.7
97992.4
97994.2
97996
97998
97999.9
98001.9
98003.8
98005.7
98007.4
98009
98010.5
98011.7
98012.8
98013.5
98014
98014.3
98014.2
98013.7
98013
98012
98010.6
98008.8
98006.8
98004.4
98001.7
97998.8
97995.5
97991.9
97988.1
97984.1
97979.9
97975.5
97970.9
97966.2
97961.4
97956.4
97951.2
97945.9
97940.4
97934.8
97929
97923
97916.7
97910.3
97903.6
97896.7
97889.6
97882
97874.2
97865.9
97857.3
97848.3
97838.8
97828.9
97818.6
97807.8
97796.5
97784.9
97772.8
97760.3
97747.5
97734.5
97721.4
97708.5
97695.9
97683.7
97672.2
97661.3
97651.5
97642.9
97635.5
97629.3
97624.6
97621.3
97619.4
97618.9
97619.6
97621.3
97624
97627.8
97632.4
97637.3
97641.9
97646.2
97650.1
97653.7
97656.3
97657.5
97657.2
97654.9
97651.3
97646.2
97639.9
97632.2
97624
97614.6
97604.7
97594.9
97586.1
97577.8
97571.1
97564.3
97559.7
97554.4
97552.4
97548.7
97550.4
97548.6
97553.6
98065
98065.1
98065.1
98065.4
98066.1
98067.4
98068.8
98070.6
98072.4
98074.2
98076
98077.7
98079.2
98080.6
98081.8
98082.8
98083.5
98084.1
98084.4
98084.5
98084.5
98084.2
98083.6
98082.9
98081.9
98080.7
98079.3
98077.7
98075.9
98073.9
98071.7
98069.3
98066.8
98064.1
98061.3
98058.3
98055.2
98052
98048.7
98045.3
98041.8
98038.3
98034.8
98031.2
98027.7
98024.2
98020.7
98017.3
98014
98010.8
98007.8
98004.9
98002.2
97999.7
97997.3
97995.2
97993.4
97991.7
97990.3
97989.2
97988.3
97987.7
97987.3
97987.2
97987.3
97987.6
97988.2
97989
97990
97991.2
97992.5
97993.9
97995.5
97997.1
97998.7
98000.4
98002
98003.5
98004.9
98006.3
98007.4
98008.4
98009.1
98009.6
98009.8
98009.7
98009.4
98008.6
98007.6
98006.2
98004.4
98002.3
97999.9
97997.1
97994
97990.5
97986.8
97982.8
97978.5
97973.9
97969.1
97964.1
97958.9
97953.5
97948
97942.3
97936.5
97930.6
97924.4
97918.1
97911.7
97905
97898.2
97891.1
97883.9
97876.5
97868.8
97860.9
97852.7
97844.1
97835.2
97826
97816.5
97806.5
97796.2
97785.4
97774.2
97762.6