/*--------------------------------*- C++ -*----------------------------------*\
| =========                 |                                                 |
| \\      /  F ield         | OpenFOAM: The Open Source CFD Toolbox           |
|  \\    /   O peration     | Version:  dev                                   |
|   \\  /    A nd           | Web:      http://www.openfoam.org               |
|    \\/     M anipulation  |                                                 |
\*---------------------------------------------------------------------------*/
FoamFile
{
    version     2.0;
    format      ascii;
    class       volScalarField;
    object      rho;
    location    "9.157";
}
// * * * * * * * * * * * * * * * * * * * * * * * * * * * * * * * * * * * * * //

dimensions      [1 -3 0 0 0 0 0];

internalField   nonuniform List<scalar> 
12225
(
1.16077
1.15831
1.15795
1.15795
1.158
1.15782
1.15793
1.1575
1.15756
1.15681
1.15696
1.15574
1.15615
1.1542
1.15552
1.15075
1.15648
1.14279
1.15911
1.15651
1.15725
1.15762
1.1582
1.15802
1.15827
1.15762
1.15793
1.15641
1.1576
1.15478
1.15689
1.15332
1.15559
1.15141
1.15504
1.14163
1.15877
1.15646
1.15743
1.15779
1.15877
1.15846
1.15941
1.15811
1.15947
1.15674
1.15889
1.15532
1.1571
1.15502
1.15494
1.1539
1.15339
1.14673
1.15887
1.15602
1.15761
1.15713
1.15894
1.15769
1.15984
1.15744
1.16008
1.15669
1.15972
1.15529
1.15818
1.15468
1.15688
1.15173
1.15551
1.14196
1.15907
1.15525
1.15747
1.15643
1.15864
1.15716
1.15934
1.15709
1.15952
1.15685
1.15943
1.15569
1.15855
1.15501
1.15738
1.15406
1.15976
1.1469
1.15908
1.15446
1.15739
1.15605
1.15849
1.15702
1.15899
1.15694
1.15955
1.1568
1.15893
1.15589
1.15843
1.15543
1.15742
1.15477
1.15839
1.15519
1.15813
1.15475
1.15663
1.15645
1.15759
1.15734
1.1582
1.15762
1.15857
1.15742
1.15736
1.15682
1.1568
1.15587
1.15586
1.15485
1.15479
1.15522
1.15775
1.15439
1.15609
1.15562
1.15685
1.15644
1.15749
1.15708
1.15771
1.15644
1.15684
1.15591
1.15585
1.15463
1.15473
1.15406
1.1534
1.15264
1.15675
1.15405
1.15543
1.15538
1.15617
1.15619
1.15673
1.15667
1.15678
1.15618
1.15584
1.15553
1.15498
1.15427
1.15376
1.1535
1.15259
1.15221
1.15628
1.15322
1.15464
1.15437
1.15531
1.15526
1.15575
1.15547
1.15574
1.15499
1.15485
1.15437
1.15388
1.15315
1.15258
1.15228
1.15146
1.15081
1.15531
1.15225
1.15344
1.15331
1.15404
1.15413
1.15452
1.15424
1.15425
1.15388
1.15357
1.15299
1.15271
1.15185
1.15134
1.15101
1.15021
1.14965
1.15416
1.15091
1.15206
1.15192
1.1526
1.15259
1.15282
1.15258
1.15268
1.1521
1.15182
1.15141
1.1509
1.15018
1.14968
1.14902
1.14861
1.1477
1.15261
1.14929
1.1501
1.15015
1.15054
1.15065
1.15082
1.15068
1.15064
1.15025
1.14972
1.14901
1.14879
1.14807
1.14733
1.14679
1.14637
1.14554
1.15037
1.14701
1.14754
1.1478
1.14801
1.14815
1.14818
1.14815
1.14796
1.14754
1.14703
1.14633
1.14588
1.14513
1.14451
1.14382
1.14331
1.14265
1.14796
1.14447
1.14473
1.14497
1.14496
1.14508
1.14494
1.14485
1.14451
1.14417
1.1436
1.14291
1.14239
1.14178
1.14117
1.14056
1.14001
1.13939
1.14456
1.1409
1.14113
1.1412
1.14109
1.14114
1.14104
1.14102
1.14065
1.14031
1.13967
1.139
1.13827
1.13764
1.13707
1.13644
1.13583
1.13537
1.14066
1.13657
1.13661
1.13668
1.13671
1.13669
1.13659
1.13644
1.13606
1.13566
1.13512
1.13461
1.13396
1.13333
1.13268
1.13207
1.13139
1.13071
1.13611
1.13219
1.13222
1.13225
1.13214
1.13203
1.132
1.13176
1.13155
1.1311
1.13062
1.1301
1.1296
1.12896
1.12832
1.1277
1.12699
1.12632
1.13248
1.12805
1.12788
1.12811
1.12807
1.12804
1.12804
1.12784
1.12773
1.12734
1.12697
1.12641
1.12586
1.12528
1.12468
1.12402
1.12347
1.12271
1.1289
1.12455
1.12433
1.12484
1.12515
1.12521
1.12543
1.12523
1.12499
1.12464
1.1241
1.12371
1.12315
1.12264
1.12203
1.12147
1.12089
1.12022
1.12649
1.12235
1.12177
1.12227
1.12276
1.12269
1.12332
1.12305
1.12299
1.12271
1.12213
1.12183
1.12113
1.1208
1.12018
1.11963
1.11909
1.11839
1.12442
1.12014
1.1199
1.12047
1.12077
1.12098
1.12145
1.12133
1.12139
1.12112
1.12069
1.12032
1.11971
1.11926
1.11876
1.11819
1.11772
1.11705
1.12321
1.1183
1.11859
1.11914
1.11939
1.1199
1.11998
1.12018
1.12013
1.11994
1.11977
1.11931
1.11895
1.11839
1.11785
1.11725
1.11662
1.11601
1.12208
1.11721
1.11763
1.1181
1.11837
1.11882
1.11904
1.11928
1.11932
1.11917
1.11898
1.11851
1.11819
1.11762
1.11719
1.11659
1.11602
1.11545
1.1212
1.11667
1.11684
1.11724
1.11761
1.11801
1.11834
1.11858
1.11866
1.11858
1.11835
1.11801
1.11756
1.11708
1.11654
1.11597
1.11543
1.11479
1.12083
1.11616
1.11632
1.11676
1.11714
1.11754
1.11791
1.1181
1.11817
1.11807
1.11786
1.11754
1.11715
1.11671
1.11621
1.11569
1.11512
1.11454
1.12013
1.11563
1.11602
1.1165
1.11688
1.11726
1.11761
1.11786
1.11794
1.11787
1.11763
1.11729
1.11686
1.11637
1.11585
1.1153
1.11473
1.11415
1.12011
1.11548
1.11576
1.11623
1.11663
1.11701
1.11734
1.11752
1.11754
1.11739
1.11711
1.11674
1.11631
1.11585
1.11537
1.11486
1.11431
1.11373
1.12023
1.11542
1.11561
1.11604
1.11643
1.11676
1.11694
1.11693
1.11679
1.11654
1.11623
1.11588
1.11549
1.11506
1.11461
1.11411
1.1136
1.11304
1.12186
1.11736
1.11688
1.11665
1.11653
1.11645
1.11635
1.1162
1.116
1.11576
1.11548
1.11515
1.11477
1.11435
1.11389
1.1134
1.11286
1.11234
1.14655
1.16937
1.17894
1.18204
1.18255
1.18218
1.18138
1.18042
1.17951
1.17858
1.17747
1.17619
1.17466
1.17301
1.17196
1.17178
1.17137
1.16982
1.16793
1.16703
1.16744
1.1672
1.1655
1.1638
1.16237
1.16066
1.15703
1.15212
1.14979
1.14911
1.14868
1.15045
1.15357
1.15622
1.15784
1.15862
1.15914
1.15977
1.16046
1.16108
1.16163
1.16208
1.16239
1.16256
1.16258
1.16249
1.16234
1.16218
1.162
1.16181
1.16157
1.16126
1.1609
1.16047
1.16009
1.1598
1.15961
1.1595
1.15944
1.15943
1.1595
1.15957
1.15968
1.15972
1.15983
1.15985
1.15975
1.15964
1.15957
1.15957
1.15966
1.15977
1.16016
1.16133
1.16338
1.16615
1.16924
1.17221
1.17512
1.17805
1.18106
1.18396
1.18673
1.18964
1.19262
1.19613
1.2004
1.20572
1.21133
1.21685
1.22217
1.22788
1.23569
1.24412
1.25071
1.25505
1.2608
1.26246
1.26362
1.2679
1.27688
1.28528
1.28091
1.26821
1.25803
1.26129
1.26047
1.26014
1.26366
1.27031
1.27571
1.27714
1.27628
1.27277
1.2675
1.26649
1.27223
1.27637
1.27032
1.26252
1.26166
1.26285
1.25043
1.25305
1.25243
1.25573
1.25915
1.25647
1.26746
1.2689
1.2653
1.25672
1.24478
1.23401
1.22987
1.22938
1.23015
1.22988
1.22977
1.22856
1.22747
1.22752
1.22859
1.23169
1.23526
1.23896
1.24225
1.2453
1.24834
1.251
1.25076
1.24879
1.24623
1.24247
1.23593
1.24514
1.263
1.28209
1.28651
1.26585
1.26657
1.28274
1.29828
1.32299
1.2739
1.19259
1.13744
1.14186
1.15044
1.22426
1.31175
1.34334
1.35932
1.39281
1.38362
1.35974
1.4479
1.55856
1.50527
1.36784
1.14694
1.17615
1.19096
1.19625
1.19767
1.19814
1.19819
1.19799
1.19804
1.19849
1.19859
1.19863
1.19857
1.19687
1.19462
1.19477
1.1956
1.19376
1.19061
1.18802
1.18798
1.18289
1.17202
1.16594
1.16103
1.15906
1.16375
1.1659
1.16653
1.16743
1.16711
1.16582
1.16525
1.16604
1.1669
1.16739
1.16804
1.16846
1.16927
1.1701
1.17077
1.17132
1.17157
1.17156
1.17134
1.17106
1.17071
1.17054
1.17028
1.17008
1.1697
1.1691
1.16811
1.16685
1.16576
1.16526
1.16537
1.16606
1.16714
1.16843
1.17
1.17152
1.17226
1.17247
1.17271
1.17127
1.16927
1.16668
1.16361
1.16073
1.15811
1.15526
1.15293
1.15243
1.15432
1.15896
1.16601
1.17395
1.18079
1.18568
1.19004
1.19458
1.19885
1.20471
1.2118
1.2177
1.22057
1.22471
1.23082
1.23782
1.24285
1.24449
1.25071
1.26278
1.27763
1.28034
1.28743
1.29143
1.28315
1.28516
1.29856
1.33239
1.32043
1.28677
1.27547
1.2683
1.27856
1.28253
1.28768
1.29119
1.29399
1.29164
1.28895
1.28846
1.28742
1.28404
1.28671
1.28373
1.2673
1.27281
1.29856
1.28059
1.25026
1.26888
1.28392
1.29635
1.30397
1.30533
1.31023
1.31856
1.30854
1.30963
1.30628
1.29158
1.27324
1.25949
1.25824
1.26619
1.27667
1.28211
1.27896
1.26955
1.25744
1.25645
1.27066
1.28914
1.30706
1.32288
1.33837
1.35193
1.36418
1.36933
1.35999
1.33704
1.32683
1.35897
1.36409
1.3828
1.42085
1.39059
1.37687
1.40694
1.45058
1.48152
1.32337
1.20697
1.35395
1.27772
1.13625
1.13143
1.26081
1.41254
1.49605
1.58484
1.55476
1.48624
1.62525
1.65862
1.78309
1.55985
1.14189
1.1657
1.18104
1.18908
1.19274
1.19487
1.19688
1.19813
1.19881
1.20073
1.20291
1.20373
1.20653
1.21326
1.21582
1.21124
1.20335
1.1981
1.19528
1.18775
1.17963
1.17544
1.17509
1.17366
1.17032
1.16687
1.16431
1.16131
1.15906
1.1557
1.15324
1.15328
1.15332
1.15341
1.15365
1.15368
1.15369
1.15465
1.15512
1.15562
1.15633
1.15637
1.15651
1.15635
1.15608
1.15572
1.15526
1.15473
1.15397
1.153
1.15214
1.15084
1.1496
1.14806
1.14661
1.14574
1.14505
1.14532
1.14635
1.14775
1.14949
1.15134
1.15243
1.15334
1.15441
1.15273
1.15021
1.14679
1.14244
1.13872
1.13637
1.13502
1.13542
1.13619
1.13797
1.14113
1.1465
1.1549
1.16229
1.16331
1.16345
1.17188
1.18568
1.19696
1.20382
1.20924
1.2158
1.22205
1.228
1.2327
1.24004
1.25053
1.25609
1.26353
1.27728
1.28007
1.27479
1.27514
1.27853
1.28928
1.30521
1.30753
1.29025
1.28457
1.28051
1.29598
1.30482
1.29473
1.29176
1.27516
1.2731
1.26468
1.26627
1.28417
1.30134
1.29018
1.27965
1.26667
1.25144
1.26036
1.32057
1.28373
1.24953
1.28474
1.30441
1.29892
1.29705
1.33149
1.29637
1.31435
1.28293
1.28451
1.2951
1.30279
1.28627
1.27315
1.27264
1.28748
1.30105
1.29901
1.28811
1.28266
1.28203
1.27253
1.26353
1.27989
1.30911
1.33897
1.36918
1.39008
1.42243
1.43834
1.41904
1.38306
1.36795
1.3699
1.32629
1.3402
1.39304
1.4491
1.43318
1.45845
1.50724
1.42928
1.46396
1.18784
1.37193
1.43991
1.24632
1.2189
1.29456
1.39835
1.5061
1.64445
1.62713
1.54511
1.65581
1.65578
1.75285
1.64266
1.13865
1.15739
1.17063
1.17981
1.18562
1.18926
1.19334
1.19643
1.19851
1.20043
1.20497
1.20908
1.21303
1.21906
1.21134
1.19535
1.19109
1.19381
1.18835
1.17774
1.17353
1.1714
1.1678
1.16113
1.15381
1.15033
1.14867
1.14579
1.14354
1.14455
1.14567
1.14682
1.14801
1.14958
1.15032
1.15159
1.15312
1.15355
1.15496
1.1558
1.15588
1.15641
1.15606
1.15608
1.15602
1.15634
1.15659
1.1563
1.1554
1.15417
1.15333
1.15217
1.15188
1.15174
1.1512
1.14967
1.14773
1.14601
1.14448
1.14243
1.14039
1.13925
1.13873
1.13828
1.1383
1.13827
1.13795
1.13797
1.13744
1.13684
1.13624
1.13672
1.14035
1.14435
1.14812
1.15029
1.15143
1.15461
1.1587
1.15568
1.14473
1.14761
1.1713
1.18652
1.18442
1.18244
1.18793
1.19812
1.20354
1.21107
1.22343
1.23806
1.24516
1.25241
1.26407
1.26723
1.27327
1.28146
1.28118
1.28491
1.30077
1.30381
1.29043
1.28029
1.27993
1.3052
1.29732
1.28623
1.26315
1.25205
1.25611
1.25301
1.25104
1.2691
1.27691
1.27817
1.28632
1.27347
1.23144
1.20278
1.24958
1.23658
1.19605
1.30018
1.28915
1.30085
1.27282
1.36548
1.33489
1.3401
1.30328
1.28159
1.28206
1.29396
1.28769
1.28331
1.28896
1.31784
1.3356
1.32674
1.27124
1.23805
1.24428
1.26856
1.27405
1.27112
1.29143
1.31567
1.34713
1.37076
1.42553
1.45755
1.43954
1.40279
1.38912
1.38114
1.30576
1.29392
1.28831
1.46552
1.47191
1.49744
1.56907
1.29432
1.66514
1.11887
1.07505
1.20897
1.15628
1.22103
1.3247
1.36155
1.46341
1.64186
1.65264
1.57863
1.69971
1.69499
1.69583
1.67853
1.13679
1.15187
1.16362
1.17339
1.18057
1.18458
1.18993
1.19311
1.19725
1.20428
1.20779
1.2079
1.20595
1.20104
1.19683
1.19513
1.18677
1.17915
1.17494
1.16976
1.16673
1.15809
1.15083
1.1482
1.14573
1.14478
1.14516
1.14751
1.15067
1.15407
1.15678
1.15959
1.16201
1.16407
1.166
1.1679
1.16888
1.17031
1.17147
1.17279
1.17361
1.1736
1.1738
1.17381
1.1735
1.17393
1.17423
1.17427
1.17388
1.17337
1.17279
1.17201
1.17133
1.17083
1.16977
1.16829
1.16648
1.16452
1.16254
1.15969
1.15659
1.1539
1.15126
1.14857
1.14619
1.14499
1.14401
1.14331
1.14298
1.14307
1.14241
1.14055
1.13887
1.1364
1.13579
1.13795
1.14278
1.14985
1.15574
1.1566
1.14741
1.14295
1.15317
1.15814
1.15061
1.14931
1.15535
1.16749
1.17014
1.17577
1.19987
1.21506
1.22789
1.24774
1.25628
1.26134
1.26737
1.27236
1.27814
1.29299
1.29777
1.28835
1.28286
1.28384
1.29144
1.28918
1.2618
1.24983
1.22691
1.23682
1.23385
1.22624
1.21644
1.22063
1.21728
1.22546
1.22452
1.2155
1.19653
1.19336
1.19762
1.21334
1.2001
1.28778
1.27117
1.3051
1.27661
1.35574
1.39857
1.31485
1.27865
1.27835
1.27687
1.30323
1.29717
1.31341
1.31754
1.35122
1.36533
1.37048
1.31093
1.22794
1.19771
1.2139
1.25746
1.26378
1.27478
1.29309
1.32555
1.33002
1.382
1.44016
1.44034
1.41359
1.40235
1.39847
1.31316
1.29281
1.23261
1.39953
1.49312
1.53983
1.6616
1.35649
1.47391
1.27684
1.52316
1.34228
1.22337
1.20765
1.34343
1.36453
1.44211
1.62572
1.66212
1.59326
1.73612
1.65791
1.69005
1.67875
1.13696
1.15186
1.16543
1.17517
1.18086
1.18308
1.18622
1.1893
1.19246
1.19692
1.19989
1.1983
1.19634
1.20049
1.20083
1.18705
1.17513
1.16832
1.1646
1.16029
1.15572
1.15044
1.14618
1.14512
1.14581
1.14763
1.15171
1.15591
1.15867
1.16162
1.16356
1.16588
1.16648
1.16782
1.16853
1.16879
1.16892
1.16969
1.17028
1.1702
1.17054
1.17075
1.17085
1.171
1.17121
1.17112
1.17073
1.17075
1.17036
1.16946
1.1696
1.16906
1.1682
1.16802
1.16688
1.16631
1.16578
1.16468
1.16417
1.16394
1.16371
1.16287
1.16159
1.16033
1.15892
1.15735
1.15559
1.15371
1.15221
1.15008
1.14927
1.14697
1.1431
1.1359
1.13071
1.13016
1.13492
1.14276
1.14892
1.15368
1.15456
1.15323
1.14473
1.1351
1.13254
1.14651
1.15833
1.16509
1.17743
1.19039
1.1973
1.19867
1.21066
1.22739
1.23723
1.25507
1.26901
1.27137
1.28003
1.29201
1.29914
1.29912
1.2948
1.29489
1.29222
1.26563
1.23913
1.22666
1.22643
1.23638
1.22543
1.22076
1.21693
1.21266
1.2061
1.20438
1.19383
1.1954
1.20506
1.21225
1.21373
1.19735
1.24417
1.31204
1.29317
1.27165
1.27435
1.23085
1.36727
1.24713
1.18554
1.25044
1.2429
1.30629
1.29361
1.33156
1.33055
1.34079
1.32057
1.2769
1.26851
1.2198
1.1999
1.18754
1.2268
1.25287
1.2647
1.27355
1.31651
1.31929
1.33894
1.40822
1.43433
1.40944
1.41762
1.4211
1.33395
1.31284
1.23959
1.28275
1.43145
1.51663
1.67038
1.51243
1.24941
1.32488
1.50214
1.23939
1.23098
1.29197
1.42163
1.41221
1.44953
1.61032
1.65966
1.61611
1.76063
1.68284
1.73737
1.67147
1.13818
1.15337
1.16912
1.17959
1.18483
1.1872
1.18854
1.18799
1.18558
1.18901
1.19056
1.19095
1.19874
1.20733
1.20625
1.18201
1.16388
1.15989
1.15499
1.15154
1.14842
1.1464
1.14724
1.14895
1.15241
1.15588
1.15908
1.16294
1.16438
1.16691
1.16732
1.16753
1.16755
1.16774
1.16764
1.16734
1.16737
1.16784
1.16757
1.16767
1.16776
1.1671
1.16701
1.16655
1.16569
1.1652
1.16442
1.16353
1.16301
1.16163
1.16075
1.15952
1.15848
1.15778
1.15673
1.1558
1.15518
1.15397
1.15303
1.15201
1.15139
1.15073
1.15078
1.15092
1.15115
1.15218
1.15271
1.15285
1.15316
1.15115
1.15013
1.15067
1.15286
1.15046
1.1443
1.14004
1.13827
1.14207
1.14659
1.1462
1.14404
1.1458
1.14259
1.13536
1.13667
1.1537
1.17243
1.18497
1.19939
1.21466
1.22283
1.22251
1.21657
1.2161
1.23031
1.25088
1.26004
1.2617
1.27588
1.29607
1.31414
1.31561
1.30186
1.28138
1.26182
1.24311
1.24198
1.23432
1.24157
1.23636
1.226
1.22886
1.2331
1.23134
1.22998
1.23383
1.23333
1.23396
1.23593
1.22319
1.22684
1.19733
1.23624
1.30063
1.30649
1.2301
1.24861
1.09953
1.23275
1.24254
1.14389
1.24571
1.21214
1.26197
1.24622
1.24962
1.26659
1.25201
1.27954
1.24174
1.25113
1.22389
1.21919
1.19962
1.21186
1.24104
1.25509
1.26354
1.30699
1.31989
1.31746
1.36218
1.42519
1.39335
1.4158
1.44312
1.37352
1.35622
1.26889
1.21962
1.31579
1.36829
1.53072
1.53764
1.17184
1.27345
1.34823
1.22441
1.21426
1.35928
1.4847
1.44164
1.48023
1.62954
1.66155
1.65674
1.76351
1.67096
1.73446
1.69675
1.1396
1.15413
1.16946
1.17985
1.18859
1.19565
1.19416
1.19274
1.19152
1.19058
1.19013
1.2022
1.20912
1.19757
1.19198
1.17653
1.1593
1.16065
1.15742
1.15015
1.14878
1.15019
1.15115
1.15323
1.15627
1.1613
1.16359
1.165
1.16604
1.16555
1.16438
1.16329
1.16244
1.16366
1.1633
1.16432
1.16557
1.1664
1.16728
1.16802
1.16845
1.16864
1.16925
1.16913
1.16923
1.16878
1.16803
1.167
1.16611
1.16451
1.16287
1.16083
1.15862
1.15614
1.15411
1.15199
1.15031
1.14907
1.14801
1.1469
1.14613
1.14523
1.14481
1.14428
1.14397
1.14459
1.14667
1.14932
1.15138
1.15191
1.1487
1.14585
1.14611
1.14812
1.14673
1.14396
1.14098
1.14002
1.14715
1.14811
1.14108
1.13298
1.13069
1.12912
1.13274
1.13956
1.15604
1.17823
1.19496
1.20407
1.21612
1.2297
1.22827
1.22382
1.23237
1.24694
1.25279
1.25739
1.27087
1.29035
1.29811
1.27781
1.25185
1.24152
1.22939
1.22806
1.23517
1.2281
1.22309
1.21315
1.21056
1.21802
1.21607
1.21858
1.22299
1.22916
1.23822
1.23397
1.23247
1.23033
1.23454
1.22226
1.2311
1.28976
1.23469
1.16635
1.21373
1.11628
1.15393
1.27492
1.13644
1.2243
1.2268
1.20187
1.21509
1.20656
1.26817
1.24811
1.30565
1.30792
1.30694
1.26809
1.23412
1.22695
1.2192
1.24451
1.25528
1.24853
1.29089
1.30658
1.30342
1.32599
1.39585
1.37659
1.40952
1.45066
1.40625
1.38989
1.30089
1.22252
1.25086
1.18013
1.27637
1.47509
1.2137
1.22667
1.42794
1.185
1.23914
1.42255
1.53449
1.47357
1.50882
1.66154
1.67325
1.70812
1.77446
1.66557
1.71712
1.74191
1.14112
1.1554
1.17178
1.18394
1.19555
1.20572
1.20727
1.2023
1.20007
1.20102
1.20204
1.21027
1.20709
1.18539
1.17366
1.16178
1.15266
1.15612
1.15564
1.15269
1.15078
1.15261
1.15691
1.16065
1.16273
1.16552
1.16702
1.1658
1.16385
1.16166
1.15968
1.16105
1.16286
1.16497
1.16634
1.16845
1.16929
1.17018
1.17093
1.17113
1.17135
1.1714
1.17154
1.17098
1.17099
1.17028
1.1702
1.16976
1.16937
1.16887
1.16826
1.16711
1.16564
1.16321
1.16016
1.15702
1.15392
1.15136
1.14916
1.14726
1.14559
1.1436
1.14193
1.14051
1.13862
1.13713
1.13744
1.13937
1.14251
1.1476
1.14983
1.14868
1.14473
1.14202
1.14236
1.14132
1.13808
1.13341
1.13666
1.14339
1.14614
1.14222
1.13516
1.12375
1.12857
1.1396
1.15422
1.17563
1.19796
1.20673
1.21901
1.22915
1.22397
1.21774
1.22843
1.24109
1.24531
1.25015
1.2603
1.26982
1.26373
1.24553
1.24351
1.24206
1.2365
1.23294
1.23312
1.21602
1.2092
1.20563
1.21157
1.22277
1.21981
1.23308
1.23963
1.2359
1.24322
1.23767
1.23425
1.23377
1.23638
1.22136
1.234
1.20701
1.18543
1.16512
1.201
1.19159
1.16803
1.28746
1.1677
1.18105
1.25798
1.18518
1.20043
1.19476
1.27707
1.27006
1.28422
1.30742
1.28728
1.25868
1.19479
1.20681
1.21948
1.24347
1.27248
1.25151
1.27416
1.29861
1.29032
1.296
1.37119
1.35233
1.39097
1.45341
1.42453
1.4252
1.36294
1.25782
1.26107
1.12932
1.07328
1.34172
1.24299
1.24497
1.41341
1.10744
1.17978
1.44349
1.53365
1.50031
1.53701
1.66289
1.67333
1.73939
1.7766
1.64283
1.67501
1.74474
1.14394
1.16051
1.18143
1.19682
1.20517
1.20543
1.20342
1.20128
1.2014
1.20553
1.21108
1.20636
1.19531
1.17472
1.16615
1.15921
1.15711
1.1576
1.15314
1.15265
1.15529
1.15723
1.15942
1.1632
1.16646
1.16627
1.16375
1.16008
1.15824
1.15962
1.16332
1.16758
1.16948
1.1703
1.17089
1.17179
1.17077
1.17013
1.16997
1.16971
1.16963
1.1692
1.16907
1.16887
1.16917
1.16871
1.16848
1.16823
1.16801
1.16776
1.16802
1.16828
1.16909
1.16947
1.16882
1.16723
1.16462
1.1618
1.15914
1.15721
1.15548
1.1537
1.15105
1.14949
1.14738
1.14407
1.14179
1.13909
1.13826
1.13836
1.14154
1.14596
1.14742
1.1448
1.14634
1.15069
1.14569
1.13483
1.1309
1.14109
1.14791
1.14751
1.14077
1.12615
1.12236
1.13359
1.15687
1.18031
1.1985
1.20445
1.21925
1.22938
1.21991
1.21407
1.22648
1.2368
1.23765
1.23854
1.24873
1.25151
1.24426
1.23644
1.2453
1.24419
1.23083
1.21739
1.21484
1.19772
1.20292
1.21243
1.23342
1.245
1.24251
1.24995
1.25602
1.25416
1.25458
1.25178
1.24825
1.2425
1.23201
1.23033
1.23359
1.19916
1.23476
1.24264
1.25645
1.24129
1.19697
1.25709
1.21098
1.16606
1.27498
1.16806
1.16694
1.16207
1.21587
1.24513
1.22177
1.27823
1.28354
1.30334
1.22029
1.19089
1.217
1.23161
1.27817
1.26562
1.26367
1.28988
1.28781
1.2777
1.35476
1.32904
1.33239
1.41906
1.42072
1.43419
1.43367
1.3429
1.28416
1.24326
1.05177
1.22732
1.22762
1.22852
1.34651
1.19026
1.28386
1.4773
1.51337
1.49643
1.56245
1.65965
1.66566
1.74993
1.76297
1.67796
1.62272
1.71036
1.14599
1.16175
1.18246
1.19938
1.20762
1.20611
1.20467
1.20376
1.19943
1.19449
1.19947
1.19481
1.18192
1.16806
1.15834
1.15169
1.15547
1.15946
1.15737
1.1572
1.15711
1.15796
1.16192
1.16354
1.16555
1.16562
1.1639
1.16164
1.16279
1.16675
1.1704
1.17167
1.16924
1.1679
1.16741
1.16681
1.1659
1.16595
1.16599
1.16621
1.16669
1.16653
1.16709
1.16739
1.16767
1.16797
1.16804
1.16756
1.16677
1.1653
1.16406
1.16295
1.16258
1.16321
1.16438
1.16504
1.16452
1.16295
1.16043
1.15835
1.15631
1.15492
1.15358
1.15117
1.1499
1.1475
1.14433
1.1402
1.14044
1.13839
1.13538
1.13767
1.14214
1.13619
1.1331
1.14221
1.14559
1.13458
1.12511
1.1356
1.14768
1.14664
1.1345
1.1231
1.11981
1.13318
1.15592
1.18094
1.19768
1.20341
1.21237
1.21853
1.21066
1.21249
1.22418
1.23304
1.2283
1.22617
1.23581
1.24172
1.23018
1.22461
1.22649
1.22728
1.20581
1.19785
1.1968
1.19834
1.21032
1.21999
1.2383
1.24097
1.24045
1.23635
1.24084
1.24006
1.23479
1.23141
1.23556
1.24628
1.22359
1.23357
1.21763
1.23623
1.22373
1.20123
1.22036
1.23826
1.22479
1.22814
1.2289
1.18053
1.27121
1.16411
1.15685
1.19989
1.19927
1.26129
1.21767
1.25925
1.25741
1.31508
1.2579
1.18441
1.20976
1.21884
1.27604
1.284
1.26349
1.28558
1.27795
1.27323
1.34899
1.30425
1.26842
1.3693
1.39146
1.39118
1.44652
1.43738
1.3273
1.35029
1.13246
1.17153
1.22713
1.19965
1.36173
1.1354
1.2929
1.46629
1.4961
1.49535
1.58738
1.68086
1.67484
1.7556
1.76921
1.63157
1.58725
1.66043
1.14828
1.16455
1.18611
1.20179
1.20781
1.20518
1.2012
1.19796
1.19286
1.19213
1.18694
1.1816
1.16959
1.16111
1.15801
1.15601
1.15748
1.15649
1.1518
1.15407
1.15938
1.16207
1.16596
1.16983
1.17101
1.16948
1.16644
1.16477
1.16642
1.17033
1.17205
1.17058
1.16664
1.16554
1.16639
1.16674
1.16588
1.16613
1.16707
1.16731
1.16741
1.16744
1.1675
1.16733
1.16753
1.1679
1.16906
1.17001
1.1702
1.16962
1.16779
1.16573
1.16332
1.16172
1.16162
1.16118
1.16124
1.16018
1.15821
1.15502
1.15245
1.14942
1.14983
1.14987
1.14963
1.14856
1.14565
1.13851
1.13359
1.13631
1.13427
1.13322
1.14225
1.13977
1.13084
1.13606
1.14459
1.13493
1.12363
1.12984
1.14338
1.14099
1.1263
1.11765
1.121
1.14561
1.1689
1.18729
1.20016
1.21065
1.21437
1.21245
1.20354
1.21209
1.22232
1.22691
1.21889
1.21629
1.22543
1.23311
1.21698
1.20027
1.20057
1.20817
1.19941
1.19591
1.1914
1.20421
1.21446
1.22123
1.23475
1.23461
1.2344
1.22576
1.22236
1.22623
1.24355
1.2254
1.20394
1.2299
1.23079
1.19881
1.23259
1.24683
1.21656
1.17868
1.1731
1.19243
1.21715
1.22827
1.23165
1.21582
1.25512
1.15587
1.15059
1.23255
1.19754
1.27186
1.22262
1.25648
1.23467
1.27409
1.25791
1.18595
1.19019
1.1923
1.26398
1.29712
1.26993
1.29335
1.26369
1.26984
1.35177
1.30258
1.24479
1.33472
1.35828
1.34424
1.43506
1.45541
1.37942
1.35992
1.185
1.16181
1.2237
1.20877
1.31923
1.1919
1.3045
1.47159
1.4914
1.50666
1.6018
1.68729
1.68434
1.75227
1.77646
1.63401
1.54102
1.57169
1.15072
1.1673
1.18896
1.20378
1.20844
1.20577
1.20152
1.19726
1.18716
1.18176
1.18206
1.17659
1.17164
1.16606
1.16129
1.16234
1.16577
1.16689
1.16058
1.1558
1.15541
1.15831
1.16091
1.16512
1.16727
1.1665
1.16304
1.16088
1.16216
1.1659
1.16854
1.1694
1.16775
1.16709
1.16723
1.16662
1.16491
1.16366
1.1641
1.16563
1.16751
1.16866
1.16958
1.16896
1.1671
1.16604
1.16623
1.16771
1.16698
1.16666
1.16626
1.16417
1.16238
1.16087
1.16205
1.16105
1.16061
1.16124
1.16167
1.15875
1.15272
1.14483
1.1406
1.14039
1.14453
1.14779
1.14745
1.1464
1.13445
1.13104
1.13093
1.126
1.13197
1.13909
1.13115
1.13244
1.14121
1.13455
1.12432
1.12974
1.13957
1.13135
1.1177
1.11489
1.12366
1.15112
1.17625
1.19162
1.19654
1.20644
1.2074
1.20681
1.2001
1.21277
1.21968
1.2195
1.20992
1.20595
1.21686
1.22305
1.20507
1.18985
1.19194
1.19002
1.18539
1.18148
1.18068
1.1991
1.21613
1.22352
1.22822
1.21831
1.21433
1.22353
1.22161
1.20511
1.23412
1.24654
1.2119
1.2161
1.25131
1.22657
1.18248
1.1973
1.23801
1.24244
1.2324
1.18857
1.1848
1.20385
1.21329
1.21695
1.246
1.165
1.17302
1.24394
1.18774
1.25747
1.2057
1.23876
1.24421
1.24782
1.24347
1.19793
1.18281
1.16773
1.2453
1.29295
1.27899
1.30439
1.25703
1.26545
1.33321
1.32413
1.27477
1.27003
1.26338
1.28073
1.41043
1.44147
1.39252
1.31109
1.18326
1.15512
1.25041
1.21333
1.2999
1.20124
1.299
1.45504
1.49247
1.52684
1.60909
1.68097
1.68171
1.73784
1.78174
1.66133
1.51528
1.47222
1.15197
1.16591
1.18569
1.20197
1.20831
1.20501
1.20221
1.19063
1.1865
1.18172
1.17956
1.17359
1.16803
1.16907
1.16729
1.1686
1.16956
1.17016
1.16943
1.16801
1.16646
1.16677
1.16808
1.17146
1.17412
1.17413
1.17108
1.16712
1.16422
1.16422
1.16542
1.16737
1.16798
1.16757
1.16732
1.16682
1.16675
1.1684
1.17165
1.17412
1.17643
1.17674
1.17696
1.17795
1.17461
1.17215
1.17062
1.17072
1.1684
1.16548
1.16632
1.16417
1.16129
1.15945
1.16003
1.15806
1.15275
1.15256
1.1548
1.15792
1.15394
1.14471
1.13749
1.13383
1.13443
1.14317
1.14358
1.14409
1.13798
1.12857
1.12898
1.12489
1.12153
1.1314
1.12655
1.12449
1.13026
1.12865
1.11806
1.12335
1.13118
1.12306
1.10914
1.10935
1.1239
1.15187
1.17758
1.19333
1.1977
1.20812
1.20181
1.19996
1.19799
1.21284
1.21382
1.214
1.20125
1.19505
1.20112
1.20652
1.19737
1.18922
1.19588
1.18774
1.177
1.17216
1.17702
1.19955
1.22162
1.22494
1.21761
1.19969
1.18193
1.19903
1.22571
1.19194
1.18234
1.23069
1.21381
1.18428
1.22598
1.26241
1.22515
1.1877
1.19661
1.19982
1.21133
1.18217
1.18012
1.18096
1.19721
1.20738
1.21043
1.15772
1.19501
1.25006
1.19188
1.26582
1.2209
1.23862
1.25065
1.23421
1.22824
1.19837
1.18148
1.14986
1.22254
1.26505
1.28433
1.31181
1.25815
1.26073
1.30286
1.32181
1.32714
1.23014
1.16094
1.21237
1.34844
1.38714
1.37715
1.278
1.17852
1.17381
1.27543
1.22207
1.27303
1.2128
1.29917
1.42082
1.47622
1.57328
1.65127
1.71067
1.69077
1.73173
1.79235
1.68922
1.54033
1.4627
1.15369
1.16718
1.18682
1.20338
1.21227
1.20566
1.20655
1.20186
1.182
1.17702
1.17686
1.17671
1.17069
1.1695
1.16923
1.1722
1.17621
1.17499
1.1711
1.16802
1.16599
1.1655
1.16552
1.16761
1.17091
1.17286
1.17168
1.16918
1.16506
1.16186
1.1613
1.16302
1.1649
1.16573
1.16661
1.16742
1.16852
1.17008
1.17365
1.17457
1.17401
1.17398
1.17239
1.17394
1.17291
1.17229
1.17092
1.1711
1.16809
1.16326
1.16207
1.15958
1.15663
1.15838
1.16305
1.1631
1.15488
1.15035
1.15125
1.153
1.15028
1.14098
1.13008
1.12856
1.12714
1.13338
1.14076
1.14029
1.13997
1.12912
1.12512
1.12432
1.11704
1.12396
1.12605
1.12223
1.12734
1.13039
1.11754
1.11696
1.12625
1.12522
1.11115
1.10732
1.11899
1.14324
1.16838
1.18095
1.18906
1.20215
1.19366
1.19499
1.19528
1.21178
1.2066
1.20789
1.19877
1.19053
1.19206
1.18794
1.18405
1.1844
1.18872
1.17725
1.1763
1.17743
1.1908
1.21055
1.21216
1.19666
1.18929
1.19108
1.16821
1.16846
1.22041
1.20727
1.18134
1.2127
1.22528
1.21499
1.19083
1.19544
1.22449
1.21622
1.19178
1.18237
1.18724
1.1807
1.18425
1.18928
1.20955
1.21048
1.19701
1.16583
1.21272
1.23709
1.19381
1.27308
1.22019
1.23929
1.24574
1.21905
1.21743
1.20199
1.19024
1.14382
1.20812
1.22543
1.27173
1.30601
1.25995
1.25455
1.27567
1.29406
1.35398
1.27087
1.1642
1.20662
1.29567
1.32053
1.3496
1.24888
1.1676
1.22004
1.31751
1.22676
1.24332
1.23732
1.29167
1.40669
1.45831
1.62955
1.70366
1.74358
1.71254
1.73456
1.79567
1.72919
1.59804
1.53723
1.15436
1.16498
1.18179
1.19546
1.20654
1.207
1.19565
1.20747
1.19998
1.18568
1.1778
1.17451
1.17152
1.16849
1.16734
1.16827
1.17333
1.17696
1.17559
1.1733
1.17037
1.17017
1.1707
1.17029
1.17037
1.17106
1.17151
1.17109
1.16853
1.16685
1.16649
1.16701
1.16788
1.16831
1.16818
1.16749
1.17073
1.17535
1.17946
1.18031
1.17891
1.1779
1.17228
1.17058
1.16652
1.16621
1.16459
1.1631
1.15828
1.1576
1.16405
1.16286
1.15663
1.15431
1.16062
1.15954
1.1499
1.14227
1.14489
1.14884
1.14547
1.13744
1.12649
1.12163
1.12583
1.12774
1.1329
1.1306
1.13081
1.12719
1.12161
1.12315
1.11864
1.11714
1.12218
1.11745
1.12226
1.12728
1.11777
1.11192
1.12538
1.12742
1.11055
1.09934
1.11076
1.13713
1.16665
1.17903
1.18407
1.19299
1.18258
1.19293
1.19199
1.20907
1.19863
1.19633
1.19708
1.18936
1.1894
1.18301
1.17145
1.17322
1.17078
1.15467
1.15952
1.17267
1.19202
1.1989
1.19709
1.18536
1.17151
1.19349
1.17321
1.15938
1.20003
1.20466
1.19054
1.18468
1.19553
1.21926
1.24043
1.21367
1.17847
1.18278
1.18891
1.18709
1.18132
1.16342
1.16997
1.17943
1.20222
1.18541
1.17825
1.17459
1.2151
1.21335
1.2065
1.28029
1.20662
1.22032
1.22963
1.1956
1.195
1.19452
1.19233
1.14615
1.20472
1.18617
1.24745
1.28978
1.25629
1.24879
1.25824
1.26468
1.35423
1.32635
1.21159
1.24201
1.27292
1.2773
1.32884
1.22643
1.15778
1.2667
1.32947
1.2238
1.22706
1.25125
1.2781
1.40068
1.43526
1.66318
1.71604
1.71311
1.70437
1.71967
1.77683
1.75399
1.64561
1.59073
1.15501
1.16344
1.17948
1.19618
1.205
1.21377
1.20103
1.19356
1.20012
1.19579
1.19155
1.18574
1.18172
1.17716
1.17321
1.17027
1.17004
1.17227
1.17223
1.17113
1.16817
1.16716
1.16861
1.16943
1.17056
1.17214
1.17303
1.17323
1.17309
1.17224
1.17129
1.17121
1.16928
1.16612
1.16507
1.16557
1.17004
1.17364
1.17517
1.17328
1.16775
1.167
1.16209
1.16343
1.16036
1.15774
1.15828
1.16202
1.15906
1.15243
1.15682
1.15852
1.15565
1.15401
1.16142
1.16027
1.14706
1.13574
1.13468
1.13955
1.14064
1.13228
1.12427
1.11676
1.11852
1.12083
1.12518
1.12744
1.12277
1.1209
1.11494
1.11458
1.11719
1.11394
1.11946
1.11384
1.1107
1.11583
1.11468
1.10331
1.11367
1.11926
1.10946
1.09999
1.11332
1.13841
1.16627
1.18068
1.18367
1.18934
1.17616
1.18958
1.19016
1.20135
1.19476
1.1852
1.18636
1.18197
1.18214
1.17888
1.16755
1.1628
1.15817
1.14163
1.14952
1.16516
1.18109
1.18105
1.18553
1.1878
1.15918
1.1731
1.15048
1.14882
1.18653
1.18657
1.19052
1.2038
1.18602
1.18127
1.19127
1.21136
1.19851
1.17073
1.16584
1.18568
1.17478
1.1598
1.16873
1.18781
1.2036
1.17996
1.17104
1.18688
1.22342
1.20945
1.22533
1.26177
1.18556
1.20285
1.22039
1.19114
1.19283
1.19388
1.19105
1.14978
1.19076
1.15099
1.21752
1.26264
1.24147
1.24816
1.25291
1.2405
1.35015
1.33727
1.22673
1.25917
1.26298
1.24773
1.30687
1.2085
1.163
1.28603
1.29339
1.21524
1.23085
1.27117
1.26963
1.37307
1.40526
1.67314
1.70858
1.65855
1.67587
1.69336
1.73677
1.74749
1.6671
1.58741
1.15633
1.16332
1.17519
1.19206
1.19731
1.2084
1.20934
1.19552
1.19142
1.18868
1.18871
1.18799
1.18714
1.1858
1.18348
1.17994
1.17714
1.1764
1.17665
1.17726
1.1762
1.17329
1.17162
1.16986
1.16747
1.16555
1.16541
1.16539
1.16535
1.16565
1.16511
1.16359
1.16331
1.16255
1.16594
1.16986
1.17323
1.17599
1.17467
1.17159
1.16842
1.16827
1.1632
1.16691
1.16542
1.16011
1.15941
1.16331
1.16141
1.15351
1.15734
1.16506
1.16531
1.15829
1.15391
1.15054
1.14346
1.13435
1.12908
1.12521
1.12296
1.12115
1.11647
1.11404
1.11371
1.11607
1.11333
1.1141
1.11212
1.11336
1.11312
1.10722
1.10973
1.10789
1.11203
1.1164
1.1102
1.11511
1.12038
1.10452
1.10431
1.1178
1.11398
1.09659
1.09959
1.12154
1.15137
1.17007
1.17604
1.18044
1.16964
1.1824
1.19166