/*--------------------------------*- C++ -*----------------------------------*\
| =========                 |                                                 |
| \\      /  F ield         | OpenFOAM: The Open Source CFD Toolbox           |
|  \\    /   O peration     | Version:  dev                                   |
|   \\  /    A nd           | Web:      http://www.openfoam.org               |
|    \\/     M anipulation  |                                                 |
\*---------------------------------------------------------------------------*/
FoamFile
{
    version     2.0;
    format      ascii;
    class       volScalarField;
    object      rho_0;
    location    "9.157";
}
// * * * * * * * * * * * * * * * * * * * * * * * * * * * * * * * * * * * * * //

dimensions      [1 -3 0 0 0 0 0];

internalField   nonuniform List<scalar> 
12225
(
1.15493
1.15286
1.15274
1.15292
1.15322
1.1532
1.15355
1.15324
1.1535
1.15281
1.15305
1.15178
1.15214
1.15001
1.15103
1.14617
1.15064
1.13914
1.1534
1.15145
1.15244
1.15299
1.15377
1.15379
1.15422
1.15377
1.15418
1.15286
1.15402
1.1513
1.15329
1.1496
1.15162
1.14724
1.14938
1.14041
1.15313
1.15149
1.15268
1.15325
1.15439
1.15431
1.1554
1.15434
1.15576
1.15324
1.15535
1.15183
1.15361
1.15126
1.15107
1.14974
1.14817
1.14401
1.15326
1.15114
1.15293
1.15267
1.15464
1.15364
1.15591
1.15376
1.15647
1.15326
1.15625
1.15186
1.15474
1.15109
1.15284
1.14761
1.14967
1.13674
1.15355
1.15047
1.1529
1.15207
1.15444
1.1532
1.15552
1.1535
1.15604
1.15353
1.15608
1.1524
1.15521
1.15152
1.15372
1.15032
1.15432
1.14028
1.15367
1.14981
1.15299
1.15182
1.15446
1.15317
1.15532
1.15348
1.15623
1.15356
1.15577
1.15274
1.1553
1.15209
1.15402
1.15124
1.15461
1.15015
1.15294
1.1503
1.15245
1.15242
1.15377
1.15371
1.15476
1.15435
1.15546
1.15434
1.15444
1.15389
1.15387
1.15282
1.1527
1.15142
1.15147
1.15125
1.15277
1.15017
1.15213
1.15183
1.15326
1.15305
1.1543
1.15405
1.15479
1.15363
1.15414
1.15321
1.15312
1.15185
1.15188
1.1509
1.15006
1.14912
1.15204
1.1501
1.15173
1.15184
1.15283
1.15304
1.15378
1.15388
1.15411
1.15361
1.15339
1.15309
1.1525
1.15173
1.15117
1.15068
1.14957
1.14898
1.15194
1.14962
1.1513
1.15119
1.15232
1.15246
1.15311
1.15302
1.1534
1.15276
1.15272
1.15227
1.15174
1.15097
1.15034
1.14988
1.14884
1.14806
1.15142
1.1491
1.15055
1.15058
1.1515
1.15176
1.15232
1.15219
1.15235
1.15208
1.15184
1.15133
1.15102
1.1501
1.14957
1.1491
1.14812
1.14745
1.15083
1.14836
1.14977
1.14978
1.15064
1.15079
1.15118
1.15109
1.15132
1.15084
1.15066
1.15029
1.14976
1.14903
1.14848
1.14775
1.14718
1.14618
1.15019
1.14753
1.14861
1.14878
1.14934
1.1496
1.14992
1.14991
1.15
1.14968
1.14923
1.1486
1.1484
1.14762
1.14687
1.14629
1.14575
1.14481
1.14908
1.14627
1.14706
1.14743
1.14777
1.14805
1.14821
1.14831
1.14822
1.14787
1.14743
1.14679
1.14636
1.14559
1.14495
1.14422
1.14364
1.14288
1.14816
1.14505
1.14553
1.14587
1.14596
1.14619
1.14615
1.14616
1.14591
1.14563
1.1451
1.14446
1.14398
1.14335
1.14272
1.14206
1.14145
1.14073
1.14635
1.14311
1.14354
1.14367
1.14362
1.14375
1.14371
1.14376
1.14344
1.14313
1.14251
1.14185
1.14114
1.14051
1.13992
1.13924
1.13859
1.13805
1.14457
1.14074
1.14096
1.14104
1.14108
1.14108
1.141
1.14086
1.14049
1.1401
1.13956
1.13903
1.13835
1.13769
1.137
1.13633
1.13557
1.13482
1.14236
1.13848
1.13862
1.1386
1.13845
1.13832
1.13824
1.13797
1.13772
1.13722
1.13671
1.13614
1.13558
1.13487
1.13416
1.13345
1.13266
1.13189
1.14066
1.13612
1.13608
1.13624
1.13611
1.13599
1.1359
1.13563
1.13544
1.13496
1.1345
1.13385
1.13321
1.13253
1.13183
1.13107
1.1304
1.12952
1.13857
1.13407
1.13397
1.1344
1.13458
1.13452
1.13461
1.13427
1.13391
1.13343
1.13278
1.13226
1.13158
1.13094
1.13021
1.12953
1.12881
1.128
1.13744
1.13304
1.13253
1.13295
1.13328
1.13308
1.13355
1.1331
1.13289
1.13243
1.1317
1.13125
1.13041
1.12994
1.12915
1.12847
1.12777
1.12692
1.13634
1.13175
1.13154
1.132
1.13213
1.13218
1.13248
1.13216
1.13203
1.13156
1.13094
1.13041
1.12962
1.12903
1.12835
1.12763
1.12699
1.12616
1.13594
1.13057
1.1309
1.1313
1.13139
1.1317
1.13159
1.13159
1.13133
1.13094
1.13056
1.12991
1.12935
1.12861
1.12789
1.12711
1.12631
1.12553
1.13524
1.12993
1.13042
1.13073
1.13082
1.13109
1.1311
1.13113
1.13093
1.13056
1.13016
1.12948
1.12897
1.12819
1.12758
1.12678
1.12604
1.12528
1.13467
1.12973
1.12996
1.13021
1.1304
1.13061
1.13072
1.13073
1.13058
1.13027
1.1298
1.12924
1.12858
1.1279
1.12716
1.12641
1.12567
1.12486
1.13457
1.12947
1.12968
1.12996
1.13016
1.13036
1.13051
1.13046
1.13029
1.12995
1.12951
1.12897
1.12836
1.12772
1.12701
1.1263
1.12553
1.12475
1.13409
1.12911
1.12955
1.12986
1.13006
1.13024
1.13037
1.13037
1.13021
1.12989
1.12942
1.12884
1.12819
1.12749
1.12676
1.12601
1.12526
1.12447
1.13423
1.12906
1.12939
1.1297
1.12991
1.13008
1.13018
1.13012
1.12989
1.12949
1.12898
1.12837
1.12773
1.12705
1.12637
1.12565
1.12491
1.12413
1.1344
1.129
1.12926
1.12955
1.12975
1.12986
1.12981
1.12955
1.12916
1.12867
1.12813
1.12755
1.12694
1.1263
1.12564
1.12494
1.12423
1.12348
1.13642
1.13111
1.13059
1.13019
1.12988
1.12958
1.12925
1.12885
1.12842
1.12794
1.12742
1.12686
1.12627
1.12564
1.12498
1.12428
1.12354
1.12284
1.1436
1.16633
1.17587
1.17896
1.17947
1.17908
1.17827
1.17729
1.17635
1.1754
1.17426
1.17296
1.17141
1.16973
1.16863
1.1684
1.16799
1.16645
1.16453
1.16356
1.16395
1.16377
1.16214
1.16047
1.15909
1.1575
1.15406
1.14922
1.14688
1.14629
1.14587
1.14758
1.15074
1.15361
1.15551
1.15653
1.15725
1.15805
1.15894
1.15978
1.16056
1.16126
1.16182
1.16226
1.16255
1.16273
1.16284
1.16293
1.16301
1.16309
1.16311
1.16308
1.16299
1.16282
1.16268
1.16263
1.16268
1.16281
1.16299
1.16321
1.16352
1.16383
1.16419
1.16448
1.16484
1.16511
1.16527
1.1654
1.16557
1.16582
1.16616
1.16651
1.16712
1.16849
1.17077
1.17382
1.17722
1.18053
1.18379
1.18706
1.19042
1.1937
1.19684
1.20014
1.20352
1.20743
1.21212
1.21793
1.22406
1.23015
1.23609
1.2424
1.25092
1.26018
1.26768
1.27283
1.27946
1.28204
1.28409
1.28937
1.29951
1.30914
1.30551
1.29332
1.28399
1.28833
1.28858
1.28919
1.29356
1.30106
1.30741
1.3097
1.3096
1.30678
1.30193
1.30102
1.3072
1.31219
1.30658
1.29885
1.29863
1.29987
1.28724
1.29048
1.29055
1.29436
1.29857
1.29644
1.30834
1.31116
1.30854
1.30116
1.29041
1.28069
1.27762
1.27849
1.28112
1.28305
1.28531
1.28638
1.28736
1.28938
1.29246
1.29798
1.30451
1.3115
1.3182
1.3246
1.33107
1.33727
1.3404
1.34108
1.34026
1.33735
1.33075
1.34118
1.35976
1.38025
1.38634
1.363
1.36126
1.37727
1.39391
1.42108
1.36705
1.27926
1.22378
1.21663
1.23062
1.31073
1.40649
1.44277
1.46157
1.4971
1.4829
1.45699
1.55398
1.65944
1.58949
1.44042
1.14381
1.1729
1.18767
1.19294
1.19434
1.19479
1.19482
1.1946
1.19461
1.19504
1.1951
1.19511
1.19505
1.19335
1.19103
1.19111
1.19195
1.19017
1.18702
1.18436
1.1844
1.17962
1.16888
1.16278
1.15786
1.15553
1.16006
1.16249
1.16329
1.16435
1.16434
1.16324
1.16261
1.1634
1.16444
1.16512
1.16597
1.16658
1.16754
1.16861
1.16953
1.17037
1.17093
1.17123
1.1713
1.17129
1.17118
1.17127
1.17127
1.17135
1.17129
1.17102
1.17038
1.1694
1.1685
1.16814
1.16838
1.16923
1.17052
1.17202
1.17383
1.17569
1.17679
1.17728
1.17789
1.17685
1.17516
1.17285
1.17002
1.16732
1.16491
1.16227
1.16006
1.15962
1.16158
1.16637
1.17367
1.18201
1.18932
1.19463
1.19939
1.20433
1.20899
1.21527
1.22283
1.22922
1.23257
1.2372
1.24384
1.2514
1.25705
1.25934
1.26624
1.2791
1.29495
1.29842
1.30626
1.31116
1.3037
1.30693
1.32193
1.35687
1.34455
1.3117
1.30187
1.29606
1.30766
1.3122
1.31801
1.32175
1.32535
1.3236
1.32152
1.32211
1.32236
1.319
1.32172
1.31936
1.30256
1.30757
1.33663
1.31827
1.28659
1.30643
1.32289
1.33552
1.34381
1.34741
1.35141
1.36168
1.35187
1.35423
1.35306
1.34047
1.32304
1.31018
1.3105
1.32116
1.33475
1.3428
1.34167
1.33418
1.32398
1.32437
1.34021
1.36238
1.38536
1.4064
1.42736
1.44585
1.46419
1.47445
1.46693
1.44222
1.43022
1.46374
1.46493
1.48291
1.5266
1.50092
1.48368
1.5135
1.56136
1.58774
1.43369
1.28526
1.45468
1.36628
1.21559
1.21596
1.3609
1.52353
1.61421
1.70902
1.6685
1.59646
1.74437
1.76809
1.88602
1.64222
1.13846
1.16218
1.17747
1.18547
1.1891
1.19121
1.19318
1.1944
1.19504
1.19692
1.19906
1.19983
1.20252
1.2092
1.21187
1.20745
1.19958
1.19423
1.1915
1.18417
1.17604
1.17165
1.17126
1.17003
1.16688
1.1635
1.161
1.15805
1.15594
1.15279
1.15017
1.15012
1.15034
1.15059
1.15101
1.15128
1.15139
1.15249
1.15325
1.15394
1.15493
1.15529
1.15571
1.15585
1.15587
1.1558
1.15562
1.15539
1.15495
1.15427
1.15372
1.15273
1.15178
1.15053
1.14927
1.14858
1.14803
1.14839
1.14958
1.15119
1.15317
1.15534
1.15678
1.15794
1.15944
1.15825
1.15606
1.15295
1.1488
1.14516
1.1429
1.14165
1.1422
1.14319
1.14516
1.14851
1.15404
1.16275
1.17068
1.17218
1.17248
1.18105
1.1953
1.20717
1.21445
1.22026
1.2273
1.23407
1.24054
1.24577
1.25377
1.26506
1.27125
1.27943
1.2939
1.29725
1.29274
1.29411
1.2986
1.31065
1.32766
1.32995
1.31317
1.30901
1.30602
1.32386
1.33341
1.3236
1.32037
1.30378
1.30237
1.29437
1.29575
1.31461
1.33384
1.32403
1.31406
1.30102
1.28439
1.29088
1.35393
1.31856
1.28269
1.32138
1.34114
1.33668
1.3331
1.37396
1.33762
1.35651
1.32451
1.32552
1.33758
1.34848
1.33409
1.32291
1.32448
1.34319
1.36028
1.35994
1.34727
1.34163
1.34412
1.33889
1.33159
1.34842
1.38095
1.41515
1.45148
1.47707
1.51833
1.54276
1.526
1.48809
1.47199
1.47254
1.41743
1.42564
1.4749
1.55485
1.54199
1.56673
1.62369
1.50556
1.59462
1.2559
1.43447
1.5292
1.32703
1.31104
1.39695
1.49757
1.6153
1.7661
1.7404
1.65556
1.77068
1.76043
1.84649
1.72931
1.13477
1.15345
1.16663
1.17578
1.18155
1.18515
1.18918
1.19224
1.19428
1.19613
1.20061
1.20466
1.2085
1.21465
1.20731
1.1913
1.18668
1.18943
1.18441
1.17386
1.16942
1.16729
1.16397
1.15767
1.15028
1.14651
1.14495
1.14235
1.13996
1.14086
1.14216
1.1435
1.14481
1.14661
1.14758
1.14894
1.15076
1.15139
1.15294
1.15415
1.15449
1.1553
1.15524
1.15546
1.1556
1.15612
1.15666
1.15677
1.15627
1.15529
1.1547
1.15374
1.15358
1.15371
1.15357
1.15245
1.1508
1.14929
1.14803
1.1463
1.14445
1.14343
1.14311
1.14288
1.14312
1.14337
1.14329
1.14356
1.14331
1.14295
1.14255
1.1431
1.14687
1.15118
1.15532
1.15789
1.15929
1.16271
1.16725
1.16478
1.15389
1.15651
1.18045
1.19631
1.1946
1.19292
1.1987
1.20936
1.21527
1.22335
1.23648
1.25169
1.25947
1.26774
1.27993
1.28376
1.29096
1.29996
1.30045
1.30561
1.32228
1.3253
1.31308
1.30416
1.30482
1.33041
1.3217
1.31156
1.28799
1.27821
1.28269
1.2804
1.27773
1.29559
1.30359
1.30628
1.31571
1.30443
1.26238
1.23134
1.27647
1.26715
1.22503
1.33318
1.32155
1.33689
1.30638
1.40397
1.38019
1.37962
1.34277
1.32142
1.32214
1.33729
1.33339
1.33313
1.341
1.37445
1.39552
1.38984
1.33113
1.29148
1.29591
1.32444
1.33853
1.3371
1.35826
1.38419
1.42042
1.44464
1.50619
1.55067
1.53933
1.50325
1.4901
1.48444
1.39891
1.38046
1.35525
1.55074
1.57742
1.60713
1.69801
1.3775
1.75889
1.20583
1.17178
1.29097
1.2348
1.30707
1.42552
1.45532
1.56479
1.7568
1.76267
1.68735
1.81774
1.79278
1.78518
1.76341
1.13233
1.14736
1.15905
1.16878
1.17593
1.17991
1.18521
1.18834
1.19239
1.19935
1.20284
1.20296
1.20107
1.1962
1.19196
1.19042
1.18225
1.17452
1.17027
1.16512
1.16238
1.1541
1.14656
1.14377
1.14141
1.14043
1.14072
1.14303
1.14627
1.14985
1.15275
1.15574
1.15836
1.16062
1.16272
1.16489
1.1661
1.1677
1.16907
1.17063
1.17184
1.17216
1.1726
1.17293
1.17283
1.17342
1.17402
1.17443
1.17439
1.17419
1.17392
1.17343
1.173
1.17281
1.17212
1.17099
1.16949
1.16779
1.16613
1.16363
1.16075
1.15825
1.15584
1.15338
1.15114
1.15009
1.14933
1.14885
1.14874
1.14911
1.1488
1.14724
1.14583
1.14356
1.14301
1.14527
1.15028
1.15768
1.16406
1.16553
1.15667
1.15219
1.16237
1.16748
1.16028
1.15946
1.1659
1.17842
1.18157
1.18796
1.21271
1.228
1.24166
1.26238
1.27117
1.27733
1.28431
1.28992
1.29693
1.31297
1.31814
1.30947
1.30525
1.30747
1.31585
1.31159
1.28344
1.27188
1.25033
1.26174
1.25893
1.25196
1.24207
1.24531
1.2414
1.24981
1.24859
1.2411
1.22466
1.22287
1.22509
1.24099
1.2311
1.32004
1.30348
1.33606
1.30877
1.3792
1.43783
1.34485
1.30677
1.31302
1.31152
1.34449
1.3395
1.36189
1.3677
1.40237
1.4155
1.41868
1.36557
1.28092
1.24868
1.26184
1.31202
1.32538
1.3381
1.35664
1.3957
1.39976
1.44864
1.51827
1.53101
1.50624
1.49944
1.50113
1.40961
1.38635
1.30811
1.45606
1.57647
1.63632
1.78111
1.47928
1.50021
1.40049
1.68492
1.41798
1.30601
1.30233
1.45255
1.4669
1.54488
1.73501
1.76765
1.70142
1.84953
1.74919
1.7857
1.75755
1.1318
1.14665
1.16012
1.16982
1.17548
1.17769
1.1808
1.18384
1.18693
1.19131
1.19426
1.19268
1.19063
1.19477
1.19562
1.1822
1.1701
1.16308
1.1593
1.15512
1.15069
1.14561
1.14133
1.14008
1.14075
1.14245
1.14644
1.15088
1.15382
1.15695
1.15903
1.16158
1.16241
1.16388
1.16487
1.16539
1.16567
1.16659
1.16752
1.16772
1.16827
1.16877
1.16916
1.16958
1.1701
1.1704
1.17032
1.17064
1.17068
1.17003
1.17045
1.17032
1.16975
1.1699
1.16911
1.16878
1.16858
1.16778
1.16746
1.16748
1.16756
1.16706
1.16605
1.16504
1.16388
1.16257
1.16105
1.15939
1.15814
1.15623
1.15567
1.15374
1.15029
1.14334
1.13814
1.13752
1.14232
1.15046
1.15703
1.1622
1.1635
1.16259
1.15421
1.14448
1.1422
1.15677
1.1692
1.17645
1.18947
1.20307
1.21024
1.21186
1.22423
1.24094
1.25149
1.27069
1.28511
1.28784
1.29769
1.31082
1.31966
1.32137
1.31717
1.31617
1.31255
1.28571
1.26141
1.24896
1.25089
1.26061
1.24984
1.24606
1.24352
1.23929
1.23299
1.23141
1.22084
1.22271
1.23376
1.24071
1.24274
1.22266
1.27233
1.34212
1.32593
1.29535
1.30235
1.23957
1.38406
1.27406
1.2061
1.28047
1.27042
1.33826
1.32612
1.36437
1.36758
1.37418
1.35857
1.31104
1.31209
1.27062
1.2551
1.23964
1.27656
1.30916
1.32417
1.33325
1.38241
1.39005
1.40172
1.47164
1.51577
1.49036
1.50635
1.52061
1.43378
1.41184
1.32745
1.33151
1.4804
1.56819
1.73262
1.63238
1.28117
1.40472
1.55114
1.29529
1.30848
1.40525
1.54043
1.51714
1.55673
1.72085
1.76154
1.72946
1.86635
1.77344
1.82982
1.75033
1.13223
1.14738
1.16305
1.17345
1.1786
1.1809
1.18227
1.18173
1.1793
1.18267
1.18418
1.18447
1.19211
1.20068
1.20049
1.17703
1.15831
1.15403
1.14921
1.14569
1.14262
1.14056
1.14133
1.14298
1.14641
1.15007
1.15327
1.15731
1.15895
1.16164
1.16238
1.16274
1.16293
1.16334
1.1635
1.16344
1.16365
1.1644
1.16444
1.16478
1.16523
1.16488
1.16505
1.16496
1.16441
1.16422
1.1638
1.16319
1.16304
1.16203
1.16146
1.16057
1.1598
1.15944
1.15873
1.15809
1.15781
1.15694
1.15628
1.15553
1.15517
1.15474
1.15501
1.1554
1.15584
1.15711
1.15793
1.15831
1.15896
1.15725
1.15638
1.15706
1.15963
1.15775
1.15186
1.14769
1.14595
1.14985
1.15475
1.15473
1.15268
1.1546
1.15173
1.14475
1.14632
1.16368
1.18299
1.19623
1.21122
1.22686
1.23545
1.23563
1.2297
1.22948
1.24462
1.26559
1.27465
1.27695
1.29216
1.31342
1.33217
1.33258
1.31756
1.29684
1.27696
1.26052
1.2627
1.25566
1.26285
1.25671
1.24715
1.25108
1.25588
1.25508
1.25467
1.25936
1.26048
1.26073
1.26209
1.24863
1.25283
1.22307
1.25885
1.32359
1.32654
1.2458
1.26941
1.1147
1.23979
1.27407
1.16605
1.27227
1.24107
1.28237
1.27119
1.27049
1.29756
1.28075
1.32072
1.29113
1.30355
1.27835
1.27227
1.25564
1.263
1.295
1.31175
1.31812
1.36464
1.38336
1.37827
1.41499
1.49304
1.4635
1.49234
1.53288
1.47195
1.45564
1.36112
1.28436
1.35741
1.3774
1.52296
1.60858
1.23811
1.33078
1.41922
1.28363
1.29103
1.47206
1.59781
1.54221
1.58934
1.74423
1.76197
1.77493
1.86048
1.75155
1.81405
1.78274
1.13281
1.14733
1.16257
1.17285
1.18144
1.1884
1.18693
1.18557
1.18437
1.18344
1.18282
1.19476
1.20203
1.1905
1.18501
1.17032
1.15272
1.1537
1.15111
1.14387
1.14211
1.14353
1.14461
1.14669
1.14952
1.15466
1.15732
1.15882
1.1601
1.15988
1.15891
1.15804
1.15721
1.15864
1.15857
1.1597
1.16122
1.16235
1.16352
1.16458
1.16536
1.16582
1.16675
1.16697
1.16741
1.16738
1.16701
1.16632
1.1658
1.1646
1.16332
1.16164
1.1598
1.15764
1.1559
1.15408
1.15266
1.15169
1.15094
1.15012
1.14964
1.14902
1.14888
1.14864
1.14856
1.14935
1.15161
1.15453
1.15694
1.15792
1.15507
1.15233
1.15267
1.15499
1.15399
1.1515
1.14869
1.1477
1.15508
1.15656
1.14986
1.14178
1.13954
1.13809
1.14201
1.14912
1.16608
1.18891
1.20605
1.21536
1.22798
1.24201
1.24058
1.23649
1.24574
1.2604
1.26627
1.27145
1.28518
1.30423
1.3104
1.28874
1.26418
1.25593
1.2453
1.24533
1.25306
1.2455
1.23955
1.23002
1.22895
1.23754
1.23526
1.23918
1.24437
1.25004
1.25995
1.2553
1.25339
1.2522
1.25644
1.24529
1.25214
1.30198
1.24407
1.1815
1.23101
1.14618
1.1708
1.30484
1.16186
1.24225
1.25973
1.22017
1.23844
1.23034
1.30333
1.28621
1.34415
1.35801
1.35458
1.317
1.27288
1.27254
1.26787
1.2948
1.31259
1.30058
1.33998
1.3613
1.35835
1.37327
1.45146
1.4354
1.47219
1.52711
1.49329
1.4826
1.39914
1.30439
1.31324
1.20512
1.24946
1.50243
1.29413
1.29504
1.51789
1.22417
1.30675
1.52703
1.63153
1.57089
1.61418
1.76582
1.76754
1.82086
1.86407
1.73747
1.78288
1.82118
1.13343
1.14767
1.16385
1.17583
1.18738
1.1976
1.19918
1.19426
1.19199
1.19293
1.19383
1.20204
1.19958
1.17816
1.16623
1.15452
1.14511
1.1482
1.14807
1.14545
1.14347
1.14498
1.14923
1.15325
1.15551
1.1583
1.16011
1.15921
1.15746
1.15555
1.15358
1.15493
1.15692
1.15928
1.16088
1.16328
1.16446
1.16561
1.1667
1.16724
1.16777
1.16813
1.16862
1.16838
1.16876
1.1684
1.16863
1.16857
1.16853
1.16839
1.16817
1.16741
1.16635
1.16435
1.16166
1.15884
1.15602
1.15373
1.15182
1.15021
1.14885
1.14718
1.14579
1.14467
1.14308
1.14179
1.14224
1.14437
1.14769
1.15312
1.15585
1.15515
1.15147
1.14885
1.14939
1.14871
1.14576
1.1411
1.14431
1.15139
1.15464
1.15108
1.14411
1.13257
1.13753
1.14902
1.16422
1.1862
1.20884
1.21773
1.23047
1.24048
1.23488
1.22912
1.24074
1.25343
1.25751
1.26236
1.27254
1.28096
1.27381
1.25686
1.25859
1.25848
1.25293
1.24814
1.24772
1.22977
1.22413
1.2226
1.23091
1.24276
1.23982
1.25351
1.26039
1.25588
1.26243
1.25691
1.25326
1.25248
1.25371
1.23959
1.25173
1.21516
1.20302
1.19038
1.22445
1.2229
1.19213
1.30551
1.19526
1.19555
1.28784
1.2033
1.21825
1.21473
1.29778
1.2999
1.30271
1.3368
1.3193
1.3033
1.23128
1.23882
1.26031
1.28383
1.32489
1.30513
1.31779
1.34722
1.3403
1.33909
1.42128
1.4001
1.42882
1.50817
1.4935
1.50301
1.46695
1.35609
1.33799
1.21247
1.09216
1.34932
1.3073
1.31156
1.4608
1.16805
1.26263
1.53906
1.60952
1.5854
1.63726
1.7517
1.75672
1.83615
1.85281
1.71485
1.72455
1.80332
1.13536
1.15188
1.17255
1.18771
1.1961
1.19653
1.19456
1.19238
1.19239
1.19636
1.20204
1.19766
1.18712
1.16671
1.15783
1.15079
1.14868
1.14938
1.14501
1.1443
1.14692
1.14893
1.15108
1.1548
1.15842
1.15872
1.15655
1.15301
1.15107
1.15233
1.15609
1.16068
1.163
1.16411
1.16489
1.16617
1.16557
1.16514
1.16524
1.16528
1.16554
1.16542
1.16564
1.16577
1.16644
1.16637
1.16649
1.16659
1.16674
1.16684
1.16744
1.16803
1.1692
1.17002
1.16982
1.16866
1.16644
1.16394
1.16157
1.15991
1.1585
1.15709
1.15474
1.15345
1.15171
1.1487
1.1467
1.14426
1.1436
1.14386
1.14719
1.15194
1.15388
1.15149
1.1531
1.15789
1.15341
1.14261
1.13845
1.14883
1.15611
1.15598
1.1493
1.13471
1.13101
1.14276
1.16671
1.19056
1.20875
1.21483
1.2299
1.23959
1.22974
1.22493
1.23798
1.24811
1.2484
1.24888
1.25922
1.26198
1.25425
1.24763
1.25699
1.25656
1.24149
1.22763
1.22512
1.21016
1.21741
1.22831
1.25071
1.26159
1.25936
1.26498
1.27087
1.26919
1.26844
1.26561
1.26249
1.25748
1.24462
1.24528
1.24539
1.21642
1.25384
1.26057
1.2727
1.25966
1.21828
1.26545
1.23329
1.18368
1.29585
1.1825
1.18047
1.18484
1.22791
1.26939
1.23813
1.29955
1.30872
1.34638
1.26605
1.21972
1.2499
1.2623
1.31873
1.31675
1.30472
1.33225
1.32999
1.31923
1.40095
1.36823
1.34992
1.44917
1.46615
1.47936
1.51686
1.45169
1.36316
1.3567
1.1225
1.24526
1.28227
1.27667
1.39984
1.25327
1.37862
1.55722
1.57875
1.57051
1.65698
1.74707
1.74531
1.83281
1.83388
1.73645
1.66263
1.75107
1.13656
1.1523
1.17278
1.18952
1.19781
1.19641
1.19498
1.19413
1.18992
1.18472
1.1896
1.18541
1.17287
1.15919
1.14942
1.14242
1.14587
1.15011
1.14827
1.14815
1.14816
1.14891
1.15296
1.15479
1.15696
1.15738
1.15598
1.15379
1.15477
1.15877
1.16274
1.16458
1.1625
1.16123
1.16096
1.16068
1.16002
1.16031
1.16065
1.16115
1.16198
1.16218
1.16308
1.16376
1.16441
1.16509
1.16558
1.16551
1.16516
1.16411
1.16325
1.16249
1.16243
1.16337
1.16491
1.16605
1.16598
1.16486
1.16271
1.16095
1.15923
1.15814
1.15714
1.15502
1.15404
1.15199
1.14918
1.14522
1.1457
1.14401
1.14112
1.14346
1.14842
1.14287
1.13961
1.14886
1.15292
1.14222
1.13254
1.14305
1.15557
1.15473
1.14249
1.1312
1.12827
1.14234
1.16561
1.19085
1.20745
1.21338
1.22224
1.22768
1.2197
1.22288
1.23473
1.2431
1.2376
1.2352
1.24484
1.25155
1.23899
1.23215
1.23304
1.23503
1.21414
1.20731
1.20603
1.21109
1.22369
1.23298
1.25047
1.25181
1.25137
1.24562
1.24917
1.24871
1.24477
1.23994
1.2425
1.25533
1.23344
1.24035
1.22754
1.25122
1.23023
1.20372
1.22118
1.24223
1.2373
1.23574
1.24244
1.20027
1.28191
1.17489
1.17021
1.22824
1.21521
1.28639
1.2391
1.27895
1.27287
1.33424
1.29154
1.21082
1.2319
1.23833
1.3046
1.3273
1.30186
1.32524
1.30836
1.31017
1.39081
1.34182
1.2902
1.38934
1.41587
1.41075
1.49866
1.51935
1.40766
1.42606
1.21009
1.20694
1.28105
1.25043
1.40989
1.18764
1.35772
1.53142
1.55849
1.56892
1.67277
1.76208
1.75097
1.82584
1.83673
1.67575
1.61928
1.68056
1.13807
1.15427
1.17556
1.19115
1.19729
1.19478
1.19087
1.1877
1.18259
1.18187
1.17678
1.17166
1.15988
1.15131
1.14814
1.14616
1.14766
1.14692
1.14214
1.14399
1.14932
1.15219
1.15605
1.1602
1.16179
1.16063
1.15777
1.15604
1.15753
1.1616
1.16385
1.16304
1.15939
1.15824
1.15927
1.16004
1.15948
1.1599
1.16117
1.1618
1.16226
1.16264
1.16306
1.16325
1.16381
1.16451
1.16603
1.1674
1.16806
1.16797
1.1666
1.16498
1.16296
1.16165
1.16188
1.16184
1.16231
1.1617
1.16015
1.15735
1.15516
1.15243
1.15308
1.15345
1.15352
1.1528
1.15037
1.14353
1.13864
1.14156
1.13988
1.13881
1.14816
1.14634
1.13743
1.14254
1.15158
1.14234
1.13097
1.13715
1.15097
1.14865
1.1339
1.12546
1.12937
1.1547
1.17832
1.19671
1.20943
1.22002
1.22331
1.22086
1.21222
1.22196
1.23185
1.23556
1.22696
1.22416
1.23346
1.2413
1.22434
1.20632
1.20663
1.21376
1.20684
1.2037
1.19922
1.21411
1.2249
1.23128
1.24305
1.24126
1.24036
1.23288
1.22882
1.23137
1.25114
1.23308
1.20891
1.2346
1.2391
1.20442
1.23629
1.2477
1.22205
1.18791
1.18077
1.1933
1.21883
1.23186
1.23635
1.22894
1.2589
1.16385
1.1652
1.25206
1.20884
1.28605
1.23538
1.26967
1.25103
1.27966
1.27408
1.21031
1.20599
1.20165
1.28034
1.32531
1.30296
1.32913
1.28745
1.29802
1.37876
1.34432
1.28643
1.3393
1.34927
1.3475
1.46655
1.49733
1.44072
1.38415
1.23426
1.20291
1.2806
1.26112
1.34994
1.259
1.36096
1.5269
1.55003
1.58032
1.67542
1.75198
1.74773
1.80718
1.83572
1.69035
1.56717
1.57406
1.13986
1.15645
1.1779
1.19257
1.19728
1.19472
1.19052
1.18652
1.1765
1.1709
1.17123
1.16593
1.16109
1.15566
1.15079
1.15169
1.15517
1.1567
1.15079
1.14591
1.14522
1.14805
1.15062
1.15494
1.15744
1.15714
1.15397
1.15174
1.15281
1.15655
1.15954
1.16095
1.15978
1.15931
1.15971
1.15948
1.15811
1.15707
1.15767
1.15946
1.16167
1.16322
1.16457
1.16442
1.16299
1.16226
1.16276
1.16468
1.16445
1.16456
1.16461
1.16299
1.16159
1.16036
1.1619
1.16139
1.1614
1.16236
1.16324
1.16085
1.15539
1.14785
1.14373
1.14362
1.148
1.15165
1.15169
1.15119
1.13954
1.13619
1.13636
1.13154
1.13751
1.1452
1.13757
1.13877
1.14783
1.14159
1.13135
1.13685
1.14685
1.13862
1.12495
1.12241
1.13175
1.15973
1.18508
1.20033
1.2051
1.21501
1.21537
1.21457
1.20846
1.22191
1.22788
1.22709
1.21688
1.21246
1.22294
1.22869
1.21134
1.19703
1.19976
1.19568
1.19056
1.18634
1.18681
1.20648
1.22458
1.23104
1.2328
1.22057
1.21485
1.22658
1.22661
1.20706
1.23429
1.25032
1.21532
1.21641
1.25412
1.23278
1.18272
1.19515
1.23925
1.24623
1.23673
1.18741
1.18237
1.20032
1.21173
1.21947
1.24123
1.1687
1.1877
1.25369
1.19461
1.26597
1.21477
1.24686
1.25972
1.25233
1.2502
1.21529
1.19666
1.17281
1.25144
1.30044
1.30285
1.33093
1.27732
1.2847
1.34041
1.35382
1.32945
1.26824
1.22909
1.27048
1.41585
1.45229
1.42428
1.31845
1.21309
1.20014
1.3102
1.25764
1.32719
1.24785
1.34441
1.48928
1.53837
1.60432
1.6851
1.74628
1.73725
1.78372
1.83418
1.71609
1.55247
1.48857
1.14061
1.15463
1.1742
1.19026
1.19656
1.19342
1.19071
1.17925
1.17522
1.17044
1.16831
1.16245
1.15681
1.15784
1.15614
1.15744
1.15847
1.15916
1.15862
1.15737
1.1559
1.1562
1.15748
1.16088
1.16379
1.1642
1.16154
1.1578
1.15486
1.15478
1.15605
1.15829
1.15932
1.15926
1.15931
1.15911
1.15928
1.16112
1.16462
1.16744
1.17017
1.17091
1.17151
1.17297
1.17012
1.16799
1.16679
1.16733
1.16555
1.163
1.16424
1.16265
1.1602
1.1586
1.15953
1.15813
1.15331
1.15335
1.15587
1.15951
1.15628
1.14754
1.14055
1.13696
1.1376
1.14668
1.14755
1.1485
1.1428
1.13354
1.13413
1.13036
1.12696
1.13712
1.1327
1.13064
1.13657
1.13537
1.12478
1.13009
1.13811
1.13014
1.1162
1.11656
1.13156
1.15989
1.18574
1.20128
1.20563
1.21594
1.20892
1.20716
1.20581
1.22102
1.22065
1.22068
1.20776
1.20105
1.20592
1.20971
1.20185
1.1955
1.20211
1.1923
1.18187
1.17771
1.18457
1.20715
1.22653
1.22618
1.21675
1.19958
1.18042
1.19774
1.22759
1.19221
1.18058
1.22978
1.21329
1.18449
1.22281
1.25804
1.22505
1.18673
1.18963
1.19102
1.20259
1.17782
1.17809
1.17785
1.19621
1.2054
1.2005
1.1579
1.20431
1.24996
1.19575
1.27285
1.22671
1.24389
1.25603
1.23372
1.22912
1.20706
1.19253
1.15343
1.22316
1.25435
1.29267
1.324
1.2722
1.27099
1.29969
1.32597
1.36966
1.25507
1.15677
1.21626
1.33818
1.37331
1.38978
1.28424
1.2001
1.2295
1.33141
1.25882
1.28862
1.26087
1.33563
1.44838
1.50697
1.65297
1.73112
1.7758
1.74416
1.77349
1.83463
1.74076
1.59304
1.51274
1.14197
1.1556
1.17508
1.1915
1.20029
1.19364
1.19471
1.18997
1.17029
1.16527
1.16513
1.1651
1.15914
1.15791
1.15763
1.16057
1.16466
1.16361
1.15983
1.15684
1.15488
1.15449
1.15459
1.15668
1.16004
1.16221
1.16136
1.15921
1.15535
1.1523
1.15186
1.15374
1.15588
1.15701
1.15816
1.15925
1.16062
1.1624
1.16626
1.16761
1.16745
1.16781
1.16662
1.16857
1.16801
1.16778
1.16679
1.16744
1.16505
1.16055
1.15963
1.15759
1.155
1.157
1.16201
1.1628
1.15518
1.15096
1.15206
1.15428
1.15225
1.14356
1.13284
1.1314
1.13006
1.13648
1.14435
1.14435
1.14449
1.13392
1.13002
1.12953
1.12236
1.12937
1.13187
1.12818
1.13342
1.13684
1.12409
1.12343
1.13297
1.13216
1.118
1.11412
1.12609
1.15068
1.17595
1.18829
1.19638
1.20906
1.19991
1.20191
1.20238
1.2189
1.21228
1.21305
1.20504
1.19652
1.19714
1.19122
1.18669
1.18801
1.1906
1.17763
1.17866
1.18211
1.19734
1.21424
1.21161
1.19385
1.186
1.19102
1.16724
1.16696
1.2193
1.20562
1.18074
1.20862
1.22105
1.21316
1.18718
1.18801
1.21582
1.20883
1.18399
1.17516
1.17765
1.17213
1.17725
1.18426
1.20515
1.2009
1.18577
1.16491
1.21353
1.22662
1.19445
1.27371
1.21422
1.23418
1.2401
1.21002
1.21032
1.2024
1.19512
1.14627
1.2068
1.20474
1.26323
1.30224
1.26359
1.25659
1.26883
1.28284
1.37001
1.31227
1.19534
1.23319
1.28967
1.30302
1.35282
1.25029
1.18132
1.27539
1.35788
1.25143
1.25715
1.27907
1.31552
1.4335
1.47732
1.69465
1.76002
1.77263
1.7472
1.76145
1.8181
1.77168
1.64963
1.59305
1.1425
1.15338
1.17011
1.18355
1.19452
1.19466
1.18357
1.19544
1.18774
1.17355
1.16575
1.16254
1.15961
1.15665
1.15554
1.15648
1.16154
1.16525
1.164
1.16182
1.15899
1.15889
1.15956
1.15925
1.15942
1.16025
1.16092
1.16076
1.15849
1.15708
1.15692
1.15762
1.15866
1.15931
1.15945
1.15901
1.16248
1.16734
1.17178
1.17305
1.17209
1.17155
1.16638
1.16504
1.16139
1.16147
1.16022
1.15916
1.15474
1.15428
1.16106
1.16047
1.15468
1.1526
1.15925
1.15894
1.14997
1.1426
1.14537
1.14978
1.14703
1.13953
1.12884
1.12407
1.12845
1.1307
1.13629
1.13437
1.13491
1.13163
1.12621
1.12799
1.12378
1.12236
1.12767
1.1231
1.12794
1.13323
1.12398
1.11802
1.13168
1.13383
1.11692
1.10574
1.11763
1.1444
1.17398
1.1861
1.19092
1.19931
1.18839
1.19944
1.19845
1.21483
1.20365
1.20009
1.20153
1.19391
1.1935
1.18668
1.17392
1.17477
1.17042
1.15344
1.15978
1.17473
1.19365
1.19692
1.19453
1.18388
1.16849
1.19086
1.16854
1.15697
1.1965
1.19885
1.18605
1.17938
1.18869
1.21265
1.2334
1.20437
1.1664
1.1704
1.17779
1.17815
1.16938
1.15097
1.15931
1.17101
1.19173
1.17052
1.16511
1.17043
1.20898
1.20045
1.2055
1.26965
1.19154
1.2065
1.21753
1.18351
1.18454
1.18783
1.188
1.14451
1.19552
1.16127
1.22761
1.27188
1.24683
1.24526
1.25002
1.24756
1.35233
1.34469
1.23234
1.26272
1.26976
1.26218
1.32474
1.22406
1.17085
1.30229
1.33204
1.23682
1.24666
1.28482
1.29518
1.41218
1.4418
1.70346
1.74229
1.70458
1.71265
1.72625
1.77493
1.77322
1.6794
1.61781
1.14312
1.15184
1.16791
1.18429
1.19313
1.20153
1.18855
1.18167
1.18816
1.18366
1.17934
1.17354
1.16955
1.16504
1.16118
1.15835
1.15823
1.16052
1.16054
1.15951
1.15666
1.15577
1.15733
1.15825
1.1595
1.16119
1.1622
1.16257
1.16267
1.16205
1.16133
1.16146
1.15975
1.15685
1.15611
1.1569
1.16163
1.16548
1.16735
1.16586
1.16072
1.16034
1.15578
1.1574
1.1547
1.15252
1.15337
1.15745
1.15495
1.14878
1.15353
1.15556
1.15304
1.15179
1.1598
1.15943
1.1468
1.13573
1.13486
1.14016
1.14188
1.13399
1.12624
1.1189
1.1209
1.1235
1.12823
1.13091
1.12657
1.12497
1.11924
1.11903
1.12195
1.11885
1.1246
1.11929
1.11612
1.12142
1.12063
1.10915
1.11944
1.12525
1.11562
1.10616
1.11971
1.14501
1.17289
1.18711
1.18987
1.19504
1.18162
1.1952
1.19627
1.20554
1.19933
1.18832
1.18875
1.18438
1.18429
1.18102
1.16976
1.16368
1.15788
1.14211
1.1513
1.16659
1.18068
1.17797
1.18187
1.18426
1.15521
1.16841
1.14515
1.14802
1.18348
1.17899
1.18402
1.19777
1.17783
1.17173
1.1795
1.19831
1.18492
1.15632
1.15324
1.1736
1.15928
1.14727
1.15835
1.17817
1.18703
1.16302
1.15907
1.17931
1.21215
1.19706
1.21785
1.23634
1.16697
1.19057
1.20318
1.1756
1.1817
1.18172
1.1793
1.14247
1.17043
1.13022
1.19614
1.23535
1.22263
1.2415
1.23993
1.22096
1.33601
1.32708
1.22372
1.25722
1.25466
1.22813
1.29216
1.20303
1.17586
1.29141
1.26375
1.21849
1.26079
1.29925
1.28894
1.37042
1.40317
1.68328
1.7239
1.65079
1.67742
1.68507
1.70743
1.73675
1.68172
1.59528
1.14455
1.15165
1.16365
1.18013
1.18555
1.1969
1.19707
1.18315
1.17963
1.17699
1.17704
1.17622
1.17528
1.17384
1.17144
1.16791
1.16526
1.16468
1.16504
1.1657
1.16467
1.16186
1.16034
1.1587
1.15645
1.1547
1.15472
1.15484
1.15498
1.15546
1.1551
1.1538
1.15377
1.15331
1.15697
1.16107
1.16467
1.16768
1.16667
1.16392
1.16106
1.16118
1.15644
1.1605
1.15929
1.15445
1.15416
1.15842
1.15682
1.14926
1.15369
1.1618
1.16238
1.15581
1.15217
1.14944
1.14275
1.1339
1.12902
1.12565
1.12386
1.1224
1.11798
1.11578
1.11579
1.11854
1.11613
1.11722
1.11551
1.11701
1.11709
1.11139
1.11409
1.1125
1.11671
1.1215
1.11544
1.12039
1.12595
1.11022
1.10982
1.12359
1.11976
1.10215
1.10521
1.12751
1.15749
1.176
1.18169
1.18553
1.17469
1.18693
1.19719
1.1922
1.19467
1.17998