/*--------------------------------*- C++ -*----------------------------------*\
| =========                 |                                                 |
| \\      /  F ield         | OpenFOAM: The Open Source CFD Toolbox           |
|  \\    /   O peration     | Version:  dev                                   |
|   \\  /    A nd           | Web:      http://www.openfoam.org               |
|    \\/     M anipulation  |                                                 |
\*---------------------------------------------------------------------------*/
FoamFile
{
    version     2.0;
    format      ascii;
    class       volVectorField;
    object      U;
    location    "9.157";
}
// * * * * * * * * * * * * * * * * * * * * * * * * * * * * * * * * * * * * * //

dimensions      [0 1 -1 0 0 0 0];

internalField   nonuniform List<vector> 
12225
(
(7.04526 0.303898 0)
(5.20791 0.0459331 0)
(4.12335 -0.113952 0)
(4.91641 -0.155283 0)
(4.35626 -0.142557 0)
(6.22399 -0.157805 0)
(5.37212 -0.111029 0)
(7.71892 -0.182543 0)
(6.7024 -0.0941988 0)
(9.43643 -0.243675 0)
(8.24735 -0.0969632 0)
(11.7059 -0.282401 0)
(10.2386 -0.181227 0)
(14.7636 -0.435473 0)
(14.0268 -0.167508 0)
(17.6484 -0.128481 0)
(22.7556 -3.64183 0)
(26.6003 3.24322 0)
(9.77229 0.571535 0)
(10.3443 0.410921 0)
(8.17006 0.0159592 0)
(10.1201 -0.202059 0)
(7.064 -0.315214 0)
(10.9835 -0.353118 0)
(6.93124 -0.334345 0)
(12.6054 -0.51659 0)
(7.63066 -0.36197 0)
(14.6153 -0.597464 0)
(8.91689 -0.509349 0)
(17.5761 -0.836134 0)
(11.0592 -0.658474 0)
(21.6075 -1.66504 0)
(14.7681 -0.0724288 0)
(26.8733 -3.94291 0)
(20.211 -1.58874 0)
(38.0624 -11.8389 0)
(9.04098 0.176985 0)
(12.8963 0.239568 0)
(9.47852 -0.146383 0)
(14.225 -0.277126 0)
(9.00743 -0.466736 0)
(15.384 -0.404618 0)
(8.73428 -0.588524 0)
(16.8289 -0.726897 0)
(9.5209 -0.646041 0)
(18.4963 -1.10464 0)
(11.8306 -0.820852 0)
(20.3595 -1.64982 0)
(15.1163 -1.01672 0)
(22.2587 -2.55279 0)
(19.1004 -1.03551 0)
(24.8546 -4.08643 0)
(23.0483 -4.02794 0)
(26.5364 -14.5655 0)
(7.03221 -0.331222 0)
(15.1022 -0.10181 0)
(9.36131 -0.491537 0)
(16.7441 -0.483608 0)
(10.5904 -0.666988 0)
(17.8247 -0.678584 0)
(12.2246 -0.681238 0)
(18.7015 -1.1677 0)
(13.8223 -0.695437 0)
(19.6118 -1.83074 0)
(15.7427 -0.814299 0)
(20.6144 -2.65858 0)
(17.8096 -0.964873 0)
(22.2155 -3.91245 0)
(20.719 -0.908077 0)
(24.7082 -6.51055 0)
(24.9258 -2.724 0)
(25.8863 -20.1064 0)
(7.15204 -0.47426 0)
(14.3454 -0.965392 0)
(10.4763 -0.719207 0)
(15.5945 -1.17072 0)
(13.0455 -0.709569 0)
(16.439 -1.43662 0)
(15.1787 -0.721499 0)
(17.4488 -1.75879 0)
(16.737 -0.831895 0)
(18.5341 -2.3188 0)
(18.4721 -0.931445 0)
(19.5031 -3.11267 0)
(19.9432 -1.17055 0)
(21.2833 -4.56527 0)
(22.202 -1.41107 0)
(23.4481 -7.07552 0)
(25.8706 -2.04197 0)
(23.5709 -18.0569 0)
(9.30474 -0.600049 0)
(11.4129 -1.75773 0)
(11.6055 -1.06619 0)
(12.7907 -1.94194 0)
(13.7897 -0.943268 0)
(13.9322 -2.15566 0)
(15.4275 -0.936584 0)
(15.5893 -2.40804 0)
(16.9557 -1.0507 0)
(17.2389 -2.97556 0)
(18.6875 -1.14287 0)
(18.8505 -3.75039 0)
(20.4107 -1.70144 0)
(20.9607 -5.14432 0)
(22.4486 -2.53124 0)
(23.2761 -7.40962 0)
(24.9185 -4.53649 0)
(23.1336 -12.9488 0)
(9.96902 -0.750212 0)
(10.7724 -2.48262 0)
(11.7355 -1.11795 0)
(12.4951 -2.67197 0)
(13.5587 -0.996614 0)
(14.0352 -2.79474 0)
(15.0209 -1.11668 0)
(15.6546 -3.01483 0)
(16.6854 -1.364 0)
(17.151 -3.49681 0)
(18.4103 -1.62935 0)
(19.006 -4.20283 0)
(20.142 -2.33429 0)
(20.8404 -5.55266 0)
(21.9399 -3.48246 0)
(22.4812 -7.35196 0)
(22.8497 -5.7362 0)
(22.2328 -11.5342 0)
(10.1801 -1.30215 0)
(11.0085 -2.98511 0)
(12.155 -1.60787 0)
(12.7137 -3.22216 0)
(13.6451 -1.40418 0)
(14.3069 -3.29141 0)
(14.942 -1.50591 0)
(15.8093 -3.46387 0)
(16.4483 -1.84987 0)
(17.3462 -3.84067 0)
(18.007 -2.33422 0)
(19.1281 -4.45784 0)
(19.6265 -3.25167 0)
(20.6375 -5.69206 0)
(20.9631 -4.55607 0)
(21.8013 -7.06305 0)
(21.6775 -6.59243 0)
(21.7448 -9.67204 0)
(10.4933 -1.40413 0)
(10.5648 -3.65172 0)
(12.0555 -1.7114 0)
(12.4681 -3.73446 0)
(13.5128 -1.64543 0)
(14.322 -3.64274 0)
(14.9812 -1.89223 0)
(15.8945 -3.73074 0)
(16.5013 -2.31928 0)
(17.4159 -4.15383 0)
(18.0172 -2.89535 0)
(18.9662 -4.74742 0)
(19.4519 -3.8372 0)
(20.3401 -5.77969 0)
(20.5958 -5.1752 0)
(21.2679 -7.05307 0)
(21.2931 -7.2415 0)
(21.2719 -8.87909 0)
(10.488 -1.99903 0)
(10.8877 -3.93188 0)
(11.9083 -2.29641 0)
(12.5253 -4.03135 0)
(13.4344 -2.27612 0)
(14.1598 -3.97725 0)
(14.957 -2.42043 0)
(15.6586 -4.03555 0)
(16.4018 -2.86511 0)
(17.1559 -4.38295 0)
(17.7472 -3.46516 0)
(18.6434 -4.90873 0)
(19.1161 -4.48503 0)
(19.96 -5.89314 0)
(20.295 -5.80755 0)
(20.718 -6.99596 0)
(20.8297 -7.56102 0)
(20.75 -8.45172 0)
(10.2583 -2.20488 0)
(10.8753 -4.52941 0)
(12.0151 -2.70911 0)
(12.5304 -4.41723 0)
(13.3968 -2.8278 0)
(14.0023 -4.31364 0)
(14.7284 -3.08035 0)
(15.4822 -4.37899 0)
(16.2101 -3.56331 0)
(17.0101 -4.75179 0)
(17.6113 -4.20239 0)
(18.4951 -5.25463 0)
(18.9601 -5.16086 0)
(19.5567 -6.05364 0)
(19.8305 -6.34333 0)
(20.1247 -7.10468 0)
(20.2271 -7.75756 0)
(20.1331 -8.415 0)
(10.3913 -2.96465 0)
(11.2069 -4.85273 0)
(12.0032 -3.57825 0)
(12.6207 -4.67233 0)
(13.3151 -3.59503 0)
(14.0861 -4.54813 0)
(14.7524 -3.78034 0)
(15.5187 -4.66017 0)
(16.177 -4.24116 0)
(16.8523 -5.00409 0)
(17.3694 -4.84137 0)
(18.1205 -5.45859 0)
(18.5543 -5.61979 0)
(19.0625 -6.21753 0)
(19.4377 -6.67791 0)
(19.7125 -7.20977 0)
(19.8552 -7.79774 0)
(19.7848 -8.29606 0)
(10.5354 -3.52109 0)
(11.1751 -5.22896 0)
(11.8514 -4.19808 0)
(12.3381 -4.97306 0)
(13.0585 -4.31641 0)
(13.7584 -4.95669 0)
(14.5093 -4.53241 0)
(15.2086 -5.06545 0)
(15.86 -4.92774 0)
(16.4688 -5.4153 0)
(17.0113 -5.44027 0)
(17.6374 -5.87527 0)
(18.1435 -6.16642 0)
(18.5884 -6.55598 0)
(18.9411 -7.00357 0)
(19.2058 -7.4419 0)
(19.3546 -7.89425 0)
(19.2998 -8.31378 0)
(10.1811 -4.2781 0)
(11.1515 -5.55553 0)
(11.8725 -4.95386 0)
(12.491 -5.23494 0)
(13.0939 -5.03151 0)
(13.6763 -5.30026 0)
(14.2866 -5.20299 0)
(14.906 -5.40709 0)
(15.5113 -5.44277 0)
(16.0722 -5.722 0)
(16.6019 -5.9132 0)
(17.0869 -6.23554 0)
(17.535 -6.5661 0)
(17.9069 -6.89539 0)
(18.1943 -7.23503 0)
(18.3983 -7.56396 0)
(18.5639 -7.86042 0)
(18.562 -8.14129 0)
(10.2475 -4.69133 0)
(10.9515 -5.925 0)
(11.5898 -5.58282 0)
(12.2637 -5.55251 0)
(12.9189 -5.49565 0)
(13.5698 -5.62269 0)
(14.219 -5.71634 0)
(14.8655 -5.87957 0)
(15.4742 -6.01051 0)
(16.0506 -6.18142 0)
(16.5821 -6.34416 0)
(17.0387 -6.53955 0)
(17.4506 -6.74852 0)
(17.7701 -6.98062 0)
(17.9957 -7.25495 0)
(18.1851 -7.54059 0)
(18.341 -7.82754 0)
(18.3724 -8.07705 0)
(10.3066 -4.96677 0)
(11.0332 -6.18676 0)
(11.6974 -6.07637 0)
(12.3927 -6.06685 0)
(13.0912 -6.08445 0)
(13.7628 -6.10592 0)
(14.3533 -6.13239 0)
(14.8962 -6.18268 0)
(15.3708 -6.27254 0)
(15.8095 -6.39904 0)
(16.2233 -6.57 0)
(16.608 -6.76119 0)
(16.9531 -6.94448 0)
(17.2818 -7.1314 0)
(17.5614 -7.30522 0)
(17.7841 -7.4865 0)
(17.9595 -7.66078 0)
(18.0259 -7.81442 0)
(10.4507 -5.11478 0)
(11.1084 -6.30511 0)
(11.7819 -6.25459 0)
(12.4257 -6.26437 0)
(13.0224 -6.27773 0)
(13.6121 -6.28135 0)
(14.1737 -6.27903 0)
(14.7277 -6.29264 0)
(15.2389 -6.33996 0)
(15.7178 -6.41019 0)
(16.1438 -6.50776 0)
(16.526 -6.63529 0)
(16.8536 -6.77657 0)
(17.1407 -6.91816 0)
(17.3687 -7.05973 0)
(17.5704 -7.21461 0)
(17.7404 -7.3546 0)
(17.819 -7.46781 0)
(10.2305 -5.00921 0)
(11.02 -6.38078 0)
(11.7031 -6.33011 0)
(12.3685 -6.26542 0)
(12.9549 -6.23303 0)
(13.4971 -6.21351 0)
(13.9885 -6.20062 0)
(14.4661 -6.21071 0)
(14.9107 -6.23749 0)
(15.3493 -6.29243 0)
(15.7721 -6.36449 0)
(16.1795 -6.43983 0)
(16.55 -6.52001 0)
(16.8776 -6.59733 0)
(17.148 -6.66408 0)
(17.3788 -6.72855 0)
(17.5769 -6.7936 0)
(17.6962 -6.84773 0)
(10.4523 -4.7717 0)
(11.0752 -6.06821 0)
(11.68 -5.95621 0)
(12.255 -5.91831 0)
(12.8076 -5.87496 0)
(13.3789 -5.81383 0)
(13.9425 -5.7678 0)
(14.4703 -5.75688 0)
(14.9456 -5.80461 0)
(15.367 -5.87709 0)
(15.7152 -5.94818 0)
(16.0386 -6.02548 0)
(16.3366 -6.07826 0)
(16.6314 -6.11917 0)
(16.9019 -6.14957 0)
(17.1518 -6.1666 0)
(17.3906 -6.18642 0)
(17.5692 -6.18772 0)
(10.3674 -4.46589 0)
(11.1008 -5.5746 0)
(11.7733 -5.43979 0)
(12.3822 -5.40097 0)
(12.9035 -5.41507 0)
(13.3819 -5.42293 0)
(13.8621 -5.41255 0)
(14.3359 -5.38085 0)
(14.792 -5.33234 0)
(15.2363 -5.29886 0)
(15.6265 -5.29588 0)
(15.982 -5.32725 0)
(16.2939 -5.3998 0)
(16.5831 -5.48889 0)
(16.8415 -5.5707 0)
(17.0906 -5.63346 0)
(17.3064 -5.67822 0)
(17.4693 -5.67655 0)
(10.4142 -4.04421 0)
(11.0076 -5.06025 0)
(11.7 -4.95722 0)
(12.3809 -4.85877 0)
(13.0159 -4.76882 0)
(13.5936 -4.72147 0)
(14.1092 -4.70511 0)
(14.5887 -4.73134 0)
(15.0405 -4.76772 0)
(15.4732 -4.79254 0)
(15.8767 -4.82386 0)
(16.248 -4.83811 0)
(16.5665 -4.84705 0)
(16.8521 -4.86372 0)
(17.0879 -4.87868 0)
(17.2985 -4.88869 0)
(17.4682 -4.91014 0)
(17.6072 -4.9097 0)
(10.3347 -3.46395 0)
(11.1713 -4.38351 0)
(11.8777 -4.35775 0)
(12.5264 -4.33289 0)
(13.1142 -4.29616 0)
(13.6505 -4.26692 0)
(14.1726 -4.2555 0)
(14.65 -4.2345 0)
(15.0914 -4.20414 0)
(15.4875 -4.17976 0)
(15.8478 -4.16354 0)
(16.1769 -4.16017 0)
(16.467 -4.17712 0)
(16.7357 -4.1927 0)
(16.9881 -4.21456 0)
(17.2325 -4.23725 0)
(17.4359 -4.25761 0)
(17.6214 -4.25797 0)
(10.5933 -3.11398 0)
(11.2167 -3.91865 0)
(11.8883 -3.86972 0)
(12.6009 -3.77093 0)
(13.2389 -3.66618 0)
(13.799 -3.59523 0)
(14.3042 -3.58672 0)
(14.7646 -3.6029 0)
(15.2042 -3.61952 0)
(15.6177 -3.6187 0)
(15.9996 -3.60645 0)
(16.3626 -3.59978 0)
(16.6807 -3.59926 0)
(16.9806 -3.60483 0)
(17.2336 -3.61309 0)
(17.4551 -3.62473 0)
(17.6568 -3.64919 0)
(17.8215 -3.63825 0)
(10.761 -2.3509 0)
(11.4758 -3.17286 0)
(12.0785 -3.28176 0)
(12.7353 -3.27794 0)
(13.3908 -3.19038 0)
(14.0315 -3.11878 0)
(14.5957 -3.0942 0)
(15.0931 -3.09137 0)
(15.5149 -3.10158 0)
(15.8809 -3.09071 0)
(16.2079 -3.07005 0)
(16.5095 -3.04218 0)
(16.7953 -3.02252 0)
(17.0679 -3.0121 0)
(17.312 -3.00965 0)
(17.5358 -3.02422 0)
(17.7361 -3.0296 0)
(17.9315 -3.03008 0)
(10.415 -2.11281 0)
(11.4948 -2.69795 0)
(12.4082 -2.75193 0)
(13.2001 -2.7473 0)
(13.8501 -2.69373 0)
(14.3772 -2.63104 0)
(14.8093 -2.59034 0)
(15.1786 -2.56189 0)
(15.5197 -2.53624 0)
(15.8608 -2.50774 0)
(16.1898 -2.4836 0)
(16.5237 -2.46711 0)
(16.8517 -2.46907 0)
(17.1618 -2.4807 0)
(17.4374 -2.50761 0)
(17.6923 -2.51888 0)
(17.923 -2.52148 0)
(18.1079 -2.51263 0)
(10.4885 -1.69719 0)
(11.4321 -2.39712 0)
(12.2664 -2.44563 0)
(13.0613 -2.33782 0)
(13.7586 -2.20467 0)
(14.3578 -2.09039 0)
(14.8647 -2.02702 0)
(15.3062 -2.00258 0)
(15.7025 -2.00189 0)
(16.0649 -2.00599 0)
(16.4023 -2.01799 0)
(16.7306 -2.02343 0)
(17.0321 -2.03405 0)
(17.3086 -2.0468 0)
(17.5572 -2.04733 0)
(17.7809 -2.03686 0)
(17.9708 -2.02442 0)
(18.1252 -2.00233 0)
(10.2505 -1.61491 0)
(11.5098 -2.0306 0)
(12.5072 -1.98585 0)
(13.2823 -1.90712 0)
(13.8954 -1.82686 0)
(14.4172 -1.73887 0)
(14.8835 -1.67078 0)
(15.287 -1.6235 0)
(15.6335 -1.5913 0)
(15.9159 -1.5746 0)
(16.1661 -1.5613 0)
(16.38 -1.56024 0)
(16.5635 -1.56841 0)
(16.7188 -1.57293 0)
(16.8451 -1.56791 0)
(16.9401 -1.56741 0)
(17.024 -1.55516 0)
(17.0906 -1.52952 0)
(10.2472 -1.2176 0)
(11.5407 -1.78896 0)
(12.4897 -1.66617 0)
(13.0364 -1.50038 0)
(13.3364 -1.37439 0)
(13.532 -1.27209 0)
(13.715 -1.18878 0)
(13.8839 -1.13014 0)
(14.0565 -1.09595 0)
(14.1961 -1.07824 0)
(14.3207 -1.06506 0)
(14.4152 -1.0599 0)
(14.4897 -1.06188 0)
(14.5369 -1.04622 0)
(14.5646 -1.04377 0)
(14.5648 -1.03469 0)
(14.5827 -1.02828 0)
(14.5848 -1.01912 0)
(10.6077 -1.1969 0)
(11.2553 -1.58819 0)
(11.2106 -1.32203 0)
(10.8749 -1.05643 0)
(10.5945 -0.861385 0)
(10.4239 -0.72915 0)
(10.3836 -0.644234 0)
(10.4107 -0.601037 0)
(10.4956 -0.576917 0)
(10.5863 -0.57072 0)
(10.6726 -0.553868 0)
(10.742 -0.552596 0)
(10.8088 -0.55646 0)
(10.8736 -0.551501 0)
(10.9185 -0.556916 0)
(10.9591 -0.55196 0)
(11.0017 -0.561772 0)
(11.0262 -0.567155 0)
(9.17667 -0.579043 0)
(7.3269 -0.546424 0)
(6.10085 -0.284243 0)
(5.59152 -0.168813 0)
(5.56587 -0.134 0)
(5.74979 -0.132507 0)
(6.04321 -0.139466 0)
(6.36058 -0.147594 0)
(6.67994 -0.14959 0)
(6.98159 -0.157973 0)
(7.25461 -0.153159 0)
(7.48869 -0.156568 0)
(7.70712 -0.158786 0)
(7.90035 -0.160225 0)
(8.06295 -0.160451 0)
(8.21003 -0.162367 0)
(8.33277 -0.169693 0)
(8.4131 -0.164318 0)
(-0.0825248 -0.102407 0)
(-0.221547 -0.110885 0)
(-0.37229 -0.0938856 0)
(-0.530861 -0.0839934 0)
(-0.687424 -0.0838302 0)
(-0.843081 -0.0838911 0)
(-0.99796 -0.0797548 1.13308e-17)
(-1.16501 -0.0722258 -1.12626e-17)
(-1.34571 -0.0641153 0)
(-1.53208 -0.0582425 -1.11289e-17)
(-1.7266 -0.0504861 0)
(-1.93604 -0.0480564 0)
(-2.15243 -0.0555078 0)
(-2.37689 -0.0627064 1.08925e-17)
(-2.59722 -0.0636102 0)
(-2.79072 -0.0645337 0)
(-2.95214 -0.0703863 -1.07036e-17)
(-3.10945 -0.0942855 0)
(-3.29298 -0.108205 0)
(-3.47702 -0.106091 0)
(-3.62841 -0.0637189 1.04801e-17)
(-3.73289 -0.0263229 0)
(-3.84376 -0.0361915 1.03705e-17)
(-4.00351 -0.130597 0)
(-4.20514 -0.277828 0)
(-4.42628 -0.390963 1.02245e-17)
(-4.71059 -0.406059 0)
(-5.11494 -0.301669 -1.01734e-17)
(-5.68558 -0.088841 0)
(-6.40552 0.203777 1.00718e-17)
(-7.26933 0.482122 0)
(-8.2569 0.669895 0)
(-9.27676 0.760858 0)
(-10.2723 0.785128 0)
(-11.2122 0.775799 0)
(-12.0908 0.736458 -9.60093e-18)
(-12.8947 0.680111 0)
(-13.6261 0.629194 1.89252e-17)
(-14.2903 0.579195 0)
(-14.8763 0.528474 -1.86453e-17)
(-15.3871 0.473943 0)
(-15.8446 0.427483 0)
(-16.2338 0.390369 1.82335e-17)
(-16.5699 0.358026 0)
(-16.8526 0.325151 1.79674e-17)
(-17.0802 0.291036 -1.78369e-17)
(-17.2265 0.269012 0)
(-17.3102 0.234239 -1.75777e-17)
(-17.3433 0.20339 -1.74484e-17)
(-17.3222 0.172438 0)
(-17.2715 0.145159 0)
(-17.1778 0.136743 0)
(-17.0461 0.116933 0)
(-16.8677 0.0960459 0)
(-16.6345 0.0729456 1.66912e-17)
(-16.3392 0.051035 0)
(-16.001 0.0317793 -1.64438e-17)
(-15.655 0.0207408 0)
(-15.3001 0.0240037 0)
(-14.9271 0.0316872 1.60754e-17)
(-14.5473 0.035391 0)
(-14.1769 0.047015 -1.58354e-17)
(-13.8141 0.0593702 0)
(-13.4613 0.0739062 0)
(-13.1143 0.0944844 0)
(-12.7806 0.104958 1.53849e-17)
(-12.4431 0.123493 0)
(-12.1154 0.146533 0)
(-11.7696 0.158288 1.50844e-17)
(-11.4077 0.169362 0)
(-11.0776 0.164892 1.48965e-17)
(-10.682 0.179558 0)
(-10.243 0.153058 0)
(-9.77249 0.170164 0)
(-9.21563 0.178304 -1.45161e-17)
(-8.67662 0.220649 0)
(-8.17 0.289855 0)
(-7.76372 0.346966 -1.41885e-17)
(-7.45857 0.374493 -1.40874e-17)
(-7.16549 0.396277 0)
(-6.79388 0.424228 -1.38953e-17)
(-6.43058 0.464007 0)
(-6.19854 0.495596 -2.74358e-17)
(-6.05442 0.500025 0)
(-5.93156 0.504474 -2.71055e-17)
(-5.77079 0.512529 0)
(-5.62854 0.541679 2.67572e-17)
(-5.49488 0.569272 0)
(-5.32646 0.573789 0)
(-5.09869 0.624181 0)
(-4.83338 0.699676 -2.59805e-17)
(-4.65775 0.730862 0)
(-4.62965 0.740077 2.55589e-17)
(-4.62931 0.796357 0)
(-4.66919 0.898679 -2.51132e-17)
(-4.66509 0.936849 -2.49531e-17)
(-4.24283 0.894389 -2.47585e-17)
(-3.38448 0.922517 0)
(-2.82869 0.985054 0)
(-2.60406 1.0232 0)
(-2.34261 1.0123 0)
(-1.65708 0.902535 0)
(-0.587733 0.652973 0)
(0.479848 0.313475 0)
(1.23101 0.600009 0)
(0.743255 1.6105 2.37202e-17)
(-0.499102 1.91291 2.35837e-17)
(-1.95211 2.049 0)
(-3.51943 2.41373 0)
(-4.72859 2.37032 0)
(-5.11816 1.92474 2.26213e-17)
(-5.28288 1.78077 0)
(-5.5544 1.79639 0)
(-5.88245 1.83943 0)
(-6.45569 1.90779 0)
(-7.17775 1.92776 -2.18424e-17)
(-7.7364 1.89923 0)
(-7.74312 1.68253 0)
(-6.65939 1.22255 2.1221e-17)
(-5.03012 1.61732 -2.11698e-17)
(-6.36577 2.29111 0)
(-8.04466 0.790534 -2.07759e-17)
(-1.18875 -0.584224 0)
(-0.108473 2.54539 2.06079e-17)
(-4.6114 2.50907 0)
(-5.35906 2.09253 0)
(-6.0185 1.87446 0)
(-6.46324 2.0565 0)
(-7.75291 1.91934 0)
(-7.50286 1.74897 -3.87029e-17)
(-6.62558 1.63321 -3.84826e-17)
(-5.61766 1.98995 0)
(-5.27259 2.37617 0)
(-6.00863 2.56862 0)
(-7.26569 2.4879 3.82587e-17)
(-8.59346 2.42549 0)
(-9.84348 2.44445 0)
(-11.0051 2.53708 0)
(-11.871 2.56388 3.70047e-17)
(-12.4579 2.60962 -3.67136e-17)
(-12.6835 2.57359 0)
(-12.6715 2.38223 0)
(-12.8116 2.417 -3.57373e-17)
(-13.26 2.6276 -3.53255e-17)
(-13.8855 2.83971 0)
(-14.4651 3.01817 0)
(-15.0772 3.08688 3.40228e-17)
(-15.458 3.09092 -3.35852e-17)
(-15.6515 3.11545 0)
(-15.5824 3.20134 0)
(-15.2884 3.26256 -3.23955e-17)
(-14.8196 3.24647 0)
(-14.2929 3.21817 0)
(-13.0616 3.09529 -3.17575e-17)
(-11.5726 3.11157 0)
(-11.1641 3.29058 -3.12814e-17)
(-10.7008 3.31311 0)
(-9.71312 3.26788 0)
(-7.90951 3.41158 0)
(-6.9704 3.47247 3.02887e-17)
(-8.22754 3.4722 0)
(-7.09858 3.23148 0)
(-7.9123 3.50145 0)
(-9.5782 3.6933 0)
(-7.32013 3.45659 0)
(-15.0602 5.58561 0)
(-22.5742 4.34095 3.3542e-17)
(-12.2792 -2.02096 3.34933e-17)
(5.83118 1.85742 0)
(8.98631 3.61113 0)
(7.55767 3.56953 0)
(5.88462 3.48167 -2.84302e-17)
(5.14704 3.35483 0)
(5.4441 3.08028 5.53131e-17)
(8.05206 2.66292 -5.58389e-17)
(10.7211 3.35321 -5.68574e-17)
(6.4427 3.87381 5.32848e-17)
(11.1794 2.07864 -4.94906e-17)
(22.4546 2.86596 5.11138e-17)
(20.9608 3.4814 0)
(-0.0984326 -0.255505 0)
(-0.232284 -0.304667 0)
(-0.367173 -0.269471 -2.3134e-17)
(-0.507525 -0.261601 0)
(-0.644324 -0.274406 2.26887e-17)
(-0.774389 -0.286109 2.25242e-17)
(-0.903612 -0.274051 1.11931e-17)
(-1.05085 -0.248237 1.11038e-17)
(-1.22126 -0.220137 0)
(-1.39579 -0.190883 1.09526e-17)
(-1.58606 -0.148648 0)
(-1.81254 -0.0994708 0)
(-2.03778 -0.0599939 -2.14961e-17)
(-2.23917 -0.0265712 -1.06881e-17)
(-2.42842 -0.0772778 2.12961e-17)
(-2.62802 -0.192374 2.11616e-17)
(-2.86436 -0.23556 1.05015e-17)
(-3.08499 -0.140558 0)
(-3.24708 -0.0745189 0)
(-3.35478 -0.178932 0)
(-3.55771 -0.34045 1.03231e-17)
(-3.91252 -0.391942 0)
(-4.444 -0.228193 -3.09794e-17)
(-5.12717 0.0442366 0)
(-5.99388 0.323158 0)
(-7.00628 0.639796 -1.02473e-17)
(-8.06861 1.03711 0)
(-9.18099 1.41611 1.00613e-17)
(-10.2941 1.72598 1.99928e-17)
(-11.3287 1.97667 -9.92372e-18)
(-12.2973 2.122 0)
(-13.2023 2.1528 0)
(-14.0458 2.10065 0)
(-14.8322 1.99426 1.93888e-17)
(-15.552 1.88027 1.92533e-17)
(-16.2103 1.75257 9.56079e-18)
(-16.8139 1.60384 0)
(-17.359 1.45202 -1.88602e-17)
(-17.8462 1.30844 0)
(-18.2661 1.17952 1.8586e-17)
(-18.6163 1.0548 0)
(-18.9072 0.954732 0)
(-19.1534 0.854776 -1.81819e-17)
(-19.345 0.741195 0)
(-19.4829 0.637286 -5.37794e-17)
(-19.5417 0.525575 1.78015e-17)
(-19.5415 0.419428 0)
(-19.4934 0.321113 1.75477e-17)
(-19.3871 0.238693 1.74198e-17)
(-19.2505 0.175655 0)
(-19.0644 0.132916 0)
(-18.8549 0.0879056 0)
(-18.6158 0.0187149 0)
(-18.2996 -0.0711046 0)
(-17.9274 -0.159368 -1.66951e-17)
(-17.5161 -0.221221 -3.31383e-17)
(-17.0772 -0.244391 1.64436e-17)
(-16.6216 -0.242701 0)
(-16.1348 -0.233395 -3.23228e-17)
(-15.6234 -0.205147 1.60144e-17)
(-15.1197 -0.150177 0)
(-14.6165 -0.0869557 1.57409e-17)
(-14.0967 -0.0496374 0)
(-13.6309 -0.00802697 0)
(-13.1818 0.0594301 3.07508e-17)
(-12.76 0.0791913 -1.52917e-17)
(-12.3223 0.120835 3.04101e-17)
(-11.9136 0.169299 -3.02717e-17)
(-11.4809 0.20604 -1.50836e-17)
(-11.0124 0.223496 0)
(-10.5693 0.224922 -1.49661e-17)
(-10.0842 0.213961 0)
(-9.56685 0.136625 0)
(-9.08086 0.119621 0)
(-8.54785 0.0719305 -1.46607e-17)
(-8.00043 0.108769 0)
(-7.37322 0.301154 -2.87501e-17)
(-6.76049 0.560549 4.26325e-17)
(-6.29927 0.753318 1.40691e-17)
(-5.90716 0.752571 0)
(-5.38906 0.69427 1.384e-17)
(-4.69615 0.882348 0)
(-4.13022 1.26495 2.72577e-17)
(-3.73693 1.48128 0)
(-3.49204 1.51822 2.67736e-17)
(-3.15585 1.5496 -5.30578e-17)
(-2.87643 1.72897 -2.64067e-17)
(-2.63712 1.85657 0)
(-2.34701 1.77891 0)
(-2.12161 1.77056 0)
(-1.95832 1.86354 2.56327e-17)
(-2.02514 2.18857 0)
(-2.10928 2.60521 -2.53289e-17)
(-2.04405 2.70928 0)
(-2.22525 2.74685 7.39067e-17)
(-2.36721 2.54767 2.45321e-17)
(-1.96151 1.78305 2.43237e-17)
(-1.0997 1.72114 0)
(-0.236896 2.64593 0)
(0.253904 3.10748 0)
(1.03456 2.8658 0)
(2.24694 2.46803 0)
(2.77769 2.27363 4.61684e-17)
(1.34918 3.31325 4.70977e-17)
(-0.628197 4.79432 0)
(-2.05001 5.60857 -2.36307e-17)
(-3.85026 6.12788 -2.32881e-17)
(-5.81192 6.35352 0)
(-6.87805 5.80283 -4.55646e-17)
(-6.92649 5.00583 0)
(-7.05756 4.64111 2.23198e-17)
(-7.26845 4.72426 0)
(-7.21697 4.88764 0)
(-7.01605 5.1915 -4.37792e-17)
(-7.43862 5.46303 0)
(-7.96506 5.38517 2.16009e-17)
(-8.24311 4.87518 0)
(-8.08581 3.84473 0)
(-6.99266 2.85855 2.13004e-17)
(-5.64726 4.19699 2.10399e-17)
(-5.16884 6.32015 0)
(-4.50606 2.23339 -2.05316e-17)
(-3.14364 -0.594736 0)
(-1.57795 6.71316 2.03789e-17)
(-4.66731 6.97912 3.99502e-17)
(-5.42256 5.80213 0)
(-5.05456 5.12048 0)
(-5.3777 5.89736 0)
(-6.80251 5.4136 0)
(-6.90901 4.30614 3.7331e-17)
(-5.92473 3.68424 1.11983e-16)
(-4.76557 4.08738 0)
(-3.37722 5.04001 0)
(-2.71331 6.33086 0)
(-2.86706 6.86902 -3.70904e-17)
(-3.77671 7.18735 0)
(-5.11071 7.28713 0)
(-6.53853 7.30659 7.28346e-17)
(-7.46347 7.15333 3.58403e-17)
(-7.70819 6.90049 3.5329e-17)
(-7.23523 6.89226 0)
(-6.30313 7.42588 0)
(-6.09797 8.20313 3.50666e-17)
(-7.30226 8.50992 -3.48485e-17)
(-9.09816 8.49018 0)
(-10.4256 8.54859 0)
(-11.6366 8.61709 -3.24923e-17)
(-12.3039 8.74946 9.54191e-17)
(-12.437 8.80493 0)
(-12.4858 8.77489 0)
(-12.1804 8.90289 2.98517e-17)
(-11.6543 8.88914 0)
(-11.4108 8.75563 5.89e-17)
(-10.6944 8.6383 -2.97946e-17)
(-10.1203 9.13053 0)
(-10.8346 9.43971 2.88035e-17)
(-10.9504 8.87284 5.72736e-17)
(-10.5552 8.0163 0)
(-8.03794 7.87533 0)
(-5.0081 9.09007 -2.76765e-17)
(-6.39874 9.73938 0)
(-5.43103 9.32411 5.47638e-17)
(-7.20892 9.2151 0)
(-8.29277 9.7094 0)
(-6.90106 10.4363 0)
(-15.0903 12.884 0)
(-10.8404 7.75894 -2.8352e-17)
(-11.2794 -3.00097 -3.01026e-17)
(4.31896 0.730061 0)
(12.3248 8.59798 0)
(13.4507 10.429 0)
(12.7863 9.9495 2.72209e-17)
(11.4708 9.66975 0)
(9.97283 8.54892 -4.87809e-17)
(11.1788 8.10875 4.9878e-17)
(11.1644 9.78416 5.22055e-17)
(5.29898 8.59158 4.77569e-17)
(12.4613 2.63514 4.67511e-17)
(20.0052 5.01823 4.34539e-17)
(22.8247 9.60907 0)
(-0.109064 -0.417934 0)
(-0.240911 -0.579627 0)
(-0.342174 -0.564646 2.33183e-17)
(-0.438468 -0.548557 2.30343e-17)
(-0.54728 -0.567926 -2.27804e-17)
(-0.654972 -0.583284 -2.25855e-17)
(-0.764886 -0.550477 2.6597e-20)
(-0.879961 -0.466433 0)
(-1.01494 -0.384454 0)
(-1.20694 -0.333727 0)
(-1.39635 -0.260484 0)
(-1.5831 -0.211311 0)
(-1.80372 -0.249806 6.41356e-17)
(-2.07187 -0.334946 0)
(-2.38441 -0.34527 -2.09315e-17)
(-2.73099 -0.210566 -2.0877e-17)
(-2.97019 -0.140579 0)
(-3.16855 -0.302236 0)
(-3.51708 -0.556254 0)
(-4.08817 -0.435986 0)
(-4.87844 0.139049 -2.07747e-17)
(-5.7914 0.78172 0)
(-6.75699 1.35225 2.06013e-17)
(-7.7641 1.78985 0)
(-8.93283 2.06958 0)
(-10.0885 2.36638 0)
(-11.185 2.68099 4.05981e-17)
(-12.2049 2.90477 0)
(-13.181 3.03679 -2.01371e-17)
(-14.0388 3.17389 4.01684e-17)
(-14.7936 3.20845 0)
(-15.4928 3.12041 0)
(-16.1337 3.02857 0)
(-16.7394 2.89934 -1.96402e-17)
(-17.2951 2.71289 -1.95147e-17)
(-17.7914 2.5106 0)
(-18.2523 2.29493 0)
(-18.6561 2.07185 3.826e-17)
(-19.0204 1.87804 3.79896e-17)
(-19.343 1.68686 -3.77171e-17)
(-19.5874 1.49359 0)
(-19.7759 1.32103 0)
(-19.9304 1.15796 0)
(-20.0229 0.999029 0)
(-20.0871 0.840087 3.63873e-17)
(-20.1021 0.683088 3.61267e-17)
(-20.0325 0.508348 -3.58715e-17)
(-19.9118 0.363868 0)
(-19.7764 0.242843 0)
(-19.5913 0.147154 0)
(-19.3698 0.0867048 0)
(-19.1223 0.00283794 3.46465e-17)
(-18.8425 -0.116143 0)
(-18.4794 -0.252189 0)
(-18.083 -0.374558 3.39638e-17)
(-17.6974 -0.45 3.37375e-17)
(-17.2901 -0.483921 0)
(-16.8557 -0.513611 -6.64255e-17)
(-16.362 -0.560263 3.29419e-17)
(-15.8364 -0.51357 -3.26487e-17)
(-15.2965 -0.410437 0)
(-14.7229 -0.322451 0)
(-14.0982 -0.253306 0)
(-13.5414 -0.130818 0)
(-12.9855 0.0183657 -3.12694e-17)
(-12.4465 0.0754991 -6.21381e-17)
(-11.8948 0.159221 -3.09433e-17)
(-11.352 0.229083 3.08253e-17)
(-10.8471 0.271462 0)
(-10.3309 0.281626 -6.12355e-17)
(-9.83499 0.322921 -6.09818e-17)
(-9.32694 0.309756 -6.06874e-17)
(-8.79619 0.345591 6.03126e-17)
(-8.32361 0.408507 0)
(-7.91302 0.474648 8.92992e-17)
(-7.56791 0.466045 0)
(-7.19043 0.583436 -2.92e-17)
(-6.67455 0.905605 -2.89138e-17)
(-6.17931 1.25835 0)
(-5.78453 1.26597 0)
(-5.43798 0.991859 -5.65715e-17)
(-4.87687 1.04883 0)
(-4.18458 1.56144 -5.50761e-17)
(-3.72141 2.04077 0)
(-3.52231 2.20892 5.38449e-17)
(-3.05709 2.20742 1.06934e-16)
(-2.36539 2.46575 0)
(-1.71212 2.66108 0)
(-0.998706 2.60928 0)
(-0.44814 3.00776 5.1761e-17)
(0.253665 3.633 0)
(0.41179 4.04791 5.07189e-17)
(0.364585 4.04236 0)
(0.68744 4.22233 0)
(0.674938 4.80548 -9.85341e-17)
(0.772692 4.60042 0)
(0.929568 3.56626 -4.90084e-17)
(0.698799 3.1562 0)
(1.10941 3.9927 -4.85104e-17)
(2.35257 4.44484 0)
(3.41835 3.84813 0)
(3.67211 4.33863 0)
(1.98648 6.44924 -1.41595e-16)
(-0.853077 8.15609 -4.72048e-17)
(-2.66125 8.97311 0)
(-4.00414 9.75059 0)
(-5.21873 10.4337 0)
(-5.96294 10.1979 0)
(-6.3344 9.21287 4.54947e-17)
(-6.47924 8.45663 -9.13404e-17)
(-7.26281 8.20466 -4.54803e-17)
(-7.83036 8.01926 9.06754e-17)
(-7.79673 7.76841 8.98369e-17)
(-7.48515 8.21951 4.39823e-17)
(-7.35792 8.79364 0)
(-6.76722 8.67821 8.58947e-17)
(-6.40699 8.22193 0)
(-6.36384 7.10624 -8.59942e-17)
(-6.14338 5.67208 -4.31976e-17)
(-5.81644 6.11847 0)
(-4.11707 8.11204 8.04152e-17)
(-0.686311 5.56168 4.10193e-17)
(-4.35297 3.85501 0)
(-3.71191 10.6038 4.02668e-17)
(-6.18026 11.0692 -1.18041e-16)
(-6.0368 9.10413 0)
(-4.44767 7.97269 0)
(-4.01904 9.89913 0)
(-5.1855 9.56611 0)
(-5.90764 7.61154 -7.50178e-17)
(-5.10479 6.69419 -7.61979e-17)
(-5.30304 7.00898 0)
(-4.47479 7.79957 0)
(-3.45371 9.58391 0)
(-3.21639 10.5952 0)
(-3.47575 11.6348 0)
(-4.27377 12.1896 0)
(-5.10836 12.3208 -7.17019e-17)
(-5.51764 12.0173 8.88212e-20)
(-5.83383 11.3438 0)
(-5.9189 10.7675 0)
(-5.10307 10.951 -6.97347e-17)
(-3.76749 12.3632 0)
(-2.93514 14.2723 6.88507e-17)
(-4.17217 15.4104 6.88167e-17)
(-6.45618 15.3673 0)
(-8.70451 15.0204 0)
(-10.3021 14.8193 -6.30066e-17)
(-10.9286 14.5601 -1.22317e-16)
(-11.1965 14.6705 0)
(-10.9094 14.6732 0)
(-10.3919 14.756 0)
(-10.2702 14.9541 -5.65122e-17)
(-10.0741 14.9222 5.7524e-17)
(-10.2518 15.9054 0)
(-11.4349 16.7815 1.15152e-16)
(-11.8911 15.8976 5.95008e-17)
(-12.1727 14.1329 -1.16888e-16)
(-11.316 12.7832 0)
(-5.60993 13.9769 0)
(-6.01514 16.0516 -1.08016e-16)
(-4.11925 16.0552 -5.2856e-17)
(-5.10166 15.9387 0)
(-7.82633 15.8986 0)
(0.641089 17.6283 0)
(-6.23027 20.6644 0)
(0.711734 14.1445 -1.13357e-16)
(2.72653 2.16728 0)
(3.4527 1.95904 0)
(10.6955 12.2641 0)
(12.9256 15.9121 0)
(14.2054 16.6361 0)
(14.2506 16.7343 0)
(12.2761 14.9939 -9.43767e-17)
(12.4389 14.3826 0)
(12.3641 17.1954 0)
(8.16951 15.7327 -1.87815e-16)
(15.4884 6.71096 9.38819e-17)
(15.628 9.10093 -8.85919e-17)
(22.127 15.2666 9.40156e-17)
(-0.115191 -0.580586 0)
(-0.239775 -0.88859 -4.79926e-17)
(-0.300322 -0.943101 0)
(-0.346473 -0.910967 -2.32074e-17)
(-0.424459 -0.921309 0)
(-0.511517 -0.939512 0)
(-0.616794 -0.896746 2.25607e-17)
(-0.749333 -0.809782 0)
(-0.896794 -0.643469 0)
(-1.08197 -0.495986 0)
(-1.34109 -0.452695 0)
(-1.5934 -0.323734 0)
(-1.90105 -0.0915889 -8.51554e-17)
(-2.3559 0.0876772 -4.21228e-17)
(-2.80161 0.223321 4.21118e-17)
(-3.11016 -0.0238504 0)
(-3.43418 -0.389395 0)
(-4.00157 -0.0333882 0)
(-4.88774 0.802467 0)
(-5.97862 1.34791 0)
(-7.0818 1.62446 -4.18414e-17)
(-8.16838 1.94709 -4.16596e-17)
(-9.20292 2.51673 4.15278e-17)
(-10.1404 3.18713 -4.15072e-17)
(-11.0959 3.60047 0)
(-11.9821 3.7651 0)
(-12.8412 3.89512 -4.1188e-17)
(-13.6185 4.07675 0)
(-14.3649 4.13542 0)
(-15.0234 4.06591 -4.06181e-17)
(-15.6237 3.99932 -4.03567e-17)
(-16.202 3.89194 -4.00706e-17)
(-16.7527 3.72111 0)
(-17.2301 3.52394 0)
(-17.6878 3.31291 3.92023e-17)
(-18.1403 3.06517 0)
(-18.5451 2.80359 0)
(-18.9174 2.56769 -3.83226e-17)
(-19.2245 2.29386 3.80277e-17)
(-19.4872 2.01404 -3.77352e-17)
(-19.685 1.76655 0)
(-19.8387 1.54539 0)
(-19.9653 1.34445 -7.38568e-17)
(-20.0382 1.14749 0)
(-20.0496 0.929071 -7.27852e-17)
(-20.0152 0.70343 -1.08342e-16)
(-19.9155 0.479636 1.07505e-16)
(-19.7772 0.302463 -7.11341e-17)
(-19.6182 0.155605 0)
(-19.3991 0.0379504 0)
(-19.1422 -0.0731913 -6.96733e-17)
(-18.8503 -0.183748 -3.46135e-17)
(-18.5259 -0.335846 0)
(-18.1601 -0.481207 0)
(-17.7792 -0.596976 -3.38332e-17)
(-17.397 -0.649567 -6.7183e-17)
(-17.0021 -0.688504 0)
(-16.5832 -0.742492 6.6385e-17)
(-16.1017 -0.816399 -6.59104e-17)
(-15.6417 -0.76776 6.55151e-17)
(-15.1312 -0.681304 0)
(-14.5691 -0.634103 0)
(-13.9756 -0.56667 0)
(-13.3978 -0.439455 0)
(-12.8112 -0.321863 0)
(-12.1294 -0.211958 6.29429e-17)
(-11.4474 -0.089381 0)
(-10.8104 0.0347094 0)
(-10.1663 0.140464 0)
(-9.5586 0.21721 1.22631e-16)
(-9.05545 0.290871 6.10036e-17)
(-8.61922 0.313546 6.06139e-17)
(-8.23135 0.392603 -1.20061e-16)
(-7.83581 0.485848 5.94381e-17)
(-7.37909 0.712789 -5.90001e-17)
(-6.94685 0.885738 0)
(-6.52728 0.99347 5.82215e-17)
(-6.0824 1.21574 0)
(-5.53301 1.64863 0)
(-4.91175 1.87839 0)
(-4.55647 1.66332 1.149e-16)
(-4.36427 1.61234 -5.70443e-17)
(-4.07139 2.22533 -5.55727e-17)
(-3.95281 2.97396 -1.09498e-16)
(-3.75428 3.03966 -1.64042e-16)
(-3.24229 2.65861 -5.46692e-17)
(-2.50638 2.85941 0)
(-1.85383 3.19107 -1.06992e-16)
(-1.3375 3.18839 0)
(-0.480213 3.33194 -1.57947e-16)
(0.446629 3.95033 0)
(1.13424 4.93067 -1.5358e-16)
(1.7738 5.35198 0)
(2.46569 5.75053 0)
(2.88516 6.38324 -4.94946e-17)
(3.08101 6.42044 0)
(3.42777 5.78595 4.90949e-17)
(3.43703 5.24768 9.69352e-17)
(3.88842 5.26812 4.84344e-17)
(4.92164 5.40115 9.58767e-17)
(4.05048 6.25564 -9.42622e-17)
(1.59237 8.39542 -9.35785e-17)
(-1.09602 10.9964 1.88362e-16)
(-3.16151 12.442 0)
(-4.18814 12.919 0)
(-5.15652 13.2873 9.14727e-17)
(-5.56072 13.5169 -9.14902e-17)
(-6.07129 12.9812 0)
(-6.44094 12.1278 0)
(-7.18171 11.9127 9.31142e-17)
(-7.93715 11.8045 0)
(-8.15698 11.1319 -2.16443e-19)
(-8.22985 10.6309 -2.01049e-19)
(-8.27344 10.8932 8.88157e-17)
(-7.37882 10.9742 0)
(-6.34783 10.6774 -8.68441e-17)
(-5.73544 10.577 0)
(-5.1291 9.8622 8.56308e-17)
(-4.88966 8.84361 0)
(-5.28349 8.61609 0)
(-3.94252 8.7825 -8.51158e-17)
(-1.58104 8.69251 -8.51654e-17)
(-4.06425 8.57187 0)
(-5.04567 14.3945 -7.96528e-17)
(-7.03048 14.6411 1.59386e-16)
(-4.56239 10.6264 0)
(-4.38043 9.87741 0)
(-2.83725 12.471 0)
(-2.24141 13.2444 0)
(-3.87397 10.7993 7.36105e-17)
(-2.6863 9.65094 -1.50361e-16)
(-3.97773 10.4685 0)
(-4.84208 10.7876 0)
(-4.59762 12.9048 0)
(-4.49462 14.3651 0)
(-4.18749 15.6472 0)
(-4.09828 16.2808 0)
(-3.67114 16.2581 0)
(-3.226 16.1168 6.88447e-17)