/*--------------------------------*- C++ -*----------------------------------*\
| =========                 |                                                 |
| \\      /  F ield         | OpenFOAM: The Open Source CFD Toolbox           |
|  \\    /   O peration     | Version:  dev                                   |
|   \\  /    A nd           | Web:      http://www.openfoam.org               |
|    \\/     M anipulation  |                                                 |
\*---------------------------------------------------------------------------*/
FoamFile
{
    version     2.0;
    format      ascii;
    class       volVectorField;
    object      U_0;
    location    "9.157";
}
// * * * * * * * * * * * * * * * * * * * * * * * * * * * * * * * * * * * * * //

dimensions      [0 1 -1 0 0 0 0];

internalField   nonuniform List<vector> 
12225
(
(7.13667 0.257063 0)
(5.33385 0.00612682 0)
(4.26075 -0.156114 0)
(5.05882 -0.196367 0)
(4.50739 -0.188183 0)
(6.37091 -0.201545 0)
(5.51469 -0.160098 0)
(7.84229 -0.229141 0)
(6.81341 -0.14714 0)
(9.51506 -0.296124 0)
(8.33158 -0.154084 0)
(11.7579 -0.34009 0)
(10.3321 -0.255872 0)
(14.8733 -0.491055 0)
(14.1305 -0.224516 0)
(18.0117 -0.431056 0)
(23.5787 -3.47941 0)
(28.8196 2.85722 0)
(9.84976 0.449602 0)
(10.4167 0.298872 0)
(8.25956 -0.106971 0)
(10.1379 -0.326377 0)
(7.11902 -0.447329 0)
(10.9405 -0.480617 0)
(6.93479 -0.471173 0)
(12.469 -0.653106 0)
(7.54192 -0.50171 0)
(14.3599 -0.742244 0)
(8.74787 -0.665317 0)
(17.2121 -0.984906 0)
(10.8288 -0.859895 0)
(21.161 -1.75913 0)
(14.5471 -0.410137 0)
(26.2738 -4.20584 0)
(20.894 -2.57631 0)
(38.4388 -11.9573 0)
(9.15514 -0.0302674 0)
(12.968 0.0415467 0)
(9.61384 -0.355141 0)
(14.2466 -0.492576 0)
(9.07863 -0.691215 0)
(15.3361 -0.627963 0)
(8.70825 -0.829902 0)
(16.7017 -0.959304 0)
(9.38464 -0.900792 0)
(18.2969 -1.34638 0)
(11.5744 -1.10161 0)
(20.1005 -1.88855 0)
(14.7121 -1.33998 0)
(21.9414 -2.75482 0)
(18.5898 -1.41258 0)
(24.4541 -4.59078 0)
(22.1467 -5.11814 0)
(28.6271 -12.7704 0)
(7.15017 -0.671879 0)
(15.214 -0.3931 0)
(9.50165 -0.798885 0)
(16.8426 -0.79075 0)
(10.6454 -0.998479 0)
(17.8964 -0.993836 0)
(12.1644 -1.04065 0)
(18.6842 -1.49812 0)
(13.643 -1.07782 0)
(19.4956 -2.17447 0)
(15.4234 -1.23036 0)
(20.3965 -3.00116 0)
(17.392 -1.43598 0)
(21.9277 -4.19805 0)
(20.22 -1.51902 0)
(24.4012 -6.91013 0)
(23.8232 -4.68251 0)
(25.6719 -19.7442 0)
(7.21155 -0.945192 0)
(14.5433 -1.35647 0)
(10.5779 -1.13801 0)
(15.8162 -1.57555 0)
(13.0929 -1.15971 0)
(16.6238 -1.85865 0)
(15.1629 -1.19036 0)
(17.5168 -2.20546 0)
(16.6158 -1.33198 0)
(18.49 -2.77278 0)
(18.1972 -1.4695 0)
(19.2986 -3.58271 0)
(19.5719 -1.77478 0)
(20.9937 -4.99823 0)
(21.6905 -2.1027 0)
(23.1954 -7.50876 0)
(24.8024 -3.5827 0)
(22.2207 -18.8772 0)
(9.30331 -1.19687 0)
(11.608 -2.27151 0)
(11.7041 -1.6169 0)
(12.9989 -2.46239 0)
(13.8684 -1.52025 0)
(14.072 -2.70405 0)
(15.4746 -1.53237 0)
(15.6308 -2.98065 0)
(16.8997 -1.68605 0)
(17.1731 -3.55059 0)
(18.4974 -1.8096 0)
(18.6304 -4.36788 0)
(20.1139 -2.42931 0)
(20.6318 -5.7569 0)
(22.0249 -3.32613 0)
(22.9239 -8.08576 0)
(24.1714 -5.52063 0)
(21.6783 -13.8832 0)
(10.0293 -1.49758 0)
(10.8883 -3.12832 0)
(11.8442 -1.79911 0)
(12.6234 -3.32643 0)
(13.6573 -1.70252 0)
(14.096 -3.48691 0)
(15.0662 -1.84846 0)
(15.6471 -3.73159 0)
(16.6245 -2.13349 0)
(17.0351 -4.22694 0)
(18.2547 -2.4236 0)
(18.7532 -4.98077 0)
(19.8582 -3.18405 0)
(20.4931 -6.35096 0)
(21.5379 -4.34359 0)
(22.0251 -8.23117 0)
(22.2936 -6.76153 0)
(21.3631 -12.6128 0)
(10.2285 -2.20181 0)
(11.1293 -3.74394 0)
(12.2632 -2.41102 0)
(12.8273 -3.99532 0)
(13.7436 -2.22843 0)
(14.3537 -4.10891 0)
(14.9713 -2.36034 0)
(15.7816 -4.31694 0)
(16.3828 -2.73759 0)
(17.2057 -4.7177 0)
(17.8429 -3.24333 0)
(18.8758 -5.38411 0)
(19.3207 -4.21143 0)
(20.2597 -6.65521 0)
(20.5479 -5.49187 0)
(21.3342 -8.07741 0)
(21.1172 -7.59679 0)
(20.9963 -10.866 0)
(10.5444 -2.45566 0)
(10.6624 -4.53036 0)
(12.1774 -2.61755 0)
(12.5795 -4.62936 0)
(13.6239 -2.57268 0)
(14.3886 -4.58386 0)
(15.011 -2.85759 0)
(15.8802 -4.71046 0)
(16.4307 -3.32434 0)
(17.2908 -5.16203 0)
(17.8321 -3.9218 0)
(18.7202 -5.80071 0)
(19.1326 -4.89975 0)
(19.9559 -6.87776 0)
(20.1427 -6.23718 0)
(20.7987 -8.21302 0)
(20.7115 -8.33801 0)
(20.6227 -10.1204 0)
(10.5333 -3.21145 0)
(10.9572 -4.94364 0)
(12.0115 -3.32662 0)
(12.6217 -5.05991 0)
(13.5273 -3.32882 0)
(14.2306 -5.04426 0)
(14.9836 -3.50859 0)
(15.6455 -5.14939 0)
(16.3313 -3.9903 0)
(17.0238 -5.53079 0)
(17.5587 -4.61364 0)
(18.3871 -6.10896 0)
(18.7934 -5.67183 0)
(19.585 -7.13225 0)
(19.8365 -6.99456 0)
(20.2315 -8.28784 0)
(20.2621 -8.80402 0)
(20.1298 -9.77347 0)
(10.314 -3.57845 0)
(10.9475 -5.68485 0)
(12.1106 -3.86921 0)
(12.6114 -5.59588 0)
(13.4729 -4.01812 0)
(14.0435 -5.53795 0)
(14.7445 -4.30884 0)
(15.4515 -5.64789 0)
(16.1339 -4.83325 0)
(16.8715 -6.05542 0)
(17.4192 -5.49476 0)
(18.2338 -6.60442 0)
(18.6163 -6.48799 0)
(19.1559 -7.43886 0)
(19.3572 -7.69642 0)
(19.6085 -8.5311 0)
(19.6377 -9.17368 0)
(19.4969 -9.87337 0)
(10.4323 -4.54966 0)
(11.2725 -6.17133 0)
(12.0922 -4.88187 0)
(12.6992 -6.00823 0)
(13.3884 -4.93341 0)
(14.1271 -5.92793 0)
(14.757 -5.16499 0)
(15.4791 -6.09006 0)
(16.0841 -5.6673 0)
(16.7003 -6.47194 0)
(17.1633 -6.29477 0)
(17.8551 -6.95984 0)
(18.2087 -7.11253 0)
(18.6628 -7.75697 0)
(18.9653 -8.20592 0)
(19.1816 -8.78202 0)
(19.2476 -9.38148 0)
(19.1242 -9.89773 0)
(10.5989 -5.26766 0)
(11.2355 -6.70586 0)
(11.9182 -5.66281 0)
(12.3977 -6.48124 0)
(13.112 -5.82425 0)
(13.7927 -6.50409 0)
(14.5088 -6.08205 0)
(15.1638 -6.66118 0)
(15.7608 -6.52583 0)
(16.3124 -7.04844 0)
(16.7956 -7.06994 0)
(17.3685 -7.54044 0)
(17.8019 -7.82682 0)
(18.1845 -8.24843 0)
(18.4721 -8.70759 0)
(18.6765 -9.17095 0)
(18.7473 -9.64716 0)
(18.6295 -10.0865 0)
(10.2258 -6.22443 0)
(11.2043 -7.19755 0)
(11.9338 -6.57873 0)
(12.5329 -6.91175 0)
(13.1171 -6.71455 0)
(13.6728 -7.01859 0)
(14.252 -6.92399 0)
(14.8295 -7.16216 0)
(15.3824 -7.2095 0)
(15.8858 -7.52214 0)
(16.3521 -7.72229 0)
(16.7767 -8.07193 0)
(17.1595 -8.4113 0)
(17.4668 -8.75741 0)
(17.6885 -9.10989 0)
(17.8333 -9.45381 0)
(17.9269 -9.76724 0)
(17.8581 -10.0727 0)
(10.2596 -6.86255 0)
(10.983 -7.74109 0)
(11.6302 -7.36823 0)
(12.2941 -7.37449 0)
(12.9253 -7.3377 0)
(13.5451 -7.49723 0)
(14.1589 -7.60706 0)
(14.764 -7.79398 0)
(15.3244 -7.93761 0)
(15.8465 -8.12843 0)
(16.3164 -8.3041 0)
(16.7079 -8.51767 0)
(17.0511 -8.74154 0)
(17.2975 -8.99421 0)
(17.4529 -9.28903 0)
(17.5782 -9.59298 0)
(17.6605 -9.89406 0)
(17.6251 -10.1614 0)
(10.3192 -7.28864 0)
(11.0418 -8.15388 0)
(11.7133 -8.01156 0)
(12.4017 -8.02364 0)
(13.0796 -8.05692 0)
(13.7185 -8.09972 0)
(14.2685 -8.14565 0)
(14.7657 -8.2189 0)
(15.1895 -8.32876 0)
(15.5748 -8.47552 0)
(15.9316 -8.66299 0)
(16.2548 -8.86715 0)
(16.5371 -9.06089 0)
(16.7996 -9.25928 0)
(17.008 -9.44743 0)
(17.1608 -9.64463 0)
(17.2585 -9.83352 0)
(17.253 -10.0035 0)
(10.4747 -7.52531 0)
(11.1162 -8.34794 0)
(11.7867 -8.27375 0)
(12.4142 -8.30307 0)
(12.9885 -8.33126 0)
(13.55 -8.34943 0)
(14.0769 -8.36159 0)
(14.5891 -8.39143 0)
(15.0509 -8.45498 0)
(15.4736 -8.54064 0)
(15.8373 -8.65415 0)
(16.1527 -8.79698 0)
(16.4109 -8.95102 0)
(16.6269 -9.10449 0)
(16.7831 -9.25954 0)
(16.9146 -9.42754 0)
(17.0061 -9.57727 0)
(17.0094 -9.6985 0)
(10.2356 -7.42118 0)
(11.0073 -8.42519 0)
(11.6929 -8.34251 0)
(12.3434 -8.29186 0)
(12.9027 -8.274 0)
(13.4108 -8.2678 0)
(13.8635 -8.26731 0)
(14.299 -8.28941 0)
(14.6973 -8.32728 0)
(15.0859 -8.39322 0)
(15.4536 -8.47468 0)
(15.7995 -8.55911 0)
(16.103 -8.64898 0)
(16.3587 -8.73554 0)
(16.5538 -8.81209 0)
(16.7099 -8.88796 0)
(16.8261 -8.9629 0)
(16.8656 -9.02576 0)
(10.4747 -7.0788 0)
(11.0575 -8.02147 0)
(11.6504 -7.87736 0)
(12.2081 -7.85063 0)
(12.7389 -7.81389 0)
(13.2829 -7.75996 0)
(13.8105 -7.72365 0)
(14.2944 -7.72594 0)
(14.7186 -7.78682 0)
(15.0821 -7.86949 0)
(15.3696 -7.94852 0)
(15.6307 -8.03088 0)
(15.8647 -8.08635 0)
(16.0932 -8.13083 0)
(16.2938 -8.16516 0)
(16.473 -8.18788 0)
(16.6344 -8.21234 0)
(16.7358 -8.21986 0)
(10.3926 -6.55783 0)
(11.082 -7.35481 0)
(11.739 -7.19545 0)
(12.3223 -7.1745 0)
(12.8128 -7.20067 0)
(13.2605 -7.21416 0)
(13.7079 -7.20588 0)
(14.1427 -7.17546 0)
(14.5531 -7.13091 0)
(14.9431 -7.1055 0)
(15.2713 -7.11257 0)
(15.5605 -7.15532 0)
(15.8033 -7.23762 0)
(16.022 -7.33244 0)
(16.2098 -7.41756 0)
(16.388 -7.48238 0)
(16.5276 -7.52554 0)
(16.6173 -7.51981 0)
(10.4184 -5.91361 0)
(10.9722 -6.6415 0)
(11.656 -6.51381 0)
(12.3184 -6.42689 0)
(12.9266 -6.34909 0)
(13.4712 -6.31311 0)
(13.9492 -6.30478 0)
(14.3875 -6.33756 0)
(14.7932 -6.376 0)
(15.1743 -6.40275 0)
(15.5193 -6.43682 0)
(15.8257 -6.45344 0)
(16.0743 -6.46747 0)
(16.2865 -6.48935 0)
(16.4469 -6.50876 0)
(16.5821 -6.52382 0)
(16.674 -6.54778 0)
(16.7378 -6.54755 0)
(10.3526 -5.0794 0)
(11.1319 -5.74862 0)
(11.8207 -5.70921 0)
(12.4494 -5.69779 0)
(13.0138 -5.67063 0)
(13.5232 -5.64887 0)
(14.0122 -5.64089 0)
(14.449 -5.62177 0)
(14.8425 -5.59335 0)
(15.1841 -5.57199 0)
(15.4846 -5.55988 0)
(15.7486 -5.5614 0)
(15.9702 -5.58268 0)
(16.1682 -5.60146 0)
(16.3487 -5.62639 0)
(16.5184 -5.65118 0)
(16.6443 -5.67137 0)
(16.7543 -5.66969 0)
(10.5765 -4.45349 0)
(11.1602 -5.063 0)
(11.8197 -5.00569 0)
(12.5195 -4.92019 0)
(13.1344 -4.82754 0)
(13.6642 -4.76705 0)
(14.1344 -4.76588 0)
(14.5548 -4.78445 0)
(14.9493 -4.80038 0)
(15.3105 -4.79867 0)
(15.6343 -4.78715 0)
(15.9326 -4.78324 0)
(16.1818 -4.78638 0)
(16.4092 -4.79535 0)
(16.5866 -4.80632 0)
(16.7334 -4.82107 0)
(16.8574 -4.84529 0)
(16.9473 -4.83166 0)
(10.7461 -3.4328 0)
(11.3932 -4.12043 0)
(11.9829 -4.22756 0)
(12.6345 -4.23112 0)
(13.2791 -4.14894 0)
(13.8982 -4.08434 0)
(14.4295 -4.06562 0)
(14.8854 -4.0663 0)
(15.2583 -4.07752 0)
(15.57 -4.06616 0)
(15.8379 -4.04537 0)
(16.0762 -4.01872 0)
(16.2949 -4.00133 0)
(16.4966 -3.99323 0)
(16.667 -3.99369 0)
(16.8151 -4.01058 0)
(16.9392 -4.01652 0)
(17.0594 -4.01545 0)
(10.4285 -2.94594 0)
(11.43 -3.43707 0)
(12.3268 -3.50306 0)
(13.1042 -3.51371 0)
(13.7348 -3.46683 0)
(14.2357 -3.40876 0)
(14.6339 -3.3714 0)
(14.9633 -3.34421 0)
(15.2595 -3.31868 0)
(15.5497 -3.29 0)
(15.8222 -3.26645 0)
(16.0949 -3.25184 0)
(16.3564 -3.256 0)
(16.5952 -3.26998 0)
(16.7965 -3.2982 0)
(16.9759 -3.3097 0)
(17.128 -3.31193 0)
(17.2358 -3.30178 0)
(10.473 -2.34529 0)
(11.3347 -2.97034 0)
(12.172 -3.02194 0)
(12.9668 -2.92257 0)
(13.6533 -2.7951 0)
(14.2294 -2.68639 0)
(14.7018 -2.62871 0)
(15.1011 -2.60848 0)
(15.4491 -2.60964 0)
(15.7589 -2.61417 0)
(16.0396 -2.62614 0)
(16.307 -2.63152 0)
(16.5429 -2.64296 0)
(16.7502 -2.65587 0)
(16.927 -2.65623 0)
(17.0769 -2.64589 0)
(17.1908 -2.63348 0)
(17.2706 -2.61073 0)
(10.2428 -2.09627 0)
(11.4183 -2.4403 0)
(12.4074 -2.40861 0)
(13.1814 -2.34053 0)
(13.7902 -2.26238 0)
(14.2986 -2.17514 0)
(14.7383 -2.10931 0)
(15.1034 -2.06438 0)
(15.402 -2.03434 0)
(15.6309 -2.01908 0)
(15.823 -2.00713 0)
(15.974 -2.00772 0)
(16.0909 -2.01695 0)
(16.1762 -2.02168 0)
(16.2298 -2.01684 0)
(16.2522 -2.01615 0)
(16.263 -2.00247 0)
(16.2582 -1.9759 0)
(10.2152 -1.53274 0)
(11.4464 -2.06165 0)
(12.4016 -1.94421 0)
(12.9509 -1.78837 0)
(13.245 -1.66666 0)
(13.4264 -1.56592 0)
(13.5844 -1.48391 0)
(13.7181 -1.42686 0)
(13.8453 -1.39428 0)
(13.9318 -1.37781 0)
(13.9969 -1.36528 0)
(14.0264 -1.36082 0)
(14.0319 -1.36273 0)
(14.0063 -1.34731 0)
(13.9595 -1.34556 0)
(13.8857 -1.33683 0)
(13.8303 -1.3309 0)
(13.7606 -1.32177 0)
(10.5908 -1.35379 0)
(11.1662 -1.74149 0)
(11.1193 -1.4762 0)
(10.7813 -1.21538 0)
(10.4932 -1.02294 0)
(10.3055 -0.892353 0)
(10.2373 -0.808878 0)
(10.2265 -0.766771 0)
(10.2646 -0.743479 0)
(10.3008 -0.737787 0)
(10.3254 -0.721208 0)
(10.3292 -0.720789 0)
(10.3271 -0.724996 0)
(10.3196 -0.72035 0)
(10.2902 -0.726384 0)
(10.256 -0.72222 0)
(10.2235 -0.733309 0)
(10.1765 -0.738897 0)
(9.15204 -0.626086 0)
(7.22805 -0.593546 0)
(6.01258 -0.332218 0)
(5.51145 -0.21914 0)
(5.48545 -0.18469 0)
(5.65775 -0.183334 0)
(5.92921 -0.190339 0)
(6.21445 -0.198508 0)
(6.49287 -0.200634 0)
(6.7462 -0.209432 0)
(6.96308 -0.204817 0)
(7.13544 -0.208774 0)
(7.28759 -0.211332 0)
(7.41062 -0.213135 0)
(7.50009 -0.213863 0)
(7.57198 -0.216621 0)
(7.61699 -0.22474 0)
(7.61973 -0.222417 0)
(-0.0271037 0.0450401 0)
(-0.0554973 0.0333008 0)
(-0.0928575 0.048363 0)
(-0.136571 0.0567769 0)
(-0.178199 0.0555022 0)
(-0.219652 0.0538579 0)
(-0.261548 0.0561793 1.12981e-17)
(-0.317304 0.0616546 -1.12302e-17)
(-0.38902 0.0674537 0)
(-0.469344 0.0709343 -1.10972e-17)
(-0.561376 0.0763069 0)
(-0.672782 0.0764659 0)
(-0.796423 0.066837 0)
(-0.934416 0.0576152 1.08626e-17)
(-1.07599 0.0545292 0)
(-1.19951 0.0510269 0)
(-1.29934 0.0425818 -1.0676e-17)
(-1.40375 0.0157983 0)
(-1.54471 -0.00243849 0)
(-1.69195 -0.00435711 0)
(-1.8154 0.0335009 1.04555e-17)
(-1.90444 0.0678238 0)
(-2.00909 0.0555698 1.03474e-17)
(-2.17372 -0.0414799 0)
(-2.39063 -0.193469 0)
(-2.63473 -0.315353 1.02044e-17)
(-2.94705 -0.34056 0)
(-3.38543 -0.246099 -1.01549e-17)
(-3.99984 -0.0440527 0)
(-4.77195 0.23923 1.00567e-17)
(-5.69527 0.512844 0)
(-6.75552 0.699428 0)
(-7.86059 0.789536 0)
(-8.95114 0.811795 0)
(-9.9939 0.800384 0)
(-10.9829 0.75891 -9.59539e-18)
(-11.9043 0.698273 0)
(-12.7576 0.642055 1.89197e-17)
(-13.5473 0.587359 0)
(-14.2615 0.532627 -1.86449e-17)
(-14.9001 0.473655 0)
(-15.4851 0.421693 0)
(-16.0008 0.378939 1.82391e-17)
(-16.4604 0.3418 0)
(-16.8628 0.3052 1.79763e-17)
(-17.2066 0.266443 -1.78473e-17)
(-17.4634 0.24072 0)
(-17.6475 0.20237 -1.75913e-17)
(-17.7719 0.16641 -1.74635e-17)
(-17.8294 0.130766 0)
(-17.8433 0.0970727 0)
(-17.8033 0.0831109 0)
(-17.713 0.06077 0)
(-17.5631 0.0365558 0)
(-17.346 0.00990898 1.67122e-17)
(-17.0513 -0.0166415 0)
(-16.6945 -0.0415027 -1.6467e-17)
(-16.3126 -0.0589308 0)
(-15.9076 -0.061543 0)
(-15.469 -0.0585118 1.61011e-17)
(-15.0075 -0.0600355 0)
(-14.5417 -0.0533309 -1.58625e-17)
(-14.0722 -0.0454114 0)
(-13.6013 -0.0362027 0)
(-13.1245 -0.0203191 0)
(-12.652 -0.0145037 1.54145e-17)
(-12.1666 -0.00140513 0)
(-11.6827 0.0171874 0)
(-11.175 0.0242634 1.51165e-17)
(-10.6433 0.0306619 0)
(-10.1401 0.0203839 1.49307e-17)
(-9.56911 0.0296302 0)
(-8.9496 -0.00360928 0)
(-8.29755 0.00450936 0)
(-7.55546 0.00468874 -1.45574e-17)
(-6.82598 0.0377488 0)
(-6.12918 0.0981717 0)
(-5.5359 0.150028 -1.42338e-17)
(-5.05054 0.172194 -1.41341e-17)
(-4.58749 0.186827 0)
(-4.0556 0.208165 -1.39452e-17)
(-3.53739 0.235927 0)
(-3.15545 0.257496 -2.75424e-17)
(-2.87193 0.252479 0)
(-2.622 0.247126 -2.72204e-17)
(-2.35103 0.249209 0)
(-2.11713 0.269214 2.68815e-17)
(-1.9101 0.288286 0)
(-1.68556 0.284731 0)
(-1.42298 0.325155 0)
(-1.15154 0.390636 -2.61244e-17)
(-0.999546 0.413323 0)
(-1.02296 0.414924 2.57141e-17)
(-1.09932 0.463017 0)
(-1.24338 0.556673 -2.52776e-17)
(-1.3639 0.581632 -2.51246e-17)
(-1.09298 0.527798 -2.49365e-17)
(-0.413853 0.551471 0)
(-0.0829768 0.612928 0)
(-0.100402 0.652665 0)
(-0.0611409 0.638795 0)
(0.346248 0.501545 0)
(1.08578 0.249839 0)
(1.8426 -0.0828627 0)
(2.25904 0.225405 0)
(1.42184 1.25036 2.39459e-17)
(-0.143954 1.54506 2.38087e-17)
(-1.90591 1.67355 0)
(-3.74724 2.03488 0)
(-5.19877 2.00424 0)
(-5.80741 1.57028 2.28501e-17)
(-6.14959 1.43115 0)
(-6.56241 1.46002 0)
(-7.00603 1.52443 0)
(-7.68531 1.61567 0)
(-8.50288 1.65422 -2.20667e-17)
(-9.1407 1.6453 0)
(-9.21856 1.44907 0)
(-8.16204 0.980605 2.14282e-17)
(-6.41891 1.37963 -2.1375e-17)
(-7.58328 2.17197 0)
(-9.38085 0.662385 -2.09766e-17)
(-2.48127 -0.879026 0)
(-1.15883 2.41671 2.08025e-17)
(-5.57583 2.45764 0)
(-6.31848 2.0361 0)
(-6.85496 1.81596 0)
(-7.17364 2.03892 0)
(-8.40036 1.92369 0)
(-8.10757 1.752 -3.90816e-17)
(-7.12462 1.63127 -3.88668e-17)
(-5.99168 1.99875 0)
(-5.50798 2.40862 0)
(-6.12044 2.63728 0)
(-7.30636 2.58034 3.86905e-17)
(-8.62073 2.53191 0)
(-9.90283 2.55958 0)
(-11.1233 2.6624 0)
(-12.0515 2.69741 3.7514e-17)
(-12.69 2.75236 -3.72374e-17)
(-12.9464 2.73728 0)
(-12.9383 2.56508 0)
(-13.0875 2.61152 -3.63338e-17)
(-13.619 2.83469 -3.59467e-17)
(-14.4081 3.0713 0)
(-15.1775 3.29787 0)
(-15.9832 3.41844 3.46551e-17)
(-16.5185 3.46458 -3.42188e-17)
(-16.7804 3.5166 0)
(-16.7025 3.63215 0)
(-16.3263 3.73462 -3.30126e-17)
(-15.6977 3.7482 0)
(-14.9677 3.74453 0)
(-13.4876 3.64451 -3.24001e-17)
(-11.7017 3.69917 0)
(-11.0529 3.91257 -3.19373e-17)
(-10.3963 3.95272 0)
(-9.17012 3.86775 0)
(-6.95238 3.99233 0)
(-5.4521 4.07675 3.08899e-17)
(-6.36654 4.07925 0)
(-4.87955 3.79622 0)
(-5.38355 4.07056 0)
(-6.73616 4.25327 0)
(-4.27497 3.97072 0)
(-12.1603 6.16665 0)
(-19.5306 4.75205 3.41432e-17)
(-9.64778 -1.86075 3.44151e-17)
(9.36933 2.23704 0)
(12.6141 4.0248 0)
(10.8513 3.9251 0)
(9.16644 3.80747 -2.90493e-17)
(8.32415 3.65442 0)
(8.41533 3.30647 5.64371e-17)
(10.8142 2.88261 -5.70722e-17)
(12.6543 3.62855 -5.8002e-17)
(7.41856 3.94633 5.41127e-17)
(12.2375 1.95849 -5.04782e-17)
(23.0004 2.84464 5.24048e-17)
(20.1923 3.46453 0)
(-0.0438678 0.184555 0)
(-0.0695895 0.123867 0)
(-0.094167 0.151999 -2.30645e-17)
(-0.122543 0.15507 0)
(-0.147099 0.138313 2.26207e-17)
(-0.16584 0.122224 2.24568e-17)
(-0.185095 0.128772 1.11564e-17)
(-0.223999 0.148321 1.10741e-17)
(-0.288189 0.169501 0)
(-0.359491 0.191365 1.09238e-17)
(-0.449765 0.226355 0)
(-0.580631 0.268155 0)
(-0.715789 0.300067 -2.14346e-17)
(-0.832057 0.327229 -1.06608e-17)
(-0.943056 0.271362 2.12371e-17)
(-1.07464 0.149481 2.11047e-17)
(-1.25233 0.0952989 1.04765e-17)
(-1.42374 0.177437 0)
(-1.54393 0.235853 0)
(-1.61195 0.124935 0)
(-1.78432 -0.0502046 1.02952e-17)
(-2.11285 -0.11959 0)
(-2.62128 0.0270751 -3.09037e-17)
(-3.29704 0.284274 0)
(-4.16622 0.545972 0)
(-5.19272 0.839078 -1.02305e-17)
(-6.2846 1.21163 0)
(-7.4321 1.57099 1.00472e-17)
(-8.59297 1.86338 1.99614e-17)
(-9.68845 2.10044 -9.91078e-18)
(-10.7257 2.23689 0)
(-11.7087 2.25977 0)
(-12.6375 2.19882 0)
(-13.5179 2.07947 1.93707e-17)
(-14.3398 1.95029 1.92375e-17)
(-15.1061 1.81025 9.55564e-18)
(-15.8236 1.64927 0)
(-16.4874 1.48355 -1.88546e-17)
(-17.0975 1.32496 0)
(-17.6433 1.18128 1.85855e-17)
(-18.1202 1.04104 0)
(-18.5362 0.926349 0)
(-18.9065 0.816364 -1.81852e-17)
(-19.2203 0.692099 0)
(-19.4786 0.577 -5.37906e-17)
(-19.6536 0.454456 1.7808e-17)
(-19.7613 0.335868 0)
(-19.8139 0.222949 1.75577e-17)
(-19.7966 0.123666 1.7431e-17)
(-19.7368 0.0436993 0)
(-19.6157 -0.0127403 0)
(-19.4565 -0.0667735 0)
(-19.2602 -0.142039 0)
(-18.9772 -0.240038 0)
(-18.6209 -0.342028 -1.67105e-17)
(-18.2082 -0.423292 -3.31728e-17)
(-17.7502 -0.466343 1.64646e-17)
(-17.2613 -0.480377 0)
(-16.728 -0.485207 -3.23709e-17)
(-16.1515 -0.473617 1.60392e-17)
(-15.5648 -0.434824 0)
(-14.9688 -0.382485 1.57678e-17)
(-14.3426 -0.355788 0)
(-13.7565 -0.330369 0)
(-13.1775 -0.276194 3.08016e-17)
(-12.6179 -0.269346 -1.53163e-17)
(-12.0333 -0.244017 3.04589e-17)
(-11.4692 -0.210515 -3.03213e-17)
(-10.8766 -0.18873 -1.51097e-17)
(-10.2388 -0.187051 0)
(-9.6205 -0.202621 -1.49956e-17)
(-8.9566 -0.23019 0)
(-8.25364 -0.32835 0)
(-7.58043 -0.36783 0)
(-6.86181 -0.43863 -1.47027e-17)
(-6.13218 -0.428419 0)
(-5.32323 -0.260698 -2.88452e-17)
(-4.52924 -0.018756 4.27772e-17)
(-3.89434 0.160776 1.41177e-17)
(-3.33627 0.13989 0)
(-2.667 0.0491058 1.38905e-17)
(-1.82712 0.206691 0)
(-1.11233 0.564767 2.73656e-17)
(-0.58698 0.758298 0)
(-0.222688 0.769494 2.68881e-17)
(0.216502 0.777087 -5.32892e-17)
(0.586859 0.927469 -2.65289e-17)
(0.905165 1.02452 0)
(1.24764 0.917371 0)
(1.49837 0.883857 0)
(1.66738 0.955831 2.57747e-17)
(1.58912 1.26196 0)
(1.4625 1.6515 -2.54806e-17)
(1.44445 1.72632 0)
(1.1395 1.74285 7.4378e-17)
(0.885602 1.49895 2.47021e-17)
(1.14118 0.698418 2.45022e-17)
(1.82596 0.64104 0)
(2.49498 1.561 0)
(2.76364 1.99829 0)
(3.30946 1.73522 0)
(4.20382 1.32507 0)
(4.37525 1.15689 4.65972e-17)
(2.58199 2.22018 4.75315e-17)
(0.288435 3.68561 0)
(-1.42265 4.487 -2.38467e-17)
(-3.50767 5.02159 -2.35015e-17)
(-5.73968 5.2554 0)
(-7.08113 4.71246 -4.59884e-17)
(-7.3658 3.9247 0)
(-7.70212 3.57676 2.25247e-17)
(-8.10252 3.68171 0)
(-8.20664 3.87501 0)
(-8.10723 4.23759 -4.42063e-17)
(-8.60651 4.58882 0)
(-9.20412 4.58804 2.18236e-17)
(-9.54526 4.16404 0)
(-9.46281 3.18281 0)
(-8.42111 2.14514 2.14839e-17)
(-7.03593 3.47287 2.12814e-17)
(-6.41011 5.85747 0)
(-5.70396 1.86033 -2.06849e-17)
(-4.28492 -1.25291 0)
(-2.61422 6.3369 2.05387e-17)
(-5.61878 6.79785 4.02879e-17)
(-6.34335 5.61824 0)
(-5.82075 4.92944 0)
(-5.96716 5.84563 0)
(-7.30717 5.45057 0)
(-7.39644 4.33931 3.77217e-17)
(-6.33678 3.70457 1.13147e-16)
(-5.11201 4.1265 0)
(-3.63355 5.10785 0)
(-2.84369 6.4709 0)
(-2.89818 7.07743 -3.7506e-17)
(-3.74333 7.46804 0)
(-5.0601 7.6269 0)
(-6.49847 7.68813 7.37198e-17)
(-7.45013 7.5593 3.62451e-17)
(-7.74678 7.30422 3.58284e-17)
(-7.32345 7.28275 0)
(-6.38282 7.83162 0)
(-6.09453 8.69888 3.56297e-17)
(-7.21119 9.16553 -3.53683e-17)
(-9.08475 9.28659 0)
(-10.6294 9.44589 0)
(-12.0819 9.60531 -3.3142e-17)
(-12.9588 9.81743 9.71937e-17)
(-13.175 9.95069 0)
(-13.215 10.0244 0)
(-12.8326 10.2516 3.03761e-17)
(-12.1492 10.3425 0)
(-11.7119 10.3158 5.97836e-17)
(-10.8071 10.2773 -3.02399e-17)
(-10.0331 10.9156 0)
(-10.5839 11.339 2.94171e-17)
(-10.5715 10.8177 5.85996e-17)
(-10.08 9.81281 0)
(-7.4075 9.46811 0)
(-3.69171 10.7342 -2.81627e-17)
(-4.60532 11.5113 0)
(-3.22933 11.036 5.57341e-17)
(-4.72196 10.9259 0)
(-5.66475 11.1631 0)
(-3.39053 12.159 0)
(-11.7208 14.6112 0)
(-7.14916 8.6069 -2.89068e-17)
(-8.35165 -2.73499 -3.08323e-17)
(7.94619 1.96216 0)
(16.1242 9.98771 0)
(16.7926 11.5612 0)
(15.9502 10.9388 2.76929e-17)
(14.4459 10.5827 0)
(12.6175 9.27178 -4.96019e-17)
(13.5304 8.8332 5.09065e-17)
(12.7401 10.5832 5.31125e-17)
(6.26282 8.84082 4.83922e-17)
(13.2977 2.3977 4.76424e-17)
(20.0676 5.10522 4.43572e-17)
(21.9358 9.72624 0)
(-0.0542209 0.306513 0)
(-0.0791346 0.129951 0)
(-0.0724574 0.133199 2.32568e-17)
(-0.0587946 0.13943 2.29624e-17)
(-0.0572566 0.112445 -2.27204e-17)
(-0.0571407 0.0896738 -2.25261e-17)
(-0.0611147 0.114984 1.56213e-20)
(-0.07042 0.189633 0)
(-0.100714 0.260698 0)
(-0.191179 0.298838 0)
(-0.283069 0.360192 0)
(-0.376081 0.398105 0)
(-0.509647 0.347457 6.39594e-17)
(-0.70063 0.248587 0)
(-0.9401 0.224041 -2.08806e-17)
(-1.21926 0.344842 -2.08255e-17)
(-1.39995 0.400947 0)
(-1.5412 0.225219 0)
(-1.83635 -0.0463469 0)
(-2.36102 0.0475527 0)
(-3.11774 0.590099 -2.07266e-17)
(-4.00965 1.2017 0)
(-4.96301 1.74733 2.05611e-17)
(-5.95858 2.16839 0)
(-7.12473 2.42428 0)
(-8.29487 2.68657 0)
(-9.41956 2.97198 4.05104e-17)
(-10.4734 3.17525 0)
(-11.4968 3.27872 -2.01052e-17)
(-12.4161 3.38763 4.00926e-17)
(-13.2387 3.40732 0)
(-14.0152 3.29824 0)
(-14.7414 3.17987 0)
(-15.4396 3.03231 -1.96261e-17)
(-16.0985 2.82734 -1.95026e-17)
(-16.7048 2.6027 0)
(-17.2807 2.36537 0)
(-17.8053 2.11769 3.82429e-17)
(-18.2919 1.89854 3.79751e-17)
(-18.7432 1.68616 -3.77082e-17)
(-19.119 1.47034 0)
(-19.4343 1.27393 0)
(-19.7153 1.08928 0)
(-19.9311 0.910858 0)
(-20.1132 0.733012 3.63991e-17)
(-20.2466 0.55942 3.61341e-17)
(-20.2906 0.36354 -3.58812e-17)
(-20.2694 0.193208 0)
(-20.2222 0.0457569 0)
(-20.1157 -0.0764848 0)
(-19.9591 -0.157663 0)
(-19.7643 -0.253238 3.46651e-17)
(-19.5294 -0.384677 0)
(-19.1983 -0.53914 0)
(-18.8115 -0.688059 3.39902e-17)
(-18.4196 -0.794312 3.37721e-17)
(-17.994 -0.855086 0)
(-17.5298 -0.904104 -6.65128e-17)
(-16.9924 -0.977394 3.29931e-17)
(-16.4027 -0.965557 -3.27027e-17)
(-15.7832 -0.887175 0)
(-15.1208 -0.816657 0)
(-14.3885 -0.771326 0)
(-13.709 -0.677756 0)
(-13.022 -0.546991 -3.13219e-17)
(-12.3417 -0.508903 -6.22316e-17)
(-11.6401 -0.450923 -3.09906e-17)
(-10.9367 -0.405772 3.08727e-17)
(-10.2642 -0.389192 0)
(-9.57449 -0.408794 -6.13478e-17)
(-8.89927 -0.397316 -6.11075e-17)
(-8.2086 -0.441864 -6.08263e-17)
(-7.48939 -0.441142 6.04625e-17)
(-6.82499 -0.411165 0)
(-6.2234 -0.376251 8.95514e-17)
(-5.69164 -0.418267 0)
(-5.13461 -0.337761 -2.92945e-17)
(-4.44332 -0.0476522 -2.90124e-17)
(-3.7771 0.279833 0)
(-3.21611 0.257189 0)
(-2.70903 -0.0696653 -5.67775e-17)
(-2.00015 -0.0637171 0)
(-1.17776 0.411591 -5.52995e-17)
(-0.598208 0.85805 0)
(-0.282756 0.982283 5.40761e-17)
(0.290012 0.929043 1.07417e-16)
(1.0699 1.14232 0)
(1.80175 1.28918 0)
(2.57025 1.19656 0)
(3.15976 1.5637 5.20289e-17)
(3.86147 2.14832 0)
(3.97501 2.51311 5.09964e-17)
(3.89139 2.45877 0)
(4.14565 2.61604 0)
(4.02032 3.16254 -9.91764e-17)
(4.00585 2.86743 0)
(4.02074 1.7596 -4.93523e-17)
(3.61912 1.34518 0)
(3.85308 2.17184 -4.88621e-17)
(4.87862 2.577 0)
(5.64247 1.98853 0)
(5.51813 2.54654 0)
(3.4441 4.67725 -1.42891e-16)
(0.290809 6.34564 -4.76524e-17)
(-1.77382 7.11326 0)
(-3.40477 7.8922 0)
(-4.87391 8.59086 0)
(-5.86024 8.36168 0)
(-6.4734 7.3957 4.59804e-17)
(-6.84848 6.66207 -9.22417e-17)
(-7.83543 6.46227 -4.59905e-17)
(-8.60771 6.31326 9.15847e-17)
(-8.7515 6.0925 9.08067e-17)
(-8.56474 6.61677 4.45234e-17)
(-8.50682 7.31138 0)
(-7.97369 7.30579 8.66741e-17)
(-7.63597 6.98032 0)
(-7.61073 5.97927 -8.67444e-17)
(-7.41946 4.56643 -4.3682e-17)
(-7.13811 5.01363 0)
(-5.35926 7.19043 8.13181e-17)
(-1.78756 4.8539 4.14677e-17)
(-5.36718 3.05116 0)
(-4.75694 10.0506 4.05402e-17)
(-7.14848 10.73 -1.1919e-16)
(-6.88158 8.72073 0)
(-5.20575 7.59154 0)
(-4.53555 9.71917 0)
(-5.50901 9.60101 0)
(-6.24685 7.65379 -7.564e-17)
(-5.37021 6.73196 -7.70336e-17)
(-5.56441 7.11138 0)
(-4.78465 7.91574 0)
(-3.72877 9.78445 0)
(-3.4375 10.8935 0)
(-3.61675 12.0363 0)
(-4.33589 12.6788 0)
(-5.08227 12.8696 -7.25949e-17)
(-5.43593 12.6311 -4.55054e-20)
(-5.73595 12.0184 0)
(-5.92789 11.4712 0)
(-5.26892 11.6217 -7.09636e-17)
(-3.96041 13.0475 0)
(-2.99152 15.1393 7.01329e-17)
(-4.01283 16.6222 6.99878e-17)
(-6.34131 16.8802 0)
(-8.79661 16.7345 0)
(-10.6384 16.6513 -6.45737e-17)
(-11.4462 16.4599 -1.24978e-16)
(-11.7808 16.7041 0)
(-11.4414 16.8575 0)
(-10.8186 17.1114 0)
(-10.5223 17.5048 -5.75759e-17)
(-10.0911 17.6635 5.86629e-17)
(-10.0576 18.8906 0)
(-10.9616 19.9252 1.17427e-16)
(-11.2479 19.2253 6.09109e-17)
(-11.447 17.3264 -1.20536e-16)
(-10.789 15.5764 0)
(-4.74989 16.4975 0)
(-4.53114 18.862 -1.0986e-16)
(-2.03751 18.8582 -5.38723e-17)
(-2.60245 18.8534 0)
(-4.95436 18.3885 0)
(3.80577 19.5477 0)
(-2.32829 23.47 0)
(4.34846 16.4327 -1.18589e-16)
(5.67803 3.12568 0)
(6.75001 3.85586 0)
(13.7307 14.4226 0)
(15.6612 17.7743 0)
(17.0411 18.3541 0)
(17.0413 18.3369 0)
(14.6614 16.2869 -9.61346e-17)
(14.5092 15.6286 0)
(13.766 18.4756 0)
(9.44137 16.0717 -1.91118e-16)
(15.9493 6.40856 9.5703e-17)
(15.3158 9.1558 -9.09499e-17)
(21.1192 15.2777 9.59491e-17)
(-0.0587099 0.405729 0)
(-0.0795402 0.080027 -4.78343e-17)
(-0.0383059 0.012996 0)
(0.0228381 0.032823 -2.31465e-17)
(0.0545895 0.0105945 0)
(0.0762927 -0.0191387 0)
(0.0743009 0.0108761 2.2473e-17)
(0.0403348 0.0863646 0)
(-0.0076492 0.239718 0)
(-0.0912564 0.373393 0)
(-0.253613 0.400294 0)
(-0.416149 0.511884 0)
(-0.638293 0.726009 -8.49266e-17)
(-1.01911 0.883218 -4.19954e-17)
(-1.3889 1.00381 4.1976e-17)
(-1.62094 0.746072 0)
(-1.88408 0.352089 0)
(-2.39946 0.666187 0)
(-3.23064 1.47107 0)
(-4.26938 2.00126 0)
(-5.33773 2.25273 -4.17258e-17)
(-6.40347 2.52678 -4.15501e-17)
(-7.43149 3.03605 4.14155e-17)
(-8.3661 3.66823 -4.13881e-17)
(-9.32174 4.06841 0)
(-10.2218 4.20946 0)
(-11.1091 4.29347 -4.11186e-17)
(-11.9228 4.43631 0)
(-12.7157 4.47267 0)
(-13.4371 4.37109 -4.05704e-17)
(-14.1063 4.26648 -4.0294e-17)
(-14.7596 4.12948 -4.00118e-17)
(-15.3983 3.92981 0)
(-15.9725 3.70053 0)
(-16.5281 3.45957 3.91564e-17)
(-17.0885 3.18358 0)
(-17.6083 2.88861 0)
(-18.1016 2.62214 -3.83068e-17)
(-18.5355 2.32215 3.7993e-17)
(-18.9266 2.01061 -3.77013e-17)
(-19.254 1.72741 0)
(-19.5341 1.47153 0)
(-19.7857 1.23936 -7.3835e-17)
(-19.985 1.01667 0)
(-20.1179 0.774636 -7.2789e-17)
(-20.2027 0.522437 -1.08377e-16)
(-20.2147 0.267988 1.07544e-16)
(-20.1745 0.0510364 -7.11539e-17)
(-20.1049 -0.128963 0)
(-19.9647 -0.276516 0)
(-19.7746 -0.414019 -6.97078e-17)
(-19.5374 -0.545214 -3.46426e-17)
(-19.2544 -0.718241 0)
(-18.9138 -0.894379 0)
(-18.5408 -1.04927 -3.38697e-17)
(-18.1536 -1.1395 -6.72412e-17)
(-17.741 -1.20763 0)
(-17.2937 -1.28647 6.64619e-17)
(-16.7652 -1.39843 -6.59824e-17)
(-16.2411 -1.3954 6.55874e-17)
(-15.6586 -1.33926 0)
(-15.0086 -1.32061 0)
(-14.3089 -1.2914 0)
(-13.6115 -1.20027 0)
(-12.8989 -1.1124 0)
(-12.0789 -1.03393 6.3057e-17)
(-11.2418 -0.945943 0)
(-10.4428 -0.856425 0)
(-9.62954 -0.785625 0)
(-8.84254 -0.745935 1.22889e-16)
(-8.15589 -0.709731 6.11407e-17)
(-7.53495 -0.727855 6.07649e-17)
(-6.96439 -0.690517 -1.20384e-16)
(-6.38845 -0.642016 5.96028e-17)
(-5.7487 -0.458654 -5.91666e-17)
(-5.12931 -0.326813 0)
(-4.52215 -0.265673 5.83947e-17)
(-3.8958 -0.0914394 0)
(-3.17109 0.297878 0)
(-2.3755 0.48357 0)
(-1.84768 0.203439 1.15288e-16)
(-1.50356 0.0890061 -5.72617e-17)
(-1.09949 0.663725 -5.57951e-17)
(-0.868651 1.36044 -1.09954e-16)
(-0.532613 1.34337 -1.64755e-16)
(0.104715 0.881768 -5.49203e-17)
(0.937979 1.02738 0)
(1.65618 1.30311 -1.07509e-16)
(2.23282 1.23533 0)
(3.12828 1.3302 -1.5877e-16)
(4.04405 1.91554 0)
(4.68682 2.84153 -1.54442e-16)
(5.28731 3.17926 0)
(5.90168 3.52595 0)
(6.20027 4.10639 -4.97692e-17)
(6.27869 4.04327 0)
(6.47195 3.32477 4.94409e-17)
(6.30415 2.74035 9.75848e-17)
(6.59291 2.71623 4.88119e-17)
(7.33354 2.87032 9.6519e-17)
(6.04402 3.82997 -9.4934e-17)
(3.23524 6.02158 -9.43342e-17)
(0.263859 8.54617 1.89965e-16)
(-2.03956 9.87693 0)
(-3.33271 10.3029 0)
(-4.5891 10.6993 9.2272e-17)
(-5.22008 10.9298 -9.24015e-17)
(-5.97577 10.4262 0)
(-6.56657 9.58168 0)
(-7.5348 9.40737 9.41796e-17)
(-8.47668 9.38841 0)
(-8.88336 8.7949 -3.785e-19)
(-9.11587 8.34698 -3.67197e-19)
(-9.31269 8.70454 8.98666e-17)
(-8.51742 8.90402 0)
(-7.55053 8.74291 -8.80127e-17)
(-6.95216 8.81138 0)
(-6.32705 8.25193 8.66276e-17)
(-6.08429 7.32251 0)
(-6.52309 7.14809 0)
(-5.15974 7.44747 -8.63962e-17)
(-2.73313 7.60162 -8.60035e-17)
(-5.02291 7.48595 0)
(-5.92534 13.6935 -8.06019e-17)
(-7.85304 14.0576 1.61173e-16)
(-5.20237 9.99878 0)
(-5.05932 9.28082 0)
(-3.40316 12.0198 0)
(-2.45084 13.1198 0)
(-4.12776 10.796 7.44503e-17)
(-2.88099 9.62959 -1.51727e-16)
(-4.08282 10.6314 0)
(-5.08356 10.982 0)
(-4.85764 13.1456 0)
(-4.78216 14.6964 0)
(-4.37343 16.0615 0)
(-4.16999 16.7756 0)
(-3.62167 16.8136 0)