/*--------------------------------*- C++ -*----------------------------------*\
| =========                 |                                                 |
| \\      /  F ield         | OpenFOAM: The Open Source CFD Toolbox           |
|  \\    /   O peration     | Version:  dev                                   |
|   \\  /    A nd           | Web:      http://www.openfoam.org               |
|    \\/     M anipulation  |                                                 |
\*---------------------------------------------------------------------------*/
FoamFile
{
    version     2.0;
    format      ascii;
    class       volVectorField;
    object      UMean;
    location    "9.157";
}
// * * * * * * * * * * * * * * * * * * * * * * * * * * * * * * * * * * * * * //

dimensions      [0 1 -1 0 0 0 0];

internalField   nonuniform List<vector> 
12225
(
(7.00358 0.430269 0)
(4.43873 0.192547 0)
(2.55675 0.0311591 0)
(2.5108 -0.0166562 0)
(1.38446 0.0193657 0)
(2.26727 -0.0342788 0)
(0.989561 0.0489837 0)
(2.18251 -0.0591732 0)
(0.797535 0.0716511 0)
(2.29172 -0.0978438 0)
(0.688756 0.0993602 0)
(2.74361 -0.138633 0)
(0.948047 0.102597 0)
(3.39728 -0.172138 0)
(3.5309 -0.168479 0)
(4.69649 0.0499761 0)
(14.8439 -2.43382 0)
(7.11931 5.13343 0)
(9.54625 0.98157 0)
(9.54327 0.860846 0)
(6.68679 0.466284 0)
(7.59028 0.214534 0)
(4.09059 0.140326 0)
(6.84297 0.0108029 0)
(2.66519 0.132665 0)
(6.68901 -0.0903313 0)
(1.82277 0.141853 0)
(7.03878 -0.165056 0)
(1.26074 0.123899 0)
(8.12128 -0.414388 0)
(1.38498 0.252336 0)
(9.95508 -1.44222 0)
(3.43428 0.271754 0)
(12.3897 -4.06801 0)
(10.4271 -1.92757 0)
(7.77627 0.48464 0)
(9.11851 0.763544 0)
(12.1667 0.951383 0)
(8.32961 0.623998 0)
(11.8319 0.443373 0)
(6.22615 0.310343 0)
(11.4128 0.206448 0)
(4.58298 0.221553 0)
(11.3148 -0.0195438 0)
(3.87459 0.193001 0)
(11.3761 -0.277827 0)
(4.35096 0.187273 0)
(11.2523 -0.723018 0)
(5.72906 0.17584 0)
(11.0897 -1.49145 0)
(7.21534 0.0523309 0)
(12.1167 -3.86609 0)
(6.93314 0.350675 0)
(9.35325 -2.39123 0)
(7.21917 0.524975 0)
(13.9928 0.960957 0)
(7.92995 0.609505 0)
(14.2952 0.55379 0)
(7.47453 0.420959 0)
(14.1163 0.271007 0)
(7.17596 0.396756 0)
(13.7384 -0.145163 0)
(7.25701 0.459669 0)
(13.2696 -0.698733 0)
(7.65969 0.576825 0)
(12.8747 -1.42271 0)
(8.26736 0.699385 0)
(12.6512 -2.31325 0)
(9.02442 0.0417674 0)
(11.8873 -3.63719 0)
(8.68707 -1.43223 0)
(8.36391 0.681341 0)
(6.42426 0.57008 0)
(14.0107 0.565876 0)
(8.47369 0.674562 0)
(13.9578 0.284481 0)
(9.16952 0.636775 0)
(13.6432 -0.00260348 0)
(9.51727 0.657924 0)
(13.2137 -0.388711 0)
(9.59217 0.734435 0)
(12.8128 -0.871271 0)
(9.44569 0.876926 0)
(12.5824 -1.52132 0)
(9.1499 1.08991 0)
(12.5704 -2.48994 0)
(8.82759 1.13214 0)
(11.6166 -5.02796 0)
(8.5426 1.26654 0)
(8.72213 0.127647 0)
(7.95674 0.616901 0)
(11.8028 0.152381 0)
(9.50529 0.654793 0)
(11.7391 0.050203 0)
(10.0884 0.693955 0)
(11.6001 -0.165678 0)
(10.3206 0.725865 0)
(11.476 -0.457532 0)
(10.3006 0.783037 0)
(11.3893 -0.853579 0)
(10.0328 0.832056 0)
(11.3552 -1.40009 0)
(9.49234 0.801285 0)
(11.4181 -2.13846 0)
(8.80065 0.725919 0)
(10.9985 -3.92032 0)
(7.73316 1.33571 0)
(9.48925 -0.217813 0)
(9.34433 0.812738 0)
(10.4387 -0.265971 0)
(10.1409 0.930595 0)
(10.5536 -0.304577 0)
(10.3989 1.02005 0)
(10.5817 -0.502915 0)
(10.5204 1.07555 0)
(10.6252 -0.781155 0)
(10.5637 1.15353 0)
(10.6716 -1.15765 0)
(10.5157 1.23528 0)
(10.6999 -1.63551 0)
(10.3672 1.26125 0)
(10.6881 -2.32703 0)
(10.0533 1.27116 0)
(10.376 -3.95383 0)
(8.29921 2.01891 0)
(9.69716 -0.952257 0)
(9.84919 0.701182 0)
(10.156 -0.325962 0)
(10.4067 0.855134 0)
(10.3898 -0.349906 0)
(10.5804 0.906916 0)
(10.4706 -0.493982 0)
(10.7017 0.893014 0)
(10.552 -0.686256 0)
(10.8055 0.872748 0)
(10.6439 -0.935181 0)
(10.8811 0.823883 0)
(10.7354 -1.23262 0)
(10.9082 0.671376 0)
(10.7539 -1.67244 0)
(10.7233 0.519641 0)
(10.4925 -2.47365 0)
(8.89414 0.980485 0)
(9.96395 -0.483977 0)
(10.0858 0.802291 0)
(10.0197 -0.583393 0)
(10.5356 1.02155 0)
(10.3107 -0.604504 0)
(10.6751 1.07507 0)
(10.44 -0.724957 0)
(10.7776 1.04826 0)
(10.5709 -0.890003 0)
(10.8573 1.0037 0)
(10.7114 -1.11771 0)
(10.8989 0.921158 0)
(10.8318 -1.39487 0)
(10.8742 0.734819 0)
(10.8222 -1.76078 0)
(10.6024 0.505716 0)
(10.5206 -2.06863 0)
(9.35041 0.586161 0)
(10.0235 -0.391665 0)
(10.1391 0.648646 0)
(10.0423 -0.511902 0)
(10.5103 0.878084 0)
(10.3335 -0.456478 0)
(10.6214 0.869248 0)
(10.482 -0.493617 0)
(10.6978 0.778277 0)
(10.629 -0.572105 0)
(10.7342 0.657911 0)
(10.7636 -0.69531 0)
(10.7179 0.49556 0)
(10.8402 -0.844947 0)
(10.6183 0.26408 0)
(10.7655 -1.0321 0)
(10.2825 0.0701998 0)
(10.4795 -1.05274 0)
(9.62359 0.12391 0)
(10.207 -0.0329089 0)
(10.141 0.700024 0)
(10.0707 -0.691854 0)
(10.4525 0.902573 0)
(10.2985 -0.618885 0)
(10.5374 0.847675 0)
(10.4302 -0.645494 0)
(10.6032 0.735308 0)
(10.5606 -0.707348 0)
(10.6272 0.586803 0)
(10.6604 -0.791203 0)
(10.6092 0.383176 0)
(10.6812 -0.869244 0)
(10.5269 0.117131 0)
(10.571 -0.922062 0)
(10.2916 -0.113719 0)
(10.3609 -0.765034 0)
(10.02 -0.154111 0)
(10.2456 -0.125354 0)
(10.0969 0.467996 0)
(10.1509 -0.49502 0)
(10.3536 0.59577 0)
(10.2934 -0.374537 0)
(10.4203 0.527538 0)
(10.4093 -0.354709 0)
(10.4848 0.418879 0)
(10.5239 -0.374108 0)
(10.5131 0.275729 0)
(10.5993 -0.414577 0)
(10.5157 0.0933242 0)
(10.597 -0.46157 0)
(10.4767 -0.103293 0)
(10.4996 -0.500039 0)
(10.3572 -0.232102 0)
(10.3646 -0.405562 0)
(10.266 -0.219833 0)
(10.3739 -0.110257 0)
(10.05 0.411008 0)
(10.1754 -0.487158 0)
(10.2548 0.437229 0)
(10.2378 -0.367409 0)
(10.3087 0.367382 0)
(10.3306 -0.345483 0)
(10.3792 0.250877 0)
(10.4246 -0.355204 0)
(10.4226 0.0995103 0)
(10.4822 -0.374805 0)
(10.4462 -0.0796599 0)
(10.4817 -0.40335 0)
(10.4329 -0.246624 0)
(10.4261 -0.4312 0)
(10.3772 -0.339147 0)
(10.3686 -0.392603 0)
(10.3571 -0.320502 0)
(10.4222 -0.276501 0)
(10.0153 0.199624 0)
(10.1907 -0.285693 0)
(10.1932 0.167342 0)
(10.2052 -0.179207 0)
(10.2293 0.131683 0)
(10.2791 -0.171277 0)
(10.3062 0.0472679 0)
(10.3625 -0.197702 0)
(10.366 -0.0586613 0)
(10.4142 -0.235668 0)
(10.4054 -0.175965 0)
(10.4267 -0.286376 0)
(10.4123 -0.274946 0)
(10.4112 -0.331603 0)
(10.3994 -0.324078 0)
(10.4065 -0.337143 0)
(10.4108 -0.315978 0)
(10.4697 -0.30479 0)
(9.99664 0.097141 0)
(10.1444 -0.185767 0)
(10.1463 0.021714 0)
(10.1501 -0.13357 0)
(10.1622 -0.0085703 0)
(10.2089 -0.146073 0)
(10.241 -0.0768978 0)
(10.2919 -0.186658 0)
(10.311 -0.159331 0)
(10.3486 -0.237896 0)
(10.3575 -0.244727 0)
(10.379 -0.298245 0)
(10.3805 -0.316221 0)
(10.3938 -0.350013 0)
(10.3958 -0.360959 0)
(10.4184 -0.380131 0)
(10.4238 -0.380992 0)
(10.4788 -0.387181 0)
(9.99364 0.0155056 0)
(10.1059 -0.0857435 0)
(10.1088 -0.0442734 0)
(10.1138 -0.0931954 0)
(10.1188 -0.0748373 0)
(10.1674 -0.118885 0)
(10.1979 -0.120558 0)
(10.2518 -0.163786 0)
(10.274 -0.180524 0)
(10.3153 -0.219115 0)
(10.3277 -0.243886 0)
(10.3596 -0.277773 0)
(10.3658 -0.301288 0)
(10.3938 -0.328953 0)
(10.3994 -0.34694 0)
(10.4327 -0.370748 0)
(10.4354 -0.383735 0)
(10.4882 -0.396954 0)
(9.99176 0.00476329 0)
(10.0636 -0.0251341 0)
(10.0567 -0.0348853 0)
(10.0678 -0.0664372 0)
(10.0778 -0.0756814 0)
(10.128 -0.0997304 0)
(10.1573 -0.115904 0)
(10.2109 -0.144666 0)
(10.2337 -0.168937 0)
(10.2781 -0.199537 0)
(10.2919 -0.226529 0)
(10.3299 -0.257004 0)
(10.3383 -0.283286 0)
(10.373 -0.312019 0)
(10.3787 -0.33677 0)
(10.4151 -0.365501 0)
(10.4145 -0.388016 0)
(10.4633 -0.407431 0)
(9.99159 0.0141267 0)
(10.0467 0.0161066 0)
(10.0399 -0.0106164 0)
(10.0576 -0.0377149 0)
(10.0748 -0.0565609 0)
(10.1255 -0.0778761 0)
(10.1554 -0.0988805 0)
(10.2071 -0.123834 0)
(10.2311 -0.148998 0)
(10.2753 -0.176632 0)
(10.2911 -0.203431 0)
(10.3292 -0.232158 0)
(10.3394 -0.259362 0)
(10.3736 -0.288305 0)
(10.38 -0.315628 0)
(10.414 -0.345693 0)
(10.4131 -0.371549 0)
(10.4566 -0.393363 0)
(9.99172 0.0328816 0)
(10.0502 0.0495593 0)
(10.0566 0.00986625 0)
(10.0799 -0.0181346 0)
(10.1007 -0.040285 0)
(10.1506 -0.0615182 0)
(10.1819 -0.0836423 0)
(10.2316 -0.106437 0)
(10.2562 -0.130572 0)
(10.2984 -0.155531 0)
(10.315 -0.181091 0)
(10.3507 -0.207337 0)
(10.3614 -0.233567 0)
(10.3926 -0.260416 0)
(10.399 -0.28703 0)
(10.4287 -0.315282 0)
(10.4281 -0.34101 0)
(10.4652 -0.362782 0)
(9.98988 0.0406329 0)
(10.0547 0.0525343 0)
(10.0827 -0.00643488 0)
(10.1167 -0.0407538 0)
(10.1419 -0.0641866 0)
(10.1903 -0.0823264 0)
(10.2223 -0.102144 0)
(10.269 -0.121049 0)
(10.2935 -0.142779 0)
(10.332 -0.164019 0)
(10.3483 -0.187427 0)
(10.3801 -0.210111 0)
(10.3904 -0.234413 0)
(10.4173 -0.257928 0)
(10.4228 -0.282788 0)
(10.4473 -0.307817 0)
(10.4461 -0.332442 0)
(10.4767 -0.352827 0)
(9.99049 0.0315251 0)
(10.0684 0.0218987 0)
(10.1261 -0.0558326 0)
(10.1769 -0.0968352 0)
(10.2125 -0.119849 0)
(10.2609 -0.132803 0)
(10.2937 -0.147825 0)
(10.336 -0.1617 0)
(10.3601 -0.179865 0)
(10.394 -0.196946 0)
(10.4103 -0.217381 0)
(10.4376 -0.236258 0)
(10.4478 -0.257995 0)
(10.4701 -0.278055 0)
(10.4753 -0.300728 0)
(10.4945 -0.322345 0)
(10.4939 -0.345191 0)
(10.5186 -0.363465 0)
(9.99116 0.0098033 0)
(10.092 -0.029834 0)
(10.1869 -0.120938 0)
(10.2595 -0.162859 0)
(10.3093 -0.181198 0)
(10.3589 -0.18722 0)
(10.3929 -0.196082 0)
(10.4304 -0.204404 0)
(10.4542 -0.218134 0)
(10.4837 -0.230764 0)
(10.5001 -0.247614 0)
(10.5232 -0.262636 0)
(10.5337 -0.281334 0)
(10.5517 -0.298013 0)
(10.5572 -0.31806 0)
(10.5719 -0.336391 0)
(10.5723 -0.356962 0)
(10.592 -0.37309 0)
(9.99282 -0.0234392 0)
(10.1275 -0.103715 0)
(10.2671 -0.205009 0)
(10.3665 -0.241657 0)
(10.4319 -0.250857 0)
(10.4835 -0.248425 0)
(10.5183 -0.250925 0)
(10.5517 -0.253714 0)
(10.5753 -0.262984 0)
(10.6012 -0.271334 0)
(10.6181 -0.284655 0)
(10.6378 -0.296265 0)
(10.6487 -0.312067 0)
(10.6632 -0.325815 0)
(10.6692 -0.34334 0)
(10.6801 -0.358782 0)
(10.6814 -0.37709 0)
(10.6968 -0.391227 0)
(9.99044 -0.0716333 0)
(10.1743 -0.201246 0)
(10.3678 -0.305525 0)
(10.5 -0.327911 0)
(10.5804 -0.322593 0)
(10.6343 -0.310209 0)
(10.6689 -0.305579 0)
(10.6996 -0.302565 0)
(10.7226 -0.306693 0)
(10.7459 -0.310563 0)
(10.7624 -0.319873 0)
(10.7793 -0.328011 0)
(10.7894 -0.340535 0)
(10.8005 -0.351306 0)
(10.8055 -0.36589 0)
(10.8123 -0.378443 0)
(10.8122 -0.393995 0)
(10.8221 -0.40594 0)
(9.99201 -0.136407 0)
(10.2447 -0.32308 0)
(10.5026 -0.419063 0)
(10.6711 -0.417668 0)
(10.7627 -0.394187 0)
(10.8174 -0.371104 0)
(10.8493 -0.358926 0)
(10.8771 -0.350562 0)
(10.896 -0.350064 0)
(10.9148 -0.350452 0)
(10.9253 -0.356327 0)
(10.9355 -0.361454 0)
(10.9374 -0.370746 0)
(10.9394 -0.378605 0)
(10.934 -0.389794 0)
(10.9292 -0.399373 0)
(10.9164 -0.411288 0)
(10.9116 -0.420432 0)
(9.98974 -0.219949 0)
(10.3368 -0.468183 0)
(10.6736 -0.539775 0)
(10.8757 -0.508231 0)
(10.9696 -0.464836 0)
(11.0134 -0.428034 0)
(11.0285 -0.404771 0)
(11.0352 -0.388338 0)
(11.029 -0.381363 0)
(11.0194 -0.376909 0)
(10.998 -0.378112 0)
(10.9735 -0.379016 0)
(10.9377 -0.383733 0)
(10.9 -0.387208 0)
(10.8523 -0.393569 0)
(10.8043 -0.398891 0)
(10.7463 -0.405207 0)
(10.6947 -0.409978 0)
(9.9833 -0.332105 0)
(10.4675 -0.642364 0)
(10.8828 -0.667134 0)
(11.0724 -0.60264 0)
(11.1029 -0.537177 0)
(11.0583 -0.483097 0)
(10.9743 -0.444949 0)
(10.8732 -0.416184 0)
(10.7578 -0.397966 0)
(10.6351 -0.383226 0)
(10.5036 -0.374839 0)
(10.3668 -0.366281 0)
(10.2244 -0.362396 0)
(10.0777 -0.356944 0)
(9.92897 -0.355797 0)
(9.77745 -0.353205 0)
(9.62633 -0.352907 0)
(9.47646 -0.351071 0)
(10.0025 -0.453669 0)
(10.619 -0.818971 0)
(10.9016 -0.752059 0)
(10.7933 -0.623723 0)
(10.4938 -0.512513 0)
(10.1377 -0.429166 0)
(9.77025 -0.373536 0)
(9.41778 -0.334693 0)
(9.07703 -0.307264 0)
(8.75573 -0.284581 0)
(8.4468 -0.267627 0)
(8.15376 -0.251307 0)
(7.87307 -0.240019 0)
(7.60354 -0.22732 0)
(7.34879 -0.221117 0)
(7.09931 -0.21181 0)
(6.87094 -0.21084 0)
(6.64155 -0.204168 0)
(10.0974 -0.750801 0)
(10.0458 -1.01321 0)
(9.4249 -0.801074 0)
(8.51445 -0.572166 0)
(7.65507 -0.378718 0)
(6.92897 -0.244881 0)
(6.32745 -0.167517 0)
(5.83179 -0.126248 0)
(5.40941 -0.104701 0)
(5.04887 -0.0923202 0)
(4.72882 -0.0849618 0)
(4.44813 -0.0793504 0)
(4.19176 -0.0758095 0)
(3.9629 -0.071894 0)
(3.75122 -0.0721401 0)
(3.55607 -0.0690889 0)
(3.38388 -0.0802733 0)
(3.21898 -0.0828693 0)
(8.51673 -0.436074 0)
(6.1102 -0.380894 0)
(4.2983 -0.138051 0)
(3.1239 -0.0213886 0)
(2.48116 0.0191317 0)
(2.12056 0.0224712 0)
(1.89635 0.0137143 0)
(1.73506 0.0046141 0)
(1.59905 -0.00156989 0)
(1.47834 -0.0047925 0)
(1.36626 -0.00640579 0)
(1.26412 -0.00671922 0)
(1.16847 -0.00670837 0)
(1.08175 -0.00639038 0)
(0.999726 -0.00665919 0)
(0.919499 -0.00703487 0)
(0.852 -0.0186106 0)
(0.731488 -0.0061363 0)
(-0.0520392 0.137984 0)
(-0.157156 0.071593 0)
(-0.207239 0.0165742 0)
(-0.19549 -0.0442442 0)
(-0.11833 -0.0989597 0)
(0.0117526 -0.144994 0)
(0.185706 -0.175549 1.11357e-17)
(0.387363 -0.19353 -1.10607e-17)
(0.605526 -0.197945 0)
(0.827862 -0.192706 -1.09176e-17)
(1.045 -0.178388 0)
(1.24795 -0.157646 0)
(1.43016 -0.131029 0)
(1.58637 -0.101686 1.0643e-17)
(1.71393 -0.0704482 0)
(1.81006 -0.0383918 0)
(1.87387 -0.00626162 -1.04458e-17)
(1.90607 0.023985 0)
(1.90833 0.0504476 0)
(1.88274 0.0721834 0)
(1.83298 0.0891569 1.01964e-17)
(1.76161 0.100705 0)
(1.67253 0.108556 1.00744e-17)
(1.56745 0.111444 0)
(1.45099 0.109555 0)
(1.32588 0.107934 9.89571e-18)
(1.19238 0.111273 0)
(1.04971 0.116436 -9.77937e-18)
(0.901091 0.12171 0)
(0.747111 0.126772 9.66447e-18)
(0.589328 0.130779 0)
(0.430021 0.133232 0)
(0.271467 0.134381 0)
(0.11415 0.134146 0)
(-0.0416074 0.131239 0)
(-0.193732 0.12655 -9.32969e-18)
(-0.340572 0.120434 0)
(-0.481718 0.113927 1.84406e-17)
(-0.615733 0.107437 0)
(-0.742205 0.100217 -1.82216e-17)
(-0.859671 0.0931992 0)
(-0.968302 0.0864519 0)
(-1.06853 0.0787245 1.78884e-17)
(-1.15991 0.070384 0)
(-1.24305 0.0626796 1.76652e-17)
(-1.31803 0.0554361 -1.75531e-17)
(-1.38435 0.0483323 0)
(-1.44272 0.042055 -1.73282e-17)
(-1.49423 0.0365684 -1.72151e-17)
(-1.53792 0.0328409 0)
(-1.57399 0.0312687 0)
(-1.60434 0.0313001 0)
(-1.6311 0.0314745 0)
(-1.65524 0.0315152 0)
(-1.67818 0.0324097 1.65281e-17)
(-1.7018 0.0339708 0)
(-1.72748 0.0362135 -1.62989e-17)
(-1.75398 0.0382998 0)
(-1.78006 0.0389348 0)
(-1.80571 0.0395177 1.59525e-17)
(-1.83159 0.0412463 0)
(-1.8594 0.0424298 -1.57211e-17)
(-1.88915 0.0440674 0)
(-1.92056 0.0455131 0)
(-1.95313 0.0462707 0)
(-1.98624 0.0473955 1.52555e-17)
(-2.01986 0.0493526 0)
(-2.05406 0.0516199 0)
(-2.08895 0.0540109 1.49058e-17)
(-2.12482 0.0553417 0)
(-2.15888 0.0555833 1.46711e-17)
(-2.19004 0.0562666 0)
(-2.21842 0.0568438 0)
(-2.24284 0.0568535 0)
(-2.26205 0.056271 -1.42051e-17)
(-2.27542 0.0550634 0)
(-2.28354 0.0542949 0)
(-2.28824 0.0541861 -1.38613e-17)
(-2.28994 0.0531758 -1.37479e-17)
(-2.28694 0.0514878 0)
(-2.27745 0.049185 -1.35227e-17)
(-2.26135 0.0462279 0)
(-2.23825 0.0430434 -2.66024e-17)
(-2.20815 0.0395801 0)
(-2.17158 0.0358784 -2.61669e-17)
(-2.12839 0.0327901 0)
(-2.07965 0.0303567 2.57381e-17)
(-2.02619 0.0283711 0)
(-1.96815 0.0269292 0)
(-1.90616 0.0259555 0)
(-1.84178 0.0253637 -2.49011e-17)
(-1.77476 0.0250908 0)
(-1.70671 0.025046 2.44993e-17)
(-1.63766 0.0256241 0)
(-1.56831 0.0266373 -2.411e-17)
(-1.50058 0.0291249 -2.39214e-17)
(-1.43368 0.0302806 -2.37371e-17)
(-1.36662 0.0313333 0)
(-1.30134 0.0313465 0)
(-1.23668 0.0325315 0)
(-1.17093 0.0333742 0)
(-1.10611 0.033014 0)
(-1.03632 0.0319112 0)
(-0.967582 0.0332449 0)
(-0.896762 0.0329068 0)
(-0.829719 0.0352694 2.22134e-17)
(-0.762257 0.0357078 2.20611e-17)
(-0.699774 0.0400607 0)
(-0.639016 0.0413263 0)
(-0.582993 0.0409129 0)
(-0.515049 0.038306 2.14806e-17)
(-0.452294 0.0425087 0)
(-0.383319 0.0407736 0)
(-0.318123 0.0435964 0)
(-0.24707 0.0406142 0)
(-0.173959 0.0429944 -2.08062e-17)
(-0.0985719 0.0445205 0)
(-0.0173812 0.0435133 0)
(0.0679852 0.0450104 2.0429e-17)
(0.15695 0.0449054 -2.03074e-17)
(0.249427 0.0442853 0)
(0.345443 0.0482864 -2.00747e-17)
(0.437528 0.0511286 0)
(0.530201 0.0546606 1.98482e-17)
(0.612004 0.0593613 0)
(0.683198 0.0624192 0)
(0.758171 0.0626771 0)
(0.827515 0.0633983 0)
(0.907092 0.0605309 0)
(0.980684 0.0610604 -3.83962e-17)
(1.05628 0.062597 -3.81771e-17)
(1.11638 0.0673486 0)
(1.1669 0.066433 0)
(1.21155 0.0677654 0)
(1.248 0.0636938 3.72526e-17)
(1.29558 0.0588715 0)
(1.34464 0.0572169 0)
(1.38931 0.056081 0)
(1.4377 0.0538498 3.62324e-17)
(1.47669 0.056036 -3.59644e-17)
(1.52106 0.0527354 0)
(1.55964 0.0527814 0)
(1.60093 0.053238 -3.51494e-17)
(1.62717 0.0582968 -3.48764e-17)
(1.65702 0.0549886 0)
(1.68576 0.0586993 0)
(1.72515 0.0557184 3.40431e-17)
(1.76207 0.065992 -3.37636e-17)
(1.77032 0.0713938 0)
(1.78408 0.0707998 0)
(1.80914 0.071174 -3.29269e-17)
(1.84236 0.0758891 0)
(1.85576 0.0834779 0)
(1.86669 0.0891754 -3.20828e-17)
(1.86572 0.0933083 0)
(1.88008 0.0981117 -3.15223e-17)
(1.88251 0.105109 0)
(1.88844 0.109231 0)
(1.87548 0.120779 0)
(1.86196 0.126675 3.04332e-17)
(1.8465 0.133158 0)
(1.81445 0.142967 0)
(1.74221 0.154588 0)
(1.66568 0.154607 0)
(1.6003 0.156979 0)
(1.51027 0.165859 0)
(1.38286 0.172533 2.88921e-17)
(1.26437 0.173921 2.87378e-17)
(1.0808 0.181944 0)
(0.874452 0.184707 0)
(0.630806 0.183808 0)
(0.414292 0.170013 -2.83204e-17)
(0.19172 0.162996 0)
(0.0390469 0.146633 5.63457e-17)
(-0.160098 0.14382 -5.62362e-17)
(-0.262152 0.12377 -5.60571e-17)
(-0.423596 0.126695 5.59528e-17)
(-0.457105 0.0964935 -5.57505e-17)
(-0.614572 0.129452 5.57318e-17)
(-0.564317 -0.00373008 0)
(0.010099 0.249122 0)
(0.0143347 0.192502 0)
(0.0492448 0.00818329 -2.27966e-17)
(0.120373 -0.197963 0)
(0.235089 -0.383919 2.23656e-17)
(0.387199 -0.535286 2.2219e-17)
(0.568204 -0.644181 1.10441e-17)
(0.767961 -0.710174 1.09818e-17)
(0.975202 -0.736853 0)
(1.17933 -0.730648 1.08547e-17)
(1.37171 -0.694867 0)
(1.54505 -0.636629 0)
(1.69536 -0.562072 -2.1321e-17)
(1.81791 -0.47772 -1.05953e-17)
(1.91262 -0.385876 2.10565e-17)
(1.97772 -0.291362 2.0923e-17)
(2.01454 -0.199023 1.03959e-17)
(2.02319 -0.110963 0)
(2.00614 -0.0279936 0)
(1.96332 0.046639 0)
(1.89858 0.11205 1.01368e-17)
(1.81197 0.17118 0)
(1.70816 0.22412 -3.0038e-17)
(1.58596 0.266993 0)
(1.44772 0.302011 0)
(1.29398 0.332633 -9.83205e-18)
(1.12824 0.356641 0)
(0.953238 0.373956 9.71565e-18)
(0.772803 0.385026 1.93129e-17)
(0.587838 0.392297 -9.59764e-18)
(0.401119 0.394389 0)
(0.213912 0.390588 0)
(0.0259008 0.383274 0)
(-0.162425 0.37625 1.87312e-17)
(-0.349283 0.367575 1.86167e-17)
(-0.533366 0.355229 9.25133e-18)
(-0.711954 0.340399 0)
(-0.885574 0.323277 -1.82763e-17)
(-1.05026 0.302742 0)
(-1.20832 0.280873 1.80508e-17)
(-1.35813 0.258431 0)
(-1.50129 0.23567 0)
(-1.63628 0.21529 -1.77166e-17)
(-1.76404 0.196234 0)
(-1.887 0.178324 -5.24865e-17)
(-2.00427 0.15957 1.73857e-17)
(-2.11495 0.140663 0)
(-2.21865 0.123743 1.71655e-17)
(-2.31629 0.106081 1.70552e-17)
(-2.4066 0.0864751 0)
(-2.48768 0.0674876 0)
(-2.56164 0.0528904 0)
(-2.63038 0.0432837 0)
(-2.6958 0.0382379 0)
(-2.75728 0.0367991 -1.63736e-17)
(-2.81691 0.0364237 -3.2515e-17)
(-2.87493 0.0366814 1.61413e-17)
(-2.92873 0.0343257 0)
(-2.9801 0.0305049 -3.18128e-17)
(-3.02944 0.0293067 1.57874e-17)
(-3.07608 0.0302057 0)
(-3.12352 0.0308394 1.55498e-17)
(-3.1689 0.033292 0)
(-3.21199 0.0343991 0)
(-3.25332 0.0334598 3.0375e-17)
(-3.29344 0.0325121 -1.50672e-17)
(-3.32918 0.0304225 2.98916e-17)
(-3.36248 0.0276009 -2.96503e-17)
(-3.39049 0.0246048 -1.47046e-17)
(-3.41552 0.0207662 0)
(-3.4345 0.0137317 -1.44629e-17)
(-3.4465 0.00390014 0)
(-3.45286 -0.006537 0)
(-3.45083 -0.0188968 0)
(-3.43963 -0.0330293 -1.3983e-17)
(-3.42023 -0.0470448 0)
(-3.3943 -0.0572831 -2.74951e-17)
(-3.36254 -0.0645879 4.08943e-17)
(-3.32536 -0.0732933 1.35163e-17)
(-3.28188 -0.084515 0)
(-3.23042 -0.0973502 1.32879e-17)
(-3.17364 -0.110119 0)
(-3.11119 -0.122253 2.61243e-17)
(-3.04355 -0.133339 0)
(-2.97085 -0.143908 2.56813e-17)
(-2.89301 -0.153345 -5.09227e-17)
(-2.81119 -0.162293 -2.52474e-17)
(-2.72694 -0.170285 0)
(-2.6377 -0.177821 0)
(-2.54623 -0.18344 0)
(-2.45258 -0.187636 2.44072e-17)
(-2.35561 -0.191673 0)
(-2.25742 -0.194381 -2.4001e-17)
(-2.15923 -0.194783 0)
(-2.06048 -0.196387 7.08221e-17)
(-1.96172 -0.195755 2.34173e-17)
(-1.86233 -0.19679 2.32314e-17)
(-1.76502 -0.194064 0)
(-1.67023 -0.193387 0)
(-1.57484 -0.194142 0)
(-1.47689 -0.194862 0)
(-1.37999 -0.197281 0)
(-1.27741 -0.20157 4.43235e-17)
(-1.1812 -0.199624 4.39875e-17)
(-1.0815 -0.199813 0)
(-0.993929 -0.194293 -2.16762e-17)
(-0.897493 -0.195262 -2.15241e-17)
(-0.810222 -0.188529 0)
(-0.715505 -0.187507 -4.24453e-17)
(-0.636662 -0.1871 0)
(-0.539671 -0.197404 2.09385e-17)
(-0.453038 -0.191384 0)
(-0.347224 -0.199463 0)
(-0.252301 -0.196288 -4.10588e-17)
(-0.138738 -0.204822 0)
(-0.0342899 -0.2052 2.02727e-17)
(0.0913354 -0.213124 0)
(0.218404 -0.220811 0)
(0.354643 -0.224809 1.98873e-17)
(0.495576 -0.229647 1.97709e-17)
(0.641671 -0.234918 0)
(0.79101 -0.235292 -1.95334e-17)
(0.951163 -0.237028 0)
(1.1104 -0.228095 1.92967e-17)
(1.27461 -0.218592 3.83631e-17)
(1.4224 -0.212295 0)
(1.57942 -0.213717 0)
(1.72467 -0.21385 0)
(1.88449 -0.215415 0)
(2.03145 -0.210355 3.72303e-17)
(2.18581 -0.207069 1.11006e-16)
(2.32196 -0.188188 0)
(2.44571 -0.182957 0)
(2.56457 -0.171953 0)
(2.66887 -0.173633 -3.60797e-17)
(2.77037 -0.178161 0)
(2.8704 -0.177861 0)
(2.96466 -0.176485 7.06156e-17)
(3.0578 -0.177 3.50338e-17)
(3.13311 -0.172462 3.47652e-17)
(3.22121 -0.179823 0)
(3.28508 -0.173545 0)
(3.35242 -0.175007 3.39202e-17)
(3.39939 -0.164214 -3.36141e-17)
(3.44465 -0.178375 0)
(3.47472 -0.175309 0)
(3.50905 -0.191479 -3.27212e-17)
(3.53829 -0.173514 9.71866e-17)
(3.55283 -0.16899 0)
(3.56387 -0.179775 0)
(3.57493 -0.191214 3.14593e-17)
(3.59545 -0.189255 0)
(3.5909 -0.18242 6.16251e-17)
(3.58817 -0.180567 -3.04712e-17)
(3.56038 -0.185256 0)
(3.55691 -0.194665 2.98443e-17)
(3.5332 -0.191119 5.90538e-17)
(3.52234 -0.192399 0)
(3.47569 -0.185385 0)
(3.45168 -0.194028 -2.85736e-17)
(3.41072 -0.186048 0)
(3.35307 -0.169152 5.58864e-17)
(3.25526 -0.149911 0)
(3.16315 -0.155108 0)
(3.04355 -0.146827 0)
(2.91474 -0.122083 0)
(2.72109 -0.103307 -2.66523e-17)
(2.56246 -0.0764062 -2.64626e-17)
(2.27914 -0.0269481 0)
(2.00714 -0.00170518 0)
(1.67719 0.0230503 0)
(1.38111 0.0191993 2.59574e-17)
(1.04686 0.0236807 0)
(0.838774 0.0137995 -5.16676e-17)
(0.519876 0.0318254 5.16417e-17)
(0.406439 0.000603198 5.14927e-17)
(0.125597 0.031258 5.14831e-17)
(0.127041 -0.0167168 5.13312e-17)
(-0.1688 0.0796551 5.14954e-17)
(0.015924 -0.115915 0)
(0.0290354 0.0718009 0)
(0.120871 -0.0372643 0)
(0.22766 -0.240453 2.29135e-17)
(0.339456 -0.467332 2.26651e-17)
(0.47363 -0.691934 -2.25137e-17)
(0.617543 -0.873963 -2.24011e-17)
(0.771674 -1.00282 -1.48029e-21)
(0.922946 -1.07335 0)
(1.06814 -1.08436 0)
(1.195 -1.04539 0)
(1.30389 -0.96573 0)
(1.38995 -0.856611 0)
(1.45565 -0.726219 6.4714e-17)
(1.49643 -0.586116 0)
(1.51515 -0.441353 -2.13055e-17)
(1.51002 -0.294938 -2.11693e-17)
(1.48391 -0.153605 0)
(1.4354 -0.0202143 0)
(1.36905 0.103609 0)
(1.28459 0.216175 0)
(1.18434 0.31566 -2.0503e-17)
(1.06919 0.39883 0)
(0.944186 0.471291 2.02489e-17)
(0.806628 0.53646 0)
(0.659398 0.591365 0)
(0.503844 0.636318 0)
(0.345361 0.672297 3.95254e-17)
(0.182946 0.699513 0)
(0.019088 0.718917 -1.95224e-17)
(-0.145748 0.729249 3.88001e-17)
(-0.309832 0.732337 0)
(-0.476157 0.733969 0)
(-0.64267 0.730831 0)
(-0.807978 0.721207 -1.89166e-17)
(-0.969657 0.705837 -1.87958e-17)
(-1.12812 0.684245 0)
(-1.28177 0.656866 0)
(-1.42981 0.62528 3.68591e-17)
(-1.57084 0.591193 3.66194e-17)
(-1.71009 0.556805 -3.63813e-17)
(-1.84425 0.524016 0)
(-1.97653 0.490462 0)
(-2.10315 0.458236 0)
(-2.22603 0.428805 0)
(-2.34461 0.401112 3.52006e-17)
(-2.45721 0.371849 3.49669e-17)
(-2.56467 0.342162 -3.47349e-17)
(-2.66656 0.313583 0)
(-2.76243 0.28568 0)
(-2.85306 0.256629 0)
(-2.93838 0.229793 0)
(-3.02379 0.212033 3.35755e-17)
(-3.10327 0.196223 0)
(-3.17785 0.183043 0)
(-3.24591 0.175248 3.2878e-17)
(-3.3094 0.170112 3.26464e-17)
(-3.36738 0.163333 0)
(-3.4178 0.154176 -6.43595e-17)
(-3.46602 0.147304 3.19484e-17)
(-3.5105 0.141101 -3.17139e-17)
(-3.54896 0.13722 0)
(-3.58463 0.13432 0)
(-3.61436 0.129942 0)
(-3.63913 0.125164 0)
(-3.66129 0.119478 -3.0552e-17)
(-3.67933 0.111691 -6.06454e-17)
(-3.69173 0.10434 -3.00972e-17)
(-3.70065 0.0972178 2.98723e-17)
(-3.70219 0.0860765 0)
(-3.69826 0.0733139 -5.88392e-17)
(-3.68649 0.0575503 -5.83908e-17)
(-3.66922 0.0417062 -5.79458e-17)
(-3.64787 0.0241732 5.75039e-17)
(-3.61762 0.00205551 0)
(-3.58055 -0.0205328 8.49404e-17)
(-3.53757 -0.0400353 0)
(-3.48991 -0.055561 -2.78774e-17)
(-3.43366 -0.0694955 -2.76645e-17)
(-3.36949 -0.0852181 0)
(-3.29914 -0.10216 0)
(-3.22529 -0.118976 -5.40411e-17)
(-3.14917 -0.133927 0)
(-3.06905 -0.148234 -5.31943e-17)
(-2.98629 -0.162002 0)
(-2.89893 -0.1765 5.23556e-17)
(-2.80795 -0.188019 1.03883e-16)
(-2.71325 -0.197894 0)
(-2.61762 -0.207185 0)
(-2.51894 -0.214705 0)
(-2.42151 -0.220858 5.02913e-17)
(-2.32239 -0.226756 0)
(-2.21992 -0.231488 4.94695e-17)
(-2.11467 -0.2348 0)
(-2.00892 -0.234102 0)
(-1.90086 -0.234342 -9.65071e-17)
(-1.79547 -0.232068 0)
(-1.68813 -0.231607 -4.74631e-17)
(-1.58502 -0.225571 0)
(-1.47767 -0.226286 -4.66958e-17)
(-1.371 -0.225447 0)
(-1.26204 -0.224614 0)
(-1.1546 -0.228318 0)
(-1.04414 -0.230708 -1.35698e-16)
(-0.944014 -0.222318 -4.48713e-17)
(-0.834702 -0.21922 0)
(-0.741402 -0.208862 0)
(-0.639413 -0.21035 0)
(-0.553431 -0.198094 0)
(-0.449181 -0.194405 4.32365e-17)
(-0.362845 -0.189867 -8.58378e-17)
(-0.255287 -0.20676 -4.26336e-17)
(-0.1675 -0.198678 8.46586e-17)
(-0.0474555 -0.214035 8.40949e-17)
(0.0545189 -0.210652 4.17617e-17)
(0.184968 -0.225465 0)
(0.298018 -0.226414 8.23973e-17)
(0.436853 -0.242653 0)
(0.569179 -0.251895 -8.12859e-17)
(0.717665 -0.257937 -4.03847e-17)
(0.863853 -0.26295 0)
(1.01899 -0.271084 7.97628e-17)
(1.16832 -0.273649 3.96281e-17)
(1.33077 -0.282275 0)
(1.48935 -0.278741 3.909e-17)
(1.66245 -0.268543 -1.16509e-16)
(1.82216 -0.256648 0)
(1.98682 -0.256168 0)
(2.13887 -0.255817 0)
(2.29939 -0.259257 0)
(2.456 -0.254637 -7.51536e-17)
(2.61216 -0.251499 -7.46548e-17)
(2.76343 -0.220584 0)
(2.90123 -0.214133 0)
(3.03222 -0.200464 0)
(3.15357 -0.198556 0)
(3.25993 -0.203401 0)
(3.37901 -0.206718 0)
(3.49143 -0.206084 -7.09507e-17)
(3.60374 -0.205789 -1.65183e-20)
(3.69854 -0.198446 0)
(3.80784 -0.209266 0)
(3.89781 -0.196533 -6.86057e-17)
(3.98952 -0.197372 0)
(4.06931 -0.176642 6.74237e-17)
(4.13791 -0.187531 6.6806e-17)
(4.17986 -0.170674 0)
(4.23387 -0.189319 0)
(4.27274 -0.165306 -6.4899e-17)
(4.32286 -0.156185 -1.28509e-16)
(4.35074 -0.160323 0)
(4.38362 -0.171991 0)
(4.42544 -0.163161 0)
(4.43834 -0.148303 -6.16891e-17)
(4.46637 -0.135163 6.10016e-17)
(4.46515 -0.135414 0)
(4.48546 -0.142273 1.19367e-16)
(4.46947 -0.130349 5.90301e-17)
(4.48722 -0.128469 -1.16765e-16)
(4.46484 -0.109632 0)
(4.46397 -0.11644 0)
(4.43313 -0.0947984 -1.12744e-16)
(4.39199 -0.0672246 -5.57153e-17)
(4.30663 -0.037893 0)
(4.24297 -0.0361439 0)
(4.1103 -0.0179949 0)
(3.99995 0.0244012 0)
(3.7887 0.0515748 -1.05589e-16)
(3.62012 0.0952399 0)
(3.32298 0.166197 0)
(3.06507 0.191627 0)
(2.71552 0.220485 0)
(2.40023 0.20393 0)
(2.00985 0.187899 0)
(1.77208 0.153399 -1.00636e-16)
(1.36779 0.149381 0)
(1.23957 0.0824221 0)
(0.855333 0.104534 -1.99428e-16)
(0.851241 0.0215606 9.92525e-17)
(0.467071 0.112352 -9.94042e-17)
(0.662833 -0.126478 9.8785e-17)
(0.0206499 -0.0932838 0)
(0.124892 -0.26792 -4.69565e-17)
(0.247429 -0.48837 0)
(0.375119 -0.753825 -2.27973e-17)
(0.501579 -0.997567 0)
(0.617521 -1.18663 0)
(0.722079 -1.30454 2.24464e-17)
(0.802658 -1.34814 0)
(0.865509 -1.31853 0)
(0.904687 -1.23295 0)
(0.926714 -1.11034 0)
(0.929437 -0.961206 0)
(0.91773 -0.794227 -8.66184e-17)
(0.888903 -0.617199 -4.30264e-17)
(0.846491 -0.434537 4.2747e-17)
(0.790176 -0.253586 0)
(0.721963 -0.0809715 0)
(0.640457 0.0805663 0)
(0.549104 0.229523 0)
(0.447494 0.363061 0)
(0.338443 0.480751 -4.11512e-17)
(0.220162 0.582703 -4.08985e-17)
(0.0939906 0.673472 4.06493e-17)
(-0.0379361 0.749519 -4.04016e-17)
(-0.173938 0.812324 0)
(-0.312663 0.860467 0)
(-0.452881 0.896544 -3.96583e-17)
(-0.593428 0.921267 0)
(-0.734878 0.93539 0)
(-0.876862 0.943971 -3.89249e-17)
(-1.01941 0.949399 -3.86816e-17)
(-1.15983 0.947022 -3.84371e-17)
(-1.29721 0.937829 0)
(-1.43132 0.922446 0)
(-1.56087 0.900864 3.76934e-17)
(-1.68542 0.871102 0)
(-1.80599 0.835437 0)
(-1.92295 0.795845 -3.69486e-17)
(-2.03684 0.757731 3.66971e-17)
(-2.14911 0.719526 -3.64484e-17)
(-2.25489 0.680718 0)
(-2.35899 0.641298 0)
(-2.45901 0.604873 -7.14197e-17)
(-2.55621 0.570569 0)
(-2.64802 0.532493 -7.04537e-17)
(-2.73637 0.494419 -1.04963e-16)
(-2.82105 0.458597 1.04242e-16)
(-2.90049 0.422348 -6.90147e-17)
(-2.97675 0.38515 0)
(-3.0505 0.349523 0)
(-3.12389 0.32141 -6.76024e-17)
(-3.19462 0.296971 -3.35708e-17)
(-3.25902 0.271408 0)
(-3.31928 0.250307 0)
(-3.3749 0.235007 -3.28787e-17)
(-3.42516 0.218293 -6.52976e-17)
(-3.46911 0.199455 0)
(-3.50715 0.181626 6.43794e-17)
(-3.54114 0.167219 -6.39201e-17)
(-3.56999 0.15367 6.34643e-17)
(-3.59271 0.139588 0)
(-3.60966 0.126419 0)
(-3.62204 0.115093 0)
(-3.62931 0.103514 0)
(-3.63297 0.093016 0)
(-3.63184 0.0778053 6.0774e-17)
(-3.62639 0.0612951 0)
(-3.61372 0.0429473 0)
(-3.59528 0.0222665 0)
(-3.57251 0.000642662 1.18047e-16)
(-3.54428 -0.023091 5.85912e-17)
(-3.51118 -0.0468177 5.81576e-17)
(-3.4732 -0.0736044 -1.15457e-16)
(-3.42876 -0.104801 5.73035e-17)
(-3.38104 -0.13476 -5.68841e-17)
(-3.32703 -0.162283 0)
(-3.26828 -0.188373 5.60373e-17)
(-3.19957 -0.215208 0)
(-3.1268 -0.240557 0)
(-3.04836 -0.262659 0)
(-2.96849 -0.283615 1.08719e-16)
(-2.8864 -0.302982 -5.3946e-17)
(-2.80104 -0.322197 -5.35327e-17)
(-2.71431 -0.341266 -1.06271e-16)
(-2.62364 -0.361381 -1.58216e-16)
(-2.53188 -0.377439 -5.23436e-17)
(-2.43537 -0.390605 0)
(-2.33912 -0.402226 -1.03071e-16)
(-2.24136 -0.410334 0)
(-2.1436 -0.416585 -1.52205e-16)
(-2.04516 -0.426552 0)
(-1.94776 -0.433029 -1.49832e-16)
(-1.8443 -0.439379 0)
(-1.74034 -0.440103 0)
(-1.63169 -0.44177 -4.87473e-17)
(-1.5245 -0.438734 0)
(-1.414 -0.438449 4.79734e-17)
(-1.30834 -0.433854 9.51587e-17)
(-1.19466 -0.435686 4.7205e-17)
(-1.08493 -0.437456 9.36523e-17)
(-0.966489 -0.438071 -9.28955e-17)