/*--------------------------------*- C++ -*----------------------------------*\
| =========                 |                                                 |
| \\      /  F ield         | OpenFOAM: The Open Source CFD Toolbox           |
|  \\    /   O peration     | Version:  dev                                   |
|   \\  /    A nd           | Web:      http://www.openfoam.org               |
|    \\/     M anipulation  |                                                 |
\*---------------------------------------------------------------------------*/
FoamFile
{
    version     2.0;
    format      ascii;
    class       volScalarField;
    object      k;
    location    "9.167";
}
// * * * * * * * * * * * * * * * * * * * * * * * * * * * * * * * * * * * * * //

dimensions      [0 2 -2 0 0 0 0];

internalField   nonuniform List<scalar> 
12225
(
7.84435
8.73335
5.32713
5.18978
3.97296
4.81469
5.02039
5.62504
7.28828
7.09155
10.2426
9.10099
13.3925
11.7839
17.1439
14.9542
17.9326
29.9277
1.76931
6.12123
5.17009
6.29958
4.40795
5.83089
4.04275
5.69037
4.38131
5.62919
5.11413
5.52856
6.3392
5.68801
8.13289
7.11928
24.2273
31.9046
0.195463
1.81262
2.13141
3.11584
2.90001
3.29272
3.01033
3.05197
3.18254
2.63541
3.31013
2.25632
3.29093
2.11431
3.98118
3.01794
15.4344
31.4185
0.0224025
0.31195
0.660583
0.889845
1.33331
1.31306
1.64606
1.38207
1.85124
1.28229
1.8749
1.07949
1.73786
0.975318
2.01961
1.24508
7.80666
25.0482
0.0119823
0.089994
0.239076
0.334636
0.55172
0.57297
0.744143
0.652856
0.837924
0.606884
0.888453
0.546602
0.887957
0.522628
1.00452
0.751884
3.24602
11.4448
0.0238673
0.0533571
0.108106
0.131899
0.226839
0.230332
0.331584
0.283172
0.383782
0.285325
0.420135
0.286803
0.44154
0.294673
0.51569
0.430041
1.22794
3.26574
0.0351046
0.0491773
0.0714457
0.0805343
0.116874
0.118896
0.164072
0.147962
0.190235
0.156849
0.210928
0.168121
0.228274
0.18508
0.25873
0.245145
0.515567
0.828575
0.0454651
0.0586546
0.0685426
0.074623
0.0886136
0.0929017
0.110565
0.108505
0.123038
0.116521
0.133999
0.125385
0.145004
0.14064
0.162762
0.171705
0.254909
0.307056
0.0689265
0.0908992
0.0808536
0.0849115
0.0886831
0.0928455
0.100367
0.103006
0.108102
0.109663
0.114791
0.115994
0.122428
0.127418
0.136838
0.141235
0.17994
0.186037
0.126893
0.156903
0.127364
0.126043
0.107407
0.109304
0.106071
0.109624
0.10965
0.112867
0.114195
0.117586
0.120727
0.127288
0.133122
0.137526
0.153053
0.160027
0.247367
0.274489
0.221495
0.213049
0.171602
0.164753
0.138577
0.137677
0.12817
0.129474
0.126691
0.128746
0.130049
0.134635
0.139668
0.143571
0.153429
0.160176
0.460262
0.477682
0.38413
0.354167
0.286064
0.26476
0.221902
0.211113
0.18932
0.18293
0.172677
0.169949
0.16665
0.167098
0.16844
0.172664
0.175245
0.179662
0.829059
0.81137
0.651341
0.567224
0.458274
0.405657
0.347565
0.318099
0.286957
0.271475
0.258782
0.252184
0.248378
0.247379
0.246439
0.247315
0.248263
0.249597
1.39067
1.322
1.06793
0.87686
0.713648
0.614395
0.539933
0.492925
0.453809
0.427233
0.404307
0.389371
0.378548
0.371743
0.366351
0.363134
0.361617
0.359939
2.29692
2.14876
1.75132
1.42507
1.18598
1.00496
0.861477
0.756504
0.672786
0.611373
0.560755
0.526182
0.497246
0.478388
0.461301
0.451327
0.440101
0.434272
3.39417
3.09583
2.39642
1.84231
1.47051
1.20816
1.01504
0.876754
0.769684
0.692255
0.629444
0.585812
0.548992
0.524749
0.501865
0.488595
0.472863
0.465334
3.98915
3.49
2.61638
1.98617
1.56822
1.27643
1.06382
0.912669
0.797344
0.714844
0.648323
0.601858
0.562719
0.536628
0.511996
0.497359
0.479865
0.471801
3.97828
3.47717
2.61597
1.9883
1.56986
1.27697
1.06281
0.910718
0.794683
0.712216
0.646026
0.599622
0.56043
0.534246
0.509556
0.494771
0.477382
0.469005
3.39139
3.03358
2.36192
1.82648
1.46033
1.19804
1.00281
0.863003
0.755629
0.679206
0.618039
0.574929
0.538577
0.514093
0.490835
0.476864
0.460301
0.45221
2.27299
2.03692
1.67979
1.37646
1.14856
0.97085
0.829803
0.725169
0.643398
0.58494
0.538128
0.504936
0.47723
0.458598
0.440109
0.429105
0.415134
0.408469
1.36925
1.21966
0.986087
0.800975
0.670431
0.575326
0.502829
0.447673
0.409217
0.379135
0.357024
0.341759
0.33093
0.324607
0.317423
0.313511
0.307102
0.303939
0.780858
0.717807
0.606341
0.501632
0.431081
0.380239
0.332784
0.293095
0.26022
0.239626
0.227907
0.222132
0.21909
0.218554
0.218069
0.218534
0.218647
0.219261
0.402144
0.374644
0.326018
0.2739
0.237647
0.213731
0.201211
0.19568
0.191084
0.189109
0.187914
0.188429
0.18928
0.19136
0.192291
0.194619
0.195694
0.197832
0.191614
0.180487
0.155288
0.144181
0.144852
0.154041
0.164505
0.172867
0.177458
0.182232
0.18449
0.188267
0.189932
0.192998
0.194231
0.196908
0.197944
0.200182
0.0793028
0.0786515
0.0866914
0.108222
0.13008
0.15342
0.174539
0.193415
0.206562
0.217255
0.22312
0.228994
0.231459
0.234686
0.235489
0.237135
0.236939
0.23709
0.0245006
0.0439794
0.0856283
0.1434
0.200251
0.252207
0.296871
0.335325
0.362949
0.380849
0.390215
0.393801
0.393926
0.393053
0.39028
0.387036
0.382258
0.377367
0.00968298
0.076657
0.248251
0.429641
0.574695
0.689857
0.770253
0.826239
0.859165
0.869215
0.865254
0.851473
0.833127
0.81633
0.796512
0.781776
0.760178
0.746044
0.05828
0.540403
1.24393
1.61538
1.82878
1.96982
2.03907
2.0551
2.04241
1.9989
1.93923
1.86484
1.7899
1.72835
1.65872
1.60717
1.54151
1.50225
0.830286
3.60706
4.84382
4.92954
4.76562
4.44751
4.10205
3.78841
3.51674
3.28347
3.09839
2.93235
2.7846
2.64076
2.50062
2.37405
2.24717
2.14191
6.74767
10.0606
8.76184
6.62496
5.28037
4.56746
4.16934
3.94121
3.82121
3.75365
3.70721
3.67346
3.63805
3.58899
3.53309
3.46234
3.38083
3.23907
0.136511
0.260981
0.280766
0.30496
0.34772
0.396713
0.450927
0.509215
0.572179
0.629825
0.71187
0.785122
0.861568
0.978771
1.1279
1.25022
1.3613
1.5018
1.68835
1.92439
2.18589
2.43463
2.69775
2.98385
3.25065
3.51108
3.73207
3.92809
4.05836
4.05821
4.00945
3.80906
3.32557
2.9581
2.79574
2.69052
2.57557
2.50666
2.49111
2.49932
2.5402
2.62091
2.76595
2.90159
3.12757
3.61978
3.86001
3.8369
3.58162
3.34023
3.2975
3.34374
3.49152
3.73217
4.21947
5.18134
5.87912
6.35805
6.73341
7.01878
7.21328
7.33198
7.39037
7.35496
7.19855
6.96928
6.70164
6.40231
6.0887
5.75828
5.40788
5.04294
4.67915
4.32857
4.00387
3.7131
3.43152
3.15087
2.90791
2.72317
2.52383
2.38612
2.23582
2.08923
2.00393
1.93301
1.85891
1.81106
1.78527
1.76059
1.75048
1.75146
1.75944
1.76803
1.78608
1.80478
1.82419
1.84329
1.86212
1.87962
1.89361
1.90843
1.926
1.94249
1.953
1.95672
1.95538
1.94775
1.932
1.91357
1.89299
1.8662
1.83178
1.78928
1.74704
1.70176
1.66708
1.65879
1.6622
1.68219
1.72012
1.77428
1.85788
1.974
2.1195
2.30823
2.54078
2.82258
3.13889
3.50741
3.96876
4.49426
5.18591
6.07029
6.86285
7.48167
8.11023
8.68707
9.25138
10.0976
10.9494
11.5232
11.7937
12.1953
12.5598
12.7213
13.4845
14.0049
13.85
12.8868
12.2869
12.285
12.389
11.9151
10.71
10.4925
10.0893
9.62583
9.38954
9.21063
9.64286
10.158
9.94537
10.2046
10.5715
10.1191
8.99864
8.42434
8.28421
7.47329
7.05881
7.08627
6.3867
6.32818
5.61364
5.95224
6.68897
7.28645
11.8803
11.1667
0.770531
0.336983
0.249966
0.253957
0.288542
0.363367
0.451533
0.527023
0.572773
0.572394
0.562562
0.553903
0.529161
0.463351
0.43632
0.429366
0.423005
0.409418
0.401954
0.402348
0.410108
0.436702
0.476177
0.535633
0.640074
0.712348
0.864069
0.993065
1.22094
1.396
1.58324
1.83329
1.85957
1.81982
1.75766
1.5887
1.26419
0.942273
0.715772
0.583099
0.510569
0.504469
0.550741
0.596709
0.644606
0.771198
0.92112
0.999709
1.08937
1.25143
2.07807
3.27016
3.6046
3.67142
4.02569
4.29268
4.09602
3.77971
3.44513
3.1074
2.7758
2.4529
2.14645
1.86514
1.63286
1.4657
1.345
1.22546
1.13644
1.04237
0.965216
0.891874
0.84165
0.796186
0.766738
0.736353
0.700026
0.677658
0.669717
0.667109
0.656074
0.65116
0.630763
0.627992
0.649938
0.65482
0.650982
0.669895
0.701767
0.71152
0.739224
0.774155
0.806679
0.835263
0.878609
0.918354
0.962261
1.00444
1.04192
1.08002
1.12574
1.16125
1.18457
1.22031
1.26553
1.30148
1.33415
1.36009
1.36979
1.37418
1.38241
1.38835
1.39189
1.38563
1.36452
1.33504
1.30673
1.29206
1.2907
1.30299
1.31631
1.33038
1.34906
1.36808
1.39652
1.45725
1.5228
1.60293
1.71678
1.81579
1.91477
2.04233
2.2164
2.56655
2.98895
3.30792
3.38502
3.46661
3.53173
3.82783
4.5778
5.04034
5.3953
6.1713
6.89621
7.53321
7.88552
7.47736
6.00155
4.92204
5.2807
5.95268
5.99672
5.14934
4.3897
5.14434
5.14015
4.91051
5.22183
5.23527
5.32618
6.44188
6.56793
6.69092
7.6784
7.80527
7.09782
6.38883
6.40976
5.97494
5.54763
5.50798
5.10811
4.49391
4.22756
5.01526
5.43646
5.37664
5.72076
6.64357
2.05981
0.659893
0.297548
0.275125
0.316505
0.446326
0.62373
0.665912
0.643078
0.601825
0.510114
0.436643
0.393318
0.322165
0.272195
0.243302
0.22516
0.212432
0.200923
0.193899
0.192285
0.193398
0.196726
0.206048
0.220731
0.236108
0.27327
0.303299
0.380934
0.447788
0.562871
0.687317
0.791755
0.949755
0.987244
0.977251
0.940542
0.87608
0.691392
0.49886
0.420454
0.414635
0.484085
0.655768
0.903373
1.01259
1.17475
1.84412
2.40371
2.56213
2.81817
2.97243
2.78603
2.51622
2.0306
1.67446
1.40244
1.13575
0.916829
0.751501
0.607128
0.495975
0.416063
0.366238
0.338669
0.322058
0.313444
0.307881
0.304033
0.299481
0.296527
0.295232
0.295531
0.297708
0.299797
0.3001
0.299513
0.299885
0.302317
0.30856
0.312316
0.313616
0.311334
0.314868
0.329792
0.335068
0.338243
0.351138
0.364505
0.369389
0.382106
0.400297
0.414574
0.428094
0.450614
0.47296
0.49784
0.52225
0.545329
0.570484
0.606879
0.636415
0.653311
0.67458
0.710936
0.748002
0.781101
0.817796
0.848968
0.871092
0.908598
0.953292
1.00498
1.03807
1.05029
1.05472
1.05448
1.03976
1.02398
1.01963
1.01207
1.01399
1.01973
1.01746
1.01796
1.02521
1.03263
1.04579
1.07879
1.08418
1.05649
1.04404
1.07091
1.2009
1.4147
1.57149
1.60749
1.65778
1.835
2.56282
3.16961
3.37274
3.6331
4.04873
4.24765
4.50728
4.45908
3.49846
2.5176
2.24708
2.54765
3.10856
3.17488
2.64096
2.46071
2.9831
2.97392
2.98346
3.49131
3.42062
3.52651
4.05337
4.15669
4.1337
4.73894
5.54287
5.23589
4.49764
4.55548
4.51896
4.32963
4.4133
4.37874
4.14553
3.77014
4.09764
4.11431
3.9753
4.714
4.67544
4.18212
1.18727
0.43133
0.422111
0.615714
0.85417
0.849999
0.774725
0.626339
0.485905
0.346443
0.248053
0.208354
0.181322
0.164559
0.153546
0.145196
0.139755
0.136542
0.136431
0.136927
0.139963
0.142924
0.147084
0.151039
0.15637
0.16377
0.173621
0.199414
0.221315
0.281777
0.326236
0.399089
0.469557
0.555512
0.617848
0.631008
0.632162
0.614123
0.511694
0.478284
0.539926
0.948346
1.36258
1.7389
1.84298
1.87681
2.08411
2.20605
2.17896
1.97439
1.61316
1.32478
1.04877
0.766532
0.577805
0.468501
0.374836
0.310646
0.271052
0.241152
0.223215
0.214902
0.212355
0.213366
0.217195
0.222435
0.227811
0.232187
0.236186
0.239612
0.242655
0.245602
0.249416
0.251704
0.252698
0.251662
0.249003
0.247039
0.245864
0.243295
0.245353
0.242873
0.243636
0.250011
0.254729
0.259711
0.267398
0.275261
0.279085
0.286109
0.295993
0.301315
0.305134
0.313218
0.322437
0.334105
0.3482
0.36055
0.373814
0.398006
0.42483
0.436944
0.447586
0.468321
0.497386
0.523222
0.554533
0.585771
0.608315
0.63497
0.678087
0.728712
0.772707
0.804258
0.834597
0.863508
0.870193
0.866146
0.86013
0.846167
0.838307
0.845832
0.854205
0.864962
0.867627
0.859956
0.862209
0.872771
0.869018
0.824086
0.73733
0.719525
0.7568
0.89884
0.968278
1.00408
1.08672
1.36166
2.30239
2.68098
2.71082
2.77912
2.87272
2.83625
2.85251
2.79301
2.28633
1.76417
1.6661
1.85228
2.08243
2.18502
1.89605
1.85707
2.21403
2.1942
2.29421
2.86803
2.55306
2.41998
2.75517
3.08462
3.2105
3.49874
4.40223
4.29034
3.61487
3.71253
3.90956
3.73477
3.72869
3.83504
3.90343
3.5729
3.54243
3.72377
3.70618
4.51511
4.0407
6.80463
1.77399
0.747805
0.971249
1.15999
1.07538
0.883101
0.63291
0.394406
0.257484
0.195058
0.163374
0.149742
0.140079
0.130416
0.122217
0.11704
0.114837
0.11423
0.114409
0.114942
0.116031
0.117507
0.11947
0.120131
0.122308
0.124283
0.129701
0.141869
0.153331
0.177603
0.213591
0.257643
0.283541
0.349703
0.382269
0.438512
0.460377
0.493682
0.553382
0.63757
1.06949
1.55944
1.61374
1.64362
1.66036
1.66581
1.61881
1.46487
1.24316
0.975931
0.740638
0.565833
0.421807
0.317308
0.254909
0.223916
0.200983
0.19009
0.18667
0.186051
0.187088
0.190184
0.193509
0.198071
0.202613
0.207554
0.212394
0.215888
0.219433
0.223601
0.227662
0.230985
0.235045
0.237211
0.237842
0.236268
0.231494
0.228641
0.222719
0.213485
0.214317
0.212366
0.210781
0.211482
0.215645
0.220967
0.225772
0.232656
0.237657
0.244088
0.251283
0.254432
0.255322
0.256641
0.258546
0.262745
0.271183
0.277857
0.283485
0.296211
0.323294
0.33467
0.340124
0.350458
0.372459
0.393952
0.418021
0.438706
0.458273
0.479819
0.501111
0.537065
0.584793
0.606187
0.618814
0.644129
0.661388
0.669111
0.685454
0.699096
0.708168
0.711423
0.710947
0.715403
0.747664
0.761483
0.766952
0.773906
0.772552
0.744454
0.647901
0.588496
0.596672
0.690933
0.754767
0.795014
0.894381
1.22598
2.12867
2.48984
2.45951
2.45664
2.36991
2.15884
2.11929
2.08997
1.85848
1.51524
1.45913
1.59407
1.75402
1.77057
1.63433
1.58722
1.88306
1.8573
1.9765
2.4516
2.20585
1.9904
2.31754
2.58843
2.76065
3.12246
3.78954
3.71866
3.1707
3.38232
3.80779
3.51827
3.32449
3.37005
3.6705
3.482
3.22315
3.60825
3.52206
4.50379
4.55437
9.79352
2.72362
1.62749
1.62364
1.3568
0.996753
0.595104
0.338515
0.223256
0.173231
0.150514
0.137386
0.130221
0.12517
0.11843
0.111444
0.108563
0.108027
0.1072
0.105891
0.105309
0.104955
0.105054
0.104763
0.104723
0.106582
0.108999
0.111106
0.116231
0.126924
0.13663
0.160368
0.182094
0.219999
0.245769
0.291041
0.35822
0.397245
0.452905
0.54253
0.936858
1.37748
1.5018
1.4352
1.33325
1.25463
1.13425
0.958112
0.797563
0.633898
0.481642
0.350821
0.268062
0.216849
0.186937
0.170737
0.16417
0.164124
0.166717
0.17068
0.175059
0.178292
0.181318
0.183276
0.184725
0.185157
0.184854
0.184007
0.183323
0.184918
0.188314
0.192862
0.19742
0.203148
0.207721
0.209473
0.211586
0.214068
0.215342
0.205982
0.195246
0.185339
0.181769
0.176966
0.170908
0.170467
0.170955
0.174818
0.178164
0.182552
0.195331
0.209441
0.216897
0.221828
0.224028
0.224006
0.224267
0.226793
0.233517
0.237834
0.239908
0.251873
0.268357
0.272697
0.27719
0.28864
0.307653
0.333965
0.355311
0.36544
0.38414
0.398161
0.410973
0.442183
0.489998
0.497145
0.500029
0.504921
0.506351
0.507792
0.510053
0.519583
0.560252
0.57976
0.582186
0.586825
0.601758
0.602875
0.610954
0.620289
0.61028
0.56281
0.523088
0.522185
0.575197
0.66441
0.714595
0.824744
1.23345
1.90055
2.24655
2.22947
2.31212
2.30824
2.07654
1.98999
1.88491
1.67234
1.37802
1.30323
1.34446
1.55437
1.55875
1.44863
1.45114
1.69247
1.672
1.76125
2.21084
2.07179
1.85723
2.25388
2.34635
2.28607
2.98665
3.42614
3.32108
2.87242
3.15535
3.81463
3.55101
3.16983
3.18392
3.43785
3.32296
3.0445
3.40063
3.25234
4.27644
5.71484
12.9484
4.11793
2.57584
1.82491
1.17956
0.635787
0.342888
0.218186
0.16848
0.147891
0.135369
0.126274
0.121764
0.119993
0.116424
0.109175
0.107326
0.107093
0.105448
0.103395
0.102806
0.100722
0.0991801
0.0989522
0.099575
0.102255
0.103663
0.104447
0.105899
0.110328
0.120586
0.144385
0.168395
0.195131
0.227374
0.27884
0.304928
0.341555
0.41689
0.634656
1.12823
1.34033
1.29902
1.1162
0.999844
0.844668
0.709084
0.554204
0.435524
0.331775
0.25924
0.202805
0.173244
0.157766
0.149707
0.148943
0.152267
0.157809
0.163363
0.167672
0.170072
0.170705
0.17066
0.169625
0.167653
0.165497
0.16287
0.159197
0.154659
0.149802
0.146974
0.146016
0.146967
0.14937
0.15418
0.158448
0.162786
0.174093
0.185448
0.188932
0.186993
0.175779
0.167798
0.158158
0.148654
0.145656
0.144566
0.146779
0.149037
0.148107
0.151775
0.164507
0.169286
0.171115
0.174927
0.179252
0.181493
0.18219
0.183985
0.190374
0.194295
0.201249
0.209622
0.21891
0.223603
0.232329
0.237959
0.249879
0.275622
0.287154
0.298304
0.309906
0.314567
0.321348
0.347441
0.386444
0.393566
0.396628
0.410367
0.413568
0.407973
0.395038
0.403158
0.426511
0.448842
0.479962
0.495223
0.497372
0.498657
0.513186
0.513717
0.488151
0.462412
0.459678
0.478259
0.58855
0.664147
0.790656
1.23816
1.74536
1.95156
1.95707
2.01707
2.23191
2.10917
1.97144
1.74411
1.49688
1.27407
1.21617
1.21419
1.31425
1.4376
1.34564
1.37404
1.64783
1.59847
1.637
2.18112
1.9991
1.72798
2.16427
2.18671
2.05574
2.7088
3.26885
3.14377
2.682
2.88254
3.71787
3.61326
3.15174
3.14495
3.27661
3.16747
2.92475
3.16313
3.24221
3.34776
5.27145
16.0406
5.78229
3.01667
1.65792
0.820693
0.414326
0.238222
0.173944
0.148192
0.136909
0.128653
0.122878
0.121069
0.119872
0.115393
0.111267
0.109739
0.108885
0.107413
0.105735
0.104139
0.100674
0.0990417
0.099255
0.0998158
0.101967
0.103656
0.103599
0.103604
0.105919
0.1158
0.131841
0.151887
0.177932
0.208349
0.227964
0.255167
0.31727
0.432784
0.830815
1.1763
1.20516
1.01037
0.848523
0.694895
0.548701
0.430249
0.327805
0.256584
0.203899
0.173861
0.153501
0.143781
0.13902
0.140318
0.144842
0.150802
0.156126
0.160836
0.162421
0.162377
0.162476
0.162596
0.16238
0.161041
0.158633
0.155591
0.151944
0.147989
0.140293
0.134312
0.128875
0.127877
0.128528
0.131077
0.135857
0.138673
0.140328
0.143784
0.158162
0.167135
0.169071
0.162855
0.152785
0.14043
0.132637
0.128462
0.128568
0.132247
0.133385
0.13377
0.139842
0.145871
0.144309
0.143985
0.143109
0.143526
0.141787
0.142237
0.145476
0.150595
0.153247
0.154549
0.158121
0.162409
0.174783
0.18395
0.187261
0.197161
0.215077
0.229117
0.240786
0.245904
0.240628
0.242469
0.262846
0.278049
0.280312
0.291412
0.301239
0.315356
0.319169
0.322783
0.326763
0.333517
0.353617
0.392587
0.41006
0.409338
0.410068
0.422403
0.422066
0.407538
0.402346
0.412232
0.501019
0.610262
0.756108
1.19847
1.63273
1.71349
1.6851
1.6926
1.89203
1.92455
1.83414
1.71655
1.44676
1.21218
1.14642
1.16169
1.2496
1.44096
1.29757
1.29673
1.66249
1.56876
1.54448
1.92724
1.83352
1.67289
1.89354
1.91889
1.96245
2.25906
3.10161
3.03415
2.64217
2.75929
3.52369
3.56791
3.18944
3.13586
3.19093
3.0341
2.7838
3.03921
3.48056
3.13366
3.16752
18.9841
7.15413
3.09082
1.33029
0.616656
0.307625
0.187925
0.152915
0.140041
0.134262
0.128733
0.125746
0.125476
0.124792
0.120971
0.117681
0.117377
0.118085
0.117768
0.116309
0.113122
0.106723
0.102611
0.101923
0.102905
0.104412
0.104087
0.103282
0.103581
0.10604
0.113308
0.123204
0.140893
0.161614
0.18338
0.207572
0.255471
0.324564
0.544162
0.957682
1.10379
0.999783
0.757933
0.6165
0.465855
0.360999
0.273607
0.216791
0.178918
0.155689
0.143374
0.136007
0.132568
0.133959
0.13904
0.145182
0.149996
0.153358
0.155091
0.157122
0.159194
0.160537
0.161089
0.16102
0.159866
0.1569
0.152943
0.148616
0.145346
0.137845
0.130581
0.122567
0.119418
0.118988
0.120015
0.124346
0.129177
0.130604
0.130996
0.135301
0.145516
0.159398
0.15933
0.152925
0.139409
0.130033
0.124161
0.122097
0.123416
0.127613
0.127219
0.1293
0.134636
0.133271
0.130845
0.127755
0.125032
0.119651
0.117917
0.117791
0.120218
0.120464
0.120768
0.121332
0.123419
0.130709
0.137452
0.14228
0.144538
0.154615
0.167106
0.173621
0.181073
0.179983
0.178136
0.186221
0.202058
0.205086
0.210146
0.219782
0.226503
0.239552
0.250695
0.267007
0.266711
0.271801
0.297033
0.327523
0.33306
0.333722
0.34454
0.35121
0.346024
0.343137
0.353362
0.427158
0.556808
0.706384
1.11414
1.51269
1.5786
1.49434
1.42666
1.46063
1.5155
1.51724
1.56966
1.47221
1.22422
1.1526
1.17194
1.23336
1.47372
1.28758
1.18867
1.56179
1.46366
1.43767
1.53156
1.60918
1.62124
1.64366
1.7889
1.96097
2.06917
2.78161
2.854
2.66279
2.66265
3.28796
3.44372
3.18957
3.11954
3.14133
2.94106
2.73936
3.08974
3.86716
3.10288
2.62239
21.5917
8.00321
2.89047
1.1019
0.466443
0.219526
0.158286
0.145147
0.13881
0.137062
0.137646
0.139604
0.142176
0.142046
0.140443
0.140155
0.140883
0.141487
0.140882
0.138008
0.130687
0.121139
0.11431
0.112454
0.110723
0.107582
0.105301
0.10499
0.105857
0.108382
0.114012
0.123464
0.141453
0.160145
0.181747
0.214305
0.265575
0.376326
0.715412
0.971034
0.978426
0.758937
0.566468
0.429897
0.318729
0.247973
0.193937
0.164886
0.14653
0.13641
0.131262
0.128257
0.129135
0.133528
0.140111
0.145182
0.148377
0.151646
0.154718
0.157708
0.159969
0.161007
0.161072
0.159785
0.156167
0.15051
0.141954
0.13535
0.132692
0.129811
0.126535
0.120689
0.117086
0.115525
0.115111
0.116295
0.12215
0.126004
0.125902
0.126717
0.128888
0.142517
0.153973
0.154573
0.146351
0.132434
0.124529
0.120802
0.120878
0.125005
0.126081
0.126625
0.131018
0.129644
0.123869
0.121543
0.118537
0.110574
0.106207
0.10541
0.105939
0.105396
0.104327
0.103751
0.104569
0.107809
0.110982
0.114633
0.115891
0.122169
0.131376
0.133649
0.139519
0.141589
0.142195
0.149024
0.163271
0.168402
0.171595
0.180793
0.184159
0.19364
0.202936
0.227611
0.232818
0.23587
0.245382
0.271267
0.281538
0.28118
0.283056
0.300601
0.304388
0.306569
0.318884
0.362718
0.49951
0.656401
1.04463
1.38633
1.47415
1.43076
1.28196
1.24942
1.24026
1.24271
1.35961
1.35238
1.22629
1.17465
1.1889
1.21007
1.29899
1.20696
1.08688
1.30515
1.3343
1.3432
1.36331
1.51394
1.53647
1.52769
1.79849
2.04579
2.00549
2.24957
2.6213
2.68137
2.51391
3.0087
3.24636
3.09867
3.06987
3.10797
2.86863
2.75675
3.36634
3.96486
3.04829
2.36794
23.7885
8.4779
2.64771
0.861437
0.294966
0.166432
0.147508
0.143128
0.142625
0.150305
0.160135
0.168806
0.170986
0.17052
0.170823
0.171795
0.171511
0.168493
0.164294
0.158517
0.148566
0.141219
0.138
0.136053
0.131183
0.119545
0.111896
0.109701
0.109804
0.111438
0.116102
0.127054
0.143772
0.161346
0.183815
0.224496
0.289397
0.512257
0.807542
0.903252
0.799414
0.551962
0.416829
0.302219
0.230403
0.184556
0.155311
0.141164
0.132704
0.128255
0.125312
0.125428
0.128473
0.135088
0.140739
0.14466
0.148161
0.151677
0.156231
0.158924
0.159817
0.159573
0.156654
0.149639
0.139628
0.129242
0.12023
0.114698
0.111877
0.111961
0.11503
0.119018
0.118694
0.116551
0.114813
0.114954
0.1167
0.122099
0.123648
0.122985
0.123449
0.126158
0.139788
0.150537
0.15082
0.142587
0.132661
0.122553
0.120758
0.12287
0.126485
0.126894
0.131369
0.130362
0.122795
0.118913
0.115971
0.108195
0.103101
0.100643
0.0999347
0.0988413
0.0972644
0.0967499
0.0973721
0.098119
0.100099
0.10181
0.103317
0.108039
0.113413
0.114824
0.120106
0.122894
0.127683
0.133884
0.145218
0.151191
0.154245
0.160383
0.163799
0.173607
0.184939
0.208932
0.220946
0.221432
0.225908
0.239998
0.257143
0.260605
0.259981
0.26675
0.277626
0.281375
0.290403
0.317675
0.441218
0.596459
0.947409
1.24567
1.36201
1.35519
1.243
1.17308
1.15038
1.15306
1.18886
1.17825
1.10207
1.09871
1.11737
1.12345
1.06947
1.04881
0.949672
1.01774
1.16817
1.17844
1.23357
1.42906
1.41643
1.42782
1.92724
2.0448
1.99302
2.0194
2.36118
2.75611
2.42914
2.72721
2.98738
2.94232
2.97016
3.07766
2.82469
2.83662
3.80785
3.84009
2.95851
2.24812
25.4674
8.48465
2.17018
0.555439
0.199385
0.14826
0.145113
0.145905
0.154898
0.173113
0.181189
0.185734
0.184997
0.18385
0.183478
0.185039
0.188059
0.187814
0.185328
0.179633
0.167952
0.155235
0.148945
0.14611
0.140796
0.135031
0.130196
0.124214
0.12014
0.11987
0.12349
0.132182
0.144594
0.161551
0.190871
0.239194
0.382322
0.650476
0.81211
0.802879
0.596187
0.41064
0.305002
0.223136
0.179081
0.151665
0.13671
0.12951
0.125455
0.122925
0.12258
0.124387
0.129762
0.135845
0.140489
0.144379
0.148539
0.153076
0.156101
0.157656
0.156864
0.152111
0.138822
0.12498
0.118579
0.115248
0.113691
0.111076
0.107588
0.106721
0.108248
0.116199
0.12131
0.122369
0.121552
0.11711
0.116716
0.117201
0.120032
0.120056
0.12156
0.121228
0.126147
0.139322
0.147024
0.143355
0.137955
0.127625
0.121513
0.121884
0.125906
0.126924
0.132817
0.134615
0.127029
0.12074
0.11636
0.107264
0.102536
0.100062
0.0983075
0.097244
0.0952001
0.0942888
0.0952865
0.0954614
0.0962256
0.0969574
0.100108
0.104762
0.107254
0.108236
0.111067
0.113858
0.122459
0.129405
0.138755
0.143769
0.147234
0.153925
0.162237
0.166806
0.180946
0.19876
0.213719
0.218984
0.222596
0.229951
0.248184
0.253985
0.253743
0.255631
0.269793
0.274563
0.279149
0.296787
0.369175
0.538682
0.862687
1.11164
1.24548
1.25334
1.18645
1.14198
1.14175
1.14933
1.13779
1.10971
1.04542
1.03509
1.06755
1.04411
0.976896
0.96138
0.873795
0.907652
1.05285
1.03052
1.08459
1.2877
1.34931
1.37392
1.96677
1.94722
2.03375
1.98731
2.3722
2.93038
2.45002
2.43508
2.73088
2.79687
2.89901
3.04096
2.81308
3.00081
4.05505
3.43224
2.85147
2.14799
26.5504
8.07477
1.60173
0.341123
0.165403
0.144688
0.148163
0.153777
0.172824
0.186081
0.190547
0.191341
0.189733
0.191523
0.195358
0.200193
0.202834
0.20682
0.209352
0.207802
0.202147
0.187563
0.167028
0.155577
0.147731
0.141671
0.137634
0.1326
0.12872
0.128183
0.130065
0.136308
0.146602
0.165293
0.201736
0.294108
0.542275
0.715892
0.764685
0.653221
0.427779
0.308544
0.227646
0.174912
0.148556
0.133621
0.126368
0.123071
0.12103
0.120393
0.121228
0.124754
0.1302
0.135492
0.139842
0.143946
0.14848
0.152555
0.154718
0.154063
0.149371
0.136211
0.123925
0.114708
0.110868
0.110599
0.111915
0.111923
0.108292
0.106122
0.10689
0.111541
0.119888
0.122711
0.125021
0.123156
0.119926
0.117227
0.116322
0.113908
0.115096
0.115045
0.11674
0.122639
0.135558
0.137066
0.134787
0.127391
0.120811
0.121107
0.123151
0.124539
0.13092
0.135687
0.132267
0.127051
0.121466
0.110111
0.103137
0.100745
0.0984116
0.0972649
0.0953924
0.0945288
0.0950283
0.0956659
0.0959652
0.0959787
0.0981502
0.10429
0.106205
0.107593
0.10845
0.111008
0.119467
0.128889
0.1385
0.142341
0.145555
0.150038
0.166422
0.170176
0.182305
0.198645
0.210354
0.225019
0.226349
0.230996
0.247693
0.254447
0.253898
0.255146
0.268257
0.274303
0.277884
0.28972
0.32816
0.471438
0.779081
1.00154
1.13365
1.15166
1.11873
1.10252
1.11621
1.16171
1.13975
1.11102
1.0514
1.01467
1.04823
1.02172
0.930684
0.903153
0.832715
0.853328
0.971894
0.971205
1.00831
1.17457
1.2628
1.32882
1.80636
1.82516
2.14357
2.03037
2.80123
2.98973
2.50132
2.16949
2.46801
2.74607
2.87235
3.0059
2.80906
3.08119
3.91652
3.23176
2.85928
1.99917
27.1803
7.14374
1.07802
0.252405
0.159126
0.145829
0.154975
0.16137
0.182732
0.190905
0.194738
0.196046
0.193721
0.195244
0.200973
0.208609
0.214522
0.220722
0.226536
0.230671
0.230658
0.225222
0.209129
0.183644
0.165762
0.153123
0.144816
0.138438
0.134673
0.133883
0.135306
0.140438
0.151468
0.175648
0.246244
0.463211
0.632413
0.713991
0.67093
0.467283
0.314043
0.23675
0.179959
0.147455
0.131827
0.123949
0.120541
0.118838
0.118289
0.118766
0.120786
0.12461
0.129695
0.134479
0.138525
0.142796
0.147508
0.150774
0.15079
0.14833
0.140375
0.129558
0.119498
0.110409
0.10686
0.107385
0.110718
0.11454
0.112648
0.108289
0.107885
0.109766
0.116645
0.120597
0.124691
0.126455
0.124389
0.12069
0.116101
0.11335
0.107431
0.104121
0.101689
0.102213
0.108142
0.118313
0.119962
0.119472
0.114002
0.112683
0.114119
0.116019
0.123333
0.134553
0.132411
0.131772
0.129829
0.116638
0.107607
0.104611
0.101498
0.0996376
0.0985192
0.0972733
0.0976272
0.0982561
0.0977358
0.097724
0.0998082
0.105527
0.107016
0.108542
0.109354
0.112869
0.122031
0.130941
0.142715
0.146573
0.15035
0.153743
0.168062
0.17474
0.192429
0.213978
0.221105
0.2443
0.248276
0.249306
0.253432
0.261155
0.262435
0.261277
0.270857
0.27855
0.283008
0.290422
0.315958
0.417317
0.651685
0.909713
1.022
1.05781
1.04863
1.05436
1.07101
1.11955
1.1259
1.10882
1.05763
0.965329
0.971542
0.971504
0.87647
0.849127
0.801161
0.816413
0.933033
0.948277
0.968204
1.11343
1.18356
1.29911
1.57914
1.7531
2.16344
2.23306
3.01311
2.87474
2.4394
2.03002
2.38653
2.73067
2.85123
2.99854
2.79397
3.06667
3.40336
3.07769
2.90795
1.85682
27.4628
6.16396
0.815697
0.234209
0.161748
0.150953
0.159403
0.165374
0.186388
0.191434
0.193439
0.19445
0.194789
0.200072
0.207698
0.216087
0.224577
0.233615
0.242015
0.248702
0.253936
0.256002
0.252337
0.24117
0.220757
0.191605
0.168922
0.155783
0.149393
0.146748
0.147537
0.154253
0.17696
0.257152
0.423805
0.558592
0.646949
0.65117
0.500969
0.33151
0.241904
0.189194
0.151937
0.131929
0.12244
0.118342
0.116805
0.116328
0.116493
0.117561
0.12021
0.123997
0.128645
0.132328
0.13602
0.140732
0.145416
0.146235
0.145406
0.142156
0.136626
0.129196
0.11939
0.108257
0.102254
0.10245
0.107071
0.11788
0.121463
0.117181
0.113629
0.112014
0.113476
0.118045
0.122637
0.128565
0.128551
0.126885
0.118444
0.109872
0.100667
0.096529
0.0941379
0.0933267
0.0921052
0.0933813
0.093692
0.09618
0.0961738
0.0952771
0.0977391
0.100296
0.107374
0.127984
0.130954
0.134009
0.134112
0.1283
0.115923
0.114243
0.112045
0.106491
0.107271
0.107468
0.106891
0.108617
0.106659
0.105399
0.109169
0.115129
0.115742
0.116252
0.116716
0.12366
0.134847
0.145582
0.162642
0.168697
0.175721
0.176408
0.188732
0.195961
0.2296
0.253415
0.259876
0.277448
0.286475
0.286996
0.284479
0.285823
0.29307
0.290852
0.296418
0.303282
0.305538
0.304814
0.317319
0.375482
0.521627
0.800459
0.934758
0.986009
0.987647
1.01746
1.03431
1.04125
1.06671
1.06414
1.02521
0.925521
0.910096
0.903505
0.83628
0.805691
0.76077
0.767521
0.904352
0.942175
0.957215
1.07113
1.11704
1.2649
1.49505
1.72653
2.06118
2.42221
2.79063
2.48163
2.21284
2.0246
2.39848
2.65391
2.82489
2.98538
2.78587
2.90088
3.3222
2.91029
2.92154
1.79958
27.2548
5.50141
0.711582
0.243005
0.177072
0.159437
0.161316
0.16466
0.185938
0.190871
0.192385
0.193251
0.194197
0.199764
0.208386
0.218381
0.229857
0.241619
0.25244
0.260664
0.268818
0.276669
0.281521
0.281905
0.278175
0.266098
0.247528
0.228941
0.216974
0.212207
0.219137
0.251814
0.324306
0.418649
0.504452
0.576298
0.601504
0.505279
0.351054
0.252488
0.197434
0.158502
0.133804
0.121502
0.116439
0.114723
0.114474
0.114709
0.115613
0.117093
0.119615
0.12312
0.125823
0.129833
0.133802
0.138343
0.141733
0.142234
0.141723
0.139465
0.1348
0.129458
0.12142
0.10951
0.0999731
0.0972561
0.0997969
0.112738
0.125796
0.127841
0.125345
0.117616
0.113845
0.114467
0.118353
0.126365
0.128277
0.127619
0.121714
0.10782
0.0955812
0.088243
0.0851121
0.085221
0.0853649
0.0853962
0.0854515
0.0864505
0.0876638
0.0893177
0.0949716
0.097741
0.103604
0.119293
0.12594
0.135002
0.139301
0.137533
0.131594
0.128363
0.127939
0.123523
0.121168
0.125662
0.126896
0.130421
0.128199
0.126447
0.131759
0.138937
0.139347
0.137576
0.140927
0.151548
0.164913
0.177611
0.202773
0.212378
0.225574
0.225668
0.229387
0.239112
0.270198
0.2798
0.291404
0.296718
0.31861
0.331304
0.330224
0.333079
0.353332
0.359776
0.36218
0.358906
0.356265
0.343422
0.342717
0.366655
0.454386
0.671769
0.822216
0.908105
0.923144
0.970088
1.00612
1.00567
1.01017
0.987155
0.952855
0.909647
0.891739