/*--------------------------------*- C++ -*----------------------------------*\
| =========                 |                                                 |
| \\      /  F ield         | OpenFOAM: The Open Source CFD Toolbox           |
|  \\    /   O peration     | Version:  dev                                   |
|   \\  /    A nd           | Web:      http://www.openfoam.org               |
|    \\/     M anipulation  |                                                 |
\*---------------------------------------------------------------------------*/
FoamFile
{
    version     2.0;
    format      ascii;
    class       volScalarField;
    object      k_0;
    location    "9.167";
}
// * * * * * * * * * * * * * * * * * * * * * * * * * * * * * * * * * * * * * //

dimensions      [0 2 -2 0 0 0 0];

internalField   nonuniform List<scalar> 
12225
(
7.93331
9.11255
5.67229
5.60132
4.19911
5.19764
5.19291
6.00782
7.46173
7.56191
10.6637
9.77407
14.3292
12.9016
19.092
16.9128
19.6931
34.0537
1.60455
6.03029
5.22046
6.38486
4.50616
5.91974
4.08841
5.78608
4.36814
5.68418
5.05431
5.5676
6.28158
5.78684
8.30307
7.49149
25.623
35.6403
0.15655
1.66841
1.97695
2.90061
2.80368
3.13405
2.96917
2.92863
3.13349
2.58427
3.23559
2.23269
3.17995
2.10343
3.87294
3.02656
15.2193
32.9169
0.0169272
0.260727
0.598085
0.804094
1.25218
1.23357
1.5647
1.32058
1.76775
1.23916
1.79017
1.05227
1.65291
0.960693
1.90819
1.23748
7.13294
23.3361
0.00952971
0.0815641
0.215183
0.304303
0.502369
0.529277
0.685729
0.611304
0.774345
0.573354
0.82675
0.521186
0.835383
0.503325
0.944496
0.710369
2.69851
9.1513
0.0219256
0.0521821
0.0984572
0.120575
0.203001
0.209823
0.299405
0.261402
0.349238
0.26723
0.38545
0.271416
0.409739
0.281352
0.481134
0.401888
1.04611
2.42624
0.033544
0.0490609
0.0682439
0.0774544
0.107251
0.111103
0.149399
0.138126
0.173978
0.147652
0.193762
0.158812
0.210859
0.175509
0.237062
0.225991
0.444561
0.621049
0.0457906
0.0619892
0.0678455
0.0739275
0.085937
0.0908003
0.105646
0.105015
0.117317
0.112801
0.12752
0.121439
0.138123
0.135922
0.155108
0.161752
0.228716
0.255539
0.0722701
0.0992109
0.0852278
0.0883565
0.0886862
0.0925031
0.0994789
0.101881
0.107037
0.108264
0.113469
0.114986
0.121096
0.126082
0.13517
0.138396
0.171613
0.174832
0.136524
0.170979
0.138796
0.13565
0.114789
0.114373
0.109026
0.111213
0.110913
0.113034
0.114958
0.117466
0.121601
0.126817
0.133961
0.137276
0.152045
0.159841
0.264434
0.299635
0.241247
0.22939
0.186439
0.176341
0.149223
0.145441
0.135192
0.134552
0.132012
0.132624
0.134622
0.137852
0.143432
0.147276
0.155849
0.16304
0.486842
0.520255
0.415681
0.379444
0.308997
0.28212
0.238964
0.224252
0.203268
0.194442
0.184964
0.180753
0.178242
0.177652
0.179244
0.183319
0.185634
0.189767
0.863279
0.877893
0.698399
0.604817
0.491101
0.432022
0.372761
0.339901
0.308186
0.291047
0.277952
0.27044
0.266644
0.265011
0.264128
0.2647
0.266316
0.267864
1.43385
1.42408
1.13948
0.936721
0.766109
0.658194
0.578845
0.526419
0.48405
0.454379
0.429103
0.412393
0.400043
0.392127
0.385884
0.382207
0.380191
0.378224
2.32306
2.28069
1.83034
1.4895
1.23846
1.04742
0.89657
0.785713
0.69758
0.632997
0.579927
0.543653
0.51312
0.493286
0.475162
0.464698
0.452687
0.446481
3.34089
3.18822
2.42822
1.86991
1.49138
1.22462
1.0286
0.88822
0.779689
0.701445
0.637962
0.593905
0.556672
0.532226
0.509011
0.495641
0.479655
0.472032
3.7937
3.49782
2.598
1.97962
1.56531
1.27552
1.06417
0.913871
0.799101
0.717087
0.650879
0.604687
0.565676
0.539746
0.515191
0.500677
0.483222
0.475252
3.72822
3.44365
2.57313
1.96493
1.55454
1.26644
1.05532
0.90539
0.790769
0.709429
0.644073
0.598308
0.55958
0.533787
0.509382
0.494846
0.477668
0.469435
3.07726
2.90342
2.2616
1.76412
1.41743
1.16696
0.979573
0.845018
0.741422
0.667652
0.608491
0.56684
0.531647
0.508046
0.485456
0.471973
0.455744
0.448031
2.02624
1.9028
1.56557
1.29049
1.08117
0.917132
0.786507
0.689292
0.613845
0.559943
0.516785
0.486197
0.460613
0.443606
0.426478
0.416484
0.403349
0.397314
1.20364
1.12037
0.90307
0.734777
0.616428
0.530892
0.465432
0.415305
0.380291
0.352522
0.33256
0.319014
0.309805
0.30468
0.298829
0.295894
0.290644
0.288215
0.681231
0.656735
0.554572
0.460844
0.397657
0.351885
0.308593
0.272564
0.24239
0.224093
0.213985
0.20931
0.207066
0.207017
0.207018
0.207915
0.208513
0.209597
0.347443
0.337078
0.293101
0.247613
0.216236
0.196231
0.187337
0.184688
0.182288
0.181846
0.181485
0.182588
0.183687
0.185894
0.186959
0.189417
0.190582
0.19291
0.165304
0.160528
0.138538
0.132147
0.136079
0.147592
0.158862
0.167589
0.172484
0.177514
0.179952
0.184055
0.18591
0.189206
0.190554
0.193374
0.19443
0.196751
0.0672197
0.0698214
0.0817424
0.104464
0.126825
0.150465
0.172747
0.192874
0.207159
0.218713
0.225213
0.23132
0.233928
0.237133
0.237919
0.239445
0.239155
0.239076
0.0203324
0.0423019
0.0854508
0.147174
0.207727
0.262484
0.30886
0.348562
0.377073
0.395366
0.404966
0.408315
0.408286
0.406977
0.403934
0.400203
0.395064
0.38982
0.00927487
0.0837591
0.268758
0.456678
0.606663
0.725183
0.80698
0.862936
0.895045
0.903899
0.898395
0.883482
0.863777
0.846005
0.824953
0.809737
0.786807
0.772297
0.0690077
0.589112
1.30637
1.67618
1.8897
2.03047
2.09072
2.09795
2.07801
2.03007
1.96712
1.88997
1.81325
1.75002
1.67884
1.62582
1.5586
1.51921
0.946097
3.73801
4.91421
4.95408
4.76325
4.43148
4.08229
3.76992
3.50062
3.26999
3.08785
2.92531
2.78071
2.63948
2.50158
2.37678
2.25094
2.15279
6.76135
10.0991
8.89029
6.79056
5.43056
4.69596
4.27424
4.02107
3.87584
3.78333
3.71147
3.65436
3.599
3.53184
3.46194
3.3794
3.29159
3.16455
0.134473
0.260468
0.280352
0.304275
0.346673
0.395044
0.448311
0.505817
0.568445
0.626715
0.708725
0.782429
0.861611
0.982992
1.13341
1.25511
1.36778
1.51251
1.7045
1.9456
2.20956
2.4598
2.72562
3.01323
3.28048
3.54164
3.76354
3.95945
4.08678
4.08571
4.03503
3.83016
3.34384
2.98383
2.8255
2.71995
2.60903
2.54649
2.53466
2.545
2.58967
2.67404
2.81553
2.95019
3.18541
3.66653
3.86568
3.83024
3.5684
3.35142
3.32428
3.38188
3.53678
3.78725
4.33661
5.35433
6.07156
6.56718
6.95818
7.25507
7.45682
7.57913
7.63942
7.60135
7.43701
7.19688
6.91686
6.60385
6.27641
5.93253
5.56816
5.18886
4.81091
4.44674
4.10949
3.80808
3.51692
3.22687
2.97532
2.7844
2.57903
2.43712
2.28311
2.13257
2.04485
1.97235
1.89692
1.84819
1.82201
1.79742
1.78751
1.78903
1.79776
1.80718
1.82619
1.84595
1.86638
1.88637
1.9059
1.92393
1.93817
1.95311
1.97088
1.98716
1.99715
1.99995
1.99728
1.98808
1.97053
1.94993
1.92682
1.89687
1.85935
1.81368
1.76842
1.72043
1.68314
1.67259
1.6719
1.68772
1.72108
1.76895
1.84474
1.95223
2.08573
2.26173
2.48049
2.74358
3.03926
3.39037
3.82734
4.32128
4.96572
5.76649
6.4657
7.01167
7.56226
8.05754
8.54448
9.30169
10.0491
10.5404
10.7971
11.2354
11.6988
12.0402
13.0513
13.6557
13.5162
12.3543
11.7558
11.7316
12.0387
11.5008
9.99838
9.79319
9.50225
8.94461
8.78072
8.72227
8.94936
9.41452
9.31999
9.62936
10.0274
9.65958
8.69855
8.25805
8.18101
7.42881
7.06598
7.11982
6.43307
6.39305
5.66308
5.96785
6.54464
7.01894
12.2012
11.4306
0.765896
0.332632
0.249165
0.253376
0.287713
0.361636
0.447852
0.522307
0.565865
0.566334
0.558561
0.550936
0.525764
0.46057
0.436533
0.430978
0.425189
0.411432
0.405403
0.406875
0.416526
0.44639
0.487676
0.551953
0.658058
0.732657
0.888633
1.01965
1.24984
1.41799
1.61029
1.84893
1.86624
1.82622
1.76184
1.58351
1.25455
0.931268
0.708171
0.580174
0.510763
0.504787
0.552729
0.596763
0.64528
0.78071
0.933018
1.00886
1.10038
1.28748
2.20959
3.33882
3.62439
3.68662
4.05191
4.30469
4.0918
3.77231
3.43718
3.10071
2.77117
2.45023
2.14555
1.86573
1.63405
1.4664
1.3471
1.22897
1.13976
1.04638
0.969241
0.895772
0.845178
0.799242
0.768981
0.738292
0.701801
0.679071
0.669997
0.666701
0.655931
0.650054
0.630178
0.626929
0.64783
0.652589
0.649174
0.667566
0.699035
0.709087
0.736615
0.771506
0.803973
0.832824
0.876506
0.916824
0.96123
1.00402
1.04201
1.0811
1.12799
1.16402
1.18813
1.22509
1.2719
1.30883
1.34261
1.36958
1.38017
1.3856
1.395
1.40193
1.40627
1.40014
1.37862
1.3492
1.32096
1.30668
1.30563
1.31879
1.33215
1.34656
1.36534
1.38483
1.41499
1.47768
1.54495
1.62832
1.74456
1.84501
1.94927
2.08541
2.27669
2.6471
3.07773
3.38336
3.4525
3.53691
3.60959
3.97022
4.73688
5.18005
5.55053
6.3612
7.06988
7.68622
8.01513
7.53504
6.01208
5.01073
5.45349
6.09369
6.11102
5.14655
4.44961
5.30207
5.2152
4.9808
5.31867
5.28868
5.37718
6.59953
6.6532
6.80493
7.83108
7.87459
7.08379
6.42172
6.45607
5.9857
5.56085
5.52656
5.10984
4.48567
4.22455
5.0093
5.46918
5.33943
5.67013
6.6869
2.03642
0.638615
0.292379
0.27248
0.312115
0.439407
0.61268
0.655392
0.638201
0.596669
0.507496
0.437549
0.394727
0.322389
0.27325
0.245072
0.226688
0.213545
0.201937
0.194982
0.193679
0.194796
0.198405
0.209048
0.223894
0.241002
0.279661
0.310734
0.393587
0.460584
0.578974
0.701074
0.810354
0.963912
0.993833
0.982264
0.942411
0.872407
0.677154
0.489581
0.418229
0.41381
0.483645
0.660788
0.902892
1.01675
1.20533
1.91317
2.4257
2.56494
2.83666
2.98381
2.78159
2.51254
2.00652
1.64855
1.38175
1.11784
0.901987
0.740608
0.599622
0.491178
0.413428
0.364745
0.338045
0.322056
0.313672
0.308434
0.30483
0.300539
0.297622
0.296353
0.296643
0.298754
0.300827
0.301108
0.300527
0.300818
0.303002
0.3092
0.313012
0.314119
0.311907
0.315209
0.329988
0.335225
0.338405
0.351092
0.364242
0.369073
0.381575
0.399531
0.413453
0.426787
0.449026
0.471196
0.49584
0.520131
0.543057
0.568418
0.605051
0.634348
0.651365
0.673129
0.710193
0.747692
0.781292
0.818672
0.850508
0.873556
0.912425
0.958853
1.01186
1.0456
1.05844
1.06379
1.0643
1.04881
1.03333
1.02901
1.02149
1.02396
1.02965
1.02731
1.02822
1.03596
1.04327
1.05732
1.09049
1.09449
1.06442
1.05601
1.09132
1.24045
1.45566
1.60522
1.63723
1.69246
1.90799
2.7018
3.26343
3.44367
3.71585
4.12414
4.30624
4.55846
4.49721
3.44299
2.50576
2.26939
2.6265
3.18254
3.22466
2.6214
2.46982
3.06346
3.00436
2.99978
3.559
3.45985
3.56143
4.15962
4.21423
4.16879
4.88821
5.62337
5.23088
4.51371
4.59475
4.54448
4.34671
4.43548
4.38941
4.13951
3.76058
4.09975
4.12775
3.92782
4.62024
4.70754
4.14932
1.1529
0.420232
0.408313
0.597518
0.831622
0.841053
0.767811
0.624452
0.488149
0.348488
0.251026
0.210412
0.182178
0.165269
0.154281
0.145875
0.140333
0.137164
0.136989
0.137524
0.140832
0.143727
0.148058
0.152059
0.157951
0.165661
0.17649
0.203591
0.226597
0.290529
0.333889
0.408818
0.479778
0.566712
0.625598
0.636831
0.637506
0.613103
0.504133
0.474484
0.541426
0.971575
1.39137
1.7635
1.85167
1.88604
2.1026
2.22019
2.18687
1.96625
1.59682
1.31293
1.03631
0.756335
0.567872
0.460501
0.36943
0.307154
0.26905
0.240449
0.22322
0.215226
0.21282
0.21395
0.217807
0.223087
0.228535
0.232976
0.237014
0.240474
0.24353
0.246473
0.250289
0.252559
0.253548
0.252525
0.249749
0.247743
0.246586
0.244029
0.24594
0.243491
0.244159
0.250498
0.255219
0.260201
0.26779
0.275634
0.279474
0.286402
0.296194
0.301388
0.305066
0.312936
0.321986
0.333444
0.347413
0.359471
0.372692
0.396981
0.423804
0.435706
0.446454
0.467414
0.496807
0.522983
0.554718
0.586196
0.60913
0.636423
0.680438
0.731849
0.776603
0.808599
0.839948
0.869723
0.876638
0.872486
0.866639
0.85265
0.845402
0.85389
0.86241
0.873195
0.875297
0.866974
0.870237
0.880456
0.875032
0.82306
0.739524
0.726967
0.77557
0.921825
0.98458
1.02344
1.11724
1.44884
2.42689
2.73107
2.73769
2.81343
2.89724
2.85247
2.8734
2.80646
2.25017
1.75632
1.67699
1.88503
2.10397
2.21002
1.87995
1.85489
2.25536
2.19814
2.30167
2.92256
2.5426
2.43367
2.82231
3.13166
3.21927
3.54954
4.47001
4.28707
3.60405
3.71887
3.90621
3.7362
3.74108
3.85256
3.90158
3.55754
3.53723
3.71517
3.6694
4.4199
3.9976
6.79926
1.7243
0.717675
0.936758
1.13102
1.06664
0.879255
0.636173
0.399526
0.261869
0.196993
0.164011
0.149921
0.139924
0.130192
0.121948
0.116855
0.114728
0.114224
0.114449
0.11505
0.116181
0.117666
0.119644
0.120618
0.122632
0.124733
0.131696
0.143865
0.155982
0.181979
0.219108
0.262436
0.288901
0.357481
0.388662
0.444736
0.465963
0.500403
0.558827
0.641784
1.10546
1.57937
1.62318
1.65735
1.67386
1.67771
1.62016
1.46038
1.23515
0.967973
0.732411
0.557963
0.415584
0.313402
0.252147
0.222094
0.200198
0.189706
0.186654
0.186402
0.187595
0.190752
0.19409
0.198639
0.203172
0.208113
0.212992
0.216544
0.220114
0.224286
0.228351
0.23167
0.235703
0.237857
0.238464
0.236843
0.231924
0.229031
0.223096
0.213885
0.21466
0.212709
0.21109
0.211767
0.215868
0.221204
0.225901
0.232677
0.237738
0.244116
0.251229
0.254363
0.255258
0.256474
0.258353
0.262513
0.270968
0.277506
0.283077
0.295752
0.322818
0.334065
0.339384
0.349786
0.371878
0.393642
0.418058
0.438843
0.458572
0.480506
0.501995
0.538505
0.586707
0.608105
0.620815
0.646697
0.664229
0.672557
0.689838
0.704141
0.713702
0.716896
0.716213
0.721905
0.756565
0.768729
0.774124
0.780636
0.777736
0.743674
0.643987
0.59166
0.606301
0.710181
0.765894
0.809247
0.924626
1.31994
2.23254
2.53071
2.47482
2.47456
2.36885
2.16073
2.12235
2.09193
1.83462
1.50614
1.46507
1.62313
1.75759
1.77821
1.62927
1.5803
1.90859
1.85752
1.976
2.48863
2.17195
1.97095
2.31899
2.61451
2.77619
3.09544
3.82267
3.71135
3.14838
3.39143
3.79648
3.47829
3.31231
3.37688
3.67275
3.46782
3.2107
3.59983
3.51611
4.44059
4.34784
9.85724
2.64313
1.57667
1.58961
1.34451
0.998079
0.602728
0.346122
0.226143
0.173915
0.150505
0.137132
0.129927
0.124507
0.117518
0.111145
0.108384
0.107792
0.106967
0.105648
0.105093
0.104844
0.104891
0.104705
0.104849
0.106672
0.108965
0.111599
0.117676
0.128687
0.138805
0.16376
0.185784
0.224002
0.249659
0.297952
0.364978
0.403334
0.460139
0.555034
0.970081
1.39946
1.51402
1.44082
1.33872
1.25764
1.13363
0.954339
0.791327
0.627351
0.476505
0.346795
0.264882
0.214876
0.186017
0.170417
0.163898
0.164248
0.167006
0.171034
0.175462
0.178708
0.181716
0.183632
0.185058
0.18546
0.185133
0.184313
0.183695
0.185354
0.188822
0.193427
0.198017
0.203764
0.208271
0.209966
0.211958
0.214323
0.215351
0.205768
0.194977
0.185145
0.181548
0.176807
0.17078
0.170243
0.170761
0.174578
0.1778
0.182197
0.19512
0.20914
0.216267
0.221071
0.223186
0.223219
0.223377
0.226073
0.232757
0.237109
0.238952
0.251048
0.267498
0.271797
0.27637
0.287861
0.306892
0.333323
0.354904
0.364977
0.383872
0.397975
0.410636
0.442946
0.491021
0.497839
0.500745
0.505843
0.507585
0.509067
0.511679
0.523002
0.566369
0.584234
0.586691
0.591798
0.606893
0.607711
0.617259
0.625068
0.612025
0.561183
0.525611
0.528102
0.593611
0.676891
0.728243
0.855854
1.32413
1.97883
2.28255
2.24293
2.33521
2.31667
2.06167
1.98105
1.87474
1.65604
1.36672
1.30327
1.36224
1.57057
1.56
1.44376
1.44439
1.69327
1.6679
1.75544
2.18972
2.04058
1.84559
2.25416
2.34799
2.29868
2.96664
3.41534
3.29591
2.84961
3.17247
3.80751
3.5042
3.13432
3.15937
3.43615
3.31088
3.02875
3.39537
3.23618
4.2913
5.52778
13.09
4.00284
2.50796
1.81222
1.18577
0.647446
0.34927
0.220057
0.169081
0.147804
0.134968
0.1256
0.121359
0.11969
0.115861
0.108607
0.106903
0.10663
0.104879
0.102905
0.10227
0.100204
0.0988557
0.0986238
0.0992043
0.101991
0.103322
0.104331
0.106375
0.11149
0.122836
0.147384
0.171107
0.19825
0.231795
0.282724
0.30882
0.347097
0.426757
0.663169
1.15569
1.35297
1.30156
1.11584
0.99938
0.842067
0.705428
0.549833
0.430943
0.32772
0.256443
0.201199
0.17234
0.157516
0.149555
0.14908
0.152515
0.158092
0.16367
0.167957
0.170364
0.170979
0.170879
0.169781
0.167743
0.165498
0.162814
0.159102
0.154498
0.14969
0.146982
0.146165
0.147162
0.149657
0.154468
0.158685
0.163112
0.174612
0.185576
0.188809
0.186426
0.175061
0.166966
0.157411
0.148162
0.145225
0.144251
0.146507
0.14875
0.147782
0.151425
0.164092
0.168521
0.170057
0.173682
0.17786
0.180004
0.180629
0.182364
0.188877
0.192834
0.19962
0.207804
0.217036
0.221905
0.230816
0.236275
0.248061
0.273936
0.28563
0.296854
0.308593
0.313128
0.31957
0.346901
0.385974
0.392853
0.396422
0.411302
0.41419
0.407883
0.395708
0.406074
0.430206
0.453815
0.485331
0.4991
0.500912
0.50288
0.518359
0.516914
0.487118
0.464791
0.464237
0.490786
0.608019
0.680881
0.822155
1.32049
1.80219
1.9758
1.96887
2.04409
2.25385
2.09616
1.95772
1.71733
1.47476
1.26685
1.22079
1.21769
1.33007
1.42563
1.33463
1.37929
1.619
1.58571
1.63011
2.15183
1.95685
1.70485
2.17265
2.19107
2.03696
2.76123
3.22917
3.10782
2.63229
2.87444
3.7302
3.57989
3.10949
3.10664
3.26325
3.15475
2.90954
3.15406
3.1851
3.36924
5.35746
16.2189
5.66551
2.97761
1.66127
0.832794
0.420973
0.241017
0.174893
0.148219
0.136484
0.12801
0.122502
0.120691
0.119252
0.114357
0.110057
0.108818
0.108153
0.106719
0.105127
0.103605
0.100322
0.0989315
0.0991544
0.0997616
0.102093
0.103543
0.103497
0.10379
0.106641
0.11754
0.133863
0.154358
0.180683
0.210847
0.230375
0.259596
0.325415
0.447973
0.86239
1.19297
1.2108
1.00511
0.845791
0.691117
0.544803
0.426126
0.324344
0.253738
0.20191
0.172608
0.152941
0.143674
0.139043
0.140555
0.145136
0.151112
0.156429
0.161176
0.162796
0.162749
0.162821
0.162902
0.16262
0.161168
0.158644
0.155524
0.151785
0.147674
0.139913
0.13395
0.128719
0.127825
0.128564
0.131212
0.135849
0.138529
0.14021
0.143826
0.158546
0.167003
0.168686
0.16191
0.151746
0.139489
0.131885
0.12793
0.128133
0.131982
0.133214
0.133581
0.13964
0.145498
0.143723
0.143307
0.142094
0.142295
0.14025
0.140784
0.144007
0.149004
0.151276
0.152407
0.155847
0.16023
0.172883
0.181961
0.185083
0.194921
0.21311
0.227258
0.238871
0.243954
0.238218
0.240244
0.261485
0.276334
0.278893
0.2909
0.301207
0.315795
0.320021
0.324245
0.32831
0.335907
0.358915
0.397847
0.413475
0.41207
0.413433
0.426552
0.424057
0.409105
0.405996
0.42073
0.523706
0.630402
0.790021
1.27255
1.67505
1.72763
1.69033
1.70357
1.92659
1.9389
1.8306
1.70421
1.41211
1.18886
1.13496
1.15416
1.25226
1.40114
1.27133
1.30944
1.63541
1.55289
1.54259
1.94805
1.8086
1.64887
1.91132
1.93179
1.94116
2.33653
3.07284
3.00619
2.57414
2.7121
3.53981
3.55133
3.14397
3.09413
3.16624
3.01845
2.76303
2.99739
3.3481
3.1133
3.28966
19.1686
7.06811
3.06953
1.33985
0.62472
0.312296
0.190031
0.153457
0.139872
0.133864
0.128087
0.12482
0.124266
0.123382
0.119245
0.116109
0.116017
0.116835
0.116444
0.114983
0.111912
0.10576
0.102086
0.101672
0.102893
0.104491
0.104177
0.103336
0.10372
0.106639
0.114337
0.124674
0.142891
0.16381
0.185682
0.211349
0.260566
0.333464
0.570634
0.979998
1.11279
0.994953
0.752292
0.611766
0.460985
0.357088
0.270312
0.214483
0.177313
0.154745
0.142875
0.135899
0.132678
0.13426
0.139418
0.145608
0.15044
0.153845
0.155606
0.157687
0.159761
0.161046
0.161487
0.161289
0.159953
0.156817
0.152775
0.148402
0.144974
0.137266
0.129878
0.121988
0.119061
0.118683
0.119897
0.124318
0.128828
0.130102
0.130505
0.135149
0.145753
0.15905
0.158779
0.151798
0.13837
0.1292
0.123567
0.121648
0.12316
0.127431
0.127084
0.129151
0.134371
0.132866
0.130333
0.127273
0.124386
0.118782
0.116977
0.116863
0.119221
0.119297
0.119523
0.119977
0.122117
0.129312
0.135781
0.140538
0.1427
0.153047
0.165286
0.1716
0.179095
0.178017
0.176486
0.185443
0.2011
0.204378
0.209782
0.219616
0.226445
0.240122
0.25219
0.268443
0.267762
0.274103
0.302174
0.330886
0.335388
0.336495
0.348946
0.353813
0.347474
0.345866
0.360393
0.449625
0.578345
0.740404
1.17979
1.55033
1.59
1.48494
1.42855
1.4775
1.53583
1.53736
1.58808
1.44894
1.20111
1.13514
1.16053
1.232
1.43756
1.24768
1.19567
1.56503
1.44489
1.44279
1.56277
1.59738
1.60947
1.65901
1.76531
1.89476
2.07833
2.80823
2.84352
2.59703
2.61851
3.30154
3.44073
3.15655
3.08033
3.10975
2.92162
2.70413
3.01623
3.71396
3.07492
2.68966
21.7717
7.94134
2.87873
1.1123
0.47763
0.225644
0.160035
0.145455
0.138619
0.136318
0.136047
0.137466
0.1399
0.139733
0.137784
0.137424
0.138488
0.139402
0.139084
0.136283
0.129151
0.119686
0.113016
0.111358
0.109982
0.107272
0.105201
0.10495
0.106028
0.108858
0.114866
0.124878
0.143332
0.162304
0.184539
0.217924
0.27213
0.392026
0.741234
0.984878
0.981483
0.748489
0.560425
0.42436
0.314458
0.244776
0.191753
0.16354
0.145732
0.136018
0.131139
0.12836
0.129464
0.134005
0.140699
0.145766
0.148988
0.15232
0.15544
0.158436
0.160614
0.161513
0.161437
0.159966
0.156181
0.150356
0.141876
0.135468
0.132854
0.129724
0.126091
0.120097
0.116656
0.115123
0.114754
0.11605
0.122034
0.125456
0.125216
0.125994
0.128356
0.142609
0.153321
0.15361
0.144907
0.131361
0.12377
0.120252
0.120509
0.124722
0.125872
0.126491
0.130797
0.129294
0.123364
0.121077
0.117955
0.110102
0.10581
0.105023
0.105451
0.104858
0.103767
0.103201
0.10406
0.107159
0.11013
0.113681
0.115038
0.121589
0.130408
0.13242
0.138486
0.140411
0.141341
0.149212
0.163151
0.168283
0.171718
0.18122
0.184372
0.194327
0.203616
0.228605
0.233544
0.237342
0.247694
0.273798
0.282805
0.282457
0.285888
0.304214
0.306388
0.309127
0.324608
0.379438
0.524226
0.691758
1.10175
1.42034
1.48554
1.42055
1.27094
1.24838
1.24554
1.25736
1.38872
1.35775
1.21441
1.16417
1.18195
1.21432
1.30677
1.18339
1.09513
1.34304
1.32499
1.36175
1.37564
1.49436
1.53362
1.52959
1.75615
1.95871
1.96941
2.3087
2.64123
2.61523
2.49131
3.01968
3.25434
3.08149
3.04062
3.07247
2.84634
2.71146
3.24366
3.87496
3.04025
2.3893
23.9851
8.50301
2.65478
0.882471
0.308751
0.170239
0.148348
0.143348
0.142173
0.148947
0.158265
0.166408
0.168755
0.168698
0.16907
0.170068
0.16953
0.166588
0.162646
0.156992
0.147259
0.140199
0.137054
0.135112
0.130123
0.118643
0.111332
0.109542
0.109904
0.111804
0.116887
0.128357
0.145483
0.163427
0.186667
0.229143
0.297812
0.535267
0.825396
0.910457
0.791387
0.543283
0.410909
0.297282
0.227162
0.18236
0.154062
0.140457
0.132328
0.128108
0.12538
0.125718
0.129049
0.135831
0.14145
0.14537
0.148926
0.152506
0.157093
0.159673
0.160435
0.160073
0.156898
0.149791
0.139638
0.129054
0.119908
0.114481
0.111919
0.112127
0.115471
0.118911
0.118264
0.115962
0.114361
0.114544
0.116359
0.121695
0.122896
0.122184
0.122801
0.125647
0.139835
0.149565
0.149488
0.140877
0.131378
0.121714
0.12014
0.122417
0.125928
0.126473
0.130977
0.129836
0.122174
0.118525
0.11541
0.107612
0.102748
0.100491
0.0997169
0.0986232
0.0970098
0.0965508
0.0972323
0.0979114
0.099839
0.101264
0.102909
0.10801
0.113061
0.11435
0.119874
0.122225
0.127202
0.134183
0.145447
0.151332
0.154348
0.160584
0.16411
0.175019
0.186713
0.209702
0.221061
0.221665
0.227113
0.241863
0.25812
0.26039
0.260358
0.268928
0.278488
0.282727
0.293853
0.327662
0.468932
0.630346
0.996716
1.27696
1.37392
1.35538
1.22702
1.16639
1.1451
1.14731
1.20075
1.18432
1.10149
1.09974
1.11758
1.13325
1.08147
1.0376
0.954357
1.05541
1.16487
1.20736
1.258
1.41429
1.41497
1.4276
1.84524
1.97154
1.9442
2.00334
2.36278
2.66599
2.35276
2.72906
2.99884
2.93083
2.94615
3.03966
2.79553
2.77133
3.63298
3.81224
2.98764
2.25513
25.7195
8.54712
2.2038
0.581282
0.206765
0.149757
0.145644
0.145967
0.153948
0.171761
0.180421
0.185788
0.185368
0.183752
0.183212
0.184717
0.187605
0.186996
0.18416
0.178183
0.166224
0.153987
0.148588
0.145936
0.140457
0.134489
0.129609
0.12382
0.120064
0.120061
0.124113
0.13314
0.145943
0.163523
0.194058
0.24481
0.40034
0.669352
0.823393
0.804123
0.58316
0.403163
0.29954
0.219361
0.176857
0.15037
0.136076
0.129203
0.125354
0.123005
0.122856
0.12499
0.130632
0.136689
0.141286
0.145192
0.149425
0.15398
0.156919
0.158361
0.157388
0.152225
0.138558
0.124863
0.118608
0.115157
0.113346
0.110499
0.10722
0.106557
0.108468
0.116683
0.121152
0.121892
0.120546
0.116154
0.115963
0.116468
0.119308
0.119141
0.120531
0.120273
0.125928
0.138987
0.145745
0.141673
0.136156
0.126063
0.120538
0.121175
0.125314
0.12631
0.132228
0.133948
0.126244
0.120126
0.115711
0.106672
0.102041
0.0996994
0.0981013
0.0970346
0.094936
0.0941584
0.0952032
0.0953346
0.0961793
0.0967122
0.0996329
0.104606
0.106966
0.10802
0.11105
0.113464
0.122013
0.129499
0.138766
0.143899
0.147208
0.153814
0.161435
0.167569
0.182698
0.200047
0.214131
0.218366
0.222915
0.230872
0.248483
0.252948
0.253188
0.255895
0.270549
0.274058
0.279867
0.301969
0.393617
0.574526
0.902515
1.13951
1.25631
1.25687
1.17503
1.13902
1.14098
1.14107
1.1249
1.08963
1.02504
1.02818
1.05656
1.03201
0.977811
0.947908
0.862505
0.920066
1.04727
1.03495
1.11273
1.28856
1.35261
1.36633
1.89708
1.90347
1.97995
1.94788
2.30894
2.80322
2.34938
2.41958
2.751
2.77177
2.87056
2.99978
2.77952
2.91354
3.92283
3.43607
2.84116
2.16981
26.9622
8.19826
1.64289
0.359968
0.167844
0.145417
0.148355
0.153708
0.171997
0.186075
0.19073
0.191752
0.190429
0.192202
0.195803
0.20045
0.203055
0.20679
0.20901
0.207037
0.200814
0.185727
0.16563
0.155166
0.147682
0.141615
0.137446
0.132336
0.128574
0.128182
0.130315
0.136895
0.147636
0.167374
0.205883
0.307568
0.561494
0.728736
0.770199
0.642251
0.417685
0.30257
0.223277
0.17235
0.147216
0.132992
0.126159
0.123046
0.121144
0.12065
0.121735
0.125588
0.131086
0.136345
0.140654
0.144801
0.149414
0.153446
0.155466
0.154593
0.149268
0.135706
0.123532
0.114529
0.110914
0.110554
0.111676
0.111248
0.107413
0.105692
0.106814
0.112203
0.120105
0.122524
0.12445
0.121907
0.118544
0.116085
0.11512
0.112923
0.114237
0.114028
0.115913
0.122349
0.134567
0.1356
0.133065
0.125563
0.119576
0.119934
0.121962
0.123805
0.130258
0.134797
0.131429
0.126245
0.12058
0.109596
0.102631
0.100139
0.0980239
0.0969464
0.0949616
0.094159
0.0948521
0.0953004
0.0957627
0.0957457
0.0978063
0.104023
0.105714
0.10721
0.108219
0.110595
0.119384
0.128824
0.137938
0.14216
0.145262
0.150015
0.164782
0.169023
0.182892
0.199454
0.210924
0.223164
0.225509
0.230816
0.247209
0.252488
0.252587
0.254071
0.268421
0.27295
0.277171
0.292106
0.339644
0.508899
0.816018
1.0254
1.14299
1.15418
1.11271
1.10139
1.12073
1.16026
1.12506
1.08592
1.02184
1.00564
1.0463
1.00065
0.92314
0.891424
0.816375
0.858923
0.958628
0.957197
1.01955
1.17323
1.27566
1.31664
1.78279
1.81938
2.1007
1.95711
2.60869
2.88304
2.41817
2.16455
2.47838
2.68978
2.832
2.95606
2.77247
3.01642
3.86365
3.20769
2.83134
2.0378
27.8828
7.28042
1.11445
0.257727
0.160034
0.146214
0.154965
0.161198
0.182711
0.191792
0.19586
0.197403
0.194971
0.196073
0.201634
0.209371
0.21532
0.221449
0.227121
0.231101
0.230702
0.224608
0.207798
0.182255
0.164879
0.152917
0.145036
0.138741
0.135046
0.134334
0.135967
0.141534
0.153298
0.179075
0.257748
0.481927
0.645958
0.723065
0.666795
0.454162
0.30673
0.232198
0.176873
0.14589
0.131153
0.123756
0.120589
0.11899
0.11854
0.1192
0.121497
0.125488
0.130623
0.135354
0.139386
0.143749
0.148473
0.151532
0.151352
0.1484
0.139869
0.128915
0.118819
0.110066
0.106875
0.107518
0.110889
0.113949
0.111377
0.107447
0.107426
0.109947
0.117121
0.120714
0.124443
0.125572
0.122705
0.118814
0.114385
0.111555
0.105924
0.102835
0.100651
0.10132
0.10808
0.11749
0.118647
0.117748
0.112418
0.111572
0.112833
0.11492
0.122705
0.133468
0.131458
0.131182
0.128743
0.115469
0.107201
0.104204
0.100865
0.0994283
0.0984503
0.0968568
0.0975245
0.0978649
0.0973695
0.0973898
0.0995384
0.105244
0.106359
0.108119
0.108723
0.111989
0.122105
0.130997
0.141976
0.145837
0.149498
0.153504
0.167076
0.173632
0.190849
0.21352
0.220466
0.241462
0.246162
0.246528
0.251212
0.257807
0.258697
0.258045
0.269188
0.276167
0.280141
0.29004
0.321431
0.445647
0.688941
0.932928
1.02937
1.0584
1.0459
1.0547
1.07191
1.12556
1.11929
1.08772
1.02852
0.956869
0.978235
0.959889
0.862409
0.840846
0.788907
0.824079
0.920207
0.924112
0.966305
1.10676
1.19787
1.28548
1.5556
1.76186
2.15121
2.09355
2.88414
2.83902
2.40996
1.99304
2.35717
2.66515
2.80078
2.94086
2.75351
3.02217
3.36118
3.06689
2.87834
1.8687
28.6172
6.27403
0.828099
0.235834
0.161983
0.150612
0.159404
0.165812
0.187232
0.192788
0.194923
0.19604
0.196201
0.201426
0.209113
0.21741
0.22566
0.234684
0.243214
0.250078
0.255226
0.257035
0.252798
0.240939
0.220127
0.19089
0.16851
0.155857
0.149905
0.147573
0.148692
0.156276
0.181337
0.269275
0.438482
0.571437
0.657065
0.652737
0.487901
0.322817
0.237079
0.185869
0.149899
0.13102
0.122189
0.118426
0.117033
0.116642
0.116909
0.118196
0.12101
0.124904
0.129533
0.13315
0.136929
0.141741
0.146222
0.146786
0.145695
0.142073
0.13628
0.128481
0.118308
0.107334
0.102156
0.102695
0.108079
0.11807
0.120387
0.115245
0.112393
0.111367
0.113607
0.118259
0.122738
0.127876
0.127268
0.124795
0.11568
0.107648
0.0988709
0.0951948
0.0929929
0.0921447
0.0911247
0.0924319
0.09279
0.0952325
0.0948095
0.0942021
0.096877
0.0995649
0.10735
0.127512
0.13
0.133238
0.133168
0.126968
0.115083
0.114
0.111404
0.105798
0.107322
0.107486
0.106754
0.108627
0.106638
0.10483
0.109092
0.115116
0.115267
0.116125
0.116005
0.122339
0.134789
0.145785
0.16219
0.167201
0.173193
0.174929
0.187921
0.194833
0.225587
0.251586
0.257722
0.274365
0.282309
0.281501
0.279813
0.280952
0.285757
0.284061
0.290343
0.298066
0.298429
0.299686
0.318069
0.390943
0.554375
0.827143
0.944403
0.984768
0.985049
1.02056
1.02937
1.04365
1.0638
1.05503
1.00329
0.903869
0.903524
0.89563
0.819015
0.79768
0.752321
0.775898
0.898378
0.915363
0.941109
1.06031
1.1223
1.24291
1.46987
1.74357
2.061
2.31799
2.77056
2.54112
2.23231
1.96052
2.33233
2.59188
2.77898
2.92429
2.7432
2.87871
3.20325
2.917
2.89329
1.8039
28.9267
5.57911
0.713858
0.242847
0.175863
0.15869
0.161396
0.16533
0.187211
0.192555
0.19414
0.195032
0.195829
0.201272
0.209904
0.219987
0.231489
0.243349
0.254259
0.262564
0.270725
0.278518
0.283455
0.283602
0.279501
0.267099
0.248421
0.230043
0.218553
0.214306
0.222538
0.258127
0.333532
0.429379
0.515281
0.586371
0.605349
0.49582
0.342148
0.247047
0.193934
0.156039
0.132521
0.121119
0.116553
0.11506
0.114886
0.115197
0.116207
0.117782
0.120429
0.123927
0.126617
0.130713
0.134725
0.13931
0.142466
0.142775
0.14203
0.13939
0.134529
0.128816
0.120167
0.107984
0.0991619
0.0972522
0.100816
0.114627
0.12577
0.126565
0.122915
0.115759
0.113073
0.114476
0.118914
0.126277
0.127205
0.125764
0.118344
0.104591
0.0931192
0.0866333
0.0840032
0.0841984
0.0843007
0.0842951
0.0844503
0.0855994
0.0867532
0.0887408
0.0943616
0.0968937
0.103478
0.118871
0.125198
0.134401
0.138298
0.136257
0.130399
0.127598
0.127291
0.122354
0.120521
0.125567
0.12604
0.129944
0.127949
0.125448
0.13141
0.138236
0.138415
0.137058
0.139816
0.149863
0.164036
0.176727
0.20203
0.210046
0.221674
0.221327
0.227594
0.237192
0.26599
0.276765
0.28795
0.293784
0.314577
0.323821
0.323824
0.327173
0.344314
0.349273
0.352904
0.350232
0.343976
0.334043
0.336694
0.370136
0.476614
0.695272
0.836412
0.907591
0.920435
0.976663
1.00241
0.998506
1.00068
0.976503
0.945914