/*--------------------------------*- C++ -*----------------------------------*\
| =========                 |                                                 |
| \\      /  F ield         | OpenFOAM: The Open Source CFD Toolbox           |
|  \\    /   O peration     | Version:  dev                                   |
|   \\  /    A nd           | Web:      http://www.openfoam.org               |
|    \\/     M anipulation  |                                                 |
\*---------------------------------------------------------------------------*/
FoamFile
{
    version     2.0;
    format      ascii;
    class       volScalarField;
    object      muSgs;
    location    "9.167";
}
// * * * * * * * * * * * * * * * * * * * * * * * * * * * * * * * * * * * * * //

dimensions      [1 -1 -1 0 0 0 0];

internalField   nonuniform List<scalar> 
12225
(
0.00022229
0.000229704
0.000175931
0.000170258
0.00014602
0.000157521
0.000157571
0.00016336
0.00018204
0.000175844
0.000206684
0.000190815
0.000226132
0.000207808
0.000244545
0.000223645
0.000239602
0.000302236
0.000110706
0.000202126
0.000182364
0.000197626
0.000162112
0.000182934
0.00014918
0.000173553
0.000148932
0.000165604
0.000154054
0.000157272
0.000164071
0.000152596
0.000177719
0.000162881
0.000293262
0.000327577
3.86265e-05
0.000115525
0.000122924
0.000145965
0.000138115
0.000144416
0.000135349
0.000133575
0.000133603
0.000119058
0.000130576
0.000105508
0.000124593
9.76819e-05
0.000131014
0.000111588
0.000246246
0.000342569
1.37295e-05
5.02994e-05
7.18795e-05
8.1799e-05
9.83647e-05
9.55861e-05
0.000105145
9.41935e-05
0.000107071
8.70241e-05
0.000103266
7.64996e-05
9.51641e-05
6.95978e-05
9.80914e-05
7.51736e-05
0.00018425
0.000321633
1.05519e-05
2.8328e-05
4.54266e-05
5.2602e-05
6.64414e-05
6.62224e-05
7.41952e-05
6.7912e-05
7.55717e-05
6.28285e-05
7.45771e-05
5.71474e-05
7.13951e-05
5.35118e-05
7.26511e-05
6.14035e-05
0.00012485
0.000228728
1.56488e-05
2.28789e-05
3.20757e-05
3.46377e-05
4.47193e-05
4.40523e-05
5.19844e-05
4.69361e-05
5.36724e-05
4.52028e-05
5.38289e-05
4.3439e-05
5.28525e-05
4.21619e-05
5.4655e-05
4.87301e-05
8.06431e-05
0.000128406
1.9921e-05
2.30568e-05
2.73639e-05
2.84192e-05
3.36777e-05
3.32371e-05
3.83612e-05
3.56218e-05
3.96329e-05
3.51799e-05
4.0008e-05
3.49204e-05
3.98649e-05
3.50816e-05
4.06179e-05
3.86278e-05
5.4845e-05
6.79504e-05
2.00203e-05
2.22474e-05
2.36667e-05
2.4163e-05
2.5895e-05
2.59456e-05
2.78097e-05
2.69349e-05
2.81445e-05
2.67759e-05
2.81575e-05
2.66335e-05
2.80573e-05
2.70045e-05
2.84434e-05
2.85527e-05
3.40613e-05
3.65531e-05
2.66015e-05
2.98869e-05
2.77394e-05
2.78121e-05
2.79491e-05
2.79846e-05
2.85823e-05
2.83169e-05
2.84556e-05
2.803e-05
2.81089e-05
2.76414e-05
2.78074e-05
2.77386e-05
2.81341e-05
2.79527e-05
3.08794e-05
3.07195e-05
3.89512e-05
4.23644e-05
3.75527e-05
3.65515e-05
3.31704e-05
3.27496e-05
3.16807e-05
3.15064e-05
3.08984e-05
3.06729e-05
3.02322e-05
3.00157e-05
2.97763e-05
2.99079e-05
2.9928e-05
2.97571e-05
3.07183e-05
3.07389e-05
5.86504e-05
6.0438e-05
5.33899e-05
5.12432e-05
4.51887e-05
4.33454e-05
3.90179e-05
3.8062e-05
3.59967e-05
3.54186e-05
3.43157e-05
3.38559e-05
3.33059e-05
3.31596e-05
3.30431e-05
3.27827e-05
3.31639e-05
3.31635e-05
8.62295e-05
8.59884e-05
7.57545e-05
7.12065e-05
6.28328e-05
5.91993e-05
5.3157e-05
5.07659e-05
4.71071e-05
4.53459e-05
4.31343e-05
4.18942e-05
4.05962e-05
3.97854e-05
3.90827e-05
3.87324e-05
3.81863e-05
3.78443e-05
0.000124634
0.00012078
0.0001062
9.70726e-05
8.55849e-05
7.88832e-05
7.15595e-05
6.7048e-05
6.23809e-05
5.94307e-05
5.68036e-05
5.49054e-05
5.33187e-05
5.2092e-05
5.08768e-05
4.98934e-05
4.89208e-05
4.80213e-05
0.000173738
0.000166045
0.000146309
0.000129868
0.000114831
0.000104393
9.58704e-05
8.97217e-05
8.43197e-05
8.01327e-05
7.63143e-05
7.33296e-05
7.0761e-05
6.86501e-05
6.66933e-05
6.50058e-05
6.34922e-05
6.2017e-05
0.000240138
0.000227751
0.00020143
0.000177957
0.000159055
0.000143436
0.000130078
0.000119388
0.000110259
0.000102936
9.65245e-05
9.15519e-05
8.71189e-05
8.36588e-05
8.04185e-05
7.78842e-05
7.5281e-05
7.3218e-05
0.000313643
0.000293789
0.000253101
0.000217285
0.000190132
0.00016881
0.000151558
0.000137957
0.000126583
0.000117565
0.000109778
0.000103703
9.82957e-05
9.40981e-05
9.00982e-05
8.70444e-05
8.38462e-05
8.14531e-05
0.000364785
0.000334838
0.000283861
0.000242154
0.000210701
0.000186175
0.000166474
0.000151015
0.000138257
0.00012821
0.000119579
0.000112838
0.000106847
0.000102187
9.77417e-05
9.4345e-05
9.07552e-05
8.81333e-05
0.000363668
0.000333947
0.000283681
0.000242217
0.000210741
0.000186183
0.000166407
0.00015086
0.000138096
0.000128054
0.000119473
0.000112774
0.000106769
0.000102137
9.76967e-05
9.43083e-05
9.07448e-05
8.8104e-05
0.000314675
0.000292646
0.000253031
0.000218056
0.000190939
0.000169507
0.000152022
0.00013812
0.000126736
0.000117712
0.000110024
0.000104011
9.85878e-05
9.44236e-05
9.03627e-05
8.72879e-05
8.40358e-05
8.16047e-05
0.000241696
0.000225198
0.000200585
0.000178038
0.000159298
0.000143636
0.000130213
0.000119254
0.000110203
0.000102956
9.68069e-05
9.19328e-05
8.75574e-05
8.41666e-05
8.07743e-05
7.81968e-05
7.53727e-05
7.3277e-05
0.000176139
0.00016385
0.000144602
0.000127827
0.000114641
0.000104179
9.55162e-05
8.83611e-05
8.28778e-05
7.82068e-05
7.44244e-05
7.13818e-05
6.88647e-05
6.68612e-05
6.4808e-05
6.31458e-05
6.12615e-05
5.97539e-05
0.000125019
0.000118344
0.000106748
9.52424e-05
8.66568e-05
7.98373e-05
7.32602e-05
6.74651e-05
6.23359e-05
5.86834e-05
5.61336e-05
5.43288e-05
5.29378e-05
5.18102e-05
5.0773e-05
4.98169e-05
4.88655e-05
4.7985e-05
8.44018e-05
8.05084e-05
7.37357e-05
6.63233e-05
6.06544e-05
5.64467e-05
5.37329e-05
5.202e-05
5.04157e-05
4.92119e-05
4.81285e-05
4.72512e-05
4.64733e-05
4.58007e-05
4.5049e-05
4.44271e-05
4.37016e-05
4.30847e-05
5.4869e-05
5.26304e-05
4.79588e-05
4.5386e-05
4.46551e-05
4.52158e-05
4.58524e-05
4.61287e-05
4.58591e-05
4.55964e-05
4.50181e-05
4.46094e-05
4.3961e-05
4.34596e-05
4.27693e-05
4.22256e-05
4.15299e-05
4.09511e-05
3.32617e-05
3.27554e-05
3.37907e-05
3.70764e-05
3.99136e-05
4.25701e-05
4.45679e-05
4.60529e-05
4.67046e-05
4.69991e-05
4.67366e-05
4.64515e-05
4.58182e-05
4.52566e-05
4.44711e-05
4.37679e-05
4.29147e-05
4.20984e-05
1.743e-05
2.30987e-05
3.16738e-05
4.02622e-05
4.67318e-05
5.14943e-05
5.48452e-05
5.72165e-05
5.84176e-05
5.87286e-05
5.83346e-05
5.75015e-05
5.64312e-05
5.52992e-05
5.40632e-05
5.2809e-05
5.14834e-05
5.01719e-05
1.03299e-05
2.87634e-05
5.08748e-05
6.57489e-05
7.46921e-05
8.03646e-05
8.33777e-05
8.47702e-05
8.48486e-05
8.37553e-05
8.20073e-05
7.98244e-05
7.74767e-05
7.52454e-05
7.29229e-05
7.08786e-05
6.8568e-05
6.66387e-05
2.39129e-05
7.20609e-05
0.000107459
0.000120301
0.000125738
0.000128162
0.000128044
0.000126204
0.000123506
0.000119922
0.000115924
0.000111551
0.000107242
0.000103402
9.93979e-05
9.59993e-05
9.22506e-05
8.9349e-05
8.51504e-05
0.000175694
0.000200131
0.000198355
0.000191583
0.000181763
0.000171397
0.000161696
0.000152914
0.000145009
0.000138234
0.000131957
0.000126182
0.000120563
0.000115117
0.00011004
0.000105044
0.000100597
0.000228582
0.000275867
0.000252866
0.000215923
0.000189274
0.000172797
0.000162026
0.000154583
0.000149346
0.000145228
0.000141597
0.000138283
0.000135007
0.000131547
0.000128039
0.000124336
0.000120522
0.000115712
3.03527e-05
4.233e-05
4.38514e-05
4.59882e-05
4.91276e-05
5.26573e-05
5.62544e-05
5.99242e-05
6.3679e-05
6.69837e-05
7.1443e-05
7.52772e-05
7.91176e-05
8.46619e-05
9.1257e-05
9.64874e-05
0.000101138
0.000106695
0.000113513
0.000121707
0.00013037
0.000138262
0.000146282
0.000154615
0.000162121
0.000169304
0.000175545
0.000180868
0.000184929
0.000185963
0.00018595
0.000182438
0.000170456
0.00016059
0.000156887
0.000155229
0.000153146
0.000152222
0.000152647
0.000153786
0.000156138
0.000159424
0.000164676
0.000170607
0.000178701
0.000192128
0.000198852
0.000200004
0.000194814
0.000188127
0.000186002
0.000187056
0.000191605
0.000197631
0.000209289
0.000232596
0.000249424
0.000261043
0.000270176
0.000277308
0.00028255
0.000286275
0.000288813
0.000289515
0.000287803
0.000284548
0.000280366
0.000275334
0.000269764
0.000263554
0.000256577
0.000248897
0.000240846
0.000232708
0.000224834
0.000217504
0.000210041
0.000202192
0.000195156
0.000189746
0.000183508
0.000179213
0.000174174
0.000169153
0.000166499
0.000164216
0.000161702
0.000160383
0.000159926
0.000159463
0.000159695
0.000160393
0.000161383
0.000162388
0.000163797
0.000165222
0.000166671
0.000168076
0.000169473
0.000170832
0.000172028
0.000173273
0.00017468
0.000176026
0.0001771
0.000177889
0.000178465
0.000178744
0.000178707
0.000178488
0.000178083
0.000177387
0.000176279
0.000174853
0.000173384
0.000171816
0.00017061
0.000170566
0.000171034
0.000172181
0.000174279
0.000176923
0.000180505
0.000185331
0.000191633
0.000199874
0.000209781
0.000221595
0.000234219
0.000247696
0.000263709
0.000281374
0.000303104
0.0003286
0.00034994
0.000365876
0.000381088
0.000393557
0.000404995
0.00042144
0.000436759
0.000446878
0.000453585
0.000462049
0.000469116
0.00047372
0.000488831
0.000498373
0.000495477
0.000481158
0.000474819
0.000475769
0.000478209
0.000470173
0.000449366
0.000445214
0.000438466
0.000429583
0.000425088
0.000422086
0.000431978
0.000441613
0.000440451
0.000446528
0.000452127
0.000441896
0.000418378
0.00040826
0.00040749
0.000390716
0.000382813
0.000385615
0.000374898
0.000373469
0.000352647
0.000365715
0.000396489
0.000431212
0.00056238
0.000518283
7.16682e-05
4.86581e-05
4.19818e-05
4.22843e-05
4.51262e-05
5.06946e-05
5.64647e-05
6.09185e-05
6.35166e-05
6.34111e-05
6.29565e-05
6.27325e-05
6.13507e-05
5.76013e-05
5.61402e-05
5.59006e-05
5.57792e-05
5.52141e-05
5.48483e-05
5.50682e-05
5.59992e-05
5.78534e-05
6.09517e-05
6.49654e-05
7.12579e-05
7.59811e-05
8.36394e-05
9.04038e-05
0.000101124
0.000108158
0.000116373
0.000126333
0.000127674
0.000127382
0.000126564
0.000120603
0.000107513
9.44609e-05
8.3881e-05
7.6447e-05
7.22634e-05
7.23196e-05
7.54742e-05
7.9157e-05
8.38351e-05
9.25601e-05
9.97626e-05
0.000103854
0.000111384
0.00011921
0.000148626
0.000183202
0.000192463
0.000195046
0.000205303
0.000213303
0.000209551
0.000202349
0.000194131
0.00018523
0.00017585
0.000166031
0.000155992
0.000146052
0.000137267
0.000130637
0.000125703
0.000120509
0.000116542
0.000112071
0.000108285
0.000104527
0.000101984
9.96343e-05
9.82155e-05
9.66731e-05
9.46508e-05
9.35281e-05
9.34296e-05
9.36977e-05
9.33537e-05
9.34465e-05
9.2215e-05
9.25136e-05
9.47407e-05
9.5493e-05
9.55692e-05
9.76182e-05
0.000100541
0.000101626
0.000104251
0.000107357
0.000110167
0.000112678
0.000116182
0.000119278
0.000122616
0.000125758
0.000128451
0.000131169
0.000134358
0.000136884
0.000138821
0.000141735
0.000145245
0.000148278
0.00015121
0.000153667
0.000155242
0.000156729
0.000158461
0.000160073
0.000161213
0.000161733
0.000160913
0.000159583
0.000158307
0.000157316
0.000156938
0.000157305
0.000157856
0.000158818
0.000159854
0.000159032
0.00015836
0.000160483
0.000162772
0.000167064
0.000174239
0.000178783
0.000182089
0.000187862
0.000197696
0.00021752
0.000240081
0.000256564
0.00026259
0.000265816
0.000265249
0.000271542
0.000289439
0.000299843
0.000314018
0.000335171
0.000353653
0.00037558
0.000382292
0.000366762
0.000327268
0.000303583
0.000321792
0.000344293
0.000342492
0.000310957
0.000292394
0.000326425
0.0003244
0.000320623
0.00033502
0.000326071
0.000325148
0.000368411
0.000382346
0.00039412
0.000420247
0.000420626
0.000401499
0.000384362
0.000389862
0.000388759
0.000380048
0.000379388
0.000377628
0.000355779
0.000350845
0.000369276
0.00038841
0.000392377
0.000448874
0.00044026
0.000116001
6.75716e-05
4.60613e-05
4.46746e-05
4.79398e-05
5.65951e-05
6.64276e-05
6.80885e-05
6.68369e-05
6.46168e-05
5.9255e-05
5.52875e-05
5.25546e-05
4.77114e-05
4.41138e-05
4.18485e-05
4.06166e-05
3.94944e-05
3.86129e-05
3.82444e-05
3.82055e-05
3.86001e-05
3.90581e-05
4.01768e-05
4.18689e-05
4.34308e-05
4.7018e-05
4.98409e-05
5.59481e-05
6.12707e-05
6.93177e-05
7.61713e-05
8.29746e-05
9.14099e-05
9.36508e-05
9.43343e-05
9.32762e-05
9.12343e-05
8.16198e-05
6.93087e-05
6.39991e-05
6.49014e-05
7.06055e-05
8.17869e-05
9.61372e-05
0.00010249
0.000110171
0.000137194
0.000156079
0.000160825
0.0001685
0.000173861
0.000169367
0.000161867
0.000146169
0.000133372
0.000122588
0.00011077
9.99005e-05
9.0758e-05
8.18363e-05
7.4195e-05
6.81785e-05
6.41926e-05
6.19696e-05
6.06767e-05
6.01149e-05
5.98279e-05
5.96937e-05
5.94774e-05
5.94103e-05
5.95107e-05
5.97831e-05
6.02511e-05
6.07212e-05
6.10101e-05
6.11864e-05
6.14486e-05
6.19325e-05
6.27788e-05
6.3428e-05
6.3917e-05
6.3815e-05
6.4461e-05
6.62519e-05
6.7087e-05
6.76311e-05
6.92334e-05
7.1017e-05
7.17059e-05
7.33444e-05
7.56389e-05
7.74283e-05
7.90886e-05
8.18206e-05
8.43478e-05
8.70005e-05
8.96684e-05
9.21769e-05
9.47321e-05
9.80916e-05
0.000100716
0.000102091
0.000104136
0.000107451
0.000110965
0.000113964
0.000117575
0.000120703
0.000123328
0.000127367
0.000131954
0.000136809
0.000140287
0.000142682
0.00014422
0.000144968
0.000143619
0.000140987
0.000138447
0.000135565
0.000134439
0.000135529
0.00013558
0.000134287
0.000132909
0.000130995
0.000130728
0.000133451
0.000132354
0.000128064
0.000125806
0.000127149
0.000137853
0.000155687
0.00017112
0.000180365
0.00018663
0.000195234
0.000223968
0.000239627
0.000247481
0.000259573
0.000272013
0.000282056
0.000292858
0.000281769
0.000245408
0.000210235
0.000206238
0.000219844
0.000248921
0.000243827
0.000213607
0.000210398
0.000247943
0.000236624
0.000243196
0.000272106
0.000239607
0.000234837
0.000279872
0.000296736
0.000307107
0.000341991
0.000369171
0.000356375
0.0003299
0.000337639
0.000352588
0.000341597
0.000348679
0.000363158
0.000357207
0.000357196
0.000353094
0.000355717
0.000335443
0.000423366
0.00039401
0.000164628
8.99988e-05
5.52773e-05
5.48431e-05
6.56604e-05
7.65562e-05
7.59318e-05
7.23446e-05
6.49116e-05
5.75736e-05
4.86415e-05
4.1571e-05
3.81897e-05
3.56771e-05
3.4409e-05
3.33247e-05
3.26694e-05
3.22176e-05
3.20626e-05
3.23596e-05
3.24223e-05
3.30865e-05
3.35797e-05
3.41293e-05
3.49497e-05
3.55602e-05
3.6543e-05
3.79979e-05
4.05943e-05
4.29204e-05
4.87524e-05
5.30487e-05
5.91457e-05
6.42187e-05
7.07273e-05
7.42898e-05
7.61094e-05
7.6696e-05
7.66919e-05
7.03024e-05
6.79678e-05
7.3381e-05
9.76884e-05
0.000114982
0.000129345
0.000133888
0.000135624
0.000143331
0.000148058
0.000147879
0.000141459
0.000128494
0.000116939
0.000104428
8.95662e-05
7.80109e-05
7.04718e-05
6.32453e-05
5.7761e-05
5.41217e-05
5.12084e-05
4.94368e-05
4.86931e-05
4.86008e-05
4.89233e-05
4.9575e-05
5.03803e-05
5.12084e-05
5.19199e-05
5.25878e-05
5.31991e-05
5.37651e-05
5.43111e-05
5.49448e-05
5.54082e-05
5.57302e-05
5.58417e-05
5.57916e-05
5.57945e-05
5.58236e-05
5.57259e-05
5.62258e-05
5.61406e-05
5.65327e-05
5.73325e-05
5.81982e-05
5.89851e-05
6.00533e-05
6.12142e-05
6.18598e-05
6.28292e-05
6.42042e-05
6.51458e-05
6.56843e-05
6.69134e-05
6.83471e-05
6.9997e-05
7.17505e-05
7.32828e-05
7.50432e-05
7.80497e-05
8.15211e-05
8.27444e-05
8.38164e-05
8.59899e-05
8.94409e-05
9.22129e-05
9.54533e-05
9.86013e-05
0.000101085
0.00010403
0.000108271
0.000113653
0.000118533
0.000121958
0.000124527
0.000127699
0.000129526
0.000130032
0.000129503
0.000126801
0.000123653
0.000122149
0.000121029
0.000121699
0.0001225
0.00012171
0.00012092
0.000121608
0.000119861
0.000113678
0.000105735
0.000103185
0.000106367
0.000118594
0.000128925
0.000138156
0.000148451
0.000167346
0.000210291
0.000220074
0.000223509
0.000226569
0.000232178
0.000235289
0.000235847
0.00022864
0.000205012
0.000177929
0.000176772
0.000184422
0.000201902
0.000202397
0.000184165
0.000180877
0.000210932
0.000197411
0.000208932
0.000241261
0.000197738
0.000192858
0.000223567
0.000243942
0.000243632
0.00028447
0.000333332
0.000327933
0.000298233
0.000312641
0.000336073
0.000307125
0.00030821
0.000336506
0.000349685
0.000365752
0.000346525
0.000351514
0.000313755
0.000414673
0.000386654
0.00020934
0.000108806
7.13231e-05
8.09241e-05
8.79353e-05
8.45909e-05
7.6569e-05
6.53352e-05
5.17962e-05
4.20796e-05
3.68937e-05
3.39164e-05
3.25272e-05
3.15551e-05
3.08307e-05
2.99512e-05
2.96964e-05
2.96343e-05
2.95346e-05
2.99451e-05
3.0074e-05
3.03141e-05
3.0807e-05
3.10662e-05
3.13531e-05
3.18327e-05
3.20137e-05
3.28614e-05
3.46695e-05
3.63025e-05
3.90595e-05
4.23348e-05
4.60781e-05
4.9276e-05
5.51243e-05
5.85491e-05
6.29453e-05
6.55373e-05
6.80547e-05
7.21424e-05
8.0724e-05
0.000102949
0.000121086
0.00012333
0.000125174
0.00012665
0.000127584
0.000126338
0.00012071
0.000111588
9.91695e-05
8.66039e-05
7.58786e-05
6.56605e-05
5.70803e-05
5.12931e-05
4.82313e-05
4.58622e-05
4.47826e-05
4.45727e-05
4.47228e-05
4.50907e-05
4.57194e-05
4.63783e-05
4.71672e-05
4.79464e-05
4.87522e-05
4.95266e-05
5.01448e-05
5.07624e-05
5.14478e-05
5.21157e-05
5.2682e-05
5.33228e-05
5.37355e-05
5.39663e-05
5.39332e-05
5.35662e-05
5.33568e-05
5.28347e-05
5.19009e-05
5.20895e-05
5.2015e-05
5.20969e-05
5.22001e-05
5.29671e-05
5.37994e-05
5.46211e-05
5.57413e-05
5.6585e-05
5.76932e-05
5.86947e-05
5.9385e-05
5.97397e-05
6.00753e-05
6.03725e-05
6.11818e-05
6.25483e-05
6.36151e-05
6.42198e-05
6.56787e-05
6.94862e-05
7.12908e-05
7.20181e-05
7.30544e-05
7.58891e-05
7.8621e-05
8.15828e-05
8.39992e-05
8.60863e-05
8.87394e-05
9.10507e-05
9.481e-05
9.99491e-05
0.000103495
0.000104653
0.000106246
0.000107945
0.00010909
0.000110664
0.000112236
0.000113011
0.000114053
0.000113061
0.000111767
0.00011383
0.000114627
0.000114486
0.000114922
0.000115303
0.000110362
0.000100274
9.33412e-05
9.34774e-05
0.000102175
0.000112047
0.000121522
0.00013321
0.000157475
0.000201464
0.000210931
0.000212474
0.000209677
0.000207883
0.000202951
0.000198914
0.000199437
0.000190238
0.000167299
0.000162519
0.000169857
0.000181125
0.000186808
0.000172683
0.000168273
0.000194093
0.000181205
0.000191056
0.000222047
0.000199509
0.000191665
0.000209989
0.000218181
0.000202729
0.000242937
0.000302898
0.000307741
0.000274094
0.000297433
0.000334194
0.000294392
0.000281775
0.000309489
0.000337431
0.000370977
0.00034392
0.000356355
0.000310338
0.000355766
0.000441508
0.000250578
0.000133487
0.000103432
0.000103216
9.44884e-05
8.13978e-05
6.32677e-05
4.79296e-05
3.91975e-05
3.46128e-05
3.24438e-05
3.09677e-05
3.01041e-05
2.98634e-05
2.96369e-05
2.906e-05
2.88042e-05
2.87684e-05
2.88046e-05
2.90764e-05
2.89554e-05
2.89333e-05
2.92342e-05
2.90376e-05
2.91196e-05
2.97662e-05
3.03298e-05
3.06949e-05
3.12276e-05
3.27362e-05
3.44151e-05
3.76426e-05
4.0445e-05
4.41078e-05
4.646e-05
5.10545e-05
5.64221e-05
6.08713e-05
6.4771e-05
7.2836e-05
9.64923e-05
0.000113813
0.000118133
0.000116356
0.000112809
0.000110072
0.000105063
9.68865e-05
8.86466e-05
7.92297e-05
6.92814e-05
5.92941e-05
5.19727e-05
4.68642e-05
4.36522e-05
4.18912e-05
4.12989e-05
4.15361e-05
4.21259e-05
4.29101e-05
4.375e-05
4.44426e-05
4.5087e-05
4.55869e-05
4.60086e-05
4.62741e-05
4.64495e-05
4.65393e-05
4.66458e-05
4.70333e-05
4.76409e-05
4.83796e-05
4.91048e-05
4.99604e-05
5.06514e-05
5.104e-05
5.14396e-05
5.18838e-05
5.21077e-05
5.114e-05
4.98731e-05
4.86498e-05
4.82214e-05
4.76932e-05
4.69232e-05
4.68815e-05
4.70176e-05
4.7647e-05
4.83241e-05
4.90105e-05
5.09777e-05
5.31348e-05
5.43669e-05
5.51707e-05
5.58017e-05
5.59104e-05
5.61138e-05
5.6334e-05
5.76847e-05
5.84687e-05
5.8639e-05
6.01223e-05
6.24746e-05
6.34169e-05
6.39197e-05
6.56242e-05
6.81275e-05
7.15197e-05
7.43876e-05
7.56274e-05
7.77638e-05
7.93363e-05
8.08796e-05
8.38032e-05
8.98469e-05
9.17598e-05
9.13634e-05
9.15473e-05
9.23663e-05
9.22326e-05
9.21033e-05
9.1874e-05
9.64127e-05
9.99752e-05
0.000100076
0.000100734
0.000100544
9.97449e-05
9.96034e-05
0.000102055
0.000101663
9.57093e-05
8.94659e-05
8.65136e-05
9.11928e-05
0.000102387
0.000113813
0.000126929
0.000156295
0.000190273
0.000200342
0.000200883
0.000203874
0.000199899
0.000193118
0.00019007
0.000185852
0.000174594
0.000156984
0.000154793
0.000158714
0.00016759
0.000179078
0.000164133
0.000164137
0.000186355
0.000174367
0.00017674
0.000203836
0.00020676
0.000187909
0.000211299
0.000211028
0.000191176
0.00021458
0.000272815
0.000291971
0.000252846
0.000275058
0.000331523
0.000301479
0.000274207
0.000298296
0.000325055
0.000366334
0.000343337
0.000354654
0.000302772
0.000320844
0.000486356
0.000287985
0.000163322
0.00012938
0.000109365
8.83892e-05
6.50738e-05
4.81295e-05
3.85948e-05
3.40271e-05
3.1963e-05
3.05307e-05
2.95463e-05
2.92473e-05
2.97649e-05
2.99576e-05
2.89429e-05
2.84722e-05
2.87325e-05
2.9044e-05
2.9009e-05
2.88312e-05
2.84787e-05
2.82705e-05
2.82076e-05
2.84487e-05
2.89659e-05
2.95221e-05
3.00689e-05
3.02223e-05
3.07825e-05
3.22984e-05
3.546e-05
3.81406e-05
4.08393e-05
4.47152e-05
4.94663e-05
5.2596e-05
5.6367e-05
6.26323e-05
7.95345e-05
0.000104361
0.000111271
0.000110303
0.000102876
9.78122e-05
9.01997e-05
8.28283e-05
7.34196e-05
6.52737e-05
5.71722e-05
5.07085e-05
4.4968e-05
4.16576e-05
3.98705e-05
3.90152e-05
3.91677e-05
3.98898e-05
4.09144e-05
4.19348e-05
4.27823e-05
4.33499e-05
4.36662e-05
4.38715e-05
4.39166e-05
4.3843e-05
4.37258e-05
4.35373e-05
4.32018e-05
4.2739e-05
4.22071e-05
4.19578e-05
4.19627e-05
4.22398e-05
4.27493e-05
4.35465e-05
4.42856e-05
4.50356e-05
4.66855e-05
4.83264e-05
4.903e-05
4.88821e-05
4.75263e-05
4.65804e-05
4.51159e-05
4.38944e-05
4.33926e-05
4.32816e-05
4.35874e-05
4.39933e-05
4.39567e-05
4.44922e-05
4.64319e-05
4.75799e-05
4.81232e-05
4.90715e-05
4.95837e-05
5.03093e-05
5.0198e-05
5.06381e-05
5.15892e-05
5.24401e-05
5.33431e-05
5.45344e-05
5.61426e-05
5.66835e-05
5.79855e-05
5.89071e-05
6.04542e-05
6.38729e-05
6.5786e-05
6.72825e-05
6.86152e-05
6.96494e-05
6.98084e-05
7.27976e-05
7.80129e-05
7.88066e-05
7.88151e-05
8.11433e-05
8.23193e-05
8.18889e-05
7.97962e-05
7.93008e-05
8.23577e-05
8.45495e-05
8.94268e-05
9.14575e-05
9.06148e-05
8.92531e-05
9.00324e-05
9.21272e-05
9.0204e-05
8.70786e-05
8.30485e-05
8.29561e-05
9.45241e-05
0.000107963
0.000122911
0.000156076
0.000181436
0.000187636
0.000187551
0.000192191
0.000196189
0.000192243
0.000188159
0.000176878
0.000165985
0.000153841
0.000150978
0.000154657
0.000158083
0.000170191
0.000162806
0.000161538
0.000184566
0.000178603
0.000173434
0.000195307
0.000204458
0.000180306
0.000200973
0.000211025
0.000204495
0.000202875
0.00025449
0.000284394
0.000240507
0.000243568
0.000318296
0.000311507
0.000276011
0.000294522
0.00031591
0.000360036
0.000338636
0.000350193
0.000305999
0.000313203
0.00039423
0.000320842
0.000193322
0.000140273
0.000104567
7.38473e-05
5.27636e-05
4.02014e-05
3.45606e-05
3.18667e-05
3.05993e-05
2.97027e-05
2.93032e-05
2.95862e-05
2.99798e-05
2.96211e-05
2.88929e-05
2.88617e-05
2.94778e-05
2.99314e-05
2.97991e-05
2.94486e-05
2.87752e-05
2.81819e-05
2.7915e-05
2.81325e-05
2.89203e-05
2.98219e-05
3.01971e-05
3.01114e-05
3.01986e-05
3.14063e-05
3.36189e-05
3.62725e-05
3.96169e-05
4.29977e-05
4.49302e-05
4.84715e-05
5.39629e-05
6.46043e-05
9.06498e-05
0.000104939
0.000105534
9.76762e-05
8.96341e-05
8.13687e-05
7.23731e-05
6.42495e-05
5.62609e-05
4.997e-05
4.47163e-05
4.13994e-05
3.89873e-05
3.78448e-05
3.7412e-05
3.7875e-05
3.88279e-05
3.99563e-05
4.09649e-05
4.18272e-05
4.22282e-05
4.23758e-05
4.25115e-05
4.26533e-05
4.27514e-05
4.27147e-05
4.25473e-05
4.23051e-05
4.19715e-05
4.1593e-05
4.06626e-05
3.99516e-05
3.9295e-05
3.92718e-05
3.95358e-05
4.00774e-05
4.08871e-05
4.14201e-05
4.17351e-05
4.23078e-05
4.45552e-05
4.61104e-05
4.64402e-05
4.60613e-05
4.44624e-05
4.28039e-05
4.14654e-05
4.09276e-05
4.08886e-05
4.14514e-05
4.17083e-05
4.17857e-05
4.24974e-05
4.36195e-05
4.35613e-05
4.41046e-05
4.41611e-05
4.46341e-05
4.42485e-05
4.44822e-05
4.48075e-05
4.58031e-05
4.61384e-05
4.62013e-05
4.69908e-05
4.78051e-05
4.97485e-05
5.131e-05
5.18005e-05
5.29103e-05
5.58622e-05
5.80134e-05
5.92402e-05
6.05637e-05
5.98001e-05
5.9462e-05
6.23335e-05
6.45353e-05
6.47002e-05
6.58836e-05
6.82075e-05
7.02525e-05
7.15108e-05
7.10163e-05
7.12374e-05
7.10605e-05
7.33198e-05
7.95018e-05
8.1989e-05
8.15456e-05
7.96873e-05
8.15076e-05
8.38584e-05
8.31208e-05
7.97389e-05
7.71343e-05
8.56017e-05
0.000101701
0.000118739
0.000153303
0.000175249
0.000176428
0.000174067
0.000176711
0.000184032
0.000183446
0.0001814
0.000174894
0.000159165
0.000149521
0.000144851
0.000149112
0.000153639
0.000164505
0.000162868
0.00015645
0.000180574
0.000183189
0.000173024
0.000183841
0.000194704
0.000180826
0.000183218
0.000202396
0.000209867
0.000193854
0.000242616
0.000278988
0.000245956
0.000222743
0.000295781
0.00031302
0.000280603
0.000291448
0.000311266
0.000354458
0.000327472
0.000349515
0.000316816
0.000306217
0.00030718
0.000349771
0.000215427
0.000142482
9.40106e-05
6.42042e-05
4.5606e-05
3.58112e-05
3.23143e-05
3.09017e-05
3.02644e-05
2.98509e-05
2.97919e-05
2.99568e-05
3.01715e-05
3.01625e-05
3.0147e-05
3.05871e-05
3.1183e-05
3.15089e-05
3.13523e-05
3.06818e-05
2.95071e-05
2.86209e-05
2.83749e-05
2.87405e-05
2.94182e-05
2.98442e-05
3.00616e-05
3.02833e-05
3.06385e-05
3.17447e-05
3.3338e-05
3.57596e-05
3.81608e-05
4.02678e-05
4.30341e-05
4.8092e-05
5.48779e-05
7.32265e-05
9.61334e-05
0.000100669
9.63809e-05
8.44038e-05
7.60126e-05
6.62731e-05
5.84136e-05
5.11129e-05
4.56951e-05
4.17096e-05
3.90197e-05
3.75224e-05
3.66549e-05
3.63722e-05
3.68663e-05
3.79133e-05
3.90811e-05
3.9987e-05
4.06065e-05
4.09329e-05
4.12627e-05
4.16124e-05
4.18878e-05
4.20848e-05
4.22287e-05
4.22513e-05
4.20312e-05
4.16785e-05
4.12752e-05
4.1022e-05
4.01366e-05
3.9258e-05
3.82381e-05
3.79249e-05
3.79789e-05
3.83441e-05
3.91338e-05
3.99509e-05
4.02741e-05
4.02887e-05
4.08801e-05
4.25874e-05
4.4578e-05
4.50859e-05
4.43035e-05
4.26887e-05
4.10779e-05
4.02912e-05
3.99042e-05
4.00963e-05
4.08402e-05
4.09765e-05
4.11545e-05
4.17637e-05
4.1697e-05
4.14444e-05
4.12295e-05
4.12081e-05
4.04934e-05
4.03352e-05
4.0163e-05
4.06739e-05
4.09042e-05
4.08471e-05
4.08774e-05
4.12215e-05
4.25134e-05
4.38482e-05
4.49918e-05
4.48393e-05
4.6462e-05
4.87875e-05
4.93582e-05
5.10128e-05
5.11694e-05
5.04018e-05
5.14773e-05
5.3863e-05
5.4745e-05
5.48849e-05
5.70821e-05
5.78455e-05
5.96326e-05
6.08702e-05
6.31993e-05
6.32109e-05
6.25643e-05
6.58685e-05
7.09401e-05
7.29802e-05
7.28087e-05
7.23215e-05
7.47186e-05
7.64553e-05
7.51678e-05
7.25189e-05
7.82336e-05
9.49617e-05
0.000113216
0.000147061
0.000169111
0.000169604
0.000164515
0.000161808
0.000164982
0.000164962
0.000167351
0.000167335
0.000157889
0.000147895
0.000142532
0.000147825
0.000148797
0.000156628
0.000161042
0.000150785
0.000168521
0.000177984
0.000170221
0.000168648
0.000184158
0.000177121
0.000173019
0.000199915
0.000207331
0.000189792
0.000225541
0.00026677
0.000259267
0.000214885
0.000272993
0.000307985
0.000283299
0.000287862
0.000308546
0.000350695
0.000319814
0.000358371
0.000326557
0.0002904
0.000298661
0.000374055
0.000228566
0.000138292
8.58755e-05
5.60891e-05
3.86402e-05
3.29294e-05
3.15369e-05
3.07967e-05
3.06701e-05
3.08299e-05
3.11915e-05
3.17971e-05
3.23632e-05
3.25452e-05
3.25678e-05
3.28051e-05
3.31833e-05
3.35277e-05
3.36858e-05
3.30754e-05
3.17476e-05
3.041e-05
2.97071e-05
2.94053e-05
2.92722e-05
2.93821e-05
2.97624e-05
3.02427e-05
3.0805e-05
3.18252e-05
3.32625e-05
3.54735e-05
3.7455e-05
3.97865e-05
4.35764e-05
4.90971e-05
6.01271e-05
8.39749e-05
9.53635e-05
9.45076e-05
8.41378e-05
7.26222e-05
6.32475e-05
5.469e-05
4.84145e-05
4.31033e-05
3.99113e-05
3.77621e-05
3.64789e-05
3.58521e-05
3.55863e-05
3.59636e-05
3.69136e-05
3.81422e-05
3.9093e-05
3.96764e-05
4.01904e-05
4.06643e-05
4.11387e-05
4.15455e-05
4.18198e-05
4.19944e-05
4.19992e-05
4.16978e-05
4.11187e-05
4.01185e-05
3.9331e-05
3.91489e-05
3.89087e-05
3.86188e-05
3.79057e-05
3.75805e-05
3.74335e-05
3.75291e-05
3.78544e-05
3.8896e-05
3.96836e-05
3.97671e-05
3.98691e-05
4.00477e-05
4.20797e-05
4.38378e-05
4.40306e-05
4.32022e-05
4.13023e-05
4.01119e-05
3.95757e-05
3.95507e-05
4.02639e-05
4.05423e-05
4.08969e-05
4.1367e-05
4.1336e-05
4.03308e-05
4.0019e-05
3.96513e-05
3.86372e-05
3.82094e-05
3.80486e-05
3.79467e-05
3.79912e-05
3.77083e-05
3.76578e-05
3.77687e-05
3.83431e-05
3.88942e-05
3.99992e-05
4.01865e-05
4.10611e-05
4.28957e-05
4.28302e-05
4.41269e-05
4.4781e-05
4.45807e-05
4.56347e-05
4.77159e-05
4.90993e-05
4.9114e-05
5.12362e-05
5.19088e-05
5.26713e-05
5.31943e-05
5.61888e-05
5.8069e-05
5.8389e-05
5.85165e-05
6.20351e-05
6.50564e-05
6.62943e-05
6.52003e-05
6.69489e-05
7.05149e-05
7.18451e-05
7.01888e-05
7.21868e-05
8.81956e-05
0.000107598
0.000141369
0.000162448
0.000164862
0.000161411
0.00015259
0.000153201
0.000151168
0.000155481
0.000161135
0.000154719
0.0001475
0.000141142
0.000145749
0.000147949
0.000142114
0.000151615
0.000144312
0.000150328
0.00016843
0.000165188
0.000164213
0.000180734
0.000169974
0.000172638
0.000203834
0.000206286
0.000190124
0.000200146
0.000252284
0.000269127
0.000212789
0.000254322
0.000298906
0.000280833
0.000282842
0.000307639
0.000347878
0.000317003
0.000374002
0.000331936
0.000312921
0.00028265
0.000393866
0.000236084
0.000132901
7.6252e-05
4.4799e-05
3.38186e-05
3.18405e-05
3.13513e-05
3.12237e-05
3.20942e-05
3.32831e-05
3.42763e-05
3.4575e-05
3.4705e-05
3.48409e-05
3.50939e-05
3.5439e-05
3.55953e-05
3.55909e-05
3.55932e-05
3.51977e-05
3.48294e-05
3.44634e-05
3.38145e-05
3.2829e-05
3.11261e-05
3.01272e-05
2.99912e-05
3.02172e-05
3.06442e-05
3.14754e-05
3.29861e-05
3.50707e-05
3.72262e-05
4.00309e-05
4.4911e-05
5.22541e-05
7.1049e-05
8.82077e-05
9.08265e-05
8.55044e-05
7.1625e-05
6.19945e-05
5.29717e-05
4.64908e-05
4.18646e-05
3.86507e-05
3.6953e-05
3.58862e-05
3.52954e-05
3.49808e-05
3.51999e-05
3.59355e-05
3.72078e-05
3.8271e-05
3.90042e-05
3.95659e-05
4.00868e-05
4.07348e-05
4.11408e-05
4.1348e-05
4.14408e-05
4.12174e-05
4.04624e-05
3.92643e-05
3.79376e-05
3.67973e-05
3.60674e-05
3.57987e-05
3.59478e-05
3.65976e-05
3.7367e-05
3.75327e-05
3.73333e-05
3.71663e-05
3.72837e-05
3.76146e-05
3.86221e-05
3.90096e-05
3.91899e-05
3.93127e-05
3.99045e-05
4.18605e-05
4.36299e-05
4.35075e-05
4.26578e-05
4.1169e-05
3.98258e-05
3.95431e-05
3.98621e-05
4.04396e-05
4.05619e-05
4.12348e-05
4.1272e-05
4.01929e-05
3.96523e-05
3.92267e-05
3.7822e-05
3.72393e-05
3.70141e-05
3.67825e-05
3.67696e-05
3.63172e-05
3.62918e-05
3.62953e-05
3.64668e-05
3.68721e-05
3.71903e-05
3.75652e-05
3.85082e-05