/*--------------------------------*- C++ -*----------------------------------*\
| =========                 |                                                 |
| \\      /  F ield         | OpenFOAM: The Open Source CFD Toolbox           |
|  \\    /   O peration     | Version:  dev                                   |
|   \\  /    A nd           | Web:      http://www.openfoam.org               |
|    \\/     M anipulation  |                                                 |
\*---------------------------------------------------------------------------*/
FoamFile
{
    version     2.0;
    format      ascii;
    class       volScalarField;
    object      p;
    location    "9.167";
}
// * * * * * * * * * * * * * * * * * * * * * * * * * * * * * * * * * * * * * //

dimensions      [1 -1 -2 0 0 0 0];

internalField   nonuniform List<scalar> 
12225
(
104586
104556
104551
104561
104562
104553
104511
104443
104331
104196
104009
103800
103544
103269
102943
102580
102246
101600
104577
104548
104544
104555
104556
104547
104506
104438
104326
104192
104004
103797
103541
103269
102946
102597
102243
101697
104558
104532
104530
104540
104543
104534
104493
104427
104315
104184
103995
103789
103536
103266
102950
102611
102247
101680
104528
104505
104505
104516
104520
104512
104472
104407
104297
104166
103982
103776
103526
103260
102956
102630
102271
101769
104485
104466
104468
104480
104485
104477
104440
104377
104269
104139
103960
103756
103514
103245
102969
102648
102314
101916
104426
104411
104414
104427
104434
104428
104392
104331
104228
104100
103928
103728
103495
103232
102984
102673
102358
101994
104346
104335
104339
104354
104363
104359
104326
104269
104171
104046
103883
103689
103466
103212
102991
102686
102400
102081
104261
104249
104254
104272
104282
104281
104252
104197
104107
103985
103832
103644
103432
103189
102983
102689
102428
102142
104167
104156
104162
104182
104195
104197
104172
104120
104036
103920
103775
103594
103392
103163
102962
102687
102447
102190
104036
104031
104040
104063
104079
104084
104064
104017
103941
103831
103696
103525
103335
103124
102924
102677
102456
102226
103866
103866
103880
103905
103925
103933
103920
103879
103811
103712
103587
103430
103256
103064
102870
102653
102447
102242
103644
103646
103666
103694
103720
103733
103727
103694
103637
103550
103439
103299
103144
102972
102792
102603
102416
102234
103348
103354
103379
103412
103446
103466
103470
103447
103402
103331
103236
103117
102983
102834
102677
102514
102351
102193
102951
102966
102999
103039
103080
103110
103126
103119
103089
103036
102962
102867
102758
102635
102505
102370
102235
102105
102425
102454
102496
102545
102596
102639
102670
102682
102672
102641
102591
102525
102444
102352
102253
102150
102047
101947
101759
101790
101840
101900
101962
102021
102069
102103
102118
102114
102094
102058
102011
101954
101891
101824
101757
101691
100883
100933
100995
101067
101145
101220
101289
101346
101390
101419
101433
101434
101424
101407
101384
101357
101329
101302
99898
99947.1
100017
100100
100192
100285
100374
100456
100528
100589
100638
100677
100707
100730
100747
100761
100773
100784
98937.7
98994.8
99070.4
99162.2
99264.4
99371.3
99478
99580.5
99676.3
99763.9
99842.9
99913.9
99977.7
100035
100087
100136
100183
100228
98112.1
98170.5
98251.2
98349.5
98459.9
98577
98696.1
98813.7
98927.2
99034.9
99136.4
99231.7
99321.7
99406.8
99487.2
99564
99638.1
99710.6
97417.3
97482.6
97569.2
97673.2
97789.8
97913.8
98041.5
98169.9
98296
98418.7
98536.9
98650.5
98759.9
98865.7
98968.1
99066.9
99162.8
99256.8
96867.5
96932.2
97021.7
97129.3
97249.6
97378.4
97512
97647.6
97782.9
97916.3
98046.8
98174
98298
98418.9
98537.4
98653.2
98766.2
98876.9
96432.8
96503.4
96595
96704.8
96827.4
96959.1
97096.5
97237
97378.6
97519.6
97659.1
97796.3
97931
98063.3
98193.4
98321.6
98447.4
98570.9
96115.1
96179.8
96271.6
96382.3
96506.4
96639.9
96779.8
96923.6
97069.5
97215.9
97361.7
97506.2
97648.8
97789.5
97928.1
98065
98200
98333
95875.6
95940.7
96032.9
96144.3
96269.4
96404.1
96545.6
96691.7
96840.5
96990.6
97140.9
97290.5
97438.8
97585.5
97730.5
97873.6
98015
98154.6
95703.3
95769.6
95862.3
95974.4
96100.2
96235.7
96378.3
96525.8
96676.7
96829.4
96982.8
97135.9
97288.2
97439.2
97588.6
97736.3
97882.1
98026.1
95585
95652.5
95745.3
95858
95984.4
96120.6
96264
96412.6
96564.7
96719.1
96874.6
97030.2
97185.1
97339
97491.4
97642.3
97791.3
97938.3
95512.9
95577.1
95669.7
95783.1
95910.2
96046.9
96190.9
96340.1
96493.1
96648.7
96805.5
96962.6
97119.3
97274.9
97429
97582.1
97733.4
97882.2
95468.9
95533.1
95625.9
95740.1
95867.9
96005.1
96149.4
96299.1
96452.5
96609
96766.4
96924.3
97081.9
97238.6
97394
97548
97700.3
97850.4
95456.7
95516.4
95607.1
95721.5
95849.6
95987
96131.6
96281.5
96435.2
96591.8
96749.6
96907.9
97065.9
97223.1
97379
97533.4
97686.2
97836.9
91426.3
91432.6
91445.3
91464.6
91492.6
91529.1
91574
91627.3
91688
91758.3
91833.1
91914.1
92001.3
92095.4
92196.4
92304.1
92418.6
92540.4
92669.5
92805.6
92948.9
93099.2
93256.1
93419.5
93589
93764.4
93945.5
94131.5
94322.1
94516.4
94714.4
94916.1
95119.8
95325.5
95533.4
95743.5
95956
96170.4
96385.7
96601.1
96815.7
97029.4
97239.4
97445.1
97648.7
97848.5
98042.4
98232.1
98420.8
98607.2
98787.8
98961.5
99128.5
99291.3
99453.8
99614.3
99768.7
99916.6
100059
100196
100329
100458
100584
100705
100823
100936
101045
101149
101248
101341
101429
101511
101588
101658
101723
101782
101835
101883
101924
101960
101991
102013
102030
102039
102042
102037
102025
102003
101973
101934
101884
101824
101751
101665
101565
101450
101317
101166
100999
100816
100618
100408
100186
99952.8
99710.2
99459.3
99204.9
98942.7
98677.6
98411.2
98145
97880.3
97618.2
97359.6
97105.3
96856.7
96614.9
96381.5
96158.1
95946
95745.7
95554.6
95372
95197.3
95030.7
94868.3
94705.8
94544.3
94384.6
94224.3
94063.7
93902.3
93738.8
93569.8
93392.3
93203.6
93002.9
92791.7
92573.9
92354.3
92135.3
91917
91697.7
91477.8
91256.1
91032.4
90809
90576.9
90337.2
90084.8
89809.5
89516.9
89213.9
88885.5
88532.9
88110.7
87661
87194.1
86692.9
86189.6
85701.9
85178.9
84659.4
84174.2
83714.3
83299.6
82959.3
82716.6
82575.9
82535.8
82618
82817.6
83128.8
83580.8
84165.6
84906.4
85765.8
86743.1
87590
88547.1
91468.7
91475.6
91490.4
91513.6
91543.5
91581.2
91626.6
91679.9
91740.6
91807.9
91881.6
91962
92048.6
92141.8
92241.9
92348.9
92462.8
92583.9
92712.3
92847.7
92990.3
93139.7
93295.8
93458.5
93627.1
93801.8
93982
94167
94357.2
94549.5
94746.1
94945.6
95147.5
95352.3
95559.9
95769.5
95979.3
96190.5
96403.6
96617.3
96829.9
97042
97250.9
97453.8
97654.1
97852
98043.8
98230.8
98416.3
98601
98782.9
98957.9
99120.5
99277
99434.3
99593.4
99745.2
99891.3
100032
100168
100299
100427
100551
100671
100787
100900
101007
101109
101207
101299
101386
101468
101543
101613
101677
101735
101787
101834
101874
101909
101938
101962
101978
101986
101988
101982
101968
101946
101915
101875
101825
101763
101689
101603
101502
101387
101255
101105
100940
100757
100560
100351
100129
99896.2
99654.3
99404.6
99149
98888
98623.9
98358.4
98093.1
97829.3
97568.1
97310.3
97057
96809.3
96568.4
96335.8
96113.7
95902.8
95703.2
95513.9
95333.1
95159.9
94994.3
94831.9
94671.8
94514.9
94358.1
94200
94041.8
93883.8
93724.1
93559.2
93386.1
93201
93003.6
92795.3
92579.9
92363.3
92149.5
91937.1
91722.8
91508
91293.1
91078
90862.3
90628.2
90393.3
90146.8
89878.3
89589.9
89289.3
88965.8
88620.6
88200.1
87754.8
87292.5
86788
86288.2
85810.4
85286.8
84766.5
84286
83824.4
83402.9
83058
82815.3
82673.8
82627.6
82708.3
82904.7
83206
83648.9
84227.4
84968.9
85823.7
86785.1
87647.3
88585.6
91579.9
91586.9
91601.1
91623
91652.4
91689.2
91733.2
91784.3
91842.4
91907.2
91978.5
92056.4
92141.1
92232.5
92330.7
92436.2
92548.9
92668.6
92795.5
92929.5
93070.6
93218.4
93372.9
93533.9
93701.1
93873.7
94051.2
94233.7
94420.6
94612.9
94808.4
95006.5
95206.5
95409.2
95613.7
95818.3
96024
96233.6
96444.5
96654.7
96862
97068.2
97273
97471.2
97663.5
97853.3
98043
98232.2
98414.8
98588.4
98760
98932.1
99093.4
99251.9
99405.8
99556.5
99702.7
99844.2
99981.1
100114
100242
100367
100487
100604
100717
100825
100931
101032
101127
101218
101303
101382
101456
101524
101586
101643
101693
101738
101777
101810
101838
101859
101875
101882
101882
101875
101859
101835
101802
101760
101708
101645
101568
101482
101380
101264
101132
100985
100821
100640
100444
100235
100015
99782.8
99542.1
99293.5
99038.7
98778.9
98516
98251.8
97987.8
97725.4
97466
97210.2
96958.8
96712.7
96473.7
96243.7
96024.7
95816.9
95620.2
95433.9
95257.4
95087.6
94923.5
94763.9
94610.7
94460.1
94308.8
94155.9
94002.1
93849.2
93695.4
93537.7
93372.6
93196.2
93005.8
92804.1
92595.2
92386.2
92182.3
91979.7
91774.5
91570.6
91362.5
91152.5
90941.3
90724.5
90501.9
90268.3
90014.3
89737.3
89439.6
89121.1
88788.6
88377.5
87939.9
87488.7
86980.9
86479.4
86007.9
85496.4
84981.4
84518.4
84060.4
83622.9
83265.4
83023.5
82882.1
82826.1
82903.6
83093.8
83377.5
83800.5
84361.4
85096.6
85943.6
86884.3
87776.2
88662
91740.6
91747.8
91762.4
91784.3
91813.1
91848
91889.2
91936.9
91991.4
92052.9
92121.1
92196.3
92278.7
92367.7
92463.3
92566.4
92676.9
92794.4
92919.3
93051.4
93190.2
93335.8
93488
93646.3
93810.8
93980.9
94155.9
94336.2
94521.4
94710.5
94901.9
95096.7
95294.4
95493.6
95694.3
95896.9
96101
96303.8
96507.8
96712
96913.9
97113.5
97309.5
97500.8
97686.5
97865.1
98044.9
98227.5
98406
98577.7
98744.1
98906
99062.2
99214.1
99361.6
99504.7
99643.9
99779.1
99910.1
100037
100160
100280
100397
100509
100618
100723
100824
100920
101012
101099
101181
101258
101329
101394
101454
101508
101556
101599
101636
101666
101691
101710
101723
101729
101728
101717
101699
101673
101637
101593
101539
101473
101396
101306
101203
101086
100954
100808
100646
100467
100273
100066
99847.3
99617.3
99378
99131.3
98878.2
98620.4
98359.4
98096.8
97834.8
97574.6
97317.6
97064.3
96815.7
96572.7
96337.1
96110.9
95896.6
95693.5
95501.5
95320.2
95149.7
94987
94832.3
94677.7
94529.2
94384.2
94240.8
94096.1
93949.2
93802.9
93656.6
93507.8
93353.4
93189.2
93010.4
92819.6
92622.1
92426
92235.7
92046.4
91854.4
91663.2
91469.4
91270.2
91067
90871.4
90665.7
90451.2
90215.2
89958.1
89665.8
89351.6
89031.8
88639.4
88209.9
87774.5
87271
86753.2
86277.2
85789.9
85287.6
84847.8
84419.2
83964.3
83583.5
83343.3
83206.4
83134.5
83198.3
83381.2
83644.6
84040.9
84576.8
85299.6
86131.1
87061.1
87973.2
88798.9
91950.8
91958
91972.3
91993.1
92019.5
92051.5
92089.5
92134.1
92185.5
92244.1
92309.8
92382.4
92461.6
92547.1
92639.4
92739.4
92847.1
92962.2
93084.3
93213.4
93349.5
93491.9
93640.6
93795.2
93955.6
94121.7
94292.5
94468.4
94649.9
94835.5
95024.7
95216.3
95408.5
95602.3
95798.2
95995
96192.1
96391.7
96590.5
96786.7
96981.9
97177.6
97365
97543.7
97721.8
97898.9
98067.8
98240.6
98405.3
98566.6
98723.7
98875.9
99023.3
99166.3
99304.9
99439.6
99570.4
99697.5
99820.8
99940.4
100057
100170
100281
100386
100489
100589
100685
100776
100863
100946
101023
101096
101163
101225
101281
101333
101378
101418
101452
101479
101502
101518
101527
101530
101527
101513
101492
101462
101424
101376
101319
101251
101172
101080
100976
100858
100725
100579
100419
100244
100052
99847.6
99630.6
99402.7
99165.8
98921.6
98671.2
98416.2
98158.2
97898.9
97639.9
97382.8
97129.1
96879.3
96635
96396.5
96165.5
95944.5
95735.5
95538.2
95352.2
95177.3
95013
94857.1
94707.3
94564.2
94425.1
94289.1
94155.6
94022.1
93886
93748.6
93611.9
93474
93333
93184.1
93020.3
92844.1
92662.6
92484.8
92310.9
92138.5
91963.6
91795.5
91611.7
91437
91259.5
91079.9
90890.4
90696.7
90482.1
90250.5
89974.1
89668.5
89357.6
88989.6
88566
88147.4
87667.4
87125.5
86648
86180.5
85680.6
85242.8
84868.8
84419.3
84013.5
83771.7
83650.7
83554.3
83583.5
83756
84003.7
84371.9
84876.5
85587.5
86382.6
87312.2
88199.7
89017.3
92205.6
92212.3
92225.5
92244.2
92268.2
92297.6
92333.2
92375.6
92424.9
92481
92543.8
92612.9
92687.8
92768.8
92857.6
92954.7
93059.6
93171.1
93289.1
93414.6
93547.5
93686.4
93830.6
93979.9
94134.1
94293.6
94458.7
94630
94806.4
94986.3
95170.7
95356.7
95545.1
95734.9
95924.9
96115.9
96308.1
96498.4
96687.8
96877
97065.7
97249.5
97428.1
97598.4
97765.3
97929.9
98092.4
98250.4
98404.2
98554.4
98700.2
98841.3
98977.9
99110.1
99238.3
99362.6
99483.5
99600.8
99714.5
99825.1
99932.5
100037
100137
100237
100334
100426
100516
100601
100682
100759
100831
100899
100962
101019
101072
101119
101160
101196
101227
101251
101270
101282
101290
101290
101283
101265
101241
101208
101166
101115
101054
100983
100901
100807
100701
100582
100449
100303
100144
99971.2
99784.1
99582.9
99369.2
99144.6
98911.1
98670.1
98423
98171.3
97917.2
97662.4
97407.8
97155.3
96906.3
96661.4
96421.5
96188.6
95964.6
95751.2
95549.9
95360.5
95181.6
95013.8
94856.3
94708
94566.1
94435.4
94308.9
94183.4
94060.9
93939.3
93817.1
93692.5
93566.9
93441.8
93316.4
93185.6
93040.7
92882.7
92719.6
92557.7
92403.5
92252.7
92101.7
91951.4
91795.2
91644.6
91497.3
91344.4
91178.4
91009.3
90819.2
90613.1
90371.7
90074.9
89775.8
89439.6
89013.2
88603.3
88167.5
87625
87148.2
86694.8
86177
85713.3
85380.8
84967.6
84549.7
84297
84205.7
84083.2
84065.4
84219.4
84456.1
84793.9
85264.2
85965.1
86707.2
87637.7
88471.2
89322.6
92501.8
92507.4
92519.4
92536.1
92557.9
92585.4
92619.3
92659.7
92706.7
92759.9
92819
92883.6
92954
93031.8
93118.1
93212.1
93312
93417.9
93531.5
93653.5
93782.3
93916.4
94055.2
94198.5
94346.4
94498.6
94655.7
94820
94990.6
95165
95342.6
95523.7
95705.9
95887.8
96069.6
96251.1
96432
96613.5
96797
96978.3
97159
97328.9
97492.3
97654.8
97812.9
97966.8
98116.7
98262.3
98403.7
98541.1
98674.4
98802.9
98927.1
99047.1
99163
99275.5
99384.8
99490.7
99593.5
99693.6
99790.9
99885.5
99977.8
100068
100155
100240
100322
100400
100474
100544
100610
100671
100728
100781
100828
100871
100908
100939
100964
100984
100998
101006
101009
101005
100995
100975
100947
100911
100867
100813
100749
100674
100588
100491
100382
100262
100129
99983.4
99825.5
99654.5
99471.5
99274.5
99065.1
98844.8
98616.2
98380.2
98138.2
97891.7
97642.4
97393
97143.7
96896.3
96653.2
96414.4
96180.4
95954.3
95738.6
95535.7
95343.8
95163.8
94994
94835.5
94687.5
94549.1
94419.8
94297.8
94181.9
94070.1
93960.7
93853.7
93746.4
93638.1
93527.3
93416.6
93308.6
93198.4
93076.3
92940.9
92800.1
92662.8
92530
92402.3
92269.8
92139.6
92018
91899.5
91786.1
91667.3
91531.5
91394.7
91238.7
91056.8
90861.1
90575
90293.7
89999.9
89563.2
89152.3
88755.2
88244.4
87761.1
87322
86796.7
86314.5
85969.8
85601.7
85188.5
84909.5
84848.8
84715.1
84652
84780.2
85005.1
85307.2
85741.3
86429.5
87112.4
88047.9
88797.1
89632.1
92836.8
92841.5
92851.8
92866.8
92887
92912.8
92945
92983.4
93027.5
93077.2
93132.3
93193.2
93260.8
93335.9
93418.1
93506.4
93600.4
93701.5
93811.2
93928.7
94052.1
94180.3
94312.5
94448.2
94587.5
94731.7
94882.3
95040.4
95204.3
95371.9
95542.9
95713.3
95885.4
96057.9
96231
96403.4
96575.2
96746.6
96916.6
97088.6
97254.2
97415.1
97569.8
97720.3
97866
98006.9
98144.1
98276.2
98404.2
98527.9
98647.1
98761.8
98872.3
98978.8
99081.4
99180.8
99277.4
99370.8
99461.4
99550
99636.1
99719.9
99802
99882
99959.9
100035
100108
100177
100243
100306
100364
100419
100470
100516
100557
100594
100626
100652
100672
100686
100695
100696
100692
100683
100669
100646
100616
100577
100529
100473
100407
100330
100241
100140
100028
99905.5
99771
99625.7
99468.3
99299.2
99119.4
98927
98722.8
98508.3
98285.5
98055.6
97819.7
97580
97337.4
97093.9
96850.7
96609.6
96373.6
96141.9
95916.1
95700.4
95496.1
95305.1
95124
94954.4
94795.2
94646.9
94510.6
94383.3
94263.2
94157.1
94054
93954.9
93861.2
93770.4
93681.2
93590.3
93497.9
93404.7
93316.1
93229.3
93133.3
93024
92909.3
92800.2
92692.2
92589.6
92485.1
92381.1
92294.6
92209
92129.9
92051.9
91955.8
91852.6
91735.3
91586.5
91437.7
91177.4
90907.2
90659.5
90230
89819.8
89436.2
88965.2
88493.8
88042.1
87542.2
87078.2
86680.3
86335.2
85933
85620.2
85559.7
85437.1
85343.8
85443.4
85650.8
85912.4
86310.8
86978.8
87610.3
88540.5
89193.9
89937.1
93208.6
93212.5
93221.2
93234.5
93253.1
93277.3
93307.3
93342.9
93383.8
93429.9
93481.7
93539.8
93604.2
93674.8
93752
93835.5
93925.8
94023
94126.7
94236.3
94351.3
94471.3
94595.9
94724.6
94857.3
94994.9
95138.6
95288.2
95442.3
95599.4
95758.4
95921.3
96085.6
96250.1
96413.1
96574.4
96735.2
96895.3
97055.2
97214.3
97367.4
97513.9
97655.7
97792.8
97924.8
98051.9
98174.4
98292.6
98406.5
98515.6
98620
98719.8
98816
98908.1
98996.3
99081.8
99164.5
99244.5
99322.2
99397.9
99471.6
99543.7
99614.4
99683.5
99750.9
99816.2
99879.1
99939.1
99996.2
100050
100100
100147
100190
100229
100264
100295
100321
100341
100356
100365
100367
100364
100353
100337
100314
100288
100253
100210
100159
100099
100030
99951.8
99861.9
99760.4
99646
99520.7
99383.9
99237.4
99080.3
98913.1
98734.8
98546.1
98346.4
98138.1
97922
97699.7
97470.7
97237.7
97003.6
96768.6
96533.8
96301
96074.4
95851.5
95637.7
95435.7
95244.2
95064.9
94896.7
94739.3
94592.9
94458.1
94335.3
94221.4
94114.4
94022.1
93933.9
93848.8
93769.4
93695.2
93626.7
93557.7
93486
93413.5
93345.3
93283.2
93217.1
93138
93052.4
92971.1
92895
92822.5
92752.2
92687.8
92632.1
92580.3
92534.8
92493.5
92441.6
92377.3
92300.5
92183.1
92076.5
91873.3
91615.3
91397.6
91010.9
90613.4
90225.8
89792.9
89351.4
88868.8
88410.9
87974.7
87522.5
87167.9
86785.3
86454.9
86347.4
86243.7
86138.5
86211.2
86391.9
86609.9
86972.4
87609.3
88216.4
89077.7
89621.5
90301.1
93614.4
93617.1
93624.4
93636.1
93652.8
93674.9
93702.4
93734.8
93772.3
93815
93863.2
93917.3
93977.3
94043.7
94116.6
94195.3
94279.3
94369
94464.7
94565.8
94672.8
94785.3
94902.7
95024.6
95150.8
95281.8
95417.8
95558.5
95703
95850.1
95998.9
96152.6
96306.4
96458.8
96609.2
96758.4
96907.3
97056.2
97205.4
97351.2
97489.3
97621.7
97749.5
97872.1
97989.5
98102.1
98210.2
98313.7
98412.4
98506.2
98595.1
98679.4
98759.7
98836.5
98910
98980.8
99049
99114.7
99178.4
99240.4
99301.1
99360.6
99419.2
99476.7
99532.9
99587.5
99640
99689.9
99737.2
99781.4
99822.7
99860.9
99895.5
99926.8
99954.4
99977.9
99997.1
100011
100020
100023
100021
100012
99995.9
99973.5
99942.9
99910.5
99869.5
99821.8
99766.4
99702.4
99629.1
99546.4
99455
99352.3
99238.1
99112.4
98975.3
98827.3
98670.4
98504.9
98328.7
98142.6
97947.1
97744.4
97534.6
97319.9
97100
96874.1
96647.2
96422.2
96197.5
95976.2
95761.9
95552.8
95354.3
95166.5
94988.3
94820.8
94665.5
94521.4
94390.1
94274.6
94173.2
94064.1
93974.2
93894.6
93825.4
93759.4
93697.4
93640.8
93591.7
93546.5
93498.7
93449.3
93404
93367.8
93334.1
93289.2
93234.9
93176.8
93140.6
93097.2
93069.5
93050.9
93034.4
93023.8
93013.2
93005.8
92993.6
92965.9
92935.4
92849.3
92767.5
92640.9
92418.6
92212.6
91888.4
91524.5
91135.6
90738.4
90317.5
89824.2
89415.5
88983.4
88478.4
88091.5
87742.3
87426.8
87238.3
87143.7
87037.8
87085.3
87229.4
87400.1
87725.3
88318.1
88909.1
89674.4
90104.3
90734.3
94051.3
94053
94058.8
94068.8
94083.6
94103
94127.4
94156.2
94189.5
94227.5
94271
94319.9
94374.1
94434.2
94500.1
94571.4
94648.4
94731.2
94819.9
94914.2
95014
95119.4
95229.8
95344.6
95463.6
95587
95714.6
95846.2
95981.3
96119.2
96259.4
96399.4
96539.4
96678.6
96816.7
96954.4
97092.3
97230.8
97367.5
97497.5
97620.2
97738
97850.9
97958.4
98060.9
98158.6
98251.7
98339.8
98422.8
98500.6
98573.4
98641.8
98706.2
98767.4
98825.6
98881
98934
98984.7
99033.7
99081.6
99128.3
99174.7
99220.6
99266
99310.5
99353.7
99395.3
99434.7
99471.6
99505.9
99537.6
99566.7
99592.7
99615.6
99635.2
99651.1
99663.1
99670.3
99672.2
99668.6
99659.9
99645
99624
99596.1
99561.3
99519.5
99472.9
99418.4
99357.5
99289.2
99212.7
99126.5
99031.3
98925.9
98810.2
98684
98548.6
98402.1
98246.5
98082.2
97910.1
97727.9
97537.6
97341.4
97138
96929.1
96718.1
96502.5
96284.6
96068.9
95855.5
95648.4
95446.5
95253.2
95071.6
94897.6
94733.5
94580.3
94440.2
94311
94191.2
94087
93997
93914.9
93845.4
93781.1
93731.1
93687.3
93647.3
93611.9
93582.7
93561.4
93541.7
93518.5
93499.9
93490.5
93490.1
93483.6
93465.3
93443.6
93428.5
93432.7
93444.2
93469.5
93498.3
93541
93573.3
93604.9
93631.9
93634.1
93644.3
93600.3
93536.3
93471.1
93301.3
93114.3
92852.1
92535.6
92164.5
91799
91388.8
90911.9
90551.4
90094
89546.4
89117.3
88815
88535.6
88250.8
88137.5
88033.7
88063.1
88164.4
88283.8
88567.9
89110.8
89684.2
90332.5
90687.1
91230.5
94516.8
94517.1
94521.4
94529.6
94542
94558.4
94578.9
94603
94631
94663.6
94700.8
94742.9
94790.3
94843.5
94902.3
94966.6
95036.5
95112.1
95193.6
95280.6
95373.4
95471.4
95574.2
95681.1
95792.1
95906.8
96025.1
96147
96272
96399.7
96528.7
96656
96783
96910
97037
97164
97291.4
97417.7
97538.8
97652.3
97759.6
97862.5
97960
98052.3
98139.7
98222.2
98299.7
98372
98438.9
98500.5
98557.1
98609.4
98658
98703.3
98745.7
98785.2
98822.3
98857.5
98891.3
98924.3
98957.3
98990.2
99023.1
99055.8
99088
99119.5
99149.8
99178.4
99204.7
99228.7
99250.6
99270.3
99287.4
99301.7
99313.3
99321.4
99326
99326
99321.2
99310.6
99294.8
99272.9
99245.4
99211
99170.1
99122.7
99069.1
99008.9
98941.5
98867.6
98786.2
98696.8
98598.9
98491.3
98373.9
98247.2
98111.3
97966.8
97813.9
97652
97484.1
97307.4
97124.1
96934.9
96739.9
96539.5
96336.6
96132.2
95927.6
95722.2
95520.4
95326.3
95138
94960
94794.6
94634.4
94486
94348.9
94226.3
94115.8
94010.3
93914.7
93833.6
93780.5
93734.8
93691.9
93660
93638.3
93623.1
93611.3
93605.3
93608.1
93619.3
93626.7
93636.8
93656.9
93690.3
93725.2
93748
93764.9
93792.1
93833.5
93885.9
93953.4
94024.8
94122.5
94206.1
94283
94353.9
94391.1
94437.4
94443.5
94411
94379
94258.3
94104.7
93903.2
93635.4
93298.9
92965.7
92569
92127.7
91793
91295.6
90728.1
90284.2
90032.5
89768.6
89397.9
89221.1
89119.6
89142.4
89196.9
89259.3
89497.9
89994.4
90525.6
91032.7
91332.4
91808.7
95007.4
95006.2
95008.8
95014.6
95024.1
95036.4
95052.4
95070.9
95093.2
95121
95151.8
95187.6
95228.5
95274.9
95326.3
95383
95444.9
95512.3
95584.9
95663.1
95746.9
95836
95929.9
96028.1
96129.9
96235.7
96344.9
96457.1
96571.9
96689.4
96808
96922.1
97037.5
97153.6
97270
97386.4
97501.8
97613.1
97717.4
97814.7
97907.2
97994.9
98077.1
98154.2
98226.3
98293.4
98355.1
98411.4
98462.1
98507.5
98548.1
98584.4
98617
98646.2
98672.4
98695.8
98717
98736.7
98755.5
98774
98792.6
98811.5
98830.8
98850.5
98870.3
98890.1
98909.2
98926.9
98942.8
98956.3
98968
98978
98986.1
98991.6
98994.9
98995.1
98992.1
98984.7
98972.5
98955.2
98932.1
98903.5
98868.7
98827.7
98780.3
98726.5
98666.3
98600.1
98526.5
98447.2
98360.7
98266.4
98165.1
98055.5
97936.7
97810.4
97674.8
97531.2
97380.6
97222.8
97058.5
96887.7
96712
96530.3
96344.2
96154.2
95960.6
95767.8
95576.9
95384.4
95196.4
95015.6
94841.6
94678.4
94526.2
94382.5
94252.7
94131.9
94025.8
93936.2
93850
93774.9
93711.1
93676
93650.5
93632.7
93621.7
93621.9
93633.5
93647.7
93667.5
93695.6
93737.4
93780.1
93821.4
93873.2
93941.1
94020.5
94088.7
94149.1
94216.2
94301.1
94397.9
94512.5
94625.9
94765.2
94905.3
95026.2
95145.7
95224.5
95307.8
95366
95381.3
95377.9
95300.4
95186.7
95040.3
94823.1
94527.3
94229.7
93854.2
93459
93119
92594.5
92040.5
91637.6
91403.6
91098.4
90682.6
90394.9
90301.2
90323.5
90327.1
90326.7
90509.9
90963
91400.5
91790.3
92045.6
92462.8
95520.2
95516.6
95517.5
95520.6
95526
95534
95545.1
95558.8
95576.1
95597.1
95622.3
95651.9
95686
95724.7
95767.8
95815.9
95869
95927.4
95990.8
96059.1
96133.1
96212.1
96296.1
96384.6
96477.2
96573.3
96672.2
96773.5
96876.5
96980.5
97082.6
97191.6
97299.9
97407.1
97513.5
97618.2
97719.2
97814.1
97902.2
97984.6
98062.4
98135
98202.1
98264.1
98321
98372.6
98418.6
98458.8
98493.5
98523
98547.8
98568.3
98585
98598.3
98608.5
98616.2
98621.8
98626.1
98629.8
98633.6
98637.8
98642.9
98649
98656.1
98663.6
98671.6
98679.7
98686.9
98692.4
98695.7
98697.3
98697.3
98695.9
98693.2
98688.4
98680.7
98669.6
98655
98635.2
98610.5
98579.8
98544
98502
98454.1
98400.1
98339.8
98272.6
98200
98120.5
98035.2
97944.4
97845.5
97740.4
97628.3
97507.9
97381
97247
97105.5
96957.1
96803.2
96643.2
96477.1
96308.4
96135.6
95958.1
95779.1
95596.8
95416
95237.5
95059.3
94886.7
94720.6
94562.7
94415.4
94274.9
94149.1
94041.2
93937.6
93848.5
93769.8
93705.8
93659.3
93626.1
93607.2
93601.6
93608.4
93622.4
93645.8
93683.5
93727.6
93775.8
93832.4
93903.1
93982.9
94061.3
94146.1
94247.9
94372.5
94489.8
94601.2
94711.2
94839.2
94978
95144.5
95308.5
95478.8
95669.5
95835.6
96009.3
96140.6
96261
96357.1
96424.3
96465.5
96435.2
96366
96266
96098
95845.1
95584
95237.7
94887.1
94527.6
94005.3
93513.4
93163.9
92887.4
92513
92102.5
91690.9
91601.7
91608.6
91553.2
91487.5
91614.9
91994.9
92333.1
92631.8
92834.8
93157.7
96051.7
96045.2
96043.9
96043.6
96044.9
96048.4
96054.4
96062.7
96074.1
96088.7
96106.9
96128.9
96154.7
96184.6
96219.1
96258.6
96303.2
96352.6
96406.9
96466.1
96530.3
96599.5
96673.5
96752.1
96834.5
96920.4
97008.9
97099.3
97190.9
97283.6
97380.8
97478.5
97575.6
97671.4
97765.2
97855.5
97940.6
98019.7
98092.9
98161.2
98224.5
98282.3
98334.7
98381.9
98423.7
98459.9
98490.4
98515.1
98534.3
98548.5
98557.9
98563
98564.3
98562.1
98556.9
98549
98539.5
98528.8
98518.1
98507.6
98498.1
98489.9
98483.1
98477.7
98473
98469.3
98466.5
98463.2
98458.7
98451.9
98443.8
98434.4
98423.5
98412.1
98399.3
98384.5
98365.8
98343.5
98316.7
98284.8
98247
98203.7
98154.7
98099.6
98038.7
97971.3
97898
97819.1
97733.8
97642.2
97546.3
97443.4
97334.3
97219.8
97098.1
96970.2
96837.3
96698.4
96553.1
96402.6
96247.2
96086.9
95924.3
95759.7
95591.5
95422.8
95253
95085.7
94918.8
94755.2
94598.7
94448.2
94307.8
94178.2
94051.8
93942.4
93847.3
93771
93693.7
93633
93600.9
93578.4
93575.8
93576.3
93594.6
93626.2
93668.8
93720
93780.4
93856.6
93936.8
94023.8
94124.3
94240
94359.8
94481.4
94617.3
94783.9
94954.1
95118.9
95280.1
95453.5
95631.9
95845.7
96062.7
96274.4
96506.7
96715.8
96942.2
97136.6
97304.1
97434.7
97544.2
97635.4
97654
97626.6
97575.6
97453.9
97246
97020.4
96706.5
96394.4
96023.9
95527.7
95140.3
94790.4
94442.7
94024.4
93638
93153.2
93041
92990.1
92868.8
92738
92809.5
93091.9
93358.2
93562.9
93696.1
93905.9
96598.3
96591
96586.3
96581.9
96578.2
96575.8
96574.9
96575.9
96579.8
96586.3
96596.1
96609.5
96626.8
96648.6
96675.1
96706.4
96742.4
96783.3
96828.9
96879.3
96934.5
96994.3
97058.7
97127.5
97200
97275.8
97354
97434
97514.2
97600.7
97686.9
97772.8
97857.3
97939.9
98019.5
98094.9
98165
98229.7
98289.2
98343.8
98392.9
98436.5
98474.7
98507.5
98534.6
98555.9
98571.5
98581.3
98585.8
98585.2
98579.9
98570.3
98556.8
98539.7
98519.7
98497.3
98473.7
98449.2
98424.8
98400.9
98378
98357
98337.6
98320
98303.5
98288.1
98274.7
98261.4
98247.7
98232
98214.5
98196.3
98176.3
98156.2
98135.1
98112.8
98087.6
98057.7
98023.7
97984.5
97940.3
97890.3
97834.7
97773.2
97705.8
97632
97552.5
97467.4
97376.7
97279.8
97178.3
97070.9
96958.3
96840.9
96717.5
96588.9
96456.7
96320.1
96178.2
96031.3
95879.7
95725.8
95569.7
95412.4
95254.4
95095.7
94938.1
94784.5
94629.3
94481.5
94341.4
94207.7
94084.4
93973.7
93863.4
93774.3
93694.9
93632
93589.8
93557.4
93543
93545.1
93564.8
93592.4
93636
93694.6
93765.9
93848.9
93935
94041
94156.4
94275.3
94406.1
94558.3
94718.7
94881.6
95054.6
95257.7
95483.6
95703.6
95916.4
96144.1
96362.4
96616.9
96883.5
97145.6
97419.7
97662.7
97930.1
98190.4
98413
98593.3
98739.5
98872.8
98938.7
98947.2
98946.1
98871
98714.3
98525.2
98244.1
97966.1
97598.8
97147.9
96863.1
96463.8
96061.9
95619.5
95225.5
94779.7
94611.5
94449.4
94257.6
94066.9
94079.7
94263.4
94486.3
94567.3
94611
94711.5
97161.8
97152.8
97144.1
97134.2
97123.6
97113.1
97103.2
97094.9
97089.4
97086.8
97087.6
97092.2
97101.1
97114.5
97132.5
97155.1
97182.4
97214.6
97251.8
97293.7
97340.3
97391.6
97447.2
97506.5
97569.3
97635.5
97704.6
97776.9
97852
97923.7
97996.2
98068.7
98140
98209
98274.6
98335.9
98392.4
98443.9
98490.3
98531.5
98567.1
98597.1
98621.7
98640.6
98653.7
98661
98662.4
98658.3
98648.9
98634.4
98615.2
98591.8
98564.3
98533.5
98500
98464.3
98427.3
98390
98352.9
98316.6
98281.2
98248.1
98217.1
98188
98160.6
98134.3
98110.3
98087.3
98064.7
98041.5
98016.1
97989.4
97960.8
97931.9
97903
97873.1
97841.6
97805.7
97765.5
97719.8
97669.2
97613.3
97551.4
97483.9
97410.5
97331.3
97246.3
97155.6
97059.4
96957.8
96851.1
96739.9
96623.4
96503.2
96378.5
96248.9
96116.7
95982.1
95842.5
95700.1
95551.4
95402.6
95254.3
95104.1
94955.8
94807.7
94661.5
94520.4
94378.5
94246.5
94122.3
94008.3
93897.2
93794.3
93715.9
93649.8
93591.9
93553.9
93532.9
93527.2
93536.4
93565.4
93607.1
93665.1
93736.7
93823.2
93921
94034.5
94154
94288.2
94437.9
94592.6
94753.8
94942.7
95141.3
95347.2
95562.5
95797.6
96074.3
96353.8
96618
96902
97166.8
97457.9
97770.2
98078.6
98399.5
98678.7
98972.2
99284.1
99563.2
99799.5
99986.7
100156
100271
100322
100367
100335
100231
100080
99833.9
99587.1
99230.9
98838.2
98605.1
98163.6
97728.7
97256.9
96812
96488.5
96241.5
95955.7
95694.8
95454.1
95418.6
95506.9
95704.2
95618.7
95581.1
95571.5
97734.5
97724.1
97710
97693.4
97674.8
97654.8
97634.9
97616.1
97600
97587.4
97578.6
97573.8
97573.3
97577.3
97586
97599.8
97618.6
97642.5
97671.3
97704.8
97742.8
97785.1
97831.3
97881.3
97934.7
97991.3
98050.5
98112.2
98175.2
98237.2
98298.9
98360
98419.3
98476
98529.2
98578.1
98622.2
98661.4
98695.3
98723.8
98746.6
98763.9
98775.6
98781.5
98781.5
98775.6
98764
98746.9
98724.6
98697.3
98665.3
98629.1
98589
98545.7
98499.9
98452.1
98403.1
98354.1
98305.5
98258.3
98211.7
98167.2
98125.7
98086.5
98049
98013.1
97979.2
97946.7
97915.6
97885.2
97853.5
97819.4
97783.3
97746.7
97710.7
97674.3
97636.6
97595.2
97549.9
97499.3
97443.3
97382.2
97315.1
97242.6
97163.7
97079.1
96988.8
96893.1
96792.3
96686.5
96575.5
96460.4
96340.9
96217.7
96091.1
95960.9
95828.4
95692.6
95551.4
95410.9
95269.7
95128.5
94987.4
94844.9
94703.6
94564.6
94432.2
94300.7
94174.6
94056
93945.2
93843.9
93757.2
93680.4
93620.1
93574
93541.8
93527.8
93529.6
93550
93587.8
93642.2
93711.5
93798.1
93900.9
94016.8
94141.9
94283.5
94437.8
94602.7
94786.2
94980.6
95176.6
95400.5
95635.7
95883.9
96143.8
96409
96723.3
97061.7
97379.2
97719.6
98038.4
98363.7
98719.7
99065.8
99430.1
99757.9
100079
100422
100747
101033
101264
101466
101631
101732
101825
101831
101778
101663
101454
101238
100897
100570
100325
99872.2
99414.7
98904.1
98409.4
98174.3
97851
97478.1
97161.9
96880.2
96821.1
96830.3
96962.5
96716.2
96603.6
96479.9
98220.5
98214.7
98191.6
98169.6
98142.7
98112
98081.6
98052
98025.4
98003.3
97985.5
97972.5
97963.9
97960.3
97961.8
97968.2
97979.9
97996.7
98018.6
98045.1
98075.9
98110.6
98149.3