/*--------------------------------*- C++ -*----------------------------------*\
| =========                 |                                                 |
| \\      /  F ield         | OpenFOAM: The Open Source CFD Toolbox           |
|  \\    /   O peration     | Version:  dev                                   |
|   \\  /    A nd           | Web:      http://www.openfoam.org               |
|    \\/     M anipulation  |                                                 |
\*---------------------------------------------------------------------------*/
FoamFile
{
    version     2.0;
    format      ascii;
    class       volScalarField;
    object      p_0;
    location    "9.167";
}
// * * * * * * * * * * * * * * * * * * * * * * * * * * * * * * * * * * * * * //

dimensions      [1 -1 -2 0 0 0 0];

internalField   nonuniform List<scalar> 
12225
(
107126
107132
107171
107234
107294
107349
107377
107381
107337
107265
107136
106976
106758
106504
106179
105805
105399
104451
107109
107117
107158
107221
107281
107337
107365
107369
107325
107254
107125
106967
106750
106499
106179
105819
105388
104635
107077
107086
107128
107191
107252
107308
107336
107343
107298
107230
107101
106945
106731
106485
106171
105822
105400
104747
107023
107033
107076
107139
107201
107258
107287
107295
107252
107187
107060
106906
106697
106453
106154
105827
105436
104938
106940
106952
106996
107060
107123
107181
107212
107221
107182
107119
106998
106844
106647
106406
106130
105820
105477
105110
106820
106835
106880
106945
107010
107069
107102
107113
107080
107019
106907
106756
106576
106344
106093
105808
105495
105175
106655
106674
106720
106786
106853
106914
106951
106965
106939
106881
106781
106636
106473
106251
106026
105764
105486
105200
106467
106490
106538
106605
106674
106737
106779
106796
106778
106724
106636
106498
106351
106142
105938
105695
105446
105189
106268
106292
106342
106410
106482
106547
106593
106614
106603
106555
106477
106350
106213
106021
105834
105611
105386
105154
106006
106030
106082
106152
106227
106294
106347
106373
106370
106329
106262
106150
106027
105855
105686
105487
105288
105083
105657
105685
105738
105811
105889
105960
106019
106053
106059
106030
105975
105881
105776
105629
105479
105308
105135
104961
105200
105231
105287
105361
105442
105519
105585
105628
105647
105633
105593
105522
105434
105318
105192
105052
104909
104766
104611
104638
104696
104773
104858
104941
105014
105069
105103
105107
105087
105041
104977
104893
104797
104690
104580
104471
103841
103868
103929
104009
104100
104189
104272
104340
104390
104417
104422
104405
104370
104320
104259
104190
104116
104043
102846
102879
102944
103029
103126
103225
103318
103401
103470
103522
103555
103571
103571
103559
103537
103508
103474
103440
101595
101633
101702
101794
101899
102008
102115
102214
102303
102381
102446
102497
102536
102565
102584
102598
102608
102615
100057
100104
100180
100280
100394
100514
100635
100752
100864
100968
101064
101150
101228
101298
101362
101420
101474
101525
98372.6
98431.8
98514.7
98620.1
98740.8
98870.7
99004.6
99138.5
99270.1
99397.4
99519.7
99636.5
99748.4
99855.5
99957.9
100056
100151
100242
96865.7
96913.7
96995.2
97101.5
97224.7
97359.2
97500.4
97644.8
97790.1
97934.4
98076.6
98215.9
98351.7
98485.3
98616.4
98744.8
98870.2
98992.8
95617.6
95664.5
95745.1
95850
95972.6
96107.5
96251.1
96400.6
96553.6
96708.6
96864.1
97018.9
97172.1
97323.1
97473.3
97622.2
97769.1
97913.9
94603.9
94664.8
94746.6
94849.3
94969.2
95101.9
95244.9
95395.9
95552.5
95713.5
95877.3
96042.4
96207.8
96372.1
96535.4
96698
96859.7
97019.9
93828.2
93890
93969.7
94068.9
94184.6
94314.2
94455.2
94605.7
94763.5
94927.4
95095.9
95267.6
95441.1
95615
95788.2
95960.6
96132.5
96303.5
93251.4
93302.7
93378.5
93473.6
93585.2
93711.3
93849.7
93998.7
94156.5
94321.7
94492.9
94668.5
94847.3
95027.7
95208.4
95388.5
95567.8
95746.3
92811.2
92865.1
92937.9
93029.2
93137.2
93260.1
93396
93543.4
93700.8
93866.5
94039
94217.1
94399.1
94583.8
94769.7
94955.7
95140.7
95324.7
92495.1
92547.4
92617.6
92705.8
92810.9
92931.1
93065
93211
93367.6
93533.3
93706.6
93886.1
94070.3
94257.7
94447
94637
94826.5
95014.8
92270
92323.1
92391.5
92477.4
92580.2
92698.5
92830.8
92975.7
93131.7
93297.3
93471.1
93651.5
93837
94026.2
94217.7
94410.3
94602.7
94794.2
92117.2
92171.2
92238.4
92322.4
92423.9
92540.9
92672.2
92816.3
92971.8
93137.3
93311.2
93492.2
93678.5
93868.9
94061.8
94256
94450.3
94643.9
92021
92074.3
92141.1
92223.8
92324.4
92440.7
92571.4
92715.1
92870.3
93035.7
93209.8
93391.1
93578
93769
93962.7
94157.9
94353.5
94548.2
91968.2
92018.5
92081.7
92167.1
92268
92384.2
92514.7
92658.1
92813.2
92978.6
93152.7
93334.3
93521.4
93712.7
93906.9
94102.7
94298.9
94494.5
91953.4
91995.9
92058.5
92143.3
92244
92360.2
92490.5
92633.9
92789
92954.4
93128.6
93310.2
93497.5
93689
93883.4
94079.4
94275.9
94471.9
90216.8
90224.6
90240.8
90265.8
90299.9
90340.6
90390.9
90453.3
90521.5
90598
90682.5
90774.6
90873.8
90980.8
91095.7
91218.3
91348.7
91487.1
91633.5
91787.7
91949.6
92119.1
92296
92479.9
92670.6
92867.2
93070
93278
93491.2
93708.9
93930.5
94156.1
94383.5
94612.9
94844.4
95077.8
95313.9
95551.9
95790.9
96030
96268.6
96506.7
96741.9
96972.8
97201.9
97427.8
97648.1
97864.7
98079.8
98292.6
98499.2
98698.1
98889.2
99075.3
99260.1
99441.4
99615.7
99782.1
99941.6
100095
100242
100384
100521
100652
100779
100900
101016
101127
101233
101334
101430
101523
101612
101698
101781
101862
101942
102021
102099
102178
102258
102338
102419
102500
102581
102660
102736
102809
102876
102936
102987
103027
103053
103063
103054
103022
102965
102882
102772
102637
102479
102299
102095
101870
101627
101366
101090
100803
100506
100203
99894.3
99583.8
99272.6
98962.2
98653
98346.7
98044
97746.2
97454.8
97172.6
96896.1
96628.1
96366
96109
95856.7
95607.8
95360.8
95115.1
94869
94621.3
94373.6
94126.3
93877.4
93623.7
93362
93089.3
92804.1
92506.8
92200.6
91889.3
91574.8
91255.9
90929.4
90593.6
90248.9
89895.9
89531.5
89153.8
88767.5
88358.9
87928.5
87484.3
87033.1
86567.6
86077.7
85543.9
84995.5
84436.3
83859.5
83288.6
82744.9
82186.1
81647.9
81154.8
80706.7
80322.6
80022.1
79830.1
79741.6
79756.9
79890.4
80137.8
80496.1
80982.2
81581
82291.7
83100
83986.8
84824.9
85685.6
90290
90297.2
90312.6
90336.3
90368.3
90411.3
90462.9
90523.2
90591.8
90667.9
90751.5
90842.7
90941.2
91047.3
91161.4
91283.4
91413.2
91551.1
91697
91850.5
92011.8
92180.6
92356.6
92539.9
92730.2
92926.7
93127.8
93334.2
93546.4
93762.6
93983.1
94206.7
94432.3
94661.1
94892.4
95125.6
95359.2
95593.9
95830.1
96067.3
96303.9
96540.5
96774.3
97002.5
97228.7
97452.3
97668.7
97880.6
98093
98303.8
98510.9
98709.8
98896.3
99075.1
99253.9
99431.3
99602.5
99766.4
99923.2
100074
100219
100358
100492
100622
100745
100864
100977
101086
101189
101287
101381
101472
101558
101641
101722
101801
101878
101954
102030
102106
102183
102260
102339
102417
102494
102570
102644
102713
102777
102835
102883
102920
102942
102948
102939
102907
102853
102770
102661
102525
102367
102187
101984
101761
101518
101259
100985
100700
100406
100104
99799.2
99491.5
99183.3
98875.8
98570
98266.7
97966.7
97671.6
97384.6
97104.1
96831.1
96566.3
96307.6
96053.8
95804.9
95559.4
95316.1
95074.2
94831.4
94586.3
94341.4
94097.8
93853.6
93604.9
93348.2
93079.7
92797.8
92503.2
92198.8
91890
91580.3
91266.9
90944.5
90613.1
90274.7
89924.9
89566.1
89196.9
88809.3
88405.5
87980.2
87537.9
87089.5
86629.4
86145.8
85612.3
85066.4
84510.4
83929.3
83361.4
82826.9
82268
81728.9
81238.6
80789.2
80400.7
80096.5
79902.9
79812.8
79824.3
79957.1
80201.6
80552.3
81032
81628.9
82348.2
83147.2
84019.6
84864.1
85721.7
90439.8
90448.8
90464.2
90487.4
90518.9
90560
90609.7
90667.7
90733.7
90807.4
90888.6
90977.5
91074.2
91178.6
91291
91411.5
91540.2
91676.7
91821
91973.5
92133.4
92300.5
92474.8
92656.3
92844.4
93039.5
93239.4
93444.6
93655
93869.5
94088.3
94309.9
94533.8
94760.5
94989.1
95218
95447.7
95679.3
95912.7
96146.8
96378.6
96609.8
96839.9
97063.3
97281
97496.7
97711.6
97924.9
98131.4
98327.6
98520.6
98712.5
98897.9
99075.5
99249.1
99417.8
99580.9
99737.8
99888.6
100034
100173
100307
100436
100559
100678
100792
100900
101003
101102
101195
101285
101370
101451
101530
101605
101679
101751
101822
101894
101964
102036
102108
102182
102254
102325
102396
102464
102527
102586
102638
102680
102711
102729
102730
102712
102678
102624
102545
102437
102301
102144
101965
101763
101541
101301
101045
100775
100494
100203
99906.4
99605.6
99302.8
99000.1
98698.9
98399.3
98101.6
97807.9
97519.8
97240.3
96967.4
96701.6
96443.6
96192.6
95946
95704.2
95466.2
95230
94995
94759.1
94520.3
94281
94043.4
93806.1
93565.7
93318.4
93059.5
92785.2
92496.8
92197.9
91895.6
91595.3
91290.6
90974.4
90652.7
90321.1
89977.3
89624.5
89263.3
88888.4
88495.9
88082.4
87648.2
87202.8
86747.7
86275.8
85748.2
85205.6
84658.9
84072.7
83503.6
82977.2
82427
81891.2
81413.8
80965.4
80565.9
80253.9
80057.6
79965.4
79971.3
80102.4
80341
80677.6
81142.9
81727.9
82442.2
83242.6
84102.4
84950.3
85791.6
90658.2
90664.9
90681
90705.9
90739.6
90779.8
90827
90881.4
90943.8
91014.1
91092.4
91178.9
91273.6
91375.8
91485.4
91603.6
91730.1
91864.5
92007.2
92157.8
92315.7
92480.8
92653.1
92832.1
93017.9
93210.3
93408.2
93610.7
93818.3
94029.7
94245.1
94464
94685.7
94908.6
95132.9
95358.6
95585.2
95811.6
96036.9
96267
96493.2
96717.3
96937.6
97152.9
97363
97568.1
97769
97972.1
98171.1
98363
98548.7
98730.5
98905.5
99074.7
99238.9
99398
99551.3
99698.8
99840.7
99977.1
100108
100235
100356
100471
100582
100688
100788
100884
100975
101061
101143
101221
101295
101366
101434
101500
101565
101630
101694
101758
101822
101886
101951
102015
102079
102141
102201
102257
102307
102351
102387
102411
102422
102419
102398
102356
102297
102216
102111
101978
101819
101640
101442
101224
100987
100736
100471
100195
99910.6
99620.3
99326.5
99030.7
98735.4
98441.9
98151
97862.6
97578.1
97298.9
97031.1
96769.2
96514.3
96266.9
96027
95791.6
95561
95333.6
95107.4
94881.8
94656.2
94428.2
94197.7
93968.1
93739.3
93509
93273.8
93028.3
92766.1
92488.4
92199.8
91908.9
91621.1
91328.7
91023.4
90713.8
90392.6
90060
89717.6
89366.9
89007.2
88632
88234.3
87816.6
87374.8
86922
86462.5
85948.8
85409.6
84875.9
84289.4
83708.6
83179.8
82646.9
82120.4
81663.4
81235
80821.3
80496
80297.5
80204.8
80200.6
80322.7
80554.2
80873.7
81319.2
81886.9
82591.1
83384
84237.7
85095.7
85897.5
90951.3
90959
90974.8
90998.6
91029
91065.9
91109.7
91161.1
91220.6
91288.3
91364.2
91448
91539.5
91638.3
91744.9
91860.1
91984.1
92116.3
92256.4
92404.3
92559.7
92722.1
92890.9
93066
93247.7
93435.6
93631.1
93828.3
94032.2
94240.6
94453
94668
94883.5
95101.1
95320.6
95541
95762
95984.1
96209
96426.1
96643.4
96861.3
97070.4
97270.9
97470.8
97666.6
97857.8
98046.1
98230.4
98410.3
98585.9
98754
98916.6
99073.9
99226
99372.7
99513.9
99649.7
99780
99905.3
100026
100141
100251
100357
100457
100552
100643
100729
100809
100886
100958
101026
101091
101153
101211
101269
101325
101380
101435
101489
101544
101598
101653
101707
101761
101813
101863
101909
101949
101983
102009
102025
102028
102018
101991
101946
101880
101796
101693
101563
101405
101227
101030
100816
100585
100339
100081
99812.4
99536.9
99255.8
98971.2
98685.5
98400.4
98117.1
97838
97561.9
97289.8
97023.9
96766.5
96517.2
96275.5
96041.4
95814.4
95592.8
95375.2
95161.9
94948.9
94736.2
94524.2
94310.7
94093.7
93875
93657
93438.6
93218.2
92989
92742.5
92479.5
92205.8
91930.7
91656.6
91376.1
91089.1
90796.6
90491.5
90176.2
89852.5
89515.9
89170.2
88815.3
88436.7
88041.1
87610.4
87162
86711.9
86216.3
85679.9
85159.9
84584
83988.4
83455.8
82938.2
82413.4
81962.2
81576.7
81161.8
80817.5
80618.4
80536
80513.8
80611.1
80833.8
81139
81563.3
82108.7
82802.9
83575.7
84429.2
85291.7
86047.3
91311
91318.2
91333
91354.3
91381.9
91416.2
91457.7
91507.2
91564.8
91630.3
91703.6
91784.1
91871.4
91965.8
92069.1
92181.8
92303.2
92432
92568.1
92712.2
92864.4
93023.3
93187.9
93357.7
93533
93713.7
93900.1
94095.8
94295.4
94498.4
94705.2
94914.6
95126
95338.4
95550.3
95762.8
95975.5
96188.5
96401
96612.6
96822.3
97026.4
97223.7
97414.2
97600
97782.2
97960.2
98133.5
98301.8
98470.1
98629.3
98782.4
98930.3
99073
99210.3
99342.3
99469.2
99590.7
99707
99818.5
99925.2
100027
100125
100217
100305
100387
100465
100539
100608
100672
100732
100789
100843
100893
100941
100988
101032
101076
101120
101163
101207
101250
101294
101337
101379
101419
101457
101491
101520
101543
101557
101561
101555
101536
101503
101453
101385
101294
101187
101061
100910
100737
100544
100333
100109
99869.4
99618.6
99358.4
99092.6
98823.7
98551.4
98278.7
98007.3
97737.7
97470.1
97207.5
96953.2
96701.2
96459.4
96226.3
95998.7
95778.1
95564.6
95357.5
95155.3
94958.1
94762.1
94565.6
94369.5
94172.1
93972.2
93768.9
93563.9
93359.5
93155.5
92945.3
92718.4
92473.8
92218.2
91959.9
91703.4
91442.5
91173.6
90898.3
90616
90319.4
90020.2
89707.1
89381.9
89048.5
88691.1
88318.9
87915.4
87472.1
87032.5
86559
86021.4
85509.3
84967.2
84367.4
83831.8
83323.6
82782.8
82313.2
81964.4
81576.1
81219.2
81011.7
80950.9
80909.8
80972.6
81180.3
81475.4
81877.5
82399.5
83082.6
83819.5
84675.9
85496.9
86275.1
91734.4
91740.6
91753.7
91772.9
91798.6
91831.2
91871.3
91919.3
91974.9
92037.8
92107.5
92183.7
92266.6
92357.9
92459.2
92569.3
92685.9
92808.9
92940
93080.5
93228.5
93382.5
93542.1
93706.6
93876
94049.2
94227.1
94414.3
94608
94805.4
95005.6
95208.1
95411.5
95614.5
95817.6
96020.1
96221.6
96423.7
96624.8
96825.7
97024.6
97214.5
97396.8
97574
97746.4
97914
98076.4
98233.7
98386
98533.7
98679.1
98815.2
98946.1
99071.7
99191.9
99307
99417.4
99522.6
99622.7
99718.1
99809
99895.5
99978.6
100056
100128
100196
100260
100319
100374
100424
100471
100515
100555
100593
100628
100662
100694
100725
100756
100786
100816
100847
100878
100908
100938
100965
100990
101012
101029
101040
101043
101035
101017
100987
100944
100886
100813
100723
100615
100487
100342
100173
99987.2
99781.4
99565.2
99336.1
99096.6
98848.8
98594.2
98337.1
98078
97818.9
97562.7
97310.5
97057.2
96807.9
96564.5
96335
96111.9
95897.2
95687.5
95484.3
95287.5
95096.5
94911.3
94730.9
94552.8
94374.8
94196.8
94017.8
93836.6
93652.4
93464.4
93275.7
93089.7
92900.6
92697
92475.2
92241.1
92004.7
91768
91528.5
91278.5
91023.2
90757.7
90494.7
90224.5
89942.2
89641.6
89335.8
89007.3
88656.7
88291
87855.9
87431.6
86990.3
86443.4
85930
85426.2
84840
84297.3
83800.7
83246
82757.4
82410.1
82056
81699
81471.4
81435.9
81384.2
81415.9
81600.3
81884.1
82260.9
82756.7
83429.7
84132.2
84972
85728.6
86526.6
92220.6
92225.8
92237.4
92255.1
92279.3
92310.4
92349.1
92395.3
92448.4
92507.9
92573.7
92646.2
92726.5
92815.6
92912.9
93016.8
93126.5
93244
93370.7
93506.3
93649.1
93797.9
93951.4
94108.2
94268.6
94433.5
94604.8
94784.6
94969.9
95158.3
95348.7
95540.7
95733.6
95926.4
96119.1
96310.1
96500.4
96690.1
96878.6
97066.8
97249.5
97423
97590.2
97752.1
97908.5
98059.2
98204.3
98344
98478.6
98608.1
98732.3
98850.1
98962.2
99070.1
99170.9
99267.1
99360.3
99447.1
99529.3
99607.1
99680.7
99750
99815.2
99875.8
99932
99983.8
100031
100075
100114
100150
100181
100210
100236
100259
100280
100300
100318
100335
100351
100367
100382
100398
100414
100431
100446
100460
100471
100479
100483
100482
100474
100456
100426
100385
100331
100264
100182
100089
99979.4
99850
99711.2
99549.2
99371
99176.6
98968.9
98749.4
98521.2
98288.4
98050.5
97805.3
97558.6
97314.4
97072.9
96834
96594.8
96363.9
96144.2
95939
95735.8
95539.8
95349
95164.2
94987.3
94816
94650
94488.5
94328.8
94169.7
94011.5
93853.1
93692.9
93529
93361.7
93192.2
93026.1
92860.5
92682.7
92487
92279.4
92067.3
91853.9
91638.2
91416
91183.9
90948.1
90709.4
90467.4
90219.9
89953.8
89677.1
89382.3
89060.6
88735.5
88320.4
87907
87504
86959.2
86442.2
85955.8
85396.5
84857.3
84354.9
83813.2
83329.1
82944.4
82607.9
82255.3
82005
81977.6
81930.2
81938.6
82097.8
82367.3
82714.8
83185.9
83844.8
84516.5
85333.6
86029.3
86764.1
92768.7
92772.9
92783
92799.3
92822
92851.7
92888.5
92932.1
92982.1
93038.2
93100.7
93170.5
93247.4
93331.3
93422.3
93520.4
93625.8
93739.7
93861.5
93990.1
94124.7
94264.7
94409.6
94558.5
94711.4
94869.1
95032.8
95202.8
95377
95553.8
95732.5
95913
96094.6
96276.2
96455.6
96632.5
96808.6
96983.6
97158.3
97330.9
97495.4
97651.4
97801.7
97946
98084.1
98216.1
98342.4
98463.2
98578.4
98688
98791.6
98889.1
98980.9
99067.6
99149
99225.7
99298
99365.5
99428.4
99487.1
99541.5
99592
99638.6
99681.1
99719.7
99754.2
99784.7
99811.2
99833.8
99852.7
99868.3
99880.9
99890.6
99898.4
99904.2
99908.6
99911.9
99914.1
99915.3
99915.9
99915.6
99915.7
99915.4
99915.5
99915
99913.8
99910.2
99904.1
99894.2
99879.2
99858
99830.1
99791.6
99742
99678.6
99602.9
99512.5
99411
99295.9
99167.2
99025.5
98869.8
98695.8
98513.3
98317.4
98114.5
97897.1
97673.5
97455.9
97231.6
97003
96773.2
96550.5
96322.9
96103.7
95899.6
95704.9
95519.6
95338.5
95163.7
94993.7
94829.3
94672.6
94522.7
94378.2
94238.3
94099.2
93959.4
93820.6
93682.7
93545.8
93406
93262.1
93115.1
92969.9
92828.8
92680
92513.8
92335
92150.8
91965
91777.6
91587.2
91383.6
91177.2
90968.1
90755.4
90538.9
90312.2
90070
89810.3
89517.6
89233.8
88862.4
88457.9
88084.7
87569.5
87057.8
86571.9
86042.3
85521.2
84995.7
84484.7
84015.3
83583.9
83242.2
82897.8
82634.1
82578.8
82540
82539.2
82676.4
82925.8
83240.9
83688.1
84322.7
84973.2
85743.7
86358.4
87038.9
93376.7
93379.7
93388.4
93402.9
93423.8
93451.5
93485.7
93526.2
93572.7
93625.4
93684.6
93750.5
93823.2
93903
93990.1
94083.8
94183.9
94290.5
94403.4
94522.1
94646.5
94776.7
94912.3
95052.6
95197.5
95347.4
95502.3
95661.1
95823.5
95988.1
96154.5
96322.3
96490.1
96656
96819
96980.2
97140.6
97300.8
97460.5
97615
97759.7
97897.1
98028.5
98153.4
98271.7
98383.8
98490.2
98590.8
98685.3
98773.5
98855.4
98931.2
99001.3
99066.3
99126.5
99181.9
99232.8
99279.2
99321.2
99359.3
99393.6
99424.3
99451.5
99475.1
99495.1
99511.5
99524.1
99532.8
99537.9
99539.5
99537.9
99533.7
99526.6
99517.9
99507.5
99495.8
99483.2
99469.8
99455.4
99440.8
99425.6
99409.9
99393.6
99376.9
99359.2
99341.4
99321.7
99300.3
99275.7
99246.7
99211.8
99170.3
99121.5
99062.4
98992.3
98910.3
98815.2
98705.7
98584.8
98459
98314.5
98157
97988.6
97808.9
97622.5
97435
97238.2
97027
96812.4
96610.1
96402.8
96189.9
95993.4
95794.8
95604.3
95423.8
95249.5
95082.4
94922.7
94769.7
94624.5
94486
94352.9
94225.4
94102.6
93983.7
93868.2
93751
93633.4
93516.9
93403.2
93289.6
93171.5
93049.4
92927.7
92811.9
92693.9
92560.9
92413.5
92261.7
92105.4
91948.8
91785.5
91626.3
91454.2
91278.2
91095.9
90913.9
90720.9
90513.2
90295.6
90030.6
89775.2
89467.4
89089
88730.7
88261.8
87775.4
87287.2
86786.9
86280.4
85741.4
85264.2
84798.5
84320
83956
83631.3
83372.2
83256.7
83216.1
83214.6
83337.9
83560.9
83839.6
84261
84861.2
85498.5
86198.6
86723.9
87367.1
94040.5
94042.3
94049.4
94062.1
94080.8
94105.7
94136.8
94173.5
94215.8
94264
94318.6
94379.7
94447
94520.9
94601.3
94687.7
94780
94878.7
94983.4
95093.6
95209.1
95329.9
95455.7
95586.1
95721
95860.4
96003.8
96150.7
96300.1
96451.5
96604
96756.6
96907.8
97056.7
97203.6
97349.4
97495
97640.6
97782.7
97916
98040
98157.4
98268.4
98372.4
98470
98561.3
98646.6
98725.6
98798
98863.7
98922.9
98976
99023.6
99066.2
99104.1
99137.2
99165.7
99190
99210.4
99226.6
99239.8
99249.9
99257.1
99261.3
99262.1
99259.8
99254.1
99244.7
99231.8
99215.7
99196.7
99175.4
99151.5
99126
99099.1
99071.1
99042.3
99012.7
98982.1
98951
98920.1
98888.6
98856.7
98823.9
98790.1
98755.1
98719
98681
98641
98597.6
98549.4
98495
98433.8
98363.6
98284.2
98194.5
98095.6
97984.6
97862
97731.1
97592
97437.9
97274.3
97105.5
96926.6
96738.3
96554.9
96369
96169
95972.9
95787
95605.6
95422.4
95253.3
95093.7
94935.6
94782.9
94637.8
94501.5
94371.6
94247.3
94132.8
94026.4
93925.2
93826.8
93729.1
93637.9
93546.4
93453.4
93361.4
93271.4
93184.4
93095.2
93000.6
92905.9
92816.5
92730.2
92633.8
92521.8
92406.6
92281.1
92157.1
92031
91910.7
91781.6
91647.9
91501.2
91355.7
91197.9
91019.7
90842.4
90614.6
90378.3
90128.2
89793.1
89453.2
89036.1
88585.6
88106.9
87629.7
87133.2
86600.1
86157.4
85674.4
85153
84754.4
84460.4
84222
84028.2
83973.7
83970.4
84083.2
84274.1
84511.5
84902.6
85462.2
86086.4
86703.7
87170.6
87729.3
94755.6
94756.1
94761.5
94772.1
94788.2
94809.8
94836.7
94868.3
94904.9
94947
94995
95048.7
95108.6
95175.1
95247.8
95326.4
95410.8
95501.4
95598
95700.1
95807.5
95919.6
96035.7
96155.6
96280
96405.3
96534.5
96667
96801.8
96938.1
97074.8
97210.7
97345.2
97478.1
97609.9
97741
97871.7
97999.8
98120.4
98230.8
98333.3
98429.7
98519
98601.4
98677.3
98746.8
98809.9
98866.2
98915.5
98957.9
98993.9
99023.9
99048.5
99068
99082.6
99092.4
99097.8
99099
99096.8
99091.3
99083.2
99072.5
99059.3
99043.4
99024.9
99003.6
98979.4
98952
98921.2
98887.3
98850.9
98812.6
98772.2
98730.1
98687.2
98643.2
98598.6
98553.1
98506.9
98459.6
98412.2
98364.1
98315.9
98266.7
98216.8
98165.4
98113.1
98059
98002.6
97944.2
97881.8
97814.9
97742.2
97661.6
97572.9
97475.7
97369
97254.6
97131.5
96998.9
96861.1
96713.1
96558.4
96398.1
96231.6
96057.2
95882.3
95709.6
95536.1
95357.9
95184.4
95024.1
94863.3
94714.6
94578.7
94442
94312.5
94191.1
94079.5
93975.9
93876.2
93782.5
93699.1
93625.1
93554.5
93482.1
93414.4
93349.9
93284.8
93219.2
93155.4
93095.3
93037.5
92973.8
92908.3
92847.9
92793.9
92736.2
92663.3
92574.1
92497.9
92408.3
92320.1
92239
92154.5
92070.5
91971.6
91862.6
91746
91602.3
91462.8
91280.4
91070.7
90857.7
90567.5
90257.3
89892.6
89480.6
89026.1
88572.7
88087.8
87575
87154.3
86639.7
86089.5
85666.4
85409.7
85180.5
84908.1
84811.6
84803.9
84912.3
85067.2
85256.9
85606
86127.1
86724.4
87249.1
87679.2
88163.4
95516.1
95515
95518.5
95526.5
95539.2
95556.5
95578.2
95603.9
95634.2
95669.6
95710.3
95756.7
95809.3
95868.1
95932.6
96002.5
96078
96159.1
96245.5
96337.1
96433.9
96535.3
96640.6
96749
96856.9
96971
97087.7
97206.1
97325.8
97446.1
97566.2
97685.6
97804
97921.3
98037.7
98153
98265.8
98372.1
98468.6
98556
98636.8
98711.1
98778.1
98838.2
98891.8
98938.7
98978.6
99011.5
99037.2
99056
99068.4
99075
99076
99071.8
99062.6
99048.7
99030.7
99009.1
98984.8
98957.2
98927.5
98895.6
98861.7
98825.9
98787.9
98748
98705.8
98660.7
98612.5
98561.3
98507.8
98452.7
98396.2
98338.1
98279.5
98219.9
98159.9
98099
98037.2
97974.7
97911.3
97847.5
97782.8
97717.6
97651.4
97584
97515.6
97446.1
97374
97300.7
97224
97142.9
97058.1
96967.2
96869.6
96765.8
96653.2
96533.4
96407.5
96275.1
96136.3
95993
95846.3
95693.8
95537.5
95378.3
95215.1
95055.3
94901.9
94744.7
94591.9
94448.4
94309.3
94180.6
94063.5
93950.8
93846.6
93749
93661.4
93583.4
93512.3
93444.6
93384.7
93335.5
93291.8
93248.2
93205.9
93168.2
93134.1
93097.4
93061.9
93029.8
93003.8
92974.7
92940.4
92911.7
92891.7
92874.8
92844.3
92797.6
92749
92708
92662.2
92623.5
92577.4
92540.9
92496.9
92429.7
92359.3
92255.6
92155.2
92024.4
91856.8
91673.2
91422.9
91148
90833.3
90463.7
90040.3
89615.7
89148.3
88665.2
88244.7
87702.5
87146.2
86735.5
86495.8
86236.1
85906.8
85728.6
85713.2
85827.5
85943.9
86079.4
86380
86863.1
87395.7
87846.6
88209.8
88672.8
96315.3
96311.9
96313.1
96317.9
96326.3
96338.4
96354.9
96374.5
96398.6
96427.4
96461.3
96500.8
96545.7
96595.7
96650.6
96710.5
96775.6
96845.8
96920.7
97000.5
97084.7
97173.1
97265
97359.1
97458.3
97559.1
97661.5
97764.9
97868.9
97972.9
98076.7
98180.1
98282.5
98383.7
98483
98579.2
98669.5
98751.2
98823.6
98888.6
98947.2
98998.8
99043.1
99080.5
99111.1
99134.7
99151.1
99160.2
99162.1
99157.2
99146.1
99129
99106.4
99078.4
99045.6
99008.3
98967.2
98922.9
98876
98826.8
98775.9
98723.4
98669.5
98614.3
98557.7
98499.7
98440.2
98378.2
98313.2
98245.4
98175.5
98104.1
98031.9
97959.2
97885.8
97811.5
97736.4
97661
97584
97506.5
97427.4
97348.3
97268
97187.1
97105.3
97022.2
96938
96853.1
96766.1
96677.8
96588
96493.6
96396.5
96294.8
96187.4
96075.8
95958.4
95834.7
95705.4
95572.2
95433.6
95292.2
95150.9
95006.7
94858.8
94712.1
94563.2
94417.8
94278.8
94140.8
94008.3
93884
93767.1
93659.5
93559.7
93470.9
93393.5
93321.6
93258
93202.6
93158.7
93120.4
93089.7
93064.9
93047.4
93033
93019.2
93008.7
93005.7
93001.5
92996.8
92995.2
93000.3
93008
93009.9
93014.8
93029.1
93054.9
93069.3
93069.3
93065.5
93064.7
93063.2
93071.9
93068.6
93072.1
93079.1
93060
93043.1
92989.1
92926.8
92839.1
92722.9
92580.2
92372.3
92136.7
91865.5
91540.7
91152.5
90759.7
90316
89865.2
89431
88880.2
88351.5
87971.8
87699.9
87381
87034
86753
86724.2
86836.7
86907
86984.3
87230.4
87669.5
88115.5
88515.2
88799.9
89213
97145.9
97138.7
97137.3
97138.3
97142.1
97149.1
97159.7
97173.4
97191.1
97212.9
97239.1
97270
97305.3
97344.8
97389.1
97438.6
97493.1
97552.1
97615.5
97683.1
97754.6
97830
97909
97991.6
98076.7
98163.6
98251.4
98339.8
98428.3
98516.4
98603.9
98690.5
98775.5
98858
98936.7
99009.9
99075.4
99132.5
99181.9
99224.8
99260.8
99289.4
99310.9
99325.4
99332.8
99332.9
99325.6
99311.1
99289.5
99261.4
99227
99186.6
99140.6
99089.4
99033.4
98973.3
98909.6
98843
98774.2
98704.7
98633.4
98561.2
98488.2
98414.4
98339.5
98264
98187.7
98109.6
98028.9
97945.4
97860.4
97774.2
97686.9
97600.1
97513
97425.6
97336.5
97247
97156.4
97064.8
96971.5
96877.5
96782.6
96686.5
96589.9
96491.8
96393
96293.4
96192
96088.8
95985.3
95878.5
95769.2
95657.1
95540.5
95420.4
95297.1
95169.7
95037.7
94902.8
94765.3
94626
94487.4
94349.4
94210
94072.8
93937.7
93807.4
93680.4
93559.5
93446.4
93340.9
93245.7
93159.5
93079.1
93013.4
92960.8
92915.4
92877.5
92845.9
92827.1
92817
92818.7
92818.8
92829
92843.6
92861.6
92881.7
92906.3
92937.2
92966.2
92996.8
93034.4
93078.7
93121.5
93163.7
93213.3
93281.2
93345.1
93395
93438
93485.1
93526.4
93585.1
93636.6
93680.5
93730.2
93760.1
93801.1
93808.8
93792.6
93742.6
93673.3
93580
93418.2
93223.5
92996.6
92716.1
92365.6
92005.8
91589.1
91168
90723.3
90181.3
89714.4
89335.2
88996.8
88627.5
88289.6
87926.2
87879.7
87945.3
87958.1
87974.2
88159.1
88547.9
88917.5
89252
89469.4
89795.4
97997.6
97987.7
97982.5
97979.5
97978.9
97979.4
97982.4
97988.1
97997.5
98010.3
98026.9
98047.6
98072.6
98102.3
98136.8
98175.9
98219.6
98267.6
98319.5
98375.1
98434.3
98496.8
98562.1
98632.3
98703.2
98775.7
98849
98922.2
98995
99066.7
99137
99205.2
99270.3
99331.4
99387.2
99436.4
99478.2
99512.5
99539.9
99560.6
99574
99580
99578.8
99570.4
99554.7
99531.6
99501.1
99463.6
99419.2
99368.3
99311.1
99248.1
99179.6
99105.9
99027.8
98945.9
98861.2
98774.1
98685.4
98595.5
98504.7
98413.8
98322.5
98230.9
98138.6
98046.2
97954.3
97861.2
97766.5
97669.3
97570.3
97470.7
97369.9
97269.6
97169.4
97069.3
96968.4
96865.6
96762
96657.1
96551.2
96444
96335.7
96226.3
96116.1
96004.5
95891.8
95778.3
95663.8
95547.4
95430.3
95311.2
95189.9
95067.3
94941.4
94812.9
94683.2
94551
94416.1
94279.6
94142.1
94004.8
93868.5
93734.4
93602.8
93473.8
93350.1
93233
93117.5
93012.9
92917.7
92830.7
92755.2
92688.4
92630.1
92588.6
92557
92537.1
92525.5
92521.4
92527.9
92546.9
92576.1
92605.7
92643.6
92688.4
92738.7
92793.4
92846.6
92910.8
92976.9
93041.1
93112.2
93194.6
93279.2
93363.3
93451.1
93559.1
93677.1
93781.9
93873.6
93972.2
94058
94165.2
94273.2
94366.8
94462.2
94533.7
94627
94704.5
94744.8
94742.9
94715.9
94669.8
94555
94397.4
94217.9
93983.9
93677.7
93352.2
92962.9
92569.2
92123.8
91604.2
91209.3
90787.7
90383.6
89978.2
89639.3
89259.9
89173.7
89147.3
89092.8
89046
89178.4
89491.2
89817.4
90059.3
90196.9
90431.6
98876
98866.7
98856.5
98844.6
98832.3
98822.1
98813.7
98808.2
98806.7
98809
98815.1
98825
98840.2
98860.2
98884.4
98912.7
98944.9
98981.3
99021.7
99065.3
99111.9
99164.3
99219
99273
99328.7
99385.6
99442.9
99500.1
99556.2
99610.8
99662.8
99711.4
99755.9
99795.2
99828.6
99855.3
99874.9
99887.6
99893.4
99892.1
99883.4
99867.3
99843.9
99813.1
99774.9
99729.4
99676.7
99617
99550.7
99477.9
99399.1
99314.5
99224.5
99129.9
99031.3
98929.2
98824.6
98718.3
98610.8
98502.6
98393.6
98285.3
98177.3
98069.3
97961.4
97853.6
97746.8
97639.9
97532.4
97423.6
97312.8
97200.8
97087.7
96974.8
96862.6
96750.7
96639.2
96525.6
96411.1
96294.5
96177
96058.3
95938.1
95816.8
95694.2
95570.4
95445.5
95319.5
95192.3
95063.8
94934.2
94803.6
94671.1
94537.8
94403.1
94266.3
94129.5
93991.5
93852.3
93714.3
93575.7
93439.3
93305.9
93174.3
93048.5
92926.9
92812.8
92705.6
92602.5
92512.5
92432.9
92363.7
92305.6
92257.2
92222.7
92204.3
92193.5
92197.3
92211.7
92236.3
92269.9
92318.5
92373.1
92434.6
92502.2
92577.6
92658.4
92747.1
92834.9
92930.9
93034
93135.3
93240.1
93362.5
93488.6
93616.8
93748.3
93894.4
94065.9
94229.9
94375.1
94530
94665.1
94817.7
94978.8
95126.1
95276.6
95391
95523.5
95663.9
95767.6
95823.8
95842.6
95840.9
95776.9
95661
95528.2
95339.7
95081.7
94793
94432.9
94064.4
93625.8
93138.4
92791.6
92313.5
91859
91415
91036.1
90712.8
90561.2
90427.2
90300.4
90193.2
90285.1
90503.7
90820.4
90918.4
90983.7
91123.5
99748.5
99736.5
99720.8
99701.6
99680.6
99659.3
99639.7
99622.5
99609.4
99600.8
99596.4
99596.7
99600.5
99608.3
99620.6
99637.5
99658.7
99683.9
99712.9
99745.7
99781.9
99817.9
99856.1
99896.2
99937.5
99979.1
100021
100061
100100
100137
100170
100200
100225
100244
100257
100263
100262
100254
100239
100216
100186
100149
100104
100052
99992.1
99925.3
99851.4
99770.8
99683.8
99590.5
99491.4
99386.7
99277.1
99163.2
99045.8
98925.3
98802.7
98679
98554.5
98429.9
98304.7
98180.3
98057.5
97935.1
97813.3
97691.9
97571.8
97452.1
97332.9
97213.9
97093.5
96971.1
96847.4
96723.7
96601.4
96479.8
96358.4
96235.8
96112.4
95986.8
95859.4
95730.9
95600.5
95468.8
95335.2
95200.3
95064.1
94926.7
94788.4
94648.9
94507.9
94366.3
94223.4
94079.9
93936
93791.5
93647.3
93503
93358.8
93217.5
93077.3
92941.3
92809.4
92680.6
92558.4
92443.2
92337.1
92237.6
92146.7
92069.2
92003.6
91950.3
91907.9
91879.2
91866.2
91867.9
91879.9
91907.1
91946.5
91998.6
92061.9
92138
92220.6
92312
92411.9
92519.1
92630.6
92750.6
92875.2
93004.8
93144.1
93286.2
93428.2
93590.5
93758.3
93931.8
94111.5
94295.4
94513.4
94740.1
94943.3
95158.7
95351.1
95547.7
95760.8
95960.9
96169
96337.7
96507.9
96695.3
96858.1
96973
97041.6
97083.8
97073.9
97009.2
96926.3
96781.6
96571.4
96319.8
95991
95647.9
95219
94771.7
94427
93906.3
93412.7
92918.8
92481.9
92226.3
91998.4
91767.7
91571.4
91406.1
91472.1
91612.6
91897
91832.1
91837
91872
100477
100463
100441
100414
100382
100350
100320
100292
100268
100248
100234
100224
100219
100218
100221
100229
100241
100256
100275
100297
100322
100347
100375
100403
100432
100461
100489
100516
100541
100564
100583
100597