/*--------------------------------*- C++ -*----------------------------------*\
| =========                 |                                                 |
| \\      /  F ield         | OpenFOAM: The Open Source CFD Toolbox           |
|  \\    /   O peration     | Version:  dev                                   |
|   \\  /    A nd           | Web:      http://www.openfoam.org               |
|    \\/     M anipulation  |                                                 |
\*---------------------------------------------------------------------------*/
FoamFile
{
    version     2.0;
    format      ascii;
    class       surfaceScalarField;
    object      phi;
    location    "9.167";
}
// * * * * * * * * * * * * * * * * * * * * * * * * * * * * * * * * * * * * * //

dimensions      [1 0 -1 0 0 0 0];

internalField   nonuniform List<scalar> 
24170
(
1.7949e-06
3.20443e-06
4.78669e-07
2.52858e-06
-2.79546e-07
1.95501e-06
-7.60511e-07
1.65984e-06
-1.17781e-06
1.58242e-06
-1.36469e-06
1.33445e-06
-1.70893e-06
1.47699e-06
-1.72676e-06
1.13142e-06
-2.05124e-06
1.41661e-06
-1.84258e-06
8.58492e-07
-2.17435e-06
1.36951e-06
-1.76376e-06
5.97347e-07
-2.02961e-06
1.23598e-06
-1.18573e-06
8.92853e-08
-8.94907e-07
5.94289e-07
2.5481e-06
-2.60632e-06
3.3675e-06
-2.33171e-08
4.12412e-06
-6.13081e-08
3.48072e-06
5.26385e-06
2.43673e-06
4.94714e-06
1.521e-06
4.21908e-06
8.00716e-07
3.70914e-06
2.22551e-07
3.46964e-06
-3.23222e-07
3.17368e-06
-6.25613e-07
3.05392e-06
-9.34483e-07
2.69668e-06
-1.21755e-06
2.93013e-06
-1.15353e-06
1.99906e-06
-1.48544e-06
2.87108e-06
-1.10542e-06
1.35445e-06
-1.45207e-06
2.67597e-06
-9.10845e-07
5.96678e-07
-1.42039e-06
2.10143e-06
-6.14514e-07
-2.47848e-06
-5.41818e-07
7.82729e-07
4.72224e-06
-3.67071e-07
4.16579e-06
7.18312e-06
3.65653e-06
6.96303e-06
2.9926e-06
6.35994e-06
2.40507e-06
5.74829e-06
1.75503e-06
5.55307e-06
1.34804e-06
4.99152e-06
8.71212e-07
4.92745e-06
6.46169e-07
4.29143e-06
3.57741e-07
4.57029e-06
3.34661e-07
3.33456e-06
-1.32841e-07
4.62696e-06
1.71798e-07
2.28996e-06
-4.59424e-07
4.51355e-06
-9.60139e-08
1.38183e-06
-1.16107e-06
4.26675e-06
-7.01305e-07
-1.89987e-06
-6.12417e-07
1.66565e-06
4.23215e-06
7.80721e-07
4.4745e-06
9.41764e-06
4.4681e-06
8.60952e-06
3.80894e-06
8.63617e-06
3.59712e-06
7.53925e-06
2.85461e-06
7.86375e-06
2.73533e-06
6.64554e-06
1.98741e-06
7.20097e-06
2.07801e-06
5.69114e-06
1.38089e-06
6.74112e-06
1.47246e-06
4.67404e-06
9.95675e-07
6.50627e-06
9.85247e-07
3.65464e-06
6.10023e-07
6.20432e-06
8.24413e-07
2.42336e-06
3.67239e-07
5.92667e-06
2.93381e-07
-6.85741e-07
-1.11895e-06
4.1564e-06
5.66583e-06
-1.53083e-06
4.61484e-06
1.24209e-05
4.74091e-06
1.02594e-05
3.91439e-06
1.12217e-05
3.88744e-06
9.28004e-06
3.09179e-06
1.03637e-05
3.10518e-06
8.3023e-06
2.27827e-06
9.68487e-06
2.38224e-06
7.21169e-06
1.70452e-06
9.01809e-06
1.83346e-06
6.10701e-06
1.46119e-06
8.40242e-06
1.38919e-06
5.20394e-06
1.33237e-06
7.69239e-06
1.24577e-06
3.88421e-06
1.37617e-06
7.10425e-06
7.18497e-08
1.868e-06
-1.41236e-06
6.82743e-06
6.80606e-06
-1.4118e-06
5.07095e-06
1.54969e-05
4.92051e-06
1.23281e-05
4.07222e-06
1.39642e-05
3.90298e-06
1.13032e-05
3.08561e-06
1.30185e-05
2.97517e-06
1.02222e-05
2.22582e-06
1.22239e-05
2.24879e-06
8.94885e-06
1.81303e-06
1.11828e-05
1.91291e-06
7.69922e-06
1.73569e-06
1.02308e-05
1.64598e-06
6.89467e-06
1.71426e-06
9.17787e-06
1.39456e-06
5.69715e-06
1.50857e-06
8.40663e-06
1.17856e-07
4.6183e-06
4.08693e-08
8.19929e-06
7.84496e-06
2.55287e-07
5.81168e-06
1.84845e-05
5.4117e-06
1.4784e-05
4.5836e-06
1.68128e-05
4.31308e-06
1.35617e-05
3.54743e-06
1.57482e-05
3.27662e-06
1.24338e-05
2.7067e-06
1.47101e-05
2.49795e-06
1.1046e-05
2.30464e-06
1.32303e-05
2.12798e-06
9.69466e-06
2.17084e-06
1.19617e-05
1.87205e-06
8.91735e-06
1.92671e-06
1.07977e-05
1.36768e-06
7.86755e-06
1.50034e-06
9.79747e-06
4.16573e-07
7.1788e-06
8.37245e-07
9.18322e-06
9.28676e-06
7.50775e-07
4.53427e-06
2.06614e-05
4.22895e-06
1.66338e-05
3.67524e-06
1.88859e-05
3.27833e-06
1.5452e-05
2.82476e-06
1.76804e-05
2.45418e-06
1.42638e-05
2.26165e-06
1.63479e-05
1.95178e-06
1.27801e-05
1.95358e-06
1.46305e-05
1.60234e-06
1.14215e-05
1.65794e-06
1.32493e-05
1.36063e-06
1.05207e-05
1.45982e-06
1.1969e-05
1.03782e-06
9.51357e-06
1.16996e-06
1.08257e-05
5.65725e-07
8.91184e-06
8.54466e-07
9.96844e-06
1.01175e-05
1.05813e-06
5.28547e-06
2.31939e-05
4.71151e-06
1.89299e-05
4.20279e-06
2.10917e-05
3.69015e-06
1.76323e-05
3.36016e-06
1.96627e-05
2.87346e-06
1.63846e-05
2.79315e-06
1.80452e-05
2.32716e-06
1.48457e-05
2.34841e-06
1.61825e-05
1.9045e-06
1.34138e-05
1.98432e-06
1.46811e-05
1.59324e-06
1.23862e-05
1.66855e-06
1.3325e-05
1.28194e-06
1.12846e-05
1.41193e-06
1.20139e-05
9.69631e-07
1.06366e-05
1.15295e-06
1.10057e-05
1.10717e-05
1.37194e-06
6.38584e-06
2.5893e-05
5.49029e-06
2.17184e-05
4.98649e-06
2.34567e-05
4.22558e-06
2.02286e-05
4.00328e-06
2.17017e-05
3.31502e-06
1.88756e-05
3.27737e-06
1.98666e-05
2.67136e-06
1.72221e-05
2.70908e-06
1.78879e-05
2.11972e-06
1.57243e-05
2.23e-06
1.6252e-05
1.79942e-06
1.44591e-05
1.85705e-06
1.4863e-05
1.48217e-06
1.32061e-05
1.64457e-06
1.33349e-05
1.38912e-06
1.23309e-05
1.47949e-06
1.22901e-05
1.21213e-05
1.74931e-06
7.3667e-06
2.88129e-05
6.32634e-06
2.47932e-05
5.88087e-06
2.58965e-05
4.90734e-06
2.31741e-05
4.66037e-06
2.38978e-05
3.81939e-06
2.16595e-05
3.70583e-06
2.19035e-05
3.0642e-06
1.97806e-05
2.99125e-06
1.98525e-05
2.40033e-06
1.8187e-05
2.42891e-06
1.80534e-05
1.98644e-06
1.66946e-05
2.1091e-06
1.64871e-05
1.75923e-06
1.52529e-05
1.89395e-06
1.48381e-05
1.70097e-06
1.41112e-05
1.82281e-06
1.36946e-05
1.33069e-05
2.1048e-06
8.71953e-06
3.1682e-05
7.4226e-06
2.81954e-05
6.90238e-06
2.84703e-05
5.72236e-06
2.63973e-05
5.33813e-06
2.63013e-05
4.3688e-06
2.46504e-05
4.15665e-06
2.41196e-05
3.43211e-06
2.25115e-05
3.31074e-06
2.19618e-05
2.76304e-06
2.0707e-05
2.73808e-06
2.00153e-05
2.35175e-06
1.89861e-05
2.42989e-06
1.827e-05
2.20371e-06
1.72958e-05
2.18252e-06
1.66222e-05
2.13192e-06
1.58739e-05
2.23927e-06
1.52411e-05
1.47024e-05
2.44155e-06
1.00715e-05
3.46779e-05
8.55585e-06
3.1758e-05
7.85826e-06
3.11604e-05
6.6067e-06
2.96408e-05
6.00132e-06
2.88792e-05
5.11364e-06
2.75244e-05
4.63048e-06
2.65853e-05
3.98793e-06
2.51497e-05
3.72038e-06
2.42212e-05
3.26214e-06
2.31514e-05
3.02855e-06
2.22153e-05
2.72786e-06
2.12291e-05
2.61576e-06
2.02921e-05
2.43691e-06
1.93485e-05
2.40339e-06
1.84861e-05
2.40054e-06
1.7661e-05
2.51657e-06
1.6859e-05
1.62027e-05
2.70078e-06
1.18304e-05
3.80016e-05
1.00091e-05
3.53549e-05
8.96012e-06
3.39383e-05
7.76936e-06
3.25664e-05
6.9748e-06
3.14131e-05
6.0798e-06
3.01872e-05
5.39289e-06
2.90619e-05
4.65116e-06
2.77128e-05
4.26708e-06
2.64469e-05
3.84322e-06
2.54294e-05
3.5157e-06
2.44015e-05
3.26154e-06
2.33361e-05
3.0747e-06
2.23208e-05
2.93644e-06
2.13078e-05
2.87915e-06
2.03394e-05
2.8937e-06
1.94117e-05
2.9489e-06
1.85335e-05
1.76848e-05
3.15898e-06
1.36003e-05
4.07807e-05
1.19035e-05
3.82141e-05
1.05673e-05
3.64166e-05
9.27221e-06
3.50329e-05
8.19602e-06
3.37025e-05
7.15322e-06
3.24982e-05
6.28056e-06
3.12607e-05
5.43765e-06
2.99419e-05
4.79629e-06
2.85297e-05
4.31889e-06
2.73958e-05
3.90524e-06
2.63461e-05
3.60254e-06
2.5198e-05
3.41187e-06
2.40929e-05
3.29948e-06
2.30114e-05
3.27137e-06
2.19638e-05
3.33659e-06
2.09372e-05
3.46573e-06
1.99855e-05
1.9104e-05
3.61278e-06
1.59982e-05
4.30024e-05
1.40052e-05
4.02566e-05
1.22363e-05
3.82662e-05
1.07334e-05
3.66965e-05
9.43793e-06
3.52524e-05
8.35312e-06
3.39405e-05
7.45373e-06
3.26244e-05
6.62148e-06
3.13429e-05
5.75696e-06
3.00707e-05
5.17942e-06
2.87496e-05
4.6861e-06
2.77095e-05
4.29846e-06
2.6537e-05
4.03462e-06
2.53797e-05
3.87813e-06
2.42494e-05
3.80959e-06
2.31613e-05
3.80984e-06
2.21025e-05
3.89339e-06
2.10985e-05
2.01585e-05
4.05597e-06
1.839e-05
4.3334e-05
1.6296e-05
4.06152e-05
1.4356e-05
3.85769e-05
1.25593e-05
3.70258e-05
1.09066e-05
3.56064e-05
9.48421e-06
3.42435e-05
8.26663e-06
3.29027e-05
7.20237e-06
3.16405e-05
6.29861e-06
3.03881e-05
5.45557e-06
2.91749e-05
4.884e-06
2.80268e-05
4.42909e-06
2.68925e-05
4.06486e-06
2.57809e-05
3.80435e-06
2.46754e-05
3.62963e-06
2.36127e-05
3.53038e-06
2.25785e-05
3.52789e-06
2.15644e-05
2.0622e-05
3.60104e-06
1.86591e-05
4.15605e-05
1.67297e-05
3.88719e-05
1.48758e-05
3.69498e-05
1.31121e-05
3.55434e-05
1.14195e-05
3.42851e-05
9.86598e-06
3.3031e-05
8.48663e-06
3.17583e-05
7.29907e-06
3.05316e-05
6.31417e-06
2.93153e-05
5.5017e-06
2.81474e-05
4.84807e-06
2.70552e-05
4.26035e-06
2.60631e-05
3.8121e-06
2.49993e-05
3.48025e-06
2.39647e-05
3.23458e-06
2.29795e-05
3.07376e-06
2.2017e-05
3.00655e-06
2.10501e-05
2.01299e-05
3.04234e-06
1.65352e-05
3.84181e-05
1.47351e-05
3.59537e-05
1.30119e-05
3.41637e-05
1.14501e-05
3.28436e-05
1.00382e-05
3.16826e-05
8.8041e-06
3.05141e-05
7.70875e-06
2.93497e-05
6.74487e-06
2.82338e-05
5.88976e-06
2.71551e-05
5.10967e-06
2.61403e-05
4.42938e-06
2.51779e-05
3.86758e-06
2.42838e-05
3.28402e-06
2.34492e-05
2.85591e-06
2.24597e-05
2.56573e-06
2.15204e-05
2.40848e-06
2.0604e-05
2.32768e-06
1.9722e-05
1.88498e-05
2.3505e-06
1.4392e-05
3.45548e-05
1.29277e-05
3.22113e-05
1.159e-05
3.05047e-05
1.03163e-05
2.93524e-05
9.19033e-06
2.82942e-05
8.1405e-06
2.72967e-05
7.12622e-06
2.63281e-05
6.20002e-06
2.53702e-05
5.33406e-06
2.44612e-05
4.57831e-06
2.35671e-05
3.94862e-06
2.27076e-05
3.43971e-06
2.19041e-05
3.09585e-06
2.11203e-05
2.69135e-06
2.03847e-05
2.40344e-06
1.9522e-05
2.21238e-06
1.86879e-05
2.09064e-06
1.79051e-05
1.71333e-05
2.03091e-06
1.2788e-05
3.01094e-05
1.17499e-05
2.79363e-05
1.0665e-05
2.6463e-05
9.61703e-06
2.54851e-05
8.62463e-06
2.46141e-05
7.62134e-06
2.38454e-05
6.64417e-06
2.30662e-05
5.76029e-06
2.22498e-05
4.94169e-06
2.14817e-05
4.24441e-06
2.06912e-05
3.65577e-06
1.99368e-05
3.17244e-06
1.92314e-05
2.82038e-06
1.85278e-05
2.51677e-06
1.79253e-05
2.20453e-06
1.72654e-05
1.95308e-06
1.65394e-05
1.78762e-06
1.58403e-05
1.51722e-05
1.6772e-06
1.14939e-05
2.58543e-05
1.04671e-05
2.37775e-05
9.52475e-06
2.23836e-05
8.64822e-06
2.15398e-05
7.77011e-06
2.08794e-05
6.90344e-06
2.02943e-05
6.05994e-06
1.96923e-05
5.24382e-06
1.90557e-05
4.49828e-06
1.84105e-05
3.81614e-06
1.77608e-05
3.21837e-06
1.71188e-05
2.71964e-06
1.65081e-05
2.30959e-06
1.5908e-05
2.03761e-06
1.53465e-05
1.81111e-06
1.48202e-05
1.5906e-06
1.42516e-05
1.44854e-06
1.36359e-05
1.30617e-05
1.36148e-06
1.04702e-05
2.14239e-05
9.67459e-06
1.96581e-05
8.82262e-06
1.84686e-05
7.98441e-06
1.7795e-05
7.15691e-06
1.72947e-05
6.3796e-06
1.68381e-05
5.63858e-06
1.63804e-05
4.91725e-06
1.58992e-05
4.24435e-06
1.53888e-05
3.61912e-06
1.48715e-05
3.06675e-06
1.43364e-05
2.59513e-06
1.38269e-05
2.20009e-06
1.33211e-05
1.90286e-06
1.28358e-05
1.7011e-06
1.23728e-05
1.52301e-06
1.19378e-05
1.35738e-06
1.14579e-05
1.09815e-05
1.23338e-06
9.40754e-06
1.74286e-05
8.74481e-06
1.57558e-05
8.03112e-06
1.47509e-05
7.27693e-06
1.4271e-05
6.52044e-06
1.39242e-05
5.78779e-06
1.36007e-05
5.10293e-06
1.32537e-05
4.47744e-06
1.28704e-05
3.90622e-06
1.24701e-05
3.38477e-06
1.20648e-05
2.91326e-06
1.16417e-05
2.4934e-06
1.12451e-05
2.12801e-06
1.08403e-05
1.82616e-06
1.045e-05
1.58765e-06
1.007e-05
1.42613e-06
9.70316e-06
1.27316e-06
9.3501e-06
8.9854e-06
1.13917e-06
8.41467e-06
1.36175e-05
7.98824e-06
1.2001e-05
7.39549e-06
1.12753e-05
6.70003e-06
1.10299e-05
5.97227e-06
1.08522e-05
5.26997e-06
1.06366e-05
4.63667e-06
1.03604e-05
4.07628e-06
1.00463e-05
3.57458e-06
9.73151e-06
3.11666e-06
9.4291e-06
2.69504e-06
9.1151e-06
2.3167e-06
8.82153e-06
1.98459e-06
8.51342e-06
1.70597e-06
8.21087e-06
1.48142e-06
7.91243e-06
1.31414e-06
7.62019e-06
1.20253e-06
7.33579e-06
7.08267e-06
1.09975e-06
7.50635e-06
9.98106e-06
7.10016e-06
8.6078e-06
6.53377e-06
8.1425e-06
5.94061e-06
8.04114e-06
5.36825e-06
7.96028e-06
4.83203e-06
7.82672e-06
4.32464e-06
7.64596e-06
3.83754e-06
7.43721e-06
3.36918e-06
7.23308e-06
2.91574e-06
7.04638e-06
2.48324e-06
6.84217e-06
2.07917e-06
6.65088e-06
1.72111e-06
6.42542e-06
1.41674e-06
6.19587e-06
1.1653e-06
5.96723e-06
9.69273e-07
5.73869e-06
8.20467e-07
5.5205e-06
5.31449e-06
7.33632e-07
6.87078e-06
6.65491e-06
6.50163e-06
5.55171e-06
6.00599e-06
5.30022e-06
5.45804e-06
5.35292e-06
4.88097e-06
5.40417e-06
4.30458e-06
5.37587e-06
3.7418e-06
5.29093e-06
3.20073e-06
5.1728e-06
2.69349e-06
5.04998e-06
2.22419e-06
4.94146e-06
1.79736e-06
4.81176e-06
1.41843e-06
4.68923e-06
1.08476e-06
4.5338e-06
7.90871e-07
4.37796e-06
5.37327e-07
4.21924e-06
3.2284e-07
4.0585e-06
1.51119e-07
3.89993e-06
3.75199e-06
1.94425e-08
6.03752e-06
3.65183e-06
5.73628e-06
2.77713e-06
5.18784e-06
2.85142e-06
4.54007e-06
3.09244e-06
3.86485e-06
3.26215e-06
3.19087e-06
3.32606e-06
2.53327e-06
3.32128e-06
1.91075e-06
3.26767e-06
1.33747e-06
3.19742e-06
8.26209e-07
3.13032e-06
3.7155e-07
3.0482e-06
-1.54319e-08
2.96229e-06
-3.7063e-07
2.87824e-06
-6.75142e-07
2.77295e-06
-9.45113e-07
2.67846e-06
-1.17728e-06
2.57498e-06
-1.37421e-06
2.4727e-06
2.37832e-06
-1.53706e-06
5.38896e-06
9.07713e-07
4.60746e-06
8.08024e-07
3.60156e-06
1.17034e-06
2.64498e-06
1.44259e-06
1.78906e-06
1.59168e-06
1.03094e-06
1.64031e-06
3.61808e-07
1.63222e-06
-2.4501e-07
1.60495e-06
-7.77182e-07
1.55095e-06
-1.24595e-06
1.51258e-06
-1.65441e-06
1.46325e-06
-2.01002e-06
1.4176e-06
-2.31342e-06
1.37334e-06
-2.57989e-06
1.3215e-06
-2.80564e-06
1.27437e-06
-2.99955e-06
1.22415e-06
-3.15786e-06
1.1683e-06
1.12991e-06
-3.29374e-06
3.44409e-06
1.81993e-06
6.22203e-07
-2.33281e-07
-8.69689e-07
-1.38431e-06
-1.83101e-06
-2.22647e-06
-2.59553e-06
-2.92165e-06
-3.21515e-06
-3.47245e-06
-3.69307e-06
-3.88603e-06
-4.04866e-06
-4.18646e-06
-4.30794e-06
-4.4003e-06
-6.08594e-07
-3.06911e-07
-1.28183e-06
-2.65008e-07
-1.84863e-06
-3.75355e-07
-2.28224e-06
-5.08947e-07
-2.49482e-06
-7.28006e-07
-2.54525e-06
-8.93601e-07
-2.32617e-06
-1.16198e-06
-1.90573e-06
-1.35824e-06
-1.28829e-06
-1.55256e-06
-5.33001e-07
-1.68758e-06
3.62891e-07
-1.82387e-06
1.26473e-06
-1.82719e-06
2.08514e-06
-1.73861e-06
2.95687e-06
-1.78285e-06
3.80681e-06
-1.7544e-06
4.52906e-06
-1.61866e-06
5.10503e-06
-1.46508e-06
5.58772e-06
-1.36676e-06
6.02221e-06
-1.30767e-06
6.40538e-06
-1.23968e-06
6.74257e-06
-1.18113e-06
6.99251e-06
-1.07888e-06
7.10875e-06
-9.33675e-07
7.11651e-06
-8.12312e-07
6.97628e-06
-6.49351e-07
6.73737e-06
-5.33651e-07
6.3926e-06
-4.10721e-07
5.87232e-06
-2.19858e-07
5.27847e-06
-1.24497e-07
4.49701e-06
8.1702e-08
3.67848e-06
1.39336e-07
2.74831e-06
2.64189e-07
1.78942e-06
3.05687e-07
1.24554e-06
-8.25037e-08
9.42504e-07
-2.96132e-07
8.13828e-07
-4.46253e-07
9.5773e-07
-6.94603e-07
1.30319e-06
-8.79898e-07
1.74924e-06
-9.66188e-07
2.28049e-06
-1.02961e-06
2.99695e-06
-1.19488e-06
4.04241e-06
-1.50706e-06
4.88281e-06
-1.25375e-06
5.68579e-06
-1.17507e-06
6.71211e-06
-1.41501e-06
7.30717e-06
-9.79229e-07
7.24948e-06
-2.48077e-07
7.23945e-06
-2.41177e-07
7.68121e-06
-7.08529e-07
8.33743e-06
-9.52285e-07
8.93485e-06
-8.59732e-07
9.48305e-06
-7.43948e-07
9.77828e-06
-4.6746e-07
9.31019e-06
2.8723e-07
7.91384e-06
1.26693e-06
6.12448e-06
1.73589e-06
4.37172e-06
1.73718e-06
2.82719e-06
1.54863e-06
1.49423e-06
1.35705e-06
3.6478e-07
1.17447e-06
-5.75414e-07
1.00614e-06
-1.35077e-06
8.61676e-07
-1.97573e-06
7.30406e-07
-2.44838e-06
5.9695e-07
-2.79265e-06
4.8678e-07
-3.04948e-06
4.16631e-07
-3.2271e-06
3.53923e-07
-3.32399e-06
2.89111e-07
-3.38558e-06
2.6996e-07
-3.38491e-06
2.24129e-07
-3.33913e-06
1.95325e-07
-3.24573e-06
1.65695e-07
-3.12456e-06
1.57814e-07
-2.9828e-06
1.59399e-07
-2.85113e-06
1.95042e-07
-2.72048e-06
2.25115e-07
-2.56767e-06
2.36325e-07
-2.39244e-06
2.52588e-07
-2.26655e-06
3.46638e-07
-2.18909e-06
4.46407e-07
-2.08541e-06
4.79347e-07
-2.04247e-06
6.08873e-07
-1.9056e-06
5.91536e-07
-1.75832e-06
6.66274e-07
-1.71856e-06
8.69207e-07
-1.68101e-06
9.73553e-07
-1.54745e-06
9.85629e-07
-1.43397e-06
1.12265e-06
-1.38845e-06
1.3127e-06
-1.2707e-06
1.36422e-06
-1.15676e-06
1.49678e-06
-1.04701e-06
1.63118e-06
-9.3749e-07
1.76059e-06
-7.8394e-07
1.84377e-06
-6.14216e-07
1.94855e-06
-3.97306e-07
2.01273e-06
-1.75105e-07
2.1075e-06
4.23989e-08
2.20051e-06
2.68275e-07
2.2672e-06
5.25031e-07
2.30105e-06
7.91983e-07
2.3461e-06
1.03496e-06
2.41479e-06
1.30825e-06
2.41676e-06
1.59583e-06
2.42357e-06
1.90694e-06
2.40966e-06
2.23671e-06
2.39034e-06
2.54886e-06
2.39287e-06
2.86719e-06
2.36698e-06
3.20106e-06
2.32369e-06
3.53776e-06
2.2853e-06
3.86047e-06
2.25702e-06
4.14593e-06
2.24814e-06
4.40011e-06
2.2277e-06
4.59773e-06
2.23082e-06
4.75927e-06
2.20533e-06
4.93857e-06
2.1204e-06
5.17667e-06
1.98326e-06
5.52046e-06
1.78927e-06
5.96092e-06
1.5973e-06
6.43727e-06
1.4655e-06
6.97607e-06
1.29897e-06
7.55397e-06
1.13974e-06
8.11351e-06
1.02909e-06
8.71197e-06
8.67658e-07
9.43522e-06
6.29415e-07
1.01444e-05
5.3209e-07
1.08543e-05
4.28638e-07
1.15893e-05
3.002e-07
1.22398e-05
2.54248e-07
1.282e-05
1.89393e-07
1.35021e-05
-2.38658e-08
1.44071e-05
-3.56836e-07
1.55087e-05
-6.88717e-07
1.65057e-05
-7.38721e-07
1.74146e-05
-8.06618e-07
1.81909e-05
-8.31712e-07
1.89844e-05
-1.03704e-06
1.9729e-05
-1.17517e-06
2.06262e-05
-1.50425e-06
2.1362e-05
-1.51477e-06
2.18707e-05
-1.42106e-06
2.22033e-05
-1.32459e-06
2.23211e-05
-1.25757e-06
2.18851e-05
-9.29848e-07
2.1038e-05
-7.1563e-07
1.98745e-05
-6.1757e-07
1.85948e-05
-7.75326e-07
1.74227e-05
-1.1569e-06
1.70706e-05
-2.1904e-06
1.78798e-05
-3.60202e-06
1.78105e-05
-3.09015e-06
1.7025e-05
-2.76095e-06
1.63733e-05
-3.16014e-06
1.63533e-05
-3.96502e-06
1.8109e-05
-6.10162e-06
1.74273e-05
-4.00935e-06
1.68747e-05
-4.35018e-06
1.69578e-05
-5.2863e-06
1.61071e-05
-4.59159e-06
1.5755e-05
-5.25551e-06
1.67639e-05
-6.82835e-06
1.58217e-05
-5.04353e-06
1.48319e-05
-5.16711e-06
1.4213e-05
-5.81844e-06
1.27852e-05
-5.01817e-06
1.1135e-05
-4.71204e-06
9.04958e-06
-4.20633e-06
7.60527e-06
-4.84661e-06
6.19416e-06
-4.84825e-06
4.39105e-06
-4.44203e-06
3.02983e-06
-4.86013e-06
1.73267e-06
-4.79984e-06
6.86856e-07
-5.03892e-06
-1.62918e-07
-5.12975e-06
-2.92927e-06
-3.02976e-06
-6.60465e-06
-2.04775e-06
-9.19374e-06
-3.38305e-06
-3.6819e-06
-1.18637e-05
-1.89173e-06
-8.0373e-06
-2.5324e-06
-5.2909e-06
1.51758e-07
-1.33466e-06
-5.16675e-08
-9.86087e-07
-3.30086e-07
-1.03917e-06
-5.48374e-07
-1.24081e-06
-7.23776e-07
-1.50722e-06
-6.88625e-07
-1.87696e-06
-4.38933e-07
-2.34965e-06
6.54405e-08
-2.78661e-06
7.97494e-07
-3.20228e-06
1.55204e-06
-3.35365e-06
2.36861e-06
-3.53272e-06
3.31127e-06
-3.66966e-06
4.07092e-06
-3.39437e-06
4.82199e-06
-3.41619e-06
5.57033e-06
-3.38122e-06
6.23532e-06
-3.15216e-06
6.83972e-06
-2.93013e-06
7.37313e-06
-2.75647e-06
7.83085e-06
-2.62391e-06
8.26293e-06
-2.50698e-06
8.64234e-06
-2.39148e-06
8.90648e-06
-2.15857e-06
9.14737e-06
-1.95811e-06
9.28181e-06
-1.74177e-06
9.34424e-06
-1.46837e-06
9.37146e-06
-1.31627e-06
9.17249e-06
-9.67942e-07
9.01025e-06
-7.55955e-07
8.68868e-06
-5.17612e-07
8.28916e-06
-2.14061e-07
7.97354e-06
-1.84669e-07
7.32929e-06
2.60367e-07
6.92741e-06
7.81245e-08
6.25266e-06
8.13592e-09
5.23508e-06
1.38394e-07
4.39424e-06
-1.96193e-07
3.78646e-06
-6.27057e-07
3.54918e-06
-1.12808e-06
3.52147e-06
-1.41794e-06
3.75475e-06
-1.72859e-06
4.20525e-06
-2.08798e-06
5.24179e-06
-3.00365e-06
6.57973e-06
-3.0253e-06
7.61904e-06
-2.53541e-06
8.78485e-06
-2.84463e-06
9.93087e-06
-2.5052e-06
1.07254e-05
-1.45549e-06
1.11205e-05
-8.13755e-07
1.09838e-05
-7.11202e-07
9.78229e-06
-1.88216e-07
7.54961e-06
9.07037e-07
4.74268e-06
1.80914e-06
2.00461e-06
2.13452e-06
-1.23873e-07
2.31657e-06
-1.50361e-06
2.579e-06
-2.51972e-06
2.71012e-06
-3.39514e-06
2.59362e-06
-4.20438e-06
2.36078e-06
-4.91301e-06
2.0902e-06
-5.501e-06
1.80806e-06
-5.98012e-06
1.55137e-06
-6.31267e-06
1.27961e-06
-6.48686e-06
1.00847e-06
-6.57707e-06
8.08888e-07
-6.59399e-06
6.41246e-07
-6.5191e-06
4.94841e-07
-6.41015e-06
4.1466e-07
-6.2638e-06
3.28187e-07
-6.05247e-06
2.59346e-07
-5.78422e-06
1.71475e-07
-5.4886e-06
1.29787e-07
-5.16389e-06
8.6761e-08
-4.82514e-06
8.22943e-08
-4.49408e-06
1.11438e-07
-4.17284e-06
1.80038e-07
-3.85912e-06
2.44861e-07
-3.55087e-06
2.92596e-07
-3.23388e-06
3.35426e-07
-2.98973e-06
5.43299e-07
-2.77728e-06
7.23263e-07
-2.53064e-06
7.78654e-07
-2.34026e-06
1.02907e-06
-2.1298e-06
1.06251e-06
-1.97588e-06
1.27214e-06
-1.80397e-06
1.54896e-06
-1.62511e-06
1.7464e-06
-1.43731e-06
1.85126e-06
-1.25198e-06
2.10196e-06
-1.07578e-06
2.42271e-06
-8.53593e-07
2.54709e-06
-6.2317e-07
2.79722e-06
-4.00896e-07
3.0716e-06
-1.74328e-07
3.3239e-06
8.32422e-08
3.49923e-06
3.53279e-07
3.72223e-06
6.32597e-07
3.89407e-06
9.40603e-07
4.06978e-06
1.28073e-06
4.2262e-06
1.59401e-06
4.39535e-06
1.91447e-06
4.4876e-06
2.26443e-06
4.55852e-06
2.59245e-06
4.69196e-06
2.9312e-06
4.7122e-06
3.25866e-06
4.75812e-06
3.58645e-06
4.76096e-06
3.83561e-06
4.82994e-06
4.06762e-06
4.84329e-06
4.26848e-06
4.83913e-06
4.4588e-06
4.79134e-06
4.70059e-06
4.68542e-06
4.95332e-06
4.62704e-06
5.21555e-06
4.57927e-06
5.42037e-06
4.57267e-06
5.60613e-06
4.54221e-06
5.80842e-06
4.4413e-06
6.07e-06
4.23359e-06
6.35576e-06
3.98598e-06
6.74417e-06
3.57158e-06
7.20866e-06
3.18048e-06
7.73336e-06
2.86414e-06
8.28587e-06
2.55598e-06
8.97859e-06
2.15169e-06
9.6887e-06
1.86132e-06
1.02902e-05
1.60431e-06
1.09263e-05
1.20078e-06
1.16122e-05
9.50658e-07
1.23561e-05
7.02773e-07
1.3222e-05
4.28957e-07
1.39701e-05
3.70774e-07
1.45202e-05
2.61907e-07
1.53173e-05
-3.14905e-07
1.65068e-05
-1.00396e-06
1.82387e-05
-1.75849e-06
2.01673e-05
-1.98194e-06
2.16605e-05
-1.80939e-06
2.27275e-05
-1.68194e-06
2.36688e-05
-2.11634e-06
2.42062e-05
-2.31009e-06
2.44204e-05
-2.70473e-06
2.4214e-05
-2.59977e-06
2.36922e-05
-2.26439e-06
2.3277e-05
-2.01834e-06
2.25824e-05
-1.73643e-06
2.12763e-05
-1.15475e-06
1.95727e-05
-5.96611e-07
1.74026e-05
-2.98972e-07
1.53792e-05
-1.0991e-06
1.46573e-05
-2.96667e-06
1.52269e-05
-5.30021e-06
1.65212e-05
-7.64588e-06
1.69372e-05
-6.66893e-06
1.60734e-05
-5.71151e-06
1.49223e-05
-6.21502e-06
1.61634e-05
-9.2493e-06
1.89563e-05
-1.28394e-05
1.80719e-05
-7.94214e-06
1.7886e-05
-9.20143e-06
1.86155e-05
-1.12595e-05
1.69748e-05
-8.95449e-06
1.6747e-05
-1.07387e-05
1.95011e-05
-1.4524e-05
1.91365e-05
-1.03617e-05
1.83128e-05
-1.05738e-05
1.82194e-05
-1.2651e-05
1.66006e-05
-1.08276e-05
1.43902e-05
-9.83064e-06
1.19309e-05
-8.86992e-06
1.04543e-05
-1.04327e-05
8.70633e-06
-1.0108e-05
6.83677e-06
-9.76787e-06
5.73994e-06
-1.09686e-05
4.37054e-06
-1.05185e-05
2.4822e-06
-1.03551e-05
6.89236e-07
-1.05056e-05
-3.21442e-06
-6.06818e-06
-7.82234e-06
-3.90852e-06
-1.09029e-05
-7.04081e-06
-3.94412e-06
-2.58447e-05
1.32899e-06
-2.15389e-05
-6.11394e-06
-2.12217e-06
2.8377e-07
-2.45218e-06
5.59519e-07
-2.13727e-06
6.47361e-07
-2.03393e-06
6.32953e-07
-2.14719e-06
7.21554e-07
-2.51156e-06
1.04944e-06
-3.10329e-06
1.59874e-06
-3.78377e-06
2.24209e-06
-4.30458e-06
2.97171e-06
-4.78806e-06
3.7409e-06
-5.00006e-06
4.40115e-06
-5.0485e-06
4.9899e-06
-5.11295e-06
5.61519e-06
-4.88635e-06
6.15114e-06
-4.79646e-06
6.64691e-06
-4.73297e-06
7.0813e-06
-4.42211e-06
7.52521e-06
-4.21601e-06
7.97182e-06
-4.04846e-06
8.41508e-06
-3.88118e-06
8.79975e-06
-3.71346e-06
9.11739e-06
-3.51084e-06
9.43485e-06
-3.27562e-06
9.7106e-06
-3.02532e-06
9.88603e-06
-2.67227e-06
1.00635e-05
-2.40397e-06
1.01268e-05
-2.11364e-06
1.01031e-05
-1.64683e-06
1.00681e-05
-1.43104e-06
9.76142e-06
-8.78233e-07
9.6864e-06
-7.52937e-07
9.35404e-06
-5.19831e-07
9.15349e-06
-1.6705e-07
8.941e-06
-2.59989e-07
8.29505e-06
7.88596e-08
8.10798e-06
-2.05421e-07
7.81727e-06
-3.96803e-07
7.44157e-06
-7.23925e-07
6.72381e-06
-8.63129e-07
6.28133e-06
-1.44972e-06
6.46988e-06
-2.36497e-06
6.5581e-06
-2.51712e-06
6.9335e-06
-3.68921e-06
8.33696e-06
-4.80725e-06
9.32469e-06
-3.86042e-06
9.20289e-06
-2.96023e-06
8.53317e-06
-2.0716e-06
7.48035e-06
-7.1151e-07
5.69466e-06
6.73865e-07
3.21865e-06
1.52868e-06
8.06116e-07
2.02549e-06
-9.54759e-07
2.49588e-06
-2.21182e-06
2.93098e-06
-3.34863e-06
3.16722e-06
-4.34578e-06
3.2328e-06
-5.01512e-06
3.19131e-06
-5.37968e-06
3.03916e-06
-5.61912e-06
2.81908e-06
-5.85518e-06
2.60451e-06
-6.03539e-06
2.29984e-06
-6.19527e-06
2.01835e-06
-6.27655e-06
1.703e-06
-6.29423e-06
1.38567e-06
-6.27297e-06
1.09164e-06
-6.18734e-06
8.41902e-07
-6.04771e-06
6.34902e-07
-5.86807e-06
4.62693e-07
-5.63403e-06
3.39991e-07
-5.37293e-06
2.38875e-07
-5.06937e-06
1.39734e-07
-4.75849e-06
5.67202e-08
-4.41736e-06
-3.058e-09
-4.07008e-06
-3.94992e-08
-3.72238e-06
-3.0212e-08
-3.36825e-06
8.66597e-09
-3.01858e-06
1.00526e-07
-2.67414e-06
1.93775e-07
-2.36732e-06
3.06668e-07
-2.07267e-06
3.94217e-07
-1.87316e-06
7.33922e-07
-1.67742e-06
9.59605e-07
-1.43471e-06
1.01702e-06
-1.26143e-06
1.3967e-06
-1.11722e-06
1.52661e-06
-1.04079e-06
1.8775e-06
-8.87329e-07
2.15324e-06
-7.59822e-07
2.46942e-06
-6.36332e-07
2.67628e-06
-5.05128e-07
3.01668e-06
-3.40657e-07
3.41165e-06
-1.70256e-07
3.64155e-06
3.30764e-08
3.96854e-06
2.8451e-07
4.31036e-06
5.1913e-07
4.69697e-06
7.91006e-07
4.93806e-06
1.06566e-06
5.27024e-06
1.37997e-06
5.51706e-06
1.72325e-06
5.77309e-06
2.11064e-06
5.98202e-06
2.49453e-06
6.23061e-06
2.88253e-06
6.38531e-06
3.24471e-06
6.54539e-06
3.50662e-06
6.83673e-06
3.78071e-06
6.86035e-06
4.16224e-06
6.81129e-06
4.58825e-06
6.77801e-06
4.98811e-06
6.88569e-06
5.36063e-06
6.9153e-06
5.6895e-06
6.9473e-06
5.95874e-06
6.93541e-06
6.18648e-06
6.85371e-06
6.41043e-06
6.78177e-06
6.65971e-06
6.67406e-06
6.89836e-06
6.65422e-06
7.16397e-06
6.58271e-06
7.48379e-06
6.40205e-06
7.87991e-06
6.04434e-06
8.3225e-06
5.659e-06
8.74668e-06
5.13527e-06
9.16526e-06
4.59782e-06
9.53404e-06
4.17844e-06
9.92917e-06
3.72542e-06
1.05081e-05
3.10257e-06
1.11468e-05
2.69846e-06
1.17383e-05
2.30245e-06
1.23e-05
1.73189e-06
1.27621e-05
1.40621e-06
1.3242e-05
1.0336e-06
1.39484e-05
5.51632e-07
1.45549e-05
4.56421e-07
1.48005e-05
3.90547e-07
1.52813e-05
-5.61101e-07
1.61682e-05
-1.63274e-06
1.77861e-05
-2.90283e-06
1.99669e-05
-3.35837e-06
2.22691e-05
-3.16341e-06
2.40285e-05
-2.57026e-06
2.53293e-05
-2.9407e-06
2.59583e-05
-3.23511e-06
2.5176e-05
-3.03017e-06
2.36706e-05
-2.7156e-06
2.24885e-05
-2.46164e-06
2.17119e-05
-2.25886e-06
2.07253e-05
-2.04355e-06
1.94538e-05
-1.39618e-06
1.80842e-05
-8.24936e-07
1.617e-05
-6.10611e-07
1.41699e-05
-1.72694e-06
1.35273e-05
-4.87874e-06
1.47369e-05
-8.94465e-06
1.55571e-05
-1.12997e-05
1.63451e-05
-1.0571e-05
1.61762e-05
-9.38436e-06
1.45243e-05
-9.05559e-06
1.57493e-05
-1.46877e-05
1.90029e-05
-1.9479e-05
1.79422e-05
-1.15956e-05
1.7752e-05
-1.39132e-05
1.95797e-05
-1.76937e-05
1.67092e-05
-1.24495e-05
1.52324e-05
-1.50902e-05
1.90968e-05
-2.2335e-05
2.01653e-05
-1.56999e-05
1.91623e-05
-1.49281e-05
2.00875e-05
-1.87629e-05
1.92656e-05
-1.68545e-05
1.63883e-05
-1.46145e-05
1.31023e-05
-1.3119e-05
1.18196e-05
-1.64182e-05
1.09006e-05
-1.63971e-05
8.75935e-06
-1.51837e-05
7.62137e-06
-1.68309e-05
6.50251e-06
-1.61298e-05
4.1427e-06
-1.51472e-05
1.42564e-06
-1.51052e-05
-3.14285e-06
-9.02303e-06
-7.08881e-06
-6.95282e-06
-1.00389e-05
-1.09863e-05
-6.73987e-06
-3.52739e-05
-1.61856e-06
-3.49649e-05
-1.08866e-05
-4.33214e-06
1.58656e-07
-3.40254e-06
2.72434e-07
-3.07426e-06
3.63756e-07
-2.96012e-06
6.43502e-07
-3.25034e-06
1.25259e-06
-3.9281e-06
2.05788e-06
-4.71282e-06
2.90252e-06
-5.42654e-06
3.69824e-06
-5.9275e-06
4.26637e-06
-6.17761e-06
4.79596e-06
-6.35801e-06
5.17905e-06
-6.2796e-06
5.43584e-06
-6.19849e-06
5.75391e-06
-6.05032e-06
6.14569e-06
-5.99877e-06
6.51205e-06
-5.91957e-06
6.88628e-06
-5.6207e-06
7.28146e-06
-5.43154e-06
7.64822e-06
-5.24355e-06
8.02479e-06
-5.04182e-06
8.37461e-06
-4.87512e-06
8.72743e-06
-4.65902e-06
9.16495e-06
-4.46786e-06
9.5498e-06
-4.19604e-06
9.90456e-06
-3.75624e-06
1.02142e-05
-3.43458e-06
1.03053e-05
-2.94205e-06
1.04201e-05
-2.41643e-06
1.03146e-05
-1.99717e-06
1.01769e-05
-1.4285e-06
9.94386e-06
-1.13648e-06
9.46826e-06
-5.99226e-07
9.41411e-06
-6.36845e-07
9.06443e-06
-4.57e-07
9.06771e-06
-4.35526e-07
8.85786e-06
-5.02969e-07
8.38493e-06
-4.12606e-07
8.07139e-06
-8.25531e-07
7.83212e-06
-1.02065e-06
7.58797e-06
-1.58446e-06
7.42455e-06
-2.60335e-06
8.06589e-06
-3.55217e-06
8.07131e-06
-3.9775e-06
7.13925e-06
-4.17942e-06
5.88586e-06
-2.94402e-06
4.04003e-06
-1.3635e-06
1.94989e-06
-1.89388e-07
2.43759e-07
7.83849e-07
-1.01628e-06
1.73351e-06
-2.171e-06
2.50604e-06
-3.33445e-06
3.03787e-06
-4.26867e-06
3.30615e-06
-4.89012e-06
3.45132e-06
-5.29189e-06
3.48805e-06
-5.55747e-06
3.43703e-06
-5.70568e-06
3.29761e-06
-5.78264e-06
3.09281e-06
-5.85107e-06
2.88417e-06
-5.85751e-06
2.62778e-06
-5.88981e-06
2.36962e-06
-5.87694e-06
2.0626e-06
-5.8336e-06
1.73466e-06
-5.75142e-06
1.39398e-06
-5.65254e-06
1.09686e-06
-5.50887e-06
8.14459e-07
-5.33232e-06
5.85958e-07
-5.10754e-06
3.76021e-07
-4.8355e-06
2.14523e-07
-4.52382e-06
8.13092e-08
-4.17412e-06
-4.82683e-08
-3.80625e-06
-1.42297e-07
-3.43172e-06
-2.00762e-07
-3.06248e-06
-2.22397e-07
-2.69462e-06
-2.00871e-07
-2.31345e-06
-1.63142e-07
-1.92658e-06
-6.28962e-08
-1.56636e-06
7.46313e-08
-1.22466e-06
2.27494e-07
-9.36203e-07
3.96962e-07
-7.08966e-07
8.30583e-07
-4.69562e-07
1.08269e-06
-2.82897e-07
1.23656e-06
-1.00482e-07
1.66972e-06
1.51342e-08
1.92756e-06
8.40558e-08
2.39307e-06
2.48114e-07
2.6417e-06
3.56811e-07
3.09848e-06
4.18209e-07
3.44285e-06
5.30031e-07
3.82779e-06
6.59228e-07
4.30411e-06
7.89587e-07
4.63991e-06
9.33452e-07
5.06185e-06
1.08674e-06
5.49334e-06
1.28304e-06
5.94356e-06
1.47523e-06
6.2896e-06
1.69797e-06
6.68291e-06
1.97761e-06
6.95518e-06
2.33261e-06
7.22832e-06
2.68038e-06
7.52915e-06
3.05339e-06
7.82471e-06
3.42067e-06
8.03151e-06
3.87838e-06
8.1472e-06
4.25452e-06
8.59281e-06
4.52356e-06
8.75779e-06
4.7843e-06
8.72941e-06
5.11214e-06
8.63361e-06
5.48914e-06
8.71102e-06
5.87036e-06
8.72923e-06
6.25501e-06
8.7411e-06
6.63891e-06
8.70098e-06
7.02232e-06
8.58014e-06
7.36426e-06
8.51501e-06
7.7268e-06
8.3495e-06
8.17156e-06
8.2312e-06
8.64145e-06
8.09999e-06
9.05128e-06
7.92426e-06
9.43728e-06
7.51413e-06
9.96137e-06
6.95447e-06
1.05064e-05
6.37426e-06
1.10689e-05
5.75598e-06
1.15263e-05
5.30089e-06
1.18893e-05
4.76536e-06
1.22726e-05
3.98849e-06
1.25625e-05
3.59199e-06
1.29694e-05
3.04023e-06
1.3694e-05
2.16305e-06
1.44561e-05
1.70857e-06
1.50245e-05
1.33428e-06
1.5604e-05
7.24599e-07
1.62794e-05
3.70107e-07