/*--------------------------------*- C++ -*----------------------------------*\
| =========                 |                                                 |
| \\      /  F ield         | OpenFOAM: The Open Source CFD Toolbox           |
|  \\    /   O peration     | Version:  dev                                   |
|   \\  /    A nd           | Web:      http://www.openfoam.org               |
|    \\/     M anipulation  |                                                 |
\*---------------------------------------------------------------------------*/
FoamFile
{
    version     2.0;
    format      ascii;
    class       surfaceScalarField;
    object      phi_0;
    location    "9.167";
}
// * * * * * * * * * * * * * * * * * * * * * * * * * * * * * * * * * * * * * //

dimensions      [1 0 -1 0 0 0 0];

internalField   nonuniform List<scalar> 
24170
(
1.7887e-06
3.00808e-06
5.052e-07
2.17461e-06
-2.48615e-07
1.62857e-06
-7.50318e-07
1.35125e-06
-1.21183e-06
1.29242e-06
-1.4665e-06
1.06248e-06
-1.90739e-06
1.23357e-06
-2.03397e-06
9.01921e-07
-2.48478e-06
1.21274e-06
-2.40699e-06
6.711e-07
-2.90368e-06
1.2314e-06
-2.61422e-06
4.35537e-07
-3.10203e-06
1.19435e-06
-2.39137e-06
-1.59302e-08
-2.47489e-06
7.54946e-07
4.62723e-07
-2.28508e-06
1.35035e-06
-2.67592e-07
4.65335e-06
-2.77339e-06
3.51462e-06
4.70155e-06
2.53385e-06
4.20015e-06
1.63647e-06
3.53684e-06
9.13245e-07
3.05687e-06
2.77184e-07
2.88198e-06
-3.31666e-07
2.60404e-06
-7.13704e-07
2.52663e-06
-1.14969e-06
2.23495e-06
-1.5586e-06
2.50047e-06
-1.63262e-06
1.6123e-06
-2.13966e-06
2.58838e-06
-1.88475e-06
1.01844e-06
-2.43819e-06
2.56656e-06
-2.06259e-06
4.08462e-07
-2.93785e-06
2.41046e-06
-2.23721e-06
-2.24341e-06
-2.56082e-06
7.6679e-07
4.09406e-06
-1.36247e-06
4.19015e-06
6.25246e-06
3.76331e-06
5.76842e-06
3.12639e-06
5.27814e-06
2.5492e-06
4.70375e-06
1.85297e-06
4.61924e-06
1.39525e-06
4.07409e-06
7.9121e-07
4.12592e-06
4.85346e-07
3.51398e-06
5.14918e-09
3.94312e-06
-1.13456e-07
2.67184e-06
-8.00653e-07
4.20999e-06
-6.22775e-07
1.75005e-06
-1.46352e-06
4.30859e-06
-1.24391e-06
1.06174e-06
-2.61687e-06
4.63939e-06
-2.33163e-06
-1.70543e-06
-2.96174e-06
2.18183e-06
4.46552e-06
-2.57778e-06
4.47842e-06
8.19086e-06
4.5662e-06
6.92007e-06
3.92339e-06
7.12765e-06
3.73644e-06
6.05137e-06
2.93803e-06
6.55394e-06
2.77304e-06
5.33691e-06
1.89019e-06
6.09279e-06
1.89559e-06
4.56282e-06
1.02105e-06
5.8635e-06
9.83916e-07
3.7311e-06
3.1949e-07
5.8879e-06
1.19414e-07
2.9397e-06
-4.92524e-07
5.89844e-06
-4.05059e-07
1.92831e-06
-1.08067e-06
6.24746e-06
-1.36382e-06
-5.2529e-07
-3.38617e-06
5.07392e-06
6.8944e-06
-4.95798e-06
4.60254e-06
1.08584e-05
4.82909e-06
8.02857e-06
4.01705e-06
9.24739e-06
4.00847e-06
7.3131e-06
3.15109e-06
8.64077e-06
3.10504e-06
6.57253e-06
2.14377e-06
8.22569e-06
2.13736e-06
5.7136e-06
1.28774e-06
7.84224e-06
1.27274e-06
4.857e-06
7.18174e-07
7.53807e-06
4.47289e-07
4.28504e-06
2.21682e-07
7.18121e-06
-1.3642e-07
3.32299e-06
-1.11153e-07
7.23368e-06
-1.61374e-06
1.95292e-06
-3.24128e-06
7.65301e-06
8.10083e-06
-3.51058e-06
5.09148e-06
1.34854e-05
5.02547e-06
9.52839e-06
4.20101e-06
1.14704e-05
4.03564e-06
8.82603e-06
3.15738e-06
1.08351e-05
2.9673e-06
8.04313e-06
2.08919e-06
1.036e-05
1.97363e-06
7.06092e-06
1.37392e-06
9.65436e-06
1.28618e-06
6.14063e-06
9.25346e-07
9.07897e-06
6.17098e-07
5.75431e-06
4.93408e-07
8.44256e-06
-8.70791e-08
5.0259e-06
-6.78904e-08
8.3082e-06
-1.63905e-06
4.59307e-06
-1.66554e-06
8.71122e-06
9.04571e-06
-1.60115e-06
5.85079e-06
1.60591e-05
5.53604e-06
1.13677e-05
4.75111e-06
1.37353e-05
4.47275e-06
1.05363e-05
3.658e-06
1.30435e-05
3.28571e-06
9.77491e-06
2.60553e-06
1.23717e-05
2.21883e-06
8.7559e-06
1.87317e-06
1.1288e-05
1.4592e-06
7.82904e-06
1.33234e-06
1.04625e-05
7.83195e-07
7.54523e-06
6.53567e-07
9.78397e-06
-1.79123e-07
7.06206e-06
-6.75548e-08
9.36646e-06
-1.35811e-06
7.03031e-06
-9.36562e-07
9.40123e-06
1.00822e-05
-8.8722e-07
4.55966e-06
1.77877e-05
4.32091e-06
1.27405e-05
3.80362e-06
1.53554e-05
3.39731e-06
1.20061e-05
2.91766e-06
1.45607e-05
2.46717e-06
1.12351e-05
2.1977e-06
1.36332e-05
1.74634e-06
1.01823e-05
1.63601e-06
1.23611e-05
1.10567e-06
9.31397e-06
1.03721e-06
1.1472e-05
5.52406e-07
8.96036e-06
5.16781e-07
1.07314e-05
-9.63892e-08
8.582e-06
3.72827e-08
1.01144e-05
-6.94537e-07
8.63056e-06
-4.39391e-07
9.98948e-06
1.06514e-05
-1.84386e-07
5.31678e-06
1.98377e-05
4.81545e-06
1.4492e-05
4.35306e-06
1.70354e-05
3.82803e-06
1.37034e-05
3.47747e-06
1.60549e-05
2.89743e-06
1.293e-05
2.73238e-06
1.48922e-05
2.10589e-06
1.189e-05
1.99842e-06
1.35338e-05
1.36305e-06
1.10122e-05
1.30286e-06
1.25768e-05
7.22474e-07
1.05754e-05
6.4631e-07
1.18296e-05
7.8068e-08
1.01665e-05
1.46099e-07
1.10349e-05
-3.881e-07
1.01409e-05
-2.45413e-07
1.07974e-05
1.12652e-05
7.03493e-08
6.43452e-06
2.20485e-05
5.61304e-06
1.66652e-05
5.17299e-06
1.87898e-05
4.39364e-06
1.57494e-05
4.15209e-06
1.75322e-05
3.35567e-06
1.4933e-05
3.21966e-06
1.62123e-05
2.43806e-06
1.38466e-05
2.32867e-06
1.4801e-05
1.53006e-06
1.29635e-05
1.48533e-06
1.37619e-05
8.49679e-07
1.23415e-05
7.55729e-07
1.30552e-05
2.30754e-07
1.1807e-05
2.60239e-07
1.20984e-05
-1.05002e-07
1.15861e-05
-3.06482e-08
1.17814e-05
1.19415e-05
3.28311e-07
7.4276e-06
2.43965e-05
6.47154e-06
1.90375e-05
6.10982e-06
2.05074e-05
5.11878e-06
1.80634e-05
4.84916e-06
1.9088e-05
3.89225e-06
1.71528e-05
3.6617e-06
1.76831e-05
2.84135e-06
1.59055e-05
2.59221e-06
1.62725e-05
1.79866e-06
1.4978e-05
1.63027e-06
1.5141e-05
9.88854e-07
1.41943e-05
9.65555e-07
1.42874e-05
4.98576e-07
1.34688e-05
4.64747e-07
1.33128e-05
2.26407e-07
1.29963e-05
2.98623e-07
1.28631e-05
1.27689e-05
6.04136e-07
8.80255e-06
2.65599e-05
7.60062e-06
2.16468e-05
7.17193e-06
2.22731e-05
5.98553e-06
2.05615e-05
5.57606e-06
2.07585e-05
4.49784e-06
1.94838e-05
4.15428e-06
1.92602e-05
3.24962e-06
1.80502e-05
2.93547e-06
1.78203e-05
2.18015e-06
1.69681e-05
1.93975e-06
1.6616e-05
1.36364e-06
1.60127e-05
1.26152e-06
1.56315e-05
9.02519e-07
1.50657e-05
7.38e-07
1.47167e-05
6.3459e-07
1.43317e-05
7.07832e-07
1.40093e-05
1.3762e-05
9.18881e-07
1.01567e-05
2.87577e-05
8.77154e-06
2.4304e-05
8.17592e-06
2.40772e-05
6.95192e-06
2.29713e-05
6.31488e-06
2.25389e-05
5.34099e-06
2.1593e-05
4.70976e-06
2.10112e-05
3.89348e-06
2.0008e-05
3.41434e-06
1.94554e-05
2.74633e-06
1.8803e-05
2.28445e-06
1.82579e-05
1.79452e-06
1.76997e-05
1.49157e-06
1.71456e-05
1.17245e-06
1.66075e-05
1.01337e-06
1.61065e-05
9.40872e-07
1.5638e-05
1.03004e-06
1.51543e-05
1.47995e-05
1.2213e-06
1.19277e-05
3.12558e-05
1.0292e-05
2.6891e-05
9.36232e-06
2.59048e-05
8.23018e-06
2.49808e-05
7.40713e-06
2.42184e-05
6.43409e-06
2.34237e-05
5.59617e-06
2.27154e-05
4.67854e-06
2.18137e-05
4.08426e-06
2.09813e-05
3.44802e-06
2.04027e-05
2.89867e-06
1.98067e-05
2.4551e-06
1.9177e-05
2.087e-06
1.85832e-05
1.8117e-06
1.79817e-05
1.64564e-06
1.73988e-05
1.59348e-06
1.68373e-05
1.61358e-06
1.62966e-05
1.5751e-05
1.83291e-06
1.37729e-05
3.326e-05
1.22766e-05
2.87317e-05
1.10705e-05
2.74246e-05
9.8528e-06
2.65133e-05
8.7739e-06
2.56216e-05
7.67288e-06
2.4874e-05
6.67678e-06
2.40948e-05
5.67122e-06
2.32455e-05
4.83386e-06
2.23104e-05
4.15324e-06
2.16473e-05
3.53387e-06
2.10553e-05
3.04313e-06
2.03609e-05
2.68664e-06
1.9698e-05
2.44237e-06
1.90425e-05
2.31459e-06
1.83979e-05
2.31884e-06
1.77494e-05
2.42219e-06
1.71493e-05
1.65916e-05
2.56911e-06
1.61569e-05
3.44505e-05
1.444e-05
2.98022e-05
1.28567e-05
2.83744e-05
1.1479e-05
2.73012e-05
1.02259e-05
2.6336e-05
9.11359e-06
2.55086e-05
8.12454e-06
2.46763e-05
7.15537e-06
2.38844e-05
6.12292e-06
2.31012e-05
5.36818e-06
2.22788e-05
4.69732e-06
2.17158e-05
4.14341e-06
2.10133e-05
3.7327e-06
2.03123e-05
3.45624e-06
1.96208e-05
3.29708e-06
1.8949e-05
3.23756e-06
1.82816e-05
3.29246e-06
1.7641e-05
1.70368e-05
3.45594e-06
1.86891e-05
3.42214e-05
1.68706e-05
2.95193e-05
1.51758e-05
2.80418e-05
1.35542e-05
2.7002e-05
1.19937e-05
2.60805e-05
1.05905e-05
2.52122e-05
9.32846e-06
2.43643e-05
8.17604e-06
2.35938e-05
7.15062e-06
2.28309e-05
6.17294e-06
2.21056e-05
5.46574e-06
2.14406e-05
4.88224e-06
2.07773e-05
4.40382e-06
2.01239e-05
4.04993e-06
1.94579e-05
3.80602e-06
1.88134e-05
3.6635e-06
1.81733e-05
3.64254e-06
1.75273e-05
1.69264e-05
3.7213e-06
1.89242e-05
3.21788e-05
1.73293e-05
2.76864e-05
1.57492e-05
2.63134e-05
1.41977e-05
2.53998e-05
1.26562e-05
2.46165e-05
1.11933e-05
2.38328e-05
9.84764e-06
2.30324e-05
8.65372e-06
2.22761e-05
7.62666e-06
2.15312e-05
6.75104e-06
2.08319e-05
6.02707e-06
2.02003e-05
5.36904e-06
1.96556e-05
4.86174e-06
1.90339e-05
4.48407e-06
1.84226e-05
4.2107e-06
1.78395e-05
4.04001e-06
1.72571e-05
3.97876e-06
1.66482e-05
1.60615e-05
4.03664e-06
1.6749e-05
2.92675e-05
1.52437e-05
2.51864e-05
1.37958e-05
2.39198e-05
1.24641e-05
2.30581e-05
1.12345e-05
2.23328e-05
1.01297e-05
2.15957e-05
9.11509e-06
2.08659e-05
8.19592e-06
2.01845e-05
7.35478e-06
1.95416e-05
6.57242e-06
1.89581e-05
5.8833e-06
1.84187e-05
5.3112e-06
1.79366e-05
4.72661e-06
1.74982e-05
4.30121e-06
1.69052e-05
4.02284e-06
1.63429e-05
3.88468e-06
1.57836e-05
3.82874e-06
1.52403e-05
1.46844e-05
3.88197e-06
1.45636e-05
2.58401e-05
1.33951e-05
2.22138e-05
1.23207e-05
2.10045e-05
1.12707e-05
2.0271e-05
1.03221e-05
1.96067e-05
9.40505e-06
1.89963e-05
8.48952e-06
1.84128e-05
7.63404e-06
1.784e-05
6.82152e-06
1.73152e-05
6.10764e-06
1.68025e-05
5.5118e-06
1.63204e-05
5.03496e-06
1.58859e-05
4.71932e-06
1.54593e-05
4.34907e-06
1.50701e-05
4.09518e-06
1.45522e-05
3.93867e-06
1.40479e-05
3.85451e-06
1.35753e-05
1.30953e-05
3.83229e-06
1.29932e-05
2.23402e-05
1.21817e-05
1.90004e-05
1.13156e-05
1.79537e-05
1.04647e-05
1.73388e-05
9.63393e-06
1.68092e-05
8.76628e-06
1.63732e-05
7.90549e-06
1.59218e-05
7.11484e-06
1.54362e-05
6.37753e-06
1.49995e-05
5.74662e-06
1.45405e-05
5.21373e-06
1.41166e-05
4.78223e-06
1.37348e-05
4.4739e-06
1.33481e-05
4.21671e-06
1.30468e-05
3.95205e-06
1.26825e-05
3.7497e-06
1.22492e-05
3.63309e-06
1.18274e-05
1.14201e-05
3.57063e-06
1.16559e-05
1.90381e-05
1.08449e-05
1.60026e-05
1.00952e-05
1.49793e-05
9.3905e-06
1.44461e-05
8.66205e-06
1.40714e-05
7.93026e-06
1.37621e-05
7.20716e-06
1.34334e-05
6.49448e-06
1.30738e-05
5.84164e-06
1.27089e-05
5.23928e-06
1.23414e-05
4.71234e-06
1.1981e-05
4.27891e-06
1.16476e-05
3.92868e-06
1.13196e-05
3.71321e-06
1.10204e-05
3.54054e-06
1.07446e-05
3.37599e-06
1.04221e-05
3.28674e-06
1.0048e-05
9.70141e-06
3.25068e-06
1.06255e-05
1.57121e-05
9.99832e-06
1.30867e-05
9.31325e-06
1.2202e-05
8.62725e-06
1.17854e-05
7.94013e-06
1.15196e-05
7.29044e-06
1.12875e-05
6.66479e-06
1.10536e-05
6.04975e-06
1.07989e-05
5.4732e-06
1.05191e-05
4.93698e-06
1.0235e-05
4.46565e-06
9.93406e-06
4.06701e-06
9.65728e-06
3.74015e-06
9.38007e-06
3.50474e-06
9.11737e-06
3.35985e-06
8.86866e-06
3.23611e-06
8.63726e-06
3.12321e-06
8.358e-06
8.07392e-06
3.04974e-06
9.506e-06
1.26528e-05
9.01496e-06
1.03365e-05
8.45044e-06
9.59506e-06
7.83248e-06
9.32623e-06
7.20403e-06
9.168e-06
6.59024e-06
9.0233e-06
6.01582e-06
8.85411e-06
5.49369e-06
8.65234e-06
5.01724e-06
8.43763e-06
4.58382e-06
8.22094e-06
4.19306e-06
7.98855e-06
3.84702e-06
7.78116e-06
3.55059e-06
7.56344e-06
3.31177e-06
7.35568e-06
3.13311e-06
7.1523e-06
3.02603e-06
6.95464e-06
2.92578e-06
6.76332e-06
6.55409e-06
2.84266e-06
8.50192e-06
9.74284e-06
8.21859e-06
7.6831e-06
7.74985e-06
7.181e-06
7.17478e-06
7.10029e-06
6.56574e-06
7.06523e-06
5.97805e-06
6.98665e-06
5.45148e-06
6.84934e-06
4.98903e-06
6.67867e-06
4.57647e-06
6.51101e-06
4.20022e-06
6.35755e-06
3.85421e-06
6.19407e-06
3.54568e-06
6.04944e-06
3.27888e-06
5.88885e-06
3.06104e-06
5.73045e-06
2.89366e-06
5.57221e-06
2.77945e-06
5.41513e-06
2.71729e-06
5.26028e-06
5.12818e-06
2.66173e-06
7.58959e-06
6.99287e-06
7.29834e-06
5.32752e-06
6.84275e-06
5.03388e-06
6.36028e-06
5.05323e-06
5.89439e-06
5.07831e-06
5.45835e-06
5.04846e-06
5.04357e-06
4.97321e-06
4.64244e-06
4.87338e-06
4.25414e-06
4.78019e-06
3.87584e-06
4.70515e-06
3.51443e-06
4.61341e-06
3.17717e-06
4.53357e-06
2.88194e-06
4.41883e-06
2.63591e-06
4.29834e-06
2.43894e-06
4.17604e-06
2.29269e-06
4.05147e-06
2.18942e-06
3.93351e-06
3.82002e-06
2.14451e-06
6.94138e-06
4.58115e-06
6.67125e-06
3.22479e-06
6.27217e-06
3.095e-06
5.81971e-06
3.23162e-06
5.33393e-06
3.3579e-06
4.84501e-06
3.40212e-06
4.36547e-06
3.39114e-06
3.90368e-06
3.34929e-06
3.47186e-06
3.30376e-06
3.07345e-06
3.27372e-06
2.71354e-06
3.22252e-06
2.39698e-06
3.17822e-06
2.12161e-06
3.10054e-06
1.88139e-06
3.02225e-06
1.67907e-06
2.93755e-06
1.51093e-06
2.85253e-06
1.38119e-06
2.76727e-06
2.68495e-06
1.28883e-06
6.09625e-06
2.28406e-06
5.88285e-06
1.31361e-06
5.41619e-06
1.46739e-06
4.85444e-06
1.75608e-06
4.26364e-06
1.97169e-06
3.67208e-06
2.07944e-06
3.09408e-06
2.12016e-06
2.54841e-06
2.11324e-06
2.04843e-06
2.09069e-06
1.60443e-06
2.07452e-06
1.21311e-06
2.04088e-06
8.84451e-07
2.00421e-06
5.81758e-07
1.97029e-06
3.25578e-07
1.9141e-06
9.63815e-08
1.86958e-06
-9.42894e-08
1.81117e-06
-2.47752e-07
1.75182e-06
1.70228e-06
-3.73517e-07
5.44452e-06
2.79945e-07
4.74096e-06
1.23161e-07
3.82642e-06
5.15146e-07
2.95911e-06
8.02867e-07
2.18839e-06
9.73939e-07
1.51155e-06
1.04313e-06
9.19458e-07
1.05711e-06
3.84202e-07
1.0533e-06
-8.25932e-08
1.02365e-06
-4.87298e-07
1.00767e-06
-8.38445e-07
9.8315e-07
-1.14181e-06
9.61156e-07
-1.39701e-06
9.41014e-07
-1.61946e-06
9.13131e-07
-1.80338e-06
8.89735e-07
-1.95959e-06
8.61593e-07
-2.08427e-06
8.26875e-07
8.11604e-07
-2.18956e-06
3.51841e-06
1.99486e-06
8.90068e-07
1.09931e-07
-4.56397e-07
-9.06396e-07
-1.29236e-06
-1.63022e-06
-1.94447e-06
-2.22074e-06
-2.46725e-06
-2.68165e-06
-2.86252e-06
-3.01836e-06
-3.14586e-06
-3.25111e-06
-3.34228e-06
-3.40303e-06
-4.56142e-07
9.29441e-09
-9.74571e-07
5.50964e-08
-1.38785e-06
-5.45767e-08
-1.64623e-06
-2.10635e-07
-1.70023e-06
-4.15596e-07
-1.58456e-06
-5.84972e-07
-1.21037e-06
-8.40552e-07
-6.4604e-07
-1.03281e-06
1.05361e-07
-1.21939e-06
1.00225e-06
-1.36222e-06
2.03205e-06
-1.49325e-06
3.05687e-06
-1.48852e-06
4.00666e-06
-1.40981e-06
5.01022e-06
-1.46013e-06
5.97972e-06
-1.42408e-06
6.81336e-06
-1.28564e-06
7.50101e-06
-1.13875e-06
8.09631e-06
-1.04966e-06
8.64019e-06
-9.95283e-07
9.12912e-06
-9.30309e-07
9.56485e-06
-8.72752e-07
9.90236e-06
-7.70137e-07
1.00996e-05
-6.28607e-07
1.01769e-05
-5.07837e-07
1.00977e-05
-3.48807e-07
9.91794e-06
-2.40204e-07
9.62096e-06
-1.1942e-07
9.14445e-06
6.40002e-08
8.58215e-06
1.61305e-07
7.83327e-06
3.51428e-07
7.05131e-06
3.92181e-07
6.13316e-06
5.15536e-07
5.1942e-06
5.196e-07
4.67798e-06
1.16174e-07
4.39521e-06
-8.95818e-08
4.28723e-06
-2.51022e-07
4.44388e-06
-5.11829e-07
4.78719e-06
-7.0329e-07
5.21462e-06
-7.92289e-07
5.7218e-06
-8.65934e-07
6.41309e-06
-1.04979e-06
7.39249e-06
-1.34062e-06
8.14873e-06
-1.07646e-06
8.90297e-06
-1.0501e-06
9.83591e-06
-1.2847e-06
1.0275e-05
-8.07755e-07
1.01098e-05
-1.28793e-07
1.00746e-05
-2.2097e-07
1.04872e-05
-7.1921e-07
1.10471e-05
-9.26328e-07
1.15315e-05
-8.29791e-07
1.19735e-05
-7.3098e-07
1.21301e-05
-4.48989e-07
1.14788e-05
3.29877e-07
9.93383e-06
1.27044e-06
8.05414e-06
1.67386e-06
6.24355e-06
1.62457e-06
4.64684e-06
1.41025e-06
3.25915e-06
1.20186e-06
2.07258e-06
1.00262e-06
1.07321e-06
8.17123e-07
2.36352e-07
6.5624e-07
-4.4933e-07
5.06028e-07
-9.84466e-07
3.55239e-07
-1.3952e-06
2.29832e-07
-1.72255e-06
1.45053e-07
-1.9687e-06
6.22633e-08
-2.13417e-06
-1.99386e-08
-2.26838e-06
-5.37328e-08
-2.33679e-06
-1.19496e-07
-2.35719e-06
-1.65418e-07
-2.32838e-06
-2.09928e-07
-2.26761e-06
-2.35064e-07
-2.18228e-06
-2.50636e-07
-2.10454e-06
-2.31676e-07
-2.02532e-06
-2.17784e-07
-1.92001e-06
-2.23533e-07
-1.78745e-06
-2.25467e-07
-1.70188e-06
-1.4845e-07
-1.66636e-06
-6.27362e-08
-1.61232e-06
-3.88384e-08
-1.61536e-06
6.64364e-08
-1.52246e-06
2.57238e-08
-1.4217e-06
7.84865e-08
-1.43943e-06
2.65874e-07
-1.46531e-06
3.49086e-07
-1.39922e-06
3.37173e-07
-1.36139e-06
4.52474e-07
-1.403e-06
6.23848e-07
-1.38127e-06
6.54826e-07
-1.3746e-06
7.67627e-07
-1.38414e-06
8.82898e-07
-1.40339e-06
9.9299e-07
-1.39808e-06
1.06361e-06
-1.39221e-06
1.1577e-06
-1.35248e-06
1.21718e-06
-1.30997e-06
1.30783e-06
-1.26533e-06
1.39593e-06
-1.20835e-06
1.46786e-06
-1.09736e-06
1.4908e-06
-9.63441e-07
1.53428e-06
-8.48432e-07
1.60833e-06
-6.87737e-07
1.60868e-06
-4.97507e-07
1.61661e-06
-2.69563e-07
1.60672e-06
-1.03202e-08
1.59476e-06
2.67028e-07
1.58774e-06
5.62868e-07
1.57144e-06
8.8936e-07
1.53565e-06
1.23259e-06
1.50626e-06
1.57509e-06
1.48722e-06
1.89068e-06
1.48901e-06
2.18356e-06
1.47995e-06
2.42565e-06
1.49616e-06
2.63874e-06
1.48438e-06
2.87846e-06
1.41048e-06
3.18838e-06
1.2827e-06
3.61846e-06
1.09575e-06
4.15741e-06
9.14085e-07
4.72795e-06
8.02262e-07
5.34965e-06
6.5247e-07
6.00251e-06
5.19387e-07
6.63089e-06
4.32226e-07
7.3004e-06
2.883e-07
8.07133e-06
9.66364e-08
8.80248e-06
4.78396e-08
9.53807e-06
-4.08495e-08
1.02956e-05
-1.49225e-07
1.09534e-05
-1.56786e-07
1.15501e-05
-1.99487e-07
1.22561e-05
-3.8658e-07
1.31787e-05
-6.81372e-07
1.42647e-05
-9.47595e-07
1.52104e-05
-9.25863e-07
1.60522e-05
-9.36599e-07
1.67583e-05
-9.12715e-07
1.74911e-05
-1.07296e-06
1.82045e-05
-1.17631e-06
1.90977e-05
-1.46267e-06
1.983e-05
-1.39953e-06
2.03204e-05
-1.21968e-06
2.06083e-05
-1.0383e-06
2.06665e-05
-8.93875e-07
2.01582e-05
-4.83083e-07
1.92439e-05
-1.98755e-07
1.80441e-05
-6.38808e-08
1.67189e-05
-1.30196e-07
1.5545e-05
-4.57316e-07
1.51583e-05
-1.39134e-06
1.58448e-05
-2.62266e-06
1.56167e-05
-1.95749e-06
1.47461e-05
-1.59498e-06
1.40478e-05
-1.96772e-06
1.39179e-05
-2.65988e-06
1.5335e-05
-4.48837e-06
1.44958e-05
-2.42127e-06
1.38789e-05
-2.75586e-06
1.38242e-05
-3.52547e-06
1.30421e-05
-2.91481e-06
1.28258e-05
-3.5143e-06
1.36885e-05
-4.71606e-06
1.27936e-05
-3.01422e-06
1.20364e-05
-3.21172e-06
1.16122e-05
-3.6927e-06
1.04749e-05
-2.9268e-06
9.26383e-06
-2.74767e-06
7.73417e-06
-2.34978e-06
6.83663e-06
-2.95211e-06
5.95509e-06
-2.94824e-06
4.76573e-06
-2.65265e-06
3.96308e-06
-3.05855e-06
3.20788e-06
-3.05191e-06
2.79637e-06
-3.46446e-06
2.53389e-06
-3.68016e-06
3.69191e-07
-1.75184e-06
-2.74794e-06
-8.01089e-07
-4.90087e-06
-2.05888e-06
6.10297e-07
-1.01522e-05
2.03805e-06
-6.36808e-06
-1.57636e-06
-1.18582e-06
3.0495e-07
-7.20433e-07
2.67411e-07
-3.64981e-07
1.60228e-07
-4.17965e-07
9.22224e-08
-6.17575e-07
7.88033e-08
-8.78913e-07
2.61906e-07
-1.24427e-06
6.55623e-07
-1.70808e-06
1.3008e-06
-2.14304e-06
2.16879e-06
-2.55015e-06
3.04881e-06
-2.70143e-06
4.00171e-06
-2.88769e-06
5.07239e-06
-3.01116e-06
5.95131e-06
-2.74167e-06
6.83277e-06
-2.78201e-06
7.70717e-06
-2.73929e-06
8.49289e-06
-2.50735e-06
9.21813e-06
-2.29438e-06
9.86214e-06
-2.13156e-06
1.0425e-05
-2.00846e-06
1.09638e-05
-1.89654e-06
1.14364e-05
-1.78189e-06
1.17932e-05
-1.55304e-06
1.21215e-05
-1.35819e-06
1.23231e-05
-1.14248e-06
1.24556e-05
-8.78404e-07
1.25293e-05
-7.31788e-07
1.23795e-05
-3.98058e-07
1.22754e-05
-1.98842e-07
1.19628e-05
6.09088e-08
1.16078e-05
3.07446e-07
1.13087e-05
3.46698e-07
1.06801e-05
7.58491e-07
1.02953e-05
5.28155e-07
9.59821e-06
4.78025e-07
8.58074e-06
5.63561e-07
7.73848e-06
1.86133e-07
7.14443e-06
-2.60662e-07
6.93404e-06
-7.6577e-07
6.90684e-06
-1.06333e-06
7.11724e-06
-1.39419e-06
7.56208e-06
-1.81493e-06
8.57565e-06
-2.72794e-06
9.81319e-06
-2.67083e-06
1.07776e-05
-2.2466e-06
1.19123e-05
-2.62616e-06
1.2952e-05
-2.24436e-06
1.36005e-05
-1.21549e-06
1.38929e-05
-6.71991e-07
1.36138e-05
-6.16967e-07
1.2167e-05
-5.26345e-08
9.72941e-06
1.01203e-06
6.8054e-06
1.84069e-06
4.04384e-06
2.0753e-06
1.91637e-06
2.23911e-06
5.11165e-07
2.4721e-06
-5.48595e-07
2.5395e-06
-1.48943e-06
2.37457e-06
-2.36651e-06
2.09964e-06
-3.14122e-06
1.79227e-06
-3.7944e-06
1.47473e-06
-4.34062e-06
1.1839e-06
-4.74041e-06
8.78474e-07
-4.9794e-06
5.6877e-07
-5.13786e-06
3.36764e-07
-5.22035e-06
1.34422e-07
-5.22562e-06
-2.95464e-08
-5.18377e-06
-1.61525e-07
-5.10719e-06
-2.80396e-07
-4.9643e-06
-3.82233e-07
-4.76369e-06
-5.06122e-07
-4.53604e-06
-5.78292e-07
-4.27456e-06
-6.54014e-07
-3.99533e-06
-6.92113e-07
-3.72104e-06
-6.95356e-07
-3.4529e-06
-6.59916e-07
-3.18899e-06
-6.2731e-07
-2.92697e-06
-6.12661e-07
-2.65329e-06
-6.04097e-07
-2.45047e-06
-4.29303e-07
-2.2769e-06
-2.81262e-07
-2.06015e-06
-2.60669e-07
-1.93136e-06
-2.22733e-08
-1.76881e-06
-4.18012e-08
-1.66291e-06
1.21513e-07
-1.54388e-06
3.61792e-07
-1.42407e-06
5.17419e-07
-1.30668e-06
5.83156e-07
-1.19544e-06
7.87076e-07
-1.10472e-06
1.06987e-06
-9.76835e-07
1.15439e-06
-8.52637e-07
1.36579e-06
-7.49936e-07
1.6022e-06
-6.46832e-07
1.81199e-06
-5.25231e-07
1.96239e-06
-4.13195e-07
2.16201e-06
-2.97363e-07
2.31099e-06
-1.75874e-07
2.4841e-06
-2.56905e-08
2.63469e-06
1.3176e-07
2.78574e-06
3.14067e-07
2.86276e-06
5.39332e-07
2.93052e-06
7.44088e-07
3.07868e-06
9.73811e-07
3.09704e-06
1.20486e-06
3.14449e-06
1.45523e-06
3.14915e-06
1.64472e-06
3.22588e-06
1.82723e-06
3.24261e-06
1.99947e-06
3.24818e-06
2.17809e-06
3.21016e-06
2.42563e-06
3.11344e-06
2.69507e-06
3.0696e-06
2.98626e-06
3.03779e-06
3.22659e-06
3.05514e-06
3.45605e-06
3.05057e-06
3.70996e-06
2.97479e-06
4.03164e-06
2.78647e-06
4.3877e-06
2.56044e-06
4.86465e-06
2.16418e-06
5.41797e-06
1.81021e-06
6.03319e-06
1.54127e-06
6.67369e-06
1.27464e-06
7.44011e-06
9.28187e-07
8.2133e-06
6.89714e-07
8.87726e-06
4.77649e-07
9.54872e-06
1.73692e-07
1.0267e-05
-2.23597e-09
1.10485e-05
-2.15568e-07
1.19233e-05
-4.26168e-07
1.2665e-05
-4.14928e-07
1.32298e-05
-4.77184e-07
1.40659e-05
-1.00147e-06
1.53012e-05
-1.62336e-06
1.70472e-05
-2.26347e-06
1.89139e-05
-2.33864e-06
2.02858e-05
-2.03371e-06
2.1238e-05
-1.82572e-06
2.20764e-05
-2.17444e-06
2.25273e-05
-2.26654e-06
2.26876e-05
-2.55254e-06
2.24479e-05
-2.28997e-06
2.19123e-05
-1.79943e-06
2.14627e-05
-1.41417e-06
2.06955e-05
-9.79265e-07
1.93219e-05
-2.40794e-07
1.75707e-05
4.34222e-07
1.53942e-05
7.96578e-07
1.33591e-05
1.84425e-07
1.27151e-05
-1.64716e-06
1.32532e-05
-3.71168e-06
1.44135e-05
-5.68335e-06
1.46402e-05
-4.38908e-06
1.36563e-05
-3.31702e-06
1.2534e-05
-3.85432e-06
1.37203e-05
-6.69141e-06
1.60578e-05
-9.60743e-06
1.50207e-05
-4.75888e-06
1.48037e-05
-6.049e-06
1.52932e-05
-7.65839e-06
1.37833e-05
-5.53773e-06
1.3821e-05
-7.38602e-06
1.63451e-05
-1.04772e-05
1.5935e-05
-6.32223e-06
1.53548e-05
-6.65819e-06
1.53895e-05
-8.22317e-06
1.40064e-05
-6.3103e-06
1.22773e-05
-5.64222e-06
1.04497e-05
-4.97472e-06
9.53136e-06
-6.41588e-06
8.29697e-06
-6.03271e-06
7.08943e-06
-5.89766e-06
6.55253e-06
-7.06176e-06
5.70599e-06
-6.70118e-06
4.45849e-06
-6.86996e-06
3.31361e-06
-7.31421e-06
1.525e-07
-3.31669e-06
-3.91885e-06
-1.29533e-06
-6.55119e-06
-4.29718e-06
4.87098e-07
-2.23501e-05
5.27893e-06
-1.77086e-05
-4.16946e-06
2.15318e-06
4.4961e-07
-1.56478e-06
8.71131e-07
-1.21303e-06
1.11531e-06
-1.10758e-06
1.25672e-06
-1.21464e-06
1.50149e-06
-1.58088e-06
1.97073e-06
-2.1648e-06
2.65298e-06
-2.83723e-06
3.42596e-06
-3.35416e-06
4.29216e-06
-3.83722e-06
5.18763e-06
-4.04124e-06
5.97975e-06
-4.09876e-06
6.71159e-06
-4.15841e-06
7.46354e-06
-3.92852e-06
8.12396e-06
-3.85699e-06
8.74628e-06
-3.78868e-06
9.30796e-06
-3.47827e-06
9.87763e-06
-3.28841e-06
1.04391e-05
-3.13032e-06
1.09967e-05
-2.96961e-06
1.14853e-05
-2.80456e-06
1.18974e-05
-2.60478e-06
1.23102e-05
-2.38266e-06
1.26643e-05
-2.13281e-06
1.29176e-05
-1.78794e-06
1.31622e-05
-1.5305e-06
1.32646e-05
-1.23316e-06
1.32951e-05
-8.05169e-07
1.32832e-05
-5.8907e-07
1.30337e-05
-5.60912e-08
1.29964e-05
2.45695e-08
1.26695e-05
2.57643e-07
1.24928e-05
5.64973e-07
1.22643e-05
4.64832e-07
1.16176e-05
7.69715e-07
1.14438e-05
4.27817e-07
1.11155e-05
2.29083e-07
1.0732e-05
-1.5666e-07
1.00101e-05
-3.23662e-07
9.57944e-06
-9.73686e-07
9.72951e-06
-1.87448e-06
9.77206e-06
-2.06487e-06
1.01764e-05
-3.33445e-06
1.15425e-05
-4.36564e-06
1.23569e-05
-3.36734e-06
1.20823e-05
-2.56284e-06
1.13121e-05
-1.72032e-06
1.01028e-05
-3.52241e-07
8.14537e-06
9.47189e-07
5.5545e-06
1.68627e-06
3.10678e-06
2.12872e-06
1.32484e-06
2.5501e-06
3.73874e-08
2.91455e-06
-1.19033e-06
3.10042e-06
-2.2539e-06
3.1064e-06
-2.97477e-06
3.00071e-06
-3.40785e-06
2.78509e-06
-3.71965e-06
2.50374e-06
-4.03089e-06
2.23277e-06
-4.28538e-06
1.87347e-06
-4.51858e-06
1.53884e-06
-4.67182e-06
1.17171e-06
-4.75983e-06
8.03269e-07
-4.81169e-06
4.57939e-07
-4.79738e-06
1.58657e-07
-4.73048e-06
-9.95656e-08
-4.60955e-06
-3.2157e-07
-4.4491e-06
-4.97081e-07
-4.25905e-06
-6.49095e-07
-4.02447e-06
-7.98654e-07
-3.78309e-06
-9.31624e-07
-3.50752e-06
-1.03952e-06
-3.22281e-06
-1.12452e-06
-2.93534e-06
-1.16333e-06
-2.63732e-06
-1.17243e-06
-2.33982e-06
-1.12891e-06
-2.04307e-06
-1.0841e-06
-1.78141e-06
-1.01937e-06
-1.53205e-06
-9.8059e-07
-1.37395e-06
-6.89209e-07
-1.21795e-06
-5.11012e-07
-1.01694e-06
-5.00773e-07
-8.77206e-07
-1.59799e-07
-7.89852e-07
-7.97039e-08
-7.58243e-07
1.91762e-07
-6.6418e-07
4.27756e-07
-5.98779e-07
6.78283e-07
-5.37482e-07
8.19771e-07
-4.83117e-07
1.10467e-06
-4.0336e-07
1.44306e-06
-3.26829e-07
1.61513e-06
-2.28373e-07
1.88865e-06
-9.06763e-08
2.17543e-06
7.17145e-10
2.5227e-06
1.4578e-07
2.70717e-06
2.88341e-07
3.00283e-06
4.55802e-07
3.21466e-06
6.32091e-07
3.45879e-06
8.44668e-07
3.65199e-06
1.05936e-06
3.87919e-06
1.29855e-06
4.01038e-06
1.53674e-06
4.15076e-06
1.6734e-06
4.46531e-06
1.83705e-06
4.49168e-06
2.12961e-06
4.44145e-06
2.48113e-06
4.4143e-06
2.82125e-06
4.53256e-06
3.15101e-06
4.5724e-06
3.45434e-06
4.61841e-06
3.71696e-06
4.62225e-06
3.95002e-06
4.55786e-06
4.19236e-06
4.50563e-06
4.47402e-06
4.42139e-06
4.75319e-06
4.43176e-06
5.06542e-06
4.39044e-06
5.4368e-06
4.24322e-06
5.89731e-06
3.91808e-06
6.41654e-06
3.56884e-06
6.93013e-06
3.07866e-06
7.43184e-06
2.60705e-06
7.88294e-06
2.26036e-06
8.36252e-06
1.87273e-06
9.02266e-06
1.32939e-06
9.7174e-06
1.01657e-06
1.03561e-05
6.99814e-07
1.09524e-05
2.58567e-07
1.1457e-05
1.47329e-08
1.19686e-05
-2.87413e-07
1.26794e-05
-6.64424e-07
1.32639e-05
-6.46839e-07
1.35123e-05
-6.38312e-07
1.40383e-05
-1.52174e-06
1.49874e-05
-2.49865e-06
1.66678e-05
-3.62094e-06
1.88498e-05
-3.864e-06
2.10596e-05
-3.45481e-06
2.26671e-05
-2.72897e-06
2.38134e-05
-2.99543e-06
2.42658e-05
-3.09315e-06
2.33577e-05
-2.69433e-06
2.18608e-05
-2.19547e-06
2.07196e-05
-1.74394e-06
1.99239e-05
-1.34156e-06
1.89018e-05
-9.14584e-07
1.75752e-05
-6.92193e-10
1.61624e-05
7.35794e-07
1.42221e-05
1.09168e-06
1.22419e-05
2.16371e-07
1.16617e-05
-2.88998e-06
1.28314e-05
-6.5512e-06
1.35336e-05
-8.36048e-06
1.41462e-05
-7.19861e-06
1.37692e-05
-5.70942e-06
1.2135e-05
-5.50093e-06
1.34049e-05
-1.09152e-05
1.61795e-05
-1.46898e-05
1.49461e-05
-6.86237e-06
1.47609e-05
-9.31606e-06
1.62e-05
-1.22848e-05
1.34367e-05
-7.26866e-06
1.24129e-05
-1.03554e-05
1.61558e-05
-1.65899e-05
1.7062e-05
-9.84233e-06
1.63701e-05
-9.35478e-06
1.73452e-05
-1.24893e-05
1.6532e-05
-9.94352e-06
1.4113e-05
-8.11897e-06
1.15719e-05
-7.19422e-06
1.08696e-05
-1.02618e-05
1.03986e-05
-9.99396e-06
8.95101e-06
-9.14931e-06
8.3708e-06
-1.09268e-05
7.70715e-06
-1.0295e-05
5.9742e-06
-9.73606e-06
3.94497e-06
-1.01172e-05
1.44081e-07
-4.63267e-06
-3.27936e-06
-2.80533e-06
-5.80768e-06
-6.84323e-06
-2.4717e-06
-3.01432e-05
2.44686e-06
-2.92896e-05
-7.58236e-06
-3.10306e-07
3.23226e-07
-2.24798e-06
5.98639e-07
-1.87258e-06
8.49146e-07
-1.75108e-06
1.2767e-06
-2.03676e-06
2.00898e-06
-2.70601e-06
2.93517e-06
-3.48322e-06
3.90637e-06
-4.19372e-06
4.8302e-06
-4.68616e-06
5.5333e-06
-4.93569e-06
6.20326e-06
-5.11296e-06
6.71874e-06
-5.02873e-06
7.11448e-06
-4.95243e-06
7.5644e-06
-4.80591e-06
8.08587e-06
-4.76494e-06
8.58346e-06
-4.68249e-06
9.0846e-06
-4.38828e-06
9.60562e-06
-4.21474e-06
1.00945e-05
-4.03406e-06
1.05888e-05
-3.84039e-06
1.10436e-05
-3.67846e-06
1.15013e-05
-3.46982e-06
1.20343e-05
-3.29193e-06
1.24941e-05
-3.01591e-06
1.29269e-05
-2.589e-06
1.32916e-05
-2.27617e-06
1.34246e-05
-1.77865e-06
1.35803e-05
-1.29449e-06
1.35078e-05
-8.99868e-07
1.33998e-05
-3.59162e-07
1.31618e-05
-6.86128e-08
1.27335e-05
4.0517e-07
1.27061e-05
3.19622e-07
1.23566e-05
4.77425e-07
1.23739e-05
4.52271e-07
1.21186e-05
3.62518e-07
1.1637e-05
4.01711e-07
1.13087e-05
-6.14381e-08
1.10551e-05
-3.01973e-07
1.08061e-05
-9.57211e-07
1.06324e-05
-2.00374e-06
1.12356e-05
-2.94226e-06
1.10947e-05
-3.37587e-06
1.00165e-05
-3.58188e-06
8.6243e-06
-2.32106e-06
6.65565e-06
-8.24889e-07
4.54449e-06
1.89116e-07
2.80831e-06
1.16203e-06
1.4835e-06
2.04899e-06
2.37517e-07
2.72071e-06
-1.00517e-06
3.17155e-06
-2.00554e-06
3.36224e-06
-2.70234e-06
3.42692e-06
-3.17261e-06
3.38943e-06
-3.50914e-06
3.26502e-06
-3.7333e-06
3.04979e-06
-3.88399e-06
2.76864e-06
-4.03011e-06
2.48643e-06
-4.11346e-06
2.15723e-06
-4.22174e-06
1.82794e-06
-4.28194e-06
1.45033e-06
-4.30879e-06
1.05323e-06
-4.2944e-06
6.43927e-07
-4.26696e-06
2.83666e-07
-4.19619e-06
-6.27416e-08
-4.08655e-06
-3.65563e-07
-3.92736e-06
-6.43642e-07
-3.72432e-06
-8.70398e-07
-3.48095e-06
-1.0703e-06
-3.19801e-06
-1.26631e-06
-2.89552e-06
-1.42532e-06
-2.58393e-06
-1.54756e-06
-2.27601e-06
-1.63213e-06
-1.96686e-06
-1.67295e-06
-1.64095e-06
-1.69724e-06
-1.30264e-06
-1.66184e-06
-9.92427e-07
-1.58206e-06
-6.96263e-07
-1.49206e-06
-4.52329e-07
-1.38677e-06
-2.69619e-07
-1.0137e-06
-7.6751e-08
-8.21207e-07
7.4279e-08
-7.38434e-07
2.23175e-07
-3.59218e-07
2.98622e-07
-1.63835e-07
3.08498e-07
2.20832e-07
4.18206e-07
4.09514e-07
4.7125e-07
7.77278e-07
4.62182e-07
1.04588e-06
5.03131e-07
1.35102e-06
5.55937e-07
1.75154e-06
5.99558e-07
2.01249e-06
6.42956e-07
2.36771e-06
6.82228e-07
2.73693e-06
7.62169e-07
3.12715e-06
8.16827e-07
3.41739e-06
8.9382e-07
3.76645e-06
1.0352e-06
3.98824e-06
1.24251e-06
4.24005e-06
1.43065e-06
4.51893e-06
1.63299e-06
4.79427e-06
1.84536e-06
4.97308e-06
2.18106e-06
5.05469e-06
2.43924e-06
5.51995e-06
2.60192e-06
5.68992e-06
2.77019e-06
5.66605e-06
3.0258e-06
5.5773e-06
3.34366e-06
5.66792e-06
3.68278e-06
5.70254e-06
4.04296e-06
5.73572e-06
4.41865e-06
5.72191e-06
4.81357e-06
5.63054e-06
5.17945e-06
5.59828e-06
5.58072e-06
5.46589e-06
6.07268e-06
5.38651e-06
6.59449e-06
5.29917e-06
7.05747e-06
5.1747e-06
7.51026e-06
4.81496e-06
8.11754e-06
4.30439e-06
8.76327e-06
3.76585e-06
9.40734e-06
3.23407e-06
9.94458e-06
2.86433e-06
1.03858e-05
2.4077e-06
1.08454e-05
1.72635e-06
1.11943e-05
1.45027e-06
1.16699e-05
9.88037e-07
1.24188e-05
2.95527e-07
1.32192e-05
-9.51658e-08