/*--------------------------------*- C++ -*----------------------------------*\
| =========                 |                                                 |
| \\      /  F ield         | OpenFOAM: The Open Source CFD Toolbox           |
|  \\    /   O peration     | Version:  dev                                   |
|   \\  /    A nd           | Web:      http://www.openfoam.org               |
|    \\/     M anipulation  |                                                 |
\*---------------------------------------------------------------------------*/
FoamFile
{
    version     2.0;
    format      ascii;
    class       volScalarField;
    object      pMean;
    location    "9.167";
}
// * * * * * * * * * * * * * * * * * * * * * * * * * * * * * * * * * * * * * //

dimensions      [1 -1 -2 0 0 0 0];

internalField   nonuniform List<scalar> 
12225
(
98310.6
98290.8
98277.1
98270.1
98255.8
98246.4
98228
98218.4
98196.9
98188.2
98163.5
98156.7
98125.7
98119.4
98078.6
98039
97949.8
97584
98306.1
98289.8
98276.5
98269.6
98255.2
98245.9
98227.3
98217.9
98196.2
98187.8
98162.8
98156.1
98125.3
98117.5
98076.9
98043
97950.8
97789.7
98302.4
98288.2
98275.5
98268.2
98253.8
98244.4
98225.8
98216.5
98194.8
98186.3
98161.9
98154.1
98125.9
98114.1
98079.2
98043.9
97976.6
97887.8
98297.3
98285.3
98273.4
98265.7
98251.4
98241.7
98223.7
98213.8
98193.1
98183.6
98160.6
98151
98124.8
98111.9
98080.1
98052.4
98003.9
97935.1
98290.7
98280.9
98269.9
98261.7
98247.8
98237.6
98220.7
98209.7
98190.6
98179.3
98159.1
98146.5
98125
98108.7
98082
98057.8
98018
97985.3
98282.4
98274.7
98264
98255.7
98242.2
98231.6
98215.6
98204
98186.2
98174.1
98155.9
98142.3
98123.9
98107
98085.6
98060.3
98038.2
98017.8
98272.1
98265.8
98255.5
98247
98234.4
98223.3
98208.5
98195.9
98180.2
98166.7
98151.3
98136.2
98121.7
98104.1
98089.9
98068.9
98058.5
98043.6
98261.4
98255.8
98246.1
98237.4
98225.7
98214.2
98200.6
98187.4
98173.5
98159.1
98146
98130.4
98118.9
98101.6
98092.8
98075
98073.3
98058.3
98250.6
98245.2
98236.4
98227.4
98216.6
98204.8
98192.3
98178.8
98166.2
98151.6
98140.2
98124.7
98115
98099
98092.7
98078.6
98078.3
98066.4
98237
98231.6
98223.9
98214.8
98204.9
98193.1
98181.6
98168.2
98156.9
98142.3
98132.4
98117.5
98109.3
98094.9
98089.9
98078.2
98077.4
98069.1
98220.1
98214.6
98208.1
98199.3
98190.2
98178.7
98167.9
98155
98144.5
98130.9
98121.5
98108.4
98100.4
98088.9
98083.2
98074.7
98072
98066.8
98199.6
98193.9
98188.6
98180.2
98171.8
98160.8
98150.9
98138.6
98129
98116.5
98107.8
98096.3
98088.8
98079.5
98073.8
98067.4
98063.8
98060.2
98174.8
98169.5
98165
98157.5
98149.5
98139.5
98130.1
98119.3
98110
98099.4
98090.9
98081.6
98074.4
98067.2
98061.8
98056.9
98053.3
98050.6
98146.6
98141.8
98137.8
98131.3
98124
98115.1
98106.5
98097
98088.5
98079.5
98071.8
98064.2
98057.8
98052.1
98047.4
98043.6
98040.7
98038.6
98116.5
98112.8
98109
98103.6
98097.1
98089.5
98081.7
98073.6
98066
98058.6
98051.8
98045.7
98040.4
98035.9
98032.2
98029.2
98027
98025.6
98088.8
98086.1
98082.7
98078.2
98072.6
98066.1
98059.3
98052.4
98045.8
98039.7
98034.1
98029.1
98024.8
98021.2
98018.4
98016.2
98014.6
98013.7
98070.3
98068.3
98065.5
98061.6
98056.7
98051
98045.1
98039.1
98033.5
98028.2
98023.4
98019.3
98015.7
98012.8
98010.5
98008.8
98007.6
98007
98070.5
98068.8
98066.3
98062.5
98057.8
98052.5
98046.9
98041.3
98036
98031.1
98026.6
98022.6
98019.3
98016.5
98014.2
98012.5
98011.3
98010.6
98090.2
98088.4
98085.5
98081.5
98076.6
98071.1
98065.3
98059.5
98053.9
98048.7
98043.9
98039.6
98035.9
98032.7
98030
98027.9
98026.2
98025
98120.9
98118.8
98115.4
98110.9
98105.4
98099.4
98093.1
98086.7
98080.6
98074.7
98069.3
98064.4
98060
98056.2
98052.8
98050
98047.6
98045.6
98155.7
98153.1
98149
98143.9
98137.8
98131.1
98124.2
98117.2
98110.4
98103.8
98097.7
98092.1
98086.9
98082.3
98078.2
98074.6
98071.5
98068.8
98189.5
98186.5
98181.7
98175.8
98169.1
98161.9
98154.3
98146.7
98139.3
98132.1
98125.3
98118.9
98113.1
98107.7
98102.9
98098.6
98094.7
98091.3
98219.7
98216.1
98210.5
98204
98196.8
98189
98181
98172.9
98164.9
98157.1
98149.7
98142.8
98136.3
98130.3
98124.9
98119.9
98115.4
98111.4
98245
98240.7
98234.4
98227.2
98219.6
98211.4
98203.1
98194.6
98186.1
98177.9
98170
98162.6
98155.6
98149.1
98143.1
98137.7
98132.7
98128.2
98265.2
98260
98252.9
98245.2
98237.2
98228.9
98220.2
98211.5
98202.7
98194.1
98185.9
98178.1
98170.7
98163.8
98157.5
98151.6
98146.3
98141.4
98280.9
98274.5
98266.5
98258.3
98250.1
98241.7
98232.9
98223.9
98215
98206.2
98197.7
98189.6
98181.9
98174.8
98168.1
98162
98156.3
98151.1
98292.6
98284.8
98275.7
98267.2
98259
98250.5
98241.6
98232.6
98223.5
98214.5
98205.8
98197.6
98189.7
98182.4
98175.5
98169.2
98163.3
98158
98301.3
98291.5
98281.5
98272.8
98264.6
98256.1
98247.2
98238.1
98228.9
98219.9
98211.1
98202.7
98194.8
98187.3
98180.4
98173.9
98167.9
98162.4
98307.4
98295.3
98284.2
98275.6
98267.5
98259.2
98250.4
98241.3
98232.1
98223
98214.2
98205.7
98197.7
98190.1
98183.1
98176.5
98170.5
98164.9
98313.4
98297.9
98285.8
98276.9
98268.8
98260.4
98251.7
98242.6
98233.4
98224.3
98215.4
98206.9
98198.9
98191.3
98184.2
98177.7
98171.6
98166
98310.5
98310.1
98309.3
98308.2
98306.7
98304.9
98302.6
98300
98297
98293.5
98289.7
98285.4
98280.8
98275.9
98270.7
98265.2
98259.5
98253.6
98247.5
98241.2
98234.8
98228.2
98221.6
98214.8
98207.9
98200.9
98193.9
98186.8
98179.7
98172.7
98165.6
98158.5
98151.5
98144.5
98137.7
98130.9
98124.3
98117.8
98111.5
98105.4
98099.4
98093.8
98088.3
98083.2
98078.4
98073.9
98069.8
98066.1
98062.8
98059.9
98057.5
98055.6
98054.3
98053.4
98053.1
98053.5
98054.4
98056.1
98058.3
98061.3
98065
98069.3
98074.4
98080.2
98086.8
98094
98102
98110.6
98120
98129.9
98140.5
98151.7
98163.4
98175.7
98188.5
98201.7
98215.3
98229.3
98243.6
98258.2
98273
98288
98303.1
98318.3
98333.6
98348.8
98364
98379.1
98394
98408.7
98423.1
98437.3
98451
98464.4
98477.3
98489.7
98501.6
98512.9
98523.7
98533.8
98543.3
98552.2
98560.5
98568
98575
98581.3
98587
98592.2
98596.8
98600.9
98604.6
98607.8
98610.6
98613.1
98615.3
98617.2
98618.9
98620.3
98621.6
98622.7
98623.8
98624.9
98626
98627.3
98628.9
98631
98633.6
98637
98641.5
98647.1
98654.2
98662.9
98673.6
98686.4
98701.8
98719.8
98740.6
98764.4
98791.2
98821
98854
98889.9
98928.7
98970.2
99014.5
99061.1
99110.1
99160.8
99213.4
99267.6
99323.1
99379.5
99436.5
99493.9
99551.1
99607.8
99663.2
99717
99768.1
99816
99859.5
99898
99930.1
99955.2
99972.1
99979.7
99977.1
99964.2
99940.2
99905.7
99860.4
99805.7
99741.8
99671.1
99594.1
99513.6
99429.1
99344.4
99257.5
99174.3
98303.5
98303.2
98302.4
98301.2
98299.7
98297.8
98295.6
98293
98290
98286.6
98282.8
98278.7
98274.2
98269.4
98264.3
98259
98253.5
98247.8
98241.9
98235.8
98229.5
98223.1
98216.6
98210
98203.3
98196.5
98189.6
98182.7
98175.8
98168.9
98161.9
98155
98148.1
98141.4
98134.6
98128
98121.5
98115.2
98109
98103
98097.2
98091.6
98086.3
98081.3
98076.5
98072.1
98068.1
98064.4
98061.2
98058.3
98056
98054
98052.6
98051.8
98051.5
98051.8
98052.7
98054.2
98056.4
98059.3
98062.9
98067.2
98072.1
98077.8
98084.2
98091.3
98099.1
98107.6
98116.8
98126.5
98136.9
98147.9
98159.5
98171.5
98184.1
98197.1
98210.5
98224.2
98238.3
98252.6
98267.2
98281.9
98296.8
98311.8
98326.8
98341.8
98356.7
98371.4
98386.1
98400.5
98414.6
98428.4
98441.9
98455
98467.6
98479.7
98491.3
98502.4
98512.9
98522.8
98532.1
98540.7
98548.8
98556.1
98562.9
98569.1
98574.7
98579.7
98584.2
98588.2
98591.8
98594.9
98597.7
98600.1
98602.2
98604
98605.6
98607
98608.2
98609.3
98610.3
98611.2
98612.3
98613.5
98614.9
98616.8
98619.2
98622.3
98626.4
98631.7
98638.4
98646.7
98656.9
98669.2
98683.9
98701.3
98721.4
98744.4
98770.3
98799.2
98831.3
98866.2
98904
98944.4
98987.6
99033
99080.8
99130.3
99181.8
99234.8
99289.1
99344.4
99400.3
99456.6
99512.8
99568.5
99623
99676
99726.3
99773.7
99816.8
99855
99886.9
99912.2
99929.4
99937.6
99935.9
99924
99901.4
99868.3
99824.6
99771.6
99709.5
99640.7
99565.5
99486.7
99403.7
99320.5
99234.7
99149.6
98290.8
98290.5
98289.7
98288.5
98286.9
98285
98282.7
98280
98277
98273.6
98269.9
98265.9
98261.5
98256.9
98252.1
98247.1
98241.8
98236.4
98230.9
98225.1
98219.3
98213.3
98207.2
98200.9
98194.6
98188.1
98181.6
98175
98168.3
98161.7
98155
98148.4
98141.8
98135.3
98128.8
98122.4
98116.2
98110.1
98104.1
98098.3
98092.7
98087.3
98082.2
98077.3
98072.7
98068.4
98064.5
98060.9
98057.7
98054.9
98052.5
98050.6
98049.1
98048.2
98047.8
98048
98048.8
98050.3
98052.3
98055
98058.4
98062.5
98067.3
98072.7
98078.8
98085.7
98093.2
98101.4
98110.2
98119.6
98129.7
98140.3
98151.5
98163.2
98175.3
98187.9
98200.9
98214.2
98227.8
98241.7
98255.8
98270.1
98284.5
98298.9
98313.4
98327.9
98342.2
98356.5
98370.6
98384.4
98398
98411.3
98424.2
98436.7
98448.8
98460.4
98471.4
98482
98492
98501.4
98510.2
98518.4
98526
98533
98539.5
98545.3
98550.6
98555.4
98559.6
98563.4
98566.8
98569.8
98572.4
98574.7
98576.7
98578.4
98579.9
98581.1
98582.2
98583.1
98583.9
98584.6
98585.4
98586.3
98587.4
98588.8
98590.8
98593.3
98596.8
98601.4
98607.2
98614.6
98623.8
98635
98648.5
98664.5
98683.1
98704.5
98728.8
98755.9
98786
98818.9
98854.5
98892.8
98933.8
98976.9
99022.3
99069.6
99118.7
99169.3
99221.3
99274.2
99327.9
99382.1
99436.1
99489.8
99542.4
99593.6
99642.4
99688.3
99730.3
99767.7
99799.1
99824.3
99841.8
99850.8
99850.4
99840.4
99820
99789.6
99749
99699.4
99640.9
99575.7
99504.1
99428.9
99349.3
99269.3
99186.3
99102.4
98273.4
98273.1
98272.3
98271.1
98269.5
98267.5
98265.2
98262.5
98259.5
98256.2
98252.6
98248.7
98244.6
98240.2
98235.7
98231
98226.1
98221.1
98215.9
98210.6
98205.2
98199.7
98194
98188.2
98182.3
98176.4
98170.3
98164.2
98158
98151.9
98145.7
98139.5
98133.3
98127.2
98121.1
98115.1
98109.2
98103.4
98097.7
98092.2
98086.9
98081.7
98076.7
98072
98067.6
98063.5
98059.6
98056.2
98053
98050.3
98048
98046
98044.6
98043.6
98043.1
98043.2
98043.9
98045.1
98047
98049.5
98052.6
98056.4
98060.8
98065.9
98071.6
98078.1
98085.2
98092.9
98101.3
98110.3
98119.8
98130
98140.6
98151.8
98163.3
98175.3
98187.7
98200.4
98213.4
98226.6
98240.1
98253.7
98267.4
98281.1
98294.9
98308.6
98322.3
98335.8
98349.1
98362.2
98375
98387.6
98399.7
98411.5
98422.8
98433.6
98443.9
98453.7
98463
98471.8
98479.9
98487.5
98494.6
98501.1
98507
98512.4
98517.3
98521.7
98525.6
98529.1
98532.2
98534.9
98537.3
98539.4
98541.2
98542.8
98544
98545.1
98545.9
98546.6
98547.1
98547.5
98547.9
98548.4
98548.9
98549.8
98551
98552.8
98555.4
98558.9
98563.6
98569.7
98577.5
98587.1
98598.9
98612.9
98629.5
98648.7
98670.6
98695.3
98722.7
98752.8
98785.6
98820.9
98858.8
98898.8
98941
98985.1
99031
99078.4
99127.2
99177.1
99227.7
99278.9
99330.1
99381
99431
99479.8
99526.4
99570.4
99610.8
99646.9
99677.5
99702.3
99720.1
99729.8
99730.8
99722.8
99705.1
99678
99641.3
99596
99542.1
99481.8
99415
99344.6
99269.8
99194.3
99115.5
99035.4
98252.2
98252
98251.3
98250.1
98248.6
98246.7
98244.4
98241.8
98238.9
98235.7
98232.2
98228.4
98224.5
98220.4
98216.1
98211.7
98207.2
98202.6
98197.9
98193
98188.1
98183
98177.9
98172.6
98167.3
98161.9
98156.4
98150.8
98145.3
98139.6
98134
98128.4
98122.7
98117.1
98111.5
98106
98100.6
98095.2
98090
98084.9
98079.9
98075
98070.4
98065.9
98061.7
98057.8
98054.1
98050.8
98047.7
98045.1
98042.8
98040.8
98039.3
98038.3
98037.7
98037.6
98038.1
98039.1
98040.7
98042.9
98045.7
98049.1
98053.1
98057.8
98063.1
98069
98075.6
98082.8
98090.6
98099
98107.9
98117.4
98127.4
98137.8
98148.7
98160
98171.6
98183.5
98195.6
98208.1
98220.6
98233.4
98246.2
98259.1
98271.9
98284.7
98297.5
98310.1
98322.5
98334.6
98346.5
98358.1
98369.3
98380.2
98390.5
98400.4
98409.9
98418.8
98427.2
98435.1
98442.5
98449.4
98455.7
98461.5
98466.9
98471.7
98476
98480
98483.5
98486.5
98489.3
98491.7
98493.8
98495.7
98497.2
98498.5
98499.5
98500.3
98500.8
98501.2
98501.3
98501.3
98501.2
98501.1
98501.1
98501.2
98501.6
98502.4
98503.8
98506.1
98509.4
98513.9
98519.9
98527.6
98537.2
98549
98563.1
98579.7
98598.7
98620.3
98644.6
98671.4
98700.7
98732.4
98766.6
98802.9
98841.3
98881.5
98923.6
98967.2
99012.3
99058.4
99105.3
99153
99200.7
99248.2
99295
99340.8
99384.8
99426.4
99464.7
99499.2
99528.7
99552.8
99570.5
99580.9
99583.3
99577.4
99562.7
99539.4
99507.1
99466.8
99418.2
99363.7
99302.6
99238.2
99169.2
99099.3
99026
98951.3
98228.9
98228.6
98228
98227
98225.5
98223.7
98221.6
98219.2
98216.4
98213.4
98210.1
98206.6
98202.9
98199
98195.1
98191
98186.8
98182.5
98178.2
98173.8
98169.3
98164.7
98160
98155.3
98150.5
98145.6
98140.7
98135.8
98130.8
98125.8
98120.8
98115.7
98110.7
98105.7
98100.7
98095.7
98090.8
98086
98081.2
98076.6
98072
98067.6
98063.3
98059.2
98055.2
98051.5
98048.1
98044.9
98042
98039.4
98037.1
98035.2
98033.7
98032.6
98031.9
98031.6
98031.9
98032.7
98034
98035.8
98038.2
98041.2
98044.8
98048.9
98053.7
98059
98065
98071.5
98078.7
98086.3
98094.5
98103.3
98112.4
98122.1
98132.1
98142.5
98153.2
98164.2
98175.5
98186.9
98198.5
98210.2
98222
98233.9
98245.7
98257.4
98269.1
98280.6
98291.9
98303
98313.8
98324.3
98334.5
98344.3
98353.6
98362.5
98370.9
98378.8
98386.3
98393.3
98399.8
98405.8
98411.3
98416.4
98421
98425.2
98428.9
98432.3
98435.3
98437.9
98440.3
98442.3
98444.1
98445.6
98446.8
98447.7
98448.4
98448.8
98449
98448.9
98448.6
98448.1
98447.4
98446.7
98445.9
98445.1
98444.5
98444.2
98444.4
98445.2
98446.9
98449.7
98453.7
98459.2
98466.4
98475.7
98487
98500.6
98516.4
98534.6
98555.4
98578.4
98603.9
98631.6
98661.7
98693.9
98728.1
98764.2
98802
98841.4
98882.3
98924.3
98967.2
99010.8
99054.6
99098.4
99141.7
99184.1
99225
99263.9
99299.9
99332.3
99360.3
99383.5
99400.9
99411.7
99415.3
99411.7
99400
99380.6
99352.8
99317.7
99274.9
99226.4
99171.8
99114.1
99051.6
98988.2
98921.3
98853.2
98204.4
98204.3
98203.7
98202.8
98201.5
98199.9
98198
98195.8
98193.2
98190.4
98187.4
98184.2
98180.8
98177.2
98173.6
98169.8
98165.9
98162
98158.1
98154
98149.9
98145.8
98141.6
98137.3
98133.1
98128.7
98124.4
98120
98115.6
98111.2
98106.8
98102.3
98097.9
98093.4
98089
98084.7
98080.3
98076
98071.8
98067.6
98063.5
98059.4
98055.5
98051.8
98048.2
98044.7
98041.5
98038.5
98035.8
98033.3
98031.1
98029.2
98027.6
98026.4
98025.6
98025.2
98025.3
98025.8
98026.8
98028.3
98030.3
98032.8
98035.9
98039.5
98043.6
98048.3
98053.6
98059.5
98065.8
98072.7
98080.1
98088
98096.3
98105.1
98114.2
98123.6
98133.3
98143.3
98153.5
98163.9
98174.5
98185.1
98195.8
98206.4
98217.1
98227.7
98238.2
98248.5
98258.6
98268.5
98278.2
98287.5
98296.5
98305.1
98313.3
98321.1
98328.4
98335.3
98341.7
98347.8
98353.4
98358.5
98363.1
98367.4
98371.2
98374.7
98377.8
98380.5
98382.9
98385.1
98386.9
98388.5
98389.8
98390.9
98391.7
98392.2
98392.5
98392.5
98392.2
98391.7
98390.9
98389.8
98388.5
98387
98385.4
98383.7
98382
98380.4
98379.2
98378.4
98378.4
98379.3
98381.2
98384.4
98389.1
98395.6
98404
98414.4
98426.9
98441.6
98458.5
98477.7
98499.1
98522.7
98548.5
98576.4
98606.2
98637.9
98671.4
98706.4
98742.9
98780.6
98819.1
98858.5
98898.2
98938.1
98977.7
99016.4
99053.9
99089.6
99122.9
99153.1
99179.2
99201.1
99217.8
99228.8
99233.5
99231.9
99223
99207.3
99183.8
99154
99117.1
99075
99027
98976.3
98920.7
98864.5
98804.5
98743.7
98180.3
98180.2
98179.8
98179
98177.9
98176.5
98174.8
98172.8
98170.6
98168.1
98165.3
98162.4
98159.3
98156.1
98152.8
98149.4
98145.8
98142.3
98138.7
98135
98131.3
98127.6
98123.8
98120
98116.2
98112.4
98108.5
98104.7
98100.8
98096.9
98093
98089.1
98085.2
98081.3
98077.5
98073.6
98069.8
98066
98062.2
98058.5
98054.8
98051.2
98047.6
98044.2
98040.9
98037.7
98034.7
98031.9
98029.3
98026.9
98024.8
98022.9
98021.3
98020
98019.1
98018.5
98018.4
98018.6
98019.3
98020.4
98022
98024.1
98026.6
98029.7
98033.2
98037.3
98041.9
98047
98052.6
98058.7
98065.3
98072.3
98079.7
98087.5
98095.6
98104
98112.8
98121.7
98130.8
98140.1
98149.5
98159
98168.5
98178
98187.4
98196.8
98206
98215.1
98224
98232.6
98241
98249.1
98256.9
98264.3
98271.3
98277.9
98284.1
98289.9
98295.3
98300.3
98305
98309.2
98313
98316.4
98319.4
98322.1
98324.5
98326.6
98328.4
98330
98331.3
98332.4
98333.2
98333.7
98334
98334.1
98333.9
98333.4
98332.7
98331.6
98330.2
98328.6
98326.5
98324.2
98321.6
98318.9
98316.1
98313.3
98310.6
98308.2
98306.4
98305.4
98305.1
98305.9
98308.1
98311.8
98317.1
98324.3
98333.4
98344.5
98357.6
98372.9
98390.4
98409.9
98431.3
98454.8
98480.2
98507.6
98536.6
98567.2
98599.3
98632.6
98666.8
98701.8
98737.4
98773.4
98809
98844
98877.8
98910.2
98940.5
98968.1
98991.9
99012.2
99027.9
99038.8
99044.2
99044.1
99037.7
99025.3
99006
98981.1
98949.7
98913.8
98872.6
98828.9
98780.4
98731.6
98678.9
98625.7
98157.4
98157.5
98157.1
98156.5
98155.6
98154.4
98152.9
98151.2
98149.3
98147.1
98144.7
98142.1
98139.3
98136.5
98133.5
98130.4
98127.2
98124
98120.8
98117.5
98114.2
98110.9
98107.5
98104.2
98100.8
98097.4
98094
98090.6
98087.2
98083.8
98080.4
98076.9
98073.5
98070.1
98066.7
98063.3
98059.9
98056.6
98053.2
98049.8
98046.5
98043.2
98040
98036.9
98033.8
98030.9
98028.1
98025.4
98022.9
98020.6
98018.5
98016.7
98015
98013.7
98012.6
98011.9
98011.5
98011.5
98011.8
98012.6
98013.8
98015.4
98017.5
98020
98022.9
98026.4
98030.3
98034.7
98039.5
98044.8
98050.5
98056.6
98063.1
98070
98077.2
98084.6
98092.3
98100.2
98108.2
98116.4
98124.6
98132.9
98141.2
98149.5
98157.7
98165.9
98173.9
98181.7
98189.3
98196.7
98203.8
98210.6
98217.1
98223.3
98229.1
98234.6
98239.7
98244.4
98248.7
98252.6
98256.2
98259.5
98262.4
98265
98267.2
98269.2
98270.8
98272.2
98273.4
98274.4
98275.1
98275.6
98275.9
98275.9
98275.7
98275.2
98274.4
98273.4
98272.1
98270.4
98268.4
98266
98263.2
98260
98256.5
98252.6
98248.7
98244.6
98240.5
98236.6
98233
98230
98227.6
98226.1
98225.7
98226.6
98229.1
98233.1
98238.8
98246.4
98255.9
98267.4
98280.9
98296.4
98313.7
98333
98354.1
98377.3
98402
98428.3
98456
98485
98514.9
98545.8
98577.3
98609.2
98640.8
98671.9
98702
98730.9
98757.9
98782.7
98804.1
98822.3
98836.6
98846.9
98852.5
98853.6
98849
98839.4
98823.7
98803.4
98777.1
98747.2
98712.4
98675.6
98634.2
98592.7
98547.3
98502
98136.8
98136.9
98136.7
98136.2
98135.4
98134.5
98133.3
98131.8
98130.2
98128.3
98126.2
98124
98121.6
98119.1
98116.5
98113.8
98111
98108.1
98105.3
98102.4
98099.4
98096.5
98093.5
98090.6
98087.6
98084.6
98081.6
98078.6
98075.6
98072.6
98069.5
98066.5
98063.5
98060.5
98057.4
98054.4
98051.4
98048.3
98045.3
98042.2
98039.2
98036.2
98033.2
98030.3
98027.4
98024.7
98022
98019.5
98017.1
98014.8
98012.7
98010.8
98009.1
98007.7
98006.5
98005.5
98004.9
98004.7
98004.7
98005.2
98006
98007.2
98008.8
98010.8
98013.2
98016
98019.3
98023
98027.1
98031.7
98036.6
98041.8
98047.4
98053.4
98059.6
98066.1
98072.8
98079.6
98086.6
98093.7
98100.8
98108
98115.1
98122.2
98129.2
98136.1
98142.9
98149.5
98155.8
98161.9
98167.8
98173.4
98178.7
98183.7
98188.3
98192.6
98196.5
98200.1
98203.3
98206.2
98208.8
98211.1
98213.1
98214.8
98216.3
98217.4
98218.3
98219
98219.5
98219.8
98219.9
98219.8
98219.5
98218.9
98218.1
98217
98215.7
98214
98212
98209.7
98206.9
98203.7
98200.1
98196
98191.6
98186.7
98181.6
98176.2
98170.9
98165.4
98160.1
98155.2
98150.8
98147.1
98144.3
98142.6
98142.2
98143.2
98145.8
98150.1
98156.1
98164
98173.8
98185.5
98199
98214.3
98231.4
98250.6
98271.3
98293.5
98317
98341.8
98367.7
98394.5
98422
98449.8
98477.4
98504.7
98531.1
98556.3
98579.9
98601.7
98620.4
98636.3
98648.7
98657.9
98663.1
98664.6
98661.3
98653.9
98641.3
98624.9
98603.2
98578.9
98550.2
98519.7
98485
98450.7
98412.5
98375
98119
98119.1
98119
98118.6
98118.1
98117.3
98116.3
98115.1
98113.8
98112.2
98110.5
98108.6
98106.6
98104.4
98102.2
98099.9
98097.4
98095
98092.5
98090
98087.4
98084.9
98082.3
98079.7
98077.1
98074.5
98071.8
98069.1
98066.4
98063.7
98061
98058.3
98055.6
98052.9
98050.1
98047.4
98044.6
98041.8
98039
98036.2
98033.3
98030.5
98027.7
98024.9
98022.2
98019.5
98016.9
98014.5
98012.1
98009.8
98007.7
98005.7
98003.9
98002.4
98001
97999.9
97999.1
97998.6
97998.4
97998.5
97999
97999.8
98000.9
98002.5
98004.4
98006.7
98009.4
98012.5
98015.9
98019.7
98023.9
98028.4
98033.2
98038.3
98043.6
98049.2
98054.9
98060.8
98066.7
98072.8
98078.8
98084.9
98090.9
98096.9
98102.8
98108.5
98114.1
98119.5
98124.6
98129.6
98134.2
98138.6
98142.7
98146.5
98149.9
98153.1
98155.9
98158.3
98160.5
98162.4
98164
98165.3
98166.4
98167.2
98167.8
98168.1
98168.3
98168.2
98168
98167.6
98167
98166.2
98165.2
98164
98162.5
98160.8
98158.8
98156.4
98153.7
98150.6
98147
98143.1
98138.6
98133.6
98128.2
98122.3
98116.2
98109.6
98102.9
98096.1
98089.3
98082.7
98076.4
98070.6
98065.6
98061.5
98058.5
98056.8
98056.3
98057.6
98060.4
98065.1
98071.4
98079.7
98089.6
98101.4
98114.9
98130.4
98147.3
98165.9
98185.5
98206.5
98228.5
98251.3
98275
98298.9
98322.6
98346.1
98368.7
98390.1
98410.3
98428.7
98444.6
98457.8
98468
98475.4
98479.5
98480.8
98478.2
98472.3
98462.2
98449.1
98431.4
98412
98388.7
98364.2
98335.7
98308.3
98276.9
98247
98104.3
98104.5
98104.5
98104.2
98103.8
98103.2
98102.5
98101.6
98100.5
98099.2
98097.8
98096.3
98094.6
98092.9
98091
98089.1
98087
98085
98082.9
98080.7
98078.6
98076.4
98074.1
98071.9
98069.6
98067.3
98064.9
98062.5
98060.1
98057.7
98055.3
98052.8
98050.3
98047.7
98045.2
98042.6
98040
98037.3
98034.6
98031.9
98029.2
98026.5
98023.7
98021
98018.4
98015.7
98013.2
98010.6
98008.2
98005.9
98003.7
98001.7
97999.8
97998.1
97996.6
97995.3
97994.3
97993.6
97993.1
97992.9
97993.1
97993.6
97994.3
97995.5
97996.9
97998.8
98000.9
98003.4
98006.3
98009.5
98012.9
98016.7
98020.8
98025.1
98029.7
98034.4
98039.2
98044.2
98049.2
98054.3
98059.4
98064.5
98069.5
98074.4
98079.2
98083.8
98088.3
98092.5
98096.6
98100.4
98103.9
98107.1
98110
98112.7
98115
98117.1
98118.8
98120.2
98121.3
98122.1
98122.7
98123.1
98123.3
98123.2
98122.9
98122.4
98121.7
98120.8
98119.8
98118.6
98117.3
98115.7
98114
98112.1
98110
98107.5
98104.7
98101.6
98098.1
98094.3
98089.9
98085.1
98079.8
98074
98067.6
98060.8
98053.6
98046
98038.1
98030
98021.7
98013.6
98005.6
97998.1
97991.1
97984.8
97979.4
97975.2
97972.2
97970.8
97970.8
97972.5
97975.8
97981
97987.9
97996.5
98006.8
98018.9
98032.5
98047.7
98063.8
98081.3
98099.7
98118.9
98138.9
98159
98179
98198.8
98217.5
98235.2
98251.7
98266.6
98279.4
98289.7
98297.3
98302.6
98304.9
98305.2
98302.6
98297.7
98289.4
98278.8
98264.7
98249.3
98230.8
98211.6
98188.9
98167.8
98142.8
98120
98092.9
98093.1
98093.2
98093
98092.7
98092.3
98091.8
98091.1
98090.3
98089.4
98088.3
98087.1
98085.8
98084.4
98082.9
98081.4
98079.8
98078.2
98076.5
98074.7
98072.9
98071.1
98069.2
98067.3
98065.3
98063.2
98061.1
98059
98056.8
98054.6
98052.3
98050
98047.6
98045.2
98042.7
98040.2
98037.7
98035.1
98032.5
98029.8
98027.1
98024.3
98021.6
98018.9
98016.2
98013.5
98010.8
98008.3
98005.8
98003.4
98001.1
97998.9
97996.9
97995
97993.4
97991.9
97990.7
97989.8
97989.1
97988.7
97988.6
97988.7
97989.2
97990
97991.1
97992.5
97994.2
97996.2
97998.6
98001.2
98004.1
98007.3
98010.7
98014.3
98018.1
98022.1
98026.2
98030.4
98034.6
98038.8
98043
98047.2
98051.2
98055.2
98059
98062.6
98066
98069.2
98072.2
98074.9
98077.3
98079.5
98081.4
98082.9
98084.2
98085.2
98085.8
98086.2
98086.3
98086.1
98085.7
98085.2
98084.4
98083.4
98082.2
98080.8
98079.3
98077.6
98075.8
98073.8
98071.6
98069.3
98066.8
98064.1
98061.2
98057.9
98054.3
98050.4
98046.2
98041.5
98036.3
98030.7
98024.6
98017.9
98010.7
98003
97994.8
97986.2
97977.2
97968
97958.6
97949.1
97939.6
97930.5
97921.8
97913.6
97906.2
97899.8
97894.6
97890.8
97888.4
97887.6
97888.4
97890.9
97895.1
97900.9
97908.4
97917.6
97928.2
97940.2
97953.3
97967.6
97982.7
97998.6
98015.1
98031.7
98048.1
98064.3
98079.2
98093
98105.7
98117
98126.5
98133.7
98138.4
98141.3
98141.5
98140.2
98136.9
98132.2
98125
98116.5
98105.1
98093.1
98078.4
98064
98046.5
98031.1
98011.9
97995.9
98084.5
98084.7
98084.8
98084.8
98084.7
98084.5
98084.2
98083.7
98083.2
98082.6
98081.8
98081
98080.1
98079.1
98078.1
98077
98075.8
98074.6
98073.3
98071.9
98070.5
98069
98067.5
98065.8
98064.1
98062.3
98060.5
98058.5
98056.5
98054.4
98052.2
98050
98047.7
98045.3
98042.8
98040.3
98037.8
98035.1
98032.5
98029.7
98026.9
98024.1
98021.3
98018.5
98015.7
98012.9
98010.1
98007.4
98004.8
98002.2
97999.8
97997.5
97995.3
97993.3
97991.5
97989.9
97988.5
97987.4
97986.5
97985.9
97985.5
97985.4
97985.6
97986.1
97986.9
97988
97989.3
97991
97992.9
97995.1
97997.5
98000.2
98003
98006.1
98009.3
98012.6
98016
98019.5
98023
98026.4
98029.9
98033.2
98036.4
98039.5
98042.4
98045.1
98047.6
98049.9
98051.8
98053.5
98055
98056.1
98057
98057.5
98057.8
98057.7
98057.4
98056.8
98055.9
98054.8
98053.4
98051.9
98050.1
98048.2
98046.1
98043.9
98041.5
98039
98036.3
98033.4
98030.4
98027.3
98024
98020.4
98016.6
98012.5
98008.1
98003.4
97998.3
97992.8
97986.8
97980.4
97973.4
97966
97958
97949.5
97940.5
97931
97921.1
97910.9
97900.5
97889.9
97879.2
97868.7
97858.5
97848.7
97839.7
97831.5
97824.5
97818.7
97814.2
97811.2
97809.9
97810.1
97812
97815.4
97820.4
97826.9
97834.9
97844.1
97854.5
97866
97878.1
97890.9
97904.2
97917.4
97930.4
97942.9
97954.1
97964.3
97973.1
97980.8
97986.7
97990.6
97992.4
97992.8
97990.6
97987.3
97982.8
97977.6
97970.8
97963.6
97954.3
97945
97933.6
97923.3
97910.2
97899.9
97885.9
97876.1
98078.5
98078.8
98079
98079
98079
98079
98078.9
98078.7
98078.5
98078.2
98077.9
98077.5
98077.1
98076.6
98076
98075.4
98074.6
98073.9
98073
98072.1
98071
98069.9
98068.7
98067.3
98065.8
98064.2
98062.5
98060.7
98058.8
98056.8
98054.7
98052.5
98050.1
98047.7
98045.2
98042.7
98040
98037.3
98034.5
98031.6
98028.7
98025.8
98022.8
98019.8
98016.8
98013.9
98011
98008.1
98005.3
98002.6
98000
97997.5
97995.2
97993.1
97991.1
97989.3
97987.8
97986.5
97985.4
97984.6
97984.1
97983.8
97983.8
97984
97984.6
97985.4
97986.4
97987.8
97989.3
97991.2
97993.2
97995.4
97997.9
98000.4
98003.1
98005.9
98008.7
98011.6
98014.5
98017.3
98020
98022.6
98025.1
98027.4
98029.5
98031.4
98033.1
98034.4
98035.5
98036.3
98036.8
98037.1
98037
98036.6
98035.9
98034.9
98033.7
98032.1
98030.2
98028.2
98025.9
98023.4
98020.7
98017.9
98015
98011.8
98008.6
98005.2
98001.6
97997.8
97994
97990
97985.7
97981.3
97976.6
97971.7
97966.4
97960.8
97954.9
97948.6
97941.9
97934.6
97926.9
97918.6
97910
97900.8
97891.1
97880.9
97870.2
97859.3
97848
97836.4
97824.8
97813.2
97801.7
97790.7
97780.3
97770.8
97762.2
97754.8
97748.6
97743.9
97740.7
97739
97738.8
97740.2
97743
97747.3
97752.9
97759.7
97767.6
97776.6
97786.1
97796
97806.1
97816.1
97825.8
97834.9
97842.5
97849.1
97854.1
97858
97860.3
97860.8
97859.5
97857.2
97852.6
97847.1
97841
97834.8
97827.9
97821.4
97813.4
97806.2
97797.5
97790.6
97781.2
97775.5
97766.1
97761.9
98074.1
98074.4
98074.7
98074.8
98075
98075.2
98075.4
98075.5
98075.7
98075.9
98076.1
98076.3
98076.4
98076.5
98076.4
98076.3
98076.1
98075.7
98075.3
98074.7
98074.1
98073.2
98072.3
98071.2
98069.9
98068.5
98066.9
98065.2
98063.4
98061.4
98059.2
98057
98054.6
98052.2
98049.6
98046.9
98044.1
98041.2
98038.2
98035.2
98032.1
98029
98025.8
98022.7
98019.5
98016.3
98013.2
98010.2
98007.2
98004.3
98001.6
97998.9
97996.5
97994.2
97992.1
97990.2
97988.5
97987.1
97985.9
97984.9
97984.2
97983.8
97983.6
97983.7
97984
97984.6
97985.5
97986.5
97987.9
97989.4
97991.1
97993.1
97995.1
97997.3
97999.6
98001.9
98004.3
98006.6
98008.9
98011.2
98013.3
98015.3
98017.1
98018.8
98020.2
98021.3
98022.2
98022.8
98023.1
98023.1
98022.8
98022.2
98021.2
98020
98018.4
98016.6
98014.4
98011.9
98009.2
98006.2
98003
97999.6
97996.1
97992.4
97988.6
97984.6
97980.4
97976.1
97971.7
97967
97962.3
97957.4
97952.2
97946.9
97941.3
97935.5
97929.4
97923
97916.3
97909.2
97901.7
97893.7
97885.2
97876.4
97867.1
97857.3
97846.9
97836.1
97824.9
97813.3
97801.4
97789.1
97776.7
97764.3
97751.9
97739.9
97728.5
97717.9
97708
97699.3
97691.8
97685.6
97680.8
97677.5
97675.6
97675.2
97676.2
97678.6
97682.1
97686.7
97692.4
97699.2
97706.3
97713.4
97720.5
97727.4
97734
97739.7
97744
97747.1
97748.4
97748.5
97747.1
97744.1
97739.7
97734.5
97727.5
97719.8
97711.8
97704.4
97697
97690.6
97683.3
97677.6
97670.9
97666.8
97660.5
97658.8
97653.5
97654.1
98070.4
98070.6
98070.8
98070.9
98071.2
98071.7
98072.3
98073.1
98074
98074.9
98075.7
98076.6
98077.4
98078.1
98078.7
98079.1
98079.4
98079.5
98079.5
98079.3
98078.9
98078.4
98077.7
98076.8
98075.7
98074.4
98072.9
98071.3
98069.4
98067.4
98065.3
98063
98060.5
98057.9
98055.2
98052.4
98049.4
98046.4
98043.3
98040
98036.8
98033.4
98030.1
98026.7
98023.3
98020
98016.7
98013.5
98010.3
98007.3
98004.4
98001.6
97999
97996.6
97994.3
97992.3
97990.5
97989
97987.7
97986.6
97985.8
97985.3
97985
97984.9
97985.1
97985.6
97986.3
97987.2
97988.3
97989.7
97991.2
97992.8
97994.6
97996.5
97998.4
98000.4
98002.3
98004.2
98006.1
98007.8
98009.5
98010.9
98012.2
98013.2
98014
98014.5
98014.7
98014.6
98014.2
98013.4
98012.4
98011
98009.2
98007.2
98004.8
98002.2
97999.2
97995.9
97992.4
97988.5
97984.5
97980.3
97975.9
97971.3
97966.6
97961.8
97956.8
97951.6
97946.3
97940.8
97935.2
97929.4
97923.4
97917.1
97910.7
97904.1
97897.2
97890
97882.5
97874.6
97866.4
97857.7
97848.7
97839.2
97829.4
97819
97808.2
97796.9
97785.3
97773.2
97760.7
97747.9
97734.9
97721.8
97708.9
97696.3
97684.1
97672.6
97661.7
97651.9
97643.3
97635.8
97629.7
97625
97621.7
97619.8
97619.2
97619.9
97621.6
97624.3
97628.1
97632.7
97637.6
97642.2
97646.5
97650.4
97653.9
97656.5
97657.7
97657.4
97655.1
97651.4
97646.4
97640
97632.3
97624.1
97614.7
97604.8
97595
97586.2
97577.9
97571.2
97564.3
97559.7
97554.4
97552.4
97548.7
97550.4
97548.7
97553.7
98065.5
98065.5
98065.5
98065.9
98066.6
98067.9
98069.3
98071.1
98072.8
98074.7
98076.4
98078.1
98079.7
98081
98082.2
98083.2
98084
98084.5
98084.9
98085
98084.9
98084.6
98084.1
98083.3
98082.4
98081.2
98079.8
98078.1
98076.3
98074.3
98072.1
98069.7
98067.2
98064.5
98061.7
98058.7
98055.6
98052.4
98049.1
98045.7
98042.2
98038.7
98035.1
98031.6
98028
98024.5
98021.1
98017.7
98014.4
98011.2
98008.1
98005.3
98002.5
98000
97997.7
97995.6
97993.7
97992.1
97990.7
97989.6
97988.7
97988.1
97987.7
97987.6
97987.7
97988
97988.6
97989.4
97990.4
97991.6
97992.9
97994.4
97995.9
97997.5
97999.1
98000.8
98002.4
98003.9
98005.4
98006.7
98007.9
98008.8
98009.6
98010
98010.3
98010.2
98009.8
98009.1
98008
98006.6
98004.8
98002.7
98000.3
97997.5
97994.4
97991
97987.2
97983.2
97978.9
97974.3
97969.5
97964.5
97959.3
97953.9
97948.4
97942.8
97937
97931
97924.9
97918.6
97912.1
97905.5
97898.6
97891.6
97884.3
97876.9
97869.2
97861.3
97853.1
97844.6
97835.7
97826.4
97816.9
97807
97796.6
97785.9
97774.7
97763.1
97751.1
97738.6
97725.7