/*--------------------------------*- C++ -*----------------------------------*\
| =========                 |                                                 |
| \\      /  F ield         | OpenFOAM: The Open Source CFD Toolbox           |
|  \\    /   O peration     | Version:  dev                                   |
|   \\  /    A nd           | Web:      http://www.openfoam.org               |
|    \\/     M anipulation  |                                                 |
\*---------------------------------------------------------------------------*/
FoamFile
{
    version     2.0;
    format      ascii;
    class       volScalarField;
    object      pPrime2Mean;
    location    "9.167";
}
// * * * * * * * * * * * * * * * * * * * * * * * * * * * * * * * * * * * * * //

dimensions      [2 -2 -4 0 0 0 0];

internalField   nonuniform List<scalar> 
12225
(
5.03206e+07
4.98556e+07
4.88951e+07
4.75444e+07
4.58911e+07
4.40249e+07
4.20047e+07
3.99027e+07
3.77596e+07
3.56235e+07
3.35321e+07
3.14883e+07
2.95661e+07
2.76963e+07
2.59503e+07
2.4391e+07
2.28306e+07
2.12521e+07
5.02129e+07
4.97479e+07
4.87882e+07
4.74392e+07
4.57874e+07
4.39235e+07
4.19062e+07
3.98068e+07
3.76676e+07
3.55341e+07
3.34474e+07
3.14073e+07
2.94897e+07
2.76268e+07
2.58982e+07
2.4339e+07
2.28315e+07
2.14989e+07
4.99632e+07
4.94988e+07
4.85396e+07
4.71935e+07
4.55462e+07
4.36871e+07
4.16765e+07
3.95833e+07
3.74523e+07
3.5327e+07
3.32486e+07
3.12203e+07
2.93087e+07
2.7463e+07
2.57542e+07
2.41999e+07
2.27662e+07
2.15547e+07
4.95281e+07
4.90667e+07
4.81097e+07
4.67689e+07
4.51296e+07
4.3279e+07
4.128e+07
3.91973e+07
3.70811e+07
3.49692e+07
3.29067e+07
3.08961e+07
2.90017e+07
2.71754e+07
2.54961e+07
2.39664e+07
2.25814e+07
2.1482e+07
4.8864e+07
4.84027e+07
4.74506e+07
4.61192e+07
4.44917e+07
4.26556e+07
4.06724e+07
3.86091e+07
3.65118e+07
3.4424e+07
3.23818e+07
3.04019e+07
2.85301e+07
2.67397e+07
2.51127e+07
2.36053e+07
2.23254e+07
2.12623e+07
4.79161e+07
4.74523e+07
4.65097e+07
4.51917e+07
4.35821e+07
4.17658e+07
3.98073e+07
3.77695e+07
3.57023e+07
3.36442e+07
3.16362e+07
2.96904e+07
2.78568e+07
2.61129e+07
2.45353e+07
2.30973e+07
2.18717e+07
2.08165e+07
4.6623e+07
4.61579e+07
4.52308e+07
4.39291e+07
4.23456e+07
4.05549e+07
3.8632e+07
3.66276e+07
3.46032e+07
3.2584e+07
3.06243e+07
2.87241e+07
2.69418e+07
2.52557e+07
2.3735e+07
2.2357e+07
2.11897e+07
2.01629e+07
4.5183e+07
4.47195e+07
4.38087e+07
4.25248e+07
4.09701e+07
3.92089e+07
3.73245e+07
3.5359e+07
3.338e+07
3.14069e+07
2.9497e+07
2.76504e+07
2.59196e+07
2.42965e+07
2.28242e+07
2.15093e+07
2.03746e+07
1.94158e+07
4.36703e+07
4.32103e+07
4.23157e+07
4.10516e+07
3.95264e+07
3.77977e+07
3.59527e+07
3.40295e+07
3.20966e+07
3.0173e+07
2.8314e+07
2.6523e+07
2.48459e+07
2.32835e+07
2.18632e+07
2.06044e+07
1.95115e+07
1.86138e+07
4.17328e+07
4.12796e+07
4.04044e+07
3.91679e+07
3.76791e+07
3.59943e+07
3.41981e+07
3.2331e+07
3.04553e+07
2.85965e+07
2.68003e+07
2.50808e+07
2.34697e+07
2.19819e+07
2.06278e+07
1.94365e+07
1.84004e+07
1.75485e+07
3.92876e+07
3.88443e+07
3.79927e+07
3.67929e+07
3.53499e+07
3.37223e+07
3.1988e+07
3.01919e+07
2.83893e+07
2.66107e+07
2.48947e+07
2.32611e+07
2.17337e+07
2.03319e+07
1.90608e+07
1.79461e+07
1.69768e+07
1.6171e+07
3.62684e+07
3.584e+07
3.50166e+07
3.38657e+07
3.24799e+07
3.09254e+07
2.92685e+07
2.75614e+07
2.58492e+07
2.41694e+07
2.25515e+07
2.10208e+07
1.95941e+07
1.82915e+07
1.71169e+07
1.60865e+07
1.51927e+07
1.444e+07
3.26604e+07
3.22506e+07
3.14636e+07
3.03738e+07
2.90602e+07
2.75946e+07
2.60334e+07
2.44328e+07
2.28306e+07
2.12673e+07
1.9766e+07
1.83543e+07
1.70438e+07
1.58534e+07
1.47851e+07
1.38482e+07
1.30375e+07
1.23499e+07
2.85545e+07
2.81675e+07
2.74271e+07
2.64096e+07
2.51843e+07
2.38221e+07
2.23748e+07
2.08961e+07
1.9422e+07
1.79895e+07
1.66209e+07
1.53397e+07
1.41577e+07
1.30877e+07
1.21329e+07
1.12962e+07
1.05741e+07
9.96044e+06
2.42357e+07
2.38751e+07
2.31908e+07
2.2254e+07
2.11288e+07
1.98808e+07
1.85589e+07
1.72125e+07
1.5876e+07
1.45821e+07
1.33524e+07
1.22061e+07
1.11544e+07
1.0206e+07
9.3635e+06
8.62681e+06
7.99276e+06
7.45468e+06
2.02938e+07
1.99619e+07
1.93371e+07
1.8482e+07
1.74582e+07
1.63233e+07
1.5125e+07
1.39067e+07
1.27019e+07
1.15386e+07
1.04377e+07
9.41461e+06
8.47947e+06
7.63828e+06
6.89294e+06
6.24218e+06
5.68281e+06
5.20862e+06
1.77313e+07
1.7425e+07
1.68504e+07
1.60632e+07
1.51217e+07
1.40777e+07
1.29768e+07
1.18579e+07
1.07527e+07
9.68631e+06
8.6777e+06
7.74044e+06
6.88323e+06
6.11086e+06
5.42468e+06
4.82333e+06
4.30381e+06
3.86077e+06
1.7839e+07
1.75445e+07
1.69922e+07
1.62346e+07
1.53279e+07
1.4321e+07
1.32577e+07
1.21748e+07
1.11025e+07
1.00644e+07
9.07837e+06
8.15697e+06
7.30835e+06
6.537e+06
5.84433e+06
5.22948e+06
4.68997e+06
4.22144e+06
2.07121e+07
2.04132e+07
1.98511e+07
1.90786e+07
1.81525e+07
1.71219e+07
1.60302e+07
1.4914e+07
1.38033e+07
1.27215e+07
1.16862e+07
1.07099e+07
9.80107e+06
8.9644e+06
8.20181e+06
7.51324e+06
6.89682e+06
6.3492e+06
2.51933e+07
2.48816e+07
2.42916e+07
2.34782e+07
2.25008e+07
2.141e+07
2.02507e+07
1.90603e+07
1.78693e+07
1.67019e+07
1.55761e+07
1.4505e+07
1.34975e+07
1.2559e+07
1.16921e+07
1.08975e+07
1.01741e+07
9.51937e+06
3.02463e+07
2.99205e+07
2.92974e+07
2.84346e+07
2.73949e+07
2.62312e+07
2.499e+07
2.37103e+07
2.2424e+07
2.11559e+07
1.99251e+07
1.87454e+07
1.76264e+07
1.65743e+07
1.55924e+07
1.46822e+07
1.38432e+07
1.30737e+07
3.51539e+07
3.48164e+07
3.41623e+07
3.32526e+07
3.21528e+07
3.09181e+07
2.95968e+07
2.82297e+07
2.685e+07
2.54835e+07
2.41504e+07
2.28653e+07
2.16386e+07
2.04772e+07
1.93851e+07
1.83645e+07
1.74156e+07
1.65373e+07
3.94975e+07
3.91517e+07
3.84723e+07
3.75229e+07
3.63716e+07
3.50753e+07
3.3684e+07
3.22402e+07
3.07781e+07
2.93249e+07
2.79016e+07
2.65235e+07
2.5202e+07
2.39444e+07
2.27556e+07
2.16383e+07
2.05932e+07
1.96199e+07
4.30885e+07
4.27376e+07
4.20389e+07
4.10586e+07
3.98663e+07
3.85202e+07
3.70721e+07
3.55655e+07
3.40359e+07
3.25114e+07
3.10138e+07
2.95592e+07
2.81595e+07
2.68228e+07
2.55545e+07
2.43576e+07
2.32335e+07
2.2182e+07
4.58932e+07
4.55393e+07
4.48269e+07
4.38237e+07
4.26004e+07
4.12163e+07
3.97244e+07
3.81692e+07
3.65872e+07
3.50073e+07
3.34519e+07
3.19378e+07
3.04773e+07
2.90791e+07
2.77489e+07
2.64902e+07
2.53046e+07
2.41923e+07
4.79686e+07
4.76131e+07
4.68911e+07
4.58718e+07
4.46262e+07
4.32144e+07
4.16904e+07
4.00996e+07
3.84791e+07
3.68584e+07
3.52604e+07
3.37025e+07
3.21972e+07
3.07537e+07
2.93779e+07
2.80737e+07
2.68428e+07
2.56858e+07
4.94155e+07
4.90592e+07
4.83305e+07
4.73004e+07
4.60395e+07
4.46089e+07
4.30629e+07
4.14476e+07
3.98005e+07
3.81516e+07
3.65242e+07
3.49358e+07
3.33995e+07
3.19246e+07
3.05173e+07
2.91815e+07
2.79193e+07
2.67311e+07
5.03492e+07
4.99919e+07
4.9259e+07
4.82222e+07
4.69516e+07
4.5509e+07
4.39491e+07
4.23182e+07
4.06542e+07
3.89872e+07
3.73409e+07
3.57331e+07
3.41769e+07
3.26817e+07
3.12541e+07
2.9898e+07
2.86156e+07
2.74075e+07
5.08776e+07
5.05199e+07
4.97855e+07
4.87456e+07
4.74696e+07
4.60204e+07
4.44527e+07
4.28129e+07
4.1139e+07
3.94617e+07
3.78045e+07
3.61854e+07
3.46178e+07
3.3111e+07
3.16717e+07
3.03039e+07
2.90102e+07
2.77911e+07
5.10994e+07
5.07433e+07
5.00069e+07
4.89652e+07
4.76867e+07
4.62347e+07
4.46636e+07
4.30199e+07
4.13419e+07
3.96601e+07
3.79982e+07
3.63743e+07
3.48017e+07
3.329e+07
3.18457e+07
3.0473e+07
2.91746e+07
2.79511e+07
6.04422e+07
6.03831e+07
6.02526e+07
6.0047e+07
5.97645e+07
5.94045e+07
5.8967e+07
5.84526e+07
5.78626e+07
5.71985e+07
5.6462e+07
5.56553e+07
5.47806e+07
5.38406e+07
5.2838e+07
5.17757e+07
5.0657e+07
4.94854e+07
4.82645e+07
4.69983e+07
4.56906e+07
4.43456e+07
4.29674e+07
4.15604e+07
4.01291e+07
3.86781e+07
3.72118e+07
3.57346e+07
3.4251e+07
3.27656e+07
3.1283e+07
2.98078e+07
2.83445e+07
2.68977e+07
2.54721e+07
2.40721e+07
2.27025e+07
2.13678e+07
2.0073e+07
1.88226e+07
1.76217e+07
1.64749e+07
1.53874e+07
1.43643e+07
1.34106e+07
1.25316e+07
1.17326e+07
1.10191e+07
1.03963e+07
9.86981e+06
9.44505e+06
9.12745e+06
8.92242e+06
8.83523e+06
8.87098e+06
9.03448e+06
9.3303e+06
9.76269e+06
1.03355e+07
1.1052e+07
1.1915e+07
1.29265e+07
1.4088e+07
1.54003e+07
1.68633e+07
1.84762e+07
2.02373e+07
2.21442e+07
2.41937e+07
2.63821e+07
2.87047e+07
3.11562e+07
3.37307e+07
3.64219e+07
3.92227e+07
4.21261e+07
4.51245e+07
4.82102e+07
5.13752e+07
5.46117e+07
5.79115e+07
6.12664e+07
6.46682e+07
6.81082e+07
7.15778e+07
7.50681e+07
7.857e+07
8.20741e+07
8.55702e+07
8.90481e+07
9.24968e+07
9.59048e+07
9.92601e+07
1.0255e+08
1.05763e+08
1.08885e+08
1.11904e+08
1.14808e+08
1.17586e+08
1.20226e+08
1.22721e+08
1.2506e+08
1.27239e+08
1.29249e+08
1.3109e+08
1.32757e+08
1.34251e+08
1.35575e+08
1.36734e+08
1.37736e+08
1.3859e+08
1.39308e+08
1.39904e+08
1.40391e+08
1.40787e+08
1.41108e+08
1.41374e+08
1.41607e+08
1.41831e+08
1.42071e+08
1.42359e+08
1.42725e+08
1.43209e+08
1.43848e+08
1.44687e+08
1.45773e+08
1.4716e+08
1.48903e+08
1.51064e+08
1.53704e+08
1.56888e+08
1.60677e+08
1.65133e+08
1.70312e+08
1.76269e+08
1.83048e+08
1.90686e+08
1.99209e+08
2.08633e+08
2.18959e+08
2.30183e+08
2.42282e+08
2.55228e+08
2.68979e+08
2.83493e+08
2.98707e+08
3.14573e+08
3.31019e+08
3.47983e+08
3.65388e+08
3.83162e+08
4.01222e+08
4.19475e+08
4.37831e+08
4.56166e+08
4.74341e+08
4.92192e+08
5.0955e+08
5.26183e+08
5.41857e+08
5.5627e+08
5.69125e+08
5.80079e+08
5.8881e+08
5.94984e+08
5.98302e+08
5.98504e+08
5.95407e+08
5.88887e+08
5.78968e+08
5.6573e+08
5.49439e+08
5.30412e+08
5.09142e+08
4.86104e+08
4.61821e+08
4.36664e+08
4.11068e+08
3.85241e+08
3.5951e+08
5.93685e+07
5.93129e+07
5.91879e+07
5.89882e+07
5.87122e+07
5.83597e+07
5.79315e+07
5.74286e+07
5.68521e+07
5.62035e+07
5.54846e+07
5.46973e+07
5.38438e+07
5.29264e+07
5.19478e+07
5.09106e+07
4.98181e+07
4.86734e+07
4.74801e+07
4.62419e+07
4.49627e+07
4.36464e+07
4.22973e+07
4.09195e+07
3.95174e+07
3.80954e+07
3.66579e+07
3.52092e+07
3.37535e+07
3.22955e+07
3.08394e+07
2.939e+07
2.79516e+07
2.65289e+07
2.51263e+07
2.37483e+07
2.23995e+07
2.10845e+07
1.9808e+07
1.85747e+07
1.73895e+07
1.62572e+07
1.51827e+07
1.41712e+07
1.32277e+07
1.23575e+07
1.15658e+07
1.08581e+07
1.02398e+07
9.71628e+06
9.29306e+06
8.97555e+06
8.76914e+06
8.67907e+06
8.71045e+06
8.86817e+06
9.1568e+06
9.58056e+06
1.01432e+07
1.08482e+07
1.16981e+07
1.2695e+07
1.38404e+07
1.51351e+07
1.65789e+07
1.81711e+07
1.99099e+07
2.1793e+07
2.38172e+07
2.59787e+07
2.82728e+07
3.06943e+07
3.32374e+07
3.58956e+07
3.86622e+07
4.15298e+07
4.44912e+07
4.75386e+07
5.06642e+07
5.38599e+07
5.71178e+07
6.04297e+07
6.37873e+07
6.71823e+07
7.06059e+07
7.40495e+07
7.75038e+07
8.09595e+07
8.44067e+07
8.78351e+07
9.12339e+07
9.45918e+07
9.78969e+07
1.01137e+08
1.043e+08
1.07372e+08
1.10343e+08
1.13199e+08
1.15931e+08
1.18527e+08
1.20979e+08
1.23278e+08
1.25418e+08
1.27393e+08
1.292e+08
1.30837e+08
1.32304e+08
1.33604e+08
1.34741e+08
1.35724e+08
1.36563e+08
1.37267e+08
1.37851e+08
1.38329e+08
1.38716e+08
1.39029e+08
1.39289e+08
1.39514e+08
1.3973e+08
1.39961e+08
1.40237e+08
1.4059e+08
1.41056e+08
1.41674e+08
1.42486e+08
1.4354e+08
1.44888e+08
1.46585e+08
1.4869e+08
1.51266e+08
1.54375e+08
1.5808e+08
1.62439e+08
1.6751e+08
1.73344e+08
1.79987e+08
1.87475e+08
1.95834e+08
2.0508e+08
2.15215e+08
2.26233e+08
2.38114e+08
2.50831e+08
2.64343e+08
2.78607e+08
2.93563e+08
3.09159e+08
3.25335e+08
3.42022e+08
3.59147e+08
3.7664e+08
3.94419e+08
4.12395e+08
4.30478e+08
4.48547e+08
4.66466e+08
4.84072e+08
5.01203e+08
5.17632e+08
5.33123e+08
5.47392e+08
5.60139e+08
5.7103e+08
5.79745e+08
5.85958e+08
5.89378e+08
5.89746e+08
5.86886e+08
5.80666e+08
5.71098e+08
5.58255e+08
5.42391e+08
5.23811e+08
5.02996e+08
4.80407e+08
4.56556e+08
4.31809e+08
4.06595e+08
3.81122e+08
3.55631e+08
5.73058e+07
5.72527e+07
5.71333e+07
5.6942e+07
5.66776e+07
5.63405e+07
5.59319e+07
5.54527e+07
5.49039e+07
5.42867e+07
5.36027e+07
5.28534e+07
5.20407e+07
5.11668e+07
5.02339e+07
4.92445e+07
4.82016e+07
4.71081e+07
4.59672e+07
4.47826e+07
4.35577e+07
4.22966e+07
4.10032e+07
3.96815e+07
3.83354e+07
3.6969e+07
3.55864e+07
3.41917e+07
3.27892e+07
3.13833e+07
2.99782e+07
2.85784e+07
2.71881e+07
2.58117e+07
2.44537e+07
2.31182e+07
2.18098e+07
2.05328e+07
1.9292e+07
1.80919e+07
1.69373e+07
1.5833e+07
1.47839e+07
1.3795e+07
1.28714e+07
1.20182e+07
1.1241e+07
1.05448e+07
9.93522e+06
9.4176e+06
8.99741e+06
8.68008e+06
8.47102e+06
8.37547e+06
8.39851e+06
8.54504e+06
8.81962e+06
9.22647e+06
9.7694e+06
1.04517e+07
1.12759e+07
1.22444e+07
1.33583e+07
1.46184e+07
1.60247e+07
1.75761e+07
1.92711e+07
2.11074e+07
2.30817e+07
2.51902e+07
2.74284e+07
2.97911e+07
3.22724e+07
3.4866e+07
3.75652e+07
4.0363e+07
4.32519e+07
4.62245e+07
4.92729e+07
5.23894e+07
5.55659e+07
5.87943e+07
6.20665e+07
6.53741e+07
6.87087e+07
7.20616e+07
7.54239e+07
7.87861e+07
8.21386e+07
8.54713e+07
8.87735e+07
9.20342e+07
9.52418e+07
9.83845e+07
1.0145e+08
1.04426e+08
1.07302e+08
1.10066e+08
1.12707e+08
1.15215e+08
1.17583e+08
1.19802e+08
1.21866e+08
1.23771e+08
1.25514e+08
1.27092e+08
1.28505e+08
1.29757e+08
1.30853e+08
1.31799e+08
1.32607e+08
1.33285e+08
1.33847e+08
1.34306e+08
1.34676e+08
1.34975e+08
1.3522e+08
1.35431e+08
1.35631e+08
1.35843e+08
1.36097e+08
1.36421e+08
1.36852e+08
1.37425e+08
1.38183e+08
1.39172e+08
1.40441e+08
1.42044e+08
1.44039e+08
1.46487e+08
1.49447e+08
1.52983e+08
1.5715e+08
1.62004e+08
1.67595e+08
1.73968e+08
1.81158e+08
1.89193e+08
1.98087e+08
2.07842e+08
2.18454e+08
2.29903e+08
2.42166e+08
2.55205e+08
2.68974e+08
2.83418e+08
2.98483e+08
3.14118e+08
3.30255e+08
3.46824e+08
3.63752e+08
3.8097e+08
3.9839e+08
4.15922e+08
4.33449e+08
4.50845e+08
4.67949e+08
4.84603e+08
5.00593e+08
5.15687e+08
5.29622e+08
5.42103e+08
5.5281e+08
5.6144e+08
5.67674e+08
5.71239e+08
5.71885e+08
5.69439e+08
5.63764e+08
5.5485e+08
5.42768e+08
5.27741e+08
5.10054e+08
4.90161e+08
4.68489e+08
4.4552e+08
4.21625e+08
3.97206e+08
3.72487e+08
3.47638e+08
5.44155e+07
5.43662e+07
5.42543e+07
5.40752e+07
5.38286e+07
5.35153e+07
5.31361e+07
5.26917e+07
5.21826e+07
5.16099e+07
5.09747e+07
5.02783e+07
4.9522e+07
4.87078e+07
4.78375e+07
4.69137e+07
4.59387e+07
4.49155e+07
4.3847e+07
4.27364e+07
4.15872e+07
4.04028e+07
3.91869e+07
3.7943e+07
3.66746e+07
3.53854e+07
3.40792e+07
3.27599e+07
3.14317e+07
3.00987e+07
2.87649e+07
2.74345e+07
2.61116e+07
2.48001e+07
2.35042e+07
2.22281e+07
2.0976e+07
1.97523e+07
1.85614e+07
1.74078e+07
1.62962e+07
1.52313e+07
1.42178e+07
1.32607e+07
1.23652e+07
1.15363e+07
1.07792e+07
1.00993e+07
9.50204e+06
8.99278e+06
8.57694e+06
8.25996e+06
8.0472e+06
7.94389e+06
7.95509e+06
8.08571e+06
8.34031e+06
8.7231e+06
9.23783e+06
9.88772e+06
1.06755e+07
1.16031e+07
1.26721e+07
1.38829e+07
1.52355e+07
1.6729e+07
1.83617e+07
2.01313e+07
2.20348e+07
2.40683e+07
2.62273e+07
2.85067e+07
3.09008e+07
3.34034e+07
3.60078e+07
3.87072e+07
4.14944e+07
4.43621e+07
4.73027e+07
5.03083e+07
5.33711e+07
5.64832e+07
5.96365e+07
6.28229e+07
6.60338e+07
6.92608e+07
7.24952e+07
7.57278e+07
7.8949e+07
8.21489e+07
8.53171e+07
8.84428e+07
9.15148e+07
9.45217e+07
9.74519e+07
1.00294e+08
1.03037e+08
1.0567e+08
1.08183e+08
1.10569e+08
1.12817e+08
1.14924e+08
1.16882e+08
1.18687e+08
1.20337e+08
1.21829e+08
1.23166e+08
1.2435e+08
1.25386e+08
1.26281e+08
1.27042e+08
1.27682e+08
1.28212e+08
1.28642e+08
1.28988e+08
1.29264e+08
1.29487e+08
1.29676e+08
1.29851e+08
1.30037e+08
1.30256e+08
1.3054e+08
1.30918e+08
1.31427e+08
1.32108e+08
1.33003e+08
1.3416e+08
1.35632e+08
1.37471e+08
1.39737e+08
1.42487e+08
1.45783e+08
1.49679e+08
1.54229e+08
1.5948e+08
1.65474e+08
1.72247e+08
1.79826e+08
1.88227e+08
1.97453e+08
2.07497e+08
2.18345e+08
2.29975e+08
2.42356e+08
2.55437e+08
2.6917e+08
2.83501e+08
2.98387e+08
3.13765e+08
3.29566e+08
3.4572e+08
3.62165e+08
3.78817e+08
3.95587e+08
4.12364e+08
4.29031e+08
4.45435e+08
4.6142e+08
4.76788e+08
4.91318e+08
5.04761e+08
5.16839e+08
5.27256e+08
5.35725e+08
5.41943e+08
5.45656e+08
5.46621e+08
5.44672e+08
5.39677e+08
5.31605e+08
5.20519e+08
5.06605e+08
4.90125e+08
4.7149e+08
4.51085e+08
4.29355e+08
4.06658e+08
3.83371e+08
3.59733e+08
3.35893e+08
5.08979e+07
5.08539e+07
5.07521e+07
5.05893e+07
5.03658e+07
5.00822e+07
4.97388e+07
4.93359e+07
4.88741e+07
4.83542e+07
4.77766e+07
4.71424e+07
4.6453e+07
4.57096e+07
4.49143e+07
4.40689e+07
4.31756e+07
4.22371e+07
4.12558e+07
4.02346e+07
3.91767e+07
3.8085e+07
3.69625e+07
3.58123e+07
3.46376e+07
3.34417e+07
3.22282e+07
3.10008e+07
2.97633e+07
2.85194e+07
2.72729e+07
2.60273e+07
2.47866e+07
2.35543e+07
2.23344e+07
2.11308e+07
1.99477e+07
1.87891e+07
1.76593e+07
1.65627e+07
1.55038e+07
1.4487e+07
1.35173e+07
1.25993e+07
1.17382e+07
1.09388e+07
1.02066e+07
9.54667e+06
8.96446e+06
8.46537e+06
8.05479e+06
7.73811e+06
7.52069e+06
7.40774e+06
7.4043e+06
7.51522e+06
7.74502e+06
8.09785e+06
8.57743e+06
9.187e+06
9.92919e+06
1.08061e+07
1.18189e+07
1.29683e+07
1.42542e+07
1.56756e+07
1.72308e+07
1.89176e+07
2.07331e+07
2.26734e+07
2.47341e+07
2.69102e+07
2.91961e+07
3.15859e+07
3.4073e+07
3.66508e+07
3.93123e+07
4.20503e+07
4.48575e+07
4.77263e+07
5.06489e+07
5.36176e+07
5.66246e+07
5.96618e+07
6.27209e+07
6.57934e+07
6.88711e+07
7.19448e+07
7.50052e+07
7.80426e+07
8.10471e+07
8.40081e+07
8.69151e+07
8.97567e+07
9.2522e+07
9.52005e+07
9.77819e+07
1.00256e+08
1.02615e+08
1.04849e+08
1.06953e+08
1.0892e+08
1.10747e+08
1.12429e+08
1.13964e+08
1.15352e+08
1.16594e+08
1.17693e+08
1.18654e+08
1.19482e+08
1.20186e+08
1.20777e+08
1.21264e+08
1.21657e+08
1.2197e+08
1.22216e+08
1.22411e+08
1.2257e+08
1.22712e+08
1.22861e+08
1.23037e+08
1.23268e+08
1.23582e+08
1.24014e+08
1.246e+08
1.2538e+08
1.26401e+08
1.27711e+08
1.29361e+08
1.31406e+08
1.33901e+08
1.36905e+08
1.4047e+08
1.44649e+08
1.49485e+08
1.55021e+08
1.61288e+08
1.68318e+08
1.76122e+08
1.84708e+08
1.9407e+08
2.04195e+08
2.15062e+08
2.26647e+08
2.38903e+08
2.51785e+08
2.6524e+08
2.7923e+08
2.93699e+08
3.08586e+08
3.23818e+08
3.39339e+08
3.55072e+08
3.70929e+08
3.86806e+08
4.02593e+08
4.18148e+08
4.33323e+08
4.47934e+08
4.61772e+08
4.746e+08
4.86166e+08
4.96202e+08
5.04435e+08
5.10588e+08
5.14419e+08
5.15701e+08
5.14281e+08
5.10031e+08
5.02907e+08
4.92954e+08
4.80322e+08
4.65251e+08
4.48099e+08
4.29206e+08
4.08978e+08
3.87741e+08
3.65849e+08
3.43549e+08
3.21002e+08
4.69754e+07
4.69384e+07
4.6849e+07
4.67054e+07
4.6508e+07
4.6257e+07
4.59526e+07
4.55951e+07
4.51848e+07
4.47218e+07
4.42067e+07
4.36404e+07
4.30238e+07
4.23581e+07
4.16448e+07
4.08855e+07
4.00821e+07
3.92367e+07
3.83516e+07
3.74292e+07
3.6472e+07
3.54825e+07
3.44632e+07
3.34167e+07
3.23459e+07
3.12538e+07
3.01436e+07
2.90188e+07
2.78825e+07
2.6738e+07
2.55887e+07
2.44379e+07
2.3289e+07
2.21454e+07
2.10107e+07
1.98886e+07
1.87829e+07
1.76976e+07
1.66366e+07
1.56042e+07
1.46047e+07
1.36423e+07
1.27218e+07
1.18479e+07
1.10255e+07
1.02595e+07
9.55508e+06
8.91757e+06
8.35226e+06
7.86451e+06
7.45969e+06
7.14316e+06
6.92028e+06
6.7962e+06
6.77593e+06
6.86423e+06
7.06562e+06
7.3842e+06
7.8236e+06
8.38702e+06
9.07705e+06
9.89568e+06
1.08442e+07
1.19233e+07
1.31327e+07
1.44715e+07
1.59381e+07
1.75302e+07
1.92449e+07
2.10785e+07
2.30268e+07
2.50848e+07
2.72472e+07
2.9508e+07
3.18612e+07
3.43001e+07
3.68181e+07
3.94081e+07
4.20632e+07
4.47757e+07
4.75384e+07
5.03436e+07
5.31837e+07
5.60509e+07
5.89371e+07
6.1834e+07
6.47333e+07
6.76265e+07
7.05043e+07
7.33573e+07
7.6176e+07
7.89506e+07
8.16708e+07
8.4326e+07
8.69058e+07
8.94004e+07
9.18006e+07
9.40972e+07
9.6282e+07
9.83476e+07
1.00288e+08
1.02099e+08
1.03778e+08
1.0532e+08
1.06726e+08
1.07995e+08
1.09129e+08
1.10131e+08
1.11006e+08
1.11757e+08
1.12394e+08
1.12926e+08
1.13361e+08
1.13709e+08
1.13981e+08
1.14189e+08
1.14347e+08
1.1447e+08
1.14573e+08
1.14677e+08
1.14801e+08
1.14971e+08
1.15212e+08
1.15555e+08
1.16036e+08
1.16688e+08
1.17555e+08
1.18684e+08
1.20121e+08
1.2192e+08
1.2413e+08
1.26808e+08
1.30004e+08
1.33767e+08
1.38141e+08
1.43164e+08
1.48871e+08
1.55288e+08
1.62432e+08
1.70308e+08
1.78915e+08
1.88241e+08
1.98267e+08
2.08973e+08
2.2032e+08
2.32267e+08
2.44763e+08
2.57773e+08
2.71247e+08
2.85129e+08
2.99354e+08
3.13862e+08
3.28585e+08
3.43436e+08
3.5832e+08
3.73134e+08
3.87749e+08
4.02019e+08
4.15777e+08
4.28834e+08
4.40959e+08
4.51927e+08
4.615e+08
4.69426e+08
4.75453e+08
4.79348e+08
4.80911e+08
4.80005e+08
4.76501e+08
4.70347e+08
4.61569e+08
4.50292e+08
4.36724e+08
4.21174e+08
4.03932e+08
3.85368e+08
3.65764e+08
3.45447e+08
3.24667e+08
3.03613e+08
4.28725e+07
4.2843e+07
4.27672e+07
4.26439e+07
4.24735e+07
4.22562e+07
4.19921e+07
4.16811e+07
4.13231e+07
4.09184e+07
4.04673e+07
3.99706e+07
3.94288e+07
3.8843e+07
3.82143e+07
3.75439e+07
3.68334e+07
3.60845e+07
3.5299e+07
3.44789e+07
3.36259e+07
3.27422e+07
3.18297e+07
3.08909e+07
2.99282e+07
2.89443e+07
2.7942e+07
2.69242e+07
2.58935e+07
2.4853e+07
2.38055e+07
2.2754e+07
2.17014e+07
2.06509e+07
1.96058e+07
1.85695e+07
1.75456e+07
1.65376e+07
1.55493e+07
1.45847e+07
1.36478e+07
1.27429e+07
1.18745e+07
1.10471e+07
1.02656e+07
9.53477e+06
8.85985e+06
8.24597e+06
7.6984e+06
7.22251e+06
6.8236e+06
6.50701e+06
6.278e+06
6.14174e+06
6.10318e+06
6.16704e+06
6.33777e+06
6.6194e+06
7.01552e+06
7.52926e+06
8.16314e+06
8.9191e+06
9.79839e+06
1.08016e+07
1.19286e+07
1.31784e+07
1.45495e+07
1.60394e+07
1.76455e+07
1.9364e+07
2.11909e+07
2.31214e+07
2.51504e+07
2.7272e+07
2.94804e+07
3.17693e+07
3.41322e+07
3.65624e+07
3.90529e+07
4.15967e+07
4.41865e+07
4.6815e+07
4.94747e+07
5.21581e+07
5.48575e+07
5.75647e+07
6.02716e+07
6.29699e+07
6.56507e+07
6.83051e+07
7.09239e+07
7.34978e+07
7.60172e+07
7.84722e+07
8.08534e+07
8.31516e+07
8.53584e+07
8.74657e+07
8.94661e+07
9.13531e+07
9.31214e+07
9.47675e+07
9.62885e+07
9.76833e+07
9.89515e+07
1.00094e+08
1.01112e+08
1.02008e+08
1.02788e+08
1.03456e+08
1.04019e+08
1.04484e+08
1.0486e+08
1.05155e+08
1.05378e+08
1.05542e+08
1.05658e+08
1.05737e+08
1.05796e+08
1.05849e+08
1.05916e+08
1.06019e+08
1.06181e+08
1.06431e+08
1.06798e+08
1.07316e+08
1.08021e+08
1.08958e+08
1.10171e+08
1.11709e+08
1.1362e+08
1.15955e+08
1.18763e+08
1.2209e+08
1.25977e+08
1.30464e+08
1.35583e+08
1.4136e+08
1.47813e+08
1.54948e+08
1.62767e+08
1.71261e+08
1.80415e+08
1.90211e+08
2.00615e+08
2.11593e+08
2.23098e+08
2.35098e+08
2.47546e+08
2.60391e+08
2.73573e+08
2.87036e+08
3.00712e+08
3.14519e+08
3.2837e+08
3.42168e+08
3.55796e+08
3.6911e+08
3.81959e+08
3.9417e+08
4.05532e+08
4.15838e+08
4.24875e+08
4.32422e+08
4.38251e+08
4.42143e+08
4.43923e+08
4.43472e+08
4.40661e+08
4.35433e+08
4.27795e+08
4.17862e+08
4.05803e+08
3.91879e+08
3.76338e+08
3.59503e+08
3.41614e+08
3.2297e+08
3.03815e+08
2.84372e+08
3.88022e+07
3.87801e+07
3.87176e+07
3.86144e+07
3.84707e+07
3.82865e+07
3.80616e+07
3.77957e+07
3.74888e+07
3.71412e+07
3.67529e+07
3.63243e+07
3.5856e+07
3.53485e+07
3.48026e+07
3.42195e+07
3.36001e+07
3.29459e+07
3.2258e+07
3.1538e+07
3.07873e+07
3.00075e+07
2.92003e+07
2.83677e+07
2.75119e+07
2.6635e+07
2.57395e+07
2.48276e+07
2.39017e+07
2.29642e+07
2.20178e+07
2.10648e+07
2.01081e+07
1.91504e+07
1.81947e+07
1.7244e+07
1.63015e+07
1.53707e+07
1.44549e+07
1.35579e+07
1.26837e+07
1.18362e+07
1.10198e+07
1.02389e+07
9.49831e+06
8.80273e+06
8.15722e+06
7.5669e+06
7.03699e+06
6.57278e+06
6.17955e+06
5.86256e+06
5.62705e+06
5.4781e+06
5.42064e+06
5.45936e+06
5.59861e+06
5.84236e+06
6.19413e+06
6.65697e+06
7.23334e+06
7.92508e+06
8.73343e+06
9.65892e+06
1.07014e+07
1.18598e+07
1.31327e+07
1.45178e+07
1.60121e+07
1.76123e+07
1.93143e+07
2.11135e+07
2.30049e+07
2.4983e+07
2.70421e+07
2.91761e+07
3.13787e+07
3.36434e+07
3.59637e+07
3.83327e+07
4.07434e+07
4.31888e+07
4.56616e+07
4.81545e+07
5.066e+07
5.31703e+07
5.56775e+07
5.81737e+07
6.06504e+07
6.3099e+07
6.5511e+07
6.78774e+07
7.01893e+07
7.2438e+07
7.46146e+07
7.6711e+07
7.87194e+07
8.0633e+07
8.24447e+07
8.41495e+07
8.57426e+07
8.72209e+07
8.85823e+07
8.98264e+07
9.09541e+07
9.19661e+07
9.28642e+07
9.36518e+07
9.43329e+07
9.49123e+07
9.53957e+07
9.57896e+07
9.61005e+07
9.63364e+07
9.65067e+07
9.66207e+07
9.66878e+07
9.67196e+07
9.67282e+07
9.67274e+07
9.67335e+07
9.67668e+07
9.68474e+07
9.70001e+07
9.72522e+07
9.76332e+07
9.81765e+07
9.89215e+07
9.99097e+07
1.01186e+08
1.02797e+08
1.0479e+08
1.07208e+08
1.10096e+08
1.13497e+08
1.17446e+08
1.21977e+08
1.27114e+08
1.32877e+08
1.39274e+08
1.46309e+08
1.53977e+08
1.62264e+08
1.71157e+08
1.80629e+08
1.90648e+08
2.01175e+08
2.1218e+08
2.23616e+08
2.35436e+08
2.47586e+08
2.60013e+08
2.72648e+08
2.85418e+08
2.98239e+08
3.11021e+08
3.23648e+08
3.35989e+08
3.47906e+08
3.5924e+08
3.69798e+08
3.79396e+08
3.87841e+08
3.94939e+08
4.00492e+08
4.04299e+08
4.06214e+08
4.06123e+08
4.0391e+08
3.9951e+08
3.92927e+08
3.84257e+08
3.73636e+08
3.6129e+08
3.47417e+08
3.32299e+08
3.16131e+08
2.99187e+08
2.81697e+08
2.63913e+08
3.4951e+07
3.49358e+07
3.48855e+07
3.4801e+07
3.46822e+07
3.45288e+07
3.43404e+07
3.4117e+07
3.38582e+07
3.3564e+07
3.32346e+07
3.28699e+07
3.24703e+07
3.20362e+07
3.15681e+07
3.10668e+07
3.05329e+07
2.99673e+07
2.93709e+07
2.87449e+07
2.80903e+07
2.74084e+07
2.67005e+07
2.59681e+07
2.52131e+07
2.44373e+07
2.36425e+07
2.28307e+07
2.20038e+07
2.11638e+07
2.03129e+07
1.94533e+07
1.85874e+07
1.77177e+07
1.68467e+07
1.59772e+07
1.51121e+07
1.42545e+07
1.34076e+07
1.25749e+07
1.17601e+07
1.09672e+07
1.02003e+07
9.46364e+06
8.76187e+06
8.09974e+06
7.48214e+06
6.91413e+06
6.40084e+06
5.94749e+06
5.55931e+06
5.24152e+06
4.99929e+06
4.83768e+06
4.76156e+06
4.77552e+06
4.88388e+06
5.09052e+06
5.39887e+06
5.81186e+06
6.33189e+06
6.96073e+06
7.69953e+06
8.54873e+06
9.50811e+06
1.05767e+07
1.1753e+07
1.30347e+07
1.44188e+07
1.59021e+07
1.74805e+07
1.91498e+07
2.09049e+07
2.27407e+07
2.46514e+07
2.66313e+07
2.86743e+07
3.07742e+07
3.29245e+07
3.51188e+07
3.73504e+07
3.96125e+07
4.18981e+07
4.41999e+07
4.65109e+07
4.88236e+07
5.11303e+07
5.34236e+07
5.56953e+07
5.79374e+07
6.01418e+07
6.23003e+07
6.44047e+07
6.6447e+07
6.84193e+07
7.03143e+07
7.2125e+07
7.38453e+07
7.54694e+07
7.69931e+07
7.84123e+07
7.97241e+07
8.09279e+07
8.20234e+07
8.30117e+07
8.3894e+07
8.46724e+07
8.535e+07
8.59308e+07
8.64192e+07
8.68206e+07
8.71401e+07
8.7383e+07
8.75563e+07
8.76685e+07
8.77279e+07
8.77426e+07
8.77223e+07
8.76775e+07
8.76198e+07
8.75637e+07
8.75264e+07
8.75254e+07
8.75822e+07
8.77212e+07
8.79694e+07
8.83563e+07
8.89176e+07
8.96911e+07
9.0718e+07
9.20406e+07
9.37018e+07
9.57444e+07
9.82111e+07
1.01142e+08
1.04574e+08
1.08537e+08
1.13058e+08
1.18156e+08
1.23844e+08
1.30126e+08
1.37001e+08
1.44459e+08
1.52491e+08
1.61073e+08
1.70177e+08
1.7977e+08
1.89826e+08
2.003e+08
2.11143e+08
2.22305e+08
2.33736e+08
2.45373e+08
2.57144e+08
2.68968e+08
2.80757e+08
2.92402e+08
3.03779e+08
3.14766e+08
3.25212e+08
3.34948e+08
3.43807e+08
3.51614e+08
3.58203e+08
3.63404e+08
3.67039e+08
3.68986e+08
3.69141e+08
3.67401e+08
3.63704e+08
3.5805e+08
3.50516e+08
3.41214e+08
3.30337e+08
3.18043e+08
3.04564e+08
2.90067e+08
2.74787e+08
2.58945e+08
2.42813e+08
3.14705e+07
3.14609e+07
3.14214e+07
3.13533e+07
3.12566e+07
3.11308e+07
3.09755e+07
3.07904e+07
3.0575e+07
3.03292e+07
3.00527e+07
2.97457e+07
2.94082e+07
2.90403e+07
2.86423e+07
2.82146e+07
2.77575e+07
2.72717e+07
2.67577e+07
2.62163e+07
2.56483e+07
2.50546e+07
2.44362e+07
2.37943e+07
2.31303e+07
2.24457e+07
2.17418e+07
2.10203e+07
2.02827e+07
1.95307e+07
1.87662e+07
1.7991e+07
1.72072e+07
1.64169e+07
1.56224e+07
1.48263e+07
1.40311e+07
1.32396e+07
1.24549e+07
1.16804e+07
1.09194e+07
1.01758e+07
9.45363e+06
8.75695e+06
8.0903e+06
7.45832e+06
6.86585e+06
6.31784e+06
5.81935e+06
5.37551e+06
4.99151e+06
4.6725e+06
4.42361e+06
4.24987e+06
4.15607e+06
4.14674e+06
4.22608e+06
4.3979e+06
4.66551e+06
5.03174e+06
5.49886e+06
6.06858e+06
6.74192e+06
7.51928e+06
8.40033e+06
9.38408e+06
1.04689e+07
1.16525e+07
1.29321e+07
1.43041e+07
1.57648e+07
1.731e+07
1.89348e+07
2.0634e+07
2.24024e+07
2.42341e+07
2.61234e+07
2.80641e+07
3.00501e+07
3.20752e+07
3.41329e+07
3.62168e+07
3.832e+07
4.04357e+07
4.25569e+07
4.46766e+07
4.67876e+07
4.88825e+07
5.09539e+07
5.29942e+07
5.4996e+07
5.69515e+07
5.88533e+07
6.06943e+07
6.24674e+07
6.41659e+07
6.57838e+07
6.73158e+07
6.87574e+07
7.01047e+07
7.13548e+07
7.25053e+07
7.35559e+07
7.45069e+07
7.53595e+07
7.61151e+07
7.67759e+07
7.73449e+07
7.78258e+07
7.82229e+07
7.85408e+07
7.87835e+07
7.89562e+07
7.90648e+07
7.91163e+07
7.91179e+07
7.90771e+07
7.90015e+07
7.89008e+07
7.87847e+07
7.86662e+07
7.85595e+07
7.84798e+07
7.84456e+07
7.84784e+07
7.86027e+07
7.88452e+07
7.92374e+07
7.98132e+07
8.06092e+07
8.16644e+07
8.30193e+07
8.47137e+07
8.67882e+07
8.92817e+07
9.22296e+07
9.56628e+07
9.96074e+07
1.04086e+08
1.09112e+08
1.14692e+08
1.2083e+08
1.27519e+08
1.34751e+08
1.42507e+08
1.50764e+08
1.59494e+08
1.68668e+08
1.78249e+08
1.88186e+08
1.98429e+08
2.08932e+08
2.19634e+08
2.30463e+08
2.41344e+08
2.52185e+08
2.62884e+08
2.73327e+08
2.834e+08
2.92965e+08
3.01875e+08
3.09976e+08
3.17113e+08
3.2314e+08
3.2792e+08
3.31293e+08
3.33162e+08
3.33442e+08
3.32041e+08
3.28906e+08
3.24033e+08
3.17482e+08
3.0935e+08
2.99795e+08
2.88947e+08
2.76989e+08
2.64064e+08
2.50369e+08
2.36111e+08
2.21576e+08
2.84706e+07
2.84651e+07
2.84342e+07
2.838e+07
2.83023e+07
2.82003e+07
2.80735e+07
2.79216e+07
2.77439e+07
2.75401e+07
2.731e+07
2.70532e+07
2.67696e+07
2.64592e+07
2.6122e+07
2.57581e+07
2.53676e+07
2.49508e+07
2.45081e+07
2.40398e+07
2.35466e+07
2.30289e+07
2.24878e+07
2.19239e+07
2.13383e+07
2.07322e+07
2.01067e+07
1.94629e+07
1.88022e+07
1.8126e+07
1.74358e+07
1.67332e+07
1.60199e+07
1.52978e+07
1.45691e+07
1.38359e+07
1.31007e+07
1.2366e+07
1.16348e+07
1.09102e+07
1.01954e+07
9.49423e+06
8.81037e+06
8.14796e+06
7.51137e+06
6.90516e+06
6.33409e+06
5.80303e+06
5.31696e+06
4.88094e+06
4.5001e+06
4.17956e+06
3.92438e+06
3.73952e+06
3.62968e+06
3.59931e+06
3.65254e+06
3.79306e+06
4.02409e+06
4.3483e+06
4.76786e+06
5.28431e+06
5.8986e+06
6.61096e+06
7.421e+06
8.32762e+06
9.32912e+06
1.04232e+07
1.1607e+07
1.28769e+07
1.42293e+07
1.56599e+07
1.71641e+07
1.87367e+07
2.03725e+07
2.2066e+07
2.38114e+07
2.56028e+07
2.74342e+07
2.92997e+07
3.11931e+07
3.3108e+07
3.50381e+07
3.69768e+07
3.89174e+07
4.08531e+07
4.27772e+07
4.46826e+07
4.65626e+07
4.84099e+07
5.02178e+07
5.19791e+07
5.36872e+07
5.53355e+07
5.69177e+07
5.84281e+07
5.98614e+07
6.12135e+07
6.24805e+07
6.36592e+07
6.47474e+07
6.57435e+07
6.66474e+07
6.74595e+07
6.81815e+07
6.88146e+07
6.93611e+07
6.9824e+07
7.02068e+07
7.05131e+07
7.07469e+07