/*--------------------------------*- C++ -*----------------------------------*\
| =========                 |                                                 |
| \\      /  F ield         | OpenFOAM: The Open Source CFD Toolbox           |
|  \\    /   O peration     | Version:  dev                                   |
|   \\  /    A nd           | Web:      http://www.openfoam.org               |
|    \\/     M anipulation  |                                                 |
\*---------------------------------------------------------------------------*/
FoamFile
{
    version     2.0;
    format      ascii;
    class       volScalarField;
    object      rho;
    location    "9.167";
}
// * * * * * * * * * * * * * * * * * * * * * * * * * * * * * * * * * * * * * //

dimensions      [1 -3 0 0 0 0 0];

internalField   nonuniform List<scalar> 
12225
(
1.19882
1.19824
1.19926
1.20007
1.20056
1.2007
1.20045
1.19997
1.19894
1.19827
1.19606
1.19556
1.19204
1.19187
1.18678
1.18603
1.18425
1.18015
1.19704
1.19921
1.20153
1.2039
1.2049
1.20652
1.20597
1.20692
1.20464
1.20606
1.20133
1.20387
1.19701
1.19951
1.19235
1.19207
1.18742
1.17962
1.19652
1.19934
1.2011
1.2039
1.2051
1.20691
1.20736
1.20775
1.20733
1.20666
1.20516
1.20377
1.20129
1.19921
1.19628
1.19436
1.18947
1.18369
1.19619
1.19858
1.20128
1.20212
1.20527
1.20452
1.20777
1.20511
1.20799
1.20399
1.20587
1.20154
1.20228
1.19789
1.19742
1.1928
1.1916
1.18517
1.19697
1.1967
1.20163
1.20032
1.20508
1.2029
1.20696
1.20375
1.20673
1.20312
1.20461
1.20109
1.20154
1.19805
1.19739
1.19384
1.19232
1.18728
1.19764
1.1952
1.20146
1.19878
1.20448
1.20174
1.20628
1.20284
1.20583
1.20207
1.20395
1.20013
1.20109
1.19701
1.19712
1.19288
1.19231
1.18811
1.19703
1.19466
1.20053
1.19856
1.2033
1.20167
1.20496
1.20252
1.20425
1.20147
1.20252
1.19987
1.19973
1.19667
1.19598
1.19253
1.1916
1.18855
1.19607
1.19428
1.19948
1.19785
1.20229
1.20074
1.20403
1.20142
1.20318
1.20047
1.20146
1.19901
1.19875
1.19566
1.19478
1.19176
1.19085
1.18838
1.19506
1.19325
1.19849
1.19672
1.201
1.19946
1.20255
1.20025
1.2016
1.19938
1.1998
1.19788
1.19714
1.19467
1.19334
1.19107
1.18972
1.18798
1.19408
1.19199
1.19689
1.19519
1.19917
1.19781
1.20047
1.19854
1.19948
1.19781
1.19788
1.19617
1.19522
1.19323
1.19162
1.1897
1.18814
1.18669
1.19229
1.19038
1.19473
1.19327
1.19665
1.19558
1.19764
1.19625
1.19669
1.19566
1.1952
1.19383
1.19261
1.191
1.18924
1.18769
1.1862
1.18484
1.18984
1.18866
1.19182
1.19073
1.19318
1.1926
1.19382
1.19296
1.19304
1.19238
1.19146
1.19048
1.18895
1.18761
1.18591
1.18472
1.18327
1.18202
1.1864
1.18611
1.188
1.1876
1.18888
1.18867
1.18894
1.18842
1.18812
1.18773
1.18668
1.18587
1.18429
1.18325
1.1817
1.18063
1.1792
1.17819
1.18229
1.18278
1.18344
1.18314
1.18351
1.18347
1.18325
1.18283
1.1824
1.18196
1.18094
1.18013
1.17874
1.17777
1.17632
1.17535
1.17408
1.17314
1.17728
1.17818
1.17799
1.17747
1.17738
1.17718
1.17678
1.17632
1.17571
1.17515
1.1743
1.1735
1.17237
1.17142
1.17033
1.16951
1.16832
1.16747
1.17115
1.17232
1.17156
1.17072
1.17026
1.1699
1.16951
1.16903
1.16841
1.16782
1.16712
1.1664
1.16558
1.16479
1.16391
1.1631
1.16231
1.16167
1.1633
1.16512
1.16428
1.16343
1.16272
1.16222
1.1618
1.16128
1.16089
1.16037
1.15983
1.1593
1.15867
1.15813
1.15743
1.15688
1.1563
1.15577
1.15473
1.15756
1.15703
1.15651
1.15574
1.15543
1.1553
1.15474
1.15489
1.15451
1.15427
1.15421
1.1536
1.15355
1.15309
1.15287
1.15259
1.15225
1.14653
1.15061
1.15069
1.15089
1.15026
1.15062
1.15114
1.15063
1.15156
1.15137
1.15141
1.15179
1.15121
1.15178
1.15129
1.15153
1.15164
1.15152
1.13964
1.1448
1.14597
1.1468
1.14643
1.1475
1.14838
1.14822
1.14969
1.14968
1.15027
1.15091
1.15072
1.15165
1.15144
1.15216
1.15233
1.15266
1.1337
1.14042
1.14237
1.14355
1.14409
1.14545
1.14649
1.1472
1.14862
1.14925
1.15024
1.15081
1.15148
1.15206
1.15251
1.15321
1.15369
1.15444
1.12891
1.13753
1.1394
1.14069
1.14263
1.14397
1.14519
1.14688
1.1478
1.14921
1.1504
1.15102
1.15257
1.15267
1.15414
1.1545
1.15547
1.1564
1.12516
1.13485
1.13715
1.1389
1.14121
1.14295
1.14443
1.14664
1.14773
1.14935
1.15084
1.15156
1.15332
1.15372
1.15535
1.15589
1.15724
1.15809
1.12267
1.13242
1.13539
1.13807
1.14015
1.14256
1.14429
1.14612
1.14775
1.14932
1.15101
1.15231
1.15386
1.15491
1.15629
1.15715
1.15849
1.15933
1.12079
1.13112
1.13434
1.13691
1.13935
1.14198
1.14399
1.14608
1.14786
1.14951
1.1512
1.15267
1.15418
1.15549
1.15684
1.15795
1.15924
1.16025
1.11949
1.13013
1.13347
1.13631
1.13908
1.14146
1.14364
1.14571
1.14753
1.14939
1.15113
1.15277
1.15443
1.15586
1.15739
1.15865
1.16001
1.16119
1.11812
1.12932
1.13282
1.13578
1.13859
1.14117
1.14354
1.14568
1.14772
1.14956
1.15137
1.15303
1.15467
1.15623
1.15776
1.15925
1.16071
1.16213
1.11778
1.12896
1.13249
1.13548
1.13837
1.14103
1.14354
1.14582
1.14797
1.14993
1.15181
1.15353
1.15526
1.1569
1.15858
1.16018
1.16182
1.16337
1.11723
1.12876
1.13239
1.13545
1.13836
1.141
1.14339
1.14556
1.14756
1.14943
1.15121
1.15288
1.15459
1.15616
1.15781
1.15927
1.16087
1.16217
1.1146
1.12434
1.12708
1.1296
1.13195
1.13402
1.13587
1.13757
1.13915
1.14067
1.14215
1.14361
1.14505
1.14643
1.14782
1.14914
1.15046
1.15169
1.12948
1.13507
1.12955
1.13249
1.12885
1.12866
1.12685
1.12547
1.12417
1.12301
1.12254
1.12218
1.12181
1.12218
1.12272
1.12342
1.12442
1.12527
1.12503
1.12576
1.12738
1.12882
1.13048
1.13206
1.13317
1.13455
1.13691
1.13768
1.14029
1.14258
1.1453
1.14872
1.14453
1.13921
1.14071
1.1464
1.15185
1.15639
1.15908
1.16166
1.16573
1.16762
1.16987
1.17913
1.18539
1.18044
1.17893
1.18511
1.19056
1.1863
1.1763
1.17061
1.16929
1.16242
1.15365
1.15294
1.15658
1.15989
1.16243
1.16451
1.16631
1.16798
1.16957
1.17112
1.17266
1.1742
1.17571
1.17718
1.17858
1.1799
1.18118
1.18244
1.18372
1.18502
1.18633
1.18762
1.18888
1.19022
1.19171
1.19321
1.19456
1.19567
1.19636
1.19782
1.19974
1.20068
1.20152
1.20324
1.20433
1.20511
1.20623
1.20705
1.20763
1.20809
1.2083
1.20838
1.20838
1.20816
1.20794
1.20787
1.20776
1.20771
1.20789
1.20796
1.20801
1.2082
1.20849
1.20872
1.20935
1.20965
1.20943
1.20931
1.20899
1.20936
1.20962
1.21053
1.21049
1.20922
1.20734
1.20425
1.20148
1.19704
1.1896
1.1811
1.17479
1.17035
1.16702
1.16582
1.16474
1.16152
1.15879
1.15817
1.15774
1.1564
1.15453
1.15244
1.14926
1.14315
1.13634
1.12829
1.11938
1.11294
1.11312
1.11159
1.10863
1.10893
1.10801
1.10502
1.10133
1.10534
1.11366
1.11256
1.11016
1.10961
1.11518
1.11289
1.11433
1.11436
1.11313
1.11261
1.10954
1.10187
1.10735
1.10499
1.09601
1.09167
1.09281
1.0989
1.10284
1.1101
1.11587
1.11862
1.14224
1.13985
1.13948
1.14433
1.16698
1.21258
1.235
1.17066
1.12252
1.14823
1.14608
1.14106
1.13828
1.13536
1.1303
1.12464
1.12072
1.11517
1.11275
1.11338
1.10998
1.10966
1.11048
1.11062
1.11248
1.11528
1.1141
1.11398
1.118
1.11526
1.12117
1.12267
1.12242
1.13041
1.12576
1.13096
1.13683
1.13303
1.14063
1.14659
1.14642
1.15209
1.16059
1.1591
1.15421
1.17041
1.18823
1.19554
1.20341
1.2073
1.20158
1.2064
1.22495
1.23207
1.21077
1.20558
1.23425
1.22812
1.18402
1.15933
1.15596
1.15667
1.15859
1.1616
1.16413
1.1661
1.1677
1.16902
1.17013
1.17115
1.17215
1.17319
1.17433
1.17551
1.17666
1.17766
1.17854
1.17925
1.17996
1.1808
1.18184
1.18301
1.18424
1.18534
1.18616
1.18717
1.18882
1.19045
1.1919
1.19346
1.19252
1.19491
1.19872
1.19961
1.19999
1.20417
1.2076
1.20811
1.21173
1.21522
1.21749
1.21961
1.22196
1.22293
1.224
1.22459
1.22397
1.2235
1.22341
1.22308
1.22401
1.22716
1.23075
1.23484
1.2396
1.24352
1.24766
1.25343
1.25931
1.2652
1.2684
1.27115
1.27026
1.26941
1.26866
1.2637
1.2572
1.25009
1.24403
1.24093
1.23631
1.21742
1.19599
1.18266
1.16964
1.16632
1.17162
1.16519
1.15195
1.14708
1.15506
1.17725
1.20022
1.21536
1.22576
1.22226
1.20455
1.18074
1.14725
1.1291
1.13935
1.13352
1.1279
1.14251
1.13314
1.11293
1.10507
1.12845
1.15126
1.15661
1.14282
1.11631
1.13342
1.16531
1.15505
1.16447
1.17639
1.14006
1.12372
1.15429
1.18288
1.20446
1.19534
1.18316
1.18083
1.18801
1.19953
1.23529
1.24962
1.24831
1.28652
1.28855
1.30635
1.25879
1.26807
1.28448
1.42053
1.28925
1.11125
1.13948
1.15253
1.15826
1.1546
1.14366
1.13139
1.11827
1.11298
1.10824
1.09985
1.10517
1.10288
1.10229
1.10477
1.10451
1.11032
1.1075
1.10934
1.11444
1.11394
1.11815
1.11777
1.11943
1.12305
1.12232
1.12533
1.12823
1.12602
1.13329
1.13948
1.12907
1.14182
1.1444
1.14587
1.15597
1.16094
1.17236
1.17641
1.17185
1.17446
1.19508
1.19896
1.18903
1.18658
1.19059
1.18399
1.17261
1.16432
1.15794
1.15269
1.154
1.15707
1.15951
1.16145
1.16292
1.16386
1.16452
1.16483
1.16475
1.16437
1.16388
1.16361
1.16365
1.1641
1.16476
1.16565
1.16644
1.16709
1.16759
1.168
1.16847
1.16915
1.16993
1.17087
1.17178
1.17226
1.1725
1.17291
1.1728
1.17373
1.17627
1.17465
1.17581
1.17678
1.17815
1.17808
1.1796
1.18355
1.18306
1.18575
1.19068
1.19361
1.19573
1.20165
1.20506
1.20742
1.21092
1.21407
1.2158
1.21649
1.21562
1.2121
1.21267
1.21479
1.21896
1.221
1.22702
1.23221
1.2388
1.24854
1.25864
1.26675
1.27387
1.28383
1.29068
1.29327
1.28605
1.26801
1.24374
1.21841
1.20322
1.20562
1.20351
1.18788
1.16774
1.14308
1.1299
1.13201
1.11632
1.0907
1.07439
1.06872
1.09071
1.13131
1.17606
1.22176
1.24094
1.22999
1.1902
1.14147
1.13925
1.1477
1.13575
1.1462
1.15173
1.11064
1.0887
1.09605
1.13459
1.13238
1.15716
1.11816
1.07077
1.08931
1.16236
1.10765
1.13317
1.16851
1.03642
0.997425
1.10546
1.15397
1.19407
1.23822
1.23226
1.22033
1.21529
1.23227
1.28826
1.2714
1.28168
1.3363
1.34699
1.40837
1.33159
1.33496
1.27707
1.47595
1.37539
1.1068
1.13146
1.14878
1.14794
1.13381
1.11828
1.10784
1.10157
1.09526
1.09893
1.09555
1.10251
1.10112
1.0987
1.10828
1.10716
1.11213
1.11386
1.11741
1.12415
1.12023
1.12663
1.12745
1.12551
1.13328
1.12918
1.12979
1.13686
1.12921
1.12923
1.13268
1.14134
1.1464
1.14343
1.15366
1.14491
1.15651
1.1602
1.17286
1.17365
1.16946
1.18411
1.18519
1.15966
1.15067
1.15286
1.15313
1.15237
1.15291
1.15455
1.15613
1.15772
1.15854
1.15869
1.15834
1.15795
1.15759
1.15737
1.15702
1.15653
1.15607
1.15599
1.15635
1.157
1.15785
1.15883
1.15964
1.16066
1.16158
1.16247
1.16349
1.16442
1.16511
1.16561
1.16603
1.16646
1.16715
1.16827
1.16892
1.16829
1.16835
1.16985
1.17
1.17229
1.1696
1.17219
1.17257
1.17251
1.17397
1.17418
1.17385
1.17534
1.17799
1.17627
1.17871
1.18262
1.18582
1.18666
1.18705
1.18979
1.19523
1.20429
1.20126
1.19825
1.19779
1.20488
1.20713
1.20972
1.2118
1.21504
1.21987
1.22451
1.23583
1.24754
1.25402
1.25282
1.2589
1.26783
1.27158
1.26668
1.24637
1.21714
1.19308
1.17252
1.16786
1.16995
1.16381
1.15103
1.14686
1.12918
1.09622
1.0745
1.0581
1.06014
1.08115
1.12881
1.18411
1.21916
1.22389
1.17904
1.13986
1.14766
1.1454
1.15087
1.17011
1.16591
1.13872
1.12504
1.10814
1.12939
1.11405
1.14675
1.11883
1.08954
1.07798
1.14782
1.07582
1.11016
1.1431
0.990027
0.988822
1.07109
1.10124
1.07487
1.19868
1.24848
1.24052
1.22546
1.26396
1.32016
1.23077
1.23255
1.32309
1.3589
1.48137
1.4055
1.38663
1.2371
1.47715
1.45185
1.10336
1.11907
1.12572
1.11666
1.10627
1.10126
1.096
1.10067
1.10136
1.10336
1.10743
1.10837
1.10628
1.1056
1.11547
1.11536
1.12598
1.13025
1.12535
1.13599
1.13412
1.1337
1.14075
1.13675
1.13996
1.14293
1.13617
1.13753
1.14338
1.14748
1.14305
1.12567
1.11156
1.12906
1.13326
1.14714
1.14736
1.16174
1.1608
1.15811
1.20299
1.18035
1.14561
1.14297
1.14538
1.14894
1.15142
1.15251
1.15349
1.15341
1.15282
1.15158
1.15027
1.14878
1.14737
1.14628
1.14599
1.14615
1.14675
1.14774
1.14948
1.15167
1.15413
1.1566
1.15859
1.16039
1.1617
1.16257
1.16345
1.16416
1.16477
1.16527
1.16537
1.16527
1.16487
1.16428
1.16341
1.16332
1.16196
1.16177
1.16165
1.15961
1.15927
1.16146
1.15785
1.15949
1.15946
1.16061
1.16278
1.16392
1.16699
1.16616
1.16857
1.16952
1.1691
1.16659
1.16879
1.17219
1.17381
1.16921
1.16587
1.1767
1.18259
1.18108
1.17634
1.18139
1.1861
1.19085
1.19289
1.19218
1.19704
1.19787
1.20087
1.20921
1.22577
1.22275
1.21273
1.21195
1.21373
1.21251
1.21371
1.21028
1.21469
1.20062
1.17935
1.17112
1.1648
1.15548
1.15095
1.15206
1.11972
1.08705
1.05836
1.04926
1.06241
1.11116
1.17051
1.2059
1.21376
1.17473
1.13367
1.14538
1.12743
1.1345
1.15686
1.14083
1.14826
1.15792
1.12427
1.10953
1.10605
1.12092
1.14717
1.10038
1.08476
1.14525
1.07334
1.09373
1.13792
1.07463
1.08358
1.09692
1.07522
0.964534
1.0836
1.22277
1.25042
1.20258
1.2598
1.3302
1.2155
1.19337
1.2981
1.35224
1.52202
1.46239
1.42806
1.25521
1.2689
1.56154
1.10088
1.10801
1.10659
1.10157
1.09913
1.10068
1.10318
1.10407
1.10779
1.10649
1.10863
1.10358
1.09793
1.10689
1.12523
1.13327
1.13398
1.13128
1.13295
1.14654
1.14079
1.13772
1.14487
1.13465
1.13398
1.14487
1.1494
1.14801
1.13779
1.13732
1.14826
1.15512
1.16055
1.14735
1.13934
1.14641
1.13789
1.16161
1.15346
1.18088
1.18626
1.1498
1.13893
1.14345
1.14611
1.14872
1.14907
1.14886
1.14802
1.14686
1.14643
1.14558
1.14467
1.14354
1.14318
1.14389
1.14601
1.14869
1.15185
1.15553
1.15924
1.16278
1.16566
1.16818
1.17025
1.17152
1.17282
1.17369
1.17446
1.17501
1.1753
1.17528
1.17496
1.17438
1.17337
1.17334
1.17255
1.17174
1.16927
1.1693
1.16724
1.16463
1.16166
1.16043
1.15777
1.15428
1.15203
1.15054
1.15194
1.15025
1.15269
1.15635
1.1587
1.15875
1.16229
1.16068
1.16029
1.15444
1.16105
1.16218
1.15662
1.15349
1.15733
1.16151
1.15731
1.16048
1.16304
1.16797
1.17384
1.17285
1.17237
1.17094
1.17109
1.16596
1.18358
1.19612
1.18361
1.17637
1.18134
1.17411
1.16605
1.14868
1.15708
1.17566
1.17058
1.16982
1.14931
1.13546
1.12271
1.13799
1.13922
1.11325
1.07597
1.03805
1.03924
1.08221
1.1563
1.19657
1.20102
1.17418
1.13356
1.13739
1.12996
1.10541
1.12241
1.12496
1.12674
1.12028
1.10623
1.1182
1.12535
1.10175
1.17203
1.11091
1.1066
1.15986
1.08857
1.07182
1.1
1.14916
1.09977
1.11924
1.0923
0.999533
0.978634
1.15827
1.25535
1.16553
1.20621
1.31839
1.23901
1.18931
1.28721
1.346
1.53852
1.50214
1.46398
1.27438
1.17437
1.53561
1.10034
1.10252
1.10028
1.10095
1.10272
1.10178
1.1056
1.10738
1.10701
1.10586
1.10007
1.09828
1.1031
1.12678
1.14716
1.14037
1.12735
1.13478
1.15182
1.1576
1.14964
1.14314
1.13944
1.13412
1.13612
1.13741
1.14722
1.15989
1.15363
1.14706
1.14709
1.14679
1.13807
1.128
1.14004
1.13478
1.14969
1.16003
1.16255
1.19223
1.16913
1.1396
1.14343
1.14637
1.14753
1.14725
1.14573
1.14469
1.14394
1.14392
1.14373
1.14267
1.14127
1.1406
1.14175
1.1451
1.14935
1.15392
1.15834
1.16237
1.16535
1.16758
1.16912
1.16978
1.17056
1.17091
1.17113
1.17134
1.17158
1.17152
1.17167
1.17156
1.1714
1.17188
1.17091
1.17057
1.17037
1.16914
1.16856
1.17055
1.16902
1.16826
1.1679
1.16116
1.16128
1.1558
1.15322
1.14865
1.14661
1.14534
1.1413
1.14016
1.14783
1.1508
1.1567
1.15068
1.15637
1.14773
1.14825
1.14615
1.14937
1.14493
1.14305
1.14767
1.14267
1.14293
1.14346
1.14135
1.14439
1.15093
1.15107
1.14788
1.1527
1.13931
1.13886
1.15342
1.15077
1.14269
1.1528
1.16117
1.1592
1.14419
1.12192
1.12915
1.12634
1.14832
1.15243
1.13567
1.11357
1.10373
1.12521
1.12659
1.11385
1.06206
1.03677
1.06154
1.13776
1.1834
1.19705
1.16836
1.13908
1.1334
1.14047
1.10329
1.10865
1.11888
1.11478
1.12573
1.12744
1.129
1.15391
1.13021
1.15985
1.14332
1.11922
1.16417
1.14037
1.09096
1.06113
1.15684
1.09403
1.08635
1.13145
1.12748
0.971546
1.10615
1.25678
1.14733
1.11751
1.28215
1.26914
1.20057
1.27877
1.33993
1.54874
1.5116
1.49886
1.28997
1.29569
1.29602
1.1014
1.10131
1.10231
1.10439
1.10451
1.10664
1.10793
1.1106
1.10542
1.10032
1.09782
1.10419
1.11909
1.13549
1.13933
1.12764
1.13014
1.1546
1.1761
1.1759
1.16672
1.15531
1.13667
1.12064
1.12214
1.13723
1.15891
1.16959
1.16206
1.14848
1.13822
1.1378
1.13964
1.1459
1.14521
1.13995
1.15825
1.15227
1.17693
1.18765
1.15134
1.13985
1.14809
1.14558
1.14508
1.1421
1.14094
1.14054
1.14095
1.14128
1.14022
1.13874
1.13809
1.14015
1.14486
1.15112
1.15685
1.16156
1.16441
1.16572
1.16585
1.16513
1.1645
1.16387
1.16362
1.16375
1.1643
1.16483
1.16558
1.16627
1.16705
1.16776
1.16756
1.16837
1.16874
1.16714
1.16625
1.16414
1.16183
1.16259
1.16641
1.16399
1.17228
1.16428
1.16512
1.1574
1.15684
1.15132
1.14689
1.14516
1.14174
1.13184
1.1336
1.13434
1.14589
1.14698
1.15367
1.14682
1.14717
1.13879
1.14029
1.13484
1.1278
1.13025
1.13077
1.13053
1.13281
1.12971
1.12084
1.12926
1.13248
1.12433
1.13367
1.12785
1.11353
1.11746
1.12117
1.11582
1.11074
1.12731
1.13113
1.14077
1.12286
1.11584
1.09818
1.09686
1.12513
1.13169
1.12294
1.09286
1.09785
1.12635
1.13255
1.08998
1.03834
1.04193
1.11809
1.16905
1.19509
1.16679
1.14303
1.13363
1.14471
1.12404
1.1075
1.11833
1.11109
1.09801
1.1234
1.11565
1.1374
1.1265
1.11979
1.16475
1.11581
1.13396
1.18067
1.1205
1.06259
1.15032
1.1151
1.05882
1.15844
1.18428
1.01656
1.0826
1.25496
1.18214
1.04454
1.22384
1.28339
1.21331
1.26726
1.33785
1.55789
1.49831
1.52615
1.28903
1.30935
1.30275
1.10371
1.10332
1.10616
1.10844
1.10782
1.11008
1.11119
1.10752
1.1027
1.09895
1.10295
1.10973
1.11302
1.12
1.13309
1.14408
1.15808
1.17284
1.18241
1.17962
1.16631
1.15063
1.13412
1.12409
1.12906
1.14318
1.15737
1.16613
1.16882
1.16455
1.16307
1.16717
1.16653
1.15816
1.14319
1.14422
1.1485
1.15857
1.18967
1.1731
1.14019
1.14292
1.14545
1.13973
1.13907
1.13646
1.1382
1.13909
1.14046
1.13969
1.13802
1.13739
1.13913
1.14454
1.15127
1.15727
1.16084
1.16174
1.16043
1.15812
1.15624
1.15495
1.15434
1.15448
1.15521
1.15596
1.15694
1.15826
1.15998
1.16137
1.16306
1.16523
1.16677
1.16649
1.16859
1.16766
1.1655
1.16446
1.15913
1.1533
1.15454
1.15072
1.16008
1.15959
1.16623
1.15801
1.15841
1.15299
1.1484
1.1464
1.14809
1.13988
1.12975
1.12987
1.12955
1.13336
1.14118
1.14246
1.14247
1.13438
1.13333
1.13477
1.12797
1.12241
1.1185
1.11719
1.1199
1.12569
1.10938
1.10775
1.11517
1.10319
1.11278
1.11588
1.10119
1.09639
1.09771
1.10379
1.08963
1.10452
1.09897
1.09804
1.09208
1.09512
1.09238
1.06758
1.07169
1.09563
1.11414
1.10686
1.07859
1.10018
1.13054
1.11261
1.0544
1.0313
1.09296
1.15324
1.18902
1.16975
1.1448
1.13776
1.14169
1.14688
1.12229
1.13436
1.1117
1.07976
1.10571
1.09485
1.12264
1.09815
1.05426
1.15615
1.12323
1.09186
1.1876
1.14257
1.09346
1.16138
1.10951
1.07319
1.18509
1.17041
1.03992
1.06272
1.2373
1.24128
1.02582
1.16935
1.28532
1.22494
1.25494
1.33659
1.56555
1.47509
1.55197
1.2605
1.24786
1.39206
1.10677
1.10677
1.11021
1.11252
1.11277
1.11337
1.11333
1.10942
1.10381
1.10225
1.10163
1.10269
1.10985
1.12603
1.13469
1.13253
1.13371
1.1402
1.15033
1.16352
1.16976
1.16201
1.14168
1.12041
1.11364
1.12062
1.13286
1.14509
1.15464
1.15816
1.16242
1.1633
1.15491
1.14194
1.13459
1.14029
1.14998
1.17886
1.18986
1.15568
1.13691
1.14516
1.14001
1.13565
1.13641
1.1365
1.14007
1.14082
1.14094
1.13828
1.13642
1.1371
1.14121
1.14786
1.15379
1.15762
1.15809
1.15631
1.1542
1.15248
1.15158
1.15139
1.15192
1.15264
1.1535
1.15462
1.15594
1.15652
1.1586
1.16015
1.16227
1.16405
1.16763
1.16684
1.16786
1.16793
1.1669
1.16814
1.16704
1.16225
1.1536
1.14876
1.14743
1.14629
1.15193
1.15373
1.15155
1.14961
1.14461
1.14195
1.14104
1.14464
1.13436
1.13564
1.12973
1.12784
1.12774
1.13395
1.14037
1.13602
1.12635
1.12678
1.12034
1.11819
1.11336
1.10947
1.10551
1.11495
1.11037
1.10134
1.10583
1.09109
1.09659
1.10104
1.09017
1.0865
1.08179
1.09248
1.07905
1.09309
1.09369
1.07873
1.06074
1.05454
1.07409
1.06953
1.0475
1.05277
1.08024
1.09796
1.07281
1.06553
1.11173
1.12507
1.07427
1.03266
1.07172
1.13699
1.18042
1.17375
1.15155
1.14082
1.13579
1.15149
1.13684
1.16451
1.15022
1.10396
1.10182
1.07394
1.09895
1.10235
1.01887
1.12424
1.12422
1.06545
1.17707
1.14711
1.1285
1.17509
1.09372
1.11073
1.20509
1.14011
1.05815
1.04867
1.22095
1.28402
1.04543
1.13881
1.28478
1.23196
1.24299
1.33979
1.57245
1.45751
1.55169
1.26537
1.35662
1.38641
1.11027
1.11071
1.11478
1.11725
1.11766
1.11913
1.11515
1.11064
1.10405
1.10144
1.10262
1.10196
1.10045
1.10209
1.10143
1.10228
1.11001
1.12078
1.13078
1.14711
1.16751
1.1807
1.17758
1.15945
1.14224
1.1304
1.12684
1.12885
1.13275
1.13621
1.13924
1.13722
1.13255
1.13074
1.13512
1.14823
1.17247
1.19396
1.17638
1.14125
1.13796
1.14311
1.1345
1.1344
1.13622
1.13914
1.14237
1.14156
1.13935
1.13583
1.13482
1.13737
1.14325
1.15031
1.1551
1.15708
1.15571
1.15321
1.15059
1.14813
1.14665
1.14607
1.14644
1.14749
1.14871
1.14961
1.15206
1.15209
1.15381
1.15415
1.1552
1.15554
1.15822
1.15858
1.15808
1.15701
1.15451
1.15493
1.1552
1.15965
1.15711
1.15785
1.14992
1.15098
1.14275
1.14839
1.1451
1.14858
1.14496
1.14033
1.13633
1.13407
1.12923
1.13076
1.13078
1.1298
1.12794
1.12216
1.12803
1.131
1.12411
1.12613
1.1175
1.11594
1.10876
1.10605
1.10354
1.1
1.09929
1.09833
1.09932
1.08765
1.09013
1.09101
1.08019
1.08066
1.07259
1.08112
1.06863
1.07414
1.08541
1.08676
1.07427
1.05028
1.05869
1.07463
1.05859
1.04275
1.05491
1.07957
1.06934
1.04283
1.07795
1.12114
1.08436
1.03647
1.04544
1.11396
1.17
1.17373
1.15997
1.15064
1.13741
1.14162
1.14462
1.17592
1.17519
1.13281
1.13012
1.10566
1.09619
1.10972
1.03459
1.09303
1.10906
1.05642
1.16783
1.13545
1.15182
1.17624
1.09157
1.15972
1.19404
1.10212
1.08031
1.06665
1.22931
1.29707
1.08929
1.11997
1.27577
1.23235
1.23119
1.34393
1.57378
1.44868
1.52029
1.24889
1.38384
1.43654
1.11427
1.11561
1.1195
1.12159
1.1227
1.12282
1.11692
1.10964
1.10672
1.10459
1.09865
1.09368
1.09825
1.10845
1.1134
1.11277
1.11417
1.11751
1.12094
1.13055
1.14596
1.16227
1.17328
1.17383
1.16696
1.15556
1.1454
1.13812
1.13447
1.13217
1.13103
1.13046
1.13223
1.1385
1.15142
1.17283
1.19443
1.19126
1.15757
1.13505
1.14107
1.1396
1.13281
1.13679
1.13932
1.14266
1.14313
1.14062
1.137
1.13447
1.13525
1.1395
1.14594
1.15209
1.1552
1.15474
1.15161
1.14769
1.14409
1.14186
1.14181
1.14368
1.14634
1.14886
1.15151
1.15174
1.1556
1.1568
1.1585
1.15916
1.15901
1.15871
1.15829
1.15981
1.15829
1.15915
1.15423
1.15232
1.14684
1.14498
1.14178
1.14645
1.14411
1.14664
1.14357
1.14488
1.14112
1.1382
1.14362
1.14055
1.14117
1.13785
1.1305
1.12744
1.12567
1.11893
1.12704
1.12479
1.1264
1.12581
1.12241
1.12151
1.1102
1.11378
1.10635
1.09912
1.1043
1.09755
1.08925
1.09087
1.09172
1.08552
1.0868
1.08842
1.08278
1.08056
1.0686
1.07304
1.06637
1.0657
1.06758
1.07985
1.08404
1.06781
1.05761
1.07237
1.07159
1.05295
1.04475
1.07038
1.07443
1.04932
1.05069
1.11328
1.09349
1.05317
1.03201
1.09101
1.15576
1.17231
1.16524
1.16165
1.14776
1.15273
1.14679
1.14933
1.17835
1.13292
1.12669
1.11597
1.10426
1.13039
1.07707
1.09652
1.10787
1.06227
1.16641
1.12776
1.16505
1.17014
1.09694
1.20436
1.15602
1.07909
1.11297
1.13468
1.2559
1.27318
1.1414
1.1063
1.26428
1.23053
1.22387
1.34922
1.57692
1.44374
1.45379
1.26126
1.38509
1.47914
1.11863
1.12091
1.12449
1.12602
1.12771
1.12331
1.1152
1.1113
1.10922
1.11096
1.11304
1.11718
1.11671
1.113
1.11324
1.11611
1.12123
1.1251
1.12681
1.13049
1.13684
1.14594
1.15701
1.16661
1.17155
1.17164
1.16737
1.1605
1.15506
1.1498
1.14758
1.15056
1.15691
1.16605
1.18115
1.19819
1.19891
1.1739
1.14248
1.13613
1.14278
1.13659
1.13454
1.13986
1.14191
1.14393
1.14188
1.13836
1.13536
1.13439
1.13639
1.14197
1.14848
1.15287
1.15381
1.15136
1.14767
1.14336
1.14027
1.14068
1.14368
1.14748
1.14984
1.14911
1.15041
1.14807
1.15036
1.15119
1.15262
1.15463
1.1526
1.15536
1.15316
1.15289
1.15179
1.15218
1.1513
1.15185
1.15207
1.15084
1.15058
1.14355
1.14642
1.14072
1.14153
1.13905
1.14251
1.13714
1.13574
1.13142
1.12735
1.13537
1.1315
1.12732
1.12976
1.11924
1.1142
1.11621
1.12175
1.11623
1.11875
1.12254
1.11011
1.11102
1.10855
1.09695
1.09938
1.09834
1.09442
1.08707
1.08553
1.08268
1.07884
1.0835
1.09395
1.08381
1.06635
1.06688
1.06819
1.07636
1.06986
1.06795
1.07377
1.07526
1.06493
1.06584
1.07979
1.07097
1.04316
1.06263
1.07441
1.06797
1.03757
1.09722
1.10446
1.07127
1.0299
1.06636
1.13646
1.16902
1.16673
1.16809
1.15308
1.16983
1.16765
1.12824
1.15785
1.11567
1.12156
1.13365
1.10832
1.11855
1.0848
1.10539
1.11781
1.08029
1.16816
1.12535
1.17827
1.16438
1.10955
1.22915
1.11945
1.08779
1.17249
1.22512
1.26236
1.2289
1.18384
1.12155
1.27575
1.23328
1.21967
1.36153
1.58037
1.43568
1.40858
1.26125
1.40795
1.4784
1.12333
1.12666
1.12997
1.13017
1.13083
1.12619
1.11974
1.11895
1.12019
1.1226
1.12226
1.12605
1.13001
1.13105
1.12984
1.12824
1.1272
1.12786
1.13212
1.13696
1.1415
1.14708
1.15469
1.16409
1.17224
1.17784
1.18016
1.17973
1.17877
1.17836
1.17884
1.18332
1.19141
1.20118
1.20861
1.20579
1.18526
1.1553
1.13713
1.13975
1.14128
1.13469
1.13733
1.14197
1.14299
1.14305
1.13946
1.13625
1.13429
1.13539
1.13969
1.14566
1.15005
1.15199
1.15189
1.1486
1.14392
1.14024
1.1395
1.14115
1.14302
1.14481
1.14687
1.14339
1.14322
1.14026
1.14408
1.14795
1.14698
1.15209
1.14779
1.14926
1.14842
1.14496
1.14606
1.14282
1.14289
1.13865
1.13921
1.13495
1.14143
1.13932
1.14091
1.14109
1.14055
1.13816
1.13988
1.13705
1.13848
1.14523
1.13079
1.12926
1.12782
1.12031
1.12503
1.12658
1.11632
1.11198
1.11892
1.11422
1.10929
1.11683
1.11166
1.1075
1.10882
1.10027
1.09392
1.09368
1.10384
1.09003
1.08371
1.08527
1.07638
1.0797
1.10168
1.08814
1.06893
1.06362
1.06514
1.08458
1.08496
1.0708
1.05586
1.07721
1.07491
1.06823
1.07856
1.08511
1.05396
1.06033
1.07688
1.08487
1.04415
1.07731
1.10486
1.09348
1.0444
1.04197
1.11513
1.15779
1.17001
1.17395
1.15532
1.17247
1.18928
1.1414
1.14949
1.11556
1.11712
1.15456
1.13592
1.13075
1.09549
1.12489
1.14133
1.10708
1.18219
1.1287
1.19082
1.16271
1.12673
1.23395
1.10221
1.11614
1.24858
1.27225
1.23422
1.20244
1.21616
1.19585
1.32116
1.23817
1.21779
1.37619
1.57761
1.42729
1.41553
1.27117
1.42784
1.48521
1.12836
1.13277
1.13567
1.13601
1.13861
1.13411
1.12578
1.12417
1.12541
1.13033
1.13251
1.12969
1.12313
1.11942
1.12146
1.12613
1.12802
1.13077
1.13346
1.13647
1.14213
1.14909
1.15544
1.16308
1.17184
1.18091
1.18817
1.19332
1.19706
1.20097
1.20461
1.20653
1.20784
1.20915
1.20487
1.18841
1.16472
1.14489
1.13897
1.14227
1.13916
1.13574
1.14041
1.14306
1.14274
1.14075
1.13703
1.13505
1.13529
1.13816
1.14285
1.14637
1.15018
1.15202
1.15017
1.14645
1.14268
1.13953
1.13819
1.13922
1.14125
1.14178
1.14601
1.14416
1.14542
1.14348
1.14292
1.15139
1.15097
1.15596
1.15277
1.151
1.15066
1.14528
1.14794
1.1436
1.14586
1.14631
1.14346
1.14423
1.1364
1.13833
1.136
1.13594
1.13807
1.134
1.13468
1.1338
1.12549
1.13261
1.12964
1.13147
1.1348
1.12211
1.12109
1.12344
1.11597
1.11042
1.112
1.11246
1.10551
1.10654
1.11181
1.10909
1.1051
1.10491
1.09251
1.08929
1.10986
1.09353
1.08355
1.08821
1.0781
1.08124
1.09947
1.08391
1.08045
1.07284
1.0668
1.08492
1.093
1.07948
1.0449
1.0792
1.08428
1.0789
1.07464
1.08435
1.07495
1.06028
1.08081
1.09626
1.0617
1.07402
1.09213
1.10973
1.073
1.02972
1.0958
1.14
1.16878
1.17988
1.16356
1.16796
1.19469
1.1635
1.1593
1.12662
1.11498
1.16777
1.15797
1.16493
1.11212
1.13727
1.15542
1.12037
1.19212
1.13575
1.20602
1.16533
1.14396
1.22827
1.10084
1.15447
1.30085
1.26126
1.21007
1.20348
1.21725
1.30734
1.37414
1.23733
1.21563
1.39072
1.57999
1.42166
1.44959
1.27118
1.43585
1.48955
1.13367
1.13919
1.14247
1.14487
1.14838
1.14191
1.13138
1.12686
1.12227
1.12466
1.12308
1.12291
1.12556
1.1319
1.136
1.13494
1.13005
1.12949
1.13385
1.13872
1.14199
1.14749
1.15363
1.15978
1.16658
1.17473
1.18326
1.1912
1.19699
1.20094
1.20399
1.20443
1.20041
1.19243
1.18028
1.16355
1.14821
1.13985
1.13958
1.14053
1.13697
1.13763
1.14257
1.14365
1.14242
1.13964
1.13667
1.13595
1.13706
1.14059
1.14502
1.14852
1.15118
1.15044
1.14811
1.14507
1.14115
1.13854
1.13739
1.13739
1.13916
1.13796
1.14493
1.14686
1.1432
1.14178
1.13885
1.14335
1.14358
1.14507
1.14513
1.14229
1.14519
1.14252
1.14447
1.14393
1.13639
1.14098
1.13361
1.14232
1.14057
1.13921
1.13945
1.13399
1.13683
1.13558
1.13583
1.13806
1.13248
1.13446
1.12752
1.12057
1.12821
1.12116
1.12126
1.12551
1.11837
1.11522
1.11456
1.1103
1.1104
1.10158
1.10489
1.11118
1.10095
1.10512
1.09344
1.09148
1.11224
1.0935
1.08581
1.09047
1.08411
1.09295
1.09725
1.0763
1.09486
1.09021
1.07839
1.08047
1.09786
1.07638
1.06184
1.08303
1.09818
1.09312
1.08089
1.07602
1.09633
1.07206
1.08136
1.10398
1.08089
1.07825
1.07723
1.1129
1.09974
1.03518
1.07683
1.12175
1.16058
1.18018
1.17802
1.16461
1.19316
1.17085
1.16844
1.14557
1.11426
1.15954
1.15818
1.18993
1.13151
1.14603
1.16967
1.13883
1.1982
1.14056
1.21863
1.17001
1.16233
1.2231
1.10755
1.19808
1.29944
1.23294
1.20633
1.20611
1.18094
1.39323
1.39735
1.22333
1.20729
1.40405
1.58563
1.42434
1.47096
1.2683
1.43997
1.49174
1.13942
1.14613
1.14994
1.15281
1.15216
1.14738
1.14326
1.13706
1.12918
1.13506
1.13652
1.13853
1.1371
1.1344
1.1333
1.1371
1.1381
1.13516
1.13496
1.13758
1.13862
1.143
1.14915
1.15388
1.15985
1.16494
1.16899
1.17489
1.17983
1.18264
1.1834
1.18142
1.17839
1.17267
1.16286
1.15239
1.14485
1.14066
1.14031
1.13887
1.13682
1.13933
1.14254
1.14257
1.14075
1.13869
1.137
1.13749
1.13996
1.14374
1.1455
1.14866
1.14959
1.14839
1.14758
1.14425
1.13965
1.13832
1.1379
1.13555
1.13758
1.13733
1.1411
1.14651
1.14432
1.14002
1.13802
1.14054
1.1436
1.14406
1.14413
1.14549
1.14715
1.15249
1.1526
1.15647
1.15087
1.15045
1.14104
1.1393
1.13517
1.13754
1.13963
1.13351
1.13575
1.13113
1.12948
1.13059
1.12651
1.12813
1.13402
1.12772
1.13132
1.12325
1.11805
1.1204
1.11697
1.11618
1.11735
1.11136
1.11531
1.10438
1.10211
1.11182
1.10493
1.10442
1.09382
1.10172
1.10989
1.09475
1.0941
1.09197
1.09316
1.10301
1.09071
1.07766
1.1058
1.10195
1.09099
1.08095
1.10153
1.07447
1.09086
1.0907
1.10983
1.10041
1.0953
1.07929
1.10194
1.08766
1.08438
1.11004
1.11156
1.09454
1.08059
1.11453
1.12324
1.06164
1.0607
1.09947
1.14801
1.17271
1.19398
1.17235
1.19714
1.17058
1.16831
1.17154
1.13713
1.15878
1.15139
1.19597
1.14143
1.14883
1.17782
1.16072
1.21295
1.15383
1.23145
1.17546
1.17956
1.22025
1.12023
1.23766
1.25048
1.21367
1.20503
1.1956
1.145
1.38653
1.35566
1.19699
1.19594
1.40846
1.58723
1.44835
1.4512
1.26905
1.44649
1.50332
1.14552
1.1531
1.1556
1.15733
1.15698
1.15696
1.15357
1.14972
1.14172
1.13843
1.13715
1.13975
1.1388
1.13979
1.13943
1.13892
1.1397
1.14055
1.14142
1.14207
1.14186
1.14131
1.14339
1.14559
1.14949
1.15489
1.15956
1.16173
1.16351
1.1642
1.1649
1.16227
1.15836
1.15413
1.14972
1.14529
1.14326
1.14261
1.14265
1.14189
1.14188
1.14491
1.14666
1.14565
1.14275
1.14069
1.13936
1.13967
1.14257
1.14523
1.14806
1.14997
1.14888
1.14796
1.14515
1.14296
1.14109
1.13781
1.13807
1.13828
1.13693
1.13545
1.13966
1.14416
1.14648
1.14465
1.14059
1.14033
1.13768
1.14137
1.13985
1.14361
1.14533
1.14881
1.1496
1.14717
1.14175
1.1411
1.13545
1.1371
1.13276
1.12861
1.13193
1.12966
1.13531
1.13237
1.13174
1.13478
1.13029
1.12612
1.12681