/*--------------------------------*- C++ -*----------------------------------*\
| =========                 |                                                 |
| \\      /  F ield         | OpenFOAM: The Open Source CFD Toolbox           |
|  \\    /   O peration     | Version:  dev                                   |
|   \\  /    A nd           | Web:      http://www.openfoam.org               |
|    \\/     M anipulation  |                                                 |
\*---------------------------------------------------------------------------*/
FoamFile
{
    version     2.0;
    format      ascii;
    class       volScalarField;
    object      rho_0;
    location    "9.167";
}
// * * * * * * * * * * * * * * * * * * * * * * * * * * * * * * * * * * * * * //

dimensions      [1 -3 0 0 0 0 0];

internalField   nonuniform List<scalar> 
12225
(
1.2184
1.21922
1.22082
1.22211
1.22321
1.22386
1.22423
1.22432
1.22385
1.22369
1.22191
1.22187
1.21855
1.21865
1.21344
1.21251
1.21059
1.20405
1.21722
1.22109
1.22379
1.22666
1.22816
1.23041
1.23044
1.23206
1.23031
1.23234
1.22801
1.23103
1.2244
1.22706
1.21993
1.21911
1.2142
1.20447
1.21666
1.22106
1.22318
1.22642
1.22817
1.2305
1.23165
1.23256
1.23288
1.23257
1.23178
1.23059
1.22867
1.22654
1.2238
1.22164
1.21631
1.21015
1.21618
1.22
1.22318
1.22431
1.22814
1.22776
1.2318
1.22955
1.23322
1.22958
1.23211
1.22806
1.2293
1.22497
1.22465
1.2199
1.21858
1.21227
1.21669
1.21769
1.22321
1.22213
1.22759
1.2258
1.23059
1.22787
1.2315
1.22841
1.23042
1.22729
1.22815
1.22486
1.22421
1.22071
1.21919
1.21447
1.2169
1.21572
1.22248
1.22012
1.22644
1.22419
1.22937
1.22649
1.23007
1.22686
1.22925
1.22585
1.22722
1.22339
1.22342
1.2194
1.2188
1.21502
1.21554
1.21455
1.22081
1.21925
1.22452
1.22344
1.22731
1.22546
1.22775
1.22557
1.2271
1.22492
1.22519
1.22243
1.22157
1.21855
1.21759
1.21486
1.21376
1.21335
1.21893
1.21768
1.22266
1.22161
1.22553
1.22349
1.22585
1.22373
1.22521
1.22322
1.22341
1.22063
1.21966
1.21714
1.21621
1.21402
1.21191
1.21141
1.21704
1.21562
1.22043
1.21941
1.22308
1.22141
1.22331
1.22174
1.22262
1.22121
1.2209
1.21881
1.21747
1.21571
1.21435
1.21283
1.20986
1.209
1.21424
1.21292
1.21738
1.21657
1.21977
1.21851
1.21998
1.21898
1.21952
1.21833
1.21784
1.21622
1.21478
1.21328
1.21183
1.21055
1.20657
1.20592
1.2105
1.20946
1.21324
1.21276
1.21531
1.21462
1.21561
1.21524
1.21524
1.21444
1.21368
1.21248
1.21102
1.20986
1.2086
1.20746
1.20219
1.20228
1.20556
1.20492
1.2077
1.20771
1.20939
1.20924
1.20987
1.20986
1.20944
1.20905
1.20799
1.20713
1.20583
1.20505
1.2039
1.20295
1.19636
1.19721
1.19917
1.19919
1.20077
1.20111
1.20185
1.202
1.20231
1.20254
1.20207
1.20183
1.20079
1.20028
1.19919
1.19856
1.19753
1.19691
1.18923
1.19068
1.19139
1.19141
1.19211
1.19256
1.19285
1.19305
1.19324
1.19343
1.19304
1.19283
1.19205
1.19163
1.19074
1.19027
1.18947
1.18899
1.18043
1.18205
1.1819
1.18166
1.18191
1.18216
1.18226
1.18237
1.18239
1.18249
1.18232
1.18216
1.18169
1.18137
1.1809
1.18065
1.18002
1.17969
1.16954
1.17129
1.17059
1.17001
1.16988
1.16994
1.17003
1.17009
1.17008
1.17016
1.17016
1.17013
1.17002
1.16992
1.1697
1.16953
1.16937
1.16932
1.1563
1.15843
1.15765
1.15706
1.15666
1.15656
1.15661
1.15658
1.15679
1.15689
1.15705
1.15724
1.15732
1.1575
1.15751
1.15765
1.15774
1.15785
1.14199
1.14501
1.14456
1.14429
1.1438
1.14389
1.14419
1.14409
1.14482
1.145
1.14541
1.14603
1.14609
1.14679
1.14701
1.14752
1.14793
1.14826
1.12928
1.13316
1.13327
1.13366
1.13327
1.13398
1.13485
1.13475
1.13619
1.13649
1.13712
1.1381
1.13816
1.13941
1.13958
1.14053
1.1413
1.14186
1.11887
1.12362
1.12476
1.12566
1.12549
1.12681
1.12792
1.12814
1.12998
1.13043
1.13154
1.13269
1.13314
1.13461
1.13506
1.1364
1.1372
1.13819
1.11024
1.11649
1.11826
1.11941
1.12013
1.12159
1.12279
1.12382
1.12547
1.12652
1.12794
1.12896
1.13023
1.13127
1.13234
1.13356
1.13466
1.13601
1.1036
1.11154
1.11311
1.11435
1.11634
1.11769
1.11902
1.12092
1.12202
1.12377
1.12531
1.12635
1.12838
1.12894
1.13096
1.1318
1.13335
1.1348
1.09868
1.10734
1.1093
1.11097
1.11317
1.11489
1.11642
1.11869
1.11996
1.12181
1.1236
1.12471
1.12686
1.12775
1.12981
1.13085
1.13269
1.13403
1.09517
1.10385
1.10645
1.10893
1.11085
1.11318
1.11487
1.11673
1.11849
1.12024
1.12217
1.12382
1.1257
1.1272
1.12898
1.13032
1.1321
1.13342
1.09265
1.10183
1.10459
1.1069
1.10916
1.11162
1.11356
1.11565
1.1175
1.11931
1.1212
1.12296
1.12479
1.12648
1.12824
1.1298
1.13153
1.133
1.09086
1.10031
1.10316
1.10572
1.10825
1.11044
1.11251
1.11455
1.11641
1.1184
1.12032
1.12222
1.12419
1.12597
1.12789
1.12957
1.13136
1.133
1.08924
1.09919
1.10216
1.1048
1.10734
1.10972
1.11196
1.11405
1.11611
1.11805
1.12003
1.12192
1.12385
1.12575
1.12766
1.12955
1.13143
1.13329
1.08868
1.09861
1.10161
1.10426
1.10686
1.1093
1.11165
1.11386
1.11602
1.11806
1.12009
1.12204
1.12405
1.12601
1.12805
1.13004
1.13208
1.13404
1.08807
1.09833
1.10136
1.10407
1.10667
1.10906
1.11129
1.11338
1.11538
1.11732
1.11925
1.12114
1.12311
1.125
1.127
1.12883
1.13084
1.13254
1.08553
1.09431
1.09656
1.09869
1.10072
1.10255
1.10424
1.10585
1.10743
1.10903
1.11065
1.11231
1.114
1.11569
1.11742
1.11911
1.12082
1.12241
1.11836
1.12371
1.11821
1.12123
1.11769
1.11754
1.11582
1.11457
1.11337
1.11232
1.11199
1.11172
1.11151
1.11203
1.11271
1.11357
1.1147
1.11563
1.11557
1.11657
1.11838
1.12003
1.12184
1.12358
1.12489
1.1265
1.12906
1.13002
1.13292
1.13541
1.13838
1.14184
1.13769
1.13274
1.13465
1.14062
1.1463
1.15096
1.15375
1.15655
1.16078
1.16281
1.16564
1.17532
1.18117
1.17619
1.17562
1.18236
1.18742
1.18266
1.173
1.16804
1.16684
1.15978
1.15158
1.15167
1.15564
1.15905
1.1617
1.1639
1.16583
1.16761
1.1693
1.17095
1.17258
1.1742
1.17578
1.17732
1.17879
1.18019
1.18155
1.18292
1.18431
1.18575
1.18722
1.18871
1.19021
1.19182
1.19364
1.19551
1.1973
1.19891
1.20017
1.20224
1.20485
1.20653
1.20814
1.21069
1.21264
1.21429
1.21631
1.21803
1.2195
1.22081
1.22183
1.22266
1.22334
1.22371
1.22402
1.22438
1.22463
1.22487
1.22524
1.22544
1.22553
1.22569
1.22585
1.22591
1.22633
1.22634
1.2258
1.22533
1.22462
1.22458
1.22439
1.2248
1.22419
1.22229
1.21974
1.21596
1.21245
1.20717
1.19884
1.18951
1.18245
1.17729
1.17329
1.17142
1.16951
1.16546
1.16208
1.16081
1.15957
1.15732
1.15455
1.15158
1.14734
1.14023
1.1325
1.12358
1.11405
1.10729
1.10675
1.10405
1.10012
1.09933
1.09702
1.0927
1.08798
1.09083
1.09737
1.09437
1.09072
1.0894
1.09326
1.08948
1.09008
1.08881
1.08668
1.08569
1.08184
1.07369
1.07867
1.07525
1.06655
1.06287
1.06458
1.07088
1.07511
1.08254
1.08848
1.09186
1.11549
1.1134
1.11377
1.11893
1.14036
1.18406
1.20635
1.14338
1.11194
1.13707
1.13474
1.1297
1.12694
1.12416
1.11929
1.11389
1.1101
1.1047
1.10265
1.1032
1.0999
1.09986
1.10077
1.1011
1.10312
1.10597
1.10476
1.10504
1.10909
1.10661
1.11299
1.11425
1.1146
1.12249
1.11785
1.1239
1.12939
1.1259
1.13427
1.13995
1.14004
1.14631
1.15467
1.15293
1.14883
1.16586
1.18357
1.19088
1.19893
1.20242
1.19703
1.20332
1.22235
1.22765
1.20599
1.20387
1.23258
1.22241
1.1781
1.15607
1.15403
1.15506
1.15725
1.16046
1.16313
1.16524
1.16697
1.16843
1.16965
1.17078
1.17188
1.17302
1.17423
1.17548
1.1767
1.17777
1.17872
1.1795
1.18028
1.1812
1.18234
1.18363
1.185
1.18628
1.18733
1.18859
1.19053
1.19251
1.19438
1.19642
1.196
1.19895
1.20343
1.20504
1.20615
1.21112
1.21541
1.21675
1.22126
1.22565
1.22879
1.23175
1.23498
1.23672
1.23851
1.23975
1.23965
1.23963
1.23991
1.23986
1.24096
1.24427
1.24795
1.25209
1.25678
1.26061
1.2646
1.27023
1.27594
1.28158
1.28444
1.28679
1.28545
1.28413
1.28274
1.27697
1.26962
1.26167
1.25484
1.25102
1.24528
1.22501
1.20273
1.18874
1.17519
1.17174
1.17618
1.16825
1.15439
1.14986
1.15867
1.181
1.20273
1.21617
1.22443
1.21822
1.19832
1.17291
1.13924
1.12282
1.1328
1.12502
1.1193
1.13252
1.12045
1.09939
1.0917
1.11416
1.1349
1.13692
1.12121
1.09575
1.11353
1.1412
1.13002
1.13863
1.14707
1.11256
1.1003
1.12754
1.15383
1.17233
1.16117
1.14981
1.14872
1.1564
1.16841
1.20347
1.21774
1.21705
1.2547
1.25671
1.27544
1.22979
1.23778
1.25288
1.38268
1.25682
1.10127
1.12899
1.14171
1.14732
1.14375
1.13307
1.12102
1.10812
1.10317
1.09816
1.09022
1.09564
1.09318
1.09299
1.09536
1.09545
1.10116
1.0983
1.10069
1.10567
1.10543
1.10969
1.1094
1.11158
1.11513
1.11469
1.11813
1.12086
1.11925
1.12722
1.13245
1.1227
1.1365
1.13855
1.14067
1.15121
1.15637
1.16793
1.1715
1.16725
1.17132
1.19215
1.19486
1.18534
1.18409
1.18789
1.18029
1.16904
1.16144
1.15542
1.15048
1.15219
1.15551
1.15811
1.16022
1.16184
1.16292
1.16372
1.16417
1.16423
1.16398
1.16359
1.16341
1.16351
1.16402
1.16474
1.16566
1.1665
1.16719
1.16774
1.16819
1.16872
1.16947
1.17034
1.1714
1.17247
1.17313
1.17359
1.17427
1.17447
1.17576
1.17874
1.1776
1.17931
1.18083
1.18287
1.1835
1.18573
1.19044
1.19073
1.19419
1.19992
1.20366
1.2065
1.21318
1.21736
1.22042
1.22456
1.22822
1.23042
1.23153
1.23104
1.22762
1.22826
1.23043
1.23466
1.23662
1.24257
1.24758
1.25403
1.26362
1.27346
1.28137
1.28834
1.29808
1.30441
1.30635
1.29823
1.27912
1.2538
1.22768
1.21227
1.21432
1.21095
1.19398
1.17266
1.14733
1.13431
1.13553
1.11785
1.09148
1.07547
1.07133
1.09549
1.13698
1.18116
1.22432
1.23873
1.22299
1.18043
1.13348
1.13357
1.14046
1.12742
1.13756
1.13958
1.0964
1.0751
1.0833
1.11983
1.1162
1.13724
1.09493
1.04934
1.07241
1.13868
1.0832
1.11049
1.13717
1.00816
0.979184
1.08576
1.12916
1.17023
1.20667
1.19726
1.18623
1.18268
1.20029
1.25478
1.24034
1.25204
1.30476
1.3146
1.37491
1.30023
1.30376
1.24963
1.43766
1.34069
1.09745
1.12173
1.13894
1.13825
1.12434
1.10892
1.09865
1.09205
1.08595
1.08959
1.08603
1.09333
1.09165
1.08989
1.09938
1.0982
1.1033
1.10497
1.10918
1.11547
1.11182
1.11879
1.11912
1.11803
1.12581
1.12145
1.12323
1.12988
1.122
1.1231
1.12732
1.13625
1.14079
1.13836
1.14851
1.14001
1.1526
1.15643
1.1692
1.16947
1.16557
1.18144
1.1817
1.15572
1.14798
1.15059
1.15074
1.15006
1.15082
1.15269
1.15451
1.15625
1.15721
1.15749
1.15727
1.15701
1.15679
1.15671
1.1565
1.15614
1.15579
1.15579
1.15621
1.1569
1.15778
1.15879
1.1596
1.16061
1.16154
1.16243
1.16346
1.16442
1.16515
1.16571
1.16622
1.16675
1.16759
1.16891
1.16979
1.16944
1.16983
1.17169
1.17228
1.17507
1.17289
1.1761
1.17712
1.17774
1.1799
1.18087
1.18129
1.18348
1.18686
1.18584
1.18892
1.19339
1.19721
1.19859
1.19946
1.20253
1.20831
1.21784
1.21504
1.21212
1.21169
1.2189
1.22109
1.22357
1.22545
1.22843
1.23302
1.23741
1.24861
1.26006
1.26612
1.26441
1.27027
1.27895
1.28219
1.27626
1.25468
1.22451
1.19987
1.17908
1.17451
1.17593
1.16848
1.15497
1.14974
1.12986
1.09584
1.07417
1.05847
1.06225
1.08562
1.1347
1.18835
1.21898
1.21747
1.16944
1.13282
1.14168
1.13824
1.14346
1.16093
1.15361
1.12473
1.10949
1.09295
1.11403
1.09759
1.12803
1.09506
1.06556
1.05815
1.12309
1.05057
1.08816
1.11039
0.956832
0.960461
1.0476
1.0743
1.05965
1.17925
1.21621
1.20532
1.19359
1.23184
1.28427
1.1993
1.20581
1.29373
1.32744
1.44623
1.37154
1.35527
1.20773
1.45521
1.414
1.09487
1.11033
1.11722
1.1083
1.09786
1.09256
1.0872
1.0919
1.09217
1.0946
1.09848
1.09981
1.09796
1.09745
1.10707
1.10685
1.11801
1.12181
1.11753
1.12823
1.12605
1.12662
1.13343
1.12969
1.13369
1.13586
1.12929
1.1319
1.13812
1.14165
1.13605
1.11858
1.10696
1.1257
1.12975
1.14367
1.1441
1.15858
1.15719
1.15646
1.20048
1.17569
1.14247
1.14071
1.14324
1.14693
1.14958
1.15081
1.15196
1.15203
1.15161
1.15049
1.14931
1.14795
1.14668
1.14572
1.14555
1.14582
1.14652
1.14759
1.14937
1.15158
1.15404
1.15652
1.1585
1.16027
1.16155
1.16236
1.1632
1.16386
1.16443
1.16491
1.16501
1.16491
1.16455
1.16402
1.16325
1.16331
1.16214
1.16219
1.16235
1.16063
1.16068
1.16327
1.16013
1.1623
1.16283
1.16459
1.16741
1.16921
1.17301
1.17288
1.17601
1.17765
1.17788
1.17588
1.17862
1.18241
1.1846
1.18026
1.1771
1.18805
1.19417
1.19281
1.18811
1.19328
1.19799
1.20272
1.20466
1.20375
1.20837
1.20884
1.21159
1.21976
1.2362
1.23246
1.22182
1.22087
1.22239
1.22074
1.22162
1.21803
1.22179
1.20625
1.18444
1.17611
1.16901
1.15907
1.15435
1.15315
1.11803
1.08475
1.05676
1.04995
1.0662
1.11717
1.17461
1.20558
1.20764
1.16496
1.12631
1.13846
1.11918
1.12685
1.14717
1.12939
1.1364
1.14297
1.10712
1.09242
1.08794
1.10427
1.12286
1.07469
1.06167
1.11855
1.04537
1.07259
1.10969
1.03667
1.0473
1.06411
1.04021
0.941508
1.07574
1.19889
1.2145
1.17215
1.23158
1.29414
1.18054
1.16556
1.26909
1.32141
1.48611
1.42598
1.3951
1.22415
1.25931
1.51923
1.09339
1.10026
1.09903
1.09385
1.09119
1.09282
1.09495
1.09606
1.09983
1.09871
1.1013
1.09619
1.09087
1.09979
1.11777
1.12551
1.12686
1.12421
1.126
1.13955
1.13341
1.13144
1.13866
1.12828
1.12908
1.14042
1.14398
1.1418
1.13215
1.13338
1.1449
1.15151
1.15595
1.14233
1.13574
1.14303
1.13546
1.15949
1.15147
1.17938
1.18336
1.14676
1.13692
1.14188
1.14466
1.14741
1.14787
1.14778
1.14706
1.14606
1.14577
1.14506
1.14427
1.14325
1.143
1.1438
1.14601
1.14877
1.15196
1.15564
1.15934
1.16287
1.16572
1.16818
1.17018
1.17138
1.17259
1.17336
1.17404
1.17448
1.17469
1.17458
1.17419
1.17354
1.17251
1.17249
1.17173
1.171
1.16866
1.16887
1.16702
1.16468
1.16205
1.16116
1.15893
1.15589
1.15416
1.1532
1.15514
1.15402
1.15702
1.1613
1.16434
1.16506
1.16935
1.16817
1.16838
1.16271
1.16986
1.17129
1.16614
1.16292
1.16685
1.17124
1.16708
1.17029
1.17277
1.17756
1.18332
1.18232
1.18158
1.17994
1.1799
1.17453
1.19225
1.20423
1.19104
1.18396
1.18883
1.18089
1.17197
1.15471
1.16405
1.18191
1.17565
1.17363
1.15177
1.13766
1.12586
1.14127
1.13919
1.10997
1.07104
1.0354
1.04149
1.08861
1.16141
1.19592
1.195
1.16471
1.12533
1.13008
1.12025
1.09587
1.1131
1.11362
1.11391
1.10538
1.09009
1.10076
1.10353
1.08302
1.14918
1.0825
1.08187
1.13109
1.05463
1.04602
1.07847
1.11439
1.06785
1.08862
1.05321
0.955102
0.964539
1.14225
1.21985
1.13361
1.18517
1.28535
1.20038
1.15804
1.25703
1.31493
1.50191
1.46411
1.42845
1.24339
1.14059
1.5132
1.09398
1.09576
1.09347
1.094
1.09568
1.09479
1.0988
1.10043
1.10053
1.09951
1.09404
1.09211
1.09695
1.12096
1.14093
1.13393
1.12156
1.12912
1.14543
1.15088
1.14275
1.13701
1.13452
1.12985
1.13228
1.13395
1.14408
1.15587
1.14885
1.14308
1.14373
1.14311
1.13417
1.12544
1.13796
1.13294
1.14871
1.15869
1.16191
1.19093
1.16645
1.13783
1.14263
1.14563
1.14689
1.14668
1.14527
1.14433
1.1437
1.1438
1.14374
1.14277
1.14144
1.14085
1.14207
1.14548
1.14978
1.15436
1.15875
1.16274
1.16566
1.16782
1.1693
1.16986
1.17054
1.17077
1.17085
1.17091
1.171
1.17077
1.17076
1.1705
1.17021
1.17056
1.16946
1.16909
1.16884
1.16762
1.16713
1.16919
1.16776
1.16723
1.16708
1.16062
1.16116
1.15603
1.15395
1.14984
1.14829
1.14754
1.14396
1.14327
1.15154
1.15505
1.16156
1.1561
1.1625
1.15416
1.15504
1.15303
1.15676
1.15238
1.15048
1.15514
1.15032
1.15064
1.15115
1.14883
1.15159
1.15838
1.15836
1.15502
1.15979
1.14611
1.14557
1.15983
1.15669
1.14896
1.15939
1.16751
1.16444
1.14848
1.12642
1.13396
1.13154
1.15356
1.15514
1.13633
1.11404
1.10624
1.12773
1.12585
1.10856
1.05555
1.03549
1.0666
1.1431
1.18323
1.19086
1.15882
1.13035
1.12572
1.13002
1.09182
1.09857
1.10693
1.10181
1.11199
1.11019
1.11215
1.13325
1.10791
1.13954
1.11347
1.09435
1.1389
1.1028
1.05543
1.03833
1.12702
1.05858
1.06172
1.0959
1.07217
0.939669
1.08958
1.22198
1.1079
1.10112
1.25504
1.22973
1.16615
1.2477
1.30809
1.51093
1.47332
1.46059
1.25697
1.24852
1.27797
1.09635
1.09572
1.09658
1.09859
1.09889
1.10091
1.10241
1.10531
1.10026
1.09547
1.09284
1.09939
1.1148
1.13182
1.13507
1.12257
1.12537
1.15043
1.17139
1.17045
1.16126
1.15008
1.13203
1.11725
1.12013
1.13585
1.15735
1.16695
1.15845
1.14506
1.13568
1.13605
1.1384
1.14471
1.14374
1.13942
1.15789
1.15221
1.17755
1.18662
1.14989
1.13967
1.14825
1.14564
1.14525
1.14233
1.1413
1.141
1.14151
1.14191
1.14089
1.13946
1.13887
1.141
1.14576
1.15203
1.15774
1.16237
1.16512
1.16632
1.16635
1.16553
1.16477
1.16401
1.1636
1.16355
1.16391
1.16423
1.16476
1.16522
1.16576
1.16623
1.16581
1.16644
1.16658
1.16482
1.16384
1.16163
1.15939
1.16031
1.16411
1.16188
1.17024
1.16232
1.1635
1.15606
1.15597
1.1508
1.14686
1.14561
1.14267
1.13321
1.13527
1.13659
1.14846
1.1502
1.15726
1.15101
1.15174
1.14348
1.14524
1.14007
1.13319
1.1356
1.13624
1.13607
1.13845
1.13544
1.12617
1.13467
1.13772
1.12944
1.13902
1.13294
1.11841
1.12237
1.12583
1.12041
1.11559
1.13258
1.13588
1.14461
1.12582
1.11834
1.10064
1.10128
1.12968
1.13351
1.12199
1.09226
1.10064
1.12828
1.1285
1.08121
1.03301
1.0451
1.12353
1.1695
1.18903
1.15679
1.13359
1.12526
1.13453
1.11094
1.0952
1.10497
1.09574
1.08475
1.10782
1.09929
1.11884
1.10598
1.10523
1.13759
1.08813
1.115
1.1463
1.08003
1.03249
1.12016
1.07677
1.03054
1.12559
1.13781
0.974818
1.06248
1.22208
1.13254
1.02328
1.2018
1.24543
1.17654
1.23558
1.30489
1.51842
1.46048
1.48529
1.25933
1.28282
1.26066
1.10016
1.09915
1.10193
1.10418
1.10358
1.10601
1.10714
1.10381
1.09909
1.09543
1.09969
1.10688
1.1107
1.11799
1.13106
1.14178
1.15612
1.17171
1.18123
1.1771
1.16288
1.14721
1.13123
1.12237
1.12863
1.1434
1.15766
1.16597
1.168
1.16359
1.16255
1.16687
1.16594
1.1572
1.14278
1.14471
1.14945
1.16052
1.19088
1.17257
1.14031
1.14408
1.14643
1.14071
1.14018
1.13768
1.13956
1.14051
1.1419
1.14109
1.13941
1.13881
1.1406
1.14606
1.15277
1.15867
1.16209
1.16281
1.16134
1.15889
1.15688
1.15545
1.15467
1.15462
1.15513
1.15563
1.15636
1.15742
1.15885
1.15994
1.16135
1.16322
1.16438
1.16387
1.16571
1.16444
1.1621
1.16082
1.15529
1.14962
1.15096
1.14736
1.15685
1.15641
1.16305
1.15497
1.15571
1.15056
1.14641
1.14491
1.14695
1.13922
1.12947
1.13023
1.12996
1.13427
1.14218
1.1441
1.14449
1.13681
1.13587
1.13768
1.13094
1.12548
1.12161
1.12046
1.12321
1.12912
1.11287
1.1113
1.11858
1.10647
1.11645
1.11913
1.10424
1.09975
1.10128
1.10714
1.09307
1.10816
1.10171
1.10033
1.09455
1.09751
1.0932
1.06843
1.07504
1.09944
1.11539
1.10449
1.07802
1.10313
1.1294
1.10403
1.04545
1.03077
1.09765
1.15439
1.18341
1.15925
1.13446
1.12826
1.1319
1.13355
1.10807
1.11799
1.09172
1.0627
1.08954
1.07888
1.10383
1.07429
1.04291
1.1363
1.09197
1.07443
1.15901
1.10316
1.05683
1.12616
1.07471
1.03801
1.14911
1.13109
0.997361
1.04031
1.20723
1.18689
0.992954
1.14731
1.24857
1.18643
1.22243
1.30216
1.52418
1.43704
1.5098
1.22946
1.20944
1.34741
1.10495
1.10431
1.10774
1.11002
1.11021
1.11091
1.11118
1.10729
1.10191
1.10045
1.10015
1.10192
1.10981
1.12647
1.13557
1.1338
1.13551
1.14242
1.15275
1.16495
1.16918
1.15966
1.13877
1.1185
1.11349
1.12192
1.13482
1.14711
1.15635
1.15962
1.16378
1.16427
1.15546
1.14265
1.13611
1.14256
1.15308
1.1821
1.19124
1.15624
1.13875
1.14742
1.14193
1.13777
1.13865
1.13887
1.14249
1.14316
1.14317
1.1404
1.13852
1.13925
1.14341
1.15003
1.15581
1.15942
1.15964
1.15764
1.15537
1.15348
1.1524
1.15202
1.15232
1.15277
1.15335
1.15416
1.15513
1.15541
1.15716
1.15838
1.16016
1.16165
1.16478
1.16356
1.16433
1.16404
1.1628
1.16377
1.16222
1.15701
1.14835
1.14371
1.14253
1.14163
1.14735
1.14914
1.147
1.14534
1.14062
1.13834
1.13779
1.14165
1.13181
1.13362
1.12804
1.12652
1.12665
1.13308
1.13975
1.13577
1.12625
1.12701
1.12065
1.11887
1.11406
1.11035
1.10669
1.11588
1.11153
1.10291
1.10715
1.09251
1.09848
1.10246
1.09155
1.08827
1.0839
1.09433
1.08108
1.09547
1.09496
1.07895
1.06106
1.0565
1.07596
1.06874
1.04707
1.0551
1.08286
1.09649
1.06937
1.06704
1.11368
1.11837
1.06341
1.02828
1.07481
1.13847
1.1753
1.16322
1.13995
1.12946
1.12511
1.13891
1.12309
1.14811
1.12682
1.0807
1.07955
1.05283
1.08028
1.07378
0.999593
1.10894
1.09448
1.04494
1.151
1.11249
1.08985
1.13616
1.05924
1.0702
1.1665
1.10438
1.01368
1.02053
1.19053
1.23083
1.00054
1.11377
1.24825
1.19238
1.20958
1.30351
1.52917
1.41781
1.51099
1.23283
1.30115
1.34437
1.11038
1.11017
1.11426
1.11673
1.1171
1.11862
1.115
1.11074
1.10405
1.10166
1.10331
1.10312
1.10187
1.10392
1.10348
1.1045
1.11256
1.12367
1.13425
1.15108
1.17102
1.18263
1.17766
1.15869
1.14199
1.13133
1.12884
1.13155
1.13573
1.13925
1.14218
1.13996
1.13531
1.13384
1.13878
1.15261
1.17725
1.19753
1.1782
1.14348
1.14143
1.14635
1.13758
1.13781
1.13968
1.14266
1.14573
1.1447
1.14228
1.13869
1.13772
1.14034
1.14622
1.15313
1.15762
1.15925
1.15756
1.15481
1.15196
1.14927
1.14758
1.14675
1.14683
1.14755
1.14839
1.14895
1.15095
1.15053
1.15186
1.15177
1.15243
1.15244
1.15475
1.15456
1.15365
1.15213
1.14942
1.14967
1.14985
1.15391
1.15099
1.15135
1.1434
1.14445
1.13638
1.14223
1.13893
1.14253
1.13899
1.1346
1.13095
1.12883
1.12446
1.12632
1.12669
1.12587
1.12445
1.11886
1.12503
1.12812
1.1217
1.12387
1.11519
1.11409
1.10699
1.10443
1.10243
1.09856
1.09797
1.09757
1.09834
1.08719
1.09003
1.0906
1.08008
1.08077
1.07294
1.08122
1.06881
1.07505
1.08618
1.08665
1.07287
1.04965
1.05986
1.07404
1.05575
1.04149
1.05592
1.07845
1.06422
1.04086
1.08071
1.11681
1.07284
1.02815
1.0459
1.11601
1.16559
1.1633
1.14778
1.13736
1.12401
1.12822
1.13138
1.16143
1.15235
1.10905
1.10608
1.07866
1.07285
1.07862
1.00313
1.07303
1.08018
1.0318
1.14025
1.10352
1.1142
1.13668
1.05541
1.11481
1.15659
1.06859
1.03385
1.02646
1.19326
1.24838
1.03431
1.0914
1.23907
1.1919
1.19643
1.30575
1.52844
1.4068
1.4842
1.21466
1.34135
1.38569
1.11647
1.11718
1.12113
1.12328
1.12432
1.12484
1.11921
1.11194
1.10881
1.10647
1.10054
1.0954
1.10013
1.11082
1.11576
1.11511
1.11684
1.12071
1.1248
1.13536
1.15162
1.16806
1.17823
1.17752
1.16988
1.15831
1.14848
1.14171
1.13846
1.13643
1.13544
1.13499
1.13701
1.14369
1.15717
1.17902
1.19997
1.19501
1.16056
1.13928
1.14594
1.14391
1.13731
1.14153
1.14397
1.14716
1.14727
1.14448
1.1407
1.13817
1.13902
1.14332
1.14964
1.15545
1.1581
1.15717
1.15366
1.14944
1.1456
1.14318
1.14292
1.14449
1.14675
1.14888
1.15103
1.15091
1.15435
1.15498
1.15618
1.15625
1.15562
1.15479
1.15404
1.15505
1.15305
1.15329
1.14783
1.14553
1.13973
1.13773
1.13453
1.13907
1.13641
1.13881
1.13564
1.13687
1.13302
1.13042
1.13594
1.13285
1.13363
1.13044
1.12338
1.12065
1.11909
1.11264
1.121
1.11906
1.12093
1.12017
1.11733
1.11654
1.10546
1.10944
1.10215
1.09513
1.1007
1.09397
1.08598
1.08785
1.08861
1.08298
1.0845
1.08623
1.08113
1.07865
1.06691
1.07147
1.06491
1.06463
1.06694
1.07937
1.08223
1.06505
1.05631
1.07128
1.06799
1.04866
1.04324
1.06902
1.06894
1.04318
1.05117
1.11072
1.0822
1.04151
1.0282
1.09237
1.15203
1.16185
1.15249
1.14718
1.13275
1.13638
1.12925
1.13559
1.15797
1.11012
1.10415
1.08892
1.07982
1.10145
1.04255
1.06889
1.07519
1.03258
1.13606
1.09489
1.12728
1.13029
1.05926
1.15768
1.12047
1.04222
1.06231
1.08056
1.21274
1.23094
1.08158
1.0714
1.22492
1.18839
1.18719
1.30829
1.52914
1.40053
1.42037
1.22331
1.34191
1.43202
1.12309
1.12479
1.12842
1.13006
1.13182
1.12775
1.11969
1.11541
1.11311
1.11462
1.11642
1.12011
1.11984
1.11681
1.1175
1.12054
1.12596
1.13015
1.13195
1.13606
1.1431
1.15281
1.16411
1.1734
1.17779
1.1774
1.17287
1.16603
1.16074
1.15567
1.15371
1.15704
1.16373
1.1733
1.18878
1.20543
1.20466
1.17834
1.14738
1.14228
1.14876
1.14213
1.14046
1.14578
1.14757
1.14925
1.14676
1.14301
1.13991
1.13897
1.14106
1.1466
1.15278
1.15663
1.15698
1.15401
1.14992
1.1453
1.14206
1.14233
1.14506
1.1484
1.15013
1.14896
1.14975
1.14702
1.14893
1.14914
1.15013
1.15134
1.14889
1.15104
1.14818
1.14754
1.14589
1.14586
1.14442
1.14462
1.14422
1.14262
1.14161
1.13455
1.13719
1.13123
1.13205
1.12957
1.13285
1.1273
1.12594
1.12168
1.11804
1.12617
1.12212
1.11827
1.12084
1.11052
1.10563
1.10804
1.11371
1.1082
1.1111
1.115
1.10297
1.10408
1.10184
1.0906
1.09314
1.09241
1.08914
1.0817
1.08034
1.07792
1.07431
1.07967
1.09041
1.07947
1.06246
1.06365
1.06548
1.07355
1.06668
1.06527
1.07125
1.07172
1.06121
1.06332
1.07619
1.06442
1.03849
1.06002
1.06926
1.0591
1.03389
1.0956
1.09421
1.05682
1.02109
1.0659
1.13341
1.15885
1.15304
1.15233
1.1375
1.15301
1.14471
1.10897
1.13751
1.09293
1.10027
1.10414
1.07863
1.08991
1.05391
1.07417
1.08076
1.04499
1.13362
1.09084
1.13895
1.12338
1.06959
1.18329
1.0828
1.04488
1.11405
1.16526
1.21781
1.18987
1.1249
1.0729
1.22852
1.18845
1.18104
1.31723
1.53051
1.39171
1.36959
1.22227
1.35927
1.43527
1.13017
1.13299
1.13635
1.13661
1.13728
1.13268
1.12621
1.12526
1.12632
1.12864
1.12834
1.13258
1.13703
1.13824
1.13706
1.13544
1.13465
1.13542
1.13974
1.14476
1.14947
1.15528
1.16323
1.17282
1.18094
1.18635
1.18844
1.18786
1.18691
1.18658
1.1873
1.19211
1.20047
1.21029
1.21727
1.21328
1.1915
1.16138
1.14423
1.1474
1.1483
1.14164
1.14459
1.14894
1.14955
1.14913
1.14512
1.14175
1.13976
1.14095
1.14524
1.15088
1.15472
1.15607
1.15533
1.15143
1.14635
1.14246
1.14157
1.14291
1.14432
1.14566
1.14694
1.14284
1.14216
1.13886
1.14251
1.14536
1.14392
1.14817
1.14311
1.14425
1.14251
1.1387
1.13913
1.1354
1.13479
1.13008
1.13022
1.12582
1.13212
1.12923
1.13068
1.1304
1.12951
1.12708
1.1286
1.1257
1.12745
1.13351
1.11886
1.11786
1.11636
1.10912
1.11416
1.11561
1.10537
1.10153
1.10846
1.10379
1.09909
1.10669
1.10198
1.0981
1.09951
1.09139
1.08512
1.08546
1.09615
1.08212
1.07632
1.07828
1.06966
1.07408
1.0959
1.0814
1.0628
1.05839
1.0609
1.08043
1.07957
1.06495
1.05175
1.07327
1.06936
1.06324
1.07421
1.07783
1.04619
1.05564
1.0713
1.07468
1.0357
1.07376
1.09685
1.07799
1.02971
1.03791
1.11211
1.14844
1.15596
1.15634
1.13789
1.15642
1.16544
1.11593
1.12544
1.08989
1.09625
1.12551
1.10114
1.0945
1.06286
1.09235
1.1022
1.06987
1.1436
1.09171
1.14946
1.1201
1.08462
1.1895
1.06188
1.06851
1.18664
1.21881
1.19171
1.16001
1.16414
1.12912
1.26363
1.19156
1.17747
1.32885
1.52538
1.38184
1.36656
1.23083
1.37879
1.44043
1.13769
1.14166
1.14456
1.14478
1.14729
1.14297
1.13479
1.13331
1.1348
1.13979
1.14223
1.13989
1.13348
1.12937
1.13103
1.13576
1.13797
1.14086
1.14364
1.14669
1.15246
1.15955
1.16606
1.17392
1.18283
1.19194
1.19913
1.20418
1.20789
1.21181
1.2154
1.21722
1.21839
1.2193
1.21414
1.19665
1.17252
1.15314
1.14789
1.15101
1.14735
1.14412
1.14882
1.15095
1.15012
1.1476
1.14358
1.14152
1.14174
1.14456
1.14895
1.15201
1.15532
1.15639
1.15376
1.14951
1.14533
1.14186
1.14027
1.14101
1.1425
1.14264
1.14612
1.14342
1.14414
1.14146
1.14108
1.14887
1.14756
1.15178
1.14743
1.14529
1.14399
1.13816
1.14021
1.1352
1.13736
1.13668
1.13353
1.13319
1.1252
1.12702
1.12423
1.12414
1.12569
1.12131
1.12193
1.12044
1.11245
1.11964
1.11643
1.11845
1.12122
1.10852
1.10805
1.11025
1.10276
1.09769
1.09934
1.09971
1.09307
1.09416
1.09971
1.09722
1.09326
1.09343
1.08121
1.07898
1.0996
1.08295
1.07383
1.07884
1.06915
1.07338
1.0911
1.07532
1.07255
1.06526
1.06028
1.07901
1.08582
1.07102
1.03854
1.07424
1.07705
1.07107
1.06788
1.07717
1.06482
1.0526
1.07431
1.08536
1.04992
1.06631
1.0848
1.09579
1.05374
1.02015
1.09142
1.13106
1.15522
1.16129
1.14311
1.15078
1.17223
1.13654
1.13167
1.09703
1.09345
1.14244
1.12576
1.12404
1.07549
1.10502
1.11625
1.08313
1.15332
1.09791
1.16298
1.12115
1.09986
1.18405
1.05742
1.10248
1.24635
1.2164
1.16548
1.1566
1.17938
1.23187
1.31185
1.19178
1.17514
1.34084
1.52468
1.37366
1.39504
1.2323
1.38778
1.4446
1.14552
1.15069
1.1539
1.15617
1.15997
1.15366
1.14286
1.13847
1.1342
1.1366
1.13515
1.1347
1.13699
1.14331
1.14782
1.14713
1.1423
1.14181
1.14624
1.15123
1.15474
1.16033
1.16651
1.1728
1.17968
1.18793
1.19653
1.20442
1.21011
1.21387
1.21668
1.21673
1.21221
1.20361
1.19074
1.17351
1.15815
1.15009
1.14988
1.15033
1.1465
1.14733
1.15196
1.15239
1.15058
1.14734
1.14413
1.14332
1.14432
1.14768
1.15164
1.1546
1.15648
1.15489
1.15194
1.1483
1.14387
1.14096
1.13945
1.13909
1.14021
1.13881
1.14539
1.1458
1.14134
1.13939
1.13626
1.14043
1.13964
1.14053
1.1395
1.13611
1.13826
1.13452
1.13598
1.13388
1.12636
1.13034
1.12293
1.13145
1.12845
1.12673
1.12622
1.12068
1.12337
1.12168
1.12183
1.12348
1.11775
1.11946
1.11203
1.10568
1.11318
1.10589
1.10638
1.11031
1.10307
1.10029
1.09963
1.09539
1.09568
1.08694
1.09058
1.0969
1.08683
1.09117
1.0798
1.07898
1.09926
1.08045
1.07379
1.07873
1.07301
1.08236
1.08609
1.06606
1.08523
1.08018
1.06878
1.07215
1.08863
1.0665
1.05275
1.07568
1.08916
1.08292
1.07066
1.06781
1.08559
1.0608
1.0729
1.09243
1.06604
1.06588
1.06792
1.10067
1.07843
1.01901
1.0698
1.11289
1.14746
1.16212
1.15484
1.14424
1.17031
1.14468
1.14068
1.11177
1.08724
1.13592
1.13149
1.15196
1.09342
1.11429
1.13089
1.09831
1.15714
1.10129
1.17503
1.12517
1.11667
1.17805
1.06217
1.14273
1.25977
1.19069
1.15885
1.15967
1.15351
1.33016
1.34247
1.18147
1.16791
1.35314
1.52822
1.37117
1.42082
1.22837
1.39096
1.44464
1.15389
1.16037
1.16417
1.16709
1.16669
1.16168
1.15724
1.15103
1.14297
1.14894
1.15051
1.15253
1.15142
1.14899
1.14793
1.15173
1.15272
1.14976
1.14957
1.15236
1.15346
1.15793
1.16421
1.16902
1.17501
1.18009
1.18405
1.18983
1.19458
1.19716
1.19758
1.19514
1.19162
1.18536
1.17506
1.16432
1.15672
1.15249
1.15185
1.14996
1.14779
1.15021
1.15286
1.15219
1.14979
1.14731
1.14536
1.14569
1.14797
1.15123
1.15243
1.155
1.15502
1.15315
1.15162
1.14746
1.14248
1.14088
1.13978
1.13703
1.13862
1.13789
1.14148
1.14564
1.14186
1.13695
1.13483
1.13715
1.13936
1.13878
1.13824
1.13881
1.14005
1.1443
1.14358
1.14636
1.13975
1.1386
1.12852
1.12679
1.12245
1.12471
1.12563
1.11904
1.12089
1.11572
1.11408
1.11471
1.11044
1.11232
1.11755
1.11104
1.11437
1.10595
1.10111
1.10339
1.09989
1.09923
1.10022
1.09444
1.09832
1.08746
1.08576
1.09532
1.08854
1.08807
1.07806
1.08668
1.0943
1.07957
1.07961
1.07783
1.07971
1.08954
1.07717
1.06546
1.09393
1.08949
1.0786
1.0699
1.09015
1.06317
1.07942
1.08022
1.09882
1.08879
1.08265
1.06786
1.09056
1.07388
1.07251
1.09766
1.09388
1.07702
1.06638
1.1013
1.10138
1.03853
1.0483
1.09035
1.13538
1.1563
1.17025
1.14835
1.17176
1.14287
1.14191
1.13674
1.1018
1.12833
1.12436
1.16132
1.10307
1.11667
1.14032
1.11931
1.16994
1.11214
1.18674
1.12989
1.13265
1.17398
1.07291
1.18183
1.22105
1.16975
1.15812
1.15118
1.11045
1.34791
1.31681
1.1586
1.15591
1.35698
1.52762
1.38577
1.41495
1.2261
1.3958
1.45188
1.1625
1.16997
1.17248
1.17421
1.17381
1.17365
1.17024
1.16636
1.15826
1.15522
1.15392
1.15665
1.1557
1.15663
1.15618
1.15573
1.15661
1.1575
1.15836
1.15907
1.15887
1.15831
1.1604
1.16254
1.16638
1.1717
1.17629
1.17828
1.17981
1.18018
1.18053
1.17748
1.17309
1.16836
1.16356
1.15885
1.15659
1.15567
1.15531
1.15418
1.154
1.1567
1.15778
1.15602
1.15257
1.15012
1.14845
1.14856
1.15109
1.15315
1.15541
1.15639
1.15446
1.15281
1.14924
1.14654
1.14397
1.14024
1.14016
1.13953
1.13736
1.13574
1.13983
1.14343
1.14434
1.14109
1.1365
1.13573
1.13287
1.13592
1.13372
1.13696
1.13785
1.14044
1.13981
1.13618
1.13017
1.12905
1.12284
1.12401
1.11853
1.11451
1.11743
1.11483
1.11985
1.11607
1.1154
1.11777