/*--------------------------------*- C++ -*----------------------------------*\
| =========                 |                                                 |
| \\      /  F ield         | OpenFOAM: The Open Source CFD Toolbox           |
|  \\    /   O peration     | Version:  dev                                   |
|   \\  /    A nd           | Web:      http://www.openfoam.org               |
|    \\/     M anipulation  |                                                 |
\*---------------------------------------------------------------------------*/
FoamFile
{
    version     2.0;
    format      ascii;
    class       volScalarField;
    object      T;
    location    "9.167";
}
// * * * * * * * * * * * * * * * * * * * * * * * * * * * * * * * * * * * * * //

dimensions      [0 0 0 1 0 0 0];

internalField   nonuniform List<scalar> 
12225
(
303.237
303.296
303.023
302.847
302.728
302.663
302.608
302.53
302.467
302.245
302.258
301.776
301.923
301.164
301.501
300.627
300.1
299.239
303.66
303.027
302.431
301.866
301.62
301.188
301.206
300.776
301.021
300.28
300.917
299.686
300.659
299.245
300.101
299.155
299.287
299.661
303.737
302.946
302.5
301.825
301.532
301.055
300.823
300.537
300.317
300.108
299.936
299.689
299.574
299.311
299.125
298.62
298.785
298.579
303.732
303.062
302.383
302.203
301.425
301.586
300.661
301.138
300.102
300.72
299.72
300.207
299.299
299.623
298.859
299.067
298.321
298.467
303.412
303.427
302.185
302.548
301.37
301.894
300.77
301.39
300.338
300.859
299.972
300.261
299.448
299.542
298.903
298.858
298.263
298.367
303.072
303.646
302.073
302.786
301.372
302.043
300.803
301.487
300.441
301.011
300.045
300.419
299.507
299.761
299.016
299.171
298.396
298.386
302.993
303.562
302.088
302.63
301.461
301.862
300.941
301.385
300.671
301.004
300.271
300.371
299.762
299.79
299.322
299.296
298.696
298.53
302.988
303.407
302.107
302.57
301.484
301.87
300.96
301.456
300.752
301.08
300.39
300.456
299.908
299.976
299.598
299.498
298.969
298.752
302.969
303.398
302.091
302.597
301.555
301.946
301.097
301.526
300.944
301.164
300.64
300.596
300.194
300.148
299.899
299.667
299.306
298.993
302.84
303.357
302.139
302.636
301.679
302.034
301.308
301.655
301.199
301.301
300.891
300.824
300.512
300.398
300.221
299.983
299.729
299.422
302.798
303.283
302.22
302.661
301.868
302.16
301.603
301.833
301.524
301.495
301.249
301.138
300.94
300.785
300.663
300.422
300.195
299.936
302.773
303.077
302.332
302.692
302.148
302.331
302.006
302.124
301.94
301.853
301.762
301.603
301.537
301.374
301.279
301.026
300.848
300.631
302.784
302.873
302.468
302.667
302.439
302.55
302.492
302.559
302.504
302.395
302.385
302.244
302.254
302.08
302.014
301.808
301.695
301.486
302.668
302.586
302.515
302.709
302.735
302.836
302.937
303.023
303.048
303.004
303.047
302.977
303.01
302.899
302.886
302.739
302.667
302.522
302.405
302.259
302.433
302.71
302.885
303.062
303.256
303.41
303.538
303.591
303.662
303.673
303.726
303.699
303.687
303.597
303.598
303.522
302.011
301.801
302.144
302.539
302.845
303.112
303.357
303.581
303.788
303.929
304.048
304.132
304.205
304.24
304.282
304.294
304.301
304.269
301.429
301.108
301.51
301.947
302.363
302.72
303.033
303.342
303.576
303.798
303.979
304.121
304.259
304.35
304.462
304.529
304.597
304.653
300.702
300.116
300.46
300.848
301.323
301.683
301.988
302.38
302.559
302.842
303.052
303.185
303.434
303.515
303.69
303.79
303.899
304.024
299.943
299.051
299.258
299.485
299.957
300.187
300.372
300.814
300.86
301.174
301.404
301.518
301.862
301.886
302.172
302.258
302.37
302.538
299.238
298.067
298.005
298.089
298.521
298.596
298.727
299.125
299.086
299.414
299.569
299.689
300.009
300.025
300.321
300.367
300.545
300.679
298.676
297.115
296.87
296.88
297.094
297.119
297.235
297.44
297.456
297.663
297.764
297.96
298.116
298.284
298.477
298.595
298.759
298.848
298.25
296.187
295.973
295.968
295.83
295.875
295.966
295.94
296.113
296.152
296.24
296.465
296.44
296.781
296.759
297.016
297.105
297.2
297.901
295.573
295.256
295.137
294.913
294.865
294.899
294.758
294.908
294.918
294.957
295.188
295.141
295.439
295.414
295.661
295.694
295.846
297.577
295.215
294.722
294.368
294.207
293.993
293.976
293.94
293.966
294.006
294.015
294.119
294.154
294.31
294.376
294.567
294.633
294.817
297.333
294.818
294.265
293.939
293.692
293.426
293.339
293.248
293.243
293.276
293.3
293.377
293.441
293.55
293.643
293.789
293.886
294.05
297.145
294.551
293.967
293.576
293.246
293.046
292.922
292.839
292.833
292.819
292.841
292.885
292.922
293.016
293.077
293.201
293.294
293.426
297.14
294.403
293.777
293.356
293.018
292.77
292.598
292.503
292.446
292.445
292.452
292.502
292.552
292.62
292.69
292.766
292.846
292.926
297.008
294.264
293.63
293.205
292.848
292.581
292.378
292.249
292.164
292.138
292.133
292.171
292.203
292.258
292.296
292.351
292.391
292.448
297.017
294.179
293.521
293.079
292.721
292.463
292.289
292.191
292.146
292.145
292.167
292.219
292.261
292.335
292.385
292.48
292.532
292.654
297.679
295.286
294.846
294.542
294.323
294.206
294.17
294.189
294.25
294.334
294.432
294.539
294.649
294.769
294.885
295.013
295.137
295.276
281.355
279.988
281.395
280.723
281.714
281.874
282.467
282.978
283.493
284.004
284.353
284.697
285.061
285.258
285.434
285.588
285.688
285.849
286.309
286.542
286.572
286.67
286.733
286.834
287.073
287.261
287.219
287.593
287.514
287.53
287.448
287.203
288.872
290.849
291.1
290.292
289.558
289.066
289.041
289.044
288.675
288.843
288.912
287.25
286.33
288.118
289.06
288.108
287.341
288.918
291.908
293.842
294.671
296.898
299.646
300.316
299.832
299.421
299.191
299.068
299.001
298.959
298.926
298.89
298.845
298.789
298.726
298.662
298.599
298.538
298.475
298.397
298.299
298.179
298.04
297.889
297.729
297.533
297.283
297.014
296.764
296.556
296.432
296.099
295.633
295.387
295.145
294.663
294.309
294.005
293.589
293.214
292.862
292.505
292.168
291.815
291.432
291.054
290.625
290.115
289.574
288.981
288.298
287.609
286.899
286.132
285.333
284.525
283.613
282.779
282.066
281.333
280.653
279.823
279.033
278.109
277.424
277.044
276.832
276.931
276.989
277.462
278.664
280.155
281.168
281.752
282.072
281.88
281.664
281.966
282.148
281.815
281.43
281.247
281.169
281.109
281.281
282.141
283.165
284.509
286.095
287.069
286.337
286.045
286.112
285.333
284.87
284.909
285.109
283.281
280.305
279.668
279.324
278.433
275.943
275.193
273.434
271.971
270.706
269.26
268.477
268.698
265.737
264.778
265.488
265.225
263.865
261.634
260.257
258.43
257.349
257.337
252.962
254.87
256.738
257.9
255.454
248.648
246.517
262.907
283.229
276.909
277.474
278.765
279.537
280.372
281.766
283.348
284.528
286.155
287.006
287.096
288.246
288.62
288.722
289.019
288.893
288.543
289.252
289.704
289.107
290.282
289.234
289.352
289.938
288.428
290.174
289.411
288.497
290.055
288.721
287.826
288.479
287.678
286.192
287.189
289.039
285.663
282.004
280.901
279.676
279.387
281.32
280.782
277.099
276.055
281.462
283.212
277.156
279.063
289.992
296.692
298.045
298.333
298.309
298.012
297.818
297.75
297.763
297.828
297.938
298.058
298.171
298.26
298.316
298.35
298.374
298.423
298.488
298.58
298.656
298.683
298.642
298.552
298.431
298.325
298.271
298.153
297.858
297.552
297.275
296.956
297.236
296.666
295.728
295.491
295.359
294.27
293.345
293.106
292.084
291.069
290.315
289.566
288.722
288.165
287.539
286.976
286.653
286.243
285.705
285.183
284.338
282.95
281.442
279.805
278.014
276.408
274.757
272.754
270.748
268.764
267.371
266.087
265.58
265.079
264.577
264.975
265.732
266.656
267.396
267.534
268.026
271.691
276.078
278.713
281.338
281.671
279.933
281.007
283.758
284.484
282.038
276.234
270.446
266.55
263.728
263.891
267.149
271.898
279.187
283.022
279.822
280.601
281.338
277.086
278.716
283.046
284.321
277.669
271.357
269.237
271.57
277.012
271.772
263.08
264.077
260.561
256.431
263.077
265.425
256.819
249.084
243.233
243.747
245.018
244.487
242.299
239.562
232.497
230.055
230.843
224.801
225.642
224.107
234.622
235.247
234.844
214.462
238.829
286.449
279.375
276.254
274.953
275.913
278.665
281.822
285.288
286.826
288.256
290.678
289.525
290.393
290.836
290.492
290.892
289.723
290.837
290.752
289.839
290.411
289.776
290.356
290.425
290.006
290.729
290.501
290.315
291.462
290.182
289.203
292.479
289.821
289.783
290.032
288.112
287.496
285.316
284.959
286.69
286.666
282.32
281.999
284.935
286.086
285.677
287.826
291.181
293.797
295.938
297.804
297.984
297.678
297.527
297.49
297.564
297.76
298.014
298.344
298.76
299.239
299.738
300.168
300.507
300.727
300.881
300.967
301.063
301.18
301.32
301.467
301.583
301.624
301.628
301.568
301.501
301.529
301.602
301.611
301.738
301.579
300.99
301.453
301.175
300.929
300.557
300.528
300.07
298.972
298.972
298.143
296.723
295.772
294.995
293.246
292.081
291.135
289.87
288.648
287.719
286.998
286.606
286.805
286.006
284.818
283.134
281.935
279.816
277.896
275.677
272.792
269.878
267.438
265.245
262.507
260.452
259.288
260.122
263.222
267.777
272.783
275.689
274.63
274.623
277.755
282.07
287.69
290.582
289.576
293.171
299.567
303.62
304.73
298.084
286.878
275.442
264.597
259.942
261.667
269.803
280.702
280.631
277.942
280.243
277.057
275.094
284.609
289.653
287.005
276.54
276.301
269.55
278.026
289.299
283.313
264.279
275.959
268.361
258.733
290.028
299.723
268.824
255.971
246.027
235.969
235.876
237.165
237.456
233.784
223.473
226.649
225.346
216.874
216.244
208.204
222.128
223.773
236.477
206.712
224.065
288.107
281.849
277.645
277.915
281.465
285.482
288.303
290.093
291.937
291.158
292.271
290.663
291.292
292.216
289.988
290.605
289.652
289.57
289.037
287.714
289.151
287.956
288.217
289.203
287.724
289.294
289.675
288.425
290.95
291.525
291.224
289.609
288.929
290.286
288.317
291.136
288.829
288.517
286.008
286.42
288.046
285.068
285.383
292.239
295.083
295.062
295.535
296.28
296.679
296.775
296.869
296.949
297.207
297.624
298.157
298.686
299.197
299.659
300.145
300.653
301.144
301.526
301.782
301.951
302.053
302.112
302.203
302.229
302.263
302.293
302.273
302.26
302.292
302.358
302.425
302.477
302.441
302.279
302.219
302.473
302.532
302.201
302.2
301.626
302.317
301.617
301.466
301.404
300.925
300.739
300.664
300.09
299.186
299.359
298.433
297.102
295.916
295.278
294.706
293.505
291.604
288.815
288.909
288.967
288.385
285.976
284.714
283.363
282.127
280.624
278.766
276.971
273.711
270.437
268.35
267.933
265.99
263.495
262.133
262.589
266.333
272.211
277.204
281.582
282.245
281.282
282.322
285.018
285.622
289.647
297.89
303.438
307.661
306.583
300.128
286.95
273.024
264.631
263.046
272.476
281.26
278.775
278.744
276.84
271.712
272.098
277.974
280.75
284.387
278.377
281.473
272.667
278.564
285.048
287.075
268.42
284.995
274.817
265.367
304.579
303.277
278.403
269.193
274.375
244.792
233.762
234.195
236.392
228.816
218.886
234.963
235.139
219.74
214.964
198.449
210.949
215.903
244.613
207.009
212.592
289.668
285.623
283.98
286.348
289.12
290.539
292.053
290.953
290.935
290.59
289.731
289.712
290.508
290.956
288.669
289.009
286.616
285.887
287.507
285.211
286.097
286.641
285.322
286.799
286.479
286.239
288.467
288.66
287.734
287.267
288.956
294.009
298.342
294.314
293.825
290.866
291.407
288.399
289.226
290.486
280.213
286.165
295.411
296.636
296.553
296.17
296.042
296.282
296.528
297.035
297.66
298.442
299.227
300.047
300.836
301.529
302.003
302.347
302.561
302.663
302.557
302.324
302.013
301.683
301.474
301.305
301.252
301.302
301.333
301.395
301.468
301.557
301.73
301.943
302.214
302.519
302.882
303.024
303.48
303.611
303.71
304.292
304.411
303.847
304.782
304.311
304.253
303.865
303.183
302.744
301.776
301.79
300.931
300.413
300.211
300.504
299.547
298.244
297.358
298.008
298.29
294.939
292.832
292.537
293.016
291.044
289.154
287.257
286.013
285.427
283.517
282.575
281.133
278.478
274.023
274.022
275.624
275.167
274.165
273.875
273.072
273.343
271.881
274.616
279.127
280.664
281.772
283.635
284.349
283.671
291.442
299.761
307.44
309.647
305.354
291.491
276.224
267.611
265.358
273.649
283.028
279.61
283.523
281.24
275.253
278.588
276.249
273.405
281.002
284.129
284.347
279.856
272.617
283.242
286.323
270.084
286.808
280.131
267.787
281.804
277.945
273.084
276.98
307.186
272.233
239.971
233.536
242.129
230.796
218.329
239.016
243.951
224.932
216.872
193.833
203.426
210.253
241.78
241.603
198.145
291.125
289.271
289.683
291.064
291.786
291.467
290.919
290.819
289.996
290.515
290.148
291.695
293.434
291.313
286.839
285.102
285.243
286.268
286.208
283.195
285.028
286.221
284.872
287.895
288.539
286.278
285.649
286.513
289.625
290.296
288.087
286.937
286.157
290.025
292.645
291.419
294.186
288.75
291.361
285.151
284.411
293.985
297.337
296.679
296.496
296.322
296.722
297.255
297.937
298.694
299.247
299.897
300.551
301.251
301.735
301.926
301.735
301.383
300.9
300.276
299.637
299.036
298.597
298.252
298.01
297.961
297.895
297.928
297.971
298.061
298.199
298.405
298.672
298.991
299.404
299.549
299.875
300.188
300.913
300.978
301.565
302.279
303.074
303.397
304.07
304.938
305.459
305.755
305.257
305.552
304.722
303.543
302.679
302.386
301.148
301.209
300.912
301.998
299.803
298.994
299.869
300.077
298.439
296.694
297.068
295.534
294.145
292.154
289.942
289.432
288.796
288.398
287.623
288.158
283.164
279.519
281.814
282.918
281.135
282.305
283.724
287.506
284.946
280.006
280.799
280.593
285.217
288.313
291.208
286.925
286.244
292.533
302.262
312.885
312.107
299.295
279.682
269.811
268.339
273.994
283.338
281.923
283.312
289.132
284.269
283.159
282.257
283.412
286.489
282.895
280.512
285.87
268.012
281.83
281.987
268.032
284.224
287.335
278.598
265.038
275.435
269.236
274.228
298.066
303.25
254.98
234.105
251.391
242.65
221.681
235.833
246.137
228.057
218.967
192.631
198.918
205.864
239.031
261.854
202.182
292.203
291.644
292.274
292.149
291.749
292.085
291.182
290.84
291.086
291.556
293.277
293.96
292.896
286.98
282.145
284.111
287.7
286.141
282.25
281.207
283.544
285.565
286.914
288.7
288.643
288.781
286.789
284.147
286.203
288.371
288.902
289.526
292.3
295.473
292.905
294.818
291.541
289.487
289.409
282.732
288.855
296.859
296.361
296.093
296.273
296.813
297.661
298.373
298.999
299.421
299.875
300.545
301.292
301.834
301.885
301.343
300.557
299.687
298.852
298.115
297.642
297.357
297.24
297.34
297.4
297.562
297.749
297.926
298.085
298.309
298.466
298.676
298.887
298.92
299.31
299.521
299.683
300.09
300.317
299.864
300.298
300.516
300.617
302.353
302.289
303.663
304.258
305.361
305.769
305.946
306.833
306.912
304.6
303.52
301.648
302.86
300.969
302.796
302.18
302.215
300.816
301.384
301.244
299.364
299.977
299.191
298.316
298.118
296.57
294.131
293.341
293.407
291.447
294.144
293.548
289.161
289.174
290.602
287.474
284.863
284.838
288.094
293.354
291.05
291.377
285.43
284.063
287.912
293.284
295.563
289.588
288.899
291.858
305.728
312.825
305.165
284.348
272.983
269.462
275.67
282.35
283.373
281.215
290.282
288.496
285.491
286.187
283.037
282.189
281.376
274.833
280.036
272.293
275.36
280.417
268.711
272.989
284.043
290.729
265.14
278.828
279.392
266.642
266.096
307.57
268.985
235.604
257.235
263.909
229.659
231.839
245.454
231.054
221.291
192.43
198.741
202.014
237.248
238.21
240.388
292.979
293.018
292.784
292.281
292.311
291.83
291.592
291.011
292.514
294.027
294.871
293.36
289.666
285.71
284.998
288.224
287.877
282.082
277.249
277.644
280.196
283.35
288.401
292.946
292.987
289.54
284.576
282.446
284.766
288.641
291.764
292.394
292.447
291.373
292.073
293.945
289.818
291.837
286.226
284.146
293.607
297.058
295.392
296.498
297.069
298.273
298.994
299.502
299.785
300.075
300.717
301.456
301.966
301.746
300.816
299.48
298.287
297.358
296.9
296.831
297.054
297.487
297.894
298.294
298.591
298.783
298.858
298.929
298.933
298.941
298.917
298.897
299.1
299.03
299.059
299.579
299.903
300.524
301.181
301.027
300.066
300.695
298.555
300.578
300.321
302.257
302.311
303.643
304.672
304.961
305.674
308.112
307.358
306.85
303.418
302.758
300.597
301.952
301.382
303.085
302.137
302.999
304.261
302.942
302.119
301.474
300.145
300.23
301.855
298.855
297.258
298.667
295.483
296.294
299.398
297.674
296.056
296.881
297.673
292.773
291.297
288.384
292.561
294.004
298.353
298.374
290.559
288.572
290.53
298.239
296.599
288.813
286.95
297.861
312.375
311.009
289.527
276.58
270.222
276.45
281.869
283.891
280.826
285.668
289.663
286.593
288.213
291.399
284.515
286.169
280.34
282.594
283.824
272.093
283.183
277.893
265.633
278.625
292.556
268.821
275.841
289.022
262.667
255.575
296.379
277.193
238.007
251.75
284.711
242.651
231.14
244.776
234.924
223.209
192.57
201.777
199.535
238.749
236.778
239.96
293.538
293.653
292.926
292.364
292.587
292.067
291.868
292.948
294.359
295.508
294.599
292.982
292.316
290.715
287.592
285.083
281.909
278.647
276.698
277.676
281.186
285.38
289.918
292.902
292.023
288.833
285.724
284.022
283.827
285.337
286.175
285.656
286.3
288.864
293.143
293.369
292.763
290.697
283.565
288.041
296.823
296.561
296.335
298.24
298.816
299.89
299.806
299.931
299.92
300.455
301.215
301.687
301.52
300.373
298.884
297.591
296.923
296.934
297.502
298.323
299.029
299.579
299.951
300.121
300.134
300.137
300.071
299.91
299.635
299.439
299.154
298.735
298.471
298.66
298.225
298.555
299.186
299.513
300.936
302.483
302.165
303.158
300.679
300.758
298.977
301.022
300.813
302.098
303.151
303.499
302.841
304.786
307.24
306.896
306.631
305.216
302.709
301.923
301.442
303.08
302.812
301.851
303.056
303.911
304.302
303.969
302.52
300.246
303.926
303.635
300.883
303.418
300.095
298.567
301.876
302.558
301.587
299.36
302.713
298.139
299.182
299.007
300.249
299.053
299.462
306.12
304.658
297.731
292.538
294.23
301.721
295.581
287.424
291.828
307.715
314.399
296.451
280.716
272.019
276.26
282.049
283.573
282.382
280.909
286.891
283.681
289.321
297.747
290.596
293.273
285.776
291.776
303.572
276.209
283.506
290.958
266.369
275.659
286.805
268.738
279.918
287.828
259.308
261.266
292.536
285.101
243.8
242.092
292.577
256.357
232.942
244.63
239.283
225.233
193.098
206.439
197.573
245.634
249.637
225.474
293.999
294.008
293.118
292.547
292.534
292.445
292.541
293.675
295.284
295.838
296.157
296.043
294.321
290.295
288.304
289.096
289.051
287.68
285.435
282.503
281.313
283.526
288.931
294.794
296.981
295.537
292.761
290.061
288.098
287.664
287.056
287.297
289.847
293.602
295.966
294.94
292.906
286.168
283.959
292.795
298.051
296.308
298.033
299.554
299.713
300.035
299.423
299.543
299.811
300.797
301.562
301.639
300.799
299.288
297.972
297.197
297.281
297.939
298.673
299.306
299.724
299.952
299.992
299.978
299.922
299.797
299.612
299.611
299.216
298.949
298.527
298.184
297.374
297.668
297.49
297.543
297.862
297.587
297.895
299.133
301.367
302.61
302.914
303.146
301.57
301.001
301.447
301.811
302.961
303.472
303.492
302.286
304.744
304.087
305.328
305.45
305.055
302.932
300.749
301.394
303.437
302.746
303.881
303.836
304.499
304.894
305.294
302.005
302.54
304.31
302.369
305.749
303.536
301.65
304.022
304.45
305.202
301.684
304.938
300.564
299.98
303.769
308.589
310.042
304.11
305.147
311.336
309.558
301.488
296.443
303.233
305.156
292.327
288.707
302.212
314.268
302.704
285.192
274.539
275.927
281.138
283.648
284.821
280.881
284.448
277.659
281.075
292.832
293.361
300.888
293.944
292.766
316.473
286.422
285.738
300.827
271.344
277.327
280.705
268.398
287.029
281.09
257.901
271.283
290.636
291.983
249.789
236.666
290.051
265.979
235.472
245.702
243.926
226.745
193.914
210.62
199.16
246.326
230.86
227.478
294.44
294.328
293.274
292.656
292.594
292.269
293.388
294.67
296.534
297.356
297.177
297.508
298.087
297.833
298.22
298.215
296.379
293.788
291.464
287.598
282.87
280.022
281.089
285.827
290.497
293.919
295.242
295.121
294.52
294.045
293.689
294.64
296.285
297.187
296.463
293.493
287.835
283.058
287.692
296.943
298.177
297.193
299.794
300.149
299.982
299.51
298.946
299.428
300.261
301.43
301.921
301.453
300.1
298.441
297.38
297.038
297.548
298.347
299.174
299.961
300.49
300.781
300.824
300.686
300.5
300.397
299.883
299.994
299.659
299.673
299.495
299.497
298.882
298.855
299.046
299.369
300.054
299.965
299.902
298.739
299.37
299.132
301.133
300.77
302.831
301.218
301.942
300.861
301.628
302.643
303.476
303.817
304.826
304.089
303.729
303.603
303.686
304.797
302.732
301.431
302.746
301.642
303.38
303.193
304.518
304.608
304.636
304.935
304.442
304.025
303.079
305.668
304.327
303.466
305.923
305.231
306.996
304.08
307.179
305.186
301.631
300.924
304.132
310.808
308.111
303.331
307.764
312.293
308.561
301.399
304.186
311.848
301.624
289.935
299.708
313.524
310.832
291.695
277.669
276.721
279.958
282.242
285.559
284.584
283.924
276.494
276.762
287.212
287.979
294.356
296.932
293.175
314.249
297.239
292.411
306.366
276.358
283.272
278.125
271.27
291.006
272.476
263.594
284.137
288.111
290.402
251.123
237.256
281.604
273.536
239.848
248.383
248.903
228.331
195.611
213.806
205.046
251.409
227.783
220.741
294.837
294.482
293.473
292.951
292.7
292.719
294.33
296.336
297.206
297.882
299.609
301.105
300.002
297.407
296.27
296.637
296.482
295.832
295.18
292.939
289.281
285.513
283.14
283.324
285.321
288.48
291.399
293.637
294.964
295.954
296.649
297.191
297.116
295.866
292.931
287.959
283.124
284.244
292.88
299.04
297.788
298.486
300.574
299.805
299.406
298.781
298.895
299.772
300.932
301.792
301.758
300.79
299.248
297.788
297.114
297.35
298.272
299.397
300.442
301.128
301.242
300.848
300.252
299.692
299.098
299.134
298.226
298.003
297.645
297.547
297.652
297.787
297.947
297.599
298.024
297.827
299.11
299.605
301.023
301.481
302.277
300.979
301.511
300.743
301.425
300.936
301.765
302.355
300.718
301.302
300.889
301.494
303.154
303.643
303.759
305.196
302.581
302.739
301.835
301.494
301.888
301.58
304.08
302.511
303.93
305.295
303.225
304.444
306.111
305
304.121
305.237
304.275
303.254
304.301
304.413
307.337
305.62
307.133
306.964
306.08
302.294
300.868
305.266
308.061
303.682
303.799
309.106
311.481
303.984
302.82
310.075
309.709
292.32
297.64
309.102
315.552
298.6
281.94
278.009
279.778
280.765
284.322
283.3
284.983
284.648
277.886
289.264
291.083
293.995
297.257
290.405
304.677
299.171
295.728
307.921
279.829
288.593
278.352
276.15
293.321
265.885
275.999
294.071
283.348
276.565
249.175
245.073
272.24
280.321
245.014
251.798
253.323
229.949
197.271
216.665
216.436
250.872
229.196
215.742
295.211
294.606
293.676
293.296
292.885
294.071
296.258
297.358
297.984
297.606
297.143
296.154
296.407
297.54
297.637
297.047
295.883
295.072
294.85
294.129
292.742
290.689
288.188
286.111
285.207
285.497
286.868
288.901
290.609
292.292
293.217
292.804
291.543
289.604
286.243
282.51
282.676
289.027
297.294
299.251
297.793
299.682
300.476
299.307
298.991
298.665
299.39
300.487
301.437
301.834
301.426
300.064
298.462
297.415
297.251
297.954
298.976
300.161
301.032
300.982
300.248
299.31
298.754
299.004
298.727
299.397
298.858
298.694
298.373
297.894
298.453
297.772
298.363
298.449
298.744
298.646
298.865
298.698
298.606
298.871
298.871
300.619
299.763
301.135
300.777
301.268
300.173
301.388
301.532
302.441
303.265
300.835
301.553
302.334
301.315
303.754
304.704
303.71
301.743
302.745
301.551
300.004
302.813
301.998
302.088
304.68
303.393
303.07
303.549
304.988
304.819
305.04
305.565
303.726
300.341
302.691
307.224
306.679
305.956
303.346
304.907
305.209
303.348
302.814
305.668
305.349
301.37
303.853
311.992
306.32
303.026
304.946
314.019
297.083
295.264
304.581
317.045
306.465
287.769
279.934
280.684
280.61
284.555
280.819
281.681
291.951
284.905
296.053
294.868
291.965
298.9
296.347
305.615
299.91
296.338
306.264
282.792
292.878
278.852
281.289
294.014
264.289
289.131
295.87
272.855
259.99
251.675
257.665
266.251
280.146
246.031
254.566
257.416
230.596
199.067
220.226
225.542
252.963
227.235
217.389
295.563
294.677
293.816
293.775
293.62
294.853
296.588
296.839
296.564
295.994
296.161
295.254
294.325
294.175
294.62
295.187
295.623
295.631
294.711
293.667
292.723
291.539
289.871
287.794
286.068
284.991
284.724
285.125
285.66
286.067
286.251
285.488
283.865
281.866
280.44
281.398
286.568
294.285
299.256
298.819
298.657
300.612
300.121
299.089
298.996
299.136
300.22
301.19
301.818
301.615
300.553
299.049
297.958
297.497
297.554
298.43
299.666
300.647
300.854
300.43
299.952
299.497
298.978
299.911
299.977
300.78
299.801
298.812
299.08
297.765
298.886
298.504
298.718
299.611
299.309
300.133
300.081
301.154
300.946
302.001
300.191
300.64
300.093
299.9
299.876
300.321
299.665
300.188
299.567
297.544
301.063
301.167
301.227
302.899
301.257
300.45
302.795
303.534
301.191
301.98
302.822
300.26
301.129
301.719
300.803
302.576
303.751
303.244
299.892
303.122
304.336
303.366
305.361
303.948
297.44
300.742
305.796
306.984
306.253
300.514
300.201
304.021
308.214
302.044
302.671
304.588
301.716
299.967
308.959
307.246
302.681
300.633
312.591
303.227
295.914
299.264
313.664
314.813
294.524
284.007
281.367
280.801
285.748
282.06
278.553
290.758
289.287
298.604
298.727
289.434
294.554
296.194
305.941
298.074
293.687
302.557
283.038
295.936
279.76
285.742
293.798
267.282
298.094
292.75
260.326
254.528
261.593
267.425
263.235
266.509
240.996
257.168
261.313
231.071
201.849
224.033
226.725
253.29
225.991
218.018
295.882
294.71
293.955
293.865
293.197
294.371
296.569
297.018
296.726
295.48
294.967
295.771
297.577
298.658
298.221
297.107
296.747
296.177
295.639
295.038
293.772
292.2
290.818
289.141
287.225
285.271
283.788
282.826
282.209
281.559
280.988
280.823
280.798
280.768
282.035
286.208
292.283
297.584
299.356
298.697
299.706
300.786
299.713
299.163
299.374
300.007
301.08
301.682
301.678
300.96
299.752
298.848
297.862
297.379
297.843
298.784
299.741
300.537
300.859
300.555
299.99
299.828
298.7
299.166
298.824
299.318
299.456
297.244
297.338
296.034
296.829
297.258
297.313
298.675
297.944
299.029
298.382
298.197
298.859
298.561
300.504
299.861
300.326
300.173
299.425
300.295
299.89
299.88
301.83
299.652
300.144
299.344
298.13
301.149
301.046
300.02
301.614
302.686
301.803
301.208
302.612
301.828
299.888
300.107
300.662
300.183
303.051
303.413
297.265
301.184
303.456
301.677
304.054
302.753
297.333
301.251
301.912
303.804
305.273
299.979
297.662
301.316
311.28
301.388
300.033
301.632
302.965
300.416
303.24
307.683
302.099
298.117
308.149
304.988
300.312
295.931
306.502
319.947
301.191
290.017
283.354
281.199
285.677
285.237
279.487
287.612
289.35
298.388
302.209
289.127
292.075
290.719
304.868
298.404
293.773
302.877
284.5
298.248
280.272
289.385
293.836
272.785
303.192
287.611
254.214
261.229
271.28
271.558
267.384
247.669
235.344
261.225
265.54
231.781
204.173
227.603
223.857
255.834
226.816
219.128
296.173
294.714
293.855
293.226
292.317
293.967
296.7
297.894
299.124
298.507
298.958
299.044
298.393
296.789
295.8
296.172
297.564
297.836
296.833
295.717
295.037
293.804
292.436
291.091
289.61
287.825
285.979
284.306
283.164
282.484
282.017
282.162
283.351
285.488
288.66
293.037
297.165
299.542
299.794
299.711
300.798
300.758
299.573
299.389
299.795
300.591
301.425
301.644
301.366
300.431
299.252
298.311
297.58
297.719
298.265
298.987
299.943
300.556
300.784
300.712
300.176
300.428
298.54
297.984
298.888
299.213
299.942
298.72
298.618
298.183
298.113
298.798
297.981
298.618
298.045
298.118
300.018
298.722
300.559
298.148
298.469
298.674
298.441
299.69
298.735
298.839
298.53
297.684
298.871
298.053
299.575
301.099
298.714
300.228
299.82
298.291
299.783
300.204
299.94
300.631
300.129
302.047
300.65
298.457
300.733
299.097
301.791
301.845
295.726
300.323
302.003
300.286
301.652
298.859
297.339
302.838
297.454
298.522
301.657
300.973
296.16
302.075
306.278
300.372
296.368
297.926
301.527
303.16
297.816
304.902
302.649
296.825
303.585
304.82
305.624
296.337
300.43
319.85
308.209
296.548
287.264
283.163
284.325
288.36
282.236
288.392
289.801
296.325
305.487
294.336
295.35
287.997
303.315
299.875
294.011
301.998
287.033
301.31
281.56
292.698
293.79
278.403
306.297
281.845
259.098
271.947
276.787
275.563
280.276
236.458
235.343
268.36
271.374
232.871
206.231
230.033
223.27
259.167
228.376
220.683
296.396
294.634
293.631
292.871
293.004
294.192
295.222
296.808
298.861
297.305
296.926
296.416
296.816
297.564
297.908
296.98
296.803
297.671
297.836
297.278
297.15
296.166
294.751
293.721
292.398
291.317
290.512
289.267
288.279
287.804
287.831
288.527
289.481
291.097
293.749
296.602
298.728
299.981
300.216
300.719
301.37
300.8
300.027
300.077
300.596
301.162
301.615
301.472
300.791
299.752
299.233
298.34
298.015
298.234
298.343
299.101
300.196
300.433
300.432
300.94
300.297
300.261
299.176
297.676
298.161
299.204
299.657
298.926
298.058
297.868
297.771
297.338
296.819
295.357
295.242
294.163
295.501
295.501
297.814
298.13
299.06
298.267
297.529
298.929
298.115
299.09
299.264
298.692
299.477
298.734
296.856
298.171
296.865
298.624
299.627
298.596
299.101
298.895
298.146
299.31
297.785
300.264
300.415
297.321
298.71
298.381
300.807
298.206
295.565
299.234
299.018
299.239
298.558
295.568
298.652
302.054
294.186
295.094
297.992
300.741
295.152
302.678
298.264
298.493
293.572
296.357
298.052
302.838
296.99
301.319
302.71
296.195
296.295
301.504
306.033
297.357
295.716
313.646
314.829
304.611
292.532
287.212
282.868
288.948
283.872
291.229
292.749
292.769
302.528
297.81
300.563
290.047
304.476
303.027
295.909
300.423
287.616
302.253
282.91
295.938
294.184
283.672
307.894
277.577
274.083
281.133
281.895
282.746
293.891
241.884
246.759
278.639
278.125
235.565
208.956
229.204
229.227
261.893
229.678
220.973
296.555
294.576
293.895
293.407
293.439
293.384
294.185
295.116
297.133
297.954
298.262
297.567
297.815
297.568
297.689
297.862
297.717
297.568
297.427
297.36
297.531
297.804
297.403
296.982
296.136
294.922
293.911
293.548
293.288
293.299
293.307
294.153
295.323
296.577
297.875
299.176
299.841
300.13
300.223
300.51
300.583
299.839
299.416
299.698
300.459
300.984
301.299
301.166
300.334
299.554
298.719
298.112
298.273
298.382
298.975
299.402
299.743
300.457
300.24
300.041
300.256
300.511
299.273
297.978
297.26
297.628
298.584
298.552
299.152
298.094
298.393
297.309
296.752
295.744
295.431
295.948
297.236
297.279
298.621
298.033
299.002
299.914
298.829
299.207
297.475
297.987
297.876
296.786
297.654
298.429
297.905
299.005
296.875