/*--------------------------------*- C++ -*----------------------------------*\
| =========                 |                                                 |
| \\      /  F ield         | OpenFOAM: The Open Source CFD Toolbox           |
|  \\    /   O peration     | Version:  dev                                   |
|   \\  /    A nd           | Web:      http://www.openfoam.org               |
|    \\/     M anipulation  |                                                 |
\*---------------------------------------------------------------------------*/
FoamFile
{
    version     2.0;
    format      ascii;
    class       volVectorField;
    object      U;
    location    "9.167";
}
// * * * * * * * * * * * * * * * * * * * * * * * * * * * * * * * * * * * * * //

dimensions      [0 1 -1 0 0 0 0];

internalField   nonuniform List<vector> 
12225
(
(6.54121 0.880289 0)
(2.63877 0.628749 0)
(-0.191655 0.468156 0)
(-1.1073 0.435354 0)
(-3.05883 0.458183 0)
(-2.76828 0.397318 0)
(-4.74722 0.499392 0)
(-3.73263 0.353176 0)
(-5.8628 0.530241 0)
(-4.14364 0.288888 0)
(-6.3064 0.568829 0)
(-4.09101 0.236203 0)
(-6.07996 0.516743 0)
(-3.26079 0.061852 0)
(-3.94819 0.192588 0)
(0.721236 -0.783472 0)
(13.8596 -0.148047 0)
(2.73781 8.15632 0)
(8.86276 2.40728 0)
(7.6998 2.21447 0)
(3.85715 1.84661 0)
(3.92017 1.60813 0)
(-0.331902 1.54835 0)
(1.64864 1.42675 0)
(-3.13921 1.49901 0)
(0.426653 1.32205 0)
(-5.19913 1.54396 0)
(0.0779228 1.10545 0)
(-6.17893 1.65442 0)
(0.0495674 0.82041 0)
(-5.98712 1.73961 0)
(0.198693 0.111349 0)
(-5.28595 1.25009 0)
(0.219797 -3.77834 0)
(-0.618913 -0.212026 0)
(-4.36925 4.18091 0)
(8.14246 3.207 0)
(10.3387 3.3029 0)
(5.48142 3.04558 0)
(8.07472 2.84247 0)
(2.05506 2.75787 0)
(6.04169 2.65795 0)
(-0.563074 2.60224 0)
(4.73709 2.50311 0)
(-2.14906 2.65915 0)
(3.69052 2.05052 0)
(-2.32796 2.89632 0)
(2.37111 1.46606 0)
(-1.86429 2.96104 0)
(0.799806 1.11169 0)
(-1.75007 2.81405 0)
(-1.92883 -1.50337 0)
(-0.258558 2.10462 0)
(-4.8429 2.34845 0)
(6.70697 4.31382 0)
(11.7352 4.32826 0)
(5.87722 4.22273 0)
(9.72728 4.00028 0)
(4.13988 4.09886 0)
(7.69058 3.78076 0)
(2.58013 4.00099 0)
(5.88558 3.48133 0)
(1.63139 4.08742 0)
(4.3339 2.96389 0)
(1.06757 4.361 0)
(3.0758 2.25364 0)
(0.806918 4.55543 0)
(2.09955 1.28264 0)
(1.08891 4.61464 0)
(0.962632 -2.11562 0)
(0.318265 1.66363 0)
(-6.93113 8.13393 0)
(7.39998 5.65218 0)
(9.83245 5.09339 0)
(6.95703 5.62955 0)
(7.6774 4.92203 0)
(5.85672 5.61276 0)
(5.8304 4.72089 0)
(4.74119 5.6536 0)
(4.07079 4.37122 0)
(3.787 5.74896 0)
(2.91019 3.96926 0)
(3.15903 5.96734 0)
(2.17274 3.57939 0)
(2.84432 6.22649 0)
(1.7467 2.86244 0)
(2.88838 7.08553 0)
(1.91318 0.635327 0)
(-1.2306 6.85909 0)
(-6.32882 4.18203 0)
(9.04148 7.33549 0)
(7.84513 6.09864 0)
(7.73243 7.02894 0)
(6.13303 6.06671 0)
(6.1384 7.03715 0)
(4.48381 5.91203 0)
(4.70244 7.14119 0)
(3.09695 5.59788 0)
(3.71549 7.16947 0)
(2.66368 5.24926 0)
(3.2979 7.19789 0)
(2.38388 5.07118 0)
(3.1068 6.99456 0)
(2.13055 4.47653 0)
(2.66309 6.72312 0)
(2.09747 3.54897 0)
(-1.15065 7.29107 0)
(-1.012 7.71436 0)
(9.62689 8.9115 0)
(7.81476 7.35757 0)
(7.73795 8.79986 0)
(6.32119 7.24938 0)
(6.15347 8.95458 0)
(4.7739 7.08534 0)
(4.72583 9.16847 0)
(3.6324 6.71522 0)
(3.86678 9.046 0)
(3.10993 6.3304 0)
(3.45249 8.97756 0)
(2.59348 6.22071 0)
(3.02909 8.80557 0)
(2.24792 5.77387 0)
(2.16969 8.7792 0)
(1.9724 5.257 0)
(0.0608425 9.01921 0)
(0.994437 8.94456 0)
(9.55297 10.2073 0)
(7.85496 8.50176 0)
(7.87318 10.0501 0)
(6.43448 8.53323 0)
(6.11672 10.1295 0)
(4.8486 8.51368 0)
(4.72071 10.1681 0)
(3.88254 8.27715 0)
(3.85279 9.88952 0)
(3.24143 8.0247 0)
(3.19687 9.71026 0)
(2.6061 8.12129 0)
(2.65211 9.49666 0)
(2.44471 7.90173 0)
(1.89114 9.34169 0)
(2.18117 8.14446 0)
(0.674329 9.55576 0)
(1.70081 10.1972 0)
(9.58683 11.5433 0)
(7.74076 9.6456 0)
(7.58976 11.3701 0)
(6.33342 9.696 0)
(6.00956 11.541 0)
(4.98574 9.68169 0)
(4.74842 11.522 0)
(4.09464 9.45171 0)
(3.87579 11.1707 0)
(3.39103 9.26027 0)
(3.20251 10.9909 0)
(2.71956 9.20629 0)
(2.67618 10.8318 0)
(2.49915 9.08557 0)
(2.0002 10.6317 0)
(2.21683 9.38892 0)
(1.41812 10.5893 0)
(1.92517 11.1459 0)
(9.6728 12.7888 0)
(8.11264 11.0362 0)
(7.5815 12.6963 0)
(6.35199 11.1804 0)
(5.90713 12.6721 0)
(5.00863 11.3185 0)
(4.70277 12.5297 0)
(4.11034 11.2033 0)
(3.78428 12.2059 0)
(3.33706 11.1732 0)
(3.01782 12.0766 0)
(2.67804 11.0725 0)
(2.52998 11.9557 0)
(2.46729 11.0033 0)
(2.01114 11.7653 0)
(2.17647 11.2772 0)
(1.84098 11.7062 0)
(2.1931 12.1843 0)
(9.43964 14.3722 0)
(8.17088 12.7244 0)
(7.41831 14.1635 0)
(6.45094 12.841 0)
(5.77804 14.1369 0)
(5.06156 12.9132 0)
(4.54388 13.9882 0)
(4.05606 12.813 0)
(3.67674 13.7078 0)
(3.22617 12.7972 0)
(2.89086 13.5065 0)
(2.57415 12.7191 0)
(2.45635 13.3397 0)
(2.3488 12.6661 0)
(2.1057 13.0755 0)
(2.16216 12.8624 0)
(2.06382 13.0964 0)
(2.36693 13.3113 0)
(9.46106 15.8664 0)
(8.37523 14.444 0)
(7.38626 15.4629 0)
(6.49748 14.6978 0)
(5.70042 15.5451 0)
(4.99778 14.9322 0)
(4.39927 15.4382 0)
(3.92662 14.9434 0)
(3.49905 15.1588 0)
(3.15445 14.7939 0)
(2.83796 14.9571 0)
(2.62363 14.6742 0)
(2.48796 14.8666 0)
(2.35179 14.5383 0)
(2.21818 14.6756 0)
(2.20287 14.6147 0)
(2.20795 14.6884 0)
(2.4561 14.7608 0)
(9.33171 17.5367 0)
(8.34578 16.4598 0)
(7.26775 17.1184 0)
(6.41359 16.6997 0)
(5.58934 17.1284 0)
(4.93201 16.8671 0)
(4.36879 17.1188 0)
(3.85339 16.8904 0)
(3.4817 16.9255 0)
(3.14444 16.6852 0)
(2.8396 16.6997 0)
(2.59387 16.5893 0)
(2.42976 16.5445 0)
(2.26245 16.4027 0)
(2.15971 16.3959 0)
(2.12484 16.3523 0)
(2.13483 16.3553 0)
(2.39533 16.3642 0)
(9.4797 19.1777 0)
(8.36611 18.4933 0)
(7.24321 18.68 0)
(6.36992 18.6172 0)
(5.63581 18.7301 0)
(5.00179 18.7462 0)
(4.43309 18.7947 0)
(3.88502 18.7702 0)
(3.44196 18.7517 0)
(3.13555 18.6213 0)
(2.86771 18.5801 0)
(2.63111 18.5018 0)
(2.45229 18.4333 0)
(2.33787 18.3249 0)
(2.24799 18.2483 0)
(2.22434 18.1538 0)
(2.24645 18.1231 0)
(2.45852 18.0683 0)
(9.34962 20.9705 0)
(8.40698 20.386 0)
(7.42973 20.2296 0)
(6.51492 20.2708 0)
(5.71316 20.3898 0)
(5.02752 20.4953 0)
(4.41843 20.5388 0)
(3.86243 20.5004 0)
(3.36657 20.4893 0)
(3.00602 20.4076 0)
(2.7084 20.3266 0)
(2.48463 20.251 0)
(2.30814 20.1911 0)
(2.20902 20.0995 0)
(2.16481 20.0028 0)
(2.18934 19.8955 0)
(2.2199 19.7927 0)
(2.43638 19.6912 0)
(9.51253 22.4887 0)
(8.46638 21.8704 0)
(7.41205 21.7085 0)
(6.44512 21.7673 0)
(5.62026 21.8342 0)
(4.96201 21.882 0)
(4.40062 21.9129 0)
(3.93449 21.9299 0)
(3.44621 21.9557 0)
(3.05316 21.9531 0)
(2.73861 21.891 0)
(2.50439 21.7982 0)
(2.30355 21.6998 0)
(2.20128 21.5838 0)
(2.12784 21.4692 0)
(2.13232 21.3263 0)
(2.13904 21.218 0)
(2.33799 21.1318 0)
(9.47598 23.3762 0)
(8.39963 22.8047 0)
(7.39624 22.6096 0)
(6.48419 22.5916 0)
(5.63056 22.5912 0)
(4.88806 22.6114 0)
(4.22839 22.6498 0)
(3.69838 22.7084 0)
(3.20536 22.7413 0)
(2.79836 22.7885 0)
(2.44134 22.806 0)
(2.2024 22.7666 0)
(1.99889 22.712 0)
(1.86252 22.6271 0)
(1.7396 22.5339 0)
(1.70396 22.4332 0)
(1.63768 22.311 0)
(1.79205 22.2037 0)
(9.50102 23.3422 0)
(8.5717 22.6678 0)
(7.61223 22.4554 0)
(6.71378 22.5146 0)
(5.86251 22.6155 0)
(5.08683 22.6768 0)
(4.35726 22.6911 0)
(3.74839 22.7351 0)
(3.20725 22.7197 0)
(2.78701 22.7079 0)
(2.42502 22.7172 0)
(2.13133 22.683 0)
(1.87846 22.6966 0)
(1.70504 22.6457 0)
(1.54039 22.5998 0)
(1.48004 22.5258 0)
(1.38864 22.4303 0)
(1.50053 22.3648 0)
(9.51028 22.208 0)
(8.58687 21.6001 0)
(7.58663 21.3334 0)
(6.64429 21.3662 0)
(5.80468 21.4951 0)
(5.0905 21.5683 0)
(4.44397 21.5878 0)
(3.89487 21.6317 0)
(3.3871 21.609 0)
(2.94622 21.6275 0)
(2.54428 21.6572 0)
(2.20334 21.6686 0)
(1.88207 21.7316 0)
(1.6231 21.7397 0)
(1.40074 21.7465 0)
(1.30467 21.691 0)
(1.20828 21.6064 0)
(1.31604 21.5299 0)
(9.36906 20.383 0)
(8.50926 19.8038 0)
(7.62344 19.5744 0)
(6.76873 19.6235 0)
(5.98748 19.7136 0)
(5.32866 19.7417 0)
(4.67897 19.7666 0)
(4.07792 19.8056 0)
(3.51435 19.8308 0)
(3.00522 19.9053 0)
(2.57436 19.9608 0)
(2.23384 20.0162 0)
(1.96916 20.0415 0)
(1.74437 20.0492 0)
(1.51093 20.0506 0)
(1.39525 19.9908 0)
(1.27152 19.925 0)
(1.30228 19.8373 0)
(9.38272 18.2113 0)
(8.64374 17.5272 0)
(7.89916 17.2918 0)
(7.14454 17.3112 0)
(6.39967 17.3681 0)
(5.70665 17.4713 0)
(4.98473 17.5741 0)
(4.32274 17.6448 0)
(3.71371 17.709 0)
(3.18636 17.7379 0)
(2.73967 17.7656 0)
(2.36912 17.8165 0)
(2.07186 17.8193 0)
(1.85384 17.8476 0)
(1.63123 17.8752 0)
(1.45576 17.9065 0)
(1.30117 17.909 0)
(1.27499 17.8747 0)
(9.46398 15.822 0)
(8.71577 15.159 0)
(7.96991 14.9083 0)
(7.24164 14.9505 0)
(6.54356 15.0448 0)
(5.83705 15.196 0)
(5.14703 15.304 0)
(4.48866 15.3441 0)
(3.85045 15.4056 0)
(3.29332 15.4314 0)
(2.78787 15.4647 0)
(2.35772 15.5207 0)
(1.99505 15.5484 0)
(1.72526 15.6 0)
(1.54282 15.5788 0)
(1.37027 15.5988 0)
(1.23129 15.5874 0)
(1.18777 15.5629 0)
(9.60654 13.4786 0)
(9.03916 12.7813 0)
(8.33248 12.4773 0)
(7.56677 12.4763 0)
(6.80639 12.59 0)
(6.0691 12.7294 0)
(5.39014 12.8696 0)
(4.73152 12.983 0)
(4.10979 13.0637 0)
(3.52432 13.1181 0)
(2.9963 13.1466 0)
(2.54269 13.1762 0)
(2.16343 13.1848 0)
(1.85327 13.2067 0)
(1.63922 13.2025 0)
(1.4753 13.1908 0)
(1.32771 13.1855 0)
(1.23655 13.2005 0)
(9.66537 11.0057 0)
(9.15942 10.4313 0)
(8.51412 10.1925 0)
(7.78075 10.2257 0)
(6.98954 10.3444 0)
(6.21707 10.4795 0)
(5.49195 10.6107 0)
(4.83357 10.7112 0)
(4.23765 10.788 0)
(3.68308 10.848 0)
(3.19319 10.8736 0)
(2.7397 10.9148 0)
(2.34833 10.9319 0)
(2.01973 10.9482 0)
(1.75252 10.9569 0)
(1.55752 10.939 0)
(1.40094 10.9108 0)
(1.29345 10.9066 0)
(9.61668 8.90035 0)
(9.33108 8.23267 0)
(8.8018 7.98306 0)
(8.07878 8.05204 0)
(7.22776 8.18756 0)
(6.38284 8.32349 0)
(5.61308 8.43384 0)
(4.94255 8.51033 0)
(4.34429 8.57333 0)
(3.81033 8.62862 0)
(3.31215 8.66433 0)
(2.86159 8.7086 0)
(2.4635 8.73459 0)
(2.11781 8.76368 0)
(1.84104 8.7797 0)
(1.62204 8.79234 0)
(1.4724 8.77474 0)
(1.37747 8.76812 0)
(9.57965 6.71201 0)
(9.33837 6.03477 0)
(8.76002 5.93028 0)
(8.01773 6.08447 0)
(7.24291 6.26473 0)
(6.5164 6.39944 0)
(5.84553 6.47651 0)
(5.20986 6.52139 0)
(4.60367 6.56719 0)
(4.02238 6.62302 0)
(3.45649 6.66611 0)
(2.92737 6.71557 0)
(2.44205 6.74074 0)
(2.0263 6.75609 0)
(1.67802 6.76579 0)
(1.3985 6.76908 0)
(1.18601 6.76718 0)
(1.0618 6.76304 0)
(9.80361 4.76282 0)
(9.56474 4.22483 0)
(9.04103 4.13707 0)
(8.29175 4.24662 0)
(7.4515 4.36965 0)
(6.59104 4.47109 0)
(5.76683 4.56158 0)
(4.96754 4.63415 0)
(4.21916 4.70789 0)
(3.52617 4.79178 0)
(2.88844 4.85078 0)
(2.32399 4.92365 0)
(1.81929 4.94936 0)
(1.37839 4.96616 0)
(0.993774 4.97005 0)
(0.660296 4.9628 0)
(0.386735 4.95917 0)
(0.173512 4.95627 0)
(9.51267 2.90726 0)
(9.50718 2.39849 0)
(8.91419 2.46003 0)
(7.91023 2.64977 0)
(6.79678 2.83348 0)
(5.67703 2.95998 0)
(4.60517 3.06152 0)
(3.56682 3.11944 0)
(2.60787 3.16651 0)
(1.75113 3.22182 0)
(0.989712 3.26616 0)
(0.309416 3.30475 0)
(-0.262007 3.32882 0)
(-0.780459 3.34129 0)
(-1.22075 3.3545 0)
(-1.61463 3.36194 0)
(-1.93047 3.36028 0)
(-2.20352 3.3597 0)
(9.78786 1.13152 0)
(9.08244 0.839884 0)
(7.51438 1.04633 0)
(5.66045 1.27478 0)
(3.99024 1.4889 0)
(2.53303 1.64544 0)
(1.24956 1.75015 0)
(0.11157 1.81086 0)
(-0.890732 1.84652 0)
(-1.75223 1.88217 0)
(-2.52307 1.90094 0)
(-3.18985 1.91482 0)
(-3.74614 1.9347 0)
(-4.25 1.93735 0)
(-4.65691 1.94561 0)
(-5.02593 1.94114 0)
(-5.31223 1.93132 0)
(-5.57353 1.92588 0)
(8.24874 0.101046 0)
(5.07873 0.201734 0)
(2.36931 0.456202 0)
(0.307293 0.589844 0)
(-1.14746 0.634249 0)
(-2.26704 0.641121 0)
(-3.21409 0.636959 0)
(-4.04319 0.632388 0)
(-4.79437 0.625201 0)
(-5.47096 0.627984 0)
(-6.08664 0.627435 0)
(-6.62177 0.632662 0)
(-7.08473 0.635811 0)
(-7.48545 0.635516 0)
(-7.82085 0.635759 0)
(-8.10726 0.635707 0)
(-8.34342 0.628174 0)
(-8.55096 0.642195 0)
(-0.196826 0.00209134 0)
(-0.770674 -0.317509 0)
(-1.25479 -0.429153 0)
(-1.67086 -0.467976 0)
(-1.91579 -0.596748 0)
(-2.02173 -0.740192 0)
(-1.94524 -0.912304 1.12306e-17)
(-1.69441 -1.08937 -1.11663e-17)
(-1.26397 -1.20815 0)
(-0.702027 -1.3218 -1.10398e-17)
(-0.0233762 -1.38474 0)
(0.697438 -1.3359 0)
(1.38279 -1.32034 0)
(2.05811 -1.3347 1.07589e-17)
(2.7465 -1.2485 0)
(3.39402 -1.08917 0)
(3.91703 -0.975833 -1.0533e-17)
(4.33376 -0.917079 0)
(4.71487 -0.882504 0)
(5.02955 -0.83606 0)
(5.32412 -0.73315 1.02479e-17)
(5.54807 -0.647404 0)
(5.66615 -0.532742 1.00981e-17)
(5.74902 -0.404514 0)
(5.68719 -0.31038 0)
(5.56118 -0.176245 9.88874e-18)
(5.30577 -0.079978 0)
(4.93259 0.0288739 -9.75275e-18)
(4.52616 0.143953 0)
(3.92085 0.190673 9.60803e-18)
(3.30429 0.340774 0)
(2.58294 0.408604 0)
(1.78323 0.105405 0)
(1.21925 -0.46946 0)
(0.875287 -0.871263 0)
(0.719423 -0.818796 -9.29777e-18)
(0.744756 -0.672563 0)
(0.94373 -0.578943 1.82525e-17)
(1.26146 -0.516325 0)
(1.60525 -0.528469 -1.79882e-17)
(2.09662 -0.604243 0)
(2.81833 -0.676137 0)
(3.48295 -0.621052 1.75863e-17)
(4.07308 -0.754704 0)
(4.84963 -0.805411 1.7171e-17)
(5.5554 -0.350678 -1.7148e-17)
(5.68625 0.19211 0)
(5.56934 0.52255 -1.68948e-17)
(5.7231 0.65194 -1.67327e-17)
(6.22698 0.288111 0)
(6.75809 -0.82361 0)
(7.08955 -2.03809 0)
(7.53146 -2.45219 0)
(7.87149 -1.54361 0)
(7.14386 0.0605017 1.66983e-17)
(5.60878 0.995638 0)
(4.08877 1.14372 -1.6452e-17)
(2.7867 1.03386 0)
(1.68481 0.893744 0)
(0.723628 0.775665 1.60549e-17)
(-0.0771939 0.679347 0)
(-0.752022 0.612363 -1.58215e-17)
(-1.30744 0.551572 0)
(-1.72529 0.487427 0)
(-2.05485 0.411063 0)
(-2.29596 0.351779 1.53768e-17)
(-2.43581 0.3102 0)
(-2.56909 0.267199 0)
(-2.63888 0.258319 1.50543e-17)
(-2.65732 0.231812 0)
(-2.63417 0.223409 1.48449e-17)
(-2.56445 0.194413 0)
(-2.48019 0.180644 0)
(-2.38864 0.17257 0)
(-2.27947 0.185953 -1.44275e-17)
(-2.15272 0.200781 0)
(-2.04512 0.198199 0)
(-1.92215 0.19645 -1.41123e-17)
(-1.77899 0.22153 -1.40044e-17)
(-1.70796 0.264131 0)
(-1.6239 0.283018 -1.37887e-17)
(-1.57323 0.328687 0)
(-1.52152 0.322898 -2.71664e-17)
(-1.39645 0.329116 0)
(-1.32057 0.406015 -2.67157e-17)
(-1.30702 0.449564 0)
(-1.22146 0.443021 2.62969e-17)
(-1.13106 0.490578 0)
(-1.08638 0.568639 0)
(-0.997016 0.581906 0)
(-0.898929 0.625702 -2.54226e-17)
(-0.829863 0.673807 0)
(-0.76845 0.726474 2.49999e-17)
(-0.65252 0.767181 0)
(-0.510698 0.792315 -2.45884e-17)
(-0.389191 0.810919 -2.43864e-17)
(-0.256654 0.828838 -2.41851e-17)
(-0.0679831 0.853869 0)
(0.126528 0.865919 0)
(0.331703 0.877231 0)
(0.549216 0.878088 0)
(0.739191 0.880944 0)
(0.942446 0.859646 0)
(1.16239 0.849881 0)
(1.396 0.844513 0)
(1.63636 0.833763 2.2346e-17)
(1.89109 0.835882 2.21384e-17)
(2.14733 0.818368 0)
(2.36558 0.801617 0)
(2.63581 0.802033 0)
(2.91203 0.785069 2.13261e-17)
(3.17468 0.781322 0)
(3.37545 0.763742 0)
(3.55061 0.757879 0)
(3.70321 0.727517 0)
(3.80759 0.699787 -2.0369e-17)
(3.9814 0.672528 0)
(4.19928 0.649545 0)
(4.53059 0.606896 1.98965e-17)
(4.95345 0.589904 -1.97783e-17)
(5.36754 0.511003 0)
(5.81666 0.424475 -1.9568e-17)
(6.33543 0.376565 0)
(6.86683 0.337577 1.95103e-17)
(7.50717 0.303121 0)
(8.14433 0.297042 0)
(8.75311 0.282073 0)
(9.39539 0.226273 0)
(9.99394 0.192947 0)
(10.5435 0.182634 -3.78002e-17)
(11.1037 0.123699 -3.75824e-17)
(11.7801 0.0745653 0)
(12.7023 0.00554898 0)
(13.6951 -0.0687608 0)
(14.4798 -0.149192 3.64982e-17)
(15.2031 -0.188716 0)
(15.9906 -0.314382 0)
(16.7055 -0.341314 0)
(17.5836 -0.417325 3.58639e-17)
(18.4813 -0.466851 -3.5812e-17)
(19.2521 -0.481658 0)
(19.8038 -0.456135 0)
(20.027 -0.427262 -3.53814e-17)
(19.9749 -0.349632 -3.51369e-17)
(19.499 -0.300231 0)
(18.5897 -0.306677 0)
(17.4458 -0.369735 3.43795e-17)
(16.307 -0.360092 -3.41891e-17)
(15.5208 -0.458826 0)
(15.9553 -0.780845 0)
(16.403 -0.723461 -3.31101e-17)
(16.1159 -0.727047 0)
(15.0227 -0.791655 0)
(14.5165 -0.787264 -3.23544e-17)
(16.1842 -1.38407 0)
(16.3027 -0.957173 -3.16588e-17)
(15.5025 -0.955993 0)
(15.789 -1.23829 0)
(15.1465 -1.1557 0)
(14.3365 -1.11547 3.03156e-17)
(15.5524 -1.45693 0)
(15.3821 -1.06635 0)
(14.206 -1.14061 0)
(13.7677 -1.27784 0)
(12.9105 -1.17746 0)
(11.4498 -1.11096 0)
(9.56209 -0.951195 2.8538e-17)
(7.88501 -1.04823 2.8135e-17)
(6.67675 -1.0095 0)
(4.84385 -0.859137 0)
(3.37054 -0.917253 0)
(2.60467 -0.984387 -2.70181e-17)
(0.613417 -1.08732 0)
(0.758562 -1.08927 5.28708e-17)
(-1.37631 -0.470633 -5.294e-17)
(-3.83382 -0.336107 -5.28473e-17)
(-8.0982 -0.365195 5.20298e-17)
(-7.39983 -1.6241 -5.0335e-17)
(0.625483 -0.636608 4.94602e-17)
(-3.44205 -0.229767 0)
(0.141011 -1.10488 0)
(0.0640762 -0.618687 0)
(-0.149385 -0.862104 -2.27433e-17)
(-0.357516 -1.32325 0)
(-0.528504 -1.76934 2.25799e-17)
(-0.584375 -2.24274 2.24759e-17)
(-0.464517 -2.80316 1.12176e-17)
(-0.121132 -3.37735 1.11761e-17)
(0.380049 -3.78595 0)
(0.985656 -4.02739 1.11211e-17)
(1.61091 -4.42788 0)
(2.32041 -4.34188 0)
(3.05028 -4.03651 -2.19362e-17)
(3.64568 -4.13607 -1.08948e-17)
(4.24817 -4.14016 2.16552e-17)
(4.81007 -3.83899 2.15187e-17)
(5.29359 -3.4603 1.06686e-17)
(5.77133 -3.18096 0)
(6.18719 -3.00999 0)
(6.50917 -2.81871 0)
(6.8636 -2.68402 1.03808e-17)
(7.09474 -2.45108 0)
(7.26529 -2.14267 -3.06668e-17)
(7.51597 -1.9171 0)
(7.50331 -1.5253 0)
(7.58727 -1.31193 -9.96258e-18)
(7.49392 -1.03312 0)
(7.27387 -0.650619 9.84634e-18)
(7.19093 -0.523033 1.94935e-17)
(6.73199 0.00265756 -9.72097e-18)
(6.5945 -0.00490766 0)
(6.01534 0.164187 0)
(5.63401 0.598868 0)
(5.3428 0.209402 1.87275e-17)
(4.47838 0.134329 1.84977e-17)
(3.79526 -0.263458 9.21238e-18)
(3.19301 -1.0115 0)
(2.83388 -1.58787 -1.80763e-17)
(2.70152 -1.88814 0)
(2.76672 -2.00216 1.75281e-17)
(3.04053 -2.26008 0)
(3.53902 -2.79732 0)
(4.4694 -2.26777 -1.71772e-17)
(5.48568 -1.85419 0)
(6.04728 -2.27568 -4.99987e-17)
(6.85258 -1.73723 1.64839e-17)
(7.89844 -0.785723 0)
(8.37164 -1.14421 1.66569e-17)
(8.23429 -2.31035 1.61797e-17)
(8.13411 -2.28544 0)
(7.1132 -0.874124 0)
(4.72222 0.640265 0)
(2.3018 1.54894 0)
(0.644363 2.10501 0)
(-0.598315 2.46284 -1.66524e-17)
(-1.56476 2.50726 -3.30222e-17)
(-2.32737 2.35491 1.63894e-17)
(-3.00193 2.09091 0)
(-3.5672 1.82984 -3.23108e-17)
(-4.10856 1.56447 1.60413e-17)
(-4.49764 1.33459 0)
(-4.76957 1.09787 1.58481e-17)
(-4.95281 0.894337 0)
(-5.04174 0.708325 0)
(-5.0698 0.550471 3.10619e-17)
(-5.04474 0.449926 -1.54341e-17)
(-4.96792 0.364593 3.06406e-17)
(-4.87132 0.279699 -3.04337e-17)
(-4.72794 0.231265 -1.51239e-17)
(-4.54827 0.163694 0)
(-4.32499 0.118567 -1.49246e-17)
(-4.08746 0.0726432 0)
(-3.82508 0.0711406 0)
(-3.57332 0.0807782 0)
(-3.31564 0.128125 -1.44862e-17)
(-3.07805 0.160705 0)
(-2.85334 0.173379 -2.85757e-17)
(-2.60568 0.198221 4.25588e-17)
(-2.38839 0.332677 1.40802e-17)
(-2.25602 0.470477 0)
(-2.01708 0.516309 1.38568e-17)
(-1.902 0.681396 0)
(-1.71701 0.662016 2.73222e-17)
(-1.55658 0.754847 0)
(-1.44909 0.956109 2.68005e-17)
(-1.31479 1.06132 -5.31352e-17)
(-1.15873 1.07882 -2.63883e-17)
(-1.01442 1.22476 0)
(-0.87288 1.42513 0)
(-0.717477 1.47315 0)
(-0.535217 1.6135 2.53596e-17)
(-0.354147 1.75999 0)
(-0.211696 1.89101 -2.48482e-17)
(-0.0261981 1.99473 0)
(0.188007 2.13861 7.30423e-17)
(0.394013 2.20266 2.41437e-17)
(0.602807 2.26754 2.3922e-17)
(0.862703 2.3181 0)
(1.11604 2.37843 0)
(1.36527 2.42149 0)
(1.64114 2.44096 0)
(1.8559 2.47103 0)
(2.09709 2.4641 4.53726e-17)
(2.38681 2.45882 4.48504e-17)
(2.65185 2.41081 0)
(2.85509 2.36779 -2.19022e-17)
(3.04268 2.32796 -2.16201e-17)
(3.19498 2.28435 0)
(3.31652 2.22205 -4.21443e-17)
(3.47688 2.14237 0)
(3.63579 2.10341 2.04808e-17)
(3.85069 2.07151 0)
(4.00551 2.05016 0)
(4.15392 2.03246 -3.95203e-17)
(4.31356 2.0176 0)
(4.4774 1.9308 1.94506e-17)
(4.70256 1.77128 0)
(4.95307 1.56235 0)
(5.34001 1.34241 1.91085e-17)
(5.7776 1.1953 1.90818e-17)
(6.20028 1.06918 0)
(6.71338 0.908229 -1.88817e-17)
(7.3113 0.84027 0)
(7.91274 0.684752 1.89423e-17)
(8.61085 0.412752 3.82777e-17)
(9.26149 0.322126 0)
(9.92393 0.204068 0)
(10.6748 0.0753198 0)
(11.3566 0.0488736 0)
(11.9053 -0.0259354 3.778e-17)
(12.6518 -0.240771 1.13715e-16)
(13.5401 -0.537651 0)
(14.7052 -0.789429 0)
(16.1893 -0.755231 0)
(17.3479 -0.721709 -3.52019e-17)
(18.003 -0.741219 0)
(18.6966 -0.876178 0)
(19.3393 -1.01349 6.75342e-17)
(20.0304 -1.3491 3.39997e-17)
(20.634 -1.34783 3.43945e-17)
(20.8223 -1.2366 0)
(20.6901 -1.0873 0)
(20.2628 -0.980527 3.47125e-17)
(19.5246 -0.715181 -3.46446e-17)
(18.1914 -0.477127 0)
(16.3701 -0.349959 0)
(14.2659 -0.398267 -3.37837e-17)
(13.2792 -0.883846 1.02419e-16)
(13.2487 -1.90351 0)
(14.5876 -3.03285 0)
(14.5031 -2.52912 3.21745e-17)
(15.335 -2.16276 0)
(13.1375 -2.46994 6.38182e-17)
(13.2568 -3.36014 -3.24e-17)
(16.7417 -4.73183 0)
(16.3685 -3.08813 3.03555e-17)
(15.213 -3.39855 6.07024e-17)
(16.5548 -4.01661 0)
(15.7984 -3.36393 0)
(14.1905 -4.05741 -2.96955e-17)
(17.2368 -5.11619 0)
(17.724 -3.71852 5.73509e-17)
(16.1148 -3.71379 0)
(15.9758 -4.1846 0)
(15.4664 -3.54376 0)
(13.6928 -3.31122 0)
(11.4303 -3.0351 -2.65191e-17)
(9.74304 -3.47473 -2.61285e-17)
(8.62888 -3.40279 0)
(6.27443 -3.09296 0)
(5.30468 -3.33813 0)
(4.57528 -3.13662 2.43038e-17)
(2.3163 -3.12292 0)
(2.03622 -3.1782 -4.69569e-17)
(-1.20225 -1.94707 4.63448e-17)
(-4.00287 -1.27879 4.81937e-17)
(-8.97723 -2.25806 4.81488e-17)
(-8.53314 -7.8913 4.7706e-17)
(2.13075 -5.31689 4.33899e-17)
(0.369843 -1.67096 0)
(0.116327 -3.36961 0)
(0.348781 -2.59935 0)
(0.510226 -2.50839 2.26029e-17)
(0.495445 -2.67616 2.23719e-17)
(0.481947 -3.04983 -2.22487e-17)
(0.657845 -3.78664 -2.22967e-17)
(1.03055 -4.69427 3.20466e-20)
(1.60976 -5.58027 0)
(2.10942 -6.41465 0)
(2.75649 -6.55765 0)
(3.37431 -6.83442 0)
(3.78987 -7.12927 0)
(4.40408 -6.64755 6.63e-17)
(4.82955 -6.45322 0)
(5.25877 -6.35788 -2.17758e-17)
(5.64631 -5.91222 -2.16476e-17)
(5.92086 -5.53944 0)
(6.33977 -5.24209 0)
(6.6692 -4.94897 0)
(6.92705 -4.6884 0)
(7.27043 -4.36886 -2.08381e-17)
(7.4382 -3.8965 0)
(7.76611 -3.61202 2.05311e-17)
(7.92122 -3.15657 0)
(7.95721 -2.66372 0)
(8.28106 -2.39946 0)
(8.03839 -1.77249 3.99161e-17)
(8.24478 -1.53866 0)
(8.01826 -0.947655 -1.97088e-17)
(7.64185 -0.709352 3.89791e-17)
(7.83985 -0.599602 0)
(7.15778 0.515598 0)
(7.47533 -0.395294 0)
(6.82619 -0.131628 -1.88723e-17)
(6.44701 0.285453 -1.87497e-17)
(6.34874 -0.347779 0)
(6.04223 -0.684243 0)
(5.50743 -1.25263 3.6124e-17)
(4.89412 -1.56669 3.58293e-17)
(4.92611 -2.15953 -3.57956e-17)
(5.09417 -2.71178 0)
(5.08354 -4.24162 0)
(5.45171 -4.77845 0)
(7.02222 -4.09362 0)
(7.31552 -4.31073 3.43975e-17)
(6.82354 -4.02577 3.4098e-17)
(6.58102 -2.43088 -3.41054e-17)
(5.34864 -0.512037 0)
(3.30481 0.92649 0)
(1.50906 1.82067 0)
(0.0356149 2.46275 0)
(-1.24165 2.83406 3.40107e-17)
(-2.26707 3.04512 0)
(-3.08534 3.17781 0)
(-3.69864 3.26466 3.32542e-17)
(-4.04695 3.17849 3.30502e-17)
(-4.30662 2.96497 0)
(-4.50717 2.69858 -6.52678e-17)
(-4.63483 2.36487 3.24657e-17)
(-4.77468 2.04058 -3.22885e-17)
(-4.85173 1.72617 0)
(-4.88506 1.40894 0)
(-4.87884 1.12214 0)
(-4.83784 0.873179 0)
(-4.74245 0.66587 -3.1395e-17)
(-4.62488 0.509991 -6.23287e-17)
(-4.45109 0.385174 -3.09826e-17)
(-4.26611 0.288732 3.07758e-17)
(-4.03905 0.202449 0)
(-3.80312 0.130282 -6.06872e-17)
(-3.55237 0.0598815 -6.02924e-17)
(-3.28016 0.0179753 -5.98941e-17)
(-3.0179 0.0130277 5.94839e-17)
(-2.74665 0.0409654 0)
(-2.47731 0.112274 8.79995e-17)
(-2.20647 0.18653 0)
(-1.98976 0.25408 -2.88774e-17)
(-1.73384 0.298633 -2.8748e-17)
(-1.52999 0.529295 0)
(-1.43833 0.706921 0)
(-1.1543 0.744326 -5.62252e-17)
(-1.07468 1.05964 0)
(-0.886768 1.12143 -5.54111e-17)
(-0.871481 1.33081 0)
(-0.76656 1.52728 5.45351e-17)
(-0.598763 1.71417 1.08229e-16)
(-0.550993 1.82113 0)
(-0.447596 2.05265 0)
(-0.307779 2.30348 0)
(-0.161216 2.41964 5.22781e-17)
(-0.0445013 2.62814 0)
(0.144133 2.84457 5.11505e-17)
(0.306536 3.06873 0)
(0.522764 3.20184 0)
(0.733259 3.42952 -9.90518e-17)
(0.973281 3.58015 0)
(1.20464 3.7365 -4.84429e-17)
(1.48911 3.78877 0)
(1.78425 3.85353 -4.73686e-17)
(2.0665 3.91461 0)
(2.40845 3.96503 0)
(2.62218 4.00739 0)
(2.82185 3.99462 -1.37477e-16)
(3.07052 3.98027 -4.54372e-17)
(3.41092 3.9679 0)
(3.74591 4.02057 0)
(4.04556 4.01005 0)
(4.31508 3.96647 0)
(4.48314 3.88932 4.27173e-17)
(4.65751 3.76535 -8.40901e-17)
(4.81696 3.63844 -4.13903e-17)
(4.99045 3.52718 8.12629e-17)
(5.13537 3.4663 8.00071e-17)
(5.28685 3.39163 3.94684e-17)
(5.46724 3.22159 0)
(5.68416 3.00653 7.64325e-17)
(5.98904 2.8508 0)
(6.34017 2.66486 -7.53856e-17)
(6.7972 2.41963 -3.79478e-17)
(7.25662 2.23686 0)
(7.67942 1.98736 7.7584e-17)
(8.1539 1.56448 3.89938e-17)
(8.68505 1.36994 0)
(9.18612 1.21711 3.82931e-17)
(9.84225 0.921742 -1.15626e-16)
(10.4355 0.767509 0)
(11.0087 0.542027 0)
(11.7015 0.335818 0)
(12.3936 0.366367 0)
(12.8088 0.263783 -7.88844e-17)
(13.4267 -0.307105 -8.01625e-17)
(14.3407 -0.851196 0)
(15.4808 -1.48214 0)
(17.0916 -1.61385 0)
(18.5003 -1.38324 0)
(19.5339 -1.10491 0)
(19.9843 -1.42399 0)
(20.6212 -1.50145 -6.6558e-17)
(20.8767 -1.62434 1.51964e-20)
(20.4739 -1.62062 0)
(20.057 -1.38912 0)
(19.3057 -1.297 -7.01587e-17)
(18.5992 -1.03705 0)
(17.7669 -0.59807 6.91973e-17)
(16.3368 -0.334541 6.80573e-17)
(15.2999 -0.214455 0)
(13.5201 -0.917614 0)
(12.4039 -2.51279 -6.99505e-17)
(12.3747 -4.09282 -1.38012e-16)
(14.2996 -5.08632 0)
(13.2139 -4.43896 0)
(15.7894 -3.744 0)
(13.0314 -4.11888 -6.53639e-17)
(13.3991 -6.59997 6.76132e-17)
(16.9907 -8.59736 0)
(16.8419 -4.79643 1.22328e-16)
(15.1223 -5.88306 6.37017e-17)
(17.8929 -7.03109 -1.22739e-16)
(16.7097 -5.20566 0)
(14.0576 -6.92433 0)
(17.8683 -9.82284 -1.34594e-16)
(19.4642 -6.30343 -5.97982e-17)
(17.2869 -6.0175 0)
(17.0854 -7.08431 0)
(17.3237 -6.02893 0)
(15.2518 -5.38602 0)
(12.3116 -4.86967 -1.03259e-16)
(10.3743 -5.62481 0)
(10.1457 -5.33944 0)
(7.79587 -4.8761 0)
(6.68307 -5.59601 0)
(6.22135 -5.33614 0)
(3.86065 -4.84237 0)
(2.96397 -4.84145 -9.01713e-17)
(-1.14953 -2.55612 0)
(-3.56927 -1.79935 0)
(-7.70941 -3.02662 -1.82941e-16)
(-8.07041 -11.9929 9.61184e-17)
(-2.73434 -9.14564 -8.34647e-17)
(-0.169417 -2.80847 9.00228e-17)
(0.0601215 -5.17887 0)
(0.163324 -4.47457 -4.64095e-17)
(0.276434 -4.10184 0)
(0.333001 -4.19944 -2.2547e-17)
(0.699684 -5.02453 0)
(1.32962 -6.26298 0)
(2.00008 -7.59403 2.29496e-17)
(2.76959 -8.41797 0)
(3.35443 -9.04895 0)
(3.71537 -9.43401 0)
(4.21411 -9.29425 0)
(4.33179 -9.14689 0)
(4.64359 -8.74952 -8.86925e-17)
(4.85039 -8.57244 -4.42008e-17)
(5.16888 -8.35896 4.35487e-17)
(5.51585 -7.80321 0)
(5.67312 -7.3794 0)
(6.04234 -7.08171 0)
(6.29703 -6.72471 0)
(6.5301 -6.3233 0)
(6.88512 -5.9089 -4.15577e-17)
(7.12848 -5.53154 -4.10761e-17)
(7.53411 -5.14483 4.08175e-17)
(7.75131 -4.56777 -4.065e-17)
(8.01603 -4.19282 0)
(8.25731 -3.45505 0)
(8.22993 -2.83766 -3.9767e-17)
(8.4257 -2.42509 0)
(8.05039 -1.47011 0)
(8.2678 -1.34586 -3.91458e-17)
(7.66858 -0.873802 -3.88529e-17)
(7.47957 -1.06124 -3.83458e-17)
(7.50023 -0.379492 0)
(6.91181 0.247269 0)
(7.46479 -0.866275 3.73287e-17)
(6.6724 -0.595681 0)
(6.58598 -0.997951 0)
(6.13099 -0.714271 -3.65065e-17)
(6.15764 -1.88033 3.5986e-17)
(5.71639 -3.46225 -3.57801e-17)
(5.84317 -3.13419 0)
(6.53895 -4.27155 0)
(5.96791 -6.16614 -6.96425e-17)
(5.4076 -4.73155 0)
(3.85469 -2.29355 -7.09159e-17)
(2.16078 -0.709907 -1.05578e-16)
(0.971242 0.592942 1.04989e-16)
(-0.180587 1.63937 -6.96581e-17)
(-1.25029 2.39345 0)
(-2.16596 2.97664 0)
(-2.99735 3.40926 -6.83106e-17)
(-3.60187 3.62821 -3.39391e-17)
(-4.00941 3.67927 0)
(-4.24913 3.61203 0)
(-4.42817 3.49087 -3.33923e-17)
(-4.5315 3.28047 -6.64123e-17)
(-4.56555 3.02816 0)
(-4.60159 2.77211 6.5754e-17)
(-4.62097 2.45308 -6.53518e-17)
(-4.59803 2.13529 6.50027e-17)
(-4.58084 1.78316 0)
(-4.5203 1.44453 0)
(-4.44924 1.11989 0)
(-4.35801 0.84202 0)
(-4.22105 0.60327 0)
(-4.06992 0.41152 6.26753e-17)
(-3.86904 0.256025 0)
(-3.64166 0.137203 0)
(-3.38093 0.0261713 0)
(-3.09488 -0.0528612 1.21872e-16)
(-2.80915 -0.107027 6.05477e-17)
(-2.51798 -0.137715 6.01233e-17)
(-2.23757 -0.133703 -1.19335e-16)
(-1.95311 -0.107506 5.92209e-17)
(-1.68175 -0.0307241 -5.89089e-17)
(-1.35954 0.0712102 0)
(-1.11094 0.185855 5.80958e-17)
(-0.81484 0.287637 0)
(-0.630123 0.642597 0)
(-0.461612 0.849236 0)
(-0.248377 0.891233 1.12924e-16)
(-0.173861 1.27868 -5.59586e-17)
(0.045702 1.44978 -5.54691e-17)
(0.023378 1.77435 -1.10134e-16)
(0.187416 1.95743 -1.64507e-16)
(0.234893 2.23834 -5.4385e-17)
(0.328937 2.44834 0)
(0.419063 2.72287 -1.06962e-16)
(0.476617 3.03912 0)
(0.644814 3.23879 -1.57918e-16)
(0.668007 3.49386 0)
(0.800173 3.77165 -1.55353e-16)
(0.943772 4.08541 0)
(1.0996 4.28787 0)
(1.23456 4.55454 -5.02868e-17)
(1.47808 4.73297 0)
(1.69726 4.96167 4.93702e-17)
(1.99207 5.12562 9.7646e-17)
(2.29749 5.21323 4.84896e-17)
(2.51389 5.26219 9.57417e-17)
(2.88043 5.36125 -9.44825e-17)
(3.21221 5.50228 -9.2943e-17)
(3.4867 5.50431 1.84874e-16)
(3.64923 5.40752 0)
(3.92211 5.286 0)
(4.17774 5.24781 8.96064e-17)
(4.4931 5.20919 -8.86256e-17)
(4.78079 5.18784 0)
(5.07044 5.14568 0)
(5.36488 5.04642 8.58181e-17)
(5.63578 4.96985 0)
(5.89902 4.82554 -1.46663e-19)
(6.14969 4.71823 -1.41975e-19)
(6.47296 4.56876 8.04434e-17)
(6.77708 4.41101 0)
(6.99921 4.15167 -7.88171e-17)
(7.32836 3.79521 0)
(7.72248 3.39439 7.65235e-17)
(8.19133 3.0053 0)
(8.60777 2.72639 0)
(9.04253 2.48067 -7.59003e-17)
(9.58154 2.09188 -7.69817e-17)
(10.0603 1.86629 0)
(10.4676 1.63916 -7.87176e-17)
(11.1048 1.17249 1.56689e-16)
(11.6906 0.92764 0)
(12.415 0.668279 0)
(12.9729 0.209053 0)
(13.6162 0.198101 0)
(14.2466 0.203843 7.80326e-17)
(14.5855 -0.615252 -1.59459e-16)
(15.115 -1.51329 0)
(15.7106 -2.49833 0)
(17.0326 -2.82643 0)
(18.4863 -2.57128 0)
(20.0892 -1.94688 0)
(20.8081 -1.86457 0)
(20.9272 -2.02921 0)
(21.127 -1.6667 6.70916e-17)
(20.2293 -1.40654 0)
(18.7529 -1.46943 0)
(17.6126 -1.31513 6.96893e-17)
(16.4607 -1.27429 0)
(15.2574 -1.05028 0)
(14.3219 -0.749785 -6.67351e-17)
(14.7499 -0.705093 0)
(14.754 -1.09602 0)
(14.5293 -2.97185 1.36046e-16)
(13.7647 -5.76362 1.36742e-16)
(14.3384 -7.06351 1.33339e-16)
(13.5358 -6.85231 0)
(15.4779 -5.95809 1.29148e-16)
(14.8244 -5.57339 0)
(13.8368 -9.50835 -1.33817e-16)
(16.7844 -12.4953 0)
(17.1324 -6.86382 -1.24024e-16)
(14.9818 -8.68395 4.65669e-19)
(18.8911 -10.7495 1.25342e-16)
(17.8019 -7.00268 -1.21225e-16)
(14.8196 -9.85667 1.38705e-16)
(16.8484 -15.5673 2.73683e-16)
(19.7288 -9.6435 0)
(17.5177 -8.37413 0)
(16.9938 -10.5562 0)