/*--------------------------------*- C++ -*----------------------------------*\
| =========                 |                                                 |
| \\      /  F ield         | OpenFOAM: The Open Source CFD Toolbox           |
|  \\    /   O peration     | Version:  dev                                   |
|   \\  /    A nd           | Web:      http://www.openfoam.org               |
|    \\/     M anipulation  |                                                 |
\*---------------------------------------------------------------------------*/
FoamFile
{
    version     2.0;
    format      ascii;
    class       volVectorField;
    object      U_0;
    location    "9.167";
}
// * * * * * * * * * * * * * * * * * * * * * * * * * * * * * * * * * * * * * //

dimensions      [0 1 -1 0 0 0 0];

internalField   nonuniform List<vector> 
12225
(
(6.48724 0.835942 0)
(2.64341 0.525269 0)
(-0.126363 0.36676 0)
(-1.02506 0.33354 0)
(-3.04765 0.360101 0)
(-2.87226 0.301132 0)
(-5.07763 0.410887 0)
(-4.27952 0.266435 0)
(-6.75318 0.449757 0)
(-5.30259 0.214342 0)
(-7.91216 0.506116 0)
(-5.98629 0.175997 0)
(-8.49276 0.486344 0)
(-6.08696 0.0465874 0)
(-7.44574 0.238304 0)
(-3.03941 -0.490993 0)
(9.21444 -0.153388 0)
(-4.78832 9.65187 0)
(8.78668 2.18224 0)
(7.79026 1.88217 0)
(4.01053 1.53252 0)
(4.18314 1.2993 0)
(-0.181986 1.25207 0)
(1.78657 1.13348 0)
(-3.28228 1.21301 0)
(0.174459 1.06 0)
(-5.85085 1.2822 0)
(-0.758498 0.872107 0)
(-7.48325 1.45303 0)
(-1.51503 0.605093 0)
(-8.01133 1.64577 0)
(-2.21063 -0.00874393 0)
(-8.291 1.52176 0)
(-3.2576 -3.44354 0)
(-5.30342 -0.531449 0)
(-12.455 4.02383 0)
(7.99054 2.75815 0)
(10.4104 2.72894 0)
(5.58424 2.49892 0)
(8.32472 2.30417 0)
(2.20712 2.24748 0)
(6.17602 2.14655 0)
(-0.658326 2.11461 0)
(4.47361 2.03825 0)
(-2.68135 2.22651 0)
(2.83436 1.6233 0)
(-3.44544 2.56653 0)
(0.786367 1.08085 0)
(-3.63563 2.75519 0)
(-1.5957 0.856259 0)
(-4.27729 3.02975 0)
(-5.33443 -1.31706 0)
(-4.64891 2.48399 0)
(-11.8152 1.65034 0)
(6.58394 3.68102 0)
(11.7125 3.47761 0)
(5.97259 3.42507 0)
(9.83363 3.19403 0)
(4.30122 3.34982 0)
(7.66494 3.01089 0)
(2.52122 3.30559 0)
(5.46204 2.76099 0)
(1.14037 3.4813 0)
(3.36966 2.30385 0)
(-0.0190419 3.88365 0)
(1.46901 1.68156 0)
(-0.95243 4.26888 0)
(-0.231498 0.844501 0)
(-1.36955 4.88242 0)
(-2.26279 -1.95128 0)
(-3.4283 2.16118 0)
(-12.2791 8.32979 0)
(7.34787 4.85237 0)
(9.71403 3.94801 0)
(7.09071 4.56029 0)
(7.68776 3.82808 0)
(6.0063 4.59675 0)
(5.71133 3.67713 0)
(4.63521 4.71117 0)
(3.58473 3.38879 0)
(3.22996 4.91529 0)
(1.93082 3.07691 0)
(2.00798 5.28155 0)
(0.581252 2.84328 0)
(1.03852 5.75546 0)
(-0.488009 2.33087 0)
(0.406175 7.15446 0)
(-0.994608 0.653394 0)
(-4.46633 7.79894 0)
(-9.12196 5.47045 0)
(9.04577 6.29989 0)
(7.78084 4.63681 0)
(7.85847 5.66542 0)
(6.21168 4.66493 0)
(6.24816 5.73866 0)
(4.43676 4.5703 0)
(4.5413 5.93424 0)
(2.70138 4.33171 0)
(3.1075 6.08429 0)
(1.77202 4.10334 0)
(2.10155 6.28808 0)
(0.880554 4.13741 0)
(1.26081 6.32879 0)
(0.0608659 3.85396 0)
(0.2323 6.56896 0)
(-0.63586 3.54604 0)
(-4.1479 7.70976 0)
(-2.78087 8.945 0)
(9.58498 7.64009 0)
(7.81617 5.5606 0)
(7.85015 7.10233 0)
(6.46822 5.52318 0)
(6.25979 7.33076 0)
(4.79257 5.43368 0)
(4.58568 7.64003 0)
(3.31205 5.1592 0)
(3.29092 7.65377 0)
(2.27949 4.93643 0)
(2.28587 7.78959 0)
(1.15807 5.08568 0)
(1.23479 7.91017 0)
(0.337894 5.00978 0)
(-0.10011 8.39582 0)
(-0.587383 5.07016 0)
(-2.56624 9.21782 0)
(-1.15681 9.77183 0)
(9.49678 8.68747 0)
(7.86207 6.39348 0)
(7.97642 8.04528 0)
(6.57622 6.50736 0)
(6.22609 8.20562 0)
(4.88437 6.57526 0)
(4.60532 8.33975 0)
(3.58951 6.46259 0)
(3.30589 8.21301 0)
(2.453 6.40823 0)
(2.08041 8.26105 0)
(1.24507 6.79709 0)
(0.96084 8.36139 0)
(0.661426 7.00207 0)
(-0.20285 8.61992 0)
(-0.194966 7.81076 0)
(-1.70328 9.47567 0)
(-0.543837 10.6974 0)
(9.53376 9.77417 0)
(7.76311 7.24651 0)
(7.69382 9.07901 0)
(6.4889 7.39207 0)
(6.13367 9.3298 0)
(5.04377 7.47549 0)
(4.6563 9.41736 0)
(3.826 7.3889 0)
(3.36282 9.23755 0)
(2.64459 7.4175 0)
(2.15527 9.30738 0)
(1.43088 7.67338 0)
(1.10063 9.50055 0)
(0.80121 8.01032 0)
(0.0561881 9.67801 0)
(0.00647783 8.82754 0)
(-0.74337 10.3103 0)
(-0.268352 11.3095 0)
(9.61319 10.7578 0)
(8.15809 8.31122 0)
(7.69951 10.0651 0)
(6.53224 8.55704 0)
(6.04945 10.1185 0)
(5.08916 8.80499 0)
(4.63131 10.0907 0)
(3.86792 8.85433 0)
(3.3112 9.95687 0)
(2.63836 9.06806 0)
(2.04502 10.0877 0)
(1.47414 9.30382 0)
(1.07598 10.345 0)
(0.863074 9.71412 0)
(0.211456 10.5294 0)
(0.180817 10.4926 0)
(-0.140487 11.1326 0)
(0.162464 11.9608 0)
(9.3846 12.0584 0)
(8.22933 9.6251 0)
(7.55338 11.1396 0)
(6.65424 9.85535 0)
(5.9455 11.2081 0)
(5.16972 10.0476 0)
(4.50701 11.1951 0)
(3.85922 10.1255 0)
(3.26695 11.1211 0)
(2.6052 10.3656 0)
(2.02796 11.1973 0)
(1.49914 10.6381 0)
(1.16829 11.4269 0)
(0.879819 11.0478 0)
(0.490313 11.5878 0)
(0.395259 11.7443 0)
(0.276059 12.2033 0)
(0.540171 12.7014 0)
(9.43576 13.2036 0)
(8.4476 10.9247 0)
(7.54161 12.0107 0)
(6.71244 11.3046 0)
(5.89869 12.1895 0)
(5.1392 11.6697 0)
(4.42234 12.2299 0)
(3.79602 11.8705 0)
(3.18188 12.1745 0)
(2.64033 11.9888 0)
(2.10875 12.2771 0)
(1.69734 12.2362 0)
(1.37164 12.5897 0)
(1.06365 12.5415 0)
(0.799052 12.8691 0)
(0.669359 13.1083 0)
(0.63539 13.4208 0)
(0.856819 13.7512 0)
(9.31275 14.4799 0)
(8.42795 12.4802 0)
(7.44857 13.1924 0)
(6.65638 12.8381 0)
(5.83589 13.3041 0)
(5.13186 13.1364 0)
(4.4703 13.4575 0)
(3.81614 13.3553 0)
(3.27885 13.5086 0)
(2.75815 13.4354 0)
(2.26536 13.6105 0)
(1.8391 13.7173 0)
(1.50795 13.8623 0)
(1.19397 13.9708 0)
(0.976148 14.1855 0)
(0.853736 14.3992 0)
(0.822727 14.6451 0)
(1.06068 14.8967 0)
(9.45428 15.7302 0)
(8.47888 13.992 0)
(7.47067 14.2264 0)
(6.66413 14.2331 0)
(5.94539 14.3954 0)
(5.27265 14.5072 0)
(4.61929 14.6388 0)
(3.95213 14.7387 0)
(3.36252 14.8472 0)
(2.89675 14.8857 0)
(2.46717 15.0161 0)
(2.07581 15.1432 0)
(1.75458 15.2822 0)
(1.52134 15.4065 0)
(1.33668 15.5587 0)
(1.24462 15.7053 0)
(1.23401 15.9093 0)
(1.42097 16.0829 0)
(9.36071 17.1171 0)
(8.57949 15.3367 0)
(7.70469 15.2419 0)
(6.85594 15.3503 0)
(6.07829 15.5327 0)
(5.37328 15.7213 0)
(4.70434 15.8576 0)
(4.05726 15.9391 0)
(3.44395 16.0638 0)
(2.95184 16.1481 0)
(2.52008 16.2437 0)
(2.16857 16.365 0)
(1.87478 16.512 0)
(1.67768 16.6411 0)
(1.55691 16.7692 0)
(1.52782 16.8912 0)
(1.52871 17.014 0)
(1.71858 17.1324 0)
(9.52965 18.1961 0)
(8.65699 16.2972 0)
(7.72244 16.2129 0)
(6.84192 16.3291 0)
(6.06145 16.4547 0)
(5.40502 16.5788 0)
(4.80753 16.7048 0)
(4.27565 16.8423 0)
(3.69977 17.0053 0)
(3.20813 17.1626 0)
(2.7909 17.2764 0)
(2.45879 17.3728 0)
(2.16815 17.4748 0)
(1.98977 17.569 0)
(1.85492 17.6694 0)
(1.81617 17.7438 0)
(1.79782 17.851 0)
(1.96614 17.976 0)
(9.54431 18.6991 0)
(8.66912 16.8146 0)
(7.78193 16.691 0)
(6.96671 16.7256 0)
(6.17229 16.7852 0)
(5.45119 16.8806 0)
(4.77955 17.0098 0)
(4.21223 17.1776 0)
(3.66402 17.3371 0)
(3.19196 17.5289 0)
(2.766 17.7091 0)
(2.45944 17.8451 0)
(2.19497 17.9794 0)
(2.00623 18.0905 0)
(1.84189 18.1978 0)
(1.77795 18.2998 0)
(1.69722 18.3765 0)
(1.82519 18.4652 0)
(9.58536 18.4785 0)
(8.87872 16.4966 0)
(8.05167 16.3469 0)
(7.26124 16.4524 0)
(6.48924 16.6036 0)
(5.7636 16.7273 0)
(5.05611 16.8195 0)
(4.44659 16.9559 0)
(3.88694 17.0512 0)
(3.43584 17.1665 0)
(3.0366 17.3187 0)
(2.70414 17.4423 0)
(2.41718 17.6227 0)
(2.21477 17.7472 0)
(2.03007 17.8803 0)
(1.95903 17.986 0)
(1.86808 18.07 0)
(1.96431 18.1806 0)
(9.60634 17.3543 0)
(8.91102 15.531 0)
(8.05166 15.3196 0)
(7.23577 15.3904 0)
(6.49821 15.5532 0)
(5.85933 15.6726 0)
(5.2608 15.7562 0)
(4.73758 15.874 0)
(4.23724 15.9492 0)
(3.79179 16.0783 0)
(3.38033 16.2307 0)
(3.02735 16.38 0)
(2.69919 16.5821 0)
(2.43619 16.7418 0)
(2.21464 16.8998 0)
(2.12367 16.9993 0)
(2.04026 17.0712 0)
(2.14384 17.1474 0)
(9.47531 15.6785 0)
(8.85501 14.0586 0)
(8.12857 13.8907 0)
(7.41199 13.9725 0)
(6.74375 14.0834 0)
(6.16915 14.1488 0)
(5.57843 14.2254 0)
(5.01902 14.3231 0)
(4.48239 14.4304 0)
(3.99341 14.5916 0)
(3.57798 14.7472 0)
(3.25077 14.9146 0)
(2.99981 15.0544 0)
(2.7888 15.1905 0)
(2.57362 15.32 0)
(2.47433 15.397 0)
(2.37253 15.468 0)
(2.40783 15.5159 0)
(9.52845 13.8663 0)
(9.03431 12.2819 0)
(8.43363 12.1055 0)
(7.81179 12.151 0)
(7.17989 12.2272 0)
(6.57525 12.3618 0)
(5.92715 12.5007 0)
(5.32532 12.6149 0)
(4.76385 12.7387 0)
(4.27762 12.8339 0)
(3.86343 12.9432 0)
(3.52211 13.0837 0)
(3.25082 13.1853 0)
(3.05787 13.321 0)
(2.86466 13.458 0)
(2.71652 13.6056 0)
(2.59483 13.7238 0)
(2.58574 13.8076 0)
(9.60315 11.9854 0)
(9.11423 10.5309 0)
(8.51511 10.3247 0)
(7.9177 10.3854 0)
(7.33169 10.4961 0)
(6.72126 10.6637 0)
(6.11811 10.7921 0)
(5.53223 10.8661 0)
(4.95759 10.9707 0)
(4.45495 11.0522 0)
(3.9966 11.1518 0)
(3.60986 11.2796 0)
(3.28679 11.3905 0)
(3.05566 11.5253 0)
(2.91057 11.5966 0)
(2.77649 11.7091 0)
(2.67812 11.7944 0)
(2.66118 11.8698 0)
(9.76872 10.1634 0)
(9.45143 8.79858 0)
(8.88212 8.53276 0)
(8.24489 8.54687 0)
(7.59752 8.67116 0)
(6.96319 8.8188 0)
(6.37615 8.97293 0)
(5.79943 9.11162 0)
(5.25344 9.22312 0)
(4.73473 9.32058 0)
(4.26897 9.40036 0)
(3.87207 9.48687 0)
(3.54454 9.56269 0)
(3.28431 9.65217 0)
(3.11421 9.72539 0)
(2.99406 9.79068 0)
(2.88982 9.86742 0)
(2.83299 9.96472 0)
(9.80002 8.23226 0)
(9.55556 7.09962 0)
(9.05812 6.89325 0)
(8.45434 6.94009 0)
(7.77772 7.06362 0)
(7.11049 7.20364 0)
(6.48239 7.34171 0)
(5.91494 7.45625 0)
(5.40231 7.5557 0)
(4.92469 7.64711 0)
(4.50518 7.71334 0)
(4.11585 7.8017 0)
(3.78414 7.87243 0)
(3.51182 7.94554 0)
(3.29716 8.01538 0)
(3.15152 8.06078 0)
(3.04277 8.09949 0)
(2.97717 8.16135 0)
(9.75731 6.60668 0)
(9.73119 5.51541 0)
(9.34041 5.30212 0)
(8.74156 5.38417 0)
(8.00661 5.5229 0)
(7.27355 5.66063 0)
(6.61023 5.774 0)
(6.0374 5.86022 0)
(5.52804 5.93976 0)
(5.07512 6.01892 0)
(4.65029 6.08617 0)
(4.26829 6.16671 0)
(3.93348 6.2346 0)
(3.6477 6.3088 0)
(3.42776 6.37306 0)
(3.26264 6.4357 0)
(3.16424 6.4713 0)
(3.11512 6.51834 0)
(9.73744 4.87145 0)
(9.73711 3.90853 0)
(9.29159 3.83952 0)
(8.67793 4.00187 0)
(8.0246 4.1818 0)
(7.4116 4.31467 0)
(6.84535 4.39326 0)
(6.30508 4.44582 0)
(5.78712 4.50491 0)
(5.28687 4.57961 0)
(4.79677 4.64626 0)
(4.33904 4.72346 0)
(3.92086 4.77987 0)
(3.5688 4.82928 0)
(3.27998 4.87584 0)
(3.05644 4.91784 0)
(2.89675 4.95686 0)
(2.82002 4.99326 0)
(9.95657 3.41702 0)
(9.96489 2.64692 0)
(9.57213 2.58404 0)
(8.94731 2.69934 0)
(8.22109 2.82292 0)
(7.46646 2.92485 0)
(6.74197 3.01867 0)
(6.03657 3.09751 0)
(5.3776 3.18087 0)
(4.76872 3.27781 0)
(4.21079 3.3531 0)
(3.72115 3.4453 0)
(3.28691 3.49283 0)
(2.9113 3.53457 0)
(2.58835 3.56458 0)
(2.31226 3.58753 0)
(2.09161 3.61565 0)
(1.92543 3.64111 0)
(9.65771 1.9677 0)
(9.90158 1.31872 0)
(9.43139 1.39745 0)
(8.54411 1.59955 0)
(7.54112 1.78564 0)
(6.5266 1.91217 0)
(5.55592 2.01549 0)
(4.61484 2.07649 0)
(3.75001 2.12879 0)
(2.98162 2.19315 0)
(2.30267 2.24743 0)
(1.69882 2.29828 0)
(1.19862 2.33746 0)
(0.745955 2.36682 0)
(0.36912 2.39886 0)
(0.0355226 2.42638 0)
(-0.227661 2.44541 0)
(-0.453239 2.46473 0)
(9.94429 0.620672 0)
(9.46378 0.235978 0)
(8.01931 0.435773 0)
(6.29113 0.669657 0)
(4.73705 0.885792 0)
(3.39124 1.04234 0)
(2.21499 1.14818 0)
(1.17967 1.21114 0)
(0.276646 1.25033 0)
(-0.493177 1.29112 0)
(-1.17939 1.31586 0)
(-1.76704 1.33682 0)
(-2.25091 1.36583 0)
(-2.6868 1.37845 0)
(-3.02956 1.39876 0)
(-3.33821 1.40466 0)
(-3.56971 1.4055 0)
(-3.78149 1.41298 0)
(8.37644 -0.0365491 0)
(5.45662 0.0159648 0)
(2.88298 0.259654 0)
(0.945197 0.392212 0)
(-0.401101 0.43736 0)
(-1.41652 0.443924 0)
(-2.26206 0.43975 0)
(-2.99391 0.435759 0)
(-3.65129 0.429877 0)
(-4.24052 0.433685 0)
(-4.77499 0.435516 0)
(-5.23393 0.4433 0)
(-5.62623 0.44969 0)
(-5.9599 0.452988 0)
(-6.23163 0.457253 0)
(-6.45729 0.461125 0)
(-6.63616 0.456939 0)
(-6.79243 0.477442 0)
(-0.138045 0.220606 0)
(-0.595705 -0.0992375 0)
(-0.960697 -0.205681 0)
(-1.25127 -0.235245 0)
(-1.36498 -0.35805 0)
(-1.34258 -0.494533 0)
(-1.13112 -0.661461 1.11747e-17)
(-0.75754 -0.836982 -1.11116e-17)
(-0.201104 -0.951807 0)
(0.477993 -1.07124 -1.0986e-17)
(1.25648 -1.1314 0)
(2.08325 -1.08461 0)
(2.87443 -1.07733 0)
(3.65909 -1.09112 1.07081e-17)
(4.45324 -1.00034 0)
(5.19628 -0.844885 0)
(5.80892 -0.742775 -1.04858e-17)
(6.31755 -0.693042 0)
(6.79071 -0.662653 0)
(7.19228 -0.616034 0)
(7.56802 -0.513578 1.02055e-17)
(7.86213 -0.431684 0)
(8.04604 -0.319122 1.00587e-17)
(8.18608 -0.196092 0)
(8.17355 -0.106228 0)
(8.09308 0.0255306 9.85388e-18)
(7.87002 0.114462 0)
(7.53259 0.21946 -9.72079e-18)
(7.14591 0.328207 0)
(6.55699 0.368938 9.5784e-18)
(5.96091 0.514174 0)
(5.24345 0.552071 0)
(4.46823 0.217222 0)
(3.93503 -0.364346 0)
(3.60436 -0.745692 0)
(3.45215 -0.67647 -9.27611e-18)
(3.47944 -0.538126 0)
(3.67431 -0.457196 1.82162e-17)
(3.97809 -0.405328 0)
(4.29961 -0.429158 -1.79589e-17)
(4.7711 -0.513344 0)
(5.4572 -0.581046 0)
(6.05172 -0.53995 1.7561e-17)
(6.57652 -0.693539 0)
(7.30234 -0.719305 1.7158e-17)
(7.91652 -0.239167 -1.71424e-17)
(7.93331 0.281783 0)
(7.75811 0.576819 -1.68782e-17)
(7.89463 0.663964 -1.67275e-17)
(8.36587 0.216267 0)
(8.82536 -0.962322 0)
(9.08248 -2.14419 0)
(9.45887 -2.43997 0)
(9.67618 -1.41847 0)
(8.79229 0.167626 1.6707e-17)
(7.16262 1.00448 0)
(5.59145 1.08819 -1.64509e-17)
(4.24474 0.958512 0)
(3.09714 0.810492 0)
(2.08922 0.685485 1.60588e-17)
(1.24151 0.582348 0)
(0.519694 0.508267 -1.58275e-17)
(-0.0847573 0.439251 0)
(-0.55432 0.367904 0)
(-0.936809 0.284381 0)
(-1.23327 0.219072 1.53858e-17)
(-1.42788 0.169115 0)
(-1.61557 0.117992 0)
(-1.74142 0.101802 1.50652e-17)
(-1.81466 0.069242 0)
(-1.84421 0.0551083 1.48567e-17)
(-1.82561 0.0197803 0)
(-1.79009 6.14772e-06 0)
(-1.74444 -0.0141563 0)
(-1.67857 -0.00684148 -1.44411e-17)
(-1.59207 0.00221356 0)
(-1.52249 -0.00651474 0)
(-1.43482 -0.0144106 -1.41282e-17)
(-1.32346 0.00380147 -1.40213e-17)
(-1.28332 0.0389306 0)
(-1.23436 0.0507193 -1.38082e-17)
(-1.22006 0.0963968 0)
(-1.20326 0.0852443 -2.72126e-17)
(-1.11433 0.0837863 0)
(-1.0783 0.15383 -2.67711e-17)
(-1.10968 0.190877 0)
(-1.07412 0.177217 2.63628e-17)
(-1.04021 0.218177 0)
(-1.05751 0.290766 0)
(-1.03713 0.297956 0)
(-1.01707 0.335886 -2.55111e-17)
(-1.03554 0.378597 0)
(-1.07075 0.424196 2.50995e-17)
(-1.06225 0.458689 0)
(-1.04098 0.481314 -2.46995e-17)
(-1.05295 0.499629 -2.45019e-17)
(-1.06092 0.521905 -2.43036e-17)
(-1.0101 0.548963 0)
(-0.948946 0.566044 0)
(-0.867583 0.577311 0)
(-0.760998 0.579271 0)
(-0.675262 0.58384 0)
(-0.568449 0.563831 0)
(-0.43358 0.556908 0)
(-0.273565 0.554694 0)
(-0.0869488 0.548698 2.2463e-17)
(0.121491 0.54979 2.22523e-17)
(0.338799 0.537888 0)
(0.539469 0.52648 0)
(0.804546 0.532392 0)
(1.08609 0.521411 2.14276e-17)
(1.36372 0.523782 0)
(1.5863 0.512571 0)
(1.7902 0.513164 0)
(1.97756 0.489709 0)
(2.12478 0.468485 -2.04523e-17)
(2.34821 0.446835 0)
(2.6235 0.428908 0)
(3.02231 0.394439 1.99702e-17)
(3.51276 0.382098 -1.98486e-17)
(3.99072 0.309243 0)
(4.49755 0.230797 -1.9634e-17)
(5.0645 0.191698 0)
(5.64331 0.159923 1.95705e-17)
(6.32545 0.132959 0)
(6.98523 0.131268 0)
(7.61018 0.126542 0)
(8.27214 0.0879446 0)
(8.88286 0.0677535 0)
(9.44121 0.0660971 -3.78544e-17)
(10.0173 0.0162653 -3.76212e-17)
(10.7151 -0.017925 0)
(11.6461 -0.0702931 0)
(12.6132 -0.127789 0)
(13.3474 -0.188702 3.65016e-17)
(14.0217 -0.214962 0)
(14.7594 -0.327672 0)
(15.4399 -0.340173 0)
(16.3118 -0.407271 3.58415e-17)
(17.2097 -0.44207 -3.57762e-17)
(17.9702 -0.431005 0)
(18.4907 -0.377321 0)
(18.675 -0.325087 -3.52665e-17)
(18.5738 -0.224743 -3.50085e-17)
(18.0361 -0.150445 0)
(17.0827 -0.131507 0)
(15.9072 -0.163767 3.41853e-17)
(14.7395 -0.145826 -3.39748e-17)
(13.9499 -0.235778 0)
(14.344 -0.520991 0)
(14.6868 -0.431958 -3.28283e-17)
(14.272 -0.426985 0)
(13.1015 -0.474384 0)
(12.5784 -0.453582 -3.20136e-17)
(14.0734 -0.991505 0)
(13.9183 -0.55695 -3.13079e-17)
(13.0469 -0.559067 0)
(13.2476 -0.814693 0)
(12.5285 -0.742937 0)
(11.8511 -0.6889 2.9908e-17)
(13.0681 -0.961051 0)
(12.7898 -0.576997 0)
(11.7556 -0.673658 0)
(11.5118 -0.781172 0)
(10.8362 -0.686338 0)
(9.67594 -0.644797 0)
(8.22912 -0.510377 2.8123e-17)
(7.05895 -0.610795 2.77269e-17)
(6.33465 -0.573774 0)
(5.01368 -0.453376 0)
(4.0792 -0.520027 0)
(3.81235 -0.605198 -2.66632e-17)
(2.31781 -0.757603 0)
(3.02941 -0.78788 5.22371e-17)
(1.43173 -0.19215 -5.23103e-17)
(-0.516627 -0.055823 -5.22005e-17)
(-4.46225 -0.0971595 5.142e-17)
(-3.88124 -1.31893 -4.97593e-17)
(4.01817 -0.343485 4.8926e-17)
(0.241353 -0.03739 0)
(0.204263 -0.374436 0)
(0.246978 0.0997191 0)
(0.164475 -0.143115 -2.2639e-17)
(0.0798639 -0.595836 0)
(0.0315614 -1.03605 2.24775e-17)
(0.101488 -1.50214 2.23739e-17)
(0.343205 -2.05547 1.11704e-17)
(0.808571 -2.62578 1.11207e-17)
(1.42516 -3.02479 0)
(2.14252 -3.28121 1.10663e-17)
(2.87872 -3.68098 0)
(3.7028 -3.57645 0)
(4.54082 -3.29864 -2.18386e-17)
(5.23964 -3.42468 -1.08417e-17)
(5.95044 -3.41913 2.15592e-17)
(6.61381 -3.11162 2.14242e-17)
(7.19614 -2.74804 1.06186e-17)
(7.7669 -2.49547 0)
(8.27198 -2.34078 0)
(8.68386 -2.16199 0)
(9.11325 -2.03677 1.03451e-17)
(9.42036 -1.80286 0)
(9.6592 -1.51086 -3.05432e-17)
(9.96687 -1.29174 0)
(10.0083 -0.914144 0)
(10.1274 -0.72563 -9.92685e-18)
(10.0721 -0.446294 0)
(9.89145 -0.0936442 9.80872e-18)
(9.81371 0.0267841 1.9439e-17)
(9.38814 0.533751 -9.69118e-18)
(9.25441 0.482805 0)
(8.66146 0.669787 0)
(8.31812 1.04786 0)
(7.98749 0.611717 1.86773e-17)
(7.08886 0.526875 1.84569e-17)
(6.42005 0.0719857 9.19489e-18)
(5.82741 -0.70415 0)
(5.44524 -1.27854 -1.80245e-17)
(5.28566 -1.57994 0)
(5.32762 -1.71187 1.74908e-17)
(5.5747 -2.01129 0)
(6.0605 -2.51512 0)
(6.97309 -1.9497 -1.71573e-17)
(7.89282 -1.63268 0)
(8.37049 -2.07834 -4.9896e-17)
(9.15355 -1.49258 1.64789e-17)
(10.1512 -0.641778 0)
(10.5011 -1.16685 1.66238e-17)
(10.2437 -2.32189 1.61518e-17)
(10.047 -2.16389 0)
(8.87927 -0.707437 0)
(6.36721 0.7331 0)
(3.9239 1.55182 0)
(2.27069 2.06635 0)
(1.01839 2.37714 -1.66506e-17)
(0.0136601 2.36778 -3.30263e-17)
(-0.810581 2.17478 1.63906e-17)
(-1.5402 1.88014 0)
(-2.15879 1.59291 -3.23233e-17)
(-2.75253 1.30265 1.60501e-17)
(-3.1938 1.04904 0)
(-3.51744 0.788835 1.58556e-17)
(-3.75215 0.560898 0)
(-3.8932 0.350878 0)
(-3.97303 0.16847 3.1082e-17)
(-4.00534 0.0433998 -1.54444e-17)
(-3.98624 -0.0605158 3.06621e-17)
(-3.94259 -0.165493 -3.04558e-17)
(-3.85303 -0.233479 -1.5136e-17)
(-3.72647 -0.31936 0)
(-3.55573 -0.383259 -1.49377e-17)
(-3.36903 -0.448091 0)
(-3.15441 -0.467909 0)
(-2.94799 -0.476622 0)
(-2.73295 -0.447253 -1.44961e-17)
(-2.53546 -0.431909 0)
(-2.34827 -0.436976 -2.86029e-17)
(-2.13573 -0.430323 4.26061e-17)
(-1.9511 -0.314473 1.40998e-17)
(-1.85004 -0.195223 0)
(-1.63792 -0.168154 1.38795e-17)
(-1.55621 -0.0185602 0)
(-1.41301 -0.051122 2.73751e-17)
(-1.29021 0.0230261 0)
(-1.22254 0.208387 2.68646e-17)
(-1.13188 0.295083 -5.32477e-17)
(-1.02503 0.291505 -2.6464e-17)
(-0.936527 0.420144 0)
(-0.855352 0.60463 0)
(-0.768466 0.634979 0)
(-0.663174 0.760382 2.54598e-17)
(-0.569399 0.891323 0)
(-0.522426 1.00477 -2.49594e-17)
(-0.43782 1.09654 0)
(-0.335862 1.22605 7.33712e-17)
(-0.254157 1.28567 2.427e-17)
(-0.180616 1.35692 2.40524e-17)
(-0.0551002 1.41766 0)
(0.0650531 1.48424 0)
(0.188393 1.53146 0)
(0.356318 1.55552 0)
(0.468329 1.59099 0)
(0.616509 1.5894 4.56025e-17)
(0.827883 1.59262 4.50783e-17)
(1.02692 1.55567 0)
(1.17905 1.52734 -2.20283e-17)
(1.32776 1.4954 -2.17429e-17)
(1.45207 1.46738 0)
(1.56043 1.42028 -4.23445e-17)
(1.72259 1.35767 0)
(1.89421 1.33665 2.0559e-17)
(2.13071 1.32358 0)
(2.31032 1.32177 0)
(2.48917 1.32481 -3.96816e-17)
(2.68051 1.32792 0)
(2.88234 1.25625 1.95342e-17)
(3.1529 1.11323 0)
(3.45492 0.920854 0)
(3.89956 0.722565 1.91711e-17)
(4.39433 0.595529 1.91582e-17)
(4.87629 0.490209 0)
(5.44734 0.353866 -1.89381e-17)
(6.0928 0.314147 0)
(6.72624 0.172506 1.90055e-17)
(7.44319 -0.087196 3.84068e-17)
(8.10681 -0.157528 0)
(8.78528 -0.241572 0)
(9.552 -0.324381 0)
(10.239 -0.310928 0)
(10.7913 -0.362343 3.7858e-17)
(11.5515 -0.557127 1.13882e-16)
(12.4628 -0.817156 0)
(13.6588 -1.00539 0)
(15.1426 -0.903916 0)
(16.2396 -0.820152 -3.51266e-17)
(16.8289 -0.799166 0)
(17.4782 -0.898066 0)
(18.0748 -1.01138 6.75391e-17)
(18.7282 -1.30594 3.40212e-17)
(19.2906 -1.23542 3.4433e-17)
(19.4099 -1.05119 0)
(19.2171 -0.835598 0)
(18.7547 -0.672504 3.45888e-17)
(17.9503 -0.333318 -3.45194e-17)
(16.5509 -0.0444249 0)
(14.7171 0.117334 0)
(12.5986 0.104996 -3.36334e-17)
(11.6197 -0.325179 1.0187e-16)
(11.6231 -1.27714 0)
(12.913 -2.27923 0)
(12.7579 -1.66767 3.18862e-17)
(13.4496 -1.28051 0)
(11.1434 -1.58358 6.32816e-17)
(11.3125 -2.39474 -3.20447e-17)
(14.6059 -3.56038 0)
(13.951 -1.95469 3.0007e-17)
(12.7753 -2.27056 5.99523e-17)
(14.0287 -2.77973 0)
(13.1788 -2.19863 0)
(11.7317 -2.86707 -2.92948e-17)
(14.7821 -3.68537 0)
(15.1309 -2.33282 5.641e-17)
(13.7102 -2.40742 0)
(13.8216 -2.77357 0)
(13.4279 -2.11686 0)
(11.9012 -1.97981 0)
(10.0892 -1.78943 -2.61661e-17)
(8.9098 -2.23287 -2.57769e-17)
(8.22265 -2.16892 0)
(6.35162 -1.95962 0)
(5.8949 -2.22323 0)
(5.58499 -2.05721 2.40119e-17)
(3.76002 -2.18522 0)
(3.98776 -2.33304 -4.64608e-17)
(1.23189 -1.21637 4.5839e-17)
(-0.965803 -0.540698 4.76566e-17)
(-5.62802 -1.50779 4.76276e-17)
(-5.19139 -7.02379 4.72093e-17)
(5.25102 -4.5047 4.30401e-17)
(3.80665 -1.1644 0)
(0.187682 -2.10924 0)
(0.537551 -1.35051 0)
(0.815201 -1.28169 2.24903e-17)
(0.918756 -1.45988 2.22742e-17)
(1.02796 -1.83085 -2.21386e-17)
(1.32628 -2.5612 -2.21852e-17)
(1.81864 -3.45774 4.47697e-20)
(2.51458 -4.34263 0)
(3.12575 -5.16601 0)
(3.89529 -5.30349 0)
(4.62066 -5.61127 0)
(5.15038 -5.89767 0)
(5.88574 -5.41373 6.60158e-17)
(6.41129 -5.26082 0)
(6.94585 -5.17265 -2.16758e-17)
(7.43312 -4.73401 -2.15454e-17)
(7.80761 -4.39492 0)
(8.33488 -4.11576 0)
(8.74744 -3.84446 0)
(9.09127 -3.60193 0)
(9.51312 -3.28366 -2.07531e-17)
(9.75329 -2.83723 0)
(10.1582 -2.57114 2.04561e-17)
(10.357 -2.12245 0)
(10.4642 -1.66904 0)
(10.8186 -1.41464 0)
(10.6071 -0.816109 3.97982e-17)
(10.8547 -0.608461 0)
(10.6268 -0.0377034 -1.96441e-17)
(10.3072 0.137035 3.88582e-17)
(10.4859 0.292597 0)
(9.84915 1.30765 0)
(10.1487 0.3061 0)
(9.44566 0.658074 -1.8825e-17)
(9.10658 0.9662 -1.86976e-17)
(8.96764 0.251016 0)
(8.62023 -0.0999322 0)
(8.04368 -0.705507 3.60513e-17)
(7.43789 -1.05494 3.5786e-17)
(7.4837 -1.68576 -3.57569e-17)
(7.5957 -2.33872 0)
(7.50619 -3.90313 0)
(7.92606 -4.31537 0)
(9.4506 -3.68948 0)
(9.56087 -4.01884 3.43315e-17)
(9.00505 -3.68741 3.40685e-17)
(8.68696 -2.044 -3.41157e-17)
(7.29972 -0.17882 0)
(5.1653 1.14144 0)
(3.34721 1.93564 0)
(1.86041 2.50055 0)
(0.527229 2.80123 3.40119e-17)
(-0.559426 2.9673 0)
(-1.41909 3.06595 0)
(-2.0791 3.1026 3.32638e-17)
(-2.47772 2.95044 3.3053e-17)
(-2.79421 2.6807 0)
(-3.05332 2.36563 -6.52985e-17)
(-3.23809 1.98674 3.24757e-17)
(-3.43355 1.61959 -3.23001e-17)
(-3.56619 1.26378 0)
(-3.65353 0.906555 0)
(-3.70201 0.580178 0)
(-3.71675 0.291315 0)
(-3.67744 0.0435266 -3.14135e-17)
(-3.61143 -0.152067 -6.23694e-17)
(-3.48958 -0.310651 -3.10041e-17)
(-3.3612 -0.440449 3.07984e-17)
(-3.18906 -0.559396 0)
(-3.00721 -0.663804 -6.07279e-17)
(-2.80917 -0.766226 -6.0333e-17)
(-2.58719 -0.839521 -5.99348e-17)
(-2.37307 -0.87524 5.95247e-17)
(-2.14774 -0.877768 0)
(-1.92085 -0.836592 8.80713e-17)
(-1.68984 -0.790827 0)
(-1.51003 -0.752407 -2.88879e-17)
(-1.28923 -0.737046 -2.87844e-17)
(-1.11814 -0.536798 0)
(-1.05835 -0.389172 0)
(-0.805161 -0.380071 -5.6285e-17)
(-0.752886 -0.0965907 0)
(-0.601481 -0.066437 -5.5483e-17)
(-0.628551 0.117768 0)
(-0.564773 0.288239 5.46241e-17)
(-0.442735 0.444372 1.08469e-16)
(-0.445294 0.518104 0)
(-0.39724 0.7212 0)
(-0.316966 0.945433 0)
(-0.238524 1.03104 5.24214e-17)
(-0.201539 1.21485 0)
(-0.102534 1.40955 5.13185e-17)
(-0.031154 1.61286 0)
(0.0804475 1.72646 0)
(0.179935 1.93953 -9.95047e-17)
(0.30966 2.07641 0)
(0.417066 2.22958 -4.86591e-17)
(0.568422 2.29382 0)
(0.72927 2.37107 -4.7596e-17)
(0.888478 2.44463 0)
(1.12177 2.50133 0)
(1.23231 2.5527 0)
(1.33317 2.54582 -1.38201e-16)
(1.5005 2.54246 -4.5717e-17)
(1.77526 2.54536 0)
(2.05923 2.61998 0)
(2.31755 2.62786 0)
(2.56418 2.61038 0)
(2.72257 2.55851 4.29662e-17)
(2.9021 2.46174 -8.44761e-17)
(3.08166 2.36742 -4.16195e-17)
(3.28517 2.29014 8.16216e-17)
(3.46549 2.2641 8.03484e-17)
(3.65593 2.22355 3.96646e-17)
(3.88142 2.09055 0)
(4.14566 1.91029 7.67245e-17)
(4.50312 1.78817 0)
(4.90556 1.62993 -7.56769e-17)
(5.40697 1.4124 -3.81262e-17)
(5.90203 1.25389 0)
(6.36079 1.02324 7.78861e-17)
(6.88228 0.634053 3.91429e-17)
(7.46845 0.500288 0)
(8.01189 0.39597 3.83948e-17)
(8.6909 0.143408 -1.16033e-16)
(9.29793 0.0240614 0)
(9.87925 -0.162837 0)
(10.5773 -0.309972 0)
(11.2646 -0.212342 0)
(11.6626 -0.284157 -7.91044e-17)
(12.2853 -0.828863 -8.03812e-17)
(13.2207 -1.32246 0)
(14.3978 -1.86386 0)
(16.0365 -1.86721 0)
(17.4192 -1.52518 0)
(18.3792 -1.19109 0)
(18.7885 -1.45396 0)
(19.3911 -1.45286 -6.64625e-17)
(19.5579 -1.50791 3.73139e-22)
(19.0943 -1.39996 0)
(18.6268 -1.05527 0)
(17.8498 -0.870761 -6.99129e-17)
(17.1381 -0.50908 0)
(16.2395 0.0329239 6.89413e-17)
(14.7881 0.357448 6.76966e-17)
(13.7444 0.509268 0)
(11.897 -0.15975 0)
(10.768 -1.61003 -6.9587e-17)
(10.7945 -3.01173 -1.36861e-16)
(12.6821 -3.82006 0)
(11.5124 -2.9848 0)
(13.9851 -2.24328 0)
(10.9759 -2.62744 -6.49367e-17)
(11.4153 -4.95635 6.69807e-17)
(14.8482 -6.56085 0)
(14.4447 -2.89836 1.20795e-16)
(12.6552 -3.97138 6.28717e-17)
(15.3313 -4.89096 -1.20813e-16)
(14.0013 -3.22839 0)
(11.3246 -4.86247 0)
(15.2796 -7.23962 -1.31742e-16)
(16.8335 -3.93725 -5.8513e-17)
(14.8577 -3.85496 0)
(15.0051 -4.74617 0)
(15.3298 -3.64445 0)
(13.4195 -3.16637 0)
(10.9493 -2.79888 -1.01852e-16)
(9.57204 -3.51539 0)
(9.74228 -3.22024 0)
(7.82771 -2.97608 0)
(7.25025 -3.71648 0)
(7.15331 -3.51303 0)
(5.16241 -3.24644 0)
(4.74337 -3.40728 -8.90809e-17)
(1.05769 -1.34717 0)
(-0.725108 -0.604117 0)
(-4.58107 -1.81576 -1.80906e-16)
(-4.69622 -10.5672 9.48081e-17)
(0.422589 -7.75261 -8.27752e-17)
(3.13927 -1.96771 8.91945e-17)
(0.131953 -3.4585 0)
(0.356175 -2.74323 -4.62021e-17)
(0.593047 -2.40153 0)
(0.769261 -2.50112 -2.24278e-17)
(1.25101 -3.30972 0)
(1.98905 -4.53556 0)
(2.76801 -5.85539 2.2867e-17)
(3.65691 -6.67308 0)
(4.34797 -7.32159 0)
(4.8298 -7.70892 0)
(5.44564 -7.57336 0)
(5.66175 -7.45985 0)
(6.09444 -7.0758 -8.83542e-17)
(6.4056 -6.92799 -4.40306e-17)
(6.82655 -6.73156 4.33894e-17)
(7.27337 -6.18634 0)
(7.52899 -5.8085 0)
(8.00153 -5.53869 0)
(8.33904 -5.19988 0)
(8.65856 -4.8238 0)
(9.10378 -4.42807 -4.14429e-17)
(9.4173 -4.08074 -4.09511e-17)
(9.89447 -3.70471 4.07239e-17)
(10.1689 -3.15985 -4.05366e-17)
(10.4817 -2.80953 0)
(10.7617 -2.07987 0)
(10.7734 -1.5245 -3.96283e-17)
(10.9714 -1.12042 0)
(10.6525 -0.211643 0)
(10.8736 -0.159688 -3.90306e-17)
(10.2506 0.262815 -3.87533e-17)
(10.1166 0.0502987 -3.82495e-17)
(10.0939 0.759825 0)
(9.55522 1.20292 0)
(10.0665 0.0291391 3.72755e-17)
(9.24134 0.339084 0)
(9.14262 -0.118167 0)
(8.66213 0.0718391 -3.64135e-17)
(8.65095 -1.26431 3.59562e-17)
(8.19171 -2.79461 -3.57826e-17)
(8.35544 -2.46653 0)
(8.91424 -3.81894 0)
(8.23236 -5.63954 -6.96158e-17)
(7.62606 -4.01918 0)
(5.94744 -1.67552 -7.08826e-17)
(4.21429 -0.232838 -1.05494e-16)
(3.01949 0.969908 1.04947e-16)
(1.82141 1.9279 -6.96558e-17)
(0.679251 2.5909 0)
(-0.30449 3.10863 0)
(-1.19155 3.47009 -6.83198e-17)
(-1.85379 3.60099 -3.39305e-17)
(-2.32258 3.58207 0)
(-2.61636 3.44343 0)
(-2.84955 3.25083 -3.33962e-17)
(-3.01149 2.96861 -6.64464e-17)
(-3.10538 2.64691 0)
(-3.20032 2.32572 6.57732e-17)
(-3.27853 1.94425 -6.53903e-17)
(-3.31178 1.56619 6.50401e-17)
(-3.34901 1.15602 0)
(-3.34183 0.761196 0)
(-3.32487 0.383784 0)
(-3.29053 0.0488786 0)
(-3.20853 -0.24227 0)
(-3.10986 -0.483428 6.27135e-17)
(-2.96221 -0.690339 0)
(-2.78903 -0.857745 0)
(-2.58176 -1.01591 0)
(-2.34787 -1.14071 1.21954e-16)
(-2.11291 -1.23874 6.05964e-17)
(-1.87094 -1.31224 6.01736e-17)
(-1.63777 -1.35041 -1.19419e-16)
(-1.39876 -1.3651 5.92518e-17)
(-1.16869 -1.3307 -5.89651e-17)
(-0.885442 -1.26737 0)
(-0.67276 -1.19217 5.81584e-17)
(-0.411892 -1.12945 0)
(-0.260629 -0.814275 0)
(-0.123193 -0.6481 0)
(0.0612521 -0.646762 1.13051e-16)
(0.102181 -0.296929 -5.60051e-17)
(0.289075 -0.171378 -5.5472e-17)
(0.230946 0.11815 -1.10251e-16)
(0.349381 0.259199 -1.64762e-16)
(0.348236 0.500917 -5.4519e-17)
(0.394563 0.668281 0)
(0.429693 0.90225 -1.07152e-16)
(0.427412 1.18018 0)
(0.529588 1.33861 -1.58335e-16)
(0.475278 1.55518 0)
(0.521005 1.80219 -1.55845e-16)
(0.573102 2.09221 0)
(0.625711 2.26047 0)
(0.647997 2.51119 -5.03827e-17)
(0.77953 2.67373 0)
(0.884873 2.88989 4.9645e-17)
(1.05584 3.04945 9.80533e-17)
(1.22821 3.15114 4.87826e-17)
(1.31433 3.22036 9.61776e-17)
(1.57368 3.33602 -9.49156e-17)
(1.81715 3.50407 -9.33637e-17)
(1.9971 3.51391 1.85863e-16)
(2.07305 3.42804 0)
(2.27733 3.32488 0)
(2.48659 3.32156 9.00069e-17)
(2.76132 3.31094 -8.90184e-17)
(3.02174 3.32185 0)
(3.2986 3.31342 0)
(3.5953 3.25034 8.63181e-17)
(3.88181 3.2137 0)
(4.17156 3.11041 -2.61683e-19)
(4.46674 3.05528 -2.50322e-19)
(4.84053 2.95808 8.07685e-17)
(5.18886 2.8506 0)
(5.45105 2.63195 -7.92201e-17)
(5.84213 2.32576 0)
(6.31352 1.9841 7.68621e-17)
(6.85322 1.65464 0)
(7.3248 1.43024 0)
(7.80319 1.21931 -7.62572e-17)
(8.37475 0.862798 -7.728e-17)
(8.88072 0.684015 0)
(9.3198 0.50244 -7.90007e-17)
(9.98805 0.104438 1.57067e-16)
(10.6036 -0.0526111 0)
(11.351 -0.255894 0)
(11.9118 -0.643422 0)
(12.5637 -0.554057 0)
(13.1607 -0.50512 7.8306e-17)
(13.459 -1.30298 -1.59953e-16)
(13.9912 -2.14301 0)
(14.6207 -3.01725 0)
(16.0041 -3.1747 0)
(17.4676 -2.74092 0)
(19.0177 -2.00607 0)
(19.6258 -1.86629 0)
(19.7046 -1.91355 0)
(19.8377 -1.42679 6.70822e-17)
(18.8185 -1.06502 0)
(17.3143 -1.00198 0)
(16.1992 -0.724207 6.94593e-17)
(15.0332 -0.553365 0)
(13.8325 -0.181737 0)
(12.9511 0.200764 -6.6402e-17)
(13.3895 0.367831 0)
(13.3423 0.0809008 0)
(13.0448 -1.7039 1.3538e-16)
(12.1958 -4.28079 1.35864e-16)
(12.7435 -5.31778 1.32155e-16)
(11.8525 -4.82498 0)
(13.7605 -3.78829 1.27864e-16)
(12.7983 -3.43972 0)
(11.8239 -7.28323 -1.32658e-16)
(14.6937 -9.64031 0)
(14.7637 -4.18143 -1.22597e-16)
(12.4957 -5.98823 3.60088e-19)