/*--------------------------------*- C++ -*----------------------------------*\
| =========                 |                                                 |
| \\      /  F ield         | OpenFOAM: The Open Source CFD Toolbox           |
|  \\    /   O peration     | Version:  dev                                   |
|   \\  /    A nd           | Web:      http://www.openfoam.org               |
|    \\/     M anipulation  |                                                 |
\*---------------------------------------------------------------------------*/
FoamFile
{
    version     2.0;
    format      ascii;
    class       volVectorField;
    object      UMean;
    location    "9.167";
}
// * * * * * * * * * * * * * * * * * * * * * * * * * * * * * * * * * * * * * //

dimensions      [0 1 -1 0 0 0 0];

internalField   nonuniform List<vector> 
12225
(
(7.00354 0.430267 0)
(4.43867 0.192539 0)
(2.55677 0.0311545 0)
(2.5108 -0.0166486 0)
(1.38446 0.0193554 0)
(2.26727 -0.034268 0)
(0.989432 0.0489735 0)
(2.18258 -0.0591648 0)
(0.797242 0.0716495 0)
(2.29179 -0.0978439 0)
(0.688341 0.0993734 0)
(2.74358 -0.138632 0)
(0.947535 0.102613 0)
(3.39698 -0.172149 0)
(3.52985 -0.168385 0)
(4.69498 0.0499677 0)
(14.8413 -2.43354 0)
(7.11704 5.13267 0)
(9.54626 0.981585 0)
(9.54317 0.86083 0)
(6.68679 0.466272 0)
(7.59029 0.214538 0)
(4.09072 0.140322 0)
(6.84302 0.0108502 0)
(2.66508 0.132631 0)
(6.68917 -0.0902694 0)
(1.8222 0.141834 0)
(7.0391 -0.165029 0)
(1.25996 0.123912 0)
(8.12156 -0.414378 0)
(1.38448 0.252451 0)
(9.95449 -1.44213 0)
(3.43387 0.272435 0)
(12.387 -4.06766 0)
(10.4246 -1.92652 0)
(7.77242 0.483294 0)
(9.11853 0.763594 0)
(12.1666 0.951378 0)
(8.32955 0.623994 0)
(11.8319 0.443355 0)
(6.22625 0.310334 0)
(11.4128 0.206528 0)
(4.58293 0.221494 0)
(11.3148 -0.0193589 0)
(3.8739 0.192929 0)
(11.3764 -0.277721 0)
(4.34983 0.1873 0)
(11.2527 -0.723145 0)
(5.72787 0.176142 0)
(11.0896 -1.49164 0)
(7.2143 0.0532042 0)
(12.1148 -3.8655 0)
(6.93406 0.351219 0)
(9.35144 -2.3931 0)
(7.21908 0.52503 0)
(13.9928 0.960909 0)
(7.93005 0.609534 0)
(14.2951 0.553758 0)
(7.47478 0.420979 0)
(14.1161 0.271089 0)
(7.1762 0.396728 0)
(13.7382 -0.144923 0)
(7.25712 0.459631 0)
(13.2693 -0.698523 0)
(7.65951 0.576879 0)
(12.8739 -1.42262 0)
(8.26662 0.699744 0)
(12.65 -2.31338 0)
(9.02306 0.0432947 0)
(11.8861 -3.63802 0)
(8.68681 -1.4306 0)
(8.36299 0.680398 0)
(6.42467 0.57019 0)
(14.01 0.565768 0)
(8.47419 0.674617 0)
(13.957 0.284432 0)
(9.1701 0.636824 0)
(13.6423 -0.00255283 0)
(9.51791 0.657949 0)
(13.2127 -0.388548 0)
(9.59289 0.734454 0)
(12.8116 -0.871091 0)
(9.44642 0.877016 0)
(12.5808 -1.52114 0)
(9.1505 1.09025 0)
(12.5684 -2.48973 0)
(8.82804 1.13327 0)
(11.6149 -5.02788 0)
(8.54257 1.26826 0)
(8.72091 0.123538 0)
(7.95769 0.617077 0)
(11.8016 0.152205 0)
(9.50582 0.654953 0)
(11.7379 0.0500686 0)
(10.0888 0.694111 0)
(11.5989 -0.165764 0)
(10.321 0.726052 0)
(11.4748 -0.457586 0)
(10.301 0.783301 0)
(11.3882 -0.853639 0)
(10.0335 0.832457 0)
(11.354 -1.40016 0)
(9.4934 0.801943 0)
(11.4168 -2.13852 0)
(8.80231 0.726995 0)
(10.9975 -3.91974 0)
(7.73403 1.33715 0)
(9.48869 -0.220077 0)
(9.34494 0.812882 0)
(10.4381 -0.265997 0)
(10.1413 0.930773 0)
(10.5532 -0.304621 0)
(10.3992 1.0202 0)
(10.5813 -0.502957 0)
(10.5206 1.07574 0)
(10.6249 -0.781199 0)
(10.564 1.15375 0)
(10.6713 -1.15765 0)
(10.5161 1.23553 0)
(10.6996 -1.63542 0)
(10.3677 1.26159 0)
(10.6878 -2.32676 0)
(10.054 1.27151 0)
(10.376 -3.95257 0)
(8.29997 2.01855 0)
(9.69699 -0.953186 0)
(9.84939 0.701385 0)
(10.1557 -0.326084 0)
(10.4067 0.855427 0)
(10.3897 -0.35008 0)
(10.5804 0.907218 0)
(10.4704 -0.494175 0)
(10.7017 0.893371 0)
(10.5519 -0.686444 0)
(10.8054 0.873123 0)
(10.6438 -0.935282 0)
(10.881 0.824242 0)
(10.7353 -1.23262 0)
(10.9079 0.671783 0)
(10.7538 -1.67226 0)
(10.7228 0.520048 0)
(10.4925 -2.47278 0)
(8.89447 0.980304 0)
(9.96392 -0.483969 0)
(10.0858 0.802444 0)
(10.0196 -0.583455 0)
(10.5355 1.02179 0)
(10.3106 -0.604583 0)
(10.6751 1.07531 0)
(10.4399 -0.725026 0)
(10.7775 1.04852 0)
(10.5708 -0.890016 0)
(10.8571 1.00393 0)
(10.7112 -1.1176 0)
(10.8986 0.921341 0)
(10.8316 -1.39462 0)
(10.8737 0.73501 0)
(10.8219 -1.7603 0)
(10.6018 0.505948 0)
(10.5205 -2.06764 0)
(9.35049 0.586237 0)
(10.0234 -0.391441 0)
(10.139 0.648869 0)
(10.0423 -0.51208 0)
(10.5102 0.878409 0)
(10.3334 -0.456661 0)
(10.6213 0.869558 0)
(10.482 -0.493795 0)
(10.6978 0.7786 0)
(10.6289 -0.572236 0)
(10.7341 0.658229 0)
(10.7634 -0.695353 0)
(10.7178 0.49588 0)
(10.84 -0.844877 0)
(10.6181 0.264438 0)
(10.7653 -1.03181 0)
(10.2822 0.0705667 0)
(10.4793 -1.05213 0)
(9.62375 0.124097 0)
(10.2068 -0.0326726 0)
(10.141 0.700196 0)
(10.0707 -0.691855 0)
(10.4524 0.902796 0)
(10.2985 -0.618865 0)
(10.5374 0.847865 0)
(10.4302 -0.64545 0)
(10.6031 0.7355 0)
(10.5605 -0.707246 0)
(10.6271 0.587004 0)
(10.6602 -0.791023 0)
(10.609 0.383417 0)
(10.681 -0.868983 0)
(10.5267 0.117456 0)
(10.5708 -0.921645 0)
(10.2914 -0.113341 0)
(10.3608 -0.764497 0)
(10.02 -0.15378 0)
(10.2454 -0.125036 0)
(10.0968 0.468171 0)
(10.1509 -0.495097 0)
(10.3536 0.595988 0)
(10.2934 -0.374589 0)
(10.4202 0.527742 0)
(10.4093 -0.354727 0)
(10.4847 0.419085 0)
(10.5238 -0.374067 0)
(10.513 0.275949 0)
(10.5992 -0.414481 0)
(10.5156 0.0935972 0)
(10.5969 -0.461406 0)
(10.4765 -0.102945 0)
(10.4994 -0.499738 0)
(10.357 -0.23172 0)
(10.3645 -0.405171 0)
(10.2659 -0.219449 0)
(10.3737 -0.109918 0)
(10.05 0.411117 0)
(10.1754 -0.487081 0)
(10.2547 0.437349 0)
(10.2379 -0.367288 0)
(10.3087 0.3675 0)
(10.3306 -0.34532 0)
(10.3792 0.251001 0)
(10.4245 -0.354995 0)
(10.4225 0.0996704 0)
(10.4821 -0.374569 0)
(10.4461 -0.0794201 0)
(10.4816 -0.403069 0)
(10.4328 -0.246293 0)
(10.426 -0.43083 0)
(10.3771 -0.338752 0)
(10.3685 -0.392165 0)
(10.357 -0.320063 0)
(10.4221 -0.276044 0)
(10.0153 0.199749 0)
(10.1907 -0.285615 0)
(10.1931 0.167439 0)
(10.2051 -0.179098 0)
(10.2292 0.131786 0)
(10.2791 -0.171129 0)
(10.3061 0.0473819 0)
(10.3625 -0.197523 0)
(10.3659 -0.0585032 0)
(10.414 -0.235455 0)
(10.4053 -0.175733 0)
(10.4265 -0.28611 0)
(10.4122 -0.274638 0)
(10.4111 -0.331263 0)
(10.3993 -0.323706 0)
(10.4064 -0.336737 0)
(10.4107 -0.315551 0)
(10.4695 -0.304331 0)
(9.99664 0.0971929 0)
(10.1445 -0.185654 0)
(10.1463 0.0217678 0)
(10.1501 -0.133435 0)
(10.1622 -0.00847367 0)
(10.2089 -0.145895 0)
(10.241 -0.0767626 0)
(10.2919 -0.186452 0)
(10.311 -0.159141 0)
(10.3485 -0.23765 0)
(10.3574 -0.24447 0)
(10.379 -0.297944 0)
(10.3804 -0.315893 0)
(10.3937 -0.349646 0)
(10.3958 -0.360563 0)
(10.4183 -0.379695 0)
(10.4237 -0.380527 0)
(10.4787 -0.386678 0)
(9.99365 0.0155462 0)
(10.1059 -0.0856601 0)
(10.1088 -0.0442048 0)
(10.1138 -0.0930906 0)
(10.1188 -0.0747335 0)
(10.1674 -0.118747 0)
(10.1979 -0.120415 0)
(10.2517 -0.16361 0)
(10.2739 -0.180331 0)
(10.3152 -0.218889 0)
(10.3277 -0.243633 0)
(10.3596 -0.277489 0)
(10.3657 -0.300973 0)
(10.3937 -0.328605 0)
(10.3993 -0.34656 0)
(10.4326 -0.370332 0)
(10.4353 -0.383285 0)
(10.4881 -0.396467 0)
(9.99171 0.0047954 0)
(10.0635 -0.0250892 0)
(10.0566 -0.0348361 0)
(10.0678 -0.0663701 0)
(10.0778 -0.0756036 0)
(10.1279 -0.0996295 0)
(10.1572 -0.115782 0)
(10.2109 -0.144515 0)
(10.2336 -0.168758 0)
(10.278 -0.199329 0)
(10.2919 -0.226289 0)
(10.3298 -0.256732 0)
(10.3382 -0.282981 0)
(10.3729 -0.311682 0)
(10.3786 -0.336398 0)
(10.415 -0.365094 0)
(10.4144 -0.387576 0)
(10.4632 -0.406959 0)
(9.99152 0.0141542 0)
(10.0466 0.016119 0)
(10.0398 -0.0105918 0)
(10.0575 -0.0376774 0)
(10.0748 -0.0565081 0)
(10.1254 -0.0778044 0)
(10.1553 -0.0987842 0)
(10.207 -0.123712 0)
(10.231 -0.148848 0)
(10.2752 -0.176453 0)
(10.291 -0.203221 0)
(10.3291 -0.231916 0)
(10.3393 -0.259088 0)
(10.3735 -0.287999 0)
(10.38 -0.31529 0)
(10.4139 -0.345322 0)
(10.4131 -0.371147 0)
(10.4565 -0.392931 0)
(9.9917 0.0328544 0)
(10.0502 0.0495071 0)
(10.0566 0.00983553 0)
(10.0799 -0.0181473 0)
(10.1007 -0.0402784 0)
(10.1506 -0.0614904 0)
(10.1819 -0.0835873 0)
(10.2315 -0.106354 0)
(10.2562 -0.130458 0)
(10.2984 -0.155385 0)
(10.315 -0.180914 0)
(10.3507 -0.207128 0)
(10.3614 -0.233328 0)
(10.3926 -0.260147 0)
(10.399 -0.286732 0)
(10.4287 -0.314954 0)
(10.4281 -0.340654 0)
(10.4652 -0.362398 0)
(9.98987 0.0406351 0)
(10.0546 0.052494 0)
(10.0827 -0.00645505 0)
(10.1166 -0.0407573 0)
(10.1419 -0.0641731 0)
(10.1903 -0.0822945 0)
(10.2223 -0.102088 0)
(10.269 -0.120969 0)
(10.2935 -0.14267 0)
(10.332 -0.163881 0)
(10.3483 -0.187259 0)
(10.3801 -0.209914 0)
(10.3904 -0.234186 0)
(10.4173 -0.257673 0)
(10.4228 -0.282506 0)
(10.4473 -0.307508 0)
(10.4461 -0.332108 0)
(10.4767 -0.35247 0)
(9.99056 0.0315032 0)
(10.0685 0.0218318 0)
(10.1261 -0.0558763 0)
(10.1769 -0.0968586 0)
(10.2125 -0.119852 0)
(10.2609 -0.132782 0)
(10.2938 -0.147779 0)
(10.3361 -0.161627 0)
(10.3601 -0.179765 0)
(10.3941 -0.196819 0)
(10.4103 -0.217225 0)
(10.4377 -0.236076 0)
(10.4479 -0.257786 0)
(10.4702 -0.277819 0)
(10.4754 -0.300465 0)
(10.4946 -0.322058 0)
(10.494 -0.344882 0)
(10.5187 -0.363135 0)
(9.99118 0.00977368 0)
(10.0919 -0.0298986 0)
(10.1869 -0.120976 0)
(10.2594 -0.162875 0)
(10.3092 -0.181192 0)
(10.3589 -0.187191 0)
(10.3929 -0.196029 0)
(10.4304 -0.204327 0)
(10.4542 -0.21803 0)
(10.4837 -0.230637 0)
(10.5001 -0.24746 0)
(10.5233 -0.262457 0)
(10.5337 -0.281129 0)
(10.5517 -0.297784 0)
(10.5572 -0.317807 0)
(10.5719 -0.336115 0)
(10.5724 -0.356665 0)
(10.5921 -0.372774 0)
(9.99285 -0.0234596 0)
(10.1275 -0.103774 0)
(10.267 -0.205048 0)
(10.3664 -0.241677 0)
(10.4319 -0.250852 0)
(10.4835 -0.248395 0)
(10.5183 -0.250867 0)
(10.5517 -0.253632 0)
(10.5753 -0.262878 0)
(10.6012 -0.271208 0)
(10.6181 -0.284507 0)
(10.6378 -0.296095 0)
(10.6487 -0.311874 0)
(10.6632 -0.325599 0)
(10.6692 -0.343102 0)
(10.6802 -0.358524 0)
(10.6814 -0.376812 0)
(10.6969 -0.39093 0)
(9.99045 -0.0716468 0)
(10.1743 -0.201291 0)
(10.3677 -0.305551 0)
(10.5 -0.327917 0)
(10.5804 -0.322574 0)
(10.6343 -0.310163 0)
(10.6689 -0.305508 0)
(10.6996 -0.302472 0)
(10.7225 -0.306581 0)
(10.7459 -0.310431 0)
(10.7624 -0.319722 0)
(10.7793 -0.327838 0)
(10.7895 -0.340342 0)
(10.8006 -0.351093 0)
(10.8055 -0.365657 0)
(10.8124 -0.378191 0)
(10.8122 -0.393725 0)
(10.8222 -0.405653 0)
(9.99202 -0.136442 0)
(10.2447 -0.323137 0)
(10.5025 -0.419099 0)
(10.671 -0.41768 0)
(10.7626 -0.39417 0)
(10.8174 -0.371061 0)
(10.8493 -0.35886 0)
(10.8771 -0.350477 0)
(10.8959 -0.349958 0)
(10.9148 -0.350326 0)
(10.9253 -0.35618 0)
(10.9355 -0.361287 0)
(10.9375 -0.370559 0)
(10.9394 -0.3784 0)
(10.934 -0.389571 0)
(10.9292 -0.399134 0)
(10.9165 -0.411034 0)
(10.9117 -0.420164 0)
(9.98972 -0.219951 0)
(10.3367 -0.468201 0)
(10.6735 -0.539778 0)
(10.8756 -0.50821 0)
(10.9696 -0.464787 0)
(11.0133 -0.427968 0)
(11.0284 -0.404689 0)
(11.0351 -0.38824 0)
(11.029 -0.381247 0)
(11.0194 -0.376775 0)
(10.998 -0.377959 0)
(10.9736 -0.378848 0)
(10.9378 -0.38355 0)
(10.9001 -0.387012 0)
(10.8525 -0.393359 0)
(10.8045 -0.398669 0)
(10.7466 -0.404973 0)
(10.695 -0.409734 0)
(9.98328 -0.33213 0)
(10.4675 -0.642391 0)
(10.8827 -0.667146 0)
(11.0723 -0.602619 0)
(11.1029 -0.537133 0)
(11.0583 -0.483039 0)
(10.9743 -0.444878 0)
(10.8732 -0.416101 0)
(10.7579 -0.397867 0)
(10.6353 -0.383115 0)
(10.5039 -0.374714 0)
(10.3671 -0.366147 0)
(10.2247 -0.362252 0)
(10.0782 -0.356794 0)
(9.92952 -0.355638 0)
(9.77809 -0.353041 0)
(9.62707 -0.352734 0)
(9.4773 -0.350892 0)
(10.0025 -0.453683 0)
(10.6189 -0.818983 0)
(10.9015 -0.752048 0)
(10.7932 -0.623681 0)
(10.4938 -0.512463 0)
(10.1378 -0.429112 0)
(9.77041 -0.373475 0)
(9.41801 -0.334625 0)
(9.07736 -0.30719 0)
(8.75616 -0.284503 0)
(8.44734 -0.267545 0)
(8.1544 -0.251223 0)
(7.87382 -0.239934 0)
(7.6044 -0.227234 0)
(7.34977 -0.22103 0)
(7.1004 -0.211721 0)
(6.87215 -0.210747 0)
(6.64288 -0.204072 0)
(10.0975 -0.750793 0)
(10.0458 -1.01321 0)
(9.42488 -0.801055 0)
(8.51452 -0.572135 0)
(7.65522 -0.378697 0)
(6.9292 -0.244865 0)
(6.32778 -0.167498 0)
(5.8322 -0.126226 0)
(5.40992 -0.104676 0)
(5.04946 -0.0922937 0)
(4.72951 -0.0849342 0)
(4.4489 -0.0793225 0)
(4.19262 -0.0757805 0)
(3.96383 -0.0718643 0)
(3.75223 -0.0721097 0)
(3.55715 -0.0690571 0)
(3.38504 -0.0802354 0)
(3.2202 -0.0828309 0)
(8.5167 -0.43608 0)
(6.11017 -0.38089 0)
(4.29831 -0.138043 0)
(3.12398 -0.0213794 0)
(2.48128 0.019138 0)
(2.12071 0.0224782 0)
(1.89653 0.0137217 0)
(1.73527 0.00462095 0)
(1.5993 -0.00156327 0)
(1.47862 -0.00478625 0)
(1.36658 -0.00639996 0)
(1.26448 -0.00671313 0)
(1.16886 -0.0067021 0)
(1.08217 -0.00638396 0)
(1.00018 -0.00665179 0)
(0.919989 -0.00702649 0)
(0.852516 -0.0185992 0)
(0.732056 -0.00612226 0)
(-0.0520439 0.138034 0)
(-0.157196 0.0716568 0)
(-0.20733 0.0166301 0)
(-0.195621 -0.0442145 0)
(-0.118435 -0.0989988 0)
(0.0117511 -0.145111 0)
(0.185878 -0.175728 1.11359e-17)
(0.387751 -0.193753 -1.1061e-17)
(0.606154 -0.198187 0)
(0.82874 -0.192948 -1.09178e-17)
(1.04612 -0.178616 0)
(1.24929 -0.15785 0)
(1.4317 -0.13121 0)
(1.58809 -0.101839 1.06432e-17)
(1.7158 -0.0705725 0)
(1.81206 -0.0384889 0)
(1.87598 -0.00633342 -1.0446e-17)
(1.90826 0.0239401 0)
(1.91058 0.0504322 0)
(1.88501 0.0722016 0)
(1.83524 0.0892128 1.01965e-17)
(1.76383 0.100802 0)
(1.67468 0.108691 1.00745e-17)
(1.5695 0.11161 0)
(1.45291 0.109741 0)
(1.32767 0.108117 9.89583e-18)
(1.19402 0.111425 0)
(1.05121 0.116534 -9.7795e-18)
(0.902455 0.12174 0)
(0.748368 0.126741 9.66461e-18)
(0.590505 0.130695 0)
(0.431149 0.133086 0)
(0.272578 0.134172 0)
(0.115263 0.133904 0)
(-0.0405042 0.131019 0)
(-0.192664 0.126391 -9.32978e-18)
(-0.33959 0.120348 0)
(-0.480878 0.113918 1.84408e-17)
(-0.615088 0.107499 0)
(-0.741789 0.100318 -1.82217e-17)
(-0.859469 0.0932646 0)
(-0.968287 0.0864425 0)
(-1.06868 0.0786302 1.78884e-17)
(-1.16022 0.0702803 0)
(-1.24359 0.0626686 1.76652e-17)
(-1.3189 0.0555625 -1.75532e-17)
(-1.38561 0.0485542 0)
(-1.44442 0.0422949 -1.73283e-17)
(-1.49636 0.0367775 -1.72152e-17)
(-1.54048 0.0330064 0)
(-1.57698 0.0314266 0)
(-1.60776 0.0315021 0)
(-1.63494 0.0317536 0)
(-1.6595 0.0318582 0)
(-1.68283 0.0327621 1.65283e-17)
(-1.70678 0.0342823 0)
(-1.73269 0.0364669 -1.6299e-17)
(-1.75935 0.0384977 0)
(-1.78552 0.039082 0)
(-1.8112 0.0396173 1.59526e-17)
(-1.83705 0.0413037 0)
(-1.86475 0.0424507 -1.57213e-17)
(-1.89436 0.0440567 0)
(-1.92559 0.0454721 0)
(-1.95793 0.0462049 0)
(-1.99078 0.0473056 1.52557e-17)
(-2.0241 0.0492448 0)
(-2.05798 0.0514918 0)
(-2.09254 0.0538671 1.4906e-17)
(-2.12804 0.0551842 0)
(-2.16172 0.0554166 1.46714e-17)
(-2.19249 0.0560868 0)
(-2.22047 0.0566569 0)
(-2.24449 0.056661 0)
(-2.26328 0.0560755 -1.42054e-17)
(-2.27625 0.0548687 0)
(-2.28395 0.0541041 0)
(-2.28826 0.0539993 -1.38616e-17)
(-2.28958 0.0529912 -1.37482e-17)
(-2.28621 0.051312 0)
(-2.27637 0.0490164 -1.3523e-17)
(-2.25996 0.0460754 0)
(-2.23657 0.0428988 -2.66031e-17)
(-2.20621 0.0394519 0)
(-2.16942 0.0357593 -2.61676e-17)
(-2.12606 0.0326925 0)
(-2.07716 0.0302671 2.57389e-17)
(-2.02357 0.0282953 0)
(-1.96544 0.0268726 0)
(-1.90339 0.0259034 0)
(-1.83897 0.0253218 -2.49019e-17)
(-1.77193 0.0250605 0)
(-1.70389 0.0250206 2.45002e-17)
(-1.63489 0.0256023 0)
(-1.5656 0.0266236 -2.41108e-17)
(-1.49795 0.029113 -2.39222e-17)
(-1.43117 0.0302714 -2.37379e-17)
(-1.36421 0.031322 0)
(-1.29903 0.0313397 0)
(-1.2345 0.0325202 0)
(-1.1689 0.0333745 0)
(-1.10424 0.0330118 0)
(-1.0346 0.0318721 0)
(-0.965969 0.0331463 0)
(-0.895167 0.0327518 0)
(-0.82813 0.0351378 2.22138e-17)
(-0.760674 0.0356002 2.20615e-17)
(-0.698155 0.0399527 0)
(-0.637389 0.0412869 0)
(-0.581443 0.0409418 0)
(-0.513578 0.0383269 2.14809e-17)
(-0.450937 0.0425446 0)
(-0.382207 0.0408769 0)
(-0.31738 0.0437474 0)
(-0.246676 0.0407688 0)
(-0.173815 0.0431166 -2.08064e-17)
(-0.0985723 0.0445957 0)
(-0.0173746 0.0435167 0)
(0.068024 0.044946 2.04292e-17)
(0.156989 0.0448102 -2.03076e-17)
(0.249265 0.0441466 0)
(0.345202 0.0481512 -2.0075e-17)
(0.436991 0.0511724 0)
(0.529196 0.0549382 1.98485e-17)
(0.610094 0.0595596 0)
(0.681273 0.0624807 0)
(0.756188 0.0626534 0)
(0.825739 0.0633574 0)
(0.905345 0.0604315 0)
(0.9795 0.0609345 -3.83961e-17)
(1.05528 0.0624599 -3.8177e-17)
(1.11611 0.0671762 0)
(1.16687 0.0663779 0)
(1.21174 0.0677146 0)
(1.24847 0.0636616 3.72527e-17)
(1.29613 0.0588843 0)
(1.34529 0.0572331 0)
(1.39009 0.0561053 0)
(1.43838 0.0539089 3.62328e-17)
(1.4775 0.0560485 -3.59649e-17)
(1.52182 0.0528194 0)
(1.56025 0.052836 0)
(1.60188 0.0532115 -3.51501e-17)
(1.62797 0.0583742 -3.4877e-17)
(1.65736 0.0550017 0)
(1.68607 0.0587031 0)
(1.72531 0.0557218 3.40437e-17)
(1.76196 0.0660075 -3.37642e-17)
(1.76996 0.0713532 0)
(1.78384 0.0707235 0)
(1.80906 0.0711051 -3.29273e-17)
(1.84234 0.0758331 0)
(1.85563 0.0834151 0)
(1.86666 0.0890782 -3.20831e-17)
(1.86599 0.0931965 0)
(1.8804 0.0980377 -3.15225e-17)
(1.88299 0.105025 0)
(1.88912 0.109155 0)
(1.87648 0.120778 0)
(1.86292 0.126707 3.04333e-17)
(1.84715 0.133129 0)
(1.81515 0.142904 0)
(1.74267 0.154616 0)
(1.66516 0.154793 0)
(1.59848 0.15727 0)
(1.50757 0.165986 0)
(1.38064 0.172317 2.88921e-17)
(1.26279 0.173945 2.87378e-17)
(1.0779 0.182188 0)
(0.872369 0.184554 0)
(0.62984 0.183704 0)
(0.414181 0.170022 -2.83199e-17)
(0.191899 0.163001 0)
(0.03999 0.146794 5.63437e-17)
(-0.159189 0.143906 -5.62328e-17)
(-0.258929 0.123646 -5.60542e-17)
(-0.420471 0.126968 5.59504e-17)
(-0.453755 0.0964543 -5.57473e-17)
(-0.609209 0.129781 5.57283e-17)
(-0.560653 -0.00323063 0)
(0.0101083 0.249186 0)
(0.0143241 0.19264 0)
(0.0491991 0.00833601 -2.27972e-17)
(0.120347 -0.197921 0)
(0.23518 -0.384098 2.23664e-17)
(0.387487 -0.535692 2.22198e-17)
(0.568743 -0.64476 1.10445e-17)
(0.768775 -0.71086 1.09821e-17)
(0.976292 -0.737574 0)
(1.18068 -0.731354 1.0855e-17)
(1.37331 -0.695525 0)
(1.54688 -0.637215 0)
(1.6974 -0.562588 -2.13215e-17)
(1.82014 -0.478162 -1.05955e-17)
(1.91503 -0.386242 2.10569e-17)
(1.98029 -0.291668 2.09233e-17)
(2.01726 -0.19927 1.0396e-17)
(2.02604 -0.111144 0)
(2.00909 -0.0280941 0)
(1.96637 0.0466129 0)
(1.9017 0.112102 1.01369e-17)
(1.81514 0.171304 0)
(1.71131 0.224307 -3.00382e-17)
(1.58907 0.267237 0)
(1.45076 0.302303 0)
(1.29689 0.332957 -9.8321e-18)
(1.13098 0.356999 0)
(0.955778 0.374342 9.7157e-18)
(0.775112 0.385414 1.9313e-17)
(0.589897 0.39265 -9.5977e-18)
(0.402918 0.394683 0)
(0.215428 0.390834 0)
(0.0271072 0.383502 0)
(-0.161612 0.376501 1.87312e-17)
(-0.348902 0.367881 1.86167e-17)
(-0.533438 0.3556 9.25134e-18)
(-0.712453 0.340845 0)
(-0.88648 0.323804 -1.82763e-17)
(-1.05153 0.303304 0)
(-1.20994 0.281424 1.80509e-17)
(-1.3601 0.258955 0)
(-1.50363 0.236208 0)
(-1.63904 0.215882 -1.77168e-17)
(-1.76727 0.196915 0)
(-1.89075 0.179126 -5.24872e-17)
(-2.00852 0.160483 1.73859e-17)
(-2.11973 0.141629 0)
(-2.22396 0.124729 1.71658e-17)
(-2.32211 0.107099 1.70556e-17)
(-2.41291 0.0875273 0)
(-2.49444 0.0685339 0)
(-2.56878 0.0538692 0)
(-2.63776 0.0441537 0)
(-2.70332 0.0389726 0)
(-2.76486 0.0373797 -1.6374e-17)
(-2.82448 0.0368441 -3.25157e-17)
(-2.88243 0.0369457 1.61417e-17)
(-2.93611 0.0344468 0)
(-2.9873 0.0304958 -3.18135e-17)
(-3.03642 0.0291779 1.57878e-17)
(-3.08279 0.0299699 0)
(-3.12991 0.0305093 1.55502e-17)
(-3.17493 0.0328761 0)
(-3.21764 0.0339086 0)
(-3.25855 0.0329047 3.03758e-17)
(-3.29823 0.0319019 -1.50676e-17)
(-3.33352 0.0297701 2.98925e-17)
(-3.36635 0.0269116 -2.96513e-17)
(-3.39386 0.0238899 -1.47051e-17)
(-3.4184 0.0200276 0)
(-3.43688 0.0129795 -1.44634e-17)
(-3.44838 0.00313535 0)
(-3.45424 -0.00730502 0)
(-3.45172 -0.0196607 0)
(-3.44003 -0.0337862 -1.39836e-17)
(-3.42017 -0.0477864 0)
(-3.39376 -0.0580069 -2.74964e-17)
(-3.36156 -0.0652816 4.08962e-17)
(-3.32392 -0.0739598 1.35169e-17)
(-3.28002 -0.0851255 0)
(-3.22813 -0.0979141 1.32885e-17)
(-3.17097 -0.110612 0)
(-3.10814 -0.122702 2.61255e-17)
(-3.04018 -0.13371 0)
(-2.96715 -0.144223 2.56825e-17)
(-2.88905 -0.153585 -5.09251e-17)
(-2.80699 -0.162498 -2.52487e-17)
(-2.72253 -0.170441 0)
(-2.63313 -0.177906 0)
(-2.54151 -0.183492 0)
(-2.44776 -0.18764 2.44084e-17)
(-2.35071 -0.191631 0)
(-2.2525 -0.194286 -2.40022e-17)
(-2.15431 -0.194638 0)
(-2.05561 -0.196193 7.08256e-17)
(-1.95693 -0.195537 2.34185e-17)
(-1.85766 -0.196556 2.32325e-17)
(-1.76048 -0.193838 0)
(-1.66583 -0.193133 0)
(-1.57062 -0.193851 0)
(-1.47286 -0.194549 0)
(-1.37615 -0.196961 0)
(-1.27375 -0.201279 4.43249e-17)
(-1.17776 -0.19939 4.39887e-17)
(-1.07835 -0.199613 0)
(-0.991071 -0.194139 -2.16766e-17)
(-0.894915 -0.195163 -2.15244e-17)
(-0.807945 -0.188459 0)
(-0.713463 -0.187413 -4.24457e-17)
(-0.634773 -0.186995 0)
(-0.538007 -0.197248 2.09386e-17)
(-0.45166 -0.191097 0)
(-0.34619 -0.199055 0)
(-0.251579 -0.195853 -4.10591e-17)
(-0.138316 -0.204477 0)
(-0.0340321 -0.205002 2.02729e-17)
(0.0914954 -0.213071 0)
(0.218566 -0.220814 0)
(0.354733 -0.224758 1.98875e-17)
(0.495561 -0.229409 1.97711e-17)
(0.641177 -0.234552 0)
(0.790074 -0.234968 -1.95338e-17)
(0.949356 -0.236568 0)
(1.10859 -0.227302 1.92971e-17)
(1.27193 -0.218145 3.83639e-17)
(1.41997 -0.212263 0)
(1.57697 -0.213788 0)
(1.72248 -0.213977 0)
(1.88222 -0.215728 0)
(2.0298 -0.210785 3.7231e-17)
(2.18435 -0.207515 1.11008e-16)
(2.32108 -0.188736 0)
(2.44506 -0.183164 0)
(2.56407 -0.172209 0)
(2.66871 -0.173835 -3.60803e-17)
(2.77036 -0.178249 0)
(2.8706 -0.17798 0)
(2.96512 -0.176564 7.06177e-17)
(3.05828 -0.176955 3.5035e-17)
(3.13393 -0.172568 3.47666e-17)
(3.22207 -0.179722 0)
(3.28614 -0.173616 0)
(3.35401 -0.175204 3.39216e-17)
(3.4011 -0.163788 -3.36153e-17)
(3.44578 -0.178091 0)
(3.47601 -0.175133 0)
(3.51021 -0.191237 -3.27224e-17)
(3.5393 -0.173173 9.71897e-17)
(3.55331 -0.168831 0)
(3.56443 -0.179844 0)
(3.57561 -0.191271 3.146e-17)
(3.59624 -0.18917 0)
(3.59134 -0.182333 6.16258e-17)
(3.58851 -0.180665 -3.04715e-17)
(3.56103 -0.185359 0)
(3.55731 -0.194675 2.98442e-17)
(3.53359 -0.191225 5.90531e-17)
(3.52277 -0.192612 0)
(3.4765 -0.185489 0)
(3.45273 -0.19384 -2.85733e-17)
(3.41116 -0.185897 0)
(3.35319 -0.168904 5.58861e-17)
(3.25431 -0.149302 0)
(3.16061 -0.15409 0)
(3.03971 -0.146019 0)
(2.9104 -0.121823 0)
(2.71704 -0.10371 -2.66525e-17)
(2.55892 -0.0762585 -2.64629e-17)
(2.27487 -0.0268944 0)
(2.00451 -0.00267636 0)
(1.67516 0.0221396 0)
(1.3811 0.0185348 2.59573e-17)
(1.04667 0.0231755 0)
(0.840023 0.0131573 -5.16661e-17)
(0.522038 0.0308287 5.1638e-17)
(0.411139 -0.000570699 5.14904e-17)
(0.130591 0.0311489 5.14804e-17)
(0.133002 -0.0179353 5.13285e-17)
(-0.160406 0.0793799 5.14906e-17)
(0.0234523 -0.115196 0)
(0.0290367 0.0718791 0)
(0.120858 -0.0370549 0)
(0.227681 -0.240327 2.29142e-17)
(0.339666 -0.467533 2.26659e-17)
(0.474137 -0.692554 -2.25145e-17)
(0.618407 -0.874944 -2.24018e-17)
(0.77289 -1.00403 -1.47967e-21)
(0.924486 -1.07466 0)
(1.06996 -1.08567 0)
(1.19708 -1.04663 0)
(1.30619 -0.966874 0)
(1.39246 -0.85764 0)
(1.45834 -0.727146 6.47148e-17)
(1.49931 -0.586958 0)
(1.51821 -0.442112 -2.13057e-17)
(1.51324 -0.295612 -2.11694e-17)
(1.4873 -0.154179 0)
(1.43895 -0.0206921 0)
(1.37275 0.103214 0)
(1.2884 0.215873 0)
(1.1882 0.315514 -2.0503e-17)
(1.07304 0.398866 0)
(0.947951 0.471508 2.02488e-17)
(0.81024 0.536855 0)
(0.662805 0.591927 0)
(0.506993 0.637027 0)
(0.348222 0.673098 3.95252e-17)
(0.185485 0.700357 0)
(0.0212769 0.719781 -1.95223e-17)
(-0.143915 0.730107 3.87998e-17)
(-0.308396 0.733198 0)
(-0.475153 0.734858 0)
(-0.642157 0.731815 0)
(-0.808006 0.722328 -1.89166e-17)
(-0.970221 0.707048 -1.87958e-17)
(-1.12923 0.685516 0)
(-1.28341 0.658141 0)
(-1.43199 0.626551 3.68593e-17)
(-1.57351 0.592444 3.66197e-17)
(-1.71325 0.558052 -3.63815e-17)
(-1.8479 0.525221 0)
(-1.98063 0.491631 0)
(-2.10773 0.45949 0)
(-2.23118 0.430205 0)
(-2.35034 0.402701 3.52012e-17)
(-2.46345 0.373598 3.49676e-17)
(-2.57137 0.343968 -3.47357e-17)
(-2.67364 0.315346 0)
(-2.7698 0.287329 0)
(-2.86063 0.258119 0)
(-2.94607 0.231096 0)
(-3.03152 0.213125 3.35763e-17)
(-3.11098 0.197102 0)
(-3.18548 0.183704 0)
(-3.25339 0.175681 3.28787e-17)
(-3.3167 0.17032 3.26471e-17)
(-3.37446 0.163328 0)
(-3.42464 0.153976 -6.43609e-17)
(-3.47258 0.146924 3.19491e-17)
(-3.51675 0.140563 -3.17147e-17)
(-3.55486 0.136533 0)
(-3.59017 0.133503 0)
(-3.6195 0.129009 0)
(-3.64387 0.124131 0)
(-3.66559 0.118359 -3.05528e-17)
(-3.68319 0.110499 -6.0647e-17)
(-3.69512 0.103092 -3.0098e-17)
(-3.70357 0.0959217 2.98731e-17)
(-3.70463 0.0847493 0)
(-3.70024 0.0719645 -5.88409e-17)
(-3.68799 0.0561969 -5.83926e-17)
(-3.67025 0.0403495 -5.79477e-17)
(-3.64844 0.0228315 5.75058e-17)
(-3.61775 0.000738677 0)
(-3.58023 -0.0218134 8.49434e-17)
(-3.53684 -0.0412808 0)
(-3.48877 -0.0567845 -2.78784e-17)
(-3.43213 -0.0706831 -2.76656e-17)
(-3.36755 -0.0863778 0)
(-3.29684 -0.10324 0)
(-3.22261 -0.120017 -5.40433e-17)
(-3.14615 -0.134879 0)
(-3.06566 -0.149133 -5.31964e-17)
(-2.9826 -0.162788 0)
(-2.89492 -0.177201 5.23578e-17)
(-2.80368 -0.188605 1.03887e-16)
(-2.70872 -0.198423 0)
(-2.61286 -0.207625 0)
(-2.51398 -0.215047 0)
(-2.41635 -0.22114 5.02933e-17)
(-2.3171 -0.226932 0)
(-2.21449 -0.231586 4.94713e-17)
(-2.10915 -0.234814 0)
(-2.00332 -0.234049 0)
(-1.89524 -0.234201 -9.65103e-17)
(-1.78984 -0.231865 0)
(-1.6825 -0.231356 -4.74646e-17)
(-1.57944 -0.225309 0)
(-1.4722 -0.225975 -4.66971e-17)
(-1.36562 -0.225087 0)
(-1.25677 -0.224216 0)
(-1.14945 -0.227924 0)
(-1.03917 -0.230306 -1.357e-16)
(-0.939293 -0.221914 -4.4872e-17)
(-0.830336 -0.218807 0)
(-0.73742 -0.208449 0)
(-0.635872 -0.209931 0)
(-0.550359 -0.197719 0)
(-0.446481 -0.194065 4.32365e-17)
(-0.360449 -0.189502 -8.58376e-17)
(-0.253346 -0.206304 -4.26334e-17)
(-0.165954 -0.198101 8.46581e-17)
(-0.0462503 -0.213381 8.40944e-17)
(0.0554732 -0.210018 4.17615e-17)
(0.1856 -0.224925 0)
(0.298361 -0.226027 8.23977e-17)
(0.436918 -0.242445 0)
(0.569042 -0.251787 -8.12867e-17)
(0.717314 -0.257816 -4.03852e-17)
(0.863225 -0.262573 0)
(1.01803 -0.270409 7.97637e-17)
(1.16695 -0.272773 3.96288e-17)
(1.3287 -0.28148 0)
(1.48716 -0.277687 3.90907e-17)
(1.65958 -0.267932 -1.16511e-16)
(1.81955 -0.256682 0)
(1.98437 -0.256326 0)
(2.13685 -0.255962 0)
(2.29748 -0.259658 0)
(2.45443 -0.255312 -7.51561e-17)
(2.61086 -0.252133 -7.46571e-17)
(2.76236 -0.221326 0)
(2.90049 -0.214391 0)
(3.03144 -0.200798 0)
(3.15316 -0.198893 0)
(3.2597 -0.203559 0)
(3.37902 -0.20697 0)
(3.49172 -0.206275 -7.09542e-17)
(3.60404 -0.205791 -1.65142e-20)
(3.6992 -0.198704 0)
(3.80858 -0.209281 0)
(3.89881 -0.196804 -6.86094e-17)
(3.99085 -0.197843 0)
(4.07095 -0.176079 6.74268e-17)
(4.13908 -0.187219 6.68095e-17)
(4.18138 -0.170579 0)
(4.23543 -0.189143 0)
(4.27468 -0.164791 -6.49014e-17)
(4.32411 -0.155894 -1.28514e-16)
(4.35209 -0.160465 0)
(4.38486 -0.172135 0)
(4.42688 -0.163016 0)
(4.43932 -0.148063 -6.16895e-17)
(4.4671 -0.135316 6.10021e-17)
(4.46605 -0.135543 0)
(4.48586 -0.142117 1.19366e-16)
(4.4695 -0.130421 5.90292e-17)
(4.48716 -0.128753 -1.16763e-16)
(4.46468 -0.109893 0)
(4.46443 -0.116192 0)
(4.43289 -0.0943674 -1.12743e-16)
(4.39114 -0.0665171 -5.57149e-17)
(4.30445 -0.0365087 0)
(4.23955 -0.0345456 0)
(4.1062 -0.0168326 0)
(3.99543 0.0247953 0)
(3.78436 0.0507881 -1.05589e-16)
(3.61597 0.095342 0)
(3.3187 0.166253 0)
(3.0626 0.190182 0)
(2.71334 0.219078 0)
(2.40007 0.202951 0)
(2.01002 0.187264 0)
(1.77357 0.152377 -1.00636e-16)
(1.37078 0.147926 0)
(1.2447 0.0806955 0)
(0.861001 0.104316 -1.99422e-16)
(0.858422 0.0196675 9.92513e-17)
(0.475905 0.112072 -9.93994e-17)
(0.67173 -0.125449 9.87788e-17)
(0.0206401 -0.0931796 0)
(0.124878 -0.267789 -4.69578e-17)
(0.247595 -0.488651 0)
(0.37567 -0.754737 -2.27981e-17)
(0.502586 -0.999057 0)
(0.618964 -1.18848 0)
(0.723883 -1.30651 2.2447e-17)
(0.804753 -1.35007 0)
(0.867819 -1.32033 0)
(0.907178 -1.23458 0)
(0.92936 -1.1118 0)
(0.932241 -0.962532 0)
(0.920711 -0.795433 -8.66191e-17)
(0.892066 -0.618305 -4.30266e-17)
(0.849842 -0.435525 4.27472e-17)
(0.793725 -0.254484 0)
(0.725712 -0.0818057 0)
(0.644341 0.0798443 0)
(0.553062 0.229015 0)
(0.45143 0.362786 0)
(0.342296 0.480768 -4.11512e-17)
(0.223878 0.583038 -4.08985e-17)
(0.0975091 0.674094 4.06493e-17)
(-0.0346668 0.750388 -4.04016e-17)
(-0.170958 0.813414 0)
(-0.310005 0.86175 0)
(-0.450586 0.897987 -3.96582e-17)
(-0.591537 0.922812 0)
(-0.733415 0.936964 0)
(-0.875818 0.94553 -3.89249e-17)
(-1.01882 0.951021 -3.86816e-17)
(-1.15973 0.948783 -3.84373e-17)
(-1.29764 0.939738 0)
(-1.43227 0.924428 0)
(-1.56235 0.902926 3.76937e-17)
(-1.68744 0.873217 0)
(-1.80856 0.837584 0)
(-1.92606 0.797993 -3.69489e-17)
(-2.0405 0.759816 3.66974e-17)
(-2.15329 0.721552 -3.64487e-17)
(-2.25955 0.682659 0)
(-2.36423 0.643291 0)
(-2.46487 0.607109 -7.1421e-17)
(-2.56262 0.572969 0)
(-2.65486 0.534894 -7.04552e-17)
(-2.74352 0.496735 -1.04966e-16)
(-2.82842 0.460772 1.04245e-16)
(-2.908 0.424339 -6.90162e-17)
(-2.98434 0.386924 0)
(-3.0581 0.351057 0)
(-3.13146 0.322677 -6.76039e-17)
(-3.2021 0.297958 -3.35715e-17)
(-3.26638 0.272118 0)
(-3.32647 0.25074 0)
(-3.3819 0.235164 -3.28794e-17)
(-3.43193 0.21819 -6.5299e-17)
(-3.47564 0.199107 0)
(-3.51341 0.181055 6.43809e-17)
(-3.54711 0.16644 -6.39216e-17)
(-3.57565 0.152706 6.34658e-17)
(-3.59805 0.13845 0)
(-3.61464 0.125128 0)
(-3.62665 0.113661 0)
(-3.63352 0.10196 0)
(-3.63676 0.0913585 0)
(-3.6352 0.0760669 6.07755e-17)
(-3.6293 0.0594968 0)
(-3.61619 0.0411056 0)
(-3.59728 0.020398 0)
(-3.57406 -0.00124133 1.1805e-16)
(-3.54538 -0.0249713 5.85927e-17)
(-3.51184 -0.0486851 5.81592e-17)
(-3.47342 -0.0754412 -1.1546e-16)
(-3.42856 -0.106602 5.7305e-17)
(-3.38041 -0.136514 -5.68857e-17)
(-3.326 -0.163976 0)
(-3.26682 -0.190017 5.6039e-17)
(-3.19775 -0.216787 0)
(-3.12457 -0.242098 0)
(-3.04578 -0.264077 0)
(-2.96553 -0.284983 1.08722e-16)
(-2.88311 -0.304249 -5.39479e-17)
(-2.79743 -0.323372 -5.35346e-17)
(-2.71043 -0.342283 -1.06274e-16)
(-2.61949 -0.362291 -1.58222e-16)
(-2.5275 -0.378223 -5.23454e-17)
(-2.43077 -0.391319 0)
(-2.33432 -0.402818 -1.03075e-16)
(-2.23639 -0.410813 0)
(-2.13844 -0.416982 -1.52211e-16)
(-2.03987 -0.426829 0)
(-1.94231 -0.433199 -1.49837e-16)
(-1.83873 -0.439431 0)
(-1.73466 -0.440054 0)
(-1.62593 -0.441608 -4.87489e-17)
(-1.51865 -0.43848 0)
(-1.40812 -0.438113 4.79749e-17)
(-1.30242 -0.433464 9.51616e-17)
(-1.18877 -0.435224 4.72063e-17)
(-1.07903 -0.43694 9.36548e-17)
(-0.960633 -0.43751 -9.28978e-17)