/*--------------------------------*- C++ -*----------------------------------*\
| =========                 |                                                 |
| \\      /  F ield         | OpenFOAM: The Open Source CFD Toolbox           |
|  \\    /   O peration     | Version:  dev                                   |
|   \\  /    A nd           | Web:      http://www.openfoam.org               |
|    \\/     M anipulation  |                                                 |
\*---------------------------------------------------------------------------*/
FoamFile
{
    version     2.0;
    format      ascii;
    class       volSymmTensorField;
    object      UPrime2Mean;
    location    "9.167";
}
// * * * * * * * * * * * * * * * * * * * * * * * * * * * * * * * * * * * * * //

dimensions      [0 2 -2 0 0 0 0];

internalField   nonuniform List<symmTensor> 
12225
(
(0.329238 0.0192487 0 0.0691611 0 0)
(2.98618 0.0796087 0 0.0780697 0 0)
(7.88038 0.112174 0 0.0767751 0 0)
(14.5344 0.14801 0 0.0754525 0 0)
(22.703 0.132777 0 0.0764005 0 0)
(32.067 0.20078 0 0.0745564 0 0)
(42.3795 0.0956809 0 0.0765009 0 0)
(53.5229 0.200042 0 0.0737395 0 0)
(65.6162 -0.0287695 0 0.077507 0 0)
(78.213 0.125299 0 0.0735117 0 0)
(92.9581 -0.306533 0 0.0812138 0 0)
(107.299 -0.116028 0 0.0768888 0 0)
(127.907 -0.672619 0 0.0862305 0 0)
(145.607 -1.27687 0 0.134577 0 0)
(185.925 -1.4111 0 0.116365 0 0)
(198.5 -0.394261 0 2.39273 0 0)
(272.269 -33.5277 0 5.80591 0 0)
(575.745 -52.9202 0 18.816 0 0)
(0.377403 0.0567388 0 0.687916 0 0)
(3.15614 0.251968 0 0.73114 0 0)
(8.41071 0.361717 0 0.713032 0 0)
(15.4734 0.484778 0 0.705537 0 0)
(24.197 0.452365 0 0.70242 0 0)
(34.4557 0.631938 0 0.682274 0 0)
(45.5229 0.295418 0 0.691086 0 0)
(58.4774 0.608073 0 0.657786 0 0)
(71.4675 -0.135831 0 0.68168 0 0)
(87.1407 0.281882 0 0.645018 0 0)
(102.773 -1.06567 0 0.710385 0 0)
(121.414 -0.766165 0 0.654595 0 0)
(142.835 -2.54337 0 1.068 0 0)
(166.293 -4.48888 0 1.04572 0 0)
(199.759 -0.930267 0 3.10175 0 0)
(274.334 -9.97412 0 6.60121 0 0)
(281.029 -20.8337 0 8.73444 0 0)
(799.785 -185.143 0 64.679 0 0)
(0.504856 0.0583241 0 2.13729 0 0)
(3.06389 0.424157 0 2.19911 0 0)
(8.46526 0.569912 0 2.14813 0 0)
(14.8523 0.850876 0 2.13962 0 0)
(24.2743 0.863424 0 2.11659 0 0)
(33.1492 1.05164 0 2.07944 0 0)
(45.2679 0.755032 0 2.07524 0 0)
(56.1986 0.88476 0 2.00459 0 0)
(69.6813 0.171036 0 2.04877 0 0)
(83.442 0.0158018 0 1.95651 0 0)
(98.1808 -1.12465 0 2.11985 0 0)
(115.655 -2.44824 0 2.0918 0 0)
(138.61 -3.59728 0 2.6199 0 0)
(154.866 -7.19911 0 2.82867 0 0)
(210.989 -13.0058 0 6.1186 0 0)
(223.396 -7.894 0 6.37366 0 0)
(352.971 -62.2474 0 31.076 0 0)
(534.444 -192.443 0 98.1976 0 0)
(1.02898 0.0923335 0 4.66332 0 0)
(3.54884 0.618786 0 4.75973 0 0)
(9.06765 0.815012 0 4.63575 0 0)
(15.0657 1.14861 0 4.59505 0 0)
(24.6347 1.31132 0 4.55089 0 0)
(32.9826 1.34803 0 4.47666 0 0)
(45.0028 1.25941 0 4.44179 0 0)
(55.1658 0.971374 0 4.34349 0 0)
(68.5975 0.473817 0 4.37533 0 0)
(80.7106 -0.284611 0 4.2519 0 0)
(96.033 -1.33307 0 4.50141 0 0)
(110.51 -3.34283 0 4.36659 0 0)
(131.47 -4.79562 0 5.29681 0 0)
(152.248 -10.9711 0 5.6024 0 0)
(187.85 -11.4314 0 9.28438 0 0)
(238.403 -28.8584 0 16.8135 0 0)
(291.44 -58.9013 0 32.669 0 0)
(414.79 -178.306 0 107.828 0 0)
(1.86238 0.364826 0 8.50972 0 0)
(5.00831 0.719592 0 8.71092 0 0)
(9.43463 1.13888 0 8.46017 0 0)
(16.2413 1.29321 0 8.35718 0 0)
(24.6474 1.69875 0 8.26778 0 0)
(33.9458 1.5003 0 8.13287 0 0)
(44.8183 1.59516 0 8.03247 0 0)
(55.5216 0.990247 0 7.90065 0 0)
(68.4126 0.597368 0 7.84791 0 0)
(80.1201 -0.596864 0 7.75039 0 0)
(95.3685 -1.78203 0 7.95237 0 0)
(108.556 -4.23058 0 7.89999 0 0)
(128.093 -6.88226 0 9.01731 0 0)
(145.221 -12.2896 0 9.25914 0 0)
(173.956 -19.2019 0 14.5827 0 0)
(217.871 -25.9539 0 17.1991 0 0)
(233.667 -55.5683 0 46.2534 0 0)
(326.621 -171.712 0 138.636 0 0)
(2.56108 0.750058 0 14.0186 0 0)
(6.32355 0.806627 0 14.37 0 0)
(9.29953 1.53845 0 13.9408 0 0)
(17.0958 1.59298 0 13.7463 0 0)
(24.14 2.11811 0 13.5719 0 0)
(34.2655 1.93407 0 13.3403 0 0)
(43.9746 1.98778 0 13.1356 0 0)
(55.1706 1.41197 0 12.8952 0 0)
(67.3267 0.890475 0 12.7593 0 0)
(78.9088 -0.390061 0 12.5587 0 0)
(94.4238 -1.74268 0 12.76 0 0)
(105.829 -4.31654 0 12.6687 0 0)
(128.109 -7.27004 0 13.9722 0 0)
(137.937 -13.1594 0 14.6515 0 0)
(170.96 -21.8362 0 21.2348 0 0)
(191.463 -33.0406 0 24.5849 0 0)
(211.071 -55.9109 0 51.5479 0 0)
(265.615 -145.607 0 130.579 0 0)
(2.24375 0.721098 0 21.4996 0 0)
(5.54241 0.940553 0 22.1149 0 0)
(9.19973 1.76189 0 21.3418 0 0)
(16.3394 2.07532 0 21.1543 0 0)
(23.9732 2.44682 0 20.7564 0 0)
(33.3645 2.53933 0 20.5235 0 0)
(43.6124 2.27008 0 20.0562 0 0)
(54.0512 1.92371 0 19.8266 0 0)
(66.4874 0.891854 0 19.4099 0 0)
(77.3643 -0.223468 0 19.2574 0 0)
(92.5194 -2.37727 0 19.1988 0 0)
(103.501 -4.82811 0 19.2417 0 0)
(123.64 -8.98598 0 20.4525 0 0)
(133.925 -14.2641 0 21.4307 0 0)
(161.53 -24.4027 0 28.4917 0 0)
(169.372 -32.4101 0 32.0293 0 0)
(203.363 -59 0 56.8247 0 0)
(190.225 -108.733 0 114.068 0 0)
(1.42412 0.598271 0 29.7091 0 0)
(4.3215 1.13388 0 30.5933 0 0)
(8.58309 1.92203 0 29.4479 0 0)
(15.2516 2.46996 0 29.2768 0 0)
(23.2074 2.7738 0 28.6327 0 0)
(32.2667 2.95914 0 28.3721 0 0)
(42.4208 2.59325 0 27.6218 0 0)
(52.7918 2.1857 0 27.3417 0 0)
(64.4301 1.00126 0 26.6196 0 0)
(75.6171 -0.369599 0 26.4549 0 0)
(88.6483 -2.75851 0 26.0732 0 0)
(100.432 -5.74157 0 26.2983 0 0)
(115.547 -10.3275 0 27.0559 0 0)
(128.076 -15.8042 0 28.5709 0 0)
(144.659 -26.4927 0 33.8837 0 0)
(152.022 -33.4591 0 37.4493 0 0)
(180.314 -54.8831 0 53.1466 0 0)
(139.592 -71.2995 0 83.647 0 0)
(1.0072 0.520957 0 38.4667 0 0)
(3.77791 1.28682 0 39.6594 0 0)
(8.17987 2.03368 0 38.1243 0 0)
(14.7275 2.77662 0 37.9834 0 0)
(22.6531 3.0018 0 37.075 0 0)
(31.5867 3.31077 0 36.8003 0 0)
(41.5052 2.79918 0 35.7512 0 0)
(51.775 2.4666 0 35.4332 0 0)
(62.8305 1.03122 0 34.4266 0 0)
(73.8436 -0.289128 0 34.2272 0 0)
(85.6605 -3.05398 0 33.5985 0 0)
(97.0169 -5.91187 0 33.8589 0 0)
(109.342 -10.9562 0 34.3695 0 0)
(121.214 -16.0462 0 36.0895 0 0)
(131.221 -25.5665 0 39.972 0 0)
(138.139 -33.209 0 44.7021 0 0)
(149.982 -47.3177 0 52.4277 0 0)
(123.212 -58.7444 0 73.0773 0 0)
(0.611933 0.484191 0 49.6362 0 0)
(3.23542 1.44456 0 51.2221 0 0)
(7.74097 2.18415 0 49.1289 0 0)
(14.1974 3.0323 0 49.0416 0 0)
(21.9906 3.26878 0 47.7543 0 0)
(30.8472 3.5733 0 47.4754 0 0)
(40.4705 3.05816 0 46.0166 0 0)
(50.6035 2.62862 0 45.6487 0 0)
(61.1258 1.15307 0 44.2319 0 0)
(71.7919 -0.303059 0 43.9893 0 0)
(82.6717 -3.15234 0 42.9477 0 0)
(93.2121 -6.04959 0 43.2676 0 0)
(103.85 -11.1037 0 43.2703 0 0)
(113.712 -15.8551 0 45.1274 0 0)
(121.32 -24.5119 0 47.6318 0 0)
(125.757 -30.5756 0 51.9023 0 0)
(129.092 -40.718 0 56.4238 0 0)
(116.004 -48.3869 0 68.9836 0 0)
(0.433982 0.515736 0 63.8089 0 0)
(2.97849 1.62563 0 65.861 0 0)
(7.46851 2.38069 0 63.1733 0 0)
(13.8436 3.30597 0 63.0616 0 0)
(21.4884 3.56422 0 61.4303 0 0)
(30.1846 3.85226 0 61.0165 0 0)
(39.5413 3.34824 0 59.2115 0 0)
(49.3773 2.8089 0 58.6178 0 0)
(59.4447 1.35881 0 56.9002 0 0)
(69.545 -0.279504 0 56.3839 0 0)
(79.6379 -2.99464 0 55.0844 0 0)
(89.1698 -6.09519 0 55.1418 0 0)
(98.4844 -10.5664 0 54.7985 0 0)
(106.359 -15.4285 0 56.3473 0 0)
(112.522 -22.1416 0 57.7931 0 0)
(115.055 -28.0555 0 61.5232 0 0)
(116 -35.1993 0 64.4907 0 0)
(109.553 -40.7965 0 71.3889 0 0)
(0.356248 0.539967 0 81.2756 0 0)
(2.83089 1.74271 0 83.9569 0 0)
(7.26029 2.55153 0 80.4944 0 0)
(13.5133 3.49634 0 80.3853 0 0)
(20.9846 3.80264 0 78.3021 0 0)
(29.4607 4.02879 0 77.75 0 0)
(38.5152 3.55138 0 75.4644 0 0)
(47.9817 2.90849 0 74.6414 0 0)
(57.5317 1.46911 0 72.4531 0 0)
(67.0211 -0.235994 0 71.6681 0 0)
(76.2307 -2.88607 0 69.9163 0 0)
(84.8132 -5.87147 0 69.6594 0 0)
(92.7163 -9.97524 0 68.8273 0 0)
(99.1428 -14.303 0 69.7828 0 0)
(103.855 -19.7482 0 70.428 0 0)
(105.799 -24.6601 0 72.9339 0 0)
(105.955 -29.8239 0 74.8784 0 0)
(101.711 -33.3078 0 78.5366 0 0)
(0.329186 0.568404 0 102.322 0 0)
(2.73546 1.80428 0 105.527 0 0)
(7.06719 2.67929 0 101.507 0 0)
(13.152 3.57781 0 101.038 0 0)
(20.4279 3.92651 0 98.7774 0 0)
(28.609 4.04614 0 97.6995 0 0)
(37.339 3.6053 0 95.1888 0 0)
(46.3356 2.82241 0 93.742 0 0)
(55.3604 1.46196 0 91.3096 0 0)
(64.1375 -0.355396 0 89.8617 0 0)
(72.5128 -2.77344 0 87.839 0 0)
(80.0993 -5.70431 0 86.868 0 0)
(86.8176 -9.21396 0 85.6599 0 0)
(92.0762 -13.1022 0 85.6701 0 0)
(95.7764 -17.3192 0 85.6232 0 0)
(97.3605 -21.3848 0 86.7676 0 0)
(97.4631 -25.2282 0 87.7977 0 0)
(94.6601 -27.6831 0 89.4054 0 0)
(0.313601 0.572625 0 126.28 0 0)
(2.64015 1.77147 0 130.204 0 0)
(6.84638 2.66365 0 125.501 0 0)
(12.7278 3.4577 0 124.692 0 0)
(19.7616 3.78443 0 122.165 0 0)
(27.6089 3.79742 0 120.591 0 0)
(35.9469 3.3232 0 117.712 0 0)
(44.4528 2.47569 0 115.682 0 0)
(52.8859 1.12053 0 112.826 0 0)
(60.976 -0.642917 0 110.74 0 0)
(68.5215 -2.91084 0 108.253 0 0)
(75.2419 -5.54252 0 106.531 0 0)
(80.9771 -8.59725 0 104.767 0 0)
(85.4243 -11.8201 0 103.767 0 0)
(88.4684 -15.1822 0 102.939 0 0)
(89.9054 -18.349 0 102.768 0 0)
(90.2075 -21.2673 0 102.784 0 0)
(88.2453 -22.9143 0 102.94 0 0)
(0.2992 0.524192 0 151.659 0 0)
(2.53222 1.57945 0 156.154 0 0)
(6.58224 2.374 0 151.032 0 0)
(12.23 2.98309 0 149.595 0 0)
(18.9686 3.20581 0 147.04 0 0)
(26.4446 3.06323 0 144.731 0 0)
(34.3418 2.52242 0 141.646 0 0)
(42.3277 1.59014 0 138.844 0 0)
(50.1611 0.260738 0 135.65 0 0)
(57.5771 -1.44402 0 132.778 0 0)
(64.387 -3.50553 0 129.831 0 0)
(70.3631 -5.84278 0 127.264 0 0)
(75.3748 -8.41918 0 124.866 0 0)
(79.2598 -11.0707 0 122.868 0 0)
(81.9568 -13.7082 0 121.159 0 0)
(83.374 -16.1723 0 119.824 0 0)
(83.9561 -18.3703 0 118.739 0 0)
(82.7495 -19.4169 0 117.632 0 0)
(0.283931 0.393716 0 174.847 0 0)
(2.41385 1.14399 0 180.039 0 0)
(6.28208 1.66826 0 174.439 0 0)
(11.6684 1.99993 0 172.559 0 0)
(18.0733 1.99676 0 169.881 0 0)
(25.1509 1.65977 0 167.034 0 0)
(32.5802 0.979122 0 163.652 0 0)
(40.046 -0.029737 0 160.261 0 0)
(47.301 -1.36389 0 156.649 0 0)
(54.1119 -2.97549 0 153.141 0 0)
(60.3009 -4.8434 0 149.659 0 0)
(65.7039 -6.87376 0 146.373 0 0)
(70.2159 -9.02748 0 143.282 0 0)
(73.7639 -11.1749 0 140.432 0 0)
(76.3184 -13.2383 0 137.846 0 0)
(77.8439 -15.1373 0 135.526 0 0)
(78.7253 -16.7845 0 133.419 0 0)
(78.177 -17.383 0 131.225 0 0)
(0.268705 0.15635 0 189.936 0 0)
(2.29301 0.390993 0 195.6 0 0)
(5.96564 0.488954 0 189.714 0 0)
(11.0729 0.410538 0 187.574 0 0)
(17.1277 0.0741176 0 184.831 0 0)
(23.7976 -0.53397 0 181.665 0 0)
(30.7654 -1.40281 0 178.091 0 0)
(37.7356 -2.52469 0 174.344 0 0)
(44.4723 -3.87396 0 170.438 0 0)
(50.7693 -5.41349 0 166.525 0 0)
(56.4737 -7.09984 0 162.639 0 0)
(61.4641 -8.86791 0 158.865 0 0)
(65.6648 -10.6632 0 155.235 0 0)
(69.0467 -12.4078 0 151.779 0 0)
(71.6025 -14.0258 0 148.519 0 0)
(73.3212 -15.4956 0 145.481 0 0)
(74.5155 -16.7315 0 142.594 0 0)
(74.5601 -17.0534 0 139.605 0 0)
(0.259062 -0.141982 0 189.909 0 0)
(2.19553 -0.532728 0 195.531 0 0)
(5.68906 -0.935353 0 189.708 0 0)
(10.5402 -1.48973 0 187.559 0 0)
(16.2794 -2.20939 0 184.859 0 0)
(22.5892 -3.11106 0 181.699 0 0)
(29.1615 -4.1839 0 178.151 0 0)
(35.7237 -5.42213 0 174.406 0 0)
(42.0532 -6.79531 0 170.487 0 0)
(47.9725 -8.27479 0 166.54 0 0)
(53.3454 -9.81381 0 162.572 0 0)
(58.0837 -11.3699 0 158.692 0 0)
(62.1263 -12.8901 0 154.886 0 0)
(65.4671 -14.3311 0 151.228 0 0)
(68.1049 -15.6278 0 147.693 0 0)
(70.0451 -16.787 0 144.36 0 0)
(71.521 -17.7336 0 141.117 0 0)
(72.055 -17.9391 0 137.793 0 0)
(0.255876 -0.395406 0 174.115 0 0)
(2.13631 -1.30343 0 179.058 0 0)
(5.4983 -2.12339 0 173.736 0 0)
(10.1596 -3.07035 0 171.746 0 0)
(15.6654 -4.09746 0 169.268 0 0)
(21.711 -5.22542 0 166.383 0 0)
(27.9994 -6.44717 0 163.136 0 0)
(34.2761 -7.75956 0 159.718 0 0)
(40.331 -9.13414 0 156.118 0 0)
(46.0076 -10.551 0 152.494 0 0)
(51.1808 -11.9682 0 148.816 0 0)
(55.7822 -13.3592 0 145.215 0 0)
(59.7586 -14.6791 0 141.638 0 0)
(63.114 -15.9046 0 138.192 0 0)
(65.8465 -16.9845 0 134.813 0 0)
(67.9735 -17.9337 0 131.617 0 0)
(69.664 -18.6911 0 128.468 0 0)
(70.5611 -18.8794 0 125.273 0 0)
(0.257322 -0.544285 0 148.717 0 0)
(2.1085 -1.74383 0 152.668 0 0)
(5.38384 -2.81732 0 148.139 0 0)
(9.91748 -3.99876 0 146.424 0 0)
(15.2666 -5.20072 0 144.306 0 0)
(21.1354 -6.44816 0 141.856 0 0)
(27.236 -7.73308 0 139.096 0 0)
(33.3267 -9.05727 0 136.195 0 0)
(39.2077 -10.3934 0 133.128 0 0)
(44.7353 -11.7314 0 130.041 0 0)
(49.7942 -13.0332 0 126.89 0 0)
(54.3252 -14.2854 0 123.8 0 0)
(58.2821 -15.4488 0 120.71 0 0)
(61.6705 -16.5143 0 117.727 0 0)
(64.4894 -17.4385 0 114.782 0 0)
(66.7611 -18.2402 0 111.989 0 0)
(68.6106 -18.8691 0 109.221 0 0)
(69.7708 -19.0789 0 106.435 0 0)
(0.260182 -0.600041 0 119.858 0 0)
(2.09952 -1.88586 0 122.823 0 0)
(5.31774 -3.06164 0 119.18 0 0)
(9.766 -4.33248 0 117.788 0 0)
(15.0102 -5.58884 0 116.085 0 0)
(20.7614 -6.85682 0 114.123 0 0)
(26.7383 -8.12614 0 111.914 0 0)
(32.7083 -9.40211 0 109.591 0 0)
(38.4789 -10.6594 0 107.13 0 0)
(43.9149 -11.8948 0 104.65 0 0)
(48.9087 -13.0746 0 102.112 0 0)
(53.4058 -14.1942 0 99.6176 0 0)
(57.3649 -15.2192 0 97.1169 0 0)
(60.7909 -16.1494 0 94.6953 0 0)
(63.6839 -16.9481 0 92.301 0 0)
(66.0689 -17.6345 0 90.0212 0 0)
(68.0405 -18.168 0 87.7601 0 0)
(69.3993 -18.4038 0 85.4886 0 0)
(0.263116 -0.589303 0 91.7499 0 0)
(2.09914 -1.82634 0 93.8619 0 0)
(5.27992 -2.99088 0 91.0752 0 0)
(9.67129 -4.23914 0 90.0032 0 0)
(14.845 -5.45752 0 88.7058 0 0)
(20.5175 -6.66838 0 87.2133 0 0)
(26.4127 -7.86131 0 85.5352 0 0)
(32.3039 -9.04124 0 83.7659 0 0)
(38.0044 -10.1875 0 81.893 0 0)
(43.3841 -11.2987 0 79.9988 0 0)
(48.3414 -12.348 0 78.061 0 0)
(52.824 -13.3337 0 76.1495 0 0)
(56.7945 -14.2283 0 74.2344 0 0)
(60.2557 -15.0343 0 72.374 0 0)
(63.2097 -15.7236 0 70.5356 0 0)
(65.6833 -16.3112 0 68.7784 0 0)
(67.7493 -16.7678 0 67.0385 0 0)
(69.2609 -17.0174 0 65.2883 0 0)
(0.266187 -0.535645 0 66.834 0 0)
(2.10295 -1.6476 0 68.2721 0 0)
(5.25857 -2.72544 0 66.2434 0 0)
(9.61219 -3.87632 0 65.4617 0 0)
(14.7386 -4.99412 0 64.5249 0 0)
(20.3587 -6.0947 0 63.4447 0 0)
(26.2004 -7.17003 0 62.2323 0 0)
(32.0405 -8.22197 0 60.9485 0 0)
(37.697 -9.23571 0 59.5917 0 0)
(43.0432 -10.2087 0 58.214 0 0)
(47.9815 -11.1219 0 56.8072 0 0)
(52.461 -11.9726 0 55.4147 0 0)
(56.4465 -12.7415 0 54.0229 0 0)
(59.9398 -13.4303 0 52.6662 0 0)
(62.9438 -14.0194 0 51.3283 0 0)
(65.4864 -14.518 0 50.0445 0 0)
(67.6249 -14.9079 0 48.7768 0 0)
(69.2543 -15.1557 0 47.4978 0 0)
(0.26805 -0.461971 0 46.2206 0 0)
(2.10736 -1.41319 0 47.1579 0 0)
(5.24671 -2.35931 0 45.7593 0 0)
(9.57536 -3.36892 0 45.222 0 0)
(14.6701 -4.34845 0 44.5818 0 0)
(20.2557 -5.30733 0 43.8391 0 0)
(26.0627 -6.24053 0 43.0063 0 0)
(31.8704 -7.14631 0 42.1203 0 0)
(37.5002 -8.01574 0 41.1862 0 0)
(42.8271 -8.84411 0 40.2345 0 0)
(47.7562 -9.61917 0 39.266 0 0)
(52.2377 -10.3369 0 38.3049 0 0)
(56.2376 -10.9849 0 37.3468 0 0)
(59.757 -11.5627 0 36.4103 0 0)
(62.7989 -12.058 0 35.4885 0 0)
(65.3924 -12.4746 0 34.6008 0 0)
(67.5829 -12.8024 0 33.7273 0 0)
(69.2982 -13.0328 0 32.8426 0 0)
(0.269207 -0.382344 0 30.1129 0 0)
(2.11088 -1.16247 0 30.6964 0 0)
(5.23994 -1.95469 0 29.7876 0 0)
(9.55185 -2.80225 0 29.4409 0 0)
(14.6253 -3.62463 0 29.0294 0 0)
(20.1876 -4.42802 0 28.5495 0 0)
(25.9716 -5.20864 0 28.0112 0 0)
(31.7572 -5.96348 0 27.4364 0 0)
(37.3681 -6.686 0 26.8313 0 0)
(42.6804 -7.37145 0 26.2138 0 0)
(47.6012 -8.01127 0 25.5867 0 0)
(52.0801 -8.60131 0 24.9633 0 0)
(56.0854 -9.1336 0 24.3433 0 0)
(59.6169 -9.60624 0 23.7356 0 0)
(62.6786 -10.0117 0 23.1384 0 0)
(65.2979 -10.3502 0 22.5616 0 0)
(67.5153 -10.6173 0 21.9955 0 0)
(69.2836 -10.8149 0 21.4208 0 0)
(0.269509 -0.304008 0 18.1844 0 0)
(2.11262 -0.918076 0 18.5281 0 0)
(5.23455 -1.55128 0 17.9782 0 0)
(9.53242 -2.23306 0 17.7725 0 0)
(14.5868 -2.89619 0 17.5298 0 0)
(20.1271 -3.54527 0 17.2457 0 0)
(25.8866 -4.17555 0 16.926 0 0)
(31.6467 -4.78371 0 16.5836 0 0)
(37.2319 -5.3632 0 16.2223 0 0)
(42.519 -5.91053 0 15.8529 0 0)
(47.4172 -6.41841 0 15.4768 0 0)
(51.8751 -6.88449 0 15.1023 0 0)
(55.8646 -7.30194 0 14.7294 0 0)
(59.3833 -7.67046 0 14.3632 0 0)
(62.4397 -7.98425 0 14.0033 0 0)
(65.0563 -8.24387 0 13.6548 0 0)
(67.2769 -8.44848 0 13.3134 0 0)
(69.0726 -8.59888 0 12.9671 0 0)
(0.269165 -0.227828 0 9.86729 0 0)
(2.11036 -0.689985 0 10.0506 0 0)
(5.21733 -1.17653 0 9.7538 0 0)
(9.48895 -1.70537 0 9.65159 0 0)
(14.5131 -2.21899 0 9.52737 0 0)
(20.02 -2.71869 0 9.37839 0 0)
(25.7426 -3.20015 0 9.20797 0 0)
(31.4647 -3.66089 0 9.02402 0 0)
(37.0108 -4.09515 0 8.82858 0 0)
(42.2607 -4.50136 0 8.62789 0 0)
(47.1229 -4.87393 0 8.42256 0 0)
(51.5507 -5.21301 0 8.21775 0 0)
(55.5149 -5.51279 0 8.0129 0 0)
(59.0174 -5.77548 0 7.81197 0 0)
(62.0655 -5.99495 0 7.614 0 0)
(64.6811 -6.17476 0 7.423 0 0)
(66.9054 -6.31785 0 7.23653 0 0)
(68.7345 -6.41991 0 7.04862 0 0)
(0.268017 -0.154509 0 4.47924 0 0)
(2.0835 -0.49695 0 4.57474 0 0)
(5.15606 -0.850813 0 4.44974 0 0)
(9.38816 -1.22655 0 4.41416 0 0)
(14.3867 -1.58302 0 4.36316 0 0)
(19.8681 -1.92483 0 4.29882 0 0)
(25.5641 -2.24935 0 4.22162 0 0)
(31.2602 -2.55432 0 4.13527 0 0)
(36.7833 -2.83814 0 4.04238 0 0)
(42.0125 -3.10199 0 3.9467 0 0)
(46.8581 -3.34295 0 3.84905 0 0)
(51.2766 -3.56186 0 3.75211 0 0)
(55.235 -3.75498 0 3.65537 0 0)
(58.7434 -3.92438 0 3.56154 0 0)
(61.7982 -4.06392 0 3.46902 0 0)
(64.4326 -4.17893 0 3.38169 0 0)
(66.6542 -4.26939 0 3.29659 0 0)
(68.5114 -4.33943 0 3.21252 0 0)
(0.255128 -0.0880156 0 1.41883 0 0)
(2.06756 -0.312871 0 1.48448 0 0)
(5.20453 -0.525028 0 1.44449 0 0)
(9.49507 -0.733026 0 1.43136 0 0)
(14.5471 -0.922799 0 1.41127 0 0)
(20.0797 -1.10514 0 1.38804 0 0)
(25.8319 -1.28153 0 1.36144 0 0)
(31.5872 -1.44943 0 1.33215 0 0)
(37.1718 -1.60719 0 1.30121 0 0)
(42.46 -1.75461 0 1.26965 0 0)
(47.3651 -1.89021 0 1.23788 0 0)
(51.8359 -2.01399 0 1.20652 0 0)
(55.8441 -2.12393 0 1.17552 0 0)
(59.3923 -2.22069 0 1.1456 0 0)
(62.4803 -2.30017 0 1.11638 0 0)
(65.1462 -2.36634 0 1.08994 0 0)
(67.3674 -2.41893 0 1.06477 0 0)
(69.2166 -2.45841 0 1.03785 0 0)
(0.245819 -0.0252765 0 0.141627 0 0)
(2.06538 -0.0976391 0 0.153395 0 0)
(5.18338 -0.165245 0 0.150613 0 0)
(9.44305 -0.230365 0 0.149445 0 0)
(14.4763 -0.293154 0 0.147145 0 0)
(19.9962 -0.353389 0 0.144421 0 0)
(25.7418 -0.412122 0 0.141427 0 0)
(31.4945 -0.468545 0 0.1383 0 0)
(37.0861 -0.521822 0 0.135082 0 0)
(42.3922 -0.57177 0 0.131835 0 0)
(47.3274 -0.618082 0 0.128582 0 0)
(51.8389 -0.660728 0 0.125384 0 0)
(55.9004 -0.699136 0 0.122246 0 0)
(59.507 -0.73316 0 0.119227 0 0)
(62.6651 -0.762066 0 0.116406 0 0)
(65.4076 -0.787297 0 0.114073 0 0)
(67.7189 -0.805501 0 0.112002 0 0)
(69.6457 -0.814799 0 0.11162 0 0)
(0.0244648 0.0357194 0 0.716449 0 0)
(0.267075 0.0989601 0 0.677574 0 0)
(0.784894 0.180663 0 0.670404 0 0)
(1.53778 0.294578 0 0.661172 0 0)
(2.48397 0.423465 0 0.659552 0 0)
(3.60525 0.568127 0 0.656289 0 0)
(4.8797 0.715012 -2.38293e-19 0.654343 -6.47213e-20 1.47685e-37)
(6.30456 0.865697 2.42308e-19 0.650063 6.90273e-20 1.48135e-37)
(7.87326 1.01238 0 0.644077 0 0)
(9.58388 1.15952 2.4473e-19 0.636519 6.84581e-20 1.45914e-37)
(11.4313 1.30326 0 0.627943 0 0)
(13.4095 1.44588 0 0.61885 0 0)
(15.5118 1.58277 0 0.610896 0 0)
(17.732 1.71428 -2.77206e-19 0.604424 -5.16135e-20 1.34567e-37)
(20.0636 1.83725 0 0.598209 0 0)
(22.5072 1.95076 0 0.59298 0 0)
(25.0629 2.05062 3.40218e-19 0.588689 3.90028e-20 1.21929e-37)
(27.7293 2.13847 0 0.584246 0 0)
(30.5014 2.21693 0 0.579594 0 0)
(33.3734 2.28822 0 0.575163 0 0)
(36.3295 2.35137 -4.55787e-19 0.57184 -1.95932e-20 1.01644e-37)
(39.3601 2.40717 0 0.568093 0 0)
(42.4515 2.45372 -5.15388e-19 0.565847 -1.03356e-20 9.23992e-38)
(45.5946 2.49084 0 0.567061 0 0)
(48.7733 2.52465 0 0.567836 0 0)
(51.9735 2.54774 -6.03365e-19 0.570014 1.17786e-21 7.96678e-38)
(55.1884 2.54991 0 0.571852 0 0)
(58.4223 2.53247 6.56944e-19 0.570338 -6.89904e-21 7.2077e-38)
(61.669 2.5014 0 0.562501 0 0)
(64.9345 2.45859 -7.01648e-19 0.55213 1.04459e-20 6.53179e-38)
(68.2174 2.40661 0 0.538605 0 0)
(71.5051 2.34794 0 0.522816 0 0)
(74.79 2.2825 0 0.508847 0 0)
(78.0735 2.20659 0 0.497579 0 0)
(81.3491 2.11961 0 0.486118 0 0)
(84.6135 2.02442 7.7882e-19 0.475262 -1.39924e-20 4.59307e-38)
(87.8653 1.92083 0 0.463695 0 0)
(91.1053 1.80872 -1.56101e-18 0.447742 2.71602e-20 1.61154e-37)
(94.3322 1.68963 0 0.432231 0 0)
(97.5411 1.56238 1.55124e-18 0.417651 -2.6171e-20 1.39777e-37)
(100.725 1.42943 0 0.402549 0 0)
(103.884 1.28724 0 0.390986 0 0)
(107.008 1.13679 -1.51362e-18 0.37861 2.16124e-20 1.11145e-37)
(110.079 0.984175 0 0.365932 0 0)
(113.084 0.829752 -1.47529e-18 0.355129 1.83275e-20 9.42384e-38)
(116.007 0.672074 1.45287e-18 0.346242 -1.66063e-20 8.65541e-38)
(118.832 0.508134 0 0.339999 0 0)
(121.552 0.337906 1.40219e-18 0.33504 -1.25684e-20 7.33475e-38)
(124.15 0.162494 1.37403e-18 0.331145 -1.0702e-20 6.78829e-38)
(126.627 -0.0153407 0 0.327936 0 0)
(128.968 -0.194485 0 0.325791 0 0)
(131.153 -0.377575 0 0.323002 0 0)
(133.162 -0.565482 0 0.321599 0 0)
(134.974 -0.755725 0 0.323523 0 0)
(136.564 -0.945225 -1.1741e-18 0.327727 -4.32103e-21 5.01081e-38)
(137.902 -1.13635 0 0.331807 0 0)
(138.976 -1.33217 1.07968e-18 0.335461 1.14211e-20 4.74579e-38)
(139.789 -1.53454 0 0.340671 0 0)
(140.338 -1.74318 0 0.347437 0 0)
(140.606 -1.94908 -9.1206e-19 0.356673 -2.24076e-20 4.74678e-38)
(140.588 -2.15318 0 0.368572 0 0)
(140.267 -2.35812 7.80934e-19 0.380568 3.11977e-20 4.96374e-38)
(139.652 -2.56194 0 0.390855 0 0)
(138.737 -2.76576 0 0.403634 0 0)
(137.531 -2.96878 0 0.417864 0 0)
(136.049 -3.16469 -4.83294e-19 0.432402 -4.75138e-20 6.02934e-38)
(134.292 -3.35352 0 0.446968 0 0)
(132.274 -3.53591 0 0.460031 0 0)
(130.006 -3.71131 -2.27766e-19 0.473941 -6.11802e-20 7.29752e-38)
(127.506 -3.88499 0 0.489834 0 0)
(124.81 -4.05053 -5.19912e-20 0.505159 -6.9886e-20 8.29555e-38)
(121.931 -4.20287 0 0.520095 0 0)
(118.888 -4.34387 0 0.536294 0 0)
(115.712 -4.47536 0 0.553567 0 0)
(112.427 -4.59713 -3.04098e-19 0.57155 8.31238e-20 1.04495e-37)
(109.052 -4.70686 0 0.589541 0 0)
(105.603 -4.80117 0 0.607312 0 0)
(102.091 -4.88023 -5.6359e-19 0.625251 9.02727e-20 1.20114e-37)
(98.5281 -4.94844 -6.45465e-19 0.643903 9.18199e-20 1.25223e-37)
(94.9418 -5.0055 0 0.6626 0 0)
(91.3624 -5.05058 -7.98662e-19 0.682231 9.45963e-20 1.34641e-37)
(87.8103 -5.08436 0 0.703334 0 0)
(84.3063 -5.10628 -1.87719e-18 0.724858 1.92504e-19 5.74226e-37)
(80.8646 -5.11524 0 0.74748 0 0)
(77.5029 -5.1097 -2.12234e-18 0.770034 1.9363e-19 6.07398e-37)
(74.2396 -5.08787 0 0.79296 0 0)
(71.0893 -5.0531 2.32517e-18 0.818889 -1.93768e-19 6.36431e-37)
(68.0693 -5.00509 0 0.843883 0 0)
(65.1939 -4.9385 0 0.866182 0 0)
(62.4629 -4.85311 0 0.888867 0 0)
(59.8805 -4.75107 -2.58639e-18 0.913866 1.86167e-19 6.79877e-37)
(57.4526 -4.63476 0 0.938449 0 0)
(55.1882 -4.50244 2.6474e-18 0.962703 -1.79888e-19 6.94626e-37)
(53.0903 -4.35391 0 0.986454 0 0)
(51.1478 -4.18321 -2.65944e-18 1.01003 1.73546e-19 7.03492e-37)
(49.3555 -3.9958 -2.65029e-18 1.03133 1.70324e-19 7.07005e-37)
(47.7013 -3.79571 -2.63126e-18 1.05256 1.6615e-19 7.09662e-37)
(46.1811 -3.58669 0 1.07495 0 0)
(44.7682 -3.36766 0 1.09802 0 0)
(43.473 -3.13938 0 1.11758 0 0)
(42.2761 -2.90206 0 1.13749 0 0)
(41.1739 -2.66315 0 1.15734 0 0)
(40.1473 -2.42359 0 1.17641 0 0)
(39.1932 -2.18144 0 1.19152 0 0)
(38.2655 -1.938 0 1.20754 0 0)
(37.3619 -1.70158 2.02539e-18 1.22293 -1.31498e-19 7.07281e-37)
(36.4492 -1.47335 1.91145e-18 1.24007 -1.24237e-19 7.06636e-37)
(35.5522 -1.25453 0 1.25176 0 0)
(34.6369 -1.0444 0 1.26485 0 0)
(33.7119 -0.857941 0 1.27894 0 0)
(32.728 -0.682119 1.3547e-18 1.29141 -1.04652e-19 6.9077e-37)
(31.7843 -0.531903 0 1.29861 0 0)
(30.7734 -0.389455 0 1.30851 0 0)
(29.8147 -0.286731 0 1.3187 0 0)
(28.887 -0.203425 0 1.33189 0 0)
(28.0563 -0.152892 -4.39497e-19 1.34037 7.57329e-20 6.6588e-37)
(27.3562 -0.126739 0 1.34973 0 0)
(26.8165 -0.13579 0 1.36322 0 0)
(26.5262 -0.178493 -2.21767e-19 1.37113 -6.55683e-20 6.42461e-37)
(26.4809 -0.247018 4.48733e-19 1.38402 6.1259e-20 6.29846e-37)
(26.7321 -0.356904 0 1.40105 0 0)
(27.3388 -0.513356 9.11335e-19 1.41884 6.011e-20 6.05024e-37)
(28.3595 -0.711399 0 1.43822 0 0)
(29.8617 -0.962873 -1.35269e-18 1.45517 -6.4374e-20 5.75353e-37)
(31.8609 -1.24893 0 1.47788 0 0)
(34.4283 -1.58379 0 1.50489 0 0)
(37.464 -1.96064 0 1.5376 0 0)
(41.0745 -2.38839 0 1.57188 0 0)
(45.1183 -2.842 0 1.61006 0 0)
(49.5958 -3.34357 4.89601e-18 1.65234 2.04605e-19 1.97143e-36)
(54.4556 -3.88912 5.1512e-18 1.6985 2.30327e-19 1.9369e-36)
(59.7113 -4.47068 0 1.74702 0 0)
(65.1733 -5.07314 0 1.80264 0 0)
(70.7924 -5.69971 0 1.85785 0 0)
(76.418 -6.31324 -5.69327e-18 1.9186 -3.52088e-19 1.91697e-36)
(81.8299 -6.92813 0 1.98966 0 0)
(86.9879 -7.54964 0 2.06196 0 0)
(91.8328 -8.16425 0 2.13829 0 0)
(96.2848 -8.75518 -5.3355e-18 2.2167 -5.33233e-19 2.07198e-36)
(100.304 -9.32068 5.10213e-18 2.30165 5.83088e-19 2.13442e-36)
(103.717 -9.84441 0 2.39106 0 0)
(106.628 -10.3544 0 2.48365 0 0)
(109.002 -10.8088 4.08134e-18 2.57818 7.35354e-19 2.36629e-36)
(110.843 -11.2284 3.65109e-18 2.67147 7.84104e-19 2.45125e-36)
(112.005 -11.5729 0 2.77171 0 0)
(112.577 -11.8876 0 2.87165 0 0)
(112.458 -12.1306 -2.05325e-18 2.97573 -9.45643e-19 2.7191e-36)
(111.782 -12.3559 1.42365e-18 3.07074 9.89222e-19 2.7978e-36)
(110.594 -12.5105 0 3.16759 0 0)
(108.69 -12.6111 0 3.26831 0 0)
(106.193 -12.6456 -5.21386e-19 3.35932 1.11719e-18 3.06847e-36)
(103.067 -12.6261 0 3.44988 0 0)
(99.594 -12.5686 0 3.5335 0 0)
(95.6145 -12.4202 -2.54879e-18 3.60609 1.20619e-18 3.30138e-36)
(91.3222 -12.1998 0 3.67821 0 0)
(86.7049 -11.8684 -3.83266e-18 3.73984 1.2573e-18 3.44453e-36)
(81.8256 -11.4519 0 3.7959 0 0)
(76.7252 -10.9179 0 3.8354 0 0)
(71.7863 -10.2852 0 3.85963 0 0)
(66.9084 -9.48804 5.87331e-18 3.87849 -1.27833e-18 3.68134e-36)
(62.2512 -8.5711 0 3.88207 0 0)
(58.0301 -7.50173 0 3.87021 0 0)
(54.5705 -6.31284 0 3.84256 0 0)
(51.713 -4.93565 0 3.801 0 0)
(49.6215 -3.47874 0 3.75079 0 0)
(48.9055 -1.92445 0 3.67891 0 0)
(49.7201 -0.297937 6.01898e-18 3.58971 -1.10576e-18 3.73108e-36)
(51.7586 1.41484 5.60853e-18 3.49197 -1.05167e-18 3.71318e-36)
(55.4716 3.10446 0 3.38019 0 0)
(60.7044 4.73684 0 3.26184 0 0)
(67.4827 6.3186 0 3.13251 0 0)
(75.3962 7.79217 -3.05864e-18 3.00257 7.96202e-19 3.38685e-36)
(84.5146 9.09602 0 2.87442 0 0)
(94.0557 10.2862 2.9627e-18 2.73965 -1.35234e-18 1.23815e-35)
(103.919 11.2471 -1.32471e-18 2.60885 1.21971e-18 1.16902e-35)
(113.536 12.0378 3.19288e-19 2.47725 1.10571e-18 1.10421e-35)
(123.188 12.6891 -2.02383e-18 2.35186 -1.01627e-18 1.03558e-35)
(131.308 13.2316 3.68531e-18 2.23272 9.22958e-19 9.79422e-36)
(139.217 13.7123 -5.30632e-18 2.12483 -9.06209e-19 9.02516e-36)
(142.978 14.4057 0 2.06883 0 0)
(0.0183004 0.174058 0 6.08849 0 0)
(0.202576 0.38751 0 6.02683 0 0)
(0.629002 0.609141 1.3183e-19 5.85443 1.75411e-19 6.75642e-37)
(1.32598 0.853308 0 5.73377 0 0)
(2.26734 1.13219 -1.92816e-19 5.67397 -3.5256e-19 9.18324e-37)
(3.44259 1.43649 -1.84631e-19 5.64689 -4.40309e-19 9.71279e-37)
(4.8306 1.76056 -8.11217e-20 5.63165 -2.50835e-19 2.48631e-37)
(6.41718 2.10037 -6.9453e-20 5.61383 -2.69761e-19 2.60852e-37)
(8.19453 2.4487 0 5.58568 0 0)
(10.1607 2.80115 -4.26989e-20 5.54322 -2.68681e-19 2.58995e-37)
(12.3169 3.14895 0 5.49139 0 0)
(14.6615 3.48983 0 5.43175 0 0)
(17.186 3.8186 9.54241e-20 5.36348 4.23373e-19 9.49541e-37)
(19.8913 4.13485 6.97536e-20 5.29159 1.86814e-19 2.33743e-37)
(22.7666 4.42886 -1.85631e-19 5.21642 -3.26285e-19 8.92141e-37)
(25.8061 4.70052 -2.51503e-19 5.13832 -2.81424e-19 8.64444e-37)
(28.9984 4.95127 -1.70893e-19 5.05411 -1.18626e-19 2.12384e-37)
(32.337 5.18268 0 4.96354 0 0)
(35.8102 5.39314 0 4.868 0 0)
(39.4092 5.58723 0 4.76549 0 0)
(43.111 5.76407 -3.85645e-19 4.66077 -3.70238e-20 1.80061e-37)
(46.9068 5.92077 0 4.55642 0 0)
(50.7739 6.049 1.60526e-18 4.45006 -1.53995e-20 1.54891e-36)
(54.6998 6.15249 0 4.34729 0 0)
(58.6676 6.23283 0 4.24233 0 0)
(62.6598 6.29021 7.7332e-19 4.13829 -5.74484e-20 1.5619e-37)
(66.6488 6.32138 0 4.03249 0 0)
(70.6157 6.33552 -9.31314e-19 3.93207 8.15874e-20 1.45689e-37)
(74.5273 6.32629 -1.99017e-18 3.83234 1.8117e-19 5.55918e-37)
(78.3733 6.28849 1.07532e-18 3.72988 -9.85684e-20 1.36335e-37)
(82.1499 6.21914 0 3.62242 0 0)
(85.8567 6.12184 0 3.51747 0 0)
(89.4808 5.99904 0 3.41439 0 0)
(93.0255 5.85196 -2.57329e-18 3.30642 2.22699e-19 4.70413e-37)
(96.4829 5.6753 -2.65167e-18 3.19904 2.20287e-19 4.54313e-37)
(99.8664 5.46942 -1.37207e-18 3.09809 1.07605e-19 1.10563e-37)
(103.184 5.23267 0 3.00629 0 0)
(106.429 4.96011 2.83528e-18 2.91833 -2.03181e-19 4.12169e-37)
(109.61 4.64948 0 2.83333 0 0)
(112.721 4.31004 -2.8724e-18 2.7521 1.88774e-19 3.81036e-37)
(115.769 3.94288 0 2.67219 0 0)
(118.75 3.55587 0 2.60047 0 0)
(121.67 3.15277 2.82634e-18 2.53006 -1.54718e-19 3.31293e-37)
(124.517 2.73085 0 2.46511 0 0)
(127.269 2.28375 8.15758e-18 2.40717 -3.95287e-19 2.68115e-36)
(129.925 1.80713 -2.68812e-18 2.36171 1.1975e-19 2.83332e-37)
(132.489 1.30494 0 2.3343 0 0)
(134.976 0.777054 -2.54869e-18 2.31818 9.14447e-20 2.51422e-37)
(137.371 0.216361 -2.46817e-18 2.31162 7.71674e-20 2.35865e-37)
(139.673 -0.370553 0 2.31373 0 0)
(141.86 -0.969275 0 2.32705 0 0)
(143.912 -1.5657 0 2.34197 0 0)
(145.816 -2.15042 0 2.35526 0 0)
(147.533 -2.72728 0 2.37862 0 0)
(149.051 -3.30478 1.88437e-18 2.41116 1.42412e-20 1.71754e-37)
(150.348 -3.89043 3.45354e-18 2.45411 7.0668e-20 6.54579e-37)
(151.403 -4.4795 -1.64577e-18 2.50486 -5.57198e-20 1.59789e-37)
(152.227 -5.08677 0 2.56068 0 0)
(152.794 -5.69588 2.69055e-18 2.62371 1.90037e-19 6.003e-37)
(153.076 -6.28514 -1.1718e-18 2.69184 -1.13156e-19 1.46585e-37)
(153.099 -6.87046 0 2.76848 0 0)
(152.815 -7.45086 -9.80142e-19 2.85833 -1.4847e-19 1.49249e-37)
(152.237 -8.00956 0 2.95169 0 0)
(151.36 -8.55926 0 3.05287 0 0)
(150.179 -9.09161 -1.05276e-18 3.16018 -3.96359e-19 6.24695e-37)
(148.684 -9.59532 4.25216e-19 3.27232 2.1494e-19 1.63532e-37)
(146.909 -10.0898 -4.94055e-19 3.39193 -4.62e-19 6.67578e-37)
(144.849 -10.5627 2.1711e-19 3.51667 4.89112e-19 6.91393e-37)
(142.525 -11.006 1.23404e-20 3.64103 2.54487e-19 1.82511e-37)