/*--------------------------------*- C++ -*----------------------------------*\
| =========                 |                                                 |
| \\      /  F ield         | OpenFOAM: The Open Source CFD Toolbox           |
|  \\    /   O peration     | Version:  dev                                   |
|   \\  /    A nd           | Web:      http://www.openfoam.org               |
|    \\/     M anipulation  |                                                 |
\*---------------------------------------------------------------------------*/
FoamFile
{
    version     2.0;
    format      ascii;
    class       volScalarField;
    object      k;
    location    "9.165";
}
// * * * * * * * * * * * * * * * * * * * * * * * * * * * * * * * * * * * * * //

dimensions      [0 2 -2 0 0 0 0];

internalField   nonuniform List<scalar> 
12225
(
9.03478
9.4962
5.74371
5.78011
4.11926
5.71262
4.73584
6.81253
5.9067
8.49818
7.35486
10.9479
9.13881
14.4822
12.8774
17.7286
33.4817
44.5416
1.51091
5.46691
4.74579
5.78027
4.28093
5.40353
4.09368
5.26683
4.41252
5.34419
4.89469
5.24431
5.33145
4.98541
5.41886
4.91697
6.64233
9.80389
0.139927
1.82185
2.12455
3.34095
2.95633
3.62086
3.19857
3.49434
3.315
3.09206
3.18343
2.69229
2.95202
2.37408
2.76849
2.37995
3.50253
7.02316
0.0193242
0.376065
0.556433
0.918239
1.15484
1.27204
1.65398
1.54947
1.91311
1.58367
1.90588
1.47569
1.66046
1.29134
1.56186
1.37276
2.22116
5.8111
0.00383547
0.0810834
0.152362
0.259733
0.455923
0.52309
0.711231
0.710896
0.85024
0.759061
0.899368
0.740371
0.859036
0.695753
0.870337
0.804443
1.61172
2.29384
0.00605723
0.0368844
0.0672829
0.100513
0.179378
0.204196
0.291361
0.298359
0.379702
0.347488
0.429578
0.37292
0.44792
0.383833
0.487592
0.484969
0.869564
1.31642
0.0120497
0.0216809
0.0393248
0.0518536
0.0853183
0.0955142
0.138043
0.144049
0.188223
0.179224
0.223821
0.205331
0.24796
0.223593
0.284725
0.275357
0.463633
0.538216
0.0139972
0.0227168
0.0357497
0.0459858
0.0648993
0.074958
0.0963418
0.104586
0.127176
0.129648
0.150161
0.148555
0.166802
0.161903
0.186005
0.185974
0.25871
0.285839
0.0183777
0.0369713
0.0418078
0.053884
0.0656779
0.0758388
0.091357
0.100241
0.116528
0.122333
0.134898
0.138488
0.146741
0.147034
0.157399
0.159094
0.188515
0.198835
0.0239569
0.065152
0.0650806
0.0821601
0.0835611
0.0978556
0.101622
0.113704
0.120165
0.129468
0.135036
0.140169
0.144733
0.145808
0.151981
0.152753
0.163112
0.166545
0.0487849
0.104947
0.108354
0.137827
0.135838
0.154332
0.148644
0.156976
0.154386
0.159946
0.15878
0.160383
0.159566
0.157995
0.157456
0.155852
0.159238
0.160683
0.125781
0.198714
0.203865
0.237082
0.237775
0.256776
0.248894
0.255609
0.243352
0.241745
0.228948
0.221566
0.210259
0.200501
0.188997
0.179414
0.173052
0.168833
0.321773
0.377484
0.378629
0.399067
0.394983
0.404525
0.396639
0.395129
0.38213
0.370007
0.346388
0.329825
0.303428
0.286113
0.264608
0.246871
0.223999
0.209105
0.623257
0.631006
0.624561
0.628448
0.613736
0.608739
0.593471
0.579496
0.550446
0.526456
0.488318
0.462187
0.430474
0.405401
0.376405
0.350481
0.322157
0.297352
1.00376
0.995802
1.0205
1.04439
1.02642
1.00262
0.962724
0.911337
0.842263
0.781247
0.715865
0.658709
0.601312
0.551802
0.501207
0.458795
0.415709
0.383363
1.55726
1.483
1.47004
1.42081
1.33223
1.24871
1.15874
1.07033
0.98057
0.897464
0.817129
0.745231
0.675872
0.615518
0.555974
0.506498
0.457028
0.420005
1.8985
1.68222
1.63163
1.5346
1.43008
1.32851
1.22495
1.12421
1.02611
0.935693
0.850248
0.773692
0.700615
0.63681
0.574438
0.522501
0.470737
0.431413
1.8791
1.68808
1.63198
1.53024
1.4278
1.3267
1.22322
1.12204
1.02379
0.933343
0.84829
0.772101
0.699462
0.635863
0.573617
0.52166
0.469878
0.430199
1.54323
1.46182
1.45056
1.39324
1.31899
1.24181
1.15513
1.06496
0.974688
0.890831
0.812242
0.741737
0.674375
0.615123
0.556183
0.506731
0.456558
0.418132
0.946682
0.96746
1.00625
1.01541
1.0139
0.998922
0.959357
0.899821
0.831644
0.766351
0.705434
0.650635
0.597776
0.550843
0.501789
0.4602
0.415382
0.381274
0.572345
0.593009
0.607425
0.60743
0.60076
0.597895
0.593125
0.576589
0.545078
0.513936
0.485895
0.460305
0.433678
0.409988
0.38017
0.3539
0.321155
0.296185
0.301468
0.336108
0.365678
0.383306
0.391081
0.391838
0.389723
0.38
0.354725
0.326188
0.301109
0.285956
0.273521
0.264372
0.251831
0.242155
0.228574
0.219125
0.152729
0.175151
0.207508
0.223753
0.226004
0.226031
0.222778
0.222517
0.223278
0.225058
0.226105
0.226383
0.224465
0.22225
0.217703
0.21418
0.207599
0.202824
0.0685223
0.0897794
0.0986156
0.106569
0.123329
0.141643
0.159823
0.178625
0.192705
0.203286
0.211039
0.215666
0.216511
0.216209
0.214608
0.212588
0.208362
0.204864
0.0287909
0.0360541
0.0495055
0.0739137
0.102286
0.129754
0.156877
0.183586
0.206532
0.224726
0.238376
0.246225
0.249348
0.250138
0.249939
0.248924
0.246486
0.24392
0.0086558
0.0207175
0.0456082
0.0935592
0.155515
0.212637
0.262586
0.306368
0.342931
0.369357
0.386711
0.394676
0.396525
0.397372
0.396935
0.396019
0.393778
0.389682
0.00614417
0.055185
0.178098
0.348639
0.509692
0.632128
0.724287
0.792203
0.837705
0.86137
0.863946
0.85794
0.845466
0.835635
0.826078
0.816868
0.801823
0.787896
0.0624097
0.444022
1.09742
1.58285
1.94627
2.07725
2.12703
2.13753
2.11598
2.06734
1.987
1.90469
1.84408
1.80058
1.75144
1.70566
1.64391
1.59421
0.923385
3.267
4.53229
4.69824
4.489
4.26467
3.9746
3.68618
3.43391
3.24996
3.11809
3.00535
2.88191
2.76127
2.64392
2.52988
2.42526
2.30569
6.77777
9.44056
8.23904
6.17132
4.91804
4.29339
3.9859
3.85007
3.80108
3.7947
3.80826
3.82277
3.82448
3.81098
3.7858
3.74468
3.67039
3.48686
0.0799611
0.149781
0.215044
0.266292
0.324572
0.386603
0.442436
0.489877
0.527355
0.574884
0.628989
0.678666
0.739128
0.800492
0.879606
0.996613
1.08556
1.235
1.38671
1.50782
1.68973
1.81847
1.96247
2.1115
2.21912
2.3081
2.31452
2.27441
2.1741
2.01848
1.8701
1.79628
1.77561
1.76929
1.76868
1.80231
1.92214
2.05878
2.19765
2.31645
2.40485
2.43619
2.41398
2.44291
2.53123
2.74972
2.96616
3.14023
3.38268
3.90474
4.55396
5.14089
5.63176
6.04482
6.38788
6.66421
6.86653
7.0022
7.06582
7.08575
7.0338
6.9019
6.72017
6.50215
6.24225
5.95546
5.63018
5.30472
4.97397
4.64645
4.33361
4.0282
3.7096
3.42281
3.20168
2.99977
2.79591
2.61135
2.45297
2.2937
2.18724
2.09391
1.98479
1.93793
1.88237
1.85493
1.83166
1.83078
1.84571
1.86769
1.90277
1.94399
1.99435
2.05562
2.11957
2.20346
2.30067
2.40773
2.53203
2.67461
2.81806
2.92846
3.02256
3.11421
3.18474
3.2218
3.2367
3.23093
3.19997
3.11348
2.98366
2.82186
2.63384
2.44377
2.26156
2.12063
2.0406
2.01142
2.00396
2.01674
2.1092
2.37375
2.85097
3.39184
3.80766
4.12813
4.55486
4.89921
5.21429
5.47922
5.66824
5.81596
6.0281
6.52
7.17806
7.88682
8.65934
9.40824
9.78643
10.1051
10.5252
10.7787
10.8663
11.1805
11.3144
11.8702
12.8534
13.8024
14.2294
15.5078
17.3104
18.058
19.173
20.447
20.9151
21.5251
21.3834
21.1787
21.3576
21.1106
20.6414
19.0768
19.4936
23.4807
24.6313
22.4365
23.5065
27.3791
26.8689
19.6551
12.9669
10.4762
10.1595
10.7435
9.82307
9.42089
8.6847
9.65061
10.7258
13.1321
0.430819
0.18944
0.199749
0.27433
0.401872
0.497726
0.543115
0.527226
0.493211
0.450819
0.396959
0.343583
0.314003
0.284526
0.274995
0.270667
0.267495
0.275386
0.286306
0.307402
0.35629
0.390654
0.46396
0.530196
0.619634
0.744577
0.850226
1.00408
1.10335
1.11103
1.08996
1.02097
0.921764
0.833575
0.704589
0.606839
0.582889
0.591112
0.653514
0.784781
0.945941
1.0192
1.10807
1.20828
1.45568
2.44846
3.19682
3.51187
3.81979
3.98498
4.03564
3.94605
3.69825
3.39231
3.06908
2.74243
2.43561
2.14754
1.86689
1.61634
1.41279
1.23971
1.10482
0.984071
0.889722
0.824656
0.763931
0.718039
0.675059
0.637302
0.601014
0.564221
0.537822
0.525915
0.519387
0.511958
0.49622
0.479623
0.469093
0.462571
0.468598
0.469398
0.462069
0.477392
0.484182
0.499958
0.509815
0.51969
0.54659
0.566449
0.596601
0.62047
0.638855
0.664987
0.680897
0.705927
0.7312
0.754778
0.782622
0.819363
0.880094
0.937942
0.969363
1.0052
1.05051
1.08265
1.09537
1.11176
1.13821
1.16298
1.16977
1.15922
1.12912
1.0884
1.0374
0.993456
0.968085
0.96159
0.973737
0.974059
0.955087
0.962655
1.02853
1.20561
1.37977
1.44957
1.5023
1.52929
1.57126
1.76558
1.92456
2.21509
2.7636
3.40391
3.97741
4.25145
4.25781
3.97349
3.61601
3.48023
3.44896
3.04286
2.86793
3.46616
3.71153
3.859
4.14629
4.00894
4.02277
4.30305
4.77226
5.13789
5.42808
6.12929
6.5851
7.15302
7.62149
7.61677
7.5609
7.5551
7.51787
7.38974
7.3812
7.52333
7.61255
7.5784
7.96182
8.61421
8.75835
8.05891
6.80834
7.08882
8.64917
7.10157
5.72761
5.68136
6.0114
6.03478
5.82991
6.21329
1.20048
0.382332
0.274255
0.387958
0.6332
0.69601
0.633508
0.536875
0.430197
0.317661
0.245447
0.209894
0.191516
0.184139
0.177958
0.176958
0.174028
0.17055
0.169079
0.167168
0.167709
0.170173
0.177869
0.18715
0.204031
0.239199
0.268406
0.333088
0.412235
0.469163
0.542904
0.574555
0.555867
0.493498
0.418227
0.382126
0.355178
0.376131
0.450851
0.534084
0.822456
1.1643
2.12625
2.48896
2.46783
2.57441
2.63135
2.43997
2.21047
1.98397
1.67942
1.33798
1.08568
0.865927
0.685417
0.541263
0.431945
0.352835
0.295566
0.257121
0.23732
0.221703
0.212712
0.209118
0.208293
0.208682
0.210141
0.212764
0.213736
0.213168
0.210977
0.21049
0.211906
0.212615
0.211008
0.206697
0.20366
0.201185
0.199226
0.198025
0.198804
0.199658
0.198866
0.204545
0.207232
0.213979
0.22136
0.227849
0.242133
0.253092
0.267909
0.281604
0.293111
0.305889
0.313975
0.327293
0.342738
0.35343
0.363701
0.376892
0.402802
0.443262
0.467287
0.488018
0.524296
0.56068
0.58125
0.60546
0.637922
0.670614
0.708043
0.734181
0.751079
0.752305
0.731465
0.698789
0.656232
0.632479
0.640521
0.644744
0.627066
0.613845
0.629657
0.699387
0.819543
0.852724
0.852888
0.850061
0.949959
1.25635
1.49283
1.90543
2.53521
2.79677
2.76174
2.5679
2.37652
2.02447
1.84535
1.81471
1.8359
1.63737
1.62595
1.97739
2.09222
2.18174
2.64836
2.6272
2.3394
2.59259
2.67909
2.63145
2.86287
3.16502
3.33608
3.70427
4.41089
4.64374
4.75079
4.80143
4.95696
5.12185
5.07348
5.27637
4.9953
5.13228
6.03003
6.18462
6.04677
5.64077
5.45987
6.4437
7.62842
5.25979
5.17702
4.56276
4.7591
4.50143
4.17239
4.10759
2.39479
0.813402
0.596324
0.872499
0.927898
0.811113
0.614506
0.401917
0.256031
0.197406
0.175274
0.169009
0.166634
0.166971
0.166257
0.164711
0.163748
0.159672
0.157732
0.154616
0.150731
0.145027
0.145491
0.146304
0.147758
0.155457
0.161603
0.174457
0.205255
0.238097
0.280227
0.335827
0.359574
0.351599
0.311136
0.292927
0.304786
0.438834
0.687012
1.00717
2.06565
2.33892
2.19088
2.08205
1.84607
1.63144
1.33235
1.09739
0.857791
0.676365
0.527565
0.402301
0.312175
0.246505
0.209147
0.183167
0.169812
0.163837
0.162135
0.162312
0.164158
0.167824
0.171637
0.175823
0.180466
0.185091
0.190483
0.196619
0.201809
0.204398
0.205345
0.204777
0.205525
0.205527
0.203801
0.197663
0.190762
0.187492
0.18517
0.181497
0.179451
0.176093
0.17383
0.174462
0.170871
0.170186
0.17022
0.171687
0.176929
0.182382
0.18937
0.194653
0.20153
0.207701
0.209963
0.215662
0.226744
0.235205
0.239083
0.243795
0.253579
0.279154
0.297975
0.310141
0.329427
0.356937
0.376159
0.396873
0.423837
0.441688
0.461782
0.492882
0.527279
0.548051
0.556872
0.553437
0.519501
0.49017
0.493238
0.506972
0.50263
0.491781
0.491795
0.523745
0.608665
0.624685
0.63526
0.665952
0.8492
1.15509
1.44163
1.81684
2.0775
2.11568
2.055
1.8118
1.63025
1.41651
1.33611
1.36577
1.48933
1.32799
1.29018
1.57309
1.62278
1.55985
1.87388
2.46718
2.10534
2.05742
2.12459
2.00134
2.1462
2.32291
2.43721
2.69507
2.9861
3.17011
3.44486
3.54616
3.8517
4.16869
4.11941
4.38162
4.31058
4.38517
5.08331
5.20149
4.92793
4.65834
4.80668
6.20193
6.28062
4.56096
4.9452
4.09605
4.03463
3.67455
3.45383
3.40777
3.74314
1.4933
1.34379
1.28464
1.02851
0.683057
0.372769
0.230332
0.181024
0.167771
0.164871
0.166152
0.168892
0.168216
0.166695
0.164076
0.161399
0.156168
0.154646
0.151853
0.149294
0.142084
0.138877
0.146727
0.145981
0.143677
0.144269
0.142332
0.145293
0.154558
0.181823
0.21959
0.241143
0.25238
0.274397
0.354183
0.489089
1.00262
1.88295
2.06698
2.02094
1.90763
1.52682
1.20553
0.953172
0.753012
0.595402
0.455112
0.340688
0.258205
0.214299
0.180636
0.163048
0.155871
0.153607
0.153229
0.155007
0.157607
0.16018
0.16287
0.165347
0.167772
0.17117
0.175744
0.181229
0.186452
0.192241
0.199237
0.207775
0.214938
0.219201
0.220402
0.220622
0.219208
0.220071
0.218561
0.21005
0.202921
0.198371
0.195108
0.192075
0.183863
0.178847
0.175036
0.16862
0.165193
0.162161
0.159165
0.158148
0.15916
0.162962
0.164561
0.167909
0.173426
0.173493
0.173775
0.177952
0.187694
0.190842
0.191646
0.195707
0.211628
0.227757
0.235553
0.243451
0.264202
0.281951
0.301703
0.322889
0.334503
0.341437
0.342365
0.352171
0.391843
0.426268
0.434059
0.433364
0.416803
0.413236
0.429917
0.437966
0.428835
0.414394
0.420076
0.456016
0.485587
0.529312
0.61537
0.845367
1.10763
1.42377
1.68615
1.74719
1.69797
1.59031
1.4418
1.29886
1.19212
1.13191
1.15062
1.31253
1.1972
1.08354
1.35013
1.47452
1.36631
1.42929
2.26954
2.14565
1.79
1.85131
1.79725
1.81339
1.93308
2.08661
2.32428
2.36964
2.62408
2.64779
2.75116
3.52988
3.63414
3.59203
3.88249
3.99872
4.00628
4.18019
4.49439
4.2563
4.16493
4.4903
5.84467
5.47642
4.34314
4.59021
3.7071
3.59018
3.26799
2.97282
2.96628
5.2653
2.47835
1.93564
1.37156
0.804418
0.395657
0.230208
0.178331
0.167458
0.167142
0.17184
0.174531
0.172198
0.16854
0.163098
0.155342
0.149614
0.146835
0.147235
0.146086
0.145461
0.142597
0.13766
0.140347
0.153623
0.149615
0.137605
0.130807
0.130204
0.1326
0.148304
0.187466
0.23214
0.286909
0.371014
0.710851
1.51387
1.84281
1.85009
1.78147
1.48375
1.06537
0.818076
0.638494
0.479456
0.352003
0.276309
0.22072
0.180643
0.160843
0.153141
0.150208
0.149533
0.150944
0.153525
0.15623
0.158981
0.161821
0.164049
0.165879
0.166867
0.167459
0.167773
0.168699
0.170535
0.17282
0.176556
0.182438
0.191326
0.202458
0.210581
0.214913
0.217177
0.217333
0.219251
0.218497
0.212666
0.206482
0.200003
0.19747
0.198136
0.195685
0.193603
0.189149
0.180717
0.171945
0.164319
0.156836
0.151515
0.148461
0.148956
0.149252
0.149847
0.154749
0.15663
0.155397
0.155295
0.158668
0.164775
0.16539
0.167026
0.176406
0.190987
0.197709
0.200052
0.208559
0.221911
0.242753
0.262118
0.26994
0.271887
0.270879
0.271187
0.280495
0.321881
0.345651
0.349551
0.342376
0.33124
0.336996
0.357632
0.357442
0.337885
0.326927
0.331809
0.374017
0.462397
0.603918
0.860587
1.07378
1.29114
1.54068
1.58701
1.53644
1.39409
1.25317
1.15651
1.10062
1.04784
1.03307
1.08906
1.08118
0.958302
1.14134
1.46133
1.33607
1.23558
1.7509
2.18222
1.67429
1.664
1.71206
1.62997
1.70434
1.91744
2.00592
2.06954
2.54628
2.47252
2.54076
3.50101
3.47496
3.34102
3.42332
3.65591
3.73029
3.79988
4.02589
3.87966
3.90681
4.33253
5.16723
4.71726
4.44144
4.15653
3.22737
3.18117
3.00994
2.77076
2.71717
6.8885
3.57249
2.16108
1.19033
0.544143
0.275568
0.187947
0.170125
0.171688
0.179203
0.180158
0.17596
0.167218
0.158305
0.150385
0.143563
0.139907
0.138862
0.139687
0.14029
0.140221
0.14409
0.145269
0.141505
0.145681
0.151081
0.139381
0.126505
0.126076
0.132282
0.157516
0.213666
0.289152
0.513423
1.08683
1.5191
1.63867
1.66966
1.46739
1.06731
0.814004
0.605221
0.438379
0.333468
0.260685
0.198854
0.170784
0.155422
0.148716
0.146621
0.146412
0.148365
0.150625
0.151796
0.152945
0.154128
0.15448
0.154277
0.154088
0.15401
0.153808
0.152905
0.152187
0.15237
0.152633
0.152789
0.152726
0.153271
0.153729
0.158191
0.16528
0.173458
0.182282
0.192864
0.201831
0.201084
0.197404
0.188439
0.178438
0.173316
0.176597
0.183283
0.187135
0.188822
0.184915
0.177382
0.171396
0.160357
0.149956
0.141674
0.139413
0.135726
0.133951
0.134792
0.138754
0.140578
0.141588
0.142541
0.143939
0.143471
0.142268
0.143423
0.151587
0.1614
0.163666
0.165548
0.167113
0.178056
0.203063
0.218865
0.224345
0.226107
0.226275
0.229771
0.243913
0.26897
0.283469
0.281918
0.268402
0.255711
0.262182
0.271531
0.268627
0.266526
0.276649
0.317165
0.415366
0.620792
0.859027
0.995479
1.12539
1.37469
1.46091
1.44704
1.3373
1.2191
1.10642
1.04766
0.988362
0.931096
0.886146
0.985863
0.939741
1.00507
1.43037
1.39923
1.1247
1.11915
1.86824
1.51633
1.48913
1.6246
1.47865
1.52593
1.77127
1.73323
1.86759
2.58768
2.4603
2.51285
3.18127
3.31478
3.27391
3.03524
3.11625
3.48951
3.55164
3.78699
3.69007
3.78537
4.26591
4.35422
4.30322
5.10615
3.77962
2.82738
2.8236
2.70137
2.74357
2.71473
8.51589
4.41289
2.19131
0.948793
0.428665
0.231228
0.17938
0.177287
0.186671
0.187491
0.180571
0.169095
0.160531
0.153115
0.145303
0.139744
0.136742
0.136017
0.136659
0.138223
0.13701
0.137024
0.140817
0.149104
0.148953
0.138129
0.13019
0.12742
0.133583
0.158316
0.221176
0.388867
0.774109
1.17404
1.37633
1.44082
1.40166
1.10132
0.841733
0.61305
0.454821
0.346477
0.25295
0.201026
0.171688
0.152016
0.145339
0.14313
0.142809
0.14427
0.144733
0.144894
0.144417
0.14063
0.136498
0.134306
0.133657
0.134305
0.136734
0.139751
0.14298
0.146745
0.149216
0.150295
0.150665
0.150647
0.149275
0.147522
0.143121
0.141023
0.14032
0.142492
0.145442
0.152628
0.162076
0.170418
0.172309
0.167241
0.15982
0.147928
0.135757
0.134365
0.143163
0.158435
0.168765
0.169718
0.167351
0.160099
0.149553
0.138203
0.132392
0.124157
0.115711
0.113734
0.117683
0.120383
0.12197
0.124761
0.127355
0.127889
0.126777
0.128085
0.132076
0.135947
0.137178
0.137631
0.138565
0.137983
0.143571
0.163323
0.180056
0.195663
0.201421
0.20386
0.202272
0.207477
0.227216
0.232267
0.226809
0.207616
0.207608
0.227561
0.237318
0.238019
0.24556
0.279536
0.374847
0.618803
0.838642
0.907618
1.01421
1.21456
1.3061
1.33395
1.29221
1.20279
1.07576
0.998316
0.919769
0.844772
0.817768
0.933282
0.944619
0.913505
1.28407
1.42083
1.08401
0.927168
1.17152
1.20056
1.23709
1.43383
1.29107
1.31704
1.50003
1.56488
1.76923
2.56124
2.45613
2.51909
2.38219
2.83688
3.01537
2.70952
2.67571
3.25959
3.33
3.61016
3.55291
3.70112
4.08841
3.87163
4.26691
5.31052
3.39501
2.57353
2.46681
2.38107
2.81204
2.89463
10.0476
4.94845
2.03355
0.817601
0.380151
0.217944
0.183679
0.191824
0.19592
0.189902
0.178091
0.168512
0.160829
0.151913
0.140183
0.131812
0.128097
0.126764
0.126231
0.127487
0.130593
0.137112
0.139348
0.139875
0.138625
0.137483
0.139
0.153715
0.199758
0.33255
0.610916
0.892036
1.09552
1.18317
1.23088
1.086
0.852804
0.648182
0.48437
0.366014
0.266849
0.215861
0.17294
0.152723
0.143412
0.139759
0.139106
0.139744
0.139746
0.13854
0.134395
0.127051
0.122558
0.120439
0.120274
0.122285
0.126462
0.130763
0.134736
0.138362
0.142002
0.145955
0.149493
0.151346
0.152032
0.152027
0.150382
0.147966
0.142539
0.138441
0.136141
0.136583
0.137322
0.140833
0.143437
0.149929
0.154252
0.158958
0.156942
0.147488
0.1306
0.118274
0.108359
0.107813
0.12245
0.139336
0.145894
0.148155
0.144175
0.134651
0.127419
0.11935
0.108594
0.100646
0.0980352
0.0971473
0.0969944
0.101087
0.10996
0.114732
0.114031
0.113922
0.118958
0.120002
0.119932
0.118827
0.118841
0.118487
0.119276
0.123607
0.130911
0.153789
0.176872
0.179376
0.177535
0.170418
0.170497
0.180654
0.183214
0.177641
0.176822
0.186231
0.204318
0.209496
0.216938
0.239694
0.320848
0.584071
0.804499
0.869809
0.914162
1.06182
1.1393
1.15834
1.17576
1.12185
1.01399
0.903168
0.797625
0.775344
0.768213
0.87858
0.936305
0.830747
0.94291
1.15354
0.983257
0.844439
0.868986
0.920105
1.00694
1.14936
1.06887
1.08868
1.16827
1.41933
1.69949
2.25261
2.39637
2.47567
2.245
2.28819
2.52138
2.28315
2.29345
3.17715
3.1889
3.4711
3.43761
3.58899
3.71526
3.62621
4.60121
4.69041
2.76
2.22321
2.10413
2.21309
2.8666
2.92429
11.3827
5.30377
1.91884
0.749357
0.361245
0.21468
0.198128
0.204013
0.202973
0.194521
0.181833
0.170642
0.159456
0.143154
0.12634
0.119522
0.117251
0.117105
0.119609
0.123529
0.128259
0.133423
0.136553
0.141718
0.14708
0.1617
0.206192
0.326421
0.520264
0.709838
0.872508
0.970353
1.01958
0.997727
0.813195
0.66469
0.512284
0.38813
0.289962
0.234031
0.180981
0.157663
0.142641
0.137483
0.136073
0.136092
0.136361
0.135856
0.132108
0.122806
0.116684
0.114576
0.11407
0.114556
0.117313
0.121736
0.126991
0.132999
0.138828
0.143786
0.14694
0.149319
0.150224
0.150389
0.150274
0.150066
0.149142
0.147676
0.144319
0.141607
0.138496
0.137847
0.137524
0.139467
0.14047
0.142846
0.145095
0.148035
0.150129
0.148079
0.133821
0.117048
0.102945
0.0928162
0.0917351
0.0972043
0.108466
0.118873
0.125352
0.126173
0.121597
0.114288
0.104495
0.0968757
0.0923787
0.0895553
0.0859379
0.0851408
0.0870304
0.0953245
0.0994038
0.0992075
0.0999185
0.101217
0.104261
0.106622
0.106268
0.106431
0.107279
0.109823
0.1139
0.120218
0.144065
0.15149
0.149615
0.146487
0.1462
0.149711
0.164883
0.168308
0.168831
0.172052
0.188086
0.199959
0.207503
0.222959
0.281037
0.511176
0.748013
0.82574
0.860064
0.934653
0.995251
1.00009
0.986222
0.941463
0.896677
0.80846
0.739153
0.713868
0.691982
0.76672
0.789882
0.7567
0.694336
0.727042
0.758877
0.765605
0.80739
0.866949
0.944291
1.00838
0.996592
1.05355
1.08378
1.2748
1.59125
1.63757
2.10449
2.2876
2.14718
1.9169
2.10701
2.04829
2.10043
3.14606
3.10527
3.34485
3.28282
3.37877
3.29909
3.50313
4.64669
3.56436
2.18534
1.95096
1.94056
2.15511
2.81422
2.75623
12.4343
5.42265
1.77119
0.705592
0.34769
0.21594
0.204396
0.208478
0.204867
0.195717
0.182059
0.167248
0.149948
0.131221
0.121697
0.117375
0.116175
0.116869
0.121439
0.127495
0.133956
0.141063
0.149153
0.165698
0.205414
0.309847
0.465606
0.594857
0.697718
0.785748
0.834015
0.853088
0.746415
0.627173
0.514185
0.411886
0.317437
0.24754
0.19427
0.167867
0.144349
0.135807
0.132523
0.131984
0.133527
0.133696
0.132974
0.128664
0.118958
0.113509
0.111867
0.111607
0.112183
0.114138
0.117631
0.122268
0.127576
0.133596
0.139789
0.145531
0.148899
0.151182
0.151613
0.150482
0.147693
0.142531
0.137814
0.136612
0.137878
0.138638
0.137969
0.138301
0.138752
0.140165
0.141025
0.139824
0.140586
0.140598
0.142335
0.142953
0.135683
0.120927
0.104337
0.0891623
0.082722
0.0819642
0.0836386
0.0871819
0.0950014
0.103591
0.109405
0.109126
0.101561
0.094248
0.0891335
0.085678
0.0830491
0.0811779
0.0813219
0.0836244
0.090717
0.0919284
0.0923799
0.0928489
0.0937972
0.0972298
0.101524
0.102659
0.102643
0.103513
0.106451
0.113231
0.12682
0.133298
0.136317
0.13869
0.139351
0.141709
0.155438
0.165326
0.167206
0.170706
0.183153
0.197781
0.20516
0.218749
0.249495
0.392741
0.670136
0.77832
0.826272
0.861775
0.892002
0.882758
0.866533
0.817646
0.806892
0.771353
0.724542
0.698601
0.654182
0.645451
0.619523
0.651326
0.617611
0.627243
0.71712
0.759661
0.776143
0.843513
0.906469
0.939972
0.963955
1.05621
1.06274
1.14456
1.44428
1.57283
1.65655
2.06144
2.01317
1.74442
1.99843
1.97882
2.02373
3.13319
3.04664
3.186
3.01741
3.0606
3.03044
3.4439
4.08295
2.69039
1.97227
1.89615
1.92978
2.12956
2.66326
2.45581
13.2593
5.43568
1.61403
0.673144
0.32867
0.213486
0.206996
0.210298
0.205734
0.196308
0.180226
0.162033
0.143109
0.127746
0.121356
0.119066
0.119038
0.123036
0.132704
0.145439
0.160399
0.179657
0.214627
0.287324
0.392398
0.503744
0.582544
0.64825
0.684124
0.706555
0.656666
0.566384
0.489746
0.405538
0.334259
0.264335
0.212323
0.176031
0.149978
0.137573
0.129892
0.128169
0.128173
0.13144
0.132402
0.132311
0.129472
0.120713
0.113472
0.111524
0.11119
0.111816
0.114119
0.118654
0.124643
0.130887
0.136232
0.140788
0.143975
0.146429
0.148568
0.150416
0.150447
0.14867
0.14648
0.140718
0.13017
0.121999
0.118098
0.117901
0.122624
0.127989
0.131104
0.132819
0.133767
0.131095
0.12964
0.129883
0.130539
0.131013
0.129569
0.120171
0.109516
0.0921695
0.0817264
0.0773473
0.0767864
0.0775358
0.0806748
0.0859584
0.0906361
0.0967837
0.0974475
0.092736
0.0880547
0.0826273
0.0815565
0.0800123
0.0796239
0.0810076
0.0884744
0.0903091
0.0904552
0.0909046
0.0920976
0.0940564
0.0995412
0.101934
0.101742
0.102073
0.10434
0.111794
0.122592
0.127408
0.131713
0.136904
0.138731
0.141112
0.149846
0.163545
0.169014
0.173799
0.183505
0.198493
0.205282
0.218948
0.240589
0.298493
0.565026
0.728772
0.800336
0.826192
0.832351
0.818158
0.813228
0.786035
0.771425
0.748452
0.715612
0.687785
0.648156
0.622716
0.591559
0.62634
0.596259
0.600872
0.696216
0.762779
0.768522
0.820169
0.885242
0.919343
0.944409
1.03265
1.04987
1.1191
1.37872
1.54859
1.50471
1.9594
1.89617
1.65219
1.93965
1.9292
1.99329
3.14586
2.97952
3.03847
2.74025
2.75906
2.89359
3.39497
3.24998
2.22546
1.92395
1.88569
1.93888
2.13714
2.50008
2.25929
13.7933
5.33442
1.45668
0.637453
0.303959
0.212797
0.210322
0.212943
0.208292
0.201419
0.182645
0.161139
0.141671
0.128165
0.124053
0.123639
0.127643
0.140043
0.163399
0.198247
0.251944
0.307836
0.358589
0.416764
0.48541
0.545175
0.577657
0.594828
0.571062
0.498563
0.444308
0.382992
0.327202
0.274036
0.228321
0.185425
0.159387
0.142116
0.130471
0.125796
0.124289
0.124687
0.128571
0.131011
0.131453
0.1301
0.123318
0.114196
0.111546
0.111059
0.111724
0.114712
0.12171
0.130728
0.137703
0.143547
0.14769
0.15023
0.152269
0.155424
0.156182
0.152809
0.14773
0.142447
0.138322
0.131625
0.122966
0.114695
0.107686
0.100601
0.0963859
0.100556
0.10928
0.113792
0.112774
0.107781
0.102411
0.103994
0.110481
0.118187
0.119011
0.113841
0.107097
0.0956888
0.0853901
0.0774683
0.0756189
0.0755733
0.076406
0.0814812
0.0833114
0.0870802
0.0892228
0.0897687
0.0877355
0.0822082
0.0804394
0.0796715
0.0793467
0.0804808
0.0862308
0.0895461
0.0901767
0.0906119
0.0920347
0.0941491
0.0989176
0.103174
0.102413
0.102676
0.10494
0.11361
0.122667
0.126652
0.130626
0.137061
0.142869
0.144967
0.150276
0.162724
0.176543
0.184568
0.190669
0.206279
0.214764
0.223317
0.241396
0.270292
0.421009
0.649043
0.760023
0.797437
0.802903
0.78669
0.786049
0.769243
0.735356
0.714539
0.697166
0.671665
0.641902
0.609081
0.573338
0.615901
0.588757
0.594172
0.670474
0.75861
0.763029
0.801772
0.864854
0.913788
0.942126
0.98853
1.04249
1.14091
1.36744
1.41119
1.40771
1.85702
1.70264
1.55602
1.88355
1.90455
1.98928
3.17765
2.92855
3.01199
2.63463
2.66157
2.82584
3.29276
2.88604
2.03677
1.91528
1.91913
2.01487
2.21909
2.37913
2.06529
14.0916
5.07052
1.28887
0.599442
0.274042
0.209162
0.209558
0.213389
0.20989
0.205125
0.189463
0.169837
0.149127
0.139489
0.137009
0.138995
0.153036
0.185583
0.23935
0.298996
0.344196
0.379021
0.409894
0.452814
0.491598
0.507432
0.50209
0.437887
0.388033
0.349689
0.309753
0.266562
0.228921
0.198096
0.170714
0.148826
0.135052
0.127227
0.123243
0.122076
0.122124
0.124957
0.128834
0.129765
0.129208
0.125476
0.11747
0.112716
0.111694
0.111859
0.114079
0.119481
0.128704
0.137306
0.143168
0.146918
0.149334
0.150435
0.150938
0.151961
0.155072
0.156699
0.153333
0.144662
0.136948
0.127511
0.118382
0.111514
0.105395
0.0980668
0.0896374
0.0845199
0.0858616
0.0964938
0.102811
0.0997137
0.0922446
0.0877247
0.0878487
0.0966773
0.108044
0.110146
0.105604
0.0956706
0.0885689
0.0809363
0.0769685
0.0761378
0.0759473
0.0788789
0.0807522
0.082728
0.0845725
0.0857982
0.0860055
0.083067
0.0803647
0.0804926
0.0803933
0.0810995
0.0831861
0.0890572
0.0908033
0.0915945
0.0936424
0.0966774
0.10006
0.106824
0.106203
0.106981
0.110616
0.121187
0.12705
0.128903
0.132565
0.142122
0.156847
0.157806
0.160143
0.165471
0.183088
0.199537
0.207823
0.219438
0.232923
0.23448
0.246491
0.267029
0.321085
0.551025
0.69468
0.755611
0.779017
0.768357
0.766282
0.751252
0.716473
0.675882
0.650668
0.632
0.627767
0.597221
0.559802
0.593613
0.58198
0.577084
0.633253
0.735278
0.742494
0.776612
0.835199
0.909086
0.939431
0.958775
1.04606
1.16891
1.32601
1.31377
1.31713
1.64657
1.43979
1.4388
1.84226
1.9053
1.99962
3.20052
2.88266
3.00945
2.57535
2.59373
2.74685
3.24271
2.54216
1.89748
1.93108
2.04187
2.15696
2.351
2.31814
2.07011
14.2033
4.65462
1.14485
0.591816
0.253873
0.196529
0.205487
0.212719
0.212271
0.213499
0.207711
0.199224
0.18389
0.176658
0.175188
0.182613
0.211821
0.258184
0.299289
0.339799
0.371316
0.394396
0.418165
0.434879
0.439642
0.402982
0.354677
0.315962
0.284479
0.256919
0.229085
0.198209
0.175012
0.157703
0.143234
0.133484
0.12718
0.124133
0.122282
0.121693
0.122056
0.125511
0.128888
0.129347
0.128506
0.1253
0.118116
0.114556
0.114172
0.116223
0.12095
0.129285
0.13666
0.142088
0.145414
0.147999
0.149421
0.149134
0.146632
0.141436
0.133616
0.128152
0.128745
0.130097
0.128261
0.119927
0.108667
0.104371
0.102615
0.0977751
0.0891986
0.0808648
0.0786051
0.0815069
0.0923006
0.0948378
0.0905298
0.0846948
0.0839433
0.0857478
0.0944718
0.101589
0.103015
0.0964677
0.0893705
0.0833424
0.0777232
0.0769754
0.0761497
0.0769512
0.0789737
0.0801863
0.0818567
0.0832525
0.0840601
0.083239
0.0816525
0.0820598
0.0817215
0.0825947
0.083839
0.088991
0.0927745
0.0940959
0.0954547
0.0994666
0.105806
0.110473
0.110839
0.113054
0.119091
0.128188
0.136321
0.137042
0.141245
0.150652
0.16294
0.170496
0.18036
0.179887
0.191842
0.22008
0.229633
0.236907
0.250939
0.253436
0.259114
0.271243
0.288712
0.43483
0.617732
0.70729
0.74745
0.748471
0.739115
0.732982
0.706207
0.65249
0.625977
0.606008
0.602672
0.593857
0.557593
0.555298
0.559704
0.562814
0.59824
0.685426
0.697239
0.727012
0.787112
0.898066
0.917678
0.943861
1.05225
1.17888
1.26274
1.21775
1.2218
1.34026
1.28133
1.35788
1.81166
1.94042
2.01982
3.18691
2.83791
3.031
2.52147
2.49225
2.58338
3.13271
2.22976
1.82328
1.91915
2.20159
2.30436
2.43721
2.316
2.09926
13.9411
3.74934
1.07382
0.603703
0.24952
0.188834
0.195283
0.211621
0.212075
0.216244
0.214912
0.21341
0.211938
0.213532
0.220948
0.231132
0.25589
0.28711
0.320778
0.350423
0.373626
0.383738
0.387209
0.375897
0.337296
0.300738
0.268291
0.239976
0.2184
0.19942
0.17875
0.159803
0.148106
0.13944
0.133065
0.12986
0.127112
0.124803
0.123384
0.122815
0.123133
0.126879
0.129832
0.130255
0.129683
0.127632
0.122638
0.121038
0.122234
0.125057
0.129644
0.136066
0.139507
0.142194
0.145102
0.146342
0.146147
0.143526
0.140511
0.137559
0.128427
0.113943
0.106485
0.103651
0.102777
0.101089
0.0933068
0.0844657
0.0836335
0.0870303
0.0866513
0.0791528
0.0767039
0.0791899
0.0895904
0.0924456
0.089666
0.0841561
0.0830519
0.0839777
0.0887316
0.09471
0.0971493
0.0950161
0.088907
0.0835177
0.0771598
0.075679
0.0747636
0.0738497
0.075074
0.0768631
0.0785045
0.0802528
0.0824954
0.0826401
0.0819846
0.0824209
0.082854
0.0843118
0.0857432
0.0897266
0.0959023
0.0978984
0.100479
0.104034
0.113052
0.116291
0.11714
0.122042
0.132423
0.137414
0.145248
0.146675
0.154259
0.166376
0.168988
0.178956
0.196862
0.198868
0.204497
0.229259
0.2444
0.250736