/*--------------------------------*- C++ -*----------------------------------*\
| =========                 |                                                 |
| \\      /  F ield         | OpenFOAM: The Open Source CFD Toolbox           |
|  \\    /   O peration     | Version:  dev                                   |
|   \\  /    A nd           | Web:      http://www.openfoam.org               |
|    \\/     M anipulation  |                                                 |
\*---------------------------------------------------------------------------*/
FoamFile
{
    version     2.0;
    format      ascii;
    class       volScalarField;
    object      k_0;
    location    "9.165";
}
// * * * * * * * * * * * * * * * * * * * * * * * * * * * * * * * * * * * * * //

dimensions      [0 2 -2 0 0 0 0];

internalField   nonuniform List<scalar> 
12225
(
8.9074
9.19176
5.45535
5.42593
3.91333
5.30519
4.5839
6.28019
5.76964
7.75357
7.12981
9.78754
8.608
12.635
11.2819
15.82
29.7982
38.5712
1.63681
5.56472
4.75246
5.7937
4.24502
5.43809
4.08003
5.34338
4.45786
5.45998
5.0125
5.3901
5.55283
5.11649
5.72367
5.09831
8.02856
11.7316
0.159391
1.94043
2.23492
3.47506
3.00883
3.73935
3.21464
3.58579
3.33522
3.15303
3.25029
2.72188
3.07869
2.40707
2.95721
2.52874
4.68015
9.87155
0.0209332
0.414735
0.601741
0.988895
1.2148
1.34208
1.72552
1.60421
1.99631
1.62037
1.99524
1.49343
1.75166
1.31207
1.69388
1.46632
3.04276
9.27991
0.00407029
0.0863294
0.164346
0.281678
0.490428
0.556677
0.760706
0.750643
0.91114
0.793987
0.965917
0.766269
0.922328
0.717363
0.95048
0.873844
2.08373
3.89606
0.00634007
0.0377102
0.0713905
0.107017
0.194551
0.218397
0.315077
0.317719
0.410247
0.365008
0.463907
0.388963
0.482149
0.40112
0.530665
0.535911
1.11437
1.74869
0.0118662
0.0209546
0.0400799
0.0523886
0.090129
0.0986954
0.147509
0.150518
0.201518
0.186385
0.239611
0.213801
0.265232
0.235337
0.31005
0.303867
0.562464
0.687136
0.0127272
0.0210516
0.0351769
0.0447013
0.0648655
0.0739532
0.0982624
0.105206
0.130432
0.130669
0.154776
0.150287
0.172303
0.166145
0.196084
0.198458
0.30196
0.334944
0.0160501
0.0327461
0.0393665
0.050366
0.0640017
0.0735413
0.0900165
0.098483
0.115117
0.120905
0.13365
0.137087
0.145245
0.146688
0.158842
0.162085
0.204604
0.216462
0.0200809
0.0591999
0.0593163
0.0752795
0.0775065
0.0911877
0.0963704
0.108452
0.11607
0.125667
0.131474
0.137317
0.141223
0.143692
0.149801
0.151351
0.166406
0.170075
0.038581
0.0947175
0.0976829
0.126183
0.123024
0.141945
0.13564
0.145275
0.143204
0.150446
0.149547
0.152676
0.152078
0.151952
0.15249
0.152
0.157721
0.159289
0.0993821
0.179269
0.184108
0.218501
0.217814
0.238355
0.228408
0.237053
0.223455
0.224466
0.211034
0.206225
0.195758
0.187492
0.177443
0.169733
0.166127
0.163424
0.270073
0.346952
0.348524
0.372054
0.36754
0.379732
0.37044
0.371047
0.356785
0.34678
0.323413
0.308309
0.282975
0.26691
0.246419
0.229631
0.208687
0.19549
0.548364
0.589451
0.581431
0.586414
0.570991
0.56948
0.554288
0.542728
0.515383
0.49379
0.457468
0.434087
0.404021
0.38104
0.353708
0.329383
0.302395
0.278273
0.891933
0.941332
0.965733
0.990373
0.975496
0.95749
0.920931
0.874029
0.807446
0.75037
0.687336
0.633145
0.578127
0.530906
0.482297
0.441623
0.400422
0.368946
1.41567
1.44556
1.44052
1.39537
1.30957
1.22897
1.14037
1.05335
0.964398
0.882363
0.802887
0.731886
0.663335
0.603725
0.544941
0.496208
0.447758
0.411243
1.78198
1.68176
1.63931
1.53838
1.43232
1.32904
1.22375
1.12166
1.02251
0.931342
0.845316
0.768297
0.694922
0.630899
0.568528
0.5167
0.465292
0.426093
1.79931
1.70953
1.65431
1.54697
1.44088
1.33624
1.22962
1.12594
1.02578
0.933865
0.847616
0.770395
0.696928
0.632614
0.56996
0.517755
0.466013
0.426195
1.51848
1.51971
1.5019
1.43304
1.35168
1.26728
1.17444
1.07972
0.986093
0.899628
0.818775
0.746268
0.677144
0.616333
0.556262
0.505975
0.4554
0.416476
0.950161
1.03229
1.06868
1.07332
1.06677
1.04483
0.997148
0.930537
0.857086
0.787726
0.723236
0.665217
0.609459
0.559802
0.508524
0.465133
0.419099
0.383868
0.581225
0.638068
0.651817
0.65062
0.642524
0.638588
0.630548
0.608586
0.573295
0.539516
0.509237
0.481764
0.452886
0.426334
0.39375
0.364862
0.329795
0.302911
0.311652
0.365567
0.393862
0.410051
0.416647
0.416803
0.414133
0.403261
0.374184
0.343406
0.316642
0.299292
0.284935
0.274086
0.259702
0.248425
0.233219
0.222306
0.157416
0.191975
0.22552
0.24253
0.244198
0.24325
0.238317
0.235033
0.232933
0.232668
0.232036
0.231133
0.228218
0.22531
0.219908
0.215756
0.208441
0.203126
0.0712837
0.0989311
0.109156
0.115883
0.131216
0.147907
0.164606
0.182178
0.195538
0.205568
0.212831
0.216966
0.217452
0.216961
0.21505
0.212808
0.208206
0.204275
0.0302943
0.0400343
0.0523945
0.075842
0.103651
0.130562
0.157414
0.183671
0.205647
0.222962
0.235783
0.242949
0.245629
0.246243
0.245919
0.244636
0.241985
0.239297
0.00881759
0.0208381
0.0440078
0.0894218
0.14817
0.202693
0.251038
0.29393
0.329764
0.355616
0.37262
0.380285
0.382294
0.383455
0.383263
0.382512
0.380357
0.376559
0.00514008
0.0475128
0.158862
0.3205
0.475303
0.596439
0.68883
0.757249
0.803265
0.827401
0.831483
0.826407
0.815549
0.807177
0.798875
0.790321
0.776323
0.763209
0.0508086
0.399165
1.04078
1.52073
1.85873
1.99465
2.0566
2.07859
2.06611
2.02539
1.95252
1.87549
1.81874
1.77744
1.72949
1.68443
1.62322
1.57385
0.824465
3.15629
4.48985
4.70838
4.54157
4.3275
4.02767
3.7321
3.4714
3.27855
3.13901
3.02003
2.89286
2.76936
2.64922
2.53302
2.42563
2.29907
6.71798
9.30199
7.99445
5.91774
4.67473
4.06059
3.76004
3.62939
3.58875
3.58938
3.6128
3.63625
3.64862
3.64664
3.63296
3.60351
3.53808
3.34624
0.0809999
0.148972
0.214324
0.266419
0.326228
0.389799
0.447042
0.495701
0.534029
0.582499
0.637447
0.687816
0.748974
0.81058
0.891466
1.00985
1.1003
1.25418
1.40675
1.53135
1.71748
1.84787
1.99703
2.14909
2.25939
2.35037
2.35701
2.31719
2.2162
2.05853
1.90813
1.83208
1.81049
1.8034
1.80092
1.83102
1.95123
2.09127
2.23419
2.35449
2.44387
2.48181
2.46143
2.49174
2.57213
2.78191
2.99926
3.17858
3.41459
3.90986
4.52351
5.07923
5.5454
5.93724
6.26135
6.52225
6.71148
6.8389
6.89914
6.91793
6.86905
6.74958
6.58206
6.38001
6.1378
5.86917
5.56235
5.25408
4.93981
4.62772
4.32937
4.03795
3.73131
3.45216
3.23673
3.04024
2.84016
2.65765
2.49923
2.33847
2.22936
2.13275
2.0188
1.96707
1.90548
1.87171
1.84144
1.8332
1.84073
1.85471
1.88187
1.91495
1.95735
2.01074
2.06818
2.14492
2.23535
2.33639
2.45513
2.59088
2.72564
2.82932
2.92007
3.00921
3.07673
3.11292
3.12826
3.12334
3.09242
3.00806
2.88368
2.72859
2.54875
2.36708
2.1944
2.06154
1.98615
1.95847
1.95303
1.96988
2.06956
2.34238
2.82407
3.36396
3.78007
4.10962
4.55312
4.9186
5.26068
5.54891
5.75364
5.90363
6.09971
6.55165
7.14069
7.74947
8.4015
9.05783
9.35915
9.63892
10.0458
10.2024
10.5392
11.1717
11.1192
11.7356
13.0669
14.3014
14.7726
16.2174
18.2187
19.0207
20.2207
21.5409
22.0082
22.6076
22.4011
22.1642
22.3036
21.9752
21.359
19.6744
20.2013
24.0806
24.8141
22.4991
23.4772
26.6458
25.554
18.0708
11.9998
9.86351
9.71619
10.8384
9.97262
9.38224
8.61638
9.55375
10.4685
13.1651
0.438338
0.191576
0.200399
0.276108
0.407183
0.504732
0.550257
0.53299
0.497812
0.454297
0.399167
0.34513
0.31532
0.285703
0.276119
0.270818
0.266628
0.273076
0.28244
0.302168
0.348232
0.380359
0.452097
0.5152
0.604055
0.727215
0.832828
0.987377
1.08702
1.09663
1.07804
1.01273
0.916018
0.828414
0.700554
0.60368
0.579794
0.586817
0.646705
0.777277
0.943136
1.01887
1.11555
1.21246
1.43714
2.40943
3.17335
3.49144
3.81063
4.00747
4.06641
3.97377
3.7334
3.43252
3.1121
2.78678
2.48044
2.19441
1.91497
1.66262
1.45773
1.27899
1.1391
1.01397
0.914031
0.845603
0.782744
0.735049
0.690846
0.651979
0.614909
0.576736
0.547833
0.534928
0.528308
0.52104
0.504997
0.487865
0.476793
0.469755
0.476124
0.476763
0.469403
0.485029
0.491857
0.508007
0.517682
0.528093
0.55576
0.575875
0.6067
0.630429
0.64914
0.675629
0.691651
0.717156
0.742473
0.766485
0.795571
0.834569
0.897214
0.953835
0.984318
1.02096
1.06524
1.09479
1.10595
1.12157
1.14667
1.16799
1.17115
1.15639
1.12248
1.07892
1.02673
0.983242
0.960155
0.955037
0.966873
0.966788
0.949158
0.959348
1.02834
1.21127
1.38251
1.44991
1.5035
1.53197
1.57595
1.76651
1.92016
2.19932
2.73679
3.38137
3.96202
4.27023
4.29525
4.03638
3.67819
3.5169
3.49632
3.1086
2.88886
3.42753
3.6817
3.87752
4.18237
3.99153
3.99662
4.31034
4.71882
5.05893
5.37198
6.03759
6.47589
7.06803
7.48734
7.50509
7.45786
7.4448
7.44509
7.27365
7.38247
7.53711
7.45914
7.51468
8.09658
8.66364
8.68294
7.91677
6.783
7.15982
8.65861
6.96452
5.68422
5.66059
5.98946
5.9975
5.81739
6.26392
1.23127
0.394334
0.280943
0.397875
0.646725
0.706644
0.638882
0.540318
0.431224
0.317248
0.245293
0.210316
0.192389
0.185179
0.179144
0.178149
0.174793
0.171252
0.169529
0.16706
0.167237
0.168995
0.175865
0.184614
0.200572
0.234312
0.262665
0.326231
0.403214
0.460475
0.53493
0.565896
0.54963
0.490517
0.416451
0.37943
0.352938
0.376076
0.450643
0.532763
0.817567
1.14703
2.08952
2.4766
2.463
2.57026
2.62567
2.43826
2.19984
1.97053
1.68177
1.35157
1.09876
0.878672
0.697501
0.552393
0.441675
0.361417
0.303212
0.263277
0.2415
0.224939
0.214659
0.210066
0.208757
0.20885
0.20989
0.212139
0.213052
0.212346
0.209779
0.208894
0.209923
0.210631
0.209154
0.204983
0.202002
0.199537
0.197562
0.196426
0.197362
0.198376
0.197873
0.203857
0.206882
0.214212
0.221945
0.228874
0.2436
0.254753
0.270232
0.284206
0.295893
0.30919
0.317593
0.331518
0.346989
0.357779
0.36849
0.382385
0.410403
0.451327
0.474906
0.496756
0.534248
0.569932
0.589687
0.614328
0.646585
0.680034
0.715787
0.738852
0.752062
0.750582
0.725995
0.691929
0.65018
0.628383
0.636405
0.638766
0.620673
0.609565
0.627219
0.700471
0.817562
0.849359
0.849814
0.849923
0.951578
1.25459
1.48241
1.8899
2.51788
2.79822
2.77576
2.59163
2.4073
2.06058
1.86188
1.8205
1.85062
1.64547
1.62801
1.9676
2.08873
2.17889
2.67649
2.63882
2.3558
2.61781
2.69887
2.64695
2.89363
3.19072
3.3585
3.75899
4.44811
4.67576
4.77716
4.83616
5.02107
5.14144
5.14135
5.36939
5.01419
5.19699
6.15673
6.27452
6.06134
5.63703
5.4791
6.55761
7.60892
5.18051
5.12662
4.55168
4.74424
4.47516
4.15613
4.09336
2.46529
0.840234
0.620316
0.898007
0.941671
0.814677
0.614529
0.399265
0.254139
0.197276
0.176036
0.170132
0.167928
0.168334
0.167457
0.165889
0.164829
0.160415
0.158578
0.155178
0.150911
0.145309
0.145112
0.146122
0.147649
0.154213
0.160253
0.172534
0.201869
0.233666
0.275143
0.330564
0.354036
0.346806
0.308785
0.292821
0.305044
0.438142
0.691213
0.997779
2.03183
2.33035
2.19593
2.07536
1.84222
1.62273
1.3371
1.10479
0.864382
0.679079
0.531441
0.407381
0.316578
0.249763
0.211486
0.185208
0.171241
0.164613
0.162542
0.162536
0.163993
0.167405
0.171093
0.175106
0.179568
0.183983
0.189072
0.194953
0.199894
0.202327
0.203105
0.202147
0.202656
0.202568
0.200775
0.194571
0.187778
0.184664
0.182219
0.178541
0.17646
0.173194
0.171054
0.171525
0.168309
0.167897
0.168266
0.170274
0.176017
0.181573
0.188726
0.194342
0.201395
0.207565
0.210288
0.216675
0.228142
0.236395
0.240578
0.245763
0.256446
0.283141
0.30119
0.313579
0.334463
0.362267
0.381063
0.402128
0.429286
0.446881
0.468928
0.501229
0.534239
0.55188
0.558004
0.55237
0.515038
0.487941
0.491807
0.503418
0.497921
0.488316
0.490521
0.526147
0.609127
0.62341
0.633149
0.662111
0.847735
1.15184
1.42972
1.80515
2.07735
2.1217
2.06642
1.82716
1.64741
1.42949
1.33659
1.3575
1.48739
1.33483
1.28387
1.56144
1.62562
1.56255
1.87949
2.45862
2.12327
2.08278
2.14024
2.01796
2.17244
2.34624
2.46156
2.73221
3.01227
3.20847
3.46972
3.57418
3.92462
4.20639
4.15876
4.47122
4.3492
4.44044
5.19
5.2634
4.92632
4.6654
4.84233
6.29752
6.2403
4.50849
4.9257
4.08354
4.028
3.65809
3.44251
3.38793
3.86889
1.54308
1.38211
1.30112
1.03037
0.678804
0.367495
0.228322
0.181093
0.168678
0.166023
0.167507
0.170156
0.169307
0.167732
0.16499
0.162111
0.156828
0.155225
0.152419
0.14945
0.142328
0.139145
0.146339
0.145949
0.143874
0.14361
0.141634
0.144262
0.152647
0.179372
0.216504
0.238186
0.25005
0.273624
0.356337
0.497793
1.00538
1.85786
2.05729
2.019
1.89568
1.52435
1.21211
0.956393
0.752276
0.596942
0.458709
0.345006
0.260413
0.215445
0.182334
0.163681
0.155982
0.15365
0.153287
0.154955
0.157512
0.160058
0.162722
0.165192
0.167529
0.170733
0.17511
0.180496
0.18567
0.191284
0.197982
0.206299
0.213234
0.217548
0.218694
0.218854
0.217226
0.217848
0.216241
0.207592
0.200243
0.195778
0.192293
0.188704
0.180295
0.175169
0.171561
0.165648
0.162485
0.159599
0.157068
0.156533
0.157987
0.16195
0.163677
0.167345
0.172545
0.172666
0.173392
0.178371
0.187941
0.190961
0.192288
0.197183
0.214447
0.229812
0.237365
0.246385
0.268099
0.285628
0.304969
0.326165
0.337467
0.344816
0.347284
0.36041
0.401399
0.431247
0.436753
0.433905
0.41653
0.414788
0.431288
0.436549
0.427069
0.415731
0.424674
0.464528
0.490558
0.529995
0.611308
0.842808
1.10546
1.41852
1.68016
1.74791
1.70003
1.59801
1.45236
1.30751
1.19784
1.12968
1.14375
1.31168
1.20678
1.08433
1.3352
1.47043
1.37036
1.39407
2.28025
2.15695
1.80442
1.86365
1.81093
1.83395
1.95454
2.11088
2.34889
2.38754
2.65893
2.6654
2.77498
3.61506
3.67788
3.63072
3.95192
4.03527
4.04624
4.27527
4.55967
4.26271
4.17882
4.548
5.92386
5.41993
4.3098
4.61713
3.71611
3.58931
3.26249
2.97813
2.96592
5.47731
2.55083
1.96392
1.37409
0.797569
0.389032
0.227955
0.178347
0.168304
0.16814
0.173112
0.175688
0.173044
0.169335
0.163663
0.155701
0.14992
0.14723
0.14745
0.146324
0.145485
0.142473
0.138203
0.140408
0.153128
0.149558
0.13752
0.130363
0.129664
0.132015
0.147221
0.186381
0.231268
0.288361
0.376871
0.724924
1.50225
1.83622
1.84113
1.76556
1.47652
1.07195
0.816546
0.63889
0.483109
0.353858
0.276455
0.221843
0.182393
0.161015
0.15301
0.150182
0.149545
0.150877
0.153409
0.156159
0.158897
0.161788
0.164129
0.166087
0.167183
0.167837
0.168292
0.169238
0.171108
0.173415
0.177127
0.182888
0.191635
0.202502
0.210511
0.214659
0.216831
0.216568
0.21806
0.217382
0.211578
0.205505
0.199136
0.196618
0.196947
0.194038
0.191606
0.186489
0.177379
0.168754
0.161318
0.154551
0.149741
0.147378
0.148185
0.148671
0.149558
0.154583
0.155921
0.154702
0.154893
0.158995
0.164783
0.165642
0.168006
0.179119
0.193293
0.199317
0.202219
0.212169
0.226689
0.247529
0.265811
0.273064
0.274799
0.273893
0.275014
0.287875
0.330458
0.35084
0.353123
0.344955
0.336
0.344614
0.363396
0.36174
0.342327
0.333674
0.340131
0.382788
0.466256
0.60055
0.859418
1.07451
1.2957
1.53854
1.58441
1.53597
1.39598
1.25521
1.1568
1.1021
1.04708
1.03369
1.09851
1.08804
0.956661
1.12668
1.44737
1.3449
1.21465
1.77594
2.17056
1.68409
1.67654
1.72218
1.64223
1.72412
1.93807
2.02535
2.08809
2.5835
2.49517
2.56853
3.58995
3.49879
3.36319
3.48909
3.68893
3.76034
3.86909
4.08382
3.89571
3.92465
4.39872
5.21171
4.68821
4.41222
4.19835
3.25531
3.1926
3.02256
2.74943
2.68916
7.22584
3.65297
2.17196
1.18307
0.535749
0.272027
0.187337
0.170664
0.172538
0.180197
0.181099
0.176556
0.167778
0.158774
0.150766
0.143925
0.140232
0.139192
0.139894
0.140422
0.140345
0.143901
0.144905
0.141895
0.145523
0.150421
0.138965
0.126314
0.125772
0.131996
0.15798
0.215124
0.292173
0.525629
1.09372
1.51367
1.62809
1.65347
1.45581
1.06438
0.809273
0.607988
0.440003
0.332711
0.262133
0.200022
0.170992
0.155413
0.148633
0.146542
0.146353
0.148184
0.15067
0.15196
0.153091
0.154309
0.154903
0.154839
0.154703
0.154695
0.15455
0.153677
0.152579
0.152644
0.152848
0.152992
0.152963
0.153631
0.154473
0.159323
0.166961
0.175233
0.183985
0.193891
0.202276
0.201507
0.197803
0.189351
0.179893
0.175786
0.179714
0.185171
0.188108
0.188675
0.183795
0.175924
0.169527
0.158179
0.14813
0.140585
0.138766
0.135883
0.134713
0.135893
0.139669
0.141075
0.141886
0.142841
0.144317
0.143829
0.143047
0.14476
0.154584
0.163853
0.166102
0.168434
0.171106
0.185222
0.210236
0.224025
0.228071
0.22877
0.228917
0.233403
0.251766
0.277045
0.288776
0.286051
0.272248
0.262806
0.271279
0.278141
0.272645
0.270665
0.282253
0.323993
0.422727
0.620523
0.859349
1.00085
1.13278
1.37864
1.45888
1.44172
1.33461
1.21459
1.10181
1.04376
0.989177
0.936622
0.886229
0.989702
0.939328
0.986726
1.41972
1.39369
1.12636
1.12622
1.86474
1.52813
1.50092
1.63021
1.48404
1.54087
1.78652
1.745
1.89354
2.62283
2.47922
2.53655
3.25042
3.33452
3.27407
3.06299
3.14784
3.51897
3.59888
3.83415
3.71222
3.80951
4.31138
4.36448
4.28043
5.10368
3.75387
2.84867
2.84881
2.74457
2.71766
2.6735
9.00567
4.484
2.19013
0.938866
0.423271
0.229385
0.179395
0.177661
0.187343
0.188084
0.180919
0.169569
0.160998
0.15344
0.145439
0.139796
0.136803
0.136097
0.136655
0.13809
0.136877
0.13684
0.140419
0.148933
0.148658
0.137699
0.129742
0.127459
0.134199
0.160447
0.224856
0.39955
0.78991
1.17093
1.36882
1.42859
1.38431
1.08841
0.835439
0.612986
0.452847
0.346835
0.254526
0.200942
0.172206
0.151976
0.145108
0.142902
0.142605
0.144098
0.144817
0.14506
0.144797
0.141277
0.137132
0.13473
0.133852
0.134295
0.136489
0.139415
0.14257
0.146352
0.148954
0.150128
0.150554
0.150541
0.149242
0.14756
0.143276
0.141094
0.140351
0.142521
0.14561
0.152996
0.163256
0.171022
0.172374
0.166686
0.158766
0.14703
0.136448
0.137832
0.148599
0.163309
0.171459
0.171006
0.167672
0.159304
0.148279
0.137248
0.131596
0.123366
0.11624
0.11558
0.120469
0.122844
0.124144
0.126603
0.12858
0.128663
0.127596
0.129093
0.133447
0.137889
0.139282
0.139947
0.140974
0.141342
0.150363
0.171762
0.187417
0.20001
0.203966
0.20647
0.20616
0.215421
0.235284
0.238517
0.231154
0.213104
0.214934
0.234404
0.24115
0.241719
0.250564
0.287515
0.385954
0.625198
0.840814
0.912121
1.02275
1.22357
1.31181
1.331
1.28821
1.19694
1.07245
0.99439
0.919931
0.847776
0.811357
0.932857
0.942753
0.899404
1.28233
1.39652
1.08799
0.922802
1.20033
1.21808
1.25122
1.43603
1.2944
1.32946
1.51226
1.57342
1.7929
2.58805
2.4706
2.54002
2.40166
2.85531
3.0106
2.71607
2.68837
3.29207
3.36018
3.65243
3.5764
3.7271
4.11241
3.86116
4.27532
5.34482
3.35007
2.58822
2.50835
2.436
2.78177
2.84378
10.6966
5.01132
2.0244
0.810394
0.377002
0.217063
0.183709
0.19216
0.196252
0.190237
0.178505
0.168845
0.160948
0.151959
0.140235
0.131819
0.127993
0.126581
0.125985
0.127122
0.130308
0.136935
0.139119
0.139477
0.13818
0.13732
0.139747
0.155903
0.203948
0.344368
0.624425
0.89438
1.09333
1.17456
1.21554
1.0698
0.841756
0.643309
0.480828
0.366245
0.266878
0.215372
0.173853
0.152628
0.143222
0.139448
0.138774
0.139587
0.139745
0.138826
0.135018
0.127736
0.123071
0.120499
0.120182
0.121906
0.125898
0.130222
0.134241
0.137858
0.14147
0.145457
0.149129
0.151211
0.152022
0.152079
0.150556
0.14823
0.142731
0.138402
0.135854
0.136298
0.136982
0.140518
0.143363
0.149983
0.154172
0.158186
0.155671
0.145661
0.128974
0.117359
0.109008
0.111079
0.12836
0.144165
0.149506
0.150601
0.144797
0.134559
0.127175
0.118675
0.107914
0.100609
0.0987545
0.0988149
0.0997936
0.10485
0.113347
0.116684
0.115476
0.115627
0.120999
0.121891
0.121754
0.120634
0.120951
0.120809
0.12216
0.127772
0.137458
0.162726
0.181194
0.182855
0.181092
0.175508
0.178486
0.188134
0.187919
0.179812
0.179344
0.19309
0.209097
0.212846
0.220419
0.246995
0.334246
0.599585
0.810781
0.873769
0.921849
1.07407
1.14985
1.16524
1.18029
1.12237
1.0136
0.90465
0.799255
0.776349
0.763881
0.874597
0.932446
0.825193
0.955593
1.15087
0.983688
0.847868
0.87637
0.929632
1.01431
1.15265
1.07375
1.09828
1.1802
1.43566
1.72182
2.27352
2.41002
2.48783
2.24015
2.30126
2.52571
2.29143
2.30669
3.21947
3.19914
3.5127
3.45719
3.61472
3.71816
3.63337
4.639
4.76256
2.73956
2.25847
2.1541
2.23698
2.86525
2.92119
12.1791
5.35437
1.90921
0.744653
0.359697
0.214375
0.198253
0.204156
0.20319
0.194871
0.182154
0.170747
0.159531
0.143388
0.12652
0.119601
0.117208
0.116999
0.119441
0.123325
0.128035
0.133086
0.1363
0.141561
0.147394
0.163156
0.209495
0.334985
0.530241
0.7108
0.868308
0.964081
1.00865
0.979991
0.799316
0.655434
0.507964
0.386466
0.288342
0.23407
0.181116
0.157635
0.142453
0.137054
0.13567
0.135818
0.136241
0.135984
0.132864
0.123893
0.117134
0.114702
0.114074
0.114402
0.116857
0.121088
0.126222
0.132185
0.138094
0.143233
0.14653
0.14904
0.150204
0.150487
0.150475
0.150578
0.149704
0.14831
0.144792
0.141908
0.138506
0.13771
0.137309
0.139254
0.140345
0.143154
0.145596
0.148506
0.150068
0.14718
0.13217
0.115589
0.102039
0.0932777
0.0932999
0.101128
0.113642
0.123942
0.128976
0.128301
0.122304
0.114352
0.104104
0.0965481
0.0924807
0.0897808
0.0865164
0.0862563
0.089636
0.0986815
0.101639
0.101248
0.102362
0.103877
0.106846
0.108315
0.107522
0.107719
0.108968
0.112086
0.116567
0.124379
0.150512
0.155855
0.153245
0.149369
0.149023
0.15427
0.167992
0.169136
0.169014
0.173658
0.191296
0.20125
0.208308
0.225742
0.29286
0.536738
0.760229
0.831944
0.866099
0.944905
1.00675
1.01139
0.996459
0.952457
0.902022
0.809299
0.738938
0.713088
0.690696
0.768499
0.798024
0.754345
0.705593
0.740808
0.760061
0.770967
0.810972
0.869338
0.947799
1.00863
1.00081
1.05918
1.08881
1.29649
1.60549
1.66505
2.10147
2.27933
2.13839
1.92225
2.11685
2.06359
2.12069
3.18972
3.10557
3.38256
3.29819
3.3994
3.3048
3.54108
4.69408
3.59898
2.20618
1.96904
1.94967
2.17191
2.83468
2.80352
13.3446
5.46231
1.76317
0.703544
0.347518
0.216032
0.20424
0.208415
0.205025
0.196029
0.182343
0.167425
0.150178
0.131443
0.121831
0.117415
0.116097
0.116619
0.121072
0.127247
0.13387
0.141174
0.14959
0.166482
0.206857
0.31381
0.47046
0.595478
0.694122
0.781429
0.824529
0.840625
0.734598
0.616739
0.507616
0.40753
0.315555
0.247188
0.193665
0.167766
0.144306
0.135448
0.132042
0.131464
0.133254
0.133603
0.133202
0.129543
0.120122
0.113923
0.111967
0.111623
0.112074
0.11381
0.117078
0.12153
0.126685
0.132608
0.138833
0.144776
0.148383
0.150951
0.151622
0.150748
0.148272
0.143477
0.138955
0.137881
0.139171
0.139947
0.138873
0.138962
0.139264
0.14063
0.141557
0.140725
0.141743
0.141884
0.143502
0.143629
0.135222
0.120044
0.102804
0.0886841
0.0831414
0.0831868
0.0853913
0.0901966
0.0992515
0.107756
0.11209
0.1104
0.101495
0.0941576
0.0892129
0.0859706
0.0830797
0.0815325
0.0820067
0.0852262
0.0916688
0.092705
0.0933299
0.0937992
0.0949061
0.0989397
0.102326
0.103185
0.103285
0.104617
0.108045
0.115086
0.130029
0.136415
0.138378
0.139855
0.14009
0.14312
0.158775
0.166382
0.167182
0.170846
0.18482
0.198613
0.205214
0.218406
0.25656
0.424016
0.689826
0.787729
0.832032
0.868999
0.901408
0.892605
0.874702
0.824099
0.813567
0.773727
0.726335
0.698122
0.652922
0.647234
0.622965
0.64777
0.618895
0.633906
0.719151
0.760891
0.776219
0.846778
0.909259
0.93873
0.969845
1.05918
1.06673
1.15874
1.46285
1.57576
1.65328
2.06427
2.00854
1.74319
2.01466
1.99179
2.04414
3.17609
3.04545
3.22127
3.03196
3.08017
3.05307
3.49335
4.13335
2.71555
1.97766
1.90432
1.9302
2.13946
2.70742
2.52698
14.2452
5.46726
1.60866
0.67317
0.329719
0.213443
0.206678
0.210153
0.2058
0.196581
0.180587
0.162306
0.143436
0.127861
0.121268
0.118833
0.118724
0.122507
0.132114
0.145158
0.160766
0.180684
0.216501
0.288943
0.393172
0.502206
0.578841
0.644946
0.678214
0.697366
0.646711
0.556096
0.4823
0.400442
0.33112
0.26253
0.2113
0.17583
0.14971
0.137436
0.129464
0.127583
0.127571
0.130916
0.132217
0.132342
0.13011
0.121941
0.113943
0.111604
0.111161
0.111632
0.113658
0.117897
0.123679
0.12986
0.135208
0.139857
0.143202
0.145665
0.147791
0.150195
0.150544
0.149121
0.147175
0.141701
0.131569
0.123741
0.12017
0.120735
0.125542
0.130307
0.133089
0.134758
0.135867
0.133735
0.132596
0.132841
0.133207
0.133163
0.130778
0.120276
0.108904
0.0910084
0.0814777
0.0776334
0.0774299
0.0785307
0.082206
0.0877788
0.0935438
0.0990227
0.0986447
0.0928362
0.0880135
0.0828701
0.0817962
0.0802617
0.0800176
0.0818479
0.089545
0.0908311
0.0909132
0.0914525
0.0925859
0.0948024
0.100503
0.102305
0.101973
0.102457
0.105194
0.113022
0.124101
0.12894
0.133223
0.137729
0.138885
0.141527
0.1522
0.165192
0.169141
0.173283
0.184209
0.199116
0.205272
0.218039
0.240971
0.318807
0.596671
0.743585
0.808186
0.831966
0.838567
0.825211
0.818984
0.788325
0.775981
0.752847
0.718483
0.689685
0.647848
0.62461
0.593187
0.623612
0.592175
0.596503
0.699167
0.761179
0.764073
0.824068
0.890197
0.915623
0.947957
1.03673
1.0538
1.1197
1.39597
1.5431
1.50853
1.96872
1.88566
1.65226
1.95638
1.94169
2.01362
3.18396
2.97857
3.06745
2.75656
2.78384
2.92563
3.43605
3.31402
2.23236
1.92947
1.89489
1.93822
2.14037
2.55017
2.33234
14.7957
5.36735
1.45457
0.639301
0.305449
0.212366
0.209679
0.212559
0.208106
0.201519
0.183009
0.161404
0.142004
0.128053
0.123701
0.123203
0.126932
0.138913
0.162056
0.196924
0.251107
0.308297
0.358264
0.414699
0.481273
0.540837
0.573746
0.588731
0.563173
0.491301
0.437496
0.377934
0.322952
0.271303
0.226871
0.184814
0.158686
0.141883
0.130216
0.125352
0.123707
0.124007
0.1278
0.13059
0.131263
0.13037
0.124407
0.114768
0.111624
0.110985
0.111478
0.114047
0.120576
0.12953
0.136667
0.1427
0.147096
0.149854
0.151897
0.155221
0.156378
0.152997
0.147993
0.142878
0.138992
0.132722
0.124107
0.115681
0.108488
0.101737
0.0982574
0.103624
0.112232
0.115988
0.115184
0.110275
0.106054
0.108379
0.115248
0.121394
0.121214
0.114929
0.107535
0.0953935
0.0847294
0.0774158
0.0759039
0.0759776
0.0771642
0.082528
0.0844799
0.0888083
0.0907103
0.0907028
0.0879464
0.0822258
0.0807789
0.0799664
0.0796159
0.081051
0.0878005
0.0902463
0.0905567
0.0910902
0.0924978
0.0945877
0.099809
0.10349
0.102439
0.102736
0.105391
0.114432
0.123482
0.127449
0.131689
0.137914
0.142309
0.144265
0.151076
0.16454
0.177074
0.183518
0.189435
0.206164
0.213534
0.221783
0.239943
0.276206
0.455608
0.671458
0.772697
0.804445
0.808998
0.791979
0.789677
0.772333
0.735352
0.718735
0.700785
0.674843
0.64228
0.610995
0.574785
0.615306
0.585903
0.588367
0.672707
0.757318
0.759559
0.805004
0.870918
0.911732
0.943153
0.995029
1.04813
1.13865
1.37629
1.41264
1.41485
1.86717
1.6951
1.55797
1.90236
1.91453
2.00717
3.20185
2.93106
3.0369
2.65367
2.69091
2.8538
3.32702
2.92419
2.04178
1.92361
1.92362
2.00914
2.20609
2.42306
2.10678
15.048
5.1035
1.28867
0.602074
0.275455
0.208534
0.208762
0.212787
0.209384
0.20492
0.189569
0.17002
0.14928
0.13911
0.136457
0.138106
0.151302
0.182658
0.23559
0.295599
0.341716
0.376771
0.406692
0.447795
0.487924
0.502671
0.496686
0.433694
0.382589
0.34488
0.306064
0.263761
0.226467
0.196392
0.16978
0.148451
0.134606
0.126872
0.12277
0.121481
0.121445
0.124014
0.128205
0.129444
0.129173
0.126014
0.118353
0.112961
0.11164
0.111713
0.113601
0.118481
0.127417
0.136205
0.14237
0.146378
0.149051
0.150318
0.150981
0.152236
0.155752
0.157663
0.154593
0.145876
0.13811
0.128871
0.119792
0.112654
0.106258
0.0987165
0.0904005
0.0857516
0.0881306
0.0992976
0.104227
0.100696
0.0930919
0.0891085
0.0898592
0.100755
0.110798
0.111804
0.106177
0.0958021
0.0884513
0.0806333
0.0771381
0.0764545
0.076419
0.0799336
0.081712
0.0839504
0.0857834
0.0868503
0.0868443
0.0830485
0.0806168
0.0808428
0.0806395
0.0814311
0.0841996
0.090038
0.0912516
0.091919
0.094231
0.0969886
0.100505
0.107269
0.106089
0.106726
0.110625
0.121638
0.126832
0.12885
0.132684
0.143046
0.156541
0.156446
0.158535
0.1661
0.184469
0.198468
0.205558
0.218147
0.231264
0.232218
0.244069
0.267242
0.343938
0.580093
0.712705
0.76667
0.786115
0.774144
0.768555
0.756652
0.717297
0.676421
0.65564
0.636656
0.628817
0.597106
0.559582
0.595435
0.578683
0.575422
0.638635
0.739113
0.743292
0.780365
0.842555
0.907769
0.937049
0.964323
1.05207
1.16557
1.3306
1.31723
1.31817
1.65246
1.43964
1.44514
1.86478
1.91586
2.01539
3.21927
2.89177
3.03376
2.59486
2.62085
2.76554
3.27829
2.57051
1.90648
1.94495
2.03645
2.14847
2.33559
2.34592
2.06255
15.0513
4.69027
1.14392
0.593593
0.254473
0.19573
0.204326
0.211813
0.211254
0.212537
0.206857
0.198517
0.18331
0.175539
0.173905
0.180413
0.208116
0.253898
0.295044
0.335607
0.36765
0.39087
0.414245
0.431216
0.435481
0.400811
0.352081
0.312955
0.281334
0.253968
0.226946
0.196613
0.17346
0.156393
0.142299
0.132805
0.126553
0.12353
0.121668
0.121005
0.121229
0.124459
0.128289
0.12903
0.128459
0.125776
0.11892
0.114667
0.114025
0.115772
0.12004
0.128146
0.135648
0.141331
0.144893
0.147571
0.149337
0.149316
0.147168
0.142339
0.135013
0.129983
0.130981
0.132408
0.130583
0.122074
0.110923
0.106628
0.104101
0.0987716
0.0898357
0.081617
0.0795501
0.0827847
0.0936272
0.0958318
0.0910795
0.0853999
0.0847736
0.0871186
0.0970472
0.10366
0.104377
0.0967695
0.0896922
0.0835105
0.078121
0.0775832
0.0767604
0.0780296
0.080057
0.081323
0.0830406
0.0843119
0.0850057
0.0836336
0.0819111
0.0825763
0.0820321
0.0828792
0.0842383
0.0900976
0.0932585
0.0942462
0.0956428
0.100062
0.105886
0.110568
0.110758
0.112773
0.118953
0.128514
0.135533
0.136205
0.14014
0.150831
0.164247
0.170498
0.177905
0.177665
0.193763
0.220262
0.22801
0.23546
0.249714
0.251255
0.255894
0.269018
0.294687
0.467524
0.640639
0.721861
0.756512
0.756484
0.743359
0.738492
0.709178
0.652197
0.628128
0.609227
0.606042
0.593996
0.555988
0.557287
0.558873
0.562234
0.602088
0.692843
0.701358
0.731646
0.797037
0.8982
0.914557
0.947893
1.05864
1.17796
1.2662
1.21887
1.22383
1.34664
1.28567
1.37069
1.83424
1.94938
2.03388
3.20784
2.85276
3.05473
2.5378
2.51411
2.60431
3.17264
2.24215
1.83358
1.94539
2.20383
2.30208
2.42759
2.32377
2.08816
14.6184
3.78196
1.06761
0.601873
0.2494
0.187372
0.193687
0.210578
0.210803
0.215018
0.213624
0.211937
0.210079
0.211277
0.218465
0.228002
0.251859
0.282469
0.315973
0.345737
0.369695
0.380548
0.383784
0.373812
0.33633
0.299161
0.266577
0.237857
0.215993
0.197344
0.177017
0.158238
0.146531
0.138067
0.131858
0.128767
0.126189
0.124003
0.122648
0.122029
0.122233
0.125796
0.129196
0.12987
0.129505
0.127894
0.123079
0.120898
0.12188
0.124404
0.128713
0.135103
0.138772
0.141607
0.144642
0.146298
0.146307
0.144161
0.14154
0.138759
0.129944
0.115602
0.108022
0.105285
0.104414
0.102675
0.094633
0.085966
0.0858342
0.089062
0.0879088
0.0798624
0.0773611
0.079896
0.090406
0.0931271
0.0901549
0.0846897
0.0836611
0.0847675
0.0903027
0.0963985
0.0987796
0.0958739
0.0894834
0.0838679
0.0776664
0.0765597
0.0756577
0.0750803
0.0767643
0.0782458
0.0799097
0.0815738
0.0835873
0.0833156
0.0823859
0.0832024
0.0833406
0.0848385
0.0862184
0.0906314
0.0966726
0.0983719
0.100286
0.104373
0.113713
0.116164
0.117017
0.122458
0.132204
0.137188
0.144947
0.146171
0.153698
0.165097
0.168731
0.180172
0.197613
0.197009
0.204897
0.231901
0.245232
0.250847