/*--------------------------------*- C++ -*----------------------------------*\
| =========                 |                                                 |
| \\      /  F ield         | OpenFOAM: The Open Source CFD Toolbox           |
|  \\    /   O peration     | Version:  dev                                   |
|   \\  /    A nd           | Web:      http://www.openfoam.org               |
|    \\/     M anipulation  |                                                 |
\*---------------------------------------------------------------------------*/
FoamFile
{
    version     2.0;
    format      ascii;
    class       volScalarField;
    object      muSgs;
    location    "9.165";
}
// * * * * * * * * * * * * * * * * * * * * * * * * * * * * * * * * * * * * * //

dimensions      [1 -1 -1 0 0 0 0];

internalField   nonuniform List<scalar> 
12225
(
0.000236921
0.000238165
0.000181669
0.000178719
0.000147899
0.000170749
0.000152253
0.000179014
0.000163079
0.00019179
0.000174381
0.000208682
0.000186107
0.00023005
0.000211381
0.000243577
0.000327483
0.000367206
0.000101701
0.000189907
0.000173707
0.00018827
0.000158878
0.000175319
0.000149371
0.000166461
0.000148824
0.000161034
0.000150211
0.000153078
0.000150074
0.000143121
0.000144929
0.000135949
0.000154398
0.000182602
3.24853e-05
0.000115158
0.000121999
0.000150392
0.00013862
0.00015088
0.000138774
0.000142688
0.000135775
0.000129005
0.000127689
0.000115509
0.000117872
0.000103853
0.000109338
9.94516e-05
0.000117856
0.000162455
1.26742e-05
5.49738e-05
6.5547e-05
8.2771e-05
9.09582e-05
9.38023e-05
0.000104805
9.96013e-05
0.000108406
9.67588e-05
0.000103906
8.96246e-05
9.29925e-05
8.03355e-05
8.63664e-05
7.93223e-05
9.86156e-05
0.000155788
5.92988e-06
2.67925e-05
3.60386e-05
4.61831e-05
6.00519e-05
6.30759e-05
7.21816e-05
7.07204e-05
7.5869e-05
7.02157e-05
7.49205e-05
6.65637e-05
7.02214e-05
6.18697e-05
6.7686e-05
6.3697e-05
8.8146e-05
0.000103172
7.83228e-06
1.89535e-05
2.51549e-05
3.01223e-05
3.95608e-05
4.13233e-05
4.85208e-05
4.80667e-05
5.32499e-05
4.98395e-05
5.43711e-05
4.9566e-05
5.32391e-05
4.82165e-05
5.31849e-05
5.18817e-05
6.79151e-05
8.1898e-05
1.16074e-05
1.52426e-05
2.02032e-05
2.26958e-05
2.86527e-05
2.96388e-05
3.50576e-05
3.50326e-05
3.93518e-05
3.75466e-05
4.11945e-05
3.85862e-05
4.15726e-05
3.86047e-05
4.26646e-05
4.10349e-05
5.20771e-05
5.49047e-05
1.10608e-05
1.37793e-05
1.70228e-05
1.88707e-05
2.20742e-05
2.31839e-05
2.58663e-05
2.63541e-05
2.85649e-05
2.8196e-05
2.98014e-05
2.89814e-05
3.01161e-05
2.90091e-05
3.04708e-05
2.97868e-05
3.43951e-05
3.53698e-05
1.36924e-05
1.89756e-05
1.98812e-05
2.20513e-05
2.39798e-05
2.51782e-05
2.71964e-05
2.7851e-05
2.95117e-05
2.95635e-05
3.04797e-05
3.01999e-05
3.04803e-05
2.98357e-05
3.02418e-05
2.97324e-05
3.16848e-05
3.18454e-05
1.68794e-05
2.71819e-05
2.67814e-05
2.93917e-05
2.92016e-05
3.08707e-05
3.09513e-05
3.20048e-05
3.23246e-05
3.28107e-05
3.28869e-05
3.27722e-05
3.26466e-05
3.20494e-05
3.20463e-05
3.14263e-05
3.17901e-05
3.144e-05
2.5998e-05
3.72411e-05
3.72921e-05
4.1084e-05
4.01578e-05
4.18305e-05
4.03679e-05
4.05664e-05
3.95002e-05
3.93306e-05
3.84349e-05
3.77955e-05
3.6941e-05
3.59643e-05
3.51557e-05
3.42249e-05
3.38606e-05
3.32903e-05
4.50536e-05
5.53169e-05
5.51671e-05
5.81502e-05
5.72848e-05
5.81927e-05
5.62988e-05
5.58058e-05
5.34174e-05
5.21036e-05
4.96992e-05
4.78538e-05
4.56585e-05
4.36336e-05
4.14714e-05
3.95464e-05
3.80152e-05
3.67501e-05
7.77287e-05
8.22937e-05
8.10199e-05
8.13853e-05
7.95161e-05
7.87216e-05
7.65103e-05
7.47343e-05
7.20346e-05
6.93976e-05
6.57687e-05
6.28307e-05
5.89968e-05
5.60776e-05
5.27775e-05
4.9898e-05
4.65212e-05
4.39897e-05
0.000116646
0.000114787
0.000112095
0.000110118
0.000106702
0.000104036
0.000100695
9.74084e-05
9.2983e-05
8.9025e-05
8.39529e-05
7.99556e-05
7.55191e-05
7.1733e-05
6.76345e-05
6.3888e-05
5.9945e-05
5.63684e-05
0.000159626
0.000155492
0.000154327
0.000152912
0.000148495
0.000143714
0.000137918
0.00013138
0.000123658
0.000116568
0.000109228
0.00010253
9.58658e-05
8.98736e-05
8.37996e-05
7.84718e-05
7.30981e-05
6.87107e-05
0.00021443
0.0002045
0.00019945
0.000192009
0.000182051
0.000172542
0.000162688
0.000153059
0.000143377
0.000134228
0.000125344
0.000117114
0.000109123
0.000101884
9.47426e-05
8.84884e-05
8.22465e-05
7.71678e-05
0.000255182
0.000234563
0.000226221
0.000214784
0.000202936
0.000191415
0.000179854
0.000168598
0.000157609
0.000147267
0.000137336
0.000128167
0.000119325
0.000111294
0.00010342
9.64984e-05
8.96261e-05
8.39626e-05
0.000254704
0.000235559
0.000226814
0.000214984
0.000203218
0.0001917
0.000180123
0.000168777
0.000157744
0.000147352
0.000137422
0.000128272
0.000119428
0.000111402
0.000103525
9.6591e-05
8.97231e-05
8.40008e-05
0.000217311
0.000206332
0.000201285
0.000193129
0.000183946
0.000174654
0.000164886
0.000154909
0.000145021
0.000135679
0.000126733
0.000118522
0.000110549
0.000103309
9.61335e-05
8.97691e-05
8.3425e-05
7.81118e-05
0.000160364
0.000158098
0.000157919
0.00015538
0.000152014
0.00014766
0.000141712
0.000134274
0.000126384
0.00011875
0.000111451
0.000104809
9.82528e-05
9.2332e-05
8.62413e-05
8.08115e-05
7.51994e-05
7.04749e-05
0.000117495
0.000116625
0.000115653
0.000113315
0.00011034
0.000107762
0.000105148
0.000101427
9.66055e-05
9.18233e-05
8.73823e-05
8.33069e-05
7.90897e-05
7.5315e-05
7.09623e-05
6.70164e-05
6.25215e-05
5.875e-05
8.03997e-05
8.27713e-05
8.46091e-05
8.48857e-05
8.39916e-05
8.23296e-05
8.04411e-05
7.77624e-05
7.36038e-05
6.90978e-05
6.50102e-05
6.20297e-05
5.93816e-05
5.71669e-05
5.46103e-05
5.24407e-05
4.98786e-05
4.78213e-05
5.39619e-05
5.63568e-05
6.01383e-05
6.11875e-05
6.02527e-05
5.90332e-05
5.74102e-05
5.62003e-05
5.51481e-05
5.42163e-05
5.32391e-05
5.21471e-05
5.08618e-05
4.95468e-05
4.80126e-05
4.66414e-05
4.49469e-05
4.35262e-05
3.4092e-05
3.80567e-05
3.91036e-05
3.98474e-05
4.20086e-05
4.41013e-05
4.59015e-05
4.7538e-05
4.83773e-05
4.86756e-05
4.85818e-05
4.80982e-05
4.71993e-05
4.61842e-05
4.50622e-05
4.39176e-05
4.25806e-05
4.13479e-05
2.08497e-05
2.27486e-05
2.61415e-05
3.13186e-05
3.61074e-05
3.98529e-05
4.29356e-05
4.55028e-05
4.72865e-05
4.83208e-05
4.87533e-05
4.85398e-05
4.78412e-05
4.69346e-05
4.59479e-05
4.49071e-05
4.3769e-05
4.26351e-05
1.07853e-05
1.62682e-05
2.36725e-05
3.32423e-05
4.20146e-05
4.81534e-05
5.24367e-05
5.55008e-05
5.75271e-05
5.84895e-05
5.86271e-05
5.80188e-05
5.69648e-05
5.58575e-05
5.46826e-05
5.34977e-05
5.22509e-05
5.09077e-05
8.57439e-06
2.50549e-05
4.41422e-05
6.05588e-05
7.17809e-05
7.83536e-05
8.21994e-05
8.42451e-05
8.48921e-05
8.43452e-05
8.27623e-05
8.07954e-05
7.85704e-05
7.65132e-05
7.45174e-05
7.25798e-05
7.04322e-05
6.83823e-05
2.57993e-05
6.70851e-05
0.000103441
0.00012181
0.000132411
0.000134087
0.000132995
0.000130676
0.00012743
0.000123437
0.000118579
0.000113741
0.000109635
0.000106113
0.000102506
9.90712e-05
9.52563e-05
9.18642e-05
9.36668e-05
0.000171766
0.000198424
0.000198092
0.000189834
0.000181392
0.000171658
0.000162025
0.000153245
0.000146065
0.00014015
0.00013476
0.000129235
0.000123873
0.000118693
0.000113679
0.000108986
0.000104039
0.00024008
0.000276179
0.000252766
0.000214289
0.000187392
0.000171507
0.000161852
0.000155777
0.000151561
0.000148272
0.000145426
0.000142645
0.000139681
0.000136506
0.000133198
0.00012969
0.000125704
0.000119961
2.40207e-05
3.35865e-05
4.02032e-05
4.46983e-05
4.9395e-05
5.40088e-05
5.79046e-05
6.10915e-05
6.35626e-05
6.65523e-05
6.98494e-05
7.28083e-05
7.62245e-05
7.9623e-05
8.37834e-05
8.94722e-05
9.37254e-05
0.000100341
0.000106657
0.000111634
0.000118619
0.000123498
0.000128831
0.000134101
0.000138016
0.000141214
0.000141587
0.000140666
0.000138336
0.000133856
0.000128485
0.000125616
0.000125266
0.000125741
0.000126457
0.000128372
0.000133135
0.00013807
0.000142751
0.000146806
0.000150732
0.00015363
0.000155145
0.000156769
0.000158368
0.000163981
0.000170322
0.00017582
0.000182579
0.000195986
0.000212079
0.000226412
0.000238318
0.000248332
0.00025677
0.000263805
0.000269365
0.000273636
0.000276529
0.000278592
0.000279251
0.000278303
0.000276288
0.000273429
0.000269547
0.000264894
0.000259134
0.000253068
0.000246541
0.000239728
0.000232912
0.000225901
0.000218075
0.000210707
0.000204962
0.000199519
0.000193708
0.000188269
0.000183529
0.000178507
0.000175337
0.000172496
0.000168888
0.000167916
0.000166403
0.00016614
0.000166019
0.000166913
0.000168519
0.000170433
0.000172964
0.000175767
0.000178994
0.000182705
0.000186581
0.000191354
0.000196727
0.000202568
0.000209197
0.000216572
0.00022397
0.00023011
0.000235583
0.000240958
0.000245709
0.000249289
0.000252133
0.000254261
0.00025549
0.000254405
0.000251526
0.000247036
0.000241003
0.000234283
0.000227291
0.000221882
0.000218948
0.000218579
0.000219411
0.00022118
0.000227025
0.000240704
0.000263161
0.000287825
0.00030715
0.00032274
0.000341492
0.000355299
0.000367273
0.000376351
0.000382304
0.000387153
0.000394495
0.000410534
0.000431293
0.00045304
0.000476725
0.000498127
0.00051094
0.000524168
0.000537952
0.000541176
0.000541
0.000567165
0.000576
0.000592548
0.000623416
0.000655116
0.00067235
0.000707965
0.000756516
0.000783267
0.000817626
0.000855029
0.000877416
0.000903397
0.000913794
0.000927445
0.000947037
0.000956823
0.000962294
0.00093603
0.000953649
0.00105396
0.00110034
0.00108958
0.00114528
0.00124062
0.00123773
0.00110146
0.000916928
0.000803186
0.000764194
0.000828034
0.000883037
0.000809694
0.000752384
0.000805503
0.000825755
0.000877708
5.55242e-05
3.78965e-05
3.90277e-05
4.54367e-05
5.47633e-05
6.08944e-05
6.36558e-05
6.28083e-05
6.08876e-05
5.83278e-05
5.48653e-05
5.12049e-05
4.91087e-05
4.69285e-05
4.63315e-05
4.60952e-05
4.61047e-05
4.69689e-05
4.8031e-05
5.00418e-05
5.41379e-05
5.68805e-05
6.23084e-05
6.71852e-05
7.27677e-05
8.04615e-05
8.67227e-05
9.40025e-05
9.94379e-05
0.000100175
9.87616e-05
9.63597e-05
9.21948e-05
8.81145e-05
8.20936e-05
7.74447e-05
7.61285e-05
7.61123e-05
8.08235e-05
9.02351e-05
9.88864e-05
0.000100501
0.000106231
0.000113737
0.000122071
0.000153623
0.000174643
0.000183845
0.000192681
0.000197794
0.000200136
0.00019901
0.000193753
0.00018662
0.000178529
0.000169743
0.000160898
0.000151971
0.000142525
0.000133401
0.000125454
0.000118216
0.000112269
0.000106592
0.000101965
9.87587e-05
9.56259e-05
9.32662e-05
9.097e-05
8.89128e-05
8.68526e-05
8.46463e-05
8.31314e-05
8.26913e-05
8.2637e-05
8.24704e-05
8.1611e-05
8.06609e-05
8.02282e-05
8.01216e-05
8.11675e-05
8.16233e-05
8.14122e-05
8.34059e-05
8.44285e-05
8.6403e-05
8.77808e-05
8.92084e-05
9.21558e-05
9.43807e-05
9.75303e-05
0.000100076
0.000102143
0.000104745
0.000106514
0.000109012
0.000111451
0.000113755
0.000116701
0.000120462
0.000126035
0.00013169
0.000135419
0.000139266
0.000144008
0.000147934
0.000150422
0.000153484
0.00015772
0.000161739
0.000164163
0.00016533
0.000164574
0.000162699
0.000158976
0.000155689
0.000153729
0.000153221
0.000155054
0.000155436
0.000153061
0.000151672
0.000155724
0.00017053
0.000185624
0.000194206
0.000203616
0.00020965
0.000214306
0.000225466
0.000230841
0.000246181
0.000274155
0.000301886
0.000324658
0.000335271
0.000336166
0.000323027
0.000311476
0.000308478
0.000307129
0.000280713
0.000268188
0.000318351
0.000329449
0.000330845
0.000347442
0.000353567
0.000359145
0.00036895
0.000396811
0.000421151
0.000440153
0.000478061
0.000507115
0.000540889
0.00057072
0.000585485
0.000601667
0.000618548
0.000634125
0.000625399
0.000598447
0.000605567
0.000646817
0.000692088
0.000727193
0.000765716
0.000786774
0.000822614
0.000783425
0.000739433
0.000787788
0.000793244
0.000767658
0.0006906
0.000727546
0.000706003
0.000697868
0.000705916
9.19188e-05
5.33167e-05
4.54796e-05
5.37578e-05
6.83461e-05
7.16207e-05
6.84021e-05
6.30254e-05
5.65109e-05
4.864e-05
4.28636e-05
3.96602e-05
3.80933e-05
3.7429e-05
3.67628e-05
3.70012e-05
3.67437e-05
3.65544e-05
3.65108e-05
3.64683e-05
3.66976e-05
3.70795e-05
3.82514e-05
3.92918e-05
4.1462e-05
4.54419e-05
4.81919e-05
5.43832e-05
6.09574e-05
6.46565e-05
7.00949e-05
7.28886e-05
7.18802e-05
6.74509e-05
6.22587e-05
6.1012e-05
5.99116e-05
6.15541e-05
6.7075e-05
7.3761e-05
9.39194e-05
0.000110797
0.000144103
0.000153441
0.000152702
0.000156277
0.000158623
0.00015336
0.000146619
0.00013956
0.000129029
0.000115763
0.000104827
9.41321e-05
8.42057e-05
7.52528e-05
6.76102e-05
6.14562e-05
5.65742e-05
5.30661e-05
5.12789e-05
4.98494e-05
4.91107e-05
4.89852e-05
4.9176e-05
4.95168e-05
4.99887e-05
5.06004e-05
5.10189e-05
5.12481e-05
5.12725e-05
5.14984e-05
5.19745e-05
5.23905e-05
5.2507e-05
5.22182e-05
5.20639e-05
5.19755e-05
5.19694e-05
5.19985e-05
5.24042e-05
5.26913e-05
5.28216e-05
5.38699e-05
5.44422e-05
5.56638e-05
5.69199e-05
5.80785e-05
6.03645e-05
6.20948e-05
6.4423e-05
6.65469e-05
6.84341e-05
7.04362e-05
7.17722e-05
7.38847e-05
7.61258e-05
7.74101e-05
7.8752e-05
8.06804e-05
8.40863e-05
8.91518e-05
9.24487e-05
9.53136e-05
9.99552e-05
0.000104867
0.000108185
0.000111987
0.000116264
0.000120909
0.000125393
0.000129837
0.000133401
0.000134949
0.000132369
0.000126991
0.000120844
0.000117318
0.000118637
0.000120549
0.000119005
0.000115109
0.000114094
0.000120807
0.000133551
0.0001399
0.00014547
0.000151452
0.000164168
0.00018782
0.000201474
0.000227356
0.000259936
0.00026953
0.000265957
0.000257569
0.000249459
0.000228543
0.000220318
0.000219199
0.000223004
0.000205379
0.000202263
0.000239659
0.000241342
0.000240359
0.000268794
0.000281462
0.000268818
0.000269858
0.00028338
0.000289501
0.000301751
0.000327899
0.000346655
0.000377313
0.000430155
0.000447386
0.000468225
0.00049466
0.000525361
0.000517938
0.000476565
0.000483342
0.000523001
0.000558794
0.000576224
0.000607299
0.000656187
0.000714681
0.000715618
0.000715525
0.000769146
0.000708105
0.000677399
0.000593115
0.000624146
0.000562526
0.000552973
0.000556072
0.000129032
7.66771e-05
6.59095e-05
7.95232e-05
8.20023e-05
7.6848e-05
6.69773e-05
5.42031e-05
4.33697e-05
3.81252e-05
3.59904e-05
3.55533e-05
3.52807e-05
3.55533e-05
3.54273e-05
3.55012e-05
3.56812e-05
3.50521e-05
3.53216e-05
3.48064e-05
3.46203e-05
3.41737e-05
3.39051e-05
3.44632e-05
3.47265e-05
3.58904e-05
3.74753e-05
3.91047e-05
4.30561e-05
4.75246e-05
5.06825e-05
5.47011e-05
5.8295e-05
5.81147e-05
5.38914e-05
5.29137e-05
5.48506e-05
6.60984e-05
8.37156e-05
0.000101652
0.000142442
0.000148712
0.000142971
0.000139408
0.000131406
0.000123926
0.000112427
0.000102531
9.10935e-05
8.13387e-05
7.22272e-05
6.3424e-05
5.61766e-05
5.01936e-05
4.64904e-05
4.37457e-05
4.23557e-05
4.18387e-05
4.18529e-05
4.21143e-05
4.25868e-05
4.33007e-05
4.40426e-05
4.48293e-05
4.56848e-05
4.6538e-05
4.74871e-05
4.85332e-05
4.94755e-05
5.01009e-05
5.05114e-05
5.07097e-05
5.10702e-05
5.14155e-05
5.15985e-05
5.11349e-05
5.04781e-05
5.03151e-05
5.02926e-05
4.99315e-05
4.99067e-05
4.95455e-05
4.9468e-05
4.97223e-05
4.93653e-05
4.94489e-05
4.96468e-05
5.00617e-05
5.11159e-05
5.21234e-05
5.35333e-05
5.45863e-05
5.59216e-05
5.73369e-05
5.78218e-05
5.89373e-05
6.1305e-05
6.30082e-05
6.37018e-05
6.4496e-05
6.62614e-05
7.03998e-05
7.35146e-05
7.53679e-05
7.79542e-05
8.20995e-05
8.51584e-05
8.8641e-05
9.24423e-05
9.56837e-05
9.85764e-05
0.000102459
0.000107188
0.000111899
0.000113994
0.000111948
0.00010615
0.000101732
0.000101115
0.000102922
0.000104096
0.000102945
0.000101713
0.000104029
0.000112505
0.00011636
0.000121367
0.00013006
0.000151823
0.000176384
0.000195879
0.000219751
0.000231981
0.00023234
0.000227619
0.000214951
0.000205732
0.000191235
0.000186909
0.000190282
0.000201451
0.000188018
0.00018287
0.000212082
0.000212259
0.000204089
0.000224237
0.000274481
0.000256858
0.000234489
0.000245791
0.000250657
0.000250994
0.000270608
0.000284536
0.000299867
0.000342386
0.000362287
0.000378782
0.000407856
0.000449971
0.000468244
0.000448344
0.000454406
0.000499514
0.000510061
0.000489789
0.000509976
0.000571791
0.000640413
0.000657892
0.000702339
0.000712359
0.000673772
0.000651736
0.000549821
0.000540766
0.000504429
0.000492378
0.000492872
0.000160686
0.000102662
9.76505e-05
9.57627e-05
8.59886e-05
7.02077e-05
5.18677e-05
4.08579e-05
3.63293e-05
3.5169e-05
3.50173e-05
3.52463e-05
3.57048e-05
3.57328e-05
3.57852e-05
3.56497e-05
3.56584e-05
3.50811e-05
3.51186e-05
3.49735e-05
3.47047e-05
3.43699e-05
3.32854e-05
3.39845e-05
3.45281e-05
3.44857e-05
3.54039e-05
3.55926e-05
3.5758e-05
3.7517e-05
4.16752e-05
4.58675e-05
4.72761e-05
4.809e-05
5.11409e-05
5.93309e-05
7.01681e-05
0.000100257
0.000135942
0.000140068
0.000136718
0.000132109
0.000118111
0.000105297
9.40485e-05
8.40902e-05
7.52428e-05
6.62038e-05
5.76037e-05
5.04095e-05
4.61473e-05
4.25575e-05
4.0616e-05
3.98898e-05
3.97837e-05
3.9926e-05
4.03583e-05
4.09066e-05
4.14572e-05
4.20229e-05
4.25629e-05
4.30992e-05
4.37681e-05
4.45899e-05
4.55318e-05
4.64296e-05
4.73993e-05
4.85113e-05
4.98083e-05
5.09334e-05
5.17129e-05
5.21257e-05
5.24074e-05
5.25556e-05
5.30208e-05
5.3226e-05
5.24339e-05
5.18801e-05
5.15907e-05
5.14221e-05
5.14122e-05
5.0511e-05
5.00069e-05
4.96739e-05
4.89405e-05
4.86085e-05
4.8327e-05
4.80092e-05
4.81221e-05
4.84088e-05
4.92939e-05
4.98266e-05
5.04317e-05
5.17089e-05
5.2143e-05
5.22064e-05
5.31534e-05
5.5291e-05
5.63928e-05
5.66137e-05
5.73357e-05
6.03345e-05
6.34702e-05
6.49742e-05
6.62239e-05
6.95569e-05
7.24863e-05
7.58358e-05
7.91653e-05
8.12801e-05
8.24052e-05
8.25885e-05
8.37649e-05
8.97577e-05
9.57058e-05
9.72295e-05
9.74031e-05
9.54325e-05
9.34918e-05
9.45954e-05
9.70637e-05
9.57979e-05
9.26077e-05
9.194e-05
9.64831e-05
0.000102087
0.000110214
0.000123851
0.000149798
0.000170634
0.000192802
0.000208158
0.000207965
0.000206594
0.000200562
0.000189115
0.000178967
0.000173868
0.000170988
0.000177062
0.000187044
0.000179162
0.00016927
0.000193236
0.000200085
0.000191048
0.000190498
0.000256405
0.00025487
0.000221542
0.000229226
0.000239211
0.00022847
0.000242881
0.000263611
0.000265893
0.00028901
0.000321664
0.000323711
0.00034402
0.000392063
0.000429279
0.000420884
0.000419217
0.000475422
0.000487844
0.000446197
0.000462925
0.000517874
0.000587534
0.000614726
0.000670708
0.000676204
0.000685485
0.000597193
0.000503582
0.000494831
0.00046612
0.000455027
0.00045501
0.000190224
0.000131532
0.000116794
9.87996e-05
7.58012e-05
5.31311e-05
4.06306e-05
3.59892e-05
3.50967e-05
3.52451e-05
3.58598e-05
3.62312e-05
3.61054e-05
3.59148e-05
3.56025e-05
3.49303e-05
3.44847e-05
3.42495e-05
3.41786e-05
3.44848e-05
3.4595e-05
3.44095e-05
3.40135e-05
3.3597e-05
3.49006e-05
3.515e-05
3.40724e-05
3.40288e-05
3.49448e-05
3.54838e-05
3.72497e-05
4.15294e-05
4.65581e-05
5.27461e-05
6.05054e-05
8.34626e-05
0.000120928
0.000132235
0.000130867
0.000127085
0.000115612
9.81717e-05
8.64399e-05
7.68704e-05
6.70966e-05
5.78364e-05
5.14909e-05
4.61793e-05
4.19136e-05
3.96568e-05
3.88305e-05
3.86032e-05
3.86923e-05
3.90643e-05
3.96129e-05
4.01848e-05
4.07824e-05
4.13885e-05
4.19278e-05
4.24103e-05
4.2791e-05
4.31226e-05
4.34184e-05
4.37838e-05
4.4261e-05
4.47882e-05
4.54968e-05
4.64772e-05
4.78322e-05
4.9425e-05
5.0644e-05
5.14152e-05
5.19433e-05
5.22653e-05
5.27118e-05
5.29313e-05
5.237e-05
5.19703e-05
5.12912e-05
5.12125e-05
5.1584e-05
5.15872e-05
5.15945e-05
5.12682e-05
5.03254e-05
4.93091e-05
4.84418e-05
4.74573e-05
4.68297e-05
4.65669e-05
4.68577e-05
4.72214e-05
4.75652e-05
4.84299e-05
4.9027e-05
4.90784e-05
4.91813e-05
4.98408e-05
5.14407e-05
5.21726e-05
5.25674e-05
5.42492e-05
5.72148e-05
5.85923e-05
5.91944e-05
6.05751e-05
6.30238e-05
6.64369e-05
6.99565e-05
7.17112e-05
7.22273e-05
7.24245e-05
7.24271e-05
7.37991e-05
7.99659e-05
8.36591e-05
8.508e-05
8.5263e-05
8.21476e-05
8.08897e-05
8.47225e-05
8.56542e-05
8.25784e-05
7.97085e-05
7.99618e-05
8.71325e-05
0.000101062
0.000120944
0.000149506
0.000165569
0.000181295
0.000196874
0.000194541
0.000191992
0.000184766
0.000173489
0.000166012
0.00016517
0.000163844
0.000166011
0.000167844
0.000171574
0.000160598
0.000175535
0.000198197
0.000188871
0.000176514
0.000211423
0.000245172
0.000217968
0.000220986
0.000233385
0.00021758
0.000225659
0.000252274
0.000244552
0.000262428
0.000301478
0.000307685
0.000326958
0.000347271
0.000393323
0.000397987
0.000371451
0.00043139
0.00046128
0.000418663
0.00043616
0.000492096
0.000553288
0.000583919
0.000615139
0.000621736
0.00071504
0.000551013
0.000457978
0.000449282
0.000424275
0.000433461
0.000430269
0.000217442
0.000157663
0.000123312
9.18185e-05
6.20972e-05
4.42821e-05
3.68293e-05
3.52698e-05
3.55368e-05
3.6418e-05
3.65737e-05
3.62941e-05
3.56999e-05
3.50581e-05
3.44819e-05
3.40316e-05
3.36675e-05
3.34146e-05
3.33256e-05
3.36058e-05
3.39761e-05
3.43349e-05
3.46229e-05
3.43709e-05
3.45424e-05
3.54694e-05
3.53501e-05
3.41552e-05
3.39544e-05
3.50428e-05
3.85723e-05
4.53076e-05
5.30197e-05
7.02993e-05
0.000101478
0.000119152
0.000122802
0.000122862
0.000114486
9.75951e-05
8.55317e-05
7.42332e-05
6.36181e-05
5.58067e-05
4.9546e-05
4.33725e-05
4.02681e-05
3.84909e-05
3.77825e-05
3.76857e-05
3.78866e-05
3.83833e-05
3.89543e-05
3.93745e-05
3.97974e-05
4.02069e-05
4.05e-05
4.07122e-05
4.09127e-05
4.11243e-05
4.13132e-05
4.14075e-05
4.15134e-05
4.17348e-05
4.19545e-05
4.21464e-05
4.23031e-05
4.2534e-05
4.27722e-05
4.3558e-05
4.47325e-05
4.6067e-05
4.74651e-05
4.9105e-05
5.05241e-05
5.08629e-05
5.06027e-05
4.97687e-05
4.85532e-05
4.81034e-05
4.86304e-05
4.96892e-05
5.0363e-05
5.08663e-05
5.05371e-05
4.97329e-05
4.9046e-05
4.77823e-05
4.63379e-05
4.5123e-05
4.49626e-05
4.45709e-05
4.45268e-05
4.48886e-05
4.59012e-05
4.63797e-05
4.6841e-05
4.71847e-05
4.74917e-05
4.7741e-05
4.78849e-05
4.80629e-05
5.00822e-05
5.19884e-05
5.29673e-05
5.3277e-05
5.39691e-05
5.56311e-05
6.01367e-05
6.32066e-05
6.46445e-05
6.58866e-05
6.64958e-05
6.64785e-05
6.85159e-05
7.21294e-05
7.46574e-05
7.62681e-05
7.37062e-05
7.00048e-05
7.07917e-05
7.27449e-05
7.29884e-05
7.18513e-05
7.19652e-05
7.80649e-05
9.34073e-05
0.000120045
0.000146695
0.000157409
0.000166179
0.000185218
0.000186404
0.000182492
0.000175872
0.00016748
0.000159941
0.000156829
0.000155413
0.000151511
0.000145757
0.000158166
0.000157752
0.000162156
0.000194048
0.000189463
0.000172754
0.00016447
0.000216982
0.000203019
0.000205187
0.000221818
0.000208385
0.000211654
0.000235545
0.000226747
0.000250148
0.000286619
0.000298657
0.000326198
0.000307756
0.000351563
0.000376312
0.000332832
0.00037994
0.000429487
0.000386004
0.000414838
0.00047605
0.000527017
0.000561972
0.000554505
0.000584712
0.000729006
0.00049801
0.000413361
0.000409454
0.000383546
0.000420407
0.000418811
0.000241763
0.000175194
0.000124038
8.18488e-05
5.51422e-05
4.06556e-05
3.5981e-05
3.58898e-05
3.6993e-05
3.72368e-05
3.67693e-05
3.60448e-05
3.55596e-05
3.51211e-05
3.45765e-05
3.41944e-05
3.37028e-05
3.33381e-05
3.34593e-05
3.37461e-05
3.40045e-05
3.40991e-05
3.37896e-05
3.42922e-05
3.50076e-05
3.47097e-05
3.40055e-05
3.39956e-05
3.55351e-05
3.89847e-05
4.60722e-05
6.08294e-05
8.48484e-05
0.000103494
0.000111548
0.000113746
0.000111736
9.86944e-05
8.64001e-05
7.41046e-05
6.42306e-05
5.6426e-05
4.84143e-05
4.32631e-05
4.00213e-05
3.77413e-05
3.70245e-05
3.69447e-05
3.71607e-05
3.76456e-05
3.80027e-05
3.82919e-05
3.84661e-05
3.81577e-05
3.77537e-05
3.75909e-05
3.76266e-05
3.78535e-05
3.8324e-05
3.88999e-05
3.95162e-05
4.02192e-05
4.07436e-05
4.10735e-05
4.13058e-05
4.14707e-05
4.14653e-05
4.13903e-05
4.09756e-05
4.08236e-05
4.0904e-05
4.13537e-05
4.19948e-05
4.31062e-05
4.46531e-05
4.60962e-05
4.67242e-05
4.6469e-05
4.57534e-05
4.43496e-05
4.27191e-05
4.26293e-05
4.41307e-05
4.65738e-05
4.82517e-05
4.87576e-05
4.84531e-05
4.75993e-05
4.63009e-05
4.46018e-05
4.36322e-05
4.24188e-05
4.12469e-05
4.08759e-05
4.17871e-05
4.24655e-05
4.2837e-05
4.37211e-05
4.4541e-05
4.4829e-05
4.50163e-05
4.4972e-05
4.61523e-05
4.69499e-05
4.78322e-05
4.78524e-05
4.85384e-05
4.82553e-05
4.97008e-05
5.34853e-05
5.66002e-05
5.97728e-05
6.16384e-05
6.18604e-05
6.18605e-05
6.27385e-05
6.52697e-05
6.75869e-05
6.71294e-05
6.32553e-05
6.25004e-05
6.5622e-05
6.81601e-05
6.80437e-05
6.75311e-05
7.17917e-05
8.6708e-05
0.000117431
0.000141411
0.000148703
0.000155103
0.000171105
0.000176034
0.000175925
0.000170348
0.000163026
0.000156888
0.000151334
0.000143079
0.000140314
0.00013854
0.0001478
0.000153078
0.000153427
0.000180648
0.000186057
0.00017075
0.000154958
0.00016947
0.000177497
0.000180622
0.000201085
0.000195038
0.000193972
0.000208241
0.000213893
0.000243735
0.000270215
0.00028437
0.000322414
0.000275752
0.00031404
0.000343075
0.00029782
0.000335979
0.000396213
0.000358007
0.000397229
0.000461612
0.00050471
0.000532957
0.000522196
0.000595051
0.000654895
0.00044985
0.000389159
0.000371983
0.000344456
0.000413628
0.000419587
0.000262682
0.000185527
0.000119401
7.5999e-05
5.19705e-05
3.94648e-05
3.64672e-05
3.74891e-05
3.80941e-05
3.77411e-05
3.69309e-05
3.64677e-05
3.59123e-05
3.50242e-05
3.36985e-05
3.26522e-05
3.21895e-05
3.20443e-05
3.20395e-05
3.21818e-05
3.22848e-05
3.2728e-05
3.31103e-05
3.38073e-05
3.43631e-05
3.48904e-05
3.58908e-05
3.83092e-05
4.3473e-05
5.56587e-05
7.49128e-05
8.9602e-05
9.87964e-05
0.000102319
0.000103965
9.75356e-05
8.64101e-05
7.55718e-05
6.5734e-05
5.74907e-05
4.93585e-05
4.45184e-05
3.99118e-05
3.75559e-05
3.64767e-05
3.61969e-05
3.63537e-05
3.67305e-05
3.70061e-05
3.70986e-05
3.67338e-05
3.58658e-05
3.53355e-05
3.51345e-05
3.52089e-05
3.56195e-05
3.63448e-05
3.70983e-05
3.7811e-05
3.84897e-05
3.91856e-05
3.99426e-05
4.06714e-05
4.11705e-05
4.15426e-05
4.17923e-05
4.18529e-05
4.17444e-05
4.12647e-05
4.08628e-05
4.07501e-05
4.09223e-05
4.12306e-05
4.17459e-05
4.22658e-05
4.31697e-05
4.38881e-05
4.46951e-05
4.47129e-05
4.35872e-05
4.13156e-05
3.94943e-05
3.80146e-05
3.8052e-05
4.06557e-05
4.38745e-05
4.52218e-05
4.5828e-05
4.53709e-05
4.40375e-05
4.28669e-05
4.13516e-05
3.95964e-05
3.83801e-05
3.80071e-05
3.81594e-05
3.81059e-05
3.88616e-05
4.09423e-05
4.20328e-05
4.23759e-05
4.22268e-05
4.32019e-05
4.34374e-05
4.39701e-05
4.40758e-05
4.44954e-05
4.42781e-05
4.45805e-05
4.58838e-05
4.74372e-05
5.16292e-05
5.59682e-05
5.66104e-05
5.67142e-05
5.60717e-05
5.54357e-05
5.80614e-05
5.95253e-05
5.86692e-05
5.78222e-05
5.83104e-05
6.17685e-05
6.28043e-05
6.27214e-05
6.47762e-05
7.76334e-05
0.000110924
0.000134662
0.000143264
0.000145429
0.000156847
0.00016197
0.000163225
0.000162817
0.000156712
0.000149603
0.000142957
0.000131733
0.00013081
0.000130704
0.000138973
0.000144439
0.00014376
0.000151644
0.000167244
0.000161756
0.000150239
0.000145665
0.000154819
0.000160995
0.000175174
0.000177101
0.000174649
0.000179821
0.000201078
0.000234174
0.000245749
0.000260605
0.00030676
0.000280858
0.00028405
0.000308023
0.000266279
0.000300507
0.000373441
0.000336121
0.000381512
0.00044486
0.000482403
0.000495679
0.00051399
0.000613104
0.000540983
0.000386881
0.000347533
0.000331122
0.000320683
0.000397679
0.000401177
0.000279727
0.000192099
0.000115962
7.27705e-05
5.0767e-05
3.93674e-05
3.80743e-05
3.87312e-05
3.87712e-05
3.8311e-05
3.7623e-05
3.69589e-05
3.56135e-05
3.33806e-05
3.13013e-05
3.07003e-05
3.06078e-05
3.06249e-05
3.08705e-05
3.14061e-05
3.21762e-05
3.31528e-05
3.40125e-05
3.5245e-05
3.66295e-05
3.89466e-05
4.3828e-05
5.43831e-05
6.811e-05
7.92159e-05
8.71115e-05
9.15973e-05
9.39843e-05
9.29493e-05
8.40656e-05
7.62477e-05
6.71648e-05
5.87977e-05
5.10797e-05
4.60805e-05
4.06304e-05
3.79411e-05
3.6155e-05
3.5602e-05
3.56249e-05
3.58934e-05
3.62106e-05
3.64009e-05
3.61008e-05
3.4968e-05
3.42132e-05
3.40309e-05
3.40919e-05
3.43284e-05
3.49192e-05
3.57656e-05
3.67369e-05
3.77987e-05
3.88192e-05
3.96973e-05
4.03226e-05
4.08285e-05
4.1165e-05
4.13836e-05
4.1624e-05
4.18006e-05
4.19284e-05
4.19239e-05
4.16766e-05
4.14918e-05
4.12348e-05
4.13375e-05
4.15166e-05
4.19664e-05
4.22815e-05
4.26984e-05
4.30562e-05
4.35401e-05
4.3872e-05
4.37401e-05
4.17835e-05
3.91272e-05
3.67847e-05
3.50017e-05
3.46222e-05
3.60044e-05
3.8356e-05
4.06885e-05
4.22974e-05
4.27239e-05
4.18926e-05
4.07607e-05
3.88287e-05
3.74006e-05
3.64389e-05
3.6171e-05
3.58539e-05
3.55688e-05
3.61347e-05
3.80438e-05
3.91637e-05
3.93525e-05
3.93664e-05
3.97493e-05
4.03818e-05
4.11439e-05
4.15532e-05
4.17541e-05
4.18319e-05
4.27564e-05
4.36372e-05
4.48563e-05
4.89721e-05
5.04127e-05
5.05162e-05
5.09659e-05
5.09033e-05
5.1693e-05
5.49905e-05
5.63895e-05
5.67555e-05
5.57707e-05
5.82266e-05
6.07745e-05
6.16465e-05
6.20438e-05
7.06731e-05
0.000100595
0.000126415
0.000136682
0.000138896
0.000144721
0.000148342
0.000149122
0.000147683
0.000143824
0.000139327
0.000133613
0.000127142
0.000125037
0.000123863
0.000126608
0.00012969
0.000133261
0.000126454
0.000134352
0.000145589
0.000140773
0.000139488
0.000149745
0.000155333
0.000160334
0.000168599
0.000171134
0.000172313
0.000187488
0.000221991
0.0002101
0.000230659
0.000284517
0.000261323
0.000254931
0.000275979
0.000247306
0.000282003
0.000355014
0.000319072
0.00036619
0.00042442
0.000456068
0.000460689
0.000502736
0.000561169
0.00043375
0.000332182
0.000318056
0.000308477
0.000311895
0.000368409
0.000367029
0.000292563
0.000194316
0.000111452
7.0637e-05
4.98954e-05
3.95377e-05
3.86112e-05
3.91165e-05
3.9084e-05
3.8674e-05
3.79021e-05
3.6707e-05
3.43517e-05
3.15547e-05
3.03315e-05
3.03839e-05
3.08148e-05
3.11609e-05
3.18487e-05
3.28246e-05
3.39325e-05
3.52195e-05
3.67077e-05
3.91508e-05
4.35595e-05
5.27228e-05
6.36647e-05
7.15939e-05
7.76232e-05
8.2098e-05
8.43763e-05
8.54882e-05
8.00139e-05
7.34707e-05
6.68219e-05
6.00473e-05
5.29939e-05
4.7066e-05
4.18042e-05
3.89619e-05
3.61736e-05
3.51412e-05
3.48529e-05
3.49821e-05
3.54638e-05
3.57461e-05
3.58873e-05
3.54838e-05
3.42761e-05
3.36202e-05
3.35303e-05
3.36546e-05
3.39293e-05
3.44114e-05
3.51358e-05
3.60129e-05
3.69769e-05
3.8034e-05
3.91207e-05
4.01337e-05
4.08244e-05
4.13125e-05
4.15593e-05
4.15291e-05
4.1332e-05
4.07588e-05
4.02332e-05
4.02295e-05
4.05461e-05
4.0834e-05
4.09007e-05
4.11341e-05
4.13817e-05
4.18149e-05
4.21049e-05
4.21598e-05
4.23155e-05
4.24521e-05
4.2788e-05
4.28561e-05
4.20598e-05
3.9884e-05
3.71427e-05
3.45763e-05
3.30175e-05
3.28776e-05
3.32637e-05
3.41954e-05
3.60526e-05
3.83924e-05
3.94201e-05
3.94903e-05
3.83338e-05
3.70272e-05
3.59609e-05
3.50875e-05
3.49272e-05
3.46736e-05
3.465e-05
3.53713e-05
3.70049e-05
3.76412e-05
3.75396e-05
3.79675e-05
3.82127e-05
3.87907e-05
3.99168e-05
4.05228e-05
4.05974e-05
4.10115e-05