/*--------------------------------*- C++ -*----------------------------------*\
| =========                 |                                                 |
| \\      /  F ield         | OpenFOAM: The Open Source CFD Toolbox           |
|  \\    /   O peration     | Version:  dev                                   |
|   \\  /    A nd           | Web:      http://www.openfoam.org               |
|    \\/     M anipulation  |                                                 |
\*---------------------------------------------------------------------------*/
FoamFile
{
    version     2.0;
    format      ascii;
    class       volScalarField;
    object      p;
    location    "9.165";
}
// * * * * * * * * * * * * * * * * * * * * * * * * * * * * * * * * * * * * * //

dimensions      [1 -1 -2 0 0 0 0];

internalField   nonuniform List<scalar> 
12225
(
103857
103879
103908
103939
103954
103957
103933
103895
103826
103740
103619
103481
103304
103111
102868
102613
102253
101633
103850
103877
103907
103938
103952
103954
103931
103893
103824
103737
103616
103478
103301
103108
102866
102609
102250
101831
103843
103874
103903
103934
103946
103949
103925
103887
103817
103731
103610
103472
103296
103101
102864
102602
102270
101914
103832
103867
103896
103926
103937
103940
103915
103876
103807
103720
103600
103461
103287
103091
102859
102595
102287
101951
103817
103855
103883
103912
103922
103924
103899
103859
103790
103702
103584
103444
103273
103078
102854
102593
102313
101969
103796
103836
103863
103891
103901
103901
103875
103834
103766
103677
103560
103420
103254
103060
102847
102595
102341
102040
103771
103807
103835
103861
103870
103867
103842
103799
103732
103641
103528
103387
103227
103037
102834
102597
102366
102119
103741
103774
103802
103825
103834
103828
103804
103758
103693
103600
103489
103350
103194
103010
102815
102595
102381
102161
103708
103738
103766
103786
103795
103786
103763
103715
103650
103558
103448
103311
103158
102981
102792
102587
102384
102182
103664
103689
103717
103734
103743
103731
103707
103657
103591
103500
103391
103258
103109
102939
102758
102565
102374
102186
103602
103624
103651
103664
103671
103657
103630
103580
103513
103422
103314
103185
103040
102878
102706
102527
102345
102168
103523
103538
103562
103572
103575
103558
103528
103476
103408
103318
103211
103086
102946
102793
102629
102461
102290
102123
103409
103424
103443
103449
103446
103426
103391
103338
103267
103178
103072
102951
102816
102671
102517
102359
102200
102042
103262
103274
103285
103286
103275
103250
103209
103153
103079
102990
102886
102768
102638
102500
102356
102208
102059
101910
103067
103076
103077
103069
103049
103018
102970
102909
102832
102742
102638
102523
102398
102267
102130
101991
101851
101712
102828
102821
102807
102787
102756
102715
102659
102591
102510
102417
102313
102200
102079
101952
101823
101691
101560
101429
102514
102490
102461
102425
102381
102327
102261
102185
102097
102000
101894
101781
101662
101540
101416
101291
101167
101044
102126
102096
102055
102006
101948
101880
101803
101717
101621
101518
101409
101295
101177
101057
100937
100817
100698
100582
101734
101704
101657
101599
101530
101451
101363
101267
101164
101055
100941
100825
100707
100588
100469
100353
100238
100126
101408
101370
101317
101249
101170
101082
100985
100881
100771
100657
100540
100421
100301
100183
100065
99950.2
99838.1
99729.4
101148
101100
101038
100962
100874
100778
100673
100562
100447
100328
100208
100087
99966
99846.7
99729.6
99615.6
99505.2
99398.6
100947
100888
100817
100733
100638
100535
100424
100308
100188
100066
99942.6
99819.4
99697.4
99577.6
99460.5
99347
99237.6
99132.5
100791
100724
100646
100556
100456
100346
100231
100111
99987.3
99862.3
99736.8
99612
99488.8
99368.3
99251.1
99137.8
99029
98925
100668
100600
100518
100423
100318
100205
100086
99962.1
99836.1
99708.9
99581.7
99455.5
99331.4
99210.3
99092.8
98979.7
98871.3
98768
100586
100512
100425
100326
100217
100101
99979.3
99853.6
99725.7
99596.8
99468.2
99341
99216.2
99094.6
98977
98863.8
98755.7
98652.9
100531
100451
100360
100258
100147
100028
99904.6
99777.3
99647.9
99517.8
99388.3
99260.3
99134.9
99013
98895.2
98782
98674
98571.5
100492
100410
100317
100213
100100
99979.7
99854.6
99726.2
99595.7
99464.8
99334.5
99206
99080.2
98958
98840.1
98726.9
98618.9
98516.5
100468
100386
100290
100184
100070
99949.4
99823.5
99694.4
99563.3
99431.7
99300.9
99172
99046
98923.6
98805.5
98692.3
98584.4
98482
100458
100374
100276
100169
100054
99932.6
99806.4
99676.8
99545.4
99413.5
99282.4
99153.2
99027
98904.5
98786.4
98673.1
98565.1
98462.7
100459
100371
100271
100163
100048
99926
99799.5
99669.8
99538.2
99406.1
99274.9
99145.7
99019.3
98896.8
98778.6
98665.3
98557.4
98454.9
97513.6
97509
97499.8
97486.2
97469
97448.6
97425.2
97396.7
97364.6
97329.2
97289.8
97246.9
97200.7
97151.6
97099.8
97045.5
96989.8
96933.2
96876.2
96819.8
96764
96709.7
96657.3
96607.2
96560.2
96516.6
96477.2
96442.4
96412.9
96389.4
96372.9
96364.5
96364.7
96374.4
96394.3
96425.3
96467.8
96522.3
96589
96668.1
96759.6
96864.3
96984.6
97118
97262.5
97417.2
97584.8
97765.6
97959.8
98167.3
98386.1
98615.3
98854.4
99102.9
99360.7
99627.4
99902.6
100186
100476
100772
101074
101380
101688
101999
102310
102621
102930
103236
103539
103836
104128
104413
104691
104961
105222
105476
105722
105960
106190
106414
106632
106845
107055
107262
107468
107674
107882
108093
108308
108529
108756
108992
109237
109493
109760
110040
110332
110637
110956
111290
111639
112002
112380
112772
113178
113597
114027
114467
114916
115370
115827
116285
116739
117183
117614
118027
118420
118794
119152
119493
119818
120129
120435
120742
121061
121397
121748
122103
122448
122772
123074
123384
123673
123971
124288
124630
125009
125425
125892
126409
126966
127555
128192
128889
129629
130398
131238
132129
133084
134108
135145
136257
137434
138669
139985
141388
142874
144427
146048
147710
149395
151040
152632
154314
156127
157962
159761
161583
163469
165203
166310
166608
166344
165545
164164
162078
159874
157948
155627
153539
97525.2
97520.6
97511.2
97497.5
97480
97459
97434.5
97407.4
97376.2
97341
97302
97259.4
97213.4
97164.7
97112.6
97058.2
97002.4
96945.9
96889
96832.6
96777
96722.7
96670.4
96620.3
96573.3
96529.7
96490.1
96455.4
96426.2
96403.2
96387.4
96379.5
96380.2
96390.4
96410.1
96441
96484
96538.6
96604.9
96684.3
96777.2
96880.5
96992.9
97127.5
97277.5
97436
97602.3
97778.4
97967.5
98170.9
98387.5
98615.2
98853.1
99100.5
99357.2
99622.8
99896.9
100179
100468
100763
101062
101366
101673
101982
102291
102600
102906
103210
103510
103805
104094
104377
104652
104919
105178
105429
105671
105906
106134
106355
106570
106779
106986
107190
107393
107596
107800
108007
108219
108436
108660
108892
109133
109385
109647
109923
110211
110511
110826
111155
111498
111856
112229
112615
113015
113427
113851
114284
114725
115171
115620
116069
116515
116952
117374
117776
118158
118520
118867
119198
119513
119813
120105
120400
120708
121034
121379
121732
122077
122398
122697
122991
123283
123579
123891
124230
124607
125024
125491
126008
126569
127156
127788
128494
129232
129994
130822
131715
132662
133695
134708
135809
136961
138177
139470
140842
142311
143831
145419
147062
148727
150361
151915
153552
155358
157162
158863
160644
162563
164339
165442
165742
165528
164719
163224
161205
159093
157183
154980
152973
97550.6
97546.1
97537
97523.7
97506.5
97485.7
97461.2
97433.4
97401.8
97366.2
97326.7
97283.7
97237.4
97188
97135.8
97082.2
97027
96970.9
96914.4
96858.2
96802.9
96748.9
96697
96647.4
96600.6
96557.3
96517.9
96483.3
96454.5
96432.3
96417.4
96410.4
96412.1
96422.8
96443.3
96474.4
96517.3
96572.3
96639.5
96719.3
96811.7
96919.6
97040
97165.5
97302.9
97454
97618.3
97794.1
97981.3
98180.9
98393
98616.9
98851.6
99096.5
99350.9
99614.2
99885.8
100165
100451
100742
101039
101339
101643
101947
102252
102556
102858
103158
103453
103743
104027
104304
104573
104835
105089
105334
105571
105800
106022
106237
106446
106649
106850
107048
107244
107440
107638
107838
108042
108251
108468
108692
108925
109169
109424
109690
109970
110263
110568
110887
111221
111568
111930
112305
112691
113090
113499
113918
114344
114774
115206
115636
116064
116486
116893
117280
117644
117988
118313
118625
118924
119208
119480
119749
120031
120333
120655
120994
121329
121642
121936
122220
122507
122800
123108
123442
123817
124236
124702
125221
125784
126376
127014
127723
128453
129211
130018
130917
131868
132865
133866
134952
136061
137231
138475
139765
141177
142648
144153
145722
147314
148949
150504
152065
153820
155546
157102
158774
160678
162442
163526
163890
163756
162915
161313
159431
157467
155655
153639
151771
97589.6
97585.4
97576.9
97564.4
97548.2
97528.6
97503.3
97474.3
97441.8
97405.7
97366
97322.9
97276.9
97226.3
97174.5
97120.7
97065.2
97009.2
96952.8
96896.9
96842.1
96788.4
96737.3
96688.8
96642.5
96599.9
96561.1
96526.8
96498.3
96476.6
96462.6
96456.8
96459.3
96471
96492.7
96523.9
96567.1
96622.7
96690.1
96770.7
96863.2
96964.5
97076.1
97199.6
97334.3
97480.8
97640.2
97812.4
97996.9
98193.4
98401.8
98621.6
98852.4
99093.5
99344.1
99603.5
99871.1
100146
100427
100714
101005
101300
101597
101896
102194
102492
102787
103079
103367
103650
103926
104195
104457
104711
104956
105193
105422
105643
105856
106063
106262
106458
106649
106838
107025
107212
107400
107590
107784
107982
108188
108401
108623
108855
109097
109351
109617
109898
110191
110496
110815
111148
111495
111853
112223
112602
112992
113390
113794
114202
114610
115014
115413
115808
116195
116565
116913
117238
117537
117817
118090
118350
118597
118836
119083
119350
119640
119948
120260
120556
120838
121111
121383
121675
121980
122302
122668
123090
123555
124077
124631
125235
125887
126590
127316
128076
128865
129755
130691
131692
132676
133732
134800
135909
137098
138286
139580
140965
142389
143845
145253
146862
148432
149894
151560
153217
154692
156244
158015
159659
160707
161145
161088
160269
158596
156949
155183
153519
151735
150038
97641.6
97637.6
97629.5
97617.4
97601.2
97579.7
97555.6
97527.2
97494.8
97458.3
97418.2
97374.7
97328
97278.4
97225.9
97171.5
97116
97060
97004
96948.7
96894.6
96841.7
96791.2
96744.3
96699.8
96658
96619.6
96585.6
96557.8
96536.8
96523.2
96518.2
96522.1
96534.6
96556.2
96588.3
96632.1
96688.3
96755
96830.7
96916.9
97013.7
97120.6
97239.1
97369.9
97513.1
97668.7
97837
98017.6
98210.2
98414.3
98629.5
98855.3
99091.3
99336.7
99590.7
99852.5
100121
100396
100676
100960
101248
101537
101828
102118
102406
102693
102976
103254
103528
103794
104054
104305
104549
104784
105010
105228
105438
105640
105835
106024
106208
106388
106565
106740
106915
107090
107268
107449
107635
107827
108026
108233
108450
108678
108915
109165
109428
109704
109993
110294
110608
110935
111273
111622
111979
112345
112717
113096
113477
113858
114234
114601
114960
115312
115654
115979
116281
116552
116798
117034
117261
117476
117680
117886
118111
118362
118634
118915
119187
119450
119710
119966
120245
120540
120855
121212
121625
122084
122599
123142
123758
124424
125130
125858
126619
127414
128268
129165
130172
131145
132151
133192
134233
135349
136466
137633
138852
140199
141573
142758
144205
145742
147090
148624
150220
151642
153127
154733
156176
157159
157637
157602
156799
155215
153874
152341
150826
149316
147831
97705.6
97702.4
97694.4
97682.3
97665.1
97644.3
97619.9
97591.5
97558.8
97522.1
97481.6
97437.8
97390.5
97340.8
97287.8
97233.3
97177.8
97122.5
97067.9
97013.7
96960.8
96909.2
96859.7
96813.3
96770.4
96730.4
96693.3
96659.9
96632.2
96611.4
96599.7
96594.8
96598.2
96610.8
96633.5
96666.6
96709.6
96761.8
96823.6
96894.9
96975.8
97067.8
97171.1
97286
97413.2
97552.7
97704.5
97868.3
98044
98231.3
98429.9
98639.3
98859
99088.8
99327.7
99574.9
99829.9
100091
100358
100630
100905
101183
101463
101744
102023
102302
102577
102849
103116
103378
103633
103881
104121
104352
104574
104788
104993
105190
105379
105559
105735
105905
106071
106234
106395
106555
106716
106879
107045
107216
107391
107574
107764
107964
108174
108394
108625
108868
109123
109392
109672
109963
110267
110582
110907
111239
111578
111921
112270
112621
112972
113318
113654
113976
114287
114588
114874
115145
115388
115601
115795
115983
116165
116332
116489
116659
116861
117090
117335
117580
117820
118067
118313
118570
118846
119154
119507
119901
120342
120835
121375
121989
122665
123388
124128
124890
125711
126546
127392
128328
129276
130233
131253
132232
133243
134311
135385
136407
137618
138951
140039
141242
142636
143875
145243
146705
148023
149445
150905
152141
153046
153546
153471
152578
151353
150346
149046
147724
146455
145203
97783.7
97779.9
97772.5
97760.9
97743.2
97721.7
97696.7
97668
97635.3
97598.5
97558.1
97514.3
97468.2
97417.3
97363.2
97308.6
97253.4
97198.6
97145.3
97092.8
97041
96990.7
96942.6
96898.1
96857.3
96817.1
96780.5
96748.4
96721.9
96701.9
96689.3
96684.6
96688.4
96701.2
96723
96753.2
96792.4
96840.5
96897.7
96964.6
97041.8
97130.1
97230
97341.5
97464.8
97599.8
97746.5
97904.7
98074.4
98255.4
98447.4
98650.1
98863
99085.6
99316.9
99556
99801.7
100054
100312
100574
100839
101107
101376
101644
101912
102178
102441
102700
102954
103202
103444
103678
103904
104122
104330
104530
104720
104903
105075
105242
105402
105557
105707
105853
105997
106141
106285
106432
106581
106734
106891
107055
107226
107406
107596
107796
108006
108229
108462
108708
108965
109232
109510
109798
110097
110402
110713
111025
111340
111657
111972
112282
112584
112870
113143
113402
113644
113874
114086
114271
114425
114565
114706
114834
114945
115056
115199
115374
115574
115790
116002
116229
116465
116716
116971
117264
117611
117988
118404
118884
119425
120009
120670
121418
122166
122939
123755
124631
125423
126263
127143
128046
129030
129952
130862
131853
132841
133717
134725
135976
137114
138124
139291
140393
141581
142861
144058
145348
146635
147694
148521
149038
148905
147860
147181
146503
145447
144333
143273
142236
97872.9
97869.4
97861.7
97847.8
97832.1
97811.9
97786.7
97757.4
97723.9
97686.1
97644.1
97598.1
97548.9
97497.7
97447.7
97395.6
97342.8
97290.3
97238.8
97187.5
97137.2
97088.6
97041.9
96998
96956.9
96918.2
96882.6
96851.5
96825.7
96806.1
96793.6
96788.6
96791.4
96801.8
96820.3
96847.1
96882.7
96926.9
96980.4
97043.8
97117.7
97202.5
97298.5
97405.6
97523.7
97652.9
97793.4
97945.3
98108.4
98282.8
98467.8
98663.1
98868.2
99082.4
99304.8
99534.9
99770.6
100012
100259
100509
100763
101018
101274
101529
101784
102036
102284
102529
102768
103002
103229
103448
103659
103862
104055
104239
104413
104578
104735
104885
105028
105166
105299
105427
105554
105679
105805
105933
106064
106198
106337
106480
106630
106788
106956
107134
107322
107521
107732
107954
108187
108429
108680
108940
109209
109486
109767
110048
110329
110610
110886
111154
111414
111663
111899
112120
112319
112503
112677
112831
112952
113044
113132
113219
113290
113346
113425
113542
113691
113871
114054
114251
114470
114713
114967
115246
115576
115947
116357
116822
117355
117912
118533
119282
120026
120822
121624
122468
123259
124034
124846
125675
126586
127456
128291
129170
130044
130855
131650
132718
133880
134817
135790
136740
137746
138819
139884
140998
142076
142979
143723
144205
143985
143056
142855
142439
141646
140768
139864
139029
97974.8
97971.4
97963
97950.7
97934.3
97913.8
97889.5
97860.5
97827.3
97789.8
97748.1
97702.4
97653.3
97604.9
97555.1
97504
97452.4
97400.6
97349.2
97298.5
97249.1
97201.8
97156.5
97113
97071.9
97033.7
96998.8
96968.3
96943
96923.5
96910.4
96903.9
96904.1
96911.8
96927.4
96951
96983.1
97024
97074.1
97134.1
97204.2
97284.7
97375.6
97477
97588.9
97711.7
97845.6
97990.8
98146.9
98313.6
98490.6
98677.2
98872.8
99076.7
99288.3
99506.3
99731.4
99961.7
100196
100434
100674
100916
101158
101399
101639
101876
102110
102338
102562
102780
102990
103193
103388
103575
103752
103920
104077
104226
104365
104497
104622
104741
104855
104964
105071
105176
105283
105391
105502
105617
105735
105859
105987
106123
106267
106422
106587
106761
106947
107144
107352
107569
107793
108026
108264
108510
108760
109010
109258
109504
109742
109969
110185
110392
110587
110769
110931
111070
111195
111311
111400
111453
111490
111531
111566
111577
111593
111645
111741
111876
112028
112196
112386
112610
112860
113140
113450
113813
114237
114690
115210
115747
116339
117047
117767
118565
119358
120132
120913
121657
122418
123173
123982
124797
125573
126331
127086
127860
128515
129363
130329
131256
132124
132954
133805
134674
135591
136515
137373
138128
138778
139112
138839
138407
138480
138278
137748
137116
136335
135699
98090
98086.2
98077.8
98065.7
98049.5
98029.4
98005.7
97977.8
97945.5
97909.1
97868.6
97824.7
97778.5
97731.1
97682.3
97631.8
97580.2
97528.4
97477.2
97427.1
97378.2
97330.8
97285.4
97242.2
97201.4
97163.5
97129.1
97098.8
97073.2
97052.8
97038.3
97029.9
97028.2
97033.5
97046.2
97066.7
97095.4
97132.8
97179.4
97235.2
97300.6
97375.6
97460.4
97555.3
97660.5
97776.5
97903.2
98040.6
98188.5
98346.3
98513.7
98690
98874.8
99067.4
99267.2
99473.6
99686.1
99903.6
100125
100349
100576
100803
101030
101257
101481
101702
101919
102131
102337
102538
102731
102917
103094
103263
103423
103574
103715
103846
103968
104082
104188
104288
104383
104474
104560
104645
104729
104815
104905
104999
105097
105199
105307
105420
105541
105671
105812
105963
106122
106293
106474
106666
106864
107070
107280
107493
107710
107929
108146
108357
108560
108753
108928
109093
109245
109383
109507
109605
109679
109746
109801
109825
109820
109812
109809
109786
109747
109735
109772
109859
109975
110115
110277
110472
110705
110982
111282
111639
112054
112508
113019
113548
114128
114779
115461
116199
116972
117714
118464
119167
119876
120579
121280
122022
122734
123390
124042
124747
125368
125999
126733
127574
128346
129080
129800
130504
131276
132010
132658
133258
133790
133946
133829
133916
134146
134120
133841
133421
132818
132385
98219.9
98216.4
98208.4
98196.2
98180.3
98160.8
98137.5
98110.4
98079.4
98044.3
98005.2
97962.9
97918.2
97871.9
97824.2
97774.8
97723.7
97672.1
97621
97571.1
97522.6
97475.5
97430
97386.5
97345.7
97307.8
97273
97242
97215.5
97194.1
97178.1
97168
97164.4
97167.3
97177.1
97194.4
97219.6
97253.1
97295.1
97345.8
97405.4
97474.1
97552.2
97640
97737.9
97846.2
97964.9
98093.5
98231.9
98379.7
98536.3
98701.4
98874.6
99055.1
99242.4
99436
99635
99838.5
100046
100255
100467
100679
100891
101101
101309
101513
101713
101908
102098
102280
102456
102623
102783
102933
103075
103207
103331
103444
103549
103644
103732
103813
103888
103960
104028
104093
104157
104221
104287
104358
104433
104513
104598
104690
104789
104895
105011
105137
105272
105417
105571
105735
105907
106086
106269
106453
106637
106823
107009
107188
107358
107519
107661
107789
107900
107993
108074
108135
108168
108182
108192
108186
108149
108096
108053
108002
107924
107852
107828
107864
107941
108051
108188
108359
108568
108829
109112
109459
109852
110298
110804
111333
111883
112504
113175
113839
114529
115257
115980
116624
117261
117926
118543
119192
119835
120405
120967
121554
122163
122629
123228
123928
124571
125218
125802
126393
127017
127575
128033
128477
128885
129002
129159
129567
129899
130013
129965
129722
129405
129165
98365.5
98361.7
98353.9
98342
98326.6
98307.7
98284.9
98258.3
98228
98194.1
98156.8
98115.8
98071.5
98025.6
97978.7
97930.5
97880.6
97829.7
97779.1
97729.4
97680.8
97633.6
97588.1
97544.5
97503.1
97464.5
97429
97397.4
97370.2
97347.6
97330.2
97318.4
97312.4
97312.5
97319.4
97333.1
97354.2
97383
97419.6
97464.4
97517.5
97579.2
97649.9
97730.1
97820
97919.7
98029.2
98148.1
98276
98412.7
98557.9
98710.9
98871.4
99038.9
99212.6
99391.9
99576.2
99764.9
99956.9
100151
100347
100543
100739
100933
101124
101312
101495
101673
101845
102010
102168
102317
102458
102590
102714
102827
102933
103028
103114
103192
103261
103323
103379
103430
103478
103525
103569
103613
103658
103705
103757
103813
103876
103944
104020
104104
104196
104297
104409
104529
104656
104793
104939
105090
105246
105404
105560
105712
105866
106015
106154
106282
106393
106487
106564
106620
106655
106676
106679
106650
106611
106568
106503
106416
106330
106251
106149
106031
105946
105927
105965
106043
106158
106307
106496
106737
107004
107327
107700
108123
108615
109138
109654
110233
110896
111536
112141
112799
113488
114082
114635
115245
115809
116373
116940
117434
117922
118389
118920
119276
119783
120355
120865
121440
121895
122417
122882
123270
123574
123890
124210
124440
124799
125384
125781
126006
126145
126096
126074
126047
98527.1
98523.6
98515.4
98503.3
98487.8
98468.7
98445.9
98419.5
98389.5
98356
98319
98279.3
98235.9
98190.4
98144.1
98097.1
98049
97999.6
97949.5
97899.9
97851.3
97803.8
97757.9
97713.8
97671.8
97632.6
97596.7
97564.6
97536.4
97512.4
97493.3
97479.4
97470.8
97467.9
97471.2
97480.8
97497.2
97520.7
97551.3
97589.5
97635.4
97689.6
97752.3
97824
97905
97995.2
98094.6
98202.5
98319
98443.8
98576.5
98716.6
98863.7
99016.9
99176
99340.5
99509.8
99683.1
99859.6
100038
100218
100398
100577
100754
100928
101099
101264
101425
101579
101727
101868
102000
102123
102237
102342
102437
102524
102602
102670
102730
102782
102826
102864
102896
102924
102950
102974
102997
103022
103047
103077
103111
103151
103197
103249
103311
103380
103456
103544
103641
103744
103855
103974
104099
104228
104360
104490
104613
104734
104855
104964
105059
105139
105201
105248
105275
105272
105248
105218
105160
105078
104994
104903
104791
104669
104555
104437
104292
104156
104080
104075
104122
104214
104344
104516
104735
105004
105305
105661
106058
106516
107022
107516
108036
108635
109256
109824
110391
111018
111577
112071
112603
113117
113621
114102
114523
114938
115342
115734
116014
116454
116897
117288
117803
118158
118621
118923
119146
119329
119566
119863
120218
120733
121391
121856
122158
122420
122582
122830
122925
98705.1
98701.7
98693.8
98681.8
98666.3
98647
98623.8
98596.9
98566.6
98532.9
98495.8
98455.6
98415.3
98369.9
98323.6
98276.6
98228.8
98180
98130.5
98080.9
98032
97984.2
97937.8
97893.3
97851.1
97811.5
97775
97741.8
97712.3
97686.8
97665.6
97649.1
97637.4
97631.1
97630.2
97635.1
97646.3
97663.9
97687.9
97719
97757.2
97803.2
97857.3
97919.7
97990.8
98070.6
98158.7
98254.9
98359.2
98471.1
98590.3
98716.6
98849.9
98987.7
99132.1
99281.7
99435.9
99593.7
99754.3
99916.8
100080
100244
100406
100566
100723
100876
101025
101168
101305
101435
101558
101673
101780
101877
101964
102042
102111
102171
102222
102265
102299
102325
102346
102361
102371
102377
102381
102384
102388
102393
102401
102414
102433
102457
102488
102527
102574
102628
102691
102764
102845
102932
103026
103125
103228
103334
103438
103537
103629
103720
103801
103864
103916
103950
103965
103966
103935
103871
103803
103719
103608
103486
103363
103234
103088
102939
102800
102644
102476
102348
102295
102307
102378
102490
102650
102846
103110
103412
103751
104122
104541
105018
105500
105973
106480
107040
107574
108072
108630
109154
109614
110067
110522
110973
111369
111717
112047
112406
112679
112943
113303
113629
113922
114354
114643
115028
115183
115254
115340
115542
115876
116291
116940
117628
118171
118521
118843
119215
119670
119781
98901
98897.2
98889
98876.7
98860.7
98840.9
98817.3
98790.1
98759.5
98725.5
98688.3
98647.9
98604.3
98561.3
98515.7
98468.6
98420.3
98371.1
98321.3
98271.4
98222.1
98173.9
98127.2
98082.3
98039.6
97999.3
97961.6
97927
97895.8
97868.1
97844.3
97824.7
97809.6
97799.2
97793.8
97793.6
97799
97810.2
97827.2
97850.7
97880.8
97918
97962.6
98015
98075.4
98143.7
98219.9
98303.8
98395
98493.4
98598.7
98710.2
98827.3
98952
99081.7
99216.2
99355.1
99497.2
99641.8
99788.1
99935.1
100082
100227
100371
100511
100647
100779
100906
101026
101139
101244
101342
101433
101514
101585
101647
101699
101742
101777
101803
101820
101830
101834
101831
101824
101813
101798
101782
101766
101751
101739
101732
101731
101735
101745
101763
101789
101822
101862
101913
101971
102036
102105
102179
102259
102340
102418
102494
102562
102623
102676
102712
102737
102747
102732
102703
102648
102558
102454
102341
102209
102057
101901
101756
101596
101418
101252
101088
100911
100746
100644
100615
100663
100758
100908
101090
101332
101633
101966
102310
102692
103132
103594
104037
104472
104954
105431
105883
106374
106856
107286
107670
108057
108448
108769
109050
109301
109596
109812
110081
110339
110575
110810
111124
111360
111643
111691
111636
111646
111832
112219
112671
113395
114111
114722
115122
115472
116005
116568
116677
99115.4
99111.4
99102.8
99089.9
99072.8
99051.7
99026.8
98998.3
98966.3
98931.4
98893.6
98853.2
98810.3
98765.4
98718.7
98670.5
98621.1
98571
98520.6
98470.2
98420.5
98371.7
98324.5
98278.9
98235
98193.3
98153.9
98117.3
98083.7
98053.4
98026.4
98003.3
97984.2
97969.3
97958.9
97953.2
97952.4
97956.7
97966.5
97981.8
98003.2
98031.1
98065.9
98107.6
98156.6
98212.9
98276.6
98347.6
98425.5
98510.2
98601.3
98698.6
98801.8
98910.9
99025.2
99144.4
99267.7
99394
99522.6
99652.8
99783.4
99913.5
100042
100170
100294
100413
100528
100638
100743
100841
100930
101012
101086
101152
101208
101255
101291
101319
101337
101348
101350
101346
101334
101315
101291
101263
101232
101199
101165
101132
101101
101075
101054
101039
101030
101028
101034
101047
101067
101096
101132
101175
101224
101275
101331
101388
101442
101495
101542
101576
101601
101615
101615
101603
101564
101500
101421
101316
101186
101041
100888
100720
100537
100369
100198
100003
99808.8
99632
99454.7
99274.3
99135.4
99063.5
99077.6
99157.8
99291
99469.1
99692.4
99971
100297
100630
100979
101369
101795
102216
102598
102999
103416
103835
104262
104688
105090
105427
105737
106052
106316
106546
106735
106965
107150
107376
107561
107722
107939
108132
108313
108479
108457
108314
108273
108439
108851
109358
110100
110833
111491
111957
112328
112943
113488
113593
99346.6
99341.9
99333
99319.6
99300.9
99278.1
99251.4
99221
99187
99150.1
99110.4
99068.2
99023.8
98977.3
98928.9
98879.2
98828.5
98777.5
98726.2
98675.2
98624.8
98575.2
98526.6
98479.5
98433.9
98390.1
98348.5
98309.3
98272.8
98239.1
98208.6
98181.4
98157.8
98138
98122.2
98110.5
98103.2
98100.4
98102.5
98109.5
98121.8
98139.9
98164.2
98195
98232.3
98276.4
98327.4
98385.1
98449.4
98520
98596.9
98679.9
98768.6
98862.7
98961.7
99065.3
99172.8
99283.4
99396.1
99510.6
99625.4
99739.4
99851.8
99962.7
100071
100175
100274
100368
100459
100541
100616
100684
100743
100795
100837
100869
100891
100905
100910
100906
100894
100876
100850
100817
100779
100736
100690
100641
100591
100542
100494
100450
100412
100378
100351
100331
100317
100311
100313
100322
100337
100360
100388
100418
100453
100487
100519
100550
100576
100590
100589
100580
100561
100523
100466
100376
100266
100147
100002
99832.4
99657.9
99478.3
99279
99083
98892.8
98687.3
98474.5
98280.5
98101.4
97922.2
97767
97662.9
97636.8
97694.1
97808
97976.7
98192.1
98445.6
98750.8
99080.8
99413.6
99753.8
100129
100517
100860
101193
101553
101940
102308
102660
103024
103327
103569
103805
104018
104216
104359
104529
104680
104832
104968
105061
105264
105369
105492
105542
105485
105292
105229
105361
105745
106326
107062
107785
108439
108980
109380
110011
110434
110495
99592.5
99587.3
99577
99561.6
99542
99517.7
99488.7
99455.6
99419
99379
99336.2
99291.2
99244
99195
99144.4
99092.8
99040.4
98987.7
98935
98882.7
98831
98780
98729.8
98680.6
98632.8
98586.5
98542.1
98499.7
98459.6
98422.1
98387.5
98355.7
98327.1
98302
98280.4
98262.4
98248.2
98238
98232
98230.5
98233.7
98241.8
98255.5
98275.1
98300.6
98332.3
98370.3
98414.7
98465.4
98522.2
98584.9
98653.4
98727.5
98806.6
98890.5
98978.8
99071
99166.1
99262.8
99361.3
99460.6
99559.2
99656.5
99751.9
99845.3
99933.8
100019
100099
100174
100243
100305
100360
100406
100444
100474
100494
100504
100505
100497
100481
100458
100426
100388
100343
100292
100236
100176
100113
100050
99986.5
99924.2
99864.7
99809.5
99759.3
99715.6
99678
99646.7
99623.9
99607.8
99597
99594.6
99598
99605.7
99618
99632.6
99645.3
99657.9
99669.6
99671.8
99665.7
99645.4
99616
99577.5
99516.6
99438.5
99330.7
99198.9
99061
98900.2
98718.4
98528.5
98334.4
98124.1
97901.1
97683.4
97464
97239.8
97032.9
96849.8
96679.3
96524.3
96407.4
96350.1
96376.1
96469.3
96618.4
96824.4
97061.8
97340.6
97660.3
97985.3
98291.3
98616.5
98956.2
99263.3
99545.4
99860.6
100207
100515
100799
101106
101364
101557
101725
101886
102056
102166
102287
102398
102481
102571
102612
102767
102811
102875
102835
102772
102561
102498
102595
102907
103557
104272
104955
105559
106148
106598
107187
107456
107467
99807.9
99802.1
99791.7
99776.9
99755.9
99729.9
99698.7
99662.5
99622.4
99579.1
99532.6
99484
99433.5
99381.7
99328.6
99274.8
99220.5
99166
99111.6
99057.6
99004.1
98951.3
98899.2
98848
98797.9
98749.2
98702.2
98656.8
98613.4
98572.4
98533.9
98498.1
98464.9
98434.8
98408
98384.4
98364.1
98347.4
98334.5
98325.5
98320.8
98320.7
98325.3
98335.2
98350.7
98372
98399
98432.1
98471
98516
98566.6
98622.7
98684.4
98751
98821.5
98896.7
98975.9
99058
99141.4
99226.5
99312.7
99397.9
99482.4
99565.2
99646
99722.9
99796
99864.7
99928.5
99986.5
100038
100082
100118
100146
100166
100175
100176
100167
100150
100125
100092
100051
100002
99947
99885.3
99818.8
99747.9
99674.2
99599.6
99525
99451
99379.5
99311.2
99247.7
99189.9
99137.6
99092.2
99054.5
99022.5
98996.5
98978.5
98965.5
98955.8
98951.7
98948.6
98943.2
98939.7
98933.7
98916.2
98890.1
98853.6
98807
98749.8
98671.8
98571.2
98445.6
98303.9
98148.4
97970.5
97784.2
97582.8
97367.5
97146.8
96905.8
96659.2
96421.3
96186.6
95971
95782.8
95618.9
95473.1
95356.4
95285.5
95284.1
95354.3
95481.1
95668.3
95890.8
96146
96447.5
96754
97041.3
97332.1
97619.9
97887.1
98131.4
98411.6
98705.5
98947.2
99179.2
99429.6
99627.4
99779.9
99891.9
99996.9
100134
100214
100299
100368
100396
100445
100443
100534
100529
100509
100415
100363
100158
100093
100168
100392
101071
101746
102357
102897
103470
103974
104468
104587
104594
99974.8
99970
99962
99949.9
99928.3
99899.9
99866.8
99827.5
99784.4
99737.7
99688
99636
99582.4
99528
99472.5
99416.5
99360.3
99304.1
99248.2
99192.7
99137.7
99083.3
99029.7
98976.8
98924.7
98874
98824.7
98777
98730.9
98686.9
98645.3
98606.1
98569.3
98535.2
98504.1
98475.9
98450.7
98428.8
98410.4
98395.4
98384.4
98377.5