/*--------------------------------*- C++ -*----------------------------------*\
| =========                 |                                                 |
| \\      /  F ield         | OpenFOAM: The Open Source CFD Toolbox           |
|  \\    /   O peration     | Version:  dev                                   |
|   \\  /    A nd           | Web:      http://www.openfoam.org               |
|    \\/     M anipulation  |                                                 |
\*---------------------------------------------------------------------------*/
FoamFile
{
    version     2.0;
    format      ascii;
    class       volScalarField;
    object      p_0;
    location    "9.165";
}
// * * * * * * * * * * * * * * * * * * * * * * * * * * * * * * * * * * * * * //

dimensions      [1 -1 -2 0 0 0 0];

internalField   nonuniform List<scalar> 
12225
(
101203
101221
101247
101275
101290
101295
101276
101242
101178
101097
100983
100853
100686
100503
100274
100028
99673
99097.9
101201
101225
101251
101279
101293
101298
101279
101245
101181
101100
100986
100856
100689
100505
100277
100027
99678.3
99271.8
101210
101235
101259
101287
101300
101305
101285
101251
101187
101106
100992
100862
100696
100511
100287
100033
99706.9
99369.1
101224
101250
101274
101301
101313
101318
101297
101263
101199
101117
101004
100873
100708
100524
100302
100049
99747.1
99440.2
101243
101272
101296
101322
101332
101336
101315
101280
101216
101134
101022
100890
100728
100544
100330
100081
99807.6
99497
101270
101302
101325
101351
101360
101362
101341
101304
101241
101157
101047
100914
100757
100574
100370
100132
99885.3
99603
101315
101342
101365
101389
101397
101397
101376
101336
101274
101189
101081
100948
100797
100617
100423
100199
99977
99741.4
101361
101387
101410
101431
101440
101436
101415
101373
101312
101225
101119
100988
100840
100665
100480
100271
100066
99856
101409
101435
101459
101476
101485
101478
101457
101413
101352
101264
101160
101030
100885
100716
100537
100342
100150
99955.9
101470
101497
101522
101536
101543
101533
101511
101465
101403
101316
101211
101084
100942
100780
100609
100426
100244
100064
101549
101579
101603
101614
101619
101605
101580
101532
101468
101381
101277
101153
101014
100860
100695
100524
100351
100182
101660
101686
101707
101714
101715
101698
101669
101618
101551
101464
101360
101238
101103
100955
100798
100637
100473
100313
101808
101824
101841
101843
101838
101815
101780
101726
101655
101566
101461
101342
101209
101067
100918
100765
100610
100458
101986
101998
102007
102004
101990
101961
101918
101858
101782
101690
101583
101464
101334
101196
101052
100906
100759
100614
102203
102212
102212
102200
102175
102137
102083
102015
101931
101834
101723
101603
101473
101338
101198
101057
100915
100775
102481
102473
102458
102432
102392
102340
102273
102192
102098
101992
101876
101751
101620
101484
101346
101207
101069
100932
102793
102769
102736
102692
102634
102563
102478
102381
102272
102154
102028
101896
101759
101620
101480
101341
101204
101069
103107
103064
103012
102946
102866
102772
102666
102549
102422
102289
102150
102007
101862
101717
101573
101431
101292
101157
103335
103296
103233
103149
103048
102932
102805
102668
102524
102375
102222
102069
101915
101763
101613
101467
101326
101189
103523
103475
103397
103296
103176
103042
102897
102743
102584
102421
102257
102093
101931
101772
101617
101467
101323
101183
103672
103610
103517
103401
103266
103116
102956
102788
102616
102442
102268
102096
101927
101762
101602
101448
101301
101159
103783
103708
103603
103474
103327
103165
102993
102815
102633
102450
102268
102088
101913
101744
101580
101423
101272
101128
103849
103775
103663
103525
103368
103197
103017
102830
102640
102450
102262
102077
101897
101724
101557
101397
101244
101099
103904
103823
103705
103561
103397
103219
103032
102839
102643
102448
102255
102066
101883
101706
101536
101374
101220
101073
103944
103857
103735
103585
103417
103234
103042
102844
102644
102445
102249
102057
101870
101691
101520
101356
101200
101053
103977
103882
103756
103602
103430
103244
103049
102848
102645
102443
102244
102049
101861
101681
101508
101343
101186
101038
103999
103900
103770
103614
103440
103251
103054
102851
102645
102441
102240
102045
101855
101673
101499
101334
101177
101028
104013
103912
103779
103622
103446
103256
103057
102853
102646
102441
102239
102042
101852
101669
101494
101328
101170
101021
104023
103920
103785
103627
103450
103259
103059
102854
102647
102441
102238
102041
101850
101667
101492
101325
101167
101018
104032
103926
103789
103629
103452
103261
103060
102855
102647
102441
102238
102040
101849
101666
101491
101324
101166
101017
98503.5
98498.6
98488.6
98473.9
98455.1
98432.5
98405.8
98374.8
98339.7
98300.4
98257.1
98209.4
98157.8
98102.9
98044.9
97984.1
97919.9
97853.6
97785.9
97717.2
97647.9
97578.6
97509.9
97442.2
97376.1
97311.8
97249.7
97191.2
97136.4
97086.1
97041.3
97003.3
96973
96950.7
96937.4
96934.3
96941.7
96960.4
96991
97033.7
97088.8
97156.5
97238.7
97337.5
97450.2
97572.7
97707.3
97856.4
98020.5
98201.8
98391
98591.9
98803.5
99025.3
99256.8
99497.6
99747.1
100004
100268
100538
100812
101090
101369
101649
101927
102203
102475
102742
103002
103254
103498
103731
103955
104167
104367
104556
104735
104902
105058
105205
105344
105474
105599
105719
105835
105948
106062
106176
106292
106413
106538
106670
106809
106957
107115
107283
107461
107651
107852
108066
108291
108529
108779
109042
109316
109601
109896
110200
110511
110829
111150
111475
111798
112119
112433
112740
113039
113328
113610
113885
114157
114427
114701
114983
115279
115600
115950
116329
116739
117178
117645
118144
118680
119263
119897
120579
121320
122122
122978
123890
124854
125841
126876
127915
129029
130180
131373
132546
133767
135020
136267
137564
138912
140301
141741
143252
144804
146398
148014
149612
151183
152614
153983
155389
156775
158129
159411
160516
161510
162241
162347
161771
160754
159245
157457
155147
152698
150451
147740
145407
98472.6
98467.9
98458
98443.4
98424.4
98401.9
98375.2
98344.9
98310.5
98271.6
98228.6
98181.2
98130
98075.4
98017.7
97956.8
97893
97827.5
97760.1
97692
97623.1
97554.2
97486.1
97418.8
97353.4
97289.8
97228.6
97170.8
97116.9
97067.7
97024.2
96986.8
96958.9
96937.3
96924.6
96922.1
96930.9
96950.8
96982
97026.2
97084.6
97152.7
97224.9
97323.7
97448.4
97575.7
97712.2
97857.5
98017.7
98193.5
98382.8
98584
98796
99018.2
99250.1
99491.2
99741
99998.4
100263
100532
100806
101083
101362
101641
101919
102194
102466
102732
102991
103242
103485
103718
103940
104151
104350
104539
104715
104881
105037
105182
105319
105449
105572
105691
105805
105918
106030
106142
106257
106376
106500
106630
106768
106915
107071
107237
107414
107602
107802
108014
108238
108474
108722
108983
109255
109537
109830
110131
110440
110754
111073
111393
111713
112029
112338
112639
112929
113211
113485
113753
114015
114275
114538
114810
115099
115411
115753
116126
116530
116961
117418
117905
118428
119001
119617
120287
121014
121799
122641
123540
124496
125465
126473
127518
128614
129743
130914
132085
133296
134517
135750
137034
138353
139716
141129
142603
144131
145692
147273
148847
150402
151818
153147
154528
155925
157253
158465
159570
160634
161437
161565
161018
160085
158557
156720
154457
152116
149912
147312
145054
98414.2
98409.6
98400
98385.9
98366.5
98344
98318.5
98288.8
98254.7
98216.1
98173.3
98126.4
98075.7
98021.5
97964
97903.6
97840.9
97776.1
97709.9
97642.6
97575
97507.3
97440.4
97374.5
97310.1
97248
97188.4
97132
97079.8
97032.8
96991.3
96956.5
96929.4
96910.1
96899.7
96899.1
96909.5
96931.5
96965.6
97012.6
97064.3
97144.2
97233.1
97329.4
97437.8
97561
97697.9
97846.8
98008.1
98182.6
98370.3
98570.5
98782.2
99004.7
99237.1
99478.7
99728.9
99986.6
100251
100520
100794
101070
101348
101626
101903
102177
102447
102711
102968
103218
103459
103689
103909
104118
104316
104502
104676
104840
104993
105136
105270
105397
105518
105634
105746
105856
105965
106075
106187
106303
106424
106551
106686
106830
106982
107146
107320
107504
107701
107909
108130
108362
108607
108863
109131
109409
109696
109992
110295
110603
110914
111225
111537
111845
112145
112433
112711
112977
113236
113489
113736
113979
114223
114476
114745
115037
115360
115717
116106
116520
116958
117424
117922
118477
119063
119706
120405
121162
121978
122848
123784
124725
125706
126747
127801
128896
130019
131180
132372
133555
134756
136013
137276
138583
139939
141324
142791
144290
145787
147286
148772
150187
151509
152835
154213
155477
156577
157659
158799
159674
159854
159418
158615
157098
155188
153063
150881
148792
146408
144294
98331.3
98326.9
98318.1
98305.1
98287.6
98265.6
98239.7
98209.8
98175.7
98137.6
98095.3
98049.2
97999.4
97946.3
97890.4
97831.9
97769.3
97705.1
97639.6
97573.5
97507.1
97440.7
97375.5
97311.8
97249.2
97189.2
97131.9
97077.3
97027.1
96982.2
96943.5
96911.6
96887
96870.7
96863.9
96866
96879.6
96905.4
96941.1
96992.4
97054.8
97127.5
97211.8
97309.2
97418.9
97541.3
97677.3
97826.7
97989.1
98164.4
98352.4
98552.7
98764.6
98987.4
99220.2
99462.2
99712.5
99970.1
100234
100503
100775
101051
101327
101604
101878
102150
102417
102679
102934
103181
103419
103647
103863
104069
104263
104446
104617
104777
104927
105065
105197
105320
105437
105549
105658
105764
105869
105975
106083
106194
106311
106434
106564
106703
106851
107009
107178
107359
107550
107753
107968
108196
108435
108686
108947
109218
109498
109786
110080
110378
110677
110976
111274
111569
111856
112131
112393
112642
112879
113109
113334
113555
113774
114000
114241
114505
114799
115128
115490
115878
116288
116723
117188
117712
118260
118861
119516
120234
121013
121843
122743
123649
124598
125619
126625
127674
128735
129878
131029
132190
133355
134566
135767
136998
138282
139550
140897
142300
143702
145084
146400
147810
149140
150382
151715
152938
153983
155029
156170
157067
157329
157047
156382
154951
153003
151086
149115
147208
145101
143173
98226.4
98222.4
98215.1
98203.6
98185
98163.5
98138.2
98108.9
98075.6
98038
97996.4
97951
97902.2
97850
97794.9
97736.9
97675.7
97613
97549
97484.6
97420.1
97355.6
97292.7
97232
97172.9
97115.6
97060.5
97008.5
96961.1
96919
96882.9
96854.1
96833.5
96821.1
96817.2
96822.8
96839.8
96871.2
96910.9
96961.3
97023.4
97097.3
97182.1
97279.5
97390
97513.7
97650.7
97801.1
97964.8
98141.3
98330.3
98531.2
98743.5
98966.6
99199.7
99441.7
99691.8
99949
100212
100480
100751
101025
101299
101573
101845
102114
102378
102637
102888
103132
103366
103589
103802
104004
104193
104372
104538
104694
104838
104973
105100
105218
105331
105438
105541
105642
105742
105842
105945
106051
106162
106279
106404
106537
106679
106830
106992
107166
107351
107548
107756
107976
108209
108452
108704
108967
109236
109514
109797
110082
110369
110652
110932
111207
111476
111733
111978
112207
112419
112621
112817
113008
113197
113389
113594
113824
114083
114378
114706
115058
115432
115828
116249
116729
117230
117780
118381
119045
119775
120548
121397
122265
123176
124167
125129
126126
127132
128226
129308
130444
131574
132719
133868
135012
136205
137379
138586
139820
141131
142420
143514
144818
146112
147250
148516
149728
150759
151817
152925
153793
154138
154007
153452
152144
150250
148632
146907
145195
143431
141730
98102
98098.2
98090.1
98076.5
98061.2
98041.2
98017
97988.7
97956.1
97919.2
97878.4
97833.8
97785.6
97733.9
97678.8
97619.7
97560.7
97500.1
97438.8
97377.2
97315.8
97254.7
97195.1
97137.6
97082.3
97029.2
96978.1
96928.3
96883.7
96844.7
96812.4
96787.4
96770.1
96761
96761.2
96771.6
96792.7
96824
96865.8
96918.2
96981.3
97056.2
97143.2
97242.7
97355.1
97480.8
97619.8
97771.8
97936.7
98114.3
98304.1
98505.7
98718.4
98941.8
99174.8
99416.6
99666.1
99922.3
100184
100451
100720
100991
101263
101534
101803
102068
102329
102583
102830
103069
103299
103518
103726
103922
104107
104280
104441
104591
104730
104859
104980
105092
105199
105300
105397
105491
105585
105679
105775
105875
105979
106089
106206
106332
106466
106610
106764
106929
107107
107295
107494
107706
107929
108162
108405
108656
108914
109179
109448
109720
109990
110258
110518
110770
111014
111247
111468
111673
111859
112031
112193
112351
112506
112660
112821
113007
113225
113479
113767
114077
114408
114764
115137
115561
116004
116497
117045
117641
118306
119008
119792
120615
121480
122444
123370
124310
125276
126327
127316
128372
129442
130515
131619
132678
133749
134849
135948
136975
138144
139383
140368
141462
142647
143686
144846
146003
146997
148081
149177
150011
150436
150446
149957
148715
147083
145805
144338
142853
141422
139987
97962.1
97958.6
97951.1
97939.5
97924.2
97904.7
97881.1
97853.4
97821.5
97785.4
97745.4
97701.6
97654.4
97604.1
97551
97494.1
97434.9
97375.8
97317.2
97258.7
97200.4
97143
97087.1
97034
96982.6
96932.7
96884.4
96838.9
96798
96762.7
96734
96712.5
96698.9
96694
96698.2
96711.6
96735
96768.6
96812.3
96866.8
96932.4
97009.7
97099.4
97201.7
97316.7
97444.5
97585.3
97738.8
97904.8
98083.4
98274
98476.2
98689.5
98913.2
99146.2
99387.5
99636.2
99891.4
100152
100416
100683
100951
101220
101487
101752
102012
102268
102517
102759
102993
103217
103431
103633
103824
104003
104170
104325
104468
104601
104724
104838
104944
105043
105137
105227
105314
105400
105487
105576
105667
105764
105866
105974
106090
106216
106351
106496
106652
106819
106998
107187
107388
107599
107821
108052
108290
108535
108784
109037
109291
109544
109792
110032
110261
110479
110684
110875
111052
111212
111352
111479
111598
111716
111831
111947
112079
112247
112453
112694
112959
113242
113551
113880
114241
114630
115059
115550
116077
116666
117301
118015
118772
119568
120499
121393
122292
123229
124208
125137
126079
127049
128045
129090
130068
131020
132024
133020
133886
134854
136009
137031
137955
138954
139878
140909
141970
142914
143968
145036
145859
146362
146505
146055
144815
143654
142704
141508
140272
139141
137980
97812.8
97810.1
97802.9
97791.8
97776.9
97758.1
97735.1
97708
97676.6
97641
97601.2
97557.2
97509.1
97457.9
97404.9
97348.9
97294.8
97240.6
97186.5
97132.2
97078
97024.9
96973.3
96924
96876.6
96830.2
96785.3
96743.8
96706.8
96675.2
96650.2
96632.7
96623.2
96622
96629.4
96646.2
96672.6
96708.9
96755.4
96812.7
96881.2
96961.5
97054
97158.8
97276
97405.6
97547.8
97702.7
97870.1
98049.9
98241.5
98444.4
98658.2
98881.8
99114.4
99354.9
99602.1
99855.3
100113
100374
100638
100903
101167
101430
101690
101945
102195
102439
102675
102902
103120
103328
103524
103709
103881
104042
104190
104326
104452
104568
104674
104773
104865
104950
105032
105111
105189
105267
105347
105430
105518
105610
105709
105815
105930
106054
106189
106334
106491
106658
106837
107024
107223
107431
107648
107872
108102
108334
108568
108802
109033
109258
109475
109680
109871
110048
110208
110354
110483
110595
110686
110763
110838
110912
110984
111062
111174
111324
111511
111728
111959
112214
112494
112804
113140
113510
113934
114397
114932
115494
116138
116829
117543
118399
119247
120125
121006
121912
122789
123644
124514
125411
126365
127266
128125
129005
129873
130655
131416
132411
133439
134304
135147
135946
136842
137785
138673
139648
140650
141469
142036
142260
141826
140723
140074
139408
138488
137517
136646
135747
97656.8
97655.8
97648.8
97638.3
97624.1
97606.1
97584.2
97557.9
97527.6
97493.1
97454.2
97411.1
97364
97313.9
97261.7
97211.9
97161.4
97110.2
97058.8
97007.6
96957.1
96908.4
96861.4
96815.3
96769.9
96725.8
96684
96645.9
96612.7
96585.6
96565.4
96552.4
96547
96549.6
96560.8
96581
96610.5
96649.8
96699.3
96759.5
96831
96914
97008.8
97115.6
97234.5
97365.7
97509.4
97665.7
97834.5
98015.2
98207.4
98410.6
98623.8
98846.4
99077.5
99315.9
99561
99811.7
100067
100324
100584
100845
101104
101362
101616
101866
102110
102347
102577
102797
103008
103209
103398
103576
103742
103896
104037
104166
104284
104392
104491
104581
104664
104741
104814
104884
104952
105021
105092
105166
105243
105325
105413
105508
105612
105725
105847
105979
106124
106278
106444
106619
106804
106997
107198
107405
107618
107832
108047
108259
108467
108666
108855
109033
109197
109346
109476
109588
109683
109763
109820
109856
109886
109917
109947
109975
110026
110116
110246
110408
110587
110787
111010
111266
111554
111874
112235
112647
113121
113631
114194
114827
115477
116229
117001
117843
118680
119485
120303
121099
121891
122685
123521
124346
125126
125879
126617
127345
127972
128764
129629
130473
131244
131951
132737
133555
134374
135250
136159
136962
137562
137770
137374
136685
136407
135996
135343
134654
133994
133346
97501.5
97499.2
97494.4
97485.2
97472
97455.1
97434.2
97409.4
97380.4
97347.5
97310.5
97269.6
97225.7
97179.9
97133.4
97086.2
97038
96989.1
96940.3
96892.2
96844.8
96798.3
96752.5
96707.7
96664.2
96622.7
96584.5
96551
96523
96501.1
96485.5
96477
96475.7
96482.1
96496.8
96520.2
96552.7
96594.8
96647.2
96710.1
96784
96869.1
96965.6
97073.9
97194.2
97326.7
97471.8
97629.1
97798.4
97979.3
98171.2
98373.5
98585.3
98806.1
99034.9
99271.1
99513.6
99761.3
100013
100267
100523
100778
101033
101285
101533
101777
102014
102244
102466
102679
102883
103076
103257
103427
103585
103732
103865
103987
104097
104197
104287
104369
104443
104511
104574
104634
104693
104751
104812
104875
104942
105014
105090
105173
105264
105364
105474
105592
105722
105863
106014
106175
106344
106522
106705
106894
107088
107283
107477
107668
107852
108025
108185
108334
108468
108587
108686
108765
108822
108865
108890
108891
108878
108863
108853
108836
108829
108854
108922
109027
109152
109300
109468
109666
109902
110175
110483
110846
111263
111724
112239
112791
113389
114053
114742
115493
116272
117013
117761
118489
119205
119919
120634
121367
122069
122712
123339
123985
124572
125169
125834
126596
127305
127951
128646
129364
130110
130880
131679
132440
133027
133169
132942
132757
132731
132545
132138
131715
131260
130861
97357.8
97356.4
97350.9
97341.6
97328.8
97312.6
97292.7
97269.1
97241.8
97210.7
97176
97138.4
97098.6
97056.8
97013.4
96968.9
96923.4
96876.9
96830.1
96783.5
96737.6
96692.4
96648.1
96605.2
96564.8
96527.8
96494.8
96466.6
96443.6
96426.3
96415.1
96410.6
96413.1
96423
96440.7
96466.9
96502.1
96546.8
96601.4
96666.4
96742
96828.4
96926.2
97035.5
97156.7
97290.2
97435.8
97593.3
97762.4
97942.6
98133.3
98334
98544
98762.4
98988.6
99221.8
99460.8
99704.5
99951.7
100201
100452
100703
100952
101198
101439
101676
101906
102129
102343
102548
102744
102928
103101
103263
103413
103550
103676
103790
103892
103984
104065
104137
104202
104261
104316
104366
104414
104461
104510
104562
104617
104676
104741
104812
104890
104976
105072
105177
105291
105416
105551
105696
105849
106010
106175
106345
106517
106691
106863
107032
107192
107341
107474
107594
107697
107783
107850
107896
107917
107919
107909
107877
107826
107767
107715
107659
107601
107562
107564
107611
107683
107779
107897
108042
108226
108452
108706
109021
109380
109792
110262
110759
111292
111891
112528
113171
113843
114541
115233
115875
116500
117152
117769
118396
119015
119568
120101
120636
121188
121641
122189
122826
123441
124037
124636
125290
125953
126612
127300
127989
128530
128687
128735
128920
129078
129077
128933
128724
128529
128368
97230
97228.1
97222.4
97213
97200.7
97185.2
97166.1
97143.4
97117.3
97087.9
97055.6
97021.3
96986.3
96945.6
96904.1
96861.8
96818.3
96773.7
96728.5
96683.2
96638.6
96595.5
96554.3
96515.6
96480
96448
96420
96396.5
96377.8
96364.5
96357.1
96356.1
96361.7
96374.5
96395
96423.7
96461.1
96507.7
96564
96630.2
96706.7
96793.9
96892.2
97001.9
97123.5
97257.1
97402.4
97559.2
97727.2
97905.8
98094.6
98293
98500.2
98715.5
98938
99166.9
99401.2
99640
99882.1
100126
100371
100616
100858
101098
101333
101563
101786
102001
102208
102405
102592
102768
102933
103086
103226
103355
103471
103577
103670
103753
103826
103889
103945
103994
104039
104080
104118
104155
104191
104231
104273
104319
104371
104428
104492
104564
104645
104735
104835
104944
105061
105188
105323
105466
105613
105763
105913
106064
106214
106359
106495
106620
106727
106819
106892
106946
106978
106990
106980
106942
106891
106826
106741
106643
106549
106457
106358
106262
106197
106183
106204
106251
106325
106425
106561
106742
106949
107212
107519
107879
108305
108758
109224
109753
110349
110932
111498
112105
112743
113310
113836
114413
114962
115496
116028
116501
116956
117394
117855
118202
118672
119201
119709
120271
120781
121397
121954
122497
123082
123694
124198
124481
124773
125194
125479
125638
125727
125710
125820
125891
97119.6
97119.9
97114.5
97105.8
97093.8
97078.5
97059.8
97037.6
97012
96983.3
96951.4
96916.6
96879
96843.6
96805.5
96765.6
96724
96681.4
96638.5
96596.4
96555.7
96516.8
96480.1
96446
96414.8
96387
96363
96343.4
96328.4
96318.5
96314.1
96315.9
96324.1
96339.3
96361.9
96392.4
96431.5
96479.4
96536.6
96603.3
96680
96767.2
96865.2
96974.6
97095.5
97228.1
97372.1
97527.1
97692.8
97868.8
98054.6
98249.6
98453
98663.7
98881.5
99105.4
99334.5
99567.9
99804.2
100042
100281
100519
100754
100987
101214
101436
101651
101859
102058
102247
102426
102594
102750
102894
103025
103145
103253
103349
103434
103508
103572
103627
103674
103713
103747
103778
103805
103832
103857
103884
103913
103946
103984
104027
104077
104134
104199
104273
104357
104449
104549
104658
104774
104897
105025
105155
105284
105410
105536
105658
105769
105868
105948
106012
106058
106082
106081
106056
106015
105945
105853
105752
105637
105506
105372
105243
105112
104971
104844
104767
104737
104740
104775
104835
104933
105072
105249
105470
105732
106043
106417
106828
107244
107694
108212
108750
109254
109755
110317
110826
111279
111768
112251
112717
113157
113552
113932
114315
114651
114924
115335
115758
116164
116695
117142
117718
118154
118573
119062
119616
120126
120552
121036
121601
121994
122268
122537
122742
123098
123378
97041.7
97041.3
97036
97027.2
97015.2
96999.8
96980.9
96958.8
96933.5
96905.3
96874.1
96840.4
96804.6
96768
96730.8
96692.3
96652.8
96612.7
96573
96534.6
96497.8
96462.8
96429.9
96399.4
96371.8
96347.3
96326.5
96309.7
96297.5
96290.2
96288.3
96292.2
96302.4
96319.3
96343.4
96375.1
96415
96463.3
96520.5
96586.9
96663
96749.2
96846.1
96954
97073.2
97203.6
97345
97497.1
97659.4
97831.6
98013.1
98203.2
98401.3
98607
98819.5
99037.9
99261.2
99488.4
99718.3
99949.6
100181
100412
100640
100864
101084
101297
101504
101703
101893
102073
102244
102403
102552
102688
102811
102922
103021
103108
103185
103250
103305
103351
103389
103420
103444
103464
103481
103495
103510
103524
103541
103561
103585
103614
103649
103691
103741
103798
103864
103939
104021
104111
104208
104310
104417
104526
104634
104737
104838
104936
105021
105091
105146
105183
105200
105198
105166
105104
105030
104931
104806
104668
104522
104367
104199
104032
103871
103698
103524
103386
103302
103261
103263
103292
103359
103462
103615
103815
104043
104308
104630
104998
105379
105765
106186
106650
107101
107524
108005
108461
108868
109270
109683
110092
110444
110756
111058
111387
111633
111884
112226
112551
112876
113345
113749
114266
114585
114879
115274
115794
116349
116868
117515
118167
118671
119025
119397
119825
120398
120769
96998.5
96997.1
96991.6
96982.4
96970
96954.4
96935.5
96913.4
96888.4
96860.4
96829.8
96796.8
96762
96726.1
96689.1
96651.5
96613.4
96575.6
96538.6
96502.8
96468.6
96436.2
96405.8
96377.8
96352.7
96330.7
96312.1
96297.5
96287.3
96281.8
96281.5
96286.8
96298.2
96316
96340.8
96372.8
96412.6
96460.5
96516.8
96582.1
96656.6
96741
96835.6
96940.9
97057
97183.9
97321.5
97469.4
97627.3
97794.6
97970.9
98155.4
98347.5
98547.3
98753.6
98965.4
99182
99402.3
99624.9
99848.6
100072
100295
100515
100731
100942
101147
101345
101536
101718
101889
102050
102200
102340
102468
102583
102686
102777
102856
102924
102981
103028
103065
103094
103116
103131
103141
103147
103151
103153
103155
103160
103167
103178
103193
103213
103240
103274
103314
103363
103421
103485
103555
103631
103712
103798
103885
103971
104052
104128
104199
104259
104301
104330
104342
104330
104299
104239
104147
104038
103910
103760
103589
103409
103232
103040
102837
102644
102450
102245
102058
101918
101831
101803
101808
101850
101931
102055
102236
102448
102673
102946
103271
103619
103961
104305
104684
105068
105437
105845
106249
106616
106946
107281
107627
107905
108142
108369
108631
108835
109076
109337
109584
109869
110243
110600
111032
111257
111439
111749
112244
112850
113433
114194
114913
115512
115939
116369
116981
117694
118109
96996.7
96994.6
96988.5
96978.8
96965.5
96948.8
96928.9
96905.9
96880.1
96851.8
96821.2
96788.6
96754.1
96718.4
96681.9
96645
96608.3
96571.8
96536.2
96501.9
96469.2
96438.3
96409.5
96383.1
96359.4
96338.8
96321.5
96308.1
96299
96294.4
96294.9
96300.7
96312.4
96330.2
96354.6
96386.1
96424.9
96471.4
96526
96589.1
96661
96742.5
96833.8
96935.3
97047.2
97169.4
97301.9
97444.6
97596.8
97758.3
97928.7
98106.3
98292
98484.7
98683.7
98888.3
99097.4
99309.8
99524.4
99739.9
99954.9
100168
100379
100587
100789
100985
101174
101356
101529
101692
101845
101987
102118
102237
102344
102439
102522
102593
102653
102702
102742
102771
102792
102805
102811
102812
102808
102801
102793
102783
102775
102769
102767
102768
102774
102787
102805
102829
102860
102900
102945
102996
103052
103112
103176
103240
103302
103362
103414
103458
103490
103509
103512
103498
103459
103395
103309
103195
103054
102896
102720
102526
102316
102114
101903
101674
101447
101231
101010
100791
100605
100472
100405
100391
100412
100478
100583
100737
100938
101145
101376
101652
101961
102272
102557
102854
103173
103504
103843
104187
104521
104799
105052
105321
105540
105722
105887
106085
106259
106456
106653
106838
107111
107391
107689
108015
108170
108267
108508
108969
109599
110251
111073
111839
112511
113016
113487
114211
114952
115394
97040
97037.1
97030.4
97019.8
97004.9
96986.4
96964.8
96940.3
96913
96883.3
96851.6
96818
96783
96746.9
96710.1
96673.2
96636.3
96600.7
96565.8
96532.2
96500.2
96469.9
96441.8
96416
96392.8
96372.5
96355.6
96342.5
96333.5
96328.8
96328.9
96334.2
96345.2
96362.1
96385.3
96415.1
96452
96496.1
96548
96608
96676.3
96753.7
96840.6
96937.2
97043.6
97160.1
97286.5
97422.5
97568
97722.1
97884.3
98055.6
98234
98419
98609.9
98806.1
99006.6
99210.1
99415.7
99622.6
99828.8
100033
100234
100432
100625
100812
100991
101164
101328
101483
101628
101762
101884
101996
102095
102183
102258
102321
102374
102416
102448
102470
102483
102489
102487
102479
102467
102450
102432
102411
102391
102374
102358
102346
102338
102336
102339
102347
102361
102382
102409
102440
102477
102516
102558
102599
102637
102674
102703
102723
102727
102721
102701
102660
102597
102502
102386
102252
102088
101901
101701
101488
101254
101023
100790
100542
100288
100048
99816.8
99582.5
99368.1
99196.9
99088.6
99050.3
99053.8
99105.7
99203.1
99332
99515.1
99717.5
99929.9
100159
100420
100697
100941
101171
101433
101728
102008
102281
102572
102812
102997
103183
103350
103497
103613
103755
103892
104024
104170
104301
104552
104758
104994
105212
105326
105362
105559
105973
106574
107311
108157
108942
109640
110229
110742
111509
112166
112577
97132
97128.2
97119.4
97106.6
97090
97069.8
97045.8
97018.7
96988.8
96956.5
96922.3
96886.8
96849.9
96812.3
96774.3
96736.5
96699.1
96662.6
96627.4
96593.7
96561.5
96531.2
96502.9
96476.7
96453.1
96432.4
96414.9
96400.9
96390.8
96385
96383.9
96387.6
96396.7
96411.5
96432.5
96459.7
96493.5
96534.3
96582.4
96638.3
96702.2
96774.5
96855.9
96946.5
97046.5
97156
97275
97403.4
97541.1
97687.5
97842
98004.4
98174.1
98350.2
98532
98719.1
98910.3
99104.4
99299.6
99496.3
99692.8
99887.1
100079
100267
100450
100628
100799
100962
101117
101264
101400
101526
101641
101745
101838
101918
101986
102043
102089
102125
102150
102166
102173
102171
102163
102147
102126
102101
102073
102044
102014
101984
101957
101932
101911
101894
101881
101874
101872
101875
101883
101895
101911
101930
101951
101969
101985
101998
102003
101997
101977
101946
101903
101836
101748
101628
101484
101326
101143
100936
100715
100484
100232
99968.5
99707.7
99439.3
99165.1
98906.2
98664.8
98428.5
98203.4
98011
97869.8
97800.1
97787.4
97821.9
97913.6
98030.3
98192.2
98391.1
98598.1
98795.8
99014
99248.8
99458.8
99642.4
99862.1
100116
100341
100548
100781
100975
101110
101226
101338
101459
101534
101631
101723
101798
101894
101978
102176
102321
102490
102620
102723
102722
102894
103254
103785
104603
105446
106216
106893
107545
108109
108856
109385
109730
97251.7
97246.6
97236.4
97222.6
97203.8
97181.5
97154.8
97124.1
97090.6
97055
97017.3
96978.6
96938.9
96899.1
96859.2
96819.7
96781
96743.3
96706.9
96672.1
96638.9
96607.7
96578.5
96551.5
96526.7
96504.7
96485.8
96470.3
96458.5
96450.8
96447.7
96449.3
96455.8
96467.9
96485.9
96509.9
96540.3
96577.4
96621.5
96672.9
96732
96799.3
96875.4
96959.9
97053.5
97156.2
97268.2
97388.9
97519.1
97657.9
97804.7
97958.8
98120.4
98288.3
98460.8
98638.9
98821.3
99006.5
99192.8
99379.8
99567.1
99752.3
99935
100114
100289
100458
100621
100777
100925
101064
101193
101312
101421
101519
101605
101679
101742
101793
101834
101865
101885
101896
101898
101891
101876
101854
101827
101795
101759
101722
101684
101645
101607
101572
101539
101509
101484
101463
101446
101433
101425
101420
101417
101417
101418
101415
101412
101404
101385
101356
101315
101262
101196
101106
100991
100849
100687
100507
100303
100084
99845
99590.5
99324
99035.4
98742.2
98451.2
98159.7
97887.2
97636.7
97402.2
97179.9
96981.9
96823.9
96727.8
96697
96715.7
96794.1
96904.2
97049.5
97240.5
97437.1
97622.9
97813.3
98004.5
98181.4
98333.9
98522.5
98729.4
98893.4
99053.3
99230.3
99364.1
99458.3
99514.3
99570.1
99659.6
99698.9
99759.3
99806
99832.9
99884.2
99923.2
100060
100147
100222
100291
100403
100385
100528
100835
101294
102144
102958
103678
104315
104969
105582
106249
106639
106936
97364.4
97359.1
97349.8
97336.8
97316
97291.5
97261.9
97227.6
97190.6
97151.3
97110.3
97068.4
97025.9
96983.7
96941.8
96900.4
96860.1
96821
96783.4
96747.4
96713.2
96680.9
96650.7
96622.6
96596.6
96573.3
96552.9
96535.9
96522.3
96512.6
96507.3
96506.7
96511
96520.3
96535.4
96556.4
96583.5
96617.1
96657.5
96704.9
96759.8
96822.6
96893.6
96973
97060.9
97157.7
97263.7
97378.7
97501.8
97633.7
97773.8
97920.3
98074.9
98235.8
98400.9
98570.7
98745
98922.4
99101.1
99280.2