/*--------------------------------*- C++ -*----------------------------------*\
| =========                 |                                                 |
| \\      /  F ield         | OpenFOAM: The Open Source CFD Toolbox           |
|  \\    /   O peration     | Version:  dev                                   |
|   \\  /    A nd           | Web:      http://www.openfoam.org               |
|    \\/     M anipulation  |                                                 |
\*---------------------------------------------------------------------------*/
FoamFile
{
    version     2.0;
    format      ascii;
    class       surfaceScalarField;
    object      phi;
    location    "9.165";
}
// * * * * * * * * * * * * * * * * * * * * * * * * * * * * * * * * * * * * * //

dimensions      [1 0 -1 0 0 0 0];

internalField   nonuniform List<scalar> 
24170
(
2.41184e-06
1.98608e-07
1.70963e-06
-4.32989e-07
1.5431e-06
-9.1421e-07
1.60023e-06
-1.09013e-06
1.75627e-06
-1.13821e-06
2.00243e-06
-1.18492e-06
2.15642e-06
-1.045e-06
2.47299e-06
-1.16908e-06
2.66952e-06
-1.00485e-06
3.05746e-06
-1.16332e-06
3.30465e-06
-9.81264e-07
3.81958e-06
-1.22186e-06
4.12394e-06
-9.7086e-07
5.14218e-06
-1.66593e-06
5.15722e-06
-6.25763e-07
7.53235e-06
-2.95677e-06
1.09245e-05
-3.98109e-06
-6.48084e-06
1.68194e-05
4.20224e-06
-1.13332e-06
3.72808e-06
-1.17492e-06
3.43912e-06
-1.78836e-06
3.31947e-06
-2.08512e-06
3.32009e-06
-2.20044e-06
3.32736e-06
-2.20809e-06
3.46146e-06
-2.14346e-06
3.64171e-06
-2.27435e-06
3.85807e-06
-2.09728e-06
4.17413e-06
-2.32262e-06
4.52324e-06
-2.12672e-06
5.07894e-06
-2.54804e-06
5.5481e-06
-2.16482e-06
6.60276e-06
-3.42404e-06
7.11147e-06
-1.79971e-06
9.53702e-06
-6.01196e-06
1.09023e-05
-5.99423e-06
-9.07301e-06
1.2828e-05
4.89875e-06
-3.02611e-06
5.05251e-06
-2.66323e-06
5.12986e-06
-3.13917e-06
5.14315e-06
-3.31906e-06
5.14644e-06
-3.36458e-06
5.1705e-06
-3.34105e-06
5.24887e-06
-3.27628e-06
5.40169e-06
-3.43464e-06
5.56144e-06
-3.21693e-06
6.0654e-06
-3.74406e-06
6.17521e-06
-3.11267e-06
7.07158e-06
-4.28095e-06
7.05416e-06
-2.95123e-06
8.08484e-06
-5.21767e-06
8.21995e-06
-2.66981e-06
9.39111e-06
-7.87981e-06
1.03324e-05
-7.63852e-06
-1.31833e-05
1.37355e-05
5.22823e-06
-4.86289e-06
6.0106e-06
-4.90336e-06
6.28453e-06
-4.80739e-06
6.66804e-06
-5.03263e-06
6.69061e-06
-4.65798e-06
7.1463e-06
-5.00132e-06
7.06938e-06
-4.35142e-06
7.62816e-06
-5.08387e-06
7.48259e-06
-4.11768e-06
8.13731e-06
-5.38948e-06
7.94237e-06
-3.87126e-06
8.64056e-06
-5.88229e-06
8.51137e-06
-3.69325e-06
9.37734e-06
-6.91101e-06
9.6021e-06
-3.68895e-06
1.04157e-05
-9.44886e-06
1.02704e-05
-8.23389e-06
-1.72654e-05
1.3586e-05
5.57431e-06
-6.59229e-06
6.7408e-06
-7.64741e-06
6.84215e-06
-6.42807e-06
7.57469e-06
-7.20439e-06
7.45648e-06
-5.92409e-06
8.23571e-06
-7.08613e-06
8.10655e-06
-5.47567e-06
8.81271e-06
-6.97433e-06
8.63262e-06
-5.07374e-06
9.32221e-06
-7.15449e-06
9.16696e-06
-4.74825e-06
9.76023e-06
-7.45575e-06
9.74337e-06
-4.61751e-06
1.05331e-05
-8.59886e-06
1.10173e-05
-5.03522e-06
1.14659e-05
-1.07145e-05
1.02573e-05
-7.79755e-06
-1.85335e-05
1.07191e-05
6.02342e-06
-8.39107e-06
7.05785e-06
-1.03808e-05
7.14697e-06
-8.16044e-06
7.96309e-06
-9.57028e-06
7.83877e-06
-7.29362e-06
8.63006e-06
-9.28296e-06
8.58161e-06
-6.77716e-06
9.23624e-06
-8.90612e-06
9.21938e-06
-6.28331e-06
9.96283e-06
-9.05906e-06
1.01231e-05
-6.02203e-06
1.07039e-05
-9.09491e-06
1.10212e-05
-5.94954e-06
1.15608e-05
-1.01062e-05
1.22527e-05
-6.65851e-06
1.22371e-05
-1.15878e-05
1.20153e-05
-8.41773e-06
-1.64897e-05
9.15097e-06
6.89782e-06
-1.03883e-05
7.75374e-06
-1.30535e-05
7.83296e-06
-9.99827e-06
8.61244e-06
-1.20078e-05
8.64708e-06
-8.92597e-06
9.39008e-06
-1.15302e-05
9.42614e-06
-8.25339e-06
1.00496e-05
-1.08926e-05
1.01768e-05
-7.71868e-06
1.08005e-05
-1.09222e-05
1.12581e-05
-7.668e-06
1.16956e-05
-1.06634e-05
1.23801e-05
-7.71847e-06
1.25336e-05
-1.12922e-05
1.3248e-05
-8.36639e-06
1.27647e-05
-1.20563e-05
1.31131e-05
-9.68287e-06
-1.44005e-05
1.01597e-05
5.46179e-06
-1.19805e-05
6.03553e-06
-1.49994e-05
6.12332e-06
-1.14121e-05
6.67357e-06
-1.38096e-05
6.80811e-06
-1.02642e-05
7.29414e-06
-1.31533e-05
7.43428e-06
-9.47931e-06
7.79385e-06
-1.22805e-05
8.11371e-06
-9.0226e-06
8.34853e-06
-1.20909e-05
8.76577e-06
-8.97801e-06
8.96192e-06
-1.17114e-05
9.49258e-06
-9.0641e-06
9.39684e-06
-1.19731e-05
9.89933e-06
-9.61381e-06
9.5018e-06
-1.23716e-05
9.78687e-06
-1.06525e-05
-1.34144e-05
8.14521e-06
6.22945e-06
-1.386e-05
6.94187e-06
-1.72498e-05
7.17832e-06
-1.31346e-05
7.69669e-06
-1.57335e-05
7.95475e-06
-1.18717e-05
8.31051e-06
-1.47861e-05
8.67581e-06
-1.10612e-05
9.00933e-06
-1.37676e-05
9.52652e-06
-1.06395e-05
9.69054e-06
-1.3301e-05
1.01915e-05
-1.0475e-05
1.03342e-05
-1.28059e-05
1.08974e-05
-1.05359e-05
1.07402e-05
-1.26845e-05
1.12363e-05
-1.0938e-05
1.08499e-05
-1.27794e-05
1.10852e-05
-1.16446e-05
-1.29386e-05
9.88175e-06
7.4121e-06
-1.61287e-05
7.97588e-06
-1.95143e-05
8.333e-06
-1.51277e-05
8.7281e-06
-1.76798e-05
9.23696e-06
-1.38644e-05
9.56671e-06
-1.65238e-05
1.02007e-05
-1.30325e-05
1.0459e-05
-1.5297e-05
1.1093e-05
-1.24805e-05
1.11865e-05
-1.45447e-05
1.17387e-05
-1.21198e-05
1.18123e-05
-1.39237e-05
1.23905e-05
-1.21091e-05
1.2275e-05
-1.35221e-05
1.27013e-05
-1.22724e-05
1.23763e-05
-1.33253e-05
1.25629e-05
-1.26605e-05
-1.30052e-05
1.18349e-05
8.77364e-06
-1.87588e-05
9.21024e-06
-2.17967e-05
9.86134e-06
-1.75396e-05
1.01846e-05
-1.96805e-05
1.09628e-05
-1.62358e-05
1.11908e-05
-1.82673e-05
1.19674e-05
-1.52444e-05
1.21388e-05
-1.68364e-05
1.28398e-05
-1.44751e-05
1.28895e-05
-1.58299e-05
1.35118e-05
-1.39123e-05
1.35174e-05
-1.5049e-05
1.40744e-05
-1.37302e-05
1.40042e-05
-1.44708e-05
1.43505e-05
-1.35887e-05
1.41138e-05
-1.4019e-05
1.42156e-05
-1.365e-05
-1.34694e-05
1.38309e-05
1.03252e-05
-2.1348e-05
1.06157e-05
-2.40235e-05
1.15464e-05
-2.02984e-05
1.17561e-05
-2.16426e-05
1.26782e-05
-1.88109e-05
1.28346e-05
-1.99997e-05
1.37447e-05
-1.76395e-05
1.39206e-05
-1.84322e-05
1.47232e-05
-1.66145e-05
1.48119e-05
-1.71967e-05
1.54851e-05
-1.57942e-05
1.55065e-05
-1.62269e-05
1.59798e-05
-1.53017e-05
1.59461e-05
-1.54886e-05
1.62686e-05
-1.49109e-05
1.61191e-05
-1.48261e-05
1.60734e-05
-1.45186e-05
-1.41481e-05
1.58771e-05
1.1844e-05
-2.40944e-05
1.22941e-05
-2.63965e-05
1.35046e-05
-2.33087e-05
1.37745e-05
-2.36457e-05
1.47912e-05
-2.14505e-05
1.49868e-05
-2.17481e-05
1.5906e-05
-2.0012e-05
1.61336e-05
-2.00528e-05
1.69296e-05
-1.87196e-05
1.71011e-05
-1.86184e-05
1.7735e-05
-1.76117e-05
1.78246e-05
-1.74477e-05
1.81921e-05
-1.67436e-05
1.81928e-05
-1.65171e-05
1.8397e-05
-1.60932e-05
1.83437e-05
-1.57075e-05
1.82525e-05
-1.53216e-05
-1.48783e-05
1.81271e-05
1.38884e-05
-2.68463e-05
1.43833e-05
-2.86313e-05
1.56615e-05
-2.62046e-05
1.6136e-05
-2.56755e-05
1.72265e-05
-2.39949e-05
1.75842e-05
-2.34958e-05
1.84504e-05
-2.21772e-05
1.87398e-05
-2.15855e-05
1.93926e-05
-2.05448e-05
1.96389e-05
-1.99795e-05
2.0146e-05
-1.91773e-05
2.03662e-05
-1.86774e-05
2.07206e-05
-1.80604e-05
2.08758e-05
-1.75917e-05
2.09857e-05
-1.70785e-05
2.10246e-05
-1.65827e-05
2.09556e-05
-1.60541e-05
-1.54939e-05
2.08025e-05
1.63379e-05
-2.97991e-05
1.70625e-05
-3.06525e-05
1.82353e-05
-2.85699e-05
1.88786e-05
-2.74562e-05
1.98903e-05
-2.60711e-05
2.04678e-05
-2.50853e-05
2.12929e-05
-2.39493e-05
2.17999e-05
-2.29966e-05
2.24355e-05
-2.20386e-05
2.2848e-05
-2.12099e-05
2.33023e-05
-2.04128e-05
2.35966e-05
-1.97186e-05
2.38611e-05
-1.90386e-05
2.39991e-05
-1.84153e-05
2.40537e-05
-1.77906e-05
2.40227e-05
-1.7179e-05
2.39335e-05
-1.65672e-05
-1.59442e-05
2.38036e-05
1.95343e-05
-3.09905e-05
2.00968e-05
-3.16756e-05
2.1007e-05
-2.98787e-05
2.178e-05
-2.86038e-05
2.26969e-05
-2.73357e-05
2.3492e-05
-2.62099e-05
2.43451e-05
-2.51115e-05
2.51083e-05
-2.40572e-05
2.58144e-05
-2.30351e-05
2.63897e-05
-2.20702e-05
2.68453e-05
-2.11487e-05
2.71501e-05
-2.03034e-05
2.73503e-05
-1.95158e-05
2.74352e-05
-1.87728e-05
2.74394e-05
-1.8065e-05
2.73934e-05
-1.7398e-05
2.73141e-05
-1.67484e-05
-1.60655e-05
2.71801e-05
2.16869e-05
-3.14496e-05
2.29101e-05
-3.19692e-05
2.41704e-05
-3.02224e-05
2.53707e-05
-2.89332e-05
2.65349e-05
-2.76748e-05
2.75526e-05
-2.64548e-05
2.84596e-05
-2.53002e-05
2.92611e-05
-2.4191e-05
2.99568e-05
-2.31169e-05
3.05497e-05
-2.21039e-05
3.10278e-05
-2.11174e-05
3.13868e-05
-2.02013e-05
3.16382e-05
-1.93497e-05
3.17747e-05
-1.85329e-05
3.18239e-05
-1.77756e-05
3.17841e-05
-1.70518e-05
3.16754e-05
-1.63643e-05
-1.56791e-05
3.1539e-05
2.19535e-05
-2.99434e-05
2.32045e-05
-3.07058e-05
2.45374e-05
-2.91416e-05
2.58004e-05
-2.79216e-05
2.69587e-05
-2.66963e-05
2.79577e-05
-2.54505e-05
2.88147e-05
-2.42953e-05
2.95659e-05
-2.32104e-05
3.02253e-05
-2.21693e-05
3.07994e-05
-2.11926e-05
3.12647e-05
-2.02053e-05
3.16114e-05
-1.92768e-05
3.18293e-05
-1.83903e-05
3.19344e-05
-1.75464e-05
3.19526e-05
-1.67837e-05
3.189e-05
-1.60469e-05
3.17795e-05
-1.53829e-05
-1.47281e-05
3.16406e-05
1.95459e-05
-2.80697e-05
2.11212e-05
-2.88189e-05
2.25634e-05
-2.72658e-05
2.37463e-05
-2.59826e-05
2.47152e-05
-2.47405e-05
2.55406e-05
-2.35363e-05
2.62627e-05
-2.24676e-05
2.68876e-05
-2.1462e-05
2.74396e-05
-2.05157e-05
2.78972e-05
-1.96075e-05
2.82622e-05
-1.86699e-05
2.85357e-05
-1.77903e-05
2.87017e-05
-1.69196e-05
2.87868e-05
-1.61067e-05
2.87904e-05
-1.53704e-05
2.87406e-05
-1.46697e-05
2.86525e-05
-1.40586e-05
-1.34463e-05
2.85312e-05
1.80198e-05
-2.52988e-05
1.90996e-05
-2.5938e-05
2.01998e-05
-2.45761e-05
2.12538e-05
-2.34719e-05
2.22019e-05
-2.23506e-05
2.30161e-05
-2.12267e-05
2.36899e-05
-2.02325e-05
2.42149e-05
-1.92755e-05
2.46404e-05
-1.84175e-05
2.49646e-05
-1.75925e-05
2.52327e-05
-1.67589e-05
2.5445e-05
-1.59804e-05
2.56008e-05
-1.51927e-05
2.57189e-05
-1.44663e-05
2.5766e-05
-1.37799e-05
2.57743e-05
-1.31392e-05
2.57266e-05
-1.25744e-05
-1.20154e-05
2.5645e-05
1.59635e-05
-2.22634e-05
1.69665e-05
-2.2796e-05
1.8018e-05
-2.16682e-05
1.90153e-05
-2.07456e-05
1.99178e-05
-1.97689e-05
2.07151e-05
-1.87619e-05
2.13564e-05
-1.78332e-05
2.18825e-05
-1.69706e-05
2.23127e-05
-1.62047e-05
2.26348e-05
-1.54611e-05
2.29099e-05
-1.47467e-05
2.30988e-05
-1.40401e-05
2.32405e-05
-1.33547e-05
2.33286e-05
-1.27008e-05
2.33577e-05
-1.20832e-05
2.33572e-05
-1.15173e-05
2.32918e-05
-1.09892e-05
-1.04976e-05
2.32005e-05
1.44761e-05
-1.88717e-05
1.53855e-05
-1.96042e-05
1.63331e-05
-1.86995e-05
1.71457e-05
-1.7868e-05
1.78497e-05
-1.70178e-05
1.84927e-05
-1.61731e-05
1.90608e-05
-1.53795e-05
1.95679e-05
-1.46653e-05
1.99935e-05
-1.4004e-05
2.03227e-05
-1.33462e-05
2.05726e-05
-1.27209e-05
2.07313e-05
-1.20736e-05
2.08308e-05
-1.14764e-05
2.08761e-05
-1.08938e-05
2.08819e-05
-1.03582e-05
2.08572e-05
-9.87075e-06
2.08031e-05
-9.4111e-06
-8.99211e-06
2.0726e-05
1.28881e-05
-1.59832e-05
1.38019e-05
-1.65918e-05
1.46631e-05
-1.58093e-05
1.54177e-05
-1.50909e-05
1.60892e-05
-1.43741e-05
1.66764e-05
-1.36569e-05
1.71919e-05
-1.29937e-05
1.76271e-05
-1.23932e-05
1.79807e-05
-1.18321e-05
1.82651e-05
-1.12761e-05
1.84775e-05
-1.07387e-05
1.86348e-05
-1.0184e-05
1.87368e-05
-9.66628e-06
1.87974e-05
-9.16865e-06
1.88257e-05
-8.71236e-06
1.88186e-05
-8.29564e-06
1.87931e-05
-7.91211e-06
-7.5504e-06
1.87367e-05
1.14183e-05
-1.32122e-05
1.22938e-05
-1.37912e-05
1.31625e-05
-1.31624e-05
1.39457e-05
-1.2563e-05
1.46306e-05
-1.19518e-05
1.52122e-05
-1.13281e-05
1.56868e-05
-1.0745e-05
1.60454e-05
-1.02074e-05
1.6307e-05
-9.71707e-06
1.64918e-05
-9.24452e-06
1.66281e-05
-8.80613e-06
1.6738e-05
-8.36513e-06
1.68257e-05
-7.95086e-06
1.69001e-05
-7.55776e-06
1.69545e-05
-7.18794e-06
1.69859e-05
-6.84541e-06
1.69888e-05
-6.52497e-06
-6.21221e-06
1.69596e-05
1.02913e-05
-1.07635e-05
1.10502e-05
-1.11633e-05
1.17736e-05
-1.06436e-05
1.2424e-05
-1.01566e-05
1.3016e-05
-9.67339e-06
1.35436e-05
-9.16751e-06
1.40001e-05
-8.68723e-06
1.43753e-05
-8.23323e-06
1.46617e-05
-7.80787e-06
1.48666e-05
-7.39935e-06
1.50053e-05
-7.02918e-06
1.50984e-05
-6.66961e-06
1.51578e-05
-6.33814e-06
1.51993e-05
-6.03468e-06
1.52237e-05
-5.74739e-06
1.52312e-05
-5.47794e-06
1.52143e-05
-5.21768e-06
-4.95454e-06
1.51706e-05
9.15736e-06
-8.44886e-06
1.00489e-05
-8.96925e-06
1.0809e-05
-8.44846e-06
1.14032e-05
-7.96196e-06
1.18828e-05
-7.53134e-06
1.22917e-05
-7.1193e-06
1.26515e-05
-6.74876e-06
1.2968e-05
-6.40263e-06
1.32309e-05
-6.06621e-06
1.3437e-05
-5.73376e-06
1.35789e-05
-5.42303e-06
1.36656e-05
-5.12229e-06
1.37018e-05
-4.84612e-06
1.37023e-05
-4.60408e-06
1.36789e-05
-4.38275e-06
1.3633e-05
-4.17361e-06
1.35717e-05
-3.97418e-06
-3.77029e-06
1.3499e-05
8.1283e-06
-6.32866e-06
8.97073e-06
-7.02263e-06
9.70264e-06
-6.50963e-06
1.0273e-05
-6.01128e-06
1.06892e-05
-5.57657e-06
1.09993e-05
-5.20555e-06
1.12382e-05
-4.90642e-06
1.1423e-05
-4.64218e-06
1.15652e-05
-4.39209e-06
1.16582e-05
-4.13119e-06
1.17145e-05
-3.8961e-06
1.17422e-05
-3.67059e-06
1.17433e-05
-3.46357e-06
1.17208e-05
-3.28587e-06
1.16785e-05
-3.12556e-06
1.16145e-05
-2.96929e-06
1.15356e-05
-2.8237e-06
-2.67267e-06
1.14461e-05
7.49503e-06
-4.52671e-06
8.10607e-06
-5.12613e-06
8.56205e-06
-4.56342e-06
8.8798e-06
-4.06192e-06
9.08445e-06
-3.6491e-06
9.20548e-06
-3.32637e-06
9.2585e-06
-3.08642e-06
9.25844e-06
-2.89041e-06
9.22688e-06
-2.72364e-06
9.18239e-06
-2.55785e-06
9.13047e-06
-2.41612e-06
9.07995e-06
-2.28547e-06
9.0157e-06
-2.15088e-06
8.93904e-06
-2.04005e-06
8.85012e-06
-1.94044e-06
8.75446e-06
-1.84455e-06
8.65488e-06
-1.757e-06
-1.66505e-06
8.55731e-06
6.62203e-06
-3.02483e-06
6.66664e-06
-2.92972e-06
6.5711e-06
-2.31907e-06
6.45397e-06
-1.91498e-06
6.35479e-06
-1.63955e-06
6.2873e-06
-1.46558e-06
6.23449e-06
-1.35374e-06
6.18809e-06
-1.27277e-06
6.14186e-06
-1.20916e-06
6.09871e-06
-1.14323e-06
6.0512e-06
-1.08745e-06
5.99354e-06
-1.03041e-06
5.94684e-06
-9.84064e-07
5.88735e-06
-9.31634e-07
5.82009e-06
-8.89854e-07
5.74861e-06
-8.50139e-07
5.67761e-06
-8.18729e-07
-7.86514e-07
5.61536e-06
4.4931e-06
3.56897e-06
3.16425e-06
3.05612e-06
3.11608e-06
3.24463e-06
3.38299e-06
3.50485e-06
3.59825e-06
3.67135e-06
3.71998e-06
3.75137e-06
3.76063e-06
3.75919e-06
3.74145e-06
3.70992e-06
3.66064e-06
3.59884e-06
-5.28528e-07
1.13299e-06
-1.13283e-06
1.2291e-06
-1.64585e-06
1.14624e-06
-1.93496e-06
9.18629e-07
-1.93272e-06
6.24403e-07
-1.60442e-06
2.98062e-07
-9.9512e-07
1.64484e-08
-2.26172e-07
-1.4296e-07
6.39884e-07
-2.4022e-07
1.55694e-06
-2.91943e-07
2.45768e-06
-2.75747e-07
3.27617e-06
-1.95534e-07
4.0223e-06
-1.2532e-07
4.70138e-06
-5.94699e-08
5.24349e-06
7.32904e-08
5.66417e-06
1.90434e-07
6.00323e-06
2.68125e-07
6.15613e-06
4.45766e-07
6.22928e-06
5.17201e-07
6.18298e-06
6.30335e-07
5.93888e-06
8.1776e-07
5.62545e-06
8.76632e-07
5.16796e-06
1.00882e-06
4.57136e-06
1.1353e-06
3.89404e-06
1.20015e-06
3.05147e-06
1.34779e-06
2.09555e-06
1.44438e-06
1.09875e-06
1.46642e-06
5.08287e-08
1.50414e-06
-9.47568e-07
1.43603e-06
-1.81105e-06
1.27634e-06
-2.5143e-06
1.09015e-06
-3.10357e-06
9.44783e-07
-3.63077e-06
8.5371e-07
-4.01578e-06
6.86594e-07
-4.27658e-06
5.40381e-07
-4.49382e-06
4.7719e-07
-4.72872e-06
4.74344e-07
-4.97967e-06
4.64515e-07
-5.27016e-06
4.6028e-07
-5.66282e-06
5.07978e-07
-6.09713e-06
4.99704e-07
-5.79673e-06
-2.37765e-07
-5.0072e-06
-7.01374e-07
-4.41994e-06
-4.93886e-07
-4.19333e-06
-1.72084e-07
-4.18174e-06
5.76299e-10
-4.39579e-06
2.07538e-07
-5.16666e-06
7.56773e-07
-6.55817e-06
1.36496e-06
-8.2493e-06
1.63602e-06
-9.94528e-06
1.61521e-06
-1.15087e-05
1.46512e-06
-1.28981e-05
1.2778e-06
-1.41016e-05
1.07988e-06
-1.51122e-05
8.75406e-07
-1.59416e-05
6.83162e-07
-1.66031e-05
5.04626e-07
-1.71004e-05
3.29952e-07
-1.74384e-05
1.59991e-07
-1.76426e-05
1.52472e-08
-1.77045e-05
-1.38879e-07
-1.76363e-05
-2.81893e-07
-1.74416e-05
-4.22791e-07
-1.71246e-05
-5.61279e-07
-1.66958e-05
-6.91513e-07
-1.61459e-05
-8.33271e-07
-1.54918e-05
-9.60848e-07
-1.47441e-05
-1.08089e-06
-1.39017e-05
-1.2054e-06
-1.29768e-05
-1.32141e-06
-1.19636e-05
-1.44694e-06
-1.08443e-05
-1.59429e-06
-9.67904e-06
-1.68513e-06
-8.54503e-06
-1.7031e-06
-7.42045e-06
-1.74737e-06
-6.27386e-06
-1.82781e-06
-5.09118e-06
-1.927e-06
-3.92296e-06
-1.98009e-06
-2.70828e-06
-2.09776e-06
-1.59954e-06
-2.06771e-06
-5.12032e-07
-2.12372e-06
6.33163e-07
-2.26353e-06
1.63777e-06
-2.21152e-06
2.64726e-06
-2.3057e-06
3.59502e-06
-2.33857e-06
4.51385e-06
-2.40642e-06
5.4053e-06
-2.47924e-06
6.18632e-06
-2.47312e-06
6.91351e-06
-2.52417e-06
7.54866e-06
-2.54039e-06
8.1152e-06
-2.58145e-06
8.63501e-06
-2.64599e-06
9.07873e-06
-2.68123e-06
9.50602e-06
-2.77729e-06
9.88335e-06
-2.84242e-06
1.02011e-05
-2.89842e-06
1.04703e-05
-2.96665e-06
1.07236e-05
-3.07608e-06
1.09391e-05
-3.17078e-06
1.10941e-05
-3.24679e-06
1.11775e-05
-3.32218e-06
1.1218e-05
-3.43124e-06
1.12349e-05
-3.55502e-06
1.12182e-05
-3.67271e-06
1.11458e-05
-3.77404e-06
1.10579e-05
-3.91751e-06
1.09318e-05
-4.04501e-06
1.06864e-05
-4.10149e-06
1.02697e-05
-4.10316e-06
9.7658e-06
-4.18469e-06
9.17564e-06
-4.26837e-06
8.53268e-06
-4.37858e-06
7.82463e-06
-4.46858e-06
7.16478e-06
-4.64697e-06
6.62e-06
-4.88229e-06
6.20365e-06
-5.11143e-06
5.91699e-06
-5.32002e-06
5.55984e-06
-5.33399e-06
5.15249e-06
-5.35111e-06
4.99889e-06
-5.64184e-06
5.2376e-06
-6.02216e-06
5.68696e-06
-6.20084e-06
5.8025e-06
-5.88133e-06
5.41111e-06
-5.41535e-06
4.75167e-06
-5.20775e-06
3.63037e-06
-4.81873e-06
2.10182e-06
-4.40337e-06
5.80036e-07
-4.30614e-06
-9.53187e-07
-4.06747e-06
-2.45378e-06
-3.77036e-06
-4.20745e-06
-3.1966e-06
-6.13946e-06
-2.61784e-06
-8.46077e-06
-1.76333e-06
-1.13497e-05
-6.92967e-07
-1.44007e-05
-2.66956e-08
-1.72876e-05
3.60775e-07
-1.96404e-05
3.93564e-07
-2.13684e-05
2.87048e-07
-2.25061e-05
3.01733e-07
-2.32443e-05
6.94237e-07
-2.28466e-05
2.57996e-07
-1.86334e-05
-3.31474e-06
-1.92781e-05
1.94952e-06
-1.9629e-05
2.50993e-06
-1.72774e-05
4.02335e-07
-1.31278e-05
-8.5018e-07
-1.16177e-05
2.28467e-06
-1.0167e-05
2.87255e-06
-7.01767e-06
1.59993e-06
-5.24179e-06
3.38836e-06
-4.06043e-06
4.43101e-06
-2.1672e-06
4.16368e-06
-8.48753e-07
5.19006e-06
1.29123e-07
5.98359e-06
1.77094e-06
5.75534e-06
2.57678e-06
7.01542e-06
3.95051e-06
6.87825e-06
5.61174e-06
6.93056e-06
6.65328e-06
7.8186e-06
8.47798e-06
7.14875e-06
8.84233e-06
8.4901e-06
1.20861e-05
5.25809e-06
1.72889e-05
3.11378e-06
1.81406e-05
7.48886e-06
1.98025e-05
6.58519e-06
2.63209e-05
7.43516e-07
2.97408e-05
2.61393e-06
2.973e-05
5.31852e-06
2.8427e-05
5.65511e-06
2.67925e-05
3.30935e-06
2.45454e-05
1.25042e-06
1.69429e-05
5.91425e-06
4.56513e-06
1.00492e-05
8.34418e-06
-9.21466e-06
1.43864e-05
-1.28647e-05
1.25799e-05
-5.67062e-06
1.83665e-05
-1.47721e-05
1.66779e-05
-9.18748e-06
-8.36115e-06
1.33426e-05
-4.5307e-08
1.75325e-06
-2.45596e-07
2.02292e-06
-4.71653e-07
1.97575e-06
-5.75741e-07
1.62117e-06
-3.75835e-07
1.01796e-06
1.11271e-07
4.03594e-07
7.70427e-07
-5.01954e-08
1.56134e-06
-3.41689e-07
2.38673e-06
-4.73979e-07
3.2085e-06
-5.23846e-07
3.98833e-06
-4.66439e-07
4.68651e-06
-3.0561e-07
5.39588e-06
-2.48319e-07
5.9739e-06
-5.17633e-08
6.4729e-06
1.52918e-07
6.96233e-06
2.80934e-07
7.24015e-06
5.69225e-07
7.49462e-06
7.51144e-07
7.62203e-06
9.45306e-07
7.5955e-06
1.21073e-06
7.557e-06
1.39146e-06
7.31672e-06
1.63875e-06
7.05444e-06
1.802e-06
6.72937e-06
1.96566e-06
6.26214e-06
2.15862e-06
5.78281e-06
2.33349e-06
5.20899e-06
2.47604e-06
4.41065e-06
2.70887e-06
3.59385e-06
2.76853e-06
2.67271e-06
2.74715e-06
1.616e-06
2.71e-06
6.50577e-07
2.43385e-06
-1.9676e-07
2.14108e-06
-1.04655e-06
2.00928e-06
-1.91438e-06
1.81915e-06
-2.4736e-06
1.36041e-06
-2.60011e-06
8.6894e-07
-2.7522e-06
8.47374e-07
-3.32287e-06
1.1908e-06
-3.85226e-06
1.14699e-06
-3.33626e-06
1.92984e-07
-2.48159e-06
-2.36854e-07
-2.62171e-06
-7.20664e-08
-3.50931e-06
2.46545e-07
-5.00191e-06
1.14185e-06
-7.22934e-06
2.16713e-06
-9.83142e-06
2.62472e-06
-1.23333e-05
2.67863e-06
-1.43812e-05
2.75438e-06
-1.59009e-05
2.81976e-06
-1.71555e-05
2.81117e-06
-1.82627e-05
2.62935e-06
-1.92505e-05
2.34766e-06
-2.01004e-05
2.01099e-06
-2.08016e-05
1.65356e-06
-2.1357e-05
1.29387e-06
-2.17625e-05
9.42894e-07
-2.20177e-05
6.05722e-07
-2.21412e-05
2.91023e-07
-2.2139e-05
-1.31183e-08
-2.20026e-05
-3.01171e-07
-2.17489e-05
-5.83166e-07
-2.13854e-05
-8.47283e-07
-2.09114e-05
-1.1115e-06
-2.03223e-05
-1.3798e-06
-1.96246e-05
-1.63494e-06
-1.88297e-05
-1.89281e-06
-1.79242e-05
-2.15213e-06
-1.6935e-05
-2.38032e-06
-1.58884e-05
-2.59029e-06
-1.47667e-05
-2.81296e-06
-1.35575e-05
-3.06167e-06
-1.226e-05
-3.33755e-06
-1.09513e-05
-3.48294e-06
-9.65096e-06
-3.5384e-06
-8.37261e-06
-3.61083e-06
-7.06159e-06
-3.78006e-06
-5.76604e-06
-3.92507e-06
-4.49076e-06
-4.02264e-06
-3.22451e-06
-4.19731e-06
-1.99301e-06
-4.20508e-06
-7.50549e-07
-4.34157e-06
4.79359e-07
-4.54668e-06
1.59428e-06
-4.46312e-06
2.737e-06
-4.66716e-06
3.79532e-06
-4.70565e-06
4.82759e-06
-4.83978e-06
5.83452e-06
-4.97926e-06
6.77837e-06
-5.01668e-06
7.65934e-06
-5.10806e-06
8.42405e-06
-5.11899e-06
9.10993e-06
-5.19698e-06
9.72394e-06
-5.30955e-06
1.02723e-05
-5.39988e-06
1.07638e-05
-5.55235e-06
1.12257e-05
-5.71236e-06
1.16384e-05
-5.84259e-06
1.20319e-05
-5.98028e-06
1.24083e-05
-6.16024e-06
1.27687e-05
-6.35257e-06
1.30445e-05
-6.45948e-06
1.31596e-05
-6.51237e-06
1.31369e-05
-6.6506e-06
1.30661e-05
-6.87699e-06
1.29518e-05
-7.10296e-06
1.27658e-05
-7.31485e-06
1.25535e-05
-7.60325e-06
1.23319e-05
-7.88019e-06
1.20554e-05
-8.05332e-06
1.16444e-05
-8.13552e-06
1.12485e-05
-8.41683e-06
1.08226e-05
-8.68773e-06
1.03624e-05
-8.97706e-06
9.82067e-06
-9.18137e-06
9.21653e-06
-9.38732e-06
8.72821e-06
-9.71603e-06
8.43212e-06
-1.00983e-05
8.2159e-06
-1.03469e-05
8.09825e-06
-1.05191e-05
7.8663e-06
-1.05682e-05
7.41491e-06
-1.07067e-05
7.24599e-06
-1.12165e-05
7.73363e-06
-1.18103e-05
8.44043e-06
-1.16562e-05
8.77146e-06
-1.09221e-05
8.90055e-06
-1.06219e-05
8.63097e-06
-1.0074e-05
7.65598e-06
-9.24644e-06
5.84078e-06
-8.42331e-06
3.51083e-06
-7.47014e-06
1.03904e-06
-6.60867e-06
-1.86319e-06
-5.20713e-06
-5.48641e-06
-3.45463e-06
-9.30671e-06
-1.8696e-06
-1.32053e-05
-2.15901e-07
-1.6704e-05
5.43685e-07
-1.96417e-05
9.68977e-07
-2.14813e-05
3.89767e-07
-2.26908e-05
7.94509e-08
-2.37159e-05
6.08114e-07
-2.35138e-05
8.02497e-07
-2.3184e-05
9.56487e-07
-1.95057e-05
-6.44469e-06
-1.90034e-05
2.42141e-06
-1.97128e-05
5.58186e-06
-1.71274e-05
6.12438e-07
-1.11971e-05
-3.68231e-06
-8.35557e-06
3.07499e-06
-6.28682e-06
5.12295e-06
-2.41973e-06
2.29658e-06
6.49282e-07
5.31574e-06
2.54945e-06
8.03151e-06
5.46604e-06
7.20908e-06
7.47227e-06
9.70828e-06
8.67689e-06
1.18507e-05
1.01164e-05
1.19742e-05
1.01693e-05
1.52356e-05
1.08873e-05
1.48926e-05
1.19621e-05
1.51552e-05
1.27019e-05
1.69259e-05
1.44783e-05
1.53638e-05
1.29734e-05
1.9035e-05
1.55306e-05
1.06568e-05
2.25401e-05
4.77907e-06
2.37105e-05
1.61373e-05
2.55232e-05
1.42491e-05
3.40514e-05
4.39171e-07
3.84098e-05
5.44524e-06
3.77542e-05
1.34349e-05
3.58473e-05
1.45317e-05
3.16651e-05
9.37474e-06
2.39408e-05
7.52302e-06
1.18987e-05
1.71199e-05
2.09081e-06
1.79526e-05
6.87236e-06
-1.95524e-05
1.13529e-05
-2.38794e-05
1.34914e-05
-1.55129e-05
2.08526e-05
-3.04638e-05
2.16661e-05
-2.06582e-05
-1.95929e-05
2.06256e-05
1.33245e-07
2.14037e-06
2.05923e-07
2.47297e-06
3.18099e-07
2.38701e-06
6.6114e-07
1.80337e-06
1.2319e-06
9.76509e-07
1.91432e-06
2.55791e-07
2.64177e-06
-2.40373e-07
3.32845e-06
-4.90997e-07
3.96507e-06
-5.73588e-07
4.50829e-06
-5.30324e-07
5.0103e-06
-4.36658e-07
5.4992e-06
-2.60501e-07
5.90774e-06
-1.19413e-07
6.29455e-06
7.47126e-08
6.62942e-06
3.46081e-07
6.98316e-06
4.62317e-07
7.16796e-06
8.9662e-07
7.33084e-06
1.09603e-06
7.43299e-06
1.34655e-06
7.31333e-06
1.82155e-06
7.26683e-06
1.91559e-06
7.05322e-06
2.33397e-06
6.68724e-06
2.61455e-06
6.48871e-06
2.6053e-06
6.14216e-06
2.96485e-06
5.77373e-06
3.11651e-06
5.52534e-06
3.1423e-06
5.17735e-06
3.48642e-06
4.54748e-06
3.77415e-06
3.92372e-06
3.75721e-06
3.21851e-06
3.78864e-06
2.11549e-06
3.8379e-06
1.08257e-06
3.47789e-06
5.13153e-07
2.85902e-06
-3.26133e-08
2.58917e-06
-1.11236e-06
2.63406e-06
-2.26753e-06
2.21197e-06
-2.63704e-06
1.4061e-06
-2.26586e-06
9.66922e-07
-2.02163e-06
9.85089e-07
-2.62928e-06
8.7395e-07
-3.95824e-06
1.23603e-06
-6.56542e-06
2.68915e-06
-9.81899e-06
3.58048e-06
-1.25158e-05
3.84343e-06
-1.44387e-05
4.07711e-06
-1.60231e-05
4.1816e-06
-1.75113e-05
4.124e-06
-1.87929e-05
3.9758e-06
-1.98015e-05
3.75471e-06
-2.05284e-05
3.45039e-06
-2.10877e-05
3.08841e-06
-2.15227e-05
2.67087e-06
-2.18607e-05
2.22765e-06
-2.21066e-05
1.76965e-06
-2.22623e-05
1.31094e-06
-2.23237e-05
8.59771e-07
-2.23098e-05
4.41291e-07
-2.21947e-05
2.1024e-08
-2.19907e-05
-3.77621e-07
-2.16828e-05
-7.76683e-07
-2.12764e-05
-1.16335e-06
-2.079e-05
-1.51747e-06
-2.02196e-05
-1.8759e-06
-1.95812e-05
-2.22373e-06
-1.88416e-05
-2.59467e-06
-1.79949e-05
-2.97541e-06
-1.70462e-05
-3.35517e-06
-1.60144e-05
-3.68781e-06
-1.49194e-05
-3.9848e-06
-1.37998e-05
-4.25978e-06
-1.26292e-05
-4.59292e-06
-1.13698e-05
-4.99742e-06
-1.00731e-05
-5.22401e-06
-8.80217e-06
-5.29782e-06
-7.53454e-06
-5.41374e-06
-6.26685e-06
-5.63638e-06
-5.02226e-06
-5.8194e-06
-3.80196e-06
-5.9555e-06
-2.58074e-06
-6.1922e-06
-1.38499e-06
-6.24292e-06
-1.75676e-07
-6.45667e-06
9.52509e-07
-6.65669e-06
2.05506e-06
-6.61665e-06
3.15993e-06
-6.89708e-06
4.21784e-06
-6.96264e-06
5.22924e-06
-7.13106e-06
6.21459e-06
-7.31771e-06
7.12703e-06
-7.37017e-06
8.05388e-06
-7.56197e-06
8.8972e-06
-7.58662e-06
9.66003e-06
-7.68309e-06
1.03802e-05
-7.85743e-06
1.09531e-05
-7.93443e-06
1.15277e-05
-8.18003e-06
1.20557e-05
-8.39693e-06
1.23955e-05
-8.53145e-06
1.26399e-05
-8.72663e-06
1.28923e-05
-8.97858e-06
1.3296e-05
-9.38153e-06
1.37743e-05
-9.65057e-06
1.41201e-05
-9.69741e-06
1.42804e-05
-9.79685e-06
1.43871e-05
-1.00676e-05
1.44865e-05
-1.03485e-05
1.44744e-05
-1.05869e-05
1.43764e-05
-1.09373e-05
1.41993e-05
-1.13064e-05
1.39649e-05
-1.15477e-05
1.36699e-05
-1.17448e-05
1.34354e-05
-1.21928e-05
1.32359e-05
-1.25779e-05
1.3062e-05
-1.30944e-05
1.26594e-05
-1.34519e-05
1.1936e-05
-1.36633e-05
1.10955e-05
-1.38659e-05
1.0268e-05
-1.40739e-05
9.74134e-06
-1.44301e-05
9.64406e-06
-1.48688e-05
9.54579e-06
-1.50107e-05
8.91564e-06
-1.49522e-05
8.1154e-06
-1.53989e-05
7.80352e-06
-1.62525e-05
8.08267e-06
-1.64008e-05
8.70477e-06
-1.59016e-05
9.24e-06
-1.5532e-05
9.3594e-06
-1.46829e-05
8.50228e-06
-1.32569e-05
6.25465e-06
-1.14091e-05
3.36648e-06
-9.75883e-06
5.00127e-07
-8.63897e-06
-3.04711e-06
-6.21992e-06
-7.30385e-06
-3.3108e-06
-1.1303e-05
-1.48623e-06
-1.44129e-05
-3.43943e-07
-1.66088e-05
-1.18008e-07
-1.86429e-05
7.43263e-07
-2.01584e-05
1.40162e-07
-2.10984e-05
-3.14353e-07
-2.16795e-05
3.63961e-07
-2.01992e-05
-6.48404e-07
-2.09511e-05
2.51685e-06
-1.98896e-05
-7.24915e-06
-1.87085e-05
2.2433e-06
-1.94423e-05
8.68902e-06
-1.88205e-05
2.50542e-06
-1.37003e-05
-6.28189e-06
-8.98972e-06
1.45641e-06
-7.64392e-06
7.84605e-06
-3.93341e-06
2.58619e-06
-8.56531e-08
5.69021e-06
1.88191e-06
1.08246e-05
5.25031e-06
8.77728e-06
8.40777e-06
1.20543e-05
1.09544e-05
1.52701e-05
1.38256e-05
1.55755e-05
1.4534e-05
2.18208e-05
1.52102e-05
2.17793e-05
1.5657e-05
2.26699e-05
1.63325e-05
2.5051e-05
1.88503e-05
2.16629e-05
1.58814e-05
2.93536e-05
1.5029e-05
1.82956e-05
2.12722e-05
6.46172e-06
2.28058e-05
2.41047e-05
2.33919e-05
2.06258e-05
3.13587e-05
-1.46679e-06
3.76468e-05
6.36032e-06
3.92008e-05
2.02588e-05
3.78458e-05
2.25565e-05
3.15148e-05
1.65057e-05
2.20154e-05
1.56022e-05
1.06605e-05
2.78533e-05
6.0858e-06
1.9674e-05
9.54018e-06
-2.77789e-05
1.06471e-05
-3.0332e-05
1.26675e-05
-2.39523e-05
1.87897e-05
-4.36072e-05
1.96111e-05
-2.99424e-05
-2.94547e-05
1.93991e-05
7.24093e-08
2.51867e-06
2.24469e-07
2.75889e-06
6.755e-07
2.36874e-06
1.42229e-06
1.50254e-06
2.25895e-06
5.98862e-07
3.01553e-06
-3.6891e-08
3.59623e-06
-3.58035e-07
4.05224e-06
-4.82721e-07
4.40323e-06
-4.60174e-07
4.70117e-06
-3.68554e-07
4.99134e-06
-2.58174e-07
5.32474e-06
-1.31793e-07
5.64417e-06
2.0376e-08
5.96992e-06
2.06569e-07
6.2704e-06
4.98841e-07
6.51312e-06
7.00866e-07
6.73003e-06
1.12266e-06
6.72689e-06
1.54719e-06
6.77026e-06
1.7556e-06
6.65076e-06
2.35951e-06
6.38912e-06
2.6222e-06
6.20319e-06
2.91941e-06
5.69794e-06
3.47835e-06
5.30199e-06
3.3753e-06
5.10195e-06
3.51694e-06
4.6559e-06
3.93925e-06
4.30165e-06
3.89743e-06
4.13866e-06
4.00503e-06
3.87435e-06
4.38832e-06
3.38663e-06
4.57016e-06
2.77333e-06
4.67259e-06
2.22773e-06
4.67249e-06
1.61308e-06
4.3519e-06
7.50026e-07
3.91349e-06
-2.26701e-07
3.75839e-06
-9.14076e-07
3.49263e-06
-1.27727e-06
2.70599e-06
-1.59389e-06
1.82538e-06
-2.16013e-06
1.61036e-06
-3.74627e-06
2.64266e-06
-6.85023e-06
4.06185e-06
-1.03774e-05
4.83718e-06
-1.28382e-05
5.1714e-06
-1.46768e-05
5.42056e-06
-1.63175e-05
5.46574e-06
-1.76422e-05
5.36057e-06
-1.86888e-05
5.16708e-06
-1.95445e-05
4.90466e-06
-2.02341e-05
4.57634e-06
-2.07648e-05
4.18317e-06
-2.11634e-05
3.73861e-06
-2.14518e-05
3.2584e-06
-2.16686e-05
2.76364e-06
-2.18248e-05
2.25402e-06
-2.19114e-05
1.72251e-06
-2.19288e-05
1.1915e-06
-2.18912e-05
6.81426e-07
-2.17727e-05
1.80563e-07
-2.15931e-05
-3.02736e-07
-2.13398e-05
-7.75825e-07
-2.10185e-05
-1.24346e-06
-2.06225e-05
-1.71014e-06
-2.01287e-05
-2.16635e-06
-1.95557e-05
-2.61002e-06
-1.88854e-05
-3.06366e-06
-1.81364e-05
-3.52108e-06
-1.73045e-05
-3.99577e-06
-1.63721e-05
-4.49174e-06
-1.53317e-05
-4.94997e-06
-1.42135e-05
-5.34101e-06
-1.30087e-05
-5.71974e-06
-1.18008e-05
-6.07936e-06
-1.05434e-05
-6.5699e-06
-9.26587e-06
-6.86362e-06
-7.97815e-06
-6.98736e-06
-6.71874e-06
-7.11576e-06
-5.48887e-06
-7.35588e-06
-4.2763e-06
-7.5852e-06
-3.07374e-06
-7.76734e-06
-1.91255e-06
-8.03079e-06
-7.29497e-07
-8.17698e-06
3.92998e-07
-8.40205e-06
1.46274e-06
-8.62002e-06
2.59138e-06
-8.71074e-06
3.59338e-06
-8.94147e-06
4.58609e-06
-9.06722e-06
5.56799e-06
-9.29897e-06
6.46975e-06
-9.47121e-06
7.37008e-06
-9.59905e-06
8.27784e-06
-9.86128e-06
9.09609e-06
-9.87472e-06
9.88118e-06
-1.00275e-05
1.06469e-05
-1.0226e-05
1.12856e-05
-1.03014e-05
1.17727e-05
-1.05256e-05
1.24126e-05
-1.08864e-05
1.30277e-05
-1.10745e-05
1.33667e-05
-1.12286e-05
1.34408e-05
-1.14064e-05
1.35502e-05
-1.18919e-05
1.38465e-05
-1.23556e-05
1.41774e-05
-1.25432e-05
1.43578e-05
-1.26931e-05
1.45129e-05
-1.30897e-05
1.4736e-05
-1.34482e-05
1.49253e-05