/*--------------------------------*- C++ -*----------------------------------*\
| =========                 |                                                 |
| \\      /  F ield         | OpenFOAM: The Open Source CFD Toolbox           |
|  \\    /   O peration     | Version:  dev                                   |
|   \\  /    A nd           | Web:      http://www.openfoam.org               |
|    \\/     M anipulation  |                                                 |
\*---------------------------------------------------------------------------*/
FoamFile
{
    version     2.0;
    format      ascii;
    class       surfaceScalarField;
    object      phi_0;
    location    "9.165";
}
// * * * * * * * * * * * * * * * * * * * * * * * * * * * * * * * * * * * * * //

dimensions      [1 0 -1 0 0 0 0];

internalField   nonuniform List<scalar> 
24170
(
2.42814e-06
2.07113e-07
1.74095e-06
-3.88814e-07
1.57542e-06
-8.74965e-07
1.60617e-06
-1.04037e-06
1.73658e-06
-1.10694e-06
1.93859e-06
-1.1488e-06
2.04797e-06
-1.02279e-06
2.30363e-06
-1.14049e-06
2.44149e-06
-9.89059e-07
2.75192e-06
-1.13464e-06
2.9294e-06
-9.67079e-07
3.34541e-06
-1.18001e-06
3.58656e-06
-9.67403e-07
4.46474e-06
-1.58177e-06
4.51616e-06
-7.14394e-07
6.96177e-06
-3.07877e-06
1.02425e-05
-3.91059e-06
-4.72385e-06
1.43795e-05
4.18713e-06
-1.18048e-06
3.69936e-06
-1.0707e-06
3.3931e-06
-1.70257e-06
3.24644e-06
-1.99668e-06
3.20988e-06
-2.1379e-06
3.16135e-06
-2.13778e-06
3.23896e-06
-2.10115e-06
3.34418e-06
-2.21898e-06
3.48634e-06
-2.06596e-06
3.70223e-06
-2.25983e-06
3.9662e-06
-2.0999e-06
4.39829e-06
-2.45748e-06
4.7903e-06
-2.16081e-06
5.68293e-06
-3.25158e-06
6.15116e-06
-1.91623e-06
8.40153e-06
-6.02925e-06
9.37489e-06
-5.59114e-06
-6.83654e-06
1.0803e-05
4.90064e-06
-3.11359e-06
5.02379e-06
-2.47893e-06
5.07028e-06
-2.99171e-06
5.03792e-06
-3.17363e-06
4.99468e-06
-3.26315e-06
4.94795e-06
-3.22535e-06
4.96634e-06
-3.21525e-06
5.02349e-06
-3.33859e-06
5.11436e-06
-3.18268e-06
5.49703e-06
-3.63477e-06
5.52689e-06
-3.08692e-06
6.27674e-06
-4.12897e-06
6.17191e-06
-2.94485e-06
7.02659e-06
-4.95221e-06
7.0494e-06
-2.75125e-06
8.07774e-06
-7.82826e-06
9.03041e-06
-7.31124e-06
-1.01536e-05
1.16117e-05
5.25404e-06
-5.01605e-06
5.99288e-06
-4.62463e-06
6.2445e-06
-4.60619e-06
6.56062e-06
-4.81022e-06
6.54408e-06
-4.52783e-06
6.90292e-06
-4.8192e-06
6.76471e-06
-4.27625e-06
7.20702e-06
-4.93406e-06
6.98324e-06
-4.07952e-06
7.50118e-06
-5.22775e-06
7.21811e-06
-3.84825e-06
7.77328e-06
-5.6826e-06
7.53375e-06
-3.67231e-06
8.22945e-06
-6.56782e-06
8.26015e-06
-3.66299e-06
8.82814e-06
-9.23331e-06
8.77423e-06
-8.07661e-06
-1.39319e-05
1.17382e-05
5.6176e-06
-6.78228e-06
6.73794e-06
-7.27181e-06
6.82841e-06
-6.18606e-06
7.48838e-06
-6.90361e-06
7.33877e-06
-5.77813e-06
8.02207e-06
-6.84547e-06
7.82159e-06
-5.38477e-06
8.40989e-06
-6.77864e-06
8.1364e-06
-5.02682e-06
8.68306e-06
-6.94486e-06
8.40043e-06
-4.70028e-06
8.84478e-06
-7.21373e-06
8.68194e-06
-4.55818e-06
9.33308e-06
-8.22115e-06
9.57679e-06
-4.86546e-06
9.70621e-06
-1.02678e-05
8.27007e-06
-7.50291e-06
-1.58059e-05
9.25699e-06
6.06131e-06
-8.58263e-06
7.06877e-06
-9.93028e-06
7.1404e-06
-7.87539e-06
7.88869e-06
-9.20207e-06
7.71658e-06
-7.12352e-06
8.41848e-06
-8.99983e-06
8.28251e-06
-6.66574e-06
8.82169e-06
-8.67964e-06
8.69857e-06
-6.22816e-06
9.3056e-06
-8.82193e-06
9.30825e-06
-5.93296e-06
9.73951e-06
-8.82397e-06
9.87461e-06
-5.82935e-06
1.02897e-05
-9.72214e-06
1.07359e-05
-6.35423e-06
1.04739e-05
-1.09946e-05
9.80559e-06
-7.77011e-06
-1.47381e-05
7.82227e-06
6.90877e-06
-1.06773e-05
7.74928e-06
-1.25459e-05
7.8011e-06
-9.66877e-06
8.52444e-06
-1.15937e-05
8.48666e-06
-8.71904e-06
9.14072e-06
-1.12177e-05
9.06874e-06
-8.11561e-06
9.58101e-06
-1.06553e-05
9.57374e-06
-7.64415e-06
1.00868e-05
-1.07006e-05
1.03718e-05
-7.54064e-06
1.06766e-05
-1.03977e-05
1.1153e-05
-7.52837e-06
1.11912e-05
-1.09278e-05
1.16658e-05
-7.95117e-06
1.10557e-05
-1.1455e-05
1.11589e-05
-8.89616e-06
-1.32173e-05
8.67386e-06
5.47834e-06
-1.23192e-05
6.03446e-06
-1.44504e-05
6.09115e-06
-1.10479e-05
6.60473e-06
-1.33754e-05
6.67919e-06
-1.00331e-05
7.10575e-06
-1.2835e-05
7.1543e-06
-9.32029e-06
7.4342e-06
-1.20476e-05
7.63732e-06
-8.92685e-06
7.7905e-06
-1.18913e-05
8.08241e-06
-8.83503e-06
8.18744e-06
-1.14666e-05
8.5672e-06
-8.83518e-06
8.38603e-06
-1.16324e-05
8.74386e-06
-9.15901e-06
8.27853e-06
-1.18007e-05
8.45527e-06
-9.84859e-06
-1.24548e-05
6.95416e-06
6.24853e-06
-1.42744e-05
6.94738e-06
-1.66703e-05
7.14421e-06
-1.27382e-05
7.62395e-06
-1.52905e-05
7.80619e-06
-1.1617e-05
8.09917e-06
-1.44768e-05
8.35811e-06
-1.08863e-05
8.60462e-06
-1.35532e-05
8.9852e-06
-1.05256e-05
9.05163e-06
-1.31308e-05
9.41309e-06
-1.03261e-05
9.4529e-06
-1.25944e-05
9.8565e-06
-1.02833e-05
9.59321e-06
-1.23698e-05
9.95308e-06
-1.04744e-05
9.49451e-06
-1.22561e-05
9.65692e-06
-1.08806e-05
-1.21305e-05
8.50019e-06
7.41451e-06
-1.66675e-05
7.97509e-06
-1.89253e-05
8.28223e-06
-1.47069e-05
8.64311e-06
-1.72529e-05
9.05894e-06
-1.35925e-05
9.31845e-06
-1.62416e-05
9.82803e-06
-1.28514e-05
9.99089e-06
-1.51212e-05
1.04753e-05
-1.23651e-05
1.04561e-05
-1.44188e-05
1.08558e-05
-1.1982e-05
1.08148e-05
-1.37638e-05
1.12371e-05
-1.18664e-05
1.10003e-05
-1.32475e-05
1.13002e-05
-1.18379e-05
1.08883e-05
-1.28622e-05
1.10292e-05
-1.1989e-05
-1.23085e-05
1.0283e-05
8.78253e-06
-1.93596e-05
9.21747e-06
-2.12195e-05
9.7961e-06
-1.71001e-05
1.00802e-05
-1.92949e-05
1.075e-05
-1.59643e-05
1.09027e-05
-1.80422e-05
1.1539e-05
-1.50783e-05
1.1601e-05
-1.67231e-05
1.21374e-05
-1.43816e-05
1.20554e-05
-1.57678e-05
1.25116e-05
-1.38102e-05
1.23829e-05
-1.49582e-05
1.27881e-05
-1.35381e-05
1.2589e-05
-1.42648e-05
1.28248e-05
-1.32345e-05
1.24909e-05
-1.36402e-05
1.25558e-05
-1.31126e-05
-1.28957e-05
1.21338e-05
1.03208e-05
-2.22116e-05
1.06206e-05
-2.35068e-05
1.14643e-05
-1.98678e-05
1.16225e-05
-2.13304e-05
1.24289e-05
-1.85787e-05
1.24963e-05
-1.98655e-05
1.3259e-05
-1.75302e-05
1.3303e-05
-1.84085e-05
1.39311e-05
-1.65823e-05
1.38629e-05
-1.72224e-05
1.43627e-05
-1.57683e-05
1.42269e-05
-1.62292e-05
1.45515e-05
-1.52086e-05
1.4379e-05
-1.53853e-05
1.46009e-05
-1.4689e-05
1.43515e-05
-1.45701e-05
1.42647e-05
-1.4151e-05
-1.37342e-05
1.40301e-05
1.18526e-05
-2.51564e-05
1.22913e-05
-2.59824e-05
1.34069e-05
-2.294e-05
1.35934e-05
-2.34376e-05
1.44817e-05
-2.13073e-05
1.45582e-05
-2.17381e-05
1.53274e-05
-2.002e-05
1.54024e-05
-2.01614e-05
1.6029e-05
-1.88154e-05
1.60241e-05
-1.87732e-05
1.64862e-05
-1.7722e-05
1.63972e-05
-1.75782e-05
1.66153e-05
-1.68029e-05
1.64662e-05
-1.65578e-05
1.65662e-05
-1.60499e-05
1.64134e-05
-1.56229e-05
1.627e-05
-1.51586e-05
-1.46669e-05
1.61049e-05
1.38802e-05
-2.82115e-05
1.43428e-05
-2.83885e-05
1.55363e-05
-2.5991e-05
1.59084e-05
-2.56362e-05
1.68659e-05
-2.40174e-05
1.7069e-05
-2.36563e-05
1.77721e-05
-2.23681e-05
1.78772e-05
-2.18725e-05
1.83542e-05
-2.08362e-05
1.84082e-05
-2.03188e-05
1.87434e-05
-1.94917e-05
1.87808e-05
-1.89967e-05
1.89834e-05
-1.83309e-05
1.89895e-05
-1.7835e-05
1.89869e-05
-1.72608e-05
1.8924e-05
-1.67198e-05
1.87885e-05
-1.61319e-05
-1.55258e-05
1.85884e-05
1.63454e-05
-3.14859e-05
1.69762e-05
-3.06333e-05
1.80648e-05
-2.86187e-05
1.85884e-05
-2.7672e-05
1.94705e-05
-2.63631e-05
1.98721e-05
-2.54917e-05
2.05196e-05
-2.4401e-05
2.08135e-05
-2.35217e-05
2.12504e-05
-2.25868e-05
2.14502e-05
-2.17914e-05
2.17183e-05
-2.09902e-05
2.18286e-05
-2.0293e-05
2.19389e-05
-1.95813e-05
2.19344e-05
-1.89267e-05
2.18775e-05
-1.82545e-05
2.17511e-05
-1.75953e-05
2.15899e-05
-1.69292e-05
-1.62579e-05
2.14051e-05
1.94662e-05
-3.32296e-05
1.99474e-05
-3.20367e-05
2.07562e-05
-3.03009e-05
2.13811e-05
-2.9163e-05
2.21446e-05
-2.79822e-05
2.27497e-05
-2.69498e-05
2.34143e-05
-2.59071e-05
2.39612e-05
-2.49032e-05
2.4458e-05
-2.39083e-05
2.48159e-05
-2.29606e-05
2.50713e-05
-2.20396e-05
2.51866e-05
-2.11856e-05
2.52229e-05
-2.03726e-05
2.5163e-05
-1.9597e-05
2.505e-05
-1.88474e-05
2.49098e-05
-1.81335e-05
2.47577e-05
-1.74289e-05
-1.66916e-05
2.45665e-05
2.15838e-05
-3.42488e-05
2.26735e-05
-3.28278e-05
2.37925e-05
-3.11062e-05
2.48155e-05
-2.9912e-05
2.5787e-05
-2.87282e-05
2.65903e-05
-2.75831e-05
2.72852e-05
-2.64838e-05
2.78692e-05
-2.54119e-05
2.8352e-05
-2.43574e-05
2.87355e-05
-2.33474e-05
2.90156e-05
-2.2352e-05
2.91906e-05
-2.14179e-05
2.92785e-05
-2.05367e-05
2.92721e-05
-1.96827e-05
2.92014e-05
-1.88809e-05
2.9065e-05
-1.81084e-05
2.88823e-05
-1.73643e-05
-1.66193e-05
2.86899e-05
2.17724e-05
-3.32362e-05
2.28548e-05
-3.20258e-05
2.40179e-05
-3.04349e-05
2.51015e-05
-2.92781e-05
2.60714e-05
-2.8106e-05
2.68689e-05
-2.6912e-05
2.75237e-05
-2.57975e-05
2.80774e-05
-2.47364e-05
2.8547e-05
-2.3702e-05
2.89418e-05
-2.27155e-05
2.92395e-05
-2.17066e-05
2.94327e-05
-2.07491e-05
2.95156e-05
-1.9826e-05
2.95052e-05
-1.89403e-05
2.94282e-05
-1.81296e-05
2.92888e-05
-1.73411e-05
2.91192e-05
-1.66175e-05
-1.58987e-05
2.89366e-05
1.94697e-05
-3.14023e-05
2.08224e-05
-3.03528e-05
2.20704e-05
-2.87775e-05
2.30608e-05
-2.75417e-05
2.38423e-05
-2.63407e-05
2.44857e-05
-2.51764e-05
2.50343e-05
-2.41382e-05
2.54991e-05
-2.31487e-05
2.59031e-05
-2.22003e-05
2.6226e-05
-2.12728e-05
2.64682e-05
-2.03037e-05
2.66297e-05
-1.93851e-05
2.66968e-05
-1.84695e-05
2.66953e-05
-1.76099e-05
2.66286e-05
-1.68238e-05
2.65228e-05
-1.60707e-05
2.63933e-05
-1.54009e-05
-1.47233e-05
2.62425e-05
1.79373e-05
-2.84782e-05
1.88161e-05
-2.75315e-05
1.97369e-05
-2.61641e-05
2.06158e-05
-2.5098e-05
2.13917e-05
-2.40014e-05
2.20386e-05
-2.2903e-05
2.25562e-05
-2.19304e-05
2.29389e-05
-2.0982e-05
2.32374e-05
-2.01197e-05
2.34521e-05
-1.92728e-05
2.36247e-05
-1.84044e-05
2.37556e-05
-1.75851e-05
2.38425e-05
-1.67485e-05
2.39014e-05
-1.59734e-05
2.39011e-05
-1.52355e-05
2.38713e-05
-1.4543e-05
2.37973e-05
-1.39226e-05
-1.33e-05
2.3699e-05
1.58601e-05
-2.51845e-05
1.66778e-05
-2.43405e-05
1.75578e-05
-2.32168e-05
1.83986e-05
-2.23323e-05
1.91571e-05
-2.13728e-05
1.98158e-05
-2.03771e-05
2.03258e-05
-1.94587e-05
2.07306e-05
-1.8596e-05
2.10508e-05
-1.78214e-05
2.12791e-05
-1.70565e-05
2.1475e-05
-1.63087e-05
2.15992e-05
-1.55639e-05
2.16904e-05
-1.48326e-05
2.17383e-05
-1.41318e-05
2.17378e-05
-1.34653e-05
2.17147e-05
-1.2849e-05
2.16343e-05
-1.22684e-05
-1.17173e-05
2.15356e-05
1.43362e-05
-2.15244e-05
1.50955e-05
-2.10471e-05
1.58887e-05
-2.01331e-05
1.65555e-05
-1.9332e-05
1.71292e-05
-1.84964e-05
1.76562e-05
-1.76585e-05
1.81179e-05
-1.68679e-05
1.85289e-05
-1.61493e-05
1.88677e-05
-1.54742e-05
1.91196e-05
-1.47934e-05
1.93046e-05
-1.41365e-05
1.94091e-05
-1.34524e-05
1.94671e-05
-1.2816e-05
1.94816e-05
-1.21902e-05
1.94654e-05
-1.16114e-05
1.94274e-05
-1.10787e-05
1.93656e-05
-1.05706e-05
-1.00986e-05
1.92874e-05
1.27778e-05
-1.83185e-05
1.35431e-05
-1.78619e-05
1.42571e-05
-1.70691e-05
1.4873e-05
-1.63749e-05
1.542e-05
-1.56699e-05
1.58983e-05
-1.49586e-05
1.63194e-05
-1.42982e-05
1.66737e-05
-1.36949e-05
1.69589e-05
-1.3121e-05
1.71847e-05
-1.25431e-05
1.73481e-05
-1.1976e-05
1.74641e-05
-1.13856e-05
1.75328e-05
-1.08323e-05
1.75687e-05
-1.02959e-05
1.75792e-05
-9.80181e-06
1.75619e-05
-9.3462e-06
1.75323e-05
-8.92074e-06
-8.51375e-06
1.7478e-05
1.13198e-05
-1.50577e-05
1.20549e-05
-1.48543e-05
1.27994e-05
-1.42291e-05
1.34658e-05
-1.3649e-05
1.40434e-05
-1.30437e-05
1.45269e-05
-1.24206e-05
1.49131e-05
-1.18376e-05
1.51933e-05
-1.12966e-05
1.53882e-05
-1.07968e-05
1.55192e-05
-1.03083e-05
1.56146e-05
-9.8471e-06
1.56943e-05
-9.37689e-06
1.57605e-05
-8.93228e-06
1.58207e-05
-8.50593e-06
1.58665e-05
-8.10284e-06
1.58938e-05
-7.72664e-06
1.5897e-05
-7.37018e-06
-7.01823e-06
1.58719e-05
1.01889e-05
-1.22001e-05
1.08147e-05
-1.20048e-05
1.14238e-05
-1.1504e-05
1.19758e-05
-1.10407e-05
1.24819e-05
-1.0563e-05
1.29317e-05
-1.00537e-05
1.33166e-05
-9.56881e-06
1.36252e-05
-9.10755e-06
1.3851e-05
-8.67143e-06
1.40041e-05
-8.24997e-06
1.41022e-05
-7.86382e-06
1.41663e-05
-7.48349e-06
1.42074e-05
-7.13021e-06
1.42396e-05
-6.80195e-06
1.42614e-05
-6.48787e-06
1.42709e-05
-6.19089e-06
1.42599e-05
-5.90068e-06
-5.60517e-06
1.42257e-05
9.06215e-06
-9.60112e-06
9.85029e-06
-9.6115e-06
1.05023e-05
-9.0987e-06
1.09989e-05
-8.63604e-06
1.13973e-05
-8.21587e-06
1.1739e-05
-7.80412e-06
1.20418e-05
-7.43014e-06
1.23083e-05
-7.07661e-06
1.25268e-05
-6.72888e-06
1.26936e-05
-6.38383e-06
1.28025e-05
-6.0597e-06
1.28634e-05
-5.74284e-06
1.28809e-05
-5.45086e-06
1.28709e-05
-5.1917e-06
1.28434e-05
-4.95091e-06
1.2799e-05
-4.72143e-06
1.27442e-05
-4.49971e-06
-4.27136e-06
1.26822e-05
8.02941e-06
-7.20146e-06
8.79516e-06
-7.49317e-06
9.44596e-06
-6.9763e-06
9.93576e-06
-6.49256e-06
1.0279e-05
-6.06554e-06
1.05272e-05
-5.69684e-06
1.07144e-05
-5.39705e-06
1.08562e-05
-5.12787e-06
1.09626e-05
-4.86883e-06
1.10253e-05
-4.59694e-06
1.10571e-05
-4.35132e-06
1.10662e-05
-4.11356e-06
1.10538e-05
-3.89471e-06
1.10229e-05
-3.7049e-06
1.09766e-05
-3.53056e-06
1.09125e-05
-3.3596e-06
1.08377e-05
-3.19852e-06
-3.03069e-06
1.07563e-05
7.41417e-06
-5.05353e-06
7.95467e-06
-5.43588e-06
8.34817e-06
-4.87012e-06
8.60185e-06
-4.37246e-06
8.74371e-06
-3.95939e-06
8.80636e-06
-3.63542e-06
8.8067e-06
-3.39392e-06
8.761e-06
-3.19469e-06
8.69201e-06
-3.02285e-06
8.61761e-06
-2.85021e-06
8.54251e-06
-2.70214e-06
8.47509e-06
-2.56382e-06
8.39842e-06
-2.42104e-06
8.3137e-06
-2.30249e-06
8.22119e-06
-2.1942e-06
8.12565e-06
-2.08907e-06
8.02973e-06
-1.99214e-06
-1.89047e-06
7.93951e-06
6.57627e-06
-3.24828e-06
6.53866e-06
-3.0738e-06
6.3674e-06
-2.45952e-06
6.17706e-06
-2.05344e-06
6.01142e-06
-1.77628e-06
5.88524e-06
-1.60183e-06
5.78102e-06
-1.48983e-06
5.69066e-06
-1.4083e-06
5.60809e-06
-1.34332e-06
5.53593e-06
-1.27483e-06
5.46574e-06
-1.21681e-06
5.39134e-06
-1.15661e-06
5.3337e-06
-1.10726e-06
5.26755e-06
-1.05158e-06
5.19791e-06
-1.00633e-06
5.12766e-06
-9.62711e-07
5.0613e-06
-9.27758e-07
-8.92671e-07
5.00728e-06
4.40653e-06
3.39016e-06
2.90756e-06
2.73499e-06
2.74223e-06
2.8264e-06
2.92689e-06
3.01654e-06
3.08318e-06
3.13528e-06
3.16753e-06
3.18735e-06
3.18895e-06
3.18329e-06
3.16428e-06
3.13418e-06
3.08801e-06
3.02953e-06
-6.19796e-07
1.12082e-06
-1.31685e-06
1.21712e-06
-1.92138e-06
1.13573e-06
-2.29552e-06
9.03649e-07
-2.37126e-06
6.04639e-07
-2.11335e-06
2.72874e-07
-1.59395e-06
1.46642e-08
-8.85973e-07
-1.69761e-07
-7.54897e-08
-2.67882e-07
7.91164e-07
-3.19557e-07
1.64406e-06
-3.0105e-07
2.4169e-06
-2.17178e-07
3.12273e-06
-1.45883e-07
3.76378e-06
-7.57621e-08
4.2692e-06
6.26956e-08
4.66206e-06
1.78222e-07
4.98454e-06
2.54394e-07
5.12853e-06
4.35386e-07
5.20431e-06
5.06872e-07
5.16518e-06
6.25986e-07
4.93782e-06
8.15374e-07
4.65219e-06
8.75151e-07
4.22866e-06
1.01384e-06
3.679e-06
1.14013e-06
3.05787e-06
1.20886e-06
2.28132e-06
1.36152e-06
1.40459e-06
1.45805e-06
4.93854e-07
1.48501e-06
-4.58628e-07
1.52647e-06
-1.34823e-06
1.4598e-06
-2.09375e-06
1.30388e-06
-2.66957e-06
1.11868e-06
-3.12278e-06
9.7491e-07
-3.50467e-06
8.85718e-07
-3.73409e-06
7.19073e-07
-3.82815e-06
5.71378e-07
-3.86988e-06
5.0648e-07
-3.92511e-06
5.04185e-07
-3.99594e-06
4.98784e-07
-4.1026e-06
4.98783e-07
-4.30916e-06
5.55027e-07
-4.55432e-06
5.52901e-07
-4.08309e-06
-1.66548e-07
-3.12392e-06
-6.49419e-07
-2.3837e-06
-4.45976e-07
-1.97684e-06
-1.51865e-07
-1.78295e-06
2.21261e-08
-1.84106e-06
2.45777e-07
-2.45895e-06
7.78144e-07
-3.70538e-06
1.37416e-06
-5.25446e-06
1.64512e-06
-6.81814e-06
1.62542e-06
-8.2617e-06
1.47373e-06
-9.54456e-06
1.28285e-06
-1.0655e-05
1.08002e-06
-1.15857e-05
8.69183e-07
-1.23488e-05
6.69777e-07
-1.29588e-05
4.84111e-07
-1.34203e-05
3.02174e-07
-1.37374e-05
1.23531e-07
-1.39356e-05
-3.06975e-08
-1.40065e-05
-1.94659e-07
-1.3962e-05
-3.482e-07
-1.38058e-05
-4.99679e-07
-1.35412e-05
-6.4961e-07
-1.31782e-05
-7.91338e-07
-1.27068e-05
-9.45159e-07
-1.21424e-05
-1.08561e-06
-1.1494e-05
-1.21925e-06
-1.07591e-05
-1.35805e-06
-9.94888e-06
-1.48808e-06
-9.05699e-06
-1.62715e-06
-8.0622e-06
-1.79008e-06
-7.01973e-06
-1.90041e-06
-6.00612e-06
-1.93694e-06
-5.00021e-06
-1.99769e-06
-3.96924e-06
-2.09452e-06
-2.89541e-06
-2.21252e-06
-1.82728e-06
-2.2854e-06
-7.04275e-07
-2.42207e-06
3.23267e-07
-2.41216e-06
1.34325e-06
-2.49191e-06
2.43032e-06
-2.64991e-06
3.39131e-06
-2.62285e-06
4.36781e-06
-2.73811e-06
5.29587e-06
-2.79545e-06
6.20849e-06
-2.88881e-06
7.10471e-06
-2.98594e-06
7.90276e-06
-3.00687e-06
8.65732e-06
-3.08417e-06
9.33066e-06
-3.12912e-06
9.94621e-06
-3.20053e-06
1.05226e-05
-3.294e-06
1.10312e-05
-3.36066e-06
1.15296e-05
-3.48831e-06
1.19804e-05
-3.5832e-06
1.23745e-05
-3.67117e-06
1.27235e-05
-3.77495e-06
1.3059e-05
-3.92306e-06
1.33554e-05
-4.05552e-06
1.35895e-05
-4.17193e-06
1.37513e-05
-4.29343e-06
1.38679e-05
-4.44913e-06
1.3955e-05
-4.618e-06
1.39998e-05
-4.7828e-06
1.39807e-05
-4.93664e-06
1.3934e-05
-5.13328e-06
1.38305e-05
-5.31458e-06
1.35888e-05
-5.43187e-06
1.31626e-05
-5.50432e-06
1.26339e-05
-5.66045e-06
1.19989e-05
-5.82022e-06
1.12824e-05
-6.00172e-06
1.04711e-05
-6.16562e-06
9.69622e-06
-6.43615e-06
9.02792e-06
-6.77399e-06
8.48796e-06
-7.11331e-06
8.08855e-06
-7.44127e-06
7.6245e-06
-7.5738e-06
7.12555e-06
-7.71229e-06
6.90949e-06
-8.1312e-06
7.11931e-06
-8.63403e-06
7.57079e-06
-8.93333e-06
7.73534e-06
-8.77409e-06
7.45584e-06
-8.50277e-06
6.92289e-06
-8.46201e-06
5.89687e-06
-8.21256e-06
4.4268e-06
-7.9141e-06
2.92701e-06
-7.92433e-06
1.41336e-06
-7.81225e-06
-4.75727e-08
-7.64839e-06
-1.56978e-06
-7.36833e-06
-3.26936e-06
-6.9332e-06
-5.31903e-06
-6.26464e-06
-7.87927e-06
-5.41183e-06
-1.05883e-05
-4.89702e-06
-1.31773e-05
-4.63296e-06
-1.52347e-05
-4.70689e-06
-1.67287e-05
-4.92693e-06
-1.76763e-05
-5.06456e-06
-1.83745e-05
-4.71257e-06
-1.79439e-05
-5.17849e-06
-1.3428e-05
-8.89243e-06
-1.38741e-05
-3.94886e-06
-1.41582e-05
-3.47043e-06
-1.16554e-05
-5.70996e-06
-7.32388e-06
-7.18219e-06
-5.63875e-06
-4.28655e-06
-4.03694e-06
-3.92921e-06
-8.14127e-07
-5.2552e-06
1.20193e-06
-3.8688e-06
2.58477e-06
-3.1072e-06
4.82342e-06
-3.862e-06
6.44839e-06
-3.21421e-06
7.72184e-06
-2.88152e-06
9.73994e-06
-3.72308e-06
1.07448e-05
-2.84397e-06
1.23215e-05
-3.64535e-06
1.40671e-05
-4.185e-06
1.49693e-05
-3.75701e-06
1.64021e-05
-4.86991e-06
1.63982e-05
-3.97073e-06
2.00179e-05
-8.0746e-06
2.55531e-05
-1.05809e-05
2.61433e-05
-6.45345e-06
2.74251e-05
-8.42249e-06
3.37972e-05
-1.54469e-05
3.6778e-05
-1.38085e-05
3.54418e-05
-1.07021e-05
3.10398e-05
-9.85239e-06
2.59475e-05
-1.22124e-05
2.14535e-05
-1.40332e-05
1.19589e-05
-8.64138e-06
-2.92002e-06
-4.7259e-06
-1.07417e-06
-2.45446e-05
4.73281e-06
-2.69753e-05
2.63738e-06
-1.87653e-05
7.9657e-06
-2.66638e-05
6.83663e-06
-1.96185e-05
-1.7461e-05
3.83821e-06
-1.36628e-07
1.73008e-06
-4.26332e-07
1.99619e-06
-7.39011e-07
1.95059e-06
-9.25108e-07
1.59073e-06
-8.01481e-07
9.79381e-07
-3.92623e-07
3.63373e-07
2.14898e-07
-9.01099e-08
9.40973e-07
-3.89128e-07
1.70536e-06
-5.21303e-07
2.47003e-06
-5.69766e-07
3.19515e-06
-5.07204e-07
3.84536e-06
-3.43705e-07
4.51566e-06
-2.87976e-07
5.0414e-06
-6.75311e-08
5.50668e-06
1.31496e-07
5.96927e-06
2.57974e-07
6.2298e-06
5.43198e-07
6.47683e-06
7.30187e-07
6.60162e-06
9.30674e-07
6.58211e-06
1.20187e-06
6.56336e-06
1.38382e-06
6.34658e-06
1.64133e-06
6.12116e-06
1.80701e-06
5.8431e-06
1.97405e-06
5.43233e-06
2.17619e-06
5.01975e-06
2.3554e-06
4.52587e-06
2.50188e-06
3.81872e-06
2.74349e-06
3.10396e-06
2.80649e-06
2.29669e-06
2.79097e-06
1.36172e-06
2.76258e-06
5.22965e-07
2.49404e-06
-1.86915e-07
2.20148e-06
-8.84356e-07
2.06964e-06
-1.59251e-06
1.88625e-06
-1.98796e-06
1.43277e-06
-1.9495e-06
9.42061e-07
-1.92241e-06
9.15089e-07
-2.30228e-06
1.26678e-06
-2.65242e-06
1.23702e-06
-1.9925e-06
3.04309e-07
-9.8768e-07
-1.1602e-07
-8.41771e-07
-1.82461e-08
-1.52958e-06
3.33381e-07
-2.89236e-06
1.20876e-06
-4.98035e-06
2.21301e-06
-7.42063e-06
2.67406e-06
-9.74364e-06
2.73055e-06
-1.16354e-05
2.80111e-06
-1.30165e-05
2.85909e-06
-1.41394e-05
2.84501e-06
-1.51203e-05
2.65576e-06
-1.59912e-05
2.36601e-06
-1.67355e-05
2.02004e-06
-1.7344e-05
1.65218e-06
-1.78211e-05
1.28063e-06
-1.81623e-05
9.15454e-07
-1.83666e-05
5.62516e-07
-1.84545e-05
2.32781e-07
-1.84357e-05
-8.47872e-08
-1.8296e-05
-3.93291e-07
-1.80539e-05
-6.95004e-07
-1.77164e-05
-9.80428e-07
-1.72827e-05
-1.26615e-06
-1.67488e-05
-1.55615e-06
-1.61205e-05
-1.83364e-06
-1.54071e-05
-2.11595e-06
-1.45936e-05
-2.40178e-06
-1.37057e-05
-2.6575e-06
-1.27688e-05
-2.89539e-06
-1.17641e-05
-3.14587e-06
-1.06778e-05
-3.42196e-06
-9.5054e-06
-3.72965e-06
-8.31976e-06
-3.91426e-06
-7.14107e-06
-4.00646e-06
-5.98335e-06
-4.11094e-06
-4.78911e-06
-4.31293e-06
-3.603e-06
-4.49495e-06
-2.42933e-06
-4.63037e-06
-1.25458e-06
-4.84267e-06
-9.93615e-08
-4.89586e-06
1.06882e-06
-5.06855e-06
2.24064e-06
-5.31355e-06
3.3101e-06
-5.27756e-06
4.41895e-06
-5.52418e-06
5.45616e-06
-5.61044e-06
6.47893e-06
-5.79361e-06
7.48828e-06
-5.98179e-06
8.44663e-06
-6.07481e-06
9.35127e-06
-6.21819e-06
1.01497e-05
-6.28741e-06
1.08785e-05
-6.42686e-06
1.15411e-05
-6.59812e-06
1.2148e-05
-6.75444e-06
1.27062e-05
-6.97291e-06
1.32362e-05
-7.19478e-06
1.37219e-05
-7.38901e-06
1.41956e-05
-7.59197e-06
1.46531e-05
-7.84184e-06
1.50839e-05
-8.10021e-06
1.54211e-05
-8.27937e-06
1.5595e-05
-8.42522e-06
1.56327e-05
-8.66611e-06
1.56219e-05
-8.99153e-06
1.55616e-05
-9.32144e-06
1.54212e-05
-9.6489e-06
1.52464e-05
-1.00523e-05
1.50484e-05
-1.04427e-05
1.4779e-05
-1.07464e-05
1.43547e-05
-1.09789e-05
1.39286e-05
-1.14165e-05
1.34468e-05
-1.1857e-05
1.29001e-05
-1.23023e-05
1.2235e-05
-1.26474e-05
1.14979e-05
-1.30057e-05
1.08867e-05
-1.3501e-05
1.04823e-05
-1.4071e-05
1.01657e-05
-1.45184e-05
9.93879e-06
-1.49159e-05
9.59316e-06
-1.52061e-05
9.0693e-06
-1.55821e-05
8.91237e-06
-1.62981e-05
9.46121e-06
-1.70769e-05
1.02344e-05
-1.7204e-05
1.06407e-05
-1.68422e-05
1.08652e-05
-1.69179e-05
1.0659e-05
-1.67469e-05
9.70383e-06
-1.62802e-05
7.912e-06
-1.57931e-05
5.67313e-06
-1.51521e-05
3.38679e-06
-1.45557e-05
6.70691e-07
-1.35487e-05
-2.60797e-06
-1.21889e-05
-6.06849e-06
-1.09044e-05
-9.61218e-06
-9.55773e-06
-1.27867e-05
-9.05253e-06
-1.54546e-05
-8.87458e-06
-1.70206e-05
-9.61608e-06
-1.79915e-05
-1.0173e-05
-1.88474e-05
-9.91941e-06
-1.86748e-05
-9.83817e-06
-1.82521e-05
-9.75185e-06
-1.41831e-05
-1.7246e-05
-1.35321e-05
-9.11686e-06
-1.41764e-05
-6.18045e-06
-1.13938e-05
-1.12113e-05
-5.20828e-06
-1.58586e-05
-2.36627e-06
-9.56663e-06
-5.7133e-07
-7.85465e-06
3.92225e-06
-1.12828e-05
7.26971e-06
-8.6458e-06
9.28966e-06
-6.50355e-06
1.24871e-05
-8.18539e-06
1.47185e-05
-6.54635e-06
1.61246e-05
-5.42135e-06
1.7904e-05
-6.71695e-06
1.80333e-05
-4.41613e-06
1.89259e-05
-6.1053e-06
2.01676e-05
-7.31241e-06
2.07598e-05
-6.80591e-06
2.20762e-05
-9.6867e-06
2.01144e-05
-6.55769e-06
2.32036e-05
-1.56842e-05
3.07154e-05
-2.18417e-05
3.13664e-05
-1.17215e-05
3.26443e-05
-1.62828e-05
4.12408e-05
-3.16975e-05
4.51713e-05
-2.76214e-05
4.30955e-05
-2.01315e-05
3.78985e-05
-1.96853e-05
3.03242e-05
-2.50479e-05
2.08427e-05
-2.54149e-05
7.14155e-06
-1.47364e-05
-5.65868e-06
-1.41942e-05
-2.48654e-06
-5.11837e-05
2.29843e-06
-5.33696e-05
3.86327e-06
-4.30568e-05
1.07265e-05
-5.45204e-05
1.19317e-05
-4.2482e-05
-3.90106e-05
1.09336e-05
3.9784e-08
2.11112e-06
2.57769e-08
2.43155e-06
5.88859e-08
2.34197e-06
3.30244e-07
1.74974e-06
8.30207e-07
9.17894e-07
1.44442e-06
1.95904e-07
2.10889e-06
-3.02896e-07
2.72683e-06
-5.51523e-07
3.29679e-06
-6.31779e-07
3.77603e-06
-5.8507e-07
4.22088e-06
-4.87095e-07
4.6571e-06
-3.07735e-07
5.01261e-06
-1.62864e-07
5.35434e-06
5.70322e-08
5.66524e-06
3.06737e-07
5.98978e-06
4.32538e-07
6.15121e-06
8.68078e-07
6.30643e-06
1.06593e-06
6.40275e-06
1.33007e-06
6.28919e-06
1.80877e-06
6.26031e-06
1.90615e-06
6.06787e-06
2.33983e-06
5.73579e-06
2.62221e-06
5.58562e-06
2.61619e-06
5.29062e-06
2.9887e-06
4.98859e-06
3.1472e-06
4.82113e-06
3.17884e-06
4.56391e-06
3.53166e-06
4.03868e-06
3.82806e-06
3.53483e-06
3.81629e-06
2.95429e-06
3.85888e-06
1.98608e-06
3.91933e-06
1.10069e-06
3.56049e-06
6.83286e-07
2.94571e-06
2.95199e-07
2.68945e-06
-6.11364e-07
2.7399e-06
-1.59354e-06
2.32358e-06
-1.79319e-06
1.51395e-06
-1.23942e-06
1.07928e-06
-8.0407e-07
1.11761e-06
-1.20551e-06
1.01823e-06
-2.34698e-06
1.35524e-06
-4.83575e-06
2.79261e-06
-7.90484e-06
3.67677e-06
-1.04284e-05
3.93952e-06
-1.21974e-05
4.16841e-06
-1.36242e-05
4.26737e-06
-1.49525e-05
4.20226e-06
-1.60794e-05
4.04425e-06
-1.69426e-05
3.81342e-06
-1.75338e-05
3.50047e-06
-1.79684e-05
3.12795e-06
-1.82905e-05
2.69833e-06
-1.85279e-05
2.24103e-06
-1.86847e-05
1.76576e-06
-1.87641e-05
1.28833e-06
-1.87641e-05
8.1671e-07
-1.87044e-05
3.7606e-07
-1.85587e-05
-6.72639e-08
-1.83374e-05
-4.89581e-07
-1.80286e-05
-9.16715e-07
-1.76355e-05
-1.3335e-06
-1.71772e-05
-1.71873e-06
-1.66495e-05
-2.10908e-06
-1.60682e-05
-2.48888e-06
-1.53992e-05
-2.89313e-06
-1.46361e-05
-3.30957e-06
-1.37817e-05
-3.72859e-06
-1.28523e-05
-4.10373e-06
-1.18671e-05
-4.44357e-06
-1.08657e-05
-4.75878e-06
-9.81907e-06
-5.13239e-06
-8.68552e-06
-5.58349e-06
-7.51229e-06
-5.86841e-06
-6.36464e-06
-5.99714e-06
-5.21868e-06
-6.16271e-06
-4.06716e-06
-6.43613e-06
-2.93115e-06
-6.67431e-06
-1.81293e-06
-6.86577e-06
-6.82427e-07
-7.1579e-06
4.33917e-07
-7.2733e-06
1.57439e-06
-7.54182e-06
2.64705e-06
-7.8008e-06
3.7034e-06
-7.82427e-06
4.77843e-06
-8.17027e-06
5.81862e-06
-8.30276e-06
6.82339e-06
-8.54069e-06
7.81546e-06
-8.79758e-06
8.74428e-06
-8.9284e-06
9.69574e-06
-9.19466e-06
1.05735e-05
-9.30512e-06
1.13813e-05
-9.49273e-06
1.21494e-05
-9.75385e-06
1.27751e-05
-9.92911e-06
1.34174e-05
-1.02749e-05
1.40083e-05
-1.05853e-05
1.44029e-05
-1.08257e-05
1.47191e-05
-1.11294e-05
1.50697e-05
-1.14917e-05
1.55726e-05
-1.19899e-05
1.61252e-05
-1.23474e-05
1.65214e-05
-1.25114e-05
1.67271e-05
-1.27542e-05
1.68788e-05
-1.31603e-05
1.70167e-05
-1.35846e-05
1.70283e-05
-1.39948e-05
1.69436e-05
-1.45208e-05
1.67636e-05
-1.50642e-05
1.65211e-05
-1.54996e-05
1.61934e-05
-1.59124e-05
1.59196e-05
-1.65821e-05
1.56605e-05
-1.72103e-05
1.53855e-05
-1.79861e-05
1.483e-05
-1.8598e-05
1.39375e-05
-1.90332e-05
1.29663e-05
-1.9428e-05
1.20532e-05
-1.98432e-05
1.14691e-05
-2.04302e-05
1.13115e-05
-2.11385e-05
1.11192e-05
-2.16223e-05
1.03942e-05
-2.19508e-05
9.58253e-06
-2.27327e-05
9.36713e-06
-2.38544e-05
9.78435e-06
-2.43267e-05
1.05143e-05
-2.42416e-05
1.11518e-05
-2.43802e-05
1.13624e-05
-2.41033e-05
1.05459e-05
-2.33163e-05
8.32952e-06
-2.20982e-05
5.55814e-06
-2.09737e-05
2.86396e-06
-2.0286e-05
-5.11827e-07
-1.8384e-05
-4.4399e-06
-1.60555e-05
-8.15736e-06
-1.46115e-05
-1.10133e-05
-1.38012e-05
-1.29358e-05
-1.39854e-05
-1.47297e-05
-1.35642e-05
-1.59866e-05
-1.44497e-05
-1.66704e-05
-1.52655e-05
-1.71157e-05
-1.48776e-05
-1.56271e-05
-1.61936e-05
-1.62396e-05
-1.335e-05
-1.47474e-05
-2.32732e-05
-1.34276e-05
-1.45921e-05
-1.41162e-05
-8.46791e-06
-1.32245e-05
-1.47182e-05
-7.59713e-06
-2.39612e-05
-2.99134e-06
-1.67069e-05
-1.69397e-06
-1.1248e-05
2.36221e-06
-1.66578e-05
6.4879e-06
-1.4026e-05
8.4415e-06
-9.88789e-06
1.21825e-05
-1.28676e-05
1.55555e-05
-1.07494e-05
1.81501e-05
-8.86147e-06
2.1443e-05
-1.04886e-05
2.21117e-05
-6.23003e-06
2.27223e-05
-8.17576e-06
2.33877e-05
-9.15198e-06
2.39771e-05
-9.02152e-06
2.62622e-05
-1.51759e-05
2.26168e-05
-8.15629e-06
2.20616e-05
-2.04501e-05
2.93124e-05
-3.26367e-05
3.01411e-05
-1.67601e-05
2.99677e-05
-2.32866e-05
3.85615e-05
-4.52867e-05
4.49089e-05
-3.87503e-05
4.47645e-05
-2.78147e-05
3.9847e-05
-2.82029e-05
3.04727e-05
-3.46376e-05
1.93814e-05
-3.3749e-05
5.83035e-06
-2.04547e-05
-2.4402e-06
-2.76018e-05
8.58191e-07
-7.3449e-05
1.8874e-06
-7.25885e-05
3.8384e-06
-6.30293e-05
9.81629e-06
-7.77363e-05
1.09581e-05
-6.12001e-05
-5.77328e-05
1.07435e-05
-2.03809e-08
2.48809e-06
5.18324e-08
2.70323e-06
4.35144e-07
2.29942e-06
1.11638e-06
1.42477e-06
1.88629e-06
5.19179e-07
2.54568e-06
-8.36707e-08
3.05641e-06
-4.31164e-07
3.44558e-06
-5.53639e-07
3.73175e-06
-5.26816e-07
3.96632e-06
-4.27983e-07
4.1983e-06
-3.15026e-07
4.48089e-06
-1.86474e-07
4.7325e-06
-7.38744e-09
5.03377e-06
1.66656e-07
5.30096e-06
4.5335e-07
5.5082e-06
6.67911e-07
5.70732e-06
1.08871e-06
5.69296e-06
1.51429e-06
5.73652e-06
1.73378e-06
5.62357e-06
2.34989e-06
5.3741e-06
2.61568e-06
5.21858e-06
2.92686e-06
4.74822e-06
3.49253e-06
4.39044e-06
3.39656e-06
4.24234e-06
3.55253e-06
3.85459e-06
3.98178e-06
3.57343e-06
3.94509e-06
3.5027e-06
4.05887e-06
3.3416e-06
4.45029e-06
2.97333e-06
4.64323e-06
2.49647e-06
4.75925e-06
2.09518e-06
4.76655e-06
1.62183e-06
4.45906e-06
9.03743e-07
4.03334e-06
9.28378e-08
3.88147e-06
-4.06466e-07
3.61175e-06
-5.74487e-07
2.83143e-06
-7.23649e-07
1.98237e-06
-1.1267e-06
1.77521e-06
-2.53377e-06
2.80655e-06
-5.46032e-06
4.22089e-06
-8.82162e-06
4.98087e-06
-1.11227e-05
5.31505e-06
-1.27998e-05
5.55679e-06
-1.42695e-05
5.59097e-06
-1.5422e-05
5.47628e-06
-1.63025e-05
5.27684e-06
-1.69998e-05
5.00663e-06
-1.75396e-05
4.66781e-06
-1.79297e-05
4.26264e-06
-1.81965e-05
3.80497e-06
-1.83632e-05
3.30944e-06
-1.84692e-05
2.79743e-06
-1.85265e-05
2.26798e-06
-1.85276e-05
1.71374e-06
-1.84725e-05
1.15706e-06
-1.83761e-05
6.1959e-07
-1.82135e-05
8.90592e-08
-1.80041e-05
-4.25997e-07
-1.77356e-05
-9.31917e-07
-1.74163e-05
-1.4345e-06
-1.7038e-05
-1.93928e-06
-1.65757e-05
-2.43736e-06
-1.60471e-05
-2.92414e-06
-1.54347e-05
-3.42055e-06
-1.47574e-05
-3.92166e-06
-1.40099e-05
-4.44247e-06
-1.31729e-05
-4.98887e-06
-1.22379e-05
-5.5013e-06
-1.12333e-05
-5.94887e-06
-1.015e-05
-6.38097e-06
-9.06762e-06
-6.79579e-06
-7.93679e-06
-7.34614e-06
-6.78229e-06
-7.71453e-06
-5.61908e-06
-7.90832e-06
-4.48468e-06
-8.104e-06
-3.37195e-06
-8.41572e-06
-2.26768e-06
-8.71983e-06
-1.16545e-06
-8.97971e-06
-8.98135e-08
-9.3188e-06
1.00306e-06
-9.53715e-06
2.05441e-06
-9.84268e-06
3.06899e-06
-1.01412e-05
4.15113e-06
-1.0311e-05
5.12248e-06
-1.06293e-05
6.09986e-06
-1.08422e-05
7.07885e-06
-1.11623e-05
7.99099e-06
-1.14242e-05
8.91227e-06
-1.16507e-05
9.85157e-06
-1.20059e-05
1.07033e-05
-1.21223e-05
1.15343e-05
-1.23922e-05
1.23532e-05
-1.26966e-05
1.30364e-05
-1.28975e-05
1.35905e-05
-1.32632e-05
1.43202e-05
-1.37426e-05
1.49943e-05
-1.40549e-05
1.53643e-05
-1.4358e-05
1.54947e-05
-1.47021e-05
1.57067e-05
-1.53338e-05
1.61117e-05
-1.59196e-05
1.65156e-05
-1.62506e-05
1.6748e-05