/*--------------------------------*- C++ -*----------------------------------*\
| =========                 |                                                 |
| \\      /  F ield         | OpenFOAM: The Open Source CFD Toolbox           |
|  \\    /   O peration     | Version:  dev                                   |
|   \\  /    A nd           | Web:      http://www.openfoam.org               |
|    \\/     M anipulation  |                                                 |
\*---------------------------------------------------------------------------*/
FoamFile
{
    version     2.0;
    format      ascii;
    class       volScalarField;
    object      pPrime2Mean;
    location    "9.165";
}
// * * * * * * * * * * * * * * * * * * * * * * * * * * * * * * * * * * * * * //

dimensions      [2 -2 -4 0 0 0 0];

internalField   nonuniform List<scalar> 
12225
(
5.03226e+07
4.98575e+07
4.8897e+07
4.7546e+07
4.58926e+07
4.40261e+07
4.20057e+07
3.99034e+07
3.77601e+07
3.56238e+07
3.35321e+07
3.14882e+07
2.95658e+07
2.76959e+07
2.59497e+07
2.43904e+07
2.28299e+07
2.12515e+07
5.02149e+07
4.97499e+07
4.87901e+07
4.74408e+07
4.57889e+07
4.39247e+07
4.19072e+07
3.98075e+07
3.76681e+07
3.55344e+07
3.34475e+07
3.14072e+07
2.94894e+07
2.76263e+07
2.58976e+07
2.43384e+07
2.28308e+07
2.14982e+07
4.99652e+07
4.95007e+07
4.85414e+07
4.71952e+07
4.55477e+07
4.36884e+07
4.16775e+07
3.95841e+07
3.74528e+07
3.53272e+07
3.32487e+07
3.12201e+07
2.93084e+07
2.74626e+07
2.57536e+07
2.41992e+07
2.27655e+07
2.1554e+07
4.95301e+07
4.90686e+07
4.81116e+07
4.67706e+07
4.51311e+07
4.32802e+07
4.1281e+07
3.91981e+07
3.70816e+07
3.49694e+07
3.29067e+07
3.0896e+07
2.90014e+07
2.71749e+07
2.54956e+07
2.39658e+07
2.25806e+07
2.14813e+07
4.8866e+07
4.84047e+07
4.74524e+07
4.61208e+07
4.44932e+07
4.26568e+07
4.06734e+07
3.86098e+07
3.65123e+07
3.44243e+07
3.23818e+07
3.04018e+07
2.85298e+07
2.67393e+07
2.51121e+07
2.36047e+07
2.23247e+07
2.12616e+07
4.79182e+07
4.74543e+07
4.65115e+07
4.51934e+07
4.35836e+07
4.1767e+07
3.98083e+07
3.77702e+07
3.57028e+07
3.36445e+07
3.16362e+07
2.96903e+07
2.78565e+07
2.61125e+07
2.45347e+07
2.30967e+07
2.18709e+07
2.08157e+07
4.6625e+07
4.61599e+07
4.52326e+07
4.39307e+07
4.23471e+07
4.05561e+07
3.8633e+07
3.66283e+07
3.46037e+07
3.25843e+07
3.06244e+07
2.8724e+07
2.69415e+07
2.52553e+07
2.37344e+07
2.23563e+07
2.11889e+07
2.01621e+07
4.5185e+07
4.47214e+07
4.38105e+07
4.25265e+07
4.09715e+07
3.92102e+07
3.73255e+07
3.53598e+07
3.33805e+07
3.14072e+07
2.9497e+07
2.76503e+07
2.59193e+07
2.4296e+07
2.28237e+07
2.15087e+07
2.03739e+07
1.9415e+07
4.36723e+07
4.32122e+07
4.23175e+07
4.10533e+07
3.95278e+07
3.77989e+07
3.59537e+07
3.40303e+07
3.20971e+07
3.01733e+07
2.83141e+07
2.65229e+07
2.48456e+07
2.32831e+07
2.18627e+07
2.06037e+07
1.95108e+07
1.8613e+07
4.17348e+07
4.12815e+07
4.04062e+07
3.91696e+07
3.76805e+07
3.59956e+07
3.41991e+07
3.23318e+07
3.04558e+07
2.85969e+07
2.68004e+07
2.50807e+07
2.34694e+07
2.19815e+07
2.06273e+07
1.94359e+07
1.83997e+07
1.75478e+07
3.92896e+07
3.88463e+07
3.79946e+07
3.67946e+07
3.53514e+07
3.37235e+07
3.1989e+07
3.01927e+07
2.83898e+07
2.6611e+07
2.48948e+07
2.3261e+07
2.17334e+07
2.03315e+07
1.90603e+07
1.79456e+07
1.69762e+07
1.61703e+07
3.62704e+07
3.5842e+07
3.50184e+07
3.38674e+07
3.24814e+07
3.09267e+07
2.92695e+07
2.75622e+07
2.58498e+07
2.41698e+07
2.25517e+07
2.10208e+07
1.9594e+07
1.82912e+07
1.71164e+07
1.60859e+07
1.51921e+07
1.44393e+07
3.26624e+07
3.22526e+07
3.14654e+07
3.03755e+07
2.90617e+07
2.75959e+07
2.60345e+07
2.44336e+07
2.28312e+07
2.12677e+07
1.97662e+07
1.83543e+07
1.70437e+07
1.58531e+07
1.47847e+07
1.38477e+07
1.3037e+07
1.23492e+07
2.85565e+07
2.81694e+07
2.7429e+07
2.64113e+07
2.51858e+07
2.38235e+07
2.23759e+07
2.0897e+07
1.94227e+07
1.799e+07
1.66212e+07
1.53398e+07
1.41577e+07
1.30876e+07
1.21326e+07
1.12958e+07
1.05737e+07
9.95991e+06
2.42377e+07
2.38771e+07
2.31926e+07
2.22558e+07
2.11303e+07
1.98821e+07
1.85601e+07
1.72135e+07
1.58767e+07
1.45826e+07
1.33528e+07
1.22064e+07
1.11545e+07
1.0206e+07
9.36334e+06
8.62655e+06
7.99242e+06
7.45427e+06
2.02959e+07
1.99639e+07
1.9339e+07
1.84838e+07
1.74598e+07
1.63247e+07
1.51263e+07
1.39078e+07
1.27027e+07
1.15393e+07
1.04382e+07
9.41498e+06
8.4797e+06
7.63838e+06
6.89294e+06
6.24207e+06
5.68262e+06
5.20836e+06
1.77334e+07
1.7427e+07
1.68523e+07
1.60649e+07
1.51233e+07
1.40792e+07
1.29781e+07
1.18591e+07
1.07537e+07
9.68712e+06
8.67836e+06
7.74095e+06
6.88362e+06
6.11113e+06
5.42485e+06
4.8234e+06
4.3038e+06
3.86069e+06
1.7841e+07
1.75465e+07
1.69941e+07
1.62364e+07
1.53295e+07
1.43225e+07
1.3259e+07
1.2176e+07
1.11036e+07
1.00653e+07
9.07915e+06
8.15762e+06
7.30888e+06
6.53742e+06
5.84465e+06
5.22973e+06
4.69013e+06
4.22154e+06
2.0714e+07
2.04151e+07
1.98529e+07
1.90804e+07
1.81541e+07
1.71234e+07
1.60315e+07
1.49153e+07
1.38044e+07
1.27225e+07
1.1687e+07
1.07107e+07
9.80171e+06
8.96494e+06
8.20227e+06
7.51361e+06
6.89713e+06
6.34944e+06
2.51952e+07
2.48834e+07
2.42934e+07
2.34799e+07
2.25023e+07
2.14115e+07
2.0252e+07
1.90615e+07
1.78704e+07
1.67029e+07
1.5577e+07
1.45058e+07
1.34982e+07
1.25597e+07
1.16927e+07
1.0898e+07
1.01745e+07
9.51973e+06
3.02481e+07
2.99222e+07
2.92991e+07
2.84363e+07
2.73964e+07
2.62326e+07
2.49913e+07
2.37116e+07
2.24251e+07
2.11569e+07
1.9926e+07
1.87463e+07
1.76272e+07
1.6575e+07
1.55931e+07
1.46827e+07
1.38437e+07
1.30742e+07
3.51556e+07
3.48181e+07
3.4164e+07
3.32542e+07
3.21543e+07
3.09195e+07
2.95982e+07
2.8231e+07
2.68511e+07
2.54846e+07
2.41514e+07
2.28662e+07
2.16394e+07
2.04779e+07
1.93858e+07
1.83651e+07
1.74161e+07
1.65379e+07
3.94992e+07
3.91534e+07
3.84739e+07
3.75245e+07
3.63732e+07
3.50767e+07
3.36854e+07
3.22414e+07
3.07793e+07
2.9326e+07
2.79026e+07
2.65245e+07
2.52028e+07
2.39452e+07
2.27563e+07
2.16389e+07
2.05938e+07
1.96204e+07
4.30902e+07
4.27392e+07
4.20406e+07
4.10602e+07
3.98678e+07
3.85217e+07
3.70735e+07
3.55668e+07
3.40371e+07
3.25125e+07
3.10148e+07
2.95602e+07
2.81604e+07
2.68236e+07
2.55553e+07
2.43584e+07
2.32342e+07
2.21827e+07
4.58949e+07
4.5541e+07
4.48285e+07
4.38253e+07
4.26019e+07
4.12178e+07
3.97258e+07
3.81705e+07
3.65885e+07
3.50085e+07
3.3453e+07
3.19388e+07
3.04782e+07
2.908e+07
2.77497e+07
2.64909e+07
2.53053e+07
2.4193e+07
4.79702e+07
4.76148e+07
4.68927e+07
4.58734e+07
4.46277e+07
4.32159e+07
4.16918e+07
4.01009e+07
3.84804e+07
3.68596e+07
3.52615e+07
3.37035e+07
3.21982e+07
3.07546e+07
2.93788e+07
2.80745e+07
2.68436e+07
2.56865e+07
4.94172e+07
4.90609e+07
4.83321e+07
4.73019e+07
4.6041e+07
4.46103e+07
4.30643e+07
4.1449e+07
3.98018e+07
3.81528e+07
3.65253e+07
3.49369e+07
3.34005e+07
3.19256e+07
3.05181e+07
2.91823e+07
2.792e+07
2.67318e+07
5.03509e+07
4.99935e+07
4.92606e+07
4.82238e+07
4.69531e+07
4.55104e+07
4.39505e+07
4.23195e+07
4.06554e+07
3.89884e+07
3.7342e+07
3.57341e+07
3.41779e+07
3.26827e+07
3.1255e+07
2.98988e+07
2.86164e+07
2.74083e+07
5.08792e+07
5.05216e+07
4.97871e+07
4.87472e+07
4.74711e+07
4.60219e+07
4.44541e+07
4.28142e+07
4.11403e+07
3.94629e+07
3.78056e+07
3.61865e+07
3.46188e+07
3.3112e+07
3.16726e+07
3.03048e+07
2.90109e+07
2.77919e+07
5.11011e+07
5.07449e+07
5.00085e+07
4.89668e+07
4.76882e+07
4.62362e+07
4.4665e+07
4.30213e+07
4.13432e+07
3.96613e+07
3.79993e+07
3.63754e+07
3.48027e+07
3.3291e+07
3.18466e+07
3.04739e+07
2.91754e+07
2.79518e+07
6.04426e+07
6.03835e+07
6.0253e+07
6.00474e+07
5.9765e+07
5.94049e+07
5.89674e+07
5.84531e+07
5.78631e+07
5.71989e+07
5.64624e+07
5.56557e+07
5.47811e+07
5.3841e+07
5.28384e+07
5.17761e+07
5.06575e+07
4.94858e+07
4.8265e+07
4.69987e+07
4.5691e+07
4.4346e+07
4.29678e+07
4.15608e+07
4.01295e+07
3.86785e+07
3.72122e+07
3.5735e+07
3.42514e+07
3.2766e+07
3.12834e+07
2.98082e+07
2.83448e+07
2.6898e+07
2.54724e+07
2.40724e+07
2.27027e+07
2.13681e+07
2.00732e+07
1.88228e+07
1.76218e+07
1.64751e+07
1.53876e+07
1.43644e+07
1.34107e+07
1.25317e+07
1.17327e+07
1.10192e+07
1.03964e+07
9.86995e+06
9.44521e+06
9.12765e+06
8.92268e+06
8.83555e+06
8.87138e+06
9.03497e+06
9.3309e+06
9.76342e+06
1.03364e+07
1.1053e+07
1.19162e+07
1.29279e+07
1.40896e+07
1.54021e+07
1.68653e+07
1.84785e+07
2.02398e+07
2.2147e+07
2.41969e+07
2.63855e+07
2.87084e+07
3.11602e+07
3.37351e+07
3.64266e+07
3.92278e+07
4.21316e+07
4.51303e+07
4.82163e+07
5.13817e+07
5.46185e+07
5.79186e+07
6.12739e+07
6.46759e+07
6.81162e+07
7.15861e+07
7.50767e+07
7.85789e+07
8.20832e+07
8.55796e+07
8.90577e+07
9.25065e+07
9.59148e+07
9.92702e+07
1.0256e+08
1.05773e+08
1.08895e+08
1.11914e+08
1.14819e+08
1.17596e+08
1.20237e+08
1.22731e+08
1.25071e+08
1.27249e+08
1.2926e+08
1.311e+08
1.32767e+08
1.34261e+08
1.35585e+08
1.36744e+08
1.37746e+08
1.386e+08
1.39317e+08
1.39913e+08
1.404e+08
1.40795e+08
1.41116e+08
1.41382e+08
1.41615e+08
1.41838e+08
1.42079e+08
1.42366e+08
1.42733e+08
1.43216e+08
1.43855e+08
1.44694e+08
1.4578e+08
1.47167e+08
1.4891e+08
1.51071e+08
1.53712e+08
1.56896e+08
1.60685e+08
1.65142e+08
1.70322e+08
1.76279e+08
1.83059e+08
1.90698e+08
1.99222e+08
2.08647e+08
2.18974e+08
2.302e+08
2.42299e+08
2.55247e+08
2.68999e+08
2.83514e+08
2.98729e+08
3.14596e+08
3.31043e+08
3.48007e+08
3.65413e+08
3.83188e+08
4.01247e+08
4.19501e+08
4.37856e+08
4.5619e+08
4.74364e+08
4.92214e+08
5.09571e+08
5.26202e+08
5.41873e+08
5.56284e+08
5.69134e+08
5.80084e+08
5.88811e+08
5.94978e+08
5.9829e+08
5.98484e+08
5.9538e+08
5.88851e+08
5.78924e+08
5.65677e+08
5.49377e+08
5.30342e+08
5.09066e+08
4.86023e+08
4.61739e+08
4.3658e+08
4.10983e+08
3.85156e+08
3.59426e+08
5.93689e+07
5.93134e+07
5.91883e+07
5.89886e+07
5.87127e+07
5.83602e+07
5.7932e+07
5.7429e+07
5.68526e+07
5.6204e+07
5.54851e+07
5.46977e+07
5.38442e+07
5.29268e+07
5.19482e+07
5.09111e+07
4.98185e+07
4.86738e+07
4.74805e+07
4.62423e+07
4.49631e+07
4.36469e+07
4.22977e+07
4.09199e+07
3.95178e+07
3.80959e+07
3.66583e+07
3.52096e+07
3.37539e+07
3.22958e+07
3.08398e+07
2.93903e+07
2.79519e+07
2.65292e+07
2.51265e+07
2.37486e+07
2.23997e+07
2.10847e+07
1.98082e+07
1.85749e+07
1.73896e+07
1.62573e+07
1.51828e+07
1.41713e+07
1.32278e+07
1.23576e+07
1.15659e+07
1.08582e+07
1.02399e+07
9.7164e+06
9.2932e+06
8.97574e+06
8.76938e+06
8.67938e+06
8.71084e+06
8.86865e+06
9.15739e+06
9.58127e+06
1.01441e+07
1.08492e+07
1.16992e+07
1.26964e+07
1.3842e+07
1.51369e+07
1.65809e+07
1.81734e+07
1.99125e+07
2.17958e+07
2.38203e+07
2.59821e+07
2.82765e+07
3.06984e+07
3.32418e+07
3.59003e+07
3.86672e+07
4.15352e+07
4.44969e+07
4.75447e+07
5.06706e+07
5.38667e+07
5.71249e+07
6.04371e+07
6.3795e+07
6.71903e+07
7.06142e+07
7.40581e+07
7.75126e+07
8.09686e+07
8.44161e+07
8.78447e+07
9.12437e+07
9.46017e+07
9.7907e+07
1.01147e+08
1.0431e+08
1.07383e+08
1.10353e+08
1.1321e+08
1.15942e+08
1.18538e+08
1.20989e+08
1.23288e+08
1.25428e+08
1.27403e+08
1.29211e+08
1.30848e+08
1.32315e+08
1.33614e+08
1.34751e+08
1.35734e+08
1.36572e+08
1.37276e+08
1.3786e+08
1.38338e+08
1.38724e+08
1.39038e+08
1.39297e+08
1.39523e+08
1.39738e+08
1.39969e+08
1.40245e+08
1.40598e+08
1.41064e+08
1.41681e+08
1.42494e+08
1.43548e+08
1.44895e+08
1.46592e+08
1.48697e+08
1.51274e+08
1.54383e+08
1.58088e+08
1.62448e+08
1.67519e+08
1.73354e+08
1.79997e+08
1.87486e+08
1.95846e+08
2.05093e+08
2.1523e+08
2.26249e+08
2.38131e+08
2.50849e+08
2.64362e+08
2.78628e+08
2.93584e+08
3.09182e+08
3.25358e+08
3.42046e+08
3.59172e+08
3.76665e+08
3.94443e+08
4.1242e+08
4.30503e+08
4.48571e+08
4.66489e+08
4.84094e+08
5.01223e+08
5.1765e+08
5.33139e+08
5.47405e+08
5.60149e+08
5.71035e+08
5.79745e+08
5.85953e+08
5.89366e+08
5.89727e+08
5.86859e+08
5.80631e+08
5.71055e+08
5.58203e+08
5.4233e+08
5.23742e+08
5.02922e+08
4.80328e+08
4.56475e+08
4.31727e+08
4.06512e+08
3.81038e+08
3.55547e+08
5.73062e+07
5.72532e+07
5.71338e+07
5.69425e+07
5.66781e+07
5.6341e+07
5.59324e+07
5.54532e+07
5.49044e+07
5.42872e+07
5.36031e+07
5.28538e+07
5.20412e+07
5.11673e+07
5.02344e+07
4.9245e+07
4.82021e+07
4.71085e+07
4.59677e+07
4.4783e+07
4.35582e+07
4.22971e+07
4.10037e+07
3.96819e+07
3.83359e+07
3.69695e+07
3.55868e+07
3.41921e+07
3.27896e+07
3.13837e+07
2.99786e+07
2.85787e+07
2.71884e+07
2.5812e+07
2.4454e+07
2.31185e+07
2.181e+07
2.0533e+07
1.92922e+07
1.80921e+07
1.69375e+07
1.58332e+07
1.47841e+07
1.37951e+07
1.28715e+07
1.20183e+07
1.1241e+07
1.05449e+07
9.93529e+06
9.41769e+06
8.99753e+06
8.68024e+06
8.47123e+06
8.37574e+06
8.39886e+06
8.54549e+06
8.82017e+06
9.22714e+06
9.77021e+06
1.04526e+07
1.12771e+07
1.22457e+07
1.33598e+07
1.46202e+07
1.60266e+07
1.75783e+07
1.92736e+07
2.11101e+07
2.30847e+07
2.51936e+07
2.74321e+07
2.97951e+07
3.22767e+07
3.48707e+07
3.75702e+07
4.03683e+07
4.32575e+07
4.62304e+07
4.92793e+07
5.23961e+07
5.55729e+07
5.88016e+07
6.20741e+07
6.5382e+07
6.8717e+07
7.20701e+07
7.54326e+07
7.87951e+07
8.21479e+07
8.54808e+07
8.87833e+07
9.20441e+07
9.52519e+07
9.83947e+07
1.0146e+08
1.04437e+08
1.07313e+08
1.10076e+08
1.12717e+08
1.15226e+08
1.17593e+08
1.19812e+08
1.21877e+08
1.23782e+08
1.25525e+08
1.27103e+08
1.28516e+08
1.29768e+08
1.30863e+08
1.31809e+08
1.32616e+08
1.33294e+08
1.33856e+08
1.34315e+08
1.34685e+08
1.34984e+08
1.35228e+08
1.35439e+08
1.35639e+08
1.35851e+08
1.36104e+08
1.36429e+08
1.36859e+08
1.37433e+08
1.38191e+08
1.3918e+08
1.40449e+08
1.42052e+08
1.44047e+08
1.46494e+08
1.49455e+08
1.52991e+08
1.57158e+08
1.62013e+08
1.67605e+08
1.73979e+08
1.81169e+08
1.89205e+08
1.981e+08
2.07856e+08
2.18469e+08
2.2992e+08
2.42184e+08
2.55224e+08
2.68994e+08
2.83439e+08
2.98504e+08
3.1414e+08
3.30278e+08
3.46847e+08
3.63776e+08
3.80994e+08
3.98414e+08
4.15945e+08
4.33472e+08
4.50867e+08
4.6797e+08
4.84622e+08
5.0061e+08
5.15702e+08
5.29634e+08
5.42112e+08
5.52815e+08
5.6144e+08
5.67669e+08
5.71228e+08
5.71867e+08
5.69413e+08
5.63731e+08
5.54808e+08
5.42718e+08
5.27682e+08
5.09988e+08
4.90089e+08
4.68413e+08
4.45442e+08
4.21546e+08
3.97126e+08
3.72406e+08
3.47557e+08
5.44161e+07
5.43668e+07
5.42548e+07
5.40757e+07
5.38291e+07
5.35158e+07
5.31367e+07
5.26922e+07
5.21832e+07
5.16105e+07
5.09753e+07
5.02788e+07
4.95226e+07
4.87083e+07
4.78381e+07
4.69142e+07
4.59393e+07
4.4916e+07
4.38475e+07
4.27369e+07
4.15877e+07
4.04033e+07
3.91874e+07
3.79435e+07
3.66751e+07
3.53859e+07
3.40796e+07
3.27604e+07
3.14321e+07
3.00991e+07
2.87653e+07
2.74349e+07
2.61119e+07
2.48004e+07
2.35045e+07
2.22283e+07
2.09762e+07
1.97525e+07
1.85616e+07
1.7408e+07
1.62964e+07
1.52314e+07
1.42179e+07
1.32608e+07
1.23652e+07
1.15363e+07
1.07792e+07
1.00994e+07
9.50208e+06
8.99283e+06
8.57702e+06
8.26008e+06
8.04737e+06
7.94412e+06
7.9554e+06
8.0861e+06
8.34081e+06
8.72372e+06
9.23858e+06
9.88862e+06
1.06765e+07
1.16044e+07
1.26735e+07
1.38845e+07
1.52374e+07
1.67311e+07
1.83641e+07
2.0134e+07
2.20378e+07
2.40716e+07
2.62308e+07
2.85105e+07
3.0905e+07
3.34079e+07
3.60126e+07
3.87124e+07
4.14999e+07
4.43679e+07
4.73089e+07
5.03148e+07
5.33779e+07
5.64904e+07
5.9644e+07
6.28307e+07
6.60419e+07
6.92692e+07
7.25039e+07
7.57367e+07
7.89582e+07
8.21584e+07
8.53268e+07
8.84526e+07
9.15249e+07
9.45319e+07
9.74623e+07
1.00304e+08
1.03047e+08
1.05681e+08
1.08194e+08
1.10579e+08
1.12828e+08
1.14934e+08
1.16893e+08
1.18698e+08
1.20347e+08
1.2184e+08
1.23177e+08
1.24361e+08
1.25397e+08
1.26291e+08
1.27052e+08
1.27692e+08
1.28221e+08
1.28652e+08
1.28998e+08
1.29274e+08
1.29496e+08
1.29684e+08
1.2986e+08
1.30045e+08
1.30264e+08
1.30548e+08
1.30926e+08
1.31435e+08
1.32115e+08
1.33011e+08
1.34168e+08
1.35639e+08
1.37478e+08
1.39745e+08
1.42495e+08
1.45792e+08
1.49688e+08
1.54238e+08
1.59489e+08
1.65484e+08
1.72257e+08
1.79838e+08
1.88239e+08
1.97466e+08
2.07511e+08
2.18361e+08
2.29992e+08
2.42373e+08
2.55455e+08
2.69189e+08
2.83521e+08
2.98408e+08
3.13786e+08
3.29588e+08
3.45742e+08
3.62187e+08
3.78839e+08
3.95608e+08
4.12384e+08
4.29051e+08
4.45454e+08
4.61438e+08
4.76805e+08
4.91332e+08
5.04772e+08
5.16848e+08
5.2726e+08
5.35725e+08
5.41939e+08
5.45645e+08
5.46604e+08
5.44648e+08
5.39645e+08
5.31566e+08
5.20471e+08
5.06549e+08
4.90062e+08
4.71422e+08
4.51014e+08
4.29281e+08
4.06583e+08
3.83295e+08
3.59656e+08
3.35816e+08
5.08985e+07
5.08546e+07
5.07527e+07
5.05899e+07
5.03665e+07
5.00829e+07
4.97394e+07
4.93365e+07
4.88748e+07
4.83548e+07
4.77772e+07
4.7143e+07
4.64536e+07
4.57102e+07
4.49149e+07
4.40695e+07
4.31762e+07
4.22377e+07
4.12563e+07
4.02352e+07
3.91773e+07
3.80855e+07
3.69631e+07
3.58129e+07
3.46381e+07
3.34422e+07
3.22287e+07
3.10013e+07
2.97638e+07
2.85199e+07
2.72733e+07
2.60277e+07
2.47869e+07
2.35546e+07
2.23347e+07
2.11311e+07
1.99479e+07
1.87893e+07
1.76595e+07
1.65629e+07
1.55039e+07
1.44871e+07
1.35173e+07
1.25994e+07
1.17382e+07
1.09388e+07
1.02066e+07
9.54665e+06
8.96445e+06
8.46538e+06
8.05482e+06
7.73818e+06
7.5208e+06
7.40791e+06
7.40455e+06
7.51555e+06
7.74545e+06
8.09839e+06
8.5781e+06
9.18781e+06
9.93017e+06
1.08072e+07
1.18202e+07
1.29699e+07
1.4256e+07
1.56776e+07
1.72331e+07
1.89202e+07
2.07359e+07
2.26764e+07
2.47374e+07
2.69139e+07
2.92002e+07
3.15902e+07
3.40777e+07
3.66558e+07
3.93177e+07
4.2056e+07
4.48636e+07
4.77326e+07
5.06556e+07
5.36247e+07
5.6632e+07
5.96694e+07
6.27288e+07
6.58017e+07
6.88796e+07
7.19536e+07
7.50142e+07
7.80519e+07
8.10566e+07
8.40179e+07
8.6925e+07
8.97668e+07
9.25323e+07
9.5211e+07
9.77924e+07
1.00267e+08
1.02626e+08
1.0486e+08
1.06963e+08
1.08931e+08
1.10758e+08
1.1244e+08
1.13975e+08
1.15362e+08
1.16604e+08
1.17704e+08
1.18664e+08
1.19492e+08
1.20197e+08
1.20787e+08
1.21274e+08
1.21667e+08
1.2198e+08
1.22226e+08
1.2242e+08
1.22579e+08
1.22721e+08
1.22869e+08
1.23046e+08
1.23276e+08
1.2359e+08
1.24022e+08
1.24607e+08
1.25388e+08
1.26408e+08
1.27718e+08
1.29368e+08
1.31414e+08
1.33909e+08
1.36913e+08
1.40479e+08
1.44657e+08
1.49494e+08
1.5503e+08
1.61299e+08
1.68328e+08
1.76134e+08
1.8472e+08
1.94083e+08
2.04209e+08
2.15077e+08
2.26663e+08
2.38919e+08
2.51803e+08
2.65258e+08
2.79249e+08
2.93718e+08
3.08605e+08
3.23838e+08
3.39359e+08
3.55092e+08
3.70949e+08
3.86825e+08
4.02611e+08
4.18166e+08
4.33339e+08
4.47948e+08
4.61784e+08
4.7461e+08
4.86174e+08
4.96206e+08
5.04435e+08
5.10584e+08
5.14409e+08
5.15685e+08
5.14259e+08
5.10002e+08
5.0287e+08
4.92909e+08
4.8027e+08
4.65193e+08
4.48036e+08
4.2914e+08
4.08909e+08
3.87671e+08
3.65778e+08
3.43477e+08
3.20928e+08
4.69761e+07
4.69391e+07
4.68498e+07
4.67061e+07
4.65087e+07
4.62577e+07
4.59533e+07
4.55959e+07
4.51855e+07
4.47225e+07
4.42074e+07
4.36411e+07
4.30245e+07
4.23588e+07
4.16454e+07
4.08862e+07
4.00828e+07
3.92374e+07
3.83523e+07
3.74299e+07
3.64727e+07
3.54832e+07
3.44638e+07
3.34173e+07
3.23465e+07
3.12543e+07
3.01442e+07
2.90193e+07
2.7883e+07
2.67385e+07
2.55892e+07
2.44383e+07
2.32894e+07
2.21457e+07
2.1011e+07
1.98888e+07
1.87831e+07
1.76978e+07
1.66368e+07
1.56044e+07
1.46047e+07
1.36424e+07
1.27218e+07
1.18479e+07
1.10254e+07
1.02594e+07
9.55502e+06
8.91751e+06
8.3522e+06
7.86446e+06
7.45966e+06
7.14317e+06
6.92033e+06
6.79631e+06
6.7761e+06
6.86449e+06
7.06597e+06
7.38466e+06
7.82418e+06
8.38774e+06
9.07792e+06
9.89672e+06
1.08455e+07
1.19247e+07
1.31343e+07
1.44734e+07
1.59402e+07
1.75326e+07
1.92476e+07
2.10814e+07
2.303e+07
2.50883e+07
2.7251e+07
2.95122e+07
3.18656e+07
3.43049e+07
3.68232e+07
3.94136e+07
4.2069e+07
4.47819e+07
4.75449e+07
5.03505e+07
5.31909e+07
5.60583e+07
5.89448e+07
6.18421e+07
6.47417e+07
6.76351e+07
7.05132e+07
7.33665e+07
7.61855e+07
7.89603e+07
8.16807e+07
8.4336e+07
8.6916e+07
8.94108e+07
9.18111e+07
9.41079e+07
9.62928e+07
9.83585e+07
1.00299e+08
1.0211e+08
1.03789e+08
1.05331e+08
1.06737e+08
1.08006e+08
1.0914e+08
1.10142e+08
1.11016e+08
1.11768e+08
1.12405e+08
1.12936e+08
1.13371e+08
1.13719e+08
1.13991e+08
1.14198e+08
1.14356e+08
1.14479e+08
1.14582e+08
1.14685e+08
1.1481e+08
1.14979e+08
1.1522e+08
1.15563e+08
1.16044e+08
1.16696e+08
1.17563e+08
1.18691e+08
1.20129e+08
1.21928e+08
1.24138e+08
1.26815e+08
1.30012e+08
1.33775e+08
1.38149e+08
1.43173e+08
1.4888e+08
1.55299e+08
1.62443e+08
1.70319e+08
1.78927e+08
1.88254e+08
1.98281e+08
2.08987e+08
2.20335e+08
2.32283e+08
2.44779e+08
2.57789e+08
2.71264e+08
2.85147e+08
2.99371e+08
3.1388e+08
3.28602e+08
3.43454e+08
3.58337e+08
3.7315e+08
3.87764e+08
4.02033e+08
4.1579e+08
4.28845e+08
4.40968e+08
4.51933e+08
4.61504e+08
4.69426e+08
4.75449e+08
4.79339e+08
4.80897e+08
4.79985e+08
4.76474e+08
4.70314e+08
4.61528e+08
4.50245e+08
4.36671e+08
4.21115e+08
4.03871e+08
3.85305e+08
3.657e+08
3.45381e+08
3.24599e+08
3.03544e+08
4.28734e+07
4.28439e+07
4.27681e+07
4.26448e+07
4.24744e+07
4.22571e+07
4.19929e+07
4.16819e+07
4.1324e+07
4.09192e+07
4.04681e+07
3.99714e+07
3.94297e+07
3.88438e+07
3.82151e+07
3.75447e+07
3.68342e+07
3.60852e+07
3.52998e+07
3.44796e+07
3.36266e+07
3.27429e+07
3.18304e+07
3.08916e+07
2.99289e+07
2.89449e+07
2.79426e+07
2.69247e+07
2.58941e+07
2.48535e+07
2.3806e+07
2.27544e+07
2.17018e+07
2.06512e+07
1.96061e+07
1.85698e+07
1.75458e+07
1.65378e+07
1.55494e+07
1.45848e+07
1.36479e+07
1.27429e+07
1.18745e+07
1.10471e+07
1.02655e+07
9.53468e+06
8.85974e+06
8.24585e+06
7.69829e+06
7.22241e+06
6.82352e+06
6.50695e+06
6.27799e+06
6.14178e+06
6.10328e+06
6.16722e+06
6.33804e+06
6.61977e+06
7.01601e+06
7.52988e+06
8.16391e+06
8.92002e+06
9.79949e+06
1.08029e+07
1.19301e+07
1.31801e+07
1.45514e+07
1.60416e+07
1.76479e+07
1.93667e+07
2.11939e+07
2.31247e+07
2.5154e+07
2.72759e+07
2.94847e+07
3.17739e+07
3.41371e+07
3.65676e+07
3.90585e+07
4.16026e+07
4.41927e+07
4.68216e+07
4.94816e+07
5.21653e+07
5.4865e+07
5.75725e+07
6.02797e+07
6.29783e+07
6.56594e+07
6.8314e+07
7.09332e+07
7.35073e+07
7.60269e+07
7.84821e+07
8.08634e+07
8.31619e+07
8.53688e+07
8.74763e+07
8.94767e+07
9.13639e+07
9.31323e+07
9.47784e+07
9.62995e+07
9.76943e+07
9.89625e+07
1.00105e+08
1.01122e+08
1.02019e+08
1.02799e+08
1.03467e+08
1.0403e+08
1.04495e+08
1.0487e+08
1.05165e+08
1.05388e+08
1.05552e+08
1.05667e+08
1.05747e+08
1.05805e+08
1.05858e+08
1.05925e+08
1.06027e+08
1.06189e+08
1.06439e+08
1.06806e+08
1.07323e+08
1.08029e+08
1.08966e+08
1.10179e+08
1.11717e+08
1.13627e+08
1.15963e+08
1.18771e+08
1.22098e+08
1.25986e+08
1.30472e+08
1.35592e+08
1.4137e+08
1.47823e+08
1.54959e+08
1.62778e+08
1.71273e+08
1.80427e+08
1.90223e+08
2.00628e+08
2.11607e+08
2.23112e+08
2.35113e+08
2.47561e+08
2.60406e+08
2.73588e+08
2.87052e+08
3.00727e+08
3.14534e+08
3.28384e+08
3.42182e+08
3.55809e+08
3.69122e+08
3.8197e+08
3.94179e+08
4.05539e+08
4.15843e+08
4.24878e+08
4.32422e+08
4.38247e+08
4.42134e+08
4.4391e+08
4.43453e+08
4.40637e+08
4.35402e+08
4.27758e+08
4.1782e+08
4.05755e+08
3.91827e+08
3.76282e+08
3.59446e+08
3.41555e+08
3.22909e+08
3.03753e+08
2.84309e+08
3.88032e+07
3.87811e+07
3.87186e+07
3.86154e+07
3.84717e+07
3.82875e+07
3.80625e+07
3.77966e+07
3.74898e+07
3.71421e+07
3.67538e+07
3.63252e+07
3.58569e+07
3.53494e+07
3.48035e+07
3.42204e+07
3.3601e+07
3.29467e+07
3.22589e+07
3.15388e+07
3.07881e+07
3.00082e+07
2.92011e+07
2.83685e+07
2.75126e+07
2.66357e+07
2.57401e+07
2.48282e+07
2.39022e+07
2.29648e+07
2.20182e+07
2.10652e+07
2.01085e+07
1.91507e+07
1.81949e+07
1.72442e+07
1.63017e+07
1.53708e+07
1.4455e+07
1.3558e+07
1.26837e+07
1.18362e+07
1.10197e+07
1.02389e+07
9.4982e+06
8.80259e+06
8.15707e+06
7.56674e+06
7.03683e+06
6.57263e+06
6.17941e+06
5.86245e+06
5.62697e+06
5.47807e+06
5.42067e+06
5.45946e+06
5.5988e+06
5.84264e+06
6.19452e+06
6.65749e+06
7.23399e+06
7.92589e+06
8.7344e+06
9.66007e+06
1.07027e+07
1.18614e+07
1.31345e+07
1.45198e+07
1.60144e+07
1.76148e+07
1.93171e+07
2.11166e+07
2.30083e+07
2.49867e+07
2.70461e+07
2.91804e+07
3.13833e+07
3.36484e+07
3.5969e+07
3.83383e+07
4.07493e+07
4.31951e+07
4.56682e+07
4.81614e+07
5.06672e+07
5.31779e+07
5.56854e+07
5.81819e+07
6.06588e+07
6.31077e+07
6.552e+07
6.78866e+07
7.01988e+07
7.24477e+07
7.46245e+07
7.67211e+07
7.87297e+07
8.06433e+07
8.24552e+07
8.41602e+07
8.57533e+07
8.72317e+07
8.85931e+07
8.98373e+07
9.09651e+07
9.1977e+07
9.28751e+07
9.36626e+07
9.43437e+07
9.4923e+07
9.54063e+07
9.58001e+07
9.61108e+07
9.63466e+07
9.65167e+07
9.66304e+07
9.66974e+07
9.6729e+07
9.67373e+07
9.67364e+07
9.67422e+07
9.67753e+07
9.68557e+07
9.70081e+07
9.72601e+07
9.76409e+07
9.8184e+07
9.89289e+07
9.9917e+07
1.01194e+08
1.02805e+08
1.04797e+08
1.07215e+08
1.10103e+08
1.13504e+08
1.17454e+08
1.21985e+08
1.27123e+08
1.32886e+08
1.39283e+08
1.46318e+08
1.53987e+08
1.62274e+08
1.71168e+08
1.80641e+08
1.9066e+08
2.01187e+08
2.12192e+08
2.23629e+08
2.35449e+08
2.47599e+08
2.60026e+08
2.72661e+08
2.85431e+08
2.98252e+08
3.11033e+08
3.2366e+08
3.36e+08
3.47916e+08
3.59248e+08
3.69805e+08
3.79401e+08
3.87843e+08
3.94939e+08
4.00488e+08
4.04292e+08
4.06202e+08
4.06106e+08
4.03888e+08
3.99483e+08
3.92894e+08
3.84219e+08
3.73593e+08
3.61243e+08
3.47368e+08
3.32247e+08
3.16078e+08
2.99131e+08
2.81639e+08
2.63855e+08
3.49521e+07
3.49369e+07
3.48866e+07
3.48021e+07
3.46832e+07
3.45298e+07
3.43415e+07
3.4118e+07
3.38592e+07
3.35651e+07
3.32356e+07
3.28709e+07
3.24713e+07
3.20372e+07
3.15691e+07
3.10677e+07
3.05338e+07
2.99682e+07
2.93718e+07
2.87458e+07
2.80912e+07
2.74092e+07
2.67013e+07
2.59689e+07
2.52139e+07
2.4438e+07
2.36432e+07
2.28313e+07
2.20043e+07
2.11643e+07
2.03134e+07
1.94537e+07
1.85878e+07
1.7718e+07
1.6847e+07
1.59775e+07
1.51123e+07
1.42546e+07
1.34077e+07
1.25749e+07
1.17601e+07
1.09672e+07
1.02002e+07
9.46352e+06
8.76172e+06
8.09957e+06
7.48195e+06
6.91393e+06
6.40063e+06
5.94729e+06
5.55913e+06
5.24135e+06
4.99915e+06
4.83759e+06
4.76152e+06
4.77555e+06
4.88398e+06
5.09071e+06
5.39917e+06
5.81227e+06
6.33242e+06
6.96141e+06
7.70036e+06
8.54973e+06
9.5093e+06
1.05781e+07
1.17546e+07
1.30365e+07
1.44209e+07
1.59044e+07
1.74831e+07
1.91526e+07
2.0908e+07
2.27441e+07
2.46551e+07
2.66353e+07
2.86786e+07
3.07788e+07
3.29295e+07
3.51241e+07
3.73561e+07
3.96185e+07
4.19043e+07
4.42065e+07
4.65178e+07
4.88308e+07
5.11379e+07
5.34314e+07
5.57034e+07
5.79457e+07
6.01505e+07
6.23092e+07
6.44138e+07
6.64564e+07
6.84289e+07
7.03241e+07
7.2135e+07
7.38554e+07
7.54797e+07
7.70035e+07
7.84228e+07
7.97347e+07
8.09385e+07
8.20341e+07
8.30224e+07
8.39047e+07
8.46831e+07
8.53606e+07
8.59413e+07
8.64297e+07
8.6831e+07
8.71503e+07
8.73931e+07
8.75663e+07
8.76783e+07
8.77375e+07
8.7752e+07
8.77315e+07
8.76864e+07
8.76285e+07
8.75722e+07
8.75346e+07
8.75334e+07
8.759e+07
8.77289e+07
8.79768e+07
8.83635e+07
8.89247e+07
8.96981e+07
9.07248e+07
9.20473e+07
9.37085e+07
9.57511e+07
9.82179e+07
1.01149e+08
1.04581e+08
1.08544e+08
1.13065e+08
1.18164e+08
1.23852e+08
1.30134e+08
1.3701e+08
1.44469e+08
1.52501e+08
1.61083e+08
1.70187e+08
1.79781e+08
1.89837e+08
2.00311e+08
2.11154e+08
2.22316e+08
2.33747e+08
2.45384e+08
2.57155e+08
2.68979e+08
2.80767e+08
2.92412e+08
3.03788e+08
3.14774e+08
3.25219e+08
3.34954e+08
3.43811e+08
3.51616e+08
3.58202e+08
3.63401e+08
3.67032e+08
3.68975e+08
3.69126e+08
3.67381e+08
3.6368e+08
3.58021e+08
3.50482e+08
3.41176e+08
3.30295e+08
3.17999e+08
3.04518e+08
2.90019e+08
2.74737e+08
2.58892e+08
2.42759e+08
3.14717e+07
3.14621e+07
3.14225e+07
3.13545e+07
3.12578e+07
3.1132e+07
3.09767e+07
3.07915e+07
3.05761e+07
3.03303e+07
3.00538e+07
2.97468e+07
2.94093e+07
2.90414e+07
2.86434e+07
2.82156e+07
2.77586e+07
2.72727e+07
2.67587e+07
2.62173e+07
2.56492e+07
2.50555e+07
2.4437e+07
2.37951e+07
2.31311e+07
2.24464e+07
2.17425e+07
2.10209e+07
2.02833e+07
1.95312e+07
1.87667e+07
1.79915e+07
1.72076e+07
1.64172e+07
1.56227e+07
1.48265e+07
1.40313e+07
1.32397e+07
1.2455e+07
1.16804e+07
1.09194e+07
1.01758e+07
9.45352e+06
8.75681e+06
8.09012e+06
7.45812e+06
6.86563e+06
6.31761e+06
5.81911e+06
5.37528e+06
4.99129e+06
4.67229e+06
4.42343e+06
4.24973e+06
4.15597e+06
4.1467e+06
4.22611e+06
4.39801e+06
4.66571e+06
5.03205e+06
5.49929e+06
6.06913e+06
6.74262e+06
7.52013e+06
8.40135e+06
9.38529e+06
1.04703e+07
1.16541e+07
1.29339e+07
1.43062e+07
1.57671e+07
1.73126e+07
1.89376e+07
2.06372e+07
2.24058e+07
2.42378e+07
2.61274e+07
2.80684e+07
3.00547e+07
3.20801e+07
3.41382e+07
3.62224e+07
3.83259e+07
4.04419e+07
4.25634e+07
4.46834e+07
4.67947e+07
4.88899e+07
5.09617e+07
5.30022e+07
5.50042e+07
5.696e+07
5.88621e+07
6.07033e+07
6.24766e+07
6.41753e+07
6.57934e+07
6.73256e+07
6.87673e+07
7.01148e+07
7.13649e+07
7.25155e+07
7.35663e+07
7.45172e+07
7.53699e+07
7.61255e+07
7.67863e+07
7.73552e+07
7.7836e+07
7.82331e+07
7.85509e+07
7.87935e+07
7.8966e+07
7.90745e+07
7.91258e+07
7.91272e+07
7.90861e+07
7.90104e+07
7.89094e+07
7.87931e+07
7.86743e+07
7.85674e+07
7.84874e+07
7.8453e+07
7.84856e+07
7.86097e+07
7.8852e+07
7.9244e+07
7.98196e+07
8.06155e+07
8.16706e+07
8.30254e+07
8.47198e+07
8.67943e+07
8.92878e+07
9.22358e+07
9.56691e+07
9.96139e+07
1.04092e+08
1.09119e+08
1.14699e+08
1.20838e+08
1.27526e+08
1.34759e+08
1.42516e+08
1.50773e+08
1.59502e+08
1.68677e+08
1.78258e+08
1.88196e+08
1.98439e+08
2.08941e+08
2.19644e+08
2.30473e+08
2.41353e+08
2.52193e+08
2.62893e+08
2.73335e+08
2.83407e+08
2.92971e+08
3.0188e+08
3.09979e+08
3.17114e+08
3.23139e+08
3.27917e+08
3.31286e+08
3.33153e+08
3.33429e+08
3.32023e+08
3.28884e+08
3.24007e+08
3.17452e+08
3.09317e+08
2.99759e+08
2.88908e+08
2.76948e+08
2.64021e+08
2.50324e+08
2.36064e+08
2.21527e+08
2.84718e+07
2.84663e+07
2.84354e+07
2.83812e+07
2.83035e+07
2.82014e+07
2.80747e+07
2.79227e+07
2.77451e+07
2.75413e+07
2.73111e+07
2.70543e+07
2.67707e+07
2.64603e+07
2.61231e+07
2.57591e+07
2.53686e+07
2.49518e+07
2.45091e+07
2.40408e+07
2.35475e+07
2.30298e+07
2.24886e+07
2.19247e+07
2.13391e+07
2.0733e+07
2.01074e+07
1.94636e+07
1.88028e+07
1.81265e+07
1.74363e+07
1.67336e+07
1.60203e+07
1.52981e+07
1.45694e+07
1.38361e+07
1.31008e+07
1.23661e+07
1.16349e+07
1.09102e+07
1.01954e+07
9.49414e+06
8.81024e+06
8.14779e+06
7.51117e+06
6.90494e+06
6.33385e+06
5.80278e+06
5.31669e+06
4.88067e+06
4.49984e+06
4.17932e+06
3.92416e+06
3.73933e+06
3.62953e+06
3.59921e+06
3.65251e+06
3.7931e+06
4.02421e+06
4.34852e+06
4.76818e+06
5.28475e+06
5.89917e+06
6.61168e+06
7.42187e+06
8.32866e+06
9.33034e+06
1.04246e+07
1.16086e+07
1.28788e+07
1.42314e+07
1.56622e+07
1.71666e+07
1.87395e+07
2.03756e+07
2.20694e+07
2.38151e+07
2.56068e+07
2.74385e+07
2.93042e+07
3.11979e+07
3.31132e+07
3.50436e+07
3.69826e+07
3.89235e+07
4.08595e+07
4.27839e+07
4.46896e+07
4.65699e+07
4.84175e+07
5.02255e+07
5.19871e+07
5.36954e+07
5.5344e+07
5.69264e+07
5.8437e+07
5.98706e+07
6.12227e+07
6.24899e+07
6.36687e+07
6.4757e+07
6.57532e+07
6.66572e+07
6.74694e+07
6.81913e+07
6.88245e+07