/*--------------------------------*- C++ -*----------------------------------*\
| =========                 |                                                 |
| \\      /  F ield         | OpenFOAM: The Open Source CFD Toolbox           |
|  \\    /   O peration     | Version:  dev                                   |
|   \\  /    A nd           | Web:      http://www.openfoam.org               |
|    \\/     M anipulation  |                                                 |
\*---------------------------------------------------------------------------*/
FoamFile
{
    version     2.0;
    format      ascii;
    class       volScalarField;
    object      rho;
    location    "9.165";
}
// * * * * * * * * * * * * * * * * * * * * * * * * * * * * * * * * * * * * * //

dimensions      [1 -3 0 0 0 0 0];

internalField   nonuniform List<scalar> 
12225
(
1.19058
1.19143
1.19263
1.19365
1.19421
1.19487
1.19427
1.19487
1.19307
1.19388
1.19086
1.19213
1.18762
1.19019
1.18364
1.18637
1.18457
1.17531
1.18999
1.19224
1.19457
1.19732
1.19825
1.20116
1.19997
1.20325
1.1995
1.20365
1.19734
1.2031
1.1939
1.20169
1.19123
1.19722
1.19393
1.18621
1.18933
1.1925
1.19398
1.1979
1.19793
1.20244
1.20093
1.20572
1.20219
1.20707
1.20174
1.20646
1.19995
1.2032
1.19721
1.19868
1.19506
1.18728
1.18895
1.19309
1.19357
1.19745
1.19754
1.20096
1.20097
1.20349
1.20312
1.20458
1.20345
1.20397
1.20191
1.20166
1.19887
1.19867
1.19567
1.19183
1.18893
1.1924
1.19415
1.1962
1.19817
1.19913
1.20106
1.20127
1.20267
1.20227
1.20279
1.20206
1.20152
1.20052
1.19848
1.19729
1.19465
1.19624
1.18987
1.19089
1.19434
1.19423
1.19824
1.19726
1.20111
1.20005
1.20275
1.20098
1.20263
1.20093
1.20123
1.19942
1.19801
1.19595
1.19323
1.19355
1.19048
1.18946
1.19473
1.19287
1.19821
1.19556
1.20053
1.19859
1.20208
1.19959
1.20199
1.1997
1.20043
1.19808
1.19752
1.19533
1.19315
1.19158
1.19094
1.1886
1.19462
1.1917
1.19758
1.19447
1.19971
1.19733
1.20112
1.19844
1.20122
1.19865
1.1997
1.1971
1.19729
1.19462
1.19365
1.19183
1.19128
1.18794
1.19453
1.19109
1.19737
1.19406
1.19934
1.19667
1.2003
1.1977
1.20012
1.19776
1.19858
1.1962
1.19602
1.19368
1.19266
1.19122
1.19089
1.18687
1.19411
1.19038
1.19688
1.19331
1.19822
1.19546
1.19869
1.19633
1.19831
1.19619
1.19683
1.1947
1.19417
1.19217
1.19108
1.18977
1.19009
1.18625
1.19312
1.18946
1.19524
1.19211
1.19638
1.19402
1.19649
1.19457
1.19578
1.19408
1.19417
1.19243
1.19166
1.19008
1.18882
1.18749
1.18921
1.18558
1.19138
1.1885
1.19318
1.19041
1.19385
1.1918
1.19325
1.19181
1.19222
1.19095
1.19049
1.18904
1.18798
1.18665
1.1854
1.18408
1.18766
1.18484
1.18872
1.18706
1.18979
1.18789
1.18996
1.18854
1.18892
1.18799
1.18758
1.18662
1.18559
1.18443
1.18301
1.1818
1.18053
1.17915
1.1857
1.1835
1.18562
1.18501
1.18587
1.18489
1.18542
1.18437
1.1839
1.18292
1.18212
1.18106
1.17969
1.17846
1.17689
1.1758
1.17441
1.17315
1.1838
1.18159
1.18232
1.18185
1.18156
1.18084
1.18028
1.17939
1.17848
1.17723
1.17611
1.1746
1.17314
1.17174
1.16998
1.1687
1.16725
1.16607
1.18208
1.17902
1.17875
1.17804
1.17723
1.17619
1.17498
1.17387
1.17251
1.17102
1.1696
1.16789
1.1662
1.16448
1.16283
1.16131
1.15971
1.15843
1.17962
1.17563
1.17497
1.17399
1.17271
1.17128
1.16972
1.16816
1.16657
1.16498
1.16318
1.1614
1.15967
1.15788
1.1562
1.15446
1.15293
1.15146
1.17676
1.17188
1.17124
1.17008
1.1686
1.16716
1.16564
1.16389
1.16226
1.1605
1.15864
1.15694
1.15503
1.15328
1.15162
1.14994
1.14868
1.14706
1.17375
1.16865
1.16805
1.16709
1.16599
1.16448
1.16333
1.16171
1.16022
1.15881
1.1569
1.15552
1.15361
1.15204
1.15061
1.14883
1.14794
1.14627
1.17166
1.16617
1.16569
1.16528
1.16439
1.16295
1.16235
1.16062
1.15971
1.15851
1.15662
1.15589
1.15377
1.15275
1.15134
1.14975
1.14934
1.14743
1.1697
1.16412
1.16412
1.16408
1.16327
1.16226
1.16208
1.16032
1.16007
1.15895
1.15764
1.15726
1.15522
1.15472
1.15312
1.15194
1.15137
1.1498
1.16843
1.16268
1.1629
1.16303
1.16275
1.16209
1.16196
1.16097
1.16079
1.1598
1.15911
1.15827
1.1571
1.15639
1.15516
1.15451
1.15353
1.15281
1.16729
1.16185
1.16251
1.1625
1.16249
1.16235
1.16206
1.16168
1.16143
1.1607
1.16056
1.15946
1.15909
1.1581
1.15726
1.15676
1.15559
1.15547
1.16648
1.16101
1.16169
1.16221
1.16241
1.16215
1.16217
1.16195
1.16189
1.16167
1.16137
1.16083
1.16033
1.15957
1.159
1.15829
1.15772
1.15711
1.166
1.16026
1.16128
1.16205
1.16233
1.1625
1.16248
1.16231
1.16225
1.16203
1.16181
1.16158
1.1611
1.16072
1.16019
1.15962
1.1592
1.15847
1.16544
1.15967
1.16076
1.1615
1.16209
1.16249
1.16261
1.16269
1.16255
1.16239
1.16213
1.16185
1.16153
1.16116
1.16079
1.16037
1.15995
1.15946
1.16512
1.1594
1.16046
1.16131
1.1619
1.16231
1.16261
1.16279
1.16292
1.16291
1.16285
1.16265
1.16239
1.16205
1.16171
1.1613
1.16089
1.16044
1.16538
1.15947
1.16064
1.16147
1.16204
1.1625
1.16293
1.16332
1.16367
1.16388
1.16394
1.16381
1.16356
1.16317
1.16275
1.16223
1.16171
1.1611
1.16537
1.15953
1.16068
1.16153
1.16221
1.16282
1.16334
1.1637
1.16383
1.16375
1.16347
1.16299
1.1624
1.16169
1.16098
1.16013
1.15937
1.15845
1.16807
1.16198
1.16183
1.16152
1.16125
1.16093
1.16046
1.15985
1.1591
1.15827
1.15737
1.15642
1.15546
1.15449
1.15352
1.15256
1.15162
1.15079
1.16791
1.18882
1.18329
1.17794
1.17477
1.17267
1.17098
1.16982
1.16883
1.16787
1.16758
1.1674
1.16687
1.16701
1.16722
1.16678
1.16687
1.16699
1.1664
1.16654
1.16669
1.16667
1.16732
1.16719
1.16756
1.16715
1.1644
1.16279
1.16542
1.16614
1.15874
1.15176
1.15108
1.15338
1.15599
1.15834
1.15912
1.15737
1.15405
1.15188
1.15661
1.16707
1.17977
1.18084
1.16773
1.15596
1.15193
1.15159
1.14813
1.14304
1.14129
1.14271
1.14514
1.14771
1.15033
1.15301
1.15576
1.15857
1.16144
1.16436
1.16731
1.1703
1.17331
1.17635
1.17941
1.18249
1.18557
1.18866
1.19172
1.19476
1.19779
1.20078
1.20375
1.20664
1.20939
1.21205
1.21468
1.21737
1.22021
1.22311
1.22605
1.22854
1.23123
1.23461
1.23716
1.24005
1.24273
1.24547
1.24808
1.25054
1.25309
1.25554
1.25806
1.26058
1.26346
1.26658
1.27004
1.27403
1.2787
1.28368
1.28897
1.29474
1.30037
1.30594
1.31246
1.31949
1.32703
1.33498
1.34343
1.35168
1.36063
1.36957
1.37843
1.38654
1.3937
1.4004
1.4041
1.40724
1.41059
1.41283
1.4134
1.40799
1.40007
1.39934
1.40483
1.41311
1.41886
1.41882
1.41706
1.412
1.4057
1.40085
1.3976
1.39403
1.39134
1.38986
1.39134
1.39034
1.39387
1.4028
1.40624
1.39355
1.38314
1.42505
1.43419
1.43596
1.44734
1.46318
1.47441
1.48257
1.49489
1.51074
1.52579
1.54038
1.55817
1.57663
1.59521
1.62195
1.6443
1.66597
1.68937
1.70423
1.71254
1.7194
1.74745
1.80769
1.8509
1.85234
1.86003
1.92968
1.97202
1.91624
1.84608
1.93958
2.15697
2.01383
1.94345
1.9682
1.90848
1.82815
1.16305
1.19273
1.19186
1.17972
1.17051
1.16527
1.16186
1.15931
1.15775
1.15584
1.15443
1.15388
1.1534
1.15369
1.15439
1.15346
1.15632
1.1568
1.15599
1.15813
1.1596
1.15933
1.16112
1.16697
1.16496
1.17087
1.17673
1.1695
1.17593
1.17631
1.16667
1.17191
1.17583
1.17752
1.18899
1.2043
1.2036
1.19068
1.19821
1.2164
1.20984
1.18037
1.19233
1.21815
1.18691
1.14764
1.13775
1.13866
1.14022
1.14191
1.1441
1.14644
1.14888
1.15133
1.15388
1.15651
1.15915
1.16187
1.16458
1.16736
1.17013
1.17295
1.17586
1.17877
1.18174
1.18473
1.18772
1.19069
1.19361
1.19651
1.19937
1.20223
1.20515
1.20806
1.21063
1.21272
1.21475
1.217
1.21976
1.22248
1.22621
1.22782
1.23008
1.23556
1.23766
1.2422
1.24548
1.24937
1.2542
1.25747
1.26187
1.26535
1.26845
1.27063
1.27258
1.2748
1.27628
1.27784
1.28306
1.29003
1.29793
1.30928
1.31992
1.32854
1.33933
1.35076
1.36092
1.37378
1.39056
1.40605
1.41826
1.43008
1.43763
1.44283
1.4393
1.43564
1.43132
1.4267
1.43005
1.42866
1.4161
1.39317
1.37934
1.39062
1.41038
1.43497
1.47309
1.49846
1.50629
1.49018
1.45665
1.44337
1.43447
1.41873
1.40699
1.40092
1.39917
1.38735
1.39789
1.40675
1.40251
1.36047
1.33464
1.43659
1.43222
1.40616
1.42022
1.46526
1.48124
1.46676
1.49337
1.52286
1.54371
1.57304
1.60497
1.63752
1.66883
1.70737
1.75574
1.80028
1.84465
1.8295
1.74646
1.74528
1.84774
1.97567
2.01933
2.03822
2.0709
2.25068
2.32525
2.14461
2.06255
2.2854
2.45567
2.21181
2.25883
2.1815
2.18773
2.13757
1.15343
1.18119
1.18531
1.1737
1.16378
1.15898
1.15599
1.15282
1.15053
1.14824
1.14697
1.14346
1.14561
1.1438
1.13865
1.14511
1.14252
1.14402
1.14347
1.1445
1.14569
1.14506
1.15125
1.14872
1.15676
1.16668
1.16383
1.17472
1.17934
1.16836
1.17325
1.18168
1.18052
1.17149
1.17039
1.19562
1.21343
1.20716
1.1972
1.2053
1.23232
1.21751
1.1676
1.14503
1.14032
1.13855
1.13902
1.13954
1.14056
1.14189
1.14341
1.14526
1.14721
1.14944
1.15165
1.1541
1.15662
1.15917
1.16179
1.16429
1.16697
1.1696
1.17225
1.17514
1.17792
1.18084
1.18381
1.18674
1.18967
1.19245
1.19503
1.19751
1.20036
1.20377
1.20684
1.20846
1.20965
1.21081
1.21242
1.21258
1.21545
1.21531
1.21655
1.21915
1.2199
1.22326
1.22563
1.22843
1.23433
1.23769
1.24384
1.24896
1.25464
1.25981
1.26278
1.26892
1.2733
1.27075
1.2701
1.27393
1.27999
1.28934
1.29784
1.30495
1.31589
1.33056
1.34367
1.35826
1.36923
1.38419
1.39243
1.4112
1.42881
1.43945
1.42719
1.39625
1.36657
1.34695
1.34909
1.36188
1.35881
1.32408
1.29161
1.29343
1.31664
1.34776
1.39676
1.45192
1.484
1.47159
1.44352
1.43724
1.42001
1.39741
1.3832
1.38481
1.38975
1.37514
1.38412
1.3843
1.39578
1.35691
1.33681
1.43186
1.39742
1.35865
1.37478
1.44089
1.45386
1.38213
1.42338
1.46274
1.45725
1.50146
1.54141
1.58735
1.65337
1.67088
1.7237
1.80596
1.88207
1.81993
1.67751
1.66339
1.84435
1.93838
1.83864
1.90782
2.07868
2.33721
2.37183
2.17667
2.14424
2.37054
2.27925
2.11969
2.17789
2.01255
2.0491
2.07093
1.14638
1.16464
1.16493
1.15777
1.15346
1.15196
1.14928
1.14588
1.14457
1.1417
1.13965
1.14233
1.13748
1.14097
1.13524
1.1388
1.14378
1.13375
1.14532
1.13582
1.14009
1.14316
1.12828
1.13954
1.13848
1.143
1.16635
1.16717
1.18052
1.2055
1.18078
1.15996
1.19038
1.19579
1.17457
1.18432
1.19925
1.2001
1.21045
1.20959
1.17933
1.15296
1.14121
1.13743
1.13457
1.13415
1.13452
1.13602
1.13754
1.13983
1.14198
1.14429
1.14651
1.14875
1.15105
1.15328
1.15564
1.15808
1.16045
1.16297
1.16528
1.1677
1.17033
1.17285
1.17564
1.17841
1.18117
1.18407
1.18729
1.1905
1.19333
1.19551
1.19765
1.20156
1.20675
1.21014
1.21181
1.21418
1.21702
1.21624
1.21834
1.21681
1.21859
1.21845
1.21816
1.2185
1.21907
1.21982
1.22274
1.22388
1.22938
1.23223
1.23644
1.24453
1.24405
1.24696
1.26069
1.26791
1.26715
1.26621
1.27125
1.28297
1.29239
1.29438
1.29468
1.30556
1.31476
1.3279
1.33562
1.34974
1.35546
1.35916
1.37019
1.39843
1.40862
1.38307
1.34915
1.32678
1.31032
1.31125
1.32758
1.32298
1.30289
1.28709
1.28703
1.3097
1.35027
1.4087
1.45154
1.44129
1.42814
1.42263
1.39995
1.38498
1.37235
1.37585
1.38383
1.3756
1.37997
1.38517
1.39992
1.37934
1.35683
1.42063
1.39552
1.36435
1.36345
1.45001
1.46437
1.34816
1.38635
1.45222
1.39996
1.44639
1.48024
1.47899
1.59946
1.63762
1.63755
1.73266
1.82871
1.82374
1.75142
1.71607
1.89628
1.91413
1.70216
1.74693
2.00644
2.30462
2.32394
2.17781
2.18867
2.42224
2.24372
2.07389
2.04936
1.99746
2.00539
2.01524
1.14189
1.15084
1.14975
1.14899
1.14885
1.14683
1.14272
1.14099
1.14023
1.14242
1.14329
1.14216
1.14343
1.14248
1.1452
1.14577
1.15134
1.14735
1.15005
1.15161
1.14835
1.16157
1.13373
1.1221
1.13884
1.1424
1.16621
1.17613
1.1653
1.18116
1.20536
1.20283
1.17884
1.16794
1.1869
1.20767
1.21108
1.20426
1.18729
1.16344
1.14439
1.13413
1.12934
1.12904
1.13007
1.13276
1.13583
1.13903
1.14141
1.14331
1.1448
1.14586
1.147
1.14807
1.14936
1.15083
1.15253
1.15444
1.15647
1.15845
1.16043
1.16245
1.16462
1.16685
1.16923
1.17137
1.17358
1.17573
1.17799
1.18024
1.18247
1.18453
1.18621
1.18926
1.19329
1.19789
1.19958
1.20341
1.20618
1.20807
1.21315
1.21403
1.21447
1.21526
1.21571
1.21575
1.21579
1.21496
1.21756
1.21675
1.2203
1.22331
1.2216
1.22829
1.23417
1.23049
1.23384
1.2455
1.25555
1.2536
1.25213
1.26284
1.27628
1.28042
1.27942
1.28566
1.29263
1.30299
1.31045
1.31751
1.31774
1.31452
1.31022
1.3266
1.35173
1.3564
1.35544
1.34972
1.32362
1.30872
1.32613
1.3184
1.2923
1.27014
1.27516
1.30327
1.34331
1.39549
1.43542
1.42387
1.41449
1.39883
1.36852
1.37467
1.37459
1.35693
1.34865
1.36331
1.37158
1.40429
1.38459
1.3843
1.37046
1.39718
1.38003
1.36464
1.32627
1.41226
1.43932
1.36556
1.38506
1.46249
1.38634
1.42309
1.48212
1.41217
1.51558
1.59813
1.59627
1.65925
1.66442
1.79073
1.76072
1.68187
1.87388
1.91537
1.70999
1.70595
1.95537
2.23606
2.24666
2.14235
2.22491
2.5254
2.13396
1.99664
1.98797
1.95721
1.99758
1.99408
1.13977
1.14454
1.14579
1.14725
1.14515
1.14034
1.13908
1.1422
1.14529
1.14704
1.14681
1.14555
1.14511
1.14719
1.15184
1.15378
1.15646
1.1552
1.14709
1.15771
1.15971
1.16081
1.16364
1.13423
1.12213
1.14107
1.1492
1.17295
1.20298
1.2061
1.19292
1.17869
1.18323
1.20146
1.20763
1.19918
1.18634
1.17161
1.15308
1.13704
1.1294
1.12775
1.12914
1.13257
1.13675
1.13952
1.141
1.14087
1.14055
1.13959
1.13952
1.13981
1.14098
1.14251
1.14473
1.14711
1.14999
1.15273
1.15572
1.15848
1.16133
1.16416
1.16695
1.16944
1.17169
1.17368
1.17545
1.17715
1.17888
1.18005
1.18149
1.18321
1.185
1.18779
1.18856
1.19143
1.19072
1.19506
1.19427
1.19593
1.19844
1.20186
1.20433
1.20657
1.20755
1.20882
1.21065
1.20987
1.21051
1.2119
1.2133
1.21736
1.21963
1.21784
1.22128
1.22326
1.22208
1.22111
1.23257
1.24358
1.24266
1.24367
1.25637
1.26033
1.26157
1.26018
1.26683
1.27258
1.28527
1.29397
1.29431
1.29596
1.29099
1.28917
1.29972
1.30785
1.31828
1.33051
1.29901
1.26401
1.28095
1.29116
1.27616
1.24822
1.23892
1.26746
1.31788
1.37559
1.4199
1.40321
1.39671
1.38405
1.34324
1.34299
1.35251
1.33521
1.32578
1.34786
1.36598
1.38953
1.36398
1.39499
1.3826
1.38041
1.37317
1.36427
1.32174
1.32581
1.3729
1.38918
1.40842
1.46193
1.39257
1.40811
1.47963
1.3981
1.47259
1.52055
1.5701
1.64095
1.48033
1.6779
1.72634
1.58703
1.77826
1.87687
1.68284
1.69827
1.94614
2.17418
2.17258
2.08968
2.20416
2.60496
2.06912
1.94611
1.91751
1.8563
1.97107
1.9702
1.13906
1.14268
1.14489
1.14448
1.14062
1.13883
1.14271
1.14604
1.14528
1.14463
1.14232
1.14286
1.14899
1.15546
1.16179
1.1693
1.16757
1.15895
1.14828
1.15127
1.16004
1.15228
1.15305
1.15561
1.14049
1.14584
1.18468
1.19716
1.18786
1.19254
1.19861
1.20451
1.20732
1.19703
1.18339
1.17109
1.15794
1.14361
1.13267
1.12812
1.12807
1.1314
1.13523
1.13774
1.13838
1.13695
1.13498
1.13322
1.13314
1.13426
1.13708
1.14034
1.14454
1.14835
1.15224
1.15554
1.15855
1.16129
1.16362
1.16583
1.16785
1.16985
1.1715
1.17292
1.17396
1.17462
1.17512
1.17532
1.17603
1.17652
1.17795
1.18003
1.18194
1.18464
1.18737
1.19341
1.19419
1.19797
1.19688
1.19905
1.19674
1.19616
1.19572
1.19815
1.19878
1.20038
1.20018
1.20471
1.20401
1.20212
1.20342
1.20492
1.20757
1.20947
1.21484
1.21539
1.21897
1.21968
1.21753
1.22179
1.22651
1.22199
1.23442
1.23769
1.24805
1.24403
1.2501
1.24422
1.25527
1.26662
1.27528
1.29042
1.29758
1.28309
1.27928
1.27827
1.28456
1.31157
1.29479
1.2558
1.25006
1.25814
1.26503
1.24617
1.22113
1.23314
1.28517
1.34668
1.39447
1.38553
1.3713
1.37848
1.34145
1.31538
1.31446
1.30686
1.30589
1.31175
1.33412
1.3358
1.31313
1.3467
1.37144
1.3589
1.35889
1.3373
1.35585
1.29003
1.31318
1.35963
1.38238
1.42639
1.40029
1.39579
1.43738
1.39456
1.47763
1.434
1.52781
1.64621
1.37624
1.53556
1.64896
1.51021
1.69638
1.8068
1.60487
1.66541
1.93044
2.1039
2.10718
2.05204
2.17034
2.47695
1.96111
1.87666
1.85488
1.77135
1.92116
1.91859
1.13904
1.14245
1.14366
1.14271
1.14117
1.14142
1.14274
1.14239
1.14336
1.14421
1.14711
1.15783
1.16806
1.17699
1.18518
1.19084
1.18224
1.16833
1.16559
1.16469
1.17454
1.1735
1.14295
1.1232
1.14308
1.17269
1.17916
1.18728
1.20772
1.21271
1.20819
1.19872
1.18084
1.16538
1.15595
1.14792
1.1392
1.13113
1.12863
1.13024
1.1333
1.13663
1.13733
1.13599
1.13308
1.13153
1.13123
1.13344
1.13731
1.14224
1.14716
1.15117
1.15423
1.1562
1.15705
1.15734
1.15716
1.15724
1.1571
1.15767
1.15858
1.15988
1.16116
1.16228
1.16333
1.16397
1.16508
1.16579
1.16764
1.16786
1.16901
1.16875
1.1707
1.16899
1.17105
1.17486
1.18023
1.18732
1.19175
1.19659
1.19902
1.19855
1.19791
1.19763
1.19809
1.20312
1.19992
1.20106
1.20467
1.20306
1.19838
1.19898
1.20356
1.19898
1.20089
1.20255
1.20108
1.208
1.21395
1.21515
1.22145
1.20993
1.21869
1.21789
1.23107
1.22546
1.23471
1.226
1.2338
1.24074
1.24636
1.25847
1.27484
1.26756
1.26835
1.26593
1.25438
1.2805
1.28284
1.25932
1.24026
1.23976
1.25686
1.2488
1.21627
1.20796
1.25582
1.31947
1.36048
1.37079
1.34823
1.35479
1.3398
1.3207
1.29519
1.28069
1.29909
1.29669
1.27321
1.29875
1.29924
1.29341
1.32738
1.34865
1.33517
1.30324
1.36505
1.33534
1.2952
1.33591
1.3351
1.3764
1.40259
1.3769
1.38088
1.38445
1.47922
1.35888
1.45596
1.62509
1.42501
1.48271
1.56645
1.43026
1.61889
1.7246
1.53721
1.63331
1.90768
2.03765
2.04131
2.04938
2.21809
2.18191
1.86911
1.85187
1.80288
1.69444
1.86703
1.86146
1.13937
1.14249
1.14281
1.143
1.1421
1.14125
1.14455
1.14719
1.14926
1.15232
1.16015
1.17344
1.17856
1.17838
1.17598
1.17085
1.16664
1.16325
1.16132
1.15652
1.14221
1.12596
1.12586
1.14326
1.16308
1.18156
1.20444
1.21813
1.20824
1.19462
1.18203
1.16582
1.15579
1.14768
1.13924
1.13378
1.12945
1.12898
1.13194
1.13481
1.13698
1.13613
1.13392
1.13138
1.12996
1.13182
1.13535
1.14044
1.14492
1.14869
1.15071
1.15146
1.15097
1.15037
1.14954
1.14928
1.1491
1.14942
1.15004
1.15119
1.15283
1.15502
1.15803
1.16097
1.16474
1.16767
1.17164
1.174
1.17828
1.17983
1.18235
1.18131
1.18289
1.17855
1.17826
1.17304
1.17168
1.17137
1.17528
1.17777
1.1823
1.18353
1.18608
1.18617
1.18511
1.19484
1.19942
1.20208
1.20229
1.20341
1.20011
1.19212
1.19266
1.19674
1.19672
1.20291
1.19812
1.19285
1.20089
1.20291
1.21237
1.20463
1.20204
1.1993
1.2103
1.21477
1.22218
1.21398
1.21417
1.22351
1.22507
1.2261
1.23529
1.23662
1.2412
1.24838
1.22989
1.24731
1.26564
1.26272
1.24331
1.21774
1.22754
1.22861
1.20186
1.17702
1.21533
1.28289
1.32276
1.34905
1.33152
1.32822
1.31992
1.31497
1.29779
1.27473
1.27594
1.28782
1.25881
1.26383
1.26467
1.25346
1.25801
1.32512
1.30794
1.30012
1.35778
1.35662
1.2926
1.33102
1.31904
1.33923
1.39974
1.36358
1.35117
1.36661
1.45007
1.31779
1.35082
1.55969
1.49508
1.49327
1.53802
1.39309
1.56399
1.64643
1.47482
1.5998
1.86903
1.97778
1.99159
2.08432
2.2008
1.91784
1.78283
1.77932
1.73765
1.63627
1.77787
1.77074
1.13993
1.14265
1.14259
1.1432
1.14448
1.14706
1.15059
1.14925
1.14919
1.15574
1.16966
1.1818
1.17377
1.15693
1.15062
1.15607
1.15949
1.15666
1.1495
1.14659
1.14868
1.15623
1.16831
1.1841
1.20363
1.21615
1.20761
1.18665
1.17296
1.16374
1.15015
1.14268
1.1397
1.13536
1.13333
1.13292
1.1327
1.13513
1.13685
1.13751
1.13647
1.13298
1.13103
1.1304
1.13294
1.13735
1.1422
1.14626
1.14875
1.14999
1.15022
1.15049
1.15103
1.15248
1.15437
1.15659
1.15907
1.16123
1.16318
1.1647
1.16618
1.16726
1.16923
1.17069
1.17382
1.1755
1.17862
1.1802
1.18268
1.18452
1.1862
1.18781
1.19022
1.19057
1.19108
1.18866
1.18519
1.18245
1.17905
1.17954
1.18121
1.17866
1.1775
1.17594
1.16602
1.17393
1.17986
1.19149
1.20206
1.2061
1.20058
1.20083
1.19225
1.18867
1.18195
1.18758
1.19764
1.18964
1.19135
1.19445
1.20007
1.20301
1.19513
1.19498
1.19215
1.19711
1.207
1.20788
1.20134
1.20956
1.20817
1.20485
1.19764
1.19832
1.2043
1.22389
1.21957
1.21987
1.2325
1.24685
1.24891
1.21175
1.20605
1.21692
1.20781
1.16892
1.18214
1.24361
1.28777
1.32096
1.31109
1.30624
1.29339
1.29291
1.28531
1.27707
1.26365
1.27219
1.26208
1.259
1.26277
1.22239
1.2298
1.28705
1.27101
1.31557
1.39105
1.33498
1.28413
1.32628
1.31418
1.30867
1.38001
1.35822
1.34427
1.34455
1.42061
1.32137
1.27581
1.50489
1.42243
1.46425
1.50744
1.36599
1.53364
1.57291
1.41874
1.56426
1.82471
1.9271
1.96428
2.07418
2.00449
1.76393
1.7203
1.73831
1.68566
1.6127
1.66227
1.66867
1.14071
1.1431
1.143
1.14358
1.14655
1.14865
1.14879
1.14818
1.15309
1.16313
1.17761
1.18559
1.16753
1.14229
1.13604
1.15457
1.17272
1.17809
1.17695
1.17959
1.18534
1.19458
1.20646
1.21643
1.21117
1.18932
1.16735
1.15722
1.15435
1.14635
1.13946
1.13741
1.13403
1.13191
1.13291
1.13341
1.13534
1.13779
1.13669
1.13561
1.13294
1.13066
1.13116
1.13362
1.13851
1.14278
1.14633
1.14818
1.14939
1.15005
1.15128
1.15281
1.15514
1.15738
1.15997
1.16205
1.16397
1.16585
1.16818
1.17042
1.1729
1.1738
1.17501
1.17444
1.17573
1.17611
1.17653
1.17747
1.17717
1.17816
1.17883
1.18003
1.18109
1.18331
1.18377
1.18628
1.18333
1.183
1.18099
1.17624
1.18083
1.18203
1.181
1.18521
1.17098
1.16739
1.16523
1.16927
1.17692
1.19614
1.19101
1.1906
1.19394
1.19309
1.18749
1.17778
1.1868
1.18767
1.18181
1.18569
1.18697
1.19538
1.18526
1.19174
1.18937
1.1819
1.18625
1.1936
1.19192
1.19503
1.19354
1.19837
1.17939
1.17849
1.18015
1.1908
1.20473
1.2002
1.19157
1.20837
1.23371
1.21061
1.18767
1.19125
1.19725
1.16041
1.15016
1.20106
1.24827
1.29194
1.28925
1.28636
1.26838
1.26887
1.25787
1.26606
1.24973
1.26842
1.26587
1.25939
1.27293
1.22066
1.23207
1.26884
1.22846
1.27045
1.38797
1.32673
1.26976
1.31309
1.31529
1.29877
1.34815
1.34313
1.33331
1.32175
1.39186
1.34261
1.276
1.47106
1.34433
1.41983
1.46231
1.32814
1.50355
1.49872
1.37245
1.53222
1.77678
1.87532
1.93729
1.94162
1.82206
1.65971
1.66018
1.68745
1.65487
1.59409
1.54477
1.58462
1.1418
1.14434
1.14501
1.14375
1.14523
1.14848
1.15023
1.14827
1.14815
1.15406
1.16948
1.183
1.17261
1.15037
1.13808
1.15471
1.18561
1.20615
1.2127
1.21258
1.20977
1.20774
1.20185
1.18989
1.17139
1.15661
1.14887
1.14634
1.14243
1.13737
1.13761
1.13742
1.13668
1.13844
1.13929
1.1387
1.13936
1.13787
1.13576
1.13451
1.13244
1.13282
1.13455
1.13835
1.14282
1.1457
1.14831
1.14947
1.15107
1.15249
1.15464
1.15601
1.15772
1.15861
1.15914
1.15938
1.15972
1.16047
1.16248
1.16455
1.16802
1.17112
1.17504
1.17782
1.18013
1.18299
1.18383
1.18535
1.18675
1.18736
1.18774
1.18939
1.18896
1.19095
1.19028
1.18848
1.18793
1.18141
1.18108
1.173
1.16904
1.16866
1.16665
1.17663
1.17833
1.17552
1.17244
1.1757
1.17446
1.18446
1.19329
1.18065
1.18681
1.18153
1.18342
1.17573
1.17543
1.18114
1.1793
1.17893
1.1738
1.18481
1.18158
1.18152
1.18838
1.17849
1.17388
1.17174
1.18283
1.18309
1.17957
1.19588
1.17453
1.17143
1.16915
1.16455
1.18637
1.19635
1.17706
1.18079
1.20694
1.20328
1.17653
1.16664
1.1844
1.16545
1.12983
1.15961
1.2054
1.2573
1.264
1.26591
1.24971
1.249
1.22836
1.24972
1.21539
1.24805
1.23694
1.24053
1.26519
1.21885
1.21933
1.26726
1.25117
1.24007
1.33039
1.32348
1.27944
1.29703
1.30227
1.30603
1.32749
1.32293
1.32171
1.30084
1.36277
1.30683
1.2978
1.42958
1.30641
1.40275
1.42434
1.29771
1.47115
1.43346
1.33129
1.51185
1.73778
1.82146
1.88562
1.79306
1.70329
1.60276
1.62312
1.64505
1.64389
1.57642
1.47656
1.54309
1.14336
1.14688
1.14862
1.14653
1.14636
1.14999
1.15284
1.15312
1.15377
1.15941
1.17383
1.18932
1.1898
1.18301
1.17405
1.17643
1.19806
1.21978
1.22637
1.21653
1.19702
1.17984
1.16784
1.15712
1.14937
1.14585
1.14261
1.14097
1.13871
1.13829
1.13939
1.13805
1.13797
1.13936
1.13878
1.13866
1.13938
1.13742
1.13629
1.13426
1.13273
1.13454
1.13739
1.14184
1.14531
1.14838
1.15019
1.1511
1.15307
1.15393
1.15499
1.15505
1.15477
1.15422
1.15365
1.15393
1.15534
1.15671
1.15955
1.16231
1.16494
1.16694
1.16817
1.17152
1.17358
1.17672
1.17921
1.1806
1.18163
1.18463
1.18248
1.18337
1.1821
1.18331
1.19004
1.1912
1.19299
1.18872
1.18358
1.18107
1.1741
1.16987
1.16126
1.15624
1.16044
1.16553
1.16619
1.16869
1.17922
1.17458
1.19079
1.17647
1.18377
1.17769
1.17376
1.17513
1.17187
1.169
1.17387
1.17749
1.1667
1.167
1.17306
1.16987
1.17564
1.17573
1.17253
1.15511
1.17179
1.17543
1.1708
1.18505
1.16829
1.16292
1.16439
1.15147
1.15997
1.18202
1.17665
1.16712
1.18238
1.19306
1.1757
1.14842
1.15745
1.16429
1.12912
1.12603
1.16109
1.21964
1.23914
1.24561
1.23089
1.23372
1.20548
1.23754
1.18189
1.20979
1.20024
1.19118
1.23772
1.20905
1.17805
1.22085
1.28521
1.27575
1.30719
1.31184
1.29678
1.28763
1.26309
1.29707
1.30591
1.29443
1.31059
1.27826
1.35109
1.246
1.30672
1.37427
1.25769
1.38337
1.37625
1.26751
1.42317
1.38373
1.29635
1.49628
1.70896
1.77132
1.81232
1.70089
1.59339
1.56431
1.56275
1.5856
1.62159
1.52569
1.44036
1.55968
1.14548
1.15049
1.15359
1.15297
1.15228
1.15996
1.1642
1.15889
1.15421
1.15689
1.16589
1.17931
1.18901
1.19561
1.19941
1.20284
1.2123
1.21636
1.206
1.18235
1.16168
1.15137
1.1486
1.14515
1.14358
1.14184
1.13979
1.14087
1.14108
1.14221
1.14292
1.14151
1.14239
1.14234
1.14006
1.13992
1.13863
1.13547
1.13504
1.13382
1.1346
1.13796
1.14115
1.14528
1.14777
1.15005
1.1504
1.15117
1.15194
1.15115
1.15092
1.14992
1.14847
1.14819
1.14859
1.14903
1.1509
1.15273
1.1545
1.15679
1.15878
1.16236
1.16331
1.1658
1.16828
1.17165
1.1736
1.17686
1.17626
1.17952
1.18056
1.17714
1.17411
1.16986
1.17136
1.17924
1.18301
1.18692
1.17997
1.17396
1.17314
1.17179
1.17115
1.16825
1.16111
1.16155
1.16608
1.16056
1.17631
1.16887
1.18241
1.17453
1.17664
1.17484
1.16377
1.16798
1.16863
1.16142
1.16416
1.17147
1.16587
1.15928
1.16417
1.16825
1.16507
1.16831
1.17421
1.14641
1.15223
1.16767
1.16557
1.17421
1.15958
1.14675
1.15837
1.15713
1.14696
1.15646
1.17303
1.16151
1.15892
1.17383
1.1736
1.14458
1.13828
1.15222
1.1394
1.115
1.11877
1.17701
1.21136
1.22635
1.2119
1.2221
1.18158
1.21927
1.18364
1.17764
1.18125
1.16641
1.2053
1.19553
1.14864
1.17416
1.25908
1.27908
1.30103
1.28865
1.29475
1.27481
1.2253
1.27395
1.28022
1.27095
1.29591
1.2525
1.3371
1.22478
1.29771
1.28987
1.22194
1.35552
1.30969
1.2468
1.37026
1.35668
1.26442
1.47625
1.67911
1.72498
1.74109
1.63264
1.52275
1.52071
1.51682
1.53482
1.58817
1.47531
1.43249
1.60839
1.14799
1.15402
1.15648
1.15703
1.15647
1.15712
1.15493
1.15424
1.15304
1.15291
1.15617
1.16645
1.17964
1.18635
1.18936
1.19154
1.19193
1.18401
1.17059
1.15503
1.14516
1.14498
1.1465
1.14577
1.14468
1.1432
1.14174
1.14351
1.14261
1.14249
1.14164
1.14052
1.14157
1.14106
1.13985
1.14031
1.13886
1.13674
1.13698
1.13601
1.13763
1.14051
1.14315
1.1468
1.14832
1.14921
1.1491
1.14955
1.14883
1.14869
1.14819
1.14672
1.1464
1.14586
1.14546
1.14585
1.14742
1.14969
1.15076
1.15322
1.15364
1.15641
1.15703
1.15837
1.1614
1.16776
1.17222
1.17563
1.17844
1.17968
1.18377
1.18562
1.17961
1.17615
1.16971
1.17356
1.17672
1.17941
1.1823
1.17309
1.16541
1.1616
1.15731
1.16118
1.15938
1.15949
1.16452
1.15663
1.16847
1.16461
1.16987
1.17035
1.16846
1.17175
1.15999
1.16221
1.16647
1.15536
1.15434
1.16161
1.16387
1.15735
1.15331
1.15886
1.15933
1.15832
1.16711
1.15057
1.13844
1.16023
1.16419
1.16293
1.1551
1.13433
1.14422
1.16398
1.1517
1.13491
1.15384
1.16103
1.15323
1.15602
1.16272
1.14457
1.12638
1.13177
1.14153
1.11864
1.09455
1.13287
1.17584
1.20673
1.19746
1.21272
1.17748
1.18448
1.1871
1.17775
1.17934
1.15703
1.18407
1.19887
1.15214
1.15058
1.23128
1.2695
1.284
1.24717
1.27562
1.25596
1.19544
1.24389
1.25473
1.26179
1.28037
1.23065
1.30973
1.21351
1.26621
1.23045
1.19918
1.32712
1.24244
1.23216
1.32977
1.35023
1.23504
1.44951
1.64416
1.6813
1.69741
1.5565
1.48229
1.48533
1.47408
1.468
1.52034
1.42619
1.45681
1.62942
1.15073
1.15697
1.1576
1.15716
1.15637
1.1587
1.16606
1.16647
1.15766
1.154
1.15005
1.15471
1.16479
1.1673
1.17008
1.16981
1.16418
1.15719
1.14854
1.14339
1.14309
1.14526
1.14597
1.14413
1.14275
1.1419
1.14316
1.14593
1.145
1.14544
1.14461
1.14372
1.1437
1.14182
1.14072
1.14141
1.13986
1.13856
1.13978
1.13839
1.14021
1.14321
1.14433
1.14708
1.14816
1.14814
1.14861
1.14949
1.14775
1.1471
1.14658
1.14555
1.14552
1.14442
1.14476
1.14638
1.14687
1.14899
1.1483
1.14976
1.15148
1.15566
1.16112
1.16305
1.16397
1.16701
1.17174
1.17526
1.17134
1.17243
1.17291
1.17687
1.17535
1.16958
1.16772
1.1689
1.17181
1.1716
1.17194
1.17264
1.1693
1.16413
1.15964
1.16035
1.1554
1.15215
1.15774
1.15234
1.15823
1.15921
1.15699
1.1626
1.16129
1.16573
1.1537
1.15326
1.16365
1.15297
1.14628
1.15673
1.15871
1.15606
1.15003
1.14966
1.15695
1.15852
1.15654
1.15024
1.1343
1.14693
1.16215
1.14976
1.14451
1.13362
1.1256
1.15883
1.16466
1.12548
1.1333
1.1514
1.15064
1.13824
1.13393
1.14026
1.13065
1.11649
1.13328
1.12695
1.09513
1.09962
1.13237
1.17547
1.18711
1.19605
1.18555
1.16812
1.17177
1.18044
1.19315
1.15272
1.16064
1.19588
1.1725
1.15072
1.21974
1.2758
1.27822
1.21908
1.26244
1.25237
1.17876
1.2146
1.23412
1.2611
1.2671
1.20729
1.27542
1.19355
1.22466
1.21751
1.17708
1.30914
1.19119
1.21541
1.30449
1.35052
1.21164
1.41452
1.59966
1.6376
1.68586
1.48886
1.44588
1.45554
1.45525
1.41958
1.45079
1.39958
1.51775
1.66226
1.1537
1.16014
1.16072
1.16053
1.16363
1.16859
1.1652
1.16144
1.16319
1.15962
1.1554
1.15727
1.15438
1.15468
1.15894
1.15821
1.15468
1.149
1.14391
1.14237
1.14534
1.14923
1.14999
1.1469
1.14486
1.14371
1.1452
1.14602
1.14396
1.1433
1.14224
1.14181
1.14204
1.14147
1.13996
1.1401
1.1387
1.1375
1.13862
1.13864
1.14066
1.14218
1.14434
1.14735
1.14795
1.14879
1.14931
1.14774
1.1465
1.14688
1.14596
1.14473
1.14515
1.14439
1.14372
1.14541
1.14603
1.14891
1.15295
1.15328
1.15264
1.15394
1.1569
1.16064
1.15894
1.1659
1.1696
1.17613
1.17362
1.16922
1.17181
1.16934
1.17198
1.16671
1.16082
1.16212
1.16476
1.16788
1.16475
1.15701
1.15725
1.15781
1.15202
1.15379
1.15501
1.14989
1.15226
1.1464
1.14496
1.15259
1.14733
1.1497
1.14941
1.15499
1.14864
1.14643
1.15983
1.14978
1.13662
1.15245
1.14967
1.14824
1.14728
1.14055
1.14568
1.15855
1.14752
1.13863
1.14118
1.13811
1.15203
1.14033
1.13021
1.14144
1.11784
1.13922
1.16033
1.12266
1.12513
1.13002
1.13951
1.13181
1.10894
1.12808
1.14584
1.11747
1.1248
1.13632
1.112
1.09018
1.10418
1.13342
1.1628
1.18508
1.18207
1.16688
1.16624
1.1745
1.20224
1.15676
1.14316
1.17478
1.16982
1.16107
1.21101
1.26199
1.25265
1.18526
1.23745
1.24289
1.17474
1.19967
1.21649
1.25679
1.25578
1.18844
1.23986
1.17562
1.19823
1.21814
1.16035
1.29475
1.17057
1.20056
1.29856
1.35828
1.19514
1.37549
1.54844
1.59538
1.68568
1.44322
1.41448
1.43712
1.46208
1.39228
1.38827
1.38866
1.58775
1.72431
1.15714
1.16411
1.16525
1.1653
1.16304
1.16476
1.16892
1.17041
1.16924
1.16801
1.1616
1.15468
1.15465
1.15411
1.15227
1.15228
1.15009
1.14932
1.14705
1.14455
1.14487
1.14648
1.14735
1.14645
1.14567
1.14689
1.14987
1.15034
1.14742
1.14637
1.14573
1.14439
1.14219
1.14261
1.14246
1.14196
1.14118
1.14011
1.14001
1.13989
1.14174
1.14224
1.14367
1.14529
1.14625
1.14757
1.14883
1.14883
1.14902
1.14788
1.14667
1.14674
1.14643
1.14841
1.15107
1.14846
1.14856
1.14866
1.15066
1.15537
1.15215
1.15602
1.15753
1.16385
1.161
1.16173
1.16799
1.17032
1.17042
1.1655
1.16638
1.16468
1.16444
1.16227
1.16326
1.16279
1.16081
1.16059
1.16094
1.15951
1.1547
1.15256
1.15083
1.14775
1.14783
1.14456
1.14826
1.15053
1.14017
1.14316