/*--------------------------------*- C++ -*----------------------------------*\
| =========                 |                                                 |
| \\      /  F ield         | OpenFOAM: The Open Source CFD Toolbox           |
|  \\    /   O peration     | Version:  dev                                   |
|   \\  /    A nd           | Web:      http://www.openfoam.org               |
|    \\/     M anipulation  |                                                 |
\*---------------------------------------------------------------------------*/
FoamFile
{
    version     2.0;
    format      ascii;
    class       volScalarField;
    object      rho_0;
    location    "9.165";
}
// * * * * * * * * * * * * * * * * * * * * * * * * * * * * * * * * * * * * * //

dimensions      [1 -3 0 0 0 0 0];

internalField   nonuniform List<scalar> 
12225
(
1.16757
1.16901
1.17025
1.17123
1.17185
1.17246
1.17196
1.1725
1.17085
1.17157
1.16876
1.16991
1.16572
1.16804
1.16189
1.16476
1.16194
1.15248
1.16747
1.17034
1.17263
1.17527
1.17624
1.17905
1.17797
1.18111
1.17753
1.18152
1.17546
1.18099
1.17217
1.17972
1.16959
1.1758
1.17115
1.16239
1.16698
1.17069
1.17219
1.176
1.1761
1.18055
1.17911
1.18385
1.18036
1.18521
1.17991
1.18466
1.17809
1.18156
1.17551
1.17724
1.17264
1.16422
1.16681
1.17148
1.17193
1.1758
1.17585
1.17938
1.17933
1.182
1.18152
1.18315
1.18187
1.1826
1.1804
1.18036
1.17757
1.17758
1.17413
1.16899
1.16702
1.17117
1.17274
1.17493
1.17672
1.1779
1.17968
1.18008
1.18137
1.18115
1.18159
1.18101
1.18041
1.17953
1.1775
1.17661
1.17421
1.17413
1.1683
1.17013
1.17331
1.17343
1.17722
1.1765
1.18019
1.17929
1.18186
1.18027
1.18185
1.18027
1.18055
1.17886
1.17741
1.17551
1.17307
1.17303
1.16946
1.1693
1.17428
1.17265
1.17778
1.17536
1.18024
1.17844
1.18182
1.17948
1.18181
1.17962
1.18033
1.17812
1.17752
1.1754
1.17321
1.17199
1.17055
1.16905
1.17482
1.1721
1.17781
1.17486
1.18007
1.17781
1.18154
1.17896
1.18174
1.17922
1.18028
1.1778
1.178
1.17541
1.17446
1.17273
1.17162
1.16911
1.17546
1.17217
1.17831
1.17512
1.1804
1.17782
1.18145
1.17892
1.1814
1.17906
1.17993
1.17761
1.17754
1.17524
1.17436
1.17293
1.17217
1.16895
1.17603
1.1724
1.17882
1.17532
1.18028
1.17756
1.18085
1.17852
1.18059
1.17849
1.1792
1.1771
1.17668
1.17471
1.17377
1.17251
1.17256
1.1695
1.17634
1.17269
1.17851
1.17539
1.17974
1.17737
1.17996
1.17803
1.17937
1.17767
1.17787
1.17614
1.17548
1.17392
1.17277
1.17152
1.17327
1.17041
1.17632
1.17334
1.17815
1.17534
1.17892
1.17681
1.17843
1.17696
1.17749
1.17621
1.17586
1.17443
1.17349
1.17219
1.17102
1.16976
1.17397
1.17175
1.17583
1.17402
1.17693
1.17496
1.17721
1.1757
1.17623
1.17527
1.17496
1.174
1.17306
1.17191
1.17058
1.16942
1.16821
1.16689
1.1747
1.17312
1.17545
1.17472
1.17573
1.17466
1.17533
1.17421
1.17383
1.17285
1.1721
1.17105
1.16971
1.16851
1.167
1.16596
1.16459
1.16336
1.17618
1.17464
1.17555
1.17502
1.17478
1.17402
1.17352
1.17257
1.17165
1.17039
1.16926
1.16773
1.16629
1.16487
1.16312
1.16188
1.16044
1.15926
1.1787
1.17632
1.17618
1.17543
1.1746
1.1735
1.17225
1.17108
1.16963
1.16807
1.16659
1.16479
1.16304
1.16127
1.15957
1.15802
1.15639
1.15508
1.18146
1.17808
1.1775
1.17644
1.17506
1.17349
1.17178
1.17009
1.16834
1.16659
1.16463
1.16269
1.16082
1.1589
1.1571
1.15526
1.15362
1.15207
1.18439
1.17993
1.17931
1.17797
1.17628
1.17461
1.17281
1.1708
1.1689
1.16686
1.16476
1.1628
1.16067
1.15872
1.15685
1.15501
1.15354
1.15179
1.18649
1.18175
1.18113
1.1799
1.17848
1.17665
1.17512
1.17313
1.17127
1.16946
1.16723
1.16549
1.16328
1.16142
1.15971
1.15771
1.15656
1.1547
1.18859
1.1834
1.18287
1.18212
1.18083
1.17899
1.17792
1.17576
1.17441
1.17273
1.17045
1.16928
1.16677
1.16542
1.16366
1.16183
1.1611
1.15896
1.19
1.18465
1.18457
1.18414
1.18285
1.1814
1.1807
1.17843
1.17773
1.17606
1.1743
1.17346
1.17094
1.1701
1.16806
1.1666
1.16571
1.16384
1.19128
1.1857
1.18583
1.18558
1.1848
1.18364
1.183
1.18144
1.18076
1.17921
1.178
1.1767
1.17501
1.17392
1.17226
1.17124
1.16995
1.16886
1.19198
1.18676
1.18734
1.18692
1.18643
1.18577
1.18495
1.184
1.18319
1.18191
1.18121
1.17959
1.17874
1.17728
1.17604
1.17513
1.1736
1.17315
1.19261
1.18733
1.18796
1.18805
1.18775
1.18696
1.18643
1.18565
1.18503
1.18423
1.18338
1.18228
1.18129
1.18004
1.17903
1.17792
1.17695
1.17602
1.19314
1.18758
1.18857
1.18894
1.18871
1.18833
1.18774
1.18698
1.18636
1.18557
1.18481
1.18402
1.18303
1.18217
1.18116
1.18018
1.17935
1.17826
1.19329
1.18768
1.18876
1.18911
1.18921
1.18906
1.1886
1.18808
1.18734
1.18659
1.18577
1.18495
1.1841
1.18326
1.18243
1.18158
1.18076
1.17987
1.19344
1.18786
1.18891
1.18937
1.18948
1.18936
1.18908
1.18866
1.18818
1.18757
1.18693
1.18617
1.1854
1.18456
1.18376
1.18292
1.18211
1.18128
1.19402
1.18822
1.1894
1.18983
1.18991
1.18984
1.1897
1.1895
1.18926
1.18887
1.18835
1.18766
1.18689
1.18601
1.18513
1.18417
1.18325
1.18226
1.19413
1.18839
1.18957
1.19005
1.19026
1.19036
1.19032
1.19008
1.18962
1.18894
1.18808
1.18704
1.18592
1.18471
1.18353
1.18224
1.18107
1.17977
1.19719
1.19081
1.19059
1.18991
1.18918
1.18832
1.18728
1.18606
1.18471
1.18328
1.1818
1.18029
1.17881
1.17735
1.17592
1.17452
1.17318
1.17198
1.17658
1.19773
1.1923
1.18683
1.18357
1.18141
1.17968
1.17848
1.17745
1.17646
1.17613
1.1759
1.17532
1.17542
1.17556
1.17504
1.17507
1.17508
1.17438
1.17444
1.17446
1.17432
1.17483
1.17455
1.17473
1.17412
1.17118
1.16935
1.17183
1.17235
1.16467
1.15738
1.15632
1.15827
1.16059
1.1627
1.16325
1.16126
1.15763
1.15494
1.15905
1.16894
1.18161
1.18288
1.16973
1.15749
1.15298
1.15237
1.14873
1.14342
1.14133
1.14243
1.14459
1.14694
1.14935
1.15182
1.15437
1.15697
1.15964
1.16235
1.16509
1.16786
1.17064
1.17344
1.17624
1.17905
1.18185
1.18462
1.18735
1.19004
1.19268
1.19527
1.19781
1.20023
1.2025
1.20464
1.20673
1.20885
1.21109
1.21336
1.21564
1.21747
1.21947
1.22211
1.22391
1.22603
1.22792
1.22984
1.23161
1.23323
1.2349
1.23649
1.23813
1.23977
1.24177
1.244
1.24656
1.24966
1.25336
1.25732
1.26155
1.26619
1.27065
1.27511
1.28048
1.28632
1.29266
1.29934
1.30646
1.31341
1.32109
1.32875
1.33639
1.34335
1.34955
1.35536
1.35832
1.3609
1.36365
1.36544
1.3658
1.36054
1.3529
1.35209
1.35728
1.36506
1.37018
1.37011
1.36898
1.36537
1.3612
1.35838
1.35755
1.35678
1.35705
1.35853
1.36315
1.36545
1.37181
1.384
1.39179
1.38323
1.37452
1.4178
1.43137
1.4364
1.45042
1.46841
1.48197
1.49212
1.50607
1.52354
1.54011
1.55608
1.57513
1.59457
1.61404
1.64143
1.66383
1.68526
1.70758
1.72078
1.72685
1.73175
1.75811
1.81526
1.85129
1.84554
1.84888
1.9114
1.93976
1.87387
1.80282
1.89187
2.09385
1.95028
1.87903
1.89897
1.835
1.75365
1.17126
1.20115
1.20039
1.18815
1.17881
1.17351
1.17007
1.16748
1.16588
1.16391
1.16248
1.16189
1.16137
1.16163
1.16222
1.16129
1.16414
1.16435
1.16349
1.16561
1.16684
1.16642
1.16835
1.17387
1.17171
1.17784
1.18309
1.17573
1.18223
1.1819
1.17213
1.17742
1.18099
1.18216
1.19315
1.20846
1.20782
1.19437
1.20116
1.21936
1.21323
1.18277
1.19385
1.21994
1.18928
1.14968
1.13885
1.13916
1.14045
1.14192
1.14388
1.14601
1.14824
1.1505
1.15285
1.15529
1.15776
1.16029
1.16282
1.16541
1.16799
1.17061
1.1733
1.17599
1.17872
1.18146
1.18417
1.18686
1.18946
1.19202
1.19452
1.19698
1.19948
1.20195
1.20406
1.20567
1.20718
1.20887
1.21105
1.21319
1.2163
1.21731
1.21893
1.22371
1.22513
1.22893
1.23145
1.2346
1.23855
1.24099
1.24448
1.24702
1.24915
1.25037
1.25142
1.25265
1.25318
1.2541
1.25868
1.26477
1.27179
1.28205
1.29138
1.29883
1.30844
1.31844
1.32729
1.33893
1.35438
1.36818
1.37897
1.38908
1.39499
1.39873
1.39465
1.3913
1.38736
1.38312
1.386
1.38352
1.37061
1.34907
1.33717
1.34879
1.36764
1.39128
1.42735
1.45029
1.45705
1.44222
1.41165
1.40094
1.39492
1.38255
1.37395
1.37078
1.37243
1.36358
1.37639
1.3891
1.39047
1.35296
1.32506
1.42789
1.43112
1.408
1.42357
1.4704
1.48931
1.47696
1.50509
1.53622
1.55899
1.59
1.6234
1.65738
1.68996
1.7295
1.77862
1.82334
1.86564
1.84522
1.75907
1.76167
1.86556
1.9881
2.02529
2.03628
2.0669
2.23827
2.28675
2.09574
2.01835
2.23306
2.39011
2.14784
2.18955
2.11457
2.11272
2.05704
1.1608
1.18853
1.19262
1.18101
1.17112
1.16637
1.16339
1.16018
1.15787
1.15555
1.15419
1.15069
1.15287
1.15071
1.14577
1.15232
1.14941
1.15086
1.15025
1.15113
1.15216
1.15159
1.15732
1.15476
1.16306
1.17242
1.16967
1.18074
1.18471
1.17391
1.17865
1.18619
1.18512
1.17581
1.17404
1.19896
1.21671
1.21044
1.2
1.20738
1.23431
1.22009
1.17023
1.14688
1.1413
1.1393
1.13957
1.13988
1.14066
1.14178
1.14308
1.14473
1.14649
1.14854
1.15058
1.15285
1.15522
1.15761
1.16009
1.16243
1.16494
1.16742
1.16987
1.17255
1.17513
1.17782
1.18054
1.18321
1.18586
1.18834
1.19059
1.1927
1.19514
1.19809
1.20072
1.20188
1.20257
1.20317
1.20421
1.20385
1.20613
1.20545
1.20605
1.20809
1.20824
1.211
1.21272
1.21496
1.22014
1.22281
1.22817
1.23249
1.23732
1.24138
1.24365
1.24894
1.25169
1.24795
1.24691
1.25032
1.2557
1.26405
1.27141
1.27782
1.28831
1.30186
1.31379
1.32703
1.33703
1.3506
1.35807
1.37618
1.39207
1.39965
1.38503
1.35449
1.32653
1.30857
1.31199
1.32395
1.31834
1.28303
1.25254
1.25662
1.28061
1.31149
1.3594
1.41136
1.44041
1.42825
1.402
1.39781
1.38355
1.36405
1.35227
1.35603
1.36425
1.35255
1.36397
1.36701
1.38288
1.34843
1.32554
1.42409
1.39734
1.35983
1.37624
1.44399
1.4612
1.39121
1.43317
1.47371
1.46993
1.51604
1.55733
1.60542
1.67215
1.68979
1.74432
1.82771
1.89982
1.82869
1.6848
1.67823
1.86227
1.94215
1.84447
1.91691
2.08484
2.32672
2.33245
2.1304
2.10146
2.31609
2.22483
2.06574
2.12142
1.95685
1.9884
2.00356
1.15268
1.17069
1.17087
1.16388
1.15974
1.15829
1.15558
1.15217
1.15084
1.14789
1.14595
1.14852
1.14363
1.14708
1.14128
1.14523
1.14969
1.13975
1.1514
1.14146
1.1461
1.14859
1.13318
1.14468
1.14336
1.14823
1.17195
1.17221
1.18552
1.21026
1.1849
1.16434
1.1944
1.19899
1.17783
1.18736
1.20182
1.20234
1.21239
1.21142
1.18123
1.15474
1.14239
1.13837
1.13526
1.13456
1.13467
1.13597
1.13729
1.13938
1.14138
1.14354
1.14563
1.14773
1.14991
1.15202
1.15425
1.15658
1.15884
1.16125
1.16346
1.16574
1.16822
1.1706
1.1732
1.17581
1.17837
1.18104
1.18401
1.187
1.1896
1.1915
1.19326
1.1967
1.20148
1.20445
1.20567
1.20745
1.20977
1.20839
1.20984
1.20769
1.20889
1.20814
1.20723
1.20701
1.207
1.20724
1.20954
1.21021
1.21508
1.21723
1.22114
1.22814
1.22663
1.22973
1.24275
1.24791
1.24565
1.24448
1.2495
1.26031
1.26808
1.26893
1.26927
1.27983
1.28834
1.30049
1.30738
1.32064
1.32541
1.32947
1.3415
1.36799
1.37333
1.34453
1.30979
1.28765
1.27338
1.27616
1.29059
1.28386
1.26385
1.2503
1.2519
1.27498
1.31564
1.37251
1.41267
1.40248
1.39046
1.38714
1.36716
1.35413
1.34343
1.34924
1.36025
1.35436
1.36095
1.36777
1.38666
1.3697
1.3459
1.41393
1.39405
1.36436
1.36375
1.4516
1.47071
1.35488
1.39407
1.46131
1.40988
1.45836
1.49258
1.49406
1.61649
1.65268
1.65356
1.7516
1.8447
1.83263
1.75772
1.72792
1.90971
1.9087
1.69817
1.75761
2.01917
2.29659
2.28895
2.13707
2.14952
2.36879
2.19428
2.0249
2.00115
1.94202
1.9456
1.9533
1.14688
1.15559
1.15453
1.15398
1.15388
1.15181
1.14766
1.14597
1.14527
1.1475
1.14826
1.14713
1.1484
1.14748
1.15029
1.15095
1.15635
1.15227
1.15493
1.15652
1.15351
1.16593
1.13756
1.12613
1.14287
1.14665
1.1701
1.17991
1.16932
1.18489
1.20902
1.20598
1.18106
1.17044
1.18963
1.20983
1.2126
1.20541
1.18842
1.16461
1.14542
1.13498
1.12982
1.12917
1.13001
1.13247
1.13536
1.13845
1.14079
1.14259
1.14403
1.14501
1.14607
1.14706
1.14825
1.14963
1.15124
1.15306
1.15501
1.15693
1.15883
1.16073
1.16279
1.16489
1.16715
1.16917
1.17124
1.17322
1.1753
1.17738
1.17941
1.18124
1.1826
1.18527
1.18905
1.19335
1.19476
1.19808
1.20054
1.20189
1.20644
1.2066
1.20645
1.20657
1.20637
1.20577
1.20511
1.20379
1.20583
1.20441
1.20757
1.20966
1.20753
1.2142
1.21876
1.21443
1.21838
1.22984
1.23782
1.23414
1.23294
1.24394
1.25592
1.25854
1.25698
1.26341
1.26984
1.27969
1.28583
1.29199
1.29138
1.28759
1.2846
1.30284
1.32616
1.32714
1.32275
1.3139
1.28898
1.27794
1.29455
1.28438
1.25829
1.23851
1.24539
1.27317
1.31205
1.36287
1.40068
1.38951
1.38125
1.3677
1.3399
1.34722
1.34888
1.33418
1.32781
1.34349
1.35315
1.38817
1.37304
1.37378
1.36028
1.39133
1.3769
1.36382
1.32558
1.41488
1.44327
1.36887
1.39011
1.46916
1.39332
1.43268
1.49124
1.42276
1.52973
1.6104
1.60855
1.67162
1.67767
1.80069
1.76263
1.69168
1.88466
1.90758
1.69822
1.70989
1.96581
2.22808
2.21653
2.10851
2.1917
2.4722
2.0909
1.95444
1.94501
1.91563
1.94271
1.93693
1.14322
1.14786
1.1492
1.15069
1.14852
1.1437
1.14257
1.14578
1.14886
1.15055
1.15025
1.14896
1.1486
1.15085
1.15554
1.15744
1.16001
1.15832
1.15029
1.16123
1.16309
1.16363
1.16649
1.13707
1.1248
1.14399
1.15236
1.17614
1.20592
1.20836
1.19452
1.18033
1.18528
1.20334
1.20856
1.1993
1.18622
1.17156
1.15328
1.13732
1.12939
1.1275
1.12869
1.13185
1.13595
1.13871
1.14022
1.14007
1.13974
1.13871
1.13853
1.13873
1.1398
1.14124
1.14337
1.14567
1.14849
1.15119
1.15414
1.15687
1.15967
1.16245
1.16521
1.16767
1.1699
1.17184
1.17355
1.17515
1.17679
1.17785
1.17908
1.18055
1.18203
1.18457
1.18507
1.18755
1.18651
1.19045
1.18944
1.19066
1.19306
1.19609
1.19812
1.19976
1.2002
1.20089
1.20212
1.20049
1.2008
1.20171
1.20271
1.20625
1.20751
1.2054
1.20834
1.20931
1.20744
1.20703
1.21892
1.22826
1.22602
1.22792
1.23993
1.24267
1.24244
1.24138
1.24778
1.25417
1.26589
1.27296
1.2718
1.27147
1.2654
1.26598
1.27804
1.28574
1.2949
1.30241
1.26913
1.23844
1.25786
1.26525
1.24694
1.21985
1.21476
1.24526
1.29408
1.34951
1.39097
1.37407
1.36892
1.3568
1.31821
1.32015
1.33119
1.31587
1.30741
1.33064
1.34998
1.37699
1.3545
1.38521
1.37375
1.37494
1.369
1.36177
1.31915
1.32904
1.37494
1.39076
1.41143
1.46565
1.39637
1.41478
1.4852
1.40459
1.48293
1.52904
1.58053
1.6466
1.48814
1.6876
1.72405
1.59212
1.78852
1.86864
1.67204
1.69969
1.95245
2.16449
2.14672
2.06199
2.17867
2.55918
2.03002
1.91013
1.88183
1.8283
1.92684
1.92292
1.1407
1.14426
1.14651
1.14605
1.14218
1.1405
1.1445
1.14778
1.14694
1.14626
1.14394
1.14464
1.15094
1.1575
1.16397
1.1714
1.16923
1.16026
1.14994
1.15306
1.16184
1.15384
1.15363
1.15626
1.14208
1.14766
1.18633
1.19828
1.18859
1.19305
1.19921
1.20518
1.2073
1.19603
1.18202
1.16979
1.15691
1.14274
1.13182
1.12723
1.12699
1.13012
1.13389
1.13641
1.1371
1.13575
1.13378
1.13193
1.13171
1.13269
1.13541
1.1386
1.14276
1.14661
1.15054
1.15393
1.15702
1.15986
1.16229
1.16459
1.16669
1.16878
1.17051
1.17201
1.17313
1.17383
1.17434
1.1745
1.17511
1.17549
1.17674
1.17874
1.18046
1.18315
1.18555
1.19131
1.19154
1.19483
1.19317
1.19478
1.19206
1.19127
1.1906
1.19273
1.19292
1.19383
1.19353
1.19742
1.19586
1.19373
1.195
1.19619
1.19819
1.19991
1.20475
1.20472
1.20776
1.20721
1.20508
1.20961
1.21294
1.20923
1.22157
1.22444
1.23305
1.22876
1.23405
1.22911
1.24063
1.25131
1.25916
1.27266
1.27634
1.26183
1.2591
1.259
1.26749
1.29117
1.26914
1.23063
1.22951
1.2381
1.241
1.22006
1.19874
1.21569
1.2678
1.32727
1.37273
1.36165
1.34924
1.3562
1.31978
1.29589
1.29716
1.29081
1.29017
1.29759
1.32264
1.32633
1.30449
1.3388
1.36426
1.35317
1.35436
1.33398
1.35158
1.28755
1.31353
1.36022
1.38434
1.42787
1.40137
1.39895
1.43975
1.39824
1.48346
1.43863
1.53653
1.64603
1.37686
1.5436
1.64573
1.51237
1.70467
1.79661
1.59579
1.66747
1.93369
2.09371
2.08636
2.02999
2.1507
2.44981
1.92978
1.84548
1.82529
1.75021
1.88745
1.88342
1.13868
1.14205
1.14326
1.14232
1.14079
1.14108
1.14241
1.14206
1.14305
1.14392
1.14695
1.15779
1.16807
1.177
1.1851
1.19044
1.18162
1.16783
1.16538
1.16428
1.17343
1.17218
1.1417
1.12201
1.14253
1.17265
1.17865
1.18642
1.20679
1.21147
1.20643
1.1964
1.1783
1.16276
1.15322
1.14539
1.13704
1.1292
1.12665
1.12814
1.13112
1.13441
1.13524
1.13405
1.13113
1.12952
1.12911
1.13117
1.13493
1.13986
1.14489
1.14909
1.15235
1.15458
1.15567
1.15617
1.15615
1.15639
1.15636
1.157
1.15799
1.15939
1.16076
1.16196
1.16305
1.16366
1.16468
1.16525
1.16695
1.16708
1.16808
1.1678
1.16966
1.16815
1.17004
1.17424
1.17954
1.18668
1.19062
1.19517
1.19687
1.19593
1.19477
1.19428
1.19455
1.19857
1.1946
1.19566
1.19869
1.1962
1.19149
1.19263
1.19661
1.19137
1.19342
1.19414
1.19311
1.20022
1.20475
1.20569
1.21056
1.19922
1.20906
1.20845
1.22069
1.21397
1.22257
1.21386
1.22282
1.22933
1.2354
1.24854
1.26308
1.25361
1.25373
1.25003
1.24183
1.26811
1.26465
1.23756
1.22123
1.22471
1.24043
1.22898
1.19766
1.19538
1.24515
1.3067
1.34603
1.3529
1.33116
1.33864
1.32299
1.30428
1.28058
1.26742
1.28637
1.28495
1.26424
1.29017
1.29146
1.28747
1.32277
1.34249
1.33077
1.2992
1.36
1.32789
1.29262
1.33412
1.33483
1.37665
1.40144
1.3762
1.38094
1.38627
1.47982
1.36016
1.46184
1.6217
1.41844
1.48616
1.56032
1.42985
1.62484
1.71359
1.52872
1.63527
1.9086
2.02791
2.02602
2.03381
2.1994
2.17167
1.84715
1.82762
1.78046
1.67851
1.84581
1.84056
1.13683
1.13993
1.14025
1.14046
1.13955
1.13874
1.14207
1.14471
1.14681
1.14985
1.15766
1.17096
1.17609
1.17581
1.17325
1.16802
1.16386
1.16057
1.15851
1.15383
1.13948
1.12312
1.12373
1.142
1.16166
1.1793
1.20167
1.21502
1.20448
1.19042
1.17764
1.16146
1.15171
1.14401
1.13578
1.13046
1.1262
1.12571
1.12862
1.13149
1.1338
1.13306
1.13096
1.12849
1.12698
1.1287
1.13217
1.13731
1.14196
1.14599
1.14834
1.14943
1.14922
1.14885
1.14818
1.14806
1.148
1.1484
1.1491
1.15031
1.152
1.15424
1.15731
1.16031
1.16413
1.1671
1.17109
1.17343
1.17771
1.17923
1.18176
1.18056
1.18207
1.17753
1.17714
1.17215
1.17101
1.17107
1.17526
1.17783
1.18219
1.18333
1.18564
1.18552
1.18509
1.19439
1.19782
1.1993
1.19866
1.19897
1.19503
1.18695
1.18852
1.19215
1.19247
1.19766
1.19131
1.18747
1.19565
1.19722
1.20577
1.19622
1.19492
1.19257
1.20469
1.20772
1.21409
1.20472
1.20681
1.21571
1.21733
1.21995
1.23073
1.23081
1.23482
1.23857
1.22033
1.24113
1.25648
1.24804
1.2264
1.20595
1.21824
1.21577
1.18673
1.16756
1.21087
1.27722
1.3149
1.33799
1.31952
1.31721
1.30891
1.30349
1.28619
1.26367
1.2666
1.27854
1.2499
1.25633
1.25774
1.24861
1.25466
1.31977
1.30334
1.29332
1.35134
1.34935
1.28726
1.32679
1.3156
1.33817
1.39674
1.35942
1.34865
1.36608
1.4463
1.31426
1.35353
1.55763
1.4862
1.49055
1.52848
1.38878
1.5665
1.63462
1.46711
1.60152
1.8687
1.9698
1.98169
2.07385
2.18563
1.91266
1.7689
1.7633
1.72228
1.62065
1.77251
1.76586
1.13511
1.1378
1.13776
1.1384
1.13968
1.14226
1.14582
1.14449
1.14441
1.15086
1.16466
1.17699
1.16935
1.15241
1.14557
1.15096
1.15487
1.15255
1.14548
1.14253
1.14494
1.15307
1.16535
1.18066
1.19942
1.21138
1.20227
1.18069
1.16693
1.158
1.14458
1.13716
1.1343
1.13016
1.12836
1.12817
1.1281
1.13059
1.13229
1.13305
1.13224
1.12889
1.12697
1.1263
1.12876
1.13317
1.13819
1.14253
1.14537
1.14697
1.14751
1.14801
1.14873
1.15031
1.15238
1.15478
1.15748
1.15989
1.16207
1.1638
1.16548
1.16673
1.16888
1.17054
1.1739
1.17582
1.17922
1.18102
1.18379
1.18579
1.18763
1.18915
1.19163
1.1916
1.19205
1.18911
1.18563
1.18276
1.1796
1.18042
1.18187
1.1791
1.17798
1.17577
1.16684
1.17582
1.18211
1.19352
1.20296
1.2049
1.19915
1.19841
1.18931
1.18587
1.17979
1.18694
1.19493
1.18604
1.18908
1.19191
1.19776
1.1985
1.19098
1.19015
1.18862
1.19485
1.20437
1.2029
1.19701
1.20576
1.2039
1.20016
1.19572
1.197
1.20389
1.22195
1.21375
1.21715
1.23216
1.24318
1.23848
1.20167
1.20106
1.21076
1.19681
1.16087
1.18159
1.24416
1.28609
1.31617
1.30452
1.29969
1.28729
1.28655
1.27853
1.26918
1.25684
1.26528
1.25414
1.25185
1.25528
1.21706
1.22459
1.28254
1.26741
1.31032
1.38273
1.32727
1.2779
1.32065
1.30777
1.3055
1.3759
1.35188
1.33875
1.34151
1.41438
1.31192
1.2766
1.50225
1.41407
1.45915
1.49583
1.35935
1.53252
1.56032
1.41163
1.56554
1.82409
1.92155
1.95854
2.06735
1.99892
1.76118
1.7125
1.72703
1.6736
1.59747
1.67042
1.6734
1.13358
1.13593
1.13583
1.13645
1.13943
1.14153
1.1417
1.14109
1.14589
1.15573
1.17011
1.17867
1.16152
1.1362
1.12865
1.14634
1.16521
1.17178
1.17121
1.17386
1.1794
1.18826
1.19962
1.20936
1.20406
1.18208
1.15981
1.14954
1.14696
1.13939
1.13281
1.13096
1.12777
1.12571
1.12674
1.12723
1.12912
1.13171
1.13084
1.12995
1.12752
1.12535
1.12578
1.12823
1.13321
1.13774
1.14165
1.14389
1.14545
1.14642
1.14791
1.14966
1.15226
1.1548
1.15772
1.16021
1.16251
1.16473
1.16739
1.16996
1.17282
1.17406
1.17557
1.17521
1.17672
1.17732
1.17801
1.17916
1.17907
1.18024
1.1811
1.18238
1.18368
1.18585
1.18644
1.18895
1.18581
1.18569
1.1834
1.17924
1.18418
1.18506
1.18401
1.18689
1.17158
1.16898
1.16752
1.17233
1.18119
1.19919
1.1922
1.19281
1.19483
1.19355
1.18679
1.1787
1.18855
1.18744
1.182
1.18633
1.18841
1.19527
1.18465
1.19125
1.18741
1.18162
1.18774
1.19463
1.19121
1.19506
1.19359
1.19579
1.17813
1.17854
1.18157
1.19461
1.20476
1.19869
1.19421
1.21287
1.23302
1.20478
1.18562
1.19178
1.1931
1.15466
1.15236
1.20683
1.25276
1.29306
1.28785
1.28405
1.26609
1.26645
1.2557
1.26236
1.24671
1.26442
1.26109
1.25431
1.26627
1.21452
1.22651
1.26324
1.22335
1.26963
1.38269
1.31714
1.2618
1.30716
1.3073
1.29239
1.34278
1.3357
1.32563
1.31675
1.38478
1.33102
1.27324
1.46412
1.33528
1.41466
1.44985
1.32068
1.49983
1.48635
1.36612
1.53276
1.77642
1.87234
1.93476
1.93945
1.82269
1.65889
1.65641
1.68168
1.64431
1.58233
1.55591
1.5903
1.13235
1.13483
1.13547
1.13427
1.13577
1.139
1.14079
1.13887
1.13868
1.1443
1.1594
1.17342
1.16422
1.14253
1.12921
1.14405
1.17456
1.1962
1.20383
1.20404
1.20089
1.19838
1.19226
1.18031
1.162
1.14742
1.13977
1.13742
1.13377
1.12883
1.12918
1.1292
1.12857
1.13049
1.13158
1.13112
1.13194
1.13062
1.12869
1.12761
1.12569
1.12617
1.12796
1.13185
1.13659
1.13987
1.14288
1.14444
1.14639
1.14813
1.15066
1.15246
1.1546
1.15601
1.15704
1.15777
1.15855
1.15964
1.16201
1.16443
1.16828
1.17177
1.17614
1.17928
1.18194
1.18509
1.18619
1.18795
1.18955
1.19029
1.19102
1.19286
1.19272
1.19488
1.19392
1.19229
1.19146
1.18525
1.1851
1.17683
1.17377
1.17376
1.1725
1.18314
1.18303
1.17945
1.17631
1.17968
1.17854
1.19039
1.1967
1.18491
1.19089
1.18569
1.18712
1.1785
1.17968
1.18532
1.18225
1.18177
1.17812
1.18954
1.18435
1.18556
1.19097
1.18
1.17666
1.17721
1.18654
1.18618
1.18366
1.19798
1.17558
1.17388
1.17176
1.17073
1.19307
1.1983
1.17902
1.18728
1.21305
1.20326
1.17628
1.17116
1.18733
1.16239
1.13182
1.1686
1.21506
1.26391
1.26732
1.26768
1.2508
1.24948
1.22945
1.24922
1.216
1.24793
1.23611
1.23995
1.26143
1.21361
1.21715
1.26353
1.24172
1.23462
1.32765
1.31423
1.26859
1.29028
1.2955
1.29789
1.32063
1.31504
1.31268
1.29425
1.35456
1.29653
1.2915
1.41894
1.29737
1.39677
1.4112
1.28983
1.46579
1.42188
1.3258
1.51156
1.73768
1.82067
1.88516
1.79469
1.70793
1.60308
1.62378
1.64502
1.63684
1.57274
1.48375
1.5422
1.13161
1.13505
1.13673
1.13468
1.13456
1.13813
1.14097
1.14132
1.14193
1.14725
1.16131
1.17699
1.17813
1.17203
1.16317
1.16447
1.18501
1.20689
1.21448
1.20548
1.18614
1.16858
1.15643
1.14581
1.13826
1.13502
1.13196
1.1305
1.12843
1.12816
1.12949
1.12833
1.12826
1.12976
1.12931
1.12931
1.13028
1.12862
1.12784
1.12613
1.12471
1.12658
1.12957
1.13429
1.13812
1.14166
1.14399
1.14529
1.14768
1.14904
1.15062
1.15126
1.15155
1.15157
1.15149
1.15218
1.15405
1.15585
1.15916
1.16246
1.1657
1.16827
1.17004
1.17386
1.17639
1.17996
1.18289
1.18462
1.1861
1.18937
1.18752
1.18899
1.18815
1.19002
1.19679
1.19744
1.19903
1.1941
1.18955
1.18687
1.17969
1.17553
1.16683
1.16308
1.1681
1.17285
1.17293
1.17633
1.18547
1.18238
1.19776
1.18277
1.19062
1.18379
1.18102
1.18136
1.17793
1.17633
1.18094
1.18321
1.17241
1.17485
1.17985
1.17642
1.18303
1.18138
1.17665
1.1627
1.18053
1.18178
1.1777
1.19186
1.17343
1.16987
1.16963
1.15731
1.1704
1.19101
1.18087
1.17426
1.19273
1.19927
1.17775
1.15381
1.16583
1.16719
1.13039
1.13487
1.17447
1.2311
1.24669
1.25087
1.23526
1.23674
1.2093
1.23933
1.18305
1.21258
1.201
1.19341
1.23761
1.20514
1.17797
1.22251
1.27908
1.26633
1.30243
1.3044
1.28568
1.27925
1.2578
1.28983
1.29812
1.28657
1.30105
1.27103
1.34113
1.23628
1.2994
1.36139
1.24942
1.37697
1.36327
1.25941
1.41733
1.37336
1.29152
1.49552
1.70901
1.77199
1.81349
1.70433
1.60023
1.56733
1.5676
1.59095
1.62057
1.531
1.44399
1.55079
1.13154
1.13643
1.13948
1.13887
1.13815
1.14577
1.15024
1.14517
1.14042
1.1428
1.15146
1.16469
1.17438
1.18117
1.18519
1.18845
1.19764
1.20217
1.19289
1.16991
1.14901
1.13824
1.13547
1.13231
1.13095
1.12946
1.12741
1.12857
1.12898
1.13024
1.13122
1.13
1.131
1.13131
1.12925
1.1293
1.12841
1.12547
1.12526
1.12433
1.12522
1.12879
1.13225
1.13677
1.13975
1.14257
1.14346
1.1447
1.14607
1.14589
1.14623
1.1459
1.145
1.14521
1.14619
1.14715
1.14956
1.15199
1.15439
1.15729
1.1599
1.16411
1.16571
1.16878
1.17176
1.17551
1.17786
1.18154
1.18127
1.18501
1.18612
1.18301
1.18056
1.17687
1.17957
1.18754
1.19144
1.19492
1.18746
1.18216
1.18155
1.18028
1.17934
1.17578
1.16927
1.17041
1.17454
1.1702
1.18586
1.17844
1.19272
1.18337
1.18642
1.18335
1.17313
1.17768
1.1773
1.17086
1.17463
1.18117
1.1739
1.16854
1.17461
1.17756
1.17488
1.17848
1.18173
1.15424
1.16465
1.17795
1.17497
1.18429
1.16766
1.15767
1.16868
1.16367
1.15656
1.17032
1.18311
1.16952
1.17047
1.18542
1.18038
1.15056
1.14851
1.16131
1.14303
1.12189
1.13277
1.19238
1.22314
1.2346
1.21898
1.22714
1.18691
1.22444
1.1846
1.18055
1.18254
1.16837
1.20703
1.19208
1.14689
1.17736
1.25921
1.27347
1.29582
1.28388
1.28623
1.26586
1.22014
1.26829
1.27243
1.2629
1.28638
1.24518
1.32667
1.21482
1.28981
1.27785
1.21486
1.34854
1.29819
1.23862
1.36449
1.34733
1.2601
1.47566
1.67955
1.72683
1.7443
1.63788
1.52947
1.52649
1.52391
1.54495
1.59556
1.48494
1.43247
1.60129
1.13201
1.13791
1.14039
1.14096
1.14043
1.14118
1.139
1.13829
1.1372
1.13707
1.14012
1.14998
1.16307
1.17002
1.17313
1.17537
1.17612
1.16885
1.156
1.1407
1.13047
1.12996
1.13167
1.13128
1.1304
1.12914
1.12772
1.12966
1.12904
1.12908
1.12846
1.12744
1.12863
1.12846
1.1275
1.12829
1.12734
1.12552
1.1261
1.12541
1.12717
1.13035
1.13328
1.13739
1.13955
1.14102
1.1415
1.14256
1.14245
1.14291
1.14313
1.1423
1.14259
1.14272
1.14292
1.14385
1.14602
1.14898
1.15078
1.15396
1.15505
1.15842
1.15952
1.16142
1.16499
1.17195
1.17691
1.18087
1.18441
1.18624
1.19081
1.19261
1.18684
1.1838
1.17796
1.18267
1.1862
1.18943
1.19184
1.18218
1.17496
1.17164
1.1679
1.17171
1.16985
1.17054
1.17543
1.16789
1.18069
1.17617
1.18279
1.1821
1.18068
1.18314
1.17145
1.17468
1.17768
1.16664
1.16718
1.17438
1.17531
1.16831
1.1658
1.1718
1.17121
1.17085
1.17927
1.15993
1.15195
1.17456
1.17601
1.17601
1.1661
1.1464
1.15965
1.17498
1.16019
1.14929
1.16958
1.17259
1.16479
1.17043
1.17555
1.15292
1.13641
1.14468
1.15016
1.12518
1.10611
1.14968
1.19164
1.21833
1.20668
1.22016
1.1826
1.19177
1.19116
1.18055
1.1805
1.15883
1.18734
1.19618
1.14729
1.15208
1.23337
1.26547
1.27847
1.24408
1.26952
1.24658
1.18979
1.23967
1.2478
1.25352
1.27086
1.22331
1.2998
1.20344
1.25811
1.22003
1.19288
1.31937
1.2328
1.22483
1.32453
1.3417
1.23094
1.44956
1.64523
1.68423
1.70272
1.56358
1.48941
1.49262
1.4817
1.48117
1.53556
1.43685
1.45178
1.6287
1.13291
1.13901
1.13966
1.13928
1.13842
1.14055
1.14793
1.14875
1.14012
1.13655
1.13253
1.13674
1.14695
1.14971
1.15253
1.15265
1.14742
1.14075
1.13222
1.1269
1.12643
1.12869
1.12978
1.12822
1.12693
1.12609
1.12734
1.1304
1.12982
1.13046
1.12996
1.12929
1.12957
1.12806
1.12708
1.1281
1.12704
1.12598
1.12763
1.12666
1.12865
1.13209
1.13369
1.13692
1.1387
1.13931
1.14034
1.14195
1.14096
1.14092
1.14111
1.14075
1.14143
1.14104
1.14197
1.14428
1.14549
1.14836
1.1483
1.15046
1.15285
1.15771
1.16382
1.16639
1.16816
1.17174
1.17714
1.18116
1.17809
1.18002
1.18111
1.18581
1.18412
1.17888
1.17744
1.17924
1.18253
1.1826
1.18365
1.18445
1.18066
1.17541
1.17137
1.17242
1.16734
1.16495
1.17088
1.16553
1.17271
1.17282
1.17169
1.1773
1.17598
1.17992
1.16733
1.16825
1.17765
1.16615
1.16133
1.17172
1.17339
1.16996
1.16399
1.16519
1.17216
1.1724
1.17152
1.16357
1.14787
1.16414
1.1772
1.1647
1.15939
1.1459
1.143
1.17635
1.17578
1.13891
1.15076
1.16802
1.16427
1.15278
1.15103
1.15323
1.13999
1.12956
1.14604
1.13515
1.10397
1.11452
1.14957
1.1908
1.19881
1.20575
1.19199
1.17513
1.17846
1.18564
1.19474
1.15378
1.1653
1.19677
1.16804
1.14995
1.22278
1.27357
1.27264
1.21676
1.25874
1.2425
1.17153
1.21096
1.22873
1.25334
1.25733
1.19993
1.26636
1.18373
1.21733
1.20725
1.17102
1.30124
1.1824
1.20945
1.30007
1.34265
1.20749
1.41544
1.60147
1.64152
1.69212
1.49635
1.45412
1.46381
1.46095
1.43186
1.46919
1.4094
1.50975
1.66106
1.13425
1.14053
1.14106
1.14088
1.144
1.149
1.14581
1.14204
1.14372
1.14039
1.13616
1.13827
1.13565
1.13571
1.14005
1.13973
1.13657
1.13113
1.12603
1.12422
1.12697
1.13106
1.1324
1.12972
1.12779
1.12665
1.12822
1.12942
1.12767
1.12716
1.12636
1.12613
1.12659
1.12652
1.12534
1.12579
1.12489
1.12398
1.12541
1.12587
1.12828
1.13023
1.13284
1.13647
1.13779
1.13929
1.1406
1.1398
1.13918
1.14026
1.14015
1.1396
1.14076
1.14076
1.1407
1.1432
1.14456
1.14819
1.15297
1.15403
1.15431
1.15631
1.16014
1.16446
1.16361
1.17136
1.17569
1.18297
1.18083
1.17735
1.18048
1.17888
1.18189
1.17672
1.17116
1.17314
1.17653
1.17997
1.17702
1.16976
1.17056
1.17105
1.1654
1.16788
1.16883
1.16399
1.16671
1.16048
1.16078
1.16836
1.16316
1.16625
1.16584
1.17145
1.16445
1.16344
1.17657
1.1649
1.15314
1.16953
1.16623
1.16496
1.16311
1.15737
1.16376
1.17512
1.16382
1.15594
1.1567
1.15552
1.16992
1.15683
1.14791
1.15636
1.13367
1.15928
1.17731
1.13664
1.14125
1.1493
1.15679
1.14575
1.12614
1.14517
1.15648
1.12872
1.13886
1.14715
1.12023
1.10213
1.11958
1.14995
1.1777
1.1968
1.1906
1.17432
1.17356
1.18179
1.20551
1.15686
1.1471
1.17863
1.1692
1.16019
1.21407
1.26211
1.249
1.18395
1.23636
1.23539
1.16696
1.19528
1.21236
1.25045
1.24596
1.18048
1.23183
1.16664
1.19197
1.20828
1.15439
1.28747
1.16133
1.19531
1.29511
1.35087
1.19078
1.37729
1.5512
1.60072
1.6917
1.44978
1.42355
1.44613
1.46661
1.40115
1.40651
1.39547
1.58267
1.72776
1.13633
1.14316
1.1443
1.14436
1.14226
1.14399
1.14798
1.14944
1.14842
1.14738
1.14124
1.13448
1.13441
1.13404
1.13238
1.13255
1.1305
1.12986
1.12782
1.12537
1.12561
1.1273
1.12846
1.12786
1.12716
1.12837
1.1316
1.13268
1.13016
1.12926
1.12894
1.12804
1.12603
1.12665
1.12697
1.1269
1.12658
1.12594
1.12625
1.12649
1.12878
1.12985
1.13176
1.13397
1.13558
1.13754
1.13955
1.14034
1.14132
1.14097
1.14049
1.14132
1.14171
1.14447
1.14799
1.14613
1.14703
1.14802
1.15103
1.15647
1.15401
1.15854
1.16084
1.16807
1.16592
1.16747
1.17433
1.17755
1.17816
1.17401
1.17572
1.17491
1.17549
1.1738
1.17487
1.17459
1.17333
1.17369
1.1746
1.17319
1.16856
1.16718
1.16512
1.16267
1.16303
1.16006
1.16463
1.16597
1.15613
1.15981
1.15699
1.158
1.16314
1.1662
1.15948
1.15665
1.16884
1.16257