/*--------------------------------*- C++ -*----------------------------------*\
| =========                 |                                                 |
| \\      /  F ield         | OpenFOAM: The Open Source CFD Toolbox           |
|  \\    /   O peration     | Version:  dev                                   |
|   \\  /    A nd           | Web:      http://www.openfoam.org               |
|    \\/     M anipulation  |                                                 |
\*---------------------------------------------------------------------------*/
FoamFile
{
    version     2.0;
    format      ascii;
    class       volScalarField;
    object      T;
    location    "9.165";
}
// * * * * * * * * * * * * * * * * * * * * * * * * * * * * * * * * * * * * * //

dimensions      [0 0 0 1 0 0 0];

internalField   nonuniform List<scalar> 
12225
(
303.208
303.053
302.835
302.667
302.565
302.406
302.493
302.228
302.484
302.027
302.44
301.715
302.343
301.126
302.08
300.64
300.038
300.568
303.336
302.843
302.339
301.735
301.539
300.818
301.047
300.118
300.856
299.569
300.796
298.958
300.746
298.237
300.151
297.901
297.675
298.386
303.485
302.769
302.477
301.577
301.605
300.482
300.789
299.484
300.163
298.701
299.675
298.105
299.214
297.843
298.644
297.519
297.454
298.363
303.55
302.599
302.56
301.666
301.677
300.826
300.75
300.008
299.9
299.287
299.222
298.691
298.698
298.197
298.216
297.501
297.352
297.328
303.508
302.737
302.376
301.943
301.476
301.239
300.682
300.516
299.966
299.812
299.337
299.116
298.756
298.439
298.3
297.838
297.682
296.286
303.21
303.065
302.271
302.379
301.395
301.641
300.601
300.747
299.875
300.058
299.31
299.329
298.775
298.66
298.393
298.177
298.115
297.16
302.981
303.345
302.087
302.634
301.311
301.973
300.65
301.011
299.943
300.302
299.375
299.54
298.894
298.928
298.478
298.338
298.209
297.885
302.775
303.47
302.02
302.828
301.367
302.137
300.746
301.209
300.069
300.475
299.457
299.695
298.983
299.095
298.482
298.51
298.128
297.942
302.594
303.53
301.937
302.868
301.307
302.117
300.719
301.25
300.152
300.535
299.61
299.803
299.155
299.235
298.733
298.72
298.386
298.155
302.562
303.663
301.902
302.896
301.278
302.145
300.836
301.387
300.385
300.712
299.9
300.042
299.451
299.488
299.096
299.037
298.751
298.532
302.586
303.632
301.962
302.929
301.483
302.233
301.079
301.526
300.709
300.929
300.312
300.36
299.917
299.884
299.575
299.448
299.234
299.052
302.58
303.55
302.142
302.905
301.724
302.377
301.418
301.785
301.219
301.319
300.907
300.862
300.569
300.486
300.277
300.123
299.938
299.782
302.639
303.407
302.471
302.912
302.209
302.631
302.004
302.207
301.904
301.881
301.674
301.565
301.43
301.3
301.209
301.055
300.908
300.794
302.71
303.308
302.798
302.955
302.704
302.883
302.629
302.73
302.633
302.623
302.52
302.446
302.414
302.323
302.3
302.141
302.058
301.943
302.624
303.215
303.031
303.128
303.145
303.237
303.241
303.29
303.298
303.352
303.333
303.386
303.391
303.364
303.414
303.332
303.293
303.185
302.359
303.124
303.155
303.279
303.394
303.539
303.689
303.775
303.888
303.997
304.055
304.165
304.245
304.319
304.361
304.365
304.391
304.338
302.067
303.022
303.106
303.253
303.452
303.663
303.873
304.051
304.204
304.327
304.482
304.611
304.711
304.816
304.885
304.966
304.999
305.016
301.655
302.821
302.866
303.021
303.23
303.405
303.57
303.768
303.91
304.06
304.221
304.324
304.472
304.573
304.649
304.732
304.71
304.785
301.266
302.492
302.51
302.582
302.662
302.821
302.856
302.991
303.071
303.115
303.273
303.285
303.431
303.486
303.505
303.622
303.511
303.615
300.838
302.142
302.105
302.01
302.007
302.115
301.983
302.121
302.028
301.998
302.139
301.972
302.169
302.078
302.093
302.163
301.932
302.104
300.568
301.867
301.68
301.463
301.414
301.385
301.12
301.244
300.962
300.898
300.878
300.611
300.78
300.55
300.615
300.579
300.394
300.482
300.297
301.605
301.336
301.052
300.842
300.702
300.405
300.313
300.002
299.891
299.699
299.547
299.485
299.308
299.275
299.102
299.025
298.895
300.125
301.331
300.928
300.66
300.364
300.074
299.801
299.539
299.236
299.048
298.71
298.62
298.345
298.237
298.103
297.891
297.866
297.582
299.968
301.179
300.756
300.337
299.971
299.699
299.339
299.027
298.665
298.341
298.037
297.797
297.554
297.387
297.181
297.024
296.844
296.689
299.847
301.108
300.585
300.088
299.692
299.299
298.941
298.61
298.242
297.913
297.584
297.263
297.012
296.744
296.529
296.335
296.119
295.997
299.826
301.078
300.525
300.027
299.542
299.086
298.685
298.282
297.932
297.585
297.263
296.951
296.66
296.387
296.13
295.899
295.681
295.5
299.795
301.029
300.474
299.941
299.451
298.985
298.536
298.106
297.682
297.292
296.918
296.587
296.275
295.997
295.731
295.496
295.278
295.086
299.656
300.936
300.346
299.815
299.327
298.846
298.36
297.874
297.393
296.947
296.54
296.19
295.876
295.609
295.362
295.157
294.965
294.813
299.628
300.884
300.295
299.753
299.235
298.713
298.202
297.725
297.298
296.925
296.605
296.342
296.115
295.928
295.757
295.633
295.503
295.431
298.938
300.24
299.982
299.738
299.462
299.181
298.922
298.693
298.491
298.307
298.145
298.003
297.871
297.752
297.645
297.553
297.468
297.375
290.212
285.096
286.4
287.662
288.386
288.842
289.19
289.392
289.542
289.674
289.63
289.546
289.539
289.359
289.153
289.1
288.912
288.714
288.691
288.486
288.284
288.126
287.81
287.693
287.462
287.434
287.993
288.288
287.551
287.303
289.087
290.813
290.986
290.437
289.841
289.345
289.278
289.879
290.915
291.701
290.783
288.488
285.736
285.872
289.512
292.923
294.453
295.087
296.564
298.516
299.638
299.963
300.054
300.135
300.23
300.336
300.449
300.57
300.695
300.826
300.963
301.103
301.245
301.385
301.52
301.649
301.77
301.883
301.989
302.085
302.169
302.239
302.296
302.351
302.415
302.479
302.526
302.537
302.489
302.408
302.302
302.292
302.223
301.979
301.937
301.81
301.74
301.667
301.634
301.654
301.673
301.736
301.807
301.909
301.957
301.979
301.957
301.843
301.609
301.343
301.048
300.68
300.389
300.152
299.735
299.241
298.667
298.036
297.32
296.674
295.891
295.12
294.368
293.761
293.326
292.947
293.148
293.419
293.603
293.977
294.656
296.557
298.995
299.915
299.53
298.603
298.252
299.13
300.348
302.222
304.322
306.146
307.577
309.109
310.496
311.685
312.297
313.564
313.935
313.215
313.827
318.152
322.15
314.374
314.164
315.638
315.173
313.879
313.737
314.411
314.234
313.494
313.083
312.905
312.266
311.706
311.312
309.509
308.727
308.178
307.379
308.054
309.789
311.953
310.551
303.731
300.02
303.205
305.475
297.572
293.136
302.208
313.198
296.667
264.542
279.745
285.934
278.938
283.438
291.923
291.46
284.193
284.374
287.26
289.47
290.708
291.487
292.047
292.348
292.726
292.964
292.975
292.958
292.739
292.404
292.477
291.585
291.294
291.328
290.62
290.085
289.99
289.386
287.786
288.143
286.559
285.015
286.673
285.019
284.86
287.167
285.858
284.908
284.53
281.843
278.347
278.634
281.817
280.238
276.276
278.039
285.285
282.751
277.141
284.876
295.105
298.178
298.476
298.644
298.821
298.908
298.988
299.074
299.183
299.294
299.413
299.552
299.695
299.86
300.025
300.204
300.382
300.548
300.715
300.868
301.013
301.155
301.29
301.426
301.554
301.672
301.772
301.833
301.874
301.977
302.176
302.364
302.478
302.441
302.398
302.086
302.284
302.312
301.543
301.603
301.068
300.845
300.484
299.913
299.733
299.306
299.119
299.05
299.225
299.486
299.714
300.15
300.603
300.23
299.495
298.592
296.954
295.542
294.635
293.297
291.878
290.778
289.154
286.767
284.712
283.361
282.109
281.705
281.744
283.454
285.148
286.937
288.748
288.916
290.003
293.349
298.923
302.658
300.941
297.482
293.175
286.402
282.371
281.699
285.494
292.779
296.182
298.727
302.765
306.063
308.232
309.554
313.233
312.032
311.346
313.677
324.868
332.801
310.892
313.633
321.327
320.175
312.451
311.303
316.822
313.537
309.977
308.384
305.322
302.048
298.956
296.406
292.809
287.887
283.936
280.245
285.67
302.345
305.809
292.251
276.5
273.449
273.952
272.85
253.798
247.307
268.625
278.951
250.519
231.035
253.334
244.81
250.445
246.231
248.746
293.967
287.045
286.021
288.81
291.222
292.366
293.047
293.771
294.258
294.737
294.944
295.72
295.026
295.342
296.518
294.683
295.182
294.625
294.594
294.158
293.685
293.683
291.948
292.442
290.268
287.67
288.258
285.483
284.278
286.886
285.645
283.586
283.871
286.091
286.42
280.466
276.472
278.068
280.574
278.92
273.065
276.695
288.88
294.956
296.593
297.516
297.895
298.293
298.598
298.857
299.105
299.301
299.503
299.663
299.856
300.012
300.174
300.353
300.528
300.755
300.948
301.164
301.381
301.542
301.729
301.877
302.008
302.139
302.256
302.398
302.57
302.747
302.809
302.708
302.668
302.967
303.351
303.718
303.953
304.527
304.405
305.024
305.286
305.197
305.569
305.288
305.258
305.126
304.243
304.006
303.108
302.49
301.766
301.201
301.193
300.466
300.196
301.6
302.589
302.549
302.023
300.77
299.77
299.134
297.667
295.428
293.605
291.524
290.269
288.212
287.582
284.817
282.347
281.279
284.688
291.959
299.226
304.473
304.827
302.759
304.209
312.932
321.53
321.804
316.876
310.337
300.252
289.654
284.178
287.315
293.611
295.581
299.869
305.446
309.36
309.837
309.674
314.023
313.156
314.418
313.235
323.725
330.25
310.049
319.504
330.562
328.725
315.809
315.266
334.136
326.898
320.682
324.535
317.687
312.257
306.046
296.794
296.742
290.686
280.464
272.063
284.476
311.848
317.758
289.888
278.921
296.994
289.271
268.677
241.581
239.642
261.71
265.452
238.878
246.001
261.435
251.313
268.83
260.614
254.733
295.893
291.241
291.143
292.908
293.953
294.277
294.885
295.674
295.914
296.546
296.959
296.132
297.252
296.191
297.528
296.433
294.972
297.41
294.235
296.526
295.248
294.292
298.015
294.921
295.057
293.759
287.762
287.459
284.124
278.174
283.957
289.035
281.657
280.417
285.545
283.287
279.885
279.849
277.649
278.078
285.487
292.32
295.67
297.031
298.193
298.751
299.142
299.274
299.437
299.437
299.507
299.569
299.688
299.835
299.992
300.192
300.385
300.578
300.807
301.012
301.283
301.536
301.741
301.976
302.142
302.309
302.473
302.591
302.613
302.621
302.709
302.94
303.158
302.904
302.311
302.145
302.384
302.426
302.331
303.114
303.159
304.099
304.2
304.775
305.381
305.829
306.221
306.575
306.395
306.674
305.882
305.775
305.357
304.021
304.815
304.811
302.226
301.275
302.26
303.321
302.991
301.125
299.861
300.364
301.285
299.785
298.717
296.803
296.14
294.092
293.898
294.13
292.775
287.846
286.717
292.944
301.206
307.138
311.786
312.309
309.181
310.939
316.393
320.922
321.605
316.747
307.977
295.962
287.973
290.735
294.1
295.905
301.375
305.365
308.946
308.976
308.114
311.021
311.209
311.348
309.446
315.585
322.489
309.727
317.108
326.289
328.516
311.04
310.212
339.53
332.644
320.083
334.686
326.604
321.928
324.992
303.327
299.198
302.234
288.564
276.085
279.902
294.576
303.607
277.806
278.226
315.884
310.876
273.737
240.8
240.365
257.192
255.825
229.981
245.689
263.048
263.201
267.145
262.995
258.783
297.216
294.892
295.148
295.307
295.294
295.747
296.738
297.103
297.202
296.521
296.173
296.334
295.861
295.957
295.095
294.783
293.19
294.039
293.18
292.616
293.282
289.786
296.748
299.679
295.136
294.089
287.973
285.442
288.012
284.083
278.339
278.911
284.6
287.293
282.766
277.995
277.338
279.071
283.254
289.287
294.365
297.326
298.915
299.359
299.489
299.216
298.885
298.558
298.485
298.576
298.806
299.183
299.57
300.005
300.411
300.795
301.14
301.452
301.749
302.072
302.408
302.744
303.041
303.327
303.571
303.875
304.15
304.431
304.67
304.893
305.102
305.332
305.636
305.564
305.217
304.703
304.905
304.541
304.424
304.507
303.773
304.08
304.485
304.793
305.181
305.67
306.162
306.882
306.743
307.477
307.129
306.938
307.958
306.896
306.075
307.661
307.528
305.383
303.703
304.978
306.171
304.438
302.122
302.065
303.248
302.743
302.092
300.684
299.977
299.375
300.326
302.057
304.024
301.21
296.516
296.37
297.412
299.454
306.069
310.207
306.752
309.15
315.971
322.041
321.335
315.006
306.266
295.491
287.951
290.95
293.527
297.459
304.698
304.038
304.804
309.576
312.396
310.092
309.385
303.453
309.133
310.744
315.572
311.293
316.997
322.51
333.924
315.692
311.925
331.337
329.111
314.079
333.939
327.862
317.419
335.892
315.648
301.997
305.281
296.572
298.125
279.905
287.711
303.985
275.683
272.607
308.238
311.994
275.052
242.768
243.143
255.758
246.213
215.812
252.819
267.871
266.359
267.855
259.814
257.681
297.963
296.713
296.365
295.951
296.441
297.628
297.883
296.984
296.082
295.519
295.457
295.649
295.618
294.931
293.58
292.923
292.077
292.228
294.13
291.269
290.609
290.178
289.324
296.683
299.751
294.654
292.456
286.437
279.207
278.424
281.465
284.849
283.767
279.497
278.134
280.191
283.349
287.067
291.867
296.2
298.454
299.174
299.124
298.571
297.861
297.562
297.639
298.171
298.79
299.614
300.239
300.8
301.161
301.456
301.598
301.722
301.736
301.805
301.828
301.925
302.009
302.104
302.216
302.407
302.654
302.967
303.324
303.69
304.033
304.5
304.881
305.165
305.408
305.368
305.821
305.707
306.488
305.947
306.699
306.798
306.664
306.285
306.136
306.036
306.25
306.39
306.388
307.055
307.369
307.505
307.653
307.149
307.119
308.141
307.869
307.998
308.951
309.889
307.728
305.754
306.765
307.329
305.062
304.973
305.568
306.823
306.14
305.695
303.622
302.523
303.384
303.927
306.002
307.301
305.639
304.539
302.883
300.806
308.752
317.887
314.211
312.23
316.397
323.943
326.815
319.925
308.217
295.865
287.231
291.254
293.205
296.51
306.155
306.878
305.424
310.184
313.315
309.198
306.221
302.265
309.301
303.957
308.379
310.689
314.2
318.192
330.59
331.763
322.525
321.088
319.04
309.638
327.608
326.408
313.006
333.914
319.558
311.815
304.655
294.325
328.814
292.59
287.186
315.108
283.896
271.688
305.737
305.869
269.52
243.228
244.855
255.4
242.016
203.587
254.253
268.526
270.175
276.608
258.263
256.17
298.388
297.432
296.834
296.907
297.855
298.26
297.169
296.219
296.318
296.373
296.851
296.575
294.855
293.051
291.292
289.259
289.523
291.513
294.06
293.136
290.766
292.572
292.232
291.452
295.191
293.691
283.955
280.902
283.022
281.853
280.39
279.003
278.364
280.794
284.094
287.169
290.547
294.333
297.353
298.757
299.008
298.399
297.698
297.384
297.591
298.379
299.346
300.298
300.839
301.097
300.936
300.693
300.238
299.914
299.599
299.464
299.423
299.474
299.643
299.855
300.127
300.407
300.783
301.214
301.74
302.359
303.008
303.721
304.288
304.896
305.239
305.389
305.561
305.503
305.41
304.445
304.803
304.369
305.147
305.079
306.133
306.73
307.278
307.082
307.337
307.345
307.813
307.078
307.687
308.613
308.736
308.823
308.637
308.67
307.848
308.28
307.975
308.431
309.643
309.261
308.8
310.701
308.354
308.35
306.622
308.466
307.833
310.158
308.301
306.409
305.186
302.44
301.581
305.763
307.414
308.362
307.504
301.782
306.264
316.283
318.164
316.509
315.17
320.3
327.182
324.309
311.565
297.787
288.079
290.48
294.032
293.073
301.773
308.419
309.309
311.889
313.042
312.645
308.484
309.344
316.117
309.745
305.831
310.567
312.484
319.536
317.259
335.804
331.982
322.787
319.687
312.023
320.281
323.611
316.448
328.635
312.485
324.116
306.508
287.103
346.298
312.655
293.612
323.125
290.098
274.829
312.001
303.352
264.023
244.004
244.989
252.449
238.475
207.488
260.863
271.346
272.554
283.219
259.217
257.684
298.665
297.764
297.424
297.629
297.982
297.858
297.435
297.438
297.084
296.749
295.87
292.994
290.28
287.928
285.792
284.281
286.192
289.446
289.972
290.042
287.461
287.572
295.116
300.171
294.824
287.265
285.585
283.541
278.666
277.465
278.466
280.651
284.909
288.72
291.132
293.249
295.602
297.848
298.672
298.441
297.861
297.249
297.359
298.037
299.165
299.971
300.483
300.363
299.84
299.075
298.353
297.904
297.732
297.869
298.318
298.935
299.689
300.393
301.171
301.775
302.298
302.722
303.156
303.629
304.113
304.698
305.151
305.694
305.922
306.56
306.933
307.653
307.768
308.82
308.85
308.392
307.504
306.15
305.47
304.67
304.469
304.988
305.535
305.979
306.229
305.311
306.491
306.567
306.026
306.824
308.426
308.686
307.945
309.58
309.573
309.662
310.583
309.378
308.464
308.795
307.866
311.492
309.969
310.915
308.346
310.541
309.007
311.999
310.82
309.865
309.237
307.003
303.769
306.197
306.655
307.845
311.234
305.384
305.298
311.426
316.551
316.937
312.868
315.126
323.76
326.147
313.938
299.1
290.466
288.737
294.041
293.122
296.971
301.904
308.531
312.783
309.234
310.802
317.654
312.651
313.959
316.872
310.39
307.423
312.465
322.241
309.696
318.779
330.783
322.719
325.029
317.37
313.702
321.751
322.924
324.299
305.575
334.71
314.291
283.866
326.557
316.046
301.309
332.308
295.75
279.784
316.296
300.057
258.866
243.895
244.726
244.578
225.631
227.893
265.657
267.351
273.085
288.76
260.385
259.604
298.89
298.064
297.954
297.867
298.051
298.211
297.278
296.506
295.87
294.974
292.857
289.406
288.003
287.904
288.343
289.457
290.347
291.038
291.368
292.425
295.938
300.064
299.949
295.252
290.097
285.448
279.925
276.693
278.884
282.007
284.972
288.915
291.423
293.505
295.728
297.224
298.462
298.713
298.085
297.516
297.162
297.631
298.489
299.471
300.193
300.076
299.553
298.658
297.963
297.49
297.501
297.87
298.59
299.36
300.218
300.944
301.673
302.286
302.829
303.244
303.538
303.69
303.628
303.582
303.315
303.26
302.925
302.993
302.552
302.796
302.768
303.633
303.8
305.468
306.067
307.924
308.751
309.273
308.656
308.393
307.579
307.608
307.281
307.578
308.166
305.963
305.102
304.742
305.009
305.056
306.239
308.65
308.885
308.228
308.651
307.509
309.219
311.091
309.546
309.595
307.776
310.381
311.7
313.085
310.922
310.481
309.31
312.116
312.777
311.086
311.366
311.75
310.037
310.284
309.687
308.411
313.508
309.517
305.376
306.401
311.436
318.124
315.69
315.531
322.656
329.497
319.156
302.491
293.625
288.252
292.444
293.607
295.956
297.662
302.272
308.503
309.053
307.183
315.435
315.427
316.644
320.968
321.44
307.019
312.966
316.98
305.551
307.796
325.14
317.698
322.588
319.683
307.873
318.116
323.032
321.311
304.628
337.247
330.689
288.292
302.996
305.521
298.595
331.73
297.373
284.316
319.561
296.603
255.475
242.753
242.204
231.986
219.276
250.847
269.984
270.124
275.541
291.268
266.544
266.369
299.095
298.371
298.359
298.165
297.782
297.052
296.067
296.33
296.248
294.457
290.833
287.718
289.548
293.621
295.085
293.541
292.521
293.08
294.751
295.348
294.662
292.595
289.434
285.448
280.699
277.7
279.566
284.415
287.657
289.876
293.257
295.15
295.915
297.065
297.634
297.806
297.951
297.427
297.121
297.119
297.59
298.738
299.513
299.971
299.622
298.816
297.931
297.292
297.097
297.253
297.697
298.16
298.578
298.785
298.896
298.943
298.94
299.036
299.197
299.477
299.772
300.17
300.341
300.638
300.498
300.722
300.566
300.788
300.766
300.886
301.027
301.161
301.07
301.476
301.813
302.868
304.17
305.259
306.499
306.707
306.587
307.546
308.127
308.805
311.691
309.84
308.531
305.772
303.343
302.596
304.268
304.504
307.007
308.265
310.374
309.281
307.094
309.599
309.621
309.312
308.387
308.189
310.799
311.437
312.787
312.109
310.176
310.583
312.901
311.381
312.323
313.74
316.137
316.437
315.303
310.648
312.102
312.305
309.312
305.94
305.586
315.028
316.503
313.652
316.01
326.456
322.691
306.705
296.288
289.073
291.556
293.01
296.356
296.994
299.379
302.064
306.097
305.018
308.605
310.612
311.093
322.872
322.566
309.977
315.753
307.008
292.28
306.489
320.654
312.309
317.057
320.26
305.468
312.269
317.35
318.98
303.497
328.146
341.555
291.02
309.686
302.837
295.94
328.452
294.18
288.391
321.621
293.333
252.697
240.353
236.745
224.462
232.064
263.884
271.04
268.181
275.982
287.563
277.726
275.759
299.286
298.65
298.65
298.463
297.642
297.037
296.931
297.006
295.648
292.992
289.274
287.203
291.512
297.813
299.305
294.353
289.645
288.172
288.3
287.51
285.973
283.623
280.699
278.274
279.365
284.387
289.637
292.077
292.725
294.704
296.436
296.94
297.814
298.38
298.147
298.069
297.639
297.101
297.516
297.953
298.838
299.653
299.762
299.378
298.391
297.606
297.045
296.954
297.063
297.337
297.493
297.597
297.517
297.482
297.38
297.427
297.531
297.658
297.681
297.732
297.731
298.131
298.451
299.218
299.504
300.01
300.495
300.83
301.466
301.75
302.096
302.284
302.48
302.356
302.655
302.403
303.519
303.936
304.763
306.275
305.34
305.27
305.756
304.882
308.789
309.932
310.698
309.815
307.995
303.254
304.779
305.116
304.512
304.994
306.724
309.564
307.551
307.696
309.618
309.03
309.145
307.449
310.581
309.415
310.565
313.068
312.459
311.075
312.057
311.766
312.651
311.858
317.293
317.912
317.795
315.222
311.81
313.165
315.531
311.184
304.822
310.617
316.51
315.405
313.697
323.504
326.153
312.123
300.251
290.199
291.011
291.962
296.477
296.829
300.005
298.78
303.472
299.95
301.635
304.415
302.561
317.023
315.637
308.193
320.22
311.454
286.811
301.958
317.484
308.713
309.879
315.602
305.633
308.454
312.402
316.634
302.088
314.688
332.774
289.75
318.615
303.385
296.101
327.705
290.824
293.133
321.683
289.406
250.466
238.129
231.243
230.937
246.391
271.347
271.965
267.803
272.974
282.854
291.171
283.322
299.444
298.768
298.569
298.861
298.429
297.527
297.004
297.431
297.372
295.745
291.735
288.281
290.703
296.185
299.239
294.785
286.958
281.922
280.256
280.139
280.651
280.988
282.233
284.943
289.319
292.901
294.766
295.32
296.249
297.497
297.382
297.395
297.571
297.113
296.911
297.106
296.998
297.476
298.14
298.606
299.315
299.405
299.163
298.409
297.515
297.07
296.727
296.787
296.76
296.808
296.693
296.799
296.844
297.118
297.503
297.98
298.444
298.818
298.873
298.922
298.617
298.409
297.993
297.863
297.842
297.674
298.001
298.139
298.293
298.623
298.987
299.01
299.531
299.416
299.945
300.731
301.178
303.122
303.459
305.78
307.02
307.306
308.001
305.538
305.241
306.109
307.044
306.323
306.778
304.327
302.228
305.629
304.226
305.784
305.519
307.767
308.118
306.924
307.732
308.186
309.908
307.431
308.699
309.16
307.832
310.881
312.56
313.584
311.097
311.467
312.803
308.91
314.854
315.966
316.811
318.228
312.479
309.936
315.022
313.943
307.028
307.836
314.646
317.052
312.045
316.883
326.561
317.821
305.5
292.839
291.392
291.165
295.26
295.844
301.348
296.866
306.017
298.91
302.642
302.951
298.399
311.235
312.582
302.349
308.079
312.631
292.986
296.245
308.312
305.724
305.969
306.711
303.228
305.759
307.529
313.782
300.769
314.884
318.497
290.005
318.698
298.226
294.95
325.272
287.999
296.837
320.832
283.407
247.169
236.417
228.963
241.226
254.674
271.915
269.355
266.24
266.722
278.029
296.779
283.926
299.525
298.596
298.119
298.624
298.621
297.622
296.818
296.665
296.408
294.867
291.135
287.227
286.983
288.496
290.561
289.836
284.462
279.256
277.615
279.719
284.135
288.134
290.958
293.521
295.373
296.161
296.891
297.221
297.725
297.762
297.416
297.723
297.719
297.345
297.508
297.567
297.431
298.013
298.404
299.055
299.601
299.289
298.729
297.783
297.128
296.607
296.439
296.533
296.377
296.53
296.657
297.065
297.579
298.182
298.808
299.232
299.376
299.543
299.337
299.162
299.023
299.047
299.262
298.932
298.924
298.629
298.487
298.611
298.802
298.479
299.436
299.599
300.282
300.31
298.919
298.907
298.71
300.01
301.514
302.33
304.278
305.509
307.89
309.321
308.286
307.018
306.915
306.329
303.665
304.94
300.875
304.639
302.878
304.575
305.75
305.577
306.631
307.613
306.595
305.938
309.077
309.327
308.081
309.295
308.157
308.521
309.75
314.79
310.672
310.064
311.614
308.145
312.805
314.435
314.179
317.786
315.447
309.493
310.818
313.18
308.898
305.889
310.135
317.165
314.324
312.137
321.496
321.931
311.802
296.618
291.936
290.55
294.285
293.976
301.358
294.165
308.808
302.552
305.99
309.476
299.126
307.673
317.227
307.586
293.803
297.674
292.026
292.492
297.57
301.194
308.403
301.75
301.076
305.097
302.612
311.412
295.692
321.757
307.849
293.426
321.84
293.717
296.222
323.048
288.58
297.969
318.863
276.775
242.704
234.624
229.886
245.672
263.369
269.727
271.032
267.786
262.407
279.268
296.413
273.947
299.511
298.196
297.371
297.496
297.627
295.599
294.452
295.72
296.828
296.04
293.644
290.183
287.699
285.979
284.937
283.989
281.638
280.558
282.825
288.336
293.319
295.801
296.375
297.133
297.414
297.745
298.169
297.787
297.643
297.27
297.021
297.336
297.073
297.068
297.658
297.709
298.082
298.965
299.151
299.569
299.481
298.735
298.066
297.181
296.75
296.404
296.58
296.671
296.787
297.329
297.748
298.389
299.169
299.659
299.992
300.331
300.308
300.307
300.33
300.223
300.199
299.761
300.003
299.84
299.668
299.262
299.205
298.798
299.356
298.911
299.011
300.218
301.31
302.695
302.565
300.774
300.017
299.205
301.119
302.784
303.097
303.524
303.752
304.551
306.453
306.355
305.18
306.638
302.543
304.483
301.022
303.081
302.591
303.128
306.103
305.117
305.084
307.142
306.605
304.911
306.617
308.621
307.602
306.823
307.971
307.429
306.193
313.919
312.61
308.747
309.544
307.454
311.489
315.075
311.964
312.301
314.974
312.193
307.584
310.382
310.741
306.434
306.128
313.503
314.791
310.53
313.6
319.976
318.376
302.246
293.523
289.969
293.632
291.499
301.966
293.189
302.793
305.223
305.289
310.278
301.476
305.327
319.252
313.712
293.951
290.875
287.397
291.502
291.624
297.617
310.945
300.308
300.072
303.495
298.71
310.029
291.273
319
301.806
304.35
322.292
291.371
302.345
318.8
290.806
294.705
316.633
271.367
238.761
232.818
231.33
247.581
266.93
268.86
270.792
268.41
260.098
280.871
290.372
258.856
299.449
297.875
297.215
297.037
297.131
296.907
297.399
297.494
297.711
297.642
296.692
293.957
290.541
288.772
287.908
287.244
287.008
288.785
291.947
295.729
298.128
298.03
297.492
297.547
297.7
297.963
298.228
297.662
297.803
297.748
297.898
298.132
297.81
297.911
298.212
298.09
298.486
299.078
299.066
299.394
299.06
298.418
297.863
297.076
296.863
296.841
297.099
297.238
297.699
298.035
298.484
299.204
299.642
300.161
300.66
300.966
300.974
300.81
300.967
300.766
301.098
300.819
301.094
301.177
300.811
299.578
298.828
298.336
297.979
297.999
297.28
297.101
298.883
300.003
301.867
301.057
300.404
299.845
299.214
301.64
303.679
304.707
305.845
304.821
305.271
305.209
303.847
305.87
302.724
303.683
302.283
302.138
302.62
301.783
304.873
304.347
303.312
306.327
306.719
304.951
304.534
306.443
307.726
306.474
306.589
307.098
305.019
309.633
313.138
307.441
306.554
306.993
309.149
314.841
312.074
306.688
309.795
314.103
308.634
306.385
308.057
306.859
304.624
309.012
313.51
311.471
308.301
314.1
320.453
309.107
297.509
289.809
292.194
288.791
297.876
296.648
296.702
299.944
300.521
307.35
301.451
299.006
312.53
314.292
294.921
287.359
285.406
295.094
289.851
295.723
311.943
300.866
299.34
298.741
295.278
308.001
290.07
313.915
301.444
310.965
319.821
289.607
310.002
313.474
291.083
287.399
314.338
267.696
236.025
231.196
229.796
251.607
265.901
267.033
270.512
272.58
263.996
282.723
278.124
248.894
299.383
297.758
297.569
297.644
297.797
297.134
295.185
294.996
297.144
297.982
298.891
297.563
294.859
294.092
293.255
293.18
294.45
296.078
298.156
299.344
299.272
298.558
298.229
298.569
298.798
298.891
298.443
297.612
297.751
297.543
297.677
297.841
297.786
298.232
298.489
298.29
298.694
299.048
298.756
299.169
298.755
298.057
297.87
297.283
297.153
297.327
297.398
297.385
298.072
298.498
298.909
299.475
299.796
300.414
300.672
300.609
300.854
300.68
301.251
301.26
301.206
300.507
299.48
299.364
299.496
299.073
298.206
297.639
298.947
298.957
299.101
298.337
298.941
300.61
301.257
301.091
300.452
300.589
300.556
300.406
301.274
302.596
303.733
303.491
304.721
305.495
303.926
305.251
303.596
303.24
303.729
302.186
302.464
301.266
304.383
304.492
301.791
304.626
306.464
303.784
303.374
304.197
305.938
306.191
304.43
304.19
304.873
306.702
311.157
307.833
303.878
307.192
308.604
311.531
313.628
304.446
302.683
312.896
310.339
305.024
304.763
307.568
308.18
305.956
308.028
311.329
306.121
307.296
315.662
313.801
304.299
292.929
290.099
288.162
291.106
295.98
295.719
294.369
292.181
303.434
302.409
294.632
301.768
308.752
292.372
280.616
281.22
296.057
287.062
290.553
309.883
301.703
297.803
292.301
291.64
306.751
290.88
311.502
304.117
306.547
317.623
286.007
314.963
309.239
288.602
279.193
311.133
266.157
235.264
230.164
224.426
255.303
264.679
264.672
266.296
274.129
269.119
280.492
259.903
237.527
299.31
297.633
297.458
297.468
296.619
295.293
296.073
296.94
296.392
297.192
298.16
297.551
298.162
297.945
296.704
296.741
297.495
298.814
299.985
300.235
299.304
298.14
297.797
298.456
298.849
299.017
298.503
298.17
298.596
298.666
298.851
298.881
298.749
298.836
299.185
299.113
299.457
299.765
299.476
299.494
299.001
298.656
298.167
297.478
297.435
297.352
297.371
297.952
298.469
298.584
299.058
299.631
299.791
300.276
300.753
300.622
300.786
300.366
299.655
299.913
300.426
300.43
300
299.365
300.129
298.646
297.996
296.619
297.523
298.887
298.449
299.28
298.782
300.286
301.936
301.695
301.079
300.314
301.134
303.139
303.04
302.839
304.28
303.714
303.281
304.502
303.736
305.14
305.372
303.203
304.449
303.687
303.648
302.08
303.668
304.19
300.635
303.248
306.762
302.575
303.355
303.8
304.138
306.027
304.759
301.479
304.473
306.944
306.338
307.205
303.491
306.58
309.264
306.108
312.391
306.254
300.353
310.065
308.935
307.075
303.988
305.504
311.178
305.296
299.988
306.963
304.306
300.626
306.643
312.207
307.762
299.503
291.858
286.537
287.603
291.848
292.651
291.342
285.502
297.72
302.273
295.144
297.509
300.914
289.49
278.71
281.788
298.945
287.371
287.099
304.828
299.374
295.927
287.089
287.909
304.803
292.563
309.052
303.659
299.127
314.434
282.043
312.569
305.064
282.37
270.083
306.785
266.071
236.213
229.55
218.044
256.075
263.087
260.691
257.796
272.07
273.857
275.361
241.759
222.735
299.16
297.352
297.03
296.971
297.492
296.978
295.836
295.361
295.547
295.738
297.245
298.889
298.756
298.746
299.073
298.913
299.324
299.364
299.798
300.293
300.052
299.477
299.098
299.184
299.242
298.784
297.874
297.624
298.262
298.42
298.482
298.736
299.223
299.038
299.01
299.087
299.247
299.498
299.505
299.534
299.058
298.952
298.62
298.255
298.084
297.836
297.626
297.758
297.863
298.332
298.837
299.025
299.332
299.054
298.616
299.562
299.815
300.078
299.848
298.921
300.057
299.348
299.251
297.911
298.922
298.997
297.649
297.293
297.493
298.953
298.914
299.512
299.71
300.385
300.218
300.399
300.942
301
300.889
301.211
302.396
302.861
303.202
303.879
303.702
304.401
303.238
302.45
305.006
304.015
304.544
304.439