/*--------------------------------*- C++ -*----------------------------------*\
| =========                 |                                                 |
| \\      /  F ield         | OpenFOAM: The Open Source CFD Toolbox           |
|  \\    /   O peration     | Version:  dev                                   |
|   \\  /    A nd           | Web:      http://www.openfoam.org               |
|    \\/     M anipulation  |                                                 |
\*---------------------------------------------------------------------------*/
FoamFile
{
    version     2.0;
    format      ascii;
    class       volVectorField;
    object      U;
    location    "9.165";
}
// * * * * * * * * * * * * * * * * * * * * * * * * * * * * * * * * * * * * * //

dimensions      [0 1 -1 0 0 0 0];

internalField   nonuniform List<vector> 
12225
(
(7.37067 0.147036 0)
(5.17408 -0.196505 0)
(3.93711 -0.363828 0)
(4.50852 -0.383013 0)
(4.02898 -0.386423 0)
(5.62604 -0.426595 0)
(4.85855 -0.359504 0)
(6.96372 -0.455167 0)
(5.94057 -0.368941 0)
(8.50414 -0.509119 0)
(7.41863 -0.376443 0)
(10.6058 -0.557259 0)
(9.41132 -0.408285 0)
(13.3685 -0.734336 0)
(13.7015 -0.350463 0)
(15.8507 -1.07318 0)
(26.3019 -3.83404 0)
(30.297 1.43571 0)
(10.0539 -0.0374738 0)
(10.1098 -0.293427 0)
(7.86439 -0.70439 0)
(9.27892 -0.937489 0)
(6.57637 -1.04532 0)
(9.77184 -1.14132 0)
(6.16736 -1.08155 0)
(10.8977 -1.24833 0)
(6.39379 -1.12777 0)
(12.5342 -1.34861 0)
(7.32018 -1.25861 0)
(15.0209 -1.56473 0)
(9.10947 -1.37518 0)
(18.3322 -2.49957 0)
(13.2593 -1.02422 0)
(22.808 -5.6299 0)
(22.0603 -4.93319 0)
(32.1258 -10.5937 0)
(9.32133 -1.07944 0)
(12.5762 -0.981045 0)
(9.55926 -1.34853 0)
(13.5175 -1.58066 0)
(8.7821 -1.73633 0)
(14.2308 -1.77134 0)
(8.10336 -1.87291 0)
(15.284 -1.95604 0)
(8.07604 -1.99641 0)
(16.6569 -2.23371 0)
(9.47956 -2.15946 0)
(18.2333 -2.78574 0)
(12.1044 -2.36342 0)
(19.4851 -3.83918 0)
(15.624 -2.23877 0)
(21.3288 -6.36577 0)
(18.9921 -7.05132 0)
(28.9015 -11.111 0)
(7.23456 -2.17812 0)
(14.5199 -2.06242 0)
(9.40293 -2.32728 0)
(16.1794 -2.41876 0)
(10.1144 -2.51606 0)
(17.0609 -2.6028 0)
(10.9536 -2.55911 0)
(17.7226 -2.94695 0)
(12.1 -2.65743 0)
(18.2453 -3.49304 0)
(13.5957 -2.72675 0)
(18.5463 -4.29707 0)
(15.1784 -2.83446 0)
(19.4071 -5.60051 0)
(17.5569 -2.97716 0)
(21.0852 -8.98709 0)
(19.9178 -8.63044 0)
(24.2932 -17.0459 0)
(7.00035 -3.08111 0)
(14.2058 -3.44293 0)
(10.0351 -3.21071 0)
(15.2895 -3.69127 0)
(11.7579 -3.31252 0)
(15.7983 -3.9545 0)
(13.4438 -3.29665 0)
(16.4568 -4.27167 0)
(14.7841 -3.3886 0)
(16.973 -4.75758 0)
(16.1687 -3.44925 0)
(17.4797 -5.48172 0)
(17.2938 -3.53712 0)
(18.587 -6.95955 0)
(19.0973 -3.78604 0)
(20.9832 -9.64391 0)
(21.1642 -7.657 0)
(17.3812 -21.421 0)
(8.84166 -4.06721 0)
(11.6914 -5.11761 0)
(11.1153 -4.22946 0)
(12.9882 -5.06288 0)
(12.7084 -4.13696 0)
(13.6207 -5.36215 0)
(14.1375 -4.1918 0)
(14.5657 -5.6414 0)
(15.1563 -4.1471 0)
(15.528 -6.23657 0)
(16.7001 -4.19763 0)
(16.7867 -6.91372 0)
(18.0388 -4.43422 0)
(18.3521 -8.48734 0)
(19.7332 -5.45364 0)
(20.4221 -10.9176 0)
(21.0044 -7.91506 0)
(16.2055 -17.264 0)
(9.96879 -4.88408 0)
(11.101 -6.55666 0)
(11.5428 -5.19655 0)
(12.426 -6.57554 0)
(12.779 -4.99908 0)
(13.5062 -6.8451 0)
(13.9916 -5.00807 0)
(14.4899 -7.03011 0)
(15.027 -5.04673 0)
(15.5179 -7.72432 0)
(16.5133 -5.30431 0)
(16.9962 -8.24192 0)
(17.9865 -5.72948 0)
(18.5736 -9.60568 0)
(19.1685 -6.89109 0)
(19.6826 -11.7179 0)
(19.307 -9.32786 0)
(17.2117 -16.3337 0)
(10.3107 -6.04682 0)
(10.9317 -7.82696 0)
(11.6982 -6.15998 0)
(12.2272 -7.7933 0)
(12.9086 -6.0006 0)
(13.4941 -8.07504 0)
(14.0424 -6.03725 0)
(14.5768 -8.2208 0)
(15.1511 -6.15471 0)
(15.6731 -8.81354 0)
(16.2724 -6.64339 0)
(16.9558 -9.30178 0)
(17.4888 -7.30143 0)
(18.2661 -10.4669 0)
(18.0408 -8.54188 0)
(18.9266 -11.9299 0)
(17.9508 -10.4555 0)
(17.534 -14.7576 0)
(10.0959 -6.93288 0)
(10.6626 -9.05059 0)
(11.7529 -7.07864 0)
(12.2065 -9.03094 0)
(12.9188 -6.90966 0)
(13.4187 -9.21113 0)
(13.85 -6.90783 0)
(14.5919 -9.25452 0)
(15.0734 -7.19773 0)
(15.7983 -9.71929 0)
(16.0878 -7.74587 0)
(16.9748 -10.2176 0)
(17.1261 -8.52975 0)
(18.0135 -11.1102 0)
(17.5531 -9.72836 0)
(18.4894 -12.3525 0)
(17.5293 -11.4814 0)
(17.395 -13.9602 0)
(10.2145 -8.00237 0)
(10.837 -10.2804 0)
(11.6346 -8.17112 0)
(12.0581 -10.0786 0)
(12.6677 -8.01286 0)
(13.2832 -10.216 0)
(13.8226 -8.16654 0)
(14.5235 -10.2866 0)
(15.1121 -8.53527 0)
(15.6217 -10.6558 0)
(16.0221 -9.05623 0)
(16.6094 -11.0703 0)
(16.787 -9.86619 0)
(17.4879 -11.791 0)
(17.2764 -10.9882 0)
(17.9233 -12.7535 0)
(17.3167 -12.561 0)
(17.127 -13.7427 0)
(10.311 -9.30881 0)
(10.8306 -11.5779 0)
(11.6364 -9.42317 0)
(12.0919 -11.3671 0)
(12.7633 -9.45965 0)
(13.3686 -11.4499 0)
(13.9092 -9.63846 0)
(14.5317 -11.4555 0)
(15.0121 -9.95073 0)
(15.4989 -11.7065 0)
(15.8239 -10.4265 0)
(16.3425 -12.0781 0)
(16.4394 -11.2095 0)
(17.0109 -12.6351 0)
(16.9355 -12.2464 0)
(17.3114 -13.4082 0)
(17.0409 -13.5733 0)
(16.8238 -14.1703 0)
(10.4134 -10.8146 0)
(10.7785 -12.864 0)
(11.5696 -11.0017 0)
(12.0228 -12.5294 0)
(12.6454 -11.0491 0)
(13.1926 -12.5744 0)
(13.6865 -11.2281 0)
(14.3167 -12.538 0)
(14.7724 -11.5264 0)
(15.2842 -12.7294 0)
(15.6181 -11.9807 0)
(16.0504 -13.0677 0)
(16.2015 -12.6801 0)
(16.5871 -13.5495 0)
(16.609 -13.5566 0)
(16.7913 -14.219 0)
(16.6798 -14.4982 0)
(16.4699 -14.841 0)
(10.0828 -12.1388 0)
(10.7767 -14.1253 0)
(11.4891 -12.6816 0)
(12.1385 -13.7542 0)
(12.6559 -12.7124 0)
(13.2316 -13.7457 0)
(13.6788 -12.9115 0)
(14.2337 -13.7282 0)
(14.6593 -13.181 0)
(15.1296 -13.8498 0)
(15.4479 -13.5196 0)
(15.8117 -14.135 0)
(15.9928 -14.0695 0)
(16.2283 -14.5847 0)
(16.2762 -14.7487 0)
(16.354 -15.1543 0)
(16.3262 -15.44 0)
(16.1525 -15.6821 0)
(10.1539 -13.6857 0)
(10.8358 -15.4292 0)
(11.4744 -14.4545 0)
(12.1381 -14.9516 0)
(12.7014 -14.3688 0)
(13.2869 -14.8759 0)
(13.7332 -14.5254 0)
(14.2007 -14.9145 0)
(14.5412 -14.7075 0)
(14.9047 -15.0239 0)
(15.1846 -14.9536 0)
(15.4813 -15.2537 0)
(15.7182 -15.3302 0)
(15.9187 -15.6364 0)
(16.0379 -15.8252 0)
(16.122 -16.083 0)
(16.1191 -16.3148 0)
(15.9486 -16.4674 0)
(10.2831 -15.2501 0)
(10.9894 -16.6643 0)
(11.5914 -16.1358 0)
(12.1711 -16.2448 0)
(12.6763 -16.0024 0)
(13.2045 -16.0926 0)
(13.6673 -15.9455 0)
(14.1263 -15.9826 0)
(14.497 -15.9475 0)
(14.8573 -16.0389 0)
(15.1457 -16.1194 0)
(15.4098 -16.2988 0)
(15.6074 -16.452 0)
(15.7677 -16.6522 0)
(15.8446 -16.8321 0)
(15.8862 -16.9702 0)
(15.8557 -17.081 0)
(15.6999 -17.1466 0)
(10.6616 -16.3662 0)
(11.1199 -17.4934 0)
(11.5507 -17.0859 0)
(12.0147 -17.0362 0)
(12.4493 -16.9462 0)
(12.9311 -16.9568 0)
(13.4055 -16.9398 0)
(13.8979 -16.9364 0)
(14.3232 -16.9343 0)
(14.7173 -16.9589 0)
(15.0209 -16.9849 0)
(15.2672 -17.0522 0)
(15.4212 -17.1288 0)
(15.5422 -17.2257 0)
(15.5683 -17.3118 0)
(15.5973 -17.4149 0)
(15.5646 -17.5171 0)
(15.4382 -17.5436 0)
(10.1518 -16.6863 0)
(10.7281 -17.8523 0)
(11.2773 -17.5882 0)
(11.8877 -17.5487 0)
(12.4552 -17.5081 0)
(13.0179 -17.4919 0)
(13.4866 -17.4717 0)
(13.937 -17.4373 0)
(14.3104 -17.3858 0)
(14.6567 -17.3338 0)
(14.9342 -17.2864 0)
(15.1752 -17.2672 0)
(15.3392 -17.2799 0)
(15.4755 -17.3024 0)
(15.5267 -17.3498 0)
(15.5772 -17.4083 0)
(15.5468 -17.4498 0)
(15.4297 -17.4705 0)
(10.1964 -16.4913 0)
(10.7346 -17.5097 0)
(11.3158 -17.28 0)
(11.9587 -17.2712 0)
(12.5411 -17.2283 0)
(13.0966 -17.1369 0)
(13.5416 -17.0652 0)
(13.9618 -17.0088 0)
(14.3113 -16.9501 0)
(14.6443 -16.9182 0)
(14.9147 -16.8595 0)
(15.1527 -16.8162 0)
(15.3032 -16.791 0)
(15.4256 -16.7545 0)
(15.4598 -16.7403 0)
(15.496 -16.7236 0)
(15.4603 -16.7325 0)
(15.3543 -16.7042 0)
(10.1656 -15.4508 0)
(10.8866 -16.5898 0)
(11.6835 -16.4061 0)
(12.4024 -16.3665 0)
(12.9632 -16.3074 0)
(13.469 -16.2139 0)
(13.8895 -16.144 0)
(14.2848 -16.0948 0)
(14.6141 -16.0345 0)
(14.9181 -15.9784 0)
(15.16 -15.8707 0)
(15.3698 -15.7618 0)
(15.5033 -15.6489 0)
(15.6171 -15.5432 0)
(15.6409 -15.4969 0)
(15.6748 -15.4478 0)
(15.6447 -15.4411 0)
(15.5508 -15.4066 0)
(10.5605 -14.259 0)
(11.172 -15.3581 0)
(11.8224 -15.1311 0)
(12.4763 -14.9726 0)
(13.0797 -14.8071 0)
(13.627 -14.6577 0)
(14.0863 -14.5753 0)
(14.4763 -14.5163 0)
(14.7663 -14.4785 0)
(15.0185 -14.4373 0)
(15.2073 -14.3516 0)
(15.3876 -14.2702 0)
(15.5092 -14.1633 0)
(15.6357 -14.0619 0)
(15.6908 -13.9813 0)
(15.7494 -13.9146 0)
(15.7455 -13.9042 0)
(15.69 -13.8578 0)
(10.477 -12.7227 0)
(11.1616 -13.5351 0)
(11.8636 -13.374 0)
(12.5787 -13.3774 0)
(13.2027 -13.3263 0)
(13.7897 -13.2003 0)
(14.2781 -13.0968 0)
(14.6828 -12.9934 0)
(15.0232 -12.9229 0)
(15.2891 -12.8609 0)
(15.4971 -12.7773 0)
(15.6898 -12.6949 0)
(15.7997 -12.5926 0)
(15.9216 -12.4998 0)
(15.9566 -12.417 0)
(16.0093 -12.3461 0)
(15.9852 -12.3012 0)
(15.9244 -12.2499 0)
(10.6419 -11.0013 0)
(11.3707 -11.8814 0)
(12.1322 -11.7987 0)
(12.8212 -11.7299 0)
(13.3661 -11.6104 0)
(13.8841 -11.4693 0)
(14.3365 -11.331 0)
(14.7535 -11.2476 0)
(15.1222 -11.1935 0)
(15.4191 -11.1324 0)
(15.643 -11.0848 0)
(15.8201 -10.9887 0)
(15.9186 -10.9113 0)
(15.9967 -10.8048 0)
(16.0152 -10.7156 0)
(16.0362 -10.652 0)
(16.0006 -10.5874 0)
(15.9548 -10.5467 0)
(10.62 -9.30521 0)
(11.4222 -10.0565 0)
(12.2488 -9.98224 0)
(12.9372 -9.94466 0)
(13.5434 -9.89084 0)
(14.0725 -9.81895 0)
(14.5301 -9.75806 0)
(14.9524 -9.71316 0)
(15.2795 -9.66221 0)
(15.5663 -9.59037 0)
(15.7764 -9.50209 0)
(15.9418 -9.38385 0)
(16.0666 -9.27913 0)
(16.1389 -9.17664 0)
(16.1883 -9.09828 0)
(16.214 -9.03675 0)
(16.2007 -8.9961 0)
(16.1703 -8.95911 0)
(10.5592 -7.86193 0)
(11.3864 -8.54055 0)
(12.2976 -8.46095 0)
(13.1045 -8.38582 0)
(13.8134 -8.29228 0)
(14.4043 -8.17656 0)
(14.9088 -8.07903 0)
(15.3053 -8.01493 0)
(15.5961 -7.97354 0)
(15.8097 -7.92538 0)
(15.9534 -7.87903 0)
(16.0767 -7.80071 0)
(16.1784 -7.72184 0)
(16.2626 -7.63951 0)
(16.3339 -7.5657 0)
(16.3904 -7.51119 0)
(16.411 -7.47271 0)
(16.4045 -7.4287 0)
(10.611 -6.37997 0)
(11.5218 -6.97937 0)
(12.3864 -6.96458 0)
(13.1431 -6.9352 0)
(13.8015 -6.88163 0)
(14.388 -6.79627 0)
(14.9133 -6.70503 0)
(15.3588 -6.6143 0)
(15.7182 -6.5346 0)
(15.9808 -6.45778 0)
(16.1593 -6.3994 0)
(16.2827 -6.33275 0)
(16.3667 -6.27959 0)
(16.421 -6.23391 0)
(16.4631 -6.19162 0)
(16.4903 -6.15577 0)
(16.4919 -6.11967 0)
(16.4662 -6.07734 0)
(10.4634 -5.17162 0)
(11.6317 -5.60737 0)
(12.7538 -5.52102 0)
(13.5937 -5.47392 0)
(14.2012 -5.43864 0)
(14.701 -5.36851 0)
(15.1506 -5.28472 0)
(15.5572 -5.21683 0)
(15.9077 -5.14938 0)
(16.1972 -5.07173 0)
(16.4036 -5.01322 0)
(16.5446 -4.95215 0)
(16.6181 -4.90023 0)
(16.6387 -4.86463 0)
(16.6257 -4.83316 0)
(16.5895 -4.80991 0)
(16.5271 -4.78749 0)
(16.4485 -4.75281 0)
(10.3593 -3.99636 0)
(11.5942 -4.54234 0)
(12.8178 -4.42023 0)
(13.7451 -4.28251 0)
(14.3698 -4.17351 0)
(14.8143 -4.09099 0)
(15.1643 -4.04686 0)
(15.4386 -4.01267 0)
(15.6535 -3.96722 0)
(15.8123 -3.89307 0)
(15.9053 -3.81609 0)
(15.9618 -3.73689 0)
(15.9798 -3.66843 0)
(15.9673 -3.62621 0)
(15.9238 -3.59973 0)
(15.8537 -3.57371 0)
(15.7594 -3.55605 0)
(15.6375 -3.53062 0)
(10.7189 -2.89304 0)
(11.8864 -3.43642 0)
(12.8518 -3.27755 0)
(13.4603 -3.09962 0)
(13.802 -2.95304 0)
(14.0109 -2.845 0)
(14.1187 -2.77178 0)
(14.1406 -2.71209 0)
(14.0924 -2.66325 0)
(14.0309 -2.61145 0)
(13.946 -2.5622 0)
(13.865 -2.51944 0)
(13.7818 -2.47716 0)
(13.6801 -2.45052 0)
(13.5575 -2.43053 0)
(13.422 -2.40521 0)
(13.2822 -2.38734 0)
(13.1212 -2.35892 0)
(10.7707 -2.14408 0)
(11.3956 -2.47797 0)
(11.452 -2.2323 0)
(11.2335 -1.98786 0)
(10.9848 -1.77706 0)
(10.8183 -1.63123 0)
(10.7004 -1.53713 0)
(10.6063 -1.48571 0)
(10.5154 -1.45684 0)
(10.4531 -1.42749 0)
(10.3775 -1.40415 0)
(10.3056 -1.38582 0)
(10.2242 -1.3634 0)
(10.126 -1.34638 0)
(10.0195 -1.33776 0)
(9.9119 -1.33053 0)
(9.79801 -1.32748 0)
(9.67663 -1.33058 0)
(9.10795 -0.932268 0)
(7.38885 -0.851609 0)
(6.34159 -0.581949 0)
(5.88678 -0.456042 0)
(5.87326 -0.41417 0)
(6.09064 -0.412457 0)
(6.36302 -0.41807 0)
(6.62082 -0.428121 0)
(6.8328 -0.431746 0)
(7.00289 -0.428665 0)
(7.12274 -0.427687 0)
(7.20631 -0.424512 0)
(7.25335 -0.42405 0)
(7.26871 -0.420457 0)
(7.25915 -0.419399 0)
(7.2211 -0.418587 0)
(7.15641 -0.425571 0)
(7.07767 -0.427751 0)
(-0.159724 1.0597 0)
(-0.626484 1.0439 0)
(-1.07314 0.920429 0)
(-1.40373 0.721806 0)
(-1.50054 0.483444 0)
(-1.35506 0.245325 0)
(-0.97833 0.046574 1.13812e-17)
(-0.460463 -0.096333 -1.13055e-17)
(0.157262 -0.1766 0)
(0.83927 -0.210242 -1.11515e-17)
(1.52883 -0.186659 0)
(2.19501 -0.105047 0)
(2.81227 -0.0382622 0)
(3.37818 0.0244362 1.08175e-17)
(3.84967 0.116529 0)
(4.21383 0.216904 0)
(4.53078 0.296118 -1.05652e-17)
(4.71053 0.368278 0)
(4.79923 0.490437 0)
(4.83557 0.56828 0)
(4.70321 0.644213 1.02373e-17)
(4.50006 0.752659 0)
(4.21211 0.789553 1.0073e-17)
(3.77561 0.897935 0)
(3.31185 0.995147 0)
(2.68766 1.06852 9.8458e-18)
(1.9784 1.14261 0)
(1.23948 1.07855 -9.73772e-18)
(0.442474 0.957456 0)
(-0.332136 0.806524 9.57255e-18)
(-1.09191 0.691777 0)
(-1.68646 0.558043 0)
(-2.16652 0.399407 0)
(-2.60633 0.372766 0)
(-2.95518 0.406051 0)
(-3.18675 0.35119 -9.24844e-18)
(-3.36108 0.240654 0)
(-3.57835 0.201486 1.82675e-17)
(-3.77414 0.324592 0)
(-3.95813 0.468546 -1.81225e-17)
(-4.30077 0.434613 0)
(-4.65403 0.308176 0)
(-4.63034 0.0900447 1.73828e-17)
(-4.13994 0.0772483 0)
(-3.54414 -0.203015 1.73573e-17)
(-3.31183 -1.00044 -1.74358e-17)
(-3.30958 -1.68117 0)
(-3.30534 -1.66817 -1.7313e-17)
(-3.5721 -0.832798 -1.72719e-17)
(-4.49316 0.22454 0)
(-5.85074 0.8404 0)
(-7.26001 1.00495 0)
(-8.55143 0.965812 0)
(-9.70925 0.866729 0)
(-10.7093 0.753068 1.6734e-17)
(-11.5566 0.634136 0)
(-12.2545 0.524243 -1.65089e-17)
(-12.8133 0.422357 0)
(-13.2411 0.323496 0)
(-13.5482 0.237074 1.61838e-17)
(-13.7278 0.165328 0)
(-13.7992 0.0783726 -1.59747e-17)
(-13.769 0.00498951 0)
(-13.6399 -0.0643704 0)
(-13.4163 -0.129451 0)
(-13.1026 -0.19204 1.55697e-17)
(-12.7043 -0.262349 0)
(-12.2199 -0.321351 0)
(-11.6546 -0.378491 1.52735e-17)
(-11.0207 -0.438492 0)
(-10.3299 -0.485787 1.50783e-17)
(-9.57752 -0.535132 0)
(-8.74702 -0.604938 0)
(-7.85111 -0.657085 0)
(-6.96348 -0.670055 -1.46923e-17)
(-6.10335 -0.68193 0)
(-5.21593 -0.705591 0)
(-4.32201 -0.74159 -1.44075e-17)
(-3.43866 -0.755323 -1.43099e-17)
(-2.51919 -0.80766 0)
(-1.63289 -0.799213 -1.41125e-17)
(-0.837128 -0.809502 0)
(0.0249534 -0.865982 -2.78456e-17)
(0.825873 -0.843419 0)
(1.58419 -0.867092 -2.74518e-17)
(2.33894 -0.8715 0)
(3.06547 -0.899246 2.70715e-17)
(3.73394 -0.924555 0)
(4.32931 -0.909355 0)
(4.89527 -0.930012 0)
(5.40759 -0.931393 -2.63534e-17)
(5.86392 -0.938906 0)
(6.27804 -0.958422 2.60157e-17)
(6.6523 -0.951391 0)
(6.96451 -0.979372 -2.56831e-17)
(7.25118 -0.992944 -2.55137e-17)
(7.49894 -0.999758 -2.53415e-17)
(7.71775 -1.01642 0)
(7.90355 -1.05785 0)
(8.04197 -1.09328 0)
(8.16521 -1.12221 0)
(8.23906 -1.15108 0)
(8.27086 -1.17742 0)
(8.27831 -1.2028 0)
(8.26126 -1.23034 0)
(8.19475 -1.24286 2.36517e-17)
(8.10936 -1.26573 2.34516e-17)
(8.00202 -1.2711 0)
(7.84773 -1.26209 0)
(7.56912 -1.23588 0)
(7.19791 -1.22602 2.26353e-17)
(6.74736 -1.21945 0)
(6.25669 -1.21894 0)
(5.7777 -1.23134 0)
(5.27301 -1.25613 0)
(4.82287 -1.30393 -2.16962e-17)
(4.48777 -1.36452 0)
(4.29073 -1.40962 0)
(4.04078 -1.3822 2.13151e-17)
(3.73371 -1.38949 -2.11997e-17)
(3.52789 -1.4555 0)
(3.59634 -1.4825 -2.10934e-17)
(3.94864 -1.42076 0)
(4.19811 -1.31696 2.10294e-17)
(4.04092 -1.27315 0)
(3.62727 -1.21516 0)
(3.05123 -1.14172 0)
(2.08639 -1.07607 0)
(1.06493 -1.08558 0)
(0.0106143 -1.07402 -4.06353e-17)
(-1.13391 -0.969573 -4.0622e-17)
(-2.24095 -0.861963 0)
(-3.48691 -0.794649 0)
(-4.96712 -0.615992 0)
(-6.79585 -0.369501 4.02195e-17)
(-9.00692 -0.135882 0)
(-11.2128 0.0666468 0)
(-13.0886 0.132662 0)
(-14.5987 0.160106 3.94473e-17)
(-15.2672 0.0872487 -3.90612e-17)
(-15.8584 0.209469 0)
(-17.0525 0.233606 0)
(-14.6222 -0.56282 -3.9304e-17)
(-12.3415 0.549653 -3.80729e-17)
(-13.8516 0.520826 0)
(-12.9265 0.22268 0)
(-10.1375 0.119314 3.73135e-17)
(-7.97562 0.588283 -3.68852e-17)
(-7.45283 0.636614 0)
(-5.59928 0.455937 0)
(-3.71547 0.757662 -3.61208e-17)
(-2.95236 0.840595 0)
(-1.81252 0.768255 0)
(-0.616769 0.89033 -3.51845e-17)
(-0.0167386 0.96206 0)
(1.00241 0.894376 -3.45472e-17)
(1.60596 1.11207 0)
(2.32515 1.05548 0)
(3.36542 1.06405 0)
(3.97278 1.2388 3.32315e-17)
(5.15497 1.15391 0)
(5.29586 1.31155 0)
(6.05169 0.937362 0)
(9.48479 0.601872 0)
(11.0514 1.03431 0)
(10.8446 0.858771 0)
(13.0508 0.17734 3.09994e-17)
(16.4296 0.36995 3.11402e-17)
(17.3637 0.606197 0)
(16.127 0.719274 0)
(14.7312 0.443646 0)
(13.8338 -0.113032 -3.07112e-17)
(13.7095 0.458394 0)
(4.65837 1.68812 5.96936e-17)
(0.759943 -0.752873 -5.31433e-17)
(6.90434 -1.58887 -5.6065e-17)
(7.14253 -0.339264 5.70722e-17)
(7.71895 -1.60689 -5.5468e-17)
(11.0377 -0.768943 5.62476e-17)
(8.41767 -0.747361 0)
(0.0340563 2.5073 0)
(-0.0951209 2.7378 0)
(-0.281882 2.55236 -2.30718e-17)
(-0.458166 2.11282 0)
(-0.402358 1.38319 2.31318e-17)
(-0.120518 0.614585 2.30564e-17)
(0.333656 -0.0156181 1.14766e-17)
(0.888775 -0.442081 1.14117e-17)
(1.52118 -0.656453 0)
(2.16795 -0.76807 1.12766e-17)
(2.82058 -0.724671 0)
(3.37521 -0.55636 0)
(3.91247 -0.390396 -2.21008e-17)
(4.48849 -0.238509 -1.09617e-17)
(4.81828 0.0581822 2.17469e-17)
(5.25522 0.344858 2.15965e-17)
(5.59422 0.434225 1.06865e-17)
(5.68582 0.858095 0)
(5.97783 0.976941 0)
(5.92625 1.16368 0)
(5.8867 1.59209 1.03351e-17)
(5.88704 1.63312 0)
(5.54581 1.93579 -3.04766e-17)
(5.39015 2.14563 0)
(5.07939 2.19078 0)
(4.61049 2.47269 -9.84155e-18)
(4.32738 2.61904 0)
(3.71417 2.7417 9.70523e-18)
(3.04692 2.90733 1.91638e-17)
(2.50245 2.86067 -9.50893e-18)
(1.64217 2.60399 0)
(0.803926 2.19807 0)
(0.192997 1.98701 0)
(-0.461319 1.7739 1.84837e-17)
(-1.1653 1.28047 1.81869e-17)
(-1.72824 0.910441 8.91669e-18)
(-1.89329 0.893508 0)
(-1.9893 0.994767 -1.78033e-17)
(-2.27746 0.745066 0)
(-2.7367 0.564537 1.72061e-17)
(-2.8515 0.833103 0)
(-2.14856 0.86954 0)
(-1.73731 -0.80349 -1.72369e-17)
(-2.16717 -1.98268 0)
(-3.0344 -0.958708 -5.13052e-17)
(-4.72228 0.743658 1.75782e-17)
(-6.88365 1.74141 0)
(-8.93908 2.24759 1.75278e-17)
(-10.6499 2.56386 1.7413e-17)
(-12.0043 2.73768 0)
(-13.0927 2.70891 0)
(-14.0463 2.50461 0)
(-14.8661 2.21773 0)
(-15.5624 1.90159 0)
(-16.1514 1.57362 -1.67391e-17)
(-16.6188 1.24599 -3.32617e-17)
(-16.9512 0.940798 1.65265e-17)
(-17.1794 0.656641 0)
(-17.2929 0.386114 -3.26342e-17)
(-17.3158 0.130007 1.6212e-17)
(-17.247 -0.108402 0)
(-17.0593 -0.33976 1.60148e-17)
(-16.7693 -0.545456 0)
(-16.417 -0.74367 0)
(-15.973 -0.940609 3.14162e-17)
(-15.464 -1.12584 -1.56119e-17)
(-14.8502 -1.31162 3.10125e-17)
(-14.163 -1.47786 -3.08119e-17)
(-13.4193 -1.63698 -1.53129e-17)
(-12.6185 -1.78424 0)
(-11.7581 -1.93143 -1.51163e-17)
(-10.866 -2.08837 0)
(-9.88064 -2.25766 0)
(-8.84382 -2.3273 0)
(-7.86139 -2.32581 -1.47048e-17)
(-6.89622 -2.36519 0)
(-5.89081 -2.45821 -2.90665e-17)
(-4.88581 -2.54676 4.3332e-17)
(-3.92686 -2.59371 1.43525e-17)
(-2.91443 -2.68911 0)
(-1.96797 -2.6244 1.41439e-17)
(-1.08798 -2.68196 0)
(-0.0870592 -2.81557 2.79317e-17)
(0.710427 -2.71887 0)
(1.63215 -2.81299 2.74953e-17)
(2.42601 -2.80181 -5.44681e-17)
(3.25066 -2.84941 -2.70624e-17)
(4.04528 -2.91592 0)
(4.7108 -2.89847 0)
(5.3759 -2.91233 0)
(5.96812 -2.89886 2.62159e-17)
(6.50128 -2.92026 0)
(7.01152 -2.96533 -2.58488e-17)
(7.43999 -3.00217 0)
(7.80249 -3.07095 7.656e-17)
(8.17278 -3.12287 2.53972e-17)
(8.50024 -3.15883 2.5267e-17)
(8.78838 -3.18374 0)
(9.0455 -3.23062 0)
(9.31074 -3.27626 0)
(9.51746 -3.28748 0)
(9.59142 -3.29401 0)
(9.57932 -3.35662 4.77192e-17)
(9.49316 -3.4367 4.72579e-17)
(9.37612 -3.49248 0)
(9.19389 -3.53318 -2.31509e-17)
(9.0069 -3.61903 -2.29138e-17)
(8.77629 -3.6706 0)
(8.52255 -3.66854 -4.44957e-17)
(8.19261 -3.65427 0)
(7.8742 -3.7034 2.16372e-17)
(7.53446 -3.75682 0)
(7.18593 -3.82877 0)
(6.8707 -3.85208 -4.2307e-17)
(6.47969 -3.95261 0)
(6.12719 -4.11865 2.11935e-17)
(5.87881 -4.24202 0)
(5.74302 -4.37395 0)
(5.64438 -4.37911 2.08994e-17)
(5.5476 -4.36988 2.09901e-17)
(5.3734 -4.5695 0)
(5.15219 -4.9768 -2.11879e-17)
(5.3434 -5.22336 0)
(5.82458 -4.91889 2.10232e-17)
(6.14472 -4.39447 4.14478e-17)
(6.16202 -4.16953 0)
(6.04421 -3.77722 0)
(5.58411 -3.37019 0)
(4.73577 -3.22171 0)
(3.29368 -2.95928 3.86249e-17)
(1.67712 -2.78242 1.17613e-16)
(-0.0253578 -2.40049 0)
(-2.33789 -1.84765 0)
(-4.96382 -1.10625 0)
(-7.78503 -0.27956 -3.98955e-17)
(-10.4974 0.0745498 0)
(-12.8219 0.268504 0)
(-14.636 0.158168 7.95002e-17)
(-15.6551 0.0028709 3.9134e-17)
(-16.1083 0.117615 3.91255e-17)
(-16.6149 0.383352 0)
(-17.0963 -0.0449409 0)
(-16.2724 -2.90364 4.09637e-17)
(-11.9473 0.818213 -3.76413e-17)
(-13.8554 1.54298 0)
(-13.4719 0.049285 0)
(-9.90566 -0.929867 -3.82571e-17)
(-5.68346 1.09051 1.10861e-16)
(-5.17026 1.41507 0)
(-3.21663 0.620747 0)
(0.0969925 1.57598 3.64319e-17)
(1.32693 2.17138 0)
(2.90055 1.94714 7.03248e-17)
(4.72169 2.52086 -3.43739e-17)
(5.30919 2.88598 0)
(6.40866 2.71344 3.35287e-17)
(6.37197 3.35125 6.5605e-17)
(6.57681 3.07134 0)
(7.03046 2.96065 0)
(7.0541 3.34918 -3.09761e-17)
(8.26997 3.03636 0)
(8.03158 3.59086 6.11817e-17)
(7.48146 1.82704 0)
(12.0012 0.794959 0)
(13.883 2.84566 0)
(12.5656 2.20832 0)
(15.1816 -0.560356 -2.86706e-17)
(19.5359 0.276303 -2.85543e-17)
(19.9314 1.71724 0)
(17.3036 1.79895 0)
(15.6851 0.77506 0)
(13.8559 0.350512 2.75594e-17)
(10.352 2.3539 0)
(0.925139 2.8152 -5.086e-17)
(1.58129 -3.72858 4.69228e-17)
(3.86686 -5.13167 5.125e-17)
(6.08028 -2.68014 4.85437e-17)
(7.92222 -5.61709 5.02369e-17)
(11.5912 -3.79856 4.86186e-17)
(10.2542 -3.50549 0)
(0.0647864 3.15665 0)
(0.145328 3.59674 0)
(0.157263 3.53011 2.31963e-17)
(0.309989 2.87955 2.32532e-17)
(0.681552 1.74861 -2.32577e-17)
(1.19109 0.645096 -2.31755e-17)
(1.78254 -0.203545 8.1376e-21)
(2.3426 -0.744934 0)
(2.85858 -0.958862 0)
(3.33347 -1.01185 0)
(3.72236 -0.880565 0)
(4.1336 -0.536778 0)
(4.4747 -0.498661 6.68122e-17)
(4.81024 0.00686302 0)
(5.10404 0.274812 -2.20609e-17)
(5.33743 0.385947 -2.17672e-17)
(5.63509 1.11364 0)
(5.67299 1.15557 0)
(5.85591 1.63649 0)
(5.86916 2.12373 0)
(5.68484 2.19667 -2.09365e-17)
(5.74107 2.78676 0)
(5.41048 2.99359 2.05195e-17)
(5.12078 3.09274 0)
(5.01469 3.50949 0)
(4.61871 3.61695 0)
(4.33379 3.84017 3.93891e-17)
(4.18516 4.22425 0)
(3.81003 4.18539 -1.91386e-17)
(3.23476 4.1742 3.83613e-17)
(2.8211 4.25241 0)
(2.15187 3.90844 0)
(1.13797 3.35823 0)
(0.533563 3.2106 -1.85924e-17)
(0.268352 3.21433 -1.8489e-17)
(-0.348316 2.36828 0)
(-1.31175 1.09112 0)
(-1.99573 0.921293 3.51676e-17)
(-1.89602 2.09714 3.52319e-17)
(-1.45399 2.04111 -3.47754e-17)
(-1.60747 -0.466099 0)
(-2.11744 -1.38036 0)
(-3.81921 0.772991 0)
(-6.68461 2.7743 0)
(-8.97663 3.62264 3.5608e-17)
(-10.7552 4.08479 3.54763e-17)
(-12.1536 4.15582 -3.52717e-17)
(-13.3923 4.09267 0)
(-14.4794 4.01398 0)
(-15.3332 3.90226 0)
(-15.9992 3.65617 0)
(-16.4937 3.29791 3.42503e-17)
(-16.8784 2.87625 0)
(-17.1626 2.4099 0)
(-17.3639 1.94038 3.3621e-17)
(-17.4914 1.48532 3.34119e-17)
(-17.5441 1.04924 0)
(-17.5384 0.64231 -6.59736e-17)
(-17.4588 0.251251 3.27832e-17)
(-17.3091 -0.125746 -3.25803e-17)
(-17.0827 -0.482268 0)
(-16.771 -0.811885 0)
(-16.4024 -1.12174 0)
(-15.9698 -1.41766 0)
(-15.4737 -1.70938 -3.15611e-17)
(-14.9011 -2.01136 -6.26799e-17)
(-14.2602 -2.29693 -3.11514e-17)
(-13.5451 -2.57584 3.09482e-17)
(-12.7483 -2.80995 0)
(-11.9131 -3.01811 -6.10479e-17)
(-11.0512 -3.2259 -6.06578e-17)
(-10.1844 -3.47476 -6.02728e-17)
(-9.22537 -3.7591 5.98687e-17)
(-8.20736 -3.8935 0)
(-7.22427 -3.90373 8.85599e-17)
(-6.27486 -3.95657 0)
(-5.29009 -4.10297 -2.91381e-17)
(-4.29673 -4.20775 -2.90454e-17)
(-3.39651 -4.27068 0)
(-2.4185 -4.42519 0)
(-1.55599 -4.37077 -5.69742e-17)
(-0.626316 -4.48572 0)
(0.29548 -4.6339 -5.63697e-17)
(1.07274 -4.53467 0)
(1.99259 -4.71915 5.56628e-17)
(2.75417 -4.70507 1.10572e-16)
(3.57877 -4.77271 0)
(4.34172 -4.84847 0)
(5.05685 -4.84863 0)
(5.79806 -4.91788 5.35379e-17)
(6.39176 -4.86824 0)
(6.96374 -4.87572 5.25585e-17)
(7.52629 -4.91863 0)
(7.99284 -4.92353 0)
(8.41395 -5.02498 -1.02714e-16)
(8.80665 -5.1102 0)
(9.12145 -5.19507 -5.04472e-17)
(9.37114 -5.32668 0)
(9.52305 -5.44568 -5.01777e-17)
(9.76052 -5.55426 0)
(10.0923 -5.57326 0)
(10.3666 -5.49728 0)
(10.5202 -5.48051 -1.45325e-16)
(10.5482 -5.56513 -4.81257e-17)
(10.5668 -5.64734 0)
(10.4865 -5.69064 0)
(10.3799 -5.79434 0)
(10.1987 -5.88252 0)
(9.97754 -5.92573 4.51852e-17)
(9.68884 -5.92298 -8.87713e-17)
(9.44764 -6.04928 -4.41842e-17)
(9.15686 -6.11187 8.65406e-17)
(9.01 -6.23715 8.5217e-17)
(8.75966 -6.33418 4.23855e-17)
(8.45905 -6.44494 0)
(8.1168 -6.71486 8.64516e-17)
(7.68387 -6.99702 0)
(7.25444 -7.1911 -8.89292e-17)
(7.04361 -7.26167 -4.44519e-17)
(6.96636 -7.20838 0)
(6.80625 -7.14904 8.70792e-17)
(6.35543 -7.48662 4.47762e-17)
(6.01806 -8.06835 0)
(6.03061 -7.99571 4.48218e-17)
(6.36697 -7.39932 -1.32629e-16)
(6.68876 -6.98021 0)
(6.75765 -6.44702 0)
(6.39896 -5.7512 0)
(5.31903 -4.96024 0)
(3.38181 -4.32588 -7.73132e-17)
(1.46095 -3.80322 -7.90385e-17)
(-0.555948 -2.82943 0)
(-3.47902 -1.69243 0)
(-6.57642 -0.873 0)
(-9.3241 -0.110754 0)
(-10.9709 0.200393 0)
(-12.46 0.440361 0)
(-13.8457 -0.00734025 -8.03303e-17)
(-14.7998 -0.151626 -6.15404e-19)
(-15.2634 0.240558 0)
(-14.8135 0.0822277 0)
(-14.5077 0.524587 -7.97592e-17)
(-15.9357 -3.72618 0)
(-12.2889 1.09036 7.60026e-17)
(-13.8601 2.99934 7.70551e-17)
(-14.2817 0.216174 0)
(-12.7671 -2.63259 0)
(-6.45827 1.05592 -7.52215e-17)
(-5.37769 2.49976 -1.47877e-16)
(-4.86242 0.88587 0)
(-0.557375 2.16819 0)
(1.13958 3.5858 0)
(2.35121 3.01287 -7.47756e-17)
(5.3243 4.04853 7.26896e-17)
(6.54385 4.88991 0)
(8.46825 4.6695 1.3698e-16)
(9.15951 6.06121 6.52111e-17)
(9.45371 5.87773 -1.30749e-16)
(9.4373 5.55775 0)
(8.83049 5.75556 0)
(10.3205 4.82934 -1.17387e-16)
(10.7468 6.83579 -6.17399e-17)
(8.37559 3.92809 0)
(11.3138 1.31633 0)
(13.5481 5.43365 0)
(12.0715 4.34369 0)
(14.7777 -0.463406 -1.23963e-16)
(19.6908 0.987108 0)
(20.2 3.4709 0)
(17.751 3.42558 0)
(16.0113 2.08777 0)
(12.9399 2.07042 0)
(8.96665 4.8844 0)
(0.840713 3.91332 -9.62477e-17)
(4.75096 -5.35679 0)
(4.0738 -6.85616 0)
(5.71681 -4.93947 -2.02064e-16)
(8.06309 -9.21797 1.06974e-16)
(10.8891 -6.13606 -1.04528e-16)
(9.88218 -5.89616 1.00748e-16)
(0.0242435 3.77952 0)
(0.0897003 4.20889 -4.75307e-17)
(0.261297 3.94208 0)
(0.767706 2.76727 -2.35558e-17)
(1.43188 1.2983 0)
(2.08855 0.142486 0)
(2.61466 -0.609161 2.32388e-17)
(3.02256 -0.932988 0)
(3.3256 -0.997129 0)
(3.59386 -0.806693 0)
(3.80264 -0.628144 0)
(4.06018 -0.388524 0)
(4.33657 0.0408142 -8.97925e-17)
(4.5473 0.160412 -4.44266e-17)
(4.90515 0.656439 4.43073e-17)
(4.98576 0.910179 0)
(5.2837 1.41717 0)
(5.35859 1.93639 0)
(5.26159 2.14989 0)
(5.46251 3.01756 0)
(5.08306 3.12562 -4.21235e-17)
(5.01668 3.6466 -4.16986e-17)
(4.8818 4.28056 4.19316e-17)
(4.21965 4.05277 -4.11997e-17)
(4.17387 4.4321 0)
(3.94657 4.6102 0)
(3.37153 4.36108 -3.93245e-17)
(3.2578 4.84252 0)
(3.11284 5.36494 0)
(2.7774 5.22756 -3.72161e-17)
(2.42897 5.37044 -3.77432e-17)
(1.88057 5.78815 -3.81362e-17)
(1.47672 5.14011 0)
(1.03753 3.75658 0)
(0.182272 3.26051 3.68989e-17)
(-0.560449 4.04384 0)
(-0.777949 4.20482 0)
(-1.07869 2.35917 -3.53782e-17)
(-1.3839 0.137181 3.48784e-17)
(-1.75402 0.362805 -3.46633e-17)
(-3.9239 2.63719 0)
(-6.94156 4.40978 0)
(-9.23076 5.26014 -7.20453e-17)
(-11.0095 5.52906 0)
(-12.3989 5.66511 -7.1677e-17)
(-13.5956 5.70558 -1.06981e-16)
(-14.5238 5.56668 1.06403e-16)
(-15.2559 5.29447 -7.04951e-17)
(-15.8676 4.95083 0)
(-16.3132 4.5522 0)
(-16.6705 4.09974 -6.91278e-17)
(-16.9049 3.60536 -3.43327e-17)
(-17.0936 3.06733 0)
(-17.1942 2.50602 0)
(-17.2752 1.95032 -3.36756e-17)
(-17.2855 1.41125 -6.69184e-17)
(-17.2528 0.881315 0)
(-17.169 0.379874 6.60757e-17)
(-17.0245 -0.0939696 -6.5643e-17)
(-16.8463 -0.550173 6.52213e-17)
(-16.6218 -0.993289 0)
(-16.3012 -1.42183 0)
(-15.9115 -1.80951 0)
(-15.4651 -2.17972 0)
(-14.9601 -2.54152 0)
(-14.3831 -2.91706 6.28108e-17)
(-13.755 -3.30495 0)
(-13.0404 -3.69551 0)
(-12.2538 -4.02693 0)
(-11.391 -4.29842 1.22223e-16)
(-10.4775 -4.55024 6.07373e-17)
(-9.56082 -4.83267 6.03647e-17)
(-8.60444 -5.21099 -1.19913e-16)
(-7.59764 -5.40489 5.9456e-17)
(-6.59695 -5.42564 -5.90156e-17)
(-5.61356 -5.47724 0)
(-4.67012 -5.67288 5.82316e-17)
(-3.70894 -5.80785 0)
(-2.82857 -5.87574 0)
(-1.87085 -6.04377 0)
(-1.08156 -6.03848 1.13549e-16)
(-0.118121 -6.2112 -5.651e-17)
(0.648741 -6.32645 -5.60254e-17)
(1.51889 -6.30811 -1.11747e-16)
(2.34637 -6.48904 -1.66955e-16)
(3.07831 -6.51151 -5.54499e-17)
(3.86547 -6.62591 0)
(4.58366 -6.69444 -1.09408e-16)
(5.25795 -6.67862 0)
(5.99051 -6.82357 -1.62111e-16)
(6.65203 -6.77482 0)
(7.24871 -6.82142 -1.5948e-16)
(7.80642 -6.89754 0)
(8.31572 -6.86955 0)
(8.74653 -7.02127 -5.17052e-17)
(9.1547 -7.1308 0)
(9.56101 -7.0536 5.09268e-17)
(9.9361 -7.09455 1.00504e-16)
(10.0616 -7.26774 5.02869e-17)
(10.1234 -7.60774 9.98564e-17)
(10.2324 -7.79503 -9.90612e-17)
(10.4368 -7.72553 -9.77834e-17)
(10.5946 -7.68636 1.93902e-16)
(10.7017 -7.81201 0)
(10.8717 -7.92057 0)
(10.9459 -7.93001 9.47616e-17)
(11.0292 -8.0389 -9.37843e-17)
(11.0099 -8.08446 0)
(10.9273 -8.11054 0)
(10.7312 -8.14016 9.09962e-17)
(10.7006 -8.3436 0)
(10.4541 -8.52628 -5.46041e-19)
(10.4332 -8.69324 -5.60823e-19)
(10.2813 -8.69113 8.6146e-17)
(10.0728 -8.73973 0)
(9.72457 -9.04015 -8.7225e-17)
(9.23818 -9.23936 0)
(8.50017 -9.58581 9.0306e-17)
(7.94941 -9.99655 0)
(7.82327 -9.99821 0)
(7.50904 -9.79677 -8.90903e-17)
(7.03272 -10.0966 -8.83239e-17)
(6.54384 -10.8087 0)
(6.12452 -10.9731 -9.07089e-17)
(6.39544 -10.654 1.79741e-16)
(6.89708 -10.1889 0)
(7.01807 -9.15921 0)
(6.50691 -7.69208 0)
(5.13521 -6.25346 0)
(3.07297 -5.33709 7.89325e-17)
(0.968681 -4.84124 -1.56934e-16)
(-1.22526 -3.44592 0)
(-3.57269 -1.77702 0)
(-5.69479 -0.767054 0)
(-8.07171 -0.505592 0)
(-9.49523 -0.613309 0)
(-10.7132 -0.0273693 0)
(-11.1634 -0.174289 0)
(-12.6692 -0.454172 7.75965e-17)
(-13.1423 -0.235849 0)
(-12.0195 -0.952767 0)
(-11.1152 1.22391 7.85789e-17)
(-12.3307 -3.58191 0)
(-11.4192 0.714599 0)
(-11.4218 4.23357 -7.73015e-17)
(-11.3461 1.22676 0)
(-13.9506 -3.77584 0)