/*--------------------------------*- C++ -*----------------------------------*\
| =========                 |                                                 |
| \\      /  F ield         | OpenFOAM: The Open Source CFD Toolbox           |
|  \\    /   O peration     | Version:  dev                                   |
|   \\  /    A nd           | Web:      http://www.openfoam.org               |
|    \\/     M anipulation  |                                                 |
\*---------------------------------------------------------------------------*/
FoamFile
{
    version     2.0;
    format      ascii;
    class       volVectorField;
    object      U_0;
    location    "9.165";
}
// * * * * * * * * * * * * * * * * * * * * * * * * * * * * * * * * * * * * * //

dimensions      [0 1 -1 0 0 0 0];

internalField   nonuniform List<vector> 
12225
(
(7.46736 0.112698 0)
(5.33448 -0.188756 0)
(4.10168 -0.356596 0)
(4.63179 -0.371542 0)
(4.10745 -0.381908 0)
(5.59696 -0.420457 0)
(4.74309 -0.358379 0)
(6.68469 -0.452271 0)
(5.53927 -0.371115 0)
(7.88817 -0.508182 0)
(6.66733 -0.378199 0)
(9.59125 -0.553109 0)
(8.2425 -0.41234 0)
(11.9435 -0.712003 0)
(12.0169 -0.379771 0)
(14.3074 -1.2834 0)
(24.9722 -3.57704 0)
(29.3567 1.07148 0)
(10.1741 -0.100477 0)
(10.1975 -0.261984 0)
(7.95556 -0.682697 0)
(9.24883 -0.91073 0)
(6.53926 -1.03148 0)
(9.53778 -1.12341 0)
(5.90035 -1.07377 0)
(10.3643 -1.2378 0)
(5.80088 -1.12272 0)
(11.6182 -1.33726 0)
(6.31868 -1.25384 0)
(13.6562 -1.53754 0)
(7.61584 -1.39245 0)
(16.5027 -2.41924 0)
(11.2287 -1.20826 0)
(20.4445 -5.78145 0)
(19.7392 -4.97973 0)
(27.9589 -7.96989 0)
(9.52598 -1.12476 0)
(12.6807 -0.918543 0)
(9.72488 -1.30657 0)
(13.4807 -1.54349 0)
(8.75606 -1.71494 0)
(13.9756 -1.74787 0)
(7.78985 -1.86813 0)
(14.7415 -1.94083 0)
(7.3903 -2.00273 0)
(15.7739 -2.20875 0)
(8.35261 -2.17464 0)
(16.9602 -2.73091 0)
(10.4325 -2.39794 0)
(17.7316 -3.69741 0)
(13.343 -2.33336 0)
(18.8423 -6.43963 0)
(16.5528 -6.64168 0)
(26.502 -8.61113 0)
(7.44623 -2.28326 0)
(14.6911 -1.97184 0)
(9.595 -2.26335 0)
(16.2564 -2.35025 0)
(10.0829 -2.48539 0)
(16.958 -2.55245 0)
(10.5949 -2.56091 0)
(17.3396 -2.91197 0)
(11.3438 -2.68184 0)
(17.5078 -3.44784 0)
(12.3799 -2.76145 0)
(17.3727 -4.21984 0)
(13.4978 -2.87929 0)
(17.717 -5.42017 0)
(15.2803 -3.10206 0)
(18.5395 -9.03612 0)
(16.8934 -8.56337 0)
(22.3187 -13.0917 0)
(7.08501 -3.22186 0)
(14.5185 -3.313 0)
(10.1587 -3.13784 0)
(15.5253 -3.59584 0)
(11.7005 -3.283 0)
(15.8719 -3.87895 0)
(13.1297 -3.29677 0)
(16.2258 -4.22082 0)
(14.1194 -3.41567 0)
(16.3587 -4.69611 0)
(15.0642 -3.48364 0)
(16.3505 -5.38937 0)
(15.7116 -3.56733 0)
(16.9255 -6.73211 0)
(16.9784 -3.74735 0)
(18.5874 -9.51733 0)
(17.6916 -7.7638 0)
(14.8604 -18.3705 0)
(8.85359 -4.25208 0)
(12.0242 -4.96623 0)
(11.2363 -4.14575 0)
(13.2246 -4.94312 0)
(12.688 -4.11247 0)
(13.6534 -5.28169 0)
(13.903 -4.19844 0)
(14.2814 -5.58408 0)
(14.5945 -4.18652 0)
(14.8846 -6.1617 0)
(15.733 -4.22467 0)
(15.6322 -6.81155 0)
(16.5834 -4.44654 0)
(16.6741 -8.29122 0)
(17.7616 -5.31788 0)
(18.1946 -10.5273 0)
(17.9444 -7.47538 0)
(13.1543 -15.5743 0)
(10.0176 -5.10558 0)
(11.3327 -6.40237 0)
(11.6821 -5.10868 0)
(12.5746 -6.44615 0)
(12.7926 -4.96579 0)
(13.4378 -6.76136 0)
(13.7703 -5.00829 0)
(14.1177 -6.9811 0)
(14.4726 -5.08854 0)
(14.7958 -7.67056 0)
(15.6042 -5.30351 0)
(15.8394 -8.15425 0)
(16.6281 -5.68999 0)
(16.9246 -9.43174 0)
(17.3287 -6.6742 0)
(17.5769 -11.3564 0)
(16.8741 -8.74809 0)
(14.6051 -15.0835 0)
(10.4149 -6.31194 0)
(11.1463 -7.64913 0)
(11.8402 -6.05682 0)
(12.3441 -7.65502 0)
(12.9241 -5.96002 0)
(13.4142 -7.99201 0)
(13.8266 -6.03566 0)
(14.1978 -8.18112 0)
(14.6017 -6.19249 0)
(14.9171 -8.79517 0)
(15.3699 -6.63768 0)
(15.8108 -9.23679 0)
(16.1762 -7.23047 0)
(16.6656 -10.317 0)
(16.2894 -8.24859 0)
(16.9453 -11.5469 0)
(15.7853 -9.79676 0)
(15.2774 -13.8729 0)
(10.2104 -7.25511 0)
(10.8578 -8.86701 0)
(11.9112 -6.97041 0)
(12.3118 -8.90078 0)
(12.9429 -6.8672 0)
(13.3288 -9.14567 0)
(13.637 -6.90387 0)
(14.224 -9.24095 0)
(14.5361 -7.23106 0)
(15.0634 -9.73129 0)
(15.1836 -7.75085 0)
(15.866 -10.1893 0)
(15.8295 -8.45006 0)
(16.4797 -10.9914 0)
(15.8298 -9.44566 0)
(16.6213 -11.9991 0)
(15.4604 -10.8277 0)
(15.3532 -13.2343 0)
(10.314 -8.38456 0)
(10.9951 -10.1023 0)
(11.7743 -8.05464 0)
(12.1409 -9.9633 0)
(12.6752 -7.96602 0)
(13.1793 -10.1762 0)
(13.5893 -8.16407 0)
(14.1532 -10.3018 0)
(14.5686 -8.5747 0)
(14.9058 -10.7006 0)
(15.1204 -9.07344 0)
(15.5307 -11.0828 0)
(15.5213 -9.79505 0)
(16.0389 -11.6987 0)
(15.6274 -10.7203 0)
(16.1788 -12.4576 0)
(15.3821 -11.9902 0)
(15.2186 -13.1216 0)
(10.4073 -9.73968 0)
(10.9942 -11.4067 0)
(11.7623 -9.30377 0)
(12.1567 -11.2761 0)
(12.7517 -9.4156 0)
(13.2517 -11.4395 0)
(13.6717 -9.65116 0)
(14.1517 -11.5116 0)
(14.4744 -10.01 0)
(14.7828 -11.797 0)
(14.9373 -10.4731 0)
(15.2746 -12.141 0)
(15.1997 -11.1704 0)
(15.618 -12.5912 0)
(15.3697 -12.0358 0)
(15.6649 -13.1744 0)
(15.2471 -13.1335 0)
(15.0258 -13.6669 0)
(10.505 -11.3635 0)
(10.9134 -12.7177 0)
(11.6818 -10.8811 0)
(12.0577 -12.4787 0)
(12.6118 -11.0261 0)
(13.053 -12.6175 0)
(13.4353 -11.2706 0)
(13.9283 -12.6511 0)
(14.229 -11.6198 0)
(14.5741 -12.8804 0)
(14.739 -12.0749 0)
(15.0057 -13.1986 0)
(14.9908 -12.7079 0)
(15.2449 -13.5783 0)
(15.1207 -13.448 0)
(15.2228 -14.0746 0)
(15.0003 -14.2092 0)
(14.7715 -14.4834 0)
(10.1748 -12.8004 0)
(10.8923 -14.0201 0)
(11.5793 -12.5829 0)
(12.1432 -13.7492 0)
(12.58 -12.7296 0)
(13.0466 -13.8515 0)
(13.3806 -13.0115 0)
(13.8087 -13.9078 0)
(14.0939 -13.3418 0)
(14.4159 -14.0687 0)
(14.5791 -13.6979 0)
(14.7933 -14.3451 0)
(14.8201 -14.2084 0)
(14.9325 -14.7131 0)
(14.854 -14.7839 0)
(14.8513 -15.1451 0)
(14.7343 -15.3307 0)
(14.5334 -15.5072 0)
(10.2131 -14.4573 0)
(10.9103 -15.3766 0)
(11.5161 -14.3963 0)
(12.1122 -15.0023 0)
(12.5903 -14.4467 0)
(13.0712 -15.0565 0)
(13.3982 -14.719 0)
(13.7385 -15.1898 0)
(13.9421 -14.9816 0)
(14.1697 -15.3485 0)
(14.3087 -15.2554 0)
(14.4753 -15.5739 0)
(14.5799 -15.6084 0)
(14.6678 -15.8996 0)
(14.6818 -16.028 0)
(14.6864 -16.247 0)
(14.6044 -16.4133 0)
(14.4026 -16.5118 0)
(10.3389 -16.1567 0)
(11.0257 -16.6927 0)
(11.5796 -16.1816 0)
(12.0958 -16.3937 0)
(12.5224 -16.1937 0)
(12.9557 -16.3719 0)
(13.3036 -16.26 0)
(13.638 -16.3693 0)
(13.8737 -16.3604 0)
(14.1016 -16.4976 0)
(14.2586 -16.5864 0)
(14.4022 -16.7806 0)
(14.4885 -16.9171 0)
(14.5497 -17.105 0)
(14.5413 -17.2486 0)
(14.5143 -17.3494 0)
(14.4164 -17.4146 0)
(14.229 -17.44 0)
(10.6711 -17.5133 0)
(11.0903 -17.6349 0)
(11.4714 -17.2704 0)
(11.8659 -17.3183 0)
(12.2164 -17.2937 0)
(12.6042 -17.3823 0)
(12.9744 -17.4183 0)
(13.355 -17.4743 0)
(13.6611 -17.5166 0)
(13.9362 -17.5833 0)
(14.1219 -17.6372 0)
(14.2576 -17.727 0)
(14.3116 -17.8089 0)
(14.343 -17.9037 0)
(14.2937 -17.9762 0)
(14.2628 -18.0586 0)
(14.1716 -18.1267 0)
(14.0171 -18.1182 0)
(10.1559 -18.0081 0)
(10.6286 -18.1695 0)
(11.1139 -17.943 0)
(11.6468 -17.9884 0)
(12.1245 -18.0232 0)
(12.5887 -18.0883 0)
(12.9554 -18.1372 0)
(13.3031 -18.165 0)
(13.5729 -18.1656 0)
(13.8177 -18.1573 0)
(13.9965 -18.1452 0)
(14.1441 -18.1542 0)
(14.2234 -18.1831 0)
(14.2838 -18.2147 0)
(14.2705 -18.2622 0)
(14.2687 -18.3129 0)
(14.1867 -18.3371 0)
(14.0459 -18.3358 0)
(10.1388 -18.0303 0)
(10.5419 -18.0077 0)
(11.039 -17.8076 0)
(11.5958 -17.8755 0)
(12.0893 -17.9051 0)
(12.5509 -17.8919 0)
(12.8985 -17.8956 0)
(13.2234 -17.9055 0)
(13.4802 -17.9043 0)
(13.7252 -17.919 0)
(13.9125 -17.8989 0)
(14.0731 -17.8886 0)
(14.1542 -17.8874 0)
(14.2155 -17.8671 0)
(14.1992 -17.8613 0)
(14.1957 -17.8481 0)
(14.1195 -17.8491 0)
(13.9954 -17.8074 0)
(10.109 -17.0456 0)
(10.6693 -17.2059 0)
(11.3525 -17.0455 0)
(11.9607 -17.0835 0)
(12.4153 -17.0998 0)
(12.8213 -17.0819 0)
(13.145 -17.0851 0)
(13.4507 -17.1012 0)
(13.6974 -17.096 0)
(13.9263 -17.0853 0)
(14.0997 -17.0144 0)
(14.2468 -16.9368 0)
(14.3244 -16.8501 0)
(14.3879 -16.7668 0)
(14.3703 -16.7363 0)
(14.3728 -16.6957 0)
(14.3109 -16.688 0)
(14.204 -16.6466 0)
(10.474 -15.8143 0)
(10.9012 -16.0163 0)
(11.4362 -15.8174 0)
(11.9767 -15.7248 0)
(12.4703 -15.6282 0)
(12.9114 -15.5535 0)
(13.2714 -15.5435 0)
(13.5707 -15.5511 0)
(13.7794 -15.569 0)
(13.9622 -15.5716 0)
(14.0906 -15.5207 0)
(14.2191 -15.4669 0)
(14.297 -15.3819 0)
(14.386 -15.2985 0)
(14.4101 -15.2339 0)
(14.4452 -15.1801 0)
(14.4197 -15.1735 0)
(14.3557 -15.1232 0)
(10.3745 -14.1203 0)
(10.837 -14.1758 0)
(11.4136 -14.0568 0)
(12.0093 -14.126 0)
(12.527 -14.133 0)
(13.0142 -14.0681 0)
(13.4083 -14.0284 0)
(13.7264 -13.9838 0)
(13.9881 -13.9656 0)
(14.1853 -13.9467 0)
(14.337 -13.8958 0)
(14.483 -13.8415 0)
(14.5558 -13.7606 0)
(14.6501 -13.6861 0)
(14.6631 -13.6181 0)
(14.7018 -13.5578 0)
(14.6638 -13.5194 0)
(14.6007 -13.4673 0)
(10.4954 -12.2797 0)
(10.9909 -12.4851 0)
(11.6264 -12.4351 0)
(12.1925 -12.4276 0)
(12.6264 -12.3639 0)
(13.0488 -12.2755 0)
(13.4144 -12.1906 0)
(13.7526 -12.1577 0)
(14.0526 -12.1475 0)
(14.2863 -12.1256 0)
(14.4583 -12.1084 0)
(14.5928 -12.0385 0)
(14.6563 -11.982 0)
(14.7117 -11.8912 0)
(14.7121 -11.8171 0)
(14.7246 -11.7628 0)
(14.6816 -11.7032 0)
(14.6383 -11.6604 0)
(10.4909 -10.4296 0)
(11.0247 -10.5973 0)
(11.7172 -10.5533 0)
(12.273 -10.5698 0)
(12.7592 -10.5643 0)
(13.1848 -10.5392 0)
(13.5531 -10.5231 0)
(13.8992 -10.5198 0)
(14.1632 -10.5042 0)
(14.3972 -10.4624 0)
(14.5637 -10.3989 0)
(14.6938 -10.3019 0)
(14.7892 -10.217 0)
(14.8402 -10.1301 0)
(14.875 -10.0652 0)
(14.8927 -10.0137 0)
(14.8746 -9.97768 0)
(14.8497 -9.94075 0)
(10.4188 -8.80146 0)
(10.9695 -8.99563 0)
(11.7458 -8.94028 0)
(12.4225 -8.90991 0)
(13.0153 -8.85748 0)
(13.5017 -8.7824 0)
(13.9131 -8.72635 0)
(14.2283 -8.70201 0)
(14.4498 -8.6939 0)
(14.6086 -8.673 0)
(14.7107 -8.64686 0)
(14.8046 -8.58355 0)
(14.8855 -8.51808 0)
(14.9561 -8.44642 0)
(15.0205 -8.38291 0)
(15.0741 -8.33699 0)
(15.0952 -8.30262 0)
(15.0964 -8.25836 0)
(10.466 -7.101 0)
(11.0699 -7.35139 0)
(11.792 -7.36499 0)
(12.4216 -7.372 0)
(12.9737 -7.34858 0)
(13.4668 -7.29177 0)
(13.9082 -7.22971 0)
(14.2768 -7.16756 0)
(14.567 -7.1149 0)
(14.7698 -7.0628 0)
(14.9013 -7.02484 0)
(14.9916 -6.97393 0)
(15.0545 -6.93436 0)
(15.0987 -6.89813 0)
(15.1394 -6.86302 0)
(15.1707 -6.83229 0)
(15.1801 -6.79811 0)
(15.1679 -6.75413 0)
(10.3087 -5.72535 0)
(11.1807 -5.87914 0)
(12.1553 -5.82351 0)
(12.8522 -5.81463 0)
(13.3441 -5.80749 0)
(13.7515 -5.75947 0)
(14.1246 -5.69708 0)
(14.4658 -5.64947 0)
(14.7597 -5.60021 0)
(14.9995 -5.54068 0)
(15.1646 -5.49907 0)
(15.2737 -5.4516 0)
(15.3246 -5.41242 0)
(15.3328 -5.38658 0)
(15.317 -5.36206 0)
(15.2849 -5.34396 0)
(15.2326 -5.32272 0)
(15.171 -5.28589 0)
(10.1768 -4.44419 0)
(11.1297 -4.74006 0)
(12.227 -4.63283 0)
(13.0239 -4.52455 0)
(13.5341 -4.44103 0)
(13.8839 -4.38006 0)
(14.1572 -4.35448 0)
(14.3692 -4.3355 0)
(14.5346 -4.30188 0)
(14.6523 -4.23834 0)
(14.7132 -4.17217 0)
(14.7462 -4.10248 0)
(14.7478 -4.04399 0)
(14.7262 -4.01064 0)
(14.6803 -3.98999 0)
(14.6137 -3.96844 0)
(14.5277 -3.95311 0)
(14.4212 -3.92643 0)
(10.5349 -3.18717 0)
(11.4169 -3.56681 0)
(12.2714 -3.41852 0)
(12.7715 -3.26133 0)
(13.0134 -3.1325 0)
(13.1316 -3.0397 0)
(13.1593 -2.98002 0)
(13.1123 -2.93164 0)
(13.0096 -2.89222 0)
(12.905 -2.84825 0)
(12.7879 -2.80627 0)
(12.6845 -2.76923 0)
(12.5858 -2.73241 0)
(12.4752 -2.71086 0)
(12.3503 -2.69413 0)
(12.219 -2.67121 0)
(12.0881 -2.65471 0)
(11.9427 -2.62537 0)
(10.6352 -2.29445 0)
(10.9689 -2.54902 0)
(10.8976 -2.31013 0)
(10.5581 -2.07601 0)
(10.2006 -1.87398 0)
(9.93757 -1.73646 0)
(9.73423 -1.65 0)
(9.56619 -1.60541 0)
(9.41445 -1.5821 0)
(9.3031 -1.55736 0)
(9.18951 -1.53862 0)
(9.09027 -1.5239 0)
(8.99029 -1.50464 0)
(8.88152 -1.49081 0)
(8.77222 -1.48472 0)
(8.66811 -1.47914 0)
(8.56356 -1.47766 0)
(8.45789 -1.48104 0)
(8.9378 -0.982783 0)
(6.95453 -0.874045 0)
(5.77393 -0.60603 0)
(5.19493 -0.483234 0)
(5.0739 -0.44346 0)
(5.19768 -0.443838 0)
(5.38838 -0.451443 0)
(5.57606 -0.463581 0)
(5.72962 -0.469045 0)
(5.85273 -0.467615 0)
(5.93627 -0.468409 0)
(5.99312 -0.466675 0)
(6.02258 -0.467663 0)
(6.02769 -0.465193 0)
(6.0145 -0.465159 0)
(5.97844 -0.465321 0)
(5.92106 -0.473369 0)
(5.85383 -0.477457 0)
(-0.192957 1.0462 0)
(-0.722754 1.03242 0)
(-1.23472 0.910031 0)
(-1.63033 0.709647 0)
(-1.7888 0.467211 0)
(-1.70106 0.224375 0)
(-1.38742 0.0199683 1.14045e-17)
(-0.930402 -0.120786 -1.13284e-17)
(-0.359748 -0.199311 0)
(0.277775 -0.231888 -1.11734e-17)
(0.923939 -0.206489 0)
(1.55019 -0.123396 0)
(2.13104 -0.0555895 0)
(2.66387 0.00936848 1.08371e-17)
(3.10347 0.102205 0)
(3.44099 0.202713 0)
(3.73903 0.282078 -1.05829e-17)
(3.90689 0.35748 0)
(3.9934 0.481467 0)
(4.03238 0.559711 0)
(3.90917 0.639234 1.02515e-17)
(3.72546 0.748119 0)
(3.46142 0.787466 1.00853e-17)
(3.0584 0.899632 0)
(2.63669 0.99725 0)
(2.06091 1.07315 9.85499e-18)
(1.41058 1.14815 0)
(0.736854 1.08592 -9.74484e-18)
(0.015543 0.969783 0)
(-0.674824 0.822156 9.57659e-18)
(-1.34765 0.709385 0)
(-1.84734 0.575822 0)
(-2.22276 0.417222 0)
(-2.5512 0.388249 0)
(-2.78357 0.420229 0)
(-2.89127 0.367769 -9.24773e-18)
(-2.93271 0.259604 0)
(-3.01144 0.217877 1.82604e-17)
(-3.06673 0.336911 0)
(-3.1068 0.487249 -1.81145e-17)
(-3.30864 0.466763 0)
(-3.52333 0.342217 0)
(-3.38086 0.090946 1.73746e-17)
(-2.76403 0.0881868 0)
(-2.0215 -0.165402 1.73388e-17)
(-1.64287 -0.954547 -1.74185e-17)
(-1.4957 -1.64936 0)
(-1.35217 -1.65712 -1.72969e-17)
(-1.48085 -0.831677 -1.72553e-17)
(-2.27941 0.218044 0)
(-3.52591 0.835588 0)
(-4.82758 1.00448 0)
(-6.02316 0.967203 0)
(-7.09709 0.867176 0)
(-8.02488 0.751117 1.67226e-17)
(-8.81106 0.628906 0)
(-9.45895 0.515314 -1.64986e-17)
(-9.97936 0.409805 0)
(-10.3808 0.306952 0)
(-10.6741 0.215607 1.61751e-17)
(-10.8516 0.139415 0)
(-10.932 0.0480299 -1.59668e-17)
(-10.9228 -0.0305774 0)
(-10.8259 -0.105216 0)
(-10.6452 -0.175777 0)
(-10.3847 -0.243404 1.55626e-17)
(-10.0492 -0.319182 0)
(-9.63631 -0.384181 0)
(-9.14978 -0.447116 1.52658e-17)
(-8.60027 -0.513526 0)
(-7.999 -0.567204 1.50694e-17)
(-7.34088 -0.621932 0)
(-6.60759 -0.697716 0)
(-5.80739 -0.758111 0)
(-5.01214 -0.779339 -1.46794e-17)
(-4.24283 -0.79812 0)
(-3.44345 -0.828208 0)
(-2.63259 -0.871311 -1.43902e-17)
(-1.82603 -0.892551 -1.4291e-17)
(-0.976392 -0.952241 0)
(-0.152351 -0.951629 -1.409e-17)
(0.593613 -0.971091 0)
(1.41532 -1.03419 -2.77927e-17)
(2.18493 -1.02056 0)
(2.9226 -1.05212 -2.73917e-17)
(3.66738 -1.06531 0)
(4.39402 -1.10221 2.70044e-17)
(5.07102 -1.1356 0)
(5.68482 -1.13004 0)
(6.27819 -1.16038 0)
(6.82567 -1.17084 -2.62734e-17)
(7.32563 -1.18836 0)
(7.79031 -1.21687 2.59294e-17)
(8.2208 -1.21972 0)
(8.59372 -1.25839 -2.55895e-17)
(8.94382 -1.28124 -2.54165e-17)
(9.25615 -1.29855 -2.52402e-17)
(9.54167 -1.32739 0)
(9.79444 -1.3811 0)
(9.99917 -1.42797 0)
(10.1873 -1.46862 0)
(10.3236 -1.50927 0)
(10.4166 -1.54718 0)
(10.4818 -1.58502 0)
(10.5134 -1.62526 0)
(10.4876 -1.65106 2.35337e-17)
(10.4343 -1.68727 2.33326e-17)
(10.3465 -1.7057 0)
(10.1939 -1.71132 0)
(9.90236 -1.70198 0)
(9.50322 -1.71048 2.25207e-17)
(9.00821 -1.72229 0)
(8.45524 -1.73949 0)
(7.8938 -1.76994 0)
(7.29264 -1.81526 0)
(6.74107 -1.88784 -2.15871e-17)
(6.31077 -1.97639 0)
(6.02349 -2.04903 0)
(5.68346 -2.04958 2.1212e-17)
(5.29605 -2.08597 -2.10993e-17)
(5.0342 -2.1776 0)
(5.08839 -2.2303 -2.09936e-17)
(5.45427 -2.20167 0)
(5.72558 -2.14255 2.09363e-17)
(5.61287 -2.14294 0)
(5.26348 -2.11449 0)
(4.73784 -2.06896 0)
(3.79756 -2.02471 0)
(2.77725 -2.0494 0)
(1.71917 -2.06046 -4.05775e-17)
(0.624147 -1.97786 -4.05688e-17)
(-0.422373 -1.93139 0)
(-1.59225 -1.88622 0)
(-2.92282 -1.74128 0)
(-4.57453 -1.53713 4.02397e-17)
(-6.59271 -1.32913 0)
(-8.60441 -1.14096 0)
(-10.2838 -1.09172 0)
(-11.631 -1.07167 3.95836e-17)
(-12.1541 -1.15927 -3.92238e-17)
(-12.6038 -1.03958 0)
(-13.7515 -1.0163 0)
(-11.1609 -1.84507 -3.95195e-17)
(-8.73547 -0.749496 -3.83539e-17)
(-10.1103 -0.771452 0)
(-9.10721 -1.09427 0)
(-6.21087 -1.2302 3.76088e-17)
(-3.94125 -0.778671 -3.72009e-17)
(-3.25933 -0.749106 0)
(-1.33642 -0.925212 0)
(0.604373 -0.689092 -3.64721e-17)
(1.50911 -0.637707 0)
(2.76455 -0.775198 0)
(4.08624 -0.704529 -3.55788e-17)
(4.85335 -0.695159 0)
(6.02044 -0.833794 -3.49728e-17)
(6.74083 -0.652535 0)
(7.52577 -0.780495 0)
(8.57822 -0.832242 0)
(9.12836 -0.691278 3.37083e-17)
(10.0825 -0.79595 0)
(9.94462 -0.673779 0)
(10.7986 -1.15183 0)
(14.4371 -1.54188 0)
(15.8895 -1.10058 0)
(15.4589 -1.32619 0)
(17.5681 -2.11568 3.1496e-17)
(20.819 -1.96451 3.16694e-17)
(21.2395 -1.62815 0)
(18.7058 -1.33276 0)
(15.5744 -1.58407 0)
(13.1774 -2.17438 -3.11989e-17)
(11.7063 -1.53007 0)
(1.53007 -0.193602 6.0221e-17)
(-3.29977 -2.57323 -5.36249e-17)
(1.8487 -3.39787 -5.64979e-17)
(2.00492 -2.0508 5.74614e-17)
(2.46512 -3.16677 -5.57657e-17)
(5.47245 -2.15589 5.63877e-17)
(2.89747 -2.01111 0)
(-0.00180548 2.46485 0)
(-0.193666 2.69453 0)
(-0.444361 2.51215 -2.31135e-17)
(-0.683933 2.07 0)
(-0.68974 1.33255 2.3174e-17)
(-0.469119 0.556191 2.30985e-17)
(-0.0671549 -0.0805811 1.149e-17)
(0.438113 -0.505963 1.14391e-17)
(1.01726 -0.71811 0)
(1.61473 -0.827621 1.1303e-17)
(2.22031 -0.780146 0)
(2.73078 -0.609102 0)
(3.23287 -0.441045 -2.21365e-17)
(3.76935 -0.285398 -1.09854e-17)
(4.06283 0.0168904 2.17813e-17)
(4.47767 0.301077 2.16284e-17)
(4.79428 0.399948 1.07079e-17)
(4.87859 0.829893 0)
(5.16671 0.944755 0)
(5.11208 1.1492 0)
(5.09041 1.57745 1.03427e-17)
(5.10461 1.62046 0)
(4.78656 1.93577 -3.05117e-17)
(4.67247 2.14195 0)
(4.39649 2.1961 0)
(3.98216 2.48686 -9.85216e-18)
(3.76082 2.63405 0)
(3.20779 2.76695 9.71607e-18)
(2.62411 2.93564 1.91694e-17)
(2.16407 2.89144 -9.51922e-18)
(1.39458 2.64303 0)
(0.660314 2.24136 0)
(0.152816 2.03349 0)
(-0.392105 1.82846 1.84849e-17)
(-0.976166 1.3416 1.81895e-17)
(-1.42079 0.962676 8.91929e-18)
(-1.46479 0.938799 0)
(-1.42804 1.04921 -1.78017e-17)
(-1.57852 0.813971 0)
(-1.90276 0.632297 1.72042e-17)
(-1.90153 0.894339 0)
(-1.07363 0.972246 0)
(-0.507505 -0.702657 -1.72324e-17)
(-0.754778 -1.90971 0)
(-1.45462 -0.905883 -5.12464e-17)
(-3.00098 0.788619 1.75566e-17)
(-5.02317 1.78516 0)
(-6.93521 2.28659 1.7517e-17)
(-8.51893 2.59552 1.74025e-17)
(-9.76802 2.75884 0)
(-10.7549 2.72866 0)
(-11.6088 2.52281 0)
(-12.3381 2.23053 0)
(-12.9524 1.9072 0)
(-13.4699 1.57146 -1.67281e-17)
(-13.8785 1.23415 -3.3239e-17)
(-14.1626 0.917677 1.65158e-17)
(-14.3537 0.62199 0)
(-14.4414 0.339316 -3.26145e-17)
(-14.4508 0.0698324 1.62036e-17)
(-14.3827 -0.181705 0)
(-14.2074 -0.427627 1.6005e-17)
(-13.9389 -0.648857 0)
(-13.6196 -0.861968 0)
(-13.2199 -1.07478 3.14024e-17)
(-12.7663 -1.27611 -1.56023e-17)
(-12.2181 -1.47888 3.09994e-17)
(-11.6031 -1.66284 -3.07987e-17)
(-10.9388 -1.84014 -1.53022e-17)
(-10.224 -2.00591 0)
(-9.45381 -2.17121 -1.51042e-17)
(-8.65671 -2.34595 0)
(-7.76976 -2.53629 0)
(-6.82773 -2.63112 0)
(-5.93747 -2.65178 -1.46996e-17)
(-5.06372 -2.71027 0)
(-4.1466 -2.823 -2.9039e-17)
(-3.22441 -2.93399 4.32797e-17)
(-2.34216 -3.0035 1.43287e-17)
(-1.39897 -3.12076 0)
(-0.516461 -3.08049 1.41155e-17)
(0.312338 -3.16089 0)
(1.27504 -3.31588 2.78641e-17)
(2.03883 -3.24447 0)
(2.93988 -3.36162 2.74174e-17)
(3.72086 -3.37525 -5.43382e-17)
(4.54491 -3.44936 -2.6975e-17)
(5.34583 -3.54037 0)
(6.02597 -3.54921 0)
(6.71599 -3.58988 0)
(7.33943 -3.60527 2.61137e-17)
(7.91305 -3.65717 0)
(8.46935 -3.73161 -2.57431e-17)
(8.94946 -3.80033 0)
(9.37149 -3.90075 7.62753e-17)
(9.80544 -3.98159 2.52854e-17)
(10.198 -4.04621 2.51528e-17)
(10.554 -4.10139 0)
(10.8792 -4.17984 0)
(11.2069 -4.25556 0)
(11.4629 -4.29861 0)
(11.5761 -4.34149 0)
(11.6049 -4.44229 4.74786e-17)
(11.562 -4.55822 4.70155e-17)
(11.4788 -4.64959 0)
(11.3245 -4.73069 -2.30004e-17)
(11.16 -4.85717 -2.27637e-17)
(10.9374 -4.94335 0)
(10.673 -4.97854 -4.42543e-17)
(10.3232 -5.01206 0)
(9.9759 -5.11362 2.15608e-17)
(9.59257 -5.22326 0)
(9.18469 -5.34849 0)
(8.79068 -5.42322 -4.21369e-17)
(8.30901 -5.59149 0)
(7.86426 -5.82682 2.1051e-17)
(7.53476 -6.0238 0)
(7.33169 -6.23922 0)
(7.15649 -6.32468 2.08091e-17)
(6.98192 -6.40993 2.0836e-17)
(6.74726 -6.72265 0)
(6.52616 -7.24249 -2.11076e-17)
(6.76998 -7.5712 0)
(7.29957 -7.33932 2.09088e-17)
(7.6558 -6.91241 4.11635e-17)
(7.71217 -6.76474 0)
(7.6139 -6.40474 0)
(7.14731 -6.04495 0)
(6.28075 -5.96582 0)
(4.85414 -5.80437 3.85188e-17)
(3.3097 -5.75864 1.17448e-16)
(1.70186 -5.52766 0)
(-0.471858 -5.07425 0)
(-2.91002 -4.43715 0)
(-5.52858 -3.7229 -3.98438e-17)
(-8.05161 -3.4478 0)
(-10.1937 -3.30487 0)
(-11.8089 -3.47348 7.9646e-17)
(-12.6755 -3.65515 3.92797e-17)
(-12.9587 -3.58722 3.92298e-17)
(-13.3549 -3.32055 0)
(-13.6997 -3.82308 0)
(-12.6221 -6.83024 4.12069e-17)
(-8.31817 -3.02264 -3.79382e-17)
(-10.037 -2.30914 0)
(-9.51277 -3.88126 0)
(-5.75269 -4.91756 -3.8524e-17)
(-1.57922 -2.90141 1.11731e-16)
(-0.932492 -2.6022 0)
(1.19916 -3.52845 0)
(4.47112 -2.63619 3.67439e-17)
(5.77034 -2.10147 0)
(7.44393 -2.48169 7.09106e-17)
(9.29423 -2.03348 -3.4643e-17)
(9.95234 -1.83581 0)
(11.108 -2.23005 3.38872e-17)
(11.1009 -1.7269 6.62778e-17)
(11.3054 -2.15986 0)
(11.712 -2.40889 0)
(11.6753 -2.13105 -3.13607e-17)
(12.6173 -2.51089 0)
(12.1163 -2.13052 6.20889e-17)
(11.948 -4.31506 0)
(16.8148 -5.39297 0)
(18.2472 -3.20138 0)
(16.5177 -3.90658 0)
(19.1719 -6.86173 -2.89666e-17)
(23.3916 -6.06585 -2.88779e-17)
(23.1833 -4.48822 0)
(19.289 -3.90183 0)
(16.2336 -4.78383 0)
(13.1625 -5.44969 2.79991e-17)
(8.50173 -3.35388 0)
(-1.8687 -2.34492 -5.119e-17)
(-2.19791 -8.67177 4.71144e-17)
(-0.641753 -10.2416 5.14342e-17)
(1.75666 -7.25156 4.88472e-17)
(3.28869 -9.87176 5.01787e-17)
(6.91909 -7.55713 4.866e-17)
(5.58547 -6.90826 0)
(0.0272231 3.09279 0)
(0.0437116 3.52295 0)
(-0.00708508 3.45827 2.32622e-17)
(0.0862629 2.79989 2.32928e-17)
(0.399705 1.66165 -2.33187e-17)
(0.854145 0.55633 -2.3234e-17)
(1.39201 -0.293527 -1.59179e-20)
(1.89753 -0.835363 0)
(2.35819 -1.04647 0)
(2.7786 -1.09614 0)
(3.11835 -0.956153 0)
(3.48292 -0.613268 0)
(3.7819 -0.568648 6.69157e-17)
(4.07793 -0.0565914 0)
(4.33764 0.202976 -2.21079e-17)
(4.55539 0.335897 -2.18107e-17)
(4.82756 1.06767 0)
(4.854 1.10534 0)
(5.03326 1.60922 0)
(5.04278 2.09333 0)
(4.87211 2.17323 -2.0977e-17)
(4.94366 2.78109 0)
(4.63671 2.98354 2.05593e-17)
(4.37974 3.09229 0)
(4.3188 3.52318 0)
(3.97366 3.63192 0)
(3.74318 3.86412 3.9403e-17)
(3.6686 4.25575 0)
(3.36902 4.22326 -1.91601e-17)
(2.87676 4.22194 3.8352e-17)
(2.56384 4.31361 0)
(1.99406 3.98847 0)
(1.09254 3.43885 0)
(0.607085 3.2853 -1.85992e-17)
(0.458118 3.29987 -1.84995e-17)
(-0.0389551 2.47463 0)
(-0.869305 1.20604 0)
(-1.42438 1.00843 3.51434e-17)
(-1.19231 2.18883 3.52086e-17)
(-0.624814 2.16891 -3.47628e-17)
(-0.648188 -0.3326 0)
(-0.982515 -1.2527 0)
(-2.52731 0.903322 0)
(-5.2298 2.87343 0)
(-7.3714 3.70161 3.55939e-17)
(-9.03106 4.1584 3.54448e-17)
(-10.3057 4.23279 -3.52388e-17)
(-11.4108 4.16522 0)
(-12.3759 4.07375 0)
(-13.1161 3.95056 0)
(-13.6767 3.6972 0)
(-14.0729 3.32962 3.42219e-17)
(-14.3684 2.89736 0)
(-14.5743 2.41852 0)
(-14.7067 1.93362 3.35969e-17)
(-14.776 1.46181 3.33913e-17)
(-14.7813 1.0072 0)
(-14.74 0.581066 -6.59346e-17)
(-14.6378 0.170483 3.27629e-17)
(-14.4757 -0.228286 -3.25602e-17)
(-14.2498 -0.607987 0)
(-13.9498 -0.962024 0)
(-13.6035 -1.29708 0)
(-13.2054 -1.6185 0)
(-12.7545 -1.9353 -3.1542e-17)
(-12.2381 -2.26374 -6.26609e-17)
(-11.6625 -2.57758 -3.11316e-17)
(-11.0224 -2.88649 3.09275e-17)
(-10.3063 -3.15234 0)
(-9.55645 -3.39146 -6.10291e-17)
(-8.78439 -3.62849 -6.06375e-17)
(-8.01347 -3.90609 -6.02511e-17)
(-7.15402 -4.22432 5.98457e-17)
(-6.23266 -4.39987 0)
(-5.34365 -4.44747 8.84997e-17)
(-4.48655 -4.53317 0)
(-3.5891 -4.71292 -2.91407e-17)
(-2.67672 -4.85528 -2.90038e-17)
(-1.85255 -4.95543 0)
(-0.942767 -5.14753 0)
(-0.140455 -5.13432 -5.69138e-17)
(0.738252 -5.28426 0)
(1.62541 -5.471 -5.62918e-17)
(2.3686 -5.41243 0)
(3.27103 -5.63722 5.55615e-17)
(4.02159 -5.66285 1.10284e-16)
(4.84725 -5.77292 0)
(5.61955 -5.89018 0)
(6.35229 -5.93383 0)
(7.11873 -6.04425 5.33768e-17)
(7.74002 -6.03919 0)
(8.35274 -6.0953 5.23826e-17)
(8.95933 -6.18318 0)
(9.47214 -6.24005 0)
(9.9509 -6.39413 -1.02263e-16)
(10.4015 -6.52854 0)
(10.7727 -6.67192 -5.0283e-17)
(11.0851 -6.86287 0)
(11.3133 -7.03339 -4.99998e-17)
(11.6366 -7.18228 0)
(12.0415 -7.24291 0)
(12.3613 -7.22247 0)
(12.5508 -7.27405 -1.4456e-16)
(12.6139 -7.4234 -4.77878e-17)
(12.6539 -7.5641 0)
(12.5833 -7.67159 0)
(12.4806 -7.84273 0)
(12.2902 -7.99346 0)
(12.0544 -8.10811 4.48019e-17)
(11.7376 -8.1841 -8.82394e-17)
(11.457 -8.39832 -4.37927e-17)
(11.1144 -8.53671 8.59491e-17)
(10.8961 -8.74574 8.46684e-17)
(10.5572 -8.93409 4.20623e-17)
(10.1679 -9.17228 0)
(9.74919 -9.5975 8.61516e-17)
(9.25001 -10.0363 0)
(8.77998 -10.3707 -8.83859e-17)
(8.51831 -10.5498 -4.39856e-17)
(8.36371 -10.6128 0)
(8.14028 -10.7298 8.66252e-17)
(7.67398 -11.3142 4.44711e-17)
(7.39463 -12.1013 0)
(7.50783 -12.1456 4.46544e-17)
(7.91208 -11.6502 -1.31449e-16)
(8.27437 -11.334 0)
(8.3649 -10.856 0)
(7.99046 -10.201 0)
(6.88052 -9.50697 0)
(4.96044 -9.06094 -7.71445e-17)
(3.11186 -8.73967 -7.87104e-17)
(1.18074 -7.94607 0)
(-1.61313 -7.04017 0)
(-4.56466 -6.40039 0)
(-7.16263 -5.77516 0)
(-8.66565 -5.55214 0)
(-9.98201 -5.39514 0)
(-11.1866 -5.96741 -8.03611e-17)
(-11.9479 -6.16944 -5.30352e-19)
(-12.2344 -5.85412 0)
(-11.7594 -5.99891 0)
(-11.226 -5.7509 -7.9979e-17)
(-12.4876 -10.1661 0)
(-8.73188 -5.15872 7.65036e-17)
(-10.0935 -3.4342 7.73396e-17)
(-10.3731 -6.37048 0)
(-8.46685 -9.25249 0)
(-2.26045 -5.45738 -7.58692e-17)
(-1.16747 -4.14496 -1.4891e-16)
(-0.266125 -6.18844 0)
(4.03512 -4.83959 0)
(5.67245 -3.50226 0)
(7.09575 -4.38877 -7.54196e-17)
(10.0671 -3.4761 7.3327e-17)
(11.2713 -2.85443 0)
(13.2061 -3.39292 1.37903e-16)
(13.8051 -2.1863 6.56515e-17)
(14.0391 -2.75307 -1.31965e-16)
(13.8831 -3.28613 0)
(13.2108 -3.19108 0)
(14.4814 -4.23902 -1.18708e-16)
(14.7356 -2.74246 -6.28302e-17)
(12.6147 -6.604 0)
(16.1867 -9.20557 0)
(17.8256 -4.49468 0)
(15.8463 -5.85197 0)
(18.9966 -11.3586 -1.24571e-16)
(23.8605 -9.71332 0)
(23.5196 -6.68913 0)
(19.6909 -5.94272 0)
(16.5875 -7.21913 0)
(12.4157 -7.63215 0)
(7.26475 -4.5658 0)
(-2.04228 -4.51719 -9.69531e-17)
(0.597859 -14.0591 0)
(-0.44775 -15.5673 0)
(1.45181 -12.6824 -2.01465e-16)
(3.54202 -16.6449 1.06763e-16)
(6.46683 -12.7049 -1.03704e-16)
(5.49861 -11.7244 1.00348e-16)
(-0.0138068 3.71083 0)
(-0.0107828 4.11155 -4.75952e-17)
(0.104437 3.83412 0)
(0.558227 2.64552 -2.36189e-17)
(1.16815 1.17158 0)
(1.75845 0.0174195 0)
(2.21688 -0.725065 2.32296e-17)
(2.56874 -1.04086 0)
(2.81901 -1.09721 0)
(3.03503 -0.902077 0)
(3.19389 -0.721939 0)
(3.41086 -0.472855 0)
(3.63488 -0.0442202 -8.99273e-17)
(3.81332 0.0812878 -4.44634e-17)
(4.14072 0.585355 4.43422e-17)
(4.19563 0.842248 0)
(4.47898 1.36235 0)
(4.52811 1.88035 0)
(4.44148 2.11094 0)
(4.63507 2.989 0)
(4.26384 3.09843 -4.21288e-17)
(4.22386 3.6412 -4.17176e-17)
(4.10033 4.28205 4.19614e-17)
(3.47697 4.05315 -4.12157e-17)
(3.469 4.45066 0)
(3.28158 4.64141 0)
(2.77371 4.39572 -3.93495e-17)
(2.7249 4.88969 0)
(2.65769 5.42301 0)
(2.41943 5.29188 -3.72403e-17)
(2.15931 5.45154 -3.77302e-17)
(1.71523 5.87661 -3.81016e-17)
(1.43156 5.23009 0)
(1.09991 3.87002 0)
(0.356308 3.39656 3.68704e-17)
(-0.248248 4.17113 0)
(-0.31246 4.33323 0)
(-0.489811 2.50785 -3.53829e-17)
(-0.674922 0.289328 3.48228e-17)
(-0.918856 0.521659 -3.4603e-17)
(-2.93292 2.79927 0)
(-5.76376 4.54481 0)
(-7.92521 5.40352 -7.19631e-17)
(-9.57329 5.67036 0)
(-10.822 5.78935 -7.15933e-17)
(-11.8808 5.815 -1.06882e-16)
(-12.6808 5.66993 1.06309e-16)
(-13.2844 5.39047 -7.04228e-17)
(-13.7777 5.03672 0)
(-14.1134 4.62582 0)
(-14.3684 4.15905 -6.90653e-17)
(-14.5078 3.6491 -3.4312e-17)
(-14.6101 3.09429 0)
(-14.633 2.51352 0)
(-14.6461 1.93569 -3.36548e-17)
(-14.6005 1.37331 -6.68724e-17)
(-14.5212 0.818297 0)
(-14.4035 0.289364 6.60355e-17)
(-14.2358 -0.212995 -6.56084e-17)
(-14.0444 -0.698455 6.51897e-17)
(-13.8211 -1.17283 0)
(-13.5149 -1.6359 0)
(-13.15 -2.05976 0)
(-12.7381 -2.46573 0)
(-12.2793 -2.86243 0)
(-11.758 -3.27289 6.27697e-17)
(-11.1955 -3.6975 0)
(-10.5561 -4.12901 0)
(-9.85236 -4.50412 0)
(-9.07832 -4.81925 1.22158e-16)
(-8.25795 -5.11131 6.06793e-17)
(-7.43727 -5.43383 6.03006e-17)
(-6.58041 -5.85743 -1.19824e-16)
(-5.67205 -6.1067 5.94362e-17)
(-4.7688 -6.17729 -5.89417e-17)
(-3.88255 -6.27501 0)
(-3.02918 -6.51989 5.81447e-17)
(-2.15115 -6.7062 0)
(-1.3511 -6.82437 0)
(-0.463617 -7.04584 0)
(0.264262 -7.09184 1.13411e-16)
(1.18175 -7.31864 -5.64707e-17)
(1.91066 -7.486 -5.60507e-17)
(2.75071 -7.52035 -1.1164e-16)
(3.55907 -7.76189 -1.66698e-16)
(4.28286 -7.83969 -5.52987e-17)
(5.07541 -8.01209 0)
(5.80529 -8.13732 -1.09214e-16)
(6.50181 -8.18259 0)
(7.26733 -8.38572 -1.61644e-16)
(7.96048 -8.39663 0)
(8.59527 -8.51287 -1.58951e-16)
(9.20213 -8.64883 0)
(9.75186 -8.69043 0)
(10.2383 -8.92446 -5.16544e-17)
(10.7164 -9.08571 0)
(11.1815 -9.06452 5.06005e-17)
(11.5971 -9.19666 1.00172e-16)
(11.7673 -9.47274 5.00335e-17)
(11.8994 -9.88689 9.95215e-17)
(12.096 -10.1179 -9.86447e-17)
(12.3666 -10.1033 -9.73606e-17)
(12.5711 -10.1513 1.92911e-16)
(12.7306 -10.367 0)
(12.9463 -10.5613 0)
(13.0371 -10.6583 9.42742e-17)
(13.1237 -10.8634 -9.32736e-17)
(13.0881 -10.9961 0)
(12.9703 -11.1316 0)
(12.7424 -11.2636 9.01537e-17)
(12.6575 -11.595 0)
(12.3656 -11.9028 -2.29157e-19)
(12.2904 -12.1786 -2.38154e-19)
(12.0373 -12.2748 8.54351e-17)
(11.7101 -12.4819 0)
(11.2586 -13.0054 -8.66987e-17)
(10.6727 -13.4377 0)
(9.83855 -13.9919 8.98572e-17)
(9.2662 -14.5777 0)
(9.09782 -14.7363 0)
(8.69907 -14.7207 -8.84112e-17)
(8.15483 -15.2669 -8.81673e-17)
(7.67364 -16.2347 0)
(7.37473 -16.6068 -9.00796e-17)
(7.79709 -16.4596 1.78603e-16)
(8.39846 -16.1475 0)
(8.58001 -15.2088 0)
(8.04881 -13.7995 0)
(6.63483 -12.4835 0)
(4.58121 -11.8477 7.84632e-17)
(2.52514 -11.5927 -1.56732e-16)
(0.431276 -10.389 0)
(-1.80946 -9.02224 0)
(-3.8637 -8.23628 0)
(-6.15402 -8.16859 0)
(-7.40301 -8.41334 0)
(-8.4006 -7.92921 0)
(-8.67477 -8.24745 0)
(-9.98552 -8.63854 7.78797e-17)
(-10.2955 -8.48297 0)
(-9.12003 -9.18958 0)
(-7.99755 -7.26978 7.87947e-17)
(-9.13744 -12.3268 0)
(-7.94469 -7.79699 0)
(-7.88687 -4.50235 -7.75967e-17)
(-7.74734 -7.7374 0)