/*--------------------------------*- C++ -*----------------------------------*\
| =========                 |                                                 |
| \\      /  F ield         | OpenFOAM: The Open Source CFD Toolbox           |
|  \\    /   O peration     | Version:  dev                                   |
|   \\  /    A nd           | Web:      http://www.openfoam.org               |
|    \\/     M anipulation  |                                                 |
\*---------------------------------------------------------------------------*/
FoamFile
{
    version     2.0;
    format      ascii;
    class       volVectorField;
    object      UMean;
    location    "9.165";
}
// * * * * * * * * * * * * * * * * * * * * * * * * * * * * * * * * * * * * * //

dimensions      [0 1 -1 0 0 0 0];

internalField   nonuniform List<vector> 
12225
(
(7.00354 0.430265 0)
(4.43867 0.192541 0)
(2.55676 0.0311559 0)
(2.51078 -0.0166496 0)
(1.38445 0.0193575 0)
(2.26725 -0.0342702 0)
(0.989432 0.0489755 0)
(2.18253 -0.0591677 0)
(0.797271 0.071651 0)
(2.29172 -0.0978463 0)
(0.688389 0.0993739 0)
(2.74351 -0.138635 0)
(0.947587 0.102613 0)
(3.39692 -0.172145 0)
(3.53005 -0.168422 0)
(4.69522 0.0499714 0)
(14.842 -2.43366 0)
(7.1175 5.13276 0)
(9.54626 0.981577 0)
(9.54317 0.860833 0)
(6.68679 0.466273 0)
(7.59026 0.21454 0)
(4.09067 0.140322 0)
(6.84296 0.010844 0)
(2.66504 0.132641 0)
(6.68906 -0.0902847 0)
(1.82222 0.141849 0)
(7.03895 -0.165039 0)
(1.26001 0.123919 0)
(8.12142 -0.414378 0)
(1.38445 0.252432 0)
(9.95454 -1.44216 0)
(3.43387 0.27226 0)
(12.3875 -4.06771 0)
(10.4251 -1.92686 0)
(7.77292 0.48367 0)
(9.11855 0.763586 0)
(12.1666 0.951382 0)
(8.32957 0.623996 0)
(11.8318 0.443363 0)
(6.22621 0.310338 0)
(11.4128 0.206524 0)
(4.58284 0.221509 0)
(11.3148 -0.0193866 0)
(3.87385 0.192947 0)
(11.3763 -0.27774 0)
(4.34981 0.187293 0)
(11.2527 -0.72312 0)
(5.72786 0.176079 0)
(11.0898 -1.49162 0)
(7.21429 0.0529876 0)
(12.1156 -3.86556 0)
(6.93356 0.351007 0)
(9.35167 -2.39258 0)
(7.21911 0.525016 0)
(13.9928 0.960931 0)
(7.93 0.609527 0)
(14.2951 0.553783 0)
(7.47464 0.420971 0)
(14.1162 0.271103 0)
(7.17601 0.396726 0)
(13.7383 -0.144941 0)
(7.25691 0.459632 0)
(13.2695 -0.698552 0)
(7.65934 0.576855 0)
(12.8742 -1.42263 0)
(8.26652 0.699638 0)
(12.6504 -2.31331 0)
(9.02296 0.0428706 0)
(11.8865 -3.63766 0)
(8.68633 -1.43097 0)
(8.36295 0.681005 0)
(6.42456 0.570159 0)
(14.0102 0.565804 0)
(8.47402 0.674596 0)
(13.9573 0.284465 0)
(9.16989 0.636804 0)
(13.6426 -0.00252953 0)
(9.51768 0.657936 0)
(13.213 -0.388545 0)
(9.59264 0.734439 0)
(12.812 -0.871095 0)
(9.44613 0.876971 0)
(12.5813 -1.52114 0)
(9.15015 1.09012 0)
(12.5689 -2.48971 0)
(8.82754 1.13295 0)
(11.6152 -5.02798 0)
(8.54219 1.26785 0)
(8.72091 0.124862 0)
(7.95747 0.617039 0)
(11.8019 0.152266 0)
(9.50567 0.654912 0)
(11.7382 0.0501288 0)
(10.0886 0.694068 0)
(11.5992 -0.165712 0)
(10.3209 0.726003 0)
(11.4751 -0.457539 0)
(10.3008 0.783238 0)
(11.3884 -0.853593 0)
(10.0332 0.832372 0)
(11.3542 -1.40013 0)
(9.49305 0.801828 0)
(11.4169 -2.13851 0)
(8.80179 0.726897 0)
(10.9975 -3.91994 0)
(7.73361 1.33733 0)
(9.48856 -0.219547 0)
(9.34483 0.812836 0)
(10.4382 -0.265981 0)
(10.1412 0.930724 0)
(10.5533 -0.30459 0)
(10.3991 1.02016 0)
(10.5813 -0.502919 0)
(10.5205 1.0757 0)
(10.6249 -0.781156 0)
(10.5639 1.1537 0)
(10.6713 -1.15762 0)
(10.516 1.23549 0)
(10.6996 -1.63542 0)
(10.3676 1.26157 0)
(10.6878 -2.3268 0)
(10.0538 1.27155 0)
(10.3759 -3.95284 0)
(8.29965 2.01887 0)
(9.69699 -0.952928 0)
(9.84936 0.701327 0)
(10.1558 -0.326026 0)
(10.4067 0.855358 0)
(10.3897 -0.350013 0)
(10.5804 0.907149 0)
(10.4705 -0.494104 0)
(10.7017 0.893303 0)
(10.5519 -0.686379 0)
(10.8054 0.873065 0)
(10.6438 -0.935248 0)
(10.881 0.824214 0)
(10.7353 -1.23262 0)
(10.9079 0.671789 0)
(10.7538 -1.67231 0)
(10.7228 0.520106 0)
(10.4925 -2.47301 0)
(8.89431 0.980542 0)
(9.96396 -0.48387 0)
(10.0858 0.802397 0)
(10.0196 -0.58342 0)
(10.5355 1.02174 0)
(10.3106 -0.60455 0)
(10.6751 1.07526 0)
(10.4399 -0.724993 0)
(10.7775 1.04848 0)
(10.5707 -0.889996 0)
(10.8572 1.00392 0)
(10.7112 -1.11761 0)
(10.8987 0.921356 0)
(10.8316 -1.39466 0)
(10.8738 0.735048 0)
(10.822 -1.7604 0)
(10.6019 0.506021 0)
(10.5205 -2.06785 0)
(9.35039 0.586422 0)
(10.0234 -0.391414 0)
(10.1391 0.648798 0)
(10.0423 -0.512013 0)
(10.5102 0.878335 0)
(10.3335 -0.456599 0)
(10.6213 0.869497 0)
(10.482 -0.493737 0)
(10.6978 0.778557 0)
(10.629 -0.572191 0)
(10.7341 0.658202 0)
(10.7635 -0.695339 0)
(10.7178 0.495868 0)
(10.84 -0.844887 0)
(10.6181 0.264436 0)
(10.7653 -1.03187 0)
(10.2823 0.070599 0)
(10.4793 -1.05223 0)
(9.62368 0.1242 0)
(10.2069 -0.0326261 0)
(10.141 0.700134 0)
(10.0706 -0.691838 0)
(10.4525 0.902749 0)
(10.2985 -0.618851 0)
(10.5374 0.847839 0)
(10.4302 -0.645445 0)
(10.6032 0.73549 0)
(10.5606 -0.707256 0)
(10.6271 0.587004 0)
(10.6603 -0.791055 0)
(10.6091 0.383425 0)
(10.6811 -0.869031 0)
(10.5267 0.117459 0)
(10.5708 -0.921721 0)
(10.2914 -0.11332 0)
(10.3609 -0.76457 0)
(10.0199 -0.15374 0)
(10.2455 -0.125013 0)
(10.0968 0.468111 0)
(10.1509 -0.495056 0)
(10.3536 0.59594 0)
(10.2934 -0.374558 0)
(10.4203 0.52771 0)
(10.4093 -0.354711 0)
(10.4847 0.41907 0)
(10.5238 -0.374066 0)
(10.5131 0.275947 0)
(10.5992 -0.414489 0)
(10.5156 0.0935967 0)
(10.5969 -0.461423 0)
(10.4766 -0.102954 0)
(10.4995 -0.499771 0)
(10.3571 -0.231722 0)
(10.3646 -0.405199 0)
(10.2659 -0.219448 0)
(10.3738 -0.109907 0)
(10.0501 0.411074 0)
(10.1754 -0.487076 0)
(10.2548 0.437326 0)
(10.2379 -0.367296 0)
(10.3087 0.367492 0)
(10.3306 -0.34534 0)
(10.3792 0.251007 0)
(10.4245 -0.355023 0)
(10.4225 0.0996792 0)
(10.4821 -0.374598 0)
(10.4461 -0.0794218 0)
(10.4816 -0.4031 0)
(10.4328 -0.246309 0)
(10.426 -0.430868 0)
(10.3771 -0.338775 0)
(10.3685 -0.392202 0)
(10.357 -0.320093 0)
(10.4222 -0.276076 0)
(10.0153 0.199691 0)
(10.1907 -0.285616 0)
(10.1931 0.167423 0)
(10.2051 -0.179103 0)
(10.2292 0.131781 0)
(10.2791 -0.171143 0)
(10.3061 0.0473829 0)
(10.3625 -0.19754 0)
(10.3659 -0.0585054 0)
(10.414 -0.235475 0)
(10.4053 -0.175746 0)
(10.4265 -0.286133 0)
(10.4122 -0.274661 0)
(10.4111 -0.331294 0)
(10.3993 -0.323738 0)
(10.4064 -0.336774 0)
(10.4107 -0.315591 0)
(10.4696 -0.304379 0)
(9.99665 0.0971583 0)
(10.1445 -0.185664 0)
(10.1463 0.0217699 0)
(10.1501 -0.133445 0)
(10.1622 -0.0084721 0)
(10.2089 -0.145909 0)
(10.241 -0.0767623 0)
(10.2918 -0.186467 0)
(10.3109 -0.159149 0)
(10.3485 -0.237671 0)
(10.3574 -0.244489 0)
(10.379 -0.297972 0)
(10.3804 -0.315923 0)
(10.3937 -0.349682 0)
(10.3958 -0.360604 0)
(10.4184 -0.379742 0)
(10.4237 -0.380579 0)
(10.4787 -0.386739 0)
(9.99363 0.0155201 0)
(10.1059 -0.0856706 0)
(10.1088 -0.0442087 0)
(10.1137 -0.0931016 0)
(10.1187 -0.0747424 0)
(10.1674 -0.118763 0)
(10.1979 -0.120429 0)
(10.2517 -0.163629 0)
(10.2739 -0.180351 0)
(10.3152 -0.218914 0)
(10.3277 -0.243661 0)
(10.3596 -0.277522 0)
(10.3657 -0.301011 0)
(10.3937 -0.328649 0)
(10.3993 -0.346611 0)
(10.4326 -0.370391 0)
(10.4354 -0.383353 0)
(10.4881 -0.396544 0)
(9.99173 0.00476627 0)
(10.0635 -0.0251038 0)
(10.0567 -0.0348457 0)
(10.0678 -0.066381 0)
(10.0778 -0.0756152 0)
(10.1279 -0.0996458 0)
(10.1572 -0.115801 0)
(10.2109 -0.144538 0)
(10.2336 -0.168784 0)
(10.278 -0.199359 0)
(10.2919 -0.226323 0)
(10.3299 -0.256772 0)
(10.3383 -0.283027 0)
(10.3729 -0.311734 0)
(10.3787 -0.336457 0)
(10.415 -0.365162 0)
(10.4144 -0.387652 0)
(10.4632 -0.407043 0)
(9.99152 0.0141254 0)
(10.0466 0.0161037 0)
(10.0398 -0.0106082 0)
(10.0575 -0.0376959 0)
(10.0748 -0.0565276 0)
(10.1254 -0.0778257 0)
(10.1553 -0.0988089 0)
(10.207 -0.12374 0)
(10.231 -0.14888 0)
(10.2753 -0.17649 0)
(10.291 -0.203263 0)
(10.3291 -0.231964 0)
(10.3393 -0.259143 0)
(10.3735 -0.28806 0)
(10.38 -0.315359 0)
(10.4139 -0.345398 0)
(10.4131 -0.371231 0)
(10.4565 -0.393022 0)
(9.99172 0.0328266 0)
(10.0502 0.0494918 0)
(10.0566 0.00981952 0)
(10.0799 -0.0181657 0)
(10.1007 -0.0402981 0)
(10.1506 -0.0615103 0)
(10.1819 -0.0836097 0)
(10.2315 -0.106379 0)
(10.2562 -0.130487 0)
(10.2984 -0.155419 0)
(10.315 -0.180953 0)
(10.3507 -0.207174 0)
(10.3614 -0.233379 0)
(10.3926 -0.260206 0)
(10.399 -0.286797 0)
(10.4287 -0.315026 0)
(10.4281 -0.340734 0)
(10.4652 -0.362484 0)
(9.98988 0.0405965 0)
(10.0546 0.0524754 0)
(10.0827 -0.00646892 0)
(10.1166 -0.0407709 0)
(10.1419 -0.0641873 0)
(10.1903 -0.0823113 0)
(10.2223 -0.10211 0)
(10.2689 -0.120995 0)
(10.2934 -0.142703 0)
(10.3319 -0.163919 0)
(10.3482 -0.187303 0)
(10.3801 -0.209964 0)
(10.3904 -0.234241 0)
(10.4173 -0.257734 0)
(10.4228 -0.282573 0)
(10.4473 -0.307582 0)
(10.4461 -0.33219 0)
(10.4767 -0.352558 0)
(9.99054 0.0314847 0)
(10.0684 0.021827 0)
(10.1261 -0.0558839 0)
(10.1769 -0.0968701 0)
(10.2125 -0.119866 0)
(10.2609 -0.132799 0)
(10.2937 -0.147799 0)
(10.336 -0.161651 0)
(10.3601 -0.179794 0)
(10.3941 -0.196852 0)
(10.4103 -0.217265 0)
(10.4377 -0.236121 0)
(10.4478 -0.257836 0)
(10.4702 -0.277876 0)
(10.4754 -0.300528 0)
(10.4946 -0.322127 0)
(10.494 -0.344957 0)
(10.5187 -0.363216 0)
(9.99118 0.00975732 0)
(10.0919 -0.029904 0)
(10.1869 -0.120982 0)
(10.2594 -0.162885 0)
(10.3092 -0.181205 0)
(10.3589 -0.187207 0)
(10.3928 -0.196048 0)
(10.4304 -0.204351 0)
(10.4542 -0.218059 0)
(10.4836 -0.230671 0)
(10.5001 -0.247501 0)
(10.5232 -0.262502 0)
(10.5337 -0.281181 0)
(10.5517 -0.297841 0)
(10.5572 -0.31787 0)
(10.5719 -0.336183 0)
(10.5723 -0.35674 0)
(10.592 -0.372856 0)
(9.99283 -0.0234766 0)
(10.1275 -0.103779 0)
(10.267 -0.205053 0)
(10.3664 -0.241688 0)
(10.4319 -0.250868 0)
(10.4835 -0.248414 0)
(10.5183 -0.25089 0)
(10.5517 -0.253659 0)
(10.5753 -0.262908 0)
(10.6011 -0.27124 0)
(10.6181 -0.284542 0)
(10.6378 -0.296134 0)
(10.6487 -0.311918 0)
(10.6632 -0.325649 0)
(10.6692 -0.343158 0)
(10.6801 -0.358585 0)
(10.6814 -0.37688 0)
(10.6969 -0.391004 0)
(9.99044 -0.0716574 0)
(10.1743 -0.201291 0)
(10.3677 -0.305552 0)
(10.4999 -0.327924 0)
(10.5804 -0.322585 0)
(10.6342 -0.310178 0)
(10.6689 -0.305528 0)
(10.6996 -0.302498 0)
(10.7225 -0.306611 0)
(10.7459 -0.310464 0)
(10.7623 -0.319759 0)
(10.7793 -0.327879 0)
(10.7894 -0.340387 0)
(10.8006 -0.351142 0)
(10.8055 -0.365711 0)
(10.8124 -0.378251 0)
(10.8122 -0.393791 0)
(10.8222 -0.405724 0)
(9.99201 -0.136445 0)
(10.2446 -0.323135 0)
(10.5025 -0.419101 0)
(10.671 -0.417687 0)
(10.7626 -0.39418 0)
(10.8174 -0.371074 0)
(10.8493 -0.358876 0)
(10.8771 -0.350496 0)
(10.8959 -0.349981 0)
(10.9148 -0.350353 0)
(10.9253 -0.356212 0)
(10.9355 -0.361324 0)
(10.9375 -0.3706 0)
(10.9394 -0.378446 0)
(10.934 -0.389622 0)
(10.9292 -0.399189 0)
(10.9165 -0.411093 0)
(10.9117 -0.420227 0)
(9.98973 -0.219962 0)
(10.3368 -0.468209 0)
(10.6735 -0.539789 0)
(10.8756 -0.508224 0)
(10.9696 -0.464804 0)
(11.0133 -0.427985 0)
(11.0284 -0.404708 0)
(11.0351 -0.388261 0)
(11.029 -0.38127 0)
(11.0194 -0.376801 0)
(10.998 -0.37799 0)
(10.9736 -0.378882 0)
(10.9378 -0.383588 0)
(10.9001 -0.387054 0)
(10.8525 -0.393406 0)
(10.8045 -0.39872 0)
(10.7465 -0.405028 0)
(10.6949 -0.409793 0)
(9.9833 -0.332135 0)
(10.4675 -0.642392 0)
(10.8827 -0.667148 0)
(11.0723 -0.602625 0)
(11.1029 -0.537143 0)
(11.0583 -0.483052 0)
(10.9743 -0.444895 0)
(10.8732 -0.41612 0)
(10.7579 -0.397887 0)
(10.6352 -0.383137 0)
(10.5038 -0.374738 0)
(10.367 -0.366172 0)
(10.2247 -0.362279 0)
(10.0781 -0.356824 0)
(9.92944 -0.355671 0)
(9.77799 -0.353077 0)
(9.62694 -0.352773 0)
(9.47716 -0.350933 0)
(10.0025 -0.453682 0)
(10.6189 -0.818983 0)
(10.9015 -0.752051 0)
(10.7932 -0.623688 0)
(10.4938 -0.512472 0)
(10.1378 -0.429124 0)
(9.77037 -0.373489 0)
(9.41796 -0.33464 0)
(9.07729 -0.307206 0)
(8.75608 -0.28452 0)
(8.44724 -0.267562 0)
(8.15429 -0.251241 0)
(7.8737 -0.239952 0)
(7.60426 -0.227253 0)
(7.34961 -0.22105 0)
(7.10022 -0.211743 0)
(6.87194 -0.210771 0)
(6.64265 -0.204096 0)
(10.0974 -0.750796 0)
(10.0458 -1.01321 0)
(9.42486 -0.801056 0)
(8.51449 -0.572138 0)
(7.65518 -0.378699 0)
(6.92915 -0.244868 0)
(6.32771 -0.167502 0)
(5.83211 -0.126231 0)
(5.40982 -0.104681 0)
(5.04935 -0.0922992 0)
(4.72938 -0.0849399 0)
(4.44875 -0.0793288 0)
(4.19246 -0.0757874 0)
(3.96366 -0.0718717 0)
(3.75205 -0.0721183 0)
(3.55695 -0.0690654 0)
(3.38482 -0.0802462 0)
(3.21997 -0.0828426 0)
(8.5167 -0.436078 0)
(6.11016 -0.38089 0)
(4.2983 -0.138044 0)
(3.12396 -0.0213826 0)
(2.48126 0.0191352 0)
(2.12068 0.0224757 0)
(1.8965 0.0137191 0)
(1.73523 0.00461876 0)
(1.59925 -0.00156532 0)
(1.47857 -0.0047883 0)
(1.36652 -0.00640191 0)
(1.26441 -0.00671567 0)
(1.16878 -0.0067045 0)
(1.08209 -0.00638612 0)
(1.0001 -0.00665405 0)
(0.919894 -0.00702885 0)
(0.852415 -0.018603 0)
(0.731941 -0.00612624 0)
(-0.0520201 0.137921 0)
(-0.157086 0.0715652 0)
(-0.20714 0.0165623 0)
(-0.195359 -0.0442659 0)
(-0.118129 -0.0990236 0)
(0.0120666 -0.1451 0)
(0.186164 -0.175681 1.11359e-17)
(0.387974 -0.193673 -1.10609e-17)
(0.606288 -0.198084 0)
(0.828762 -0.192832 -1.09177e-17)
(1.04602 -0.178494 0)
(1.24907 -0.15773 0)
(1.43136 -0.131095 0)
(1.58762 -0.101733 1.06431e-17)
(1.71522 -0.0704775 0)
(1.81138 -0.0384056 0)
(1.8752 -0.00626145 -1.04459e-17)
(1.9074 0.0239988 0)
(1.90965 0.0504754 0)
(1.88403 0.0722262 0)
(1.83422 0.0892189 1.01965e-17)
(1.76279 0.100788 0)
(1.67364 0.108656 1.00745e-17)
(1.56847 0.111554 0)
(1.45193 0.109661 0)
(1.32674 0.108017 9.89581e-18)
(1.19317 0.111305 0)
(1.05046 0.1164 -9.77948e-18)
(0.901826 0.121598 0)
(0.747869 0.126603 9.6646e-18)
(0.590144 0.130576 0)
(0.430916 0.133018 0)
(0.272445 0.134174 0)
(0.115191 0.133953 0)
(-0.0405483 0.131075 0)
(-0.19271 0.126435 -9.32977e-18)
(-0.339669 0.120389 0)
(-0.481007 0.113962 1.84408e-17)
(-0.615275 0.107539 0)
(-0.742042 0.100351 -1.82218e-17)
(-0.859792 0.0932938 0)
(-0.96868 0.0864775 0)
(-1.06916 0.07868 1.78885e-17)
(-1.16083 0.070326 0)
(-1.24431 0.0626876 1.76653e-17)
(-1.31971 0.055579 -1.75533e-17)
(-1.38649 0.0486125 0)
(-1.44535 0.0424173 -1.73283e-17)
(-1.49732 0.0369581 -1.72153e-17)
(-1.54143 0.0332139 0)
(-1.57786 0.0316021 0)
(-1.60851 0.0315835 0)
(-1.63549 0.0317081 0)
(-1.65979 0.0317015 0)
(-1.68284 0.0325517 1.65282e-17)
(-1.70651 0.0340735 0)
(-1.73218 0.0362798 -1.6299e-17)
(-1.75864 0.0383343 0)
(-1.78463 0.0389401 0)
(-1.81016 0.0394966 1.59526e-17)
(-1.83589 0.0412019 0)
(-1.8635 0.0423665 -1.57212e-17)
(-1.89304 0.0439877 0)
(-1.92421 0.0454183 0)
(-1.95653 0.0461634 0)
(-1.98936 0.0472776 1.52556e-17)
(-2.02269 0.0492278 0)
(-2.0566 0.0514863 0)
(-2.09119 0.0538719 1.4906e-17)
(-2.12675 0.0551985 0)
(-2.1605 0.0554385 1.46713e-17)
(-2.19134 0.0561162 0)
(-2.2194 0.0566917 0)
(-2.2435 0.0566989 0)
(-2.26239 0.0561165 -1.42054e-17)
(-2.27545 0.0549124 0)
(-2.28325 0.0541497 0)
(-2.28766 0.0540456 -1.38616e-17)
(-2.28907 0.0530394 -1.37482e-17)
(-2.2858 0.0513602 0)
(-2.27606 0.0490626 -1.35229e-17)
(-2.25974 0.0461219 0)
(-2.23643 0.0429411 -2.66029e-17)
(-2.20616 0.0394919 0)
(-2.16946 0.0358011 -2.61675e-17)
(-2.12616 0.0327267 0)
(-2.07733 0.0303018 2.57388e-17)
(-2.02381 0.028328 0)
(-1.96573 0.026897 0)
(-1.90372 0.025927 0)
(-1.83934 0.0253407 -2.49017e-17)
(-1.77233 0.0250755 0)
(-1.70432 0.0250311 2.45e-17)
(-1.63533 0.0256096 0)
(-1.56605 0.026629 -2.41107e-17)
(-1.49841 0.0291171 -2.39221e-17)
(-1.43162 0.0302733 -2.37377e-17)
(-1.36466 0.0313222 0)
(-1.29948 0.0313402 0)
(-1.23494 0.0325217 0)
(-1.16933 0.0333766 0)
(-1.10466 0.033015 0)
(-1.035 0.0318767 0)
(-0.966354 0.0331507 0)
(-0.895536 0.032756 0)
(-0.82848 0.0351419 2.22137e-17)
(-0.761006 0.0356036 2.20614e-17)
(-0.698469 0.0399554 0)
(-0.637687 0.0412883 0)
(-0.581718 0.0409365 0)
(-0.513821 0.038314 2.14808e-17)
(-0.451145 0.0425277 0)
(-0.382364 0.0408557 0)
(-0.317484 0.0437262 0)
(-0.24673 0.040747 0)
(-0.173822 0.0430967 -2.08064e-17)
(-0.0985477 0.0445799 0)
(-0.0173412 0.0435051 0)
(0.0680556 0.0449365 2.04292e-17)
(0.157021 0.0448019 -2.03077e-17)
(0.249289 0.0441493 0)
(0.345199 0.0481601 -2.0075e-17)
(0.436945 0.0511801 0)
(0.529083 0.0549384 1.98485e-17)
(0.609905 0.0595541 0)
(0.681034 0.062472 0)
(0.755893 0.0626414 0)
(0.825403 0.0633463 0)
(0.904983 0.0604207 0)
(0.979105 0.060929 -3.83961e-17)
(1.05487 0.0624552 -3.8177e-17)
(1.11567 0.0671718 0)
(1.16642 0.0663782 0)
(1.21129 0.0677173 0)
(1.24804 0.0636602 3.72526e-17)
(1.29575 0.058876 0)
(1.345 0.0572163 0)
(1.38992 0.0560786 0)
(1.43836 0.0538784 3.62326e-17)
(1.47764 0.0560076 -3.59647e-17)
(1.52215 0.0527733 0)
(1.56068 0.0528021 0)
(1.60222 0.0532022 -3.51499e-17)
(1.62845 0.05832 -3.48768e-17)
(1.65809 0.0549655 0)
(1.68676 0.0586784 0)
(1.72601 0.0556941 3.40435e-17)
(1.76277 0.0659548 -3.3764e-17)
(1.77093 0.0713383 0)
(1.78463 0.0707429 0)
(1.80961 0.0711217 -3.29272e-17)
(1.84278 0.0758257 0)
(1.85614 0.0834112 0)
(1.86706 0.0890977 -3.20829e-17)
(1.8662 0.0932209 0)
(1.88061 0.0980426 -3.15223e-17)
(1.88309 0.105049 0)
(1.88914 0.109167 0)
(1.87645 0.120796 0)
(1.86276 0.126725 3.04332e-17)
(1.84687 0.133137 0)
(1.81487 0.142894 0)
(1.74238 0.154605 0)
(1.66483 0.15478 0)
(1.59809 0.157259 0)
(1.50719 0.165961 0)
(1.38027 0.172299 2.88921e-17)
(1.26236 0.173924 2.87379e-17)
(1.07744 0.182155 0)
(0.871974 0.184514 0)
(0.629451 0.183671 0)
(0.413935 0.170013 -2.83201e-17)
(0.191489 0.163022 0)
(0.0397194 0.14667 5.6344e-17)
(-0.158833 0.143748 -5.62341e-17)
(-0.259066 0.123581 -5.60553e-17)
(-0.42002 0.12685 5.59513e-17)
(-0.453805 0.0965872 -5.57486e-17)
(-0.610693 0.129686 5.57295e-17)
(-0.561434 -0.00337299 0)
(0.010087 0.249022 0)
(0.0143113 0.192387 0)
(0.0492199 0.0080938 -2.27971e-17)
(0.120417 -0.198108 0)
(0.235276 -0.384195 2.23662e-17)
(0.387573 -0.535673 2.22196e-17)
(0.568782 -0.644624 1.10444e-17)
(0.768734 -0.710624 1.0982e-17)
(0.976152 -0.737268 0)
(1.18043 -0.731006 1.08549e-17)
(1.37295 -0.695157 0)
(1.54639 -0.636852 0)
(1.6968 -0.562233 -2.13212e-17)
(1.81942 -0.477824 -1.05954e-17)
(1.91421 -0.385931 2.10566e-17)
(1.97937 -0.291389 2.09231e-17)
(2.01624 -0.199019 1.03959e-17)
(2.02494 -0.110925 0)
(2.00791 -0.0279132 0)
(1.96513 0.0467568 0)
(1.9004 0.1122 1.01368e-17)
(1.81379 0.171356 0)
(1.70994 0.224312 -3.0038e-17)
(1.58769 0.267191 0)
(1.44937 0.302208 0)
(1.29552 0.332816 -9.83205e-18)
(1.12963 0.356808 0)
(0.954471 0.374108 9.71566e-18)
(0.773859 0.385137 1.93129e-17)
(0.588707 0.392344 -9.59767e-18)
(0.401805 0.394364 0)
(0.214415 0.390524 0)
(0.0261954 0.38324 0)
(-0.162394 0.376302 1.87312e-17)
(-0.349564 0.367773 1.86167e-17)
(-0.534003 0.355603 9.25135e-18)
(-0.712965 0.34094 0)
(-0.886983 0.323936 -1.82764e-17)
(-1.05207 0.303462 0)
(-1.21054 0.281619 1.8051e-17)
(-1.36077 0.259166 0)
(-1.50444 0.236418 0)
(-1.64002 0.216134 -1.77169e-17)
(-1.76838 0.197247 0)
(-1.89192 0.179447 -5.24875e-17)
(-2.00968 0.160705 1.7386e-17)
(-2.12074 0.141736 0)
(-2.22473 0.124714 1.71658e-17)
(-2.32258 0.106929 1.70555e-17)
(-2.41304 0.0871898 0)
(-2.49421 0.0680665 0)
(-2.56822 0.053332 0)
(-2.63694 0.0435917 0)
(-2.7023 0.0384192 0)
(-2.76367 0.0368626 -1.63739e-17)
(-2.82315 0.0363817 -3.25156e-17)
(-2.88098 0.0365443 1.61416e-17)
(-2.93455 0.0341066 0)
(-2.98566 0.0302139 -3.18134e-17)
(-3.03472 0.0289515 1.57877e-17)
(-3.08105 0.0297947 0)
(-3.12814 0.0303811 1.55501e-17)
(-3.17316 0.0327913 0)
(-3.21588 0.0338647 0)
(-3.25683 0.0328965 3.03757e-17)
(-3.29655 0.0319278 -1.50676e-17)
(-3.33189 0.0298246 2.98924e-17)
(-3.36479 0.0269931 -2.96511e-17)
(-3.39238 0.0239933 -1.4705e-17)
(-3.41701 0.0201512 0)
(-3.43559 0.0131185 -1.44633e-17)
(-3.44719 0.00328686 0)
(-3.45316 -0.00714569 0)
(-3.45075 -0.0194973 0)
(-3.43918 -0.0336195 -1.39835e-17)
(-3.41942 -0.047619 0)
(-3.39313 -0.0578372 -2.74962e-17)
(-3.36103 -0.0651161 4.08959e-17)
(-3.32351 -0.0737945 1.35168e-17)
(-3.27972 -0.084971 0)
(-3.22793 -0.0977654 1.32884e-17)
(-3.17088 -0.110468 0)
(-3.10814 -0.122574 2.61253e-17)
(-3.04027 -0.133587 0)
(-2.96734 -0.1441 2.56823e-17)
(-2.88932 -0.153488 -5.09247e-17)
(-2.80734 -0.162399 -2.52484e-17)
(-2.72296 -0.170353 0)
(-2.63362 -0.177843 0)
(-2.54206 -0.183434 0)
(-2.44837 -0.187598 2.44082e-17)
(-2.35136 -0.191606 0)
(-2.25318 -0.194272 -2.4002e-17)
(-2.15502 -0.194632 0)
(-2.05634 -0.196198 7.0825e-17)
(-1.95767 -0.195545 2.34183e-17)
(-1.85841 -0.19657 2.32323e-17)
(-1.76123 -0.193859 0)
(-1.66659 -0.19316 0)
(-1.57137 -0.193885 0)
(-1.47361 -0.19459 0)
(-1.3769 -0.197009 0)
(-1.27449 -0.201331 4.43246e-17)
(-1.17848 -0.199439 4.39884e-17)
(-1.07903 -0.199662 0)
(-0.991721 -0.194187 -2.16765e-17)
(-0.895524 -0.195211 -2.15243e-17)
(-0.808509 -0.188506 0)
(-0.713985 -0.187461 -4.24457e-17)
(-0.635255 -0.187049 0)
(-0.538444 -0.197315 2.09386e-17)
(-0.452059 -0.191171 0)
(-0.346534 -0.199139 0)
(-0.251879 -0.195938 -4.10593e-17)
(-0.138569 -0.204565 0)
(-0.0342492 -0.205072 2.0273e-17)
(0.0913074 -0.213123 0)
(0.218391 -0.220842 0)
(0.354553 -0.224773 1.98876e-17)
(0.495372 -0.229426 1.97712e-17)
(0.640969 -0.23456 0)
(0.789848 -0.234952 -1.95338e-17)
(0.949112 -0.236526 0)
(1.1083 -0.227228 1.9297e-17)
(1.27157 -0.218078 3.83636e-17)
(1.41955 -0.212215 0)
(1.57647 -0.213747 0)
(1.7219 -0.21396 0)
(1.88157 -0.215719 0)
(2.02908 -0.210782 3.7231e-17)
(2.18359 -0.207517 1.11008e-16)
(2.32028 -0.188749 0)
(2.44426 -0.183197 0)
(2.56333 -0.172268 0)
(2.66808 -0.173943 -3.60803e-17)
(2.76993 -0.178395 0)
(2.8704 -0.178159 0)
(2.9652 -0.17677 7.06173e-17)
(3.05864 -0.177182 3.50347e-17)
(3.1346 -0.172836 3.47661e-17)
(3.22302 -0.17991 0)
(3.28718 -0.173682 0)
(3.35503 -0.175243 3.39212e-17)
(3.40225 -0.164052 -3.36149e-17)
(3.44734 -0.178244 0)
(3.4774 -0.175175 0)
(3.5116 -0.191328 -3.2722e-17)
(3.54057 -0.173363 9.71885e-17)
(3.55485 -0.168882 0)
(3.56565 -0.179684 0)
(3.57645 -0.191124 3.14595e-17)
(3.59671 -0.189196 0)
(3.59195 -0.18238 6.1625e-17)
(3.58894 -0.18058 -3.0471e-17)
(3.56107 -0.185305 0)
(3.55735 -0.194718 2.98439e-17)
(3.53352 -0.191197 5.90526e-17)
(3.52256 -0.192623 0)
(3.47627 -0.18548 0)
(3.45242 -0.193805 -2.85731e-17)
(3.41066 -0.185903 0)
(3.3527 -0.168986 5.5886e-17)
(3.25386 -0.149353 0)
(3.16013 -0.154122 0)
(3.03913 -0.146058 0)
(2.90982 -0.121915 0)
(2.71646 -0.103754 -2.66524e-17)
(2.55826 -0.0762686 -2.6463e-17)
(2.27409 -0.0269458 0)
(2.0038 -0.00276175 0)
(1.67444 0.0220189 0)
(1.38067 0.0184355 2.59576e-17)
(1.04633 0.0230737 0)
(0.840171 0.0128527 -5.16669e-17)
(0.522692 0.0307573 5.16401e-17)
(0.411388 -0.000573267 5.14916e-17)
(0.131245 0.0310168 5.14816e-17)
(0.133137 -0.017114 5.13294e-17)
(-0.162066 0.0795709 5.14922e-17)
(0.0222897 -0.115312 0)
(0.0290215 0.0718138 0)
(0.120813 -0.0372614 0)
(0.227625 -0.240586 2.29142e-17)
(0.339613 -0.467761 2.26658e-17)
(0.47405 -0.69265 -2.25143e-17)
(0.618245 -0.874853 -2.24017e-17)
(0.772626 -1.00376 -1.47989e-21)
(0.924112 -1.07424 0)
(1.06948 -1.08515 0)
(1.19649 -1.04607 0)
(1.3055 -0.966291 0)
(1.39167 -0.857071 0)
(1.45747 -0.726598 6.47142e-17)
(1.49835 -0.586431 0)
(1.51716 -0.441627 -2.13055e-17)
(1.5121 -0.29516 -2.11692e-17)
(1.48608 -0.153769 0)
(1.43765 -0.0203325 0)
(1.37138 0.103526 0)
(1.28696 0.216121 0)
(1.1867 0.3157 -2.05028e-17)
(1.0715 0.398985 0)
(0.946372 0.471555 2.02487e-17)
(0.808646 0.536833 0)
(0.661197 0.591838 0)
(0.505387 0.636869 0)
(0.346626 0.672879 3.9525e-17)
(0.183901 0.700077 0)
(0.0197187 0.719443 -1.95222e-17)
(-0.145448 0.729733 3.87997e-17)
(-0.309886 0.732783 0)
(-0.476598 0.734443 0)
(-0.643533 0.731426 0)
(-0.809291 0.721978 -1.89166e-17)
(-0.971428 0.706774 -1.87958e-17)
(-1.13034 0.685317 0)
(-1.28442 0.658074 0)
(-1.43291 0.626625 3.68595e-17)
(-1.5744 0.592632 3.66199e-17)
(-1.71415 0.558289 -3.63817e-17)
(-1.84886 0.525584 0)
(-1.98167 0.492168 0)
(-2.1088 0.460013 0)
(-2.23206 0.430527 0)
(-2.35092 0.402728 3.52012e-17)
(-2.46371 0.373325 3.49675e-17)
(-2.5713 0.343474 -3.47356e-17)
(-2.67327 0.314712 0)
(-2.76915 0.286612 0)
(-2.85975 0.25736 0)
(-2.945 0.230321 0)
(-3.0303 0.212359 3.35761e-17)
(-3.10965 0.196358 0)
(-3.18405 0.183 0)
(-3.2519 0.175037 3.28785e-17)
(-3.31516 0.169749 3.2647e-17)
(-3.37288 0.162836 0)
(-3.42303 0.153563 -6.43607e-17)
(-3.47094 0.146589 3.1949e-17)
(-3.5151 0.140302 -3.17145e-17)
(-3.55322 0.136343 0)
(-3.58853 0.133378 0)
(-3.61788 0.128945 0)
(-3.64228 0.124124 0)
(-3.66405 0.118405 -3.05527e-17)
(-3.6817 0.110592 -6.06467e-17)
(-3.69369 0.103228 -3.00978e-17)
(-3.70221 0.0960958 2.9873e-17)
(-3.70336 0.0849557 0)
(-3.69905 0.0721986 -5.88406e-17)
(-3.6869 0.0564535 -5.83922e-17)
(-3.66926 0.0406242 -5.79473e-17)
(-3.64756 0.0231173 5.75055e-17)
(-3.61697 0.0010298 0)
(-3.57956 -0.0215177 8.49428e-17)
(-3.53627 -0.0409857 0)
(-3.4883 -0.056488 -2.78782e-17)
(-3.43177 -0.070395 -2.76654e-17)
(-3.36729 -0.0860912 0)
(-3.29667 -0.102973 0)
(-3.22254 -0.119755 -5.40428e-17)
(-3.14617 -0.134625 0)
(-3.06576 -0.148901 -5.3196e-17)
(-2.98279 -0.162566 0)
(-2.89519 -0.176981 5.23573e-17)
(-2.80402 -0.188418 1.03887e-16)
(-2.70915 -0.198237 0)
(-2.61335 -0.20746 0)
(-2.51453 -0.214913 0)
(-2.41697 -0.221011 5.02928e-17)
(-2.31776 -0.226832 0)
(-2.2152 -0.231514 4.94709e-17)
(-2.1099 -0.234759 0)
(-2.00411 -0.234012 0)
(-1.89605 -0.234184 -9.65097e-17)
(-1.79067 -0.231858 0)
(-1.68335 -0.231357 -4.74643e-17)
(-1.5803 -0.225315 0)
(-1.47305 -0.225987 -4.66968e-17)
(-1.36647 -0.225105 0)
(-1.25762 -0.22424 0)
(-1.1503 -0.227962 0)
(-1.04002 -0.230358 -1.35699e-16)
(-0.940144 -0.22198 -4.48717e-17)
(-0.831183 -0.218881 0)
(-0.738252 -0.208533 0)
(-0.636684 -0.21002 0)
(-0.551142 -0.197808 0)
(-0.447226 -0.194152 4.32365e-17)
(-0.361156 -0.189595 -8.58378e-17)
(-0.254011 -0.206406 -4.26336e-17)
(-0.166582 -0.198212 8.46585e-17)
(-0.0468367 -0.213499 8.4095e-17)
(0.0549191 -0.21013 4.17618e-17)
(0.185078 -0.225032 0)
(0.297864 -0.226123 8.23985e-17)
(0.436447 -0.242527 0)
(0.568602 -0.251838 -8.1287e-17)
(0.716893 -0.257851 -4.03852e-17)
(0.86282 -0.262597 0)
(1.01762 -0.270415 7.97634e-17)
(1.16653 -0.272768 3.96286e-17)
(1.32829 -0.281465 0)
(1.48674 -0.277643 3.90903e-17)
(1.65914 -0.267882 -1.16509e-16)
(1.81908 -0.256634 0)
(1.98384 -0.256274 0)
(2.13623 -0.255923 0)
(2.29679 -0.259636 0)
(2.45369 -0.255294 -7.51554e-17)
(2.61007 -0.252128 -7.46566e-17)
(2.76155 -0.221357 0)
(2.89969 -0.214481 0)
(3.03075 -0.20096 0)
(3.15264 -0.199159 0)
(3.25938 -0.203908 0)
(3.37898 -0.207374 0)
(3.49197 -0.206726 -7.09538e-17)
(3.60463 -0.206259 -1.65153e-20)
(3.70016 -0.19918 0)
(3.80976 -0.209596 0)
(3.90018 -0.19697 -6.86084e-17)
(3.99231 -0.197969 0)
(4.07254 -0.176563 6.74259e-17)
(4.14113 -0.18747 6.68083e-17)
(4.18326 -0.170586 0)
(4.23734 -0.18913 0)
(4.27603 -0.165003 -6.49006e-17)
(4.32585 -0.155948 -1.28512e-16)
(4.35348 -0.160094 0)
(4.38605 -0.17175 0)
(4.4275 -0.162975 0)
(4.44011 -0.148132 -6.16884e-17)
(4.46771 -0.135075 6.10005e-17)
(4.46614 -0.135361 0)
(4.4859 -0.142177 1.19364e-16)
(4.46945 -0.130344 5.90282e-17)
(4.48683 -0.128769 -1.16762e-16)
(4.4644 -0.109916 0)
(4.46416 -0.116129 0)
(4.43234 -0.0943358 -1.12741e-16)
(4.39054 -0.0666615 -5.57147e-17)
(4.30397 -0.0366068 0)
(4.2391 -0.0345795 0)
(4.10567 -0.016887 0)
(3.99494 0.0246419 0)
(3.78385 0.0507177 -1.05589e-16)
(3.61535 0.0953203 0)
(3.31789 0.166161 0)
(3.06185 0.190034 0)
(2.71252 0.218865 0)
(2.39956 0.202679 0)
(2.00973 0.186961 0)
(1.77393 0.151783 -1.00638e-16)
(1.37143 0.147611 0)
(1.24524 0.0806345 0)
(0.861623 0.104117 -1.99427e-16)
(0.858689 0.020925 9.92516e-17)
(0.474821 0.112355 -9.94014e-17)
(0.670724 -0.125667 9.87809e-17)
(0.0206405 -0.0932149 0)
(0.124874 -0.267953 -4.69576e-17)
(0.247576 -0.488878 0)
(0.375594 -0.754868 -2.2798e-17)
(0.50239 -0.998952 0)
(0.618619 -1.18812 0)
(0.723393 -1.30596 2.24468e-17)
(0.804139 -1.3494 0)
(0.86711 -1.31959 0)
(0.906389 -1.23383 0)
(0.928503 -1.11106 0)
(0.931314 -0.961817 0)
(0.919705 -0.794744 -8.66183e-17)
(0.890977 -0.61764 -4.30263e-17)
(0.848662 -0.434894 4.27468e-17)
(0.792458 -0.253892 0)
(0.724357 -0.0812551 0)
(0.6429 0.0803343 0)
(0.55155 0.229443 0)
(0.449849 0.363137 0)
(0.340658 0.481033 -4.1151e-17)
(0.222202 0.583221 -4.08983e-17)
(0.0957976 0.674178 4.06491e-17)
(-0.0363895 0.750384 -4.04013e-17)
(-0.17268 0.813325 0)
(-0.311723 0.861574 0)
(-0.452288 0.897745 -3.9658e-17)
(-0.593213 0.922505 0)
(-0.735071 0.936595 0)
(-0.87745 0.945112 -3.89248e-17)
(-1.02042 0.950564 -3.86816e-17)
(-1.16131 0.948299 -3.84372e-17)
(-1.29917 0.939233 0)
(-1.43376 0.923973 0)
(-1.56377 0.902534 3.76938e-17)
(-1.68878 0.872917 0)
(-1.80982 0.83737 0)
(-1.92725 0.797901 -3.69491e-17)
(-2.04162 0.759925 3.66976e-17)
(-2.15437 0.721848 -3.64489e-17)
(-2.26058 0.683082 0)
(-2.365 0.643601 0)
(-2.46527 0.607052 -7.14209e-17)
(-2.56263 0.572574 0)
(-2.65454 0.534298 -7.04549e-17)
(-2.74294 0.495999 -1.04965e-16)
(-2.82763 0.459938 1.04244e-16)
(-2.90704 0.423441 -6.90159e-17)
(-2.98323 0.385995 0)
(-3.05688 0.350119 0)
(-3.13014 0.321756 -6.76036e-17)
(-3.20072 0.297074 -3.35713e-17)
(-3.26494 0.271286 0)
(-3.32499 0.249973 0)
(-3.3804 0.234475 -3.28793e-17)
(-3.43041 0.217584 -6.52987e-17)
(-3.4741 0.198588 0)
(-3.51186 0.180623 6.43806e-17)
(-3.54555 0.166095 -6.39213e-17)
(-3.57409 0.152444 6.34654e-17)
(-3.59648 0.138269 0)
(-3.61309 0.125023 0)
(-3.62512 0.113629 0)
(-3.63202 0.101997 0)
(-3.6353 0.0914606 0)
(-3.6338 0.0762274 6.07751e-17)
(-3.62797 0.0597102 0)
(-3.61492 0.0413657 0)
(-3.5961 0.0206977 0)
(-3.57297 -0.00090694 1.18049e-16)
(-3.54438 -0.0246089 5.85924e-17)
(-3.51094 -0.0482997 5.81588e-17)
(-3.47263 -0.0750429 -1.15459e-16)
(-3.42788 -0.106201 5.73047e-17)
(-3.37984 -0.136107 -5.68853e-17)
(-3.32553 -0.163574 0)
(-3.26646 -0.189615 5.60386e-17)
(-3.19748 -0.216401 0)
(-3.12441 -0.241715 0)
(-3.04571 -0.263722 0)
(-2.96555 -0.284635 1.08722e-16)
(-2.88322 -0.303916 -5.39475e-17)
(-2.79762 -0.323061 -5.35342e-17)
(-2.7107 -0.341994 -1.06274e-16)
(-2.61984 -0.362012 -1.58221e-16)
(-2.52791 -0.377975 -5.2345e-17)
(-2.43125 -0.391081 0)
(-2.33486 -0.402604 -1.03074e-16)
(-2.23698 -0.410638 0)
(-2.13909 -0.416816 -1.52209e-16)
(-2.04056 -0.426696 0)
(-1.94305 -0.433098 -1.49836e-16)
(-1.83951 -0.439353 0)
(-1.73546 -0.44 0)
(-1.62676 -0.441583 -4.87486e-17)
(-1.51952 -0.438465 0)
(-1.409 -0.438123 4.79746e-17)
(-1.30333 -0.433491 9.5161e-17)
(-1.18968 -0.435272 4.7206e-17)
(-1.07994 -0.436994 9.36542e-17)
(-0.961531 -0.43757 -9.28972e-17)