/*--------------------------------*- C++ -*----------------------------------*\
| =========                 |                                                 |
| \\      /  F ield         | OpenFOAM: The Open Source CFD Toolbox           |
|  \\    /   O peration     | Version:  dev                                   |
|   \\  /    A nd           | Web:      http://www.openfoam.org               |
|    \\/     M anipulation  |                                                 |
\*---------------------------------------------------------------------------*/
FoamFile
{
    version     2.0;
    format      ascii;
    class       volSymmTensorField;
    object      UPrime2Mean;
    location    "9.165";
}
// * * * * * * * * * * * * * * * * * * * * * * * * * * * * * * * * * * * * * //

dimensions      [0 2 -2 0 0 0 0];

internalField   nonuniform List<symmTensor> 
12225
(
(0.329273 0.019251 0 0.0691617 0 0)
(2.98652 0.0796152 0 0.0780703 0 0)
(7.88131 0.112182 0 0.0767759 0 0)
(14.5362 0.148023 0 0.0754533 0 0)
(22.7057 0.132785 0 0.0764013 0 0)
(32.0709 0.200793 0 0.0745581 0 0)
(42.3844 0.095686 0 0.076502 0 0)
(53.5291 0.200053 0 0.073742 0 0)
(65.6237 -0.0287711 0 0.0775082 0 0)
(78.2217 0.125294 0 0.0735154 0 0)
(92.9683 -0.306542 0 0.0812151 0 0)
(107.31 -0.116062 0 0.0768938 0 0)
(127.92 -0.672623 0 0.0862316 0 0)
(145.621 -1.277 0 0.134593 0 0)
(185.943 -1.41122 0 0.116375 0 0)
(198.518 -0.393834 0 2.39306 0 0)
(272.296 -33.532 0 5.80673 0 0)
(575.79 -52.9242 0 18.8181 0 0)
(0.377442 0.0567452 0 0.687921 0 0)
(3.15652 0.25199 0 0.731144 0 0)
(8.41174 0.361749 0 0.713036 0 0)
(15.4753 0.484822 0 0.705542 0 0)
(24.2 0.452399 0 0.702425 0 0)
(34.46 0.63199 0 0.68228 0 0)
(45.5284 0.295422 0 0.691091 0 0)
(58.4844 0.608116 0 0.657797 0 0)
(71.476 -0.135864 0 0.681682 0 0)
(87.151 0.281859 0 0.645041 0 0)
(102.785 -1.06575 0 0.71039 0 0)
(121.428 -0.766322 0 0.654631 0 0)
(142.851 -2.54353 0 1.06807 0 0)
(166.312 -4.48942 0 1.04584 0 0)
(199.779 -0.929868 0 3.10202 0 0)
(274.362 -9.97548 0 6.6025 0 0)
(281.055 -20.8367 0 8.73456 0 0)
(799.851 -185.157 0 64.6822 0 0)
(0.504904 0.0583335 0 2.13731 0 0)
(3.06427 0.424193 0 2.19913 0 0)
(8.46631 0.569965 0 2.14814 0 0)
(14.8541 0.850952 0 2.13964 0 0)
(24.2773 0.863496 0 2.1166 0 0)
(33.1533 1.05173 0 2.07946 0 0)
(45.2735 0.755066 0 2.07526 0 0)
(56.2054 0.884822 0 2.00461 0 0)
(69.6896 0.171007 0 2.0488 0 0)
(83.4519 0.0157357 0 1.95656 0 0)
(98.1921 -1.12476 0 2.11989 0 0)
(115.668 -2.44866 0 2.0919 0 0)
(138.626 -3.59763 0 2.62 0 0)
(154.882 -7.19979 0 2.82891 0 0)
(211.013 -13.0074 0 6.11923 0 0)
(223.413 -7.89397 0 6.37459 0 0)
(353.009 -62.2557 0 31.0788 0 0)
(534.505 -192.467 0 98.2074 0 0)
(1.02913 0.0923447 0 4.66334 0 0)
(3.5493 0.61886 0 4.75976 0 0)
(9.06882 0.815084 0 4.63577 0 0)
(15.0675 1.14872 0 4.59508 0 0)
(24.6378 1.31142 0 4.55091 0 0)
(32.9865 1.34814 0 4.4767 0 0)
(45.0082 1.25948 0 4.44183 0 0)
(55.1723 0.971441 0 4.34354 0 0)
(68.6055 0.47379 0 4.37539 0 0)
(80.7197 -0.284687 0 4.25197 0 0)
(96.0437 -1.33326 0 4.50151 0 0)
(110.522 -3.34332 0 4.36673 0 0)
(131.485 -4.79613 0 5.29699 0 0)
(152.263 -10.9725 0 5.60275 0 0)
(187.871 -11.4323 0 9.28436 0 0)
(238.429 -28.8624 0 16.8157 0 0)
(291.467 -58.9121 0 32.6713 0 0)
(414.829 -178.314 0 107.82 0 0)
(1.86266 0.364818 0 8.50976 0 0)
(5.0087 0.719681 0 8.71098 0 0)
(9.43578 1.13896 0 8.4602 0 0)
(16.2429 1.29333 0 8.35723 0 0)
(24.6503 1.69888 0 8.26782 0 0)
(33.9494 1.50042 0 8.13293 0 0)
(44.8237 1.59526 0 8.03254 0 0)
(55.5276 0.990288 0 7.90073 0 0)
(68.4206 0.597354 0 7.84802 0 0)
(80.1286 -0.597023 0 7.75051 0 0)
(95.3792 -1.78231 0 7.95255 0 0)
(108.567 -4.23114 0 7.90018 0 0)
(128.107 -6.88316 0 9.01766 0 0)
(145.236 -12.2908 0 9.25954 0 0)
(173.975 -19.2039 0 14.5834 0 0)
(217.896 -25.9556 0 17.201 0 0)
(233.682 -55.5738 0 46.2571 0 0)
(326.657 -171.73 0 138.639 0 0)
(2.56136 0.750084 0 14.0187 0 0)
(6.32409 0.806681 0 14.37 0 0)
(9.30069 1.53859 0 13.9408 0 0)
(17.0976 1.59308 0 13.7463 0 0)
(24.143 2.1183 0 13.572 0 0)
(34.2693 1.93418 0 13.3403 0 0)
(43.98 1.98794 0 13.1357 0 0)
(55.1768 1.41198 0 12.8954 0 0)
(67.3347 0.890494 0 12.7594 0 0)
(78.9178 -0.39026 0 12.5588 0 0)
(94.4347 -1.74295 0 12.7603 0 0)
(105.84 -4.31704 0 12.669 0 0)
(128.123 -7.27088 0 13.9727 0 0)
(137.952 -13.1606 0 14.6522 0 0)
(170.978 -21.8383 0 21.2364 0 0)
(191.485 -33.0428 0 24.5866 0 0)
(211.088 -55.9146 0 51.5536 0 0)
(265.649 -145.625 0 130.592 0 0)
(2.24414 0.721168 0 21.4997 0 0)
(5.54324 0.940652 0 22.115 0 0)
(9.20095 1.76208 0 21.3419 0 0)
(16.3415 2.07551 0 21.1544 0 0)
(23.9763 2.44707 0 20.7565 0 0)
(33.3686 2.53953 0 20.5236 0 0)
(43.6178 2.27027 0 20.0563 0 0)
(54.0577 1.92381 0 19.8267 0 0)
(66.4954 0.891878 0 19.4102 0 0)
(77.3734 -0.223601 0 19.2576 0 0)
(92.5303 -2.37757 0 19.1992 0 0)
(103.513 -4.82864 0 19.2421 0 0)
(123.654 -8.98684 0 20.4532 0 0)
(133.94 -14.2655 0 21.4315 0 0)
(161.549 -24.4048 0 28.4937 0 0)
(169.391 -32.4127 0 32.0313 0 0)
(203.386 -59.0056 0 56.8304 0 0)
(190.249 -108.746 0 114.08 0 0)
(1.42438 0.598353 0 29.7092 0 0)
(4.32212 1.13399 0 30.5935 0 0)
(8.58421 1.92226 0 29.448 0 0)
(15.2535 2.47019 0 29.277 0 0)
(23.2103 2.77408 0 28.6328 0 0)
(32.2707 2.9594 0 28.3722 0 0)
(42.426 2.59348 0 27.622 0 0)
(52.7981 2.18585 0 27.3419 0 0)
(64.4379 1.00129 0 26.6199 0 0)
(75.6261 -0.369737 0 26.4552 0 0)
(88.6587 -2.75888 0 26.0736 0 0)
(100.443 -5.7422 0 26.2987 0 0)
(115.56 -10.3286 0 27.0567 0 0)
(128.09 -15.8057 0 28.5718 0 0)
(144.676 -26.4953 0 33.8855 0 0)
(152.039 -33.4619 0 37.451 0 0)
(180.336 -54.8886 0 53.1507 0 0)
(139.607 -71.3066 0 83.6543 0 0)
(1.00738 0.521034 0 38.4669 0 0)
(3.77843 1.28697 0 39.6596 0 0)
(8.18091 2.03393 0 38.1245 0 0)
(14.7294 2.77693 0 37.9836 0 0)
(22.6559 3.00212 0 37.0752 0 0)
(31.5906 3.3111 0 36.8006 0 0)
(41.5103 2.79946 0 35.7514 0 0)
(51.7813 2.4668 0 35.4335 0 0)
(62.838 1.03127 0 34.4269 0 0)
(73.8524 -0.289236 0 34.2276 0 0)
(85.6705 -3.05439 0 33.599 0 0)
(97.0281 -5.9125 0 33.8595 0 0)
(109.355 -10.9573 0 34.3703 0 0)
(121.228 -16.0478 0 36.0906 0 0)
(131.236 -25.569 0 39.9737 0 0)
(138.154 -33.212 0 44.7041 0 0)
(150 -47.3222 0 52.4305 0 0)
(123.225 -58.7501 0 73.0825 0 0)
(0.612026 0.484261 0 49.6364 0 0)
(3.23583 1.44474 0 51.2223 0 0)
(7.74193 2.18444 0 49.1291 0 0)
(14.1992 3.03265 0 49.0418 0 0)
(21.9934 3.26916 0 47.7545 0 0)
(30.851 3.57369 0 47.4757 0 0)
(40.4754 3.05848 0 46.0168 0 0)
(50.6097 2.62887 0 45.649 0 0)
(61.1332 1.15313 0 44.2323 0 0)
(71.8005 -0.303135 0 43.9897 0 0)
(82.6814 -3.15276 0 42.9482 0 0)
(93.223 -6.0502 0 43.2683 0 0)
(103.862 -11.1049 0 43.2712 0 0)
(113.725 -15.8567 0 45.1286 0 0)
(121.333 -24.5144 0 47.6334 0 0)
(125.771 -30.5784 0 51.9044 0 0)
(129.106 -40.7219 0 56.4262 0 0)
(116.016 -48.3915 0 68.9875 0 0)
(0.434038 0.515823 0 63.8092 0 0)
(2.97886 1.62584 0 65.8612 0 0)
(7.46943 2.38101 0 63.1736 0 0)
(13.8454 3.30638 0 63.0619 0 0)
(21.491 3.56466 0 61.4306 0 0)
(30.1883 3.85273 0 61.0168 0 0)
(39.5462 3.34863 0 59.2118 0 0)
(49.3833 2.80922 0 58.6182 0 0)
(59.452 1.35893 0 56.9007 0 0)
(69.5534 -0.279532 0 56.3845 0 0)
(79.6474 -2.99501 0 55.085 0 0)
(89.1804 -6.09579 0 55.1426 0 0)
(98.4959 -10.5676 0 54.7995 0 0)
(106.371 -15.43 0 56.3487 0 0)
(112.535 -22.1439 0 57.7947 0 0)
(115.068 -28.0582 0 61.5253 0 0)
(116.013 -35.2027 0 64.4931 0 0)
(109.566 -40.8005 0 71.3921 0 0)
(0.356289 0.540061 0 81.276 0 0)
(2.83123 1.74297 0 83.9572 0 0)
(7.26119 2.55191 0 80.4947 0 0)
(13.515 3.49683 0 80.3856 0 0)
(20.9872 3.80316 0 78.3025 0 0)
(29.4644 4.02934 0 77.7503 0 0)
(38.52 3.55185 0 75.4648 0 0)
(47.9876 2.9089 0 74.6418 0 0)
(57.5389 1.46932 0 72.4536 0 0)
(67.0294 -0.235941 0 71.6687 0 0)
(76.24 -2.88635 0 69.9171 0 0)
(84.8234 -5.87199 0 69.6603 0 0)
(92.7274 -9.97624 0 68.8284 0 0)
(99.1546 -14.3044 0 69.7843 0 0)
(103.868 -19.7501 0 70.4296 0 0)
(105.811 -24.6624 0 72.936 0 0)
(105.967 -29.8267 0 74.8807 0 0)
(101.723 -33.3109 0 78.5394 0 0)
(0.329224 0.568514 0 102.322 0 0)
(2.7358 1.80458 0 105.527 0 0)
(7.06807 2.67972 0 101.507 0 0)
(13.1536 3.57837 0 101.039 0 0)
(20.4305 3.92711 0 98.7778 0 0)
(28.6127 4.04677 0 97.6999 0 0)
(37.3437 3.60587 0 95.1893 0 0)
(46.3414 2.82291 0 93.7425 0 0)
(55.3674 1.46228 0 91.3102 0 0)
(64.1455 -0.355261 0 89.8624 0 0)
(72.5218 -2.77359 0 87.8398 0 0)
(80.1092 -5.70474 0 86.869 0 0)
(86.8283 -9.21477 0 85.6611 0 0)
(92.0875 -13.1033 0 85.6715 0 0)
(95.7881 -17.3208 0 85.6249 0 0)
(97.3724 -21.3868 0 86.7696 0 0)
(97.475 -25.2305 0 87.7999 0 0)
(94.6717 -27.6857 0 89.4079 0 0)
(0.313636 0.572736 0 126.281 0 0)
(2.64048 1.77182 0 130.204 0 0)
(6.84725 2.66414 0 125.502 0 0)
(12.7295 3.45833 0 124.693 0 0)
(19.7642 3.78512 0 122.166 0 0)
(27.6125 3.79816 0 120.591 0 0)
(35.9515 3.32389 0 117.713 0 0)
(44.4585 2.47631 0 115.683 0 0)
(52.8927 1.12099 0 112.827 0 0)
(60.9838 -0.642641 0 110.74 0 0)
(68.5302 -2.91081 0 108.254 0 0)
(75.2514 -5.54277 0 106.532 0 0)
(80.9874 -8.59784 0 104.768 0 0)
(85.4351 -11.821 0 103.768 0 0)
(88.4796 -15.1835 0 102.94 0 0)
(89.9168 -18.3506 0 102.77 0 0)
(90.219 -21.2691 0 102.786 0 0)
(88.2566 -22.9163 0 102.942 0 0)
(0.299237 0.524321 0 151.659 0 0)
(2.53255 1.57983 0 156.154 0 0)
(6.5831 2.37455 0 151.032 0 0)
(12.2316 2.98379 0 149.595 0 0)
(18.9711 3.20661 0 147.04 0 0)
(26.4481 3.06408 0 144.731 0 0)
(34.3463 2.52324 0 141.647 0 0)
(42.3332 1.59089 0 138.845 0 0)
(50.1677 0.261358 0 135.651 0 0)
(57.5846 -1.44358 0 132.779 0 0)
(64.3954 -3.50531 0 129.832 0 0)
(70.3723 -5.84281 0 127.265 0 0)
(75.3847 -8.41949 0 124.867 0 0)
(79.2702 -11.0713 0 122.87 0 0)
(81.9675 -13.709 0 121.16 0 0)
(83.385 -16.1734 0 119.826 0 0)
(83.9672 -18.3716 0 118.741 0 0)
(82.7606 -19.4185 0 117.634 0 0)
(0.283966 0.393846 0 174.848 0 0)
(2.41417 1.1444 0 180.04 0 0)
(6.28293 1.66887 0 174.439 0 0)
(11.67 2.00072 0 172.559 0 0)
(18.0758 1.99766 0 169.882 0 0)
(25.1543 1.66072 0 167.035 0 0)
(32.5847 0.980076 0 163.653 0 0)
(40.0514 -0.0288429 0 160.262 0 0)
(47.3074 -1.3631 0 156.65 0 0)
(54.1192 -2.97486 0 153.141 0 0)
(60.3091 -4.84296 0 149.66 0 0)
(65.7128 -6.87354 0 146.374 0 0)
(70.2254 -9.0275 0 143.283 0 0)
(73.7739 -11.1752 0 140.433 0 0)
(76.3289 -13.2388 0 137.848 0 0)
(77.8546 -15.1381 0 135.527 0 0)
(78.7362 -16.7854 0 133.42 0 0)
(78.1879 -17.3841 0 131.227 0 0)
(0.268741 0.156477 0 189.937 0 0)
(2.29333 0.391392 0 195.6 0 0)
(5.96647 0.489585 0 189.714 0 0)
(11.0744 0.411358 0 187.574 0 0)
(17.1301 0.0750652 0 184.832 0 0)
(23.8009 -0.532954 0 181.666 0 0)
(30.7696 -1.40178 0 178.092 0 0)
(37.7408 -2.5237 0 174.345 0 0)
(44.4784 -3.87306 0 170.439 0 0)
(50.7763 -5.41273 0 166.526 0 0)
(56.4816 -7.09924 0 162.64 0 0)
(61.4726 -8.86749 0 158.866 0 0)
(65.674 -10.663 0 155.236 0 0)
(69.0564 -12.4078 0 151.781 0 0)
(71.6126 -14.026 0 148.52 0 0)
(73.3316 -15.496 0 145.482 0 0)
(74.5261 -16.732 0 142.595 0 0)
(74.5709 -17.0541 0 139.606 0 0)
(0.259098 -0.141858 0 189.909 0 0)
(2.19584 -0.532352 0 195.531 0 0)
(5.68987 -0.934754 0 189.708 0 0)
(10.5417 -1.48895 0 187.559 0 0)
(16.2817 -2.20848 0 184.86 0 0)
(22.5924 -3.11008 0 181.7 0 0)
(29.1656 -4.18289 0 178.151 0 0)
(35.7288 -5.42114 0 174.407 0 0)
(42.0592 -6.79439 0 170.488 0 0)
(47.9793 -8.27397 0 166.541 0 0)
(53.353 -9.81312 0 162.573 0 0)
(58.092 -11.3694 0 158.693 0 0)
(62.1352 -12.8897 0 154.887 0 0)
(65.4765 -14.3309 0 151.229 0 0)
(68.1147 -15.6277 0 147.694 0 0)
(70.0553 -16.7871 0 144.361 0 0)
(71.5315 -17.7338 0 141.118 0 0)
(72.0657 -17.9395 0 137.794 0 0)
(0.255912 -0.395263 0 174.115 0 0)
(2.13662 -1.30307 0 179.059 0 0)
(5.49909 -2.12283 0 173.737 0 0)
(10.161 -3.06963 0 171.747 0 0)
(15.6676 -4.09661 0 169.269 0 0)
(21.7141 -5.2245 0 166.384 0 0)
(28.0034 -6.44621 0 163.137 0 0)
(34.281 -7.75861 0 159.718 0 0)
(40.3368 -9.13324 0 156.118 0 0)
(46.0143 -10.5502 0 152.495 0 0)
(51.1882 -11.9675 0 148.817 0 0)
(55.7903 -13.3586 0 145.216 0 0)
(59.7673 -14.6786 0 141.639 0 0)
(63.1232 -15.9043 0 138.192 0 0)
(65.8561 -16.9844 0 134.814 0 0)
(67.9835 -17.9337 0 131.618 0 0)
(69.6743 -18.6913 0 128.468 0 0)
(70.5717 -18.8796 0 125.274 0 0)
(0.257357 -0.544176 0 148.717 0 0)
(2.1088 -1.74351 0 152.669 0 0)
(5.38462 -2.81682 0 148.139 0 0)
(9.91891 -3.99811 0 146.424 0 0)
(15.2688 -5.19995 0 144.306 0 0)
(21.1384 -6.44731 0 141.857 0 0)
(27.2399 -7.73219 0 139.097 0 0)
(33.3315 -9.05638 0 136.196 0 0)
(39.2134 -10.3925 0 133.129 0 0)
(44.7418 -11.7306 0 130.042 0 0)
(49.8014 -13.0325 0 126.89 0 0)
(54.3331 -14.2848 0 123.8 0 0)
(58.2906 -15.4483 0 120.711 0 0)
(61.6796 -16.514 0 117.727 0 0)
(64.499 -17.4383 0 114.783 0 0)
(66.7711 -18.2401 0 111.99 0 0)
(68.6209 -18.8691 0 109.222 0 0)
(69.7813 -19.0791 0 106.435 0 0)
(0.260216 -0.599946 0 119.858 0 0)
(2.09982 -1.88559 0 122.823 0 0)
(5.3185 -3.06119 0 119.181 0 0)
(9.7674 -4.33187 0 117.789 0 0)
(15.0124 -5.58813 0 116.085 0 0)
(20.7644 -6.85603 0 114.124 0 0)
(26.7421 -8.12532 0 111.914 0 0)
(32.713 -9.40128 0 109.591 0 0)
(38.4845 -10.6586 0 107.131 0 0)
(43.9213 -11.894 0 104.651 0 0)
(48.9158 -13.0739 0 102.113 0 0)
(53.4136 -14.1936 0 99.6181 0 0)
(57.3733 -15.2187 0 97.1174 0 0)
(60.7998 -16.1491 0 94.6958 0 0)
(63.6933 -16.9478 0 92.3015 0 0)
(66.0787 -17.6344 0 90.0217 0 0)
(68.0506 -18.168 0 87.7605 0 0)
(69.4098 -18.4039 0 85.4891 0 0)
(0.26315 -0.589226 0 91.7503 0 0)
(2.09943 -1.82609 0 93.8623 0 0)
(5.28067 -2.99047 0 91.0755 0 0)
(9.67267 -4.2386 0 90.0036 0 0)
(14.8471 -5.45688 0 88.7062 0 0)
(20.5204 -6.66768 0 87.2136 0 0)
(26.4165 -7.86057 0 85.5355 0 0)
(32.3085 -9.04049 0 83.7663 0 0)
(38.0098 -10.1868 0 81.8934 0 0)
(43.3904 -11.298 0 79.9992 0 0)
(48.3484 -12.3474 0 78.0614 0 0)
(52.8317 -13.3331 0 76.1498 0 0)
(56.8028 -14.2278 0 74.2348 0 0)
(60.2646 -15.0339 0 72.3743 0 0)
(63.219 -15.7233 0 70.536 0 0)
(65.6931 -16.311 0 68.7788 0 0)
(67.7594 -16.7677 0 67.0388 0 0)
(69.2713 -17.0174 0 65.2887 0 0)
(0.266224 -0.535577 0 66.8343 0 0)
(2.10324 -1.64739 0 68.2724 0 0)
(5.25931 -2.72509 0 66.2437 0 0)
(9.61356 -3.87585 0 65.462 0 0)
(14.7407 -4.99357 0 64.5252 0 0)
(20.3617 -6.09409 0 63.445 0 0)
(26.2041 -7.16938 0 62.2326 0 0)
(32.0451 -8.22132 0 60.9488 0 0)
(37.7024 -9.23508 0 59.592 0 0)
(43.0494 -10.2081 0 58.2142 0 0)
(47.9884 -11.1213 0 56.8074 0 0)
(52.4686 -11.9721 0 55.4149 0 0)
(56.4547 -12.7411 0 54.0232 0 0)
(59.9486 -13.43 0 52.6665 0 0)
(62.953 -14.0191 0 51.3286 0 0)
(65.4961 -14.5179 0 50.0447 0 0)
(67.635 -14.9078 0 48.777 0 0)
(69.2647 -15.1557 0 47.498 0 0)
(0.268086 -0.461907 0 46.2208 0 0)
(2.10765 -1.413 0 47.1581 0 0)
(5.24745 -2.35901 0 45.7595 0 0)
(9.57672 -3.36852 0 45.2222 0 0)
(14.6722 -4.34798 0 44.582 0 0)
(20.2585 -5.30681 0 43.8393 0 0)
(26.0664 -6.23998 0 43.0065 0 0)
(31.875 -7.14577 0 42.1205 0 0)
(37.5055 -8.01521 0 41.1864 0 0)
(42.8332 -8.84361 0 40.2347 0 0)
(47.7631 -9.61871 0 39.2662 0 0)
(52.2453 -10.3365 0 38.3051 0 0)
(56.2458 -10.9846 0 37.347 0 0)
(59.7657 -11.5624 0 36.4104 0 0)
(62.8082 -12.0578 0 35.4887 0 0)
(65.4021 -12.4744 0 34.601 0 0)
(67.593 -12.8023 0 33.7274 0 0)
(69.3086 -13.0328 0 32.8427 0 0)
(0.269235 -0.382284 0 30.1131 0 0)
(2.11116 -1.1623 0 30.6965 0 0)
(5.24067 -1.95444 0 29.7877 0 0)
(9.5532 -2.80193 0 29.441 0 0)
(14.6273 -3.62425 0 29.0296 0 0)
(20.1904 -4.4276 0 28.5497 0 0)
(25.9752 -5.2082 0 28.0113 0 0)
(31.7617 -5.96303 0 27.4365 0 0)
(37.3734 -6.68557 0 26.8314 0 0)
(42.6866 -7.37104 0 26.2139 0 0)
(47.6081 -8.0109 0 25.5869 0 0)
(52.0876 -8.60098 0 24.9634 0 0)
(56.0935 -9.13332 0 24.3434 0 0)
(59.6256 -9.606 0 23.7357 0 0)
(62.6878 -10.0115 0 23.1385 0 0)
(65.3075 -10.3501 0 22.5617 0 0)
(67.5253 -10.6172 0 21.9956 0 0)
(69.2939 -10.8148 0 21.4209 0 0)
(0.269542 -0.303959 0 18.1845 0 0)
(2.11291 -0.917942 0 18.5282 0 0)
(5.23528 -1.55108 0 17.9783 0 0)
(9.53376 -2.23281 0 17.7726 0 0)
(14.5889 -2.89589 0 17.5299 0 0)
(20.1299 -3.54494 0 17.2458 0 0)
(25.8903 -4.17521 0 16.9261 0 0)
(31.6511 -4.78337 0 16.5836 0 0)
(37.2372 -5.36286 0 16.2224 0 0)
(42.525 -5.91021 0 15.853 0 0)
(47.424 -6.41813 0 15.4769 0 0)
(51.8826 -6.88424 0 15.1024 0 0)
(55.8727 -7.30173 0 14.7295 0 0)
(59.3919 -7.67028 0 14.3633 0 0)
(62.4489 -7.98411 0 14.0033 0 0)
(65.0658 -8.24377 0 13.6549 0 0)
(67.2868 -8.44843 0 13.3135 0 0)
(69.0829 -8.59886 0 12.9672 0 0)
(0.269193 -0.227791 0 9.86733 0 0)
(2.11064 -0.689886 0 10.0506 0 0)
(5.21805 -1.17638 0 9.75385 0 0)
(9.49028 -1.70519 0 9.65163 0 0)
(14.5152 -2.21877 0 9.52741 0 0)
(20.0228 -2.71845 0 9.37844 0 0)
(25.7462 -3.1999 0 9.20802 0 0)
(31.4691 -3.66063 0 9.02407 0 0)
(37.016 -4.0949 0 8.82863 0 0)
(42.2667 -4.50113 0 8.62794 0 0)
(47.1296 -4.87372 0 8.4226 0 0)
(51.5581 -5.21282 0 8.21779 0 0)
(55.5229 -5.51263 0 8.01295 0 0)
(59.0259 -5.77535 0 7.81201 0 0)
(62.0746 -5.99485 0 7.61405 0 0)
(64.6906 -6.17469 0 7.42304 0 0)
(66.9153 -6.31781 0 7.23657 0 0)
(68.7446 -6.41989 0 7.04866 0 0)
(0.268048 -0.154489 0 4.47926 0 0)
(2.08378 -0.496886 0 4.57476 0 0)
(5.15678 -0.850716 0 4.44976 0 0)
(9.38947 -1.22642 0 4.41418 0 0)
(14.3888 -1.58287 0 4.36318 0 0)
(19.8708 -1.92467 0 4.29885 0 0)
(25.5677 -2.24918 0 4.22164 0 0)
(31.2646 -2.55415 0 4.13529 0 0)
(36.7885 -2.83798 0 4.0424 0 0)
(42.0185 -3.10183 0 3.94673 0 0)
(46.8647 -3.3428 0 3.84907 0 0)
(51.2839 -3.56173 0 3.75213 0 0)
(55.2429 -3.75487 0 3.65539 0 0)
(58.7519 -3.92428 0 3.56156 0 0)
(61.8071 -4.06385 0 3.46904 0 0)
(64.442 -4.17887 0 3.38171 0 0)
(66.6639 -4.26936 0 3.2966 0 0)
(68.5214 -4.33941 0 3.21253 0 0)
(0.25516 -0.088003 0 1.41884 0 0)
(2.06784 -0.312834 0 1.48449 0 0)
(5.20525 -0.524972 0 1.44449 0 0)
(9.49638 -0.732953 0 1.43136 0 0)
(14.5491 -0.922712 0 1.41128 0 0)
(20.0825 -1.10504 0 1.38804 0 0)
(25.8355 -1.28143 0 1.36145 0 0)
(31.5916 -1.44933 0 1.33216 0 0)
(37.1771 -1.60709 0 1.30122 0 0)
(42.466 -1.75452 0 1.26966 0 0)
(47.3718 -1.89012 0 1.23789 0 0)
(51.8433 -2.01392 0 1.20652 0 0)
(55.8521 -2.12387 0 1.17553 0 0)
(59.4008 -2.22063 0 1.14561 0 0)
(62.4894 -2.30012 0 1.11639 0 0)
(65.1556 -2.36631 0 1.08994 0 0)
(67.3772 -2.41891 0 1.06477 0 0)
(69.2268 -2.4584 0 1.03786 0 0)
(0.245849 -0.0252724 0 0.141629 0 0)
(2.06566 -0.0976273 0 0.153395 0 0)
(5.1841 -0.165227 0 0.150614 0 0)
(9.44436 -0.230342 0 0.149446 0 0)
(14.4783 -0.293126 0 0.147146 0 0)
(19.999 -0.353359 0 0.144422 0 0)
(25.7454 -0.412091 0 0.141427 0 0)
(31.499 -0.468514 0 0.138301 0 0)
(37.0914 -0.521792 0 0.135083 0 0)
(42.3982 -0.571742 0 0.131835 0 0)
(47.3342 -0.618056 0 0.128583 0 0)
(51.8464 -0.660707 0 0.125385 0 0)
(55.9085 -0.699118 0 0.122247 0 0)
(59.5156 -0.733145 0 0.119227 0 0)
(62.6743 -0.762055 0 0.116407 0 0)
(65.4172 -0.787289 0 0.114074 0 0)
(67.7289 -0.805497 0 0.112003 0 0)
(69.656 -0.814796 0 0.111622 0 0)
(0.0244643 0.0357239 0 0.716405 0 0)
(0.267049 0.0989799 0 0.677546 0 0)
(0.784816 0.180679 0 0.670392 0 0)
(1.53763 0.294588 0 0.661168 0 0)
(2.48381 0.42344 0 0.659558 0 0)
(3.60517 0.568049 0 0.656298 0 0)
(4.87982 0.714885 -2.38208e-19 0.654343 -6.471e-20 1.4768e-37)
(6.30496 0.865548 2.4224e-19 0.650045 6.90046e-20 1.48129e-37)
(7.87395 1.01225 0 0.64404 0 0)
(9.58481 1.15944 2.44728e-19 0.636468 6.84227e-20 1.45908e-37)
(11.4323 1.30325 0 0.627886 0 0)
(13.4105 1.44593 0 0.618796 0 0)
(15.5127 1.58288 0 0.610846 0 0)
(17.7326 1.71444 -2.77355e-19 0.604385 -5.15834e-20 1.34565e-37)
(20.0639 1.83744 0 0.598182 0 0)
(22.5071 1.95095 0 0.592964 0 0)
(25.0625 2.05081 3.40436e-19 0.588682 3.8985e-20 1.2193e-37)
(27.7284 2.13864 0 0.584249 0 0)
(30.5003 2.21705 0 0.579605 0 0)
(33.372 2.28826 0 0.575183 0 0)
(36.328 2.35133 -4.56013e-19 0.571864 -1.95911e-20 1.0165e-37)
(39.3587 2.40704 0 0.568118 0 0)
(42.4504 2.45349 -5.15587e-19 0.565871 -1.03391e-20 9.24072e-38)
(45.5939 2.49052 0 0.567079 0 0)
(48.7733 2.52423 0 0.567842 0 0)
(51.9743 2.54726 -6.03507e-19 0.570008 1.17127e-21 7.96773e-38)
(55.1902 2.5494 0 0.571831 0 0)
(58.4251 2.53195 6.57054e-19 0.570305 -6.89383e-21 7.20866e-38)
(61.6729 2.50094 0 0.562461 0 0)
(64.9395 2.45821 -7.01736e-19 0.552094 1.04441e-20 6.53272e-38)
(68.2232 2.40635 0 0.538587 0 0)
(71.5116 2.34781 0 0.522845 0 0)
(74.797 2.28245 0 0.508908 0 0)
(78.0808 2.20654 0 0.497628 0 0)
(81.3568 2.11953 0 0.486158 0 0)
(84.6216 2.02433 7.78908e-19 0.47531 -1.39992e-20 4.59382e-38)
(87.8737 1.92075 0 0.463747 0 0)
(91.1141 1.80863 -1.56119e-18 0.447792 2.71692e-20 1.6118e-37)
(94.3413 1.68952 0 0.43228 0 0)
(97.5505 1.56226 1.55142e-18 0.417699 -2.61787e-20 1.398e-37)
(100.735 1.4293 0 0.402597 0 0)
(103.894 1.28712 0 0.391034 0 0)
(107.018 1.13669 -1.51369e-18 0.37865 2.16075e-20 1.11149e-37)
(110.089 0.98407 0 0.365966 0 0)
(113.094 0.829565 -1.47525e-18 0.355159 1.83295e-20 9.42272e-38)
(116.017 0.671886 1.45283e-18 0.346221 -1.66235e-20 8.65455e-38)
(118.842 0.508136 0 0.339873 0 0)
(121.562 0.338209 1.40222e-18 0.334813 -1.25944e-20 7.33457e-38)
(124.161 0.163084 1.37412e-18 0.33089 -1.07169e-20 6.78859e-38)
(126.638 -0.014589 0 0.327664 0 0)
(128.979 -0.193787 0 0.325469 0 0)
(131.166 -0.377161 0 0.322686 0 0)
(133.176 -0.565471 0 0.321393 0 0)
(134.989 -0.756033 0 0.323388 0 0)
(136.579 -0.945554 -1.17424e-18 0.327571 -4.365e-21 5.01078e-38)
(137.917 -1.1365 0 0.331659 0 0)
(138.991 -1.33215 1.07972e-18 0.335354 1.14524e-20 4.7461e-38)
(139.804 -1.53443 0 0.340605 0 0)
(140.351 -1.74303 0 0.347403 0 0)
(140.618 -1.94895 -9.12019e-19 0.356666 -2.24259e-20 4.7473e-38)
(140.599 -2.1531 0 0.368587 0 0)
(140.278 -2.35812 7.80854e-19 0.380598 3.12123e-20 4.96433e-38)
(139.662 -2.56202 0 0.390897 0 0)
(138.746 -2.76593 0 0.403685 0 0)
(137.54 -2.96904 0 0.417921 0 0)
(136.057 -3.16506 -4.83133e-19 0.432464 -4.75242e-20 6.03005e-38)
(134.301 -3.35398 0 0.447032 0 0)
(132.283 -3.53645 0 0.460097 0 0)
(130.015 -3.71192 -2.27546e-19 0.474006 -6.11881e-20 7.2983e-38)
(127.516 -3.88566 0 0.489897 0 0)
(124.82 -4.05124 -5.17388e-20 0.505221 -6.98918e-20 8.29635e-38)
(121.942 -4.20362 0 0.520154 0 0)
(118.899 -4.34464 0 0.536351 0 0)
(115.723 -4.47612 0 0.553622 0 0)
(112.439 -4.59789 -3.04381e-19 0.571603 8.31255e-20 1.04503e-37)
(109.065 -4.7076 0 0.589591 0 0)
(105.616 -4.80188 0 0.60736 0 0)
(102.103 -4.88091 -5.6386e-19 0.625297 9.02723e-20 1.20121e-37)
(98.5407 -4.94908 -6.45724e-19 0.643947 9.18185e-20 1.25229e-37)
(94.9543 -5.0061 0 0.662642 0 0)
(91.3746 -5.05115 -7.98893e-19 0.682271 9.45944e-20 1.34647e-37)
(87.8223 -5.08488 0 0.703372 0 0)
(84.3179 -5.10676 -1.87758e-18 0.724896 1.92501e-19 5.74249e-37)
(80.8757 -5.11568 0 0.747517 0 0)
(77.5134 -5.11011 -2.12266e-18 0.770068 1.93625e-19 6.07418e-37)
(74.2496 -5.08824 0 0.792994 0 0)
(71.0986 -5.05343 2.32542e-18 0.81892 -1.93765e-19 6.36449e-37)
(68.0779 -5.0054 0 0.843912 0 0)
(65.2019 -4.93877 0 0.86621 0 0)
(62.4703 -4.85336 0 0.888892 0 0)
(59.8873 -4.7513 -2.58651e-18 0.913888 1.86169e-19 6.79887e-37)
(57.4588 -4.63497 0 0.938469 0 0)
(55.194 -4.50263 2.64749e-18 0.96272 -1.79893e-19 6.9463e-37)
(53.0956 -4.35408 0 0.986468 0 0)
(51.1526 -4.18336 -2.65949e-18 1.01004 1.73552e-19 7.03491e-37)
(49.3599 -3.99593 -2.65034e-18 1.03133 1.7033e-19 7.07002e-37)
(47.7054 -3.79581 -2.6313e-18 1.05257 1.66156e-19 7.09659e-37)
(46.1849 -3.58678 0 1.07495 0 0)
(44.7717 -3.36772 0 1.09802 0 0)
(43.4763 -3.13942 0 1.11757 0 0)
(42.2791 -2.90208 0 1.13747 0 0)
(41.1767 -2.66314 0 1.15732 0 0)
(40.1499 -2.42356 0 1.17639 0 0)
(39.1956 -2.18139 0 1.19149 0 0)
(38.2678 -1.93793 0 1.20752 0 0)
(37.3641 -1.70149 2.02552e-18 1.22289 -1.3149e-19 7.07333e-37)
(36.4513 -1.47325 1.91159e-18 1.24004 -1.24228e-19 7.06697e-37)
(35.5543 -1.25441 0 1.25173 0 0)
(34.6389 -1.04426 0 1.26481 0 0)
(33.7139 -0.857801 0 1.2789 0 0)
(32.73 -0.681979 1.35484e-18 1.29136 -1.04641e-19 6.90859e-37)
(31.7863 -0.53176 0 1.29856 0 0)
(30.7756 -0.389309 0 1.30846 0 0)
(29.8169 -0.286586 0 1.31865 0 0)
(28.8893 -0.203288 0 1.33184 0 0)
(28.0587 -0.152768 -4.39554e-19 1.34032 7.57136e-20 6.65966e-37)
(27.3586 -0.126628 0 1.34969 0 0)
(26.819 -0.135696 0 1.36318 0 0)
(26.5287 -0.178417 -2.21806e-19 1.37109 -6.55499e-20 6.42537e-37)
(26.4834 -0.246957 4.48801e-19 1.38398 6.12414e-20 6.29919e-37)
(26.7347 -0.356864 0 1.40102 0 0)
(27.3414 -0.513344 9.11453e-19 1.41881 6.00981e-20 6.05096e-37)
(28.3622 -0.711416 0 1.4382 0 0)
(29.8644 -0.96293 -1.35285e-18 1.45514 -6.43624e-20 5.7542e-37)
(31.8636 -1.24902 0 1.47786 0 0)
(34.4311 -1.5839 0 1.50488 0 0)
(37.4667 -1.96079 0 1.53759 0 0)
(41.0773 -2.38856 0 1.57188 0 0)
(45.1211 -2.84221 0 1.61007 0 0)
(49.5987 -3.34382 4.89639e-18 1.65236 2.04609e-19 1.97163e-36)
(54.4586 -3.88941 5.1516e-18 1.69853 2.30339e-19 1.93709e-36)
(59.7143 -4.47101 0 1.74706 0 0)
(65.1762 -5.07351 0 1.8027 0 0)
(70.7951 -5.70012 0 1.85792 0 0)
(76.4205 -6.3137 -5.69367e-18 1.91868 -3.52138e-19 1.91714e-36)
(81.8321 -6.92863 0 1.98975 0 0)
(86.9896 -7.55017 0 2.06207 0 0)
(91.8338 -8.1648 0 2.13841 0 0)
(96.2849 -8.75572 -5.33542e-18 2.21684 -5.33333e-19 2.07203e-36)
(100.303 -9.32121 5.10184e-18 2.3018 5.83206e-19 2.13445e-36)
(103.715 -9.84491 0 2.39123 0 0)
(106.624 -10.355 0 2.48385 0 0)
(108.999 -10.8096 4.08047e-18 2.5784 7.35432e-19 2.3662e-36)
(110.84 -11.2289 3.65034e-18 2.67169 7.84242e-19 2.45129e-36)
(111.998 -11.5733 0 2.77195 0 0)
(112.571 -11.8881 0 2.8719 0 0)
(112.452 -12.131 -2.0521e-18 2.97598 -9.45753e-19 2.71914e-36)
(111.775 -12.356 1.42247e-18 3.071 9.89374e-19 2.79786e-36)
(110.585 -12.5108 0 3.16788 0 0)
(108.682 -12.6114 0 3.26859 0 0)
(106.186 -12.6457 -5.22536e-19 3.35957 1.11725e-18 3.06847e-36)
(103.06 -12.626 0 3.45014 0 0)
(99.5862 -12.5683 0 3.53377 0 0)
(95.6062 -12.4199 -2.54962e-18 3.60634 1.20627e-18 3.30147e-36)
(91.3146 -12.1992 0 3.67842 0 0)
(86.6965 -11.8675 -3.83315e-18 3.74004 1.25739e-18 3.44466e-36)
(81.8164 -11.4509 0 3.79606 0 0)
(76.7152 -10.9166 0 3.83554 0 0)
(71.7751 -10.2836 0 3.85973 0 0)
(66.8957 -9.48605 5.87334e-18 3.87852 -1.27836e-18 3.68154e-36)
(62.2373 -8.56881 0 3.88207 0 0)
(58.0153 -7.4992 0 3.8702 0 0)
(54.5556 -6.31009 0 3.84252 0 0)
(51.6985 -4.93262 0 3.80092 0 0)
(49.6072 -3.47542 0 3.75067 0 0)
(48.8922 -1.921 0 3.67878 0 0)
(49.709 -0.294292 6.01836e-18 3.58954 -1.10573e-18 3.73115e-36)
(51.7494 1.41868 5.60798e-18 3.49174 -1.0516e-18 3.71329e-36)
(55.4644 3.10838 0 3.37991 0 0)
(60.7005 4.74077 0 3.26153 0 0)
(67.4826 6.32239 0 3.13219 0 0)
(75.4012 7.79564 -3.05812e-18 3.00231 7.96159e-19 3.38672e-36)
(84.5234 9.09911 0 2.87414 0 0)
(94.0678 10.2889 2.96263e-18 2.73922 -1.35212e-18 1.23807e-35)
(103.933 11.2494 -1.32164e-18 2.60852 1.21876e-18 1.16822e-35)
(113.553 12.0391 3.18171e-19 2.47684 1.10538e-18 1.10367e-35)
(123.204 12.6905 -2.02473e-18 2.35143 -1.01574e-18 1.03526e-35)
(131.328 13.2326 3.68518e-18 2.23215 9.2342e-19 9.78541e-36)
(139.227 13.7125 -5.29847e-18 2.12448 -9.05557e-19 9.01769e-36)
(142.994 14.4058 0 2.06843 0 0)
(0.0182989 0.174033 0 6.08843 0 0)
(0.202592 0.387435 0 6.02664 0 0)
(0.629058 0.609049 1.3182e-19 5.85424 1.7552e-19 6.75706e-37)
(1.32609 0.853197 0 5.73366 0 0)
(2.26753 1.13202 -1.92729e-19 5.67397 -3.52671e-19 9.1833e-37)
(3.44291 1.43622 -1.84537e-19 5.64693 -4.40335e-19 9.71265e-37)
(4.8311 1.76024 -8.10919e-20 5.63161 -2.50797e-19 2.48624e-37)
(6.41785 2.1001 -6.94519e-20 5.61363 -2.69673e-19 2.60842e-37)
(8.19531 2.44856 0 5.58531 0 0)
(10.1615 2.80118 -4.27955e-20 5.54273 -2.6853e-19 2.58978e-37)
(12.3176 3.14919 0 5.49085 0 0)
(14.662 3.49025 0 5.43122 0 0)
(17.1862 3.81916 9.5969e-20 5.36298 4.2305e-19 9.49469e-37)
(19.8911 4.13553 7.00756e-20 5.29116 1.8666e-19 2.33726e-37)
(22.766 4.4296 -1.86378e-19 5.21607 -3.26003e-19 8.92079e-37)
(25.805 4.70126 -2.52335e-19 5.13806 -2.81174e-19 8.64388e-37)
(28.9967 4.95199 -1.71344e-19 5.05392 -1.18514e-19 2.12372e-37)
(32.335 5.18332 0 4.96342 0 0)
(35.8077 5.39365 0 4.86796 0 0)
(39.4064 5.58759 0 4.76551 0 0)
(43.108 5.76419 -3.86175e-19 4.66084 -3.69772e-20 1.80059e-37)
(46.9037 5.92062 0 4.55652 0 0)
(50.7709 6.04857 1.6068e-18 4.45019 -1.54494e-20 1.54895e-36)
(54.6972 6.15173 0 4.34741 0 0)
(58.6654 6.23177 0 4.24242 0 0)
(62.6583 6.28887 7.73761e-19 4.13835 -5.74357e-20 1.56203e-37)
(66.6481 6.31977 0 4.03249 0 0)
(70.616 6.33369 -9.31674e-19 3.932 8.1572e-20 1.45707e-37)
(74.5287 6.32429 -1.99084e-18 3.83218 1.81142e-19 5.55999e-37)
(78.3759 6.28642 1.07561e-18 3.72967 -9.85618e-20 1.36357e-37)
(82.1538 6.21713 0 3.62218 0 0)
(85.8621 6.12001 0 3.51726 0 0)
(89.4875 5.99755 0 3.41432 0 0)
(93.0337 5.85087 -2.57375e-18 3.3065 2.22745e-19 4.70502e-37)
(96.4924 5.67461 -2.65212e-18 3.19926 2.20342e-19 4.544e-37)
(99.877 5.46909 -1.37228e-18 3.09839 1.07631e-19 1.10582e-37)
(103.196 5.23257 0 3.00656 0 0)
(106.441 4.96006 2.83557e-18 2.91857 -2.0319e-19 4.12219e-37)
(109.623 4.64948 0 2.83353 0 0)
(112.733 4.31014 -2.8726e-18 2.75224 1.88737e-19 3.81061e-37)
(115.781 3.94305 0 2.67227 0 0)
(118.761 3.55609 0 2.60055 0 0)
(121.681 3.15327 2.82631e-18 2.53005 -1.54619e-19 3.31284e-37)
(124.527 2.73187 0 2.46486 0 0)
(127.279 2.28484 8.15708e-18 2.4069 -3.94834e-19 2.68105e-36)
(129.935 1.80782 -2.68808e-18 2.36159 1.19647e-19 2.83336e-37)
(132.5 1.30529 0 2.33426 0 0)
(134.989 0.777259 -2.54881e-18 2.31807 9.13247e-20 2.51424e-37)
(137.385 0.216409 -2.46835e-18 2.31135 7.70309e-20 2.35869e-37)
(139.688 -0.370611 0 2.31326 0 0)
(141.875 -0.9691 0 2.3263 0 0)
(143.928 -1.56501 0 2.34099 0 0)
(145.831 -2.14922 0 2.35419 0 0)
(147.547 -2.72576 0 2.37759 0 0)
(149.064 -3.30312 1.88427e-18 2.41032 1.44097e-20 1.71766e-37)
(150.359 -3.88883 3.45321e-18 2.45352 7.09663e-20 6.54627e-37)
(151.413 -4.47809 -1.64555e-18 2.50452 -5.58521e-20 1.59801e-37)
(152.236 -5.08566 0 2.56056 0 0)
(152.802 -5.69514 2.68989e-18 2.62377 1.90244e-19 6.0034e-37)
(153.083 -6.2848 -1.17142e-18 2.69204 -1.13247e-19 1.46594e-37)
(153.105 -6.87054 0 2.76878 0 0)
(152.822 -7.45135 -9.79671e-19 2.85871 -1.48539e-19 1.49256e-37)
(152.244 -8.01044 0 2.95211 0 0)
(151.366 -8.56052 0 3.05332 0 0)
(150.186 -9.09319 -1.05158e-18 3.16064 -3.96436e-19 6.24712e-37)
(148.692 -9.5972 4.24602e-19 3.27278 2.14969e-19 1.63536e-37)
(146.918 -10.0919 -4.92776e-19 3.39238 -4.6204e-19 6.67589e-37)
(144.858 -10.565 2.15797e-19 3.5171 4.89133e-19 6.914e-37)
(142.535 -11.0084 1.1676e-20 3.64144 2.54489e-19 1.82512e-37)