/*--------------------------------*- C++ -*----------------------------------*\
| =========                 |                                                 |
| \\      /  F ield         | OpenFOAM: The Open Source CFD Toolbox           |
|  \\    /   O peration     | Version:  dev                                   |
|   \\  /    A nd           | Web:      http://www.openfoam.org               |
|    \\/     M anipulation  |                                                 |
\*---------------------------------------------------------------------------*/
FoamFile
{
    version     2.0;
    format      ascii;
    class       volScalarField;
    object      k;
    location    "9.161";
}
// * * * * * * * * * * * * * * * * * * * * * * * * * * * * * * * * * * * * * //

dimensions      [0 2 -2 0 0 0 0];

internalField   nonuniform List<scalar> 
12225
(
8.14667
9.32219
6.35965
6.57919
5.39429
6.98159
6.91863
8.44074
9.80406
10.3363
13.4124
12.0986
15.9676
14.4197
20.1226
23.3821
24.3856
42.8779
1.9599
5.94167
5.19499
6.41379
4.561
6.44097
4.25997
6.89188
4.80381
7.69418
6.03572
8.03874
8.03896
8.21884
12.2067
11.753
27.7466
48.0869
0.172737
1.71746
1.85809
3.06461
2.60313
3.51818
2.88864
3.54765
3.22854
3.24348
3.51306
2.68787
3.63599
2.29214
4.77749
3.32806
14.2983
36.1135
0.0129393
0.348284
0.465974
0.844715
0.998775
1.14198
1.56511
1.47541
2.1776
1.55821
2.27325
1.26942
1.96103
0.98422
1.95584
1.00402
5.65769
14.0152
0.00089215
0.0494727
0.0884658
0.161407
0.312722
0.378988
0.59322
0.599026
0.859905
0.670556
0.968935
0.562219
0.960981
0.482596
0.952814
0.472378
2.36307
4.11719
0.00289662
0.0626377
0.0673615
0.1062
0.13256
0.154019
0.225676
0.21506
0.312161
0.229695
0.371909
0.210933
0.414282
0.212621
0.467263
0.363729
0.969629
1.28027
0.00114862
0.00754368
0.0199709
0.0214849
0.039077
0.0374727
0.0662145
0.0529535
0.0941074
0.0628522
0.121805
0.0722087
0.15059
0.0901727
0.192216
0.15724
0.473199
0.452796
0.000212796
0.000868803
0.00464487
0.0049596
0.0108537
0.00999011
0.0196832
0.0151736
0.0290966
0.0202939
0.0401687
0.026746
0.0533886
0.0367496
0.074638
0.0568241
0.170212
0.179084
0.000368281
0.000840867
0.0021954
0.00263607
0.00450504
0.00451734
0.00757123
0.00686044
0.0109024
0.00951034
0.0151868
0.0130406
0.0207561
0.0182567
0.0297656
0.0295074
0.0607109
0.0701867
0.000399182
0.00150156
0.00230998
0.00269055
0.00335187
0.00371542
0.00471358
0.00506856
0.00633966
0.00686102
0.00888756
0.00940601
0.0116356
0.0127623
0.0160819
0.0177843
0.028403
0.0326662
0.000703316
0.00285239
0.00315726
0.00364328
0.00377889
0.0041424
0.00461414
0.00514851
0.00598934
0.00675695
0.0079537
0.00875519
0.00969168
0.0109749
0.0128661
0.0136007
0.0174357
0.0197141
0.00241571
0.00445263
0.00504247
0.00578181
0.00572361
0.00619148
0.00606415
0.00692749
0.00757462
0.0085847
0.00938069
0.0102175
0.0105819
0.0114912
0.0126355
0.0129956
0.0146791
0.0160831
0.00467527
0.0075221
0.00828777
0.00952683
0.00990734
0.010323
0.0103059
0.0106627
0.0107638
0.0114284
0.0118701
0.0124388
0.0127735
0.0129674
0.0134163
0.0135519
0.0142344
0.0148741
0.0089276
0.0128244
0.0138892
0.014947
0.0157823
0.016152
0.0163361
0.0162897
0.0159911
0.0157156
0.0155664
0.0155055
0.0155294
0.0155225
0.01569
0.0157681
0.0155291
0.0153334
0.0144132
0.0190161
0.020453
0.0216251
0.0223143
0.0225597
0.022786
0.0227631
0.0225214
0.0219474
0.0215842
0.0214161
0.0213803
0.0213246
0.0210935
0.0205051
0.019384
0.0181977
0.0235826
0.0298519
0.0315018
0.0322633
0.0326197
0.0325897
0.0323141
0.0316543
0.0305158
0.0294904
0.0284809
0.0276933
0.0267109
0.0258239
0.0245698
0.0233333
0.021751
0.0202564
0.0308566
0.0365084
0.0376517
0.0376452
0.0374532
0.0371431
0.0363617
0.0347372
0.0331646
0.0318027
0.0305131
0.0294232
0.0281153
0.0269279
0.0254662
0.0240639
0.0223393
0.0207437
0.0288576
0.0354308
0.0373055
0.0374878
0.03735
0.0369954
0.0360741
0.0344224
0.0328711
0.0315047
0.0301666
0.0289901
0.0275856
0.0262695
0.0246825
0.0230958
0.0212474
0.019521
0.0229575
0.0293013
0.0316137
0.0325592
0.0327355
0.032634
0.0320984
0.0308774
0.0296289
0.0285812
0.0274864
0.0263977
0.0250187
0.0235757
0.0218807
0.0201923
0.0182872
0.0165911
0.0153059
0.0188808
0.0201006
0.0209574
0.0214509
0.0216002
0.0216243
0.0215076
0.0210628
0.0205754
0.0199874
0.019293
0.0183177
0.0171661
0.0157826
0.0144669
0.0130706
0.0119202
0.00841196
0.0109444
0.0119675
0.012787
0.0132964
0.0134613
0.0134845
0.0133332
0.0128534
0.0125118
0.0121554
0.0118446
0.0113739
0.0108801
0.0102438
0.00968774
0.00908212
0.00856319
0.00449126
0.0060339
0.00703333
0.00755255
0.00804063
0.00833654
0.00839635
0.00839233
0.00836243
0.00822791
0.00798746
0.00774699
0.00752456
0.00741941
0.00741044
0.00740767
0.00736727
0.0072321
0.00254118
0.00343286
0.00396543
0.00424138
0.00439746
0.00468305
0.00519271
0.00577656
0.00618472
0.00637311
0.00643502
0.0064716
0.00653932
0.00669955
0.00712082
0.00753811
0.00786961
0.00802461
0.00125155
0.00168662
0.00190513
0.00230596
0.00282884
0.00362673
0.00483987
0.00615206
0.00722234
0.00779578
0.00817256
0.0086006
0.00940874
0.0110184
0.0129125
0.0145985
0.0160944
0.016954
0.000363803
0.000696667
0.00124457
0.00230145
0.00431176
0.00833987
0.0140557
0.0194811
0.0232978
0.0250906
0.0265418
0.0290235
0.0333758
0.0403314
0.0474564
0.0534064
0.0579379
0.0603934
0.000132672
0.00148218
0.00577185
0.0153136
0.0336205
0.061297
0.0896469
0.110458
0.121276
0.125594
0.130508
0.139492
0.152894
0.171499
0.188562
0.202029
0.210305
0.214691
0.00102581
0.0206827
0.0751088
0.170799
0.290867
0.402583
0.483196
0.527139
0.544559
0.551212
0.560996
0.576084
0.596263
0.620905
0.639699
0.651231
0.652805
0.651273
0.0272621
0.309298
0.821541
1.216
1.52684
1.73131
1.81067
1.8141
1.80126
1.77781
1.76424
1.75196
1.73862
1.72069
1.68876
1.65291
1.60138
1.57068
0.687173
3.23697
4.45454
4.7017
4.6109
4.39617
4.1141
3.87644
3.68283
3.53218
3.4067
3.28578
3.16376
3.0285
2.89814
2.76223
2.63993
2.5417
6.56751
10.0327
9.24848
7.76198
6.55849
5.94255
5.68753
5.62671
5.64148
5.70102
5.74956
5.77064
5.77053
5.74497
5.69276
5.62244
5.53906
5.40086
0.053773
0.062118
0.068424
0.0792439
0.0943865
0.113529
0.133046
0.152791
0.174041
0.196651
0.22235
0.248372
0.280347
0.320274
0.364014
0.411927
0.468595
0.533038
0.596855
0.66096
0.738187
0.82763
0.909759
0.986873
1.06219
1.11135
1.15935
1.25961
1.40695
1.52925
1.59027
1.6103
1.63105
1.67688
1.79105
1.98805
2.15493
2.32861
2.62176
3.30652
4.14263
4.8281
5.39708
5.92208
6.42483
6.89994
7.34334
7.74528
8.09685
8.38613
8.60637
8.76145
8.84713
8.8843
8.851
8.75754
8.60247
8.40696
8.16041
7.88675
7.59195
7.27068
6.95729
6.64389
6.34089
6.03287
5.75428
5.48935
5.21952
4.97346
4.74627
4.51168
4.29359
4.08775
3.88373
3.69831
3.53195
3.37135
3.22458
3.10049
3.00097
2.92148
2.85352
2.80143
2.75247
2.70555
2.66498
2.63811
2.62771
2.63075
2.67424
2.71255
2.731
2.73787
2.74147
2.74072
2.73748
2.72713
2.71767
2.71774
2.7169
2.69354
2.6492
2.61643
2.54877
2.42203
2.25193
2.06677
1.97024
1.91527
1.8966
2.00231
2.31182
2.53009
2.55753
2.46626
2.14258
1.65852
1.30527
1.27183
2.27362
3.93543
4.37644
4.25039
4.00214
3.35745
2.54432
2.41667
2.45975
2.18864
2.17874
2.36861
2.66391
3.20919
3.81373
4.47284
5.14628
5.77316
6.44916
7.24125
8.17179
9.23622
10.2219
10.7941
11.0574
11.2692
11.5716
12.0434
12.4752
12.8444
13.2443
13.5149
13.8398
14.1279
14.2512
14.0691
13.9662
14.6779
14.98
14.8388
13.6247
11.4463
10.3403
10.0301
10.1814
12.1533
18.008
27.4081
30.9112
18.4688
12.8768
9.49226
9.20532
10.1157
9.29066
9.30705
10.0093
11.6138
14.2506
16.7927
0.181151
0.136732
0.137329
0.15696
0.182397
0.203896
0.202827
0.19341
0.172425
0.154359
0.138865
0.123901
0.112466
0.105165
0.102533
0.103455
0.106423
0.113992
0.131565
0.145699
0.162333
0.198609
0.250786
0.281829
0.316564
0.348175
0.37637
0.428481
0.458178
0.517529
0.563274
0.650254
0.767098
0.941905
1.45566
2.26089
2.66462
2.79036
2.92411
3.20673
3.43048
3.43092
3.34825
3.26541
3.14871
3.03176
2.8973
2.75056
2.58245
2.40706
2.21863
2.02249
1.83819
1.64805
1.47091
1.30518
1.1392
0.999573
0.876584
0.808453
0.745541
0.705076
0.671397
0.652607
0.640366
0.631375
0.63138
0.631394
0.628414
0.632687
0.63767
0.634009
0.631223
0.629043
0.627675
0.625465
0.626478
0.624364
0.626603
0.635904
0.662644
0.70688
0.744736
0.812246
0.851849
0.859673
0.85239
0.823531
0.804221
0.813231
0.89274
1.03662
1.15272
1.20114
1.22499
1.24183
1.26917
1.26845
1.25723
1.2698
1.32003
1.34485
1.34406
1.35485
1.36579
1.34749
1.26283
1.05774
0.846212
0.739673
0.702458
0.721985
0.861521
1.0601
1.35205
1.52443
1.48358
1.30764
1.34228
1.9368
2.82231
3.23924
2.44298
1.93929
1.57774
1.24534
1.14423
1.31727
1.31042
1.06573
1.19488
1.32403
1.44066
1.58467
1.81406
2.08067
2.35606
2.65248
2.83956
3.03937
3.37431
3.83612
4.5398
5.39645
6.04803
6.26947
6.4757
6.75954
7.0719
7.32739
7.63238
7.69279
7.86038
8.24776
8.4058
8.21804
8.04394
9.05472
10.3404
10.7039
9.63893
8.05827
7.60729
8.16318
8.90871
10.0318
12.1561
13.3161
9.71672
5.05088
4.70544
5.64216
6.84945
7.19934
6.77917
6.49663
6.6592
7.24628
8.81333
11.2086
0.416941
0.254379
0.268531
0.320621
0.337402
0.308117
0.253905
0.219315
0.190737
0.166517
0.14714
0.128176
0.112635
0.0998711
0.0868278
0.075792
0.0677132
0.0635769
0.0632263
0.0636742
0.0652617
0.0713567
0.0870352
0.0997546
0.119991
0.135038
0.15164
0.187607
0.291226
0.501234
0.807715
1.54133
1.96314
1.93962
1.93099
2.12865
2.12926
1.99738
1.89937
1.62251
1.43045
1.28176
1.11914
0.975195
0.848276
0.736668
0.637654
0.552031
0.472369
0.403509
0.347581
0.299441
0.265983
0.236769
0.215942
0.200208
0.188728
0.181944
0.178636
0.178928
0.17921
0.178822
0.178514
0.178274
0.177405
0.176229
0.175861
0.176008
0.177167
0.179364
0.182603
0.184852
0.187456
0.19033
0.192223
0.193091
0.194284
0.194625
0.19537
0.198727
0.206643
0.219427
0.230342
0.255095
0.274971
0.280694
0.280487
0.269083
0.252103
0.248112
0.264826
0.316246
0.402386
0.461042
0.484488
0.495301
0.52815
0.551426
0.558512
0.571381
0.609832
0.648988
0.664376
0.676883
0.715139
0.829861
0.880372
0.840894
0.713708
0.560095
0.513884
0.522434
0.577393
0.672035
0.912882
1.10571
1.11111
1.1101
1.43247
2.05794
2.3711
1.85879
1.29567
1.05713
0.901757
0.766963
0.747505
0.865356
0.855069
0.717679
0.7812
0.832246
0.925127
0.963791
1.06093
1.19191
1.31208
1.44773
1.50588
1.51194
1.53869
1.64212
1.90748
2.40882
3.10865
3.4704
3.5485
3.59845
3.72762
3.90906
4.26976
4.33551
4.40788
4.70441
4.90253
4.68703
4.41616
4.81498
5.61758
6.04722
5.59118
5.10635
5.90851
7.85833
8.05362
7.68013
7.97508
7.76327
5.1308
3.66517
3.20744
3.35428
4.47366
5.187
4.88686
4.39687
4.40831
4.50308
4.92299
6.19693
0.804936
0.495875
0.560144
0.545087
0.440575
0.32648
0.248125
0.195252
0.160777
0.135493
0.117674
0.103872
0.0944488
0.0872275
0.0790416
0.0717292
0.0669695
0.0645401
0.063158
0.0632545
0.0651526
0.0740888
0.0830041
0.0893284
0.101858
0.13151
0.196932
0.332452
0.923812
1.65985
1.76611
1.71518
1.7256
1.58421
1.45248
1.19248
1.02541
0.881649
0.753675
0.621484
0.509312
0.428403
0.355297
0.298598
0.251663
0.217978
0.191905
0.171279
0.157677
0.147935
0.142231
0.139323
0.141116
0.14365
0.147177
0.151185
0.155552
0.160004
0.16488
0.169685
0.171785
0.172483
0.172711
0.171767
0.169203
0.16546
0.161021
0.156225
0.153835
0.152268
0.151243
0.150858
0.151057
0.152356
0.153734
0.154105
0.154174
0.153041
0.150855
0.15009
0.150696
0.153808
0.155373
0.158989
0.162511
0.163237
0.162116
0.155644
0.146924
0.144647
0.146954
0.163705
0.20609
0.246413
0.26413
0.267265
0.278306
0.299448
0.309099
0.31589
0.344095
0.372241
0.381604
0.385483
0.398708
0.446803
0.52788
0.589365
0.599701
0.535602
0.501678
0.526249
0.605626
0.679751
0.813543
0.913763
0.933207
1.03728
1.4501
1.93336
1.78091
1.1602
0.893655
0.804055
0.753484
0.650278
0.592612
0.629316
0.641401
0.600674
0.599414
0.599767
0.665614
0.721163
0.778989
0.910412
1.00471
1.0419
1.05984
1.0475
1.01145
1.02165
1.094
1.30121
1.67
2.2672
2.52704
2.50466
2.45345
2.47333
2.65362
2.77776
2.8838
3.21609
3.63238
3.47996
3.1514
3.33314
3.72717
3.9578
3.93275
4.24291
5.6712
7.18228
6.96837
5.93206
5.81471
5.5926
3.98713
3.46682
2.88445
2.49212
2.7846
4.23226
4.04063
3.70557
3.62255
3.44561
3.45308
3.94198
1.39974
0.986825
0.889806
0.635314
0.403747
0.249294
0.169033
0.127482
0.105239
0.0932131
0.0878304
0.0858032
0.0848729
0.0843234
0.0825074
0.0821622
0.0864286
0.0895947
0.089783
0.0918407
0.105324
0.121157
0.130784
0.1489
0.195448
0.379977
0.993879
1.34619
1.49115
1.61018
1.4871
1.22417
0.999069
0.838557
0.696863
0.546033
0.445116
0.366201
0.301318
0.251726
0.208565
0.175758
0.15556
0.14048
0.129921
0.123729
0.119681
0.117385
0.118235
0.120551
0.124349
0.129657
0.136001
0.142572
0.149278
0.156354
0.163157
0.169192
0.174309
0.177381
0.179802
0.181519
0.18202
0.181775
0.180417
0.17725
0.171437
0.161944
0.154303
0.149941
0.146444
0.145004
0.144796
0.145033
0.14652
0.148151
0.149194
0.148778
0.147151
0.143014
0.140977
0.141012
0.141679
0.14165
0.140372
0.138617
0.136075
0.129826
0.124186
0.123191
0.124099
0.131897
0.156786
0.18216
0.18919
0.189908
0.191418
0.202064
0.211862
0.21679
0.237721
0.258921
0.264331
0.261971
0.258932
0.270133
0.305301
0.353288
0.387745
0.421397
0.451291
0.521077
0.681606
0.740746
0.805328
0.84707
0.90466
1.04955
1.35348
1.58898
1.33098
0.858693
0.695061
0.641113
0.612754
0.555014
0.491489
0.492748
0.512852
0.523237
0.499625
0.498833
0.557714
0.650955
0.694374
0.730044
0.85168
0.922911
0.927822
0.913885
0.869973
0.837901
0.850337
0.921601
1.09223
1.4552
1.93237
2.15064
2.11329
1.98625
2.01105
2.05253
2.10669
2.36768
2.91671
2.90738
2.65369
2.73235
2.95725
3.12248
3.39473
4.26357
5.41288
5.95193
5.41641
5.13841
5.13245
4.48333
3.57918
3.31254
2.72441
2.1456
2.38711
3.4585
3.46645
3.29265
3.223
3.13163
2.7571
2.82869
2.23959
1.62867
0.999634
0.49321
0.228684
0.146626
0.11785
0.0993806
0.0885363
0.0849071
0.0863051
0.0921272
0.103288
0.114341
0.120713
0.135712
0.161494
0.171475
0.182059
0.217645
0.282773
0.334979
0.447272
0.636589
0.869566
1.0844
1.24537
1.34127
1.28391
1.02597
0.836268
0.65746
0.509532
0.403321
0.32537
0.259609
0.208762
0.179221
0.153336
0.137288
0.125101
0.116947
0.113061
0.11085
0.109821
0.110367
0.111962
0.114336
0.117866
0.122752
0.129173
0.137174
0.145993
0.154983
0.163737
0.171513
0.176301
0.178553
0.179656
0.180151
0.179482
0.178788
0.178487
0.178138
0.178901
0.178124
0.175039
0.166471
0.156878
0.148686
0.143054
0.140816
0.140246
0.140504
0.142708
0.145166
0.147544
0.148196
0.148613
0.146165
0.140017
0.136325
0.135217
0.135404
0.134761
0.13209
0.127997
0.123507
0.117922
0.115777
0.115925
0.120359
0.133322
0.155092
0.161739
0.159573
0.158295
0.161757
0.16834
0.17298
0.188617
0.206179
0.211271
0.205637
0.196185
0.196016
0.205383
0.230402
0.261818
0.290645
0.334087
0.459562
0.695607
0.779965
0.778418
0.771312
0.891676
1.10339
1.19
1.2065
1.00686
0.73325
0.638549
0.56633
0.50394
0.458113
0.403142
0.398472
0.405382
0.431681
0.431653
0.440547
0.501204
0.628698
0.680899
0.665449
0.669317
0.752774
0.788823
0.777602
0.75639
0.744129
0.752583
0.790468
0.882765
1.07704
1.44588
1.72097
1.79171
1.76205
1.73359
1.69559
1.77165
2.09222
2.42867
2.58767
2.52175
2.51923
2.59646
2.76166
3.21928
4.33601
5.0291
4.94347
4.39823
4.44435
4.57994
4.30345
3.38662
3.33375
2.6698
2.0803
2.20147
2.64456
3.009
2.86283
2.91896
2.84536
2.60924
2.29017
3.25844
1.94787
0.803212
0.283042
0.15345
0.124741
0.107038
0.0922013
0.0868053
0.0908954
0.107662
0.134203
0.166964
0.197449
0.222097
0.266793
0.32891
0.374742
0.428772
0.499848
0.580221
0.683797
0.796537
0.896519
0.991428
1.07355
1.0751
0.936092
0.735673
0.552641
0.436464
0.352557
0.270859
0.211545
0.178618
0.152743
0.132633
0.122962
0.115531
0.111546
0.109305
0.108303
0.10847
0.10907
0.110072
0.112546
0.116586
0.122423
0.131086
0.142697
0.155502
0.168636
0.180421
0.190065
0.19622
0.199308
0.200921
0.201455
0.198358
0.191333
0.184415
0.177158
0.170851
0.164801
0.1619
0.160552
0.160556
0.158584
0.152396
0.142354
0.134466
0.130504
0.129257
0.129527
0.132874
0.138301
0.140662
0.140992
0.142426
0.143556
0.140965
0.136397
0.132074
0.128999
0.127315
0.125932
0.124266
0.121005
0.115965
0.110585
0.109693
0.111028
0.115262
0.123554
0.129582
0.129413
0.129829
0.133245
0.147991
0.154571
0.164504
0.179424
0.180124
0.176825
0.165322
0.162571
0.169191
0.189787
0.209007
0.229822
0.270179
0.392795
0.691909
0.79319
0.740698
0.688149
0.820296
1.10433
1.15604
1.06059
0.881918
0.71954
0.654726
0.592747
0.469177
0.415781
0.367615
0.352296
0.354805
0.390855
0.398656
0.408411
0.458705
0.576057
0.643343
0.625021
0.575359
0.590843
0.639645
0.648078
0.645126
0.634924
0.64343
0.713243
0.816924
0.937987
1.15888
1.341
1.50186
1.6044
1.58649
1.59403
1.78683
2.16532
2.26045
2.42448
2.52992
2.4755
2.48183
2.58057
3.15542
4.20926
4.65395
4.30036
3.97168
4.27516
4.68108
4.22693
3.22466
3.46213
2.67295
2.05446
1.94546
2.11942
2.58569
2.46811
2.48576
2.45875
2.34713
2.05125
4.28099
2.04214
0.587789
0.202295
0.137294
0.121136
0.104019
0.0935594
0.0962171
0.118422
0.171866
0.21057
0.246569
0.293025
0.324047
0.375665
0.438966
0.495528
0.55752
0.611523
0.674499
0.737498
0.808271
0.866022
0.868434
0.788558
0.640961
0.506893
0.403441
0.311869
0.237842
0.200395
0.166281
0.138998
0.126283
0.117808
0.111854
0.108852
0.107126
0.107591
0.10829
0.109545
0.112551
0.116525
0.122505
0.130573
0.141017
0.153438
0.165974
0.177471
0.188402
0.197981
0.205595
0.210634
0.214341
0.216213
0.217001
0.216524
0.213502
0.205638
0.195262
0.183887
0.172913
0.165374
0.156511
0.152108
0.150012
0.147417
0.141277
0.132315
0.124641
0.121316
0.120559
0.121562
0.124603
0.128434
0.132081
0.133829
0.132525
0.130917
0.130352
0.129092
0.126833
0.12395
0.119307
0.115609
0.115199
0.115195
0.114013
0.107943
0.102823
0.10219
0.103634
0.106479
0.109664
0.11174
0.112592
0.115074
0.125941
0.132109
0.138541
0.15252
0.161337
0.158428
0.151066
0.146603
0.15344
0.176832
0.193813
0.207633
0.240869
0.344755
0.668752
0.793112
0.729106
0.643403
0.702518
0.999911
1.07426
0.969576
0.828487
0.727797
0.712264
0.649164
0.461007
0.372901
0.328609
0.307886
0.309815
0.337348
0.383285
0.39037
0.447755
0.467763
0.532203
0.528652
0.519702
0.526767
0.577739
0.58518
0.579911
0.572426
0.578102
0.624373
0.77981
0.901571
0.995787
1.12354
1.38888
1.51282
1.50291
1.57659
2.04481
2.23199
2.20147
2.33143
2.49815
2.34158
2.3764
2.51064
3.09404
3.89751
4.15752
3.84003
3.69359
3.83564
4.47249
3.93464
3.71103
3.57975
2.39362
1.94746
1.85631
1.9672
2.30012
2.24976
2.09555
2.04681
1.9766
1.81735
5.2087
2.0578
0.482339
0.174508
0.135836
0.122099
0.106977
0.105309
0.127173
0.17953
0.224009
0.25742
0.302569
0.352893
0.384099
0.428698
0.481966
0.526899
0.573276
0.614432
0.662531
0.699498
0.692494
0.647601
0.553415
0.456358
0.366447
0.285357
0.229121
0.186728
0.14872
0.131199
0.11821
0.108302
0.104228
0.101787
0.101232
0.103132
0.105202
0.107094
0.110332
0.114926
0.121075
0.128572
0.137065
0.146628
0.157323
0.168243
0.178408
0.187946
0.196868
0.204089
0.207545
0.209331
0.209951
0.208553
0.206655
0.205649
0.203748
0.200381
0.193807
0.183983
0.171401
0.165721
0.154958
0.14962
0.147426
0.146885
0.143795
0.135246
0.123334
0.118232
0.116676
0.11769
0.121463
0.123782
0.124723
0.12563
0.125283
0.123816
0.118456
0.112897
0.112411
0.112471
0.11125
0.107185
0.105003
0.104864
0.105013
0.103025
0.0977776
0.0973293
0.0981411
0.0988919
0.0994577
0.101559
0.102653
0.104466
0.110157
0.114215
0.118507
0.131091
0.145762
0.145992
0.141511
0.139697
0.147798
0.173785
0.193893
0.20364
0.226006
0.313623
0.612975
0.784927
0.729257
0.634292
0.633259
0.782733
0.879889
0.846428
0.782619
0.748905
0.766317
0.648256
0.417893
0.343985
0.297901
0.285202
0.281434
0.303346
0.36468
0.356766
0.405842
0.406945
0.438424
0.461936
0.467504
0.483716
0.552483
0.562527
0.544556
0.526518
0.531739
0.565782
0.699924
0.882311
0.944084
1.00804
1.21436
1.37285
1.45785
1.68893
2.17983
2.219
2.17674
2.21684
2.34463
2.11494
2.20682
2.47022
2.99455
3.58199
3.72231
3.48413
3.43875
3.56126
3.65327
4.17627
3.80251
3.30226
2.27226
1.89524
1.82846
1.94357
2.12826
2.09216
1.90036
1.82425
1.80486
1.75676
6.02006
1.96047
0.37713
0.161685
0.139212
0.126285
0.121038
0.134308
0.169301
0.208604
0.244879
0.285393
0.338323
0.379731
0.405115
0.444859
0.485384
0.520239
0.551113
0.566932
0.552904
0.524686
0.46555
0.401288
0.336652
0.269029
0.214397
0.17188
0.143305
0.124922
0.108526
0.101018
0.0967735
0.0938745
0.0927413
0.0936664
0.0958998
0.0985014
0.101685
0.10599
0.110917
0.116809
0.123272
0.131087
0.140066
0.149315
0.15879
0.168614
0.177987
0.185743
0.190176
0.191661
0.189075
0.182153
0.172763
0.161797
0.153999
0.149794
0.149031
0.152097
0.156506
0.156133
0.149139
0.142305
0.138216
0.137382
0.137772
0.13976
0.141643
0.139728
0.128722
0.115283
0.10965
0.107801
0.110396
0.114809
0.116914
0.118439
0.116531
0.11191
0.108319
0.10132
0.0977807
0.0969085
0.0953965
0.091417
0.0890951
0.0899935
0.0915822
0.0927432
0.0902754
0.0901192
0.0913347
0.092739
0.0944571
0.0964093
0.0963049
0.0956346
0.0972411
0.099902
0.103158
0.1216
0.140118
0.141292
0.136136
0.130617
0.136871
0.166687
0.193722
0.207541
0.226132
0.297886
0.568954
0.750555
0.729938
0.63694
0.60945
0.665475
0.756864
0.770955
0.773885
0.784538
0.772298
0.625585
0.397268
0.330197
0.282303
0.268702
0.264849
0.281946
0.339897
0.339604
0.340948
0.344863
0.388808
0.438951
0.442911
0.447062
0.485512
0.550162
0.540447
0.513276
0.515414
0.540896
0.626458
0.864418
0.931574
0.971979
1.14079
1.2651
1.41871
1.7351
2.12232
2.05809
2.06542
2.04637
2.14103
1.95669
2.09465
2.41894
2.89855
3.23041
3.37353
3.23624
3.07503
3.27277
3.56185
3.63029
4.03305
2.86829
2.20606
1.86063
1.74382
1.90734
1.97558
1.86077
1.69943
1.64818
1.6588
1.67529
6.6724
1.84737
0.330986
0.156302
0.142069
0.137079
0.137202
0.154508
0.18486
0.219909
0.256296
0.300107
0.349224
0.382802
0.40441
0.435258
0.457313
0.460628
0.450574
0.42921
0.395235
0.353452
0.309286
0.256225
0.21244
0.173017
0.141475
0.120965
0.10641
0.098477
0.0925794
0.0900848
0.0888383
0.0889704
0.090444
0.0928032
0.0956727
0.0981864
0.100462
0.104135
0.110702
0.118247
0.12535
0.13287
0.140995
0.149014
0.157118
0.164941
0.169637
0.17044
0.167645
0.163065
0.157885
0.151502
0.142304
0.135246
0.131607
0.126037
0.122777
0.122523
0.126995
0.135162
0.136554
0.132429
0.122516
0.117641
0.117594
0.121472
0.128008
0.130582
0.127615
0.113935
0.0984308
0.0922866
0.0907464
0.0927343
0.0978501
0.10206
0.10296
0.103625
0.10056
0.093427
0.0883237
0.0866845
0.0850049
0.0818188
0.0795437
0.0797367
0.0807249
0.0820791
0.0813759
0.0816656
0.0849294
0.0877432
0.0884774
0.0884012
0.0876317
0.0871223
0.088107
0.0918919
0.0975464
0.113552
0.130522
0.133515
0.126431
0.119352
0.123242
0.147047
0.188864
0.208926
0.229577
0.286116
0.537607
0.721444
0.7204
0.654524
0.609035
0.625784
0.709675
0.742284
0.773036
0.782768
0.748962
0.532062
0.369635
0.307131
0.260326
0.247533
0.249536
0.262248
0.29272
0.30066
0.296553
0.307768
0.368339
0.431162
0.424371
0.431543
0.457346
0.553059
0.55319
0.517351
0.514973
0.537568
0.602593
0.835118
0.930796
0.957166
1.05762
1.14576
1.34596
1.72592
2.00049
1.95221
1.90121
1.88728
1.98756
1.89462
2.08982
2.34805
2.82099
2.94795
3.0105
2.95283
2.76134
2.79069
3.2216
3.11351
3.40433
2.69642
2.09034
1.71694
1.65558
1.70978
1.76291
1.65023
1.54822
1.52518
1.539
1.58672
7.34248
1.85614
0.323676
0.155623
0.143804
0.140772
0.143152
0.16158
0.191254
0.226518
0.26047
0.301451
0.345303
0.370976
0.381287
0.384365
0.381164
0.368501
0.346031
0.320056
0.290266
0.25366
0.217928
0.179786
0.14869
0.124811
0.109293
0.0996882
0.0929865
0.0897679
0.0878074
0.0870772
0.0874814
0.0886499
0.0908752
0.0939821
0.0972202
0.0992263
0.100751
0.103516
0.109889
0.117964
0.125452
0.132633
0.140136
0.145837
0.149672
0.152498
0.153106
0.15222
0.149886
0.147689
0.145002
0.140639
0.129928
0.122115
0.11922
0.118477
0.115623
0.114052
0.115303
0.123765
0.131612
0.131457
0.125283
0.11463
0.11081
0.111084
0.115817
0.120102
0.119089
0.110915
0.0942413
0.0863085
0.0843455
0.0851276
0.0895543
0.0951383
0.0955118
0.0949241
0.0925221
0.0897022
0.0860777
0.0830675
0.0798391
0.0769167
0.0749259
0.0750237
0.0762651
0.07697
0.0761328
0.0757351
0.0777916
0.0805259
0.0817557
0.0823942
0.0819102
0.0818094
0.083493
0.0869788
0.0952165
0.10398
0.110569
0.113294
0.109102
0.104995
0.108325
0.125849
0.173214
0.205562
0.22924
0.277225
0.495064
0.711605
0.70835
0.660508
0.614128
0.606147
0.659021
0.715139
0.752699
0.735516
0.622265
0.398283
0.317619
0.289031
0.253011
0.238494
0.24244
0.243244
0.257586
0.269911
0.274284
0.291632
0.362644
0.416766
0.406433
0.405888
0.417034
0.536691
0.563019
0.535435
0.522828
0.540952
0.594
0.790722
0.932511
0.951093
0.998554
1.08522
1.30474
1.68473
1.96029
1.92528
1.79994
1.76295
1.89044
1.88226
2.06757
2.25945
2.70999
2.83676
2.7822
2.64506
2.54322
2.56405
2.86496
2.82627
2.75334
2.4618
2.06296
1.66469
1.64116
1.62969
1.6191
1.52882
1.45147
1.43723
1.44846
1.51789
8.19243
1.98021
0.338986
0.155558
0.143231
0.140884
0.144602
0.162981
0.191391
0.225364
0.256611
0.291303
0.318067
0.328395
0.33335
0.335466
0.32773
0.30881
0.283127
0.250788
0.220561
0.191648
0.165158
0.141359
0.119288
0.102712
0.0941316
0.0901487
0.0876631
0.0867133
0.0864421
0.0866715
0.0877055
0.0902351
0.0942576
0.0987372
0.100933
0.102095
0.102476
0.104083
0.107694
0.115529
0.12425
0.130961
0.136895
0.140386
0.141359
0.143376
0.14321
0.142327
0.14069
0.138427
0.134948
0.130272
0.119995
0.111094
0.108723
0.109868
0.112105
0.112402
0.112912
0.117043
0.125486
0.129656
0.129398
0.121257
0.110784
0.108823
0.111313
0.116084
0.115612
0.109762
0.0943279
0.0859846
0.0833865
0.0843879
0.0881304
0.0940592
0.0958712
0.0943309
0.0903522
0.0875987
0.085706
0.0818505
0.0790976
0.0764131
0.0738236
0.0727343
0.0736683
0.0748618
0.073971
0.0733831
0.0747225
0.0758266
0.0760696
0.0760554
0.0751937
0.0756558
0.0779292
0.0838203
0.0938354
0.0967402
0.0972976
0.0971691
0.0963658
0.095497
0.0994
0.116523
0.153394
0.194112
0.226482
0.270588
0.422416
0.693343
0.708178
0.665763
0.607274
0.565114
0.585642
0.64267
0.648304
0.572903
0.453941
0.319993
0.27613
0.265348
0.245106
0.225336
0.226862
0.227353
0.240382
0.257327
0.263954
0.277851
0.350026
0.393142
0.385241
0.364514
0.368061
0.495825
0.558269
0.548803
0.51739
0.53922
0.584475
0.714065
0.914597
0.942812
0.960345
1.01067
1.17847
1.50412
1.82467
1.94928
1.7431
1.68677
1.82956
1.86672
1.98625
2.18902
2.46651
2.74385
2.70393
2.4533
2.38101
2.51557
2.81333
2.43244
2.29968
2.30855
2.017
1.627
1.60926
1.58809
1.56405
1.48745
1.41309
1.40016
1.40416
1.48629
9.16789
2.12813
0.372681
0.153266
0.140166
0.140137
0.144107
0.161168
0.186377
0.215895
0.240461
0.262717
0.281078
0.287869
0.290061
0.287552
0.277233
0.261536
0.239437
0.211498
0.184483
0.157657
0.134208
0.119474
0.105973
0.0961558
0.0899488
0.0868565
0.0854918
0.0853336
0.0855903
0.0863596
0.0881697
0.0914133
0.0963331
0.104189
0.109799
0.110864
0.110469
0.108391
0.108851
0.111795
0.117723
0.123363
0.127912
0.129908
0.1313
0.133072
0.13351
0.133411
0.132887
0.131214
0.127232
0.116428
0.110037
0.107456
0.106991
0.108141
0.110592
0.112644
0.114101
0.117937
0.124315
0.129243
0.132616
0.132748
0.125941
0.116486
0.115226
0.116745
0.116681
0.111774
0.0962923
0.0867269
0.0833775
0.0839083
0.0879662
0.0944347
0.0967228
0.0955463
0.0926491
0.089951
0.0888791
0.0841335
0.0799928
0.0769672
0.0741734
0.0719923
0.0730776
0.0741572
0.0731025
0.0721065
0.0729295
0.073473
0.0738792
0.0726328
0.0717241
0.0721604
0.0739376
0.0805786
0.0888642
0.0887507
0.0881928
0.0888832
0.0902985
0.0900055
0.0940291
0.108384
0.143608
0.180029
0.218256
0.254665
0.358425
0.648531
0.705049
0.677702
0.596926
0.523287
0.511775
0.521541
0.500249
0.429794
0.358949
0.281704
0.252786
0.246344
0.236109
0.220887
0.215766
0.216372
0.231064
0.253484
0.259464
0.266259
0.325361
0.38006
0.370783
0.347148
0.348731
0.406343
0.501089
0.517295
0.506168
0.527072
0.571704
0.642605
0.864295
0.925811
0.93534
0.957916
1.06527
1.32476
1.61157
1.94676
1.67886
1.6488
1.81845
1.81598
1.89242
2.08927
2.20887
2.49553
2.63027
2.40071
2.27097
2.43967
2.42139
2.072
2.08693
2.2565
1.91894
1.5914
1.60633
1.5806
1.54873
1.47122
1.39144
1.36404
1.36631
1.43855
10.3897
2.43592
0.454709
0.154023
0.133651
0.137599
0.141552
0.15427
0.172298
0.195201
0.211075
0.226606
0.250202
0.259495
0.262989
0.261695
0.250309
0.232164
0.211766
0.187365
0.164154
0.142787
0.123611
0.110794
0.102133
0.095644
0.0900203
0.0868719
0.0855237
0.0849612
0.0849369
0.0855435
0.0875279
0.0907688
0.0956898
0.103684
0.110619
0.114169
0.11468
0.113898
0.111696
0.108957
0.107823
0.108464
0.109462
0.110668
0.113549
0.119
0.123928
0.126719
0.127276
0.127051
0.125315
0.115225
0.106616
0.106223
0.108107
0.114045
0.117263
0.118436
0.120212
0.124593
0.129262
0.131698
0.134295
0.135326
0.134012
0.127048
0.124442
0.125564
0.125053
0.119949
0.103554
0.0914428
0.086214
0.0860629
0.0884851
0.0943436
0.0973239
0.0961035
0.0936882
0.0909437
0.091166
0.0873913
0.081794
0.0785202
0.0751084
0.0706042
0.0704872
0.071933
0.0719645
0.0706011
0.0706348
0.0707005
0.0707584
0.0694961
0.0687161
0.0688401
0.0702812
0.0780339
0.083545
0.0831143
0.08152
0.081542
0.0833516
0.0849519
0.0892637
0.102937
0.139886
0.173784
0.20991
0.241073
0.316444
0.563541
0.690805
0.67697
0.600113
0.505463
0.470829
0.433546
0.400006
0.347331
0.305678
0.271537
0.246146
0.241634
0.236237
0.218179
0.209668
0.210251
0.225625
0.245692
0.250147
0.255953
0.32076
0.364968
0.356763
0.341605
0.343879
0.369196
0.442971
0.492332
0.498086
0.525333
0.575351
0.616982
0.764284
0.893217
0.911405
0.934963
1.02971
1.19734
1.38238
1.84589
1.62647
1.61833
1.78721
1.69784
1.81803
1.98255
2.06732
2.22219
2.46448
2.35527
2.13775
2.39462
2.10708
1.89242
1.97026
2.12906
1.86525
1.58622
1.6108
1.59236
1.55635
1.45321
1.3591
1.29874
1.3009
1.35244
12.0228
2.86902
0.550872
0.158968
0.124536
0.128417
0.13518
0.143493
0.153066
0.178824
0.194045
0.19936
0.215686
0.230837
0.233616
0.234986
0.231204
0.218407
0.202835
0.182444
0.161303
0.141628
0.12371
0.110816
0.102506
0.0965965
0.092768
0.0888041
0.0866053
0.0854894
0.0851699
0.0852996
0.0857066
0.0870897
0.0902731
0.0964538
0.105351
0.111713
0.114407
0.114832
0.113792
0.11
0.106543
0.104758
0.10453
0.104867
0.106314
0.110777
0.12104
0.12583
0.126611