/*--------------------------------*- C++ -*----------------------------------*\
| =========                 |                                                 |
| \\      /  F ield         | OpenFOAM: The Open Source CFD Toolbox           |
|  \\    /   O peration     | Version:  dev                                   |
|   \\  /    A nd           | Web:      http://www.openfoam.org               |
|    \\/     M anipulation  |                                                 |
\*---------------------------------------------------------------------------*/
FoamFile
{
    version     2.0;
    format      ascii;
    class       volScalarField;
    object      muSgs;
    location    "9.161";
}
// * * * * * * * * * * * * * * * * * * * * * * * * * * * * * * * * * * * * * //

dimensions      [1 -1 -1 0 0 0 0];

internalField   nonuniform List<scalar> 
12225
(
0.000213278
0.000224072
0.000181358
0.000180675
0.000160306
0.000178607
0.000174232
0.000188497
0.00019907
0.000200255
0.000223566
0.000208024
0.000234296
0.00021788
0.00025276
0.000265943
0.000268145
0.000347139
0.000110047
0.000188354
0.00017259
0.000187835
0.000155197
0.000180651
0.000143882
0.000179318
0.000146555
0.000181791
0.000157676
0.000178259
0.000174846
0.00017266
0.00020727
0.000197143
0.000300133
0.000386609
3.43139e-05
0.000106344
0.000108418
0.000136413
0.000123186
0.00014034
0.000124505
0.000135271
0.000126253
0.000124126
0.000126352
0.000108485
0.000123408
9.61698e-05
0.000136164
0.000111035
0.000226691
0.000351526
9.86486e-06
5.02801e-05
5.70033e-05
7.52039e-05
8.01306e-05
8.39749e-05
9.62901e-05
9.16189e-05
0.000108998
9.03621e-05
0.000106865
7.82702e-05
9.52663e-05
6.61455e-05
9.13711e-05
6.41749e-05
0.000149639
0.000230231
2.71889e-06
1.99069e-05
2.60834e-05
3.45301e-05
4.70836e-05
5.08017e-05
6.22423e-05
6.13046e-05
7.19151e-05
6.22527e-05
7.3256e-05
5.47056e-05
7.00208e-05
4.86375e-05
6.68937e-05
4.62225e-05
0.000101127
0.000130853
5.14402e-06
2.35198e-05
2.39031e-05
2.94038e-05
3.22024e-05
3.39787e-05
4.03333e-05
3.85401e-05
4.55272e-05
3.82289e-05
4.76772e-05
3.5165e-05
4.83088e-05
3.38709e-05
4.92918e-05
4.24771e-05
6.80986e-05
7.68192e-05
3.40109e-06
8.57368e-06
1.36569e-05
1.38962e-05
1.83387e-05
1.76091e-05
2.29254e-05
2.00949e-05
2.62318e-05
2.10134e-05
2.86338e-05
2.16232e-05
3.05713e-05
2.31918e-05
3.31911e-05
2.93918e-05
5.00353e-05
4.79569e-05
1.2935e-06
2.56889e-06
5.82106e-06
5.89544e-06
8.54196e-06
8.02867e-06
1.10459e-05
9.49672e-06
1.28922e-05
1.05401e-05
1.45371e-05
1.1619e-05
1.60936e-05
1.30738e-05
1.82651e-05
1.56114e-05
2.64878e-05
2.66085e-05
1.83709e-06
2.72765e-06
4.32191e-06
4.63926e-06
5.94309e-06
5.83063e-06
7.39516e-06
6.89795e-06
8.51873e-06
7.79606e-06
9.64974e-06
8.76641e-06
1.08358e-05
9.95534e-06
1.24554e-05
1.21519e-05
1.70864e-05
1.79993e-05
2.06432e-06
3.93695e-06
4.78476e-06
5.05895e-06
5.535e-06
5.70747e-06
6.30002e-06
6.39851e-06
7.01392e-06
7.14718e-06
7.97261e-06
8.03353e-06
8.75684e-06
8.98273e-06
9.88414e-06
1.0182e-05
1.26151e-05
1.32573e-05
2.95697e-06
5.85752e-06
6.03505e-06
6.35496e-06
6.34059e-06
6.50412e-06
6.72644e-06
6.96087e-06
7.35561e-06
7.65564e-06
8.13824e-06
8.36498e-06
8.62212e-06
8.99257e-06
9.54334e-06
9.61396e-06
1.06677e-05
1.11168e-05
5.91631e-06
7.89581e-06
8.22857e-06
8.63855e-06
8.41856e-06
8.58247e-06
8.31913e-06
8.71234e-06
8.92559e-06
9.31275e-06
9.53834e-06
9.75256e-06
9.72238e-06
9.92944e-06
1.02049e-05
1.01431e-05
1.05638e-05
1.08366e-05
8.88093e-06
1.10675e-05
1.13848e-05
1.19627e-05
1.19512e-05
1.19575e-05
1.17021e-05
1.16655e-05
1.14808e-05
1.15917e-05
1.15742e-05
1.16084e-05
1.15254e-05
1.13792e-05
1.13458e-05
1.11763e-05
1.1223e-05
1.12435e-05
1.3232e-05
1.55835e-05
1.59009e-05
1.61555e-05
1.62715e-05
1.61284e-05
1.58896e-05
1.55484e-05
1.50911e-05
1.46614e-05
1.42968e-05
1.39797e-05
1.37099e-05
1.34306e-05
1.32363e-05
1.30042e-05
1.26501e-05
1.23184e-05
1.81181e-05
2.04634e-05
2.08005e-05
2.09476e-05
2.08607e-05
2.0544e-05
2.02319e-05
1.9812e-05
1.93064e-05
1.86761e-05
1.81488e-05
1.77133e-05
1.73458e-05
1.69746e-05
1.65484e-05
1.59893e-05
1.52415e-05
1.44718e-05
2.49699e-05
2.76371e-05
2.78091e-05
2.75753e-05
2.71744e-05
2.66059e-05
2.59626e-05
2.51739e-05
2.42201e-05
2.3331e-05
2.24689e-05
2.17151e-05
2.09016e-05
2.01391e-05
1.92588e-05
1.8393e-05
1.74094e-05
1.64662e-05
3.07601e-05
3.29109e-05
3.27381e-05
3.20866e-05
3.13516e-05
3.05954e-05
2.96586e-05
2.84041e-05
2.7195e-05
2.60993e-05
2.50524e-05
2.41128e-05
2.3102e-05
2.21624e-05
2.11266e-05
2.01282e-05
1.90165e-05
1.79622e-05
2.98045e-05
3.24927e-05
3.26785e-05
3.2101e-05
3.13924e-05
3.06228e-05
2.9621e-05
2.83606e-05
2.71521e-05
2.60568e-05
2.49832e-05
2.40104e-05
2.29535e-05
2.19605e-05
2.08666e-05
1.9789e-05
1.86097e-05
1.7488e-05
2.50075e-05
2.78114e-05
2.83137e-05
2.81498e-05
2.76659e-05
2.70692e-05
2.63048e-05
2.52884e-05
2.42732e-05
2.33692e-05
2.24576e-05
2.1576e-05
2.05873e-05
1.95975e-05
1.8506e-05
1.7434e-05
1.62677e-05
1.51942e-05
1.92282e-05
2.10261e-05
2.12563e-05
2.12729e-05
2.10928e-05
2.0743e-05
2.03397e-05
1.988e-05
1.92838e-05
1.86799e-05
1.80493e-05
1.73831e-05
1.66064e-05
1.5762e-05
1.4817e-05
1.39105e-05
1.29639e-05
1.21412e-05
1.34239e-05
1.50764e-05
1.54517e-05
1.56572e-05
1.5649e-05
1.54287e-05
1.51351e-05
1.47497e-05
1.41948e-05
1.37302e-05
1.32664e-05
1.28386e-05
1.2337e-05
1.18289e-05
1.12556e-05
1.07325e-05
1.01902e-05
9.70342e-06
9.24278e-06
1.05515e-05
1.11662e-05
1.13412e-05
1.14695e-05
1.14469e-05
1.12595e-05
1.10322e-05
1.07961e-05
1.04963e-05
1.01388e-05
9.78999e-06
9.45876e-06
9.21082e-06
9.02626e-06
8.84994e-06
8.65644e-06
8.41053e-06
6.55513e-06
7.50359e-06
7.90452e-06
8.01281e-06
7.99759e-06
8.08992e-06
8.34858e-06
8.63304e-06
8.75517e-06
8.71326e-06
8.58395e-06
8.43895e-06
8.31861e-06
8.25548e-06
8.34677e-06
8.42197e-06
8.4392e-06
8.35843e-06
4.3384e-06
4.96031e-06
5.16656e-06
5.57222e-06
6.04982e-06
6.714e-06
7.60379e-06
8.40233e-06
8.92508e-06
9.09038e-06
9.12467e-06
9.1788e-06
9.41282e-06
9.98926e-06
1.06046e-05
1.10577e-05
1.13877e-05
1.14623e-05
2.20588e-06
3.00685e-06
3.93908e-06
5.25044e-06
7.04549e-06
9.6062e-06
1.22245e-05
1.41085e-05
1.51245e-05
1.53868e-05
1.55159e-05
1.59078e-05
1.67278e-05
1.80319e-05
1.91824e-05
1.99578e-05
2.03875e-05
2.04156e-05
1.25668e-06
4.13813e-06
8.0035e-06
1.27793e-05
1.85626e-05
2.45703e-05
2.91283e-05
3.16953e-05
3.25579e-05
3.2482e-05
3.24641e-05
3.29092e-05
3.37855e-05
3.50908e-05
3.60856e-05
3.66337e-05
3.66585e-05
3.63284e-05
3.29813e-06
1.45861e-05
2.72417e-05
4.02679e-05
5.15151e-05
5.94127e-05
6.38089e-05
6.53371e-05
6.51044e-05
6.42172e-05
6.35178e-05
6.3111e-05
6.29584e-05
6.30015e-05
6.27131e-05
6.20574e-05
6.09391e-05
5.97001e-05
1.60401e-05
5.32308e-05
8.50231e-05
0.000101391
0.000111376
0.000116263
0.000116556
0.000114371
0.000111727
0.000108821
0.000106284
0.000103848
0.00010144
9.89608e-05
9.61452e-05
9.32876e-05
9.00573e-05
8.74782e-05
7.59988e-05
0.000162529
0.000186858
0.000188154
0.000182643
0.000174812
0.000165767
0.00015773
0.000150711
0.000144698
0.000139325
0.000134165
0.000129095
0.000123863
0.000118829
0.000113778
0.000109092
0.000104989
0.000221397
0.000269409
0.000253518
0.000227645
0.000205121
0.000191397
0.000183554
0.000178982
0.000175707
0.000173187
0.000170544
0.000167551
0.000164318
0.000160801
0.000156998
0.000153039
0.000148994
0.000144321
1.93772e-05
2.12441e-05
2.25683e-05
2.44879e-05
2.6892e-05
2.965e-05
3.22566e-05
3.47326e-05
3.72392e-05
3.97636e-05
4.24562e-05
4.50551e-05
4.80564e-05
5.15332e-05
5.51036e-05
5.87864e-05
6.28452e-05
6.71409e-05
7.11792e-05
7.50615e-05
7.9436e-05
8.41407e-05
8.82172e-05
9.19292e-05
9.54555e-05
9.78316e-05
0.000100114
0.000104268
0.000110057
0.000114968
0.000117979
0.000119759
0.000121196
0.000122776
0.000126592
0.000133548
0.000139516
0.00014474
0.000152699
0.000171672
0.000193312
0.00020954
0.000222141
0.000233327
0.000243735
0.000253345
0.000262164
0.000270079
0.000277011
0.000282811
0.000287422
0.000290942
0.000293317
0.000294895
0.000295305
0.000294701
0.000293033
0.00029063
0.000287269
0.000283324
0.000278874
0.000273786
0.00026868
0.000263398
0.000258137
0.000252583
0.000247449
0.000242431
0.000237118
0.000232162
0.000227475
0.000222449
0.000217662
0.000213019
0.000208262
0.000203842
0.000199816
0.00019582
0.000192116
0.000189019
0.000186622
0.000184786
0.000183219
0.000182093
0.000180945
0.000179747
0.000178729
0.000178156
0.000178185
0.000178784
0.000180845
0.000182767
0.00018397
0.000184772
0.000185453
0.000186034
0.00018651
0.000186752
0.000186949
0.000187424
0.000187898
0.000187795
0.00018723
0.000187169
0.000186028
0.000182644
0.000177403
0.000171175
0.000167855
0.000166158
0.00016559
0.000170503
0.000183218
0.0001908
0.000190656
0.000185536
0.000172982
0.000153821
0.000137588
0.000135348
0.000179985
0.000240736
0.000256228
0.000252057
0.000245109
0.00022518
0.000199104
0.000196536
0.000198538
0.000185501
0.000188607
0.000196803
0.000209864
0.000230756
0.000251457
0.00027192
0.000291066
0.000307572
0.000324593
0.000343495
0.000364419
0.000386954
0.00040627
0.000416493
0.000421157
0.000425865
0.000432906
0.000443749
0.000453988
0.000463389
0.000473077
0.000481607
0.000490527
0.00049958
0.00050514
0.000507398
0.000508567
0.000519483
0.000524543
0.000521012
0.000503325
0.00046642
0.00044398
0.000428344
0.000423596
0.000457215
0.000560408
0.000696429
0.000738942
0.000557222
0.000456095
0.000402617
0.000413419
0.000430775
0.00041113
0.00041325
0.000427291
0.000459441
0.00050264
0.000538708
3.55882e-05
3.15906e-05
3.2e-05
3.43756e-05
3.71821e-05
3.94687e-05
3.95605e-05
3.88503e-05
3.69003e-05
3.51191e-05
3.35244e-05
3.18649e-05
3.05709e-05
2.97555e-05
2.95713e-05
2.98853e-05
3.04601e-05
3.16792e-05
3.41708e-05
3.61337e-05
3.83018e-05
4.24228e-05
4.77578e-05
5.07449e-05
5.38404e-05
5.65373e-05
5.89352e-05
6.29979e-05
6.49447e-05
6.88906e-05
7.1952e-05
7.81806e-05
8.57304e-05
9.43715e-05
0.000115506
0.00014215
0.000153684
0.000157311
0.000161297
0.000169374
0.000175672
0.000176145
0.000174491
0.000172846
0.000170279
0.000167631
0.000164431
0.000160784
0.000156334
0.000151483
0.000145947
0.000139845
0.000133782
0.000127112
0.000120499
0.000113898
0.000106781
0.000100367
9.43018e-05
9.08516e-05
8.75227e-05
8.53851e-05
8.35833e-05
8.26586e-05
8.21293e-05
8.17964e-05
8.20279e-05
8.22599e-05
8.22898e-05
8.27894e-05
8.33197e-05
8.32937e-05
8.33302e-05
8.3397e-05
8.35291e-05
8.36054e-05
8.39096e-05
8.40057e-05
8.44041e-05
8.53307e-05
8.74862e-05
9.08302e-05
9.36872e-05
9.84262e-05
0.000101314
0.000101955
0.000101554
9.97436e-05
9.84069e-05
9.89979e-05
0.000104082
0.000113068
0.000120259
0.000123583
0.000125411
0.000126914
0.000128918
0.000129502
0.000129622
0.000130573
0.00013366
0.000136144
0.000137099
0.000137715
0.00013919
0.00014067
0.000138139
0.000127019
0.00011334
0.000106042
0.00010328
0.000104706
0.000115976
0.000129407
0.000143128
0.000150368
0.000148195
0.000138986
0.000141819
0.000169843
0.000204683
0.000220017
0.000189867
0.00016854
0.00015243
0.000137828
0.000134638
0.00014372
0.000142325
0.000126406
0.000138062
0.000144434
0.000154311
0.00016374
0.000177332
0.000191385
0.000204297
0.000216336
0.000222684
0.000229483
0.000241247
0.000257618
0.000281456
0.00030658
0.000323868
0.000330841
0.000337623
0.000345778
0.000354529
0.000363547
0.000374122
0.000381885
0.000391887
0.000410604
0.000421012
0.000426949
0.000431581
0.000453588
0.000485105
0.000488139
0.000467759
0.000441588
0.000431112
0.000422002
0.000425388
0.000450519
0.000496745
0.000503315
0.000419569
0.000285811
0.000280072
0.000294553
0.000360119
0.000397573
0.000394789
0.000392762
0.000399097
0.000419083
0.000457503
0.000500179
5.37515e-05
4.25901e-05
4.39759e-05
4.81716e-05
4.96161e-05
4.76914e-05
4.36088e-05
4.0824e-05
3.83073e-05
3.59796e-05
3.40141e-05
3.19017e-05
3.00848e-05
2.85104e-05
2.67445e-05
2.51515e-05
2.39098e-05
2.33078e-05
2.34406e-05
2.37271e-05
2.41329e-05
2.53611e-05
2.81476e-05
3.02291e-05
3.34058e-05
3.56177e-05
3.77922e-05
4.19722e-05
5.26805e-05
7.04015e-05
8.85308e-05
0.000118146
0.000130792
0.000129832
0.000129449
0.000135911
0.000136265
0.000132373
0.000129559
0.000120205
0.000113296
0.000107689
0.000101059
9.47161e-05
8.87179e-05
8.30137e-05
7.75274e-05
7.24146e-05
6.7247e-05
6.2384e-05
5.81058e-05
5.41222e-05
5.11809e-05
4.84486e-05
4.642e-05
4.48479e-05
4.36869e-05
4.30406e-05
4.27898e-05
4.29572e-05
4.31307e-05
4.32269e-05
4.33313e-05
4.34336e-05
4.34661e-05
4.34532e-05
4.35323e-05
4.36725e-05
4.39381e-05
4.43273e-05
4.48272e-05
4.5193e-05
4.56022e-05
4.60369e-05
4.63513e-05
4.65396e-05
4.6762e-05
4.68916e-05
4.7057e-05
4.75346e-05
4.85563e-05
5.01757e-05
5.15742e-05
5.45509e-05
5.69998e-05
5.78252e-05
5.79138e-05
5.68114e-05
5.48667e-05
5.42081e-05
5.57869e-05
6.13069e-05
6.99934e-05
7.56874e-05
7.80998e-05
7.92335e-05
8.28005e-05
8.54746e-05
8.6278e-05
8.73619e-05
9.08137e-05
9.40674e-05
9.54086e-05
9.72596e-05
0.000100982
0.00010977
0.000114649
0.000112712
0.000103101
9.10537e-05
8.7268e-05
8.81217e-05
9.35566e-05
0.000101141
0.000116906
0.000127834
0.000129263
0.000130977
0.00014832
0.000176968
0.000192809
0.000170673
0.000139864
0.000126187
0.000117044
0.000109387
0.000108021
0.000114001
0.000113811
0.000103959
0.000107706
0.000110334
0.000117886
0.000121162
0.000128757
0.000138017
0.00014621
0.000154281
0.000156376
0.000155293
0.000155588
0.000161438
0.000177914
0.000203264
0.000231177
0.000245095
0.000249898
0.000254437
0.000261494
0.000269675
0.000283573
0.000289547
0.000296655
0.000315683
0.000330798
0.000329483
0.000324851
0.000340701
0.000375695
0.000387425
0.00038271
0.000376954
0.000394873
0.000425181
0.000423969
0.000411489
0.000415906
0.000393059
0.000301957
0.000256294
0.000252046
0.000259128
0.000269788
0.000328846
0.000342543
0.000334414
0.000336961
0.000335455
0.000354233
0.000401933
7.44503e-05
5.90499e-05
6.30881e-05
6.27114e-05
5.69299e-05
4.94968e-05
4.3609e-05
3.90857e-05
3.5729e-05
3.29926e-05
3.08816e-05
2.91223e-05
2.79003e-05
2.69017e-05
2.56397e-05
2.44814e-05
2.37335e-05
2.34442e-05
2.33818e-05
2.35647e-05
2.40474e-05
2.5751e-05
2.74554e-05
2.89019e-05
3.09879e-05
3.49822e-05
4.34381e-05
5.70146e-05
9.25945e-05
0.000120486
0.000123386
0.000121265
0.000121631
0.000116931
0.000112287
0.00010212
9.50739e-05
8.85255e-05
8.21736e-05
7.49207e-05
6.81072e-05
6.26962e-05
5.73076e-05
5.27288e-05
4.85569e-05
4.53305e-05
4.26638e-05
4.04115e-05
3.88763e-05
3.77466e-05
3.71102e-05
3.68174e-05
3.71482e-05
3.75869e-05
3.81511e-05
3.87784e-05
3.94524e-05
4.01349e-05
4.08716e-05
4.16021e-05
4.20039e-05
4.22408e-05
4.2423e-05
4.24542e-05
4.22893e-05
4.19602e-05
4.15403e-05
4.10507e-05
4.08823e-05
4.08209e-05
4.08332e-05
4.09078e-05
4.10585e-05
4.13643e-05
4.16652e-05
4.18219e-05
4.19239e-05
4.18827e-05
4.1665e-05
4.16647e-05
4.18068e-05
4.22958e-05
4.25735e-05
4.31251e-05
4.36637e-05
4.38605e-05
4.38135e-05
4.30963e-05
4.20924e-05
4.1844e-05
4.20365e-05
4.43773e-05
5.02688e-05
5.54947e-05
5.74036e-05
5.70847e-05
5.87778e-05
6.21099e-05
6.3269e-05
6.38238e-05
6.72862e-05
7.01978e-05
7.08642e-05
7.1216e-05
7.20832e-05
7.66262e-05
8.54622e-05
9.26095e-05
9.41895e-05
8.97781e-05
8.73854e-05
8.92958e-05
9.6187e-05
0.00010183
0.000110485
0.000117151
0.000120049
0.000127381
0.000150834
0.000173206
0.000166586
0.00013365
0.000116208
0.000111056
0.000108571
0.000102061
9.51389e-05
9.64571e-05
9.94556e-05
9.59656e-05
9.5078e-05
9.46681e-05
0.000100456
0.000104795
0.000109427
0.000118982
0.000126047
0.000129491
0.000130711
0.000129787
0.000126733
0.000124943
0.000128666
0.000144133
0.000167266
0.000196239
0.000208018
0.00020909
0.000210287
0.000213994
0.000225099
0.000231523
0.000239223
0.000260035
0.000286157
0.000277985
0.000258145
0.000271645
0.000303915
0.0003237
0.000336465
0.000348778
0.000379617
0.000404686
0.000401613
0.000371722
0.000355161
0.000346643
0.000282702
0.000261542
0.000233906
0.000238568
0.000214599
0.000291904
0.000306287
0.000291775
0.000299493
0.000283569
0.000274295
0.000293051
9.79707e-05
8.2887e-05
7.93691e-05
6.80051e-05
5.49467e-05
4.3658e-05
3.63065e-05
3.18304e-05
2.9129e-05
2.75588e-05
2.68742e-05
2.6672e-05
2.65783e-05
2.6548e-05
2.63247e-05
2.63063e-05
2.70792e-05
2.77273e-05
2.79438e-05
2.85093e-05
3.07077e-05
3.27225e-05
3.38146e-05
3.6519e-05
4.24173e-05
5.9144e-05
9.48041e-05
0.000108935
0.0001134
0.000117244
0.000112711
0.000102406
9.2675e-05
8.51114e-05
7.78103e-05
6.91125e-05
6.26174e-05
5.69907e-05
5.18783e-05
4.75817e-05
4.34566e-05
4.00409e-05
3.77896e-05
3.60271e-05
3.47558e-05
3.40112e-05
3.35455e-05
3.33071e-05
3.3515e-05
3.39274e-05
3.45461e-05
3.53689e-05
3.63248e-05
3.73022e-05
3.82929e-05
3.93189e-05
4.02988e-05
4.117e-05
4.19161e-05
4.24201e-05
4.28404e-05
4.31741e-05
4.33625e-05
4.34635e-05
4.34269e-05
4.31728e-05
4.25894e-05
4.15008e-05
4.06273e-05
4.01783e-05
3.98351e-05
3.97576e-05
3.98629e-05
4.00244e-05
4.03657e-05
4.07008e-05
4.09538e-05
4.10724e-05
4.08782e-05
4.04655e-05
4.0216e-05
4.04051e-05
4.06773e-05
4.08626e-05
4.08425e-05
4.06454e-05
4.02376e-05
3.91435e-05
3.82918e-05
3.82707e-05
3.86183e-05
4.0038e-05
4.38489e-05
4.76156e-05
4.87767e-05
4.82398e-05
4.80948e-05
5.0159e-05
5.15097e-05
5.14159e-05
5.4337e-05
5.73057e-05
5.78092e-05
5.76182e-05
5.70545e-05
5.80087e-05
6.17497e-05
6.74637e-05
7.26777e-05
7.76525e-05
8.09167e-05
8.70218e-05
0.000100923
0.000106173
0.000110809
0.000114442
0.00011931
0.000128521
0.000148264
0.000161214
0.0001449
0.000114689
0.00010244
9.78197e-05
9.64846e-05
9.26535e-05
8.48532e-05
8.54621e-05
8.65072e-05
8.74833e-05
8.55109e-05
8.46803e-05
9.06572e-05
9.8379e-05
0.000101613
0.000103684
0.000112857
0.000119983
0.000122803
0.000122652
0.000119935
0.000117335
0.000115544
0.000119217
0.000132818
0.000156119
0.000179356
0.000188784
0.00019102
0.000188312
0.000195845
0.000199299
0.000202707
0.000217191
0.000253841
0.000253337
0.000229247
0.000232758
0.000262459
0.000292923
0.000317854
0.000344328
0.000362315
0.000368226
0.000362926
0.000369674
0.000358601
0.000307022
0.00028298
0.000261428
0.000220626
0.000188305
0.000206435
0.000252438
0.000275845
0.000262886
0.000269551
0.000271094
0.000245354
0.000236868
0.00012383
0.000106448
8.47215e-05
6.0615e-05
4.18239e-05
3.38361e-05
3.06132e-05
2.83394e-05
2.68827e-05
2.63737e-05
2.66015e-05
2.74869e-05
2.91066e-05
3.06797e-05
3.15908e-05
3.35375e-05
3.67529e-05
3.78227e-05
3.86705e-05
4.22725e-05
4.8928e-05
5.40803e-05
6.2612e-05
7.47469e-05
8.72956e-05
9.70178e-05
0.000103359
0.000106649
0.000104085
9.29901e-05
8.40133e-05
7.46595e-05
6.5942e-05
5.89093e-05
5.31684e-05
4.77286e-05
4.29952e-05
4.003e-05
3.71985e-05
3.53529e-05
3.38888e-05
3.28921e-05
3.24507e-05
3.22367e-05
3.21787e-05
3.23473e-05
3.26524e-05
3.30656e-05
3.36518e-05
3.44186e-05
3.54011e-05
3.6588e-05
3.78649e-05
3.91419e-05
4.0379e-05
4.14714e-05
4.21881e-05
4.26038e-05
4.28708e-05
4.30674e-05
4.31091e-05
4.31505e-05
4.32227e-05
4.32799e-05
4.34542e-05
4.34389e-05
4.31482e-05
4.21586e-05
4.09963e-05
4.00309e-05
3.93623e-05
3.91435e-05
3.91854e-05
3.9312e-05
3.97385e-05
4.01554e-05
4.05548e-05
4.08585e-05
4.0856e-05
4.07788e-05
3.98591e-05
3.93965e-05
3.93811e-05
3.95952e-05
3.97773e-05
3.96728e-05
3.92826e-05
3.85816e-05
3.75735e-05
3.72014e-05
3.71968e-05
3.80431e-05
4.02091e-05
4.33613e-05
4.43911e-05
4.42082e-05
4.38369e-05
4.45166e-05
4.55449e-05
4.5501e-05
4.77113e-05
5.0706e-05
5.12805e-05
4.99868e-05
4.884e-05
4.90773e-05
5.03481e-05
5.39112e-05
5.85733e-05
6.25329e-05
6.7913e-05
8.07841e-05
0.000101413
0.000108824
0.000109377
0.000109632
0.000118602
0.000131261
0.000138204
0.000141045
0.000125517
0.000104532
9.67522e-05
9.10016e-05
8.64692e-05
8.30992e-05
7.8408e-05
7.86853e-05
7.85703e-05
8.03254e-05
8.08994e-05
7.98624e-05
8.63613e-05
9.65087e-05
0.000101844
9.91653e-05
9.82538e-05
0.000104789
0.000109635
0.000110432
0.000108481
0.000107797
0.000108609
0.000109772
0.00011707
0.00013367
0.000156325
0.000166861
0.000170369
0.000171576
0.000177871
0.000179036
0.000186031
0.0002035
0.000227831
0.000239429
0.000224766
0.00021874
0.000238874
0.000274838
0.000308707
0.000340794
0.000348084
0.000342865
0.00033526
0.000341723
0.000353514
0.000306293
0.000268012
0.000273206
0.00023024
0.00019984
0.000206274
0.000216996
0.000249838
0.000237798
0.000236881
0.000241829
0.000238526
0.000219771
0.000149483
0.000116983
7.66974e-05
4.6224e-05
3.43105e-05
3.11989e-05
2.91489e-05
2.72472e-05
2.64505e-05
2.69994e-05
2.93731e-05
3.27144e-05
3.62799e-05
3.9112e-05
4.13253e-05
4.54887e-05
5.10162e-05
5.49355e-05
5.87575e-05
6.36184e-05
6.93196e-05
7.57996e-05
8.19728e-05
8.71041e-05
9.14486e-05
9.49525e-05
9.47704e-05
8.82837e-05
7.83271e-05
6.80317e-05
6.07121e-05
5.48566e-05
4.83783e-05
4.30205e-05
3.97548e-05
3.69438e-05
3.458e-05
3.34275e-05
3.24979e-05
3.20317e-05
3.17958e-05
3.17318e-05
3.1828e-05
3.19842e-05
3.21905e-05
3.2618e-05
3.32751e-05
3.41733e-05
3.54535e-05
3.71087e-05
3.88741e-05
4.06189e-05
4.21777e-05
4.34519e-05
4.4308e-05
4.4807e-05
4.51366e-05
4.53513e-05
4.51442e-05
4.44825e-05
4.38153e-05
4.30985e-05
4.24705e-05
4.18368e-05
4.15742e-05
4.14617e-05
4.15006e-05
4.12757e-05
4.04706e-05
3.91991e-05
3.81478e-05
3.76613e-05
3.75955e-05
3.77308e-05
3.8328e-05
3.92139e-05
3.96162e-05
3.98553e-05
3.99253e-05
4.03322e-05
4.00681e-05
3.94416e-05
3.88309e-05
3.84236e-05
3.8247e-05
3.81938e-05
3.82788e-05
3.80287e-05
3.72426e-05
3.63393e-05
3.61707e-05
3.63931e-05
3.73399e-05
3.88107e-05
3.96529e-05
3.99201e-05
4.0161e-05
4.07563e-05
4.30788e-05
4.34069e-05
4.4261e-05
4.65409e-05
4.71494e-05
4.67014e-05
4.5217e-05
4.48598e-05
4.56609e-05
4.88726e-05
5.18363e-05
5.47741e-05
6.04182e-05
7.43848e-05
0.00010085
0.00010961
0.000106596
0.000103032
0.000113863
0.000131641
0.000134375
0.000129796
0.000116567
0.000104231
0.000101539
9.81778e-05
8.49488e-05
7.99942e-05
7.57441e-05
7.24198e-05
7.18581e-05
7.45094e-05
7.67724e-05
7.58081e-05
8.17982e-05
8.97209e-05
9.6843e-05
9.69991e-05
9.33456e-05
9.40376e-05
9.83752e-05
9.97123e-05
0.000100149
9.97214e-05
0.0001013
0.000105851
0.00011182
0.000122238
0.000138869
0.000148049
0.000157
0.000162426
0.000166806
0.000172234
0.00018956
0.000205884
0.000219088
0.000235095
0.000225774
0.000214892
0.000231044
0.000265204
0.000303061
0.000331271
0.000337554
0.000325897
0.000322042
0.000316462
0.000327545
0.0003373
0.000294742
0.00027491
0.000224628
0.000203685
0.000191566
0.000194482
0.000219922
0.000214619
0.000211475
0.000208107
0.000211709
0.000204344
0.000171575
0.000120294
6.58037e-05
3.90045e-05
3.24221e-05
3.07802e-05
2.86774e-05
2.7269e-05
2.76068e-05
3.05218e-05
3.63842e-05
3.98005e-05
4.29864e-05
4.71055e-05
4.9851e-05
5.39524e-05
5.87936e-05
6.29103e-05
6.69945e-05
7.05225e-05
7.43186e-05
7.79023e-05
8.16671e-05
8.45266e-05
8.45471e-05
8.05962e-05
7.26498e-05
6.47798e-05
5.80433e-05
5.13267e-05
4.51437e-05
4.16979e-05
3.82232e-05
3.51006e-05
3.35589e-05
3.24953e-05
3.17257e-05
3.13665e-05
3.1199e-05
3.136e-05
3.1551e-05
3.18239e-05
3.2347e-05
3.30124e-05
3.39566e-05
3.5174e-05
3.66749e-05
3.84035e-05
4.00989e-05
4.16113e-05
4.3033e-05
4.42654e-05
4.52465e-05
4.59401e-05
4.6482e-05
4.68206e-05
4.70403e-05
4.71278e-05
4.69359e-05
4.62065e-05
4.51881e-05
4.39963e-05
4.2844e-05
4.20669e-05
4.10976e-05
4.06374e-05
4.04439e-05
4.013e-05
3.92846e-05
3.80759e-05
3.69839e-05
3.65445e-05
3.64986e-05
3.67168e-05
3.72024e-05
3.78562e-05
3.84735e-05
3.89386e-05
3.8669e-05
3.8497e-05
3.84711e-05
3.83704e-05
3.82027e-05
3.78528e-05
3.7143e-05
3.64812e-05
3.65265e-05
3.68541e-05
3.69005e-05
3.59792e-05
3.49949e-05
3.48081e-05
3.52025e-05
3.60224e-05
3.65977e-05
3.71888e-05
3.75844e-05
3.78815e-05
3.96485e-05
4.04271e-05
4.11016e-05
4.28384e-05
4.40746e-05
4.35159e-05
4.2972e-05
4.28679e-05
4.39851e-05
4.7615e-05
5.00032e-05
5.15476e-05
5.65689e-05
6.92754e-05
9.88113e-05
0.000109479
0.000105353
9.9181e-05
0.000105596
0.000127032
0.000130428
0.000123192
0.000113563
0.000107446
0.000109513
0.000101856
8.18445e-05
7.37113e-05
7.03029e-05
6.83491e-05
6.73765e-05
7.06403e-05
7.58422e-05
7.57897e-05
8.16566e-05
8.23366e-05
8.66081e-05
8.73594e-05
8.81084e-05
8.9201e-05
9.50697e-05
9.51748e-05
9.46977e-05
9.42964e-05
9.52636e-05
0.000100281
0.000110346
0.000119254
0.000128471
0.00013572
0.000151721
0.000156494
0.00016026
0.000171587
0.000203019
0.000196549
0.000210268
0.000232441
0.00022229
0.000204852
0.000223607
0.000260604
0.000296575
0.00031708
0.000321361
0.000313248
0.000311082
0.000291696
0.000302426
0.000321208
0.000369101
0.000278027
0.000214049
0.0001918
0.000188544
0.000188985
0.000199046
0.000201877
0.000197822
0.000191395
0.000195204
0.000195183
0.000189401
0.000120892
5.96574e-05
3.63003e-05
3.24672e-05
3.10885e-05
2.9088e-05
2.8826e-05
3.15134e-05
3.70227e-05
4.07904e-05
4.36364e-05
4.78405e-05
5.21202e-05
5.45615e-05
5.74936e-05
6.10153e-05
6.42685e-05
6.7444e-05
7.02073e-05
7.31191e-05
7.53587e-05
7.51018e-05
7.26641e-05
6.72875e-05
6.12034e-05
5.5033e-05
4.88294e-05
4.40185e-05
4.00007e-05
3.59062e-05
3.38729e-05
3.22566e-05
3.09446e-05
3.04361e-05
3.01633e-05
3.02103e-05
3.06245e-05
3.10623e-05
3.14609e-05
3.20314e-05
3.28024e-05
3.37743e-05
3.49153e-05
3.61447e-05
3.74906e-05
3.8936e-05
4.03471e-05
4.16471e-05
4.28386e-05
4.39325e-05
4.48358e-05
4.53174e-05
4.56361e-05
4.58355e-05
4.58324e-05
4.57812e-05
4.58239e-05
4.57715e-05
4.55292e-05
4.49589e-05
4.39686e-05
4.26199e-05
4.20659e-05
4.0876e-05
4.03214e-05
4.01563e-05
4.01138e-05
3.96878e-05
3.84804e-05
3.67881e-05
3.60953e-05
3.59516e-05
3.6228e-05
3.68638e-05
3.72545e-05
3.74196e-05
3.76949e-05
3.77412e-05
3.75831e-05
3.67868e-05
3.58005e-05
3.56448e-05
3.58116e-05
3.5808e-05
3.51694e-05
3.46889e-05
3.48068e-05
3.50382e-05
3.50373e-05
3.41648e-05
3.40342e-05
3.41589e-05
3.45057e-05
3.47416e-05
3.53107e-05
3.58245e-05
3.6e-05
3.66611e-05
3.69783e-05
3.76341e-05
3.95894e-05
4.18307e-05
4.17002e-05
4.12448e-05
4.14922e-05
4.28091e-05
4.71492e-05
5.02722e-05
5.10751e-05
5.4645e-05
6.59532e-05
9.41112e-05
0.000108615
0.000104841
9.78886e-05
0.000100083
0.000113597
0.000119608
0.000116921
0.000112569
0.000111081
0.000113375
9.92742e-05
7.79245e-05
7.09881e-05
6.6537e-05
6.56098e-05
6.4763e-05
6.66039e-05
7.24922e-05
7.18839e-05
7.56858e-05
7.70332e-05
7.96366e-05
8.28363e-05
8.40159e-05
8.46518e-05
9.21681e-05
9.44467e-05
9.27647e-05
9.21196e-05
9.16601e-05
9.56313e-05
0.00010553
0.000117518
0.000124781
0.000129121
0.000142718
0.00014821
0.000157853
0.000178367
0.000203899
0.000181541
0.000196373
0.000223592
0.000212445
0.000190637
0.000211342
0.000258069
0.000288623
0.00030502
0.000307546
0.000304226
0.000302128
0.000283943
0.000286939
0.000326122
0.000344937
0.000262219
0.000206335
0.000191158
0.000189291
0.000193505
0.000197492
0.000198024
0.000192172
0.000185717
0.000190351
0.000196363
0.000203759
0.00011825
5.29205e-05
3.5014e-05
3.29107e-05
3.1564e-05
3.07416e-05
3.2183e-05
3.58167e-05
3.93027e-05
4.2323e-05
4.60613e-05
5.04696e-05
5.34636e-05
5.58571e-05
5.89053e-05
6.15661e-05
6.41187e-05
6.61037e-05
6.72648e-05
6.65228e-05
6.48391e-05
6.12029e-05
5.69368e-05
5.23336e-05
4.70242e-05
4.22604e-05
3.81035e-05
3.50095e-05
3.28842e-05
3.07729e-05
2.97777e-05
2.92204e-05
2.88349e-05
2.87596e-05
2.90059e-05
2.94789e-05
2.99918e-05
3.05593e-05
3.12775e-05
3.20621e-05
3.29914e-05
3.39632e-05
3.50931e-05
3.63648e-05
3.76351e-05
3.88964e-05
4.01703e-05
4.13692e-05
4.23654e-05
4.29852e-05
4.32943e-05
4.31523e-05
4.25228e-05
4.15835e-05
4.04077e-05
3.9588e-05
3.91768e-05
3.92164e-05
3.97106e-05
4.03951e-05
4.04937e-05
3.97359e-05
3.89794e-05
3.85953e-05
3.86891e-05
3.89986e-05
3.94469e-05
3.97933e-05
3.94476e-05
3.77659e-05
3.57141e-05
3.48258e-05
3.45337e-05
3.50505e-05
3.57786e-05
3.61849e-05
3.64345e-05
3.62639e-05
3.55522e-05
3.52172e-05
3.4379e-05
3.36541e-05
3.33683e-05
3.31067e-05
3.25314e-05
3.20747e-05
3.22721e-05
3.25646e-05
3.2981e-05
3.26773e-05
3.26815e-05
3.28735e-05
3.32835e-05
3.38233e-05
3.42784e-05
3.45003e-05
3.4458e-05
3.4533e-05
3.4613e-05
3.513e-05
3.81205e-05
4.09371e-05
4.09068e-05
4.01896e-05
4.00916e-05
4.10953e-05
4.577e-05
5.0217e-05
5.15721e-05
5.4455e-05
6.40174e-05
9.04736e-05
0.00010583
0.000104495
9.72978e-05
9.74433e-05
0.000104034
0.000111806
0.000113378
0.000112898
0.000113305
0.00011151
9.85223e-05
7.63043e-05
6.93875e-05
6.50829e-05
6.40165e-05
6.32229e-05
6.4546e-05
7.10315e-05
7.19578e-05
7.05404e-05
7.04247e-05
7.40941e-05
8.04471e-05
8.19302e-05
8.13577e-05
8.50122e-05
9.31438e-05
9.22305e-05
9.15392e-05
9.16406e-05
9.45398e-05
0.000101729
0.000116528
0.000123517
0.000127287
0.000138479
0.000141866
0.000156705
0.00018039
0.000194581
0.000169276
0.000181008
0.000209789
0.000199395
0.000181746
0.000203907
0.000254169
0.000281741
0.000290907
0.000297279
0.000299391
0.000285373
0.000278941
0.000296251
0.000304633
0.000329917
0.000254424
0.000207151
0.000192151
0.000187001
0.000196117
0.000197196
0.000191942
0.00018525
0.000181895
0.000185091
0.00019261
0.000214655
0.000114904
4.95153e-05
3.42779e-05
3.30434e-05
3.25736e-05
3.22629e-05
3.38598e-05
3.6654e-05
3.99665e-05
4.3385e-05
4.7413e-05
5.15306e-05
5.38481e-05
5.5528e-05
5.78268e-05
5.94158e-05
6.01189e-05
5.96224e-05
5.83695e-05
5.6214e-05
5.33599e-05
5.00648e-05
4.57713e-05
4.19299e-05
3.8048e-05
3.46262e-05
3.21829e-05
3.03119e-05
2.92496e-05
2.84087e-05
2.80719e-05
2.79305e-05
2.80412e-05
2.84024e-05
2.89188e-05
2.94939e-05
2.99607e-05
3.03536e-05
3.09567e-05
3.19984e-05
3.31739e-05
3.42464e-05
3.53474e-05
3.65016e-05
3.76194e-05
3.87129e-05
3.97436e-05
4.03972e-05
4.05994e-05
4.03863e-05
3.99748e-05
3.94892e-05
3.88328e-05
3.7787e-05
3.69636e-05
3.66264e-05
3.59716e-05
3.5626e-05
3.56456e-05
3.63119e-05
3.75411e-05
3.78178e-05
3.73952e-05
3.60524e-05
3.54214e-05
3.55748e-05
3.64138e-05
3.76671e-05
3.82928e-05
3.79295e-05
3.58358e-05
3.33749e-05
3.22706e-05
3.19929e-05
3.22975e-05
3.32621e-05
3.37302e-05
3.41014e-05
3.41185e-05
3.34227e-05
3.25139e-05
3.18164e-05
3.15851e-05
3.12069e-05
3.07329e-05
3.03439e-05
3.03503e-05
3.04833e-05
3.0945e-05
3.11346e-05
3.12666e-05
3.17396e-05
3.21581e-05
3.24369e-05
3.26042e-05
3.27994e-05
3.3004e-05
3.3101e-05
3.35343e-05
3.4426e-05
3.70571e-05
3.95342e-05
3.97249e-05
3.85353e-05
3.8451e-05
3.95589e-05
4.29599e-05
4.95929e-05
5.19329e-05