/*--------------------------------*- C++ -*----------------------------------*\
| =========                 |                                                 |
| \\      /  F ield         | OpenFOAM: The Open Source CFD Toolbox           |
|  \\    /   O peration     | Version:  dev                                   |
|   \\  /    A nd           | Web:      http://www.openfoam.org               |
|    \\/     M anipulation  |                                                 |
\*---------------------------------------------------------------------------*/
FoamFile
{
    version     2.0;
    format      ascii;
    class       volScalarField;
    object      p;
    location    "9.161";
}
// * * * * * * * * * * * * * * * * * * * * * * * * * * * * * * * * * * * * * //

dimensions      [1 -1 -2 0 0 0 0];

internalField   nonuniform List<scalar> 
12225
(
97657.3
97642.7
97627.8
97616.1
97599.4
97589.7
97573.8
97571.3
97554.3
97564.1
97561.1
97586.9
97591.2
97622.7
97635.7
97651.3
97542.5
96957.7
97649.8
97638.7
97624.5
97613.1
97596.2
97587.2
97570.6
97569.6
97550.9
97562
97557.9
97587.6
97588.8
97620.1
97636.9
97664.8
97606.3
97377
97638.9
97630.9
97617.3
97605.8
97589.2
97580.2
97562.6
97565.6
97542.5
97557.7
97551.4
97585.1
97582.2
97613.2
97635.5
97663.3
97659.5
97630.1
97623.7
97617.6
97604.6
97593
97576.5
97567.5
97550.5
97552.6
97531.8
97550.1
97538.2
97581.1
97569.5
97604.5
97632.1
97680
97689.1
97713.6
97601.1
97597.6
97584.9
97573.4
97557
97548.2
97532.2
97532.8
97516.7
97531.9
97524.9
97561.2
97560.9
97591.8
97621.2
97659.1
97692.8
97738
97573.3
97569
97556
97544.8
97528.7
97520.2
97505.2
97504.7
97493
97505.3
97505.2
97536.9
97549
97572.5
97608.9
97621.9
97680
97726.7
97529.8
97528.8
97515.6
97504.9
97489.6
97481
97467.9
97465.9
97459.5
97468.3
97475.8
97499.4
97532.1
97539.3
97604.4
97609.1
97673.8
97704.7
97484.9
97483.2
97470.1
97459.6
97445.5
97436.7
97425.9
97423.2
97421
97428.7
97441.3
97461.5
97499.8
97508.2
97589.1
97579.9
97658
97671.8
97435.8
97433.9
97421.3
97410.7
97398
97389.2
97380.7
97378.1
97379.4
97386.8
97403.3
97422.4
97460.8
97471.6
97563.3
97547.7
97632.5
97636.5
97370.4
97368.2
97356.9
97346.3
97335.4
97327
97321.2
97319
97323.8
97331.9
97351.6
97371.5
97408.4
97426.8
97508.7
97506.7
97591.6
97614.9
97283.2
97281.9
97272
97261.7
97252.8
97245.4
97242.2
97241.7
97249.3
97259.8
97281.5
97304.6
97340.8
97373
97431.6
97462.2
97527.1
97573.1
97172
97168.5
97160.5
97150.9
97144.1
97138
97137.8
97139.6
97150.4
97163.9
97188.5
97215.4
97253.4
97293
97344.7
97391.9
97451
97508.4
97024
97021.1
97014.2
97006
97001.1
96997.7
97000.1
97005.8
97019.7
97038
97065.6
97097.9
97139
97184.5
97237.7
97293.4
97355.2
97420
96837.5
96829.5
96823.2
96817.3
96815
96815.1
96821
96831.4
96849.3
96873.3
96905.5
96944
96990.1
97042
97100.3
97163.3
97230.9
97302.8
96581.1
96580.4
96577.1
96574.7
96575.8
96580.4
96590.7
96606.7
96630.1
96660.6
96699.1
96744.7
96797.7
96857.2
96922.7
96993.6
97069
97148.7
96267.2
96266.4
96266
96267.9
96273.5
96283.6
96299.6
96322.2
96352.5
96390.8
96437
96491
96552.5
96620.8
96695.4
96775.4
96860
96948.8
95864.5
95874.8
95881.1
95889.1
95900.7
95917.4
95940.3
95970.7
96009.2
96056.3
96111.8
96175.5
96246.9
96325.4
96410.2
96500.6
96595.7
96695
95416.9
95437.2
95452.9
95469.2
95488.4
95512.6
95543.4
95582
95629.3
95685.6
95750.6
95824.3
95905.8
95994.5
96089.7
96190.6
96296.1
96405.8
95008.2
95034.3
95056.6
95079.8
95106.1
95137.4
95175.6
95221.9
95277.1
95341.4
95414.8
95496.9
95587.2
95684.8
95788.9
95898.7
96013.1
96131.6
94679.2
94701.1
94726.7
94755.1
94787.1
94824.4
94868.7
94921.3
94982.9
95053.8
95133.9
95222.7
95319.8
95424.4
95535.5
95652.2
95773.7
95899.1
94404.1
94431.3
94460.5
94492.8
94529.2
94571.2
94620.4
94678.1
94744.8
94820.8
94906.1
95000.2
95102.5
95212.3
95328.9
95451.1
95578
95708.9
94189.2
94219
94250.7
94286.1
94325.9
94371.6
94424.7
94486.3
94557
94637.1
94726.4
94824.5
94930.9
95044.7
95165.3
95291.6
95422.7
95557.7
94024.9
94056.2
94089.9
94127.4
94169.6
94218
94274
94338.7
94412.5
94495.6
94588
94689.1
94798.5
94915.4
95039
95168.4
95302.6
95440.7
93902.3
93934.6
93969.5
94008.2
94052.1
94102.5
94160.8
94227.7
94303.9
94389.3
94483.8
94587.2
94698.9
94818.1
94943.9
95075.5
95212
95352.4
93814.2
93846.7
93881.7
93921
93966.1
94018
94077.9
94146.5
94224.3
94311.3
94407.6
94512.6
94625.9
94746.7
94874.2
95007.4
95145.5
95287.5
93756.6
93785.4
93819.5
93859.1
93905
93958
94019
94088.8
94167.7
94256
94353.4
94459.6
94574.1
94696
94824.6
94959
95098.3
95241.4
93714.9
93743.7
93777.1
93816.8
93863.5
93917
93978.9
94049.4
94129.2
94218.3
94316.5
94423.5
94538.8
94661.5
94790.9
94926.1
95066.1
95210
93688.7
93717
93749.7
93789.7
93837
93890.9
93953.2
94024.3
94104.5
94194.1
94292.9
94400.5
94516.2
94639.5
94769.4
94905.1
95045.6
95190.1
93675.3
93701.6
93733.3
93773.4
93820.4
93875.7
93938.5
94010
94090.6
94180.5
94279.6
94387.4
94503.5
94627
94757.2
94893.2
95034.1
95179
93673.8
93695.7
93726.6
93766.7
93813.7
93869.2
93932.2
94003.8
94084.5
94174.6
94273.8
94381.8
94498
94621.7
94752
94888.2
95029.2
95174.3
97524.5
97523.9
97522.7
97520.9
97518.4
97515.2
97511.2
97506.1
97500.2
97493.3
97485.6
97477.3
97468.3
97458.7
97448.7
97438.1
97427
97415.5
97403.5
97391.1
97378.1
97364.8
97351
97336.8
97322.1
97307
97291.4
97275.5
97258.9
97242.1
97224.7
97206.5
97189.4
97171.8
97152.2
97132.2
97112.4
97091.7
97071.5
97053
97035
97015.2
96993.4
96970.1
96945.7
96920.5
96894.7
96868.1
96840.9
96813.2
96784.8
96755.6
96725.4
96694.1
96661.5
96627.5
96591.6
96553.3
96512.5
96468.5
96421.1
96370
96314.9
96255.2
96189.5
96118.2
96041.3
95958.5
95869.3
95773.6
95671.3
95562.7
95447.8
95326.7
95199.6
95066.8
94928.3
94784.3
94635.1
94480.8
94321.6
94157.7
93989.2
93815.9
93638.6
93457.5
93272.9
93084.7
92893.5
92699.9
92503.1
92302.6
92098.2
91890.7
91680.6
91468.3
91254.2
91039.1
90824
90610.2
90398.7
90190.7
89987.7
89791.1
89602.6
89423.1
89253.5
89095.9
88952.5
88825.2
88714.9
88621.1
88542.3
88479.2
88433.7
88405.3
88392.2
88393
88406
88429.4
88459.5
88491.6
88518.9
88543.5
88561.5
88569
88567.2
88542.2
88485.4
88407.8
88303.2
88169.1
88003.4
87807.7
87585.9
87342.2
87081.6
86809.5
86533.4
86260.9
85995.1
85741.3
85502.1
85287.5
85095.6
84927
84780.5
84651.6
84537.8
84432.9
84330.7
84218.5
84084.6
83916.7
83706.2
83450.3
83148.2
82788.3
82365.3
81874.7
81312.7
80662.5
79979.9
79295.1
78615.2
77917.2
77282.8
76676.5
76122.7
75705.9
75356.8
75054.7
74758
74540.5
74415.2
74380.8
74425.9
74545.9
74726.1
74995.1
97524.5
97523.8
97522.6
97520.8
97518.4
97515.3
97511.4
97506.5
97500.6
97493.9
97486.4
97478.2
97469.5
97460.2
97450.5
97440.3
97429.6
97418.5
97407
97395
97382.5
97369.7
97356.5
97342.9
97328.7
97314.1
97299.3
97283.8
97267.5
97251.6
97235.2
97217
97198.3
97180.1
97162.2
97145.2
97126
97103
97079.9
97059.7
97040.9
97021.3
96999.6
96976.3
96951.9
96926.7
96901
96874.3
96847.1
96819.2
96790.8
96761.5
96731.3
96700
96667.4
96633.2
96597.1
96558.7
96517.5
96473.4
96425.6
96373.9
96319.6
96261.2
96194.2
96122.2
96044.9
95962.1
95872.9
95777
95674.2
95565.4
95450.2
95328.9
95201.5
95068.5
94929.9
94785.7
94636.3
94481.8
94322.4
94158.3
93989.5
93816.2
93638.5
93456.9
93271.9
93083.3
92892
92698.3
92501.6
92301.1
92095.9
91888.1
91677.9
91465.7
91251.8
91036.8
90821.7
90608.1
90397.2
90189.6
89986.7
89790.6
89603
89424.6
89255.7
89098.5
88955.5
88828.6
88718.9
88626.2
88548.3
88485.1
88440.3
88412.9
88400.7
88402.4
88415.9
88439.3
88468
88498.6
88526.4
88552.1
88571.1
88578.6
88577
88553.5
88497.4
88421.2
88316.9
88183.7
88019.1
87824.7
87603.9
87360.5
87100.3
86828.1
86551.4
86277.9
86012.2
85759.5
85523.6
85304.4
85111.6
84941.8
84793.8
84665.6
84552.5
84444.9
84342.7
84229.7
84096.1
83928.4
83717
83461.2
83159.1
82801.1
82379.4
81888.8
81322.5
80676.9
79985.3
79302.4
78616.3
77930.4
77285.3
76672.6
76110.1
75701.5
75352.4
75047.5
74774.7
74553.3
74430.7
74396.1
74441.9
74565.6
74757
75021.2
97524.6
97523.9
97522.6
97520.8
97518.5
97515.5
97511.6
97506.8
97501.2
97495
97487.7
97480
97471.9
97463.3
97454.3
97444.9
97435.1
97424.8
97414.1
97403
97391.6
97379.7
97367.5
97355.1
97342.3
97329
97315.4
97301.5
97287.1
97271.4
97254.4
97239
97223
97202.4
97181
97162.3
97143.5
97123
97101
97078.9
97057.4
97037.4
97014.3
96990.4
96965.8
96940.5
96914.5
96887.8
96860.4
96832.5
96803.8
96774.3
96743.8
96712.3
96679.4
96644.9
96608.4
96569.6
96528
96483.4
96435.4
96382.9
96330.5
96268.6
96201.8
96129.7
96052.2
95968.2
95877.9
95781.6
95679.5
95570.4
95454.7
95333
95205.4
95071.9
94933.3
94788.6
94638.7
94483.5
94323.8
94159.2
93990
93816.4
93638.4
93456.3
93270.7
93081.5
92889.4
92694.8
92497.8
92297.3
92092.5
91882.9
91672.4
91460.4
91246.9
91031.9
90817
90604
90393.8
90186.8
89985.1
89790.5
89604.3
89427.7
89260.9
89105.2
88963.4
88837.3
88728.4
88637
88560.7
88499
88455.1
88428.9
88417.6
88420
88435
88458.1
88486
88515.1
88544.4
88571.8
88592.1
88599.3
88598
88575.8
88523.1
88447.1
88343
88210.8
88048.1
87856.2
87637.6
87396.2
87137.4
86866
86588.7
86313.4
86047.1
85794.5
85557.9
85337.4
85145
84973.9
84824.2
84693.7
84576.7
84469.2
84368.5
84251.9
84117.8
83951.4
83736.8
83479.7
83178.3
82824
82403
81908.6
81335.5
80684.1
79994.8
79314.9
78629.5
77943.1
77291.6
76674.7
76104.2
75698.9
75354.5
75044.4
74792.4
74578.1
74458
74427.8
74478.2
74606.6
74807
75077.8
97525.6
97524.8
97523.6
97521.9
97519.4
97516.2
97512.2
97507.5
97502
97495.9
97489.7
97483.1
97476.1
97468.5
97460.6
97452.3
97443.6
97434.5
97425.1
97415.4
97405.5
97395.1
97384.7
97374.3
97363.1
97351.6
97340
97327.1
97314.4
97301.7
97284.7
97266.1
97249.3
97231.1
97211.1
97190.8
97170.3
97150
97128.2
97106.1
97083.7
97061.2
97037.9
97013.8
96988.9
96963.3
96936.9
96909.9
96882.2
96853.8
96824.6
96794.6
96763.6
96731.6
96698.1
96663.1
96625.9
96586.7
96544.7
96498.5
96453.3
96400.5
96343.4
96281.5
96214.4
96141.6
96063.1
95978.5
95887.6
95790.5
95687
95577.4
95461.8
95339.6
95211.3
95077.1
94936.9
94791.9
94641.4
94486.5
94326
94160.8
93991
93816.9
93638.3
93455.8
93269.6
93079.9
92886.7
92690.9
92492.9
92291.7
92085.9
91876.3
91664.8
91452.7
91240.1
91025.5
90810.8
90598.8
90389.8
90184.2
89983.9
89790.8
89606.9
89433.5
89270.4
89117.9
88978.1
88853.4
88746.1
88656.3
88581.7
88522.4
88479.8
88454.5
88443.9
88446.8
88462.2
88486.1
88514.2
88543.9
88575.7
88605.2
88627.2
88634.6
88632.7
88610.9
88560.9
88486.3
88383
88251.8
88091.1
87902.1
87686.1
87447.1
87190.8
86921.8
86644.8
86367.5
86098.4
85843.9
85608.9
85396.2
85196.8
85022.4
84869.5
84737.4
84620.1
84515.5
84408.6
84287.6
84150.7
83984.7
83768.7
83506.1
83204.2
82855.8
82437.2
81937.7
81354.7
80696.6
80012.1
79336.7
78648.8
77959.7
77306.1
76687.9
76113.1
75699.6
75369
75061.9
74814.9
74618.3
74506.6
74482.3
74538.1
74670.4
74884.1
75163.2
97527.8
97527
97525.7
97523.8
97521.1
97517.8
97513.8
97509.5
97504.8
97499.9
97494.8
97489.4
97483.7
97477.4
97470.7
97463.8
97456.5
97448.7
97440.6
97432.5
97424.2
97415.4
97406.7
97398.2
97389.4
97380.8
97371.9
97360.3
97347
97333.9
97319
97302
97284.4
97265.9
97246.6
97226.6
97206
97184.9
97163.4
97141.3
97118.6
97095.5
97071.8
97047.5
97022.1
96995.8
96968.8
96941.1
96912.6
96883.4
96853.5
96822.7
96790.9
96758
96723.9
96688.2
96649.8
96609.5
96569.4
96522.4
96473
96419.8
96361.7
96298.8
96230.8
96157.1
96077.5
95992
95900.3
95802.5
95698.4
95588.2
95471.3
95348.5
95219.6
95084.8
94944.4
94798.3
94647
94490.4
94329.2
94163.7
93993.5
93818.7
93639.4
93455.9
93268.6
93078
92884.3
92687.5
92488.2
92286.1
92078.8
91870.1
91657.5
91444.6
91232.2
91018.4
90804.3
90593.6
90386.8
90183
89984.5
89793.6
89612.2
89441.9
89282.7
89134.6
88998.7
88877.3
88772.4
88684.3
88611.6
88554.2
88514
88490.1
88481.1
88484.5
88499.5
88524.1
88553.2
88584.3
88618.3
88651.2
88675.2
88683.5
88680.8
88658
88611
88538.8
88436.9
88307.8
88149.9
87963.9
87750.3
87513.2
87259.9
86993.6
86717.5
86439.9
86170.7
85913.5
85673.3
85458.9
85261.4
85084.6
84929.7
84795.9
84676.1
84570.4
84455.6
84336.5
84194.4
84026.6
83812.4
83542.8
83236
82891.8
82477.6
81976.5
81384.4
80726.6
80041
79362.7
78673.3
77983.4
77328.5
76711.8
76102.3
75709.6
75392.7
75098.3
74852.9
74673.3
74565.8
74552.3
74618.3
74757.1
74977.8
75268.3
97531.8
97531
97529.6
97527.4
97524.7
97521.5
97518.2
97514.9
97511.6
97508.2
97504.5
97500.5
97496
97490.9
97485.4
97479.7
97473.7
97466.9
97460
97453.5
97447.4
97441.2
97435
97428.8
97421.9
97414.2
97406
97396.5
97385.3
97372.8
97358.8
97343.1
97325.7
97308.2
97289.9
97270.8
97250.9
97230.2
97208.8
97186.7
97163.7
97139.8
97116.5
97092.4
97066.1
97038.7
97010.6
96981.7
96952.1
96921.8
96890.7
96859.1
96826.1
96791.7
96756.1
96722.2
96682.4
96640.7
96596.9
96549.6
96498.9
96444.1
96384.5
96320.3
96251.1
96176.3
96095.6
96009
95916.3
95817.5
95712.2
95600.4
95483.4
95359.9
95230.3
95094.9
94953.9
94807.1
94655.1
94498
94336
94169.3
93998.2
93822.5
93642.5
93458.2
93269.8
93077.7
92882.6
92684.7
92484.2
92281
92074.3
91865.4
91653.1
91438.4
91225.7
91012.6
90799.5
90590.1
90385.5
90184.2
89988.2
89800.1
89621.7
89454.4
89299.2
89154.8
89023.5
88906.6
88805.5
88720.5
88650.6
88595.8
88558.1
88536.7
88530.2
88535.3
88550.3
88574.2
88602.9
88634.3
88670.3
88705.7
88732.8
88744.6
88741.6
88720.2
88674.8
88605.1
88505.4
88378.6
88224.2
88042
87832
87595.8
87343.6
87080.2
86806.7
86530.8
86260.6
86002.8
85760.1
85538.6
85341.8
85164.3
85004
84866.9
84750.7
84642.1
84528.5
84401.5
84251.3
84077.1
83860.1
83588.7
83277.4
82933.1
82523.5
82023.3
81425.1
80765.1
80081.3
79395.5
78702.6
78024.3
77377.6
76754.4
76156.1
75742.8
75433.8
75144.1
74909.1
74738
74642.3
74639.6
74716
74869.6
75099.1
75399.2
97538.4
97537.6
97536.2
97534.3
97532
97529.9
97527.8
97525.7
97523.7
97521.6
97519.2
97516.3
97513
97509.2
97505.1
97501
97496.6
97491.6
97486.6
97482.2
97478.2
97474
97470
97465.8
97460.8
97455.1
97448.3
97440.2
97430.4
97419.2
97406.8
97391.6
97376.6
97360.6
97343.6
97325.6
97306.6
97286.5
97265.4
97243.4
97220.4
97196.4
97171.7
97146.1
97119.5
97091
97061.7
97031.5
97000.4
96968.4
96935.3
96904.4
96870.3
96834.6
96797.9
96760.1
96719.8
96676.9
96631.1
96582.2
96529.9
96473.4
96412.5
96346.7
96275.8
96199.5
96117.5
96029.6
95935.8
95836.5
95729.4
95616.8
95498.5
95374.1
95243.7
95107.6
94966
94818.6
94665.9
94508.2
94345.2
94177.3
94005.1
93828.4
93647.4
93462.4
93273.5
93080.5
92884.1
92684.6
92482.4
92278.6
92071.6
91862.7
91653
91434.5
91222.1
91009.6
90797.8
90589.7
90387.3
90189.6
89997
89812
89636.3
89472.7
89321
89180.6
89053.8
88941.7
88844.9
88763.3
88697.1
88646.6
88612
88593.6
88589.8
88597.8
88614.3
88637.3
88663.8
88695.3
88734.7
88773.5
88804
88819.4
88817.3
88797.1
88753.4
88685.6
88589.6
88465.2
88313.8
88134.9
87931.3
87698.6
87446.8
87184
86912
86638
86368
86109.1
85865.7
85637.9
85438.1
85261.1
85096.2
84952
84829
84722.9
84607.6
84475.6
84316.9
84139.1
83911
83639.2
83328.4
82985
82579.8
82077.3
81475
80812.8
80131.6
79434.2
78740.2
78085
77470.9
76814
76203.4
75796.1
75503.5
75213.2
74987.1
74817.5
74740.5
74744.7
74830
74999.6
75245.5
75560.1
97548.6
97547.9
97546.9
97545.6
97544.3
97543.2
97542.3
97541.5
97540.8
97540
97539
97537.6
97536
97534
97531.8
97529.8
97527.7
97525.3
97522.9
97520.7
97518.7
97516.8
97514.9
97512.6
97509.4
97505.1
97499.7
97492.9
97484.8
97475.4
97464.7
97451.6
97438.3
97423.9
97408.1
97391.1
97372.8
97353.2
97332.5
97310.4
97287.1
97262.6
97237
97210.1
97181.8
97152.2
97121.7
97090.1
97057.5
97024.2
96990.3
96956
96920.6
96883.8
96845.6
96805.4
96763.5
96719.1
96671.6
96621
96566.6
96508.2
96445.4
96377.9
96305.2
96227.1
96143.3
96053.8
95958.4
95856.3
95749.3
95635.7
95516.2
95390.7
95260
95123.4
94981.2
94833.3
94679.8
94521.5
94357.7
94188.6
94015.3
93837.6
93655.5
93469.6
93280.1
93086.7
92889.4
92688.7
92485.5
92280.6
92073.5
91864
91653.4
91439.7
91223.2
91011.8
90801.9
90595.6
90395
90200.5
90012.2
89831.2
89657.7
89498.6
89350.6
89214.6
89092.1
88984.9
88892.8
88815.9
88754.1
88707.7
88676.9
88661.5
88660
88670.4
88689.5
88714.1
88742.1
88777.6
88821.1
88863.2
88894
88908.3
88907.8
88888.2
88846.7
88781.3
88689.8
88568.5
88421
88244.2
88045.1
87818.9
87570.3
87310
87040.9
86762.9
86493.5
86234.5
85989.8
85760
85552.8
85376.3
85206.7
85055.6
84921.3
84802.1
84693
84559.3
84395.3
84209.4
83977.7
83708.3
83391.9
83048.3
82646
82140.3
81537.2
80867.6
80193.3
79482.8
78790.9
78144.7
77544.6
76928
76275.8
75871.2
75588.7
75307.1
75082.4
74923.5
74857.5
74870.2
74964.1
75151.3
75416.1
75751.3
97563.5
97562.8
97562.1
97561.5
97561.1
97561
97561.3
97562
97562.8
97563.7
97564.5
97565.1
97565.7
97566.2
97566.5
97567
97567.6
97568.2
97568.6
97569.1
97569.5
97569.8
97569.6
97568.7
97567.1
97564.4
97560.6
97555.6
97549.4
97541.8
97532.9
97522.1
97510.4
97497.3
97482.7
97466.7
97449.1
97430.1
97409.6
97387.5
97363.8
97338.7
97312.1
97283.9
97254.2
97223.1
97190.8
97157.4
97123.1
97087.9
97052.1
97015.7
96978.3
96939.3
96899.3
96857.6
96814
96767.3
96717.9
96665.2
96608.8
96548.3
96483.3
96413.7
96339
96259
96173.5
96082.4
95985.7
95882.5
95773.8
95659
95538.3
95411.9
95280.1
95142.9
95000.2
94852
94698
94538.7
94375
94204.7
94030.5
93852.1
93669.1
93482
93291.4
93097.5
92900
92698.9
92494.7
92288.7
92081.2
91871.6
91660.8
91448.7
91234
91022.2
90813.9
90609.8
90411.5
90219.9
90035.8
89857.1
89690.4
89534.6
89390.8
89258.9
89140.7
89038.3
88951.1
88878.9
88822.2
88780.3
88753.8
88742
88743.5
88756.4
88778.6
88806.8
88840.5
88881.5
88926.8
88968.3
89002.9
89012.7
89013
88995.4
88956.3
88894.2
88806.7
88689
88545.9
88374.6
88178.6
87957.1
87712.5
87455.3
87190.1
86912.9
86643.5
86382
86133.5
85903.7
85689.6
85501.5
85335.6
85179.3
85036.5
84906.3
84777.8
84640.4
84474.4
84289.7
84086.8
83795.2
83469.3
83121.1
82720.3
82215.5
81611.3
80934.9
80259.6
79541.5
78858.4
78208
77620.7
77045.3
76488.7
75961
75695.9
75418.1
75196
75052.6
74994
75019.7
75128.2
75332.5
75621.7
75980.1
97583.6
97583.2
97582.9
97582.8
97583.2
97584.2
97585.8
97587.9
97590.4
97593.2
97596.1
97599.1
97602.2
97605.3
97608.4
97611.8
97615.3
97618.7
97622
97625.2
97628.1
97630.5
97632.3
97633.4
97633.6
97632.9
97631.1
97628.1
97623.9
97618.4
97611
97602.5
97592.4
97580.7
97567.4
97552.5
97535.8
97517.3
97497
97474.7
97450.6
97424.7
97396.9
97367.3
97336
97303.1
97268.8
97233.4
97196.9
97159.4
97121.4
97082.6
97043
97002.2
96960
96916
96869.8
96821.2
96769.5
96714.6
96655.9
96593.2
96526
96454
96377.2
96295.3
96208.1
96115.3
96017.1
95912.6
95802.4
95686.2
95564.3
95437.1
95304.5
95166.9
95023.8
94875.2
94721
94561.1
94394.9
94225.5
94050.8
93871.9
93688.8
93501.3
93309.8
93115
92917
92716.5
92512
92305.2
92097.2
91887.9
91677.5
91466.2
91254.3
91042.9
90836
90634.7
90437.9
90249.7
90068.8
89895.8
89733.5
89582
89442.5
89315.2
89201.8
89103.9
89021.8
88954.7
88903.1
88866.1
88844.1
88836.8
88842.4
88859.1
88884.9
88917.7
88957.5
89001.8
89046.5
89083.4
89107.6
89131.4
89134.3
89119.6
89083.4
89025.1
88942.4
88829.6
88687.9
88522.8
88333.5
88117.8
87878.4
87621.4
87359.9
87087.9
86818.3
86555.5
86303.3
86070.8
85851.7
85659.3
85487.3
85322.9
85171.2
85032.1
84892.8
84745.8
84573.1
84378.2
84173.7
83889
83559.4
83205.8
82804.7
82301.1
81696
81022.6
80335.5
79619.8
78952.1
78293.4
77727.7
77145.2
76598.1
76084.7
75828.3
75550.4
75333.9
75205.7
75158.8
75196
75321.5
75546.9
75863.6
76244.1
97609.1
97608.9
97609.1
97609.7
97611
97613
97615.8
97619.2
97623.3
97628.8
97633.7
97639
97644.7
97650.6
97656.7
97663.1
97669.4
97675.8
97681.9
97687.8
97693.2
97698
97702.2
97705.6
97708.1
97709.7
97710.3
97709.5
97707.5
97704.1
97699.1
97692.5
97684.2
97674.2
97662.3
97648.6
97632.7
97614.7
97594.5
97571.9
97547.3
97520.4
97491.4
97460.3
97427.3
97392.5
97356.1
97318.5
97279.7
97239.9
97199.5
97158.3
97116.3
97073.3
97028.9
96982.3
96933.6
96882.4
96827.8
96769.8
96708.4
96643.2
96573.5
96499.1
96419.9
96335.9
96246.8
96152.4
96052.2
95947.2
95835.8
95718.4
95595.3
95467
95334
95196.2
95052.9
94904.3
94750
94589.8
94425.3
94255.2
94080
93900.3
93716.6
93529
93337.1
93141.7
92943.6
92743.3
92539.2
92332
92123.6
91914.8
91705.5
91495.9
91285.7
91075.8
90870.4
90671.3
90476.6
90292.5
90115.5
89947.4
89789.7
89642.1
89506
89384.3
89276.2
89183.6
89107.1
89045.6
88999.2
88968
88949.3
88947.3
88957.6
88978.8
89008.7
89046
89089.2
89135.6
89180.5
89218.8
89248.5
89267.2
89272.1
89260.7
89228.1
89173.6
89095.9
88989.8
88853
88692.5
88509.9
88300.7
88069.8
87817.3
87555.3
87289.7
87019
86755.4
86499.9
86263.1
86039.2
85838.6
85663.9
85491.6
85329.5
85180.2
85031.6
84870.5
84682.7
84481.5
84278.4
83989.5
83662.2
83305.4
82901.7
82395.1
81793.3
81134.1
80423.6
79725.3
79073
78392.8
77870.7
77244
76730.6
76262.1
75965.5
75703.2
75495.9
75382.4
75351
75400.4
75545.6
75797
76141.1
76543.6
97639.6
97639.7
97640.2
97641.5
97643.8
97647
97651.1
97656
97661.9
97668.6
97675.9
97683.8
97692.3
97701.2
97710.4
97719.7
97729.1
97738.4
97747.5
97756.2
97764.4
97772
97778.9
97785.1
97790.4
97794.5
97797.8
97799.8
97800.4
97799.4
97796.8
97792.3
97786
97777.8
97767.5
97754.9
97739.9
97722.3
97702.2
97679.6
97654.3
97626.6
97596.6
97564.1
97529.5
97492.9
97454.5
97414.6
97373.4
97331.1
97288
97244
97199.2
97153.5
97106.4
97057.1
97005.4
96951.2
96893.5
96832.2
96767.3
96699.1
96626.7
96549.7
96468.1
96381.7
96290.5
96194.5
96093.5
95987.2
95874.9
95756.6
95632.9
95503.9
95370.4
95232.6
95089.3
94940.5
94786.6
94626.6
94461.6
94292.2
94117.5
93938
93754.5
93567.3
93375.5
93179.7
92981.6
92781.7
92578.6
92371.8
92163.6
91955.4
91747.8
91539.7
91331.2
91123.7
90920.5
90723.6
90533.4
90351.7
90178.9
90014.9
89861.7
89719
89586.9
89469.3
89366.3
89279.2
89208.7
89153
89112.4
89086.2
89072.9
89075.1
89090.1
89115.1
89149.3
89190.5
89235.5
89283
89328.5
89369.3
89405.7
89420
89427.3
89420.5
89392.9
89343
89270.2
89169.5
89039.8
88885.2
88709.8
88507.2
88283.1
88037.4
87777.5
87519.7
87252.4
86985.2
86726.8
86484.5
86256.9
86046.9
85864.3
85686.3
85512.6
85350.3
85189.9
85016.4
84810.8
84602.2
84399.9
84110.5
83783.6
83423.1
83018.7
82512
81909.8
81263.1
80532.8
79853.7
79216.4
78503.3
78055.9
77411
76896.8
76447.7
76133.3
75878.3
75683.1
75583.9
75568
75634.2
75804.3
76086.2
76456.9
76886.4
97674.5
97674.7
97675.6
97677.6
97680.7
97685
97690.4
97697
97704.5
97713.1
97722.7
97733.2
97744.4
97756.1
97768.4
97780.9
97793.5
97806
97818.3
97830.2
97841.6
97852.4
97862.3
97871.7
97880.3
97887.7
97894
97898.8
97902.2
97903.9
97903.7
97901.6
97897.4
97891.1
97882.4
97871.3
97857.4
97840.5
97820.7
97797.9
97772.2
97744
97713
97679.3
97643.3
97605
97564.7
97522.5
97478.5
97433.3
97387.1
97339.8
97291.7
97242.8
97192.7
97140.2
97085.1
97027.6
96966.5
96901.5
96833.2
96761.6
96686.3
96606.7
96522.8
96434.1
96340.6
96242.7
96140.5
96033.2
95920.5
95801.6
95677.3
95548.2
95414.3
95276.2
95133.6
94985.6
94832.2
94673.2
94508.7
94339.6
94165.7
93986.9
93803.9
93617.6
93426.9
93231.6
93033.7
92834.5
92632.6
92427
92219.6
92012.6
91806.7
91600.7
91394.5
91189.4
90988.9
90795
90608.2
90430.3
90261.8
90102.5
89953.1
89815.1
89687.1
89573.6
89475.8
89393.5
89328.6
89278.9
89244.4
89223.6
89215.2
89222
89241.3
89268.5
89307.1
89351.2
89398
89444.6
89490.2
89529.7
89566.8
89588.5
89601.7
89599.8
89577.8
89532.8
89466.6
89373.6
89250.4
89102
88934.1
88740.8
88522.4
88282.4
88026.4
87773.6
87512.8
87244.6
86981.9
86733.7
86505.6
86289.4
86096
85909.6
85723.3
85549
85375.5
85191.2
84976.9
84750.7
84539
84255.5
83925.9
83560.9
83151.3
82649.9
82049.9
81404.7
80681.7
79988.8
79375
78651
78224.5
77621.7
77089.1
76653.6
76335.3
76084.3
75899.4
75814.9
75812.1
75901
76102.8
76416.4
76812.8
77280.5
97713
97713.5
97714.8
97717.4
97721.3
97726.6
97733.3
97741.4
97750.7
97761.4
97773.3
97786.4
97800.4
97815.1
97830.4
97846.2
97862.1
97878.1
97894
97909.5
97924.5
97938.8
97952.4
97965.3
97977.3
97988.1
97997.6
98005.6
98012.1
98016.6
98019.1
98019.6
98017.9
98013.7
98007
97997.4
97984.6
97968.7
97949.3
97926.5
97900.8
97871.9
97840.2
97805.6
97768.4
97728.6
97686.4
97641.6
97595
97546.9
97497.3
97446.8
97395.1
97342.4
97288.7
97233
97174.1
97112.4
97047.4
96978.4
96906.2
96831.3
96753
96670.7
96584.3
96493.7
96398.4
96298.7
96194.8
96086.6
95973.3
95854.4
95729.8
95600.6
95467.3
95329.6
95187.5
95040.4
94888
94730.6
94567.3
94399.2
94226.6
94049.3
93867.3
93682.2
93493.2
93299.5
93102.6
92904.4
92704.1
92500.3
92294.5
92089.1
91885.2
91681.6
91477.9
91275.8
91078.1
90887.3
90704.5
90530.1
90366.2
90212.2
90067.4
89933.3
89809.1
89699.8
89607.4
89529.7
89469.7
89426.3
89397.5
89382.5
89378.7
89389.1
89411.3
89443.5
89484.3
89530.7
89579.1
89625.5
89670.1
89710.9
89745
89776.3
89795.9
89800.1
89784.5
89745.9
89685.3
89600.5
89485.9
89344.6
89183.6
89002.1
88793.9
88557.3
88307.2
88056.3
87802.4
87537.1
87269.3
87014.5
86784.9
86566.2
86361.1
86161.5
85962.7
85773.3
85585.1
85391.8
85172.4
84933.4
84699.7
84427.3
84090.6
83719.3
83302.8
82804.4
82206.6
81566.1
80871.1
80138.3
79539.3
78857.2
78395.1
77832.2
77309.1
76886.6
76562.9
76315.8
76145.4
76079
76087.3
76207.2
76444.2
76789
77213
77729.5
97754.4
97755
97756.7
97759.8
97764.5
97770.8
97778.8
97788.4
97799.7
97812.5
97826.9
97842.7
97859.6
97877.6
97896.3
97915.6
97935.1
97954.8
97974.5
97993.9
98012.8
98031.1
98048.6
98065.3
98080.9
98095.3
98108.4
98119.8
98129.4
98137
98142.6
98145.8
98146.6
98144.8
98140.2
98132.4
98121.2
98106.4
98088
98065.8
98040
98010.9
97978.7
97943.3
97905
97863.8
97819.5
97772.7
97723.7
97672.3
97619.1
97565
97509.6
97452.7
97394.9
97335.4
97272.5
97206.5
97137.2
97064
96987.8
96909
96827.5
96742.4
96653.6
96561
96464
96362.8
96257.7
96148.6
96034.7
95915.4
95791.3
95662.4
95529.7
95393.1
95252.4
95106.8
94955.4
94798.4
94638.3
94472.7
94302.4
94127.4
93947.1
93763.3
93576.6
93385.4
93190.4
92993.7
92795.4
92594.3
92390.8
92187.5
91986.2
91785.6
91585.1
91386.1
91191.4
91004
90825.4
90655.8
90495.6
90346.3
90208.3
90076.8
89956.4
89850.7
89763.3
89690.5
89635.6
89597.6
89574.1
89565.2
89566.2
89579.9
89604.9
89640.3
89683.3
89731.7
89781.9
89830.3
89876.7
89916.9
89949
89990.3
90015.4
90025.9
90016.3
89984.5
89930.1
89853.3
89748.4
89616.1
89463
89291.4
89094.1
88866.3
88623.1
88376.3
88125
87864.2
87601.4
87344.3
87106.3
86880.5
86663
86453.7
86238.5
86030.9
85824.1
85619.4
85395.7
85145.3
84888.3
84627.3
84277.5
83899.9
83484.7
82991.3
82383.5
81745.4
81062.9
80353.3
79714.8
79112.2
78580.1
78066.2
77559.2
77147.5
76824.9
76582.7
76428.7
76377
76397.4
76555.2
76828.4
77205
77659.2
78229.3
97796.8
97797.7
97799.6
97803.3
97808.8
97816.2
97825.6
97837
97850.4
97865.6
97882.7
97901.5
97921.6
97943
97965.3
97988.4
98011.9
98035.7
98059.4
98082.9
98106
98128.5
98150.2
98170.9
98190.4
98208.7
98225.4
98240.4
98253.5
98264.5
98273.1
98279.3
98282.9
98283.8
98281.4
98275.8
98266.6
98253.5
98236.5
98215.3
98190.2
98161.3
98128.9
98092.9
98053.6
98010.9
97964.9
97915.7
97863.8
97809.3
97752.6
97694.6
97635.5
97574.5
97512.1
97448.5
97381.6
97310.8
97236.5
97158.7
97078.2
96995.9
96911.4
96823.7
96732.5
96637.8
96538.9
96436.2
96330
96220.1
96105.9
95986.8
95863.2
95735.2
95603.9
95468.9
95329.6
95185.8
95037
94883.9
94725.1
94562.1
94394
94222.3
94045.1
93863.7
93679.7
93491.6
93299.4
93105
92909.7
92711.8
92511.4
92310.8
92112.4
91915.4
91718.8
91523.4
91332.3
91148.4
90974.3
90809.5
90653
90504.6
90365.8
90240.5
90129.8
90029.1
89946.3
89879.3
89828.9
89796
89777.9
89774.5
89780.8
89797.9
89825.6
89863
89908.8
89958.4
90011
90062.5
90112.9
90159.8
90199.1
90236.2
90263.8
90279
90274.9
90250
90202.6
90134
90039.5
89917.5
89775
89614.2
89429.6
89213.9
88978
88735.6
88489
88231.8
87974.4
87719.9
87466.6
87232.2
87003
86784.6
86551.9
86328.5
86103.6
85882.5
85648.8
85371.8
85110.6
84854.8
84489.8
84109.2
83699.7
83215.9
82607.6
81956.4
81278.5
80594.3
79925.3
79339.1
78811
78328.8
77839.1
77437.2
77122.7
76887.9
76752.9
76707.6
76747
76947.1
77256
77667.9
78155.3
78782.1
97838.7
97839.8
97842.1
97846.4
97852.7
97861.1
97872.1
97885.4
97901.1
97919.1
97939.2
97961.3
97985.1
98010.2
98036.5
98063.6
98091.4
98119.5
98147.6
98175.6
98203.1
98230
98256
98281
98304.7
98327.1
98347.8
98366.8
98383.6
98398
98410
98419.3
98425.9
98429.3
98429.4
98426.1
98419
98407.8
98392.6
98372.9
98348.8
98320.8
98288.6
98252.4
98212.2
98168
98120.3
98068.7
98014.3
97957.7
97897.6
97835.7
97772.8
97708.1
97641.7
97573.6
97501.9
97426.5
97347.2
97264.4
97179.5
97093.5
97005.6
96915.2
96821.7
96725.1
96625
96521
96413.7
96302.9
96188.5
96070
95947.5
95822
95692.5
95559.3
95421.7
95279.5
95134.1
94984.1
94829.2
94669.5
94504.9
94336.4
94163.4
93985.5
93804.8
93620.7
93432.5
93241.2
93049.3
92855.6
92659.3
92462.2
92267.2
92074.1
91881.6
91690.4
91503.7
91323.7
91154.2
90994
90842.9
90699
90563.9
90441.8
90335
90240.5
90161.5
90099.7
90052.8
90024.5
90012.2
90013.6
90025.9
90046.6
90077.4
90116.4
90164.3
90216
90270.4
90325.4
90380.6
90434
90477.6
90514.6
90542.9
90562.2
90565
90547.5
90508.7
90447.6
90362.8
90251.4
90117.4
89968.2
89798.2
89598.3
89372.8
89133
88893.3
88643.9
88387.5
88118.4
87865.5
87622.2
87378
87143.5
86901.4
86664.3
86422.8
86181.9
85937.4
85653.5
85374.1
85104.5
84739.5
84352.1
83944.9
83467.9
82877.5
82212.2
81526.9
80857.2
80187.7
79622
79087.8
78625.8
78153.1
77766.2
77454.5
77229.3
77111.2
77073.4
77141.9
77389.2
77728.1
78178.5
78710.6
79392.8
97877.2
97878.9
97882.2
97887.2
97894.2
97903.4
97916.1
97931.7
97950.3
97971.4
97995
98020.8
98048.6
98078
98108.7
98140.3
98172.6
98205.3
98238.1
98270.7
98302.9
98334.4
98365
98394.5
98422.7
98449.5
98474.5
98497.5
98518.2
98536.5
98552.2
98564.9
98574.6
98581
98583.7
98582.6
98577.7
98568.6
98555
98536.7
98514.2
98487.6
98455.7
98419.2
98378.7
98333.6
98285
98231.9
98175.2
98116.3
98053.7
97989
97923
97854.4
97783.1
97710.2
97634.6
97554.7
97470.2
97382.1
97293.2
97203.8
97112.8
97019.6
96923.8
96825
96723.4
96618.6
96510.6
96399.5
96285.4
96166.9
96045.6
95922.4
95796.8
95666.2
95532.2
95394.4
95251.4
95103.9
94952.2
94796.7
94636.7
94472.4
94304.2
94131.2
93954.6
93775.4
93592.1
93405.2
93217.4
93028.4
92836.8
92644.4
92453.4
92264.6
92077
91890.8
91708.7
91533.3
91368.8
91213.2
91066
90927.7
90798.1
90679.3
90576.5
90487.7
90413
90354.9
90310.1
90287
90279.7
90286.2
90304
90329.5
90363
90404.5
90454
90508.5
90564.9
90622.9
90682.2
90741.2
90787.2
90825.8
90856.8
90880.1
90888.7
90877.2
90845.8
90795.5
90720.8
90621.5
90498.3
90361.4