/*--------------------------------*- C++ -*----------------------------------*\
| =========                 |                                                 |
| \\      /  F ield         | OpenFOAM: The Open Source CFD Toolbox           |
|  \\    /   O peration     | Version:  dev                                   |
|   \\  /    A nd           | Web:      http://www.openfoam.org               |
|    \\/     M anipulation  |                                                 |
\*---------------------------------------------------------------------------*/
FoamFile
{
    version     2.0;
    format      ascii;
    class       volScalarField;
    object      p_0;
    location    "9.161";
}
// * * * * * * * * * * * * * * * * * * * * * * * * * * * * * * * * * * * * * //

dimensions      [1 -1 -2 0 0 0 0];

internalField   nonuniform List<scalar> 
12225
(
97524
97520.9
97527.6
97545.2
97563
97592.1
97616.8
97665.4
97703.7
97773
97822.3
97911.4
97976.3
98077.2
98150.7
98233.3
98199.5
97777.5
97517.3
97516.1
97523.4
97541.3
97558.9
97588.9
97612.7
97663.7
97698.7
97773.4
97816.8
97911.8
97971.2
98073.2
98149
98246.5
98275.1
98199.4
97505.4
97506.1
97513.9
97531.9
97549.7
97579.4
97603.6
97657.7
97686.3
97770.9
97804.2
97907
97957.4
98063.8
98141.3
98237.6
98316.3
98403.5
97486.6
97488.7
97497.1
97515.3
97533.1
97562.9
97588.6
97640.8
97673.5
97752.2
97790
97891
97941.6
98052.5
98127.5
98233.9
98325.2
98426
97457
97462
97471.1
97489.6
97507.6
97537.8
97565
97615.5
97652.8
97723.9
97772.2
97860.3
97920.9
98026.8
98110.6
98200.2
98304.5
98405.5
97416
97423.3
97432.7
97452.3
97470.6
97501.4
97530
97579.6
97619.9
97686.3
97741.9
97822.4
97894.1
97985.1
98094.1
98149.6
98274.5
98361.8
97362.1
97369.3
97379.4
97399.3
97419.4
97450.2
97480.9
97525.6
97573.1
97634.8
97697.6
97772.7
97852.7
97926.7
98069.5
98124
98259.8
98290.5
97298.2
97308.3
97319.3
97339.9
97361.4
97392.2
97425.3
97469.3
97519.8
97580.1
97647.1
97720.7
97804.3
97875.5
98018
98066.1
98217.6
98238.4
97229.1
97241.7
97254.6
97275.1
97298.9
97329.2
97365.2
97409.4
97462.2
97522.2
97591.9
97664.8
97750.3
97825.8
97952
98008.6
98151.2
98199.9
97140.5
97154
97169.3
97190.2
97216.2
97247.2
97285.8
97330.4
97385.6
97445.7
97517.6
97590.9
97677
97758.1
97868.3
97942.6
98060.9
98136.6
97029.4
97040.2
97057
97079
97107.1
97139.8
97180.4
97226.4
97283.4
97345
97417.9
97493.3
97579
97665.2
97764.3
97852.3
97955.5
98044.7
96879.3
96890.3
96909.7
96932.9
96963.4
96997.4
97040.6
97088.6
97147.8
97211.3
97285.8
97363.4
97450.2
97539.2
97634.9
97728.9
97827.6
97922.9
96691.1
96697.2
96716.8
96742
96774.3
96811.1
96856.5
96907.9
96969
97036
97112.2
97193.3
97281.5
97373.2
97469.6
97567.2
97666.6
97765.8
96436.1
96444.9
96466.5
96494
96528.7
96568.7
96616.9
96672.1
96736
96807.1
96886.2
96971.3
97062.5
97158
97257.2
97358.5
97461.3
97564.8
96107.4
96122.9
96146.3
96176.5
96213.6
96257.4
96309.2
96368.7
96436.8
96512.6
96596
96685.9
96781.5
96881.7
96985.5
97091.9
97199.9
97308.8
95705.9
95721.2
95744.7
95776.7
95816.7
95864.7
95920.9
95985.6
96058.8
96140.2
96229.3
96325
96426.5
96532.8
96642.9
96755.9
96870.6
96986.6
95226
95230.1
95252.6
95286.5
95329.7
95381.9
95443.4
95514
95593.5
95681.5
95777.3
95880.1
95988.8
96102.6
96220.4
96341.3
96464.3
96589
94666.6
94682.7
94709.7
94747.1
94794.3
94851.3
94918.2
94994.9
95081.1
95176
95279.1
95389.2
95505.8
95627.7
95753.8
95883.3
96015.1
96148.6
94147.4
94175.1
94207.5
94249.2
94300.6
94362.2
94434.2
94516.5
94608.5
94709.7
94819.3
94936.2
95059.6
95188.5
95322.1
95459.2
95598.9
95740.5
93724.5
93753.9
93790.1
93835.5
93890.7
93956.2
94032.3
94119
94215.7
94321.8
94436.6
94559
94688
94822.6
94962.1
95105.5
95251.6
95399.6
93391.1
93417
93454.5
93502.4
93560.3
93628.9
93708.4
93798.5
93898.9
94008.9
94127.7
94254.4
94387.9
94527.2
94671.3
94819.4
94970.5
95123.6
93119.4
93150.5
93190.4
93240.3
93300.7
93371.8
93453.9
93546.8
93650
93763
93884.8
94014.7
94151.7
94294.6
94442.5
94594.2
94749.1
94906.2
92918.2
92947.4
92988.3
93039.5
93101.4
93174.4
93258.5
93353.5
93458.9
93574.1
93698.3
93830.6
93970.1
94115.8
94266.4
94421.1
94578.9
94738.9
92762.7
92794.9
92836.5
92888.6
92951.6
93026.3
93111.9
93208.6
93315.7
93432.5
93558.4
93692.5
93833.9
93981.6
94134.3
94291.2
94451.1
94613.3
92651.6
92684.1
92725.6
92778.3
92842.7
92918
93004.8
93102.8
93211.1
93329.1
93456.2
93591.6
93734.3
93883.4
94037.7
94196.1
94357.7
94521.4
92577.1
92606.1
92646.9
92700
92765
92841.5
92929.4
93027.9
93137
93255.8
93383.8
93520.1
93663.8
93813.8
93969.1
94128.7
94291.4
94456.3
92526.9
92553.2
92593.3
92646.6
92712.2
92789.4
92877.8
92977
93086.9
93206.1
93334.7
93471.6
93616
93766.6
93922.6
94082.9
94246.4
94412.2
92498.4
92519.7
92558.9
92612.4
92678.5
92756.2
92845
92944.5
93054.1
93174.3
93303.4
93440.8
93585.6
93736.7
93893.1
94053.8
94217.8
94384.2
92481.7
92500.6
92538.8
92592.8
92659.3
92737.4
92826.4
92926.2
93036.3
93156.5
93285.8
93423.4
93568.4
93719.8
93876.5
94037.5
94201.8
94368.5
92475.6
92492.9
92530.6
92584.5
92651.2
92729.3
92818.5
92918.3
93028.6
93148.9
93278.3
93416.1
93561.2
93712.7
93869.5
94030.6
94195.1
94362
98936.4
98935.4
98933.5
98930.7
98926.7
98921.8
98915.5
98907.8
98898.6
98887.9
98876.2
98863
98848.5
98832.8
98815.8
98797.5
98777.9
98757
98734.7
98710.9
98685.7
98659.1
98631.1
98601.5
98570.5
98537.9
98503.9
98468.5
98431.7
98393.8
98354.4
98313.6
98273.1
98231.3
98187.4
98142.8
98098
98052.1
98006.8
97963
97919.2
97873.7
97826.4
97777.8
97728.6
97678.8
97628.8
97578.7
97528.6
97478.4
97428.1
97377.8
97327
97275.7
97223.4
97169.5
97113.8
97055.8
96995.4
96931.5
96863.7
96791.6
96714.5
96632.1
96543.9
96449.6
96348.7
96241
96125.3
96002.2
95871.7
95734
95589.2
95437.4
95279
95114.5
94944.1
94768.4
94588.2
94403.9
94216.2
94025.6
93833.1
93636.4
93440.8
93244.6
93049.1
92854.6
92662
92471.4
92282.9
92096.1
91910.9
91727.4
91545.8
91366.2
91188.7
91013.4
90840.9
90671.7
90506.1
90344.8
90188.5
90038.2
89895
89759.4
89632.4
89515.5
89410.5
89319.3
89242.4
89179.3
89128.6
89090.8
89067.5
89057.8
89059.9
89072.4
89093.6
89121.1
89151.6
89179.9
89198.2
89209.9
89210.7
89196.8
89169.7
89118.7
89017.9
88919
88777.3
88601.1
88390.4
88148.3
87878.5
87583.5
87266.8
86933.6
86594.4
86260.3
85930.2
85611.3
85308.6
85027.6
84769.6
84536.6
84328.3
84139.9
83964.4
83802
83641.4
83475.5
83296.5
83090.6
82846.8
82567.9
82254.9
81905.1
81506.1
81056.7
80542.2
79934.6
79332
78715.1
78084.4
77444
76815.5
76205.5
75641.2
75207.3
74841.6
74526.5
74243.8
74020.3
73882.8
73832.1
73845.8
73925.9
74069.8
74283.8
98937.5
98936.5
98934.6
98931.7
98928
98923
98916.7
98909.1
98900.1
98889.7
98877.8
98864.6
98850.3
98834.8
98818
98800
98780.7
98760.1
98738.1
98714.7
98689.8
98663.6
98636
98606.9
98576.2
98544.1
98510.7
98475.5
98438.8
98401.7
98363
98321.9
98279.8
98237.5
98195.3
98153.4
98108.8
98060.5
98012.3
97966.3
97921.7
97876.1
97828.7
97780
97730.9
97681
97630.8
97580.6
97530.2
97479.9
97429.4
97378.8
97327.8
97276.2
97223.5
97169.3
97113.4
97055.1
96994.2
96930
96861.8
96789.4
96712
96629.1
96540.1
96444.8
96343.9
96237.6
96121.1
95997.7
95866.8
95728.8
95583.8
95431.7
95273.1
95108.4
94937.9
94762.2
94581.9
94397.7
94210.1
94019.5
93826.6
93631.5
93435.4
93238.4
93042.9
92848
92655.2
92464.8
92276.4
92089.8
91904.4
91720.7
91538.9
91359.3
91181.9
91006.7
90834.2
90665.1
90499.9
90338.8
90182.5
90032.5
89890
89755.3
89628.9
89512.3
89407.8
89316.7
89240.3
89178.1
89128.4
89090.7
89068.2
89059.7
89063
89076.7
89098.7
89126
89155.3
89182
89201.2
89214.4
89216.7
89203.4
89177.4
89129.1
89029.3
88928
88787.6
88613.2
88404.4
88163.9
87894.9
87600.9
87285.1
86951.6
86612.3
86277
85947.7
85630.5
85328.7
85046
84786.5
84552.2
84342.3
84153.9
83981.4
83815.3
83654.6
83486.8
83306.5
83102.4
82856.7
82577.7
82264.9
81916.9
81524.6
81066.9
80549.4
79950.4
79338
78719.6
78092.7
77448.8
76814.5
76198.3
75625
75200
74834.5
74520.9
74253.4
74029.6
73895.3
73850.8
73865.1
73949.6
74101.6
74316.5
98939.9
98938.8
98936.8
98933.9
98930.1
98925.1
98918.8
98911.2
98902.2
98891.9
98880.3
98867.5
98853.6
98838.6
98822.4
98804.9
98786.3
98766.3
98744.9
98722.2
98698.1
98672.6
98645.8
98617.7
98588.1
98557
98524.6
98490.8
98455.5
98417.9
98378.5
98339.9
98300.1
98255.2
98209.6
98166
98121.8
98075.1
98027.2
97979.6
97932.3
97884.5
97835.9
97786.6
97736.8
97686.6
97636.1
97585.4
97534.7
97483.8
97432.9
97381.6
97329.9
97277.6
97224.2
97169.3
97112.7
97053.8
96992.1
96927.1
96858
96784.7
96706.6
96623.3
96533.7
96438.4
96338.2
96228.9
96112.1
95988.1
95856.9
95718.4
95573
95420.7
95261.9
95097
94926.3
94750.4
94570
94385.5
94197.9
94007.6
93814.5
93619.8
93423.7
93227.3
93031.4
92835.9
92642.6
92452
92263.7
92076.9
91891.4
91707.4
91525.1
91345.4
91168.3
90993.1
90820.5
90651.8
90487.1
90326.3
90170.9
90022
89880.5
89747.3
89622.4
89507
89403.4
89313
89237.3
89176.6
89128.5
89092.5
89071.3
89064.3
89068.8
89083.6
89107.3
89134.9
89163.5
89188.9
89210.3
89226
89230.5
89217.8
89192
89144.3
89055.7
88948.4
88808.2
88635.9
88429.8
88192.4
87925.9
87634.2
87321.7
86990.9
86651.9
86314.6
85984.8
85668.1
85366
85083.3
84821.7
84585.3
84373.1
84182.4
84006.5
83837.7
83678.2
83508.7
83326.6
83124.3
82877
82594.5
82282.8
81936.9
81540
81083.2
80559.1
79963.1
79343.4
78730
78101
77452.2
76814.1
76194.4
75612
75192.6
74830.8
74513.9
74263.5
74048.1
73920.1
73877
73903.6
73993.3
74148.9
74381.8
98944.2
98943
98941
98938
98934
98928.7
98922.3
98914.5
98905.7
98895.5
98884.4
98872.4
98859.2
98844.9
98829.3
98812.7
98794.9
98775.7
98755.3
98733.6
98710.7
98686.4
98661
98634.4
98606
98576.3
98545.4
98512
98478.2
98443.1
98403.2
98361.6
98321
98277.9
98232.7
98187.6
98141.2
98093.9
98045.8
97997.2
97948.3
97899
97849.2
97798.9
97748.3
97697.3
97646
97594.6
97543
97491.2
97439.3
97387
97334.2
97280.8
97226.2
97170.3
97112.6
97052.6
96989.8
96923.6
96853.8
96779.4
96699.5
96616.5
96526.6
96429.7
96326.9
96216.6
96099.1
95974.3
95842.4
95703.4
95557.5
95404.8
95245.7
95080.5
94909.6
94733.5
94552.9
94368.2
94180.2
93989.5
93797.1
93602.3
93406.4
93210.2
93014.6
92820.1
92624.6
92433.4
92245.4
92058
91872.1
91687.7
91505
91325.4
91148.7
90973.8
90801.2
90633
90469.1
90309.5
90155
90007.2
89867.4
89736.7
89614.7
89501.9
89399.9
89310.6
89236.4
89177.6
89131.5
89098.2
89078.6
89072.8
89078.6
89094.2
89118.8
89148
89177.1
89203.5
89228.3
89247.1
89254.4
89242.6
89214.2
89173.5
89088.9
88980.5
88841.2
88670.7
88467.8
88234.2
87971.3
87682.5
87373.6
87050.8
86714.8
86372.2
86039.3
85722.2
85424
85139.7
84875.1
84635
84419.1
84225.7
84047.4
83876.2
83713.9
83543.3
83359.5
83157.2
82905.7
82616.7
82306.6
81965.5
81570
81108.8
80575
79971.6
79355.7
78745.7
78110.7
77456.8
76818.1
76198.9
75608.4
75185.8
74835.6
74521.1
74276.7
74080.3
73977.3
73940.7
73974.3
74077.2
74247
74482.2
98950.6
98949.4
98947.2
98944
98939.6
98934
98927.2
98919.6
98911.1
98901.9
98891.7
98880.6
98868.4
98854.9
98840.2
98824.6
98807.6
98789.3
98769.7
98749.2
98727.3
98704.1
98679.9
98654.9
98628.4
98601
98572
98539.5
98504.6
98469.2
98431
98390
98348.1
98304.5
98259.6
98213.5
98166.4
98118.4
98069.8
98020.6
97970.7
97920.3
97869.4
97818.1
97766.2
97714.1
97661.6
97608.9
97556
97502.8
97449.4
97395.6
97341.3
97286.3
97230.3
97172.8
97113.4
97051.9
96987.7
96919.7
96848.5
96774.1
96693
96607
96515.2
96417
96312.7
96201.1
96082.4
95956.6
95823.9
95684
95537.3
95384.1
95224.7
95059.2
94888.2
94712
94531.2
94346.5
94158.4
93967.6
93774.4
93580.2
93384.6
93188.4
92992.5
92797.7
92604.1
92411
92221.2
92034.1
91848.3
91663.8
91480.9
91301
91124.6
90950
90777.8
90610.3
90447.9
90289.5
90136.4
89990.2
89852.5
89724.4
89605.5
89496.2
89397.3
89310.4
89238.3
89181.8
89137.7
89106.6
89089.8
89086
89093.8
89110.5
89135.3
89165.8
89196.6
89225.2
89253.3
89276.6
89287
89277.4
89251.6
89207
89129.1
89023.7
88886.5
88719.1
88520.2
88290.8
88031.1
87745.4
87440.4
87119.6
86785.6
86444.7
86112.2
85792
85489.6
85208.3
84943.2
84699.4
84479.8
84283.2
84102.4
83930.6
83762
83585.4
83397.6
83196.7
82944.7
82649.9
82335.6
81998.9
81609.6
81143.7
80600.3
79995.2
79376.6
78761.6
78121.4
77464.3
76825.5
76212.7
75602.1
75187.2
74845.8
74543.8
74302.3
74128
74034.7
74016.1
74064.5
74179.3
74367.7
74616.5
98959.5
98958.2
98955.9
98952.3
98947.6
98942
98935.8
98928.9
98921.4
98913.1
98903.9
98893.7
98882.4
98869.6
98855.6
98840.7
98824.4
98806.5
98787.5
98768.2
98748.1
98726.7
98704.3
98680.8
98655.4
98628.4
98599.8
98568.9
98535.5
98500
98462.1
98422
98380.1
98336.7
98292
98246
98198.8
98150.6
98101.5
98051.5
98000.8
97949.4
97897.3
97844.6
97791.4
97737.6
97683.4
97628.9
97574.1
97519.1
97463.7
97407.9
97351.7
97294.7
97236.9
97177.5
97116.1
97052.6
96987.7
96917.8
96844.1
96766.5
96684
96596
96502.2
96402.3
96296
96182.8
96062.7
95935.7
95801.8
95660.9
95513.5
95359.7
95199.7
95033.9
94862.8
94686.5
94505.8
94321.3
94133.2
93942.7
93749.8
93555.2
93359.8
93163.8
92967.9
92772.7
92578.8
92386.3
92195.7
92008
91821.8
91637.5
91454.9
91274.8
91098.1
90923.8
90752.2
90585.7
90424.6
90267.8
90116.4
89972.4
89837
89711.2
89595.6
89490.2
89394.6
89311.5
89242.8
89189
89147.5
89119.5
89105.5
89104.7
89115.8
89135
89160.4
89190.9
89222.3
89252.5
89284
89311
89326.5
89320.6
89297.7
89252.8
89179.5
89078.3
88944.5
88781
88586.9
88362.6
88107.4
87823.3
87521.1
87204.7
86875.9
86539.4
86205.4
85883.4
85575.3
85290.6
85026.6
84781.3
84555.2
84353.2
84171.6
84006.9
83827.8
83645.6
83452.2
83236.6
82987
82693.2
82373.8
82036.1
81649.6
81183.7
80632.3
80025.6
79406.2
78779.9
78133.5
77484.6
76852.1
76241.8
75666.5
75207.6
74868.9
74573.9
74343.5
74184.3
74106.9
74102.3
74172.1
74300.7
74503.5
74766.1
98971.2
98969.8
98967.4
98964
98959.7
98954.8
98949.4
98943.4
98936.8
98929.4
98921.1
98911.6
98900.9
98888.9
98875.9
98861.9
98846.7
98830
98812.4
98794.4
98775.6
98755.6
98734.6
98712.3
98688.2
98662.3
98634.6
98604.4
98571.7
98536.7
98499.6
98460.5
98419.5
98376.8
98332.5
98286.7
98239.6
98191.1
98141.4
98090.7
98039
97986.4
97932.9
97878.5
97823.4
97767.7
97711.4
97654.6
97597.5
97540.1
97482.3
97424.2
97365.8
97306.5
97246.7
97186
97122.2
97056.1
96987.9
96915.7
96839.7
96759.4
96674.4
96584.1
96488
96385.9
96277.5
96162.4
96040.7
95912.2
95777
95635.1
95486.8
95332.2
95171.7
95005.6
94834.4
94658.2
94477.6
94293.4
94105.5
93915.1
93723.1
93528.6
93333.1
93137.5
92942.1
92746.8
92552.8
92360.4
92167.7
91980.4
91794
91609.8
91428
91247.9
91070.8
90896.6
90725.8
90560.1
90400.6
90246.2
90097.1
89955.3
89822.3
89699.3
89586.6
89484
89393
89314
89248.9
89197.8
89160.2
89136.7
89126.2
89128.8
89143.3
89166.5
89194.3
89224.7
89255.1
89287
89323.4
89354.9
89374.2
89375.1
89354.5
89311.9
89242.4
89145.1
89016.2
88856.9
88667.3
88447.8
88200.5
87922
87621.3
87306.2
86980.7
86651.5
86316.4
85992
85680.7
85388.4
85126.5
84880
84648.8
84438.4
84249.2
84075.8
83899.3
83715.5
83503.5
83285.8
83032.2
82738.8
82420.9
82081
81692.6
81226.3
80670.1
80060
79440.5
78800
78149.9
77522.2
76912.5
76277.2
75682.3
75240.6
74916.2
74624.3
74403.2
74252.5
74195.5
74204
74288.5
74443
74661.7
74938.1
98986.2
98984.8
98982.7
98979.6
98976.1
98972
98967.5
98962.5
98956.8
98950.3
98942.9
98934.5
98925
98914.4
98902.7
98890.2
98876.7
98861.9
98846.2
98829.5
98811.9
98793.6
98773.8
98752.5
98729.4
98704.3
98677.1
98647.6
98615.8
98581.8
98545.7
98507.5
98467.3
98425.2
98381.3
98335.6
98288.4
98239.6
98189.3
98137.7
98084.8
98030.7
97975.6
97919.3
97862.1
97804
97745.3
97686
97626.2
97566
97505.5
97445
97385.1
97323.4
97260.4
97196.6
97130.5
97061.9
96990.3
96915.1
96836.2
96753
96665.1
96572
96473.3
96368.7
96257.9
96140.8
96017.3
95887.1
95750.5
95607.4
95458
95302.6
95141.6
94975.4
94804.3
94628.2
94447.8
94263.9
94076.6
93886.2
93692.8
93499.8
93305.3
93110.3
92915.6
92720.9
92526.8
92333.6
92142.2
91954.2
91767.9
91583.4
91401.6
91222
91044.9
90871
90701.2
90536.8
90378.7
90226.5
90080.2
89941.3
89810.8
89690.1
89580.5
89481.9
89394.9
89320.4
89259.2
89212.3
89179.2
89160.1
89153.4
89159.4
89176.9
89203.5
89235.1
89268.5
89301.5
89338.8
89380.1
89415.6
89435.5
89440.9
89423.5
89382.9
89317.5
89224.7
89102.1
88947.3
88762.8
88546.6
88305.6
88035
87741.3
87429.8
87101.3
86764.4
86437.9
86118
85808.2
85512.8
85243.8
84995.9
84760.7
84542.1
84341.5
84157.7
83978.9
83786.9
83580.2
83354.9
83093.4
82801
82478.4
82135.3
81744.6
81273
80719.3
80096
79478.1
78825.8
78174.1
77553.8
76959.8
76347.6
75709
75293
74977.3
74697.1
74480.8
74341.8
74301.6
74325
74425.5
74598.9
74839.1
75135.2
99004.9
99003.6
99001.7
98999.2
98996.2
98993
98989.4
98985.5
98980.9
98975.7
98969.7
98962.9
98955.2
98946.4
98936.5
98925.9
98914.4
98901.9
98888.2
98873.4
98857.4
98840.1
98821.3
98800.8
98778.5
98754.1
98727.7
98699.1
98668.3
98635.3
98600.1
98562.7
98523.3
98481.7
98438.1
98392.7
98345.3
98296.1
98245.1
98192.4
98138.3
98082.7
98025.9
97967.4
97907.7
97847.1
97785.5
97723.5
97661
97597.9
97534.9
97471.4
97407.7
97343.4
97277.7
97210.8
97141.9
97069.7
96994.9
96916.5
96834.4
96748
96656.9
96560.7
96459.1
96351.7
96238.4
96119.1
95993.7
95861.9
95723.6
95579.1
95428.7
95272.4
95110.9
94944.5
94773.5
94598.1
94418.2
94234.7
94048.1
93859.3
93667.3
93473.8
93279.6
93084.9
92890.6
92696.7
92503.3
92310.2
92119
91930.6
91744.8
91560.3
91379
91200
91023.2
90850
90681.4
90518.5
90361.9
90211.7
90068.3
89932.6
89805.3
89687.8
89581.6
89486.4
89403
89333
89276.2
89233.7
89205.6
89191.1
89188.7
89198.7
89219.8
89249.6
89285.6
89324.1
89364.2
89408
89452.3
89489
89512.4
89517.6
89503.8
89466.9
89405.5
89318.1
89201.3
89051.6
88873.3
88663.4
88427.1
88163.3
87875.6
87569.5
87246.3
86911.8
86587.2
86266
85956.5
85660.8
85380.8
85132.2
84891.6
84665.3
84454.7
84260.2
84069.9
83871.7
83653.7
83423.5
83185
82877.5
82547.7
82197.1
81807.6
81327.3
80780.3
80132
79517.8
78857.9
78210
77584.7
76993.8
76431
75873.2
75365.4
75058.1
74784.7
74576.7
74456
74427.6
74467.5
74589.2
74787.3
75045.6
75364.7
99027.3
99026.3
99024.6
99022.6
99020.3
99017.8
99015.3
99012.4
99009.2
99005.5
99001.2
98996.3
98990.5
98983.7
98976.2
98967.7
98958.4
98947.9
98936.2
98923.2
98908.9
98893
98875.3
98855.9
98834.6
98811.3
98786
98758.5
98728.8
98696.8
98662.5
98626
98587.2
98546.2
98503.1
98457.9
98410.5
98360.9
98309.2
98255.5
98200
98142.6
98083.6
98022.9
97960.7
97897.3
97832.8
97767.8
97702.1
97636
97569.5
97502.9
97435.9
97368.2
97299.2
97228.7
97155.6
97080.5
97002.1
96920.4
96834.8
96745.1
96650.5
96550.9
96446.2
96336
96220.2
96098.5
95970.9
95837.6
95697.5
95551.5
95400.1
95242.8
95081.1
94914.8
94744.1
94569.2
94390.2
94207.6
94021.4
93831.7
93641.6
93449.7
93257
93063.4
92869.7
92676.4
92484
92291.5
92101
91912.8
91726.9
91543.2
91362.4
91184.2
91008.5
90836.1
90668.7
90507.5
90352.4
90204.3
90063.7
89931.4
89807.6
89693.7
89591.1
89499
89419.6
89354
89302.2
89264.4
89241.4
89231.8
89233.9
89248.9
89274.5
89308.7
89349.3
89393.8
89441.5
89489.9
89535.3
89570.9
89593.8
89605.5
89596.5
89564.9
89508
89426.2
89316
89172.5
88997.7
88795.7
88567.8
88311.9
88029
87726.7
87409.1
87084.2
86760
86437
86125
85829.8
85544.8
85292.4
85043.4
84807.5
84586.4
84381.3
84179
83968.5
83739.8
83500.7
83263.6
82957.5
82625.7
82266.6
81871.3
81387.5
80838.2
80188.5
79566.2
78905.5
78267.5
77640
77064.2
76493.3
75976.1
75459.2
75164.4
74896.5
74695.3
74596.2
74578
74636
74778.5
75000.8
75292.4
75641
99052.9
99052
99050.8
99049.3
99047.6
99046
99044.5
99042.8
99041
99039
99036.5
99033.5
99029.8
99025.4
99020.1
99014
99006.8
98998.5
98988.9
98977.8
98965.1
98950.8
98934.7
98916.7
98896.8
98874.9
98850.9
98824.8
98796.4
98765.4
98732.4
98697
98659.2
98619.1
98576.6
98531.7
98484.2
98434.2
98381.7
98326.9
98269.9
98210.7
98149.6
98086.5
98021.7
97955.5
97888.1
97819.9
97751
97681.5
97611.7
97541.6
97471
97399.7
97327.2
97252.6
97176
97096.8
97014.2
96928.3
96838.8
96745.3
96647.1
96543.9
96435.8
96322.6
96204.1
96080.1
95950.5
95815.3
95673.5
95526
95372.9
95215.6
95053.7
94887.9
94717.7
94543.6
94365.7
94183.8
93999.6
93812.4
93622.7
93431.5
93239.8
93047.6
92855
92662.6
92471.3
92280.4
92090.6
91902.7
91717.7
91534.1
91354.5
91177.7
91003.1
90831.5
90665.1
90505.4
90352.2
90206.5
90069.1
89939.9
89820
89709
89609.1
89521.7
89446.6
89385.9
89339.5
89307.1
89289
89284.8
89291.5
89311.8
89342.7
89381.9
89427.5
89477.5
89530.1
89582.1
89629.3
89667.3
89694.2
89708.4
89702.5
89676.3
89624.5
89547.9
89444.9
89309.9
89141.5
88946.4
88727
88479.1
88205.5
87905.2
87595.6
87277
86952.4
86633.8
86319.5
86022.4
85730.6
85461.4
85216.6
84972.5
84739.6
84522.2
84307.9
84081.8
83835.5
83591.3
83347.1
83037.9
82711.4
82347.4
81937
81457.1
80899
80265.1
79626.8
78975.3
78346.5
77715.8
77173.9
76568.6
76063.4
75601.9
75288.5
75033.6
74842.3
74758.6
74757.5
74834.7
74997.2
75247.2
75574.8
75956.7
99080.2
99079.6
99078.7
99077.8
99077
99076.4
99075.9
99075.5
99075.2
99074.7
99074.1
99073.1
99071.8
99069.8
99066.9
99063.2
99058.4
99052.3
99044.8
99035.8
99025.2
99012.9
98998.5
98982.5
98964.5
98944.5
98922
98897.7
98871
98841.8
98810.2
98776.1
98739.5
98700.4
98658.6
98614
98566.5
98516.2
98463.1
98407.4
98349
98288.2
98225.2
98159.9
98092.7
98023.8
97953.5
97882.1
97809.8
97736.8
97663.3
97589.3
97514.8
97439.5
97362.9
97284.2
97203.3
97119.8
97032.9
96942.2
96848
96750.3
96648.2
96541.4
96429.7
96313
96191.5
96065.1
95933.6
95796.1
95653.9
95505.5
95351.9
95193.7
95031.6
94866.2
94696.7
94523.5
94347
94166.5
93983.5
93798.1
93610.4
93420.9
93230.8
93040.5
92849.4
92658
92467.9
92279.3
92090.8
91903.6
91718.8
91537
91359.1
91183.2
91009.8
90839.6
90674.9
90516.9
90365.9
90222.6
90088.1
89961.5
89845.5
89737.9
89640.7
89557.1
89486.5
89430.9
89390.2
89363.3
89350.8
89351.7
89364.1
89389.7
89425.2
89469.3
89520.2
89575.1
89631
89685.8
89735.1
89776.2
89807.2
89820.8
89821.7
89802.6
89757.6
89686.9
89590.4
89463.1
89303.9
89117
88906.9
88667.5
88404.2
88110.9
87807.3
87498.3
87177.5
86858.5
86547.7
86245
85946.2
85664.1
85414.4
85161.5
84915.8
84683.9
84455.4
84214.6
83947.8
83698.9
83447.3
83132.6
82805.6
82444.3
82040.2
81549.7
80977.1
80356.2
79704.1
79064.6
78444
77808.3
77324.6
76726.1
76193.3
75749.1
75436.3
75189.9
75014.3
74948.1
74966.6
75065.7
75250.1
75531.7
75894.1
76310.9
99107.8
99107.4
99107
99106.7
99106.8
99107.2
99107.9
99108.9
99110.1
99111.4
99112.7
99113.9
99114.8
99115.3
99115
99113.9
99111.7
99108.2
99103.3
99096.9
99089
99079.5
99066
99052.8
99037.3
99019.6
98999.6
98977.2
98952.6
98925.3
98895.4
98862.9
98827.7
98789.7
98748.8
98704.9
98657.8
98607.4
98553.9
98497.3
98437.9
98375.8
98311.1
98243.9
98174.6
98103.2
98030.2
97955.6
97879.6
97802.7
97725.1
97646.7
97567.7
97488.1
97407.3
97324.1
97238.5
97150.3
97058.6
96963
96864
96761.7
96655.5
96544.8
96429.7
96309.7
96184.9
96055.8
95922.3
95783.8
95640.3
95490.9
95336.6
95178.2
95016
94851.1
94683
94511.3
94336.2
94157.8
93976.5
93792.9
93607.4
93420.2
93232.2
93044
92855.3
92665.6
92477
92290.3
92103.9
91918.2
91734.6
91554.5
91377.9
91203.8
91032.1
90863.5
90700.8
90545.1
90396.3
90255.3
90123.7
90000.7
89886.9
89782.8
89688.8
89608.8
89542.8
89491.9
89456.7
89435.6
89428.8
89435.2
89453
89483.7
89523.9
89572.9
89628.4
89687.2
89746.2
89802.1
89853.3
89895.1
89929.3
89951.4
89957
89945
89907.4
89843.1
89754.8
89637
89486.5
89308.2
89107.5
88878.1
88621.1
88339.7
88040.5
87741.9
87432
87110.8
86799.9
86482.1
86192.4
85902.4
85639.2
85375.9
85116.5
84870.2
84627
84373.1
84094.8
83826.6
83562
83247
82915.1
82557
82150.1
81661.1
81079.5
80466.8
79804.4
79161.9
78555.7
77923.2
77461.7
76901.9
76349.4
75922.6
75611.5
75373.2
75211.2
75166.4
75206.1
75329.6
75542.3
75857.8
76251.7
76704.2
99134.1
99134.3
99134.2
99134.6
99135.4
99136.9
99138.8
99141.3
99144.3
99147.6
99151.1
99154.6
99158.1
99161.1
99163.6
99165.3
99166
99165.3
99163.4
99159.9
99154.7
99147.7
99138.7
99127.9
99115
99099.8
99082.4
99062.5
99040.1
99015.1
98987.2
98956.6
98923.1
98886.5
98846.9
98804
98757.5
98707.5
98653.8
98596.7
98536.6
98473.4
98407.4
98338.7
98267.4
98193.9
98118.1
98040.2
97960.7
97879.9
97798.1
97715.4
97631.9
97547.3
97461.8
97374.2
97283.4
97189.9
97093
96992.1
96888
96781
96670.5
96555.9
96437.1
96314
96186.4
96054.6
95918.7
95778.8
95634.1
95484.3
95329.4
95171
95009.7
94845.7
94678.9
94508.9
94335.7
94159.7
93980.9
93799.7
93616.9
93432.5
93246.7
93061.1
92875.4
92688.2
92501.7
92317.2
92133.3
91949.5
91767.7
91589.3
91415.2
91242.4
91072.5
90906.3
90745.7
90592.3
90447
90306.9
90179.1
90059.4
89948
89847
89756.2
89679.8
89618.9
89572.1
89541.9
89526.8
89525.8
89537.9
89560.7
89596.1
89641.1
89694.5
89754
89816.4
89878.4
89935.7
89987.9
90033.2
90070.4
90098.7
90110.9
90105.3
90075.5
90019
89938.1
89830.4
89690.2
89520.9
89329.2
89111.6
88862.2
88588.7
88300.6
88008
87707
87386.8
87051.9
86741.5
86452.4
86168.5
85893.4
85616.8
85342.9
85080.4
84820.8
84555.3
84267
83977.7
83698.3
83384.7
83045.2
82680.2
82249.4
81782.4
81199.1
80595.6
79934.4
79274.6
78675.2
78076.7
77586.1
77051.8
76531.3
76122.9
75811.5
75580.9
75437.7
75416.4
75475
75628
75875
76226.1
76652.6
77142.4
99157.9
99158.2
99158.6
99159.6
99161.3
99163.8
99167.2
99171.4
99176.2
99181.7
99187.6
99193.8
99200.1
99206.2
99211.7
99216.6
99220.6
99223.4
99224.9
99224.8
99223
99219.3
99213.8
99206.2
99196.4
99184.3
99169.7
99152.7
99132.9
99110.3
99085
99056.6
99025.1
98990.5
98952.5
98910.8
98865.5
98816.3
98763.1
98706.2
98645.6
98581.7
98514.7
98444.8
98371.9
98296.3
98217.8
98137.1
98054.4
97969.5
97883.2
97796.1
97707.9
97618.3
97527.7
97435.1
97339.1
97240.1
97137.6
97031.3
96921.9
96809.8
96694.8
96576.2
96453.9
96327.7
96197.3
96063.2
95925.4
95783.9
95638.1
95487.1
95332.6
95174.6
95014.2
94851.6
94686.9
94519.3
94347.7
94174.1
93998.6
93820.8
93641.4
93460.4
93277.4
93094.4
92911.7
92728.1
92544.4
92362.3
92181.3
92000.3
91820.9
91644.7
91472.7
91302.8
91135.8
90971.7
90812.8
90661.7
90519
90383.9
90257.9
90140.9
90032.4
89933.7
89847
89773.7
89717.3
89674.9
89649.6
89640.1
89644.2
89662.4
89690.3
89730.1
89779.2
89836.8
89899.6
89965.6
90030.7
90091.2
90146.5
90193.7
90233.2
90266.5
90288.1
90287.6
90265.2
90217.1
90143.9
90045.6
89916.5
89757.7
89576
89370.4
89133.6
88869.1
88591.1
88305.1
88008.5
87696.3
87374.2
87056.8
86758.8
86467.4
86181.4
85889.5
85600.2
85319.7
85040.5
84761.9
84464.8
84140.5
83859.8
83546
83202.9
82821.9
82393.8
81933.6
81336.7
80730.3
80090.5
79425.6
78806
78258.5
77731.1
77227.3
76740.9
76349.3
76041.9
75819
75698.5
75698
75772.5
75959.9
76247.2
76636.6
77102.6
77639.3
99176
99176.7
99177.4
99179.2
99182
99185.8
99190.9
99197
99204.2
99212.2
99221.1
99230.4
99239.9
99249.3
99258.5
99267.1
99274.8
99281.5
99286.7
99290.4
99292.5
99292.7
99290.9
99286.9
99280.6
99271.9
99260.7
99246.8
99230.1
99210.5
99187.8
99161.9
99132.9
99100.6
99064.6
99024.9
98981.2
98933.5
98881.5
98825.3
98765.1
98701.2
98633.6
98562.6
98488.3
98410.8
98330.1
98246.3
98160.1
98071.6
97981.1
97889.5
97796.7
97702.1
97606.1
97508.6
97407.4
97302.4
97193.7
97081.6
96966.7
96849.9
96730.7
96608.3
96482.4
96353.2
96220
96083.3
95943.5
95800.5
95653.5
95502.8
95348.7
95191.5
95032.2
94871.2
94708.8
94543.5
94375.9
94205.4
94032.6
93858.2
93682.2
93505.3
93326.4
93146.8
92967.7
92788.1
92607.8
92428.6
92251.1
92073.9
91897.5
91723.7
91554.3
91388.3
91225.3
91061.8
90906
90757.8
90618.2
90486.9
90363.7
90248.8
90142.3
90046.2
89963.9
89894
89841.4
89803.9
89783.2
89778.5
89788.1
89811.8
89845.2
89889.1
89942.2
90003.2
90070
90138.7
90207.4
90271.9
90332
90385.1
90429
90464.3
90489.4
90493.9
90478.1
90438.1
90373.1
90284
90166.4
90019.2
89850.7
89658.8
89435.8
89184.7
88914.2
88634.3
88343.8
88038.9
87734.7
87407.3
87100
86799.9
86503.2
86193.6
85889.5
85592.5
85294.4
84999.3
84692.6
84355.7
84051.5
83725.1
83347.3
82974.8
82568.1
82116.9
81517.2
80889.6
80259.2
79617.8
78952.6
78461
77912.2
77440.7
76969.6
76596.9
76305.3
76093.7
75999.4
76010.9
76102.3
76328
76659.4
77091.7
77603.6
78200.7
99186
99187
99188.5
99191.1
99195
99200.3
99207.3
99215.8
99225.7
99236.9
99249.3
99262.2
99275.5
99289
99302.2
99315
99327
99338
99347.6
99355.6
99361.9
99366.3
99368.6
99368.6
99366.2
99361.4
99354
99343.9
99330.7
99314.3
99294.7
99271.9
99245.6
99215.7
99182.1
99144.5
99102.9
99057
99006.8
98952
98892.7
98829.4
98762
98690.5
98615.1
98535.9
98453.1
98366.7
98277.7
98186.5
98092
97995.9
97898.8
97799.6
97698.7
97595.7
97489
97378.2
97263.5
97145.3
97025.1
96903.5
96779.8
96653.6
96524.3
96392.2
96256.7
96117.7
95976
95831.5
95684.5
95533.9
95380.6
95225.6
95068.6
94910
94748.6
94585.6
94420.9
94253.9
94085.2
93914.9
93742.9
93570.1
93396.1
93220.8
93045.8
92870.8
92695
92519.4
92345.8
92173
92000.5
91830.1
91663.8
91501.3
91341.3
91181.7
91030.6
90883.1
90747.4
90619.5
90499.6
90387.1
90282.8
90189.8
90111.1
90045.5
89996.2
89963.2
89945.8
89945.6
89961.1
89989.6
90029
90077.1
90134.5
90198.5
90269
90340.7
90412.5
90481.4
90546.8
90606.1
90654.6
90692.4
90719.8
90730.1
90719.1
90686.9
90630.7
90549.7
90443
90307.7
90150.9
89974
89768.9
89533.2
89272
88995.6
88713
88416.7
88115.6
87785.4
87459.9
87158.1
86853.4
86528.6
86210.4
85898.4
85582.7
85267.4
84948.7
84600.5
84272.7
83928.3
83519.3
83148.5
82754.2
82318.8
81735.5
81089.4
80453.9
79818.8
79131.6
78689.7
78128.9
77705.3
77225.8
76873.3
76598.9
76404.2
76334.5
76356.1
76470.6
76740.7
77115.1
77591.6
78152.3
78814
99183.7
99185.7
99188.4
99192.2
99197.4
99204.2
99213.6
99225.2
99238.7
99253.8
99270.1
99287.3
99305.2
99323.4
99341.5
99359.1
99375.9
99391.6
99405.9
99418.8
99429.8
99438.8
99445.6
99450.1
99452.2
99451.8
99448.6
99442.4
99433.1
99420.6
99404.8
99385.4
99362.4
99335.5
99304.5
99269.4
99230
99186.3
99137.9
99084.6
99027
98965.2
98898
98826.4
98750.6
98670.5
98586.7
98498.6
98407.1
98313.3
98216
98116.6
98015.7
97912
97805.5
97697
97585.4
97469.3
97348.5
97224.2
97098.9
96972.9
96845.1
96715.1
96582.4
96447.1
96309.2
96168.4
96025
95879.4
95732
95582.3
95430.1
95276.9
95122.3
94966.2
94808
94648
94486.6
94323.3
94158.5
93992.9
93825.9
93657.9
93489.2
93319.2
93149.2
92979.4
92808.9
92637.9
92468.7
92300.7
92132.9
91966.7
91804.1
91645
91488.9
91334.8
91186.3
91043.2
90910.6
90785.9
90669.3
90559.3
90458.1
90368
90293
90231.5
90185.8
90156.2
90141
90145.8
90166.3
90199.8
90244.9
90298
90359
90426.7
90500.4
90576.1
90650.9
90723.7
90793.4
90858.3
90911
90952.7
90982
90995.1
90989.8
90964
90915.5
90845.4
90750.1
90629.4
90483.3