/*--------------------------------*- C++ -*----------------------------------*\
| =========                 |                                                 |
| \\      /  F ield         | OpenFOAM: The Open Source CFD Toolbox           |
|  \\    /   O peration     | Version:  dev                                   |
|   \\  /    A nd           | Web:      http://www.openfoam.org               |
|    \\/     M anipulation  |                                                 |
\*---------------------------------------------------------------------------*/
FoamFile
{
    version     2.0;
    format      ascii;
    class       surfaceScalarField;
    object      phi;
    location    "9.161";
}
// * * * * * * * * * * * * * * * * * * * * * * * * * * * * * * * * * * * * * //

dimensions      [1 0 -1 0 0 0 0];

internalField   nonuniform List<scalar> 
24170
(
1.70254e-06
1.92149e-06
4.6831e-07
1.27669e-06
-2.41933e-07
7.55507e-07
-7.33091e-07
5.41091e-07
-1.14219e-06
4.67398e-07
-1.47558e-06
3.97781e-07
-1.9358e-06
5.3331e-07
-2.09664e-06
2.41791e-07
-2.68659e-06
6.83727e-07
-2.74215e-06
1.58792e-07
-3.45595e-06
8.25577e-07
-3.33164e-06
-4.91339e-09
-4.31499e-06
1.11587e-06
-3.93617e-06
-2.42565e-07
-5.12379e-06
1.34324e-06
-3.93724e-06
-1.04194e-06
-2.90884e-06
-8.75728e-07
4.14912e-06
-6.90212e-06
3.36441e-06
2.49057e-06
2.35451e-06
2.34207e-06
1.52982e-06
1.63414e-06
8.04964e-07
1.32529e-06
2.57712e-07
1.08194e-06
-4.23166e-07
1.15418e-06
-7.54162e-07
9.47406e-07
-1.37177e-06
9.53469e-07
-1.7478e-06
1.16471e-06
-2.09047e-06
6.19763e-07
-2.59817e-06
1.45793e-06
-2.31959e-06
-1.51354e-07
-3.18204e-06
2.12687e-06
-2.73348e-06
-5.43995e-07
-4.38776e-06
3.18292e-06
-4.3853e-06
-8.88594e-07
-7.58097e-06
2.47785e-06
4.80979e-06
-8.12045e-06
4.10343e-06
2.63582e-06
3.45187e-06
3.04869e-06
2.92321e-06
2.21764e-06
2.22953e-06
2.08059e-06
1.67944e-06
1.70292e-06
9.77117e-07
1.93652e-06
5.2066e-07
1.49285e-06
-2.1717e-07
1.7937e-06
-4.64517e-07
1.52448e-06
-7.55526e-07
1.04301e-06
-1.31817e-06
2.15321e-06
-1.06793e-06
-2.53751e-07
-2.00886e-06
3.22095e-06
-1.83951e-06
-5.4661e-07
-2.71456e-06
4.23774e-06
-3.19818e-06
-2.2726e-07
-6.24454e-06
5.72993e-06
7.53822e-06
-8.8189e-06
4.33883e-06
3.03095e-06
4.10241e-06
3.34166e-06
3.6701e-06
2.70704e-06
3.28708e-06
2.52882e-06
2.69567e-06
2.36964e-06
2.44438e-06
2.27269e-06
1.70355e-06
2.32942e-06
1.71064e-06
1.89546e-06
7.93626e-07
2.5642e-06
8.88662e-07
1.0858e-06
-1.58349e-08
3.20404e-06
-2.7857e-07
1.66213e-07
-1.16124e-06
4.27401e-06
-1.5134e-06
-7.91408e-09
-2.78393e-06
5.69428e-06
-2.76927e-06
-5.04754e-08
-5.23566e-06
8.39573e-06
1.04671e-05
-7.94965e-06
4.6591e-06
3.77674e-06
4.89375e-06
3.16505e-06
4.16645e-06
3.4922e-06
4.1553e-06
2.60707e-06
3.31453e-06
3.28901e-06
3.35353e-06
2.32194e-06
2.38084e-06
3.40384e-06
2.47341e-06
1.91839e-06
1.42723e-06
3.74165e-06
1.39772e-06
1.26094e-06
3.64355e-07
4.39525e-06
2.80572e-08
6.70353e-07
-8.25278e-07
5.30807e-06
-1.49177e-06
8.60871e-07
-2.59851e-06
7.01371e-06
-2.70668e-06
2.69465e-07
-4.26185e-06
1.01671e-05
1.10979e-05
-4.6642e-06
4.85795e-06
4.8169e-06
5.11314e-06
2.96396e-06
4.17376e-06
4.48487e-06
4.16628e-06
2.68167e-06
3.21871e-06
4.31346e-06
3.19348e-06
2.43831e-06
2.17247e-06
4.53098e-06
2.16958e-06
2.04372e-06
1.2385e-06
4.81165e-06
1.11047e-06
1.54251e-06
2.68805e-07
5.40502e-06
-1.36015e-07
1.25256e-06
-7.46274e-07
6.11107e-06
-1.44876e-06
1.77346e-06
-1.59584e-06
7.40289e-06
-3.23192e-06
2.13575e-06
-2.76561e-06
9.95401e-06
9.09838e-06
-5.10834e-07
5.38022e-06
5.75087e-06
5.16101e-06
3.22536e-06
4.30408e-06
5.38779e-06
4.14257e-06
2.9031e-06
3.32362e-06
5.20474e-06
3.2276e-06
2.62568e-06
2.38609e-06
5.47824e-06
2.27227e-06
2.28013e-06
1.50399e-06
5.72195e-06
1.22644e-06
1.97919e-06
7.08057e-07
6.09938e-06
2.5226e-08
2.12418e-06
-2.5126e-07
6.5851e-06
-9.83248e-07
2.72242e-06
-9.45035e-07
7.6106e-06
-2.79672e-06
4.24096e-06
-1.64707e-06
9.07472e-06
8.98471e-06
-1.30019e-06
4.34392e-06
6.22291e-06
4.00761e-06
3.58121e-06
3.42864e-06
5.99324e-06
3.22748e-06
3.13898e-06
2.62917e-06
5.85231e-06
2.48335e-06
2.83278e-06
1.95532e-06
6.08061e-06
1.71174e-06
2.61099e-06
1.35701e-06
6.1798e-06
8.73536e-07
2.57863e-06
7.3746e-07
6.36615e-06
1.12251e-07
2.89031e-06
1.227e-07
6.72379e-06
-6.39519e-07
3.64471e-06
-5.34572e-07
7.68203e-06
-1.34514e-06
5.23699e-06
-8.83309e-07
8.81238e-06
9.1903e-06
-9.08123e-07
5.05082e-06
7.00065e-06
4.70522e-06
3.93567e-06
4.11367e-06
6.59949e-06
3.8279e-06
3.45164e-06
3.24176e-06
6.48368e-06
2.86787e-06
3.26562e-06
2.47582e-06
6.54792e-06
1.93167e-06
3.24719e-06
1.75022e-06
6.47008e-06
1.09505e-06
3.36028e-06
1.0229e-06
6.57985e-06
2.95473e-07
3.77348e-06
3.50002e-07
6.83314e-06
-4.90918e-07
4.66798e-06
-3.57939e-07
7.73554e-06
-1.157e-06
6.23943e-06
-7.99091e-07
8.67407e-06
9.09571e-06
-4.81789e-07
5.89918e-06
7.51678e-06
5.42269e-06
4.39885e-06
4.89304e-06
7.1193e-06
4.3442e-06
4.01255e-06
3.97763e-06
6.88117e-06
3.2812e-06
4.01161e-06
3.07359e-06
6.82579e-06
2.31285e-06
4.09784e-06
2.17418e-06
6.7192e-06
1.366e-06
4.29879e-06
1.345e-06
6.74999e-06
5.38055e-07
4.74496e-06
6.26744e-07
6.92133e-06
-1.64484e-07
5.65851e-06
1.11196e-07
7.66043e-06
-5.38707e-07
7.11453e-06
-6.30159e-08
8.42552e-06
9.07268e-06
1.96965e-07
7.10493e-06
8.20755e-06
6.30572e-06
5.14526e-06
5.91558e-06
7.46404e-06
5.13171e-06
4.7792e-06
4.81752e-06
7.19901e-06
3.94296e-06
4.91772e-06
3.67409e-06
7.14828e-06
2.75374e-06
5.09771e-06
2.55542e-06
7.01985e-06
1.7021e-06
5.28031e-06
1.62632e-06
6.97422e-06
8.43579e-07
5.69784e-06
8.31899e-07
7.11871e-06
1.39797e-07
6.55795e-06
3.43535e-07
7.67354e-06
-1.27635e-07
7.82276e-06
1.75944e-07
8.36477e-06
8.95568e-06
5.43747e-07
8.3999e-06
8.60029e-06
7.38141e-06
6.04367e-06
7.02547e-06
7.71892e-06
5.88344e-06
5.85192e-06
5.52984e-06
7.51368e-06
4.42246e-06
6.01858e-06
4.18376e-06
7.40839e-06
3.19295e-06
6.14228e-06
3.07309e-06
7.22263e-06
2.19526e-06
6.27016e-06
2.12317e-06
7.18379e-06
1.35412e-06
6.62964e-06
1.28882e-06
7.36876e-06
7.53523e-07
7.29863e-06
7.931e-07
7.85532e-06
6.56904e-07
8.19784e-06
8.54542e-07
8.41639e-06
8.83742e-06
1.23063e-06
9.9022e-06
9.23419e-06
8.52553e-06
7.20253e-06
7.93762e-06
8.11514e-06
6.71357e-06
6.91975e-06
6.2821e-06
7.83192e-06
5.28573e-06
6.93912e-06
4.98274e-06
7.67409e-06
4.08985e-06
7.03631e-06
3.82091e-06
7.52824e-06
3.00069e-06
7.16249e-06
2.75922e-06
7.52971e-06
2.10595e-06
7.41825e-06
1.91322e-06
7.7254e-06
1.52119e-06
7.87862e-06
1.48668e-06
8.09912e-06
1.47646e-06
8.43488e-06
1.60681e-06
8.52778e-06
8.70383e-06
1.99295e-06
1.12898e-05
9.88736e-06
9.84086e-06
8.27912e-06
9.11576e-06
8.49804e-06
7.77596e-06
7.96527e-06
7.17792e-06
8.19207e-06
6.14621e-06
7.77862e-06
5.71735e-06
7.96158e-06
4.91044e-06
7.74846e-06
4.50606e-06
7.88439e-06
3.80418e-06
7.86084e-06
3.40349e-06
7.96777e-06
2.86877e-06
8.02871e-06
2.57976e-06
8.12567e-06
2.35675e-06
8.24332e-06
2.31298e-06
8.31059e-06
2.4608e-06
8.47607e-06
2.67572e-06
8.5223e-06
8.55884e-06
3.04382e-06
1.335e-05
1.0067e-05
1.19088e-05
9.116e-06
1.08434e-05
8.99105e-06
9.54297e-06
8.76293e-06
8.64182e-06
8.6564e-06
7.6173e-06
8.42771e-06
6.90444e-06
8.36427e-06
6.1347e-06
8.2672e-06
5.53971e-06
8.28842e-06
4.97944e-06
8.28572e-06
4.5246e-06
8.33947e-06
4.15407e-06
8.36554e-06
3.90402e-06
8.38573e-06
3.78167e-06
8.41446e-06
3.75194e-06
8.42309e-06
3.89093e-06
8.44856e-06
4.11739e-06
8.43163e-06
8.39333e-06
4.43882e-06
1.53481e-05
1.07124e-05
1.38682e-05
9.64332e-06
1.2672e-05
9.27894e-06
1.15281e-05
9.08786e-06
1.05209e-05
8.92279e-06
9.5237e-06
8.76841e-06
8.64912e-06
8.66318e-06
7.85357e-06
8.56544e-06
7.19505e-06
8.5263e-06
6.65236e-06
8.47953e-06
6.22442e-06
8.48566e-06
5.90709e-06
8.46392e-06
5.67482e-06
8.45404e-06
5.55821e-06
8.41903e-06
5.53699e-06
8.37648e-06
5.64432e-06
8.31196e-06
5.83431e-06
8.24582e-06
8.12234e-06
6.13854e-06
1.73856e-05
1.09891e-05
1.59458e-05
9.65003e-06
1.45995e-05
9.24163e-06
1.33415e-05
9.06063e-06
1.21888e-05
8.89033e-06
1.11596e-05
8.72135e-06
1.02555e-05
8.59253e-06
9.45413e-06
8.4964e-06
8.75694e-06
8.45044e-06
8.14738e-06
8.40988e-06
7.65488e-06
8.38466e-06
7.28222e-06
8.32402e-06
7.05856e-06
8.2376e-06
6.97945e-06
8.12596e-06
7.0519e-06
7.98916e-06
7.26098e-06
7.84255e-06
7.61253e-06
7.68048e-06
7.52756e-06
8.03482e-06
1.85354e-05
1.05427e-05
1.7057e-05
9.31614e-06
1.56036e-05
8.93508e-06
1.41936e-05
8.8085e-06
1.28596e-05
8.67771e-06
1.16817e-05
8.4663e-06
1.06924e-05
8.26463e-06
9.87953e-06
8.10736e-06
9.22177e-06
8.01557e-06
8.69075e-06
7.95256e-06
8.28456e-06
7.89939e-06
7.98238e-06
7.82568e-06
7.81756e-06
7.6843e-06
7.78598e-06
7.51692e-06
7.86642e-06
7.33592e-06
8.05479e-06
7.14565e-06
8.31457e-06
6.96676e-06
6.80737e-06
8.63248e-06
1.65897e-05
1.00465e-05
1.51141e-05
8.86562e-06
1.38952e-05
8.27997e-06
1.28583e-05
8.07381e-06
1.19376e-05
7.9363e-06
1.10422e-05
7.8068e-06
1.0181e-05
7.68462e-06
9.40619e-06
7.54912e-06
8.76903e-06
7.4269e-06
8.2805e-06
7.31473e-06
7.95882e-06
7.19124e-06
7.7864e-06
7.05578e-06
7.68139e-06
6.93048e-06
7.67277e-06
6.7413e-06
7.72275e-06
6.57058e-06
7.81158e-06
6.40536e-06
7.94465e-06
6.23854e-06
6.08274e-06
8.12716e-06
1.45357e-05
9.04423e-06
1.35062e-05
7.93921e-06
1.25478e-05
7.34534e-06
1.1723e-05
7.10718e-06
1.09832e-05
6.98512e-06
1.02817e-05
6.92031e-06
9.62014e-06
6.86356e-06
9.02955e-06
6.7599e-06
8.53524e-06
6.64178e-06
8.14417e-06
6.52235e-06
7.87314e-06
6.37011e-06
7.68492e-06
6.23582e-06
7.59441e-06
6.09289e-06
7.50937e-06
5.96905e-06
7.48548e-06
5.80543e-06
7.50797e-06
5.65477e-06
7.55564e-06
5.51971e-06
5.36716e-06
7.65206e-06
1.31394e-05
8.06136e-06
1.22215e-05
6.95581e-06
1.13158e-05
6.4095e-06
1.04891e-05
6.1837e-06
9.7722e-06
6.0442e-06
9.17062e-06
5.96132e-06
8.65928e-06
5.91237e-06
8.2201e-06
5.83215e-06
7.82949e-06
5.7597e-06
7.50679e-06
5.66126e-06
7.25395e-06
5.52298e-06
7.07833e-06
5.39215e-06
6.97593e-06
5.24911e-06
6.95561e-06
5.11219e-06
6.95664e-06
4.99177e-06
7.0162e-06
4.8412e-06
7.12152e-06
4.71588e-06
4.59991e-06
7.24005e-06
1.16219e-05
6.80427e-06
1.09516e-05
5.81764e-06
1.02265e-05
5.38091e-06
9.53599e-06
5.2053e-06
8.91186e-06
5.08737e-06
8.37928e-06
5.00302e-06
7.94659e-06
4.94266e-06
7.57815e-06
4.88794e-06
7.28192e-06
4.82841e-06
7.03993e-06
4.75752e-06
6.83091e-06
4.6653e-06
6.66595e-06
4.56336e-06
6.53198e-06
4.45871e-06
6.4499e-06
4.33485e-06
6.42092e-06
4.22071e-06
6.4158e-06
4.10271e-06
6.4616e-06
3.97756e-06
3.8673e-06
6.54967e-06
1.03536e-05
5.5269e-06
9.79512e-06
4.68616e-06
9.16686e-06
4.37024e-06
8.5585e-06
4.25371e-06
8.01168e-06
4.15482e-06
7.5396e-06
4.0765e-06
7.16124e-06
4.00538e-06
6.86129e-06
3.95267e-06
6.62938e-06
3.9028e-06
6.44357e-06
3.86178e-06
6.28569e-06
3.81236e-06
6.15791e-06
3.7485e-06
6.06351e-06
3.67428e-06
5.99403e-06
3.58485e-06
5.96095e-06
3.49009e-06
5.94163e-06
3.40961e-06
5.95433e-06
3.30023e-06
3.20907e-06
5.9923e-06
9.04533e-06
4.25551e-06
8.67117e-06
3.49974e-06
8.24062e-06
3.28938e-06
7.8038e-06
3.25133e-06
7.34918e-06
3.24283e-06
6.92063e-06
3.21379e-06
6.54075e-06
3.16826e-06
6.21267e-06
3.13636e-06
5.94077e-06
3.10182e-06
5.72511e-06
3.07212e-06
5.56753e-06
3.02991e-06
5.46747e-06
2.97011e-06
5.42768e-06
2.89344e-06
5.42691e-06
2.81977e-06
5.45549e-06
2.74608e-06
5.51897e-06
2.67816e-06
5.57253e-06
2.62258e-06
2.55274e-06
5.64546e-06
8.31975e-06
3.04441e-06
7.97036e-06
2.42579e-06
7.5555e-06
2.32411e-06
7.14758e-06
2.34491e-06
6.77285e-06
2.37075e-06
6.45081e-06
2.35561e-06
6.15858e-06
2.34672e-06
5.89354e-06
2.35385e-06
5.64801e-06
2.36344e-06
5.42892e-06
2.36886e-06
5.24882e-06
2.3464e-06
5.12033e-06
2.29059e-06
5.03498e-06
2.22355e-06
4.99468e-06
2.15413e-06
4.99168e-06
2.08944e-06
5.02015e-06
2.0331e-06
5.07703e-06
1.98892e-06
1.94436e-06
5.14602e-06
7.4572e-06
2.03746e-06
7.21668e-06
1.37691e-06
6.88772e-06
1.40202e-06
6.5068e-06
1.53435e-06
6.15158e-06
1.59478e-06
5.8347e-06
1.60193e-06
5.55848e-06
1.61291e-06
5.32361e-06
1.6376e-06
5.1179e-06
1.6756e-06
4.94234e-06
1.70606e-06
4.79955e-06
1.70362e-06
4.68358e-06
1.67113e-06
4.59703e-06
1.62199e-06
4.54195e-06
1.56559e-06
4.51247e-06
1.51695e-06
4.50808e-06
1.47432e-06
4.52734e-06
1.44264e-06
1.40745e-06
4.57086e-06
6.6135e-06
9.70474e-07
6.44934e-06
3.78085e-07
6.16246e-06
5.60985e-07
5.86377e-06
7.58894e-07
5.57394e-06
8.64829e-07
5.26854e-06
9.42389e-07
4.95697e-06
1.01379e-06
4.6623e-06
1.07461e-06
4.4148e-06
1.11708e-06
4.21459e-06
1.14938e-06
4.06231e-06
1.14613e-06
3.94106e-06
1.12747e-06
3.84224e-06
1.09834e-06
3.75754e-06
1.06778e-06
3.69022e-06
1.03922e-06
3.63789e-06
1.01659e-06
3.60448e-06
9.98576e-07
9.7145e-07
3.59334e-06
6.07708e-06
4.11888e-08
5.7711e-06
-3.57892e-07
5.36405e-06
-4.43776e-08
4.93453e-06
2.24313e-07
4.4973e-06
3.86673e-07
4.0616e-06
5.12114e-07
3.65709e-06
6.00843e-07
3.29628e-06
6.653e-07
2.98758e-06
7.01197e-07
2.73677e-06
7.20118e-07
2.5282e-06
7.16971e-07
2.35076e-06
7.07396e-07
2.19454e-06
6.95076e-07
2.05606e-06
6.8257e-07
1.93706e-06
6.6809e-07
1.837e-06
6.57861e-07
1.76437e-06
6.41627e-07
6.32718e-07
1.70072e-06
5.31009e-06
-6.68109e-07
4.6576e-06
-6.34429e-07
3.89736e-06
-1.87612e-07
3.17656e-06
8.42495e-08
2.51592e-06
2.30388e-07
1.94407e-06
3.10188e-07
1.46843e-06
3.4589e-07
1.08285e-06
3.62591e-07
7.68066e-07
3.68629e-07
5.12673e-07
3.67684e-07
2.97749e-07
3.61815e-07
1.1638e-07
3.54529e-07
-3.51998e-08
3.46299e-07
-1.60577e-07
3.39489e-07
-2.61407e-07
3.30372e-07
-3.38672e-07
3.2455e-07
-3.88992e-07
3.07466e-07
3.13042e-07
-4.29519e-07
3.25546e-06
1.81123e-06
8.39479e-07
1.74765e-07
-3.07015e-07
-6.72025e-07
-9.64004e-07
-1.2026e-06
-1.39949e-06
-1.56297e-06
-1.69954e-06
-1.81227e-06
-1.90383e-06
-1.97453e-06
-2.02841e-06
-2.06384e-06
-2.09378e-06
-2.09735e-06
3.04199e-07
4.07131e-07
7.11368e-07
3.23936e-07
1.22217e-06
2.3162e-07
1.85863e-06
1.13499e-07
2.61841e-06
-3.53077e-09
3.48574e-06
-1.04833e-07
4.40557e-06
-1.51363e-07
5.3148e-06
-1.3557e-07
6.17405e-06
-8.09509e-08
6.97823e-06
-2.26016e-08
7.69158e-06
7.0819e-08
8.3115e-06
1.67293e-07
8.84791e-06
2.50732e-07
9.30064e-06
3.3238e-07
9.67186e-06
4.13645e-07
9.98716e-06
4.6738e-07
1.02572e-05
5.06506e-07
1.04691e-05
5.61048e-07
1.06334e-05
6.09237e-07
1.07677e-05
6.3467e-07
1.08601e-05
6.63804e-07
1.0895e-05
7.08475e-07
1.08815e-05
7.5187e-07
1.0858e-05
7.60054e-07
1.08383e-05
7.56147e-07
1.08734e-05
6.98761e-07
1.09867e-05
5.95483e-07
1.10727e-05
5.93405e-07
1.11307e-05
6.23425e-07
1.12524e-05
5.90038e-07
1.13621e-05
6.33109e-07
1.18487e-05
2.4361e-07
1.28738e-05
-3.71237e-07
1.37902e-05
-3.29547e-07
1.42838e-05
9.43557e-08
1.46437e-05
2.55267e-07
1.49152e-05
3.07608e-07
1.48272e-05
5.80338e-07
1.41718e-05
1.15041e-06
1.30838e-05
1.65523e-06
1.18357e-05
1.82503e-06
1.06242e-05
1.75434e-06
9.5097e-06
1.63704e-06
8.4963e-06
1.5252e-06
7.57076e-06
1.42726e-06
6.72272e-06
1.33922e-06
5.95125e-06
1.25213e-06
5.24819e-06
1.17347e-06
4.61908e-06
1.08965e-06
4.05881e-06
1.01141e-06
3.57182e-06
9.29321e-07
3.16463e-06
8.41258e-07
2.83226e-06
7.58681e-07
2.57284e-06
6.78102e-07
2.3902e-06
5.9413e-07
2.28364e-06
5.10852e-07
2.25776e-06
4.22918e-07
2.29897e-06
3.48517e-07
2.41115e-06
2.70173e-07
2.56516e-06
2.20471e-07
2.76372e-06
1.67421e-07
2.98953e-06
1.30792e-07
3.24335e-06
9.2017e-08
3.51178e-06
6.56558e-08
3.77531e-06
5.87428e-08
4.03798e-06
4.70506e-08
4.27129e-06
6.22602e-08
4.49502e-06
5.66089e-08
4.69436e-06
6.29308e-08
4.86126e-06
7.58341e-08
4.97913e-06
1.03922e-07
5.07635e-06
1.02074e-07
5.14786e-06
1.03699e-07
5.19188e-06
1.05523e-07
5.20895e-06
1.05416e-07
5.20037e-06
1.02854e-07
5.1604e-06
1.05062e-07
5.09841e-06
9.73689e-08
5.00358e-06
1.00879e-07
4.87347e-06
1.07375e-07
4.68713e-06
1.35064e-07
4.43271e-06
1.74886e-07
4.12353e-06
2.03305e-07
3.73538e-06
2.53999e-07
3.26464e-06
3.14095e-07
2.76516e-06
3.24142e-07
2.27673e-06
2.99398e-07
1.81654e-06
2.62487e-07
1.41188e-06
2.03805e-07
1.01635e-06
1.95752e-07
5.37942e-07
2.84411e-07
-5.11355e-08
4.06304e-07
-6.90263e-07
4.73596e-07
-1.31292e-06
4.79397e-07
-1.93811e-06
5.08638e-07
-2.50305e-06
4.7934e-07
-3.02578e-06
4.72223e-07
-3.48316e-06
4.46127e-07
-3.84947e-06
3.97374e-07
-4.16475e-06
3.89976e-07
-4.4893e-06
4.41702e-07
-4.82846e-06
4.96998e-07
-5.06628e-06
4.36993e-07
-5.24275e-06
4.18397e-07
-5.4221e-06
4.66463e-07
-5.61195e-06
5.24402e-07
-5.80146e-06
5.71955e-07
-5.71083e-06
3.42883e-07
-5.26287e-06
3.39698e-08
-4.41391e-06
-3.21072e-07
-3.03376e-06
-8.16089e-07
-1.3346e-06
-1.10024e-06
-9.58798e-08
-6.06183e-07
5.11425e-07
5.65851e-08
8.53952e-07
3.43452e-07
1.18112e-06
3.70642e-07
1.48267e-06
4.28889e-07
1.70871e-06
5.43987e-07
1.77454e-06
7.19818e-07
1.24564e-06
1.31794e-06
-2.92688e-07
2.34863e-06
-2.20276e-06
2.75358e-06
-3.53244e-06
2.18825e-06
-3.77328e-06
1.09967e-06
-3.25445e-06
3.26002e-07
-2.11932e-06
-3.27996e-07
-1.54848e-08
-1.30412e-06
1.00819e-06
-2.02601e-07
2.53669e-06
-7.82024e-07
5.41566e-06
-2.11793e-06
7.41746e-06
-1.26645e-06
9.55753e-06
-1.48838e-06
1.10728e-05
-9.38103e-07
1.243e-05
-8.86988e-07
1.35261e-05
-7.31431e-07
1.43893e-05
-6.00607e-07
1.5077e-05
-5.30864e-07
1.55464e-05
-4.14932e-07
1.59494e-05
-4.49159e-07
1.63687e-05
-5.67344e-07
1.66544e-05
-5.41294e-07
1.68063e-05
-5.2248e-07
1.65947e-05
-2.70949e-07
1.61159e-05
-9.75177e-08
1.53942e-05
8.37096e-08
1.46848e-05
1.38175e-08
1.39498e-05
-1.56801e-08
1.33195e-05
-1.75446e-07
1.28381e-05
-3.91464e-07
1.24595e-05
-5.53373e-07
1.20946e-05
-6.21479e-07
1.17314e-05
-6.75372e-07
1.14034e-05
-7.60185e-07
1.10897e-05
-8.27913e-07
1.0408e-05
-4.86189e-07
9.74791e-06
-5.52544e-07
9.4935e-06
-1.07677e-06
9.11659e-06
-9.50345e-07
8.31742e-06
-4.47119e-07
7.23943e-06
-3.01408e-08
6.14651e-06
1.2611e-07
5.14046e-06
7.10347e-09
4.47513e-06
-3.10785e-07
4.17121e-06
-6.30314e-07
3.03731e-06
3.06955e-07
4.80728e-07
1.90221e-06
-3.45714e-06
3.36242e-06
-8.54216e-06
4.56162e-06
-1.2157e-05
3.20469e-06
-9.36869e-06
-3.31079e-06
-4.17665e-06
-6.19676e-06
1.39142e-06
-6.42709e-06
3.9694e-06
-3.55805e-06
3.04861e-06
-1.81881e-07
1.67131e-06
2.28104e-07
8.64648e-07
-4.16895e-07
2.39208e-07
-7.10641e-07
-1.65088e-07
-1.05528e-06
-7.0808e-07
-1.00913e-06
-1.10737e-06
-1.29353e-06
2.88356e-07
8.29136e-07
6.61363e-07
6.78927e-07
1.18393e-06
4.44483e-07
1.89253e-06
1.45094e-07
2.74574e-06
-1.0993e-07
3.69149e-06
-2.94722e-07
4.68431e-06
-3.78395e-07
5.66035e-06
-3.3685e-07
6.56855e-06
-2.07304e-07
7.41675e-06
-8.08319e-08
8.16724e-06
1.17496e-07
8.82673e-06
3.12531e-07
9.41363e-06
4.75593e-07
9.92179e-06
6.38781e-07
1.03474e-05
8.04812e-07
1.07066e-05
9.20902e-07
1.10453e-05
9.76607e-07
1.13388e-05
1.07375e-06
1.1555e-05
1.20109e-06
1.17643e-05
1.23751e-06
1.1963e-05
1.2563e-06
1.21034e-05
1.34239e-06
1.21746e-05
1.45884e-06
1.22564e-05
1.44764e-06
1.23265e-05
1.4456e-06
1.22926e-05
1.49474e-06
1.21309e-05
1.51274e-06
1.18982e-05
1.5376e-06
1.20189e-05
1.18125e-06
1.29145e-05
3.76919e-07
1.4034e-05
2.6591e-07
1.4475e-05
6.01649e-07
1.40748e-05
6.79937e-07
1.3152e-05
1.04743e-06
1.1692e-05
1.95761e-06
9.85212e-06
2.56761e-06
7.95799e-06
2.74462e-06
6.34704e-06
2.75557e-06
5.19499e-06
2.8696e-06
4.3869e-06
3.02391e-06
3.69307e-06
3.06469e-06
2.98943e-06
2.99148e-06
2.28058e-06
2.86975e-06
1.60851e-06
2.71097e-06
9.89886e-07
2.54973e-06
4.28748e-07
2.39333e-06
-7.22156e-08
2.23488e-06
-5.04023e-07
2.07664e-06
-8.75076e-07
1.92178e-06
-1.16483e-06
1.75244e-06
-1.38426e-06
1.59053e-06
-1.53006e-06
1.41994e-06
-1.60663e-06
1.25959e-06
-1.60649e-06
1.09411e-06
-1.53343e-06
9.29228e-07
-1.386e-06
7.63718e-07
-1.17456e-06
6.03991e-07
-8.92482e-07
4.51212e-07
-5.6291e-07
3.1742e-07
-1.88096e-07
2.14033e-07
2.11036e-07
1.27789e-07
6.3949e-07
5.24385e-08
1.08913e-06
-2.01792e-08
1.5199e-06
-4.20669e-08
1.95087e-06
-6.09051e-08
2.36426e-06
-6.86817e-08
2.76681e-06
-5.67945e-08
3.11083e-06
-1.72149e-08
3.42958e-06
-5.4532e-09
3.73257e-06
2.67798e-09
3.98519e-06
5.94537e-08
4.20171e-06
7.08805e-08
4.41279e-06
5.32536e-08
4.5812e-06
7.15853e-08
4.7253e-06
6.85665e-08
4.83445e-06
7.25463e-08
4.90392e-06
8.50297e-08
4.93908e-06
8.16877e-08
4.94937e-06
8.14145e-08
4.92189e-06
9.93315e-08
4.87381e-06
1.22612e-07
4.76075e-06
2.00746e-07
4.62774e-06
2.24198e-07
4.39295e-06
3.52131e-07
4.02275e-06
5.16951e-07
3.60135e-06
5.49658e-07
3.15586e-06
5.3199e-07
2.73325e-06
4.61065e-07
2.41669e-06
2.93871e-07
2.23552e-06
1.56937e-07
2.03717e-06
2.74347e-07
1.70435e-06
5.43776e-07
1.18233e-06
8.14626e-07
5.83524e-07
9.15864e-07
4.36232e-08
9.10962e-07
-4.92419e-07
9.06989e-07
-1.09771e-06
1.00498e-06
-1.66346e-06
9.78132e-07
-2.13414e-06
8.77399e-07
-2.58923e-06
8.96959e-07
-3.04978e-06
9.89754e-07
-3.48576e-06
1.06242e-06
-3.88326e-06
1.02393e-06
-4.20782e-06
9.76333e-07
-4.40116e-06
9.03411e-07
-4.5303e-06
9.32962e-07
-4.61059e-06
1.01317e-06
-4.57645e-06
7.47962e-07
-4.33466e-06
2.73441e-07
-3.69958e-06
-4.40759e-07
-2.56235e-06
-1.40251e-06
-9.22597e-07
-2.16623e-06
9.42954e-07
-1.84723e-06
2.16332e-06
-5.13128e-07
2.40245e-06
7.4148e-07
2.09036e-06
1.36151e-06
1.69151e-06
1.55046e-06
1.03071e-06
1.96268e-06
-7.39144e-08
2.61051e-06
-1.71808e-06
3.7719e-06
-3.81036e-06
5.32359e-06
-5.34003e-06
5.17337e-06
-5.48571e-06
3.17495e-06
-4.98177e-06
1.40049e-06
-4.16471e-06
2.53317e-07
-2.79857e-06
-9.7419e-07
-8.12164e-07
-2.52448e-06
9.49929e-07
-1.19779e-06
3.26339e-06
-2.43369e-06
5.52027e-06
-3.67583e-06
7.68038e-06
-2.69953e-06
1.04066e-05
-3.50515e-06
1.2313e-05
-2.11171e-06
1.41835e-05
-2.13324e-06
1.56915e-05
-1.71578e-06
1.69306e-05
-1.47093e-06
1.79001e-05
-1.31638e-06
1.84824e-05
-1.01038e-06
1.89159e-05
-1.02931e-06
1.95382e-05
-1.41068e-06
2.03368e-05
-1.61208e-06
2.11757e-05
-1.68024e-06
2.15011e-05
-1.07582e-06
2.11579e-05
-4.18045e-07
2.0417e-05
1.01807e-07
1.97508e-05
-7.26626e-08
1.90054e-05
-1.19617e-07
1.80496e-05
-1.73584e-07
1.69668e-05
-3.06789e-07
1.58622e-05
-4.80582e-07
1.48719e-05
-6.78101e-07
1.41157e-05
-9.92288e-07
1.33936e-05
-1.15121e-06
1.27443e-05
-1.36855e-06
1.18371e-05
-8.34783e-07
1.1361e-05
-1.36861e-06
1.18399e-05
-3.11401e-06
1.18235e-05
-2.59656e-06
1.09648e-05
-1.16183e-06
9.37074e-06
1.36509e-07
7.87394e-06
4.50258e-07
6.8797e-06
-2.00227e-07
5.7807e-06
-5.85728e-07
3.26979e-06
5.52854e-07
-4.10609e-07
2.98302e-06
-5.42373e-06
6.13987e-06
-9.76552e-06
7.09845e-06
-1.28013e-05
6.9902e-06
-1.36782e-05
3.51901e-06
-1.03191e-05
-7.74222e-06
-6.12332e-06
-1.21692e-05
2.74879e-07
-1.48341e-05
5.48116e-06
-9.5364e-06
5.70619e-06
-1.54617e-06
4.87742e-06
-3.57234e-07
4.67287e-06
-1.79946e-06
4.60024e-06
-2.38797e-06
4.73129e-06
-3.07281e-06
4.31958e-06
-2.68503e-06
-3.0591e-06
3.92849e-06
3.39317e-07
1.19484e-06
7.74033e-07
9.57412e-07
1.42762e-06
5.07661e-07
2.28386e-06
1.27064e-08
3.27135e-06
-3.62797e-07
4.27714e-06
-5.52582e-07
5.24963e-06
-5.90808e-07
6.16658e-06
-4.87656e-07
6.99741e-06
-2.69955e-07
7.72781e-06
-3.78053e-08
8.37166e-06
2.52431e-07
8.962e-06
5.06966e-07
9.50178e-06
7.32233e-07
9.99205e-06
9.4893e-07
1.04132e-05
1.18602e-06
1.07565e-05
1.37914e-06
1.11136e-05
1.41881e-06
1.14672e-05
1.53695e-06
1.17378e-05
1.76783e-06
1.19187e-05
1.87522e-06
1.21124e-05
1.85863e-06
1.22797e-05
1.97219e-06
1.22956e-05
2.22996e-06
1.21906e-05
2.36358e-06
1.2032e-05
2.42607e-06
1.1984e-05
2.31034e-06
1.22925e-05
1.93427e-06
1.29048e-05
1.68577e-06
1.34091e-05
1.54244e-06
1.3154e-05
1.36478e-06
1.20947e-05
1.68859e-06
1.02365e-05
2.74947e-06
7.88582e-06
3.51281e-06
5.89299e-06
3.61843e-06
4.61784e-06
3.81008e-06
3.76195e-06
4.01212e-06
2.97349e-06
4.12805e-06
2.16582e-06
4.15393e-06
1.45226e-06
4.16544e-06
9.34914e-07
4.11284e-06
5.50014e-07
4.01028e-06
2.0385e-07
3.88519e-06
-1.23376e-07
3.73319e-06
-4.49078e-07
3.56051e-06
-7.66609e-07
3.37791e-06
-1.05262e-06
3.17707e-06
-1.31509e-06
2.98215e-06
-1.54628e-06
2.77942e-06
-1.7275e-06
2.56245e-06
-1.86047e-06
2.33301e-06
-1.92807e-06
2.09498e-06
-1.95158e-06
1.87002e-06
-1.90356e-06
1.62879e-06
-1.78353e-06
1.38259e-06
-1.60147e-06
1.14716e-06
-1.36605e-06
9.20189e-07
-1.07712e-06
6.99001e-07
-7.39514e-07
4.89708e-07
-3.65225e-07
3.11387e-07
5.52057e-08
1.5347e-07
5.11801e-07
2.16498e-08
9.92425e-07
-8.71773e-08
1.42375e-06
-1.26089e-07
1.87539e-06
-1.7882e-07
2.32543e-06
-2.08598e-07
2.73456e-06
-1.89246e-07
3.09447e-06
-1.40754e-07
3.432e-06
-9.55383e-08
3.74463e-06
-7.77683e-08
4.02964e-06
-6.35987e-08
4.27814e-06
5.38031e-09
4.50271e-06
1.62197e-08
4.73408e-06
-3.34107e-08
4.93748e-06
-1.41534e-08
5.09709e-06
-1.55613e-09
5.22294e-06
6.63827e-09
5.30774e-06
2.99642e-08
5.34376e-06
4.49839e-08
5.34198e-06
5.12882e-08
5.26823e-06
1.11989e-07
5.2032e-06
1.00423e-07
5.06939e-06
2.24036e-07
4.89134e-06
2.70513e-07
4.70429e-06
3.89477e-07
4.47639e-06
5.69546e-07
4.15883e-06
6.63683e-07
3.77871e-06
6.90332e-07
3.33132e-06
6.7188e-07
2.88776e-06
4.91004e-07
2.57303e-06
2.25965e-07
2.45067e-06
1.66922e-07
2.31294e-06
4.77684e-07
1.96456e-06
9.77232e-07
1.43001e-06
1.28036e-06
8.80509e-07
1.30503e-06
5.06819e-07
1.14521e-06
1.69142e-07
1.24272e-06
-2.6813e-07
1.35839e-06
-7.37887e-07
1.32928e-06
-1.06471e-06
1.24417e-06
-1.32088e-06
1.31267e-06
-1.5214e-06
1.37261e-06
-1.77655e-06
1.42074e-06
-1.99771e-06
1.37945e-06
-2.02274e-06
1.15526e-06
-1.98473e-06
1.15563e-06
-1.91304e-06
1.25781e-06
-1.92843e-06
1.15847e-06
-2.10518e-06
8.97657e-07
-2.17343e-06
1.09389e-07
-1.83156e-06
-1.23336e-06
-9.84839e-07
-2.47229e-06
1.00736e-07
-2.34266e-06
8.02961e-07
-5.96823e-07
9.64068e-07
1.21494e-06
6.93511e-07
2.30423e-06
1.88972e-07
2.78326e-06
-6.9266e-07
3.62201e-06
-2.32617e-06
5.05299e-06
-4.02266e-06
6.26938e-06
-4.97191e-06
7.12417e-06
-4.98794e-06
6.10071e-06
-4.01046e-06
3.06957e-06
-3.30201e-06
1.50369e-06
-2.73249e-06
4.56079e-07
-1.74214e-06
-1.20945e-06
-3.31394e-07
-3.14173e-06
2.08147e-06
-2.86693e-06
4.4523e-06
-4.14595e-06
5.79959e-06
-4.45098e-06
7.88394e-06
-4.24347e-06
1.04599e-05
-5.51562e-06
1.23528e-05
-3.42065e-06
1.44227e-05
-3.65701e-06
1.62884e-05
-3.05934e-06
1.79962e-05
-2.74699e-06
1.92457e-05
-2.28202e-06
1.98885e-05
-1.6392e-06
2.01005e-05
-1.47767e-06
2.04588e-05
-2.12071e-06
2.12446e-05
-2.72e-06
2.22295e-05
-2.74673e-06
2.33398e-05
-2.21907e-06
2.34578e-05
-9.51274e-07
2.27263e-05
1.24545e-07
2.16283e-05
2.94545e-07
2.07648e-05
4.34693e-09
2.02845e-05
-4.99854e-07
1.96715e-05
-6.26097e-07
1.88393e-05
-7.1146e-07
1.75278e-05
-4.65465e-07
1.6283e-05
-8.40813e-07
1.5233e-05
-1.1556e-06
1.44588e-05
-1.65884e-06
1.29401e-05
-5.74671e-07
1.16894e-05
-1.51657e-06
1.20902e-05
-4.89315e-06
1.28267e-05
-4.73182e-06
1.2443e-05
-2.2978e-06
1.08233e-05
3.24202e-07
9.58955e-06
5.07579e-07
8.57323e-06
-5.88187e-07
5.84584e-06
5.18687e-07
1.20151e-06
3.82329e-06
-3.51505e-06
6.73765e-06
-7.64676e-06
9.48971e-06
-1.10913e-05
9.8436e-06
-1.24588e-05
8.0296e-06
-1.11216e-05
1.31772e-06
-7.88775e-06
-1.29167e-05
-5.58687e-06
-1.63515e-05
-1.30998e-06
-2.21667e-05
4.17064e-06
-1.58392e-05
6.1135e-06
-4.48331e-06
6.53895e-06
-2.10415e-06
7.29894e-06
-4.08698e-06
7.37684e-06
-4.3304e-06
7.9763e-06
-5.55724e-06
8.95175e-06
-5.45441e-06
-5.28435e-06
9.25387e-06
4.23633e-07
1.47464e-06
1.0446e-06
1.04616e-06
1.96373e-06
3.09023e-07
3.03904e-06
-3.24744e-07
4.11802e-06
-6.88127e-07
5.10295e-06
-7.68544e-07
5.94957e-06
-6.52242e-07
6.67573e-06
-4.23508e-07
7.30305e-06
-1.09784e-07
7.82201e-06
2.29248e-07
8.28292e-06
5.76296e-07
8.72474e-06
8.56712e-07
9.20449e-06
1.04577e-06
9.66541e-06
1.26582e-06
1.00588e-05
1.56353e-06
1.04581e-05
1.75744e-06
1.08622e-05
1.81115e-06
1.12437e-05
1.98079e-06
1.15231e-05
2.32051e-06
1.16997e-05
2.51721e-06
1.1863e-05
2.49721e-06
1.20101e-05
2.61973e-06
1.22394e-05
2.84133e-06
1.24951e-05
2.94466e-06
1.26838e-05
2.94475e-06
1.2873e-05
2.87429e-06
1.29259e-05
2.72987e-06
1.2319e-05
2.85966e-06
1.06488e-05
3.50438e-06
8.17034e-06
4.24033e-06
5.85237e-06
4.55456e-06
4.37385e-06
4.82093e-06
3.40265e-06
5.11035e-06
2.43343e-06
5.21638e-06
1.61112e-06
5.25537e-06
1.02798e-06
5.21493e-06
6.07081e-07
5.15846e-06
2.52905e-07
5.1048e-06
-2.36096e-08
5.02505e-06
-2.47031e-07
4.90507e-06
-4.39489e-07
4.75714e-06
-6.06957e-07
4.59234e-06
-7.65934e-07
4.4159e-06
-9.22516e-07
4.22622e-06
-1.07854e-06
4.02803e-06
-1.23944e-06
3.81711e-06
-1.37128e-06
3.57984e-06
-1.48945e-06
3.34997e-06
-1.57593e-06
3.08874e-06
-1.62276e-06
2.80763e-06
-1.63895e-06
2.5281e-06
-1.58622e-06
2.22413e-06
-1.48333e-06
1.9232e-06
-1.32534e-06
1.61335e-06
-1.11362e-06
1.3162e-06
-8.4154e-07
1.02087e-06
-5.18401e-07
7.40918e-07
-1.48208e-07
4.76635e-07
2.75953e-07
2.36137e-07
7.31478e-07
3.96437e-08
1.18636e-06
-1.04339e-07
1.6638e-06
-2.44933e-07
2.15604e-06
-3.10301e-07
2.5988e-06
-3.22666e-07
3.00325e-06
-3.25926e-07
3.37527e-06
-2.88578e-07
3.7367e-06
-2.44499e-07
4.01893e-06
-1.37169e-07
4.28264e-06
-1.18526e-07
4.51223e-06
-9.02059e-08
4.71333e-06
-1.5742e-08
4.89446e-06
-1.02235e-08
5.06765e-06
-7.68956e-08
5.22766e-06
-7.14361e-08
5.39882e-06
-9.90442e-08
5.55395e-06
-1.04825e-07
5.69746e-06
-9.85632e-08
5.75545e-06
-2.9245e-08
5.78568e-06
-2.60022e-08
5.75261e-06
6.56296e-08
5.70838e-06
3.29253e-08
5.61228e-06
1.81257e-07
5.40988e-06
3.09391e-07
5.12323e-06
4.89127e-07
4.84199e-06
6.4495e-07
4.55791e-06
7.26385e-07
4.21101e-06
8.05481e-07
3.82741e-06
8.18804e-07
3.3455e-06
7.25301e-07
2.77663e-06
5.36746e-07
2.38977e-06
3.03175e-07
2.2024e-06
4.40479e-07
2.05144e-06
9.28369e-07
1.62017e-06
1.52236e-06
9.62525e-07
1.78555e-06
5.11389e-07
1.44108e-06
3.59245e-07
1.26893e-06
1.11856e-07
1.51685e-06
-2.02179e-07
1.59104e-06
-2.84725e-07
1.30751e-06
-4.90739e-07
1.54176e-06
-9.03656e-07
1.85684e-06
-1.21211e-06
1.8413e-06
-1.25172e-06
1.5728e-06
-1.02849e-06
1.12055e-06
-5.05209e-07
8.46292e-07
1.66998e-07
8.49356e-07
5.2706e-07
1.12453e-06
4.87863e-07
1.32098e-06
2.51888e-07
7.91015e-07
-1.29684e-08
-4.75816e-07
-2.48384e-07
-1.70316e-06
-2.59741e-07
-1.76145e-06
-9.35128e-08
-1.66276e-07
-1.3839e-07
1.88818e-06
-3.39882e-07
3.18452e-06
-6.67888e-07
3.83342e-06
-1.32316e-06
5.01263e-06
-2.74988e-06
7.32106e-06
-4.47546e-06
8.90381e-06
-5.14994e-06
8.60663e-06
-4.53517e-06
6.274e-06
-3.29195e-06
2.61643e-06
-2.38348e-06
1.35729e-06
-1.49399e-06
3.3531e-07
-4.09262e-07
-1.5087e-06
8.8169e-07
-3.65083e-06
2.74202e-06
-3.99966e-06
5.06934e-06
-5.71287e-06
6.8069e-06
-5.55393e-06
8.4004e-06
-5.29638e-06
1.04182e-05
-6.97295e-06