/*--------------------------------*- C++ -*----------------------------------*\
| =========                 |                                                 |
| \\      /  F ield         | OpenFOAM: The Open Source CFD Toolbox           |
|  \\    /   O peration     | Version:  dev                                   |
|   \\  /    A nd           | Web:      http://www.openfoam.org               |
|    \\/     M anipulation  |                                                 |
\*---------------------------------------------------------------------------*/
FoamFile
{
    version     2.0;
    format      ascii;
    class       surfaceScalarField;
    object      phi_0;
    location    "9.161";
}
// * * * * * * * * * * * * * * * * * * * * * * * * * * * * * * * * * * * * * //

dimensions      [1 0 -1 0 0 0 0];

internalField   nonuniform List<scalar> 
24170
(
1.68493e-06
1.78257e-06
4.48515e-07
1.11968e-06
-2.65674e-07
6.10834e-07
-7.62698e-07
4.10206e-07
-1.16338e-06
3.33336e-07
-1.50816e-06
2.93641e-07
-1.95463e-06
4.1436e-07
-2.1299e-06
1.63789e-07
-2.69612e-06
5.7561e-07
-2.75929e-06
8.84426e-08
-3.45587e-06
7.43414e-07
-3.33273e-06
-5.96032e-08
-4.34154e-06
1.09305e-06
-3.91574e-06
-3.34476e-07
-5.31365e-06
1.51118e-06
-4.44744e-06
-7.60155e-07
-3.83478e-06
-4.83392e-07
3.29565e-06
-7.01257e-06
3.35984e-06
2.15077e-06
2.35669e-06
2.00072e-06
1.54118e-06
1.31535e-06
8.30574e-07
1.02836e-06
2.8842e-07
8.039e-07
-3.644e-07
8.94366e-07
-6.60747e-07
6.76766e-07
-1.30525e-06
8.01028e-07
-1.60171e-06
8.85021e-07
-1.97477e-06
4.94816e-07
-2.43487e-06
1.2581e-06
-2.16536e-06
-2.5771e-07
-2.97419e-06
1.99961e-06
-2.46171e-06
-7.46625e-07
-4.12573e-06
3.31395e-06
-3.93651e-06
-8.28361e-07
-7.79086e-06
3.50477e-06
5.11188e-06
-9.51824e-06
4.0905e-06
2.15092e-06
3.43967e-06
2.51144e-06
2.92337e-06
1.70576e-06
2.24348e-06
1.60316e-06
1.71582e-06
1.24993e-06
1.04032e-06
1.50996e-06
5.77005e-07
1.10218e-06
-2.64736e-08
1.39257e-06
-3.36318e-07
1.20615e-06
-5.64885e-07
7.5931e-07
-1.10062e-06
1.84927e-06
-8.45664e-07
-4.30785e-07
-1.76745e-06
3.01913e-06
-1.54809e-06
-8.46856e-07
-2.40319e-06
4.28987e-06
-2.70788e-06
-3.85213e-07
-5.40587e-06
6.36962e-06
8.30562e-06
-8.44116e-06
4.31628e-06
2.3448e-06
4.08313e-06
2.58774e-06
3.65773e-06
1.99112e-06
3.2907e-06
1.85317e-06
2.71313e-06
1.73597e-06
2.48901e-06
1.66647e-06
1.75997e-06
1.78927e-06
1.80991e-06
1.32647e-06
8.69883e-07
2.15789e-06
1.09682e-06
5.68309e-07
9.07219e-08
2.9187e-06
1.22189e-07
-3.79005e-07
-8.79363e-07
4.12854e-06
-1.14696e-06
-4.52275e-07
-2.42101e-06
5.69005e-06
-2.25834e-06
-3.89264e-07
-4.3536e-06
8.60935e-06
1.05913e-05
-6.44252e-06
4.62257e-06
2.96738e-06
4.86384e-06
2.17228e-06
4.14087e-06
2.55778e-06
4.14825e-06
1.71464e-06
3.31733e-06
2.46389e-06
3.38631e-06
1.52045e-06
2.43513e-06
2.69278e-06
2.55798e-06
1.18413e-06
1.55337e-06
3.17299e-06
1.56588e-06
5.93011e-07
5.73065e-07
3.97723e-06
3.0971e-07
-2.65547e-08
-5.1406e-07
5.06793e-06
-1.10188e-06
2.66238e-07
-2.20082e-06
6.93284e-06
-2.21261e-06
-1.99459e-07
-3.36914e-06
9.92781e-06
1.05779e-05
-3.15848e-06
4.82068e-06
3.68635e-06
5.08338e-06
1.71291e-06
4.14628e-06
3.31743e-06
4.15854e-06
1.55488e-06
3.22199e-06
3.2814e-06
3.22857e-06
1.42646e-06
2.23039e-06
3.63604e-06
2.26533e-06
1.12411e-06
1.37765e-06
4.06934e-06
1.29167e-06
7.16076e-07
5.33356e-07
4.80366e-06
1.34681e-07
4.65888e-07
-3.98626e-07
5.72158e-06
-1.03461e-06
1.03969e-06
-1.15651e-06
7.21079e-06
-2.70239e-06
1.52606e-06
-1.96664e-06
9.39343e-06
8.33715e-06
4.97182e-07
5.35346e-06
4.4273e-06
5.134e-06
1.70686e-06
4.28494e-06
3.96619e-06
4.1415e-06
1.52977e-06
3.34126e-06
3.94463e-06
3.27207e-06
1.39585e-06
2.46459e-06
4.37755e-06
2.38055e-06
1.17862e-06
1.67401e-06
4.77946e-06
1.42036e-06
1.00646e-06
9.92087e-07
5.30091e-06
3.13975e-07
1.24227e-06
2.93885e-07
5.86607e-06
-5.09389e-07
1.99328e-06
-2.44481e-07
7.09241e-06
-2.10292e-06
3.56526e-06
-9.20553e-07
8.41582e-06
8.38533e-06
-7.48155e-07
4.32308e-06
4.68871e-06
3.98838e-06
1.86003e-06
3.41936e-06
4.3757e-06
3.23048e-06
1.58135e-06
2.65056e-06
4.41524e-06
2.52186e-06
1.44162e-06
2.02476e-06
4.81928e-06
1.80104e-06
1.37441e-06
1.49217e-06
5.08707e-06
1.03005e-06
1.49231e-06
9.62575e-07
5.4179e-06
3.40313e-07
1.93532e-06
4.73868e-07
5.82524e-06
-2.53247e-07
2.83376e-06
7.1191e-09
6.94292e-06
-8.43879e-07
4.55357e-06
-3.77852e-07
8.09257e-06
8.57205e-06
-3.95688e-07
5.01603e-06
5.24884e-06
4.68666e-06
1.97337e-06
4.1061e-06
4.76277e-06
3.83498e-06
1.6871e-06
3.27035e-06
4.84706e-06
2.9177e-06
1.69204e-06
2.56236e-06
5.10425e-06
2.0451e-06
1.85356e-06
1.91837e-06
5.2057e-06
1.28844e-06
2.14455e-06
1.28732e-06
5.46926e-06
5.83262e-07
2.71581e-06
7.07397e-07
5.79928e-06
-1.40604e-07
3.80483e-06
2.29045e-07
6.70232e-06
-5.87524e-07
5.52578e-06
-1.49142e-07
7.81365e-06
8.53726e-06
7.03828e-08
5.872e-06
5.52443e-06
5.40087e-06
2.18234e-06
4.88858e-06
5.03598e-06
4.35434e-06
2.02033e-06
4.0161e-06
5.01935e-06
3.34411e-06
2.23533e-06
3.18361e-06
5.17352e-06
2.45062e-06
2.53236e-06
2.37461e-06
5.26298e-06
1.60037e-06
2.93468e-06
1.65271e-06
5.46496e-06
8.8397e-07
3.56159e-06
1.01695e-06
5.76819e-06
2.22154e-07
4.72824e-06
5.92542e-07
6.47554e-06
-7.84999e-08
6.36348e-06
5.00631e-07
7.40884e-06
8.32828e-06
9.00402e-07
7.06846e-06
5.98619e-06
6.27954e-06
2.64554e-06
5.91361e-06
5.10641e-06
5.14694e-06
2.53756e-06
4.86713e-06
5.08929e-06
4.02015e-06
2.91862e-06
3.80279e-06
5.26956e-06
2.92563e-06
3.33237e-06
2.7922e-06
5.35947e-06
1.99625e-06
3.73541e-06
1.98852e-06
5.51224e-06
1.27068e-06
4.35437e-06
1.30746e-06
5.83466e-06
7.5047e-07
5.41766e-06
8.90299e-07
6.4885e-06
5.79344e-07
6.84968e-06
8.31671e-07
7.34452e-06
8.05636e-06
1.30493e-06
8.36385e-06
6.09234e-06
7.35e-06
3.2498e-06
7.0208e-06
5.06944e-06
5.9003e-06
3.34357e-06
5.59229e-06
5.1335e-06
4.52442e-06
3.77462e-06
4.35018e-06
5.28137e-06
3.41589e-06
4.15607e-06
3.37168e-06
5.34084e-06
2.56039e-06
4.52916e-06
2.56634e-06
5.53017e-06
1.87062e-06
5.11295e-06
1.87676e-06
5.92607e-06
1.44235e-06
5.98011e-06
1.50076e-06
6.58345e-06
1.47926e-06
7.04741e-06
1.69978e-06
7.31636e-06
7.82197e-06
2.13984e-06
9.84127e-06
6.46814e-06
8.48306e-06
4.08824e-06
7.93444e-06
5.15519e-06
6.75304e-06
4.12074e-06
6.37453e-06
5.17082e-06
5.43703e-06
4.43028e-06
5.19986e-06
5.29685e-06
4.38249e-06
4.81139e-06
4.19009e-06
5.42637e-06
3.45809e-06
5.20776e-06
3.29669e-06
5.68517e-06
2.73848e-06
5.70909e-06
2.62626e-06
6.11642e-06
2.33145e-06
6.38723e-06
2.36273e-06
6.69432e-06
2.44292e-06
7.13298e-06
2.63654e-06
7.30855e-06
7.5687e-06
3.09077e-06
1.1201e-05
6.69463e-06
9.80582e-06
4.82335e-06
9.12962e-06
5.23215e-06
7.84683e-06
4.87649e-06
7.31274e-06
5.25398e-06
6.35416e-06
5.00687e-06
6.00348e-06
5.33802e-06
5.28785e-06
5.28574e-06
4.97478e-06
5.56373e-06
4.37798e-06
5.69038e-06
4.07653e-06
5.92784e-06
3.65304e-06
6.12464e-06
3.46556e-06
6.34161e-06
3.35136e-06
6.57846e-06
3.40226e-06
6.75368e-06
3.64852e-06
7.02395e-06
3.95014e-06
7.1683e-06
7.29854e-06
4.39842e-06
1.33038e-05
6.71186e-06
1.18879e-05
5.38828e-06
1.08795e-05
5.45364e-06
9.65342e-06
5.40754e-06
8.83139e-06
5.46813e-06
7.90123e-06
5.41362e-06
7.28669e-06
5.51593e-06
6.62953e-06
5.58615e-06
6.15027e-06
5.76384e-06
5.71713e-06
5.9161e-06
5.38822e-06
6.11347e-06
5.14897e-06
6.27976e-06
5.02489e-06
6.43293e-06
5.0273e-06
6.5882e-06
5.11412e-06
6.71746e-06
5.36444e-06
6.85622e-06
5.69439e-06
6.94698e-06
7.01021e-06
6.11259e-06
1.52562e-05
7.07574e-06
1.38602e-05
5.67038e-06
1.27469e-05
5.52604e-06
1.16949e-05
5.52946e-06
1.07866e-05
5.54714e-06
9.90349e-06
5.57323e-06
9.15484e-06
5.64282e-06
8.49888e-06
5.71697e-06
7.98664e-06
5.84237e-06
7.5966e-06
5.95513e-06
7.322e-06
6.11383e-06
7.15846e-06
6.23771e-06
7.07752e-06
6.36689e-06
7.10882e-06
6.46363e-06
7.23072e-06
6.54664e-06
7.47524e-06
6.60019e-06
7.7961e-06
6.64608e-06
6.62925e-06
8.22339e-06
1.73541e-05
7.19866e-06
1.59915e-05
5.54194e-06
1.47405e-05
5.39086e-06
1.35927e-05
5.41806e-06
1.25658e-05
5.43912e-06
1.1679e-05
5.45387e-06
1.09329e-05
5.50335e-06
1.03019e-05
5.58039e-06
9.78393e-06
5.70067e-06
9.35892e-06
5.82018e-06
9.05458e-06
5.94694e-06
8.87059e-06
6.03138e-06
8.83471e-06
6.08288e-06
8.93934e-06
6.1025e-06
9.19072e-06
6.09048e-06
9.57127e-06
6.06278e-06
1.00847e-05
6.01444e-06
5.96928e-06
1.0659e-05
1.859e-05
6.86848e-06
1.71646e-05
5.31555e-06
1.5799e-05
5.18e-06
1.45026e-05
5.25554e-06
1.3306e-05
5.3087e-06
1.22866e-05
5.27505e-06
1.14716e-05
5.24764e-06
1.08444e-05
5.25917e-06
1.03801e-05
5.3289e-06
1.0048e-05
5.41945e-06
9.84376e-06
5.51124e-06
9.74415e-06
5.57398e-06
9.77916e-06
5.56546e-06
9.94235e-06
5.52402e-06
1.02098e-05
5.46432e-06
1.05764e-05
5.38921e-06
1.10045e-05
5.32145e-06
5.26734e-06
1.14801e-05
1.66732e-05
6.7101e-06
1.52519e-05
5.13569e-06
1.41247e-05
4.75829e-06
1.31982e-05
4.74064e-06
1.24037e-05
4.77807e-06
1.16511e-05
4.81689e-06
1.09489e-05
4.85625e-06
1.03474e-05
4.87596e-06
9.89296e-06
4.90222e-06
9.59295e-06
4.93185e-06
9.46114e-06
4.94258e-06
9.47675e-06
4.93534e-06
9.55568e-06
4.93285e-06
9.72482e-06
4.86171e-06
9.94574e-06
4.8047e-06
1.01981e-05
4.74717e-06
1.04872e-05
4.68334e-06
4.62503e-06
1.0818e-05
1.46052e-05
5.94841e-06
1.36632e-05
4.54315e-06
1.27937e-05
4.14525e-06
1.20687e-05
4.08039e-06
1.14431e-05
4.11885e-06
1.08725e-05
4.20646e-06
1.03574e-05
4.29402e-06
9.92598e-06
4.32907e-06
9.59891e-06
4.34414e-06
9.38001e-06
4.35197e-06
9.28155e-06
4.32165e-06
9.26443e-06
4.30393e-06
9.34141e-06
4.27223e-06
9.42021e-06
4.2532e-06
9.5547e-06
4.19275e-06
9.72985e-06
4.13926e-06
9.92424e-06
4.09646e-06
4.03124e-06
1.01607e-05
1.32171e-05
5.30082e-06
1.23757e-05
3.94668e-06
1.15512e-05
3.57989e-06
1.08193e-05
3.50615e-06
1.02124e-05
3.50744e-06
9.73428e-06
3.55937e-06
9.35735e-06
3.63872e-06
9.06141e-06
3.68141e-06
8.82089e-06
3.72606e-06
8.65274e-06
3.73908e-06
8.55647e-06
3.70765e-06
8.5375e-06
3.67891e-06
8.58955e-06
3.63403e-06
8.71936e-06
3.59058e-06
8.86726e-06
3.55756e-06
9.06715e-06
3.49408e-06
9.30689e-06
3.44989e-06
3.41126e-06
9.55299e-06
1.17204e-05
4.44044e-06
1.11066e-05
3.23022e-06
1.04539e-05
2.94409e-06
9.84969e-06
2.89585e-06
9.32615e-06
2.89668e-06
8.90612e-06
2.928e-06
8.59572e-06
2.9791e-06
8.35731e-06
3.03052e-06
8.19679e-06
3.07209e-06
8.09363e-06
3.09752e-06
8.02538e-06
3.09681e-06
8.00076e-06
3.08274e-06
8.00595e-06
3.0621e-06
8.06055e-06
3.0184e-06
8.16358e-06
2.98022e-06
8.28682e-06
2.93518e-06
8.45504e-06
2.88029e-06
2.83616e-06
8.66022e-06
1.04458e-05
3.50336e-06
9.94055e-06
2.5158e-06
9.37869e-06
2.32332e-06
8.85025e-06
2.30881e-06
8.3957e-06
2.3077e-06
8.02572e-06
2.32706e-06
7.75805e-06
2.35018e-06
7.57494e-06
2.38781e-06
7.46421e-06
2.42386e-06
7.40281e-06
2.46385e-06
7.37114e-06
2.49091e-06
7.36998e-06
2.50034e-06
7.40128e-06
2.49608e-06
7.45516e-06
2.47381e-06
7.54199e-06
2.44298e-06
7.63903e-06
2.42225e-06
7.76287e-06
2.37272e-06
2.33735e-06
7.90668e-06
9.13849e-06
2.61496e-06
8.81199e-06
1.73424e-06
8.4416e-06
1.61773e-06
8.07477e-06
1.66007e-06
7.70101e-06
1.72954e-06
7.3623e-06
1.77986e-06
7.08095e-06
1.81071e-06
6.85772e-06
1.85294e-06
6.6958e-06
1.88842e-06
6.59364e-06
1.92463e-06
6.55132e-06
1.94468e-06
6.56671e-06
1.94455e-06
6.64111e-06
1.9251e-06
6.75218e-06
1.90647e-06
6.8891e-06
1.88568e-06
7.05592e-06
1.86814e-06
7.20941e-06
1.85985e-06
1.83641e-06
7.37713e-06
8.4013e-06
1.8074e-06
8.09239e-06
1.04061e-06
7.73415e-06
1.00205e-06
7.39292e-06
1.08204e-06
7.09126e-06
1.16963e-06
6.85061e-06
1.21733e-06
6.6465e-06
1.26947e-06
6.47428e-06
1.3359e-06
6.32617e-06
1.40053e-06
6.20834e-06
1.45719e-06
6.13149e-06
1.48332e-06
6.10661e-06
1.4745e-06
6.12384e-06
1.45271e-06
6.18394e-06
1.42715e-06
6.2784e-06
1.40482e-06
6.40077e-06
1.38887e-06
6.54718e-06
1.38294e-06
1.37467e-06
6.70178e-06
7.51581e-06
1.06561e-06
7.3243e-06
3.26776e-07
7.04692e-06
4.02045e-07
6.72508e-06
5.76052e-07
6.43502e-06
6.83013e-07
6.19192e-06
7.35767e-07
5.9948e-06
7.93282e-07
5.84436e-06
8.63256e-07
5.726e-06
9.43679e-07
5.64077e-06
1.01248e-06
5.58951e-06
1.04677e-06
5.56535e-06
1.04969e-06
5.56984e-06
1.03476e-06
5.60408e-06
1.01175e-06
5.6616e-06
9.95389e-07
5.74119e-06
9.83752e-07
5.84091e-06
9.81444e-07
9.74051e-07
5.96103e-06
6.67063e-06
2.49065e-07
6.5451e-06
-3.63081e-07
6.30645e-06
-1.47059e-07
6.06183e-06
7.78051e-08
5.82845e-06
2.19519e-07
5.58703e-06
3.26706e-07
5.34499e-06
4.30729e-07
5.12581e-06
5.22478e-07
4.95696e-06
5.94942e-07
4.83833e-06
6.53912e-07
4.76806e-06
6.7733e-07
4.72827e-06
6.84355e-07
4.70964e-06
6.79995e-07
4.7035e-06
6.73412e-07
4.71264e-06
6.68004e-07
4.7343e-06
6.67537e-07
4.77205e-06
6.70496e-07
6.63409e-07
4.82871e-06
6.121e-06
-4.05203e-07
5.85033e-06
-8.22295e-07
5.49046e-06
-4.92481e-07
5.11218e-06
-2.0874e-07
4.72672e-06
-1.86597e-08
4.35122e-06
1.19935e-07
4.0104e-06
2.30206e-07
3.71683e-06
3.14518e-07
3.47941e-06
3.69104e-07
3.30022e-06
4.054e-07
3.16386e-06
4.19343e-07
3.05826e-06
4.2649e-07
2.97296e-06
4.30189e-07
2.90407e-06
4.3305e-07
2.85287e-06
4.33366e-07
2.81843e-06
4.37308e-07
2.80874e-06
4.3457e-07
4.38864e-07
2.80489e-06
5.35665e-06
-8.70499e-07
4.74116e-06
-8.55958e-07
4.02562e-06
-4.04841e-07
3.35057e-06
-1.26171e-07
2.74297e-06
3.28863e-08
2.22382e-06
1.19775e-07
1.80518e-06
1.6592e-07
1.4794e-06
1.92773e-07
1.22662e-06
2.08271e-07
1.03412e-06
2.16153e-07
8.82591e-07
2.1887e-07
7.64672e-07
2.19925e-07
6.76005e-07
2.19597e-07
6.12355e-07
2.20418e-07
5.71703e-07
2.18567e-07
5.52615e-07
2.19769e-07
5.58215e-07
2.09328e-07
2.23065e-07
5.69632e-07
3.30825e-06
1.90174e-06
9.66194e-07
3.36851e-07
-1.04235e-07
-4.27877e-07
-6.74569e-07
-8.64165e-07
-1.00932e-06
-1.11932e-06
-1.20118e-06
-1.25854e-06
-1.29477e-06
-1.31066e-06
-1.31076e-06
-1.2937e-06
-1.27281e-06
-1.22547e-06
2.9147e-07
4.18008e-07
6.90403e-07
3.31106e-07
1.1959e-06
2.35979e-07
1.83012e-06
1.15012e-07
2.59034e-06
-4.33054e-09
3.45805e-06
-1.05295e-07
4.37632e-06
-1.49504e-07
5.28097e-06
-1.30145e-07
6.13367e-06
-7.28523e-08
6.92965e-06
-1.1905e-08
7.63045e-06
8.66772e-08
8.23683e-06
1.8509e-07
8.75842e-06
2.70895e-07
9.19477e-06
3.55636e-07
9.54982e-06
4.38399e-07
9.8499e-06
4.927e-07
1.01036e-05
5.34919e-07
1.02981e-05
5.9335e-07
1.04454e-05
6.43059e-07
1.05632e-05
6.69812e-07
1.06375e-05
7.02861e-07
1.0653e-05
7.52084e-07
1.06217e-05
7.97457e-07
1.05837e-05
8.05282e-07
1.05538e-05
7.99657e-07
1.05829e-05
7.39101e-07
1.06855e-05
6.42632e-07
1.07548e-05
6.51569e-07
1.08051e-05
6.78578e-07
1.09212e-05
6.46158e-07
1.10466e-05
6.66659e-07
1.15955e-05
2.26053e-07
1.26434e-05
-3.48708e-07
1.35201e-05
-2.35211e-07
1.39698e-05
2.00384e-07
1.43071e-05
3.36993e-07
1.45354e-05
4.02936e-07
1.43714e-05
7.14976e-07
1.36328e-05
1.30574e-06
1.24908e-05
1.77974e-06
1.12233e-05
1.90703e-06
1.00106e-05
1.81737e-06
8.9001e-06
1.69595e-06
7.89191e-06
1.58206e-06
6.97124e-06
1.48247e-06
6.12773e-06
1.39246e-06
5.35978e-06
1.30377e-06
4.65991e-06
1.22241e-06
4.03314e-06
1.13593e-06
3.47344e-06
1.0553e-06
2.98459e-06
9.70731e-07
2.5729e-06
8.79614e-07
2.23244e-06
7.94537e-07
1.96278e-06
7.11562e-07
1.7656e-06
6.24926e-07
1.63982e-06
5.38926e-07
1.59016e-06
4.48131e-07
1.60271e-06
3.71088e-07
1.68205e-06
2.89197e-07
1.7983e-06
2.36952e-07
1.95569e-06
1.80193e-07
2.13735e-06
1.39997e-07
2.33901e-06
1.03717e-07
2.54398e-06
8.3555e-08
2.74642e-06
6.86354e-08
2.94676e-06
5.25486e-08
3.11507e-06
6.55388e-08
3.26715e-06
6.1507e-08
3.39652e-06
6.41804e-08
3.49337e-06
7.57341e-08
3.54339e-06
1.00847e-07
3.5762e-06
9.58956e-08
3.58585e-06
9.58425e-08
3.57155e-06
9.56572e-08
3.5344e-06
9.3676e-08
3.47582e-06
8.97951e-08
3.39002e-06
9.12315e-08
3.28752e-06
8.19058e-08
3.15645e-06
8.47821e-08
2.99494e-06
8.99729e-08
2.78136e-06
1.16902e-07
2.50438e-06
1.55422e-07
2.17628e-06
1.82215e-07
1.77508e-06
2.36272e-07
1.29781e-06
2.93006e-07
7.99727e-07
2.97996e-07
3.16727e-07
2.70754e-07
-1.34516e-07
2.30733e-07
-5.29711e-07
1.70615e-07
-9.15358e-07
1.61355e-07
-1.38618e-06
2.51458e-07
-1.96981e-06
3.75124e-07
-2.59887e-06
4.37646e-07
-3.20862e-06
4.41159e-07
-3.81967e-06
4.7059e-07
-4.36768e-06
4.41275e-07
-4.87008e-06
4.35102e-07
-5.30275e-06
4.10804e-07
-5.63611e-06
3.62013e-07
-5.9081e-06
3.53937e-07
-6.18173e-06
4.08427e-07
-6.4655e-06
4.70232e-07
-6.63848e-06
4.13829e-07
-6.73786e-06
3.97911e-07
-6.83203e-06
4.54161e-07
-6.93032e-06
5.23166e-07
-7.0239e-06
5.83947e-07
-6.82773e-06
3.64031e-07
-6.25989e-06
5.82265e-08
-5.27915e-06
-2.9344e-07
-3.75644e-06
-7.86191e-07
-1.9078e-06
-1.06704e-06
-5.21675e-07
-5.6348e-07
2.27984e-07
1.07738e-07
7.00078e-07
4.05597e-07
1.14041e-06
4.43818e-07
1.53879e-06
5.1247e-07
1.84374e-06
6.38477e-07
1.96376e-06
8.27171e-07
1.45196e-06
1.446e-06
-1.06984e-07
2.49985e-06
-2.05813e-06
2.90619e-06
-3.44784e-06
2.33797e-06
-3.76363e-06
1.24342e-06
-3.33843e-06
4.69445e-07
-2.30178e-06
-1.9933e-07
-3.16487e-07
-1.18152e-06
5.28894e-07
-5.5489e-08
1.91375e-06
-6.23238e-07
4.65083e-06
-1.95122e-06
6.47422e-06
-1.07972e-06
8.42059e-06
-1.27485e-06
9.74821e-06
-7.06944e-07
1.09414e-05
-6.43514e-07
1.18942e-05
-4.67939e-07
1.26441e-05
-3.2743e-07
1.32525e-05
-2.48561e-07
1.36982e-05
-1.40387e-07
1.41371e-05
-1.91917e-07
1.46099e-05
-3.00176e-07
1.49721e-05
-2.61697e-07
1.5203e-05
-2.14955e-07
1.51134e-05
1.27428e-08
1.47545e-05
1.98677e-07
1.4165e-05
3.61824e-07
1.35907e-05
2.67999e-07
1.2969e-05
2.28007e-07
1.24321e-05
5.02822e-08
1.20165e-05
-1.71118e-07
1.16621e-05
-3.55794e-07
1.12577e-05
-4.16824e-07
1.08019e-05
-4.82286e-07
1.03162e-05
-5.6334e-07
9.79362e-06
-6.13378e-07
8.89839e-06
-2.85121e-07
8.02553e-06
-3.68126e-07
7.52167e-06
-8.74424e-07
6.85842e-06
-7.07819e-07
5.76144e-06
-2.09839e-07
4.36721e-06
1.66804e-07
2.95489e-06
2.45636e-07
1.79064e-06
1.54598e-07
1.11851e-06
-2.20288e-07
8.73075e-07
-5.1133e-07
-4.32985e-08
3.071e-07
-2.56578e-06
2.05578e-06
-6.28383e-06
3.39548e-06
-1.10746e-05
4.61339e-06
-1.44242e-05
3.40997e-06
-1.13898e-05
-2.98362e-06
-5.82254e-06
-5.98887e-06
1.84919e-07
-6.24974e-06
2.97399e-06
-3.12378e-06
2.44439e-06
1.20884e-07
1.46845e-06
5.31966e-07
9.9739e-07
-5.51464e-08
6.99106e-07
-3.09348e-07
5.72421e-07
-5.60538e-07
1.83111e-07
-3.60074e-07
-4.68738e-07
-1.42906e-07
2.74422e-07
8.5291e-07
6.39131e-07
6.94384e-07
1.15812e-06
4.52587e-07
1.86763e-06
1.46185e-07
2.72257e-06
-1.11668e-07
3.67063e-06
-2.96226e-07
4.66391e-06
-3.75278e-07
5.6367e-06
-3.26031e-07
6.53892e-06
-1.90468e-07
7.37742e-06
-5.70263e-08
8.11604e-06
1.49695e-07
8.76306e-06
3.48397e-07
9.33679e-06
5.15548e-07
9.8285e-06
6.86268e-07
1.02369e-05
8.55744e-07
1.0582e-05
9.70774e-07
1.09074e-05
1.03112e-06
1.11831e-05
1.13927e-06
1.13821e-05
1.2706e-06
1.15786e-05
1.3047e-06
1.17621e-05
1.33137e-06
1.18822e-05
1.43213e-06
1.19352e-05
1.55169e-06
1.2001e-05
1.54043e-06
1.20469e-05
1.54898e-06
1.1983e-05
1.60339e-06
1.17956e-05
1.62372e-06
1.15729e-05
1.62683e-06
1.17597e-05
1.21818e-06
1.27096e-05
4.34765e-07
1.37817e-05
4.0634e-07
1.40891e-05
7.57361e-07
1.35675e-05
8.50973e-07
1.25475e-05
1.28488e-06
1.10103e-05
2.21061e-06
9.11724e-06
2.77751e-06
7.20968e-06
2.92135e-06
5.6231e-06
2.92934e-06
4.51595e-06
3.04396e-06
3.73314e-06
3.18623e-06
3.04254e-06
3.20738e-06
2.33149e-06
3.12644e-06
1.62135e-06
2.99372e-06
9.51644e-07
2.82792e-06
3.36807e-07
2.66101e-06
-2.19606e-07
2.49964e-06
-7.1413e-07
2.33554e-06
-1.14078e-06
2.17287e-06
-1.50853e-06
2.01366e-06
-1.79622e-06
1.83907e-06
-2.01614e-06
1.67253e-06
-2.16524e-06
1.49636e-06
-2.24825e-06
1.33085e-06
-2.25795e-06
1.16027e-06
-2.19888e-06
9.90141e-07
-2.06986e-06
8.19216e-07
-1.88204e-06
6.54568e-07
-1.62784e-06
4.96038e-07
-1.33185e-06
3.56992e-07
-9.94661e-07
2.47781e-07
-6.40641e-07
1.58049e-07
-2.6389e-07
7.84136e-08
1.19278e-07
1.88993e-08
5.03404e-07
-1.94818e-08
8.81492e-07
-4.59112e-08
1.23703e-06
-5.76233e-08
1.57575e-06
-4.7862e-08
1.85555e-06
-1.58616e-08
2.1043e-06
-2.10792e-09
2.33735e-06
3.5712e-09
2.52772e-06
4.93121e-08
2.68073e-06
5.9126e-08
2.83101e-06
3.80263e-08
2.94201e-06
5.26842e-08
3.03393e-06
4.49515e-08
3.09478e-06
4.67096e-08
3.11876e-06
5.91998e-08
3.11378e-06
5.27265e-08
3.08891e-06
5.02686e-08
3.03119e-06
6.43177e-08
2.95626e-06
8.51729e-08
2.82103e-06
1.5983e-07
2.66903e-06
1.80937e-07
2.42169e-06
3.0962e-07
2.04492e-06
4.72256e-07
1.62349e-06
5.02557e-07
1.18284e-06
4.80994e-07
7.70116e-07
4.05184e-07
4.6809e-07
2.31218e-07
3.02593e-07
8.74428e-08
1.16699e-07
2.02645e-07
-2.06249e-07
4.71392e-07
-7.27655e-07
7.46813e-07
-1.31217e-06
8.36165e-07
-1.8309e-06
8.28121e-07
-2.3429e-06
8.24652e-07
-2.92492e-06
9.28962e-07
-3.46288e-06
9.04864e-07
-3.89448e-06
8.03067e-07
-4.30173e-06
8.2462e-07
-4.71116e-06
9.22956e-07
-5.08925e-06
1.00597e-06
-5.41675e-06
9.81313e-07
-5.66254e-06
9.45602e-07
-5.77304e-06
8.82461e-07
-5.81393e-06
9.30022e-07
-5.79594e-06
1.03989e-06
-5.6518e-06
7.99974e-07
-5.29354e-06
3.39426e-07
-4.5309e-06
-3.70422e-07
-3.25599e-06
-1.32823e-06
-1.47329e-06
-2.08894e-06
5.41606e-07
-1.76043e-06
1.90325e-06
-3.9882e-07
2.26185e-06
8.85991e-07
2.04792e-06
1.53138e-06
1.73629e-06
1.73545e-06
1.14008e-06
2.17294e-06
6.45407e-08
2.85649e-06
-1.55943e-06
4.03118e-06
-3.64877e-06
5.60894e-06
-5.20882e-06
5.47358e-06
-5.40597e-06
3.46848e-06
-4.96554e-06
1.67965e-06
-4.243e-06
5.42802e-07
-2.98832e-06
-7.05121e-07
-1.12974e-06
-2.26714e-06
4.7752e-07
-9.20625e-07
2.63518e-06
-2.0897e-06
4.73944e-06
-3.34548e-06
6.74206e-06
-2.35235e-06
9.28275e-06
-3.09433e-06
1.09974e-05
-1.66853e-06
1.27012e-05
-1.66913e-06
1.40527e-05
-1.20334e-06
1.51613e-05
-9.27798e-07
1.6028e-05
-7.40806e-07
1.65717e-05
-4.42043e-07
1.70369e-05
-4.98656e-07
1.77288e-05
-8.75749e-07
1.86239e-05
-1.06192e-06
1.95496e-05
-1.07686e-06
1.99221e-05
-4.32253e-07
1.96805e-05
2.03372e-07
1.90621e-05
6.85981e-07
1.85274e-05
4.5387e-07
1.78922e-05
3.82997e-07
1.70105e-05
3.12243e-07
1.59551e-05
1.76176e-07
1.48912e-05
-7.74452e-08
1.38695e-05
-2.55858e-07
1.30408e-05
-6.23794e-07
1.21715e-05
-7.79397e-07
1.13004e-05
-9.41633e-07
1.0204e-05
-4.85273e-07
9.55182e-06
-1.0771e-06
9.80276e-06
-2.75828e-06
9.48687e-06
-2.11524e-06
8.28937e-06
-6.64065e-07
6.38063e-06
5.37796e-07
4.57269e-06
6.81442e-07
3.42125e-06
9.58178e-09
2.38306e-06
-4.05507e-07
4.99953e-08
7.65745e-07
-3.61495e-06
3.1863e-06
-8.44761e-06
6.32427e-06
-1.25524e-05
7.23113e-06
-1.53005e-05
7.19831e-06
-1.58671e-05
3.95922e-06
-1.22755e-05
-7.04788e-06
-7.73258e-06
-1.16724e-05
-1.03293e-06
-1.43276e-05
4.48178e-06
-8.87036e-06
5.09232e-06
-9.26754e-07
4.67685e-06
3.27997e-07
4.82252e-06
-9.98742e-07
5.08939e-06
-1.47943e-06
5.51361e-06
-1.98322e-06
5.36295e-06
-1.38268e-06
-1.63937e-06
5.18675e-06
3.2571e-07
1.23288e-06
7.55522e-07
9.79829e-07
1.41001e-06
5.17205e-07
2.27215e-06
1.06083e-08
3.26281e-06
-3.64616e-07
4.26912e-06
-5.51122e-07
5.23975e-06
-5.82076e-07
6.15182e-06
-4.67931e-07
6.97489e-06
-2.40546e-07
7.69018e-06
7.06901e-09
8.32303e-06
3.0241e-07
8.90337e-06
5.6092e-07
9.43236e-06
7.92e-07
9.90722e-06
1.02134e-06
1.0311e-05
1.2647e-06
1.06416e-05
1.45336e-06
1.09904e-05
1.49645e-06
1.13288e-05
1.63588e-06
1.1577e-05
1.87716e-06
1.17411e-05
1.97646e-06
1.19214e-05
1.96841e-06
1.2065e-05
2.11055e-06
1.20519e-05
2.38202e-06
1.19239e-05
2.51383e-06
1.17572e-05
2.5676e-06
1.17289e-05
2.43066e-06
1.20705e-05
2.05501e-06
1.26754e-05
1.83444e-06
1.30808e-05
1.71333e-06
1.26726e-05
1.58189e-06
1.14714e-05
2.00109e-06
9.50269e-06
3.0892e-06
7.10893e-06
3.80025e-06
5.14941e-06
3.88045e-06
3.92479e-06
4.07096e-06
3.09284e-06
4.25867e-06
2.3103e-06
4.35998e-06
1.50698e-06
4.3823e-06
8.06382e-07
4.38741e-06
3.00168e-07
4.32498e-06
-8.17592e-08
4.21142e-06
-4.1484e-07
4.07004e-06
-7.35204e-07
3.91222e-06
-1.05672e-06
3.73382e-06
-1.37164e-06
3.54524e-06
-1.65521e-06
3.33764e-06
-1.91664e-06
3.13608e-06
-2.14778e-06
2.92684e-06
-2.32986e-06
2.70292e-06
-2.46545e-06
2.46597e-06
-2.53673e-06
2.21976e-06
-2.56723e-06
1.98731e-06
-2.52866e-06
1.73767e-06
-2.42102e-06
1.48316e-06
-2.25514e-06
1.23966e-06
-2.04068e-06
1.00512e-06
-1.77687e-06
7.76045e-07
-1.47039e-06
5.59711e-07
-1.13385e-06
3.75552e-07
-7.5214e-07
2.05596e-07
-3.54529e-07
8.40248e-08
5.98217e-08
-2.85443e-08
4.63125e-07
-9.40131e-08
8.65529e-07
-1.49368e-07
1.2566e-06
-1.82368e-07
1.60369e-06
-1.69433e-07
1.89859e-06
-1.29523e-07
2.16787e-06
-9.21844e-08
2.41664e-06
-7.86522e-08
2.64011e-06
-6.98187e-08
2.81802e-06
-1.71139e-09
2.97702e-06
3.37878e-09
3.15058e-06
-5.66824e-08
3.298e-06
-4.09685e-08
3.40409e-06
-3.29247e-08
3.48334e-06
-3.03486e-08
3.5184e-06
4.59877e-10
3.51449e-06
6.72818e-09
3.47575e-06
1.2583e-08
3.37328e-06
6.50589e-08
3.28231e-06
5.11459e-08
3.12572e-06
1.69368e-07
2.9301e-06
2.10162e-07
2.73002e-06
3.26028e-07
2.49378e-06
5.03711e-07
2.17598e-06
5.94794e-07
1.79934e-06
6.18346e-07
1.35786e-06
5.99773e-07
9.30128e-07
4.08555e-07
6.30605e-07
1.38418e-07
5.19649e-07
7.24375e-08
3.89609e-07
3.72315e-07
5.6209e-08
8.65327e-07
-4.72318e-07
1.16965e-06
-1.00243e-06
1.18756e-06
-1.35302e-06
1.02455e-06
-1.66877e-06
1.1279e-06
-2.0737e-06
1.25001e-06
-2.4992e-06
1.22474e-06
-2.77908e-06
1.14637e-06
-2.9857e-06
1.22668e-06
-3.12018e-06
1.29746e-06
-3.29957e-06
1.36031e-06
-3.44015e-06
1.33663e-06
-3.37562e-06
1.13189e-06
-3.24385e-06
1.16111e-06
-3.0694e-06
1.30253e-06
-2.96653e-06
1.24131e-06
-3.02201e-06
1.01013e-06
-2.97096e-06
2.37188e-07
-2.50179e-06
-1.10064e-06
-1.52134e-06
-2.33718e-06
-3.01898e-07
-2.19237e-06
5.30185e-07
-4.07866e-07
8.08701e-07
1.44511e-06
6.40191e-07
2.56987e-06
2.23615e-07
3.0743e-06
-5.8234e-07
3.94335e-06
-2.17203e-06
5.42892e-06
-3.86804e-06
6.68747e-06
-4.81634e-06
7.54719e-06
-4.84188e-06
6.52467e-06
-3.89415e-06
3.48669e-06
-3.24785e-06
1.92117e-06
-2.77291e-06
8.97753e-07
-1.91275e-06
-7.70923e-07
-6.38446e-07
-2.73005e-06
1.61193e-06
-2.42484e-06
3.82877e-06
-3.64648e-06
5.00922e-06
-3.93785e-06
6.95046e-06
-3.73224e-06
9.35509e-06
-4.90756e-06
1.10732e-05
-2.76809e-06
1.29911e-05
-2.98204e-06
1.47122e-05
-2.31791e-06
1.62918e-05
-1.9574e-06
1.74112e-05
-1.41694e-06
1.79698e-05
-7.68362e-07
1.81864e-05
-6.69914e-07
1.86281e-05
-1.33885e-06
1.95436e-05
-1.92743e-06
2.06517e-05
-1.89731e-06
2.18188e-05
-1.28372e-06
2.19919e-05
-2.72937e-08
2.13253e-05
1.04835e-06
2.03535e-05
1.09633e-06
1.96296e-05
7.32637e-07
1.92465e-05
2.12615e-07
1.86719e-05
1.01357e-07
1.785e-05
-6.73538e-08
1.64521e-05
2.38011e-07
1.51418e-05
-2.80535e-07
1.39735e-05
-6.31315e-07
1.29712e-05
-1.04307e-06
1.12547e-05
-6.25428e-08
9.86531e-06
-1.14215e-06
1.00761e-05
-4.44431e-06
1.04851e-05
-4.0536e-06
9.74287e-06
-1.55967e-06
7.78183e-06
9.34994e-07
6.24135e-06
8.47572e-07
5.09437e-06
-3.10329e-07
2.46823e-06
8.07218e-07
-2.0532e-06
4.17117e-06
-6.71824e-06
7.10324e-06
-1.06741e-05
9.76894e-06
-1.38683e-05
1.01048e-05
-1.49947e-05
8.53084e-06
-1.33387e-05
2.02009e-06
-9.78353e-06
-1.2011e-05
-7.2566e-06
-1.55321e-05
-2.60603e-06
-2.13494e-05
3.31043e-06
-1.49559e-05
5.51298e-06
-3.46522e-06
6.37267e-06
-1.05811e-06
7.48048e-06
-2.79549e-06
7.88429e-06
-2.88115e-06
8.81523e-06
-3.93074e-06
1.0075e-05
-3.49576e-06
-3.05463e-06
1.05331e-05
4.12523e-07
1.52701e-06
1.03643e-06
1.07078e-06
1.96444e-06
3.15275e-07
3.04503e-06
-3.26171e-07
4.12608e-06
-6.85713e-07
5.1063e-06
-7.55506e-07
5.94328e-06
-6.26812e-07
6.65727e-06
-3.84693e-07
7.26918e-06
-5.76788e-08
7.77882e-06
2.91809e-07
8.22654e-06
6.49384e-07
8.65926e-06
9.30736e-07
9.13045e-06
1.12471e-06
9.57921e-06
1.36181e-06
9.96055e-06
1.66823e-06
1.03531e-05
1.85502e-06
1.07509e-05
1.91469e-06
1.11189e-05
2.11313e-06
1.13791e-05
2.46747e-06
1.15391e-05
2.65417e-06
1.16928e-05
2.63778e-06
1.18353e-05
2.78836e-06
1.20598e-05
3.02551e-06
1.22996e-05
3.13113e-06
1.24658e-05
3.13694e-06
1.2611e-05
3.08051e-06
1.25564e-05
2.97445e-06
1.17817e-05
3.17747e-06
9.95034e-06
3.88021e-06
7.39299e-06
4.60273e-06
5.10088e-06
4.89677e-06
3.68328e-06
5.15575e-06
2.73974e-06
5.42546e-06
1.7803e-06
5.52129e-06
9.76472e-07
5.55296e-06
4.07847e-07
5.50212e-06
-6.11418e-09
5.43961e-06
-3.46823e-07
5.37745e-06
-6.10039e-07
5.29227e-06
-8.2286e-07
5.16559e-06
-1.00819e-06
5.01045e-06
-1.17668e-06
4.83779e-06
-1.33706e-06
4.6553e-06
-1.49566e-06
4.45964e-06
-1.65382e-06
4.25421e-06
-1.81805e-06
4.03568e-06
-1.95337e-06
3.78958e-06
-2.07558e-06
3.5509e-06
-2.16634e-06
3.27957e-06
-2.21822e-06
2.98772e-06
-2.24163e-06
2.69766e-06
-2.19747e-06
2.38258e-06
-2.10576e-06
2.07023e-06
-1.96236e-06
1.74945e-06
-1.76966e-06
1.44238e-06
-1.52175e-06
1.13805e-06
-1.22487e-06
8.45359e-07
-8.84192e-07
5.70292e-07
-5.07e-07
3.34405e-07
-1.12047e-07
1.31404e-07
3.12824e-07
-3.58294e-08
7.58375e-07
-1.84935e-07
1.19601e-06
-2.58294e-07
1.58192e-06
-2.81116e-07
1.92807e-06
-2.93046e-07
2.23861e-06
-2.63207e-07
2.5348e-06
-2.28209e-07
2.74804e-06
-1.28344e-07
2.94546e-06
-1.19232e-07
3.10818e-06
-9.71325e-08
3.24683e-06
-2.81131e-08
3.3666e-06
-2.84908e-08
3.47733e-06
-1.03142e-07
3.58033e-06
-1.04674e-07
3.69823e-06
-1.37399e-07
3.80226e-06
-1.47289e-07
3.90598e-06
-1.41598e-07
3.92196e-06
-7.42065e-08
3.92048e-06
-7.6595e-08
3.85225e-06
1.64318e-08
3.78093e-06
-2.06637e-08
3.66467e-06
1.19891e-07
3.44253e-06
2.4434e-07
3.14275e-06
4.1925e-07
2.8549e-06
5.69562e-07
2.57002e-06
6.43839e-07
2.22675e-06
7.16034e-07
1.85183e-06
7.22484e-07
1.37704e-06
6.30218e-07
8.26963e-07
4.32959e-07
4.54563e-07
1.95814e-07
2.72818e-07
3.20743e-07
1.28712e-07
7.932e-07
-2.91805e-07
1.39505e-06
-9.22192e-07
1.65783e-06
-1.34746e-06
1.30767e-06
-1.48316e-06
1.12968e-06
-1.70137e-06
1.3835e-06
-1.96558e-06
1.46846e-06
-1.99457e-06
1.19244e-06
-2.1451e-06
1.44326e-06
-2.49387e-06
1.78394e-06
-2.72958e-06
1.79093e-06
-2.68543e-06
1.54485e-06
-2.36716e-06
1.11271e-06
-1.74565e-06
8.59471e-07
-9.67709e-07
8.98038e-07
-4.88373e-07
1.22504e-06
-3.99711e-07
1.46891e-06
-5.11423e-07
9.73602e-07
-6.49645e-07
-2.75435e-07
-7.58522e-07
-1.49115e-06
-6.45121e-07
-1.52799e-06
-3.59743e-07
1.17246e-07
-2.93325e-07
2.21789e-06
-3.96439e-07
3.55891e-06
-6.41932e-07
4.24395e-06
-1.21855e-06
5.44421e-06
-2.57354e-06
7.80445e-06
-4.27596e-06
9.47095e-06
-4.9684e-06
9.18993e-06
-4.38154e-06
6.83679e-06
-3.16494e-06
3.15361e-06
-2.31777e-06
1.90856e-06
-1.52075e-06
9.23095e-07
-5.53267e-07
-9.10861e-07
5.90141e-07
-3.0619e-06
2.30763e-06
-3.41869e-06
4.4832e-06
-5.06562e-06
6.02748e-06
-4.8437e-06
7.46231e-06
-4.60505e-06