/*--------------------------------*- C++ -*----------------------------------*\
| =========                 |                                                 |
| \\      /  F ield         | OpenFOAM: The Open Source CFD Toolbox           |
|  \\    /   O peration     | Version:  dev                                   |
|   \\  /    A nd           | Web:      http://www.openfoam.org               |
|    \\/     M anipulation  |                                                 |
\*---------------------------------------------------------------------------*/
FoamFile
{
    version     2.0;
    format      ascii;
    class       volScalarField;
    object      pPrime2Mean;
    location    "9.161";
}
// * * * * * * * * * * * * * * * * * * * * * * * * * * * * * * * * * * * * * //

dimensions      [2 -2 -4 0 0 0 0];

internalField   nonuniform List<scalar> 
12225
(
5.03294e+07
4.98643e+07
4.89037e+07
4.75526e+07
4.58991e+07
4.40324e+07
4.20119e+07
3.99094e+07
3.77659e+07
3.56294e+07
3.35375e+07
3.14933e+07
2.95708e+07
2.77006e+07
2.59542e+07
2.43946e+07
2.2834e+07
2.12554e+07
5.02217e+07
4.97566e+07
4.87968e+07
4.74474e+07
4.57953e+07
4.39311e+07
4.19133e+07
3.98135e+07
3.76739e+07
3.554e+07
3.34528e+07
3.14123e+07
2.94944e+07
2.76311e+07
2.59021e+07
2.43426e+07
2.28349e+07
2.1502e+07
4.99719e+07
4.95074e+07
4.8548e+07
4.72017e+07
4.55541e+07
4.36946e+07
4.16836e+07
3.959e+07
3.74586e+07
3.53328e+07
3.32541e+07
3.12253e+07
2.93133e+07
2.74673e+07
2.57581e+07
2.42035e+07
2.27695e+07
2.15578e+07
4.95368e+07
4.90752e+07
4.81181e+07
4.6777e+07
4.51374e+07
4.32864e+07
4.12871e+07
3.92039e+07
3.70872e+07
3.49749e+07
3.2912e+07
3.09011e+07
2.90063e+07
2.71795e+07
2.55e+07
2.397e+07
2.25847e+07
2.14851e+07
4.88726e+07
4.84112e+07
4.74589e+07
4.61272e+07
4.44994e+07
4.26629e+07
4.06794e+07
3.86156e+07
3.65179e+07
3.44297e+07
3.2387e+07
3.04068e+07
2.85346e+07
2.67439e+07
2.51165e+07
2.36088e+07
2.23287e+07
2.12654e+07
4.79246e+07
4.74607e+07
4.65178e+07
4.51996e+07
4.35897e+07
4.1773e+07
3.98141e+07
3.77759e+07
3.57083e+07
3.36498e+07
3.16413e+07
2.96952e+07
2.78612e+07
2.6117e+07
2.4539e+07
2.31008e+07
2.18749e+07
2.08195e+07
4.66312e+07
4.61661e+07
4.52387e+07
4.39368e+07
4.2353e+07
4.05619e+07
3.86386e+07
3.66338e+07
3.4609e+07
3.25894e+07
3.06293e+07
2.87287e+07
2.69461e+07
2.52596e+07
2.37386e+07
2.23603e+07
2.11928e+07
2.01658e+07
4.5191e+07
4.47274e+07
4.38164e+07
4.25323e+07
4.09772e+07
3.92157e+07
3.73309e+07
3.53651e+07
3.33856e+07
3.14121e+07
2.95018e+07
2.76549e+07
2.59236e+07
2.43002e+07
2.28277e+07
2.15126e+07
2.03776e+07
1.94186e+07
4.36781e+07
4.3218e+07
4.23232e+07
4.10589e+07
3.95333e+07
3.78043e+07
3.59589e+07
3.40353e+07
3.2102e+07
3.0178e+07
2.83186e+07
2.65273e+07
2.48498e+07
2.32871e+07
2.18665e+07
2.06074e+07
1.95143e+07
1.86164e+07
4.17404e+07
4.1287e+07
4.04117e+07
3.91749e+07
3.76858e+07
3.60007e+07
3.4204e+07
3.23366e+07
3.04605e+07
2.86013e+07
2.68047e+07
2.50849e+07
2.34734e+07
2.19853e+07
2.0631e+07
1.94394e+07
1.84031e+07
1.75511e+07
3.92948e+07
3.88514e+07
3.79996e+07
3.67996e+07
3.53563e+07
3.37283e+07
3.19936e+07
3.01972e+07
2.83942e+07
2.66152e+07
2.48988e+07
2.32649e+07
2.17371e+07
2.03351e+07
1.90637e+07
1.79488e+07
1.69793e+07
1.61734e+07
3.62752e+07
3.58467e+07
3.50231e+07
3.3872e+07
3.24858e+07
3.0931e+07
2.92737e+07
2.75663e+07
2.58537e+07
2.41736e+07
2.25553e+07
2.10243e+07
1.95973e+07
1.82945e+07
1.71195e+07
1.60889e+07
1.51949e+07
1.44421e+07
3.26667e+07
3.22568e+07
3.14696e+07
3.03795e+07
2.90657e+07
2.75998e+07
2.60382e+07
2.44372e+07
2.28347e+07
2.1271e+07
1.97694e+07
1.83574e+07
1.70467e+07
1.58559e+07
1.47874e+07
1.38503e+07
1.30395e+07
1.23517e+07
2.85602e+07
2.81731e+07
2.74326e+07
2.64148e+07
2.51892e+07
2.38268e+07
2.23791e+07
2.09001e+07
1.94257e+07
1.79928e+07
1.66239e+07
1.53424e+07
1.41602e+07
1.30899e+07
1.21349e+07
1.1298e+07
1.05758e+07
9.96194e+06
2.42409e+07
2.38803e+07
2.31957e+07
2.22588e+07
2.11333e+07
1.98849e+07
1.85627e+07
1.7216e+07
1.58792e+07
1.4585e+07
1.3355e+07
1.22085e+07
1.11565e+07
1.02079e+07
9.36515e+06
8.62828e+06
7.99409e+06
7.45588e+06
2.02986e+07
1.99666e+07
1.93417e+07
1.84864e+07
1.74623e+07
1.6327e+07
1.51285e+07
1.39099e+07
1.27047e+07
1.15412e+07
1.04399e+07
9.41662e+06
8.48124e+06
7.63983e+06
6.8943e+06
6.24337e+06
5.68386e+06
5.20954e+06
1.77359e+07
1.74295e+07
1.68547e+07
1.60673e+07
1.51255e+07
1.40813e+07
1.29801e+07
1.18609e+07
1.07554e+07
9.68869e+06
8.6798e+06
7.74228e+06
6.88483e+06
6.11225e+06
5.42588e+06
4.82436e+06
4.30469e+06
3.86152e+06
1.78438e+07
1.75492e+07
1.69967e+07
1.62389e+07
1.53319e+07
1.43247e+07
1.32611e+07
1.21779e+07
1.11053e+07
1.00669e+07
9.08057e+06
8.15889e+06
7.31003e+06
6.53845e+06
5.84557e+06
5.23055e+06
4.69088e+06
4.22222e+06
2.07174e+07
2.04184e+07
1.98561e+07
1.90834e+07
1.8157e+07
1.71261e+07
1.60341e+07
1.49176e+07
1.38065e+07
1.27244e+07
1.16887e+07
1.07122e+07
9.80307e+06
8.96615e+06
8.20334e+06
7.51457e+06
6.89798e+06
6.3502e+06
2.51994e+07
2.48875e+07
2.42974e+07
2.34838e+07
2.2506e+07
2.14149e+07
2.02552e+07
1.90644e+07
1.78731e+07
1.67053e+07
1.55792e+07
1.45078e+07
1.35e+07
1.25612e+07
1.16941e+07
1.08993e+07
1.01756e+07
9.52074e+06
3.02532e+07
2.99273e+07
2.9304e+07
2.8441e+07
2.74009e+07
2.62368e+07
2.49952e+07
2.37152e+07
2.24284e+07
2.116e+07
1.99288e+07
1.87488e+07
1.76295e+07
1.65771e+07
1.55949e+07
1.46844e+07
1.38452e+07
1.30755e+07
3.51616e+07
3.4824e+07
3.41697e+07
3.32597e+07
3.21596e+07
3.09244e+07
2.96028e+07
2.82353e+07
2.68551e+07
2.54883e+07
2.41548e+07
2.28693e+07
2.16422e+07
2.04804e+07
1.93881e+07
1.83672e+07
1.7418e+07
1.65396e+07
3.95059e+07
3.916e+07
3.84804e+07
3.75307e+07
3.63791e+07
3.50823e+07
3.36907e+07
3.22464e+07
3.07839e+07
2.93303e+07
2.79065e+07
2.65281e+07
2.52061e+07
2.39482e+07
2.27591e+07
2.16414e+07
2.05961e+07
1.96225e+07
4.30976e+07
4.27465e+07
4.20476e+07
4.1067e+07
3.98744e+07
3.85279e+07
3.70793e+07
3.55722e+07
3.40422e+07
3.25172e+07
3.10191e+07
2.95641e+07
2.8164e+07
2.6827e+07
2.55584e+07
2.43612e+07
2.32368e+07
2.21851e+07
4.59027e+07
4.55488e+07
4.48361e+07
4.38326e+07
4.26089e+07
4.12244e+07
3.9732e+07
3.81764e+07
3.65939e+07
3.50135e+07
3.34577e+07
3.19431e+07
3.04822e+07
2.90836e+07
2.77531e+07
2.64941e+07
2.53082e+07
2.41957e+07
4.79785e+07
4.76229e+07
4.69006e+07
4.58811e+07
4.4635e+07
4.32229e+07
4.16984e+07
4.01071e+07
3.84861e+07
3.68649e+07
3.52665e+07
3.37081e+07
3.22024e+07
3.07585e+07
2.93824e+07
2.80778e+07
2.68467e+07
2.56893e+07
4.94257e+07
4.90692e+07
4.83403e+07
4.73098e+07
4.60486e+07
4.46175e+07
4.30711e+07
4.14553e+07
3.98077e+07
3.81584e+07
3.65304e+07
3.49416e+07
3.3405e+07
3.19296e+07
3.05219e+07
2.91858e+07
2.79233e+07
2.67348e+07
5.03595e+07
5.00021e+07
4.9269e+07
4.82319e+07
4.69608e+07
4.55178e+07
4.39574e+07
4.23261e+07
4.06615e+07
3.89941e+07
3.73473e+07
3.5739e+07
3.41824e+07
3.26869e+07
3.12588e+07
2.99024e+07
2.86197e+07
2.74114e+07
5.0888e+07
5.05302e+07
4.97955e+07
4.87553e+07
4.74789e+07
4.60293e+07
4.44612e+07
4.28208e+07
4.11465e+07
3.94687e+07
3.7811e+07
3.61915e+07
3.46234e+07
3.31162e+07
3.16765e+07
3.03084e+07
2.90143e+07
2.7795e+07
5.11099e+07
5.07536e+07
5.0017e+07
4.8975e+07
4.76961e+07
4.62436e+07
4.46721e+07
4.30279e+07
4.13494e+07
3.96671e+07
3.80047e+07
3.63804e+07
3.48074e+07
3.32952e+07
3.18505e+07
3.04775e+07
2.91788e+07
2.7955e+07
6.04516e+07
6.03926e+07
6.0262e+07
6.00564e+07
5.97738e+07
5.94137e+07
5.8976e+07
5.84616e+07
5.78714e+07
5.72071e+07
5.64704e+07
5.56635e+07
5.47887e+07
5.38484e+07
5.28455e+07
5.1783e+07
5.06641e+07
4.94922e+07
4.8271e+07
4.70045e+07
4.56965e+07
4.43512e+07
4.29727e+07
4.15655e+07
4.01339e+07
3.86826e+07
3.7216e+07
3.57386e+07
3.42548e+07
3.27692e+07
3.12863e+07
2.98109e+07
2.83474e+07
2.69004e+07
2.54746e+07
2.40744e+07
2.27046e+07
2.13698e+07
2.00748e+07
1.88244e+07
1.76233e+07
1.64765e+07
1.53889e+07
1.43657e+07
1.3412e+07
1.2533e+07
1.17341e+07
1.10205e+07
1.03978e+07
9.8714e+06
9.44674e+06
9.12927e+06
8.9244e+06
8.83739e+06
8.87335e+06
9.0371e+06
9.33319e+06
9.76589e+06
1.0339e+07
1.10559e+07
1.19193e+07
1.29312e+07
1.40932e+07
1.5406e+07
1.68695e+07
1.8483e+07
2.02447e+07
2.21522e+07
2.42024e+07
2.63915e+07
2.87148e+07
3.1167e+07
3.37423e+07
3.64343e+07
3.9236e+07
4.21402e+07
4.51395e+07
4.8226e+07
5.13919e+07
5.46293e+07
5.793e+07
6.12858e+07
6.46885e+07
6.81294e+07
7.15999e+07
7.50911e+07
7.85939e+07
8.20988e+07
8.55959e+07
8.90746e+07
9.25241e+07
9.59329e+07
9.92889e+07
1.0258e+08
1.05793e+08
1.08916e+08
1.11935e+08
1.1484e+08
1.17618e+08
1.20259e+08
1.22753e+08
1.25093e+08
1.27272e+08
1.29282e+08
1.31122e+08
1.32789e+08
1.34283e+08
1.35607e+08
1.36766e+08
1.37766e+08
1.3862e+08
1.39337e+08
1.39932e+08
1.40418e+08
1.40812e+08
1.41132e+08
1.41397e+08
1.41629e+08
1.41852e+08
1.42091e+08
1.42378e+08
1.42744e+08
1.43226e+08
1.43865e+08
1.44703e+08
1.45789e+08
1.47176e+08
1.48919e+08
1.5108e+08
1.53721e+08
1.56905e+08
1.60695e+08
1.65153e+08
1.70334e+08
1.76292e+08
1.83073e+08
1.90713e+08
1.99238e+08
2.08664e+08
2.18993e+08
2.30219e+08
2.4232e+08
2.55269e+08
2.69022e+08
2.83538e+08
2.98754e+08
3.14621e+08
3.31068e+08
3.48032e+08
3.65437e+08
3.83211e+08
4.01269e+08
4.1952e+08
4.37872e+08
4.56202e+08
4.74371e+08
4.92215e+08
5.09565e+08
5.26188e+08
5.41849e+08
5.56249e+08
5.69088e+08
5.80025e+08
5.88738e+08
5.94892e+08
5.9819e+08
5.98373e+08
5.95257e+08
5.88718e+08
5.78783e+08
5.6553e+08
5.49226e+08
5.30189e+08
5.08913e+08
4.85871e+08
4.6159e+08
4.36435e+08
4.10841e+08
3.85019e+08
3.59295e+08
5.93778e+07
5.93222e+07
5.91971e+07
5.89974e+07
5.87213e+07
5.83688e+07
5.79404e+07
5.74373e+07
5.68607e+07
5.6212e+07
5.54929e+07
5.47054e+07
5.38516e+07
5.29341e+07
5.19552e+07
5.09178e+07
4.9825e+07
4.868e+07
4.74865e+07
4.6248e+07
4.49685e+07
4.3652e+07
4.23026e+07
4.09245e+07
3.95221e+07
3.80999e+07
3.66622e+07
3.52131e+07
3.37573e+07
3.2299e+07
3.08427e+07
2.9393e+07
2.79544e+07
2.65315e+07
2.51287e+07
2.37506e+07
2.24016e+07
2.10865e+07
1.98098e+07
1.85764e+07
1.73911e+07
1.62587e+07
1.51842e+07
1.41726e+07
1.32291e+07
1.23589e+07
1.15672e+07
1.08596e+07
1.02413e+07
9.71783e+06
9.29471e+06
8.97733e+06
8.77108e+06
8.68119e+06
8.71278e+06
8.87074e+06
9.15964e+06
9.58369e+06
1.01467e+07
1.0852e+07
1.17023e+07
1.26997e+07
1.38456e+07
1.51407e+07
1.6585e+07
1.81778e+07
1.99172e+07
2.18009e+07
2.38257e+07
2.59879e+07
2.82828e+07
3.0705e+07
3.32489e+07
3.59079e+07
3.86752e+07
4.15437e+07
4.45059e+07
4.75542e+07
5.06807e+07
5.38773e+07
5.71361e+07
6.04488e+07
6.38074e+07
6.72032e+07
7.06278e+07
7.40722e+07
7.75274e+07
8.0984e+07
8.44321e+07
8.78613e+07
9.1261e+07
9.46196e+07
9.79254e+07
1.01166e+08
1.04329e+08
1.07403e+08
1.10374e+08
1.13231e+08
1.15963e+08
1.18559e+08
1.21011e+08
1.2331e+08
1.2545e+08
1.27426e+08
1.29233e+08
1.3087e+08
1.32336e+08
1.33635e+08
1.34772e+08
1.35754e+08
1.36592e+08
1.37295e+08
1.37879e+08
1.38355e+08
1.38741e+08
1.39054e+08
1.39312e+08
1.39537e+08
1.39751e+08
1.39981e+08
1.40256e+08
1.40609e+08
1.41074e+08
1.41691e+08
1.42503e+08
1.43557e+08
1.44904e+08
1.46601e+08
1.48706e+08
1.51283e+08
1.54393e+08
1.58098e+08
1.62459e+08
1.67531e+08
1.73367e+08
1.80011e+08
1.87501e+08
1.95862e+08
2.0511e+08
2.15248e+08
2.26269e+08
2.38152e+08
2.50871e+08
2.64385e+08
2.78651e+08
2.93608e+08
3.09206e+08
3.25383e+08
3.4207e+08
3.59195e+08
3.76687e+08
3.94464e+08
4.12438e+08
4.30518e+08
4.48583e+08
4.66495e+08
4.84095e+08
5.01217e+08
5.17636e+08
5.33116e+08
5.47371e+08
5.60104e+08
5.70977e+08
5.79674e+08
5.85868e+08
5.89269e+08
5.89618e+08
5.86739e+08
5.80501e+08
5.70916e+08
5.58059e+08
5.42182e+08
5.23592e+08
5.02771e+08
4.80179e+08
4.56329e+08
4.31584e+08
4.06372e+08
3.80903e+08
3.55418e+08
5.73147e+07
5.72616e+07
5.71421e+07
5.69508e+07
5.66863e+07
5.63492e+07
5.59404e+07
5.54611e+07
5.49122e+07
5.42949e+07
5.36106e+07
5.28612e+07
5.20483e+07
5.11742e+07
5.02411e+07
4.92515e+07
4.82083e+07
4.71145e+07
4.59734e+07
4.47885e+07
4.35634e+07
4.2302e+07
4.10083e+07
3.96863e+07
3.834e+07
3.69734e+07
3.55905e+07
3.41956e+07
3.27929e+07
3.13867e+07
2.99814e+07
2.85813e+07
2.71909e+07
2.58143e+07
2.44561e+07
2.31205e+07
2.18119e+07
2.05348e+07
1.92938e+07
1.80936e+07
1.69389e+07
1.58346e+07
1.47854e+07
1.37964e+07
1.28727e+07
1.20196e+07
1.12423e+07
1.05462e+07
9.93663e+06
9.41909e+06
8.99899e+06
8.68178e+06
8.47287e+06
8.37749e+06
8.40073e+06
8.5475e+06
8.82233e+06
9.22947e+06
9.77272e+06
1.04553e+07
1.128e+07
1.22488e+07
1.33632e+07
1.46238e+07
1.60306e+07
1.75826e+07
1.92782e+07
2.1115e+07
2.309e+07
2.51992e+07
2.74381e+07
2.98015e+07
3.22836e+07
3.48779e+07
3.75779e+07
4.03765e+07
4.32662e+07
4.62396e+07
4.9289e+07
5.24063e+07
5.55837e+07
5.8813e+07
6.20861e+07
6.53946e+07
6.87301e+07
7.20839e+07
7.5447e+07
7.881e+07
8.21634e+07
8.5497e+07
8.88e+07
9.20613e+07
9.52697e+07
9.84131e+07
1.01479e+08
1.04456e+08
1.07332e+08
1.10097e+08
1.12738e+08
1.15247e+08
1.17614e+08
1.19834e+08
1.21898e+08
1.23803e+08
1.25546e+08
1.27124e+08
1.28537e+08
1.29788e+08
1.30883e+08
1.31829e+08
1.32636e+08
1.33313e+08
1.33874e+08
1.34332e+08
1.34702e+08
1.34999e+08
1.35243e+08
1.35453e+08
1.35652e+08
1.35863e+08
1.36116e+08
1.3644e+08
1.3687e+08
1.37442e+08
1.382e+08
1.39189e+08
1.40457e+08
1.4206e+08
1.44055e+08
1.46503e+08
1.49465e+08
1.53001e+08
1.57169e+08
1.62024e+08
1.67617e+08
1.73992e+08
1.81184e+08
1.8922e+08
1.98116e+08
2.07874e+08
2.18488e+08
2.29939e+08
2.42204e+08
2.55245e+08
2.69016e+08
2.83461e+08
2.98527e+08
3.14163e+08
3.303e+08
3.46869e+08
3.63797e+08
3.81013e+08
3.98431e+08
4.15959e+08
4.33483e+08
4.50873e+08
4.67971e+08
4.84617e+08
5.00597e+08
5.1568e+08
5.29603e+08
5.42069e+08
5.5276e+08
5.61373e+08
5.67589e+08
5.71135e+08
5.71763e+08
5.69298e+08
5.63606e+08
5.54675e+08
5.42579e+08
5.2754e+08
5.09844e+08
4.89944e+08
4.6827e+08
4.453e+08
4.21407e+08
3.9699e+08
3.72274e+08
3.47431e+08
5.4424e+07
5.43747e+07
5.42627e+07
5.40835e+07
5.38369e+07
5.35235e+07
5.31443e+07
5.26997e+07
5.21905e+07
5.16177e+07
5.09823e+07
5.02857e+07
4.95293e+07
4.87148e+07
4.78444e+07
4.69203e+07
4.59451e+07
4.49217e+07
4.38529e+07
4.27421e+07
4.15926e+07
4.0408e+07
3.91919e+07
3.79477e+07
3.66791e+07
3.53896e+07
3.40832e+07
3.27637e+07
3.14353e+07
3.0102e+07
2.8768e+07
2.74375e+07
2.61143e+07
2.48027e+07
2.35066e+07
2.22303e+07
2.0978e+07
1.97542e+07
1.85632e+07
1.74095e+07
1.62978e+07
1.52327e+07
1.42192e+07
1.32621e+07
1.23665e+07
1.15375e+07
1.07805e+07
1.01006e+07
9.50337e+06
8.99417e+06
8.57842e+06
8.26155e+06
8.04892e+06
7.94577e+06
7.95717e+06
8.088e+06
8.34285e+06
8.72591e+06
9.24094e+06
9.89117e+06
1.06793e+07
1.16073e+07
1.26767e+07
1.3888e+07
1.52411e+07
1.67351e+07
1.83684e+07
2.01386e+07
2.20427e+07
2.40769e+07
2.62365e+07
2.85166e+07
3.09115e+07
3.34148e+07
3.602e+07
3.87202e+07
4.15082e+07
4.43767e+07
4.73181e+07
5.03246e+07
5.33883e+07
5.65013e+07
5.96555e+07
6.28427e+07
6.60545e+07
6.92823e+07
7.25176e+07
7.5751e+07
7.8973e+07
8.21738e+07
8.53428e+07
8.84692e+07
9.15419e+07
9.45495e+07
9.74804e+07
1.00323e+08
1.03066e+08
1.057e+08
1.08214e+08
1.10599e+08
1.12848e+08
1.14955e+08
1.16913e+08
1.18718e+08
1.20368e+08
1.2186e+08
1.23197e+08
1.24381e+08
1.25416e+08
1.2631e+08
1.27071e+08
1.2771e+08
1.28238e+08
1.28668e+08
1.29013e+08
1.29289e+08
1.2951e+08
1.29698e+08
1.29872e+08
1.30057e+08
1.30276e+08
1.30558e+08
1.30936e+08
1.31445e+08
1.32124e+08
1.33019e+08
1.34176e+08
1.35648e+08
1.37487e+08
1.39753e+08
1.42504e+08
1.45801e+08
1.49698e+08
1.54249e+08
1.59501e+08
1.65496e+08
1.72271e+08
1.79852e+08
1.88254e+08
1.97482e+08
2.07528e+08
2.18378e+08
2.3001e+08
2.42393e+08
2.55475e+08
2.6921e+08
2.83542e+08
2.98429e+08
3.13806e+08
3.29608e+08
3.45761e+08
3.62204e+08
3.78854e+08
3.95621e+08
4.12394e+08
4.29056e+08
4.45454e+08
4.61432e+08
4.76792e+08
4.91311e+08
5.04743e+08
5.16808e+08
5.27209e+08
5.35662e+08
5.41864e+08
5.45559e+08
5.46507e+08
5.4454e+08
5.39528e+08
5.31441e+08
5.20341e+08
5.06415e+08
4.89926e+08
4.71285e+08
4.50878e+08
4.29147e+08
4.0645e+08
3.83165e+08
3.5953e+08
3.35694e+08
5.09058e+07
5.08618e+07
5.07599e+07
5.05971e+07
5.03736e+07
5.00899e+07
4.97464e+07
4.93433e+07
4.88815e+07
4.83614e+07
4.77837e+07
4.71494e+07
4.64597e+07
4.57163e+07
4.49207e+07
4.40751e+07
4.31817e+07
4.22429e+07
4.12614e+07
4.024e+07
3.91819e+07
3.80899e+07
3.69672e+07
3.58168e+07
3.46418e+07
3.34457e+07
3.22321e+07
3.10045e+07
2.97668e+07
2.85227e+07
2.72759e+07
2.60302e+07
2.47892e+07
2.35568e+07
2.23367e+07
2.1133e+07
1.99497e+07
1.8791e+07
1.76611e+07
1.65643e+07
1.55053e+07
1.44885e+07
1.35186e+07
1.26006e+07
1.17394e+07
1.094e+07
1.02078e+07
9.54786e+06
8.96568e+06
8.46665e+06
8.05614e+06
7.73956e+06
7.52226e+06
7.40946e+06
7.40619e+06
7.5173e+06
7.74733e+06
8.10042e+06
8.58029e+06
9.19017e+06
9.93271e+06
1.08099e+07
1.18232e+07
1.29731e+07
1.42594e+07
1.56813e+07
1.7237e+07
1.89245e+07
2.07405e+07
2.26814e+07
2.47428e+07
2.69196e+07
2.92062e+07
3.15967e+07
3.40846e+07
3.66632e+07
3.93254e+07
4.20643e+07
4.48723e+07
4.77418e+07
5.06653e+07
5.36349e+07
5.66427e+07
5.96807e+07
6.27407e+07
6.58141e+07
6.88925e+07
7.19671e+07
7.50283e+07
7.80665e+07
8.10717e+07
8.40335e+07
8.69411e+07
8.97834e+07
9.25494e+07
9.52285e+07
9.78103e+07
1.00285e+08
1.02644e+08
1.04879e+08
1.06982e+08
1.0895e+08
1.10777e+08
1.12459e+08
1.13994e+08
1.15382e+08
1.16624e+08
1.17723e+08
1.18683e+08
1.19511e+08
1.20214e+08
1.20804e+08
1.2129e+08
1.21683e+08
1.21995e+08
1.2224e+08
1.22433e+08
1.22592e+08
1.22733e+08
1.22881e+08
1.23057e+08
1.23287e+08
1.236e+08
1.24031e+08
1.24616e+08
1.25396e+08
1.26417e+08
1.27727e+08
1.29377e+08
1.31423e+08
1.33918e+08
1.36922e+08
1.40488e+08
1.44667e+08
1.49505e+08
1.55042e+08
1.61311e+08
1.68341e+08
1.76147e+08
1.84735e+08
1.94099e+08
2.04225e+08
2.15094e+08
2.2668e+08
2.38937e+08
2.51821e+08
2.65277e+08
2.79268e+08
2.93737e+08
3.08623e+08
3.23855e+08
3.39375e+08
3.55105e+08
3.7096e+08
3.86833e+08
4.02615e+08
4.18166e+08
4.33334e+08
4.47937e+08
4.61766e+08
4.74583e+08
4.86137e+08
4.96159e+08
5.04378e+08
5.10516e+08
5.1433e+08
5.15596e+08
5.1416e+08
5.09894e+08
5.02755e+08
4.92789e+08
4.80147e+08
4.65067e+08
4.47909e+08
4.29013e+08
4.08783e+08
3.87546e+08
3.65654e+08
3.43356e+08
3.20812e+08
4.69826e+07
4.69456e+07
4.68563e+07
4.67126e+07
4.65151e+07
4.62641e+07
4.59596e+07
4.5602e+07
4.51916e+07
4.47285e+07
4.42133e+07
4.36468e+07
4.30301e+07
4.23642e+07
4.16507e+07
4.08913e+07
4.00878e+07
3.92422e+07
3.83569e+07
3.74343e+07
3.64769e+07
3.54872e+07
3.44677e+07
3.3421e+07
3.235e+07
3.12577e+07
3.01473e+07
2.90223e+07
2.78858e+07
2.67411e+07
2.55917e+07
2.44407e+07
2.32916e+07
2.21478e+07
2.10129e+07
1.98906e+07
1.87848e+07
1.76994e+07
1.66383e+07
1.56058e+07
1.46061e+07
1.36436e+07
1.27231e+07
1.18491e+07
1.10266e+07
1.02606e+07
9.55617e+06
8.91866e+06
8.35337e+06
7.86566e+06
7.4609e+06
7.14445e+06
6.92167e+06
6.79773e+06
6.77761e+06
6.86609e+06
7.06769e+06
7.3865e+06
7.82617e+06
8.38988e+06
9.08023e+06
9.89921e+06
1.08481e+07
1.19276e+07
1.31375e+07
1.44768e+07
1.59439e+07
1.75365e+07
1.92518e+07
2.1086e+07
2.30349e+07
2.50936e+07
2.72566e+07
2.95181e+07
3.1872e+07
3.43117e+07
3.68304e+07
3.94213e+07
4.20771e+07
4.47904e+07
4.75539e+07
5.036e+07
5.32009e+07
5.60688e+07
5.89558e+07
6.18536e+07
6.47537e+07
6.76477e+07
7.05263e+07
7.338e+07
7.61995e+07
7.89748e+07
8.16957e+07
8.43515e+07
8.69319e+07
8.94272e+07
9.18278e+07
9.41249e+07
9.63101e+07
9.83761e+07
1.00317e+08
1.02128e+08
1.03807e+08
1.05349e+08
1.06755e+08
1.08024e+08
1.09158e+08
1.1016e+08
1.11034e+08
1.11785e+08
1.12421e+08
1.12953e+08
1.13387e+08
1.13734e+08
1.14005e+08
1.14212e+08
1.1437e+08
1.14491e+08
1.14594e+08
1.14696e+08
1.1482e+08
1.14989e+08
1.15229e+08
1.15573e+08
1.16052e+08
1.16704e+08
1.17571e+08
1.18699e+08
1.20137e+08
1.21936e+08
1.24146e+08
1.26824e+08
1.30021e+08
1.33784e+08
1.38159e+08
1.43183e+08
1.48891e+08
1.5531e+08
1.62455e+08
1.70332e+08
1.7894e+08
1.88268e+08
1.98296e+08
2.09003e+08
2.2035e+08
2.32299e+08
2.44795e+08
2.57805e+08
2.71279e+08
2.85162e+08
2.99386e+08
3.13893e+08
3.28614e+08
3.43463e+08
3.58344e+08
3.73153e+08
3.87764e+08
4.02028e+08
4.15779e+08
4.28828e+08
4.40944e+08
4.51901e+08
4.61462e+08
4.69375e+08
4.75388e+08
4.79269e+08
4.80817e+08
4.79896e+08
4.76377e+08
4.7021e+08
4.6142e+08
4.50133e+08
4.36557e+08
4.21e+08
4.03755e+08
3.85188e+08
3.65583e+08
3.45265e+08
3.24485e+08
3.03433e+08
4.28792e+07
4.28497e+07
4.27738e+07
4.26505e+07
4.248e+07
4.22627e+07
4.19985e+07
4.16874e+07
4.13294e+07
4.09245e+07
4.04734e+07
3.99765e+07
3.94347e+07
3.88487e+07
3.82198e+07
3.75493e+07
3.68386e+07
3.60896e+07
3.53039e+07
3.44836e+07
3.36305e+07
3.27466e+07
3.1834e+07
3.0895e+07
2.99321e+07
2.8948e+07
2.79455e+07
2.69275e+07
2.58967e+07
2.4856e+07
2.38083e+07
2.27566e+07
2.17038e+07
2.06532e+07
1.9608e+07
1.85715e+07
1.75475e+07
1.65393e+07
1.55509e+07
1.45862e+07
1.36492e+07
1.27442e+07
1.18757e+07
1.10482e+07
1.02666e+07
9.53579e+06
8.86084e+06
8.24695e+06
7.69939e+06
7.22352e+06
6.82466e+06
6.50813e+06
6.27922e+06
6.14307e+06
6.10464e+06
6.16866e+06
6.33957e+06
6.62141e+06
7.01778e+06
7.53179e+06
8.16596e+06
8.92224e+06
9.80189e+06
1.08055e+07
1.19329e+07
1.31832e+07
1.45547e+07
1.60452e+07
1.76517e+07
1.93708e+07
2.11983e+07
2.31295e+07
2.51591e+07
2.72814e+07
2.94905e+07
3.17801e+07
3.41437e+07
3.65747e+07
3.90659e+07
4.16105e+07
4.4201e+07
4.68303e+07
4.94909e+07
5.2175e+07
5.48752e+07
5.75832e+07
6.02909e+07
6.29899e+07
6.56715e+07
6.83266e+07
7.09462e+07
7.35208e+07
7.60408e+07
7.84965e+07
8.08782e+07
8.3177e+07
8.53842e+07
8.74921e+07
8.94928e+07
9.13802e+07
9.31488e+07
9.4795e+07
9.63162e+07
9.77111e+07
9.89792e+07
1.00121e+08
1.01139e+08
1.02036e+08
1.02815e+08
1.03483e+08
1.04045e+08
1.0451e+08
1.04885e+08
1.05179e+08
1.05402e+08
1.05565e+08
1.0568e+08
1.05759e+08
1.05816e+08
1.05869e+08
1.05935e+08
1.06037e+08
1.06198e+08
1.06448e+08
1.06815e+08
1.07332e+08
1.08037e+08
1.08973e+08
1.10186e+08
1.11724e+08
1.13635e+08
1.15971e+08
1.18779e+08
1.22106e+08
1.25994e+08
1.30481e+08
1.35601e+08
1.4138e+08
1.47833e+08
1.5497e+08
1.62789e+08
1.71285e+08
1.8044e+08
1.90236e+08
2.00641e+08
2.1162e+08
2.23126e+08
2.35126e+08
2.47574e+08
2.60419e+08
2.736e+08
2.87063e+08
3.00736e+08
3.14541e+08
3.2839e+08
3.42185e+08
3.55808e+08
3.69118e+08
3.8196e+08
3.94164e+08
4.05518e+08
4.15815e+08
4.24841e+08
4.32377e+08
4.38193e+08
4.42072e+08
4.4384e+08
4.43375e+08
4.40551e+08
4.3531e+08
4.27662e+08
4.1772e+08
4.05653e+08
3.91723e+08
3.76177e+08
3.59338e+08
3.41447e+08
3.22802e+08
3.03647e+08
2.84205e+08
3.88082e+07
3.87861e+07
3.87236e+07
3.86204e+07
3.84767e+07
3.82924e+07
3.80674e+07
3.78015e+07
3.74945e+07
3.71468e+07
3.67584e+07
3.63298e+07
3.58613e+07
3.53537e+07
3.48078e+07
3.42245e+07
3.3605e+07
3.29506e+07
3.22626e+07
3.15424e+07
3.07916e+07
3.00116e+07
2.92043e+07
2.83716e+07
2.75155e+07
2.66385e+07
2.57428e+07
2.48308e+07
2.39047e+07
2.29671e+07
2.20205e+07
2.10673e+07
2.01104e+07
1.91526e+07
1.81967e+07
1.72459e+07
1.63033e+07
1.53723e+07
1.44564e+07
1.35593e+07
1.2685e+07
1.18374e+07
1.10209e+07
1.024e+07
9.49929e+06
8.80366e+06
8.15811e+06
7.56778e+06
7.03786e+06
6.57367e+06
6.18046e+06
5.86353e+06
5.62808e+06
5.47923e+06
5.42188e+06
5.46074e+06
5.60015e+06
5.84409e+06
6.19607e+06
6.65916e+06
7.23579e+06
7.92783e+06
8.73651e+06
9.66236e+06
1.07052e+07
1.18641e+07
1.31374e+07
1.4523e+07
1.60178e+07
1.76185e+07
1.93211e+07
2.11209e+07
2.30129e+07
2.49916e+07
2.70514e+07
2.9186e+07
3.13893e+07
3.36548e+07
3.59758e+07
3.83455e+07
4.07569e+07
4.32031e+07
4.56767e+07
4.81703e+07
5.06765e+07
5.31876e+07
5.56956e+07
5.81925e+07
6.06699e+07
6.31192e+07
6.55319e+07
6.7899e+07
7.02115e+07
7.24608e+07
7.4638e+07
7.67349e+07
7.87438e+07
8.06578e+07
8.24699e+07
8.41751e+07
8.57684e+07
8.72469e+07
8.86085e+07
8.98527e+07
9.09804e+07
9.19923e+07
9.28903e+07
9.36776e+07
9.43585e+07
9.49375e+07
9.54205e+07
9.5814e+07
9.61243e+07
9.63597e+07
9.65294e+07
9.66426e+07
9.6709e+07
9.67402e+07
9.6748e+07
9.67465e+07
9.67519e+07
9.67845e+07
9.68645e+07
9.70166e+07
9.72682e+07
9.76488e+07
9.81916e+07
9.89363e+07
9.99242e+07
1.01201e+08
1.02812e+08
1.04804e+08
1.07222e+08
1.10111e+08
1.13512e+08
1.17462e+08
1.21993e+08
1.27131e+08
1.32895e+08
1.39293e+08
1.46328e+08
1.53997e+08
1.62285e+08
1.71179e+08
1.80652e+08
1.90671e+08
2.01198e+08
2.12204e+08
2.2364e+08
2.3546e+08
2.47609e+08
2.60035e+08
2.72669e+08
2.85437e+08
2.98256e+08
3.11035e+08
3.23659e+08
3.35995e+08
3.47907e+08
3.59235e+08
3.69787e+08
3.79376e+08
3.87811e+08
3.949e+08
4.00442e+08
4.04238e+08
4.06142e+08
4.06038e+08
4.03814e+08
3.99403e+08
3.9281e+08
3.84131e+08
3.73503e+08
3.6115e+08
3.47272e+08
3.32149e+08
3.15979e+08
2.99033e+08
2.81542e+08
2.63759e+08
3.49565e+07
3.49412e+07
3.4891e+07
3.48064e+07
3.46876e+07
3.45341e+07
3.43458e+07
3.41222e+07
3.38634e+07
3.35692e+07
3.32396e+07
3.28749e+07
3.24752e+07
3.2041e+07
3.15729e+07
3.10714e+07
3.05374e+07
2.99717e+07
2.93752e+07
2.8749e+07
2.80943e+07
2.74122e+07
2.67042e+07
2.59717e+07
2.52166e+07
2.44406e+07
2.36457e+07
2.28337e+07
2.20066e+07
2.11665e+07
2.03154e+07
1.94557e+07
1.85897e+07
1.77198e+07
1.68487e+07
1.59791e+07
1.51138e+07
1.42561e+07
1.34091e+07
1.25763e+07
1.17614e+07
1.09684e+07
1.02013e+07
9.46462e+06
8.76278e+06
8.1006e+06
7.48296e+06
6.91491e+06
6.4016e+06
5.94826e+06
5.5601e+06
5.24233e+06
5.00015e+06
4.83862e+06
4.76259e+06
4.77667e+06
4.88517e+06
5.09197e+06
5.40051e+06
5.81372e+06
6.33399e+06
6.9631e+06
7.7022e+06
8.55173e+06
9.51147e+06
1.05805e+07
1.17572e+07
1.30393e+07
1.44239e+07
1.59076e+07
1.74866e+07
1.91564e+07
2.09122e+07
2.27485e+07
2.46599e+07
2.66404e+07
2.86841e+07
3.07846e+07
3.29356e+07
3.51307e+07
3.7363e+07
3.96258e+07
4.1912e+07
4.42146e+07
4.65263e+07
4.88397e+07
5.11471e+07
5.34411e+07
5.57135e+07
5.79562e+07
6.01614e+07
6.23205e+07
6.44255e+07
6.64684e+07
6.84412e+07
7.03367e+07
7.21479e+07
7.38686e+07
7.54931e+07
7.70171e+07
7.84366e+07
7.97486e+07
8.09525e+07
8.20481e+07
8.30364e+07
8.39187e+07
8.4697e+07
8.53744e+07
8.59549e+07
8.64431e+07
8.68441e+07
8.71632e+07
8.74056e+07
8.75784e+07
8.76901e+07
8.77488e+07
8.7763e+07
8.77421e+07
8.76965e+07
8.76382e+07
8.75815e+07
8.75435e+07
8.75419e+07
8.75981e+07
8.77366e+07
8.79843e+07
8.83708e+07
8.89317e+07
8.97049e+07
9.07315e+07
9.2054e+07
9.37152e+07
9.57578e+07
9.82246e+07
1.01156e+08
1.04588e+08
1.08551e+08
1.13073e+08
1.18171e+08
1.2386e+08
1.30143e+08
1.37019e+08
1.44477e+08
1.5251e+08
1.61092e+08
1.70196e+08
1.7979e+08
1.89846e+08
2.0032e+08
2.11162e+08
2.22324e+08
2.33754e+08
2.4539e+08
2.5716e+08
2.68982e+08
2.80769e+08
2.92411e+08
3.03784e+08
3.14767e+08
3.25208e+08
3.34938e+08
3.4379e+08
3.51589e+08
3.58169e+08
3.63361e+08
3.66986e+08
3.68923e+08
3.69068e+08
3.67317e+08
3.6361e+08
3.57948e+08
3.50405e+08
3.41097e+08
3.30213e+08
3.17914e+08
3.0443e+08
2.8993e+08
2.74647e+08
2.58803e+08
2.42671e+08
3.14755e+07
3.14659e+07
3.14263e+07
3.13582e+07
3.12615e+07
3.11357e+07
3.09804e+07
3.07952e+07
3.05797e+07
3.03339e+07
3.00574e+07
2.97503e+07
2.94127e+07
2.90447e+07
2.86467e+07
2.82189e+07
2.77617e+07
2.72758e+07
2.67617e+07
2.62202e+07
2.56521e+07
2.50582e+07
2.44397e+07
2.37977e+07
2.31336e+07
2.24488e+07
2.17448e+07
2.10232e+07
2.02854e+07
1.95333e+07
1.87687e+07
1.79933e+07
1.72094e+07
1.64189e+07
1.56244e+07
1.48281e+07
1.40328e+07
1.32412e+07
1.24564e+07
1.16817e+07
1.09206e+07
1.0177e+07
9.45465e+06
8.75789e+06
8.09116e+06
7.45912e+06
6.8666e+06
6.31855e+06
5.82003e+06
5.37618e+06
4.99218e+06
4.67319e+06
4.42434e+06
4.25065e+06
4.15692e+06
4.14768e+06
4.22715e+06
4.3991e+06
4.66688e+06
5.0333e+06
5.50064e+06
6.0706e+06
6.74422e+06
7.52187e+06
8.40325e+06
9.38736e+06
1.04726e+07
1.16566e+07
1.29366e+07
1.43091e+07
1.57703e+07
1.7316e+07
1.89413e+07
2.06411e+07
2.24101e+07
2.42424e+07
2.61323e+07
2.80737e+07
3.00603e+07
3.2086e+07
3.41445e+07
3.6229e+07
3.83329e+07
4.04492e+07
4.25711e+07
4.46915e+07
4.68032e+07
4.88988e+07
5.09709e+07
5.30118e+07
5.50141e+07
5.69702e+07
5.88727e+07
6.07142e+07
6.24878e+07
6.41868e+07
6.58051e+07
6.73376e+07
6.87795e+07
7.01272e+07
7.13775e+07
7.25282e+07
7.3579e+07
7.453e+07
7.53826e+07
7.61382e+07
7.67989e+07
7.73678e+07
7.78484e+07
7.82453e+07
7.85629e+07
7.88052e+07
7.89775e+07
7.90856e+07
7.91367e+07
7.91377e+07
7.90963e+07
7.90202e+07
7.89188e+07
7.88021e+07
7.8683e+07
7.85758e+07
7.84955e+07
7.84607e+07
7.8493e+07
7.86168e+07
7.88588e+07
7.92506e+07
7.9826e+07
8.06218e+07
8.16767e+07
8.30314e+07
8.47258e+07
8.68002e+07
8.92938e+07
9.22419e+07
9.56752e+07
9.96202e+07
1.04099e+08
1.09125e+08
1.14706e+08
1.20845e+08
1.27534e+08
1.34766e+08
1.42523e+08
1.5078e+08
1.5951e+08
1.68685e+08
1.78265e+08
1.88203e+08
1.98445e+08
2.08947e+08
2.19649e+08
2.30477e+08
2.41356e+08
2.52195e+08
2.62892e+08
2.73332e+08
2.83401e+08
2.92962e+08
3.01867e+08
3.09962e+08
3.17091e+08
3.2311e+08
3.27883e+08
3.31247e+08
3.33108e+08
3.33379e+08
3.31968e+08
3.28824e+08
3.23944e+08
3.17386e+08
3.09247e+08
2.99686e+08
2.88832e+08
2.76869e+08
2.63941e+08
2.50243e+08
2.35983e+08
2.21447e+08
2.84751e+07
2.84696e+07
2.84387e+07
2.83845e+07
2.83067e+07
2.82047e+07
2.8078e+07
2.7926e+07
2.77483e+07
2.75445e+07
2.73143e+07
2.70574e+07
2.67738e+07
2.64633e+07
2.61261e+07
2.5762e+07
2.53715e+07
2.49546e+07
2.45118e+07
2.40434e+07
2.35501e+07
2.30324e+07
2.24911e+07
2.19271e+07
2.13415e+07
2.07353e+07
2.01096e+07
1.94657e+07
1.88049e+07
1.81285e+07
1.74382e+07
1.67354e+07
1.6022e+07
1.52998e+07
1.4571e+07
1.38377e+07
1.31023e+07
1.23675e+07
1.16362e+07
1.09115e+07
1.01966e+07
9.49532e+06
8.81136e+06
8.14887e+06
7.5122e+06
6.90592e+06
6.3348e+06
5.80369e+06
5.31757e+06
4.88153e+06
4.50068e+06
4.18014e+06
3.92499e+06
3.74016e+06
3.63038e+06
3.60009e+06
3.65342e+06
3.79406e+06
4.02523e+06
4.34961e+06
4.76936e+06
5.28604e+06
5.90057e+06
6.61321e+06
7.42354e+06
8.33049e+06
9.33235e+06
1.04268e+07
1.1611e+07
1.28814e+07
1.42342e+07
1.56653e+07
1.717e+07
1.87431e+07
2.03795e+07
2.20736e+07
2.38195e+07
2.56115e+07
2.74436e+07
2.93096e+07
3.12036e+07
3.31192e+07
3.505e+07
3.69893e+07
3.89305e+07
4.08669e+07
4.27916e+07
4.46977e+07
4.65782e+07
4.84262e+07
5.02346e+07
5.19964e+07
5.37051e+07
5.53539e+07
5.69365e+07
5.84474e+07
5.98812e+07
6.12336e+07
6.25009e+07
6.36799e+07
6.47684e+07
6.57647e+07
6.66687e+07
6.74809e+07
6.82029e+07
6.88361e+07
6.93825e+07
6.98452e+07
7.02278e+07
7.05339e+07
7.07674e+07
7.0932e+07