/*--------------------------------*- C++ -*----------------------------------*\
| =========                 |                                                 |
| \\      /  F ield         | OpenFOAM: The Open Source CFD Toolbox           |
|  \\    /   O peration     | Version:  dev                                   |
|   \\  /    A nd           | Web:      http://www.openfoam.org               |
|    \\/     M anipulation  |                                                 |
\*---------------------------------------------------------------------------*/
FoamFile
{
    version     2.0;
    format      ascii;
    class       volScalarField;
    object      rho;
    location    "9.161";
}
// * * * * * * * * * * * * * * * * * * * * * * * * * * * * * * * * * * * * * //

dimensions      [1 -3 0 0 0 0 0];

internalField   nonuniform List<scalar> 
12225
(
1.12867
1.13134
1.13146
1.13106
1.13113
1.13058
1.13071
1.13032
1.13043
1.13031
1.13059
1.13044
1.1311
1.12967
1.13222
1.12789
1.13652
1.13244
1.13058
1.13426
1.13441
1.13401
1.13399
1.13363
1.13309
1.1331
1.13208
1.13244
1.13182
1.13159
1.13277
1.12908
1.13509
1.12293
1.13556
1.134
1.13069
1.13419
1.1346
1.13447
1.13448
1.13464
1.13378
1.13443
1.13276
1.13399
1.13199
1.13403
1.132
1.13392
1.13496
1.13172
1.13767
1.13294
1.13091
1.1339
1.13428
1.13433
1.13442
1.1347
1.13429
1.13449
1.13385
1.1341
1.13329
1.13365
1.13302
1.13331
1.13342
1.13396
1.13679
1.13416
1.1303
1.13421
1.13425
1.13454
1.1343
1.13463
1.13402
1.1344
1.13357
1.13409
1.13307
1.13368
1.13276
1.13318
1.13202
1.1338
1.1319
1.13245
1.13007
1.13401
1.13424
1.1341
1.13461
1.13354
1.13447
1.13334
1.13412
1.13305
1.13339
1.13287
1.13337
1.13207
1.13422
1.13063
1.13304
1.13523
1.12981
1.13424
1.13328
1.13466
1.13318
1.13403
1.13354
1.13394
1.13324
1.13369
1.13256
1.13369
1.13276
1.13337
1.13385
1.13299
1.13473
1.13472
1.12956
1.13309
1.13331
1.13365
1.13321
1.13306
1.13345
1.13275
1.13335
1.13232
1.13292
1.13255
1.13318
1.1324
1.13298
1.13269
1.13328
1.13275
1.12906
1.13229
1.1332
1.13295
1.13307
1.13298
1.13283
1.13292
1.13272
1.13277
1.1324
1.13304
1.13296
1.13272
1.13275
1.13283
1.13333
1.13324
1.1283
1.13233
1.13239
1.13222
1.13271
1.13224
1.13245
1.13199
1.13237
1.13202
1.13234
1.13195
1.13222
1.13181
1.13228
1.13202
1.13266
1.1328
1.12734
1.13174
1.13114
1.13165
1.13148
1.1314
1.13148
1.13131
1.13121
1.13129
1.13127
1.13112
1.13095
1.13127
1.13165
1.13165
1.13186
1.13211
1.12684
1.13052
1.12991
1.13059
1.13019
1.13063
1.13019
1.13021
1.13011
1.13041
1.13039
1.13025
1.12998
1.13026
1.13058
1.13088
1.13101
1.13125
1.12575
1.12881
1.12902
1.12929
1.12911
1.12952
1.12909
1.12936
1.12903
1.12909
1.12899
1.12892
1.12885
1.12894
1.12943
1.12977
1.12977
1.13003
1.12382
1.12704
1.1278
1.12731
1.12771
1.12768
1.12746
1.12757
1.12733
1.12755
1.12752
1.12742
1.12756
1.1276
1.1281
1.12834
1.12881
1.12899
1.12131
1.12529
1.12563
1.12515
1.12576
1.12533
1.12543
1.12533
1.12519
1.12531
1.12541
1.12542
1.12571
1.12577
1.12623
1.12641
1.12709
1.12725
1.11857
1.12306
1.12272
1.12272
1.123
1.12267
1.12285
1.12268
1.12277
1.12285
1.12302
1.12334
1.12363
1.12376
1.12441
1.12465
1.12525
1.12557
1.11535
1.11968
1.11935
1.11976
1.11951
1.11965
1.11956
1.11959
1.11964
1.11989
1.12006
1.12045
1.12078
1.12128
1.12176
1.12209
1.12293
1.12338
1.11116
1.11577
1.11611
1.11625
1.11614
1.11652
1.11622
1.1166
1.11648
1.11697
1.11699
1.11761
1.11784
1.11851
1.11901
1.11967
1.1204
1.12106
1.10743
1.11261
1.11295
1.11278
1.11317
1.11332
1.11334
1.11375
1.11381
1.11429
1.11443
1.11504
1.11538
1.1163
1.11672
1.11769
1.11847
1.11935
1.10486
1.11019
1.11017
1.11049
1.11077
1.11098
1.1112
1.11146
1.11189
1.11219
1.1128
1.11331
1.11399
1.11474
1.11537
1.11624
1.11698
1.11797
1.10233
1.10774
1.10806
1.10859
1.10896
1.10901
1.10936
1.10962
1.11002
1.11067
1.11119
1.11181
1.11271
1.11329
1.11423
1.11501
1.11592
1.11687
1.10049
1.10621
1.10662
1.10699
1.10735
1.10772
1.10806
1.10832
1.10892
1.10928
1.10991
1.11065
1.11124
1.1122
1.11303
1.11397
1.1151
1.11602
1.0993
1.10497
1.10533
1.10572
1.10618
1.10663
1.10686
1.10754
1.10787
1.10852
1.10919
1.10976
1.11067
1.11141
1.1124
1.11338
1.1144
1.11553
1.09836
1.10406
1.1043
1.10485
1.10533
1.10569
1.10631
1.10664
1.10724
1.10784
1.10845
1.10931
1.11004
1.111
1.11194
1.1129
1.11404
1.11504
1.09742
1.10326
1.10362
1.10403
1.10465
1.10527
1.10574
1.10631
1.10683
1.10739
1.10809
1.1088
1.10967
1.11057
1.11156
1.11262
1.1137
1.11483
1.09685
1.10286
1.10317
1.10368
1.10424
1.10477
1.10531
1.10582
1.1064
1.10701
1.10773
1.10853
1.10941
1.11038
1.1114
1.11248
1.11358
1.11472
1.09681
1.10252
1.10279
1.10325
1.10382
1.10438
1.10494
1.10553
1.10615
1.10681
1.10752
1.10828
1.10912
1.11003
1.11102
1.11207
1.11317
1.11431
1.09626
1.10233
1.10259
1.103
1.10356
1.10409
1.10464
1.10521
1.10582
1.10647
1.10716
1.10792
1.10876
1.10967
1.11066
1.1117
1.1128
1.11392
1.09608
1.10226
1.10252
1.10285
1.1033
1.10376
1.10421
1.10469
1.10523
1.10585
1.10654
1.10734
1.10821
1.10916
1.11016
1.11123
1.11231
1.11344
1.09427
1.09954
1.09986
1.10024
1.10072
1.10122
1.10174
1.10233
1.10301
1.10377
1.10462
1.10556
1.10657
1.10764
1.10877
1.10995
1.11113
1.11241
1.14888
1.16764
1.17758
1.18299
1.18603
1.188
1.18954
1.19088
1.192
1.19305
1.19362
1.19415
1.19452
1.1941
1.19333
1.19243
1.19087
1.18858
1.1865
1.1847
1.18207
1.17822
1.17398
1.17038
1.16718
1.16528
1.16332
1.15819
1.15256
1.1507
1.15381
1.15974
1.16199
1.15679
1.14998
1.14738
1.14719
1.14082
1.13022
1.12742
1.13017
1.13072
1.12974
1.12879
1.12804
1.12742
1.12688
1.12638
1.12593
1.12551
1.12514
1.1248
1.1245
1.1242
1.12391
1.12361
1.12331
1.12302
1.12272
1.1224
1.12206
1.12173
1.12139
1.12104
1.12066
1.12028
1.11984
1.11938
1.11889
1.11837
1.11782
1.11728
1.11678
1.11626
1.11575
1.11524
1.11481
1.11438
1.11405
1.11396
1.11408
1.11418
1.11398
1.11355
1.11251
1.11087
1.10916
1.10742
1.10601
1.10531
1.10515
1.10522
1.10497
1.10464
1.10424
1.1041
1.10384
1.10364
1.103
1.10207
1.10131
1.10177
1.1039
1.10672
1.11075
1.11499
1.11941
1.1237
1.12484
1.12558
1.12351
1.12217
1.11853
1.10977
1.09934
1.08586
1.0826
1.0906
1.09602
1.0887
1.07926
1.09366
1.10024
1.0947
1.0935
1.09326
1.10685
1.11745
1.11531
1.10119
1.11857
1.11584
1.11843
1.11687
1.11289
1.10773
1.10193
1.09591
1.09082
1.08595
1.08112
1.07642
1.07092
1.06504
1.06076
1.05919
1.05925
1.06101
1.06326
1.06627
1.06872
1.07374
1.07742
1.08275
1.08674
1.09531
1.09855
1.09128
1.08746
1.08202
1.08761
1.09631
1.0947
1.06917
1.04633
1.03066
1.03475
1.03927
1.03532
1.00708
0.98434
1.00912
1.04919
1.03988
1.03263
1.03408
1.0281
1.02334
1.00784
0.99225
1.14961
1.17031
1.17859
1.17996
1.17965
1.18003
1.18157
1.18396
1.18667
1.18932
1.19264
1.19575
1.19974
1.20322
1.20664
1.20961
1.21117
1.21271
1.2132
1.21468
1.21541
1.21266
1.2105
1.20894
1.20591
1.20312
1.20193
1.1998
1.19182
1.18527
1.18236
1.19142
1.19856
1.18639
1.16388
1.14522
1.13642
1.13267
1.13046
1.12951
1.12862
1.12756
1.12666
1.12609
1.12572
1.12538
1.12522
1.12523
1.12514
1.12526
1.12525
1.12528
1.12519
1.12509
1.12498
1.12488
1.12483
1.12473
1.12451
1.12413
1.12375
1.12338
1.12298
1.12249
1.12198
1.12143
1.12068
1.11992
1.11907
1.11816
1.11702
1.11601
1.11508
1.11403
1.11315
1.11227
1.11157
1.11088
1.11031
1.11043
1.11143
1.11339
1.115
1.11782
1.11971
1.11782
1.11435
1.1097
1.10412
1.10082
1.10086
1.10604
1.11178
1.11546
1.11709
1.119
1.12056
1.12216
1.1244
1.12324
1.12392
1.13039
1.13484
1.1316
1.13532
1.15131
1.16398
1.16556
1.15893
1.15593
1.15143
1.14763
1.15982
1.16281
1.13507
1.11934
1.11459
1.10978
1.11405
1.10707
1.10162
1.10172
1.09122
1.08366
1.08307
1.09873
1.11611
1.10681
1.0954
1.07534
1.10566
1.09531
1.11828
1.1278
1.13795
1.14312
1.14308
1.1372
1.12778
1.11984
1.11378
1.11198
1.11327
1.10877
1.10296
1.1032
1.10431
1.10356
1.10281
1.10755
1.11334
1.12851
1.14215
1.16471
1.17936
1.20591
1.22839
1.21317
1.21048
1.1936
1.2017
1.23705
1.23929
1.1676
1.12331
1.11781
1.11635
1.07756
1.04849
0.987758
0.999915
0.957584
1.0595
1.13764
1.16082
1.17634
1.17728
1.18174
1.16648
1.12766
1.14451
1.15677
1.15828
1.15692
1.15738
1.15992
1.16413
1.16832
1.17129
1.17314
1.17554
1.177
1.17978
1.18303
1.18589
1.18937
1.19187
1.19473
1.20052
1.20653
1.20778
1.20946
1.21106
1.2105
1.21531
1.21706
1.21424
1.20805
1.21261
1.2308
1.21487
1.16944
1.14302
1.13741
1.13252
1.12846
1.12719
1.12653
1.12665
1.12695
1.1272
1.12783
1.12866
1.12918
1.13001
1.1306
1.13088
1.13124
1.13163
1.13182
1.13184
1.13182
1.13163
1.13138
1.13108
1.1309
1.13065
1.13051
1.1303
1.12982
1.12952
1.12929
1.12903
1.1285
1.12815
1.12762
1.12692
1.12614
1.12535
1.12442
1.12305
1.1214
1.11977
1.118
1.1162
1.11435
1.11237
1.11064
1.10859
1.10652
1.10464
1.10392
1.10368
1.1055
1.10878
1.10951
1.10782
1.10574
1.0995
1.09128
1.08335
1.08577
1.09522
1.10266
1.10618
1.10617
1.11567
1.12333
1.12288
1.12033
1.1235
1.12432
1.12329
1.13066
1.13829
1.14482
1.15702
1.16
1.14794
1.14061
1.13751
1.13543
1.14287
1.14144
1.12829
1.11735
1.12339
1.13507
1.12783
1.11904
1.13215
1.1282
1.10377
1.09892
1.10004
1.11116
1.10789
1.08319
1.08437
1.0777
1.06676
1.05536
1.06608
1.07009
1.08041
1.08917
1.09624
1.09775
1.08752
1.07444
1.06373
1.06505
1.08565
1.1003
1.09814
1.09849
1.10419
1.11296
1.12037
1.12482
1.12826
1.13976
1.15457
1.18566
1.21337
1.23227
1.24787
1.24961
1.27189
1.26037
1.29094
1.32655
1.288
1.19899
1.1775
1.16685
1.15396
1.10211
1.03842
1.03979
1.08992
1.09257
0.98214
1.10858
1.18628
1.21747
1.22167
1.19994
1.20844
1.21869
1.14091
1.14872
1.15051
1.15511
1.16214
1.16948
1.17762
1.1855
1.1899
1.19256
1.19345
1.19356
1.19481
1.19445
1.19158
1.19002
1.18964
1.19272
1.19815
1.20225
1.20451
1.2052
1.20962
1.22303
1.22358
1.21127
1.22468
1.23273
1.19668
1.15752
1.14504
1.13785
1.13376
1.13348
1.13269
1.13284
1.13329
1.13395
1.13439
1.13491
1.1356
1.13577
1.13591
1.13602
1.13548
1.13496
1.1344
1.13335
1.13233
1.13103
1.13003
1.12876
1.12765
1.12687
1.12602
1.12528
1.12468
1.12414
1.12377
1.12358
1.12353
1.12363
1.12378
1.12375
1.1239
1.12376
1.12381
1.12356
1.12368
1.12383
1.12406
1.12363
1.12312
1.12275
1.12194
1.12092
1.11952
1.11868
1.11704
1.11602
1.11373
1.11147
1.1093
1.10701
1.10483
1.10356
1.1024
1.10289
1.10493
1.10325
1.09585
1.09237
1.09909
1.10589
1.10116
1.08492
1.09102
1.10768
1.10686
1.10078
1.10819
1.10785
1.10086
1.09706
1.0882
1.08911
1.11381
1.13847
1.14406
1.15006
1.15281
1.14638
1.14729
1.14268
1.12955
1.1264
1.13843
1.142
1.13996
1.12999
1.12867
1.11825
1.10426
1.10894
1.11629
1.12592
1.09589
1.07472
1.09411
1.08742
1.07504
1.06667
1.07101
1.06997
1.07157
1.07435
1.07999
1.08608
1.08357
1.07882
1.06868
1.04503
1.03673
1.06156
1.08405
1.08815
1.08917
1.09627
1.11056
1.12212
1.13605
1.13857
1.15108
1.18122
1.21941
1.20658
1.17387
1.19749
1.26314
1.30168
1.35325
1.34651
1.26388
1.1937
1.19913
1.19938
1.15405
1.14516
1.10286
1.09101
1.06661
1.16698
0.990215
1.0894
1.16652
1.15709
1.19782
1.15959
1.11729
1.11408
1.13851
1.143
1.14841
1.16027
1.17169
1.18046
1.18785
1.19481
1.19906
1.201
1.20215
1.20273
1.20069
1.19887
1.19744
1.19478
1.19481
1.19725
1.20098
1.20711
1.20974
1.1976
1.18686
1.19695
1.20911
1.20478
1.18979
1.17047
1.15355
1.14361
1.13989
1.13739
1.13531
1.134
1.13318
1.133
1.13289
1.13271
1.13265
1.13253
1.13229
1.13246
1.13202
1.13163
1.13117
1.13027
1.12947
1.12834
1.12729
1.12616
1.12505
1.12404
1.1232
1.12255
1.12221
1.12194
1.12172
1.12139
1.12088
1.12055
1.12007
1.1195
1.11891
1.11835
1.11769
1.11712
1.11664
1.11564
1.11498
1.11469
1.1144
1.11387
1.11374
1.11347
1.11339
1.11258
1.11172
1.11265
1.10965
1.11039
1.10766
1.10891
1.10993
1.11128
1.11196
1.10977
1.10506
1.09682
1.09331
1.09338
1.09553
1.09798
1.09918
1.1036
1.10556
1.08763
1.07643
1.08898
1.08846
1.07045
1.07668
1.08438
1.07903
1.07669
1.06881
1.06037
1.05822
1.07118
1.09785
1.12145
1.12549
1.12272
1.13469
1.14131
1.13862
1.14285
1.14914
1.14547
1.15984
1.16014
1.13562
1.11542
1.10378
1.09388
1.10007
1.10639
1.07326
1.07611
1.06427
1.06213
1.05903
1.04622
1.05591
1.05724
1.05394
1.04549
1.05027
1.06924
1.08803
1.0915
1.09049
1.08367
1.05599
1.04332
1.06438
1.08055
1.07392
1.06817
1.08696
1.1019
1.1354
1.14018
1.14118
1.14985
1.20713
1.20301
1.13602
1.13327
1.22464
1.32614
1.37598
1.3261
1.23472
1.19315
1.22909
1.28158
1.24026
1.13282
1.16516
1.11565
1.03518
0.992714
1.0288
1.04218
1.13426
1.10597
1.14293
1.16283
1.11845
1.06302
1.13765
1.14262
1.15656
1.17375
1.18504
1.19294
1.19951
1.20482
1.20646
1.20426
1.20042
1.19618
1.19195
1.18977
1.18802
1.18518
1.18633
1.18052
1.16714
1.16268
1.17638
1.19034
1.18835
1.18486
1.17972
1.16985
1.1588
1.14802
1.14105
1.1363
1.13303
1.13151
1.13116
1.13175
1.13318
1.13475
1.13585
1.13728
1.13848
1.13942
1.14012
1.14044
1.14024
1.1399
1.13911
1.13819
1.13667
1.135
1.13367
1.13217
1.13117
1.13048
1.13004
1.12977
1.1299
1.12986
1.12968
1.12961
1.12922
1.12886
1.12809
1.1274
1.12629
1.12494
1.12312
1.12124
1.11959
1.11781
1.11584
1.11528
1.11415
1.11285
1.11243
1.11114
1.11063
1.1089
1.10703
1.10902
1.10358
1.10686
1.10159
1.09966
1.09994
1.10137
1.10527
1.10965
1.11236
1.10839
1.10093
1.09634
1.09178
1.09213
1.09304
1.08918
1.0882
1.08736
1.07891
1.0802
1.07968
1.0605
1.06135
1.07524
1.07064
1.05429
1.05111
1.05314
1.05198
1.05997
1.07675
1.08742
1.09788
1.10981
1.12867
1.14001
1.14318
1.14733
1.1506
1.14099
1.15301
1.16484
1.13101
1.10017
1.08764
1.08275
1.08712
1.09222
1.09503
1.10177
1.08723
1.07367
1.07792
1.04994
1.06107
1.05534
1.06674
1.04734
1.03143
1.03399
1.05347
1.06539
1.05782
1.05645
1.05511
1.03729
1.04357
1.0754
1.08209
1.05542
1.05287
1.06592
1.11065
1.12692
1.14204
1.1461
1.18733
1.20516
1.14258
1.10916
1.18951
1.32306
1.37232
1.30148
1.23066
1.21903
1.25999
1.27383
1.29432
1.1535
1.13446
1.1622
1.09128
1.06993
1.07046
1.02449
1.10265
1.0729
1.05542
1.08823
1.11771
1.09614
1.13855
1.14822
1.16805
1.18155
1.18678
1.19256
1.19843
1.20264
1.19884
1.19153
1.18676
1.17957
1.16854
1.15424
1.14573
1.14652
1.15388
1.15986
1.15558
1.15462
1.1635
1.16773
1.16584
1.16349
1.15741
1.15072
1.14356
1.13755
1.13437
1.1327
1.13335
1.13533
1.13822
1.14121
1.14357
1.1451
1.14611
1.14655
1.14586
1.14532
1.14439
1.14328
1.14178
1.14016
1.13822
1.13655
1.13514
1.13362
1.13254
1.13214
1.13211
1.13191
1.1323
1.13252
1.13257
1.13242
1.13217
1.13205
1.13166
1.13137
1.13113
1.13122
1.13115
1.13057
1.12954
1.12725
1.12436
1.12128
1.11761
1.11613
1.11372
1.11221
1.11174
1.11072
1.11014
1.10945
1.10755
1.10909
1.10162
1.10464
1.10364
1.10063
1.0974
1.09499
1.09339
1.09409
1.10008
1.10375
1.10041
1.09578
1.0914
1.08778
1.09168
1.09223
1.08598
1.09031
1.09144
1.08964
1.08917
1.07024
1.05429
1.05794
1.06611
1.06222
1.06008
1.05703
1.05114
1.05874
1.06651
1.07115
1.08611
1.10533
1.1254
1.13864
1.14212
1.14155
1.15168
1.14381
1.13742
1.14329
1.12231
1.1074
1.12726
1.1418
1.10686
1.10363
1.10777
1.07844
1.06286
1.04666
1.06442
1.03511
1.05053
1.02496
1.04354
1.05707
1.0569
1.04737
1.04973
1.05373
1.05744
1.05802
1.06431
1.053
1.03616
1.0538
1.07371
1.06084
1.05975
1.0575
1.08877
1.11811
1.15875
1.13978
1.18348
1.22252
1.14585
1.09922
1.17679
1.32071
1.36078
1.28402
1.24059
1.24233
1.27364
1.20278
1.18621
1.28172
1.27856
1.14756
1.06405
1.09735
1.05753
1.02566
1.04705
1.04288
1.02103
1.00741
1.04598
1.07691
1.14011
1.15314
1.17148
1.17932
1.18561
1.19393
1.19604
1.19483
1.18848
1.18009
1.16348
1.14566
1.13934
1.14112
1.14422
1.14597
1.15108
1.15507
1.15546
1.15717
1.15695
1.1556
1.15303
1.14877
1.14332
1.13965
1.13535
1.1343
1.13514
1.13758
1.14161
1.14466
1.14777
1.14869
1.14808
1.14687
1.14502
1.14347
1.1424
1.14173
1.14089
1.14007
1.13917
1.13854
1.13811
1.13786
1.13759
1.13793
1.13837
1.13836
1.13855
1.13844
1.13789
1.13741
1.13681
1.13611
1.13536
1.13472
1.13407
1.13361
1.13371
1.13346
1.13427
1.13482
1.13565
1.13509
1.13359
1.13069
1.12674
1.12452
1.12149
1.11935
1.11756
1.11572
1.11273
1.11141
1.10999
1.1122
1.10609
1.1041
1.10195
1.10062
1.10173
1.10047
1.09688
1.09069
1.09025
1.0963
1.09959
1.09812
1.09063
1.08447
1.08539
1.09202
1.08954
1.09309
1.09682
1.08981
1.08666
1.07819
1.06683
1.05618
1.05301
1.04565
1.05392
1.06369
1.06326
1.06862
1.06837
1.06055
1.07701
1.0988
1.12158
1.13733
1.13774
1.13645
1.15413
1.15996
1.14526
1.13491
1.12809
1.13507
1.16565
1.13194
1.07582
1.07383
1.0875
1.08876
1.06648
1.06811
1.0724
1.0585
1.06146
1.04382
1.02609
1.03516
1.04966
1.05219
1.06743
1.05846
1.0546
1.05367
1.05593
1.06623
1.04655
1.04863
1.07157
1.06245
1.06495
1.04926
1.07474
1.12006
1.1601
1.07173
1.15095
1.2326
1.13532
1.07741
1.1639
1.31576
1.3448
1.27722
1.24961
1.26366
1.27577
1.17045
1.12049
1.2651
1.49252
1.14134
1.07147
1.06133
1.06554
1.03451
1.00477
1.02747
1.04024
1.01548
1.05095
1.09283
1.14099
1.15444
1.17242
1.18172
1.19361
1.20112
1.19628
1.19051
1.18005
1.16258
1.14253
1.13604
1.14465
1.15053
1.15028
1.14316
1.14004
1.14434
1.14712
1.14927
1.14851
1.14784
1.14555
1.14201
1.13985
1.13762
1.13744
1.13955
1.14232
1.14575
1.14829
1.1492
1.14879
1.14725
1.14613
1.14529
1.14611
1.14696
1.14775
1.14806
1.14749
1.14729
1.1468
1.14637
1.1453
1.14448
1.14342
1.14171
1.14038
1.13881
1.13708
1.13573
1.13431
1.13339
1.13266
1.13237
1.13229
1.13213
1.1321
1.13155
1.13218
1.13244
1.1333
1.1336
1.13517
1.13559
1.13536
1.13228
1.12829
1.12409
1.12144
1.11992
1.11898
1.11882
1.11676
1.11411
1.11097
1.11125
1.11032
1.10837
1.10534
1.09809
1.09191
1.09297
1.09509
1.09201
1.08451
1.0852
1.08792
1.0946
1.09188
1.08651
1.08229
1.08543
1.08605
1.08867
1.0949
1.087
1.07436
1.06065
1.05617
1.05283
1.05144
1.04383
1.04515
1.05469
1.0544
1.0674
1.07389
1.06108
1.07404
1.09679
1.11578
1.13422
1.1321
1.12967
1.15214
1.17239
1.16047
1.15283
1.15052
1.1568
1.16342
1.10402
1.07583
1.07675
1.08099
1.08589
1.07556
1.06202
1.05086
1.05017
1.03339
1.04702
1.03951
1.05006
1.0553
1.04202
1.05824
1.0713
1.06608
1.07328
1.05935
1.06814
1.05645
1.04458
1.06892
1.06712
1.07133
1.04315
1.07484
1.12492
1.12847
0.992791
1.08098
1.21594
1.12
1.05501
1.14154
1.31357
1.33031
1.28161
1.26387
1.28842
1.28415
1.18242
1.17628
1.24674
1.37792
1.12076
1.06008
1.07225
1.07788
1.06568
1.03639
1.04512
1.06117
1.04373
1.07247
1.11823
1.14178
1.15691
1.17618
1.18418
1.19516
1.19911
1.18858
1.17694
1.16241
1.14494
1.13382
1.13889
1.14197
1.13771
1.14664
1.14976
1.14628
1.14895
1.14671
1.1463
1.14381
1.14032
1.13857
1.13676
1.13666
1.1384
1.14192
1.14578
1.14879
1.15158
1.15204
1.15132
1.15016
1.14825
1.14811
1.14809
1.14903
1.14936
1.14852
1.14729
1.14556
1.14456
1.14289
1.1411
1.13987
1.13851
1.13697
1.13545
1.13411
1.13289
1.13197
1.13168
1.13164
1.13212
1.1328
1.13345
1.13422
1.13409
1.13414
1.13281
1.13201
1.13215
1.13273
1.13356
1.13489
1.13712
1.1406
1.14149
1.13985
1.13371
1.1269
1.12217
1.11813
1.11435
1.11378
1.111
1.10961
1.10622
1.1062
1.10284
1.10659
1.11311
1.10537
1.09713
1.09337
1.09375
1.08863
1.08613
1.08272
1.08597
1.08687
1.08426
1.07967
1.08115
1.08497
1.0847
1.08863
1.08742
1.07711
1.06155
1.05671
1.05259
1.0495
1.04086
1.03832
1.05392
1.05182
1.05801
1.07319
1.06129
1.07001
1.09236
1.11337
1.13016
1.12783
1.12051
1.14345
1.16445
1.16962
1.17134
1.16038
1.15287
1.13984
1.11533
1.08047
1.07422
1.08619
1.09157
1.08236
1.06755
1.06656
1.07748
1.05081
1.0398
1.02702
1.04613
1.05729
1.04172
1.04122
1.06833
1.06397
1.08019
1.07577
1.07997
1.07646
1.04644
1.06517
1.07131
1.0725
1.04015
1.08164
1.12244
1.09139
0.961223
1.0229
1.18745
1.10005
1.04569
1.13049
1.30736
1.31992
1.28711
1.28328
1.31561
1.28266
1.2117
1.22995
1.2491
1.2797
1.16681
1.08012
1.0878
1.09037
1.09027
1.07409
1.07417
1.08173
1.07547
1.08777
1.12321
1.14253
1.15808
1.17471
1.17907
1.18785
1.18775
1.17162
1.15449
1.13842
1.13396
1.13609
1.14321
1.14763
1.14129
1.14088
1.14109
1.13969
1.14487
1.14386
1.14322
1.14321
1.14338
1.14268
1.14363
1.14642
1.14858
1.1518
1.15357
1.15427
1.15366
1.15149
1.14935
1.14743
1.14701
1.14816
1.14995
1.15097
1.15001
1.14771
1.14559
1.14439
1.14387
1.14283
1.14163
1.14038
1.13918
1.13762
1.13583
1.13439
1.13336
1.13275
1.13283
1.13326
1.13365
1.1342
1.13406
1.13514
1.13521
1.13513
1.13295
1.12965
1.12809
1.12664
1.12731
1.126
1.12504
1.1262
1.13026
1.13495
1.13841
1.13668
1.13264
1.13097
1.12545
1.1213
1.11591
1.11493
1.10323
1.10666
1.09986
1.08996
1.09628
1.09954
1.09804
1.09181
1.09221
1.08996
1.08516
1.07953
1.0831
1.09072
1.08968
1.08103
1.07392
1.07508
1.07744
1.08496
1.09123
1.08464
1.07235
1.0649
1.05887
1.05013
1.03981
1.03309
1.05741
1.06701
1.05729
1.07339
1.06517
1.06929
1.09101
1.11097
1.12786
1.12702
1.1174
1.13013
1.14699
1.15721
1.16865
1.15067
1.1311
1.11507
1.09469
1.0716
1.04413
1.05789
1.07812
1.0762
1.05619
1.04403
1.04903
1.05988
1.04759
1.03348
1.0484
1.05381
1.0713
1.06738
1.0903
1.09365
1.09725
1.09287
1.08683
1.08917
1.04929
1.06032
1.07587
1.0718
1.0352
1.07741
1.11806
1.07925
0.956419
0.988952
1.18547
1.0892
1.05238
1.14112
1.31349
1.31129
1.2823
1.2953
1.32027
1.27279
1.23718
1.26415
1.27317
1.28729
1.15489
1.04885
1.05557
1.08571
1.0985
1.09351
1.09869
1.09768
1.09818
1.09473
1.12616
1.14215
1.15562
1.17126
1.17424
1.17849
1.17539
1.15888
1.14554
1.1334
1.13624
1.14069
1.13731
1.13991
1.14088
1.14436
1.14669
1.14712
1.14727
1.14442
1.14176
1.14085
1.13858
1.13986
1.14153
1.14457
1.14749
1.15007
1.15054
1.14994
1.14922
1.14711
1.14689
1.1461
1.14687
1.14877
1.14981
1.14978
1.1482
1.14606
1.1451
1.14577
1.14629
1.14566
1.14376
1.14129
1.1389
1.13617
1.13385
1.13223
1.13173
1.13215
1.13307
1.1342
1.13488
1.13648
1.13632
1.13672
1.13694
1.13837
1.13826
1.13659
1.13497
1.13373
1.13513
1.1357
1.13333
1.12871
1.1267
1.12743
1.12948
1.13179
1.13025
1.12817
1.12839
1.12492
1.11609
1.12338
1.11059
1.10942
1.1099
1.10241
1.09818
1.09691
1.09582
1.08899
1.08919
1.0945
1.08985
1.07736
1.07329
1.08336
1.08751
1.08162
1.073
1.06974
1.07441
1.08415
1.08957
1.08061
1.0681
1.0593
1.05299
1.04585
1.04476
1.03529
1.0548
1.07803
1.06598
1.0766
1.06918
1.06491
1.08528
1.10433
1.12558
1.12447
1.11332
1.11766
1.12386
1.14015
1.14078
1.13326
1.10613
1.08024
1.08357
1.05614
1.05997
1.07872
1.0862
1.08619
1.07841
1.07167
1.07364
1.06543
1.03694
1.02129
1.04564
1.03617
1.07276
1.06981
1.08538
1.10919
1.11368
1.11738
1.10476
1.10438
1.05897
1.05193
1.07625
1.06938
1.0368
1.07953
1.1154
1.09257
0.977188
0.956099
1.19267
1.09256
1.06354
1.12767
1.31762
1.31127
1.27842
1.30739
1.29036
1.26477
1.25273
1.19486
1.28395
1.25974
1.15829
1.07674
1.08229
1.10977
1.11772
1.10984
1.12194
1.11821
1.11733
1.09823
1.13121
1.14128
1.15321
1.16881
1.16968
1.17027
1.16727
1.14891
1.13945
1.13172
1.13357
1.14285
1.14226
1.14034
1.14246
1.14072
1.14051
1.14119
1.14225
1.14445
1.14493
1.1451
1.14594
1.14809
1.15028
1.15315
1.15524
1.15625
1.15614
1.15402
1.15247
1.14971
1.14837
1.14858
1.14907
1.15099
1.15142
1.15267
1.15238
1.15044
1.14947
1.14925
1.1494
1.14939
1.14724
1.1444
1.14116
1.13813
1.13619
1.13504
1.13557
1.13675
1.13747
1.1386
1.13865
1.13936
1.13862
1.13746
1.13501
1.13505
1.13373
1.13212
1.13022
1.13157
1.13327
1.13794
1.14024
1.13868
1.13439
1.13277
1.13536
1.13682
1.14043
1.13721
1.13314
1.13277
1.11865
1.11286
1.10784
1.10541
1.10218
1.10235
1.09899
1.09615
1.09521
1.08883
1.08363
1.09282
1.09243
1.08201
1.07353
1.08232
1.08676
1.08148
1.07214
1.06575
1.07331
1.08388
1.08693
1.07741
1.06752
1.05801
1.04861
1.03968
1.04648
1.05166
1.05992
1.08517
1.07619
1.08083
1.08339
1.06759
1.08236
1.09594
1.12175
1.12828
1.11044
1.10909
1.10672
1.11483
1.11385
1.11011
1.09051
1.06123
1.07196
1.05784
1.04031
1.04666
1.06468
1.06897
1.05985
1.04731
1.06196
1.07016
1.04719
1.02285
1.05074
1.04672
1.08526
1.08457
1.07951
1.10424
1.11625
1.12098
1.10512
1.10055
1.06435
1.04619
1.07454
1.0657
1.03373
1.06978
1.10177
1.1073
1.01817
0.941189
1.1963
1.09802
1.07033
1.0997
1.28792
1.29998
1.27441
1.315
1.26653
1.24457
1.26065
1.09034
1.23877
1.23607
1.14535
1.05418
1.0633
1.1056
1.13326
1.13117
1.14339
1.14092
1.13675
1.11652
1.15283
1.1408
1.15184
1.16694
1.16643
1.16349
1.16588
1.1499
1.13792
1.13334
1.13789
1.13966
1.14046
1.13982
1.14333
1.14472
1.14651
1.1484
1.14751
1.1434
1.14313
1.14291
1.14169
1.14357
1.14656
1.14972
1.15283
1.15422
1.15435
1.15374
1.15313
1.15257
1.15057
1.15113
1.15056
1.15017
1.15066
1.15048
1.14846
1.14696
1.14478
1.14267
1.14331
1.14475
1.14539
1.14616
1.14501
1.14336
1.14234
1.14075
1.13995
1.14002
1.13948
1.13962
1.13933
1.13977
1.13955
1.13923
1.13676
1.13624
1.13318
1.13132
1.1263
1.12613
1.12506
1.12662
1.1297
1.13016
1.13092
1.12627
1.12755
1.13036
1.13408
1.1417
1.13715
1.13151
1.12856
1.12063
1.11511
1.1082
1.10149
1.103
1.09946
1.09668
1.09743
1.09349
1.08148
1.0892
1.08893
1.08127
1.07037
1.07728
1.08517
1.08324
1.07452
1.06494
1.07136
1.08131
1.08223
1.07584
1.06944
1.05939
1.05271
1.04357
1.04716
1.05607
1.06015
1.08618
1.08777
1.07929
1.09154
1.07443
1.08149
1.09136
1.11332
1.12956
1.11454
1.10544
1.09556
1.09512
1.09117
1.09031
1.08065
1.06306
1.07376
1.07573
1.05481
1.05885
1.07642
1.07776
1.08663
1.07488
1.06085
1.06358
1.04138
1.01776
1.0437
1.05636
1.10203
1.09224
1.08871
1.1075
1.13225
1.14964
1.1407
1.1129
1.0685
1.04019
1.06837
1.06619
1.03255
1.05862
1.08589
1.11902
1.05824
0.944321
1.19061
1.10103
1.05948
1.08429
1.2594
1.28279
1.24979
1.30595
1.26828
1.22688
1.25382
1.04818
1.21097
1.2189
1.14329
1.06129
1.07577
1.11124
1.14009
1.14704
1.16212
1.15893
1.14887
1.14016
1.17812
1.13974
1.14848
1.16382
1.16653
1.15803
1.15925
1.14886
1.1396
1.13056
1.1345
1.1436
1.1407
1.14063
1.14379
1.14264
1.14138
1.14425
1.1463
1.14769
1.14853
1.14856
1.14991
1.15112
1.15291
1.15625
1.15808
1.15838
1.15676
1.15476
1.15163
1.15096
1.15053
1.1501
1.15005
1.15098
1.15116
1.14996
1.1495
1.1486
1.14591
1.14387
1.14397
1.144
1.14601
1.14824
1.14792
1.14786
1.14697
1.1453
1.14462
1.14256
1.14167
1.14306
1.14326
1.14276
1.1413
1.14062
1.1361
1.13739
1.13712
1.13595
1.13273
1.13074
1.13092
1.12887
1.12979
1.12686
1.12554
1.12739
1.12587
1.13293
1.13109
1.13099
1.13149
1.12169
1.11599
1.10693
1.11044
1.10928
1.10435
1.10426
1.09847
1.0934
1.09419
1.09915
1.08588
1.08679
1.08796
1.0871
1.07479
1.07581
1.08326
1.08263
1.07341
1.06189
1.06905
1.0796
1.08192
1.08058
1.07124
1.05581
1.04871
1.04618
1.05522
1.05876
1.06299
1.08285
1.09906
1.08078
1.09775
1.08213
1.0813
1.08992
1.10434
1.12949
1.11682
1.10777
1.08966
1.08847
1.0795
1.07542
1.07934
1.06008
1.08353
1.09774
1.06721
1.05374
1.06922
1.06715
1.06662
1.06078
1.06027
1.06879
1.05952
1.03931
1.04889
1.0635
1.11266
1.10068
1.0961
1.10687
1.11887
1.13834
1.1488
1.10609
1.06586
1.03799
1.05909
1.06204
1.03327
1.06109
1.0731
1.11425
1.08808
0.964287
1.16388
1.09823
1.02898
1.06935
1.23232
1.29663
1.23755
1.2861
1.27145
1.22357
1.22801
1.07031
1.21972
1.21942
1.1274
1.05498
1.08498
1.12149
1.14682
1.15757
1.17259
1.17337
1.16373
1.16385
1.20124
1.13911
1.14641
1.16113
1.1669
1.15648
1.15778
1.1523
1.14387
1.13853
1.13249
1.13931
1.14237
1.13914
1.14482
1.14963
1.14661
1.14921
1.14885
1.14421
1.1452
1.14422
1.14319
1.14607
1.14786
1.15183
1.15602
1.15986
1.16092
1.16082
1.16006
1.15924
1.15781
1.15677
1.15785
1.15837
1.15865
1.15992
1.15984
1.15822
1.15667
1.15499
1.15342
1.15345
1.15419
1.15338
1.15296
1.15338
1.15123
1.14863
1.14771
1.14374
1.14178
1.14296
1.14223
1.14404
1.14142
1.13994
1.1369
1.13308
1.13223
1.12946
1.12664
1.12436
1.12335
1.12484
1.12426
1.12724
1.11994
1.11989
1.11732
1.12189
1.13037
1.13084
1.13131
1.12138
1.12088
1.11373
1.10943
1.10584
1.10295
1.10314
1.10356
1.09966
1.0919
1.09951
1.09113
1.08372
1.08395
1.08789
1.0767
1.07222
1.08025
1.08357
1.07846
1.0641
1.0697
1.07698
1.07875
1.08151
1.0728
1.05544
1.04775
1.04767
1.05696
1.0657
1.07664
1.08121
1.10382
1.08829
1.10414
1.09239
1.08536
1.09062
1.09837
1.12556
1.12473
1.11369
1.09732
1.08399
1.0816
1.07241
1.08022
1.06733
1.0776
1.10665
1.09679
1.06912
1.07285
1.07084
1.08154
1.08227
1.05613
1.05771
1.05517
1.03228
1.04222
1.07085
1.13378
1.12813
1.11227
1.12239
1.14445
1.1514
1.15119
1.09375
1.05424
1.03339
1.04756
1.05558
1.03312
1.06359
1.06017
1.10091
1.10522
0.988339
1.11998
1.08876
0.998135
1.05103
1.1886
1.31224
1.24109
1.26716
1.26105
1.22976
1.20945
1.09336
1.25347
1.21861
1.11606
1.05869
1.08958
1.11594
1.14391
1.16993
1.18189
1.1814
1.17278
1.1846
1.21392
1.13902
1.14601
1.1589
1.16471
1.15401
1.15174
1.15019
1.14161
1.13955
1.13693
1.13656
1.14242
1.14026
1.13875
1.14449
1.14477
1.14601
1.15399
1.1543
1.15306
1.15386
1.15022
1.14914
1.14836
1.14871
1.15058
1.15296
1.15509
1.15662
1.15743
1.15715
1.15694
1.15651
1.15515
1.15412
1.154
1.15443
1.15459
1.15614
1.15659
1.1571
1.15796
1.15655
1.15536
1.15505
1.15458
1.15334
1.15186
1.14833
1.1472
1.14679
1.14261
1.14381
1.14393
1.14483
1.14393
1.14332
1.14371
1.1417
1.13544
1.13162
1.12664
1.12732
1.12097
1.12011
1.11603
1.11804
1.11936
1.11629
1.11685
1.11617
1.11913
1.11336
1.11556
1.1127
1.10763
1.10756
1.10685
1.10996
1.11028
1.1022
1.10124
1.10218
1.09191
1.09786
1.09595
1.08567
1.08465
1.09079
1.08299
1.07155
1.07508
1.0807
1.07758
1.0633
1.06523
1.07364
1.07751
1.08181
1.07416
1.05359
1.04613
1.04935
1.05658
1.06764
1.08795
1.08747
1.10994
1.10104
1.10502
1.10499
1.09352
1.09614
1.09572
1.11881
1.12891
1.12076
1.10627
1.08806
1.0856
1.07639
1.08571
1.07912
1.06503
1.10539
1.11388
1.0727
1.07438
1.0773
1.07815
1.07884
1.06206
1.06173
1.07049
1.04786
1.0437
1.06381
1.12445
1.12001
1.11382
1.11052
1.12943
1.13555
1.14923
1.10829
1.06066
1.03727
1.04036
1.05018
1.03295
1.06388
1.05164
1.08136
1.11059
1.00899
1.07543
1.08713
0.987104
1.02777
1.13816
1.27251
1.24167
1.26778
1.24375
1.24865
1.1855
1.12747
1.25886
1.21106
1.11007
1.06829
1.109
1.12054
1.14049
1.17218
1.18616
1.18707
1.17649
1.2041
1.20922
1.13983
1.14816
1.16053
1.16962
1.16269
1.15202
1.1521
1.14713
1.14167
1.13842
1.13683
1.13864
1.14421
1.14483
1.14622
1.14755
1.14259
1.14297
1.14729
1.14806
1.15117
1.15239
1.15216
1.15228
1.15224
1.15315
1.15415
1.15576
1.15686
1.15858
1.15989
1.15999
1.15974
1.15966
1.15936
1.15751
1.1571
1.15614
1.15423
1.15611
1.15725
1.1557
1.15655
1.15807
1.15694
1.15737
1.15497
1.15362
1.15335
1.15095
1.1506
1.14604
1.14832
1.14788
1.14947
1.14724
1.14602
1.14169
1.13958
1.13694
1.13529
1.13223
1.13073
1.12894
1.12429
1.12316
1.11664
1.11694
1.11583
1.1184
1.11427
1.11638
1.11569
1.11034
1.11102
1.10779
1.11187
1.10602
1.10265
1.10703
1.10323
1.10131
1.10375
1.09552
1.09663
1.09657