/*--------------------------------*- C++ -*----------------------------------*\
| =========                 |                                                 |
| \\      /  F ield         | OpenFOAM: The Open Source CFD Toolbox           |
|  \\    /   O peration     | Version:  dev                                   |
|   \\  /    A nd           | Web:      http://www.openfoam.org               |
|    \\/     M anipulation  |                                                 |
\*---------------------------------------------------------------------------*/
FoamFile
{
    version     2.0;
    format      ascii;
    class       volScalarField;
    object      rho_0;
    location    "9.161";
}
// * * * * * * * * * * * * * * * * * * * * * * * * * * * * * * * * * * * * * //

dimensions      [1 -3 0 0 0 0 0];

internalField   nonuniform List<scalar> 
12225
(
1.12764
1.13065
1.1309
1.1307
1.13106
1.13079
1.13128
1.13126
1.13186
1.13217
1.13292
1.13323
1.13453
1.13344
1.13692
1.13247
1.14182
1.13797
1.12992
1.1337
1.1339
1.13372
1.13397
1.13393
1.1337
1.13415
1.13355
1.13442
1.13421
1.1344
1.13628
1.13279
1.14022
1.12749
1.14057
1.13794
1.12998
1.13354
1.13401
1.13412
1.13441
1.13488
1.13435
1.13543
1.13416
1.13599
1.13427
1.13689
1.13524
1.13777
1.13931
1.13643
1.14348
1.13788
1.13016
1.1332
1.13366
1.13394
1.13431
1.1349
1.13483
1.13542
1.13523
1.13596
1.13558
1.13639
1.1363
1.13717
1.1375
1.1386
1.1417
1.1401
1.12948
1.13347
1.13357
1.13409
1.13414
1.13476
1.13451
1.13528
1.13489
1.13585
1.13529
1.13633
1.13591
1.13695
1.13627
1.13846
1.13679
1.13808
1.12915
1.13318
1.13346
1.13359
1.13434
1.1336
1.13489
1.13415
1.13537
1.13471
1.13552
1.13539
1.13641
1.13562
1.13856
1.13515
1.13831
1.14092
1.12883
1.13325
1.13239
1.13402
1.13279
1.134
1.13384
1.13463
1.13435
1.13524
1.13456
1.13611
1.13557
1.13673
1.13777
1.13741
1.13973
1.13951
1.1284
1.13196
1.13233
1.13287
1.13274
1.1329
1.13364
1.13331
1.13434
1.13373
1.1348
1.13485
1.13589
1.13558
1.13661
1.13686
1.13795
1.13748
1.12772
1.13104
1.13205
1.13203
1.13247
1.13268
1.13288
1.13336
1.13356
1.13405
1.13412
1.1352
1.13548
1.13579
1.13609
1.13677
1.13775
1.13809
1.12677
1.13089
1.13101
1.13114
1.13191
1.13176
1.13233
1.13224
1.13303
1.13311
1.13386
1.13387
1.13452
1.13465
1.13538
1.13572
1.13661
1.13717
1.12564
1.13004
1.12953
1.13033
1.13042
1.13069
1.1311
1.13133
1.13161
1.13213
1.1325
1.13279
1.133
1.13379
1.1345
1.13498
1.13548
1.13607
1.12484
1.12847
1.12801
1.12896
1.12885
1.12962
1.12951
1.12992
1.13021
1.13092
1.13129
1.13156
1.1317
1.13237
1.13305
1.13374
1.13419
1.13472
1.1234
1.12636
1.12673
1.12723
1.12738
1.12809
1.12802
1.12866
1.12871
1.12916
1.12945
1.12977
1.1301
1.13057
1.13142
1.13209
1.1324
1.13294
1.12088
1.12409
1.12496
1.12473
1.12545
1.12571
1.12585
1.12632
1.12646
1.12706
1.12741
1.12769
1.12821
1.12861
1.12944
1.12998
1.13076
1.1312
1.11778
1.1217
1.12211
1.12191
1.12281
1.12269
1.12313
1.12338
1.12361
1.1241
1.12457
1.12495
1.12559
1.12599
1.12677
1.12724
1.12818
1.12859
1.11436
1.11868
1.11839
1.11867
1.1192
1.11919
1.11969
1.11986
1.12031
1.12075
1.12127
1.12194
1.12256
1.12301
1.12396
1.12446
1.12532
1.12587
1.1105
1.11438
1.11408
1.11471
1.1147
1.11515
1.11536
1.11572
1.11611
1.11671
1.1172
1.11792
1.11856
1.11936
1.1201
1.1207
1.12178
1.12244
1.1054
1.10951
1.10983
1.11011
1.11025
1.11089
1.11088
1.11158
1.11179
1.1126
1.11293
1.11387
1.11438
1.11534
1.1161
1.11701
1.11795
1.11883
1.10079
1.10543
1.1057
1.10568
1.10628
1.10667
1.10698
1.10768
1.10805
1.10884
1.10929
1.11019
1.11082
1.112
1.11268
1.11389
1.11487
1.11596
1.09744
1.1022
1.10212
1.1026
1.10306
1.1035
1.10399
1.10453
1.10525
1.10586
1.10676
1.10755
1.10852
1.1095
1.11039
1.11148
1.11244
1.11362
1.09444
1.09915
1.0994
1.10006
1.10059
1.10086
1.10147
1.102
1.10269
1.10362
1.10442
1.10532
1.10648
1.10731
1.10849
1.1095
1.11062
1.11177
1.09213
1.09713
1.09746
1.09794
1.09847
1.09906
1.09963
1.10016
1.10103
1.10167
1.10258
1.10358
1.10444
1.10565
1.10671
1.10789
1.10922
1.11034
1.09064
1.09552
1.09579
1.0963
1.09692
1.09756
1.09803
1.09897
1.09956
1.10049
1.10141
1.10226
1.10343
1.10441
1.10564
1.10684
1.10807
1.10939
1.08941
1.09432
1.09447
1.09514
1.09577
1.09633
1.09718
1.09775
1.09862
1.09948
1.10036
1.10148
1.10247
1.10367
1.10485
1.10603
1.10737
1.10856
1.0883
1.09332
1.09358
1.09411
1.09489
1.09569
1.09639
1.0972
1.09798
1.0988
1.09977
1.10073
1.10186
1.103
1.10423
1.10551
1.10679
1.10811
1.0876
1.09277
1.09298
1.0936
1.09432
1.09504
1.0958
1.09655
1.09739
1.09826
1.09924
1.1003
1.10143
1.10264
1.1039
1.10519
1.1065
1.10783
1.08748
1.09232
1.0925
1.09308
1.0938
1.09455
1.09534
1.09616
1.09704
1.09795
1.09891
1.09994
1.10102
1.10217
1.10339
1.10466
1.10597
1.1073
1.08693
1.09208
1.09223
1.09276
1.09347
1.0942
1.09497
1.09578
1.09663
1.09753
1.09849
1.09951
1.10059
1.10175
1.10296
1.10423
1.10553
1.10684
1.08676
1.09202
1.09216
1.09259
1.0932
1.09384
1.09451
1.09523
1.09602
1.09689
1.09785
1.09889
1.10001
1.10121
1.10244
1.10372
1.10501
1.10633
1.08496
1.08963
1.08986
1.09032
1.09093
1.09159
1.09232
1.09313
1.09405
1.09505
1.09615
1.09733
1.09858
1.09989
1.10123
1.10262
1.10399
1.10545
1.16073
1.17974
1.18978
1.19522
1.19828
1.20026
1.20182
1.20315
1.20425
1.20527
1.2058
1.20629
1.20657
1.20604
1.20519
1.20418
1.20246
1.20005
1.1979
1.19596
1.19308
1.18899
1.18463
1.18094
1.17768
1.17566
1.1733
1.16773
1.1621
1.16059
1.16404
1.1697
1.17088
1.16479
1.15798
1.15565
1.1549
1.14742
1.13688
1.13492
1.13769
1.13777
1.13649
1.13535
1.13442
1.13361
1.13289
1.1322
1.13157
1.13098
1.13044
1.12994
1.12947
1.12902
1.12857
1.12811
1.12766
1.12721
1.12676
1.12628
1.12579
1.12529
1.12478
1.12425
1.1237
1.12312
1.1225
1.12184
1.12113
1.12039
1.11961
1.11884
1.11809
1.11732
1.11655
1.11578
1.11508
1.11439
1.11381
1.11347
1.11335
1.11322
1.1128
1.11216
1.11095
1.10917
1.10736
1.10557
1.10416
1.10348
1.10339
1.10356
1.10348
1.10335
1.10319
1.10334
1.10339
1.10354
1.10327
1.10273
1.10235
1.10316
1.10566
1.10886
1.11329
1.11794
1.12278
1.12752
1.12906
1.13018
1.1284
1.12732
1.12393
1.11538
1.10507
1.09161
1.08854
1.09677
1.10222
1.09483
1.08546
1.09999
1.10658
1.10094
1.09954
1.09894
1.11238
1.12303
1.12045
1.10638
1.12355
1.12028
1.12243
1.12025
1.11569
1.10997
1.1036
1.09706
1.09145
1.08603
1.08063
1.07529
1.06916
1.06274
1.05807
1.05611
1.05577
1.0571
1.05886
1.06139
1.06339
1.06798
1.07124
1.07621
1.08003
1.08833
1.09091
1.0837
1.08033
1.07558
1.08187
1.09076
1.0895
1.06443
1.0423
1.02755
1.03224
1.03729
1.0343
1.00578
0.98053
1.00617
1.04574
1.03595
1.02853
1.02967
1.02324
1.01802
1.00217
0.986086
1.16145
1.18237
1.19068
1.19204
1.19175
1.19219
1.19381
1.19625
1.19899
1.20168
1.20502
1.20817
1.21218
1.21561
1.21898
1.22181
1.22324
1.22467
1.22512
1.22657
1.22693
1.22388
1.22171
1.21996
1.21675
1.21393
1.21256
1.20977
1.20132
1.1948
1.19277
1.20225
1.20729
1.19262
1.16954
1.15175
1.14377
1.14021
1.13797
1.13689
1.13577
1.13451
1.13343
1.13268
1.13213
1.1316
1.13125
1.13108
1.1308
1.13074
1.13055
1.13041
1.13014
1.12988
1.12961
1.12934
1.12914
1.12887
1.12849
1.12796
1.12742
1.12688
1.12628
1.1256
1.12491
1.12417
1.12323
1.12228
1.1212
1.12006
1.11869
1.11744
1.11626
1.11496
1.11381
1.11268
1.1117
1.11075
1.10993
1.10982
1.11061
1.11235
1.11376
1.11639
1.11805
1.11595
1.11237
1.10765
1.10207
1.09883
1.09896
1.10425
1.11013
1.114
1.11587
1.11804
1.11992
1.12187
1.1245
1.12373
1.12472
1.13155
1.13656
1.13372
1.13752
1.15381
1.1672
1.16947
1.1632
1.16047
1.15625
1.15261
1.16518
1.16835
1.14046
1.12499
1.1205
1.11589
1.12027
1.11337
1.10836
1.10841
1.09744
1.08953
1.08841
1.1038
1.12141
1.11203
1.09999
1.08009
1.11056
1.10011
1.12323
1.13212
1.1417
1.14598
1.14489
1.13792
1.1278
1.11949
1.1132
1.11117
1.11153
1.10596
1.0998
1.09981
1.10026
1.0988
1.09768
1.10212
1.10769
1.12254
1.1358
1.15783
1.17206
1.19837
1.21939
1.20365
1.20148
1.18539
1.19475
1.2302
1.23205
1.16093
1.11832
1.11407
1.11388
1.0754
1.04687
0.983612
0.992167
0.948619
1.05686
1.13354
1.15559
1.17032
1.17062
1.17456
1.15842
1.11851
1.15627
1.16859
1.17007
1.16875
1.1693
1.17197
1.17628
1.18049
1.18341
1.18525
1.18765
1.18912
1.19199
1.19522
1.19802
1.20141
1.20381
1.20686
1.21285
1.2185
1.21936
1.22099
1.2224
1.22212
1.22697
1.2279
1.22456
1.21875
1.22454
1.24069
1.21993
1.17374
1.14982
1.14531
1.14036
1.1364
1.13516
1.13438
1.13434
1.13445
1.13452
1.13494
1.13557
1.13588
1.13649
1.13687
1.13693
1.13708
1.13726
1.13725
1.13708
1.13687
1.1365
1.13608
1.13561
1.13528
1.13486
1.13456
1.1342
1.13356
1.13309
1.1327
1.13223
1.13153
1.13099
1.13027
1.12938
1.12839
1.12738
1.12621
1.1246
1.12269
1.12081
1.11877
1.11671
1.11459
1.11234
1.11034
1.10803
1.10571
1.10361
1.1027
1.10229
1.10396
1.10705
1.10757
1.10576
1.1036
1.09732
1.08914
1.08133
1.08393
1.09354
1.10115
1.10485
1.10501
1.1148
1.12288
1.12281
1.1206
1.12417
1.12539
1.12465
1.13237
1.1404
1.14724
1.15992
1.1636
1.15197
1.14492
1.14204
1.14018
1.14798
1.14675
1.13368
1.12296
1.12937
1.14135
1.13425
1.12531
1.13867
1.13504
1.11023
1.10484
1.1056
1.11651
1.11342
1.0883
1.08887
1.08163
1.07048
1.05924
1.0701
1.0739
1.08413
1.09238
1.09859
1.09854
1.0869
1.07323
1.06284
1.06567
1.0865
1.09883
1.095
1.09522
1.10078
1.10906
1.11562
1.11922
1.12232
1.13371
1.14857
1.17945
1.20605
1.22415
1.23983
1.24141
1.26309
1.25208
1.28396
1.31867
1.27955
1.19203
1.17272
1.16324
1.15108
1.10169
1.0353
1.03085
1.08139
1.07824
0.979512
1.10511
1.18152
1.21179
1.21443
1.19269
1.20184
1.21159
1.15266
1.1605
1.16239
1.16719
1.17438
1.18189
1.19019
1.19806
1.20233
1.20488
1.20567
1.2058
1.20699
1.2063
1.20326
1.20173
1.20156
1.20498
1.21041
1.21422
1.21617
1.2167
1.2217
1.23492
1.23363
1.22196
1.23643
1.24048
1.20093
1.16327
1.1527
1.14606
1.14234
1.14202
1.14111
1.14115
1.14141
1.14187
1.14209
1.14237
1.14283
1.14277
1.14266
1.14254
1.14176
1.141
1.14023
1.13895
1.13773
1.13622
1.13504
1.13358
1.13229
1.13135
1.13034
1.12944
1.12869
1.128
1.12746
1.12713
1.12689
1.12683
1.12681
1.12661
1.12658
1.12625
1.1261
1.12564
1.12556
1.12548
1.12546
1.12478
1.12402
1.12339
1.12231
1.12101
1.11936
1.11825
1.11635
1.11506
1.1125
1.11003
1.10766
1.1052
1.10288
1.10149
1.10027
1.10074
1.10273
1.10102
1.09371
1.09042
1.09735
1.10429
1.09976
1.0837
1.08997
1.10699
1.10657
1.10079
1.10855
1.10868
1.10207
1.09865
1.0901
1.09118
1.11627
1.14149
1.1476
1.15411
1.15724
1.15112
1.15229
1.14786
1.13492
1.1321
1.1444
1.14798
1.14664
1.1371
1.13491
1.1242
1.11013
1.11451
1.12181
1.13149
1.10137
1.0797
1.09928
1.09175
1.07877
1.07053
1.07461
1.07316
1.07467
1.07743
1.08277
1.08769
1.08383
1.0779
1.06581
1.04176
1.03643
1.06264
1.08284
1.08483
1.08541
1.0927
1.1066
1.11742
1.13022
1.1321
1.14524
1.17575
1.21158
1.1963
1.16598
1.19228
1.25693
1.29467
1.34552
1.33702
1.25487
1.18666
1.19405
1.19724
1.15146
1.1418
1.09915
1.0836
1.06285
1.16807
0.983552
1.08616
1.16149
1.15229
1.19175
1.15108
1.10956
1.10895
1.15028
1.15482
1.1605
1.17266
1.18421
1.19303
1.20051
1.20747
1.21158
1.2134
1.21445
1.21481
1.21254
1.21064
1.20908
1.20638
1.20665
1.20912
1.21269
1.21849
1.21993
1.20691
1.19745
1.20869
1.21949
1.21308
1.19669
1.17705
1.161
1.15208
1.14858
1.14609
1.14394
1.14247
1.14152
1.14117
1.14086
1.14049
1.14023
1.13989
1.13943
1.13938
1.13869
1.13807
1.13738
1.13626
1.13522
1.13388
1.13262
1.13128
1.12997
1.12878
1.12775
1.12693
1.12641
1.12596
1.12557
1.12506
1.12435
1.12385
1.12319
1.12245
1.12168
1.12093
1.12009
1.11932
1.11865
1.11743
1.11657
1.11606
1.11552
1.11475
1.11439
1.11387
1.11352
1.11243
1.11136
1.11198
1.10873
1.10923
1.10628
1.10739
1.1082
1.10936
1.10984
1.10746
1.1026
1.09434
1.09093
1.09107
1.0933
1.09585
1.0972
1.10175
1.10392
1.08638
1.0754
1.08818
1.08807
1.07035
1.07682
1.08498
1.08005
1.07805
1.07066
1.06257
1.06062
1.07389
1.10108
1.1251
1.12955
1.12719
1.13943
1.14624
1.14385
1.1484
1.15484
1.15096
1.16582
1.16744
1.14211
1.12116
1.10949
1.09925
1.1053
1.1118
1.07811
1.08032
1.06856
1.06632
1.06238
1.05002
1.05957
1.06022
1.05589
1.04776
1.05387
1.07326
1.09043
1.09196
1.0897
1.08032
1.05168
1.04199
1.06418
1.07759
1.06895
1.06415
1.08363
1.09863
1.13079
1.13326
1.13399
1.14467
1.20061
1.19171
1.1257
1.1284
1.22118
1.32047
1.36714
1.31609
1.22622
1.18674
1.22342
1.27731
1.24091
1.12872
1.16013
1.109
1.02923
0.991691
1.01846
1.03897
1.1295
1.10147
1.13987
1.15675
1.10887
1.05393
1.14948
1.15462
1.16898
1.18641
1.1977
1.2056
1.21218
1.21739
1.21876
1.21626
1.21219
1.20774
1.20336
1.20101
1.19895
1.19613
1.19708
1.19025
1.17653
1.17339
1.18822
1.20138
1.1983
1.19416
1.18811
1.17777
1.16674
1.15627
1.1497
1.1451
1.14182
1.14029
1.13995
1.14049
1.14183
1.14323
1.14414
1.14535
1.14629
1.14698
1.14741
1.14745
1.14697
1.14634
1.14527
1.14411
1.14235
1.14045
1.1389
1.1372
1.13601
1.13512
1.13449
1.13403
1.13396
1.13371
1.13334
1.13308
1.1325
1.13195
1.13098
1.13009
1.12877
1.1272
1.12517
1.1231
1.12125
1.11925
1.11708
1.11632
1.11493
1.11341
1.11274
1.1112
1.11043
1.1084
1.10637
1.10803
1.10238
1.10543
1.0998
1.0978
1.09795
1.09927
1.10305
1.10729
1.1098
1.10569
1.09825
1.09373
1.08929
1.08979
1.09084
1.08713
1.08633
1.08594
1.07785
1.07939
1.07926
1.06041
1.06144
1.07566
1.07157
1.05556
1.05275
1.05517
1.05434
1.06272
1.07978
1.09065
1.10156
1.11391
1.13305
1.14463
1.14805
1.15233
1.15599
1.14625
1.15747
1.17017
1.13705
1.106
1.09334
1.08798
1.09212
1.0972
1.09947
1.10644
1.09143
1.07815
1.08111
1.05335
1.06454
1.05927
1.06906
1.0474
1.03222
1.03669
1.05643
1.0661
1.05714
1.05558
1.05209
1.0344
1.04366
1.07457
1.07654
1.04885
1.04832
1.06347
1.10747
1.12132
1.13522
1.14017
1.18117
1.19464
1.1306
1.1026
1.18661
1.31815
1.36297
1.29158
1.22285
1.213
1.25412
1.26483
1.28849
1.15191
1.12739
1.15513
1.08452
1.05705
1.06263
1.01991
1.0985
1.0678
1.05235
1.0868
1.11305
1.08689
1.15048
1.16042
1.18061
1.19411
1.19927
1.20512
1.21098
1.21495
1.21073
1.20317
1.19811
1.19038
1.17884
1.1644
1.15627
1.15761
1.16519
1.17076
1.16626
1.16576
1.17432
1.17756
1.17519
1.17248
1.16605
1.15938
1.15228
1.1465
1.14349
1.14195
1.14274
1.14472
1.14756
1.15033
1.15237
1.15353
1.15419
1.15426
1.15323
1.1524
1.15117
1.14978
1.14802
1.14615
1.14399
1.14211
1.14051
1.13882
1.13756
1.13698
1.13675
1.13632
1.1365
1.13651
1.13635
1.136
1.13554
1.13523
1.13465
1.13417
1.13375
1.13364
1.13335
1.13255
1.13126
1.1287
1.12557
1.12226
1.11841
1.11674
1.1141
1.1124
1.1117
1.11042
1.10961
1.10862
1.10653
1.10767
1.1
1.103
1.10161
1.09835
1.09498
1.09245
1.09077
1.09147
1.09741
1.10091
1.0975
1.09294
1.08865
1.08522
1.0893
1.09004
1.08402
1.08874
1.09021
1.08867
1.08855
1.07003
1.05434
1.05817
1.0667
1.06324
1.06155
1.05882
1.05325
1.06125
1.06928
1.07411
1.08948
1.10908
1.12941
1.1429
1.14656
1.14599
1.15673
1.14963
1.14234
1.1476
1.12782
1.11332
1.13307
1.14729
1.11205
1.10875
1.11246
1.08262
1.06704
1.05068
1.06781
1.0378
1.05313
1.02771
1.04844
1.06005
1.05767
1.04787
1.05062
1.05453
1.05744
1.05758
1.06238
1.04864
1.03362
1.05303
1.07004
1.0553
1.05441
1.0534
1.08571
1.11444
1.15194
1.13365
1.17834
1.21227
1.13312
1.0922
1.17368
1.31557
1.35098
1.27428
1.23299
1.23596
1.26769
1.19498
1.1762
1.27742
1.27076
1.14404
1.05939
1.09167
1.05169
1.01946
1.04341
1.03808
1.01488
1.00385
1.04319
1.07131
1.15211
1.1654
1.18397
1.19177
1.19815
1.20651
1.20841
1.2069
1.20019
1.19128
1.17401
1.15616
1.15043
1.15267
1.15582
1.15735
1.16217
1.16591
1.16628
1.16794
1.16719
1.16546
1.16265
1.15811
1.15261
1.14894
1.14475
1.1439
1.14484
1.14734
1.15126
1.15405
1.15678
1.15724
1.15623
1.15468
1.15257
1.1508
1.14954
1.14866
1.14758
1.14655
1.14544
1.1446
1.14395
1.14348
1.14297
1.14306
1.14326
1.14298
1.14291
1.14256
1.14178
1.14108
1.14027
1.13937
1.13842
1.13759
1.13675
1.1361
1.13601
1.13558
1.13621
1.13656
1.13713
1.13627
1.13446
1.13127
1.12711
1.12471
1.12143
1.11909
1.11706
1.11492
1.11169
1.11018
1.10863
1.11045
1.10397
1.10191
1.09957
1.09816
1.0991
1.09758
1.09377
1.08756
1.08727
1.09332
1.0965
1.09498
1.08755
1.08163
1.08278
1.08959
1.08734
1.09118
1.09524
1.0885
1.08562
1.07753
1.0666
1.05625
1.05331
1.04627
1.05504
1.06521
1.0651
1.0708
1.0708
1.06318
1.08004
1.10215
1.12516
1.1412
1.14171
1.14043
1.15862
1.16582
1.15119
1.1403
1.13396
1.14112
1.17117
1.13653
1.08037
1.07863
1.09251
1.09267
1.06993
1.07167
1.07616
1.06112
1.06444
1.04438
1.02815
1.03842
1.0522
1.05449
1.0683
1.05756
1.05384
1.05264
1.05527
1.06322
1.04261
1.0471
1.06846
1.05735
1.05899
1.04408
1.07214
1.11692
1.15047
1.06593
1.14917
1.22308
1.12182
1.07066
1.16115
1.31024
1.33469
1.26769
1.24185
1.25729
1.26996
1.16517
1.11379
1.2587
1.48739
1.13878
1.06575
1.05687
1.0578
1.02625
0.999069
1.02188
1.03256
1.00873
1.04593
1.08713
1.15303
1.16671
1.18491
1.19424
1.20628
1.21367
1.20843
1.20232
1.19139
1.17341
1.15334
1.14747
1.1564
1.16197
1.16168
1.15446
1.15105
1.15525
1.15777
1.15968
1.15864
1.15767
1.15524
1.15161
1.14952
1.14737
1.14739
1.14958
1.15227
1.15551
1.15765
1.15814
1.15728
1.15536
1.15402
1.15299
1.1537
1.15439
1.15492
1.15494
1.15407
1.1536
1.15283
1.15209
1.15074
1.14963
1.14829
1.14628
1.14468
1.14287
1.14092
1.13936
1.13776
1.13667
1.13576
1.1353
1.13503
1.13466
1.13443
1.13369
1.13416
1.13422
1.13488
1.13499
1.13635
1.13646
1.13584
1.13238
1.12812
1.12376
1.12098
1.11927
1.11813
1.11769
1.11528
1.11236
1.10908
1.10922
1.10797
1.10575
1.10235
1.09485
1.0888
1.08995
1.09184
1.08849
1.08103
1.08188
1.08465
1.0913
1.08856
1.08335
1.07936
1.0827
1.08357
1.08645
1.09294
1.08537
1.07302
1.05963
1.05557
1.05261
1.05154
1.04426
1.04591
1.05585
1.05588
1.06922
1.07598
1.0634
1.0767
1.09976
1.11894
1.13763
1.13562
1.13308
1.15581
1.17691
1.16598
1.15885
1.15625
1.16195
1.16755
1.10795
1.07999
1.08109
1.08531
1.08981
1.0786
1.06516
1.054
1.05207
1.03638
1.04998
1.04196
1.05249
1.05626
1.04357
1.06122
1.07173
1.06573
1.07156
1.0572
1.0656
1.05184
1.0423
1.06644
1.06262
1.06458
1.0376
1.07291
1.12029
1.11552
0.986124
1.08211
1.20847
1.10657
1.04787
1.13916
1.30806
1.32008
1.27212
1.25606
1.28205
1.27747
1.17662
1.16788
1.2382
1.36995
1.1127
1.05283
1.06346
1.06938
1.05604
1.02777
1.03739
1.05325
1.03565
1.06677
1.11324
1.15383
1.16919
1.18864
1.19658
1.2076
1.21135
1.20035
1.18827
1.17334
1.15591
1.14519
1.15063
1.15357
1.14882
1.15769
1.16094
1.15735
1.16001
1.15748
1.15681
1.15421
1.15057
1.1487
1.14693
1.14689
1.14869
1.15221
1.15588
1.15858
1.16094
1.16091
1.15979
1.15829
1.1562
1.15594
1.1558
1.1565
1.15647
1.1552
1.15358
1.15157
1.1503
1.14835
1.14627
1.14478
1.14316
1.14137
1.13962
1.13806
1.13664
1.13555
1.13509
1.13489
1.13518
1.13566
1.13611
1.13664
1.13627
1.13606
1.13449
1.13356
1.13354
1.13395
1.13459
1.13577
1.13787
1.14104
1.14141
1.13919
1.1326
1.12564
1.1208
1.11655
1.11264
1.11187
1.10882
1.10717
1.10367
1.10341
1.1
1.1039
1.10983
1.1015
1.0933
1.08969
1.09
1.08481
1.08234
1.07903
1.08237
1.08335
1.08084
1.07645
1.07814
1.08217
1.08214
1.08635
1.08553
1.07555
1.06037
1.0559
1.05208
1.04926
1.04092
1.03877
1.05477
1.05292
1.05945
1.0749
1.06322
1.07227
1.09492
1.11615
1.13312
1.131
1.12355
1.14629
1.16732
1.17356
1.1761
1.16452
1.15644
1.14311
1.11911
1.0843
1.07866
1.09086
1.0956
1.08561
1.07098
1.07049
1.08009
1.05127
1.04122
1.02969
1.04945
1.05843
1.04123
1.04299
1.06929
1.06382
1.07964
1.07366
1.07757
1.0711
1.04264
1.0629
1.0671
1.0652
1.03485
1.07959
1.1156
1.07728
0.952756
1.02438
1.18168
1.08722
1.03798
1.12749
1.30159
1.30952
1.27721
1.2751
1.30814
1.27453
1.20489
1.22067
1.24057
1.27123
1.1571
1.07416
1.08251
1.08302
1.08162
1.06512
1.06526
1.07386
1.06708
1.08186
1.11911
1.15455
1.17025
1.18699
1.19124
1.19995
1.19965
1.18312
1.1657
1.14942
1.14533
1.14782
1.15465
1.15906
1.15277
1.15208
1.15216
1.15073
1.15571
1.15458
1.15364
1.15353
1.15361
1.15291
1.15387
1.15668
1.15873
1.16171
1.16308
1.16335
1.1623
1.15973
1.15737
1.15523
1.15473
1.15577
1.15737
1.15805
1.15667
1.15402
1.15166
1.15033
1.14961
1.14833
1.14685
1.14527
1.14376
1.14188
1.13982
1.13815
1.13692
1.13614
1.13603
1.13626
1.13641
1.13672
1.13637
1.13723
1.13702
1.1366
1.13401
1.13051
1.12883
1.12727
1.12771
1.12608
1.12503
1.12623
1.13022
1.13462
1.13748
1.13513
1.13085
1.12886
1.12297
1.11859
1.11312
1.11161
1.09995
1.1034
1.09591
1.08636
1.09297
1.09579
1.09392
1.08766
1.08813
1.0858
1.08094
1.07549
1.07929
1.08697
1.08589
1.07737
1.07052
1.07195
1.07462
1.08248
1.08903
1.08269
1.07077
1.06367
1.05795
1.04949
1.03949
1.03325
1.05805
1.06774
1.05832
1.07475
1.06672
1.0711
1.09311
1.11322
1.13037
1.12975
1.12012
1.13237
1.1488
1.1596
1.17116
1.15338
1.1336
1.11762
1.09787
1.0749
1.04773
1.06202
1.08206
1.07899
1.05817
1.04655
1.05237
1.06179
1.04895
1.03586
1.0511
1.05681
1.07222
1.06805
1.09146
1.0927
1.09561
1.08992
1.08402
1.08358
1.04415
1.05822
1.07185
1.06379
1.02968
1.07537
1.11073
1.06495
0.945635
0.990127
1.18063
1.07645
1.04436
1.13709
1.30661
1.30046
1.27188
1.28669
1.31036
1.2638
1.22975
1.25634
1.26462
1.2789
1.1469
1.04176
1.04921
1.07733
1.08991
1.0851
1.08943
1.0895
1.08991
1.08891
1.1224
1.15409
1.16762
1.18342
1.18627
1.19035
1.18713
1.17029
1.15695
1.1448
1.14775
1.15248
1.14873
1.151
1.15219
1.15551
1.15774
1.15817
1.15803
1.15522
1.15245
1.15138
1.14894
1.1502
1.15178
1.15466
1.1574
1.15964
1.15978
1.15876
1.15774
1.15535
1.15494
1.15403
1.15464
1.15633
1.157
1.15665
1.15477
1.15238
1.15126
1.15175
1.15198
1.15104
1.14875
1.14591
1.14315
1.1401
1.13755
1.13575
1.13512
1.13537
1.13608
1.13695
1.13739
1.13871
1.13825
1.13844
1.13849
1.13966
1.13913
1.13713
1.1353
1.13397
1.13521
1.13529
1.13238
1.12756
1.12562
1.12633
1.12819
1.13005
1.12805
1.12581
1.1257
1.12154
1.11301
1.11995
1.10654
1.10579
1.10583
1.09803
1.09391
1.09262
1.09127
1.08443
1.08487
1.09011
1.08514
1.07273
1.06908
1.07937
1.08344
1.07762
1.06925
1.06631
1.07135
1.08137
1.08694
1.07821
1.06606
1.0576
1.05163
1.04485
1.04407
1.0351
1.05511
1.07841
1.06658
1.0775
1.07035
1.06627
1.08693
1.106
1.12759
1.12681
1.11555
1.11959
1.12518
1.14156
1.14189
1.13509
1.10822
1.08246
1.08657
1.05923
1.06366
1.08281
1.09008
1.08949
1.08099
1.07437
1.0755
1.06589
1.03723
1.02403
1.04775
1.03883
1.07498
1.07029
1.08786
1.11007
1.11277
1.11477
1.10148
1.09854
1.05229
1.04934
1.07255
1.06136
1.03147
1.07707
1.10829
1.07916
0.96347
0.956162
1.18879
1.07953
1.05482
1.12328
1.30986
1.29981
1.26761
1.29824
1.27919
1.25511
1.24493
1.19022
1.27629
1.25188
1.14994
1.0688
1.07478
1.10113
1.10823
1.1009
1.11256
1.10921
1.10859
1.09138
1.12652
1.15313
1.16511
1.18087
1.18159
1.18195
1.17912
1.16053
1.15092
1.14325
1.14506
1.15426
1.1538
1.15163
1.1538
1.15187
1.15149
1.15213
1.153
1.15499
1.15546
1.15551
1.15625
1.15827
1.16038
1.16309
1.165
1.1657
1.16529
1.16289
1.16107
1.15813
1.15648
1.15654
1.15674
1.15828
1.15839
1.15934
1.15863
1.15641
1.15515
1.15456
1.15447
1.15419
1.15175
1.1487
1.14519
1.14196
1.13986
1.13855
1.13889
1.1398
1.1402
1.14102
1.14078
1.14118
1.14007
1.13855
1.13594
1.13581
1.13417
1.13228
1.13034
1.13163
1.13328
1.13769
1.13932
1.1371
1.13255
1.1311
1.13359
1.13483
1.13791
1.13402
1.12984
1.12872
1.11412
1.10868
1.1036
1.10111
1.09782
1.09783
1.09424
1.09138
1.09027
1.08375
1.07888
1.08817
1.08742
1.07697
1.06892
1.07798
1.08236
1.07712
1.06802
1.062
1.06996
1.08072
1.08389
1.07465
1.06513
1.05594
1.04684
1.0383
1.04551
1.05107
1.05973
1.08513
1.07629
1.08126
1.08414
1.06853
1.0836
1.0972
1.12315
1.13024
1.1124
1.11079
1.108
1.11565
1.11467
1.11139
1.09248
1.06368
1.07478
1.06034
1.04313
1.05041
1.06828
1.0719
1.06146
1.04971
1.06569
1.07171
1.04691
1.02494
1.05328
1.04885
1.08729
1.0838
1.08046
1.10591
1.11564
1.11798
1.10097
1.09503
1.05753
1.04318
1.07089
1.05754
1.0279
1.0665
1.09554
1.09585
1.0027
0.938776
1.19235
1.08473
1.06119
1.09445
1.27964
1.28804
1.26292
1.30457
1.25607
1.23435
1.2521
1.08723
1.23264
1.22803
1.13686
1.04765
1.057
1.09865
1.12457
1.12192
1.13409
1.13177
1.12813
1.10827
1.14647
1.15251
1.16354
1.17881
1.17833
1.17499
1.17757
1.1617
1.14954
1.1447
1.14929
1.15105
1.15167
1.151
1.1545
1.15583
1.15745
1.15937
1.15841
1.15407
1.15366
1.15325
1.15189
1.15357
1.15638
1.1594
1.16229
1.16337
1.16313
1.16226
1.1613
1.16056
1.15838
1.15868
1.15777
1.1571
1.15731
1.1566
1.15422
1.15247
1.14988
1.14755
1.14812
1.14931
1.14984
1.15042
1.14894
1.14709
1.1458
1.14389
1.14287
1.14259
1.14176
1.14164
1.1411
1.14126
1.14073
1.13999
1.13725
1.13643
1.133
1.13075
1.1256
1.12544
1.12422
1.1258
1.12852
1.12856
1.12874
1.12385
1.12532
1.12796
1.13166
1.13853
1.13299
1.12726
1.12399
1.11577
1.11012
1.10304
1.09655
1.09805
1.09424
1.09152
1.09217
1.08789
1.07616
1.08414
1.08356
1.07586
1.06534
1.07259
1.08049
1.07855
1.07
1.06081
1.06762
1.07775
1.07882
1.07274
1.06666
1.0569
1.05052
1.04174
1.04573
1.05494
1.05948
1.08577
1.08732
1.07915
1.09176
1.07486
1.0822
1.09229
1.11412
1.1309
1.1161
1.10698
1.0967
1.09611
1.09205
1.09142
1.08257
1.06547
1.07652
1.07791
1.05679
1.06176
1.07933
1.08067
1.0887
1.07568
1.06261
1.06459
1.04034
1.0185
1.04677
1.05948
1.10373
1.09108
1.08882
1.10951
1.13374
1.14788
1.13509
1.10522
1.06064
1.03647
1.06511
1.05821
1.026
1.05471
1.08083
1.10941
1.04224
0.938585
1.18544
1.08746
1.05063
1.07815
1.25092
1.27121
1.23801
1.29417
1.25803
1.21655
1.24415
1.04171
1.20433
1.20993
1.1349
1.05324
1.0666
1.10275
1.13201
1.13846
1.15351
1.15001
1.14048
1.13148
1.1707
1.15128
1.15993
1.17544
1.17842
1.1695
1.17068
1.16061
1.15136
1.1421
1.14542
1.15481
1.15195
1.15163
1.15484
1.15378
1.15212
1.15494
1.1569
1.15809
1.15885
1.15866
1.15985
1.16096
1.16253
1.16574
1.16737
1.16751
1.16563
1.16334
1.15996
1.15909
1.15843
1.15763
1.15747
1.15817
1.15794
1.1565
1.15586
1.1545
1.15147
1.14932
1.14915
1.14896
1.15083
1.15252
1.15176
1.15142
1.15006
1.14808
1.14706
1.14462
1.1437
1.14491
1.14466
1.14376
1.14201
1.14085
1.13621
1.13755
1.1368
1.13517
1.13162
1.12961
1.1295
1.12721
1.1278
1.12443
1.1232
1.12474
1.12326
1.12999
1.1274
1.12717
1.12688
1.11655
1.11076
1.102
1.10571
1.10396
1.09894
1.09869
1.09263
1.08773
1.08875
1.0933
1.07995
1.08121
1.08238
1.08137
1.06924
1.07068
1.07822
1.07757
1.06848
1.05739
1.06497
1.07568
1.07818
1.07709
1.06796
1.05284
1.04613
1.044
1.05333
1.05706
1.06173
1.08203
1.09812
1.08012
1.09745
1.08198
1.0815
1.09043
1.10474
1.13019
1.11795
1.10906
1.09092
1.08949
1.08073
1.07665
1.0811
1.06224
1.08629
1.09951
1.06784
1.05576
1.07188
1.06948
1.06863
1.06204
1.0626
1.07059
1.05884
1.03928
1.05103
1.06672
1.11396
1.09827
1.0951
1.10688
1.11912
1.13817
1.14388
1.09823
1.05874
1.03379
1.05563
1.05454
1.02697
1.05641
1.06754
1.10592
1.07264
0.95533
1.1572
1.08468
1.02032
1.06323
1.22409
1.28569
1.22571
1.27389
1.26008
1.213
1.21728
1.06005
1.21085
1.20918
1.11938
1.04716
1.07641
1.11391
1.13951
1.14904
1.16458
1.16508
1.15562
1.15527
1.19363
1.15047
1.15774
1.17252
1.17851
1.16783
1.16893
1.16382
1.15528
1.15018
1.14367
1.14994
1.15344
1.14998
1.15535
1.16047
1.1574
1.15979
1.1596
1.15471
1.15546
1.15431
1.15282
1.15545
1.15691
1.16057
1.16458
1.16826
1.1692
1.169
1.16819
1.16708
1.16537
1.16416
1.16497
1.16506
1.1651
1.16615
1.16562
1.16373
1.16203
1.16014
1.15841
1.15823
1.15844
1.15714
1.15653
1.15644
1.15371
1.15088
1.14953
1.14523
1.1434
1.14441
1.14344
1.1448
1.14162
1.13983
1.13632
1.13242
1.13139
1.12822
1.12518
1.12273
1.12177
1.12299
1.12224
1.12437
1.11656
1.11662
1.11407
1.11908
1.12693
1.12658
1.12618
1.11601
1.11549
1.10794
1.1037
1.10003
1.09717
1.09738
1.09752
1.09327
1.08587
1.09343
1.08466
1.07752
1.07807
1.08187
1.07067
1.06664
1.0749
1.07822
1.07314
1.05917
1.0652
1.07265
1.07462
1.07761
1.06906
1.05203
1.04476
1.04506
1.05469
1.06368
1.07476
1.07978
1.10243
1.08713
1.10325
1.09169
1.08506
1.09067
1.09843
1.1256
1.12544
1.11453
1.09849
1.08479
1.08286
1.07374
1.08174
1.06914
1.08001
1.1088
1.09684
1.06983
1.07455
1.07244
1.08303
1.08187
1.05649
1.05921
1.05436
1.03212
1.04493
1.07565
1.13632
1.12576
1.11061
1.12328
1.14434
1.1497
1.14456
1.0846
1.04724
1.02891
1.04386
1.04867
1.02707
1.05789
1.05371
1.09359
1.09125
0.977295
1.11228
1.07512
0.988576
1.04483
1.1808
1.30017
1.22849
1.25506
1.24884
1.21852
1.1987
1.08118
1.24343
1.20797
1.10728
1.04922
1.0795
1.10869
1.13769
1.16199
1.17408
1.17369
1.16568
1.1762
1.20733
1.1502
1.15728
1.17019
1.1763
1.16566
1.16267
1.16139
1.15287
1.15068
1.14812
1.1472
1.15293
1.15119
1.14931
1.15478
1.15519
1.15593
1.16385
1.16444
1.16302
1.16386
1.1601
1.15867
1.15761
1.15757
1.15909
1.16109
1.16301
1.16431
1.16494
1.16447
1.16407
1.16333
1.16158
1.1603
1.15987
1.15996
1.15988
1.16118
1.16145
1.16182
1.16222
1.16039
1.15903
1.15847
1.15763
1.1559
1.15395
1.15022
1.14906
1.14812
1.14378
1.14512
1.14488
1.14538
1.14404
1.14326
1.1432
1.14033
1.13366
1.12967
1.12474
1.12498
1.11823
1.11735
1.1132
1.1154
1.11595
1.11254
1.11299
1.1122
1.11451
1.10843
1.1106
1.10704
1.10198
1.10196
1.10123
1.10418
1.10379
1.09556
1.09491
1.09543
1.08532
1.09151
1.08913
1.07896
1.07842
1.08447
1.07648
1.06541
1.06935
1.07504
1.07189
1.05795
1.06033
1.06896
1.07302
1.07751
1.06996
1.04973
1.04272
1.04628
1.0538
1.06523
1.08558
1.08545
1.10806
1.09921
1.10349
1.10382
1.09253
1.09559
1.09527
1.11834
1.1288
1.12111
1.10672
1.08889
1.08631
1.07747
1.08697
1.08003
1.06685
1.10813
1.11397
1.07226
1.07546
1.07876
1.07986
1.07984
1.06266
1.06342
1.06965
1.04552
1.04449
1.06808
1.12711
1.11901
1.11122
1.10978
1.12925
1.13453
1.14419
1.09889
1.05225
1.03135
1.03597
1.04358
1.02691
1.05734
1.04409
1.0744
1.09781
0.996437
1.06743
1.07377
0.97548
1.02072
1.13058
1.25955
1.22896
1.25546
1.23102
1.23627
1.17452
1.11468
1.24943
1.19942
1.10138
1.05864
1.09848
1.11242
1.13295
1.16408
1.17874
1.17953
1.16967
1.19588
1.20412
1.15095
1.15993
1.17211
1.18058
1.17354
1.16271
1.16275
1.15824
1.15281
1.14938
1.14746
1.14856
1.15425
1.15516
1.1564
1.15802
1.15304
1.15269
1.15682
1.15741
1.16028
1.16158
1.16121
1.16122
1.16097
1.1616
1.16228
1.16363
1.16445
1.16597
1.16704
1.16689
1.16648
1.1662
1.16555
1.16343
1.16277
1.16141
1.15931
1.16106
1.16162
1.15978
1.16057
1.16168
1.16015
1.16012
1.15726
1.15583
1.15524
1.15241
1.15154
1.14702
1.14947
1.1486
1.14967
1.14683
1.14511
1.14043
1.1382
1.13531
1.13331
1.12992
1.12827
1.12588
1.12097
1.11937
1.11272
1.11317
1.11193
1.11399
1.10956
1.11166
1.11017
1.10469
1.10528
1.10204
1.10574
1.09929
1.09633
1.10053
1.09632
1.09457
1.0967
1.08841
1.08976
1.08939
1.07885
1.07748
1.08214
1.07806
1.06552
1.07057
1.07855
1.07561
1.06227
1.06188
1.06826