/*--------------------------------*- C++ -*----------------------------------*\
| =========                 |                                                 |
| \\      /  F ield         | OpenFOAM: The Open Source CFD Toolbox           |
|  \\    /   O peration     | Version:  dev                                   |
|   \\  /    A nd           | Web:      http://www.openfoam.org               |
|    \\/     M anipulation  |                                                 |
\*---------------------------------------------------------------------------*/
FoamFile
{
    version     2.0;
    format      ascii;
    class       volScalarField;
    object      T;
    location    "9.161";
}
// * * * * * * * * * * * * * * * * * * * * * * * * * * * * * * * * * * * * * //

dimensions      [0 0 0 1 0 0 0];

internalField   nonuniform List<scalar> 
12225
(
300.744
299.991
299.912
299.984
299.914
300.03
299.945
300.041
299.959
300.023
299.94
300.057
299.896
300.374
299.735
300.935
298.317
297.597
300.214
299.206
299.122
299.193
299.146
299.214
299.305
299.299
299.512
299.452
299.602
299.755
299.448
300.521
298.981
302.305
298.765
298.472
300.15
299.2
299.051
299.05
298.996
298.927
299.098
298.939
299.308
299.029
299.538
299.102
299.631
299.217
299.011
299.953
298.372
299.53
300.045
299.236
299.095
299.048
298.973
298.871
298.927
298.882
298.987
298.977
299.153
299.189
299.322
299.353
299.409
299.413
298.696
299.462
300.139
299.093
299.045
298.933
298.945
298.831
298.942
298.843
299.015
298.924
299.172
299.121
299.365
299.347
299.743
299.389
299.995
299.989
300.114
299.058
298.958
298.96
298.777
299.033
298.743
299.039
298.795
299.117
299.026
299.262
299.165
299.583
299.126
300.114
299.656
299.22
300.049
298.875
299.087
298.691
299.033
298.785
298.871
298.76
298.926
298.833
299.155
298.93
299.275
299.136
299.209
299.45
299.191
299.286
299.977
299.038
298.939
298.817
298.891
298.903
298.766
298.945
298.779
299.073
298.955
299.114
299.064
299.296
299.393
299.441
299.523
299.707
299.958
299.098
298.82
298.853
298.782
298.779
298.792
298.76
298.817
298.828
298.976
298.866
299.005
299.1
299.375
299.304
299.432
299.469
299.961
298.885
298.836
298.847
298.684
298.782
298.709
298.823
298.738
298.855
298.831
298.997
299.039
299.203
299.33
299.394
299.484
299.519
299.947
298.777
298.905
298.739
298.757
298.755
298.724
298.766
298.817
298.828
298.899
299.011
299.167
299.181
299.26
299.354
299.498
299.574
299.736
298.751
298.886
298.677
298.761
298.628
298.744
298.744
298.802
298.766
298.846
298.967
299.154
299.203
299.277
299.342
299.488
299.603
299.569
298.749
298.672
298.577
298.608
298.49
298.609
298.556
298.686
298.728
298.839
298.958
299.103
299.217
299.251
299.332
299.524
299.653
299.507
298.627
298.407
298.518
298.406
298.413
298.489
298.492
298.61
298.627
298.735
298.88
298.983
299.134
299.181
299.311
299.394
299.568
299.384
298.323
298.222
298.343
298.185
298.311
298.318
298.392
298.503
298.566
298.658
298.796
298.882
299.049
299.13
299.3
299.352
299.555
299.14
297.942
298.032
298.037
297.981
298.1
298.102
298.217
298.288
298.384
298.481
298.564
298.676
298.854
298.91
299.096
299.196
299.386
298.75
297.627
297.734
297.649
297.753
297.766
297.862
297.949
298.054
298.133
298.262
298.356
298.488
298.6
298.735
298.927
298.997
299.184
298.477
297.307
297.264
297.279
297.367
297.342
297.518
297.537
297.715
297.759
297.958
298.02
298.213
298.309
298.472
298.609
298.743
298.908
298.198
296.892
296.87
296.988
296.967
297.025
297.139
297.174
297.331
297.402
297.593
297.687
297.878
297.938
298.148
298.23
298.379
298.512
297.859
296.495
296.583
296.585
296.61
296.67
296.75
296.846
296.925
297.064
297.153
297.294
297.414
297.542
297.718
297.851
298.031
298.158
297.673
296.305
296.312
296.27
296.285
296.403
296.465
296.576
296.677
296.743
296.869
296.999
297.078
297.266
297.38
297.552
297.706
297.858
297.492
296.049
296.038
296.051
296.079
296.123
296.199
296.322
296.384
296.538
296.649
296.76
296.935
297.035
297.189
297.331
297.439
297.614
297.295
295.869
295.877
295.89
295.899
295.932
296.047
296.068
296.211
296.299
296.41
296.574
296.673
296.842
296.963
297.105
297.253
297.381
297.161
295.729
295.774
295.749
295.758
295.822
295.839
295.961
296.038
296.147
296.28
296.374
296.529
296.647
296.787
296.942
297.065
297.237
297.137
295.667
295.681
295.694
295.67
295.669
295.729
295.794
295.898
296.021
296.136
296.277
296.399
296.538
296.671
296.805
296.948
297.091
297.109
295.582
295.606
295.594
295.587
295.612
295.661
295.744
295.837
295.949
296.063
296.183
296.306
296.429
296.559
296.691
296.832
296.976
296.988
295.541
295.572
295.574
295.568
295.589
295.632
295.696
295.781
295.885
296.004
296.135
296.274
296.414
296.556
296.699
296.841
296.987
297.055
295.508
295.541
295.556
295.556
295.582
295.633
295.703
295.793
295.902
296.026
296.16
296.3
296.442
296.585
296.73
296.878
297.029
297.06
295.477
295.507
295.545
295.572
295.625
295.701
295.797
295.906
296.024
296.149
296.276
296.407
296.539
296.679
296.82
296.97
297.123
297.546
296.189
296.201
296.225
296.244
296.286
296.343
296.411
296.484
296.564
296.647
296.735
296.829
296.929
297.036
297.146
297.271
297.382
295.054
290.311
287.858
286.536
285.794
285.311
284.928
284.593
284.309
284.038
283.881
283.731
283.616
283.689
283.843
284.026
284.365
284.88
285.344
285.741
286.339
287.234
288.231
289.075
289.823
290.253
290.694
291.934
293.309
293.733
292.888
291.336
290.721
291.977
293.646
294.251
294.24
295.819
298.531
299.215
298.432
298.226
298.418
298.598
298.72
298.809
298.87
298.922
298.958
298.984
298.995
298.993
298.981
298.962
298.94
298.915
298.883
298.842
298.795
298.745
298.687
298.618
298.538
298.445
298.341
298.224
298.101
297.966
297.821
297.661
297.49
297.294
297.071
296.833
296.572
296.292
295.976
295.641
295.263
294.804
294.276
293.738
293.266
292.838
292.558
292.423
292.297
292.164
291.935
291.512
290.934
290.287
289.709
289.144
288.587
287.953
287.348
286.723
286.212
285.778
285.307
284.533
283.345
282.006
280.392
278.767
277.14
275.592
274.871
274.297
274.46
274.498
275.147
277.12
279.606
282.988
283.797
281.716
280.365
282.325
284.891
281.244
279.646
281.139
281.507
281.592
278.128
275.413
275.765
279.055
274.393
274.647
273.496
273.27
273.554
274.063
274.685
275.33
275.736
276.1
276.48
276.867
277.511
278.342
278.838
278.697
278.2
277.316
276.359
275.236
274.273
272.626
271.265
269.39
267.727
264.82
263.085
263.689
263.263
263.012
259.864
255.74
253.95
257.786
261.154
262.772
259.602
256.446
255.565
261.292
266.096
258.521
247.666
249.155
250.483
250.016
251.624
253.2
257.716
262.708
294.866
289.648
287.609
287.272
287.34
287.238
286.85
286.258
285.586
284.931
284.117
283.353
282.386
281.543
280.716
279.997
279.606
279.22
279.073
278.7
278.496
279.092
279.552
279.873
280.534
281.143
281.38
281.834
283.672
285.194
285.849
283.622
281.878
284.715
290.168
294.845
297.069
297.981
298.495
298.683
298.86
299.08
299.253
299.331
299.354
299.367
299.33
299.245
299.185
299.068
298.983
298.883
298.816
298.744
298.673
298.595
298.495
298.404
298.336
298.299
298.251
298.19
298.13
298.078
298.007
297.929
297.889
297.833
297.782
297.727
297.711
297.642
297.531
297.432
297.271
297.088
296.844
296.577
296.261
295.746
294.98
293.949
292.998
291.72
290.676
290.604
290.93
291.56
292.432
292.697
292.065
290.067
287.928
286.331
285.258
284.113
283.054
281.983
280.757
280.387
279.563
277.325
275.615
275.803
274.325
269.976
266.533
265.702
266.794
267.106
267.819
268.424
265.368
264.499
270.826
274.545
275.679
276.877
275.86
277.672
279.137
279.207
281.983
284.031
284.248
280.22
275.852
278.095
280.814
285.806
277.642
279.84
273.583
270.674
267.584
265.635
264.852
265.39
266.753
267.798
268.425
268.068
267.021
267.418
268.219
267.627
266.892
266.668
266.494
265.015
263.318
259.431
255.925
250.469
246.734
240.564
235.307
237.233
236.549
238.467
235.222
226.686
224.336
236.077
243.262
242.327
240.634
247.32
252.312
266.388
261.936
272.408
245.31
227.785
222.868
219.826
219.786
219.32
222.76
231.242
296.181
293.039
292.654
292.99
292.868
292.219
291.15
290.091
289.338
288.865
288.254
287.872
287.171
286.355
285.64
284.776
284.149
283.439
282.043
280.604
280.282
279.859
279.453
279.548
278.404
277.966
278.572
279.96
278.866
274.7
278.253
289.018
295.648
297.045
298.262
299.277
299.555
299.668
299.569
299.421
299.288
299.058
298.769
298.558
298.263
298.028
297.875
297.697
297.512
297.374
297.281
297.196
297.153
297.122
297.1
297.039
296.995
296.912
296.839
296.828
296.76
296.657
296.565
296.514
296.399
296.316
296.262
296.208
296.138
296.085
296.128
296.226
296.298
296.391
296.47
296.547
296.639
296.651
296.727
296.795
296.799
296.473
296.005
294.974
293.541
292.779
292.643
292.599
293.651
295.244
296.773
295.47
292.271
289.636
288.053
287.39
284.279
281.675
281.122
281.101
279.658
278.814
278.445
276.032
273.614
271.517
268.153
266.996
269.373
270.719
271.125
271.341
269.344
269.491
272.497
275.086
273.57
270.762
272.546
274.759
271.665
272.705
278.832
280.151
279.928
277.149
277.963
284.23
283.752
285.265
287.849
290.524
287.071
285.374
281.944
278.907
276.288
275.047
276.748
279.228
281.168
279.995
273.926
269.581
269.503
268.876
267.017
264.504
262.391
261.021
259.916
256.937
253.237
246.11
239.875
235.47
231.687
230.379
225.192
225.888
218.996
211.41
215.877
229.932
232.105
232.179
232.81
241.818
254.74
253.049
240.313
238.742
264.695
233.832
218.165
212.489
211.902
216.113
215.168
214.131
297.118
295.097
294.631
293.454
291.672
289.831
287.817
285.889
284.817
284.163
283.933
283.889
283.569
283.635
284.294
284.643
284.708
283.945
282.632
281.64
281.083
280.893
279.836
276.738
276.581
279.358
276.267
274.426
282.657
292.183
295.314
297.123
298.143
298.161
298.308
298.208
298.026
297.789
297.607
297.404
297.154
297.04
296.932
296.829
296.895
296.954
297.018
297.212
297.394
297.649
297.821
298.065
298.264
298.371
298.494
298.58
298.625
298.646
298.616
298.522
298.397
298.207
297.99
297.806
297.56
297.371
297.115
296.92
296.606
296.266
295.887
295.66
295.437
295.155
294.97
294.824
294.757
294.527
294.492
294.279
294.383
294.466
294.509
294.57
294.59
294.356
294.078
293.348
292.2
292.028
293.371
293.667
291.219
288.772
289.344
292.995
290.68
285.634
285.172
286.076
283.509
282.952
284.115
284.486
286.215
285.423
278.585
272.085
270.331
268.543
267.58
268.808
268.37
269.272
272.27
272.954
270.037
269.201
269.73
272.183
272.588
275.221
278.807
277.722
275.962
273.626
281.117
286.585
281.347
282.839
285.762
287.577
285.889
285.554
284.426
282.918
280.616
278.182
277.938
278.268
280.033
285.522
287.022
279.612
273.172
271.584
270.842
268.67
264.847
261.793
258.255
257.314
254.104
247.134
238.778
240.559
246.37
240.499
226.846
218.797
208.961
208.309
220.045
231.015
227.975
225.93
232.835
232.767
239.884
241.17
245.612
223.572
262.615
238.078
222.006
223.742
216.296
223.823
232.961
234.505
297.75
296.579
295.177
292.156
289.299
287.14
285.342
283.668
282.649
282.177
281.894
281.74
282.203
282.614
282.931
283.541
283.514
282.912
282.011
280.555
279.921
282.734
285.267
282.836
279.966
280.949
284.462
289.123
293.323
295.833
296.755
297.354
297.846
298.132
298.288
298.276
298.242
298.223
298.172
298.137
298.129
298.014
298.059
298.085
298.13
298.286
298.414
298.627
298.816
299.028
299.23
299.403
299.53
299.6
299.584
299.546
299.488
299.45
299.462
299.405
299.38
299.366
299.343
299.299
299.264
299.188
299.067
299.07
298.961
298.733
298.486
298.286
297.954
297.643
297.263
297.059
296.848
296.146
296.47
295.783
296.005
295.153
294.349
293.445
292.706
292.708
293.366
294.966
295.297
294.653
293.442
292.148
291.173
289.349
288.169
292.238
294.593
290.517
289.972
294.167
291.795
289.071
289.864
289.879
291.426
293.186
293.26
289.23
281.776
275.468
274.157
274.56
271.44
269.691
270.206
269.134
267.633
268.501
265.218
265.223
271.038
276.045
279.064
281.692
280.185
278.61
287.2
286.367
289.398
289.746
290.26
293.384
290.172
289.196
289.397
290.947
288.786
282.796
277.031
275.265
274.662
275.565
281.998
284.707
278.429
273.696
274.884
275.928
270.774
266.771
258.549
257.1
256.442
254.001
241.332
241.379
254.674
254.237
234.094
214.862
205.585
211.593
225.322
231.198
222.486
211.503
216.714
235.377
227.025
235.877
253.149
262.946
252.895
249.047
228.502
234.305
226.926
223.459
233.011
246.111
297.989
296.69
293.11
288.811
286.051
284.147
282.58
281.327
280.933
281.437
282.328
283.316
284.31
284.815
285.219
285.884
285.59
286.977
290.246
291.338
287.929
284.534
284.992
285.811
287.037
289.436
292.171
294.888
296.653
297.855
298.673
299.027
299.064
298.855
298.42
297.95
297.6
297.164
296.784
296.473
296.22
296.064
296.045
296.06
296.186
296.341
296.652
296.999
297.258
297.558
297.726
297.811
297.824
297.79
297.647
297.551
297.476
297.366
297.334
297.283
297.33
297.343
297.454
297.612
297.88
298.147
298.335
298.542
298.781
298.623
298.597
298.597
298.343
298.304
298.035
298.076
298.137
297.141
298.127
296.75
297.658
297.654
297.038
296.097
294.486
292.746
291.446
291.887
293.248
293.849
294.438
293.696
292.794
293.167
292.753
292.293
293.895
292.859
292.313
296.915
296.007
291.532
292.149
296.058
296.366
295.24
295.055
292.356
287.377
284.182
281.156
277.868
273.008
270.125
269.263
268.224
267.442
269.709
266.942
264.304
272.297
280.029
283.37
284.765
283.707
282.419
281.684
279.894
283.49
286.845
285.394
292.58
289.005
289.975
286.191
290.709
294.341
292.728
286.412
282.307
283.44
282.959
282.521
286.63
284.25
275.265
273.046
279.494
279.789
276.008
264.537
260.325
256.422
254.986
245.497
241.082
253.338
259.894
241.141
215.487
206.237
215.699
226.181
226.382
217.112
212.901
207.795
231.284
233.332
226.529
240.266
244.119
243.234
253.568
235.294
241.809
246.064
239.138
233.542
239.091
297.773
295.263
290.247
286.924
285.653
284.263
282.863
281.868
282.754
284.483
285.621
287.352
290.054
293.637
295.805
295.59
293.69
292.161
293.23
293.458
291.207
290.14
290.599
291.172
292.689
294.372
296.194
297.735
298.538
298.945
298.734
298.169
297.364
296.537
295.873
295.425
295.105
294.931
295.046
295.117
295.288
295.502
295.813
296.156
296.579
296.929
297.208
297.514
297.703
297.707
297.616
297.573
297.364
297.198
297.071
296.995
296.938
296.837
296.799
296.724
296.626
296.431
296.262
296.21
296.263
296.628
297.137
297.682
298.369
298.454
298.766
298.82
298.576
298.461
298.207
297.968
298.035
297.159
298.692
297.378
297.134
297.417
297.746
297.841
297.702
296.923
294.71
293.123
293.392
293.998
294.534
294.862
293.152
292.339
293.35
291.488
290.511
290.312
289.761
294.211
297.995
296.316
293.419
293.888
293.904
294.214
295.362
292.78
290.233
288.614
284.329
279.126
273.945
270.605
269.676
269.756
267.371
269.235
270.798
269.477
274.597
278.391
273.609
270.243
278.869
279.734
278.683
286.195
290.248
294.517
289.287
297.063
292.201
298.884
292.883
288.369
287.589
289.333
287.78
285.785
283.895
282.888
280.422
282.683
286.605
281.226
275.477
278.345
278.23
278.473
270.105
262.608
252.921
256.588
246.444
237.801
252.77
262.407
243.914
216.011
208.112
218.761
224.51
222.245
214.887
225.654
227.006
208.308
207.164
229.58
246.641
238.237
246.466
253.549
248.112
249.12
254.739
258.769
250.046
243.878
297.397
294.035
289.428
287.499
285.97
283.975
283.47
283.755
285.27
287.295
291.393
295.922
297.56
297.088
296.278
295.817
294.499
293.475
293.367
292.927
292.978
293.313
293.962
295.045
296.441
297.383
298.494
298.748
298.504
297.833
296.75
295.919
295.078
294.798
294.906
295.165
295.587
295.929
296.143
296.25
296.396
296.534
296.691
296.772
296.798
296.773
296.75
296.565
296.351
296.252
296.098
296.022
296.057
296.071
296.109
296.169
296.237
296.267
296.291
296.258
296.064
295.952
295.547
295.197
294.759
294.663
294.798
295.278
296.02
296.288
296.758
296.973
297.076
297.176
297.566
297.49
297.427
296.374
297.528
297.565
297.631
297.456
296.609
296.386
296.779
297.872
297.388
295.135
293.627
293.386
294.753
295.771
294.856
292.398
292.394
290.764
289.09
290.273
290.444
292.061
294.517
296.846
297.119
298.607
295.694
292.458
292.091
290.185
289.855
291.639
286.886
280.954
275.054
271.104
270.912
271.173
267.013
265.703
269.171
271.703
273.431
271.859
264.856
272.872
287.206
287.785
284.166
283.774
289.567
288.914
287.46
290.837
289.544
293.847
298.251
294.876
289.981
288.423
283.429
284.92
285.073
284.472
283.058
279.574
284.142
282.994
276.384
278.263
277.171
280.921
273.908
262.412
252.862
273.109
253.611
236.051
255.309
267.923
246.812
216.991
210.746
220.075
223.062
218.627
214.666
232.064
240.549
211.359
177.635
231.059
245.21
246.63
244.923
251.735
258.958
253.281
250.484
257.233
249.427
240.935
297.212
293.746
289.241
286.964
284.102
282.325
283.47
284.846
287.373
291.694
296.814
298.512
296.268
294.756
294.821
296.658
297.471
296.357
295.639
295.088
295.284
295.459
296.047
296.962
297.52
298.096
298.132
297.563
296.823
295.913
295.231
294.964
295.034
295.389
295.635
295.803
295.539
295.262
294.997
294.85
294.924
294.9
294.944
294.969
295.154
295.271
295.447
295.789
296.029
296.329
296.67
296.914
297.17
297.29
297.36
297.307
297.194
297.095
296.949
296.933
296.593
296.339
295.915
295.623
294.987
294.632
294.432
294.951
295.697
296.483
296.845
296.894
296.767
296.416
296.554
296.831
297.223
296.685
296.453
296.474
296.77
298.193
299.324
298.466
297.31
297.551
298.998
298.187
296.811
294.361
294.444
295.241
295.726
294.199
293.357
291.972
289.63
291.057
293.809
296.938
297.543
297.855
297.64
299.215
298.283
295.07
294.678
290.661
288.52
291.668
287.867
281.666
276.698
272.07
272.499
273.049
267.728
263.142
265.91
267.757
268.397
267.062
265.679
280.105
287.555
287.342
286.215
284.867
287.476
290.94
293.74
293.544
297.826
293.381
294.846
291.151
288.899
291.724
286.381
281.991
282.492
279.75
282.614
279.541
281.929
284.507
277.49
277.447
275.895
282.915
274.158
261.527
260.194
295.106
270.378
239.534
259.043
273.852
251.872
217.551
213.235
219.504
220.728
214.584
213.449
229.902
229.365
214.798
192.945
235.58
248.196
244.479
242.486
244.794
251.515
249.499
246.083
250.873
245.089
236.173
297.069
293.181
288.378
286.429
283.799
282.866
285.377
288.205
291.817
296.277
299.192
297.869
297.075
298.196
295.883
295.091
295.998
295.319
295.907
296.021
296.676
297.591
298.054
298.532
298.56
298.099
297.177
296.166
295.377
294.645
294.505
294.663
294.931
295.385
295.382
295.341
295.05
294.908
295.062
295.312
295.684
295.864
296.211
296.585
296.812
297.065
297.361
297.651
297.892
298.098
298.223
298.181
298.068
297.817
297.511
297.203
296.86
296.745
296.573
296.753
296.783
296.555
296.195
295.757
295.175
294.348
293.183
292.673
292.794
294.059
295.496
296.381
297.074
297.686
297.423
297.737
297.661
298.107
297.629
298.031
296.499
294.234
295.744
297.397
297.839
297.139
297.927
297.989
298.291
296.756
295.856
295.906
296.493
295.414
293.702
293.098
291.363
291.012
293.13
296.768
297.48
298.021
298.3
300.198
300.389
295.444
295.572
293.426
288.908
291.826
289.181
283.051
277.547
273.312
273.809
275.574
270.062
265.242
264.146
263.857
266.467
268.337
271.541
277.623
286.658
288.402
285.234
283.781
286.079
289.859
289.857
286.556
293.36
295.916
298.955
292.778
288.901
292.363
291.628
283.345
283.625
278.52
278.85
277.017
277.212
284.524
278.961
276.829
276.03
284.151
272.803
262.431
269.347
305.118
286.025
245.557
264.025
276.575
254.594
218.812
215.137
218.803
217.595
210.356
213.951
224.59
219.66
214.671
208.051
226.651
244.018
241.407
240.147
239.76
243.222
243.324
242.026
244.163
242.413
235.943
296.951
292.962
288.817
287.748
285.626
285.656
289.598
293.904
298.066
299.256
298.709
296.865
295.738
297.399
297.525
297.489
297.874
296.547
296.825
297.012
297.03
297.001
297.195
296.957
296.243
295.69
294.867
294.412
294.226
294.372
294.912
295.441
295.91
295.989
295.657
295.153
294.843
295.036
295.565
296.044
296.28
296.332
296.514
296.73
296.956
297.163
297.46
297.813
298.072
298.222
298.258
298.11
297.867
297.634
297.353
297.246
296.816
296.64
296.493
296.888
297.565
297.775
297.943
297.536
297.639
297.633
297.051
295.695
294.164
292.95
293.056
293.742
293.798
294.842
295.521
296.519
296.334
299.006
297.595
298.929
301.118
298.843
297.405
297.242
298.354
297.647
297.649
298.341
299.258
297.628
294.9
294.518
296.207
297.49
296.493
295.168
292.448
290.1
291.204
293.896
295.318
296.395
298.276
300.673
302.1
294.665
291.571
293.852
289.093
291.024
289.652
283.69
278.448
274.183
274.329
276.686
273.6
269.642
267.352
264.844
269.114
273.912
277.991
283.287
289.488
297.165
293.315
287.775
288.185
293.465
296.624
294.859
291.392
294.277
297.681
292.751
290.486
284.925
285.118
278.277
276.564
274.823
275.111
275.884
274.574
284.348
280.816
276.2
276.723
286.008
274.323
263.847
272.731
307.026
296.212
246.261
266.982
275.146
252.52
218.04
216.81
219.926
215.812
209.892
215.939
220.244
214.11
210.882
207.183
229.524
251.746
249.281
241.696
238.523
239.512
238.54
239.218
239.905
241.753
236.248
297.142
293.68
289.758
289.026
287.992
288.76
292.886
296.313
299.504
298.776
297.632
298.542
297.886
297.659
296.784
296.209
296.127
296.116
296.88
297.597
297.861
298.479
298.163
297.745
296.971
296.229
295.575
295.459
295.616
295.797
296.333
296.376
296.562
296.337
295.816
295.511
295.472
295.828
296.317
296.498
296.247
296.029
296.102
296.494
297.031
297.543
298.14
298.628
298.928
298.93
298.688
298.309
297.874
297.557
296.992
296.883
296.621
296.399
295.851
295.693
295.928
296.141
296.242
295.642
295.244
295.595
296.525
296.759
296.254
295.39
294.442
294.479
294.641
294.187
294.683
296.584
294.215
297.14
296.97
296.341
297.832
298.444
298.236
297.965
299.248
298.595
296.536
297.177
299.984
300.475
297.028
295.235
296.172
297.877
298.111
296.144
292.812
290.696
292.452
295.236
297.064
298.244
299.707
299.475
301.698
295.648
288.851
291.732
288.524
290.243
291.175
285.533
280.48
275.103
275.334
278.098
277.064
275.614
271.781
271.756
273.696
280.558
287.43
286.677
294.241
293.225
288.152
286.146
286.061
287.964
289.539
288.683
290.484
297.947
301.914
294.211
296.146
285.249
285.193
280.275
273.422
271.486
269.783
272.102
271.48
282.431
283.718
276.733
277.945
286.137
274.294
264.931
269.812
300.93
306.832
245.126
266.547
272.642
255.891
217.665
217.122
220.943
214.105
215.103
217.703
217.817
227.064
209.564
212.172
229.408
245.768
243.688
237.044
235.048
236.667
234.321
235.631
236.693
241.983
236.248
297.476
294.398
290.471
290.26
290.125
290.883
295.547
298.02
300.08
299.616
297.212
297.398
297.933
297.417
297.907
298.001
297.862
297.622
297.086
297
296.989
296.805
296.279
295.743
295.034
294.521
294.282
294.325
294.877
295.278
295.986
296.325
296.26
296.113
295.593
295.45
295.087
295.111
295.548
295.729
295.707
295.583
295.493
295.945
296.569
297.293
297.963
298.343
298.509
298.234
297.781
297.45
297.007
296.844
296.506
296.538
296.673
297.137
296.941
297.085
297.299
297.578
296.991
296.301
294.831
293.965
294.082
294.894
295.003
294.002
293.28
291.988
292.436
293.091
292.774
296.04
297.137
298.017
298.189
298.562
297.998
298.374
298.597
298.285
299.449
300.288
297.156
296.64
298.862
300.577
297.487
295.614
296.392
298.302
299.42
296.643
293.09
291.611
293.54
295.628
297.672
299.751
301.763
299.272
297.305
294.536
287.271
289.302
287.745
286.802
290.835
286.706
283.045
276.469
274.842
279.278
279.68
280.363
278.444
278.828
279.913
285.093
293.107
290.301
294.3
299.331
297.56
292.515
291.27
293.63
296.926
292.526
289.883
295.748
302.216
293.554
293.958
282.748
282.108
282.618
275.466
271.669
269.708
272.797
273.21
281.795
286.045
277.896
279.592
287.653
277.395
268.76
266.744
289.324
312.206
244.804
265.673
271.361
262.819
223.057
219.383
222.025
213.261
219.521
221.68
216.856
249.37
217.798
216.776
232.624
251.693
248.714
238.618
232.534
232.954
230.736
231.851
233.66
239.127
233.005
297.718
294.864
291.055
291.189
291.936
291.353
295.424
298.556
299.793
298.627
298.2
298.029
298.239
297.369
297.054
296.639
296.198
296.476
297.589
297.708
297.812
298.173
297.724
296.986
296.207
295.44
295.113
295.105
295.279
295.45
295.601
296.117
295.967
296.101
296.181
296.025
296.033
296.506
296.835
297.331
297.802
297.547
297.075
296.804
296.493
296.669
296.97
297.098
297.371
297.431
297.265
297.25
297.056
296.97
296.693
296.579
296.483
296.938
296.875
297.466
297.733
298.828
298.633
298.663
297.983
296.892
296.478
295.971
296.873
296.203
295.119
293.785
291.445
292.216
293.262
293.605
295.243
296.246
297.614
298.93
298.008
298.436
298.645
297.878
298.373
301.094
298.356
297.811
299.287
301.691
299.112
296.282
296.15
297.888
299.903
297.446
294.054
293.155
294.258
295.398
297.601
298.915
300.986
299.444
296.441
294.859
287.395
286.626
288.58
285.093
289.44
287.412
284.719
279.058
275.034
278.773
281.136
283.775
284.019
285.195
285.573
288.275
293.19
290.4
289.98
295.835
294.77
289.972
289.561
287.073
290.016
293.575
292.445
298.209
304.58
296.405
292.168
279.315
281.021
281.133
275.564
268.726
263.853
265.143
271.049
281.601
288.58
280.32
280.243
288.736
281.009
273.333
264.559
278.969
311.762
246.476
265.467
274.66
267.04
228.535
222.748
226.847
215.243
219.628
225.342
218.609
259.966
223.403
220.457
233.751
250.751
246.579
238.174
231.945
230.566
227.932
229.271
232.322
235.389
229.329
298.119
295.854
291.959
291.291
293.441
293.153
295.829
298.262
300.68
299.677
297.334
298.139
298.207
297.44
297.797
298.182
297.494
297.022
296.722
296.563
296.613
296.32
296.062
295.652
294.845
294.423
294.385
294.832
295.371
296.197
296.387
296.506
296.621
296.629
296.375
296.305
296.581
296.654
296.831
297.461
297.913
297.797
297.692
297.061
296.369
296.328
296.209
296.297
296.58
296.601
296.972
297.041
296.509
296.286
296.239
296.437
296.422
297.399
296.85
296.697
296.77
297.371
297.644
297.336
297.602
297.075
297.546
297.584
296.771
296.837
294.637
294.749
294.393
293.866
296.023
297.11
299.1
297.699
297.536
298.369
297.892
298.938
299.782
299.009
297.089
300.133
299.284
298.349
297.964
300.741
299.814
297.106
296.626
298.517
301.096
298.426
294.866
293.592
293.331
295.281
299.009
300.471
300.664
297.596
296.148
294.541
288.751
284.159
288.685
283.991
287.913
288.012
285.659
281.902
275.628
278.798
281.152
285.938
286.389
288.924
290.183
289.285
294.692
288.445
284.813
293.093
296.923
292.659
293.196
293.237
294.675
294.564
291.875
293.995
299.199
295.897
291.188
277.611
279.863
280.252
276.734
272.956
267.485
264.271
273.729
283.325
290.203
283.735
282.242
289.402
281.137
277.327
266.389
271.994
305.987
252.734
266.734
283.41
271.362
234.084
220.844
229.595
219.082
219.667
226.45
223.925
255.19
222.466
221.075
237.851
253.116
245.34
236.876
231.487
229.4
226.929
227.586
230.597
231.929
226.361
298.415
296.517
292.765
291.327
293.97
293.662
295.085
297.294
298.73
300.369
298.625
297.881
298.788
297.37
296.193
297.043
296.443
296.607
297.883
297.696
298.021
298.359
297.673
297.272
296.308
295.288
294.361
294.136
294.201
294.427
294.66
295.042
295.32
295.046
294.906
294.818
294.469
294.45
294.81
295.142
295.496
295.811
295.706
295.408
295.497
295.476
295.23
295.633
296.144
296.217
297.071
297.405
296.919
296.923
296.265
296.749
296.931
297.508
298.283
298.27
298.752
299.246
299.591
299.592
298.911
298.772
297.679
299.299
298.984
299.329
297.755
295.157
294.654
294.138
296.336
296.05
297.514
298.219
298.719
299.017
298.468
297.841
298.365
299.937
297.302
299.008
300.462
299.796
298.095
300.565
301.188
298.313
296.756
297.516
300.882
298.666
296.015
294.9
293.532
295.319
299.603
301.255
300.76
297.627
294.733
291.335
289.747
283.495
287.277
282.941
285.825
287.571
286.125
284.095
277.253
277.511
280.348
284.65
288.296
289.092
291.741
289.797
293.461
290.813
283.305
285.968
293.46
292.488
293.024
290.045
289.697
296.642
295.887
296.199
302.288
298.868
290.277
273.505
274.147
277.3
274.034
267.971
265.578
264.857
277.961
287.606
292.638
287.956
285.002
290.444
281.391
281.571
270.416
268.489
299.322
263.347
269.732
292.897
276.802
243.35
218.811
229.531
222.949
222.143
225.905
228.014
250.544
217.205
222.022
241.171
253.205
245.279
239.065
233.081
228.014
226.296
227.298
230.19
229.323
225.58
298.566
296.748
293.454
292.003
294.73
295.336
295.767
298.03
298.618
299.362
299.52
298.051
298.687
299.16
297.741
297.748
297.512
295.54
295.545
295.946
295.823
296.841
297.198
297.475
297.457
297.043
296.492
296.001
295.661
295.496
295.605
295.685
295.815
296.173
296.438
296.46
296.328
296.253
295.81
295.635
295.433
295.131
295.392
295.588
295.546
295.534
295.707
295.931
296.678
296.797
296.722
297.618
297.117
296.888
296.452
296.478
296.419
296.09
296.368
297.75
298.494
299.547
299.097
300.511
300.45
301.249
300.395
299.719
300.209
299.712
299.538
298.378
299.542
298.561
298.925
299.875
299.461
299.206
297.914
297.357
299.05
298.807
298.032
300.298
298.123
298.079
300.323
300.015
297.728
299.257
301.83
300.214
298.019
298.247
301.614
300.437
297.461
295.776
294
295.513
300.722
302.336
300.907
298.374
294.843
288.95
288.734
282.594
284.629
283.409
283.268
286.15
285.427
285.543
279.686
277.247
279.36
283.143
288.034
288.852
291.5
289.172
291.117
295.143
284.502
282.45
293.384
292.987
292.203
291.917
291.606
296.011
295.826
293.044
298.927
299.621
293.402
276.962
277.362
278.153
278.23
272.804
270.549
266.515
275.567
287.144
292.801
291.148
287.622
291.622
282.356
284.847
276.231
268.073
294.103
275.062
270.934
297.026
283.897
254.904
226.379
230.14
223.521
225.968
223.218
233.449
243.818
217.095
224.306
243.501
252.01
242.054
239.195
234.896
228.747
226.776
227.594
230.973
227.211
228.212
298.472
296.31
293.161
290.9
292.653
295.393
295.409
296.738
298.212
299.129
299.619
299.221
297.848
297.777
297.509
297.259
298.65
298.65
297.624
297.523
296.816
296.598
296.748
296.806
296.901
296.747
296.568
296.223
296.002
295.618
295.333
295.345
295.438
295.476
295.562
296.032
296.12
296.339
296.789
296.251
295.891
296.208
295.895
295.397
295.564
295.318
295.785
295.972
295.871
296.309
296.211
297.192
296.403
296.31
295.683
296.037
296.124
297.004
297.297
297.715
297.877
298.407
298.523
298.709
299.649
299.646
301.078
300.671
300.634
299.598
300.351
299.416
299.222
300.279
299.704
300.166
298.646
299.791
300.258
298.607
299.157
299.19
298.023
299.742
298.904
298.373
300.716
300.647
298.778
299.252
302.24
300.34
297.525