/*--------------------------------*- C++ -*----------------------------------*\
| =========                 |                                                 |
| \\      /  F ield         | OpenFOAM: The Open Source CFD Toolbox           |
|  \\    /   O peration     | Version:  dev                                   |
|   \\  /    A nd           | Web:      http://www.openfoam.org               |
|    \\/     M anipulation  |                                                 |
\*---------------------------------------------------------------------------*/
FoamFile
{
    version     2.0;
    format      ascii;
    class       volVectorField;
    object      U;
    location    "9.161";
}
// * * * * * * * * * * * * * * * * * * * * * * * * * * * * * * * * * * * * * //

dimensions      [0 1 -1 0 0 0 0];

internalField   nonuniform List<vector> 
12225
(
(6.4825 0.563789 0)
(2.68276 0.317603 0)
(-0.0633103 0.155131 0)
(-1.16227 0.11881 0)
(-3.15335 0.13836 0)
(-3.13344 0.115202 0)
(-5.58369 0.201446 0)
(-4.75958 0.0435022 0)
(-7.83626 0.300776 0)
(-6.40253 -0.0355137 0)
(-10.0539 0.403606 0)
(-8.15243 0.0333771 0)
(-11.8574 0.450995 0)
(-10.7456 0.244993 0)
(-12.689 0.369541 0)
(-14.0098 0.159547 0)
(-4.72537 -0.758896 0)
(-21.1101 8.97861 0)
(8.96953 1.3993 0)
(7.7353 1.2097 0)
(4.18529 0.797317 0)
(4.05321 0.601564 0)
(-0.216045 0.505655 0)
(1.7728 0.497097 0)
(-4.05712 0.539094 0)
(0.294286 0.362889 0)
(-7.69175 0.738449 0)
(-0.725573 0.310501 0)
(-10.521 0.918898 0)
(-1.61743 -0.00673417 0)
(-10.7703 1.61383 0)
(-4.32572 -0.720982 0)
(-10.152 2.54644 0)
(-10.2975 -1.83883 0)
(-11.8951 -0.352592 0)
(-32.0401 6.36073 0)
(8.64864 1.49641 0)
(10.1902 1.60742 0)
(5.66455 1.25063 0)
(8.28688 1.1014 0)
(1.68798 0.942263 0)
(6.495 1.09218 0)
(-2.45741 0.83672 0)
(5.33773 1.11228 0)
(-6.26767 0.941667 0)
(4.19318 0.792154 0)
(-7.6851 1.48661 0)
(2.0731 -0.304597 0)
(-7.13521 2.32939 0)
(-1.24463 -0.509538 0)
(-7.32382 3.74297 0)
(-4.31251 -0.572463 0)
(-11.0858 6.25137 0)
(-21.2709 1.64104 0)
(6.6138 1.47551 0)
(12.2907 1.90692 0)
(4.8128 1.41142 0)
(10.9597 1.54795 0)
(2.4656 1.26822 0)
(9.33189 1.57431 0)
(0.311008 1.31444 0)
(7.58728 1.45067 0)
(-1.35274 1.61182 0)
(5.48275 0.767059 0)
(-2.75346 2.31836 0)
(2.88064 -0.20569 0)
(-4.20102 3.45211 0)
(-0.124462 -0.416186 0)
(-6.61408 4.50887 0)
(-3.93491 0.72799 0)
(-7.95981 6.13725 0)
(-16.2389 11.5647 0)
(5.95134 1.89016 0)
(12.7219 1.96396 0)
(5.70385 1.9268 0)
(10.5836 1.62837 0)
(4.77777 1.90453 0)
(8.44713 1.54585 0)
(3.60946 2.07485 0)
(6.27006 1.35548 0)
(2.21154 2.45181 0)
(4.13645 0.906372 0)
(0.263567 3.21493 0)
(1.84134 0.405119 0)
(-2.17434 4.50355 0)
(-0.804179 0.499636 0)
(-5.14266 6.68286 0)
(-4.2437 -1.2671 0)
(-5.78315 10.1282 0)
(-11.5163 12.2617 0)
(7.49427 2.33925 0)
(10.0054 1.7165 0)
(7.1946 2.24588 0)
(7.77895 1.66043 0)
(6.02944 2.39514 0)
(5.74955 1.66286 0)
(4.54798 2.74122 0)
(3.70587 1.53377 0)
(2.97614 3.24367 0)
(2.011 1.17044 0)
(1.16298 4.04163 0)
(0.271558 0.825271 0)
(-0.929045 5.12163 0)
(-1.78362 1.2853 0)
(-2.70777 7.30647 0)
(-3.24447 1.73187 0)
(-6.81132 12.5686 0)
(-3.33215 11.2756 0)
(9.09844 3.09993 0)
(8.00764 1.67062 0)
(7.59082 3.18357 0)
(6.45761 1.64135 0)
(5.98434 3.27535 0)
(5.00719 1.61145 0)
(4.52209 3.71741 0)
(3.4824 1.45063 0)
(3.15097 4.26307 0)
(1.92421 1.19467 0)
(1.70522 5.04512 0)
(0.441264 1.24504 0)
(-0.0196562 6.09171 0)
(-1.06656 1.94641 0)
(-1.3963 7.72267 0)
(-1.95112 3.47639 0)
(-5.5864 10.3543 0)
(-0.326172 8.81237 0)
(9.58004 3.25599 0)
(7.94244 2.04374 0)
(7.57496 3.30017 0)
(6.6836 1.97168 0)
(5.85049 3.518 0)
(5.13884 1.92497 0)
(4.44609 4.04361 0)
(3.67525 1.86515 0)
(3.05262 4.53168 0)
(2.27974 1.93597 0)
(1.51749 5.15375 0)
(1.01501 2.38455 0)
(-0.0843709 5.95169 0)
(-0.226958 3.25026 0)
(-1.61034 7.31301 0)
(-1.13478 4.83176 0)
(-3.15639 8.66235 0)
(-1.17767 10.4059 0)
(9.64496 3.74812 0)
(7.79942 2.07088 0)
(7.87717 3.96384 0)
(6.65804 1.9075 0)
(6.2603 4.17389 0)
(5.13561 1.87651 0)
(4.60621 4.61667 0)
(3.76376 1.99899 0)
(3.15172 5.00654 0)
(2.47472 2.27651 0)
(1.72127 5.53724 0)
(1.29398 2.78356 0)
(0.273683 6.21542 0)
(0.0266268 3.77669 0)
(-1.08371 7.56193 0)
(-0.840047 5.75632 0)
(-2.16913 9.51547 0)
(-1.19187 10.1177 0)
(9.49234 4.02525 0)
(7.89971 2.44622 0)
(7.79938 4.02663 0)
(6.71853 2.42744 0)
(6.28695 4.30761 0)
(5.26148 2.64937 0)
(4.73514 4.70899 0)
(3.93201 2.88989 0)
(3.32273 5.01793 0)
(2.61537 3.23706 0)
(1.89931 5.48832 0)
(1.54559 3.92619 0)
(0.571747 6.14846 0)
(0.489873 5.14078 0)
(-0.478226 7.45455 0)
(-0.212817 7.15494 0)
(-0.851478 8.96983 0)
(-0.104063 10.1284 0)
(9.67558 4.45668 0)
(8.15994 2.66662 0)
(7.94007 4.5687 0)
(6.80102 2.65589 0)
(6.51336 4.72176 0)
(5.36626 2.887 0)
(4.9861 5.04034 0)
(3.9091 3.27181 0)
(3.46668 5.37217 0)
(2.59152 3.72973 0)
(2.11935 5.75078 0)
(1.58127 4.42068 0)
(0.933136 6.33258 0)
(0.740316 5.68396 0)
(0.101973 7.4632 0)
(0.18692 7.67553 0)
(-0.0155189 8.91352 0)
(0.284 9.9293 0)
(9.52681 4.69795 0)
(8.46745 3.27904 0)
(7.96682 4.49805 0)
(6.92306 3.40297 0)
(6.27267 4.76138 0)
(5.34183 3.85126 0)
(4.68434 5.1377 0)
(3.98162 4.28291 0)
(3.37648 5.43032 0)
(2.87665 4.75962 0)
(2.29329 5.91871 0)
(1.93177 5.48998 0)
(1.35475 6.61419 0)
(1.14291 6.67349 0)
(0.737848 7.70192 0)
(0.752752 8.29871 0)
(0.800073 9.00884 0)
(1.08164 9.88469 0)
(9.59197 5.00713 0)
(8.58665 3.79629 0)
(7.72044 4.79522 0)
(6.79598 3.97872 0)
(6.03904 5.05251 0)
(5.37975 4.42391 0)
(4.76779 5.37696 0)
(4.24061 4.89874 0)
(3.66287 5.68139 0)
(3.18648 5.41821 0)
(2.64972 6.09264 0)
(2.27402 6.11632 0)
(1.82525 6.77866 0)
(1.57268 7.1822 0)
(1.37348 7.84509 0)
(1.31787 8.51219 0)
(1.3915 9.0908 0)
(1.69785 9.72654 0)
(9.35632 5.31093 0)
(8.49146 4.56956 0)
(7.63197 4.98881 0)
(6.75753 4.71609 0)
(5.94377 5.19988 0)
(5.31608 5.06347 0)
(4.72396 5.51709 0)
(4.24955 5.50679 0)
(3.74265 5.91009 0)
(3.31793 6.08445 0)
(2.85562 6.49019 0)
(2.47286 6.8229 0)
(2.13453 7.26036 0)
(1.91828 7.73715 0)
(1.80469 8.17602 0)
(1.84639 8.75414 0)
(1.97995 9.21859 0)
(2.31158 9.65073 0)
(9.53936 5.56766 0)
(8.73936 5.06622 0)
(7.86206 5.27415 0)
(7.01012 5.29978 0)
(6.23356 5.51096 0)
(5.55081 5.56834 0)
(4.93565 5.78608 0)
(4.44066 5.96074 0)
(3.95905 6.27465 0)
(3.5685 6.57006 0)
(3.20764 6.89697 0)
(2.9299 7.21674 0)
(2.70391 7.53103 0)
(2.5814 7.90049 0)
(2.52053 8.26859 0)
(2.56665 8.66299 0)
(2.67998 9.03884 0)
(2.94891 9.42342 0)
(9.47036 5.85787 0)
(8.62844 5.53911 0)
(7.86838 5.59454 0)
(7.13872 5.68544 0)
(6.50593 5.80642 0)
(5.87434 5.93386 0)
(5.30979 6.10235 0)
(4.80608 6.28378 0)
(4.38464 6.52973 0)
(4.02899 6.78389 0)
(3.74479 7.09929 0)
(3.52366 7.40494 0)
(3.35656 7.74068 0)
(3.25936 8.06921 0)
(3.21511 8.3933 0)
(3.23489 8.7259 0)
(3.31313 9.04202 0)
(3.53603 9.32721 0)
(9.14873 6.08014 0)
(8.49069 5.63606 0)
(7.76445 5.62591 0)
(7.06428 5.743 0)
(6.44985 5.88146 0)
(5.87207 6.03576 0)
(5.38166 6.21714 0)
(4.93398 6.41229 0)
(4.5739 6.64648 0)
(4.22949 6.87146 0)
(3.95942 7.1359 0)
(3.72523 7.39065 0)
(3.57654 7.65718 0)
(3.49712 7.90912 0)
(3.49307 8.16565 0)
(3.56564 8.39745 0)
(3.71112 8.60173 0)
(3.95741 8.80793 0)
(9.6761 6.20231 0)
(8.95523 5.58989 0)
(8.22851 5.56127 0)
(7.4921 5.68131 0)
(6.76385 5.80919 0)
(6.11852 5.91166 0)
(5.5588 6.047 0)
(5.11225 6.22176 0)
(4.75006 6.45519 0)
(4.44785 6.70408 0)
(4.21523 6.97128 0)
(4.03057 7.19952 0)
(3.92011 7.39927 0)
(3.85955 7.55667 0)
(3.88341 7.68452 0)
(3.9439 7.8072 0)
(4.05877 7.92743 0)
(4.25631 8.07471 0)
(9.74791 5.78921 0)
(8.96419 5.32485 0)
(8.21511 5.30737 0)
(7.54692 5.47685 0)
(6.98109 5.63849 0)
(6.47603 5.72879 0)
(5.95676 5.80891 0)
(5.4965 5.90712 0)
(5.07863 6.04921 0)
(4.76643 6.22138 0)
(4.53815 6.41894 0)
(4.39811 6.58417 0)
(4.31966 6.73611 0)
(4.30175 6.85053 0)
(4.30382 6.96092 0)
(4.35538 7.07115 0)
(4.41422 7.15628 0)
(4.5461 7.28149 0)
(9.58694 5.51557 0)
(8.94087 5.03268 0)
(8.29683 4.84124 0)
(7.70339 4.8667 0)
(7.20025 4.97277 0)
(6.73427 5.14911 0)
(6.29084 5.33574 0)
(5.89312 5.48892 0)
(5.53782 5.63072 0)
(5.25448 5.74328 0)
(5.04635 5.84971 0)
(4.90391 5.94283 0)
(4.81238 6.03334 0)
(4.77138 6.12665 0)
(4.73014 6.22626 0)
(4.74686 6.31415 0)
(4.75957 6.41701 0)
(4.85696 6.50797 0)
(9.68004 4.91412 0)
(9.11375 4.44215 0)
(8.4579 4.26719 0)
(7.78805 4.29916 0)
(7.21272 4.39987 0)
(6.7364 4.52208 0)
(6.34447 4.6544 0)
(6.002 4.76102 0)
(5.70638 4.86865 0)
(5.44839 4.97935 0)
(5.24027 5.06617 0)
(5.08244 5.17843 0)
(4.99262 5.2653 0)
(4.94954 5.35698 0)
(4.94902 5.45146 0)
(4.97582 5.53632 0)
(5.03761 5.61344 0)
(5.14714 5.68597 0)
(9.62367 4.25384 0)
(9.10881 3.80202 0)
(8.56021 3.66 0)
(7.94167 3.68909 0)
(7.39095 3.75185 0)
(6.91906 3.85965 0)
(6.54197 3.99148 0)
(6.2124 4.12689 0)
(5.95355 4.26577 0)
(5.73602 4.35908 0)
(5.5448 4.43074 0)
(5.4064 4.47254 0)
(5.27948 4.50327 0)
(5.20128 4.54309 0)
(5.15458 4.57871 0)
(5.13939 4.64516 0)
(5.16971 4.71447 0)
(5.23406 4.79356 0)
(9.61262 3.57708 0)
(9.14012 3.15748 0)
(8.59704 3.06169 0)
(7.99256 3.08502 0)
(7.4656 3.13351 0)
(7.01651 3.18543 0)
(6.63216 3.25355 0)
(6.32449 3.34128 0)
(6.0876 3.41947 0)
(5.88011 3.52534 0)
(5.72789 3.62484 0)
(5.6052 3.7201 0)
(5.50427 3.81774 0)
(5.43466 3.87324 0)
(5.38434 3.93345 0)
(5.36824 3.97023 0)
(5.35712 4.00426 0)
(5.40007 4.03155 0)
(9.4226 2.82169 0)
(9.0132 2.43933 0)
(8.58657 2.39176 0)
(8.14674 2.4421 0)
(7.70083 2.49367 0)
(7.26381 2.55708 0)
(6.86101 2.62995 0)
(6.48043 2.71393 0)
(6.15535 2.80354 0)
(5.89348 2.88666 0)
(5.70257 2.96351 0)
(5.58706 3.02027 0)
(5.50879 3.06397 0)
(5.48801 3.10821 0)
(5.51088 3.14835 0)
(5.55852 3.19364 0)
(5.61901 3.24177 0)
(5.69275 3.29982 0)
(9.71669 2.06688 0)
(9.28883 1.77476 0)
(8.84213 1.74885 0)
(8.38816 1.81235 0)
(7.96761 1.90373 0)
(7.58281 1.97639 0)
(7.22581 2.03251 0)
(6.88926 2.09627 0)
(6.57517 2.15419 0)
(6.29945 2.22637 0)
(6.06302 2.28095 0)
(5.89642 2.32127 0)
(5.76637 2.36078 0)
(5.70023 2.39661 0)
(5.67575 2.43195 0)
(5.69131 2.46876 0)
(5.74092 2.50616 0)
(5.82659 2.54706 0)
(9.68473 1.54692 0)
(9.37274 1.1773 0)
(9.02683 1.19032 0)
(8.61745 1.26183 0)
(8.17087 1.32787 0)
(7.7311 1.37474 0)
(7.32273 1.43983 0)
(6.97544 1.52584 0)
(6.67732 1.62558 0)
(6.42653 1.7138 0)
(6.21958 1.77189 0)
(6.05555 1.80001 0)
(5.92637 1.80785 0)
(5.83348 1.80905 0)
(5.77271 1.81497 0)
(5.75385 1.83609 0)
(5.76297 1.87116 0)
(5.81761 1.90585 0)
(9.51874 0.832302 0)
(9.36931 0.48593 0)
(9.07224 0.588783 0)
(8.71785 0.733253 0)
(8.31873 0.827504 0)
(7.86909 0.885574 0)
(7.38341 0.931736 0)
(6.92225 0.995834 0)
(6.50728 1.071 0)
(6.18024 1.13862 0)
(5.92902 1.19274 0)
(5.73155 1.23029 0)
(5.58342 1.25405 0)
(5.43973 1.26163 0)
(5.33533 1.27539 0)
(5.24031 1.28825 0)
(5.17534 1.30963 0)
(5.14554 1.33006 0)
(9.80064 0.342579 0)
(9.53471 0.0144333 0)
(9.06494 0.139981 0)
(8.42597 0.290497 0)
(7.70225 0.388114 0)
(6.95512 0.465284 0)
(6.23735 0.552978 0)
(5.60342 0.638997 0)
(5.04768 0.710576 0)
(4.5949 0.757051 0)
(4.2232 0.782515 0)
(3.91468 0.799836 0)
(3.65058 0.812209 0)
(3.40362 0.829517 0)
(3.20427 0.847481 0)
(3.01348 0.870014 0)
(2.87824 0.89314 0)
(2.75916 0.909061 0)
(9.757 -0.317123 0)
(9.04951 -0.494688 0)
(7.86146 -0.261965 0)
(6.5041 -0.0357255 0)
(5.18932 0.130297 0)
(4.02718 0.246157 0)
(3.05946 0.335301 0)
(2.27961 0.394284 0)
(1.64539 0.430142 0)
(1.13701 0.458285 0)
(0.710962 0.47624 0)
(0.355521 0.49013 0)
(0.0556203 0.501875 0)
(-0.193244 0.512741 0)
(-0.390549 0.519237 0)
(-0.552363 0.53113 0)
(-0.660729 0.530435 0)
(-0.760397 0.537418 0)
(7.82342 -0.258879 0)
(4.92422 -0.214618 0)
(2.60227 0.0180722 0)
(0.96258 0.134303 0)
(-0.184735 0.173292 0)
(-1.03415 0.17934 0)
(-1.69795 0.173533 0)
(-2.23484 0.167989 0)
(-2.67587 0.164741 0)
(-3.0383 0.164455 0)
(-3.34109 0.164999 0)
(-3.58925 0.166706 0)
(-3.79283 0.169491 0)
(-3.95124 0.172732 0)
(-4.07154 0.175493 0)
(-4.15912 0.180674 0)
(-4.20577 0.171656 0)
(-4.27169 0.204519 0)
(0.100536 0.322111 0)
(0.36475 0.249793 0)
(0.706665 0.186966 0)
(1.13446 0.113597 0)
(1.65395 0.03629 0)
(2.26051 -0.0311858 0)
(2.928 -0.0613235 1.12238e-17)
(3.60967 -0.0499512 -1.11281e-17)
(4.2635 -0.0150381 0)
(4.88387 0.0267164 -1.09441e-17)
(5.4518 0.0989018 0)
(5.94893 0.164222 0)
(6.3802 0.222602 0)
(6.75084 0.281883 1.06141e-17)
(7.0597 0.331875 0)
(7.32542 0.374453 0)
(7.56064 0.410003 -1.04075e-17)
(7.75759 0.444709 0)
(7.91297 0.464709 0)
(8.04293 0.489922 0)
(8.15885 0.514917 1.01769e-17)
(8.24202 0.52842 0)
(8.27246 0.527753 1.00954e-17)
(8.28631 0.537419 0)
(8.29296 0.540557 0)
(8.29916 0.506806 9.94673e-18)
(8.39389 0.429233 0)
(8.52017 0.322619 -9.86177e-18)
(8.6155 0.242326 0)
(8.69493 0.291275 9.77708e-18)
(8.69658 0.475705 0)
(8.91126 0.475517 0)
(9.50873 0.298259 0)
(10.3341 0.223352 0)
(11.0003 -0.258871 0)
(11.3305 -1.06612 -9.38035e-18)
(11.5264 -1.52969 0)
(11.783 -1.31539 1.85943e-17)
(11.7525 -0.334977 0)
(11.0456 0.776166 -1.85181e-17)
(9.95334 1.23551 0)
(8.92243 1.21255 0)
(8.01553 1.10157 1.80553e-17)
(7.1875 1.01167 0)
(6.4342 0.939495 1.78102e-17)
(5.73779 0.878754 -1.76861e-17)
(5.09296 0.827204 0)
(4.5122 0.777331 -1.74387e-17)
(3.97801 0.727688 -1.73161e-17)
(3.50569 0.685824 0)
(3.09981 0.640902 0)
(2.73057 0.596962 0)
(2.42094 0.54864 0)
(2.20273 0.502635 0)
(2.0309 0.455299 1.65987e-17)
(1.91497 0.407163 0)
(1.86318 0.362399 -1.6368e-17)
(1.87976 0.321482 0)
(1.9477 0.27307 0)
(2.0618 0.241971 1.60282e-17)
(2.20471 0.206594 0)
(2.38283 0.17652 -1.58054e-17)
(2.58315 0.15713 0)
(2.79694 0.136648 0)
(3.01642 0.131384 0)
(3.23361 0.119958 1.53637e-17)
(3.43449 0.122797 0)
(3.6199 0.115064 0)
(3.79417 0.115427 1.50361e-17)
(3.94598 0.126698 0)
(4.07467 0.13222 1.4819e-17)
(4.17006 0.125873 0)
(4.2419 0.131991 0)
(4.28958 0.125849 0)
(4.32311 0.125894 -1.43835e-17)
(4.33286 0.123193 0)
(4.30312 0.121784 0)
(4.24647 0.11855 -1.40543e-17)
(4.19351 0.12254 -1.39429e-17)
(4.11011 0.120762 0)
(3.97129 0.130998 -1.37115e-17)
(3.78482 0.144622 0)
(3.57019 0.149891 -2.69641e-17)
(3.28605 0.154773 0)
(2.90477 0.162324 -2.65398e-17)
(2.48775 0.181318 0)
(2.07252 0.181529 2.61608e-17)
(1.68918 0.183752 0)
(1.33117 0.174234 0)
(0.995479 0.185038 0)
(0.634344 0.19498 -2.53394e-17)
(0.175109 0.211593 0)
(-0.371843 0.210547 2.48888e-17)
(-0.910109 0.198943 0)
(-1.43809 0.204718 -2.44557e-17)
(-1.91574 0.172985 -2.4236e-17)
(-2.41175 0.153297 -2.40206e-17)
(-2.85883 0.143107 0)
(-3.20622 0.137443 0)
(-3.45932 0.110617 0)
(-3.74927 0.0979697 0)
(-4.08345 0.162558 0)
(-4.31752 0.220242 0)
(-4.48687 0.199571 0)
(-4.5839 0.164959 0)
(-4.72103 0.182336 2.19297e-17)
(-4.92219 0.246979 2.16588e-17)
(-4.97074 0.198014 0)
(-4.76068 0.116806 0)
(-4.20768 -0.00462281 0)
(-3.23867 -0.182712 2.08893e-17)
(-1.81195 -0.221981 0)
(-0.479363 0.142855 0)
(0.280328 0.433962 0)
(0.633638 0.266208 0)
(0.910356 0.0548588 -2.08185e-17)
(1.17707 0.163985 0)
(1.43006 0.161652 0)
(1.60546 -0.00621824 2.02416e-17)
(1.56961 0.0121067 -2.02473e-17)
(0.733498 0.409925 0)
(-1.22237 1.02074 -1.98622e-17)
(-2.93419 1.14286 0)
(-3.44571 0.688824 1.95947e-17)
(-3.32975 0.339458 0)
(-2.63019 0.0984119 0)
(-0.783711 -0.372243 0)
(0.822962 0.0345005 0)
(0.827986 0.0826859 0)
(3.81492 -0.619187 -3.74853e-17)
(5.49744 -0.315567 -3.66248e-17)
(7.65699 -0.263652 0)
(9.08382 -0.147174 0)
(10.4329 -0.110718 0)
(11.5858 -0.0727854 3.5581e-17)
(12.5008 -0.031599 0)
(13.3003 0.000591445 0)
(13.8736 0.00862837 0)
(14.3318 -0.0141395 3.49508e-17)
(14.7252 0.00566546 -3.47711e-17)
(15.1761 0.0258113 0)
(15.582 0.0183776 0)
(15.6682 0.0516994 -3.42765e-17)
(15.4233 0.099233 -3.41603e-17)
(14.8819 0.137362 0)
(14.2364 0.0752831 0)
(13.5022 -0.00982609 3.35007e-17)
(12.9236 -0.172095 -3.31812e-17)
(12.3324 -0.253126 0)
(11.9815 -0.224713 0)
(11.5593 -0.205544 -3.21949e-17)
(11.1633 -0.191375 0)
(10.8191 -0.162712 0)
(10.4847 -0.110945 -3.10285e-17)
(9.98137 -0.0232453 0)
(9.25818 0.0385949 -3.01316e-17)
(9.12769 -0.0718412 0)
(8.82841 -0.056823 0)
(8.26943 -0.0289424 0)
(7.30001 0.0858126 2.91851e-17)
(6.32042 0.016182 0)
(5.10545 0.0809847 0)
(4.28697 0.122336 0)
(4.03438 -0.279333 0)
(3.88828 -0.263433 0)
(2.0165 0.275607 0)
(-1.46059 0.95957 2.75862e-17)
(-6.30905 1.31886 2.70219e-17)
(-12.813 1.51602 0)
(-11.7112 -0.337726 0)
(-7.40227 -1.38754 0)
(-0.840546 -1.06066 -2.68072e-17)
(3.57813 -0.209203 0)
(4.07874 0.325727 5.10733e-17)
(2.31198 0.334529 -5.10733e-17)
(1.31836 0.186306 -5.06901e-17)
(0.636282 0.0999046 5.07181e-17)
(0.012831 -0.0259744 -5.07198e-17)
(-0.379768 -0.0141094 5.12837e-17)
(-1.03858 -0.144802 0)
(0.097955 1.0061 0)
(0.339126 0.78103 0)
(0.662074 0.540835 -2.33338e-17)
(1.12919 0.244211 0)
(1.72136 -0.0517747 2.29697e-17)
(2.40264 -0.282028 2.27928e-17)
(3.13192 -0.387339 1.12982e-17)
(3.86224 -0.347444 1.11935e-17)
(4.56307 -0.221403 0)
(5.20913 -0.103369 1.09823e-17)
(5.79917 0.117743 0)
(6.31297 0.329716 0)
(6.7502 0.493964 -2.13045e-17)
(7.14259 0.664769 -1.05442e-17)
(7.47021 0.832653 2.08761e-17)
(7.73114 0.927031 2.06736e-17)
(7.97197 0.991373 1.02479e-17)
(8.21442 1.1059 0)
(8.39693 1.21306 0)
(8.53248 1.25013 0)
(8.69443 1.29186 9.91705e-18)
(8.86373 1.39167 0)
(8.94168 1.49042 -2.94286e-17)
(9.00123 1.49133 0)
(9.11199 1.4603 0)
(9.17186 1.32688 -9.6525e-18)
(9.10233 1.11881 0)
(8.92098 1.18459 9.53861e-18)
(8.91229 1.3265 1.90675e-17)
(9.31732 1.22134 -9.51352e-18)
(10.1432 1.10573 0)
(10.9099 0.097266 0)
(10.8021 -1.36668 0)
(10.3995 -1.13426 1.84601e-17)
(9.82781 0.519899 1.86725e-17)
(8.52593 1.83509 9.4092e-18)
(6.87102 2.43579 0)
(5.48855 2.7535 -1.87353e-17)
(4.50549 2.98979 0)
(3.82422 3.12259 1.85106e-17)
(3.26796 3.07091 0)
(2.6759 2.93352 0)
(2.10403 2.77107 -1.81576e-17)
(1.55936 2.58856 0)
(1.04495 2.41244 -5.3743e-17)
(0.586261 2.24675 1.77902e-17)
(0.149819 2.07937 0)
(-0.216081 1.93201 1.75389e-17)
(-0.534887 1.77553 1.7415e-17)
(-0.799658 1.62184 0)
(-0.999954 1.45648 0)
(-1.15318 1.29591 0)
(-1.23247 1.14462 0)
(-1.25471 0.99417 0)
(-1.24007 0.843243 -1.66843e-17)
(-1.13891 0.696891 -3.31352e-17)
(-0.992114 0.5528 1.64476e-17)
(-0.789606 0.422892 0)
(-0.533699 0.29743 -3.24322e-17)
(-0.24802 0.219938 1.61037e-17)
(0.0446943 0.136923 0)
(0.398707 0.084684 1.58741e-17)
(0.739743 0.0260326 0)
(1.09538 -0.00123993 0)
(1.4569 -0.0220828 3.10785e-17)
(1.81113 -0.0340643 -1.54271e-17)
(2.11981 -0.0189465 3.06387e-17)
(2.41159 -0.00281612 -3.0421e-17)
(2.72427 0.00783493 -1.51028e-17)
(2.98768 0.0238214 0)
(3.19866 0.0564901 -1.4893e-17)
(3.40494 0.0605273 0)
(3.59462 0.0573241 0)
(3.73554 0.061913 0)
(3.89349 0.0574705 -1.44709e-17)
(3.99429 0.054692 0)
(4.05514 0.0578782 -2.8509e-17)
(4.10428 0.048654 4.24356e-17)
(4.13621 0.0493785 1.40343e-17)
(4.11731 0.0628878 0)
(4.08102 0.103006 1.37845e-17)
(3.9928 0.165065 0)
(3.89781 0.201647 2.70124e-17)
(3.7372 0.295969 0)
(3.50183 0.380278 2.64362e-17)
(3.18042 0.368316 -5.2504e-17)
(2.78045 0.3222 -2.61046e-17)
(2.42113 0.253046 0)
(2.12395 0.162918 0)
(1.93171 0.142461 0)
(1.8093 0.285883 2.54999e-17)
(1.60974 0.463123 0)
(1.19161 0.563328 -2.47919e-17)
(0.725438 0.579591 0)
(0.222868 0.605707 7.26811e-17)
(-0.209168 0.589245 2.39662e-17)
(-0.733504 0.609174 2.37139e-17)
(-1.21813 0.569106 0)
(-1.63532 0.486618 0)
(-2.01991 0.501418 0)
(-2.42335 0.608389 0)
(-2.78924 0.627541 0)
(-3.11286 0.443371 4.43329e-17)
(-3.47909 0.412995 4.40644e-17)
(-3.64098 0.505589 0)
(-3.71678 0.559093 -2.12797e-17)
(-3.82195 0.550413 -2.08679e-17)
(-3.80545 0.267901 0)
(-3.78574 -0.0703173 -4.12344e-17)
(-3.41298 -0.477961 0)
(-2.62814 -1.01352 2.04266e-17)
(-1.50428 -1.37849 0)
(-0.00109626 -1.02541 0)
(1.49415 -0.38416 -3.95286e-17)
(2.20966 0.168184 0)
(1.95021 0.473603 2.02336e-17)
(1.6213 0.481795 0)
(1.31125 0.675004 0)
(0.534588 1.09215 1.99386e-17)
(-0.629169 1.89504 1.9923e-17)
(-2.29319 2.79038 0)
(-4.55823 2.55211 -1.97597e-17)
(-5.27331 1.60755 0)
(-4.53521 0.661636 1.98562e-17)
(-4.33048 0.0224641 3.94935e-17)
(-3.40356 -0.536081 0)
(-1.14017 -1.30517 0)
(-0.053234 -0.282835 0)
(1.6749 -1.08089 0)
(4.54697 -2.18322 3.84598e-17)
(5.19947 -1.28636 1.11375e-16)
(8.50504 -1.57832 0)
(9.96742 -0.977569 0)
(11.6644 -0.955677 0)
(13.0459 -0.802583 -3.48712e-17)
(14.187 -0.697505 0)
(15.1767 -0.641654 0)
(15.8494 -0.511636 6.79367e-17)
(16.4248 -0.551765 3.39452e-17)
(17.0487 -0.707089 3.38441e-17)
(17.789 -0.700015 0)
(18.6556 -0.644647 0)
(19.3192 -0.368926 3.31081e-17)
(19.4384 -0.257596 -3.29714e-17)
(18.8917 -0.117377 0)
(18.3068 -0.136512 0)
(17.5687 -0.0955651 -3.22716e-17)
(16.9594 -0.0460423 9.61523e-17)
(15.9149 -0.178131 0)
(14.9191 -0.384914 0)
(13.713 -0.478194 3.10481e-17)
(12.885 -0.574112 0)
(12.181 -0.66192 5.96112e-17)
(11.4691 -0.7132 -2.89965e-17)
(10.7891 -0.510817 0)
(9.50976 -0.582287 2.75033e-17)
(9.6465 -1.00322 5.35127e-17)
(10.0472 -0.820023 0)
(9.90676 -0.373376 0)
(8.87875 -0.0651371 -2.65958e-17)
(7.14746 0.158294 0)
(5.79319 0.00400943 4.9993e-17)
(5.5016 -0.384731 0)
(4.48169 -0.339318 0)
(1.39508 0.586033 0)
(-3.00847 1.86067 0)
(-7.72478 2.52635 -2.57196e-17)
(-11.9192 3.05619 -2.62694e-17)
(-15.7437 1.2063 0)
(-11.7125 -3.26452 0)
(-9.45383 -5.41753 0)
(-3.39739 -5.90554 2.84294e-17)
(3.92435 -3.05858 0)
(6.13387 -0.498154 -4.68805e-17)
(4.77154 -0.0474385 4.56341e-17)
(4.31003 -0.53785 4.4768e-17)
(4.15128 -0.750819 4.4545e-17)
(4.31453 -0.872645 4.41648e-17)
(4.49377 -0.746562 4.46372e-17)
(4.16496 -0.808949 0)
(0.120607 1.69084 0)
(0.396596 1.36412 0)
(0.789556 0.847036 2.37282e-17)
(1.39474 0.217787 2.35797e-17)
(2.11675 -0.314525 -2.33972e-17)
(2.88974 -0.655087 -2.31775e-17)
(3.62434 -0.790391 1.01161e-22)
(4.31621 -0.694067 0)
(4.98208 -0.427998 0)
(5.55824 -0.160525 0)
(6.07823 0.192434 0)
(6.54153 0.555845 0)
(6.93739 0.836878 6.49989e-17)
(7.32672 1.10972 0)
(7.65525 1.41863 -2.12442e-17)
(7.91268 1.59891 -2.10294e-17)
(8.1321 1.6616 0)
(8.40493 1.79145 0)
(8.61463 2.00534 0)
(8.72315 2.05269 0)
(8.84547 2.00499 -1.99683e-17)
(9.01084 2.10963 0)
(9.08586 2.30525 1.96238e-17)
(9.03834 2.28093 0)
(8.88376 2.28286 0)
(8.76831 2.49698 0)
(8.85999 2.71483 3.80213e-17)
(9.26383 2.75108 0)
(9.79107 1.61624 -1.87332e-17)
(9.74224 -0.344551 3.66503e-17)
(9.55537 -0.536821 0)
(8.89433 1.55704 0)
(6.92564 3.29646 0)
(5.18088 3.8245 -1.92298e-17)
(4.1594 4.17128 -1.91714e-17)
(3.35542 4.36193 0)
(2.66314 4.37547 0)
(1.99937 4.42483 3.77205e-17)
(1.40644 4.51189 3.74498e-17)
(0.954222 4.55583 -3.71777e-17)
(0.609439 4.44979 0)
(0.315859 4.25166 0)
(0.0516405 4.04094 0)
(-0.213182 3.79612 0)
(-0.468876 3.5542 3.57831e-17)
(-0.714981 3.3197 3.55175e-17)
(-0.923045 3.09521 -3.52564e-17)
(-1.11318 2.85897 0)
(-1.27537 2.61297 0)
(-1.38801 2.37041 0)
(-1.47013 2.11916 0)
(-1.51197 1.86832 3.39837e-17)
(-1.49657 1.63893 0)
(-1.43147 1.39434 0)
(-1.31785 1.16536 3.32706e-17)
(-1.15128 0.946108 3.30272e-17)
(-0.933105 0.724715 0)
(-0.691677 0.532645 -6.51187e-17)
(-0.3902 0.354752 3.23197e-17)
(-0.0667001 0.215083 -3.20929e-17)
(0.275073 0.109604 0)
(0.638614 0.00415732 0)
(1.0023 -0.0684321 0)
(1.38494 -0.108904 0)
(1.7372 -0.134317 -3.09481e-17)
(2.0838 -0.129637 -6.14563e-17)
(2.40617 -0.100182 -3.05064e-17)
(2.70089 -0.0546615 3.02904e-17)
(2.97404 -0.0381705 0)
(3.22477 -0.03869 -5.97297e-17)
(3.44636 0.0367671 -5.93283e-17)
(3.63431 0.0493055 -5.89414e-17)
(3.84005 0.0152387 5.85523e-17)
(3.99169 0.0443116 0)
(4.17388 0.0541557 8.66826e-17)
(4.30753 0.0602784 0)
(4.39112 0.0788199 -2.85205e-17)
(4.44955 0.0772463 -2.83262e-17)
(4.48286 0.0735109 0)
(4.4353 0.0874269 0)
(4.38871 0.0900361 -5.55369e-17)
(4.28881 0.179791 0)
(4.17577 0.178902 -5.46361e-17)
(3.99781 0.311654 0)
(3.81537 0.509742 5.34459e-17)
(3.62457 0.572191 1.05897e-16)
(3.33134 0.57856 0)
(2.97368 0.517225 0)
(2.60294 0.324015 0)
(2.27098 0.118778 5.1968e-17)
(2.11835 0.1823 0)
(2.03811 0.473893 5.12878e-17)
(1.84884 0.790837 0)
(1.47278 0.914067 0)
(0.889538 0.893188 -9.79542e-17)
(0.541406 0.850185 0)
(0.245992 0.950976 -4.76756e-17)
(-0.0388011 0.931017 0)
(-0.485502 0.848049 -4.65074e-17)
(-0.831653 0.858629 0)
(-1.00926 0.895796 0)
(-1.21853 0.944096 0)
(-1.3939 1.05559 -1.3448e-16)
(-1.67768 1.01635 -4.41384e-17)
(-1.71536 0.804957 0)
(-1.65104 0.760927 0)
(-1.67142 0.833087 0)
(-1.54729 0.717029 0)
(-1.70125 0.417187 4.16439e-17)
(-1.8751 -0.172077 -8.31699e-17)
(-1.69857 -1.06132 -4.13673e-17)
(-1.23138 -1.793 8.22612e-17)
(-0.36659 -1.5967 8.11022e-17)
(0.488514 -0.365523 4.02898e-17)
(0.911631 0.775423 0)
(0.819991 1.30482 8.11462e-17)
(0.36701 1.55772 0)
(-0.0520733 1.87326 -7.8812e-17)
(-1.04577 2.38643 -3.93823e-17)
(-2.89361 3.17932 0)
(-4.0937 4.1621 7.74545e-17)
(-4.75161 4.0627 3.86172e-17)
(-4.1432 2.43023 0)
(-2.93103 1.07633 3.92117e-17)
(-2.72832 0.227677 -1.16762e-16)
(-2.38439 -0.755708 0)
(-0.356649 -2.01107 0)
(-0.0258987 -1.29586 0)
(3.69936 -2.04067 0)
(4.62622 -2.61063 -7.68555e-17)
(5.89137 -2.23614 -7.70255e-17)
(8.81741 -3.01563 0)
(10.5098 -1.70147 0)
(12.3581 -1.73548 0)
(14.1051 -1.35014 0)
(15.6186 -1.13567 0)
(16.9151 -0.962809 0)
(17.7956 -0.735106 -7.04298e-17)
(18.2266 -0.761624 3.80331e-20)
(18.7128 -1.06556 0)
(19.4327 -1.29745 0)
(20.2827 -1.42731 -6.99612e-17)
(21.048 -0.991006 0)
(21.5282 -0.314696 6.6491e-17)
(21.164 0.0864234 6.61079e-17)
(20.2746 -0.00752302 0)
(19.196 -0.0934549 0)
(18.6069 -0.269751 -6.36339e-17)
(17.9019 -0.292795 -1.25536e-16)
(17.517 -0.235293 0)
(16.2928 -0.321612 0)
(14.9806 -0.549842 0)
(13.7518 -0.616299 -5.90483e-17)
(12.5812 -0.67615 5.70203e-17)
(11.6178 -0.344937 0)
(9.73576 -0.787162 1.07874e-16)
(9.52976 -1.88568 5.27643e-17)
(10.5168 -1.63938 -1.04247e-16)
(10.5769 -0.753918 0)
(9.48738 0.0775353 0)
(7.78822 0.195163 -9.72415e-17)
(6.89152 -0.231225 -4.66817e-17)
(6.46714 -0.189204 0)
(3.3595 0.882903 0)
(-1.78567 2.20812 0)
(-5.53702 3.89647 0)
(-8.84541 4.28603 -9.97007e-17)
(-12.5175 3.56191 0)
(-14.508 2.08022 0)
(-7.29098 -4.66987 0)
(-7.67479 -6.74871 0)
(-3.53323 -9.08336 0)
(1.5461 -6.32484 0)
(6.33451 -0.921847 -9.63346e-17)
(5.50917 -0.379933 0)
(6.3561 -1.00565 0)
(6.43034 -1.28965 -1.71875e-16)
(6.54457 -1.78399 8.71755e-17)
(7.86423 -1.50563 -8.62121e-17)
(8.50823 -1.66935 8.53836e-17)
(0.142291 2.24164 0)
(0.508423 1.72851 -4.81554e-17)
(1.10321 0.788304 0)
(1.92367 -0.178681 -2.35993e-17)
(2.7372 -0.838162 0)
(3.51032 -1.1005 0)
(4.16365 -1.07878 2.26657e-17)
(4.70943 -0.844648 0)
(5.21171 -0.432565 0)
(5.6187 0.00843599 0)
(5.98803 0.469565 0)
(6.32882 0.920867 0)
(6.63338 1.19575 -8.55939e-17)
(7.01742 1.51166 -4.25051e-17)
(7.36667 1.93498 4.23008e-17)
(7.65182 2.2139 0)
(7.94025 2.25108 0)
(8.23393 2.4274 0)
(8.47217 2.83131 0)
(8.6001 3.03338 0)
(8.69245 2.96823 -4.00556e-17)
(8.8201 3.14149 -3.97419e-17)
(8.94515 3.55132 3.93009e-17)
(8.99821 3.81257 -3.85875e-17)
(9.18103 3.86675 0)
(9.42763 3.31643 0)
(9.38006 2.09474 -3.76658e-17)
(9.33703 1.38512 0)
(9.0247 2.30465 0)
(7.25511 3.96553 -3.89669e-17)
(5.20607 4.80275 -3.9086e-17)
(4.04118 5.25987 -3.90404e-17)
(3.04981 5.5935 0)
(2.23733 5.74591 0)
(1.54453 5.9104 3.83827e-17)
(1.03252 5.9581 0)
(0.629674 5.87478 0)
(0.339931 5.7652 -3.75295e-17)
(0.0978675 5.65355 3.72754e-17)
(-0.0996587 5.50322 -3.69976e-17)
(-0.260565 5.32782 0)
(-0.388923 5.12296 0)
(-0.520407 4.8786 -7.23517e-17)
(-0.656676 4.62736 0)
(-0.772919 4.36916 -7.13511e-17)
(-0.904593 4.09139 -1.06298e-16)
(-1.00953 3.81068 1.05584e-16)
(-1.10514 3.5164 -6.99522e-17)
(-1.18392 3.22528 0)
(-1.2385 2.90875 0)
(-1.27685 2.60089 -6.86383e-17)
(-1.25806 2.28848 -3.40981e-17)
(-1.201 1.97118 0)
(-1.10189 1.64533 0)
(-0.94046 1.33899 -3.34334e-17)
(-0.747471 1.04415 -6.64316e-17)
(-0.491532 0.770497 0)
(-0.21528 0.516563 6.55025e-17)
(0.0858531 0.289347 -6.5051e-17)
(0.436001 0.0959185 6.45743e-17)
(0.813945 -0.0505341 0)
(1.19901 -0.17656 0)
(1.58193 -0.234339 0)
(1.97165 -0.268435 0)
(2.3234 -0.288219 0)
(2.65684 -0.271711 6.16761e-17)
(2.95893 -0.225803 0)
(3.21909 -0.155776 0)
(3.43567 -0.146495 0)
(3.64228 -0.122284 1.19552e-16)
(3.81711 -0.0517532 5.92878e-17)
(3.95988 -0.0443564 5.88374e-17)
(4.12709 -0.116717 -1.16787e-16)
(4.24495 -0.104428 5.79423e-17)
(4.40271 -0.0905669 -5.75072e-17)
(4.53257 -0.0809348 0)
(4.65077 -0.0578297 5.66878e-17)
(4.74307 -0.0265014 0)
(4.79307 -0.0112686 0)
(4.79166 0.0711729 0)
(4.77208 0.0474951 1.10203e-16)
(4.71597 0.191936 -5.47444e-17)
(4.61418 0.276559 -5.43824e-17)
(4.39596 0.359592 -1.08049e-16)
(4.13793 0.475725 -1.60985e-16)
(3.94325 0.565592 -5.32557e-17)
(3.68407 0.61286 0)
(3.39474 0.62223 -1.04712e-16)
(3.05057 0.492634 0)
(2.55832 0.239226 -1.54268e-16)
(2.12624 0.0694931 0)
(1.88661 0.322352 -1.53008e-16)
(1.79771 0.789481 0)
(1.63832 1.15206 0)
(1.05253 1.2406 -4.92205e-17)
(0.550441 1.06648 0)
(0.310981 1.05328 4.87801e-17)
(0.232608 1.20444 9.5206e-17)
(-0.0907824 1.22705 4.72082e-17)
(-0.265748 1.05321 9.40658e-17)
(-0.299085 1.07743 -9.25861e-17)
(-0.634591 1.18317 -9.17769e-17)
(-0.975144 1.15353 1.83065e-16)
(-1.16656 1.07944 0)
(-1.04077 0.928361 0)
(-0.764253 0.937571 9.01012e-17)
(-0.171143 0.969098 -8.73426e-17)
(0.39698 0.906127 0)
(0.435985 0.802673 0)
(0.309117 0.298693 8.25007e-17)
(0.168289 -0.688751 0)
(-0.0972699 -1.6084 2.17346e-20)
(-0.340318 -1.59694 2.32181e-20)
(-0.143489 -0.40862 8.05468e-17)
(-0.0212315 0.98287 0)
(-0.17126 1.80014 -8.05143e-17)
(-0.387224 2.07787 0)
(-0.762395 2.77268 7.83491e-17)
(-1.42959 4.09443 0)
(-3.14996 5.01035 0)
(-4.64745 5.06191 -7.77303e-17)
(-4.592 3.90827 -7.80356e-17)
(-3.34543 1.68863 0)
(-2.41036 0.865983 -7.77274e-17)
(-1.58019 0.312309 1.53513e-16)
(-1.22627 -0.791614 0)
(0.64488 -2.14871 0)
(0.97736 -2.40735 0)
(3.76286 -3.35802 0)
(5.4456 -3.16156 7.61734e-17)
(6.80096 -3.27614 -1.53047e-16)
(8.7384 -4.31814 0)
(10.407 -2.75955 0)
(11.9849 -3.03929 0)
(13.8476 -2.57348 0)
(15.5174 -2.37518 0)
(17.4591 -1.95481 0)
(19.1323 -1.32475 0)
(20.0567 -1.10084 7.08676e-17)
(20.32 -1.57493 0)
(20.762 -2.04901 0)
(21.7404 -1.97766 7.14596e-17)
(22.5305 -1.65967 0)
(22.9955 -0.846726 0)
(23.0478 -0.0791687 -6.69837e-17)
(22.2872 0.196965 0)
(20.4981 -0.0713609 0)
(19.2942 -0.403392 1.29426e-16)
(18.3761 -0.476348 1.26722e-16)
(18.4077 -0.583008 1.24577e-16)
(17.9006 -0.293613 0)
(17.1021 -0.36911 1.20949e-16)
(15.7098 -0.631783 0)