/*--------------------------------*- C++ -*----------------------------------*\
| =========                 |                                                 |
| \\      /  F ield         | OpenFOAM: The Open Source CFD Toolbox           |
|  \\    /   O peration     | Version:  dev                                   |
|   \\  /    A nd           | Web:      http://www.openfoam.org               |
|    \\/     M anipulation  |                                                 |
\*---------------------------------------------------------------------------*/
FoamFile
{
    version     2.0;
    format      ascii;
    class       volVectorField;
    object      U_0;
    location    "9.161";
}
// * * * * * * * * * * * * * * * * * * * * * * * * * * * * * * * * * * * * * //

dimensions      [0 1 -1 0 0 0 0];

internalField   nonuniform List<vector> 
12225
(
(6.4281 0.534525 0)
(2.64807 0.276685 0)
(-0.120378 0.113746 0)
(-1.23805 0.0775917 0)
(-3.231 0.0965198 0)
(-3.21293 0.0810606 0)
(-5.65827 0.162656 0)
(-4.82737 0.0206749 0)
(-7.90671 0.265396 0)
(-6.40769 -0.0559927 0)
(-10.0813 0.370458 0)
(-8.11925 0.047737 0)
(-11.8178 0.4232 0)
(-10.7911 0.255296 0)
(-12.5273 0.405269 0)
(-15.4803 0.497513 0)
(-7.2041 -0.485537 0)
(-23.9286 7.65952 0)
(8.93469 1.26615 0)
(7.75571 1.06449 0)
(4.2046 0.656565 0)
(4.12541 0.465776 0)
(-0.156301 0.369408 0)
(1.93573 0.371023 0)
(-3.93298 0.397486 0)
(0.586488 0.277335 0)
(-7.50752 0.581278 0)
(-0.27053 0.239124 0)
(-10.218 0.790136 0)
(-1.13691 -0.061946 0)
(-10.2601 1.55953 0)
(-3.80482 -0.906515 0)
(-9.20298 2.76929 0)
(-10.0424 -1.6284 0)
(-10.2206 0.477604 0)
(-33.9032 5.36303 0)
(8.59305 1.2638 0)
(10.1935 1.35498 0)
(5.64055 1.00006 0)
(8.34348 0.858214 0)
(1.71467 0.702517 0)
(6.65122 0.860214 0)
(-2.35207 0.599547 0)
(5.61991 0.910827 0)
(-6.07565 0.707816 0)
(4.58167 0.620154 0)
(-7.27914 1.27738 0)
(2.48312 -0.455022 0)
(-6.56167 2.16331 0)
(-0.703326 -0.75685 0)
(-6.56022 3.76747 0)
(-3.65916 -0.690521 0)
(-9.59621 7.54907 0)
(-17.9053 2.72883 0)
(6.54232 1.1483 0)
(12.2914 1.53447 0)
(4.76865 1.04078 0)
(10.9846 1.18703 0)
(2.47604 0.911555 0)
(9.41525 1.22264 0)
(0.42412 0.982076 0)
(7.73381 1.08964 0)
(-1.10181 1.33431 0)
(5.74354 0.435748 0)
(-2.28429 2.0756 0)
(3.30269 -0.542772 0)
(-3.64798 3.29916 0)
(0.512339 -0.76297 0)
(-5.82407 4.51107 0)
(-3.23674 0.531752 0)
(-6.39965 6.19496 0)
(-13.1918 12.3485 0)
(5.88141 1.47848 0)
(12.6897 1.45904 0)
(5.66412 1.427 0)
(10.5591 1.13432 0)
(4.79872 1.42653 0)
(8.46425 1.06438 0)
(3.73101 1.6299 0)
(6.36481 0.873141 0)
(2.46553 2.074 0)
(4.37755 0.429955 0)
(0.70234 2.91582 0)
(2.27164 -0.100749 0)
(-1.60718 4.31715 0)
(-0.171206 0.0114808 0)
(-4.23973 6.6944 0)
(-3.54079 -2.03013 0)
(-4.69461 10.2475 0)
(-8.65692 11.9912 0)
(7.45493 1.79779 0)
(9.96036 1.06408 0)
(7.17016 1.61604 0)
(7.74621 1.02494 0)
(6.05411 1.79016 0)
(5.76916 1.04432 0)
(4.65515 2.17322 0)
(3.81925 0.912143 0)
(3.20287 2.73945 0)
(2.26967 0.562803 0)
(1.5724 3.61426 0)
(0.712721 0.207835 0)
(-0.376852 4.83008 0)
(-1.17196 0.654633 0)
(-1.907 7.11015 0)
(-2.47191 0.927842 0)
(-5.91632 12.1046 0)
(-1.16281 10.3693 0)
(9.07269 2.42219 0)
(7.96998 0.87101 0)
(7.57813 2.40563 0)
(6.44665 0.852458 0)
(6.0117 2.526 0)
(5.06004 0.845359 0)
(4.6215 3.00911 0)
(3.63261 0.6916 0)
(3.36485 3.61261 0)
(2.20789 0.465085 0)
(2.07953 4.45267 0)
(0.918285 0.512036 0)
(0.469921 5.57223 0)
(-0.39168 1.24949 0)
(-0.683213 7.33157 0)
(-1.1671 2.89229 0)
(-4.4769 9.55686 0)
(0.660323 8.0501 0)
(9.55916 2.45533 0)
(7.90355 1.10227 0)
(7.57104 2.3852 0)
(6.68309 1.04888 0)
(5.88763 2.63631 0)
(5.20498 1.02845 0)
(4.55501 3.20483 0)
(3.83767 0.997206 0)
(3.27373 3.74392 0)
(2.57821 1.10619 0)
(1.88677 4.41255 0)
(1.50708 1.58517 0)
(0.402132 5.19645 0)
(0.504697 2.52267 0)
(-0.951092 6.66243 0)
(-0.386387 4.13491 0)
(-2.12602 7.92109 0)
(-0.468447 9.75255 0)
(9.58453 2.8405 0)
(7.77122 1.00067 0)
(7.87788 2.92494 0)
(6.66243 0.85832 0)
(6.30645 3.17074 0)
(5.20245 0.860683 0)
(4.73009 3.65731 0)
(3.93519 1.02183 0)
(3.39225 4.0948 0)
(2.78481 1.34948 0)
(2.1138 4.66935 0)
(1.78199 1.90414 0)
(0.786572 5.33008 0)
(0.778799 2.97907 0)
(-0.377227 6.67457 0)
(-0.111154 5.02766 0)
(-1.25331 8.67495 0)
(-0.342432 9.37573 0)
(9.46353 2.97686 0)
(7.88014 1.23033 0)
(7.79859 2.84496 0)
(6.73165 1.24561 0)
(6.33468 3.16219 0)
(5.34044 1.50642 0)
(4.86961 3.60482 0)
(4.11497 1.79253 0)
(3.57459 3.96324 0)
(2.93455 2.19845 0)
(2.30213 4.47581 0)
(2.02764 2.94647 0)
(1.10291 5.1401 0)
(1.21771 4.2885 0)
(0.229241 6.33584 0)
(0.547093 6.39283 0)
(0.0994269 7.91333 0)
(0.754098 9.37917 0)
(9.63223 3.28781 0)
(8.14385 1.2989 0)
(7.94155 3.22925 0)
(6.8232 1.32071 0)
(6.56583 3.42142 0)
(5.45468 1.59603 0)
(5.12114 3.78656 0)
(4.10162 2.035 0)
(3.72702 4.16876 0)
(2.92602 2.55456 0)
(2.53671 4.59653 0)
(2.07184 3.30975 0)
(1.50815 5.21782 0)
(1.42041 4.68988 0)
(0.83275 6.28284 0)
(0.970431 6.76437 0)
(0.884611 7.81025 0)
(1.16572 8.97639 0)
(9.49686 3.37618 0)
(8.45825 1.73918 0)
(7.96555 2.9842 0)
(6.94668 1.90784 0)
(6.3249 3.28993 0)
(5.44306 2.40296 0)
(4.8335 3.71022 0)
(4.19993 2.89178 0)
(3.66051 4.0569 0)
(3.23859 3.43722 0)
(2.73224 4.60601 0)
(2.44793 4.23746 0)
(1.95717 5.36326 0)
(1.82374 5.50011 0)
(1.49666 6.47659 0)
(1.5719 7.18865 0)
(1.70142 7.85487 0)
(2.02316 8.79445 0)
(9.54392 3.5401 0)
(8.56836 2.07937 0)
(7.71954 3.10165 0)
(6.83062 2.30527 0)
(6.11274 3.39957 0)
(5.5044 2.79858 0)
(4.94696 3.77274 0)
(4.48296 3.33409 0)
(3.97453 4.13931 0)
(3.57072 3.92501 0)
(3.11425 4.62015 0)
(2.81412 4.69942 0)
(2.45057 5.38134 0)
(2.27518 5.83838 0)
(2.1563 6.51165 0)
(2.16901 7.23284 0)
(2.31614 7.83179 0)
(2.67286 8.50455 0)
(9.3042 3.6409 0)
(8.47449 2.65844 0)
(7.64765 3.10439 0)
(6.80971 2.85779 0)
(6.04138 3.36031 0)
(5.46493 3.25692 0)
(4.93094 3.73294 0)
(4.52053 3.76421 0)
(4.08491 4.19655 0)
(3.73573 4.41951 0)
(3.35431 4.85742 0)
(3.05304 5.23879 0)
(2.80018 5.70946 0)
(2.6663 6.22977 0)
(2.63319 6.70249 0)
(2.75077 7.32219 0)
(2.95882 7.82223 0)
(3.34324 8.2948 0)
(9.5249 3.73545 0)
(8.74767 2.97603 0)
(7.89398 3.21499 0)
(7.08239 3.26376 0)
(6.35554 3.49639 0)
(5.72731 3.58509 0)
(5.17588 3.83282 0)
(4.74981 4.04712 0)
(4.34466 4.39722 0)
(4.03489 4.73479 0)
(3.75946 5.1008 0)
(3.56836 5.46357 0)
(3.42951 5.8201 0)
(3.39187 6.2336 0)
(3.41261 6.64577 0)
(3.53544 7.08312 0)
(3.72317 7.50484 0)
(4.04608 7.9354 0)
(9.4282 3.90238 0)
(8.63935 3.29613 0)
(7.91937 3.38109 0)
(7.23699 3.49695 0)
(6.65654 3.64364 0)
(6.08315 3.80225 0)
(5.58636 4.00404 0)
(5.1576 4.2233 0)
(4.81853 4.50809 0)
(4.5484 4.80418 0)
(4.35291 5.16248 0)
(4.22002 5.51271 0)
(4.14156 5.89417 0)
(4.13111 6.26792 0)
(4.17104 6.63946 0)
(4.2713 7.0187 0)
(4.42986 7.38138 0)
(4.71332 7.71172 0)
(9.13374 3.98558 0)
(8.53897 3.27552 0)
(7.8466 3.31167 0)
(7.19544 3.4611 0)
(6.63651 3.62815 0)
(6.12281 3.81407 0)
(5.70499 4.02888 0)
(5.33769 4.26119 0)
(5.06364 4.53426 0)
(4.80885 4.80082 0)
(4.63133 5.10786 0)
(4.49036 5.40623 0)
(4.43576 5.7168 0)
(4.4485 6.01348 0)
(4.53504 6.31492 0)
(4.69482 6.59079 0)
(4.92543 6.84163 0)
(5.23769 7.09595 0)
(9.69484 4.10485 0)
(9.04566 3.21223 0)
(8.34828 3.2415 0)
(7.65761 3.39623 0)
(6.98768 3.55354 0)
(6.41265 3.68761 0)
(5.93264 3.85654 0)
(5.57356 4.06885 0)
(5.30342 4.34017 0)
(5.09735 4.62894 0)
(4.96323 4.93511 0)
(4.87834 5.20323 0)
(4.86731 5.44275 0)
(4.90437 5.6412 0)
(5.02269 5.81136 0)
(5.17284 5.97835 0)
(5.37512 6.14465 0)
(5.64254 6.33776 0)
(9.76587 3.81069 0)
(9.0842 3.05742 0)
(8.3683 3.08642 0)
(7.75353 3.28717 0)
(7.25087 3.47571 0)
(6.81688 3.59465 0)
(6.3786 3.70716 0)
(6.00863 3.84087 0)
(5.6882 4.01882 0)
(5.47855 4.22771 0)
(5.35511 4.46053 0)
(5.31985 4.66195 0)
(5.34505 4.85043 0)
(5.42745 5.00397 0)
(5.52633 5.15506 0)
(5.6703 5.30651 0)
(5.81876 5.4348 0)
(6.02656 5.6049 0)
(9.61831 3.69578 0)
(9.07374 2.93574 0)
(8.47976 2.78086 0)
(7.94284 2.83788 0)
(7.50374 2.97397 0)
(7.11093 3.18051 0)
(6.75197 3.39591 0)
(6.44786 3.57837 0)
(6.19319 3.75042 0)
(6.01525 3.89387 0)
(5.91431 4.0325 0)
(5.87877 4.15896 0)
(5.89317 4.28425 0)
(5.95484 4.4139 0)
(6.0144 4.54979 0)
(6.12732 4.67533 0)
(6.23448 4.8161 0)
(6.41416 4.94441 0)
(9.71539 3.2566 0)
(9.26417 2.55583 0)
(8.65606 2.41809 0)
(8.04512 2.47884 0)
(7.53905 2.60486 0)
(7.14223 2.75169 0)
(6.83882 2.90915 0)
(6.59206 3.04199 0)
(6.39828 3.17762 0)
(6.24628 3.31666 0)
(6.14664 3.43279 0)
(6.09864 3.57478 0)
(6.11772 3.6917 0)
(6.18146 3.81452 0)
(6.28493 3.94041 0)
(6.41182 4.05686 0)
(6.57104 4.16631 0)
(6.76655 4.27271 0)
(9.68056 2.80393 0)
(9.27962 2.15164 0)
(8.77709 2.04345 0)
(8.21776 2.09539 0)
(7.73839 2.17929 0)
(7.34833 2.3101 0)
(7.06177 2.46505 0)
(6.83018 2.6241 0)
(6.67542 2.78605 0)
(6.5651 2.90194 0)
(6.48386 2.99742 0)
(6.45583 3.06358 0)
(6.43861 3.12068 0)
(6.46894 3.18757 0)
(6.52742 3.25142 0)
(6.61463 3.3466 0)
(6.74343 3.44479 0)
(6.89796 3.55208 0)
(9.67692 2.32955 0)
(9.31788 1.75208 0)
(8.82391 1.68343 0)
(8.28149 1.72341 0)
(7.82881 1.78796 0)
(7.4632 1.85832 0)
(7.17112 1.94637 0)
(6.96316 2.05481 0)
(6.83062 2.15394 0)
(6.73106 2.28153 0)
(6.68975 2.40211 0)
(6.6785 2.51921 0)
(6.68895 2.63824 0)
(6.72928 2.7153 0)
(6.78636 2.79809 0)
(6.87402 2.85726 0)
(6.96341 2.91437 0)
(7.09885 2.96545 0)
(9.49609 1.77538 0)
(9.2028 1.27485 0)
(8.82853 1.24702 0)
(8.45141 1.30862 0)
(8.07776 1.37347 0)
(7.72346 1.45209 0)
(7.41209 1.54201 0)
(7.13072 1.64366 0)
(6.9111 1.75061 0)
(6.75951 1.8503 0)
(6.68215 1.94346 0)
(6.68088 2.01673 0)
(6.71649 2.07786 0)
(6.80836 2.1407 0)
(6.94066 2.19998 0)
(7.0931 2.26528 0)
(7.2542 2.3338 0)
(7.42232 2.41164 0)
(9.79207 1.25283 0)
(9.47828 0.842136 0)
(9.08499 0.825273 0)
(8.69807 0.89667 0)
(8.35358 0.998782 0)
(8.05303 1.08259 0)
(7.78865 1.15217 0)
(7.55118 1.22915 0)
(7.34188 1.301 0)
(7.17589 1.3868 0)
(7.05308 1.45447 0)
(7.00135 1.50868 0)
(6.98582 1.56259 0)
(7.03291 1.61316 0)
(7.11827 1.66388 0)
(7.24013 1.71628 0)
(7.392 1.76975 0)
(7.57329 1.82665 0)
(9.74119 0.914495 0)
(9.55745 0.451975 0)
(9.27172 0.47104 0)
(8.92985 0.545908 0)
(8.55888 0.619721 0)
(8.20379 0.676707 0)
(7.88908 0.754003 0)
(7.64268 0.851275 0)
(7.45078 0.962105 0)
(7.31034 1.05954 0)
(7.21672 1.12683 0)
(7.16692 1.16463 0)
(7.15184 1.18291 0)
(7.17123 1.19567 0)
(7.22046 1.21417 0)
(7.30795 1.24855 0)
(7.41968 1.2966 0)
(7.57095 1.34423 0)
(9.58575 0.339278 0)
(9.55497 -0.0487734 0)
(9.31882 0.0591077 0)
(9.03685 0.205152 0)
(8.7136 0.30532 0)
(8.34526 0.367929 0)
(7.95025 0.42155 0)
(7.58852 0.494297 0)
(7.28009 0.576635 0)
(7.06478 0.652689 0)
(6.92767 0.714627 0)
(6.84475 0.75997 0)
(6.80949 0.791565 0)
(6.77661 0.807602 0)
(6.78069 0.830498 0)
(6.79011 0.852743 0)
(6.8267 0.883769 0)
(6.89282 0.913709 0)
(9.85396 0.00729563 0)
(9.7096 -0.349724 0)
(9.30624 -0.225 0)
(8.74266 -0.0732801 0)
(8.09581 0.0245861 0)
(7.43183 0.112537 0)
(6.80747 0.206815 0)
(6.27334 0.298098 0)
(5.82432 0.373784 0)
(5.48256 0.425408 0)
(5.22309 0.456147 0)
(5.0274 0.47908 0)
(4.87481 0.497421 0)
(4.73796 0.521036 0)
(4.64612 0.5455 0)
(4.55946 0.574766 0)
(4.52508 0.604482 0)
(4.50129 0.627156 0)
(9.81021 -0.498453 0)
(9.24094 -0.702904 0)
(8.11974 -0.473753 0)
(6.8347 -0.24749 0)
(5.59803 -0.0839329 0)
(4.52199 0.0409003 0)
(3.64602 0.134439 0)
(2.96572 0.1965 0)
(2.43685 0.236205 0)
(2.03753 0.267124 0)
(1.72239 0.288391 0)
(1.47879 0.305809 0)
(1.2905 0.32111 0)
(1.15189 0.335555 0)
(1.06252 0.34579 0)
(1.00523 0.36159 0)
(0.997993 0.364978 0)
(0.993329 0.376479 0)
(7.87082 -0.320197 0)
(5.11404 -0.285646 0)
(2.84883 -0.0529968 0)
(1.26939 0.0646747 0)
(0.189966 0.10535 0)
(-0.582522 0.112151 0)
(-1.16273 0.107612 0)
(-1.60707 0.102976 0)
(-1.9481 0.100993 0)
(-2.20547 0.101779 0)
(-2.39979 0.103533 0)
(-2.53727 0.106575 0)
(-2.62951 0.110772 0)
(-2.67715 0.115444 0)
(-2.68826 0.119646 0)
(-2.66957 0.126566 0)
(-2.61176 0.11844 0)
(-2.58137 0.154199 0)
(0.0940257 0.327199 0)
(0.347857 0.252641 0)
(0.681137 0.188564 0)
(1.10175 0.114092 0)
(1.61538 0.0363471 0)
(2.21643 -0.0305731 0)
(2.8772 -0.0588122 1.12696e-17)
(3.54975 -0.045239 -1.11734e-17)
(4.19283 -0.0087228 0)
(4.80185 0.0354322 -1.09884e-17)
(5.35637 0.109436 0)
(5.83876 0.175245 0)
(6.25561 0.234683 0)
(6.61118 0.295078 1.06572e-17)
(6.90505 0.345844 0)
(7.15737 0.389267 0)
(7.3794 0.425983 -1.04499e-17)
(7.56187 0.461702 0)
(7.70289 0.483146 0)
(7.8202 0.510378 0)
(7.92351 0.536427 1.02176e-17)
(7.99174 0.550796 0)
(8.00728 0.552553 1.01351e-17)
(8.00886 0.564393 0)
(8.00478 0.566403 0)
(8.00609 0.528694 9.98212e-18)
(8.09751 0.447992 0)
(8.21193 0.343175 -9.89928e-18)
(8.29543 0.274091 0)
(8.36212 0.341607 9.8064e-18)
(8.36409 0.525411 0)
(8.61597 0.499326 0)
(9.25598 0.313744 0)
(10.0778 0.209827 0)
(10.6957 -0.324397 0)
(10.9895 -1.11743 -9.40735e-18)
(11.1745 -1.49778 0)
(11.3989 -1.17436 1.86649e-17)
(11.2851 -0.13248 0)
(10.5063 0.928727 -1.85602e-17)
(9.39967 1.30201 0)
(8.37963 1.24233 0)
(7.48221 1.12738 1.80943e-17)
(6.66303 1.03832 0)
(5.9186 0.966355 1.78451e-17)
(5.2301 0.905186 -1.77191e-17)
(4.59238 0.85319 0)
(4.01782 0.80202 -1.74685e-17)
(3.48877 0.751145 -1.73444e-17)
(3.02039 0.708154 0)
(2.6165 0.661858 0)
(2.24628 0.61649 0)
(1.93365 0.566809 0)
(1.70994 0.519581 0)
(1.52836 0.470878 1.66201e-17)
(1.39918 0.421311 0)
(1.33048 0.375291 -1.63878e-17)
(1.32663 0.33307 0)
(1.36968 0.282907 0)
(1.4539 0.25069 1.60458e-17)
(1.56332 0.213284 0)
(1.70537 0.181359 -1.58214e-17)
(1.86527 0.163583 0)
(2.03046 0.146114 0)
(2.19792 0.136531 0)
(2.36324 0.121999 1.53758e-17)
(2.51028 0.123961 0)
(2.63842 0.117361 0)
(2.75328 0.116952 1.50453e-17)
(2.84634 0.12777 0)
(2.91756 0.131183 1.48258e-17)
(2.95768 0.123752 0)
(2.97627 0.129273 0)
(2.97317 0.121937 0)
(2.95919 0.12104 -1.4385e-17)
(2.92457 0.117799 0)
(2.85359 0.116055 0)
(2.75972 0.112306 -1.40518e-17)
(2.67386 0.115881 -1.39392e-17)
(2.56128 0.113771 0)
(2.39669 0.123963 -1.37055e-17)
(2.18816 0.137034 0)
(1.95149 0.141655 -2.69491e-17)
(1.65108 0.148152 0)
(1.2607 0.154378 -2.65217e-17)
(0.836414 0.171454 0)
(0.417248 0.170592 2.61414e-17)
(0.0336443 0.171542 0)
(-0.318995 0.161464 0)
(-0.64813 0.172067 0)
(-1.00423 0.182749 -2.53216e-17)
(-1.45876 0.200247 0)
(-2.00088 0.197279 2.48738e-17)
(-2.53141 0.184454 0)
(-3.04932 0.190311 -2.44446e-17)
(-3.51408 0.159018 -2.42271e-17)
(-3.99514 0.139569 -2.40139e-17)
(-4.42434 0.129424 0)
(-4.74887 0.12418 0)
(-4.96988 0.0979545 0)
(-5.21857 0.0847014 0)
(-5.50633 0.149365 0)
(-5.68616 0.209907 0)
(-5.79096 0.192745 0)
(-5.81252 0.160266 0)
(-5.86614 0.179185 2.19457e-17)
(-5.98099 0.248457 2.16761e-17)
(-5.94042 0.203913 0)
(-5.63526 0.125345 0)
(-4.97829 0.00643178 0)
(-3.9005 -0.170469 2.09095e-17)
(-2.35384 -0.209651 0)
(-0.899521 0.158153 0)
(-0.023203 0.451102 0)
(0.441906 0.284714 0)
(0.820079 0.0777298 -2.0847e-17)
(1.17724 0.192901 0)
(1.50636 0.193783 0)
(1.74025 0.0290586 2.02722e-17)
(1.73699 0.0554875 -2.02801e-17)
(0.90388 0.459807 0)
(-1.08009 1.06251 -1.98919e-17)
(-2.82763 1.18376 0)
(-3.38623 0.733068 1.96233e-17)
(-3.34825 0.383324 0)
(-2.73381 0.141089 0)
(-0.981888 -0.330565 0)
(0.463346 0.0811086 0)
(0.322991 0.134301 0)
(3.19388 -0.562575 -3.75146e-17)
(4.73145 -0.255197 -3.66538e-17)
(6.71987 -0.196583 0)
(7.97339 -0.0769533 0)
(9.16768 -0.0364304 0)
(10.1786 0.00650268 3.56033e-17)
(10.9738 0.0511665 0)
(11.6802 0.0855496 0)
(12.1983 0.0918482 0)
(12.6558 0.0677716 3.49393e-17)
(13.0857 0.0862661 -3.47522e-17)
(13.5976 0.107483 0)
(14.0736 0.106664 0)
(14.2483 0.155218 -3.42349e-17)
(14.1104 0.187716 -3.41098e-17)
(13.6858 0.217753 0)
(13.1658 0.144823 0)
(12.5531 0.0483687 3.34141e-17)
(12.0771 -0.113936 -3.30859e-17)
(11.5661 -0.183266 0)
(11.2647 -0.161341 0)
(10.8362 -0.141283 -3.20848e-17)
(10.3833 -0.132613 0)
(9.92582 -0.103014 0)
(9.42096 -0.0460114 -3.09116e-17)
(8.71485 0.0350975 0)
(7.80858 0.0931771 -3.00066e-17)
(7.47299 -0.0167599 0)
(6.89612 0.0101668 0)
(6.03684 0.0514029 0)
(4.74378 0.156777 2.90716e-17)
(3.42409 0.0679139 0)
(1.99029 0.153389 0)
(1.11795 0.159614 0)
(0.797295 -0.247347 0)
(0.581019 -0.248771 0)
(-1.23378 0.333362 0)
(-4.47007 0.990665 2.74696e-17)
(-9.02256 1.33895 2.68874e-17)
(-15.3106 1.54817 0)
(-14.0204 -0.246893 0)
(-9.40356 -1.3429 0)
(-2.39559 -1.02979 -2.66642e-17)
(2.39818 -0.107867 0)
(3.27856 0.40024 5.08373e-17)
(1.91274 0.420719 -5.08392e-17)
(1.3036 0.280733 -5.04698e-17)
(0.960977 0.199162 5.04982e-17)
(0.639817 0.0928549 -5.04954e-17)
(0.590265 0.157945 5.10507e-17)
(0.217453 0.013535 0)
(0.0907326 1.02388 0)
(0.321659 0.791162 0)
(0.636504 0.546249 -2.3432e-17)
(1.09806 0.245355 0)
(1.6853 -0.0520523 2.30658e-17)
(2.36135 -0.280229 2.28865e-17)
(3.08447 -0.379311 1.13441e-17)
(3.80644 -0.331853 1.1238e-17)
(4.49661 -0.201611 0)
(5.13018 -0.0766153 1.10251e-17)
(5.70635 0.151633 0)
(6.20525 0.364654 0)
(6.62887 0.53141 -2.13845e-17)
(7.00734 0.707408 -1.05836e-17)
(7.31907 0.876047 2.09542e-17)
(7.56646 0.969304 2.07521e-17)
(7.79732 1.03967 1.0287e-17)
(8.02722 1.16196 0)
(8.19342 1.26992 0)
(8.31791 1.30746 0)
(8.47287 1.35778 9.95482e-18)
(8.62759 1.46722 0)
(8.68839 1.56616 -2.95376e-17)
(8.73832 1.56373 0)
(8.83596 1.53031 0)
(8.87282 1.39433 -9.68587e-18)
(8.77844 1.20906 0)
(8.59327 1.30374 9.57411e-18)
(8.61826 1.4298 1.91399e-17)
(9.07154 1.30281 -9.54676e-18)
(9.90821 1.11775 0)
(10.5839 0.0270807 0)
(10.3778 -1.32057 0)
(9.92967 -0.869194 1.85585e-17)
(9.27821 0.849511 1.87722e-17)
(7.90382 2.09076 9.4494e-18)
(6.23572 2.62791 0)
(4.87536 2.92618 -1.87897e-17)
(3.92426 3.15118 0)
(3.27148 3.25876 1.85575e-17)
(2.72911 3.18293 0)
(2.13912 3.03693 0)
(1.56744 2.86653 -1.81992e-17)
(1.02733 2.67853 0)
(0.519279 2.49834 -5.38547e-17)
(0.0676973 2.32904 1.78266e-17)
(-0.362937 2.15797 0)
(-0.724568 2.00702 1.75725e-17)
(-1.03878 1.84673 1.74473e-17)
(-1.30061 1.68928 0)
(-1.50005 1.52003 0)
(-1.65472 1.35503 0)
(-1.73792 1.19988 0)
(-1.76679 1.04552 0)
(-1.76285 0.890667 -1.67103e-17)
(-1.67561 0.740365 -3.31823e-17)
(-1.54614 0.592298 1.64718e-17)
(-1.36537 0.458457 0)
(-1.13466 0.328093 -3.24737e-17)
(-0.879222 0.246411 1.61219e-17)
(-0.620909 0.159691 0)
(-0.298559 0.102089 1.58937e-17)
(0.0085621 0.0488745 0)
(0.308373 0.0145 0)
(0.610613 -0.0111537 3.11069e-17)
(0.917863 -0.0267851 -1.5442e-17)
(1.17857 -0.012976 3.06634e-17)
(1.41377 -0.00170174 -3.04447e-17)
(1.6652 0.00458607 -1.5115e-17)
(1.86878 0.0180551 0)
(2.02192 0.050257 -1.49026e-17)
(2.17493 0.0518212 0)
(2.31142 0.0457647 0)
(2.40125 0.0480901 0)
(2.51243 0.0416532 -1.44715e-17)
(2.56934 0.0372479 0)
(2.58934 0.0398201 -2.8508e-17)
(2.60135 0.0284285 4.24318e-17)
(2.60027 0.0276495 1.40327e-17)
(2.55326 0.0394518 0)
(2.49313 0.0788595 1.37801e-17)
(2.38588 0.13978 0)
(2.27443 0.174986 2.69998e-17)
(2.10209 0.271556 0)
(1.85891 0.353683 2.64218e-17)
(1.531 0.338487 -5.24706e-17)
(1.12625 0.289712 -2.60901e-17)
(0.763963 0.217104 0)
(0.467586 0.123449 0)
(0.279424 0.0997839 0)
(0.163125 0.243496 2.54862e-17)
(-0.0264417 0.422 0)
(-0.430267 0.522624 -2.47816e-17)
(-0.87843 0.533167 0)
(-1.36508 0.55803 7.26575e-17)
(-1.77798 0.542051 2.39617e-17)
(-2.28116 0.565445 2.37114e-17)
(-2.7423 0.527648 0)
(-3.1292 0.444252 0)
(-3.47905 0.458736 0)
(-3.83981 0.570492 0)
(-4.15178 0.599068 0)
(-4.41459 0.420504 4.4351e-17)
(-4.72219 0.390947 4.40866e-17)
(-4.81434 0.489671 0)
(-4.80137 0.556051 -2.13058e-17)
(-4.8164 0.564306 -2.08896e-17)
(-4.71142 0.293925 0)
(-4.60406 -0.0379962 -4.12674e-17)
(-4.13722 -0.440344 0)
(-3.24953 -0.972598 2.04454e-17)
(-2.01618 -1.33409 0)
(-0.393415 -0.975439 0)
(1.22036 -0.328736 -3.9582e-17)
(2.03355 0.236151 0)
(1.85996 0.55304 2.0267e-17)
(1.61356 0.570057 0)
(1.37211 0.776412 0)
(0.645086 1.20783 1.99668e-17)
(-0.494696 2.01678 1.99542e-17)
(-2.14277 2.92737 0)
(-4.40784 2.69181 -1.97809e-17)
(-5.16145 1.74232 0)
(-4.46622 0.794204 1.98886e-17)
(-4.3377 0.156214 3.95744e-17)
(-3.51044 -0.404539 0)
(-1.34107 -1.17719 0)
(-0.415544 -0.147 0)
(1.15772 -0.918324 0)
(3.89569 -2.01123 3.85056e-17)
(4.41588 -1.10975 1.11463e-16)
(7.56038 -1.37674 0)
(8.85245 -0.769351 0)
(10.4079 -0.741475 0)
(11.6557 -0.574171 -3.48654e-17)
(12.6845 -0.461532 0)
(13.5779 -0.392856 0)
(14.1852 -0.259996 6.79564e-17)
(14.7504 -0.313752 3.39494e-17)
(15.4103 -0.476035 3.3833e-17)
(16.2212 -0.456527 0)
(17.1746 -0.37884 0)
(17.9085 -0.0919362 3.30596e-17)
(18.0874 -0.00856099 -3.29313e-17)
(17.6416 0.121002 0)
(17.1785 0.0844629 0)
(16.5619 0.114904 -3.21965e-17)
(16.0398 0.15015 9.5927e-17)
(15.0383 -0.00405762 0)
(14.0749 -0.224951 0)
(12.8745 -0.308309 3.09406e-17)
(12.0168 -0.422911 0)
(11.2234 -0.517452 5.93838e-17)
(10.3712 -0.557232 -2.88832e-17)
(9.51562 -0.371843 0)
(8.10772 -0.468848 2.73893e-17)
(8.12062 -0.877777 5.33421e-17)
(8.27108 -0.656364 0)
(7.84404 -0.202969 0)
(6.48314 0.0836871 -2.65196e-17)
(4.46836 0.260809 0)
(2.98988 0.101726 4.98331e-17)
(2.66764 -0.326791 0)
(1.50594 -0.258734 0)
(-1.67421 0.653634 0)
(-5.96753 1.96833 0)
(-10.4725 2.5702 -2.56029e-17)
(-14.5358 3.13443 -2.61373e-17)
(-18.1847 1.36958 0)
(-14.0433 -3.00233 0)
(-11.3836 -5.27095 0)
(-5.04715 -5.77727 2.84606e-17)
(2.82671 -2.80719 0)
(5.40238 -0.300958 -4.66645e-17)
(4.42275 0.152057 4.54538e-17)
(4.30772 -0.320254 4.46177e-17)
(4.46008 -0.494844 4.44014e-17)
(4.91508 -0.572494 4.40149e-17)
(5.37827 -0.363161 4.45015e-17)
(5.32319 -0.376533 0)
(0.112895 1.72468 0)
(0.37962 1.38257 0)
(0.766717 0.855109 2.38293e-17)
(1.36883 0.21883 2.36797e-17)
(2.08731 -0.314346 -2.34938e-17)
(2.85391 -0.650287 -2.32708e-17)
(3.57975 -0.775346 6.4584e-22)
(4.26275 -0.665122 0)
(4.91743 -0.390111 0)
(5.47839 -0.11442 0)
(5.98391 0.250345 0)
(6.4336 0.618097 0)
(6.81783 0.902431 6.52432e-17)
(7.19498 1.18517 0)
(7.50723 1.49722 -2.13235e-17)
(7.75002 1.67072 -2.11083e-17)
(7.96222 1.73729 0)
(8.22543 1.88516 0)
(8.41593 2.10377 0)
(8.51024 2.14285 0)
(8.62655 2.1067 -2.00419e-17)
(8.77927 2.23802 0)
(8.83241 2.43916 1.96942e-17)
(8.7618 2.41648 0)
(8.5971 2.44393 0)
(8.49265 2.67198 0)
(8.60868 2.87202 3.81606e-17)
(9.03012 2.81619 0)
(9.50503 1.5665 -1.87689e-17)
(9.37458 -0.290227 3.67808e-17)
(9.11803 -0.202949 0)
(8.31736 2.01703 0)
(6.26702 3.66254 0)
(4.55797 4.11501 -1.92991e-17)
(3.57066 4.44289 -1.92362e-17)
(2.79295 4.60271 0)
(2.11405 4.59647 0)
(1.46012 4.64586 3.78172e-17)
(0.881197 4.72944 3.75408e-17)
(0.446277 4.75708 -3.7265e-17)
(0.121922 4.63279 0)
(-0.166611 4.41995 0)
(-0.435304 4.19911 0)
(-0.695515 3.94734 0)
(-0.94682 3.69918 3.58564e-17)
(-1.1902 3.45844 3.55845e-17)
(-1.39569 3.22771 -3.5321e-17)
(-1.5843 2.98583 0)
(-1.74613 2.73396 0)
(-1.85954 2.48491 0)
(-1.9445 2.22716 0)
(-1.99116 1.96927 3.40375e-17)
(-1.98289 1.7331 0)
(-1.9277 1.48155 0)
(-1.82706 1.24577 3.33179e-17)
(-1.67684 1.02019 3.30774e-17)
(-1.47815 0.792098 0)
(-1.26058 0.593909 -6.52012e-17)
(-0.986569 0.40993 3.23641e-17)
(-0.693319 0.261143 -3.21354e-17)
(-0.387691 0.159951 0)
(-0.0491774 0.0485272 0)
(0.271661 -0.0350235 0)
(0.59254 -0.0859022 0)
(0.897487 -0.113199 -3.09796e-17)
(1.19693 -0.112484 -6.15046e-17)
(1.4647 -0.0885356 -3.05351e-17)
(1.69903 -0.0521453 3.03171e-17)
(1.91598 -0.0417264 0)
(2.11318 -0.0471184 -5.97616e-17)
(2.27804 0.0253733 -5.93552e-17)
(2.40781 0.0338548 -5.8963e-17)
(2.55982 -0.00269095 5.85688e-17)
(2.6612 0.024009 0)
(2.79581 0.0308117 8.66976e-17)
(2.88498 0.0335406 0)
(2.92522 0.0474915 -2.8513e-17)
(2.94354 0.0432599 -2.83268e-17)
(2.94104 0.0369342 0)
(2.8622 0.0496792 0)
(2.78856 0.0501458 -5.55133e-17)
(2.66555 0.137637 0)
(2.53383 0.135222 -5.46036e-17)
(2.34317 0.268652 0)
(2.1546 0.465465 5.34083e-17)
(1.95983 0.525768 1.05832e-16)
(1.66221 0.529151 0)
(1.304 0.465486 0)
(0.93284 0.264767 0)
(0.599531 0.052577 5.19341e-17)
(0.442317 0.112364 0)
(0.367326 0.401763 5.1256e-17)
(0.191576 0.71877 0)
(-0.16218 0.839061 0)
(-0.721666 0.81485 -9.79249e-17)
(-1.05317 0.770669 0)
(-1.31724 0.877264 -4.76726e-17)
(-1.5682 0.862163 0)
(-1.98416 0.779868 -4.65072e-17)
(-2.29717 0.793691 0)
(-2.42944 0.837633 0)
(-2.58956 0.892451 0)
(-2.70654 1.0151 -1.34562e-16)
(-2.91653 0.991127 -4.41772e-17)
(-2.87695 0.791382 0)
(-2.72926 0.761746 0)
(-2.65741 0.855615 0)
(-2.4397 0.7609 0)
(-2.5012 0.477866 4.16832e-17)
(-2.5815 -0.0996542 -8.32444e-17)
(-2.30692 -0.981421 -4.14178e-17)
(-1.73495 -1.70923 8.23588e-17)
(-0.755187 -1.50589 8.12008e-17)
(0.207358 -0.257012 4.03492e-17)
(0.728373 0.902283 0)
(0.727031 1.4469 8.12612e-17)
(0.356725 1.70912 0)
(0.010059 2.03615 -7.89128e-17)
(-0.919771 2.57489 -3.94374e-17)
(-2.74285 3.37712 0)
(-3.95422 4.35596 7.75575e-17)
(-4.59989 4.2698 3.86635e-17)
(-4.00837 2.65182 0)
(-2.83801 1.30039 3.92698e-17)
(-2.70734 0.460204 -1.16978e-16)
(-2.46879 -0.523273 0)
(-0.546835 -1.78794 0)
(-0.365482 -1.0536 0)
(3.19837 -1.75733 0)
(3.96309 -2.33113 -7.69994e-17)
(5.08098 -1.94691 -7.71573e-17)
(7.85341 -2.66707 0)
(9.3705 -1.33765 0)
(11.0755 -1.36382 0)
(12.6916 -0.951515 0)
(14.0931 -0.724711 0)
(15.2888 -0.531833 0)
(16.0815 -0.29325 -7.04488e-17)
(16.4716 -0.338831 4.17093e-20)
(16.9889 -0.666217 0)
(17.7861 -0.895489 0)
(18.7383 -0.991409 -6.97672e-17)
(19.62 -0.509326 0)
(20.1864 0.175313 6.63348e-17)
(19.8864 0.505454 6.59957e-17)
(19.0858 0.362412 0)
(18.1477 0.24841 0)
(17.6825 0.0542483 -6.34345e-17)
(17.0594 0.0216438 -1.25155e-16)
(16.7037 0.0778041 0)
(15.4339 -0.0406291 0)
(14.0657 -0.297503 0)
(12.7623 -0.372319 -5.87998e-17)
(11.4682 -0.421329 5.67652e-17)
(10.3406 -0.123662 0)
(8.3306 -0.632437 1.07457e-16)
(8.03233 -1.70595 5.25491e-17)
(8.80932 -1.38243 -1.03844e-16)
(8.60388 -0.495907 0)
(7.18784 0.294285 0)
(5.26923 0.323075 -9.6878e-17)
(4.27083 -0.148133 -4.65498e-17)
(3.74275 -0.0848863 0)
(0.478602 1.03961 0)
(-4.7082 2.33681 0)
(-8.40793 4.0062 0)
(-11.4724 4.42599 -9.92504e-17)
(-15.0473 3.71746 0)
(-17.0965 2.38597 0)
(-9.52931 -4.26627 0)
(-9.3377 -6.479 0)
(-5.17529 -8.79942 0)
(0.573457 -5.91123 0)
(5.61971 -0.54972 -9.58358e-17)
(5.20041 -0.011996 0)
(6.39862 -0.60522 0)
(6.74822 -0.835541 -1.71365e-16)
(7.17515 -1.25417 8.69013e-17)
(8.79261 -0.884488 -8.58163e-17)
(9.63463 -0.977983 8.49975e-17)
(0.134183 2.29335 0)
(0.494361 1.75146 -4.8359e-17)
(1.08832 0.794375 0)
(1.90665 -0.178546 -2.36935e-17)
(2.71437 -0.831872 0)
(3.47858 -1.08196 0)
(4.11824 -1.04668 2.27516e-17)
(4.65093 -0.795776 0)
(5.1386 -0.369368 0)
(5.5319 0.0824494 0)
(5.88988 0.554833 0)
(6.21754 1.00716 0)
(6.51432 1.28445 -8.59294e-17)
(6.89036 1.61875 -4.26799e-17)
(7.225 2.05043 4.2476e-17)
(7.49931 2.31597 0)
(7.78112 2.3562 0)
(8.06413 2.56649 0)
(8.28641 2.98344 0)
(8.40023 3.16666 0)
(8.48613 3.11091 -4.01979e-17)
(8.60926 3.32652 -3.98819e-17)
(8.72533 3.75206 3.94157e-17)
(8.77539 3.9975 -3.87051e-17)
(8.95947 4.00716 0)
(9.17239 3.39113 0)
(9.072 2.19367 -3.77637e-17)
(8.9703 1.6573 0)
(8.51146 2.7567 0)
(6.61515 4.43282 -3.92159e-17)
(4.58113 5.21238 -3.92608e-17)
(3.45229 5.63305 -3.91861e-17)
(2.49394 5.92608 0)
(1.70527 6.06611 0)
(1.0282 6.22354 3.84906e-17)
(0.534205 6.25327 0)
(0.1454 6.15616 0)
(-0.132958 6.03677 -3.76259e-17)
(-0.367759 5.91631 3.73609e-17)
(-0.555459 5.75576 -3.70796e-17)
(-0.70891 5.56949 0)
(-0.834338 5.35051 0)
(-0.966354 5.09947 -7.25061e-17)
(-1.10435 4.84203 0)
(-1.22216 4.57709 -7.14943e-17)
(-1.35558 4.292 -1.06511e-16)
(-1.46342 4.00308 1.05788e-16)
(-1.56197 3.7005 -7.00802e-17)
(-1.64429 3.40072 0)
(-1.70367 3.0748 0)
(-1.74786 2.75733 -6.87512e-17)
(-1.73674 2.43523 -3.41581e-17)
(-1.689 2.10784 0)
(-1.60156 1.77205 0)
(-1.45448 1.4563 -3.34865e-17)
(-1.27942 1.15265 -6.65198e-17)
(-1.04394 0.868323 0)
(-0.791233 0.605236 6.55959e-17)
(-0.522169 0.377399 -6.51249e-17)
(-0.191492 0.173025 6.46442e-17)
(0.154273 0.0188865 0)
(0.486785 -0.111627 0)
(0.829396 -0.188682 0)
(1.17431 -0.228885 0)
(1.47446 -0.254911 0)
(1.75596 -0.246171 6.17353e-17)
(2.00425 -0.20958 0)
(2.20774 -0.147051 0)
(2.36826 -0.144559 0)
(2.51967 -0.126238 1.19616e-16)
(2.64096 -0.0630877 5.93228e-17)
(2.7319 -0.0618573 5.88675e-17)
(2.84699 -0.139178 -1.1682e-16)
(2.9149 -0.129749 5.79457e-17)
(3.02596 -0.119417 -5.75213e-17)
(3.11068 -0.113677 0)
(3.1888 -0.095079 5.66911e-17)
(3.24561 -0.0673802 0)
(3.2621 -0.055038 0)
(3.23097 0.0235999 0)
(3.18139 -0.00330052 1.1016e-16)
(3.10119 0.140816 -5.47125e-17)
(2.97767 0.222551 -5.43352e-17)
(2.73999 0.303783 -1.07973e-16)
(2.46869 0.41804 -1.60875e-16)
(2.26703 0.504878 -5.32248e-17)
(2.00485 0.548026 0)
(1.71546 0.555062 -1.04625e-16)
(1.37934 0.421858 0)
(0.897845 0.160686 -1.54154e-16)
(0.464265 -0.0175404 0)
(0.21948 0.229644 -1.52902e-16)
(0.139062 0.690185 0)
(-6.03733e-05 1.05944 0)
(-0.569969 1.14544 -4.91855e-17)
(-1.07369 0.966008 0)
(-1.28924 0.953892 4.87851e-17)
(-1.32409 1.1117 9.52046e-17)
(-1.61453 1.14115 4.72152e-17)
(-1.75755 0.973188 9.40826e-17)
(-1.7349 1.00886 -9.26151e-17)
(-2.01812 1.12898 -9.18057e-17)
(-2.30888 1.11203 1.83158e-16)
(-2.43854 1.05078 0)
(-2.24696 0.915357 0)
(-1.88801 0.946308 9.01927e-17)
(-1.18483 1.00638 -8.74443e-17)
(-0.501297 0.972061 0)
(-0.356256 0.893186 0)
(-0.373288 0.405644 8.25972e-17)
(-0.40795 -0.570506 0)
(-0.573967 -1.48119 2.41342e-21)
(-0.710769 -1.45892 4.17123e-21)
(-0.41317 -0.248752 8.0641e-17)
(-0.197251 1.16888 0)
(-0.260494 2.00612 -8.06246e-17)
(-0.396145 2.29647 0)
(-0.70856 3.00369 7.84727e-17)
(-1.30757 4.35485 0)
(-2.95675 5.30861 0)
(-4.4673 5.36282 -7.78524e-17)
(-4.43622 4.20499 -7.81621e-17)
(-3.20603 1.9883 0)
(-2.31396 1.17212 -7.78819e-17)
(-1.55541 0.63542 1.53798e-16)
(-1.29772 -0.461485 0)
(0.473508 -1.81602 0)
(0.65031 -2.06194 0)
(3.3008 -2.97359 0)
(4.81042 -2.75913 7.62945e-17)
(5.9867 -2.88379 -1.53289e-16)
(7.7859 -3.85064 0)
(9.28068 -2.26615 0)
(10.7191 -2.53444 0)
(12.4465 -2.02868 0)
(14.03 -1.80211 0)
(15.9105 -1.33199 0)
(17.4904 -0.688415 0)
(18.3125 -0.515064 7.08795e-17)
(18.5665 -1.03542 0)
(19.1094 -1.47948 0)
(20.1849 -1.35984 7.15089e-17)
(21.0575 -1.0017 0)
(21.6265 -0.15986 0)
(21.7559 0.539073 -6.67591e-17)
(21.0362 0.727747 0)
(19.3489 0.399475 0)
(18.301 0.0556919 1.28986e-16)
(17.5313 -0.02474 1.26252e-16)
(17.6286 -0.118127 1.24093e-16)
(17.0713 0.111547 0)
(16.1804 -0.00857011 1.20543e-16)
(14.6922 -0.314377 0)