/*--------------------------------*- C++ -*----------------------------------*\
| =========                 |                                                 |
| \\      /  F ield         | OpenFOAM: The Open Source CFD Toolbox           |
|  \\    /   O peration     | Version:  dev                                   |
|   \\  /    A nd           | Web:      http://www.openfoam.org               |
|    \\/     M anipulation  |                                                 |
\*---------------------------------------------------------------------------*/
FoamFile
{
    version     2.0;
    format      ascii;
    class       volVectorField;
    object      UMean;
    location    "9.161";
}
// * * * * * * * * * * * * * * * * * * * * * * * * * * * * * * * * * * * * * //

dimensions      [0 1 -1 0 0 0 0];

internalField   nonuniform List<vector> 
12225
(
(7.00355 0.430261 0)
(4.4387 0.192544 0)
(2.55677 0.0311568 0)
(2.51079 -0.0166528 0)
(1.38449 0.0193617 0)
(2.26725 -0.0342725 0)
(0.989532 0.0489778 0)
(2.18251 -0.0591656 0)
(0.79743 0.0716477 0)
(2.29173 -0.0978448 0)
(0.688557 0.0993672 0)
(2.74363 -0.138642 0)
(0.947723 0.102607 0)
(3.39733 -0.172139 0)
(3.5303 -0.16845 0)
(4.69626 0.0500122 0)
(14.8425 -2.43364 0)
(7.11852 5.13311 0)
(9.54628 0.981571 0)
(9.54322 0.860844 0)
(6.68685 0.466278 0)
(7.59024 0.214541 0)
(4.09071 0.140323 0)
(6.84292 0.0108287 0)
(2.66522 0.132652 0)
(6.68899 -0.0903001 0)
(1.82257 0.141847 0)
(7.03885 -0.165028 0)
(1.26026 0.123892 0)
(8.12151 -0.41435 0)
(1.38434 0.252343 0)
(9.95531 -1.4422 0)
(3.4337 0.271987 0)
(12.3894 -4.06786 0)
(10.4258 -1.92715 0)
(7.77543 0.484054 0)
(9.11855 0.763566 0)
(12.1666 0.951396 0)
(8.32966 0.623996 0)
(11.8318 0.443378 0)
(6.22629 0.31034 0)
(11.4127 0.206496 0)
(4.58303 0.221528 0)
(11.3147 -0.0194426 0)
(3.87428 0.192955 0)
(11.3762 -0.27772 0)
(4.35033 0.187229 0)
(11.2526 -0.722997 0)
(5.72836 0.175874 0)
(11.0899 -1.49152 0)
(7.21463 0.0525659 0)
(12.1164 -3.86586 0)
(6.93308 0.35101 0)
(9.35292 -2.39184 0)
(7.21925 0.524997 0)
(13.9927 0.960953 0)
(7.93009 0.609515 0)
(14.295 0.5538 0)
(7.47469 0.420959 0)
(14.1162 0.271082 0)
(7.17606 0.396722 0)
(13.7383 -0.144998 0)
(7.25698 0.459619 0)
(13.2696 -0.69857 0)
(7.65952 0.576796 0)
(12.8746 -1.42262 0)
(8.2669 0.699452 0)
(12.651 -2.31329 0)
(9.02358 0.0422784 0)
(11.8872 -3.63746 0)
(8.68652 -1.43151 0)
(8.36384 0.681148 0)
(6.42457 0.570116 0)
(14.0103 0.565873 0)
(8.47395 0.674562 0)
(13.9575 0.284511 0)
(9.16977 0.636762 0)
(13.6429 -0.00251182 0)
(9.51754 0.657887 0)
(13.2133 -0.38855 0)
(9.59249 0.734379 0)
(12.8124 -0.871091 0)
(9.44604 0.876873 0)
(12.5819 -1.52115 0)
(9.15014 1.08993 0)
(12.5698 -2.48978 0)
(8.82758 1.13249 0)
(11.616 -5.02793 0)
(8.5423 1.26727 0)
(8.72183 0.126297 0)
(7.9572 0.616972 0)
(11.8023 0.152369 0)
(9.50554 0.654844 0)
(11.7386 0.0502145 0)
(10.0885 0.693989 0)
(11.5997 -0.165634 0)
(10.3208 0.725892 0)
(11.4756 -0.457462 0)
(10.3008 0.783073 0)
(11.3889 -0.853499 0)
(10.0331 0.832127 0)
(11.3548 -1.40003 0)
(9.49281 0.80146 0)
(11.4177 -2.13842 0)
(8.80131 0.726315 0)
(10.9981 -3.92007 0)
(7.73344 1.33638 0)
(9.48911 -0.218571 0)
(9.34463 0.812756 0)
(10.4384 -0.265907 0)
(10.1411 0.930623 0)
(10.5535 -0.30452 0)
(10.3991 1.02005 0)
(10.5815 -0.502839 0)
(10.5205 1.07555 0)
(10.6251 -0.781062 0)
(10.5639 1.15353 0)
(10.6715 -1.15753 0)
(10.516 1.23529 0)
(10.6998 -1.63539 0)
(10.3675 1.26133 0)
(10.688 -2.32686 0)
(10.0537 1.2713 0)
(10.376 -3.95329 0)
(8.29959 2.01881 0)
(9.69716 -0.952516 0)
(9.84931 0.701239 0)
(10.1559 -0.325925 0)
(10.4067 0.855224 0)
(10.3898 -0.349887 0)
(10.5805 0.906988 0)
(10.4705 -0.49395 0)
(10.7018 0.893088 0)
(10.552 -0.68621 0)
(10.8055 0.87282 0)
(10.6439 -0.93511 0)
(10.8812 0.823956 0)
(10.7354 -1.23253 0)
(10.9082 0.671496 0)
(10.7539 -1.6723 0)
(10.7232 0.519806 0)
(10.4926 -2.47326 0)
(8.89438 0.980429 0)
(9.96405 -0.483892 0)
(10.0858 0.802307 0)
(10.0196 -0.58332 0)
(10.5356 1.0216 0)
(10.3106 -0.604437 0)
(10.6752 1.0751 0)
(10.44 -0.724871 0)
(10.7776 1.04829 0)
(10.5708 -0.889895 0)
(10.8573 1.00373 0)
(10.7114 -1.11757 0)
(10.8989 0.921183 0)
(10.8317 -1.39469 0)
(10.8741 0.734868 0)
(10.8221 -1.76053 0)
(10.6023 0.505814 0)
(10.5206 -2.06819 0)
(9.35056 0.586236 0)
(10.0235 -0.391536 0)
(10.1391 0.648695 0)
(10.0423 -0.511872 0)
(10.5103 0.878169 0)
(10.3335 -0.456443 0)
(10.6214 0.869313 0)
(10.482 -0.493578 0)
(10.6979 0.778348 0)
(10.629 -0.572052 0)
(10.7342 0.657986 0)
(10.7636 -0.695237 0)
(10.718 0.495644 0)
(10.8402 -0.844845 0)
(10.6183 0.264191 0)
(10.7655 -1.03192 0)
(10.2825 0.0703338 0)
(10.4795 -1.05244 0)
(9.62377 0.123998 0)
(10.207 -0.0327763 0)
(10.141 0.70004 0)
(10.0706 -0.691743 0)
(10.4525 0.902609 0)
(10.2985 -0.618761 0)
(10.5374 0.8477 0)
(10.4302 -0.645365 0)
(10.6032 0.735344 0)
(10.5606 -0.707207 0)
(10.6272 0.586852 0)
(10.6604 -0.791051 0)
(10.6092 0.383254 0)
(10.6812 -0.869077 0)
(10.5269 0.117254 0)
(10.571 -0.921843 0)
(10.2916 -0.113554 0)
(10.361 -0.764775 0)
(10.0201 -0.15395 0)
(10.2456 -0.125193 0)
(10.0968 0.468025 0)
(10.1509 -0.494951 0)
(10.3536 0.595816 0)
(10.2934 -0.374459 0)
(10.4203 0.527586 0)
(10.4094 -0.354628 0)
(10.4848 0.418936 0)
(10.5239 -0.374019 0)
(10.5131 0.275803 0)
(10.5993 -0.414479 0)
(10.5157 0.0934283 0)
(10.597 -0.461458 0)
(10.4767 -0.103152 0)
(10.4996 -0.49988 0)
(10.3572 -0.231936 0)
(10.3647 -0.405372 0)
(10.266 -0.219659 0)
(10.3739 -0.110096 0)
(10.05 0.411019 0)
(10.1754 -0.487024 0)
(10.2548 0.437255 0)
(10.2379 -0.367268 0)
(10.3087 0.367422 0)
(10.3306 -0.345342 0)
(10.3792 0.250931 0)
(10.4245 -0.355062 0)
(10.4226 0.0995908 0)
(10.4822 -0.374665 0)
(10.4462 -0.0795409 0)
(10.4817 -0.403199 0)
(10.4329 -0.246462 0)
(10.4261 -0.431017 0)
(10.3772 -0.338959 0)
(10.3686 -0.392394 0)
(10.3571 -0.320296 0)
(10.4223 -0.276289 0)
(10.0153 0.199657 0)
(10.1907 -0.285582 0)
(10.1932 0.167384 0)
(10.2051 -0.179099 0)
(10.2293 0.13174 0)
(10.2791 -0.171164 0)
(10.3062 0.0473387 0)
(10.3625 -0.197586 0)
(10.366 -0.0585675 0)
(10.4141 -0.235545 0)
(10.4054 -0.17584 0)
(10.4266 -0.286234 0)
(10.4123 -0.27479 0)
(10.4112 -0.331436 0)
(10.3994 -0.323902 0)
(10.4065 -0.336953 0)
(10.4108 -0.315782 0)
(10.4697 -0.304583 0)
(9.99665 0.0971578 0)
(10.1444 -0.185665 0)
(10.1463 0.0217624 0)
(10.1501 -0.133471 0)
(10.1622 -0.00849951 0)
(10.2089 -0.145959 0)
(10.241 -0.0768061 0)
(10.2919 -0.186534 0)
(10.311 -0.159217 0)
(10.3486 -0.23776 0)
(10.3575 -0.244588 0)
(10.379 -0.298089 0)
(10.3805 -0.316055 0)
(10.3938 -0.349831 0)
(10.3958 -0.360766 0)
(10.4184 -0.379922 0)
(10.4238 -0.380771 0)
(10.4788 -0.386948 0)
(9.99365 0.0155382 0)
(10.1059 -0.0856672 0)
(10.1088 -0.0442095 0)
(10.1138 -0.0931162 0)
(10.1188 -0.0747624 0)
(10.1674 -0.118796 0)
(10.1979 -0.120468 0)
(10.2518 -0.163682 0)
(10.274 -0.180413 0)
(10.3153 -0.218991 0)
(10.3277 -0.243751 0)
(10.3596 -0.277627 0)
(10.3658 -0.30113 0)
(10.3938 -0.328784 0)
(10.3994 -0.34676 0)
(10.4327 -0.370555 0)
(10.4354 -0.383531 0)
(10.4882 -0.396739 0)
(9.99174 0.00478417 0)
(10.0636 -0.0250987 0)
(10.0567 -0.0348457 0)
(10.0678 -0.0663883 0)
(10.0778 -0.0756293 0)
(10.128 -0.0996693 0)
(10.1573 -0.115835 0)
(10.2109 -0.144585 0)
(10.2337 -0.168845 0)
(10.2781 -0.199434 0)
(10.2919 -0.226413 0)
(10.3299 -0.256876 0)
(10.3383 -0.283144 0)
(10.373 -0.311866 0)
(10.3787 -0.336603 0)
(10.4151 -0.365321 0)
(10.4145 -0.387823 0)
(10.4633 -0.407228 0)
(9.99156 0.0141332 0)
(10.0466 0.0161086 0)
(10.0398 -0.010608 0)
(10.0576 -0.0377005 0)
(10.0748 -0.0565399 0)
(10.1254 -0.0778468 0)
(10.1554 -0.0988399 0)
(10.2071 -0.123782 0)
(10.2311 -0.148934 0)
(10.2753 -0.176557 0)
(10.2911 -0.203345 0)
(10.3292 -0.232061 0)
(10.3394 -0.259255 0)
(10.3736 -0.288186 0)
(10.3801 -0.315497 0)
(10.414 -0.345548 0)
(10.4132 -0.371391 0)
(10.4566 -0.393194 0)
(9.9917 0.032868 0)
(10.0502 0.0495313 0)
(10.0566 0.00984717 0)
(10.0799 -0.0181485 0)
(10.1007 -0.0402937 0)
(10.1506 -0.0615195 0)
(10.1819 -0.0836323 0)
(10.2316 -0.106415 0)
(10.2562 -0.130537 0)
(10.2984 -0.155483 0)
(10.315 -0.181032 0)
(10.3507 -0.207267 0)
(10.3614 -0.233486 0)
(10.3926 -0.260325 0)
(10.399 -0.286927 0)
(10.4287 -0.315167 0)
(10.4281 -0.340883 0)
(10.4653 -0.362644 0)
(9.98989 0.0406226 0)
(10.0547 0.0524981 0)
(10.0827 -0.00646086 0)
(10.1167 -0.040772 0)
(10.1419 -0.0641971 0)
(10.1903 -0.0823287 0)
(10.2223 -0.102137 0)
(10.269 -0.121034 0)
(10.2935 -0.142755 0)
(10.332 -0.163985 0)
(10.3483 -0.187382 0)
(10.3801 -0.210055 0)
(10.3904 -0.234345 0)
(10.4173 -0.257849 0)
(10.4228 -0.282699 0)
(10.4473 -0.307718 0)
(10.4461 -0.332334 0)
(10.4767 -0.352712 0)
(9.9905 0.0315072 0)
(10.0684 0.0218533 0)
(10.1261 -0.0558666 0)
(10.1769 -0.096861 0)
(10.2125 -0.119866 0)
(10.2609 -0.13281 0)
(10.2937 -0.147821 0)
(10.336 -0.161685 0)
(10.3601 -0.179839 0)
(10.3941 -0.19691 0)
(10.4103 -0.217335 0)
(10.4377 -0.236203 0)
(10.4478 -0.25793 0)
(10.4702 -0.277981 0)
(10.4754 -0.300645 0)
(10.4946 -0.322253 0)
(10.494 -0.345091 0)
(10.5187 -0.363358 0)
(9.99118 0.00978838 0)
(10.092 -0.0298716 0)
(10.1869 -0.120963 0)
(10.2594 -0.162877 0)
(10.3093 -0.181208 0)
(10.359 -0.187221 0)
(10.3929 -0.196073 0)
(10.4304 -0.204387 0)
(10.4542 -0.218107 0)
(10.4837 -0.230732 0)
(10.5002 -0.247573 0)
(10.5233 -0.262587 0)
(10.5338 -0.281275 0)
(10.5517 -0.297946 0)
(10.5573 -0.317983 0)
(10.5719 -0.336305 0)
(10.5724 -0.356868 0)
(10.5921 -0.37299 0)
(9.99283 -0.0234549 0)
(10.1275 -0.103754 0)
(10.267 -0.205039 0)
(10.3664 -0.241681 0)
(10.4319 -0.250871 0)
(10.4835 -0.248427 0)
(10.5183 -0.250912 0)
(10.5517 -0.253691 0)
(10.5753 -0.262951 0)
(10.6012 -0.271294 0)
(10.6181 -0.284607 0)
(10.6378 -0.29621 0)
(10.6487 -0.312004 0)
(10.6632 -0.325745 0)
(10.6692 -0.343262 0)
(10.6802 -0.358698 0)
(10.6814 -0.376999 0)
(10.6969 -0.391131 0)
(9.99043 -0.0716369 0)
(10.1743 -0.201273 0)
(10.3677 -0.305543 0)
(10.5 -0.327923 0)
(10.5804 -0.322596 0)
(10.6343 -0.310199 0)
(10.6689 -0.305559 0)
(10.6996 -0.302537 0)
(10.7226 -0.306659 0)
(10.746 -0.310522 0)
(10.7624 -0.319827 0)
(10.7794 -0.327957 0)
(10.7895 -0.340474 0)
(10.8006 -0.351238 0)
(10.8055 -0.365815 0)
(10.8124 -0.378362 0)
(10.8122 -0.393907 0)
(10.8222 -0.405848 0)
(9.99203 -0.136417 0)
(10.2447 -0.323107 0)
(10.5026 -0.419082 0)
(10.6711 -0.417678 0)
(10.7627 -0.394184 0)
(10.8174 -0.37109 0)
(10.8493 -0.358904 0)
(10.8771 -0.350534 0)
(10.896 -0.350029 0)
(10.9148 -0.35041 0)
(10.9253 -0.356277 0)
(10.9355 -0.361398 0)
(10.9375 -0.370682 0)
(10.9395 -0.378535 0)
(10.9341 -0.389717 0)
(10.9293 -0.399291 0)
(10.9166 -0.411201 0)
(10.9117 -0.420341 0)
(9.98973 -0.219961 0)
(10.3368 -0.468204 0)
(10.6735 -0.539791 0)
(10.8756 -0.508236 0)
(10.9696 -0.464826 0)
(11.0134 -0.428013 0)
(11.0285 -0.404743 0)
(11.0352 -0.388303 0)
(11.029 -0.381321 0)
(11.0194 -0.37686 0)
(10.998 -0.378057 0)
(10.9736 -0.378957 0)
(10.9378 -0.383669 0)
(10.9001 -0.38714 0)
(10.8525 -0.393498 0)
(10.8044 -0.398816 0)
(10.7465 -0.405129 0)
(10.6949 -0.409898 0)
(9.98333 -0.332111 0)
(10.4675 -0.642372 0)
(10.8828 -0.667136 0)
(11.0724 -0.602628 0)
(11.1029 -0.537157 0)
(11.0583 -0.483073 0)
(10.9743 -0.444922 0)
(10.8732 -0.416153 0)
(10.7579 -0.397928 0)
(10.6352 -0.383184 0)
(10.5038 -0.374793 0)
(10.367 -0.366232 0)
(10.2246 -0.362344 0)
(10.078 -0.356891 0)
(9.92929 -0.355742 0)
(9.7778 -0.35315 0)
(9.62672 -0.352849 0)
(9.4769 -0.351012 0)
(10.0025 -0.453677 0)
(10.619 -0.818981 0)
(10.9016 -0.752057 0)
(10.7933 -0.623705 0)
(10.4938 -0.512493 0)
(10.1378 -0.429147 0)
(9.77035 -0.373516 0)
(9.41792 -0.33467 0)
(9.07721 -0.307238 0)
(8.75596 -0.284554 0)
(8.44709 -0.267599 0)
(8.15409 -0.251279 0)
(7.87346 -0.239991 0)
(7.60397 -0.227292 0)
(7.34927 -0.221089 0)
(7.09983 -0.211783 0)
(6.87151 -0.210812 0)
(6.64217 -0.204139 0)
(10.0974 -0.750788 0)
(10.0458 -1.0132 0)
(9.42489 -0.801059 0)
(8.51449 -0.572147 0)
(7.65515 -0.378706 0)
(6.92909 -0.244874 0)
(6.32762 -0.16751 0)
(5.83199 -0.12624 0)
(5.40966 -0.104691 0)
(5.04916 -0.0923105 0)
(4.72915 -0.084952 0)
(4.44849 -0.0793409 0)
(4.19217 -0.0758006 0)
(3.96333 -0.0718856 0)
(3.75169 -0.0721319 0)
(3.55656 -0.0690804 0)
(3.3844 -0.0802637 0)
(3.21953 -0.0828598 0)
(8.51671 -0.436076 0)
(6.11019 -0.380891 0)
(4.29832 -0.138048 0)
(3.12396 -0.0213879 0)
(2.48124 0.019132 0)
(2.12065 0.0224728 0)
(1.89645 0.0137169 0)
(1.73518 0.00461623 0)
(1.59919 -0.00156807 0)
(1.47849 -0.00479124 0)
(1.36643 -0.00640471 0)
(1.26431 -0.0067181 0)
(1.16867 -0.00670726 0)
(1.08197 -0.00638926 0)
(0.999957 -0.00665736 0)
(0.919742 -0.0070326 0)
(0.852253 -0.0186078 0)
(0.731757 -0.00613178 0)
(-0.0520105 0.137892 0)
(-0.157044 0.07151 0)
(-0.207052 0.0165086 0)
(-0.195247 -0.0442883 0)
(-0.11805 -0.0989849 0)
(0.0120531 -0.145003 0)
(0.186012 -0.175543 1.11357e-17)
(0.38766 -0.193512 -1.10608e-17)
(0.605801 -0.197919 0)
(0.828107 -0.192675 -1.09176e-17)
(1.04521 -0.178355 0)
(1.24812 -0.157614 0)
(1.43029 -0.131004 0)
(1.58647 -0.10167 1.0643e-17)
(1.714 -0.070442 0)
(1.81012 -0.038397 0)
(1.87393 -0.00627772 -1.04459e-17)
(1.90614 0.0239574 0)
(1.90843 0.0504109 0)
(1.88286 0.0721406 0)
(1.83314 0.0891154 1.01964e-17)
(1.7618 0.100669 0)
(1.67276 0.108528 1.00745e-17)
(1.56771 0.111422 0)
(1.45129 0.109533 0)
(1.32622 0.107904 9.89578e-18)
(1.19275 0.111221 0)
(1.05012 0.116356 -9.77945e-18)
(0.901528 0.1216 0)
(0.747577 0.126645 9.66455e-18)
(0.589823 0.130641 0)
(0.430534 0.133087 0)
(0.271969 0.134238 0)
(0.114589 0.134009 0)
(-0.0412926 0.131116 0)
(-0.193593 0.126481 -9.32978e-18)
(-0.340658 0.120465 0)
(-0.482074 0.114074 1.84408e-17)
(-0.616396 0.107676 0)
(-0.74319 0.100496 -1.82218e-17)
(-0.860957 0.0934719 0)
(-0.969856 0.0866993 0)
(-1.07032 0.0789433 1.78885e-17)
(-1.16189 0.0705756 0)
(-1.2452 0.0628453 1.76652e-17)
(-1.32032 0.0555773 -1.75532e-17)
(-1.38675 0.0484517 0)
(-1.4452 0.0421538 -1.73282e-17)
(-1.49676 0.0366489 -1.72152e-17)
(-1.54048 0.032903 0)
(-1.57656 0.0313147 0)
(-1.60691 0.03133 0)
(-1.63364 0.0314903 0)
(-1.65773 0.0315179 0)
(-1.68061 0.0324002 1.65281e-17)
(-1.70416 0.0339518 0)
(-1.72974 0.0361852 -1.62989e-17)
(-1.75614 0.0382637 0)
(-1.78211 0.0388911 0)
(-1.80765 0.0394667 1.59525e-17)
(-1.8334 0.0411895 0)
(-1.86107 0.0423684 -1.57212e-17)
(-1.89068 0.0440016 0)
(-1.92193 0.0454445 0)
(-1.95435 0.0461981 0)
(-1.9873 0.0473204 1.52555e-17)
(-2.02075 0.0492763 0)
(-2.05479 0.0515429 0)
(-2.08952 0.0539328 1.49059e-17)
(-2.12522 0.0552632 0)
(-2.15912 0.055506 1.46712e-17)
(-2.19011 0.0561888 0)
(-2.21832 0.0567672 0)
(-2.24259 0.056779 0)
(-2.26164 0.0562003 -1.42053e-17)
(-2.27486 0.0549988 0)
(-2.28283 0.0542378 0)
(-2.28741 0.0541353 -1.38614e-17)
(-2.289 0.0531305 -1.3748e-17)
(-2.28589 0.051448 0)
(-2.27631 0.0491517 -1.35228e-17)
(-2.26014 0.0462011 0)
(-2.23698 0.04302 -2.66026e-17)
(-2.20684 0.0395612 0)
(-2.17024 0.0358616 -2.61672e-17)
(-2.12703 0.0327775 0)
(-2.07826 0.0303484 2.57384e-17)
(-2.02479 0.0283668 0)
(-1.96675 0.0269298 0)
(-1.90477 0.0259545 0)
(-1.84042 0.0253623 -2.49014e-17)
(-1.77343 0.025092 0)
(-1.70543 0.0250456 2.44996e-17)
(-1.63644 0.0256216 0)
(-1.56715 0.0266403 -2.41103e-17)
(-1.49949 0.0291314 -2.39217e-17)
(-1.43266 0.0302908 -2.37374e-17)
(-1.36566 0.0313446 0)
(-1.30043 0.0313685 0)
(-1.23584 0.0325553 0)
(-1.1702 0.0334133 0)
(-1.10548 0.0330529 0)
(-1.03577 0.0319087 0)
(-0.967069 0.0331755 0)
(-0.896201 0.0327798 0)
(-0.829093 0.0351591 2.22135e-17)
(-0.761549 0.0356069 2.20613e-17)
(-0.698928 0.0399485 0)
(-0.638068 0.0412784 0)
(-0.582042 0.0409237 0)
(-0.514116 0.0383173 2.14808e-17)
(-0.451469 0.0425618 0)
(-0.382784 0.0409091 0)
(-0.31805 0.0437791 0)
(-0.247451 0.0407815 0)
(-0.17469 0.0431299 -2.08064e-17)
(-0.0995441 0.0446082 0)
(-0.0184267 0.0435103 0)
(0.0669266 0.0449475 2.04292e-17)
(0.155864 0.0448312 -2.03076e-17)
(0.248159 0.0442007 0)
(0.344176 0.0481352 -2.00749e-17)
(0.436212 0.0510942 0)
(0.528653 0.0548678 1.98483e-17)
(0.609755 0.0594955 0)
(0.681135 0.0624312 0)
(0.756154 0.0626207 0)
(0.825848 0.0633208 0)
(0.905505 0.0604553 0)
(0.979626 0.060946 -3.83959e-17)
(1.05553 0.0624603 -3.81768e-17)
(1.11617 0.0672253 0)
(1.16706 0.0663379 0)
(1.21214 0.0677036 0)
(1.24887 0.0636718 3.72525e-17)
(1.29665 0.0588767 0)
(1.34582 0.057249 0)
(1.39052 0.0561185 0)
(1.43889 0.0538989 3.62324e-17)
(1.47782 0.0560959 -3.59645e-17)
(1.52206 0.052802 0)
(1.56049 0.0528367 0)
(1.6016 0.0532736 -3.51496e-17)
(1.62766 0.0583016 -3.48766e-17)
(1.65735 0.0549754 0)
(1.68595 0.0586762 0)
(1.72522 0.0556954 3.40432e-17)
(1.76206 0.0659656 -3.37637e-17)
(1.77028 0.0713706 0)
(1.78405 0.0707866 0)
(1.8091 0.0711732 -3.29269e-17)
(1.84234 0.0758855 0)
(1.85573 0.0834756 0)
(1.86669 0.0891611 -3.20827e-17)
(1.8658 0.0932879 0)
(1.8802 0.0981012 -3.15222e-17)
(1.88265 0.105095 0)
(1.88862 0.109216 0)
(1.87585 0.120844 0)
(1.86206 0.126763 3.04332e-17)
(1.84614 0.133161 0)
(1.81416 0.142928 0)
(1.74166 0.154655 0)
(1.66418 0.154848 0)
(1.5974 0.157363 0)
(1.50637 0.166085 0)
(1.37932 0.172401 2.88923e-17)
(1.26189 0.173809 2.87379e-17)
(1.07812 0.181926 0)
(0.87303 0.184458 0)
(0.63082 0.183585 0)
(0.415438 0.169927 -2.83204e-17)
(0.193324 0.162983 0)
(0.0409235 0.146674 5.63456e-17)
(-0.158292 0.143855 -5.62359e-17)
(-0.260161 0.123802 -5.60569e-17)
(-0.421858 0.126834 5.59525e-17)
(-0.455806 0.096554 -5.57499e-17)
(-0.612838 0.129542 5.57304e-17)
(-0.562997 -0.00351754 0)
(0.0100937 0.248939 0)
(0.0143566 0.192272 0)
(0.0493008 0.00799715 -2.27968e-17)
(0.120471 -0.198091 0)
(0.235226 -0.383992 2.23658e-17)
(0.387366 -0.535309 2.22191e-17)
(0.568392 -0.644156 1.10442e-17)
(0.768155 -0.710106 1.09818e-17)
(0.97539 -0.736753 0)
(1.1795 -0.730525 1.08547e-17)
(1.37187 -0.694732 0)
(1.54518 -0.636495 0)
(1.69548 -0.561948 -2.1321e-17)
(1.81801 -0.477613 -1.05953e-17)
(1.91272 -0.385793 2.10565e-17)
(1.97783 -0.291317 2.09229e-17)
(2.01467 -0.199015 1.03958e-17)
(2.02335 -0.110984 0)
(2.00633 -0.0280302 0)
(1.96357 0.046583 0)
(1.89888 0.111983 1.01368e-17)
(1.81233 0.171103 0)
(1.70854 0.224032 -3.0038e-17)
(1.58636 0.266898 0)
(1.44812 0.301916 0)
(1.29434 0.332542 -9.83208e-18)
(1.12851 0.356582 0)
(0.953401 0.373949 9.7157e-18)
(0.77283 0.385058 1.9313e-17)
(0.587703 0.392351 -9.59771e-18)
(0.400782 0.394464 0)
(0.213299 0.390714 0)
(0.024949 0.383535 0)
(-0.163748 0.37671 1.87314e-17)
(-0.350996 0.368206 1.86169e-17)
(-0.535451 0.355951 9.25142e-18)
(-0.714362 0.341151 0)
(-0.888243 0.324023 -1.82765e-17)
(-1.05315 0.303456 0)
(-1.21139 0.281532 1.8051e-17)
(-1.36134 0.259018 0)
(-1.50463 0.236181 0)
(-1.63973 0.215723 -1.77168e-17)
(-1.76756 0.196592 0)
(-1.89057 0.17861 -5.24869e-17)
(-2.00786 0.15979 1.73858e-17)
(-2.11854 0.140822 0)
(-2.22222 0.123845 1.71656e-17)
(-2.31981 0.106131 1.70554e-17)
(-2.41006 0.0864805 0)
(-2.49105 0.0674522 0)
(-2.56493 0.0528164 0)
(-2.63355 0.0431735 0)
(-2.69884 0.0380945 0)
(-2.76018 0.036626 -1.63737e-17)
(-2.81965 0.0362249 -3.25153e-17)
(-2.87751 0.03646 1.61415e-17)
(-2.93113 0.0340851 0)
(-2.98233 0.0302484 -3.18131e-17)
(-3.03148 0.0290346 1.57875e-17)
(-3.07792 0.0299219 0)
(-3.12516 0.0305439 1.555e-17)
(-3.17033 0.0329863 0)
(-3.21321 0.0340854 0)
(-3.25432 0.0331395 3.03753e-17)
(-3.29422 0.0321881 -1.50674e-17)
(-3.32975 0.0300992 2.9892e-17)
(-3.36284 0.0272795 -2.96507e-17)
(-3.39063 0.0242888 -1.47048e-17)
(-3.41544 0.0204534 0)
(-3.43422 0.0134249 -1.44631e-17)
(-3.44602 0.00359765 0)
(-3.4522 -0.00683148 0)
(-3.44998 -0.0191808 0)
(-3.43862 -0.0333029 -1.39833e-17)
(-3.41906 -0.0473045 0)
(-3.39298 -0.0575238 -2.74957e-17)
(-3.36107 -0.0648044 4.08951e-17)
(-3.32375 -0.0734851 1.35166e-17)
(-3.28014 -0.0846772 0)
(-3.22855 -0.0974788 1.32881e-17)
(-3.17167 -0.110219 0)
(-3.10911 -0.122329 2.61248e-17)
(-3.04138 -0.133384 0)
(-2.9686 -0.143936 2.56818e-17)
(-2.89069 -0.153367 -5.09237e-17)
(-2.80881 -0.162299 -2.52479e-17)
(-2.72451 -0.170271 0)
(-2.63522 -0.177779 0)
(-2.54372 -0.183373 0)
(-2.45006 -0.187545 2.44076e-17)
(-2.35311 -0.191562 0)
(-2.25498 -0.194248 -2.40014e-17)
(-2.15685 -0.19463 0)
(-2.05819 -0.19622 7.08232e-17)
(-1.95953 -0.195589 2.34177e-17)
(-1.86025 -0.196632 2.32318e-17)
(-1.76305 -0.193936 0)
(-1.66834 -0.193243 0)
(-1.57306 -0.193967 0)
(-1.47522 -0.194675 0)
(-1.3784 -0.197103 0)
(-1.27589 -0.201426 4.4324e-17)
(-1.17977 -0.199523 4.39879e-17)
(-1.0802 -0.199742 0)
(-0.992791 -0.194271 -2.16763e-17)
(-0.896491 -0.195307 -2.15242e-17)
(-0.809393 -0.188599 0)
(-0.714798 -0.187522 -4.24457e-17)
(-0.636022 -0.187066 0)
(-0.5392 -0.197273 2.09387e-17)
(-0.452845 -0.191048 0)
(-0.347394 -0.198932 0)
(-0.252893 -0.195686 -4.10594e-17)
(-0.139738 -0.204296 0)
(-0.0356065 -0.204828 2.0273e-17)
(0.0898443 -0.212914 0)
(0.216825 -0.22069 0)
(0.352984 -0.22467 1.98875e-17)
(0.493848 -0.229415 1.97711e-17)
(0.639687 -0.234668 0)
(0.788989 -0.235164 -1.95336e-17)
(0.948597 -0.23682 0)
(1.10806 -0.227527 1.92968e-17)
(1.27167 -0.21836 3.83633e-17)
(1.41993 -0.212435 0)
(1.57708 -0.2139 0)
(1.72278 -0.214092 0)
(1.88257 -0.215734 0)
(2.03031 -0.21081 3.72303e-17)
(2.18493 -0.207488 1.11006e-16)
(2.32167 -0.188657 0)
(2.4458 -0.183392 0)
(2.56513 -0.172344 0)
(2.6698 -0.17391 -3.60797e-17)
(2.77167 -0.17836 0)
(2.87194 -0.177953 0)
(2.96639 -0.176514 7.06158e-17)
(3.05964 -0.176963 3.5034e-17)
(3.13502 -0.172376 3.47653e-17)
(3.22311 -0.179678 0)
(3.28696 -0.173364 0)
(3.3542 -0.174777 3.39204e-17)
(3.40102 -0.163976 -3.36143e-17)
(3.44602 -0.178133 0)
(3.47582 -0.175095 0)
(3.50984 -0.1913 -3.27214e-17)
(3.5388 -0.173398 9.71869e-17)
(3.55311 -0.168912 0)
(3.56399 -0.179735 0)
(3.57492 -0.191184 3.1459e-17)
(3.59539 -0.189237 0)
(3.59078 -0.182403 6.16242e-17)
(3.58801 -0.180583 -3.04707e-17)
(3.56024 -0.185263 0)
(3.55665 -0.194662 2.98437e-17)
(3.53289 -0.191106 5.90526e-17)
(3.5219 -0.192496 0)
(3.47554 -0.185347 0)
(3.45152 -0.193667 -2.85732e-17)
(3.40969 -0.18582 0)
(3.35175 -0.168924 5.58861e-17)
(3.25288 -0.149325 0)
(3.1593 -0.154114 0)
(3.03849 -0.145968 0)
(2.90944 -0.12182 0)
(2.71658 -0.103921 -2.66526e-17)
(2.55917 -0.0768329 -2.64631e-17)
(2.2761 -0.0273908 0)
(2.00603 -0.00283789 0)
(1.67727 0.0219889 0)
(1.38316 0.0184923 2.59579e-17)
(1.04958 0.0233669 0)
(0.84217 0.0136644 -5.1668e-17)
(0.523346 0.0317726 5.16418e-17)
(0.41019 0.000614195 5.14929e-17)
(0.128922 0.0314682 5.14831e-17)
(0.130204 -0.0167095 5.1331e-17)
(-0.165677 0.0795787 5.14939e-17)
(0.0188981 -0.115507 0)
(0.029019 0.0716767 0)
(0.120835 -0.0374707 0)
(0.227631 -0.24067 2.29138e-17)
(0.339472 -0.467535 2.26653e-17)
(0.4737 -0.692094 -2.25139e-17)
(0.617668 -0.874067 -2.24013e-17)
(0.771843 -1.00285 -1.47989e-21)
(0.923148 -1.07332 0)
(1.06836 -1.08427 0)
(1.19524 -1.04527 0)
(1.30414 -0.965593 0)
(1.39021 -0.85648 0)
(1.45591 -0.726114 6.47138e-17)
(1.49671 -0.586055 0)
(1.51546 -0.441349 -2.13054e-17)
(1.51034 -0.29499 -2.11691e-17)
(1.48427 -0.153696 0)
(1.43582 -0.0203518 0)
(1.36952 0.103413 0)
(1.28511 0.215929 0)
(1.18486 0.315437 -2.05028e-17)
(1.06969 0.398665 0)
(0.944594 0.471198 2.02488e-17)
(0.806909 0.536451 0)
(0.659511 0.591467 0)
(0.503762 0.636529 0)
(0.345064 0.672594 3.95253e-17)
(0.182396 0.699861 0)
(0.0182409 0.719307 -1.95224e-17)
(-0.146942 0.729752 3.88002e-17)
(-0.311418 0.733047 0)
(-0.478158 0.734884 0)
(-0.645052 0.731864 0)
(-0.810662 0.722286 -1.89168e-17)
(-0.972584 0.706927 -1.8796e-17)
(-1.13124 0.685313 0)
(-1.28505 0.657893 0)
(-1.43323 0.62625 3.68595e-17)
(-1.57435 0.59209 3.66199e-17)
(-1.71367 0.557611 -3.63817e-17)
(-1.84788 0.524719 0)
(-1.98019 0.491056 0)
(-2.10681 0.458723 0)
(-2.22969 0.429184 0)
(-2.34824 0.40139 3.52009e-17)
(-2.4608 0.372031 3.49672e-17)
(-2.56821 0.342255 -3.47353e-17)
(-2.67003 0.313595 0)
(-2.76582 0.285616 0)
(-2.85635 0.256497 0)
(-2.94156 0.229598 0)
(-3.02685 0.211777 3.35758e-17)
(-3.1062 0.195913 0)
(-3.18063 0.182685 0)
(-3.24852 0.174846 3.28783e-17)
(-3.31185 0.16967 3.26467e-17)
(-3.36965 0.162859 0)
(-3.4199 0.153676 -6.43601e-17)
(-3.46793 0.146781 3.19487e-17)
(-3.51222 0.140562 -3.17142e-17)
(-3.55047 0.136662 0)
(-3.58594 0.133749 0)
(-3.61545 0.129359 0)
(-3.64001 0.124572 0)
(-3.66195 0.118881 -3.05523e-17)
(-3.67978 0.11109 -6.0646e-17)
(-3.69195 0.103745 -3.00975e-17)
(-3.70065 0.0966272 2.98726e-17)
(-3.70198 0.0854991 0)
(-3.69786 0.0727485 -5.88399e-17)
(-3.68589 0.0570068 -5.83916e-17)
(-3.66843 0.0411805 -5.79466e-17)
(-3.64691 0.0236788 5.75048e-17)
(-3.61651 0.00159062 0)
(-3.57928 -0.0209571 8.49418e-17)
(-3.53617 -0.0404298 0)
(-3.4884 -0.0559335 -2.78779e-17)
(-3.43203 -0.0698461 -2.7665e-17)
(-3.36775 -0.0855453 0)
(-3.29729 -0.102458 0)
(-3.22334 -0.119243 -5.4042e-17)
(-3.14712 -0.134167 0)
(-3.06688 -0.148451 -5.31951e-17)
(-2.98402 -0.162167 0)
(-2.89656 -0.176629 5.23565e-17)
(-2.80552 -0.188134 1.03885e-16)
(-2.71075 -0.197994 0)
(-2.61505 -0.207263 0)
(-2.51631 -0.214759 0)
(-2.41881 -0.220869 5.02921e-17)
(-2.31964 -0.226704 0)
(-2.21713 -0.231379 4.94701e-17)
(-2.11186 -0.23465 0)
(-2.00612 -0.233925 0)
(-1.89808 -0.234131 -9.65079e-17)
(-1.79272 -0.231833 0)
(-1.6854 -0.231364 -4.74635e-17)
(-1.58236 -0.225351 0)
(-1.47511 -0.226056 -4.66961e-17)
(-1.3685 -0.225194 0)
(-1.25961 -0.224351 0)
(-1.15224 -0.228084 0)
(-1.04191 -0.230493 -1.35698e-16)
(-0.941967 -0.22212 -4.48714e-17)
(-0.83292 -0.219019 0)
(-0.739922 -0.208658 0)
(-0.638284 -0.21014 0)
(-0.552697 -0.197916 0)
(-0.448746 -0.19423 4.32367e-17)
(-0.362647 -0.189624 -8.58382e-17)
(-0.255472 -0.206354 -4.26338e-17)
(-0.168046 -0.198048 8.4659e-17)
(-0.0483005 -0.213207 8.40952e-17)
(0.0534033 -0.209776 4.17619e-17)
(0.183528 -0.224675 0)
(0.296249 -0.225806 8.23981e-17)
(0.434834 -0.242287 0)
(0.566986 -0.251706 -8.12865e-17)
(0.715391 -0.257813 -4.0385e-17)
(0.861506 -0.262727 0)
(1.0166 -0.270792 7.97628e-17)
(1.16595 -0.273295 3.96282e-17)
(1.328 -0.281954 0)
(1.48673 -0.278101 3.909e-17)
(1.65946 -0.268331 -1.16509e-16)
(1.81965 -0.25701 0)
(1.98461 -0.256572 0)
(2.13732 -0.256198 0)
(2.29802 -0.259799 0)
(2.45524 -0.25545 -7.51541e-17)
(2.61169 -0.252217 -7.46551e-17)
(2.7635 -0.221328 0)
(2.90161 -0.214798 0)
(3.03298 -0.201066 0)
(3.15464 -0.199016 0)
(3.26132 -0.203763 0)
(3.38065 -0.206936 0)
(3.49326 -0.206206 -7.09514e-17)
(3.60571 -0.205801 -1.65158e-20)
(3.70063 -0.198393 0)
(3.80997 -0.209127 0)
(3.89997 -0.196352 -6.86061e-17)
(3.99165 -0.197127 0)
(4.07139 -0.176355 6.74239e-17)
(4.13988 -0.187186 6.68062e-17)
(4.18165 -0.170319 0)
(4.2354 -0.188959 0)
(4.27396 -0.164995 -6.4899e-17)
(4.32375 -0.155922 -1.28509e-16)
(4.35133 -0.160121 0)
(4.38391 -0.171835 0)
(4.42552 -0.163065 0)
(4.43824 -0.148209 -6.16876e-17)
(4.4661 -0.135142 6.09999e-17)
(4.46471 -0.135347 0)
(4.4847 -0.142161 1.19364e-16)
(4.4685 -0.130261 5.90282e-17)
(4.48602 -0.128576 -1.16762e-16)
(4.46366 -0.109681 0)
(4.46336 -0.115897 0)
(4.43151 -0.0941964 -1.12741e-16)
(4.38976 -0.0665219 -5.57147e-17)
(4.30312 -0.0364995 0)
(4.23837 -0.0345729 0)
(4.10536 -0.0168839 0)
(3.99504 0.0245229 0)
(3.78484 0.0503524 -1.05591e-16)
(3.61704 0.0944331 0)
(3.32044 0.165389 0)
(3.06463 0.189827 0)
(2.716 0.21876 0)
(2.4027 0.202585 0)
(2.01311 0.187287 0)
(1.77636 0.153105 -1.00639e-16)
(1.37218 0.149297 0)
(1.2445 0.0824996 0)
(0.85969 0.10495 -1.99431e-16)
(0.855858 0.0217304 9.92533e-17)
(0.471098 0.112512 -9.94038e-17)
(0.666787 -0.125798 9.87834e-17)
(0.020638 -0.0933481 0)
(0.124862 -0.268103 -4.6957e-17)
(0.247421 -0.488657 0)
(0.375179 -0.754149 -2.27975e-17)
(0.501719 -0.997859 0)
(0.617735 -1.18685 0)
(0.722354 -1.30467 2.24465e-17)
(0.802981 -1.34817 0)
(0.865865 -1.31849 0)
(0.905068 -1.23286 0)
(0.927111 -1.11022 0)
(0.929847 -0.961105 0)
(0.918161 -0.794148 -8.66179e-17)
(0.889351 -0.617154 -4.30261e-17)
(0.846953 -0.434523 4.27467e-17)
(0.790677 -0.253636 0)
(0.722515 -0.0811214 0)
(0.641017 0.0803617 0)
(0.549637 0.229355 0)
(0.447925 0.362943 0)
(0.33874 0.480746 -4.11511e-17)
(0.2203 0.582857 -4.08985e-17)
(0.093927 0.673762 4.06493e-17)
(-0.0382236 0.749926 -4.04016e-17)
(-0.174476 0.812841 0)
(-0.313477 0.8611 0)
(-0.454004 0.897316 -3.96584e-17)
(-0.594888 0.922217 0)
(-0.736707 0.936526 0)
(-0.879059 0.945255 -3.89253e-17)
(-1.02192 0.950764 -3.8682e-17)
(-1.16259 0.948425 -3.84375e-17)
(-1.30017 0.939235 0)
(-1.43445 0.923829 0)
(-1.56413 0.9022 3.76938e-17)
(-1.68878 0.872365 0)
(-1.80942 0.836613 0)
(-1.92643 0.796918 -3.6949e-17)
(-2.04035 0.758691 3.66975e-17)
(-2.15264 0.720364 -3.64488e-17)
(-2.25842 0.681429 0)
(-2.3625 0.641881 0)
(-2.46251 0.605329 -7.14203e-17)
(-2.55968 0.570899 0)
(-2.65144 0.532704 -7.04542e-17)
(-2.73974 0.494516 -1.04964e-16)
(-2.82436 0.458589 1.04243e-16)
(-2.90372 0.42224 -6.90152e-17)
(-2.97989 0.384953 0)
(-3.05354 0.34924 0)
(-3.12681 0.321046 -6.76029e-17)
(-3.19742 0.29653 -3.3571e-17)
(-3.26168 0.270902 0)
(-3.3218 0.249741 0)
(-3.37727 0.234386 -3.28789e-17)
(-3.42737 0.217627 -6.5298e-17)
(-3.47116 0.198749 0)
(-3.50903 0.180889 6.43799e-17)
(-3.54284 0.166453 -6.39206e-17)
(-3.57152 0.152882 6.34647e-17)
(-3.59406 0.138774 0)
(-3.61082 0.125587 0)
(-3.62301 0.114242 0)
(-3.63008 0.10265 0)
(-3.63352 0.0921446 0)
(-3.63219 0.0769349 6.07745e-17)
(-3.62653 0.0604358 0)
(-3.61365 0.0421046 0)
(-3.595 0.0214482 0)
(-3.57204 -0.000151754 1.18048e-16)
(-3.54363 -0.0238511 5.85918e-17)
(-3.51035 -0.0475396 5.81582e-17)
(-3.47221 -0.0742791 -1.15458e-16)
(-3.42762 -0.105435 5.73041e-17)
(-3.37976 -0.135343 -5.68847e-17)
(-3.32561 -0.162815 0)
(-3.26672 -0.188864 5.6038e-17)
(-3.1979 -0.215664 0)
(-3.125 -0.240978 0)
(-3.04645 -0.263037 0)
(-2.96647 -0.283966 1.0872e-16)
(-2.88427 -0.3033 -5.39468e-17)
(-2.79883 -0.322484 -5.35335e-17)
(-2.71203 -0.341488 -1.06272e-16)
(-2.62129 -0.36155 -1.58218e-16)
(-2.52947 -0.377584 -5.23443e-17)
(-2.43292 -0.390737 0)
(-2.33661 -0.402327 -1.03072e-16)
(-2.23881 -0.410413 0)
(-2.141 -0.416621 -1.52207e-16)
(-2.04251 -0.426534 0)
(-1.94504 -0.432937 -1.49834e-16)
(-1.84152 -0.439225 0)
(-1.7375 -0.439901 0)
(-1.62881 -0.441531 -4.87479e-17)
(-1.52157 -0.438454 0)
(-1.41104 -0.438137 4.79739e-17)
(-1.30536 -0.43353 9.51596e-17)
(-1.19171 -0.435345 4.72054e-17)
(-1.08196 -0.437103 9.3653e-17)
(-0.963551 -0.437706 -9.28961e-17)