/*--------------------------------*- C++ -*----------------------------------*\
| =========                 |                                                 |
| \\      /  F ield         | OpenFOAM: The Open Source CFD Toolbox           |
|  \\    /   O peration     | Version:  dev                                   |
|   \\  /    A nd           | Web:      http://www.openfoam.org               |
|    \\/     M anipulation  |                                                 |
\*---------------------------------------------------------------------------*/
FoamFile
{
    version     2.0;
    format      ascii;
    class       volSymmTensorField;
    object      UPrime2Mean;
    location    "9.161";
}
// * * * * * * * * * * * * * * * * * * * * * * * * * * * * * * * * * * * * * //

dimensions      [0 2 -2 0 0 0 0];

internalField   nonuniform List<symmTensor> 
12225
(
(0.329306 0.0192519 0 0.0691727 0 0)
(2.98688 0.0796132 0 0.0780826 0 0)
(7.88229 0.112177 0 0.076788 0 0)
(14.538 0.148023 0 0.0754652 0 0)
(22.7086 0.132776 0 0.0764131 0 0)
(32.0748 0.200786 0 0.0745703 0 0)
(42.3896 0.0956806 0 0.0765136 0 0)
(53.5356 0.200037 0 0.0737542 0 0)
(65.6316 -0.0287654 0 0.0775191 0 0)
(78.2311 0.125257 0 0.0735279 0 0)
(92.9794 -0.306531 0 0.0812252 0 0)
(107.323 -0.116101 0 0.0769065 0 0)
(127.935 -0.672564 0 0.0862372 0 0)
(145.637 -1.27703 0 0.134615 0 0)
(185.964 -1.41154 0 0.116385 0 0)
(198.539 -0.393432 0 2.39323 0 0)
(272.329 -33.5373 0 5.80783 0 0)
(575.853 -52.9363 0 18.8218 0 0)
(0.377482 0.0567424 0 0.688025 0 0)
(3.15691 0.251986 0 0.731256 0 0)
(8.41281 0.361738 0 0.713145 0 0)
(15.4773 0.484824 0 0.705649 0 0)
(24.2031 0.452373 0 0.70253 0 0)
(34.4645 0.631992 0 0.682383 0 0)
(45.5342 0.295367 0 0.691192 0 0)
(58.4921 0.60809 0 0.657898 0 0)
(71.4851 -0.135885 0 0.68177 0 0)
(87.1624 0.281757 0 0.645143 0 0)
(102.798 -1.06576 0 0.71047 0 0)
(121.444 -0.766534 0 0.654734 0 0)
(142.869 -2.5436 0 1.0682 0 0)
(166.331 -4.4901 0 1.04607 0 0)
(199.802 -0.929601 0 3.10236 0 0)
(274.388 -9.97535 0 6.60437 0 0)
(281.066 -20.8384 0 8.73604 0 0)
(799.935 -185.181 0 64.6939 0 0)
(0.504967 0.0583216 0 2.13763 0 0)
(3.06466 0.424188 0 2.19946 0 0)
(8.46747 0.569942 0 2.14847 0 0)
(14.856 0.850952 0 2.13996 0 0)
(24.2806 0.863468 0 2.11691 0 0)
(33.1576 1.05174 0 2.07977 0 0)
(45.2793 0.754994 0 2.07557 0 0)
(56.2129 0.884779 0 2.0049 0 0)
(69.6982 0.170947 0 2.04908 0 0)
(83.463 0.0155522 0 1.95686 0 0)
(98.204 -1.12472 0 2.12013 0 0)
(115.684 -2.4492 0 2.09219 0 0)
(138.644 -3.59758 0 2.62022 0 0)
(154.901 -7.20046 0 2.82938 0 0)
(211.044 -13.009 0 6.12012 0 0)
(223.437 -7.89229 0 6.37539 0 0)
(353.063 -62.2645 0 31.0815 0 0)
(534.584 -192.505 0 98.2301 0 0)
(1.02934 0.0923237 0 4.66405 0 0)
(3.54987 0.618883 0 4.76049 0 0)
(9.07019 0.815044 0 4.63646 0 0)
(15.0696 1.14872 0 4.59578 0 0)
(24.6412 1.31139 0 4.55158 0 0)
(32.9909 1.34813 0 4.47737 0 0)
(45.0141 1.25941 0 4.44248 0 0)
(55.1794 0.971363 0 4.34417 0 0)
(68.6141 0.473675 0 4.37601 0 0)
(80.7299 -0.284881 0 4.2526 0 0)
(96.0553 -1.3334 0 4.5021 0 0)
(110.536 -3.34386 0 4.36734 0 0)
(131.501 -4.79623 0 5.29759 0 0)
(152.283 -10.9742 0 5.60363 0 0)
(187.894 -11.4315 0 9.28477 0 0)
(238.464 -28.8666 0 16.8194 0 0)
(291.517 -58.9219 0 32.6753 0 0)
(414.871 -178.326 0 107.832 0 0)
(1.86327 0.364805 0 8.51104 0 0)
(5.00969 0.719695 0 8.7123 0 0)
(9.4374 1.13891 0 8.46147 0 0)
(16.2452 1.29327 0 8.35849 0 0)
(24.6539 1.69882 0 8.26904 0 0)
(33.9539 1.50033 0 8.13415 0 0)
(44.8298 1.59517 0 8.0337 0 0)
(55.5347 0.990151 0 7.9019 0 0)
(68.4295 0.597188 0 7.84913 0 0)
(80.1385 -0.597285 0 7.75162 0 0)
(95.3914 -1.78264 0 7.95363 0 0)
(108.58 -4.23169 0 7.90125 0 0)
(128.123 -6.88385 0 9.01876 0 0)
(145.252 -12.292 0 9.26078 0 0)
(173.997 -19.2052 0 14.5845 0 0)
(217.928 -25.9598 0 17.2043 0 0)
(233.71 -55.582 0 46.2592 0 0)
(326.695 -171.746 0 138.652 0 0)
(2.56212 0.750123 0 14.0208 0 0)
(6.32535 0.806601 0 14.3722 0 0)
(9.30227 1.53856 0 13.9429 0 0)
(17.0999 1.59292 0 13.7484 0 0)
(24.1464 2.11826 0 13.574 0 0)
(34.2737 1.93399 0 13.3423 0 0)
(43.986 1.98787 0 13.1376 0 0)
(55.1837 1.41175 0 12.8972 0 0)
(67.3437 0.890383 0 12.7612 0 0)
(78.9273 -0.390606 0 12.5606 0 0)
(94.4474 -1.7432 0 12.7619 0 0)
(105.853 -4.31759 0 12.6707 0 0)
(128.141 -7.27154 0 13.9742 0 0)
(137.967 -13.1618 0 14.6541 0 0)
(171.003 -21.8402 0 21.2384 0 0)
(191.513 -33.0458 0 24.5903 0 0)
(211.106 -55.9187 0 51.5586 0 0)
(265.696 -145.65 0 130.612 0 0)
(2.24492 0.721233 0 21.5029 0 0)
(5.5446 0.940552 0 22.1183 0 0)
(9.20255 1.76204 0 21.345 0 0)
(16.3441 2.07536 0 21.1576 0 0)
(23.9798 2.44698 0 20.7595 0 0)
(33.3732 2.53937 0 20.5266 0 0)
(43.6238 2.27014 0 20.0592 0 0)
(54.0648 1.92361 0 19.8296 0 0)
(66.5044 0.891675 0 19.4128 0 0)
(77.3833 -0.223904 0 19.2603 0 0)
(92.5428 -2.37796 0 19.2018 0 0)
(103.526 -4.82914 0 19.2447 0 0)
(123.672 -8.98766 0 20.4558 0 0)
(133.957 -14.2666 0 21.4342 0 0)
(161.573 -24.4073 0 28.4978 0 0)
(169.415 -32.4149 0 32.0353 0 0)
(203.412 -59.0127 0 56.8421 0 0)
(190.284 -108.769 0 114.106 0 0)
(1.42488 0.598396 0 29.7137 0 0)
(4.32305 1.1339 0 30.5981 0 0)
(8.58557 1.92221 0 29.4524 0 0)
(15.2557 2.47006 0 29.2813 0 0)
(23.2135 2.77397 0 28.637 0 0)
(32.275 2.95923 0 28.3764 0 0)
(42.4317 2.59333 0 27.6259 0 0)
(52.8049 2.1856 0 27.3458 0 0)
(64.4462 1.00107 0 26.6235 0 0)
(75.6357 -0.370159 0 26.4589 0 0)
(88.6701 -2.75935 0 26.0771 0 0)
(100.456 -5.743 0 26.3022 0 0)
(115.575 -10.3296 0 27.06 0 0)
(128.107 -15.8073 0 28.5754 0 0)
(144.696 -26.4981 0 33.8899 0 0)
(152.059 -33.4652 0 37.4558 0 0)
(180.365 -54.8971 0 53.1602 0 0)
(139.623 -71.3159 0 83.6677 0 0)
(1.0077 0.521032 0 38.4727 0 0)
(3.77914 1.28686 0 39.6656 0 0)
(8.18212 2.03383 0 38.1302 0 0)
(14.7314 2.77677 0 37.9893 0 0)
(22.659 3.00196 0 37.0806 0 0)
(31.5947 3.3109 0 36.806 0 0)
(41.5157 2.79923 0 35.7566 0 0)
(51.7879 2.46652 0 35.4386 0 0)
(62.846 1.03092 0 34.4317 0 0)
(73.8618 -0.28969 0 34.2324 0 0)
(85.6813 -3.05504 0 33.6035 0 0)
(97.0404 -5.91334 0 33.864 0 0)
(109.369 -10.9586 0 34.3748 0 0)
(121.243 -16.0494 0 36.0951 0 0)
(131.253 -25.5718 0 39.9787 0 0)
(138.173 -33.2154 0 44.7095 0 0)
(150.021 -47.3282 0 52.4376 0 0)
(123.238 -58.7571 0 73.0927 0 0)
(0.612177 0.484215 0 49.6439 0 0)
(3.23632 1.44464 0 51.23 0 0)
(7.74297 2.18428 0 49.1364 0 0)
(14.201 3.03246 0 49.049 0 0)
(21.9962 3.26893 0 47.7615 0 0)
(30.855 3.57341 0 47.4826 0 0)
(40.4806 3.05817 0 46.0234 0 0)
(50.6161 2.62849 0 45.6555 0 0)
(61.141 1.15268 0 44.2384 0 0)
(71.8096 -0.303706 0 43.9958 0 0)
(82.6918 -3.15352 0 42.9539 0 0)
(93.2347 -6.05116 0 43.274 0 0)
(103.875 -11.1064 0 43.2766 0 0)
(113.739 -15.8584 0 45.1342 0 0)
(121.349 -24.5172 0 47.6392 0 0)
(125.787 -30.5816 0 51.9105 0 0)
(129.123 -40.7267 0 56.4328 0 0)
(116.029 -48.3968 0 68.9956 0 0)
(0.434125 0.515762 0 63.8188 0 0)
(2.97926 1.62575 0 65.8711 0 0)
(7.47041 2.38081 0 63.183 0 0)
(13.8471 3.30616 0 63.0712 0 0)
(21.4938 3.56435 0 61.4397 0 0)
(30.1922 3.8524 0 61.0257 0 0)
(39.5513 3.34822 0 59.2204 0 0)
(49.3896 2.80876 0 58.6266 0 0)
(59.4595 1.35837 0 56.9086 0 0)
(69.5623 -0.280186 0 56.3923 0 0)
(79.6575 -2.99586 0 55.0924 0 0)
(89.1917 -6.09684 0 55.1499 0 0)
(98.5085 -10.569 0 54.8065 0 0)
(106.385 -15.4318 0 56.3557 0 0)
(112.549 -22.1464 0 57.8017 0 0)
(115.083 -28.0613 0 61.5326 0 0)
(116.028 -35.2066 0 64.5005 0 0)
(109.579 -40.805 0 71.3999 0 0)
(0.356343 0.540024 0 81.2881 0 0)
(2.83159 1.74284 0 83.9698 0 0)
(7.26213 2.55167 0 80.5067 0 0)
(13.5167 3.49651 0 80.3975 0 0)
(20.9899 3.80277 0 78.314 0 0)
(29.4682 4.02889 0 77.7616 0 0)
(38.525 3.55133 0 75.4757 0 0)
(47.9938 2.9083 0 74.6524 0 0)
(57.5463 1.46863 0 72.4638 0 0)
(67.038 -0.236741 0 71.6786 0 0)
(76.2498 -2.88734 0 69.9265 0 0)
(84.8344 -5.87316 0 69.6695 0 0)
(92.7395 -9.97774 0 68.8372 0 0)
(99.1675 -14.3062 0 69.793 0 0)
(103.881 -19.7525 0 70.4383 0 0)
(105.825 -24.6652 0 72.9446 0 0)
(105.981 -29.8299 0 74.8893 0 0)
(101.736 -33.3143 0 78.548 0 0)
(0.329266 0.568429 0 102.338 0 0)
(2.73615 1.8044 0 105.543 0 0)
(7.06899 2.67939 0 101.522 0 0)
(13.1554 3.57795 0 101.053 0 0)
(20.4332 3.92658 0 98.7923 0 0)
(28.6164 4.04617 0 97.7141 0 0)
(37.3486 3.60517 0 95.203 0 0)
(46.3475 2.82212 0 93.7558 0 0)
(55.3747 1.46141 0 91.3231 0 0)
(64.154 -0.356265 0 89.8747 0 0)
(72.5313 -2.77475 0 87.8517 0 0)
(80.1198 -5.70609 0 86.8805 0 0)
(86.8398 -9.21636 0 85.6722 0 0)
(92.0997 -13.1052 0 85.6823 0 0)
(95.8009 -17.323 0 85.6355 0 0)
(97.3854 -21.3893 0 86.7799 0 0)
(97.4882 -25.2333 0 87.8101 0 0)
(94.6846 -27.6885 0 89.4179 0 0)
(0.313673 0.572637 0 126.3 0 0)
(2.64081 1.77158 0 130.224 0 0)
(6.84816 2.66371 0 125.52 0 0)
(12.7312 3.45777 0 124.711 0 0)
(19.7668 3.78442 0 122.183 0 0)
(27.6162 3.79735 0 120.609 0 0)
(35.9563 3.32295 0 117.73 0 0)
(44.4645 2.47528 0 115.699 0 0)
(52.8998 1.11985 0 112.843 0 0)
(60.992 -0.643904 0 110.756 0 0)
(68.5394 -2.91222 0 108.269 0 0)
(75.2616 -5.54432 0 106.546 0 0)
(80.9984 -8.59958 0 104.782 0 0)
(85.4467 -11.8229 0 103.781 0 0)
(88.4917 -15.1856 0 102.953 0 0)
(89.9292 -18.3529 0 102.782 0 0)
(90.2316 -21.2716 0 102.799 0 0)
(88.269 -22.9188 0 102.954 0 0)
(0.299279 0.524201 0 151.682 0 0)
(2.53288 1.57949 0 156.177 0 0)
(6.58399 2.37397 0 151.054 0 0)
(12.2333 2.98301 0 149.617 0 0)
(18.9737 3.20563 0 147.062 0 0)
(26.4517 3.06294 0 144.752 0 0)
(34.351 2.52195 0 141.667 0 0)
(42.339 1.58946 0 138.864 0 0)
(50.1746 0.25981 0 135.67 0 0)
(57.5926 -1.44524 0 132.797 0 0)
(64.4043 -3.5071 0 129.85 0 0)
(70.382 -5.84472 0 127.282 0 0)
(75.3952 -8.42153 0 124.883 0 0)
(79.2814 -11.0735 0 122.886 0 0)
(81.9791 -13.7113 0 121.176 0 0)
(83.3969 -16.1758 0 119.841 0 0)
(83.9793 -18.374 0 118.755 0 0)
(82.7726 -19.4208 0 117.648 0 0)
(0.283997 0.39369 0 174.874 0 0)
(2.4145 1.1439 0 180.066 0 0)
(6.2838 1.66804 0 174.465 0 0)
(11.6716 1.99961 0 172.585 0 0)
(18.0783 1.99629 0 169.906 0 0)
(25.1578 1.65912 0 167.059 0 0)
(32.5892 0.978274 0 163.677 0 0)
(40.0571 -0.0308116 0 160.284 0 0)
(47.3141 -1.36522 0 156.672 0 0)
(54.1269 -2.97709 0 153.163 0 0)
(60.3177 -4.84529 0 149.68 0 0)
(65.7222 -6.87596 0 146.394 0 0)
(70.2355 -9.03 0 143.302 0 0)
(73.7847 -11.1777 0 140.452 0 0)
(76.3401 -13.2413 0 137.865 0 0)
(77.8661 -15.1406 0 135.545 0 0)
(78.7479 -16.788 0 133.437 0 0)
(78.1997 -17.3865 0 131.243 0 0)
(0.268778 0.15625 0 189.965 0 0)
(2.29366 0.390674 0 195.629 0 0)
(5.96733 0.48843 0 189.742 0 0)
(11.076 0.409814 0 187.602 0 0)
(17.1326 0.0731711 0 184.859 0 0)
(23.8044 -0.535149 0 181.692 0 0)
(30.7741 -1.40423 0 178.118 0 0)
(37.7463 -2.52635 0 174.37 0 0)
(44.4849 -3.87588 0 170.463 0 0)
(50.7838 -5.41567 0 166.549 0 0)
(56.4899 -7.10227 0 162.662 0 0)
(61.4818 -8.87058 0 158.888 0 0)
(65.6839 -10.6661 0 155.257 0 0)
(69.0668 -12.4109 0 151.801 0 0)
(71.6235 -14.0291 0 148.54 0 0)
(73.3429 -15.499 0 145.501 0 0)
(74.5377 -16.735 0 142.613 0 0)
(74.5825 -17.0568 0 139.624 0 0)
(0.259131 -0.142159 0 189.937 0 0)
(2.19616 -0.533292 0 195.56 0 0)
(5.69072 -0.936246 0 189.736 0 0)
(10.5433 -1.49094 0 187.587 0 0)
(16.2842 -2.2109 0 184.887 0 0)
(22.5958 -3.11287 0 181.726 0 0)
(29.17 -4.18598 0 178.177 0 0)
(35.7342 -5.42448 0 174.432 0 0)
(42.0656 -6.79791 0 170.512 0 0)
(47.9867 -8.27762 0 166.565 0 0)
(53.3612 -9.81686 0 162.596 0 0)
(58.101 -11.3731 0 158.715 0 0)
(62.1448 -12.8935 0 154.908 0 0)
(65.4867 -14.3347 0 151.25 0 0)
(68.1255 -15.6314 0 147.713 0 0)
(70.0664 -16.7907 0 144.38 0 0)
(71.5429 -17.7373 0 141.137 0 0)
(72.0772 -17.9427 0 137.812 0 0)
(0.255952 -0.395651 0 174.141 0 0)
(2.13696 -1.30417 0 179.085 0 0)
(5.49995 -2.12454 0 173.762 0 0)
(10.1626 -3.07189 0 171.772 0 0)
(15.6701 -4.09936 0 169.294 0 0)
(21.7175 -5.22765 0 166.408 0 0)
(28.0078 -6.4497 0 163.16 0 0)
(34.2864 -7.76236 0 159.741 0 0)
(40.3432 -9.1372 0 156.14 0 0)
(46.0215 -10.5543 0 152.517 0 0)
(51.1963 -11.9716 0 148.838 0 0)
(55.7992 -13.3628 0 145.236 0 0)
(59.7769 -14.6828 0 141.658 0 0)
(63.1334 -15.9084 0 138.211 0 0)
(65.8668 -16.9884 0 134.832 0 0)
(67.9946 -17.9376 0 131.636 0 0)
(69.6857 -18.695 0 128.485 0 0)
(70.5832 -18.8831 0 125.29 0 0)
(0.257403 -0.544541 0 148.74 0 0)
(2.10915 -1.74462 0 152.691 0 0)
(5.38548 -2.81857 0 148.161 0 0)
(9.92051 -4.00044 0 146.446 0 0)
(15.2713 -5.20278 0 144.327 0 0)
(21.1418 -6.45056 0 141.877 0 0)
(27.2444 -7.73578 0 139.117 0 0)
(33.3369 -9.06024 0 136.215 0 0)
(39.2197 -10.3966 0 133.148 0 0)
(44.749 -11.7348 0 130.06 0 0)
(49.8095 -13.0367 0 126.908 0 0)
(54.342 -14.2891 0 123.818 0 0)
(58.3002 -15.4526 0 120.727 0 0)
(61.6897 -16.5182 0 117.743 0 0)
(64.5096 -17.4424 0 114.799 0 0)
(66.7821 -18.2441 0 112.005 0 0)
(68.6323 -18.8729 0 109.236 0 0)
(69.7929 -19.0827 0 106.449 0 0)
(0.260253 -0.600283 0 119.876 0 0)
(2.10016 -1.88665 0 122.841 0 0)
(5.31938 -3.06287 0 119.198 0 0)
(9.76901 -4.33411 0 117.806 0 0)
(15.0148 -5.59084 0 116.102 0 0)
(20.7678 -6.85916 0 114.14 0 0)
(26.7465 -8.12877 0 111.93 0 0)
(32.7184 -9.405 0 109.607 0 0)
(38.4908 -10.6625 0 107.146 0 0)
(43.9285 -11.8981 0 104.665 0 0)
(48.9239 -13.078 0 102.127 0 0)
(53.4225 -14.1977 0 99.6319 0 0)
(57.3829 -15.2228 0 97.1307 0 0)
(60.81 -16.1531 0 94.7087 0 0)
(63.704 -16.9517 0 92.3139 0 0)
(66.0898 -17.6382 0 90.0337 0 0)
(68.0621 -18.1716 0 87.7722 0 0)
(69.4214 -18.4073 0 85.5003 0 0)
(0.263198 -0.589551 0 91.7641 0 0)
(2.09979 -1.82706 0 93.8764 0 0)
(5.28156 -2.99199 0 91.0891 0 0)
(9.6743 -4.24063 0 90.017 0 0)
(14.8496 -5.45935 0 88.7193 0 0)
(20.5239 -6.67052 0 87.2264 0 0)
(26.4209 -7.86372 0 85.548 0 0)
(32.3139 -9.04388 0 83.7784 0 0)
(38.0162 -10.1903 0 81.9052 0 0)
(43.3977 -11.3017 0 80.0106 0 0)
(48.3565 -12.3511 0 78.0724 0 0)
(52.8407 -13.3369 0 76.1605 0 0)
(56.8124 -14.2316 0 74.2451 0 0)
(60.2748 -15.0376 0 72.3843 0 0)
(63.2297 -15.7269 0 70.5455 0 0)
(65.7042 -16.3145 0 68.788 0 0)
(67.7709 -16.7711 0 67.0477 0 0)
(69.2831 -17.0206 0 65.2973 0 0)
(0.266272 -0.535853 0 66.8444 0 0)
(2.10361 -1.64823 0 68.2827 0 0)
(5.26021 -2.72641 0 66.2537 0 0)
(9.61519 -3.87763 0 65.4718 0 0)
(14.7432 -4.99574 0 64.5348 0 0)
(20.3651 -6.09659 0 63.4543 0 0)
(26.2086 -7.17216 0 62.2417 0 0)
(32.0505 -8.22431 0 60.9577 0 0)
(37.7088 -9.23822 0 59.6006 0 0)
(43.0567 -10.2114 0 58.2226 0 0)
(47.9966 -11.1246 0 56.8155 0 0)
(52.4776 -11.9754 0 55.4227 0 0)
(56.4643 -12.7444 0 54.0307 0 0)
(59.9588 -13.4332 0 52.6738 0 0)
(62.9638 -14.0223 0 51.3355 0 0)
(65.5073 -14.5209 0 50.0515 0 0)
(67.6465 -14.9107 0 48.7836 0 0)
(69.2765 -15.1585 0 47.5043 0 0)
(0.268128 -0.462134 0 46.2278 0 0)
(2.10801 -1.41369 0 47.1652 0 0)
(5.24835 -2.36012 0 45.7664 0 0)
(9.57836 -3.37001 0 45.229 0 0)
(14.6747 -4.34982 0 44.5886 0 0)
(20.262 -5.30893 0 43.8458 0 0)
(26.0709 -6.24233 0 43.0128 0 0)
(31.8804 -7.14829 0 42.1267 0 0)
(37.512 -8.01787 0 41.1924 0 0)
(42.8406 -8.84636 0 40.2405 0 0)
(47.7713 -9.62151 0 39.2718 0 0)
(52.2542 -10.3393 0 38.3105 0 0)
(56.2555 -10.9874 0 37.3522 0 0)
(59.776 -11.5652 0 36.4155 0 0)
(62.8189 -12.0605 0 35.4935 0 0)
(65.4133 -12.477 0 34.6056 0 0)
(67.6045 -12.8048 0 33.732 0 0)
(69.3204 -13.0352 0 32.8471 0 0)
(0.269277 -0.382463 0 30.1176 0 0)
(2.11153 -1.16286 0 30.7012 0 0)
(5.24157 -1.95534 0 29.7922 0 0)
(9.55484 -2.80315 0 29.4455 0 0)
(14.6299 -3.62575 0 29.0339 0 0)
(20.1939 -4.42933 0 28.5539 0 0)
(25.9797 -5.21013 0 28.0154 0 0)
(31.7672 -5.96511 0 27.4405 0 0)
(37.3799 -6.68776 0 26.8353 0 0)
(42.6939 -7.37331 0 26.2177 0 0)
(47.6163 -8.01321 0 25.5905 0 0)
(52.0966 -8.60331 0 24.967 0 0)
(56.1032 -9.13564 0 24.3468 0 0)
(59.6359 -9.6083 0 23.739 0 0)
(62.6985 -10.0137 0 23.1417 0 0)
(65.3187 -10.3523 0 22.5648 0 0)
(67.5369 -10.6193 0 21.9985 0 0)
(69.3058 -10.8169 0 21.4237 0 0)
(0.26959 -0.304108 0 18.1872 0 0)
(2.11328 -0.918382 0 18.531 0 0)
(5.23619 -1.55178 0 17.981 0 0)
(9.53542 -2.23376 0 17.7753 0 0)
(14.5914 -2.89707 0 17.5325 0 0)
(20.1334 -3.54631 0 17.2484 0 0)
(25.8948 -4.17673 0 16.9286 0 0)
(31.6566 -4.78501 0 16.5861 0 0)
(37.2437 -5.3646 0 16.2248 0 0)
(42.5324 -5.91201 0 15.8552 0 0)
(47.4322 -6.41996 0 15.4791 0 0)
(51.8916 -6.88609 0 15.1045 0 0)
(55.8823 -7.30357 0 14.7315 0 0)
(59.4022 -7.67211 0 14.3653 0 0)
(62.4597 -7.9859 0 14.0053 0 0)
(65.077 -8.24551 0 13.6568 0 0)
(67.2984 -8.45011 0 13.3153 0 0)
(69.0947 -8.60048 0 12.9689 0 0)
(0.269239 -0.227907 0 9.86884 0 0)
(2.111 -0.690211 0 10.0521 0 0)
(5.21895 -1.1769 0 9.75532 0 0)
(9.49192 -1.7059 0 9.65308 0 0)
(14.5177 -2.21965 0 9.52883 0 0)
(20.0263 -2.71948 0 9.37983 0 0)
(25.7507 -3.20104 0 9.20937 0 0)
(31.4746 -3.66187 0 9.02539 0 0)
(37.0225 -4.0962 0 8.82991 0 0)
(42.2741 -4.50248 0 8.62918 0 0)
(47.1378 -4.8751 0 8.4238 0 0)
(51.5671 -5.21421 0 8.21895 0 0)
(55.5325 -5.51402 0 8.01407 0 0)
(59.0361 -5.77672 0 7.81309 0 0)
(62.0853 -5.99619 0 7.61509 0 0)
(64.7017 -6.176 0 7.42405 0 0)
(66.9267 -6.31908 0 7.23754 0 0)
(68.7563 -6.42111 0 7.0496 0 0)
(0.268095 -0.154562 0 4.47994 0 0)
(2.08415 -0.497108 0 4.57545 0 0)
(5.15768 -0.851075 0 4.45043 0 0)
(9.39111 -1.22691 0 4.41484 0 0)
(14.3913 -1.58348 0 4.36383 0 0)
(19.8743 -1.92537 0 4.29948 0 0)
(25.5721 -2.24997 0 4.22226 0 0)
(31.2701 -2.55499 0 4.13589 0 0)
(36.7949 -2.83887 0 4.04298 0 0)
(42.0258 -3.10276 0 3.94729 0 0)
(46.8729 -3.34375 0 3.84961 0 0)
(51.2927 -3.56268 0 3.75266 0 0)
(55.2524 -3.75582 0 3.6559 0 0)
(58.762 -3.92522 0 3.56205 0 0)
(61.8176 -4.06476 0 3.46951 0 0)
(64.4529 -4.17976 0 3.38217 0 0)
(66.675 -4.27021 0 3.29705 0 0)
(68.5328 -4.34024 0 3.21296 0 0)
(0.255205 -0.0880443 0 1.41905 0 0)
(2.06821 -0.312963 0 1.48471 0 0)
(5.20616 -0.525182 0 1.44471 0 0)
(9.49805 -0.733238 0 1.43157 0 0)
(14.5516 -0.92306 0 1.41149 0 0)
(20.086 -1.10544 0 1.38825 0 0)
(25.8401 -1.28187 0 1.36164 0 0)
(31.5971 -1.44981 0 1.33235 0 0)
(37.1835 -1.60759 0 1.3014 0 0)
(42.4734 -1.75504 0 1.26984 0 0)
(47.38 -1.89066 0 1.23806 0 0)
(51.8523 -2.01445 0 1.20669 0 0)
(55.8617 -2.1244 0 1.17569 0 0)
(59.411 -2.22116 0 1.14576 0 0)
(62.5 -2.30063 0 1.11654 0 0)
(65.1667 -2.36681 0 1.09009 0 0)
(67.3886 -2.41939 0 1.06492 0 0)
(69.2384 -2.45885 0 1.038 0 0)
(0.245893 -0.0252847 0 0.141651 0 0)
(2.06602 -0.0976686 0 0.153418 0 0)
(5.18501 -0.165295 0 0.150636 0 0)
(9.44602 -0.230434 0 0.149468 0 0)
(14.4809 -0.293239 0 0.147168 0 0)
(20.0025 -0.353489 0 0.144443 0 0)
(25.7499 -0.412235 0 0.141448 0 0)
(31.5045 -0.46867 0 0.138321 0 0)
(37.0979 -0.521957 0 0.135102 0 0)
(42.4056 -0.571914 0 0.131855 0 0)
(47.3425 -0.618231 0 0.128601 0 0)
(51.8555 -0.660883 0 0.125403 0 0)
(55.9183 -0.699294 0 0.122264 0 0)
(59.5261 -0.733319 0 0.119244 0 0)
(62.6853 -0.762226 0 0.116423 0 0)
(65.4287 -0.787456 0 0.11409 0 0)
(67.7407 -0.80566 0 0.112019 0 0)
(69.6681 -0.814948 0 0.111637 0 0)
(0.0244708 0.0357318 0 0.716541 0 0)
(0.267119 0.0990091 0 0.677662 0 0)
(0.785008 0.180737 0 0.670509 0 0)
(1.53801 0.294666 0 0.661295 0 0)
(2.48446 0.423524 0 0.65969 0 0)
(3.60616 0.568165 0 0.656413 0 0)
(4.88115 0.71507 -2.38305e-19 0.654436 -6.46924e-20 1.47698e-37)
(6.30656 0.865832 2.42377e-19 0.650119 6.89835e-20 1.48149e-37)
(7.87572 1.01264 0 0.644107 0 0)
(9.58667 1.15991 2.44928e-19 0.636537 6.84064e-20 1.45933e-37)
(11.4342 1.30379 0 0.627963 0 0)
(13.4124 1.44651 0 0.618883 0 0)
(15.5147 1.58347 0 0.610942 0 0)
(17.7347 1.71502 -2.77594e-19 0.604489 -5.15862e-20 1.34598e-37)
(20.0662 1.83798 0 0.598292 0 0)
(22.5098 1.95146 0 0.593077 0 0)
(25.0656 2.05127 3.40648e-19 0.588796 3.89955e-20 1.21965e-37)
(27.7323 2.13904 0 0.584361 0 0)
(30.5049 2.21741 0 0.579714 0 0)
(33.3776 2.28858 0 0.575286 0 0)
(36.3345 2.35163 -4.56174e-19 0.571963 -1.95995e-20 1.01682e-37)
(39.3663 2.40732 0 0.568212 0 0)
(42.459 2.45377 -5.15738e-19 0.565962 -1.03443e-20 9.24361e-38)
(45.6037 2.49081 0 0.567171 0 0)
(48.784 2.52455 0 0.567941 0 0)
(51.9859 2.54762 -6.03663e-19 0.570117 1.17057e-21 7.97001e-38)
(55.2026 2.5498 0 0.571955 0 0)
(58.4382 2.53238 6.57221e-19 0.570441 -6.90052e-21 7.21053e-38)
(61.6867 2.50138 0 0.562601 0 0)
(64.9537 2.45865 -7.01929e-19 0.552228 1.04587e-20 6.53424e-38)
(68.2379 2.40677 0 0.538713 0 0)
(71.5267 2.34819 0 0.522965 0 0)
(74.8124 2.28279 0 0.509024 0 0)
(78.0963 2.20684 0 0.497737 0 0)
(81.3723 2.11979 0 0.486261 0 0)
(84.637 2.02463 7.7909e-19 0.475378 -1.40099e-20 4.59521e-38)
(87.889 1.92117 0 0.463708 0 0)
(91.1294 1.80922 -1.56154e-18 0.447608 2.72127e-20 1.61225e-37)
(94.3566 1.69025 0 0.432007 0 0)
(97.5659 1.56304 1.55181e-18 0.417426 -2.62376e-20 1.39831e-37)
(100.75 1.43015 0 0.402317 0 0)
(103.91 1.28809 0 0.390655 0 0)
(107.034 1.13779 -1.51403e-18 0.378104 2.16079e-20 1.11161e-37)
(110.106 0.98516 0 0.365304 0 0)
(113.111 0.830494 -1.47557e-18 0.354507 1.83034e-20 9.42418e-38)
(116.034 0.672605 1.45312e-18 0.345656 -1.65759e-20 8.65564e-38)
(118.86 0.508696 0 0.339444 0 0)
(121.58 0.338651 1.40238e-18 0.334541 -1.2528e-20 7.33508e-38)
(124.177 0.163458 1.37422e-18 0.33072 -1.06532e-20 6.78902e-38)
(126.654 -0.0141941 0 0.327539 0 0)
(128.994 -0.193335 0 0.325382 0 0)
(131.179 -0.376691 0 0.322639 0 0)
(133.188 -0.565037 0 0.321383 0 0)
(135 -0.755677 0 0.323412 0 0)
(136.589 -0.94531 -1.17405e-18 0.327622 -4.38944e-21 5.01145e-38)
(137.926 -1.13639 0 0.331732 0 0)
(138.999 -1.33218 1.07948e-18 0.335443 1.14691e-20 4.74675e-38)
(139.812 -1.53461 0 0.340706 0 0)
(140.359 -1.74336 0 0.347513 0 0)
(140.626 -1.94941 -9.11727e-19 0.356783 -2.24355e-20 4.74787e-38)
(140.607 -2.15369 0 0.36871 0 0)
(140.287 -2.35881 7.80528e-19 0.380727 3.12192e-20 4.96482e-38)
(139.672 -2.56281 0 0.391028 0 0)
(138.757 -2.76681 0 0.40382 0 0)
(137.552 -2.96998 0 0.418059 0 0)
(136.07 -3.16605 -4.82748e-19 0.432604 -4.75273e-20 6.03039e-38)
(134.315 -3.35501 0 0.447175 0 0)
(132.298 -3.53753 0 0.460241 0 0)
(130.031 -3.71302 -2.27133e-19 0.474152 -6.11897e-20 7.29851e-38)
(127.532 -3.88678 0 0.490045 0 0)
(124.838 -4.05238 -5.13206e-20 0.505371 -6.98928e-20 8.2964e-38)
(121.96 -4.20476 0 0.520305 0 0)
(118.917 -4.34578 0 0.536503 0 0)
(115.742 -4.47726 0 0.553775 0 0)
(112.459 -4.59902 -3.04757e-19 0.571758 8.31215e-20 1.04499e-37)
(109.084 -4.70872 0 0.589748 0 0)
(105.635 -4.80298 0 0.607519 0 0)
(102.123 -4.88199 -5.64151e-19 0.625457 9.02646e-20 1.20114e-37)
(98.5598 -4.95013 -6.45977e-19 0.644109 9.18093e-20 1.25221e-37)
(94.973 -5.00712 0 0.662807 0 0)
(91.3927 -5.05214 -7.99059e-19 0.682438 9.45847e-20 1.34638e-37)
(87.8396 -5.08584 0 0.703546 0 0)
(84.3343 -5.10769 -1.87775e-18 0.725073 1.92486e-19 5.74208e-37)
(80.8911 -5.11659 0 0.747699 0 0)
(77.528 -5.111 -2.12266e-18 0.770255 1.9362e-19 6.07378e-37)
(74.2632 -5.08913 0 0.793186 0 0)
(71.1113 -5.05431 2.32528e-18 0.819117 -1.93768e-19 6.36391e-37)
(68.0898 -5.00626 0 0.844114 0 0)
(65.213 -4.93962 0 0.866416 0 0)
(62.4806 -4.85419 0 0.889101 0 0)
(59.8968 -4.75211 -2.58611e-18 0.914102 1.86183e-19 6.79762e-37)
(57.4676 -4.63575 0 0.938687 0 0)
(55.2021 -4.50337 2.64699e-18 0.96294 -1.7991e-19 6.9449e-37)
(53.1032 -4.35477 0 0.98669 0 0)
(51.1598 -4.18399 -2.65897e-18 1.01026 1.7357e-19 7.03357e-37)
(49.3667 -3.99648 -2.64982e-18 1.03156 1.70344e-19 7.06879e-37)
(47.7118 -3.79628 -2.6308e-18 1.05279 1.66167e-19 7.0955e-37)
(46.191 -3.58716 0 1.07517 0 0)
(44.7775 -3.36801 0 1.09824 0 0)
(43.4819 -3.13961 0 1.11779 0 0)
(42.2844 -2.90218 0 1.13769 0 0)
(41.1818 -2.66315 0 1.15754 0 0)
(40.155 -2.4235 0 1.17661 0 0)
(39.2007 -2.18126 0 1.19171 0 0)
(38.2728 -1.9377 0 1.20773 0 0)
(37.3691 -1.70118 2.02531e-18 1.2231 -1.31499e-19 7.0742e-37)
(36.4564 -1.47286 1.91143e-18 1.24024 -1.24241e-19 7.06817e-37)
(35.5596 -1.25395 0 1.25192 0 0)
(34.6444 -1.04371 0 1.265 0 0)
(33.7195 -0.857174 0 1.27908 0 0)
(32.7358 -0.681255 1.35473e-18 1.29153 -1.04649e-19 6.91033e-37)
(31.7921 -0.530926 0 1.2987 0 0)
(30.7811 -0.388391 0 1.3086 0 0)
(29.8221 -0.285672 0 1.31879 0 0)
(28.894 -0.202413 0 1.33197 0 0)
(28.0631 -0.151878 -4.39206e-19 1.34044 7.57135e-20 6.66106e-37)
(27.3629 -0.125748 0 1.3498 0 0)
(26.8235 -0.13487 0 1.36329 0 0)
(26.5336 -0.177582 -2.22405e-19 1.37119 -6.55527e-20 6.42633e-37)
(26.4886 -0.246111 4.49408e-19 1.38407 6.12356e-20 6.30014e-37)
(26.7403 -0.355986 0 1.40108 0 0)
(27.347 -0.512499 9.12026e-19 1.41881 6.01131e-20 6.05174e-37)
(28.3672 -0.710431 0 1.43814 0 0)
(29.8686 -0.962072 -1.35314e-18 1.45516 -6.43955e-20 5.7548e-37)
(31.8671 -1.24835 0 1.47791 0 0)
(34.4342 -1.58348 0 1.50494 0 0)
(37.4699 -1.96059 0 1.53765 0 0)
(41.0801 -2.38843 0 1.57198 0 0)
(45.1243 -2.84255 0 1.61015 0 0)
(49.6033 -3.34416 4.89642e-18 1.65241 2.04609e-19 1.97176e-36)
(54.4629 -3.88987 5.15165e-18 1.69864 2.30369e-19 1.9372e-36)
(59.7203 -4.47168 0 1.74714 0 0)
(65.1819 -5.0739 0 1.80281 0 0)
(70.7993 -5.70069 0 1.85807 0 0)
(76.4247 -6.31444 -5.69325e-18 1.91884 -3.52192e-19 1.91722e-36)
(81.8351 -6.92933 0 1.98992 0 0)
(86.9918 -7.55103 0 2.06225 0 0)
(91.8361 -8.16574 0 2.13861 0 0)
(96.2856 -8.75652 -5.33441e-18 2.21707 -5.33407e-19 2.07207e-36)
(100.305 -9.32241 5.10095e-18 2.30202 5.83183e-19 2.13444e-36)
(103.717 -9.84581 0 2.39148 0 0)
(106.625 -10.3558 0 2.48413 0 0)
(109 -10.8104 4.08043e-18 2.57861 7.35379e-19 2.36617e-36)
(110.841 -11.2293 3.65078e-18 2.67197 7.8433e-19 2.4514e-36)
(111.998 -11.5736 0 2.77224 0 0)
(112.57 -11.8882 0 2.87218 0 0)
(112.45 -12.1308 -2.05289e-18 2.97626 -9.45841e-19 2.71921e-36)
(111.771 -12.3555 1.42329e-18 3.07129 9.89468e-19 2.79793e-36)
(110.579 -12.5099 0 3.16814 0 0)
(108.674 -12.6102 0 3.26883 0 0)
(106.176 -12.6441 -5.217e-19 3.35979 1.1173e-18 3.06853e-36)
(103.046 -12.6239 0 3.45033 0 0)
(99.5691 -12.5658 0 3.53392 0 0)
(95.5857 -12.4169 -2.54876e-18 3.60644 1.20627e-18 3.30156e-36)
(91.2909 -12.1957 0 3.67847 0 0)
(86.6694 -11.8635 -3.83217e-18 3.74002 1.25736e-18 3.44481e-36)
(81.7862 -11.4464 0 3.79599 0 0)
(76.6825 -10.9116 0 3.83539 0 0)
(71.7403 -10.278 0 3.85948 0 0)
(66.8593 -9.47996 5.87187e-18 3.87818 -1.27822e-18 3.68174e-36)
(62.1999 -8.56225 0 3.88166 0 0)
(57.9785 -7.49231 0 3.86972 0 0)
(54.5209 -6.30304 0 3.84199 0 0)
(51.6673 -4.92558 0 3.80036 0 0)
(49.5819 -3.46864 0 3.7501 0 0)
(48.8738 -1.91454 0 3.67812 0 0)
(49.6971 -0.28813 6.01757e-18 3.58877 -1.10557e-18 3.73074e-36)
(51.7415 1.42473 5.60775e-18 3.49088 -1.05154e-18 3.71276e-36)
(55.4523 3.11518 0 3.37888 0 0)
(60.6957 4.74473 0 3.26072 0 0)
(67.4856 6.32569 0 3.13117 0 0)
(75.4113 7.79879 -3.05616e-18 3.0012 7.95698e-19 3.38611e-36)
(84.5326 9.10151 0 2.87304 0 0)
(94.0808 10.2913 2.95628e-18 2.73811 -1.35154e-18 1.23739e-35)
(103.947 11.2494 -1.31433e-18 2.6077 1.21876e-18 1.16719e-35)
(113.576 12.0391 3.17274e-19 2.47578 1.1061e-18 1.1028e-35)
(123.224 12.6901 -2.02076e-18 2.35075 -1.01549e-18 1.03466e-35)
(131.344 13.2318 3.68035e-18 2.23147 9.23146e-19 9.77921e-36)
(139.237 13.7108 -5.29341e-18 2.1239 -9.0497e-19 9.01301e-36)
(143 14.4038 0 2.06791 0 0)
(0.0183029 0.174075 0 6.0896 0 0)
(0.202645 0.387517 0 6.02778 0 0)
(0.629227 0.609174 1.318e-19 5.85532 1.75607e-19 6.75761e-37)
(1.32647 0.853343 0 5.73474 0 0)
(2.2682 1.13222 -1.92813e-19 5.67497 -3.52589e-19 9.18276e-37)
(3.44385 1.43661 -1.84762e-19 5.64774 -4.40125e-19 9.7122e-37)
(4.83222 1.76092 -8.12784e-20 5.63222 -2.50661e-19 2.48624e-37)
(6.41905 2.1011 -6.96979e-20 5.61411 -2.69535e-19 2.60855e-37)
(8.1965 2.44985 0 5.58578 0 0)
(10.1627 2.80268 -4.31153e-20 5.54325 -2.68435e-19 2.59014e-37)
(12.3188 3.15081 0 5.49145 0 0)
(14.6631 3.49189 0 5.43193 0 0)
(17.1874 3.82077 9.66583e-20 5.36377 4.23006e-19 9.49681e-37)
(19.8925 4.13705 7.0412e-20 5.29201 1.86654e-19 2.33782e-37)
(22.7677 4.431 -1.87035e-19 5.21697 -3.26015e-19 8.92313e-37)
(25.8072 4.70251 -2.52962e-19 5.13898 -2.81201e-19 8.64629e-37)
(28.9996 4.95306 -1.71638e-19 5.05485 -1.18534e-19 2.12434e-37)
(32.3386 5.1842 0 4.96433 0 0)
(35.8122 5.39436 0 4.86884 0 0)
(39.412 5.58811 0 4.76635 0 0)
(43.1148 5.76459 -3.86391e-19 4.66164 -3.69855e-20 1.80119e-37)
(46.9118 5.92092 0 4.55727 0 0)
(50.7805 6.0488 1.60736e-18 4.4509 -1.549e-20 1.54948e-36)
(54.7081 6.15193 0 4.3481 0 0)
(58.6778 6.23196 0 4.2431 0 0)
(62.672 6.2891 7.73956e-19 4.13903 -5.74786e-20 1.56256e-37)
(66.6632 6.32008 0 4.03319 0 0)
(70.6324 6.33412 -9.31902e-19 3.93272 8.16181e-20 1.45757e-37)
(74.5462 6.32487 -1.99132e-18 3.83291 1.81232e-19 5.56189e-37)
(78.3945 6.28716 1.07588e-18 3.73038 -9.86032e-20 1.36404e-37)
(82.1732 6.21803 0 3.62285 0 0)
(85.8818 6.12111 0 3.51783 0 0)
(89.5073 5.999 0 3.41468 0 0)
(93.0535 5.85271 -2.57411e-18 3.30655 2.2269e-19 4.70615e-37)
(96.5123 5.67651 -2.65245e-18 3.19923 2.20277e-19 4.54497e-37)
(99.8971 5.47074 -1.37246e-18 3.09849 1.07605e-19 1.10603e-37)
(103.216 5.23393 0 3.00677 0 0)
(106.462 4.96131 2.83595e-18 2.91878 -2.03125e-19 4.12274e-37)
(109.643 4.65079 0 2.83363 0 0)
(112.754 4.3117 -2.87294e-18 2.75211 1.88554e-19 3.81082e-37)
(115.801 3.94508 0 2.67175 0 0)
(118.782 3.5587 0 2.59954 0 0)
(121.701 3.15633 2.82643e-18 2.52864 -1.54182e-19 3.31284e-37)
(124.546 2.73514 0 2.46336 0 0)
(127.296 2.2884 8.15721e-18 2.40543 -3.93666e-19 2.68122e-36)
(129.95 1.81178 -2.68799e-18 2.36012 1.1926e-19 2.83355e-37)
(132.513 1.30954 0 2.3329 0 0)
(134.998 0.781539 -2.54844e-18 2.31695 9.09854e-20 2.51444e-37)
(137.393 0.220485 -2.46789e-18 2.3105 7.673e-20 2.35889e-37)
(139.693 -0.36694 0 2.31271 0 0)
(141.879 -0.965974 0 2.32605 0 0)
(143.93 -1.56253 0 2.34101 0 0)
(145.831 -2.14747 0 2.35443 0 0)
(147.546 -2.72475 0 2.37802 0 0)
(149.063 -3.30287 1.88343e-18 2.41089 1.45016e-20 1.71776e-37)
(150.358 -3.88928 3.45144e-18 2.45419 7.11063e-20 6.54656e-37)
(151.413 -4.4792 -1.64464e-18 2.50527 -5.59029e-20 1.59806e-37)
(152.237 -5.08735 0 2.56135 0 0)
(152.805 -5.69733 2.68794e-18 2.62459 1.90285e-19 6.0034e-37)
(153.087 -6.28742 -1.17041e-18 2.69288 -1.13255e-19 1.46591e-37)
(153.111 -6.87353 0 2.76963 0 0)
(152.83 -7.45461 -9.78648e-19 2.85957 -1.48526e-19 1.49249e-37)
(152.254 -8.01393 0 2.95298 0 0)
(151.378 -8.56416 0 3.0542 0 0)
(150.2 -9.09694 -1.04949e-18 3.16152 -3.96363e-19 6.24655e-37)
(148.708 -9.60099 4.2357e-19 3.27367 2.14927e-19 1.6352e-37)
(146.936 -10.0957 -4.90724e-19 3.39328 -4.61947e-19 6.67512e-37)
(144.878 -10.5688 2.13782e-19 3.51801 4.89029e-19 6.91311e-37)
(142.556 -11.0122 1.06997e-20 3.64237 2.54431e-19 1.82487e-37)