/*--------------------------------*- C++ -*----------------------------------*\
| =========                 |                                                 |
| \\      /  F ield         | OpenFOAM: The Open Source CFD Toolbox           |
|  \\    /   O peration     | Version:  dev                                   |
|   \\  /    A nd           | Web:      http://www.openfoam.org               |
|    \\/     M anipulation  |                                                 |
\*---------------------------------------------------------------------------*/
FoamFile
{
    version     2.0;
    format      ascii;
    class       volScalarField;
    object      k_0;
    location    "9.125";
}
// * * * * * * * * * * * * * * * * * * * * * * * * * * * * * * * * * * * * * //

dimensions      [0 2 -2 0 0 0 0];

internalField   nonuniform List<scalar> 
12225
(
8.43995
11.1134
7.90962
9.22812
6.79053
11.2496
8.70559
15.3104
11.7791
21.4827
16.1277
30.0419
23.5064
40.1507
40.7167
50.3495
53.825
69.13
1.18047
5.43269
4.82866
5.87858
4.55703
5.57119
4.56148
5.68259
4.94972
5.9681
5.4702
6.21216
6.12869
6.21088
7.81659
7.37982
6.84886
9.793
0.101526
1.46944
1.80545
2.99107
2.91576
3.22754
3.18266
3.17052
3.26347
2.96453
3.08325
2.65513
2.77391
2.20838
2.4257
2.0147
1.88197
2.03621
0.0135207
0.293422
0.492151
0.844117
1.23454
1.27035
1.56336
1.46807
1.69474
1.48787
1.5785
1.32228
1.35152
1.09449
1.16025
1.05837
1.14193
1.09886
0.005661
0.111798
0.175572
0.310475
0.497275
0.562223
0.688409
0.69176
0.753812
0.700444
0.74656
0.649029
0.691165
0.583548
0.643156
0.57588
0.682674
0.79568
0.00875587
0.0640637
0.0958303
0.13886
0.217853
0.24783
0.314918
0.320126
0.365219
0.353085
0.381973
0.353672
0.387046
0.352504
0.37937
0.349143
0.478257
0.725309
0.0297261
0.0529265
0.0813868
0.102754
0.138336
0.156304
0.191079
0.199988
0.230618
0.233509
0.253247
0.248547
0.271609
0.263991
0.283636
0.276281
0.308466
0.390311
0.0528144
0.082223
0.0897983
0.105791
0.128212
0.1449
0.167317
0.178354
0.201591
0.207737
0.226225
0.227399
0.241431
0.243674
0.255404
0.259526
0.270152
0.30767
0.0805058
0.140986
0.131368
0.143371
0.147545
0.162266
0.173928
0.188852
0.203925
0.211242
0.227694
0.230072
0.23872
0.244108
0.249578
0.259869
0.267832
0.283852
0.149746
0.237285
0.222651
0.235702
0.224126
0.231428
0.229203
0.238766
0.243592
0.250697
0.258783
0.260559
0.266338
0.270538
0.277058
0.280927
0.281893
0.289313
0.31612
0.412864
0.389984
0.401694
0.379249
0.379746
0.364867
0.363342
0.354493
0.35276
0.345343
0.344484
0.338929
0.339783
0.338763
0.339934
0.340551
0.341662
0.665797
0.733977
0.682434
0.668177
0.629193
0.612719
0.58308
0.567768
0.545518
0.528034
0.507766
0.49088
0.475512
0.463703
0.456122
0.450548
0.4491
0.443871
1.14335
1.19511
1.09879
1.05112
0.952497
0.90463
0.834194
0.796727
0.748567
0.719382
0.681367
0.659231
0.633724
0.620784
0.608063
0.601441
0.590198
0.580982
1.85781
1.84456
1.68593
1.58302
1.4265
1.33545
1.22312
1.14064
1.05493
0.990176
0.931652
0.891965
0.849686
0.821272
0.78382
0.758795
0.721299
0.698017
2.87129
2.81551
2.5582
2.32722
2.10162
1.88948
1.68714
1.51814
1.36779
1.24809
1.14097
1.05943
0.981334
0.924532
0.86338
0.823662
0.772499
0.744466
4.01247
3.76971
3.26552
2.78858
2.40065
2.09611
1.8446
1.64222
1.46903
1.33102
1.20867
1.11425
1.0248
0.959736
0.891273
0.846166
0.789928
0.760309
4.35367
3.98988
3.41017
2.88144
2.46265
2.13941
1.87753
1.6682
1.48989
1.34776
1.22172
1.12407
1.03175
0.964556
0.894542
0.848123
0.790807
0.761016
4.24063
3.87688
3.32514
2.81242
2.40549
2.09219
1.83885
1.63589
1.46277
1.32322
1.19953
1.1033
1.01245
0.945153
0.875464
0.828772
0.771993
0.742046
3.36379
3.17986
2.86152
2.4741
2.14846
1.89042
1.6759
1.50015
1.34748
1.22409
1.11329
1.02625
0.942473
0.880133
0.814186
0.769476
0.714468
0.686492
2.18713
2.09454
1.97628
1.79481
1.61688
1.46549
1.32929
1.21191
1.10252
1.013
0.930106
0.863843
0.79721
0.746499
0.690711
0.651999
0.60253
0.578444
1.26954
1.22155
1.16247
1.05983
0.949104
0.877323
0.820058
0.771653
0.719803
0.676699
0.6305
0.59148
0.550839
0.518937
0.482876
0.456546
0.422238
0.40538
0.709126
0.70863
0.692568
0.662564
0.619699
0.590778
0.561772
0.522912
0.481288
0.442409
0.412159
0.392357
0.377387
0.367385
0.357472
0.350993
0.34171
0.336933
0.355177
0.385178
0.395043
0.390997
0.375509
0.35144
0.336674
0.334997
0.336782
0.338936
0.338732
0.337674
0.336028
0.33474
0.332505
0.331009
0.327402
0.324936
0.178387
0.195064
0.194829
0.200706
0.215978
0.241686
0.269398
0.293685
0.311476
0.32288
0.329128
0.332528
0.334357
0.335409
0.335609
0.335642
0.334968
0.334458
0.064751
0.076708
0.103669
0.149479
0.193396
0.233257
0.271973
0.306065
0.334777
0.357328
0.373393
0.38426
0.391628
0.397566
0.400421
0.404516
0.406768
0.411942
0.01729
0.0477099
0.101887
0.178798
0.266787
0.343939
0.415463
0.471274
0.518232
0.554355
0.580282
0.597516
0.60888
0.619271
0.624405
0.634846
0.641814
0.65703
0.0104985
0.0903836
0.284599
0.509244
0.707966
0.847549
0.962546
1.04266
1.10567
1.14744
1.1705
1.18025
1.18326
1.18701
1.18849
1.19382
1.19708
1.20032
0.0764148
0.589703
1.30962
1.80428
2.1893
2.3596
2.43515
2.45122
2.44594
2.42038
2.36141
2.29411
2.22638
2.16477
2.11265
2.05845
1.9837
1.91637
0.967988
3.58013
4.74657
4.79682
4.59928
4.34369
4.09239
3.86571
3.66209
3.46419
3.32449
3.20008
3.06157
2.91522
2.79298
2.65808
2.54956
2.4311
6.99135
11.129
10.8267
9.2031
8.11126
7.78107
7.72899
7.85165
8.00745
8.19911
8.37057
8.48055
8.54478
8.56418
8.53783
8.44596
8.27834
8.00294
0.124134
0.24051
0.278855
0.311216
0.338644
0.350802
0.362189
0.371164
0.383059
0.400962
0.428829
0.463375
0.506173
0.55531
0.612695
0.675212
0.741441
0.811187
0.882547
0.954848
1.02677
1.10544
1.18801
1.26848
1.35437
1.45765
1.56554
1.68346
1.81494
1.94601
2.09263
2.25483
2.42355
2.62946
2.83566
3.05634
3.32313
3.61378
3.89499
4.20122
4.51865
4.74492
4.84113
4.88563
4.91157
4.95679
5.00946
5.02773
5.01958
5.06312
5.23451
5.38422
5.44911
5.42184
5.27217
5.24647
5.27067
5.39846
6.02193
6.58532
6.72709
6.48224
6.04765
5.60172
5.38506
5.36245
5.57229
5.99292
6.21028
6.36526
6.57115
6.78026
7.01185
7.21695
7.36658
7.43522
7.45343
7.40583
7.2799
7.06409
6.77551
6.44983
6.11048
5.75078
5.32833
4.88105
4.45154
4.04691
3.66357
3.30936
2.97527
2.67928
2.46861
2.22651
2.07144
1.91153
1.79508
1.67952
1.60868
1.55745
1.51163
1.48475
1.47044
1.46425
1.4619
1.46621
1.46941
1.4733
1.48052
1.49187
1.50772
1.51993
1.52469
1.52096
1.52416
1.56194
1.62376
1.68553
1.78801
1.88848
1.95583
2.08934
2.34388
2.55149
2.72244
2.98963
3.39835
3.91303
4.53108
5.23025
6.27525
7.36985
8.21371
8.43307
8.83876
8.46789
9.27317
9.07378
9.17864
8.78327
8.96015
8.37387
8.35996
7.87032
7.79557
7.65277
7.43805
7.43335
7.09155
6.99912
6.66864
6.53824
6.36539
6.33938
6.51497
6.90112
7.37599
7.61593
7.64218
7.3717
7.07388
6.57674
6.09203
5.43651
4.95311
4.72667
4.65249
4.96075
5.2112
5.22518
5.43232
4.45824
3.38873
3.60134
4.35924
4.38021
4.9146
6.77198
8.05692
9.66553
0.514356
0.268339
0.255525
0.246519
0.229416
0.206817
0.192223
0.186832
0.185931
0.187454
0.192345
0.200067
0.210286
0.221977
0.235419
0.247207
0.258791
0.270192
0.281699
0.289421
0.295618
0.309831
0.317809
0.319703
0.321951
0.330386
0.33643
0.342721
0.352477
0.357412
0.364494
0.376148
0.387
0.402229
0.415657
0.431661
0.46461
0.513972
0.564494
0.671011
0.80832
0.970321
1.30103
1.61164
1.67512
1.66039
1.65803
1.53895
1.27813
1.18183
1.18345
1.27819
1.33834
1.27094
0.956367
0.777804
0.730945
0.732056
0.914369
1.53544
2.41935
2.76009
2.74201
2.10839
2.00064
2.1521
2.63921
3.76072
4.2205
4.2967
4.17802
3.79916
3.4891
3.16517
2.86792
2.60981
2.39994
2.19685
2.00493
1.83068
1.69142
1.57153
1.46976
1.35458
1.2511
1.17098
1.11062
1.04811
1.00226
0.951053
0.906343
0.883656
0.860974
0.845316
0.843286
0.826837
0.813201
0.806876
0.811857
0.814756
0.812354
0.817209
0.827536
0.84015
0.850912
0.863662
0.870353
0.87674
0.884005
0.890733
0.900978
0.906876
0.90881
0.90273
0.88797
0.880408
0.888882
0.906146
0.937085
0.969541
0.977207
0.980161
1.04429
1.1379
1.19842
1.32525
1.63668
2.09998
2.64853
3.12587
3.60875
3.82501
3.70012
3.4396
3.49455
3.39784
3.77888
3.56351
3.53183
3.63672
3.60861
3.57983
3.5885
3.66709
3.75342
3.85686
3.83705
3.86222
3.74895
3.71256
3.67475
3.69273
3.70982
3.7225
3.82602
4.14621
4.79753
5.37315
5.71612
5.74513
5.7346
5.6877
5.43636
5.00433
4.51688
4.20099
4.00158
4.00654
4.02479
3.8443
3.8306
3.63162
2.8301
2.88496
3.22012
3.25804
3.25897
3.61526
4.10558
4.93935
1.40772
0.374082
0.243106
0.213704
0.193743
0.173115
0.15328
0.143836
0.141985
0.142377
0.144624
0.148717
0.154511
0.161822
0.170798
0.180615
0.192027
0.204941
0.218896
0.2317
0.244865
0.26099
0.269606
0.272509
0.273298
0.274167
0.272927
0.270798
0.27072
0.271896
0.274682
0.276829
0.277198
0.273772
0.271667
0.27256
0.275177
0.274685
0.269325
0.266639
0.267539
0.273126
0.293
0.357186
0.430055
0.540828
0.645039
0.665596
0.650394
0.627418
0.567461
0.528593
0.513414
0.467528
0.390533
0.362268
0.361994
0.405648
0.496102
0.548299
0.683082
1.09149
1.36854
1.61168
2.33746
2.61332
2.62623
2.62817
2.38415
2.14422
1.8711
1.58538
1.35585
1.15802
1.0103
0.900803
0.813599
0.730916
0.664078
0.612615
0.584458
0.559135
0.536455
0.511754
0.49744
0.491728
0.489839
0.492869
0.499828
0.499641
0.497868
0.496917
0.488414
0.480731
0.489665
0.503122
0.507428
0.509607
0.518953
0.525226
0.528159
0.540005
0.552384
0.566483
0.583249
0.599839
0.608348
0.619089
0.625855
0.636387
0.658757
0.68214
0.688182
0.683809
0.66406
0.655688
0.650789
0.645268
0.643265
0.639438
0.636813
0.637791
0.64228
0.668111
0.729483
0.86961
1.13998
1.41961
1.71261
1.94408
2.06898
1.98133
1.72633
1.63673
1.60479
1.73099
1.87774
1.81552
1.79993
1.89201
1.92768
1.94797
1.99828
2.08815
2.20466
2.30172
2.39005
2.41342
2.37876
2.33358
2.30645
2.33293
2.35921
2.30796
2.20648
2.26032
2.57113
2.93749
3.27889
3.40603
3.47476
3.69178
4.09809
4.18499
4.0252
3.75323
3.31603
3.17763
3.09839
3.05954
3.18507
3.16016
2.37707
2.18704
2.53048
2.71002
2.79354
2.71685
2.62033
2.85288
2.8324
0.726353
0.263329
0.200602
0.188892
0.180714
0.161695
0.142624
0.139519
0.140993
0.145529
0.151734
0.160634
0.172105
0.189266
0.208971
0.232424
0.258616
0.2857
0.313174
0.337177
0.344532
0.343847
0.334664
0.315838
0.294549
0.276489
0.268839
0.265954
0.265926
0.267877
0.268697
0.267529
0.27105
0.275639
0.282114
0.282945
0.277261
0.271053
0.266961
0.269131
0.267332
0.247131
0.237867
0.234655
0.2398
0.276376
0.344737
0.368305
0.369876
0.358534
0.335421
0.307553
0.296839
0.304662
0.33031
0.353558
0.431765
0.513492
0.554822
0.636999
0.740357
1.18823
2.26088
2.50903
2.23233
1.80719
1.44631
1.25808
1.02775
0.849951
0.703433
0.592314
0.514474
0.469084
0.439048
0.415123
0.39239
0.375372
0.368207
0.365714
0.364196
0.362761
0.359534
0.358437
0.358593
0.361565
0.367262
0.38047
0.393444
0.405105
0.408869
0.405014
0.38145
0.376157
0.382286
0.394733
0.3991
0.407965
0.406145
0.396203
0.408159
0.422755
0.436038
0.448372
0.466258
0.476712
0.48936
0.497884
0.508713
0.53073
0.580014
0.614643
0.619646
0.606596
0.600539
0.607096
0.604131
0.596592
0.589619
0.578023
0.580185
0.590932
0.605419
0.636869
0.735488
0.976055
1.18201
1.34373
1.47454
1.52526
1.43383
1.23739
1.24769
1.25786
1.42046
1.45414
1.45154
1.52648
1.51548
1.56511
1.5464
1.60346
1.63123
1.71423
1.74721
1.81077
1.83254
1.83683
1.84902
1.81682
1.81452
1.80551
1.80848
1.66941
1.59661
1.7117
1.93552
2.14935
2.26543
2.35731
2.49267
2.83959
3.21217
3.36224
3.28643
2.98505
2.78385
2.73233
2.78921
3.08458
2.94608
2.30534
2.13943
2.10469
2.40647
2.52251
2.47804
2.35273
2.28117
4.44911
1.30951
0.363262
0.201386
0.190441
0.195811
0.179663
0.149223
0.146293
0.154667
0.168762
0.185468
0.209409
0.24124
0.289745
0.318584
0.339107
0.363461
0.383006
0.388202
0.388164
0.381999
0.368532
0.349194
0.325512
0.294687
0.266594
0.243317
0.224584
0.220008
0.219967
0.224856
0.235565
0.243669
0.244536
0.242269
0.245521
0.25691
0.263829
0.266067
0.271029
0.271822
0.263433
0.250162
0.232831
0.215244
0.20855
0.21544
0.248852
0.272685
0.275086
0.26636
0.263156
0.276663
0.316426
0.375175
0.483216
0.658702
0.73356
0.745722
0.720081
0.883602
1.7389
2.22522
2.12481
1.4018
1.00395
0.817628
0.650436
0.53235
0.449213
0.389576
0.350393
0.331142
0.32247
0.3183
0.315738
0.313652
0.312136
0.31176
0.313391
0.318542
0.323623
0.324483
0.324753
0.32507
0.325405
0.325666
0.329696
0.349221
0.368602
0.379518
0.380159
0.364049
0.342707
0.331237
0.341113
0.349947
0.366228
0.362388
0.337114
0.333121
0.3423
0.357288
0.363248
0.370959
0.37549
0.382607
0.388473
0.3934
0.400806
0.418122
0.455157
0.485277
0.491258
0.495509
0.517774
0.560132
0.568295
0.584471
0.588034
0.587989
0.600507
0.612691
0.627437
0.690626
0.879782
1.07678
1.13804
1.23238
1.23815
1.25179
1.12306
1.12689
1.17189
1.3365
1.37789
1.34324
1.43145
1.41767
1.48503
1.45213
1.48918
1.45566
1.50309
1.51741
1.57055
1.58196
1.57506
1.5953
1.54015
1.54906
1.54935
1.54038
1.4746
1.36345
1.32719
1.49273
1.59668
1.68297
1.79762
1.87887
2.07228
2.38515
2.74847
2.78393
2.6193
2.36572
2.3742
2.5412
3.01704
2.86269
2.33021
2.2375
1.95842
1.98949
1.9522
2.06855
2.18457
2.11364
6.1491
1.80409
0.471515
0.208939
0.193679
0.211354
0.1839
0.159794
0.167703
0.203164
0.262163
0.319912
0.326423
0.319857
0.348673
0.367841
0.372019
0.383098
0.389932
0.389583
0.384463
0.374664
0.364439
0.353126
0.338346
0.313683
0.274723
0.236897
0.216735
0.210214
0.209014
0.209246
0.211216
0.216816
0.223454
0.231838
0.242236
0.249242
0.251339
0.25177
0.248286
0.24668
0.247569
0.244543
0.236767
0.21765
0.200748
0.193604
0.204161
0.24333
0.255656
0.25609
0.271775
0.327522
0.434858
0.589048
0.830556
0.982729
1.01843
0.970705
0.987231
1.47029
1.86993
1.89866
1.27242
0.782802
0.58998
0.458961
0.384227
0.335726
0.310696
0.296256
0.288941
0.285902
0.285282
0.285294
0.286957
0.290636
0.291503
0.291646
0.292941
0.298764
0.306045
0.308408
0.310295
0.311503
0.31079
0.303217
0.299387
0.301625
0.309939
0.333685
0.35609
0.359846
0.341451
0.311127
0.304908
0.318664
0.34765
0.346202
0.322215
0.304437
0.298604
0.307028
0.314007
0.319932
0.320995
0.324254
0.329101
0.336939
0.340875
0.345609
0.35621
0.37236
0.380411
0.38503
0.391984
0.429356
0.489875
0.547164
0.572744
0.585791
0.59975
0.656262
0.654559
0.695561
0.777361
0.966442
1.0254
1.12572
1.10446
1.12678
1.06048
1.10447
1.17098
1.23521
1.33482
1.27626
1.35743
1.30031
1.31241
1.23977
1.25657
1.22771
1.28163
1.30924
1.35624
1.42539
1.43829
1.44213
1.33607
1.24733
1.20076
1.25563
1.27078
1.2508
1.17341
1.2373
1.35758
1.42761
1.50729
1.59313
1.66002
1.82034
2.11442
2.41136
2.36298
2.19868
2.1694
2.34252
2.87386
2.78031
2.31956
2.22613
1.79987
1.70688
1.62867
1.82251
2.12134
2.05108
7.76845
2.19159
0.510108
0.213694
0.201607
0.215028
0.184348
0.18067
0.244022
0.3571
0.390248
0.368004
0.349548
0.314659
0.326193
0.351003
0.355546
0.358946
0.355745
0.339815
0.333389
0.333847
0.3426
0.344966
0.343199
0.330912
0.304347
0.255491
0.226469
0.214406
0.208864
0.207064
0.207303
0.209096
0.216513
0.231081
0.24442
0.250646
0.251668
0.249977
0.241633
0.238454
0.238039
0.2347
0.223089
0.2128
0.192848
0.185328
0.192577
0.222164
0.253356
0.286427
0.344699
0.456099
0.701416
0.958641
1.07247
1.12273
1.14568
1.18075
1.35582
1.53777
1.59342
1.17191
0.671212
0.472869
0.360392
0.307797
0.286015
0.278149
0.276369
0.27666
0.277265
0.275672
0.270912
0.267243
0.264153
0.26292
0.260458
0.25792
0.2576
0.260198
0.26677
0.272798
0.280807
0.289097
0.290819
0.288355
0.274912
0.264926
0.256996
0.258116
0.278822
0.32822
0.336406
0.306597
0.282232
0.277594
0.307854
0.332797
0.323179
0.301709
0.281311
0.283791
0.286321
0.291201
0.286607
0.2734
0.272819
0.275875
0.280766
0.292382
0.29945
0.309316
0.31784
0.330324
0.334024
0.346427
0.370445
0.423917
0.46547
0.537034
0.567542
0.65582
0.666779
0.710676
0.73506
0.899448
0.942241
1.07409
1.05037
1.06759
1.0648
1.07836
1.16513
1.16925
1.2349
1.1659
1.21638
1.13719
1.14871
1.08432
1.12233
1.11499
1.13808
1.13956
1.13929
1.20164
1.17741
1.20197
1.13524
1.03434
0.984854
1.02855
1.1248
1.19531
1.0759
1.07677
1.23524
1.33254
1.32974
1.3698
1.37384
1.44309
1.6055
1.9751
2.12259
2.08135
2.06591
2.22562
2.66686
2.64443
2.31426
2.23537
1.6708
1.54737
1.51836
1.61057
1.88997
1.94364
9.26122
2.59044
0.544376
0.220219
0.206755
0.207646
0.194172
0.256666
0.38573
0.420172
0.352516
0.319956
0.323402
0.308304
0.30781
0.318891
0.310078
0.283387
0.251209
0.240385
0.239758
0.256226
0.293989
0.323932
0.336754
0.342064
0.34379
0.325194
0.281044
0.252094
0.232366
0.214018
0.2074
0.205974
0.21033
0.220068
0.237023
0.254261
0.261838
0.263204
0.253702
0.24919
0.245361
0.231308
0.213912
0.19624
0.181787
0.178666
0.186442
0.21674
0.257733
0.303077
0.394966
0.624669
0.9577
1.08604
1.13758
1.15312
1.16151
1.2193
1.2852
1.30864
1.00702
0.58704
0.398613
0.31041
0.271899
0.260723
0.259125
0.264399
0.266943
0.266666
0.261172
0.250532
0.239564
0.231726
0.225066
0.219529
0.211248
0.207114
0.206235
0.208816
0.214718
0.218607
0.225304
0.233259
0.244887
0.257751
0.259033
0.25436
0.244318
0.237581
0.236902
0.247099
0.285846
0.298349
0.275248
0.257378
0.253216
0.304806
0.328457
0.311509
0.281632
0.271916
0.273292
0.277797
0.273375
0.25301
0.247673
0.248882
0.248448
0.251498
0.256732
0.262954
0.268448
0.28615
0.290504
0.304796
0.311962
0.346089
0.364044
0.406024
0.439507
0.547849
0.627286
0.717156
0.725859
0.803136
0.841766
0.953002
1.02228
1.02951
1.054
1.03772
1.11343
1.04012
1.06475
0.986093
1.00208
0.951073
0.987019
0.956736
0.974998
0.957726
0.962953
1.00185
0.97339
1.00534
0.92716
0.954825
0.919652
0.844725
0.883387
0.90095
1.03523
1.12582
1.03675
0.916357
1.17416
1.27885
1.25454
1.24819
1.23494
1.22693
1.28805
1.57668
1.82904
1.89337
1.85478
2.01064
2.5074
2.48611
2.28803
2.19873
1.58693
1.49961
1.5639
1.56937
1.55692
1.63248
10.5766
3.05064
0.601017
0.226911
0.199161
0.190084
0.227203
0.368601
0.399429
0.357885
0.326697
0.30548
0.289183
0.279014
0.265324
0.25984
0.243679
0.219472
0.20848
0.2053
0.206166
0.218046
0.245214
0.278287
0.309536
0.336606
0.36009
0.375246
0.386119
0.38884
0.341874
0.283567
0.243165
0.222864
0.216963
0.217508
0.230612
0.244929
0.266897
0.27951
0.285091
0.277791
0.264405
0.237511
0.210212
0.188383
0.177095
0.174938
0.182865
0.212975
0.267634
0.349416
0.521387
0.837297
1.04176
1.10786
1.12174
1.11739
1.10833
1.11117
1.05644
0.814016
0.523028
0.351439
0.277358
0.247782
0.240478
0.242275
0.251289
0.253345
0.251244
0.242883
0.229685
0.217578
0.207648
0.198164
0.188187
0.183187
0.180937
0.180291
0.183696
0.190294
0.19674
0.19992
0.203091
0.204221
0.204768
0.20881
0.223899
0.234587
0.238163
0.23367
0.230298
0.227687
0.232156
0.245909
0.254756
0.251606
0.23385
0.252387
0.316025
0.311502
0.2909
0.264782
0.261391
0.268338
0.265558
0.245727
0.236298
0.237074
0.235086
0.235079
0.235726
0.238769
0.242212
0.252529
0.256626
0.268628
0.27525
0.301094
0.316816
0.329957
0.35586
0.408914
0.472299
0.625141
0.695146
0.750116
0.818096
0.829256
0.937866
0.934182
0.999411
0.957513
0.974247
0.876827
0.870044
0.841847
0.863304
0.849431
0.870481
0.857974
0.862826
0.834247
0.795041
0.824823
0.786349
0.806539
0.742641
0.775583
0.76052
0.718982
0.835906
0.830488
0.951118
0.993214
0.989595
0.861847
1.12207
1.22917
1.2175
1.18323
1.16601
1.1295
1.12169
1.27656
1.55743
1.68031
1.60363
1.74347
2.26767
2.27373
2.20678
2.11989
1.57864
1.4742
1.54263
1.54744
1.39954
1.39424
11.7133
3.61041
0.734949
0.24197
0.188291
0.19082
0.283675
0.380293
0.378538
0.317074
0.299447
0.270778
0.243066
0.23592
0.228027
0.224405
0.221182
0.214075
0.205898
0.20156
0.201258
0.207757
0.228149
0.254995
0.272641
0.287592
0.316412
0.358485
0.410668
0.454342
0.474686
0.466945
0.39004
0.29854
0.252687
0.235597
0.232306
0.240865
0.254504
0.281034
0.29755
0.305748
0.302383
0.275513
0.229555
0.192103
0.178021
0.174961
0.179222
0.201809
0.266905
0.394268
0.634217
0.913835
1.03834
1.07029
1.06275
1.01482
0.94734
0.841826
0.665011
0.454797
0.316888
0.253507
0.229734
0.224405
0.229057
0.23625
0.238186
0.236026
0.228129
0.216077
0.203125
0.192625
0.184334
0.174521
0.168131
0.165945
0.165215
0.167242
0.174778
0.182114
0.189784
0.193944
0.196561
0.19694
0.192975
0.188887
0.192462
0.210991
0.225356
0.226701
0.227726
0.232108
0.226112
0.22396
0.22436
0.232007
0.2256
0.230519
0.258577
0.290358
0.288904
0.267845
0.256678
0.260245
0.259015
0.242568
0.231076
0.232866
0.231848
0.226962
0.22545
0.227049
0.232168
0.233177
0.240061
0.246036
0.254947
0.268335
0.283491
0.290511
0.311971
0.344543
0.374916
0.443347
0.579236
0.615136
0.762091
0.774625
0.869799
0.86902
0.888787
0.864812
0.852094
0.785027
0.787176
0.77198
0.776202
0.757451
0.755129
0.751201
0.733521
0.696356
0.644237
0.666535
0.647652
0.660801
0.649502
0.68427
0.673197
0.67756
0.820045
0.795748
0.861704
0.866788
0.873532
0.856656
0.981369
1.19644
1.18019
1.10497
1.0744
1.07266
1.05614
1.11896
1.34102
1.4824
1.42135
1.50497
1.97216
2.05459
2.03313
2.00371
1.55494
1.4602
1.54373
1.51359
1.27515
1.25029
12.6456
4.18914
0.879165
0.259252
0.179246
0.20822
0.336739
0.37127
0.334567
0.276319
0.256722
0.22824
0.211534
0.208791
0.208468
0.213294
0.217081
0.2164
0.210083
0.203792
0.202653
0.207402
0.228876
0.256104
0.265818
0.269023
0.281214
0.302469
0.348467
0.421885
0.49626
0.524135
0.52155
0.452977
0.341612
0.270456
0.246157
0.241212
0.246134
0.267805
0.298475
0.321045
0.33225
0.329632
0.288489
0.211825
0.183541
0.175702
0.175792
0.194433
0.264151
0.423424
0.697832
0.896557
0.96529
0.97333
0.931398
0.812453
0.680948
0.554331
0.408536
0.284824
0.233556
0.2148
0.210896
0.215345
0.219961
0.220939
0.217233
0.211074
0.205177
0.194877
0.183577
0.175061
0.165782
0.157403
0.154879
0.154298
0.15556
0.161559
0.1696
0.17752
0.185173
0.189764
0.19363
0.194971
0.193872
0.184973
0.179677
0.180961
0.200082
0.216462
0.217334
0.230035
0.236184
0.22945
0.221104
0.21906
0.219178
0.220597
0.229696
0.257856
0.275438
0.269674
0.257819
0.260732
0.260031
0.245521
0.232916
0.233212
0.232289
0.224447
0.222444
0.220613
0.225646
0.222899
0.231487
0.235598
0.242587
0.249936
0.262601
0.266028
0.285874
0.304855
0.337823
0.358141
0.437388
0.465705
0.593038
0.634854
0.71591
0.740049
0.798261
0.77274
0.763877
0.727325
0.711006
0.664443
0.65767
0.644173
0.627131
0.621555
0.600528
0.580991
0.546768
0.573008
0.563788
0.582932
0.606012
0.621638
0.621944
0.66696
0.807676
0.798475
0.785249
0.779338
0.787107
0.817804
0.91382
1.17509
1.12218
1.0282
1.00126
1.01975
1.03694
1.04232
1.1697
1.32521
1.30193
1.335
1.66332
1.84621
1.86888
1.84062
1.51139
1.46846
1.64178
1.56816
1.26382
1.15075
13.3497
4.80539
1.09988
0.293752
0.183648
0.241378
0.349462
0.35758
0.297927
0.25748
0.225174
0.202781
0.196299
0.19548
0.197715
0.201988
0.203191
0.200959
0.193858
0.187938
0.186805
0.193192
0.216257
0.2543
0.277958
0.283598
0.281579
0.296824
0.331483
0.374065
0.439496
0.522527
0.54
0.502766
0.404306
0.291718
0.247617
0.237059
0.239035
0.254435
0.279559
0.312746
0.340968
0.349194
0.340214
0.273981
0.199679
0.182414
0.179561
0.191741
0.258093
0.428948
0.713741
0.835526
0.857178
0.839677
0.744498
0.604825
0.487743
0.36878
0.271547
0.218526
0.201694
0.198747
0.204803
0.214132
0.215049
0.210197
0.201519
0.194601
0.188259
0.180717
0.174298
0.165763
0.154823
0.149721
0.1482
0.148115
0.151325
0.159304
0.167681
0.173262
0.175349
0.176392
0.181079
0.190692
0.198348
0.197847
0.182961
0.175938
0.178715
0.188601
0.205404
0.218821
0.235214
0.238489
0.234208
0.224508
0.2186
0.217476
0.220832
0.236148
0.258058
0.267889
0.261639
0.264503
0.270025
0.259973
0.24375
0.238721
0.236942
0.226138
0.222788
0.22068
0.224309
0.219592
0.225523
0.23151
0.234801
0.239533
0.252277
0.252912
0.272754
0.279785
0.310783
0.319303
0.361252
0.377224
0.432877
0.499502
0.533429
0.572892
0.640651
0.631231
0.630126
0.598027
0.59264
0.563454
0.553682
0.540853
0.518311
0.523912
0.516556
0.503716
0.491493
0.521117
0.50808
0.535633
0.57035
0.574471
0.611035
0.678865
0.79549
0.811921
0.753981
0.742927
0.766632
0.772813
0.895652
1.11718
1.07635
1.00799
0.983521
0.990219
1.02188
0.995324
1.04969
1.17139
1.2205
1.20379
1.38237
1.61428
1.71419
1.64771
1.49078
1.55637
1.67094
1.54794
1.23984
1.09992
13.8741
5.35211
1.40127
0.394866
0.205162
0.282765
0.354574
0.335664
0.268805
0.240274
0.201642
0.182804
0.175829
0.173461
0.173667
0.175003
0.17154
0.170078
0.173805
0.178244
0.180206
0.187388
0.206717
0.236887
0.265036
0.284512
0.310017
0.343227
0.368112
0.38907
0.426828
0.504397
0.531922
0.507017
0.409041
0.296461
0.243424
0.223347
0.218691
0.230268
0.259812
0.286943
0.325039
0.351359
0.355952
0.3336
0.249317
0.198911
0.189525
0.195237
0.249443
0.415233
0.679065
0.766848
0.781079
0.747055
0.621868
0.465885
0.362277
0.263172
0.21075
0.190555
0.18626
0.188107
0.20114
0.208706
0.207522
0.201558
0.1915
0.183409
0.178178
0.174656
0.170447
0.161819
0.151406
0.1477
0.146414
0.146574
0.151132
0.160662
0.167835
0.169986
0.16927
0.165164
0.162457
0.16954
0.193124
0.206142
0.204948
0.190101
0.178594
0.17855
0.184495
0.195232
0.225503
0.238523
0.236344
0.233725
0.225791
0.219475
0.221304
0.226988
0.237866
0.257887
0.260423
0.270224
0.278739
0.27378
0.263526
0.256168
0.250686
0.234734
0.226757
0.223316
0.224713
0.219666
0.222215
0.228699
0.230674
0.235178
0.244664
0.251044
0.269163
0.270872
0.294619
0.303062
0.327384
0.335653
0.357918
0.409027
0.429379
0.466359
0.500058
0.50354
0.507677
0.495259
0.496686
0.478278
0.480647
0.471707
0.460427
0.474588
0.467033
0.454734
0.487126
0.491859
0.48327
0.533694
0.563431
0.564584
0.625743
0.732452
0.766989
0.811264
0.741887
0.735965
0.788312
0.774044
0.893097
1.10979
1.05986
0.989391
0.982399
0.984006
1.00636
0.986575
1.00029
1.05865
1.16494
1.11406
1.19987
1.45503
1.56763
1.48754
1.48063
1.72237
1.76428
1.50746
1.12406
0.994192
14.3659
5.76825
1.58688
0.457895
0.244314
0.290859
0.329492
0.288306
0.246351
0.226607
0.189499
0.169473
0.160657
0.157425
0.157678
0.159261
0.159802
0.161753
0.168427
0.177178
0.180801
0.189069
0.210512
0.244212
0.27215
0.289865
0.326932
0.400118
0.46031
0.480209
0.491911
0.534553
0.546307
0.485883
0.369815
0.280808
0.242957
0.222025
0.212479
0.206834
0.212603
0.241849
0.273097
0.322137
0.351986
0.355105
0.32122
0.248584
0.209569
0.205928
0.241094
0.374467
0.616095
0.707013
0.719035
0.679341
0.543614
0.378556
0.285693
0.213488
0.186373
0.179014
0.17919
0.187234
0.194149
0.1947
0.191652
0.185934
0.180753
0.176287
0.174007
0.17287
0.170196
0.161735
0.152067
0.149092
0.148184
0.149004
0.153764
0.164474
0.168566
0.169197
0.169168
0.166357
0.159918
0.15806
0.168024
0.199082
0.209644
0.200844
0.18849
0.18392
0.184536
0.187069
0.198636
0.224907
0.234511
0.232204
0.227614
0.223084
0.221381
0.224123
0.229941
0.243594
0.259178
0.268923
0.280123
0.278702
0.270879
0.268143
0.260009
0.246971
0.235338
0.230233
0.226396
0.221528
0.222998
0.227753
0.22996
0.235602
0.240819
0.251044
0.264759
0.267379
0.284384
0.294274
0.311461
0.316862
0.326639
0.358232
0.372587
0.399136
0.416887
0.426373
0.426452
0.433026
0.437604
0.427976
0.439694
0.431909
0.433919
0.449115
0.435757
0.442614
0.482175
0.459406
0.48506
0.540937
0.550972
0.567562
0.672237
0.78272
0.764138
0.785058
0.722776
0.740565
0.870037
0.872123
0.967855
1.11562
1.05477
0.981421
0.987858
0.98912
0.991093
0.986304
0.982087
1.01063
1.09252
1.07073
1.11574
1.36755
1.4509
1.39858
1.49484
1.78902
1.78385
1.47412
1.05924
0.93903
14.8372
6.01635
1.77621
0.530065
0.269148
0.30008
0.320518
0.2848
0.24887
0.23068
0.192876
0.169893
0.159429
0.154795
0.154634
0.156101
0.158803
0.161454
0.166738
0.176567
0.185466
0.205369
0.238768
0.278153
0.312795
0.350173
0.408824
0.468042
0.516203
0.548031
0.600002
0.599792
0.556085
0.460453
0.324961
0.269858
0.24744
0.238101
0.224479
0.201035
0.187824
0.187892
0.206196
0.239108
0.304757
0.344464
0.347198
0.318107
0.255953
0.231082
0.242001
0.331959
0.532356
0.638711
0.655499
0.630745
0.515191
0.348528
0.250227
0.196284
0.178104
0.174904
0.178093
0.190004
0.194886
0.193222
0.184737
0.178327
0.175846
0.174477
0.174007
0.173471
0.170856
0.162769
0.154399
0.152768
0.152375
0.155435
0.161048
0.16748
0.169079
0.169621
0.171358
0.173529
0.167143
0.159857
0.161599
0.171415
0.190866
0.196043
0.188743
0.182896
0.184225
0.188723
0.197421
0.209418
0.220678
0.226761
0.225287
0.222297
0.220977
0.223701
0.226312
0.234675
0.256254
0.267106
0.27881
0.278536
0.273617
0.273508
0.268308
0.253861
0.242951
0.239237
0.232228
0.228006
0.228047
0.229136
0.230488
0.235845
0.239056
0.248169
0.257329
0.260609
0.274532
0.283033
0.2942
0.300151
0.306246
0.324944
0.344075
0.358208
0.367532
0.382307
0.382757
0.391226
0.394993
0.402936
0.416145
0.406755
0.420472
0.429848
0.416288
0.449857
0.459345
0.45009
0.500161
0.529526
0.55007
0.580977
0.7372
0.808531
0.766887
0.759726
0.720237
0.752032
0.93911
1.03853
1.08393
1.14978
1.08394
1.01488
1.03677
1.0434
0.995051
0.989043
0.977949
0.990795
1.03232
1.06611
1.09746
1.26867
1.35844
1.34818
1.56669
1.85536
1.7457
1.31483
0.949665
0.89817
15.4185
6.14534
2.03253
0.696952
0.321914
0.297605
0.311147
0.296754
0.268341
0.254636
0.220768
0.188249
0.170711
0.162257
0.160133
0.160799
0.164501
0.171412
0.178702
0.189772
0.208617
0.243423
0.289324
0.33155
0.372487
0.44009
0.527896
0.558285
0.58677
0.637654
0.651758
0.61152
0.508258
0.407557
0.32855
0.278675
0.267604
0.268232
0.24637
0.2105
0.176692
0.167194
0.167951
0.179178
0.209281
0.289606
0.340823
0.345808
0.325624
0.273746
0.26258
0.301144
0.453817
0.586237
0.605005
0.593506
0.513822
0.362365
0.252474
0.197558
0.178101
0.174486
0.177374
0.190381
0.197295
0.195627
0.186226
0.178272
0.175804
0.174671
0.174081
0.173286
0.169959
0.162803
0.15944
0.159165
0.161917
0.166874
0.169196
0.169488
0.168323
0.167749
0.170699
0.173976
0.170674
0.163338
0.160137
0.162238
0.168874
0.174892
0.177296
0.178912
0.180778
0.184356
0.192114
0.205045
0.214294
0.218864
0.22109
0.219643
0.220317
0.224505
0.227288
0.23628
0.25405
0.264615
0.27445
0.276193
0.275679
0.274553
0.272539
0.263915
0.253711
0.251569
0.24633
0.237858
0.234687
0.23359
0.23159
0.235505
0.236836
0.241509
0.248127
0.254125
0.262256
0.271832
0.279189
0.285233
0.289992
0.304247
0.321941
0.329544
0.340187
0.352059
0.356877
0.371603
0.372295
0.385282
0.399301
0.398652
0.412862
0.404585
0.41315
0.452063
0.441704
0.454958
0.523633
0.529317
0.558606
0.617499