/*--------------------------------*- C++ -*----------------------------------*\
| =========                 |                                                 |
| \\      /  F ield         | OpenFOAM: The Open Source CFD Toolbox           |
|  \\    /   O peration     | Version:  dev                                   |
|   \\  /    A nd           | Web:      http://www.openfoam.org               |
|    \\/     M anipulation  |                                                 |
\*---------------------------------------------------------------------------*/
FoamFile
{
    version     2.0;
    format      ascii;
    class       volScalarField;
    object      muSgs;
    location    "9.125";
}
// * * * * * * * * * * * * * * * * * * * * * * * * * * * * * * * * * * * * * //

dimensions      [1 -1 -1 0 0 0 0];

internalField   nonuniform List<scalar> 
12225
(
0.000231566
0.00026375
0.000222049
0.000239101
0.000203006
0.000257669
0.000222738
0.00028968
0.000248624
0.000327946
0.000277227
0.000368561
0.000317065
0.000402157
0.000390907
0.000428823
0.000429342
0.000449723
9.62058e-05
0.000192114
0.000177132
0.000191816
0.000165845
0.000180846
0.00016012
0.000177041
0.000160991
0.000176095
0.000164001
0.000173873
0.000170331
0.000167785
0.000189723
0.000179669
0.0001703
0.000191436
3.04727e-05
0.000105308
0.000113302
0.000142543
0.000138156
0.00014277
0.000138927
0.000136526
0.000135614
0.000127549
0.000127555
0.00011622
0.000117641
0.000102179
0.000106875
9.41978e-05
9.28991e-05
9.09679e-05
1.11642e-05
4.98038e-05
6.27754e-05
8.03265e-05
9.55209e-05
9.48043e-05
0.000103091
9.78842e-05
0.000103398
9.49407e-05
9.64049e-05
8.61282e-05
8.61824e-05
7.53716e-05
7.66123e-05
7.12419e-05
7.53761e-05
7.09053e-05
7.87533e-06
3.18444e-05
3.93199e-05
5.1039e-05
6.37439e-05
6.61253e-05
7.23629e-05
7.07615e-05
7.27484e-05
6.85263e-05
6.9654e-05
6.33613e-05
6.43755e-05
5.78689e-05
5.93209e-05
5.41467e-05
5.86067e-05
6.01389e-05
9.77535e-06
2.48669e-05
3.01205e-05
3.5376e-05
4.41918e-05
4.58514e-05
5.13305e-05
5.02803e-05
5.29765e-05
5.07487e-05
5.20791e-05
4.88117e-05
5.01733e-05
4.69336e-05
4.76842e-05
4.51028e-05
5.10822e-05
5.91977e-05
1.75576e-05
2.33784e-05
2.87443e-05
3.14498e-05
3.64408e-05
3.76565e-05
4.14329e-05
4.12236e-05
4.36779e-05
4.29143e-05
4.40231e-05
4.27244e-05
4.37018e-05
4.24201e-05
4.30831e-05
4.20146e-05
4.26061e-05
4.95395e-05
2.07936e-05
2.49499e-05
2.64089e-05
2.80541e-05
3.0594e-05
3.17608e-05
3.37509e-05
3.39917e-05
3.56415e-05
3.54291e-05
3.63419e-05
3.58368e-05
3.61279e-05
3.57908e-05
3.5864e-05
3.57433e-05
3.52933e-05
3.75664e-05
2.72917e-05
3.54396e-05
3.38316e-05
3.45803e-05
3.49557e-05
3.59346e-05
3.68493e-05
3.75139e-05
3.85208e-05
3.84044e-05
3.91884e-05
3.88054e-05
3.86639e-05
3.85666e-05
3.81158e-05
3.84134e-05
3.796e-05
3.84463e-05
3.95831e-05
4.95999e-05
4.748e-05
4.7836e-05
4.58618e-05
4.58035e-05
4.48639e-05
4.50017e-05
4.47608e-05
4.46954e-05
4.46372e-05
4.42152e-05
4.36819e-05
4.34665e-05
4.30266e-05
4.27986e-05
4.20535e-05
4.18843e-05
6.18351e-05
7.05414e-05
6.7635e-05
6.7341e-05
6.44599e-05
6.32988e-05
6.10091e-05
5.98415e-05
5.80074e-05
5.701e-05
5.5387e-05
5.44286e-05
5.30561e-05
5.22181e-05
5.12297e-05
5.0401e-05
4.95401e-05
4.86377e-05
9.81604e-05
0.000101798
9.67173e-05
9.39648e-05
8.96472e-05
8.69558e-05
8.32665e-05
8.07755e-05
7.77411e-05
7.52669e-05
7.24185e-05
7.00189e-05
6.76296e-05
6.5581e-05
6.38468e-05
6.22318e-05
6.09851e-05
5.95965e-05
0.000139757
0.000140334
0.000132541
0.000127212
0.000118989
0.000113822
0.000107267
0.000103001
9.80018e-05
9.43779e-05
9.0172e-05
8.70617e-05
8.37598e-05
8.12982e-05
7.90035e-05
7.71261e-05
7.50332e-05
7.30542e-05
0.000192508
0.000187859
0.000176576
0.000167987
0.00015647
0.000148636
0.000139707
0.000132525
0.000125133
0.00011906
0.000113295
0.000108795
0.000104234
0.000100627
9.64961e-05
9.32159e-05
8.92584e-05
8.60872e-05
0.000257312
0.000250332
0.000234672
0.000219792
0.000205079
0.000191016
0.000177216
0.000165021
0.000153704
0.000144074
0.000135139
0.000127793
0.00012065
0.000114892
0.000108917
0.000104366
9.91182e-05
9.53462e-05
0.000329409
0.000313581
0.000286557
0.000260083
0.000236774
0.000216989
0.000199596
0.000184657
0.000171245
0.000159841
0.000149347
0.000140618
0.000132217
0.000125479
0.000118552
0.000113269
0.000107306
0.000103129
0.000370752
0.000347698
0.000314847
0.000283912
0.000257283
0.00023502
0.000215784
0.000199378
0.000184718
0.000172238
0.000160782
0.000151225
0.000142057
0.000134682
0.000127168
0.000121427
0.000114958
0.000110493
0.000364624
0.000342002
0.000310102
0.000279801
0.000253681
0.000231867
0.00021309
0.000197067
0.00018274
0.000170457
0.000159176
0.000149719
0.000140676
0.000133311
0.000125838
0.00012009
0.000113661
0.000109223
0.000307138
0.000292038
0.000270723
0.000246839
0.000225407
0.000207205
0.000191277
0.000177484
0.00016501
0.00015427
0.000144325
0.000135941
0.000127824
0.000121191
0.000114384
0.000109119
0.000103169
9.91461e-05
0.000232455
0.000222758
0.000211738
0.000198002
0.000184368
0.000172128
0.00016079
0.000150603
0.000140955
0.000132572
0.000124669
0.000117915
0.000111186
0.000105612
9.97234e-05
9.51225e-05
8.97398e-05
8.62362e-05
0.000166621
0.000160275
0.000153077
0.000143612
0.000133406
0.000125685
0.000119147
0.000113418
0.00010754
0.000102388
9.70721e-05
9.23187e-05
8.74697e-05
8.3345e-05
7.89274e-05
7.53604e-05
7.111e-05
6.8317e-05
0.000117184
0.000114652
0.000111025
0.000106506
0.000101001
9.67515e-05
9.27029e-05
8.79605e-05
8.29561e-05
7.8123e-05
7.39752e-05
7.07683e-05
6.80548e-05
6.58579e-05
6.37233e-05
6.19652e-05
5.99851e-05
5.84436e-05
7.80982e-05
7.94811e-05
7.8838e-05
7.70245e-05
7.42197e-05
7.04859e-05
6.75938e-05
6.59985e-05
6.48324e-05
6.37853e-05
6.26027e-05
6.13829e-05
6.01301e-05
5.89437e-05
5.7701e-05
5.65478e-05
5.52535e-05
5.40565e-05
5.19299e-05
5.34266e-05
5.23635e-05
5.19409e-05
5.25187e-05
5.42531e-05
5.60939e-05
5.75201e-05
5.82586e-05
5.83615e-05
5.79627e-05
5.7295e-05
5.64818e-05
5.56058e-05
5.46526e-05
5.36908e-05
5.26943e-05
5.17011e-05
3.00518e-05
3.1644e-05
3.52659e-05
4.12673e-05
4.60674e-05
4.97281e-05
5.28095e-05
5.50817e-05
5.66555e-05
5.75686e-05
5.78897e-05
5.77565e-05
5.7337e-05
5.68077e-05
5.60497e-05
5.53641e-05
5.45486e-05
5.39306e-05
1.45261e-05
2.2588e-05
3.2199e-05
4.18193e-05
5.02425e-05
5.61598e-05
6.07991e-05
6.38099e-05
6.59194e-05
6.71663e-05
6.76914e-05
6.76382e-05
6.71946e-05
6.66827e-05
6.58479e-05
6.52601e-05
6.44997e-05
6.41579e-05
9.92406e-06
2.81631e-05
4.95177e-05
6.58624e-05
7.6891e-05
8.30621e-05
8.73051e-05
8.95725e-05
9.09225e-05
9.13006e-05
9.08838e-05
8.98992e-05
8.86227e-05
8.73641e-05
8.60207e-05
8.47954e-05
8.35481e-05
8.23105e-05
2.38102e-05
6.8513e-05
0.000102034
0.000118266
0.000128571
0.000131875
0.000132206
0.000130794
0.000128785
0.000126288
0.000122939
0.000119311
0.000115688
0.000112199
0.000109019
0.000105854
0.000102215
9.88234e-05
8.24426e-05
0.000163778
0.000186823
0.000185483
0.000179316
0.000171455
0.000163873
0.000156837
0.000150271
0.000143802
0.000138504
0.00013361
0.00012853
0.000123293
0.0001186
0.00011365
0.000109321
0.000104903
0.000223466
0.000280786
0.000272667
0.000248635
0.000229732
0.000221252
0.000216616
0.000214198
0.000212205
0.00021057
0.000208567
0.000205763
0.000202422
0.000198563
0.000194297
0.000189376
0.000183754
0.000177114
3.26201e-05
4.65012e-05
4.96004e-05
5.25689e-05
5.43693e-05
5.51827e-05
5.60241e-05
5.67269e-05
5.77924e-05
5.9311e-05
6.15772e-05
6.42199e-05
6.73604e-05
7.07963e-05
7.46093e-05
7.85201e-05
8.24904e-05
8.64806e-05
9.03819e-05
9.41753e-05
9.78419e-05
0.000101766
0.000105681
0.000109361
0.000113279
0.000117821
0.000122341
0.000127223
0.000132416
0.000137367
0.000142798
0.00014858
0.000154426
0.000161252
0.000167923
0.000174874
0.000182794
0.000191272
0.000199378
0.000207545
0.000215776
0.000221925
0.000224596
0.000225517
0.000226351
0.000228462
0.000230951
0.000232674
0.000233713
0.000235864
0.000240935
0.000245704
0.000248854
0.000249947
0.000248066
0.000248767
0.00025066
0.000254934
0.000268917
0.000277357
0.00027806
0.000274391
0.000268086
0.000260053
0.000257135
0.000258345
0.00026447
0.00027168
0.000271694
0.000274214
0.000283695
0.000294865
0.000304709
0.000312684
0.000318703
0.00032254
0.000324984
0.000325816
0.000324669
0.000321411
0.000316317
0.000310115
0.000303166
0.000295285
0.000285319
0.00027418
0.000262858
0.000251567
0.000240128
0.00022888
0.00021762
0.000207201
0.000199444
0.000189746
0.00018352
0.000176478
0.000171416
0.000166204
0.000162923
0.000160541
0.000158607
0.000157477
0.000157051
0.00015704
0.000157268
0.000157883
0.000158507
0.000159235
0.000159982
0.000160845
0.000161775
0.000162497
0.000162894
0.000163135
0.000163572
0.000165767
0.000169222
0.000172628
0.00017742
0.000182369
0.000186533
0.000193359
0.000203655
0.000211353
0.000217242
0.000226556
0.000240008
0.000255725
0.000273586
0.000293068
0.000320012
0.000346725
0.000365837
0.000372239
0.000381167
0.000376416
0.000390944
0.000389361
0.000392458
0.00038149
0.000388506
0.00037635
0.000378056
0.000368189
0.00036826
0.000366214
0.000363099
0.000364211
0.00035735
0.000356266
0.00034812
0.000345441
0.000340823
0.000340573
0.000345213
0.000354919
0.000366796
0.000372692
0.000374072
0.000368653
0.000363139
0.00035225
0.000341437
0.000325315
0.000313707
0.000308027
0.000308707
0.00031935
0.000328408
0.00032773
0.000331744
0.00030032
0.000263839
0.000272339
0.00030096
0.000303311
0.000328371
0.000383915
0.000415279
0.000452432
6.56804e-05
5.00887e-05
4.75702e-05
4.55884e-05
4.34624e-05
4.09596e-05
3.93508e-05
3.8762e-05
3.87437e-05
3.90624e-05
3.97629e-05
4.07412e-05
4.19731e-05
4.33351e-05
4.48468e-05
4.61589e-05
4.74553e-05
4.87151e-05
4.99609e-05
5.08904e-05
5.17287e-05
5.32459e-05
5.40852e-05
5.44441e-05
5.49515e-05
5.59294e-05
5.65895e-05
5.74267e-05
5.84399e-05
5.89954e-05
5.98625e-05
6.0934e-05
6.20518e-05
6.35194e-05
6.47051e-05
6.62889e-05
6.89652e-05
7.27151e-05
7.67233e-05
8.39474e-05
9.27109e-05
0.000102718
0.000119376
0.000132366
0.000135878
0.000136033
0.000135152
0.000130504
0.000121204
0.000118697
0.000119607
0.000125031
0.000128206
0.000125575
0.000109159
9.92214e-05
9.6523e-05
9.69584e-05
0.000111903
0.000147728
0.000179823
0.0001862
0.000182591
0.000160649
0.000157532
0.000166673
0.000189349
0.000226266
0.000238482
0.000242279
0.000240987
0.000232017
0.000224388
0.000215408
0.000206631
0.00019854
0.000191467
0.000184177
0.000177002
0.000170234
0.000164563
0.000159321
0.000154431
0.000148606
0.000143273
0.000138994
0.00013566
0.000131947
0.000129225
0.000126009
0.000123232
0.000122478
0.000121251
0.000120551
0.000121407
0.000120031
0.00011978
0.000120098
0.000121978
0.000122451
0.000123289
0.000124479
0.000126412
0.000128241
0.000130161
0.00013195
0.000133244
0.000134447
0.000135696
0.000136692
0.000137729
0.000138187
0.000138104
0.000137801
0.00013674
0.000136
0.000136082
0.000137269
0.000139632
0.000141245
0.000141396
0.000143436
0.000148176
0.0001516
0.000151178
0.000154441
0.000168177
0.00018916
0.000212458
0.000231666
0.000249473
0.000258416
0.000256447
0.000248589
0.000250733
0.000250508
0.000262692
0.000255975
0.000257917
0.000254548
0.000256116
0.000254297
0.000255361
0.0002586
0.00026254
0.000266336
0.00026672
0.000267564
0.000263886
0.000263465
0.000261313
0.000262423
0.000261522
0.000261872
0.000265058
0.000278265
0.000304091
0.000326499
0.000340445
0.000343073
0.000343718
0.000345002
0.000341141
0.000330502
0.000320335
0.000310749
0.000308749
0.000310644
0.000320898
0.000310468
0.000300991
0.000288121
0.000248354
0.000248749
0.000272736
0.000280591
0.000299835
0.000317487
0.000333233
0.000351842
0.00010688
5.94056e-05
4.79218e-05
4.33893e-05
4.00628e-05
3.74672e-05
3.52409e-05
3.40387e-05
3.38113e-05
3.40412e-05
3.45203e-05
3.52223e-05
3.61323e-05
3.72221e-05
3.85081e-05
3.98865e-05
4.14356e-05
4.31213e-05
4.48867e-05
4.65165e-05
4.80956e-05
4.9861e-05
5.08672e-05
5.13387e-05
5.15753e-05
5.18046e-05
5.17813e-05
5.1782e-05
5.18831e-05
5.21314e-05
5.25875e-05
5.28412e-05
5.30643e-05
5.29512e-05
5.27526e-05
5.31664e-05
5.34409e-05
5.34826e-05
5.32723e-05
5.29711e-05
5.32107e-05
5.43541e-05
5.65539e-05
6.27223e-05
6.93506e-05
7.77639e-05
8.44472e-05
8.61786e-05
8.55066e-05
8.37214e-05
7.93241e-05
7.73253e-05
7.74996e-05
7.4911e-05
6.90965e-05
6.6613e-05
6.58714e-05
7.02674e-05
7.85493e-05
8.29048e-05
9.46736e-05
0.000121356
0.000133056
0.000143167
0.000174431
0.000185044
0.000186324
0.000188362
0.000179796
0.000171131
0.000159805
0.000146928
0.000136018
0.00012593
0.000117924
0.000111558
0.000106001
0.000100455
9.58176e-05
9.22105e-05
9.02066e-05
8.82127e-05
8.63349e-05
8.42108e-05
8.30874e-05
8.26306e-05
8.25433e-05
8.2707e-05
8.33208e-05
8.34766e-05
8.32391e-05
8.37284e-05
8.31851e-05
8.30453e-05
8.46257e-05
8.58478e-05
8.66595e-05
8.69995e-05
8.91852e-05
9.03259e-05
9.12865e-05
9.28959e-05
9.51256e-05
9.72762e-05
0.000100328
0.00010315
0.000105431
0.000107523
0.000109438
0.000111383
0.000114975
0.000118575
0.000120583
0.000120822
0.000118725
0.000118002
0.000117731
0.000116287
0.000117153
0.000118505
0.000117072
0.000116884
0.000119266
0.000120545
0.000120503
0.000125413
0.000140348
0.000155823
0.000171799
0.000184131
0.000191961
0.00019047
0.00017859
0.000175856
0.000172609
0.000178216
0.000185679
0.000181804
0.000185069
0.000188332
0.00019106
0.000190706
0.000192605
0.00019563
0.000201151
0.000205446
0.000210107
0.000211177
0.000209225
0.000208325
0.000206029
0.000208247
0.000205725
0.000201207
0.000192177
0.000194837
0.000211812
0.000233111
0.000252505
0.000263483
0.000272522
0.000282477
0.000299328
0.000304106
0.000301466
0.000292038
0.00027754
0.000268546
0.000285471
0.000287436
0.000279088
0.000266547
0.000224132
0.000215099
0.000246714
0.000266148
0.000276037
0.000280886
0.000282061
0.000282567
0.000149581
8.15821e-05
5.06112e-05
4.37461e-05
4.14343e-05
3.97564e-05
3.67924e-05
3.38507e-05
3.34243e-05
3.39417e-05
3.49071e-05
3.60561e-05
3.75105e-05
3.92711e-05
4.16354e-05
4.41378e-05
4.69325e-05
4.98088e-05
5.25461e-05
5.50626e-05
5.70151e-05
5.7591e-05
5.75659e-05
5.67499e-05
5.51537e-05
5.33638e-05
5.18632e-05
5.12772e-05
5.11195e-05
5.12667e-05
5.1639e-05
5.18148e-05
5.18184e-05
5.24248e-05
5.27934e-05
5.35401e-05
5.36481e-05
5.32906e-05
5.30176e-05
5.26959e-05
5.31157e-05
5.32802e-05
5.11823e-05
5.06695e-05
5.10408e-05
5.17799e-05
5.58356e-05
6.24937e-05
6.42517e-05
6.45234e-05
6.36135e-05
6.13178e-05
5.89539e-05
5.83837e-05
5.92154e-05
6.15281e-05
6.38513e-05
7.17015e-05
7.82426e-05
8.14633e-05
9.08649e-05
0.000100644
0.000126509
0.000169003
0.00017982
0.000170817
0.000154348
0.000137949
0.000129033
0.000116489
0.00010604
9.65038e-05
8.8804e-05
8.30707e-05
7.95564e-05
7.70086e-05
7.48381e-05
7.27559e-05
7.13422e-05
7.08289e-05
7.06595e-05
7.04503e-05
7.03178e-05
7.01093e-05
7.01342e-05
7.03153e-05
7.06982e-05
7.11856e-05
7.23545e-05
7.3902e-05
7.48386e-05
7.55442e-05
7.52681e-05
7.3589e-05
7.33853e-05
7.40682e-05
7.56544e-05
7.63421e-05
7.72703e-05
7.74614e-05
7.70764e-05
7.84424e-05
8.01187e-05
8.15523e-05
8.31993e-05
8.51696e-05
8.69498e-05
8.86919e-05
9.05102e-05
9.1961e-05
9.4903e-05
0.00010096
0.00010624
0.000108208
0.000107726
0.000106016
0.000109326
0.000112186
0.000110302
0.000111444
0.000112393
0.00011077
0.000112752
0.000115955
0.000113775
0.000113587
0.000128695
0.000143697
0.000154712
0.000163206
0.000165789
0.000161226
0.00015368
0.00015529
0.000155163
0.00016361
0.000162276
0.00016217
0.000166415
0.00016505
0.000169181
0.000167454
0.000173335
0.000173838
0.000179416
0.000181373
0.000185021
0.000186894
0.000184775
0.0001853
0.000180516
0.000185028
0.000183656
0.000182373
0.000167389
0.000160435
0.000167061
0.000181617
0.000197715
0.000205186
0.000215095
0.000226834
0.000243678
0.000267623
0.000276398
0.000270887
0.000254432
0.000231597
0.00025364
0.000273792
0.000277747
0.00025755
0.000226172
0.000216342
0.00022049
0.000246634
0.000235341
0.00024289
0.000254425
0.000253812
0.000186215
0.000107567
5.94125e-05
4.48842e-05
4.34429e-05
4.26378e-05
3.85406e-05
3.41274e-05
3.41397e-05
3.59276e-05
3.83199e-05
4.09251e-05
4.39809e-05
4.7649e-05
5.26024e-05
5.50817e-05
5.64528e-05
5.81426e-05
5.94181e-05
5.98303e-05
6.00073e-05
5.96622e-05
5.87661e-05
5.74148e-05
5.56506e-05
5.31493e-05
5.07857e-05
4.86513e-05
4.70637e-05
4.67693e-05
4.69491e-05
4.76135e-05
4.87975e-05
4.95929e-05
4.9683e-05
4.96376e-05
5.0127e-05
5.15196e-05
5.20693e-05
5.21262e-05
5.27748e-05
5.30795e-05
5.23484e-05
5.1141e-05
4.96636e-05
4.83611e-05
4.82305e-05
4.90278e-05
5.28722e-05
5.56016e-05
5.54172e-05
5.4247e-05
5.40574e-05
5.53857e-05
5.92165e-05
6.49696e-05
7.47368e-05
8.81114e-05
9.33058e-05
9.49799e-05
9.47395e-05
0.000105916
0.000148965
0.000169228
0.000166021
0.000132756
0.000113677
0.000102533
9.15452e-05
8.28634e-05
7.6265e-05
7.1144e-05
6.77379e-05
6.61633e-05
6.54759e-05
6.50593e-05
6.46853e-05
6.43625e-05
6.42135e-05
6.41525e-05
6.42809e-05
6.47948e-05
6.53201e-05
6.54509e-05
6.55046e-05
6.56163e-05
6.57717e-05
6.58077e-05
6.6102e-05
6.84005e-05
7.02772e-05
7.1592e-05
7.19623e-05
7.08966e-05
6.92815e-05
6.8304e-05
6.97521e-05
7.09239e-05
7.27643e-05
7.31104e-05
7.11784e-05
7.11944e-05
7.26501e-05
7.4482e-05
7.5659e-05
7.65716e-05
7.74886e-05
7.84741e-05
7.91394e-05
7.97861e-05
8.0966e-05
8.25011e-05
8.72381e-05
9.11541e-05
9.30258e-05
9.3655e-05
9.39325e-05
9.87473e-05
0.000103189
0.000106037
0.000110094
0.000112301
0.000112616
0.000114292
0.000114321
0.000113734
0.000123058
0.000135606
0.000141122
0.00014775
0.000148578
0.000153799
0.000146456
0.000147269
0.000152876
0.000159591
0.000160532
0.000158944
0.000164783
0.000163579
0.000167586
0.00016217
0.000165208
0.000161021
0.000163666
0.000165004
0.00016781
0.000173445
0.000170867
0.000171771
0.000160144
0.000163256
0.000165912
0.000170453
0.000161815
0.000148647
0.000145885
0.000155729
0.000167665
0.000174873
0.000181144
0.000193126
0.000200434
0.000225754
0.00024873
0.000250538
0.00023946
0.000205902
0.000218936
0.000253591
0.000275904
0.000256619
0.000235181
0.000229351
0.000206623
0.000210892
0.000197337
0.000207227
0.000223838
0.000230846
0.000218205
0.000125118
6.76634e-05
4.66888e-05
4.47433e-05
4.38816e-05
3.83392e-05
3.5477e-05
3.74736e-05
4.26094e-05
4.94438e-05
5.55572e-05
5.69557e-05
5.46782e-05
5.58561e-05
5.73065e-05
5.81007e-05
5.9363e-05
6.00286e-05
6.02424e-05
6.00264e-05
5.94227e-05
5.8798e-05
5.81191e-05
5.71984e-05
5.53714e-05
5.20999e-05
4.85521e-05
4.67997e-05
4.63495e-05
4.63304e-05
4.64319e-05
4.66341e-05
4.7276e-05
4.81882e-05
4.91841e-05
5.0318e-05
5.11104e-05
5.14413e-05
5.15935e-05
5.10799e-05
5.06245e-05
5.06487e-05
5.02353e-05
4.94442e-05
4.80239e-05
4.66659e-05
4.62114e-05
4.78971e-05
5.20106e-05
5.34492e-05
5.41117e-05
5.53682e-05
6.0174e-05
6.98627e-05
8.25988e-05
9.97247e-05
0.000109114
0.000110394
0.000107367
0.00010898
0.000135806
0.00015371
0.000156136
0.000125501
9.84972e-05
8.54906e-05
7.57529e-05
6.96364e-05
6.54195e-05
6.31944e-05
6.19359e-05
6.14827e-05
6.13931e-05
6.12481e-05
6.09659e-05
6.08623e-05
6.09683e-05
6.08455e-05
6.06304e-05
6.06359e-05
6.12858e-05
6.19798e-05
6.223e-05
6.24706e-05
6.26069e-05
6.26834e-05
6.1933e-05
6.16944e-05
6.2089e-05
6.32483e-05
6.60152e-05
6.82494e-05
6.90179e-05
6.78152e-05
6.47941e-05
6.43135e-05
6.63383e-05
6.88484e-05
6.98101e-05
6.8127e-05
6.65265e-05
6.65859e-05
6.77818e-05
6.91768e-05
7.02473e-05
7.10651e-05
7.19596e-05
7.30108e-05
7.40407e-05
7.47873e-05
7.55074e-05
7.67082e-05
7.84741e-05
7.96851e-05
8.04199e-05
8.0908e-05
8.41144e-05
9.14563e-05
9.86116e-05
0.000101003
0.000103524
0.000107911
0.000118736
0.000120036
0.000117339
0.00011657
0.000127783
0.000134035
0.000145541
0.00014237
0.000143943
0.000142836
0.000143967
0.000150609
0.000153588
0.000161179
0.000157373
0.000163865
0.000158485
0.000159526
0.000152029
0.000152567
0.000150369
0.000152766
0.000154686
0.000152917
0.000159119
0.000157643
0.000163324
0.000151769
0.000143675
0.000139053
0.000148977
0.000153137
0.000144989
0.000138147
0.0001413
0.000153828
0.000162147
0.000159893
0.000172575
0.000170816
0.000187462
0.000211288
0.000232569
0.000233316
0.000204897
0.000200392
0.000234233
0.000270134
0.000257054
0.000238811
0.000235069
0.000201054
0.000192939
0.000186055
0.000199442
0.000215978
0.000223057
0.000244501
0.000137144
7.0415e-05
4.72789e-05
4.46842e-05
4.27642e-05
3.80597e-05
3.83667e-05
4.63639e-05
5.76589e-05
6.14002e-05
5.63105e-05
5.4304e-05
5.40659e-05
5.43341e-05
5.66744e-05
5.74042e-05
5.72297e-05
5.69397e-05
5.5613e-05
5.52581e-05
5.54757e-05
5.6346e-05
5.67998e-05
5.70396e-05
5.64705e-05
5.44209e-05
5.00016e-05
4.74993e-05
4.64588e-05
4.60017e-05
4.58374e-05
4.57425e-05
4.5892e-05
4.68221e-05
4.86179e-05
5.02764e-05
5.11707e-05
5.13713e-05
5.11533e-05
5.02797e-05
5.02155e-05
5.01684e-05
4.91277e-05
4.76835e-05
4.71716e-05
4.54447e-05
4.48856e-05
4.5981e-05
4.98211e-05
5.34226e-05
5.59928e-05
6.10271e-05
7.14579e-05
9.06617e-05
0.00010692
0.000113321
0.000116478
0.000117975
0.000120135
0.000129612
0.000138504
0.00014176
0.000119256
8.99341e-05
7.52207e-05
6.65726e-05
6.23221e-05
6.06115e-05
6.00349e-05
6.00699e-05
6.01964e-05
5.99937e-05
5.92544e-05
5.81369e-05
5.72853e-05
5.67285e-05
5.65039e-05
5.61428e-05
5.58574e-05
5.59533e-05
5.64585e-05
5.73144e-05
5.80908e-05
5.90731e-05
5.98742e-05
6.01637e-05
5.99528e-05
5.88305e-05
5.79137e-05
5.75129e-05
5.79495e-05
6.085e-05
6.55202e-05
6.60558e-05
6.31857e-05
6.06759e-05
6.10377e-05
6.36899e-05
6.71123e-05
6.7551e-05
6.52998e-05
6.40167e-05
6.41837e-05
6.51601e-05
6.62122e-05
6.65077e-05
6.55798e-05
6.57235e-05
6.67597e-05
6.78156e-05
6.94537e-05
7.0353e-05
7.17124e-05
7.32301e-05
7.41012e-05
7.43844e-05
7.57985e-05
7.85073e-05
8.45759e-05
8.9385e-05
9.64734e-05
9.93102e-05
0.000107785
0.000116107
0.000124519
0.000120959
0.000126219
0.000126315
0.000135659
0.000140178
0.000141383
0.000145166
0.000142615
0.000146368
0.000144014
0.000152545
0.000149543
0.000154158
0.000147387
0.000150255
0.000145865
0.000145606
0.000142045
0.000139824
0.000142563
0.000139686
0.000145402
0.000138271
0.000143478
0.000139615
0.000133214
0.000126941
0.000130176
0.000141761
0.000142115
0.000133024
0.000130788
0.000145698
0.000159205
0.000148371
0.000157076
0.000152855
0.000159882
0.000174745
0.00020405
0.000222288
0.000209047
0.000192289
0.000217229
0.000257334
0.000254613
0.000243311
0.000240815
0.000197542
0.00018548
0.000185619
0.000188594
0.000197365
0.000215877
0.000265614
0.000147415
7.14499e-05
4.65508e-05
4.33229e-05
4.08194e-05
3.91182e-05
4.71416e-05
5.99309e-05
6.13442e-05
5.47661e-05
5.40621e-05
5.41308e-05
5.35236e-05
5.32368e-05
5.31403e-05
5.2603e-05
5.00904e-05
4.74265e-05
4.71556e-05
4.7246e-05
4.90881e-05
5.26977e-05
5.53933e-05
5.67249e-05
5.76047e-05
5.82396e-05
5.69289e-05
5.33981e-05
5.09097e-05
4.8985e-05
4.70215e-05
4.61359e-05
4.58192e-05
4.63252e-05
4.74569e-05
4.93636e-05
5.12919e-05
5.22376e-05
5.23786e-05
5.12986e-05
5.08526e-05
5.03736e-05
4.86958e-05
4.70016e-05
4.54353e-05
4.41233e-05
4.38261e-05
4.50789e-05
4.90579e-05
5.28294e-05
5.69175e-05
6.62736e-05
8.49461e-05
0.000106432
0.000114607
0.000117243
0.000118091
0.000118868
0.000122042
0.00012576
0.000127015
0.000110132
8.42871e-05
6.94508e-05
6.19647e-05
5.85528e-05
5.7672e-05
5.7714e-05
5.83642e-05
5.82627e-05
5.76163e-05
5.6374e-05
5.4755e-05
5.32745e-05
5.24191e-05
5.19173e-05
5.15709e-05
5.08565e-05
5.07421e-05
5.09583e-05
5.14988e-05
5.23823e-05
5.31174e-05
5.41431e-05
5.53794e-05
5.69177e-05
5.82753e-05
5.83987e-05
5.80387e-05
5.71436e-05
5.6728e-05
5.691e-05
5.84939e-05
6.20815e-05
6.20995e-05
5.94659e-05
5.79511e-05
5.75945e-05
6.2868e-05
6.63003e-05
6.39931e-05
6.23007e-05
6.10236e-05
6.2054e-05
6.28413e-05
6.35113e-05
6.21917e-05
6.1969e-05
6.25378e-05
6.28775e-05
6.36833e-05
6.52414e-05
6.56843e-05
6.66919e-05
6.9363e-05
6.97227e-05
7.09982e-05
7.2427e-05
7.57983e-05
7.81207e-05
8.22386e-05
8.6793e-05
9.64399e-05
0.000103331
0.000117553
0.000123192
0.000126348
0.000126612
0.000128205
0.000134556
0.000135576
0.000137953
0.000135529
0.000140954
0.000136138
0.000140013
0.000136547
0.000141291
0.00013669
0.000139595
0.000137204
0.000135035
0.000131861
0.000127673
0.000132823
0.000127566
0.000131691
0.000122184
0.00012507
0.00012242
0.000117493
0.000120609
0.000118754
0.000131622
0.000136874
0.000133022
0.000121728
0.000138961
0.000156253
0.000145392
0.000148527
0.000147182
0.00014719
0.000151856
0.000175084
0.000203131
0.000206928
0.000182768
0.000197113
0.000242836
0.000248409
0.000246877
0.000240609
0.000201355
0.000191144
0.000197999
0.000194966
0.000180238
0.000198453
0.00028244
0.000157763
7.30916e-05
4.53106e-05
4.06932e-05
3.84743e-05
4.32676e-05
5.75202e-05
6.05469e-05
5.61419e-05
5.35741e-05
5.33862e-05
5.07722e-05
4.95617e-05
4.87457e-05
4.76617e-05
4.68037e-05
4.50523e-05
4.43882e-05
4.43306e-05
4.46712e-05
4.59977e-05
4.86863e-05
5.16392e-05
5.43604e-05
5.6904e-05
5.93534e-05
6.08999e-05
6.22458e-05
6.31634e-05
5.97474e-05
5.4876e-05
5.06885e-05
4.832e-05
4.7537e-05
4.75252e-05
4.89596e-05
5.05942e-05
5.30754e-05
5.43251e-05
5.45415e-05
5.36724e-05
5.24749e-05
4.96724e-05
4.66029e-05
4.43599e-05
4.3589e-05
4.36045e-05
4.47131e-05
4.83786e-05
5.39955e-05
6.18426e-05
7.72067e-05
9.93849e-05
0.00011094
0.000114999
0.000116257
0.000116193
0.000115823
0.000116042
0.000112797
9.88352e-05
7.91889e-05
6.49102e-05
5.80559e-05
5.53915e-05
5.49554e-05
5.54084e-05
5.61431e-05
5.58211e-05
5.50544e-05
5.37321e-05
5.20763e-05
5.08425e-05
4.99584e-05
4.91911e-05
4.83545e-05
4.80732e-05
4.78973e-05
4.79145e-05
4.8349e-05
4.90882e-05
4.97656e-05
5.01903e-05
5.06465e-05
5.09273e-05
5.14119e-05
5.22692e-05
5.43638e-05
5.57776e-05
5.64547e-05
5.65239e-05
5.67599e-05
5.74357e-05
5.84244e-05
5.97325e-05
5.99039e-05
5.87763e-05
5.75709e-05
5.92889e-05
6.55173e-05
6.37602e-05
6.25141e-05
5.91054e-05
5.96667e-05
5.94665e-05
6.1459e-05
5.91981e-05
5.88519e-05
5.92944e-05
6.03321e-05
6.04093e-05
6.16389e-05
6.22334e-05
6.30777e-05
6.45026e-05
6.56968e-05
6.68467e-05
6.79206e-05
7.08542e-05
7.32973e-05
7.44155e-05
7.66772e-05
8.32255e-05
8.92489e-05
0.000102977
0.000113635
0.000121336
0.000128778
0.000127044
0.000134035
0.000132815
0.00013448
0.000130849
0.000132446
0.000126433
0.000128253
0.000126802
0.000131785
0.00012964
0.000129723
0.000128837
0.000126098
0.000123307
0.000115407
0.00011868
0.000113161
0.00011592
0.000108871
0.000110514
0.000109205
0.000107264
0.000118464
0.000113297
0.000121445
0.000125444
0.000130922
0.000122311
0.000135308
0.000153372
0.000146325
0.000144617
0.00014478
0.000143431
0.00014112
0.000151754
0.000180646
0.000197241
0.000173279
0.00017802
0.000221329
0.000235586
0.000247574
0.000236717
0.000210389
0.000196237
0.000189928
0.000189607
0.000176501
0.00019196
0.000296018
0.0001694
7.85611e-05
4.48167e-05
3.82635e-05
3.87245e-05
4.95591e-05
5.83602e-05
5.79641e-05
5.29609e-05
5.15231e-05
4.92025e-05
4.6378e-05
4.5505e-05
4.54215e-05
4.51557e-05
4.50989e-05
4.47023e-05
4.3942e-05
4.36579e-05
4.38934e-05
4.48851e-05
4.7323e-05
4.99473e-05
5.12456e-05
5.21794e-05
5.47482e-05
5.86682e-05
6.30949e-05
6.67201e-05
6.8652e-05
6.87056e-05
6.36185e-05
5.5873e-05
5.11996e-05
4.93477e-05
4.90099e-05
4.99419e-05
5.15697e-05
5.46255e-05
5.63952e-05
5.69059e-05
5.62041e-05
5.38223e-05
4.89158e-05
4.48201e-05
4.35003e-05
4.36027e-05
4.45506e-05
4.72024e-05
5.42453e-05
6.67528e-05
8.5679e-05
0.000103601
0.000110485
0.000112418
0.000112205
0.000109707
0.000105995
9.98928e-05
8.88883e-05
7.38989e-05
6.18927e-05
5.56161e-05
5.32347e-05
5.27165e-05
5.32287e-05
5.36033e-05
5.33118e-05
5.26389e-05
5.15241e-05
5.01565e-05
4.89922e-05
4.82248e-05
4.75303e-05
4.63797e-05
4.56272e-05
4.52502e-05
4.48855e-05
4.48552e-05
4.55633e-05
4.62923e-05
4.71395e-05
4.76872e-05
4.81128e-05
4.82001e-05
4.78583e-05
4.76866e-05
4.85701e-05
5.11449e-05
5.3068e-05
5.37202e-05
5.45231e-05
5.55987e-05
5.66917e-05
5.74491e-05
5.75422e-05
5.81962e-05
5.73298e-05
5.84895e-05
6.16441e-05
6.40495e-05
6.32944e-05
6.02086e-05
6.02397e-05
5.82339e-05
6.04845e-05
5.7697e-05
5.72348e-05
5.70554e-05
5.85314e-05
5.75528e-05
5.91603e-05
5.90467e-05
6.08551e-05
6.13789e-05
6.27571e-05
6.36969e-05
6.48264e-05
6.66265e-05
6.90268e-05
6.92907e-05
7.25541e-05
7.48129e-05
7.99182e-05
8.51712e-05
0.000100165
0.000104141
0.000118987
0.00012349
0.000130741
0.000132504
0.000133109
0.000128863
0.000128599
0.000124271
0.00012638
0.000122719
0.000123771
0.000120334
0.000118472
0.000119228
0.000114483
0.000111012
0.000102797
0.000105779
0.000102145
0.000103709
0.000102549
0.000103909
0.000102199
0.000102999
0.000116388
0.000110625
0.000111869
0.000115236
0.00012168
0.000125972
0.000128861
0.000148781
0.000145266
0.000139202
0.000138133
0.000142193
0.00013982
0.000140654
0.000163293
0.000183578
0.000168098
0.000163592
0.000196557
0.000220967
0.000235285
0.000230657
0.000216531
0.000198224
0.000192262
0.000187293
0.000173095
0.000181478
0.000306914
0.000181024
8.47821e-05
4.5822e-05
3.75341e-05
4.13625e-05
5.46117e-05
5.7897e-05
5.46754e-05
5.00238e-05
4.81684e-05
4.49888e-05
4.34326e-05
4.31451e-05
4.34442e-05
4.4137e-05
4.44837e-05
4.47268e-05
4.43718e-05
4.41002e-05
4.41348e-05
4.50629e-05
4.75653e-05
5.06976e-05
5.17834e-05
5.17205e-05
5.23373e-05
5.43151e-05
5.84106e-05
6.42349e-05
6.99418e-05
7.22823e-05
7.24084e-05
6.79842e-05
5.93805e-05
5.27044e-05
5.01882e-05
4.97375e-05
5.03015e-05
5.28185e-05
5.63654e-05
5.87296e-05
5.89779e-05
5.87134e-05
5.49851e-05
4.69168e-05
4.38418e-05
4.33571e-05
4.38393e-05
4.62121e-05
5.40176e-05
6.93143e-05
9.00346e-05
0.000102236
0.000106285
0.000106609
0.000103969
9.701e-05
8.9105e-05
8.07788e-05
6.95071e-05
5.84407e-05
5.31507e-05
5.12418e-05
5.09728e-05
5.14503e-05
5.15421e-05
5.11261e-05
5.03831e-05
4.96081e-05
4.88526e-05
4.77964e-05
4.69397e-05
4.62102e-05
4.49751e-05
4.36206e-05
4.30331e-05
4.26804e-05
4.25342e-05
4.3102e-05
4.4127e-05
4.5361e-05
4.66983e-05
4.76115e-05
4.83905e-05
4.87387e-05
4.87135e-05
4.78352e-05
4.72856e-05
4.76327e-05
5.01062e-05
5.20177e-05
5.28662e-05
5.46894e-05
5.55592e-05
5.62799e-05
5.6518e-05
5.71839e-05
5.69625e-05
5.76111e-05
5.87817e-05
6.17575e-05
6.28476e-05
6.13617e-05
6.06139e-05
5.95969e-05
6.06722e-05
5.85484e-05
5.76615e-05