/*--------------------------------*- C++ -*----------------------------------*\
| =========                 |                                                 |
| \\      /  F ield         | OpenFOAM: The Open Source CFD Toolbox           |
|  \\    /   O peration     | Version:  dev                                   |
|   \\  /    A nd           | Web:      http://www.openfoam.org               |
|    \\/     M anipulation  |                                                 |
\*---------------------------------------------------------------------------*/
FoamFile
{
    version     2.0;
    format      ascii;
    class       volScalarField;
    object      p_0;
    location    "9.125";
}
// * * * * * * * * * * * * * * * * * * * * * * * * * * * * * * * * * * * * * //

dimensions      [1 -1 -2 0 0 0 0];

internalField   nonuniform List<scalar> 
12225
(
108547
108425
108265
108077
107864
107640
107410
107195
106989
106815
106659
106548
106449
106424
106384
106423
106480
106506
108524
108405
108246
108059
107845
107621
107392
107177
106971
106798
106640
106531
106433
106402
106365
106414
106457
106644
108477
108361
108203
108016
107801
107579
107352
107137
106932
106759
106603
106491
106400
106358
106331
106375
106442
106623
108397
108284
108128
107941
107728
107507
107282
107068
106866
106692
106539
106424
106335
106290
106262
106299
106345
106463
108274
108162
108012
107825
107617
107398
107177
106963
106765
106590
106441
106324
106242
106188
106187
106187
106227
106389
108099
107991
107842
107660
107455
107239
107021
106811
106616
106444
106299
106182
106105
106050
106046
106044
106145
106260
107859
107754
107610
107431
107232
107019
106808
106601
106414
106243
106105
105990
105916
105862
105860
105870
105951
106039
107586
107484
107345
107170
106979
106770
106567
106364
106180
106017
105884
105774
105701
105650
105644
105658
105718
105786
107291
107193
107055
106889
106702
106502
106301
106108
105930
105774
105645
105540
105468
105422
105410
105424
105467
105525
106903
106809
106679
106520
106340
106148
105956
105772
105603
105453
105330
105231
105162
105119
105104
105117
105146
105187
106390
106305
106185
106034
105863
105683
105501
105329
105171
105032
104916
104826
104760
104721
104705
104714
104734
104766
105723
105646
105537
105398
105240
105073
104907
104749
104606
104479
104375
104295
104237
104203
104188
104194
104211
104236
104864
104792
104694
104571
104429
104282
104135
103997
103870
103763
103673
103607
103561
103535
103526
103531
103549
103574
103754
103694
103612
103508
103389
103265
103143
103029
102927
102842
102775
102726
102696
102683
102684
102697
102718
102747
102355
102309
102244
102164
102074
101980
101889
101807
101736
101680
101640
101616
101608
101614
101632
101658
101691
101729
100633
100597
100555
100503
100447
100390
100338
100295
100263
100244
100239
100247
100268
100300
100341
100389
100441
100496
98569.5
98546.4
98529.3
98511.5
98494.7
98481.8
98475.7
98478.9
98493.1
98519
98556.6
98605
98663.1
98729.3
98801.7
98878.4
98957.5
99037.6
96346
96357
96368.6
96385.1
96408.4
96440.4
96482.1
96534.2
96597.3
96671.2
96754.8
96847.1
96946.6
97051.3
97159.6
97269.5
97379.6
97489.2
94399.6
94414.3
94443.5
94486.3
94542.7
94612.3
94695.1
94790
94896
95012
95136.7
95268.3
95405
95545.1
95686.6
95827.6
95966.9
96103.9
92829.4
92846.9
92888.4
92950.9
93031.7
93130.1
93244.1
93372.5
93512.7
93662.6
93820
93983.3
94150.3
94319
94487.6
94654.3
94817.8
94977.3
91591.6
91612.2
91662.9
91739.8
91839.3
91959
92096.7
92250
92416.3
92592.4
92775.6
92963.7
93154.4
93345.8
93535.9
93723
93905.8
94083.3
90630.2
90657.5
90716.3
90804.5
90918.2
91054.1
91209.4
91381.2
91566.7
91762.5
91965.5
92172.6
92381.6
92590.4
92797.2
93000
93197.8
93389.3
89905.4
89936.3
90000.9
90097.2
90221.1
90369.1
90537.4
90722.8
90922.2
91132.3
91349.8
91571.4
91794.3
92016.4
92235.7
92450.6
92659.7
92861.9
89374.1
89404.6
89471.4
89572.9
89704.2
89860.9
90039
90234.6
90444.3
90664.6
90892.3
91124.3
91357.5
91589.6
91818.3
92042.2
92259.7
92469.8
88994
89021.1
89088.8
89193.8
89330.4
89493.3
89678.2
89881.2
90098.5
90326.4
90561.4
90800.6
91041
91280.2
91515.8
91746.1
91969.7
92185.5
88732.3
88753.8
88820.8
88927.7
89067.7
89235
89424.9
89633.1
89855.7
90088.9
90329.3
90573.6
90819
91062.9
91303.3
91538.1
91765.9
91985.8
88554.5
88573.9
88640.3
88748.5
88890.8
89061.1
89254.3
89466
89692.3
89929.1
90173
90420.9
90669.7
90916.9
91160.3
91398
91628.8
91851.5
88441.7
88460
88526
88635.1
88779.2
88951.5
89146.8
89360.9
89589.4
89828.5
90074.7
90324.7
90575.7
90824.9
91070.2
91309.7
91542.2
91766.5
88377
88396.1
88461.6
88571.4
88716.5
88890
89086.8
89302.2
89532.1
89772.4
90019.8
90271.1
90523.2
90773.6
91019.8
91260.4
91493.8
91718.8
88353.2
88369.7
88434.9
88544.9
88690.4
88864.5
89061.8
89277.8
89508.2
89749.1
89997
90248.8
90501.4
90752.2
90998.8
91239.8
91473.6
91698.8
102138
102139
102141
102144
102149
102154
102160
102167
102173
102180
102188
102197
102207
102219
102232
102247
102264
102284
102307
102333
102362
102395
102431
102471
102515
102563
102616
102673
102735
102801
102872
102947
103027
103110
103197
103288
103382
103479
103579
103682
103786
103891
103998
104103
104207
104310
104411
104509
104605
104698
104785
104866
104941
105012
105076
105134
105184
105230
105268
105294
105311
105316
105313
105304
105290
105269
105240
105198
105152
105103
105051
104995
104935
104871
104806
104740
104675
104611
104548
104488
104430
104375
104323
104274
104228
104185
104145
104107
104073
104041
104012
103987
103965
103945
103928
103913
103901
103891
103883
103877
103871
103865
103860
103852
103841
103823
103798
103761
103711
103644
103559
103450
103317
103154
102959
102732
102471
102177
101847
101482
101078
100639
100167
99669.9
99154.4
98624.9
98082.3
97522.7
96940.9
96337.7
95715.2
95083.8
94430.6
93778.5
93133.4
92513.8
91912.5
91344.5
90811
90324.2
89885
89493.2
89150.6
88851.9
88592.7
88364.2
88160
87972.2
87798.5
87632.7
87471.9
87311.7
87152.4
86997.9
86844.6
86708.4
86591.5
86496.8
86427.4
86390.1
86396.7
86441.7
86535.2
86675.3
86856.4
87078.3
87327.1
87599.5
87877.3
88154.8
88441.6
88685.1
88883.7
89043.6
89184.4
89297.7
89396.4
89485.7
89561.8
89631.8
102238
102238
102239
102242
102246
102251
102256
102262
102268
102274
102280
102287
102295
102304
102315
102328
102343
102361
102381
102404
102430
102460
102493
102530
102570
102615
102664
102717
102775
102838
102904
102975
103050
103128
103210
103296
103386
103478
103572
103669
103767
103867
103969
104068
104167
104266
104362
104455
104545
104631
104712
104788
104859
104924
104984
105035
105081
105122
105155
105179
105194
105198
105192
105179
105158
105132
105097
105058
105011
104959
104904
104846
104784
104720
104655
104590
104526
104464
104402
104344
104289
104236
104187
104141
104098
104058
104022
103988
103956
103929
103904
103883
103864
103849
103836
103825
103817
103811
103808
103806
103806
103805
103803
103799
103792
103779
103758
103726
103680
103618
103538
103434
103305
103147
102957
102735
102478
102188
101863
101501
101102
100668
100198
99700.4
99186.5
98661.3
98123
97566.6
96987
96385.5
95765.2
95138.2
94484.8
93835.6
93192.2
92576
91976.6
91411.1
90878.8
90392.6
89954.6
89563.4
89221.8
88923.7
88664.5
88435.7
88231
88042.4
87866.9
87698.5
87537.2
87374.2
87213.6
87055.6
86899.2
86760.3
86642.8
86546.9
86476
86436.6
86447.8
86490.7
86585.7
86727.3
86907.9
87132.1
87380.2
87655.2
87931.1
88209.3
88489.5
88734
88931.2
89086.6
89227.3
89341
89443.9
89534.6
89609.9
89677.8
102435
102434
102433
102433
102435
102439
102443
102448
102452
102455
102458
102461
102465
102471
102478
102487
102497
102510
102526
102544
102565
102588
102615
102645
102679
102717
102758
102804
102854
102908
102967
103029
103094
103164
103237
103313
103392
103473
103557
103643
103731
103820
103910
103999
104089
104178
104263
104346
104425
104501
104571
104636
104696
104750
104799
104843
104880
104912
104937
104952
104960
104960
104950
104933
104909
104873
104828
104780
104726
104670
104610
104550
104488
104425
104362
104300
104239
104180
104124
104070
104019
103972
103929
103889
103853
103819
103789
103761
103737
103717
103699
103685
103675
103667
103662
103659
103658
103660
103665
103671
103678
103685
103690
103694
103694
103688
103675
103652
103615
103563
103491
103398
103278
103129
102949
102737
102491
102211
101896
101542
101151
100725
100265
99770.4
99257.9
98738
98207
97656.5
97081
96483.3
95871.8
95245.8
94596.2
93952.5
93311.1
92703
92107.9
91546.4
91020.1
90534.2
90097.1
89707.2
89367.2
89069.7
88810.9
88580.7
88374.3
88182.4
88005.3
87832.9
87667.8
87501.3
87335.7
87170.1
87014.5
86871.2
86745.1
86649.5
86576.5
86537.9
86544.4
86591.4
86688.8
86830.7
87014.6
87239.8
87493.9
87770.3
88043.6
88318.6
88593.4
88832.9
89024.1
89174.1
89318.8
89433.7
89545.5
89639.8
89715.6
89778.9
102727
102725
102721
102718
102717
102719
102722
102723
102723
102721
102719
102718
102717
102717
102718
102721
102726
102733
102742
102752
102765
102779
102796
102816
102840
102867
102897
102932
102970
103012
103058
103107
103160
103216
103275
103337
103401
103467
103536
103606
103678
103750
103824
103897
103971
104046
104117
104185
104250
104310
104366
104416
104461
104500
104535
104564
104588
104607
104616
104617
104613
104603
104587
104562
104527
104480
104426
104369
104311
104251
104191
104130
104070
104009
103949
103889
103832
103778
103726
103678
103634
103594
103559
103527
103499
103475
103455
103437
103423
103413
103406
103404
103404
103409
103414
103422
103433
103447
103462
103480
103498
103516
103531
103546
103557
103563
103561
103549
103524
103483
103423
103342
103236
103100
102933
102735
102506
102240
101938
101600
101223
100810
100364
99879.4
99369.5
98854.7
98333.9
97792
97223.6
96632.9
96022.2
95412.7
94766
94133.5
93496.8
92897.5
92306.3
91748.2
91232
90748.5
90313.5
89925
89587.7
89289
89030.2
88797.1
88589
88392.2
88209.1
88031.6
87860.3
87688.9
87514.7
87339.4
87178.6
87032.9
86900.3
86800.1
86723.6
86687
86694.5
86743.9
86844.9
86988.2
87175.1
87401.8
87658.9
87938
88212.2
88481.7
88749.9
88978.4
89159.9
89307.3
89458.8
89571.6
89690.8
89795.4
89876.7
89936.8
103106
103104
103098
103093
103089
103087
103085
103081
103075
103068
103061
103052
103043
103038
103034
103030
103027
103024
103022
103020
103021
103024
103029
103036
103047
103060
103076
103096
103119
103146
103175
103208
103244
103283
103324
103367
103412
103460
103509
103560
103611
103663
103715
103768
103821
103874
103926
103976
104022
104064
104101
104132
104158
104179
104195
104205
104209
104206
104195
104180
104160
104136
104109
104071
104022
103965
103905
103844
103783
103722
103660
103597
103536
103475
103416
103358
103304
103254
103209
103168
103131
103101
103075
103053
103036
103024
103016
103012
103011
103013
103020
103031
103046
103065
103086
103109
103134
103162
103193
103227
103260
103293
103324
103354
103380
103400
103413
103416
103406
103381
103337
103271
103180
103060
102910
102729
102515
102269
101987
101667
101311
100917
100489
100025
99525.7
99012.3
98496.9
97967.3
97412.4
96833.3
96236.4
95627
94994.3
94380.5
93746.4
93167.6
92580.4
92020.7
91518.6
91032.8
90602
90211.7
89882
89580.3
89321.9
89084.3
88872.8
88670.3
88480.1
88292.3
88112.2
87934.1
87751
87565.4
87388
87238.7
87101
86993.7
86914.8
86879.9
86892
86944.2
87050.6
87196.5
87386.3
87614.4
87870.9
88149.4
88429.9
88696.5
88956.5
89170.2
89337.3
89490.9
89642.5
89751.4
89871.7
89990.7
90083.1
90145.9
103562
103559
103553
103546
103540
103533
103524
103512
103498
103482
103467
103456
103444
103429
103414
103399
103382
103367
103352
103338
103326
103315
103306
103299
103294
103291
103291
103294
103299
103306
103317
103329
103345
103362
103381
103403
103426
103450
103476
103504
103531
103559
103587
103615
103643
103670
103698
103724
103748
103767
103781
103790
103795
103795
103787
103771
103748
103719
103689
103654
103617
103577
103530
103475
103415
103351
103287
103223
103158
103092
103025
102958
102893
102830
102771
102717
102669
102626
102589
102557
102531
102511
102496
102486
102482
102483
102489
102500
102515
102533
102555
102581
102611
102645
102682
102724
102766
102812
102859
102911
102961
103012
103063
103109
103153
103192
103224
103246
103256
103251
103227
103181
103109
103009
102879
102717
102523
102297
102035
101737
101404
101037
100637
100200
99721.1
99213.1
98701.2
98183.5
97645.8
97082.8
96498.1
95902.4
95287.4
94685
94076.7
93499.6
92929.5
92378.3
91874.9
91396.1
90966.3
90568.5
90251.1
89940.2
89682.3
89435.9
89219.3
89010.4
88813.2
88615.8
88418.5
88229
88041.8
87849.8
87653.4
87493.9
87345.3
87234.3
87152.2
87117
87135.4
87191.3
87302.3
87453.2
87647.5
87875.9
88129.3
88405.7
88693.5
88960.7
89211.9
89412
89571.4
89726
89869.8
89975.9
90097.6
90231.8
90334.7
90403.1
104083
104080
104074
104065
104055
104041
104023
104004
103983
103963
103943
103920
103896
103868
103840
103813
103784
103755
103727
103698
103671
103645
103620
103597
103574
103554
103535
103518
103503
103489
103477
103466
103458
103451
103446
103442
103440
103438
103438
103438
103439
103439
103440
103441
103441
103441
103440
103438
103435
103427
103415
103398
103377
103350
103318
103276
103227
103173
103118
103061
103001
102939
102873
102804
102734
102663
102591
102517
102442
102367
102292
102220
102153
102092
102038
101991
101951
101916
101888
101866
101851
101841
101837
101839
101848
101862
101881
101907
101938
101974
102014
102058
102105
102156
102210
102271
102334
102400
102468
102537
102605
102676
102748
102814
102878
102937
102991
103037
103070
103088
103088
103066
103018
102943
102836
102699
102528
102324
102085
101811
101503
101162
100788
100384
99943.7
99460.8
98953.8
98441.2
97917
97377.8
96813.8
96233.5
95640.4
95050.2
94463.5
93897.9
93348.2
92809.5
92309.3
91838.1
91409.3
91013.8
90681.6
90367
90114.9
89853.9
89626.3
89407.6
89200.1
88999
88787.5
88580.2
88375.4
88181.2
87978.8
87803.9
87643.2
87524.3
87442
87404.1
87427.1
87485.9
87598.6
87753.8
87954.2
88186.7
88437.7
88710
89001.8
89273.5
89518.7
89707.5
89861.7
90012.1
90146.7
90252.6
90380.1
90525.2
90633.9
90709.8
104649
104646
104640
104629
104613
104591
104566
104539
104512
104486
104456
104422
104386
104348
104307
104265
104222
104178
104133
104089
104045
104003
103961
103919
103879
103839
103800
103761
103724
103687
103650
103614
103580
103546
103514
103484
103454
103424
103395
103366
103337
103309
103280
103250
103220
103189
103158
103126
103092
103055
103014
102970
102922
102867
102804
102734
102659
102579
102497
102414
102330
102246
102163
102080
101996
101911
101823
101735
101647
101563
101483
101411
101347
101291
101243
101201
101165
101136
101112
101097
101088
101087
101093
101106
101127
101154
101187
101227
101273
101326
101385
101450
101520
101595
101673
101754
101840
101928
102021
102111
102197
102289
102381
102469
102556
102637
102717
102786
102845
102889
102916
102921
102902
102854
102776
102667
102525
102348
102138
101890
101609
101294
100947
100574
100169
99729.8
99251.6
98751.9
98238.1
97714.2
97174.5
96615.6
96046.6
95476.2
94909.8
94357.9
93825.6
93309.9
92814.8
92351.7
91928
91534.6
91189.2
90870.4
90598.8
90335.6
90095
89865.1
89637.9
89435.6
89212.5
88991.2
88765.6
88560.1
88358.6
88167.4
87994.1
87862.9
87785.3
87745
87767.6
87830
87939.9
88100
88305
88544.5
88798.3
89066.5
89356.2
89633.1
89877.8
90056.9
90206
90354.2
90479.3
90585.8
90724.7
90875.8
90981.7
91063.7
105242
105239
105231
105217
105196
105169
105138
105107
105074
105037
104996
104952
104905
104854
104799
104742
104683
104622
104564
104505
104444
104384
104323
104262
104201
104140
104078
104017
103956
103894
103833
103771
103708
103647
103586
103525
103466
103406
103347
103288
103228
103168
103107
103046
102983
102920
102857
102793
102727
102658
102587
102513
102434
102348
102255
102156
102053
101948
101840
101732
101625
101520
101417
101314
101211
101106
101001
100898
100801
100711
100629
100558
100495
100439
100390
100346
100309
100279
100258
100247
100244
100252
100269
100295
100329
100369
100417
100471
100531
100597
100671
100754
100845
100943
101051
101160
101274
101389
101504
101627
101738
101855
101968
102081
102194
102297
102403
102495
102582
102653
102711
102744
102757
102740
102696
102618
102509
102364
102184
101968
101717
101434
101118
100775
100400
99999.1
99565.5
99102.1
98612.2
98106.3
97587.7
97051.1
96504.6
95958.2
95415.3
94882.2
94367.1
93871.3
93391.2
92936.5
92517.1
92122.1
91766.2
91437
91147.2
90875.7
90621
90378.4
90138.8
89919.5
89688.7
89455.4
89214.8
88989.7
88783.2
88582.2
88397.6
88251.6
88179.6
88142.9
88163.6
88228.8
88338.3
88496
88702.5
88948.9
89208.2
89473.7
89758.6
90037.9
90286.7
90459.7
90606.4
90753.8
90867.6
90983.8
91138.5
91288
91386.9
91473.1
105844
105839
105829
105811
105787
105756
105723
105687
105647
105601
105551
105496
105436
105373
105306
105235
105163
105089
105014
104937
104859
104779
104698
104615
104531
104446
104361
104276
104190
104103
104017
103928
103838
103747
103656
103565
103475
103384
103294
103203
103112
103019
102925
102831
102736
102640
102543
102445
102345
102243
102140
102033
101922
101804
101683
101556
101425
101292
101159
101027
100898
100770
100644
100518
100392
100268
100147
100034
99929.2
99834.3
99748.1
99670.6
99601.3
99538.3
99481.7
99433.2
99394.8
99367.7
99352.4
99348.9
99357
99376
99405.1
99443.3
99489.8
99544.1
99605.2
99673.3
99746.9
99825.6
99911.4
100005
100109
100221
100344
100480
100622
100767
100910
101064
101213
101360
101501
101644
101782
101917
102047
102169
102284
102385
102473
102538
102583
102600
102592
102550
102475
102367
102221
102042
101826
101576
101296
100983
100645
100278
99882.8
99462.1
99015
98541.9
98052.2
97544.1
97021.5
96501.2
95983.7
95473.2
94974.8
94495.2
94029.9
93584.1
93166.9
92768.9
92403.6
92062.9
91755.8
91471.3
91201.7
90947.4
90695
90459.6
90215.2
89973.6
89719.4
89472.5
89253
89043.2
88860.6
88700.8
88626.5
88602
88620.7
88687
88797.1
88948.8
89152
89400.8
89664.5
89931.1
90210.5
90488.3
90742.3
90911.7
91062
91207.8
91320.4
91452.6
91615.2
91754.7
91851
91944.4
106439
106432
106419
106399
106371
106339
106303
106262
106215
106162
106103
106038
105968
105892
105814
105731
105645
105556
105464
105370
105274
105176
105075
104971
104863
104754
104643
104532
104420
104308
104195
104080
103963
103843
103721
103600
103478
103357
103235
103113
102989
102863
102737
102609
102481
102352
102221
102088
101953
101818
101682
101543
101399
101251
101099
100944
100786
100627
100469
100312
100158
100004
99852.7
99702.5
99555.3
99414
99281.1
99158.7
99046.7
98943.3
98847.8
98759.3
98678
98605
98542.5
98492.7
98456.8
98435.4
98428.1
98433.7
98451
98478
98513.9
98558.9
98613.5
98677.6
98750.7
98833
98922.9
99018.5
99119.1
99225.4
99340.7
99466.3
99598.3
99743.4
99905.1
100076
100251
100432
100616
100797
100971
101145
101312
101484
101641
101800
101946
102083
102202
102304
102382
102437
102464
102462
102423
102356
102247
102107
101932
101716
101479
101200
100899
100569
100212
99829.9
99429.2
98996.2
98546.6
98079.2
97590.6
97100.2
96611
96124.7
95645.1
95177
94722.2
94282.1
93865.4
93464.5
93090.2
92738.4
92416.1
92118.6
91835.4
91570.2
91308.1
91056.3
90796.6
90547.3
90279.7
90010
89771
89551.9
89379.9
89215.8
89132.1
89125.1
89139.8
89205.1
89314.1
89461.3
89659.4
89905.6
90168.8
90439.3
90713.5
90987.2
91240.5
91409.4
91568.7
91717.4
91840.5
91984.8
92146.8
92276.5
92378.5
92480.5
107011
107004
106989
106968
106941
106908
106868
106821
106767
106707
106639
106564
106484
106398
106307
106211
106110
106006
105898
105787
105673
105557
105437
105313
105186
105054
104918
104781
104643
104504
104364
104222
104077
103928
103777
103625
103473
103321
103168
103014
102859
102701
102543
102383
102222
102060
101896
101729
101561
101392
101224
101053
100878
100699
100517
100332
100147
99961.3
99777.4
99595.6
99415.6
99237.8
99062.7
98891.5
98725.7
98567.8
98421.2
98286.9
98163
98047
97938.4
97837
97744.4
97665
97600.1
97550.9
97518
97500.9
97497.8
97506.2
97524.6
97551.8
97588.1
97635.3
97695.2
97767
97849
97941.5
98044.9
98157.1
98276.9
98402.2
98533.3
98674
98823.3
98979.3
99152.3
99338.3
99537.2
99744.6
99958.1
100171
100383
100589
100789
100994
101187
101380
101563
101740
101894
102038
102153
102248
102314
102350
102351
102325
102259
102160
102028
101857
101658
101425
101161
100872
100555
100212
99855
99466.3
99060.5
98636.4
98190.1
97734.4
97277.2
96816.7
96357.3
95901
95454.1
95017.6
94600.9
94198.9
93818.2
93457.4
93122.3
92813.1
92519.1
92244.3
91973
91707
91438.1
91176.2
90897.2
90605.6
90341.5
90114.5
89951.3
89792.2
89714.1
89710.9
89718.8
89779
89888.8
90035.7
90228.5
90468.2
90726.3
90999.8
91266.3
91536.6
91782.2
91953
92124.7
92282.9
92416.2
92574.6
92734.9
92858.3
92972.7
93082.7
107545
107537
107521
107499
107471
107437
107395
107344
107284
107217
107142
107059
106969
106872
106769
106660
106544
106425
106302
106175
106046
105912
105774
105631
105483
105331
105174
105014
104850
104685
104519
104351
104178
104001
103821
103639
103458
103275
103092
102908
102722
102534
102345
102153
101960
101766
101569
101371
101172
100973
100772
100570
100365
100156
99944.4
99731.6
99518.5
99306.6
99096.8
98889.7
98685.5
98484.7
98288.7
98099
97917.4
97745
97583
97431.6
97290.4
97158.2
97035.2
96922.7
96823.9
96742
96676.4
96626.2
96591.7
96572.4
96566.2
96570.9
96586
96612.1
96649.6
96700.2
96766.3
96847.1
96939.7
97041
97151.1
97270.3
97399
97539.3
97687.6
97845.2
98012.7
98188.1
98374.6
98575
98788.1
99015.9
99252.9
99495.7
99740.8
99980.4
100220
100456
100690
100917
101139
101356
101552
101735
101893
102029
102136
102213
102258
102272
102252
102199
102108
101989
101830
101646
101426
101182
100908
100609
100295
99951.7
99589.4
99208.6
98806.4
98389.3
97967
97533.8
97095.1
96653.1
96215.7
95784.1
95367.3
94965.4
94581.9
94215.8
93871.8
93554.2
93251.1
92967.1
92688.8
92411.4
92138.7
91860.7
91569.5
91261
90975
90736.9
90580.8
90431.4
90370.8
90367.4
90364.6
90418.6
90530.6
90677
90862.6
91090.6
91338.7
91609.9
91867.8
92135.6
92366.1
92541.9
92731
92900
93047.9
93223.2
93377.5
93499.9
93629
93745
108025
108015
107999
107977
107947
107912
107868
107814
107750
107678
107597
107507
107409
107303
107190
107069
106942
106809
106671
106530
106385
106236
106081
105920
105752
105578
105400
105219
105033
104843
104652
104461
104261
104056
103849
103640
103430
103218
103006
102793
102578
102362
102143
101922
101698
101474
101248
101020
100791
100563
100334
100102
99866.9
99629.5
99390.5
99150.9
98911.7
98674.2
98439.5
98208.2
97980.9
97758.4
97541.8
97332.7
97133.5
96945.5
96768.1
96599.9
96440.7
96292.8
96158.4
96039.8
95937.3
95850.9
95781
95726.1
95685.1
95657.4
95643.2
95642.8
95656.2
95685.3
95729.6
95786.2
95854.8
95937.3
96034.9
96146.2
96265.2
96392.1
96525.5
96669.7
96825.3
96994.3
97176.7
97370.3
97574.1
97790.5
98020.8
98262.5
98518.5
98785.6
99056.8
99330.7
99607.5
99879
100153
100416
100678
100932
101174
101397
101601
101780
101930
102052
102142
102200
102225
102220
102174
102104
101995
101859
101689
101493
101268
101017
100746
100450
100131
99795.3
99434.8
99057.3
98669.2
98265
97851.2
97427.3
97002.5
96580.9
96165.6
95765.6
95380.3
95011.6
94663.9
94341.4
94029.8
93741.3
93456.5
93169.5
92894.5
92599
92289
91974.8
91677.8
91430.5
91280.3
91149.5
91107
91105.1
91089.3
91138
91247.4
91387.3
91562.9
91773.9
92007.4
92268
92522.2
92782.2
92991.6
93179.9
93389.1
93559.7
93737.1
93922.6
94067.7
94199.9
94344.1
94464.4
108434
108425
108409
108388
108359
108322
108276
108219
108153
108077
107991
107896
107792
107679
107557
107427
107290
107146
106996
106841
106682
106517
106346
106167
105981
105788
105591
105390
105184
104974
104761
104542
104317
104088
103856
103622
103388
103151
102911
102670
102429
102186
101939
101691
101440
101188
100935
100679
100424
100168
99912.3
99653.7
99391.9
99128.2
98863.4
98598.7
98335.1
98073.9
97816
97562.4
97313.7
97070.7
96834.5
96606
96387.2
96180.2
95985.4
95802.1
95629.9
95470.7
95327.2
95201.4
95091.9
94997.3
94918.6
94855.3
94806.7
94772
94752.3
94749
94761.2
94789.6
94836
94895.5
94963.3
95039.8
95131.3
95247.3
95370.9
95504.9
95647.8
95800.4
95964.9
96141.9
96334
96540.6
96760.5
96992.1
97237.1
97494.6
97767.5
98053.5
98347.2
98652.1
98961.8
99272.2
99582.8
99886
100185
100476
100761
101027
101277
101501
101697
101864
102002
102106
102178
102221
102225
102204
102149
102062
101945
101801
101629
101429
101205
100960
100687
100396
100077
99739.9
99385.9
99012.1
98627
98224.8
97816.2
97406.3
96996.4
96602.1
96214.9
95845.4
95498.4
95171.2
94856.1
94565.7
94273.4
93982.7
93703.7
93389.3
93058.8
92746.6
92451
92207.9
92071
91958.1
91925.2
91923.7
91891.6
91935.5
92041.3
92165.7
92327
92518.1
92734.4
92978.2
93231.7
93476.7
93666.9
93876.9
94092.3
94261.1
94478.1
94668.6
94812.7
94954.5
95112.4
95235.6
108755
108747
108733
108712
108685
108648
108601
108543
108476
108399
108310
108211
108102
107983
107853
107719
107575
107422
107263
107097
106925
106746
106558
106364
106162
105953
105740
105522
105299
105070
104835
104594
104346
104094
103840
103585
103329
103071
102808
102542
102274
102007
101737
101464
101188
100911
100631
100353
100074
99794.1
99514.1
99231.5
98945.9
98658.5
98370.7
98083.3
97797.4
97514.4
97235.2
96961
96692.4
96430.4
96176.3
95930.9
95695.2
95470.2
95257.1
95057.5
94872.5
94702.4
94548.4
94411.3
94291.4
94187.8
94100.6
94029.6
93973.5
93933.2
93909.6
93903.2
93912.2
93935.8
93976.1
94032
94102.7
94177.9
94267.7
94375.2
94496.7
94631
94777.5
94936.7
95109.2
95295.6
95496.6
95713.1
95943.6
96188.4
96446
96718.8
97008.9
97312.5
97630.5
97961.1
98299.5
98645
98988.9
99332.4
99669.7
99999
100322
100630
100923
101194
101438
101651
101837
101989
102109
102201
102259
102287
102286
102251
102191
102099
101982
101837
101668
101473
101251
101006
100733
100438
100119
99778.4
99422.7
99043.6
98656.5
98258.8
97859.4
97472
97083.4
96717
96369.8
96037.9
95726.7
95433.7
95135.9
94847
94559.4
94229.3
93887.4
93579.1
93298.6
93086.2
92964.2
92866.5
92824.3
92814.5
92768
92803.3
92909
93011.6
93154.1
93322.4
93520.4
93745.1
93991.6
94222.9
94405
94632.2
94833.5
95016.7
95265.8
95459
95605.7
95762.8
95935.8
96059.2
108973
108966
108953
108934
108908
108874
108829
108773
108706
108629
108541
108441
108330
108210
108080
107937
107786
107627
107460
107285
107101
106909
106708
106501
106286
106065
105839
105608
105369
105123
104870
104610
104340
104071
103802
103529
103253
102974
102689
102404
102116
101827
101536
101243
100946
100648
100348
100047
99745.5
99444.3
99142.7
98839.8
98534.2
98226.7
97918.6
97611.2
97305.7
97003
96704.6
96411.4
96124.5
95844.8
95573.6
95312.5
95062.1
94822.6
94594.5
94379.2
94178.9
93994.7
93827.4
93677.9
93547
93434.8
93340.6
93263.4
93201.6
93155.1
93124.3
93111.8
93115.9
93133.6
93166.4
93217.7
93285.5
93364.2
93456.9
93563.7
93682
93812.2
93956.4
94115.7
94289.3
94477.9
94682.8
94904.5
95141.6
95393.4
95661.4
95948
96253.5
96575.7
96917.1
97272
97639.3
98012.8
98387.9
98767.1
99140.4
99508.6
99867.9
100216
100549
100863
101154
101415
101648
101849
102019
102161
102272
102352
102404
102424
102420
102384
102324
102236
102124
101982
101814
101619
101394
101145
100864
100561
100233
99880.6
99517
99133.2
98748.7
98367.2
97982.5
97622
97269.7
96939.4
96634.6
96334.7
96041.7
95754.4
95455
95115.6
94776.5
94479.2
94229.7
94063.8
93946.1
93860.7
93797.8
93765.6
93708.4
93729.4
93825.4
93912.9
94038.9
94182.8
94361.8
94566.1
94799.3
95021.6
95212
95435.7
95620.1
95838.9
96102.2
96290.3
96442.7
96627.3
96811.5
96934.4
109072
109067
109055
109039
109016
108986
108947
108896
108832
108757
108671
108572
108461
108339
108206
108063
107909
107745
107572
107389
107197
106997
106788
106572
106349
106120
105884
105641
105389
105127
104856
104581
104302
104019
103735
103446
103155
102859
102558
102255
101950
101645
101338
101028
100715
100399
100081
99763
99443.7
99123.7
98803.3
98482.7
98160.6
97836.7
97511.8
97187.4
96864.9
96545.4
96230.1
95920.2
95616.7
95320.6
95033.2
94756.3
94491.5
94238.6
93997.7
93769.1
93554.6
93356.2
93175.3
93013.5
92872.5
92752.6
92651.7
92567.5
92499.2
92446.3
92408
92387
92384.1
92397.6
92425.1
92469.7
92530.6
92604.9
92693.9
92797.2
92912.4
93039.9
93181.7
93338.3
93510.9
93700.7
93908.4
94131.8
94371.4
94627.9
94903.6
95201.7
95521.5
95863.5
96224.3
96600.7
96992.2
97390.3
97794.9
98202.8
98608.9
99012.4
99405.8
99791
100161
100517
100851
101159
101439
101690
101911
102103
102265
102397
102503
102579
102631
102652
102652
102622
102566
102481
102369
102226
102053
101851
101613
101349
101052
100729
100390
100025
99655.7
99279.1
98904.6
98549.3
98192.5
97873.9
97570.9
97268.5
96984.6
96696.5
96385.1
96046.5
95726
95455.5
95243.4
95119.7
94999.6
94919.6
94833
94765.3
94699.6
94706
94772.6
94851.6
94967.1
95090.7
95250.5
95434.5
95654.2
95872.3
96075.3
96284.6
96467.2
96724.3
96985.3
97160.5
97338.9
97552.8
97736.3
97846.1
109044
109042
109032
109020
109002
108978
108944
108899
108842
108771
108688
108592
108483
108363
108230
108086
107931
107765
107589
107404
107209
107007
106796
106576
106348
106114
105871
105618
105357
105086
104808
104525
104238
103948
103653
103354
103051
102745
102432
102119
101805
101487
101169
100849
100526
100199
99869.2
99538.4
99207.2
98874.7
98540.9
98206.9
97872.8
97537.5
97201.1
96864.8
96530.2
96198.6
95870.6
95547.9
95231.6
94922.8
94622.9
94333.1
94055.1
93790.1
93538
93299
93074.1
92864.8
92673.5
92501.6
92351.9
92223.6
92115.6
92024.9
91950.1
91890.2
91844.7
91816.5
91807.2
91815.2
91838.4
91877.1
91930.6
91997.2
92078.9
92174.8
92283.2
92405.5
92543.3
92696.5
92866.2
93053.8
93259.3
93481.2
93720.4
93980
94262.5
94569.4
94901.4
95256.9
95631.8
96023.9
96431
96847.7
97273.2
97702.2
98134
98563.2
98986.1
99400.6
99802.7
100193
100564
100913
101235
101530
101795
102032
102240
102421
102576
102704
102807
102884
102938
102962
102962
102930
102873
102780
102660
102501
102307
102083
101818
101529
101212
100870
100517
100150
99789.2
99435.7
99083.8
98784.9
98478.8
98184.8
97910.8
97619.7
97303.6
96984
96696.3
96467.1
96289.1
96189.7
96075.1
95989.9
95883.4
95779.9
95709.9
95703
95729.3
95798.2
95904.6
96017.4
96161.6
96329.9
96539.4
96758.2
96966.3
97170.7
97366.6
97653.6
97901
98072
98288.9
98526.7
98701.8
98786.7
108959
108959
108950
108945
108935