/*--------------------------------*- C++ -*----------------------------------*\
| =========                 |                                                 |
| \\      /  F ield         | OpenFOAM: The Open Source CFD Toolbox           |
|  \\    /   O peration     | Version:  dev                                   |
|   \\  /    A nd           | Web:      http://www.openfoam.org               |
|    \\/     M anipulation  |                                                 |
\*---------------------------------------------------------------------------*/
FoamFile
{
    version     2.0;
    format      ascii;
    class       surfaceScalarField;
    object      phi;
    location    "9.125";
}
// * * * * * * * * * * * * * * * * * * * * * * * * * * * * * * * * * * * * * //

dimensions      [1 0 -1 0 0 0 0];

internalField   nonuniform List<scalar> 
24170
(
2.81663e-06
2.94904e-06
2.57375e-06
2.21192e-06
2.80164e-06
1.64555e-06
3.2044e-06
1.3575e-06
3.63212e-06
1.21595e-06
4.06843e-06
1.08057e-06
4.35592e-06
1.10761e-06
4.74161e-06
8.86209e-07
4.89003e-06
1.00782e-06
5.27107e-06
6.61365e-07
5.22953e-06
9.81015e-07
5.78683e-06
2.83402e-07
5.32677e-06
1.20806e-06
6.56974e-06
-5.67024e-07
5.59501e-06
1.55722e-06
6.53668e-06
-4.10581e-07
7.83785e-06
-8.29305e-07
6.02633e-08
8.20977e-06
4.69168e-06
4.71199e-06
4.8739e-06
4.21519e-06
5.18992e-06
3.42069e-06
5.43794e-06
3.08042e-06
5.85824e-06
2.639e-06
6.22617e-06
2.41799e-06
6.63801e-06
2.26698e-06
7.01813e-06
1.94075e-06
7.3844e-06
1.94992e-06
7.83878e-06
1.38519e-06
8.03692e-06
1.85135e-06
8.84105e-06
4.36581e-07
8.68011e-06
2.22295e-06
1.02117e-05
-1.31539e-06
9.9608e-06
2.47377e-06
1.17712e-05
-1.61277e-06
9.04876e-06
2.46764e-06
-4.29545e-06
1.39784e-05
5.49662e-06
6.23498e-06
6.27301e-06
5.84697e-06
6.95711e-06
5.03998e-06
7.40158e-06
4.80205e-06
7.88558e-06
4.18105e-06
8.34292e-06
3.8332e-06
8.72575e-06
3.61419e-06
9.33621e-06
2.90707e-06
9.4714e-06
3.25686e-06
1.03554e-05
1.79849e-06
1.01431e-05
3.24124e-06
1.13319e-05
2.99694e-07
1.08371e-05
3.66758e-06
1.1783e-05
-1.42223e-06
1.15601e-05
3.43901e-06
1.30317e-05
-2.40652e-06
1.11507e-05
4.97992e-06
-4.8009e-06
1.21624e-05
5.88994e-06
8.26875e-06
7.26007e-06
7.11351e-06
8.06164e-06
6.76385e-06
9.11678e-06
6.11313e-06
9.56523e-06
5.94798e-06
1.04833e-05
4.95845e-06
1.06941e-05
5.28991e-06
1.16349e-05
3.68558e-06
1.15891e-05
4.87441e-06
1.24128e-05
2.38886e-06
1.21124e-05
4.82338e-06
1.29755e-05
5.80731e-07
1.26295e-05
5.04612e-06
1.32726e-05
-1.1482e-06
1.27903e-05
4.74151e-06
1.52254e-05
-4.11806e-06
1.25331e-05
8.3003e-06
-6.53663e-06
1.48789e-05
6.157e-06
1.07946e-05
7.992e-06
8.15125e-06
8.70433e-06
8.81025e-06
1.01513e-05
7.24327e-06
1.06257e-05
7.89131e-06
1.1705e-05
6.11052e-06
1.18903e-05
7.16201e-06
1.28406e-05
4.61231e-06
1.29111e-05
6.51572e-06
1.35632e-05
3.28105e-06
1.36001e-05
6.18047e-06
1.40485e-05
1.38006e-06
1.41722e-05
6.04792e-06
1.41729e-05
-1.48347e-07
1.42289e-05
5.59885e-06
1.53826e-05
-4.48907e-06
1.71083e-05
7.24769e-06
-5.55093e-06
1.67841e-05
6.75402e-06
1.34795e-05
8.40993e-06
9.61918e-06
9.1114e-06
1.11056e-05
1.05905e-05
8.56246e-06
1.11893e-05
9.91788e-06
1.23292e-05
7.39385e-06
1.26859e-05
9.0375e-06
1.36205e-05
5.71438e-06
1.39452e-05
8.04772e-06
1.46996e-05
4.20012e-06
1.50261e-05
7.36442e-06
1.53278e-05
2.42911e-06
1.6019e-05
6.57668e-06
1.5778e-05
1.17509e-06
1.71151e-05
5.24081e-06
1.52864e-05
-1.80604e-06
1.85643e-05
4.73149e-06
-3.45114e-06
1.71692e-05
7.66845e-06
1.61748e-05
9.16309e-06
1.14972e-05
1.01442e-05
1.33572e-05
1.15866e-05
1.01348e-05
1.23873e-05
1.19464e-05
1.35537e-05
8.83917e-06
1.4258e-05
1.07393e-05
1.49879e-05
7.17722e-06
1.56681e-05
9.3678e-06
1.61502e-05
5.51686e-06
1.69773e-05
8.16469e-06
1.68548e-05
4.00391e-06
1.7986e-05
6.75363e-06
1.75341e-05
2.78916e-06
1.87444e-05
5.06786e-06
1.6993e-05
8.64822e-07
1.91068e-05
3.45142e-06
6.17843e-07
1.57715e-05
6.03957e-06
1.8116e-05
7.19785e-06
1.29089e-05
8.0792e-06
1.49324e-05
9.06662e-06
1.14426e-05
9.80035e-06
1.33653e-05
1.05428e-05
1.00881e-05
1.12425e-05
1.18688e-05
1.1657e-05
8.42955e-06
1.2342e-05
1.01959e-05
1.25049e-05
6.71799e-06
1.32139e-05
8.68659e-06
1.30338e-05
5.28311e-06
1.38057e-05
6.96858e-06
1.33453e-05
4.12805e-06
1.40782e-05
5.11399e-06
1.3061e-05
2.57167e-06
1.37509e-05
3.37674e-06
2.06158e-06
1.28598e-05
7.18066e-06
2.03136e-05
8.41921e-06
1.45843e-05
9.53881e-06
1.65907e-05
1.05381e-05
1.30472e-05
1.14887e-05
1.48545e-05
1.22354e-05
1.15983e-05
1.30807e-05
1.3084e-05
1.35492e-05
9.84429e-06
1.43188e-05
1.11286e-05
1.44785e-05
8.09682e-06
1.52506e-05
9.29755e-06
1.50975e-05
6.6734e-06
1.57543e-05
7.41953e-06
1.54342e-05
5.43496e-06
1.5908e-05
5.50972e-06
1.51492e-05
4.10154e-06
1.5494e-05
3.71627e-06
3.15191e-06
1.50215e-05
8.31721e-06
2.25477e-05
9.57175e-06
1.66097e-05
1.10511e-05
1.82306e-05
1.20614e-05
1.49623e-05
1.3363e-05
1.62886e-05
1.41249e-05
1.33584e-05
1.52701e-05
1.42388e-05
1.57076e-05
1.15091e-05
1.66321e-05
1.21006e-05
1.67417e-05
9.70237e-06
1.75915e-05
9.98552e-06
1.74366e-05
8.20075e-06
1.80607e-05
8.02158e-06
1.77827e-05
6.80085e-06
1.81186e-05
6.13645e-06
1.76891e-05
5.38612e-06
1.76234e-05
4.53633e-06
4.27183e-06
1.71782e-05
9.73929e-06
2.50192e-05
1.0939e-05
1.9045e-05
1.2676e-05
1.99352e-05
1.37828e-05
1.70977e-05
1.52934e-05
1.77899e-05
1.61598e-05
1.52676e-05
1.74113e-05
1.55189e-05
1.79667e-05
1.32605e-05
1.89507e-05
1.31969e-05
1.92222e-05
1.13133e-05
1.98845e-05
1.09976e-05
2.00113e-05
9.56878e-06
2.04125e-05
8.95347e-06
2.03802e-05
8.00769e-06
2.04296e-05
7.12809e-06
2.02683e-05
6.47207e-06
1.99702e-05
5.65306e-06
5.09812e-06
1.98653e-05
1.11218e-05
2.73404e-05
1.25216e-05
2.15891e-05
1.45798e-05
2.16107e-05
1.58024e-05
1.939e-05
1.75614e-05
1.9278e-05
1.85366e-05
1.72827e-05
1.99633e-05
1.68116e-05
2.06208e-05
1.5079e-05
2.16594e-05
1.43948e-05
2.19898e-05
1.29842e-05
2.26501e-05
1.21189e-05
2.2819e-05
1.09888e-05
2.32225e-05
9.95225e-06
2.33153e-05
9.15302e-06
2.33218e-05
8.2145e-06
2.32589e-05
7.49354e-06
2.30018e-05
6.76004e-06
6.16639e-06
2.26872e-05
1.29517e-05
2.99829e-05
1.45169e-05
2.41931e-05
1.67284e-05
2.33378e-05
1.82783e-05
2.15399e-05
2.01517e-05
2.08103e-05
2.13675e-05
1.91943e-05
2.27481e-05
1.82793e-05
2.36074e-05
1.68047e-05
2.45602e-05
1.57534e-05
2.51288e-05
1.44839e-05
2.57022e-05
1.33841e-05
2.60628e-05
1.22495e-05
2.62709e-05
1.11671e-05
2.64863e-05
1.01913e-05
2.64648e-05
9.33553e-06
2.63895e-05
8.52585e-06
2.62114e-05
7.77696e-06
7.14189e-06
2.59702e-05
1.51028e-05
3.19641e-05
1.69503e-05
2.657e-05
1.91844e-05
2.50985e-05
2.08815e-05
2.35777e-05
2.28205e-05
2.23004e-05
2.4276e-05
2.08813e-05
2.5771e-05
1.96353e-05
2.68444e-05
1.8292e-05
2.78527e-05
1.70367e-05
2.85846e-05
1.5787e-05
2.91772e-05
1.45786e-05
2.95731e-05
1.3423e-05
2.98206e-05
1.22942e-05
3.00054e-05
1.11961e-05
3.00319e-05
1.03329e-05
2.99347e-05
9.51321e-06
2.97325e-05
8.75019e-06
8.04627e-06
2.94893e-05
1.75933e-05
3.39271e-05
1.98437e-05
2.83409e-05
2.22068e-05
2.65345e-05
2.42552e-05
2.50609e-05
2.61862e-05
2.36061e-05
2.78379e-05
2.21783e-05
2.93284e-05
2.08007e-05
3.05584e-05
1.94336e-05
3.15786e-05
1.8118e-05
3.23974e-05
1.68109e-05
3.30427e-05
1.55423e-05
3.34935e-05
1.43635e-05
3.37359e-05
1.32403e-05
3.37674e-05
1.21793e-05
3.37946e-05
1.1167e-05
3.36867e-05
1.03413e-05
3.34551e-05
9.58266e-06
8.89385e-06
3.31115e-05
1.9644e-05
3.50388e-05
2.2503e-05
2.89382e-05
2.52511e-05
2.70404e-05
2.76944e-05
2.56231e-05
2.98413e-05
2.41985e-05
3.16581e-05
2.28311e-05
3.32084e-05
2.14476e-05
3.44936e-05
2.00814e-05
3.55643e-05
1.87309e-05
3.64121e-05
1.74095e-05
3.7043e-05
1.61402e-05
3.75087e-05
1.49239e-05
3.78122e-05
1.37842e-05
3.79412e-05
1.27376e-05
3.78683e-05
1.17819e-05
3.77799e-05
1.085e-05
3.75865e-05
1.00932e-05
9.36871e-06
3.73359e-05
2.30001e-05
3.45473e-05
2.58437e-05
2.85105e-05
2.85477e-05
2.65921e-05
3.10713e-05
2.51604e-05
3.33553e-05
2.37611e-05
3.54038e-05
2.2405e-05
3.71509e-05
2.10995e-05
3.86119e-05
1.98041e-05
3.98063e-05
1.85135e-05
4.07569e-05
1.72414e-05
4.14826e-05
1.60205e-05
4.19969e-05
1.48513e-05
4.23168e-05
1.376e-05
4.24661e-05
1.27522e-05
4.2464e-05
1.18348e-05
4.22712e-05
1.0997e-05
4.20834e-05
1.01539e-05
9.44506e-06
4.18124e-05
2.27461e-05
3.21988e-05
2.54965e-05
2.65989e-05
2.79863e-05
2.48786e-05
3.02874e-05
2.3531e-05
3.23717e-05
2.2219e-05
3.42629e-05
2.0921e-05
3.59532e-05
1.96845e-05
3.74084e-05
1.84943e-05
3.86072e-05
1.7335e-05
3.95541e-05
1.61987e-05
4.02576e-05
1.51126e-05
4.07271e-05
1.40793e-05
4.10007e-05
1.30964e-05
4.11185e-05
1.21673e-05
4.11141e-05
1.13087e-05
4.10152e-05
1.05126e-05
4.07868e-05
9.76101e-06
9.04423e-06
4.0534e-05
2.0142e-05
2.91518e-05
2.22661e-05
2.40939e-05
2.43362e-05
2.24273e-05
2.62429e-05
2.12087e-05
2.793e-05
2.00653e-05
2.94011e-05
1.89286e-05
3.06625e-05
1.78459e-05
3.17972e-05
1.67264e-05
3.27539e-05
1.56916e-05
3.35114e-05
1.47041e-05
3.40715e-05
1.37695e-05
3.44656e-05
1.2863e-05
3.4716e-05
1.19892e-05
3.48422e-05
1.11593e-05
3.48762e-05
1.03735e-05
3.48434e-05
9.63235e-06
3.47459e-05
8.93931e-06
8.33284e-06
3.45361e-05
1.79215e-05
2.58573e-05
1.97263e-05
2.1218e-05
2.13538e-05
1.97579e-05
2.28394e-05
1.86875e-05
2.42329e-05
1.76295e-05
2.54445e-05
1.66619e-05
2.65197e-05
1.5704e-05
2.74044e-05
1.4765e-05
2.81953e-05
1.3814e-05
2.8849e-05
1.2955e-05
2.93858e-05
1.21292e-05
2.97985e-05
1.13414e-05
3.0098e-05
1.05798e-05
3.02939e-05
9.85611e-06
3.03913e-05
9.17421e-06
3.03983e-05
8.53428e-06
3.03137e-05
7.9441e-06
7.44295e-06
3.01413e-05
1.60439e-05
2.22479e-05
1.74682e-05
1.83653e-05
1.88185e-05
1.70206e-05
2.01022e-05
1.60463e-05
2.12929e-05
1.50964e-05
2.23553e-05
1.42709e-05
2.32458e-05
1.34987e-05
2.39919e-05
1.27176e-05
2.45939e-05
1.19254e-05
2.51143e-05
1.11627e-05
2.55409e-05
1.0443e-05
2.58765e-05
9.76104e-06
2.61303e-05
9.09661e-06
2.62958e-05
8.47921e-06
2.63843e-05
7.8947e-06
2.63919e-05
7.35788e-06
2.63251e-05
6.86668e-06
6.45221e-06
2.6199e-05
1.40052e-05
1.86514e-05
1.55853e-05
1.52085e-05
1.69528e-05
1.4125e-05
1.81063e-05
1.34052e-05
1.90514e-05
1.26933e-05
1.98581e-05
1.20337e-05
2.05508e-05
1.13995e-05
2.11518e-05
1.07368e-05
2.1656e-05
1.00672e-05
2.20924e-05
9.39762e-06
2.24748e-05
8.75541e-06
2.27774e-05
8.17771e-06
2.29997e-05
7.61754e-06
2.3138e-05
7.11043e-06
2.32069e-05
6.6229e-06
2.32003e-05
6.19024e-06
2.3133e-05
5.79044e-06
5.42651e-06
2.30474e-05
1.2456e-05
1.53581e-05
1.37274e-05
1.23413e-05
1.48021e-05
1.15063e-05
1.57581e-05
1.09505e-05
1.66006e-05
1.03865e-05
1.73566e-05
9.84304e-06
1.80385e-05
9.31377e-06
1.86151e-05
8.78765e-06
1.91016e-05
8.2377e-06
1.9488e-05
7.69842e-06
1.98027e-05
7.15638e-06
2.006e-05
6.66569e-06
2.02525e-05
6.199e-06
2.03826e-05
5.78398e-06
2.0452e-05
5.38723e-06
2.04654e-05
5.04155e-06
2.04077e-05
4.74528e-06
4.39052e-06
2.03752e-05
1.10787e-05
1.24329e-05
1.20842e-05
9.79836e-06
1.30884e-05
9.01145e-06
1.4019e-05
8.57194e-06
1.48296e-05
8.16191e-06
1.552e-05
7.77229e-06
1.61113e-05
7.37533e-06
1.66159e-05
6.96796e-06
1.70441e-05
6.52706e-06
1.73912e-05
6.09954e-06
1.76544e-05
5.67168e-06
1.78474e-05
5.28179e-06
1.79869e-05
4.89838e-06
1.80808e-05
4.55959e-06
1.81213e-05
4.24637e-06
1.8126e-05
3.9677e-06
1.81095e-05
3.7247e-06
3.40281e-06
1.80934e-05
9.8604e-06
9.50596e-06
1.09457e-05
7.27341e-06
1.18709e-05
6.68617e-06
1.2659e-05
6.42539e-06
1.33124e-05
6.18546e-06
1.38534e-05
5.94137e-06
1.43289e-05
5.64113e-06
1.47486e-05
5.32067e-06
1.51173e-05
4.96075e-06
1.54307e-05
4.61901e-06
1.56726e-05
4.29251e-06
1.58417e-05
4.00547e-06
1.5942e-05
3.72142e-06
1.59951e-05
3.45936e-06
1.60033e-05
3.22076e-06
1.59757e-05
3.00786e-06
1.59762e-05
2.76722e-06
2.52828e-06
1.59248e-05
9.08923e-06
6.96608e-06
9.92496e-06
5.1142e-06
1.06479e-05
4.67541e-06
1.12771e-05
4.54727e-06
1.18233e-05
4.42181e-06
1.23081e-05
4.26857e-06
1.27464e-05
4.0439e-06
1.31269e-05
3.81019e-06
1.34426e-05
3.54489e-06
1.36825e-05
3.30862e-06
1.38466e-05
3.08719e-06
1.39519e-05
2.88787e-06
1.3997e-05
2.69264e-06
1.39943e-05
2.50636e-06
1.39404e-05
2.3469e-06
1.38915e-05
2.15758e-06
1.3808e-05
1.98013e-06
1.8168e-06
1.36778e-05
8.09591e-06
4.47862e-06
8.9652e-06
3.04422e-06
9.62047e-06
2.84949e-06
1.01515e-05
2.87977e-06
1.05884e-05
2.87698e-06
1.09556e-05
2.82087e-06
1.12498e-05
2.69679e-06
1.14741e-05
2.56124e-06
1.16268e-05
2.3961e-06
1.17118e-05
2.25531e-06
1.1736e-05
2.12159e-06
1.17127e-05
1.99562e-06
1.16498e-05
1.86568e-06
1.15517e-05
1.73967e-06
1.14281e-05
1.63163e-06
1.12679e-05
1.50485e-06
1.10412e-05
1.4199e-06
1.31821e-06
1.07785e-05
7.08325e-06
2.35652e-06
7.82843e-06
1.21616e-06
8.30692e-06
1.31388e-06
8.64666e-06
1.51316e-06
8.8774e-06
1.64605e-06
9.03482e-06
1.6895e-06
9.12001e-06
1.66356e-06
9.15003e-06
1.60913e-06
9.12927e-06
1.51932e-06
9.0659e-06
1.44497e-06
8.97124e-06
1.36521e-06
8.86341e-06
1.27495e-06
8.70586e-06
1.21735e-06
8.50783e-06
1.15464e-06
8.31579e-06
1.06354e-06
8.06999e-06
1.01346e-06
7.83926e-06
9.36231e-07
8.94898e-07
7.57075e-06
6.27243e-06
5.12532e-07
6.45081e-06
6.68554e-08
6.41979e-06
3.96625e-07
6.35387e-06
6.57196e-07
6.3009e-06
8.00315e-07
6.26871e-06
8.45757e-07
6.24211e-06
8.36518e-07
6.21125e-06
8.07827e-07
6.15768e-06
7.61177e-07
6.09881e-06
7.12835e-07
6.02413e-06
6.69486e-07
5.91736e-06
6.32434e-07
5.80775e-06
5.98653e-07
5.68532e-06
5.69701e-07
5.5422e-06
5.20285e-07
5.37335e-06
5.17193e-07
5.19297e-06
4.72024e-07
4.55552e-07
5.00974e-06
4.3383e-06
3.61116e-06
3.22621e-06
3.11543e-06
3.16195e-06
3.26986e-06
3.38504e-06
3.48836e-06
3.56205e-06
3.60485e-06
3.6218e-06
3.61924e-06
3.60038e-06
3.56998e-06
3.50775e-06
3.45983e-06
3.38409e-06
3.31175e-06
-7.24181e-07
-3.42845e-07
-1.52942e-06
-2.91846e-07
-2.19036e-06
-4.23795e-07
-2.76699e-06
-4.95215e-07
-3.21669e-06
-6.06784e-07
-3.53833e-06
-7.37318e-07
-3.7127e-06
-8.83912e-07
-3.79131e-06
-9.83941e-07
-3.83395e-06
-1.02509e-06
-3.88152e-06
-1.02413e-06
-3.95558e-06
-1.00034e-06
-4.05051e-06
-9.80272e-07
-4.16807e-06
-9.58636e-07
-4.30102e-06
-9.42463e-07
-4.44926e-06
-9.24197e-07
-4.5881e-06
-9.29314e-07
-4.71378e-06
-9.37864e-07
-4.82472e-06
-9.45989e-07
-4.90563e-06
-9.68245e-07
-4.94041e-06
-1.00613e-06
-4.92474e-06
-1.04849e-06
-4.90132e-06
-1.04528e-06
-4.85516e-06
-1.05319e-06
-4.75715e-06
-1.09195e-06
-4.63097e-06
-1.10681e-06
-4.52311e-06
-1.06989e-06
-4.40002e-06
-1.0652e-06
-4.28797e-06
-1.03335e-06
-4.19558e-06
-9.87026e-07
-4.07385e-06
-9.88806e-07
-3.95192e-06
-9.60488e-07
-3.84308e-06
-9.14167e-07
-3.73078e-06
-8.82675e-07
-3.66593e-06
-7.98302e-07
-3.62163e-06
-7.36771e-07
-3.62512e-06
-6.44004e-07
-3.71692e-06
-5.08281e-07
-3.92299e-06
-3.44413e-07
-4.26218e-06
-1.52751e-07
-4.74089e-06
4.7587e-08
-5.41075e-06
2.95603e-07
-6.2281e-06
5.1629e-07
-7.21587e-06
7.79901e-07
-8.31523e-06
9.7462e-07
-9.31066e-06
9.32877e-07
-1.01443e-05
8.34325e-07
-1.09549e-05
8.92285e-07
-1.17468e-05
9.75018e-07
-1.23375e-05
8.92492e-07
-1.27755e-05
8.55326e-07
-1.32599e-05
1.00031e-06
-1.39345e-05
1.28353e-06
-1.47613e-05
1.54846e-06
-1.55038e-05
1.61418e-06
-1.59001e-05
1.42421e-06
-1.59875e-05
1.25099e-06
-1.58774e-05
1.19184e-06
-1.53368e-05
9.47874e-07
-1.49741e-05
1.3912e-06
-1.56935e-05
2.68523e-06
-1.67756e-05
3.06536e-06
-1.74594e-05
2.66003e-06
-1.79468e-05
2.59889e-06
-1.76405e-05
1.99966e-06
-1.63352e-05
1.18493e-06
-1.49428e-05
1.31506e-06
-1.39412e-05
2.00133e-06
-1.34649e-05
2.80095e-06
-1.35838e-05
3.49286e-06
-1.4528e-05
4.2667e-06
-1.59804e-05
4.78471e-06
-1.74606e-05
4.9838e-06
-1.87645e-05
5.03458e-06
-1.98718e-05
5.03438e-06
-2.07789e-05
4.99966e-06
-2.14631e-05
4.92993e-06
-2.19544e-05
4.87938e-06
-2.22829e-05
4.84536e-06
-2.24754e-05
4.82753e-06
-2.25079e-05
4.77927e-06
-2.23945e-05
4.74154e-06
-2.21529e-05
4.71649e-06
-2.1814e-05
4.71014e-06
-2.13544e-05
4.66914e-06
-2.0759e-05
4.61134e-06
-2.0059e-05
4.58166e-06
-1.92842e-05
4.57698e-06
-1.84195e-05
4.55103e-06
-1.7494e-05
4.54963e-06
-1.64934e-05
4.52315e-06
-1.54196e-05
4.49082e-06
-1.43705e-05
4.56625e-06
-1.32924e-05
4.57955e-06
-1.21634e-05
4.56198e-06
-1.11108e-05
4.68239e-06
-9.98793e-06
4.62203e-06
-8.88477e-06
4.65995e-06
-7.76404e-06
4.66978e-06
-6.71263e-06
4.77152e-06
-5.71139e-06
4.81499e-06
-4.71522e-06
4.83033e-06
-3.70202e-06
4.8128e-06
-2.77745e-06
4.90294e-06
-1.93244e-06
4.97509e-06
-1.11694e-06
4.993e-06
-3.66613e-07
5.03766e-06
3.62376e-07
5.03268e-06
1.07634e-06
5.01668e-06
1.77187e-06
4.99248e-06
2.46676e-06
4.93698e-06
3.13247e-06
4.89634e-06
3.7718e-06
4.84224e-06
4.332e-06
4.8374e-06
4.86969e-06
4.77662e-06
5.43798e-06
4.64172e-06
6.11302e-06
4.41273e-06
6.84379e-06
4.21758e-06
7.56274e-06
4.08095e-06
8.12912e-06
4.0772e-06
8.62983e-06
4.00796e-06
9.30609e-06
3.69076e-06
1.00635e-05
3.40115e-06
1.05478e-05
3.42094e-06
1.09224e-05
3.2899e-06
1.13895e-05
2.94523e-06
1.19068e-05
2.63088e-06
1.21985e-05
2.60057e-06
1.20923e-05
2.76947e-06
1.15742e-05
2.9706e-06
1.07508e-05
3.04174e-06
9.50435e-06
3.18939e-06
8.2378e-06
2.93339e-06
6.92878e-06
2.66945e-06
6.06194e-06
1.90852e-06
4.89254e-06
1.89459e-06
4.35428e-06
9.172e-07
3.01192e-06
1.41212e-06
1.86412e-06
8.91167e-07
7.60405e-07
5.73124e-07
-6.50871e-07
6.3683e-07
-1.72236e-06
1.06893e-07
-2.90296e-06
5.63398e-08
-3.85991e-06
-2.80333e-07
-4.87446e-06
-2.85167e-07
-5.71018e-06
-4.81229e-07
-6.71094e-06
-2.84789e-07
-7.34264e-06
-5.85182e-07
-8.0575e-06
-3.8826e-07
-8.4103e-06
-6.17202e-07
-8.69494e-06
-5.40017e-07
-8.48418e-06
-8.9457e-07
-8.19975e-06
-8.17838e-07
-7.65359e-06
-9.35463e-07
-7.00334e-06
-9.11751e-07
-6.11026e-06
-1.01712e-06
-5.18755e-06
-9.08494e-07
-4.60114e-06
-4.29104e-07
-4.47566e-06
1.74735e-07
-4.55146e-06
5.1597e-07
-4.84187e-06
8.61539e-07
-4.8921e-06
7.60026e-07
-5.09259e-06
1.04731e-06
-5.20472e-06
1.10937e-06
-5.43662e-06
1.40314e-06
-5.58146e-06
1.52429e-06
-5.53397e-06
1.53695e-06
-5.21539e-06
1.5084e-06
-4.39336e-06
1.25626e-06
-3.59513e-06
1.57625e-06
-2.42801e-06
1.44509e-06
-1.27856e-06
1.70902e-06
-9.1893e-07
2.7038e-06
-3.37931e-07
2.70937e-06
3.44286e-07
2.85101e-06
5.59025e-07
3.56954e-06
9.2639e-07
3.64453e-06
3.03691e-06
2.1388e-06
5.36244e-06
1.96241e-06
6.65612e-06
3.05776e-06
3.30627e-06
7.75215e-06
-5.17792e-07
-8.61352e-07
-1.44022e-06
-4.51577e-07
-2.26742e-06
-6.33293e-07
-2.88108e-06
-8.91324e-07
-3.34387e-06
-1.14372e-06
-3.6241e-06
-1.45046e-06
-3.74713e-06
-1.75681e-06
-3.77561e-06
-1.95424e-06
-3.79103e-06
-2.01535e-06
-3.84264e-06
-1.98816e-06
-3.9349e-06
-1.9294e-06
-4.06993e-06
-1.87104e-06
-4.23485e-06
-1.82374e-06
-4.41069e-06
-1.79993e-06
-4.5814e-06
-1.78827e-06
-4.74792e-06
-1.79821e-06
-4.87958e-06
-1.84179e-06
-4.97765e-06
-1.88179e-06
-5.05516e-06
-1.92361e-06
-5.07223e-06
-2.02075e-06
-5.04914e-06
-2.09807e-06
-4.98026e-06
-2.12883e-06
-4.8649e-06
-2.16977e-06
-4.7073e-06
-2.24383e-06
-4.54327e-06
-2.25401e-06
-4.3722e-06
-2.20157e-06
-4.18662e-06
-2.19331e-06
-4.00819e-06
-2.13425e-06
-3.82655e-06
-2.05958e-06
-3.61987e-06
-2.06133e-06
-3.38629e-06
-2.03014e-06
-3.14727e-06
-1.95451e-06
-2.85695e-06
-1.9446e-06
-2.61793e-06
-1.76975e-06
-2.3875e-06
-1.65687e-06
-2.14334e-06
-1.5369e-06
-1.95598e-06
-1.29147e-06
-1.83483e-06
-1.01426e-06
-1.7913e-06
-6.90792e-07
-1.85098e-06
-3.23235e-07
-2.06132e-06
1.31288e-07
-2.37224e-06
5.1961e-07
-2.81597e-06
9.98564e-07
-3.4643e-06
1.46093e-06
-4.33526e-06
1.71728e-06
-5.40974e-06
1.93816e-06
-6.62666e-06
2.21645e-06
-7.80106e-06
2.27085e-06
-8.90627e-06
2.18969e-06
-9.91087e-06
2.21648e-06
-1.06858e-05
2.28559e-06
-1.1242e-05
2.45499e-06
-1.17783e-05
2.78436e-06
-1.22476e-05
2.93136e-06
-1.25536e-05
2.81696e-06
-1.28404e-05
2.7851e-06
-1.26692e-05
2.34304e-06
-1.20378e-05
1.72555e-06
-1.18308e-05
2.69573e-06
-1.16321e-05
4.2457e-06
-1.1232e-05
4.74617e-06
-1.216e-05
5.82673e-06
-1.35238e-05
6.22764e-06
-1.35334e-05
4.34254e-06
-1.35082e-05
3.62954e-06
-1.45372e-05
4.97681e-06
-1.64642e-05
6.77251e-06
-1.87283e-05
8.13698e-06
-2.08759e-05
8.89485e-06
-2.25947e-05
9.39102e-06
-2.38995e-05
9.64049e-06
-2.49079e-05
9.69553e-06
-2.57126e-05
9.68345e-06
-2.63068e-05
9.60141e-06
-2.66899e-05
9.47983e-06
-2.69071e-05
9.3666e-06
-2.69584e-05
9.25605e-06
-2.69011e-05
9.1946e-06
-2.66788e-05
9.0846e-06
-2.63442e-05
9.00257e-06
-2.59061e-05
8.95422e-06
-2.5365e-05
8.92153e-06
-2.46885e-05
8.85796e-06
-2.38987e-05
8.75058e-06
-2.30243e-05
8.65652e-06
-2.20848e-05
8.60954e-06
-2.10859e-05
8.60195e-06
-1.99724e-05
8.50828e-06
-1.87971e-05
8.49656e-06
-1.75862e-05
8.48784e-06
-1.63484e-05
8.41757e-06
-1.51736e-05
8.60767e-06
-1.39359e-05
8.61831e-06
-1.2694e-05
8.59665e-06
-1.14957e-05
8.8478e-06
-1.01818e-05
8.70752e-06
-8.96522e-06
8.83807e-06
-7.79903e-06
8.88406e-06
-6.59752e-06
9.06998e-06
-5.48916e-06
9.23418e-06
-4.40381e-06
9.29052e-06
-3.32545e-06
9.30862e-06
-2.30101e-06
9.50602e-06
-1.28992e-06
9.62907e-06
-3.90156e-07
9.82438e-06
4.87147e-07
9.93895e-06
1.31083e-06
1.00304e-05
2.10432e-06
1.00616e-05
2.8677e-06
1.00866e-05
3.65024e-06
1.00073e-05
4.40388e-06
1.00072e-05
5.10623e-06
9.99545e-06
5.73986e-06
1.00356e-05
6.29663e-06
9.98558e-06
6.91543e-06
9.65665e-06
7.71006e-06
9.10704e-06
8.41663e-06
8.85682e-06
9.04572e-06
8.6343e-06
9.77697e-06
8.39898e-06
1.02928e-05
8.40791e-06
1.07122e-05
8.04389e-06
1.1562e-05
7.1857e-06
1.23372e-05
6.95668e-06
1.25416e-05
6.9153e-06
1.24497e-05
6.41267e-06
1.24317e-05
5.69813e-06
1.21546e-05
5.74037e-06
1.15187e-05
6.10605e-06
1.04883e-05
6.51236e-06
9.37536e-06
6.41265e-06
8.08201e-06
6.46533e-06
6.57074e-06
6.18759e-06
5.27241e-06
5.39533e-06
4.73028e-06
3.5355e-06
4.13758e-06
3.24307e-06
3.0429e-06
2.38612e-06
1.35401e-06
3.13433e-06
5.49581e-07
1.40863e-06
-1.2318e-07
6.88224e-07
-1.17707e-06
8.74502e-07
-2.39476e-06
2.99113e-07
-3.32563e-06
-1.97875e-07
-4.2498e-06
-6.63485e-07
-5.08036e-06
-8.20903e-07
-5.76849e-06
-1.17309e-06
-6.45473e-06
-9.47709e-07
-7.09995e-06
-1.22094e-06
-7.6906e-06
-9.59761e-07
-7.75213e-06
-1.58968e-06
-7.70075e-06
-1.46392e-06
-7.20028e-06
-2.13546e-06
-6.68028e-06
-1.92345e-06
-5.97293e-06
-2.06551e-06
-5.20737e-06
-1.97251e-06
-3.84402e-06
-2.52521e-06
-2.10316e-06
-2.66872e-06
-8.13117e-07
-1.60307e-06
-1.24681e-07
-2.68806e-07
-3.14407e-08
8.05064e-07
-1.62749e-07
1.50753e-06
-4.81487e-07
1.7427e-06
-9.59134e-07
2.3283e-06
-1.50255e-06
2.62048e-06
-2.19425e-06
3.24238e-06
-2.5999e-06
3.30755e-06
-2.69802e-06
3.23548e-06
-2.17656e-06
2.84919e-06
-1.16217e-06
2.35626e-06
-5.33195e-07
3.50136e-06
3.3527e-07
3.39592e-06
1.03244e-06
3.96292e-06
9.91386e-08
6.74134e-06
-2.63765e-07
6.27846e-06
1.10857e-06
4.922e-06
2.29167e-06
6.32977e-06
3.07635e-06
7.26357e-06
6.43677e-06
3.54648e-06
9.56872e-06
3.59563e-06
1.12918e-05
6.04562e-06
6.62134e-06
1.25171e-05
-1.43e-07
-1.68032e-06
-6.67035e-07
-9.58564e-07
-1.49231e-06
-8.46464e-07
-2.21457e-06
-1.16049e-06
-2.75293e-06
-1.58216e-06
-3.09848e-06
-2.09912e-06
-3.25757e-06
-2.57944e-06
-3.28639e-06
-2.87884e-06
-3.33544e-06
-2.92889e-06
-3.45886e-06
-2.84888e-06
-3.65365e-06
-2.73341e-06
-3.89208e-06
-2.64352e-06
-4.15508e-06
-2.58169e-06
-4.43473e-06
-2.55071e-06
-4.69888e-06
-2.56294e-06
-4.95133e-06
-2.59109e-06
-5.18751e-06
-2.65503e-06
-5.38623e-06
-2.73341e-06
-5.53499e-06
-2.82263e-06
-5.64027e-06
-2.95156e-06
-5.69976e-06
-3.05636e-06
-5.65203e-06
-3.17957e-06
-5.54207e-06
-3.27056e-06
-5.41464e-06
-3.34613e-06
-5.3027e-06
-3.31986e-06
-5.16914e-06
-3.26659e-06
-5.06061e-06
-3.21447e-06
-4.95286e-06
-3.12736e-06
-4.79227e-06
-3.07686e-06
-4.61556e-06
-3.07294e-06
-4.39116e-06
-3.05748e-06
-4.12226e-06
-2.99554e-06
-3.81898e-06
-2.98998e-06
-3.53681e-06
-2.75084e-06
-3.20945e-06
-2.64274e-06
-2.87639e-06
-2.48813e-06
-2.48559e-06
-2.24936e-06
-2.10329e-06
-1.92448e-06
-1.81447e-06
-1.45497e-06
-1.56693e-06
-9.87602e-07
-1.42496e-06
-3.7765e-07
-1.42189e-06
2.15561e-07
-1.5296e-06
8.7771e-07
-1.86155e-06
1.63369e-06
-2.48067e-06
2.2615e-06
-3.31699e-06
2.78697e-06
-4.2327e-06
3.21887e-06
-5.14816e-06
3.34652e-06
-6.03263e-06
3.33209e-06
-7.002e-06
3.56514e-06
-7.88586e-06
3.62211e-06
-8.40256e-06
3.45026e-06
-8.61753e-06
3.55551e-06
-8.75344e-06
3.76559e-06
-8.91009e-06
3.88049e-06
-8.97548e-06
3.9848e-06
-8.77899e-06
3.39366e-06
-8.98621e-06
3.26999e-06
-9.51196e-06
4.72108e-06
-9.50583e-06
5.83841e-06
-1.01114e-05
7.08806e-06
-1.16287e-05
9.39266e-06
-1.23942e-05
9.23744e-06
-1.35341e-05
7.72054e-06
-1.63797e-05
8.77728e-06
-1.96266e-05
1.07792e-05
-2.20743e-05
1.19892e-05
-2.3764e-05
1.27343e-05
-2.49643e-05
1.3142e-05
-2.58076e-05
1.34134e-05
-2.63223e-05
1.34528e-05
-2.66259e-05
1.33971e-05
-2.6726e-05
1.32687e-05
-2.66916e-05
1.31458e-05
-2.66026e-05
1.30739e-05
-2.64449e-05
1.30056e-05
-2.62349e-05
1.29572e-05
-2.59066e-05
1.28737e-05
-2.55059e-05
1.27709e-05
-2.50067e-05
1.26622e-05
-2.44555e-05
1.26454e-05
-2.383e-05
1.26186e-05
-2.31407e-05
1.25723e-05
-2.23787e-05
1.24572e-05
-2.14919e-05
1.22885e-05
-2.0517e-05
1.22035e-05
-1.94836e-05
1.21792e-05
-1.83773e-05
1.20132e-05
-1.72117e-05
1.19286e-05
-1.60521e-05
1.20118e-05
-1.47992e-05
1.18362e-05
-1.36104e-05
1.21088e-05
-1.23852e-05
1.21224e-05
-1.12037e-05
1.21319e-05
-1.00105e-05
1.23572e-05
-8.7341e-06
1.2162e-05
-7.52286e-06
1.23728e-05
-6.41695e-06
1.24743e-05
-5.21305e-06
1.25319e-05
-4.08254e-06
1.28071e-05
-3.09494e-06
1.29937e-05
-2.053e-06
1.29355e-05
-1.06482e-06
1.31671e-05
-3.33926e-08
1.32337e-05
9.02727e-07
1.35303e-05
1.80193e-06
1.36822e-05
2.62205e-06
1.38904e-05
3.39513e-06
1.3978e-05
4.08696e-06
1.4126e-05
4.75945e-06
1.4077e-05
5.43313e-06
1.41491e-05
6.09481e-06
1.42648e-05
6.69332e-06
1.44885e-05
7.18936e-06
1.45275e-05
7.66038e-06
1.41582e-05
8.23193e-06
1.3375e-05
8.97056e-06
1.3017e-05
9.51835e-06
1.30597e-05
1.00296e-05
1.27923e-05
1.07821e-05
1.25064e-05
1.11683e-05
1.235e-05
1.14804e-05
1.1377e-05
1.22671e-05
1.05428e-05
1.28314e-05
1.02674e-05
1.23483e-05
1.01272e-05
1.15705e-05
9.29975e-06
1.09359e-05
9.15386e-06
1.0286e-05
9.49782e-06
9.42068e-06
9.96175e-06
8.41344e-06
9.77778e-06
7.13164e-06
9.84172e-06
6.28749e-06
8.82157e-06
5.58733e-06
7.64331e-06
4.72237e-06
5.57197e-06
4.79262e-06
3.92229e-06
3.94244e-06
3.60676e-06
2.22007e-06
4.90011e-06
1.22863e-06
2.14104e-06
2.87289e-07
1.09921e-06
-2.72922e-07
6.73002e-07
-1.33224e-06
3.928e-07
-1.91322e-06
-7.23937e-07
-2.6939e-06
-1.10751e-06
-3.31822e-06
-1.47581e-06
-3.98553e-06
-1.81045e-06
-4.72684e-06
-1.48322e-06
-5.29592e-06
-1.86253e-06
-5.77595e-06
-1.5767e-06
-6.08386e-06
-2.26609e-06
-6.02657e-06
-2.33618e-06
-5.417e-06
-3.39412e-06
-4.93669e-06
-2.92102e-06
-4.5982e-06
-2.74573e-06
-4.37555e-06
-2.4035e-06
-3.20123e-06
-3.74598e-06
-1.29767e-06
-4.50295e-06
6.7452e-07
-3.38646e-06
1.87109e-06
-1.15895e-06
2.34337e-06
7.44017e-07
2.63858e-06
1.76059e-06
2.83864e-06
2.245e-06
2.55453e-06
3.42464e-06
1.80798e-06
4.3156e-06
1.06039e-06
5.15179e-06
4.08604e-07
5.3026e-06
4.74456e-08
5.11989e-06
-2.78579e-08
4.63748e-06
9.31306e-07
3.28644e-06
1.56307e-06
5.28366e-06
1.598e-06
6.19122e-06
9.6027e-07
7.5181e-06
-8.02787e-07
1.14791e-05
-1.80006e-06
1.05332e-05
-6.29e-07
7.15097e-06
1.28476e-06
8.2354e-06
2.73729e-06
1.01417e-05
7.09701e-06
3.58732e-06
1.13864e-05
4.11236e-06
1.41466e-05
8.05457e-06
9.63405e-06
1.54543e-05
4.73526e-08
-2.60584e-06
-1.16118e-08
-1.81646e-06
-4.55249e-07
-1.38683e-06
-1.12883e-06
-1.49054e-06
-1.77878e-06
-1.93465e-06
-2.23282e-06
-2.614e-06
-2.44811e-06
-3.23906e-06
-2.58498e-06
-3.58054e-06
-2.79507e-06
-3.60796e-06
-3.10405e-06
-3.48115e-06
-3.4806e-06
-3.32975e-06
-3.89373e-06
-3.22372e-06
-4.29596e-06
-3.18788e-06
-4.6582e-06
-3.20754e-06
-5.02786e-06
-3.21884e-06
-5.47931e-06
-3.15614e-06
-5.99582e-06
-3.13207e-06
-6.46994e-06
-3.22346e-06
-6.8224e-06
-3.40343e-06
-7.0456e-06
-3.63581e-06
-7.09407e-06
-3.90367e-06
-7.00027e-06
-4.16305e-06
-6.84712e-06
-4.30146e-06
-6.71114e-06
-4.34607e-06
-6.6213e-06
-4.26632e-06
-6.56113e-06
-4.17383e-06
-6.54531e-06
-4.06243e-06
-6.49546e-06
-3.99035e-06
-6.37532e-06
-3.9952e-06
-6.25362e-06
-3.9739e-06
-6.05231e-06
-4.00934e-06
-5.80752e-06
-3.95949e-06
-5.55842e-06
-3.93203e-06
-5.22709e-06
-3.72794e-06
-4.8507e-06
-3.62881e-06
-4.39629e-06
-3.51802e-06
-3.87478e-06
-3.30647e-06
-3.46407e-06
-2.84081e-06
-3.01975e-06
-2.34653e-06
-2.63325e-06
-1.76707e-06
-2.17518e-06
-1.18604e-06
-1.70201e-06
-5.49107e-07
-1.49645e-06
4.37019e-07
-1.49929e-06
1.45516e-06
-1.60524e-06
2.26265e-06
-2.03807e-06
3.21484e-06
-2.89734e-06
4.16992e-06
-3.97535e-06
4.58082e-06
-5.00285e-06
4.59459e-06
-5.79332e-06
4.69666e-06
-6.30215e-06
4.58593e-06
-6.6659e-06
4.35079e-06
-6.99153e-06
4.47306e-06
-7.26714e-06
4.7123e-06
-7.26271e-06
4.67104e-06
-6.78149e-06
4.44957e-06
-6.6524e-06
4.34132e-06
-7.13585e-06
4.99411e-06
-7.44585e-06
6.46733e-06
-8.26481e-06
8.14967e-06
-1.02841e-05
1.07035e-05
-1.16246e-05
1.26379e-05
-1.28529e-05
1.25663e-05
-1.61123e-05
1.30914e-05
-1.97293e-05
1.4591e-05
-2.21488e-05
1.56068e-05
-2.37521e-05
1.6143e-05
-2.48143e-05
1.64345e-05
-2.54698e-05
1.65482e-05
-2.577e-05
1.65898e-05
-2.58786e-05
1.65729e-05
-2.58676e-05
1.65375e-05
-2.57373e-05
1.64396e-05
-2.55526e-05
1.64164e-05
-2.52928e-05
1.64318e-05
-2.5074e-05
1.65404e-05
-2.4858e-05
1.65923e-05
-2.46407e-05
1.65986e-05
-2.43439e-05
1.65207e-05
-2.39516e-05
1.6414e-05
-2.34442e-05
1.63782e-05
-2.28523e-05
1.63433e-05
-2.22119e-05
1.63162e-05
-2.14874e-05
1.6194e-05
-2.0672e-05
1.59941e-05
-1.97672e-05
1.58884e-05
-1.87226e-05
1.58133e-05
-1.76137e-05
1.56147e-05
-1.64553e-05
1.53794e-05
-1.52002e-05
1.54053e-05
-1.39339e-05
1.52525e-05
-1.25823e-05
1.54812e-05
-1.12595e-05
1.56007e-05
-1.01142e-05
1.58638e-05
-8.92859e-06
1.6064e-05
-7.64049e-06
1.57038e-05
-6.42587e-06
1.59877e-05
-5.21964e-06
1.61425e-05
-4.03884e-06
1.6166e-05
-2.90359e-06
1.65149e-05
-1.9166e-06
1.68523e-05
-8.96446e-07
1.67328e-05
1.80019e-07
1.68532e-05
1.16667e-06
1.69549e-05
2.07305e-06
1.72657e-05
2.96655e-06
1.73238e-05
3.80038e-06
1.75296e-05
4.62214e-06
1.75637e-05
5.33176e-06
1.77289e-05
6.0671e-06
1.75817e-05
6.77819e-06
1.76358e-05
7.46567e-06
1.76736e-05
8.06576e-06
1.79894e-05
8.58279e-06
1.80968e-05
9.01862e-06
1.78152e-05
9.4293e-06
1.70875e-05
9.8577e-06
1.67103e-05
1.02412e-05
1.67679e-05
1.03876e-05
1.68264e-05
1.09114e-05
1.62961e-05
1.16731e-05
1.59903e-05
1.19665e-05
1.53833e-05
1.21052e-05
1.45952e-05
1.24552e-05
1.37286e-05