/*--------------------------------*- C++ -*----------------------------------*\
| =========                 |                                                 |
| \\      /  F ield         | OpenFOAM: The Open Source CFD Toolbox           |
|  \\    /   O peration     | Version:  dev                                   |
|   \\  /    A nd           | Web:      http://www.openfoam.org               |
|    \\/     M anipulation  |                                                 |
\*---------------------------------------------------------------------------*/
FoamFile
{
    version     2.0;
    format      ascii;
    class       surfaceScalarField;
    object      phi_0;
    location    "9.125";
}
// * * * * * * * * * * * * * * * * * * * * * * * * * * * * * * * * * * * * * //

dimensions      [1 0 -1 0 0 0 0];

internalField   nonuniform List<scalar> 
24170
(
2.74725e-06
2.38322e-06
2.4651e-06
1.55021e-06
2.67485e-06
1.01722e-06
3.07707e-06
7.5999e-07
3.53186e-06
6.41703e-07
4.00429e-06
5.41046e-07
4.34935e-06
5.9461e-07
4.80192e-06
4.0047e-07
5.03784e-06
5.42566e-07
5.50945e-06
2.22264e-07
5.58677e-06
5.47563e-07
6.23987e-06
-1.06055e-07
5.95608e-06
7.66954e-07
7.32931e-06
-9.51887e-07
6.47134e-06
1.20004e-06
7.62943e-06
-8.4905e-07
9.29837e-06
-1.41946e-06
-2.26153e-06
1.17888e-05
4.64555e-06
3.47252e-06
4.78386e-06
2.8639e-06
5.05267e-06
2.1551e-06
5.27682e-06
1.87278e-06
5.69567e-06
1.48147e-06
6.08124e-06
1.32633e-06
6.53113e-06
1.2291e-06
6.96773e-06
9.54523e-07
7.41064e-06
1.00512e-06
7.94734e-06
4.95759e-07
8.27114e-06
9.58642e-07
9.16386e-06
-3.5056e-07
9.18696e-06
1.31577e-06
1.08712e-05
-2.12052e-06
1.07472e-05
1.73511e-06
1.24448e-05
-2.17046e-06
1.06433e-05
7.34986e-07
-8.26677e-06
1.69974e-05
5.46032e-06
4.271e-06
6.2059e-06
3.71968e-06
6.84602e-06
3.06474e-06
7.27294e-06
2.91605e-06
7.75055e-06
2.38912e-06
8.22801e-06
2.13688e-06
8.64886e-06
2.00302e-06
9.31026e-06
1.38571e-06
9.53141e-06
1.78186e-06
1.0491e-05
4.33289e-07
1.04076e-05
1.84939e-06
1.16966e-05
-9.22575e-07
1.13243e-05
2.32145e-06
1.24344e-05
-2.68217e-06
1.24214e-05
2.22078e-06
1.39829e-05
-3.31012e-06
1.23072e-05
2.77154e-06
-9.22215e-06
1.35197e-05
5.83777e-06
5.61985e-06
7.19412e-06
4.11705e-06
7.96071e-06
3.9958e-06
9.01184e-06
3.47098e-06
9.45368e-06
3.46181e-06
1.03978e-05
2.59921e-06
1.0649e-05
3.05334e-06
1.16458e-05
1.5817e-06
1.16669e-05
2.84821e-06
1.25721e-05
5.0712e-07
1.23931e-05
2.90875e-06
1.337e-05
-1.1199e-06
1.3143e-05
3.24142e-06
1.39187e-05
-2.85625e-06
1.38911e-05
2.77551e-06
1.61754e-05
-5.15698e-06
1.35835e-05
5.7371e-06
-1.22624e-05
1.6972e-05
6.09268e-06
7.2405e-06
7.92036e-06
4.20646e-06
8.59046e-06
5.17891e-06
1.00407e-05
3.77072e-06
1.05012e-05
4.65201e-06
1.16043e-05
3.03039e-06
1.18285e-05
4.24567e-06
1.28521e-05
1.85791e-06
1.29855e-05
3.89831e-06
1.37429e-05
8.16819e-07
1.38945e-05
3.71412e-06
1.44757e-05
-8.5196e-07
1.47176e-05
3.75531e-06
1.48652e-05
-2.34826e-06
1.5227e-05
2.99199e-06
1.67632e-05
-6.22796e-06
1.81728e-05
4.72467e-06
-1.12482e-05
1.75338e-05
6.68832e-06
8.96505e-06
8.31743e-06
4.66112e-06
8.97238e-06
6.53806e-06
1.04502e-05
4.19183e-06
1.10398e-05
5.85581e-06
1.2205e-05
3.53017e-06
1.26092e-05
5.37957e-06
1.36246e-05
2.25158e-06
1.40397e-05
4.76665e-06
1.49136e-05
1.09837e-06
1.53439e-05
4.32006e-06
1.58067e-05
-3.96546e-07
1.66271e-05
3.7528e-06
1.65769e-05
-1.59011e-06
1.78984e-05
2.29274e-06
1.66234e-05
-4.44077e-06
2.00147e-05
1.7631e-06
-8.24416e-06
1.73955e-05
7.60633e-06
1.06139e-05
9.07246e-06
5.44419e-06
1.00115e-05
7.7685e-06
1.14433e-05
4.80395e-06
1.22427e-05
6.98702e-06
1.34447e-05
4.12262e-06
1.41857e-05
6.29336e-06
1.50023e-05
2.95157e-06
1.57782e-05
5.37016e-06
1.63924e-05
1.72525e-06
1.73128e-05
4.51571e-06
1.73809e-05
5.19835e-07
1.86494e-05
3.35909e-06
1.83691e-05
-5.52042e-07
1.96104e-05
1.70624e-06
1.82008e-05
-2.47309e-06
2.03196e-05
1.22563e-07
-3.75365e-06
1.62195e-05
6.01003e-06
1.17959e-05
7.14088e-06
6.02726e-06
7.98997e-06
8.57029e-06
8.96422e-06
5.3856e-06
9.69549e-06
7.72367e-06
1.0467e-05
4.71916e-06
1.11962e-05
6.81975e-06
1.16729e-05
3.6264e-06
1.24284e-05
5.66055e-06
1.26868e-05
2.40671e-06
1.3475e-05
4.57057e-06
1.34238e-05
1.3151e-06
1.42865e-05
3.1557e-06
1.39467e-05
3.59503e-07
1.475e-05
1.39319e-06
1.3853e-05
-1.16067e-06
1.46327e-05
-3.04907e-07
-2.20864e-06
1.3393e-05
7.16095e-06
1.32155e-05
8.35537e-06
6.77671e-06
9.44616e-06
9.35578e-06
1.042e-05
6.17845e-06
1.13763e-05
8.43569e-06
1.21475e-05
5.498e-06
1.30409e-05
7.34676e-06
1.35731e-05
4.39476e-06
1.44205e-05
5.99119e-06
1.46829e-05
3.20366e-06
1.55546e-05
4.64759e-06
1.55206e-05
2.18569e-06
1.6286e-05
3.13032e-06
1.60875e-05
1.19799e-06
1.66529e-05
1.37407e-06
1.59687e-05
-1.17594e-08
1.64137e-05
-3.56987e-07
-1.02895e-06
1.5573e-05
8.30721e-06
1.45433e-05
9.49835e-06
7.77419e-06
1.09472e-05
1.00141e-05
1.19334e-05
7.17851e-06
1.32504e-05
8.98993e-06
1.40412e-05
6.43843e-06
1.52419e-05
7.7323e-06
1.5746e-05
5.34124e-06
1.67572e-05
6.29142e-06
1.69751e-05
4.16641e-06
1.79326e-05
4.74322e-06
1.79031e-05
3.1426e-06
1.86497e-05
3.20009e-06
1.84847e-05
2.06693e-06
1.89072e-05
1.55503e-06
1.857e-05
8.3625e-07
1.84994e-05
1.4375e-07
-4.26443e-08
1.78772e-05
9.72065e-06
1.59064e-05
1.08588e-05
9.06234e-06
1.25667e-05
1.0633e-05
1.36477e-05
8.30201e-06
1.51795e-05
9.52204e-06
1.60728e-05
7.45102e-06
1.73925e-05
8.16224e-06
1.80229e-05
6.30306e-06
1.91118e-05
6.6421e-06
1.94914e-05
5.08234e-06
2.02798e-05
5.09894e-06
2.05271e-05
3.90469e-06
2.10643e-05
3.54827e-06
2.1129e-05
2.75894e-06
2.12791e-05
2.05353e-06
2.1142e-05
1.52391e-06
2.0925e-05
8.18114e-07
4.97765e-07
2.07626e-05
1.112e-05
1.6991e-05
1.24559e-05
1.03684e-05
1.44827e-05
1.11384e-05
1.56805e-05
9.50078e-06
1.74628e-05
9.96925e-06
1.84754e-05
8.4982e-06
1.99728e-05
8.54677e-06
2.07169e-05
7.27425e-06
2.18659e-05
7.04286e-06
2.23136e-05
6.01246e-06
2.31115e-05
5.52001e-06
2.34064e-05
4.68222e-06
2.39485e-05
3.93366e-06
2.41436e-05
3.36193e-06
2.4234e-05
2.63864e-06
2.42122e-05
2.10801e-06
2.39547e-05
1.54668e-06
1.14507e-06
2.3695e-05
1.29877e-05
1.84919e-05
1.44798e-05
1.16858e-05
1.66633e-05
1.16456e-05
1.81918e-05
1.05109e-05
2.00921e-05
1.04219e-05
2.13471e-05
9.40953e-06
2.28079e-05
9.07006e-06
2.37589e-05
8.1222e-06
2.48381e-05
7.57104e-06
2.55352e-05
6.74731e-06
2.62574e-05
6.05958e-06
2.67504e-05
5.28413e-06
2.7093e-05
4.53122e-06
2.74155e-05
3.84434e-06
2.7472e-05
3.25927e-06
2.74383e-05
2.69676e-06
2.72621e-05
2.17593e-06
1.7838e-06
2.69849e-05
1.52021e-05
1.92655e-05
1.69651e-05
1.28154e-05
1.91646e-05
1.22157e-05
2.08519e-05
1.14235e-05
2.28317e-05
1.08428e-05
2.43497e-05
1.00997e-05
2.59363e-05
9.4925e-06
2.71194e-05
8.74473e-06
2.82633e-05
8.0424e-06
2.9139e-05
7.29678e-06
2.9881e-05
6.55429e-06
3.04159e-05
5.81921e-06
3.079e-05
5.07167e-06
3.10757e-05
4.31947e-06
3.11747e-05
3.78298e-06
3.11166e-05
3.26521e-06
3.09144e-05
2.78272e-06
2.35836e-06
3.06456e-05
1.7737e-05
2.01434e-05
1.99444e-05
1.34571e-05
2.22943e-05
1.25875e-05
2.43591e-05
1.18984e-05
2.63443e-05
1.11951e-05
2.80779e-05
1.05027e-05
2.96778e-05
9.8229e-06
3.10381e-05
9.10984e-06
3.22035e-05
8.40263e-06
3.31763e-05
7.6545e-06
3.3976e-05
6.90359e-06
3.45675e-05
6.19991e-06
3.49304e-05
5.5137e-06
3.50531e-05
4.85645e-06
3.51475e-05
4.21396e-06
3.50746e-05
3.73735e-06
3.48446e-05
3.30607e-06
2.93587e-06
3.44708e-05
1.98699e-05
2.03824e-05
2.27505e-05
1.32141e-05
2.55339e-05
1.23176e-05
2.80308e-05
1.17321e-05
3.02523e-05
1.11044e-05
3.21724e-05
1.05114e-05
3.38531e-05
9.86556e-06
3.52916e-05
9.19294e-06
3.65302e-05
8.49014e-06
3.75491e-05
7.77068e-06
3.83441e-05
7.06241e-06
3.8958e-05
6.36667e-06
3.93852e-05
5.70947e-06
3.96083e-05
5.10999e-06
3.95945e-05
4.56885e-06
3.9541e-05
4.01692e-06
3.93537e-05
3.61755e-06
3.24369e-06
3.90769e-05
2.33948e-05
1.95305e-05
2.62994e-05
1.25508e-05
2.91062e-05
1.16415e-05
3.17525e-05
1.10442e-05
3.4174e-05
1.04507e-05
3.63778e-05
9.87979e-06
3.82976e-05
9.32395e-06
3.99452e-05
8.73437e-06
4.13316e-05
8.10684e-06
4.24701e-05
7.45666e-06
4.33708e-05
6.8178e-06
4.40405e-05
6.19147e-06
4.44884e-05
5.60608e-06
4.47361e-05
5.06864e-06
4.47987e-05
4.5892e-06
4.4633e-05
4.1566e-06
4.44437e-05
3.68578e-06
3.33879e-06
4.41449e-05
2.32967e-05
1.76833e-05
2.61622e-05
1.12631e-05
2.88229e-05
1.04494e-05
3.13107e-05
9.87695e-06
3.35882e-05
9.3315e-06
3.56806e-05
8.78641e-06
3.75781e-05
8.27193e-06
3.92398e-05
7.76656e-06
4.06372e-05
7.25426e-06
4.17676e-05
6.72761e-06
4.26348e-05
6.21294e-06
4.32457e-05
5.71237e-06
4.36352e-05
5.22595e-06
4.38415e-05
4.75962e-06
4.38968e-05
4.33192e-06
4.38287e-05
3.93557e-06
4.35984e-05
3.55499e-06
3.19537e-06
4.33158e-05
2.0625e-05
1.57295e-05
2.29758e-05
9.88041e-06
2.52806e-05
9.02601e-06
2.7415e-05
8.50858e-06
2.93212e-05
8.06874e-06
3.10072e-05
7.62512e-06
3.24776e-05
7.21086e-06
3.38156e-05
6.72544e-06
3.49615e-05
6.29485e-06
3.5889e-05
5.87913e-06
3.65978e-05
5.48005e-06
3.7118e-05
5.07194e-06
3.74708e-05
4.66298e-06
3.76741e-05
4.26656e-06
3.77597e-05
3.88495e-06
3.77518e-05
3.52042e-06
3.76519e-05
3.1783e-06
2.90955e-06
3.74159e-05
1.83486e-05
1.36364e-05
2.04361e-05
8.40966e-06
2.23276e-05
7.67849e-06
2.40595e-05
7.22979e-06
2.56922e-05
6.79371e-06
2.713e-05
6.44786e-06
2.84194e-05
6.08968e-06
2.95008e-05
5.72346e-06
3.04742e-05
5.31453e-06
3.12921e-05
4.97047e-06
3.19704e-05
4.62949e-06
3.24987e-05
4.29515e-06
3.28873e-05
3.95669e-06
3.31452e-05
3.62869e-06
3.32786e-05
3.31585e-06
3.32962e-05
3.02033e-06
3.32002e-05
2.74969e-06
2.55444e-06
3.29986e-05
1.6438e-05
1.14462e-05
1.81513e-05
7.10851e-06
1.97789e-05
6.40146e-06
2.13183e-05
5.96839e-06
2.27491e-05
5.5619e-06
2.40369e-05
5.28053e-06
2.51347e-05
5.03518e-06
2.6071e-05
4.75503e-06
2.68425e-05
4.43897e-06
2.75143e-05
4.12528e-06
2.80709e-05
3.8307e-06
2.85124e-05
3.54832e-06
2.88461e-05
3.25924e-06
2.90657e-05
2.99362e-06
2.91842e-05
2.73722e-06
2.9199e-05
2.50673e-06
2.91194e-05
2.29891e-06
2.15362e-06
2.89649e-05
1.44083e-05
9.42404e-06
1.62605e-05
5.55494e-06
1.78875e-05
5.01958e-06
1.92765e-05
4.76249e-06
2.04439e-05
4.51099e-06
2.14653e-05
4.30909e-06
2.23605e-05
4.12184e-06
2.31475e-05
3.88557e-06
2.3817e-05
3.62372e-06
2.43948e-05
3.34062e-06
2.48951e-05
3.06464e-06
2.52913e-05
2.8317e-06
2.55826e-05
2.59657e-06
2.57669e-05
2.39372e-06
2.586e-05
2.19041e-06
2.58586e-05
2.02213e-06
2.578e-05
1.86601e-06
1.73363e-06
2.56688e-05
1.28249e-05
7.6396e-06
1.43434e-05
4.26374e-06
1.56657e-05
3.88291e-06
1.68548e-05
3.70721e-06
1.79171e-05
3.52307e-06
1.88788e-05
3.36073e-06
1.97515e-05
3.20364e-06
2.04986e-05
3.03553e-06
2.11356e-05
2.8266e-06
2.16502e-05
2.61175e-06
2.20707e-05
2.37766e-06
2.24123e-05
2.17601e-06
2.26679e-05
1.98283e-06
2.28398e-05
1.82466e-06
2.29309e-05
1.66824e-06
2.29484e-05
1.5454e-06
2.28793e-05
1.4542e-06
1.29431e-06
2.28218e-05
1.13894e-05
6.07943e-06
1.264e-05
3.19694e-06
1.38888e-05
2.783e-06
1.50427e-05
2.65623e-06
1.60569e-05
2.55788e-06
1.69352e-05
2.4786e-06
1.76986e-05
2.384e-06
1.83593e-05
2.26696e-06
1.8925e-05
2.1037e-06
1.93879e-05
1.94256e-06
1.9746e-05
1.76705e-06
2.00135e-05
1.61351e-06
2.02098e-05
1.45231e-06
2.03418e-05
1.32384e-06
2.04043e-05
1.20629e-06
2.04148e-05
1.11052e-06
2.0389e-05
1.03612e-06
8.7363e-07
2.03515e-05
1.0165e-05
4.54264e-06
1.14587e-05
2.0558e-06
1.26011e-05
1.76356e-06
1.359e-05
1.75178e-06
1.44287e-05
1.7577e-06
1.51428e-05
1.75533e-06
1.57785e-05
1.69109e-06
1.63427e-05
1.5987e-06
1.68373e-05
1.45908e-06
1.72566e-05
1.33006e-06
1.75842e-05
1.20532e-06
1.78186e-05
1.10735e-06
1.79673e-05
9.98428e-07
1.80536e-05
9.01382e-07
1.80817e-05
8.15411e-07
1.80603e-05
7.46689e-07
1.80541e-05
6.39408e-07
5.26646e-07
1.79849e-05
9.35286e-06
3.1499e-06
1.0374e-05
1.164e-06
1.12975e-05
9.47651e-07
1.21145e-05
1.0092e-06
1.28355e-05
1.06887e-06
1.3482e-05
1.09698e-06
1.40664e-05
1.05094e-06
1.45753e-05
9.91388e-07
1.50009e-05
8.94889e-07
1.53332e-05
8.21176e-07
1.55731e-05
7.52854e-07
1.57378e-05
6.96867e-07
1.58269e-05
6.33374e-07
1.58538e-05
5.71172e-07
1.58162e-05
5.26291e-07
1.57716e-05
4.45274e-07
1.56809e-05
3.68712e-07
3.00461e-07
1.5534e-05
8.34551e-06
1.86558e-06
9.37379e-06
2.50938e-07
1.02056e-05
2.10546e-07
1.09052e-05
3.74745e-07
1.1499e-05
5.02287e-07
1.2009e-05
5.74852e-07
1.24309e-05
5.78231e-07
1.27675e-05
5.67038e-07
1.30176e-05
5.21748e-07
1.31858e-05
4.96132e-07
1.32797e-05
4.69895e-07
1.33114e-05
4.45551e-07
1.32892e-05
4.08426e-07
1.32197e-05
3.68743e-07
1.31105e-05
3.42931e-07
1.29538e-05
2.92333e-07
1.27206e-05
2.7868e-07
2.42935e-07
1.2444e-05
7.29081e-06
6.76737e-07
8.19097e-06
-5.45567e-07
8.82795e-06
-3.42538e-07
9.31751e-06
-5.8247e-08
9.68627e-06
1.56916e-07
9.96854e-06
2.82065e-07
1.01664e-05
3.36272e-07
1.02968e-05
3.59775e-07
1.0365e-05
3.44415e-07
1.03788e-05
3.4189e-07
1.03492e-05
3.28988e-07
1.02946e-05
3.01713e-07
1.01763e-05
3.03326e-07
1.00053e-05
2.94343e-07
9.82977e-06
2.54282e-07
9.59011e-06
2.52025e-07
9.35732e-06
2.18479e-07
2.1832e-07
9.07892e-06
6.45079e-06
-3.04898e-07
6.76099e-06
-7.63058e-07
6.87095e-06
-3.78172e-07
6.94029e-06
-7.75711e-08
7.01288e-06
1.04841e-07
7.09682e-06
1.88159e-07
7.17598e-06
2.16534e-07
7.24008e-06
2.24343e-07
7.27046e-06
2.1211e-07
7.2845e-06
1.97123e-07
7.2708e-06
1.85045e-07
7.21327e-06
1.77329e-07
7.14144e-06
1.71226e-07
7.04542e-06
1.66882e-07
6.91853e-06
1.40908e-07
6.75642e-06
1.60156e-07
6.57469e-06
1.34357e-07
1.35598e-07
6.38436e-06
4.50976e-06
3.90847e-06
3.66327e-06
3.68486e-06
3.85451e-06
4.07467e-06
4.29136e-06
4.4853e-06
4.63787e-06
4.7484e-06
4.82175e-06
4.86443e-06
4.88023e-06
4.87321e-06
4.82437e-06
4.78118e-06
4.70107e-06
4.61683e-06
-7.09999e-07
2.72239e-08
-1.48462e-06
7.65155e-08
-2.12405e-06
-5.2954e-08
-2.68537e-06
-1.2241e-07
-3.12716e-06
-2.30759e-07
-3.44722e-06
-3.57508e-07
-3.62732e-06
-4.99059e-07
-3.71048e-06
-6.01122e-07
-3.7548e-06
-6.45418e-07
-3.80009e-06
-6.48674e-07
-3.8672e-06
-6.29971e-07
-3.9507e-06
-6.15404e-07
-4.0522e-06
-5.99777e-07
-4.16462e-06
-5.90142e-07
-4.28848e-06
-5.78395e-07
-4.39983e-06
-5.90222e-07
-4.49472e-06
-6.06365e-07
-4.57198e-06
-6.22744e-07
-4.61717e-06
-6.53361e-07
-4.61466e-06
-7.00056e-07
-4.55927e-06
-7.53103e-07
-4.49325e-06
-7.62593e-07
-4.40418e-06
-7.82251e-07
-4.26218e-06
-8.34516e-07
-4.08876e-06
-8.66261e-07
-3.93281e-06
-8.45872e-07
-3.76215e-06
-8.57954e-07
-3.60227e-06
-8.45089e-07
-3.46499e-06
-8.16996e-07
-3.30224e-06
-8.37598e-07
-3.14243e-06
-8.30405e-07
-3.00006e-06
-8.06075e-07
-2.85882e-06
-7.977e-07
-2.76905e-06
-7.38367e-07
-2.70537e-06
-7.02042e-07
-2.69488e-06
-6.36861e-07
-2.77925e-06
-5.28703e-07
-2.98198e-06
-3.95679e-07
-3.32453e-06
-2.3533e-07
-3.81386e-06
-6.61185e-08
-4.50011e-06
1.49866e-07
-5.34155e-06
3.36887e-07
-6.37073e-06
5.74377e-07
-7.52822e-06
7.46833e-07
-8.59887e-06
6.85028e-07
-9.51944e-06
5.59286e-07
-1.04254e-05
5.85595e-07
-1.13263e-05
6.39518e-07
-1.20401e-05
5.29159e-07
-1.26057e-05
4.57837e-07
-1.3206e-05
5.57461e-07
-1.39917e-05
8.0237e-07
-1.49523e-05
1.05321e-06
-1.58634e-05
1.11773e-06
-1.64388e-05
9.10784e-07
-1.66935e-05
7.02902e-07
-1.675e-05
6.18938e-07
-1.63458e-05
3.1993e-07
-1.60351e-05
6.67033e-07
-1.68037e-05
1.97239e-06
-1.80209e-05
2.45077e-06
-1.88905e-05
2.08068e-06
-1.95984e-05
2.03313e-06
-1.95035e-05
1.41947e-06
-1.8327e-05
5.21933e-07
-1.69763e-05
5.58789e-07
-1.59794e-05
1.21674e-06
-1.54601e-05
2.02236e-06
-1.55151e-05
2.73702e-06
-1.64231e-05
3.53789e-06
-1.78936e-05
4.08877e-06
-1.94253e-05
4.31639e-06
-2.07778e-05
4.38284e-06
-2.19165e-05
4.39133e-06
-2.28395e-05
4.36554e-06
-2.3523e-05
4.30254e-06
-2.39973e-05
4.25988e-06
-2.4297e-05
4.23796e-06
-2.44512e-05
4.23365e-06
-2.44353e-05
4.19765e-06
-2.42648e-05
4.17381e-06
-2.39571e-05
4.16418e-06
-2.3548e-05
4.17874e-06
-2.30147e-05
4.1582e-06
-2.23379e-05
4.11621e-06
-2.15497e-05
4.1041e-06
-2.06842e-05
4.12259e-06
-1.97229e-05
4.11723e-06
-1.86964e-05
4.13912e-06
-1.75934e-05
4.14007e-06
-1.64076e-05
4.12558e-06
-1.52513e-05
4.23375e-06
-1.40703e-05
4.28188e-06
-1.28338e-05
4.28884e-06
-1.16838e-05
4.44947e-06
-1.04607e-05
4.4173e-06
-9.26107e-06
4.48625e-06
-8.04777e-06
4.52753e-06
-6.91209e-06
4.6673e-06
-5.8385e-06
4.75188e-06
-4.77891e-06
4.8031e-06
-3.70557e-06
4.81439e-06
-2.74018e-06
4.94424e-06
-1.87487e-06
5.05192e-06
-1.06089e-06
5.10532e-06
-3.35093e-07
5.18598e-06
3.46816e-07
5.21526e-06
9.91618e-07
5.2323e-06
1.5935e-06
5.24267e-06
2.17515e-06
5.21779e-06
2.70416e-06
5.21197e-06
3.18444e-06
5.19188e-06
3.56092e-06
5.22412e-06
3.8981e-06
5.1941e-06
4.26e-06
5.08087e-06
4.7319e-06
4.86917e-06
5.25198e-06
4.70442e-06
5.75062e-06
4.60435e-06
6.10049e-06
4.63171e-06
6.38772e-06
4.5833e-06
6.85326e-06
4.28734e-06
7.43081e-06
4.02085e-06
7.77707e-06
4.04839e-06
8.06315e-06
3.89481e-06
8.47228e-06
3.54047e-06
8.92898e-06
3.25419e-06
9.12892e-06
3.28631e-06
8.90846e-06
3.51017e-06
8.26652e-06
3.74641e-06
7.34254e-06
3.83107e-06
6.01509e-06
4.00195e-06
4.67473e-06
3.76086e-06
3.36797e-06
3.4808e-06
2.55905e-06
2.72013e-06
1.50967e-06
2.693e-06
1.08742e-06
1.79917e-06
-1.84904e-07
2.37236e-06
-1.06471e-06
1.73279e-06
-1.89496e-06
1.45906e-06
-3.06055e-06
1.54219e-06
-3.89829e-06
1.02912e-06
-4.85294e-06
9.8251e-07
-5.61961e-06
6.63938e-07
-6.47641e-06
6.6205e-07
-7.19898e-06
4.72408e-07
-8.12617e-06
6.60597e-07
-8.72709e-06
3.5475e-07
-9.41194e-06
4.94847e-07
-9.73e-06
2.0519e-07
-1.00001e-05
2.66656e-07
-9.79522e-06
-9.37493e-08
-9.49531e-06
-5.48316e-08
-8.89648e-06
-2.07927e-07
-8.24108e-06
-1.13098e-07
-7.24794e-06
-2.76193e-07
-6.19317e-06
-1.66078e-07
-5.44806e-06
3.15934e-07
-5.15824e-06
9.49055e-07
-5.03155e-06
1.28572e-06
-5.09296e-06
1.63752e-06
-4.9308e-06
1.56791e-06
-4.89824e-06
1.87453e-06
-4.79475e-06
1.97862e-06
-4.84479e-06
2.31336e-06
-4.82292e-06
2.45936e-06
-4.66993e-06
2.51968e-06
-4.27615e-06
2.52383e-06
-3.43947e-06
2.3083e-06
-2.63635e-06
2.62899e-06
-1.47375e-06
2.48992e-06
-4.23185e-07
2.75379e-06
-2.02364e-07
3.8002e-06
2.20402e-07
3.80114e-06
8.0137e-07
3.8701e-06
9.34159e-07
4.62576e-06
1.26293e-06
4.70955e-06
3.44379e-06
3.18582e-06
5.82644e-06
3.076e-06
7.17593e-06
4.22739e-06
4.49112e-06
8.35375e-06
-5.08891e-07
-1.36362e-07
-1.39936e-06
2.77596e-07
-2.20298e-06
1.04366e-07
-2.80436e-06
-1.57714e-07
-3.26123e-06
-4.1222e-07
-3.5429e-06
-7.131e-07
-3.6738e-06
-1.00989e-06
-3.7114e-06
-1.2109e-06
-3.73318e-06
-1.27926e-06
-3.78512e-06
-1.26158e-06
-3.87168e-06
-1.21348e-06
-3.99558e-06
-1.16581e-06
-4.14479e-06
-1.12928e-06
-4.30084e-06
-1.11678e-06
-4.44778e-06
-1.11684e-06
-4.5874e-06
-1.13845e-06
-4.68944e-06
-1.19496e-06
-4.75532e-06
-1.24932e-06
-4.79865e-06
-1.30593e-06
-4.77888e-06
-1.42012e-06
-4.71848e-06
-1.5157e-06
-4.61086e-06
-1.56986e-06
-4.45488e-06
-1.6347e-06
-4.25369e-06
-1.73644e-06
-4.04367e-06
-1.77897e-06
-3.82593e-06
-1.75917e-06
-3.59281e-06
-1.78499e-06
-3.36723e-06
-1.76267e-06
-3.1429e-06
-1.72311e-06
-2.89645e-06
-1.76254e-06
-2.62665e-06
-1.77294e-06
-2.35748e-06
-1.73934e-06
-2.04111e-06
-1.77475e-06
-1.77814e-06
-1.65059e-06
-1.53235e-06
-1.58515e-06
-1.27845e-06
-1.51849e-06
-1.08805e-06
-1.33037e-06
-9.69005e-07
-1.11142e-06
-9.34148e-07
-8.48991e-07
-1.01084e-06
-5.43132e-07
-1.24254e-06
-1.51404e-07
-1.58432e-06
1.74125e-07
-2.06706e-06
5.8971e-07
-2.7568e-06
9.96921e-07
-3.6771e-06
1.20084e-06
-4.817e-06
1.36752e-06
-6.11218e-06
1.59489e-06
-7.37793e-06
1.6014e-06
-8.59227e-06
1.46376e-06
-9.71944e-06
1.42622e-06
-1.06259e-05
1.42698e-06
-1.13123e-05
1.52526e-06
-1.19793e-05
1.80129e-06
-1.25933e-05
1.91466e-06
-1.30472e-05
1.75582e-06
-1.34843e-05
1.68585e-06
-1.34716e-05
1.21918e-06
-1.29604e-05
4.87313e-07
-1.28575e-05
1.31253e-06
-1.27825e-05
2.86588e-06
-1.24282e-05
3.39748e-06
-1.34116e-05
4.53594e-06
-1.49528e-05
5.07941e-06
-1.51464e-05
3.18376e-06
-1.51764e-05
2.24568e-06
-1.62079e-05
3.43301e-06
-1.8168e-05
5.23726e-06
-2.05287e-05
6.6707e-06
-2.28002e-05
7.4827e-06
-2.46359e-05
8.0132e-06
-2.60224e-05
8.28665e-06
-2.70741e-05
8.36288e-06
-2.78973e-05
8.37107e-06
-2.84955e-05
8.30918e-06
-2.88665e-05
8.20534e-06
-2.9058e-05
8.1112e-06
-2.90689e-05
8.02305e-06
-2.89642e-05
7.99334e-06
-2.86843e-05
7.9088e-06
-2.82819e-05
7.84761e-06
-2.7769e-05
7.82551e-06
-2.71511e-05
7.82976e-06
-2.63948e-05
7.81118e-06
-2.55217e-05
7.74541e-06
-2.45582e-05
7.68254e-06
-2.35225e-05
7.66736e-06
-2.24277e-05
7.70552e-06
-2.12121e-05
7.64984e-06
-1.99272e-05
7.67537e-06
-1.86076e-05
7.72451e-06
-1.72515e-05
7.68789e-06
-1.59671e-05
7.93767e-06
-1.46238e-05
8.01721e-06
-1.32748e-05
8.04268e-06
-1.1981e-05
8.36684e-06
-1.05616e-05
8.27681e-06
-9.2454e-06
8.4706e-06
-7.98779e-06
8.57672e-06
-6.70056e-06
8.82573e-06
-5.51672e-06
9.06845e-06
-4.36933e-06
9.19603e-06
-3.23437e-06
9.26927e-06
-2.17058e-06
9.54059e-06
-1.13383e-06
9.72691e-06
-2.34138e-07
9.99584e-06
6.23562e-07
1.01783e-05
1.40072e-06
1.03426e-05
2.12401e-06
1.04421e-05
2.79187e-06
1.05403e-05
3.45946e-06
1.05246e-05
4.07295e-06
1.06028e-05
4.61406e-06
1.06678e-05
5.06145e-06
1.07936e-05
5.4144e-06
1.08101e-05
5.82423e-06
1.05274e-05
6.41057e-06
1.00223e-05
6.90499e-06
9.84228e-06
7.30759e-06
9.69929e-06
7.80913e-06
9.54525e-06
8.11054e-06
9.61072e-06
8.31277e-06
9.27714e-06
8.95607e-06
8.46282e-06
9.5744e-06
8.29292e-06
9.6819e-06
8.24149e-06
9.51489e-06
7.71664e-06
9.40729e-06
7.03684e-06
9.00559e-06
7.17673e-06
8.23638e-06
7.62453e-06
7.07659e-06
8.08724e-06
5.87288e-06
8.00832e-06
4.50334e-06
8.1215e-06
2.94062e-06
7.84111e-06
1.64057e-06
7.04411e-06
1.17652e-06
5.18e-06
6.49766e-07
4.91327e-06
-2.3432e-07
4.08269e-06
-1.68846e-06
4.94185e-06
-2.33586e-06
3.2016e-06
-2.7693e-06
2.5511e-06
-3.55926e-06
2.73152e-06
-4.54284e-06
2.18331e-06
-5.23977e-06
1.68381e-06
-5.96995e-06
1.24823e-06
-6.64241e-06
1.08985e-06
-7.20972e-06
7.40808e-07
-7.81183e-06
9.44953e-07
-8.42579e-06
6.73617e-07
-8.99936e-06
8.39828e-07
-9.03458e-06
7.77832e-08
-8.91259e-06
1.06271e-07
-8.46621e-06
-4.59935e-07
-7.90934e-06
-3.92485e-07
-7.16502e-06
-5.82692e-07
-6.39215e-06
-3.77185e-07
-4.92664e-06
-1.06247e-06
-3.04958e-06
-1.20803e-06
-1.57003e-06
-1.66679e-07
-7.01149e-07
1.26401e-06
-3.96634e-07
2.36649e-06
-3.03714e-07
3.12502e-06
-3.7952e-07
3.38468e-06
-6.26427e-07
4.05733e-06
-9.63026e-07
4.44126e-06
-1.46355e-06
5.12106e-06
-1.70082e-06
5.25139e-06
-1.67656e-06
5.24859e-06
-1.08967e-06
4.96918e-06
-8.88266e-08
4.54965e-06
5.44638e-07
5.74178e-06
1.39576e-06
5.60557e-06
1.93459e-06
6.19987e-06
7.39608e-07
9.07777e-06
2.74694e-07
8.39828e-06
1.55691e-06
6.9697e-06
2.68822e-06
8.50304e-06
3.51045e-06
9.45629e-06
6.98869e-06
5.74018e-06
1.01853e-05
6.0037e-06
1.19662e-05
8.59805e-06
9.19421e-06
1.32364e-05
-1.55101e-07
-6.17994e-07
-6.82452e-07
1.24848e-07
-1.46946e-06
2.34165e-07
-2.17583e-06
-6.35685e-08
-2.69828e-06
-5.02286e-07
-3.04089e-06
-1.01055e-06
-3.21426e-06
-1.47654e-06
-3.26364e-06
-1.78533e-06
-3.3276e-06
-1.84995e-06
-3.45552e-06
-1.78629e-06
-3.64681e-06
-1.68574e-06
-3.87478e-06
-1.61038e-06
-4.12162e-06
-1.56275e-06
-4.38147e-06
-1.54505e-06
-4.62237e-06
-1.57185e-06
-4.84794e-06
-1.61603e-06
-5.05437e-06
-1.69791e-06
-5.22097e-06
-1.79695e-06
-5.33636e-06
-1.90812e-06
-5.40833e-06
-2.0623e-06
-5.43682e-06
-2.19274e-06
-5.35773e-06
-2.3492e-06
-5.21118e-06
-2.47956e-06
-5.04206e-06
-2.60011e-06
-4.88625e-06
-2.62223e-06
-4.7065e-06
-2.61856e-06
-4.5506e-06
-2.61765e-06
-4.399e-06
-2.58227e-06
-4.19771e-06
-2.58336e-06
-3.983e-06
-2.63499e-06
-3.72644e-06
-2.67864e-06
-3.42942e-06
-2.67905e-06
-3.09972e-06
-2.74229e-06
-2.79929e-06
-2.57458e-06
-2.46074e-06
-2.53527e-06
-2.12441e-06
-2.45631e-06
-1.7378e-06
-2.29879e-06
-1.36136e-06
-2.0614e-06
-1.08701e-06
-1.67967e-06
-8.61355e-07
-1.30347e-06
-7.45339e-07
-7.84888e-07
-7.76968e-07
-2.84439e-07
-9.30138e-07
2.85435e-07
-1.30563e-06
9.48695e-07
-1.97509e-06
1.48931e-06
-2.87491e-06
1.93618e-06
-3.86948e-06
2.29848e-06
-4.87545e-06
2.35434e-06
-5.85354e-06
2.25499e-06
-6.92984e-06
2.40727e-06
-7.94142e-06
2.38953e-06
-8.5958e-06
2.12657e-06
-8.94446e-06
2.13616e-06
-9.20317e-06
2.26486e-06
-9.47899e-06
2.30302e-06
-9.67133e-06
2.36377e-06
-9.57295e-06
1.71e-06
-9.87063e-06
1.43047e-06
-1.05314e-05
2.77358e-06
-1.06271e-05
3.86601e-06
-1.13097e-05
5.05797e-06
-1.29551e-05
7.43914e-06
-1.38147e-05
7.45339e-06
-1.49644e-05
5.84161e-06
-1.78682e-05
6.67096e-06
-2.12833e-05
8.62671e-06
-2.39194e-05
9.90069e-06
-2.57469e-05
1.06858e-05
-2.70317e-05
1.11138e-05
-2.79248e-05
1.14141e-05
-2.8462e-05
1.14833e-05
-2.87685e-05
1.14579e-05
-2.88518e-05
1.13511e-05
-2.87831e-05
1.12472e-05
-2.86474e-05
1.11964e-05
-2.8437e-05
1.1158e-05
-2.81742e-05
1.11509e-05
-2.77875e-05
1.11122e-05
-2.7324e-05
1.10484e-05
-2.67535e-05
1.09672e-05
-2.6121e-05
1.09827e-05
-2.54106e-05
1.10071e-05
-2.46417e-05
1.10288e-05
-2.38017e-05
1.0977e-05
-2.28311e-05
1.08533e-05
-2.17655e-05
1.0813e-05
-2.06377e-05
1.0857e-05
-1.94325e-05
1.07516e-05
-1.81583e-05
1.07058e-05
-1.68934e-05
1.08679e-05
-1.55249e-05
1.07448e-05
-1.42219e-05
1.10968e-05
-1.28862e-05
1.12089e-05
-1.16076e-05
1.13065e-05
-1.03213e-05
1.1631e-05
-8.94516e-06
1.14985e-05
-7.63585e-06
1.17979e-05
-6.44404e-06
1.19977e-05
-5.15344e-06
1.21326e-05
-3.94868e-06
1.25165e-05
-2.90809e-06
1.28147e-05
-1.81683e-06
1.28321e-05
-7.95421e-07
1.31647e-05
2.6232e-07
1.33101e-05
1.19778e-06
1.37105e-05
2.0759e-06
1.39508e-05
2.84888e-06
1.4258e-05
3.55217e-06
1.44374e-05
4.14561e-06
1.46869e-05
4.69907e-06
1.47242e-05
5.23233e-06
1.49002e-05
5.72795e-06
1.51252e-05
6.13316e-06
1.54783e-05
6.42315e-06
1.56202e-05
6.68441e-06
1.53289e-05
7.03317e-06
1.46286e-05
7.54046e-06
1.44095e-05
7.84952e-06
1.45877e-05
8.10287e-06
1.44319e-05
8.62883e-06
1.42568e-05
8.81716e-06
1.41881e-05
8.9078e-06
1.32729e-05
9.48921e-06
1.25439e-05
9.93793e-06
1.23267e-05
9.3926e-06
1.21706e-05
8.5385e-06
1.13519e-05
7.78427e-06
1.13332e-05
7.01486e-06
1.17819e-05
6.04101e-06
1.23221e-05
4.95844e-06
1.21671e-05
3.62988e-06
1.22741e-05
2.72379e-06
1.13085e-05
2.06577e-06
1.01157e-05
1.24411e-06
8.11441e-06
1.44518e-06
6.49157e-06
7.40367e-07
6.20742e-06
-8.0411e-07
7.59684e-06
-1.58594e-06
4.80415e-06
-2.33781e-06
3.89017e-06
-2.64938e-06
3.4604e-06
-3.46912e-06
3.2219e-06
-3.81764e-06
2.10256e-06
-4.40913e-06
1.78868e-06
-4.86944e-06
1.39359e-06
-5.43211e-06
1.08192e-06
-6.08957e-06
1.35925e-06
-6.60761e-06
9.66078e-07
-7.02637e-06
1.10901e-06
-7.38673e-06
3.46391e-07
-7.27071e-06
1.93008e-08
-6.68332e-06
-8.89336e-07
-6.18416e-06
-5.80502e-07
-5.78595e-06
-5.04779e-07
-5.55126e-06
2.2969e-08
-4.29502e-06
-1.56978e-06
-2.27271e-06
-2.37161e-06
-1.04778e-07
-1.33442e-06
1.2805e-06
1.04329e-06
1.98821e-06
3.00211e-06
2.5423e-06
4.10908e-06
2.98296e-06
4.7015e-06
2.96533e-06
6.00035e-06
2.43179e-06
7.04726e-06
1.88681e-06
7.98949e-06
1.39086e-06
8.23809e-06
1.1418e-06
8.12333e-06
1.12837e-06
7.72769e-06
2.05611e-06
6.4327e-06
2.67449e-06
8.62154e-06
2.65538e-06
9.57976e-06
1.81432e-06
1.09741e-05
-2.01424e-07
1.49992e-05
-1.38115e-06
1.37802e-05
-2.66173e-07
1.02427e-05
1.56525e-06
1.15178e-05
3.16125e-06
1.33021e-05
7.66894e-06
6.636e-06
1.20514e-05
7.57919e-06
1.48834e-05
1.18856e-05
1.36081e-05
1.62144e-05
2.02429e-08
-1.23349e-06
-6.17985e-08
-4.22057e-07
-5.20097e-07
3.65931e-08
-1.15402e-06
-7.2162e-08
-1.76975e-06
-5.20661e-07
-2.21162e-06
-1.19294e-06
-2.45865e-06
-1.80352e-06
-2.63004e-06
-2.1703e-06
-2.86011e-06
-2.2196e-06
-3.17496e-06
-2.11219e-06
-3.54759e-06
-1.97625e-06
-3.95076e-06
-1.88356e-06
-4.33832e-06
-1.86258e-06
-4.68125e-06
-1.89868e-06
-5.02192e-06
-1.93359e-06
-5.43937e-06
-1.89768e-06
-5.92454e-06
-1.89945e-06
-6.3741e-06
-2.01559e-06
-6.70777e-06
-2.22122e-06
-6.91638e-06
-2.48231e-06
-6.94772e-06
-2.78509e-06
-6.83158e-06
-3.0908e-06
-6.64912e-06
-3.28464e-06
-6.47657e-06
-3.39111e-06
-6.34453e-06
-3.37574e-06
-6.24013e-06
-3.34681e-06
-6.18161e-06
-3.2985e-06
-6.09382e-06
-3.28855e-06
-5.93679e-06
-3.36016e-06
-5.77975e-06
-3.41165e-06
-5.5472e-06
-3.52294e-06
-5.27566e-06
-3.55325e-06
-5.00636e-06
-3.61191e-06
-4.66498e-06
-3.49535e-06
-4.28267e-06
-3.4865e-06
-3.82625e-06
-3.47423e-06
-3.30537e-06
-3.36966e-06
-2.9032e-06
-3.01293e-06
-2.47715e-06
-2.6277e-06
-2.11679e-06
-2.16267e-06
-1.69272e-06
-1.69597e-06
-1.25684e-06
-1.18186e-06
-1.08929e-06
-3.22725e-07
-1.13747e-06
5.762e-07
-1.29333e-06
1.26351e-06
-1.78337e-06
2.09978e-06
-2.71209e-06
2.95901e-06
-3.86876e-06
3.28294e-06
-4.99678e-06
3.20313e-06
-5.90758e-06
3.20279e-06
-6.53785e-06
2.98998e-06
-7.02129e-06
2.64553e-06
-7.46525e-06
2.65261e-06
-7.8583e-06
2.79372e-06
-7.97698e-06
2.6654e-06
-7.59534e-06
2.34649e-06
-7.54115e-06
2.10276e-06
-8.13867e-06
2.60149e-06
-8.54969e-06
3.95074e-06
-9.42952e-06
5.54001e-06
-1.15768e-05
8.06407e-06
-1.30268e-05
1.00975e-05
-1.42456e-05
1.01004e-05
-1.75425e-05
1.05329e-05
-2.1331e-05
1.19386e-05
-2.39385e-05
1.29592e-05
-2.56512e-05
1.35119e-05
-2.67742e-05
1.38167e-05
-2.74666e-05
1.39424e-05
-2.77836e-05
1.40057e-05
-2.7894e-05
1.40103e-05
-2.78733e-05
1.39978e-05
-2.77243e-05
1.39151e-05
-2.75093e-05
1.39032e-05
-2.72035e-05
1.39332e-05
-2.69229e-05
1.40738e-05
-2.66398e-05
1.41754e-05
-2.63628e-05
1.42398e-05
-2.60089e-05
1.4212e-05
-2.55562e-05
1.41438e-05
-2.4978e-05
1.41464e-05
-2.43053e-05
1.41677e-05
-2.35819e-05
1.42169e-05
-2.27731e-05
1.41721e-05
-2.18737e-05
1.40358e-05
-2.0887e-05
1.39907e-05
-1.97544e-05
1.4001e-05
-1.85487e-05
1.38948e-05
-1.72852e-05
1.37135e-05
-1.59201e-05
1.38139e-05
-1.45441e-05
1.37345e-05
-1.30725e-05
1.40471e-05
-1.16211e-05
1.42767e-05
-1.03709e-05
1.46788e-05
-9.09396e-06
1.50297e-05
-7.7106e-06
1.47516e-05
-6.39691e-06
1.51339e-05
-5.09735e-06
1.54178e-05
-3.82233e-06
1.55412e-05
-2.61236e-06
1.60419e-05
-1.57288e-06
1.6539e-05
-5.04908e-07
1.65205e-05
6.07493e-07
1.67693e-05
1.60898e-06
1.69859e-05
2.50823e-06
1.74339e-05
3.37734e-06
1.7607e-05
4.16218e-06
1.79423e-05
4.91096e-06
1.80954e-05
5.52407e-06
1.83846e-05
6.14796e-06
1.83416e-05
6.71871e-06
1.85212e-05
7.24311e-06
1.86759e-05
7.65898e-06
1.91329e-05
7.98385e-06
1.93596e-05
8.22467e-06
1.91939e-05
8.41449e-06
1.8586e-05
8.57221e-06
1.83555e-05
8.70056e-06
1.85922e-05
8.61693e-06
1.88303e-05
8.88992e-06
1.8445e-05
9.42354e-06
1.83233e-05
9.50245e-06
1.78516e-05
9.37526e-06
1.72025e-05
9.55115e-06
1.6463e-05
9.31936e-06
1.6228e-05