/*--------------------------------*- C++ -*----------------------------------*\
| =========                 |                                                 |
| \\      /  F ield         | OpenFOAM: The Open Source CFD Toolbox           |
|  \\    /   O peration     | Version:  dev                                   |
|   \\  /    A nd           | Web:      http://www.openfoam.org               |
|    \\/     M anipulation  |                                                 |
\*---------------------------------------------------------------------------*/
FoamFile
{
    version     2.0;
    format      ascii;
    class       volScalarField;
    object      pMean;
    location    "9.125";
}
// * * * * * * * * * * * * * * * * * * * * * * * * * * * * * * * * * * * * * //

dimensions      [1 -1 -2 0 0 0 0];

internalField   nonuniform List<scalar> 
12225
(
98313.3
98293.5
98279.8
98272.8
98258.5
98249.1
98230.6
98221.1
98199.6
98190.8
98166.2
98159.3
98128.4
98122
98081.3
98041.6
97952.5
97586.7
98308.8
98292.4
98279.2
98272.3
98257.9
98248.5
98230
98220.5
98198.9
98190.4
98165.4
98158.8
98128
98120.1
98079.5
98045.7
97953.4
97792.4
98305
98290.9
98278.2
98270.9
98256.5
98247
98228.5
98219.2
98197.5
98189
98164.6
98156.7
98128.5
98116.7
98081.8
98046.6
97979.3
97890.5
98300
98287.9
98276.1
98268.4
98254.1
98244.3
98226.4
98216.5
98195.7
98186.3
98163.2
98153.6
98127.4
98114.5
98082.8
98055
98006.5
97937.7
98293.3
98283.5
98272.5
98264.4
98250.5
98240.2
98223.3
98212.3
98193.3
98182
98161.7
98149.1
98127.6
98111.3
98084.7
98060.5
98020.6
97988
98285.1
98277.4
98266.6
98258.3
98244.9
98234.3
98218.2
98206.6
98188.8
98176.7
98158.5
98144.9
98126.5
98109.6
98088.2
98062.9
98040.8
98020.4
98274.8
98268.4
98258.1
98249.6
98237
98225.9
98211.1
98198.5
98182.8
98169.3
98153.9
98138.8
98124.3
98106.7
98092.5
98071.5
98061.1
98046.2
98264
98258.4
98248.7
98240
98228.3
98216.8
98203.2
98190
98176
98161.7
98148.6
98133
98121.4
98104.1
98095.4
98077.6
98075.9
98060.9
98253.2
98247.8
98238.9
98230
98219.2
98207.4
98194.9
98181.4
98168.8
98154.2
98142.8
98127.3
98117.6
98101.6
98095.3
98081.1
98080.9
98068.9
98239.5
98234.1
98226.4
98217.4
98207.5
98195.7
98184.2
98170.7
98159.4
98144.9
98134.9
98120
98111.8
98097.4
98092.5
98080.7
98079.9
98071.6
98222.6
98217.1
98210.6
98201.8
98192.7
98181.2
98170.5
98157.5
98147
98133.4
98124.1
98110.9
98102.9
98091.4
98085.8
98077.2
98074.5
98069.4
98202
98196.3
98191.1
98182.7
98174.3
98163.3
98153.4
98141.1
98131.5
98119
98110.3
98098.8
98091.3
98082
98076.3
98069.9
98066.3
98062.7
98177.2
98172
98167.4
98159.9
98152
98142
98132.6
98121.7
98112.5
98101.8
98093.4
98084.1
98076.9
98069.7
98064.2
98059.4
98055.8
98053
98149
98144.2
98140.2
98133.6
98126.4
98117.5
98108.9
98099.4
98090.8
98081.9
98074.2
98066.6
98060.2
98054.5
98049.9
98046
98043.1
98041
98118.8
98115.1
98111.3
98105.9
98099.4
98091.8
98084
98075.9
98068.3
98060.9
98054.2
98048.1
98042.8
98038.2
98034.5
98031.6
98029.4
98027.9
98091.1
98088.3
98085
98080.5
98074.9
98068.4
98061.6
98054.7
98048.1
98042
98036.4
98031.4
98027.1
98023.5
98020.7
98018.5
98017
98016
98072.5
98070.5
98067.8
98063.9
98058.9
98053.2
98047.3
98041.4
98035.7
98030.5
98025.7
98021.5
98018
98015.1
98012.8
98011.1
98009.9
98009.3
98072.7
98071.1
98068.5
98064.8
98060.1
98054.7
98049.1
98043.6
98038.3
98033.3
98028.8
98024.9
98021.5
98018.8
98016.5
98014.8
98013.6
98012.9
98092.4
98090.6
98087.8
98083.8
98078.9
98073.3
98067.5
98061.8
98056.2
98051
98046.2
98041.9
98038.2
98035
98032.3
98030.2
98028.5
98027.3
98123.2
98121.1
98117.7
98113.2
98107.8
98101.7
98095.4
98089.1
98082.9
98077.1
98071.7
98066.8
98062.4
98058.5
98055.2
98052.3
98050
98048
98158.1
98155.5
98151.4
98146.3
98140.2
98133.5
98126.6
98119.6
98112.8
98106.3
98100.1
98094.5
98089.3
98084.7
98080.6
98077
98073.9
98071.2
98192
98188.9
98184.1
98178.3
98171.6
98164.4
98156.8
98149.2
98141.7
98134.6
98127.7
98121.4
98115.5
98110.2
98105.3
98101
98097.2
98093.8
98222.3
98218.6
98213.1
98206.6
98199.3
98191.6
98183.6
98175.4
98167.4
98159.7
98152.3
98145.3
98138.8
98132.8
98127.4
98122.4
98118
98113.9
98247.6
98243.2
98236.9
98229.8
98222.1
98214
98205.6
98197.1
98188.7
98180.5
98172.6
98165.1
98158.1
98151.7
98145.7
98140.2
98135.3
98130.7
98267.9
98262.7
98255.5
98247.8
98239.8
98231.5
98222.9
98214.1
98205.3
98196.7
98188.5
98180.7
98173.3
98166.4
98160.1
98154.2
98148.8
98143.9
98283.5
98277.2
98269.1
98261
98252.8
98244.3
98235.5
98226.6
98217.6
98208.8
98200.3
98192.2
98184.5
98177.4
98170.7
98164.6
98158.9
98153.7
98295.3
98287.5
98278.4
98269.9
98261.7
98253.1
98244.3
98235.2
98226.1
98217.2
98208.5
98200.2
98192.4
98185
98178.2
98171.8
98166
98160.6
98304
98294.2
98284.1
98275.5
98267.3
98258.8
98249.9
98240.8
98231.6
98222.6
98213.8
98205.4
98197.4
98190
98183
98176.5
98170.5
98165
98310.1
98298
98286.9
98278.3
98270.2
98261.9
98253.1
98244
98234.8
98225.7
98216.8
98208.4
98200.3
98192.8
98185.7
98179.2
98173.1
98167.5
98316.1
98300.6
98288.5
98279.6
98271.5
98263.1
98254.4
98245.3
98236.1
98227
98218.1
98209.6
98201.5
98194
98186.9
98180.3
98174.3
98168.7
98313.1
98312.7
98312
98310.8
98309.3
98307.5
98305.2
98302.6
98299.6
98296.1
98292.3
98288
98283.4
98278.5
98273.3
98267.8
98262.1
98256.2
98250.1
98243.8
98237.4
98230.8
98224.1
98217.3
98210.4
98203.4
98196.4
98189.3
98182.2
98175.2
98168.1
98161
98154
98147
98140.2
98133.4
98126.8
98120.3
98114
98107.8
98101.9
98096.2
98090.8
98085.7
98080.9
98076.4
98072.3
98068.6
98065.3
98062.4
98060
98058.1
98056.8
98055.9
98055.6
98056
98056.9
98058.6
98060.8
98063.8
98067.5
98071.8
98076.9
98082.7
98089.3
98096.5
98104.5
98113.1
98122.4
98132.4
98143
98154.2
98165.9
98178.2
98191
98204.2
98217.8
98231.8
98246.1
98260.7
98275.5
98290.5
98305.6
98320.9
98336.1
98351.4
98366.6
98381.6
98396.5
98411.2
98425.7
98439.8
98453.6
98466.9
98479.8
98492.3
98504.1
98515.5
98526.2
98536.4
98545.9
98554.7
98563
98570.5
98577.5
98583.8
98589.5
98594.7
98599.3
98603.3
98607
98610.2
98613
98615.5
98617.7
98619.6
98621.2
98622.7
98623.9
98625
98626.1
98627.2
98628.4
98629.7
98631.3
98633.3
98635.9
98639.3
98643.8
98649.4
98656.4
98665.1
98675.8
98688.7
98704
98722
98742.8
98766.6
98793.4
98823.2
98856.1
98892
98930.8
98972.3
99016.6
99063.2
99112.1
99162.8
99215.4
99269.6
99325
99381.4
99438.4
99495.8
99553
99609.6
99665
99718.8
99769.8
99817.7
99861.3
99899.6
99931.7
99956.8
99973.6
99981.2
99978.5
99965.6
99941.6
99907
99861.6
99806.9
99743
99672.3
99595.3
99514.8
99430.3
99345.6
99258.8
99175.6
98306.1
98305.8
98305
98303.8
98302.3
98300.4
98298.2
98295.6
98292.6
98289.2
98285.4
98281.3
98276.8
98272
98266.9
98261.6
98256.1
98250.3
98244.4
98238.3
98232.1
98225.7
98219.2
98212.5
98205.8
98199
98192.1
98185.2
98178.3
98171.3
98164.4
98157.5
98150.6
98143.8
98137.1
98130.5
98124
98117.7
98111.5
98105.5
98099.7
98094.1
98088.8
98083.7
98079
98074.6
98070.6
98066.9
98063.7
98060.8
98058.4
98056.5
98055.1
98054.3
98054
98054.3
98055.2
98056.7
98058.9
98061.8
98065.4
98069.7
98074.6
98080.3
98086.7
98093.8
98101.6
98110.1
98119.2
98129
98139.4
98150.4
98162
98174
98186.6
98199.6
98213
98226.7
98240.8
98255.1
98269.7
98284.5
98299.3
98314.3
98329.3
98344.3
98359.2
98374
98388.6
98403
98417.1
98431
98444.5
98457.5
98470.1
98482.3
98493.9
98505
98515.5
98525.3
98534.6
98543.3
98551.3
98558.7
98565.4
98571.6
98577.2
98582.1
98586.6
98590.6
98594.2
98597.3
98600.1
98602.5
98604.6
98606.4
98608
98609.4
98610.6
98611.6
98612.6
98613.6
98614.6
98615.8
98617.3
98619.1
98621.5
98624.6
98628.7
98634
98640.7
98648.9
98659.1
98671.5
98686.2
98703.5
98723.6
98746.6
98772.5
98801.4
98833.4
98868.3
98906.1
98946.5
98989.7
99035.1
99082.8
99132.4
99183.8
99236.8
99291.1
99346.3
99402.2
99458.5
99514.7
99570.4
99624.8
99677.8
99728.1
99775.4
99818.5
99856.6
99888.6
99913.8
99931
99939.1
99937.3
99925.5
99902.8
99869.6
99825.9
99772.9
99710.7
99641.9
99566.6
99487.9
99404.9
99321.8
99236
99151
98293.4
98293.1
98292.3
98291.1
98289.5
98287.5
98285.2
98282.6
98279.5
98276.2
98272.4
98268.4
98264.1
98259.5
98254.6
98249.6
98244.4
98239
98233.4
98227.7
98221.8
98215.8
98209.7
98203.4
98197.1
98190.6
98184.1
98177.5
98170.8
98164.2
98157.5
98150.9
98144.3
98137.7
98131.3
98124.9
98118.6
98112.5
98106.6
98100.8
98095.2
98089.8
98084.6
98079.7
98075.2
98070.9
98066.9
98063.4
98060.2
98057.4
98055
98053.1
98051.6
98050.7
98050.3
98050.5
98051.3
98052.8
98054.8
98057.5
98060.9
98065
98069.7
98075.2
98081.3
98088.1
98095.7
98103.8
98112.7
98122.1
98132.2
98142.8
98154
98165.7
98177.8
98190.4
98203.4
98216.7
98230.3
98244.2
98258.3
98272.6
98287
98301.4
98315.9
98330.4
98344.8
98359
98373.1
98387
98400.5
98413.8
98426.7
98439.2
98451.3
98462.9
98474
98484.5
98494.5
98503.9
98512.7
98520.9
98528.5
98535.5
98542
98547.8
98553.1
98557.8
98562.1
98565.9
98569.2
98572.2
98574.8
98577.1
98579.1
98580.8
98582.2
98583.5
98584.5
98585.4
98586.2
98587
98587.8
98588.6
98589.7
98591.2
98593.1
98595.7
98599.1
98603.7
98609.5
98616.9
98626.1
98637.3
98650.7
98666.7
98685.3
98706.7
98731
98758.1
98788.2
98821
98856.7
98894.9
98935.9
98979
99024.4
99071.6
99120.7
99171.3
99223.3
99276.2
99329.9
99384
99438
99491.6
99544.2
99595.4
99644.2
99690.1
99732.1
99769.4
99800.8
99826
99843.5
99852.4
99851.9
99841.9
99821.5
99791
99750.3
99700.7
99642.1
99577
99505.4
99430.1
99350.6
99270.7
99187.7
99103.8
98275.9
98275.6
98274.9
98273.7
98272.1
98270.1
98267.7
98265.1
98262.1
98258.7
98255.1
98251.2
98247.1
98242.7
98238.2
98233.5
98228.6
98223.6
98218.4
98213.1
98207.7
98202.2
98196.5
98190.7
98184.8
98178.8
98172.8
98166.7
98160.5
98154.3
98148.1
98141.9
98135.8
98129.6
98123.5
98117.5
98111.6
98105.8
98100.2
98094.7
98089.3
98084.2
98079.2
98074.5
98070.1
98065.9
98062.1
98058.6
98055.5
98052.8
98050.5
98048.5
98047.1
98046.1
98045.6
98045.7
98046.3
98047.6
98049.5
98051.9
98055.1
98058.8
98063.2
98068.3
98074.1
98080.5
98087.6
98095.4
98103.8
98112.7
98122.3
98132.4
98143.1
98154.2
98165.8
98177.8
98190.2
98202.9
98215.9
98229.1
98242.6
98256.2
98269.9
98283.6
98297.4
98311.1
98324.8
98338.3
98351.6
98364.7
98377.6
98390.1
98402.2
98414
98425.3
98436.1
98446.4
98456.2
98465.5
98474.3
98482.4
98490
98497.1
98503.6
98509.5
98514.9
98519.8
98524.1
98528.1
98531.5
98534.6
98537.3
98539.7
98541.8
98543.6
98545.1
98546.4
98547.4
98548.3
98549
98549.5
98549.9
98550.3
98550.7
98551.3
98552.2
98553.4
98555.2
98557.7
98561.2
98565.9
98572
98579.8
98589.4
98601.1
98615.2
98631.8
98651
98672.9
98697.5
98724.9
98755
98787.8
98823.1
98860.9
98901
98943.1
98987.2
99033
99080.5
99129.2
99179.1
99229.7
99280.9
99332
99382.9
99432.9
99481.6
99528.3
99572.2
99612.6
99648.7
99679.3
99704.1
99721.8
99731.4
99732.4
99724.4
99706.7
99679.5
99642.7
99597.4
99543.5
99483.2
99416.4
99346
99271.2
99195.7
99117
99036.9
98254.7
98254.5
98253.8
98252.6
98251.1
98249.2
98246.9
98244.3
98241.4
98238.1
98234.7
98230.9
98227
98222.9
98218.6
98214.2
98209.7
98205.1
98200.3
98195.5
98190.6
98185.5
98180.4
98175.1
98169.8
98164.3
98158.8
98153.3
98147.7
98142.1
98136.5
98130.8
98125.2
98119.6
98114
98108.5
98103.1
98097.7
98092.5
98087.3
98082.3
98077.5
98072.9
98068.4
98064.2
98060.3
98056.6
98053.2
98050.2
98047.6
98045.2
98043.3
98041.8
98040.8
98040.2
98040.1
98040.6
98041.6
98043.2
98045.4
98048.2
98051.6
98055.6
98060.2
98065.5
98071.5
98078
98085.2
98093
98101.4
98110.4
98119.9
98129.8
98140.3
98151.2
98162.4
98174
98185.9
98198.1
98210.5
98223.1
98235.9
98248.7
98261.5
98274.4
98287.2
98299.9
98312.5
98324.9
98337.1
98349
98360.6
98371.8
98382.6
98393
98402.9
98412.4
98421.3
98429.7
98437.6
98445
98451.9
98458.2
98464
98469.3
98474.1
98478.5
98482.4
98485.9
98489
98491.7
98494.1
98496.2
98498.1
98499.6
98500.9
98501.9
98502.7
98503.2
98503.6
98503.7
98503.7
98503.6
98503.5
98503.5
98503.6
98503.9
98504.7
98506.2
98508.4
98511.7
98516.2
98522.2
98529.9
98539.6
98551.3
98565.4
98582
98601
98622.6
98646.9
98673.6
98702.9
98734.6
98768.8
98805.1
98843.4
98883.7
98925.7
98969.3
99014.3
99060.4
99107.4
99155
99202.6
99250.1
99297
99342.7
99386.7
99428.3
99466.6
99501.1
99530.5
99554.7
99572.4
99582.7
99585
99579.1
99564.4
99541.1
99508.7
99468.3
99419.8
99365.2
99304.1
99239.7
99170.7
99100.8
99027.6
98952.9
98231.3
98231.1
98230.5
98229.4
98228
98226.2
98224.1
98221.6
98218.9
98215.8
98212.5
98209
98205.3
98201.5
98197.5
98193.4
98189.2
98185
98180.6
98176.2
98171.7
98167.1
98162.5
98157.7
98152.9
98148.1
98143.2
98138.2
98133.2
98128.2
98123.2
98118.2
98113.1
98108.1
98103.1
98098.2
98093.3
98088.4
98083.7
98079
98074.5
98070
98065.7
98061.6
98057.7
98054
98050.6
98047.4
98044.5
98041.9
98039.6
98037.7
98036.2
98035
98034.3
98034.1
98034.4
98035.2
98036.5
98038.3
98040.7
98043.7
98047.2
98051.4
98056.1
98061.5
98067.4
98074
98081.1
98088.8
98097
98105.7
98114.9
98124.5
98134.6
98145
98155.7
98166.7
98177.9
98189.4
98201
98212.7
98224.5
98236.3
98248.1
98259.9
98271.6
98283.1
98294.4
98305.5
98316.3
98326.8
98336.9
98346.7
98356
98364.9
98373.3
98381.3
98388.8
98395.8
98402.3
98408.3
98413.8
98418.8
98423.5
98427.6
98431.4
98434.7
98437.7
98440.3
98442.7
98444.7
98446.5
98447.9
98449.1
98450.1
98450.7
98451.2
98451.4
98451.3
98451
98450.5
98449.9
98449.1
98448.3
98447.6
98447
98446.6
98446.8
98447.6
98449.3
98452
98456
98461.6
98468.8
98478
98489.3
98502.9
98518.7
98537
98557.7
98580.7
98606.1
98633.8
98663.9
98696.1
98730.3
98766.3
98804.1
98843.5
98884.4
98926.4
98969.3
99012.9
99056.6
99100.4
99143.8
99186.1
99227
99265.9
99301.8
99334.3
99362.2
99385.4
99402.8
99413.6
99417.2
99413.5
99401.8
99382.3
99354.5
99319.4
99276.6
99228.1
99173.4
99115.7
99053.2
98989.9
98923
98854.9
98206.8
98206.7
98206.2
98205.2
98204
98202.3
98200.4
98198.2
98195.6
98192.8
98189.8
98186.6
98183.2
98179.6
98176
98172.2
98168.4
98164.4
98160.5
98156.4
98152.3
98148.2
98144
98139.8
98135.5
98131.2
98126.8
98122.5
98118.1
98113.6
98109.2
98104.7
98100.3
98095.9
98091.5
98087.1
98082.8
98078.5
98074.2
98070
98065.9
98061.9
98058
98054.2
98050.6
98047.2
98044
98041
98038.2
98035.8
98033.6
98031.7
98030.1
98028.9
98028.1
98027.7
98027.7
98028.3
98029.2
98030.7
98032.7
98035.2
98038.3
98041.9
98046
98050.8
98056
98061.9
98068.3
98075.2
98082.6
98090.4
98098.8
98107.5
98116.6
98126.1
98135.8
98145.8
98156
98166.4
98176.9
98187.5
98198.2
98208.9
98219.5
98230.1
98240.6
98250.9
98261.1
98271
98280.6
98289.9
98298.9
98307.5
98315.7
98323.5
98330.8
98337.7
98344.2
98350.2
98355.8
98360.9
98365.6
98369.8
98373.6
98377.1
98380.2
98382.9
98385.3
98387.5
98389.3
98390.9
98392.2
98393.3
98394.1
98394.6
98394.9
98394.9
98394.6
98394.1
98393.3
98392.3
98391
98389.5
98387.8
98386.1
98384.5
98382.9
98381.6
98380.9
98380.9
98381.8
98383.6
98386.8
98391.5
98398
98406.4
98416.8
98429.3
98443.9
98460.8
98480
98501.4
98525
98550.7
98578.6
98608.4
98640.1
98673.5
98708.5
98745
98782.7
98821.2
98860.6
98900.3
98940.2
98979.8
99018.5
99055.9
99091.7
99125
99155.1
99181.2
99203.1
99219.9
99230.8
99235.5
99233.8
99224.9
99209.2
99185.7
99155.9
99118.9
99076.8
99028.8
98978
98922.5
98866.3
98806.3
98745.5
98182.6
98182.6
98182.1
98181.4
98180.3
98178.9
98177.2
98175.2
98172.9
98170.4
98167.7
98164.8
98161.7
98158.5
98155.2
98151.7
98148.2
98144.7
98141.1
98137.4
98133.7
98129.9
98126.2
98122.4
98118.6
98114.8
98111
98107.1
98103.2
98099.3
98095.4
98091.5
98087.6
98083.8
98079.9
98076.1
98072.2
98068.4
98064.7
98060.9
98057.2
98053.6
98050.1
98046.6
98043.3
98040.2
98037.2
98034.4
98031.8
98029.4
98027.3
98025.4
98023.8
98022.5
98021.6
98021
98020.8
98021.1
98021.8
98022.9
98024.5
98026.5
98029.1
98032.1
98035.7
98039.7
98044.3
98049.4
98055.1
98061.1
98067.7
98074.7
98082.1
98089.9
98098
98106.5
98115.2
98124.2
98133.3
98142.6
98152
98161.4
98170.9
98180.4
98189.9
98199.2
98208.5
98217.5
98226.4
98235.1
98243.4
98251.5
98259.3
98266.7
98273.7
98280.3
98286.5
98292.4
98297.8
98302.8
98307.4
98311.6
98315.4
98318.8
98321.8
98324.5
98326.9
98329
98330.8
98332.4
98333.7
98334.8
98335.6
98336.1
98336.4
98336.5
98336.3
98335.9
98335.1
98334.1
98332.7
98331
98329
98326.7
98324.1
98321.4
98318.6
98315.7
98313.1
98310.7
98308.9
98307.8
98307.5
98308.4
98310.5
98314.2
98319.5
98326.7
98335.8
98346.9
98360
98375.3
98392.7
98412.2
98433.6
98457
98482.4
98509.8
98538.8
98569.4
98601.4
98634.8
98668.9
98704
98739.6
98775.5
98811.2
98846.1
98879.9
98912.3
98942.6
98970.2
98994
99014.3
99030
99040.9
99046.3
99046.2
99039.8
99027.4
99008
98983.1
98951.7
98915.8
98874.5
98830.8
98782.3
98733.5
98680.8
98627.7
98159.8
98159.8
98159.5
98158.8
98157.9
98156.7
98155.3
98153.6
98151.6
98149.4
98147
98144.4
98141.7
98138.8
98135.8
98132.8
98129.6
98126.4
98123.2
98119.9
98116.6
98113.2
98109.9
98106.5
98103.2
98099.8
98096.4
98093
98089.6
98086.2
98082.8
98079.4
98075.9
98072.5
98069.1
98065.8
98062.4
98059
98055.6
98052.3
98049
98045.7
98042.5
98039.3
98036.3
98033.3
98030.5
98027.9
98025.4
98023.1
98021
98019.1
98017.5
98016.1
98015.1
98014.3
98013.9
98013.9
98014.3
98015
98016.2
98017.8
98019.9
98022.4
98025.3
98028.8
98032.7
98037.1
98041.9
98047.2
98052.9
98059.1
98065.6
98072.4
98079.6
98087
98094.7
98102.6
98110.7
98118.8
98127.1
98135.4
98143.7
98152
98160.2
98168.3
98176.3
98184.1
98191.7
98199.1
98206.2
98213
98219.5
98225.7
98231.5
98237
98242.1
98246.8
98251.1
98255.1
98258.7
98261.9
98264.8
98267.4
98269.6
98271.6
98273.2
98274.6
98275.8
98276.8
98277.5
98278
98278.3
98278.3
98278.1
98277.6
98276.9
98275.9
98274.5
98272.9
98270.9
98268.5
98265.7
98262.5
98259
98255.2
98251.2
98247.1
98243.1
98239.2
98235.6
98232.5
98230.1
98228.6
98228.2
98229.1
98231.5
98235.5
98241.2
98248.9
98258.3
98269.8
98283.3
98298.8
98316.1
98335.3
98356.4
98379.6
98404.3
98430.5
98458.2
98487.2
98517.1
98548
98579.5
98611.4
98643
98674.1
98704.2
98733.1
98760.1
98784.9
98806.3
98824.5
98838.8
98849.1
98854.8
98855.8
98851.3
98841.6
98826
98805.6
98779.2
98749.3
98714.5
98677.7
98636.2
98594.8
98549.4
98504.1
98139.1
98139.2
98139
98138.5
98137.8
98136.8
98135.6
98134.1
98132.5
98130.6
98128.6
98126.3
98123.9
98121.4
98118.8
98116.1
98113.3
98110.5
98107.6
98104.7
98101.8
98098.8
98095.9
98092.9
98090
98087
98084
98081
98078
98075
98072
98068.9
98065.9
98062.9
98059.9
98056.8
98053.8
98050.8
98047.7
98044.7
98041.6
98038.6
98035.7
98032.7
98029.9
98027.1
98024.5
98021.9
98019.5
98017.3
98015.2
98013.3
98011.6
98010.1
98008.9
98008
98007.4
98007.1
98007.2
98007.6
98008.4
98009.6
98011.2
98013.2
98015.6
98018.4
98021.7
98025.4
98029.5
98034
98038.9
98044.2
98049.9
98055.8
98062
98068.5
98075.2
98082
98089
98096.1
98103.2
98110.4
98117.5
98124.6
98131.6
98138.5
98145.3
98151.9
98158.2
98164.3
98170.2
98175.8
98181.1
98186.1
98190.7
98195
98198.9
98202.5
98205.7
98208.6
98211.2
98213.5
98215.5
98217.2
98218.7
98219.8
98220.8
98221.5
98221.9
98222.2
98222.3
98222.2
98221.9
98221.4
98220.6
98219.5
98218.2
98216.5
98214.5
98212.2
98209.4
98206.3
98202.6
98198.6
98194.1
98189.2
98184.1
98178.8
98173.4
98168
98162.7
98157.8
98153.3
98149.6
98146.8
98145.1
98144.7
98145.7
98148.2
98152.5
98158.5
98166.4
98176.2
98187.9
98201.4
98216.7
98233.8
98252.9
98273.6
98295.8
98319.3
98344.1
98370
98396.8
98424.3
98452.1
98479.7
98507
98533.4
98558.6
98582.2
98604
98622.7
98638.6
98651
98660.2
98665.4
98667
98663.7
98656.2
98643.7
98627.2
98605.5
98581.1
98552.4
98522
98487.2
98452.9
98414.7
98377.3
98121.3
98121.4
98121.3
98120.9
98120.3
98119.6
98118.6
98117.4
98116.1
98114.5
98112.8
98110.9
98108.9
98106.7
98104.5
98102.2
98099.8
98097.3
98094.8
98092.3
98089.8
98087.2
98084.6
98082.1
98079.5
98076.8
98074.2
98071.5
98068.8
98066.2
98063.5
98060.8
98058
98055.3
98052.6
98049.8
98047
98044.2
98041.4
98038.6
98035.8
98032.9
98030.1
98027.4
98024.6
98022
98019.4
98016.9
98014.5
98012.2
98010.1
98008.2
98006.4
98004.8
98003.5
98002.4
98001.6
98001
98000.8
98000.9
98001.4
98002.2
98003.3
98004.9
98006.8
98009.1
98011.8
98014.8
98018.3
98022.1
98026.3
98030.8
98035.6
98040.7
98046
98051.6
98057.3
98063.2
98069.2
98075.2
98081.3
98087.3
98093.4
98099.3
98105.2
98110.9
98116.5
98121.9
98127
98131.9
98136.6
98141
98145.1
98148.9
98152.3
98155.5
98158.3
98160.8
98162.9
98164.8
98166.4
98167.7
98168.8
98169.6
98170.2
98170.6
98170.7
98170.7
98170.4
98170
98169.4
98168.6
98167.6
98166.5
98165
98163.3
98161.3
98158.9
98156.2
98153.1
98149.6
98145.6
98141.2
98136.2
98130.8
98124.9
98118.8
98112.2
98105.6
98098.7
98091.9
98085.3
98078.9
98073.2
98068.2
98064
98061
98059.3
98058.9
98060.1
98062.9
98067.6
98073.9
98082.1
98092.1
98103.9
98117.3
98132.8
98149.7
98168.2
98187.9
98208.8
98230.8
98253.7
98277.3
98301.2
98324.9
98348.5
98371
98392.5
98412.7
98431.1
98447
98460.2
98470.4
98477.9
98482
98483.3
98480.7
98474.8
98464.7
98451.6
98433.9
98414.4
98391.2
98366.6
98338.1
98310.7
98279.3
98249.3
98106.6
98106.8
98106.8
98106.5
98106.1
98105.5
98104.8
98103.9
98102.8
98101.5
98100.1
98098.6
98096.9
98095.2
98093.3
98091.4
98089.4
98087.3
98085.2
98083.1
98080.9
98078.7
98076.5
98074.3
98072
98069.7
98067.3
98064.9
98062.5
98060.1
98057.7
98055.2
98052.7
98050.2
98047.6
98045
98042.4
98039.8
98037.1
98034.4
98031.7
98028.9
98026.2
98023.5
98020.8
98018.2
98015.6
98013.1
98010.7
98008.4
98006.2
98004.1
98002.2
98000.5
97999
97997.8
97996.7
97996
97995.5
97995.3
97995.5
97996
97996.7
97997.9
97999.3
98001.2
98003.3
98005.8
98008.7
98011.8
98015.3
98019.1
98023.2
98027.5
98032.1
98036.8
98041.6
98046.6
98051.7
98056.8
98061.9
98066.9
98071.9
98076.8
98081.6
98086.3
98090.7
98095
98099
98102.7
98106.3
98109.5
98112.4
98115.1
98117.4
98119.5
98121.2
98122.6
98123.7
98124.6
98125.2
98125.6
98125.7
98125.6
98125.3
98124.8
98124.1
98123.3
98122.3
98121.1
98119.8
98118.2
98116.5
98114.6
98112.5
98110
98107.3
98104.2
98100.7
98096.8
98092.5
98087.7
98082.4
98076.6
98070.3
98063.4
98056.2
98048.6
98040.7
98032.6
98024.4
98016.2
98008.2
98000.7
97993.7
97987.3
97982
97977.8
97974.8
97973.3
97973.4
97975
97978.4
97983.6
97990.4
97999
98009.3
98021.4
98035
98050.2
98066.3
98083.8
98102.2
98121.3
98141.3
98161.5
98181.4
98201.3
98220
98237.6
98254.2
98269.1
98281.9
98292.2
98299.8
98305.1
98307.5
98307.8
98305.2
98300.3
98292
98281.5
98267.3
98251.9
98233.3
98214.1
98191.4
98170.3
98145.2
98122.4
98095.2
98095.4
98095.5
98095.3
98095
98094.6
98094.1
98093.4
98092.6
98091.6
98090.6
98089.4
98088.1
98086.7
98085.3
98083.7
98082.1
98080.5
98078.8
98077.1
98075.3
98073.4
98071.6
98069.7
98067.7
98065.6
98063.5
98061.4
98059.2
98057
98054.7
98052.4
98050
98047.6
98045.2
98042.7
98040.1
98037.5
98034.9
98032.2
98029.5
98026.8
98024
98021.3
98018.6
98015.9
98013.3
98010.7
98008.2
98005.8
98003.5
98001.3
97999.3
97997.5
97995.8
97994.4
97993.2
97992.2
97991.5
97991.1
97991
97991.1
97991.6
97992.4
97993.5
97994.9
97996.6
97998.6
98000.9
98003.6
98006.5
98009.7
98013.1
98016.7
98020.6
98024.5
98028.6
98032.8
98037
98041.2
98045.4
98049.6
98053.7
98057.6
98061.4
98065
98068.5
98071.7
98074.6
98077.3
98079.7
98081.9
98083.8
98085.3
98086.6
98087.6
98088.3
98088.6
98088.7
98088.6
98088.2
98087.6
98086.8
98085.8
98084.6
98083.3
98081.8
98080.1
98078.3
98076.3
98074.1
98071.8
98069.3
98066.6
98063.7
98060.5
98056.9
98053
98048.7
98044.1
98039
98033.3
98027.2
98020.5
98013.4
98005.6
97997.5
97988.9
97979.9
97970.7
97961.2
97951.7
97942.3
97933.1
97924.4
97916.2
97908.8
97902.5
97897.3
97893.5
97891.1
97890.2
97891
97893.5
97897.7
97903.5
97911
97920.2
97930.8
97942.8
97955.9
97970.2
97985.2
98001.1
98017.6
98034.2
98050.6
98066.8
98081.7
98095.5
98108.3
98119.6
98129.1
98136.3
98141.1
98144
98144.2
98142.9
98139.6
98135
98127.7
98119.2
98107.8
98095.8
98081.1
98066.7
98049.1
98033.7
98014.5
97998.4
98086.8
98087
98087.1
98087.1
98087
98086.8
98086.5
98086
98085.5
98084.9
98084.1
98083.3
98082.4
98081.4
98080.4
98079.3
98078.1
98076.9
98075.6
98074.3
98072.9
98071.4
98069.9
98068.2
98066.5
98064.7
98062.9
98060.9
98058.9
98056.8
98054.6
98052.4
98050.1
98047.7
98045.3
98042.8
98040.2
98037.6
98034.9
98032.2
98029.4
98026.6
98023.8
98020.9
98018.1
98015.3
98012.6
98009.9
98007.2
98004.7
98002.3
97999.9
97997.8
97995.8
97994
97992.3
97991
97989.8
97988.9
97988.3
97987.9
97987.8
97988
97988.5
97989.3
97990.4
97991.7
97993.4
97995.3
97997.5
97999.9
98002.6
98005.4
98008.5
98011.7
98015
98018.4
98021.9
98025.4
98028.9
98032.3
98035.7
98038.9
98042
98044.9
98047.6
98050.1
98052.3
98054.3
98056
98057.4
98058.5
98059.4
98060
98060.2
98060.2
98059.9
98059.3
98058.4
98057.2
98055.9
98054.4
98052.6
98050.7
98048.6
98046.4
98044
98041.5
98038.8
98036
98033
98029.9
98026.5
98023
98019.2
98015.1
98010.7
98006
98000.9
97995.4
97989.5
97983.1
97976.1
97968.6
97960.7
97952.2
97943.2
97933.7
97923.8
97913.6
97903.2
97892.5
97881.9
97871.4
97861.1
97851.4
97842.3
97834.2
97827.2
97821.4
97816.9
97814
97812.6
97812.9
97814.7
97818.1
97823.1
97829.6
97837.6
97846.8
97857.2
97868.6
97880.7
97893.5
97906.7
97920
97933
97945.5
97956.8
97966.9
97975.8
97983.4
97989.4
97993.4
97995.1
97995.5
97993.4
97990
97985.6
97980.4
97973.7
97966.4
97957.1
97947.8
97936.4
97926.1
97913
97902.6
97888.6
97878.8
98080.8
98081.1
98081.3
98081.4
98081.4
98081.3
98081.2
98081
98080.8
98080.5
98080.2
98079.8
98079.4
98078.9
98078.3
98077.7
98077
98076.2
98075.4
98074.4
98073.4
98072.3
98071
98069.7
98068.2
98066.7
98065
98063.2
98061.2
98059.2
98057.1
98054.9
98052.6
98050.2
98047.7
98045.1
98042.5
98039.7
98037
98034.1
98031.2
98028.2
98025.3
98022.3
98019.3
98016.3
98013.4
98010.5
98007.7
98005
98002.4
98000
97997.6
97995.5
97993.5
97991.8
97990.2
97988.9
97987.8
97987
97986.5
97986.2
97986.2
97986.4
97987
97987.8
97988.8
97990.2
97991.7
97993.6
97995.6
97997.8
98000.3
98002.8
98005.5
98008.3
98011.2
98014
98016.9
98019.7
98022.5
98025.1
98027.6
98029.9
98032
98033.9
98035.5
98036.9
98038
98038.8
98039.3
98039.5
98039.4
98039.1
98038.4
98037.4
98036.1
98034.6
98032.7
98030.7
98028.4
98025.9
98023.3
98020.5
98017.5
98014.4
98011.1
98007.7
98004.1
98000.4
97996.6
97992.5
97988.3
97983.9
97979.2
97974.3
97969
97963.5
97957.6
97951.3
97944.6
97937.3
97929.6
97921.4
97912.7
97903.5
97893.8
97883.6
97872.9
97862
97850.7
97839.1
97827.5
97815.9
97804.4
97793.4
97783.1
97773.6
97765
97757.5
97751.4
97746.7
97743.5
97741.8
97741.6
97743
97745.8
97750.1
97755.6
97762.4
97770.3
97779.3
97788.8
97798.7
97808.8
97818.8
97828.5
97837.5
97845.2
97851.8
97856.9
97860.8
97863.1
97863.6
97862.3
97860
97855.4
97850
97843.9
97837.7
97830.9
97824.3
97816.3
97809.1
97800.4
97793.5
97784.1
97778.3
97768.9
97764.6
98076.5
98076.8
98077
98077.2
98077.3
98077.5
98077.7
98077.9
98078.1
98078.3
98078.5
98078.6
98078.8
98078.8
98078.8
98078.7
98078.5
98078.1
98077.7
98077.1
98076.5
98075.6
98074.7
98073.6
98072.3
98070.9
98069.4
98067.7
98065.8
98063.8
98061.7
98059.5
98057.1
98054.6
98052
98049.3
98046.6
98043.7
98040.7
98037.7
98034.6
98031.5
98028.3
98025.1
98022
98018.8
98015.7
98012.6
98009.7
98006.8
98004
98001.4
97998.9
97996.6
97994.5
97992.6
97990.9
97989.5
97988.3
97987.3
97986.6
97986.2
97986
97986.1
97986.4
97987
97987.9
97989
97990.3
97991.8
97993.6
97995.5
97997.5
97999.7
98002
98004.3
98006.7
98009.1
98011.4
98013.7
98015.8
98017.8
98019.6
98021.2
98022.6
98023.8
98024.7
98025.3
98025.6
98025.6
98025.3
98024.6
98023.7
98022.5
98020.9
98019.1
98016.9
98014.5
98011.7
98008.8
98005.6
98002.2
97998.7
97995
97991.1
97987.1
97983
97978.7
97974.3
97969.7
97964.9
97960
97954.9
97949.5
97944
97938.2
97932.1
97925.7
97919
97911.9
97904.4
97896.4
97888
97879.1
97869.8
97860
97849.7
97838.9
97827.7
97816.1
97804.1
97791.8
97779.4
97767
97754.6
97742.7
97731.3
97720.7
97710.9
97702.1
97694.6
97688.5
97683.7
97680.4
97678.5
97678.1
97679.1
97681.5
97684.9
97689.5
97695.2
97702
97709.1
97716.2
97723.3
97730.1
97736.7
97742.5
97746.8
97749.9
97751.2
97751.4
97749.9
97747
97742.6
97737.4
97730.4
97722.7
97714.7
97707.3
97699.9
97693.5
97686.3
97680.7
97673.9
97669.8
97663.4
97661.7
97656.3
97657
98072.8
98072.9
98073.2
98073.3
98073.6
98074.1
98074.7
98075.5
98076.4
98077.3
98078.1
98079
98079.8
98080.5
98081.1
98081.5
98081.8
98081.9
98081.9
98081.7
98081.3
98080.8
98080.1
98079.2
98078.1
98076.8
98075.4
98073.7
98071.9
98069.9
98067.7
98065.4
98063
98060.4
98057.7
98054.9
98051.9
98048.9
98045.7
98042.5
98039.2
98035.9
98032.6
98029.2
98025.8
98022.5
98019.2
98015.9
98012.8
98009.7
98006.8
98004
98001.4
97999
97996.8
97994.8
97993
97991.4
97990.1
97989
97988.2
97987.7
97987.4
97987.3
97987.5
97988
97988.7
97989.6
97990.7
97992.1
97993.6
97995.2
97997
97998.9
98000.8
98002.8
98004.8
98006.7
98008.6
98010.3
98011.9
98013.4
98014.7
98015.7
98016.5
98017
98017.2
98017.1
98016.7
98015.9
98014.9
98013.5
98011.8
98009.7
98007.4
98004.7
98001.7
97998.5
97994.9
97991.1
97987.1
97982.9
97978.5
97973.9
97969.2
97964.4
97959.4
97954.2
97948.9
97943.5
97937.9
97932
97926
97919.8
97913.4
97906.8
97899.9
97892.7
97885.2
97877.4
97869.1
97860.5
97851.4
97842
97832.1
97821.8
97811
97799.7
97788
97776
97763.4
97750.6
97737.6
97724.6
97711.7
97699.1
97686.9
97675.4
97664.6
97654.8
97646.2
97638.8
97632.6
97627.9
97624.6
97622.7
97622.2
97622.9
97624.5
97627.3
97631
97635.6
97640.5
97645.1
97649.4
97653.3
97656.8
97659.4
97660.5
97660.2
97657.9
97654.4
97649.3
97642.9
97635.3
97627
97617.6
97607.8
97598
97589.2
97580.9
97574.2
97567.4
97562.8
97557.5
97555.5
97551.8
97553.5
97551.6
97556.6
98067.9
98067.9
98068
98068.3
98069
98070.3
98071.7
98073.5
98075.3
98077.1
98078.9
98080.6
98082.1
98083.5
98084.7
98085.6
98086.4
98087
98087.3
98087.4
98087.3
98087
98086.5
98085.8
98084.8
98083.6
98082.2
98080.6
98078.8
98076.8
98074.6
98072.2
98069.7
98067
98064.1
98061.2
98058.1
98054.9
98051.5
98048.1
98044.7
98041.2
98037.6
98034.1
98030.5
98027
98023.5
98020.1
98016.8
98013.7
98010.6
98007.7
98005
98002.5
98000.1
97998
97996.2
97994.5
97993.1
97992
97991.1
97990.5
97990.1
97990
97990.1
97990.5
97991
97991.8
97992.8
97994
97995.4
97996.8
97998.4
98000
98001.6
98003.2
98004.9
98006.4
98007.9
98009.2
98010.3
98011.3
98012.1
98012.6
98012.8
98012.7
98012.3
98011.6
98010.5
98009.1
98007.4
98005.3
98002.8
98000.1
97997
97993.5
97989.8
97985.8
97981.5
97976.9
97972.1
97967.1
97961.9
97956.6
97951.1
97945.4
97939.6
97933.7
97927.5
97921.2
97914.8
97908.2
97901.3
97894.3
97887.1
97879.6
97872
97864
97855.9
97847.3
97838.4
97829.2
97819.7
97809.8
97799.4
97788.6
97777.5
97765.9
97753.9
97741.4
97728.5