/*--------------------------------*- C++ -*----------------------------------*\
| =========                 |                                                 |
| \\      /  F ield         | OpenFOAM: The Open Source CFD Toolbox           |
|  \\    /   O peration     | Version:  dev                                   |
|   \\  /    A nd           | Web:      http://www.openfoam.org               |
|    \\/     M anipulation  |                                                 |
\*---------------------------------------------------------------------------*/
FoamFile
{
    version     2.0;
    format      ascii;
    class       volScalarField;
    object      pPrime2Mean;
    location    "9.125";
}
// * * * * * * * * * * * * * * * * * * * * * * * * * * * * * * * * * * * * * //

dimensions      [2 -2 -4 0 0 0 0];

internalField   nonuniform List<scalar> 
12225
(
5.03846e+07
4.99197e+07
4.89592e+07
4.76083e+07
4.59549e+07
4.40884e+07
4.20679e+07
3.99654e+07
3.78217e+07
3.56849e+07
3.35926e+07
3.15478e+07
2.96245e+07
2.77534e+07
2.60057e+07
2.44447e+07
2.28825e+07
2.13016e+07
5.02767e+07
4.98118e+07
4.88521e+07
4.75029e+07
4.58509e+07
4.39868e+07
4.19691e+07
3.98692e+07
3.77295e+07
3.55953e+07
3.35078e+07
3.14666e+07
2.95479e+07
2.76837e+07
2.59535e+07
2.43926e+07
2.28833e+07
2.15482e+07
5.00264e+07
4.95621e+07
4.86029e+07
4.72567e+07
4.56093e+07
4.37499e+07
4.1739e+07
3.96453e+07
3.75137e+07
3.53876e+07
3.33085e+07
3.12792e+07
2.93665e+07
2.75195e+07
2.58092e+07
2.42532e+07
2.28177e+07
2.16039e+07
4.95904e+07
4.9129e+07
4.81721e+07
4.68312e+07
4.51917e+07
4.33408e+07
4.13415e+07
3.92584e+07
3.71416e+07
3.5029e+07
3.29657e+07
3.09542e+07
2.90587e+07
2.72311e+07
2.55505e+07
2.40192e+07
2.26326e+07
2.15311e+07
4.89248e+07
4.84637e+07
4.75115e+07
4.618e+07
4.45524e+07
4.2716e+07
4.07325e+07
3.86687e+07
3.65709e+07
3.44825e+07
3.24395e+07
3.04588e+07
2.85859e+07
2.67944e+07
2.51661e+07
2.36573e+07
2.23759e+07
2.1311e+07
4.79749e+07
4.75112e+07
4.65685e+07
4.52505e+07
4.36407e+07
4.18242e+07
3.98654e+07
3.78272e+07
3.57596e+07
3.37008e+07
3.16921e+07
2.97455e+07
2.7911e+07
2.6166e+07
2.45872e+07
2.31479e+07
2.19211e+07
2.08643e+07
4.6679e+07
4.62139e+07
4.52868e+07
4.3985e+07
4.24015e+07
4.06105e+07
3.86874e+07
3.66826e+07
3.46579e+07
3.26381e+07
3.06778e+07
2.87769e+07
2.69937e+07
2.53066e+07
2.37848e+07
2.24057e+07
2.12372e+07
2.02092e+07
4.52359e+07
4.47724e+07
4.38616e+07
4.25777e+07
4.10228e+07
3.92616e+07
3.73769e+07
3.54112e+07
3.34317e+07
3.14582e+07
2.95477e+07
2.77005e+07
2.59689e+07
2.43449e+07
2.28717e+07
2.15558e+07
2.042e+07
1.94601e+07
4.37199e+07
4.326e+07
4.23654e+07
4.11012e+07
3.9576e+07
3.78472e+07
3.6002e+07
3.40786e+07
3.21454e+07
3.02214e+07
2.83619e+07
2.65703e+07
2.48925e+07
2.33293e+07
2.19081e+07
2.06484e+07
1.95546e+07
1.8656e+07
4.17783e+07
4.13251e+07
4.045e+07
3.92134e+07
3.77246e+07
3.60398e+07
3.42434e+07
3.23762e+07
3.05002e+07
2.86412e+07
2.68445e+07
2.51245e+07
2.35128e+07
2.20244e+07
2.06696e+07
1.94776e+07
1.84406e+07
1.75879e+07
3.93279e+07
3.88846e+07
3.80331e+07
3.68333e+07
3.53903e+07
3.37626e+07
3.20283e+07
3.02321e+07
2.84294e+07
2.66506e+07
2.49343e+07
2.33003e+07
2.17725e+07
2.03702e+07
1.90985e+07
1.79833e+07
1.70133e+07
1.62068e+07
3.63023e+07
3.5874e+07
3.50506e+07
3.38998e+07
3.2514e+07
3.09596e+07
2.93027e+07
2.75956e+07
2.58834e+07
2.42036e+07
2.25855e+07
2.10546e+07
1.96276e+07
1.83247e+07
1.71496e+07
1.61188e+07
1.52245e+07
1.44713e+07
3.26867e+07
3.2277e+07
3.149e+07
3.04004e+07
2.90869e+07
2.76215e+07
2.60604e+07
2.44599e+07
2.28579e+07
2.12946e+07
1.97933e+07
1.83815e+07
1.7071e+07
1.58804e+07
1.48119e+07
1.38747e+07
1.30637e+07
1.23757e+07
2.85723e+07
2.81854e+07
2.74451e+07
2.64278e+07
2.52027e+07
2.38408e+07
2.23937e+07
2.09153e+07
1.94415e+07
1.80091e+07
1.66408e+07
1.53597e+07
1.41777e+07
1.31078e+07
1.21529e+07
1.13161e+07
1.05939e+07
9.9801e+06
2.42447e+07
2.38842e+07
2.32e+07
2.22635e+07
2.11386e+07
1.98909e+07
1.85694e+07
1.72234e+07
1.58873e+07
1.45937e+07
1.33644e+07
1.22184e+07
1.1167e+07
1.02187e+07
9.37636e+06
8.63976e+06
8.00578e+06
7.46772e+06
2.0295e+07
1.99632e+07
1.93386e+07
1.84838e+07
1.74603e+07
1.63258e+07
1.51281e+07
1.39102e+07
1.27059e+07
1.15431e+07
1.04425e+07
9.4199e+06
8.48512e+06
7.64425e+06
6.89919e+06
6.24866e+06
5.68949e+06
5.21545e+06
1.77277e+07
1.74215e+07
1.68471e+07
1.60602e+07
1.5119e+07
1.40755e+07
1.29751e+07
1.18567e+07
1.07519e+07
9.68603e+06
8.67787e+06
7.74104e+06
6.88422e+06
6.11221e+06
5.42635e+06
4.82528e+06
4.30601e+06
3.86318e+06
1.78363e+07
1.75419e+07
1.69897e+07
1.62324e+07
1.53259e+07
1.43193e+07
1.32563e+07
1.21738e+07
1.11019e+07
1.00641e+07
9.07841e+06
8.15732e+06
7.30899e+06
6.5379e+06
5.84546e+06
5.23083e+06
4.69149e+06
4.22312e+06
2.0716e+07
2.04171e+07
1.98551e+07
1.90827e+07
1.81566e+07
1.71261e+07
1.60345e+07
1.49185e+07
1.38079e+07
1.27261e+07
1.16909e+07
1.07148e+07
9.80598e+06
8.96936e+06
8.20682e+06
7.51826e+06
6.90186e+06
6.35423e+06
2.52073e+07
2.48954e+07
2.43054e+07
2.34919e+07
2.25142e+07
2.14234e+07
2.02639e+07
1.90733e+07
1.78821e+07
1.67145e+07
1.55885e+07
1.45173e+07
1.35096e+07
1.25709e+07
1.17038e+07
1.0909e+07
1.01853e+07
9.5304e+06
3.02714e+07
2.99455e+07
2.93222e+07
2.84591e+07
2.7419e+07
2.62549e+07
2.50133e+07
2.37331e+07
2.24463e+07
2.11778e+07
1.99465e+07
1.87664e+07
1.7647e+07
1.65944e+07
1.5612e+07
1.47013e+07
1.38618e+07
1.30919e+07
3.51899e+07
3.48522e+07
3.41979e+07
3.32877e+07
3.21874e+07
3.0952e+07
2.96301e+07
2.82623e+07
2.68818e+07
2.55147e+07
2.41809e+07
2.2895e+07
2.16676e+07
2.05054e+07
1.94127e+07
1.83913e+07
1.74418e+07
1.65629e+07
3.95432e+07
3.91972e+07
3.85174e+07
3.75675e+07
3.64155e+07
3.51183e+07
3.37263e+07
3.22815e+07
3.08185e+07
2.93644e+07
2.79401e+07
2.65611e+07
2.52386e+07
2.39801e+07
2.27904e+07
2.16722e+07
2.06262e+07
1.96521e+07
4.31422e+07
4.27911e+07
4.2092e+07
4.11111e+07
3.9918e+07
3.8571e+07
3.71218e+07
3.56141e+07
3.40835e+07
3.25579e+07
3.10591e+07
2.96034e+07
2.82026e+07
2.68648e+07
2.55955e+07
2.43975e+07
2.32724e+07
2.22199e+07
4.59532e+07
4.55992e+07
4.48862e+07
4.38824e+07
4.26582e+07
4.12731e+07
3.978e+07
3.82237e+07
3.66405e+07
3.50593e+07
3.35027e+07
3.19873e+07
3.05256e+07
2.91261e+07
2.77947e+07
2.65348e+07
2.53481e+07
2.42347e+07
4.80333e+07
4.76776e+07
4.69551e+07
4.59351e+07
4.46885e+07
4.32757e+07
4.17505e+07
4.01584e+07
3.85366e+07
3.69146e+07
3.53152e+07
3.37559e+07
3.22493e+07
3.08045e+07
2.94274e+07
2.81219e+07
2.68898e+07
2.57315e+07
4.94835e+07
4.9127e+07
4.83977e+07
4.73668e+07
4.6105e+07
4.46732e+07
4.31261e+07
4.15094e+07
3.9861e+07
3.82107e+07
3.65818e+07
3.4992e+07
3.34544e+07
3.19781e+07
3.05693e+07
2.92322e+07
2.79687e+07
2.67792e+07
5.04193e+07
5.00618e+07
4.93284e+07
4.82908e+07
4.70191e+07
4.55754e+07
4.40142e+07
4.2382e+07
4.07166e+07
3.90482e+07
3.74004e+07
3.57911e+07
3.42335e+07
3.27369e+07
3.13078e+07
2.99503e+07
2.86666e+07
2.74572e+07
5.09489e+07
5.0591e+07
4.9856e+07
4.88153e+07
4.75383e+07
4.6088e+07
4.4519e+07
4.28778e+07
4.12025e+07
3.95237e+07
3.7865e+07
3.62445e+07
3.46754e+07
3.31672e+07
3.17264e+07
3.03572e+07
2.90621e+07
2.78417e+07
5.11712e+07
5.08148e+07
5.0078e+07
4.90355e+07
4.77559e+07
4.63028e+07
4.47304e+07
4.30853e+07
4.14058e+07
3.97225e+07
3.80592e+07
3.64338e+07
3.48597e+07
3.33466e+07
3.19008e+07
3.05267e+07
2.92269e+07
2.8002e+07
6.04958e+07
6.04367e+07
6.03059e+07
6.01001e+07
5.98172e+07
5.94566e+07
5.90183e+07
5.85032e+07
5.79122e+07
5.7247e+07
5.65094e+07
5.57014e+07
5.48254e+07
5.38839e+07
5.28797e+07
5.18159e+07
5.06956e+07
4.95223e+07
4.82997e+07
4.70317e+07
4.57223e+07
4.43755e+07
4.29956e+07
4.15869e+07
4.0154e+07
3.87013e+07
3.72334e+07
3.57547e+07
3.42697e+07
3.2783e+07
3.12991e+07
2.98227e+07
2.83583e+07
2.69105e+07
2.54839e+07
2.40831e+07
2.27127e+07
2.13774e+07
2.0082e+07
1.88312e+07
1.76298e+07
1.64827e+07
1.53949e+07
1.43715e+07
1.34177e+07
1.25386e+07
1.17395e+07
1.10258e+07
1.0403e+07
9.8764e+06
9.45156e+06
9.13388e+06
8.92875e+06
8.84144e+06
8.87704e+06
9.04036e+06
9.33597e+06
9.7681e+06
1.03406e+07
1.10568e+07
1.19194e+07
1.29305e+07
1.40915e+07
1.54033e+07
1.68658e+07
1.84782e+07
2.02387e+07
2.21451e+07
2.41941e+07
2.63819e+07
2.8704e+07
3.1155e+07
3.37291e+07
3.64198e+07
3.92202e+07
4.21233e+07
4.51214e+07
4.82068e+07
5.13716e+07
5.4608e+07
5.79077e+07
6.12626e+07
6.46644e+07
6.81045e+07
7.15743e+07
7.50648e+07
7.8567e+07
8.20714e+07
8.55679e+07
8.90461e+07
9.24951e+07
9.59035e+07
9.92592e+07
1.0255e+08
1.05762e+08
1.08885e+08
1.11904e+08
1.14808e+08
1.17586e+08
1.20227e+08
1.22721e+08
1.2506e+08
1.27237e+08
1.29247e+08
1.31086e+08
1.32751e+08
1.34244e+08
1.35565e+08
1.36722e+08
1.37721e+08
1.38572e+08
1.39287e+08
1.39879e+08
1.40363e+08
1.40755e+08
1.41073e+08
1.41336e+08
1.41566e+08
1.41786e+08
1.42023e+08
1.42307e+08
1.4267e+08
1.4315e+08
1.43786e+08
1.44621e+08
1.45704e+08
1.47087e+08
1.48827e+08
1.50983e+08
1.53619e+08
1.56799e+08
1.60583e+08
1.65035e+08
1.70209e+08
1.76161e+08
1.82935e+08
1.90567e+08
1.99085e+08
2.08502e+08
2.18823e+08
2.3004e+08
2.42132e+08
2.55071e+08
2.68815e+08
2.83321e+08
2.98528e+08
3.14386e+08
3.30824e+08
3.47779e+08
3.65176e+08
3.82942e+08
4.00992e+08
4.19237e+08
4.37583e+08
4.55909e+08
4.74075e+08
4.91917e+08
5.09266e+08
5.25889e+08
5.41551e+08
5.55953e+08
5.68795e+08
5.79737e+08
5.88455e+08
5.94613e+08
5.97916e+08
5.98102e+08
5.9499e+08
5.88453e+08
5.7852e+08
5.65269e+08
5.48968e+08
5.29937e+08
5.08667e+08
4.85632e+08
4.61358e+08
4.36211e+08
4.10626e+08
3.84817e+08
3.59106e+08
5.94198e+07
5.93641e+07
5.92389e+07
5.90389e+07
5.87625e+07
5.84095e+07
5.79806e+07
5.74769e+07
5.68995e+07
5.62499e+07
5.55298e+07
5.47413e+07
5.38865e+07
5.29677e+07
5.19876e+07
5.0949e+07
4.98549e+07
4.87086e+07
4.75136e+07
4.62738e+07
4.49929e+07
4.3675e+07
4.23242e+07
4.09448e+07
3.95411e+07
3.81176e+07
3.66786e+07
3.52284e+07
3.37714e+07
3.2312e+07
3.08547e+07
2.94041e+07
2.79647e+07
2.6541e+07
2.51375e+07
2.37588e+07
2.24093e+07
2.10936e+07
1.98166e+07
1.85829e+07
1.73973e+07
1.62647e+07
1.51899e+07
1.41782e+07
1.32345e+07
1.23642e+07
1.15725e+07
1.08647e+07
1.02462e+07
9.72268e+06
9.29939e+06
8.98181e+06
8.77531e+06
8.68512e+06
8.71635e+06
8.8739e+06
9.16231e+06
9.58581e+06
1.01482e+07
1.08528e+07
1.17023e+07
1.26988e+07
1.38438e+07
1.5138e+07
1.65813e+07
1.81729e+07
1.99112e+07
2.17937e+07
2.38173e+07
2.59783e+07
2.82719e+07
3.06929e+07
3.32355e+07
3.58932e+07
3.86593e+07
4.15266e+07
4.44876e+07
4.75347e+07
5.06601e+07
5.38556e+07
5.71134e+07
6.04252e+07
6.37829e+07
6.71779e+07
7.06017e+07
7.40454e+07
7.74999e+07
8.09559e+07
8.44034e+07
8.78321e+07
9.12312e+07
9.45894e+07
9.78948e+07
1.01135e+08
1.04298e+08
1.07371e+08
1.10342e+08
1.13199e+08
1.1593e+08
1.18526e+08
1.20977e+08
1.23276e+08
1.25415e+08
1.27389e+08
1.29195e+08
1.30831e+08
1.32296e+08
1.33593e+08
1.34728e+08
1.35708e+08
1.36544e+08
1.37245e+08
1.37826e+08
1.38301e+08
1.38684e+08
1.38995e+08
1.39251e+08
1.39473e+08
1.39686e+08
1.39913e+08
1.40186e+08
1.40536e+08
1.40998e+08
1.41613e+08
1.42422e+08
1.43473e+08
1.44816e+08
1.46509e+08
1.48611e+08
1.51183e+08
1.54288e+08
1.57988e+08
1.62343e+08
1.67408e+08
1.73238e+08
1.79875e+08
1.87358e+08
1.95712e+08
2.04951e+08
2.1508e+08
2.26093e+08
2.37967e+08
2.50676e+08
2.64181e+08
2.78438e+08
2.93386e+08
3.08974e+08
3.25142e+08
3.41821e+08
3.58938e+08
3.76422e+08
3.94192e+08
4.1216e+08
4.30234e+08
4.48294e+08
4.66204e+08
4.83802e+08
5.00924e+08
5.17342e+08
5.32822e+08
5.47079e+08
5.59816e+08
5.70694e+08
5.79396e+08
5.85594e+08
5.88999e+08
5.89352e+08
5.86476e+08
5.80242e+08
5.70659e+08
5.57803e+08
5.41929e+08
5.23345e+08
5.0253e+08
4.79945e+08
4.56101e+08
4.31364e+08
4.06161e+08
3.80703e+08
3.55231e+08
5.73526e+07
5.72995e+07
5.71798e+07
5.69883e+07
5.67235e+07
5.63859e+07
5.59766e+07
5.54967e+07
5.49471e+07
5.4329e+07
5.36439e+07
5.28934e+07
5.20796e+07
5.12044e+07
5.02702e+07
4.92794e+07
4.8235e+07
4.714e+07
4.59977e+07
4.48115e+07
4.35852e+07
4.23225e+07
4.10276e+07
3.97044e+07
3.83569e+07
3.69891e+07
3.56051e+07
3.42091e+07
3.28053e+07
3.13982e+07
2.9992e+07
2.85911e+07
2.71999e+07
2.58227e+07
2.44639e+07
2.31277e+07
2.18186e+07
2.05411e+07
1.92998e+07
1.80994e+07
1.69445e+07
1.58399e+07
1.47906e+07
1.38015e+07
1.28777e+07
1.20245e+07
1.12472e+07
1.0551e+07
9.94131e+06
9.42365e+06
9.00341e+06
8.68601e+06
8.47687e+06
8.3812e+06
8.4041e+06
8.55046e+06
8.82482e+06
9.23141e+06
9.77404e+06
1.0456e+07
1.12799e+07
1.22479e+07
1.33613e+07
1.4621e+07
1.60267e+07
1.75775e+07
1.9272e+07
2.11077e+07
2.30814e+07
2.51894e+07
2.7427e+07
2.97891e+07
3.22699e+07
3.48629e+07
3.75616e+07
4.03589e+07
4.32474e+07
4.62196e+07
4.92678e+07
5.23841e+07
5.55603e+07
5.87886e+07
6.20608e+07
6.53684e+07
6.8703e+07
7.2056e+07
7.54183e+07
7.87807e+07
8.21334e+07
8.54663e+07
8.87687e+07
9.20295e+07
9.52374e+07
9.83803e+07
1.01446e+08
1.04423e+08
1.07298e+08
1.10062e+08
1.12703e+08
1.15211e+08
1.17578e+08
1.19797e+08
1.21861e+08
1.23765e+08
1.25506e+08
1.27083e+08
1.28494e+08
1.29744e+08
1.30837e+08
1.31781e+08
1.32586e+08
1.33261e+08
1.33821e+08
1.34277e+08
1.34644e+08
1.3494e+08
1.35182e+08
1.3539e+08
1.35587e+08
1.35796e+08
1.36046e+08
1.36368e+08
1.36796e+08
1.37366e+08
1.38121e+08
1.39107e+08
1.40372e+08
1.41972e+08
1.43963e+08
1.46406e+08
1.49363e+08
1.52894e+08
1.57057e+08
1.61906e+08
1.67493e+08
1.73861e+08
1.81045e+08
1.89075e+08
1.97962e+08
2.07712e+08
2.18317e+08
2.2976e+08
2.42016e+08
2.55048e+08
2.68809e+08
2.83245e+08
2.98303e+08
3.1393e+08
3.30059e+08
3.4662e+08
3.6354e+08
3.8075e+08
3.98161e+08
4.15684e+08
4.33203e+08
4.50591e+08
4.67688e+08
4.84334e+08
5.00314e+08
5.15398e+08
5.29321e+08
5.41791e+08
5.52486e+08
5.61103e+08
5.67324e+08
5.70875e+08
5.71506e+08
5.69045e+08
5.63357e+08
5.54429e+08
5.42334e+08
5.27297e+08
5.09605e+08
4.89712e+08
4.68045e+08
4.45081e+08
4.21194e+08
3.96785e+08
3.72079e+08
3.47248e+08
5.44562e+07
5.44069e+07
5.42947e+07
5.41154e+07
5.38684e+07
5.35547e+07
5.3175e+07
5.27299e+07
5.22201e+07
5.16466e+07
5.10104e+07
5.0313e+07
4.95557e+07
4.87404e+07
4.78689e+07
4.69438e+07
4.59676e+07
4.49431e+07
4.38733e+07
4.27614e+07
4.16108e+07
4.04251e+07
3.92079e+07
3.79627e+07
3.6693e+07
3.54026e+07
3.40952e+07
3.27748e+07
3.14455e+07
3.01114e+07
2.87767e+07
2.74454e+07
2.61217e+07
2.48095e+07
2.3513e+07
2.22362e+07
2.09836e+07
1.97595e+07
1.85682e+07
1.74143e+07
1.63025e+07
1.52373e+07
1.42237e+07
1.32665e+07
1.23709e+07
1.15419e+07
1.07848e+07
1.01049e+07
9.50762e+06
8.99834e+06
8.58247e+06
8.26543e+06
8.0526e+06
7.94918e+06
7.96025e+06
8.09069e+06
8.34508e+06
8.72761e+06
9.24203e+06
9.89157e+06
1.06789e+07
1.16062e+07
1.26746e+07
1.38849e+07
1.5237e+07
1.67299e+07
1.83621e+07
2.01311e+07
2.20339e+07
2.40668e+07
2.62252e+07
2.85039e+07
3.08974e+07
3.33994e+07
3.60032e+07
3.87021e+07
4.14889e+07
4.43561e+07
4.72963e+07
5.03015e+07
5.33641e+07
5.6476e+07
5.96291e+07
6.28153e+07
6.60262e+07
6.92531e+07
7.24875e+07
7.57201e+07
7.89413e+07
8.21413e+07
8.53096e+07
8.84353e+07
9.15075e+07
9.45144e+07
9.74448e+07
1.00287e+08
1.0303e+08
1.05663e+08
1.08176e+08
1.10561e+08
1.1281e+08
1.14915e+08
1.16873e+08
1.18677e+08
1.20325e+08
1.21817e+08
1.23152e+08
1.24335e+08
1.25368e+08
1.2626e+08
1.2702e+08
1.27657e+08
1.28184e+08
1.28612e+08
1.28956e+08
1.29229e+08
1.29449e+08
1.29635e+08
1.29808e+08
1.29991e+08
1.30208e+08
1.30488e+08
1.30864e+08
1.31371e+08
1.32048e+08
1.32941e+08
1.34095e+08
1.35563e+08
1.37399e+08
1.39661e+08
1.42408e+08
1.457e+08
1.49592e+08
1.54137e+08
1.59383e+08
1.65372e+08
1.7214e+08
1.79714e+08
1.88108e+08
1.97329e+08
2.07366e+08
2.18208e+08
2.29831e+08
2.42205e+08
2.55279e+08
2.69004e+08
2.83328e+08
2.98206e+08
3.13576e+08
3.2937e+08
3.45516e+08
3.61953e+08
3.78597e+08
3.95359e+08
4.12128e+08
4.28788e+08
4.45185e+08
4.61163e+08
4.76524e+08
4.91044e+08
5.04476e+08
5.16544e+08
5.26949e+08
5.35407e+08
5.41612e+08
5.45311e+08
5.46263e+08
5.44301e+08
5.39292e+08
5.31208e+08
5.20109e+08
5.06185e+08
4.897e+08
4.71065e+08
4.50663e+08
4.28936e+08
4.06246e+08
3.82969e+08
3.59343e+08
3.35518e+08
5.09313e+07
5.08873e+07
5.07853e+07
5.06223e+07
5.03986e+07
5.01146e+07
4.97707e+07
4.93672e+07
4.89049e+07
4.83842e+07
4.78059e+07
4.71709e+07
4.64805e+07
4.57363e+07
4.49399e+07
4.40935e+07
4.31992e+07
4.22595e+07
4.12771e+07
4.02549e+07
3.91958e+07
3.8103e+07
3.69794e+07
3.58282e+07
3.46524e+07
3.34555e+07
3.2241e+07
3.10127e+07
2.97743e+07
2.85296e+07
2.72823e+07
2.6036e+07
2.47946e+07
2.35618e+07
2.23414e+07
2.11373e+07
1.99538e+07
1.87949e+07
1.76649e+07
1.65681e+07
1.55089e+07
1.44921e+07
1.35222e+07
1.26043e+07
1.17431e+07
1.09438e+07
1.02115e+07
9.55162e+06
8.96943e+06
8.47035e+06
8.05976e+06
7.74304e+06
7.52556e+06
7.41251e+06
7.40894e+06
7.51968e+06
7.74927e+06
8.10184e+06
8.58111e+06
9.19032e+06
9.93212e+06
1.08085e+07
1.18209e+07
1.29698e+07
1.42551e+07
1.56759e+07
1.72305e+07
1.89167e+07
2.07315e+07
2.26711e+07
2.47311e+07
2.69066e+07
2.91919e+07
3.15809e+07
3.40674e+07
3.66446e+07
3.93055e+07
4.2043e+07
4.48497e+07
4.7718e+07
5.06402e+07
5.36086e+07
5.66153e+07
5.96522e+07
6.2711e+07
6.57834e+07
6.88608e+07
7.19345e+07
7.49947e+07
7.8032e+07
8.10364e+07
8.39974e+07
8.69043e+07
8.97459e+07
9.25112e+07
9.51897e+07
9.7771e+07
1.00245e+08
1.02604e+08
1.04838e+08
1.06941e+08
1.08908e+08
1.10734e+08
1.12415e+08
1.13949e+08
1.15335e+08
1.16576e+08
1.17674e+08
1.18633e+08
1.19459e+08
1.20162e+08
1.2075e+08
1.21235e+08
1.21626e+08
1.21937e+08
1.22181e+08
1.22373e+08
1.2253e+08
1.2267e+08
1.22816e+08
1.22991e+08
1.23219e+08
1.23531e+08
1.2396e+08
1.24544e+08
1.25322e+08
1.26339e+08
1.27646e+08
1.29293e+08
1.31336e+08
1.33827e+08
1.36828e+08
1.40389e+08
1.44563e+08
1.49395e+08
1.54926e+08
1.61189e+08
1.68212e+08
1.76011e+08
1.84591e+08
1.93947e+08
2.04065e+08
2.14926e+08
2.26503e+08
2.38752e+08
2.51627e+08
2.65074e+08
2.79057e+08
2.93519e+08
3.08398e+08
3.23624e+08
3.39138e+08
3.54863e+08
3.70713e+08
3.86582e+08
4.02362e+08
4.17912e+08
4.3308e+08
4.47684e+08
4.61515e+08
4.74334e+08
4.8589e+08
4.95915e+08
5.04138e+08
5.10279e+08
5.14098e+08
5.15367e+08
5.13935e+08
5.09673e+08
5.02537e+08
4.92572e+08
4.79931e+08
4.64854e+08
4.47702e+08
4.2881e+08
4.08584e+08
3.87353e+08
3.65469e+08
3.43179e+08
3.20644e+08
4.70011e+07
4.6964e+07
4.68746e+07
4.67308e+07
4.65331e+07
4.62818e+07
4.59771e+07
4.56192e+07
4.52084e+07
4.47448e+07
4.42291e+07
4.36621e+07
4.30448e+07
4.23783e+07
4.16642e+07
4.09042e+07
4.01e+07
3.92537e+07
3.83677e+07
3.74445e+07
3.64864e+07
3.5496e+07
3.44758e+07
3.34285e+07
3.23569e+07
3.12639e+07
3.0153e+07
2.90275e+07
2.78905e+07
2.67454e+07
2.55955e+07
2.44442e+07
2.32948e+07
2.21508e+07
2.10157e+07
1.98933e+07
1.87874e+07
1.77019e+07
1.66408e+07
1.56083e+07
1.46086e+07
1.36463e+07
1.27258e+07
1.18519e+07
1.10295e+07
1.02636e+07
9.55926e+06
8.92182e+06
8.35656e+06
7.86884e+06
7.46404e+06
7.1475e+06
6.92456e+06
6.8004e+06
6.78001e+06
6.86814e+06
7.06932e+06
7.38763e+06
7.82673e+06
8.38979e+06
9.07942e+06
9.8976e+06
1.08457e+07
1.19242e+07
1.3133e+07
1.44712e+07
1.59372e+07
1.75286e+07
1.92426e+07
2.10755e+07
2.30231e+07
2.50804e+07
2.7242e+07
2.95021e+07
3.18545e+07
3.42928e+07
3.68101e+07
3.93995e+07
4.20539e+07
4.47659e+07
4.75281e+07
5.03328e+07
5.31725e+07
5.60392e+07
5.8925e+07
6.18216e+07
6.47206e+07
6.76135e+07
7.0491e+07
7.33437e+07
7.61622e+07
7.89366e+07
8.16567e+07
8.43116e+07
8.68912e+07
8.93858e+07
9.17858e+07
9.40822e+07
9.62668e+07
9.83321e+07
1.00272e+08
1.02083e+08
1.0376e+08
1.05303e+08
1.06707e+08
1.07976e+08
1.09108e+08
1.10109e+08
1.10982e+08
1.11732e+08
1.12368e+08
1.12898e+08
1.13331e+08
1.13677e+08
1.13947e+08
1.14154e+08
1.1431e+08
1.14431e+08
1.14532e+08
1.14634e+08
1.14757e+08
1.14924e+08
1.15164e+08
1.15506e+08
1.15984e+08
1.16634e+08
1.17499e+08
1.18625e+08
1.2006e+08
1.21856e+08
1.24062e+08
1.26737e+08
1.29929e+08
1.33688e+08
1.38058e+08
1.43077e+08
1.48779e+08
1.55191e+08
1.62329e+08
1.70199e+08
1.788e+08
1.8812e+08
1.98139e+08
2.08838e+08
2.20178e+08
2.32118e+08
2.44606e+08
2.57609e+08
2.71076e+08
2.84952e+08
2.99169e+08
3.13672e+08
3.28388e+08
3.43233e+08
3.58111e+08
3.72918e+08
3.87528e+08
4.01792e+08
4.15544e+08
4.28593e+08
4.40711e+08
4.5167e+08
4.61234e+08
4.69151e+08
4.75168e+08
4.79052e+08
4.80604e+08
4.79687e+08
4.76172e+08
4.70009e+08
4.61219e+08
4.49933e+08
4.3636e+08
4.20807e+08
4.03565e+08
3.85002e+08
3.65402e+08
3.45091e+08
3.24319e+08
3.03276e+08
4.28906e+07
4.28611e+07
4.27852e+07
4.26618e+07
4.24912e+07
4.22737e+07
4.20093e+07
4.16979e+07
4.13396e+07
4.09344e+07
4.04829e+07
3.99857e+07
3.94434e+07
3.88571e+07
3.82277e+07
3.75567e+07
3.68456e+07
3.60961e+07
3.53099e+07
3.44891e+07
3.36355e+07
3.27512e+07
3.18381e+07
3.08987e+07
2.99354e+07
2.89509e+07
2.79481e+07
2.69297e+07
2.58986e+07
2.48577e+07
2.38098e+07
2.27579e+07
2.1705e+07
2.06543e+07
1.9609e+07
1.85726e+07
1.75485e+07
1.65404e+07
1.55521e+07
1.45875e+07
1.36506e+07
1.27458e+07
1.18775e+07
1.10502e+07
1.02688e+07
9.53811e+06
8.86329e+06
8.24951e+06
7.70203e+06
7.2262e+06
6.82733e+06
6.51074e+06
6.2817e+06
6.14537e+06
6.10669e+06
6.17039e+06
6.34091e+06
6.62229e+06
7.01811e+06
7.53149e+06
8.16497e+06
8.92047e+06
9.79927e+06
1.08019e+07
1.19283e+07
1.31775e+07
1.45479e+07
1.60373e+07
1.76426e+07
1.93604e+07
2.11865e+07
2.31163e+07
2.51444e+07
2.72653e+07
2.94729e+07
3.1761e+07
3.41232e+07
3.65526e+07
3.90425e+07
4.15856e+07
4.41747e+07
4.68026e+07
4.94618e+07
5.21446e+07
5.48435e+07
5.75502e+07
6.02566e+07
6.29544e+07
6.56348e+07
6.82888e+07
7.09072e+07
7.34808e+07
7.59998e+07
7.84546e+07
8.08355e+07
8.31335e+07
8.534e+07
8.74471e+07
8.94472e+07
9.13339e+07
9.31019e+07
9.47475e+07
9.6268e+07
9.76622e+07
9.89296e+07
1.00071e+08
1.01088e+08
1.01984e+08
1.02763e+08
1.03429e+08
1.03991e+08
1.04455e+08
1.04829e+08
1.05122e+08
1.05345e+08
1.05507e+08
1.05622e+08
1.057e+08
1.05757e+08
1.05809e+08
1.05874e+08
1.05976e+08
1.06137e+08
1.06385e+08
1.06751e+08
1.07266e+08
1.0797e+08
1.08905e+08
1.10115e+08
1.11651e+08
1.13559e+08
1.15892e+08
1.18696e+08
1.22019e+08
1.25903e+08
1.30385e+08
1.35499e+08
1.41272e+08
1.47719e+08
1.54848e+08
1.62661e+08
1.71149e+08
1.80296e+08
1.90084e+08
2.00482e+08
2.11453e+08
2.22951e+08
2.34944e+08
2.47385e+08
2.60224e+08
2.734e+08
2.86858e+08
3.00528e+08
3.14329e+08
3.28175e+08
3.41968e+08
3.5559e+08
3.68899e+08
3.81742e+08
3.93947e+08
4.05302e+08
4.156e+08
4.2463e+08
4.32169e+08
4.37989e+08
4.41872e+08
4.43643e+08
4.43182e+08
4.40362e+08
4.35125e+08
4.27478e+08
4.17537e+08
4.05471e+08
3.91545e+08
3.76001e+08
3.59166e+08
3.41279e+08
3.22641e+08
3.03493e+08
2.84059e+08
3.88133e+07
3.87912e+07
3.87287e+07
3.86254e+07
3.84816e+07
3.82972e+07
3.80721e+07
3.7806e+07
3.74989e+07
3.71509e+07
3.67623e+07
3.63334e+07
3.58647e+07
3.53568e+07
3.48106e+07
3.4227e+07
3.36072e+07
3.29525e+07
3.22642e+07
3.15438e+07
3.07926e+07
3.00124e+07
2.92048e+07
2.83718e+07
2.75156e+07
2.66384e+07
2.57425e+07
2.48303e+07
2.39041e+07
2.29665e+07
2.20197e+07
2.10666e+07
2.01097e+07
1.91519e+07
1.81961e+07
1.72454e+07
1.6303e+07
1.53722e+07
1.44565e+07
1.35596e+07
1.26855e+07
1.18382e+07
1.10219e+07
1.02412e+07
9.50077e+06
8.80536e+06
8.15999e+06
7.56981e+06
7.04001e+06
6.57588e+06
6.18271e+06
5.86574e+06
5.6302e+06
5.4812e+06
5.42364e+06
5.4622e+06
5.60126e+06
5.84476e+06
6.19623e+06
6.65873e+06
7.2347e+06
7.926e+06
8.73386e+06
9.65881e+06
1.07007e+07
1.18585e+07
1.31308e+07
1.45152e+07
1.60088e+07
1.76082e+07
1.93094e+07
2.11079e+07
2.29985e+07
2.49757e+07
2.7034e+07
2.91671e+07
3.13689e+07
3.36328e+07
3.59523e+07
3.83205e+07
4.07305e+07
4.31752e+07
4.56474e+07
4.81396e+07
5.06444e+07
5.31541e+07
5.56607e+07
5.81563e+07
6.06324e+07
6.30805e+07
6.5492e+07
6.78579e+07
7.01694e+07
7.24177e+07
7.45939e+07
7.669e+07
7.86982e+07
8.06114e+07
8.24228e+07
8.41273e+07
8.57201e+07
8.7198e+07
8.85589e+07
8.98026e+07
9.09298e+07
9.19412e+07
9.28386e+07
9.36255e+07
9.43058e+07
9.48843e+07
9.53668e+07
9.57597e+07
9.60696e+07
9.63046e+07
9.6474e+07
9.65871e+07
9.66533e+07
9.66843e+07
9.66919e+07
9.66901e+07
9.66952e+07
9.67273e+07
9.68069e+07
9.69585e+07
9.72094e+07
9.7589e+07
9.81307e+07
9.88738e+07
9.986e+07
1.01135e+08
1.02743e+08
1.04733e+08
1.07148e+08
1.10033e+08
1.1343e+08
1.17375e+08
1.21901e+08
1.27034e+08
1.32791e+08
1.39183e+08
1.46211e+08
1.53873e+08
1.62154e+08
1.7104e+08
1.80505e+08
1.90517e+08
2.01037e+08
2.12036e+08
2.23466e+08
2.35281e+08
2.47425e+08
2.59847e+08
2.72477e+08
2.85242e+08
2.98059e+08
3.10836e+08
3.23458e+08
3.35794e+08
3.47706e+08
3.59035e+08
3.69587e+08
3.79178e+08
3.87615e+08
3.94707e+08
4.00253e+08
4.04053e+08
4.05961e+08
4.05861e+08
4.0364e+08
3.99233e+08
3.92642e+08
3.83964e+08
3.73338e+08
3.60988e+08
3.47112e+08
3.31992e+08
3.15826e+08
2.98885e+08
2.81401e+08
2.63625e+08
3.49563e+07
3.49411e+07
3.48908e+07
3.48062e+07
3.46873e+07
3.45338e+07
3.43453e+07
3.41217e+07
3.38628e+07
3.35685e+07
3.32388e+07
3.28739e+07
3.24741e+07
3.20398e+07
3.15715e+07
3.10699e+07
3.05357e+07
2.99698e+07
2.93732e+07
2.87469e+07
2.80921e+07
2.74099e+07
2.67018e+07
2.59692e+07
2.5214e+07
2.4438e+07
2.36431e+07
2.28311e+07
2.20041e+07
2.1164e+07
2.0313e+07
1.94534e+07
1.85875e+07
1.77178e+07
1.68468e+07
1.59774e+07
1.51125e+07
1.4255e+07
1.34082e+07
1.25757e+07
1.17611e+07
1.09684e+07
1.02017e+07
9.46529e+06
8.76373e+06
8.10179e+06
7.48437e+06
6.91651e+06
6.40335e+06
5.9501e+06
5.56199e+06
5.24423e+06
5.00199e+06
4.84033e+06
4.76411e+06
4.77794e+06
4.88611e+06
5.09252e+06
5.40059e+06
5.81326e+06
6.3329e+06
6.96132e+06
7.69965e+06
8.54833e+06
9.50716e+06
1.05752e+07
1.17508e+07
1.30318e+07
1.44153e+07
1.58978e+07
1.74755e+07
1.91439e+07
2.08983e+07
2.27331e+07
2.4643e+07
2.6622e+07
2.86642e+07
3.07632e+07
3.29127e+07
3.51062e+07
3.7337e+07
3.95983e+07
4.1883e+07
4.41841e+07
4.64944e+07
4.88063e+07
5.11124e+07
5.34049e+07
5.56759e+07
5.79174e+07
6.01212e+07
6.22791e+07
6.4383e+07
6.64248e+07
6.83967e+07
7.02913e+07
7.21017e+07
7.38217e+07
7.54456e+07
7.6969e+07
7.83878e+07
7.96994e+07
8.09028e+07
8.1998e+07
8.29859e+07
8.38678e+07
8.46457e+07
8.53228e+07
8.59031e+07
8.6391e+07
8.67917e+07
8.71105e+07
8.73528e+07
8.75256e+07
8.76373e+07
8.76961e+07
8.77103e+07
8.76894e+07
8.76439e+07
8.75855e+07
8.75287e+07
8.74906e+07
8.74889e+07
8.75449e+07
8.76831e+07
8.79301e+07
8.83158e+07
8.88756e+07
8.96474e+07
9.06724e+07
9.1993e+07
9.3652e+07
9.5692e+07
9.81556e+07
1.01083e+08
1.04511e+08
1.0847e+08
1.12986e+08
1.18078e+08
1.23761e+08
1.30037e+08
1.36906e+08
1.44358e+08
1.52384e+08
1.60959e+08
1.70056e+08
1.79643e+08
1.89693e+08
2.00161e+08
2.10999e+08
2.22157e+08
2.33583e+08
2.45215e+08
2.56982e+08
2.68803e+08
2.80587e+08
2.92228e+08
3.03601e+08
3.14583e+08
3.25024e+08
3.34755e+08
3.43608e+08
3.51409e+08
3.57992e+08
3.63187e+08
3.66816e+08
3.68758e+08
3.68907e+08
3.6716e+08
3.63457e+08
3.57796e+08
3.50255e+08
3.40948e+08
3.30067e+08
3.17769e+08
3.04288e+08
2.89792e+08
2.74514e+08
2.58675e+08
2.4255e+08
3.14714e+07
3.14618e+07
3.14222e+07
3.13542e+07
3.12575e+07
3.11316e+07
3.09763e+07
3.0791e+07
3.05755e+07
3.03296e+07
3.00531e+07
2.9746e+07
2.94084e+07
2.90404e+07
2.86423e+07
2.82144e+07
2.77572e+07
2.72713e+07
2.67572e+07
2.62157e+07
2.56475e+07
2.50537e+07
2.44352e+07
2.37933e+07
2.31292e+07
2.24445e+07
2.17406e+07
2.10191e+07
2.02815e+07
1.95295e+07
1.8765e+07
1.79899e+07
1.72062e+07
1.6416e+07
1.56217e+07
1.48257e+07
1.40307e+07
1.32394e+07
1.2455e+07
1.16806e+07
1.09199e+07
1.01766e+07
9.45462e+06
8.75818e+06
8.09175e+06
7.45998e+06
6.8677e+06
6.31985e+06
5.8215e+06
5.37777e+06
4.99384e+06
4.67486e+06
4.42597e+06
4.25219e+06
4.1583e+06
4.14885e+06
4.22802e+06
4.39963e+06
4.66699e+06
5.03291e+06
5.49969e+06
6.06902e+06
6.74193e+06
7.5188e+06
8.39933e+06
9.38253e+06
1.04668e+07
1.16498e+07
1.29286e+07
1.43e+07
1.57599e+07
1.73043e+07
1.89283e+07
2.06268e+07
2.23942e+07
2.42251e+07
2.61135e+07
2.80534e+07
3.00385e+07
3.20627e+07
3.41196e+07
3.62026e+07
3.8305e+07
4.04198e+07
4.25402e+07
4.46591e+07
4.67693e+07
4.88635e+07
5.09342e+07
5.29737e+07
5.49748e+07
5.69296e+07
5.88309e+07
6.06713e+07
6.24439e+07
6.4142e+07
6.57596e+07
6.72913e+07
6.87326e+07
7.00798e+07
7.13296e+07
7.24798e+07
7.35303e+07
7.4481e+07
7.53334e+07
7.60888e+07
7.67493e+07
7.7318e+07
7.77986e+07
7.81954e+07
7.85129e+07
7.87553e+07
7.89276e+07
7.9036e+07
7.90873e+07
7.90886e+07
7.90474e+07
7.89715e+07
7.88703e+07
7.87538e+07
7.86348e+07
7.85276e+07
7.84474e+07
7.84126e+07
7.84448e+07
7.85683e+07
7.88098e+07
7.92008e+07
7.97752e+07
8.05696e+07
8.1623e+07
8.29758e+07
8.46678e+07
8.67395e+07
8.92297e+07
9.21739e+07
9.56029e+07
9.95429e+07
1.04016e+08
1.09037e+08
1.14612e+08
1.20744e+08
1.27426e+08
1.34652e+08
1.42403e+08
1.50654e+08
1.59378e+08
1.68547e+08
1.78123e+08
1.88056e+08
1.98294e+08
2.08792e+08
2.19491e+08
2.30316e+08
2.41193e+08
2.5203e+08
2.62726e+08
2.73165e+08
2.83234e+08
2.92795e+08
3.017e+08
3.09796e+08
3.16927e+08
3.22949e+08
3.27725e+08
3.31093e+08
3.32958e+08
3.33233e+08
3.31827e+08
3.28686e+08
3.23808e+08
3.17252e+08
3.09115e+08
2.99555e+08
2.88703e+08
2.76743e+08
2.63818e+08
2.50124e+08
2.35869e+08
2.21339e+08
2.84688e+07
2.84633e+07
2.84324e+07
2.83782e+07
2.83004e+07
2.81984e+07
2.80717e+07
2.79197e+07
2.7742e+07
2.75382e+07
2.7308e+07
2.70512e+07
2.67676e+07
2.64572e+07
2.61199e+07
2.57559e+07
2.53654e+07
2.49486e+07
2.45059e+07
2.40376e+07
2.35443e+07
2.30267e+07
2.24856e+07
2.19217e+07
2.13362e+07
2.07302e+07
2.01047e+07
1.9461e+07
1.88003e+07
1.81242e+07
1.74341e+07
1.67316e+07
1.60185e+07
1.52966e+07
1.45681e+07
1.38351e+07
1.31001e+07
1.23656e+07
1.16347e+07
1.09103e+07
1.01958e+07
9.49482e+06
8.8112e+06
8.14902e+06
7.51265e+06
6.90665e+06
6.33576e+06
5.80486e+06
5.31891e+06
4.88299e+06
4.50222e+06
4.18171e+06
3.92654e+06
3.74164e+06
3.63173e+06
3.60125e+06
3.65434e+06
3.79468e+06
4.02548e+06
4.34943e+06
4.76868e+06
5.28479e+06
5.89869e+06
6.61063e+06
7.42021e+06
8.32634e+06
9.32731e+06
1.04208e+07
1.1604e+07
1.28733e+07
1.4225e+07
1.56549e+07
1.71583e+07
1.87302e+07
2.03652e+07
2.20578e+07
2.38024e+07
2.55929e+07
2.74235e+07
2.92881e+07
3.11806e+07
3.30947e+07
3.5024e+07
3.69618e+07
3.89015e+07
4.08364e+07
4.27596e+07
4.46643e+07
4.65435e+07
4.839e+07
5.01971e+07
5.19577e+07
5.36651e+07
5.53129e+07
5.68946e+07
5.84046e+07
5.98376e+07
6.11894e+07
6.24561e+07
6.36346e+07
6.47227e+07
6.57186e+07
6.66225e+07
6.74345e+07
6.81564e+07
6.87895e+07
6.93358e+07
6.97986e+07