/*--------------------------------*- C++ -*----------------------------------*\
| =========                 |                                                 |
| \\      /  F ield         | OpenFOAM: The Open Source CFD Toolbox           |
|  \\    /   O peration     | Version:  dev                                   |
|   \\  /    A nd           | Web:      http://www.openfoam.org               |
|    \\/     M anipulation  |                                                 |
\*---------------------------------------------------------------------------*/
FoamFile
{
    version     2.0;
    format      ascii;
    class       volScalarField;
    object      rho;
    location    "9.125";
}
// * * * * * * * * * * * * * * * * * * * * * * * * * * * * * * * * * * * * * //

dimensions      [1 -3 0 0 0 0 0];

internalField   nonuniform List<scalar> 
12225
(
1.204
1.19954
1.19946
1.19969
1.19985
1.20014
1.19924
1.20047
1.1987
1.20147
1.19844
1.20385
1.19942
1.2068
1.20519
1.20404
1.21496
1.20754
1.20063
1.19619
1.19867
1.20113
1.2032
1.20584
1.2051
1.20915
1.20565
1.21249
1.20514
1.21645
1.20702
1.21796
1.2158
1.21486
1.2208
1.22689
1.1993
1.1954
1.19783
1.20094
1.20302
1.20626
1.20697
1.21048
1.21038
1.21393
1.21328
1.21657
1.21678
1.21919
1.22022
1.22093
1.22772
1.23177
1.19952
1.19435
1.19798
1.19856
1.20285
1.20253
1.207
1.20543
1.2109
1.2087
1.21408
1.21217
1.2168
1.21671
1.22019
1.22188
1.22445
1.22662
1.19991
1.19224
1.19818
1.19617
1.20167
1.20007
1.20525
1.20307
1.20849
1.20676
1.2116
1.21065
1.21463
1.21584
1.21838
1.22296
1.22052
1.22484
1.19973
1.19058
1.19802
1.19469
1.20096
1.19894
1.20437
1.2019
1.20746
1.20532
1.21043
1.20886
1.21346
1.2139
1.21724
1.21983
1.21935
1.22237
1.19883
1.18888
1.19711
1.19254
1.19906
1.19679
1.20257
1.19971
1.20569
1.20325
1.20851
1.20738
1.21153
1.21221
1.21541
1.21668
1.21903
1.22183
1.19756
1.18702
1.19556
1.1907
1.19698
1.19478
1.20089
1.19765
1.20376
1.20104
1.20633
1.20511
1.20921
1.20976
1.21313
1.21385
1.2162
1.21723
1.19601
1.18537
1.19316
1.18892
1.19468
1.1932
1.1985
1.19591
1.20092
1.19909
1.2032
1.20304
1.2059
1.20753
1.20957
1.21104
1.21253
1.21392
1.1933
1.18301
1.1905
1.1866
1.19217
1.19057
1.19497
1.19298
1.19679
1.19587
1.199
1.19937
1.20157
1.2032
1.2047
1.20652
1.20752
1.20915
1.19031
1.18109
1.18639
1.1836
1.18844
1.18708
1.19011
1.18951
1.19143
1.19187
1.19387
1.19441
1.19612
1.19785
1.19859
1.20049
1.20144
1.20276
1.1854
1.17737
1.18084
1.17952
1.18272
1.18195
1.18387
1.18338
1.18509
1.18586
1.18667
1.18782
1.18888
1.19005
1.19135
1.1923
1.19308
1.19429
1.17946
1.17281
1.17426
1.17371
1.17535
1.17485
1.17556
1.17624
1.17687
1.17746
1.17828
1.1793
1.17994
1.18071
1.18184
1.1829
1.18346
1.1844
1.17219
1.16625
1.16642
1.16639
1.1667
1.16634
1.16675
1.1669
1.16712
1.16792
1.16827
1.16874
1.16948
1.17045
1.17082
1.17146
1.17238
1.1732
1.16365
1.15803
1.15719
1.15688
1.15645
1.15602
1.15593
1.15593
1.15605
1.15638
1.15669
1.15742
1.15779
1.15836
1.15904
1.15975
1.16019
1.16093
1.15269
1.14753
1.14621
1.14557
1.14485
1.1443
1.14394
1.14372
1.14373
1.14396
1.14427
1.1448
1.14524
1.14597
1.14655
1.14714
1.14788
1.14858
1.13975
1.13507
1.13334
1.13251
1.13186
1.13138
1.13105
1.13093
1.13106
1.13131
1.1318
1.13246
1.1332
1.13399
1.13483
1.13569
1.13658
1.13747
1.12508
1.12139
1.11998
1.11956
1.11932
1.11913
1.11927
1.11964
1.12027
1.12103
1.12204
1.12305
1.12427
1.12536
1.1266
1.12768
1.12891
1.13013
1.11173
1.1093
1.1085
1.1087
1.10909
1.10962
1.11045
1.11147
1.11275
1.11409
1.11562
1.11714
1.11885
1.12043
1.12226
1.12389
1.12577
1.12736
1.10066
1.09956
1.09958
1.10046
1.10178
1.10308
1.10458
1.10623
1.10819
1.11019
1.11237
1.11444
1.11667
1.11881
1.1211
1.12322
1.12555
1.12748
1.09183
1.09185
1.09246
1.09397
1.09604
1.09804
1.10034
1.10268
1.10524
1.10791
1.11071
1.11329
1.11606
1.11854
1.12124
1.12367
1.12625
1.12859
1.0846
1.08564
1.08686
1.08901
1.09149
1.09425
1.0971
1.10003
1.10322
1.10638
1.10971
1.1128
1.11598
1.11885
1.12184
1.12458
1.12738
1.13001
1.07931
1.08098
1.08263
1.08544
1.08856
1.0918
1.09505
1.0985
1.10205
1.10558
1.10919
1.11263
1.11609
1.1193
1.12248
1.12543
1.12833
1.13111
1.0752
1.07764
1.07971
1.0829
1.0863
1.08972
1.09343
1.0971
1.10099
1.10491
1.10876
1.11256
1.11624
1.11974
1.12312
1.12622
1.12925
1.13206
1.07233
1.07523
1.07741
1.08073
1.08442
1.08826
1.09222
1.0962
1.10027
1.10424
1.10831
1.11217
1.11607
1.11981
1.12338
1.12676
1.12992
1.13294
1.07042
1.0734
1.07577
1.07945
1.08347
1.08747
1.09156
1.09557
1.09967
1.10378
1.10792
1.112
1.11602
1.11991
1.12363
1.12719
1.13061
1.13386
1.06873
1.0721
1.07462
1.07836
1.08245
1.08651
1.09072
1.0949
1.09932
1.10373
1.10828
1.11265
1.11696
1.12105
1.125
1.12879
1.13248
1.13602
1.068
1.07164
1.07427
1.07801
1.08206
1.08631
1.09079
1.09542
1.10028
1.10504
1.10986
1.11434
1.11878
1.12288
1.12697
1.13069
1.1344
1.13764
1.06771
1.07152
1.07406
1.07787
1.08203
1.08647
1.09104
1.09574
1.10024
1.10452
1.10863
1.1125
1.11629
1.11977
1.1231
1.12604
1.12908
1.13122
1.0664
1.07024
1.07185
1.07444
1.07734
1.08033
1.08329
1.08625
1.0891
1.09194
1.09476
1.09757
1.10035
1.10305
1.10561
1.10809
1.11042
1.1125
1.26378
1.29514
1.27841
1.27729
1.2622
1.25434
1.24878
1.24469
1.24376
1.24299
1.24326
1.24281
1.24277
1.24264
1.24242
1.24145
1.24064
1.23956
1.23829
1.23693
1.23571
1.23504
1.23368
1.23209
1.23158
1.23108
1.22996
1.22979
1.22908
1.22784
1.22724
1.2265
1.22587
1.22515
1.22483
1.22458
1.22337
1.22331
1.22364
1.22181
1.22092
1.22207
1.2199
1.2139
1.20972
1.21008
1.21201
1.21394
1.21466
1.21386
1.21315
1.21482
1.21878
1.22285
1.22431
1.22465
1.22582
1.22688
1.22227
1.20566
1.19253
1.1946
1.20165
1.20692
1.21024
1.21367
1.21187
1.19631
1.17133
1.1595
1.1699
1.18678
1.19811
1.2054
1.21061
1.21493
1.21804
1.2206
1.22285
1.22515
1.22736
1.22938
1.231
1.23278
1.23475
1.23671
1.2386
1.24049
1.24212
1.24367
1.24543
1.24758
1.2495
1.25106
1.25275
1.25352
1.25538
1.25755
1.25778
1.25798
1.25944
1.25931
1.25907
1.2584
1.25747
1.2564
1.25562
1.25509
1.25308
1.25003
1.24535
1.24029
1.23561
1.23332
1.23014
1.22665
1.22207
1.21783
1.20935
1.20315
1.20437
1.20348
1.19096
1.17859
1.1686
1.15909
1.14871
1.13895
1.13252
1.13052
1.12848
1.12783
1.127
1.1281
1.12629
1.13064
1.12172
1.12441
1.1235
1.11145
1.11672
1.11397
1.11498
1.11389
1.11359
1.1125
1.11278
1.11114
1.1114
1.11041
1.1091
1.10819
1.10638
1.10568
1.10536
1.10525
1.10511
1.10388
1.10357
1.10391
1.10689
1.10957
1.11374
1.11847
1.12512
1.12664
1.13427
1.1353
1.13855
1.13197
1.122
1.11618
1.11952
1.11907
1.12115
1.12459
1.14708
1.13535
1.11841
1.10256
1.25987
1.32131
1.28299
1.24889
1.23145
1.21861
1.20935
1.20324
1.2009
1.20131
1.20268
1.20374
1.20518
1.20662
1.2083
1.20938
1.21074
1.21178
1.21271
1.21423
1.21595
1.21773
1.21784
1.21786
1.22027
1.22191
1.22127
1.22371
1.22386
1.22263
1.22394
1.22214
1.22268
1.2239
1.22233
1.2241
1.22286
1.22137
1.22414
1.22203
1.21892
1.22327
1.22182
1.21694
1.22318
1.22543
1.21431
1.21657
1.23467
1.24524
1.24358
1.24122
1.24337
1.25203
1.25379
1.24314
1.23739
1.23615
1.24188
1.25262
1.2443
1.22357
1.21622
1.21733
1.21885
1.22729
1.23561
1.23955
1.24299
1.25014
1.25858
1.26391
1.26579
1.26635
1.26585
1.2647
1.26251
1.26047
1.25917
1.25886
1.25882
1.25821
1.25663
1.25537
1.25557
1.25613
1.25765
1.25831
1.25997
1.26095
1.26214
1.26919
1.272
1.27489
1.28431
1.28204
1.28717
1.29291
1.30653
1.30584
1.31321
1.3186
1.32665
1.33189
1.33919
1.34347
1.34707
1.35004
1.35268
1.35335
1.35185
1.34762
1.34058
1.33713
1.33325
1.32788
1.31766
1.31141
1.30734
1.29408
1.28526
1.29864
1.29743
1.26554
1.22656
1.19234
1.17009
1.15849
1.1534
1.15268
1.14826
1.14744
1.15043
1.15606
1.15304
1.16856
1.15604
1.15925
1.17065
1.13525
1.14514
1.13888
1.13959
1.13843
1.13926
1.13726
1.13871
1.13571
1.13404
1.13455
1.12801
1.12671
1.11724
1.11379
1.10892
1.11477
1.12867
1.14094
1.14945
1.1516
1.15124
1.15724
1.1676
1.17624
1.19688
1.20047
1.21848
1.22193
1.25468
1.23865
1.19968
1.17532
1.14415
1.13317
1.17228
1.1956
1.27553
1.27728
1.25066
1.19579
1.24151
1.32526
1.32534
1.27624
1.23365
1.21608
1.21049
1.20074
1.19554
1.19739
1.20005
1.20294
1.20604
1.20927
1.21277
1.21657
1.22054
1.22443
1.22844
1.23246
1.23462
1.23572
1.23698
1.23811
1.23897
1.23937
1.23869
1.23916
1.23733
1.236
1.23585
1.23285
1.23316
1.23382
1.22895
1.2319
1.22833
1.22672
1.23025
1.2252
1.22379
1.2299
1.22386
1.21927
1.22292
1.21835
1.21129
1.21684
1.22015
1.21346
1.2057
1.21061
1.22586
1.24091
1.25019
1.24339
1.22693
1.22588
1.22909
1.22024
1.22132
1.2397
1.23209
1.21794
1.23578
1.24969
1.25055
1.2499
1.24834
1.24468
1.23822
1.23024
1.22265
1.21647
1.21104
1.20631
1.2009
1.19574
1.19153
1.18881
1.18701
1.18458
1.18204
1.1792
1.17756
1.17585
1.1746
1.17218
1.17274
1.17398
1.17116
1.17589
1.17535
1.17618
1.18286
1.18248
1.18534
1.18358
1.19869
1.202
1.20654
1.21114
1.22211
1.23048
1.24644
1.25989
1.2744
1.28435
1.29595
1.3044
1.32035
1.33606
1.34925
1.35175
1.34317
1.34025
1.33935
1.3234
1.3295
1.34483
1.32562
1.3178
1.33767
1.32297
1.26191
1.20286
1.17371
1.16168
1.15851
1.15866
1.16309
1.17194
1.17207
1.18728
1.17505
1.16719
1.16024
1.15483
1.17888
1.16594
1.16883
1.1579
1.15092
1.14017
1.13742
1.13339
1.13429
1.13183
1.12704
1.13013
1.12106
1.12288
1.10032
1.08565
1.05804
1.05656
1.07307
1.10073
1.12365
1.1465
1.17012
1.17271
1.17693
1.18017
1.19069
1.19185
1.20181
1.18595
1.27218
1.2855
1.22052
1.16404
1.12615
1.12446
1.19577
1.24409
1.27017
1.30508
1.3266
1.26745
1.22699
1.30116
1.34282
1.32668
1.28974
1.26035
1.22926
1.19956
1.19218
1.19896
1.20841
1.21695
1.22471
1.23245
1.23944
1.24501
1.24951
1.25182
1.25187
1.24933
1.24586
1.24361
1.24221
1.23987
1.23775
1.237
1.23614
1.23466
1.23325
1.23245
1.23226
1.22977
1.22708
1.22793
1.2216
1.22161
1.21859
1.21808
1.22087
1.21806
1.21836
1.22245
1.21741
1.22217
1.2321
1.22509
1.219
1.22014
1.2146
1.21589
1.21706
1.2112
1.21108
1.21507
1.21502
1.20978
1.20689
1.21997
1.21884
1.21241
1.24551
1.2571
1.22334
1.22422
1.24412
1.24493
1.23796
1.23152
1.22514
1.21774
1.21097
1.20568
1.20218
1.20029
1.19904
1.19703
1.19508
1.19466
1.19502
1.19528
1.19446
1.19213
1.19117
1.19098
1.19016
1.18949
1.18709
1.18144
1.17645
1.18009
1.17683
1.18069
1.18012
1.18159
1.17864
1.17486
1.17777
1.17823
1.17675
1.17715
1.17845
1.17737
1.17765
1.17702
1.17957
1.17996
1.18706
1.19099
1.2004
1.20268
1.21155
1.22983
1.25448
1.26934
1.27342
1.25626
1.28563
1.32039
1.30221
1.32143
1.34424
1.31787
1.32451
1.3429
1.28096
1.18872
1.16486
1.17497
1.17814
1.18006
1.1713
1.16961
1.20054
1.20616
1.19903
1.18752
1.1588
1.15584
1.15197
1.14364
1.14923
1.14176
1.15651
1.14694
1.15096
1.14911
1.14781
1.14896
1.13178
1.12848
1.10713
1.13156
1.12208
1.10936
1.05822
1.03506
1.03715
1.05653
1.08653
1.09459
1.12198
1.14623
1.15039
1.18387
1.19219
1.17886
1.15895
1.09172
1.2041
1.2828
1.23374
1.16511
1.15478
1.1454
1.17163
1.22241
1.13832
1.18205
1.26597
1.27629
1.22042
1.28006
1.33808
1.35865
1.34586
1.29633
1.22244
1.18186
1.18709
1.20672
1.22421
1.23806
1.24812
1.25546
1.26259
1.26015
1.24968
1.2394
1.233
1.23053
1.23042
1.23015
1.23038
1.23096
1.23219
1.23337
1.23484
1.2357
1.23661
1.23591
1.23596
1.23478
1.23195
1.22768
1.22373
1.22269
1.22025
1.22183
1.21526
1.20733
1.20707
1.20786
1.20602
1.20622
1.20987
1.21916
1.2265
1.21599
1.21332
1.22045
1.21168
1.20316
1.20154
1.19633
1.19285
1.19942
1.21517
1.22745
1.23113
1.23551
1.23683
1.22353
1.22343
1.24333
1.24184
1.22944
1.21987
1.21148
1.20434
1.19914
1.19724
1.19704
1.19906
1.20142
1.20243
1.20024
1.1964
1.19334
1.19103
1.18695
1.18252
1.17969
1.17918
1.17749
1.17441
1.17209
1.17045
1.16495
1.15616
1.1576
1.15563
1.1617
1.16616
1.17224
1.17471
1.16772
1.16937
1.17106
1.17401
1.18095
1.18426
1.18459
1.18698
1.18709
1.19128
1.18806
1.19012
1.18925
1.18609
1.1848
1.18637
1.17792
1.18917
1.20075
1.21506
1.21458
1.18828
1.20245
1.24756
1.26303
1.30418
1.32732
1.31405
1.31854
1.2989
1.23085
1.17307
1.16067
1.16836
1.17062
1.1681
1.19873
1.20274
1.20637
1.22689
1.19519
1.17999
1.17901
1.17886
1.17227
1.16829
1.1404
1.14317
1.12453
1.12109
1.1217
1.1184
1.14862
1.13087
1.12557
1.06622
1.08103
1.09496
1.12399
1.08599
1.03744
1.02888
1.03141
1.06951
1.08306
1.08282
1.12519
1.10842
1.15912
1.18537
1.18297
1.16214
1.05084
1.1144
1.24534
1.23819
1.17719
1.19368
1.18407
1.13517
1.14725
1.08197
1.10431
1.15735
1.20875
1.21823
1.27178
1.34063
1.38795
1.37439
1.28425
1.20159
1.18564
1.21016
1.23776
1.25799
1.28649
1.30669
1.26337
1.22854
1.22768
1.23399
1.23782
1.23847
1.24019
1.24084
1.2404
1.23924
1.23955
1.24167
1.24536
1.24902
1.24912
1.25025
1.25113
1.24947
1.24722
1.24219
1.23835
1.23844
1.23555
1.23211
1.23047
1.22915
1.22782
1.22114
1.20969
1.2031
1.19697
1.19438
1.20554
1.21476
1.21745
1.21777
1.21008
1.21416
1.22338
1.21119
1.19769
1.20551
1.22192
1.23548
1.23937
1.23084
1.22252
1.22131
1.22703
1.23825
1.23563
1.22004
1.20558
1.19556
1.19141
1.19287
1.19688
1.20088
1.20555
1.20975
1.2099
1.20336
1.19331
1.18349
1.17564
1.16855
1.1604
1.15413
1.15116
1.14982
1.14833
1.1466
1.14468
1.14472
1.14096
1.13528
1.13021
1.128
1.13069
1.13757
1.14855
1.15651
1.14737
1.14105
1.14576
1.14017
1.15648
1.16608
1.16441
1.16884
1.16799
1.17365
1.17592
1.18139
1.1837
1.18803
1.18698
1.18777
1.18789
1.18226
1.17837
1.18003
1.18001
1.17314
1.16217
1.18297
1.20837
1.20787
1.22336
1.25726
1.32267
1.33575
1.26666
1.1815
1.15585
1.17049
1.20899
1.18875
1.18528
1.20974
1.19328
1.20904
1.19681
1.20343
1.19646
1.20371
1.18492
1.18263
1.15579
1.14867
1.14311
1.13342
1.13161
1.09602
1.10955
1.09231
1.12621
1.08433
1.05995
1.04281
1.08761
1.10782
1.05468
1.03666
1.02885
1.06517
1.09115
1.04434
1.09263
1.05551
1.10213
1.14773
1.1794
1.1912
1.08245
1.06675
1.19889
1.24112
1.19565
1.21518
1.21672
1.14803
1.13241
1.11799
1.13291
1.13284
1.18528
1.21727
1.26749
1.34271
1.39028
1.34489
1.24147
1.19081
1.19938
1.22833
1.26886
1.29758
1.22471
1.21179
1.26386
1.23967
1.24579
1.25072
1.23906
1.2386
1.23597
1.23364
1.22948
1.22602
1.22585
1.2293
1.23431
1.23717
1.2356
1.23818
1.2398
1.23992
1.23717
1.22999
1.22441
1.22228
1.22341
1.22591
1.2284
1.22682
1.22238
1.21793
1.21877
1.2143
1.19485
1.18553
1.19668
1.20619
1.20921
1.20899
1.21377
1.21512
1.19662
1.18628
1.20018
1.22473
1.2343
1.23223
1.23246
1.23139
1.2308
1.23325
1.23322
1.22394
1.20466
1.1893
1.18494
1.19074
1.20096
1.20939
1.21427
1.21637
1.21475
1.20479
1.18917
1.17161
1.15764
1.14868
1.14238
1.13616
1.13137
1.13036
1.13013
1.12919
1.12952
1.12994
1.13038
1.13149
1.13225
1.13407
1.13113
1.13016
1.12549
1.12429
1.12499
1.13173
1.13058
1.1217
1.12751
1.11161
1.13236
1.15733
1.15133
1.16279
1.15441
1.16194
1.16599
1.17328
1.17565
1.17529
1.18237
1.18563
1.18626
1.18337
1.18244
1.18777
1.17692
1.17092
1.16828
1.16395
1.16554
1.17161
1.1818
1.18407
1.19613
1.2732
1.32567
1.26093
1.18563
1.15044
1.15376
1.20203
1.19897
1.22925
1.19593
1.17769
1.15085
1.18224
1.18718
1.19421
1.17621
1.19026
1.18513
1.15958
1.13214
1.10084
1.11806
1.09268
1.10332
1.05873
1.08336
1.08239
1.07847
1.05085
1.05028
1.09145
1.05643
1.04098
1.02181
1.05853
1.10912
1.03162
1.07236
1.03772
1.05531
1.0895
1.14309
1.19703
1.13246
1.04635
1.14026
1.22693
1.21415
1.23944
1.24316
1.16908
1.14523
1.15722
1.13945
1.09326
1.17751
1.21503
1.25521
1.31864
1.34868
1.28781
1.20942
1.18998
1.22667
1.27936
1.25641
1.22968
1.2641
1.25381
1.26481
1.25449
1.2293
1.23534
1.23391
1.23477
1.24528
1.24259
1.24024
1.23525
1.23288
1.23335
1.23677
1.24042
1.23926
1.24162
1.24387
1.24527
1.24383
1.23766
1.23003
1.22633
1.22412
1.2225
1.22215
1.22175
1.21758
1.21059
1.20702
1.20145
1.19273
1.19274
1.19923
1.20414
1.2019
1.20508
1.21014
1.19211
1.18011
1.19594
1.21208
1.22863
1.23851
1.23369
1.22985
1.22897
1.22713
1.22184
1.21142
1.19834
1.1901
1.19264
1.20053
1.20804
1.21276
1.21491
1.21154
1.20023
1.18299
1.16509
1.15087
1.14082
1.13638
1.13641
1.13879
1.14068
1.14378
1.14714
1.14829
1.14865
1.1505
1.1504
1.15009
1.15087
1.15157
1.15445
1.15759
1.16012
1.15998
1.15496
1.14503
1.12952
1.12286
1.11683
1.11798
1.10731
1.10032
1.12753
1.11432
1.13301
1.12287
1.13435
1.13569
1.15111
1.1632
1.16878
1.17126
1.17367
1.17612
1.18752
1.1757
1.17838
1.18407
1.1776
1.1677
1.17208
1.16191
1.16016
1.14778
1.16109
1.15609
1.16323
1.23881
1.28819
1.25232
1.22316
1.15644
1.17176
1.17069
1.17422
1.15696
1.15859
1.14828
1.16478
1.17549
1.20422
1.19194
1.19294
1.18653
1.15384
1.13335
1.09206
1.10995
1.0788
1.09204
1.05356
1.05972
1.05405
1.05296
1.05284
1.02525
1.05691
1.0489
1.05809
1.03036
1.03453
1.11113
1.03987
1.0626
1.05488
1.05378
1.05727
1.09901
1.17837
1.17353
1.04517
1.08567
1.19387
1.21982
1.264
1.25023
1.22355
1.20014
1.21764
1.19102
1.09654
1.17559
1.2125
1.23898
1.28201
1.29307
1.23531
1.19156
1.21227
1.26287
1.2776
1.25369
1.24481
1.27697
1.24633
1.23556
1.24196
1.22458
1.23949
1.25012
1.25592
1.25825
1.25939
1.25478
1.2479
1.23935
1.23318
1.23274
1.23787
1.23818
1.23777
1.24059
1.2436
1.24696
1.24709
1.2417
1.23659
1.23166
1.22844
1.22816
1.22941
1.22499
1.2135
1.20584
1.20504
1.20072
1.19327
1.1942
1.20308
1.20806
1.20652
1.202
1.19209
1.19089
1.21082
1.22557
1.22526
1.22905
1.22978
1.22569
1.22058
1.2126
1.20145
1.19044
1.18472
1.18636
1.19382
1.20212
1.20827
1.20904
1.19936
1.18334
1.1679
1.1554
1.14845
1.14758
1.15003
1.15376
1.15813
1.1613
1.16101
1.16014
1.15696
1.15192
1.14726
1.14491
1.14239
1.13992
1.14116
1.14067
1.144
1.15119
1.15905
1.1688
1.17767
1.18934
1.18459
1.16773
1.15823
1.14892
1.15822
1.13621
1.12671
1.10838
1.12118
1.10417
1.11633
1.09565
1.13179
1.12688
1.13987
1.1429
1.16312
1.15836
1.17544
1.17367
1.17917
1.17345
1.18311
1.17182
1.17251
1.16672
1.17018
1.15758
1.14752
1.15316
1.14479
1.14575
1.21043
1.23879
1.26006
1.22612
1.2174
1.20071
1.17395
1.15932
1.15878
1.15778
1.17855
1.182
1.21051
1.19669
1.18004
1.17643
1.14517
1.13377
1.0849
1.09166
1.06393
1.07293
1.04776
1.03893
1.03381
1.04184
1.06245
1.01929
1.01716
1.02383
1.06431
1.0646
1.03016
1.11222
1.06209
1.06198
1.06724
1.07028
1.05349
1.05998
1.13661
1.18664
1.06338
1.04966
1.14209
1.20782
1.2873
1.25097
1.28168
1.24311
1.17753
1.16769
1.13217
1.22863
1.2107
1.22382
1.24377
1.23623
1.19631
1.19693
1.24325
1.26578
1.25999
1.25419
1.25044
1.25416
1.24277
1.23342
1.24763
1.24505
1.24752
1.25184
1.2499
1.2496
1.25202
1.25347
1.2543
1.24778
1.23635
1.22473
1.22264
1.22551
1.22453
1.22368
1.22338
1.22482
1.23002
1.23216
1.2303
1.22732
1.22415
1.22151
1.22259
1.22757
1.22744
1.21739
1.20522
1.20661
1.19881
1.19304
1.19731
1.20824
1.21414
1.20196
1.19372
1.20334
1.21456
1.2211
1.22178
1.21892
1.21591
1.20952
1.2009
1.19275
1.18631
1.18518
1.19076
1.19837
1.20393
1.20385
1.1978
1.18457
1.16742
1.15402
1.14671
1.14446
1.14976
1.15765
1.16136
1.16001
1.15776
1.15163
1.14148
1.13113
1.12191
1.11537
1.11144
1.10988
1.10954
1.1072
1.10629
1.10462
1.10386
1.10572
1.11523
1.12633
1.13781
1.14859
1.17807
1.19011
1.1852
1.17549
1.17656
1.17866
1.15526
1.13947
1.13498
1.11948
1.13814
1.0903
1.12891
1.10882
1.12412
1.11449
1.14013
1.12658
1.15756
1.14695
1.16483
1.16548
1.17276
1.17016
1.16705
1.16311
1.16738
1.15147
1.16532
1.13311
1.15783
1.126
1.15349
1.15981
1.2029
1.22938
1.2287
1.23845
1.22754
1.1988
1.20092
1.20468
1.22107
1.19254
1.19705
1.17437
1.15523
1.16177
1.12479
1.11552
1.07274
1.08197
1.05769
1.06078
1.05489
1.03902
1.02753
1.03095
1.05393
1.01564
0.984546
1.00683
1.05444
1.09783
1.05049
1.09236
1.0715
1.05685
1.06104
1.08841
1.07696
1.0497
1.1081
1.17712
1.09617
1.03658
1.086
1.19013
1.27247
1.2517
1.32833
1.26397
1.19264
1.16493
1.16233
1.22807
1.21042
1.21512
1.22386
1.21731
1.20209
1.22183
1.26366
1.27339
1.26571
1.26857
1.26371
1.24899
1.24678
1.24196
1.24673
1.24712
1.24174
1.24619
1.25109
1.25753
1.25746
1.26269
1.26058
1.26475
1.26276
1.2506
1.235
1.23236
1.23264
1.22972
1.22684
1.22398
1.22274
1.22448
1.22542
1.22382
1.22011
1.21644
1.21245
1.21512
1.22349
1.22435
1.20434
1.20101
1.20261
1.19253
1.18917
1.19683
1.20516
1.19845
1.19111
1.20107
1.21476
1.21631
1.2133
1.20772
1.1998
1.19256
1.18625
1.18232
1.18227
1.1868
1.19415
1.20121
1.20484
1.20051
1.18563
1.1673
1.15579
1.14971
1.14646
1.15006
1.16125
1.16566
1.16049
1.14949
1.13939
1.12859
1.11749
1.10973
1.10653
1.10843
1.113
1.11805
1.12287
1.1249
1.12626
1.12621
1.12061
1.11229
1.10646
1.1102
1.12456
1.13049
1.13566
1.16323
1.18067
1.1933
1.18675
1.19079
1.1802
1.16488
1.14775
1.13542
1.14368
1.115
1.13218
1.12123
1.13038
1.11104
1.13718
1.11856
1.14277
1.13223
1.1461
1.15256
1.15397
1.16663
1.16441
1.15231
1.18851
1.12253
1.18644
1.12606
1.15689
1.12311
1.14681
1.12018
1.13032
1.1839
1.16375
1.20969
1.2227
1.19511
1.21253
1.19716
1.20631
1.16763
1.17472
1.15115
1.12494
1.13084
1.09546
1.09548
1.0563
1.06708
1.04824
1.05205
1.04922
1.02534
1.02234
1.0296
1.0487
1.02284
0.975645
0.998936
1.03283
1.11328
1.09769
1.07981
1.07241
1.0575
1.05573
1.09786
1.102
1.05256
1.0903
1.1529
1.11938
1.02755
1.03918
1.16608
1.24359
1.24615
1.36079
1.27432
1.19915
1.20371
1.23528
1.2463
1.21079
1.2088
1.20747
1.19762
1.20439
1.25346
1.29066
1.28651
1.2601
1.26322
1.26562
1.24835
1.24816
1.25284
1.25032
1.24908
1.25067
1.25837
1.2608
1.25988
1.25416
1.25403
1.24964
1.24622
1.24673
1.24883
1.24431
1.23758
1.23494
1.23465
1.23234
1.23051
1.22923
1.22608
1.22415
1.22199
1.21891
1.22071
1.21882
1.21436
1.2137
1.22334
1.21777
1.19497
1.19395
1.19568
1.19343
1.19296
1.18865
1.18004
1.18624
1.19997
1.20969
1.2094
1.20207
1.19686
1.19112
1.18358
1.17922
1.17978
1.18376
1.18818
1.18996
1.18673
1.17896
1.16922
1.15909
1.15214
1.14852
1.1467
1.14863
1.15541
1.15925
1.15275
1.14011
1.12487
1.11322
1.10595
1.10296
1.10569
1.11325
1.12193
1.12767
1.13023
1.12993
1.12772
1.12577
1.13059
1.13481
1.1354
1.13037
1.11865
1.11452
1.12342
1.12537
1.13582
1.155
1.17541
1.19743
1.20124
1.20271
1.18934
1.16461
1.15249
1.13963
1.13375
1.13169
1.12563
1.13795
1.12368
1.13233
1.12735
1.13769
1.12602
1.13758
1.14265
1.13563
1.15823
1.16246
1.13119
1.20199
1.11763
1.1827
1.13606
1.16177
1.12816
1.15324
1.1265
1.11018
1.1589
1.11682
1.16378
1.16821
1.16007
1.17506
1.15505
1.17042
1.1395
1.13996
1.10892
1.08634
1.10323
1.07952
1.08192
1.05323
1.06139
1.04382
1.04252
1.04384
1.02173
1.03003
1.03024
1.03067
1.03427
0.991284
0.997222
1.02033
1.10771
1.12226
1.08836
1.08692
1.08027
1.07184
1.11403
1.12798
1.07081
1.08342
1.12898
1.13313
1.02132
1.00338
1.14307
1.21042
1.23171
1.38257
1.28737
1.18004
1.18836
1.2332
1.25298
1.2122
1.20665
1.19981
1.18496
1.19249
1.2463
1.2785
1.27564
1.26573
1.27096
1.26506
1.24719
1.25266
1.25473
1.24313
1.24828
1.2587
1.25699
1.24615
1.24055
1.24066
1.24659
1.25417
1.25149
1.2437
1.23819
1.23659
1.23745
1.23617
1.23339
1.22948
1.22418
1.22821
1.23042
1.22558
1.22054
1.21319
1.20825
1.20681
1.20793
1.20413
1.20537
1.21858
1.21519
1.19345
1.18931
1.20133
1.20006
1.18556
1.16856
1.17487
1.1964
1.20441
1.20297
1.19711
1.18682
1.18023
1.17655
1.17565
1.1783
1.18354
1.1881
1.18932
1.185
1.17093
1.1515
1.14009
1.14265
1.15308
1.16092
1.16365
1.15898
1.14576
1.13088
1.11704
1.10449
1.09858
1.10043
1.10733
1.11599
1.12454
1.12608
1.11921
1.11284
1.11054
1.10959
1.10496
1.10316
1.10807
1.11165
1.12294
1.13046
1.13236
1.12974
1.12649
1.12583
1.14071
1.1552
1.17347
1.19936
1.20172
1.19694
1.18555
1.16911
1.14993
1.14255
1.13549
1.13252
1.14171
1.13988
1.13498
1.1374
1.13869
1.12364
1.13778
1.13986
1.1242
1.14657
1.15978
1.1239
1.19071
1.13867
1.17804
1.14606
1.16702
1.14324
1.1596
1.13787
1.12895
1.14881
1.12052
1.14569
1.13325
1.13447
1.13126
1.12938
1.13766
1.10939
1.11825
1.09674
1.08097
1.08626
1.06046
1.06938
1.05796
1.06087
1.04908
1.04979
1.047
1.02003
1.04233
1.02961
1.01154
1.04298
1.01123
1.02622
1.05214
1.14734
1.14717
1.10267
1.11755
1.11185
1.093
1.13298
1.14543
1.09166
1.08515
1.11537
1.14162
1.01442
0.987558
1.13447
1.16912
1.22637
1.37919
1.26537
1.19568
1.23508
1.26132
1.27458
1.21413
1.20735
1.20079
1.203
1.2283
1.26696
1.29218
1.27697
1.26206
1.2618
1.25781
1.24805
1.25683
1.26107
1.25727
1.26364
1.26872
1.26714
1.25916
1.25296
1.25211
1.25744
1.26213
1.26287
1.25781
1.24981
1.24122
1.23721
1.23763
1.23429
1.23566
1.23054
1.22386
1.22551
1.23041
1.23354
1.22684
1.21658
1.20492
1.19655
1.20389
1.21075
1.19981
1.21431
1.21542
1.18689
1.18293
1.19414
1.18801
1.17377
1.16899
1.1852
1.20254
1.199
1.18985
1.18212
1.17407
1.16963
1.17023
1.17441
1.17908
1.18188
1.18254
1.18126
1.17538
1.1628
1.1507
1.14956
1.15524
1.1585
1.15468
1.14174
1.12813
1.11853
1.10758
1.09583
1.0942
1.10372
1.11516
1.12122
1.12213
1.1157
1.10034
1.08572
1.08673
1.09752
1.10472
1.10348
1.10407
1.10409
1.10184
1.10571
1.11329
1.12695
1.13142
1.13196
1.13424
1.15245
1.16603
1.18561
1.1972
1.19559
1.19192
1.1803
1.15813
1.14623
1.13924
1.13321
1.14022
1.14961
1.14368
1.14431
1.14439
1.13165
1.13745
1.14073
1.12596
1.1356
1.15214
1.12623
1.16618
1.14616
1.16749
1.14853
1.16195
1.15387
1.15952
1.14403
1.1409
1.14254
1.13631
1.13538
1.12846
1.12842
1.11172
1.11677
1.11522
1.10252
1.10879
1.08295
1.08452
1.08897
1.062
1.07486
1.06472
1.0546
1.05951
1.05515
1.04315
1.03127
1.05512
1.02167
1.00956
1.04572
1.02992
1.07592
1.09105
1.17541
1.16542
1.11102
1.1394
1.13701
1.11004
1.15049
1.15572
1.1117
1.0907
1.11867
1.13696
1.01194
0.996483
1.1348
1.12687
1.23897
1.35929
1.24645
1.17737
1.23958
1.27948
1.30196
1.21632
1.20952
1.20323
1.2149
1.25474
1.27659
1.28463
1.27902
1.27964
1.28191
1.27
1.26125
1.27165
1.27739
1.27982
1.28929
1.29561
1.29054
1.27607
1.26444
1.25781
1.25897
1.26043
1.25475
1.24734
1.24191
1.2396
1.23681
1.23597
1.22843
1.22464
1.22592
1.22793
1.22306
1.2125
1.20858
1.20787
1.21464
1.22339
1.20321
1.1798
1.20319
1.21464
1.19683
1.21443
1.21497
1.18825
1.17881
1.17264
1.17025
1.17873
1.18155
1.1888
1.19498
1.18772
1.17691
1.16897
1.16497
1.16517
1.16974
1.17543
1.17851
1.17637
1.169
1.16173
1.16063
1.16194
1.16093
1.15592
1.15065
1.14342
1.13657
1.12841
1.1179
1.10564
1.0972
1.0971
1.10054
1.10476
1.10654
1.10542
1.10435
1.10335
1.09687
1.09349
1.10261
1.11679
1.12896
1.13671
1.13613
1.12919
1.12428
1.11957
1.11943
1.1227
1.12838
1.13822
1.1489
1.16983
1.18357
1.18679
1.19073
1.18181
1.17871
1.16865
1.15072
1.14637
1.13736
1.1337
1.14577
1.15183
1.15177
1.15563
1.14987
1.14184
1.14352
1.13543
1.13659
1.1463
1.13567
1.15304
1.14778
1.15901
1.14921
1.1543
1.15412
1.15299
1.15114
1.14385
1.14399
1.14392
1.1339
1.13299
1.12688
1.1148
1.11959
1.10404
1.10642
1.10582
1.08553
1.09532
1.08733
1.06967
1.08929
1.06906
1.05815
1.07546
1.04971
1.04636
1.04777
1.04698
1.01954
1.0295
1.04767
1.05881
1.15049
1.15576
1.22673
1.16675
1.10427
1.17389
1.16819
1.13432
1.17474
1.16767
1.13003
1.09645
1.12986
1.12682
1.01439
1.02667
1.12631
1.09376
1.27909
1.33074
1.22385
1.19346
1.26808
1.30181
1.31534
1.21827
1.21157
1.20343
1.20883
1.25094
1.2899
1.29245
1.27481
1.26592
1.27265
1.27388
1.26443
1.2659
1.27019
1.27081
1.27233
1.27191
1.2675
1.26068
1.25785
1.26135
1.26671
1.26736
1.26171
1.25485
1.248
1.24367
1.2402
1.23834
1.23454
1.23318
1.22917
1.22424
1.2302
1.22427
1.21248
1.20287
1.19053
1.19815
1.21544
1.19473
1.17296
1.20388
1.20465
1.19676
1.20906
1.20676
1.19216
1.17496
1.1558
1.16703
1.18881
1.19024
1.18603
1.18195
1.17314
1.16345
1.1584
1.15944
1.16517
1.17285
1.17927
1.17893
1.16801
1.14893
1.1382
1.14266
1.1517
1.15384
1.14999
1.14632
1.14628
1.14221
1.13096
1.11208
1.09762
1.09166
1.09259
1.10129
1.10898
1.10548
1.10095
1.10551
1.10734
1.09787
1.08875
1.08547
1.09403
1.11279
1.12365
1.12418
1.12141
1.12388
1.128
1.13114
1.13662
1.14848
1.16571
1.17901
1.18904
1.1862
1.18244
1.17268
1.16553
1.15526
1.1486
1.14806
1.14079
1.13367
1.14083
1.14872
1.15331
1.1629
1.16461
1.15481
1.15153
1.14557
1.14242
1.14445
1.14113
1.14484
1.14431
1.15006
1.15057
1.14948
1.15048
1.15013
1.15355
1.1478
1.14805
1.14528
1.13815
1.14017
1.12886
1.12564
1.12559
1.10709
1.11828
1.10177
1.1
1.10776
1.08629
1.08877
1.10119
1.06844
1.07519
1.0831
1.04872
1.05777
1.05659
1.03849
1.0242
1.03652
1.06471
1.10918
1.2109
1.18938
1.26007
1.17629
1.08314
1.19252
1.16703
1.11739
1.17422
1.17815
1.14655
1.10441
1.14374
1.11575
1.0236
1.05733
1.10437
1.09003
1.32196
1.29961
1.20058
1.21633
1.30631
1.34232
1.31364
1.22061
1.21582
1.20725
1.20035
1.22167
1.27046
1.30414
1.30466
1.29031
1.2828
1.2802
1.27156
1.26575
1.26259
1.26119
1.25839
1.25747
1.2591
1.26345
1.27183
1.27943
1.2802
1.2695
1.25444
1.2437
1.2376
1.23257
1.22887
1.22654
1.22466
1.22078
1.23178
1.22239
1.20992
1.21122
1.21034
1.2131
1.21093
1.19338
1.1892
1.20013
1.18469
1.1874
1.20505
1.1988
1.19565
1.19971
1.19726
1.19016
1.16631
1.1505
1.16909
1.19053
1.19041
1.18093
1.17071
1.15974
1.15163
1.15028
1.15539
1.16408
1.17405
1.182
1.18068
1.16486
1.14494
1.13592
1.14061
1.14826
1.15332
1.15647
1.15871
1.1521
1.13362
1.11188
1.0973
1.08983
1.0886
1.09244
1.10374
1.10501
1.09908
1.10441
1.10896
1.10417
1.09288
1.08311
1.0852
1.0948
1.09926
1.09916
1.10474
1.1086
1.11328
1.11804
1.13354
1.15184
1.17311
1.18799
1.1875
1.18115
1.16946
1.15986
1.15557
1.14275
1.1397
1.13925
1.13801
1.13712
1.14203
1.14862
1.15749
1.1666
1.17475
1.16873
1.16444
1.15933
1.15516
1.14992
1.14625
1.14625
1.14628
1.14886
1.14909
1.14967
1.15058
1.15405
1.15695
1.15329
1.15331
1.14964
1.14461
1.14563
1.13181
1.13797
1.12457
1.11956
1.12811
1.10667
1.11945
1.11278
1.09591
1.11103
1.10048
1.07746
1.09294
1.08513
1.05352
1.0687
1.06266
1.03
1.03082
1.05305
1.10458
1.16897
1.21942
1.18805
1.23831
1.17422
1.07193
1.18581
1.16509
1.0918
1.14507
1.16672
1.1496
1.11016
1.1554
1.10909
1.04023
1.07302
1.08445
1.11569
1.35186
1.2616
1.19688
1.24568
1.33302
1.36927
1.30342
1.22322
1.22201
1.21375
1.20161
1.19778
1.22249
1.26187
1.29242
1.30582
1.30785
1.30713
1.30339
1.29699
1.29229
1.28763
1.28492
1.28568
1.2884
1.2933
1.29307
1.28293
1.26652
1.24864
1.23954
1.23523
1.23464
1.23461
1.23852
1.23677
1.24187
1.23612
1.22535
1.22564
1.2216
1.20883
1.20325
1.19164
1.19705
1.20444
1.19448
1.19171
1.1854
1.17347
1.18745
1.20166
1.19781
1.19149
1.18845
1.19167
1.18476
1.15986
1.15025
1.16764
1.1851
1.18495
1.17448
1.16194
1.14986
1.143
1.1443
1.15223
1.16238
1.17243
1.18001
1.17773
1.16565
1.15437
1.15029
1.15458
1.15972
1.16254
1.16445
1.15719
1.14103
1.11789
1.1006
1.09276
1.09314
1.09569
1.10489
1.10354
1.09065
1.08919
1.09433
1.09518
1.09294
1.09516
1.10655
1.11831
1.12012
1.11936
1.12106
1.12213
1.12415